/*--------------------------------*- C++ -*----------------------------------*\
  =========                 |
  \\      /  F ield         | OpenFOAM: The Open Source CFD Toolbox
   \\    /   O peration     | Website:  https://openfoam.org
    \\  /    A nd           | Version:  7
     \\/     M anipulation  |
\*---------------------------------------------------------------------------*/
FoamFile
{
    version     2.0;
    format      ascii;
    class       volScalarField;
    location    "248000";
    object      strainRate;
}
// * * * * * * * * * * * * * * * * * * * * * * * * * * * * * * * * * * * * * //

dimensions      [0 0 -1 0 0 0 0];

internalField   nonuniform List<scalar> 
4838
(
0.00332986
0.00319978
0.00315753
0.0030971
0.00302942
0.00295934
0.00288885
0.00281894
0.00275019
0.00268306
0.00261791
0.00255509
0.00249495
0.0024378
0.00238397
0.00233376
0.00228749
0.00224545
0.00220794
0.00217521
0.00214752
0.00212509
0.0021081
0.00209668
0.00209095
0.00209095
0.00209668
0.0021081
0.00212509
0.00214752
0.00217521
0.00220794
0.00224545
0.00228749
0.00233376
0.00238397
0.0024378
0.00249495
0.0025551
0.00261791
0.00268306
0.00275019
0.00281894
0.00288885
0.00295934
0.00302942
0.0030971
0.00315753
0.00319978
0.00332986
0.00406563
0.0036713
0.00361233
0.0035374
0.00345208
0.00336208
0.00327106
0.00318116
0.00309362
0.00300916
0.00292831
0.00285143
0.0027788
0.00271071
0.00264737
0.00258901
0.00253583
0.00248802
0.00244577
0.00240923
0.00237854
0.00235384
0.00233521
0.00232275
0.00231651
0.00231651
0.00232275
0.00233521
0.00235384
0.00237854
0.00240923
0.00244577
0.00248802
0.00253583
0.00258901
0.00264737
0.00271071
0.0027788
0.00285143
0.00292831
0.00300917
0.00309362
0.00318117
0.00327106
0.00336208
0.00345208
0.0035374
0.00361233
0.0036713
0.00406563
0.00437299
0.00391079
0.00382368
0.0037425
0.0036594
0.00357355
0.00348632
0.0033993
0.00331381
0.00323078
0.00315089
0.00307466
0.00300248
0.00293468
0.00287154
0.00281331
0.00276022
0.00271249
0.00267029
0.00263379
0.00260314
0.00257847
0.00255987
0.00254743
0.00254119
0.00254119
0.00254743
0.00255987
0.00257847
0.00260314
0.00263379
0.00267029
0.00271249
0.00276022
0.00281331
0.00287154
0.00293468
0.00300248
0.00307466
0.00315089
0.00323078
0.00331381
0.00339931
0.00348632
0.00357355
0.0036594
0.0037425
0.00382368
0.00391079
0.00437299
0.00460259
0.00415208
0.00404639
0.00395253
0.00386411
0.00377754
0.00369171
0.00360681
0.00352349
0.00344244
0.0033643
0.00328959
0.00321873
0.00315208
0.00308996
0.00303264
0.00298035
0.00293331
0.00289171
0.00285573
0.00282552
0.00280119
0.00278285
0.00277058
0.00276444
0.00276444
0.00277058
0.00278285
0.00280119
0.00282552
0.00285573
0.00289172
0.00293331
0.00298035
0.00303264
0.00308997
0.00315209
0.00321873
0.00328959
0.0033643
0.00344244
0.00352349
0.00360681
0.00369171
0.00377754
0.00386411
0.00395253
0.00404639
0.00415209
0.00460259
0.00481519
0.00438631
0.00427475
0.00417261
0.00407779
0.00398772
0.00390067
0.00381596
0.00373352
0.00365367
0.00357679
0.0035033
0.00343359
0.00336801
0.00330686
0.00325041
0.00319891
0.00315258
0.0031116
0.00307616
0.00304639
0.00302242
0.00300436
0.00299227
0.00298622
0.00298622
0.00299227
0.00300436
0.00302242
0.00304639
0.00307616
0.0031116
0.00315258
0.00319891
0.00325041
0.00330686
0.00336801
0.00343359
0.0035033
0.00357679
0.00365367
0.00373353
0.00381596
0.00390067
0.00398772
0.00407779
0.00417261
0.00427475
0.00438631
0.0048152
0.00502155
0.00461364
0.00450116
0.00439542
0.00429632
0.00420278
0.00411358
0.00402788
0.0039453
0.00386582
0.0037896
0.00371691
0.00364804
0.00358329
0.00352293
0.00346723
0.00341643
0.00337072
0.0033303
0.00329534
0.00326598
0.00324234
0.00322453
0.00321261
0.00320664
0.00320664
0.00321261
0.00322453
0.00324234
0.00326598
0.00329534
0.0033303
0.00337072
0.00341643
0.00346723
0.00352293
0.00358329
0.00364804
0.00371691
0.0037896
0.00386582
0.00394531
0.00402788
0.00411358
0.00420278
0.00429632
0.00439542
0.00450117
0.00461364
0.00502155
0.00522499
0.00483613
0.00472412
0.00461725
0.00451597
0.00442005
0.00432889
0.00424189
0.00415866
0.00407902
0.00400299
0.0039307
0.00386235
0.00379819
0.00373844
0.00368334
0.00363309
0.00358791
0.00354797
0.00351343
0.00348443
0.00346108
0.00344349
0.00343172
0.00342582
0.00342582
0.00343172
0.00344349
0.00346108
0.00348443
0.00351343
0.00354797
0.00358791
0.00363309
0.00368334
0.00373844
0.00379819
0.00386235
0.0039307
0.00400299
0.00407902
0.00415866
0.00424189
0.00432889
0.00442005
0.00451597
0.00461725
0.00472412
0.00483614
0.00522499
0.00542702
0.00505537
0.00494408
0.00483709
0.00473491
0.00463764
0.0045451
0.00445698
0.00437298
0.00429294
0.00421682
0.00414466
0.0040766
0.00401281
0.00395349
0.00389883
0.00384904
0.00380428
0.00376473
0.00373054
0.00370184
0.00367874
0.00366134
0.0036497
0.00364387
0.00364387
0.0036497
0.00366134
0.00367875
0.00370184
0.00373054
0.00376473
0.00380428
0.00384904
0.00389883
0.00395349
0.00401281
0.0040766
0.00414466
0.00421682
0.00429295
0.00437298
0.00445698
0.0045451
0.00463764
0.00473491
0.0048371
0.00494408
0.00505537
0.00542702
0.00562846
0.00527237
0.00516175
0.005055
0.00495256
0.00485463
0.00476126
0.00467232
0.00458767
0.0045072
0.00443085
0.00435867
0.00429072
0.00422716
0.00416812
0.00411379
0.00406433
0.00401991
0.00398068
0.00394678
0.00391833
0.00389544
0.0038782
0.00386667
0.00386089
0.00386089
0.00386667
0.0038782
0.00389544
0.00391833
0.00394678
0.00398068
0.00401991
0.00406433
0.00411379
0.00416812
0.00422716
0.00429072
0.00435867
0.00443085
0.0045072
0.00458767
0.00467232
0.00476126
0.00485464
0.00495256
0.005055
0.00516175
0.00527238
0.00562846
0.00582978
0.00548781
0.00537774
0.00527132
0.0051689
0.00507071
0.00497688
0.00488742
0.00480229
0.00472144
0.00464486
0.00457258
0.00450465
0.0044412
0.00438235
0.00432825
0.00427904
0.00423487
0.00419589
0.00416222
0.00413398
0.00411126
0.00409415
0.00408271
0.00407698
0.00407698
0.00408271
0.00409416
0.00411126
0.00413398
0.00416222
0.00419589
0.00423487
0.00427904
0.00432825
0.00438235
0.0044412
0.00450466
0.00457258
0.00464486
0.00472144
0.00480229
0.00488742
0.00497688
0.00507072
0.0051689
0.00527133
0.00537774
0.00548781
0.00582978
0.00603127
0.00570215
0.00559253
0.00548643
0.00538413
0.00528588
0.00519182
0.00510205
0.00501659
0.00493546
0.00485867
0.00478627
0.00471833
0.00465493
0.00459619
0.00454224
0.00449321
0.00444924
0.00441045
0.00437696
0.00434889
0.00432631
0.00430931
0.00429794
0.00429225
0.00429225
0.00429795
0.00430931
0.00432631
0.00434889
0.00437696
0.00441045
0.00444924
0.00449321
0.00454224
0.00459619
0.00465493
0.00471833
0.00478627
0.00485867
0.00493546
0.00501659
0.00510205
0.00519182
0.00528588
0.00538414
0.00548643
0.00559254
0.00570216
0.00603127
0.00623314
0.00591575
0.00580648
0.00570064
0.0055985
0.00550026
0.00540611
0.00531616
0.00523048
0.00514915
0.0050722
0.00499969
0.0049317
0.00486832
0.00480964
0.0047558
0.0047069
0.00466307
0.00462443
0.00459109
0.00456314
0.00454068
0.00452376
0.00451246
0.0045068
0.0045068
0.00451246
0.00452376
0.00454068
0.00456314
0.00459109
0.00462443
0.00466307
0.0047069
0.0047558
0.00480964
0.00486832
0.0049317
0.00499969
0.0050722
0.00514915
0.00523049
0.00531616
0.00540611
0.00550026
0.0055985
0.00570064
0.00580648
0.00591576
0.00623315
0.00643555
0.00612888
0.00601986
0.00591423
0.00581222
0.00571403
0.00561985
0.00552979
0.00544398
0.0053625
0.00528543
0.00521283
0.00514479
0.00508139
0.00502275
0.00496897
0.00492016
0.00487644
0.00483791
0.00480468
0.00477683
0.00475446
0.00473762
0.00472636
0.00472072
0.00472072
0.00472636
0.00473762
0.00475446
0.00477684
0.00480468
0.00483791
0.00487644
0.00492016
0.00496897
0.00502275
0.00508139
0.00514479
0.00521283
0.00528543
0.00536251
0.00544399
0.00552979
0.00561985
0.00571404
0.00581222
0.00591423
0.00601987
0.00612889
0.00643555
0.00663862
0.00634177
0.00623293
0.00612744
0.00602552
0.00592738
0.00583318
0.00574306
0.00565716
0.00557557
0.00549839
0.00542571
0.00535762
0.0052942
0.00523557
0.00518183
0.00513308
0.00508943
0.00505098
0.00501783
0.00499007
0.00496776
0.00495097
0.00493975
0.00493414
0.00493414
0.00493975
0.00495097
0.00496776
0.00499007
0.00501783
0.00505098
0.00508943
0.00513308
0.00518183
0.00523557
0.0052942
0.00535762
0.00542571
0.00549839
0.00557557
0.00565716
0.00574306
0.00583318
0.00592738
0.00602553
0.00612744
0.00623293
0.00634178
0.00663862
0.00684245
0.00655462
0.00644587
0.00634046
0.0062386
0.00614048
0.00604625
0.00595609
0.0058701
0.00578843
0.00571116
0.0056384
0.00557025
0.00550681
0.00544817
0.00539445
0.00534573
0.00530213
0.00526374
0.00523065
0.00520294
0.00518068
0.00516393
0.00515275
0.00514714
0.00514714
0.00515275
0.00516394
0.00518068
0.00520294
0.00523065
0.00526374
0.00530213
0.00534573
0.00539445
0.00544817
0.00550681
0.00557025
0.0056384
0.00571116
0.00578843
0.0058701
0.00595609
0.00604626
0.00614048
0.00623861
0.00634046
0.00644588
0.00655463
0.00684245
0.00704714
0.0067676
0.00665888
0.00655349
0.00645164
0.00635349
0.00625923
0.006169
0.00608294
0.00600118
0.00592383
0.00585099
0.00578278
0.0057193
0.00566064
0.00560691
0.0055582
0.00551463
0.00547627
0.00544322
0.00541555
0.00539333
0.00537661
0.00536544
0.00535985
0.00535985
0.00536544
0.00537661
0.00539333
0.00541555
0.00544322
0.00547627
0.00551463
0.00555821
0.00560691
0.00566064
0.0057193
0.00578278
0.00585099
0.00592383
0.00600118
0.00608294
0.006169
0.00625923
0.0063535
0.00645164
0.00655349
0.00665888
0.0067676
0.00704714
0.00725277
0.00698087
0.00687211
0.00676668
0.00666478
0.00656659
0.00647226
0.00638195
0.0062958
0.00621394
0.00613649
0.00606358
0.0059953
0.00593176
0.00587306
0.00581931
0.0057706
0.00572703
0.00568869
0.00565566
0.00562801
0.00560581
0.00558911
0.00557796
0.00557238
0.00557238
0.00557796
0.00558911
0.00560581
0.00562801
0.00565566
0.00568869
0.00572703
0.0057706
0.00581931
0.00587306
0.00593176
0.0059953
0.00606358
0.0061365
0.00621394
0.0062958
0.00638195
0.00647226
0.00656659
0.00666478
0.00676668
0.00687211
0.00698087
0.00725278
0.00745945
0.00719457
0.00708571
0.00698019
0.00687819
0.0067799
0.00668547
0.00659505
0.00650879
0.00642683
0.00634928
0.00627627
0.0062079
0.00614429
0.00608554
0.00603175
0.00598302
0.00593943
0.00590109
0.00586806
0.00584042
0.00581824
0.00580155
0.0057904
0.00578482
0.00578482
0.0057904
0.00580155
0.00581824
0.00584043
0.00586806
0.00590109
0.00593944
0.00598302
0.00603175
0.00608554
0.00614429
0.0062079
0.00627627
0.00634928
0.00642683
0.0065088
0.00659506
0.00668547
0.0067799
0.0068782
0.00698019
0.00708571
0.00719457
0.00745945
0.00766724
0.00740885
0.00729983
0.00719415
0.00709202
0.00699358
0.00689901
0.00680846
0.00672207
0.00663997
0.0065623
0.00648917
0.0064207
0.006357
0.00629818
0.00624433
0.00619556
0.00615195
0.00611359
0.00608055
0.00605291
0.00603072
0.00601403
0.00600289
0.00599731
0.00599731
0.00600289
0.00601403
0.00603072
0.00605291
0.00608055
0.00611359
0.00615195
0.00619556
0.00624434
0.00629818
0.00635701
0.0064207
0.00648917
0.0065623
0.00663997
0.00672207
0.00680846
0.00689901
0.00699358
0.00709202
0.00719415
0.00729983
0.00740885
0.00766724
0.00751458
0.00740871
0.00730638
0.00720776
0.00711301
0.00702229
0.00693573
0.00685348
0.00677566
0.0067024
0.00663381
0.00657001
0.0065111
0.00645718
0.00640834
0.00636468
0.00632629
0.00629322
0.00626556
0.00624336
0.00622667
0.00621552
0.00620994
0.00620994
0.00621552
0.00622667
0.00624336
0.00626556
0.00629322
0.00632629
0.00636468
0.00640834
0.00645718
0.0065111
0.00657001
0.00663381
0.0067024
0.00677566
0.00685348
0.00693573
0.00702229
0.00711302
0.00720776
0.00730638
0.00740871
0.00751459
0.00762382
0.00787624
0.00762398
0.00752141
0.00742257
0.0073276
0.00723667
0.00714992
0.00706748
0.00698949
0.00691608
0.00684735
0.00678342
0.00672439
0.00667038
0.00662147
0.00657775
0.0065393
0.0065062
0.00647851
0.00645628
0.00643958
0.00642842
0.00642284
0.00642284
0.00642842
0.00643958
0.00645629
0.00647851
0.0065062
0.0065393
0.00657775
0.00662147
0.00667038
0.0067244
0.00678342
0.00684735
0.00691608
0.0069895
0.00706749
0.00714992
0.00723667
0.00732761
0.00742257
0.00752142
0.00762399
0.00773012
0.00783963
0.00808652
0.00763812
0.0075429
0.00745173
0.00736475
0.0072821
0.00720391
0.00713031
0.00706141
0.00699734
0.00693818
0.00688406
0.00683505
0.00679125
0.00675273
0.00671958
0.00669185
0.00666959
0.00665287
0.00664169
0.0066361
0.0066361
0.00664169
0.00665287
0.0066696
0.00669185
0.00671958
0.00675273
0.00679125
0.00683505
0.00688406
0.00693819
0.00699734
0.00706142
0.00713031
0.00720391
0.0072821
0.00736475
0.00745173
0.00754291
0.00763813
0.00773725
0.0078401
0.00794654
0.00805638
0.00829817
0.00775903
0.00766758
0.00758034
0.00749744
0.00741902
0.00734522
0.00727613
0.00721188
0.00715258
0.00709832
0.0070492
0.0070053
0.0069667
0.00693348
0.0069057
0.0068834
0.00686664
0.00685545
0.00684985
0.00684985
0.00685545
0.00686664
0.0068834
0.0069057
0.00693348
0.0069667
0.0070053
0.0070492
0.00709832
0.00715258
0.00721189
0.00727613
0.00734522
0.00741903
0.00749744
0.00758034
0.00766758
0.00775904
0.00785456
0.00795399
0.00805719
0.00816398
0.00827419
0.00851128
0.00788434
0.0077968
0.00771363
0.00763495
0.00756091
0.00749161
0.00742717
0.00736769
0.00731328
0.00726402
0.00722001
0.00718131
0.00714801
0.00712016
0.00709782
0.00708103
0.00706981
0.0070642
0.0070642
0.00706981
0.00708103
0.00709782
0.00712017
0.00714801
0.00718132
0.00722001
0.00726402
0.00731328
0.00736769
0.00742717
0.00749161
0.00756091
0.00763496
0.00771363
0.0077968
0.00788434
0.00797612
0.00807198
0.00817177
0.00827535
0.00838255
0.00849318
0.00872593
0.00793077
0.00785181
0.0077775
0.00770796
0.0076433
0.00758363
0.00752904
0.00747963
0.00743549
0.00739668
0.00736329
0.00733536
0.00731296
0.00729612
0.00728488
0.00727925
0.00727925
0.00728488
0.00729612
0.00731296
0.00733536
0.00736329
0.00739668
0.00743549
0.00747963
0.00752904
0.00758363
0.0076433
0.00770796
0.0077775
0.00785181
0.00793077
0.00801426
0.00810213
0.00819426
0.0082905
0.0083907
0.0084947
0.00860236
0.00871347
0.00894221
0.00806971
0.00799511
0.0079253
0.00786039
0.0078005
0.00774572
0.00769614
0.00765185
0.00761291
0.00757941
0.0075514
0.00752893
0.00751204
0.00750076
0.00749512
0.00749512
0.00750076
0.00751204
0.00752893
0.0075514
0.00757941
0.00761291
0.00765185
0.00769614
0.00774572
0.0078005
0.0078604
0.0079253
0.00799511
0.00806971
0.00814899
0.00823282
0.00832106
0.00841358
0.00851024
0.00861089
0.00871537
0.00882352
0.00893516
0.00916021
0.00801842
0.00796343
0.00791365
0.00786919
0.00783012
0.0077965
0.00776839
0.00774584
0.00772889
0.00771758
0.00771191
0.00771191
0.00771758
0.00772889
0.00774584
0.00776839
0.0077965
0.00783012
0.0078692
0.00791366
0.00796343
0.00801843
0.00807856
0.00814373
0.00821383
0.00828876
0.00836839
0.00845259
0.00854124
0.0086342
0.00873132
0.00883246
0.00893745
0.00904615
0.00915837
0.00938001
0.00804841
0.00801465
0.00798643
0.0079638
0.00794679
0.00793543
0.00792974
0.00792974
0.00793543
0.00794679
0.0079638
0.00798643
0.00801465
0.00804841
0.00808764
0.00813229
0.00818227
0.0082375
0.0082979
0.00836337
0.0084338
0.00850907
0.00858908
0.0086737
0.00876279
0.00885622
0.00895384
0.00905551
0.00916107
0.00927036
0.0093832
0.00960171
0.00820565
0.00818292
0.00816583
0.00815443
0.00814872
0.00814872
0.00815443
0.00816583
0.00818292
0.00820565
0.00823399
0.00826789
0.0083073
0.00835215
0.00840236
0.00845785
0.00851854
0.00858432
0.0086551
0.00873076
0.00881118
0.00889624
0.00898581
0.00907975
0.00917791
0.00928016
0.00938632
0.00949625
0.00960976
0.00982541
0.00836895
0.00836895
0.00837469
0.00838614
0.00840331
0.00842614
0.00845462
0.00848868
0.00852828
0.00857334
0.0086238
0.00867958
0.00874058
0.00880671
0.00887786
0.00895393
0.0090348
0.00912034
0.00921042
0.00930491
0.00940366
0.00950652
0.00961333
0.00972395
0.00983818
0.0100512
0.00864802
0.00867664
0.00871088
0.00875068
0.00879598
0.00884671
0.00890279
0.00896412
0.00903062
0.00910218
0.0091787
0.00926004
0.0093461
0.00943673
0.0095318
0.00963117
0.00973469
0.0098422
0.00995355
0.0100685
0.0102791
0.00897462
0.00902018
0.00907119
0.0091276
0.00918929
0.00925619
0.00932818
0.00940517
0.00948702
0.00957363
0.00966484
0.00976054
0.00986058
0.0099648
0.010073
0.0101852
0.010301
0.0105094
0.00929736
0.00935411
0.00941619
0.00948351
0.00955597
0.00963346
0.00971585
0.00980304
0.00989488
0.00999124
0.010092
0.0101969
0.010306
0.0104189
0.0105356
0.010742
0.00952533
0.00958245
0.00964494
0.00971271
0.00978565
0.00986367
0.00994664
0.0100344
0.0101269
0.010224
0.0103255
0.0104312
0.0105411
0.0106549
0.0107725
0.0109771
0.00975521
0.00981271
0.00987563
0.00994388
0.0100173
0.0100959
0.0101795
0.010268
0.0103612
0.010459
0.0105612
0.0106678
0.0107785
0.0108933
0.0110118
0.0112148
0.0101771
0.0102512
0.0103303
0.0104146
0.0105037
0.0105976
0.0106962
0.0107993
0.0109068
0.0110184
0.0111341
0.0112536
0.0114552
0.0108365
0.0109359
0.0110398
0.0111482
0.0112608
0.0113775
0.011498
0.0116983
0.0113922
0.0115058
0.0116236
0.0117452
0.0119444
0.0021081
0.00209668
0.00209095
0.00209095
0.00209668
0.0021081
0.00212509
0.00214752
0.00217521
0.00220794
0.00224545
0.00228749
0.00233376
0.00238397
0.0024378
0.00249495
0.00255509
0.00261791
0.00268306
0.00275019
0.00281894
0.00288885
0.00295934
0.00302942
0.0030971
0.00315753
0.00319978
0.00332986
0.00233521
0.00232275
0.00231651
0.00231651
0.00232275
0.00233521
0.00235384
0.00237854
0.00240923
0.00244577
0.00248802
0.00253583
0.00258901
0.00264737
0.00271071
0.0027788
0.00285143
0.00292831
0.00300916
0.00309361
0.00318116
0.00327106
0.00336208
0.00345208
0.0035374
0.00361233
0.0036713
0.00406563
0.00255987
0.00254743
0.0025412
0.0025412
0.00254743
0.00255987
0.00257847
0.00260314
0.00263379
0.00267029
0.00271249
0.00276022
0.00281331
0.00287154
0.00293468
0.00300248
0.00307466
0.00315089
0.00323078
0.00331381
0.0033993
0.00348632
0.00357355
0.0036594
0.0037425
0.00382368
0.00391079
0.00437299
0.00278285
0.00277058
0.00276444
0.00276444
0.00277058
0.00278285
0.00280119
0.00282552
0.00285573
0.00289171
0.00293331
0.00298035
0.00303264
0.00308996
0.00315208
0.00321873
0.00328959
0.0033643
0.00344244
0.00352349
0.00360681
0.00369171
0.00377754
0.00386411
0.00395253
0.00404639
0.00415208
0.00460259
0.00300436
0.00299227
0.00298622
0.00298622
0.00299227
0.00300436
0.00302242
0.00304639
0.00307616
0.0031116
0.00315258
0.00319891
0.00325041
0.00330685
0.00336801
0.00343359
0.0035033
0.00357678
0.00365367
0.00373352
0.00381596
0.00390067
0.00398772
0.00407779
0.00417261
0.00427475
0.00438631
0.00481519
0.00322453
0.00321261
0.00320664
0.00320664
0.00321261
0.00322453
0.00324234
0.00326598
0.00329534
0.0033303
0.00337072
0.00341642
0.00346723
0.00352293
0.00358329
0.00364804
0.00371691
0.0037896
0.00386582
0.0039453
0.00402788
0.00411358
0.00420278
0.00429632
0.00439542
0.00450116
0.00461364
0.00502155
0.00344349
0.00343172
0.00342582
0.00342582
0.00343172
0.00344349
0.00346108
0.00348442
0.00351343
0.00354797
0.00358791
0.00363309
0.00368334
0.00373844
0.00379819
0.00386235
0.0039307
0.00400298
0.00407902
0.00415866
0.00424189
0.00432889
0.00442005
0.00451597
0.00461725
0.00472412
0.00483613
0.00522499
0.00366134
0.0036497
0.00364387
0.00364387
0.0036497
0.00366134
0.00367874
0.00370184
0.00373054
0.00376473
0.00380428
0.00384904
0.00389883
0.00395349
0.00401281
0.0040766
0.00414466
0.00421682
0.00429294
0.00437298
0.00445698
0.0045451
0.00463764
0.00473491
0.00483709
0.00494408
0.00505537
0.00542702
0.0038782
0.00386667
0.00386089
0.00386089
0.00386666
0.0038782
0.00389544
0.00391833
0.00394677
0.00398068
0.00401991
0.00406433
0.00411379
0.00416812
0.00422715
0.00429072
0.00435866
0.00443085
0.0045072
0.00458767
0.00467232
0.00476126
0.00485463
0.00495256
0.005055
0.00516175
0.00527237
0.00562846
0.00409415
0.00408271
0.00407698
0.00407698
0.00408271
0.00409415
0.00411126
0.00413398
0.00416222
0.00419589
0.00423487
0.00427904
0.00432825
0.00438235
0.0044412
0.00450465
0.00457257
0.00464486
0.00472144
0.00480228
0.00488742
0.00497688
0.00507071
0.0051689
0.00527132
0.00537774
0.00548781
0.00582978
0.00430931
0.00429794
0.00429225
0.00429225
0.00429794
0.00430931
0.00432631
0.00434888
0.00437696
0.00441045
0.00444924
0.00449321
0.00454224
0.00459619
0.00465492
0.00471832
0.00478627
0.00485867
0.00493546
0.00501659
0.00510205
0.00519182
0.00528588
0.00538413
0.00548643
0.00559253
0.00570215
0.00603127
0.00452376
0.00451246
0.0045068
0.0045068
0.00451246
0.00452376
0.00454067
0.00456314
0.00459108
0.00462443
0.00466307
0.00470689
0.00475579
0.00480964
0.00486831
0.0049317
0.00499969
0.0050722
0.00514915
0.00523048
0.00531615
0.00540611
0.00550026
0.00559849
0.00570064
0.00580648
0.00591575
0.00623314
0.00473761
0.00472636
0.00472072
0.00472072
0.00472636
0.00473761
0.00475446
0.00477683
0.00480468
0.00483791
0.00487644
0.00492016
0.00496897
0.00502275
0.00508139
0.00514478
0.00521283
0.00528543
0.0053625
0.00544398
0.00552979
0.00561984
0.00571403
0.00581222
0.00591423
0.00601986
0.00612888
0.00643555
0.00495097
0.00493975
0.00493413
0.00493413
0.00493975
0.00495097
0.00496776
0.00499006
0.00501783
0.00505098
0.00508943
0.00513308
0.00518183
0.00523557
0.0052942
0.00535761
0.00542571
0.00549839
0.00557557
0.00565715
0.00574306
0.00583318
0.00592738
0.00602552
0.00612744
0.00623293
0.00634177
0.00663862
0.00523064
0.00526373
0.00530213
0.00534573
0.00539444
0.00544817
0.00550681
0.00557025
0.0056384
0.00571116
0.00578842
0.0058701
0.00595608
0.00604625
0.00614048
0.0062386
0.00634046
0.00644587
0.00655462
0.00684245
0.00600117
0.00608294
0.006169
0.00625923
0.00635349
0.00645163
0.00655349
0.00665888
0.0067676
0.00704713
0.00656658
0.00666478
0.00676668
0.00687211
0.00698087
0.00725277
0.00708571
0.00719457
0.00745945
0.0125755
0.0128389
0.0131058
0.00845785
0.00867958
0.00890279
0.0091276
0.00935411
0.00958245
0.00981272
0.010045
0.0102795
0.0105162
0.0107554
0.010997
0.0112412
0.0114882
0.0117381
0.011991
0.012247
0.0125062
0.0127688
0.013035
0.00774572
0.00796343
0.00818227
0.00840236
0.0086238
0.00884671
0.0090712
0.00929737
0.00952533
0.00975521
0.00998711
0.0102211
0.0104574
0.0106961
0.0109372
0.0111809
0.0114274
0.0116767
0.0119289
0.0121843
0.0124429
0.0127049
0.0129703
0.00769614
0.00791366
0.00813229
0.00835215
0.00857334
0.00879598
0.00902018
0.00924604
0.00947368
0.00970321
0.00993473
0.0101684
0.0104042
0.0106425
0.0108831
0.0111264
0.0113724
0.0116211
0.0118729
0.0121277
0.0123857
0.0126471
0.0129119
0.00765185
0.0078692
0.00808765
0.0083073
0.00852828
0.00875068
0.00897462
0.00920021
0.00942756
0.00965678
0.00988798
0.0101213
0.0103568
0.0105946
0.0108349
0.0110778
0.0113233
0.0115716
0.0118229
0.0120772
0.0123347
0.0125955
0.0128598
0.00761292
0.00783012
0.00804841
0.0082679
0.00848868
0.00871088
0.0089346
0.00915996
0.00938705
0.00961601
0.00984693
0.0100799
0.0103151
0.0105526
0.0107926
0.011035
0.0112802
0.0115281
0.011779
0.0120329
0.0122899
0.0125503
0.0128141
0.00329534
0.00351343
0.00373054
0.00394678
0.00416222
0.00437697
0.00459109
0.00480468
0.00501783
0.00523065
0.00544322
0.00565566
0.00586806
0.00608055
0.00629322
0.0065062
0.00671958
0.00693348
0.00714802
0.00736329
0.00757941
0.0077965
0.00801466
0.00823399
0.00845462
0.00867664
0.00890018
0.00912533
0.00935221
0.00958094
0.00981162
0.0100444
0.0102793
0.0105165
0.0107562
0.0109983
0.0112431
0.0114907
0.0117412
0.0119948
0.0122515
0.0125114
0.0127748
0.00326598
0.00348443
0.00370184
0.00391833
0.00413398
0.00434889
0.00456314
0.00477684
0.00499007
0.00520294
0.00541555
0.00562801
0.00584043
0.00605291
0.00626556
0.00647851
0.00669185
0.0069057
0.00712017
0.00733537
0.0075514
0.00776839
0.00798644
0.00820565
0.00842615
0.00864803
0.00887141
0.00909639
0.0093231
0.00955164
0.00978212
0.0100146
0.0102494
0.0104863
0.0107257
0.0109677
0.0112122
0.0114595
0.0117097
0.011963
0.0122193
0.012479
0.012742
0.00324235
0.00346108
0.00367875
0.00389544
0.00411127
0.00432631
0.00454068
0.00475446
0.00496776
0.00518068
0.00539333
0.00560581
0.00581824
0.00603072
0.00624336
0.00645629
0.0066696
0.00688341
0.00709782
0.00731296
0.00752893
0.00774584
0.0079638
0.00818292
0.00840331
0.00862508
0.00884833
0.00907319
0.00929975
0.00952814
0.00975846
0.00999083
0.0102254
0.0104622
0.0107014
0.0109431
0.0111874
0.0114345
0.0116845
0.0119375
0.0121936
0.012453
0.0127157
0.0021081
0.00233522
0.00255987
0.00278285
0.00300436
0.00322453
0.00344349
0.00366134
0.0038782
0.00409416
0.00430931
0.00452377
0.00473762
0.00495097
0.00516394
0.00537661
0.00558912
0.00580155
0.00601403
0.00622667
0.00643958
0.00665287
0.00686665
0.00708103
0.00729612
0.00751204
0.00772889
0.00794679
0.00816584
0.00838615
0.00860783
0.008831
0.00905575
0.00928221
0.00951049
0.00974069
0.00997293
0.0102073
0.010444
0.010683
0.0109246
0.0111688
0.0114157
0.0116655
0.0119183
0.0121742
0.0124334
0.012696
0.00209669
0.00232276
0.00254743
0.00277058
0.00299227
0.00321261
0.00343172
0.0036497
0.00386667
0.00408272
0.00429795
0.00451246
0.00472636
0.00493976
0.00515275
0.00536545
0.00557796
0.00579041
0.00600289
0.00621552
0.00642842
0.0066417
0.00685546
0.00706981
0.00728488
0.00750077
0.00771758
0.00793543
0.00815443
0.00837469
0.00859632
0.00881942
0.00904411
0.0092705
0.0094987
0.00972882
0.00996098
0.0101953
0.0104319
0.0106708
0.0109123
0.0111563
0.0114032
0.0116528
0.0119055
0.0121613
0.0124204
0.0126828
0.00209095
0.00231651
0.0025412
0.00276444
0.00298622
0.00320664
0.00342582
0.00364387
0.00386089
0.00407698
0.00429225
0.0045068
0.00472073
0.00493414
0.00514714
0.00535985
0.00557238
0.00578483
0.00599731
0.00620994
0.00642284
0.0066361
0.00684985
0.0070642
0.00727925
0.00749512
0.00771192
0.00792975
0.00814873
0.00836896
0.00859056
0.00881363
0.00903829
0.00926464
0.00949281
0.00972289
0.009955
0.0101893
0.0104258
0.0106647
0.0109061
0.0111501
0.0113969
0.0116465
0.0118991
0.0121549
0.0124139
0.0126762
0.00209095
0.00231651
0.0025412
0.00276444
0.00298622
0.00320664
0.00342582
0.00364387
0.00386089
0.00407698
0.00429225
0.0045068
0.00472073
0.00493414
0.00514714
0.00535985
0.00557238
0.00578483
0.00599731
0.00620994
0.00642284
0.0066361
0.00684985
0.0070642
0.00727925
0.00749512
0.00771192
0.00792975
0.00814873
0.00836896
0.00859056
0.00881363
0.00903829
0.00926464
0.00949281
0.00972289
0.009955
0.0101893
0.0104258
0.0106647
0.0109061
0.0111501
0.0113969
0.0116465
0.0118991
0.0121549
0.0124139
0.0126762
0.00209669
0.00232276
0.00254743
0.00277058
0.00299227
0.00321261
0.00343172
0.0036497
0.00386667
0.00408272
0.00429795
0.00451246
0.00472636
0.00493976
0.00515275
0.00536545
0.00557796
0.00579041
0.00600289
0.00621552
0.00642842
0.0066417
0.00685546
0.00706981
0.00728488
0.00750077
0.00771758
0.00793543
0.00815443
0.00837469
0.00859632
0.00881942
0.00904411
0.0092705
0.0094987
0.00972883
0.00996098
0.0101953
0.0104319
0.0106708
0.0109123
0.0111563
0.0114032
0.0116528
0.0119055
0.0121613
0.0124204
0.0126828
0.0021081
0.00233522
0.00255987
0.00278285
0.00300436
0.00322453
0.00344349
0.00366134
0.0038782
0.00409416
0.00430931
0.00452377
0.00473762
0.00495097
0.00516394
0.00537661
0.00558912
0.00580155
0.00601403
0.00622667
0.00643958
0.00665287
0.00686665
0.00708103
0.00729612
0.00751204
0.00772889
0.00794679
0.00816584
0.00838615
0.00860783
0.008831
0.00905575
0.00928221
0.00951049
0.00974069
0.00997293
0.0102073
0.010444
0.010683
0.0109246
0.0111688
0.0114157
0.0116655
0.0119183
0.0121742
0.0124334
0.012696
0.00212509
0.00235384
0.00257847
0.00280119
0.00302242
0.00324234
0.00346108
0.00367875
0.00389544
0.00411126
0.00432631
0.00454068
0.00475446
0.00496776
0.00518068
0.00539333
0.00560581
0.00581824
0.00603072
0.00624337
0.00645629
0.0066696
0.00688341
0.00709783
0.00731296
0.00752893
0.00774584
0.0079638
0.00818292
0.00840331
0.00862508
0.00884833
0.00907319
0.00929975
0.00952814
0.00975846
0.00999083
0.0102254
0.0104622
0.0107014
0.0109431
0.0111874
0.0114345
0.0116845
0.0119375
0.0121936
0.012453
0.0127157
0.00214752
0.00237854
0.00260314
0.00282552
0.00304639
0.00326598
0.00348443
0.00370184
0.00391833
0.00413398
0.00434889
0.00456314
0.00477684
0.00499007
0.00520294
0.00541555
0.00562801
0.00584043
0.00605291
0.00626557
0.00647851
0.00669185
0.0069057
0.00712017
0.00733537
0.0075514
0.00776839
0.00798644
0.00820565
0.00842615
0.00864803
0.00887141
0.00909639
0.0093231
0.00955164
0.00978212
0.0100146
0.0102494
0.0104863
0.0107257
0.0109677
0.0112122
0.0114595
0.0117097
0.011963
0.0122193
0.012479
0.012742
0.00217521
0.00240923
0.00263379
0.00285574
0.00307616
0.00329534
0.00351343
0.00373054
0.00394678
0.00416222
0.00437696
0.00459109
0.00480468
0.00501783
0.00523065
0.00544322
0.00565566
0.00586806
0.00608055
0.00629323
0.0065062
0.00671958
0.00693348
0.00714802
0.00736329
0.00757942
0.0077965
0.00801466
0.00823399
0.00845462
0.00867665
0.00890018
0.00912533
0.00935222
0.00958094
0.00981162
0.0100444
0.0102793
0.0105165
0.0107562
0.0109983
0.0112431
0.0114907
0.0117412
0.0119948
0.0122515
0.0125114
0.0127748
0.00220794
0.00244577
0.00267029
0.00289172
0.0031116
0.0033303
0.00354797
0.00376473
0.00398068
0.00419589
0.00441045
0.00462443
0.00483791
0.00505098
0.00526374
0.00547627
0.00568869
0.00590109
0.00611359
0.00632629
0.0065393
0.00675274
0.00696671
0.00718132
0.00739669
0.00761292
0.00783012
0.00804841
0.0082679
0.00848868
0.00871088
0.0089346
0.00915996
0.00938705
0.00961601
0.00984693
0.0100799
0.0103151
0.0105526
0.0107926
0.011035
0.0112802
0.0115281
0.011779
0.0120329
0.0122899
0.0125503
0.0128141
0.00224545
0.00248803
0.00271249
0.00293331
0.00315258
0.00337072
0.00358791
0.00380428
0.00401991
0.00423487
0.00444924
0.00466307
0.00487644
0.00508943
0.00530213
0.00551463
0.00572703
0.00593944
0.00615195
0.00636469
0.00657775
0.00679125
0.0070053
0.00722001
0.00743549
0.00765185
0.0078692
0.00808765
0.0083073
0.00852828
0.00875068
0.00897462
0.00920021
0.00942756
0.00965678
0.00988798
0.0101213
0.0103568
0.0105946
0.0108349
0.0110778
0.0113233
0.0115716
0.0118229
0.0120772
0.0123347
0.0125955
0.0128598
0.00228749
0.00253583
0.00276022
0.00298035
0.00319891
0.00341643
0.0036331
0.00384904
0.00406433
0.00427904
0.00449321
0.0047069
0.00492016
0.00513308
0.00534573
0.00555821
0.0057706
0.00598302
0.00619556