/*--------------------------------*- C++ -*----------------------------------*\
  =========                 |
  \\      /  F ield         | OpenFOAM: The Open Source CFD Toolbox
   \\    /   O peration     | Website:  https://openfoam.org
    \\  /    A nd           | Version:  7
     \\/     M anipulation  |
\*---------------------------------------------------------------------------*/
FoamFile
{
    version     2.0;
    format      ascii;
    class       volScalarField;
    location    "44000";
    object      nut;
}
// * * * * * * * * * * * * * * * * * * * * * * * * * * * * * * * * * * * * * //

dimensions      [0 2 -1 0 0 0 0];

internalField   nonuniform List<scalar> 
4814
(
3.43011e-15
3.4401e-15
3.44762e-15
3.45502e-15
3.05355e-15
3.08004e-15
3.10495e-15
3.13104e-15
3.15578e-15
3.18004e-15
3.20478e-15
3.22783e-15
3.24746e-15
3.26432e-15
3.28151e-15
3.29977e-15
3.3159e-15
3.32881e-15
3.34212e-15
3.35298e-15
3.36097e-15
3.36904e-15
3.37728e-15
3.38587e-15
3.3899e-15
3.39499e-15
3.3989e-15
3.40246e-15
3.40451e-15
3.40488e-15
3.4034e-15
3.40125e-15
3.39708e-15
3.39078e-15
3.38431e-15
3.37999e-15
3.37441e-15
3.36679e-15
2.95063e-15
2.97786e-15
3.00342e-15
3.03001e-15
3.0554e-15
3.08046e-15
3.1059e-15
3.12959e-15
3.14999e-15
3.1676e-15
3.18539e-15
3.20428e-15
3.22109e-15
3.23463e-15
3.2486e-15
3.26021e-15
3.26864e-15
3.27717e-15
3.28587e-15
3.29465e-15
3.29898e-15
3.30438e-15
3.3085e-15
3.31205e-15
3.31428e-15
3.31457e-15
3.31306e-15
3.3107e-15
3.30658e-15
3.2999e-15
3.29305e-15
3.2884e-15
3.28244e-15
3.27426e-15
3.26367e-15
3.2501e-15
3.23826e-15
3.22261e-15
3.20412e-15
3.18568e-15
3.16675e-15
2.8444e-15
2.87209e-15
2.89825e-15
2.92519e-15
2.9511e-15
2.97677e-15
3.00279e-15
3.02699e-15
3.04807e-15
3.06613e-15
3.08453e-15
3.10384e-15
3.12137e-15
3.13543e-15
3.14984e-15
3.16212e-15
3.17091e-15
3.17996e-15
3.18902e-15
3.19797e-15
3.20258e-15
3.20824e-15
3.21254e-15
3.21611e-15
3.21835e-15
3.21871e-15
3.21716e-15
3.21462e-15
3.21044e-15
3.20349e-15
3.19635e-15
3.19131e-15
3.18499e-15
3.17648e-15
3.16541e-15
3.15149e-15
3.13895e-15
3.12274e-15
3.10375e-15
3.08472e-15
3.06525e-15
3.044e-15
3.02137e-15
2.99834e-15
2.73523e-15
2.7633e-15
2.7899e-15
2.81705e-15
2.84331e-15
2.86946e-15
2.89581e-15
2.92039e-15
2.94201e-15
2.96052e-15
2.97938e-15
2.99893e-15
3.01717e-15
3.03152e-15
3.0463e-15
3.05918e-15
3.06835e-15
3.07786e-15
3.08721e-15
3.09619e-15
3.10114e-15
3.10703e-15
3.11149e-15
3.11504e-15
3.11718e-15
3.11758e-15
3.11608e-15
3.1134e-15
3.10912e-15
3.10192e-15
3.09464e-15
3.08915e-15
3.08262e-15
3.07374e-15
3.06228e-15
3.04818e-15
3.03496e-15
3.01829e-15
2.99901e-15
2.97951e-15
2.95951e-15
2.93798e-15
2.91491e-15
2.89145e-15
2.62362e-15
2.6519e-15
2.67878e-15
2.70607e-15
2.73253e-15
2.75901e-15
2.78557e-15
2.8104e-15
2.83232e-15
2.85124e-15
2.87041e-15
2.89013e-15
2.90886e-15
2.9234e-15
2.93848e-15
2.95187e-15
2.96144e-15
2.97133e-15
2.9808e-15
2.98991e-15
2.99507e-15
3.00109e-15
3.00567e-15
3.00929e-15
3.01137e-15
3.0117e-15
3.01032e-15
3.00742e-15
3.00309e-15
2.99578e-15
2.98838e-15
2.98253e-15
2.97572e-15
2.96655e-15
2.95489e-15
2.94054e-15
2.92689e-15
2.90986e-15
2.89036e-15
2.87042e-15
2.85012e-15
2.82839e-15
2.80505e-15
2.78129e-15
2.51013e-15
2.53848e-15
2.56547e-15
2.59276e-15
2.61926e-15
2.64593e-15
2.67248e-15
2.69743e-15
2.71953e-15
2.7387e-15
2.75816e-15
2.77796e-15
2.79699e-15
2.81171e-15
2.82699e-15
2.84071e-15
2.85057e-15
2.86087e-15
2.87043e-15
2.87962e-15
2.88494e-15
2.89107e-15
2.89563e-15
2.89928e-15
2.9013e-15
2.90157e-15
2.9003e-15
2.89734e-15
2.89288e-15
2.88557e-15
2.87809e-15
2.87191e-15
2.86482e-15
2.85553e-15
2.84363e-15
2.82911e-15
2.81513e-15
2.79785e-15
2.77833e-15
2.75807e-15
2.73759e-15
2.71577e-15
2.69228e-15
2.66837e-15
2.39526e-15
2.42346e-15
2.4504e-15
2.47762e-15
2.50402e-15
2.53065e-15
2.55716e-15
2.582e-15
2.60425e-15
2.62354e-15
2.64307e-15
2.66293e-15
2.68209e-15
2.69695e-15
2.71237e-15
2.72625e-15
2.7364e-15
2.74694e-15
2.75651e-15
2.76575e-15
2.77117e-15
2.77737e-15
2.782e-15
2.78565e-15
2.78763e-15
2.78773e-15
2.78668e-15
2.78366e-15
2.77902e-15
2.77183e-15
2.76429e-15
2.75786e-15
2.75055e-15
2.7411e-15
2.72914e-15
2.7145e-15
2.70033e-15
2.68279e-15
2.66335e-15
2.64297e-15
2.62243e-15
2.60055e-15
2.57712e-15
2.55321e-15
2.52795e-15
2.27947e-15
2.30735e-15
2.33416e-15
2.36117e-15
2.38733e-15
2.4138e-15
2.44004e-15
2.46468e-15
2.48692e-15
2.50621e-15
2.52578e-15
2.54559e-15
2.56472e-15
2.57967e-15
2.59506e-15
2.6091e-15
2.61936e-15
2.63009e-15
2.63971e-15
2.64886e-15
2.65441e-15
2.66068e-15
2.66524e-15
2.66887e-15
2.67079e-15
2.67085e-15
2.66991e-15
2.66684e-15
2.66217e-15
2.65507e-15
2.64755e-15
2.64091e-15
2.63343e-15
2.62393e-15
2.61189e-15
2.5972e-15
2.58295e-15
2.56534e-15
2.54598e-15
2.52567e-15
2.50519e-15
2.48335e-15
2.46012e-15
2.43632e-15
2.41102e-15
2.16325e-15
2.19071e-15
2.2172e-15
2.24386e-15
2.26971e-15
2.29581e-15
2.32169e-15
2.34606e-15
2.36812e-15
2.38726e-15
2.40684e-15
2.42642e-15
2.44543e-15
2.46044e-15
2.47572e-15
2.48977e-15
2.50014e-15
2.51099e-15
2.52051e-15
2.52964e-15
2.53524e-15
2.54146e-15
2.54602e-15
2.54953e-15
2.55145e-15
2.55147e-15
2.55057e-15
2.54756e-15
2.5428e-15
2.53582e-15
2.52835e-15
2.52165e-15
2.51404e-15
2.50448e-15
2.49244e-15
2.47779e-15
2.46355e-15
2.44604e-15
2.42686e-15
2.40671e-15
2.3864e-15
2.36472e-15
2.34178e-15
2.31819e-15
2.29302e-15
2.04712e-15
2.07405e-15
2.10009e-15
2.12628e-15
2.15162e-15
2.17729e-15
2.2027e-15
2.22662e-15
2.24838e-15
2.26733e-15
2.28679e-15
2.30605e-15
2.32481e-15
2.33981e-15
2.35485e-15
2.36883e-15
2.3793e-15
2.39013e-15
2.39958e-15
2.40864e-15
2.41424e-15
2.42032e-15
2.42484e-15
2.4283e-15
2.43014e-15
2.43018e-15
2.42933e-15
2.4264e-15
2.42159e-15
2.41474e-15
2.40736e-15
2.40065e-15
2.39296e-15
2.38335e-15
2.37139e-15
2.35683e-15
2.34271e-15
2.32545e-15
2.30649e-15
2.28659e-15
2.2666e-15
2.24522e-15
2.22261e-15
2.19936e-15
2.17448e-15
1.93154e-15
1.95785e-15
1.98332e-15
2.00892e-15
2.03365e-15
2.05871e-15
2.08354e-15
2.10691e-15
2.12827e-15
2.14696e-15
2.16618e-15
2.18499e-15
2.20348e-15
2.21837e-15
2.23309e-15
2.24696e-15
2.25741e-15
2.26811e-15
2.27749e-15
2.28637e-15
2.29196e-15
2.29791e-15
2.30237e-15
2.30577e-15
2.30751e-15
2.30756e-15
2.30671e-15
2.30388e-15
2.29904e-15
2.29243e-15
2.28516e-15
2.27842e-15
2.27072e-15
2.2612e-15
2.24939e-15
2.23499e-15
2.22101e-15
2.20407e-15
2.18542e-15
2.16593e-15
2.14631e-15
2.12532e-15
2.10322e-15
2.08043e-15
1.81698e-15
1.84256e-15
1.86738e-15
1.89224e-15
1.91629e-15
1.94059e-15
1.96475e-15
1.98747e-15
2.00836e-15
2.02668e-15
2.04552e-15
2.06386e-15
2.08194e-15
2.09667e-15
2.11101e-15
2.12463e-15
2.13505e-15
2.14558e-15
2.15476e-15
2.16345e-15
2.16901e-15
2.17481e-15
2.17918e-15
2.1825e-15
2.18417e-15
2.18421e-15
2.18338e-15
2.18061e-15
2.17583e-15
2.16946e-15
2.16228e-15
2.15563e-15
2.14791e-15
2.13857e-15
2.12694e-15
2.11282e-15
2.09903e-15
2.08247e-15
2.06423e-15
2.04526e-15
2.02613e-15
2.00558e-15
1.98407e-15
1.96185e-15
1.70393e-15
1.72868e-15
1.75271e-15
1.77678e-15
1.8e-15
1.8235e-15
1.84685e-15
1.86882e-15
1.88914e-15
1.90705e-15
1.92538e-15
1.9432e-15
1.96076e-15
1.97523e-15
1.98918e-15
2.00249e-15
2.01281e-15
2.02306e-15
2.03205e-15
2.04046e-15
2.046e-15
2.05161e-15
2.05588e-15
2.05909e-15
2.0607e-15
2.06073e-15
2.05994e-15
2.05717e-15
2.05253e-15
2.04643e-15
2.03937e-15
2.0328e-15
2.02518e-15
2.01608e-15
2.00463e-15
1.99089e-15
1.97739e-15
1.96129e-15
1.94352e-15
1.92515e-15
1.90654e-15
1.88657e-15
1.86571e-15
1.84416e-15
1.59282e-15
1.61666e-15
1.6398e-15
1.66297e-15
1.6853e-15
1.70788e-15
1.73034e-15
1.75152e-15
1.77117e-15
1.78857e-15
1.80628e-15
1.82354e-15
1.84049e-15
1.85462e-15
1.86815e-15
1.88105e-15
1.89119e-15
1.90118e-15
1.90993e-15
1.91799e-15
1.92349e-15
1.92885e-15
1.93303e-15
1.93615e-15
1.93766e-15
1.9377e-15
1.93693e-15
1.93423e-15
1.92973e-15
1.92386e-15
1.91701e-15
1.91055e-15
1.90308e-15
1.89422e-15
1.88307e-15
1.86975e-15
1.85657e-15
1.841e-15
1.82382e-15
1.80612e-15
1.78809e-15
1.76881e-15
1.74869e-15
1.72789e-15
1.48407e-15
1.50689e-15
1.52909e-15
1.55129e-15
1.57264e-15
1.59423e-15
1.6157e-15
1.63601e-15
1.65495e-15
1.67175e-15
1.68876e-15
1.70542e-15
1.7217e-15
1.73542e-15
1.74843e-15
1.76091e-15
1.77077e-15
1.78045e-15
1.78891e-15
1.79665e-15
1.80206e-15
1.80715e-15
1.81119e-15
1.8142e-15
1.81566e-15
1.81569e-15
1.81496e-15
1.81228e-15
1.80798e-15
1.80237e-15
1.79576e-15
1.78944e-15
1.78218e-15
1.77357e-15
1.76277e-15
1.74996e-15
1.73713e-15
1.72218e-15
1.70565e-15
1.68865e-15
1.6713e-15
1.6528e-15
1.63347e-15
1.61351e-15
1.35639e-15
1.38722e-15
1.41761e-15
1.44213e-15
1.46246e-15
1.483e-15
1.50342e-15
1.52279e-15
1.54094e-15
1.55705e-15
1.57333e-15
1.58929e-15
1.60486e-15
1.6181e-15
1.63058e-15
1.64256e-15
1.65211e-15
1.66145e-15
1.66955e-15
1.67693e-15
1.68221e-15
1.68707e-15
1.69094e-15
1.6938e-15
1.69523e-15
1.69526e-15
1.69453e-15
1.69191e-15
1.6878e-15
1.68247e-15
1.67613e-15
1.67002e-15
1.66297e-15
1.65466e-15
1.64426e-15
1.63203e-15
1.61963e-15
1.60531e-15
1.58952e-15
1.57328e-15
1.55664e-15
1.53897e-15
1.52051e-15
1.50148e-15
1.21268e-15
1.24113e-15
1.26921e-15
1.29722e-15
1.32447e-15
1.35179e-15
1.37888e-15
1.40488e-15
1.42957e-15
1.44498e-15
1.46046e-15
1.47567e-15
1.49046e-15
1.50317e-15
1.51509e-15
1.52651e-15
1.53574e-15
1.54467e-15
1.5524e-15
1.5594e-15
1.5645e-15
1.56914e-15
1.57282e-15
1.57554e-15
1.5769e-15
1.57692e-15
1.5762e-15
1.57367e-15
1.56978e-15
1.56474e-15
1.55868e-15
1.55281e-15
1.54602e-15
1.53802e-15
1.52806e-15
1.51644e-15
1.50454e-15
1.49092e-15
1.47588e-15
1.46044e-15
1.44458e-15
1.42782e-15
1.40285e-15
1.37719e-15
1.0778e-15
1.10375e-15
1.12944e-15
1.15505e-15
1.18005e-15
1.20508e-15
1.22991e-15
1.2538e-15
1.27654e-15
1.29748e-15
1.31823e-15
1.33847e-15
1.35798e-15
1.37535e-15
1.3916e-15
1.40696e-15
1.41996e-15
1.4306e-15
1.43793e-15
1.44456e-15
1.44945e-15
1.45385e-15
1.45731e-15
1.45989e-15
1.46116e-15
1.46119e-15
1.46048e-15
1.45808e-15
1.45442e-15
1.44968e-15
1.44391e-15
1.43828e-15
1.43181e-15
1.42203e-15
1.40837e-15
1.39283e-15
1.37657e-15
1.35843e-15
1.33863e-15
1.31823e-15
1.29714e-15
1.27502e-15
1.25206e-15
1.22847e-15
9.52455e-16
9.75872e-16
9.99095e-16
1.02226e-15
1.04493e-15
1.0676e-15
1.0901e-15
1.1118e-15
1.1325e-15
1.15168e-15
1.17068e-15
1.18921e-15
1.20704e-15
1.22301e-15
1.23796e-15
1.25205e-15
1.26406e-15
1.27534e-15
1.28515e-15
1.29394e-15
1.30071e-15
1.30658e-15
1.31111e-15
1.31438e-15
1.31602e-15
1.31605e-15
1.31492e-15
1.31177e-15
1.30705e-15
1.30093e-15
1.29337e-15
1.28547e-15
1.27638e-15
1.26585e-15
1.25328e-15
1.23902e-15
1.22405e-15
1.20745e-15
1.18934e-15
1.17069e-15
1.15139e-15
1.13119e-15
1.11032e-15
1.08889e-15
8.37122e-16
8.58017e-16
8.78771e-16
8.99496e-16
9.19809e-16
9.40129e-16
9.60282e-16
9.79765e-16
9.98371e-16
1.01573e-15
1.03292e-15
1.04966e-15
1.06579e-15
1.08031e-15
1.09387e-15
1.10663e-15
1.11759e-15
1.12788e-15
1.13679e-15
1.14479e-15
1.15099e-15
1.15634e-15
1.16045e-15
1.1634e-15
1.1649e-15
1.16493e-15
1.16388e-15
1.16102e-15
1.15673e-15
1.15118e-15
1.14432e-15
1.13707e-15
1.12874e-15
1.11913e-15
1.10772e-15
1.0948e-15
1.08118e-15
1.06615e-15
1.04979e-15
1.03293e-15
1.01549e-15
9.97253e-16
9.78495e-16
9.59274e-16
7.32061e-16
7.50492e-16
7.6884e-16
7.87159e-16
8.05151e-16
8.23145e-16
8.40995e-16
8.58266e-16
8.74807e-16
8.90331e-16
9.05693e-16
9.2065e-16
9.35067e-16
9.48082e-16
9.60241e-16
9.7167e-16
9.8154e-16
9.90782e-16
9.98783e-16
1.00599e-15
1.01159e-15
1.01639e-15
1.02008e-15
1.02272e-15
1.02406e-15
1.02409e-15
1.02312e-15
1.02056e-15
1.01672e-15
1.01174e-15
1.00558e-15
9.99031e-16
9.91505e-16
9.82835e-16
9.72596e-16
9.61036e-16
9.48808e-16
9.35369e-16
9.20745e-16
9.05703e-16
8.9013e-16
8.73864e-16
8.57207e-16
8.4016e-16
8.23288e-16
6.37325e-16
6.53404e-16
6.6943e-16
6.85441e-16
7.01189e-16
7.1693e-16
7.32543e-16
7.47676e-16
7.622e-16
7.75912e-16
7.89468e-16
8.02675e-16
8.15395e-16
8.2692e-16
8.37685e-16
8.47793e-16
8.56566e-16
8.64771e-16
8.71871e-16
8.78263e-16
8.83262e-16
8.87524e-16
8.90787e-16
8.93105e-16
8.94308e-16
8.94329e-16
8.93446e-16
8.91201e-16
8.87792e-16
8.83371e-16
8.77926e-16
8.72077e-16
8.65375e-16
8.57653e-16
8.48576e-16
8.3836e-16
8.27529e-16
8.15662e-16
8.02748e-16
7.8949e-16
7.75737e-16
7.61413e-16
7.46797e-16
7.31872e-16
7.17339e-16
5.52781e-16
5.66644e-16
5.80483e-16
5.94305e-16
6.07922e-16
6.21522e-16
6.35011e-16
6.48099e-16
6.60698e-16
6.72657e-16
6.8447e-16
6.95987e-16
7.07081e-16
7.17158e-16
7.26565e-16
7.35382e-16
7.43078e-16
7.50269e-16
7.56491e-16
7.62086e-16
7.66483e-16
7.70217e-16
7.73066e-16
7.75081e-16
7.76147e-16
7.76156e-16
7.75372e-16
7.73416e-16
7.70434e-16
7.66572e-16
7.61808e-16
7.56664e-16
7.50765e-16
7.43984e-16
7.36044e-16
7.27123e-16
7.1766e-16
7.07306e-16
6.96047e-16
6.84501e-16
6.72504e-16
6.60043e-16
6.4738e-16
6.34485e-16
6.22164e-16
4.7813e-16
4.89942e-16
5.01748e-16
5.13534e-16
5.25157e-16
5.36761e-16
5.48261e-16
5.59437e-16
5.70226e-16
5.80525e-16
5.90688e-16
6.00602e-16
6.10158e-16
6.18849e-16
6.26966e-16
6.34559e-16
6.41219e-16
6.47439e-16
6.52809e-16
6.57652e-16
6.61459e-16
6.64693e-16
6.67146e-16
6.68872e-16
6.69805e-16
6.69804e-16
6.69114e-16
6.67438e-16
6.64864e-16
6.61533e-16
6.57416e-16
6.52954e-16
6.47839e-16
6.41957e-16
6.35111e-16
6.27417e-16
6.19263e-16
6.10341e-16
6.00651e-16
5.90727e-16
5.80387e-16
5.69682e-16
5.58857e-16
5.47865e-16
5.37605e-16
4.12922e-16
4.22867e-16
4.32811e-16
4.42734e-16
4.52526e-16
4.62297e-16
4.71968e-16
4.81381e-16
4.90496e-16
4.99255e-16
5.07886e-16
5.16307e-16
5.24436e-16
5.31827e-16
5.38741e-16
5.45189e-16
5.50869e-16
5.56182e-16
5.60752e-16
5.64887e-16
5.68137e-16
5.70895e-16
5.72978e-16
5.74437e-16
5.75246e-16
5.75228e-16
5.74631e-16
5.73221e-16
5.71025e-16
5.68193e-16
5.64683e-16
5.60866e-16
5.56492e-16
5.51465e-16
5.4564e-16
5.39098e-16
5.32163e-16
5.24583e-16
5.16348e-16
5.07933e-16
4.99132e-16
4.90051e-16
4.80922e-16
4.71681e-16
3.56593e-16
3.64859e-16
3.73128e-16
3.81374e-16
3.89512e-16
3.97626e-16
4.05646e-16
4.13461e-16
4.21055e-16
4.28407e-16
4.3564e-16
4.42695e-16
4.49517e-16
4.55716e-16
4.61524e-16
4.66926e-16
4.71697e-16
4.76176e-16
4.80003e-16
4.83487e-16
4.86223e-16
4.88538e-16
4.90283e-16
4.91494e-16
4.92186e-16
4.92159e-16
4.9165e-16
4.90483e-16
4.88634e-16
4.8626e-16
4.8331e-16
4.80095e-16
4.76409e-16
4.72173e-16
4.67288e-16
4.61803e-16
4.55985e-16
4.49632e-16
4.42728e-16
4.3569e-16
4.28295e-16
4.20696e-16
4.13106e-16
4.05449e-16
3.08476e-16
3.15259e-16
3.22045e-16
3.28805e-16
3.35477e-16
3.42118e-16
3.48668e-16
3.5506e-16
3.61295e-16
3.67386e-16
3.73361e-16
3.79191e-16
3.8484e-16
3.89963e-16
3.94775e-16
3.99229e-16
4.03177e-16
4.06901e-16
4.10056e-16
4.1295e-16
4.15218e-16
4.17135e-16
4.18573e-16
4.19561e-16
4.20145e-16
4.20109e-16
4.19681e-16
4.18732e-16
4.17199e-16
4.15242e-16
4.12798e-16
4.10129e-16
4.07071e-16
4.03551e-16
3.99518e-16
3.94984e-16
3.90175e-16
3.84927e-16
3.79218e-16
3.73415e-16
3.67283e-16
3.6101e-16
3.54794e-16
3.48546e-16
2.67826e-16
2.73319e-16
2.78814e-16
2.8428e-16
2.89674e-16
2.95032e-16
3.00297e-16
3.05448e-16
3.1049e-16
3.15467e-16
3.20334e-16
3.25084e-16
3.29697e-16
3.33869e-16
3.37797e-16
3.41413e-16
3.44629e-16
3.47683e-16
3.50238e-16
3.52607e-16
3.54458e-16
3.5602e-16
3.57186e-16
3.57976e-16
3.58463e-16
3.5842e-16
3.58067e-16
3.57312e-16
3.56059e-16
3.54471e-16
3.52476e-16
3.50296e-16
3.47799e-16
3.44916e-16
3.4164e-16
3.37947e-16
3.34031e-16
3.29759e-16
3.25105e-16
3.20392e-16
3.15374e-16
3.10267e-16
3.05255e-16
3.00236e-16
2.33804e-16
2.38201e-16
2.42594e-16
2.46964e-16
2.51269e-16
2.55539e-16
2.59698e-16
2.6379e-16
2.67812e-16
2.71824e-16
2.75733e-16
2.7955e-16
2.83262e-16
2.86608e-16
2.89771e-16
2.92655e-16
2.95233e-16
2.97709e-16
2.9974e-16
3.0165e-16
3.03136e-16
3.04389e-16
3.05315e-16
3.05933e-16
3.06339e-16
3.06288e-16
3.06001e-16
3.05414e-16
3.04406e-16
3.03138e-16
3.01536e-16
2.9978e-16
2.97776e-16
2.9545e-16
2.92832e-16
2.89873e-16
2.86731e-16
2.83304e-16
2.79564e-16
2.75794e-16
2.71737e-16
2.67639e-16
2.63659e-16
2.59688e-16
2.10395e-16
2.13315e-16
2.16185e-16
2.19004e-16
2.21762e-16
2.24452e-16
2.27064e-16
2.29591e-16
2.32323e-16
2.35527e-16
2.38621e-16
2.41649e-16
2.44599e-16
2.4724e-16
2.49761e-16
2.52015e-16
2.54053e-16
2.5604e-16
2.57624e-16
2.59145e-16
2.60325e-16
2.61309e-16
2.62029e-16
2.62506e-16
2.62841e-16
2.62786e-16
2.62553e-16
2.62108e-16
2.61315e-16
2.60312e-16
2.59041e-16
2.57646e-16
2.56067e-16
2.54224e-16
2.52161e-16
2.49818e-16
2.47334e-16
2.44622e-16
2.41654e-16
2.3868e-16
2.35443e-16
2.32198e-16
2.29591e-16
2.27064e-16
1.8917e-16
1.91833e-16
1.94452e-16
1.97026e-16
1.99546e-16
2.02004e-16
2.04392e-16
2.06704e-16
2.0893e-16
2.11065e-16
2.13102e-16
2.15034e-16
2.16854e-16
2.18558e-16
2.2014e-16
2.21594e-16
2.22916e-16
2.24102e-16
2.25149e-16
2.26052e-16
2.26809e-16
2.27417e-16
2.27875e-16
2.28181e-16
2.28334e-16
2.28335e-16
2.28181e-16
2.27875e-16
2.27417e-16
2.26809e-16
2.26052e-16
2.25149e-16
2.24102e-16
2.22916e-16
2.21594e-16
2.2014e-16
2.18558e-16
2.16854e-16
2.15034e-16
2.13102e-16
2.11065e-16
2.0893e-16
2.06704e-16
2.04392e-16
1.68956e-16
1.71364e-16
1.73735e-16
1.76065e-16
1.78347e-16
1.80574e-16
1.82739e-16
1.84836e-16
1.86856e-16
1.88794e-16
1.90643e-16
1.92397e-16
1.94051e-16
1.956e-16
1.97038e-16
1.9836e-16
1.99563e-16
2.00642e-16
2.01594e-16
2.02416e-16
2.03105e-16
2.03659e-16
2.04077e-16
2.04355e-16
2.04495e-16
2.04495e-16
2.04355e-16
2.04077e-16
2.0366e-16
2.03106e-16
2.02417e-16
2.01595e-16
2.00642e-16
1.99563e-16
1.9836e-16
1.97038e-16
1.956e-16
1.94052e-16
1.92397e-16
1.90643e-16
1.88794e-16
1.86856e-16
1.84835e-16
1.82739e-16
1.49813e-16
1.51971e-16
1.54097e-16
1.56187e-16
1.58236e-16
1.60236e-16
1.62181e-16
1.64064e-16
1.6588e-16
1.67623e-16
1.69286e-16
1.70865e-16
1.72354e-16
1.73748e-16
1.75043e-16
1.76235e-16
1.77318e-16
1.78291e-16
1.79149e-16
1.7989e-16
1.80512e-16
1.81011e-16
1.81387e-16
1.81639e-16
1.81765e-16
1.81765e-16
1.81639e-16
1.81387e-16
1.81011e-16
1.80512e-16
1.7989e-16
1.79149e-16
1.78291e-16
1.77318e-16
1.76235e-16
1.75043e-16
1.73748e-16
1.72354e-16
1.70865e-16
1.69286e-16
1.67623e-16
1.6588e-16
1.64064e-16
1.6218e-16
1.60234e-16
1.31788e-16
1.33705e-16
1.35593e-16
1.37451e-16
1.39272e-16
1.4105e-16
1.4278e-16
1.44456e-16
1.46072e-16
1.47624e-16
1.49105e-16
1.50512e-16
1.51839e-16
1.53081e-16
1.54236e-16
1.55298e-16
1.56265e-16
1.57133e-16
1.57899e-16
1.5856e-16
1.59115e-16
1.59561e-16
1.59896e-16
1.60121e-16
1.60233e-16
1.60233e-16
1.60121e-16
1.59896e-16
1.59561e-16
1.59115e-16
1.5856e-16
1.57899e-16
1.57133e-16
1.56265e-16
1.55299e-16
1.54236e-16
1.53082e-16
1.51839e-16
1.50512e-16
1.49105e-16
1.47624e-16
1.46072e-16
1.44456e-16
1.4278e-16
1.41049e-16
1.14922e-16
1.16606e-16
1.18266e-16
1.199e-16
1.21501e-16
1.23066e-16
1.24589e-16
1.26064e-16
1.27488e-16
1.28854e-16
1.3016e-16
1.31399e-16
1.32569e-16
1.33665e-16
1.34683e-16
1.3562e-16
1.36473e-16
1.37239e-16
1.37915e-16
1.38499e-16
1.38988e-16
1.39382e-16
1.39678e-16
1.39877e-16
1.39976e-16
1.39976e-16
1.39877e-16
1.39679e-16
1.39382e-16
1.38988e-16
1.38499e-16
1.37915e-16
1.37239e-16
1.36473e-16
1.3562e-16
1.34683e-16
1.33665e-16
1.32569e-16
1.31399e-16
1.3016e-16
1.28855e-16
1.27488e-16
1.26064e-16
1.24589e-16
1.23065e-16
9.92407e-17
1.00704e-16
1.02147e-16
1.03567e-16
1.0496e-16
1.06321e-16
1.07646e-16
1.0893e-16
1.10169e-16
1.11359e-16
1.12496e-16
1.13576e-16
1.14595e-16
1.1555e-16
1.16437e-16
1.17254e-16
1.17998e-16
1.18666e-16
1.19255e-16
1.19764e-16
1.20191e-16
1.20535e-16
1.20794e-16
1.20967e-16
1.21053e-16
1.21053e-16
1.20967e-16
1.20794e-16
1.20535e-16
1.20192e-16
1.19765e-16
1.19255e-16
1.18666e-16
1.17998e-16
1.17254e-16
1.16438e-16
1.1555e-16
1.14595e-16
1.13576e-16
1.12496e-16
1.11359e-16
1.10169e-16
1.0893e-16
1.07646e-16
1.06321e-16
1.04959e-16
8.47612e-17
8.6017e-17
8.72556e-17
8.8475e-17
8.96712e-17
9.08404e-17
9.19786e-17
9.3082e-17
9.41469e-17
9.51699e-17
9.61473e-17
9.70758e-17
9.79523e-17
9.87738e-17
9.95374e-17
1.0024e-16
1.0088e-16
1.01455e-16
1.01963e-16
1.02401e-16
1.02769e-16
1.03064e-16
1.03287e-16
1.03436e-16
1.03511e-16
1.03511e-16
1.03436e-16
1.03287e-16
1.03064e-16
1.02769e-16
1.02401e-16
1.01963e-16
1.01455e-16
1.00881e-16
1.00241e-16
9.95375e-17
9.87739e-17
9.79524e-17
9.70759e-17
9.61473e-17
9.51699e-17
9.4147e-17
9.3082e-17
9.19784e-17
9.08399e-17
8.96704e-17
7.14908e-17
7.25536e-17
7.3602e-17
7.46344e-17
7.56474e-17
7.66376e-17
7.76017e-17
7.85365e-17
7.94388e-17
8.03056e-17
8.1134e-17
8.19211e-17
8.26643e-17
8.33608e-17
8.40084e-17
8.46046e-17
8.51475e-17
8.56351e-17
8.60656e-17
8.64375e-17
8.67495e-17
8.70005e-17
8.71895e-17
8.73159e-17
8.73792e-17
8.73792e-17
8.73159e-17
8.71895e-17
8.70005e-17
8.67495e-17
8.64376e-17
8.60656e-17
8.56351e-17
8.51476e-17
8.46047e-17
8.40085e-17
8.33609e-17
8.26644e-17
8.19212e-17
8.11341e-17
8.03057e-17
7.94388e-17
7.85364e-17
7.76015e-17
7.66372e-17
7.56469e-17
7.46336e-17
5.94281e-17
6.03133e-17
6.11869e-17
6.20471e-17
6.28912e-17
6.37165e-17
6.45201e-17
6.52993e-17
6.60516e-17
6.67744e-17
6.74652e-17
6.81217e-17
6.87415e-17
6.93226e-17
6.98628e-17
7.03603e-17
7.08133e-17
7.12201e-17
7.15794e-17
7.18898e-17
7.21503e-17
7.23597e-17
7.25175e-17
7.2623e-17
7.26759e-17
7.26759e-17
7.26231e-17
7.25175e-17
7.23598e-17
7.21503e-17
7.18899e-17
7.15795e-17
7.12202e-17
7.08133e-17
7.03604e-17
6.98629e-17
6.93226e-17
6.87416e-17
6.81217e-17
6.74653e-17
6.67744e-17
6.60516e-17
6.52993e-17
6.452e-17
6.37162e-17
6.28909e-17
6.20466e-17
4.85639e-17
4.92879e-17
5.00024e-17
5.0706e-17
5.13965e-17
5.20716e-17
5.27291e-17
5.33667e-17
5.39822e-17
5.45737e-17
5.51391e-17
5.56764e-17
5.61837e-17
5.66594e-17
5.71017e-17
5.7509e-17
5.78799e-17
5.82131e-17
5.85073e-17
5.87615e-17
5.89748e-17
5.91464e-17
5.92756e-17
5.9362e-17
5.94053e-17
5.94053e-17
5.9362e-17
5.92756e-17
5.91464e-17
5.89748e-17
5.87616e-17
5.85073e-17
5.82131e-17
5.788e-17
5.75091e-17
5.71017e-17
5.66595e-17
5.61838e-17
5.56764e-17
5.51391e-17
5.45738e-17
5.39823e-17
5.33666e-17
5.2729e-17
5.20714e-17
5.13963e-17
5.07057e-17
3.88828e-17
3.94621e-17
4.00338e-17
4.05969e-17
4.11495e-17
4.16898e-17
4.2216e-17
4.27262e-17
4.32189e-17
4.36924e-17
4.41449e-17
4.4575e-17
4.49812e-17
4.5362e-17
4.57161e-17
4.60423e-17
4.63393e-17
4.6606e-17
4.68417e-17
4.70452e-17
4.72161e-17
4.73535e-17
4.7457e-17
4.75262e-17
4.75608e-17
4.75609e-17
4.75262e-17
4.7457e-17
4.73535e-17
4.72161e-17
4.70453e-17
4.68417e-17
4.66061e-17
4.63393e-17
4.60423e-17
4.57162e-17
4.53621e-17
4.49812e-17
4.45751e-17
4.4145e-17
4.36924e-17
4.3219e-17
4.27262e-17
4.22159e-17
4.16896e-17
4.11493e-17
4.05967e-17
3.03642e-17
3.08155e-17
3.1261e-17
3.16998e-17
3.21304e-17
3.25513e-17
3.29613e-17
3.33589e-17
3.37428e-17
3.41117e-17
3.44644e-17
3.47995e-17
3.51161e-17
3.54128e-17
3.56888e-17
3.5943e-17
3.61745e-17
3.63824e-17
3.65661e-17
3.67248e-17
3.68579e-17
3.6965e-17
3.70457e-17
3.70997e-17
3.71267e-17
3.71267e-17
3.70997e-17
3.70457e-17
3.6965e-17
3.68579e-17
3.67248e-17
3.65661e-17
3.63825e-17
3.61745e-17
3.5943e-17
3.56888e-17
3.54129e-17
3.51161e-17
3.47996e-17
3.44644e-17
3.41117e-17
3.37428e-17
3.33589e-17
3.29613e-17
3.25512e-17
3.21302e-17
3.16997e-17
2.29836e-17
2.33237e-17
2.36595e-17
2.39901e-17
2.43146e-17
2.46318e-17
2.49407e-17
2.52403e-17
2.55296e-17
2.58075e-17
2.60732e-17
2.63258e-17
2.65643e-17
2.67879e-17
2.69959e-17
2.71874e-17
2.73618e-17
2.75186e-17
2.7657e-17
2.77766e-17
2.78769e-17
2.79576e-17
2.80184e-17
2.80591e-17
2.80795e-17
2.80795e-17
2.80591e-17
2.80185e-17
2.79576e-17
2.78769e-17
2.77766e-17
2.7657e-17
2.75186e-17
2.73619e-17
2.71874e-17
2.69959e-17
2.67879e-17
2.65643e-17
2.63258e-17
2.60732e-17
2.58075e-17
2.55296e-17
2.52403e-17
2.49407e-17
2.46317e-17
2.43145e-17
2.399e-17
2.36593e-17
1.67154e-17
1.69607e-17
1.72029e-17
1.74413e-17
1.76753e-17
1.79041e-17
1.81269e-17
1.83429e-17
1.85515e-17
1.8752e-17
1.89436e-17
1.91257e-17
1.92978e-17
1.9459e-17
1.9609e-17
1.97472e-17
1.9873e-17
1.99861e-17
2.00859e-17
2.01722e-17
2.02446e-17
2.03028e-17
2.03467e-17
2.0376e-17
2.03907e-17
2.03907e-17
2.0376e-17
2.03467e-17
2.03028e-17
2.02446e-17
2.01722e-17
2.00859e-17
1.99861e-17
1.9873e-17
1.97472e-17
1.96091e-17
1.94591e-17
1.92978e-17
1.91258e-17
1.89436e-17
1.8752e-17
1.85516e-17
1.83429e-17
1.81269e-17
1.79041e-17
1.76753e-17
1.74413e-17
1.72028e-17
1.15378e-17
1.1704e-17
1.18681e-17
1.20297e-17
1.21883e-17
1.23433e-17
1.24944e-17
1.26409e-17
1.27823e-17
1.29183e-17
1.30482e-17
1.31718e-17
1.32885e-17
1.33979e-17
1.34997e-17
1.35935e-17
1.36789e-17
1.37557e-17
1.38234e-17
1.3882e-17
1.39312e-17
1.39707e-17
1.40005e-17
1.40204e-17
1.40304e-17
1.40304e-17
1.40204e-17
1.40005e-17
1.39707e-17
1.39312e-17
1.3882e-17
1.38235e-17
1.37557e-17
1.36789e-17
1.35935e-17
1.34998e-17
1.3398e-17
1.32885e-17
1.31718e-17
1.30483e-17
1.29183e-17
1.27823e-17
1.26409e-17
1.24944e-17
1.23433e-17
1.21882e-17
1.20296e-17
1.1868e-17
7.44546e-18
7.54738e-18
7.64799e-18
7.74709e-18
7.84437e-18
7.93952e-18
8.03221e-18
8.12216e-18
8.20906e-18
8.29262e-18
8.37255e-18
8.44858e-18
8.52043e-18
8.58784e-18
8.65056e-18
8.70838e-18
8.76105e-18
8.8084e-18
8.85024e-18
8.8864e-18
8.91676e-18
8.94118e-18
8.95959e-18
8.9719e-18
8.97806e-18
8.97806e-18
8.9719e-18
8.95959e-18
8.94119e-18
8.91676e-18
8.88641e-18
8.85025e-18
8.80841e-18
8.76106e-18
8.70838e-18
8.65057e-18
8.58785e-18
8.52043e-18
8.44859e-18
8.37256e-18
8.29263e-18
8.20906e-18
8.12216e-18
8.0322e-18
7.93949e-18
7.84435e-18
7.74707e-18
7.64797e-18
4.36803e-18
4.42495e-18
4.48109e-18
4.53635e-18
4.59054e-18
4.64348e-18
4.69501e-18
4.74494e-18
4.79312e-18
4.83939e-18
4.88359e-18
4.92556e-18
4.96518e-18
5.0023e-18
5.0368e-18
5.06856e-18
5.09747e-18
5.12342e-18
5.14634e-18
5.16613e-18
5.18273e-18
5.19608e-18
5.20613e-18
5.21286e-18
5.21622e-18
5.21622e-18
5.21286e-18
5.20614e-18
5.19608e-18
5.18273e-18
5.16613e-18
5.14634e-18
5.12343e-18
5.09747e-18
5.06857e-18
5.03681e-18
5.00231e-18
4.96519e-18
4.92557e-18
4.88359e-18
4.83939e-18
4.79312e-18
4.74494e-18
4.695e-18
4.64347e-18
4.59053e-18
4.53634e-18
4.48108e-18
2.18604e-18
2.21252e-18
2.23862e-18
2.26428e-18
2.28942e-18
2.31397e-18
2.33784e-18
2.36095e-18
2.38323e-18
2.40461e-18
2.42502e-18
2.44439e-18
2.46266e-18
2.47976e-18
2.49565e-18
2.51026e-18
2.52355e-18
2.53548e-18
2.54601e-18
2.5551e-18
2.56272e-18
2.56885e-18
2.57346e-18
2.57655e-18
2.57809e-18
2.57809e-18
2.57655e-18
2.57347e-18
2.56885e-18
2.56272e-18
2.5551e-18
2.54601e-18
2.53549e-18
2.52356e-18
2.51026e-18
2.49565e-18
2.47976e-18
2.46266e-18
2.44439e-18
2.42502e-18
2.40462e-18
2.38324e-18
2.36095e-18
2.33784e-18
2.31396e-18
2.28942e-18
2.26427e-18
2.23861e-18
8.26442e-19
8.35086e-19
8.43595e-19
8.5195e-19
8.60124e-19
8.68093e-19
8.75831e-19
8.83315e-19
8.90521e-19
8.97427e-19
9.04012e-19
9.10255e-19
9.16136e-19
9.21639e-19
9.26744e-19
9.31438e-19
9.35704e-19
9.39531e-19
9.42906e-19
9.45818e-19
9.48259e-19
9.5022e-19
9.51697e-19
9.52684e-19
9.53179e-19
9.53179e-19
9.52684e-19
9.51697e-19
9.50221e-19
9.48259e-19
9.45818e-19
9.42906e-19
9.39532e-19
9.35705e-19
9.31438e-19
9.26745e-19
9.21639e-19
9.16137e-19
9.10255e-19
9.04013e-19
8.97428e-19
8.90521e-19
8.83315e-19
8.7583e-19
8.6809e-19
8.60122e-19
8.51948e-19
8.43593e-19
1.80014e-19
1.81283e-19
1.82528e-19
1.83746e-19
1.84935e-19
1.8609e-19
1.87209e-19
1.88288e-19
1.89324e-19
1.90315e-19
1.91258e-19
1.92149e-19
1.92987e-19
1.9377e-19
1.94495e-19
1.9516e-19
1.95764e-19
1.96304e-19
1.96781e-19
1.97191e-19
1.97535e-19
1.97811e-19
1.98019e-19
1.98158e-19
1.98228e-19
1.98228e-19
1.98158e-19
1.98019e-19
1.97812e-19
1.97535e-19
1.97191e-19
1.96781e-19
1.96305e-19
1.95764e-19
1.9516e-19
1.94495e-19
1.9377e-19
1.92987e-19
1.92149e-19
1.91258e-19
1.90315e-19
1.89324e-19
1.88288e-19
1.87209e-19
1.8609e-19
1.84935e-19
1.83746e-19
1.82527e-19
3.05523e-15
2.95231e-15
2.84596e-15
2.73677e-15
2.6252e-15
2.51167e-15
2.3967e-15
2.28083e-15
2.16457e-15
2.04836e-15
1.93274e-15
1.81817e-15
1.70508e-15
1.59391e-15
1.48508e-15
1.3573e-15
1.21348e-15
1.07849e-15
9.53042e-16
8.37605e-16
7.32452e-16
6.3764e-16
5.53034e-16
4.78331e-16
4.1308e-16
3.56712e-16
3.08562e-16
2.67885e-16
2.33843e-16
2.10395e-16
1.8917e-16
1.68956e-16
1.49813e-16
1.31788e-16
1.14922e-16
9.92407e-17
8.47612e-17
7.14908e-17
5.94281e-17
4.85639e-17
3.88828e-17
3.03642e-17
2.29836e-17
1.67154e-17
1.15378e-17
7.44546e-18
4.36803e-18
2.18604e-18
8.26442e-19
1.80014e-19
3.08549e-15
2.98295e-15
2.87695e-15
2.76789e-15
2.65632e-15
2.54262e-15
2.42739e-15
2.31114e-15
2.19436e-15
2.0775e-15
1.96106e-15
1.84558e-15
1.73148e-15
1.6192e-15
1.50923e-15
1.38935e-15
1.24299e-15
1.10538e-15
9.77276e-16
8.59213e-16
7.51509e-16
6.54252e-16
5.67349e-16
4.90517e-16
4.23327e-16
3.65222e-16
3.15541e-16
2.73533e-16
2.38362e-16
2.13315e-16
1.91833e-16
1.71364e-16
1.51971e-16
1.33705e-16
1.16606e-16
1.00704e-16
8.6017e-17
7.25536e-17
6.03133e-17
4.92879e-17
3.94621e-17
3.08155e-17
2.33237e-17
1.69607e-17
1.1704e-17
7.54737e-18
4.42494e-18
2.21252e-18
8.35086e-19
1.81283e-19
3.1147e-15
3.0128e-15
2.90719e-15
2.79833e-15
2.68682e-15
2.57304e-15
2.4576e-15
2.34093e-15
2.22361e-15
2.1061e-15
1.9889e-15
1.87252e-15
1.75746e-15
1.64417e-15
1.53307e-15
1.42119e-15
1.27233e-15
1.13211e-15
1.00136e-15
8.80693e-16
7.70437e-16
6.70746e-16
5.81545e-16
5.02584e-16
4.33455e-16
3.7361e-16
3.22392e-16
2.79049e-16
2.42741e-16
2.16185e-16
1.94452e-16
1.73735e-16
1.54097e-16
1.35593e-16
1.18266e-16
1.02147e-16
8.72555e-17
7.3602e-17
6.11868e-17
5.00023e-17
4.00338e-17
3.1261e-17
2.36595e-17
1.72029e-17
1.18681e-17
7.64799e-18
4.48109e-18
2.23862e-18
8.43595e-19
1.82528e-19
3.13984e-15
3.03879e-15
2.93386e-15
2.82552e-15
2.71427e-15
2.60061e-15
2.48506e-15
2.36814e-15
2.25044e-15
2.13242e-15
2.01458e-15
1.89749e-15
1.78158e-15
1.66736e-15
1.55525e-15
1.44571e-15
1.30035e-15
1.15776e-15
1.02457e-15
9.01452e-16
7.88802e-16
6.86795e-16
5.95408e-16
5.14411e-16
4.43417e-16
3.81892e-16
3.29185e-16
2.84548e-16
2.47142e-16
2.19004e-16
1.97026e-16
1.76065e-16
1.56187e-16
1.37451e-16
1.199e-16
1.03567e-16
8.84749e-17
7.46344e-17
6.20471e-17
5.0706e-17
4.05969e-17
3.16998e-17
2.39901e-17
1.74413e-17
1.20297e-17
7.74709e-18
4.53635e-18
2.26428e-18
8.51949e-19
1.83746e-19
3.16353e-15
3.06321e-15
2.95882e-15
2.85094e-15
2.73998e-15
2.62646e-15
2.51091e-15
2.39386e-15
2.27583e-15
2.15741e-15