/*--------------------------------*- C++ -*----------------------------------*\
  =========                 |
  \\      /  F ield         | OpenFOAM: The Open Source CFD Toolbox
   \\    /   O peration     | Website:  https://openfoam.org
    \\  /    A nd           | Version:  7
     \\/     M anipulation  |
\*---------------------------------------------------------------------------*/
FoamFile
{
    version     2.0;
    format      ascii;
    class       volScalarField;
    location    "44000";
    object      p;
}
// * * * * * * * * * * * * * * * * * * * * * * * * * * * * * * * * * * * * * //

dimensions      [0 2 -2 0 0 0 0];

internalField   nonuniform List<scalar> 
4814
(
-2.753e-17
-2.75234e-17
-2.7519e-17
-2.75107e-17
-2.75821e-17
-2.75776e-17
-2.75753e-17
-2.75691e-17
-2.7567e-17
-2.75616e-17
-2.75605e-17
-2.75551e-17
-2.75539e-17
-2.75485e-17
-2.75484e-17
-2.75419e-17
-2.75398e-17
-2.75322e-17
-2.75304e-17
-2.7523e-17
-2.75194e-17
-2.75103e-17
-2.75082e-17
-2.75029e-17
-2.75008e-17
-2.7494e-17
-2.74924e-17
-2.74872e-17
-2.74851e-17
-2.74808e-17
-2.74788e-17
-2.74742e-17
-2.74718e-17
-2.74684e-17
-2.74665e-17
-2.74655e-17
-2.74661e-17
-2.74652e-17
-2.7583e-17
-2.75771e-17
-2.75754e-17
-2.75685e-17
-2.75672e-17
-2.75628e-17
-2.75597e-17
-2.75546e-17
-2.75541e-17
-2.75483e-17
-2.75484e-17
-2.75411e-17
-2.75405e-17
-2.75326e-17
-2.75305e-17
-2.75229e-17
-2.75194e-17
-2.75105e-17
-2.7508e-17
-2.75028e-17
-2.75009e-17
-2.74941e-17
-2.74923e-17
-2.74871e-17
-2.74846e-17
-2.74808e-17
-2.74789e-17
-2.74742e-17
-2.74713e-17
-2.74684e-17
-2.7467e-17
-2.74655e-17
-2.7466e-17
-2.74654e-17
-2.74655e-17
-2.74644e-17
-2.74679e-17
-2.74665e-17
-2.74702e-17
-2.74725e-17
-2.74762e-17
-2.75828e-17
-2.75775e-17
-2.75749e-17
-2.75683e-17
-2.75671e-17
-2.75625e-17
-2.75596e-17
-2.75547e-17
-2.75534e-17
-2.75484e-17
-2.7548e-17
-2.75411e-17
-2.7541e-17
-2.75325e-17
-2.75298e-17
-2.75227e-17
-2.75191e-17
-2.75101e-17
-2.7508e-17
-2.75025e-17
-2.75009e-17
-2.74943e-17
-2.74923e-17
-2.74873e-17
-2.74847e-17
-2.74806e-17
-2.74785e-17
-2.74742e-17
-2.74714e-17
-2.74684e-17
-2.74673e-17
-2.74658e-17
-2.74662e-17
-2.74655e-17
-2.74658e-17
-2.74648e-17
-2.74687e-17
-2.74659e-17
-2.74707e-17
-2.74726e-17
-2.74762e-17
-2.74789e-17
-2.74837e-17
-2.74845e-17
-2.75817e-17
-2.7578e-17
-2.75746e-17
-2.7569e-17
-2.75673e-17
-2.75618e-17
-2.75604e-17
-2.75553e-17
-2.75531e-17
-2.75493e-17
-2.75478e-17
-2.75417e-17
-2.75401e-17
-2.75323e-17
-2.75297e-17
-2.75225e-17
-2.75189e-17
-2.751e-17
-2.75077e-17
-2.7503e-17
-2.75009e-17
-2.74941e-17
-2.74921e-17
-2.74871e-17
-2.74848e-17
-2.74803e-17
-2.74783e-17
-2.74743e-17
-2.74715e-17
-2.74686e-17
-2.74673e-17
-2.74663e-17
-2.74665e-17
-2.74656e-17
-2.74661e-17
-2.74651e-17
-2.74685e-17
-2.74672e-17
-2.74703e-17
-2.74726e-17
-2.74762e-17
-2.74795e-17
-2.7483e-17
-2.74838e-17
-2.75822e-17
-2.75775e-17
-2.7575e-17
-2.75689e-17
-2.75676e-17
-2.75608e-17
-2.756e-17
-2.75545e-17
-2.75536e-17
-2.75489e-17
-2.75479e-17
-2.75421e-17
-2.75397e-17
-2.75326e-17
-2.75305e-17
-2.75228e-17
-2.75184e-17
-2.75104e-17
-2.75078e-17
-2.75032e-17
-2.75008e-17
-2.74945e-17
-2.74921e-17
-2.7487e-17
-2.74847e-17
-2.74804e-17
-2.74781e-17
-2.74742e-17
-2.74713e-17
-2.74688e-17
-2.74673e-17
-2.74662e-17
-2.74665e-17
-2.7466e-17
-2.74658e-17
-2.74647e-17
-2.74678e-17
-2.74675e-17
-2.74705e-17
-2.74727e-17
-2.74766e-17
-2.74792e-17
-2.74833e-17
-2.74841e-17
-2.75822e-17
-2.7577e-17
-2.75746e-17
-2.75691e-17
-2.75671e-17
-2.75618e-17
-2.75599e-17
-2.75542e-17
-2.75545e-17
-2.75487e-17
-2.7548e-17
-2.75417e-17
-2.754e-17
-2.75328e-17
-2.75301e-17
-2.75226e-17
-2.75188e-17
-2.75101e-17
-2.75081e-17
-2.75029e-17
-2.75007e-17
-2.74943e-17
-2.74925e-17
-2.74871e-17
-2.74846e-17
-2.74806e-17
-2.74782e-17
-2.7474e-17
-2.74714e-17
-2.74691e-17
-2.74672e-17
-2.74663e-17
-2.74667e-17
-2.74659e-17
-2.74661e-17
-2.74653e-17
-2.74673e-17
-2.7467e-17
-2.74705e-17
-2.74725e-17
-2.74766e-17
-2.74781e-17
-2.74836e-17
-2.7484e-17
-2.7582e-17
-2.75778e-17
-2.75751e-17
-2.75692e-17
-2.75667e-17
-2.75618e-17
-2.75598e-17
-2.75546e-17
-2.75537e-17
-2.75486e-17
-2.75481e-17
-2.75417e-17
-2.75408e-17
-2.75322e-17
-2.75296e-17
-2.75226e-17
-2.75183e-17
-2.75099e-17
-2.75081e-17
-2.75029e-17
-2.75008e-17
-2.74943e-17
-2.74923e-17
-2.74872e-17
-2.74844e-17
-2.74807e-17
-2.74781e-17
-2.74738e-17
-2.74714e-17
-2.74689e-17
-2.74675e-17
-2.74666e-17
-2.74668e-17
-2.74662e-17
-2.74661e-17
-2.74657e-17
-2.74681e-17
-2.74673e-17
-2.74705e-17
-2.74722e-17
-2.74762e-17
-2.74785e-17
-2.74834e-17
-2.74839e-17
-2.74883e-17
-2.75818e-17
-2.75779e-17
-2.75753e-17
-2.75687e-17
-2.75671e-17
-2.75613e-17
-2.75598e-17
-2.7555e-17
-2.75533e-17
-2.75487e-17
-2.75484e-17
-2.75413e-17
-2.75401e-17
-2.75322e-17
-2.753e-17
-2.75225e-17
-2.75189e-17
-2.75103e-17
-2.7508e-17
-2.75029e-17
-2.75008e-17
-2.74942e-17
-2.74924e-17
-2.74874e-17
-2.74845e-17
-2.7481e-17
-2.7478e-17
-2.74741e-17
-2.74714e-17
-2.74689e-17
-2.74676e-17
-2.74667e-17
-2.7467e-17
-2.74658e-17
-2.7466e-17
-2.74651e-17
-2.7468e-17
-2.74673e-17
-2.74712e-17
-2.74719e-17
-2.74761e-17
-2.74791e-17
-2.74831e-17
-2.74836e-17
-2.74889e-17
-2.75816e-17
-2.7578e-17
-2.7575e-17
-2.7569e-17
-2.75671e-17
-2.75609e-17
-2.75595e-17
-2.75545e-17
-2.75535e-17
-2.75487e-17
-2.7548e-17
-2.75418e-17
-2.75395e-17
-2.75331e-17
-2.753e-17
-2.75226e-17
-2.7519e-17
-2.75106e-17
-2.75087e-17
-2.75031e-17
-2.75006e-17
-2.74943e-17
-2.74921e-17
-2.74875e-17
-2.74845e-17
-2.74808e-17
-2.7478e-17
-2.74743e-17
-2.74713e-17
-2.74689e-17
-2.74677e-17
-2.74664e-17
-2.74667e-17
-2.7466e-17
-2.74656e-17
-2.74649e-17
-2.74673e-17
-2.74674e-17
-2.74707e-17
-2.74726e-17
-2.74763e-17
-2.7479e-17
-2.74833e-17
-2.74841e-17
-2.7489e-17
-2.75818e-17
-2.75775e-17
-2.75747e-17
-2.75694e-17
-2.75667e-17
-2.75612e-17
-2.75596e-17
-2.75543e-17
-2.75538e-17
-2.75488e-17
-2.75476e-17
-2.75416e-17
-2.75396e-17
-2.7533e-17
-2.753e-17
-2.75228e-17
-2.75193e-17
-2.75104e-17
-2.75085e-17
-2.75027e-17
-2.75005e-17
-2.74945e-17
-2.74924e-17
-2.74875e-17
-2.74845e-17
-2.74806e-17
-2.74778e-17
-2.74742e-17
-2.7471e-17
-2.7469e-17
-2.7468e-17
-2.74667e-17
-2.7467e-17
-2.74659e-17
-2.74659e-17
-2.74651e-17
-2.74675e-17
-2.74673e-17
-2.74703e-17
-2.74729e-17
-2.74763e-17
-2.74787e-17
-2.74835e-17
-2.7484e-17
-2.74887e-17
-2.75814e-17
-2.75775e-17
-2.75749e-17
-2.75694e-17
-2.75669e-17
-2.75616e-17
-2.756e-17
-2.75546e-17
-2.75536e-17
-2.75486e-17
-2.75473e-17
-2.75417e-17
-2.75392e-17
-2.75328e-17
-2.75292e-17
-2.75227e-17
-2.75192e-17
-2.75107e-17
-2.75085e-17
-2.75024e-17
-2.75005e-17
-2.74946e-17
-2.74922e-17
-2.74873e-17
-2.74845e-17
-2.74805e-17
-2.74781e-17
-2.74742e-17
-2.74711e-17
-2.74692e-17
-2.74681e-17
-2.74667e-17
-2.74667e-17
-2.74662e-17
-2.74664e-17
-2.74659e-17
-2.74677e-17
-2.74673e-17
-2.74705e-17
-2.74727e-17
-2.74765e-17
-2.74788e-17
-2.74832e-17
-2.74833e-17
-2.75826e-17
-2.75781e-17
-2.75744e-17
-2.75694e-17
-2.75668e-17
-2.75612e-17
-2.75599e-17
-2.75549e-17
-2.75531e-17
-2.75491e-17
-2.75476e-17
-2.75414e-17
-2.75394e-17
-2.75323e-17
-2.75293e-17
-2.75228e-17
-2.75188e-17
-2.75105e-17
-2.75086e-17
-2.75025e-17
-2.75007e-17
-2.74945e-17
-2.7492e-17
-2.74874e-17
-2.74846e-17
-2.74806e-17
-2.7478e-17
-2.74742e-17
-2.74714e-17
-2.74693e-17
-2.74682e-17
-2.74666e-17
-2.74671e-17
-2.74664e-17
-2.74665e-17
-2.74663e-17
-2.74685e-17
-2.74675e-17
-2.74713e-17
-2.74725e-17
-2.74759e-17
-2.74791e-17
-2.74827e-17
-2.7484e-17
-2.75827e-17
-2.75784e-17
-2.75743e-17
-2.75684e-17
-2.75672e-17
-2.75612e-17
-2.75602e-17
-2.75549e-17
-2.75535e-17
-2.75489e-17
-2.75479e-17
-2.75414e-17
-2.754e-17
-2.75329e-17
-2.75298e-17
-2.75229e-17
-2.75184e-17
-2.75106e-17
-2.75086e-17
-2.75026e-17
-2.75007e-17
-2.74945e-17
-2.74921e-17
-2.74875e-17
-2.74845e-17
-2.74807e-17
-2.74779e-17
-2.74743e-17
-2.74713e-17
-2.74692e-17
-2.74682e-17
-2.74667e-17
-2.74673e-17
-2.74664e-17
-2.74663e-17
-2.74659e-17
-2.7468e-17
-2.74671e-17
-2.74712e-17
-2.74723e-17
-2.7476e-17
-2.74787e-17
-2.7483e-17
-2.74835e-17
-2.75823e-17
-2.75778e-17
-2.75742e-17
-2.75689e-17
-2.7567e-17
-2.75616e-17
-2.756e-17
-2.75544e-17
-2.75537e-17
-2.75485e-17
-2.75477e-17
-2.75414e-17
-2.75398e-17
-2.75327e-17
-2.753e-17
-2.75231e-17
-2.75185e-17
-2.75111e-17
-2.75083e-17
-2.75028e-17
-2.75005e-17
-2.74946e-17
-2.74919e-17
-2.74873e-17
-2.74844e-17
-2.74807e-17
-2.74778e-17
-2.74742e-17
-2.74714e-17
-2.74691e-17
-2.74679e-17
-2.74667e-17
-2.74669e-17
-2.74663e-17
-2.74661e-17
-2.74659e-17
-2.74679e-17
-2.74672e-17
-2.74712e-17
-2.74721e-17
-2.74765e-17
-2.74787e-17
-2.74829e-17
-2.74835e-17
-2.75824e-17
-2.75772e-17
-2.75744e-17
-2.75689e-17
-2.75672e-17
-2.75614e-17
-2.75596e-17
-2.75551e-17
-2.75536e-17
-2.75482e-17
-2.75476e-17
-2.75416e-17
-2.75392e-17
-2.75321e-17
-2.75303e-17
-2.75226e-17
-2.75187e-17
-2.75117e-17
-2.75084e-17
-2.75026e-17
-2.75002e-17
-2.74946e-17
-2.74922e-17
-2.74873e-17
-2.74842e-17
-2.74804e-17
-2.74778e-17
-2.74742e-17
-2.74714e-17
-2.7469e-17
-2.74679e-17
-2.74667e-17
-2.74666e-17
-2.74662e-17
-2.74666e-17
-2.74657e-17
-2.74685e-17
-2.74676e-17
-2.74706e-17
-2.7472e-17
-2.74767e-17
-2.74787e-17
-2.74827e-17
-2.74838e-17
-2.75823e-17
-2.7578e-17
-2.75741e-17
-2.75696e-17
-2.75673e-17
-2.75621e-17
-2.75596e-17
-2.75555e-17
-2.7554e-17
-2.75484e-17
-2.75477e-17
-2.75416e-17
-2.75396e-17
-2.75319e-17
-2.753e-17
-2.75226e-17
-2.75186e-17
-2.75114e-17
-2.75085e-17
-2.75027e-17
-2.75002e-17
-2.74947e-17
-2.74921e-17
-2.74874e-17
-2.7484e-17
-2.74803e-17
-2.74777e-17
-2.74744e-17
-2.74713e-17
-2.74694e-17
-2.7468e-17
-2.74668e-17
-2.74673e-17
-2.74665e-17
-2.74661e-17
-2.74654e-17
-2.74686e-17
-2.7467e-17
-2.74705e-17
-2.74721e-17
-2.74767e-17
-2.74783e-17
-2.74825e-17
-2.7484e-17
-2.75822e-17
-2.7578e-17
-2.75741e-17
-2.75697e-17
-2.7567e-17
-2.7562e-17
-2.75603e-17
-2.75552e-17
-2.75541e-17
-2.7548e-17
-2.75476e-17
-2.75416e-17
-2.75391e-17
-2.75327e-17
-2.75301e-17
-2.75224e-17
-2.75188e-17
-2.7511e-17
-2.75085e-17
-2.75027e-17
-2.75006e-17
-2.74947e-17
-2.74919e-17
-2.74872e-17
-2.74842e-17
-2.74803e-17
-2.74776e-17
-2.74745e-17
-2.74715e-17
-2.74694e-17
-2.74681e-17
-2.74669e-17
-2.74672e-17
-2.74663e-17
-2.74667e-17
-2.74651e-17
-2.74678e-17
-2.74675e-17
-2.74706e-17
-2.74731e-17
-2.7477e-17
-2.7478e-17
-2.74827e-17
-2.74831e-17
-2.75823e-17
-2.75779e-17
-2.75741e-17
-2.75694e-17
-2.75673e-17
-2.75618e-17
-2.75602e-17
-2.75549e-17
-2.75534e-17
-2.75483e-17
-2.75474e-17
-2.75413e-17
-2.75392e-17
-2.75328e-17
-2.75302e-17
-2.75226e-17
-2.75188e-17
-2.75115e-17
-2.75084e-17
-2.75028e-17
-2.75005e-17
-2.74946e-17
-2.74922e-17
-2.7487e-17
-2.74843e-17
-2.74803e-17
-2.74778e-17
-2.74743e-17
-2.74715e-17
-2.74694e-17
-2.74682e-17
-2.74671e-17
-2.74668e-17
-2.74663e-17
-2.74665e-17
-2.74657e-17
-2.74677e-17
-2.74676e-17
-2.74711e-17
-2.74729e-17
-2.74766e-17
-2.74785e-17
-2.74829e-17
-2.74832e-17
-2.75825e-17
-2.75777e-17
-2.75746e-17
-2.75688e-17
-2.75668e-17
-2.7562e-17
-2.75603e-17
-2.75551e-17
-2.75533e-17
-2.75489e-17
-2.75473e-17
-2.75411e-17
-2.75396e-17
-2.75323e-17
-2.753e-17
-2.75227e-17
-2.75188e-17
-2.75117e-17
-2.75085e-17
-2.75025e-17
-2.75005e-17
-2.74945e-17
-2.74923e-17
-2.7487e-17
-2.74843e-17
-2.74802e-17
-2.74777e-17
-2.74742e-17
-2.74716e-17
-2.74693e-17
-2.74683e-17
-2.74671e-17
-2.74671e-17
-2.74661e-17
-2.74663e-17
-2.74657e-17
-2.74682e-17
-2.74675e-17
-2.74711e-17
-2.74729e-17
-2.74763e-17
-2.74784e-17
-2.74828e-17
-2.74836e-17
-2.75823e-17
-2.75777e-17
-2.75745e-17
-2.7569e-17
-2.7566e-17
-2.75616e-17
-2.75601e-17
-2.75551e-17
-2.75537e-17
-2.7549e-17
-2.75477e-17
-2.75415e-17
-2.75389e-17
-2.75319e-17
-2.75297e-17
-2.75227e-17
-2.75188e-17
-2.75117e-17
-2.75085e-17
-2.75025e-17
-2.75005e-17
-2.74945e-17
-2.74923e-17
-2.74872e-17
-2.74842e-17
-2.74802e-17
-2.74776e-17
-2.74743e-17
-2.74717e-17
-2.74694e-17
-2.74681e-17
-2.7467e-17
-2.7467e-17
-2.7466e-17
-2.74662e-17
-2.74659e-17
-2.74685e-17
-2.74678e-17
-2.74707e-17
-2.74725e-17
-2.74759e-17
-2.74785e-17
-2.74827e-17
-2.74834e-17
-2.75821e-17
-2.75777e-17
-2.75739e-17
-2.75697e-17
-2.75666e-17
-2.75616e-17
-2.75598e-17
-2.75553e-17
-2.75537e-17
-2.75486e-17
-2.75478e-17
-2.75413e-17
-2.7539e-17
-2.75324e-17
-2.75294e-17
-2.75224e-17
-2.75188e-17
-2.75111e-17
-2.75087e-17
-2.75026e-17
-2.75003e-17
-2.74946e-17
-2.74922e-17
-2.74872e-17
-2.74842e-17
-2.74802e-17
-2.74777e-17
-2.74742e-17
-2.74715e-17
-2.74697e-17
-2.74681e-17
-2.74669e-17
-2.7467e-17
-2.7466e-17
-2.74661e-17
-2.74662e-17
-2.74682e-17
-2.74679e-17
-2.74709e-17
-2.74724e-17
-2.74763e-17
-2.74785e-17
-2.74825e-17
-2.74838e-17
-2.74888e-17
-2.7582e-17
-2.75778e-17
-2.75741e-17
-2.75691e-17
-2.75669e-17
-2.75615e-17
-2.75599e-17
-2.75554e-17
-2.75535e-17
-2.75484e-17
-2.75476e-17
-2.75409e-17
-2.75387e-17
-2.75326e-17
-2.75296e-17
-2.75228e-17
-2.75186e-17
-2.75111e-17
-2.75086e-17
-2.75028e-17
-2.75007e-17
-2.74947e-17
-2.74922e-17
-2.74872e-17
-2.74844e-17
-2.74802e-17
-2.74777e-17
-2.74742e-17
-2.74714e-17
-2.74694e-17
-2.74679e-17
-2.74672e-17
-2.74673e-17
-2.74663e-17
-2.74658e-17
-2.74662e-17
-2.74681e-17
-2.74678e-17
-2.74711e-17
-2.74725e-17
-2.74764e-17
-2.74785e-17
-2.74824e-17
-2.74837e-17
-2.74887e-17
-2.75818e-17
-2.7578e-17
-2.75745e-17
-2.75693e-17
-2.75668e-17
-2.7561e-17
-2.75601e-17
-2.75552e-17
-2.75536e-17
-2.75486e-17
-2.75474e-17
-2.75411e-17
-2.75392e-17
-2.75322e-17
-2.75297e-17
-2.75226e-17
-2.75185e-17
-2.75112e-17
-2.75084e-17
-2.75028e-17
-2.75006e-17
-2.74946e-17
-2.74923e-17
-2.74872e-17
-2.74842e-17
-2.74802e-17
-2.74777e-17
-2.74745e-17
-2.74716e-17
-2.74694e-17
-2.7468e-17
-2.74672e-17
-2.74674e-17
-2.74666e-17
-2.74662e-17
-2.7466e-17
-2.74683e-17
-2.74677e-17
-2.74709e-17
-2.74728e-17
-2.74765e-17
-2.74783e-17
-2.74827e-17
-2.74833e-17
-2.74893e-17
-2.75821e-17
-2.7578e-17
-2.75744e-17
-2.75691e-17
-2.7567e-17
-2.75612e-17
-2.75602e-17
-2.75551e-17
-2.75535e-17
-2.75484e-17
-2.7547e-17
-2.75411e-17
-2.75392e-17
-2.7532e-17
-2.75297e-17
-2.75225e-17
-2.75187e-17
-2.75113e-17
-2.75086e-17
-2.75026e-17
-2.75008e-17
-2.74945e-17
-2.74923e-17
-2.74871e-17
-2.74841e-17
-2.74802e-17
-2.74777e-17
-2.74744e-17
-2.74717e-17
-2.74693e-17
-2.74683e-17
-2.74671e-17
-2.74671e-17
-2.74664e-17
-2.74661e-17
-2.7466e-17
-2.74683e-17
-2.74678e-17
-2.74709e-17
-2.7473e-17
-2.74766e-17
-2.74785e-17
-2.74828e-17
-2.74831e-17
-2.74893e-17
-2.75824e-17
-2.75776e-17
-2.75742e-17
-2.75692e-17
-2.75667e-17
-2.75614e-17
-2.75598e-17
-2.75553e-17
-2.75535e-17
-2.75483e-17
-2.75474e-17
-2.75411e-17
-2.7539e-17
-2.7532e-17
-2.75295e-17
-2.75221e-17
-2.75188e-17
-2.75111e-17
-2.75085e-17
-2.75027e-17
-2.75008e-17
-2.74947e-17
-2.74922e-17
-2.7487e-17
-2.7484e-17
-2.74802e-17
-2.74777e-17
-2.74742e-17
-2.74717e-17
-2.74694e-17
-2.74682e-17
-2.74672e-17
-2.74673e-17
-2.74662e-17
-2.74663e-17
-2.7466e-17
-2.74683e-17
-2.7468e-17
-2.74707e-17
-2.74726e-17
-2.74768e-17
-2.74787e-17
-2.74829e-17
-2.74836e-17
-2.75823e-17
-2.75777e-17
-2.75744e-17
-2.7569e-17
-2.75666e-17
-2.75617e-17
-2.75598e-17
-2.75554e-17
-2.75536e-17
-2.75487e-17
-2.75476e-17
-2.75411e-17
-2.75392e-17
-2.75321e-17
-2.75293e-17
-2.75219e-17
-2.75186e-17
-2.7511e-17
-2.75086e-17
-2.75024e-17
-2.75004e-17
-2.74948e-17
-2.7492e-17
-2.7487e-17
-2.74841e-17
-2.74801e-17
-2.74777e-17
-2.74741e-17
-2.74717e-17
-2.74695e-17
-2.74683e-17
-2.7467e-17
-2.74673e-17
-2.74663e-17
-2.74668e-17
-2.74661e-17
-2.74683e-17
-2.74681e-17
-2.74707e-17
-2.74723e-17
-2.74768e-17
-2.74786e-17
-2.74826e-17
-2.74837e-17
-2.75824e-17
-2.75774e-17
-2.75743e-17
-2.75687e-17
-2.75665e-17
-2.75618e-17
-2.75602e-17
-2.75551e-17
-2.75534e-17
-2.75481e-17
-2.7547e-17
-2.75415e-17
-2.75394e-17
-2.75324e-17
-2.75295e-17
-2.75221e-17
-2.75185e-17
-2.75112e-17
-2.75086e-17
-2.75022e-17
-2.75004e-17
-2.74947e-17
-2.74921e-17
-2.7487e-17
-2.7484e-17
-2.74801e-17
-2.74776e-17
-2.74742e-17
-2.74718e-17
-2.74695e-17
-2.74685e-17
-2.7467e-17
-2.74672e-17
-2.74664e-17
-2.74666e-17
-2.74661e-17
-2.7468e-17
-2.74677e-17
-2.74706e-17
-2.74726e-17
-2.74765e-17
-2.74788e-17
-2.74827e-17
-2.74835e-17
-2.75823e-17
-2.75772e-17
-2.75743e-17
-2.75691e-17
-2.75669e-17
-2.75617e-17
-2.75598e-17
-2.7555e-17
-2.75533e-17
-2.75485e-17
-2.75472e-17
-2.75415e-17
-2.75392e-17
-2.75319e-17
-2.75296e-17
-2.75222e-17
-2.75184e-17
-2.75114e-17
-2.75087e-17
-2.75024e-17
-2.75004e-17
-2.74947e-17
-2.74921e-17
-2.74868e-17
-2.74841e-17
-2.748e-17
-2.74776e-17
-2.74742e-17
-2.74717e-17
-2.74696e-17
-2.74683e-17
-2.74671e-17
-2.74672e-17
-2.74664e-17
-2.74662e-17
-2.74662e-17
-2.74685e-17
-2.74676e-17
-2.74707e-17
-2.74726e-17
-2.74762e-17
-2.74786e-17
-2.74827e-17
-2.74836e-17
-2.75823e-17
-2.75778e-17
-2.75742e-17
-2.7569e-17
-2.7567e-17
-2.75615e-17
-2.756e-17
-2.75554e-17
-2.75534e-17
-2.75485e-17
-2.75474e-17
-2.75416e-17
-2.75393e-17
-2.75316e-17
-2.75296e-17
-2.75222e-17
-2.75184e-17
-2.75115e-17
-2.75087e-17
-2.75026e-17
-2.75004e-17
-2.74948e-17
-2.74922e-17
-2.74869e-17
-2.7484e-17
-2.74801e-17
-2.74775e-17
-2.74742e-17
-2.74718e-17
-2.74697e-17
-2.74682e-17
-2.74671e-17
-2.74673e-17
-2.74663e-17
-2.74663e-17
-2.74663e-17
-2.74686e-17
-2.74676e-17
-2.74708e-17
-2.74727e-17
-2.74763e-17
-2.74785e-17
-2.74826e-17
-2.74834e-17
-2.75825e-17
-2.75776e-17
-2.75743e-17
-2.75692e-17
-2.75669e-17
-2.75613e-17
-2.75599e-17
-2.75551e-17
-2.75534e-17
-2.75485e-17
-2.75474e-17
-2.75413e-17
-2.75393e-17
-2.75319e-17
-2.75293e-17
-2.75221e-17
-2.75184e-17
-2.75115e-17
-2.75085e-17
-2.75027e-17
-2.75004e-17
-2.74946e-17
-2.74922e-17
-2.74869e-17
-2.74842e-17
-2.74801e-17
-2.74776e-17
-2.74741e-17
-2.74719e-17
-2.74697e-17
-2.7468e-17
-2.74672e-17
-2.74671e-17
-2.74662e-17
-2.74665e-17
-2.74664e-17
-2.74682e-17
-2.74675e-17
-2.7471e-17
-2.74727e-17
-2.74763e-17
-2.74784e-17
-2.74828e-17
-2.74834e-17
-2.75829e-17
-2.75775e-17
-2.75747e-17
-2.7569e-17
-2.75669e-17
-2.75617e-17
-2.75598e-17
-2.75552e-17
-2.75534e-17
-2.75486e-17
-2.75473e-17
-2.75409e-17
-2.75391e-17
-2.75319e-17
-2.75294e-17
-2.75221e-17
-2.75183e-17
-2.75114e-17
-2.75085e-17
-2.75027e-17
-2.75004e-17
-2.74946e-17
-2.74923e-17
-2.74869e-17
-2.74841e-17
-2.74801e-17
-2.74776e-17
-2.74742e-17
-2.74719e-17
-2.74696e-17
-2.74681e-17
-2.74672e-17
-2.74672e-17
-2.74663e-17
-2.74666e-17
-2.74662e-17
-2.74683e-17
-2.74675e-17
-2.74708e-17
-2.74728e-17
-2.74764e-17
-2.74784e-17
-2.74827e-17
-2.74835e-17
-2.75828e-17
-2.75778e-17
-2.75744e-17
-2.75688e-17
-2.75669e-17
-2.75617e-17
-2.75599e-17
-2.7555e-17
-2.75536e-17
-2.75485e-17
-2.75472e-17
-2.75409e-17
-2.75388e-17
-2.75316e-17
-2.75294e-17
-2.75219e-17
-2.75183e-17
-2.75116e-17
-2.75085e-17
-2.75027e-17
-2.75004e-17
-2.74946e-17
-2.74922e-17
-2.74869e-17
-2.74842e-17
-2.74801e-17
-2.74776e-17
-2.74742e-17
-2.74718e-17
-2.74695e-17
-2.74682e-17
-2.74672e-17
-2.74671e-17
-2.74663e-17
-2.74666e-17
-2.74662e-17
-2.74686e-17
-2.7468e-17
-2.74708e-17
-2.74728e-17
-2.74765e-17
-2.74783e-17
-2.74826e-17
-2.74837e-17
-2.75824e-17
-2.75777e-17
-2.7574e-17
-2.75689e-17
-2.75667e-17
-2.75616e-17
-2.756e-17
-2.75549e-17
-2.75534e-17
-2.75484e-17
-2.75472e-17
-2.75409e-17
-2.75388e-17
-2.75317e-17
-2.75292e-17
-2.75218e-17
-2.75185e-17
-2.75113e-17
-2.75085e-17
-2.75024e-17
-2.75003e-17
-2.74945e-17
-2.74922e-17
-2.74869e-17
-2.74841e-17
-2.74802e-17
-2.74776e-17
-2.74743e-17
-2.74717e-17
-2.74695e-17
-2.74683e-17
-2.74672e-17
-2.74672e-17
-2.74662e-17
-2.74665e-17
-2.74664e-17
-2.74685e-17
-2.74681e-17
-2.74709e-17
-2.74727e-17
-2.74765e-17
-2.74784e-17
-2.74828e-17
-2.74838e-17
-2.74891e-17
-2.75824e-17
-2.75775e-17
-2.75742e-17
-2.7569e-17
-2.75669e-17
-2.75613e-17
-2.756e-17
-2.75549e-17
-2.75533e-17
-2.75482e-17
-2.75469e-17
-2.75407e-17
-2.75392e-17
-2.75319e-17
-2.75294e-17
-2.7522e-17
-2.75184e-17
-2.75111e-17
-2.75085e-17
-2.75022e-17
-2.75002e-17
-2.74945e-17
-2.74922e-17
-2.74869e-17
-2.74842e-17
-2.74802e-17
-2.74775e-17
-2.74742e-17
-2.74718e-17
-2.74696e-17
-2.74684e-17
-2.74673e-17
-2.74673e-17
-2.74662e-17
-2.74664e-17
-2.74662e-17
-2.74683e-17
-2.74678e-17
-2.7471e-17
-2.74729e-17
-2.74766e-17
-2.74784e-17
-2.7483e-17
-2.74833e-17
-2.74891e-17
-2.75826e-17
-2.75776e-17
-2.75741e-17
-2.75689e-17
-2.75669e-17
-2.75612e-17
-2.75599e-17
-2.7555e-17
-2.75532e-17
-2.75483e-17
-2.75471e-17
-2.75407e-17
-2.75391e-17
-2.75317e-17
-2.75295e-17
-2.75219e-17
-2.75183e-17
-2.75111e-17
-2.75084e-17
-2.75024e-17
-2.75002e-17
-2.74946e-17
-2.74922e-17
-2.74869e-17
-2.74843e-17
-2.74801e-17
-2.74775e-17
-2.74742e-17
-2.74718e-17
-2.74696e-17
-2.74683e-17
-2.74674e-17
-2.74671e-17
-2.74664e-17
-2.74666e-17
-2.74662e-17
-2.74682e-17
-2.74678e-17
-2.74711e-17
-2.74727e-17
-2.74765e-17
-2.74785e-17
-2.74829e-17
-2.74833e-17
-2.74892e-17
-2.75828e-17
-2.75775e-17
-2.75741e-17
-2.75689e-17
-2.75666e-17
-2.75614e-17
-2.756e-17
-2.75548e-17
-2.75535e-17
-2.75484e-17
-2.75473e-17
-2.75406e-17
-2.7539e-17
-2.75316e-17
-2.75297e-17
-2.75219e-17
-2.75184e-17
-2.75113e-17
-2.75084e-17
-2.75025e-17
-2.75003e-17
-2.74945e-17
-2.74922e-17
-2.74869e-17
-2.74842e-17
-2.74801e-17
-2.74775e-17
-2.74741e-17
-2.74719e-17
-2.74696e-17
-2.74682e-17
-2.74674e-17
-2.74671e-17
-2.74663e-17
-2.74664e-17
-2.74663e-17
-2.74682e-17
-2.74679e-17
-2.74712e-17
-2.74726e-17
-2.74765e-17
-2.74782e-17
-2.7483e-17
-2.74833e-17
-2.74891e-17
-2.74897e-17
-2.75827e-17
-2.75775e-17
-2.75744e-17
-2.75691e-17
-2.75669e-17
-2.75616e-17
-2.75597e-17
-2.75549e-17
-2.75535e-17
-2.75484e-17
-2.75472e-17
-2.75409e-17
-2.75391e-17
-2.75315e-17
-2.75294e-17
-2.75219e-17
-2.75183e-17
-2.75112e-17
-2.75086e-17
-2.75025e-17
-2.75003e-17
-2.74945e-17
-2.74922e-17
-2.74868e-17
-2.74841e-17
-2.74801e-17
-2.74775e-17
-2.74742e-17
-2.7472e-17
-2.74696e-17
-2.74682e-17
-2.74674e-17
-2.74671e-17
-2.74664e-17
-2.74663e-17
-2.74665e-17
-2.74683e-17
-2.74678e-17
-2.74707e-17
-2.74725e-17
-2.74764e-17
-2.74784e-17
-2.74828e-17
-2.74836e-17
-2.74889e-17
-2.74897e-17
-2.75826e-17
-2.75778e-17
-2.75745e-17
-2.75691e-17
-2.75667e-17
-2.75616e-17
-2.75597e-17
-2.75551e-17
-2.75533e-17
-2.75484e-17
-2.75472e-17
-2.75409e-17
-2.75391e-17
-2.75316e-17
-2.75292e-17
-2.75217e-17
-2.75183e-17
-2.75112e-17
-2.75085e-17
-2.75025e-17
-2.75002e-17
-2.74946e-17
-2.74922e-17
-2.74869e-17
-2.74841e-17
-2.748e-17
-2.74774e-17
-2.74741e-17
-2.74718e-17
-2.74695e-17
-2.74683e-17
-2.74673e-17
-2.74671e-17
-2.74663e-17
-2.74666e-17
-2.74663e-17
-2.74683e-17
-2.74678e-17
-2.74707e-17
-2.74726e-17
-2.74763e-17
-2.74786e-17
-2.74826e-17
-2.74837e-17
-2.74889e-17
-2.74897e-17
-2.74959e-17
-2.75826e-17
-2.75777e-17
-2.75745e-17
-2.7569e-17
-2.75667e-17
-2.75613e-17
-2.75598e-17
-2.7555e-17
-2.75533e-17
-2.75484e-17
-2.75471e-17
-2.75407e-17
-2.7539e-17
-2.75316e-17
-2.75294e-17
-2.75218e-17
-2.75184e-17
-2.75112e-17
-2.75085e-17
-2.75024e-17
-2.75002e-17
-2.74946e-17
-2.74921e-17
-2.74869e-17
-2.74841e-17
-2.74801e-17
-2.74775e-17
-2.74742e-17
-2.74718e-17
-2.74696e-17
-2.74683e-17
-2.74673e-17
-2.74671e-17
-2.74662e-17
-2.74665e-17
-2.74661e-17
-2.74684e-17
-2.74679e-17
-2.7471e-17
-2.74726e-17
-2.74763e-17
-2.74786e-17
-2.74826e-17
-2.74836e-17
-2.74892e-17
-2.74898e-17
-2.7496e-17
-2.75828e-17
-2.75777e-17
-2.75744e-17
-2.75691e-17
-2.75667e-17
-2.75614e-17
-2.75597e-17
-2.75548e-17
-2.75534e-17
-2.75486e-17
-2.75471e-17
-2.75408e-17
-2.7539e-17
-2.75316e-17
-2.75293e-17
-2.7522e-17
-2.75183e-17
-2.75113e-17
-2.75085e-17
-2.75023e-17
-2.75003e-17
-2.74945e-17
-2.74921e-17
-2.74869e-17
-2.74842e-17
-2.74801e-17
-2.74775e-17
-2.74742e-17
-2.74718e-17
-2.74696e-17
-2.74683e-17
-2.74673e-17
-2.7467e-17
-2.74663e-17
-2.74663e-17
-2.74663e-17
-2.74682e-17
-2.74678e-17
-2.74709e-17
-2.74725e-17
-2.74764e-17
-2.74785e-17
-2.74827e-17
-2.74836e-17
-2.74891e-17
-2.74899e-17
-2.74958e-17
-2.75827e-17
-2.75776e-17
-2.75743e-17
-2.75689e-17
-2.75668e-17
-2.75617e-17
-2.75598e-17
-2.75549e-17
-2.75534e-17
-2.75484e-17
-2.7547e-17
-2.75409e-17
-2.75391e-17
-2.75315e-17
-2.75292e-17
-2.75218e-17
-2.75184e-17
-2.75113e-17
-2.75084e-17
-2.75024e-17
-2.75002e-17
-2.74946e-17
-2.74922e-17
-2.74869e-17
-2.74842e-17
-2.74801e-17
-2.74775e-17
-2.74742e-17
-2.74718e-17
-2.74696e-17
-2.74683e-17
-2.74674e-17
-2.7467e-17
-2.74662e-17
-2.74666e-17
-2.74664e-17
-2.74683e-17
-2.74679e-17
-2.74709e-17
-2.74726e-17
-2.74765e-17
-2.74784e-17
-2.74827e-17
-2.74837e-17
-2.74889e-17
-2.74898e-17
-2.7496e-17
-2.75828e-17
-2.75775e-17
-2.75744e-17
-2.7569e-17
-2.75669e-17
-2.75616e-17
-2.75598e-17
-2.75551e-17
-2.75533e-17
-2.75484e-17
-2.7547e-17
-2.75409e-17
-2.75391e-17
-2.75315e-17
-2.75292e-17
-2.75217e-17
-2.75183e-17
-2.75112e-17
-2.75084e-17
-2.75025e-17
-2.75002e-17
-2.74945e-17
-2.74922e-17
-2.74869e-17
-2.74842e-17
-2.74801e-17
-2.74775e-17
-2.74742e-17
-2.74719e-17
-2.74695e-17
-2.74682e-17
-2.74673e-17
-2.74671e-17
-2.74662e-17
-2.74667e-17
-2.74663e-17
-2.74683e-17
-2.74679e-17
-2.74708e-17
-2.74726e-17
-2.74764e-17
-2.74784e-17
-2.74825e-17
-2.74836e-17
-2.74888e-17
-2.74897e-17
-2.74959e-17
-2.75829e-17
-2.75777e-17
-2.75744e-17
-2.75691e-17
-2.75668e-17
-2.75616e-17
-2.75598e-17
-2.7555e-17
-2.75532e-17
-2.75484e-17
-2.7547e-17
-2.75408e-17
-2.7539e-17
-2.75316e-17
-2.75292e-17
-2.75219e-17
-2.75183e-17
-2.75111e-17
-2.75084e-17
-2.75025e-17
-2.75002e-17
-2.74946e-17
-2.74922e-17
-2.74869e-17
-2.74842e-17
-2.74801e-17
-2.74775e-17
-2.74742e-17
-2.74719e-17
-2.74696e-17
-2.74682e-17
-2.74674e-17
-2.74671e-17
-2.74662e-17
-2.74664e-17
-2.74663e-17
-2.74683e-17
-2.74679e-17
-2.74709e-17
-2.74727e-17
-2.74763e-17
-2.74786e-17
-2.74827e-17
-2.74834e-17
-2.74889e-17
-2.74897e-17
-2.74958e-17
-2.74964e-17
-2.75829e-17
-2.75776e-17
-2.75743e-17
-2.7569e-17
-2.75668e-17
-2.75615e-17
-2.75598e-17
-2.7555e-17
-2.75531e-17
-2.75482e-17
-2.7547e-17
-2.75408e-17
-2.75389e-17
-2.75316e-17
-2.75292e-17
-2.75219e-17
-2.75184e-17
-2.75112e-17
-2.75084e-17
-2.75024e-17
-2.75002e-17
-2.74946e-17
-2.74922e-17
-2.74869e-17
-2.74842e-17
-2.74801e-17
-2.74775e-17
-2.74742e-17
-2.74719e-17
-2.74696e-17
-2.74683e-17
-2.74674e-17
-2.74671e-17
-2.74662e-17
-2.74663e-17
-2.74663e-17
-2.74683e-17
-2.7468e-17
-2.7471e-17
-2.74726e-17
-2.74764e-17
-2.74787e-17
-2.74827e-17
-2.74835e-17
-2.7489e-17
-2.74895e-17
-2.74959e-17
-2.74965e-17
-2.75827e-17
-2.75776e-17
-2.75744e-17
-2.75689e-17
-2.75667e-17
-2.75614e-17
-2.75598e-17
-2.7555e-17
-2.75533e-17
-2.75483e-17
-2.75469e-17
-2.75408e-17
-2.75389e-17
-2.75316e-17
-2.75293e-17
-2.75218e-17
-2.75184e-17
-2.75112e-17
-2.75084e-17
-2.75024e-17
-2.75002e-17
-2.74946e-17
-2.74922e-17
-2.74869e-17
-2.74842e-17
-2.74801e-17
-2.74775e-17
-2.74741e-17
-2.74718e-17
-2.74696e-17
-2.74683e-17
-2.74674e-17
-2.74671e-17
-2.74662e-17
-2.74664e-17
-2.74663e-17
-2.74682e-17
-2.74679e-17
-2.7471e-17
-2.74726e-17
-2.74763e-17
-2.74785e-17
-2.74827e-17
-2.74835e-17
-2.74891e-17
-2.74897e-17
-2.74959e-17
-2.74964e-17
-2.7583e-17
-2.75777e-17
-2.75743e-17
-2.75689e-17
-2.75668e-17
-2.75614e-17
-2.75597e-17
-2.75549e-17
-2.75533e-17
-2.75483e-17
-2.7547e-17
-2.75408e-17
-2.75389e-17
-2.75316e-17
-2.75292e-17
-2.75218e-17
-2.75183e-17
-2.75111e-17
-2.75084e-17
-2.75024e-17
-2.75002e-17
-2.74946e-17
-2.74922e-17
-2.74869e-17
-2.74842e-17
-2.74801e-17
-2.74775e-17
-2.74742e-17
-2.74718e-17
-2.74696e-17
-2.74683e-17
-2.74673e-17
-2.74671e-17
-2.74663e-17
-2.74664e-17
-2.74663e-17
-2.74682e-17
-2.74679e-17
-2.74709e-17
-2.74726e-17
-2.74764e-17
-2.74784e-17
-2.74827e-17
-2.74836e-17
-2.74891e-17
-2.74897e-17
-2.74958e-17
-2.74965e-17
-2.7583e-17
-2.75777e-17
-2.75743e-17
-2.7569e-17
-2.75669e-17
-2.75615e-17
-2.75597e-17
-2.75548e-17
-2.75533e-17
-2.75483e-17
-2.75469e-17
-2.75408e-17
-2.75389e-17
-2.75316e-17
-2.75292e-17
-2.75218e-17
-2.75184e-17
-2.75111e-17
-2.75084e-17
-2.75024e-17
-2.75002e-17
-2.74945e-17
-2.74921e-17
-2.74869e-17
-2.74842e-17
-2.74801e-17
-2.74775e-17
-2.74742e-17
-2.74719e-17
-2.74696e-17
-2.74683e-17
-2.74673e-17
-2.74671e-17
-2.74662e-17
-2.74665e-17
-2.74663e-17
-2.74683e-17
-2.74679e-17
-2.74709e-17
-2.74727e-17
-2.74764e-17
-2.74784e-17
-2.74827e-17
-2.74836e-17
-2.7489e-17
-2.74896e-17
-2.74958e-17
-2.74965e-17
-2.75829e-17
-2.75777e-17
-2.75744e-17
-2.7569e-17
-2.75668e-17
-2.75615e-17
-2.75598e-17
-2.75549e-17
-2.75533e-17
-2.75483e-17
-2.75469e-17
-2.75407e-17
-2.75389e-17
-2.75316e-17
-2.75292e-17
-2.75218e-17
-2.75184e-17
-2.75112e-17
-2.75084e-17
-2.75024e-17
-2.75001e-17
-2.74945e-17
-2.74921e-17
-2.74869e-17
-2.74842e-17
-2.74801e-17
-2.74775e-17
-2.74742e-17
-2.74719e-17
-2.74696e-17
-2.74683e-17
-2.74673e-17
-2.74671e-17
-2.74662e-17
-2.74664e-17
-2.74663e-17
-2.74682e-17
-2.74679e-17
-2.7471e-17
-2.74726e-17
-2.74764e-17
-2.74784e-17
-2.74827e-17
-2.74835e-17
-2.7489e-17
-2.74897e-17
-2.74958e-17
-2.74964e-17
-2.75829e-17
-2.75777e-17
-2.75744e-17
-2.7569e-17
-2.75667e-17
-2.75615e-17
-2.75598e-17
-2.75549e-17
-2.75533e-17
-2.75483e-17
-2.75469e-17
-2.75407e-17
-2.75389e-17
-2.75316e-17
-2.75292e-17
-2.75218e-17
-2.75183e-17
-2.75112e-17
-2.75084e-17
-2.75024e-17
-2.75001e-17
-2.74945e-17
-2.74921e-17
-2.74869e-17
-2.74842e-17
-2.74801e-17
-2.74775e-17
-2.74742e-17
-2.74719e-17
-2.74696e-17
-2.74683e-17
-2.74673e-17
-2.74671e-17
-2.74662e-17
-2.74665e-17
-2.74663e-17
-2.74682e-17
-2.7468e-17
-2.7471e-17
-2.74726e-17
-2.74764e-17
-2.74784e-17
-2.74827e-17
-2.74835e-17
-2.7489e-17
-2.74897e-17
-2.74958e-17
-2.74964e-17
-2.75829e-17
-2.75777e-17
-2.75744e-17
-2.7569e-17
-2.75667e-17
-2.75615e-17
-2.75597e-17
-2.75549e-17
-2.75533e-17
-2.75483e-17
-2.75469e-17
-2.75407e-17
-2.75389e-17
-2.75315e-17
-2.75292e-17
-2.75218e-17
-2.75183e-17
-2.75112e-17
-2.75084e-17
-2.75024e-17
-2.75001e-17
-2.74945e-17
-2.74921e-17
-2.74869e-17
-2.74842e-17
-2.74801e-17
-2.74775e-17
-2.74742e-17
-2.74719e-17
-2.74696e-17
-2.74683e-17
-2.74673e-17
-2.74671e-17
-2.74663e-17
-2.74665e-17
-2.74663e-17
-2.74682e-17
-2.74679e-17
-2.74709e-17
-2.74726e-17
-2.74764e-17
-2.74784e-17
-2.74827e-17
-2.74835e-17
-2.7489e-17
-2.74897e-17
-2.74958e-17
-2.74965e-17
-2.75863e-17
-2.75853e-17
-2.75854e-17
-2.75863e-17
-2.75856e-17
-2.75856e-17
-2.75856e-17
-2.75858e-17
-2.7586e-17
-2.75858e-17
-2.75862e-17
-2.75851e-17
-2.75849e-17
-2.75853e-17
-2.75853e-17
-2.75855e-17
-2.75856e-17