/*--------------------------------*- C++ -*----------------------------------*\
  =========                 |
  \\      /  F ield         | OpenFOAM: The Open Source CFD Toolbox
   \\    /   O peration     | Website:  https://openfoam.org
    \\  /    A nd           | Version:  7
     \\/     M anipulation  |
\*---------------------------------------------------------------------------*/
FoamFile
{
    version     2.0;
    format      ascii;
    class       volScalarField;
    location    "44000";
    object      strainRate;
}
// * * * * * * * * * * * * * * * * * * * * * * * * * * * * * * * * * * * * * //

dimensions      [0 0 -1 0 0 0 0];

internalField   nonuniform List<scalar> 
4814
(
0.0991657
0.0989222
0.0987013
0.0985034
0.106145
0.105665
0.105214
0.104775
0.104347
0.103932
0.10353
0.103143
0.102772
0.102417
0.10208
0.101761
0.101461
0.101182
0.100923
0.100685
0.10047
0.100277
0.100107
0.0999603
0.0998376
0.099739
0.0996648
0.0996152
0.0995904
0.0995903
0.0996151
0.0996646
0.0997387
0.0998372
0.0999598
0.100106
0.100276
0.100469
0.107754
0.107286
0.106846
0.106418
0.106001
0.105596
0.105204
0.104827
0.104465
0.104119
0.10379
0.103479
0.103187
0.102915
0.102662
0.102431
0.102221
0.102032
0.101867
0.101724
0.101604
0.101508
0.101436
0.101387
0.101363
0.101363
0.101387
0.101435
0.101508
0.101604
0.101723
0.101866
0.102032
0.10222
0.10243
0.102662
0.102915
0.103187
0.10348
0.10379
0.104119
0.109346
0.108889
0.108461
0.108044
0.107637
0.107242
0.106861
0.106493
0.10614
0.105803
0.105483
0.10518
0.104895
0.10463
0.104384
0.104158
0.103953
0.10377
0.103608
0.103469
0.103352
0.103259
0.103188
0.103141
0.103117
0.103117
0.103141
0.103188
0.103258
0.103352
0.103469
0.103608
0.103769
0.103953
0.104158
0.104384
0.10463
0.104895
0.10518
0.105483
0.105804
0.106141
0.106494
0.106862
0.110921
0.110476
0.110059
0.109652
0.109256
0.108872
0.1085
0.108142
0.107798
0.10747
0.107158
0.106863
0.106586
0.106327
0.106088
0.105868
0.105668
0.10549
0.105332
0.105196
0.105083
0.104992
0.104923
0.104877
0.104854
0.104854
0.104877
0.104923
0.104991
0.105082
0.105196
0.105332
0.105489
0.105668
0.105867
0.106087
0.106327
0.106586
0.106863
0.107158
0.10747
0.107799
0.108143
0.108501
0.112479
0.112045
0.11164
0.111243
0.110858
0.110484
0.110122
0.109773
0.109439
0.109119
0.108816
0.108528
0.108259
0.108007
0.107773
0.107559
0.107365
0.107191
0.107038
0.106906
0.106795
0.106707
0.10664
0.106595
0.106573
0.106573
0.106595
0.106639
0.106706
0.106795
0.106906
0.107038
0.107191
0.107365
0.107559
0.107773
0.108006
0.108258
0.108528
0.108816
0.10912
0.109439
0.109774
0.110123
0.11402
0.113598
0.113203
0.112818
0.112443
0.112078
0.111726
0.111387
0.111062
0.110751
0.110456
0.110176
0.109914
0.109669
0.109442
0.109233
0.109044
0.108875
0.108726
0.108598
0.10849
0.108404
0.108338
0.108295
0.108273
0.108273
0.108295
0.108338
0.108403
0.10849
0.108597
0.108726
0.108875
0.109044
0.109233
0.109441
0.109668
0.109914
0.110176
0.110456
0.110751
0.111062
0.111388
0.111727
0.115545
0.115134
0.11475
0.114375
0.11401
0.113656
0.113314
0.112984
0.112668
0.112366
0.112078
0.111807
0.111551
0.111313
0.111092
0.11089
0.110706
0.110541
0.110396
0.110271
0.110167
0.110083
0.110019
0.109977
0.109956
0.109956
0.109977
0.110019
0.110082
0.110166
0.110271
0.110396
0.110541
0.110706
0.110889
0.111092
0.111313
0.111551
0.111807
0.112078
0.112366
0.112668
0.112985
0.113315
0.113657
0.117052
0.116653
0.11628
0.115915
0.115561
0.115217
0.114884
0.114564
0.114256
0.113963
0.113683
0.113419
0.113171
0.11294
0.112725
0.112528
0.11235
0.11219
0.112049
0.111928
0.111826
0.111744
0.111683
0.111642
0.111621
0.111621
0.111641
0.111682
0.111744
0.111825
0.111927
0.112049
0.112189
0.112349
0.112528
0.112725
0.112939
0.113171
0.113419
0.113683
0.113963
0.114257
0.114564
0.114885
0.115218
0.118543
0.118155
0.117793
0.117439
0.117094
0.11676
0.116437
0.116126
0.115828
0.115542
0.115271
0.115015
0.114774
0.114549
0.114341
0.11415
0.113976
0.113821
0.113684
0.113566
0.113467
0.113388
0.113328
0.113288
0.113268
0.113268
0.113288
0.113328
0.113388
0.113467
0.113566
0.113684
0.11382
0.113976
0.114149
0.11434
0.114549
0.114774
0.115015
0.115271
0.115543
0.115828
0.116127
0.116438
0.116761
0.120018
0.119641
0.119289
0.118946
0.118611
0.118287
0.117974
0.117672
0.117382
0.117105
0.116842
0.116593
0.116359
0.116141
0.115939
0.115753
0.115585
0.115434
0.115301
0.115187
0.115091
0.115014
0.114956
0.114917
0.114898
0.114898
0.114917
0.114956
0.115014
0.115091
0.115187
0.115301
0.115434
0.115585
0.115753
0.115938
0.116141
0.116359
0.116593
0.116842
0.117105
0.117382
0.117672
0.117974
0.118288
0.121476
0.121111
0.120769
0.120436
0.120112
0.119797
0.119493
0.1192
0.118919
0.118651
0.118395
0.118154
0.117927
0.117716
0.11752
0.11734
0.117176
0.11703
0.116901
0.11679
0.116697
0.116623
0.116566
0.116529
0.11651
0.11651
0.116529
0.116566
0.116622
0.116697
0.11679
0.116901
0.11703
0.117176
0.117339
0.117519
0.117715
0.117927
0.118154
0.118396
0.118651
0.118919
0.119201
0.119494
0.122918
0.122564
0.122233
0.12191
0.121595
0.121291
0.120996
0.120712
0.12044
0.120179
0.119932
0.119698
0.119478
0.119273
0.119083
0.118909
0.118751
0.118609
0.118484
0.118376
0.118286
0.118214
0.118159
0.118123
0.118105
0.118105
0.118123
0.118159
0.118213
0.118286
0.118376
0.118484
0.118608
0.11875
0.118908
0.119083
0.119273
0.119478
0.119698
0.119932
0.12018
0.12044
0.120712
0.120996
0.124344
0.124001
0.12368
0.123367
0.123063
0.122767
0.122482
0.122207
0.121943
0.121691
0.121452
0.121225
0.121012
0.120814
0.12063
0.120461
0.120307
0.12017
0.120049
0.119945
0.119858
0.119788
0.119735
0.1197
0.119682
0.119682
0.119699
0.119735
0.119787
0.119857
0.119945
0.120049
0.12017
0.120307
0.12046
0.120629
0.120813
0.121012
0.121225
0.121452
0.121691
0.121943
0.122207
0.122482
0.125754
0.125421
0.125111
0.124808
0.124513
0.124228
0.123951
0.123685
0.12343
0.123186
0.122954
0.122735
0.122529
0.122337
0.122159
0.121996
0.121847
0.121714
0.121597
0.121497
0.121412
0.121344
0.121293
0.121259
0.121242
0.121242
0.121259
0.121293
0.121344
0.121412
0.121496
0.121597
0.121714
0.121847
0.121995
0.122159
0.122337
0.122529
0.122735
0.122955
0.123186
0.12343
0.123686
0.123952
0.127148
0.126826
0.126526
0.126233
0.125948
0.125672
0.125405
0.125147
0.124901
0.124665
0.124441
0.124229
0.12403
0.123844
0.123671
0.123513
0.12337
0.123242
0.123128
0.123031
0.122949
0.122884
0.122834
0.122801
0.122785
0.122785
0.122801
0.122834
0.122883
0.122949
0.12303
0.123128
0.123241
0.12337
0.123513
0.123671
0.123843
0.124029
0.124229
0.124441
0.124665
0.124901
0.125148
0.125405
0.128526
0.128215
0.127925
0.127642
0.127366
0.127099
0.126841
0.126593
0.126354
0.126127
0.12591
0.125705
0.125513
0.125333
0.125167
0.125014
0.124876
0.124752
0.124643
0.124548
0.124469
0.124406
0.124358
0.124326
0.12431
0.12431
0.124326
0.124358
0.124406
0.124469
0.124548
0.124642
0.124751
0.124875
0.125014
0.125167
0.125333
0.125513
0.125705
0.12591
0.126127
0.126355
0.126593
0.126842
0.129889
0.129588
0.129308
0.129034
0.128769
0.128511
0.128262
0.128022
0.127792
0.127572
0.127363
0.127166
0.12698
0.126807
0.126646
0.126499
0.126365
0.126245
0.12614
0.126049
0.125973
0.125911
0.125865
0.125835
0.125819
0.125819
0.125834
0.125865
0.125911
0.125972
0.126048
0.126139
0.126245
0.126365
0.126498
0.126646
0.126806
0.12698
0.127166
0.127363
0.127572
0.127792
0.128022
0.128262
0.131236
0.130945
0.130675
0.130411
0.130155
0.129907
0.129667
0.129435
0.129213
0.129001
0.1288
0.128609
0.12843
0.128263
0.128108
0.127966
0.127837
0.127722
0.12762
0.127532
0.127459
0.1274
0.127356
0.127326
0.127311
0.127311
0.127326
0.127355
0.1274
0.127459
0.127532
0.12762
0.127721
0.127837
0.127966
0.128108
0.128263
0.12843
0.128609
0.1288
0.129002
0.129214
0.129436
0.129667
0.132567
0.132287
0.132027
0.131773
0.131526
0.131287
0.131055
0.130832
0.130619
0.130414
0.13022
0.130037
0.129864
0.129703
0.129554
0.129417
0.129293
0.129182
0.129084
0.129
0.128929
0.128872
0.128829
0.1288
0.128786
0.128786
0.1288
0.128829
0.128872
0.128928
0.128999
0.129084
0.129182
0.129293
0.129417
0.129554
0.129703
0.129864
0.130037
0.13022
0.130415
0.130619
0.130833
0.131056
0.133884
0.133614
0.133363
0.133119
0.132881
0.132651
0.132428
0.132214
0.132008
0.131811
0.131625
0.131448
0.131282
0.131127
0.130984
0.130852
0.130733
0.130626
0.130531
0.13045
0.130382
0.130327
0.130286
0.130258
0.130245
0.130245
0.130258
0.130286
0.130327
0.130382
0.13045
0.130531
0.130625
0.130732
0.130852
0.130983
0.131127
0.131282
0.131448
0.131625
0.131812
0.132008
0.132214
0.132428
0.135185
0.134925
0.134684
0.134449
0.13422
0.133999
0.133785
0.133579
0.133381
0.133193
0.133013
0.132843
0.132684
0.132535
0.132397
0.132271
0.132156
0.132053
0.131962
0.131884
0.131819
0.131766
0.131726
0.1317
0.131687
0.131687
0.1317
0.131726
0.131766
0.131818
0.131884
0.131962
0.132052
0.132155
0.13227
0.132397
0.132535
0.132684
0.132843
0.133013
0.133193
0.133381
0.133579
0.133785
0.134
0.13647
0.136221
0.135989
0.135764
0.135545
0.135332
0.135127
0.134929
0.134739
0.134558
0.134385
0.134223
0.13407
0.133927
0.133794
0.133673
0.133563
0.133464
0.133377
0.133302
0.133239
0.133189
0.133151
0.133125
0.133112
0.133112
0.133125
0.13315
0.133188
0.133239
0.133301
0.133376
0.133463
0.133562
0.133672
0.133794
0.133926
0.134069
0.134223
0.134385
0.134558
0.134739
0.134929
0.135127
0.135333
0.137742
0.137502
0.13728
0.137064
0.136853
0.13665
0.136453
0.136263
0.136081
0.135907
0.135742
0.135586
0.135439
0.135302
0.135176
0.135059
0.134953
0.134859
0.134775
0.134703
0.134643
0.134595
0.134558
0.134534
0.134522
0.134522
0.134534
0.134558
0.134594
0.134643
0.134703
0.134775
0.134858
0.134953
0.135059
0.135175
0.135302
0.135439
0.135586
0.135742
0.135907
0.136081
0.136263
0.136453
0.13665
0.138998
0.138769
0.138556
0.138348
0.138147
0.137952
0.137763
0.137582
0.137408
0.137241
0.137083
0.136934
0.136793
0.136662
0.136541
0.136429
0.136328
0.136238
0.136158
0.136089
0.136031
0.135985
0.13595
0.135927
0.135915
0.135915
0.135927
0.13595
0.135985
0.136031
0.136089
0.136157
0.136237
0.136328
0.136429
0.13654
0.136662
0.136793
0.136934
0.137083
0.137241
0.137408
0.137582
0.137764
0.137952
0.140239
0.14002
0.139816
0.139618
0.139426
0.139239
0.139059
0.138885
0.138719
0.13856
0.138409
0.138266
0.138132
0.138007
0.13789
0.137784
0.137687
0.137601
0.137524
0.137459
0.137403
0.137359
0.137326
0.137304
0.137292
0.137292
0.137303
0.137326
0.137359
0.137403
0.137458
0.137524
0.1376
0.137687
0.137784
0.13789
0.138006
0.138132
0.138266
0.138409
0.13856
0.138719
0.138886
0.139059
0.141467
0.141257
0.141063
0.140873
0.14069
0.140511
0.140339
0.140174
0.140015
0.139863
0.139719
0.139583
0.139455
0.139335
0.139225
0.139123
0.139031
0.138948
0.138875
0.138812
0.13876
0.138718
0.138686
0.138664
0.138654
0.138654
0.138664
0.138686
0.138717
0.138759
0.138812
0.138875
0.138948
0.13903
0.139122
0.139224
0.139335
0.139455
0.139583
0.139719
0.139863
0.140015
0.140174
0.14034
0.142679
0.142479
0.142294
0.142114
0.141939
0.141769
0.141605
0.141447
0.141296
0.141152
0.141014
0.140884
0.140762
0.140649
0.140543
0.140446
0.140358
0.14028
0.14021
0.140151
0.1401
0.14006
0.14003
0.14001
0.14
0.139999
0.14001
0.14003
0.14006
0.1401
0.14015
0.14021
0.140279
0.140358
0.140446
0.140543
0.140648
0.140762
0.140884
0.141014
0.141152
0.141296
0.141447
0.141605
0.143878
0.143687
0.143511
0.14334
0.143173
0.143012
0.142856
0.142706
0.142562
0.142425
0.142294
0.142171
0.142055
0.141947
0.141846
0.141754
0.141671
0.141596
0.14153
0.141473
0.141426
0.141387
0.141359
0.141339
0.14133
0.14133
0.141339
0.141358
0.141387
0.141425
0.141473
0.14153
0.141596
0.14167
0.141754
0.141846
0.141946
0.142055
0.142171
0.142294
0.142425
0.142562
0.142706
0.142856
0.145062
0.144881
0.144714
0.144551
0.144393
0.14424
0.144092
0.14395
0.143813
0.143683
0.143559
0.143442
0.143332
0.14323
0.143134
0.143047
0.142968
0.142897
0.142834
0.142781
0.142735
0.142699
0.142672
0.142653
0.142644
0.142644
0.142653
0.142671
0.142699
0.142735
0.14278
0.142834
0.142896
0.142967
0.143047
0.143134
0.143229
0.143332
0.143442
0.143559
0.143683
0.143813
0.14395
0.144092
0.146232
0.146061
0.145903
0.145748
0.145599
0.145454
0.145314
0.145179
0.14505
0.144927
0.144809
0.144699
0.144595
0.144497
0.144407
0.144325
0.14425
0.144183
0.144124
0.144073
0.14403
0.143995
0.14397
0.143952
0.143944
0.143944
0.143952
0.143969
0.143995
0.144029
0.144072
0.144123
0.144182
0.144249
0.144324
0.144407
0.144497
0.144594
0.144699
0.144809
0.144927
0.14505
0.145179
0.145314
0.147389
0.147227
0.147077
0.146931
0.14679
0.146653
0.146521
0.146394
0.146272
0.146156
0.146045
0.14594
0.145842
0.145751
0.145666
0.145588
0.145517
0.145454
0.145398
0.145349
0.145309
0.145277
0.145252
0.145236
0.145228
0.145228
0.145236
0.145252
0.145276
0.145309
0.145349
0.145397
0.145453
0.145516
0.145587
0.145665
0.14575
0.145842
0.14594
0.146045
0.146156
0.146272
0.146394
0.146521
0.148532
0.148379
0.148238
0.148101
0.147967
0.147839
0.147714
0.147594
0.14748
0.14737
0.147266
0.147168
0.147075
0.146989
0.146909
0.146836
0.146769
0.146709
0.146657
0.146611
0.146573
0.146543
0.14652
0.146505
0.146497
0.146497
0.146504
0.14652
0.146543
0.146573
0.146611
0.146656
0.146709
0.146769
0.146835
0.146909
0.146989
0.147075
0.147168
0.147266
0.14737
0.14748
0.147595
0.147714
0.149661
0.149518
0.149385
0.149256
0.149131
0.14901
0.148893
0.148781
0.148673
0.14857
0.148473
0.14838
0.148294
0.148213
0.148138
0.148069
0.148006
0.14795
0.147901
0.147859
0.147823
0.147794
0.147773
0.147758
0.147751
0.147751
0.147758
0.147772
0.147794
0.147823
0.147858
0.147901
0.14795
0.148006
0.148068
0.148137
0.148212
0.148293
0.14838
0.148473
0.14857
0.148673
0.148781
0.148893
0.149009
0.150777
0.150643
0.150518
0.150398
0.150281
0.150167
0.150058
0.149953
0.149852
0.149756
0.149665
0.149579
0.149498
0.149422
0.149352
0.149288
0.149229
0.149177
0.149131
0.149091
0.149058
0.149031
0.149011
0.148997
0.14899
0.14899
0.148997
0.149011
0.149031
0.149057
0.149091
0.14913
0.149176
0.149229
0.149287
0.149352
0.149422
0.149498
0.149579
0.149665
0.149756
0.149853
0.149953
0.150058
0.150167
0.151879
0.151754
0.151638
0.151526
0.151417
0.151311
0.151209
0.151112
0.151018
0.150928
0.150843
0.150763
0.150688
0.150617
0.150552
0.150492
0.150438
0.150389
0.150346
0.150309
0.150278
0.150253
0.150234
0.150222
0.150215
0.150215
0.150221
0.150234
0.150253
0.150278
0.150308
0.150345
0.150388
0.150437
0.150492
0.150551
0.150617
0.150687
0.150763
0.150843
0.150928
0.151018
0.151112
0.151209
0.15131
0.152969
0.152853
0.152745
0.15264
0.152539
0.152441
0.152347
0.152256
0.152169
0.152086
0.152008
0.151933
0.151863
0.151798
0.151738
0.151682
0.151632
0.151587
0.151547
0.151512
0.151484
0.151461
0.151443
0.151432
0.151426
0.151426
0.151431
0.151443
0.15146
0.151483
0.151512
0.151546
0.151586
0.151631
0.151682
0.151737
0.151798
0.151863
0.151933
0.152008
0.152087
0.152169
0.152256
0.152347
0.15244
0.152539
0.154045
0.153938
0.153838
0.153742
0.153648
0.153558
0.153471
0.153387
0.153307
0.153231
0.153158
0.15309
0.153025
0.152965
0.152909
0.152858
0.152812
0.15277
0.152733
0.152702
0.152675
0.152654
0.152638
0.152627
0.152622
0.152622
0.152627
0.152638
0.152654
0.152675
0.152701
0.152733
0.152769
0.152811
0.152858
0.152909
0.152965
0.153025
0.153089
0.153158
0.153231
0.153307
0.153387
0.153471
0.153557
0.153648
0.155109
0.15501
0.154919
0.15483
0.154744
0.154661
0.154582
0.154505
0.154432
0.154362
0.154295
0.154232
0.154173
0.154118
0.154067
0.15402
0.153978
0.153939
0.153906
0.153877
0.153853
0.153833
0.153818
0.153808
0.153803
0.153803
0.153808
0.153818
0.153833
0.153852
0.153876
0.153905
0.153939
0.153977
0.15402
0.154067
0.154118
0.154173
0.154232
0.154295
0.154362
0.154432
0.154505
0.154581
0.154661
0.154744
0.15483
0.15616
0.15607
0.155986
0.155905
0.155827
0.155752
0.155679
0.155609
0.155543
0.155479
0.155418
0.155361
0.155307
0.155257
0.155211
0.155168
0.15513
0.155095
0.155064
0.155038
0.155016
0.154998
0.154985
0.154976
0.154971
0.154971
0.154976
0.154984
0.154998
0.155015
0.155038
0.155064
0.155094
0.155129
0.155168
0.15521
0.155257
0.155307
0.155361
0.155418
0.155479
0.155543
0.155609
0.155679
0.155751
0.155827
0.155905
0.157198
0.157116
0.157041
0.156968
0.156897
0.156829
0.156763
0.1567
0.15664
0.156583
0.156528
0.156477
0.156428
0.156383
0.156341
0.156303
0.156268
0.156237
0.156209
0.156185
0.156165
0.156149
0.156137
0.156129
0.156125
0.156125
0.156129
0.156137
0.156149
0.156165
0.156185
0.156209
0.156236
0.156267
0.156302
0.156341
0.156383
0.156428
0.156476
0.156528
0.156583
0.15664
0.1567
0.156763
0.156828
0.156896
0.156967
0.158224
0.158151
0.158083
0.158017
0.157954
0.157893
0.157835
0.157778
0.157725
0.157673
0.157625
0.157579
0.157536
0.157495
0.157458
0.157424
0.157393
0.157365
0.15734
0.157319
0.157301
0.157287
0.157276
0.157269
0.157265
0.157265
0.157269
0.157276
0.157287
0.157301
0.157319
0.15734
0.157364
0.157392
0.157423
0.157458
0.157495
0.157535
0.157579
0.157625
0.157673
0.157725
0.157779
0.157834
0.157892
0.157954
0.158017
0.159237
0.159173
0.159113
0.159055
0.158999
0.158945
0.158893
0.158844
0.158796
0.158751
0.158708
0.158668
0.15863
0.158594
0.158561
0.158531
0.158504
0.158479
0.158458
0.158439
0.158423
0.158411
0.158401
0.158395
0.158392
0.158392
0.158395
0.158401
0.15841
0.158423
0.158439
0.158457
0.158479
0.158503
0.158531
0.158561
0.158594
0.15863
0.158668
0.158708
0.158751
0.158796
0.158844
0.158893
0.158944
0.158998
0.159054
0.160238
0.160182
0.16013
0.160079
0.160031
0.159984
0.159939
0.159896
0.159855
0.159816
0.159779
0.159744
0.159711
0.15968
0.159652
0.159626
0.159602
0.159581
0.159562
0.159546
0.159532
0.159521
0.159513
0.159508
0.159505
0.159505
0.159507
0.159513
0.159521
0.159532
0.159545
0.159561
0.15958
0.159601
0.159625
0.159651
0.15968
0.159711
0.159744
0.159779
0.159816
0.159855
0.159896
0.159939
0.159983
0.16003
0.160079
0.16013
0.161227
0.16118
0.161135
0.161092
0.16105
0.16101
0.160972
0.160936
0.160901
0.160868
0.160836
0.160807
0.160779
0.160753
0.160729
0.160707
0.160687
0.160669
0.160653
0.160639
0.160628
0.160618
0.160612
0.160607
0.160604
0.160604
0.160607
0.160611
0.160618
0.160627
0.160639
0.160652
0.160668
0.160686
0.160706
0.160729
0.160753
0.160779
0.160807
0.160836
0.160868
0.160901
0.160936
0.160972
0.161009
0.161049
0.161091
0.161135
0.162205
0.162165
0.162128
0.162092
0.162057
0.162025
0.161993
0.161963
0.161934
0.161907
0.161881
0.161857
0.161834
0.161813
0.161793
0.161775
0.161759
0.161744
0.161731
0.16172
0.16171
0.161703
0.161697
0.161693
0.161691
0.161691
0.161693
0.161697
0.161702
0.16171
0.161719
0.16173
0.161743
0.161758
0.161775
0.161793
0.161813
0.161834
0.161857
0.161881
0.161907
0.161935
0.161963
0.161993
0.162024
0.162057
0.162091
0.162127
0.16317
0.163139
0.163109
0.16308
0.163053
0.163027
0.163002
0.162978
0.162956
0.162934
0.162914
0.162895
0.162877
0.16286
0.162845
0.16283
0.162818
0.162806
0.162796
0.162787
0.16278
0.162774
0.162769
0.162766
0.162764
0.162764
0.162766
0.162769
0.162773
0.162779
0.162786
0.162795
0.162805
0.162817
0.16283
0.162844
0.16286
0.162877
0.162895
0.162914
0.162934
0.162956
0.162978
0.163001
0.163026
0.163052
0.163079
0.163108
0.164124
0.164101
0.164078
0.164056
0.164036
0.164016
0.163998
0.163981
0.163964
0.163949
0.163934
0.16392
0.163907
0.163895
0.163883
0.163873
0.163864
0.163855
0.163848
0.163841
0.163836
0.163832
0.163828
0.163826
0.163825
0.163825
0.163826
0.163828
0.163831
0.163836
0.163841
0.163847
0.163855
0.163863
0.163873
0.163883
0.163894
0.163907
0.16392
0.163934
0.163949
0.163964
0.163981
0.163998
0.164016
0.164035
0.164056
0.164078
0.165066
0.165051
0.165035
0.165021
0.165007
0.164994
0.164983
0.164971
0.164961
0.164951
0.164942
0.164933
0.164925
0.164917
0.16491
0.164903
0.164897
0.164892
0.164887
0.164883
0.16488
0.164877
0.164875
0.164874
0.164873
0.164873
0.164873
0.164875
0.164877
0.164879
0.164883
0.164887
0.164892
0.164897
0.164903
0.164909
0.164917
0.164924
0.164933
0.164942
0.164951
0.164961
0.164971
0.164982
0.164994
0.165006
0.16502
0.165035
0.165997
0.16599
0.165981
0.165974
0.165967
0.165961
0.165955
0.16595
0.165945
0.165941
0.165937
0.165933
0.16593
0.165927
0.165924
0.165921
0.165919
0.165916
0.165914
0.165913
0.165911
0.16591
0.165909
0.165908
0.165908
0.165908
0.165908
0.165909
0.16591
0.165911
0.165912
0.165914
0.165916
0.165918
0.165921
0.165923
0.165926
0.16593
0.165933
0.165937
0.165941
0.165945
0.16595
0.165955
0.16596
0.165966
0.165973
0.165981
0.166917
0.166917
0.166916
0.166915
0.166915
0.166915
0.166916
0.166917
0.166918
0.16692
0.166921
0.166922
0.166923
0.166925
0.166926
0.166927
0.166928
0.166929
0.166929
0.16693
0.16693
0.166931
0.166931
0.166931
0.166931
0.166931
0.166931
0.166931
0.16693
0.16693
0.166929
0.166929
0.166928
0.166927
0.166926
0.166925
0.166924
0.166923
0.166922
0.166921
0.16692
0.166918
0.166917
0.166916
0.166914
0.166914
0.166914
0.166915
0.106145
0.107754
0.109346
0.110921
0.112479
0.11402
0.115545
0.117052
0.118544
0.120018
0.121476
0.122919
0.124344
0.125754
0.127148
0.128526
0.129889
0.131236
0.132567
0.133884
0.135185
0.136471
0.137742
0.138998
0.14024
0.141467
0.142679
0.143878
0.145062
0.146233
0.147389
0.148532
0.149661
0.150777
0.15188
0.152969
0.154045
0.155109
0.15616
0.157198
0.158224
0.159237
0.160238
0.161227
0.162205
0.16317
0.164124
0.165066
0.165997
0.166917
0.105665
0.107286
0.10889
0.110476
0.112046
0.113598
0.115134
0.116653
0.118156
0.119642
0.121111
0.122564
0.124001
0.125422
0.126826
0.128215
0.129588
0.130946
0.132288
0.133614
0.134925
0.136222
0.137503
0.138769
0.14002
0.141257
0.14248
0.143688
0.144882
0.146061
0.147227
0.148379
0.149518
0.150643
0.151754
0.152853
0.153938
0.15501
0.15607
0.157117
0.158151
0.159173
0.160182
0.16118
0.162165
0.163139
0.164101
0.165051
0.16599
0.166917
0.105215
0.106847
0.108462
0.110059
0.11164
0.113204
0.11475
0.11628
0.117793
0.11929
0.12077
0.122233
0.12368
0.125111
0.126526
0.127925
0.129308
0.130675
0.132027
0.133363
0.134684
0.13599
0.137281
0.138556
0.139817
0.141063
0.142294
0.143512
0.144714
0.145903
0.147078
0.148238
0.149385
0.150519
0.151639
0.152745
0.153839
0.154919
0.155987
0.157041
0.158083
0.159113
0.16013
0.161135
0.162128
0.163109
0.164078
0.165036
0.165982
0.166916
0.104776
0.106419
0.108044
0.109653
0.111244
0.112818
0.114376
0.115916
0.117439
0.118946
0.120437
0.12191
0.123368
0.124809
0.126233
0.127642
0.129035
0.130412
0.131773
0.133119
0.13445
0.135765
0.137064
0.138349
0.139619
0.140874
0.142114
0.14334
0.144552
0.145749
0.146932
0.148101
0.149257
0.150398
0.151526
0.152641
0.153742
0.154831
0.155906
0.156968
0.158018
0.159055
0.16008
0.161092
0.162092
0.163081
0.164057
0.165021
0.165974
0.166916
0.104348
0.106001
0.107638
0.109257
0.110859
0.112443
0.114011
0.115562
0.117095
0.118612
0.120112
0.121596
0.123063
0.124514
0.125949
0.127367
0.12877
0.130156
0.131527
0.132882
0.134221
0.135545
0.136854
0.138148
0.139427
0.14069
0.141939
0.143174
0.144394
0.145599
0.146791
0.147968
0.149132
0.150281
0.151417
0.15254
0.153649
0.154745
0.155828
0.156898
0.157955
0.158999
0.160031
0.161051
0.162058
0.163053
0.164037
0.165008
0.165968
0.166916
0.103933
0.105597
0.107243
0.108873
0.110485
0.112079
0.113657
0.115218
0.116761
0.118288
0.119798
0.121291
0.122768
0.124229
0.125673
0.1271
0.128512
0.129908
0.131287
0.132652
0.134
0.135333
0.13665
0.137953
0.13924
0.140512
0.14177
0.143013
0.144241
0.145455
0.146654
0.147839
0.149011
0.150168
0.151312
0.152442
0.153559
0.154662
0.155753
0.15683
0.157894
0.158946
0.159985
0.161011
0.162025
0.163027
0.164017
0.164995
0.165962
0.166916
0.103531
0.105205
0.106862
0.108501
0.110123
0.111728
0.113315
0.114885
0.116438
0.117975
0.119494
0.120997
0.122483
0.123952
0.125406
0.126842
0.128263
0.129668
0.131056
0.132429
0.133786
0.135128
0.136454
0.137764
0.13906
0.14034
0.141606
0.142857
0.144093
0.145315
0.146522
0.147715
0.148894
0.150059
0.15121
0.152348
0.153472
0.154583
0.15568
0.156764
0.157836
0.158894
0.15994
0.160973
0.161994
0.163003
0.163999
0.164983
0.165956
0.166917
0.103144
0.104828
0.106494
0.108143
0.109774
0.111389
0.112985
0.114565
0.116127
0.117673
0.119201
0.120713
0.122208
0.123686
0.125148
0.126594
0.128023
0.129436
0.130833
0.132215
0.13358
0.13493
0.136264
0.137583
0.138886
0.140175
0.141448
0.142707
0.143951
0.14518
0.146395
0.147595
0.148782
0.149954
0.151113
0.152257
0.153388
0.154506
0.15561
0.156701
0.157779
0.158845
0.159897
0.160937
0.161964
0.162979
0.163982
0.164972
0.165951
0.166918
0.102773
0.104466
0.106142
0.1078
0.10944
0.111063
0.112669
0.114257
0.115829
0.117383
0.11892
0.120441
0.121944
0.123431
0.124902
0.126356
0.127793
0.129214
0.13062
0.132009
0.133382
0.13474
0.136082
0.137409
0.13872
0.140016
0.141297
0.142563
0.143814
0.145051
0.146273
0.147481
0.148674
0.149853
0.151019
0.15217
0.153308
0.154433
0.155543
0.156641
0.157726
0.158797
0.159856
0.160902
0.161935
0.162956
0.163965
0.164962
0.165946
0.166919
0.102418
0.10412
0.105805
0.107471
0.109121
0.110752
0.112367
0.113964
0.115544
0.117106
0.118652
0.12018
0.121692
0.123187
0.124666
0.126128
0.127573
0.129002
0.130415
0.131812
0.133194
0.134559
0.135908
0.137242
0.138561
0.139864
0.141153
0.142426
0.143684
0.144928
0.146157
0.147371
0.148571
0.149757
0.150929
0.152087
0.153232
0.154363
0.15548
0.156584
0.157674
0.158752
0.159817
0.160869
0.161908
0.162935
0.16395
0.164952
0.165942
0.166921
0.102081
0.103791
0.105484
0.107159
0.108817
0.110457
0.112079
0.113684
0.115272
0.116843
0.118397
0.119933
0.121453
0.122956
0.124442
0.125911
0.127364
0.128801
0.130221
0.131626
0.133014
0.134386
0.135743
0.137084
0.13841
0.13972
0.141015
0.142295
0.14356
0.14481
0.146046
0.147267
0.148474
0.149666
0.150844
0.152009
0.153159
0.154296
0.155419
0.156529
0.157626
0.158709
0.15978
0.160837
0.161882
0.162915
0.163935
0.164943
0.165938
0.166922
0.101762
0.103481
0.105181
0.106864
0.10853
0.110177
0.111808
0.11342
0.115016
0.116594
0.118155
0.119699
0.121226
0.122736
0.12423
0.125706
0.127167
0.12861
0.130038
0.131449
0.132844
0.134224
0.135587
0.136935
0.138267
0.139584
0.140885
0.142172
0.143443
0.1447
0.145941
0.147169
0.148381
0.14958
0.150764
0.151934
0.153091
0.154233
0.155362
0.156478
0.15758
0.158669
0.159745
0.160808
0.161858
0.162896
0.163921
0.164934
0.165934
0.166923
0.101463
0.103189
0.104897
0.106587
0.10826
0.109915
0.111552
0.113172
0.114775
0.11636
0.117928
0.119479
0.121013
0.12253
0.124031
0.125514
0.126981
0.128431
0.129865
0.131283
0.132685
0.13407
0.13544
0.136794
0.138133
0.139456
0.140763
0.142056
0.143333
0.144596
0.145843
0.147076
0.148295
0.149499
0.150688
0.151864
0.153026
0.154174
0.155308
0.156429
0.157537
0.158631
0.159712
0.16078
0.161835
0.162878
0.163908
0.164925
0.165931
0.166924
0.101183
0.102916
0.104631
0.106328
0.108008
0.10967
0.111314
0.112941
0.11455
0.116142
0.117717
0.119274
0.120815
0.122338
0.123845
0.125334
0.126808
0.128264
0.129704
0.131128
0.132536
0.133928
0.135303
0.136663
0.138007
0.139336
0.140649
0.141948
0.14323
0.144498
0.145751
0.14699
0.148214
0.149423
0.150618
0.151799
0.152966
0.154119
0.155258
0.156384
0.157496
0.158595
0.159681
0.160754
0.161814
0.162861
0.163896
0.164918
0.165928
0.166926
0.100924
0.102663
0.104385
0.106089
0.107775
0.109443
0.111093
0.112726
0.114342
0.11594
0.117521
0.119084
0.120631
0.12216
0.123672
0.125168
0.126647
0.128109
0.129555
0.130985
0.132398
0.133795
0.135176
0.136542
0.137891
0.139225
0.140544
0.141847
0.143135
0.144408
0.145666
0.14691
0.148139
0.149353
0.150553
0.151738
0.15291
0.154068
0.155212
0.156342
0.157459
0.158562
0.159653
0.16073
0.161794
0.162846
0.163884
0.164911
0.165925
0.166927
0.100687
0.102432
0.104159
0.105869
0.107561
0.109235
0.110891
0.11253
0.114151
0.115754
0.117341
0.11891
0.120462
0.121997
0.123514
0.125015
0.1265
0.127967
0.129418
0.130853
0.132272
0.133674
0.13506
0.13643
0.137785
0.139124
0.140447
0.141755
0.143048
0.144326
0.145589
0.146836
0.14807
0.149288
0.150493
0.151683
0.152859
0.154021
0.155169
0.156304
0.157425
0.158532
0.159626
0.160708
0.161776
0.162831
0.163874
0.164904
0.165922
0.166928
0.100471
0.102222
0.103954
0.105669
0.107366
0.109046
0.110707
0.112351
0.113977
0.115586
0.117178
0.118752
0.120308
0.121848
0.123371
0.124877
0.126366
0.127838
0.129294
0.130734
0.132157
0.133564
0.134954
0.136329
0.137688
0.139032
0.140359
0.141672
0.142969
0.144251
0.145518
0.14677
0.148007
0.14923
0.150438
0.151633
0.152813
0.153978
0.15513
0.156269
0.157394
0.158505
0.159603
0.160688
0.161759
0.162818
0.163865
0.164898
0.16592
0.166929
0.100278
0.102034
0.103771
0.105491
0.107192
0.108876
0.110543
0.112191
0.113822
0.115435
0.117031
0.11861
0.120171
0.121715
0.123243
0.124753
0.126246
0.127723
0.129183
0.130627
0.132054
0.133465
0.13486
0.136239
0.137602
0.138949
0.140281
0.141597
0.142898
0.144184
0.145454
0.14671
0.147951
0.149178
0.15039
0.151587
0.152771
0.15394
0.155096
0.156238
0.157366
0.15848
0.159582
0.16067
0.161745
0.162807
0.163856
0.164893
0.165917
0.166929
0.100108
0.101868
0.10361
0.105333
0.107039
0.108727
0.110398
0.11205
0.113685
0.115303
0.116903
0.118485
0.12005
0.121599
0.12313
0.124644
0.126141
0.127621
0.129085
0.130532
0.131963
0.133378
0.134776
0.136159
0.137525
0.138876
0.140211
0.141531
0.142835
0.144125
0.145399
0.146658
0.147902
0.149132
0.150347
0.151548
0.152734
0.153907
0.155065
0.15621
0.157341
0.158459
0.159563
0.160654
0.161732
0.162797
0.163849
0.164888
0.165915
0.16693
0.0999616
0.101725
0.10347
0.105198
0.106907
0.108599
0.110273
0.111929
0.113567
0.115188
0.116792
0.118378
0.119946
0.121498
0.123032
0.124549
0.12605
0.127534
0.129001
0.130451
0.131885
0.133303
0.134705
0.13609
0.13746
0.138814
0.140152
0.141474
0.142782
0.144074
0.145351
0.146613
0.14786
0.149092
0.15031
0.151514
0.152703
0.153878
0.155039
0.156186
0.15732
0.15844
0.159547
0.16064
0.161721
0.162788
0.163843
0.164884
0.165914
0.166931
0.099839
0.101605
0.103354
0.105084
0.106797
0.108491
0.110168
0.111827
0.113469
0.115092
0.116699
0.118288
0.119859
0.121413
0.12295
0.124471
0.125974
0.12746
0.12893
0.130383
0.13182
0.13324
0.134644
0.136033
0.137405
0.138761
0.140102
0.141427
0.142737
0.144031
0.14531
0.146575
0.147824
0.149059
0.150279
0.151485
0.152676
0.153854
0.155017
0.156167
0.157302