/*--------------------------------*- C++ -*----------------------------------*\
  =========                 |
  \\      /  F ield         | OpenFOAM: The Open Source CFD Toolbox
   \\    /   O peration     | Website:  https://openfoam.org
    \\  /    A nd           | Version:  7
     \\/     M anipulation  |
\*---------------------------------------------------------------------------*/
FoamFile
{
    version     2.0;
    format      ascii;
    class       volScalarField;
    location    "8000";
    object      nu;
}
// * * * * * * * * * * * * * * * * * * * * * * * * * * * * * * * * * * * * * //

dimensions      [0 2 -1 0 0 0 0];

internalField   nonuniform List<scalar> 
1745
(
1.1651e-05
1.16957e-05
1.17183e-05
1.17183e-05
1.16958e-05
1.16511e-05
1.15852e-05
1.14992e-05
9.50869e-06
9.77758e-06
9.94522e-06
1.01101e-05
1.02704e-05
1.04243e-05
1.05702e-05
1.07061e-05
1.08301e-05
1.09405e-05
1.10356e-05
1.11137e-05
1.11736e-05
1.12141e-05
1.12345e-05
1.12346e-05
1.12141e-05
1.11736e-05
1.11138e-05
1.10356e-05
1.09406e-05
9.21065e-06
9.4548e-06
9.60998e-06
9.76232e-06
9.91019e-06
1.0052e-05
1.01861e-05
1.03109e-05
1.04247e-05
1.05258e-05
1.06127e-05
1.06841e-05
1.07388e-05
1.07758e-05
1.07944e-05
1.07944e-05
1.07758e-05
1.07388e-05
1.06842e-05
1.06128e-05
1.05258e-05
8.93166e-06
9.15439e-06
9.29862e-06
9.43997e-06
9.57696e-06
9.70815e-06
9.83206e-06
9.94718e-06
1.0052e-05
1.0145e-05
1.02249e-05
1.02905e-05
1.03406e-05
1.03746e-05
1.03917e-05
1.03917e-05
1.03746e-05
1.03407e-05
1.02905e-05
1.0225e-05
1.0145e-05
8.66965e-06
8.87372e-06
9.00826e-06
9.13991e-06
9.26731e-06
9.38916e-06
9.50408e-06
9.61071e-06
9.70767e-06
9.79365e-06
9.86743e-06
9.92791e-06
9.97414e-06
1.00054e-05
1.00211e-05
1.00212e-05
1.00054e-05
9.97417e-06
9.92794e-06
9.86747e-06
9.79368e-06
8.42284e-06
8.61058e-06
8.73648e-06
8.85952e-06
8.97844e-06
9.09201e-06
9.199e-06
9.29815e-06
9.3882e-06
9.46798e-06
9.53637e-06
9.59239e-06
9.63518e-06
9.6641e-06
9.67868e-06
9.67868e-06
9.66412e-06
9.63522e-06
9.59244e-06
9.53642e-06
9.46802e-06
8.18968e-06
8.36305e-06
8.48123e-06
8.59659e-06
8.70794e-06
8.81417e-06
8.91411e-06
9.00662e-06
9.09057e-06
9.16486e-06
9.22849e-06
9.28057e-06
9.32034e-06
9.3472e-06
9.36073e-06
9.36074e-06
9.34723e-06
9.32038e-06
9.28063e-06
9.22854e-06
9.1649e-06
7.96885e-06
8.1295e-06
8.24076e-06
8.34923e-06
8.45382e-06
8.55347e-06
8.64712e-06
8.73372e-06
8.81222e-06
8.88164e-06
8.94105e-06
8.98963e-06
9.02671e-06
9.05175e-06
9.06436e-06
9.06438e-06
9.05178e-06
9.02676e-06
8.98969e-06
8.9411e-06
8.88169e-06
8.81227e-06
7.75917e-06
7.90852e-06
8.01354e-06
8.11581e-06
8.21431e-06
8.30807e-06
8.39608e-06
8.47739e-06
8.55103e-06
8.61608e-06
8.67172e-06
8.71719e-06
8.75188e-06
8.77528e-06
8.78709e-06
8.7871e-06
8.77532e-06
8.75192e-06
8.71724e-06
8.67177e-06
8.61613e-06
8.55107e-06
7.55964e-06
7.69889e-06
7.79826e-06
7.89493e-06
7.98794e-06
8.07638e-06
8.15933e-06
8.23587e-06
8.30514e-06
8.36628e-06
8.41853e-06
8.46122e-06
8.49375e-06
8.5157e-06
8.52677e-06
8.52678e-06
8.51574e-06
8.4938e-06
8.46126e-06
8.41858e-06
8.36632e-06
8.30517e-06
8.2359e-06
8.15935e-06
8.07639e-06
7.98796e-06
7.89496e-06
7.79831e-06
7.69898e-06
7.55974e-06
7.36934e-06
7.49956e-06
7.59378e-06
7.68537e-06
7.77341e-06
7.85703e-06
7.9354e-06
8.00764e-06
8.07296e-06
8.13058e-06
8.17979e-06
8.21996e-06
8.25056e-06
8.2712e-06
8.2816e-06
8.28161e-06
8.27123e-06
8.2506e-06
8.21999e-06
8.17982e-06
8.13061e-06
8.07299e-06
8.00767e-06
7.93541e-06
7.85705e-06
7.77343e-06
7.68541e-06
7.59385e-06
7.49966e-06
7.36945e-06
7.1875e-06
7.3096e-06
7.39912e-06
7.48607e-06
7.56958e-06
7.64883e-06
7.72304e-06
7.79139e-06
7.85313e-06
7.90756e-06
7.95401e-06
7.99191e-06
8.02077e-06
8.04022e-06
8.05002e-06
8.05004e-06
8.04025e-06
8.02079e-06
7.99193e-06
7.95403e-06
7.90758e-06
7.85316e-06
7.79141e-06
7.72306e-06
7.64886e-06
7.56961e-06
7.48613e-06
7.39919e-06
7.3097e-06
7.18761e-06
7.01341e-06
7.12818e-06
7.2134e-06
7.29611e-06
7.37548e-06
7.45075e-06
7.52116e-06
7.58597e-06
7.64446e-06
7.69598e-06
7.73993e-06
7.77577e-06
7.80305e-06
7.82143e-06
7.83069e-06
7.8307e-06
7.82145e-06
7.80306e-06
7.77578e-06
7.73995e-06
7.696e-06
7.64448e-06
7.58599e-06
7.52118e-06
7.45079e-06
7.37553e-06
7.29618e-06
7.21349e-06
7.12828e-06
7.01352e-06
6.84645e-06
6.95458e-06
7.03585e-06
7.11467e-06
7.19025e-06
7.26186e-06
7.32881e-06
7.39038e-06
7.44591e-06
7.49478e-06
7.53644e-06
7.5704e-06
7.59624e-06
7.61365e-06
7.62242e-06
7.62242e-06
7.61367e-06
7.59626e-06
7.57042e-06
7.53646e-06
7.4948e-06
7.44593e-06
7.3904e-06
7.32884e-06
7.26192e-06
7.19031e-06
7.11475e-06
7.03595e-06
6.95468e-06
6.84656e-06
6.68607e-06
6.78816e-06
6.8658e-06
6.94104e-06
7.01313e-06
7.08139e-06
7.14515e-06
7.20375e-06
7.25656e-06
7.30302e-06
7.34258e-06
7.37482e-06
7.39935e-06
7.41587e-06
7.42419e-06
7.42419e-06
7.41589e-06
7.39936e-06
7.37484e-06
7.3426e-06
7.30303e-06
7.25658e-06
7.20378e-06
7.14519e-06
7.08145e-06
7.0132e-06
6.94113e-06
6.8659e-06
6.78826e-06
6.68618e-06
6.53177e-06
6.62835e-06
6.70264e-06
6.77457e-06
6.84345e-06
6.90862e-06
6.96945e-06
7.02532e-06
7.07563e-06
7.11986e-06
7.15751e-06
7.18817e-06
7.21148e-06
7.22719e-06
7.23509e-06
7.2351e-06
7.22721e-06
7.21151e-06
7.18819e-06
7.15753e-06
7.11987e-06
7.07565e-06
7.02534e-06
6.96949e-06
6.90868e-06
6.84352e-06
6.77466e-06
6.70273e-06
6.62845e-06
6.53187e-06
6.3831e-06
6.47466e-06
6.54583e-06
6.6147e-06
6.68061e-06
6.74293e-06
6.80105e-06
6.85439e-06
6.9024e-06
6.94457e-06
6.98046e-06
7.00967e-06
7.03188e-06
7.04683e-06
7.05435e-06
7.05436e-06
7.04685e-06
7.0319e-06
7.00969e-06
6.98048e-06
6.94458e-06
6.90241e-06
6.85441e-06
6.80109e-06
6.74298e-06
6.68068e-06
6.61478e-06
6.54592e-06
6.47475e-06
6.38319e-06
6.23966e-06
6.32661e-06
6.39489e-06
6.46093e-06
6.52407e-06
6.58375e-06
6.63936e-06
6.69037e-06
6.73624e-06
6.77652e-06
6.81077e-06
6.83864e-06
6.85983e-06
6.87409e-06
6.88126e-06
6.88127e-06
6.87411e-06
6.85986e-06
6.83867e-06
6.81079e-06
6.77653e-06
6.73625e-06
6.69038e-06
6.63939e-06
6.5838e-06
6.52414e-06
6.461e-06
6.39497e-06
6.32669e-06
6.23975e-06
6.1011e-06
6.18381e-06
6.2494e-06
6.31279e-06
6.37337e-06
6.43058e-06
6.48386e-06
6.5327e-06
6.5766e-06
6.61511e-06
6.64786e-06
6.67449e-06
6.69473e-06
6.70835e-06
6.7152e-06
6.71521e-06
6.70837e-06
6.69476e-06
6.67453e-06
6.64789e-06
6.61513e-06
6.57661e-06
6.53272e-06
6.48389e-06
6.43063e-06
6.37343e-06
6.31286e-06
6.24947e-06
6.18388e-06
6.10118e-06
5.96709e-06
6.04589e-06
6.10896e-06
6.16988e-06
6.22807e-06
6.28298e-06
6.33409e-06
6.38091e-06
6.42298e-06
6.45986e-06
6.4912e-06
6.51668e-06
6.53604e-06
6.54906e-06
6.55562e-06
6.55562e-06
6.54908e-06
6.53607e-06
6.51672e-06
6.49123e-06
6.45988e-06
6.42299e-06
6.38093e-06
6.33413e-06
6.28303e-06
6.22813e-06
6.16995e-06
6.10902e-06
6.04595e-06
5.96716e-06
5.83733e-06
5.91252e-06
5.97323e-06
6.03184e-06
6.08779e-06
6.14056e-06
6.18964e-06
6.23458e-06
6.27493e-06
6.31029e-06
6.34033e-06
6.36474e-06
6.38327e-06
6.39575e-06
6.40202e-06
6.40202e-06
6.39576e-06
6.3833e-06
6.36477e-06
6.34036e-06
6.31031e-06
6.27495e-06
6.2346e-06
6.18968e-06
6.1406e-06
6.08785e-06
6.0319e-06
5.97328e-06
5.91257e-06
5.83739e-06
5.71156e-06
5.78339e-06
5.84189e-06
5.89834e-06
5.95219e-06
6.00294e-06
6.05013e-06
6.09331e-06
6.13206e-06
6.166e-06
6.19482e-06
6.21823e-06
6.236e-06
6.24795e-06
6.25396e-06
6.25396e-06
6.24797e-06
6.23602e-06
6.21826e-06
6.19485e-06
6.16602e-06
6.13208e-06
6.09334e-06
6.05017e-06
6.00299e-06
5.95225e-06
5.89839e-06
5.84194e-06
5.78344e-06
5.71162e-06
5.58952e-06
5.65824e-06
5.71466e-06
5.76907e-06
5.82096e-06
5.86982e-06
5.91523e-06
5.95675e-06
5.994e-06
6.02662e-06
6.0543e-06
6.07677e-06
6.09383e-06
6.10529e-06
6.11106e-06
6.11106e-06
6.1053e-06
6.09384e-06
6.07679e-06
6.05432e-06
6.02664e-06
5.99402e-06
5.95678e-06
5.91527e-06
5.86987e-06
5.82101e-06
5.76912e-06
5.71471e-06
5.65829e-06
5.58958e-06
5.47101e-06
5.53683e-06
5.59128e-06
5.64378e-06
5.6938e-06
5.74089e-06
5.78463e-06
5.8246e-06
5.86043e-06
5.8918e-06
5.91842e-06
5.94002e-06
5.95641e-06
5.96741e-06
5.97295e-06
5.97295e-06
5.96742e-06
5.95641e-06
5.94003e-06
5.91843e-06
5.89183e-06
5.86045e-06
5.82463e-06
5.78466e-06
5.74094e-06
5.69385e-06
5.64383e-06
5.59133e-06
5.53688e-06
5.47106e-06
5.35581e-06
5.41893e-06
5.47152e-06
5.52221e-06
5.57048e-06
5.6159e-06
5.65805e-06
5.69655e-06
5.73106e-06
5.76126e-06
5.78687e-06
5.80765e-06
5.82341e-06
5.83399e-06
5.83931e-06
5.83932e-06
5.83399e-06
5.8234e-06
5.80765e-06
5.78688e-06
5.76129e-06
5.73109e-06
5.69658e-06
5.65808e-06
5.61594e-06
5.57053e-06
5.52226e-06
5.47157e-06
5.41897e-06
5.35586e-06
5.24375e-06
5.30433e-06
5.35517e-06
5.40414e-06
5.45076e-06
5.49459e-06
5.53525e-06
5.57237e-06
5.60562e-06
5.63471e-06
5.65938e-06
5.67939e-06
5.69456e-06
5.70474e-06
5.70985e-06
5.70986e-06
5.70473e-06
5.69454e-06
5.67938e-06
5.65939e-06
5.63474e-06
5.60565e-06
5.5724e-06
5.53528e-06
5.49463e-06
5.4508e-06
5.40419e-06
5.35521e-06
5.30437e-06
5.24379e-06
5.13465e-06
5.19285e-06
5.24203e-06
5.28937e-06
5.33442e-06
5.37675e-06
5.41599e-06
5.4518e-06
5.48388e-06
5.51192e-06
5.53569e-06
5.55498e-06
5.56958e-06
5.5794e-06
5.58431e-06
5.58432e-06
5.57938e-06
5.56956e-06
5.55496e-06
5.5357e-06
5.51195e-06
5.4839e-06
5.45184e-06
5.41603e-06
5.37678e-06
5.33445e-06
5.28942e-06
5.24207e-06
5.19289e-06
5.13469e-06
5.02835e-06
5.08432e-06
5.13192e-06
5.17771e-06
5.22126e-06
5.26217e-06
5.30008e-06
5.33465e-06
5.3656e-06
5.39266e-06
5.41558e-06
5.43418e-06
5.44826e-06
5.45772e-06
5.46245e-06
5.46245e-06
5.45769e-06
5.44823e-06
5.43416e-06
5.41559e-06
5.39268e-06
5.36563e-06
5.33468e-06
5.30011e-06
5.2622e-06
5.2213e-06
5.17775e-06
5.13195e-06
5.08436e-06
5.02839e-06
4.92472e-06
4.97859e-06
5.02467e-06
5.069e-06
5.11113e-06
5.15068e-06
5.18731e-06
5.22071e-06
5.2506e-06
5.27672e-06
5.29884e-06
5.31678e-06
5.33036e-06
5.33948e-06
5.34404e-06
5.34404e-06
5.33945e-06
5.33034e-06
5.31676e-06
5.29884e-06
5.27673e-06
5.25062e-06
5.22074e-06
5.18734e-06
5.1507e-06
5.11115e-06
5.06903e-06
5.0247e-06
4.97862e-06
4.92475e-06
4.82361e-06
4.8755e-06
4.92014e-06
4.96307e-06
5.00384e-06
5.04211e-06
5.07752e-06
5.1098e-06
5.13868e-06
5.16391e-06
5.18527e-06
5.20258e-06
5.21569e-06
5.22449e-06
5.2289e-06
5.22889e-06
5.22447e-06
5.21567e-06
5.20256e-06
5.18526e-06
5.16392e-06
5.1387e-06
5.10983e-06
5.07755e-06
5.04212e-06
5.00386e-06
4.96309e-06
4.92017e-06
4.87553e-06
4.82364e-06
4.72491e-06
4.77493e-06
4.8182e-06
4.85978e-06
4.89926e-06
4.93629e-06
4.97055e-06
5.00176e-06
5.02968e-06
5.05407e-06
5.07471e-06
5.09142e-06
5.10408e-06
5.11258e-06
5.11683e-06
5.11683e-06
5.11256e-06
5.10406e-06
5.0914e-06
5.07469e-06
5.05407e-06
5.0297e-06
5.0018e-06
4.97058e-06
4.93631e-06
4.89927e-06
4.85979e-06
4.81822e-06
4.77495e-06
4.72493e-06
4.62851e-06
4.67675e-06
4.7187e-06
4.759e-06
4.79723e-06
4.83308e-06
4.86625e-06
4.89645e-06
4.92345e-06
4.94703e-06
4.96698e-06
4.98312e-06
4.99535e-06
5.00356e-06
5.00768e-06
5.00767e-06
5.00355e-06
4.99534e-06
4.98311e-06
4.96696e-06
4.94702e-06
4.92347e-06
4.89648e-06
4.86627e-06
4.83311e-06
4.79725e-06
4.75901e-06
4.71872e-06
4.67677e-06
4.62852e-06
4.53429e-06
4.58085e-06
4.62153e-06
4.6606e-06
4.69765e-06
4.73237e-06
4.76448e-06
4.79371e-06
4.81983e-06
4.84264e-06
4.86193e-06
4.87754e-06
4.88936e-06
4.8973e-06
4.90128e-06
4.90127e-06
4.89729e-06
4.88935e-06
4.87753e-06
4.86191e-06
4.84264e-06
4.81985e-06
4.79374e-06
4.7645e-06
4.7324e-06
4.69766e-06
4.66061e-06
4.62155e-06
4.58086e-06
4.5343e-06
4.44216e-06
4.48713e-06
4.5266e-06
4.56448e-06
4.60039e-06
4.63403e-06
4.66512e-06
4.69343e-06
4.71871e-06
4.74078e-06
4.75945e-06
4.77454e-06
4.78597e-06
4.79364e-06
4.7975e-06
4.79749e-06
4.79364e-06
4.78596e-06
4.77453e-06
4.75942e-06
4.74078e-06
4.71873e-06
4.69345e-06
4.66515e-06
4.63406e-06
4.6004e-06
4.56448e-06
4.52661e-06
4.48714e-06
4.44217e-06
4.35203e-06
4.39548e-06
4.43378e-06
4.47052e-06
4.50534e-06
4.53794e-06
4.56806e-06
4.59548e-06
4.61996e-06
4.64132e-06
4.65938e-06
4.67399e-06
4.68505e-06
4.69247e-06
4.6962e-06
4.69619e-06
4.69247e-06
4.68504e-06
4.67398e-06
4.65937e-06
4.64132e-06
4.61998e-06
4.26382e-06
4.30581e-06
4.34299e-06
4.37864e-06
4.4124e-06
4.444e-06
4.4732e-06
4.49975e-06
4.52346e-06
4.54415e-06
4.56164e-06
4.57578e-06
4.58648e-06
4.59366e-06
4.59727e-06
4.59726e-06
4.59366e-06
4.58647e-06
4.57577e-06
4.56162e-06
4.54414e-06
4.52348e-06
4.17745e-06
4.21806e-06
4.25415e-06
4.28873e-06
4.32149e-06
4.35213e-06
4.38042e-06
4.40615e-06
4.42912e-06
4.44916e-06
4.46609e-06
4.47979e-06
4.49015e-06
4.4971e-06
4.5006e-06
4.09284e-06
4.13212e-06
4.16716e-06
4.20073e-06
4.2325e-06
4.26222e-06
4.28964e-06
4.31458e-06
4.33685e-06
4.35625e-06
4.37265e-06
4.38592e-06
1.05701e-05
1.04243e-05
1.02703e-05
1.011e-05
9.94518e-06
9.77756e-06
9.50868e-06
1.05258e-05
1.04246e-05
1.03109e-05
1.01861e-05
1.0052e-05
9.91013e-06
9.76228e-06
9.60995e-06
9.45478e-06
9.21064e-06
1.0145e-05
1.00519e-05
9.94712e-06
9.83201e-06
9.7081e-06
9.5769e-06
9.43992e-06
9.29858e-06
9.15436e-06
8.93165e-06
9.79361e-06
9.70762e-06
9.61065e-06
9.50403e-06
9.3891e-06
9.26726e-06
9.13986e-06
9.00821e-06
8.8737e-06
8.66963e-06
9.46794e-06
9.38815e-06
9.29809e-06
9.19894e-06
9.09195e-06
8.97838e-06
8.85947e-06
8.73643e-06
8.61055e-06
8.42282e-06
9.16482e-06
9.09052e-06
9.00656e-06
8.91405e-06
8.8141e-06
8.70788e-06
8.59653e-06
8.48119e-06
8.36301e-06
8.18967e-06
8.88161e-06
8.81218e-06
8.73367e-06
8.64705e-06
8.55339e-06
8.45374e-06
8.34917e-06
8.24071e-06
8.12946e-06
7.96884e-06
8.61606e-06
8.55099e-06
8.47734e-06
8.39602e-06
8.30799e-06
8.21423e-06
8.11574e-06
8.01348e-06
7.90849e-06
7.75916e-06
8.36625e-06
8.3051e-06
8.23582e-06
8.15925e-06
8.0763e-06
7.98786e-06
7.89486e-06
7.79821e-06
7.69887e-06
7.55963e-06
8.13055e-06
8.07292e-06
8.00759e-06
7.93532e-06
7.85695e-06
7.77333e-06
7.68531e-06
7.59374e-06
7.49955e-06
7.36934e-06
7.90752e-06
7.85309e-06
7.79133e-06
7.72297e-06
7.64877e-06
7.56952e-06
7.48603e-06
7.39909e-06
7.30959e-06
7.1875e-06
7.69595e-06
7.64442e-06
7.58592e-06
7.5211e-06
7.4507e-06
7.37544e-06
7.29608e-06
7.21338e-06
7.12817e-06
7.01341e-06
7.49475e-06
7.44587e-06
7.39034e-06
7.32877e-06
7.26184e-06
7.19023e-06
7.11466e-06
7.03585e-06
6.95458e-06
6.84645e-06
7.30298e-06
7.25653e-06
7.20372e-06
7.14513e-06
7.08137e-06
7.01312e-06
6.94104e-06
6.86581e-06
6.78816e-06
6.68607e-06
7.11983e-06
7.0756e-06
7.02528e-06
6.96943e-06
6.90861e-06
6.84345e-06
6.77458e-06
6.70265e-06
6.62836e-06
6.53176e-06
6.94454e-06
6.90237e-06
6.85436e-06
6.80103e-06
6.74292e-06
6.68061e-06
6.61471e-06
6.54584e-06
6.47466e-06
6.38309e-06
6.77649e-06
6.73621e-06
6.69033e-06
6.63934e-06
6.58374e-06
6.52407e-06
6.46093e-06
6.3949e-06
6.32661e-06
6.23965e-06
6.6151e-06
6.57657e-06
6.53267e-06
6.48384e-06
6.43057e-06
6.37337e-06
6.31279e-06
6.2494e-06
6.18381e-06
6.10109e-06
6.45985e-06
6.42296e-06
6.38089e-06
6.33408e-06
6.28298e-06
6.22807e-06
6.16989e-06
6.10895e-06
6.04588e-06
5.96708e-06
6.31029e-06
6.27492e-06
6.23457e-06
6.18964e-06
6.14055e-06
6.0878e-06
6.03185e-06
5.97322e-06
5.9125e-06
5.83732e-06
6.166e-06
6.13205e-06
6.0933e-06
6.05013e-06
6.00295e-06
5.9522e-06
5.89834e-06
5.84188e-06
5.78338e-06
5.71155e-06
6.02661e-06
5.99399e-06
5.95675e-06
5.91523e-06
5.86983e-06
5.82096e-06
5.76907e-06
5.71466e-06
5.65824e-06
5.58952e-06
5.8918e-06
5.86043e-06
5.8246e-06
5.78463e-06
5.7409e-06
5.69381e-06
5.64378e-06
5.59128e-06
5.53683e-06
5.47101e-06
5.76126e-06
5.73106e-06
5.69656e-06
5.65805e-06
5.61591e-06
5.57049e-06
5.52222e-06
5.47153e-06
5.41893e-06
5.35582e-06
5.63472e-06
5.60563e-06
5.57237e-06
5.53525e-06
5.4946e-06
5.45076e-06
5.40415e-06
5.35518e-06
5.30433e-06
5.24376e-06
5.51193e-06
5.48388e-06
5.45181e-06
5.416e-06
5.37675e-06
5.33442e-06
5.28938e-06
5.24203e-06
5.19286e-06
5.13465e-06
5.39266e-06
5.36561e-06
5.33466e-06
5.30009e-06
5.26217e-06
5.22127e-06
5.17772e-06
5.13192e-06
5.08433e-06
5.02836e-06
5.27671e-06
5.2506e-06
5.22072e-06
5.18732e-06
5.15067e-06
5.11113e-06
5.069e-06
5.02467e-06
4.97859e-06
4.92472e-06
5.16389e-06
5.13868e-06
5.10981e-06
5.07753e-06
5.0421e-06
5.00383e-06
4.96306e-06
4.92014e-06
4.8755e-06
4.82361e-06
5.05404e-06
5.02968e-06
5.00177e-06
4.97055e-06
4.93628e-06
4.89925e-06
4.85977e-06
4.81819e-06
4.77493e-06
4.72491e-06
4.947e-06
4.92345e-06
4.89645e-06
4.86625e-06
4.83309e-06
4.79723e-06
4.75898e-06
4.71869e-06
4.67675e-06
4.6285e-06
4.84261e-06
4.81983e-06
4.79371e-06
4.76448e-06
4.73238e-06
4.69764e-06
4.66059e-06
4.62153e-06
4.58085e-06
4.53428e-06
4.74075e-06
4.71871e-06
4.69343e-06
4.66513e-06
4.63403e-06
4.60038e-06
4.56446e-06
4.52659e-06
4.48712e-06
4.44215e-06
4.64129e-06
4.61995e-06
4.59548e-06
4.56807e-06
4.53795e-06
4.50533e-06
4.47051e-06
4.43377e-06
4.39547e-06
4.35203e-06
4.54412e-06
4.52346e-06
4.49975e-06
4.4732e-06
4.44401e-06
4.41239e-06
4.37863e-06
4.34298e-06
4.30581e-06
4.26381e-06
4.44913e-06
4.42911e-06
4.40615e-06
4.38043e-06
4.35213e-06
4.32148e-06
4.28873e-06
4.25414e-06
4.21805e-06
4.17744e-06
4.35623e-06
4.33683e-06
4.31459e-06
4.28965e-06
4.26222e-06
4.2325e-06
4.20072e-06
4.16716e-06
4.13211e-06
4.09283e-06
7.6225e-06
7.42428e-06
7.2352e-06
7.05446e-06
6.88137e-06
6.71531e-06
6.55573e-06
6.40214e-06
6.25409e-06
6.11119e-06
5.97308e-06
5.83944e-06
5.70998e-06
5.58444e-06
5.46257e-06
5.34417e-06
5.22902e-06
5.11694e-06
5.00778e-06
4.90137e-06
4.79757e-06
7.62251e-06
7.42428e-06
7.23519e-06
7.05445e-06
6.88137e-06
6.71531e-06
6.55573e-06
6.40214e-06
6.25409e-06
6.11119e-06
5.97308e-06
5.83945e-06
5.70999e-06
5.58444e-06
5.46258e-06
5.34417e-06
5.22901e-06
5.11694e-06
5.00778e-06
4.90137e-06
4.79758e-06
7.61374e-06
7.41596e-06
7.22729e-06
7.04693e-06
6.87419e-06
6.70846e-06
6.54918e-06
6.39586e-06
6.24808e-06
6.10542e-06
5.96755e-06
5.83412e-06
5.70486e-06
5.57951e-06
5.45782e-06
5.33958e-06
5.22459e-06
5.11267e-06
5.00365e-06
4.89738e-06
4.79372e-06
7.59634e-06
7.39945e-06
7.21159e-06
7.03198e-06
6.85993e-06
6.69483e-06
6.53615e-06
6.38339e-06
6.23612e-06
6.09395e-06
5.95652e-06
5.82352e-06
5.69466e-06
5.56969e-06
5.44836e-06
5.33045e-06
5.21578e-06
5.10416e-06
4.99543e-06
4.88944e-06
4.78604e-06
7.5705e-06
7.37493e-06
7.18827e-06
7.00976e-06
6.83874e-06
6.67459e-06
6.51678e-06
6.36484e-06
6.21833e-06
6.07688e-06
5.94012e-06
5.80776e-06
5.67949e-06
5.55507e-06
5.43427e-06
5.31687e-06
5.20267e-06
5.0915e-06
4.98319e-06
4.8776e-06
4.7746e-06
8.17988e-06
7.9541e-06
7.74002e-06
7.53653e-06
7.34267e-06
7.15759e-06
6.98055e-06
6.81086e-06
6.64795e-06
6.49129e-06
6.34042e-06
6.19491e-06
6.05439e-06
5.9185e-06
5.78695e-06
5.65946e-06
5.53578e-06
5.41567e-06
5.29892e-06
5.18535e-06
5.07478e-06
4.96704e-06
4.86199e-06
4.75949e-06
8.36638e-06
8.13067e-06
7.90765e-06
7.69608e-06
7.49487e-06
7.3031e-06
7.11994e-06
6.94465e-06
6.7766e-06
6.6152e-06
6.45994e-06
6.31037e-06
6.16608e-06
6.02669e-06
5.89188e-06
5.76133e-06
5.63479e-06
5.512e-06
5.39273e-06
5.27679e-06
5.16398e-06
5.05413e-06
4.94708e-06
4.84269e-06
4.74083e-06
8.30524e-06
8.07306e-06
7.85323e-06
7.64455e-06
7.44599e-06
7.25664e-06
7.07571e-06
6.90247e-06
6.73631e-06
6.57667e-06
6.42304e-06
6.275e-06
6.13212e-06
5.99407e-06
5.8605e-06
5.73113e-06
5.6057e-06
5.48395e-06
5.36568e-06
5.25067e-06
5.13875e-06
5.02974e-06
4.9235e-06
4.81989e-06
4.71876e-06
8.23597e-06
8.00774e-06
7.79148e-06
7.58605e-06
7.39046e-06
7.20383e-06
7.02539e-06
6.85446e-06
6.69042e-06
6.53276e-06
6.38098e-06
6.23465e-06
6.09338e-06
5.95683e-06
5.82467e-06
5.69663e-06
5.57245e-06
5.45188e-06
5.33472e-06
5.22078e-06
5.10986e-06
5.00182e-06
4.8965e-06
4.79376e-06
4.69347e-06
8.15942e-06
7.93549e-06
7.72313e-06
7.52125e-06
7.3289e-06
7.14524e-06
6.96953e-06
6.80112e-06
6.63943e-06
6.48393e-06
6.33417e-06
6.18973e-06
6.05022e-06
5.91531e-06
5.78471e-06
5.65813e-06
5.53533e-06
5.41606e-06
5.30014e-06
5.18737e-06
5.07758e-06
4.9706e-06
4.8663e-06
4.76453e-06
4.66517e-06
8.07646e-06
7.85712e-06
7.64893e-06
7.45085e-06
7.26196e-06
7.08149e-06
6.90871e-06
6.74301e-06
6.58383e-06
6.43066e-06
6.28306e-06
6.14064e-06
6.00303e-06
5.86991e-06
5.74098e-06
5.61598e-06
5.49467e-06
5.37682e-06
5.26224e-06
5.15074e-06
5.04216e-06
4.93633e-06
4.83312e-06
4.73241e-06
4.63406e-06
7.98802e-06
7.7735e-06
7.56968e-06
7.37558e-06
7.19035e-06
7.01323e-06
6.84355e-06
6.68071e-06
6.52417e-06
6.37346e-06
6.22816e-06
6.08788e-06
5.95227e-06
5.82104e-06
5.69388e-06
5.57056e-06
5.45083e-06
5.33448e-06
5.22132e-06
5.11118e-06
5.00388e-06
4.89929e-06
4.79727e-06
4.69768e-06
4.60042e-06
7.89502e-06
7.68547e-06
7.48618e-06
7.29622e-06
7.11478e-06
6.94115e-06
6.77468e-06
6.61481e-06
6.46103e-06
6.31289e-06
6.16997e-06
6.03193e-06
5.89842e-06
5.76916e-06
5.64386e-06
5.52228e-06
5.4042e-06
5.28942e-06
5.17776e-06
5.06904e-06
4.9631e-06
4.85981e-06
4.75902e-06
4.66062e-06
4.56449e-06
7.79835e-06
7.59389e-06
7.39924e-06
7.21352e-06
7.03597e-06
6.86591e-06
6.70275e-06
6.54594e-06
6.395e-06
6.2495e-06
6.10905e-06
5.97332e-06
5.84198e-06
5.71474e-06
5.59136e-06
5.47159e-06
5.35523e-06
5.24208e-06
5.13196e-06
5.02471e-06
4.92018e-06
4.81822e-06
4.71872e-06
4.62156e-06
4.52661e-06
7.699e-06
7.49967e-06
7.30971e-06
7.12829e-06
6.9547e-06
6.78828e-06
6.62847e-06
6.47477e-06
6.32672e-06
6.18392e-06
6.04599e-06
5.9126e-06
5.78347e-06
5.65831e-06
5.53689e-06
5.41898e-06
5.30438e-06
5.19289e-06
5.08436e-06
4.97862e-06
4.87553e-06
4.77495e-06
4.67677e-06
4.58087e-06
4.48714e-06
7.55974e-06
7.36945e-06
7.18761e-06
7.01352e-06
6.84657e-06
6.68618e-06
6.53188e-06
6.38321e-06
6.23977e-06
6.1012e-06
5.96718e-06
5.83741e-06
5.71163e-06
5.58958e-06
5.47107e-06
5.35586e-06
5.24379e-06
5.13468e-06
5.02838e-06
4.92474e-06
4.82364e-06
4.72493e-06
4.62853e-06
4.53431e-06
4.44218e-06
)
;

boundaryField
{
    inlet
    {
        type            cyclic;
    }
    outlet
    {
        type            cyclic;
    }
    wall
    {
        type            calculated;
        value           nonuniform 0();
    }
    procBoundary5to1
    {
        type            processor;
        value           nonuniform List<scalar> 10(4.69627e-06 4.69627e-06 4.69254e-06 4.68511e-06 4.67404e-06 4.65942e-06 4.64137e-06 4.62e-06 4.59552e-06 4.56811e-06);
    }
    procBoundary5to2
    {
        type            processor;
        value           nonuniform List<scalar> 
28
(
4.5955e-06
4.56809e-06
4.53797e-06
4.50535e-06
4.47053e-06
4.43379e-06
4.39549e-06
4.35204e-06
4.5955e-06
4.50059e-06
4.49709e-06
4.49014e-06
4.47978e-06
4.46608e-06
4.44915e-06
4.49978e-06
4.42914e-06
4.39596e-06
4.40269e-06
4.50059e-06
4.40607e-06
4.39596e-06
4.53797e-06
4.50537e-06
4.47054e-06
4.4338e-06
4.39549e-06
4.35205e-06
)
;
    }
    procBoundary5to3
    {
        type            processor;
        value           nonuniform List<scalar> 
22
(
4.00992e-06
4.04793e-06
4.08196e-06
4.11454e-06
4.14537e-06
4.17419e-06
4.20078e-06
4.22496e-06
4.24654e-06
4.26534e-06
4.28123e-06
4.29408e-06
4.26532e-06
4.24652e-06
4.22496e-06
4.20079e-06
4.1742e-06
4.14537e-06
4.11454e-06
4.08196e-06
4.04793e-06
4.00992e-06
)
;
    }
    procBoundary5to4
    {
        type            processor;
        value           nonuniform List<scalar> 
55
(
1.06127e-05
1.02249e-05
9.8674e-06
9.53635e-06
9.22847e-06
8.94103e-06
8.67171e-06
8.41852e-06
8.17976e-06
7.95398e-06
7.7399e-06
7.53641e-06
7.34256e-06
7.15748e-06
6.98044e-06
6.81076e-06
6.64786e-06
6.49121e-06
6.34034e-06
6.19482e-06
6.0543e-06
5.91841e-06
5.78686e-06
5.65937e-06
5.53568e-06
5.41557e-06
5.29881e-06
5.18524e-06
5.07466e-06
4.96693e-06
4.86189e-06
4.7594e-06
4.65934e-06
4.56159e-06
4.46605e-06
4.37262e-06
7.2273e-06
7.04695e-06
6.87421e-06
6.70847e-06
6.54919e-06
6.39587e-06
6.24808e-06
6.10542e-06
5.96754e-06
5.83411e-06
5.70485e-06
5.57949e-06
5.4578e-06
5.33956e-06
5.22457e-06
5.11265e-06
5.00364e-06
4.89737e-06
4.79371e-06
)
;
    }
    procBoundary5to6
    {
        type            processor;
        value           nonuniform List<scalar> 
31
(
1.21787e-05
1.22283e-05
1.22533e-05
1.22533e-05
1.22283e-05
1.21788e-05
1.21057e-05
9.82821e-06
1.01259e-05
1.03078e-05
1.04869e-05
1.06615e-05
1.08294e-05
1.09888e-05
1.11375e-05
1.12735e-05
1.13947e-05
1.14991e-05
1.15851e-05
1.15851e-05
1.09888e-05
1.08294e-05
1.06614e-05
1.04869e-05
1.03077e-05
1.01258e-05
9.82821e-06
1.09405e-05
1.08301e-05
1.0706e-05
1.0706e-05
)
;
    }
    procBoundary5to7
    {
        type            processor;
        value           nonuniform List<scalar> 
42
(
1.20106e-05
1.13948e-05
1.13948e-05
1.08301e-05
1.04247e-05
1.0052e-05
9.70768e-06
9.38822e-06
9.0906e-06
9.0906e-06
8.73375e-06
8.47742e-06
8.47742e-06
8.3961e-06
8.30808e-06
8.21433e-06
8.11584e-06
8.01358e-06
7.90859e-06
7.75927e-06
7.61374e-06
7.41597e-06
7.83076e-06
7.83077e-06
7.82151e-06
7.80313e-06
8.22002e-06
7.99198e-06
7.77586e-06
7.77586e-06
8.41861e-06
8.41861e-06
8.61617e-06
8.55112e-06
8.47748e-06
8.39617e-06
8.30814e-06
8.21438e-06
8.11589e-06
8.01362e-06
7.90861e-06
7.75927e-06
)
;
    }
}


// ************************************************************************* //
