/*--------------------------------*- C++ -*----------------------------------*\
  =========                 |
  \\      /  F ield         | OpenFOAM: The Open Source CFD Toolbox
   \\    /   O peration     | Website:  https://openfoam.org
    \\  /    A nd           | Version:  7
     \\/     M anipulation  |
\*---------------------------------------------------------------------------*/
FoamFile
{
    version     2.0;
    format      ascii;
    class       volScalarField;
    location    "8000";
    object      omega;
}
// * * * * * * * * * * * * * * * * * * * * * * * * * * * * * * * * * * * * * //

dimensions      [0 0 -1 0 0 0 0];

internalField   nonuniform List<scalar> 
1745
(
0.0297496
0.0296677
0.0296266
0.0296266
0.0296675
0.0297496
0.0298723
0.0300357
0.0348569
0.0343017
0.0337826
0.0332989
0.0328515
0.0324417
0.0320704
0.0317385
0.0314465
0.0311952
0.030985
0.0308163
0.0306896
0.030605
0.0305626
0.0305625
0.0306049
0.0306895
0.0308162
0.0309848
0.0311949
0.0359467
0.0353769
0.0348438
0.0343468
0.033887
0.0334655
0.0330836
0.032742
0.0324415
0.0321827
0.0319661
0.0317924
0.0316618
0.0315746
0.0315309
0.0315308
0.0315744
0.0316616
0.0317921
0.0319658
0.0321822
0.0370674
0.036483
0.0359359
0.0354257
0.0349535
0.0345204
0.034128
0.0337768
0.0334678
0.0332016
0.0329789
0.0328002
0.0326658
0.032576
0.0325311
0.032531
0.0325758
0.0326656
0.0327999
0.0329786
0.0332012
0.0382194
0.0376202
0.0370592
0.0365358
0.0360512
0.0356066
0.0352036
0.034843
0.0345256
0.0342521
0.0340232
0.0338395
0.0337014
0.0336091
0.0335629
0.0335628
0.0336089
0.0337011
0.0338392
0.0340229
0.0342517
0.0394033
0.0387893
0.0382141
0.0376773
0.0371803
0.0367243
0.0363107
0.0359406
0.0356148
0.035334
0.035099
0.0349104
0.0347686
0.0346738
0.0346263
0.0346262
0.0346736
0.0347683
0.0349101
0.0350987
0.0353336
0.0406197
0.0399907
0.0394012
0.0388509
0.0383414
0.0378738
0.0374497
0.03707
0.0367357
0.0364476
0.0362066
0.036013
0.0358675
0.0357703
0.0357215
0.0357214
0.0357701
0.0358672
0.0360128
0.0362062
0.0364473
0.0418696
0.0412252
0.0406212
0.0400573
0.039535
0.0390558
0.038621
0.0382316
0.0378889
0.0375935
0.0373463
0.0371478
0.0369985
0.0368988
0.0368488
0.0368488
0.0368986
0.0369982
0.0371475
0.0373459
0.0375931
0.0378885
0.0431539
0.0424939
0.0418751
0.0412972
0.040762
0.0402709
0.0398253
0.0394262
0.0390749
0.0387721
0.0385187
0.0383152
0.0381622
0.03806
0.0380088
0.0380087
0.0380598
0.0381619
0.0383149
0.0385184
0.0387717
0.0390745
0.0444739
0.0437977
0.0431637
0.0425716
0.0420232
0.0415201
0.0410634
0.0406545
0.0402945
0.0399842
0.0397245
0.039516
0.0393591
0.0392544
0.0392019
0.0392018
0.0392542
0.0393589
0.0395157
0.0397242
0.0399838
0.0402941
0.040654
0.0410628
0.0415195
0.0420228
0.0425713
0.0431634
0.0437975
0.0444735
0.0458306
0.0451379
0.0444883
0.0438817
0.0433198
0.0428042
0.0423364
0.0419174
0.0415485
0.0412306
0.0409645
0.0407509
0.0405901
0.0404828
0.040429
0.040429
0.0404826
0.0405899
0.0407506
0.0409642
0.0412302
0.0415482
0.041917
0.0423358
0.0428037
0.0433194
0.0438814
0.0444881
0.0451377
0.0458302
0.0472256
0.0465158
0.0458501
0.0452286
0.0446528
0.0441246
0.0436453
0.043216
0.042838
0.0425124
0.0422398
0.0420209
0.0418562
0.0417462
0.0416912
0.0416912
0.0417461
0.0418559
0.0420205
0.0422393
0.042512
0.0428378
0.0432156
0.0436448
0.0441242
0.0446526
0.0452284
0.04585
0.0465156
0.0472251
0.0486602
0.0479328
0.0472506
0.0466137
0.0460238
0.0454825
0.0449913
0.0445515
0.0441643
0.0438306
0.0435514
0.0433271
0.0431584
0.0430458
0.0429893
0.0429893
0.0430456
0.0431581
0.0433267
0.0435509
0.0438303
0.044164
0.0445512
0.0449909
0.0454821
0.0460235
0.0466135
0.0472505
0.0479326
0.0486598
0.0501362
0.0493906
0.0486913
0.0480385
0.047434
0.0468793
0.0463759
0.0459253
0.0455285
0.0451866
0.0449006
0.0446708
0.0444981
0.0443826
0.0443248
0.0443248
0.0443825
0.0444977
0.0446704
0.0449002
0.0451863
0.0455283
0.045925
0.0463756
0.046879
0.0474338
0.0480384
0.0486913
0.0493903
0.0501357
0.0516554
0.0508909
0.0501739
0.0495047
0.048885
0.0483165
0.0478006
0.0473388
0.0469321
0.0465819
0.0462888
0.0460534
0.0458764
0.0457582
0.045699
0.0456989
0.0457581
0.0458761
0.046053
0.0462884
0.0465817
0.0469321
0.0473385
0.0478003
0.0483162
0.0488849
0.0495046
0.0501739
0.0508906
0.0516548
0.0532195
0.0524354
0.0517003
0.051014
0.0503787
0.0497958
0.049267
0.0487936
0.0483769
0.048018
0.0477177
0.0474765
0.0472951
0.047174
0.0471133
0.0471132
0.0471738
0.0472948
0.0474761
0.0477173
0.0480178
0.0483769
0.0487934
0.0492668
0.0497956
0.0503786
0.051014
0.0517002
0.0524351
0.0532189
0.0548306
0.0540263
0.0532722
0.0525684
0.0519168
0.0513191
0.0507769
0.0502916
0.0498645
0.0494966
0.0491888
0.0489416
0.0487557
0.0486316
0.0485694
0.0485693
0.0486315
0.0487555
0.0489413
0.0491884
0.0494964
0.0498645
0.0502915
0.0507768
0.0513189
0.0519167
0.0525683
0.0532721
0.054026
0.0548301
0.056491
0.0556657
0.0548919
0.0541698
0.0535014
0.0528884
0.0523323
0.0518347
0.0513968
0.0510196
0.050704
0.0504507
0.0502602
0.0501329
0.0500693
0.0500692
0.0501328
0.05026
0.0504504
0.0507037
0.0510194
0.0513967
0.0518346
0.0523322
0.0528882
0.0535013
0.0541697
0.0548918
0.0556653
0.0564905
0.058203
0.0573558
0.0565616
0.0558206
0.0551347
0.0545058
0.0539352
0.0534248
0.0529758
0.052589
0.0522654
0.0520056
0.0518104
0.0516799
0.0516147
0.0516145
0.0516798
0.0518102
0.0520054
0.0522651
0.0525888
0.0529757
0.0534248
0.0539352
0.0545056
0.0551346
0.0558204
0.0565614
0.0573555
0.0582025
0.0599691
0.0590991
0.0582836
0.057523
0.0568189
0.0561734
0.055588
0.0550644
0.0546036
0.0542069
0.053875
0.0536086
0.0534084
0.0532747
0.0532077
0.0532076
0.0532745
0.0534082
0.0536084
0.0538747
0.0542068
0.0546036
0.0550643
0.0555879
0.0561733
0.0568188
0.0575227
0.0582835
0.0590988
0.0599685
0.0617919
0.0608982
0.0600606
0.0592795
0.0585566
0.0578939
0.057293
0.0567555
0.0562827
0.0558757
0.0555352
0.055262
0.0550565
0.0549194
0.0548507
0.0548506
0.0549192
0.0550564
0.0552617
0.0555349
0.0558755
0.0562827
0.0567555
0.0572929
0.0578937
0.0585564
0.0592792
0.0600605
0.0608979
0.0617914
0.0636743
0.0627559
0.0618953
0.0610928
0.0603503
0.0596697
0.0590527
0.058501
0.0580156
0.0575979
0.0572484
0.056968
0.0567573
0.0566165
0.0565461
0.0565459
0.0566163
0.0567571
0.0569678
0.0572481
0.0575977
0.0580156
0.0585009
0.0590527
0.0596696
0.0603501
0.0610926
0.0618951
0.0627556
0.0636738
0.0656194
0.0646751
0.0637905
0.0629658
0.0622029
0.0615037
0.06087
0.0603034
0.0598049
0.0593761
0.0590173
0.0587295
0.0585131
0.0583687
0.0582964
0.0582963
0.0583685
0.058513
0.0587292
0.059017
0.0593759
0.0598049
0.0603032
0.06087
0.0615036
0.0622028
0.0629656
0.0637904
0.0646749
0.0656189
0.0676303
0.0666591
0.0657495
0.0649016
0.0641175
0.0633989
0.0627477
0.0621656
0.0616536
0.0612131
0.0608447
0.0605492
0.060327
0.0601787
0.0601044
0.0601044
0.0601785
0.0603268
0.0605488
0.0608443
0.0612129
0.0616536
0.0621655
0.0627477
0.0633988
0.0641174
0.0649014
0.0657494
0.0666589
0.0676298
0.0697105
0.0687112
0.0677755
0.0669035
0.0660972
0.0653585
0.0646891
0.0640908
0.0635647
0.063112
0.0627336
0.0624301
0.0622018
0.0620495
0.0619732
0.0619732
0.0620493
0.0622016
0.0624296
0.0627332
0.0631118
0.0635646
0.0640906
0.064689
0.0653583
0.0660971
0.0669033
0.0677754
0.068711
0.0697101
0.0718637
0.070835
0.0698721
0.068975
0.0681455
0.0673858
0.0666975
0.0660823
0.0655414
0.0650761
0.0646872
0.0643753
0.0641408
0.0639843
0.0639058
0.0639059
0.0639841
0.0641406
0.0643748
0.0646869
0.0650759
0.0655413
0.0660821
0.0666973
0.0673856
0.0681454
0.0689748
0.0698719
0.0708348
0.0718632
0.0740937
0.0730344
0.0720431
0.0711197
0.0702661
0.0694844
0.0687764
0.0681435
0.0675874
0.0671089
0.066709
0.0663884
0.0661473
0.0659865
0.0659058
0.0659059
0.0659863
0.0661471
0.0663879
0.0667087
0.0671087
0.0675872
0.0681433
0.0687761
0.0694842
0.070266
0.0711195
0.0720429
0.0730342
0.0740933
0.0764048
0.0753135
0.0742925
0.0733417
0.0724629
0.0716583
0.0709296
0.0702784
0.0697062
0.069214
0.0688027
0.0684729
0.0682251
0.0680597
0.0679767
0.0679768
0.0680595
0.0682248
0.0684725
0.0688024
0.0692138
0.069706
0.0702782
0.0709293
0.0716579
0.0724627
0.0733415
0.0742923
0.0753132
0.0764044
0.0788014
0.0776766
0.0766246
0.0756452
0.07474
0.0739115
0.0731613
0.0724909
0.0719019
0.0713954
0.0709722
0.0706328
0.0703779
0.0702077
0.0701225
0.0701225
0.0702076
0.0703776
0.0706325
0.0709719
0.0713951
0.0719017
0.0724907
0.0731609
0.0739111
0.0747398
0.0756449
0.0766245
0.0776764
0.078801
0.0812883
0.0801285
0.0790441
0.0780347
0.077102
0.0762485
0.0754758
0.0747853
0.0741789
0.0736574
0.0732217
0.0728724
0.07261
0.0724349
0.0723472
0.0723472
0.0724347
0.0726098
0.0728721
0.0732213
0.0736571
0.0741786
0.0747851
0.0754753
0.0762481
0.0771018
0.0780344
0.0790439
0.0801283
0.0812879
0.0838706
0.0826741
0.0815558
0.0805151
0.0795537
0.078674
0.0778777
0.0771663
0.0765417
0.0760045
0.0755558
0.075196
0.0749259
0.0747455
0.0746553
0.0746552
0.0747454
0.0749256
0.0751957
0.0755554
0.0760042
0.0765413
0.0771661
0.0778772
0.0786735
0.0795534
0.0805147
0.0815556
0.0826739
0.0838701
0.0865537
0.0853188
0.0841651
0.0830916
0.0821001
0.081193
0.0803721
0.0796389
0.0789951
0.0784415
0.0779792
0.0776085
0.0773302
0.0771444
0.0770516
0.0770515
0.0771444
0.07733
0.0776083
0.0779788
0.0784412
0.0789948
0.0796386
0.0803715
0.0811926
0.0820998
0.0830912
0.0841649
0.0853186
0.0865532
0.0893434
0.0880684
0.0868775
0.0857697
0.0847468
0.0838111
0.0829643
0.0822083
0.0815445
0.0809737
0.0804971
0.0801151
0.0798283
0.0796368
0.0795411
0.079541
0.0796368
0.0798281
0.0801149
0.0804968
0.0809734
0.0815441
0.082208
0.0829638
0.0838106
0.0847464
0.0857694
0.0868773
0.0880681
0.089343
0.0922461
0.090929
0.0896992
0.0885555
0.0874997
0.086534
0.0856602
0.0848802
0.0841955
0.0836067
0.0831151
0.0827212
0.0824254
0.082228
0.0821294
0.0821293
0.082228
0.0824253
0.082721
0.0831148
0.0836064
0.084195
0.0848798
0.0856597
0.0865334
0.0874993
0.0885552
0.089699
0.0909287
0.0922458
0.0952685
0.0939072
0.0926367
0.0914554
0.090365
0.0893679
0.0884659
0.0876608
0.0869541
0.0863465
0.0858393
0.0854329
0.0851277
0.084924
0.0848223
0.0848222
0.084924
0.0851276
0.0854326
0.085839
0.0863461
0.0869536
0.0984178
0.0970101
0.0956969
0.0944762
0.0933497
0.0923196
0.0913879
0.0905566
0.0898268
0.0891995
0.0886759
0.0882564
0.0879413
0.0877311
0.0876261
0.087626
0.0877311
0.0879413
0.0882561
0.0886756
0.0891991
0.0898263
0.101702
0.100246
0.0988875
0.0976253
0.0964609
0.0953964
0.0944336
0.0935746
0.0928207
0.0921727
0.0916318
0.0911986
0.0908732
0.0906561
0.0905477
0.105129
0.103622
0.102217
0.100911
0.0997067
0.0986059
0.0976105
0.0967225
0.0959433
0.0952735
0.0947145
0.0942669
0.0320705
0.0324418
0.0328515
0.0332988
0.0337827
0.0343018
0.034857
0.0321824
0.0324413
0.0327418
0.0330836
0.0334656
0.0338869
0.0343467
0.0348439
0.035377
0.0359468
0.0332014
0.0334676
0.0337766
0.0341279
0.0345205
0.0349534
0.0354256
0.035936
0.0364831
0.0370674
0.0342518
0.0345253
0.0348428
0.0352036
0.0356067
0.0360511
0.0365357
0.0370593
0.0376204
0.0382194
0.0353338
0.0356145
0.0359404
0.0363106
0.0367242
0.0371802
0.0376773
0.0382142
0.0387894
0.0394032
0.0364475
0.0367355
0.0370698
0.0374495
0.0378737
0.0383413
0.0388509
0.0394013
0.0399907
0.0406197
0.0375933
0.0378888
0.0382314
0.0386208
0.0390557
0.0395349
0.0400573
0.0406214
0.0412253
0.0418696
0.038772
0.0390748
0.0394261
0.0398251
0.0402708
0.040762
0.0412973
0.0418752
0.0424941
0.043154
0.0399841
0.0402944
0.0406544
0.0410633
0.04152
0.0420233
0.0425717
0.0431639
0.0437979
0.0444739
0.0412305
0.0415485
0.0419174
0.0423363
0.0428042
0.0433199
0.0438818
0.0444885
0.0451381
0.0458307
0.0425123
0.0428381
0.043216
0.0436452
0.0441246
0.044653
0.0452288
0.0458505
0.0465161
0.0472256
0.0438306
0.0441644
0.0445516
0.0449914
0.0454826
0.046024
0.046614
0.047251
0.0479331
0.0486603
0.0451867
0.0455287
0.0459254
0.046376
0.0468794
0.0474343
0.0480389
0.0486918
0.0493909
0.0501363
0.046582
0.0469324
0.0473389
0.0478008
0.0483167
0.0488854
0.0495051
0.0501744
0.0508911
0.0516554
0.0480181
0.0483772
0.0487938
0.0492672
0.049796
0.0503791
0.0510145
0.0517007
0.0524357
0.0532195
0.0494967
0.0498648
0.0502919
0.0507772
0.0513194
0.0519172
0.0525688
0.0532727
0.0540266
0.0548307
0.0510197
0.0513971
0.051835
0.0523326
0.0528887
0.0535018
0.0541702
0.0548923
0.0556659
0.0564911
0.0525891
0.0529761
0.0534252
0.0539356
0.0545061
0.0551351
0.0558209
0.056562
0.0573561
0.0582031
0.0542071
0.054604
0.0550647
0.0555883
0.0561738
0.0568193
0.0575233
0.058284
0.0590994
0.0599692
0.0558759
0.0562831
0.0567559
0.0572933
0.0578942
0.0585569
0.0592798
0.060061
0.0608985
0.061792
0.057598
0.058016
0.0585013
0.0590531
0.05967
0.0603507
0.0610931
0.0618957
0.0627562
0.0636745
0.0593762
0.0598053
0.0603036
0.0608704
0.0615041
0.0622033
0.0629661
0.063791
0.0646755
0.0656196
0.0612132
0.0616539
0.0621659
0.0627481
0.0633993
0.0641179
0.064902
0.0657499
0.0666595
0.0676305
0.0631121
0.063565
0.064091
0.0646895
0.0653588
0.0660976
0.0669039
0.0677759
0.0687116
0.0697107
0.0650763
0.0655417
0.0660825
0.0666978
0.0673861
0.0681459
0.0689753
0.0698725
0.0708354
0.0718639
0.067109
0.0675875
0.0681438
0.0687766
0.0694846
0.0702665
0.07112
0.0720435
0.0730348
0.0740939
0.0692141
0.0697064
0.0702786
0.0709298
0.0716584
0.0724632
0.073342
0.0742929
0.0753138
0.076405
0.0713955
0.0719021
0.0724911
0.0731614
0.0739116
0.0747404
0.0756454
0.076625
0.077677
0.0788016
0.0736574
0.074179
0.0747856
0.0754758
0.0762485
0.0771023
0.0780349
0.0790444
0.0801288
0.0812885
0.0760045
0.0765417
0.0771666
0.0778776
0.078674
0.0795539
0.0805153
0.0815561
0.0826744
0.0838708
0.0784415
0.0789952
0.0796391
0.080372
0.0811931
0.0821003
0.0830917
0.0841654
0.0853191
0.0865538
0.0809738
0.0815445
0.0822084
0.0829643
0.0838111
0.084747
0.0857699
0.0868779
0.0880687
0.0893436
0.0836068
0.0841954
0.0848803
0.0856602
0.0865339
0.0874998
0.0885557
0.0896995
0.0909292
0.0922464
0.0863465
0.086954
0.0876609
0.0884658
0.0893679
0.0903651
0.0914555
0.092637
0.0939074
0.0952688
0.0891995
0.0898267
0.0905567
0.0913879
0.0923196
0.0933497
0.0944763
0.0956972
0.0970103
0.0984181
0.0921727
0.0928206
0.0935747
0.0944336
0.0953963
0.0964609
0.0976255
0.0988877
0.100246
0.101702
0.0952736
0.0959431
0.0967226
0.0976105
0.0986058
0.0997067
0.100911
0.102217
0.103622
0.105129
0.0443243
0.0456984
0.0471127
0.0485688
0.0500686
0.051614
0.053207
0.05485
0.0565453
0.0582957
0.0601037
0.0619724
0.063905
0.065905
0.0679758
0.0701214
0.0723461
0.0746541
0.0770503
0.0795398
0.0821281
0.0443243
0.0456984
0.0471127
0.0485688
0.0500686
0.051614
0.053207
0.05485
0.0565453
0.0582956
0.0601037
0.0619724
0.0639051
0.0659051
0.0679759
0.0701216
0.0723462
0.0746542
0.0770504
0.0795399
0.0821281
0.044382
0.0457576
0.0471733
0.048631
0.0501323
0.0516793
0.053274
0.0549187
0.0566159
0.058368
0.060178
0.0620488
0.0639835
0.0659856
0.0680588
0.0702068
0.0724339
0.0747446
0.0771435
0.0796358
0.0822271
0.0444975
0.0458759
0.0472945
0.0487551
0.0502595
0.0518096
0.0534076
0.0550558
0.0567565
0.0585124
0.0603262
0.062201
0.06414
0.0661465
0.0682242
0.070377
0.0726091
0.074925
0.0773293
0.0798273
0.0824245
0.0446703
0.0460529
0.0474759
0.048941
0.05045
0.052005
0.053608
0.0552613
0.0569673
0.0587288
0.0605484
0.0624293
0.0643745
0.0663875
0.0684721
0.070632
0.0728715
0.0751952
0.0776077
0.0801142
0.0827204
0.040964
0.0422393
0.0435508
0.0449
0.0462882
0.047717
0.0491881
0.0507034
0.0522647
0.0538743
0.0555345
0.0572477
0.0590166
0.0608439
0.0627328
0.0646864
0.0667082
0.0688018
0.0709713
0.0732209
0.0755549
0.0779783
0.0804963
0.0831143
0.0399838
0.0412301
0.0425119
0.0438301
0.0451861
0.0465813
0.0480174
0.049496
0.0510189
0.0525882
0.0542061
0.0558749
0.0575971
0.0593753
0.0612123
0.0631113
0.0650753
0.0671081
0.0692132
0.0713946
0.0736566
0.0760037
0.0784408
0.080973
0.083606
0.040294
0.041548
0.0428375
0.0441637
0.0455279
0.0469315
0.0483763
0.0498638
0.0513961
0.052975
0.0546029
0.056282
0.0580149
0.0598042
0.0616529
0.063564
0.0655407
0.0675866
0.0697055
0.0719012
0.0741782
0.0765409
0.0789943
0.0815437
0.0841947
0.0406542
0.041917
0.0432156
0.044551
0.0459248
0.0473382
0.0487931
0.0502911
0.0518341
0.0534243
0.0550638
0.056755
0.0585004
0.0603028
0.062165
0.0640902
0.0660817
0.0681429
0.0702777
0.0724902
0.0747846
0.0771656
0.0796382
0.0822076
0.0848795
0.0410632
0.0423361
0.043645
0.044991
0.0463755
0.0478002
0.0492666
0.0507765
0.0523319
0.0539348
0.0555876
0.0572926
0.0590523
0.0608695
0.0627473
0.0646886
0.0666969
0.0687757
0.0709289
0.0731606
0.0754751
0.077877
0.0803715
0.0829637
0.0856596
0.0415198
0.042804
0.0441244
0.0454822
0.0468789
0.0483161
0.0497955
0.0513188
0.052888
0.0545053
0.056173
0.0578935
0.0596693
0.0615033
0.0633985
0.0653581
0.0673853
0.0694839
0.0716578
0.073911
0.076248
0.0786734
0.0811924
0.0838104
0.0865333
0.042023
0.0433196
0.0446527
0.0460235
0.0474337
0.0488847
0.0503783
0.0519165
0.0535011
0.0551343
0.0568186
0.0585562
0.0603499
0.0622025
0.0641171
0.0660967
0.0681451
0.0702656
0.0724624
0.0747395
0.0771016
0.0795532
0.0820996
0.0847462
0.0874991
0.0425714
0.0438814
0.0452283
0.0466134
0.0480382
0.0495044
0.0510137
0.0525681
0.0541695
0.0558202
0.0575225
0.059279
0.0610924
0.0629654
0.0649013
0.0669031
0.0689745
0.0711192
0.0733412
0.0756446
0.0780341
0.0805145
0.083091
0.0857691
0.0885548
0.0431633
0.0444879
0.0458498
0.0472502
0.0486909
0.0501735
0.0516998
0.0532718
0.0548914
0.0565611
0.0582831
0.06006
0.0618946
0.0637899
0.0657488
0.0677749
0.0698715
0.0720425
0.0742919
0.076624
0.0790434
0.0815551
0.0841643
0.0868767
0.0896984
0.0437974
0.0451375
0.0465154
0.0479325
0.0493903
0.0508905
0.052435
0.0540259
0.0556652
0.0573552
0.0590985
0.0608975
0.0627551
0.0646744
0.0666583
0.0687104
0.0708343
0.0730336
0.0753127
0.0776758
0.0801277
0.0826733
0.085318
0.0880676
0.0909282
0.0444735
0.0458302
0.0472252
0.0486598
0.0501357
0.0516548
0.0532189
0.05483
0.0564904
0.0582024
0.0599685
0.0617913
0.0636737
0.0656187
0.0676296
0.0697098
0.0718629
0.074093
0.0764041
0.0788007
0.0812876
0.0838699
0.086553
0.0893427
0.0922455
)
;

boundaryField
{
    inlet
    {
        type            cyclic;
    }
    outlet
    {
        type            cyclic;
    }
    wall
    {
        type            fixedValue;
        value           nonuniform 0();
    }
    procBoundary5to1
    {
        type            processor;
        value           nonuniform List<scalar> 10(0.084821 0.084821 0.0849231 0.0851268 0.085432 0.0858385 0.0863459 0.0869533 0.08766 0.0884653);
    }
    procBoundary5to2
    {
        type            processor;
        value           nonuniform List<scalar> 
28
(
0.0876604
0.0884654
0.0893674
0.0903646
0.091455
0.0926365
0.0939069
0.0952682
0.0876604
0.0905476
0.0906562
0.0908732
0.0911984
0.0916316
0.0921723
0.0905563
0.0928202
0.0939307
0.0937064
0.0905476
0.0935943
0.0939307
0.0893672
0.0903644
0.0914547
0.0926359
0.0939065
0.0952679
)
;
    }
    procBoundary5to3
    {
        type            processor;
        value           nonuniform List<scalar> 
22
(
0.108708
0.107147
0.105693
0.104341
0.103095
0.101957
0.100927
0.100009
0.0992027
0.0985101
0.0979321
0.0974693
0.0985102
0.0992025
0.100009
0.100927
0.101957
0.103095
0.104342
0.105693
0.107147
0.108708
)
;
    }
    procBoundary5to4
    {
        type            processor;
        value           nonuniform List<scalar> 
55
(
0.031966
0.0329787
0.034023
0.0350989
0.0362064
0.0373461
0.0385186
0.0397244
0.0409644
0.0422396
0.0435512
0.0449004
0.0462887
0.0477176
0.0491887
0.050704
0.0522654
0.053875
0.0555352
0.0572484
0.0590173
0.0608447
0.0627336
0.0646872
0.066709
0.0688027
0.0709722
0.0732217
0.0755558
0.0779792
0.0804971
0.0831152
0.0858394
0.088676
0.091632
0.0947147
0.0471733
0.048631
0.0501323
0.0516793
0.053274
0.0549186
0.0566158
0.058368
0.0601779
0.0620487
0.0639834
0.0659855
0.0680586
0.0702066
0.0724338
0.0747445
0.0771434
0.0796358
0.082227
)
;
    }
    procBoundary5to6
    {
        type            processor;
        value           nonuniform List<scalar> 
31
(
0.0288426
0.0287633
0.0287236
0.0287236
0.0287632
0.0288425
0.0289612
0.0337978
0.0332572
0.0327522
0.0322819
0.0318472
0.0314491
0.0310887
0.0307666
0.0304834
0.0302397
0.0300359
0.0298724
0.0298724
0.0310888
0.0314492
0.0318472
0.0322819
0.0327523
0.0332573
0.0337979
0.0311952
0.0314465
0.0317384
0.0317384
)
;
    }
    procBoundary5to7
    {
        type            processor;
        value           nonuniform List<scalar> 
42
(
0.0291193
0.0302395
0.0302395
0.0314463
0.0324412
0.0334674
0.0345251
0.0356143
0.0367353
0.0367353
0.0382311
0.0394256
0.0394256
0.0398247
0.0402704
0.0407616
0.0412969
0.0418748
0.0424936
0.0431536
0.044382
0.0457575
0.0429889
0.0429889
0.0430452
0.0431579
0.0407504
0.0420203
0.0433266
0.0433266
0.039724
0.039724
0.0387718
0.0390745
0.039426
0.0398251
0.0402707
0.0407618
0.041297
0.0418747
0.0424936
0.0431536
)
;
    }
}


// ************************************************************************* //
