/*--------------------------------*- C++ -*----------------------------------*\
  =========                 |
  \\      /  F ield         | OpenFOAM: The Open Source CFD Toolbox
   \\    /   O peration     | Website:  https://openfoam.org
    \\  /    A nd           | Version:  7
     \\/     M anipulation  |
\*---------------------------------------------------------------------------*/
FoamFile
{
    version     2.0;
    format      ascii;
    class       volScalarField;
    location    "8000";
    object      p;
}
// * * * * * * * * * * * * * * * * * * * * * * * * * * * * * * * * * * * * * //

dimensions      [0 2 -2 0 0 0 0];

internalField   nonuniform List<scalar> 
4782
(
-5.0919e-18
-5.09391e-18
-5.09566e-18
-5.09716e-18
-5.09899e-18
-5.0963e-18
-5.09501e-18
-5.09625e-18
-5.0972e-18
-5.09617e-18
-5.07853e-18
-5.078e-18
-5.10302e-18
-5.10564e-18
-5.09884e-18
-5.12377e-18
-5.10859e-18
-5.07955e-18
-5.08385e-18
-5.07853e-18
-5.08365e-18
-5.0946e-18
-5.09709e-18
-5.09197e-18
-5.08557e-18
-5.09221e-18
-5.09312e-18
-5.08728e-18
-5.08469e-18
-5.0737e-18
-5.08318e-18
-5.10723e-18
-5.12256e-18
-5.09542e-18
-5.08478e-18
-5.07185e-18
-5.074e-18
-5.09218e-18
-5.1022e-18
-5.09339e-18
-5.08254e-18
-5.08355e-18
-5.10381e-18
-5.10038e-18
-5.09747e-18
-5.08919e-18
-5.09551e-18
-5.10266e-18
-5.09016e-18
-5.09149e-18
-5.10539e-18
-5.09317e-18
-5.09156e-18
-5.10969e-18
-5.10956e-18
-5.09189e-18
-5.08583e-18
-5.08382e-18
-5.09625e-18
-5.09729e-18
-5.09569e-18
-5.09411e-18
-5.09164e-18
-5.09125e-18
-5.09446e-18
-5.14013e-18
-5.14222e-18
-5.13149e-18
-5.12739e-18
-5.12771e-18
-5.13129e-18
-5.13834e-18
-5.13254e-18
-5.12534e-18
-5.14419e-18
-5.12223e-18
-5.11833e-18
-5.11801e-18
-5.11184e-18
-5.10283e-18
-5.12114e-18
-5.13071e-18
-5.12982e-18
-5.10954e-18
-5.11147e-18
-5.10554e-18
-5.11201e-18
-5.10697e-18
-5.0982e-18
-5.09766e-18
-5.10376e-18
-5.09673e-18
-5.07834e-18
-5.09804e-18
-5.10791e-18
-5.09704e-18
-5.09728e-18
-5.10746e-18
-5.10149e-18
-5.0917e-18
-5.08945e-18
-5.10804e-18
-5.11618e-18
-5.10512e-18
-5.10129e-18
-5.09424e-18
-5.10466e-18
-5.09204e-18
-5.10094e-18
-5.09216e-18
-5.0989e-18
-5.10359e-18
-5.09978e-18
-5.09756e-18
-5.09837e-18
-5.09826e-18
-5.09969e-18
-5.0979e-18
-5.09654e-18
-5.09655e-18
-5.10444e-18
-5.0719e-18
-5.08602e-18
-5.08268e-18
-5.07348e-18
-5.07745e-18
-5.08078e-18
-5.09337e-18
-5.11999e-18
-5.10403e-18
-5.0945e-18
-5.08631e-18
-5.06564e-18
-5.06099e-18
-5.08492e-18
-5.09463e-18
-5.09971e-18
-5.09619e-18
-5.09309e-18
-5.07692e-18
-5.08231e-18
-5.08248e-18
-5.09165e-18
-5.10043e-18
-5.10104e-18
-5.10571e-18
-5.09104e-18
-5.08909e-18
-5.08493e-18
-5.09045e-18
-5.10229e-18
-5.08934e-18
-5.09722e-18
-5.0917e-18
-5.08835e-18
-5.0821e-18
-5.10322e-18
-5.10032e-18
-5.09644e-18
-5.09604e-18
-5.09552e-18
-5.09376e-18
-5.09198e-18
-5.08451e-18
-5.08786e-18
-5.10021e-18
-5.09468e-18
-5.09378e-18
-5.09657e-18
-5.09258e-18
-5.09109e-18
-5.09336e-18
-5.09405e-18
-5.09434e-18
-5.0936e-18
-5.11529e-18
-5.13139e-18
-5.13378e-18
-5.1153e-18
-5.1106e-18
-5.09642e-18
-5.10615e-18
-5.12698e-18
-5.12669e-18
-5.12501e-18
-5.10849e-18
-5.10308e-18
-5.10927e-18
-5.12649e-18
-5.13185e-18
-5.12734e-18
-5.12366e-18
-5.12734e-18
-5.1146e-18
-5.1238e-18
-5.1301e-18
-5.12707e-18
-5.10341e-18
-5.10833e-18
-5.11698e-18
-5.11924e-18
-5.0967e-18
-5.10969e-18
-5.11297e-18
-5.12125e-18
-5.12093e-18
-5.10066e-18
-5.10075e-18
-5.12719e-18
-5.11035e-18
-5.09464e-18
-5.10568e-18
-5.11166e-18
-5.1094e-18
-5.11133e-18
-5.09902e-18
-5.08965e-18
-5.08764e-18
-5.08793e-18
-5.09956e-18
-5.10096e-18
-5.10823e-18
-5.10442e-18
-5.09532e-18
-5.09884e-18
-5.09866e-18
-5.09794e-18
-5.09743e-18
-5.09756e-18
-5.09811e-18
-5.12016e-18
-5.10823e-18
-5.10961e-18
-5.11121e-18
-5.11385e-18
-5.12017e-18
-5.11667e-18
-5.11811e-18
-5.09945e-18
-5.07792e-18
-5.09974e-18
-5.11773e-18
-5.11378e-18
-5.09331e-18
-5.08207e-18
-5.09268e-18
-5.10464e-18
-5.09473e-18
-5.10303e-18
-5.09716e-18
-5.1113e-18
-5.09834e-18
-5.11426e-18
-5.10896e-18
-5.10277e-18
-5.10717e-18
-5.12779e-18
-5.10413e-18
-5.09315e-18
-5.0937e-18
-5.09907e-18
-5.10005e-18
-5.10457e-18
-5.08141e-18
-5.09753e-18
-5.11217e-18
-5.10165e-18
-5.09778e-18
-5.09818e-18
-5.09889e-18
-5.09866e-18
-5.10044e-18
-5.10582e-18
-5.11253e-18
-5.09825e-18
-5.09731e-18
-5.08815e-18
-5.09087e-18
-5.09769e-18
-5.09485e-18
-5.09472e-18
-5.09519e-18
-5.09587e-18
-5.09618e-18
-5.09543e-18
-5.10718e-18
-5.11846e-18
-5.10842e-18
-5.11555e-18
-5.11834e-18
-5.1233e-18
-5.13364e-18
-5.123e-18
-5.09199e-18
-5.10362e-18
-5.12521e-18
-5.1286e-18
-5.14499e-18
-5.1519e-18
-5.13454e-18
-5.11559e-18
-5.10122e-18
-5.11083e-18
-5.11699e-18
-5.13303e-18
-5.12288e-18
-5.11707e-18
-5.1165e-18
-5.11602e-18
-5.11086e-18
-5.10263e-18
-5.11503e-18
-5.10816e-18
-5.11569e-18
-5.09996e-18
-5.09644e-18
-5.10866e-18
-5.11459e-18
-5.11854e-18
-5.11714e-18
-5.12012e-18
-5.10543e-18
-5.10333e-18
-5.10648e-18
-5.10685e-18
-5.10647e-18
-5.10531e-18
-5.1022e-18
-5.11353e-18
-5.104e-18
-5.09083e-18
-5.10211e-18
-5.10069e-18
-5.09707e-18
-5.09965e-18
-5.10144e-18
-5.09798e-18
-5.09884e-18
-5.09823e-18
-5.0989e-18
-5.09887e-18
-5.09803e-18
-5.09767e-18
-5.0982e-18
-5.11452e-18
-5.10617e-18
-5.09856e-18
-5.10542e-18
-5.10726e-18
-5.10142e-18
-5.09817e-18
-5.11365e-18
-5.10646e-18
-5.08019e-18
-5.10157e-18
-5.10426e-18
-5.10178e-18
-5.10176e-18
-5.11521e-18
-5.09968e-18
-5.09199e-18
-5.0951e-18
-5.10289e-18
-5.10357e-18
-5.11068e-18
-5.10559e-18
-5.11127e-18
-5.11749e-18
-5.10991e-18
-5.1052e-18
-5.1251e-18
-5.14065e-18
-5.11757e-18
-5.10202e-18
-5.10331e-18
-5.11242e-18
-5.1067e-18
-5.11435e-18
-5.13029e-18
-5.13065e-18
-5.10534e-18
-5.09652e-18
-5.1099e-18
-5.10294e-18
-5.10606e-18
-5.09981e-18
-5.10781e-18
-5.10102e-18
-5.10569e-18
-5.10369e-18
-5.09609e-18
-5.09809e-18
-5.09998e-18
-5.09697e-18
-5.09818e-18
-5.09646e-18
-5.09567e-18
-5.09626e-18
-5.09679e-18
-5.09646e-18
-5.09706e-18
-5.09727e-18
-5.0974e-18
-5.09656e-18
-5.12579e-18
-5.12894e-18
-5.12255e-18
-5.11973e-18
-5.13585e-18
-5.12157e-18
-5.13047e-18
-5.13363e-18
-5.12114e-18
-5.1053e-18
-5.10451e-18
-5.12037e-18
-5.13611e-18
-5.12718e-18
-5.12683e-18
-5.11933e-18
-5.11779e-18
-5.12266e-18
-5.12402e-18
-5.13347e-18
-5.12257e-18
-5.10016e-18
-5.08974e-18
-5.11344e-18
-5.11175e-18
-5.12846e-18
-5.13297e-18
-5.1111e-18
-5.09779e-18
-5.10539e-18
-5.11678e-18
-5.11655e-18
-5.0968e-18
-5.09904e-18
-5.1019e-18
-5.10773e-18
-5.0946e-18
-5.08637e-18
-5.10605e-18
-5.10679e-18
-5.093e-18
-5.10658e-18
-5.10709e-18
-5.09014e-18
-5.09139e-18
-5.1098e-18
-5.10994e-18
-5.10823e-18
-5.09998e-18
-5.10037e-18
-5.09956e-18
-5.0994e-18
-5.10086e-18
-5.10023e-18
-5.09933e-18
-5.09916e-18
-5.09923e-18
-5.10052e-18
-5.09977e-18
-5.09959e-18
-5.09883e-18
-5.09869e-18
-5.09897e-18
-5.09961e-18
-5.09939e-18
-5.09866e-18
-5.09905e-18
-5.09887e-18
-5.099e-18
-5.09895e-18
-5.09907e-18
-5.09926e-18
-5.09898e-18
-5.09905e-18
-5.09887e-18
-5.09895e-18
-5.09906e-18
-5.09918e-18
-5.09901e-18
-5.09902e-18
-5.09904e-18
-5.09894e-18
-5.09893e-18
-5.09897e-18
-5.09889e-18
-5.09902e-18
-5.09896e-18
-5.09889e-18
-5.09897e-18
-5.09902e-18
-5.09901e-18
-5.09897e-18
-5.09896e-18
-5.09894e-18
-5.09894e-18
-5.07482e-18
-5.09134e-18
-5.09752e-18
-5.09321e-18
-5.06593e-18
-5.07972e-18
-5.08635e-18
-5.09665e-18
-5.08728e-18
-5.08843e-18
-5.0882e-18
-5.08356e-18
-5.09276e-18
-5.10132e-18
-5.09729e-18
-5.09658e-18
-5.09558e-18
-5.08305e-18
-5.10334e-18
-5.11645e-18
-5.11059e-18
-5.10523e-18
-5.09802e-18
-5.09582e-18
-5.09542e-18
-5.09579e-18
-5.1005e-18
-5.11221e-18
-5.10693e-18
-5.09452e-18
-5.08865e-18
-5.09899e-18
-5.10081e-18
-5.1067e-18
-5.09951e-18
-5.10419e-18
-5.10945e-18
-5.10343e-18
-5.09312e-18
-5.08614e-18
-5.08899e-18
-5.09508e-18
-5.09205e-18
-5.09055e-18
-5.08865e-18
-5.09386e-18
-5.0928e-18
-5.09419e-18
-5.09402e-18
-5.09275e-18
-5.09561e-18
-5.09712e-18
-5.09589e-18
-5.09572e-18
-5.09672e-18
-5.09643e-18
-5.09686e-18
-5.09638e-18
-5.09658e-18
-5.09638e-18
-5.09628e-18
-5.0967e-18
-5.09645e-18
-5.09697e-18
-5.09771e-18
-5.09718e-18
-5.09685e-18
-5.09703e-18
-5.09688e-18
-5.09715e-18
-5.09725e-18
-5.09729e-18
-5.097e-18
-5.0969e-18
-5.09699e-18
-5.09704e-18
-5.097e-18
-5.09712e-18
-5.097e-18
-5.09704e-18
-5.0972e-18
-5.09702e-18
-5.09714e-18
-5.09717e-18
-5.09718e-18
-5.09707e-18
-5.09703e-18
-5.0971e-18
-5.09706e-18
-5.09712e-18
-5.09714e-18
-5.09707e-18
-5.09714e-18
-5.09715e-18
-5.09714e-18
-5.11913e-18
-5.13355e-18
-5.13954e-18
-5.12424e-18
-5.12304e-18
-5.11521e-18
-5.11753e-18
-5.13067e-18
-5.12369e-18
-5.1247e-18
-5.0996e-18
-5.09344e-18
-5.12682e-18
-5.13433e-18
-5.11802e-18
-5.09987e-18
-5.10643e-18
-5.11791e-18
-5.1016e-18
-5.10204e-18
-5.1044e-18
-5.10424e-18
-5.1008e-18
-5.09517e-18
-5.09983e-18
-5.09795e-18
-5.08827e-18
-5.09149e-18
-5.08871e-18
-5.10293e-18
-5.1005e-18
-5.09319e-18
-5.09514e-18
-5.09057e-18
-5.10109e-18
-5.12736e-18
-5.11074e-18
-5.10444e-18
-5.10249e-18
-5.10651e-18
-5.09944e-18
-5.10014e-18
-5.1058e-18
-5.10659e-18
-5.1024e-18
-5.099e-18
-5.08548e-18
-5.09008e-18
-5.09656e-18
-5.10437e-18
-5.09884e-18
-5.099e-18
-5.10066e-18
-5.10169e-18
-5.10074e-18
-5.0999e-18
-5.1006e-18
-5.1006e-18
-5.09999e-18
-5.10023e-18
-5.09938e-18
-5.09962e-18
-5.09983e-18
-5.09965e-18
-5.10006e-18
-5.10014e-18
-5.10027e-18
-5.10066e-18
-5.10053e-18
-5.10034e-18
-5.10007e-18
-5.09998e-18
-5.10014e-18
-5.10031e-18
-5.10045e-18
-5.10019e-18
-5.10021e-18
-5.1003e-18
-5.10037e-18
-5.10049e-18
-5.1004e-18
-5.10026e-18
-5.10023e-18
-5.10041e-18
-5.10035e-18
-5.10017e-18
-5.10019e-18
-5.10025e-18
-5.10026e-18
-5.10032e-18
-5.10033e-18
-5.10029e-18
-5.10025e-18
-5.1003e-18
-5.1003e-18
-5.08185e-18
-5.09258e-18
-5.08256e-18
-5.10217e-18
-5.08314e-18
-5.08104e-18
-5.09582e-18
-5.10054e-18
-5.11723e-18
-5.11298e-18
-5.0875e-18
-5.09022e-18
-5.1013e-18
-5.09742e-18
-5.08616e-18
-5.09749e-18
-5.09765e-18
-5.08898e-18
-5.10402e-18
-5.09866e-18
-5.0968e-18
-5.08622e-18
-5.08373e-18
-5.07683e-18
-5.0903e-18
-5.09427e-18
-5.07989e-18
-5.08616e-18
-5.09345e-18
-5.11023e-18
-5.09329e-18
-5.08794e-18
-5.08543e-18
-5.10197e-18
-5.09058e-18
-5.08349e-18
-5.09134e-18
-5.09698e-18
-5.11047e-18
-5.0923e-18
-5.0991e-18
-5.10154e-18
-5.10365e-18
-5.09716e-18
-5.09476e-18
-5.10279e-18
-5.10638e-18
-5.1028e-18
-5.09353e-18
-5.09647e-18
-5.09716e-18
-5.09807e-18
-5.0977e-18
-5.09859e-18
-5.09815e-18
-5.09706e-18
-5.09816e-18
-5.09759e-18
-5.09777e-18
-5.09823e-18
-5.09815e-18
-5.09738e-18
-5.09746e-18
-5.09786e-18
-5.09766e-18
-5.09797e-18
-5.09795e-18
-5.0978e-18
-5.09766e-18
-5.09797e-18
-5.09791e-18
-5.09784e-18
-5.09804e-18
-5.09786e-18
-5.09793e-18
-5.09803e-18
-5.09793e-18
-5.09796e-18
-5.09775e-18
-5.09785e-18
-5.09787e-18
-5.09805e-18
-5.09809e-18
-5.09804e-18
-5.09805e-18
-5.09801e-18
-5.09802e-18
-5.09798e-18
-5.09799e-18
-5.09803e-18
-5.09806e-18
-5.09805e-18
-5.09802e-18
-5.09803e-18
-5.09804e-18
-5.14997e-18
-5.12294e-18
-5.1078e-18
-5.10855e-18
-5.08406e-18
-5.10084e-18
-5.10325e-18
-5.09009e-18
-5.10794e-18
-5.1232e-18
-5.1068e-18
-5.10932e-18
-5.11662e-18
-5.11483e-18
-5.1149e-18
-5.10409e-18
-5.11133e-18
-5.11843e-18
-5.1002e-18
-5.10956e-18
-5.10945e-18
-5.11478e-18
-5.12317e-18
-5.10087e-18
-5.11403e-18
-5.10528e-18
-5.09374e-18
-5.10786e-18
-5.11121e-18
-5.12013e-18
-5.11531e-18
-5.10668e-18
-5.10349e-18
-5.10634e-18
-5.11139e-18
-5.10863e-18
-5.108e-18
-5.09926e-18
-5.10832e-18
-5.11759e-18
-5.08974e-18
-5.08918e-18
-5.10047e-18
-5.10387e-18
-5.10087e-18
-5.09616e-18
-5.1031e-18
-5.10234e-18
-5.09641e-18
-5.10291e-18
-5.10472e-18
-5.10216e-18
-5.10057e-18
-5.10209e-18
-5.10265e-18
-5.10168e-18
-5.10093e-18
-5.10154e-18
-5.1019e-18
-5.10126e-18
-5.1007e-18
-5.10097e-18
-5.10129e-18
-5.10113e-18
-5.10104e-18
-5.1009e-18
-5.1009e-18
-5.10105e-18
-5.10112e-18
-5.101e-18
-5.10089e-18
-5.10113e-18
-5.1012e-18
-5.1009e-18
-5.1011e-18
-5.101e-18
-5.10113e-18
-5.10118e-18
-5.10124e-18
-5.10114e-18
-5.10127e-18
-5.10116e-18
-5.10106e-18
-5.10115e-18
-5.10125e-18
-5.10113e-18
-5.101e-18
-5.10112e-18
-5.10111e-18
-5.10111e-18
-5.10116e-18
-5.10116e-18
-5.10115e-18
-5.10114e-18
-5.10114e-18
-5.09348e-18
-5.10469e-18
-5.10854e-18
-5.09898e-18
-5.07365e-18
-5.08803e-18
-5.10039e-18
-5.09183e-18
-5.09096e-18
-5.10507e-18
-5.06298e-18
-5.0748e-18
-5.07589e-18
-5.07704e-18
-5.083e-18
-5.07798e-18
-5.08096e-18
-5.08846e-18
-5.07543e-18
-5.0812e-18
-5.0832e-18
-5.07838e-18
-5.0842e-18
-5.08231e-18
-5.07125e-18
-5.0773e-18
-5.08586e-18
-5.09158e-18
-5.09325e-18
-5.0812e-18
-5.08812e-18
-5.09284e-18
-5.08807e-18
-5.07779e-18
-5.09983e-18
-5.11304e-18
-5.10363e-18
-5.08406e-18
-5.08637e-18
-5.09723e-18
-5.10443e-18
-5.10232e-18
-5.09982e-18
-5.09113e-18
-5.10562e-18
-5.0986e-18
-5.09922e-18
-5.10579e-18
-5.10672e-18
-5.10191e-18
-5.09526e-18
-5.09941e-18
-5.10102e-18
-5.10041e-18
-5.09921e-18
-5.09934e-18
-5.1002e-18
-5.09935e-18
-5.09902e-18
-5.09898e-18
-5.09849e-18
-5.09837e-18
-5.09914e-18
-5.09921e-18
-5.09877e-18
-5.0988e-18
-5.09896e-18
-5.09879e-18
-5.09887e-18
-5.09887e-18
-5.0988e-18
-5.09894e-18
-5.09892e-18
-5.09903e-18
-5.09895e-18
-5.09888e-18
-5.09884e-18
-5.09897e-18
-5.09896e-18
-5.09903e-18
-5.0988e-18
-5.09888e-18
-5.09901e-18
-5.09901e-18
-5.09891e-18
-5.09882e-18
-5.0989e-18
-5.099e-18
-5.09906e-18
-5.09896e-18
-5.09892e-18
-5.09892e-18
-5.09894e-18
-5.09894e-18
-5.09894e-18
-5.14685e-18
-5.14397e-18
-5.1467e-18
-5.12984e-18
-5.11161e-18
-5.14322e-18
-5.12933e-18
-5.12612e-18
-5.13681e-18
-5.12111e-18
-5.11096e-18
-5.12467e-18
-5.11451e-18
-5.10129e-18
-5.11778e-18
-5.11887e-18
-5.12018e-18
-5.12481e-18
-5.11503e-18
-5.1087e-18
-5.1226e-18
-5.13163e-18
-5.11996e-18
-5.1141e-18
-5.10455e-18
-5.1243e-18
-5.12285e-18
-5.11433e-18
-5.11087e-18
-5.10961e-18
-5.10561e-18
-5.09758e-18
-5.10423e-18
-5.09155e-18
-5.10567e-18
-5.11286e-18
-5.09583e-18
-5.09066e-18
-5.09846e-18
-5.11041e-18
-5.12068e-18
-5.10727e-18
-5.09212e-18
-5.09972e-18
-5.11252e-18
-5.09791e-18
-5.10603e-18
-5.10509e-18
-5.10121e-18
-5.10272e-18
-5.10343e-18
-5.10328e-18
-5.10246e-18
-5.10237e-18
-5.10198e-18
-5.10215e-18
-5.10117e-18
-5.1014e-18
-5.10201e-18
-5.10222e-18
-5.10191e-18
-5.10236e-18
-5.10196e-18
-5.10144e-18
-5.10102e-18
-5.10146e-18
-5.10166e-18
-5.10153e-18
-5.10166e-18
-5.10189e-18
-5.10167e-18
-5.1017e-18
-5.1015e-18
-5.10158e-18
-5.10155e-18
-5.10145e-18
-5.10156e-18
-5.10161e-18
-5.10169e-18
-5.10162e-18
-5.10158e-18
-5.10157e-18
-5.10156e-18
-5.10148e-18
-5.10133e-18
-5.10145e-18
-5.10149e-18
-5.10148e-18
-5.10156e-18
-5.10148e-18
-5.10147e-18
-5.10149e-18
-5.10146e-18
-5.10145e-18
-5.10145e-18
-5.07617e-18
-5.07415e-18
-5.08915e-18
-5.10002e-18
-5.10984e-18
-5.09388e-18
-5.10117e-18
-5.07729e-18
-5.0912e-18
-5.10505e-18
-5.08665e-18
-5.10608e-18
-5.09389e-18
-5.08621e-18
-5.1123e-18
-5.0976e-18
-5.10595e-18
-5.11194e-18
-5.09497e-18
-5.09099e-18
-5.07366e-18
-5.09039e-18
-5.08514e-18
-5.08475e-18
-5.09117e-18
-5.0839e-18
-5.06965e-18
-5.09447e-18
-5.08728e-18
-5.09826e-18
-5.09557e-18
-5.08363e-18
-5.0793e-18
-5.09258e-18
-5.09525e-18
-5.10811e-18
-5.09698e-18
-5.10158e-18
-5.09125e-18
-5.09147e-18
-5.09348e-18
-5.09365e-18
-5.0945e-18
-5.10739e-18
-5.0983e-18
-5.08786e-18
-5.08768e-18
-5.09287e-18
-5.09658e-18
-5.09623e-18
-5.09611e-18
-5.09584e-18
-5.09471e-18
-5.09672e-18
-5.09837e-18
-5.09804e-18
-5.09766e-18
-5.09735e-18
-5.0976e-18
-5.0975e-18
-5.09775e-18
-5.09816e-18
-5.09811e-18
-5.09811e-18
-5.09771e-18
-5.09766e-18
-5.09792e-18
-5.09815e-18
-5.09821e-18
-5.09796e-18
-5.09784e-18
-5.09833e-18
-5.09812e-18
-5.09786e-18
-5.098e-18
-5.09808e-18
-5.09807e-18
-5.09804e-18
-5.09823e-18
-5.09824e-18
-5.09796e-18
-5.09798e-18
-5.0981e-18
-5.09813e-18
-5.09812e-18
-5.09813e-18
-5.09815e-18
-5.09814e-18
-5.09812e-18
-5.09816e-18
-5.09816e-18
-5.09819e-18
-5.09816e-18
-5.09817e-18
-5.09816e-18
-5.12022e-18
-5.13289e-18
-5.13151e-18
-5.11813e-18
-5.11568e-18
-5.12839e-18
-5.14176e-18
-5.11424e-18
-5.11281e-18
-5.1179e-18
-5.11122e-18
-5.09672e-18
-5.09453e-18
-5.11252e-18
-5.10567e-18
-5.10638e-18
-5.09571e-18
-5.08771e-18
-5.11232e-18
-5.11422e-18
-5.10995e-18
-5.10742e-18
-5.11631e-18
-5.10816e-18
-5.09182e-18
-5.09365e-18
-5.10401e-18
-5.12382e-18
-5.11623e-18
-5.11022e-18
-5.109e-18
-5.10844e-18
-5.10907e-18
-5.11261e-18
-5.11525e-18
-5.10406e-18
-5.11863e-18
-5.10342e-18
-5.0986e-18
-5.10818e-18
-5.10734e-18
-5.10832e-18
-5.10668e-18
-5.11313e-18
-5.10851e-18
-5.08493e-18
-5.10583e-18
-5.10832e-18
-5.10071e-18
-5.09687e-18
-5.09976e-18
-5.09981e-18
-5.10132e-18
-5.10003e-18
-5.10085e-18
-5.10076e-18
-5.1015e-18
-5.10136e-18
-5.1013e-18
-5.10106e-18
-5.10098e-18
-5.10085e-18
-5.10148e-18
-5.10163e-18
-5.10126e-18
-5.10158e-18
-5.10159e-18
-5.10143e-18
-5.10147e-18
-5.10142e-18
-5.10134e-18
-5.10105e-18
-5.10105e-18
-5.10105e-18
-5.10126e-18
-5.10142e-18
-5.1014e-18
-5.10143e-18
-5.10157e-18
-5.10152e-18
-5.10159e-18
-5.10138e-18
-5.10139e-18
-5.10146e-18
-5.10143e-18
-5.10137e-18
-5.1013e-18
-5.10137e-18
-5.1014e-18
-5.10141e-18
-5.10138e-18
-5.1014e-18
-5.10141e-18
-5.10141e-18
-5.1014e-18
-5.08903e-18
-5.11044e-18
-5.10342e-18
-5.09512e-18
-5.08422e-18
-5.07891e-18
-5.09959e-18
-5.1173e-18
-5.11708e-18
-5.09841e-18
-5.10399e-18
-5.10919e-18
-5.10946e-18
-5.09385e-18
-5.08947e-18
-5.09325e-18
-5.10454e-18
-5.08563e-18
-5.09472e-18
-5.08208e-18
-5.08605e-18
-5.0976e-18
-5.09911e-18
-5.07979e-18
-5.0852e-18
-5.10424e-18
-5.11011e-18
-5.08867e-18
-5.07943e-18
-5.0948e-18
-5.09587e-18
-5.09156e-18
-5.08235e-18
-5.07671e-18
-5.08466e-18
-5.084e-18
-5.08467e-18
-5.08727e-18
-5.08181e-18
-5.07769e-18
-5.08396e-18
-5.07945e-18
-5.08697e-18
-5.08849e-18
-5.09726e-18
-5.09192e-18
-5.08762e-18
-5.08564e-18
-5.0972e-18
-5.09969e-18
-5.09548e-18
-5.09281e-18
-5.09544e-18
-5.09699e-18
-5.09803e-18
-5.09715e-18
-5.0967e-18
-5.09588e-18
-5.09613e-18
-5.09689e-18
-5.09633e-18
-5.09696e-18
-5.0969e-18
-5.09664e-18
-5.09699e-18
-5.09707e-18
-5.09703e-18
-5.09698e-18
-5.09705e-18
-5.0972e-18
-5.09703e-18
-5.09686e-18
-5.09707e-18
-5.09704e-18
-5.097e-18
-5.09719e-18
-5.09738e-18
-5.09741e-18
-5.09715e-18
-5.09717e-18
-5.09728e-18
-5.09718e-18
-5.09718e-18
-5.09729e-18
-5.09731e-18
-5.09723e-18
-5.09721e-18
-5.09725e-18
-5.09734e-18
-5.09737e-18
-5.09734e-18
-5.09727e-18
-5.09732e-18
-5.09735e-18
-5.09734e-18
-5.13862e-18
-5.14039e-18
-5.10888e-18
-5.10819e-18
-5.1132e-18
-5.10536e-18
-5.1005e-18
-5.12053e-18
-5.11101e-18
-5.11013e-18
-5.11503e-18
-5.1288e-18
-5.13357e-18
-5.11272e-18
-5.10173e-18
-5.09667e-18
-5.10723e-18
-5.10899e-18
-5.10907e-18
-5.12265e-18
-5.11565e-18
-5.1117e-18
-5.11504e-18
-5.11502e-18
-5.11345e-18
-5.11527e-18
-5.1121e-18
-5.1258e-18
-5.10646e-18
-5.1009e-18
-5.09686e-18
-5.10919e-18
-5.10905e-18
-5.11689e-18
-5.10479e-18
-5.10493e-18
-5.11528e-18
-5.09804e-18
-5.09912e-18
-5.11065e-18
-5.10892e-18
-5.10533e-18
-5.10604e-18
-5.11068e-18
-5.10797e-18
-5.10866e-18
-5.101e-18
-5.10183e-18
-5.10592e-18
-5.10491e-18
-5.09876e-18
-5.10298e-18
-5.10331e-18
-5.09948e-18
-5.09992e-18
-5.10089e-18
-5.10191e-18
-5.10082e-18
-5.10096e-18
-5.1024e-18
-5.10251e-18
-5.10138e-18
-5.10135e-18
-5.10173e-18
-5.10201e-18
-5.10186e-18
-5.10161e-18
-5.10182e-18
-5.10196e-18
-5.10189e-18
-5.10184e-18
-5.10159e-18
-5.10194e-18
-5.10208e-18
-5.10181e-18
-5.10187e-18
-5.10207e-18
-5.10194e-18
-5.10179e-18
-5.10192e-18
-5.10203e-18
-5.10194e-18
-5.10194e-18
-5.10195e-18
-5.1019e-18
-5.10196e-18
-5.10196e-18
-5.10192e-18
-5.10191e-18
-5.10191e-18
-5.10191e-18
-5.10189e-18
-5.1019e-18
-5.1019e-18
-5.10191e-18
-5.12494e-18
-5.09848e-18
-5.10785e-18
-5.1027e-18
-5.11982e-18
-5.11777e-18
-5.11413e-18
-5.09749e-18
-5.11755e-18
-5.10665e-18
-5.09456e-18
-5.09951e-18
-5.10248e-18
-5.10813e-18
-5.1078e-18
-5.10736e-18
-5.09734e-18
-5.09033e-18
-5.10728e-18
-5.11159e-18
-5.11203e-18
-5.11544e-18
-5.1123e-18
-5.10726e-18
-5.09625e-18
-5.0919e-18
-5.08098e-18
-5.09716e-18
-5.10672e-18
-5.09642e-18
-5.09648e-18
-5.09151e-18
-5.08719e-18
-5.08479e-18
-5.09499e-18
-5.09829e-18
-5.1022e-18
-5.09842e-18
-5.09495e-18
-5.10437e-18
-5.09975e-18
-5.09254e-18
-5.09704e-18
-5.10106e-18
-5.10207e-18
-5.09238e-18
-5.09789e-18
-5.09825e-18
-5.09881e-18
-5.09031e-18
-5.09532e-18
-5.0994e-18
-5.09745e-18
-5.09742e-18
-5.09749e-18
-5.09961e-18
-5.09926e-18
-5.09827e-18
-5.09812e-18
-5.09788e-18
-5.09788e-18
-5.09793e-18
-5.09795e-18
-5.09806e-18
-5.09839e-18
-5.09859e-18
-5.09837e-18
-5.09833e-18
-5.09833e-18
-5.09844e-18
-5.09858e-18
-5.09845e-18
-5.09832e-18
-5.09833e-18
-5.09857e-18
-5.09847e-18
-5.09844e-18
-5.09862e-18
-5.09846e-18
-5.09836e-18
-5.09823e-18
-5.09842e-18
-5.09853e-18
-5.0984e-18
-5.09844e-18
-5.09851e-18
-5.0985e-18
-5.09852e-18
-5.09851e-18
-5.09846e-18
-5.0985e-18
-5.0985e-18
-5.09848e-18
-5.09847e-18
-5.09847e-18
-5.14728e-18
-5.11924e-18
-5.11596e-18
-5.12595e-18
-5.14945e-18
-5.14694e-18
-5.13953e-18
-5.13015e-18
-5.12832e-18
-5.11142e-18
-5.11997e-18
-5.11864e-18
-5.1265e-18
-5.11239e-18
-5.12191e-18
-5.12431e-18
-5.12352e-18
-5.11646e-18
-5.11413e-18
-5.11124e-18
-5.12046e-18
-5.10791e-18
-5.10412e-18
-5.10965e-18
-5.11354e-18
-5.10873e-18
-5.1037e-18
-5.1056e-18
-5.10845e-18
-5.11302e-18
-5.11709e-18
-5.11426e-18
-5.10171e-18
-5.10007e-18
-5.11182e-18
-5.10994e-18
-5.10532e-18
-5.11586e-18
-5.1198e-18
-5.11568e-18
-5.10407e-18
-5.10685e-18
-5.10883e-18
-5.10419e-18
-5.09451e-18
-5.10183e-18
-5.1045e-18
-5.10771e-18
-5.10963e-18
-5.10477e-18
-5.10906e-18
-5.10764e-18
-5.10614e-18
-5.1055e-18
-5.10499e-18
-5.10496e-18
-5.10453e-18
-5.10409e-18
-5.10372e-18
-5.10422e-18
-5.10402e-18
-5.10457e-18
-5.10411e-18
-5.10382e-18
-5.10376e-18
-5.10401e-18
-5.10361e-18
-5.10377e-18
-5.10375e-18
-5.10406e-18
-5.1042e-18
-5.10395e-18
-5.10379e-18
-5.10385e-18
-5.10388e-18
-5.1039e-18
-5.10398e-18
-5.10402e-18
-5.10389e-18
-5.10396e-18
-5.10387e-18
-5.10384e-18
-5.10395e-18
-5.10389e-18
-5.10374e-18
-5.10386e-18
-5.10394e-18
-5.10378e-18
-5.10382e-18
-5.10384e-18
-5.10384e-18
-5.10386e-18
-5.10383e-18
-5.10384e-18
-5.10384e-18
-5.12108e-18
-5.1143e-18
-5.10755e-18
-5.10587e-18
-5.1028e-18
-5.12344e-18
-5.1014e-18
-5.10049e-18
-5.10621e-18
-5.12157e-18
-5.10869e-18
-5.12462e-18
-5.11508e-18
-5.10033e-18
-5.10398e-18
-5.1256e-18
-5.12263e-18
-5.12025e-18
-5.12704e-18
-5.11561e-18
-5.11422e-18
-5.11206e-18
-5.1247e-18
-5.11925e-18
-5.11595e-18
-5.1063e-18
-5.10235e-18
-5.10968e-18
-5.11824e-18
-5.12676e-18
-5.10586e-18
-5.10856e-18
-5.11496e-18
-5.11574e-18
-5.11322e-18
-5.11473e-18
-5.11295e-18
-5.10358e-18
-5.10404e-18
-5.10393e-18
-5.11845e-18
-5.12519e-18
-5.10785e-18
-5.104e-18
-5.11108e-18
-5.10402e-18
-5.10202e-18
-5.10346e-18
-5.10307e-18
-5.10615e-18
-5.10411e-18
-5.10595e-18
-5.10187e-18
-5.10118e-18
-5.10026e-18
-5.10088e-18
-5.10205e-18
-5.10255e-18
-5.10224e-18
-5.10198e-18
-5.10206e-18
-5.10172e-18
-5.10166e-18
-5.10155e-18
-5.10151e-18
-5.10158e-18
-5.10177e-18
-5.10178e-18
-5.10161e-18
-5.10148e-18
-5.10162e-18
-5.10163e-18
-5.10168e-18
-5.10173e-18
-5.10166e-18
-5.10174e-18
-5.10172e-18
-5.10161e-18
-5.10163e-18
-5.10174e-18
-5.10169e-18
-5.10173e-18
-5.10171e-18
-5.10164e-18
-5.10173e-18
-5.10172e-18
-5.10167e-18
-5.10169e-18
-5.10164e-18
-5.10165e-18
-5.10168e-18
-5.10164e-18
-5.10166e-18
-5.10168e-18
-5.10169e-18
-5.12633e-18
-5.14216e-18
-5.15381e-18
-5.15856e-18
-5.1398e-18
-5.12449e-18
-5.12832e-18
-5.1305e-18
-5.14024e-18
-5.14549e-18
-5.13564e-18
-5.13513e-18
-5.14829e-18
-5.15816e-18
-5.14786e-18
-5.13144e-18
-5.12345e-18
-5.13508e-18
-5.13064e-18
-5.13406e-18
-5.13313e-18
-5.12489e-18
-5.12017e-18
-5.12056e-18
-5.12298e-18
-5.12749e-18
-5.12255e-18
-5.12076e-18
-5.11818e-18
-5.12071e-18
-5.13638e-18
-5.12679e-18
-5.11899e-18
-5.12391e-18
-5.13183e-18
-5.1255e-18
-5.12153e-18
-5.115e-18
-5.11462e-18
-5.11872e-18
-5.11424e-18
-5.11733e-18
-5.12042e-18
-5.10436e-18
-5.11054e-18
-5.10874e-18
-5.10346e-18
-5.10972e-18
-5.1156e-18
-5.10967e-18
-5.10976e-18
-5.11071e-18
-5.10917e-18
-5.10729e-18
-5.10822e-18
-5.1073e-18
-5.10777e-18
-5.1077e-18
-5.10688e-18
-5.10614e-18
-5.10664e-18
-5.1071e-18
-5.10667e-18
-5.10654e-18
-5.10655e-18
-5.10686e-18
-5.10693e-18
-5.10684e-18
-5.10674e-18
-5.10695e-18
-5.10702e-18
-5.10677e-18
-5.1066e-18
-5.10658e-18
-5.10658e-18
-5.10657e-18
-5.10643e-18
-5.10658e-18
-5.10674e-18
-5.10672e-18
-5.10661e-18
-5.10663e-18
-5.10664e-18
-5.10664e-18
-5.10659e-18
-5.10657e-18
-5.10661e-18
-5.10665e-18
-5.10662e-18
-5.10662e-18
-5.10662e-18
-5.10662e-18
-5.10658e-18
-5.10658e-18
-5.1066e-18
-5.1158e-18
-5.1343e-18
-5.13324e-18
-5.10333e-18
-5.1134e-18
-5.13162e-18
-5.13651e-18
-5.1281e-18
-5.134e-18
-5.14116e-18
-5.12159e-18
-5.11645e-18
-5.11006e-18
-5.10991e-18
-5.10701e-18
-5.11749e-18
-5.11849e-18
-5.11036e-18
-5.11257e-18
-5.11313e-18
-5.10897e-18
-5.10953e-18
-5.1173e-18
-5.11815e-18
-5.11531e-18
-5.1181e-18
-5.12058e-18
-5.11918e-18
-5.11822e-18
-5.11305e-18
-5.11552e-18
-5.10739e-18
-5.10617e-18
-5.11084e-18
-5.1064e-18
-5.10384e-18
-5.10352e-18
-5.10504e-18
-5.1076e-18
-5.10562e-18
-5.12028e-18
-5.12069e-18
-5.11836e-18
-5.10852e-18
-5.10538e-18
-5.1009e-18
-5.10416e-18
-5.10525e-18
-5.10912e-18
-5.10899e-18
-5.10621e-18
-5.10609e-18
-5.10596e-18
-5.1031e-18
-5.1046e-18
-5.10452e-18
-5.10433e-18
-5.10448e-18
-5.10517e-18
-5.10486e-18
-5.10483e-18
-5.10492e-18
-5.10507e-18
-5.10504e-18
-5.10486e-18
-5.10477e-18
-5.10494e-18
-5.10494e-18
-5.10484e-18
-5.10492e-18
-5.1048e-18
-5.10482e-18
-5.10481e-18
-5.10474e-18
-5.10484e-18
-5.10482e-18
-5.10487e-18
-5.10483e-18
-5.1048e-18
-5.10489e-18
-5.10483e-18
-5.10475e-18
-5.10475e-18
-5.10477e-18
-5.10476e-18
-5.10478e-18
-5.10479e-18
-5.10481e-18
-5.10482e-18
-5.1048e-18
-5.10477e-18
-5.10477e-18
-5.10477e-18
-5.10478e-18
-5.10478e-18
-5.13505e-18
-5.13315e-18
-5.12198e-18
-5.12606e-18
-5.14166e-18
-5.13506e-18
-5.12409e-18
-5.11939e-18
-5.1226e-18
-5.13443e-18
-5.1418e-18
-5.14591e-18
-5.13813e-18
-5.1324e-18
-5.13952e-18
-5.12591e-18
-5.13013e-18
-5.14552e-18
-5.13893e-18
-5.13315e-18
-5.13541e-18
-5.13972e-18
-5.1352e-18
-5.13352e-18
-5.14006e-18
-5.13659e-18
-5.12138e-18
-5.12365e-18
-5.12597e-18
-5.12705e-18
-5.12746e-18
-5.12004e-18
-5.11516e-18
-5.11961e-18
-5.11865e-18
-5.11619e-18
-5.10981e-18
-5.11919e-18
-5.125e-18
-5.11306e-18
-5.1051e-18
-5.10018e-18
-5.10528e-18
-5.11201e-18
-5.11759e-18
-5.11526e-18
-5.11554e-18
-5.11741e-18
-5.11078e-18
-5.10946e-18
-5.11228e-18
-5.11169e-18
-5.11047e-18
-5.10969e-18
-5.1111e-18
-5.11163e-18
-5.11098e-18
-5.11048e-18
-5.11005e-18
-5.1102e-18
-5.11005e-18
-5.10983e-18
-5.10961e-18
-5.10986e-18
-5.10982e-18
-5.1097e-18
-5.10953e-18
-5.10951e-18
-5.1097e-18
-5.10954e-18
-5.10972e-18
-5.10982e-18
-5.10975e-18
-5.10955e-18
-5.10938e-18
-5.10937e-18
-5.10937e-18
-5.10953e-18
-5.10962e-18
-5.10948e-18
-5.10939e-18
-5.10938e-18
-5.10934e-18
-5.1094e-18
-5.10946e-18
-5.10939e-18
-5.10933e-18
-5.10931e-18
-5.10938e-18
-5.10936e-18
-5.10933e-18
-5.10933e-18
-5.10933e-18
-5.10933e-18
-5.10933e-18
-5.14925e-18
-5.14711e-18
-5.13904e-18
-5.14539e-18
-5.1347e-18
-5.13046e-18
-5.13388e-18
-5.13833e-18
-5.12093e-18
-5.12499e-18
-5.12879e-18
-5.12258e-18
-5.11557e-18
-5.1212e-18
-5.12516e-18
-5.12984e-18
-5.13435e-18
-5.12156e-18
-5.10851e-18
-5.10952e-18
-5.11792e-18
-5.12378e-18
-5.13145e-18
-5.13055e-18
-5.12222e-18
-5.11924e-18
-5.11901e-18
-5.11875e-18
-5.11423e-18
-5.10957e-18
-5.11203e-18
-5.10616e-18
-5.10239e-18
-5.10622e-18
-5.11233e-18
-5.11414e-18
-5.11385e-18
-5.12033e-18
-5.12043e-18
-5.11177e-18
-5.10507e-18
-5.11159e-18
-5.11621e-18
-5.10589e-18
-5.11061e-18
-5.10974e-18
-5.10882e-18
-5.10674e-18
-5.10685e-18
-5.10775e-18
-5.1087e-18
-5.10725e-18
-5.10734e-18
-5.10819e-18
-5.10842e-18
-5.10829e-18
-5.10796e-18
-5.10794e-18
-5.1082e-18
-5.10845e-18
-5.10836e-18
-5.10783e-18
-5.10799e-18
-5.10794e-18
-5.1079e-18
-5.10808e-18
-5.10769e-18
-5.10776e-18
-5.10758e-18
-5.10752e-18
-5.10777e-18
-5.10778e-18
-5.10775e-18
-5.10773e-18
-5.10771e-18
-5.10764e-18
-5.10763e-18
-5.1077e-18
-5.10777e-18
-5.10776e-18
-5.10768e-18
-5.10763e-18
-5.10766e-18
-5.10768e-18
-5.1076e-18
-5.10761e-18
-5.1076e-18
-5.10765e-18
-5.10765e-18
-5.1076e-18
-5.1076e-18
-5.10762e-18
-5.10763e-18
-5.10763e-18
-5.10763e-18
-5.12952e-18
-5.11653e-18
-5.12523e-18
-5.13323e-18
-5.14777e-18
-5.14277e-18
-5.12061e-18
-5.12055e-18
-5.1354e-18
-5.12859e-18
-5.12547e-18
-5.11899e-18
-5.12956e-18
-5.13928e-18
-5.13774e-18
-5.14192e-18
-5.13419e-18
-5.13407e-18
-5.13979e-18
-5.13437e-18
-5.12851e-18
-5.12293e-18
-5.11083e-18
-5.1207e-18
-5.12597e-18
-5.12343e-18
-5.12058e-18
-5.11546e-18
-5.12694e-18
-5.12402e-18
-5.12144e-18
-5.12046e-18
-5.11974e-18
-5.1171e-18
-5.11037e-18
-5.11783e-18
-5.12567e-18
-5.1151e-18
-5.11854e-18
-5.11002e-18
-5.11343e-18
-5.11578e-18
-5.11664e-18
-5.11633e-18
-5.11824e-18
-5.12192e-18
-5.11701e-18
-5.11173e-18
-5.1142e-18
-5.10994e-18
-5.11213e-18
-5.11257e-18
-5.11336e-18
-5.11335e-18
-5.11237e-18
-5.11194e-18
-5.11203e-18
-5.11186e-18
-5.11183e-18
-5.11175e-18
-5.11172e-18
-5.11161e-18
-5.11171e-18
-5.11178e-18
-5.11184e-18
-5.11175e-18
-5.11169e-18
-5.11169e-18
-5.11179e-18
-5.11165e-18
-5.1115e-18
-5.11166e-18
-5.1116e-18
-5.11152e-18
-5.11164e-18
-5.11162e-18
-5.11159e-18
-5.11166e-18
-5.11166e-18
-5.11157e-18
-5.11159e-18
-5.1116e-18
-5.11149e-18
-5.11148e-18
-5.11154e-18
-5.11152e-18
-5.11152e-18
-5.11148e-18
-5.11147e-18
-5.11145e-18
-5.11146e-18
-5.11148e-18
-5.11149e-18
-5.11147e-18
-5.11147e-18
-5.13011e-18
-5.14325e-18
-5.14132e-18
-5.12918e-18
-5.12408e-18
-5.12368e-18
-5.12715e-18
-5.13045e-18
-5.11007e-18
-5.10425e-18
-5.10518e-18
-5.11286e-18
-5.10999e-18
-5.11623e-18
-5.11426e-18
-5.10771e-18
-5.11659e-18
-5.12004e-18
-5.10121e-18
-5.11382e-18
-5.12321e-18
-5.11247e-18
-5.09758e-18
-5.10702e-18
-5.11315e-18
-5.11311e-18
-5.11292e-18
-5.11499e-18
-5.11691e-18
-5.10563e-18
-5.10618e-18
-5.10424e-18
-5.10962e-18
-5.11476e-18
-5.11765e-18
-5.10683e-18
-5.10872e-18
-5.11487e-18
-5.11983e-18
-5.11132e-18
-5.10355e-18
-5.10161e-18
-5.10644e-18
-5.10619e-18
-5.11052e-18
-5.11228e-18
-5.11231e-18
-5.11309e-18
-5.11517e-18
-5.11286e-18
-5.10863e-18
-5.11063e-18
-5.11101e-18
-5.11139e-18
-5.11017e-18
-5.11072e-18
-5.11109e-18
-5.1108e-18
-5.11084e-18
-5.11028e-18
-5.11045e-18
-5.11068e-18
-5.1102e-18
-5.11015e-18
-5.11011e-18
-5.11023e-18
-5.11023e-18