/*--------------------------------*- C++ -*----------------------------------*\
  =========                 |
  \\      /  F ield         | OpenFOAM: The Open Source CFD Toolbox
   \\    /   O peration     | Website:  https://openfoam.org
    \\  /    A nd           | Version:  7
     \\/     M anipulation  |
\*---------------------------------------------------------------------------*/
FoamFile
{
    version     2.0;
    format      ascii;
    class       volScalarField;
    location    "144000";
    object      nut;
}
// * * * * * * * * * * * * * * * * * * * * * * * * * * * * * * * * * * * * * //

dimensions      [0 2 -1 0 0 0 0];

internalField   nonuniform List<scalar> 
4844
(
2.16478e-05
2.16227e-05
2.15949e-05
2.15393e-05
2.15133e-05
2.14846e-05
2.14531e-05
2.14189e-05
2.1382e-05
2.13422e-05
2.12997e-05
2.14269e-05
2.14001e-05
2.13704e-05
2.1338e-05
2.13028e-05
2.12648e-05
2.12239e-05
2.11802e-05
2.11336e-05
2.10842e-05
2.10321e-05
2.13107e-05
2.12831e-05
2.12526e-05
2.12192e-05
2.1183e-05
2.11439e-05
2.11019e-05
2.10571e-05
2.10093e-05
2.09587e-05
2.09053e-05
2.0849e-05
2.07899e-05
2.07282e-05
2.06638e-05
2.05966e-05
2.11908e-05
2.11624e-05
2.11311e-05
2.10969e-05
2.10597e-05
2.10196e-05
2.09765e-05
2.09305e-05
2.08816e-05
2.08298e-05
2.07752e-05
2.07176e-05
2.06573e-05
2.05942e-05
2.05285e-05
2.04601e-05
2.10674e-05
2.10382e-05
2.10061e-05
2.0971e-05
2.09329e-05
2.08918e-05
2.08477e-05
2.08007e-05
2.07507e-05
2.06977e-05
2.06419e-05
2.05831e-05
2.05216e-05
2.04572e-05
2.03902e-05
2.03205e-05
2.09106e-05
2.08777e-05
2.08417e-05
2.08027e-05
2.07607e-05
2.07156e-05
2.06676e-05
2.06165e-05
2.05624e-05
2.05054e-05
2.04456e-05
2.03828e-05
2.03173e-05
2.02491e-05
2.01782e-05
2.07795e-05
2.07459e-05
2.07091e-05
2.06693e-05
2.06264e-05
2.05804e-05
2.05313e-05
2.04792e-05
2.04241e-05
2.0366e-05
2.0305e-05
2.02412e-05
2.01745e-05
2.01051e-05
2.0033e-05
2.06452e-05
2.06109e-05
2.05733e-05
2.05327e-05
2.04889e-05
2.0442e-05
2.0392e-05
2.03389e-05
2.02828e-05
2.02237e-05
2.01616e-05
2.00967e-05
2.00289e-05
1.99585e-05
1.98852e-05
2.05396e-05
2.05077e-05
2.04727e-05
2.04344e-05
2.0393e-05
2.03484e-05
2.03006e-05
2.02497e-05
2.01957e-05
2.01386e-05
2.00785e-05
2.00154e-05
1.99495e-05
1.98807e-05
1.98091e-05
1.97349e-05
2.03996e-05
2.03672e-05
2.03315e-05
2.02925e-05
2.02503e-05
2.02049e-05
2.01563e-05
2.01046e-05
2.00497e-05
1.99916e-05
1.99306e-05
1.98665e-05
1.97996e-05
1.97298e-05
1.96573e-05
1.9582e-05
2.02567e-05
2.02236e-05
2.01873e-05
2.01477e-05
2.01048e-05
2.00586e-05
2.00092e-05
1.99566e-05
1.99009e-05
1.9842e-05
1.978e-05
1.97151e-05
1.96472e-05
1.95764e-05
1.95029e-05
1.94267e-05
2.01108e-05
2.00772e-05
2.00402e-05
2e-05
1.99564e-05
1.99095e-05
1.98594e-05
1.9806e-05
1.97494e-05
1.96897e-05
1.96269e-05
1.9561e-05
1.94923e-05
1.94206e-05
1.93462e-05
1.92691e-05
1.99928e-05
1.9962e-05
1.99279e-05
1.98904e-05
1.98495e-05
1.98053e-05
1.97577e-05
1.97069e-05
1.96527e-05
1.95954e-05
1.95349e-05
1.94713e-05
1.94046e-05
1.9335e-05
1.92625e-05
1.91872e-05
1.91093e-05
1.98418e-05
1.98106e-05
1.97759e-05
1.97379e-05
1.96964e-05
1.96516e-05
1.96034e-05
1.95518e-05
1.9497e-05
1.94389e-05
1.93776e-05
1.93133e-05
1.92458e-05
1.91754e-05
1.91021e-05
1.9026e-05
1.89473e-05
1.97162e-05
1.96881e-05
1.96564e-05
1.96213e-05
1.95828e-05
1.95407e-05
1.94953e-05
1.94465e-05
1.93943e-05
1.93388e-05
1.928e-05
1.9218e-05
1.91529e-05
1.90847e-05
1.90136e-05
1.89395e-05
1.88627e-05
1.87832e-05
1.95603e-05
1.95318e-05
1.94997e-05
1.94642e-05
1.94251e-05
1.93826e-05
1.93366e-05
1.92872e-05
1.92344e-05
1.91783e-05
1.91188e-05
1.90562e-05
1.89904e-05
1.89215e-05
1.88496e-05
1.87748e-05
1.86973e-05
1.86171e-05
1.94019e-05
1.9373e-05
1.93406e-05
1.93046e-05
1.92651e-05
1.9222e-05
1.91755e-05
1.91255e-05
1.90722e-05
1.90154e-05
1.89554e-05
1.88921e-05
1.88257e-05
1.87561e-05
1.86836e-05
1.86082e-05
1.853e-05
1.8449e-05
1.9241e-05
1.92118e-05
1.9179e-05
1.91426e-05
1.91026e-05
1.90591e-05
1.90121e-05
1.89616e-05
1.89077e-05
1.88504e-05
1.87898e-05
1.8726e-05
1.86589e-05
1.85887e-05
1.85156e-05
1.84395e-05
1.83607e-05
1.82792e-05
1.90778e-05
1.90483e-05
1.90151e-05
1.89783e-05
1.8938e-05
1.8894e-05
1.88466e-05
1.87956e-05
1.87412e-05
1.86833e-05
1.86222e-05
1.85578e-05
1.84901e-05
1.84194e-05
1.83457e-05
1.8269e-05
1.81896e-05
1.81075e-05
1.89123e-05
1.88825e-05
1.8849e-05
1.88119e-05
1.87711e-05
1.87268e-05
1.86789e-05
1.86274e-05
1.85725e-05
1.85142e-05
1.84526e-05
1.83876e-05
1.83195e-05
1.82482e-05
1.81739e-05
1.80967e-05
1.80168e-05
1.79342e-05
1.87447e-05
1.87146e-05
1.86808e-05
1.86433e-05
1.86022e-05
1.85574e-05
1.85091e-05
1.84573e-05
1.84019e-05
1.83432e-05
1.8281e-05
1.82156e-05
1.8147e-05
1.80752e-05
1.80004e-05
1.79228e-05
1.78423e-05
1.77592e-05
1.85749e-05
1.85446e-05
1.85105e-05
1.84727e-05
1.84312e-05
1.83861e-05
1.83374e-05
1.82852e-05
1.82294e-05
1.81702e-05
1.81077e-05
1.80418e-05
1.79727e-05
1.79005e-05
1.78252e-05
1.77471e-05
1.76662e-05
1.75827e-05
1.84031e-05
1.83725e-05
1.83382e-05
1.83001e-05
1.82583e-05
1.82129e-05
1.81638e-05
1.81112e-05
1.80551e-05
1.79955e-05
1.79325e-05
1.78662e-05
1.77967e-05
1.77241e-05
1.76485e-05
1.75699e-05
1.74886e-05
1.74046e-05
1.82294e-05
1.81986e-05
1.8164e-05
1.81256e-05
1.80836e-05
1.80378e-05
1.79884e-05
1.79355e-05
1.7879e-05
1.78191e-05
1.77557e-05
1.76891e-05
1.76192e-05
1.75462e-05
1.74701e-05
1.73912e-05
1.73096e-05
1.72252e-05
1.80538e-05
1.80228e-05
1.7988e-05
1.79494e-05
1.7907e-05
1.7861e-05
1.78113e-05
1.7758e-05
1.77012e-05
1.7641e-05
1.75773e-05
1.75103e-05
1.74401e-05
1.73667e-05
1.72904e-05
1.72111e-05
1.71291e-05
1.70444e-05
1.78765e-05
1.78452e-05
1.78102e-05
1.77713e-05
1.77288e-05
1.76825e-05
1.76325e-05
1.7579e-05
1.75219e-05
1.74613e-05
1.73973e-05
1.733e-05
1.72595e-05
1.71859e-05
1.71092e-05
1.70296e-05
1.69473e-05
1.68624e-05
1.76974e-05
1.7666e-05
1.76307e-05
1.75917e-05
1.75489e-05
1.75023e-05
1.74522e-05
1.73984e-05
1.7341e-05
1.72802e-05
1.72159e-05
1.71483e-05
1.70775e-05
1.70036e-05
1.69267e-05
1.68469e-05
1.67643e-05
1.66791e-05
1.75167e-05
1.74851e-05
1.74497e-05
1.74104e-05
1.73674e-05
1.73207e-05
1.72703e-05
1.72162e-05
1.71587e-05
1.70976e-05
1.70331e-05
1.69653e-05
1.68942e-05
1.68201e-05
1.67429e-05
1.66629e-05
1.65801e-05
1.64947e-05
1.73344e-05
1.73026e-05
1.72671e-05
1.72277e-05
1.71845e-05
1.71376e-05
1.70869e-05
1.70327e-05
1.69749e-05
1.69136e-05
1.68489e-05
1.67809e-05
1.67097e-05
1.66353e-05
1.65579e-05
1.64777e-05
1.63948e-05
1.63092e-05
1.71785e-05
1.71506e-05
1.71187e-05
1.7083e-05
1.70435e-05
1.70001e-05
1.6953e-05
1.69022e-05
1.68478e-05
1.67899e-05
1.67284e-05
1.66635e-05
1.65953e-05
1.65239e-05
1.64494e-05
1.63719e-05
1.62915e-05
1.62084e-05
1.61227e-05
1.69934e-05
1.69654e-05
1.69334e-05
1.68976e-05
1.68579e-05
1.68144e-05
1.67672e-05
1.67162e-05
1.66617e-05
1.66036e-05
1.65419e-05
1.64769e-05
1.64086e-05
1.6337e-05
1.62624e-05
1.61847e-05
1.61042e-05
1.6021e-05
1.59352e-05
1.68311e-05
1.68069e-05
1.67788e-05
1.67468e-05
1.67108e-05
1.6671e-05
1.66274e-05
1.658e-05
1.6529e-05
1.64743e-05
1.64161e-05
1.63543e-05
1.62892e-05
1.62207e-05
1.61491e-05
1.60743e-05
1.59966e-05
1.5916e-05
1.58327e-05
1.57468e-05
1.66434e-05
1.66192e-05
1.6591e-05
1.65588e-05
1.65228e-05
1.64829e-05
1.64392e-05
1.63917e-05
1.63406e-05
1.62858e-05
1.62275e-05
1.61656e-05
1.61004e-05
1.60319e-05
1.59601e-05
1.58853e-05
1.58075e-05
1.57268e-05
1.56435e-05
1.55576e-05
1.64544e-05
1.64302e-05
1.64019e-05
1.63697e-05
1.63336e-05
1.62936e-05
1.62498e-05
1.62023e-05
1.61511e-05
1.60962e-05
1.60378e-05
1.59759e-05
1.59106e-05
1.5842e-05
1.57702e-05
1.56953e-05
1.56175e-05
1.55368e-05
1.54535e-05
1.53676e-05
1.62643e-05
1.624e-05
1.62117e-05
1.61794e-05
1.61433e-05
1.61032e-05
1.60594e-05
1.60118e-05
1.59605e-05
1.59056e-05
1.58471e-05
1.57852e-05
1.57199e-05
1.56512e-05
1.55794e-05
1.55045e-05
1.54267e-05
1.53461e-05
1.52628e-05
1.51769e-05
1.60731e-05
1.60487e-05
1.60204e-05
1.59881e-05
1.59519e-05
1.59118e-05
1.58679e-05
1.58203e-05
1.5769e-05
1.5714e-05
1.56555e-05
1.55936e-05
1.55282e-05
1.54596e-05
1.53878e-05
1.5313e-05
1.52352e-05
1.51546e-05
1.50713e-05
1.49856e-05
1.58808e-05
1.58564e-05
1.58281e-05
1.57957e-05
1.57595e-05
1.57194e-05
1.56755e-05
1.56279e-05
1.55765e-05
1.55216e-05
1.54631e-05
1.54011e-05
1.53358e-05
1.52672e-05
1.51955e-05
1.51207e-05
1.50429e-05
1.49624e-05
1.48792e-05
1.47936e-05
1.56876e-05
1.56632e-05
1.56348e-05
1.56025e-05
1.55662e-05
1.55261e-05
1.54822e-05
1.54345e-05
1.53832e-05
1.53283e-05
1.52698e-05
1.52079e-05
1.51426e-05
1.50741e-05
1.50024e-05
1.49277e-05
1.485e-05
1.47696e-05
1.46866e-05
1.46011e-05
1.54934e-05
1.5469e-05
1.54406e-05
1.54083e-05
1.5372e-05
1.53319e-05
1.52881e-05
1.52404e-05
1.51891e-05
1.51342e-05
1.50758e-05
1.50139e-05
1.49487e-05
1.48803e-05
1.48087e-05
1.47341e-05
1.46566e-05
1.45763e-05
1.44934e-05
1.4408e-05
1.52984e-05
1.5274e-05
1.52456e-05
1.52133e-05
1.51771e-05
1.5137e-05
1.50931e-05
1.50455e-05
1.49943e-05
1.49394e-05
1.48811e-05
1.48193e-05
1.47542e-05
1.46859e-05
1.46144e-05
1.45399e-05
1.44625e-05
1.43824e-05
1.42997e-05
1.42146e-05
1.51026e-05
1.50782e-05
1.50498e-05
1.50175e-05
1.49813e-05
1.49413e-05
1.48975e-05
1.485e-05
1.47988e-05
1.4744e-05
1.46858e-05
1.46241e-05
1.45591e-05
1.44909e-05
1.44196e-05
1.43452e-05
1.42681e-05
1.41881e-05
1.41057e-05
1.40207e-05
1.4906e-05
1.48817e-05
1.48533e-05
1.48211e-05
1.47849e-05
1.4745e-05
1.47012e-05
1.46538e-05
1.46027e-05
1.4548e-05
1.44898e-05
1.44283e-05
1.43635e-05
1.42954e-05
1.42243e-05
1.41501e-05
1.40732e-05
1.39935e-05
1.39112e-05
1.38265e-05
1.47088e-05
1.46845e-05
1.46562e-05
1.4624e-05
1.45879e-05
1.4548e-05
1.45043e-05
1.4457e-05
1.4406e-05
1.43514e-05
1.42934e-05
1.4232e-05
1.41673e-05
1.40995e-05
1.40285e-05
1.39546e-05
1.38779e-05
1.37984e-05
1.37164e-05
1.36321e-05
1.45109e-05
1.44867e-05
1.44584e-05
1.44263e-05
1.43903e-05
1.43505e-05
1.43069e-05
1.42596e-05
1.42088e-05
1.41544e-05
1.40965e-05
1.40353e-05
1.39708e-05
1.39031e-05
1.38324e-05
1.37587e-05
1.36823e-05
1.36031e-05
1.35214e-05
1.34373e-05
1.43125e-05
1.42883e-05
1.42601e-05
1.42281e-05
1.41922e-05
1.41524e-05
1.4109e-05
1.40619e-05
1.40111e-05
1.39569e-05
1.38992e-05
1.38382e-05
1.37739e-05
1.37065e-05
1.3636e-05
1.35626e-05
1.34864e-05
1.34075e-05
1.33261e-05
1.32424e-05
1.41136e-05
1.40894e-05
1.40614e-05
1.40294e-05
1.39936e-05
1.3954e-05
1.39106e-05
1.38636e-05
1.38131e-05
1.3759e-05
1.37015e-05
1.36407e-05
1.35767e-05
1.35095e-05
1.34393e-05
1.33662e-05
1.32903e-05
1.32118e-05
1.31307e-05
1.30474e-05
1.39142e-05
1.38902e-05
1.38621e-05
1.38303e-05
1.37946e-05
1.37551e-05
1.37119e-05
1.36651e-05
1.36147e-05
1.35608e-05
1.35035e-05
1.3443e-05
1.33792e-05
1.33123e-05
1.32424e-05
1.31696e-05
1.3094e-05
1.30158e-05
1.29352e-05
1.28522e-05
1.37145e-05
1.36905e-05
1.36626e-05
1.36308e-05
1.35952e-05
1.35559e-05
1.35128e-05
1.34662e-05
1.3416e-05
1.33623e-05
1.33053e-05
1.3245e-05
1.31815e-05
1.31149e-05
1.30453e-05
1.29728e-05
1.28976e-05
1.28198e-05
1.27396e-05
1.2657e-05
1.35144e-05
1.34904e-05
1.34626e-05
1.3431e-05
1.33955e-05
1.33564e-05
1.33135e-05
1.32671e-05
1.32171e-05
1.31636e-05
1.31069e-05
1.30468e-05
1.29836e-05
1.29173e-05
1.28481e-05
1.2776e-05
1.27012e-05
1.26238e-05
1.25439e-05
1.24618e-05
1.3314e-05
1.32901e-05
1.32624e-05
1.32309e-05
1.31956e-05
1.31566e-05
1.31139e-05
1.30677e-05
1.30179e-05
1.29648e-05
1.29083e-05
1.28485e-05
1.27856e-05
1.27196e-05
1.26508e-05
1.25791e-05
1.25047e-05
1.24277e-05
1.23483e-05
1.22666e-05
1.31133e-05
1.30896e-05
1.3062e-05
1.30306e-05
1.29955e-05
1.29567e-05
1.29142e-05
1.28682e-05
1.28187e-05
1.27658e-05
1.27095e-05
1.26501e-05
1.25875e-05
1.25219e-05
1.24534e-05
1.23821e-05
1.23082e-05
1.22317e-05
1.21527e-05
1.20716e-05
1.29125e-05
1.28889e-05
1.28614e-05
1.28302e-05
1.27952e-05
1.27566e-05
1.27144e-05
1.26686e-05
1.26193e-05
1.25667e-05
1.25108e-05
1.24517e-05
1.23894e-05
1.23242e-05
1.22561e-05
1.21853e-05
1.21117e-05
1.20357e-05
1.19573e-05
1.18766e-05
1.27115e-05
1.2688e-05
1.26607e-05
1.26297e-05
1.25949e-05
1.25564e-05
1.25144e-05
1.24689e-05
1.24199e-05
1.23676e-05
1.2312e-05
1.22532e-05
1.21914e-05
1.21266e-05
1.20589e-05
1.19885e-05
1.19154e-05
1.18399e-05
1.1762e-05
1.16819e-05
1.25104e-05
1.24871e-05
1.24599e-05
1.2429e-05
1.23944e-05
1.23562e-05
1.23144e-05
1.22692e-05
1.22205e-05
1.21685e-05
1.21132e-05
1.20548e-05
1.19934e-05
1.1929e-05
1.18618e-05
1.17918e-05
1.17192e-05
1.16442e-05
1.15668e-05
1.14873e-05
1.2194e-05
1.2156e-05
1.21145e-05
1.20695e-05
1.20211e-05
1.19694e-05
1.19145e-05
1.18565e-05
1.17955e-05
1.17315e-05
1.16648e-05
1.15953e-05
1.15233e-05
1.14488e-05
1.13719e-05
1.1293e-05
1.18218e-05
1.17705e-05
1.1716e-05
1.16584e-05
1.15977e-05
1.15342e-05
1.1468e-05
1.1399e-05
1.13275e-05
1.12536e-05
1.11773e-05
1.1099e-05
2.00331e-05
2.01052e-05
1.98853e-05
1.99585e-05
1.97349e-05
1.98092e-05
1.9582e-05
1.96573e-05
1.97298e-05
1.94268e-05
1.9503e-05
1.95765e-05
1.92692e-05
1.93463e-05
1.94207e-05
1.94923e-05
1.91093e-05
1.91873e-05
1.92625e-05
1.9335e-05
1.89473e-05
1.90261e-05
1.91021e-05
1.91754e-05
1.87832e-05
1.88627e-05
1.89396e-05
1.90136e-05
1.90848e-05
1.86171e-05
1.86974e-05
1.87749e-05
1.88496e-05
1.89215e-05
1.84491e-05
1.853e-05
1.86082e-05
1.86836e-05
1.87562e-05
1.82792e-05
1.83607e-05
1.84396e-05
1.85156e-05
1.85888e-05
1.81075e-05
1.81897e-05
1.82691e-05
1.83457e-05
1.84194e-05
1.79342e-05
1.80168e-05
1.80968e-05
1.8174e-05
1.82482e-05
1.77592e-05
1.78424e-05
1.79228e-05
1.80005e-05
1.80752e-05
1.8147e-05
1.75827e-05
1.76663e-05
1.77472e-05
1.78253e-05
1.79005e-05
1.79727e-05
1.74047e-05
1.74887e-05
1.757e-05
1.76485e-05
1.77241e-05
1.77968e-05
1.78663e-05
1.72252e-05
1.73096e-05
1.73913e-05
1.74702e-05
1.75462e-05
1.76192e-05
1.76891e-05
1.77558e-05
1.70445e-05
1.71291e-05
1.72111e-05
1.72904e-05
1.73668e-05
1.74401e-05
1.75103e-05
1.75773e-05
1.7641e-05
1.68624e-05
1.69474e-05
1.70297e-05
1.71092e-05
1.71859e-05
1.72595e-05
1.73301e-05
1.73974e-05
1.74613e-05
1.75219e-05
1.66791e-05
1.67643e-05
1.68469e-05
1.69267e-05
1.70036e-05
1.70776e-05
1.71484e-05
1.72159e-05
1.72802e-05
1.7341e-05
1.64947e-05
1.65801e-05
1.66629e-05
1.67429e-05
1.68201e-05
1.68943e-05
1.69653e-05
1.70331e-05
1.70976e-05
1.71587e-05
1.63092e-05
1.63948e-05
1.64777e-05
1.6558e-05
1.66353e-05
1.67097e-05
1.6781e-05
1.6849e-05
1.69137e-05
1.69749e-05
1.61227e-05
1.62084e-05
1.62915e-05
1.63719e-05
1.64494e-05
1.65239e-05
1.65954e-05
1.66636e-05
1.67284e-05
1.67899e-05
1.59352e-05
1.6021e-05
1.61042e-05
1.61847e-05
1.62624e-05
1.63371e-05
1.64086e-05
1.6477e-05
1.6542e-05
1.66036e-05
1.57469e-05
1.58327e-05
1.5916e-05
1.59966e-05
1.60743e-05
1.61491e-05
1.62208e-05
1.62892e-05
1.63544e-05
1.64161e-05
1.55576e-05
1.56435e-05
1.57269e-05
1.58075e-05
1.58853e-05
1.59601e-05
1.60319e-05
1.61004e-05
1.61656e-05
1.62275e-05
1.53677e-05
1.54535e-05
1.55369e-05
1.56175e-05
1.56954e-05
1.57702e-05
1.5842e-05
1.59106e-05
1.59759e-05
1.60378e-05
1.5177e-05
1.52628e-05
1.53461e-05
1.54267e-05
1.55046e-05
1.55795e-05
1.56513e-05
1.57199e-05
1.57852e-05
1.58471e-05
1.49856e-05
1.50714e-05
1.51546e-05
1.52352e-05
1.5313e-05
1.53879e-05
1.54597e-05
1.55283e-05
1.55936e-05
1.56556e-05
1.47936e-05
1.48793e-05
1.49624e-05
1.50429e-05
1.51207e-05
1.51955e-05
1.52672e-05
1.53358e-05
1.54012e-05
1.54631e-05
1.46011e-05
1.46866e-05
1.47696e-05
1.48501e-05
1.49277e-05
1.50024e-05
1.50741e-05
1.51426e-05
1.52079e-05
1.52698e-05
2.00331e-05
1.98853e-05
1.97349e-05
1.9582e-05
1.94268e-05
1.92692e-05
1.91093e-05
1.89473e-05
1.87832e-05
1.86171e-05
1.84491e-05
1.82792e-05
1.81075e-05
1.79342e-05
1.77592e-05
1.75827e-05
1.74047e-05
1.72252e-05
1.70445e-05
1.68624e-05
1.66791e-05
1.64947e-05
1.63092e-05
1.61227e-05
1.59352e-05
1.57469e-05
1.55576e-05
1.53677e-05
1.5177e-05
1.49856e-05
1.47936e-05
1.46011e-05
2.01052e-05
1.99585e-05
1.98092e-05
1.96573e-05
1.9503e-05
1.93463e-05
1.91873e-05
1.90261e-05
1.88627e-05
1.86973e-05
1.853e-05
1.83607e-05
1.81897e-05
1.80168e-05
1.78423e-05
1.76663e-05
1.74886e-05
1.73096e-05
1.71291e-05
1.69474e-05
1.67643e-05
1.65801e-05
1.63948e-05
1.62084e-05
1.6021e-05
1.58327e-05
1.56435e-05
1.54535e-05
1.52628e-05
1.50713e-05
1.48793e-05
1.46866e-05
1.44934e-05
2.01745e-05
2.0029e-05
1.98807e-05
1.97298e-05
1.95765e-05
1.94207e-05
1.92625e-05
1.91021e-05
1.89395e-05
1.87749e-05
1.86082e-05
1.84395e-05
1.82691e-05
1.80968e-05
1.79228e-05
1.77471e-05
1.75699e-05
1.73912e-05
1.72111e-05
1.70296e-05
1.68469e-05
1.66629e-05
1.64777e-05
1.62915e-05
1.61042e-05
1.5916e-05
1.57268e-05
1.55369e-05
1.53461e-05
1.51546e-05
1.49624e-05
1.47696e-05
1.45763e-05
1.43824e-05
1.41882e-05
1.39935e-05
1.37984e-05
1.36031e-05
2.02412e-05
2.00967e-05
1.99495e-05
1.97996e-05
1.96472e-05
1.94923e-05
1.9335e-05
1.91754e-05
1.90136e-05
1.88496e-05
1.86836e-05
1.85156e-05
1.83457e-05
1.81739e-05
1.80004e-05
1.78253e-05
1.76485e-05
1.74702e-05
1.72904e-05
1.71092e-05
1.69267e-05
1.67429e-05
1.6558e-05
1.63719e-05
1.61847e-05
1.59966e-05
1.58075e-05
1.56175e-05
1.54267e-05
1.52352e-05
1.50429e-05
1.48501e-05
1.46566e-05
1.44626e-05
1.42681e-05
1.40732e-05
1.38779e-05
1.36823e-05
2.03051e-05
2.01617e-05
2.00155e-05
1.98666e-05
1.97151e-05
1.95611e-05
1.94046e-05
1.92458e-05
1.90848e-05
1.89215e-05
1.87561e-05
1.85888e-05
1.84194e-05
1.82482e-05
1.80752e-05
1.79005e-05
1.77241e-05
1.75462e-05
1.73668e-05
1.71859e-05
1.70036e-05
1.68201e-05
1.66353e-05
1.64494e-05
1.62624e-05
1.60743e-05
1.58853e-05
1.56954e-05
1.55046e-05
1.5313e-05
1.51207e-05
1.49277e-05
1.47341e-05
1.45399e-05
1.43453e-05
1.41501e-05
1.39546e-05
1.37588e-05
2.03661e-05
2.02237e-05
2.00785e-05
1.99306e-05
1.978e-05
1.96269e-05
1.94713e-05
1.93133e-05
1.9153e-05
1.89904e-05
1.88257e-05
1.86589e-05
1.84902e-05
1.83195e-05
1.8147e-05
1.79727e-05
1.77968e-05
1.76192e-05
1.74401e-05
1.72595e-05
1.70776e-05
1.68943e-05
1.67097e-05
1.65239e-05
1.6337e-05
1.61491e-05
1.59601e-05
1.57702e-05
1.55794e-05
1.53878e-05
1.51955e-05
1.50024e-05
1.48087e-05
1.46144e-05
1.44196e-05
1.42243e-05
1.40285e-05
1.38324e-05
1.3636e-05
2.04241e-05
2.02828e-05
2.01386e-05
1.99917e-05
1.9842e-05
1.96897e-05
1.95349e-05
1.93777e-05
1.92181e-05
1.90562e-05
1.88921e-05
1.8726e-05
1.85578e-05
1.83876e-05
1.82156e-05
1.80418e-05
1.78663e-05
1.76891e-05
1.75103e-05
1.73301e-05
1.71484e-05
1.69653e-05
1.67809e-05
1.65954e-05
1.64086e-05
1.62208e-05
1.60319e-05
1.5842e-05
1.56513e-05
1.54596e-05
1.52672e-05
1.50741e-05
1.48803e-05
1.46859e-05
1.44909e-05
1.42954e-05
1.40995e-05
1.39031e-05
1.37065e-05
2.04792e-05
2.03389e-05
2.01957e-05
2.00497e-05
1.99009e-05
1.97494e-05
1.95954e-05
1.94389e-05
1.928e-05
1.91189e-05
1.89554e-05
1.87899e-05
1.86222e-05
1.84526e-05
1.8281e-05
1.81077e-05
1.79325e-05
1.77557e-05
1.75773e-05
1.73974e-05
1.72159e-05
1.70331e-05
1.6849e-05
1.66635e-05
1.64769e-05
1.62892e-05
1.61004e-05
1.59106e-05
1.57199e-05
1.55283e-05
1.53358e-05
1.51426e-05
1.49488e-05
1.47542e-05
1.45591e-05
1.43635e-05
1.41673e-05
1.39708e-05
1.37739e-05
2.05313e-05
2.0392e-05
2.02497e-05
2.01046e-05
1.99566e-05
1.9806e-05
1.96528e-05
1.9497e-05
1.93388e-05
1.91783e-05
1.90155e-05
1.88505e-05
1.86834e-05
1.85142e-05
1.83432e-05
1.81702e-05
1.79955e-05
1.78191e-05
1.7641e-05
1.74613e-05
1.72802e-05
1.70976e-05
1.69136e-05
1.67284e-05
1.6542e-05
1.63543e-05
1.61656e-05
1.59759e-05
1.57852e-05
1.55936e-05
1.54011e-05
1.52079e-05
1.5014e-05
1.48193e-05
1.46241e-05
1.44283e-05
1.4232e-05
1.40353e-05
1.38382e-05
2.05804e-05
2.0442e-05
2.03006e-05
2.01564e-05
2.00092e-05
1.98594e-05
1.97069e-05
1.95518e-05
1.93943e-05
1.92344e-05
1.90722e-05
1.89078e-05
1.87412e-05
1.85726e-05
1.84019e-05
1.82294e-05
1.80551e-05
1.7879e-05
1.77013e-05
1.75219e-05
1.7341e-05
1.71587e-05
1.69749e-05
1.67899e-05
1.66036e-05
1.64161e-05
1.62275e-05
1.60378e-05
1.58471e-05
1.56555e-05
1.54631e-05
1.52698e-05
1.50758e-05
1.48811e-05
1.46858e-05
1.44899e-05
1.42934e-05
1.40965e-05
1.38992e-05
2.06264e-05
2.04889e-05
2.03484e-05
2.02049e-05
2.00586e-05
1.99095e-05
1.97577e-05
1.96034e-05
1.94465e-05
1.92872e-05
1.91256e-05
1.89617e-05
1.87956e-05
1.86274e-05
1.84573e-05
1.82852e-05
1.81112e-05
1.79355e-05
1.77581e-05
1.7579e-05
1.73984e-05
1.72163e-05
1.70327e-05
1.68478e-05
1.66617e-05
1.64743e-05
1.62858e-05
1.60962e-05
1.59056e-05
1.5714e-05
1.55216e-05
1.53283e-05
1.51342e-05
1.49395e-05
1.4744e-05
1.4548e-05
1.43514e-05
1.41544e-05
1.39569e-05
2.05327e-05
2.0393e-05
2.02503e-05
2.01048e-05
1.99564e-05
1.98053e-05
1.96516e-05
1.94953e-05
1.93366e-05
1.91755e-05
1.90121e-05
1.88466e-05
1.86789e-05
1.85091e-05
1.83374e-05
1.81638e-05
1.79885e-05
1.78113e-05
1.76325e-05
1.74522e-05
1.72703e-05
1.7087e-05
1.69023e-05
1.67163e-05
1.6529e-05
1.63406e-05
1.61511e-05
1.59605e-05
1.5769e-05
1.55765e-05
1.53832e-05
1.51891e-05
1.49943e-05
1.47988e-05
1.46027e-05
1.4406e-05
1.42088e-05
1.40111e-05
2.04345e-05
2.02925e-05
2.01477e-05
2e-05
1.98495e-05
1.96964e-05
1.95408e-05
1.93826e-05
1.9222e-05
1.90592e-05
1.8894e-05
1.87268e-05
1.85575e-05
1.83861e-05
1.82129e-05
1.80378e-05
1.7861e-05
1.76825e-05
1.75024e-05
1.73207e-05
1.71376e-05
1.6953e-05
1.67672e-05
1.65801e-05
1.63917e-05
1.62023e-05
1.60118e-05
1.58203e-05
1.56279e-05
1.54346e-05
1.52404e-05
1.50456e-05
1.485e-05
1.46538e-05
1.4457e-05
1.42597e-05
1.40619e-05
2.04727e-05
2.03315e-05
2.01873e-05
2.00402e-05
1.98904e-05
1.97379e-05
1.95828e-05
1.94251e-05
1.92651e-05
1.91027e-05
1.8938e-05
1.87711e-05
1.86022e-05
1.84312e-05
1.82583e-05
1.80836e-05
1.7907e-05
1.77288e-05
1.75489e-05
1.73674e-05
1.71845e-05
1.70001e-05
1.68144e-05
1.66274e-05
1.64392e-05
1.62498e-05
1.60594e-05
1.58679e-05
1.56755e-05
1.54822e-05
1.52881e-05
1.50931e-05
1.48975e-05
1.47012e-05
1.45043e-05
1.43069e-05
1.4109e-05
2.03672e-05
2.02236e-05
2.00772e-05
1.99279e-05
1.97759e-05
1.96213e-05
1.94642e-05
1.93046e-05
1.91426e-05
1.89784e-05
1.88119e-05
1.86433e-05
1.84727e-05
1.83001e-05
1.81256e-05
1.79494e-05
1.77713e-05
1.75917e-05
1.74104e-05
1.72277e-05
1.70435e-05
1.68579e-05
1.6671e-05
1.64829e-05
1.62936e-05
1.61032e-05
1.59118e-05
1.57194e-05
1.55261e-05
1.5332e-05
1.5137e-05
1.49413e-05
1.4745e-05
1.4548e-05
1.43505e-05
1.41524e-05
2.03997e-05
2.02567e-05
2.01108e-05
1.9962e-05
1.98106e-05
1.96564e-05
1.94997e-05
1.93406e-05
1.9179e-05
1.90151e-05
1.8849e-05
1.86808e-05
1.85105e-05
1.83382e-05
1.8164e-05
1.7988e-05
1.78102e-05
1.76307e-05
1.74497e-05
1.72671e-05
1.7083e-05
1.68976e-05
1.67108e-05
1.65228e-05
1.63336e-05
1.61433e-05
1.59519e-05
1.57595e-05
1.55662e-05
1.5372e-05
1.51771e-05
1.49814e-05
1.47849e-05
1.45879e-05
1.43903e-05
1.41922e-05
2.02864e-05
2.0141e-05
1.99928e-05
1.98418e-05
1.96881e-05
1.95318e-05
1.9373e-05
1.92118e-05
1.90483e-05
1.88825e-05
1.87146e-05
1.85446e-05
1.83725e-05
1.81986e-05
1.80228e-05
1.78452e-05
1.7666e-05
1.74851e-05
1.73026e-05
1.71187e-05
1.69334e-05
1.67468e-05
1.65588e-05
1.63697e-05
1.61794e-05
1.59881e-05
1.57957e-05
1.56025e-05
1.54083e-05
1.52133e-05
1.50175e-05
1.48211e-05
1.4624e-05
1.44263e-05
1.42281e-05
2.01679e-05
2.00201e-05
1.98695e-05
1.97162e-05
1.95603e-05
1.94019e-05
1.9241e-05
1.90778e-05
1.89123e-05
1.87447e-05
1.85749e-05
1.84031e-05
1.82294e-05
1.80538e-05
1.78765e-05
1.76974e-05
1.75167e-05
1.73344e-05
1.71506e-05
1.69654e-05
1.67788e-05
1.6591e-05
1.64019e-05
1.62117e-05
1.60204e-05
1.58281e-05
1.56348e-05
1.54406e-05
1.52456e-05
1.50498e-05
1.48533e-05
1.46562e-05
1.44584e-05
1.42601e-05
2.01914e-05
2.0044e-05
1.98938e-05
1.97408e-05
1.95853e-05
1.94272e-05
1.92666e-05
1.91037e-05
1.89385e-05
1.87711e-05
1.86015e-05
1.843e-05
1.82565e-05
1.80811e-05
1.79039e-05
1.77249e-05
1.75443e-05
1.73622e-05
1.71785e-05
1.69934e-05
1.68069e-05
1.66192e-05
1.64302e-05
1.624e-05
1.60487e-05
1.58564e-05
1.56632e-05
1.5469e-05
1.5274e-05
1.50782e-05
1.48817e-05
1.46845e-05
1.44867e-05
1.42883e-05
2.02116e-05
2.00645e-05
1.99146e-05
1.9762e-05
1.96067e-05
1.94489e-05
1.92885e-05
1.91259e-05
1.89609e-05
1.87937e-05
1.86244e-05
1.8453e-05
1.82797e-05
1.81044e-05
1.79274e-05
1.77486e-05
1.75681e-05
1.73861e-05
1.72025e-05
1.70175e-05
1.68311e-05
1.66434e-05
1.64544e-05
1.62643e-05
1.60731e-05
1.58808e-05
1.56876e-05
1.54934e-05
1.52984e-05
1.51026e-05
1.4906e-05
1.47088e-05
1.45109e-05
1.43125e-05
2.02284e-05
2.00816e-05
1.9932e-05
1.97796e-05
1.96245e-05
1.94669e-05
1.93069e-05
1.91444e-05
1.89796e-05
1.88126e-05
1.86434e-05
1.84722e-05
1.8299e-05
1.81239e-05
1.7947e-05
1.77683e-05
1.7588e-05
1.7406e-05
1.72225e-05
1.70376e-05
1.68513e-05
1.66636e-05
1.64747e-05
1.62846e-05
1.60934e-05
1.59012e-05
1.5708e-05
1.55138e-05
1.53188e-05
1.51229e-05
1.49264e-05
1.47291e-05
1.45312e-05
1.43328e-05
2.00953e-05
1.99459e-05
1.97937e-05
1.96388e-05
1.94814e-05
1.93215e-05
1.91592e-05
1.89946e-05
1.88277e-05
1.86587e-05
1.84876e-05
1.83145e-05
1.81395e-05
1.79627e-05
1.77841e-05
1.76039e-05
1.7422e-05
1.72386e-05
1.70537e-05
1.68674e-05
1.66798e-05
1.6491e-05
1.63009e-05
1.61098e-05
1.59175e-05
1.57243e-05
1.55301e-05
1.53351e-05
1.51393e-05
1.49427e-05
1.47454e-05
1.45475e-05
1.4349e-05
2.01055e-05
1.99563e-05
1.98043e-05
1.96496e-05
1.94923e-05
1.93325e-05
1.91703e-05
1.90058e-05
1.88391e-05
1.86701e-05
1.84992e-05
1.83262e-05
1.81513e-05
1.79745e-05
1.7796e-05
1.76158e-05
1.7434e-05
1.72506e-05
1.70658e-05
1.68796e-05
1.6692e-05
1.65032e-05
1.63132e-05
1.6122e-05
1.59298e-05
1.57366e-05
1.55424e-05
1.53474e-05
1.51515e-05
1.49549e-05
1.47576e-05
1.45597e-05
1.43612e-05
1.99632e-05
1.98113e-05
1.96567e-05
1.94995e-05
1.93398e-05
1.91777e-05
1.90133e-05
1.88466e-05
1.86778e-05
1.85069e-05
1.83339e-05
1.81591e-05
1.79824e-05
1.78039e-05
1.76238e-05
1.7442e-05
1.72587e-05
1.70739e-05
1.68877e-05
1.67001e-05
1.65113e-05
1.63213e-05
1.61302e-05
1.5938e-05
1.57448e-05
1.55506e-05
1.53556e-05
1.51597e-05
1.49631e-05
1.47658e-05
1.45679e-05
1.43693e-05
1.99667e-05
1.98148e-05
1.96603e-05
1.95031e-05
1.93435e-05
1.91814e-05
1.9017e-05
1.88504e-05
1.86816e-05
1.85107e-05
1.83378e-05
1.8163e-05
1.79863e-05
1.78079e-05
1.76278e-05
1.7446e-05
1.72627e-05
1.70779e-05
1.68917e-05
1.67042e-05
1.65154e-05
1.63254e-05
1.61343e-05
1.59421e-05
1.57489e-05
1.55547e-05
1.53597e-05
1.51638e-05
1.49672e-05
1.47699e-05
1.45719e-05
1.43734e-05
1.98148e-05
1.96603e-05
1.95031e-05
1.93435e-05
1.91814e-05
1.9017e-05
1.88504e-05
1.86816e-05
1.85107e-05
1.83378e-05
1.8163e-05
1.79863e-05
1.78079e-05
1.76278e-05
1.7446e-05
1.72627e-05
1.70779e-05
1.68917e-05
1.67042e-05
1.65154e-05
1.63254e-05
1.61343e-05
1.59421e-05
1.57488e-05
1.55547e-05
1.53597e-05
1.51638e-05
1.49672e-05
1.47699e-05
1.45719e-05
1.43734e-05
1.98113e-05
1.96567e-05
1.94995e-05
1.93398e-05
1.91777e-05
1.90133e-05
1.88466e-05
1.86778e-05
1.85069e-05
1.83339e-05
1.81591e-05
1.79824e-05
1.78039e-05
1.76238e-05
1.7442e-05
1.72587e-05
1.70739e-05
1.68877e-05
1.67001e-05
1.65113e-05
1.63213e-05
1.61302e-05
1.5938e-05
1.57448e-05
1.55506e-05
1.53556e-05
1.51597e-05
1.49631e-05
1.47658e-05
1.45678e-05
1.43693e-05
1.98042e-05
1.96496e-05
1.94923e-05
1.93325e-05
1.91703e-05
1.90058e-05
1.88391e-05
1.86701e-05
1.84992e-05
1.83262e-05
1.81513e-05
1.79745e-05
1.7796e-05
1.76158e-05
1.7434e-05
1.72506e-05
1.70658e-05
1.68796e-05
1.6692e-05
1.65032e-05
1.63132e-05
1.6122e-05
1.59298e-05
1.57366e-05
1.55424e-05
1.53474e-05
1.51515e-05
1.49549e-05
1.47576e-05
1.45597e-05
1.43612e-05
1.97937e-05
1.96388e-05
1.94814e-05
1.93215e-05
1.91592e-05
1.89946e-05
1.88277e-05
1.86587e-05
1.84876e-05
1.83145e-05
1.81395e-05
1.79627e-05
1.77841e-05
1.76039e-05
1.7422e-05
1.72386e-05
1.70537e-05
1.68674e-05
1.66798e-05
1.6491e-05
1.63009e-05
1.61098e-05
1.59175e-05
1.57243e-05
1.55301e-05
1.53351e-05
1.51393e-05
1.49427e-05
1.47454e-05
1.45475e-05
1.4349e-05
1.97796e-05
1.96245e-05
1.94669e-05
1.93069e-05
1.91444e-05
1.89796e-05
1.88126e-05
1.86434e-05
1.84722e-05
1.8299e-05
1.81239e-05
1.7947e-05
1.77683e-05
1.7588e-05
1.7406e-05
1.72225e-05
1.70376e-05
1.68513e-05
1.66636e-05
1.64747e-05
1.62846e-05
1.60934e-05
1.59012e-05
1.5708e-05
1.55138e-05
1.53188e-05
1.51229e-05
1.49264e-05
1.47291e-05
1.45312e-05
1.43328e-05
1.9762e-05
1.96067e-05
1.94488e-05
1.92885e-05
1.91259e-05
1.89609e-05
1.87937e-05
1.86244e-05
1.8453e-05
1.82797e-05
1.81044e-05
1.79274e-05
1.77486e-05
1.75681e-05
1.73861e-05
1.72025e-05
1.70175e-05
1.68311e-05
1.66434e-05
1.64544e-05
1.62643e-05
1.60731e-05
1.58808e-05
1.56876e-05
1.54934e-05
1.52984e-05
1.51026e-05
1.4906e-05
1.47088e-05
1.45109e-05
1.43125e-05
1.97408e-05
1.95853e-05
1.94272e-05
1.92666e-05
1.91037e-05
1.89385e-05
1.87711e-05
1.86015e-05
1.843e-05
1.82565e-05
1.80811e-05
1.79039e-05
1.77249e-05
1.75443e-05
1.73622e-05
1.71785e-05
1.69934e-05
1.68069e-05
1.66192e-05
1.64302e-05
1.624e-05
1.60487e-05
1.58564e-05
1.56632e-05
1.5469e-05
1.5274e-05
1.50782e-05
1.48817e-05
1.46845e-05
1.44867e-05
1.42883e-05
1.97162e-05
1.95603e-05
1.94019e-05
1.9241e-05
1.90778e-05
1.89123e-05
1.87447e-05
1.85749e-05
1.84031e-05
1.82294e-05
1.80538e-05
1.78765e-05
1.76974e-05
1.75167e-05
1.73344e-05
1.71506e-05
1.69654e-05
1.67788e-05
1.6591e-05
1.64019e-05
1.62117e-05
1.60204e-05
1.58281e-05
1.56348e-05
1.54406e-05
1.52456e-05
1.50498e-05
1.48533e-05
1.46562e-05
1.44584e-05
1.42601e-05
1.96881e-05
1.95318e-05
1.9373e-05
1.92118e-05
1.90483e-05
1.88825e-05
1.87146e-05
1.85446e-05
1.83725e-05
1.81986e-05
1.80228e-05
1.78452e-05
1.7666e-05
1.74851e-05
1.73026e-05
1.71187e-05
1.69334e-05
1.67468e-05
1.65588e-05
1.63697e-05
1.61794e-05
1.59881e-05
1.57957e-05
1.56025e-05
1.54083e-05
1.52133e-05
1.50175e-05
1.48211e-05
1.4624e-05
1.44263e-05
1.42281e-05
1.96564e-05
1.94997e-05
1.93406e-05
1.9179e-05
1.90151e-05
1.8849e-05
1.86808e-05
1.85105e-05
1.83382e-05
1.8164e-05
1.7988e-05
1.78102e-05
1.76307e-05
1.74497e-05
1.72671e-05
1.7083e-05
1.68976e-05
1.67108e-05
1.65228e-05
1.63336e-05
1.61433e-05
1.59519e-05
1.57595e-05
1.55662e-05
1.5372e-05
1.51771e-05
1.49814e-05
1.47849e-05
1.45879e-05
1.43903e-05
1.41922e-05
1.96213e-05
1.94642e-05
1.93046e-05
1.91426e-05
1.89784e-05
1.88119e-05
1.86433e-05
1.84727e-05
1.83001e-05
1.81256e-05
1.79494e-05
1.77713e-05
1.75917e-05
1.74104e-05
1.72277e-05
1.70435e-05
1.68579e-05
1.6671e-05
1.64829e-05
1.62936e-05
1.61032e-05
1.59118e-05
1.57194e-05
1.55261e-05
1.5332e-05
1.5137e-05
1.49413e-05
1.4745e-05
1.4548e-05