/*--------------------------------*- C++ -*----------------------------------*\
  =========                 |
  \\      /  F ield         | OpenFOAM: The Open Source CFD Toolbox
   \\    /   O peration     | Website:  https://openfoam.org
    \\  /    A nd           | Version:  7
     \\/     M anipulation  |
\*---------------------------------------------------------------------------*/
FoamFile
{
    version     2.0;
    format      ascii;
    class       volScalarField;
    location    "24000";
    object      p;
}
// * * * * * * * * * * * * * * * * * * * * * * * * * * * * * * * * * * * * * //

dimensions      [0 2 -2 0 0 0 0];

internalField   nonuniform List<scalar> 
4764
(
-8.14565e-19
-8.0553e-19
-8.20409e-19
-8.12065e-19
-8.23387e-19
-8.13795e-19
-8.02728e-19
-8.15554e-19
-8.08665e-19
-8.15262e-19
-8.07132e-19
-8.08574e-19
-8.01271e-19
-8.21397e-19
-8.12465e-19
-8.14432e-19
-8.08387e-19
-8.16837e-19
-8.162e-19
-8.19005e-19
-8.16799e-19
-8.25022e-19
-8.19207e-19
-8.27666e-19
-8.16092e-19
-8.28374e-19
-8.23507e-19
-8.30249e-19
-8.20398e-19
-8.2117e-19
-8.20535e-19
-8.15197e-19
-8.24672e-19
-8.1998e-19
-8.18256e-19
-7.99282e-19
-8.10662e-19
-8.08105e-19
-8.1127e-19
-8.03566e-19
-8.08036e-19
-7.97392e-19
-8.15159e-19
-8.12046e-19
-8.15309e-19
-8.12668e-19
-8.23883e-19
-8.1472e-19
-8.18839e-19
-8.21599e-19
-8.22672e-19
-8.24324e-19
-8.26276e-19
-8.16468e-19
-8.27666e-19
-8.28507e-19
-8.3117e-19
-8.21769e-19
-8.22672e-19
-8.2124e-19
-8.20429e-19
-8.21448e-19
-8.20162e-19
-8.13925e-19
-8.19702e-19
-8.15487e-19
-8.17442e-19
-8.15129e-19
-7.9861e-19
-8.09646e-19
-8.12716e-19
-8.14478e-19
-8.03464e-19
-8.1672e-19
-8.07983e-19
-8.09661e-19
-8.07275e-19
-8.20809e-19
-8.14087e-19
-8.2408e-19
-8.14452e-19
-8.20131e-19
-8.22358e-19
-8.20348e-19
-8.23345e-19
-8.24836e-19
-8.18465e-19
-8.27443e-19
-8.29957e-19
-8.27701e-19
-8.20061e-19
-8.2161e-19
-8.24783e-19
-8.15251e-19
-8.18876e-19
-8.14151e-19
-8.1086e-19
-8.1903e-19
-8.14637e-19
-8.13093e-19
-8.19e-19
-8.14035e-19
-8.06571e-19
-8.14419e-19
-8.08888e-19
-8.10642e-19
-8.03229e-19
-8.03577e-19
-7.90336e-19
-8.10586e-19
-7.99642e-19
-8.08116e-19
-7.919e-19
-7.99817e-19
-8.0442e-19
-8.06894e-19
-8.14831e-19
-8.00488e-19
-8.12657e-19
-8.09945e-19
-8.1015e-19
-8.11217e-19
-8.14846e-19
-8.13521e-19
-8.22089e-19
-8.11397e-19
-8.16962e-19
-8.20927e-19
-8.25877e-19
-8.20148e-19
-8.30343e-19
-8.16768e-19
-8.27053e-19
-8.24112e-19
-8.26354e-19
-8.15385e-19
-8.23074e-19
-8.22283e-19
-8.12732e-19
-8.1817e-19
-8.15504e-19
-8.20541e-19
-8.13541e-19
-8.19613e-19
-8.13691e-19
-8.18826e-19
-8.11189e-19
-8.11565e-19
-8.13823e-19
-8.05405e-19
-8.13618e-19
-8.05908e-19
-8.06449e-19
-7.92343e-19
-8.0872e-19
-7.96248e-19
-7.98859e-19
-7.91382e-19
-7.98951e-19
-8.05476e-19
-8.01879e-19
-8.10653e-19
-8.07166e-19
-8.0835e-19
-8.05002e-19
-8.16637e-19
-8.12318e-19
-8.1841e-19
-8.18596e-19
-8.1658e-19
-8.10054e-19
-8.12759e-19
-8.17279e-19
-8.23998e-19
-8.23135e-19
-8.31718e-19
-8.19431e-19
-8.2801e-19
-8.21887e-19
-8.24691e-19
-8.19096e-19
-8.27998e-19
-8.21074e-19
-8.14715e-19
-8.21768e-19
-8.14766e-19
-8.20601e-19
-8.14254e-19
-8.14804e-19
-8.17663e-19
-8.12834e-19
-8.14811e-19
-8.1618e-19
-8.11768e-19
-8.0685e-19
-8.1814e-19
-8.00385e-19
-8.1138e-19
-7.9491e-19
-8.09393e-19
-7.87154e-19
-8.03788e-19
-7.9138e-19
-8.07851e-19
-8.14063e-19
-8.08145e-19
-8.25337e-19
-8.1181e-19
-8.14635e-19
-8.07424e-19
-8.14917e-19
-8.11346e-19
-8.2256e-19
-8.16295e-19
-8.20219e-19
-8.13226e-19
-8.19256e-19
-8.14745e-19
-8.2145e-19
-8.22906e-19
-8.30947e-19
-8.21712e-19
-8.3112e-19
-8.22845e-19
-8.21264e-19
-8.17017e-19
-8.20204e-19
-8.22064e-19
-8.21103e-19
-8.20888e-19
-8.15737e-19
-8.18671e-19
-8.15656e-19
-8.10296e-19
-8.14664e-19
-8.14911e-19
-8.1355e-19
-8.13307e-19
-8.08139e-19
-7.94989e-19
-8.0766e-19
-7.96365e-19
-8.03518e-19
-7.94901e-19
-8.08494e-19
-7.94244e-19
-8.06232e-19
-7.96383e-19
-8.10453e-19
-8.13343e-19
-8.07715e-19
-8.21649e-19
-8.03782e-19
-8.10144e-19
-8.12771e-19
-8.13129e-19
-8.06962e-19
-8.21039e-19
-8.17087e-19
-8.17531e-19
-8.13458e-19
-8.22594e-19
-8.13422e-19
-8.24431e-19
-8.25283e-19
-8.2884e-19
-8.23664e-19
-8.30673e-19
-8.25036e-19
-8.22531e-19
-8.17013e-19
-8.17681e-19
-8.23349e-19
-8.21173e-19
-8.17398e-19
-8.14141e-19
-8.23034e-19
-8.1198e-19
-8.12115e-19
-8.12302e-19
-8.16979e-19
-8.09637e-19
-8.13192e-19
-8.13623e-19
-8.00477e-19
-8.09954e-19
-7.98373e-19
-8.00138e-19
-7.93043e-19
-8.04934e-19
-7.9476e-19
-8.07919e-19
-7.97702e-19
-7.99882e-19
-8.09671e-19
-8.05214e-19
-8.21048e-19
-8.07963e-19
-8.16176e-19
-8.1468e-19
-8.13561e-19
-8.04707e-19
-8.20599e-19
-8.14634e-19
-8.19716e-19
-8.09512e-19
-8.25898e-19
-8.16336e-19
-8.26993e-19
-8.2172e-19
-8.29835e-19
-8.20862e-19
-8.26956e-19
-8.21538e-19
-8.27562e-19
-8.20113e-19
-8.14846e-19
-8.22335e-19
-8.17271e-19
-8.14743e-19
-8.16622e-19
-8.21543e-19
-8.18219e-19
-8.1285e-19
-8.17261e-19
-8.17879e-19
-8.11625e-19
-8.14426e-19
-8.1119e-19
-8.07373e-19
-8.14561e-19
-8.0042e-19
-8.07635e-19
-7.96019e-19
-8.03742e-19
-7.93977e-19
-8.14134e-19
-7.95211e-19
-7.97279e-19
-8.11025e-19
-8.06272e-19
-8.21098e-19
-8.13317e-19
-8.15594e-19
-8.08839e-19
-8.18999e-19
-8.13005e-19
-8.18406e-19
-8.18562e-19
-8.23658e-19
-8.06803e-19
-8.24564e-19
-8.18123e-19
-8.25032e-19
-8.18537e-19
-8.27653e-19
-8.19455e-19
-8.25571e-19
-8.18182e-19
-8.26141e-19
-8.19978e-19
-8.18692e-19
-8.23617e-19
-8.14433e-19
-8.17294e-19
-8.17974e-19
-8.15757e-19
-8.21271e-19
-8.15247e-19
-8.19093e-19
-8.14991e-19
-8.19112e-19
-8.0803e-19
-8.13658e-19
-8.04861e-19
-8.14829e-19
-8.03417e-19
-8.11e-19
-7.96934e-19
-8.05528e-19
-7.95558e-19
-8.15559e-19
-7.88933e-19
-8.01607e-19
-8.15083e-19
-8.06313e-19
-8.19442e-19
-8.0764e-19
-8.08324e-19
-8.11212e-19
-8.19999e-19
-8.17964e-19
-8.18367e-19
-8.15186e-19
-8.22201e-19
-8.09824e-19
-8.26177e-19
-8.1582e-19
-8.2381e-19
-8.19063e-19
-8.28346e-19
-8.18123e-19
-8.2466e-19
-8.19062e-19
-8.25201e-19
-8.1692e-19
-8.20835e-19
-8.21976e-19
-8.15594e-19
-8.14932e-19
-8.17026e-19
-8.17395e-19
-8.23156e-19
-8.15166e-19
-8.17944e-19
-8.11777e-19
-8.14786e-19
-8.19179e-19
-8.16278e-19
-8.06391e-19
-8.10382e-19
-8.024e-19
-8.10874e-19
-7.909e-19
-8.07044e-19
-7.97946e-19
-8.07324e-19
-7.87112e-19
-8.06589e-19
-8.11287e-19
-8.10252e-19
-8.21837e-19
-8.07585e-19
-8.14316e-19
-8.11973e-19
-8.18875e-19
-8.18799e-19
-8.18629e-19
-8.14249e-19
-8.14955e-19
-8.14692e-19
-8.22797e-19
-8.19663e-19
-8.21511e-19
-8.17601e-19
-8.30325e-19
-8.22965e-19
-8.22655e-19
-8.16954e-19
-8.24475e-19
-8.20119e-19
-8.21196e-19
-8.22244e-19
-8.15637e-19
-8.12056e-19
-8.14082e-19
-8.18679e-19
-8.16356e-19
-8.14939e-19
-8.09391e-19
-8.11741e-19
-8.08259e-19
-8.12846e-19
-8.14487e-19
-8.08209e-19
-8.06885e-19
-7.98254e-19
-8.03796e-19
-7.93974e-19
-8.04498e-19
-7.907e-19
-8.03628e-19
-7.87783e-19
-8.08015e-19
-8.11476e-19
-8.07919e-19
-8.2087e-19
-8.07267e-19
-8.11754e-19
-8.17034e-19
-8.15637e-19
-8.14919e-19
-8.22419e-19
-8.14504e-19
-8.15315e-19
-8.16879e-19
-8.22374e-19
-8.18618e-19
-8.20832e-19
-8.19962e-19
-8.27263e-19
-8.21599e-19
-8.25033e-19
-8.18222e-19
-8.26436e-19
-8.24453e-19
-8.20544e-19
-8.18086e-19
-8.15384e-19
-8.12399e-19
-8.15643e-19
-8.15791e-19
-8.1661e-19
-8.12532e-19
-8.12742e-19
-8.15973e-19
-8.04919e-19
-8.13996e-19
-8.14531e-19
-8.04832e-19
-8.09824e-19
-8.00501e-19
-8.04931e-19
-7.94851e-19
-8.0392e-19
-7.86796e-19
-8.01279e-19
-7.88799e-19
-8.10187e-19
-8.03646e-19
-8.14354e-19
-8.05189e-19
-8.18318e-19
-8.05531e-19
-8.09943e-19
-8.16286e-19
-8.22163e-19
-8.14653e-19
-8.24392e-19
-8.17097e-19
-8.17381e-19
-8.13566e-19
-8.25038e-19
-8.13806e-19
-8.24165e-19
-8.19954e-19
-8.26152e-19
-8.19888e-19
-8.2503e-19
-8.22997e-19
-8.28996e-19
-8.2354e-19
-8.20375e-19
-8.20423e-19
-8.18595e-19
-8.15862e-19
-8.21652e-19
-8.15639e-19
-8.13732e-19
-8.12794e-19
-8.14053e-19
-8.1181e-19
-8.07435e-19
-8.14026e-19
-8.15419e-19
-8.066e-19
-8.1432e-19
-7.98276e-19
-8.0858e-19
-7.9361e-19
-8.0575e-19
-7.86782e-19
-8.01815e-19
-7.86961e-19
-8.07182e-19
-8.0915e-19
-8.09231e-19
-8.11633e-19
-8.22945e-19
-8.08827e-19
-8.15745e-19
-8.08875e-19
-8.19176e-19
-8.15142e-19
-8.19078e-19
-8.17145e-19
-8.15837e-19
-8.14966e-19
-8.24301e-19
-8.15371e-19
-8.28365e-19
-8.18107e-19
-8.32301e-19
-8.18303e-19
-8.23896e-19
-8.20998e-19
-8.23353e-19
-8.18457e-19
-8.20166e-19
-8.18358e-19
-8.14948e-19
-8.1819e-19
-8.18739e-19
-8.20762e-19
-8.09675e-19
-8.15432e-19
-8.12263e-19
-8.1372e-19
-8.15029e-19
-8.10071e-19
-8.09782e-19
-8.04849e-19
-8.11507e-19
-8.01392e-19
-8.03385e-19
-7.97644e-19
-8.06056e-19
-7.92814e-19
-8.01975e-19
-7.91386e-19
-8.04771e-19
-8.09318e-19
-8.11525e-19
-8.08396e-19
-8.20588e-19
-8.10901e-19
-8.16936e-19
-8.09132e-19
-8.23711e-19
-8.10799e-19
-8.18422e-19
-8.17186e-19
-8.1932e-19
-8.13354e-19
-8.24278e-19
-8.16887e-19
-8.27744e-19
-8.19356e-19
-8.28118e-19
-8.19873e-19
-8.277e-19
-8.24744e-19
-8.25826e-19
-8.19623e-19
-8.20721e-19
-8.1706e-19
-8.15589e-19
-8.16922e-19
-8.19433e-19
-8.17377e-19
-8.119e-19
-8.13627e-19
-8.11862e-19
-8.10177e-19
-8.13885e-19
-8.11035e-19
-8.08248e-19
-8.07639e-19
-8.11235e-19
-8.01103e-19
-8.03857e-19
-8.04207e-19
-8.09302e-19
-7.9153e-19
-8.07043e-19
-7.87876e-19
-8.03629e-19
-8.06729e-19
-8.08826e-19
-8.12253e-19
-8.08459e-19
-8.19876e-19
-8.05878e-19
-8.22874e-19
-8.10985e-19
-8.2245e-19
-8.13278e-19
-8.18813e-19
-8.16017e-19
-8.19322e-19
-8.13454e-19
-8.2565e-19
-8.15568e-19
-8.24996e-19
-8.20859e-19
-8.24437e-19
-8.20282e-19
-8.27305e-19
-8.25064e-19
-8.25976e-19
-8.19498e-19
-8.20137e-19
-8.20485e-19
-8.18548e-19
-8.11411e-19
-8.19461e-19
-8.15255e-19
-8.15645e-19
-8.1586e-19
-8.11233e-19
-8.09645e-19
-8.10517e-19
-8.07373e-19
-8.15669e-19
-8.06679e-19
-8.08382e-19
-8.01362e-19
-8.04801e-19
-8.0299e-19
-8.0581e-19
-7.9304e-19
-8.04423e-19
-7.8539e-19
-8.11314e-19
-8.08455e-19
-8.09214e-19
-8.15945e-19
-8.0657e-19
-8.21695e-19
-8.03088e-19
-8.17906e-19
-8.12102e-19
-8.18919e-19
-8.14411e-19
-8.18371e-19
-8.19415e-19
-8.20122e-19
-8.16364e-19
-8.25163e-19
-8.13349e-19
-8.23145e-19
-8.2202e-19
-8.2744e-19
-8.20324e-19
-8.27959e-19
-8.2137e-19
-8.27143e-19
-8.18125e-19
-8.19562e-19
-8.19453e-19
-8.22219e-19
-8.09062e-19
-8.1777e-19
-8.15191e-19
-8.1564e-19
-8.17651e-19
-8.14249e-19
-8.12751e-19
-8.11343e-19
-8.10001e-19
-8.18638e-19
-8.05165e-19
-8.06334e-19
-7.97941e-19
-8.04891e-19
-7.93781e-19
-7.97482e-19
-7.90367e-19
-8.04093e-19
-7.86061e-19
-8.16663e-19
-8.15081e-19
-8.11212e-19
-8.10627e-19
-8.16008e-19
-8.03359e-19
-8.19838e-19
-8.06897e-19
-8.20381e-19
-8.08805e-19
-8.1849e-19
-8.13177e-19
-8.19328e-19
-8.20037e-19
-8.15948e-19
-8.17495e-19
-8.22166e-19
-8.14823e-19
-8.20298e-19
-8.2585e-19
-8.32147e-19
-8.21122e-19
-8.25999e-19
-8.18745e-19
-8.25003e-19
-8.20103e-19
-8.17174e-19
-8.1955e-19
-8.19361e-19
-8.14055e-19
-8.18508e-19
-8.18056e-19
-8.13117e-19
-8.16524e-19
-8.16746e-19
-8.13782e-19
-8.14624e-19
-8.05331e-19
-8.17558e-19
-8.03302e-19
-8.07723e-19
-7.97273e-19
-8.03626e-19
-7.95649e-19
-7.92854e-19
-7.9228e-19
-8.01087e-19
-7.93825e-19
-8.10969e-19
-8.07948e-19
-8.12177e-19
-8.12822e-19
-8.1754e-19
-8.10557e-19
-8.20046e-19
-8.07972e-19
-8.2065e-19
-8.11528e-19
-8.24872e-19
-8.1318e-19
-8.20997e-19
-8.1824e-19
-8.17612e-19
-8.16777e-19
-8.21596e-19
-8.15235e-19
-8.20659e-19
-8.22149e-19
-8.28818e-19
-8.23096e-19
-8.26015e-19
-8.20774e-19
-8.23242e-19
-8.22481e-19
-8.19288e-19
-8.21479e-19
-8.16597e-19
-8.15487e-19
-8.17038e-19
-8.18005e-19
-8.14124e-19
-8.15669e-19
-8.16789e-19
-8.09657e-19
-8.10886e-19
-8.06236e-19
-8.12814e-19
-8.05211e-19
-8.05107e-19
-7.94073e-19
-8.00586e-19
-7.97445e-19
-8.02964e-19
-7.95544e-19
-7.97855e-19
-7.91628e-19
-8.12144e-19
-8.05671e-19
-8.1252e-19
-8.10921e-19
-8.1639e-19
-8.06367e-19
-8.22819e-19
-8.10516e-19
-8.18529e-19
-8.17033e-19
-8.2311e-19
-8.13863e-19
-8.24505e-19
-8.16669e-19
-8.1837e-19
-8.15349e-19
-8.22261e-19
-8.12632e-19
-8.23726e-19
-8.20011e-19
-8.26787e-19
-8.21605e-19
-8.27008e-19
-8.21575e-19
-8.21318e-19
-8.21056e-19
-8.20643e-19
-8.19223e-19
-8.15613e-19
-8.13983e-19
-8.17143e-19
-8.18665e-19
-8.155e-19
-8.13952e-19
-8.15161e-19
-8.11842e-19
-8.09438e-19
-8.08532e-19
-8.10438e-19
-8.06375e-19
-8.12681e-19
-7.96926e-19
-8.00647e-19
-7.97458e-19
-8.0298e-19
-7.95742e-19
-7.97636e-19
-7.88247e-19
-8.1384e-19
-8.01048e-19
-8.12719e-19
-8.11695e-19
-8.14351e-19
-8.09782e-19
-8.23278e-19
-8.07098e-19
-8.20795e-19
-8.16599e-19
-8.1658e-19
-8.13052e-19
-8.25112e-19
-8.17849e-19
-8.21556e-19
-8.1537e-19
-8.20679e-19
-8.13583e-19
-8.23609e-19
-8.20433e-19
-8.26885e-19
-8.2047e-19
-8.23921e-19
-8.21651e-19
-8.23377e-19
-8.2075e-19
-8.20012e-19
-8.18117e-19
-8.18561e-19
-8.13544e-19
-8.18787e-19
-8.1849e-19
-8.14236e-19
-8.11153e-19
-8.13168e-19
-8.16346e-19
-8.09282e-19
-8.05435e-19
-8.17921e-19
-8.06579e-19
-8.11082e-19
-8.00182e-19
-8.01599e-19
-7.97188e-19
-8.08051e-19
-7.93187e-19
-7.9568e-19
-7.87129e-19
-8.07625e-19
-8.00138e-19
-8.11182e-19
-8.15292e-19
-8.18998e-19
-8.14432e-19
-8.22333e-19
-8.07013e-19
-8.26126e-19
-8.13604e-19
-8.1484e-19
-8.14443e-19
-8.28234e-19
-8.19333e-19
-8.23289e-19
-8.16567e-19
-8.19244e-19
-8.18015e-19
-8.23193e-19
-8.20756e-19
-8.26892e-19
-8.19474e-19
-8.26564e-19
-8.21687e-19
-8.24365e-19
-8.22591e-19
-8.194e-19
-8.18944e-19
-8.15697e-19
-8.16881e-19
-8.18312e-19
-8.17069e-19
-8.13834e-19
-8.07709e-19
-8.11404e-19
-8.18547e-19
-8.10785e-19
-8.03915e-19
-8.17144e-19
-8.0622e-19
-8.12336e-19
-7.96066e-19
-7.99308e-19
-7.98835e-19
-8.08391e-19
-7.95162e-19
-8.00869e-19
-7.94762e-19
-8.13225e-19
-8.02424e-19
-8.07662e-19
-8.0712e-19
-8.14392e-19
-8.1756e-19
-8.1014e-19
-8.19148e-19
-8.09506e-19
-8.1885e-19
-8.08045e-19
-8.22507e-19
-8.10044e-19
-8.23136e-19
-8.18576e-19
-8.21092e-19
-8.16813e-19
-8.1935e-19
-8.17018e-19
-8.23492e-19
-8.22057e-19
-8.25966e-19
-8.18143e-19
-8.2566e-19
-8.21651e-19
-8.23888e-19
-8.2165e-19
-8.1792e-19
-8.20844e-19
-8.175e-19
-8.1741e-19
-8.19769e-19
-8.16952e-19
-8.17244e-19
-8.13867e-19
-8.182e-19
-8.09608e-19
-8.15571e-19
-8.11946e-19
-8.1474e-19
-8.06946e-19
-8.08872e-19
-7.9854e-19
-8.01524e-19
-8.02976e-19
-8.02533e-19
-8.01324e-19
-8.01136e-19
-7.89928e-19
-8.19234e-19
-8.10909e-19
-8.10043e-19
-8.1256e-19
-8.08986e-19
-8.15126e-19
-8.15633e-19
-8.09788e-19
-8.18184e-19
-8.10786e-19
-8.22835e-19
-8.10928e-19
-8.25784e-19
-8.16378e-19
-8.20337e-19
-8.17769e-19
-8.1837e-19
-8.17828e-19
-8.19291e-19
-8.15957e-19
-8.24487e-19
-8.18058e-19
-8.25372e-19
-8.20046e-19
-8.25924e-19
-8.21558e-19
-8.23879e-19
-8.22202e-19
-8.22468e-19
-8.18382e-19
-8.20076e-19
-8.17074e-19
-8.18546e-19
-8.18257e-19
-8.18977e-19
-8.13052e-19
-8.17607e-19
-8.05393e-19
-8.16688e-19
-8.08821e-19
-8.15298e-19
-8.07175e-19
-8.05967e-19
-8.00866e-19
-8.03716e-19
-8.00744e-19
-7.99913e-19
-7.94513e-19
-8.02252e-19
-7.88234e-19
-8.19329e-19
-8.15808e-19
-8.15016e-19
-8.11062e-19
-8.1327e-19
-8.10237e-19
-8.09863e-19
-8.07748e-19
-8.22912e-19
-8.11286e-19
-8.16959e-19
-8.12936e-19
-8.21557e-19
-8.18656e-19
-8.23928e-19
-8.16132e-19
-8.15907e-19
-8.1697e-19
-8.20915e-19
-8.1522e-19
-8.25805e-19
-8.18738e-19
-8.28612e-19
-8.20582e-19
-8.27515e-19
-8.21406e-19
-8.23699e-19
-8.20665e-19
-8.23481e-19
-8.17757e-19
-8.19161e-19
-8.15063e-19
-8.21447e-19
-8.18919e-19
-8.20332e-19
-8.09522e-19
-8.1858e-19
-8.09107e-19
-8.15539e-19
-8.06426e-19
-8.13378e-19
-8.02587e-19
-8.03732e-19
-8.01721e-19
-8.10011e-19
-7.9523e-19
-8.03735e-19
-7.91164e-19
-8.00657e-19
-7.85579e-19
-8.17486e-19
-8.16663e-19
-8.14468e-19
-8.04607e-19
-8.1523e-19
-8.11167e-19
-8.15198e-19
-8.07155e-19
-8.21538e-19
-8.12814e-19
-8.15584e-19
-8.13427e-19
-8.2245e-19
-8.20234e-19
-8.23974e-19
-8.14659e-19
-8.22708e-19
-8.11874e-19
-8.19571e-19
-8.1476e-19
-8.24423e-19
-8.19263e-19
-8.28103e-19
-8.20575e-19
-8.25539e-19
-8.21184e-19
-8.23567e-19
-8.20116e-19
-8.21106e-19
-8.17079e-19
-8.18913e-19
-8.17027e-19
-8.2337e-19
-8.12509e-19
-8.21167e-19
-8.08678e-19
-8.14315e-19
-8.11638e-19
-8.13549e-19
-8.05906e-19
-8.11239e-19
-8.04801e-19
-8.08734e-19
-7.98236e-19
-8.06014e-19
-7.95165e-19
-8.0443e-19
-7.94867e-19
-7.96453e-19
-7.8516e-19
-8.17023e-19
-8.12537e-19
-8.11389e-19
-8.05756e-19
-8.12194e-19
-8.13526e-19
-8.19965e-19
-8.11743e-19
-8.20747e-19
-8.15768e-19
-8.20653e-19
-8.13627e-19
-8.21273e-19
-8.16259e-19
-8.25894e-19
-8.15828e-19
-8.21653e-19
-8.14826e-19
-8.21529e-19
-8.1717e-19
-8.25974e-19
-8.19862e-19
-8.28538e-19
-8.20664e-19
-8.24672e-19
-8.21109e-19
-8.23486e-19
-8.19537e-19
-8.19607e-19
-8.1477e-19
-8.16708e-19
-8.17895e-19
-8.23622e-19
-8.16314e-19
-8.19006e-19
-8.10254e-19
-8.14883e-19
-8.12335e-19
-8.14192e-19
-8.07228e-19
-8.08648e-19
-8.06898e-19
-8.08421e-19
-7.97136e-19
-8.03167e-19
-7.98897e-19
-8.04876e-19
-7.94718e-19
-8.01071e-19
-7.9204e-19
-8.15174e-19
-8.10629e-19
-8.13483e-19
-8.13402e-19
-8.11828e-19
-8.13209e-19
-8.20281e-19
-8.14252e-19
-8.19884e-19
-8.13488e-19
-8.22304e-19
-8.13711e-19
-8.25198e-19
-8.16472e-19
-8.27167e-19
-8.20144e-19
-8.19356e-19
-8.17235e-19
-8.21397e-19
-8.18458e-19
-8.26642e-19
-8.19548e-19
-8.26942e-19
-8.20656e-19
-8.25257e-19
-8.21183e-19
-8.23457e-19
-8.17758e-19
-8.18367e-19
-8.14205e-19
-8.15717e-19
-8.19298e-19
-8.18907e-19
-8.19976e-19
-8.16583e-19
-8.13243e-19
-8.13766e-19
-8.08383e-19
-8.12787e-19
-8.12648e-19
-8.10858e-19
-8.06485e-19
-8.06894e-19
-7.95928e-19
-8.01927e-19
-7.9825e-19
-7.98639e-19
-7.91182e-19
-7.98843e-19
-7.91956e-19
-8.22917e-19
-8.09242e-19
-8.10897e-19
-8.12638e-19
-8.10181e-19
-8.15046e-19
-8.14632e-19
-8.13686e-19
-8.24495e-19
-8.17277e-19
-8.17883e-19
-8.13458e-19
-8.27889e-19
-8.13883e-19
-8.27796e-19
-8.20721e-19
-8.19209e-19
-8.15534e-19
-8.21131e-19
-8.16561e-19
-8.25107e-19
-8.20091e-19
-8.25288e-19
-8.2037e-19
-8.26868e-19
-8.2198e-19
-8.23492e-19
-8.19625e-19
-8.20078e-19
-8.15337e-19
-8.1761e-19
-8.16869e-19
-8.18663e-19
-8.16159e-19
-8.16104e-19
-8.09692e-19
-8.16497e-19
-8.09515e-19
-8.13503e-19
-8.15371e-19
-8.0728e-19
-8.01227e-19
-8.06765e-19
-8.04705e-19
-8.04238e-19
-8.01935e-19
-7.99588e-19
-7.93159e-19
-8.01013e-19
-7.82885e-19
-8.17677e-19
-8.09185e-19
-8.05715e-19
-8.11556e-19
-8.12787e-19
-8.11868e-19
-8.18273e-19
-8.1196e-19
-8.18043e-19
-8.12528e-19
-8.17618e-19
-8.13444e-19
-8.25364e-19
-8.18019e-19
-8.24459e-19
-8.16939e-19
-8.20583e-19
-8.12662e-19
-8.22269e-19
-8.16676e-19
-8.22945e-19
-8.22256e-19
-8.24498e-19
-8.20003e-19
-8.25878e-19
-8.23474e-19
-8.23756e-19
-8.19719e-19
-8.20091e-19
-8.16775e-19
-8.1836e-19
-8.14649e-19
-8.19961e-19
-8.14452e-19
-8.18677e-19
-8.08718e-19
-8.12208e-19
-8.14997e-19
-8.14593e-19
-8.10213e-19
-8.12715e-19
-8.07269e-19
-8.07052e-19
-8.01067e-19
-8.05267e-19
-7.9932e-19
-8.00549e-19
-7.96593e-19
-8.01556e-19
-7.88326e-19
-8.12957e-19
-8.07547e-19
-8.05404e-19
-8.09647e-19
-8.11162e-19
-8.03237e-19
-8.2034e-19
-8.13207e-19
-8.14107e-19
-8.13725e-19
-8.14711e-19
-8.14952e-19
-8.2557e-19
-8.18146e-19
-8.23113e-19
-8.17379e-19
-8.20357e-19
-8.14712e-19
-8.222e-19
-8.1726e-19
-8.22174e-19
-8.19701e-19
-8.2788e-19
-8.20126e-19
-8.26462e-19
-8.21747e-19
-8.23674e-19
-8.18284e-19
-8.21062e-19
-8.20574e-19
-8.19323e-19
-8.16484e-19
-8.19833e-19
-8.1732e-19
-8.19466e-19
-8.10787e-19
-8.12021e-19
-8.09655e-19
-8.09703e-19
-8.11417e-19
-8.13072e-19
-8.11561e-19
-8.07374e-19
-7.95654e-19
-8.12508e-19
-7.98279e-19
-8.03268e-19
-7.97489e-19
-8.03065e-19
-7.93295e-19
-8.1652e-19
-8.1485e-19
-8.1338e-19
-8.14116e-19
-8.09452e-19
-8.08782e-19
-8.20785e-19
-8.13679e-19
-8.17283e-19
-8.19487e-19
-8.1683e-19
-8.1137e-19
-8.25537e-19
-8.14588e-19
-8.21505e-19
-8.18838e-19
-8.1947e-19
-8.15725e-19
-8.22038e-19
-8.18861e-19
-8.21835e-19
-8.16932e-19
-8.26915e-19
-8.21065e-19
-8.24728e-19
-8.2092e-19
-8.23646e-19
-8.20301e-19
-8.24239e-19
-8.20101e-19
-8.16258e-19
-8.16782e-19
-8.19566e-19
-8.18291e-19
-8.16514e-19
-8.12389e-19
-8.1618e-19
-8.07613e-19
-8.13088e-19
-8.09405e-19
-8.0655e-19
-8.08409e-19
-8.07738e-19
-7.95893e-19
-8.07537e-19
-7.99026e-19
-8.0139e-19
-7.91675e-19
-7.98908e-19
-7.89802e-19
-8.17556e-19
-8.1473e-19
-8.16031e-19
-8.16693e-19
-8.11801e-19
-8.10922e-19
-8.18436e-19
-8.16826e-19
-8.23867e-19
-8.18405e-19
-8.13696e-19
-8.17185e-19
-8.24967e-19
-8.19985e-19
-8.23888e-19
-8.15448e-19
-8.22555e-19
-8.17546e-19
-8.21584e-19
-8.159e-19
-8.19399e-19
-8.19874e-19
-8.24455e-19
-8.22464e-19
-8.23798e-19
-8.21686e-19
-8.2384e-19
-8.23134e-19
-8.23272e-19
-8.20895e-19
-8.18246e-19
-8.14728e-19
-8.17004e-19
-8.17105e-19
-8.17898e-19
-8.0983e-19
-8.12751e-19
-8.09208e-19
-8.1367e-19
-8.11787e-19
-8.04976e-19
-8.02562e-19
-8.049e-19
-7.99058e-19
-8.07026e-19
-8.01045e-19
-7.99109e-19
-7.89366e-19
-7.99228e-19
-7.87702e-19
-8.17321e-19
-8.12962e-19
-8.12089e-19
-8.10685e-19
-8.15409e-19
-8.11806e-19
-8.14001e-19
-8.14464e-19
-8.23453e-19
-8.16484e-19
-8.18622e-19
-8.15985e-19
-8.27427e-19
-8.19849e-19
-8.24391e-19
-8.14462e-19
-8.22688e-19
-8.17341e-19
-8.20674e-19
-8.14167e-19
-8.19325e-19
-8.19374e-19
-8.22615e-19
-8.20625e-19
-8.23795e-19
-8.23475e-19
-8.2405e-19
-8.22366e-19
-8.20923e-19
-8.18668e-19
-8.18968e-19
-8.13729e-19
-8.15555e-19
-8.15935e-19
-8.15645e-19
-8.09335e-19
-8.13587e-19
-8.09513e-19
-8.10838e-19
-8.07815e-19
-8.08007e-19
-8.04426e-19
-8.07563e-19
-8.04936e-19
-8.05105e-19
-8.00352e-19
-8.03176e-19
-7.93041e-19
-7.99985e-19
-7.88537e-19
-8.16816e-19
-8.12484e-19
-8.13847e-19
-8.10572e-19
-8.17693e-19
-8.11002e-19
-8.19213e-19
-8.12093e-19
-8.20143e-19
-8.13707e-19
-8.19618e-19
-8.13366e-19
-8.29283e-19
-8.16569e-19
-8.21043e-19
-8.16126e-19
-8.22733e-19
-8.15702e-19
-8.21402e-19
-8.17765e-19
-8.2224e-19
-8.21819e-19
-8.25194e-19
-8.20004e-19
-8.23641e-19
-8.22613e-19
-8.23922e-19
-8.23004e-19
-8.20185e-19
-8.17158e-19
-8.17805e-19
-8.14259e-19
-8.18111e-19
-8.14618e-19
-8.16558e-19
-8.11518e-19
-8.14802e-19
-8.08251e-19
-8.13496e-19
-8.06249e-19
-8.12678e-19
-8.06217e-19
-8.10708e-19
-8.02452e-19
-8.05703e-19
-7.97675e-19
-8.03039e-19
-7.94304e-19
-8.00188e-19
-7.88239e-19
-8.16826e-19
-8.12453e-19
-8.13071e-19
-8.14688e-19
-8.16816e-19
-8.12861e-19
-8.17461e-19
-8.19926e-19
-8.17956e-19
-8.1091e-19
-8.19347e-19
-8.13982e-19
-8.25276e-19
-8.14416e-19
-8.22352e-19
-8.18026e-19
-8.18295e-19
-8.16727e-19
-8.17079e-19
-8.19377e-19
-8.24281e-19
-8.2061e-19
-8.2744e-19
-8.19681e-19
-8.23521e-19
-8.22436e-19
-8.24324e-19
-8.22787e-19
-8.20658e-19
-8.19916e-19
-8.18561e-19
-8.18131e-19
-8.16768e-19
-8.1684e-19
-8.17834e-19
-8.11763e-19
-8.1254e-19
-8.08438e-19
-8.14187e-19
-8.07108e-19
-8.14216e-19
-8.06768e-19
-8.03296e-19
-8.02051e-19
-8.03459e-19
-7.99925e-19
-7.99172e-19
-7.95939e-19
-8.00481e-19
-7.91667e-19
-8.16249e-19
-8.12548e-19
-8.14469e-19
-8.11093e-19
-8.15674e-19
-8.12746e-19
-8.16864e-19
-8.19176e-19
-8.18085e-19
-8.14854e-19
-8.19484e-19
-8.14e-19
-8.27035e-19
-8.15809e-19
-8.24206e-19
-8.17379e-19
-8.16605e-19
-8.15391e-19
-8.16995e-19
-8.20444e-19
-8.22317e-19
-8.19862e-19
-8.27721e-19
-8.18117e-19
-8.23433e-19
-8.1905e-19
-8.25244e-19
-8.19218e-19
-8.20943e-19
-8.19947e-19
-8.17959e-19
-8.191e-19
-8.20102e-19
-8.18851e-19
-8.18799e-19
-8.10479e-19
-8.12483e-19
-8.07909e-19
-8.13146e-19
-8.06248e-19
-8.09675e-19
-8.04719e-19
-8.01596e-19
-8.02118e-19
-8.02546e-19
-7.99768e-19
-8.02554e-19
-7.92862e-19
-8.01148e-19
-7.94274e-19
-8.15013e-19
-8.13214e-19
-8.12378e-19
-8.11037e-19
-8.16743e-19
-8.11357e-19
-8.16443e-19
-8.18302e-19
-8.1791e-19
-8.19157e-19
-8.19673e-19
-8.14714e-19
-8.25527e-19
-8.15935e-19
-8.22389e-19
-8.16872e-19
-8.20978e-19
-8.15534e-19
-8.17885e-19
-8.20515e-19
-8.21072e-19
-8.19727e-19
-8.26124e-19
-8.19297e-19
-8.24065e-19
-8.19293e-19
-8.23415e-19
-8.20944e-19
-8.21239e-19
-8.20641e-19
-8.19811e-19
-8.17758e-19
-8.18485e-19
-8.15929e-19
-8.16057e-19
-8.11749e-19
-8.11658e-19
-8.09101e-19
-8.12353e-19
-8.07576e-19
-8.04948e-19
-8.05058e-19
-8.05546e-19
-8.0234e-19
-8.06309e-19
-7.97124e-19
-8.03033e-19
-7.96047e-19
-8.01502e-19
-7.94609e-19
-8.13276e-19
-8.10168e-19
-8.14046e-19
-8.15739e-19
-8.17245e-19
-8.11459e-19
-8.1849e-19
-8.16842e-19
-8.21901e-19
-8.17166e-19
-8.16608e-19
-8.13133e-19
-8.25104e-19
-8.14545e-19
-8.20992e-19
-8.17759e-19
-8.21327e-19
-8.19478e-19
-8.20525e-19
-8.18503e-19
-8.23736e-19
-8.20034e-19
-8.26089e-19
-8.20551e-19
-8.25551e-19
-8.22558e-19
-8.2522e-19
-8.23753e-19
-8.21212e-19
-8.19385e-19
-8.21313e-19
-8.16749e-19
-8.13067e-19
-8.16083e-19
-8.15462e-19
-8.1281e-19
-8.12919e-19
-8.1071e-19
-8.1397e-19
-8.11523e-19
-8.05736e-19
-8.03069e-19
-8.08058e-19
-8.00535e-19
-8.07184e-19
-7.97318e-19
-7.97875e-19
-7.9398e-19
-8.03533e-19
-7.9452e-19
-8.17087e-19
-8.12723e-19
-8.12481e-19
-8.1565e-19
-8.17994e-19
-8.12759e-19
-8.19267e-19
-8.17334e-19
-8.1935e-19
-8.1382e-19
-8.19131e-19
-8.14115e-19
-8.22956e-19
-8.1511e-19
-8.23259e-19
-8.19998e-19
-8.20287e-19
-8.18456e-19
-8.21236e-19
-8.15224e-19
-8.2276e-19
-8.19647e-19
-8.24852e-19
-8.21723e-19
-8.24036e-19
-8.21916e-19
-8.24314e-19
-8.21753e-19
-8.21657e-19
-8.19557e-19
-8.20768e-19
-8.16858e-19
-8.14951e-19
-8.19077e-19
-8.13637e-19
-8.13523e-19
-8.1339e-19
-8.13188e-19
-8.10356e-19
-8.08672e-19
-8.09843e-19
-8.06686e-19
-8.06216e-19
-7.99892e-19
-8.05742e-19
-7.97384e-19
-7.97833e-19
-7.96557e-19
-8.02569e-19
-7.91287e-19
-8.17248e-19
-8.16415e-19
-8.12935e-19
-8.10601e-19
-8.16734e-19
-8.13976e-19
-8.1728e-19
-8.18683e-19
-8.1941e-19
-8.17506e-19
-8.21809e-19
-8.20135e-19
-8.24267e-19
-8.14821e-19
-8.23556e-19
-8.18034e-19
-8.22816e-19
-8.16657e-19
-8.22137e-19
-8.15965e-19
-8.22327e-19
-8.18601e-19
-8.24307e-19
-8.20506e-19
-8.22729e-19
-8.21261e-19
-8.2392e-19
-8.20868e-19
-8.22259e-19
-8.1893e-19
-8.18865e-19
-8.15869e-19
-8.1877e-19
-8.16528e-19
-8.15961e-19
-8.12082e-19
-8.13091e-19
-8.10934e-19
-8.06656e-19
-8.06308e-19
-8.07616e-19
-8.0517e-19
-8.04956e-19
-8.02065e-19
-8.04032e-19
-7.99508e-19
-8.02979e-19
-7.94759e-19
-7.9851e-19
-7.90728e-19
-8.20721e-19
-8.1261e-19
-8.15404e-19
-8.10126e-19
-8.17243e-19
-8.18784e-19
-8.16276e-19
-8.1668e-19
-8.2072e-19
-8.15015e-19
-8.2211e-19
-8.14842e-19
-8.25473e-19
-8.16533e-19
-8.2272e-19
-8.17411e-19
-8.22638e-19
-8.17404e-19
-8.2111e-19
-8.16323e-19
-8.22564e-19
-8.19508e-19
-8.2413e-19
-8.20045e-19
-8.21468e-19
-8.21056e-19
-8.25092e-19
-8.20892e-19
-8.20282e-19
-8.18908e-19
-8.20662e-19
-8.16536e-19
-8.17248e-19
-8.15979e-19
-8.17051e-19
-8.13192e-19
-8.13411e-19
-8.07992e-19
-8.11733e-19
-8.07295e-19
-8.10063e-19
-8.05929e-19
-8.07568e-19
-8.03381e-19
-7.99528e-19
-7.99068e-19
-8.05183e-19
-7.93081e-19
-8.00557e-19
-7.87788e-19
-8.20003e-19
-8.13258e-19
-8.14771e-19
-8.10296e-19
-8.17139e-19
-8.17563e-19
-8.17532e-19
-8.16968e-19
-8.18055e-19
-8.15023e-19
-8.21029e-19
-8.14135e-19
-8.25952e-19
-8.16308e-19
-8.20929e-19
-8.16453e-19
-8.21778e-19
-8.15868e-19
-8.2089e-19
-8.15873e-19
-8.22548e-19
-8.20658e-19
-8.23701e-19
-8.20464e-19
-8.22789e-19
-8.20683e-19
-8.23886e-19
-8.21047e-19
-8.20739e-19
-8.18869e-19
-8.21261e-19
-8.17314e-19
-8.17694e-19
-8.15873e-19
-8.17555e-19
-8.12351e-19
-8.16314e-19
-8.05282e-19
-8.11673e-19
-8.08156e-19
-8.07974e-19
-8.08213e-19
-8.08312e-19
-8.02415e-19
-8.00281e-19
-7.98608e-19
-8.06249e-19
-7.94162e-19
-8.00879e-19
-7.89422e-19
-8.16641e-19
-8.15188e-19
-8.13975e-19
-8.13657e-19
-8.17746e-19
-8.1541e-19
-8.21179e-19
-8.18976e-19
-8.1714e-19
-8.1822e-19
-8.20313e-19
-8.16263e-19
-8.22172e-19
-8.15734e-19
-8.21303e-19
-8.15612e-19
-8.21351e-19
-8.15253e-19
-8.19851e-19
-8.17784e-19
-8.2272e-19
-8.19856e-19
-8.22873e-19
-8.19967e-19
-8.23665e-19
-8.19557e-19
-8.23322e-19
-8.21039e-19
-8.21634e-19
-8.19321e-19
-8.20783e-19
-8.18419e-19
-8.18141e-19
-8.15823e-19
-8.1837e-19
-8.12272e-19
-8.15431e-19
-8.10318e-19
-8.09106e-19
-8.07855e-19
-8.0719e-19
-8.08425e-19
-8.05736e-19
-7.99796e-19
-8.02043e-19
-7.97981e-19
-8.0116e-19
-7.94941e-19
-7.9974e-19
-7.93925e-19
-8.18712e-19
-8.13361e-19
-8.15226e-19
-8.13091e-19
-8.19099e-19
-8.11791e-19
-8.19854e-19
-8.16048e-19
-8.1883e-19
-8.17014e-19
-8.20676e-19
-8.17536e-19
-8.20831e-19
-8.16522e-19
-8.2468e-19
-8.16642e-19
-8.19926e-19
-8.16521e-19
-8.19864e-19
-8.17836e-19
-8.2264e-19
-8.2098e-19
-8.23168e-19
-8.19378e-19
-8.23483e-19
-8.2007e-19
-8.22798e-19
-8.20873e-19
-8.21304e-19
-8.19531e-19
-8.20548e-19
-8.18135e-19
-8.17664e-19
-8.16957e-19
-8.17089e-19
-8.10674e-19
-8.12848e-19
-8.11111e-19
-8.0979e-19
-8.07901e-19
-8.08408e-19
-8.06121e-19
-8.07237e-19
-8.00977e-19
-8.06477e-19
-7.96871e-19
-8.0045e-19
-7.94543e-19
-8.02447e-19
-7.91438e-19
-8.18868e-19
-8.11801e-19
-8.14667e-19
-8.13539e-19
-8.17609e-19
-8.15142e-19
-8.19598e-19
-8.14884e-19
-8.2251e-19
-8.16279e-19
-8.21062e-19
-8.16714e-19
-8.22149e-19
-8.16964e-19
-8.22819e-19
-8.16007e-19
-8.2113e-19
-8.15434e-19
-8.206e-19
-8.16805e-19
-8.22382e-19
-8.20237e-19
-8.2447e-19
-8.19889e-19
-8.22848e-19
-8.20966e-19
-8.22941e-19
-8.20208e-19
-8.21975e-19
-8.20635e-19
-8.19214e-19
-8.18127e-19
-8.18451e-19
-8.16466e-19
-8.17801e-19
-8.1245e-19
-8.11161e-19
-8.09491e-19
-8.0985e-19
-8.07123e-19
-8.08941e-19
-8.02447e-19
-8.0827e-19
-8.00894e-19
-8.03725e-19
-7.98532e-19
-8.00958e-19
-7.94549e-19
-8.03447e-19
-7.91662e-19
-8.18558e-19
-8.14658e-19
-8.16708e-19
-8.13893e-19
-8.16496e-19
-8.15055e-19
-8.19189e-19
-8.16622e-19
-8.19886e-19
-8.16699e-19
-8.2181e-19
-8.17199e-19
-8.25089e-19
-8.14658e-19
-8.20853e-19
-8.16417e-19
-8.1957e-19
-8.14254e-19
-8.20473e-19
-8.17124e-19
-8.22989e-19
-8.19962e-19
-8.2372e-19
-8.20425e-19
-8.22318e-19
-8.2148e-19
-8.22482e-19
-8.19467e-19
-8.22232e-19
-8.19794e-19
-8.19687e-19
-8.18864e-19
-8.18481e-19
-8.1733e-19
-8.17241e-19
-8.13966e-19
-8.14014e-19
-8.10104e-19
-8.09323e-19
-8.05747e-19
-8.07193e-19
-8.0384e-19
-8.07318e-19
-8.00708e-19
-8.02735e-19
-8.00063e-19
-8.01868e-19
-7.92927e-19
-8.01266e-19
-7.92312e-19
-8.17908e-19
-8.15054e-19
-8.17862e-19
-8.12364e-19
-8.181e-19
-8.13567e-19
-8.19701e-19
-8.1817e-19
-8.1856e-19
-8.17141e-19
-8.23033e-19
-8.1619e-19
-8.22483e-19
-8.14632e-19
-8.22208e-19
-8.15726e-19
-8.21537e-19
-8.15383e-19
-8.20257e-19
-8.17665e-19
-8.23084e-19
-8.19194e-19
-8.23692e-19
-8.20994e-19
-8.22687e-19
-8.22313e-19
-8.22388e-19
-8.20467e-19
-8.21969e-19
-8.19431e-19
-8.19482e-19
-8.18914e-19
-8.18581e-19
-8.15711e-19
-8.16772e-19
-8.11739e-19