/*--------------------------------*- C++ -*----------------------------------*\
  =========                 |
  \\      /  F ield         | OpenFOAM: The Open Source CFD Toolbox
   \\    /   O peration     | Website:  https://openfoam.org
    \\  /    A nd           | Version:  7
     \\/     M anipulation  |
\*---------------------------------------------------------------------------*/
FoamFile
{
    version     2.0;
    format      ascii;
    class       volScalarField;
    location    "12000";
    object      nut;
}
// * * * * * * * * * * * * * * * * * * * * * * * * * * * * * * * * * * * * * //

dimensions      [0 2 -1 0 0 0 0];

internalField   nonuniform List<scalar> 
4850
(
2.43833e-15
2.4408e-15
2.43357e-15
2.43604e-15
2.43846e-15
2.42878e-15
2.43126e-15
2.4337e-15
2.43608e-15
2.43844e-15
2.42396e-15
2.42645e-15
2.42889e-15
2.43129e-15
2.43364e-15
2.4359e-15
2.41912e-15
2.42162e-15
2.42407e-15
2.42647e-15
2.42882e-15
2.4311e-15
2.43329e-15
2.41427e-15
2.41677e-15
2.41923e-15
2.42163e-15
2.42398e-15
2.42626e-15
2.42847e-15
2.43059e-15
2.43267e-15
2.40941e-15
2.41191e-15
2.41437e-15
2.41677e-15
2.41912e-15
2.42141e-15
2.42362e-15
2.42575e-15
2.42782e-15
2.42976e-15
2.40454e-15
2.40704e-15
2.40949e-15
2.4119e-15
2.41425e-15
2.41654e-15
2.41875e-15
2.42089e-15
2.42295e-15
2.42491e-15
2.42677e-15
2.42857e-15
2.43026e-15
2.43183e-15
2.39966e-15
2.40216e-15
2.40462e-15
2.40702e-15
2.40937e-15
2.41166e-15
2.41387e-15
2.416e-15
2.41806e-15
2.42002e-15
2.42189e-15
2.42368e-15
2.42536e-15
2.42693e-15
2.42835e-15
2.42969e-15
2.4309e-15
2.43196e-15
2.39479e-15
2.39728e-15
2.39973e-15
2.40214e-15
2.40448e-15
2.40676e-15
2.40897e-15
2.41111e-15
2.41316e-15
2.41512e-15
2.41699e-15
2.41877e-15
2.42045e-15
2.42201e-15
2.42344e-15
2.42476e-15
2.42596e-15
2.42703e-15
2.42793e-15
2.42871e-15
2.38992e-15
2.3924e-15
2.39485e-15
2.39725e-15
2.39959e-15
2.40186e-15
2.40407e-15
2.4062e-15
2.40825e-15
2.41021e-15
2.41208e-15
2.41385e-15
2.41552e-15
2.41707e-15
2.41851e-15
2.41982e-15
2.42102e-15
2.42207e-15
2.42298e-15
2.42376e-15
2.42438e-15
2.4249e-15
2.42528e-15
2.4255e-15
2.38505e-15
2.38753e-15
2.38997e-15
2.39236e-15
2.39469e-15
2.39696e-15
2.39917e-15
2.40129e-15
2.40334e-15
2.40529e-15
2.40715e-15
2.40892e-15
2.41058e-15
2.41213e-15
2.41356e-15
2.41487e-15
2.41605e-15
2.41711e-15
2.41802e-15
2.41879e-15
2.41942e-15
2.41993e-15
2.4203e-15
2.42052e-15
2.42057e-15
2.42051e-15
2.42031e-15
2.41996e-15
2.41946e-15
2.38019e-15
2.38266e-15
2.38509e-15
2.38747e-15
2.3898e-15
2.39207e-15
2.39426e-15
2.39638e-15
2.39842e-15
2.40037e-15
2.40222e-15
2.40398e-15
2.40563e-15
2.40718e-15
2.4086e-15
2.4099e-15
2.41108e-15
2.41213e-15
2.41304e-15
2.41381e-15
2.41444e-15
2.41495e-15
2.41531e-15
2.41552e-15
2.41558e-15
2.41552e-15
2.41531e-15
2.41496e-15
2.41445e-15
2.41378e-15
2.41301e-15
2.4121e-15
2.37535e-15
2.37781e-15
2.38023e-15
2.3826e-15
2.38492e-15
2.38717e-15
2.38936e-15
2.39147e-15
2.3935e-15
2.39544e-15
2.39729e-15
2.39904e-15
2.40068e-15
2.40222e-15
2.40364e-15
2.40493e-15
2.40611e-15
2.40715e-15
2.40805e-15
2.40882e-15
2.40945e-15
2.40995e-15
2.41031e-15
2.41052e-15
2.41058e-15
2.41051e-15
2.4103e-15
2.40994e-15
2.40944e-15
2.40878e-15
2.40799e-15
2.40708e-15
2.406e-15
2.40484e-15
2.37052e-15
2.37297e-15
2.37537e-15
2.37773e-15
2.38004e-15
2.38228e-15
2.38446e-15
2.38656e-15
2.38858e-15
2.39051e-15
2.39235e-15
2.3941e-15
2.39573e-15
2.39726e-15
2.39867e-15
2.39996e-15
2.40112e-15
2.40216e-15
2.40306e-15
2.40383e-15
2.40446e-15
2.40495e-15
2.4053e-15
2.40551e-15
2.40558e-15
2.4055e-15
2.40529e-15
2.40492e-15
2.40442e-15
2.40376e-15
2.40297e-15
2.40205e-15
2.40098e-15
2.3998e-15
2.36571e-15
2.36814e-15
2.37053e-15
2.37288e-15
2.37517e-15
2.37741e-15
2.37957e-15
2.38166e-15
2.38367e-15
2.3856e-15
2.38743e-15
2.38916e-15
2.39078e-15
2.3923e-15
2.3937e-15
2.39499e-15
2.39614e-15
2.39717e-15
2.39807e-15
2.39883e-15
2.39946e-15
2.39994e-15
2.40029e-15
2.4005e-15
2.40056e-15
2.40049e-15
2.40027e-15
2.3999e-15
2.3994e-15
2.39874e-15
2.39795e-15
2.39702e-15
2.39596e-15
2.39476e-15
2.36091e-15
2.36333e-15
2.36571e-15
2.36804e-15
2.37032e-15
2.37254e-15
2.37469e-15
2.37677e-15
2.37877e-15
2.38068e-15
2.3825e-15
2.38422e-15
2.38584e-15
2.38735e-15
2.38874e-15
2.39002e-15
2.39117e-15
2.39219e-15
2.39308e-15
2.39383e-15
2.39446e-15
2.39494e-15
2.39529e-15
2.39549e-15
2.39555e-15
2.39547e-15
2.39525e-15
2.39489e-15
2.39438e-15
2.39372e-15
2.39293e-15
2.392e-15
2.39093e-15
2.38973e-15
2.35614e-15
2.35854e-15
2.3609e-15
2.36322e-15
2.36549e-15
2.36769e-15
2.36983e-15
2.3719e-15
2.37388e-15
2.37578e-15
2.37759e-15
2.3793e-15
2.38091e-15
2.3824e-15
2.38379e-15
2.38505e-15
2.38619e-15
2.38721e-15
2.38809e-15
2.38884e-15
2.38946e-15
2.38994e-15
2.39028e-15
2.39048e-15
2.39054e-15
2.39046e-15
2.39024e-15
2.38987e-15
2.38936e-15
2.38871e-15
2.38792e-15
2.38699e-15
2.38592e-15
2.38471e-15
2.3514e-15
2.35378e-15
2.35612e-15
2.35842e-15
2.36067e-15
2.36286e-15
2.36499e-15
2.36704e-15
2.36901e-15
2.3709e-15
2.37269e-15
2.37439e-15
2.37598e-15
2.37747e-15
2.37884e-15
2.3801e-15
2.38123e-15
2.38224e-15
2.38311e-15
2.38386e-15
2.38447e-15
2.38495e-15
2.38528e-15
2.38548e-15
2.38554e-15
2.38546e-15
2.38523e-15
2.38487e-15
2.38436e-15
2.38371e-15
2.38291e-15
2.38198e-15
2.38092e-15
2.37971e-15
2.34668e-15
2.34904e-15
2.35136e-15
2.35364e-15
2.35587e-15
2.35805e-15
2.36016e-15
2.3622e-15
2.36415e-15
2.36603e-15
2.36781e-15
2.36949e-15
2.37107e-15
2.37255e-15
2.37391e-15
2.37516e-15
2.37628e-15
2.37728e-15
2.37815e-15
2.37889e-15
2.37949e-15
2.37996e-15
2.3803e-15
2.38049e-15
2.38055e-15
2.38046e-15
2.38024e-15
2.37987e-15
2.37936e-15
2.37871e-15
2.37792e-15
2.37699e-15
2.37592e-15
2.37472e-15
2.34199e-15
2.34432e-15
2.34663e-15
2.34889e-15
2.3511e-15
2.35326e-15
2.35535e-15
2.35738e-15
2.35932e-15
2.36118e-15
2.36294e-15
2.36461e-15
2.36618e-15
2.36764e-15
2.36899e-15
2.37023e-15
2.37134e-15
2.37233e-15
2.37319e-15
2.37392e-15
2.37452e-15
2.37499e-15
2.37532e-15
2.37551e-15
2.37557e-15
2.37548e-15
2.37525e-15
2.37489e-15
2.37438e-15
2.37373e-15
2.37294e-15
2.37201e-15
2.37095e-15
2.36975e-15
2.33733e-15
2.33964e-15
2.34192e-15
2.34416e-15
2.34636e-15
2.3485e-15
2.35057e-15
2.35258e-15
2.3545e-15
2.35635e-15
2.3581e-15
2.35975e-15
2.36131e-15
2.36276e-15
2.36409e-15
2.36532e-15
2.36642e-15
2.3674e-15
2.36825e-15
2.36898e-15
2.36957e-15
2.37003e-15
2.37036e-15
2.37055e-15
2.3706e-15
2.37051e-15
2.37029e-15
2.36992e-15
2.36941e-15
2.36876e-15
2.36798e-15
2.36705e-15
2.36599e-15
2.3648e-15
2.3327e-15
2.33498e-15
2.33724e-15
2.33947e-15
2.34164e-15
2.34376e-15
2.34582e-15
2.34781e-15
2.34971e-15
2.35154e-15
2.35328e-15
2.35492e-15
2.35646e-15
2.35789e-15
2.35922e-15
2.36043e-15
2.36152e-15
2.36249e-15
2.36333e-15
2.36405e-15
2.36464e-15
2.36509e-15
2.36541e-15
2.3656e-15
2.36565e-15
2.36556e-15
2.36533e-15
2.36497e-15
2.36446e-15
2.36382e-15
2.36303e-15
2.36211e-15
2.36106e-15
2.35987e-15
2.35856e-15
2.32809e-15
2.33036e-15
2.3326e-15
2.3348e-15
2.33695e-15
2.33905e-15
2.34109e-15
2.34306e-15
2.34495e-15
2.34676e-15
2.34848e-15
2.3501e-15
2.35163e-15
2.35305e-15
2.35436e-15
2.35556e-15
2.35664e-15
2.3576e-15
2.35843e-15
2.35914e-15
2.35972e-15
2.36017e-15
2.36049e-15
2.36067e-15
2.36072e-15
2.36063e-15
2.3604e-15
2.36004e-15
2.35954e-15
2.35889e-15
2.35811e-15
2.35719e-15
2.35614e-15
2.35497e-15
2.35369e-15
2.32348e-15
2.32575e-15
2.32798e-15
2.33016e-15
2.3323e-15
2.33438e-15
2.3364e-15
2.33834e-15
2.34022e-15
2.34201e-15
2.34371e-15
2.34532e-15
2.34682e-15
2.34823e-15
2.34953e-15
2.35071e-15
2.35178e-15
2.35273e-15
2.35356e-15
2.35426e-15
2.35483e-15
2.35528e-15
2.35559e-15
2.35577e-15
2.35581e-15
2.35572e-15
2.3555e-15
2.35513e-15
2.35463e-15
2.35399e-15
2.35321e-15
2.3523e-15
2.35125e-15
2.35008e-15
2.34881e-15
2.31884e-15
2.32113e-15
2.32336e-15
2.32554e-15
2.32767e-15
2.32973e-15
2.33173e-15
2.33366e-15
2.33551e-15
2.33728e-15
2.33897e-15
2.34056e-15
2.34205e-15
2.34344e-15
2.34472e-15
2.34589e-15
2.34695e-15
2.34789e-15
2.34871e-15
2.3494e-15
2.34996e-15
2.3504e-15
2.35071e-15
2.35089e-15
2.35093e-15
2.35084e-15
2.35061e-15
2.35025e-15
2.34975e-15
2.34912e-15
2.34834e-15
2.34743e-15
2.34639e-15
2.34523e-15
2.31417e-15
2.31648e-15
2.31872e-15
2.32091e-15
2.32304e-15
2.3251e-15
2.32709e-15
2.329e-15
2.33084e-15
2.33259e-15
2.33426e-15
2.33583e-15
2.3373e-15
2.33868e-15
2.33995e-15
2.3411e-15
2.34215e-15
2.34308e-15
2.34388e-15
2.34457e-15
2.34512e-15
2.34556e-15
2.34586e-15
2.34603e-15
2.34608e-15
2.34598e-15
2.34576e-15
2.3454e-15
2.3449e-15
2.34427e-15
2.3435e-15
2.34259e-15
2.34155e-15
2.3404e-15
2.30947e-15
2.31179e-15
2.31405e-15
2.31625e-15
2.31838e-15
2.32045e-15
2.32244e-15
2.32435e-15
2.32618e-15
2.32792e-15
2.32957e-15
2.33113e-15
2.33259e-15
2.33395e-15
2.3352e-15
2.33634e-15
2.33737e-15
2.33829e-15
2.33909e-15
2.33976e-15
2.34031e-15
2.34074e-15
2.34104e-15
2.34121e-15
2.34125e-15
2.34116e-15
2.34093e-15
2.34057e-15
2.34008e-15
2.33945e-15
2.33869e-15
2.33778e-15
2.33674e-15
2.3356e-15
2.30472e-15
2.30706e-15
2.30934e-15
2.31155e-15
2.3137e-15
2.31577e-15
2.31777e-15
2.31968e-15
2.32151e-15
2.32325e-15
2.3249e-15
2.32645e-15
2.3279e-15
2.32924e-15
2.33048e-15
2.33161e-15
2.33263e-15
2.33354e-15
2.33432e-15
2.33499e-15
2.33553e-15
2.33595e-15
2.33625e-15
2.33641e-15
2.33645e-15
2.33636e-15
2.33613e-15
2.33578e-15
2.33529e-15
2.33467e-15
2.33391e-15
2.333e-15
2.33194e-15
2.3308e-15
2.29993e-15
2.30228e-15
2.30458e-15
2.30681e-15
2.30897e-15
2.31105e-15
2.31306e-15
2.31498e-15
2.31682e-15
2.31856e-15
2.32021e-15
2.32176e-15
2.3232e-15
2.32455e-15
2.32578e-15
2.3269e-15
2.32791e-15
2.32881e-15
2.32959e-15
2.33025e-15
2.33078e-15
2.3312e-15
2.33149e-15
2.33165e-15
2.33169e-15
2.33159e-15
2.33137e-15
2.33102e-15
2.33053e-15
2.32991e-15
2.32915e-15
2.32823e-15
2.32714e-15
2.29508e-15
2.29746e-15
2.29977e-15
2.30202e-15
2.30419e-15
2.30629e-15
2.30831e-15
2.31024e-15
2.31208e-15
2.31383e-15
2.31548e-15
2.31704e-15
2.31849e-15
2.31983e-15
2.32106e-15
2.32218e-15
2.32319e-15
2.32408e-15
2.32486e-15
2.32551e-15
2.32605e-15
2.32646e-15
2.32674e-15
2.32691e-15
2.32694e-15
2.32685e-15
2.32662e-15
2.32627e-15
2.32578e-15
2.32515e-15
2.32439e-15
2.32345e-15
2.32233e-15
2.29018e-15
2.29258e-15
2.29491e-15
2.29717e-15
2.29937e-15
2.30148e-15
2.30351e-15
2.30545e-15
2.3073e-15
2.30906e-15
2.31072e-15
2.31228e-15
2.31373e-15
2.31508e-15
2.31632e-15
2.31744e-15
2.31845e-15
2.31934e-15
2.32011e-15
2.32077e-15
2.3213e-15
2.32171e-15
2.32199e-15
2.32215e-15
2.32219e-15
2.32209e-15
2.32186e-15
2.32151e-15
2.32101e-15
2.32038e-15
2.31961e-15
2.31867e-15
2.28524e-15
2.28765e-15
2.29e-15
2.29228e-15
2.29449e-15
2.29662e-15
2.29866e-15
2.30062e-15
2.30248e-15
2.30425e-15
2.30591e-15
2.30748e-15
2.30894e-15
2.31029e-15
2.31153e-15
2.31266e-15
2.31367e-15
2.31456e-15
2.31534e-15
2.31599e-15
2.31652e-15
2.31693e-15
2.31722e-15
2.31737e-15
2.31741e-15
2.31731e-15
2.31708e-15
2.31672e-15
2.31622e-15
2.31558e-15
2.3148e-15
2.31387e-15
2.28024e-15
2.28267e-15
2.28504e-15
2.28734e-15
2.28956e-15
2.2917e-15
2.29376e-15
2.29573e-15
2.2976e-15
2.29938e-15
2.30106e-15
2.30263e-15
2.3041e-15
2.30545e-15
2.3067e-15
2.30783e-15
2.30884e-15
2.30974e-15
2.31052e-15
2.31117e-15
2.31171e-15
2.31212e-15
2.3124e-15
2.31256e-15
2.31259e-15
2.31249e-15
2.31226e-15
2.31189e-15
2.31139e-15
2.31075e-15
2.30997e-15
2.30906e-15
2.27518e-15
2.27763e-15
2.28002e-15
2.28234e-15
2.28458e-15
2.28674e-15
2.28881e-15
2.29079e-15
2.29268e-15
2.29447e-15
2.29615e-15
2.29773e-15
2.29921e-15
2.30057e-15
2.30182e-15
2.30296e-15
2.30398e-15
2.30488e-15
2.30566e-15
2.30631e-15
2.30685e-15
2.30726e-15
2.30754e-15
2.3077e-15
2.30773e-15
2.30763e-15
2.30739e-15
2.30702e-15
2.30651e-15
2.30587e-15
2.3051e-15
2.30421e-15
2.27007e-15
2.27254e-15
2.27495e-15
2.27728e-15
2.27954e-15
2.28172e-15
2.28381e-15
2.2858e-15
2.2877e-15
2.2895e-15
2.2912e-15
2.29279e-15
2.29427e-15
2.29564e-15
2.2969e-15
2.29804e-15
2.29906e-15
2.29996e-15
2.30075e-15
2.30141e-15
2.30194e-15
2.30236e-15
2.30264e-15
2.3028e-15
2.30282e-15
2.30272e-15
2.30248e-15
2.30211e-15
2.3016e-15
2.30096e-15
2.30019e-15
2.29932e-15
2.2649e-15
2.26739e-15
2.26982e-15
2.27217e-15
2.27445e-15
2.27664e-15
2.27875e-15
2.28076e-15
2.28267e-15
2.28448e-15
2.28619e-15
2.28779e-15
2.28928e-15
2.29065e-15
2.29192e-15
2.29306e-15
2.29409e-15
2.295e-15
2.29579e-15
2.29645e-15
2.29699e-15
2.2974e-15
2.29769e-15
2.29784e-15
2.29787e-15
2.29776e-15
2.29752e-15
2.29715e-15
2.29664e-15
2.296e-15
2.29524e-15
2.29438e-15
2.25968e-15
2.26219e-15
2.26463e-15
2.26701e-15
2.2693e-15
2.27151e-15
2.27363e-15
2.27566e-15
2.27758e-15
2.27941e-15
2.28113e-15
2.28273e-15
2.28423e-15
2.28562e-15
2.28689e-15
2.28804e-15
2.28907e-15
2.28999e-15
2.29078e-15
2.29144e-15
2.29198e-15
2.2924e-15
2.29268e-15
2.29284e-15
2.29287e-15
2.29276e-15
2.29252e-15
2.29214e-15
2.29164e-15
2.291e-15
2.29025e-15
2.2894e-15
2.2544e-15
2.25693e-15
2.25939e-15
2.26179e-15
2.2641e-15
2.26633e-15
2.26846e-15
2.2705e-15
2.27244e-15
2.27428e-15
2.27601e-15
2.27763e-15
2.27913e-15
2.28053e-15
2.2818e-15
2.28296e-15
2.284e-15
2.28492e-15
2.28571e-15
2.28638e-15
2.28693e-15
2.28734e-15
2.28763e-15
2.28779e-15
2.28781e-15
2.28771e-15
2.28746e-15
2.28709e-15
2.28658e-15
2.28595e-15
2.2852e-15
2.28436e-15
2.24906e-15
2.25161e-15
2.25409e-15
2.2565e-15
2.25884e-15
2.26108e-15
2.26323e-15
2.26529e-15
2.26724e-15
2.26909e-15
2.27083e-15
2.27246e-15
2.27398e-15
2.27538e-15
2.27667e-15
2.27783e-15
2.27887e-15
2.2798e-15
2.2806e-15
2.28127e-15
2.28181e-15
2.28223e-15
2.28252e-15
2.28268e-15
2.28271e-15
2.2826e-15
2.28236e-15
2.28199e-15
2.28148e-15
2.28085e-15
2.2801e-15
2.27926e-15
2.24366e-15
2.24623e-15
2.24873e-15
2.25117e-15
2.25352e-15
2.25578e-15
2.25795e-15
2.26002e-15
2.26199e-15
2.26385e-15
2.2656e-15
2.26725e-15
2.26877e-15
2.27018e-15
2.27147e-15
2.27264e-15
2.27369e-15
2.27462e-15
2.27542e-15
2.2761e-15
2.27665e-15
2.27707e-15
2.27736e-15
2.27752e-15
2.27755e-15
2.27744e-15
2.2772e-15
2.27683e-15
2.27632e-15
2.27569e-15
2.27494e-15
2.27409e-15
2.2382e-15
2.24079e-15
2.24332e-15
2.24577e-15
2.24814e-15
2.25042e-15
2.25261e-15
2.25469e-15
2.25668e-15
2.25855e-15
2.26032e-15
2.26197e-15
2.26351e-15
2.26492e-15
2.26622e-15
2.2674e-15
2.26846e-15
2.26939e-15
2.2702e-15
2.27088e-15
2.27143e-15
2.27185e-15
2.27215e-15
2.27231e-15
2.27233e-15
2.27223e-15
2.27199e-15
2.27161e-15
2.27111e-15
2.27047e-15
2.2697e-15
2.26885e-15
2.23268e-15
2.23529e-15
2.23784e-15
2.24031e-15
2.2427e-15
2.245e-15
2.2472e-15
2.24931e-15
2.25131e-15
2.2532e-15
2.25497e-15
2.25664e-15
2.25818e-15
2.25961e-15
2.26092e-15
2.2621e-15
2.26316e-15
2.2641e-15
2.26491e-15
2.2656e-15
2.26615e-15
2.26658e-15
2.26687e-15
2.26704e-15
2.26706e-15
2.26696e-15
2.26672e-15
2.26634e-15
2.26583e-15
2.26517e-15
2.26439e-15
2.26352e-15
2.2271e-15
2.22974e-15
2.2323e-15
2.23479e-15
2.2372e-15
2.23952e-15
2.24174e-15
2.24386e-15
2.24588e-15
2.24778e-15
2.24957e-15
2.25124e-15
2.2528e-15
2.25424e-15
2.25555e-15
2.25675e-15
2.25781e-15
2.25876e-15
2.25957e-15
2.26026e-15
2.26082e-15
2.26125e-15
2.26155e-15
2.26171e-15
2.26174e-15
2.26163e-15
2.26139e-15
2.26101e-15
2.26048e-15
2.25981e-15
2.25899e-15
2.2581e-15
2.22146e-15
2.22412e-15
2.2267e-15
2.22921e-15
2.23164e-15
2.23398e-15
2.23622e-15
2.23836e-15
2.24039e-15
2.2423e-15
2.24411e-15
2.24579e-15
2.24736e-15
2.24881e-15
2.25013e-15
2.25133e-15
2.25241e-15
2.25336e-15
2.25418e-15
2.25487e-15
2.25543e-15
2.25586e-15
2.25616e-15
2.25633e-15
2.25636e-15
2.25625e-15
2.256e-15
2.25561e-15
2.25507e-15
2.25438e-15
2.25351e-15
2.25259e-15
2.21576e-15
2.21843e-15
2.22104e-15
2.22357e-15
2.22602e-15
2.22838e-15
2.23063e-15
2.23279e-15
2.23484e-15
2.23677e-15
2.23859e-15
2.24028e-15
2.24186e-15
2.24332e-15
2.24465e-15
2.24586e-15
2.24694e-15
2.2479e-15
2.24872e-15
2.24942e-15
2.24999e-15
2.25042e-15
2.25072e-15
2.25088e-15
2.25091e-15
2.2508e-15
2.25055e-15
2.25015e-15
2.2496e-15
2.24887e-15
2.24794e-15
2.247e-15
2.21e-15
2.21269e-15
2.21532e-15
2.21787e-15
2.22034e-15
2.22271e-15
2.22499e-15
2.22716e-15
2.22922e-15
2.23117e-15
2.233e-15
2.23471e-15
2.2363e-15
2.23777e-15
2.23911e-15
2.24033e-15
2.24142e-15
2.24238e-15
2.24321e-15
2.24391e-15
2.24448e-15
2.24492e-15
2.24522e-15
2.24538e-15
2.24541e-15
2.2453e-15
2.24504e-15
2.24463e-15
2.24406e-15
2.2433e-15
2.2423e-15
2.20417e-15
2.20688e-15
2.20953e-15
2.2121e-15
2.21459e-15
2.21699e-15
2.21928e-15
2.22147e-15
2.22355e-15
2.22552e-15
2.22736e-15
2.22908e-15
2.23068e-15
2.23216e-15
2.23351e-15
2.23473e-15
2.23583e-15
2.2368e-15
2.23763e-15
2.23834e-15
2.23891e-15
2.23935e-15
2.23966e-15
2.23982e-15
2.23985e-15
2.23973e-15
2.23947e-15
2.23905e-15
2.23846e-15
2.23767e-15
2.23662e-15
2.19827e-15
2.20101e-15
2.20368e-15
2.20627e-15
2.20878e-15
2.2112e-15
2.21351e-15
2.21572e-15
2.21782e-15
2.2198e-15
2.22165e-15
2.22339e-15
2.225e-15
2.22649e-15
2.22785e-15
2.22908e-15
2.23018e-15
2.23116e-15
2.232e-15
2.23271e-15
2.23329e-15
2.23373e-15
2.23404e-15
2.2342e-15
2.23423e-15
2.23411e-15
2.23384e-15
2.23341e-15
2.23281e-15
2.23201e-15
2.19232e-15
2.19507e-15
2.19776e-15
2.20038e-15
2.20291e-15
2.20534e-15
2.20768e-15
2.2099e-15
2.21202e-15
2.21401e-15
2.21588e-15
2.21763e-15
2.21926e-15
2.22075e-15
2.22212e-15
2.22336e-15
2.22448e-15
2.22546e-15
2.2263e-15
2.22702e-15
2.2276e-15
2.22805e-15
2.22835e-15
2.22852e-15
2.22854e-15
2.22842e-15
2.22815e-15
2.22771e-15
2.2271e-15
2.22631e-15
2.18629e-15
2.18907e-15
2.19178e-15
2.19441e-15
2.19697e-15
2.19942e-15
2.20178e-15
2.20402e-15
2.20615e-15
2.20817e-15
2.21005e-15
2.21181e-15
2.21345e-15
2.21496e-15
2.21634e-15
2.21759e-15
2.2187e-15
2.21969e-15
2.22055e-15
2.22127e-15
2.22185e-15
2.2223e-15
2.22261e-15
2.22278e-15
2.2228e-15
2.22267e-15
2.22239e-15
2.22195e-15
2.22134e-15
2.22056e-15
2.1802e-15
2.183e-15
2.18573e-15
2.18839e-15
2.19096e-15
2.19344e-15
2.19581e-15
2.19808e-15
2.20023e-15
2.20225e-15
2.20416e-15
2.20593e-15
2.20758e-15
2.2091e-15
2.21049e-15
2.21174e-15
2.21287e-15
2.21386e-15
2.21472e-15
2.21545e-15
2.21604e-15
2.21649e-15
2.2168e-15
2.21697e-15
2.21699e-15
2.21686e-15
2.21658e-15
2.21614e-15
2.21553e-15
2.21477e-15
2.17405e-15
2.17686e-15
2.17961e-15
2.18229e-15
2.18489e-15
2.18739e-15
2.18978e-15
2.19207e-15
2.19423e-15
2.19628e-15
2.19819e-15
2.19998e-15
2.20164e-15
2.20317e-15
2.20457e-15
2.20584e-15
2.20697e-15
2.20797e-15
2.20884e-15
2.20957e-15
2.21016e-15
2.21062e-15
2.21093e-15
2.2111e-15
2.21112e-15
2.21099e-15
2.21071e-15
2.21027e-15
2.20967e-15
2.20893e-15
2.16782e-15
2.17066e-15
2.17343e-15
2.17613e-15
2.17874e-15
2.18127e-15
2.18368e-15
2.18599e-15
2.18817e-15
2.19023e-15
2.19216e-15
2.19397e-15
2.19564e-15
2.19718e-15
2.19859e-15
2.19986e-15
2.20101e-15
2.20201e-15
2.20289e-15
2.20362e-15
2.20422e-15
2.20468e-15
2.20499e-15
2.20516e-15
2.20518e-15
2.20505e-15
2.20477e-15
2.20433e-15
2.20375e-15
2.20302e-15
2.16154e-15
2.16439e-15
2.16718e-15
2.1699e-15
2.17254e-15
2.17508e-15
2.17752e-15
2.17984e-15
2.18205e-15
2.18412e-15
2.18607e-15
2.18789e-15
2.18957e-15
2.19112e-15
2.19254e-15
2.19383e-15
2.19498e-15
2.19599e-15
2.19687e-15
2.19761e-15
2.19821e-15
2.19868e-15
2.19899e-15
2.19916e-15
2.19918e-15
2.19905e-15
2.19877e-15
2.19834e-15
2.19777e-15
2.19706e-15
2.15519e-15
2.15806e-15
2.16087e-15
2.16361e-15
2.16626e-15
2.16883e-15
2.17129e-15
2.17363e-15
2.17585e-15
2.17795e-15
2.17991e-15
2.18174e-15
2.18344e-15
2.185e-15
2.18643e-15
2.18773e-15
2.18888e-15
2.18991e-15
2.19079e-15
2.19154e-15
2.19214e-15
2.19261e-15
2.19293e-15
2.1931e-15
2.19312e-15
2.19299e-15
2.19271e-15
2.19229e-15
2.19172e-15
2.19103e-15
2.14878e-15
2.15166e-15
2.15449e-15
2.15725e-15
2.15993e-15
2.16251e-15
2.16499e-15
2.16736e-15
2.1696e-15
2.17171e-15
2.17369e-15
2.17553e-15
2.17725e-15
2.17882e-15
2.18026e-15
2.18156e-15
2.18273e-15
2.18376e-15
2.18465e-15
2.1854e-15
2.18601e-15
2.18648e-15
2.1868e-15
2.18697e-15
2.187e-15
2.18687e-15
2.1866e-15
2.18618e-15
2.18562e-15
2.18493e-15
2.14231e-15
2.14521e-15
2.14805e-15
2.15083e-15
2.15353e-15
2.15613e-15
2.15864e-15
2.16102e-15
2.16328e-15
2.16541e-15
2.1674e-15
2.16926e-15
2.17099e-15
2.17258e-15
2.17403e-15
2.17534e-15
2.17651e-15
2.17755e-15
2.17845e-15
2.1792e-15
2.17982e-15
2.18029e-15
2.18061e-15
2.18079e-15
2.18081e-15
2.18069e-15
2.18042e-15
2.18e-15
2.17945e-15
2.17878e-15
2.13578e-15
2.13869e-15
2.14155e-15
2.14435e-15
2.14707e-15
2.14969e-15
2.15222e-15
2.15462e-15
2.1569e-15
2.15905e-15
2.16106e-15
2.16293e-15
2.16467e-15
2.16627e-15
2.16773e-15
2.16906e-15
2.17024e-15
2.17129e-15
2.17219e-15
2.17295e-15
2.17357e-15
2.17404e-15
2.17437e-15
2.17454e-15
2.17457e-15
2.17445e-15
2.17418e-15
2.17377e-15
2.17323e-15
2.17256e-15
2.12918e-15
2.13212e-15
2.13499e-15
2.13781e-15
2.14054e-15
2.14319e-15
2.14574e-15
2.14817e-15
2.15046e-15
2.15263e-15
2.15465e-15
2.15654e-15
2.1583e-15
2.15991e-15
2.16138e-15
2.16272e-15
2.16391e-15
2.16496e-15
2.16587e-15
2.16664e-15
2.16726e-15
2.16773e-15
2.16806e-15
2.16824e-15
2.16827e-15
2.16815e-15
2.16789e-15
2.16749e-15
2.16695e-15
2.16628e-15
2.12251e-15
2.12547e-15
2.12837e-15
2.1312e-15
2.13396e-15
2.13663e-15
2.1392e-15
2.14165e-15
2.14396e-15
2.14614e-15
2.14819e-15
2.15009e-15
2.15186e-15
2.15348e-15
2.15497e-15
2.15631e-15
2.15752e-15
2.15858e-15
2.15949e-15
2.16026e-15
2.16089e-15
2.16137e-15
2.1617e-15
2.16188e-15
2.16192e-15
2.1618e-15
2.16154e-15
2.16114e-15
2.16061e-15
2.15994e-15
2.11576e-15
2.11875e-15
2.12167e-15
2.12453e-15
2.12731e-15
2.13e-15
2.13259e-15
2.13506e-15
2.1374e-15
2.13959e-15
2.14165e-15
2.14357e-15
2.14535e-15
2.14699e-15
2.14848e-15
2.14984e-15
2.15105e-15
2.15212e-15
2.15305e-15
2.15383e-15
2.15446e-15
2.15494e-15
2.15528e-15
2.15546e-15
2.1555e-15
2.15539e-15
2.15513e-15
2.15474e-15
2.15421e-15
2.15354e-15
2.1089e-15
2.11193e-15
2.11489e-15
2.11777e-15
2.12058e-15
2.1233e-15
2.12591e-15
2.1284e-15
2.13075e-15
2.13297e-15
2.13505e-15
2.13698e-15
2.13877e-15
2.14042e-15
2.14192e-15
2.14329e-15
2.14451e-15
2.14559e-15
2.14652e-15
2.14731e-15
2.14796e-15
2.14845e-15
2.14879e-15
2.14898e-15
2.14901e-15
2.14891e-15
2.14866e-15
2.14826e-15
2.14773e-15
2.14707e-15
2.10192e-15
2.105e-15
2.10801e-15
2.11092e-15
2.11375e-15
2.1165e-15
2.11914e-15
2.12165e-15
2.12402e-15
2.12626e-15
2.12835e-15
2.1303e-15
2.1321e-15
2.13376e-15
2.13526e-15
2.13663e-15
2.13786e-15
2.13895e-15
2.1399e-15
2.1407e-15
2.14136e-15
2.14186e-15
2.14221e-15
2.1424e-15
2.14245e-15
2.14234e-15
2.14209e-15
2.1417e-15
2.14118e-15
2.14051e-15
2.0948e-15
2.09795e-15
2.101e-15
2.10396e-15
2.10682e-15
2.1096e-15
2.11226e-15
2.11479e-15
2.11719e-15
2.11944e-15
2.12155e-15
2.12351e-15
2.12533e-15
2.12698e-15
2.12849e-15
2.12986e-15
2.1311e-15
2.1322e-15
2.13316e-15
2.13398e-15
2.13466e-15
2.13518e-15
2.13553e-15
2.13573e-15
2.13578e-15
2.13568e-15
2.13543e-15
2.13504e-15
2.13452e-15
2.13385e-15
2.08753e-15
2.09074e-15
2.09386e-15
2.09686e-15
2.09975e-15
2.10256e-15
2.10525e-15
2.10781e-15
2.11023e-15
2.1125e-15
2.11463e-15
2.1166e-15
2.11842e-15
2.12008e-15
2.12158e-15
2.12295e-15
2.1242e-15
2.12531e-15
2.12628e-15
2.12712e-15
2.12783e-15
2.12836e-15
2.12873e-15
2.12894e-15
2.12899e-15
2.12889e-15
2.12865e-15
2.12826e-15
2.12774e-15
2.12707e-15
2.08012e-15
2.08338e-15
2.08657e-15
2.08961e-15
2.09254e-15
2.09538e-15
2.09811e-15
2.10069e-15
2.10313e-15
2.10542e-15
2.10756e-15
2.10955e-15
2.11138e-15
2.11304e-15
2.11452e-15
2.1159e-15
2.11715e-15
2.11827e-15
2.11926e-15
2.12011e-15
2.12086e-15
2.12141e-15
2.12179e-15
2.122e-15
2.12206e-15
2.12197e-15
2.12173e-15
2.12134e-15
2.12082e-15
2.12015e-15
2.07257e-15
2.07588e-15
2.07912e-15
2.0822e-15
2.08517e-15
2.08805e-15
2.09081e-15
2.09341e-15
2.09587e-15
2.09818e-15
2.10034e-15
2.10235e-15
2.10419e-15
2.10586e-15
2.10732e-15
2.1087e-15
2.10996e-15
2.11109e-15
2.11209e-15
2.11296e-15
2.11374e-15
2.11431e-15
2.11469e-15
2.11492e-15
2.11498e-15
2.11489e-15
2.11465e-15
2.11427e-15
2.11374e-15
2.11308e-15
2.06493e-15
2.06825e-15
2.07154e-15
2.07466e-15
2.07766e-15
2.08058e-15
2.08336e-15
2.086e-15
2.08848e-15
2.09081e-15
2.09298e-15
2.095e-15
2.09686e-15
2.09854e-15
2.09999e-15
2.10139e-15
2.10266e-15
2.1038e-15
2.1048e-15
2.10568e-15
2.10648e-15
2.10706e-15
2.10746e-15
2.10769e-15
2.10776e-15
2.10767e-15
2.10744e-15
2.10705e-15
2.10653e-15
2.10586e-15
2.05723e-15
2.06055e-15
2.06386e-15
2.067e-15
2.07003e-15
2.07298e-15
2.0758e-15
2.07847e-15
2.08097e-15
2.08332e-15
2.08551e-15
2.08754e-15
2.08942e-15
2.09111e-15
2.09259e-15
2.094e-15
2.09528e-15
2.09643e-15
2.09744e-15
2.09831e-15
2.09912e-15
2.0997e-15
2.10011e-15
2.10034e-15
2.10042e-15
2.10033e-15
2.1001e-15
2.09972e-15
2.09919e-15
2.09853e-15
2.05612e-15
2.05927e-15
2.06233e-15
2.06532e-15
2.06818e-15
2.07087e-15
2.07339e-15
2.07576e-15
2.07797e-15
2.08002e-15
2.08191e-15
2.08364e-15
2.09171e-15
2.09228e-15
2.09269e-15
2.09293e-15
2.093e-15
2.09293e-15
2.0927e-15
2.09232e-15
2.09179e-15
2.09113e-15
2.49538e-15
2.49597e-15
2.49644e-15
2.49678e-15
2.49699e-15
2.49706e-15
2.49699e-15
2.49678e-15
2.49643e-15
2.49592e-15
2.49028e-15
2.49105e-15
2.49166e-15
2.49214e-15
2.49248e-15
2.49269e-15
2.49276e-15
2.49269e-15
2.49247e-15
2.49211e-15
2.49161e-15
2.49095e-15
2.49019e-15
2.48929e-15
2.48827e-15
2.48712e-15
2.48584e-15
2.48444e-15
2.48292e-15
2.48128e-15
2.47952e-15
2.48397e-15
2.48498e-15
2.48588e-15
2.48664e-15
2.48727e-15
2.48775e-15
2.4881e-15
2.4883e-15
2.48837e-15
2.48829e-15
2.48808e-15
2.48771e-15
2.48721e-15
2.48656e-15
2.48578e-15
2.48488e-15
2.48384e-15
2.48268e-15
2.48139e-15
2.47997e-15
2.47844e-15
2.47678e-15
2.47502e-15
2.47313e-15
2.47117e-15
2.46912e-15
2.46696e-15
2.47564e-15
2.47704e-15
2.4783e-15
2.47947e-15
2.4805e-15
2.4814e-15
2.48217e-15
2.4828e-15
2.48328e-15
2.48363e-15
2.48384e-15
2.48391e-15
2.48383e-15
2.48361e-15
2.48324e-15
2.48273e-15
2.48208e-15
2.4813e-15
2.48039e-15
2.47934e-15
2.47817e-15
2.47687e-15
2.47544e-15
2.47389e-15
2.47223e-15
2.47045e-15
2.46856e-15
2.46658e-15
2.46451e-15
2.46235e-15
2.46008e-15
2.45777e-15
2.45538e-15
2.46784e-15
2.46948e-15
2.47103e-15
2.47245e-15
2.47374e-15
2.4749e-15
2.47594e-15
2.47685e-15
2.47762e-15
2.47825e-15
2.47874e-15
2.47909e-15
2.4793e-15
2.47937e-15
2.47929e-15
2.47906e-15
2.4787e-15
2.47819e-15
2.47754e-15
2.47675e-15
2.47583e-15
2.47478e-15
2.47359e-15
2.47228e-15
2.47084e-15
2.46929e-15
2.46761e-15
2.46582e-15
2.46393e-15
2.46194e-15
2.45985e-15
2.45768e-15
2.45542e-15
2.45309e-15
2.45069e-15
2.44821e-15
2.4457e-15
2.44313e-15
2.45948e-15
2.46136e-15
2.46315e-15
2.46482e-15
2.46637e-15
2.4678e-15
2.4691e-15
2.47028e-15
2.47132e-15
2.47223e-15
2.47301e-15
2.47364e-15
2.47414e-15
2.47449e-15
2.4747e-15
2.47476e-15
2.47468e-15
2.47446e-15
2.47409e-15
2.47358e-15
2.47292e-15
2.47213e-15
2.47121e-15
2.47015e-15
2.46896e-15
2.46764e-15
2.46619e-15
2.46463e-15
2.46294e-15
2.46115e-15
2.45925e-15
2.45725e-15
2.45515e-15
2.45297e-15
2.4507e-15
2.44836e-15
2.44595e-15
2.44347e-15
2.44095e-15
2.43838e-15
2.4527e-15
2.45472e-15
2.45662e-15
2.45842e-15
2.4601e-15
2.46166e-15
2.4631e-15
2.46441e-15
2.46559e-15
2.46664e-15
2.46755e-15
2.46833e-15
2.46897e-15
2.46947e-15
2.46982e-15
2.47003e-15
2.4701e-15
2.47001e-15
2.46979e-15
2.46942e-15
2.4689e-15
2.46825e-15
2.46746e-15
2.46652e-15
2.46546e-15
2.46426e-15
2.46294e-15
2.46149e-15
2.45992e-15
2.45823e-15
2.45643e-15
2.45452e-15
2.45251e-15
2.45041e-15
2.44822e-15
2.44595e-15
2.4436e-15
2.44118e-15
2.43871e-15
2.43618e-15
2.43361e-15
2.44577e-15
2.4479e-15
2.44992e-15
2.45184e-15
2.45364e-15
2.45533e-15
2.4569e-15
2.45834e-15
2.45966e-15
2.46085e-15
2.4619e-15
2.46282e-15
2.4636e-15
2.46424e-15
2.46474e-15
2.4651e-15
2.46531e-15
2.46537e-15
2.46529e-15
2.46506e-15
2.46469e-15
2.46418e-15
2.46352e-15
2.46272e-15
2.46179e-15
2.46072e-15
2.45952e-15
2.45819e-15
2.45674e-15
2.45516e-15
2.45346e-15
2.45166e-15
2.44975e-15
2.44774e-15
2.44563e-15
2.44343e-15
2.44116e-15
2.43881e-15
2.43639e-15
2.43391e-15
2.43138e-15
2.42881e-15
2.4387e-15
2.44093e-15
2.44306e-15
2.44509e-15
2.44701e-15
2.44882e-15
2.45052e-15
2.45209e-15
2.45354e-15
2.45486e-15
2.45606e-15
2.45711e-15
2.45804e-15
2.45882e-15
2.45946e-15
2.45996e-15
2.46032e-15
2.46053e-15
2.4606e-15
2.46052e-15
2.46029e-15
2.45992e-15
2.4594e-15
2.45874e-15
2.45794e-15
2.45701e-15
2.45594e-15
2.45473e-15
2.4534e-15
2.45194e-15
2.45036e-15
2.44866e-15
2.44685e-15
2.44494e-15
2.44292e-15
2.44081e-15
2.43862e-15
2.43634e-15
2.43398e-15
2.43156e-15
2.42909e-15
2.42656e-15
2.42399e-15
2.43152e-15
2.43383e-15
2.43605e-15
2.43819e-15
2.44022e-15
2.44215e-15
2.44397e-15
2.44567e-15
2.44725e-15
2.4487e-15
2.45003e-15
2.45122e-15
2.45228e-15
2.45321e-15
2.454e-15
2.45464e-15
2.45514e-15
2.4555e-15
2.45571e-15
2.45577e-15
2.45569e-15
2.45547e-15
2.45509e-15
2.45458e-15
2.45392e-15
2.45312e-15
2.45218e-15
2.45111e-15
2.4499e-15
2.44857e-15
2.44711e-15
2.44553e-15
2.44383e-15
2.44202e-15
2.4401e-15
2.43808e-15
2.43597e-15
2.43377e-15
2.43149e-15
2.42914e-15
2.42672e-15
2.42424e-15
2.42172e-15
2.41915e-15
2.4266e-15
2.42892e-15
2.43115e-15
2.43329e-15
2.43533e-15
2.43726e-15
2.43908e-15
2.44078e-15
2.44237e-15
2.44382e-15
2.44515e-15
2.44635e-15
2.44741e-15
2.44834e-15
2.44913e-15
2.44977e-15
2.45028e-15
2.45063e-15
2.45085e-15
2.45091e-15
2.45083e-15
2.4506e-15
2.45023e-15
2.44971e-15
2.44906e-15
2.44826e-15
2.44732e-15
2.44624e-15
2.44504e-15
2.4437e-15
2.44224e-15
2.44066e-15
2.43896e-15
2.43715e-15
2.43523e-15
2.43321e-15
2.4311e-15
2.4289e-15
2.42663e-15
2.42427e-15
2.42186e-15
2.41938e-15
2.41686e-15
2.41429e-15
2.41926e-15
2.42168e-15
2.424e-15
2.42623e-15
2.42837e-15
2.43041e-15
2.43234e-15
2.43416e-15
2.43587e-15
2.43745e-15
2.43891e-15
2.44024e-15
2.44144e-15
2.44251e-15
2.44344e-15
2.44422e-15
2.44487e-15
2.44537e-15
2.44573e-15
2.44594e-15
2.44601e-15
2.44593e-15
2.4457e-15
2.44533e-15
2.44481e-15
2.44416e-15
2.44336e-15
2.44242e-15
2.44135e-15
2.44014e-15
2.4388e-15
2.43734e-15
2.43576e-15
2.43406e-15
2.43225e-15
2.43034e-15
2.42832e-15
2.42621e-15
2.42402e-15
2.42174e-15
2.41939e-15
2.41698e-15
2.41451e-15
2.41199e-15
2.40943e-15
2.41188e-15
2.41434e-15
2.41674e-15
2.41906e-15
2.42129e-15
2.42343e-15
2.42547e-15
2.4274e-15
2.42923e-15
2.43093e-15
2.43252e-15
2.43398e-15
2.43531e-15
2.43651e-15
2.43757e-15
2.4385e-15
2.43929e-15
2.43994e-15
2.44044e-15
2.4408e-15
2.44101e-15
2.44108e-15
2.441e-15