/*--------------------------------*- C++ -*----------------------------------*\
  =========                 |
  \\      /  F ield         | OpenFOAM: The Open Source CFD Toolbox
   \\    /   O peration     | Website:  https://openfoam.org
    \\  /    A nd           | Version:  7
     \\/     M anipulation  |
\*---------------------------------------------------------------------------*/
FoamFile
{
    version     2.0;
    format      ascii;
    class       volVectorField;
    location    "104000";
    object      vorticity;
}
// * * * * * * * * * * * * * * * * * * * * * * * * * * * * * * * * * * * * * //

dimensions      [0 0 -1 0 0 0 0];

internalField   nonuniform List<vector> 
4783
(
(-4.09078e-05 8.98404e-05 -6.43843e-18)
(-7.6177e-05 5.62139e-05 2.67854e-18)
(-7.25816e-05 5.92159e-05 1.15419e-17)
(-6.93679e-05 6.09818e-05 1.50436e-17)
(-6.62123e-05 6.22423e-05 1.18216e-17)
(-6.30853e-05 6.32071e-05 9.90664e-18)
(-5.99601e-05 6.3979e-05 4.63863e-18)
(-5.68225e-05 6.46138e-05 2.25196e-18)
(-5.36666e-05 6.51435e-05 6.19909e-18)
(-5.04905e-05 6.55893e-05 1.17779e-17)
(-4.72942e-05 6.59664e-05 1.3134e-17)
(-4.40791e-05 6.62862e-05 9.00182e-18)
(-4.08469e-05 6.65576e-05 5.9003e-18)
(-3.75993e-05 6.67877e-05 6.40998e-18)
(-3.43387e-05 6.69822e-05 8.59406e-18)
(-3.10673e-05 6.71459e-05 1.00969e-17)
(-2.77879e-05 6.72827e-05 9.97876e-18)
(-2.45039e-05 6.73959e-05 8.2533e-18)
(-2.1219e-05 6.74883e-05 4.7923e-18)
(-1.79376e-05 6.75626e-05 2.82464e-18)
(-1.47033e-05 6.76171e-05 3.20056e-18)
(-1.15474e-05 6.76466e-05 3.90061e-18)
(-4.3073e-05 0.000108675 2.41795e-17)
(-7.62196e-05 7.43207e-05 1.80337e-17)
(-7.41535e-05 7.4695e-05 1.43179e-17)
(-7.15947e-05 7.49532e-05 1.15985e-17)
(-6.87031e-05 7.50402e-05 1.20092e-17)
(-6.56536e-05 7.49987e-05 1.02141e-17)
(-6.25201e-05 7.48688e-05 9.12057e-18)
(-5.93298e-05 7.46941e-05 9.38939e-18)
(-5.60952e-05 7.4497e-05 8.25429e-18)
(-5.28227e-05 7.42937e-05 7.16214e-18)
(-4.95169e-05 7.40924e-05 5.57753e-18)
(-4.61818e-05 7.38991e-05 4.71215e-18)
(-4.2821e-05 7.37164e-05 5.37367e-18)
(-3.94376e-05 7.35459e-05 5.5758e-18)
(-3.60349e-05 7.33887e-05 5.86498e-18)
(-3.2616e-05 7.32452e-05 6.25892e-18)
(-2.91843e-05 7.31155e-05 5.98585e-18)
(-2.57438e-05 7.29997e-05 4.75028e-18)
(-2.2299e-05 7.28977e-05 2.82765e-18)
(-1.8855e-05 7.28091e-05 8.66675e-19)
(-1.54512e-05 7.27296e-05 1.02137e-18)
(-1.21298e-05 7.2662e-05 1.24313e-18)
(-4.81398e-05 0.000120087 3.29025e-17)
(-7.88886e-05 7.92455e-05 2.01122e-17)
(-7.59372e-05 7.78771e-05 1.5288e-17)
(-7.34576e-05 7.77546e-05 1.31e-17)
(-7.07844e-05 7.78223e-05 1.10686e-17)
(-6.7873e-05 7.79516e-05 8.81279e-18)
(-6.47979e-05 7.80196e-05 6.94678e-18)
(-6.16058e-05 7.80503e-05 6.65551e-18)
(-5.83302e-05 7.80433e-05 5.27886e-18)
(-5.49892e-05 7.80168e-05 4.37996e-18)
(-5.15952e-05 7.79773e-05 3.5339e-18)
(-4.8157e-05 7.79334e-05 3.10098e-18)
(-4.4682e-05 7.78881e-05 4.00383e-18)
(-4.11756e-05 7.78433e-05 3.8884e-18)
(-3.76423e-05 7.78004e-05 3.24692e-18)
(-3.40866e-05 7.776e-05 3.08057e-18)
(-3.05126e-05 7.77224e-05 3.54441e-18)
(-2.69252e-05 7.7688e-05 3.96389e-18)
(-2.33297e-05 7.76569e-05 2.95364e-18)
(-1.97324e-05 7.76285e-05 1.87667e-18)
(-1.61702e-05 7.75986e-05 2.45363e-18)
(-1.26867e-05 7.75685e-05 1.56934e-18)
(-6.16468e-05 0.000152546 3.72141e-17)
(-8.97241e-05 9.25021e-05 2.08039e-17)
(-8.05994e-05 8.5532e-05 1.03721e-17)
(-7.60269e-05 8.22455e-05 1.04355e-17)
(-7.2928e-05 8.13306e-05 1.05522e-17)
(-6.99652e-05 8.13745e-05 9.91301e-18)
(-6.69153e-05 8.14885e-05 9.25586e-18)
(-6.37269e-05 8.16627e-05 6.69432e-18)
(-6.04274e-05 8.17932e-05 4.40787e-18)
(-5.70341e-05 8.19132e-05 2.89492e-18)
(-5.35655e-05 8.20069e-05 9.87338e-19)
(-5.00348e-05 8.20932e-05 8.83782e-19)
(-4.64555e-05 8.21706e-05 9.23835e-19)
(-4.28349e-05 8.2239e-05 8.0299e-19)
(-3.91795e-05 8.23008e-05 8.35016e-19)
(-3.5495e-05 8.23554e-05 1.54185e-18)
(-3.17862e-05 8.24026e-05 2.70197e-18)
(-2.80588e-05 8.2444e-05 3.43365e-18)
(-2.43195e-05 8.24797e-05 2.56315e-18)
(-2.05757e-05 8.25089e-05 1.44007e-18)
(-1.68623e-05 8.25269e-05 1.33306e-18)
(-1.32243e-05 8.25342e-05 4.40261e-19)
(-9.49748e-05 0.000226438 3.74878e-17)
(-0.000122971 0.000127216 1.7342e-17)
(-9.83004e-05 0.000106639 4.70006e-18)
(-8.4494e-05 9.42779e-05 2.24488e-18)
(-7.68272e-05 8.84023e-05 6.44227e-18)
(-7.24085e-05 8.5871e-05 1.20654e-17)
(-6.90477e-05 8.53141e-05 1.18794e-17)
(-6.57761e-05 8.55316e-05 8.06646e-18)
(-6.24398e-05 8.57115e-05 5.1432e-18)
(-5.89968e-05 8.5964e-05 2.48215e-18)
(-5.54609e-05 8.61539e-05 -2.07391e-20)
(-5.18397e-05 8.63527e-05 -8.26436e-19)
(-4.81617e-05 8.65415e-05 -9.96102e-19)
(-4.44325e-05 8.67102e-05 -1.97546e-18)
(-4.06603e-05 8.68689e-05 -2.21571e-18)
(-3.68538e-05 8.7012e-05 -7.90958e-19)
(-3.30162e-05 8.71362e-05 7.5299e-19)
(-2.91533e-05 8.72471e-05 1.38862e-18)
(-2.52745e-05 8.73462e-05 7.90934e-19)
(-2.13895e-05 8.74312e-05 3.04486e-20)
(-1.75313e-05 8.74957e-05 2.49115e-19)
(-1.37453e-05 8.75386e-05 -1.1274e-20)
(-0.00016136 0.000366731 2.3642e-17)
(-0.00019587 0.000202997 1.3062e-17)
(-0.000146089 0.000159064 7.00066e-18)
(-0.000112809 0.000128576 -3.93855e-18)
(-9.19623e-05 0.000108987 -1.70611e-19)
(-7.97145e-05 9.78072e-05 1.30486e-17)
(-7.25028e-05 9.25449e-05 1.42764e-17)
(-6.80377e-05 9.02837e-05 9.66184e-18)
(-6.44531e-05 8.98212e-05 7.17497e-18)
(-6.09188e-05 9.0198e-05 3.66545e-18)
(-5.73201e-05 9.03918e-05 2.56156e-19)
(-5.35927e-05 9.06859e-05 -1.98824e-18)
(-4.9819e-05 9.09865e-05 -3.62595e-18)
(-4.59839e-05 9.12356e-05 -5.30719e-18)
(-4.20954e-05 9.1486e-05 -5.62122e-18)
(-3.81738e-05 9.17161e-05 -3.23914e-18)
(-3.42136e-05 9.1906e-05 -1.23018e-18)
(-3.02169e-05 9.20778e-05 -5.32247e-19)
(-2.61997e-05 9.22374e-05 -4.43006e-19)
(-2.21768e-05 9.23789e-05 -7.83134e-19)
(-1.81802e-05 9.24901e-05 -6.84134e-19)
(-1.42534e-05 9.25661e-05 -1.03864e-18)
(-0.000275947 0.000594541 -2.48659e-18)
(-0.00032639 0.00034089 -8.06801e-18)
(-0.000242119 0.000265162 -5.67862e-18)
(-0.000179904 0.000206107 -2.72099e-18)
(-0.000135572 0.00016286 -3.35796e-18)
(-0.000105593 0.000133323 1.10144e-17)
(-8.65957e-05 0.000114233 1.71579e-17)
(-7.50123e-05 0.000103123 1.41e-17)
(-6.77222e-05 9.78724e-05 1.14279e-17)
(-6.30229e-05 9.54684e-05 6.30533e-18)
(-5.92331e-05 9.47697e-05 -2.60478e-20)
(-5.5306e-05 9.50584e-05 -4.31011e-18)
(-5.14425e-05 9.55149e-05 -7.47874e-18)
(-4.75062e-05 9.57865e-05 -1.02321e-17)
(-4.34881e-05 9.613e-05 -1.04039e-17)
(-3.94637e-05 9.64665e-05 -7.17245e-18)
(-3.53927e-05 9.66979e-05 -3.67931e-18)
(-3.12581e-05 9.69151e-05 -1.99442e-18)
(-2.70969e-05 9.71341e-05 -1.66594e-18)
(-2.29372e-05 9.73386e-05 -2.13811e-18)
(-1.88106e-05 9.75015e-05 -2.31245e-18)
(-1.47527e-05 9.76069e-05 -2.73579e-18)
(-0.000447021 0.000912305 -3.79278e-17)
(-0.000527533 0.000554483 -2.03951e-17)
(-0.000402988 0.000443868 -7.09871e-18)
(-0.000303508 0.000349956 -7.90045e-18)
(-0.000226392 0.000274221 -1.70095e-17)
(-0.000169146 0.000215614 -6.75834e-18)
(-0.000128365 0.000172423 9.67543e-18)
(-0.000100357 0.000142571 1.66119e-17)
(-8.20685e-05 0.000122894 2.42636e-17)
(-7.04998e-05 0.000110656 2.15611e-17)
(-6.2895e-05 0.000104706 -8.41082e-19)
(-5.73783e-05 0.000101771 -1.07462e-17)
(-5.30916e-05 0.000100518 -1.31108e-17)
(-4.90409e-05 0.000100337 -1.66411e-17)
(-4.48197e-05 0.000100755 -1.71519e-17)
(-4.07257e-05 0.000101301 -1.25152e-17)
(-3.65795e-05 0.000101499 -5.83916e-18)
(-3.22888e-05 0.000101728 -1.85565e-18)
(-2.79629e-05 0.00010201 -1.24158e-18)
(-2.36624e-05 0.000102298 -2.65867e-18)
(-1.94211e-05 0.00010253 -4.17698e-18)
(-1.52501e-05 0.000102656 -5.47969e-18)
(-0.000667892 0.00129692 -4.38443e-17)
(-0.000794346 0.000839453 -1.75089e-17)
(-0.000633269 0.000701252 7.54339e-18)
(-0.000495653 0.000574624 1.03099e-17)
(-0.000380625 0.000463672 -8.01212e-18)
(-0.000287998 0.000369912 -8.63178e-18)
(-0.000216276 0.000293785 4.05187e-18)
(-0.000162822 0.000234348 2.52505e-17)
(-0.000124391 0.000189698 5.04147e-17)
(-9.7151e-05 0.000158113 4.69082e-17)
(-7.86771e-05 0.000136764 3.70905e-18)
(-6.66001e-05 0.000122607 -2.06184e-17)
(-5.80808e-05 0.000114196 -2.09279e-17)
(-5.16554e-05 0.000109973 -2.25422e-17)
(-4.63243e-05 0.000107736 -2.66588e-17)
(-4.19718e-05 0.000106638 -2.12679e-17)
(-3.7844e-05 0.000106302 -8.36311e-18)
(-3.33292e-05 0.000106459 -1.80574e-19)
(-2.8783e-05 0.000106824 2.64585e-19)
(-2.43272e-05 0.000107246 -2.7615e-18)
(-2.00059e-05 0.0001076 -6.26957e-18)
(-1.57601e-05 0.000107715 -8.45924e-18)
(-0.00091982 0.00171073 -3.89112e-17)
(-0.00110346 0.00117237 -3.24094e-18)
(-0.00091733 0.00102198 2.17773e-17)
(-0.000750082 0.000875139 1.91382e-17)
(-0.000601541 0.000737154 5.43234e-18)
(-0.000473247 0.000611273 6.76525e-18)
(-0.000365987 0.000500174 1.21347e-17)
(-0.00027942 0.000405489 3.04579e-17)
(-0.000211975 0.000327691 6.12566e-17)
(-0.000160977 0.000266157 6.502e-17)
(-0.000123565 0.000218565 3.22177e-18)
(-9.67266e-05 0.000183576 -4.4155e-17)
(-7.73381e-05 0.000158823 -3.18288e-17)
(-6.37169e-05 0.000141666 -2.50318e-17)
(-5.39685e-05 0.000129857 -3.66031e-17)
(-4.64231e-05 0.000122165 -3.42767e-17)
(-4.03349e-05 0.000118226 -5.57988e-18)
(-3.48649e-05 0.000115911 1.02666e-17)
(-2.97475e-05 0.000114469 5.70761e-18)
(-2.49589e-05 0.00011357 -2.48245e-18)
(-2.05654e-05 0.000113047 -1.05533e-17)
(-1.63205e-05 0.000112796 -1.3506e-17)
(-0.00118298 0.00212046 -4.65209e-17)
(-0.0014267 0.00152321 -1.05718e-17)
(-0.0012276 0.00137626 1.61116e-17)
(-0.00104291 0.00122582 8.49309e-18)
(-0.000872035 0.0010768 -1.17347e-19)
(-0.000716751 0.000932361 9.66033e-18)
(-0.000578787 0.000795856 1.52915e-17)
(-0.000459468 0.000670464 2.35597e-17)
(-0.000359328 0.000558806 5.48982e-17)
(-0.000277854 0.000462517 5.56822e-17)
(-0.000213522 0.000381913 -1.81528e-17)
(-0.000164089 0.000316741 -8.0168e-17)
(-0.000126838 0.000265295 -5.06784e-17)
(-9.92905e-05 0.000225461 -1.9109e-17)
(-7.89347e-05 0.000195669 -3.69011e-17)
(-6.31371e-05 0.000173975 -4.47937e-17)
(-5.12102e-05 0.000158563 5.4515e-18)
(-4.23854e-05 0.000147379 3.00162e-17)
(-3.50584e-05 0.000139264 1.65424e-17)
(-2.86374e-05 0.000133432 1.82505e-18)
(-2.28965e-05 0.000129447 -1.65213e-17)
(-1.76724e-05 0.000127259 -2.22963e-17)
(-0.00144425 0.00250777 -4.24011e-17)
(-0.00174385 0.00186908 -2.78813e-17)
(-0.00153977 0.00173562 -9.67254e-18)
(-0.00134707 0.00159455 -1.02377e-17)
(-0.00116458 0.00144983 -1.17672e-18)
(-0.000993603 0.00130363 1.94824e-17)
(-0.000835601 0.00115849 1.73274e-17)
(-0.000692103 0.00101731 -4.48017e-19)
(-0.000564505 0.000883182 2.28273e-17)
(-0.000453765 0.000759018 3.55302e-17)
(-0.000360108 0.000647204 -9.17993e-18)
(-0.000282968 0.000549324 -6.49976e-17)
(-0.000221003 0.000465882 -5.14251e-17)
(-0.000172271 0.000396522 -1.15684e-17)
(-0.000134478 0.000340396 -2.73613e-17)
(-0.000105155 0.0002958 -4.67312e-17)
(-8.26068e-05 0.000260364 2.3592e-17)
(-6.54872e-05 0.000233046 5.60423e-17)
(-5.20186e-05 0.000212298 2.4389e-17)
(-4.09186e-05 0.000196759 6.38298e-18)
(-3.12963e-05 0.00018541 -2.15392e-17)
(-2.30469e-05 0.000177494 -3.11999e-17)
(-0.00169817 0.00286774 -2.69467e-17)
(-0.00204575 0.0021991 -2.43863e-17)
(-0.00184013 0.00208289 -2.19487e-17)
(-0.00164427 0.00195757 -2.23028e-17)
(-0.00145656 0.0018264 -1.05441e-17)
(-0.00127785 0.00169059 7.17645e-18)
(-0.00110914 0.0015516 1.76981e-17)
(-0.000951522 0.0014113 6.55566e-18)
(-0.000806177 0.00127199 -1.63111e-18)
(-0.000674268 0.00113618 7.99234e-18)
(-0.000556743 0.00100659 -1.08893e-17)
(-0.000454158 0.000885722 -4.2232e-17)
(-0.000366525 0.000775682 -2.85904e-17)
(-0.000293193 0.000677924 4.3998e-18)
(-0.000232953 0.000593123 -1.42272e-17)
(-0.000184177 0.000521069 -3.57934e-17)
(-0.000145088 0.000460797 3.25306e-17)
(-0.00011402 0.000411597 6.51489e-17)
(-8.9222e-05 0.000372273 3.10399e-17)
(-6.90569e-05 0.000341438 8.71395e-18)
(-5.22473e-05 0.000317682 -2.88629e-17)
(-3.81028e-05 0.000299694 -4.09621e-17)
(-0.00194398 0.00320254 -1.02141e-17)
(-0.00233106 0.00251114 -1.39405e-17)
(-0.00212442 0.0024121 -8.27367e-18)
(-0.00192673 0.0023039 -6.14514e-18)
(-0.00173619 0.00218945 -8.55119e-18)
(-0.00155342 0.00206939 -6.304e-18)
(-0.00137903 0.00194457 -3.18788e-18)
(-0.0012137 0.00181606 -1.64082e-17)
(-0.00105823 0.00168515 -3.04682e-17)
(-0.0009135 0.00155346 -1.55894e-17)
(-0.000780325 0.001423 -7.9973e-18)
(-0.000659457 0.0012959 -1.37294e-17)
(-0.000551421 0.00117439 -1.57662e-17)
(-0.000456401 0.00106059 -1.69625e-18)
(-0.000374171 0.000956228 -8.96381e-18)
(-0.000304078 0.000862523 -1.99339e-17)
(-0.000245035 0.000780139 3.39672e-17)
(-0.000195742 0.000709309 5.13572e-17)
(-0.000154771 0.000649807 1.81343e-17)
(-0.000120632 0.000600945 1.1191e-17)
(-9.19106e-05 0.00056179 -2.2309e-17)
(-6.74126e-05 0.000531394 -3.5081e-17)
(-0.00218259 0.00351624 3.96513e-18)
(-0.00260162 0.0028071 -2.86675e-18)
(-0.00239344 0.00272374 8.04582e-19)
(-0.00219367 0.00263163 1.1781e-17)
(-0.00200045 0.00253354 1.44341e-17)
(-0.00181433 0.00242998 4.44719e-18)
(-0.0016358 0.00232152 -1.49427e-17)
(-0.00146535 0.00220883 -3.55674e-17)
(-0.00130346 0.00209265 -4.87688e-17)
(-0.00115066 0.00197402 -4.64099e-17)
(-0.00100752 0.00185416 -3.54578e-17)
(-0.000874643 0.00173447 -1.86229e-17)
(-0.000752496 0.00161664 -8.80514e-18)
(-0.000641438 0.0015025 -1.35143e-17)
(-0.00054163 0.00139383 -1.86953e-17)
(-0.000452941 0.00129227 -1.27823e-17)
(-0.000374914 0.00119932 1.95963e-17)
(-0.000306822 0.00111604 2.52454e-17)
(-0.000247751 0.00104313 2.04105e-17)
(-0.000196578 0.000980934 1.21409e-17)
(-0.00241513 0.0038125 9.01801e-18)
(-0.0028598 0.00308959 6.85015e-18)
(-0.00264938 0.00302031 7.7599e-18)
(-0.0024469 0.00294273 1.91667e-17)
(-0.00225047 0.00285954 2.23503e-17)
(-0.00206064 0.00277124 1.0051e-17)
(-0.00187786 0.00267835 -4.18717e-18)
(-0.00170256 0.00258141 -2.25184e-17)
(-0.00153512 0.00248104 -4.64669e-17)
(-0.00137589 0.00237796 -5.94296e-17)
(-0.00122525 0.00227295 -5.14307e-17)
(-0.00108355 0.00216701 -3.6757e-17)
(-0.000951089 0.00206131 -4.59148e-17)
(-0.000828149 0.00195714 -6.62798e-17)
(-0.000714945 0.0018559 -5.27412e-17)
(-0.000611459 0.00175907 -2.21658e-17)
(-0.000517482 0.00166815 8.60588e-18)
(-0.000432649 0.0015845 8.72725e-18)
(-0.000356371 0.00150924 1.06584e-17)
(-0.0026425 0.00409419 1.10922e-17)
(-0.00310761 0.00336085 1.22781e-17)
(-0.00289436 0.00330434 1.16162e-17)
(-0.00268859 0.00323987 1.895e-17)
(-0.00248841 0.00317013 2.21701e-17)
(-0.00229433 0.00309555 1.42017e-17)
(-0.00210682 0.00301666 5.07568e-18)
(-0.00192627 0.002934 -1.06824e-17)
(-0.00175303 0.00284817 -3.04638e-17)
(-0.0015874 0.00275981 -3.89389e-17)
(-0.00142966 0.00266959 -3.68236e-17)
(-0.00128004 0.0025783 -3.8717e-17)
(-0.00113873 0.00248683 -6.69875e-17)
(-0.00100587 0.00239608 -9.82156e-17)
(-0.000881563 0.00230718 -8.50846e-17)
(-0.000765768 0.00222132 -5.55579e-17)
(-0.000658305 0.00213974 -4.81287e-17)
(-0.00286536 0.00436349 1.4972e-17)
(-0.00334662 0.0036226 1.5268e-17)
(-0.00313006 0.00357782 1.42891e-17)
(-0.00292055 0.00352535 1.77618e-17)
(-0.00271618 0.00346782 2.03095e-17)
(-0.00251745 0.00340565 1.65074e-17)
(-0.00232478 0.00333935 1.49954e-17)
(-0.00213856 0.00326945 3.70957e-18)
(-0.00195914 0.00319655 -1.90201e-17)
(-0.00178679 0.00312127 -2.70843e-17)
(-0.00162174 0.00304425 -2.02683e-17)
(-0.00146418 0.00296621 -1.9491e-17)
(-0.00131423 0.00288792 -4.49742e-17)
(-0.00117196 0.0028102 -7.69233e-17)
(-0.0030842 0.00462209 1.64259e-17)
(-0.003578 0.00387612 1.69192e-17)
(-0.00335779 0.00384225 1.54981e-17)
(-0.00314419 0.0038009 1.56514e-17)
(-0.00293531 0.00375462 1.8122e-17)
(-0.00273162 0.00370383 2.06922e-17)
(-0.00253351 0.00364898 2.20212e-17)
(-0.00234135 0.00359062 1.36075e-17)
(-0.00215548 0.0035293 -9.48993e-18)
(-0.00197615 0.00346562 -1.90176e-17)
(-0.00180357 0.00340022 -1.08422e-17)
(-0.0016379 0.00333379 -1.04599e-17)
(-0.00329943 0.00487134 1.38093e-17)
(-0.00380272 0.00412245 1.64308e-17)
(-0.00357858 0.00409882 1.48068e-17)
(-0.00336062 0.00406787 1.40978e-17)
(-0.00314699 0.00403207 1.62841e-17)
(-0.00293811 0.00399181 2.05428e-17)
(-0.00273436 0.00394754 2.29614e-17)
(-0.0025361 0.00389975 1.71736e-17)
(-0.00234362 0.00384896 -4.34382e-18)
(-0.00215718 0.00379576 -1.45366e-17)
(-0.00351138 0.0051124 1.19949e-17)
(-0.00402155 0.00436241 1.50226e-17)
(-0.00379324 0.00434847 1.38864e-17)
(-0.00357072 0.00432733 1.39172e-17)
(-0.00335214 0.00430137 1.48785e-17)
(-0.00313791 0.00427096 1.74659e-17)
(-0.00292839 0.00423654 1.97844e-17)
(-0.00272391 0.00419854 1.52712e-17)
(-0.00252474 0.00415748 -2.44718e-18)
(-0.00372038 0.00534628 1.29985e-17)
(-0.00423519 0.00459677 1.52467e-17)
(-0.0040025 0.00459202 1.32213e-17)
(-0.00377523 0.00458015 1.32908e-17)
(-0.00355155 0.00456348 1.2137e-17)
(-0.00333184 0.00454236 1.20091e-17)
(-0.00311645 0.00451717 1.38333e-17)
(-0.00290567 0.00448833 1.07304e-17)
(-0.00392675 0.00557389 1.38861e-17)
(-0.00444425 0.00482617 1.51637e-17)
(-0.004207 0.00483017 1.21338e-17)
(-0.0039748 0.00482712 1.19e-17)
(-0.00374588 0.00481926 1.04765e-17)
(-0.00352058 0.00480691 7.82985e-18)
(-0.00329922 0.00479043 7.41077e-18)
(-0.00413079 0.00579603 1.54073e-17)
(-0.00464928 0.00505122 1.49381e-17)
(-0.0044073 0.00506358 1.18029e-17)
(-0.00417002 0.00506893 1.08007e-17)
(-0.00393572 0.00506944 9.27585e-18)
(-0.00370473 0.00506542 3.92342e-18)
(-0.00433281 0.00601344 1.55833e-17)
(-0.00485081 0.00527249 1.30258e-17)
(-0.00460393 0.00529285 1.03391e-17)
(-0.00436143 0.00530621 9.65963e-18)
(-0.00412162 0.0053147 7.90378e-18)
(-0.00388482 0.00531859 3.99472e-19)
(-0.0045331 0.0062268 1.06961e-17)
(-0.00504931 0.0054905 1.01465e-17)
(-0.00479737 0.00551851 8.80284e-18)
(-0.0045495 0.00553956 7.81397e-18)
(-0.00430408 0.00555567 4.56199e-18)
(-0.00473195 0.00643672 1.31142e-18)
(-0.00524526 0.00570573 5.92337e-18)
(-0.00498809 0.00574111 6.50689e-18)
(-0.00473472 0.00576952 6.04175e-18)
(-0.00492965 0.00664375 -3.31293e-18)
(-0.00543906 0.00591864 2.8339e-18)
(-0.00517651 0.00596111 4.44777e-18)
(-0.00491749 0.00599661 4.70452e-18)
(-0.00512646 0.00684842 -1.30507e-18)
(-0.00563111 0.00612967 1.71705e-18)
(-0.00536303 0.00617899 3.33651e-18)
(-0.00532263 0.00705119 2.37496e-18)
(-0.00582176 0.0063392 8.18769e-19)
(-0.00554801 0.00639515 2.26699e-18)
(-0.00551837 0.00725244 2.1529e-18)
(-0.00601133 0.00654755 5.91827e-20)
(-0.00573178 0.00660996 2.0531e-18)
(-0.0057139 0.00745256 -1.96209e-18)
(-0.0062001 0.00675505 -1.11033e-18)
(-0.00591463 0.00682376 1.39659e-18)
(-0.00590942 0.00765187 -4.7523e-18)
(-0.00638836 0.006962 -1.21123e-18)
(-0.00609684 0.00703687 9.56527e-19)
(-0.00610513 0.00785067 -2.99736e-18)
(-0.00657634 0.00716868 -3.87405e-19)
(-0.00627864 0.00724957 -4.46124e-19)
(-0.00630115 0.00804922 1.20542e-19)
(-0.00676426 0.0073753 1.05557e-18)
(-0.00646028 0.00746212 -1.13087e-18)
(-0.00649764 0.00824771 4.24405e-18)
(-0.00695229 0.00758206 3.2726e-18)
(-0.00664193 0.00767472 -1.5792e-18)
(-0.00669473 0.00844638 8.83999e-18)
(-0.0071406 0.00778912 5.90237e-18)
(-0.00682376 0.00788756 -1.21184e-18)
(-0.00689257 0.00864542 1.25085e-17)
(-0.00732935 0.00799668 7.84835e-18)
(-0.00700594 0.00810083 -3.84682e-19)
(-0.00709129 0.00884504 1.19894e-17)
(-0.00751872 0.00820493 8.85183e-18)
(-0.00718863 0.00831472 1.55714e-18)
(-0.00729102 0.00904542 9.46673e-18)
(-0.00770888 0.00841403 9.63327e-18)
(-0.00737199 0.00852943 3.58303e-18)
(-0.0074919 0.00924675 7.01817e-18)
(-0.00789995 0.00862414 1.00939e-17)
(-0.00755618 0.00874511 4.3892e-18)
(-0.00769406 0.00944919 4.84171e-18)
(-0.00809208 0.00883543 8.62735e-18)
(-0.00774132 0.00896195 3.31236e-18)
(-8.95238e-05 4.1167e-05 7.73081e-18)
(-0.000108447 4.33206e-05 2.38963e-17)
(-0.000119854 4.83783e-05 2.66355e-17)
(-0.000152296 6.1884e-05 2.52895e-17)
(-0.000226172 9.52237e-05 2.83743e-17)
(-0.000366467 0.000161616 2.50632e-17)
(-0.000594276 0.000276208 1.42143e-18)
(-0.000912035 0.000447286 -3.02271e-17)
(-0.00129664 0.000668166 -3.39056e-17)
(-0.00171044 0.000920101 -2.66444e-17)
(-0.00212018 0.00118327 -3.40649e-17)
(-0.00250748 0.00144454 -2.80235e-17)
(-0.00286746 0.00169845 -1.82929e-17)
(-0.00320229 0.00194425 -1.26859e-17)
(-0.003516 0.00218285 -2.41991e-18)
(-0.00381228 0.00241538 7.1062e-18)
(-0.004094 0.00264273 1.17209e-17)
(-0.00436333 0.00286556 1.61985e-17)
(-0.00462194 0.00308438 1.68413e-17)
(-0.00487121 0.00329958 1.44626e-17)
(-0.00511228 0.00351151 1.36416e-17)
(-0.00534617 0.0037205 1.39559e-17)
(-0.00557378 0.00392686 1.41958e-17)
(-0.00579592 0.0041309 1.31575e-17)
(-0.00601333 0.00433292 1.0949e-17)
(-0.00622667 0.00453321 5.96874e-18)
(-0.00643659 0.00473207 -8.16837e-19)
(-0.00664364 0.00492978 -3.1442e-18)
(-0.00684831 0.00512658 -1.82245e-18)
(-0.00705106 0.00532275 -3.49393e-19)
(-0.0072523 0.00551849 -1.48985e-18)
(-0.00745239 0.00571403 -4.97029e-18)
(-0.0076517 0.00590956 -6.9341e-18)
(-0.00785049 0.00610527 -4.63491e-18)
(-0.00804901 0.00630131 -6.26295e-19)
(-0.00824749 0.00649782 3.14177e-18)
(-0.00844615 0.00669494 6.65907e-18)
(-0.00864517 0.00689278 9.43741e-18)
(-0.00884477 0.00709151 9.63362e-18)
(-0.00904512 0.00729125 7.96874e-18)
(-0.00924641 0.00749215 5.67402e-18)
(-0.00944884 0.00769434 3.63598e-18)
(-5.59116e-05 7.64305e-05 1.1547e-17)
(-7.4068e-05 7.64797e-05 2.20883e-17)
(-7.89935e-05 7.91469e-05 2.38271e-17)
(-9.22466e-05 8.99744e-05 1.90585e-17)
(-0.000126963 0.000123212 1.86176e-17)
(-0.000202746 0.000196109 1.69459e-17)
(-0.000340636 0.000326632 5.27016e-19)
(-0.000554217 0.000527778 -8.41506e-18)
(-0.000839174 0.0007946 -1.12433e-17)
(-0.00117209 0.00110373 5.02642e-18)
(-0.00152292 0.00142697 -5.58081e-18)
(-0.00186881 0.00174414 -2.49012e-17)
(-0.00219883 0.00204604 -1.85991e-17)
(-0.00251089 0.00233135 -7.53432e-18)
(-0.00280687 0.0026019 9.75978e-19)
(-0.00308939 0.00286007 7.95046e-18)
(-0.00336068 0.00310787 1.2187e-17)
(-0.00362246 0.00334686 1.58718e-17)
(-0.003876 0.00357822 1.82998e-17)
(-0.00412234 0.00380292 1.65573e-17)
(-0.00436232 0.00402173 1.43489e-17)
(-0.00459667 0.00423534 1.40607e-17)
(-0.00482607 0.00444437 1.47258e-17)
(-0.00505111 0.00464939 1.48724e-17)
(-0.00527237 0.00485091 1.37314e-17)
(-0.00549038 0.00504941 9.55925e-18)
(-0.00570562 0.00524535 4.21591e-18)
(-0.00591855 0.00543916 9.23073e-19)
(-0.00612957 0.0056312 2.00662e-19)
(-0.00633907 0.00582184 4.61197e-19)
(-0.00654741 0.00601141 -2.9126e-20)
(-0.0067549 0.00620019 -1.20269e-18)
(-0.00696184 0.00638845 -1.90642e-18)
(-0.00716849 0.00657644 -1.60654e-18)
(-0.00737507 0.00676436 -2.17097e-19)
(-0.00758179 0.0069524 1.87067e-18)
(-0.00778884 0.00714074 4.41507e-18)
(-0.0079964 0.00732953 5.81578e-18)
(-0.00820462 0.00751891 6.94809e-18)
(-0.00841369 0.00770906 7.42908e-18)
(-0.00862378 0.00790014 6.85812e-18)
(-0.00883507 0.00809231 4.93392e-18)
(-5.89061e-05 7.2848e-05 1.99564e-17)
(-7.44487e-05 7.44135e-05 2.18463e-17)
(-7.76368e-05 7.61931e-05 2.35844e-17)
(-8.52923e-05 8.08463e-05 2.03563e-17)
(-0.0001064 9.85356e-05 1.46819e-17)
(-0.000158823 0.000146319 2.3517e-17)
(-0.000264914 0.000242348 1.00926e-17)
(-0.000443606 0.000403217 1.33468e-17)
(-0.000700972 0.000633504 2.26536e-17)
(-0.00102169 0.000917576 3.68091e-17)
(-0.00137597 0.00122786 2.97323e-17)
(-0.00173533 0.00154005 -3.68017e-19)
(-0.00208262 0.00184042 -1.31355e-17)
(-0.00241186 0.00212472 -3.0026e-18)
(-0.00272352 0.00239374 8.07775e-18)
(-0.00302013 0.00264968 1.42131e-17)
(-0.00330419 0.00289466 1.75332e-17)
(-0.00357769 0.00313035 1.96419e-17)
(-0.00384215 0.00335806 1.90904e-17)
(-0.00409873 0.00357881 1.65816e-17)
(-0.00434839 0.00379345 1.45334e-17)
(-0.00459194 0.00400269 1.34434e-17)
(-0.00483009 0.00420716 1.26912e-17)
(-0.00506348 0.00440743 1.17717e-17)
(-0.00529274 0.00460404 1.00239e-17)
(-0.00551842 0.00479747 7.54837e-18)
(-0.00574103 0.00498818 5.50271e-18)
(-0.00596105 0.00517659 3.92738e-18)
(-0.00617893 0.00536309 2.89911e-18)
(-0.00639506 0.00554806 2.36816e-18)
(-0.00660984 0.00573181 2.35147e-18)
(-0.00682361 0.00591466 2.0567e-18)
(-0.0070367 0.00609687 1.40879e-18)
(-0.00724937 0.00627868 5.12505e-19)
(-0.00746186 0.00646031 1.65664e-19)
(-0.00767442 0.00664197 -2.61851e-20)
(-0.00788724 0.00682382 -2.98764e-19)
(-0.00810051 0.00700604 1.80532e-21)
(-0.0083144 0.00718876 1.71517e-18)
(-0.00852907 0.00737213 3.42722e-18)
(-0.00874472 0.00755631 3.69964e-18)
(-0.00896152 0.00774146 2.53869e-18)
(-6.06838e-05 6.96327e-05 2.31855e-17)
(-7.47128e-05 7.18539e-05 1.92402e-17)
(-7.7521e-05 7.37122e-05 2.24498e-17)
(-8.20155e-05 7.6276e-05 2.15278e-17)
(-9.40487e-05 8.47307e-05 1.55344e-17)
(-0.000128341 0.000113037 2.34175e-17)
(-0.000205863 0.000180128 2.45522e-17)
(-0.000349694 0.000303729 1.94137e-17)
(-0.00057434 0.000495875 3.29932e-17)
(-0.000874836 0.000750313 3.92514e-17)
(-0.00122551 0.00104316 3.01415e-17)
(-0.00159425 0.00134734 5.91282e-18)
(-0.00195729 0.00164456 -1.31644e-17)
(-0.00230365 0.00192704 6.90488e-19)
(-0.0026314 0.00219399 1.82759e-17)
(-0.00294254 0.00244723 2.59787e-17)
(-0.00323973 0.00268892 2.63382e-17)
(-0.00352524 0.00292087 2.48349e-17)
(-0.00380082 0.0031445 2.1015e-17)
(-0.0040678 0.0033609 1.8372e-17)
(-0.00432726 0.00357097 1.6563e-17)
(-0.00458009 0.00377545 1.45671e-17)
(-0.00482705 0.003975 1.24812e-17)
(-0.00506886 0.00417019 1.05211e-17)
(-0.00530615 0.00436156 8.89828e-18)
(-0.00553951 0.00454962 7.22192e-18)
(-0.00576949 0.00473481 6.40583e-18)
(-0.00599659 0.00491756 4.96593e-18)
(-0.00622129 0.00509827 3.68117e-18)
(-0.006444 0.00527731 2.75959e-18)
(-0.00666516 0.00545501 2.16121e-18)
(-0.00688514 0.00563169 1.17813e-18)
(-0.00710428 0.00580764 3.46041e-19)
(-0.00732288 0.00598308 -2.99602e-19)
(-0.00754119 0.00615824 -6.28259e-19)
(-0.00775945 0.00633331 -2.45554e-19)
(-0.00797789 0.00650848 5.22455e-19)
(-0.00819673 0.00668393 2.02638e-18)
(-0.00841613 0.00685981 3.39898e-18)
(-0.00863628 0.00703624 4.40856e-18)
(-0.00885734 0.00721338 3.69556e-18)
(-0.00907951 0.00739137 2.58243e-18)
(-6.19484e-05 6.64846e-05 1.89016e-17)
(-7.48009e-05 6.89691e-05 1.65483e-17)
(-7.75905e-05 7.1045e-05 2.12799e-17)
(-8.11056e-05 7.3183e-05 2.33681e-17)
(-8.81776e-05 7.70737e-05 2.06369e-17)
(-0.000108757 9.21951e-05 2.23601e-17)
(-0.00016262 0.000135794 2.21708e-17)
(-0.00027396 0.000226608 2.1466e-18)
(-0.000463383 0.000380838 2.00919e-17)
(-0.000736838 0.00060176 2.9763e-17)
(-0.00107647 0.000872272 1.67007e-17)
(-0.00144951 0.00116484 1.2113e-17)
(-0.0018261 0.00145685 -8.51175e-18)
(-0.00218918 0.00173651 -1.15887e-17)
(-0.0025333 0.00200078 1.34802e-17)
(-0.00285935 0.00225082 2.42298e-17)
(-0.00316998 0.00248876 2.57359e-17)
(-0.00346771 0.00271654 2.46966e-17)
(-0.00375455 0.00293567 2.2386e-17)
(-0.00403202 0.00314732 1.99144e-17)
(-0.00430132 0.00335245 1.6954e-17)
(-0.00456344 0.00355182 1.3584e-17)
(-0.00481923 0.00374612 1.10403e-17)
(-0.00506942 0.00393593 8.62448e-18)
(-0.00531469 0.00412179 6.19968e-18)
(-0.00555567 0.00430421 4.49309e-18)
(-0.00579295 0.00448365 3.44801e-18)
(-0.00602706 0.00466053 2.13784e-18)
(-0.00625849 0.00483525 1.24162e-18)
(-0.00648769 0.00500817 8.42809e-19)
(-0.0067151 0.00517963 4.999e-19)
(-0.00694115 0.00534997 -4.51373e-19)
(-0.0071662 0.00551946 -9.59694e-19)
(-0.00739056 0.00568837 -4.17151e-19)
(-0.00761453 0.0058569 5.79015e-19)
(-0.00783835 0.00602526 2.19761e-18)
(-0.00806226 0.00619361 3.51885e-18)
(-0.00828647 0.00636215 4.41973e-18)
(-0.00851119 0.00653103 4.37257e-18)
(-0.0087366 0.00670039 4.98116e-18)
(-0.00896288 0.00687036 4.33588e-18)
(-0.00919023 0.0070411 3.26971e-18)
(-6.29172e-05 6.33649e-05 1.41754e-17)
(-7.47607e-05 6.59268e-05 1.51169e-17)
(-7.77212e-05 6.81404e-05 1.90006e-17)
(-8.11513e-05 7.02269e-05 2.13281e-17)
(-8.56523e-05 7.26642e-05 2.29735e-17)
(-9.75867e-05 7.99562e-05 2.92936e-17)
(-0.000133087 0.000105821 3.51488e-17)
(-0.000215355 0.000169362 2.10367e-17)
(-0.000369619 0.000288205 2.9369e-17)
(-0.000610943 0.000473454 4.40562e-17)
(-0.000932008 0.000716974 3.08272e-17)
(-0.00130327 0.000993855 3.37932e-17)
(-0.00169026 0.00127814 1.26492e-17)
(-0.0020691 0.00155374 -1.07718e-17)
(-0.00242973 0.00181467 2.66253e-18)
(-0.00277104 0.002061 1.33711e-17)
(-0.0030954 0.00229471 1.74328e-17)
(-0.00340555 0.00251783 1.96904e-17)
(-0.00370376 0.002732 2.31795e-17)
(-0.00399178 0.00293849 2.26725e-17)
(-0.00427095 0.00313827 1.86387e-17)
(-0.00454236 0.00333217 1.34536e-17)
(-0.00480693 0.00352087 8.5354e-18)
(-0.00506545 0.00370498 4.89715e-18)
(-0.00531865 0.00388503 2.07275e-18)
(-0.00556719 0.00406154 5.464e-19)
(-0.00581169 0.00423497 -6.3776e-19)
(-0.0060527 0.00440573 -1.25889e-18)
(-0.00629074 0.00457424 -1.30711e-18)
(-0.00652632 0.00474085 -7.48378e-19)
(-0.00675988 0.0049059 1.4518e-19)
(-0.00699187 0.00506972 8.32642e-19)
(-0.00722267 0.00523259 2.00952e-18)
(-0.00745264 0.00539478 3.5797e-18)
(-0.0076821 0.00555653 4.44489e-18)
(-0.0079113 0.00571802 4.88315e-18)
(-0.00814049 0.00587943 4.73312e-18)
(-0.00836989 0.00604092 4.53633e-18)
(-0.00859974 0.00620267 4.72505e-18)
(-0.00883022 0.00636481 5.09693e-18)
(-0.00906152 0.00652748 4.45186e-18)
(-0.00929384 0.00669083 3.04816e-18)
(-6.36929e-05 6.0247e-05 9.21372e-18)
(-7.46321e-05 6.28007e-05 1.34319e-17)
(-7.77908e-05 6.50726e-05 1.56303e-17)
(-8.12675e-05 6.71843e-05 1.80624e-17)
(-8.51004e-05 6.93109e-05 2.27536e-17)
(-9.23297e-05 7.2757e-05 2.8647e-17)
(-0.000114005 8.68324e-05 3.58689e-17)
(-0.000172171 0.000128584 3.03231e-17)
(-0.000293492 0.000216482 3.63368e-17)
(-0.000499834 0.000366186 5.05795e-17)
(-0.000795479 0.000578995 4.87102e-17)
(-0.0011581 0.000835837 3.80705e-17)
(-0.00155124 0.00110942 3.22224e-17)
(-0.00194425 0.00137935 -4.18451e-19)
(-0.00232125 0.00163616 -1.12271e-17)
(-0.00267813 0.00187824 1.45849e-18)
(-0.0030165 0.00210722 1.08328e-17)
(-0.00333924 0.00232519 1.8109e-17)
(-0.00364892 0.00253392 2.32901e-17)
(-0.00394752 0.00273477 2.23333e-17)
(-0.00423655 0.00292879 1.72438e-17)
(-0.00451722 0.00311682 1.24323e-17)
(-0.00479051 0.00329955 7.83456e-18)
(-0.0050573 0.00347762 3.84238e-18)
(-0.00531836 0.00365155 8.16751e-19)
(-0.00557437 0.00382186 -2.52582e-19)
(-0.00582597 0.003989 -4.215e-19)
(-0.00607377 0.00415341 -3.00036e-19)
(-0.00631832 0.00431547 2.05728e-19)
(-0.00656014 0.00447556 7.96642e-19)