/*--------------------------------*- C++ -*----------------------------------*\
  =========                 |
  \\      /  F ield         | OpenFOAM: The Open Source CFD Toolbox
   \\    /   O peration     | Website:  https://openfoam.org
    \\  /    A nd           | Version:  7
     \\/     M anipulation  |
\*---------------------------------------------------------------------------*/
FoamFile
{
    version     2.0;
    format      ascii;
    class       volScalarField;
    location    "24000";
    object      k;
}
// * * * * * * * * * * * * * * * * * * * * * * * * * * * * * * * * * * * * * //

dimensions      [0 2 -2 0 0 0 0];

internalField   nonuniform List<scalar> 
4825
(
2.22045e-16
2.22045e-16
2.22045e-16
2.22045e-16
2.22045e-16
2.22045e-16
2.22045e-16
2.2206e-16
2.2205e-16
2.22045e-16
2.22045e-16
2.22045e-16
2.22104e-16
2.22081e-16
2.22066e-16
2.22055e-16
2.22047e-16
2.22206e-16
2.22154e-16
2.22118e-16
2.22092e-16
2.22073e-16
2.22416e-16
2.22313e-16
2.22237e-16
2.2218e-16
2.22138e-16
2.22802e-16
2.22621e-16
2.22479e-16
2.22368e-16
2.22283e-16
2.23426e-16
2.23144e-16
2.22912e-16
2.22722e-16
2.22568e-16
2.24333e-16
2.23938e-16
2.23598e-16
2.23308e-16
2.23064e-16
2.25546e-16
2.25032e-16
2.24577e-16
2.24177e-16
2.23829e-16
2.27063e-16
2.26434e-16
2.25866e-16
2.25354e-16
2.24897e-16
2.28867e-16
2.28133e-16
2.27459e-16
2.26842e-16
2.26278e-16
2.30929e-16
2.30104e-16
2.29337e-16
2.28624e-16
2.27963e-16
2.33209e-16
2.32311e-16
2.31466e-16
2.30673e-16
2.35661e-16
2.34709e-16
2.33805e-16
2.32949e-16
2.38231e-16
2.37246e-16
2.36304e-16
2.35404e-16
2.40885e-16
2.3988e-16
2.38913e-16
2.43583e-16
2.42573e-16
2.41595e-16
2.4629e-16
2.45288e-16
2.4897e-16
2.4799e-16
2.51589e-16
2.50641e-16
2.54113e-16
2.53209e-16
2.56511e-16
2.55663e-16
2.58756e-16
2.22045e-16
2.22045e-16
2.22045e-16
2.22045e-16
2.22045e-16
2.22045e-16
2.22045e-16
2.22045e-16
2.22045e-16
2.22045e-16
2.22045e-16
2.22045e-16
2.22045e-16
2.22045e-16
2.22045e-16
2.22045e-16
2.22045e-16
2.22045e-16
2.22045e-16
2.22045e-16
2.22045e-16
2.22045e-16
2.22045e-16
2.22045e-16
2.22045e-16
2.22045e-16
2.22045e-16
2.22045e-16
2.22045e-16
2.22045e-16
2.22045e-16
2.22045e-16
2.22045e-16
2.22045e-16
2.22045e-16
2.22045e-16
2.22045e-16
2.22045e-16
2.22045e-16
2.22045e-16
2.22045e-16
2.22045e-16
2.22045e-16
2.22045e-16
2.22045e-16
2.22045e-16
2.22045e-16
2.22045e-16
2.22045e-16
2.22045e-16
2.22045e-16
2.22045e-16
2.22045e-16
2.22045e-16
2.22045e-16
2.22045e-16
2.22045e-16
2.22045e-16
2.22045e-16
2.22045e-16
2.22045e-16
2.22045e-16
2.22045e-16
2.22045e-16
2.22045e-16
2.22045e-16
2.22045e-16
2.22045e-16
2.22045e-16
2.22045e-16
2.22045e-16
2.22045e-16
2.22045e-16
2.22045e-16
2.22045e-16
2.22045e-16
2.22045e-16
2.22045e-16
2.22045e-16
2.22045e-16
2.22045e-16
2.22045e-16
2.22045e-16
2.22045e-16
2.22045e-16
2.22045e-16
2.22045e-16
2.22045e-16
2.22045e-16
2.22045e-16
2.22045e-16
2.22045e-16
2.22045e-16
2.22045e-16
2.22045e-16
2.22045e-16
2.22045e-16
2.22045e-16
2.22045e-16
2.22045e-16
2.22045e-16
2.22045e-16
2.22045e-16
2.22045e-16
2.22045e-16
2.22045e-16
2.22045e-16
2.22045e-16
2.22045e-16
2.22045e-16
2.22045e-16
2.22045e-16
2.22045e-16
2.22045e-16
2.22045e-16
2.22045e-16
2.22045e-16
2.22045e-16
2.22045e-16
2.22045e-16
2.22045e-16
2.22045e-16
2.22045e-16
2.22045e-16
2.22045e-16
2.22045e-16
2.22045e-16
2.22045e-16
2.22045e-16
2.22045e-16
2.22045e-16
2.22045e-16
2.22045e-16
2.22045e-16
2.22045e-16
2.22045e-16
2.22045e-16
2.22045e-16
2.22045e-16
2.22045e-16
2.22045e-16
2.22045e-16
2.22045e-16
2.22045e-16
2.22045e-16
2.22045e-16
2.22045e-16
2.22045e-16
2.22045e-16
2.22045e-16
2.22045e-16
2.22045e-16
2.22045e-16
2.22045e-16
2.22045e-16
2.22045e-16
2.22045e-16
2.22045e-16
2.22045e-16
2.22045e-16
2.22045e-16
2.22045e-16
2.22045e-16
2.22045e-16
2.22045e-16
2.22045e-16
2.22045e-16
2.22045e-16
2.22045e-16
2.22045e-16
2.22045e-16
2.22045e-16
2.22045e-16
2.22045e-16
2.22045e-16
2.22045e-16
2.22045e-16
2.22045e-16
2.22045e-16
2.22045e-16
2.22045e-16
2.22045e-16
2.22045e-16
2.22045e-16
2.22045e-16
2.22045e-16
2.22045e-16
2.22045e-16
2.22045e-16
2.22045e-16
2.22045e-16
2.22045e-16
2.22045e-16
2.22045e-16
2.22045e-16
2.22045e-16
2.22045e-16
2.22045e-16
2.22045e-16
2.22045e-16
2.22045e-16
2.22045e-16
2.22045e-16
2.22045e-16
2.22045e-16
2.22045e-16
2.22045e-16
2.22045e-16
2.22045e-16
2.22045e-16
2.22045e-16
2.22045e-16
2.22045e-16
2.22045e-16
2.22045e-16
2.22045e-16
2.22045e-16
2.22045e-16
2.22045e-16
2.22045e-16
2.22045e-16
2.22045e-16
2.22045e-16
2.22045e-16
2.22045e-16
2.22045e-16
2.22045e-16
2.22045e-16
2.22045e-16
2.22045e-16
2.22045e-16
2.22045e-16
2.22045e-16
2.22045e-16
2.22045e-16
2.22045e-16
2.22045e-16
2.22045e-16
2.22045e-16
2.22045e-16
2.22045e-16
2.22045e-16
2.22045e-16
2.22045e-16
2.22045e-16
2.22045e-16
2.22045e-16
2.22045e-16
2.22045e-16
2.22045e-16
2.22045e-16
2.22045e-16
2.22045e-16
2.22045e-16
2.22045e-16
2.22045e-16
2.22045e-16
2.22045e-16
2.22045e-16
2.22045e-16
2.22045e-16
2.22045e-16
2.22045e-16
2.22045e-16
2.22045e-16
2.22045e-16
2.22045e-16
2.22045e-16
2.22045e-16
2.22045e-16
2.22045e-16
2.22045e-16
2.22045e-16
2.22045e-16
2.22045e-16
2.22045e-16
2.22045e-16
2.22045e-16
2.22045e-16
2.22045e-16
2.22045e-16
2.22045e-16
2.22045e-16
2.22045e-16
2.22045e-16
2.22045e-16
2.22045e-16
2.22045e-16
2.22045e-16
2.22045e-16
2.22045e-16
2.22045e-16
2.22045e-16
2.22045e-16
2.22045e-16
2.22045e-16
2.22045e-16
2.22045e-16
2.22045e-16
2.22045e-16
2.22045e-16
2.22045e-16
2.22045e-16
2.22045e-16
2.22045e-16
2.22045e-16
2.22045e-16
2.22045e-16
2.22045e-16
2.22045e-16
2.22045e-16
2.22045e-16
2.22045e-16
2.22045e-16
2.22045e-16
2.22045e-16
2.22045e-16
2.22045e-16
2.22045e-16
2.22045e-16
2.22045e-16
2.22045e-16
2.22045e-16
2.22045e-16
2.22045e-16
2.22045e-16
2.22045e-16
2.22045e-16
2.22045e-16
2.22045e-16
2.22045e-16
2.22045e-16
2.22045e-16
2.22045e-16
2.22045e-16
2.22045e-16
2.22045e-16
2.22045e-16
2.22045e-16
2.22045e-16
2.22045e-16
2.22045e-16
2.22045e-16
2.22045e-16
2.22045e-16
2.22045e-16
2.22045e-16
2.22045e-16
2.22045e-16
2.22045e-16
2.22045e-16
2.22045e-16
2.22045e-16
2.22045e-16
2.22045e-16
2.22045e-16
2.22045e-16
2.22045e-16
2.22045e-16
2.22045e-16
2.22045e-16
2.22045e-16
2.22045e-16
2.22045e-16
2.22045e-16
2.22045e-16
2.22045e-16
2.22045e-16
2.22045e-16
2.22045e-16
2.22045e-16
2.22045e-16
2.22045e-16
2.22045e-16
2.22045e-16
2.22045e-16
2.22045e-16
2.22045e-16
2.22045e-16
2.22045e-16
2.22045e-16
2.22045e-16
2.22045e-16
2.22045e-16
2.22045e-16
2.22045e-16
2.22045e-16
2.22045e-16
2.22045e-16
2.22045e-16
2.22045e-16
2.22045e-16
2.22045e-16
2.22045e-16
2.22045e-16
2.22045e-16
2.22045e-16
2.22045e-16
2.22045e-16
2.22045e-16
2.22045e-16
2.22045e-16
2.22045e-16
2.22045e-16
2.22045e-16
2.22045e-16
2.22045e-16
2.22045e-16
2.22045e-16
2.22045e-16
2.22045e-16
2.22045e-16
2.22045e-16
2.22045e-16
2.22045e-16
2.22045e-16
2.22045e-16
2.22045e-16
2.22045e-16
2.22045e-16
2.22045e-16
2.22045e-16
2.22045e-16
2.22045e-16
2.22045e-16
2.22045e-16
2.22045e-16
2.22045e-16
2.22045e-16
2.22045e-16
2.22045e-16
2.22045e-16
2.22045e-16
2.22045e-16
2.22045e-16
2.22045e-16
2.22045e-16
2.22045e-16
2.22045e-16
2.22045e-16
2.22045e-16
2.22045e-16
2.22045e-16
2.22045e-16
2.22045e-16
2.22045e-16
2.22045e-16
2.22045e-16
2.22045e-16
2.22045e-16
2.22045e-16
2.22045e-16
2.22045e-16
2.22045e-16
2.22045e-16
2.22045e-16
2.22045e-16
2.22045e-16
2.22045e-16
2.22045e-16
2.22045e-16
2.22045e-16
2.22045e-16
2.22045e-16
2.22045e-16
2.22045e-16
2.22045e-16
2.22045e-16
2.22045e-16
2.22045e-16
2.22045e-16
2.22045e-16
2.22045e-16
2.22045e-16
2.22045e-16
2.22045e-16
2.22045e-16
2.22045e-16
2.22045e-16
2.22045e-16
2.22045e-16
2.22045e-16
2.22045e-16
2.22045e-16
2.22045e-16
2.22045e-16
2.22045e-16
2.22045e-16
2.22045e-16
2.22045e-16
2.22045e-16
2.22045e-16
2.22045e-16
2.22045e-16
2.22045e-16
2.22045e-16
2.22045e-16
2.22045e-16
2.22045e-16
2.22045e-16
2.22045e-16
2.22045e-16
2.22045e-16
2.22045e-16
2.22045e-16
2.22045e-16
2.22045e-16
2.22045e-16
2.22045e-16
2.22045e-16
2.22045e-16
2.22045e-16
2.22045e-16
2.22045e-16
2.22045e-16
2.22045e-16
2.22045e-16
2.22045e-16
2.22045e-16
2.22045e-16
2.22045e-16
2.22045e-16
2.22045e-16
2.22045e-16
2.22045e-16
2.22045e-16
2.22045e-16
2.22045e-16
2.22045e-16
2.22045e-16
2.22045e-16
2.22045e-16
2.22045e-16
2.22045e-16
2.22045e-16
2.22045e-16
2.22045e-16
2.22045e-16
2.22045e-16
2.22045e-16
2.22045e-16
2.22045e-16
2.22045e-16
2.22045e-16
2.22045e-16
2.22045e-16
2.22045e-16
2.22045e-16
2.22045e-16
2.22045e-16
2.22045e-16
2.22045e-16
2.22045e-16
2.22045e-16
2.22045e-16
2.22045e-16
2.22045e-16
2.22045e-16
2.22045e-16
2.22045e-16
2.22045e-16
2.22045e-16
2.22045e-16
2.22045e-16
2.22045e-16
2.22045e-16
2.22045e-16
2.22045e-16
2.22045e-16
2.22045e-16
2.22045e-16
2.22045e-16
2.22045e-16
2.22045e-16
2.22057e-16
2.22047e-16
2.22045e-16
2.22045e-16
2.22045e-16
2.22045e-16
2.22045e-16
2.22045e-16
2.22045e-16
2.22045e-16
2.22045e-16
2.22045e-16
2.22045e-16
2.22045e-16
2.22045e-16
2.22045e-16
2.22045e-16
2.22045e-16
2.22045e-16
2.22045e-16
2.22045e-16
2.22045e-16
2.22045e-16
2.22045e-16
2.22045e-16
2.22045e-16
2.22045e-16
2.22045e-16
2.22045e-16
2.22045e-16
2.22045e-16
2.22045e-16
2.22045e-16
2.22045e-16
2.22045e-16
2.22045e-16
2.22045e-16
2.22045e-16
2.22045e-16
2.22045e-16
2.22045e-16
2.22045e-16
2.22045e-16
2.22045e-16
2.22045e-16
2.22045e-16
2.22045e-16
2.22045e-16
2.22049e-16
2.22059e-16
2.221e-16
2.22077e-16
2.22062e-16
2.22052e-16
2.22045e-16
2.22045e-16
2.22045e-16
2.22045e-16
2.22045e-16
2.22045e-16
2.22045e-16
2.22045e-16
2.22045e-16
2.22045e-16
2.22045e-16
2.22045e-16
2.22045e-16
2.22045e-16
2.22045e-16
2.22045e-16
2.22045e-16
2.22045e-16
2.22045e-16
2.22045e-16
2.22045e-16
2.22045e-16
2.22045e-16
2.22045e-16
2.22045e-16
2.22045e-16
2.22045e-16
2.22045e-16
2.22045e-16
2.22045e-16
2.22045e-16
2.22045e-16
2.22045e-16
2.22045e-16
2.22045e-16
2.22045e-16
2.22045e-16
2.22045e-16
2.22045e-16
2.22045e-16
2.22045e-16
2.22045e-16
2.22052e-16
2.22063e-16
2.22079e-16
2.22103e-16
2.22201e-16
2.2215e-16
2.22114e-16
2.22088e-16
2.2207e-16
2.22058e-16
2.2205e-16
2.22045e-16
2.22045e-16
2.22045e-16
2.22045e-16
2.22045e-16
2.22045e-16
2.22045e-16
2.22045e-16
2.22045e-16
2.22045e-16
2.22045e-16
2.22045e-16
2.22045e-16
2.22045e-16
2.22045e-16
2.22045e-16
2.22045e-16
2.22045e-16
2.22045e-16
2.22045e-16
2.22045e-16
2.22045e-16
2.22045e-16
2.22045e-16
2.22045e-16
2.22045e-16
2.22045e-16
2.22045e-16
2.22045e-16
2.22045e-16
2.22045e-16
2.22045e-16
2.22045e-16
2.22045e-16
2.22045e-16
2.22045e-16
2.2205e-16
2.22058e-16
2.2207e-16
2.22089e-16
2.22115e-16
2.22152e-16
2.22204e-16
2.22411e-16
2.22308e-16
2.22232e-16
2.22176e-16
2.22134e-16
2.22105e-16
2.22084e-16
2.22069e-16
2.22059e-16
2.22051e-16
2.22045e-16
2.22045e-16
2.22045e-16
2.22045e-16
2.22045e-16
2.22045e-16
2.22045e-16
2.22045e-16
2.22045e-16
2.22045e-16
2.22045e-16
2.22045e-16
2.22045e-16
2.22045e-16
2.22045e-16
2.22045e-16
2.22045e-16
2.22045e-16
2.22045e-16
2.22045e-16
2.22045e-16
2.22045e-16
2.22045e-16
2.22045e-16
2.22045e-16
2.22045e-16
2.22045e-16
2.22045e-16
2.22045e-16
2.22045e-16
2.22051e-16
2.22059e-16
2.22069e-16
2.22085e-16
2.22106e-16
2.22135e-16
2.22177e-16
2.22234e-16
2.22311e-16
2.22415e-16
2.22797e-16
2.22615e-16
2.22473e-16
2.22363e-16
2.22278e-16
2.22215e-16
2.22167e-16
2.22132e-16
2.22107e-16
2.22088e-16
2.22073e-16
2.22063e-16
2.22056e-16
2.2205e-16
2.22046e-16
2.22045e-16
2.22045e-16
2.22045e-16
2.22045e-16
2.22045e-16
2.22045e-16
2.22045e-16
2.22045e-16
2.22045e-16
2.22045e-16
2.22045e-16
2.22045e-16
2.22045e-16
2.22045e-16
2.22045e-16
2.22045e-16
2.22045e-16
2.22045e-16
2.22045e-16
2.22045e-16
2.22046e-16
2.2205e-16
2.22056e-16
2.22064e-16
2.22073e-16
2.22088e-16
2.22107e-16
2.22132e-16
2.22168e-16
2.22216e-16
2.22279e-16
2.22364e-16
2.22475e-16
2.22618e-16
2.228e-16
2.23422e-16
2.23139e-16
2.22906e-16
2.22716e-16
2.22563e-16
2.22442e-16
2.22348e-16
2.22274e-16
2.22218e-16
2.22176e-16
2.22143e-16
2.22119e-16
2.22101e-16
2.22087e-16
2.22076e-16
2.22068e-16
2.22062e-16
2.22057e-16
2.22053e-16
2.22051e-16
2.22048e-16
2.22047e-16
2.22046e-16
2.22045e-16
2.22045e-16
2.22045e-16
2.22045e-16
2.22046e-16
2.22047e-16
2.22048e-16
2.22051e-16
2.22053e-16
2.22057e-16
2.22062e-16
2.22068e-16
2.22076e-16
2.22087e-16
2.22101e-16
2.22119e-16
2.22143e-16
2.22176e-16
2.22219e-16
2.22275e-16
2.22349e-16
2.22443e-16
2.22564e-16
2.22718e-16
2.22908e-16
2.23141e-16
2.23424e-16
2.24331e-16
2.23934e-16
2.23593e-16
2.23303e-16
2.23059e-16
2.22857e-16
2.22692e-16
2.22558e-16
2.22451e-16
2.22366e-16
2.22299e-16
2.22247e-16
2.22206e-16
2.22174e-16
2.22149e-16
2.2213e-16
2.22115e-16
2.22104e-16
2.22094e-16
2.22087e-16
2.22082e-16
2.22078e-16
2.22075e-16
2.22073e-16
2.22072e-16
2.22072e-16
2.22073e-16
2.22075e-16
2.22078e-16
2.22082e-16
2.22088e-16
2.22095e-16
2.22104e-16
2.22115e-16
2.2213e-16
2.22149e-16
2.22174e-16
2.22207e-16
2.22248e-16
2.223e-16
2.22367e-16
2.22452e-16
2.22559e-16
2.22694e-16
2.22859e-16
2.2306e-16
2.23304e-16
2.23594e-16
2.23934e-16
2.24332e-16
2.25546e-16
2.2503e-16
2.24575e-16
2.24174e-16
2.23825e-16
2.23525e-16
2.23271e-16
2.23055e-16
2.22876e-16
2.22729e-16
2.22608e-16
2.22509e-16
2.22429e-16
2.22365e-16
2.22314e-16
2.22273e-16
2.2224e-16
2.22214e-16
2.22193e-16
2.22177e-16
2.22165e-16
2.22155e-16
2.22149e-16
2.22144e-16
2.22142e-16
2.22142e-16
2.22144e-16
2.22149e-16
2.22155e-16
2.22165e-16
2.22177e-16
2.22193e-16
2.22214e-16
2.2224e-16
2.22273e-16
2.22314e-16
2.22365e-16
2.2243e-16
2.2251e-16
2.22608e-16
2.2273e-16
2.22878e-16
2.23057e-16
2.23272e-16
2.23526e-16
2.23825e-16
2.24174e-16
2.24574e-16
2.25029e-16
2.25545e-16
2.27066e-16
2.26435e-16
2.25866e-16
2.25354e-16
2.24895e-16
2.2449e-16
2.24135e-16
2.23825e-16
2.23559e-16
2.23333e-16
2.2314e-16
2.22978e-16
2.22842e-16
2.2273e-16
2.22637e-16
2.2256e-16
2.22498e-16
2.22447e-16
2.22405e-16
2.22373e-16
2.22347e-16
2.22328e-16
2.22314e-16
2.22305e-16
2.22301e-16
2.22301e-16
2.22305e-16
2.22314e-16
2.22328e-16
2.22347e-16
2.22373e-16
2.22406e-16
2.22447e-16
2.22498e-16
2.22561e-16
2.22637e-16
2.2273e-16
2.22843e-16
2.22979e-16
2.23141e-16
2.23335e-16
2.23562e-16
2.23828e-16
2.24137e-16
2.2449e-16
2.24894e-16
2.25353e-16
2.25863e-16
2.26431e-16
2.27062e-16
2.28873e-16
2.28138e-16
2.27463e-16
2.26844e-16
2.26279e-16
2.25769e-16
2.25313e-16
2.24905e-16
2.24545e-16
2.24231e-16
2.23957e-16
2.23718e-16
2.23514e-16
2.2334e-16
2.23192e-16
2.23068e-16
2.22963e-16
2.22876e-16
2.22805e-16
2.22747e-16
2.22701e-16
2.22666e-16
2.22641e-16
2.22624e-16
2.22617e-16
2.22616e-16
2.22625e-16
2.22641e-16
2.22666e-16
2.22701e-16
2.22748e-16
2.22805e-16
2.22876e-16
2.22963e-16
2.23068e-16
2.23193e-16
2.2334e-16
2.23515e-16
2.2372e-16
2.23958e-16
2.24233e-16
2.24548e-16
2.24907e-16
2.25315e-16
2.25769e-16
2.26277e-16
2.26842e-16
2.27458e-16
2.28131e-16
2.28866e-16
2.30939e-16
2.30112e-16
2.29345e-16
2.28631e-16
2.27967e-16
2.27359e-16
2.26807e-16
2.26302e-16
2.2585e-16
2.25447e-16
2.25088e-16
2.2477e-16
2.24491e-16
2.24249e-16
2.24039e-16
2.23857e-16
2.23702e-16
2.23571e-16
2.23462e-16
2.23372e-16
2.23301e-16
2.23245e-16
2.23205e-16
2.23178e-16
2.23165e-16
2.23165e-16
2.23178e-16
2.23204e-16
2.23245e-16
2.23301e-16
2.23373e-16
2.23463e-16
2.23572e-16
2.23703e-16
2.23858e-16
2.24039e-16
2.24249e-16
2.24492e-16
2.24772e-16
2.25089e-16
2.2545e-16
2.25853e-16
2.26305e-16
2.26808e-16
2.27358e-16
2.27963e-16
2.28626e-16
2.29336e-16
2.30103e-16
2.30928e-16
2.33223e-16
2.32323e-16
2.31479e-16
2.30683e-16
2.29935e-16
2.2924e-16
2.28601e-16
2.28008e-16
2.27469e-16
2.26983e-16
2.26543e-16
2.26145e-16
2.25792e-16
2.25481e-16
2.25207e-16
2.24966e-16
2.24757e-16
2.24578e-16
2.24427e-16
2.24302e-16
2.24201e-16
2.24122e-16
2.24064e-16
2.24026e-16
2.24007e-16
2.24007e-16
2.24026e-16
2.24064e-16
2.24122e-16
2.24201e-16
2.24304e-16
2.24428e-16
2.24579e-16
2.24758e-16
2.24967e-16
2.25208e-16
2.25481e-16
2.25793e-16
2.26148e-16
2.26544e-16
2.26986e-16
2.27473e-16
2.28011e-16
2.28602e-16
2.29238e-16
2.29929e-16
2.30677e-16
2.31467e-16
2.3231e-16
2.33209e-16
2.35679e-16
2.34725e-16
2.33823e-16
2.32963e-16
2.32145e-16
2.31379e-16
2.30667e-16
2.29997e-16
2.29382e-16
2.28821e-16
2.28307e-16
2.27836e-16
2.27414e-16
2.27037e-16
2.26702e-16
2.26403e-16
2.26141e-16
2.25915e-16
2.25722e-16
2.2556e-16
2.2543e-16
2.25327e-16
2.25251e-16
2.252e-16
2.25175e-16
2.25175e-16
2.252e-16
2.2525e-16
2.25326e-16
2.2543e-16
2.25563e-16
2.25723e-16
2.25916e-16
2.26142e-16
2.26405e-16
2.26703e-16
2.27037e-16
2.27415e-16
2.27839e-16
2.28308e-16
2.28825e-16
2.29386e-16
2.3e-16
2.30667e-16
2.31376e-16
2.32137e-16
2.32954e-16
2.33807e-16
2.34708e-16
2.3566e-16
2.38254e-16
2.37267e-16
2.36326e-16
2.35423e-16
2.34554e-16
2.33732e-16
2.32963e-16
2.32231e-16
2.31553e-16
2.30929e-16
2.30353e-16
2.29818e-16
2.29334e-16
2.28899e-16
2.28509e-16
2.28157e-16
2.27846e-16
2.27576e-16
2.27343e-16
2.27147e-16
2.26989e-16
2.26863e-16
2.2677e-16
2.26707e-16
2.26677e-16
2.26676e-16
2.26707e-16
2.26769e-16
2.26862e-16
2.26989e-16
2.27151e-16
2.27345e-16
2.27577e-16
2.27848e-16
2.2816e-16
2.2851e-16
2.28899e-16
2.29335e-16
2.29821e-16
2.30352e-16
2.30933e-16
2.31557e-16
2.32234e-16
2.32962e-16
2.33728e-16
2.34544e-16
2.35411e-16
2.36306e-16
2.37245e-16
2.3823e-16
2.40912e-16
2.39905e-16
2.3894e-16
2.38008e-16
2.37107e-16
2.3625e-16
2.35442e-16
2.34665e-16
2.33938e-16
2.33266e-16
2.3264e-16
2.32053e-16
2.31518e-16
2.31033e-16
2.30597e-16
2.30199e-16
2.29846e-16
2.29537e-16
2.29269e-16
2.29043e-16
2.28859e-16
2.28713e-16
2.28604e-16
2.2853e-16
2.28495e-16
2.28494e-16
2.2853e-16
2.28603e-16
2.28711e-16
2.28859e-16
2.29048e-16
2.29271e-16
2.29538e-16
2.29848e-16
2.30203e-16
2.30598e-16
2.31034e-16
2.31519e-16
2.32055e-16
2.32639e-16
2.3327e-16
2.33943e-16
2.34667e-16
2.3544e-16
2.36245e-16
2.37094e-16
2.37993e-16
2.38916e-16
2.39879e-16
2.40883e-16
2.43615e-16
2.42602e-16
2.41627e-16
2.4068e-16
2.3976e-16
2.38882e-16
2.38047e-16
2.37242e-16
2.36484e-16
2.3578e-16
2.3512e-16
2.34493e-16
2.33919e-16
2.33398e-16
2.32925e-16
2.32491e-16
2.32102e-16
2.31761e-16
2.31464e-16
2.31213e-16
2.31008e-16
2.30844e-16
2.30723e-16
2.30639e-16
2.30599e-16
2.30598e-16
2.30639e-16
2.30721e-16
2.30842e-16
2.31007e-16
2.31218e-16
2.31466e-16
2.31763e-16
2.32105e-16
2.32495e-16
2.32927e-16
2.33398e-16
2.3392e-16
2.34496e-16
2.35117e-16
2.35784e-16
2.3649e-16
2.37244e-16
2.38044e-16
2.38875e-16
2.39746e-16
2.40663e-16
2.41599e-16
2.42573e-16
2.43581e-16
2.46327e-16
2.45322e-16
2.4435e-16
2.43401e-16
2.42476e-16
2.41589e-16
2.4074e-16
2.39919e-16
2.39143e-16
2.38418e-16
2.37735e-16
2.37084e-16
2.36486e-16
2.35939e-16
2.35441e-16
2.34981e-16
2.34567e-16
2.34201e-16
2.33882e-16
2.33611e-16
2.3339e-16
2.33213e-16
2.33082e-16
2.32991e-16
2.32947e-16
2.32945e-16
2.3299e-16
2.33079e-16
2.3321e-16
2.33389e-16
2.33617e-16
2.33885e-16
2.34203e-16
2.34569e-16
2.34985e-16
2.35443e-16
2.35939e-16
2.36486e-16
2.37087e-16
2.37731e-16
2.38421e-16
2.39148e-16
2.39921e-16
2.40736e-16
2.41579e-16
2.42459e-16
2.43381e-16
2.44317e-16
2.45288e-16
2.46288e-16
2.49011e-16
2.48028e-16
2.47072e-16
2.46134e-16
2.45216e-16
2.44332e-16
2.43482e-16
2.42658e-16
2.41874e-16
2.41138e-16
2.40444e-16
2.39779e-16
2.39165e-16
2.38603e-16
2.38088e-16
2.37611e-16
2.37181e-16
2.36801e-16
2.36467e-16
2.36184e-16
2.35952e-16
2.35765e-16
2.35628e-16
2.35532e-16
2.35486e-16
2.35483e-16
2.35531e-16
2.35624e-16
2.35762e-16
2.35951e-16
2.3619e-16
2.3647e-16
2.36803e-16
2.37185e-16
2.37616e-16
2.3809e-16
2.38603e-16
2.39165e-16
2.39782e-16
2.40439e-16
2.41141e-16
2.41878e-16
2.42659e-16
2.43477e-16
2.4432e-16
2.45197e-16
2.4611e-16
2.47034e-16
2.47988e-16
2.48968e-16
2.51635e-16
2.50684e-16
2.49755e-16
2.48842e-16
2.47943e-16
2.47075e-16
2.46233e-16
2.45418e-16
2.44637e-16
2.43901e-16
2.43206e-16
2.42537e-16
2.41916e-16
2.41348e-16
2.40823e-16
2.40339e-16
2.399e-16
2.3951e-16
2.39168e-16
2.38876e-16
2.38637e-16
2.38445e-16
2.38304e-16
2.38204e-16
2.38156e-16
2.38153e-16
2.38203e-16
2.38298e-16
2.38441e-16
2.38636e-16
2.38884e-16
2.39172e-16
2.39513e-16
2.39904e-16
2.40345e-16
2.40827e-16
2.41349e-16
2.41918e-16
2.4254e-16
2.43202e-16
2.43904e-16
2.4464e-16
2.45418e-16
2.46228e-16
2.4706e-16
2.47921e-16
2.48814e-16
2.49713e-16
2.5064e-16
2.51587e-16
2.54164e-16
2.53257e-16
2.52368e-16
2.51489e-16
2.50622e-16
2.49778e-16
2.48959e-16
2.48163e-16
2.47394e-16
2.4667e-16
2.45983e-16
2.45319e-16
2.44701e-16
2.44134e-16
2.43609e-16
2.43123e-16
2.42683e-16
2.42288e-16
2.41943e-16
2.41646e-16
2.41405e-16
2.4121e-16
2.41067e-16
2.40965e-16
2.40916e-16
2.40913e-16
2.40963e-16
2.41061e-16
2.41205e-16
2.41404e-16
2.41656e-16
2.41946e-16
2.42291e-16
2.42686e-16
2.43129e-16
2.43612e-16
2.44135e-16
2.44702e-16
2.45321e-16
2.45979e-16
2.46671e-16
2.47396e-16
2.48161e-16
2.48952e-16
2.49761e-16
2.50595e-16
2.51456e-16
2.52321e-16
2.53209e-16
2.54111e-16
2.56568e-16
2.55716e-16
2.54875e-16
2.54043e-16
2.53216e-16
2.52408e-16
2.5162e-16
2.50853e-16
2.50107e-16
2.49404e-16
2.48735e-16
2.48086e-16
2.47478e-16
2.46921e-16
2.46403e-16
2.45923e-16
2.45486e-16
2.45093e-16
2.44752e-16
2.44455e-16
2.44214e-16
2.44019e-16
2.43876e-16
2.43774e-16
2.43724e-16
2.43721e-16
2.43771e-16
2.43871e-16
2.44013e-16
2.44213e-16
2.44465e-16
2.44754e-16
2.45098e-16
2.45491e-16
2.45928e-16
2.46406e-16
2.46923e-16
2.4748e-16
2.48087e-16
2.48731e-16
2.49405e-16
2.50109e-16
2.5085e-16
2.51612e-16
2.52388e-16
2.53184e-16
2.54003e-16
2.54823e-16
2.55662e-16
2.56511e-16
2.58817e-16
2.58027e-16
2.57246e-16
2.56468e-16
2.55693e-16
2.5493e-16
2.54182e-16
2.53454e-16
2.5274e-16
2.52068e-16
2.51425e-16
2.50799e-16
2.5021e-16
2.4967e-16
2.49165e-16
2.48699e-16
2.48272e-16
2.47886e-16
2.47552e-16
2.4726e-16
2.47023e-16
2.4683e-16
2.4669e-16
2.46589e-16
2.46538e-16
2.46537e-16
2.46586e-16
2.46684e-16
2.46823e-16
2.47021e-16
2.4727e-16
2.47555e-16
2.47891e-16
2.48276e-16
2.48704e-16
2.49169e-16
2.49672e-16
2.50212e-16
2.50799e-16
2.51422e-16
2.52068e-16
2.52743e-16
2.53449e-16
2.54174e-16
2.54907e-16
2.55656e-16
2.56424e-16
2.57189e-16
2.5797e-16
2.58756e-16
2.60884e-16
2.60166e-16
2.59451e-16
2.58738e-16
2.58022e-16
2.57311e-16
2.56613e-16
2.55934e-16
2.55261e-16
2.54626e-16
2.54017e-16
2.5342e-16
2.52859e-16
2.52344e-16
2.51859e-16
2.51413e-16
2.51e-16
2.50628e-16
2.50304e-16
2.50021e-16
2.49792e-16
2.49603e-16
2.49468e-16
2.4937e-16
2.49318e-16
2.49318e-16
2.49365e-16
2.49461e-16
2.49597e-16
2.49788e-16
2.50031e-16
2.50306e-16
2.50633e-16
2.51005e-16
2.51418e-16
2.51863e-16
2.52345e-16
2.52861e-16
2.53422e-16
2.54014e-16
2.54624e-16
2.55262e-16
2.55925e-16
2.56605e-16
2.57287e-16
2.57979e-16
2.58687e-16
2.5939e-16
2.60102e-16
2.60819e-16
2.62746e-16
2.62104e-16
2.61463e-16
2.60822e-16
2.60174e-16
2.59524e-16
2.58884e-16
2.58258e-16
2.57634e-16
2.57046e-16
2.56479e-16
2.55918e-16
2.55391e-16
2.54906e-16
2.54448e-16
2.54028e-16
2.53634e-16
2.53278e-16
2.52969e-16
2.52701e-16
2.52483e-16
2.523e-16
2.5217e-16
2.52076e-16
2.52027e-16
2.52026e-16
2.52072e-16
2.52163e-16
2.52294e-16
2.52477e-16
2.52709e-16
2.52973e-16
2.53284e-16
2.53639e-16
2.54032e-16
2.54453e-16
2.54906e-16
2.55392e-16
2.5592e-16
2.56474e-16
2.57042e-16
2.57635e-16
2.58247e-16
2.58873e-16
2.59496e-16
2.60125e-16
2.60765e-16
2.614e-16
2.62035e-16
2.62674e-16
2.64378e-16
2.63821e-16
2.63259e-16
2.62697e-16
2.62121e-16
2.61539e-16
2.60964e-16
2.604e-16
2.59832e-16
2.59295e-16
2.58776e-16
2.58259e-16
2.57771e-16
2.57321e-16
2.56896e-16
2.56507e-16
2.56136e-16
2.55802e-16
2.55514e-16
2.55262e-16
2.55056e-16
2.54883e-16
2.54762e-16
2.54672e-16
2.54626e-16
2.54624e-16
2.54668e-16
2.54753e-16
2.54876e-16
2.55049e-16
2.55268e-16
2.55517e-16
2.55809e-16
2.56143e-16
2.56511e-16
2.56903e-16
2.57323e-16
2.57772e-16
2.58259e-16
2.58771e-16
2.59289e-16
2.59831e-16
2.60386e-16
2.60952e-16
2.61509e-16
2.62067e-16
2.62634e-16
2.63191e-16
2.63746e-16
2.65764e-16
2.65295e-16
2.64818e-16
2.64338e-16
2.63843e-16
2.63331e-16
2.62827e-16
2.62331e-16
2.61825e-16
2.61345e-16
2.60879e-16
2.60412e-16
2.59968e-16
2.59559e-16
2.59171e-16
2.58818e-16
2.58476e-16
2.58168e-16
2.57901e-16
2.5767e-16
2.5748e-16
2.57319e-16
2.57206e-16
2.57123e-16
2.57081e-16
2.57077e-16
2.57119e-16
2.57197e-16
2.57311e-16
2.57471e-16
2.57673e-16
2.57906e-16
2.58175e-16
2.58484e-16
2.58822e-16
2.5918e-16
2.59561e-16
2.59969e-16
2.6041e-16
2.60874e-16
2.61339e-16
2.61823e-16
2.62314e-16
2.62815e-16
2.633e-16
2.63781e-16
2.6427e-16
2.64745e-16
2.66884e-16
2.66509e-16
2.6612e-16
2.65726e-16
2.65314e-16
2.6488e-16
2.64451e-16
2.64027e-16
2.6359e-16
2.63169e-16
2.62764e-16
2.62351e-16
2.61953e-16
2.6159e-16
2.61246e-16
2.60932e-16
2.60622e-16
2.60341e-16
2.601e-16
2.59892e-16
2.5972e-16
2.59573e-16
2.5947e-16
2.59394e-16
2.59357e-16
2.59351e-16
2.5939e-16
2.59461e-16
2.59564e-16
2.59711e-16
2.59894e-16
2.60106e-16
2.60349e-16
2.60632e-16
2.60934e-16
2.61254e-16
2.61595e-16
2.61956e-16
2.62348e-16
2.62756e-16
2.63165e-16
2.63586e-16
2.64008e-16
2.64438e-16
2.64847e-16
2.65247e-16
2.65654e-16
2.67725e-16
2.67447e-16
2.6715e-16
2.66844e-16
2.6652e-16
2.66166e-16
2.65815e-16
2.65466e-16
2.65102e-16
2.64745e-16
2.64404e-16
2.64048e-16
2.63703e-16
2.6339e-16
2.6309e-16
2.62821e-16
2.62544e-16
2.62296e-16
2.62082e-16
2.61899e-16
2.61747e-16
2.61616e-16
2.61524e-16
2.61457e-16
2.61424e-16
2.61417e-16
2.61451e-16
2.61517e-16
2.61607e-16
2.61737e-16
2.61902e-16
2.62088e-16
2.62304e-16
2.62557e-16
2.6282e-16
2.631e-16
2.63395e-16
2.63708e-16
2.64044e-16
2.64395e-16
2.64743e-16
2.65096e-16
2.65447e-16
2.658e-16
2.6613e-16
2.66445e-16
2.68277e-16
2.68097e-16
2.67894e-16
2.67677e-16
2.67442e-16
2.67173e-16
2.66901e-16
2.66631e-16
2.66343e-16
2.66053e-16
2.65778e-16
2.65485e-16
2.65193e-16
2.64933e-16
2.64681e-16
2.64459e-16
2.6422e-16
2.64007e-16
2.63821e-16
2.63664e-16
2.63533e-16
2.6342e-16
2.63342e-16
2.63285e-16
2.63255e-16
2.63248e-16
2.63276e-16
2.63334e-16
2.63412e-16
2.63525e-16
2.63669e-16
2.63828e-16
2.64016e-16
2.64234e-16
2.64456e-16
2.64694e-16
2.6494e-16
2.652e-16
2.65478e-16
2.6577e-16
2.66052e-16
2.66334e-16
2.66612e-16
2.66887e-16
2.67135e-16
2.68533e-16
2.6845e-16
2.6834e-16
2.68216e-16
2.6807e-16
2.67888e-16
2.67697e-16
2.67508e-16
2.67297e-16
2.67076e-16
2.6687e-16
2.6664e-16
2.66404e-16
2.66201e-16
2.65999e-16
2.65825e-16
2.65627e-16
2.65449e-16
2.65295e-16
2.65166e-16
2.65058e-16
2.64963e-16
2.64899e-16
2.6485e-16
2.64826e-16
2.64817e-16
2.64842e-16
2.64891e-16
2.64953e-16
2.65051e-16
2.65171e-16
2.65304e-16
2.65461e-16
2.6564e-16
2.65821e-16
2.66013e-16
2.66209e-16
2.66414e-16
2.66632e-16
2.66862e-16
2.67077e-16
2.67286e-16
2.67486e-16
2.67683e-16
2.67845e-16
2.68485e-16
2.68499e-16
2.68482e-16
2.6845e-16
2.68393e-16
2.68298e-16
2.68191e-16
2.68082e-16
2.67949e-16
2.678e-16
2.67664e-16
2.67499e-16
2.67321e-16
2.67175e-16
2.67026e-16
2.669e-16
2.66744e-16
2.66604e-16
2.66483e-16
2.66382e-16
2.66298e-16
2.66223e-16
2.66172e-16
2.66135e-16
2.66114e-16
2.66106e-16
2.66124e-16
2.66165e-16
2.66213e-16
2.66292e-16
2.6639e-16
2.66494e-16
2.66617e-16
2.6676e-16
2.66895e-16
2.6704e-16
2.67183e-16
2.67335e-16
2.6749e-16
2.67658e-16
2.67804e-16
2.67937e-16
2.6806e-16
2.68176e-16
2.68253e-16
2.68133e-16
2.68243e-16
2.68317e-16
2.68375e-16
2.68406e-16
2.684e-16
2.68375e-16
2.68344e-16
2.6829e-16
2.68215e-16
2.68148e-16
2.68048e-16
2.67931e-16
2.67842e-16
2.67746e-16
2.6767e-16
2.67556e-16
2.67456e-16
2.67369e-16
2.67298e-16
2.67239e-16
2.67183e-16
2.67147e-16
2.67121e-16
2.67104e-16
2.67096e-16
2.67106e-16
2.6714e-16
2.67173e-16
2.67233e-16
2.67306e-16
2.67383e-16
2.67472e-16
2.67575e-16
2.67666e-16
2.67762e-16
2.67852e-16
2.67947e-16
2.6804e-16
2.68142e-16
2.6822e-16
2.68279e-16
2.68324e-16
2.68358e-16
2.6835e-16
2.67477e-16
2.6768e-16
2.67844e-16
2.67991e-16
2.68105e-16
2.68185e-16
2.68244e-16
2.68292e-16
2.68315e-16
2.68312e-16
2.68313e-16
2.6828e-16
2.68223e-16
2.68192e-16
2.68149e-16
2.68123e-16
2.68053e-16
2.67993e-16
2.67941e-16
2.67899e-16
2.67865e-16
2.67829e-16
2.67807e-16
2.67792e-16
2.67779e-16
2.67771e-16
2.67775e-16
2.678e-16
2.67819e-16
2.67858e-16
2.67907e-16
2.67955e-16
2.68009e-16
2.68072e-16
2.68119e-16
2.68166e-16
2.68202e-16
2.6824e-16
2.68271e-16
2.68311e-16
2.68317e-16
2.68302e-16
2.68271e-16
2.68224e-16
2.68134e-16
2.66521e-16
2.66814e-16
2.67063e-16
2.67295e-16
2.67492e-16
2.67656e-16
2.67795e-16
2.67921e-16
2.6802e-16
2.68089e-16
2.68157e-16
2.6819e-16
2.68192e-16
2.68219e-16
2.68229e-16
2.6825e-16
2.68225e-16
2.68205e-16
2.68188e-16
2.68173e-16
2.68166e-16
2.68148e-16
2.68141e-16
2.68137e-16
2.6813e-16
2.68122e-16
2.6812e-16
2.68133e-16
2.68141e-16
2.68159e-16
2.68184e-16
2.68201e-16
2.68221e-16
2.68244e-16
2.68246e-16
2.68245e-16
2.68228e-16
2.68209e-16
2.68178e-16
2.68156e-16
2.68092e-16
2.68006e-16
2.679e-16
2.67774e-16
2.67603e-16
2.65271e-16
2.65649e-16
2.6598e-16
2.66293e-16
2.6657e-16
2.66813e-16
2.67031e-16
2.67231e-16
2.67406e-16
2.67544e-16
2.67677e-16
2.67773e-16
2.67835e-16
2.67916e-16
2.67978e-16
2.68047e-16
2.68068e-16
2.68085e-16
2.68105e-16
2.68117e-16
2.68134e-16
2.68136e-16
2.68142e-16
2.6815e-16
2.68147e-16
2.68139e-16
2.68131e-16
2.68136e-16
2.6813e-16
2.68126e-16
2.68129e-16
2.68114e-16
2.68102e-16
2.68085e-16
2.68043e-16
2.67995e-16
2.67927e-16
2.67849e-16
2.6776e-16
2.67675e-16
2.67546e-16
2.6739e-16
2.67212e-16
2.67009e-16
2.6676e-16
2.63737e-16
2.64195e-16
2.64604e-16
2.64993e-16
2.65346e-16
2.65664e-16
2.65956e-16
2.66228e-16
2.66473e-16
2.66678e-16
2.66873e-16
2.6703e-16
2.67149e-16
2.67284e-16
2.67398e-16
2.67512e-16
2.67577e-16
2.67632e-16
2.67686e-16
2.67726e-16
2.67768e-16
2.67789e-16
2.67808e-16
2.67826e-16
2.67828e-16
2.67821e-16
2.67806e-16
2.67803e-16
2.67785e-16
2.6776e-16
2.67737e-16
2.67695e-16
2.67649e-16
2.67593e-16
2.6751e-16
2.67414e-16
2.67296e-16
2.67164e-16
2.67017e-16
2.66873e-16
2.6668e-16
2.66457e-16
2.66208e-16
2.65934e-16
2.61932e-16
2.62462e-16
2.62944e-16
2.63405e-16
2.63828e-16
2.64215e-16
2.64578e-16
2.64918e-16
2.65229e-16
2.65497e-16
2.65752e-16
2.65966e-16
2.66141e-16
2.66328e-16
2.66491e-16
2.66648e-16
2.66754e-16
2.66846e-16
2.66933e-16
2.67002e-16
2.67066e-16
2.67106e-16
2.67138e-16
2.67164e-16
2.67173e-16
2.67165e-16
2.67146e-16
2.67133e-16
2.67103e-16
2.67057e-16
2.6701e-16
2.66943e-16
2.66864e-16
2.6677e-16
2.66649e-16
2.66505e-16
2.6634e-16
2.66155e-16
2.65955e-16
2.65753e-16
2.655e-16
2.65214e-16
2.64897e-16
2.64557e-16
2.59871e-16