/*--------------------------------*- C++ -*----------------------------------*\
  =========                 |
  \\      /  F ield         | OpenFOAM: The Open Source CFD Toolbox
   \\    /   O peration     | Website:  https://openfoam.org
    \\  /    A nd           | Version:  7
     \\/     M anipulation  |
\*---------------------------------------------------------------------------*/
FoamFile
{
    version     2.0;
    format      ascii;
    class       volVectorField;
    location    "268000";
    object      vorticity;
}
// * * * * * * * * * * * * * * * * * * * * * * * * * * * * * * * * * * * * * //

dimensions      [0 0 -1 0 0 0 0];

internalField   nonuniform List<vector> 
4825
(
(0.0243164 0.0223289 1.73285e-17)
(0.0241535 0.0220221 1.38487e-17)
(0.0248277 0.0228283 1.82863e-17)
(0.0246721 0.0224959 1.34699e-17)
(0.0251278 0.0215446 1.81668e-17)
(0.0255623 0.0205925 2.77538e-18)
(0.0259749 0.0196388 7.53424e-18)
(0.0253541 0.0233424 1.75372e-17)
(0.0252107 0.022988 1.32884e-17)
(0.0256741 0.0220119 1.77663e-17)
(0.0261153 0.0210359 3.09794e-18)
(0.0265337 0.0200586 7.84313e-18)
(0.025896 0.0238708 1.58286e-17)
(0.0257669 0.023496 1.39715e-17)
(0.0262404 0.0224965 1.81671e-17)
(0.0266897 0.0214968 3.84687e-18)
(0.0271149 0.0204955 7.14963e-18)
(0.0264534 0.024414 1.4614e-17)
(0.0263393 0.0240184 1.55095e-17)
(0.0268241 0.0229961 1.8803e-17)
(0.0272833 0.021973 5.46646e-18)
(0.0277172 0.0209483 6.38096e-18)
(0.0270267 0.0249722 1.50805e-17)
(0.0269276 0.0245549 1.74102e-17)
(0.0274245 0.0235098 1.8818e-17)
(0.0278945 0.0224634 7.96667e-18)
(0.0283383 0.0214152 6.21736e-18)
(0.0276164 0.025546 1.66429e-17)
(0.0275319 0.0251058 1.86977e-17)
(0.0280414 0.0240376 1.86777e-17)
(0.0285228 0.0229675 1.08327e-17)
(0.0289772 0.0218955 5.8787e-18)
(0.0282231 0.0261359 1.74211e-17)
(0.0281531 0.0256719 1.92391e-17)
(0.0286754 0.0245799 1.90119e-17)
(0.0291686 0.0234856 1.36701e-17)
(0.0296341 0.0223893 5.37003e-18)
(0.0288474 0.0267428 1.72371e-17)
(0.0287919 0.0262538 1.99439e-17)
(0.0293272 0.0251373 1.9602e-17)
(0.0298325 0.0240181 1.63125e-17)
(0.0303093 0.0228969 5.024e-18)
(0.0294902 0.0273674 1.61715e-17)
(0.0294491 0.0268525 2.03607e-17)
(0.0299976 0.0257106 2.06062e-17)
(0.0305154 0.0245658 1.89821e-17)
(0.0310038 0.0234188 4.14998e-18)
(0.0301523 0.0280106 1.46125e-17)
(0.0301259 0.0274688 2.04405e-17)
(0.0306878 0.0263007 2.19982e-17)
(0.0312181 0.0251295 2.1723e-17)
(0.0317184 0.0239559 2.16202e-18)
(0.0308347 0.0286734 1.27802e-17)
(0.0308232 0.0281037 2.03669e-17)
(0.0313986 0.0269084 2.36619e-17)
(0.0319419 0.0257099 2.46421e-17)
(0.0324543 0.024509 1.30774e-18)
(0.0315384 0.0293566 1.10301e-17)
(0.031542 0.0287583 2.05239e-17)
(0.0321313 0.0275348 2.55991e-17)
(0.0326877 0.026308 2.72973e-17)
(0.0332125 0.0250788 1.08786e-18)
(0.0322645 0.0300614 9.98888e-18)
(0.0322834 0.0294334 2.09368e-17)
(0.032887 0.0281807 2.67847e-17)
(0.0334569 0.0269247 2.9105e-17)
(0.0330141 0.0307888 9.42001e-18)
(0.0330488 0.0301302 2.10572e-17)
(0.0336669 0.0288473 2.69064e-17)
(0.0342505 0.027561 3.06853e-17)
(0.0337884 0.03154 9.01104e-18)
(0.0338391 0.0308498 2.10835e-17)
(0.0344722 0.0295356 2.62152e-17)
(0.0350699 0.028218 3.10916e-17)
(0.0345886 0.0323163 8.0569e-18)
(0.0346559 0.0315934 2.1195e-17)
(0.0353043 0.0302468 2.59239e-17)
(0.0354162 0.0331188 7.11257e-18)
(0.0355003 0.0323622 2.13695e-17)
(0.0361645 0.0309819 2.60584e-17)
(0.0362724 0.0339491 6.42257e-18)
(0.0363739 0.0331575 2.174e-17)
(0.0371589 0.0348084 5.15703e-18)
(0.0372781 0.0339807 2.26616e-17)
(0.0380771 0.0356984 3.53264e-18)
(0.0382146 0.0348333 2.32112e-17)
(0.0390288 0.0366206 1.51137e-18)
(0.0391852 0.0357168 2.39508e-17)
(0.0400158 0.0375769 -2.62454e-19)
(0.0401915 0.0366329 2.46554e-17)
(0.0410398 0.0385689 -2.72097e-18)
(-0.0163257 0.0181794 1.15744e-17)
(-0.0163081 0.0178694 7.25854e-18)
(-0.0156278 0.0182003 1.16627e-17)
(-0.0149448 0.0185135 2.88442e-18)
(-0.0142588 0.0188098 3.0734e-19)
(-0.0135705 0.0190897 3.7488e-18)
(-0.0128801 0.0193536 -1.9595e-18)
(-0.0121882 0.0196018 -3.78595e-18)
(-0.0114949 0.0198346 -3.24985e-18)
(-0.0108005 0.0200523 -3.01759e-18)
(-0.0101053 0.0202551 -3.72215e-18)
(-0.00940947 0.0204432 -4.28088e-18)
(-0.00871314 0.020617 4.96785e-18)
(-0.00801647 0.0207765 5.84776e-18)
(-0.00731955 0.0209221 -1.16529e-18)
(-0.00662247 0.0210538 -1.09111e-17)
(-0.00592531 0.0211719 -1.21503e-17)
(-0.00522811 0.0212764 -1.11813e-17)
(-0.00453091 0.0213676 -6.12534e-18)
(-0.00383375 0.0214456 -4.80564e-18)
(-0.0166616 0.0185209 1.24144e-17)
(-0.0166279 0.0182211 8.85823e-18)
(-0.0159341 0.0185591 1.22579e-17)
(-0.0152374 0.0188788 2.47875e-18)
(-0.0145377 0.0191814 1.75247e-18)
(-0.0138357 0.0194672 3.78758e-18)
(-0.0131316 0.0197367 -2.07733e-18)
(-0.0124259 0.01999 -3.7898e-18)
(-0.0117189 0.0202277 -2.3819e-18)
(-0.0110108 0.0204499 -1.76636e-18)
(-0.0103019 0.0206569 -3.699e-18)
(-0.00959235 0.0208489 -4.19991e-18)
(-0.00888236 0.0210262 5.3898e-18)
(-0.00817204 0.021189 4.40666e-18)
(-0.0074615 0.0213375 -2.28519e-18)
(-0.00675083 0.0214719 -1.07159e-17)
(-0.00604009 0.0215924 -1.13566e-17)
(-0.00532934 0.021699 -1.09009e-17)
(-0.00461861 0.0217921 -6.40488e-18)
(-0.00390792 0.0218716 -4.80309e-18)
(-0.0170051 0.0188703 1.1447e-17)
(-0.0169551 0.0185808 9.43884e-18)
(-0.0162474 0.018926 1.25259e-17)
(-0.0155367 0.0192526 2.35312e-18)
(-0.0148231 0.0195615 2.99524e-18)
(-0.0141069 0.0198533 3.76465e-18)
(-0.0133888 0.0201284 -2.42357e-18)
(-0.012669 0.0203871 -4.83184e-18)
(-0.0119479 0.0206297 -2.38059e-18)
(-0.0112258 0.0208564 -1.00491e-18)
(-0.0105029 0.0210677 -4.3156e-18)
(-0.00977937 0.0212637 -4.74994e-18)
(-0.0090554 0.0214446 4.65953e-18)
(-0.00833113 0.0216107 2.5206e-18)
(-0.00760666 0.0217623 -2.97953e-18)
(-0.00688208 0.0218994 -1.00453e-17)
(-0.00615746 0.0220223 -1.03782e-17)
(-0.00543284 0.0221311 -1.08591e-17)
(-0.00470827 0.022226 -7.0116e-18)
(-0.00398375 0.0223072 -4.20672e-18)
(-0.0173564 0.0192281 1.04119e-17)
(-0.0172899 0.018949 1.05115e-17)
(-0.016568 0.0193015 1.32895e-17)
(-0.015843 0.0196349 2.51317e-18)
(-0.015115 0.0199504 4.16765e-18)
(-0.0143845 0.0202483 3.95797e-18)
(-0.0136519 0.0205292 -2.77759e-18)
(-0.0129178 0.0207932 -6.65469e-18)
(-0.0121823 0.0210409 -2.59201e-18)
(-0.0114458 0.0212723 -6.03585e-19)
(-0.0107085 0.0214879 -5.71299e-18)
(-0.00997068 0.0216879 -5.59432e-18)
(-0.00923241 0.0218726 3.5922e-18)
(-0.00849386 0.0220421 9.97613e-19)
(-0.00775514 0.0221967 -3.07515e-18)
(-0.00701633 0.0223366 -9.13434e-18)
(-0.0062775 0.022462 -9.17936e-18)
(-0.0055387 0.022573 -1.05703e-17)
(-0.00479997 0.0226698 -7.70377e-18)
(-0.00406131 0.0227526 -3.31113e-18)
(-0.0177159 0.0195944 9.98654e-18)
(-0.0176326 0.0193259 1.14735e-17)
(-0.0168962 0.0196859 1.39762e-17)
(-0.0161565 0.0200263 2.29295e-18)
(-0.0154138 0.0203484 5.13852e-18)
(-0.0146685 0.0206526 4.58624e-18)
(-0.0139212 0.0209393 -3.13954e-18)
(-0.0131723 0.0212089 -8.29242e-18)
(-0.0124221 0.0214616 -3.03551e-18)
(-0.0116709 0.0216979 -6.73262e-19)
(-0.010919 0.0219179 -6.9538e-18)
(-0.0101664 0.022122 -5.96791e-18)
(-0.00941352 0.0223104 2.91127e-18)
(-0.00866036 0.0224834 3.87069e-19)
(-0.00790705 0.0226412 -2.65879e-18)
(-0.00715369 0.0227839 -8.15089e-18)
(-0.00640032 0.0229118 -7.91002e-18)
(-0.00564701 0.0230251 -1.05882e-17)
(-0.00489379 0.0231238 -8.42521e-18)
(-0.00414066 0.0232083 -2.22045e-18)
(-0.0180838 0.0199696 9.6865e-18)
(-0.0179835 0.0197119 1.20677e-17)
(-0.0172322 0.0200794 1.47978e-17)
(-0.0164775 0.020427 1.73527e-18)
(-0.0157197 0.0207559 6.00762e-18)
(-0.0149593 0.0210664 5.16504e-18)
(-0.0141969 0.0213591 -4.20437e-18)
(-0.0134329 0.0216343 -9.7134e-18)
(-0.0126676 0.0218923 -3.33379e-18)
(-0.0119013 0.0221334 -8.98379e-19)
(-0.0111343 0.022358 -7.8645e-18)
(-0.0103668 0.0225663 -5.79105e-18)
(-0.0095989 0.0227586 2.53043e-18)
(-0.00883077 0.0229351 1.05261e-19)
(-0.00806253 0.023096 -2.03201e-18)
(-0.00729426 0.0232416 -7.3537e-18)
(-0.00652602 0.0233721 -7.08484e-18)
(-0.00575786 0.0234877 -1.09239e-17)
(-0.0049898 0.0235884 -8.9162e-18)
(-0.00422187 0.0236745 -9.97479e-19)
(-0.0184605 0.020354 9.05573e-18)
(-0.0183429 0.0201072 1.25968e-17)
(-0.0175764 0.0204825 1.58328e-17)
(-0.0168063 0.0208374 7.82777e-19)
(-0.016033 0.0211731 6.86128e-18)
(-0.0152571 0.0214902 5.07813e-18)
(-0.0144792 0.021789 -5.62001e-18)
(-0.0136997 0.0220699 -1.01335e-17)
(-0.012919 0.0223333 -3.4874e-18)
(-0.0121373 0.0225794 -1.62604e-18)
(-0.0113549 0.0228086 -9.011e-18)
(-0.0105719 0.0230211 -5.17391e-18)
(-0.00978869 0.0232173 2.3278e-18)
(-0.00900524 0.0233974 1.60568e-19)
(-0.00822171 0.0235616 -1.28636e-18)
(-0.00743817 0.0237102 -6.32381e-18)
(-0.0066547 0.0238433 -6.74759e-18)
(-0.00587133 0.0239612 -1.16134e-17)
(-0.00508809 0.024064 -9.15746e-18)
(-0.004305 0.0241518 1.43796e-19)
(-0.0188463 0.020748 8.24563e-18)
(-0.0187111 0.0205123 1.29966e-17)
(-0.017929 0.0208954 1.71427e-17)
(-0.017143 0.0212578 -3.36292e-19)
(-0.0163539 0.0216005 7.23587e-18)
(-0.0155621 0.0219243 4.28656e-18)
(-0.0147684 0.0222293 -6.81891e-18)
(-0.013973 0.0225161 -9.70062e-18)
(-0.0131764 0.0227849 -3.37309e-18)
(-0.0123789 0.0230361 -2.12963e-18)
(-0.0115807 0.02327 -1.04375e-17)
(-0.010782 0.023487 -4.28718e-18)
(-0.00998306 0.0236872 2.30271e-18)
(-0.00918392 0.0238709 8.87615e-19)
(-0.00838472 0.0240384 -4.41018e-19)
(-0.00758555 0.02419 -5.30222e-18)
(-0.00678647 0.0243258 -6.79151e-18)
(-0.00598753 0.0244461 -1.27633e-17)
(-0.00518875 0.0245509 -9.36862e-18)
(-0.00439013 0.0246405 1.07272e-18)
(-0.00359167 0.0247149 -6.02704e-18)
(-0.00279335 0.0247743 -5.0911e-18)
(-0.00199516 0.0248188 -4.172e-18)
(-0.00119705 0.0248485 -1.02223e-17)
(-0.000399011 0.0248633 -1.55369e-18)
(0.000399014 0.0248633 8.58456e-18)
(0.00119706 0.0248485 1.5595e-18)
(0.00199516 0.0248188 5.53491e-18)
(0.00279335 0.0247743 5.44161e-18)
(0.00359167 0.0247149 3.42362e-18)
(0.00439013 0.0246405 -2.0009e-18)
(0.00518875 0.0245509 -2.91476e-18)
(0.00598753 0.0244461 6.18733e-18)
(0.00678647 0.0243258 -1.6861e-18)
(0.00758555 0.02419 -9.08215e-18)
(-0.0192414 0.0211518 7.46716e-18)
(-0.0190885 0.0209274 1.33357e-17)
(-0.0182903 0.0213186 1.80938e-17)
(-0.0174882 0.0216885 -1.09519e-18)
(-0.0166827 0.0220385 6.89272e-18)
(-0.0158747 0.022369 3.1488e-18)
(-0.0150647 0.0226805 -6.99867e-18)
(-0.0142531 0.0229732 -9.06712e-18)
(-0.0134402 0.0232476 -2.90657e-18)
(-0.0126265 0.023504 -2.53234e-18)
(-0.0118121 0.0237428 -1.15933e-17)
(-0.0109973 0.0239641 -3.4583e-18)
(-0.0101822 0.0241684 2.33365e-18)
(-0.00936696 0.0243559 2.10771e-18)
(-0.00855171 0.0245269 9.59592e-20)
(-0.00773653 0.0246815 -4.72398e-18)
(-0.00692146 0.02482 -7.12774e-18)
(-0.00610656 0.0249427 -1.34901e-17)
(-0.00529185 0.0250496 -9.64267e-18)
(-0.00447733 0.025141 1.37877e-18)
(-0.00366298 0.0252169 -6.20049e-18)
(-0.0028488 0.0252775 -6.37908e-18)
(-0.00203475 0.0253229 -4.68636e-18)
(-0.00122081 0.0253532 -1.05529e-17)
(-0.000406928 0.0253683 -2.49957e-18)
(0.000406931 0.0253683 7.61445e-18)
(0.00122081 0.0253532 2.02941e-18)
(0.00203475 0.0253229 5.97916e-18)
(0.0028488 0.0252775 5.19245e-18)
(0.00366298 0.0252169 3.19874e-18)
(0.00447733 0.025141 -1.73915e-18)
(0.00529185 0.0250496 -2.34045e-18)
(0.00610656 0.0249427 6.17119e-18)
(0.00692146 0.02482 -1.28196e-18)
(0.00773653 0.0246815 -7.82998e-18)
(0.00855172 0.0245269 -5.13062e-18)
(0.00936696 0.0243559 -2.15836e-18)
(-0.0196462 0.0215659 6.99352e-18)
(-0.0194753 0.0213532 1.39504e-17)
(-0.0186608 0.0217524 1.85929e-17)
(-0.017842 0.0221301 -1.39387e-18)
(-0.0170198 0.0224874 6.56753e-18)
(-0.0161951 0.0228249 2.86399e-18)
(-0.0153684 0.0231429 -6.49701e-18)
(-0.0145401 0.0234417 -9.03247e-18)
(-0.0137106 0.0237218 -2.44633e-18)
(-0.0128802 0.0239836 -3.12429e-18)
(-0.0120492 0.0242272 -1.20645e-17)
(-0.0112179 0.0244531 -2.87051e-18)
(-0.0103862 0.0246616 2.03808e-18)
(-0.00955453 0.0248529 3.50639e-18)
(-0.00872283 0.0250273 3.88817e-19)
(-0.00789123 0.0251851 -5.03504e-18)
(-0.00705978 0.0253264 -7.49171e-18)
(-0.00622853 0.0254515 -1.33604e-17)
(-0.00539749 0.0255606 -9.98274e-18)
(-0.00456667 0.0256538 1.25802e-18)
(-0.00373605 0.0257313 -5.99005e-18)
(-0.00290561 0.0257931 -6.94838e-18)
(-0.00207532 0.0258394 -4.41784e-18)
(-0.00124515 0.0258702 -9.7827e-18)
(-0.00041504 0.0258856 -2.62191e-18)
(0.000415042 0.0258856 6.68927e-18)
(0.00124515 0.0258702 2.58392e-18)
(0.00207532 0.0258394 6.64251e-18)
(0.00290561 0.0257931 4.71275e-18)
(0.00373606 0.0257313 3.17224e-18)
(0.00456668 0.0256538 -8.11867e-19)
(0.0053975 0.0255606 -1.77035e-18)
(0.00622853 0.0254515 5.54435e-18)
(0.00705978 0.0253264 -1.79329e-18)
(0.00789123 0.0251851 -7.97514e-18)
(0.00872284 0.0250273 -3.31608e-18)
(0.00955453 0.0248529 -8.82568e-19)
(0.0103862 0.0246616 -2.3537e-18)
(-0.0200612 0.0219907 7.62318e-18)
(-0.0198721 0.0217898 1.41758e-17)
(-0.0190406 0.0221972 1.87472e-17)
(-0.0182047 0.0225828 -1.08012e-18)
(-0.0173654 0.0229477 7.02088e-18)
(-0.0165236 0.0232923 3.60149e-18)
(-0.0156797 0.0236169 -6.65213e-18)
(-0.0148343 0.023922 -9.40816e-18)
(-0.0139877 0.024208 -1.96764e-18)
(-0.0131403 0.0244751 -3.64897e-18)
(-0.0122923 0.0247238 -1.19818e-17)
(-0.011444 0.0249543 -2.85308e-18)
(-0.0105954 0.0251671 1.72241e-18)
(-0.0097468 0.0253623 4.81236e-18)
(-0.00889824 0.0255403 4.37254e-19)
(-0.0080498 0.0257012 -5.81108e-18)
(-0.00720156 0.0258454 -7.87212e-18)
(-0.00635354 0.0259731 -1.29045e-17)
(-0.00550578 0.0260843 -1.0376e-17)
(-0.00465825 0.0261794 1.20236e-18)
(-0.00381095 0.0262584 -5.42318e-18)
(-0.00296384 0.0263215 -7.01833e-18)
(-0.0021169 0.0263687 -3.74334e-18)
(-0.00127009 0.0264001 -8.83525e-18)
(-0.000423354 0.0264158 -2.31683e-18)
(0.000423357 0.0264158 6.11325e-18)
(0.00127009 0.0264001 3.26406e-18)
(0.00211691 0.0263687 7.28488e-18)
(0.00296385 0.0263215 4.11933e-18)
(0.00381095 0.0262584 3.42826e-18)
(0.00465826 0.0261794 2.86461e-19)
(0.00550578 0.0260843 -1.33651e-18)
(0.00635354 0.0259731 4.10246e-18)
(0.00720156 0.0258454 -2.69859e-18)
(0.00804981 0.0257012 -8.27095e-18)
(0.00889824 0.0255403 -2.99258e-18)
(0.0097468 0.0253623 -4.19252e-19)
(0.0105954 0.0251671 -1.64207e-18)
(0.011444 0.0249543 -8.75392e-18)
(0.0122923 0.0247238 -1.7481e-17)
(-0.0204867 0.0224265 8.48917e-18)
(-0.020279 0.0222378 1.4171e-17)
(-0.0194303 0.0226534 1.88002e-17)
(-0.0185768 0.0230472 6.49997e-20)
(-0.0177199 0.0234198 7.96172e-18)
(-0.0168605 0.0237716 3.98127e-18)
(-0.015999 0.0241031 -7.6077e-18)
(-0.0151361 0.0244146 -9.96362e-18)
(-0.014272 0.0247065 -1.2378e-18)
(-0.0134071 0.0249792 -3.75856e-18)
(-0.0125416 0.025233 -1.17215e-17)
(-0.0116758 0.0254683 -3.38659e-18)
(-0.0108099 0.0256854 1.13043e-18)
(-0.00994396 0.0258846 5.72195e-18)
(-0.0090781 0.0260662 3.53824e-19)
(-0.0082124 0.0262304 -6.31549e-18)
(-0.00734693 0.0263775 -7.87068e-18)
(-0.00648173 0.0265078 -1.22162e-17)
(-0.0056168 0.0266213 -1.0725e-17)
(-0.00475215 0.0267182 1.08256e-18)
(-0.00388774 0.0267988 -5.05602e-18)
(-0.00302355 0.0268631 -6.79077e-18)
(-0.00215954 0.0269113 -2.90615e-18)
(-0.00129567 0.0269434 -8.39601e-18)
(-0.000431878 0.0269594 -2.14491e-18)
(0.000431881 0.0269594 5.80664e-18)
(0.00129567 0.0269434 4.21225e-18)
(0.00215954 0.0269113 8.00898e-18)
(0.00302355 0.0268631 3.46138e-18)
(0.00388774 0.0267988 3.80146e-18)
(0.00475215 0.0267182 8.46612e-19)
(0.00561681 0.0266213 -1.01988e-18)
(0.00648173 0.0265077 3.15066e-18)
(0.00734693 0.0263775 -3.58313e-18)
(0.0082124 0.0262304 -8.46222e-18)
(0.0090781 0.0260662 -3.56368e-18)
(0.00994396 0.0258846 -5.3312e-19)
(0.0108099 0.0256854 -1.90152e-18)
(0.0116758 0.0254683 -8.90907e-18)
(0.0125416 0.025233 -1.85475e-17)
(0.0134071 0.0249792 -7.06046e-19)
(0.014272 0.0247065 -1.39703e-18)
(-0.020924 0.022875 9.38265e-18)
(-0.0206967 0.0226977 1.35458e-17)
(-0.0198302 0.0231216 1.93257e-17)
(-0.0189586 0.0235236 1.45012e-18)
(-0.0180836 0.0239041 8.82973e-18)
(-0.0172061 0.0242634 3.98612e-18)
(-0.0163266 0.0246018 -8.99553e-18)
(-0.0154457 0.0249199 -1.06758e-17)
(-0.0145636 0.0252179 -1.65632e-19)
(-0.0136807 0.0254962 -3.47867e-18)
(-0.0127974 0.0257553 -1.16358e-17)
(-0.0119137 0.0259955 -4.27003e-18)
(-0.0110299 0.0262171 6.45456e-20)
(-0.0101462 0.0264203 6.17834e-18)
(-0.00926258 0.0266056 7.14185e-19)
(-0.00837917 0.0267732 -6.38177e-18)
(-0.00749603 0.0269233 -7.71001e-18)
(-0.0066132 0.0270561 -1.15725e-17)
(-0.00573068 0.0271719 -1.12869e-17)
(-0.00484845 0.0272708 8.79065e-19)
(-0.0039665 0.027353 -4.71498e-18)
(-0.00308478 0.0274187 -6.35005e-18)
(-0.00220326 0.0274678 -2.17069e-18)
(-0.0013219 0.0275005 -8.27172e-18)
(-0.000440621 0.0275168 -2.14794e-18)
(0.000440623 0.0275168 5.6976e-18)
(0.0013219 0.0275005 5.39635e-18)
(0.00220327 0.0274678 8.78184e-18)
(0.00308478 0.0274187 2.79507e-18)
(0.0039665 0.027353 4.38743e-18)
(0.00484845 0.0272708 1.08712e-18)
(0.00573068 0.0271719 -1.2463e-18)
(0.0066132 0.0270561 2.39569e-18)
(0.00749603 0.0269233 -4.53946e-18)
(0.00837918 0.0267732 -8.49778e-18)
(0.00926258 0.0266056 -3.74974e-18)
(0.0101462 0.0264203 -8.06502e-19)
(0.0110299 0.026217 -2.53131e-18)
(0.0119137 0.0259955 -9.61282e-18)
(0.0127974 0.0257553 -1.98827e-17)
(0.0136807 0.0254962 -2.67902e-19)
(0.0145636 0.0252179 -1.3791e-18)
(0.0154457 0.0249199 8.61916e-19)
(0.0163266 0.0246018 5.90888e-18)
(0.0172061 0.0242634 1.71936e-17)
(-0.0213761 0.0233391 1.03208e-17)
(-0.0211256 0.0231697 1.28112e-17)
(-0.0202406 0.023602 1.94733e-17)
(-0.0193505 0.0240126 2.40314e-18)
(-0.0184569 0.0244011 9.29991e-18)
(-0.0175608 0.0247681 4.37394e-18)
(-0.0166628 0.0251136 -1.06318e-17)
(-0.0157634 0.0254384 -1.16304e-17)
(-0.0148628 0.0257426 8.92377e-19)
(-0.0139615 0.0260268 -3.06705e-18)
(-0.0130598 0.0262913 -1.18706e-17)
(-0.0121577 0.0265364 -5.79252e-18)
(-0.0112557 0.0267625 -1.13034e-18)
(-0.0103537 0.02697 7.01095e-18)
(-0.00945187 0.027159 1.7045e-18)
(-0.00855029 0.02733 -6.61216e-18)
(-0.00764901 0.0274831 -7.47196e-18)
(-0.00674808 0.0276187 -1.12164e-17)
(-0.00584751 0.0277368 -1.21813e-17)
(-0.00494726 0.0278378 7.59481e-19)
(-0.0040473 0.0279216 -4.09085e-18)
(-0.0031476 0.0279885 -6.02904e-18)
(-0.00224812 0.0280386 -1.65728e-18)
(-0.00134881 0.028072 -8.02284e-18)
(-0.00044959 0.0280887 -2.43001e-18)
(0.000449593 0.0280887 5.73366e-18)
(0.00134881 0.028072 6.67482e-18)
(0.00224813 0.0280386 9.46656e-18)
(0.0031476 0.0279885 2.33267e-18)
(0.0040473 0.0279216 5.22111e-18)
(0.00494726 0.0278378 1.21506e-18)
(0.00584751 0.0277368 -1.70408e-18)
(0.00674809 0.0276187 1.84312e-18)
(0.00764902 0.0274831 -5.81229e-18)
(0.00855029 0.02733 -9.01405e-18)
(0.00945187 0.027159 -3.46804e-18)
(0.0103537 0.02697 -1.01492e-18)
(0.0112557 0.0267625 -3.43751e-18)
(0.0121577 0.0265364 -1.03284e-17)
(0.0130598 0.0262913 -2.03085e-17)
(0.0139615 0.0260268 -5.91339e-19)
(0.0148628 0.0257426 -1.66887e-18)
(0.0157633 0.0254384 -3.78955e-19)
(0.0166628 0.0251136 4.01986e-18)
(0.0175608 0.0247681 1.55436e-17)
(0.0184569 0.0244011 1.90455e-17)
(0.0193505 0.0240126 1.81496e-17)
(-0.0218446 0.0238199 1.11858e-17)
(-0.0215666 0.0236542 1.24133e-17)
(-0.0206621 0.0240953 1.91177e-17)
(-0.0197528 0.0245146 3.19673e-18)
(-0.0188401 0.0249114 9.48915e-18)
(-0.017925 0.0252862 5.27914e-18)
(-0.0170079 0.025639 -1.19446e-17)
(-0.0160895 0.0259707 -1.30795e-17)
(-0.0151699 0.0262813 1.38251e-18)
(-0.0142497 0.0265714 -2.28292e-18)
(-0.0133291 0.0268414 -1.20878e-17)
(-0.0124083 0.0270916 -7.22519e-18)
(-0.0114874 0.0273224 -1.64564e-18)
(-0.0105667 0.0275341 8.03499e-18)
(-0.00964615 0.027727 2.58774e-18)
(-0.00872591 0.0279015 -6.95884e-18)
(-0.00780603 0.0280578 -7.5022e-18)
(-0.00688652 0.0281961 -1.10827e-17)
(-0.00596742 0.0283166 -1.26386e-17)
(-0.00504866 0.0284195 7.37006e-19)
(-0.00413023 0.0285051 -3.61541e-18)
(-0.00321208 0.0285734 -6.02952e-18)
(-0.00229416 0.0286245 -1.04095e-18)
(-0.00137643 0.0286585 -7.3283e-18)
(-0.000458795 0.0286755 -2.96041e-18)
(0.000458798 0.0286755 5.73235e-18)
(0.00137643 0.0286585 7.94501e-18)
(0.00229417 0.0286245 1.00673e-17)
(0.00321208 0.0285734 1.74701e-18)
(0.00413023 0.0285051 5.98418e-18)
(0.00504866 0.0284195 1.61966e-18)
(0.00596742 0.0283166 -2.14651e-18)
(0.00688653 0.028196 1.55813e-18)
(0.00780603 0.0280577 -6.83101e-18)
(0.00872591 0.0279015 -9.82908e-18)
(0.00964615 0.027727 -3.17612e-18)
(0.0105667 0.0275341 -1.17931e-18)
(0.0114874 0.0273224 -4.53618e-18)
(0.0124083 0.0270916 -1.09693e-17)
(0.0133291 0.0268414 -1.99507e-17)
(0.0142497 0.0265714 -1.09758e-18)
(0.0151699 0.0262813 -1.8896e-18)
(0.0160895 0.0259707 -4.06891e-19)
(0.0170079 0.025639 3.99483e-18)
(0.017925 0.0252862 1.4699e-17)
(0.0188401 0.0249114 1.89021e-17)
(0.0197528 0.0245146 1.90705e-17)
(0.0206621 0.0240953 5.17652e-18)
(0.0215666 0.0236541 4.68463e-18)
(0.0218446 0.0238199 2.87589e-17)
(-0.0223289 0.0243164 1.18194e-17)
(-0.0220221 0.0241535 1.20214e-17)
(-0.0210957 0.0246027 1.90232e-17)
(-0.020166 0.0250302 4.04437e-18)
(-0.0192337 0.0254355 9.7737e-18)
(-0.018299 0.0258182 6.37876e-18)
(-0.0173623 0.0261786 -1.25732e-17)
(-0.0164244 0.0265173 -1.47272e-17)
(-0.0154853 0.0268344 1.4748e-18)
(-0.0145457 0.0271306 -1.43769e-18)
(-0.0136057 0.0274063 -1.24709e-17)
(-0.0126655 0.0276616 -8.17829e-18)
(-0.0117253 0.0278972 -1.83067e-18)
(-0.0107853 0.0281133 8.76727e-18)
(-0.00984562 0.0283102 3.0357e-18)
(-0.00890623 0.0284882 -7.43019e-18)
(-0.00796723 0.0286477 -7.67828e-18)
(-0.00702866 0.0287888 -1.0683e-17)
(-0.00609052 0.0289118 -1.29466e-17)
(-0.00515277 0.0290168 8.68349e-21)
(-0.00421536 0.0291041 -3.17711e-18)
(-0.00327827 0.0291737 -6.08333e-18)
(-0.00234143 0.0292258 -3.53777e-19)
(-0.00140478 0.0292606 -6.26193e-18)
(-0.000468246 0.0292779 -3.75541e-18)
(0.000468248 0.0292779 5.56635e-18)
(0.00140478 0.0292606 9.26789e-18)
(0.00234143 0.0292258 1.04528e-17)
(0.00327827 0.0291737 9.52737e-19)
(0.00421536 0.0291041 6.87314e-18)
(0.00515277 0.0290168 2.37961e-18)
(0.00609052 0.0289118 -2.38693e-18)
(0.00702866 0.0287888 1.49132e-18)
(0.00796723 0.0286476 -7.75231e-18)
(0.00890623 0.0284882 -1.05975e-17)
(0.00984562 0.0283102 -3.11514e-18)
(0.0107853 0.0281133 -1.43738e-18)
(0.0117253 0.0278972 -5.36674e-18)
(0.0126655 0.0276616 -1.14587e-17)
(0.0136057 0.0274062 -1.94855e-17)
(0.0145457 0.0271306 -1.37805e-18)
(0.0154853 0.0268344 -2.26394e-18)
(0.0164244 0.0265173 1.63136e-19)
(0.0173623 0.0261786 5.12543e-18)
(0.018299 0.0258182 1.46165e-17)
(0.0192337 0.0254355 1.74479e-17)
(0.020166 0.0250302 1.8693e-17)
(0.0210957 0.0246027 5.30314e-18)
(0.0220221 0.0241535 4.92053e-18)
(0.0223289 0.0243164 3.13702e-17)
(-0.0228283 0.0248277 1.22769e-17)
(-0.0224959 0.0246721 1.1944e-17)
(-0.0215446 0.0251279 1.92263e-17)
(-0.0205925 0.0255623 5.18169e-18)
(-0.0196388 0.025975 1.03551e-17)
(-0.0186833 0.0263649 7.26208e-18)
(-0.0177264 0.0267329 -1.26967e-17)
(-0.0167684 0.0270787 -1.66407e-17)
(-0.0158093 0.0274025 9.05667e-19)
(-0.0148497 0.027705 -1.28324e-18)
(-0.0138897 0.0279864 -1.29856e-17)
(-0.0129297 0.0282471 -8.52058e-18)
(-0.0119697 0.0284876 -1.81742e-18)
(-0.0110099 0.0287082 8.92459e-18)
(-0.0100505 0.0289091 3.04089e-18)
(-0.00909142 0.0290907 -7.57186e-18)
(-0.00813279 0.0292535 -7.28459e-18)
(-0.00717463 0.0293975 -9.92896e-18)
(-0.00621695 0.029523 -1.33382e-17)
(-0.00525969 0.0296301 -1.11011e-18)
(-0.0043028 0.0297191 -2.98699e-18)
(-0.00334624 0.0297902 -6.2395e-18)
(-0.00238997 0.0298434 4.33717e-19)
(-0.0014339 0.0298788 -5.10984e-18)
(-0.000477951 0.0298965 -4.63361e-18)
(0.000477954 0.0298965 5.37207e-18)
(0.0014339 0.0298788 1.06959e-17)
(0.00238997 0.0298434 1.07304e-17)
(0.00334625 0.0297902 -2.64693e-20)
(0.0043028 0.0297191 7.60899e-18)
(0.00525969 0.0296301 3.34865e-18)
(0.00621695 0.029523 -2.37802e-18)
(0.00717463 0.0293975 1.45877e-18)
(0.00813279 0.0292535 -8.04646e-18)
(0.00909142 0.0290907 -1.10478e-17)
(0.0100505 0.0289091 -3.34724e-18)
(0.0110099 0.0287082 -2.30856e-18)
(0.0119697 0.0284876 -6.0215e-18)
(0.0129297 0.0282471 -1.15183e-17)
(0.0138897 0.0279864 -1.91497e-17)
(0.0148497 0.027705 -1.8773e-18)
(0.0158093 0.0274025 -3.19613e-18)
(0.0167684 0.0270787 3.43185e-19)
(0.0177264 0.0267329 6.38414e-18)
(0.0186833 0.0263649 1.51285e-17)
(0.0196388 0.025975 1.50741e-17)
(0.0205925 0.0255623 1.78527e-17)
(0.0215446 0.0251279 5.29058e-18)
(0.0224959 0.0246721 4.46473e-18)
(0.0228283 0.0248277 3.08622e-17)
(-0.0233424 0.0253541 1.23534e-17)
(-0.022988 0.0252107 1.23111e-17)
(-0.0220119 0.0256741 1.96816e-17)
(-0.0210359 0.0261153 6.26301e-18)
(-0.0200586 0.0265337 1.05553e-17)
(-0.0190802 0.0269295 7.9978e-18)
(-0.0181015 0.027304 -1.28692e-17)
(-0.0171221 0.0276559 -1.87443e-17)
(-0.0161423 0.0279864 6.2926e-20)
(-0.0151621 0.0282952 -1.38684e-18)
(-0.0141816 0.0285825 -1.33418e-17)
(-0.0132011 0.0288486 -8.14318e-18)
(-0.0122207 0.0290941 -1.17954e-18)
(-0.0112407 0.0293193 8.3928e-18)
(-0.010261 0.0295244 2.56343e-18)
(-0.00928169 0.0297098 -7.56057e-18)
(-0.00830289 0.0298758 -6.21795e-18)
(-0.0073246 0.0300228 -9.09185e-18)
(-0.00634684 0.0301509 -1.39746e-17)
(-0.00536953 0.0302602 -2.04053e-18)
(-0.00439262 0.030351 -2.82802e-18)
(-0.00341608 0.0304235 -6.55195e-18)
(-0.00243984 0.0304778 9.07094e-19)
(-0.00146381 0.0305139 -4.00915e-18)
(-0.000487921 0.030532 -5.15138e-18)
(0.000487924 0.030532 5.43028e-18)
(0.00146381 0.0305139 1.20665e-17)
(0.00243984 0.0304778 1.09031e-17)
(0.00341608 0.0304235 -1.15929e-18)
(0.00439263 0.030351 8.00942e-18)
(0.00536953 0.0302602 4.36361e-18)
(0.00634684 0.0301509 -1.88886e-18)
(0.0073246 0.0300228 1.43353e-18)
(0.00830289 0.0298758 -7.90324e-18)
(0.00928169 0.0297098 -1.13648e-17)
(0.010261 0.0295243 -3.52927e-18)
(0.0112407 0.0293193 -3.12023e-18)
(0.0122207 0.0290941 -6.26322e-18)
(0.0132011 0.0288486 -1.12891e-17)
(0.0141816 0.0285825 -1.89388e-17)
(0.0151621 0.0282952 -2.32137e-18)
(0.0161423 0.0279864 -4.75538e-18)
(0.0171221 0.0276559 -7.19785e-20)
(0.0181015 0.027304 7.34134e-18)
(0.0190802 0.0269295 1.61848e-17)
(0.0200586 0.0265337 1.2679e-17)
(0.0210359 0.0261153 1.70964e-17)
(0.0220119 0.0256741 6.22335e-18)
(0.022988 0.0252107 4.50804e-18)
(0.0233423 0.0253541 2.86496e-17)
(-0.0238708 0.025896 1.21609e-17)
(-0.023496 0.0257669 1.29538e-17)
(-0.0224965 0.0262404 1.99317e-17)
(-0.0214968 0.0266897 7.33882e-18)
(-0.0204955 0.0271149 1.045e-17)
(-0.0194932 0.0275167 8.40311e-18)
(-0.0184907 0.0278961 -1.27412e-17)
(-0.0174878 0.0282527 -2.10323e-17)
(-0.0164858 0.0285887 -1.38223e-18)
(-0.0154837 0.0289028 -1.46393e-18)
(-0.0144817 0.0291953 -1.37573e-17)
(-0.0134802 0.0294669 -7.41349e-18)
(-0.0124788 0.0297175 -1.16901e-19)
(-0.0114779 0.0299474 7.47766e-18)
(-0.0104773 0.0301567 1.60958e-18)
(-0.00947724 0.0303459 -7.25443e-18)
(-0.0084777 0.0305154 -4.69606e-18)
(-0.00747873 0.0306654 -8.59311e-18)
(-0.00648033 0.0307961 -1.46435e-17)
(-0.00548242 0.0309077 -2.75704e-18)
(-0.00448494 0.0310004 -2.93433e-18)
(-0.00348785 0.0310744 -7.01203e-18)
(-0.00249109 0.0311297 1.134e-18)
(-0.00149455 0.0311666 -2.91221e-18)
(-0.000498167 0.031185 -5.1836e-18)
(0.000498171 0.031185 5.83876e-18)
(0.00149456 0.0311666 1.31008e-17)
(0.00249109 0.0311297 1.09133e-17)
(0.00348785 0.0310744 -2.28942e-18)
(0.00448494 0.0310004 8.35313e-18)
(0.00548242 0.0309077 5.59591e-18)
(0.00648033 0.0307961 -1.35618e-18)
(0.00747873 0.0306654 1.09101e-18)
(0.0084777 0.0305154 -7.61463e-18)
(0.00947724 0.0303459 -1.10766e-17)
(0.0104773 0.0301567 -3.84852e-18)
(0.0114779 0.0299474 -4.08004e-18)
(0.0124788 0.0297175 -6.22485e-18)
(0.0134802 0.0294669 -1.10433e-17)
(0.0144817 0.0291953 -1.85688e-17)
(0.0154837 0.0289028 -2.29174e-18)
(0.0164858 0.0285887 -6.75404e-18)
(0.0174878 0.0282527 -1.01468e-18)
(0.0184907 0.0278961 7.31601e-18)
(0.0194931 0.0275167 1.67727e-17)
(0.0204955 0.0271149 1.08047e-17)
(0.0214968 0.0266897 1.62477e-17)
(0.0224965 0.0262404 7.98951e-18)
(0.023496 0.0257669 5.45223e-18)
(0.0238708 0.025896 2.67091e-17)
(-0.024414 0.0264534 1.20508e-17)
(-0.0240184 0.0263394 1.43583e-17)
(-0.0229961 0.0268241 1.9933e-17)
(-0.021973 0.0272833 8.74551e-18)
(-0.0209483 0.0277172 1.02475e-17)
(-0.0199223 0.0281267 8.49672e-18)
(-0.0188956 0.028512 -1.21812e-17)
(-0.0178688 0.028874 -2.3193e-17)
(-0.0168426 0.0292143 -3.35937e-18)
(-0.015817 0.0295323 -1.26915e-18)
(-0.0147919 0.0298287 -1.45169e-17)
(-0.013768 0.0301049 -6.9585e-18)
(-0.0127446 0.0303597 8.41996e-19)
(-0.0117218 0.0305934 6.89064e-18)
(-0.0106998 0.0308069 6.4813e-19)
(-0.00967832 0.0310001 -6.30323e-18)
(-0.00865745 0.031173 -2.86738e-18)
(-0.00763719 0.0313261 -8.68751e-18)
(-0.00661758 0.0314595 -1.54227e-17)
(-0.00559848 0.0315733 -3.53673e-18)
(-0.00457985 0.0316679 -3.06285e-18)
(-0.00356164 0.0317434 -7.48897e-18)
(-0.00254377 0.0317999 9.57144e-19)
(-0.00152616 0.0318375 -1.86684e-18)
(-0.000508702 0.0318563 -4.53792e-18)
(0.000508705 0.0318563 6.53248e-18)
(0.00152616 0.0318375 1.35791e-17)
(0.00254378 0.0317999 1.0956e-17)
(0.00356164 0.0317434 -3.14763e-18)
(0.00457985 0.0316679 8.14971e-18)
(0.00559848 0.0315733 6.7155e-18)
(0.00661758 0.0314595 -8.01901e-19)
(0.00763719 0.0313261 3.80003e-19)
(0.00865745 0.031173 -6.93373e-18)
(0.00967832 0.0310001 -1.00056e-17)
(0.0106998 0.0308069 -4.47829e-18)
(0.0117218 0.0305934 -4.97828e-18)
(0.0127446 0.0303597 -6.168e-18)
(0.013768 0.0301049 -1.12157e-17)
(0.0147919 0.0298287 -1.83071e-17)
(0.015817 0.0295323 -1.69332e-18)
(0.0168426 0.0292143 -8.79802e-18)
(0.0178688 0.028874 -2.17256e-18)
(0.0188956 0.028512 7.07936e-18)
(0.0199223 0.0281267 1.66892e-17)
(0.0209483 0.0277172 9.16729e-18)
(0.021973 0.0272833 1.54013e-17)
(0.0229961 0.0268241 9.27302e-18)
(0.0240184 0.0263394 6.80456e-18)
(0.024414 0.0264534 2.54725e-17)
(-0.0249722 0.0270267 1.25246e-17)
(-0.0245549 0.0269276 1.58099e-17)
(-0.0235098 0.0274245 1.94776e-17)
(-0.0224634 0.0278945 1.0205e-17)
(-0.0214152 0.0283383 9.85317e-18)
(-0.0203656 0.0287567 8.06219e-18)
(-0.0193151 0.0291499 -1.16577e-17)
(-0.0182645 0.0295191 -2.53074e-17)
(-0.0172139 0.0298647 -5.46161e-18)
(-0.0161641 0.0301874 -7.11779e-19)
(-0.015115 0.030488 -1.52854e-17)
(-0.0140671 0.0307674 -6.88424e-18)
(-0.0130202 0.0310252 2.18303e-18)
(-0.0119742 0.0312617 6.47964e-18)
(-0.0109296 0.0314786 -3.64496e-19)
(-0.00988574 0.0316749 -4.99201e-18)
(-0.00884266 0.0318507 -1.23748e-18)