/*--------------------------------*- C++ -*----------------------------------*\
  =========                 |
  \\      /  F ield         | OpenFOAM: The Open Source CFD Toolbox
   \\    /   O peration     | Website:  https://openfoam.org
    \\  /    A nd           | Version:  7
     \\/     M anipulation  |
\*---------------------------------------------------------------------------*/
FoamFile
{
    version     2.0;
    format      ascii;
    class       volScalarField;
    location    "252000";
    object      p;
}
// * * * * * * * * * * * * * * * * * * * * * * * * * * * * * * * * * * * * * //

dimensions      [0 2 -2 0 0 0 0];

internalField   nonuniform List<scalar> 
4814
(
-2.48457e-18
-2.4851e-18
-2.48586e-18
-2.47724e-18
-2.40182e-18
-2.40973e-18
-2.41296e-18
-2.41597e-18
-2.4224e-18
-2.42103e-18
-2.43562e-18
-2.43827e-18
-2.44451e-18
-2.44083e-18
-2.45981e-18
-2.45855e-18
-2.47602e-18
-2.46968e-18
-2.48589e-18
-2.48224e-18
-2.48761e-18
-2.47485e-18
-2.47445e-18
-2.46882e-18
-2.47381e-18
-2.46315e-18
-2.46678e-18
-2.45919e-18
-2.46569e-18
-2.4668e-18
-2.47232e-18
-2.46439e-18
-2.46736e-18
-2.46323e-18
-2.45814e-18
-2.45313e-18
-2.45195e-18
-2.44781e-18
-2.4073e-18
-2.40655e-18
-2.41338e-18
-2.41172e-18
-2.4229e-18
-2.42781e-18
-2.43057e-18
-2.43524e-18
-2.4465e-18
-2.43943e-18
-2.45984e-18
-2.45317e-18
-2.48002e-18
-2.47171e-18
-2.48488e-18
-2.4812e-18
-2.48669e-18
-2.47518e-18
-2.4734e-18
-2.46869e-18
-2.47467e-18
-2.46439e-18
-2.46693e-18
-2.45896e-18
-2.46321e-18
-2.4667e-18
-2.47379e-18
-2.4645e-18
-2.46512e-18
-2.46239e-18
-2.46063e-18
-2.45396e-18
-2.45114e-18
-2.44796e-18
-2.45046e-18
-2.44407e-18
-2.45826e-18
-2.45372e-18
-2.45584e-18
-2.45317e-18
-2.45596e-18
-2.40574e-18
-2.4093e-18
-2.41016e-18
-2.41034e-18
-2.42255e-18
-2.42644e-18
-2.43051e-18
-2.43571e-18
-2.44274e-18
-2.44085e-18
-2.45767e-18
-2.4536e-18
-2.48322e-18
-2.47153e-18
-2.48161e-18
-2.47956e-18
-2.48559e-18
-2.47248e-18
-2.47328e-18
-2.4679e-18
-2.47471e-18
-2.46583e-18
-2.46654e-18
-2.45957e-18
-2.46468e-18
-2.46598e-18
-2.47233e-18
-2.46485e-18
-2.46593e-18
-2.46217e-18
-2.46129e-18
-2.45507e-18
-2.45243e-18
-2.44837e-18
-2.45113e-18
-2.44569e-18
-2.46259e-18
-2.44931e-18
-2.45833e-18
-2.45449e-18
-2.456e-18
-2.45692e-18
-2.46323e-18
-2.45288e-18
-2.40016e-18
-2.412e-18
-2.4084e-18
-2.41531e-18
-2.42337e-18
-2.42315e-18
-2.43579e-18
-2.43926e-18
-2.44165e-18
-2.44614e-18
-2.45649e-18
-2.45731e-18
-2.47764e-18
-2.47039e-18
-2.48194e-18
-2.47791e-18
-2.4849e-18
-2.47152e-18
-2.47174e-18
-2.47088e-18
-2.47512e-18
-2.46456e-18
-2.46531e-18
-2.45865e-18
-2.46585e-18
-2.46408e-18
-2.47185e-18
-2.46515e-18
-2.46734e-18
-2.46282e-18
-2.46022e-18
-2.457e-18
-2.45283e-18
-2.44816e-18
-2.4524e-18
-2.44716e-18
-2.4612e-18
-2.45668e-18
-2.45539e-18
-2.45404e-18
-2.45633e-18
-2.46066e-18
-2.45816e-18
-2.44868e-18
-2.40321e-18
-2.40881e-18
-2.41095e-18
-2.41448e-18
-2.42529e-18
-2.41741e-18
-2.43357e-18
-2.43418e-18
-2.44447e-18
-2.44432e-18
-2.45706e-18
-2.45973e-18
-2.4754e-18
-2.47118e-18
-2.48716e-18
-2.47965e-18
-2.48233e-18
-2.47336e-18
-2.47195e-18
-2.47063e-18
-2.47502e-18
-2.46613e-18
-2.46529e-18
-2.45768e-18
-2.46531e-18
-2.46477e-18
-2.47145e-18
-2.46512e-18
-2.46703e-18
-2.46287e-18
-2.46003e-18
-2.45662e-18
-2.45237e-18
-2.45019e-18
-2.45029e-18
-2.44484e-18
-2.45682e-18
-2.45769e-18
-2.45616e-18
-2.45443e-18
-2.45831e-18
-2.45852e-18
-2.45987e-18
-2.45012e-18
-2.40307e-18
-2.40596e-18
-2.40949e-18
-2.41524e-18
-2.42245e-18
-2.42268e-18
-2.43308e-18
-2.43188e-18
-2.45026e-18
-2.44331e-18
-2.45767e-18
-2.4582e-18
-2.47743e-18
-2.47186e-18
-2.48406e-18
-2.47798e-18
-2.48405e-18
-2.47151e-18
-2.47356e-18
-2.46839e-18
-2.47443e-18
-2.46483e-18
-2.467e-18
-2.45835e-18
-2.46455e-18
-2.46597e-18
-2.47196e-18
-2.46393e-18
-2.4676e-18
-2.4646e-18
-2.45817e-18
-2.4568e-18
-2.45358e-18
-2.44938e-18
-2.45158e-18
-2.44748e-18
-2.45397e-18
-2.45511e-18
-2.45554e-18
-2.45369e-18
-2.45891e-18
-2.45262e-18
-2.46131e-18
-2.44915e-18
-2.40219e-18
-2.41062e-18
-2.41217e-18
-2.41519e-18
-2.42101e-18
-2.42282e-18
-2.43212e-18
-2.43405e-18
-2.44595e-18
-2.44383e-18
-2.45859e-18
-2.4585e-18
-2.48249e-18
-2.46839e-18
-2.48084e-18
-2.47793e-18
-2.48147e-18
-2.46991e-18
-2.47325e-18
-2.46835e-18
-2.47529e-18
-2.46433e-18
-2.46624e-18
-2.45921e-18
-2.46383e-18
-2.46657e-18
-2.47143e-18
-2.46243e-18
-2.46764e-18
-2.46247e-18
-2.45907e-18
-2.45808e-18
-2.45395e-18
-2.45074e-18
-2.45098e-18
-2.44974e-18
-2.45822e-18
-2.45581e-18
-2.45441e-18
-2.4516e-18
-2.45608e-18
-2.45476e-18
-2.46043e-18
-2.4485e-18
-2.44762e-18
-2.40069e-18
-2.41093e-18
-2.41378e-18
-2.41261e-18
-2.42369e-18
-2.42062e-18
-2.43275e-18
-2.43586e-18
-2.44386e-18
-2.44479e-18
-2.4606e-18
-2.45634e-18
-2.47812e-18
-2.46833e-18
-2.48279e-18
-2.47653e-18
-2.48433e-18
-2.47202e-18
-2.47299e-18
-2.46906e-18
-2.47541e-18
-2.46325e-18
-2.46689e-18
-2.46027e-18
-2.46448e-18
-2.46796e-18
-2.47125e-18
-2.4644e-18
-2.46692e-18
-2.46145e-18
-2.45886e-18
-2.45828e-18
-2.45431e-18
-2.44807e-18
-2.45065e-18
-2.44609e-18
-2.45767e-18
-2.45466e-18
-2.45777e-18
-2.44954e-18
-2.45543e-18
-2.45759e-18
-2.45862e-18
-2.44705e-18
-2.45053e-18
-2.3997e-18
-2.41151e-18
-2.41279e-18
-2.41375e-18
-2.42462e-18
-2.41843e-18
-2.4309e-18
-2.43284e-18
-2.44439e-18
-2.44492e-18
-2.45856e-18
-2.4595e-18
-2.47451e-18
-2.47307e-18
-2.48246e-18
-2.4764e-18
-2.48461e-18
-2.47324e-18
-2.47615e-18
-2.46998e-18
-2.47457e-18
-2.46317e-18
-2.466e-18
-2.46021e-18
-2.46459e-18
-2.46722e-18
-2.47216e-18
-2.46497e-18
-2.46652e-18
-2.46122e-18
-2.4597e-18
-2.45588e-18
-2.45234e-18
-2.44879e-18
-2.44856e-18
-2.44453e-18
-2.45359e-18
-2.45428e-18
-2.45394e-18
-2.45358e-18
-2.45657e-18
-2.45682e-18
-2.45941e-18
-2.44959e-18
-2.45127e-18
-2.40083e-18
-2.40854e-18
-2.41159e-18
-2.41603e-18
-2.42256e-18
-2.42036e-18
-2.43109e-18
-2.43132e-18
-2.44593e-18
-2.44573e-18
-2.45638e-18
-2.45853e-18
-2.47456e-18
-2.47212e-18
-2.48195e-18
-2.47647e-18
-2.48624e-18
-2.47082e-18
-2.47494e-18
-2.46751e-18
-2.47407e-18
-2.46407e-18
-2.46746e-18
-2.46011e-18
-2.46471e-18
-2.46598e-18
-2.47156e-18
-2.46421e-18
-2.46462e-18
-2.46125e-18
-2.46154e-18
-2.45711e-18
-2.45371e-18
-2.44772e-18
-2.44981e-18
-2.44522e-18
-2.45467e-18
-2.45291e-18
-2.45219e-18
-2.45503e-18
-2.45622e-18
-2.45558e-18
-2.45999e-18
-2.44909e-18
-2.44969e-18
-2.39879e-18
-2.40822e-18
-2.41252e-18
-2.41661e-18
-2.42366e-18
-2.42243e-18
-2.43322e-18
-2.43291e-18
-2.44485e-18
-2.4448e-18
-2.45501e-18
-2.45876e-18
-2.47248e-18
-2.47018e-18
-2.47709e-18
-2.47575e-18
-2.48496e-18
-2.47234e-18
-2.47555e-18
-2.46605e-18
-2.47415e-18
-2.46439e-18
-2.46645e-18
-2.45972e-18
-2.46509e-18
-2.46575e-18
-2.47278e-18
-2.46444e-18
-2.46502e-18
-2.46175e-18
-2.46212e-18
-2.45656e-18
-2.45233e-18
-2.4491e-18
-2.4523e-18
-2.44953e-18
-2.45553e-18
-2.45231e-18
-2.45291e-18
-2.45353e-18
-2.45758e-18
-2.45627e-18
-2.45822e-18
-2.44511e-18
-2.40431e-18
-2.41097e-18
-2.41035e-18
-2.41659e-18
-2.42257e-18
-2.42014e-18
-2.43209e-18
-2.4343e-18
-2.44185e-18
-2.44738e-18
-2.45653e-18
-2.45658e-18
-2.47313e-18
-2.46753e-18
-2.47766e-18
-2.47598e-18
-2.48188e-18
-2.47088e-18
-2.4762e-18
-2.46674e-18
-2.47478e-18
-2.46393e-18
-2.46573e-18
-2.46052e-18
-2.46573e-18
-2.46648e-18
-2.47209e-18
-2.46439e-18
-2.46641e-18
-2.46174e-18
-2.46198e-18
-2.45578e-18
-2.45413e-18
-2.45043e-18
-2.45258e-18
-2.45082e-18
-2.45902e-18
-2.45313e-18
-2.45693e-18
-2.45254e-18
-2.45422e-18
-2.4581e-18
-2.45561e-18
-2.44915e-18
-2.4051e-18
-2.41214e-18
-2.40988e-18
-2.41178e-18
-2.42457e-18
-2.42011e-18
-2.43374e-18
-2.4337e-18
-2.44418e-18
-2.44656e-18
-2.45817e-18
-2.45682e-18
-2.47594e-18
-2.47025e-18
-2.48036e-18
-2.4764e-18
-2.48011e-18
-2.47057e-18
-2.47618e-18
-2.46758e-18
-2.47429e-18
-2.46414e-18
-2.46602e-18
-2.46149e-18
-2.46541e-18
-2.46693e-18
-2.47123e-18
-2.46548e-18
-2.46589e-18
-2.46101e-18
-2.4614e-18
-2.45642e-18
-2.45541e-18
-2.4503e-18
-2.45217e-18
-2.449e-18
-2.45632e-18
-2.45077e-18
-2.45672e-18
-2.45144e-18
-2.4546e-18
-2.45569e-18
-2.45706e-18
-2.44655e-18
-2.40321e-18
-2.40892e-18
-2.40963e-18
-2.41444e-18
-2.42384e-18
-2.42243e-18
-2.43263e-18
-2.43088e-18
-2.44504e-18
-2.4444e-18
-2.45734e-18
-2.45687e-18
-2.47515e-18
-2.46911e-18
-2.481e-18
-2.47712e-18
-2.48072e-18
-2.47284e-18
-2.47426e-18
-2.46857e-18
-2.47318e-18
-2.46408e-18
-2.46563e-18
-2.46102e-18
-2.46512e-18
-2.46714e-18
-2.47112e-18
-2.46515e-18
-2.46609e-18
-2.46028e-18
-2.4597e-18
-2.45645e-18
-2.45359e-18
-2.44923e-18
-2.45042e-18
-2.44868e-18
-2.4552e-18
-2.45081e-18
-2.45633e-18
-2.45034e-18
-2.45665e-18
-2.45601e-18
-2.45631e-18
-2.44647e-18
-2.40325e-18
-2.40612e-18
-2.41136e-18
-2.41491e-18
-2.42476e-18
-2.42146e-18
-2.43064e-18
-2.43453e-18
-2.44516e-18
-2.44356e-18
-2.45724e-18
-2.45763e-18
-2.47226e-18
-2.46562e-18
-2.48234e-18
-2.47437e-18
-2.48125e-18
-2.47525e-18
-2.47544e-18
-2.46783e-18
-2.47193e-18
-2.46432e-18
-2.46729e-18
-2.46076e-18
-2.46429e-18
-2.46587e-18
-2.47106e-18
-2.46457e-18
-2.46565e-18
-2.45943e-18
-2.45929e-18
-2.45581e-18
-2.45204e-18
-2.44895e-18
-2.45305e-18
-2.44745e-18
-2.45778e-18
-2.45245e-18
-2.45326e-18
-2.44967e-18
-2.45792e-18
-2.45578e-18
-2.45517e-18
-2.4476e-18
-2.4023e-18
-2.41006e-18
-2.4098e-18
-2.418e-18
-2.42528e-18
-2.42524e-18
-2.43069e-18
-2.43618e-18
-2.44711e-18
-2.44469e-18
-2.45771e-18
-2.45737e-18
-2.47444e-18
-2.4643e-18
-2.48073e-18
-2.47402e-18
-2.48052e-18
-2.47324e-18
-2.47552e-18
-2.46816e-18
-2.47163e-18
-2.4643e-18
-2.46643e-18
-2.46167e-18
-2.46392e-18
-2.46539e-18
-2.46983e-18
-2.46616e-18
-2.46524e-18
-2.46088e-18
-2.46009e-18
-2.45616e-18
-2.45563e-18
-2.45017e-18
-2.45058e-18
-2.44599e-18
-2.45789e-18
-2.44988e-18
-2.45262e-18
-2.45035e-18
-2.4577e-18
-2.45398e-18
-2.45399e-18
-2.44871e-18
-2.40195e-18
-2.40999e-18
-2.40944e-18
-2.41853e-18
-2.42361e-18
-2.42427e-18
-2.43347e-18
-2.43453e-18
-2.44761e-18
-2.44257e-18
-2.45729e-18
-2.45737e-18
-2.47157e-18
-2.46835e-18
-2.4808e-18
-2.47269e-18
-2.48164e-18
-2.47137e-18
-2.47522e-18
-2.46875e-18
-2.47339e-18
-2.46478e-18
-2.46531e-18
-2.46148e-18
-2.46527e-18
-2.46545e-18
-2.46952e-18
-2.46664e-18
-2.4656e-18
-2.46079e-18
-2.46068e-18
-2.4565e-18
-2.45502e-18
-2.44913e-18
-2.45333e-18
-2.44505e-18
-2.45389e-18
-2.45169e-18
-2.45316e-18
-2.45509e-18
-2.45886e-18
-2.45273e-18
-2.45499e-18
-2.44418e-18
-2.40218e-18
-2.40927e-18
-2.40993e-18
-2.41732e-18
-2.42491e-18
-2.42351e-18
-2.43305e-18
-2.43298e-18
-2.44411e-18
-2.44463e-18
-2.45673e-18
-2.45623e-18
-2.47206e-18
-2.46829e-18
-2.48083e-18
-2.47369e-18
-2.48167e-18
-2.47318e-18
-2.47476e-18
-2.4694e-18
-2.47247e-18
-2.46419e-18
-2.46732e-18
-2.46075e-18
-2.46576e-18
-2.46549e-18
-2.47027e-18
-2.46546e-18
-2.46565e-18
-2.46018e-18
-2.46054e-18
-2.45712e-18
-2.45292e-18
-2.449e-18
-2.45238e-18
-2.44731e-18
-2.45318e-18
-2.45204e-18
-2.45548e-18
-2.45381e-18
-2.45675e-18
-2.45505e-18
-2.45571e-18
-2.4442e-18
-2.40257e-18
-2.4086e-18
-2.41206e-18
-2.41466e-18
-2.42264e-18
-2.42453e-18
-2.43325e-18
-2.43346e-18
-2.44371e-18
-2.44736e-18
-2.45632e-18
-2.45517e-18
-2.47357e-18
-2.46622e-18
-2.48014e-18
-2.47412e-18
-2.48195e-18
-2.47371e-18
-2.47503e-18
-2.46812e-18
-2.47251e-18
-2.46368e-18
-2.4675e-18
-2.46091e-18
-2.46586e-18
-2.46552e-18
-2.46943e-18
-2.4653e-18
-2.46572e-18
-2.45947e-18
-2.46092e-18
-2.45723e-18
-2.45455e-18
-2.44836e-18
-2.45158e-18
-2.44732e-18
-2.45535e-18
-2.45089e-18
-2.45542e-18
-2.45371e-18
-2.4548e-18
-2.45433e-18
-2.45501e-18
-2.44584e-18
-2.40189e-18
-2.40841e-18
-2.4117e-18
-2.4155e-18
-2.41927e-18
-2.42277e-18
-2.43236e-18
-2.43352e-18
-2.44567e-18
-2.44794e-18
-2.4582e-18
-2.45682e-18
-2.47058e-18
-2.46436e-18
-2.4784e-18
-2.47393e-18
-2.48189e-18
-2.47353e-18
-2.47502e-18
-2.4681e-18
-2.4724e-18
-2.46382e-18
-2.46762e-18
-2.46219e-18
-2.46578e-18
-2.46544e-18
-2.46904e-18
-2.46541e-18
-2.466e-18
-2.46001e-18
-2.45985e-18
-2.45657e-18
-2.45393e-18
-2.44762e-18
-2.45092e-18
-2.44795e-18
-2.45654e-18
-2.45221e-18
-2.45378e-18
-2.45221e-18
-2.45265e-18
-2.45501e-18
-2.45418e-18
-2.44478e-18
-2.40098e-18
-2.40848e-18
-2.40935e-18
-2.41858e-18
-2.42181e-18
-2.42255e-18
-2.431e-18
-2.43427e-18
-2.44544e-18
-2.44632e-18
-2.45861e-18
-2.45564e-18
-2.47057e-18
-2.46634e-18
-2.47732e-18
-2.47233e-18
-2.48132e-18
-2.47111e-18
-2.4757e-18
-2.46841e-18
-2.4713e-18
-2.4643e-18
-2.46711e-18
-2.46247e-18
-2.46591e-18
-2.46544e-18
-2.46951e-18
-2.46542e-18
-2.46517e-18
-2.46126e-18
-2.45986e-18
-2.45565e-18
-2.45408e-18
-2.44781e-18
-2.45031e-18
-2.44918e-18
-2.45516e-18
-2.4522e-18
-2.45503e-18
-2.45138e-18
-2.45452e-18
-2.45506e-18
-2.45295e-18
-2.44643e-18
-2.44745e-18
-2.40082e-18
-2.40891e-18
-2.41042e-18
-2.41652e-18
-2.42334e-18
-2.42206e-18
-2.4315e-18
-2.43429e-18
-2.44455e-18
-2.44577e-18
-2.45782e-18
-2.45401e-18
-2.46921e-18
-2.46698e-18
-2.47818e-18
-2.47386e-18
-2.48021e-18
-2.47133e-18
-2.47522e-18
-2.46905e-18
-2.47289e-18
-2.46429e-18
-2.46718e-18
-2.46253e-18
-2.46685e-18
-2.46552e-18
-2.46955e-18
-2.46523e-18
-2.46438e-18
-2.45967e-18
-2.45879e-18
-2.45699e-18
-2.45487e-18
-2.44903e-18
-2.44937e-18
-2.44901e-18
-2.4543e-18
-2.45155e-18
-2.45546e-18
-2.45188e-18
-2.45495e-18
-2.45494e-18
-2.45272e-18
-2.44577e-18
-2.44667e-18
-2.4001e-18
-2.40942e-18
-2.41209e-18
-2.41729e-18
-2.42254e-18
-2.42024e-18
-2.43216e-18
-2.43354e-18
-2.44505e-18
-2.44656e-18
-2.45718e-18
-2.45494e-18
-2.47101e-18
-2.4656e-18
-2.47821e-18
-2.47264e-18
-2.47986e-18
-2.47185e-18
-2.47453e-18
-2.46903e-18
-2.47229e-18
-2.46425e-18
-2.46736e-18
-2.46283e-18
-2.46656e-18
-2.46568e-18
-2.46926e-18
-2.46636e-18
-2.4652e-18
-2.45951e-18
-2.45898e-18
-2.45691e-18
-2.4553e-18
-2.44986e-18
-2.45088e-18
-2.44823e-18
-2.45503e-18
-2.45074e-18
-2.45496e-18
-2.4531e-18
-2.4552e-18
-2.45391e-18
-2.45377e-18
-2.44404e-18
-2.4488e-18
-2.401e-18
-2.40984e-18
-2.4119e-18
-2.4167e-18
-2.42337e-18
-2.42092e-18
-2.43267e-18
-2.43319e-18
-2.44476e-18
-2.44584e-18
-2.45587e-18
-2.45489e-18
-2.47042e-18
-2.46479e-18
-2.47812e-18
-2.47235e-18
-2.48041e-18
-2.47207e-18
-2.47506e-18
-2.4679e-18
-2.47299e-18
-2.46375e-18
-2.46756e-18
-2.4626e-18
-2.46596e-18
-2.46548e-18
-2.46917e-18
-2.46609e-18
-2.46541e-18
-2.4591e-18
-2.46026e-18
-2.45624e-18
-2.4543e-18
-2.44913e-18
-2.45026e-18
-2.4482e-18
-2.45461e-18
-2.45108e-18
-2.45499e-18
-2.45394e-18
-2.45554e-18
-2.45437e-18
-2.45424e-18
-2.44322e-18
-2.44862e-18
-2.40215e-18
-2.40811e-18
-2.41103e-18
-2.41696e-18
-2.42229e-18
-2.42177e-18
-2.43103e-18
-2.43368e-18
-2.44481e-18
-2.44512e-18
-2.45746e-18
-2.45504e-18
-2.46928e-18
-2.46508e-18
-2.47744e-18
-2.4706e-18
-2.48082e-18
-2.47146e-18
-2.47455e-18
-2.46848e-18
-2.47291e-18
-2.46438e-18
-2.46728e-18
-2.46267e-18
-2.46563e-18
-2.46544e-18
-2.46934e-18
-2.4655e-18
-2.46514e-18
-2.45925e-18
-2.45973e-18
-2.45639e-18
-2.45504e-18
-2.44874e-18
-2.45112e-18
-2.44807e-18
-2.45454e-18
-2.45163e-18
-2.45392e-18
-2.45232e-18
-2.45634e-18
-2.45496e-18
-2.45433e-18
-2.44501e-18
-2.40169e-18
-2.40867e-18
-2.41178e-18
-2.41635e-18
-2.42185e-18
-2.42294e-18
-2.4311e-18
-2.4342e-18
-2.44511e-18
-2.44673e-18
-2.45842e-18
-2.45522e-18
-2.46982e-18
-2.46517e-18
-2.47669e-18
-2.46972e-18
-2.47995e-18
-2.47091e-18
-2.47517e-18
-2.46738e-18
-2.47138e-18
-2.46503e-18
-2.46673e-18
-2.46273e-18
-2.4658e-18
-2.465e-18
-2.46899e-18
-2.46524e-18
-2.46506e-18
-2.45968e-18
-2.46016e-18
-2.45561e-18
-2.45507e-18
-2.44927e-18
-2.45273e-18
-2.44838e-18
-2.45466e-18
-2.452e-18
-2.45405e-18
-2.45134e-18
-2.45615e-18
-2.45464e-18
-2.45326e-18
-2.44488e-18
-2.40185e-18
-2.40764e-18
-2.41139e-18
-2.41527e-18
-2.42166e-18
-2.42327e-18
-2.43245e-18
-2.43334e-18
-2.44421e-18
-2.44458e-18
-2.45619e-18
-2.45645e-18
-2.47046e-18
-2.46625e-18
-2.47711e-18
-2.47068e-18
-2.47976e-18
-2.47169e-18
-2.47505e-18
-2.46674e-18
-2.47173e-18
-2.46459e-18
-2.46711e-18
-2.46269e-18
-2.46574e-18
-2.46524e-18
-2.46874e-18
-2.46543e-18
-2.46537e-18
-2.45942e-18
-2.46044e-18
-2.45566e-18
-2.45429e-18
-2.44931e-18
-2.45186e-18
-2.44851e-18
-2.4534e-18
-2.4503e-18
-2.45375e-18
-2.45264e-18
-2.45497e-18
-2.45512e-18
-2.45331e-18
-2.44405e-18
-2.40148e-18
-2.40705e-18
-2.41155e-18
-2.4167e-18
-2.42282e-18
-2.42255e-18
-2.43139e-18
-2.4331e-18
-2.44398e-18
-2.44602e-18
-2.457e-18
-2.45641e-18
-2.46958e-18
-2.4645e-18
-2.4775e-18
-2.47121e-18
-2.47941e-18
-2.47206e-18
-2.47496e-18
-2.46746e-18
-2.47167e-18
-2.46486e-18
-2.46714e-18
-2.46242e-18
-2.46591e-18
-2.46489e-18
-2.46866e-18
-2.46553e-18
-2.46503e-18
-2.45965e-18
-2.45986e-18
-2.45599e-18
-2.45412e-18
-2.44975e-18
-2.45062e-18
-2.44861e-18
-2.45482e-18
-2.45005e-18
-2.45388e-18
-2.45276e-18
-2.45384e-18
-2.45462e-18
-2.4531e-18
-2.44455e-18
-2.40155e-18
-2.40863e-18
-2.41164e-18
-2.41647e-18
-2.42337e-18
-2.42192e-18
-2.43201e-18
-2.43416e-18
-2.44412e-18
-2.44592e-18
-2.45793e-18
-2.45654e-18
-2.46965e-18
-2.46373e-18
-2.47723e-18
-2.47087e-18
-2.47918e-18
-2.4726e-18
-2.47538e-18
-2.46818e-18
-2.4715e-18
-2.46524e-18
-2.46759e-18
-2.46277e-18
-2.46575e-18
-2.46495e-18
-2.46819e-18
-2.46528e-18
-2.46506e-18
-2.45999e-18
-2.45932e-18
-2.45589e-18
-2.45445e-18
-2.44936e-18
-2.45085e-18
-2.44896e-18
-2.45492e-18
-2.45006e-18
-2.45409e-18
-2.45301e-18
-2.45436e-18
-2.45415e-18
-2.45266e-18
-2.44373e-18
-2.40186e-18
-2.40828e-18
-2.41172e-18
-2.4171e-18
-2.42305e-18
-2.42129e-18
-2.4317e-18
-2.43329e-18
-2.44395e-18
-2.446e-18
-2.45809e-18
-2.45574e-18
-2.46963e-18
-2.46488e-18
-2.47612e-18
-2.47065e-18
-2.47938e-18
-2.47237e-18
-2.47483e-18
-2.46866e-18
-2.4715e-18
-2.4648e-18
-2.46772e-18
-2.46268e-18
-2.46625e-18
-2.46494e-18
-2.46842e-18
-2.46503e-18
-2.4653e-18
-2.46005e-18
-2.45881e-18
-2.45593e-18
-2.45405e-18
-2.44929e-18
-2.45122e-18
-2.44915e-18
-2.45376e-18
-2.44948e-18
-2.455e-18
-2.45286e-18
-2.45409e-18
-2.45408e-18
-2.45351e-18
-2.44369e-18
-2.40302e-18
-2.40805e-18
-2.41306e-18
-2.41648e-18
-2.42288e-18
-2.42231e-18
-2.4313e-18
-2.43369e-18
-2.44387e-18
-2.44636e-18
-2.45755e-18
-2.45429e-18
-2.46874e-18
-2.4646e-18
-2.47664e-18
-2.47053e-18
-2.479e-18
-2.47226e-18
-2.47483e-18
-2.46859e-18
-2.4717e-18
-2.46492e-18
-2.46786e-18
-2.46278e-18
-2.46618e-18
-2.46486e-18
-2.46858e-18
-2.46517e-18
-2.46523e-18
-2.45972e-18
-2.45882e-18
-2.45583e-18
-2.45435e-18
-2.44951e-18
-2.45163e-18
-2.44858e-18
-2.45389e-18
-2.44939e-18
-2.45425e-18
-2.45332e-18
-2.45457e-18
-2.45383e-18
-2.45314e-18
-2.444e-18
-2.40278e-18
-2.40866e-18
-2.41199e-18
-2.41584e-18
-2.4229e-18
-2.42234e-18
-2.43188e-18
-2.43324e-18
-2.44477e-18
-2.44588e-18
-2.45753e-18
-2.45453e-18
-2.46811e-18
-2.46361e-18
-2.47676e-18
-2.47021e-18
-2.4789e-18
-2.47279e-18
-2.4749e-18
-2.46851e-18
-2.47174e-18
-2.46507e-18
-2.46783e-18
-2.46296e-18
-2.46625e-18
-2.46489e-18
-2.46852e-18
-2.46517e-18
-2.465e-18
-2.45946e-18
-2.45937e-18
-2.45603e-18
-2.45371e-18
-2.44942e-18
-2.4514e-18
-2.44849e-18
-2.45474e-18
-2.45085e-18
-2.4543e-18
-2.45318e-18
-2.45468e-18
-2.45337e-18
-2.45264e-18
-2.44438e-18
-2.4016e-18
-2.4083e-18
-2.41104e-18
-2.416e-18
-2.42241e-18
-2.42209e-18
-2.4319e-18
-2.43306e-18
-2.44406e-18
-2.44552e-18
-2.45761e-18
-2.45452e-18
-2.46801e-18
-2.46406e-18
-2.47603e-18
-2.46988e-18
-2.47928e-18
-2.47199e-18
-2.47499e-18
-2.46775e-18
-2.47146e-18
-2.46486e-18
-2.46776e-18
-2.46285e-18
-2.46604e-18
-2.46508e-18
-2.46865e-18
-2.46522e-18
-2.46462e-18
-2.45953e-18
-2.45968e-18
-2.45605e-18
-2.45428e-18
-2.44915e-18
-2.45102e-18
-2.44904e-18
-2.45446e-18
-2.45132e-18
-2.45457e-18
-2.4529e-18
-2.45469e-18
-2.45369e-18
-2.45309e-18
-2.44475e-18
-2.44622e-18
-2.40167e-18
-2.40774e-18
-2.41145e-18
-2.41638e-18
-2.42296e-18
-2.42126e-18
-2.43215e-18
-2.43285e-18
-2.44394e-18
-2.44503e-18
-2.4567e-18
-2.45396e-18
-2.46897e-18
-2.46462e-18
-2.47656e-18
-2.47028e-18
-2.4792e-18
-2.47124e-18
-2.47504e-18
-2.4674e-18
-2.47124e-18
-2.46486e-18
-2.46796e-18
-2.46288e-18
-2.4662e-18
-2.46501e-18
-2.46833e-18
-2.46492e-18
-2.46483e-18
-2.45962e-18
-2.45995e-18
-2.45607e-18
-2.45441e-18
-2.44915e-18
-2.45099e-18
-2.44828e-18
-2.45393e-18
-2.45037e-18
-2.45499e-18
-2.45346e-18
-2.45485e-18
-2.45361e-18
-2.45338e-18
-2.44336e-18
-2.44626e-18
-2.40212e-18
-2.40792e-18
-2.41128e-18
-2.41613e-18
-2.42287e-18
-2.42097e-18
-2.43194e-18
-2.43325e-18
-2.44354e-18
-2.44517e-18
-2.45715e-18
-2.45413e-18
-2.46888e-18
-2.46421e-18
-2.47686e-18
-2.4699e-18
-2.47877e-18
-2.4712e-18
-2.47471e-18
-2.46792e-18
-2.47114e-18
-2.46521e-18
-2.46796e-18
-2.46299e-18
-2.46646e-18
-2.46484e-18
-2.46829e-18
-2.46488e-18
-2.46466e-18
-2.45957e-18
-2.45964e-18
-2.45621e-18
-2.45403e-18
-2.44973e-18
-2.45148e-18
-2.44835e-18
-2.45351e-18
-2.45049e-18
-2.45511e-18
-2.4531e-18
-2.45458e-18
-2.45363e-18
-2.45308e-18
-2.44343e-18
-2.44644e-18
-2.40276e-18
-2.40773e-18
-2.41116e-18
-2.416e-18
-2.42229e-18
-2.4214e-18
-2.43196e-18
-2.43276e-18
-2.44426e-18
-2.44522e-18
-2.45794e-18
-2.45387e-18
-2.46842e-18
-2.46383e-18
-2.47729e-18
-2.47017e-18
-2.47891e-18
-2.47158e-18
-2.47471e-18
-2.46823e-18
-2.47136e-18
-2.46515e-18
-2.46795e-18
-2.46302e-18
-2.46639e-18
-2.46483e-18
-2.46827e-18
-2.46465e-18
-2.46494e-18
-2.45979e-18
-2.45937e-18
-2.45626e-18
-2.45387e-18
-2.44964e-18
-2.45103e-18
-2.44875e-18
-2.45356e-18
-2.45077e-18
-2.45524e-18
-2.45276e-18
-2.45441e-18
-2.45295e-18
-2.45326e-18
-2.44334e-18
-2.44637e-18
-2.43813e-18
-2.40231e-18
-2.40783e-18
-2.41187e-18
-2.41636e-18
-2.42292e-18
-2.42191e-18
-2.43133e-18
-2.43317e-18
-2.44434e-18
-2.44517e-18
-2.45768e-18
-2.45457e-18
-2.46869e-18
-2.46358e-18
-2.47656e-18
-2.4702e-18
-2.47874e-18
-2.47142e-18
-2.47503e-18
-2.46822e-18
-2.47153e-18
-2.46512e-18
-2.468e-18
-2.46287e-18
-2.46604e-18
-2.46466e-18
-2.46829e-18
-2.46471e-18
-2.46515e-18
-2.45969e-18
-2.45937e-18
-2.45616e-18
-2.45407e-18
-2.4498e-18
-2.45065e-18
-2.44908e-18
-2.45368e-18
-2.45038e-18
-2.45411e-18
-2.45263e-18
-2.45425e-18
-2.45329e-18
-2.45268e-18
-2.44405e-18
-2.44596e-18
-2.43799e-18
-2.40215e-18
-2.4084e-18
-2.41202e-18
-2.41638e-18
-2.42261e-18
-2.42202e-18
-2.43117e-18
-2.43353e-18
-2.44379e-18
-2.44512e-18
-2.45763e-18
-2.45449e-18
-2.46859e-18
-2.46401e-18
-2.47616e-18
-2.46969e-18
-2.47875e-18
-2.47138e-18
-2.47486e-18
-2.46834e-18
-2.47136e-18
-2.4655e-18
-2.46807e-18
-2.46307e-18
-2.46595e-18
-2.46451e-18
-2.46807e-18
-2.46451e-18
-2.46474e-18
-2.45951e-18
-2.45953e-18
-2.4559e-18
-2.454e-18
-2.44976e-18
-2.45133e-18
-2.44861e-18
-2.45387e-18
-2.45048e-18
-2.45406e-18
-2.45277e-18
-2.45395e-18
-2.45373e-18
-2.45218e-18
-2.44416e-18
-2.44604e-18
-2.43817e-18
-2.44754e-18
-2.40213e-18
-2.40807e-18
-2.41197e-18
-2.4162e-18
-2.42251e-18
-2.42139e-18
-2.43134e-18
-2.43328e-18
-2.44376e-18
-2.4453e-18
-2.45746e-18
-2.45422e-18
-2.46851e-18
-2.46394e-18
-2.47663e-18
-2.46983e-18
-2.47895e-18
-2.47137e-18
-2.47477e-18
-2.46812e-18
-2.47127e-18
-2.46551e-18
-2.46785e-18
-2.46317e-18
-2.46601e-18
-2.4646e-18
-2.46809e-18
-2.46456e-18
-2.46457e-18
-2.45952e-18
-2.45954e-18
-2.4559e-18
-2.45409e-18
-2.44954e-18
-2.45116e-18
-2.44815e-18
-2.45393e-18
-2.45069e-18
-2.45464e-18
-2.45288e-18
-2.4541e-18
-2.45382e-18
-2.45217e-18
-2.44392e-18
-2.44673e-18
-2.43828e-18
-2.44759e-18
-2.40247e-18
-2.40813e-18
-2.41169e-18
-2.41645e-18
-2.42249e-18
-2.42154e-18
-2.43127e-18
-2.43297e-18
-2.44416e-18
-2.44571e-18
-2.45746e-18
-2.45437e-18
-2.46838e-18
-2.46404e-18
-2.47645e-18
-2.4703e-18
-2.47874e-18
-2.47156e-18
-2.4748e-18
-2.4679e-18
-2.47145e-18
-2.46533e-18
-2.46786e-18
-2.46317e-18
-2.46611e-18
-2.46468e-18
-2.46816e-18
-2.46457e-18
-2.46464e-18
-2.4596e-18
-2.45947e-18
-2.4559e-18
-2.45389e-18
-2.44968e-18
-2.45078e-18
-2.4485e-18
-2.45368e-18
-2.45063e-18
-2.45459e-18
-2.45274e-18
-2.45411e-18
-2.45335e-18
-2.4524e-18
-2.44406e-18
-2.4466e-18
-2.43842e-18
-2.44715e-18
-2.40225e-18
-2.40778e-18
-2.41149e-18
-2.41599e-18
-2.42285e-18
-2.42213e-18
-2.4314e-18
-2.43311e-18
-2.44414e-18
-2.44513e-18
-2.4574e-18
-2.45456e-18
-2.46856e-18
-2.4638e-18
-2.47619e-18
-2.46989e-18
-2.47875e-18
-2.47143e-18
-2.4747e-18
-2.46807e-18
-2.4714e-18
-2.46538e-18
-2.46799e-18
-2.46322e-18
-2.46615e-18
-2.46462e-18
-2.4682e-18
-2.46443e-18
-2.46458e-18
-2.45961e-18
-2.45944e-18
-2.45605e-18
-2.45374e-18
-2.44954e-18
-2.45128e-18
-2.44871e-18
-2.45372e-18
-2.45071e-18
-2.45445e-18
-2.45291e-18
-2.45437e-18
-2.45318e-18
-2.4522e-18
-2.44418e-18
-2.44605e-18
-2.43823e-18
-2.44754e-18
-2.40241e-18
-2.4076e-18
-2.41166e-18
-2.4162e-18
-2.42298e-18
-2.42209e-18
-2.43138e-18
-2.4336e-18
-2.44398e-18
-2.44517e-18
-2.45739e-18
-2.45458e-18
-2.4686e-18
-2.46376e-18
-2.47623e-18
-2.46958e-18
-2.47863e-18
-2.47128e-18
-2.47463e-18
-2.46829e-18
-2.47142e-18
-2.46535e-18
-2.46795e-18
-2.46333e-18
-2.46612e-18
-2.46461e-18
-2.46811e-18
-2.46441e-18
-2.46473e-18
-2.45949e-18
-2.4594e-18
-2.45607e-18
-2.45401e-18
-2.44953e-18
-2.45147e-18
-2.44862e-18
-2.45386e-18
-2.45082e-18
-2.45427e-18
-2.45295e-18
-2.45422e-18
-2.45324e-18
-2.45188e-18
-2.44391e-18
-2.44609e-18
-2.4381e-18
-2.44732e-18
-2.40259e-18
-2.40798e-18
-2.41177e-18
-2.41642e-18
-2.42277e-18
-2.42188e-18
-2.43152e-18
-2.43329e-18
-2.44372e-18
-2.44509e-18
-2.45743e-18
-2.4544e-18
-2.46847e-18
-2.46391e-18
-2.47615e-18
-2.47006e-18
-2.47857e-18
-2.47115e-18
-2.47454e-18
-2.46837e-18
-2.47122e-18
-2.46546e-18
-2.46793e-18
-2.46337e-18
-2.46603e-18
-2.4646e-18
-2.46806e-18
-2.46442e-18
-2.46474e-18
-2.45957e-18
-2.45936e-18
-2.4561e-18
-2.45416e-18
-2.4496e-18
-2.45084e-18
-2.44863e-18
-2.45374e-18
-2.45067e-18
-2.4546e-18
-2.45297e-18
-2.45405e-18
-2.4535e-18
-2.45217e-18
-2.44361e-18
-2.4462e-18
-2.43812e-18
-2.4471e-18
-2.43933e-18
-2.40253e-18
-2.40787e-18
-2.41159e-18
-2.41614e-18
-2.42284e-18
-2.42186e-18
-2.43147e-18
-2.43335e-18
-2.44355e-18
-2.44475e-18
-2.45746e-18
-2.45432e-18
-2.46817e-18
-2.46396e-18
-2.47619e-18
-2.4699e-18
-2.47877e-18
-2.47122e-18
-2.4745e-18
-2.46811e-18
-2.47118e-18
-2.46547e-18
-2.46798e-18
-2.46333e-18
-2.46604e-18
-2.46459e-18
-2.46804e-18
-2.46435e-18
-2.46462e-18
-2.4597e-18
-2.45962e-18
-2.4561e-18
-2.45413e-18
-2.44943e-18
-2.45079e-18
-2.44848e-18
-2.45364e-18
-2.45084e-18
-2.45463e-18
-2.45282e-18
-2.45429e-18
-2.45376e-18
-2.45207e-18
-2.44362e-18
-2.44636e-18
-2.4377e-18
-2.44734e-18
-2.43959e-18
-2.40226e-18
-2.40784e-18
-2.41177e-18
-2.41597e-18
-2.42263e-18
-2.42165e-18
-2.43135e-18
-2.43332e-18
-2.44385e-18
-2.44495e-18
-2.45728e-18
-2.45429e-18
-2.46809e-18
-2.46395e-18
-2.47634e-18
-2.46982e-18
-2.47874e-18
-2.4712e-18
-2.47453e-18
-2.46815e-18
-2.4713e-18
-2.46554e-18
-2.46802e-18
-2.46324e-18
-2.4661e-18
-2.4646e-18
-2.46806e-18
-2.46428e-18
-2.46452e-18
-2.45962e-18
-2.45959e-18
-2.45607e-18
-2.45416e-18
-2.44965e-18
-2.45099e-18
-2.44852e-18
-2.45356e-18
-2.45078e-18
-2.45461e-18
-2.45293e-18
-2.45407e-18
-2.4534e-18
-2.45212e-18
-2.44373e-18
-2.44663e-18
-2.43799e-18
-2.4474e-18
-2.43927e-18
-2.40269e-18
-2.408e-18
-2.41154e-18
-2.41595e-18
-2.42273e-18
-2.42163e-18
-2.43126e-18
-2.43316e-18
-2.44398e-18
-2.44494e-18
-2.45744e-18
-2.45438e-18
-2.46818e-18
-2.46395e-18
-2.47621e-18
-2.4698e-18
-2.47862e-18
-2.47117e-18
-2.47463e-18
-2.46825e-18
-2.47135e-18
-2.46551e-18
-2.468e-18
-2.46331e-18
-2.46611e-18
-2.4646e-18
-2.46805e-18
-2.46434e-18
-2.46455e-18
-2.45957e-18
-2.4595e-18
-2.45597e-18
-2.45416e-18
-2.44975e-18
-2.45098e-18
-2.44862e-18
-2.45362e-18
-2.45082e-18
-2.45449e-18
-2.45291e-18
-2.45422e-18
-2.45323e-18
-2.45221e-18
-2.44384e-18
-2.44664e-18
-2.43813e-18
-2.44728e-18
-2.43947e-18
-2.40274e-18
-2.40801e-18
-2.41153e-18
-2.4161e-18
-2.42294e-18
-2.42177e-18
-2.43129e-18
-2.43311e-18
-2.44397e-18
-2.44486e-18
-2.45731e-18
-2.45433e-18
-2.46828e-18
-2.46402e-18
-2.47619e-18
-2.46972e-18
-2.47873e-18
-2.47117e-18
-2.47465e-18
-2.46828e-18
-2.47127e-18
-2.46544e-18
-2.46792e-18
-2.4633e-18
-2.46611e-18
-2.4646e-18
-2.46805e-18
-2.46437e-18
-2.46462e-18
-2.45965e-18
-2.45948e-18
-2.45595e-18
-2.4541e-18
-2.44968e-18
-2.45108e-18
-2.4486e-18
-2.45365e-18
-2.45072e-18
-2.45449e-18
-2.453e-18
-2.45426e-18
-2.45306e-18
-2.45222e-18
-2.44386e-18
-2.44654e-18
-2.43791e-18
-2.44724e-18
-2.43942e-18
-2.40261e-18
-2.40804e-18
-2.41169e-18
-2.41612e-18
-2.42271e-18
-2.42188e-18
-2.43138e-18
-2.43324e-18
-2.44389e-18
-2.44492e-18
-2.45738e-18
-2.45426e-18
-2.46822e-18
-2.46399e-18
-2.47627e-18
-2.46981e-18
-2.47867e-18
-2.47128e-18
-2.47463e-18
-2.46828e-18
-2.47123e-18
-2.46542e-18
-2.46792e-18
-2.46324e-18
-2.46611e-18
-2.46459e-18
-2.46802e-18
-2.46435e-18
-2.46464e-18
-2.4597e-18
-2.45949e-18
-2.45597e-18
-2.45404e-18
-2.44966e-18
-2.45102e-18
-2.44851e-18
-2.45362e-18
-2.45083e-18
-2.45461e-18
-2.45289e-18
-2.45419e-18
-2.4532e-18
-2.45215e-18
-2.44372e-18
-2.44645e-18
-2.43811e-18
-2.44726e-18
-2.43924e-18
-2.40247e-18
-2.4079e-18
-2.41176e-18
-2.41618e-18
-2.42262e-18
-2.42173e-18
-2.43137e-18
-2.43324e-18
-2.44389e-18
-2.44495e-18
-2.45737e-18
-2.45427e-18
-2.46813e-18
-2.46396e-18
-2.47629e-18
-2.46975e-18
-2.47859e-18
-2.4713e-18
-2.47461e-18
-2.46828e-18
-2.47122e-18
-2.46546e-18
-2.46797e-18
-2.46324e-18
-2.4661e-18
-2.46459e-18
-2.46803e-18
-2.46432e-18
-2.46459e-18
-2.45971e-18
-2.45951e-18
-2.45598e-18
-2.45405e-18
-2.4497e-18
-2.45109e-18
-2.44853e-18
-2.45359e-18
-2.45089e-18
-2.45461e-18
-2.45288e-18
-2.45416e-18
-2.45323e-18
-2.45211e-18
-2.4437e-18
-2.44661e-18
-2.43813e-18
-2.44719e-18
-2.43922e-18
-2.40253e-18
-2.4079e-18
-2.41167e-18
-2.4162e-18
-2.42265e-18
-2.42173e-18
-2.43132e-18
-2.43322e-18
-2.44391e-18
-2.44494e-18
-2.45736e-18
-2.4543e-18
-2.46814e-18
-2.46394e-18
-2.47629e-18
-2.46976e-18
-2.47854e-18
-2.47123e-18
-2.47459e-18
-2.46826e-18
-2.47122e-18
-2.46546e-18
-2.46798e-18
-2.46325e-18
-2.4661e-18
-2.46458e-18
-2.46805e-18
-2.46432e-18
-2.4646e-18
-2.45969e-18
-2.4595e-18
-2.45601e-18
-2.4541e-18
-2.44975e-18
-2.45106e-18
-2.44851e-18
-2.45362e-18
-2.45084e-18
-2.45457e-18
-2.45288e-18
-2.45415e-18
-2.45322e-18
-2.45212e-18
-2.44375e-18
-2.44662e-18
-2.43809e-18
-2.44715e-18
-2.43934e-18
-2.39709e-18
-2.39172e-18
-2.39312e-18
-2.39856e-18
-2.39565e-18
-2.39568e-18
-2.39646e-18
-2.39787e-18
-2.39878e-18
-2.39792e-18
-2.39999e-18
-2.3944e-18
-2.39376e-18
-2.396e-18
-2.39599e-18
-2.39698e-18
-2.39736e-18
-2.39726e-18
-2.39698e-18
-2.39769e-18
-2.39872e-18