/*--------------------------------*- C++ -*----------------------------------*\
  =========                 |
  \\      /  F ield         | OpenFOAM: The Open Source CFD Toolbox
   \\    /   O peration     | Website:  https://openfoam.org
    \\  /    A nd           | Version:  7
     \\/     M anipulation  |
\*---------------------------------------------------------------------------*/
FoamFile
{
    version     2.0;
    format      ascii;
    class       volScalarField;
    location    "272000";
    object      k;
}
// * * * * * * * * * * * * * * * * * * * * * * * * * * * * * * * * * * * * * //

dimensions      [0 2 -2 0 0 0 0];

internalField   nonuniform List<scalar> 
4814
(
1.32215e-06
1.32287e-06
1.32352e-06
1.32409e-06
1.29393e-06
1.29617e-06
1.29826e-06
1.30021e-06
1.30204e-06
1.30376e-06
1.30538e-06
1.3069e-06
1.30832e-06
1.30965e-06
1.31089e-06
1.31204e-06
1.31309e-06
1.31404e-06
1.31492e-06
1.3157e-06
1.3164e-06
1.31702e-06
1.31757e-06
1.31803e-06
1.31841e-06
1.31872e-06
1.31895e-06
1.3191e-06
1.31918e-06
1.31918e-06
1.3191e-06
1.31895e-06
1.31872e-06
1.31841e-06
1.31803e-06
1.31757e-06
1.31702e-06
1.3164e-06
1.28462e-06
1.28699e-06
1.28922e-06
1.2913e-06
1.29326e-06
1.2951e-06
1.29683e-06
1.29846e-06
1.29999e-06
1.30142e-06
1.30275e-06
1.30399e-06
1.30512e-06
1.30616e-06
1.3071e-06
1.30795e-06
1.30871e-06
1.30938e-06
1.30997e-06
1.31047e-06
1.31089e-06
1.31122e-06
1.31147e-06
1.31164e-06
1.31172e-06
1.31172e-06
1.31164e-06
1.31147e-06
1.31122e-06
1.31089e-06
1.31047e-06
1.30997e-06
1.30938e-06
1.30871e-06
1.30795e-06
1.3071e-06
1.30616e-06
1.30512e-06
1.30399e-06
1.30275e-06
1.30142e-06
1.27464e-06
1.27716e-06
1.27952e-06
1.28174e-06
1.28382e-06
1.28579e-06
1.28764e-06
1.28938e-06
1.29102e-06
1.29256e-06
1.29399e-06
1.29531e-06
1.29653e-06
1.29765e-06
1.29866e-06
1.29958e-06
1.3004e-06
1.30113e-06
1.30176e-06
1.3023e-06
1.30275e-06
1.30311e-06
1.30338e-06
1.30356e-06
1.30365e-06
1.30365e-06
1.30356e-06
1.30338e-06
1.30311e-06
1.30275e-06
1.3023e-06
1.30176e-06
1.30113e-06
1.3004e-06
1.29958e-06
1.29866e-06
1.29765e-06
1.29653e-06
1.29531e-06
1.29399e-06
1.29256e-06
1.29102e-06
1.28938e-06
1.28764e-06
1.26396e-06
1.26663e-06
1.26913e-06
1.27149e-06
1.2737e-06
1.2758e-06
1.27777e-06
1.27963e-06
1.28138e-06
1.28303e-06
1.28456e-06
1.28598e-06
1.28728e-06
1.28848e-06
1.28957e-06
1.29055e-06
1.29144e-06
1.29222e-06
1.2929e-06
1.29349e-06
1.29397e-06
1.29436e-06
1.29465e-06
1.29484e-06
1.29494e-06
1.29494e-06
1.29484e-06
1.29465e-06
1.29436e-06
1.29397e-06
1.29349e-06
1.2929e-06
1.29222e-06
1.29144e-06
1.29055e-06
1.28957e-06
1.28848e-06
1.28728e-06
1.28598e-06
1.28456e-06
1.28303e-06
1.28138e-06
1.27963e-06
1.27777e-06
1.25255e-06
1.25536e-06
1.25801e-06
1.26051e-06
1.26286e-06
1.26509e-06
1.26719e-06
1.26917e-06
1.27104e-06
1.27279e-06
1.27442e-06
1.27594e-06
1.27734e-06
1.27862e-06
1.27978e-06
1.28084e-06
1.28179e-06
1.28263e-06
1.28336e-06
1.28399e-06
1.28451e-06
1.28492e-06
1.28524e-06
1.28544e-06
1.28555e-06
1.28555e-06
1.28544e-06
1.28524e-06
1.28492e-06
1.28451e-06
1.28399e-06
1.28336e-06
1.28263e-06
1.28179e-06
1.28084e-06
1.27978e-06
1.27862e-06
1.27734e-06
1.27594e-06
1.27442e-06
1.27279e-06
1.27104e-06
1.26917e-06
1.26719e-06
1.24034e-06
1.24331e-06
1.24611e-06
1.24876e-06
1.25125e-06
1.25361e-06
1.25584e-06
1.25795e-06
1.25994e-06
1.2618e-06
1.26354e-06
1.26516e-06
1.26665e-06
1.26802e-06
1.26927e-06
1.27039e-06
1.27141e-06
1.2723e-06
1.27309e-06
1.27376e-06
1.27432e-06
1.27476e-06
1.2751e-06
1.27532e-06
1.27543e-06
1.27543e-06
1.27532e-06
1.2751e-06
1.27476e-06
1.27432e-06
1.27376e-06
1.27309e-06
1.2723e-06
1.27141e-06
1.27039e-06
1.26927e-06
1.26802e-06
1.26665e-06
1.26516e-06
1.26354e-06
1.2618e-06
1.25994e-06
1.25795e-06
1.25584e-06
1.22731e-06
1.23044e-06
1.23339e-06
1.23619e-06
1.23883e-06
1.24132e-06
1.24369e-06
1.24593e-06
1.24804e-06
1.25002e-06
1.25187e-06
1.25359e-06
1.25518e-06
1.25664e-06
1.25796e-06
1.25917e-06
1.26025e-06
1.26121e-06
1.26204e-06
1.26276e-06
1.26336e-06
1.26383e-06
1.26419e-06
1.26443e-06
1.26455e-06
1.26455e-06
1.26443e-06
1.26419e-06
1.26383e-06
1.26336e-06
1.26276e-06
1.26204e-06
1.26121e-06
1.26025e-06
1.25917e-06
1.25796e-06
1.25664e-06
1.25518e-06
1.25359e-06
1.25187e-06
1.25002e-06
1.24804e-06
1.24593e-06
1.24369e-06
1.24132e-06
1.21339e-06
1.21668e-06
1.2198e-06
1.22275e-06
1.22553e-06
1.22818e-06
1.23068e-06
1.23305e-06
1.23529e-06
1.23739e-06
1.23936e-06
1.24119e-06
1.24287e-06
1.24442e-06
1.24583e-06
1.24711e-06
1.24826e-06
1.24929e-06
1.25018e-06
1.25094e-06
1.25158e-06
1.25209e-06
1.25247e-06
1.25272e-06
1.25285e-06
1.25285e-06
1.25272e-06
1.25247e-06
1.25208e-06
1.25158e-06
1.25094e-06
1.25018e-06
1.24929e-06
1.24826e-06
1.24711e-06
1.24583e-06
1.24442e-06
1.24287e-06
1.24119e-06
1.23936e-06
1.23739e-06
1.23529e-06
1.23305e-06
1.23068e-06
1.22818e-06
1.19853e-06
1.20199e-06
1.20527e-06
1.20838e-06
1.21132e-06
1.21412e-06
1.21676e-06
1.21927e-06
1.22164e-06
1.22386e-06
1.22595e-06
1.22788e-06
1.22967e-06
1.23132e-06
1.23282e-06
1.23418e-06
1.2354e-06
1.23649e-06
1.23743e-06
1.23825e-06
1.23892e-06
1.23946e-06
1.23987e-06
1.24014e-06
1.24027e-06
1.24027e-06
1.24014e-06
1.23987e-06
1.23946e-06
1.23892e-06
1.23825e-06
1.23743e-06
1.23649e-06
1.2354e-06
1.23418e-06
1.23282e-06
1.23132e-06
1.22967e-06
1.22788e-06
1.22595e-06
1.22386e-06
1.22164e-06
1.21927e-06
1.21676e-06
1.21412e-06
1.18267e-06
1.18631e-06
1.18976e-06
1.19303e-06
1.19613e-06
1.19908e-06
1.20188e-06
1.20452e-06
1.20703e-06
1.20938e-06
1.21158e-06
1.21363e-06
1.21553e-06
1.21727e-06
1.21886e-06
1.2203e-06
1.2216e-06
1.22275e-06
1.22376e-06
1.22462e-06
1.22534e-06
1.22591e-06
1.22634e-06
1.22663e-06
1.22677e-06
1.22677e-06
1.22663e-06
1.22634e-06
1.22591e-06
1.22534e-06
1.22462e-06
1.22376e-06
1.22275e-06
1.2216e-06
1.2203e-06
1.21886e-06
1.21727e-06
1.21553e-06
1.21363e-06
1.21158e-06
1.20938e-06
1.20703e-06
1.20452e-06
1.20188e-06
1.19908e-06
1.16575e-06
1.16957e-06
1.1732e-06
1.17664e-06
1.17991e-06
1.18301e-06
1.18596e-06
1.18875e-06
1.19139e-06
1.19387e-06
1.1962e-06
1.19837e-06
1.20037e-06
1.20222e-06
1.2039e-06
1.20543e-06
1.2068e-06
1.20802e-06
1.20909e-06
1.21e-06
1.21076e-06
1.21137e-06
1.21183e-06
1.21213e-06
1.21229e-06
1.21229e-06
1.21213e-06
1.21183e-06
1.21137e-06
1.21076e-06
1.21e-06
1.20909e-06
1.20802e-06
1.2068e-06
1.20543e-06
1.2039e-06
1.20222e-06
1.20037e-06
1.19837e-06
1.1962e-06
1.19387e-06
1.19139e-06
1.18875e-06
1.18596e-06
1.14771e-06
1.15171e-06
1.15552e-06
1.15913e-06
1.16257e-06
1.16583e-06
1.16894e-06
1.17188e-06
1.17466e-06
1.17728e-06
1.17974e-06
1.18203e-06
1.18414e-06
1.18609e-06
1.18787e-06
1.18948e-06
1.19094e-06
1.19223e-06
1.19336e-06
1.19432e-06
1.19513e-06
1.19577e-06
1.19626e-06
1.19658e-06
1.19674e-06
1.19674e-06
1.19658e-06
1.19626e-06
1.19577e-06
1.19513e-06
1.19432e-06
1.19336e-06
1.19223e-06
1.19094e-06
1.18948e-06
1.18787e-06
1.18609e-06
1.18414e-06
1.18203e-06
1.17974e-06
1.17728e-06
1.17466e-06
1.17188e-06
1.16894e-06
1.12847e-06
1.13266e-06
1.13665e-06
1.14044e-06
1.14405e-06
1.14748e-06
1.15075e-06
1.15384e-06
1.15677e-06
1.15953e-06
1.16212e-06
1.16453e-06
1.16676e-06
1.16881e-06
1.17069e-06
1.1724e-06
1.17393e-06
1.1753e-06
1.17649e-06
1.17751e-06
1.17836e-06
1.17904e-06
1.17956e-06
1.1799e-06
1.18007e-06
1.18007e-06
1.1799e-06
1.17956e-06
1.17904e-06
1.17836e-06
1.17751e-06
1.17649e-06
1.1753e-06
1.17393e-06
1.1724e-06
1.17069e-06
1.16881e-06
1.16676e-06
1.16453e-06
1.16212e-06
1.15953e-06
1.15677e-06
1.15384e-06
1.15075e-06
1.10796e-06
1.11234e-06
1.11651e-06
1.12049e-06
1.12428e-06
1.12788e-06
1.13131e-06
1.13456e-06
1.13764e-06
1.14054e-06
1.14326e-06
1.1458e-06
1.14815e-06
1.15032e-06
1.1523e-06
1.15409e-06
1.15571e-06
1.15715e-06
1.15841e-06
1.15949e-06
1.16039e-06
1.16111e-06
1.16165e-06
1.16201e-06
1.16219e-06
1.16219e-06
1.16201e-06
1.16165e-06
1.16111e-06
1.16039e-06
1.15949e-06
1.15841e-06
1.15715e-06
1.15571e-06
1.15409e-06
1.1523e-06
1.15032e-06
1.14815e-06
1.1458e-06
1.14326e-06
1.14054e-06
1.13764e-06
1.13456e-06
1.13131e-06
1.08609e-06
1.09067e-06
1.09504e-06
1.0992e-06
1.10317e-06
1.10694e-06
1.11054e-06
1.11395e-06
1.11719e-06
1.12023e-06
1.1231e-06
1.12577e-06
1.12824e-06
1.13051e-06
1.1326e-06
1.13449e-06
1.13619e-06
1.13771e-06
1.13904e-06
1.14017e-06
1.14112e-06
1.14188e-06
1.14245e-06
1.14283e-06
1.14302e-06
1.14302e-06
1.14283e-06
1.14245e-06
1.14188e-06
1.14112e-06
1.14017e-06
1.13904e-06
1.13771e-06
1.13619e-06
1.13449e-06
1.1326e-06
1.13051e-06
1.12824e-06
1.12577e-06
1.12309e-06
1.12023e-06
1.11719e-06
1.11395e-06
1.11054e-06
1.06279e-06
1.06757e-06
1.07213e-06
1.07649e-06
1.08063e-06
1.08459e-06
1.08835e-06
1.09193e-06
1.09532e-06
1.09852e-06
1.10152e-06
1.10433e-06
1.10692e-06
1.10931e-06
1.1115e-06
1.11349e-06
1.11529e-06
1.11688e-06
1.11828e-06
1.11947e-06
1.12047e-06
1.12127e-06
1.12187e-06
1.12227e-06
1.12247e-06
1.12247e-06
1.12227e-06
1.12187e-06
1.12127e-06
1.12047e-06
1.11947e-06
1.11828e-06
1.11688e-06
1.11529e-06
1.11349e-06
1.1115e-06
1.10931e-06
1.10692e-06
1.10433e-06
1.10152e-06
1.09852e-06
1.09532e-06
1.09193e-06
1.08835e-06
1.03797e-06
1.04295e-06
1.0477e-06
1.05225e-06
1.05658e-06
1.06072e-06
1.06466e-06
1.06841e-06
1.07196e-06
1.0753e-06
1.07845e-06
1.08139e-06
1.08411e-06
1.08662e-06
1.08892e-06
1.09101e-06
1.0929e-06
1.09457e-06
1.09604e-06
1.0973e-06
1.09834e-06
1.09918e-06
1.09981e-06
1.10023e-06
1.10044e-06
1.10044e-06
1.10023e-06
1.09981e-06
1.09918e-06
1.09834e-06
1.09729e-06
1.09604e-06
1.09457e-06
1.0929e-06
1.09101e-06
1.08892e-06
1.08662e-06
1.08411e-06
1.08139e-06
1.07845e-06
1.0753e-06
1.07196e-06
1.06841e-06
1.06466e-06
1.01153e-06
1.01671e-06
1.02167e-06
1.02641e-06
1.03093e-06
1.03525e-06
1.03936e-06
1.04328e-06
1.04699e-06
1.05049e-06
1.05379e-06
1.05686e-06
1.05972e-06
1.06234e-06
1.06475e-06
1.06695e-06
1.06892e-06
1.07068e-06
1.07222e-06
1.07354e-06
1.07464e-06
1.07552e-06
1.07618e-06
1.07662e-06
1.07684e-06
1.07684e-06
1.07662e-06
1.07618e-06
1.07552e-06
1.07464e-06
1.07354e-06
1.07222e-06
1.07068e-06
1.06892e-06
1.06695e-06
1.06475e-06
1.06234e-06
1.05972e-06
1.05686e-06
1.05379e-06
1.05049e-06
1.04699e-06
1.04328e-06
1.03936e-06
9.83393e-07
9.88779e-07
9.93931e-07
9.98867e-07
1.00357e-06
1.00807e-06
1.01237e-06
1.01645e-06
1.02033e-06
1.02398e-06
1.02743e-06
1.03064e-06
1.03362e-06
1.03637e-06
1.03889e-06
1.04119e-06
1.04326e-06
1.0451e-06
1.04671e-06
1.04809e-06
1.04924e-06
1.05017e-06
1.05086e-06
1.05132e-06
1.05155e-06
1.05155e-06
1.05132e-06
1.05086e-06
1.05017e-06
1.04924e-06
1.04809e-06
1.04671e-06
1.0451e-06
1.04326e-06
1.04119e-06
1.03889e-06
1.03637e-06
1.03362e-06
1.03064e-06
1.02743e-06
1.02398e-06
1.02033e-06
1.01645e-06
1.01237e-06
9.53463e-07
9.59049e-07
9.64397e-07
9.69524e-07
9.74418e-07
9.79098e-07
9.83567e-07
9.87822e-07
9.91859e-07
9.95674e-07
9.99262e-07
1.00262e-06
1.00573e-06
1.0086e-06
1.01124e-06
1.01363e-06
1.0158e-06
1.01772e-06
1.01941e-06
1.02085e-06
1.02206e-06
1.02302e-06
1.02375e-06
1.02423e-06
1.02447e-06
1.02447e-06
1.02423e-06
1.02375e-06
1.02302e-06
1.02206e-06
1.02085e-06
1.0194e-06
1.01772e-06
1.0158e-06
1.01363e-06
1.01124e-06
1.0086e-06
1.00573e-06
1.00262e-06
9.99262e-07
9.95673e-07
9.91859e-07
9.87822e-07
9.83567e-07
9.21653e-07
9.27434e-07
9.32973e-07
9.38288e-07
9.43365e-07
9.48224e-07
9.52867e-07
9.57289e-07
9.61487e-07
9.65455e-07
9.6919e-07
9.72685e-07
9.75928e-07
9.78919e-07
9.81666e-07
9.84167e-07
9.86422e-07
9.8843e-07
9.90189e-07
9.91698e-07
9.92957e-07
9.93965e-07
9.94721e-07
9.95226e-07
9.95478e-07
9.95478e-07
9.95226e-07
9.94721e-07
9.93965e-07
9.92957e-07
9.91698e-07
9.90189e-07
9.8843e-07
9.86422e-07
9.84167e-07
9.81666e-07
9.78919e-07
9.75928e-07
9.72685e-07
9.6919e-07
9.65455e-07
9.61487e-07
9.57289e-07
9.52867e-07
9.48224e-07
8.8788e-07
8.93848e-07
8.99571e-07
9.05068e-07
9.10322e-07
9.15355e-07
9.20166e-07
9.24751e-07
9.29106e-07
9.33225e-07
9.37104e-07
9.40735e-07
9.44106e-07
9.47217e-07
9.50074e-07
9.52677e-07
9.55024e-07
9.57115e-07
9.58947e-07
9.60519e-07
9.6183e-07
9.62881e-07
9.63669e-07
9.64194e-07
9.64457e-07
9.64457e-07
9.64194e-07
9.63669e-07
9.6288e-07
9.6183e-07
9.60519e-07
9.58947e-07
9.57115e-07
9.55024e-07
9.52677e-07
9.50074e-07
9.47217e-07
9.44105e-07
9.40735e-07
9.37104e-07
9.33225e-07
9.29106e-07
9.24751e-07
9.20166e-07
9.15355e-07
8.5207e-07
8.58213e-07
8.6411e-07
8.69778e-07
8.75201e-07
8.80399e-07
8.85372e-07
8.90114e-07
8.9462e-07
8.98884e-07
9.02901e-07
9.06664e-07
9.10159e-07
9.13386e-07
9.16351e-07
9.19053e-07
9.2149e-07
9.23662e-07
9.25565e-07
9.27198e-07
9.28561e-07
9.29653e-07
9.30472e-07
9.31019e-07
9.31292e-07
9.31292e-07
9.31019e-07
9.30472e-07
9.29653e-07
9.28561e-07
9.27198e-07
9.25565e-07
9.23661e-07
9.2149e-07
9.19053e-07
9.16351e-07
9.13386e-07
9.10159e-07
9.06664e-07
9.02901e-07
8.98884e-07
8.9462e-07
8.90114e-07
8.85372e-07
8.80399e-07
8.14159e-07
8.20464e-07
8.2652e-07
8.32347e-07
8.37926e-07
8.43278e-07
8.48401e-07
8.5329e-07
8.57938e-07
8.6234e-07
8.66488e-07
8.70375e-07
8.73988e-07
8.77325e-07
8.80393e-07
8.8319e-07
8.85714e-07
8.87963e-07
8.89934e-07
8.91627e-07
8.93039e-07
8.94171e-07
8.9502e-07
8.95587e-07
8.9587e-07
8.9587e-07
8.95587e-07
8.9502e-07
8.94171e-07
8.93039e-07
8.91627e-07
8.89934e-07
8.87962e-07
8.85714e-07
8.8319e-07
8.80393e-07
8.77325e-07
8.73988e-07
8.70375e-07
8.66488e-07
8.6234e-07
8.57938e-07
8.5329e-07
8.48401e-07
8.43278e-07
7.74097e-07
7.80545e-07
7.86743e-07
7.92714e-07
7.98433e-07
8.03924e-07
8.09184e-07
8.14206e-07
8.18984e-07
8.23512e-07
8.27781e-07
8.31784e-07
8.35505e-07
8.38945e-07
8.42109e-07
8.44994e-07
8.47599e-07
8.4992e-07
8.51956e-07
8.53704e-07
8.55163e-07
8.56332e-07
8.5721e-07
8.57795e-07
8.58088e-07
8.58088e-07
8.57795e-07
8.57209e-07
8.56332e-07
8.55163e-07
8.53704e-07
8.51956e-07
8.4992e-07
8.47599e-07
8.44994e-07
8.42109e-07
8.38945e-07
8.35505e-07
8.31784e-07
8.2778e-07
8.23511e-07
8.18984e-07
8.14206e-07
8.09183e-07
7.31813e-07
7.38392e-07
7.44723e-07
7.50827e-07
7.56667e-07
7.62279e-07
7.67659e-07
7.728e-07
7.77694e-07
7.82333e-07
7.86711e-07
7.90819e-07
7.94638e-07
7.98171e-07
8.0142e-07
8.04385e-07
8.07063e-07
8.0945e-07
8.11544e-07
8.13343e-07
8.14845e-07
8.16048e-07
8.16951e-07
8.17554e-07
8.17855e-07
8.17855e-07
8.17554e-07
8.16951e-07
8.16048e-07
8.14844e-07
8.13343e-07
8.11544e-07
8.0945e-07
8.07063e-07
8.04385e-07
8.0142e-07
7.98171e-07
7.94638e-07
7.90818e-07
7.86711e-07
7.82333e-07
7.77694e-07
7.72799e-07
7.67659e-07
6.87244e-07
6.93928e-07
7.00368e-07
7.06582e-07
7.12531e-07
7.18251e-07
7.2374e-07
7.28989e-07
7.33989e-07
7.38733e-07
7.43211e-07
7.47416e-07
7.51323e-07
7.54935e-07
7.58259e-07
7.61294e-07
7.64035e-07
7.6648e-07
7.68626e-07
7.70469e-07
7.72009e-07
7.73242e-07
7.74169e-07
7.74787e-07
7.75096e-07
7.75096e-07
7.74787e-07
7.74169e-07
7.73242e-07
7.72009e-07
7.70469e-07
7.68626e-07
7.6648e-07
7.64035e-07
7.61294e-07
7.58259e-07
7.54935e-07
7.51323e-07
7.47416e-07
7.43211e-07
7.38733e-07
7.33989e-07
7.28989e-07
7.2374e-07
6.4042e-07
6.47168e-07
6.53678e-07
6.59967e-07
6.65995e-07
6.71798e-07
6.77371e-07
6.82704e-07
6.87789e-07
6.92616e-07
6.97177e-07
7.01462e-07
7.05444e-07
7.09126e-07
7.12518e-07
7.15615e-07
7.18414e-07
7.20912e-07
7.23104e-07
7.24988e-07
7.26562e-07
7.27823e-07
7.2877e-07
7.29402e-07
7.29719e-07
7.29719e-07
7.29402e-07
7.2877e-07
7.27823e-07
7.26562e-07
7.24988e-07
7.23104e-07
7.20912e-07
7.18414e-07
7.15615e-07
7.12518e-07
7.09126e-07
7.05444e-07
7.01461e-07
6.97177e-07
6.92616e-07
6.87789e-07
6.82704e-07
6.77371e-07
5.91476e-07
5.98234e-07
6.04763e-07
6.1108e-07
6.17143e-07
6.22986e-07
6.28603e-07
6.33983e-07
6.39118e-07
6.43997e-07
6.4861e-07
6.52947e-07
6.56982e-07
6.60715e-07
6.64156e-07
6.673e-07
6.70143e-07
6.7268e-07
6.74908e-07
6.76823e-07
6.78424e-07
6.79707e-07
6.8067e-07
6.81314e-07
6.81635e-07
6.81635e-07
6.81314e-07
6.8067e-07
6.79707e-07
6.78424e-07
6.76823e-07
6.74908e-07
6.7268e-07
6.70143e-07
6.673e-07
6.64156e-07
6.60715e-07
6.56982e-07
6.52947e-07
6.4861e-07
6.43997e-07
6.39118e-07
6.33983e-07
6.28602e-07
5.40656e-07
5.47358e-07
5.53842e-07
5.60124e-07
5.66165e-07
5.71994e-07
5.77604e-07
5.82983e-07
5.88123e-07
5.9301e-07
5.97636e-07
6.01989e-07
6.06042e-07
6.09797e-07
6.13259e-07
6.16425e-07
6.19288e-07
6.21846e-07
6.24092e-07
6.26024e-07
6.27639e-07
6.28934e-07
6.29907e-07
6.30556e-07
6.30881e-07
6.30881e-07
6.30556e-07
6.29907e-07
6.28934e-07
6.27639e-07
6.26024e-07
6.24092e-07
6.21846e-07
6.19288e-07
6.16425e-07
6.13259e-07
6.09797e-07
6.06042e-07
6.01989e-07
5.97636e-07
5.9301e-07
5.88123e-07
5.82983e-07
5.77603e-07
4.88342e-07
4.94907e-07
5.01269e-07
5.07443e-07
5.1339e-07
5.19137e-07
5.24675e-07
5.29994e-07
5.3508e-07
5.39923e-07
5.44511e-07
5.48832e-07
5.52861e-07
5.56597e-07
5.60045e-07
5.63199e-07
5.66055e-07
5.68606e-07
5.70849e-07
5.72778e-07
5.74391e-07
5.75685e-07
5.76658e-07
5.77307e-07
5.77632e-07
5.77632e-07
5.77307e-07
5.76658e-07
5.75685e-07
5.74391e-07
5.72778e-07
5.70848e-07
5.68606e-07
5.66055e-07
5.63199e-07
5.60045e-07
5.56597e-07
5.52861e-07
5.48832e-07
5.44511e-07
5.39923e-07
5.3508e-07
5.29993e-07
5.24675e-07
4.35078e-07
4.41412e-07
4.4756e-07
4.53538e-07
4.59309e-07
4.64894e-07
4.70284e-07
4.75467e-07
4.80431e-07
4.85164e-07
4.89653e-07
4.93885e-07
4.97837e-07
5.01505e-07
5.04893e-07
5.07996e-07
5.10807e-07
5.1332e-07
5.15529e-07
5.17432e-07
5.19023e-07
5.203e-07
5.2126e-07
5.21901e-07
5.22221e-07
5.22221e-07
5.21901e-07
5.2126e-07
5.203e-07
5.19023e-07
5.17432e-07
5.15529e-07
5.13319e-07
5.10807e-07
5.07996e-07
5.04893e-07
5.01505e-07
4.97837e-07
4.93885e-07
4.89653e-07
4.85164e-07
4.80431e-07
4.75467e-07
4.70284e-07
3.8158e-07
3.8758e-07
3.93415e-07
3.991e-07
4.04599e-07
4.09931e-07
4.15086e-07
4.20051e-07
4.24813e-07
4.29359e-07
4.33677e-07
4.37754e-07
4.41566e-07
4.45108e-07
4.48384e-07
4.51386e-07
4.54108e-07
4.56543e-07
4.58686e-07
4.60533e-07
4.62077e-07
4.63317e-07
4.6425e-07
4.64873e-07
4.65184e-07
4.65184e-07
4.64872e-07
4.6425e-07
4.63317e-07
4.62077e-07
4.60533e-07
4.58686e-07
4.56543e-07
4.54108e-07
4.51386e-07
4.48384e-07
4.45108e-07
4.41566e-07
4.37754e-07
4.33677e-07
4.29359e-07
4.24813e-07
4.20051e-07
4.15086e-07
4.09931e-07
3.28736e-07
3.34296e-07
3.39715e-07
3.45004e-07
3.50134e-07
3.55116e-07
3.59942e-07
3.64598e-07
3.69071e-07
3.73348e-07
3.77417e-07
3.81264e-07
3.84865e-07
3.88217e-07
3.91321e-07
3.94168e-07
3.96751e-07
3.99065e-07
4.01102e-07
4.02859e-07
4.04329e-07
4.0551e-07
4.06398e-07
4.06991e-07
4.07288e-07
4.07288e-07
4.06991e-07
4.06398e-07
4.0551e-07
4.04329e-07
4.02859e-07
4.01102e-07
3.99065e-07
3.96751e-07
3.94168e-07
3.91321e-07
3.88217e-07
3.84865e-07
3.81263e-07
3.77417e-07
3.73348e-07
3.69071e-07
3.64598e-07
3.59942e-07
3.55116e-07
2.77567e-07
2.82589e-07
2.87493e-07
2.9229e-07
2.96953e-07
3.01492e-07
3.05897e-07
3.10154e-07
3.14251e-07
3.18176e-07
3.21915e-07
3.25456e-07
3.28776e-07
3.31871e-07
3.34739e-07
3.37373e-07
3.39767e-07
3.41912e-07
3.43802e-07
3.45433e-07
3.46799e-07
3.47897e-07
3.48722e-07
3.49274e-07
3.49551e-07
3.49551e-07
3.49274e-07
3.48722e-07
3.47896e-07
3.46799e-07
3.45433e-07
3.43802e-07
3.41912e-07
3.39767e-07
3.37373e-07
3.34739e-07
3.31871e-07
3.28776e-07
3.25455e-07
3.21915e-07
3.18176e-07
3.14251e-07
3.10154e-07
3.05897e-07
3.01492e-07
2.29158e-07
2.3356e-07
2.37868e-07
2.42093e-07
2.46208e-07
2.50222e-07
2.54124e-07
2.57904e-07
2.61548e-07
2.65044e-07
2.6838e-07
2.71545e-07
2.74517e-07
2.77291e-07
2.79866e-07
2.82234e-07
2.84387e-07
2.86319e-07
2.88023e-07
2.89493e-07
2.90726e-07
2.91717e-07
2.92463e-07
2.92962e-07
2.93212e-07
2.93212e-07
2.92962e-07
2.92463e-07
2.91717e-07
2.90726e-07
2.89493e-07
2.88023e-07
2.86319e-07
2.84387e-07
2.82234e-07
2.79866e-07
2.77291e-07
2.74517e-07
2.71545e-07
2.6838e-07
2.65044e-07
2.61547e-07
2.57904e-07
2.54124e-07
2.50222e-07
2.46208e-07
1.84546e-07
1.88279e-07
1.9194e-07
1.95537e-07
1.99048e-07
2.0248e-07
2.05823e-07
2.09066e-07
2.12199e-07
2.1521e-07
2.18088e-07
2.20821e-07
2.23393e-07
2.25798e-07
2.28032e-07
2.30088e-07
2.31961e-07
2.33642e-07
2.35126e-07
2.36409e-07
2.37484e-07
2.38349e-07
2.39001e-07
2.39436e-07
2.39654e-07
2.39654e-07
2.39436e-07
2.39001e-07
2.38349e-07
2.37484e-07
2.36409e-07
2.35126e-07
2.33642e-07
2.31961e-07
2.30088e-07
2.28032e-07
2.25798e-07
2.23393e-07
2.20821e-07
2.18088e-07
2.1521e-07
2.12199e-07
2.09066e-07
2.05823e-07
2.0248e-07
1.99048e-07
1.44609e-07
1.4766e-07
1.50658e-07
1.53609e-07
1.56495e-07
1.59321e-07
1.62079e-07
1.64759e-07
1.67352e-07
1.69848e-07
1.72237e-07
1.7451e-07
1.76652e-07
1.78657e-07
1.80522e-07
1.82241e-07
1.83807e-07
1.85215e-07
1.86459e-07
1.87534e-07
1.88437e-07
1.89163e-07
1.8971e-07
1.90076e-07
1.9026e-07
1.9026e-07
1.90076e-07
1.8971e-07
1.89163e-07
1.88437e-07
1.87534e-07
1.86459e-07
1.85215e-07
1.83807e-07
1.82241e-07
1.80522e-07
1.78657e-07
1.76652e-07
1.7451e-07
1.72237e-07
1.69848e-07
1.67352e-07
1.64759e-07
1.62079e-07
1.59321e-07
1.56495e-07
1.53608e-07
1.09952e-07
1.12349e-07
1.14707e-07
1.17032e-07
1.1931e-07
1.21544e-07
1.23727e-07
1.25852e-07
1.2791e-07
1.29895e-07
1.31797e-07
1.33609e-07
1.35318e-07
1.3692e-07
1.38412e-07
1.39789e-07
1.41044e-07
1.42173e-07
1.43172e-07
1.44036e-07
1.44761e-07
1.45345e-07
1.45785e-07
1.46079e-07
1.46227e-07
1.46227e-07
1.46079e-07
1.45785e-07
1.45345e-07
1.44761e-07
1.44036e-07
1.43172e-07
1.42173e-07
1.41044e-07
1.39789e-07
1.38412e-07
1.3692e-07
1.35318e-07
1.33609e-07
1.31797e-07
1.29895e-07
1.2791e-07
1.25852e-07
1.23727e-07
1.21544e-07
1.1931e-07
1.17032e-07
8.08499e-08
8.26542e-08
8.44305e-08
8.61842e-08
8.79048e-08
8.9594e-08
9.1247e-08
9.28578e-08
9.44201e-08
9.59278e-08
9.73746e-08
9.87541e-08
1.00057e-07
1.01279e-07
1.02418e-07
1.0347e-07
1.0443e-07
1.05294e-07
1.06059e-07
1.06721e-07
1.07277e-07
1.07724e-07
1.08062e-07
1.08288e-07
1.08401e-07
1.08401e-07
1.08288e-07
1.08062e-07
1.07724e-07
1.07277e-07
1.06721e-07
1.06059e-07
1.05294e-07
1.0443e-07
1.0347e-07
1.02418e-07
1.01279e-07
1.00057e-07
9.87541e-08
9.73746e-08
9.59278e-08
9.44201e-08
9.28577e-08
9.1247e-08
8.9594e-08
8.79048e-08
8.61842e-08
5.72422e-08
5.85384e-08
5.98152e-08
6.10768e-08
6.23158e-08
6.35333e-08
6.47257e-08
6.58887e-08
6.70177e-08
6.81081e-08
6.91553e-08
7.01545e-08
7.10989e-08
7.19855e-08
7.28125e-08
7.35765e-08
7.42742e-08
7.49027e-08
7.54589e-08
7.59405e-08
7.63453e-08
7.66713e-08
7.69172e-08
7.70817e-08
7.71641e-08
7.71641e-08
7.70817e-08
7.69171e-08
7.66713e-08
7.63453e-08
7.59405e-08
7.54589e-08
7.49027e-08
7.42742e-08
7.35765e-08
7.28125e-08
7.19855e-08
7.10989e-08
7.01545e-08
6.91553e-08
6.81081e-08
6.70177e-08
6.58887e-08
6.47257e-08
6.35333e-08
6.23158e-08
6.10767e-08
3.8782e-08
3.9666e-08
4.0537e-08
4.1398e-08
4.22442e-08
4.30762e-08
4.38915e-08
4.46871e-08
4.54599e-08
4.62067e-08
4.69243e-08
4.76093e-08
4.82571e-08
4.88655e-08
4.94333e-08
4.9958e-08
5.04375e-08
5.08694e-08
5.12518e-08
5.1583e-08
5.18615e-08
5.20858e-08
5.2255e-08
5.23682e-08
5.24249e-08
5.24249e-08
5.23682e-08
5.2255e-08
5.20858e-08
5.18615e-08
5.1583e-08
5.12518e-08
5.08694e-08
5.04375e-08
4.9958e-08
4.94333e-08
4.88655e-08
4.82571e-08
4.76093e-08
4.69243e-08
4.62067e-08
4.54599e-08
4.46871e-08
4.38915e-08
4.30762e-08
4.22442e-08
4.1398e-08
2.49168e-08
2.54845e-08
2.60437e-08
2.65967e-08
2.71403e-08
2.7675e-08
2.8199e-08
2.87106e-08
2.92076e-08
2.96881e-08
3.01499e-08
3.05908e-08
3.10079e-08
3.13998e-08
3.17655e-08
3.21036e-08
3.24126e-08
3.26911e-08
3.29376e-08
3.31512e-08
3.33307e-08
3.34754e-08
3.35845e-08
3.36576e-08
3.36942e-08
3.36942e-08
3.36576e-08
3.35845e-08
3.34754e-08
3.33307e-08
3.31512e-08
3.29376e-08
3.2691e-08
3.24126e-08
3.21036e-08
3.17655e-08
3.13998e-08
3.10079e-08
3.05908e-08
3.01499e-08
2.96881e-08
2.92076e-08
2.87106e-08
2.8199e-08
2.7675e-08
2.71403e-08
2.65967e-08
2.60437e-08
1.49753e-08
1.5314e-08
1.56475e-08
1.59772e-08
1.63014e-08
1.66202e-08
1.69327e-08
1.72378e-08
1.75343e-08
1.78209e-08
1.80963e-08
1.83594e-08
1.86082e-08
1.8842e-08
1.90603e-08
1.9262e-08
1.94464e-08
1.96126e-08
1.97597e-08
1.98872e-08
1.99944e-08
2.00807e-08
2.01459e-08
2.01895e-08
2.02113e-08
2.02113e-08
2.01895e-08
2.01459e-08
2.00807e-08
1.99944e-08
1.98872e-08
1.97597e-08
1.96126e-08
1.94464e-08
1.9262e-08
1.90603e-08
1.8842e-08
1.86082e-08
1.83594e-08
1.80963e-08
1.78209e-08
1.75343e-08
1.72378e-08
1.69327e-08
1.66202e-08
1.63014e-08
1.59772e-08
1.56474e-08
8.24181e-09
8.42542e-09
8.60606e-09
8.78465e-09
8.96016e-09
9.13274e-09
9.30189e-09
9.46699e-09
9.6274e-09
9.78244e-09
9.93146e-09
1.00737e-08
1.02083e-08
1.03347e-08
1.04527e-08
1.05618e-08
1.06615e-08
1.07513e-08
1.08309e-08
1.08998e-08
1.09577e-08
1.10044e-08
1.10396e-08
1.10632e-08
1.1075e-08
1.1075e-08
1.10632e-08
1.10396e-08
1.10044e-08
1.09577e-08
1.08998e-08
1.08309e-08
1.07513e-08
1.06615e-08
1.05618e-08
1.04527e-08
1.03347e-08
1.02083e-08
1.00737e-08
9.93145e-09
9.78244e-09
9.62739e-09
9.46699e-09
9.30189e-09
9.13274e-09
8.96015e-09
8.78465e-09
8.60606e-09
4.01083e-09
4.09792e-09
4.18351e-09
4.26807e-09
4.35113e-09
4.43277e-09
4.51276e-09
4.59081e-09
4.6666e-09
4.73984e-09
4.81021e-09
4.87739e-09
4.9409e-09
5.00054e-09
5.0562e-09
5.10764e-09
5.15463e-09
5.19698e-09
5.23447e-09
5.26694e-09
5.29424e-09
5.31624e-09
5.33282e-09
5.34393e-09
5.34949e-09
5.34949e-09
5.34393e-09
5.33282e-09
5.31624e-09
5.29424e-09
5.26694e-09
5.23447e-09
5.19698e-09
5.15463e-09
5.10763e-09
5.0562e-09
5.00054e-09
4.9409e-09
4.87739e-09
4.81021e-09
4.73984e-09
4.6666e-09
4.5908e-09
4.51276e-09
4.43277e-09
4.35113e-09
4.26807e-09
4.1835e-09
1.62236e-09
1.65608e-09
1.68916e-09
1.72181e-09
1.75385e-09
1.78532e-09
1.81612e-09
1.84616e-09
1.87532e-09
1.90347e-09
1.93051e-09
1.9563e-09
1.98067e-09
2.00355e-09
2.02488e-09
2.04459e-09
2.0626e-09
2.07881e-09
2.09316e-09
2.10559e-09
2.11604e-09
2.12445e-09
2.1308e-09
2.13504e-09
2.13717e-09
2.13717e-09
2.13504e-09
2.1308e-09
2.12445e-09
2.11604e-09
2.10559e-09
2.09316e-09
2.07881e-09
2.0626e-09
2.04459e-09
2.02488e-09
2.00355e-09
1.98067e-09
1.9563e-09
1.93051e-09
1.90347e-09
1.87532e-09
1.84616e-09
1.81612e-09
1.78532e-09
1.75385e-09
1.72181e-09
1.68915e-09
4.82927e-10
4.92165e-10
5.01199e-10
5.10101e-10
5.18819e-10
5.27369e-10
5.35728e-10
5.43869e-10
5.51761e-10
5.59373e-10
5.66675e-10
5.73634e-10
5.80201e-10
5.86358e-10
5.92095e-10
5.97392e-10
6.02227e-10
6.06579e-10
6.10429e-10
6.13761e-10
6.1656e-10
6.18815e-10
6.20514e-10
6.21652e-10
6.22222e-10
6.22221e-10
6.21652e-10
6.20514e-10
6.18815e-10
6.1656e-10
6.13761e-10
6.10429e-10
6.06579e-10
6.02227e-10
5.97392e-10
5.92095e-10
5.86358e-10
5.80201e-10
5.73634e-10
5.66675e-10
5.59373e-10
5.51761e-10
5.43869e-10
5.35728e-10
5.27369e-10
5.18819e-10
5.10101e-10
5.01199e-10
8.01311e-11
8.13919e-11
8.26164e-11
8.38184e-11
8.49904e-11
8.61361e-11
8.72531e-11
8.8338e-11
8.93871e-11
9.03966e-11
9.13627e-11
9.22814e-11
9.31458e-11
9.39543e-11
9.47064e-11
9.53996e-11
9.60314e-11
9.65993e-11
9.71013e-11
9.75352e-11
9.78995e-11
9.81927e-11
9.84135e-11
9.85613e-11
9.86353e-11
9.86353e-11
9.85613e-11
9.84135e-11
9.81926e-11
9.78995e-11
9.75352e-11
9.71013e-11
9.65993e-11
9.60314e-11
9.53996e-11
9.47064e-11
9.39543e-11
9.31458e-11
9.22814e-11
9.13627e-11
9.03966e-11
8.93871e-11
8.8338e-11
8.72531e-11
8.61361e-11
8.49904e-11
8.38184e-11
8.26164e-11
3.5371e-12
3.56705e-12
3.59548e-12
3.62308e-12
3.64964e-12
3.6754e-12
3.70037e-12
3.72448e-12
3.74768e-12
3.76988e-12
3.79104e-12
3.81105e-12
3.82972e-12
3.84707e-12
3.86314e-12
3.87791e-12
3.89133e-12
3.90336e-12
3.91397e-12
3.92312e-12
3.93079e-12
3.93696e-12
3.9416e-12
3.9447e-12
3.94625e-12
3.94625e-12
3.9447e-12
3.9416e-12
3.93696e-12
3.93079e-12
3.92312e-12
3.91397e-12
3.90336e-12
3.89133e-12
3.87791e-12
3.86314e-12
3.84707e-12
3.82972e-12
3.81105e-12
3.79104e-12
3.76988e-12
3.74768e-12
3.72448e-12
3.70037e-12
3.6754e-12
3.64964e-12
3.62308e-12
3.59548e-12
1.29393e-06
1.28462e-06
1.27464e-06
1.26396e-06
1.25255e-06
1.24034e-06
1.22731e-06
1.21339e-06
1.19853e-06
1.18267e-06
1.16575e-06
1.14771e-06
1.12847e-06
1.10796e-06
1.08609e-06
1.06279e-06
1.03797e-06
1.01153e-06
9.83393e-07
9.53463e-07
9.21653e-07
8.8788e-07
8.5207e-07
8.14159e-07
7.74097e-07
7.31813e-07
6.87244e-07
6.4042e-07
5.91476e-07
5.40656e-07
4.88342e-07
4.35078e-07
3.8158e-07
3.28736e-07
2.77567e-07
2.29158e-07
1.84546e-07
1.44609e-07
1.09952e-07
8.08499e-08
5.72422e-08
3.8782e-08
2.49168e-08
1.49753e-08
8.24181e-09
4.01083e-09
1.62236e-09
4.82927e-10
8.01311e-11
3.5371e-12
1.29617e-06
1.28699e-06
1.27716e-06
1.26663e-06
1.25536e-06
1.24331e-06
1.23044e-06
1.21668e-06
1.20199e-06
1.18631e-06
1.16957e-06
1.15171e-06
1.13266e-06
1.11234e-06
1.09067e-06
1.06757e-06
1.04295e-06
1.01671e-06
9.88779e-07
9.59049e-07
9.27434e-07
8.93848e-07
8.58213e-07
8.20464e-07
7.80545e-07
7.38392e-07
6.93928e-07
6.47168e-07
5.98234e-07
5.47358e-07
4.94907e-07
4.41412e-07
3.8758e-07
3.34296e-07
2.82589e-07
2.3356e-07
1.88279e-07
1.4766e-07
1.12349e-07
8.26542e-08
5.85384e-08
3.9666e-08
2.54845e-08
1.5314e-08
8.42542e-09
4.09792e-09
1.65608e-09
4.92165e-10
8.13919e-11
3.56705e-12
1.29826e-06
1.28922e-06
1.27952e-06
1.26913e-06
1.25801e-06
1.24611e-06
1.23339e-06
1.2198e-06
1.20527e-06
1.18976e-06
1.1732e-06
1.15552e-06
1.13665e-06
1.11651e-06
1.09504e-06
1.07213e-06
1.0477e-06
1.02167e-06
9.93931e-07
9.64397e-07
9.32973e-07
8.99571e-07
8.6411e-07
8.2652e-07
7.86744e-07
7.44723e-07
7.00368e-07
6.53678e-07
6.04763e-07
5.53842e-07
5.01269e-07
4.4756e-07
3.93415e-07
3.39715e-07
2.87493e-07
2.37868e-07
1.9194e-07
1.50658e-07
1.14707e-07
8.44305e-08
5.98152e-08
4.0537e-08
2.60437e-08
1.56475e-08
8.60606e-09
4.18351e-09
1.68916e-09
5.01199e-10
8.26164e-11
3.59548e-12
1.30021e-06
1.2913e-06
1.28174e-06
1.27149e-06
1.26051e-06
1.24876e-06
1.23619e-06
1.22275e-06
1.20838e-06
1.19303e-06
1.17664e-06
1.15913e-06
1.14044e-06
1.12049e-06
1.0992e-06
1.07649e-06
1.05225e-06
1.02641e-06
9.98867e-07
9.69524e-07
9.38288e-07
9.05068e-07
8.69778e-07
8.32347e-07
7.92714e-07
7.50827e-07
7.06582e-07
6.59967e-07
6.1108e-07
5.60124e-07
5.07443e-07
4.53538e-07
3.991e-07
3.45004e-07
2.9229e-07
2.42093e-07
1.95537e-07
1.53608e-07
1.17032e-07
8.61842e-08
6.10768e-08
4.1398e-08
2.65967e-08
1.59772e-08
8.78465e-09
4.26807e-09
1.72181e-09
5.10101e-10
8.38184e-11
3.62308e-12
1.30204e-06
1.29326e-06
1.28382e-06
1.2737e-06
1.26286e-06
1.25125e-06
1.23883e-06
1.22553e-06
1.21132e-06
1.19613e-06