/*--------------------------------*- C++ -*----------------------------------*\
  =========                 |
  \\      /  F ield         | OpenFOAM: The Open Source CFD Toolbox
   \\    /   O peration     | Website:  https://openfoam.org
    \\  /    A nd           | Version:  7
     \\/     M anipulation  |
\*---------------------------------------------------------------------------*/
FoamFile
{
    version     2.0;
    format      ascii;
    class       volScalarField;
    location    "272000";
    object      p;
}
// * * * * * * * * * * * * * * * * * * * * * * * * * * * * * * * * * * * * * //

dimensions      [0 2 -2 0 0 0 0];

internalField   nonuniform List<scalar> 
4814
(
-2.22426e-18
-2.21959e-18
-2.22175e-18
-2.21674e-18
-2.21788e-18
-2.21594e-18
-2.22266e-18
-2.22011e-18
-2.21409e-18
-2.21041e-18
-2.22003e-18
-2.21118e-18
-2.21189e-18
-2.21074e-18
-2.22133e-18
-2.20796e-18
-2.21662e-18
-2.21183e-18
-2.22699e-18
-2.21735e-18
-2.22439e-18
-2.21522e-18
-2.21851e-18
-2.20664e-18
-2.2152e-18
-2.20155e-18
-2.20283e-18
-2.19117e-18
-2.18954e-18
-2.17981e-18
-2.17488e-18
-2.16507e-18
-2.16078e-18
-2.15341e-18
-2.14256e-18
-2.13307e-18
-2.12238e-18
-2.10814e-18
-2.22361e-18
-2.21251e-18
-2.22297e-18
-2.21542e-18
-2.21453e-18
-2.21709e-18
-2.21441e-18
-2.20725e-18
-2.21359e-18
-2.20945e-18
-2.22189e-18
-2.20334e-18
-2.22256e-18
-2.21499e-18
-2.22738e-18
-2.21689e-18
-2.22403e-18
-2.2158e-18
-2.21794e-18
-2.20721e-18
-2.21601e-18
-2.2032e-18
-2.20323e-18
-2.19128e-18
-2.18758e-18
-2.1798e-18
-2.1764e-18
-2.16545e-18
-2.1585e-18
-2.15228e-18
-2.14484e-18
-2.13285e-18
-2.12115e-18
-2.1079e-18
-2.10008e-18
-2.08384e-18
-2.08206e-18
-2.06758e-18
-2.0687e-18
-2.06658e-18
-2.0615e-18
-2.22259e-18
-2.21523e-18
-2.21997e-18
-2.21335e-18
-2.21409e-18
-2.21507e-18
-2.21382e-18
-2.20711e-18
-2.20892e-18
-2.21044e-18
-2.22025e-18
-2.2042e-18
-2.22646e-18
-2.21563e-18
-2.22462e-18
-2.21575e-18
-2.22317e-18
-2.21335e-18
-2.21805e-18
-2.20648e-18
-2.21601e-18
-2.20476e-18
-2.20339e-18
-2.19225e-18
-2.18958e-18
-2.17918e-18
-2.17493e-18
-2.1658e-18
-2.15925e-18
-2.15177e-18
-2.1456e-18
-2.13353e-18
-2.12233e-18
-2.10822e-18
-2.10078e-18
-2.08577e-18
-2.08654e-18
-2.06332e-18
-2.0717e-18
-2.068e-18
-2.0618e-18
-2.05901e-18
-2.06142e-18
-2.05434e-18
-2.217e-18
-2.21812e-18
-2.21819e-18
-2.21822e-18
-2.21477e-18
-2.21115e-18
-2.21805e-18
-2.21031e-18
-2.2072e-18
-2.21507e-18
-2.21963e-18
-2.2083e-18
-2.22123e-18
-2.21501e-18
-2.22519e-18
-2.21457e-18
-2.22327e-18
-2.21262e-18
-2.21648e-18
-2.20946e-18
-2.21642e-18
-2.2036e-18
-2.20271e-18
-2.1914e-18
-2.19129e-18
-2.17736e-18
-2.17469e-18
-2.16613e-18
-2.16058e-18
-2.15244e-18
-2.14462e-18
-2.13506e-18
-2.12293e-18
-2.10792e-18
-2.10208e-18
-2.08729e-18
-2.08556e-18
-2.07194e-18
-2.06896e-18
-2.06711e-18
-2.06237e-18
-2.06285e-18
-2.05709e-18
-2.05101e-18
-2.22004e-18
-2.21505e-18
-2.2205e-18
-2.21676e-18
-2.21653e-18
-2.2048e-18
-2.2151e-18
-2.20513e-18
-2.20934e-18
-2.21293e-18
-2.22077e-18
-2.21108e-18
-2.21929e-18
-2.21631e-18
-2.23065e-18
-2.21616e-18
-2.2212e-18
-2.21497e-18
-2.21672e-18
-2.20916e-18
-2.21633e-18
-2.20556e-18
-2.20325e-18
-2.19052e-18
-2.19103e-18
-2.17841e-18
-2.17448e-18
-2.16615e-18
-2.16018e-18
-2.15251e-18
-2.14424e-18
-2.13429e-18
-2.12238e-18
-2.10957e-18
-2.09971e-18
-2.08504e-18
-2.08182e-18
-2.07357e-18
-2.07049e-18
-2.06709e-18
-2.06457e-18
-2.06054e-18
-2.05948e-18
-2.05301e-18
-2.22015e-18
-2.21226e-18
-2.21883e-18
-2.21665e-18
-2.2135e-18
-2.20974e-18
-2.21418e-18
-2.20244e-18
-2.21497e-18
-2.21163e-18
-2.22114e-18
-2.21015e-18
-2.22157e-18
-2.21779e-18
-2.22782e-18
-2.21485e-18
-2.22283e-18
-2.21361e-18
-2.21839e-18
-2.20713e-18
-2.21578e-18
-2.2038e-18
-2.20495e-18
-2.19156e-18
-2.19055e-18
-2.17995e-18
-2.17543e-18
-2.16531e-18
-2.16147e-18
-2.15427e-18
-2.14164e-18
-2.13382e-18
-2.12325e-18
-2.10867e-18
-2.10102e-18
-2.08806e-18
-2.07929e-18
-2.07128e-18
-2.07062e-18
-2.06597e-18
-2.0651e-18
-2.05447e-18
-2.06157e-18
-2.05256e-18
-2.21952e-18
-2.21717e-18
-2.22135e-18
-2.21654e-18
-2.21158e-18
-2.20957e-18
-2.21309e-18
-2.20447e-18
-2.2102e-18
-2.21137e-18
-2.22239e-18
-2.21076e-18
-2.22709e-18
-2.21484e-18
-2.22516e-18
-2.21537e-18
-2.21989e-18
-2.21141e-18
-2.21846e-18
-2.20752e-18
-2.21698e-18
-2.20312e-18
-2.20421e-18
-2.19253e-18
-2.19013e-18
-2.18088e-18
-2.17528e-18
-2.16419e-18
-2.1622e-18
-2.15273e-18
-2.14264e-18
-2.13474e-18
-2.12357e-18
-2.11021e-18
-2.10042e-18
-2.09071e-18
-2.08357e-18
-2.07251e-18
-2.06995e-18
-2.06353e-18
-2.06247e-18
-2.05695e-18
-2.06077e-18
-2.05241e-18
-2.05215e-18
-2.21816e-18
-2.21793e-18
-2.22284e-18
-2.21365e-18
-2.21376e-18
-2.20709e-18
-2.21335e-18
-2.20639e-18
-2.20814e-18
-2.2116e-18
-2.225e-18
-2.20915e-18
-2.22366e-18
-2.2153e-18
-2.22793e-18
-2.2145e-18
-2.22318e-18
-2.21371e-18
-2.21834e-18
-2.20861e-18
-2.21691e-18
-2.20185e-18
-2.20409e-18
-2.1937e-18
-2.19055e-18
-2.18259e-18
-2.17543e-18
-2.16601e-18
-2.16161e-18
-2.15203e-18
-2.14226e-18
-2.13458e-18
-2.12443e-18
-2.10771e-18
-2.09983e-18
-2.08722e-18
-2.08301e-18
-2.07184e-18
-2.07351e-18
-2.06165e-18
-2.06199e-18
-2.05985e-18
-2.05927e-18
-2.0512e-18
-2.05512e-18
-2.21729e-18
-2.2189e-18
-2.22153e-18
-2.2145e-18
-2.21442e-18
-2.20386e-18
-2.21115e-18
-2.20345e-18
-2.20891e-18
-2.21127e-18
-2.22283e-18
-2.21256e-18
-2.22119e-18
-2.22081e-18
-2.22816e-18
-2.21538e-18
-2.22387e-18
-2.21539e-18
-2.22167e-18
-2.20986e-18
-2.21564e-18
-2.20184e-18
-2.20271e-18
-2.19377e-18
-2.19047e-18
-2.18241e-18
-2.17664e-18
-2.16671e-18
-2.16131e-18
-2.15213e-18
-2.14241e-18
-2.13183e-18
-2.12244e-18
-2.10808e-18
-2.09773e-18
-2.08557e-18
-2.07889e-18
-2.0719e-18
-2.07014e-18
-2.06562e-18
-2.06331e-18
-2.05914e-18
-2.06061e-18
-2.05398e-18
-2.05589e-18
-2.21831e-18
-2.21651e-18
-2.22027e-18
-2.21627e-18
-2.21233e-18
-2.20576e-18
-2.21126e-18
-2.202e-18
-2.2109e-18
-2.21166e-18
-2.22055e-18
-2.21207e-18
-2.22256e-18
-2.22038e-18
-2.22821e-18
-2.21589e-18
-2.22563e-18
-2.21341e-18
-2.22042e-18
-2.2077e-18
-2.215e-18
-2.2028e-18
-2.20422e-18
-2.19331e-18
-2.19041e-18
-2.18121e-18
-2.17655e-18
-2.16636e-18
-2.15951e-18
-2.15249e-18
-2.14435e-18
-2.13271e-18
-2.1233e-18
-2.10691e-18
-2.09896e-18
-2.08647e-18
-2.0799e-18
-2.07118e-18
-2.06835e-18
-2.06724e-18
-2.06312e-18
-2.05793e-18
-2.06169e-18
-2.05373e-18
-2.05458e-18
-2.21628e-18
-2.21672e-18
-2.2213e-18
-2.21634e-18
-2.21336e-18
-2.20769e-18
-2.21333e-18
-2.20364e-18
-2.20999e-18
-2.21081e-18
-2.21912e-18
-2.21298e-18
-2.22151e-18
-2.21919e-18
-2.22342e-18
-2.21557e-18
-2.22496e-18
-2.21511e-18
-2.22027e-18
-2.20626e-18
-2.21495e-18
-2.20319e-18
-2.203e-18
-2.19258e-18
-2.19063e-18
-2.18102e-18
-2.17799e-18
-2.16675e-18
-2.1595e-18
-2.15333e-18
-2.145e-18
-2.13206e-18
-2.12145e-18
-2.1082e-18
-2.10191e-18
-2.09052e-18
-2.08113e-18
-2.07144e-18
-2.06904e-18
-2.06593e-18
-2.06439e-18
-2.05864e-18
-2.06016e-18
-2.05e-18
-2.22214e-18
-2.21984e-18
-2.21903e-18
-2.21596e-18
-2.21231e-18
-2.20525e-18
-2.21203e-18
-2.20506e-18
-2.20713e-18
-2.21336e-18
-2.22061e-18
-2.21145e-18
-2.2229e-18
-2.21705e-18
-2.22383e-18
-2.21639e-18
-2.22246e-18
-2.21358e-18
-2.22069e-18
-2.20694e-18
-2.21546e-18
-2.20279e-18
-2.20185e-18
-2.19305e-18
-2.19136e-18
-2.18178e-18
-2.17772e-18
-2.16687e-18
-2.1607e-18
-2.15319e-18
-2.14494e-18
-2.13118e-18
-2.12279e-18
-2.10968e-18
-2.10192e-18
-2.09158e-18
-2.08497e-18
-2.07285e-18
-2.07303e-18
-2.06511e-18
-2.06117e-18
-2.06048e-18
-2.05766e-18
-2.05414e-18
-2.22337e-18
-2.22145e-18
-2.21837e-18
-2.21091e-18
-2.21442e-18
-2.20519e-18
-2.21352e-18
-2.20448e-18
-2.20957e-18
-2.2124e-18
-2.22224e-18
-2.21219e-18
-2.22629e-18
-2.22038e-18
-2.22662e-18
-2.21738e-18
-2.22078e-18
-2.21345e-18
-2.22023e-18
-2.20777e-18
-2.2151e-18
-2.20306e-18
-2.20219e-18
-2.19372e-18
-2.19092e-18
-2.18226e-18
-2.17725e-18
-2.16792e-18
-2.15997e-18
-2.15235e-18
-2.14442e-18
-2.13172e-18
-2.12388e-18
-2.10968e-18
-2.10124e-18
-2.0898e-18
-2.08232e-18
-2.07094e-18
-2.07256e-18
-2.06408e-18
-2.06169e-18
-2.05829e-18
-2.05931e-18
-2.05176e-18
-2.22181e-18
-2.21862e-18
-2.21807e-18
-2.21354e-18
-2.2138e-18
-2.20727e-18
-2.21239e-18
-2.20188e-18
-2.21041e-18
-2.2101e-18
-2.2212e-18
-2.21271e-18
-2.22617e-18
-2.21973e-18
-2.22758e-18
-2.21852e-18
-2.22147e-18
-2.21601e-18
-2.21802e-18
-2.20873e-18
-2.21367e-18
-2.20307e-18
-2.20162e-18
-2.1932e-18
-2.19028e-18
-2.18272e-18
-2.17727e-18
-2.16732e-18
-2.16042e-18
-2.15131e-18
-2.14278e-18
-2.13165e-18
-2.12176e-18
-2.10853e-18
-2.09945e-18
-2.0893e-18
-2.08123e-18
-2.0714e-18
-2.07214e-18
-2.06305e-18
-2.06398e-18
-2.0587e-18
-2.05896e-18
-2.05198e-18
-2.22217e-18
-2.21608e-18
-2.21978e-18
-2.21377e-18
-2.21481e-18
-2.20606e-18
-2.21038e-18
-2.20563e-18
-2.21038e-18
-2.20913e-18
-2.22091e-18
-2.21402e-18
-2.22391e-18
-2.21652e-18
-2.22911e-18
-2.21626e-18
-2.22206e-18
-2.2187e-18
-2.21892e-18
-2.20794e-18
-2.21233e-18
-2.20337e-18
-2.20335e-18
-2.1929e-18
-2.18923e-18
-2.1817e-18
-2.17742e-18
-2.16651e-18
-2.16031e-18
-2.15029e-18
-2.14243e-18
-2.13102e-18
-2.11994e-18
-2.10828e-18
-2.10192e-18
-2.08793e-18
-2.08392e-18
-2.07346e-18
-2.06935e-18
-2.06245e-18
-2.06536e-18
-2.05854e-18
-2.05811e-18
-2.05349e-18
-2.22132e-18
-2.22045e-18
-2.21812e-18
-2.21652e-18
-2.2153e-18
-2.2096e-18
-2.21053e-18
-2.20726e-18
-2.21237e-18
-2.21005e-18
-2.22122e-18
-2.21429e-18
-2.22658e-18
-2.21537e-18
-2.22737e-18
-2.21637e-18
-2.22147e-18
-2.21687e-18
-2.21875e-18
-2.20821e-18
-2.21217e-18
-2.20342e-18
-2.20255e-18
-2.19379e-18
-2.18888e-18
-2.18125e-18
-2.1765e-18
-2.16799e-18
-2.1601e-18
-2.15168e-18
-2.14308e-18
-2.13128e-18
-2.12325e-18
-2.10964e-18
-2.09917e-18
-2.08634e-18
-2.0842e-18
-2.07107e-18
-2.069e-18
-2.06321e-18
-2.06516e-18
-2.05668e-18
-2.05708e-18
-2.05497e-18
-2.22109e-18
-2.22057e-18
-2.21778e-18
-2.21681e-18
-2.2135e-18
-2.2085e-18
-2.21352e-18
-2.20568e-18
-2.21289e-18
-2.20762e-18
-2.22065e-18
-2.21479e-18
-2.22427e-18
-2.21958e-18
-2.22752e-18
-2.2157e-18
-2.22272e-18
-2.21485e-18
-2.21821e-18
-2.20884e-18
-2.21385e-18
-2.20387e-18
-2.20138e-18
-2.19347e-18
-2.19014e-18
-2.18122e-18
-2.17646e-18
-2.16847e-18
-2.16054e-18
-2.15167e-18
-2.14362e-18
-2.13151e-18
-2.1226e-18
-2.10853e-18
-2.10154e-18
-2.08519e-18
-2.08035e-18
-2.07297e-18
-2.06969e-18
-2.06813e-18
-2.06642e-18
-2.05546e-18
-2.05822e-18
-2.05068e-18
-2.22142e-18
-2.21994e-18
-2.21821e-18
-2.21547e-18
-2.21485e-18
-2.20769e-18
-2.21312e-18
-2.2042e-18
-2.20949e-18
-2.20947e-18
-2.22006e-18
-2.21393e-18
-2.2252e-18
-2.2197e-18
-2.22772e-18
-2.21712e-18
-2.22276e-18
-2.21654e-18
-2.21753e-18
-2.20952e-18
-2.21277e-18
-2.20325e-18
-2.20314e-18
-2.19264e-18
-2.19056e-18
-2.18119e-18
-2.17737e-18
-2.16729e-18
-2.16065e-18
-2.15103e-18
-2.14343e-18
-2.13203e-18
-2.12055e-18
-2.10835e-18
-2.10042e-18
-2.08737e-18
-2.07975e-18
-2.07358e-18
-2.07216e-18
-2.06703e-18
-2.06461e-18
-2.0578e-18
-2.05906e-18
-2.05092e-18
-2.22202e-18
-2.21942e-18
-2.2203e-18
-2.21266e-18
-2.21261e-18
-2.20867e-18
-2.21335e-18
-2.20472e-18
-2.20917e-18
-2.21201e-18
-2.21953e-18
-2.21315e-18
-2.22712e-18
-2.21791e-18
-2.2274e-18
-2.21796e-18
-2.22303e-18
-2.21696e-18
-2.21758e-18
-2.20825e-18
-2.21285e-18
-2.20273e-18
-2.20319e-18
-2.1926e-18
-2.1905e-18
-2.18113e-18
-2.17667e-18
-2.16714e-18
-2.16078e-18
-2.15021e-18
-2.14366e-18
-2.13205e-18
-2.12194e-18
-2.10777e-18
-2.09944e-18
-2.08731e-18
-2.08199e-18
-2.07279e-18
-2.07224e-18
-2.06711e-18
-2.06285e-18
-2.05717e-18
-2.05866e-18
-2.05277e-18
-2.22163e-18
-2.21944e-18
-2.21992e-18
-2.21336e-18
-2.2091e-18
-2.20686e-18
-2.21251e-18
-2.20482e-18
-2.21119e-18
-2.21231e-18
-2.22131e-18
-2.21515e-18
-2.22451e-18
-2.21631e-18
-2.2258e-18
-2.21805e-18
-2.22304e-18
-2.21668e-18
-2.21748e-18
-2.20832e-18
-2.21278e-18
-2.20276e-18
-2.20317e-18
-2.19361e-18
-2.19026e-18
-2.18107e-18
-2.17639e-18
-2.16726e-18
-2.1611e-18
-2.15055e-18
-2.14246e-18
-2.13138e-18
-2.12118e-18
-2.10719e-18
-2.09879e-18
-2.0879e-18
-2.08323e-18
-2.07437e-18
-2.07073e-18
-2.06588e-18
-2.06079e-18
-2.05792e-18
-2.05812e-18
-2.0519e-18
-2.22091e-18
-2.21971e-18
-2.21749e-18
-2.21638e-18
-2.21157e-18
-2.20659e-18
-2.21119e-18
-2.20559e-18
-2.211e-18
-2.21051e-18
-2.22162e-18
-2.2144e-18
-2.22487e-18
-2.21847e-18
-2.22477e-18
-2.21673e-18
-2.22262e-18
-2.21407e-18
-2.21805e-18
-2.20873e-18
-2.21174e-18
-2.20324e-18
-2.20263e-18
-2.19363e-18
-2.19024e-18
-2.18099e-18
-2.17707e-18
-2.16729e-18
-2.16041e-18
-2.15172e-18
-2.14233e-18
-2.13036e-18
-2.12129e-18
-2.10763e-18
-2.09807e-18
-2.08918e-18
-2.08188e-18
-2.0746e-18
-2.07201e-18
-2.06523e-18
-2.06275e-18
-2.05793e-18
-2.05707e-18
-2.05372e-18
-2.05601e-18
-2.22078e-18
-2.22031e-18
-2.21849e-18
-2.21426e-18
-2.21303e-18
-2.20604e-18
-2.21175e-18
-2.20562e-18
-2.21023e-18
-2.20996e-18
-2.22074e-18
-2.21319e-18
-2.22386e-18
-2.21929e-18
-2.22577e-18
-2.21853e-18
-2.22163e-18
-2.2142e-18
-2.21749e-18
-2.20936e-18
-2.21338e-18
-2.20322e-18
-2.20267e-18
-2.19363e-18
-2.19114e-18
-2.18108e-18
-2.1773e-18
-2.16712e-18
-2.15965e-18
-2.15006e-18
-2.14113e-18
-2.13162e-18
-2.12223e-18
-2.10894e-18
-2.09702e-18
-2.08891e-18
-2.08128e-18
-2.07428e-18
-2.07255e-18
-2.0659e-18
-2.06326e-18
-2.05784e-18
-2.05684e-18
-2.05324e-18
-2.05561e-18
-2.2201e-18
-2.22081e-18
-2.22003e-18
-2.21496e-18
-2.21216e-18
-2.20425e-18
-2.21248e-18
-2.20495e-18
-2.21092e-18
-2.21065e-18
-2.21995e-18
-2.21443e-18
-2.22599e-18
-2.21799e-18
-2.226e-18
-2.21766e-18
-2.2214e-18
-2.21447e-18
-2.2168e-18
-2.20932e-18
-2.21273e-18
-2.20309e-18
-2.20283e-18
-2.19388e-18
-2.19082e-18
-2.18124e-18
-2.1771e-18
-2.16826e-18
-2.1604e-18
-2.14985e-18
-2.14127e-18
-2.13135e-18
-2.1227e-18
-2.10985e-18
-2.09858e-18
-2.08804e-18
-2.08215e-18
-2.0737e-18
-2.07215e-18
-2.06722e-18
-2.0635e-18
-2.05699e-18
-2.05804e-18
-2.05176e-18
-2.0581e-18
-2.22112e-18
-2.22122e-18
-2.21957e-18
-2.2143e-18
-2.21291e-18
-2.20486e-18
-2.21307e-18
-2.20444e-18
-2.21063e-18
-2.20976e-18
-2.21857e-18
-2.21469e-18
-2.22579e-18
-2.21736e-18
-2.2261e-18
-2.2177e-18
-2.22203e-18
-2.21454e-18
-2.21725e-18
-2.20825e-18
-2.21341e-18
-2.20252e-18
-2.20308e-18
-2.19351e-18
-2.1901e-18
-2.18113e-18
-2.17709e-18
-2.16793e-18
-2.16063e-18
-2.14938e-18
-2.14251e-18
-2.1305e-18
-2.12159e-18
-2.10923e-18
-2.09801e-18
-2.08802e-18
-2.08193e-18
-2.07436e-18
-2.07234e-18
-2.06816e-18
-2.06383e-18
-2.05744e-18
-2.05865e-18
-2.05102e-18
-2.0582e-18
-2.22225e-18
-2.21967e-18
-2.21862e-18
-2.21449e-18
-2.21167e-18
-2.20572e-18
-2.21144e-18
-2.20491e-18
-2.21068e-18
-2.20895e-18
-2.22009e-18
-2.21513e-18
-2.22502e-18
-2.21782e-18
-2.22545e-18
-2.21603e-18
-2.22251e-18
-2.21386e-18
-2.21674e-18
-2.20888e-18
-2.21346e-18
-2.20316e-18
-2.20288e-18
-2.19347e-18
-2.18967e-18
-2.18117e-18
-2.17734e-18
-2.1672e-18
-2.16038e-18
-2.14957e-18
-2.14193e-18
-2.13057e-18
-2.12221e-18
-2.10887e-18
-2.09897e-18
-2.08783e-18
-2.08212e-18
-2.07514e-18
-2.07143e-18
-2.06663e-18
-2.06462e-18
-2.05809e-18
-2.05888e-18
-2.05289e-18
-2.22183e-18
-2.22019e-18
-2.21936e-18
-2.21379e-18
-2.21129e-18
-2.20703e-18
-2.21146e-18
-2.20549e-18
-2.21097e-18
-2.21048e-18
-2.22099e-18
-2.2156e-18
-2.22568e-18
-2.21807e-18
-2.2247e-18
-2.21523e-18
-2.22162e-18
-2.21317e-18
-2.21737e-18
-2.20783e-18
-2.21199e-18
-2.20383e-18
-2.20231e-18
-2.19342e-18
-2.18973e-18
-2.18073e-18
-2.17712e-18
-2.1668e-18
-2.1603e-18
-2.14998e-18
-2.14225e-18
-2.12985e-18
-2.12228e-18
-2.10936e-18
-2.1006e-18
-2.0881e-18
-2.08253e-18
-2.07573e-18
-2.07162e-18
-2.06568e-18
-2.06448e-18
-2.05788e-18
-2.05792e-18
-2.05291e-18
-2.22191e-18
-2.21904e-18
-2.21891e-18
-2.2127e-18
-2.21122e-18
-2.2075e-18
-2.21278e-18
-2.20451e-18
-2.21004e-18
-2.20845e-18
-2.21885e-18
-2.21718e-18
-2.22666e-18
-2.21923e-18
-2.22528e-18
-2.21627e-18
-2.2214e-18
-2.21382e-18
-2.21719e-18
-2.20723e-18
-2.21233e-18
-2.20325e-18
-2.20253e-18
-2.19328e-18
-2.18958e-18
-2.18097e-18
-2.17701e-18
-2.16708e-18
-2.16061e-18
-2.14969e-18
-2.14241e-18
-2.12981e-18
-2.12154e-18
-2.10945e-18
-2.09973e-18
-2.08819e-18
-2.08153e-18
-2.07416e-18
-2.07138e-18
-2.06701e-18
-2.06343e-18
-2.05837e-18
-2.05823e-18
-2.05221e-18
-2.22153e-18
-2.21845e-18
-2.21909e-18
-2.21398e-18
-2.21242e-18
-2.20691e-18
-2.21169e-18
-2.20416e-18
-2.20992e-18
-2.20987e-18
-2.21968e-18
-2.2172e-18
-2.22595e-18
-2.21764e-18
-2.22587e-18
-2.21687e-18
-2.22101e-18
-2.21406e-18
-2.21705e-18
-2.20798e-18
-2.21226e-18
-2.2034e-18
-2.20241e-18
-2.19292e-18
-2.1896e-18
-2.18061e-18
-2.17699e-18
-2.16727e-18
-2.16027e-18
-2.14983e-18
-2.14179e-18
-2.13005e-18
-2.12141e-18
-2.10982e-18
-2.09868e-18
-2.08826e-18
-2.08318e-18
-2.07413e-18
-2.07156e-18
-2.06716e-18
-2.06242e-18
-2.05788e-18
-2.05819e-18
-2.05282e-18
-2.22155e-18
-2.22003e-18
-2.21914e-18
-2.21366e-18
-2.21307e-18
-2.20633e-18
-2.2123e-18
-2.20544e-18
-2.21021e-18
-2.20988e-18
-2.22069e-18
-2.21746e-18
-2.22625e-18
-2.2171e-18
-2.22573e-18
-2.21655e-18
-2.22072e-18
-2.21448e-18
-2.21736e-18
-2.20866e-18
-2.21209e-18
-2.20366e-18
-2.2028e-18
-2.19318e-18
-2.18936e-18
-2.18068e-18
-2.17657e-18
-2.1671e-18
-2.1603e-18
-2.15017e-18
-2.14121e-18
-2.12987e-18
-2.12178e-18
-2.10935e-18
-2.09911e-18
-2.08859e-18
-2.08342e-18
-2.07435e-18
-2.07194e-18
-2.06744e-18
-2.06317e-18
-2.05739e-18
-2.05791e-18
-2.0521e-18
-2.22185e-18
-2.21973e-18
-2.21908e-18
-2.21433e-18
-2.2129e-18
-2.20568e-18
-2.21192e-18
-2.20476e-18
-2.21032e-18
-2.21006e-18
-2.22093e-18
-2.2168e-18
-2.22644e-18
-2.21826e-18
-2.22467e-18
-2.21633e-18
-2.22099e-18
-2.214e-18
-2.21676e-18
-2.20922e-18
-2.21209e-18
-2.20305e-18
-2.20279e-18
-2.19302e-18
-2.18979e-18
-2.18066e-18
-2.17678e-18
-2.16694e-18
-2.16053e-18
-2.1501e-18
-2.14066e-18
-2.12988e-18
-2.12135e-18
-2.10923e-18
-2.09958e-18
-2.08877e-18
-2.08244e-18
-2.07397e-18
-2.07294e-18
-2.06727e-18
-2.06308e-18
-2.05735e-18
-2.0589e-18
-2.05214e-18
-2.22297e-18
-2.21958e-18
-2.22029e-18
-2.21379e-18
-2.21281e-18
-2.20669e-18
-2.21146e-18
-2.20527e-18
-2.21037e-18
-2.21051e-18
-2.22046e-18
-2.21547e-18
-2.22569e-18
-2.21806e-18
-2.22523e-18
-2.21622e-18
-2.22066e-18
-2.21366e-18
-2.21672e-18
-2.20918e-18
-2.21229e-18
-2.20306e-18
-2.20281e-18
-2.19298e-18
-2.18965e-18
-2.18063e-18
-2.17693e-18
-2.16721e-18
-2.16051e-18
-2.14965e-18
-2.14057e-18
-2.12976e-18
-2.12164e-18
-2.10947e-18
-2.10009e-18
-2.08831e-18
-2.0828e-18
-2.07395e-18
-2.07233e-18
-2.06764e-18
-2.06371e-18
-2.05718e-18
-2.05867e-18
-2.05253e-18
-2.22265e-18
-2.22027e-18
-2.21913e-18
-2.21319e-18
-2.21276e-18
-2.20673e-18
-2.21203e-18
-2.20487e-18
-2.21128e-18
-2.21018e-18
-2.22045e-18
-2.21578e-18
-2.22519e-18
-2.21715e-18
-2.22544e-18
-2.21592e-18
-2.22066e-18
-2.21419e-18
-2.21676e-18
-2.20911e-18
-2.21228e-18
-2.20312e-18
-2.20267e-18
-2.19305e-18
-2.18984e-18
-2.18065e-18
-2.17684e-18
-2.16728e-18
-2.16014e-18
-2.14928e-18
-2.14108e-18
-2.12994e-18
-2.12103e-18
-2.1094e-18
-2.09988e-18
-2.08827e-18
-2.08378e-18
-2.07543e-18
-2.07244e-18
-2.0676e-18
-2.06397e-18
-2.05683e-18
-2.05828e-18
-2.05296e-18
-2.22141e-18
-2.21997e-18
-2.21809e-18
-2.21334e-18
-2.21222e-18
-2.20651e-18
-2.21203e-18
-2.20475e-18
-2.21065e-18
-2.21002e-18
-2.22058e-18
-2.21581e-18
-2.22522e-18
-2.21765e-18
-2.22479e-18
-2.21565e-18
-2.22102e-18
-2.21345e-18
-2.21682e-18
-2.20841e-18
-2.21196e-18
-2.20282e-18
-2.2025e-18
-2.19282e-18
-2.18957e-18
-2.18083e-18
-2.177e-18
-2.16746e-18
-2.15975e-18
-2.14927e-18
-2.14135e-18
-2.12993e-18
-2.12153e-18
-2.10911e-18
-2.09957e-18
-2.08891e-18
-2.08362e-18
-2.07588e-18
-2.07272e-18
-2.06736e-18
-2.06412e-18
-2.05732e-18
-2.0589e-18
-2.05337e-18
-2.05764e-18
-2.22144e-18
-2.21947e-18
-2.21849e-18
-2.2138e-18
-2.21282e-18
-2.20565e-18
-2.21228e-18
-2.20459e-18
-2.21062e-18
-2.20968e-18
-2.21962e-18
-2.21532e-18
-2.22626e-18
-2.21825e-18
-2.22539e-18
-2.21611e-18
-2.22094e-18
-2.21273e-18
-2.2169e-18
-2.20804e-18
-2.21171e-18
-2.20273e-18
-2.20258e-18
-2.19273e-18
-2.18971e-18
-2.18083e-18
-2.17668e-18
-2.16725e-18
-2.15996e-18
-2.14932e-18
-2.14159e-18
-2.12989e-18
-2.1216e-18
-2.10907e-18
-2.0996e-18
-2.08817e-18
-2.08318e-18
-2.07496e-18
-2.07312e-18
-2.06795e-18
-2.06442e-18
-2.05736e-18
-2.05938e-18
-2.052e-18
-2.05768e-18
-2.22186e-18
-2.21969e-18
-2.21831e-18
-2.2136e-18
-2.21281e-18
-2.20532e-18
-2.21205e-18
-2.20508e-18
-2.21032e-18
-2.20992e-18
-2.22e-18
-2.21556e-18
-2.22625e-18
-2.21786e-18
-2.22576e-18
-2.21585e-18
-2.22051e-18
-2.21272e-18
-2.21655e-18
-2.20852e-18
-2.21158e-18
-2.20298e-18
-2.20247e-18
-2.19275e-18
-2.18995e-18
-2.18067e-18
-2.17662e-18
-2.1673e-18
-2.15975e-18
-2.14925e-18
-2.14121e-18
-2.13e-18
-2.12116e-18
-2.10957e-18
-2.10013e-18
-2.08824e-18
-2.0828e-18
-2.0751e-18
-2.07326e-18
-2.06761e-18
-2.06426e-18
-2.05745e-18
-2.05922e-18
-2.05206e-18
-2.05788e-18
-2.22245e-18
-2.21952e-18
-2.2182e-18
-2.21351e-18
-2.21227e-18
-2.20569e-18
-2.21209e-18
-2.20466e-18
-2.21114e-18
-2.21005e-18
-2.22078e-18
-2.21534e-18
-2.22588e-18
-2.2175e-18
-2.22626e-18
-2.21618e-18
-2.22069e-18
-2.21312e-18
-2.21655e-18
-2.20883e-18
-2.21173e-18
-2.20284e-18
-2.20238e-18
-2.19271e-18
-2.18986e-18
-2.18068e-18
-2.17657e-18
-2.16711e-18
-2.16002e-18
-2.14943e-18
-2.14092e-18
-2.13003e-18
-2.12097e-18
-2.10941e-18
-2.09969e-18
-2.0887e-18
-2.08292e-18
-2.07541e-18
-2.07339e-18
-2.06726e-18
-2.06419e-18
-2.05684e-18
-2.05952e-18
-2.05196e-18
-2.05776e-18
-2.0489e-18
-2.22198e-18
-2.21963e-18
-2.21892e-18
-2.21392e-18
-2.21291e-18
-2.20622e-18
-2.21148e-18
-2.20515e-18
-2.21133e-18
-2.21008e-18
-2.22055e-18
-2.21604e-18
-2.22622e-18
-2.21726e-18
-2.22564e-18
-2.21624e-18
-2.22053e-18
-2.213e-18
-2.21686e-18
-2.20882e-18
-2.21183e-18
-2.20275e-18
-2.20236e-18
-2.19249e-18
-2.18952e-18
-2.18047e-18
-2.17656e-18
-2.16721e-18
-2.16022e-18
-2.14929e-18
-2.14091e-18
-2.12994e-18
-2.12116e-18
-2.10951e-18
-2.09933e-18
-2.08906e-18
-2.08309e-18
-2.07507e-18
-2.07227e-18
-2.06716e-18
-2.06412e-18
-2.05726e-18
-2.05906e-18
-2.05267e-18
-2.0573e-18
-2.04888e-18
-2.22182e-18
-2.2202e-18
-2.21907e-18
-2.21397e-18
-2.2126e-18
-2.20633e-18
-2.21134e-18
-2.20556e-18
-2.21087e-18
-2.2101e-18
-2.22052e-18
-2.21594e-18
-2.22613e-18
-2.21771e-18
-2.22528e-18
-2.21582e-18
-2.22057e-18
-2.21298e-18
-2.21668e-18
-2.20893e-18
-2.21164e-18
-2.20306e-18
-2.20236e-18
-2.19262e-18
-2.18942e-18
-2.18032e-18
-2.17634e-18
-2.16707e-18
-2.15979e-18
-2.14911e-18
-2.14103e-18
-2.12964e-18
-2.1211e-18
-2.10943e-18
-2.10003e-18
-2.08858e-18
-2.08332e-18
-2.07523e-18
-2.0722e-18
-2.06731e-18
-2.06392e-18
-2.05778e-18
-2.05867e-18
-2.05281e-18
-2.05732e-18
-2.04908e-18
-2.05693e-18
-2.22182e-18
-2.2199e-18
-2.21902e-18
-2.21382e-18
-2.21251e-18
-2.20569e-18
-2.21153e-18
-2.20538e-18
-2.2109e-18
-2.21037e-18
-2.22034e-18
-2.21572e-18
-2.22609e-18
-2.21766e-18
-2.22577e-18
-2.21603e-18
-2.22083e-18
-2.21298e-18
-2.21658e-18
-2.2087e-18
-2.21151e-18
-2.20301e-18
-2.20211e-18
-2.19266e-18
-2.18945e-18
-2.18039e-18
-2.17637e-18
-2.16716e-18
-2.15958e-18
-2.14911e-18
-2.14101e-18
-2.12961e-18
-2.1212e-18
-2.10918e-18
-2.09989e-18
-2.08812e-18
-2.08338e-18
-2.07542e-18
-2.07283e-18
-2.06743e-18
-2.06411e-18
-2.05794e-18
-2.05871e-18
-2.05259e-18
-2.05796e-18
-2.04924e-18
-2.05703e-18
-2.22216e-18
-2.21997e-18
-2.21872e-18
-2.2141e-18
-2.21248e-18
-2.20586e-18
-2.21148e-18
-2.20514e-18
-2.21135e-18
-2.21086e-18
-2.22032e-18
-2.21591e-18
-2.22595e-18
-2.21777e-18
-2.22561e-18
-2.21655e-18
-2.2207e-18
-2.21318e-18
-2.2166e-18
-2.20848e-18
-2.2117e-18
-2.20278e-18
-2.20208e-18
-2.19261e-18
-2.18955e-18
-2.18046e-18
-2.17643e-18
-2.16718e-18
-2.15964e-18
-2.1492e-18
-2.14089e-18
-2.1296e-18
-2.12101e-18
-2.10935e-18
-2.0995e-18
-2.08846e-18
-2.08316e-18
-2.07536e-18
-2.07279e-18
-2.06728e-18
-2.06417e-18
-2.05755e-18
-2.05901e-18
-2.05275e-18
-2.05779e-18
-2.04939e-18
-2.05661e-18
-2.22194e-18
-2.21963e-18
-2.2185e-18
-2.21367e-18
-2.21286e-18
-2.20646e-18
-2.21162e-18
-2.20535e-18
-2.21137e-18
-2.21033e-18
-2.22026e-18
-2.21614e-18
-2.22614e-18
-2.21755e-18
-2.22537e-18
-2.21621e-18
-2.22077e-18
-2.21306e-18
-2.2165e-18
-2.20864e-18
-2.21163e-18
-2.20283e-18
-2.20216e-18
-2.1926e-18
-2.18959e-18
-2.18038e-18
-2.17647e-18
-2.16708e-18
-2.15955e-18
-2.14918e-18
-2.14083e-18
-2.12976e-18
-2.12085e-18
-2.1092e-18
-2.10004e-18
-2.08867e-18
-2.08324e-18
-2.07544e-18
-2.07266e-18
-2.06747e-18
-2.06446e-18
-2.05741e-18
-2.05889e-18
-2.05288e-18
-2.05718e-18
-2.04924e-18
-2.05702e-18
-2.2221e-18
-2.21944e-18
-2.21863e-18
-2.2139e-18
-2.21302e-18
-2.2064e-18
-2.21162e-18
-2.20588e-18
-2.21127e-18
-2.21043e-18
-2.22023e-18
-2.21616e-18
-2.22621e-18
-2.21752e-18
-2.22542e-18
-2.21595e-18
-2.22069e-18
-2.21293e-18
-2.21642e-18
-2.20882e-18
-2.21162e-18
-2.20279e-18
-2.20208e-18
-2.19267e-18
-2.18954e-18
-2.18036e-18
-2.17638e-18
-2.16709e-18
-2.15969e-18
-2.14903e-18
-2.14078e-18
-2.12978e-18
-2.12111e-18
-2.10917e-18
-2.10025e-18
-2.08858e-18
-2.08342e-18
-2.07556e-18
-2.07248e-18
-2.06751e-18
-2.06432e-18
-2.05749e-18
-2.05862e-18
-2.05261e-18
-2.05717e-18
-2.04911e-18
-2.05682e-18
-2.22228e-18
-2.21982e-18
-2.21871e-18
-2.21412e-18
-2.21283e-18
-2.2062e-18
-2.21177e-18
-2.2056e-18
-2.21106e-18
-2.21039e-18
-2.22025e-18
-2.21599e-18
-2.22608e-18
-2.21767e-18
-2.22535e-18
-2.21646e-18
-2.22066e-18
-2.21281e-18
-2.21632e-18
-2.20888e-18
-2.21141e-18
-2.20288e-18
-2.20204e-18
-2.19266e-18
-2.18945e-18
-2.18036e-18
-2.17632e-18
-2.16713e-18
-2.15971e-18
-2.14908e-18
-2.14075e-18
-2.12977e-18
-2.12126e-18
-2.10923e-18
-2.09964e-18
-2.0886e-18
-2.08335e-18
-2.07542e-18
-2.0728e-18
-2.06754e-18
-2.06419e-18
-2.05779e-18
-2.05896e-18
-2.05233e-18
-2.05726e-18
-2.04915e-18
-2.05661e-18
-2.05001e-18
-2.2222e-18
-2.21972e-18
-2.21851e-18
-2.21385e-18
-2.21293e-18
-2.20618e-18
-2.21173e-18
-2.20568e-18
-2.21091e-18
-2.21009e-18
-2.22027e-18
-2.2159e-18
-2.22577e-18
-2.21772e-18
-2.22539e-18
-2.21631e-18
-2.22088e-18
-2.21289e-18
-2.21628e-18
-2.20861e-18
-2.21136e-18
-2.20288e-18
-2.20207e-18
-2.19259e-18
-2.18944e-18
-2.18034e-18
-2.1763e-18
-2.16708e-18
-2.1596e-18
-2.14919e-18
-2.141e-18
-2.12977e-18
-2.12124e-18
-2.10906e-18
-2.09961e-18
-2.08846e-18
-2.08328e-18
-2.0756e-18
-2.07283e-18
-2.06739e-18
-2.06445e-18
-2.05807e-18
-2.05891e-18
-2.05237e-18
-2.05739e-18
-2.04875e-18
-2.05687e-18
-2.05026e-18
-2.22193e-18
-2.2197e-18
-2.21868e-18
-2.21369e-18
-2.21274e-18
-2.20597e-18
-2.21163e-18
-2.20568e-18
-2.21123e-18
-2.21033e-18
-2.22009e-18
-2.21587e-18
-2.22568e-18
-2.2177e-18
-2.22555e-18
-2.21625e-18
-2.22087e-18
-2.21287e-18
-2.21631e-18
-2.20865e-18
-2.21147e-18
-2.20292e-18
-2.2021e-18
-2.19249e-18
-2.18949e-18
-2.18034e-18
-2.17631e-18
-2.16702e-18
-2.15949e-18
-2.1491e-18
-2.14097e-18
-2.12973e-18
-2.12126e-18
-2.10926e-18
-2.09982e-18
-2.0885e-18
-2.08321e-18
-2.07554e-18
-2.07281e-18
-2.06751e-18
-2.06425e-18
-2.05773e-18
-2.05897e-18
-2.05248e-18
-2.05763e-18
-2.04905e-18
-2.05696e-18
-2.04993e-18
-2.22234e-18
-2.21986e-18
-2.21845e-18
-2.21368e-18
-2.21286e-18
-2.20594e-18
-2.21154e-18
-2.20554e-18
-2.21138e-18
-2.21034e-18
-2.22025e-18
-2.21596e-18
-2.22577e-18
-2.21769e-18
-2.22543e-18
-2.21623e-18
-2.22078e-18
-2.21285e-18
-2.21641e-18
-2.20874e-18
-2.21151e-18
-2.20289e-18
-2.20206e-18
-2.19254e-18
-2.18949e-18
-2.18033e-18
-2.17631e-18
-2.1671e-18
-2.15953e-18
-2.14905e-18
-2.14087e-18
-2.12962e-18
-2.12126e-18
-2.10934e-18
-2.09983e-18
-2.08862e-18
-2.0833e-18
-2.07557e-18
-2.07268e-18
-2.0675e-18
-2.0644e-18
-2.05759e-18
-2.05907e-18
-2.0526e-18
-2.05762e-18
-2.04917e-18
-2.05685e-18
-2.05014e-18
-2.22239e-18
-2.21987e-18
-2.21844e-18
-2.21383e-18
-2.21308e-18
-2.20607e-18
-2.21157e-18
-2.20551e-18
-2.21139e-18
-2.21028e-18
-2.22012e-18
-2.21591e-18
-2.22588e-18
-2.21775e-18
-2.22541e-18
-2.21615e-18
-2.2209e-18
-2.21285e-18
-2.21642e-18
-2.20875e-18
-2.21141e-18
-2.20281e-18
-2.20196e-18
-2.19253e-18
-2.18949e-18
-2.18032e-18
-2.1763e-18
-2.16715e-18
-2.15959e-18
-2.14913e-18
-2.14086e-18
-2.1296e-18
-2.1212e-18
-2.10926e-18
-2.09994e-18
-2.0886e-18
-2.08334e-18
-2.07545e-18
-2.07269e-18
-2.06759e-18
-2.06445e-18
-2.05744e-18
-2.05908e-18
-2.05262e-18
-2.05751e-18
-2.04894e-18
-2.05682e-18
-2.05009e-18
-2.22227e-18
-2.2199e-18
-2.2186e-18
-2.21386e-18
-2.21285e-18
-2.20618e-18
-2.21167e-18
-2.20565e-18
-2.2113e-18
-2.21034e-18
-2.22019e-18
-2.21584e-18
-2.22581e-18
-2.21772e-18
-2.2255e-18
-2.21624e-18
-2.22083e-18
-2.21296e-18
-2.21639e-18
-2.20874e-18
-2.21136e-18
-2.20278e-18
-2.20195e-18
-2.19247e-18
-2.18948e-18
-2.18032e-18
-2.17627e-18
-2.16714e-18
-2.1596e-18
-2.14919e-18
-2.14086e-18
-2.12961e-18
-2.12113e-18
-2.10925e-18
-2.09989e-18
-2.08852e-18
-2.08332e-18
-2.07555e-18
-2.07281e-18
-2.06748e-18
-2.06438e-18
-2.05759e-18
-2.05903e-18
-2.05248e-18
-2.05741e-18
-2.04915e-18
-2.05685e-18
-2.04991e-18
-2.22213e-18
-2.21976e-18
-2.21867e-18
-2.21392e-18
-2.21277e-18
-2.20602e-18
-2.21166e-18
-2.20565e-18
-2.21131e-18
-2.21038e-18
-2.22018e-18
-2.21586e-18
-2.22572e-18
-2.21769e-18
-2.22551e-18
-2.21618e-18
-2.22076e-18
-2.21299e-18
-2.21637e-18
-2.20873e-18
-2.21135e-18
-2.20281e-18
-2.20199e-18
-2.19246e-18
-2.18947e-18
-2.18031e-18
-2.17627e-18
-2.16711e-18
-2.15955e-18
-2.14919e-18
-2.14088e-18
-2.12963e-18
-2.12114e-18
-2.10928e-18
-2.09996e-18
-2.08854e-18
-2.0833e-18
-2.0756e-18
-2.07281e-18
-2.06748e-18
-2.06435e-18
-2.05763e-18
-2.05899e-18
-2.05247e-18
-2.05757e-18
-2.04918e-18
-2.05679e-18
-2.0499e-18
-2.22219e-18
-2.21976e-18
-2.21858e-18
-2.21395e-18
-2.21279e-18
-2.20602e-18
-2.21162e-18
-2.20563e-18
-2.21133e-18
-2.21038e-18
-2.22017e-18
-2.21589e-18
-2.22574e-18
-2.21767e-18
-2.22551e-18
-2.2162e-18
-2.2207e-18
-2.21292e-18
-2.21634e-18
-2.20871e-18
-2.21135e-18
-2.20281e-18
-2.202e-18
-2.19248e-18
-2.18947e-18
-2.1803e-18
-2.17629e-18
-2.16711e-18
-2.15954e-18
-2.14917e-18
-2.14087e-18
-2.12965e-18
-2.12119e-18
-2.10933e-18
-2.09994e-18
-2.08853e-18
-2.08332e-18
-2.07555e-18
-2.07276e-18
-2.06748e-18
-2.06435e-18
-2.05761e-18
-2.059e-18
-2.05253e-18
-2.05757e-18
-2.04915e-18
-2.05675e-18
-2.05003e-18
-2.22229e-18
-2.21685e-18
-2.2187e-18
-2.22429e-18
-2.2215e-18
-2.22163e-18
-2.22249e-18
-2.22409e-18
-2.22517e-18
-2.22423e-18
-2.22644e-18
-2.22087e-18
-2.22014e-18
-2.22206e-18
-2.22195e-18
-2.22282e-18
-2.22318e-18
-2.22296e-18
-2.22247e-18
-2.22305e-18