/*--------------------------------*- C++ -*----------------------------------*\
  =========                 |
  \\      /  F ield         | OpenFOAM: The Open Source CFD Toolbox
   \\    /   O peration     | Website:  https://openfoam.org
    \\  /    A nd           | Version:  7
     \\/     M anipulation  |
\*---------------------------------------------------------------------------*/
FoamFile
{
    version     2.0;
    format      ascii;
    class       volScalarField;
    location    "128000";
    object      nu;
}
// * * * * * * * * * * * * * * * * * * * * * * * * * * * * * * * * * * * * * //

dimensions      [0 2 -1 0 0 0 0];

internalField   nonuniform List<scalar> 
4814
(
2.4449e-06
2.44995e-06
2.45453e-06
2.45862e-06
2.29938e-06
2.30925e-06
2.3187e-06
2.32792e-06
2.33688e-06
2.34557e-06
2.35396e-06
2.36203e-06
2.36977e-06
2.37715e-06
2.38417e-06
2.3908e-06
2.39703e-06
2.40284e-06
2.40822e-06
2.41316e-06
2.41763e-06
2.42164e-06
2.42517e-06
2.4282e-06
2.43075e-06
2.43279e-06
2.43433e-06
2.43535e-06
2.43587e-06
2.43587e-06
2.43535e-06
2.43433e-06
2.43279e-06
2.43075e-06
2.4282e-06
2.42517e-06
2.42164e-06
2.41763e-06
2.26551e-06
2.27514e-06
2.28438e-06
2.29338e-06
2.30214e-06
2.31062e-06
2.31882e-06
2.3267e-06
2.33426e-06
2.34148e-06
2.34834e-06
2.35481e-06
2.3609e-06
2.36658e-06
2.37184e-06
2.37666e-06
2.38103e-06
2.38495e-06
2.38839e-06
2.39136e-06
2.39385e-06
2.39584e-06
2.39734e-06
2.39835e-06
2.39885e-06
2.39885e-06
2.39835e-06
2.39734e-06
2.39584e-06
2.39385e-06
2.39136e-06
2.38839e-06
2.38495e-06
2.38103e-06
2.37666e-06
2.37184e-06
2.36658e-06
2.3609e-06
2.35481e-06
2.34834e-06
2.34148e-06
2.2319e-06
2.2413e-06
2.25033e-06
2.25912e-06
2.26766e-06
2.27595e-06
2.28395e-06
2.29166e-06
2.29904e-06
2.30609e-06
2.31278e-06
2.31911e-06
2.32506e-06
2.3306e-06
2.33574e-06
2.34045e-06
2.34472e-06
2.34854e-06
2.35191e-06
2.35481e-06
2.35724e-06
2.35918e-06
2.36065e-06
2.36163e-06
2.36212e-06
2.36212e-06
2.36163e-06
2.36065e-06
2.35918e-06
2.35724e-06
2.35481e-06
2.35191e-06
2.34854e-06
2.34472e-06
2.34045e-06
2.33574e-06
2.3306e-06
2.32506e-06
2.31911e-06
2.31278e-06
2.30609e-06
2.29904e-06
2.29166e-06
2.28395e-06
2.19856e-06
2.20773e-06
2.21654e-06
2.22512e-06
2.23346e-06
2.24155e-06
2.24936e-06
2.25688e-06
2.26409e-06
2.27097e-06
2.27751e-06
2.28369e-06
2.28949e-06
2.29491e-06
2.29992e-06
2.30452e-06
2.30869e-06
2.31242e-06
2.31571e-06
2.31854e-06
2.32091e-06
2.32281e-06
2.32424e-06
2.3252e-06
2.32568e-06
2.32568e-06
2.3252e-06
2.32424e-06
2.32281e-06
2.32091e-06
2.31854e-06
2.31571e-06
2.31242e-06
2.30869e-06
2.30452e-06
2.29992e-06
2.29491e-06
2.28949e-06
2.28369e-06
2.27751e-06
2.27097e-06
2.26409e-06
2.25688e-06
2.24936e-06
2.16548e-06
2.17443e-06
2.18302e-06
2.19139e-06
2.19954e-06
2.20743e-06
2.21505e-06
2.22239e-06
2.22942e-06
2.23613e-06
2.24251e-06
2.24854e-06
2.25421e-06
2.25949e-06
2.26438e-06
2.26887e-06
2.27294e-06
2.27658e-06
2.27979e-06
2.28255e-06
2.28487e-06
2.28672e-06
2.28812e-06
2.28905e-06
2.28952e-06
2.28952e-06
2.28905e-06
2.28812e-06
2.28672e-06
2.28487e-06
2.28255e-06
2.27979e-06
2.27658e-06
2.27294e-06
2.26887e-06
2.26438e-06
2.25949e-06
2.25421e-06
2.24854e-06
2.24251e-06
2.23613e-06
2.22942e-06
2.22239e-06
2.21505e-06
2.13267e-06
2.1414e-06
2.14978e-06
2.15794e-06
2.16587e-06
2.17357e-06
2.181e-06
2.18816e-06
2.19502e-06
2.20157e-06
2.20779e-06
2.21367e-06
2.21919e-06
2.22435e-06
2.22912e-06
2.2335e-06
2.23747e-06
2.24102e-06
2.24415e-06
2.24684e-06
2.2491e-06
2.25091e-06
2.25228e-06
2.25319e-06
2.25364e-06
2.25364e-06
2.25319e-06
2.25228e-06
2.25091e-06
2.2491e-06
2.24684e-06
2.24415e-06
2.24102e-06
2.23747e-06
2.2335e-06
2.22912e-06
2.22435e-06
2.21919e-06
2.21367e-06
2.20779e-06
2.20157e-06
2.19502e-06
2.18816e-06
2.181e-06
2.10013e-06
2.10863e-06
2.11679e-06
2.12474e-06
2.13248e-06
2.13998e-06
2.14723e-06
2.1542e-06
2.16089e-06
2.16727e-06
2.17334e-06
2.17907e-06
2.18446e-06
2.18948e-06
2.19414e-06
2.1984e-06
2.20227e-06
2.20574e-06
2.20879e-06
2.21141e-06
2.21361e-06
2.21538e-06
2.21671e-06
2.2176e-06
2.21804e-06
2.21804e-06
2.2176e-06
2.21671e-06
2.21538e-06
2.21361e-06
2.21141e-06
2.20879e-06
2.20574e-06
2.20227e-06
2.1984e-06
2.19414e-06
2.18948e-06
2.18446e-06
2.17907e-06
2.17334e-06
2.16727e-06
2.16089e-06
2.1542e-06
2.14723e-06
2.13998e-06
2.06785e-06
2.07612e-06
2.08407e-06
2.09182e-06
2.09935e-06
2.10666e-06
2.11372e-06
2.12051e-06
2.12703e-06
2.13325e-06
2.13916e-06
2.14474e-06
2.14999e-06
2.15489e-06
2.15942e-06
2.16358e-06
2.16735e-06
2.17072e-06
2.1737e-06
2.17626e-06
2.1784e-06
2.18012e-06
2.18142e-06
2.18228e-06
2.18271e-06
2.18271e-06
2.18228e-06
2.18142e-06
2.18012e-06
2.1784e-06
2.17626e-06
2.1737e-06
2.17072e-06
2.16735e-06
2.16358e-06
2.15942e-06
2.15489e-06
2.14999e-06
2.14474e-06
2.13916e-06
2.13325e-06
2.12703e-06
2.12051e-06
2.11372e-06
2.10666e-06
2.03583e-06
2.04389e-06
2.05162e-06
2.05916e-06
2.0665e-06
2.07361e-06
2.08048e-06
2.08709e-06
2.09344e-06
2.09949e-06
2.10525e-06
2.11068e-06
2.1158e-06
2.12057e-06
2.12498e-06
2.12903e-06
2.1327e-06
2.13599e-06
2.13888e-06
2.14137e-06
2.14346e-06
2.14514e-06
2.1464e-06
2.14724e-06
2.14766e-06
2.14766e-06
2.14724e-06
2.1464e-06
2.14514e-06
2.14346e-06
2.14137e-06
2.13888e-06
2.13599e-06
2.1327e-06
2.12903e-06
2.12498e-06
2.12057e-06
2.1158e-06
2.11068e-06
2.10525e-06
2.09949e-06
2.09344e-06
2.08709e-06
2.08048e-06
2.07361e-06
2.00409e-06
2.01192e-06
2.01944e-06
2.02677e-06
2.03391e-06
2.04082e-06
2.04751e-06
2.05394e-06
2.06012e-06
2.06601e-06
2.07161e-06
2.0769e-06
2.08187e-06
2.08651e-06
2.09081e-06
2.09475e-06
2.09832e-06
2.10152e-06
2.10434e-06
2.10677e-06
2.1088e-06
2.11043e-06
2.11166e-06
2.11247e-06
2.11289e-06
2.11289e-06
2.11247e-06
2.11166e-06
2.11043e-06
2.1088e-06
2.10677e-06
2.10434e-06
2.10152e-06
2.09832e-06
2.09475e-06
2.09081e-06
2.08651e-06
2.08187e-06
2.0769e-06
2.07161e-06
2.06601e-06
2.06012e-06
2.05394e-06
2.04751e-06
2.04082e-06
1.97261e-06
1.98022e-06
1.98753e-06
1.99466e-06
2.00159e-06
2.00831e-06
2.01481e-06
2.02107e-06
2.02707e-06
2.0328e-06
2.03824e-06
2.04339e-06
2.04822e-06
2.05274e-06
2.05692e-06
2.06075e-06
2.06422e-06
2.06733e-06
2.07007e-06
2.07243e-06
2.07441e-06
2.07599e-06
2.07719e-06
2.07798e-06
2.07838e-06
2.07838e-06
2.07798e-06
2.07719e-06
2.07599e-06
2.07441e-06
2.07243e-06
2.07007e-06
2.06733e-06
2.06422e-06
2.06075e-06
2.05692e-06
2.05274e-06
2.04822e-06
2.04339e-06
2.03824e-06
2.0328e-06
2.02707e-06
2.02107e-06
2.01481e-06
1.94142e-06
1.9488e-06
1.9559e-06
1.96282e-06
1.96955e-06
1.97608e-06
1.98239e-06
1.98847e-06
1.9943e-06
1.99986e-06
2.00515e-06
2.01015e-06
2.01485e-06
2.01924e-06
2.0233e-06
2.02702e-06
2.03039e-06
2.03342e-06
2.03608e-06
2.03837e-06
2.04029e-06
2.04183e-06
2.04299e-06
2.04377e-06
2.04416e-06
2.04416e-06
2.04377e-06
2.04299e-06
2.04183e-06
2.04029e-06
2.03837e-06
2.03608e-06
2.03342e-06
2.03039e-06
2.02702e-06
2.0233e-06
2.01924e-06
2.01485e-06
2.01015e-06
2.00515e-06
1.99986e-06
1.9943e-06
1.98847e-06
1.98239e-06
1.9105e-06
1.91766e-06
1.92455e-06
1.93126e-06
1.93779e-06
1.94412e-06
1.95025e-06
1.95615e-06
1.9618e-06
1.96721e-06
1.97234e-06
1.97719e-06
1.98176e-06
1.98601e-06
1.98995e-06
1.99357e-06
1.99685e-06
1.99978e-06
2.00237e-06
2.00459e-06
2.00646e-06
2.00795e-06
2.00908e-06
2.00983e-06
2.01021e-06
2.01021e-06
2.00983e-06
2.00908e-06
2.00795e-06
2.00646e-06
2.00459e-06
2.00237e-06
1.99978e-06
1.99685e-06
1.99357e-06
1.98995e-06
1.98601e-06
1.98176e-06
1.97719e-06
1.97234e-06
1.96721e-06
1.9618e-06
1.95615e-06
1.95025e-06
1.87987e-06
1.8868e-06
1.89348e-06
1.89998e-06
1.90631e-06
1.91245e-06
1.91839e-06
1.92411e-06
1.9296e-06
1.93484e-06
1.93981e-06
1.94452e-06
1.94894e-06
1.95307e-06
1.9569e-06
1.9604e-06
1.96358e-06
1.96643e-06
1.96893e-06
1.97109e-06
1.9729e-06
1.97436e-06
1.97545e-06
1.97618e-06
1.97654e-06
1.97654e-06
1.97618e-06
1.97545e-06
1.97436e-06
1.9729e-06
1.97109e-06
1.96893e-06
1.96643e-06
1.96358e-06
1.9604e-06
1.9569e-06
1.95307e-06
1.94894e-06
1.94452e-06
1.93981e-06
1.93484e-06
1.9296e-06
1.92411e-06
1.91839e-06
1.84954e-06
1.85625e-06
1.86271e-06
1.869e-06
1.87513e-06
1.88108e-06
1.88683e-06
1.89237e-06
1.89768e-06
1.90275e-06
1.90758e-06
1.91214e-06
1.91642e-06
1.92042e-06
1.92413e-06
1.92752e-06
1.9306e-06
1.93336e-06
1.93579e-06
1.93789e-06
1.93964e-06
1.94105e-06
1.9421e-06
1.94281e-06
1.94317e-06
1.94317e-06
1.94281e-06
1.9421e-06
1.94105e-06
1.93964e-06
1.93789e-06
1.93579e-06
1.93336e-06
1.9306e-06
1.92752e-06
1.92413e-06
1.92042e-06
1.91642e-06
1.91214e-06
1.90758e-06
1.90275e-06
1.89768e-06
1.89237e-06
1.88683e-06
1.81951e-06
1.826e-06
1.83224e-06
1.83832e-06
1.84425e-06
1.85e-06
1.85556e-06
1.86092e-06
1.86606e-06
1.87097e-06
1.87564e-06
1.88005e-06
1.8842e-06
1.88807e-06
1.89166e-06
1.89494e-06
1.89792e-06
1.90059e-06
1.90295e-06
1.90497e-06
1.90667e-06
1.90803e-06
1.90906e-06
1.90974e-06
1.91008e-06
1.91008e-06
1.90974e-06
1.90906e-06
1.90803e-06
1.90667e-06
1.90497e-06
1.90295e-06
1.90059e-06
1.89792e-06
1.89494e-06
1.89166e-06
1.88807e-06
1.8842e-06
1.88005e-06
1.87564e-06
1.87097e-06
1.86606e-06
1.86092e-06
1.85556e-06
1.78981e-06
1.79606e-06
1.80209e-06
1.80797e-06
1.81369e-06
1.81924e-06
1.82462e-06
1.82979e-06
1.83476e-06
1.8395e-06
1.84401e-06
1.84828e-06
1.85228e-06
1.85603e-06
1.85949e-06
1.86267e-06
1.86555e-06
1.86813e-06
1.87041e-06
1.87236e-06
1.874e-06
1.87532e-06
1.87631e-06
1.87697e-06
1.87731e-06
1.87731e-06
1.87697e-06
1.87631e-06
1.87532e-06
1.874e-06
1.87236e-06
1.87041e-06
1.86813e-06
1.86555e-06
1.86267e-06
1.85949e-06
1.85603e-06
1.85228e-06
1.84828e-06
1.84401e-06
1.8395e-06
1.83476e-06
1.82979e-06
1.82462e-06
1.76044e-06
1.76646e-06
1.77227e-06
1.77794e-06
1.78346e-06
1.78881e-06
1.79399e-06
1.79898e-06
1.80378e-06
1.80835e-06
1.81271e-06
1.81682e-06
1.82069e-06
1.8243e-06
1.82764e-06
1.83071e-06
1.83349e-06
1.83599e-06
1.83818e-06
1.84007e-06
1.84166e-06
1.84293e-06
1.84388e-06
1.84452e-06
1.84484e-06
1.84484e-06
1.84452e-06
1.84388e-06
1.84293e-06
1.84166e-06
1.84007e-06
1.83818e-06
1.83599e-06
1.83349e-06
1.83071e-06
1.82764e-06
1.8243e-06
1.82069e-06
1.81682e-06
1.81271e-06
1.80835e-06
1.80378e-06
1.79898e-06
1.79399e-06
1.73142e-06
1.73722e-06
1.74281e-06
1.74825e-06
1.75357e-06
1.75872e-06
1.76371e-06
1.76852e-06
1.77313e-06
1.77755e-06
1.78174e-06
1.7857e-06
1.78943e-06
1.79291e-06
1.79613e-06
1.79909e-06
1.80177e-06
1.80417e-06
1.80629e-06
1.80811e-06
1.80964e-06
1.81086e-06
1.81179e-06
1.8124e-06
1.81271e-06
1.81271e-06
1.8124e-06
1.81179e-06
1.81086e-06
1.80964e-06
1.80811e-06
1.80629e-06
1.80417e-06
1.80177e-06
1.79909e-06
1.79613e-06
1.79291e-06
1.78943e-06
1.7857e-06
1.78174e-06
1.77755e-06
1.77313e-06
1.76852e-06
1.76371e-06
1.70277e-06
1.70834e-06
1.71371e-06
1.71894e-06
1.72404e-06
1.729e-06
1.73379e-06
1.73842e-06
1.74285e-06
1.74709e-06
1.75113e-06
1.75494e-06
1.75852e-06
1.76187e-06
1.76497e-06
1.76781e-06
1.77039e-06
1.77271e-06
1.77474e-06
1.7765e-06
1.77797e-06
1.77914e-06
1.78003e-06
1.78063e-06
1.78092e-06
1.78092e-06
1.78063e-06
1.78003e-06
1.77914e-06
1.77797e-06
1.7765e-06
1.77474e-06
1.77271e-06
1.77039e-06
1.76781e-06
1.76497e-06
1.76187e-06
1.75852e-06
1.75494e-06
1.75113e-06
1.74709e-06
1.74285e-06
1.73842e-06
1.73379e-06
1.67452e-06
1.67986e-06
1.685e-06
1.69001e-06
1.69491e-06
1.69966e-06
1.70426e-06
1.70869e-06
1.71295e-06
1.71702e-06
1.72089e-06
1.72455e-06
1.72799e-06
1.73121e-06
1.73418e-06
1.73691e-06
1.73939e-06
1.74161e-06
1.74356e-06
1.74525e-06
1.74666e-06
1.74779e-06
1.74865e-06
1.74922e-06
1.7495e-06
1.7495e-06
1.74922e-06
1.74865e-06
1.74779e-06
1.74666e-06
1.74525e-06
1.74356e-06
1.74161e-06
1.73939e-06
1.73691e-06
1.73418e-06
1.73121e-06
1.72799e-06
1.72455e-06
1.72089e-06
1.71702e-06
1.71295e-06
1.70869e-06
1.70426e-06
1.69966e-06
1.6467e-06
1.65179e-06
1.65671e-06
1.66151e-06
1.66619e-06
1.67074e-06
1.67514e-06
1.67938e-06
1.68346e-06
1.68735e-06
1.69106e-06
1.69456e-06
1.69786e-06
1.70094e-06
1.70379e-06
1.70641e-06
1.70878e-06
1.71091e-06
1.71278e-06
1.7144e-06
1.71575e-06
1.71683e-06
1.71765e-06
1.7182e-06
1.71847e-06
1.71847e-06
1.7182e-06
1.71765e-06
1.71683e-06
1.71575e-06
1.7144e-06
1.71278e-06
1.71091e-06
1.70878e-06
1.70641e-06
1.70379e-06
1.70094e-06
1.69786e-06
1.69456e-06
1.69106e-06
1.68735e-06
1.68346e-06
1.67938e-06
1.67514e-06
1.67074e-06
1.61931e-06
1.62417e-06
1.62886e-06
1.63344e-06
1.63791e-06
1.64225e-06
1.64645e-06
1.6505e-06
1.65439e-06
1.65812e-06
1.66166e-06
1.665e-06
1.66816e-06
1.6711e-06
1.67382e-06
1.67632e-06
1.67859e-06
1.68063e-06
1.68242e-06
1.68396e-06
1.68525e-06
1.68629e-06
1.68707e-06
1.6876e-06
1.68786e-06
1.68786e-06
1.6876e-06
1.68707e-06
1.68629e-06
1.68525e-06
1.68396e-06
1.68242e-06
1.68063e-06
1.67859e-06
1.67632e-06
1.67382e-06
1.6711e-06
1.66816e-06
1.665e-06
1.66166e-06
1.65812e-06
1.65439e-06
1.6505e-06
1.64645e-06
1.64225e-06
1.59234e-06
1.59698e-06
1.60146e-06
1.60583e-06
1.61009e-06
1.61422e-06
1.61822e-06
1.62208e-06
1.62579e-06
1.62934e-06
1.63271e-06
1.63591e-06
1.63891e-06
1.64171e-06
1.64431e-06
1.64669e-06
1.64886e-06
1.6508e-06
1.6525e-06
1.65398e-06
1.65521e-06
1.6562e-06
1.65695e-06
1.65744e-06
1.65769e-06
1.65769e-06
1.65744e-06
1.65695e-06
1.6562e-06
1.65521e-06
1.65398e-06
1.6525e-06
1.6508e-06
1.64886e-06
1.64669e-06
1.64431e-06
1.64171e-06
1.63891e-06
1.63591e-06
1.63271e-06
1.62934e-06
1.62579e-06
1.62208e-06
1.61822e-06
1.61422e-06
1.56556e-06
1.57004e-06
1.57438e-06
1.57861e-06
1.58266e-06
1.5866e-06
1.59041e-06
1.59409e-06
1.59763e-06
1.60101e-06
1.60423e-06
1.60728e-06
1.61014e-06
1.6128e-06
1.61527e-06
1.61754e-06
1.6196e-06
1.62144e-06
1.62307e-06
1.62447e-06
1.62564e-06
1.62658e-06
1.62729e-06
1.62777e-06
1.628e-06
1.628e-06
1.62777e-06
1.62729e-06
1.62658e-06
1.62564e-06
1.62447e-06
1.62307e-06
1.62144e-06
1.6196e-06
1.61754e-06
1.61527e-06
1.6128e-06
1.61014e-06
1.60728e-06
1.60423e-06
1.60101e-06
1.59763e-06
1.59409e-06
1.59041e-06
1.53861e-06
1.54297e-06
1.54721e-06
1.55134e-06
1.55526e-06
1.55906e-06
1.56274e-06
1.5663e-06
1.56972e-06
1.57299e-06
1.5761e-06
1.57904e-06
1.58178e-06
1.58431e-06
1.58666e-06
1.58882e-06
1.59078e-06
1.59253e-06
1.59408e-06
1.59541e-06
1.59652e-06
1.59742e-06
1.5981e-06
1.59855e-06
1.59877e-06
1.59877e-06
1.59855e-06
1.5981e-06
1.59742e-06
1.59652e-06
1.59541e-06
1.59408e-06
1.59253e-06
1.59078e-06
1.58882e-06
1.58666e-06
1.58431e-06
1.58178e-06
1.57904e-06
1.5761e-06
1.57299e-06
1.56972e-06
1.5663e-06
1.56274e-06
1.51151e-06
1.5157e-06
1.51976e-06
1.52373e-06
1.52755e-06
1.53125e-06
1.53485e-06
1.53832e-06
1.54165e-06
1.54484e-06
1.54788e-06
1.55075e-06
1.5534e-06
1.55584e-06
1.55811e-06
1.56018e-06
1.56207e-06
1.56376e-06
1.56525e-06
1.56654e-06
1.56762e-06
1.56848e-06
1.56913e-06
1.56957e-06
1.56979e-06
1.56979e-06
1.56957e-06
1.56913e-06
1.56848e-06
1.56762e-06
1.56654e-06
1.56525e-06
1.56376e-06
1.56207e-06
1.56018e-06
1.55811e-06
1.55584e-06
1.5534e-06
1.55075e-06
1.54788e-06
1.54484e-06
1.54165e-06
1.53832e-06
1.53485e-06
1.48476e-06
1.48869e-06
1.49252e-06
1.49626e-06
1.49991e-06
1.50346e-06
1.50689e-06
1.51021e-06
1.51341e-06
1.51646e-06
1.51937e-06
1.52212e-06
1.52469e-06
1.52706e-06
1.52927e-06
1.53129e-06
1.53313e-06
1.53477e-06
1.53622e-06
1.53747e-06
1.53852e-06
1.53936e-06
1.54e-06
1.54042e-06
1.54063e-06
1.54063e-06
1.54042e-06
1.54e-06
1.53936e-06
1.53852e-06
1.53747e-06
1.53622e-06
1.53477e-06
1.53313e-06
1.53129e-06
1.52927e-06
1.52706e-06
1.52469e-06
1.52212e-06
1.51937e-06
1.51646e-06
1.51341e-06
1.51021e-06
1.50689e-06
1.4587e-06
1.46236e-06
1.46593e-06
1.46943e-06
1.47284e-06
1.47616e-06
1.47939e-06
1.4825e-06
1.48549e-06
1.48836e-06
1.49109e-06
1.49368e-06
1.49611e-06
1.49838e-06
1.50048e-06
1.50241e-06
1.50416e-06
1.50573e-06
1.50712e-06
1.50831e-06
1.50931e-06
1.51012e-06
1.51072e-06
1.51113e-06
1.51133e-06
1.51133e-06
1.51113e-06
1.51072e-06
1.51012e-06
1.50931e-06
1.50831e-06
1.50712e-06
1.50573e-06
1.50416e-06
1.50241e-06
1.50048e-06
1.49838e-06
1.49611e-06
1.49368e-06
1.49109e-06
1.48836e-06
1.48549e-06
1.4825e-06
1.47939e-06
1.43351e-06
1.43689e-06
1.44019e-06
1.44342e-06
1.44658e-06
1.44966e-06
1.45265e-06
1.45554e-06
1.45832e-06
1.46099e-06
1.46353e-06
1.46593e-06
1.4682e-06
1.47031e-06
1.47227e-06
1.47408e-06
1.47571e-06
1.47718e-06
1.47848e-06
1.47959e-06
1.48053e-06
1.48128e-06
1.48185e-06
1.48222e-06
1.48241e-06
1.48241e-06
1.48222e-06
1.48185e-06
1.48128e-06
1.48053e-06
1.47959e-06
1.47848e-06
1.47718e-06
1.47571e-06
1.47408e-06
1.47227e-06
1.47031e-06
1.4682e-06
1.46593e-06
1.46353e-06
1.46099e-06
1.45832e-06
1.45554e-06
1.45265e-06
1.40941e-06
1.41248e-06
1.41549e-06
1.41845e-06
1.42134e-06
1.42416e-06
1.4269e-06
1.42955e-06
1.4321e-06
1.43455e-06
1.43689e-06
1.4391e-06
1.44119e-06
1.44314e-06
1.44495e-06
1.44661e-06
1.44812e-06
1.44948e-06
1.45067e-06
1.45171e-06
1.45257e-06
1.45327e-06
1.45379e-06
1.45414e-06
1.45431e-06
1.45431e-06
1.45414e-06
1.45379e-06
1.45327e-06
1.45257e-06
1.45171e-06
1.45067e-06
1.44948e-06
1.44812e-06
1.44661e-06
1.44495e-06
1.44314e-06
1.44119e-06
1.4391e-06
1.43689e-06
1.43455e-06
1.4321e-06
1.42955e-06
1.4269e-06
1.38662e-06
1.38938e-06
1.39208e-06
1.39473e-06
1.39734e-06
1.39988e-06
1.40236e-06
1.40476e-06
1.40707e-06
1.40929e-06
1.41141e-06
1.41342e-06
1.41531e-06
1.41709e-06
1.41873e-06
1.42025e-06
1.42163e-06
1.42286e-06
1.42395e-06
1.42489e-06
1.42568e-06
1.42632e-06
1.4268e-06
1.42712e-06
1.42728e-06
1.42728e-06
1.42712e-06
1.4268e-06
1.42632e-06
1.42568e-06
1.42489e-06
1.42395e-06
1.42286e-06
1.42163e-06
1.42025e-06
1.41873e-06
1.41709e-06
1.41531e-06
1.41342e-06
1.41141e-06
1.40929e-06
1.40707e-06
1.40476e-06
1.40236e-06
1.3654e-06
1.36783e-06
1.37021e-06
1.37256e-06
1.37486e-06
1.37712e-06
1.37931e-06
1.38144e-06
1.3835e-06
1.38548e-06
1.38737e-06
1.38916e-06
1.39085e-06
1.39244e-06
1.39391e-06
1.39527e-06
1.3965e-06
1.39761e-06
1.39859e-06
1.39944e-06
1.40014e-06
1.40071e-06
1.40114e-06
1.40143e-06
1.40157e-06
1.40157e-06
1.40143e-06
1.40114e-06
1.40071e-06
1.40014e-06
1.39944e-06
1.39859e-06
1.39761e-06
1.3965e-06
1.39527e-06
1.39391e-06
1.39244e-06
1.39085e-06
1.38916e-06
1.38737e-06
1.38548e-06
1.3835e-06
1.38144e-06
1.37931e-06
1.37712e-06
1.34603e-06
1.34812e-06
1.35017e-06
1.35219e-06
1.35419e-06
1.35614e-06
1.35805e-06
1.3599e-06
1.36169e-06
1.36341e-06
1.36506e-06
1.36663e-06
1.36811e-06
1.3695e-06
1.37079e-06
1.37198e-06
1.37307e-06
1.37404e-06
1.3749e-06
1.37564e-06
1.37627e-06
1.37677e-06
1.37715e-06
1.3774e-06
1.37753e-06
1.37753e-06
1.3774e-06
1.37715e-06
1.37677e-06
1.37627e-06
1.37564e-06
1.3749e-06
1.37404e-06
1.37307e-06
1.37198e-06
1.37079e-06
1.3695e-06
1.36811e-06
1.36663e-06
1.36506e-06
1.36341e-06
1.36169e-06
1.3599e-06
1.35805e-06
1.35614e-06
1.32875e-06
1.33049e-06
1.33221e-06
1.33391e-06
1.3356e-06
1.33725e-06
1.33886e-06
1.34043e-06
1.34195e-06
1.34341e-06
1.34481e-06
1.34615e-06
1.34741e-06
1.3486e-06
1.3497e-06
1.35072e-06
1.35165e-06
1.35248e-06
1.35322e-06
1.35386e-06
1.3544e-06
1.35483e-06
1.35515e-06
1.35537e-06
1.35548e-06
1.35548e-06
1.35537e-06
1.35515e-06
1.35483e-06
1.3544e-06
1.35386e-06
1.35322e-06
1.35248e-06
1.35165e-06
1.35072e-06
1.3497e-06
1.3486e-06
1.34741e-06
1.34615e-06
1.34481e-06
1.34341e-06
1.34195e-06
1.34043e-06
1.33886e-06
1.33725e-06
1.31375e-06
1.31517e-06
1.31657e-06
1.31795e-06
1.31933e-06
1.32068e-06
1.322e-06
1.32329e-06
1.32454e-06
1.32575e-06
1.32691e-06
1.32801e-06
1.32906e-06
1.33004e-06
1.33096e-06
1.3318e-06
1.33258e-06
1.33327e-06
1.33389e-06
1.33442e-06
1.33486e-06
1.33522e-06
1.33549e-06
1.33567e-06
1.33577e-06
1.33577e-06
1.33567e-06
1.33549e-06
1.33522e-06
1.33486e-06
1.33442e-06
1.33389e-06
1.33327e-06
1.33258e-06
1.3318e-06
1.33096e-06
1.33004e-06
1.32906e-06
1.32801e-06
1.32691e-06
1.32575e-06
1.32454e-06
1.32329e-06
1.322e-06
1.32068e-06
1.31933e-06
1.30116e-06
1.30226e-06
1.30336e-06
1.30446e-06
1.30554e-06
1.30661e-06
1.30766e-06
1.30869e-06
1.30968e-06
1.31064e-06
1.31157e-06
1.31245e-06
1.31329e-06
1.31408e-06
1.31481e-06
1.31549e-06
1.31611e-06
1.31667e-06
1.31716e-06
1.31759e-06
1.31795e-06
1.31824e-06
1.31846e-06
1.31861e-06
1.31868e-06
1.31868e-06
1.31861e-06
1.31846e-06
1.31824e-06
1.31795e-06
1.31759e-06
1.31716e-06
1.31667e-06
1.31611e-06
1.31549e-06
1.31481e-06
1.31408e-06
1.31329e-06
1.31245e-06
1.31157e-06
1.31064e-06
1.30968e-06
1.30869e-06
1.30766e-06
1.30661e-06
1.30554e-06
1.29095e-06
1.29178e-06
1.29262e-06
1.29345e-06
1.29428e-06
1.2951e-06
1.2959e-06
1.29669e-06
1.29745e-06
1.29819e-06
1.2989e-06
1.29958e-06
1.30022e-06
1.30083e-06
1.3014e-06
1.30193e-06
1.30241e-06
1.30284e-06
1.30323e-06
1.30356e-06
1.30384e-06
1.30406e-06
1.30423e-06
1.30434e-06
1.3044e-06
1.3044e-06
1.30434e-06
1.30423e-06
1.30406e-06
1.30384e-06
1.30356e-06
1.30323e-06
1.30284e-06
1.30241e-06
1.30193e-06
1.3014e-06
1.30083e-06
1.30022e-06
1.29958e-06
1.2989e-06
1.29819e-06
1.29745e-06
1.29669e-06
1.2959e-06
1.2951e-06
1.29428e-06
1.29345e-06
1.28299e-06
1.2836e-06
1.28421e-06
1.28483e-06
1.28544e-06
1.28604e-06
1.28664e-06
1.28722e-06
1.28779e-06
1.28833e-06
1.28886e-06
1.28936e-06
1.28984e-06
1.2903e-06
1.29072e-06
1.29111e-06
1.29147e-06
1.2918e-06
1.29208e-06
1.29233e-06
1.29254e-06
1.29271e-06
1.29283e-06
1.29292e-06
1.29296e-06
1.29296e-06
1.29292e-06
1.29283e-06
1.29271e-06
1.29254e-06
1.29233e-06
1.29208e-06
1.2918e-06
1.29147e-06
1.29111e-06
1.29072e-06
1.2903e-06
1.28984e-06
1.28936e-06
1.28886e-06
1.28833e-06
1.28779e-06
1.28722e-06
1.28664e-06
1.28604e-06
1.28544e-06
1.28483e-06
1.27704e-06
1.27747e-06
1.27791e-06
1.27835e-06
1.27879e-06
1.27922e-06
1.27965e-06
1.28007e-06
1.28048e-06
1.28087e-06
1.28125e-06
1.28161e-06
1.28195e-06
1.28228e-06
1.28259e-06
1.28287e-06
1.28313e-06
1.28336e-06
1.28357e-06
1.28375e-06
1.2839e-06
1.28402e-06
1.28411e-06
1.28417e-06
1.2842e-06
1.2842e-06
1.28417e-06
1.28411e-06
1.28402e-06
1.2839e-06
1.28375e-06
1.28357e-06
1.28336e-06
1.28313e-06
1.28287e-06
1.28259e-06
1.28228e-06
1.28195e-06
1.28161e-06
1.28125e-06
1.28087e-06
1.28048e-06
1.28007e-06
1.27965e-06
1.27922e-06
1.27879e-06
1.27835e-06
1.27276e-06
1.27306e-06
1.27337e-06
1.27368e-06
1.27399e-06
1.2743e-06
1.2746e-06
1.2749e-06
1.27519e-06
1.27546e-06
1.27573e-06
1.27598e-06
1.27623e-06
1.27646e-06
1.27668e-06
1.27688e-06
1.27706e-06
1.27722e-06
1.27737e-06
1.27749e-06
1.2776e-06
1.27769e-06
1.27775e-06
1.27779e-06
1.27781e-06
1.27781e-06
1.27779e-06
1.27775e-06
1.27769e-06
1.2776e-06
1.27749e-06
1.27737e-06
1.27722e-06
1.27706e-06
1.27688e-06
1.27668e-06
1.27646e-06
1.27623e-06
1.27598e-06
1.27573e-06
1.27546e-06
1.27519e-06
1.2749e-06
1.2746e-06
1.2743e-06
1.27399e-06
1.27368e-06
1.26979e-06
1.27e-06
1.27021e-06
1.27043e-06
1.27066e-06
1.27088e-06
1.2711e-06
1.27131e-06
1.27151e-06
1.27171e-06
1.2719e-06
1.27208e-06
1.27225e-06
1.27241e-06
1.27257e-06
1.27271e-06
1.27284e-06
1.27295e-06
1.27306e-06
1.27314e-06
1.27322e-06
1.27328e-06
1.27332e-06
1.27335e-06
1.27337e-06
1.27337e-06
1.27335e-06
1.27332e-06
1.27328e-06
1.27322e-06
1.27314e-06
1.27306e-06
1.27295e-06
1.27284e-06
1.27271e-06
1.27257e-06
1.27241e-06
1.27225e-06
1.27208e-06
1.2719e-06
1.27171e-06
1.27151e-06
1.27131e-06
1.2711e-06
1.27088e-06
1.27066e-06
1.27043e-06
1.26777e-06
1.26792e-06
1.26808e-06
1.26824e-06
1.26841e-06
1.26857e-06
1.26873e-06
1.26889e-06
1.26904e-06
1.26918e-06
1.26932e-06
1.26945e-06
1.26958e-06
1.2697e-06
1.26981e-06
1.26992e-06
1.27001e-06
1.27009e-06
1.27017e-06
1.27023e-06
1.27028e-06
1.27033e-06
1.27036e-06
1.27038e-06
1.27039e-06
1.27039e-06
1.27038e-06
1.27036e-06
1.27033e-06
1.27028e-06
1.27023e-06
1.27017e-06
1.27009e-06
1.27001e-06
1.26992e-06
1.26981e-06
1.2697e-06
1.26958e-06
1.26945e-06
1.26932e-06
1.26918e-06
1.26904e-06
1.26889e-06
1.26873e-06
1.26857e-06
1.26841e-06
1.26824e-06
1.26808e-06
1.2664e-06
1.26651e-06
1.26664e-06
1.26677e-06
1.2669e-06
1.26703e-06
1.26716e-06
1.26728e-06
1.2674e-06
1.26751e-06
1.26762e-06
1.26772e-06
1.26782e-06
1.26791e-06
1.268e-06
1.26808e-06
1.26815e-06
1.26821e-06
1.26827e-06
1.26832e-06
1.26836e-06
1.26839e-06
1.26842e-06
1.26843e-06
1.26844e-06
1.26844e-06
1.26843e-06
1.26842e-06
1.26839e-06
1.26836e-06
1.26832e-06
1.26827e-06
1.26821e-06
1.26815e-06
1.26808e-06
1.268e-06
1.26791e-06
1.26782e-06
1.26772e-06
1.26762e-06
1.26751e-06
1.2674e-06
1.26728e-06
1.26716e-06
1.26703e-06
1.2669e-06
1.26677e-06
1.26664e-06
1.26544e-06
1.26553e-06
1.26564e-06
1.26574e-06
1.26586e-06
1.26597e-06
1.26608e-06
1.26618e-06
1.26628e-06
1.26637e-06
1.26646e-06
1.26655e-06
1.26663e-06
1.26671e-06
1.26678e-06
1.26685e-06
1.26691e-06
1.26696e-06
1.26701e-06
1.26705e-06
1.26708e-06
1.26711e-06
1.26713e-06
1.26714e-06
1.26715e-06
1.26715e-06
1.26714e-06
1.26713e-06
1.26711e-06
1.26708e-06
1.26705e-06
1.26701e-06
1.26696e-06
1.26691e-06
1.26685e-06
1.26678e-06
1.26671e-06
1.26663e-06
1.26655e-06
1.26646e-06
1.26637e-06
1.26628e-06
1.26618e-06
1.26608e-06
1.26597e-06
1.26586e-06
1.26574e-06
1.26564e-06
1.26472e-06
1.2648e-06
1.26489e-06
1.26498e-06
1.26509e-06
1.26519e-06
1.26528e-06
1.26538e-06
1.26546e-06
1.26555e-06
1.26563e-06
1.2657e-06
1.26578e-06
1.26585e-06
1.26591e-06
1.26597e-06
1.26602e-06
1.26607e-06
1.26611e-06
1.26615e-06
1.26618e-06
1.2662e-06
1.26622e-06
1.26623e-06
1.26624e-06
1.26624e-06
1.26623e-06
1.26622e-06
1.2662e-06
1.26618e-06
1.26615e-06
1.26611e-06
1.26607e-06
1.26602e-06
1.26597e-06
1.26591e-06
1.26585e-06
1.26578e-06
1.2657e-06
1.26563e-06
1.26555e-06
1.26546e-06
1.26538e-06
1.26528e-06
1.26519e-06
1.26509e-06
1.26498e-06
1.26489e-06
1.26412e-06
1.26419e-06
1.26427e-06
1.26436e-06
1.26446e-06
1.26455e-06
1.26464e-06
1.26473e-06
1.26481e-06
1.26489e-06
1.26496e-06
1.26503e-06
1.2651e-06
1.26516e-06
1.26522e-06
1.26528e-06
1.26533e-06
1.26537e-06
1.26541e-06
1.26545e-06
1.26547e-06
1.2655e-06
1.26551e-06
1.26552e-06
1.26553e-06
1.26553e-06
1.26552e-06
1.26551e-06
1.2655e-06
1.26547e-06
1.26545e-06
1.26541e-06
1.26537e-06
1.26533e-06
1.26528e-06
1.26522e-06
1.26516e-06
1.2651e-06
1.26503e-06
1.26496e-06
1.26489e-06
1.26481e-06
1.26473e-06
1.26464e-06
1.26455e-06
1.26446e-06
1.26436e-06
1.26427e-06
1.26358e-06
1.26364e-06
1.26372e-06
1.2638e-06
1.26389e-06
1.26398e-06
1.26407e-06
1.26415e-06
1.26423e-06
1.2643e-06
1.26437e-06
1.26444e-06
1.2645e-06
1.26456e-06
1.26462e-06
1.26467e-06
1.26472e-06
1.26476e-06
1.2648e-06
1.26483e-06
1.26486e-06
1.26488e-06
1.26489e-06
1.2649e-06
1.26491e-06
1.26491e-06
1.2649e-06
1.26489e-06
1.26488e-06
1.26486e-06
1.26483e-06
1.2648e-06
1.26476e-06
1.26472e-06
1.26467e-06
1.26462e-06
1.26456e-06
1.2645e-06
1.26444e-06
1.26437e-06
1.2643e-06
1.26423e-06
1.26415e-06
1.26407e-06
1.26398e-06
1.26389e-06
1.2638e-06
1.26372e-06
1.26306e-06
1.26312e-06
1.26319e-06
1.26327e-06
1.26336e-06
1.26344e-06
1.26352e-06
1.2636e-06
1.26368e-06
1.26375e-06
1.26381e-06
1.26388e-06
1.26394e-06
1.264e-06
1.26405e-06
1.2641e-06
1.26415e-06
1.26419e-06
1.26422e-06
1.26425e-06
1.26428e-06
1.2643e-06
1.26431e-06
1.26432e-06
1.26433e-06
1.26433e-06
1.26432e-06
1.26431e-06
1.2643e-06
1.26428e-06
1.26425e-06
1.26422e-06
1.26419e-06
1.26415e-06
1.2641e-06
1.26405e-06
1.264e-06
1.26394e-06
1.26388e-06
1.26381e-06
1.26375e-06
1.26368e-06
1.2636e-06
1.26352e-06
1.26344e-06
1.26336e-06
1.26327e-06
1.26319e-06
1.26256e-06
1.26261e-06
1.26268e-06
1.26276e-06
1.26284e-06
1.26292e-06
1.263e-06
1.26307e-06
1.26314e-06
1.26321e-06
1.26327e-06
1.26333e-06
1.26339e-06
1.26345e-06
1.2635e-06
1.26355e-06
1.26359e-06
1.26363e-06
1.26366e-06
1.26369e-06
1.26371e-06
1.26373e-06
1.26375e-06
1.26376e-06
1.26376e-06
1.26376e-06
1.26376e-06
1.26375e-06
1.26373e-06
1.26371e-06
1.26369e-06
1.26366e-06
1.26363e-06
1.26359e-06
1.26355e-06
1.2635e-06
1.26345e-06
1.26339e-06
1.26333e-06
1.26327e-06
1.26321e-06
1.26314e-06
1.26307e-06
1.263e-06
1.26292e-06
1.26284e-06
1.26276e-06
1.26268e-06
2.29938e-06
2.26551e-06
2.2319e-06
2.19856e-06
2.16548e-06
2.13267e-06
2.10013e-06
2.06785e-06
2.03583e-06
2.00409e-06
1.97261e-06
1.94142e-06
1.9105e-06
1.87987e-06
1.84954e-06
1.81951e-06
1.78981e-06
1.76044e-06
1.73142e-06
1.70277e-06
1.67452e-06
1.6467e-06
1.61931e-06
1.59234e-06
1.56556e-06
1.53861e-06
1.51151e-06
1.48476e-06
1.4587e-06
1.43351e-06
1.40941e-06
1.38662e-06
1.3654e-06
1.34603e-06
1.32875e-06
1.31375e-06
1.30116e-06
1.29095e-06
1.28299e-06
1.27704e-06
1.27276e-06
1.26979e-06
1.26777e-06
1.2664e-06
1.26544e-06
1.26472e-06
1.26412e-06
1.26358e-06
1.26306e-06
1.26256e-06
2.30925e-06
2.27514e-06
2.2413e-06
2.20773e-06
2.17443e-06
2.1414e-06
2.10863e-06
2.07612e-06
2.04389e-06
2.01192e-06
1.98022e-06
1.9488e-06
1.91766e-06
1.8868e-06
1.85625e-06
1.826e-06
1.79606e-06
1.76646e-06
1.73722e-06
1.70834e-06
1.67986e-06
1.65179e-06
1.62417e-06
1.59698e-06
1.57004e-06
1.54297e-06
1.5157e-06
1.48869e-06
1.46236e-06
1.43689e-06
1.41248e-06
1.38938e-06
1.36783e-06
1.34812e-06
1.33049e-06
1.31517e-06
1.30226e-06
1.29178e-06
1.2836e-06
1.27747e-06
1.27306e-06
1.27e-06
1.26792e-06
1.26651e-06
1.26553e-06
1.2648e-06
1.26419e-06
1.26364e-06
1.26312e-06
1.26261e-06
2.3187e-06
2.28438e-06
2.25033e-06
2.21654e-06
2.18302e-06
2.14978e-06
2.11679e-06
2.08407e-06
2.05162e-06
2.01944e-06
1.98753e-06
1.9559e-06
1.92455e-06
1.89348e-06
1.86271e-06
1.83224e-06
1.80209e-06
1.77227e-06
1.74281e-06
1.71371e-06
1.685e-06
1.65671e-06
1.62886e-06
1.60146e-06
1.57438e-06
1.54721e-06
1.51976e-06
1.49252e-06
1.46593e-06
1.44019e-06
1.41549e-06
1.39208e-06
1.37021e-06
1.35017e-06
1.33221e-06
1.31657e-06
1.30336e-06
1.29262e-06
1.28421e-06
1.27791e-06
1.27337e-06
1.27021e-06
1.26808e-06
1.26664e-06
1.26564e-06
1.26489e-06
1.26427e-06
1.26372e-06
1.26319e-06
1.26268e-06
2.32792e-06
2.29338e-06
2.25912e-06
2.22512e-06
2.19139e-06
2.15794e-06
2.12474e-06
2.09182e-06
2.05916e-06
2.02677e-06
1.99466e-06
1.96282e-06
1.93126e-06
1.89998e-06
1.869e-06
1.83832e-06
1.80797e-06
1.77794e-06
1.74825e-06
1.71894e-06
1.69001e-06
1.66151e-06
1.63344e-06
1.60583e-06
1.57861e-06
1.55134e-06
1.52373e-06
1.49626e-06
1.46943e-06
1.44342e-06
1.41845e-06
1.39473e-06
1.37256e-06
1.35219e-06
1.33391e-06
1.31795e-06
1.30446e-06
1.29345e-06
1.28483e-06
1.27835e-06
1.27368e-06
1.27043e-06
1.26824e-06
1.26677e-06
1.26574e-06
1.26498e-06
1.26436e-06
1.2638e-06
1.26327e-06
1.26276e-06
2.33688e-06
2.30214e-06
2.26766e-06
2.23346e-06
2.19954e-06
2.16587e-06
2.13248e-06
2.09935e-06
2.0665e-06
2.03391e-06
2.00159e-06
1.96955e-06
1.93779e-06