/*--------------------------------*- C++ -*----------------------------------*\
  =========                 |
  \\      /  F ield         | OpenFOAM: The Open Source CFD Toolbox
   \\    /   O peration     | Website:  https://openfoam.org
    \\  /    A nd           | Version:  7
     \\/     M anipulation  |
\*---------------------------------------------------------------------------*/
FoamFile
{
    version     2.0;
    format      ascii;
    class       surfaceScalarField;
    location    "128000";
    object      phi;
}
// * * * * * * * * * * * * * * * * * * * * * * * * * * * * * * * * * * * * * //

dimensions      [0 3 -1 0 0 0 0];

internalField   nonuniform List<scalar> 
9474
(
2.93393e-24
-6.12628e-23
2.04053e-24
-7.47985e-23
1.07997e-23
9.80407e-23
1.45916e-23
-1.54352e-24
3.10871e-23
6.57146e-25
-1.6373e-24
4.87031e-23
-1.48619e-24
1.7899e-23
-4.13105e-24
3.9794e-23
1.11789e-24
1.71727e-22
4.08655e-24
2.21979e-22
4.33059e-24
2.5228e-23
9.39856e-24
3.12303e-23
9.76867e-24
-8.47152e-23
7.03876e-24
6.88172e-23
1.19448e-24
1.95837e-23
3.3151e-24
7.42478e-23
3.16014e-24
-1.15994e-22
4.47498e-24
-7.6615e-24
2.90545e-24
-2.21941e-23
2.38744e-24
-7.50637e-23
1.04447e-23
7.65388e-23
1.46863e-23
-8.47061e-24
8.58662e-24
-8.03448e-23
4.6405e-24
-1.03703e-22
3.0381e-24
-2.15045e-23
4.13398e-24
-6.55461e-24
2.44017e-24
-8.74202e-23
-2.09709e-24
-3.60192e-24
-4.67317e-24
-1.44204e-22
-6.28289e-24
-3.96423e-23
-5.99324e-24
-4.73463e-23
-6.31391e-24
-4.69107e-23
-5.84664e-24
-5.7122e-23
-1.13416e-23
-5.68039e-23
-1.05774e-23
1.14197e-22
-4.89944e-24
1.1679e-22
4.78743e-25
1.13509e-22
-1.59838e-23
-1.67212e-24
-5.99431e-24
2.31007e-25
-1.48604e-24
7.81958e-23
-1.35525e-24
-5.81362e-25
-3.98148e-24
3.92315e-23
1.26957e-24
1.58834e-22
3.5214e-24
1.33557e-22
3.71482e-24
4.84508e-23
9.39055e-24
6.19275e-23
9.96687e-24
-8.51977e-23
7.24005e-24
4.57877e-23
4.70773e-25
-2.40752e-23
3.37614e-24
1.36424e-22
2.80514e-24
-1.40743e-22
4.66822e-24
-3.30545e-23
2.63067e-24
-3.24843e-23
2.46032e-24
-1.08535e-22
1.03778e-23
5.06009e-23
1.42738e-23
-4.33741e-24
8.7234e-24
-7.73337e-23
4.49584e-24
-1.02937e-22
2.95673e-24
-2.31052e-23
4.10559e-24
9.6233e-25
2.29018e-24
-9.30714e-23
-2.29245e-24
4.61443e-24
-4.63083e-24
-8.4866e-23
-6.11385e-24
-3.6779e-23
-6.02041e-24
-7.93764e-23
-6.39017e-24
-5.98319e-23
-5.70827e-24
-2.9019e-23
-1.06408e-23
-4.71359e-23
-1.05513e-23
7.69439e-23
-4.70725e-24
1.3178e-22
-2.16026e-26
1.17815e-22
-3.7754e-24
-2.19037e-23
-9.06278e-25
7.18547e-23
3.39163e-24
9.03309e-23
3.53313e-24
1.45897e-23
7.61094e-25
2.99112e-23
-7.00567e-25
-3.5784e-23
-1.06009e-24
7.02862e-23
9.79613e-23
-1.78786e-24
-4.32612e-23
4.64635e-25
-1.82668e-24
3.86201e-23
-1.46044e-24
-5.40304e-24
-3.75733e-24
6.64728e-23
8.44354e-25
1.56363e-22
3.27868e-24
7.60902e-23
3.1246e-24
4.56533e-23
9.12311e-24
9.12765e-23
1.05082e-23
-3.7342e-23
7.18799e-24
7.07513e-23
4.02071e-25
-3.05296e-23
3.30007e-24
1.46882e-22
2.37771e-24
-1.4625e-22
4.68616e-24
-5.07492e-23
2.31225e-24
-2.42437e-23
2.44745e-24
-1.0696e-22
1.01933e-23
2.28011e-23
1.39807e-23
-1.5845e-23
8.79156e-24
-7.91432e-23
4.41347e-24
-9.22959e-23
3.00105e-24
-1.26767e-23
3.92385e-24
-5.64364e-24
2.23182e-24
-9.01326e-23
-2.24213e-24
-2.54745e-23
-4.88589e-24
-8.60473e-23
-6.04036e-24
-3.46666e-23
-6.09347e-24
-7.10172e-23
-6.19056e-24
-4.67218e-23
-5.65471e-24
-3.73709e-23
-1.01164e-23
-5.02302e-23
-1.03325e-23
8.27491e-23
-4.59159e-24
1.26933e-22
-4.0203e-25
1.07038e-22
-3.41529e-24
1.06459e-23
-9.63941e-25
5.86377e-23
3.53437e-24
9.09163e-23
3.22266e-24
-1.62859e-23
1.06057e-24
6.94969e-23
-6.07562e-25
-6.56388e-23
-1.20793e-24
6.36731e-23
6.01705e-24
9.32341e-23
3.91094e-25
4.40332e-23
-6.76024e-24
-7.16205e-23
-1.31827e-23
-1.21241e-24
-4.76394e-23
1.07196e-24
-1.93284e-24
1.64684e-23
-9.74532e-25
5.54956e-23
-3.92457e-24
5.20218e-23
2.01688e-25
1.56489e-22
3.59612e-24
3.7131e-23
2.95507e-24
3.37019e-23
8.79441e-24
6.75986e-23
1.08675e-23
-4.21763e-24
6.81256e-24
8.61749e-23
4.23129e-25
-2.03087e-23
2.74226e-24
1.42625e-22
2.36256e-24
-1.52559e-22
4.95374e-24
-2.07602e-23
1.71869e-24
-2.25761e-23
2.38587e-24
-7.74802e-23
9.90821e-24
1.40901e-23
1.35796e-23
1.13637e-23
9.11329e-24
-7.82102e-23
4.36679e-24
-7.67838e-23
2.76347e-24
-1.19398e-23
3.89094e-24
2.39807e-23
1.99018e-24
-9.49623e-23
-2.03576e-24
-1.81392e-23
-5.19978e-24
-1.05201e-22
-5.86841e-24
-1.89891e-23
-6.23422e-24
-6.27953e-23
-6.03342e-24
-3.52164e-23
-5.64199e-24
-4.26293e-23
-9.61321e-24
-3.79883e-23
-1.01017e-23
7.16275e-23
-4.57326e-24
1.22768e-22
-5.51307e-25
1.06714e-22
-3.20105e-24
1.95268e-24
-1.01843e-24
2.33306e-23
3.26374e-24
9.42097e-23
3.66326e-24
-4.88563e-23
6.07824e-25
4.78932e-23
-2.53142e-25
-2.54864e-24
-1.12763e-24
7.03912e-23
6.44091e-24
8.56534e-23
2.91481e-25
8.2632e-24
-6.80761e-24
-6.73424e-23
-3.78032e-23
-1.36732e-24
-4.62982e-23
1.024e-24
-1.76443e-24
-1.78285e-23
-1.10334e-24
2.12981e-23
-3.96732e-24
4.92769e-23
-5.11033e-25
7.30398e-23
3.67464e-24
6.91439e-23
2.65088e-24
4.07449e-23
8.95284e-24
5.22382e-23
1.0884e-23
4.17628e-23
6.9049e-24
1.00895e-22
3.48288e-25
-2.59858e-23
2.03582e-24
1.09433e-22
2.33756e-24
-1.16052e-22
5.12862e-24
8.20865e-24
1.11208e-24
-3.97256e-23
2.41479e-24
-7.32008e-23
9.95989e-24
6.35619e-23
1.31641e-23
-9.80538e-24
9.2359e-24
-6.25994e-23
4.29249e-24
-7.89698e-23
2.82083e-24
-8.25779e-24
3.66332e-24
-2.7311e-23
1.88093e-24
-7.40106e-23
-1.93154e-24
-2.61787e-23
-5.37186e-24
-1.10204e-22
-5.7299e-24
1.9528e-23
-6.41934e-24
-6.94627e-23
-5.94678e-24
-2.49009e-23
-5.61401e-24
-3.34813e-23
-9.21979e-24
-3.41353e-23
-9.87421e-24
3.84382e-23
-4.62407e-24
1.17502e-22
-7.05439e-25
1.33804e-22
-3.35716e-24
-1.64259e-23
-1.13043e-24
1.15917e-23
3.1816e-24
9.06131e-23
3.9589e-24
-4.76517e-23
8.75702e-25
3.88221e-24
-3.17556e-25
4.91376e-24
-1.08284e-24
3.70706e-23
6.22561e-24
7.73788e-23
5.95812e-25
-4.0106e-23
-6.63568e-24
-6.24402e-23
-6.19132e-23
-1.36712e-24
-4.81382e-23
1.04705e-24
-1.40864e-24
3.93133e-24
-1.26766e-24
2.4242e-23
-4.14789e-24
6.5269e-23
-7.37059e-25
1.01229e-22
3.24009e-24
4.47664e-23
2.61708e-24
3.2298e-23
9.20423e-24
8.13822e-23
1.06866e-23
-4.27772e-23
7.14081e-24
5.06968e-23
-7.8664e-27
-5.70617e-23
1.79962e-24
6.9514e-23
2.10098e-24
-9.00707e-23
5.40373e-24
4.08445e-24
8.37282e-25
-5.70206e-23
2.57336e-24
-4.63076e-23
9.6432e-24
4.89546e-23
1.2961e-23
4.29843e-24
9.18299e-24
-2.85195e-23
4.33825e-24
-7.73142e-23
2.53367e-24
-6.10581e-24
3.72365e-24
-2.0177e-23
1.56866e-24
-1.29072e-22
-1.79769e-24
-2.47538e-23
-5.3393e-24
-1.11993e-22
-5.76494e-24
1.26503e-23
-6.54502e-24
-5.98304e-23
-5.82372e-24
-2.14294e-24
-5.49119e-24
-3.69827e-23
-9.07781e-24
-8.95304e-23
-9.51648e-24
5.68421e-23
-4.47796e-24
1.19107e-22
-1.12777e-24
1.05734e-22
-3.34368e-24
-2.49776e-23
-1.04728e-24
1.56493e-23
2.58586e-24
8.80217e-23
4.04926e-24
-4.76477e-23
1.3043e-24
4.55891e-24
-4.61816e-25
1.40551e-23
-1.07829e-24
4.7352e-23
6.02124e-24
1.14968e-22
1.06887e-24
2.2649e-23
-6.55331e-24
-4.38993e-23
-4.83721e-23
-1.13494e-24
-4.44022e-23
1.27473e-24
-1.27576e-24
-1.39377e-23
-1.05489e-24
3.12012e-23
-4.34617e-24
6.97413e-23
-1.24264e-24
9.7503e-23
2.88066e-24
3.72683e-23
2.88418e-24
2.34178e-23
8.91136e-24
8.00935e-23
1.09291e-23
-2.04098e-23
6.96644e-24
9.17059e-23
-3.54682e-25
-8.31137e-23
1.75607e-24
7.28183e-23
1.75575e-24
-1.76405e-22
5.39901e-24
2.26738e-24
7.12675e-25
-5.02055e-23
2.51371e-24
-5.13325e-23
9.32581e-24
1.04206e-22
1.26745e-23
3.16984e-23
9.10906e-24
-3.77797e-23
4.31195e-24
-7.00546e-23
2.33176e-24
-4.21909e-23
3.56046e-24
-1.52771e-23
1.50669e-24
-1.06021e-22
-1.71198e-24
-1.99598e-23
-5.33286e-24
-9.40991e-23
-5.72746e-24
5.4285e-24
-6.65876e-24
-6.42095e-23
-5.76835e-24
3.62137e-23
-5.68354e-24
-7.6146e-23
-8.54782e-24
-8.10229e-23
-9.14989e-24
4.51733e-23
-4.52926e-24
9.54354e-23
-1.21011e-24
1.14143e-22
-3.34925e-24
-2.1765e-23
-9.66441e-25
1.37444e-24
2.55519e-24
4.67269e-23
3.95429e-24
-4.80321e-23
1.49717e-24
-3.79371e-24
-4.64818e-25
9.82957e-24
-1.12983e-24
6.42615e-23
6.25724e-24
1.12579e-22
1.07432e-24
2.46706e-23
-6.39007e-24
-1.01365e-22
-1.07797e-23
-5.064e-23
-1.22906e-23
-9.03276e-25
-1.40118e-23
1.38861e-24
-1.16825e-24
-1.3213e-23
-1.33653e-24
-8.41482e-24
-4.29961e-24
6.91304e-23
-1.89643e-24
8.65608e-23
2.83033e-24
5.16461e-23
3.12885e-24
4.2724e-23
8.44788e-24
1.04018e-22
1.11072e-23
8.40088e-24
6.66248e-24
8.76028e-23
-7.83052e-25
-1.31625e-22
1.4346e-24
8.88203e-23
1.58766e-24
-1.38051e-22
5.57087e-24
3.47174e-23
2.93204e-25
-7.2335e-23
2.85789e-24
-1.70372e-23
9.07115e-24
7.55279e-23
1.23937e-23
5.6346e-23
9.17018e-24
-4.30868e-23
4.16822e-24
-1.00037e-22
2.19812e-24
-2.73452e-23
3.44895e-24
-1.51546e-25
1.43505e-24
-9.15753e-23
-1.58336e-24
-3.22056e-23
-5.3671e-24
-9.2545e-23
-5.76717e-24
-8.23137e-24
-6.51854e-24
-3.82325e-23
-6.03651e-24
4.37794e-23
-5.5978e-24
-7.85464e-23
-8.23453e-24
-7.26298e-23
-8.83845e-24
6.57308e-23
-4.57746e-24
8.3906e-23
-1.67494e-24
8.94003e-23
-3.36796e-24
1.7182e-23
-1.06393e-24
4.38483e-24
2.58668e-24
7.84283e-23
4.07975e-24
-3.26484e-23
1.88037e-24
-7.11977e-24
-4.54864e-25
-3.64084e-23
-9.04812e-25
8.30192e-23
6.40512e-24
1.2608e-22
1.08977e-24
-6.69591e-24
-6.34824e-24
-1.64349e-22
-1.04206e-23
-3.96372e-23
-2.82501e-23
-7.75414e-25
-6.35595e-24
1.46638e-24
-1.07502e-24
-2.83789e-23
-1.32565e-24
-6.08702e-23
-4.40863e-24
3.64148e-23
-2.40633e-24
1.29096e-22
2.79904e-24
1.11146e-22
3.10913e-24
4.86348e-23
8.54484e-24
9.31838e-23
1.09774e-23
4.13395e-23
6.29941e-24
9.90164e-23
-4.25911e-25
-1.41103e-22
9.90331e-25
5.53884e-23
1.78036e-24
-1.51534e-22
5.31364e-24
-5.38249e-24
2.86114e-25
-5.83932e-23
2.86354e-24
-4.07347e-24
8.72634e-24
6.97763e-23
1.21206e-23
4.14726e-23
8.94768e-24
-8.12765e-23
4.22534e-24
-9.8165e-23
2.07463e-24
-1.94999e-23
3.32134e-24
1.49621e-23
1.24226e-24
-1.01231e-22
-1.40601e-24
-4.9579e-23
-5.39698e-24
-9.64559e-23
-5.68667e-24
9.78096e-26
-6.47688e-24
-2.8505e-23
-6.25747e-24
5.0025e-23
-5.46524e-24
-7.79795e-23
-8.01009e-24
-6.65215e-23
-8.56197e-24
2.94717e-23
-4.51822e-24
7.42672e-23
-1.70963e-24
1.13722e-22
-3.50932e-24
1.49587e-24
-1.15076e-24
2.52151e-23
2.5101e-24
1.03951e-22
4.29661e-24
-2.0925e-24
1.94485e-24
-2.55501e-23
-3.47745e-25
-2.16468e-23
-1.09833e-24
8.50251e-23
6.47914e-24
1.27255e-22
1.05226e-24
-1.34309e-23
-6.10084e-24
-1.58887e-22
-1.03521e-23
-3.28378e-23
-5.20513e-23
-8.4016e-25
3.27646e-23
1.32028e-24
-1.11659e-24
-1.87601e-23
-1.01872e-24
-6.69459e-23
-4.72927e-24
3.84275e-23
-2.63701e-24
1.24925e-22
2.5279e-24
1.32862e-22
3.14439e-24
5.15947e-23
8.42604e-24
1.26433e-22
1.08976e-23
3.43024e-23
5.7655e-24
7.15869e-23
-8.70286e-25
-1.39074e-22
7.41138e-25
4.77413e-23
1.75515e-24
-1.2119e-22
5.706e-24
-3.16477e-23
-1.31472e-26
-8.25346e-23
3.01219e-24
3.02041e-23
8.34051e-24
4.01688e-23
1.19739e-23
5.94875e-23
8.72579e-24
-6.99591e-23
4.40784e-24
-9.51919e-23
1.94233e-24
-1.90318e-23
3.19696e-24
1.85664e-23
1.07375e-24
-1.30902e-22
-1.2081e-24
-5.0339e-23
-5.31614e-24
-1.00241e-22
-5.66291e-24
9.13824e-25
-6.44771e-24
-1.2753e-25
-6.57148e-24
4.04414e-23
-5.3166e-24
-1.33011e-23
-7.92245e-24
-6.15532e-23
-8.1922e-24
3.28982e-23
-4.39943e-24
8.24054e-23
-1.9879e-24
8.02472e-23
-3.56093e-24
4.253e-23
-1.03318e-24
2.61665e-23
2.17852e-24
1.05249e-22
4.12981e-24
2.52455e-23
2.35784e-24
2.9306e-24
-1.11706e-26
-1.76013e-24
-9.50571e-25
9.35962e-23
6.36895e-24
1.33371e-22
1.21972e-24
-5.94281e-24
-6.03809e-24
-1.4177e-22
-1.0189e-23
-4.61773e-23
-7.28882e-25
5.40687e-23
1.4294e-24
-1.13813e-24
-2.75683e-23
-9.37566e-25
-7.4825e-23
-4.60701e-24
5.90392e-23
-2.91773e-24
1.02538e-22
2.36288e-24
1.0753e-22
3.07728e-24
5.60783e-23
8.12573e-24
1.37978e-22
1.10704e-23
2.79124e-23
5.39908e-24
9.6913e-23
-1.14346e-24
-1.3864e-22
6.99344e-25
5.25845e-23
1.52954e-24
-8.46441e-23
5.54216e-24
-4.21178e-23
9.66789e-26
-5.81535e-23
2.86679e-24
3.12433e-23
8.087e-24
4.78147e-24
1.17197e-23
6.18762e-23
8.45071e-24
-9.45717e-23
4.68894e-24
-5.2015e-23
1.75031e-24
-1.8881e-23
2.97259e-24
1.86799e-23
9.46761e-25
-1.21165e-22
-1.04753e-24
-5.34227e-23
-5.18033e-24
-1.02636e-22
-5.5714e-24
3.03859e-25
-6.51953e-24
-3.30347e-23
-6.59764e-24
4.08773e-23
-5.28427e-24
-2.50353e-23
-7.93899e-24
-7.75766e-23
-7.81093e-24
1.24552e-25
-4.27846e-24
7.90562e-23
-1.97295e-24
9.83816e-23
-3.59768e-24
3.58723e-23
-1.07276e-24
3.44754e-23
2.18475e-24
1.01456e-22
4.09393e-24
5.76033e-23
2.60229e-24
4.32717e-23
-1.46574e-25
1.67441e-24
-8.82081e-25
9.75745e-23
6.10009e-24
1.0282e-22
1.22255e-24
-1.8889e-25
-5.86598e-24
-1.56286e-22
-2.99955e-23
-7.65661e-25
2.68974e-23
1.17923e-24
-1.34069e-24
-5.12746e-23
-6.40937e-25
-6.56267e-23
-4.57192e-24
5.27121e-24
-3.36873e-24
1.25858e-22
2.23942e-24
1.41195e-22
3.2292e-24
8.68197e-23
7.55533e-24
1.37628e-22
1.10278e-23
1.05311e-22
5.03908e-24
4.53043e-23
-1.44107e-24
-9.02338e-23
9.09253e-25
5.64587e-23
1.12238e-24
-5.75532e-23
5.68149e-24
-5.49807e-23
-3.9129e-26
-3.81729e-23
2.75742e-24
3.25601e-23
7.99062e-24
-1.21515e-23
1.15182e-23
1.164e-22
8.19904e-24
-9.8964e-23
4.74721e-24
-2.85924e-23
1.49697e-24
-3.40414e-23
2.76919e-24
1.76921e-23
8.50291e-25
-9.86718e-23
-9.49047e-25
-5.60615e-23
-5.00173e-24
-1.14086e-22
-5.62609e-24
-1.45446e-23
-6.41037e-24
-3.15147e-23
-6.66824e-24
2.79218e-23
-5.26179e-24
-2.75397e-23
-7.915e-24
-1.13886e-22
-7.33043e-24
1.163e-23
-4.11166e-24
7.41364e-23
-2.08443e-24
7.41037e-23
-3.72015e-24
3.60129e-23
-1.16503e-24
4.12785e-23
2.31493e-24
8.23644e-23
3.86937e-24
6.02528e-23
2.82125e-24
2.11427e-23
-4.52733e-25
-2.37127e-23
-9.57898e-25
6.69614e-23
6.35844e-24
1.57456e-22
1.14676e-24
-6.5918e-23
-5.54088e-24
-1.54265e-22
-7.40796e-23
-7.30445e-25
1.02484e-23
1.18903e-24
-1.46798e-24
-4.57454e-23
-7.58898e-25
-6.14448e-23
-4.41542e-24
3.86923e-23
-3.65893e-24
8.58276e-23
2.17016e-24
1.75569e-22
3.20412e-24
5.66605e-23
7.45686e-24
1.52757e-22
1.07189e-23
9.86633e-23
4.88183e-24
4.98998e-23
-1.95702e-24
-1.16066e-22
9.22537e-25
5.65716e-23
1.03301e-24
-5.72675e-23
5.66607e-24
-6.9168e-23
-8.54966e-26
-5.19058e-23
2.56418e-24
3.2962e-23
7.86676e-24
1.37776e-23
1.11641e-23
1.38988e-22
8.2095e-24
-1.21523e-22
4.7391e-24
-2.53012e-23
1.34701e-24
-6.84755e-23
2.57112e-24
1.69179e-23
7.33043e-25
-9.18109e-23
-8.73842e-25
-4.50402e-23
-4.81248e-24
-1.14797e-22
-5.70185e-24
-1.67441e-24
-6.34173e-24
-2.51891e-23
-6.72373e-24
6.62924e-24
-5.35557e-24
-8.85757e-24
-7.73255e-24
-1.11178e-22
-7.05071e-24
1.01617e-23
-4.01045e-24
6.83904e-23
-2.12181e-24
3.52019e-23
-3.70029e-24
1.97325e-23
-1.34202e-24
1.03551e-23
2.34095e-24
8.0085e-23
3.66674e-24
4.09998e-23
3.0081e-24
2.83636e-23
-4.03891e-25
-5.11254e-23
-8.86429e-25
8.19379e-23
6.10687e-24
1.52367e-22
1.35732e-24
-4.48878e-23
-5.5489e-24
-1.90431e-22
-2.9309e-23
-7.21321e-25
-2.04339e-23
1.48266e-24
-1.44833e-24
-5.48843e-23
-5.21674e-25
-4.01038e-23
-4.37359e-24
4.26827e-23
-3.70836e-24
8.96776e-23
1.92707e-24
1.76174e-22
3.21894e-24
8.43623e-23
7.59195e-24
1.82008e-22
1.03218e-23
9.42606e-23
4.67828e-24
5.1051e-23
-2.09295e-24
-1.11906e-22
5.67077e-25
3.8157e-23
7.69728e-25
-5.51263e-23
5.70328e-24
-8.11196e-23
-5.14282e-26
-4.07391e-23
2.49785e-24
1.4102e-23
7.81516e-24
2.39876e-23
1.06733e-23
1.04476e-22
8.10459e-24
-8.10024e-23
4.7e-24
-2.4338e-23
1.29402e-24
-6.45871e-23
2.3912e-24
1.94871e-23
6.49661e-25
-7.41006e-23
-9.06463e-25
-4.77034e-23
-4.55391e-24
-1.05553e-22
-5.75811e-24
-3.11362e-23
-6.33333e-24
-2.07804e-23
-6.66529e-24
3.09445e-23
-5.46338e-24
-6.3276e-24
-7.68727e-24
-1.07442e-22
-6.57379e-24
8.99811e-24
-4.05201e-24
6.54908e-23
-2.14618e-24
4.11492e-23
-3.76171e-24
1.86076e-23
-1.46463e-24
2.18909e-23
2.31034e-24
6.47774e-23
3.79392e-24
3.57563e-23
3.24172e-24
2.51883e-23
-4.38263e-25
-6.47114e-23
-7.43009e-25
1.12673e-22
5.82947e-24
1.46097e-22
1.10786e-24
-5.23291e-23
-5.32879e-24
-1.84997e-22
-5.72796e-23
-9.16634e-25
-5.17052e-23
1.67459e-24
-1.19328e-24
-4.71449e-23
-3.89646e-25
-6.80389e-23
-4.30716e-24
4.61404e-23
-4.13344e-24
5.04989e-23
1.72613e-24
1.64338e-22
3.51707e-24
1.13576e-22
7.14758e-24
1.80589e-22
9.90519e-24
7.72954e-23
4.52585e-24
5.0316e-23
-2.30632e-24
-1.37591e-22
4.46325e-25
5.08226e-23
6.14822e-25
-5.25553e-23
5.72229e-24
-6.12331e-23
-1.10231e-25
-6.12868e-23
2.48921e-24
-1.51798e-23
7.65225e-24
2.12939e-23
1.04008e-23
7.35261e-23
7.84853e-24
-9.52135e-23
4.698e-24
-6.86526e-24
1.20562e-24
-3.23874e-23
2.33512e-24
3.75663e-24
4.80272e-25
-8.58986e-23
-8.66059e-25
-5.26502e-23
-4.39569e-24
-9.3783e-23
-5.73498e-24
-2.9678e-23
-6.28024e-24
-1.68119e-23
-6.69935e-24
3.79632e-23
-5.54878e-24
1.16971e-23
-7.54681e-24
-6.18042e-23
-6.24236e-24
3.8e-23
-4.06769e-24
7.82208e-23
-2.20716e-24
7.66657e-23
-3.5568e-24
4.88411e-23
-1.85412e-24
1.05625e-23
2.60895e-24
7.68863e-23
3.7419e-24
3.18267e-23
3.00757e-24
3.80423e-23
-1.74226e-25
-6.28562e-23
-8.09353e-25
1.45459e-22
5.651e-24
1.38828e-22
1.15676e-24
-3.28294e-23
-5.18713e-24
-1.77949e-22
-5.74529e-23
-6.40045e-25
-5.49065e-23
2.00666e-24
-1.49013e-24
-7.04909e-23
-7.07329e-26
-3.87374e-23
-4.4351e-24
1.88755e-23
-4.33298e-24
2.77465e-23
1.41411e-24
1.00265e-22
3.46996e-24
9.83903e-23
6.81985e-24
1.33502e-22
9.69648e-24
7.37915e-23
3.99924e-24
5.19635e-23
-2.61821e-24
-1.17955e-22
5.51898e-25
4.80786e-23
4.64433e-25
-8.37999e-23
5.61436e-24
-2.16926e-23
-1.26606e-25
-8.4731e-23
2.40963e-24
1.34426e-24
7.37617e-24
3.49149e-23
1.02576e-23
4.00344e-23
7.64963e-24
-9.21708e-23
4.74327e-24
-7.33842e-24
1.03213e-24
-1.15918e-23
2.16211e-24
4.73337e-24
4.25387e-25
-8.28893e-23
-8.89976e-25
-5.80299e-23
-4.21772e-24
-6.82618e-23
-5.76568e-24
-2.97273e-23
-6.07179e-24
1.06804e-24
-6.80383e-24
1.96071e-23
-5.47142e-24
4.1295e-23
-7.45352e-24
-5.89938e-23
-6.01965e-24
3.48062e-23
-3.90596e-24
7.53103e-23
-2.34738e-24
5.36507e-23
-3.63641e-24
3.28753e-23
-1.87802e-24
4.20684e-24
2.75025e-24
1.04191e-22
3.47979e-24
1.49708e-23
3.05608e-24
6.64229e-23
3.40981e-26
-4.56256e-23
-6.86624e-25
1.76084e-22
5.24337e-24
1.01249e-22
1.24321e-24
-4.07667e-23
-4.81038e-24
-1.43362e-22
-7.25497e-23
-6.19702e-25
-5.87394e-23
2.24632e-24
-1.50285e-24
-7.88234e-23
5.78981e-26
-2.36278e-23
-4.50755e-24
-1.979e-23
-4.44658e-24
9.30533e-24
1.65788e-24
4.96194e-23
3.34248e-24
7.99638e-23
6.74685e-24
1.15565e-22
9.33688e-24
4.00958e-23
3.85987e-24
8.04862e-23
-2.77799e-24
-1.11134e-22
2.2842e-25
2.94481e-23
5.16832e-25
-7.3491e-23
5.31503e-24
-4.40097e-23
-9.18787e-26
-7.71246e-23
2.43639e-24
3.03972e-23
6.95901e-24
3.56575e-23
1.01992e-23
6.68006e-23
7.49161e-24
-8.85811e-23
4.82556e-24
-7.77299e-24
7.8401e-25
-2.19293e-23
1.9754e-24
-9.0037e-24
4.21294e-25
-4.99134e-23
-8.3749e-25
-5.9272e-23
-4.10191e-24
-6.97155e-23
-5.77612e-24
-3.05946e-23
-5.9616e-24
1.96579e-23
-6.77334e-24
5.35909e-24
-5.51363e-24
4.15275e-23
-7.29861e-24
-7.32979e-23
-5.78355e-24
1.52649e-23
-3.90617e-24
7.08243e-23
-2.55317e-24
3.48349e-23
-3.49058e-24
3.16154e-23
-2.10827e-24
-3.18717e-23
2.72218e-24
1.43355e-22
3.6916e-24
3.04031e-23
3.18778e-24
7.92744e-23
2.00177e-25
-4.42482e-23
-1.06014e-24
1.2e-22
4.98044e-24
6.56014e-23
1.34248e-24
-6.83635e-24
-4.97945e-24
-1.37698e-22
-4.30296e-23
-6.67071e-25
-8.98326e-23
2.47339e-24
-1.33028e-24
-8.56969e-23
1.61515e-26
1.22532e-24
-4.45754e-24
-5.50468e-23
-4.61858e-24
-2.05685e-23
1.73676e-24
4.19007e-23
3.12839e-24
7.91706e-23
6.56939e-24
1.29819e-22
9.27386e-24
6.71596e-23
3.44452e-24
8.23613e-23
-3.2306e-24
-1.02759e-22
1.80236e-25
2.82248e-23
3.22499e-25
-6.29732e-23
5.21106e-24
-6.38841e-23
4.17009e-26
-9.94838e-23
2.27709e-24
1.65281e-23
6.73021e-24
2.48341e-23
9.85893e-24
3.59746e-23
7.40329e-24
-6.95576e-23
4.87203e-24
-1.27126e-23
6.10001e-25
-9.87274e-24
1.92171e-24
-7.69927e-24
2.67199e-25
-6.2261e-23
-7.75986e-25
-4.57765e-23
-3.96842e-24
-6.883e-23
-5.71602e-24
-3.06717e-23
-5.94454e-24
6.37372e-24
-6.68437e-24
3.92808e-24
-5.60322e-24
4.18949e-23
-7.23324e-24
-7.16683e-23
-5.50751e-24
-4.86961e-24
-3.89543e-24
5.29298e-23
-2.61867e-24
7.87746e-23
-3.45577e-24
2.96975e-23
-2.10915e-24
-3.55599e-23
2.67062e-24
1.36994e-22
3.75206e-24
7.4221e-23
3.34619e-24
6.17393e-23
2.41755e-25
-4.32844e-23
-1.24607e-24
1.18854e-22
4.94451e-24
6.00146e-23
1.14091e-24
-2.90276e-23
-4.74564e-24
-1.4993e-22
-3.94955e-23
-8.33832e-25
-8.13493e-23
2.70226e-24
-1.20511e-24
-7.96043e-23
-1.1942e-25
1.57176e-24
-4.51391e-24
-4.90998e-23
-4.95629e-24
-3.55179e-23
1.83653e-24
3.23777e-23
3.10658e-24
7.95817e-23
6.40794e-24
1.15062e-22
9.27012e-24
6.89235e-23
3.04369e-24
4.44663e-23
-3.71874e-24
-9.22722e-23
1.55952e-25
4.18377e-23
-5.21408e-26
-6.40677e-23
5.19636e-24
-6.79489e-23
1.40455e-25
-1.20892e-22
2.23197e-24
7.72964e-24
6.49406e-24
2.37212e-24
9.67289e-24
6.63639e-24
7.15479e-24
-5.01155e-23
4.9324e-24
-1.52222e-23
4.14849e-25
-1.14527e-23
1.83103e-24
-6.44311e-24
2.21165e-25
-6.07361e-23
-7.83109e-25
-3.26428e-23
-3.80146e-24
-6.55421e-23
-5.72574e-24
-2.9499e-23
-5.853e-24
2.45332e-23
-6.64002e-24
5.01882e-24
-5.65814e-24
4.22655e-23
-7.14373e-24
-5.69338e-23
-5.25463e-24
-1.42345e-23
-3.74148e-24
3.47975e-23
-2.84087e-24
6.38323e-23
-3.46987e-24
4.21227e-23
-2.09821e-24
-3.71926e-23
2.83842e-24
1.57167e-22
3.56244e-24
7.91799e-23
3.42323e-24
6.05202e-23
3.23453e-25
-4.54704e-23
-1.39756e-24
1.03472e-22
4.77185e-24
8.23668e-23
9.80659e-25
3.20008e-23
-4.50844e-24
-1.48277e-22
-3.49124e-23
-8.24824e-25
-8.39851e-23
3.01424e-24
-1.30805e-24
-7.38551e-23
-4.19463e-26
-2.07916e-23
-4.85552e-24
-3.59141e-23
-5.02127e-24
2.64793e-23
1.88507e-24
1.23251e-23
3.07956e-24
4.46395e-23
6.14696e-24
1.14401e-22
8.82644e-24
3.41573e-23
2.93424e-24
2.19056e-23
-3.93241e-24
-8.01142e-23
-1.34278e-25
4.1124e-23
-1.97452e-25
-4.02326e-23
5.05985e-24
-4.51035e-23
2.35929e-25
-1.1653e-22
2.10488e-24
-3.98761e-23
6.32803e-24
-2.04253e-23
9.47634e-24
-2.32588e-23
7.07235e-24
-4.59326e-23
4.91566e-24
-2.13874e-23
2.12138e-25
-1.17339e-23
1.68682e-24
1.09437e-23
2.24057e-25
-7.14703e-23
-8.22184e-25
-4.52539e-23
-3.6355e-24
-6.25683e-23
-5.71538e-24
-2.86002e-23
-5.73204e-24
4.05057e-23
-6.61305e-24
6.49289e-24
-5.61022e-24
2.73899e-23
-7.13446e-24
-5.78571e-23
-5.08381e-24
5.05983e-24
-3.5653e-24
1.78492e-23
-3.03114e-24
7.84079e-23
-3.45422e-24
6.85981e-23
-2.06896e-24
-2.11471e-23
2.93449e-24
1.62796e-22
3.40531e-24
5.71264e-23
3.31848e-24
3.56176e-23
2.74949e-25
-4.83974e-23
-1.59487e-24
7.44977e-23
4.83591e-24
8.29764e-23
9.7718e-25
2.7765e-23
-4.34622e-24
-1.47285e-22
-7.26502e-24
-6.80986e-25
-6.4272e-23
3.3581e-24
-1.41839e-24
-7.95334e-23
1.35807e-25
3.36279e-24
-4.87771e-24
-6.55905e-23
-5.25249e-24
2.82291e-23
1.79943e-24
9.08739e-24
3.11826e-24
6.64611e-23
5.86544e-24
8.8393e-23
8.5026e-24
1.305e-23
2.68464e-24
-1.30812e-23
-4.3605e-24
-1.03291e-22
-2.87004e-25
5.8758e-23
-2.8651e-25
-3.21244e-23
4.8327e-24
-3.4516e-23
1.54811e-25
-1.12079e-22
2.03892e-24
-1.11217e-23
5.98265e-24
-4.25388e-23
9.51512e-24
2.08999e-24
6.9697e-24
-4.23468e-23
4.79093e-24
-1.28725e-23
1.82582e-25
2.26464e-25
1.49044e-24
1.33801e-23
2.3004e-25
-6.98634e-23
-8.29096e-25
-6.30732e-23
-3.49405e-24
-5.39645e-23
-5.64057e-24
-2.69861e-23
-5.6594e-24
4.09112e-23
-6.64901e-24
7.13322e-24
-5.58764e-24
2.60749e-23
-7.13261e-24
-7.08362e-23
-4.9071e-24
-1.70822e-23
-3.42047e-24
2.71338e-23
-3.08103e-24
6.59404e-23
-3.46631e-24
9.33592e-23
-1.96615e-24
-5.33721e-24
2.90576e-24
1.77183e-22
3.21831e-24
5.45643e-23
3.31256e-24
2.71897e-23
2.76642e-25
-7.1814e-23
-1.42788e-24
8.2955e-23
4.66893e-24
1.01456e-22
8.49216e-25
3.2758e-23
-4.13185e-24
-1.19946e-22
-7.92762e-24
-3.82994e-23
-3.92162e-23
-7.12917e-25
-3.22546e-23
3.64536e-24
-1.45294e-24
-5.92709e-23
4.23684e-26
1.39701e-23
-4.80165e-24
-5.99034e-23
-5.71518e-24
3.21079e-23
1.73259e-24
2.83852e-23
3.04297e-24
6.39011e-23
5.52642e-24
6.5783e-23
8.35129e-24
-7.4163e-24
2.51781e-24
-1.17971e-23
-4.60378e-24
-6.8227e-23
-4.15592e-25
8.75123e-23
-4.52888e-25
-2.20033e-23
4.65907e-24
-5.99071e-23
1.75943e-25
-1.1827e-22
1.84974e-24
-3.38059e-23
5.93948e-24
-2.908e-23
9.3883e-24
7.05565e-24
6.95235e-24
-3.788e-23
4.7238e-24
-1.63223e-23
2.93874e-26
-2.48929e-23
1.33317e-24
8.20578e-24
1.47219e-25
-5.5747e-23
-7.4435e-25
-6.27655e-23
-3.37291e-24
-7.66557e-23
-5.56333e-24
-2.40763e-23
-5.57513e-24
4.718e-23
-6.63269e-24
8.18564e-24
-5.62855e-24
4.99538e-23
-7.10947e-24
-6.01524e-23
-4.62989e-24
-1.21754e-23
-3.34413e-24
1.21607e-23
-3.16019e-24
5.86437e-23
-3.57136e-24
8.21233e-23
-2.00388e-24
2.06992e-23
2.84992e-24
1.58958e-22
3.06539e-24
7.07295e-23
3.29805e-24
1.65927e-23
2.83763e-25
-9.76561e-23
-1.54256e-24
5.86503e-23
4.41716e-24
1.07138e-22
7.51537e-25
3.4292e-23
-4.01214e-24
-7.09607e-23
-7.61982e-24
-4.52524e-23
-3.1886e-23
-6.34452e-25
-1.37732e-23
3.92114e-24
-1.32645e-24
-9.9653e-23
-8.30455e-27
5.33443e-24
-4.86708e-24
-1.01521e-22
-5.86897e-24
3.54009e-23
1.96272e-24
5.87049e-23
2.77532e-24
6.15758e-23
5.20539e-24
5.63902e-23
8.01711e-24
-1.15656e-23
2.10928e-24
-1.93288e-23
-4.78184e-24
-6.97179e-23
-5.44831e-25
8.05955e-23
-8.1049e-25
-2.30235e-23
4.60008e-24
-5.14339e-23
7.75424e-26
-1.15926e-22
1.6879e-24
-5.67197e-23
5.76685e-24
-3.91797e-23
9.10854e-24
1.56827e-23
6.91715e-24
-2.31566e-23
4.56853e-24
-2.76307e-23
-2.42207e-26
-2.769e-24
1.1485e-24
8.55024e-24
8.05292e-26
-5.9964e-23
-7.02956e-25
-7.48723e-23
-3.1847e-24
-8.49239e-23
-5.49858e-24
-2.65142e-23
-5.47508e-24
4.88521e-23
-6.61668e-24
-1.4908e-23
-5.6742e-24
3.72446e-23
-7.04028e-24
-5.87495e-23
-4.4414e-24
3.93773e-24
-3.07907e-24
-3.07248e-24
-3.15641e-24
1.40262e-23
-3.54316e-24
7.3295e-23
-2.12824e-24
3.33868e-23
2.88609e-24
1.63757e-22
2.85437e-24
6.06817e-23
3.23801e-24
2.96041e-23
4.22621e-25
-9.51862e-23
-1.50408e-24
6.86614e-23
4.3149e-24
7.88366e-23
8.0045e-25
3.03918e-23
-3.991e-24
-6.87172e-23
-7.4628e-24
-3.99905e-23
-8.10914e-23
-9.35305e-25
-4.54309e-24
4.11182e-24
-1.38746e-24
-1.53183e-22
-1.57633e-25
1.65366e-23
-4.86517e-24
-9.76422e-23
-6.26001e-24
-8.86345e-24
1.81441e-24
5.34422e-23
2.71423e-24
4.65117e-23
4.92068e-24
6.06809e-23
7.77604e-24
-8.81712e-24
1.85178e-24
-3.24555e-23
-4.95285e-24
-5.16246e-23
-6.93622e-25
1.07339e-22
-1.11835e-24
-2.47554e-23
4.43927e-24
-3.26761e-23
1.42313e-27
-1.2407e-22
1.49253e-24
-6.66075e-23
5.65295e-24
-3.68237e-23
9.04559e-24
1.08222e-23
6.71946e-24
-3.25894e-23
4.5162e-24
-2.93267e-23
-1.7121e-25
-1.73546e-23
1.03363e-24
2.0564e-23
-5.08206e-26
-5.79256e-23
-6.60081e-25
-7.54716e-23
-2.98296e-24
-8.33311e-23
-5.39575e-24
-2.35118e-23
-5.40208e-24
5.12812e-23
-6.56351e-24
-2.54437e-23
-5.67427e-24
3.23042e-23
-6.90962e-24
-5.38457e-23
-4.35818e-24
-4.11287e-24
-3.01247e-24
4.37685e-24
-3.11498e-24
1.54286e-23
-3.4837e-24
7.63638e-23
-2.15006e-24
4.45866e-23
2.80349e-24
1.58562e-22
2.70533e-24
7.72804e-23
3.06505e-24
2.16814e-23
5.28575e-25
-1.00894e-22
-1.54524e-24
2.09874e-23
4.16847e-24
7.23308e-23
6.85822e-25
3.35351e-23
-4.12835e-24
-6.65339e-23
-7.14333e-24
-2.84837e-23
-1.0603e-24
-2.58284e-23
4.23368e-24
-1.13657e-24
-1.10553e-22
-7.66164e-26
1.71588e-23
-4.95274e-24
-1.16331e-22
-6.20351e-24
1.55737e-23
1.60703e-24
5.5483e-23
2.72138e-24
4.20492e-23
4.3951e-24
4.21615e-23
7.44027e-24
-8.54099e-24
1.65555e-24
-4.23114e-23
-5.15871e-24
-4.22031e-23
-1.00838e-24
9.71638e-23
-1.34725e-24
7.57839e-24
4.24173e-24
-3.55573e-23
-1.24692e-25
-1.20415e-22
1.41715e-24
-7.57168e-23
5.47019e-24
-6.91717e-23
8.91131e-24
1.63577e-23
6.62213e-24
-1.20507e-23
4.33427e-24
-4.22033e-23
-1.75262e-25
-3.34666e-23
8.28846e-25
2.14639e-23
-1.34657e-25
-6.29148e-23
-6.14733e-25
-7.51274e-23
-2.78789e-24
-7.22544e-23
-5.28621e-24
-4.06679e-23
-5.36889e-24
4.19309e-23
-6.49391e-24
-2.7311e-23
-5.66872e-24
2.87045e-23
-6.84131e-24
-5.35643e-23
-4.2258e-24
-1.28056e-23
-2.8966e-24
1.35799e-24
-3.06481e-24
4.01507e-24
-3.39932e-24
8.91763e-23
-2.22388e-24
7.97527e-23
2.69428e-24
1.64388e-22
2.52694e-24
8.76058e-23
2.98527e-24
1.40818e-23
5.21056e-25
-7.45137e-23
-1.43144e-24
2.2765e-23
4.0434e-24
7.53172e-23
7.02599e-25
1.56669e-23
-4.21762e-24
-8.56353e-23
-2.24095e-23
-1.05187e-24
-1.97354e-24
4.51509e-24
-1.20236e-24
-1.16795e-22
-1.55787e-25
-5.22457e-24
-4.97093e-24
-1.02952e-22
-6.38116e-24
1.43659e-23
1.45871e-24
3.73909e-23
2.4459e-24
3.56747e-23
4.02246e-24
1.33902e-23
7.23382e-24
-8.76744e-24
1.52194e-24
-4.98185e-23
-5.38642e-24
-5.79539e-23
-1.17486e-24
1.1149e-22
-1.67501e-24
-1.49337e-23
3.94739e-24
-3.81162e-23
-2.46443e-25
-9.22401e-23
1.23133e-24
-6.39596e-23
5.45622e-24
-6.78308e-23
8.84942e-24
4.49404e-23
6.42081e-24
-1.33645e-23
4.17157e-24
-2.55127e-23
-1.42266e-25
-2.9773e-23
6.05754e-25
1.39824e-23
-2.08083e-25
-4.10811e-23
-5.54877e-25
-7.49512e-23
-2.6629e-24
-6.94052e-23
-5.14598e-24
-2.41879e-23
-5.30891e-24
4.38635e-23
-6.417e-24
-1.70243e-23
-5.6284e-24
2.61824e-23
-6.78288e-24
-4.91847e-23
-4.17086e-24
-3.02323e-23
-2.7668e-24
9.48181e-24
-3.05821e-24
7.06296e-24
-3.32486e-24
9.031e-23
-2.32104e-24
5.7404e-23
2.6698e-24
1.59135e-22
2.29523e-24
9.20761e-23
2.89947e-24
-6.51278e-24
5.43708e-25
-7.16377e-23
-1.5161e-24
3.61128e-23
3.91018e-24
3.81088e-23
5.88593e-25
-2.01253e-24
-4.13071e-24
-7.35421e-23
-2.36598e-23
-1.30384e-24
-4.4692e-24
4.70193e-24
-1.14678e-24
-1.00492e-22
-1.55001e-25
-2.53193e-23
-5.07236e-24
-7.26537e-23
-6.42452e-24
4.79794e-23
1.39248e-24
2.91035e-23
2.13234e-24
3.07029e-23
3.59857e-24
1.84077e-23
7.01136e-24
-2.07784e-23
1.23407e-24
-2.30423e-23
-5.37896e-24
-3.05404e-23
-1.43615e-24
7.34399e-23
-1.91717e-24
-2.3557e-23
3.76125e-24
-3.99498e-23
-3.43171e-25
-8.77968e-23
9.8133e-25
-6.35253e-23
5.46765e-24
-4.29283e-23
8.65349e-24
3.90256e-23
6.20508e-24
-1.39805e-23
4.04156e-24
7.58926e-24
-2.08637e-25
-2.5836e-23
4.64293e-25
1.47832e-23
-3.176e-25
-4.02524e-23
-4.96267e-25
-7.26036e-23
-2.51343e-24
-5.54362e-23
-5.0361e-24
-3.00581e-23
-5.20698e-24
4.80226e-23
-6.337e-24
-1.65286e-23
-5.63023e-24
2.37156e-23
-6.6879e-24
-5.35137e-23
-4.06164e-24
-5.96176e-23
-2.64949e-24
2.76641e-23
-2.98527e-24
7.7599e-24
-3.35274e-24
6.94541e-23
-2.30145e-24
4.70586e-23
2.5037e-24
1.53179e-22
1.98411e-24
9.18398e-23
2.86369e-24
-6.31582e-24
5.69205e-25
-4.81393e-23
-1.70658e-24
4.01862e-23
3.82078e-24