/*--------------------------------*- C++ -*----------------------------------*\
  =========                 |
  \\      /  F ield         | OpenFOAM: The Open Source CFD Toolbox
   \\    /   O peration     | Website:  https://openfoam.org
    \\  /    A nd           | Version:  7
     \\/     M anipulation  |
\*---------------------------------------------------------------------------*/
FoamFile
{
    version     2.0;
    format      ascii;
    class       volVectorField;
    location    "244000";
    object      U;
}
// * * * * * * * * * * * * * * * * * * * * * * * * * * * * * * * * * * * * * //

dimensions      [0 1 -1 0 0 0 0];

internalField   nonuniform List<vector> 
4850
(
(-8.98564e-19 -2.39464e-19 -0.01543)
(-6.95193e-19 -1.43756e-19 -0.0154447)
(-1.04175e-18 -1.02547e-19 -0.0154013)
(-8.7721e-19 1.35051e-19 -0.0154163)
(-4.07605e-19 3.63992e-19 -0.0154306)
(-8.91286e-19 3.61775e-20 -0.015372)
(-1.02951e-18 2.2262e-19 -0.0153873)
(-5.45492e-19 3.24351e-19 -0.0154019)
(-2.86833e-19 6.15062e-19 -0.015416)
(-5.26475e-20 6.58015e-19 -0.0154295)
(-8.39399e-19 1.96317e-19 -0.0153422)
(-1.04997e-18 2.3302e-19 -0.0153577)
(-6.03887e-19 3.3153e-19 -0.0153726)
(-3.93431e-19 6.68741e-19 -0.015387)
(-7.21542e-20 6.51345e-19 -0.0154007)
(-2.02797e-20 8.8575e-19 -0.0154139)
(-9.20559e-19 4.29805e-19 -0.0153118)
(-1.20178e-18 2.72808e-19 -0.0153275)
(-7.44578e-19 4.3356e-19 -0.0153427)
(-4.55673e-19 7.08543e-19 -0.0153573)
(-2.00423e-19 7.79937e-19 -0.0153713)
(1.05562e-19 9.2504e-19 -0.0153848)
(-1.31869e-19 1.1683e-18 -0.0153976)
(-7.40756e-19 5.94522e-20 -0.0152809)
(-1.1955e-18 1.50751e-19 -0.0152969)
(-9.56342e-19 6.85989e-19 -0.0153123)
(-5.18063e-19 6.89068e-19 -0.0153271)
(-3.1947e-19 8.7353e-19 -0.0153414)
(2.45548e-20 1.07775e-18 -0.015355)
(2.77677e-20 1.1748e-18 -0.0153681)
(-1.65877e-19 1.39918e-18 -0.0153805)
(-5.01665e-19 9.86918e-19 -0.0153923)
(-6.06481e-19 -2.63435e-19 -0.0152495)
(-9.89652e-19 3.33123e-19 -0.0152657)
(-1.06041e-18 8.56116e-19 -0.0152813)
(-7.20938e-19 7.9748e-19 -0.0152964)
(-3.48822e-19 9.84554e-19 -0.0153109)
(-4.26704e-20 1.28426e-18 -0.0153248)
(-9.05156e-21 1.34604e-18 -0.015338)
(-1.96148e-19 1.06333e-18 -0.0153507)
(-4.20965e-19 4.51366e-19 -0.0153627)
(-4.26816e-19 7.33116e-19 -0.015374)
(-7.51402e-19 1.95561e-19 -0.0152176)
(-8.47418e-19 5.66368e-19 -0.015234)
(-1.00021e-18 8.03201e-19 -0.0152499)
(-9.57081e-19 1.04082e-18 -0.0152651)
(-4.48716e-19 1.046e-18 -0.0152798)
(-7.4009e-20 1.4172e-18 -0.0152939)
(-1.09005e-19 1.31948e-18 -0.0153074)
(-2.87533e-19 7.07812e-19 -0.0153203)
(-4.92847e-19 4.46738e-19 -0.0153325)
(-3.17544e-19 6.07397e-19 -0.015344)
(-3.16656e-19 6.50414e-19 -0.0153549)
(-4.3134e-19 6.83068e-19 -0.0153651)
(-6.95206e-20 2.86179e-19 -0.0153745)
(-2.34476e-19 8.62975e-20 -0.0153833)
(-8.24219e-19 4.03935e-19 -0.0151852)
(-7.96165e-19 5.08297e-19 -0.0152018)
(-7.71075e-19 5.93077e-19 -0.0152179)
(-8.73973e-19 7.78428e-19 -0.0152334)
(-5.04167e-19 9.66125e-19 -0.0152483)
(-6.64066e-20 1.35057e-18 -0.0152626)
(-1.81761e-19 1.03972e-18 -0.0152763)
(-3.69975e-19 5.38368e-19 -0.0152893)
(-5.43168e-19 4.75446e-19 -0.0153017)
(-3.58065e-19 4.93495e-19 -0.0153134)
(-2.32045e-19 3.42626e-19 -0.0153245)
(-4.22881e-19 4.23432e-19 -0.0153348)
(-2.90497e-19 4.01269e-19 -0.0153445)
(-2.73677e-19 1.12646e-19 -0.0153534)
(-5.89677e-19 2.09819e-19 -0.0153616)
(-7.6492e-19 2.00193e-19 -0.0153691)
(-1.06113e-18 5.19528e-19 -0.0153759)
(-7.22206e-19 8.69621e-19 -0.0153819)
(-7.95903e-19 3.3757e-19 -0.0151523)
(-8.22129e-19 5.24312e-19 -0.0151692)
(-7.65025e-19 4.51598e-19 -0.0151854)
(-7.07485e-19 5.09253e-19 -0.0152011)
(-4.51535e-19 9.42543e-19 -0.0152162)
(-3.91146e-20 1.13295e-18 -0.0152307)
(-1.6681e-19 6.77697e-19 -0.0152446)
(-4.21044e-19 4.54896e-19 -0.0152578)
(-5.6467e-19 3.74069e-19 -0.0152704)
(-4.40252e-19 3.68807e-19 -0.0152823)
(-2.72028e-19 2.5239e-19 -0.0152935)
(-3.00177e-19 1.65311e-19 -0.015304)
(-3.68238e-19 5.51467e-19 -0.0153139)
(-3.78351e-19 2.83677e-19 -0.0153229)
(-6.561e-19 4.47764e-19 -0.0153313)
(-7.00593e-19 1.65833e-19 -0.0153389)
(-9.39752e-19 5.66351e-19 -0.0153458)
(-8.00426e-19 6.26553e-19 -0.0153519)
(-4.38875e-20 2.03573e-19 -0.0153573)
(-2.60958e-19 4.60308e-19 -0.0153619)
(-7.73185e-19 2.99825e-19 -0.015119)
(-8.27274e-19 5.2016e-19 -0.0151361)
(-8.08709e-19 4.16926e-19 -0.0151525)
(-7.30353e-19 5.4861e-19 -0.0151684)
(-4.32585e-19 8.55856e-19 -0.0151837)
(-8.97337e-20 8.85553e-19 -0.0151984)
(-3.32657e-20 1.07096e-19 -0.0152125)
(-3.89499e-19 3.27049e-19 -0.0152259)
(-5.85636e-19 2.87818e-19 -0.0152386)
(-5.03996e-19 3.5103e-19 -0.0152507)
(-3.72735e-19 2.03876e-19 -0.0152621)
(-2.11442e-19 6.68266e-20 -0.0152727)
(-2.62235e-19 3.88839e-19 -0.0152827)
(-3.15724e-19 7.81755e-20 -0.0152919)
(-7.4412e-19 5.81471e-19 -0.0153004)
(-7.32546e-19 1.78225e-19 -0.0153081)
(-8.92404e-19 4.80446e-19 -0.0153151)
(-9.65981e-19 2.76716e-19 -0.0153213)
(-1.23138e-19 -1.30386e-19 -0.0153268)
(-5.29787e-20 8.96283e-20 -0.0153315)
(-2.26128e-19 5.40281e-19 -0.0153354)
(-4.682e-20 7.4995e-19 -0.0153385)
(-6.3313e-19 3.20463e-19 -0.0153409)
(-5.37017e-19 -2.39437e-19 -0.0153425)
(-6.44117e-19 1.24644e-19 -0.0150853)
(-8.37613e-19 5.47259e-19 -0.0151025)
(-8.24466e-19 3.8148e-19 -0.0151191)
(-7.7533e-19 6.29384e-19 -0.0151352)
(-4.95857e-19 8.35678e-19 -0.0151507)
(-2.99175e-19 6.63592e-19 -0.0151656)
(-6.28419e-20 -7.65811e-20 -0.0151798)
(-2.08622e-19 2.9377e-19 -0.0151934)
(-5.6789e-19 2.77995e-19 -0.0152063)
(-5.57454e-19 2.48097e-19 -0.0152185)
(-4.57187e-19 4.84723e-20 -0.0152301)
(-2.36372e-19 8.71812e-21 -0.0152409)
(-2.57918e-19 8.5234e-20 -0.015251)
(-1.38595e-19 -1.80852e-19 -0.0152604)
(-6.19082e-19 4.96316e-19 -0.015269)
(-8.15636e-19 2.60044e-19 -0.0152768)
(-8.68763e-19 1.85794e-19 -0.0152839)
(-1.16366e-18 1.30456e-19 -0.0152902)
(-2.1492e-19 -1.16419e-19 -0.0152958)
(5.88531e-20 2.69318e-19 -0.0153005)
(-1.6711e-19 3.80069e-19 -0.0153045)
(-9.74905e-20 1.86648e-19 -0.0153077)
(-7.52405e-19 -1.44114e-19 -0.0153101)
(-5.73125e-19 -2.38105e-19 -0.0153117)
(-2.54408e-19 -1.76388e-21 -0.0153125)
(-2.29295e-18 2.85338e-19 -0.0153125)
(-3.56305e-18 5.30241e-19 -0.0153117)
(-2.08846e-18 6.60464e-19 -0.0153101)
(-1.4977e-18 5.31626e-19 -0.0153077)
(-5.907e-19 1.60215e-19 -0.0150511)
(-7.87369e-19 6.33142e-19 -0.0150685)
(-9.31471e-19 5.34685e-19 -0.0150853)
(-8.41116e-19 7.96808e-19 -0.0151016)
(-6.57793e-19 9.64451e-19 -0.0151172)
(-5.72918e-19 7.36296e-19 -0.0151323)
(-3.35857e-19 2.63324e-19 -0.0151467)
(-2.21921e-19 4.45725e-19 -0.0151604)
(-5.65768e-19 2.09753e-19 -0.0151735)
(-6.10198e-19 7.97592e-20 -0.0151859)
(-5.29128e-19 -4.49597e-20 -0.0151976)
(-2.52625e-19 -3.17697e-20 -0.0152086)
(-3.00837e-19 3.23633e-22 -0.0152188)
(-7.52521e-20 -7.08898e-20 -0.0152283)
(-4.22657e-19 2.58102e-19 -0.015237)
(-9.67697e-19 4.65035e-19 -0.015245)
(-9.06479e-19 4.66857e-20 -0.0152522)
(-1.26236e-18 3.33702e-19 -0.0152586)
(-2.74246e-19 3.05297e-19 -0.0152642)
(9.20423e-20 5.84146e-19 -0.015269)
(-2.63227e-19 4.11098e-19 -0.0152731)
(-2.50418e-19 4.30621e-19 -0.0152763)
(-7.97079e-19 -1.6149e-19 -0.0152787)
(-4.8587e-19 7.46184e-20 -0.0152803)
(-1.50312e-19 2.28589e-19 -0.0152811)
(-2.23514e-18 2.92298e-19 -0.0152811)
(-3.48602e-18 6.93996e-19 -0.0152803)
(-2.06391e-18 1.35353e-18 -0.0152787)
(-1.5703e-18 1.02818e-18 -0.0152763)
(-2.27647e-18 1.06965e-18 -0.0152731)
(-1.69704e-18 7.6016e-19 -0.015269)
(-1.77183e-18 3.59092e-19 -0.0152642)
(-6.74539e-19 4.61022e-19 -0.0150165)
(-6.33095e-19 5.52421e-19 -0.0150341)
(-9.50341e-19 6.4362e-19 -0.0150511)
(-9.41385e-19 1.00293e-18 -0.0150675)
(-7.61311e-19 1.07143e-18 -0.0150833)
(-7.49302e-19 7.10134e-19 -0.0150986)
(-5.36751e-19 4.07612e-19 -0.0151131)
(-2.97032e-19 4.58726e-19 -0.015127)
(-6.03917e-19 1.94121e-20 -0.0151403)
(-6.66875e-19 1.38356e-21 -0.0151528)
(-6.32832e-19 1.00954e-20 -0.0151646)
(-3.00732e-19 -1.84289e-20 -0.0151757)
(-3.17761e-19 -2.20213e-20 -0.0151861)
(-1.1422e-19 9.91686e-20 -0.0151957)
(-1.5034e-19 -1.52823e-19 -0.0152046)
(-9.67401e-19 4.99614e-19 -0.0152126)
(-9.57027e-19 1.04655e-19 -0.0152199)
(-1.29041e-18 7.48103e-19 -0.0152264)
(-3.92806e-19 8.26517e-19 -0.0152321)
(3.9086e-20 6.65615e-19 -0.015237)
(-2.48883e-19 5.08428e-19 -0.0152411)
(-3.93462e-19 7.9136e-19 -0.0152444)
(-9.23925e-19 2.19518e-20 -0.0152468)
(-4.1371e-19 2.98361e-19 -0.0152485)
(-1.45346e-19 2.05355e-19 -0.0152493)
(-2.20566e-18 3.57989e-19 -0.0152493)
(-3.24952e-18 6.68214e-19 -0.0152485)
(-1.93255e-18 2.05871e-18 -0.0152468)
(-1.70091e-18 1.39689e-18 -0.0152444)
(-2.34414e-18 1.48555e-18 -0.0152411)
(-1.83954e-18 1.37521e-18 -0.015237)
(-2.18518e-18 1.43109e-18 -0.0152321)
(-1.54758e-18 -7.25036e-19 -0.0152264)
(-6.02237e-18 2.70004e-18 -0.0152199)
(-8.38626e-19 6.58808e-19 -0.0149816)
(-5.67751e-19 4.49284e-19 -0.0149993)
(-7.40977e-19 5.72436e-19 -0.0150164)
(-9.09558e-19 1.03152e-18 -0.015033)
(-8.02971e-19 8.18977e-19 -0.015049)
(-8.2452e-19 4.53007e-19 -0.0150644)
(-6.39515e-19 3.35107e-19 -0.0150791)
(-3.38804e-19 2.5215e-19 -0.0150932)
(-5.6287e-19 -2.58919e-19 -0.0151066)
(-6.6282e-19 -1.01345e-22 -0.0151192)
(-7.20803e-19 8.30232e-20 -0.0151312)
(-4.29305e-19 1.48198e-19 -0.0151424)
(-3.37604e-19 5.15034e-20 -0.0151529)
(-2.68423e-19 2.3084e-19 -0.0151627)
(-6.98844e-21 -4.36523e-19 -0.0151716)
(-7.70885e-19 2.28657e-19 -0.0151798)
(-8.52785e-19 1.08868e-19 -0.0151872)
(-1.13949e-18 7.33295e-19 -0.0151937)
(-5.47697e-19 9.15791e-19 -0.0151995)
(-8.45137e-20 6.36514e-19 -0.0152045)
(-2.0589e-19 4.99841e-19 -0.0152086)
(-4.69228e-19 6.736e-19 -0.0152119)
(-1.04301e-18 1.33492e-19 -0.0152144)
(-4.07144e-19 2.32307e-19 -0.0152161)
(-1.06872e-19 2.0765e-19 -0.0152169)
(-2.14361e-18 3.38786e-19 -0.0152169)
(-2.89193e-18 6.18394e-19 -0.0152161)
(-1.78373e-18 1.96554e-18 -0.0152144)
(-1.92037e-18 1.67281e-18 -0.0152119)
(-2.42565e-18 1.63591e-18 -0.0152086)
(-1.85444e-18 1.57404e-18 -0.0152045)
(-2.65853e-18 2.21618e-18 -0.0151995)
(-1.66886e-18 -1.291e-19 -0.0151937)
(-8.3106e-18 2.89126e-18 -0.0151872)
(-8.89611e-19 6.86915e-19 -0.0149462)
(-5.4692e-19 2.18469e-19 -0.0149641)
(-5.61462e-19 4.40565e-19 -0.0149814)
(-8.2266e-19 8.90384e-19 -0.0149981)
(-7.36389e-19 4.19354e-19 -0.0150143)
(-8.23673e-19 2.30414e-19 -0.0150298)
(-7.28681e-19 2.53555e-19 -0.0150447)
(-4.53602e-19 8.93295e-20 -0.0150589)
(-6.35753e-19 -1.71221e-19 -0.0150724)
(-5.76006e-19 -7.16918e-21 -0.0150852)
(-7.10399e-19 8.73751e-20 -0.0150973)
(-5.2146e-19 2.70832e-19 -0.0151087)
(-3.84961e-19 9.88407e-20 -0.0151193)
(-4.26343e-19 1.90676e-19 -0.0151291)
(-5.25322e-20 -4.32948e-19 -0.0151382)
(-5.81461e-19 -1.37647e-20 -0.0151465)
(-7.56188e-19 1.75427e-20 -0.0151539)
(-9.36328e-19 1.59384e-19 -0.0151606)
(-4.95599e-19 3.89282e-19 -0.0151664)
(-1.87772e-19 6.64279e-19 -0.0151715)
(-2.15387e-19 4.26844e-19 -0.0151757)
(-5.00713e-19 4.00071e-19 -0.015179)
(-1.14106e-18 1.88517e-19 -0.0151815)
(-3.78291e-19 1.96301e-19 -0.0151832)
(-7.7923e-20 2.46337e-19 -0.0151841)
(-2.13034e-18 -8.38866e-20 -0.0151841)
(-2.6798e-18 6.53232e-19 -0.0151832)
(-1.59875e-18 1.4005e-18 -0.0151815)
(-1.98034e-18 1.64071e-18 -0.015179)
(-2.57654e-18 1.42475e-18 -0.0151757)
(-1.80962e-18 1.71527e-18 -0.0151715)
(-3.0759e-18 2.10503e-18 -0.0151664)
(-2.01507e-18 7.46196e-19 -0.0151606)
(-1.26551e-17 2.81782e-18 -0.0151539)
(-8.68341e-19 5.61337e-19 -0.0149104)
(-5.71618e-19 4.462e-20 -0.0149285)
(-3.64897e-19 4.00958e-19 -0.0149459)
(-7.72956e-19 7.5423e-19 -0.0149628)
(-7.28546e-19 6.32154e-20 -0.0149791)
(-8.26759e-19 1.6649e-19 -0.0149948)
(-7.86205e-19 1.93719e-19 -0.0150098)
(-5.21982e-19 9.75377e-20 -0.0150242)
(-8.03874e-19 1.30225e-19 -0.0150378)
(-5.57797e-19 -1.68186e-19 -0.0150508)
(-6.26337e-19 -7.36516e-20 -0.015063)
(-5.22212e-19 1.27559e-19 -0.0150745)
(-4.2425e-19 3.9249e-20 -0.0150852)
(-5.33865e-19 8.09376e-20 -0.0150952)
(-1.23008e-19 -3.71049e-19 -0.0151043)
(-4.69324e-19 -1.60322e-19 -0.0151127)
(-7.78346e-19 -4.25991e-20 -0.0151202)
(-9.05765e-19 -1.96161e-19 -0.015127)
(-3.15458e-19 1.09251e-19 -0.0151329)
(-1.37156e-19 8.26176e-19 -0.015138)
(-2.99757e-19 3.66334e-19 -0.0151422)
(-4.993e-19 8.14687e-20 -0.0151456)
(-1.15525e-18 2.29802e-19 -0.0151482)
(-3.94621e-19 5.05541e-19 -0.0151499)
(-2.02585e-19 2.17907e-19 -0.0151507)
(-2.07045e-18 -3.52177e-19 -0.0151507)
(-2.36784e-18 9.70021e-19 -0.0151499)
(-1.4961e-18 1.14796e-18 -0.0151482)
(-2.10373e-18 1.35701e-18 -0.0151456)
(-2.62059e-18 1.1157e-18 -0.0151422)
(-1.80092e-18 1.90892e-18 -0.015138)
(-3.43618e-18 1.67638e-18 -0.0151329)
(-2.44201e-18 1.84663e-18 -0.015127)
(-1.53625e-17 5.13474e-18 -0.0151202)
(-8.36553e-19 4.56345e-19 -0.0148743)
(-7.23495e-19 6.26603e-20 -0.0148925)
(-2.59478e-19 3.73967e-19 -0.0149101)
(-6.46176e-19 4.28409e-19 -0.0149271)
(-7.18598e-19 -1.43559e-19 -0.0149435)
(-8.14155e-19 1.81254e-19 -0.0149594)
(-7.9866e-19 4.2612e-20 -0.0149745)
(-6.00901e-19 2.36609e-19 -0.014989)
(-9.47676e-19 1.89959e-19 -0.0150028)
(-6.56536e-19 -2.73155e-19 -0.0150159)
(-6.57807e-19 8.26135e-20 -0.0150282)
(-4.52032e-19 -7.53318e-20 -0.0150398)
(-4.17643e-19 -1.31714e-21 -0.0150507)
(-6.38946e-19 5.05146e-20 -0.0150607)
(-2.34988e-19 -2.66567e-19 -0.01507)
(-4.25004e-19 -4.49932e-21 -0.0150785)
(-7.76998e-19 -4.61892e-20 -0.0150861)
(-9.565e-19 5.79375e-20 -0.0150929)
(-2.00371e-19 5.90039e-19 -0.0150989)
(-1.5194e-19 1.06039e-18 -0.015104)
(-5.10584e-19 3.7567e-19 -0.0151083)
(-4.85493e-19 -2.43512e-19 -0.0151118)
(-9.90308e-19 2.43354e-19 -0.0151143)
(-4.12152e-19 9.61999e-19 -0.0151161)
(-4.15433e-19 2.90371e-19 -0.0151169)
(-1.90173e-18 -9.22249e-20 -0.0151169)
(-2.13887e-18 1.12433e-18 -0.0151161)
(-1.55003e-18 1.04367e-18 -0.0151143)
(-2.2036e-18 1.25583e-18 -0.0151118)
(-2.52674e-18 1.26288e-18 -0.0151083)
(-1.83233e-18 1.99455e-18 -0.015104)
(-3.49282e-18 1.78168e-18 -0.0150989)
(-1.90745e-18 2.83434e-18 -0.0150929)
(-1.21734e-17 6.6563e-18 -0.0150861)
(-6.45351e-19 1.74076e-19 -0.0148378)
(-8.64108e-19 8.15267e-20 -0.0148561)
(-2.74426e-19 3.42042e-19 -0.0148739)
(-4.67153e-19 -1.07943e-20 -0.014891)
(-7.22255e-19 -1.81202e-19 -0.0149076)
(-7.72305e-19 7.92376e-20 -0.0149236)
(-8.17742e-19 4.54524e-20 -0.0149389)
(-6.39712e-19 4.14747e-19 -0.0149535)
(-1.07564e-18 1.75478e-19 -0.0149674)
(-8.02633e-19 5.91688e-20 -0.0149806)
(-8.31018e-19 4.68014e-19 -0.0149931)
(-4.47462e-19 -4.79116e-19 -0.0150048)
(-3.764e-19 -1.90595e-20 -0.0150157)
(-7.20288e-19 1.22499e-19 -0.0150259)
(-3.06948e-19 2.15856e-20 -0.0150352)
(-4.62425e-19 2.74254e-19 -0.0150438)
(-7.81609e-19 6.71654e-20 -0.0150515)
(-8.83817e-19 5.19317e-19 -0.0150584)
(-1.49739e-19 1.09743e-18 -0.0150644)
(-2.16472e-19 8.20694e-19 -0.0150696)
(-8.24311e-19 3.76808e-19 -0.015074)
(-5.17902e-19 -2.77863e-19 -0.0150774)
(-6.90928e-19 3.45104e-19 -0.01508)
(-3.9147e-19 9.98062e-19 -0.0150818)
(-6.2099e-19 4.62725e-19 -0.0150827)
(-1.79515e-18 2.22923e-19 -0.0150827)
(-1.99695e-18 9.582e-19 -0.0150818)
(-1.55209e-18 1.0657e-18 -0.01508)
(-2.1859e-18 1.42871e-18 -0.0150774)
(-2.41111e-18 1.70937e-18 -0.015074)
(-1.85055e-18 2.09925e-18 -0.0150696)
(-3.28919e-18 2.34242e-18 -0.0150644)
(-1.48426e-18 3.62945e-18 -0.0150584)
(-8.46791e-18 5.58639e-18 -0.0150515)
(-3.51135e-19 -2.28379e-19 -0.0148009)
(-8.90344e-19 1.16412e-19 -0.0148194)
(-3.81699e-19 2.51454e-19 -0.0148373)
(-3.66675e-19 -3.01114e-19 -0.0148546)
(-7.23329e-19 -7.90639e-20 -0.0148713)
(-7.0541e-19 1.627e-20 -0.0148874)
(-8.39103e-19 1.72558e-19 -0.0149028)
(-7.15462e-19 5.82073e-19 -0.0149175)
(-1.19031e-18 3.65095e-19 -0.0149316)
(-9.70482e-19 5.71048e-19 -0.0149449)
(-1.12815e-18 5.45661e-19 -0.0149575)
(-6.00946e-19 -5.71044e-19 -0.0149693)
(-2.21243e-19 6.21614e-20 -0.0149804)
(-7.27061e-19 2.25058e-19 -0.0149906)
(-3.79193e-19 2.74014e-19 -0.0150001)
(-4.91223e-19 4.31975e-19 -0.0150087)
(-8.08137e-19 5.15465e-19 -0.0150165)
(-8.03891e-19 9.03356e-19 -0.0150234)
(-2.61418e-19 1.34621e-18 -0.0150295)
(-3.36651e-19 5.07657e-19 -0.0150348)
(-9.66471e-19 4.85882e-19 -0.0150392)
(-5.41297e-19 4.28489e-20 -0.0150427)
(-5.10701e-19 5.42763e-19 -0.0150453)
(-3.47375e-19 7.19845e-19 -0.0150471)
(-7.23034e-19 5.62935e-19 -0.0150479)
(-1.75838e-18 4.37236e-19 -0.0150479)
(-1.89281e-18 9.75385e-19 -0.0150471)
(-1.47599e-18 1.02756e-18 -0.0150453)
(-2.11262e-18 1.32394e-18 -0.0150427)
(-2.3196e-18 2.07722e-18 -0.0150392)
(-1.80421e-18 2.31332e-18 -0.0150348)
(-2.98245e-18 2.84203e-18 -0.0150295)
(-1.28893e-18 4.38622e-18 -0.0150234)
(-6.37002e-18 4.80795e-18 -0.0150165)
(-2.33243e-19 -3.27418e-19 -0.0147637)
(-7.60274e-19 4.45411e-20 -0.0147823)
(-4.00973e-19 -1.71021e-20 -0.0148003)
(-4.37868e-19 -2.31355e-19 -0.0148177)
(-7.46944e-19 7.95318e-20 -0.0148346)
(-7.62127e-19 1.41321e-19 -0.0148508)
(-7.89329e-19 2.70138e-19 -0.0148663)
(-6.876e-19 6.98227e-19 -0.0148812)
(-1.26268e-18 5.72745e-19 -0.0148954)
(-1.08236e-18 8.02742e-19 -0.0149088)
(-1.31333e-18 3.54466e-19 -0.0149215)
(-1.01417e-18 7.3527e-20 -0.0149334)
(-2.188e-19 3.25664e-19 -0.0149446)
(-6.6399e-19 1.35545e-19 -0.0149549)
(-3.43606e-19 2.28158e-19 -0.0149645)
(-4.02671e-19 4.67397e-19 -0.0149732)
(-7.78846e-19 8.50879e-19 -0.014981)
(-7.60013e-19 1.14145e-18 -0.014988)
(-3.87369e-19 1.3727e-18 -0.0149942)
(-4.87097e-19 5.52427e-19 -0.0149995)
(-1.05793e-18 6.73399e-19 -0.0150039)
(-5.67162e-19 2.00241e-19 -0.0150075)
(-4.46568e-19 6.29151e-19 -0.0150101)
(-3.55107e-19 6.23029e-19 -0.0150119)
(-7.36868e-19 7.71287e-19 -0.0150128)
(-1.6866e-18 6.94356e-19 -0.0150128)
(-1.83644e-18 1.14731e-18 -0.0150119)
(-1.51524e-18 1.16819e-18 -0.0150101)
(-1.95876e-18 1.234e-18 -0.0150075)
(-2.10952e-18 2.25746e-18 -0.0150039)
(-1.74354e-18 2.45439e-18 -0.0149995)
(-2.59732e-18 3.17175e-18 -0.0149942)
(-1.22234e-18 4.81689e-18 -0.014988)
(-5.17377e-18 4.40164e-18 -0.014981)
(-2.28323e-19 -2.40294e-19 -0.0147262)
(-6.41138e-19 -1.6904e-19 -0.0147449)
(-3.25177e-19 -2.45863e-19 -0.014763)
(-5.58669e-19 1.13413e-19 -0.0147806)
(-7.17092e-19 1.45548e-19 -0.0147975)
(-7.35917e-19 8.84059e-20 -0.0148139)
(-7.8126e-19 2.96841e-19 -0.0148295)
(-5.23762e-19 4.75073e-19 -0.0148445)
(-1.28334e-18 7.03459e-19 -0.0148588)
(-1.1431e-18 7.31653e-19 -0.0148723)
(-1.37888e-18 3.42586e-19 -0.0148851)
(-1.28098e-18 7.14217e-19 -0.0148972)
(-5.08232e-19 7.60967e-19 -0.0149084)
(-7.20282e-19 1.28256e-20 -0.0149188)
(-3.06909e-19 2.27565e-19 -0.0149284)
(-2.37631e-19 4.15642e-19 -0.0149372)
(-6.29581e-19 8.41586e-19 -0.0149452)
(-7.11422e-19 1.13014e-18 -0.0149523)
(-4.34402e-19 8.65554e-19 -0.0149585)
(-5.9658e-19 6.23945e-19 -0.0149638)
(-1.15129e-18 6.59653e-19 -0.0149683)
(-6.01865e-19 1.13559e-19 -0.0149719)
(-3.50447e-19 5.46925e-19 -0.0149745)
(-2.77609e-19 6.49074e-19 -0.0149763)
(-7.06678e-19 9.68535e-19 -0.0149772)
(-1.66461e-18 9.52835e-19 -0.0149772)
(-1.77653e-18 1.28044e-18 -0.0149763)
(-1.50079e-18 1.63283e-18 -0.0149745)
(-1.8369e-18 1.37719e-18 -0.0149719)
(-1.9706e-18 2.26495e-18 -0.0149683)
(-1.64471e-18 2.48262e-18 -0.0149638)
(-2.21085e-18 3.46039e-18 -0.0149585)
(-1.3651e-18 4.56148e-18 -0.0149523)
(-4.41185e-18 4.15252e-18 -0.0149452)
(-1.70421e-19 -3.29353e-19 -0.0146883)
(-5.96933e-19 -2.85305e-19 -0.0147071)
(-4.07383e-19 -1.69885e-20 -0.0147253)
(-6.08543e-19 3.2891e-19 -0.014743)
(-8.05341e-19 1.231e-19 -0.0147601)
(-6.18971e-19 -1.41514e-19 -0.0147766)
(-8.22189e-19 3.9881e-19 -0.0147923)
(-3.12008e-19 2.6389e-19 -0.0148074)
(-1.19854e-18 7.58871e-19 -0.0148218)
(-1.16307e-18 6.26059e-19 -0.0148355)
(-1.39185e-18 4.49909e-19 -0.0148484)
(-1.43326e-18 1.14826e-18 -0.0148605)
(-8.00188e-19 1.00744e-18 -0.0148718)
(-8.89417e-19 4.55934e-20 -0.0148824)
(-3.63907e-19 5.46932e-19 -0.0148921)
(-1.50648e-19 4.17451e-19 -0.0149009)
(-4.75463e-19 7.08687e-19 -0.0149089)
(-7.47311e-19 9.08333e-19 -0.0149161)
(-4.14596e-19 2.53319e-19 -0.0149223)
(-5.79911e-19 7.76439e-19 -0.0149277)
(-1.24134e-18 2.59897e-19 -0.0149322)
(-6.60287e-19 2.81782e-19 -0.0149358)
(-2.42345e-19 5.17145e-19 -0.0149385)
(-1.8363e-19 5.71556e-19 -0.0149404)
(-6.24873e-19 2.66352e-19 -0.0149413)
(-1.62276e-18 9.45269e-19 -0.0149413)
(-1.65133e-18 1.33667e-18 -0.0149404)
(-1.51469e-18 1.93811e-18 -0.0149385)
(-1.8263e-18 1.47529e-18 -0.0149358)
(-1.7836e-18 2.64683e-18 -0.0149322)
(-1.47168e-18 2.52363e-18 -0.0149277)
(-1.95489e-18 3.6896e-18 -0.0149223)
(-1.58142e-18 4.09108e-18 -0.0149161)
(-3.5882e-18 4.36583e-18 -0.0149089)
(1.15984e-18 8.39266e-18 -0.0149009)
(-1.07353e-19 -4.57121e-19 -0.01465)
(-6.1981e-19 -6.67621e-20 -0.014669)
(-4.50812e-19 1.52877e-19 -0.0146874)
(-5.96433e-19 3.05246e-19 -0.0147052)
(-8.59647e-19 1.25498e-20 -0.0147223)
(-5.67776e-19 -1.87581e-19 -0.0147389)
(-8.9843e-19 5.68095e-19 -0.0147548)
(-3.08208e-19 3.11806e-19 -0.01477)
(-1.0023e-18 5.69639e-19 -0.0147845)
(-1.1676e-18 4.92639e-19 -0.0147983)
(-1.24999e-18 4.16258e-19 -0.0148113)
(-1.45409e-18 1.32641e-18 -0.0148235)
(-1.02133e-18 8.09622e-19 -0.0148349)
(-1.04447e-18 2.55746e-19 -0.0148455)
(-4.42666e-19 8.39447e-19 -0.0148553)
(-1.79942e-19 4.44992e-19 -0.0148642)
(-3.72716e-19 6.01547e-19 -0.0148723)
(-8.00428e-19 5.82735e-19 -0.0148795)
(-4.46614e-19 4.89505e-19 -0.0148858)
(-6.08643e-19 8.70069e-19 -0.0148912)
(-1.31466e-18 1.5944e-19 -0.0148958)
(-6.3896e-19 9.92341e-19 -0.0148994)
(-2.46129e-19 5.64558e-19 -0.0149021)
(-3.38016e-19 3.81699e-19 -0.014904)
(-5.57967e-19 -5.75784e-19 -0.0149049)
(-1.33871e-18 6.52281e-19 -0.0149049)
(-1.49529e-18 1.11677e-18 -0.014904)
(-1.52592e-18 1.69268e-18 -0.0149021)
(-1.6927e-18 1.33852e-18 -0.0148994)
(-1.63321e-18 2.86815e-18 -0.0148958)
(-1.42198e-18 2.49543e-18 -0.0148912)
(-1.8595e-18 3.40694e-18 -0.0148858)
(-1.62205e-18 3.96508e-18 -0.0148795)
(-2.84539e-18 4.58681e-18 -0.0148723)
(8.82761e-19 7.70526e-18 -0.0148642)
(-1.63373e-19 -3.51196e-19 -0.0146115)
(-6.36855e-19 9.45839e-20 -0.0146306)
(-3.4474e-19 -6.05814e-20 -0.014649)
(-5.68606e-19 2.44156e-19 -0.0146669)
(-8.40532e-19 -2.29246e-19 -0.0146842)
(-4.4287e-19 -2.5395e-19 -0.0147009)
(-7.69348e-19 3.97302e-19 -0.0147169)
(-4.32595e-19 4.71798e-19 -0.0147322)
(-8.313e-19 2.8487e-19 -0.0147468)
(-1.1789e-18 5.02479e-19 -0.0147607)
(-1.10184e-18 3.68677e-19 -0.0147738)
(-1.36857e-18 1.06615e-18 -0.0147861)
(-1.06693e-18 3.87324e-19 -0.0147976)
(-1.17706e-18 6.82321e-19 -0.0148083)
(-5.56623e-19 1.08656e-18 -0.0148181)
(-2.4584e-19 4.49834e-19 -0.0148271)
(-3.29727e-19 4.25583e-19 -0.0148352)
(-6.89719e-19 2.73428e-19 -0.0148425)
(-4.60507e-19 9.98425e-19 -0.0148489)
(-6.76748e-19 8.06851e-19 -0.0148543)
(-1.28228e-18 6.14491e-19 -0.0148589)
(-6.92996e-19 1.68622e-18 -0.0148626)
(-4.5537e-19 6.24742e-19 -0.0148654)
(-5.6529e-19 4.30933e-19 -0.0148672)
(-5.26228e-19 -5.10812e-19 -0.0148681)
(-1.07885e-18 4.49549e-19 -0.0148681)
(-1.36738e-18 9.02602e-19 -0.0148672)
(-1.54629e-18 1.34807e-18 -0.0148654)
(-1.54818e-18 9.7425e-19 -0.0148626)
(-1.50653e-18 2.36055e-18 -0.0148589)
(-1.45046e-18 2.32058e-18 -0.0148543)
(-1.77057e-18 2.7774e-18 -0.0148489)
(-1.47612e-18 4.06909e-18 -0.0148425)
(-2.31091e-18 4.36016e-18 -0.0148352)
(5.83368e-19 6.95576e-18 -0.0148271)
(-2.55655e-19 -1.62888e-20 -0.0145726)
(-6.65146e-19 1.09562e-19 -0.0145918)
(-3.02558e-19 -1.55137e-19 -0.0146104)
(-4.87844e-19 1.29666e-19 -0.0146284)
(-8.81524e-19 -3.98437e-19 -0.0146458)
(-3.60148e-19 -3.64976e-19 -0.0146626)
(-5.25188e-19 1.52862e-19 -0.0146787)
(-5.91046e-19 7.72976e-19 -0.0146941)
(-7.6184e-19 2.21498e-19 -0.0147088)
(-1.2073e-18 6.23994e-19 -0.0147227)
(-1.02655e-18 2.35917e-19 -0.0147359)
(-1.34954e-18 8.59481e-19 -0.0147483)
(-1.12676e-18 5.04775e-19 -0.0147599)
(-1.13224e-18 9.93561e-19 -0.0147707)
(-7.34958e-19 1.20238e-18 -0.0147806)
(-4.18621e-19 4.29849e-19 -0.0147896)
(-3.95428e-19 5.44799e-19 -0.0147978)
(-5.54986e-19 2.34762e-19 -0.0148051)
(-3.56716e-19 9.8783e-19 -0.0148116)
(-6.76896e-19 5.76499e-19 -0.0148171)
(-1.11444e-18 6.814e-19 -0.0148217)
(-7.32903e-19 1.57565e-18 -0.0148254)
(-6.73997e-19 5.91933e-19 -0.0148282)
(-7.31353e-19 5.02959e-19 -0.01483)
(-5.65573e-19 -1.04606e-19 -0.014831)
(-8.89775e-19 5.68523e-19 -0.014831)
(-1.25427e-18 9.86218e-19 -0.01483)
(-1.59141e-18 1.33796e-18 -0.0148282)
(-1.46698e-18 7.95584e-19 -0.0148254)
(-1.38169e-18 1.79762e-18 -0.0148217)
(-1.45264e-18 2.15393e-18 -0.0148171)
(-1.58142e-18 2.3551e-18 -0.0148116)
(-1.3162e-18 3.95329e-18 -0.0148051)
(-2.05964e-18 3.7432e-18 -0.0147978)
(-2.08494e-19 1.69473e-19 -0.0145335)
(-5.9456e-19 -9.66347e-20 -0.0145527)
(-4.37463e-19 -8.0886e-20 -0.0145714)
(-4.01791e-19 -2.79341e-20 -0.0145895)
(-9.25101e-19 -5.20749e-19 -0.014607)
(-3.4769e-19 -3.80153e-19 -0.0146239)
(-3.44989e-19 2.22411e-19 -0.0146401)
(-6.31244e-19 9.41945e-19 -0.0146556)
(-7.62069e-19 1.53e-19 -0.0146704)
(-1.20887e-18 5.56551e-19 -0.0146844)
(-1.06358e-18 3.72878e-19 -0.0146977)
(-1.26031e-18 8.71091e-19 -0.0147102)
(-1.21943e-18 7.66936e-19 -0.0147219)
(-1.09057e-18 8.77802e-19 -0.0147327)
(-8.22431e-19 1.0307e-18 -0.0147427)
(-5.2221e-19 5.43791e-19 -0.0147518)
(-5.07613e-19 9.52888e-19 -0.0147601)
(-5.65093e-19 2.93232e-19 -0.0147674)
(-2.93672e-19 6.90221e-19 -0.0147739)
(-6.74026e-19 2.21566e-19 -0.0147795)
(-9.50705e-19 3.3736e-19 -0.0147841)
(-6.90081e-19 8.83201e-19 -0.0147878)
(-8.12525e-19 5.10459e-19 -0.0147906)
(-8.10385e-19 4.36845e-19 -0.0147925)
(-5.25033e-19 2.61198e-19 -0.0147934)
(-7.38685e-19 6.40229e-19 -0.0147934)
(-1.16338e-18 1.10013e-18 -0.0147925)
(-1.67731e-18 1.34382e-18 -0.0147906)
(-1.43579e-18 1.16899e-18 -0.0147878)
(-1.20725e-18 1.71357e-18 -0.0147841)
(-1.40319e-18 2.10532e-18 -0.0147795)
(-1.33789e-18 2.45339e-18 -0.0147739)
(-1.30898e-18 3.5206e-18 -0.0147674)
(-1.90783e-18 3.12101e-18 -0.0147601)
(-2.39873e-19 2.31886e-19 -0.014494)
(-4.21941e-19 -3.63132e-19 -0.0145133)
(-5.37066e-19 6.04667e-20 -0.0145321)
(-4.16201e-19 -1.05397e-19 -0.0145503)
(-9.56608e-19 -5.99381e-19 -0.0145679)
(-4.29228e-19 -1.65983e-19 -0.0145849)
(-1.59627e-19 2.29347e-19 -0.0146012)
(-6.05303e-19 8.32653e-19 -0.0146168)
(-7.36751e-19 4.90177e-21 -0.0146317)
(-1.10515e-18 5.16229e-19 -0.0146458)
(-1.10484e-18 5.77736e-19 -0.0146592)
(-1.24128e-18 8.11483e-19 -0.0146717)
(-1.2601e-18 7.28003e-19 -0.0146835)
(-1.05828e-18 7.49748e-19 -0.0146944)
(-8.08929e-19 7.66874e-19 -0.0147044)
(-5.044e-19 5.27194e-19 -0.0147136)
(-5.63992e-19 9.27355e-19 -0.0147219)
(-6.56448e-19 1.81586e-19 -0.0147293)
(-2.79866e-19 3.9604e-19 -0.0147359)
(-6.90903e-19 -2.99708e-21 -0.0147415)
(-9.01521e-19 4.43907e-19 -0.0147461)
(-6.07807e-19 4.52568e-19 -0.0147499)
(-8.27896e-19 5.2611e-19 -0.0147527)
(-8.31797e-19 5.12606e-19 -0.0147546)
(-5.16135e-19 5.92118e-19 -0.0147555)
(-6.39491e-19 3.70803e-19 -0.0147555)
(-1.08039e-18 1.13352e-18 -0.0147546)
(-1.66002e-18 1.02964e-18 -0.0147527)
(-1.33017e-18 1.51416e-18 -0.0147499)
(-1.15991e-18 1.67088e-18 -0.0147461)
(-1.31593e-18 2.06893e-18 -0.0147415)
(-1.17162e-18 2.62707e-18 -0.0147359)
(-1.43051e-18 3.09263e-18 -0.0147293)
(-1.73941e-18 2.87518e-18 -0.0147219)
(-3.979e-19 2.52151e-19 -0.0144542)
(-2.84599e-19 -6.13918e-19 -0.0144736)
(-5.05232e-19 2.64962e-20 -0.0144925)
(-5.1661e-19 -7.10602e-20 -0.0145108)
(-1.00292e-18 -5.41977e-19 -0.0145285)
(-6.24429e-19 1.70605e-19 -0.0145456)
(-3.89619e-20 1.85101e-19 -0.014562)
(-6.04475e-19 8.6886e-19 -0.0145777)
(-8.86497e-19 2.93508e-19 -0.0145926)
(-1.03708e-18 5.64097e-19 -0.0146068)
(-1.09752e-18 6.10512e-19 -0.0146203)
(-1.17051e-18 6.56988e-19 -0.0146329)
(-1.32293e-18 8.2663e-19 -0.0146447)
(-1.09599e-18 6.53909e-19 -0.0146557)
(-8.73029e-19 6.62312e-19 -0.0146658)
(-4.66222e-19 3.97496e-19 -0.0146751)
(-5.35842e-19 5.88337e-19 -0.0146834)
(-7.17946e-19 4.05593e-20 -0.0146909)
(-2.62394e-19 1.21852e-19 -0.0146975)
(-6.2246e-19 8.97391e-20 -0.0147031)
(-8.93994e-19 8.53771e-19 -0.0147078)
(-6.58254e-19 5.35766e-19 -0.0147116)
(-8.1097e-19 6.08814e-19 -0.0147144)
(-8.14395e-19 5.70347e-19 -0.0147163)
(-5.84235e-19 8.28138e-19 -0.0147173)
(-5.90538e-19 5.27358e-20 -0.0147173)
(-1.01359e-18 1.04492e-18 -0.0147163)
(-1.66691e-18 6.68082e-19 -0.0147144)
(-1.26759e-18 1.24188e-18 -0.0147116)
(-1.14928e-18 1.21904e-18 -0.0147078)
(-1.20457e-18 1.8943e-18 -0.0147031)
(-1.08381e-18 2.58098e-18 -0.0146975)
(-1.49223e-18 2.90617e-18 -0.0146909)
(-1.56378e-18 2.72549e-18 -0.0146834)
(-5.03912e-19 7.62702e-20 -0.0144141)
(-1.89255e-19 -8.61228e-19 -0.0144336)
(-3.55589e-19 -1.43323e-20 -0.0144526)
(-4.82617e-19 -1.50274e-19 -0.014471)
(-1.02019e-18 -4.60123e-19 -0.0144888)
(-7.9197e-19 4.28912e-19 -0.0145059)
(-2.22154e-19 6.68473e-19 -0.0145224)
(-4.66837e-19 8.2095e-19 -0.0145382)
(-1.05826e-18 5.81698e-19 -0.0145533)
(-1.06709e-18 6.0261e-19 -0.0145675)
(-1.09062e-18 5.26279e-19 -0.0145811)
(-1.07305e-18 4.60309e-19 -0.0145938)
(-1.33595e-18 8.02549e-19 -0.0146057)
(-1.14374e-18 5.85706e-19 -0.0146167)
(-9.69218e-19 7.46654e-19 -0.0146269)
(-5.92697e-19 6.45884e-19 -0.0146362)
(-5.56847e-19 4.25025e-19 -0.0146446)
(-7.9325e-19 -2.90142e-20 -0.0146521)
(-2.18441e-19 4.1714e-20 -0.0146587)
(-4.92051e-19 3.4783e-19 -0.0146644)
(-8.41504e-19 9.48856e-19 -0.0146691)
(-7.35629e-19 7.65358e-19 -0.0146729)
(-8.35391e-19 6.21877e-19 -0.0146758)
(-7.82815e-19 5.42925e-19 -0.0146777)
(-6.90184e-19 8.77251e-19 -0.0146786)
(-5.93628e-19 -8.67662e-20 -0.0146786)
(-9.64063e-19 6.36885e-19 -0.0146777)
(-1.69601e-18 5.6228e-19 -0.0146758)
(-1.24591e-18 9.64862e-19 -0.0146729)
(-1.09553e-18 9.10647e-19 -0.0146691)
(-1.02204e-18 1.58591e-18 -0.0146644)
(-9.84698e-19 2.38889e-18 -0.0146587)
(-1.55172e-18 2.84545e-18 -0.0146521)
(-4.46952e-19 -1.9613e-19 -0.0143737)
(-2.75059e-19 -8.22501e-19 -0.0143933)
(-2.7633e-19 -2.55317e-20 -0.0144124)
(-3.02986e-19 -4.60913e-19 -0.0144309)
(-8.86128e-19 -4.8368e-19 -0.0144488)
(-7.35959e-19 5.64875e-19 -0.014466)
(-3.96736e-19 9.25418e-19 -0.0144826)
(-3.43021e-19 4.85641e-19 -0.0144984)
(-9.25862e-19 3.56343e-19 -0.0145136)
(-1.09614e-18 5.49427e-19 -0.0145279)
(-1.1139e-18 4.09767e-19 -0.0145415)
(-9.84373e-19 3.13468e-19 -0.0145543)
(-1.24185e-18 5.90408e-19 -0.0145662)
(-1.17462e-18 6.04129e-19 -0.0145774)
(-9.67092e-19 7.83776e-19 -0.0145876)
(-7.11511e-19 8.27784e-19 -0.014597)