/*--------------------------------*- C++ -*----------------------------------*\
  =========                 |
  \\      /  F ield         | OpenFOAM: The Open Source CFD Toolbox
   \\    /   O peration     | Website:  https://openfoam.org
    \\  /    A nd           | Version:  7
     \\/     M anipulation  |
\*---------------------------------------------------------------------------*/
FoamFile
{
    version     2.0;
    format      ascii;
    class       surfaceScalarField;
    location    "200000";
    object      phi;
}
// * * * * * * * * * * * * * * * * * * * * * * * * * * * * * * * * * * * * * //

dimensions      [0 3 -1 0 0 0 0];

internalField   nonuniform List<scalar> 
9375
(
-9.62657e-24
7.3276e-23
-2.2112e-24
4.401e-23
-7.77886e-24
5.81548e-24
-6.59135e-24
6.01998e-23
-1.60784e-23
-3.24966e-23
5.15034e-23
-8.42702e-24
1.23711e-22
2.1931e-24
1.44931e-23
-6.73953e-24
-2.67671e-24
-2.01321e-23
1.14304e-22
-1.04959e-23
8.6601e-23
-5.70171e-24
8.29047e-23
-4.61589e-24
7.20016e-23
-1.71602e-23
-1.4882e-23
-1.53107e-23
5.0769e-23
-8.39997e-24
1.44885e-22
-3.21658e-24
8.2959e-23
-6.14382e-24
6.0262e-23
-7.57742e-24
-1.71861e-23
-1.49336e-23
1.86804e-23
-1.86922e-23
5.7983e-23
-1.77101e-23
8.10432e-23
-8.40423e-24
8.33064e-23
-1.24514e-23
9.12181e-23
-8.55883e-24
2.56579e-23
-8.86621e-24
2.97481e-23
-1.93275e-23
8.54275e-23
-2.20964e-23
7.35845e-23
-9.21954e-24
4.03339e-23
-1.42177e-23
9.98557e-23
-2.34221e-23
1.5752e-22
-9.66106e-24
1.84614e-22
-1.12895e-23
3.45721e-23
-9.76e-24
5.28274e-23
1.27569e-22
-9.66567e-24
1.54923e-22
2.69902e-24
-6.73895e-25
-5.65081e-24
8.65067e-24
-2.03959e-23
1.20904e-22
-9.87506e-24
6.38815e-23
-6.16035e-24
1.61088e-22
-4.8735e-24
1.40126e-22
-1.54054e-23
-1.28038e-24
-1.46402e-23
2.33609e-23
-9.08389e-24
1.71754e-22
-3.03914e-24
1.24463e-22
-8.47506e-24
3.59348e-23
-5.82477e-24
-1.16846e-23
-1.36355e-23
3.87269e-24
-1.85118e-23
1.99796e-23
-1.65136e-23
7.61155e-23
-8.67601e-24
3.29351e-23
-1.27781e-23
8.44744e-23
-7.84487e-24
9.92985e-23
-7.96815e-24
2.27059e-23
-1.96256e-23
5.35513e-23
-2.24245e-23
3.44766e-23
-8.94292e-24
1.06102e-23
-1.30167e-23
4.24176e-23
-2.2877e-23
1.51857e-22
-1.19484e-23
1.79994e-22
-1.14405e-23
3.68774e-23
-8.59709e-24
7.19219e-23
-4.41191e-25
1.2843e-22
2.48504e-24
2.63273e-23
-9.90495e-24
1.34035e-23
2.84975e-25
-6.41536e-24
1.37491e-22
-1.04498e-23
1.39914e-22
3.36914e-24
-1.5774e-23
-3.67786e-24
-1.67008e-23
-2.05584e-23
1.39484e-22
-8.02312e-24
4.31028e-23
-5.95126e-24
1.18375e-22
-7.25253e-24
1.41831e-22
-1.46053e-23
4.37437e-23
-1.30068e-23
6.20334e-23
-1.0112e-23
1.20185e-22
-3.87302e-24
1.17975e-22
-1.00441e-23
5.82181e-23
-4.79512e-24
-1.00937e-23
-1.28339e-23
1.74001e-23
-1.76031e-23
-5.288e-24
-1.59821e-23
1.07292e-22
-8.27575e-24
4.50647e-23
-1.20855e-23
1.2349e-22
-8.46862e-24
8.29819e-23
-7.50001e-24
1.7096e-23
-2.00484e-23
-6.49048e-23
-2.26062e-23
2.83811e-23
-8.79683e-24
-2.12261e-23
-1.09255e-23
4.88721e-23
-2.24764e-23
9.36995e-23
-1.31483e-23
1.46561e-22
-1.15227e-23
3.07859e-23
-7.68281e-24
6.43338e-23
-4.08561e-25
2.17199e-22
1.34697e-24
-2.65599e-23
-9.20327e-24
3.40877e-23
2.51256e-24
-1.14123e-23
2.70277e-24
8.67685e-23
1.95692e-24
-6.6754e-23
5.44446e-24
3.86817e-23
-3.23449e-24
-1.50135e-22
2.8934e-24
-7.26064e-23
-4.00839e-24
-3.97007e-23
-7.19728e-25
3.52657e-23
-1.19028e-23
-4.46039e-25
-4.18515e-24
8.88778e-23
-4.87801e-24
1.59676e-22
-3.62315e-24
4.52555e-23
-1.89763e-23
-1.57165e-23
5.65831e-24
-1.18625e-23
1.26438e-22
3.58199e-24
1.14347e-23
-1.41055e-24
-1.16945e-23
-2.07193e-23
1.66588e-22
-7.11492e-24
1.51152e-22
-4.78433e-24
1.24897e-22
-7.94398e-24
7.89608e-23
-1.43129e-23
8.72014e-23
-1.20856e-23
2.57415e-23
-9.7511e-24
1.99647e-22
-4.96494e-24
1.48623e-22
-1.12873e-23
-4.84986e-24
-3.72403e-24
-8.85882e-24
-1.22804e-23
6.54325e-23
-1.59557e-23
2.17459e-23
-1.61924e-23
1.14019e-22
-7.21779e-24
7.25639e-23
-1.2605e-23
1.28244e-22
-8.67908e-24
1.41114e-22
-9.12175e-24
9.50955e-24
-1.84867e-23
-5.81803e-23
-2.33306e-23
2.56115e-23
-7.56019e-24
7.8629e-23
-1.07018e-23
5.13458e-23
-2.16594e-23
1.12921e-22
-1.36004e-23
1.78562e-22
-1.1734e-23
2.45282e-23
-5.43454e-24
5.01037e-23
-2.63342e-24
1.23706e-22
1.79705e-24
1.24713e-23
-9.78294e-24
-3.46406e-23
3.82323e-24
2.22839e-23
1.35902e-24
4.06511e-23
2.79978e-24
-2.37268e-23
3.26043e-24
4.41938e-23
-2.72643e-24
-1.50613e-22
4.56779e-24
-6.8815e-23
-3.29306e-24
-1.87968e-23
1.41916e-25
4.13717e-23
-1.09956e-23
2.53805e-23
-3.36801e-24
8.21853e-23
-6.17729e-24
1.08861e-22
-6.03947e-24
3.48184e-23
-1.79246e-23
7.53897e-23
5.29972e-23
-1.09348e-23
1.23207e-22
3.25122e-24
1.21517e-22
3.46271e-25
-8.57461e-24
-1.96865e-23
2.17832e-22
-8.90618e-24
1.30603e-22
-6.01799e-24
1.61096e-22
-6.2133e-24
1.52239e-22
-1.5479e-23
9.20591e-23
-1.0876e-23
1.6005e-23
-1.01514e-23
1.85816e-22
-6.1468e-24
1.51556e-22
-1.04878e-23
-6.54315e-25
-3.47908e-24
2.33644e-23
-1.11955e-23
1.16787e-22
-1.49237e-23
2.55903e-23
-1.62517e-23
1.12959e-22
-6.35663e-24
7.55401e-23
-1.22551e-23
1.51235e-22
-1.0279e-23
1.21847e-22
-1.02852e-23
2.3286e-24
-1.74716e-23
-4.75746e-23
-2.22744e-23
2.80953e-23
-8.00698e-24
4.79216e-23
-1.02073e-23
-3.56662e-23
-2.05519e-23
1.28256e-22
-1.41657e-23
2.07965e-22
-1.24789e-23
-1.28458e-23
-4.57989e-24
8.75079e-23
-3.6309e-24
1.32991e-22
3.33984e-25
1.72118e-23
-8.31503e-24
-1.77656e-23
4.18642e-24
3.2441e-23
1.74509e-24
3.17651e-23
4.23696e-24
-1.38228e-23
1.59805e-24
-1.41701e-23
-1.22913e-24
-1.5551e-22
5.94018e-24
-7.18826e-23
-2.75536e-24
-4.08063e-23
1.14981e-24
3.24023e-23
-9.88287e-24
4.79699e-23
-2.35437e-24
1.05951e-22
-7.77482e-24
7.07984e-23
-5.17534e-24
1.07748e-22
-1.81706e-23
8.07403e-23
5.99167e-23
-1.09021e-23
1.2316e-22
2.55335e-24
1.02835e-22
2.59016e-24
-3.9532e-24
-1.89279e-23
1.21063e-22
-7.2623e-24
8.06594e-23
-5.9749e-24
7.21129e-23
-6.73167e-24
1.52289e-22
-1.54626e-23
9.37222e-23
-8.49354e-24
-7.72338e-24
-1.06806e-23
1.3772e-22
-7.77122e-24
1.50022e-22
-1.0234e-23
-3.94562e-23
-2.111e-24
1.94842e-23
-1.08886e-23
1.09411e-22
-1.4338e-23
2.83161e-23
-1.54937e-23
9.16368e-23
-5.60274e-24
6.39622e-23
-1.27337e-23
1.13584e-22
-1.17253e-23
1.10374e-22
-1.09271e-23
1.79325e-23
-1.66753e-23
-3.6712e-23
-2.18481e-23
6.69776e-23
-9.2048e-24
9.66642e-23
-8.49546e-24
3.83286e-23
-1.91682e-23
1.31454e-22
-1.55343e-23
1.68284e-22
-1.30922e-23
-2.47513e-23
-3.509e-24
7.66313e-23
-3.53666e-24
1.40072e-22
-8.57443e-25
1.9722e-23
-8.39932e-24
-7.89974e-24
4.64161e-24
1.04112e-23
1.17482e-24
2.71947e-23
3.86403e-24
-2.62591e-23
6.93408e-25
-8.05824e-24
-2.61673e-24
-7.24963e-23
6.72003e-24
5.04174e-23
-1.0729e-24
9.7122e-24
1.40419e-24
2.56632e-23
-8.83194e-24
6.76008e-23
-1.83965e-24
1.0553e-22
-8.15355e-24
7.16179e-23
-6.44495e-24
9.8791e-23
-1.7366e-23
8.06681e-23
1.42843e-24
-9.09161e-24
3.34052e-23
2.69744e-24
9.035e-23
3.11488e-24
-1.30065e-24
-1.84919e-23
1.22745e-22
-7.24232e-24
1.03299e-22
-5.27585e-24
1.20586e-22
-7.60038e-24
1.05883e-22
-1.57509e-23
1.00273e-22
-7.59496e-24
4.5636e-23
-1.00639e-23
1.29698e-22
-1.00314e-23
1.12222e-22
-8.95578e-24
-1.04436e-23
-1.43775e-24
1.58949e-23
-1.01514e-23
1.32908e-22
-1.4372e-23
6.48825e-23
-1.49424e-23
9.99896e-23
-5.25548e-24
6.1965e-23
-1.27398e-23
1.07805e-22
-1.26545e-23
6.84658e-23
-1.16731e-23
-1.83773e-23
-1.53681e-23
-7.06025e-23
-2.16163e-23
1.11655e-22
-1.0034e-23
1.64117e-22
-7.81918e-24
1.76736e-23
-1.8678e-23
8.75655e-23
-1.63181e-23
1.2511e-22
-1.34364e-23
-3.39601e-23
-1.52057e-24
1.39865e-22
-4.83262e-24
9.28972e-23
-1.2207e-24
1.06654e-22
-8.14103e-24
5.21711e-24
5.4346e-24
7.08771e-23
3.05526e-25
2.97123e-23
4.16816e-24
1.07213e-23
1.37578e-24
1.14094e-23
-1.25015e-24
-4.66922e-23
6.13795e-24
1.1086e-22
2.0427e-25
1.92864e-23
4.27826e-26
3.07387e-23
-8.54492e-24
1.119e-22
-1.43542e-24
1.39223e-22
-8.66847e-24
7.02151e-23
-7.0563e-24
8.90687e-23
-1.79038e-23
8.75026e-23
-6.07255e-23
-8.1391e-24
5.86898e-23
2.57286e-24
1.12914e-22
3.35383e-24
1.73305e-24
-1.77993e-23
6.68421e-23
-6.09347e-24
9.03175e-23
-4.78583e-24
7.83088e-23
-7.14386e-24
6.77393e-23
-1.60801e-23
9.96256e-23
-7.13693e-24
1.61209e-22
-1.00181e-23
1.2726e-22
-1.15474e-23
1.64746e-22
-8.25971e-24
-2.02067e-23
5.57277e-26
-4.20263e-24
-9.29998e-24
6.71228e-23
-1.47972e-23
7.8191e-23
-1.47335e-23
7.21749e-23
-4.76645e-24
5.25948e-23
-1.34467e-23
7.37928e-23
-1.32671e-23
5.98549e-23
-1.25984e-23
-2.01646e-23
-1.31511e-23
-7.9109e-23
-2.08289e-23
7.82199e-23
-1.17727e-23
1.54199e-22
-7.15875e-24
1.24015e-22
-1.84884e-23
1.24507e-22
-1.65967e-23
1.1328e-22
-1.32877e-23
-6.57309e-24
-1.75204e-24
1.23645e-22
-3.6336e-24
4.24897e-23
-2.70981e-24
3.09368e-23
-7.10541e-24
1.62299e-23
5.02568e-24
8.02416e-23
4.19778e-25
3.16814e-24
3.74502e-24
4.33046e-23
1.12032e-24
-2.3426e-23
2.76975e-25
2.49213e-23
6.16473e-24
6.17097e-23
8.2115e-25
3.02399e-23
1.11415e-24
3.9627e-23
-8.65094e-24
8.64727e-23
-1.35258e-24
1.31374e-22
-9.03623e-24
5.62502e-23
-6.90445e-24
8.40258e-23
-1.81542e-23
1.27976e-23
-6.2813e-23
-6.36979e-24
1.79651e-22
2.70973e-24
1.10879e-22
3.89558e-24
1.10862e-23
-1.64768e-23
8.32046e-24
-6.0712e-24
9.44765e-23
-3.99218e-24
6.56275e-23
-6.72373e-24
3.77203e-23
-1.48387e-23
1.17185e-22
-8.73157e-24
1.3093e-22
-9.56991e-24
1.21995e-22
-1.31452e-23
9.30429e-23
-8.33006e-24
-8.33449e-24
7.89131e-25
8.14906e-23
-7.44706e-24
9.69619e-23
-1.54315e-23
1.80518e-23
-1.3975e-23
8.24315e-23
-4.45446e-24
8.49136e-23
-1.38915e-23
7.51072e-23
-1.40656e-23
5.04921e-23
-1.33733e-23
-1.52793e-23
-1.12007e-23
-1.28424e-23
-1.97561e-23
8.76408e-23
-1.21674e-23
1.47918e-22
-7.69913e-24
1.03706e-22
-1.93736e-23
7.11837e-23
-1.61991e-23
1.87115e-22
-1.33509e-23
-2.71058e-24
-1.86036e-24
1.06493e-22
-3.18936e-24
2.33019e-23
-2.5589e-24
-1.40598e-24
-6.22745e-24
2.52133e-23
4.11467e-24
2.33959e-23
1.63023e-24
-3.30004e-23
2.10046e-24
-3.29696e-23
3.37229e-24
6.60067e-24
-2.58448e-25
-2.15388e-23
5.40042e-24
9.39067e-23
1.9214e-24
4.56359e-24
1.33529e-24
5.32297e-23
-9.2792e-24
1.77807e-23
-2.36106e-24
1.18973e-22
-8.24714e-24
-3.69657e-24
-7.39774e-24
3.38455e-23
-1.88583e-23
-1.18037e-22
-6.98594e-23
-5.6215e-24
1.72205e-22
2.40392e-24
1.05969e-22
3.34793e-24
4.4477e-23
-1.55208e-23
2.71028e-23
-6.60435e-24
8.2354e-23
-2.88545e-24
1.38667e-22
-7.41809e-24
9.16564e-24
-1.34798e-23
9.58035e-23
-9.28552e-24
9.44556e-23
-1.00298e-23
1.14591e-22
-1.3444e-23
1.01514e-22
-8.01395e-24
-5.66189e-23
1.41275e-24
1.19376e-22
-7.63245e-24
8.40634e-23
-1.51259e-23
6.93532e-23
-1.35519e-23
1.00715e-22
-4.39777e-24
8.23748e-23
-1.41644e-23
8.11502e-23
-1.47591e-23
7.78817e-23
-1.32839e-23
-1.74598e-23
-1.01487e-23
-3.03903e-23
-1.92209e-23
9.66861e-23
-1.21171e-23
1.94589e-22
-8.46107e-24
1.15424e-22
-1.87333e-23
9.95766e-23
-1.7126e-23
1.6688e-22
-1.31285e-23
-5.78585e-24
-1.93722e-24
8.39484e-23
-2.55881e-24
3.99355e-23
-2.80981e-24
-3.18416e-23
-5.73397e-24
3.38664e-23
3.81049e-24
-2.55055e-23
8.68994e-25
1.33235e-23
4.05614e-24
-4.24375e-23
3.81216e-24
-3.00207e-23
9.05438e-25
-2.09757e-23
4.58777e-24
8.73201e-23
3.09529e-24
2.09696e-23
1.11591e-24
-5.78538e-23
-8.50941e-24
-2.4621e-23
-1.66382e-24
1.42855e-22
-8.82426e-24
-1.19235e-23
-9.06379e-24
3.78445e-23
-1.78672e-23
-6.66211e-23
-3.43778e-23
-5.205e-24
1.85034e-22
1.61043e-24
1.28073e-22
3.36118e-24
7.15746e-23
-1.43086e-23
1.43017e-23
-5.40279e-24
6.96714e-23
-3.12487e-24
1.3297e-22
-7.57841e-24
2.35476e-23
-1.25384e-23
7.34763e-23
-9.73719e-24
5.82832e-23
-1.04947e-23
1.0548e-22
-1.39415e-23
1.0303e-22
-6.61737e-24
-2.65771e-23
1.91422e-24
1.05587e-22
-7.02725e-24
1.04449e-22
-1.51592e-23
4.0838e-23
-1.31509e-23
1.1289e-22
-4.10916e-24
1.16603e-22
-1.4346e-23
5.35636e-23
-1.58426e-23
5.07055e-23
-1.31808e-23
1.94101e-23
-8.94737e-24
3.9647e-23
-1.79749e-23
1.04178e-22
-1.29744e-23
2.03938e-22
-8.6122e-24
9.49797e-23
-1.89797e-23
3.75859e-23
-1.75981e-23
1.48822e-22
-1.39777e-23
2.19816e-23
-1.41395e-24
1.50586e-22
-3.39928e-24
3.77815e-23
-2.11998e-24
8.12012e-24
-6.01653e-24
4.46718e-23
4.71806e-24
3.93544e-23
-5.23669e-25
4.96034e-23
5.11525e-24
2.73145e-23
4.80163e-24
-1.69029e-23
1.47437e-24
-1.68333e-23
4.14734e-24
4.52925e-23
3.30153e-24
1.46102e-23
4.09856e-26
-1.79267e-23
-6.75072e-24
-7.85911e-23
-2.29112e-24
1.29217e-22
-9.04125e-24
-9.80665e-24
-9.60477e-24
3.76118e-23
-1.65619e-23
-5.42653e-23
-3.88508e-23
-5.2566e-24
1.84821e-22
1.57106e-24
1.89018e-22
2.79082e-24
7.86859e-23
-1.24768e-23
2.33234e-23
-4.96748e-24
5.63722e-23
-2.46575e-24
1.25855e-22
-8.26408e-24
5.46536e-23
-1.19748e-23
1.25152e-22
-9.07003e-24
6.25457e-23
-1.10986e-23
9.9613e-23
-1.40214e-23
1.03051e-22
-6.29411e-24
3.06017e-23
2.37825e-24
1.1541e-22
-7.22715e-24
1.21883e-22
-1.48055e-23
-1.86298e-23
-1.25912e-23
1.70754e-22
-4.59721e-24
1.11773e-22
-1.45121e-23
6.32502e-23
-1.62382e-23
6.40532e-23
-1.27199e-23
2.05978e-23
-8.28858e-24
1.02674e-22
-1.70865e-23
1.14897e-22
-1.40824e-23
1.25015e-22
-9.08798e-24
7.31196e-23
-1.82512e-23
5.83325e-23
-1.75547e-23
1.69137e-22
-1.33592e-23
4.55704e-24
-2.62303e-24
2.0882e-22
-2.82375e-24
3.09863e-23
-2.39801e-24
2.26375e-23
-5.16864e-24
5.4689e-23
4.86719e-24
8.64749e-23
-1.89482e-24
1.08838e-23
5.86503e-24
1.4313e-22
5.26467e-24
-2.24103e-23
1.47314e-24
-9.41997e-24
5.61209e-24
3.56086e-23
1.75929e-24
7.15167e-24
4.60043e-25
-1.04555e-22
-5.62504e-24
-5.38559e-23
-2.51791e-24
1.38641e-22
-9.71724e-24
-1.04767e-23
-1.01434e-23
9.74496e-23
-1.67044e-23
-4.41784e-23
3.52751e-23
-7.14817e-24
2.3465e-23
-4.30515e-24
2.6083e-22
7.65647e-25
1.09937e-22
2.98062e-24
8.38073e-23
-1.12902e-23
5.60929e-24
-4.72164e-24
1.14523e-22
-1.79223e-24
2.08713e-22
-8.59498e-24
1.50918e-24
-1.16443e-23
1.54019e-22
-8.82702e-24
-7.45224e-24
-1.07223e-23
5.97019e-23
-1.39201e-23
1.02767e-22
-6.17504e-24
4.40168e-23
3.26287e-24
1.81081e-22
-8.08225e-24
5.58723e-23
-1.29746e-23
-2.15957e-23
-1.28143e-23
1.52562e-22
-4.63839e-24
1.07699e-22
-1.45259e-23
1.25201e-22
-1.69162e-23
6.79769e-23
-1.14705e-23
1.52791e-23
-8.26985e-24
4.41918e-23
-1.76749e-23
-6.32526e-24
-1.42868e-23
4.43903e-23
-9.29909e-24
5.58124e-23
-1.77985e-23
1.33941e-23
-1.82799e-23
1.10473e-22
-1.18933e-23
3.04155e-24
-4.27196e-24
1.70788e-22
-2.39469e-24
1.36001e-22
-2.53691e-24
3.56499e-23
-4.11185e-24
6.45795e-23
3.52951e-24
1.36503e-22
-9.53535e-25
2.35365e-24
4.5659e-24
1.28459e-22
5.99292e-24
-4.50643e-23
2.4194e-24
-4.75179e-23
5.98441e-24
9.54549e-23
5.63452e-25
1.05201e-23
9.50176e-25
-3.42875e-23
-5.17151e-24
-1.2067e-22
-2.70875e-24
1.31256e-22
-1.05602e-23
-1.09216e-23
-1.07916e-23
1.32318e-22
-1.73287e-23
-3.22921e-23
2.77308e-23
-5.78759e-24
4.94199e-23
-4.98487e-24
2.26046e-22
1.29291e-24
1.89618e-22
2.45178e-24
8.76858e-23
-9.79995e-24
1.29981e-23
-3.41e-24
1.0625e-22
-3.52429e-24
2.05498e-22
-7.75428e-24
1.7826e-23
-1.20938e-23
1.69204e-22
-8.80026e-24
-3.89432e-24
-1.0373e-23
5.66512e-23
-1.3757e-23
1.00199e-22
-5.43408e-24
1.14234e-22
2.31354e-24
1.69539e-22
-8.23025e-24
6.77804e-23
-1.14158e-23
-1.28064e-23
-1.2964e-23
7.62969e-23
-3.80573e-24
1.28206e-22
-1.54188e-23
1.64109e-23
-1.74373e-23
5.42801e-23
-1.06994e-23
8.10205e-23
-9.15359e-24
6.11052e-23
-1.77455e-23
3.20939e-23
-1.35266e-23
7.48881e-23
-9.78688e-24
4.32623e-23
-1.76779e-23
5.64254e-25
-1.80712e-23
1.1201e-22
-1.0953e-23
1.01924e-23
-3.85274e-24
1.61921e-22
-3.3409e-24
8.70111e-23
-1.53521e-24
7.03908e-23
-4.1104e-24
7.12873e-23
3.38993e-24
1.41698e-22
-4.53218e-25
1.71944e-23
3.97591e-24
1.14523e-22
5.7389e-24
-4.8877e-23
3.61271e-24
-2.59503e-24
5.67206e-24
4.66454e-23
3.53288e-25
-6.81292e-23
3.55585e-25
-5.81262e-23
-3.42998e-24
-9.71159e-23
-2.4698e-24
1.24632e-22
-9.45374e-24
-4.68906e-23
-1.16121e-23
8.61977e-23
-1.66702e-23
-2.47274e-23
2.20784e-23
-5.3745e-24
1.1584e-22
-4.57238e-24
2.29275e-22
4.87439e-25
1.89846e-22
2.20772e-24
9.24953e-23
-8.19567e-24
9.67979e-24
-3.37919e-24
9.99599e-23
-3.48422e-24
2.05245e-22
-7.68804e-24
3.35359e-23
-1.32033e-23
9.45488e-23
-8.3319e-24
3.55553e-23
-1.03208e-23
7.5332e-23
-1.28989e-23
7.76394e-23
-5.33232e-24
9.81153e-23
1.75365e-24
1.57404e-22
-8.29479e-24
4.79264e-23
-1.08382e-23
-8.96729e-24
-1.21018e-23
4.68329e-23
-4.47527e-24
1.20706e-22
-1.52328e-23
3.955e-23
-1.72289e-23
5.33303e-23
-1.05886e-23
8.49777e-23
-9.52695e-24
2.7121e-23
-1.78986e-23
-3.32158e-23
-1.30984e-23
7.54913e-23
-9.97862e-24
4.01065e-23
-1.76018e-23
2.59073e-23
-1.78581e-23
8.81146e-23
-9.8892e-24
1.25789e-23
-4.98134e-24
1.51796e-22
-2.81983e-24
9.58589e-23
-1.58128e-24
1.19148e-22
-2.62084e-24
7.50603e-23
2.46877e-24
1.66251e-22
-9.16095e-27
7.33381e-23
3.4674e-24
1.04239e-22
5.85355e-24
-5.24831e-23
4.98094e-24
4.04512e-23
5.22608e-24
4.21341e-23
-1.35426e-25
-6.35987e-23
2.63739e-25
-4.68966e-23
-1.72269e-24
-9.15527e-23
-2.73249e-24
4.35624e-23
-9.93517e-24
-1.20409e-22
-1.10538e-23
8.19345e-23
-1.78469e-23
-5.18466e-23
5.39371e-23
-1.69502e-23
2.14351e-22
-4.37142e-24
1.00482e-22
-4.25605e-24
2.40112e-22
-1.11713e-25
1.91371e-22
2.0612e-24
9.64634e-23
-7.11069e-24
1.99322e-23
-1.34604e-24
9.09163e-23
-3.86977e-24
1.65685e-22
-7.99644e-24
4.68387e-23
-1.31385e-23
9.97798e-23
-8.25616e-24
3.46388e-23
-9.57906e-24
1.39649e-22
-1.16852e-23
1.12053e-22
-4.76211e-24
8.83774e-23
1.32448e-24
1.46475e-22
-8.65511e-24
1.7458e-23
-1.05189e-23
-1.0085e-23
-1.09732e-23
5.93241e-23
-5.00871e-24
1.20991e-22
-1.522e-23
3.73028e-23
-1.6784e-23
8.50848e-23
-1.09655e-23
8.01391e-23
-1.0176e-23
-1.35543e-23
-1.75605e-23
-1.57984e-23
-1.28541e-23
7.21358e-23
-1.0048e-23
4.46513e-23
-1.72582e-23
-2.1589e-23
-1.80196e-23
8.36372e-23
-8.87038e-24
5.38162e-23
-5.63013e-24
1.48001e-22
-3.21026e-24
1.45233e-22
-1.83727e-24
1.23389e-22
-1.85084e-24
3.38221e-23
2.16742e-24
2.19161e-22
-5.37739e-25
6.47156e-23
3.09062e-24
1.34799e-22
6.34961e-24
-5.44355e-23
4.33121e-24
4.12414e-23
4.9432e-24
4.37334e-23
-3.80232e-25
-5.70609e-23
2.89661e-25
-4.14515e-23
-1.81412e-24
-8.38806e-23
-2.00407e-24
-3.19185e-24
-9.2778e-24
-1.1281e-22
-1.12123e-23
1.31901e-22
-1.74017e-23
-4.52782e-23
8.91032e-23
-1.65133e-23
2.03058e-22
-4.26988e-24
1.58916e-22
-4.17176e-24
2.52814e-22
-9.94828e-25
1.88278e-22
1.86114e-24
1.09751e-22
-6.21769e-24
-8.72403e-24
-1.04341e-24
1.63671e-22
-3.05325e-24
1.61129e-22
-8.75359e-24
5.68107e-23
-1.23102e-23
1.03627e-22
-8.0227e-24
3.36622e-23
-9.30589e-24
2.03531e-22
-1.18465e-23
9.75481e-23
-4.59669e-24
8.36856e-23
3.33558e-25
1.39504e-22
-8.74606e-24
1.21691e-23
-1.0047e-23
2.80089e-23
-9.97047e-24
6.50746e-23
-5.24571e-24
1.20112e-22
-1.50899e-23
-1.3762e-24
-1.66247e-23
7.70168e-23
-1.17734e-23
5.88574e-23
-1.01271e-23
-1.52475e-23
-1.7379e-23
-3.2424e-23
-1.23979e-23
1.05432e-22
-1.09566e-23
4.94883e-23
-1.62749e-23
-2.09978e-23
-1.80512e-23
-6.54183e-24
-7.97029e-24
1.2311e-22
-4.95816e-24
1.46399e-22
-3.44422e-24
1.36945e-22
-1.60329e-24
1.2181e-22
-7.51893e-25
-2.78829e-23
1.47863e-24
2.16392e-22
-1.18756e-24
5.71629e-23
2.71357e-24
1.29356e-22
6.54441e-24
-9.76238e-23
4.497e-24
-1.26953e-23
5.02448e-24
4.82922e-23
-9.24239e-25
-5.0458e-23
9.5959e-25
-4.00864e-23
-1.79889e-24
-7.89307e-23
-1.92004e-24
6.27658e-23
-8.08148e-24
-1.08644e-22
-1.10262e-23
8.79799e-23
-1.81177e-23
-1.03683e-22
9.87005e-23
-2.25137e-23
-4.77884e-23
-1.62564e-23
1.27297e-22
-3.62925e-24
1.39321e-22
-3.8299e-24
2.61788e-22
-1.80179e-24
1.97059e-22
2.26155e-24
1.85638e-22
-4.82218e-24
-3.37709e-24
-9.09301e-25
1.60407e-22
-4.02056e-24
1.20813e-22
-8.87387e-24
5.89829e-23
-1.24927e-23
1.06763e-22
-7.12004e-24
7.38958e-23
-9.74524e-24
2.11721e-22
-1.18429e-23
5.47971e-23
-3.94594e-24
1.17251e-22
-5.958e-25
9.53653e-23
-8.58037e-24
2.1436e-23
-9.57247e-24
3.22498e-23
-9.20716e-24
7.94405e-23
-5.9494e-24
3.18769e-23
-1.46101e-23
-6.95196e-23
-1.64112e-23
7.85068e-23
-1.23925e-23
5.6051e-23
-1.03492e-23
3.62919e-23
-1.66577e-23
-2.34524e-23
-1.24716e-23
1.02769e-22
-1.13356e-23
7.13383e-23
-1.64034e-23
-2.20576e-23
-1.68325e-23
-9.23475e-24
-7.61863e-24
1.18635e-22
-4.35775e-24
1.42771e-22
-4.72518e-24
1.32841e-22
-1.33056e-24
1.60969e-22
7.23767e-25
1.63969e-23
1.34061e-24
1.79342e-22
-8.45744e-25
5.0651e-23
1.98412e-24
1.31723e-22
7.0715e-24
-1.45607e-23
5.06667e-24
-2.65418e-23
4.78971e-24
7.16584e-23
-1.58446e-24
-4.11425e-23
5.77408e-25
-3.99005e-23
-8.57404e-25
-7.41557e-23
-2.03795e-24
6.41929e-23
-7.51075e-24
1.47981e-23
-1.1811e-23
9.13954e-23
-1.69195e-23
-9.63017e-23
6.47122e-23
-2.25319e-23
-4.98434e-23
-1.44528e-23
1.17688e-22
-3.00201e-24
1.32784e-22
-3.56495e-24
2.0638e-22
-1.87511e-24
1.13935e-22
2.13561e-24
1.25263e-22
-3.54666e-24
4.40971e-24
-1.07852e-24
1.57115e-22
-3.79547e-24
7.60885e-23
-8.56802e-24
5.72986e-23
-1.23426e-23
3.12366e-23
-5.82453e-24
7.08093e-23
-1.05152e-23
2.10588e-22
-1.20694e-23
4.14431e-23
-3.94064e-24
1.12257e-22
-7.58252e-25
9.32246e-23
-8.51518e-24
3.25348e-23
-9.11884e-24
3.7186e-23
-9.21443e-24
1.20226e-22
-6.4712e-24
3.03167e-23
-1.36409e-23
-6.44899e-23
-1.62534e-23
1.89395e-23
-1.24455e-23
4.99744e-23
-1.1046e-23
3.86682e-23
-1.59587e-23
-1.8337e-23
-1.25271e-23
8.37135e-23
-1.19333e-23
7.45974e-23
-1.63767e-23
-4.15167e-23
-1.56182e-23
-7.46279e-24
-7.27936e-24
1.1743e-22
-3.93019e-24
1.41848e-22
-4.647e-24
1.28504e-22
-1.4251e-24
2.18848e-22
1.42999e-24
1.4938e-23
5.45547e-25
1.78174e-22
-8.77216e-25
8.68867e-23
1.27532e-24
1.47754e-22
7.11099e-24
3.49861e-23
6.0489e-24
-1.15875e-23
4.32831e-24
6.04676e-23
-1.99816e-24
-1.72326e-23
1.19746e-25
3.30462e-23
-7.48939e-26
-3.51234e-23
-1.89834e-24
6.42859e-23
-8.09798e-24
1.97199e-23
-1.23848e-23
9.52274e-23
-1.69102e-23
-2.57047e-23
3.27141e-23
-2.23023e-23
-4.93402e-23
-1.36654e-23
1.04518e-22
-2.94752e-24
1.19528e-22
-3.42087e-24
2.10541e-22
-2.41096e-24
1.26832e-22
2.527e-24
1.244e-22
-2.63263e-24
-6.28354e-23
-1.37464e-24
1.54792e-22
-3.33816e-24
7.37999e-23
-8.77948e-24
-2.03274e-23
-1.16189e-23
2.84765e-23
-4.95531e-24
6.76768e-23
-1.10904e-23
1.53481e-22
-1.13018e-23
4.11751e-23
-4.043e-24
1.48976e-22
-5.02889e-25
8.08927e-23
-8.67229e-24
3.11704e-23
-8.27534e-24
1.02555e-22
-9.73581e-24
1.22094e-22
-6.94801e-24
2.88315e-23
-1.32624e-23
-5.72528e-23
-1.53887e-23
2.36784e-23
-1.25605e-23
2.82577e-23
-1.14654e-23
4.36941e-23
-1.5421e-23
2.16256e-23
-1.24686e-23
8.4354e-23
-1.26683e-23
9.54543e-23
-1.60795e-23
-4.51949e-23
-1.48971e-23
2.65596e-23
-6.80067e-24
1.16709e-22
-3.70242e-24
1.41665e-22
-5.40739e-24
9.05659e-23
-1.94643e-24
2.08724e-22
2.17988e-24
7.55418e-24
6.74492e-25
1.759e-22
-1.582e-24
4.27279e-23
1.31216e-24
1.93764e-22
6.55064e-24
4.13175e-23
6.6432e-24
-8.83067e-24
5.16842e-24
7.34081e-23
-2.69371e-24
-4.18614e-23
2.57499e-25
2.98576e-23
9.52821e-25
3.52181e-24
-1.38883e-24
6.46759e-23
-8.58576e-24
2.67681e-23
-1.27787e-23
6.24477e-23
-1.83669e-23
-1.18041e-24
6.42909e-23
-2.21902e-23
-1.12269e-22
-1.25679e-23
1.66898e-22
-2.47344e-24
1.08846e-22
-3.61378e-24
1.51016e-22
-2.46142e-24
1.14808e-22
2.88435e-24
1.36973e-22
-2.01817e-24
-5.67882e-23
-1.30924e-24
1.9507e-22
-3.80404e-24
5.7987e-23
-9.0087e-24
-6.37142e-23
-1.0746e-23
2.86559e-23
-4.85593e-24
1.01707e-22
-1.08689e-23
1.58801e-22
-1.1552e-23
3.44127e-23
-4.01237e-24
1.08862e-22
-7.27743e-25
8.22693e-23
-7.90102e-24
4.0393e-23
-8.2706e-24
1.44603e-22
-9.80393e-24
1.21691e-22
-7.51554e-24
2.98355e-23
-1.30636e-23
-5.05747e-23
-1.46253e-23
2.99237e-23
-1.25769e-23
3.72488e-23
-1.15403e-23
4.87716e-23
-1.5236e-23
2.52114e-23
-1.24855e-23
8.56333e-23
-1.34427e-23
1.01825e-22
-1.54769e-23
-4.96923e-23
-1.42828e-23
-1.25752e-23
-6.00963e-24
1.28875e-22
-3.85027e-24
1.44788e-22
-5.35859e-24
7.92312e-23
-2.64754e-24
1.98918e-22
3.19247e-24
-4.78547e-24
1.46825e-24
1.77577e-22
-1.67383e-24
3.83543e-23
6.41778e-25
2.41511e-22
7.41014e-24
1.19643e-22
6.35772e-24
-3.66499e-23
4.89595e-24
5.0975e-23
-1.9029e-24
-6.26174e-23
-3.49586e-26
2.80921e-23
1.26967e-24
6.21257e-23
-8.95818e-25
6.23461e-23
-9.38038e-24
-3.52982e-23
-1.24757e-23
7.46135e-23
-1.86283e-23
2.82302e-23
5.83611e-23
-2.16386e-23
-4.84514e-23
-1.182e-23
2.66913e-22
-2.23417e-24
9.9366e-23
-3.16432e-24
1.51814e-22
-2.36377e-24
4.01005e-23
2.42212e-24
6.15245e-23
-1.35191e-24
-7.12502e-23
-8.74349e-25
1.95712e-22
-4.62615e-24
-1.77913e-23
-8.09496e-24
-1.0808e-22
-9.91098e-24
9.33678e-23
-4.22482e-24
1.02508e-22
-1.14084e-23
9.89852e-23
-1.14137e-23
-4.46495e-24
-4.18758e-24
7.24912e-23
-7.28438e-25
8.66104e-23
-6.92806e-24
4.95715e-23
-8.43314e-24
1.10863e-22
-1.0029e-23
1.21824e-22
-7.9949e-24
3.26472e-23
-1.286e-23
-4.2339e-23
-1.38731e-23
2.97181e-23
-1.26786e-23
1.07125e-23
-1.15259e-23
5.59647e-23
-1.49617e-23
2.38519e-23
-1.26325e-23
6.6471e-23
-1.38669e-23
1.06005e-22
-1.55954e-23
-5.11489e-23
-1.29392e-23
3.1697e-23
-5.90396e-24
1.25209e-22
-3.5699e-24
1.4502e-22
-5.28807e-24
8.41691e-23
-2.79667e-24
2.27203e-22
3.57322e-24
5.49776e-23
1.60624e-24
1.9455e-22
-1.43355e-24
-3.51988e-23
-2.22572e-25
2.85166e-22
7.17813e-24
1.5416e-22
6.70631e-24
-3.04495e-23
5.64331e-24
7.55493e-23
-2.19116e-24
-1.4394e-22
4.63977e-26
9.97144e-23
1.46822e-24
5.92198e-23
-1.3395e-24
6.15221e-23
-8.9203e-24
-9.917e-23
-1.25513e-23
8.52375e-23
-1.89416e-23
-1.94624e-23
-1.16089e-23
-2.21637e-23
7.15118e-23
-1.99292e-23
6.34711e-23
-1.25274e-23
2.57926e-22
-1.89503e-24
1.62861e-22
-3.30497e-24
1.15438e-22
-3.08103e-24
4.27714e-23
3.42528e-24
1.15882e-22
2.57416e-25
-7.23208e-23
-1.43363e-24
2.13836e-22
-5.30467e-24
-1.93737e-23
-6.61829e-24
-8.48141e-23
-1.02965e-23
9.52459e-23
-4.16281e-24
1.83006e-22
-1.14848e-23
1.06717e-22
-1.15714e-23
-2.23262e-23
-3.63238e-24
7.38742e-23
-6.28329e-25
2.85923e-23
-6.23661e-24
5.6515e-23
-8.6272e-24
1.13339e-22
-1.02335e-23
1.2556e-22
-8.47803e-24
-3.85326e-24
-1.26029e-23
-3.5707e-23
-1.32902e-23
6.38648e-23
-1.26734e-23
5.71329e-24
-1.1686e-23
6.19248e-23
-1.45054e-23
2.51919e-23
-1.28616e-23
6.55767e-23
-1.43933e-23
1.08355e-22
-1.4931e-23
-6.45494e-23
-1.24856e-23
3.74944e-23
-5.16049e-24
1.24013e-22
-3.88351e-24
1.47755e-22
-4.94553e-24
8.45124e-23
-2.94144e-24
2.18889e-22
4.11831e-24
2.40781e-23
5.35298e-25
1.33837e-22
5.45803e-25
-4.11579e-23
-6.8199e-26
2.93155e-22
5.59726e-24
1.46141e-22
6.75027e-24
-6.24444e-23
5.06228e-24
8.43856e-23
-9.02337e-25
-1.29598e-22
5.04483e-25
9.90977e-23
1.1539e-24
9.17932e-23
-1.86061e-24
-8.44859e-24
-8.10895e-24
-9.46898e-23
-1.29983e-23
-2.49895e-23
-1.92635e-23
-9.41914e-24
-2.20708e-23
-1.52657e-23
5.4584e-23
-2.13328e-23
1.0417e-22
-1.99326e-23
6.82141e-23
-1.24624e-23
2.31666e-22
-2.34189e-24
1.94622e-22
-3.40146e-24
7.82959e-23
-2.56918e-24
4.31685e-23
3.99539e-24
1.0387e-22
9.13546e-25
-7.12789e-23
-1.4071e-24
2.13467e-22
-5.81712e-24
-5.21456e-23
-5.58016e-24
-3.06768e-23
-9.67488e-24
2.44243e-23
-4.9801e-24
1.23344e-22
-1.13024e-23
1.31363e-22
-1.15829e-23
-2.20918e-23
-3.23217e-24
7.44952e-23
7.45209e-26
3.05789e-23
-5.87012e-24
6.09724e-23
-8.19767e-24
1.11525e-22
-1.09146e-23
1.30346e-22
-8.50736e-24
3.68573e-23
-1.22487e-23
1.775e-23
-1.3031e-23
6.02866e-23
-1.2637e-23
1.3474e-24
-1.17728e-23
6.74102e-23
-1.4268e-23
2.66325e-23
-1.29213e-23
2.61456e-23
-1.50263e-23
9.11165e-23
-1.44526e-23
-6.55609e-23
-1.19046e-23
-2.39964e-23
-5.02249e-24
1.2272e-22
-3.69392e-24
1.47956e-22
-5.10038e-24
8.76654e-23
-3.1925e-24
1.9998e-22
4.01812e-24
9.0359e-24
7.59105e-25
1.38496e-22
1.79432e-24
3.06051e-23
-8.02975e-25
2.07311e-22
5.27876e-24
1.42075e-22
6.61339e-24
-1.22019e-22
5.0131e-24
9.14855e-23
-1.37438e-25
-1.19936e-22
6.89346e-25
6.3618e-23
5.43056e-25
8.98334e-23
-2.03421e-24
-4.25984e-23
-8.2553e-24
-4.90848e-23
-1.24859e-23
-1.3599e-23
-1.98208e-23
-1.62183e-23
-5.1813e-23
-1.51591e-23
-2.25237e-23
-2.0955e-23
3.22696e-23
-2.04242e-23
6.8488e-23
-1.16054e-23
2.24361e-22
-3.30752e-24
1.89841e-22
-2.98194e-24
7.57821e-23
-2.62986e-24
1.1868e-22
4.60353e-24
1.42174e-22
9.45441e-25
-6.66784e-23
-1.81267e-24
2.09637e-22
-5.47019e-24
-4.97127e-23
-5.38065e-24
-1.79121e-23
-8.68823e-24
3.21355e-23
-5.44603e-24
5.91985e-23
-1.17444e-23
8.03838e-23
-1.1646e-23
-2.5603e-23
-3.07583e-24
1.42569e-22
5.03199e-25
-1.10048e-23
-5.3152e-24
6.27451e-23
-8.00811e-24
1.1097e-22
-1.14057e-23
7.08511e-23
-8.38454e-24
3.59853e-23
-1.23397e-23
-8.26772e-24
-1.25372e-23
6.23983e-23
-1.26951e-23
-1.57966e-23
-1.1835e-23
7.39036e-23
-1.41848e-23
2.93988e-23
-1.28807e-23
2.01109e-23
-1.54484e-23
4.39911e-23
-1.43808e-23
-7.04558e-23
-1.12928e-23
-1.76623e-23
-4.13992e-24
1.06211e-22
-3.92823e-24
1.11631e-22
-4.69209e-24
5.13936e-23
-3.76726e-24
1.79148e-22
4.50355e-24
2.23476e-23
1.32711e-24
9.48979e-23
2.12424e-24
6.97607e-23
-1.11816e-24
1.71532e-22
4.70476e-24
2.06523e-22
6.96818e-24
-1.21702e-22
5.67663e-24
9.85465e-23
8.05659e-25
-3.65602e-23
8.37867e-25
6.62125e-23
-6.25725e-25
1.9669e-23
-1.84077e-24
-2.48301e-23
-8.42277e-24
-8.14167e-23
-1.20911e-23
-7.88956e-24
-1.98947e-23
-4.87802e-23
2.94618e-23
-1.457e-23
-2.95082e-23
1.57068e-23
-2.06698e-23
-1.38401e-23
-2.05153e-23
1.0723e-23
-1.09338e-23
2.79888e-22
-4.25607e-24
1.22353e-22
-2.65789e-24
6.95904e-23
-3.13064e-24
7.63612e-23
5.50151e-24
1.71846e-22
1.99975e-24
-1.0268e-22
-2.35652e-24
2.08126e-22
-5.45447e-24
-3.24138e-23
-4.89536e-24
-3.02256e-23
-7.99318e-24
4.19201e-23
-4.94386e-24
5.7585e-23
-1.20327e-23
9.20493e-23
-1.06074e-23
-2.912e-23
-3.86599e-24
1.02924e-22
1.3208e-24
5.98624e-23
-4.70682e-24
6.56093e-23
-8.11291e-24
1.12904e-22
-1.14066e-23
7.36485e-23
-8.39168e-24
3.56686e-23
-1.22598e-23
-3.83501e-24
-1.22547e-23
1.01327e-22
-1.26799e-23
-1.41314e-23
-1.19204e-23
8.23368e-23
-1.41534e-23
2.9097e-23
-1.32157e-23
1.11125e-23
-1.55767e-23
4.13518e-23
-1.44276e-23
-7.35358e-23
-1.04555e-23
-1.22711e-23
-3.47872e-24
1.06611e-22
-4.47155e-24
5.35651e-23
-4.21756e-24
1.28782e-22
-4.1796e-24
1.61475e-22
3.7126e-24
3.98376e-23
1.92093e-24
4.90475e-23
2.36583e-24
7.3907e-23
-1.26156e-24
1.76845e-22
4.21813e-24
2.01785e-22
7.18725e-24
-1.22686e-22
5.79789e-24
1.42138e-22
8.07848e-25
-6.07889e-23
1.13645e-24
8.30183e-23
-5.45416e-25
6.86378e-23
-1.89622e-24
3.9383e-23
-8.10626e-24
-1.15621e-22
-1.2445e-23
-3.73468e-23
-2.00765e-23
3.15788e-23
1.09267e-22
-1.44274e-23
-5.74245e-23
1.6373e-23
-2.04402e-23
-1.35041e-23
-1.9702e-23
1.51038e-23
-1.15411e-23
2.66904e-22
-3.90471e-24
1.52081e-22
-2.13733e-24