/*--------------------------------*- C++ -*----------------------------------*\
  =========                 |
  \\      /  F ield         | OpenFOAM: The Open Source CFD Toolbox
   \\    /   O peration     | Website:  https://openfoam.org
    \\  /    A nd           | Version:  7
     \\/     M anipulation  |
\*---------------------------------------------------------------------------*/
FoamFile
{
    version     2.0;
    format      ascii;
    class       surfaceScalarField;
    location    "64000";
    object      phi;
}
// * * * * * * * * * * * * * * * * * * * * * * * * * * * * * * * * * * * * * //

dimensions      [0 3 -1 0 0 0 0];

internalField   nonuniform List<scalar> 
9492
(
8.30596e-22
5.60895e-21
3.78247e-22
8.09771e-22
2.85041e-22
4.79635e-22
4.62766e-21
4.45078e-22
8.22705e-22
2.9271e-22
4.55978e-22
2.41238e-22
2.77467e-22
1.99263e-22
1.60549e-22
1.9282e-22
1.43476e-22
1.73704e-22
6.53713e-23
-4.32475e-24
3.59552e-22
3.85198e-21
4.57249e-22
6.09361e-22
3.27121e-22
5.88668e-22
2.85749e-22
2.93929e-22
2.34572e-22
2.00202e-22
2.31735e-22
1.80493e-22
1.8391e-22
6.29407e-23
1.54225e-22
1.29348e-23
1.3176e-22
8.10712e-23
1.2683e-22
1.14101e-22
-1.24936e-23
3.34404e-22
3.03644e-21
4.51585e-22
5.8282e-22
3.49588e-22
6.28414e-22
3.20258e-22
3.42835e-22
2.45066e-22
2.07442e-22
2.32164e-22
1.79635e-22
1.816e-22
1.07144e-22
1.54214e-22
1.3137e-23
1.32221e-22
5.58191e-23
1.16521e-22
8.4562e-23
1.07058e-22
2.4576e-23
1.01746e-22
6.42901e-23
8.43584e-23
5.54088e-24
9.82008e-23
3.4327e-23
5.96062e-23
-4.29252e-23
-1.87158e-23
4.9828e-23
2.90603e-22
2.38125e-21
3.6042e-22
5.02168e-22
3.14422e-22
6.98916e-22
2.89045e-22
4.27535e-22
2.2911e-22
2.44323e-22
2.31477e-22
2.08584e-22
1.70098e-22
3.64212e-23
1.5603e-22
2.496e-23
1.34703e-22
7.37881e-23
1.05983e-22
6.79912e-23
1.08646e-22
8.83592e-23
9.16584e-23
6.93692e-23
8.20785e-23
3.3142e-23
8.52997e-23
-1.04401e-23
6.43088e-23
-5.07066e-23
-3.12251e-23
4.93829e-23
2.24605e-22
2.7344e-22
5.43299e-22
2.77184e-22
7.54357e-22
2.51696e-22
3.81432e-22
2.20904e-22
3.04593e-22
2.19938e-22
2.39002e-22
1.65496e-22
8.9469e-23
1.57442e-22
1.06444e-22
1.29333e-22
6.64088e-23
1.08438e-22
4.4813e-23
1.01591e-22
8.186e-23
8.81595e-23
3.27501e-23
7.52963e-23
3.01171e-23
7.92448e-23
-3.54956e-23
6.27551e-23
-7.05501e-23
4.77642e-24
5.57228e-23
2.07459e-22
5.17059e-22
2.30267e-22
7.48709e-22
2.29243e-22
4.48958e-22
2.03404e-22
3.21909e-22
2.03626e-22
2.73112e-22
1.66464e-22
1.15954e-22
1.53129e-22
9.30565e-23
1.16658e-22
6.37512e-23
1.08656e-22
8.51851e-23
9.13752e-23
8.78798e-23
8.35908e-23
3.4695e-23
7.21263e-23
5.90088e-23
7.78253e-23
-2.1489e-23
6.47072e-23
-6.10049e-23
-5.76703e-23
4.93378e-23
1.57287e-22
4.60526e-22
1.93701e-22
6.42239e-22
1.97493e-22
4.31404e-22
1.90845e-22
3.73419e-22
1.91423e-22
2.75402e-22
1.59271e-22
1.40092e-22
1.49471e-22
1.39623e-22
1.15897e-22
9.98137e-23
1.0512e-22
7.78198e-23
8.11491e-23
6.44715e-23
8.81137e-23
3.70397e-23
6.07173e-23
4.7834e-23
7.13765e-23
-1.76537e-23
6.35645e-23
-6.07846e-23
-3.67853e-23
5.18233e-23
1.14755e-22
4.15546e-22
1.64518e-22
5.83638e-22
1.73616e-22
4.16679e-22
1.74124e-22
3.73573e-22
1.77681e-22
2.74433e-22
1.48172e-22
1.69e-22
1.41385e-22
1.50693e-22
1.08198e-22
6.21012e-23
9.8799e-23
7.54196e-23
7.61615e-23
7.40941e-23
8.72772e-23
2.06396e-23
5.76988e-23
-2.09814e-24
6.3807e-23
-5.588e-23
7.03111e-23
-3.43334e-23
-4.29415e-23
4.91016e-23
5.88192e-23
8.5949e-22
8.23666e-23
3.79208e-22
1.3806e-22
5.5634e-22
1.5246e-22
4.47804e-22
1.56454e-22
4.19578e-22
1.6486e-22
3.08795e-22
1.38456e-22
1.52998e-22
1.29737e-22
1.54418e-22
1.04848e-22
8.41703e-24
9.42688e-23
7.0182e-23
7.08536e-23
4.77828e-23
7.37255e-23
1.17777e-23
5.57312e-23
5.12424e-24
6.50265e-23
-1.68925e-23
6.40566e-23
-4.36585e-23
-1.04874e-22
5.44156e-23
3.75272e-23
6.53006e-22
5.55561e-23
3.04419e-22
1.17336e-22
4.98372e-22
1.35115e-22
4.16958e-22
1.39149e-22
3.73232e-22
1.46099e-22
2.98376e-22
1.36123e-22
1.96288e-22
1.14916e-22
1.37804e-22
1.07372e-22
9.48383e-23
8.63106e-23
7.79641e-23
6.50707e-23
5.55693e-23
6.75362e-23
8.68034e-23
5.08898e-23
6.29459e-23
5.72971e-23
1.25811e-23
6.00288e-23
-2.65071e-23
-6.48346e-23
6.77261e-23
2.8668e-23
5.49407e-22
4.06134e-23
2.78543e-22
1.01079e-22
4.87135e-22
1.17909e-22
4.38605e-22
1.24998e-22
3.62941e-22
1.33072e-22
2.86713e-22
1.21593e-22
2.35987e-22
1.08423e-22
1.41914e-22
1.0232e-22
9.66116e-23
8.50911e-23
8.9361e-23
6.55445e-23
7.40341e-23
6.3509e-23
9.31318e-23
4.95995e-23
5.26907e-23
4.91735e-23
-1.96437e-24
5.48124e-23
-2.88816e-23
-4.95466e-23
7.01025e-23
1.88405e-23
4.75785e-22
2.87787e-23
2.5872e-22
8.94113e-23
4.30952e-22
1.00175e-22
4.2921e-22
1.09816e-22
3.51556e-22
1.25661e-22
3.16889e-22
1.11479e-22
1.59304e-22
1.02489e-22
1.43704e-22
9.75381e-23
1.38094e-22
8.23444e-23
1.16762e-22
6.45695e-23
9.56074e-23
5.11807e-23
3.43105e-23
4.73426e-23
7.81528e-23
4.1662e-23
5.14581e-23
5.75746e-23
1.84271e-23
-4.14274e-24
6.83106e-23
-5.51087e-23
2.33989e-22
1.28762e-23
4.07038e-22
1.99015e-23
2.36601e-22
8.44571e-23
4.78503e-22
8.30359e-23
3.5356e-22
9.90841e-23
3.3609e-22
1.12314e-22
2.96209e-22
1.02563e-22
1.74341e-22
9.85434e-23
1.79372e-22
9.6198e-23
9.22259e-23
7.30034e-23
1.35689e-23
6.16989e-23
1.55132e-22
4.73457e-23
4.9412e-23
4.47059e-23
7.17669e-23
3.69507e-23
6.64013e-23
5.74627e-23
6.08581e-23
-1.45155e-23
6.48448e-23
-4.77284e-23
2.25515e-22
1.08505e-23
3.61258e-22
2.05839e-23
2.54727e-22
7.06538e-23
4.17199e-22
7.45044e-23
2.70876e-22
8.77246e-23
3.15e-22
9.88764e-23
3.22704e-22
9.65971e-23
1.96295e-22
8.89019e-23
1.95717e-22
9.11234e-23
1.26963e-22
7.69544e-23
-1.36383e-23
5.60164e-23
1.04106e-22
4.52361e-23
2.21863e-23
4.46688e-23
9.53027e-23
3.3833e-23
4.41834e-23
5.25472e-23
6.30636e-23
-8.86864e-24
6.48251e-23
-6.56782e-23
2.63392e-22
-4.24442e-23
2.04617e-22
8.39552e-24
3.26323e-22
1.79594e-23
2.30124e-22
5.39737e-23
3.83799e-22
6.85067e-23
2.49337e-22
8.28753e-23
2.57026e-22
8.93261e-23
2.6464e-22
9.0071e-23
1.74285e-22
7.86189e-23
1.60613e-22
7.86145e-23
1.19911e-22
8.0285e-23
-2.62224e-24
5.25127e-23
5.42895e-23
4.88504e-23
4.53417e-24
4.30742e-23
1.01461e-22
3.35506e-23
4.40492e-23
4.79267e-23
4.70993e-23
-1.22043e-23
6.08089e-23
-5.60792e-23
2.85611e-22
-3.73811e-23
2.06297e-22
8.28347e-24
2.91445e-22
1.63414e-23
2.51739e-22
4.16477e-23
2.86392e-22
5.95477e-23
2.72606e-22
7.66616e-23
2.73288e-22
8.04442e-23
2.50207e-22
8.14953e-23
2.04436e-22
7.17434e-23
1.67555e-22
6.85735e-23
1.20976e-22
7.64019e-23
5.07537e-23
5.20303e-23
6.56874e-23
5.34196e-23
1.58127e-23
3.97327e-23
7.08742e-23
2.98164e-23
4.16813e-23
4.75824e-23
2.16536e-23
2.29623e-23
6.02767e-23
-4.82799e-23
1.7716e-22
-3.41036e-23
2.08411e-22
7.32876e-24
3.06932e-22
9.63854e-24
2.28743e-22
3.55455e-23
2.29687e-22
5.47911e-23
2.44442e-22
6.87878e-23
2.55064e-22
7.58697e-23
2.78985e-22
7.33895e-23
2.1599e-22
6.8864e-23
1.26715e-22
6.34329e-23
9.08835e-23
7.46164e-23
7.30772e-23
4.76123e-23
8.08693e-23
5.5434e-23
1.33801e-22
3.92361e-23
6.79611e-23
2.63547e-23
4.28329e-23
4.93274e-23
6.63517e-23
6.01004e-23
5.61079e-23
-3.80379e-23
1.84579e-22
-2.98527e-23
1.98399e-22
5.77005e-24
2.88494e-22
3.32951e-24
2.32414e-22
3.17185e-23
2.51164e-22
5.25457e-23
2.28207e-22
6.65562e-23
2.42458e-22
6.9657e-23
2.72736e-22
6.27581e-23
1.95746e-22
6.18799e-23
1.29446e-22
5.64099e-23
9.68695e-23
7.27743e-23
8.43957e-23
4.67011e-23
9.1678e-23
4.87961e-23
1.12659e-22
3.75016e-23
5.77371e-23
2.7301e-23
6.76538e-23
5.02194e-23
1.19751e-22
3.3252e-23
4.66105e-23
-2.80929e-23
1.81542e-22
-2.50997e-23
1.91744e-22
4.92677e-24
2.62842e-22
3.12544e-25
1.21929e-22
2.56136e-23
1.87299e-22
4.56216e-23
2.32641e-22
6.47735e-23
2.24209e-22
6.2262e-23
1.99939e-22
5.64378e-23
2.11534e-22
5.51811e-23
1.31163e-22
5.57614e-23
9.81109e-23
7.15901e-23
1.35234e-22
4.94735e-23
9.74945e-23
4.46818e-23
9.77936e-23
3.50354e-23
5.66012e-23
2.65292e-23
5.54376e-23
4.66599e-23
6.8273e-23
3.31239e-23
4.32972e-23
-2.05331e-23
1.75932e-22
-2.07658e-23
1.62248e-22
-2.01425e-24
2.45231e-22
1.00698e-24
1.77329e-22
2.46954e-23
2.23018e-22
3.8851e-23
2.27178e-22
5.77557e-23
2.00829e-22
5.78326e-23
1.98821e-22
5.20625e-23
1.84306e-22
4.9145e-23
1.36869e-22
5.52753e-23
1.49783e-22
6.53167e-23
1.23649e-22
4.87476e-23
6.72143e-23
4.16626e-23
9.03955e-23
3.49153e-23
5.20158e-23
2.5995e-23
7.5739e-23
4.60705e-23
5.99265e-23
2.8098e-23
4.14545e-23
-1.67458e-23
1.41667e-22
-1.59068e-23
1.62476e-22
-5.29769e-24
1.85658e-22
-9.24459e-25
1.76965e-22
2.25639e-23
2.46449e-22
3.38314e-23
2.63815e-22
5.43211e-23
3.04655e-22
5.29587e-23
2.07541e-22
4.67622e-23
1.75183e-22
4.6171e-23
1.77461e-22
5.10826e-23
1.54985e-22
6.29469e-23
1.10291e-22
4.69262e-23
3.24275e-23
4.09989e-23
8.32931e-23
3.40541e-23
9.15967e-23
2.43028e-23
9.21604e-23
4.57122e-23
1.0033e-22
3.03719e-23
4.01378e-23
-1.32825e-23
1.55503e-22
-1.29836e-23
1.74413e-22
-5.62823e-24
1.64492e-22
-3.89314e-25
1.9489e-22
1.94618e-23
2.40668e-22
3.0753e-23
2.62544e-22
4.66022e-23
2.81236e-22
4.71469e-23
2.06804e-22
4.52474e-23
2.15641e-22
4.20466e-23
1.81595e-22
4.72705e-23
2.00576e-22
5.56249e-23
9.79248e-23
4.81559e-23
4.57222e-23
4.15076e-23
7.2809e-23
3.35082e-23
5.26552e-23
2.19394e-23
9.56412e-23
4.32337e-23
1.51672e-22
1.92303e-23
3.59599e-23
-1.04648e-23
1.7191e-22
-1.10056e-23
1.81508e-22
-2.32864e-24
1.59345e-22
-4.67569e-25
1.69824e-22
1.97735e-23
2.60921e-22
2.75878e-23
2.60183e-22
3.74398e-23
2.79175e-22
4.51731e-23
2.40716e-22
4.41475e-23
2.1282e-22
3.72279e-23
2.04325e-22
4.08514e-23
2.44487e-22
5.2945e-23
8.11816e-23
4.65672e-23
3.26776e-23
4.04642e-23
6.13435e-23
3.38789e-23
5.37459e-23
2.32836e-23
5.96775e-23
3.65457e-23
1.22076e-22
2.44465e-23
3.34286e-23
-9.42941e-24
1.17951e-22
-8.56986e-24
1.51741e-22
-3.92459e-24
1.12237e-22
3.02194e-24
1.47837e-22
1.65002e-23
2.494e-22
2.34501e-23
1.78283e-22
3.31455e-23
2.72617e-22
3.83042e-23
2.49628e-22
4.24241e-23
2.07853e-22
3.63046e-23
1.33828e-22
3.23262e-23
1.80933e-22
4.83659e-23
8.60899e-23
4.59691e-23
4.85785e-23
4.11293e-23
8.11206e-23
3.32596e-23
9.74986e-23
2.71626e-23
6.73524e-23
2.95875e-23
4.63745e-23
2.01936e-23
3.30551e-23
-7.72814e-24
1.35457e-22
-7.89073e-24
1.50495e-22
-4.91093e-24
1.09226e-22
5.83233e-24
1.23623e-22
1.38012e-23
1.63425e-22
2.46985e-23
1.70324e-22
3.10756e-23
3.02045e-22
3.29776e-23
2.56857e-22
3.71131e-23
2.10037e-22
3.54781e-23
1.92669e-22
2.54577e-23
1.95762e-22
4.4928e-23
1.83605e-22
4.45489e-23
1.62973e-22
4.06739e-23
7.43242e-23
3.07928e-23
1.09502e-22
2.56308e-23
1.03373e-22
2.83366e-23
1.31756e-23
2.12163e-23
3.07191e-23
-8.30514e-24
1.9549e-22
-6.81563e-24
1.47109e-22
-5.26229e-24
1.09423e-22
7.47206e-24
1.17128e-22
1.2673e-23
1.22058e-22
2.47652e-23
1.16994e-22
2.81653e-23
2.27455e-22
2.86382e-23
1.81812e-22
3.55527e-23
2.155e-22
3.08962e-23
1.24604e-22
2.60112e-23
2.07075e-22
4.12206e-23
1.49335e-22
4.3697e-23
1.51136e-22
3.96198e-23
4.75159e-23
3.06726e-23
8.97834e-23
1.99356e-23
-1.38175e-23
2.97754e-23
7.94355e-23
1.85673e-23
2.92869e-23
-1.04575e-23
1.25487e-22
-5.88189e-24
1.43219e-22
-5.05921e-24
1.39441e-22
4.30558e-24
1.37721e-22
1.39712e-23
1.10425e-22
2.60906e-23
1.369e-22
2.61027e-23
2.82053e-22
2.67403e-23
1.83205e-22
2.80137e-23
1.51723e-22
3.10649e-23
1.40528e-22
2.52407e-23
2.11349e-22
3.76711e-23
1.20807e-22
4.22834e-23
1.31009e-22
3.90061e-23
-2.15273e-23
2.79906e-23
2.49345e-23
2.46344e-23
-1.65889e-23
2.68107e-23
6.78053e-23
1.02951e-23
2.78867e-23
-8.34562e-24
1.3582e-22
-5.43791e-24
2.08705e-22
-5.30152e-24
1.13449e-22
-6.67705e-26
1.1806e-22
1.81582e-23
1.7011e-22
2.65487e-23
9.41038e-23
2.25149e-23
2.57112e-22
2.47328e-23
1.86718e-22
2.59291e-23
1.95803e-22
2.92924e-23
1.20116e-22
2.332e-23
2.11401e-22
3.58135e-23
9.16878e-23
3.66834e-23
2.0554e-22
3.66002e-23
1.68066e-23
2.70585e-23
3.77116e-23
2.72351e-23
9.09093e-24
2.26422e-23
6.11192e-23
2.85201e-23
2.67347e-23
-4.22283e-24
1.14712e-22
-8.54385e-24
1.52869e-22
-4.14911e-24
1.05805e-22
-3.87666e-25
1.0958e-22
1.61115e-23
2.01582e-22
2.86739e-23
9.4175e-23
2.12771e-23
1.92422e-22
1.84314e-23
6.2131e-23
2.39859e-23
1.98218e-22
2.98752e-23
1.14257e-22
1.98001e-23
2.08137e-22
3.52035e-23
1.32725e-22
3.14424e-23
1.60544e-22
3.41499e-23
5.8999e-23
2.57921e-23
9.31354e-23
2.94557e-23
-5.48203e-23
2.19575e-23
-1.77413e-23
3.84254e-23
2.54722e-23
-7.206e-24
9.2012e-23
-3.91244e-25
1.49151e-22
-8.7929e-24
1.12974e-22
-4.2002e-24
7.1487e-23
2.41872e-25
6.88635e-23
1.28221e-23
1.99543e-22
2.77356e-23
1.18053e-22
1.82802e-23
1.64483e-22
1.85013e-23
6.22317e-23
2.11636e-23
1.94951e-22
2.96659e-23
1.32225e-22
1.86168e-23
1.95674e-22
3.38262e-23
1.07144e-22
2.66912e-23
1.54094e-22
3.04409e-23
7.29698e-23
2.33587e-23
1.15517e-22
2.8109e-23
9.71219e-24
2.3618e-23
4.817e-23
4.23162e-23
2.30489e-23
-3.713e-24
9.44873e-23
7.58531e-25
1.41937e-22
-1.01351e-23
8.22037e-23
-3.45663e-24
4.69972e-23
1.51887e-24
6.5544e-23
1.00048e-23
1.5374e-22
2.35298e-23
1.13354e-22
1.6501e-23
1.34788e-22
1.9132e-23
7.46309e-23
2.10653e-23
1.90642e-22
2.70972e-23
1.20218e-22
1.60205e-23
1.62589e-22
2.97969e-23
7.60673e-23
2.58289e-23
1.47989e-22
2.67552e-23
8.78505e-23
2.14316e-23
1.42205e-22
2.70611e-23
-3.12258e-24
2.41479e-23
6.97694e-23
3.81932e-23
2.3795e-23
-1.07596e-23
1.87332e-22
-1.4394e-24
9.53042e-23
8.21904e-25
9.57504e-23
-1.08959e-23
5.09224e-23
-1.46057e-24
3.00605e-23
2.33733e-24
6.43202e-23
1.13868e-23
1.5363e-22
2.01632e-23
1.28034e-22
1.56039e-23
1.52338e-22
1.8762e-23
8.9518e-23
2.03472e-23
1.72036e-22
2.59832e-23
1.10881e-22
1.47788e-23
1.15404e-22
3.22143e-23
1.31317e-22
2.48214e-23
1.48364e-22
2.53844e-23
1.3111e-22
1.88671e-23
1.55782e-22
2.76851e-23
-2.22014e-23
2.08007e-23
7.14036e-23
4.59447e-23
2.40218e-23
-1.16331e-23
1.72822e-22
-2.70505e-25
1.27963e-22
1.23848e-24
9.14952e-23
-1.21581e-23
-5.98659e-24
2.11158e-26
9.39748e-24
1.88914e-24
-1.66677e-23
1.29537e-23
1.42866e-22
1.75524e-23
9.95433e-23
1.52635e-23
1.65553e-22
1.55016e-23
1.11106e-22
1.84403e-23
1.75117e-22
2.29955e-23
1.02357e-22
1.58424e-23
1.07346e-22
3.202e-23
9.67961e-23
2.35879e-23
1.47279e-22
2.24952e-23
1.35887e-22
1.33569e-23
1.64077e-22
2.93169e-23
8.19915e-23
1.61772e-23
5.31209e-24
5.99605e-23
2.42701e-23
-1.13686e-23
1.26201e-22
-1.18864e-24
1.53046e-22
6.41548e-25
1.81697e-23
-1.20796e-23
8.48085e-24
-5.01268e-25
7.7178e-24
4.29647e-24
-2.16542e-23
1.19938e-23
1.37426e-22
1.68657e-23
7.42441e-23
1.43551e-23
1.1397e-22
1.46547e-23
1.13498e-22
1.74087e-23
1.70367e-22
1.89985e-23
1.28265e-22
1.55829e-23
1.79723e-22
3.03185e-23
1.43193e-22
2.20012e-23
1.46333e-22
2.2436e-23
4.68351e-23
1.45176e-23
8.4527e-23
2.40313e-23
6.64447e-23
1.53559e-23
-1.31567e-23
3.94088e-23
2.3406e-23
-8.53089e-24
1.54148e-22
-5.11917e-24
1.52016e-22
1.131e-24
4.50504e-23
-1.30812e-23
5.19786e-23
1.18645e-26
8.28829e-25
6.08051e-24
-1.86216e-23
1.1381e-23
1.38877e-22
1.64986e-23
1.02255e-22
1.31452e-23
1.42215e-22
1.42045e-23
1.10999e-22
1.47243e-23
1.70663e-22
1.97793e-23
1.23283e-22
1.4102e-23
1.82171e-22
3.01996e-23
1.19303e-22
1.9492e-23
1.11362e-22
2.46502e-23
6.87439e-23
1.47996e-23
5.09467e-23
1.95499e-23
1.22452e-23
1.96755e-23
2.38619e-23
2.38414e-23
2.32774e-23
-6.95525e-24
1.51371e-22
-8.06569e-24
1.59424e-22
4.15335e-24
2.7063e-23
-1.41447e-23
-6.14142e-24
-5.51115e-25
2.61546e-23
9.93913e-24
2.15423e-23
9.16841e-24
1.45926e-22
1.65905e-23
1.47682e-22
1.06206e-23
5.36473e-23
1.39014e-23
1.17828e-22
1.3244e-23
1.3494e-22
1.9836e-23
1.38721e-22
1.10182e-23
1.86538e-22
2.74785e-23
9.78885e-23
1.74362e-23
8.36635e-23
2.18714e-23
6.9821e-23
1.51844e-23
1.37831e-23
1.89418e-23
-3.57923e-23
1.62228e-23
3.12277e-23
-1.59648e-24
2.49452e-23
-5.58258e-24
1.53749e-22
-1.20959e-23
9.71805e-23
3.44373e-24
7.53708e-23
-1.26063e-23
3.33317e-25
2.24067e-25
4.57783e-23
1.17635e-23
8.45168e-23
8.69122e-24
1.25946e-22
1.33235e-23
1.23353e-22
9.76044e-24
7.92836e-23
1.33055e-23
1.30478e-22
1.26403e-23
1.69129e-22
2.06855e-23
1.49477e-22
5.15292e-24
1.91896e-22
2.75944e-23
1.97399e-22
1.83018e-23
1.6348e-22
1.63297e-23
-9.22366e-24
1.31366e-23
1.15493e-22
2.12011e-23
1.32892e-23
1.75477e-23
3.97107e-23
-5.23923e-23
2.36963e-23
-7.09423e-24
7.16769e-23
-1.09506e-23
1.24316e-22
3.57158e-24
7.03783e-23
-1.09684e-23
-6.35077e-23
1.35034e-24
4.43555e-23
1.33378e-23
7.63061e-23
7.10608e-24
5.59262e-23
1.27342e-23
1.12006e-22
9.4943e-24
1.739e-23
1.37023e-23
1.29611e-22
1.14739e-23
1.6013e-22
2.02961e-23
1.06775e-22
5.82798e-24
1.62968e-22
2.40023e-23
2.55965e-22
1.30637e-23
1.13542e-22
1.88517e-23
2.04527e-23
9.61656e-24
5.16939e-23
1.90815e-23
3.57948e-23
1.37026e-23
-2.56591e-23
5.30018e-23
2.70508e-23
-5.61053e-24
7.16407e-23
-1.1485e-23
6.16939e-23
5.99433e-25
1.23282e-23
-9.05942e-24
-5.86324e-23
4.83216e-24
7.39349e-23
1.19678e-23
8.10354e-23
5.49908e-24
6.60286e-23
1.28972e-23
1.44681e-22
9.57644e-24
3.53693e-23
1.46471e-23
1.99668e-22
9.44637e-24
1.18848e-22
1.94445e-23
1.68114e-22
8.7898e-24
1.94763e-22
1.75597e-23
2.05455e-22
9.89577e-24
1.51693e-22
1.80125e-23
8.694e-23
1.09362e-23
5.37685e-23
1.45488e-23
3.51414e-23
1.60907e-23
4.75663e-23
3.53412e-23
2.33092e-23
-5.64014e-24
-5.28302e-24
-1.15232e-23
1.1793e-22
1.27896e-24
4.31144e-23
-7.098e-24
-5.76819e-23
5.45813e-24
8.48036e-23
1.14559e-23
7.6844e-23
5.40828e-24
7.1103e-23
1.08661e-23
1.72964e-22
1.13702e-23
8.4017e-23
1.28813e-23
1.87965e-22
1.05187e-23
1.03757e-22
1.75085e-23
1.62654e-22
8.24102e-24
2.03786e-22
1.77639e-23
1.99891e-22
6.94142e-24
1.61698e-22
1.52537e-23
7.18389e-23
1.15985e-23
6.33557e-23
1.41522e-23
4.20509e-23
1.57097e-23
-2.33038e-23
9.29434e-23
2.12605e-23
-2.1802e-24
-6.93288e-24
-1.3654e-23
5.24183e-23
5.09448e-25
2.52163e-23
-5.22502e-24
-7.5001e-23
7.6245e-24
8.59738e-23
1.04684e-23
1.15998e-22
5.27617e-24
6.57109e-23
1.0827e-23
1.62522e-22
1.12052e-23
9.50848e-23
1.04268e-23
1.8238e-22
1.23767e-23
9.1215e-23
1.75634e-23
1.53334e-22
7.11519e-24
2.24344e-22
1.53571e-23
2.22583e-22
4.62975e-24
1.81788e-22
1.35871e-23
6.0409e-23
1.00382e-23
7.79293e-23
1.31183e-23
9.18013e-23
1.72489e-23
1.58104e-24
1.11428e-23
1.67052e-23
-9.17715e-25
3.22743e-23
-1.39588e-23
-6.49676e-24
4.4959e-25
8.71948e-23
-3.20893e-24
-6.49334e-23
9.98131e-24
1.07967e-22
8.38912e-24
6.99365e-25
6.17556e-24
2.61262e-23
1.02399e-23
2.19438e-22
1.03528e-23
6.23484e-23
8.56975e-24
1.37148e-22
1.28126e-23
1.43579e-22
1.72595e-23
1.75865e-22
6.34297e-24
2.29789e-22
1.21791e-23
2.15566e-22
1.88641e-24
2.05714e-22
1.17759e-23
9.41517e-23
1.02264e-23
9.61174e-23
8.56308e-24
2.38303e-23
1.71266e-23
4.16462e-23
1.10448e-23
1.88101e-23
-1.60003e-24
1.35101e-23
-1.07977e-23
4.95723e-24
-5.73084e-25
7.92551e-23
-1.61867e-24
-2.01839e-23
9.6293e-24
9.71866e-23
9.44318e-24
5.30581e-24
6.84797e-24
1.93642e-23
8.05784e-24
1.58444e-22
9.66862e-24
5.95545e-23
9.59928e-24
1.38632e-22
1.26131e-23
1.26932e-22
1.93674e-23
1.27149e-22
5.72443e-24
1.21176e-22
1.13462e-23
2.12097e-22
-8.86667e-25
2.05437e-22
8.9548e-24
8.02005e-23
8.92405e-24
9.98159e-23
6.82516e-24
1.27131e-23
1.63714e-23
3.08082e-23
1.25403e-23
1.93259e-23
-1.69974e-24
-5.98046e-24
-8.55249e-24
4.61923e-24
-1.09269e-24
7.22492e-23
1.31871e-26
-6.69205e-24
8.80101e-24
9.56234e-23
9.84173e-24
1.12041e-23
7.95387e-24
2.74596e-23
6.484e-24
8.8371e-23
9.85132e-24
4.98271e-23
7.96744e-24
1.23133e-22
1.19427e-23
1.95035e-22
1.77117e-23
1.24566e-22
7.33114e-24
1.43062e-22
9.56878e-24
1.97326e-22
-3.20334e-24
9.67123e-23
8.06076e-24
6.23001e-23
8.56264e-24
1.11418e-22
5.24839e-24
5.38713e-23
1.71758e-23
9.05751e-23
1.53686e-23
1.65893e-23
-1.81169e-24
-2.15418e-23
-6.02644e-24
1.24061e-23
-1.2213e-24
8.75327e-23
1.98474e-24
2.81011e-23
7.93212e-24
9.67597e-23
1.05641e-23
5.95298e-23
7.74216e-24
1.71116e-23
6.82356e-24
1.44464e-22
9.93081e-24
3.52197e-23
9.02511e-24
1.21699e-22
1.04051e-23
1.91966e-22
1.71078e-23
1.18572e-22
7.74506e-24
7.32092e-23
7.65725e-24
6.99495e-23
-2.29503e-24
1.21256e-22
7.20302e-24
4.20624e-23
6.54782e-24
1.09385e-22
5.99926e-24
6.44984e-23
1.48853e-23
7.91552e-23
5.50434e-23
1.62233e-23
-4.84797e-25
1.66876e-23
-4.48784e-24
-1.08855e-23
-1.79458e-24
7.76075e-23
1.4515e-24
3.54946e-23
8.68234e-24
7.79677e-23
8.42542e-24
7.84823e-23
9.8162e-24
4.12226e-23
4.87653e-24
9.24014e-23
1.0863e-23
6.04363e-23
9.92805e-24
1.2127e-22
8.97854e-24
1.9395e-22
1.5067e-23
1.15744e-22
6.93836e-24
8.2603e-23
7.27765e-24
9.05206e-23
-4.97847e-24
1.63792e-22
7.71663e-24
9.61958e-23
6.70675e-24
1.18923e-22
4.59525e-24
8.22418e-24
1.47905e-23
1.44847e-22
5.23928e-23
1.37148e-23
-6.68974e-25
2.29785e-23
-1.73953e-24
8.7526e-24
-2.44879e-24
4.55594e-23
3.47436e-24
2.74533e-23
9.00769e-24
9.07765e-23
7.67185e-24
6.57687e-23
1.08415e-23
3.65628e-23
3.9582e-24
5.20514e-23
1.22134e-23
6.5101e-23
9.36737e-24
1.17792e-22
6.61447e-24
1.19861e-22
1.39103e-23
3.76195e-23
6.68662e-24
1.06004e-22
7.38574e-24
1.75376e-23
-6.26444e-24
5.67078e-23
7.08093e-24
7.64446e-23
4.93591e-24
1.19159e-22
5.75885e-24
1.70652e-23
1.3497e-23
1.40879e-22
-3.63789e-23
9.98534e-24
-2.3429e-25
3.35106e-23
-4.07208e-25
1.0871e-23
-3.19168e-24
6.88069e-24
6.89438e-24
5.09218e-23
7.68329e-24
2.82704e-23
5.72997e-24
6.78154e-23
1.07627e-23
3.39468e-23
4.5234e-24
4.66686e-23
1.25451e-23
3.34077e-23
9.89801e-24
8.00008e-23
4.54697e-24
1.50095e-22
1.37921e-23
8.7548e-23
5.11412e-24
9.15339e-23
5.74799e-24
7.01429e-23
-4.55074e-24
5.6966e-23
6.03678e-24
6.13618e-23
4.07854e-24
1.19183e-22
6.88221e-24
6.06126e-23
1.14682e-23
1.37015e-22
-6.52599e-24
1.02705e-23
1.60409e-25
8.79559e-23
-3.15761e-26
3.75477e-23
-2.64245e-24
2.60799e-24
6.25163e-24
3.20267e-23
8.60671e-24
4.21669e-23
5.48229e-24
4.67648e-23
1.06366e-23
3.3672e-23
4.18345e-24
-2.36571e-23
1.25391e-23
1.31061e-24
1.02349e-23
7.50756e-23
4.08601e-24
1.72543e-22
1.23972e-23
7.79021e-23
5.19044e-24
9.86037e-23
3.09127e-24
7.97839e-23
-4.39007e-24
3.20452e-23
6.64249e-24
1.20804e-22
3.16503e-24
1.01385e-22
6.3042e-24
2.65576e-23
1.05018e-23
1.98491e-22
-1.20149e-23
9.17801e-24
4.98053e-25
2.05693e-23
-1.06222e-24
4.47392e-23
-1.5966e-24
2.09065e-23
6.26152e-24
3.0825e-23
9.55183e-24
4.9937e-23
5.36878e-24
9.67343e-25
8.64288e-24
2.95089e-23
4.45761e-24
-4.21278e-23
1.34111e-23
2.38468e-23
1.08359e-23
6.22334e-23
2.08232e-24
1.27092e-22
1.21432e-23
8.50268e-23
4.61669e-24
4.28467e-23
2.32928e-24
4.77402e-23
-4.25473e-24
5.13637e-23
5.27806e-24
1.73237e-22
3.32375e-24
9.95405e-23
7.03264e-24
3.12753e-23
8.12389e-24
1.96994e-22
1.93448e-23
7.39161e-24
2.56744e-24
6.99197e-23
-9.37541e-25
6.31216e-23
-1.45142e-24
1.40816e-23
6.14943e-24
1.74885e-23
8.49533e-24
1.22318e-22
5.43038e-24
2.48631e-23
7.851e-24
2.35247e-23
4.80763e-24
-7.21308e-23
1.32353e-23
4.2319e-23
1.29062e-23
3.59288e-23
6.3393e-25
8.49788e-23
9.64442e-24
7.1839e-23
5.32144e-24
4.58121e-23
2.28382e-24
4.7137e-23
-2.02365e-24
-7.3891e-24
2.68668e-24
1.33987e-22
1.93933e-24
3.45311e-23
8.56063e-24
9.90717e-23
5.07393e-24
1.8184e-22
2.77521e-23
6.82218e-24
3.66249e-24
7.69076e-23
-1.54986e-24
4.10706e-23
-1.19808e-24
9.71153e-24
8.22396e-24
-3.33716e-23
6.56729e-24
4.77639e-23
5.50988e-24
4.0866e-23
5.10466e-24
1.16778e-23
7.16343e-24
4.35507e-23
1.2444e-23
7.60739e-23
1.38278e-23
4.1998e-23
-1.21735e-24
5.18564e-23
9.12285e-24
1.19985e-22
4.70146e-24
3.48382e-23
1.98024e-24
4.65619e-23
-8.76594e-25
-2.16005e-23
1.26123e-24
1.00271e-22
3.29763e-24
2.16146e-23
7.51848e-24
9.69154e-23
4.2095e-24
1.82818e-22
4.87734e-23
4.73307e-24
3.90505e-24
7.33324e-23
-1.93889e-24
3.8876e-23
-1.7086e-24
1.95247e-24
9.19013e-24
2.04715e-24
6.84844e-24
5.49606e-23
4.86262e-24
7.24406e-23
4.48871e-24
6.60281e-24
6.90784e-24
4.25799e-23
1.21483e-23
6.84768e-23
1.25584e-23
6.76563e-23
-2.5477e-25
-1.98336e-23
7.22335e-24
9.50468e-23
4.21458e-24
1.9096e-23
5.56579e-25
6.6885e-24
-2.20119e-25
-3.58964e-23
2.76556e-25
6.77147e-23
4.03926e-24
7.32489e-24
7.47801e-24
8.83299e-23
3.54321e-24
1.1179e-22
6.04578e-25
4.50264e-24
-3.05422e-24
-1.33045e-24
9.46105e-24
7.54031e-24
-2.03337e-23
3.35241e-24
3.57888e-23
4.99744e-24
-2.94141e-24
7.2164e-24
4.81605e-23
1.18199e-23
6.82343e-23
1.10439e-23
2.55669e-23
5.77635e-25
-6.70461e-23
6.28434e-24
1.43003e-22
4.39497e-24
5.25866e-23
-3.17312e-25
4.1513e-23
1.39271e-25
-8.71079e-23
4.53047e-25
-7.87975e-25
4.28902e-24
6.4431e-23
7.26544e-24
7.99141e-23
2.25382e-24
6.21409e-23
-6.31845e-24
7.45255e-24
3.459e-24
4.70327e-24
7.52316e-24
1.05025e-23
-2.37e-23
9.48259e-24
3.56235e-23
1.89432e-24
-7.53814e-23
4.57856e-24
7.57826e-23
2.41225e-24
4.8019e-23
-1.16405e-24
7.49129e-23
3.74658e-25
-9.22942e-23
1.47768e-24
-2.97352e-24
4.66311e-24
1.48735e-22
6.71382e-24
1.3994e-22
1.66923e-24
4.61331e-23
-4.54134e-23
1.04141e-23
8.68169e-24
3.14925e-24
4.69737e-24
2.40453e-24
-3.82238e-24
1.19371e-24
2.87418e-24
2.7114e-24
6.39068e-24
6.15351e-25
4.55016e-24
-3.08062e-23
-1.73106e-23
2.32768e-24
8.28887e-24
2.57283e-24
-6.85595e-24
1.32728e-23
1.05135e-23
-4.51699e-24
-1.18175e-23
2.37524e-23
1.39658e-23
-1.93811e-23
-1.30806e-23
-1.57623e-23
-7.46383e-24
-3.20513e-25
1.64674e-23
-6.43998e-24
-1.07105e-23
-1.38971e-23
-6.12301e-23
-1.49563e-23
1.02269e-23
-1.24305e-23
-9.05441e-24
-1.10264e-23
-5.43349e-23
-1.04347e-23
1.38012e-23
6.43699e-24
4.27299e-24
-2.41431e-23
-5.19888e-24
-4.84054e-24
-4.88524e-23
-9.7721e-24
-2.69472e-23
-2.04349e-23
2.60645e-24
-7.01624e-23
-1.60272e-24
-3.00436e-24
-5.17024e-23
-7.69631e-24
-4.72045e-23
-1.5405e-23
1.9485e-24
-8.08288e-23
2.70888e-24
-2.86991e-24
-2.08626e-23
-9.80729e-24
-4.78148e-23
-1.23879e-23
-5.00758e-23
-3.02689e-23
8.16316e-25
-1.12274e-22
6.81769e-24
-4.55023e-24
-2.77732e-23
-7.30547e-24
-5.22742e-23
-9.84159e-24
4.39903e-23
-3.55836e-24
3.04238e-25
-1.50987e-22
1.25603e-23
-5.53746e-24
-4.09942e-23
-2.7092e-24
-5.31538e-23
-1.20004e-23
1.02484e-23
-3.37139e-24
-1.89639e-24
-8.88651e-23
1.72625e-23
-6.42588e-25
-8.4642e-24
1.09788e-26
-5.35827e-23
-1.46419e-23
8.67254e-24
-3.09084e-24
-6.73081e-25
-8.26604e-23
1.68811e-23
6.59702e-25
7.75633e-23
3.06766e-24
-2.24126e-23
-1.55528e-23
-7.49105e-23
-3.0063e-23
4.41467e-24
-6.36352e-23
1.72243e-23
-3.09541e-24
4.55472e-24
-2.05139e-24
-2.97383e-23
-1.41543e-23
-4.49537e-23
-4.78997e-23
2.49099e-24
4.91458e-24
1.44543e-23
-3.01753e-24
-3.413e-23
-4.3419e-24
-3.05864e-23
-1.3505e-23
-5.0495e-23
-9.83746e-24
-1.08682e-22
-6.59916e-23
1.94507e-24
-6.25646e-23
7.61862e-24
-4.01304e-24
-5.60681e-23
-4.36839e-24
-1.03627e-22
-1.82738e-23
-7.82373e-23
-6.18297e-24
-6.66684e-23
1.40378e-23
3.80993e-24
7.23798e-24
8.65576e-24
-7.69616e-24
-1.07825e-22
-1.19198e-24
-7.27594e-23
-1.98737e-23
-6.03871e-23
-1.70849e-24
-5.91822e-23
-1.26477e-23
-2.70585e-23
7.21854e-23
-2.18674e-24
-5.35798e-23
4.366e-24
-5.53612e-24
-1.05017e-22
-2.51865e-24
-1.24079e-22
-1.83036e-23
-7.24681e-23
-9.54934e-25
-1.17116e-23
-1.03613e-23
-9.33479e-24
-9.26551e-24
6.42687e-23
-4.78358e-23
-2.223e-26
-1.7961e-24
1.02082e-23
-8.0034e-24
-1.19763e-22
1.82949e-25
-1.32081e-22
-1.62756e-23
-1.25896e-22
8.91626e-25
-6.41119e-23
-8.55618e-24
-2.23827e-23
-1.51282e-23
1.5633e-23
-1.02588e-23
-6.94155e-23
-1.92958e-23
-3.42974e-24
-6.32671e-24
1.11577e-23
-8.98458e-24
-1.43044e-22
1.32323e-24
-8.53092e-23
-1.54235e-23
-1.09535e-22
1.71721e-24
-4.30717e-23
-9.57948e-24
-5.97922e-23
-1.57498e-23
2.08504e-23
-9.97815e-24
4.69688e-23
-5.41856e-24
8.30527e-23
5.14634e-23
-4.99143e-24
5.60358e-24
1.06053e-23
-1.09442e-23
-9.1206e-23
3.08708e-24
-3.46926e-23
-1.57279e-23
-7.75913e-23
4.25211e-24
6.02355e-23
-8.82169e-24
-1.13349e-24
-1.18868e-23
5.99236e-23
-1.01966e-23
3.88743e-23
-5.44081e-24
8.40123e-23
4.92578e-23
-4.20198e-24
5.00706e-23
1.24852e-23
-9.75106e-24
-1.43185e-22
2.50727e-24
-8.49892e-23
-9.75755e-24
-1.59152e-22
4.0598e-24
-3.14268e-23
-8.73567e-24
-6.21658e-23
-1.02777e-23
5.14831e-23
-1.07416e-23
3.90217e-23
-6.56625e-24
9.60198e-23
5.32869e-23
-6.28899e-24
5.40878e-23
1.08799e-23
-1.14458e-23
-8.09213e-23
2.4389e-24
-2.97084e-23
-7.76611e-24
-1.32965e-22
1.7074e-24
-3.28633e-23
-4.33752e-24
-8.42883e-23
-9.21697e-24
2.2368e-23
-1.07797e-23
2.96125e-23
-8.18827e-24
1.03378e-22
2.07196e-23
-5.20686e-24
8.3825e-24
1.13777e-23
-1.20053e-23
-1.4527e-22
4.57346e-25
2.76525e-23
-3.522e-24
-1.22084e-22
-3.13811e-25
-2.20552e-23
8.25579e-26
-7.82267e-23
-1.05812e-23
-8.0208e-24
-9.12819e-24
-3.69692e-23
-9.78633e-24
2.66799e-23
2.67657e-23
-7.76098e-24
-3.51598e-23
1.06275e-23
-1.19056e-23
-1.2196e-22
5.52614e-25
7.56019e-23
-3.36804e-24
-1.1373e-22
-1.00178e-24
-5.3113e-23
2.60313e-24
-4.13285e-23
-7.06952e-24
1.41689e-23
-1.0035e-23
-3.02893e-23
-7.78488e-24
2.35869e-23
2.59584e-23
-9.18181e-24
-4.31277e-23
1.12724e-23
-7.25999e-24
-1.16454e-22
-5.19848e-24
8.92548e-23
-3.67829e-24
-1.22771e-22
-1.38712e-24
-1.97858e-23
2.92672e-24
-3.86877e-23
-9.63233e-24
-4.74966e-23
-8.94667e-24
-2.28747e-23
-8.44225e-24
1.80629e-23
2.9353e-23
-1.33788e-23
-8.11349e-23
9.81472e-24
-4.94383e-26
-5.05765e-23
-1.11698e-23
-1.92027e-23
-1.27133e-24
-1.38321e-22
1.14506e-25
-2.2594e-23
1.5621e-24
-1.99645e-23
-8.69289e-24
-9.73011e-23
-9.49852e-24
-1.11184e-23
-5.61204e-24
6.54977e-24
2.92484e-23
-9.89097e-24
-8.3713e-23
1.32456e-23
-1.68944e-24
-2.32586e-23
-1.1876e-23
-6.46215e-24
-1.6303e-24
-1.66574e-23
2.20303e-24
4.85744e-23
1.0172e-25
-1.94068e-23
-6.64259e-24
-1.06719e-22
-9.11646e-24
-8.5973e-23
-5.79831e-24
-1.48075e-24
3.37482e-23
-8.74193e-24
-5.65423e-23
1.70419e-23
-6.71335e-24
-3.50851e-23
-7.12324e-24
-7.38596e-24
-2.8813e-24
-2.67698e-23
-1.41782e-25
1.75779e-22
-4.04006e-24
-2.35688e-23
-6.28174e-24
-8.94393e-23
-8.00983e-24
-3.94296e-23
-3.63894e-24
-1.18936e-23
4.36955e-23
-6.03391e-24
5.64274e-24
1.68649e-23
-5.27167e-24
-5.43241e-23
-7.11266e-24
2.75488e-23
-6.10361e-25
-3.04475e-23
-2.56124e-24
1.36948e-22
-5.2807e-24
-2.72081e-23
-5.02385e-24
-4.02211e-23
-7.91264e-24
-3.19601e-23
-9.9825e-25
4.90382e-23
2.38767e-23
-6.88742e-24
2.92043e-23
1.69541e-23
-7.28249e-24
-6.24589e-23
-4.77583e-24
2.16056e-23
1.12271e-24
-5.19047e-23
-6.09921e-24
1.24083e-22
-7.51857e-24
-3.86955e-23
-3.92012e-24
-9.53223e-24
-5.42637e-24
-2.09197e-23
-1.86105e-24
2.89288e-23
1.35611e-23
-9.40789e-24
1.18223e-23
-5.26539e-24
-6.18119e-24
3.87542e-24
-8.07596e-24
-7.41825e-24
-4.63042e-24
-5.42991e-24
-1.22724e-24