/*--------------------------------*- C++ -*----------------------------------*\
  =========                 |
  \\      /  F ield         | OpenFOAM: The Open Source CFD Toolbox
   \\    /   O peration     | Website:  https://openfoam.org
    \\  /    A nd           | Version:  7
     \\/     M anipulation  |
\*---------------------------------------------------------------------------*/
FoamFile
{
    version     2.0;
    format      ascii;
    class       volScalarField;
    location    "160000";
    object      nut;
}
// * * * * * * * * * * * * * * * * * * * * * * * * * * * * * * * * * * * * * //

dimensions      [0 2 -1 0 0 0 0];

internalField   nonuniform List<scalar> 
4814
(
4.92862e-06
4.95337e-06
4.97582e-06
4.99592e-06
4.21172e-06
4.25991e-06
4.30613e-06
4.35111e-06
4.3948e-06
4.43714e-06
4.47804e-06
4.51742e-06
4.5552e-06
4.59128e-06
4.62556e-06
4.65796e-06
4.6884e-06
4.7168e-06
4.74309e-06
4.7672e-06
4.78907e-06
4.80865e-06
4.8259e-06
4.84076e-06
4.8532e-06
4.8632e-06
4.87071e-06
4.87574e-06
4.87825e-06
4.87825e-06
4.87574e-06
4.87071e-06
4.8632e-06
4.8532e-06
4.84076e-06
4.8259e-06
4.80865e-06
4.78907e-06
4.04298e-06
4.08979e-06
4.13471e-06
4.17843e-06
4.2209e-06
4.26207e-06
4.30184e-06
4.34015e-06
4.3769e-06
4.412e-06
4.44536e-06
4.47689e-06
4.50651e-06
4.53415e-06
4.55973e-06
4.5832e-06
4.60449e-06
4.62355e-06
4.64034e-06
4.65481e-06
4.66693e-06
4.67666e-06
4.68398e-06
4.68887e-06
4.69131e-06
4.69131e-06
4.68887e-06
4.68398e-06
4.67666e-06
4.66693e-06
4.65481e-06
4.64034e-06
4.62355e-06
4.60449e-06
4.5832e-06
4.55973e-06
4.53415e-06
4.50651e-06
4.47689e-06
4.44536e-06
4.412e-06
3.87651e-06
3.92193e-06
3.96555e-06
4.00801e-06
4.04926e-06
4.08925e-06
4.1279e-06
4.16512e-06
4.20084e-06
4.23496e-06
4.26739e-06
4.29804e-06
4.32685e-06
4.35372e-06
4.3786e-06
4.40142e-06
4.42213e-06
4.44067e-06
4.457e-06
4.47108e-06
4.48286e-06
4.49233e-06
4.49945e-06
4.50421e-06
4.50659e-06
4.50659e-06
4.50421e-06
4.49945e-06
4.49233e-06
4.48286e-06
4.47108e-06
4.457e-06
4.44067e-06
4.42213e-06
4.40142e-06
4.3786e-06
4.35372e-06
4.32685e-06
4.29804e-06
4.26739e-06
4.23496e-06
4.20084e-06
4.16512e-06
4.1279e-06
3.71235e-06
3.75638e-06
3.7987e-06
3.8399e-06
3.87993e-06
3.91874e-06
3.95625e-06
3.9924e-06
4.02708e-06
4.06021e-06
4.09171e-06
4.12149e-06
4.14947e-06
4.17558e-06
4.19975e-06
4.22192e-06
4.24205e-06
4.26006e-06
4.27593e-06
4.28961e-06
4.30107e-06
4.31027e-06
4.31719e-06
4.32181e-06
4.32413e-06
4.32413e-06
4.32181e-06
4.31719e-06
4.31027e-06
4.30107e-06
4.28961e-06
4.27593e-06
4.26006e-06
4.24205e-06
4.22192e-06
4.19975e-06
4.17558e-06
4.14947e-06
4.12149e-06
4.09171e-06
4.06021e-06
4.02708e-06
3.9924e-06
3.95625e-06
3.55056e-06
3.59321e-06
3.63422e-06
3.67415e-06
3.71296e-06
3.75059e-06
3.78697e-06
3.82202e-06
3.85567e-06
3.88781e-06
3.91838e-06
3.94728e-06
3.97443e-06
3.99977e-06
4.02323e-06
4.04476e-06
4.06429e-06
4.08178e-06
4.09719e-06
4.11047e-06
4.1216e-06
4.13053e-06
4.13725e-06
4.14174e-06
4.14399e-06
4.14399e-06
4.14174e-06
4.13725e-06
4.13053e-06
4.12159e-06
4.11047e-06
4.09719e-06
4.08178e-06
4.06429e-06
4.04476e-06
4.02323e-06
3.99977e-06
3.97443e-06
3.94728e-06
3.91838e-06
3.88781e-06
3.85567e-06
3.82202e-06
3.78697e-06
3.3912e-06
3.43246e-06
3.47216e-06
3.51082e-06
3.5484e-06
3.58485e-06
3.62009e-06
3.65406e-06
3.68666e-06
3.71782e-06
3.74745e-06
3.77546e-06
3.80179e-06
3.82636e-06
3.84911e-06
3.86998e-06
3.88892e-06
3.90589e-06
3.92083e-06
3.93372e-06
3.9445e-06
3.95317e-06
3.95969e-06
3.96404e-06
3.96623e-06
3.96623e-06
3.96404e-06
3.95969e-06
3.95317e-06
3.9445e-06
3.93372e-06
3.92083e-06
3.90589e-06
3.88892e-06
3.86998e-06
3.84911e-06
3.82636e-06
3.80179e-06
3.77546e-06
3.74745e-06
3.71782e-06
3.68666e-06
3.65406e-06
3.62009e-06
3.23431e-06
3.27419e-06
3.31258e-06
3.34997e-06
3.38632e-06
3.42159e-06
3.45569e-06
3.48857e-06
3.52013e-06
3.55029e-06
3.57898e-06
3.60611e-06
3.63161e-06
3.6554e-06
3.67744e-06
3.69766e-06
3.71601e-06
3.73244e-06
3.74692e-06
3.7594e-06
3.76986e-06
3.77825e-06
3.78457e-06
3.78879e-06
3.79091e-06
3.79091e-06
3.78879e-06
3.78457e-06
3.77825e-06
3.76986e-06
3.7594e-06
3.74692e-06
3.73244e-06
3.71601e-06
3.69766e-06
3.67744e-06
3.6554e-06
3.63161e-06
3.60611e-06
3.57898e-06
3.55029e-06
3.52013e-06
3.48857e-06
3.45569e-06
3.42159e-06
3.07998e-06
3.11847e-06
3.15555e-06
3.19166e-06
3.22679e-06
3.26086e-06
3.29383e-06
3.32561e-06
3.35613e-06
3.3853e-06
3.41304e-06
3.43928e-06
3.46395e-06
3.48697e-06
3.50829e-06
3.52785e-06
3.54561e-06
3.56151e-06
3.57552e-06
3.5876e-06
3.59772e-06
3.60585e-06
3.61196e-06
3.61605e-06
3.61809e-06
3.61809e-06
3.61605e-06
3.61196e-06
3.60585e-06
3.59772e-06
3.5876e-06
3.57552e-06
3.56151e-06
3.54561e-06
3.52785e-06
3.50829e-06
3.48697e-06
3.46395e-06
3.43928e-06
3.41304e-06
3.3853e-06
3.35613e-06
3.32561e-06
3.29383e-06
3.26086e-06
2.92825e-06
2.96536e-06
3.00113e-06
3.03597e-06
3.06986e-06
3.10275e-06
3.13457e-06
3.16525e-06
3.19472e-06
3.2229e-06
3.2497e-06
3.27505e-06
3.29888e-06
3.32112e-06
3.34172e-06
3.36063e-06
3.37779e-06
3.39316e-06
3.4067e-06
3.41838e-06
3.42816e-06
3.43602e-06
3.44193e-06
3.44588e-06
3.44786e-06
3.44786e-06
3.44588e-06
3.44193e-06
3.43602e-06
3.42816e-06
3.41838e-06
3.4067e-06
3.39316e-06
3.37779e-06
3.36063e-06
3.34172e-06
3.32112e-06
3.29888e-06
3.27505e-06
3.2497e-06
3.2229e-06
3.19472e-06
3.16525e-06
3.13457e-06
3.10275e-06
2.77921e-06
2.81493e-06
2.84938e-06
2.88295e-06
2.91561e-06
2.94731e-06
2.97799e-06
3.00757e-06
3.03599e-06
3.06317e-06
3.08903e-06
3.11348e-06
3.13648e-06
3.15794e-06
3.17782e-06
3.19606e-06
3.21263e-06
3.22747e-06
3.24054e-06
3.25181e-06
3.26126e-06
3.26884e-06
3.27455e-06
3.27836e-06
3.28027e-06
3.28027e-06
3.27836e-06
3.27455e-06
3.26884e-06
3.26126e-06
3.25181e-06
3.24054e-06
3.22747e-06
3.21263e-06
3.19606e-06
3.17782e-06
3.15794e-06
3.13648e-06
3.11348e-06
3.08903e-06
3.06317e-06
3.03599e-06
3.00757e-06
2.97799e-06
2.94731e-06
2.63291e-06
2.66725e-06
2.70039e-06
2.73268e-06
2.76411e-06
2.79462e-06
2.82415e-06
2.85264e-06
2.88001e-06
2.90619e-06
2.93109e-06
2.95466e-06
2.97681e-06
2.99749e-06
3.01665e-06
3.03423e-06
3.0502e-06
3.0645e-06
3.07711e-06
3.08798e-06
3.09708e-06
3.10439e-06
3.1099e-06
3.11357e-06
3.11541e-06
3.11541e-06
3.11357e-06
3.1099e-06
3.10439e-06
3.09708e-06
3.08798e-06
3.07711e-06
3.0645e-06
3.0502e-06
3.03423e-06
3.01665e-06
2.99749e-06
2.97681e-06
2.95466e-06
2.93109e-06
2.90619e-06
2.88001e-06
2.85264e-06
2.82415e-06
2.48945e-06
2.5224e-06
2.55423e-06
2.58525e-06
2.61544e-06
2.64476e-06
2.67315e-06
2.70054e-06
2.72685e-06
2.75203e-06
2.77599e-06
2.79865e-06
2.81997e-06
2.83987e-06
2.8583e-06
2.87522e-06
2.89059e-06
2.90435e-06
2.91649e-06
2.92695e-06
2.93571e-06
2.94275e-06
2.94805e-06
2.95159e-06
2.95336e-06
2.95336e-06
2.95159e-06
2.94805e-06
2.94275e-06
2.93571e-06
2.92695e-06
2.91649e-06
2.90435e-06
2.89059e-06
2.87522e-06
2.8583e-06
2.83987e-06
2.81997e-06
2.79865e-06
2.77599e-06
2.75203e-06
2.72685e-06
2.70054e-06
2.67315e-06
2.34889e-06
2.38047e-06
2.41098e-06
2.44072e-06
2.46968e-06
2.49781e-06
2.52505e-06
2.55134e-06
2.57661e-06
2.60078e-06
2.62379e-06
2.64556e-06
2.66603e-06
2.68514e-06
2.70285e-06
2.71911e-06
2.73388e-06
2.74711e-06
2.75876e-06
2.76882e-06
2.77724e-06
2.78401e-06
2.7891e-06
2.79251e-06
2.79421e-06
2.79421e-06
2.79251e-06
2.7891e-06
2.78401e-06
2.77724e-06
2.76882e-06
2.75876e-06
2.74711e-06
2.73388e-06
2.71911e-06
2.70285e-06
2.68514e-06
2.66603e-06
2.64556e-06
2.62379e-06
2.60078e-06
2.57661e-06
2.55134e-06
2.52505e-06
2.21133e-06
2.24153e-06
2.27072e-06
2.2992e-06
2.32693e-06
2.35387e-06
2.37996e-06
2.40515e-06
2.42936e-06
2.45253e-06
2.47458e-06
2.49546e-06
2.51509e-06
2.53342e-06
2.5504e-06
2.56599e-06
2.58016e-06
2.59285e-06
2.60403e-06
2.61368e-06
2.62176e-06
2.62826e-06
2.63315e-06
2.63641e-06
2.63805e-06
2.63805e-06
2.63641e-06
2.63315e-06
2.62826e-06
2.62176e-06
2.61368e-06
2.60403e-06
2.59285e-06
2.58016e-06
2.56599e-06
2.5504e-06
2.53342e-06
2.51509e-06
2.49546e-06
2.47458e-06
2.45253e-06
2.42936e-06
2.40515e-06
2.37996e-06
2.07685e-06
2.10567e-06
2.13356e-06
2.16076e-06
2.18726e-06
2.21301e-06
2.23796e-06
2.26205e-06
2.28521e-06
2.30737e-06
2.32847e-06
2.34845e-06
2.36724e-06
2.38478e-06
2.40104e-06
2.41597e-06
2.42953e-06
2.44168e-06
2.45239e-06
2.46163e-06
2.46937e-06
2.47559e-06
2.48027e-06
2.4834e-06
2.48497e-06
2.48497e-06
2.4834e-06
2.48027e-06
2.47559e-06
2.46937e-06
2.46163e-06
2.45239e-06
2.44168e-06
2.42953e-06
2.41597e-06
2.40104e-06
2.38478e-06
2.36724e-06
2.34845e-06
2.32847e-06
2.30737e-06
2.28521e-06
2.26205e-06
2.23796e-06
1.94554e-06
1.973e-06
1.99958e-06
2.02551e-06
2.05079e-06
2.07535e-06
2.09915e-06
2.12214e-06
2.14425e-06
2.16541e-06
2.18556e-06
2.20464e-06
2.22258e-06
2.23934e-06
2.25487e-06
2.26913e-06
2.28209e-06
2.29371e-06
2.30394e-06
2.31277e-06
2.32017e-06
2.32612e-06
2.33059e-06
2.33358e-06
2.33508e-06
2.33508e-06
2.33358e-06
2.33059e-06
2.32612e-06
2.32017e-06
2.31277e-06
2.30394e-06
2.2937e-06
2.28209e-06
2.26913e-06
2.25487e-06
2.23934e-06
2.22258e-06
2.20464e-06
2.18556e-06
2.16541e-06
2.14425e-06
2.12214e-06
2.09915e-06
1.81751e-06
1.84361e-06
1.86888e-06
1.89356e-06
1.9176e-06
1.94098e-06
1.96364e-06
1.98553e-06
2.00658e-06
2.02674e-06
2.04594e-06
2.06412e-06
2.08122e-06
2.0972e-06
2.112e-06
2.1256e-06
2.13796e-06
2.14903e-06
2.15879e-06
2.16722e-06
2.17427e-06
2.17995e-06
2.18421e-06
2.18707e-06
2.18849e-06
2.18849e-06
2.18707e-06
2.18421e-06
2.17995e-06
2.17427e-06
2.16722e-06
2.15879e-06
2.14903e-06
2.13796e-06
2.1256e-06
2.112e-06
2.0972e-06
2.08122e-06
2.06412e-06
2.04594e-06
2.02674e-06
2.00658e-06
1.98553e-06
1.96364e-06
1.69286e-06
1.7176e-06
1.74158e-06
1.76499e-06
1.78782e-06
1.81001e-06
1.83153e-06
1.85233e-06
1.87233e-06
1.89149e-06
1.90974e-06
1.92702e-06
1.94328e-06
1.95847e-06
1.97255e-06
1.98548e-06
1.99724e-06
2.00777e-06
2.01706e-06
2.02508e-06
2.03179e-06
2.03719e-06
2.04125e-06
2.04397e-06
2.04533e-06
2.04533e-06
2.04397e-06
2.04125e-06
2.03719e-06
2.03179e-06
2.02508e-06
2.01706e-06
2.00777e-06
1.99724e-06
1.98548e-06
1.97255e-06
1.95847e-06
1.94328e-06
1.92702e-06
1.90974e-06
1.89149e-06
1.87233e-06
1.85233e-06
1.83153e-06
1.5717e-06
1.59509e-06
1.61778e-06
1.63993e-06
1.66154e-06
1.68256e-06
1.70295e-06
1.72265e-06
1.7416e-06
1.75976e-06
1.77707e-06
1.79345e-06
1.80887e-06
1.82328e-06
1.83664e-06
1.84891e-06
1.86006e-06
1.87006e-06
1.87887e-06
1.88648e-06
1.89285e-06
1.89798e-06
1.90183e-06
1.90441e-06
1.9057e-06
1.9057e-06
1.90441e-06
1.90183e-06
1.89798e-06
1.89285e-06
1.88648e-06
1.87887e-06
1.87006e-06
1.86006e-06
1.84891e-06
1.83664e-06
1.82328e-06
1.80887e-06
1.79345e-06
1.77707e-06
1.75976e-06
1.7416e-06
1.72265e-06
1.70295e-06
1.45414e-06
1.47619e-06
1.49759e-06
1.5185e-06
1.5389e-06
1.55875e-06
1.578e-06
1.59661e-06
1.61453e-06
1.63169e-06
1.64805e-06
1.66354e-06
1.67813e-06
1.69175e-06
1.70439e-06
1.71599e-06
1.72655e-06
1.73601e-06
1.74435e-06
1.75155e-06
1.75758e-06
1.76243e-06
1.76608e-06
1.76852e-06
1.76974e-06
1.76974e-06
1.76852e-06
1.76608e-06
1.76243e-06
1.75758e-06
1.75155e-06
1.74435e-06
1.73601e-06
1.72655e-06
1.71599e-06
1.70439e-06
1.69175e-06
1.67813e-06
1.66354e-06
1.64805e-06
1.63169e-06
1.61453e-06
1.59661e-06
1.578e-06
1.3403e-06
1.36102e-06
1.38115e-06
1.40081e-06
1.42001e-06
1.43869e-06
1.45682e-06
1.47435e-06
1.49123e-06
1.5074e-06
1.52282e-06
1.53742e-06
1.55117e-06
1.56402e-06
1.57593e-06
1.58688e-06
1.59684e-06
1.60576e-06
1.61364e-06
1.62043e-06
1.62612e-06
1.6307e-06
1.63415e-06
1.63645e-06
1.6376e-06
1.6376e-06
1.63645e-06
1.63414e-06
1.6307e-06
1.62612e-06
1.62043e-06
1.61363e-06
1.60576e-06
1.59684e-06
1.58688e-06
1.57593e-06
1.56402e-06
1.55117e-06
1.53742e-06
1.52282e-06
1.5074e-06
1.49123e-06
1.47435e-06
1.45682e-06
1.43869e-06
1.23029e-06
1.2497e-06
1.26856e-06
1.287e-06
1.305e-06
1.32252e-06
1.33954e-06
1.35599e-06
1.37183e-06
1.38702e-06
1.4015e-06
1.41523e-06
1.42815e-06
1.44022e-06
1.45142e-06
1.46171e-06
1.47107e-06
1.47947e-06
1.48687e-06
1.49326e-06
1.49862e-06
1.50292e-06
1.50616e-06
1.50833e-06
1.50941e-06
1.50941e-06
1.50833e-06
1.50616e-06
1.50292e-06
1.49862e-06
1.49326e-06
1.48687e-06
1.47947e-06
1.47107e-06
1.46171e-06
1.45142e-06
1.44022e-06
1.42815e-06
1.41523e-06
1.4015e-06
1.38702e-06
1.37183e-06
1.35599e-06
1.33954e-06
1.32252e-06
1.1242e-06
1.14232e-06
1.15994e-06
1.17717e-06
1.19399e-06
1.21037e-06
1.22628e-06
1.24166e-06
1.25649e-06
1.2707e-06
1.28425e-06
1.2971e-06
1.3092e-06
1.3205e-06
1.33099e-06
1.34063e-06
1.3494e-06
1.35726e-06
1.3642e-06
1.37019e-06
1.37521e-06
1.37925e-06
1.38228e-06
1.38431e-06
1.38533e-06
1.38533e-06
1.38431e-06
1.38228e-06
1.37925e-06
1.37521e-06
1.37019e-06
1.3642e-06
1.35726e-06
1.3494e-06
1.34063e-06
1.33099e-06
1.3205e-06
1.3092e-06
1.2971e-06
1.28425e-06
1.2707e-06
1.25649e-06
1.24166e-06
1.22628e-06
1.21037e-06
1.02207e-06
1.03894e-06
1.05535e-06
1.07142e-06
1.08708e-06
1.10233e-06
1.11715e-06
1.13148e-06
1.1453e-06
1.15855e-06
1.17119e-06
1.18318e-06
1.19446e-06
1.205e-06
1.21479e-06
1.22378e-06
1.23196e-06
1.2393e-06
1.24578e-06
1.25137e-06
1.25606e-06
1.25982e-06
1.26266e-06
1.26456e-06
1.26551e-06
1.26551e-06
1.26456e-06
1.26266e-06
1.25982e-06
1.25606e-06
1.25137e-06
1.24578e-06
1.2393e-06
1.23196e-06
1.22378e-06
1.21479e-06
1.205e-06
1.19446e-06
1.18318e-06
1.17119e-06
1.15855e-06
1.1453e-06
1.13148e-06
1.11715e-06
1.10233e-06
9.23542e-07
9.393e-07
9.54657e-07
9.69694e-07
9.84228e-07
9.98391e-07
1.01215e-06
1.02548e-06
1.03832e-06
1.05064e-06
1.0624e-06
1.07355e-06
1.08404e-06
1.09383e-06
1.10292e-06
1.11128e-06
1.11889e-06
1.12571e-06
1.13173e-06
1.13693e-06
1.14129e-06
1.14479e-06
1.14743e-06
1.14919e-06
1.15008e-06
1.15008e-06
1.14919e-06
1.14743e-06
1.14479e-06
1.14129e-06
1.13693e-06
1.13173e-06
1.12571e-06
1.11889e-06
1.11128e-06
1.10292e-06
1.09383e-06
1.08404e-06
1.07355e-06
1.0624e-06
1.05064e-06
1.03832e-06
1.02548e-06
1.01215e-06
8.25923e-07
8.41394e-07
8.5652e-07
8.71329e-07
8.8486e-07
8.98052e-07
9.10878e-07
9.23301e-07
9.35281e-07
9.46778e-07
9.57754e-07
9.68166e-07
9.77909e-07
9.86979e-07
9.95398e-07
1.00314e-06
1.01019e-06
1.01651e-06
1.02209e-06
1.02691e-06
1.03095e-06
1.0342e-06
1.03665e-06
1.03828e-06
1.0391e-06
1.0391e-06
1.03828e-06
1.03665e-06
1.0342e-06
1.03095e-06
1.02691e-06
1.02209e-06
1.01651e-06
1.01019e-06
1.00314e-06
9.95398e-07
9.86979e-07
9.77909e-07
9.68166e-07
9.57754e-07
9.46778e-07
9.35281e-07
9.23301e-07
9.10878e-07
7.29068e-07
7.43312e-07
7.57252e-07
7.70922e-07
7.84229e-07
7.97207e-07
8.09825e-07
8.22044e-07
8.33826e-07
8.45131e-07
8.55922e-07
8.66159e-07
8.75423e-07
8.83843e-07
8.91661e-07
8.98855e-07
9.05402e-07
9.11279e-07
9.16466e-07
9.20946e-07
9.24702e-07
9.27724e-07
9.29999e-07
9.3152e-07
9.32282e-07
9.32282e-07
9.3152e-07
9.29999e-07
9.27724e-07
9.24702e-07
9.20945e-07
9.16466e-07
9.11278e-07
9.05402e-07
8.98855e-07
8.91661e-07
8.83843e-07
8.75423e-07
8.66159e-07
8.55922e-07
8.45131e-07
8.33826e-07
8.22044e-07
8.09825e-07
6.36744e-07
6.49752e-07
6.62495e-07
6.75001e-07
6.87189e-07
6.99084e-07
7.10655e-07
7.21866e-07
7.32682e-07
7.43065e-07
7.52981e-07
7.62391e-07
7.71235e-07
7.79495e-07
7.87165e-07
7.94222e-07
8.00644e-07
8.06408e-07
8.11495e-07
8.15888e-07
8.19572e-07
8.22535e-07
8.24766e-07
8.26257e-07
8.27004e-07
8.27004e-07
8.26257e-07
8.24766e-07
8.22535e-07
8.19572e-07
8.15888e-07
8.11495e-07
8.06408e-07
8.00644e-07
7.94222e-07
7.87165e-07
7.79495e-07
7.71235e-07
7.62391e-07
7.52981e-07
7.43065e-07
7.32682e-07
7.21866e-07
7.10655e-07
5.49354e-07
5.61118e-07
5.72654e-07
5.83987e-07
5.95044e-07
6.05844e-07
6.16357e-07
6.26551e-07
6.3639e-07
6.45842e-07
6.54872e-07
6.63447e-07
6.71511e-07
6.79048e-07
6.86049e-07
6.92493e-07
6.98359e-07
7.03625e-07
7.08275e-07
7.1229e-07
7.15659e-07
7.18367e-07
7.20407e-07
7.21771e-07
7.22454e-07
7.22454e-07
7.21771e-07
7.20407e-07
7.18367e-07
7.15659e-07
7.1229e-07
7.08275e-07
7.03625e-07
6.98359e-07
6.92493e-07
6.86049e-07
6.79048e-07
6.71511e-07
6.63447e-07
6.54872e-07
6.45842e-07
6.3639e-07
6.26551e-07
6.16357e-07
4.67344e-07
4.77858e-07
4.88181e-07
4.98333e-07
5.08251e-07
5.17947e-07
5.27393e-07
5.36559e-07
5.45413e-07
5.53924e-07
5.62061e-07
5.69792e-07
5.77069e-07
5.83874e-07
5.90199e-07
5.96023e-07
6.01326e-07
6.0609e-07
6.10296e-07
6.1393e-07
6.16979e-07
6.19431e-07
6.21278e-07
6.22513e-07
6.23132e-07
6.23132e-07
6.22513e-07
6.21278e-07
6.19431e-07
6.16979e-07
6.1393e-07
6.10296e-07
6.0609e-07
6.01326e-07
5.96023e-07
5.90199e-07
5.83874e-07
5.77069e-07
5.69792e-07
5.62061e-07
5.53924e-07
5.45413e-07
5.36559e-07
5.27393e-07
3.91188e-07
4.00453e-07
4.09563e-07
4.18532e-07
4.27306e-07
4.35893e-07
4.44268e-07
4.52401e-07
4.60265e-07
4.67829e-07
4.75067e-07
4.81948e-07
4.88431e-07
4.94499e-07
5.00142e-07
5.0534e-07
5.10076e-07
5.14331e-07
5.1809e-07
5.21339e-07
5.24065e-07
5.26258e-07
5.2791e-07
5.29015e-07
5.29569e-07
5.29569e-07
5.29015e-07
5.2791e-07
5.26258e-07
5.24065e-07
5.21339e-07
5.1809e-07
5.14331e-07
5.10076e-07
5.0534e-07
5.00142e-07
4.94499e-07
4.88431e-07
4.81948e-07
4.75067e-07
4.67829e-07
4.60264e-07
4.52401e-07
4.44268e-07
3.21377e-07
3.29402e-07
3.37306e-07
3.45099e-07
3.52734e-07
3.60215e-07
3.6752e-07
3.74621e-07
3.81494e-07
3.88112e-07
3.94449e-07
4.00481e-07
4.06168e-07
4.11495e-07
4.16453e-07
4.21023e-07
4.25189e-07
4.28934e-07
4.32243e-07
4.35105e-07
4.37506e-07
4.39439e-07
4.40895e-07
4.41869e-07
4.42357e-07
4.42357e-07
4.41869e-07
4.40895e-07
4.39439e-07
4.37506e-07
4.35105e-07
4.32243e-07
4.28934e-07
4.25189e-07
4.21023e-07
4.16453e-07
4.11495e-07
4.06168e-07
4.00481e-07
3.94449e-07
3.88112e-07
3.81494e-07
3.74621e-07
3.67519e-07
2.58388e-07
2.65198e-07
2.71917e-07
2.78551e-07
2.85063e-07
2.91452e-07
2.97698e-07
3.03778e-07
3.09669e-07
3.15349e-07
3.20793e-07
3.25979e-07
3.30875e-07
3.35466e-07
3.39741e-07
3.43685e-07
3.47283e-07
3.50518e-07
3.53379e-07
3.55854e-07
3.57932e-07
3.59604e-07
3.60865e-07
3.61708e-07
3.6213e-07
3.6213e-07
3.61708e-07
3.60865e-07
3.59604e-07
3.57932e-07
3.55854e-07
3.53379e-07
3.50518e-07
3.47283e-07
3.43685e-07
3.39741e-07
3.35466e-07
3.30875e-07
3.25979e-07
3.20793e-07
3.15349e-07
3.09669e-07
3.03778e-07
2.97698e-07
2.91452e-07
2.02647e-07
2.08284e-07
2.13855e-07
2.19366e-07
2.24785e-07
2.30111e-07
2.35325e-07
2.40409e-07
2.45341e-07
2.50101e-07
2.5467e-07
2.59028e-07
2.63147e-07
2.67013e-07
2.70616e-07
2.73944e-07
2.76981e-07
2.79714e-07
2.82132e-07
2.84225e-07
2.85983e-07
2.87399e-07
2.88466e-07
2.8918e-07
2.89538e-07
2.89538e-07
2.8918e-07
2.88466e-07
2.87399e-07
2.85983e-07
2.84225e-07
2.82132e-07
2.79714e-07
2.76981e-07
2.73944e-07
2.70616e-07
2.67013e-07
2.63147e-07
2.59028e-07
2.5467e-07
2.50101e-07
2.45341e-07
2.40409e-07
2.35325e-07
2.30111e-07
1.54462e-07
1.58991e-07
1.63476e-07
1.67922e-07
1.72301e-07
1.76613e-07
1.80842e-07
1.84971e-07
1.88983e-07
1.92861e-07
1.96589e-07
2.00148e-07
2.03517e-07
2.06682e-07
2.09637e-07
2.12367e-07
2.14861e-07
2.17107e-07
2.19096e-07
2.20818e-07
2.22265e-07
2.23431e-07
2.2431e-07
2.24899e-07
2.25194e-07
2.25194e-07
2.24899e-07
2.2431e-07
2.23431e-07
2.22265e-07
2.20818e-07
2.19096e-07
2.17107e-07
2.14861e-07
2.12367e-07
2.09637e-07
2.06682e-07
2.03517e-07
2.00148e-07
1.96589e-07
1.92861e-07
1.88983e-07
1.84971e-07
1.80842e-07
1.76613e-07
1.13962e-07
1.17475e-07
1.20961e-07
1.24423e-07
1.27842e-07
1.31213e-07
1.34526e-07
1.37765e-07
1.40919e-07
1.43972e-07
1.46911e-07
1.49721e-07
1.52384e-07
1.5489e-07
1.57231e-07
1.59397e-07
1.61378e-07
1.63163e-07
1.64745e-07
1.66115e-07
1.67268e-07
1.68197e-07
1.68897e-07
1.69366e-07
1.69601e-07
1.69601e-07
1.69366e-07
1.68897e-07
1.68197e-07
1.67268e-07
1.66115e-07
1.64745e-07
1.63163e-07
1.61378e-07
1.59397e-07
1.57231e-07
1.5489e-07
1.52384e-07
1.49721e-07
1.46911e-07
1.43972e-07
1.40919e-07
1.37765e-07
1.34526e-07
1.31213e-07
1.27842e-07
8.10262e-08
8.36414e-08
8.62422e-08
8.88303e-08
9.13909e-08
9.39212e-08
9.64119e-08
9.88524e-08
1.01232e-07
1.03539e-07
1.05764e-07
1.07894e-07
1.09916e-07
1.11821e-07
1.13603e-07
1.15253e-07
1.16764e-07
1.18127e-07
1.19335e-07
1.20383e-07
1.21265e-07
1.21976e-07
1.22512e-07
1.22871e-07
1.23051e-07
1.23051e-07
1.22871e-07
1.22512e-07
1.21976e-07
1.21265e-07
1.20383e-07
1.19335e-07
1.18127e-07
1.16764e-07
1.15253e-07
1.13603e-07
1.11821e-07
1.09916e-07
1.07894e-07
1.05764e-07
1.03539e-07
1.01232e-07
9.88524e-08
9.64119e-08
9.39212e-08
9.13909e-08
5.52457e-08
5.71026e-08
5.89529e-08
6.07979e-08
6.26269e-08
6.44377e-08
6.62234e-08
6.79762e-08
6.96881e-08
7.13508e-08
7.29562e-08
7.44959e-08
7.59594e-08
7.73403e-08
7.86334e-08
7.98323e-08
8.09308e-08
8.19229e-08
8.28033e-08
8.35671e-08
8.42103e-08
8.47291e-08
8.51208e-08
8.53831e-08
8.55146e-08
8.55146e-08
8.53831e-08
8.51208e-08
8.47291e-08
8.42103e-08
8.35671e-08
8.28033e-08
8.19229e-08
8.09308e-08
7.98323e-08
7.86334e-08
7.73403e-08
7.59594e-08
7.44959e-08
7.29562e-08
7.13508e-08
6.9688e-08
6.79762e-08
6.62234e-08
6.44378e-08
6.26269e-08
6.07979e-08
3.59246e-08
3.71739e-08
3.84211e-08
3.96669e-08
4.09041e-08
4.21312e-08
4.33433e-08
4.4535e-08
4.57007e-08
4.68347e-08
4.79313e-08
4.89844e-08
4.99867e-08
5.09337e-08
5.18215e-08
5.26455e-08
5.34012e-08
5.40843e-08
5.4691e-08
5.52177e-08
5.56615e-08
5.60196e-08
5.62901e-08
5.64713e-08
5.65622e-08
5.65622e-08
5.64713e-08
5.62901e-08
5.60196e-08
5.56615e-08
5.52177e-08
5.4691e-08
5.40843e-08
5.34012e-08
5.26455e-08
5.18215e-08
5.09337e-08
4.99867e-08
4.89844e-08
4.79313e-08
4.68347e-08
4.57007e-08
4.4535e-08
4.33433e-08
4.21312e-08
4.09041e-08
3.96668e-08
2.21363e-08
2.29271e-08
2.37177e-08
2.45086e-08
2.52953e-08
2.60768e-08
2.68498e-08
2.7611e-08
2.83565e-08
2.90828e-08
2.97859e-08
3.04621e-08
3.11064e-08
3.17158e-08
3.22877e-08
3.28191e-08
3.33068e-08
3.3748e-08
3.41401e-08
3.44808e-08
3.47679e-08
3.49998e-08
3.51749e-08
3.52923e-08
3.53512e-08
3.53512e-08
3.52923e-08
3.51749e-08
3.49998e-08
3.47679e-08
3.44808e-08
3.41401e-08
3.3748e-08
3.33068e-08
3.28191e-08
3.22877e-08
3.17158e-08
3.11064e-08
3.04621e-08
2.97859e-08
2.90828e-08
2.83565e-08
2.76109e-08
2.68498e-08
2.60768e-08
2.52953e-08
2.45086e-08
1.28219e-08
1.32889e-08
1.37562e-08
1.42244e-08
1.46906e-08
1.51543e-08
1.56135e-08
1.60662e-08
1.65101e-08
1.6943e-08
1.73625e-08
1.77664e-08
1.81516e-08
1.85163e-08
1.88588e-08
1.91773e-08
1.94698e-08
1.97347e-08
1.99701e-08
2.01748e-08
2.03474e-08
2.04869e-08
2.05922e-08
2.06628e-08
2.06982e-08
2.06982e-08
2.06628e-08
2.05922e-08
2.04869e-08
2.03474e-08
2.01748e-08
1.99701e-08
1.97346e-08
1.94698e-08
1.91773e-08
1.88588e-08
1.85163e-08
1.81516e-08
1.77664e-08
1.73625e-08
1.6943e-08
1.65101e-08
1.60662e-08
1.56135e-08
1.51543e-08
1.46906e-08
1.42244e-08
6.90758e-09
7.16209e-09
7.417e-09
7.67256e-09
7.92731e-09
8.18088e-09
8.43223e-09
8.6802e-09
8.92356e-09
9.16108e-09
9.39145e-09
9.61337e-09
9.8252e-09
1.00259e-08
1.02145e-08
1.039e-08
1.05512e-08
1.06973e-08
1.08272e-08
1.09402e-08
1.10355e-08
1.11125e-08
1.11707e-08
1.12097e-08
1.12293e-08
1.12293e-08
1.12097e-08
1.11707e-08
1.11125e-08
1.10355e-08
1.09402e-08
1.08272e-08
1.06973e-08
1.05512e-08
1.03899e-08
1.02145e-08
1.00259e-08
9.8252e-09
9.61337e-09
9.39145e-09
9.16107e-09
8.92356e-09
8.68019e-09
8.43222e-09
8.18088e-09
7.92731e-09
7.67256e-09
3.41017e-09
3.53634e-09
3.66274e-09
3.78952e-09
3.91597e-09
4.04189e-09
4.16677e-09
4.29004e-09
4.41108e-09
4.52926e-09
4.64395e-09
4.75448e-09
4.86003e-09
4.96007e-09
5.05412e-09
5.14166e-09
5.22214e-09
5.29505e-09
5.35993e-09
5.41636e-09
5.46396e-09
5.50244e-09
5.53152e-09
5.55102e-09
5.5608e-09
5.5608e-09
5.55102e-09
5.53152e-09
5.50244e-09
5.46396e-09
5.41635e-09
5.35993e-09
5.29505e-09
5.22213e-09
5.14166e-09
5.05412e-09
4.96007e-09
4.86003e-09
4.75448e-09
4.64395e-09
4.52926e-09
4.41108e-09
4.29004e-09
4.16677e-09
4.04189e-09
3.91597e-09
3.78952e-09
3.66274e-09
1.50954e-09
1.56519e-09
1.62093e-09
1.67684e-09
1.73262e-09
1.78817e-09
1.84328e-09
1.89768e-09
1.9511e-09
2.00328e-09
2.05392e-09
2.10273e-09
2.14936e-09
2.19355e-09
2.2351e-09
2.27379e-09
2.30936e-09
2.34158e-09
2.37027e-09
2.39521e-09
2.41627e-09
2.43328e-09
2.44614e-09
2.45476e-09
2.45909e-09
2.45909e-09
2.45476e-09
2.44614e-09
2.43328e-09
2.41627e-09
2.39521e-09
2.37027e-09
2.34158e-09
2.30935e-09
2.27379e-09
2.2351e-09
2.19355e-09
2.14935e-09
2.10273e-09
2.05392e-09
2.00328e-09
1.9511e-09
1.89768e-09
1.84328e-09
1.78817e-09
1.73262e-09
1.67684e-09
1.62093e-09
5.79384e-10
6.00481e-10
6.21603e-10
6.42785e-10
6.63909e-10
6.84944e-10
7.05806e-10
7.26397e-10
7.46617e-10
7.66361e-10
7.85522e-10
8.03988e-10
8.21624e-10
8.38339e-10
8.54057e-10
8.68685e-10
8.82135e-10
8.94322e-10
9.05167e-10
9.14601e-10
9.2256e-10
9.28993e-10
9.33855e-10
9.37116e-10
9.38751e-10
9.38751e-10
9.37116e-10
9.33855e-10
9.28992e-10
9.2256e-10
9.14601e-10
9.05167e-10
8.94322e-10
8.82135e-10
8.68685e-10
8.54057e-10
8.38339e-10
8.21624e-10
8.03988e-10
7.85522e-10
7.66361e-10
7.46617e-10
7.26397e-10
7.05806e-10
6.84944e-10
6.63909e-10
6.42785e-10
6.21602e-10
1.82578e-10
1.89072e-10
1.95567e-10
2.02076e-10
2.08562e-10
2.15017e-10
2.21415e-10
2.27727e-10
2.33921e-10
2.39967e-10
2.45832e-10
2.51482e-10
2.56875e-10
2.61984e-10
2.66787e-10
2.71256e-10
2.75364e-10
2.79085e-10
2.82395e-10
2.85275e-10
2.87703e-10
2.89666e-10
2.9115e-10
2.92144e-10
2.92643e-10
2.92643e-10
2.92144e-10
2.9115e-10
2.89666e-10
2.87703e-10
2.85275e-10
2.82395e-10
2.79085e-10
2.75364e-10
2.71256e-10
2.66787e-10
2.61984e-10
2.56875e-10
2.51482e-10
2.45832e-10
2.39967e-10
2.33921e-10
2.27727e-10
2.21415e-10
2.15017e-10
2.08562e-10
2.02076e-10
1.95567e-10
4.29413e-11
4.44065e-11
4.58693e-11
4.73334e-11
4.87904e-11
5.02387e-11
5.16726e-11
5.30856e-11
5.44711e-11
5.5822e-11
5.71313e-11
5.83914e-11
5.95933e-11
6.07311e-11
6.17998e-11
6.27936e-11
6.37066e-11
6.45331e-11
6.52682e-11
6.59073e-11
6.64461e-11
6.68815e-11
6.72105e-11
6.74311e-11
6.75417e-11
6.75417e-11
6.74311e-11
6.72105e-11
6.68815e-11
6.64461e-11
6.59072e-11
6.52682e-11
6.45331e-11
6.37066e-11
6.27936e-11
6.17998e-11
6.07311e-11
5.95933e-11
5.83914e-11
5.71313e-11
5.5822e-11
5.44711e-11
5.30856e-11
5.16726e-11
5.02387e-11
4.87904e-11
4.73333e-11
4.58693e-11
6.27009e-12
6.46796e-12
6.66485e-12
6.86143e-12
7.05658e-12
7.25013e-12
7.44137e-12
7.62946e-12
7.81353e-12
7.99268e-12
8.16602e-12
8.33258e-12
8.49119e-12
8.6411e-12
8.78173e-12
8.91235e-12
9.03221e-12
9.14063e-12
9.23697e-12
9.32065e-12
9.39118e-12
9.44813e-12
9.49115e-12
9.51998e-12
9.53444e-12
9.53443e-12
9.51998e-12
9.49115e-12
9.44813e-12
9.39118e-12
9.32065e-12
9.23697e-12
9.14063e-12
9.03221e-12
8.91235e-12
8.78173e-12
8.6411e-12
8.49119e-12
8.33258e-12
8.16602e-12
7.99268e-12
7.81352e-12
7.62945e-12
7.44136e-12
7.25013e-12
7.05658e-12
6.86143e-12
6.66485e-12
3.78647e-13
3.88664e-13
3.98564e-13
4.08399e-13
4.1811e-13
4.27699e-13
4.37133e-13
4.46374e-13
4.55384e-13
4.64121e-13
4.72545e-13
4.80612e-13
4.88267e-13
4.9548e-13
5.02229e-13
5.08481e-13
5.14206e-13
5.19374e-13
5.23958e-13
5.27934e-13
5.31281e-13
5.33981e-13
5.36018e-13
5.37383e-13
5.38067e-13
5.38067e-13
5.37383e-13
5.36018e-13
5.3398e-13
5.31281e-13
5.27934e-13
5.23958e-13
5.19374e-13
5.14206e-13
5.08481e-13
5.02229e-13
4.9548e-13
4.88267e-13
4.80612e-13
4.72544e-13
4.64121e-13
4.55384e-13
4.46374e-13
4.37133e-13
4.27699e-13
4.1811e-13
4.08398e-13
3.98564e-13
3.3672e-15
3.41993e-15
3.47111e-15
3.52134e-15
3.57031e-15
3.61819e-15
3.66486e-15
3.71019e-15
3.75402e-15
3.79619e-15
3.83655e-15
3.87493e-15
3.91104e-15
3.94481e-15
3.97622e-15
4.00517e-15
4.03156e-15
4.05528e-15
4.07624e-15
4.09436e-15
4.10957e-15
4.12182e-15
4.13104e-15
4.13721e-15
4.1403e-15
4.1403e-15
4.13721e-15
4.13104e-15
4.12182e-15
4.10957e-15
4.09436e-15
4.07624e-15
4.05528e-15
4.03156e-15
4.00517e-15
3.97622e-15
3.94481e-15
3.91104e-15
3.87493e-15
3.83655e-15
3.79619e-15
3.75402e-15
3.71019e-15
3.66486e-15
3.61819e-15
3.57031e-15
3.52134e-15
3.47111e-15
4.21172e-06
4.04298e-06
3.87651e-06
3.71235e-06
3.55056e-06
3.3912e-06
3.23431e-06
3.07998e-06
2.92825e-06
2.77921e-06
2.63291e-06
2.48945e-06
2.34889e-06
2.21133e-06
2.07685e-06
1.94554e-06
1.81751e-06
1.69286e-06
1.5717e-06
1.45414e-06
1.3403e-06
1.23029e-06
1.1242e-06
1.02207e-06
9.23542e-07
8.25923e-07
7.29068e-07
6.36744e-07
5.49354e-07
4.67344e-07
3.91188e-07
3.21377e-07
2.58388e-07
2.02647e-07
1.54462e-07
1.13962e-07
8.10262e-08
5.52457e-08
3.59246e-08
2.21363e-08
1.28219e-08
6.90758e-09
3.41017e-09
1.50954e-09
5.79384e-10
1.82578e-10
4.29413e-11
6.27009e-12
3.78647e-13
3.3672e-15
4.25991e-06
4.08979e-06
3.92193e-06
3.75638e-06
3.59321e-06
3.43246e-06
3.27419e-06
3.11847e-06
2.96536e-06
2.81493e-06
2.66725e-06
2.5224e-06
2.38047e-06
2.24153e-06
2.10567e-06
1.973e-06
1.84361e-06
1.7176e-06
1.59509e-06
1.47619e-06
1.36102e-06
1.2497e-06
1.14232e-06
1.03894e-06
9.393e-07
8.41394e-07
7.43312e-07
6.49752e-07
5.61118e-07
4.77858e-07
4.00453e-07
3.29402e-07
2.65198e-07
2.08284e-07
1.58991e-07
1.17475e-07
8.36414e-08
5.71026e-08
3.71739e-08
2.29271e-08
1.32889e-08
7.16209e-09
3.53634e-09
1.56519e-09
6.00481e-10
1.89072e-10
4.44065e-11
6.46796e-12
3.88664e-13
3.41993e-15
4.30613e-06
4.13471e-06
3.96555e-06
3.7987e-06
3.63422e-06
3.47216e-06
3.31258e-06
3.15555e-06
3.00113e-06
2.84938e-06
2.70039e-06
2.55423e-06
2.41098e-06
2.27072e-06
2.13356e-06
1.99958e-06
1.86888e-06
1.74158e-06
1.61778e-06
1.49759e-06
1.38115e-06
1.26856e-06
1.15994e-06
1.05535e-06
9.54657e-07
8.5652e-07
7.57252e-07
6.62495e-07
5.72654e-07
4.88181e-07
4.09563e-07
3.37306e-07
2.71917e-07
2.13855e-07
1.63476e-07
1.20961e-07
8.62422e-08
5.89529e-08
3.84211e-08
2.37177e-08
1.37562e-08
7.417e-09
3.66274e-09
1.62093e-09
6.21603e-10
1.95567e-10
4.58693e-11
6.66485e-12
3.98564e-13
3.47111e-15
4.35111e-06
4.17843e-06
4.00801e-06
3.8399e-06
3.67415e-06
3.51082e-06
3.34997e-06
3.19166e-06
3.03597e-06
2.88295e-06
2.73268e-06
2.58525e-06
2.44072e-06
2.2992e-06
2.16076e-06
2.02551e-06
1.89356e-06
1.76499e-06
1.63993e-06
1.5185e-06
1.40081e-06
1.287e-06
1.17717e-06
1.07142e-06
9.69694e-07
8.71329e-07
7.70922e-07
6.75001e-07
5.83987e-07
4.98333e-07
4.18532e-07
3.45099e-07
2.78551e-07
2.19366e-07
1.67922e-07
1.24423e-07
8.88303e-08
6.07979e-08
3.96669e-08
2.45086e-08
1.42244e-08
7.67256e-09
3.78952e-09
1.67684e-09
6.42785e-10
2.02076e-10
4.73334e-11
6.86143e-12
4.08399e-13
3.52134e-15
4.3948e-06
4.2209e-06
4.04926e-06
3.87993e-06
3.71296e-06
3.5484e-06
3.38632e-06
3.22679e-06