/*--------------------------------*- C++ -*----------------------------------*\
  =========                 |
  \\      /  F ield         | OpenFOAM: The Open Source CFD Toolbox
   \\    /   O peration     | Website:  https://openfoam.org
    \\  /    A nd           | Version:  7
     \\/     M anipulation  |
\*---------------------------------------------------------------------------*/
FoamFile
{
    version     2.0;
    format      ascii;
    class       volVectorField;
    location    "144000";
    object      vorticity;
}
// * * * * * * * * * * * * * * * * * * * * * * * * * * * * * * * * * * * * * //

dimensions      [0 0 -1 0 0 0 0];

internalField   nonuniform List<vector> 
4814
(
(-0.0269659 0.0783099 -9.72274e-18)
(-0.0243736 0.0787629 2.79636e-17)
(-0.0217881 0.0791672 6.29156e-18)
(-0.019209 0.0795238 -1.78262e-17)
(-0.0655341 0.0689051 8.19687e-18)
(-0.0634112 0.0696084 -1.06004e-17)
(-0.0606446 0.0708793 7.98549e-18)
(-0.0578796 0.0720776 5.79275e-18)
(-0.0551182 0.0732051 3.98034e-17)
(-0.0523617 0.0742631 -2.56302e-18)
(-0.0496113 0.0752536 -8.47647e-18)
(-0.0468675 0.0761782 -1.18486e-17)
(-0.0441309 0.0770389 -2.61686e-17)
(-0.0414017 0.0778379 -3.82486e-17)
(-0.0386806 0.0785775 3.00818e-17)
(-0.0359677 0.0792594 -1.76344e-18)
(-0.0332632 0.0798854 -5.78733e-18)
(-0.0305669 0.0804569 3.11066e-18)
(-0.0278787 0.0809755 -7.42648e-18)
(-0.0251981 0.0814425 2.93785e-17)
(-0.0225247 0.0818592 6.95301e-18)
(-0.0198581 0.0822267 -1.56779e-17)
(-0.0171975 0.0825461 -2.36305e-17)
(-0.0145423 0.0828182 5.72606e-18)
(-0.0118918 0.0830438 1.03461e-17)
(-0.00924516 0.0832234 2.23651e-18)
(-0.00660155 0.0833577 -3.7457e-18)
(-0.00396008 0.0834469 9.19136e-18)
(-0.00131989 0.0834914 -3.19937e-18)
(0.00131988 0.0834914 1.61424e-17)
(0.00396007 0.0834469 9.44198e-18)
(0.00660153 0.0833577 1.95246e-17)
(0.00924514 0.0832234 5.26556e-18)
(0.0118918 0.0830438 1.35253e-17)
(0.0145423 0.0828182 2.66764e-17)
(0.0171975 0.0825461 5.11332e-18)
(0.0198581 0.0822267 -9.34572e-18)
(0.0225248 0.0818592 -8.71114e-18)
(-0.067844 0.0712944 3.93409e-18)
(-0.0656248 0.0720405 -1.31667e-17)
(-0.0627591 0.0733546 7.71184e-18)
(-0.0598956 0.0745936 1.46741e-18)
(-0.0570359 0.075759 3.74491e-17)
(-0.0541817 0.0768524 -1.46485e-18)
(-0.0513339 0.0778758 -7.24302e-18)
(-0.0484933 0.078831 -1.21705e-17)
(-0.0456603 0.0797198 -2.74228e-17)
(-0.0428352 0.0805449 -4.21687e-17)
(-0.0400187 0.0813085 3.24368e-17)
(-0.037211 0.0820124 2.98003e-18)
(-0.0344121 0.0826584 -4.10607e-18)
(-0.0316219 0.0832481 4.06011e-18)
(-0.0288402 0.0837831 -6.38201e-18)
(-0.0260666 0.0842649 3.04321e-17)
(-0.0233007 0.0846947 7.76463e-18)
(-0.0205418 0.0850738 -1.40893e-17)
(-0.0177893 0.0854031 -2.23622e-17)
(-0.0150426 0.0856837 7.16183e-18)
(-0.0123007 0.0859163 1.14779e-17)
(-0.00956299 0.0861015 5.05978e-18)
(-0.00682846 0.0862399 -3.03012e-18)
(-0.00409618 0.0863319 1.12556e-17)
(-0.00136525 0.0863778 -1.02255e-18)
(0.00136524 0.0863778 1.81002e-17)
(0.00409617 0.0863319 1.21077e-17)
(0.00682844 0.0862399 2.22951e-17)
(0.00956297 0.0861015 6.3563e-18)
(0.0123007 0.0859163 1.38952e-17)
(0.0150426 0.0856837 2.63881e-17)
(0.0177893 0.0854031 5.08596e-18)
(0.0205418 0.0850738 -8.08019e-18)
(0.0233007 0.0846947 -8.71069e-18)
(0.0260666 0.0842649 2.26795e-17)
(0.0288402 0.0837831 -3.27777e-18)
(0.0316219 0.0832481 -2.68323e-17)
(0.0344121 0.0826583 -1.65934e-17)
(0.037211 0.0820123 -7.81553e-18)
(0.0400187 0.0813085 2.77034e-17)
(0.0428353 0.0805449 -2.06401e-17)
(-0.0702787 0.0738128 2.39201e-18)
(-0.067958 0.0746041 -1.47793e-17)
(-0.0649881 0.0759639 8.49201e-18)
(-0.0620206 0.0772458 2.43911e-19)
(-0.0590575 0.0784513 3.90934e-17)
(-0.0561002 0.0795821 9.23921e-19)
(-0.0531499 0.0806402 -6.16818e-18)
(-0.0502073 0.0816276 -1.03813e-17)
(-0.0472727 0.0825462 -2.82729e-17)
(-0.0443466 0.0833988 -4.56613e-17)
(-0.0414295 0.0841877 3.39596e-17)
(-0.0385217 0.0849148 5.71923e-18)
(-0.0356233 0.0855819 -2.80255e-18)
(-0.0327341 0.0861909 2.99718e-18)
(-0.0298539 0.0867433 -5.97791e-18)
(-0.0269823 0.0872407 3.14783e-17)
(-0.0241187 0.0876843 8.56067e-18)
(-0.0212626 0.0880755 -1.28715e-17)
(-0.0184133 0.0884154 -2.25907e-17)
(-0.01557 0.0887049 7.35002e-18)
(-0.0127319 0.0889449 1.15778e-17)
(-0.0098981 0.089136 6.72949e-18)
(-0.0070677 0.0892788 -2.91157e-18)
(-0.00423968 0.0893737 1.20527e-17)
(-0.00141307 0.089421 -7.21788e-19)
(0.00141306 0.089421 1.87278e-17)
(0.00423967 0.0893737 1.28774e-17)
(0.00706768 0.0892788 2.24552e-17)
(0.00989808 0.089136 5.33678e-18)
(0.0127319 0.0889449 1.30178e-17)
(0.01557 0.0887049 2.5273e-17)
(0.0184133 0.0884154 3.97881e-18)
(0.0212626 0.0880755 -7.29464e-18)
(0.0241187 0.0876843 -9.15552e-18)
(0.0269823 0.0872407 2.37025e-17)
(0.0298539 0.0867433 -1.98278e-18)
(0.0327341 0.0861909 -2.74084e-17)
(0.0356233 0.0855819 -1.70932e-17)
(0.0385217 0.0849147 -6.20669e-18)
(0.0414295 0.0841876 3.08084e-17)
(0.0443466 0.0833988 -2.14884e-17)
(0.0472727 0.0825462 -7.84163e-17)
(0.0502074 0.0816276 -8.97884e-18)
(0.05315 0.0806403 -1.22275e-17)
(-0.0728472 0.0764696 2.70093e-18)
(-0.0704194 0.0773087 -1.63504e-17)
(-0.0673396 0.0787169 9.48125e-18)
(-0.0642627 0.0800441 7.15084e-19)
(-0.0611906 0.081292 4.3646e-17)
(-0.0581246 0.0824623 3.60884e-18)
(-0.0550662 0.0835572 -5.40355e-18)
(-0.0520159 0.0845786 -7.53415e-18)
(-0.0489741 0.0855287 -2.80933e-17)
(-0.0459414 0.0864104 -4.80309e-17)
(-0.0429182 0.087226 3.47243e-17)
(-0.0399049 0.0879777 7.6466e-18)
(-0.0369015 0.0886672 -2.02616e-18)
(-0.0339079 0.0892966 4.79829e-19)
(-0.0309238 0.0898673 -5.38441e-18)
(-0.0279487 0.0903811 3.28478e-17)
(-0.0249821 0.0908394 9.26983e-18)
(-0.0220234 0.0912435 -1.16876e-17)
(-0.0190718 0.0915945 -2.34073e-17)
(-0.0161266 0.0918934 6.79586e-18)
(-0.0131869 0.0921412 1.09024e-17)
(-0.0102518 0.0923386 7.59556e-18)
(-0.00732019 0.092486 -3.34441e-18)
(-0.00439112 0.0925839 1.20479e-17)
(-0.00146355 0.0926328 -1.86132e-18)
(0.00146354 0.0926328 1.84259e-17)
(0.00439111 0.0925839 1.26377e-17)
(0.00732017 0.092486 2.10767e-17)
(0.0102518 0.0923385 2.99874e-18)
(0.0131869 0.0921412 1.14454e-17)
(0.0161266 0.0918934 2.34811e-17)
(0.0190718 0.0915945 2.19198e-18)
(0.0220234 0.0912434 -6.69802e-18)
(0.0249821 0.0908394 -9.66977e-18)
(0.0279487 0.0903811 2.41402e-17)
(0.0309238 0.0898673 -4.32212e-19)
(0.0339079 0.0892965 -2.84284e-17)
(0.0369015 0.0886672 -1.79048e-17)
(0.0399049 0.0879776 -5.06826e-18)
(0.0429182 0.087226 3.16913e-17)
(0.0459414 0.0864104 -2.25142e-17)
(0.0489741 0.0855287 -7.99254e-17)
(0.0520159 0.0845787 -6.1429e-18)
(0.0550662 0.0835572 -1.11405e-17)
(-0.075559 0.0792746 2.72287e-18)
(-0.0730185 0.0801645 -1.80712e-17)
(-0.0698228 0.0816239 1.03527e-17)
(-0.0666304 0.0829993 9.86704e-19)
(-0.0634432 0.0842921 4.86456e-17)
(-0.0602626 0.0855042 5.4862e-18)
(-0.05709 0.086638 -4.87754e-18)
(-0.0539261 0.0876955 -5.66525e-18)
(-0.0507712 0.0886789 -2.83146e-17)
(-0.0476259 0.0895914 -4.97243e-17)
(-0.0444907 0.0904354 3.57815e-17)
(-0.041366 0.091213 9.85778e-18)
(-0.0382518 0.0919263 -9.48995e-19)
(-0.0351478 0.0925772 -1.84358e-18)
(-0.0320539 0.0931674 -4.87277e-18)
(-0.0289695 0.0936987 3.4409e-17)
(-0.0258941 0.0941724 9.68532e-18)
(-0.022827 0.0945901 -1.10424e-17)
(-0.0197675 0.0949529 -2.40462e-17)
(-0.0167147 0.0952618 6.53299e-18)
(-0.0136676 0.0955179 9.91003e-18)
(-0.0106254 0.0957218 8.1335e-18)
(-0.00758693 0.0958741 -3.88364e-18)
(-0.00455111 0.0959753 1.22037e-17)
(-0.00151687 0.0960258 -3.38072e-18)
(0.00151686 0.0960258 1.81305e-17)
(0.0045511 0.0959753 1.28067e-17)
(0.00758691 0.0958741 1.97316e-17)
(0.0106254 0.0957218 7.99607e-19)
(0.0136676 0.0955179 9.8997e-18)
(0.0167147 0.0952618 2.15772e-17)
(0.0197675 0.0949528 3.28847e-19)
(0.022827 0.09459 -6.12576e-18)
(0.0258941 0.0941724 -9.54263e-18)
(0.0289695 0.0936986 2.41434e-17)
(0.0320539 0.0931674 7.81743e-19)
(0.0351478 0.0925771 -2.91598e-17)
(0.0382518 0.0919263 -1.91912e-17)
(0.041366 0.091213 -4.783e-18)
(0.0444907 0.0904354 3.16186e-17)
(0.0476259 0.0895914 -2.36595e-17)
(0.0507712 0.088679 -8.21156e-17)
(0.0539262 0.0876955 -5.04835e-18)
(0.05709 0.086638 -1.21311e-17)
(-0.0784248 0.0822389 2.50618e-18)
(-0.0757652 0.0831826 -2.00338e-17)
(-0.0724472 0.0846965 1.10933e-17)
(-0.0691329 0.0861228 1.0704e-18)
(-0.0658242 0.0874632 5.28696e-17)
(-0.0625226 0.0887198 6.80435e-18)
(-0.0592294 0.0898948 -4.16608e-18)
(-0.0559455 0.0909906 -4.53623e-18)
(-0.0526711 0.0920094 -2.84994e-17)
(-0.0494069 0.0929545 -5.13461e-17)
(-0.0461533 0.0938286 3.70921e-17)
(-0.0429108 0.0946338 1.21771e-17)
(-0.0396794 0.0953723 8.35861e-20)
(-0.0364589 0.096046 -3.46775e-18)
(-0.0332489 0.0966569 -4.21255e-18)
(-0.030049 0.0972066 3.54147e-17)
(-0.0268585 0.0976968 9.93279e-18)
(-0.0236769 0.0981289 -1.03941e-17)
(-0.0205031 0.0985042 -2.41312e-17)
(-0.0173365 0.0988238 6.397e-18)
(-0.014176 0.0990886 8.90259e-18)
(-0.0110205 0.0992995 8.63385e-18)
(-0.007869 0.0994571 -4.81285e-18)
(-0.0047203 0.0995617 1.27002e-17)
(-0.00157325 0.0996139 -5.09204e-18)
(0.00157324 0.0996139 1.77429e-17)
(0.00472029 0.0995617 1.3353e-17)
(0.00786898 0.099457 1.87285e-17)
(0.0110205 0.0992995 -1.05341e-18)
(0.014176 0.0990886 8.44772e-18)
(0.0173365 0.0988238 1.98846e-17)
(0.0205032 0.0985042 -1.60231e-18)
(0.0236769 0.0981289 -5.52074e-18)
(0.0268585 0.0976968 -9.21099e-18)
(0.030049 0.0972066 2.38033e-17)
(0.0332489 0.0966568 1.62192e-18)
(0.0364589 0.096046 -2.97283e-17)
(0.0396794 0.0953722 -2.07281e-17)
(0.0429108 0.0946338 -4.7414e-18)
(0.0461534 0.0938286 3.19288e-17)
(0.0494069 0.0929546 -2.48439e-17)
(0.0526712 0.0920094 -8.47487e-17)
(0.0559456 0.0909906 -4.52113e-18)
(0.0592294 0.0898949 -1.42119e-17)
(-0.0814557 0.0853741 2.14982e-18)
(-0.0786705 0.0863751 -2.21478e-17)
(-0.0752234 0.0879467 1.24377e-17)
(-0.0717804 0.0894273 1.12552e-18)
(-0.0683433 0.0908183 5.67343e-17)
(-0.0649138 0.092122 8.36431e-18)
(-0.0614932 0.0933409 -3.75732e-18)
(-0.0580824 0.0944774 -3.1828e-18)
(-0.0546816 0.0955338 -2.83992e-17)
(-0.0512916 0.0965136 -5.28701e-17)
(-0.0479129 0.0974197 3.86867e-17)
(-0.0445458 0.0982542 1.40071e-17)
(-0.0411904 0.0990194 1.07177e-18)
(-0.0378465 0.0997175 -4.65835e-18)
(-0.0345137 0.10035 -3.84977e-18)
(-0.0311915 0.10092 3.60414e-17)
(-0.0278793 0.101427 1.06102e-17)
(-0.0245764 0.101875 -9.61133e-18)
(-0.0212818 0.102263 -2.37551e-17)
(-0.0179947 0.102594 6.43101e-18)
(-0.0147141 0.102868 7.98328e-18)
(-0.0114387 0.103087 9.43268e-18)
(-0.0081676 0.10325 -5.78767e-18)
(-0.0048994 0.103358 1.31614e-17)
(-0.00163294 0.103412 -6.7804e-18)
(0.00163293 0.103412 1.73192e-17)
(0.00489939 0.103358 1.3956e-17)
(0.00816758 0.10325 1.81867e-17)
(0.0114387 0.103087 -2.43464e-18)
(0.0147141 0.102868 6.75366e-18)
(0.0179947 0.102594 1.81724e-17)
(0.0212819 0.102263 -3.44421e-18)
(0.0245764 0.101875 -5.4071e-18)
(0.0278793 0.101427 -8.72703e-18)
(0.0311915 0.10092 2.34076e-17)
(0.0345137 0.10035 1.71498e-18)
(0.0378465 0.0997174 -3.04744e-17)
(0.0411904 0.0990194 -2.23586e-17)
(0.0445458 0.0982542 -4.89705e-18)
(0.0479129 0.0974197 3.26017e-17)
(0.0512916 0.0965137 -2.55697e-17)
(0.0546817 0.0955338 -8.67075e-17)
(0.0580824 0.0944774 -3.62892e-18)
(0.0614932 0.0933409 -1.62636e-17)
(0.0649138 0.0921221 3.38452e-17)
(-0.0846642 0.0886927 1.78053e-18)
(-0.0817462 0.0897548 -2.41196e-17)
(-0.0781626 0.091388 1.38319e-17)
(-0.0745836 0.0929262 8.45339e-19)
(-0.0710109 0.0943711 6.06884e-17)
(-0.0674461 0.0957251 9.53948e-18)
(-0.0638906 0.0969906 -4.42693e-18)
(-0.0603456 0.0981704 -1.89891e-18)
(-0.0568112 0.0992668 -2.91252e-17)
(-0.053288 0.100284 -5.38173e-17)
(-0.0497768 0.101224 4.06424e-17)
(-0.0462778 0.10209 1.58212e-17)
(-0.0427912 0.102883 1.70555e-18)
(-0.0393166 0.103607 -5.81986e-18)
(-0.0358537 0.104263 -3.3588e-18)
(-0.0324021 0.104854 3.62198e-17)
(-0.0289609 0.10538 1.09736e-17)
(-0.0255295 0.105844 -8.59114e-18)
(-0.0221069 0.106247 -2.30627e-17)
(-0.0186922 0.106589 6.90634e-18)
(-0.0152843 0.106874 6.9893e-18)
(-0.0118819 0.1071 1.02078e-17)
(-0.008484 0.107269 -6.55464e-18)
(-0.00508918 0.107381 1.36575e-17)
(-0.00169619 0.107437 -8.38097e-18)
(0.00169618 0.107437 1.68528e-17)
(0.00508917 0.107381 1.43165e-17)
(0.00848398 0.107269 1.7997e-17)
(0.0118819 0.1071 -3.25368e-18)
(0.0152842 0.106874 4.87666e-18)
(0.0186922 0.106589 1.66351e-17)
(0.022107 0.106247 -5.05007e-18)
(0.0255295 0.105844 -5.32309e-18)
(0.0289609 0.10538 -8.47223e-18)
(0.0324021 0.104854 2.29269e-17)
(0.0358537 0.104263 2.09017e-18)
(0.0393166 0.103607 -3.13681e-17)
(0.0427912 0.102883 -2.40653e-17)
(0.0462778 0.10209 -5.6901e-18)
(0.0497768 0.101224 3.35272e-17)
(0.053288 0.100284 -2.5467e-17)
(0.0568112 0.0992669 -8.75186e-17)
(0.0603457 0.0981704 -2.85247e-18)
(0.0638907 0.0969907 -1.8645e-17)
(0.0674461 0.0957251 3.44737e-17)
(-0.0880633 0.0922085 1.12515e-18)
(-0.0850049 0.0933358 -2.54467e-17)
(-0.0812772 0.0950346 1.44336e-17)
(-0.0775543 0.0966344 -1.33765e-19)
(-0.0738381 0.0981367 6.45332e-17)
(-0.0701301 0.0995442 1.04758e-17)
(-0.0664321 0.10086 -5.27793e-18)
(-0.062745 0.102086 -1.01726e-18)
(-0.0590689 0.103225 -2.94849e-17)
(-0.0554047 0.104281 -5.41704e-17)
(-0.0517531 0.105257 4.29641e-17)
(-0.0481144 0.106157 1.74548e-17)
(-0.0444886 0.106981 2.0096e-18)
(-0.0408756 0.107732 -6.82808e-18)
(-0.0372749 0.108413 -3.03817e-18)
(-0.033686 0.109026 3.65983e-17)
(-0.0301081 0.109572 1.13859e-17)
(-0.0265404 0.110054 -7.6396e-18)
(-0.0229821 0.110471 -2.19079e-17)
(-0.019432 0.110827 8.01035e-18)
(-0.015889 0.111122 5.85273e-18)
(-0.012352 0.111357 1.08507e-17)
(-0.00881961 0.111532 -7.16757e-18)
(-0.00529049 0.111648 1.4082e-17)
(-0.00176329 0.111706 -9.68634e-18)
(0.00176327 0.111706 1.63688e-17)
(0.00529047 0.111648 1.42741e-17)
(0.00881959 0.111532 1.80924e-17)
(0.012352 0.111357 -3.72721e-18)
(0.015889 0.111122 2.84253e-18)
(0.019432 0.110827 1.52701e-17)
(0.0229821 0.110471 -6.34253e-18)
(0.0265405 0.110054 -5.41496e-18)
(0.0301081 0.109572 -8.2314e-18)
(0.033686 0.109026 2.27496e-17)
(0.0372749 0.108413 3.00418e-18)
(0.0408756 0.107732 -3.15745e-17)
(0.0444887 0.106981 -2.56029e-17)
(0.0481144 0.106156 -7.1733e-18)
(0.0517531 0.105257 3.37491e-17)
(0.0554047 0.104281 -2.50781e-17)
(0.0590689 0.103225 -8.81073e-17)
(0.062745 0.102086 -1.79282e-18)
(0.0664321 0.10086 -2.12296e-17)
(0.0701301 0.0995442 3.4722e-17)
(-0.0916673 0.0959361 2.82206e-19)
(-0.0884605 0.0971332 -2.55731e-17)
(-0.0845803 0.0989021 1.41231e-17)
(-0.0807053 0.100568 -1.74027e-18)
(-0.0768372 0.102131 6.77742e-17)
(-0.0729777 0.103596 1.14049e-17)
(-0.0691285 0.104964 -5.39673e-18)
(-0.0652908 0.10624 -6.76717e-19)
(-0.0614647 0.107425 -2.88832e-17)
(-0.0576511 0.108523 -5.34717e-17)
(-0.0538506 0.109539 4.60717e-17)
(-0.0500638 0.110473 1.83206e-17)
(-0.0462905 0.11133 2.36743e-18)
(-0.0425306 0.112111 -7.24826e-18)
(-0.0387836 0.112819 -3.29608e-18)
(-0.0350489 0.113456 3.70982e-17)
(-0.031326 0.114023 1.26133e-17)
(-0.0276137 0.114523 -6.48039e-18)
(-0.0239113 0.114957 -2.05816e-17)
(-0.0202175 0.115327 9.00138e-18)
(-0.0165312 0.115633 4.49754e-18)
(-0.0128511 0.115876 1.15082e-17)
(-0.00917597 0.116058 -7.35737e-18)
(-0.00550423 0.116179 1.45209e-17)
(-0.00183452 0.11624 -1.08387e-17)
(0.00183451 0.11624 1.58911e-17)
(0.00550422 0.116179 1.3929e-17)
(0.00917595 0.116058 1.84467e-17)
(0.0128511 0.115876 -4.25024e-18)
(0.0165312 0.115633 6.31264e-19)
(0.0202175 0.115327 1.38625e-17)
(0.0239113 0.114957 -7.47438e-18)
(0.0276137 0.114523 -5.2812e-18)
(0.031326 0.114023 -8.17268e-18)
(0.0350489 0.113456 2.20198e-17)
(0.0387836 0.112819 3.34015e-18)
(0.0425305 0.112111 -3.10613e-17)
(0.0462905 0.11133 -2.67106e-17)
(0.0500638 0.110473 -8.91796e-18)
(0.0538507 0.109538 3.35312e-17)
(0.0576511 0.108523 -2.46609e-17)
(0.0614647 0.107425 -8.83187e-17)
(0.0652908 0.10624 -6.29336e-19)
(0.0691285 0.104964 -2.41648e-17)
(0.0729777 0.103596 3.44266e-17)
(-0.0954915 0.0998913 -4.37885e-19)
(-0.0921277 0.101163 -2.47319e-17)
(-0.0880862 0.103007 1.45557e-17)
(-0.0840501 0.104743 -4.62276e-18)
(-0.0800212 0.106372 7.01247e-17)
(-0.0760012 0.107898 1.20486e-17)
(-0.0719918 0.109324 -5.53533e-18)
(-0.0679946 0.110652 -1.9544e-19)
(-0.0640094 0.111886 -2.8185e-17)
(-0.0600372 0.113029 -5.27131e-17)
(-0.0560789 0.114086 4.87705e-17)
(-0.0521348 0.115059 1.911e-17)
(-0.0482049 0.115951 3.37239e-18)
(-0.044289 0.116764 -7.44054e-18)
(-0.0403867 0.1175 -4.24674e-18)
(-0.0364973 0.118163 3.81574e-17)
(-0.0326202 0.118753 1.3596e-17)
(-0.0287543 0.119273 -5.68268e-18)
(-0.0248988 0.119724 -1.92097e-17)
(-0.0210523 0.120109 9.7215e-18)
(-0.0172137 0.120427 3.14633e-18)
(-0.0133817 0.12068 1.24515e-17)
(-0.00955473 0.12087 -7.38094e-18)
(-0.00573142 0.120995 1.49081e-17)
(-0.00191024 0.121058 -1.19552e-17)
(0.00191023 0.121058 1.53492e-17)
(0.00573141 0.120995 1.34826e-17)
(0.00955471 0.12087 1.86938e-17)
(0.0133816 0.12068 -4.62597e-18)
(0.0172137 0.120427 -1.4027e-18)
(0.0210523 0.120109 1.24757e-17)
(0.0248988 0.119724 -8.56495e-18)
(0.0287544 0.119273 -5.36913e-18)
(0.0326202 0.118753 -8.57805e-18)
(0.0364973 0.118163 2.11262e-17)
(0.0403867 0.1175 3.20991e-18)
(0.044289 0.116764 -3.04257e-17)
(0.0482049 0.115951 -2.72014e-17)
(0.0521348 0.115059 -1.02393e-17)
(0.0560789 0.114086 3.35315e-17)
(0.0600372 0.113029 -2.45305e-17)
(0.0640094 0.111886 -8.76852e-17)
(0.0679946 0.110652 6.65509e-19)
(0.0719919 0.109324 -2.72999e-17)
(-0.0995524 0.104091 -1.91936e-18)
(-0.0960223 0.105443 -2.30267e-17)
(-0.0918103 0.107368 1.57133e-17)
(-0.0876037 0.109179 -8.00405e-18)
(-0.0834043 0.110878 7.2107e-17)
(-0.0792142 0.11247 1.2205e-17)
(-0.0750351 0.113957 -5.83136e-18)
(-0.0708686 0.115342 7.41638e-19)
(-0.0667145 0.116628 -2.72836e-17)
(-0.0625741 0.11782 -5.24038e-17)
(-0.0584481 0.118922 5.14061e-17)
(-0.054337 0.119936 1.93815e-17)
(-0.0502407 0.120865 4.92637e-18)
(-0.0461591 0.121712 -8.07121e-18)
(-0.0420917 0.122479 -5.9328e-18)
(-0.0380379 0.123169 4.04014e-17)
(-0.0339969 0.123784 1.45029e-17)
(-0.0299677 0.124326 -4.8493e-18)
(-0.0259493 0.124796 -1.76529e-17)
(-0.0219404 0.125196 1.03171e-17)
(-0.0179398 0.125528 2.04678e-18)
(-0.0139461 0.125791 1.35135e-17)
(-0.00995771 0.125989 -7.43022e-18)
(-0.00597314 0.126119 1.53206e-17)
(-0.0019908 0.126185 -1.30371e-17)
(0.00199079 0.126185 1.49257e-17)
(0.00597313 0.126119 1.29097e-17)
(0.00995769 0.125988 1.862e-17)
(0.013946 0.125791 -4.71262e-18)
(0.0179398 0.125528 -3.26534e-18)
(0.0219404 0.125196 1.09332e-17)
(0.0259493 0.124796 -9.88968e-18)
(0.0299677 0.124326 -5.48648e-18)
(0.0339969 0.123784 -8.43227e-18)
(0.0380379 0.123169 2.09806e-17)
(0.0420917 0.122479 2.77775e-18)
(0.0461591 0.121712 -3.0282e-17)
(0.0502407 0.120865 -2.71783e-17)
(0.054337 0.119936 -1.11788e-17)
(0.0584481 0.118922 3.33802e-17)
(0.0625741 0.11782 -2.42289e-17)
(0.0667145 0.116628 -8.71178e-17)
(0.0708686 0.115342 1.89044e-18)
(0.0750351 0.113957 -3.01825e-17)
(-0.103867 0.108553 -2.74719e-18)
(-0.100161 0.109992 -2.1873e-17)
(-0.0957688 0.112003 1.60756e-17)
(-0.0913816 0.113895 -1.11564e-17)
(-0.0870018 0.11567 7.35243e-17)
(-0.0826312 0.117332 1.28604e-17)
(-0.0782721 0.118885 -5.71078e-18)
(-0.0739259 0.120331 7.64491e-19)
(-0.0695926 0.121674 -2.54146e-17)
(-0.0652735 0.122918 -5.11899e-17)
(-0.0609694 0.124068 5.34133e-17)
(-0.0566808 0.125127 1.92918e-17)
(-0.0524077 0.126096 6.64766e-18)
(-0.0481499 0.12698 -8.86045e-18)
(-0.0439069 0.12778 -7.46117e-18)
(-0.0396781 0.1285 4.2959e-17)
(-0.0354627 0.129141 1.50535e-17)
(-0.0312597 0.129706 -3.98007e-18)
(-0.0270679 0.130196 -1.55903e-17)
(-0.0228862 0.130614 1.08983e-17)
(-0.018713 0.130959 1.41733e-18)
(-0.0145471 0.131234 1.42981e-17)
(-0.0103869 0.13144 -7.37275e-18)
(-0.00623056 0.131576 1.60349e-17)
(-0.0020766 0.131645 -1.40115e-17)
(0.00207658 0.131645 1.4504e-17)
(0.00623055 0.131576 1.20331e-17)
(0.0103868 0.13144 1.82381e-17)
(0.0145471 0.131234 -4.4122e-18)
(0.018713 0.130959 -4.66746e-18)
(0.0228862 0.130614 9.42298e-18)
(0.0270679 0.130196 -1.12571e-17)
(0.0312597 0.129706 -5.56036e-18)
(0.0354627 0.129141 -8.01979e-18)
(0.0396781 0.1285 2.11179e-17)
(0.0439069 0.12778 2.33754e-18)
(0.0481499 0.12698 -3.1144e-17)
(0.0524077 0.126096 -2.66822e-17)
(0.0566808 0.125126 -1.22683e-17)
(0.0609694 0.124068 3.25015e-17)
(0.0652735 0.122918 -2.31415e-17)
(0.0695927 0.121674 -8.58707e-17)
(0.0739259 0.120331 3.18457e-18)
(0.0782721 0.118885 -3.31495e-17)
(-0.108455 0.113297 -2.0688e-18)
(-0.104563 0.11483 -2.10616e-17)
(-0.0999794 0.116933 1.53534e-17)
(-0.0954009 0.118912 -1.43583e-17)
(-0.0908298 0.120769 7.47697e-17)
(-0.086268 0.122507 1.39537e-17)
(-0.0817177 0.12413 -5.95332e-18)
(-0.0771808 0.125642 5.90059e-19)
(-0.0726572 0.127046 -2.22772e-17)
(-0.0681482 0.128347 -4.92445e-17)
(-0.0636548 0.129549 5.49224e-17)
(-0.0591774 0.130655 1.95726e-17)
(-0.0547162 0.131669 8.70461e-18)
(-0.0502708 0.132592 -9.85544e-18)
(-0.045841 0.133428 -9.03718e-18)
(-0.0414259 0.13418 4.52129e-17)
(-0.0370248 0.13485 1.48311e-17)
(-0.0326366 0.13544 -2.40549e-18)
(-0.0282602 0.135952 -1.32548e-17)
(-0.0238942 0.136388 1.1087e-17)
(-0.0195372 0.136749 1.13348e-18)
(-0.0151878 0.137036 1.50345e-17)
(-0.0108443 0.137251 -7.10939e-18)
(-0.00650497 0.137394 1.68433e-17)
(-0.00216805 0.137465 -1.49271e-17)
(0.00216804 0.137465 1.40472e-17)
(0.00650495 0.137394 1.07542e-17)
(0.0108443 0.137251 1.7657e-17)
(0.0151878 0.137036 -3.87272e-18)
(0.0195372 0.136749 -5.7215e-18)
(0.0238942 0.136388 7.79066e-18)
(0.0282602 0.135952 -1.28259e-17)
(0.0326366 0.13544 -5.37939e-18)
(0.0370248 0.13485 -7.62376e-18)
(0.0414259 0.13418 2.13905e-17)
(0.045841 0.133428 1.25687e-18)
(0.0502708 0.132592 -3.27196e-17)
(0.0547162 0.131669 -2.56622e-17)
(0.0591774 0.130655 -1.31842e-17)
(0.0636548 0.129549 3.12908e-17)
(0.0681482 0.128347 -2.15268e-17)
(0.0726572 0.127046 -8.32725e-17)
(0.0771809 0.125642 4.17855e-18)
(0.0817177 0.12413 -3.61225e-17)
(-0.113336 0.118344 -1.08133e-18)
(-0.109247 0.119977 -2.05076e-17)
(-0.104461 0.122181 1.43593e-17)
(-0.0996797 0.124254 -1.75723e-17)
(-0.0949057 0.126198 7.62989e-17)
(-0.090141 0.128018 1.46733e-17)
(-0.0853879 0.129718 -6.44461e-18)
(-0.0806486 0.131301 7.15695e-19)
(-0.0759227 0.132771 -1.78891e-17)
(-0.0712118 0.134133 -4.68871e-17)
(-0.066517 0.135392 5.66534e-17)
(-0.0618389 0.136549 2.0195e-17)
(-0.0571774 0.13761 1.08933e-17)
(-0.0525324 0.138576 -1.1008e-17)
(-0.0479035 0.139452 -1.0188e-17)
(-0.0432899 0.140238 4.75576e-17)
(-0.0386909 0.140939 1.46645e-17)
(-0.0341053 0.141557 -4.55045e-19)
(-0.029532 0.142092 -1.08765e-17)
(-0.0249695 0.142548 1.14439e-17)
(-0.0204165 0.142926 8.38492e-19)
(-0.0158714 0.143227 1.56143e-17)
(-0.0113324 0.143451 -6.55456e-18)
(-0.00679773 0.1436 1.76612e-17)
(-0.00226563 0.143674 -1.56407e-17)
(0.00226562 0.143674 1.36474e-17)
(0.00679772 0.1436 8.92876e-18)
(0.0113324 0.143451 1.68956e-17)
(0.0158714 0.143226 -3.44087e-18)
(0.0204165 0.142926 -6.75647e-18)
(0.0249695 0.142548 5.75454e-18)
(0.029532 0.142092 -1.45042e-17)
(0.0341053 0.141557 -4.82323e-18)
(0.0386909 0.140939 -7.4448e-18)
(0.0432899 0.140238 2.2036e-17)
(0.0479035 0.139452 4.43509e-19)
(0.0525324 0.138576 -3.44479e-17)
(0.0571774 0.13761 -2.49045e-17)
(0.0618389 0.136549 -1.4499e-17)
(0.0665171 0.135392 2.91311e-17)
(0.0712118 0.134133 -1.89608e-17)
(0.0759227 0.132771 -8.00105e-17)
(0.0806486 0.131301 5.16939e-18)
(0.0853879 0.129718 -3.84909e-17)
(-0.11853 0.123714 -4.0318e-19)
(-0.114232 0.125457 -2.12011e-17)
(-0.109232 0.127768 1.28755e-17)
(-0.104237 0.129943 -1.93861e-17)
(-0.0992479 0.131982 7.79795e-17)
(-0.094268 0.133891 1.44652e-17)
(-0.0892997 0.135674 -6.66973e-18)
(-0.0843453 0.137334 1.12104e-18)
(-0.0794044 0.138875 -1.37914e-17)
(-0.0744789 0.140304 -4.44833e-17)
(-0.06957 0.141623 5.88267e-17)
(-0.064678 0.142837 2.04893e-17)
(-0.0598033 0.143949 1.30797e-17)
(-0.0549456 0.144962 -1.08662e-17)
(-0.0501045 0.14588 -1.10162e-17)
(-0.0452794 0.146704 4.98036e-17)
(-0.0404693 0.147439 1.50899e-17)
(-0.0356731 0.148086 1.7788e-18)
(-0.0308897 0.148647 -9.32148e-18)
(-0.0261176 0.149125 1.18228e-17)
(-0.0213553 0.149521 9.0052e-19)
(-0.0166012 0.149836 1.62849e-17)
(-0.0118535 0.150071 -5.99913e-18)
(-0.00711035 0.150228 1.82642e-17)
(-0.00236982 0.150305 -1.63113e-17)
(0.00236981 0.150305 1.3539e-17)
(0.00711033 0.150227 6.78021e-18)
(0.0118535 0.150071 1.58108e-17)
(0.0166012 0.149836 -3.19982e-18)
(0.0213553 0.149521 -7.77215e-18)
(0.0261176 0.149125 3.52148e-18)
(0.0308897 0.148647 -1.63162e-17)
(0.0356731 0.148086 -4.24886e-18)
(0.0404693 0.147439 -6.73278e-18)
(0.0452794 0.146704 2.2572e-17)
(0.0501045 0.14588 -6.27477e-20)
(0.0549456 0.144962 -3.62586e-17)
(0.0598033 0.143949 -2.46415e-17)
(0.064678 0.142837 -1.66743e-17)
(0.06957 0.141623 2.77867e-17)
(0.0744789 0.140304 -1.58279e-17)
(0.0794044 0.138875 -7.73206e-17)
(0.0843453 0.137334 5.90673e-18)
(0.0892997 0.135674 -4.11671e-17)
(-0.12406 0.129431 1.05163e-18)
(-0.119541 0.131292 -2.22153e-17)
(-0.114315 0.13372 1.18287e-17)
(-0.109093 0.136005 -1.94756e-17)
(-0.103876 0.138147 7.95184e-17)
(-0.0986678 0.140152 1.27064e-17)
(-0.093471 0.142025 -6.81027e-18)
(-0.0882881 0.143769 2.68784e-18)
(-0.0831188 0.145387 -1.04047e-17)
(-0.077965 0.146888 -4.20661e-17)
(-0.0728281 0.148274 6.12805e-17)
(-0.0677086 0.149549 2.10265e-17)
(-0.0626067 0.150717 1.44592e-17)
(-0.0575223 0.151781 -1.05624e-17)
(-0.052455 0.152744 -1.12691e-17)
(-0.0474042 0.15361 5.14171e-17)
(-0.0423688 0.154382 1.58627e-17)
(-0.037348 0.155061 3.95841e-18)
(-0.0323402 0.155651 -7.98859e-18)
(-0.0273442 0.156152 1.20573e-17)
(-0.0223584 0.156568 1.24363e-18)
(-0.0173811 0.156899 1.72246e-17)
(-0.0124104 0.157146 -5.60805e-18)
(-0.00744441 0.15731 1.85513e-17)
(-0.00248117 0.157392 -1.71063e-17)
(0.00248115 0.157392 1.3635e-17)
(0.00744439 0.15731 4.7147e-18)
(0.0124104 0.157146 1.45822e-17)
(0.0173811 0.156899 -2.9174e-18)
(0.0223584 0.156568 -8.80482e-18)
(0.0273443 0.156152 1.05264e-18)
(0.0323402 0.155651 -1.81124e-17)
(0.037348 0.155061 -3.28494e-18)
(0.0423688 0.154382 -5.96048e-18)
(0.0474042 0.15361 2.23565e-17)
(0.052455 0.152744 -4.44101e-19)
(0.0575223 0.151781 -3.75937e-17)
(0.0626067 0.150716 -2.44103e-17)
(0.0677086 0.149549 -1.875e-17)
(0.0728281 0.148274 2.732e-17)
(0.0779651 0.146888 -1.19556e-17)
(0.0831188 0.145387 -7.56785e-17)
(0.0882881 0.143769 7.37489e-18)
(0.093471 0.142025 -4.41497e-17)
(-0.129947 0.135516 3.90613e-18)
(-0.125196 0.137506 -2.32828e-17)
(-0.11973 0.140062 1.123e-17)
(-0.114268 0.142465 -1.85812e-17)
(-0.10881 0.14472 8.08349e-17)
(-0.10336 0.146829 1.08169e-17)
(-0.0979206 0.148799 -6.57963e-18)
(-0.0924951 0.150634 5.09247e-18)
(-0.087083 0.152338 -7.77478e-18)
(-0.0816865 0.153917 -3.99298e-17)
(-0.076307 0.155375 6.46306e-17)
(-0.0709451 0.156717 2.16086e-17)
(-0.0656012 0.157945 1.56256e-17)
(-0.0602751 0.159065 -1.04408e-17)
(-0.0549665 0.160079 -1.17588e-17)
(-0.0496748 0.16099 5.20983e-17)
(-0.044399 0.161802 1.75948e-17)
(-0.0391382 0.162517 5.94943e-18)
(-0.0338908 0.163137 -6.30734e-18)
(-0.0286556 0.163665 1.25079e-17)
(-0.0234309 0.164102 1.54604e-18)
(-0.0182149 0.16445 1.80853e-17)
(-0.0130059 0.16471 -5.37345e-18)
(-0.00780162 0.164883 1.8751e-17)
(-0.00260022 0.164969 -1.78182e-17)
(0.0026002 0.164969 1.37138e-17)
(0.0078016 0.164883 2.76319e-18)
(0.0130058 0.16471 1.34017e-17)
(0.0182149 0.16445 -2.70561e-18)
(0.0234309 0.164102 -9.60746e-18)
(0.0286556 0.163665 -1.36117e-18)
(0.0338909 0.163137 -1.98637e-17)
(0.0391382 0.162517 -2.43052e-18)
(0.044399 0.161802 -4.55351e-18)
(0.0496748 0.16099 2.1286e-17)
(0.0549665 0.160079 -1.58546e-18)
(0.0602751 0.159065 -3.7788e-17)
(0.0656012 0.157945 -2.45298e-17)
(0.0709451 0.156717 -2.05793e-17)
(0.076307 0.155375 2.75701e-17)
(0.0816865 0.153917 -8.99904e-18)
(0.087083 0.152338 -7.40247e-17)
(0.0924951 0.150634 9.22269e-18)
(0.0979206 0.148799 -4.67257e-17)
(-0.136216 0.141995 6.65514e-18)
(-0.131218 0.144126 -2.50911e-17)
(-0.1255 0.146819 1.08187e-17)
(-0.119784 0.149352 -1.68125e-17)
(-0.114071 0.151727 8.16032e-17)
(-0.108364 0.153951 9.24234e-18)
(-0.102668 0.156027 -6.87888e-18)
(-0.096985 0.157962 7.06284e-18)
(-0.091315 0.159757 -5.10139e-18)
(-0.0856603 0.161422 -3.78188e-17)
(-0.0800227 0.16296 6.80999e-17)
(-0.0744027 0.164374 2.22282e-17)
(-0.0688008 0.16567 1.71456e-17)
(-0.0632171 0.166851 -9.38003e-18)
(-0.0576511 0.16792 -1.25403e-17)
(-0.0521023 0.168881 5.24784e-17)
(-0.0465699 0.169737 1.94517e-17)
(-0.0410526 0.17049 8.12619e-18)
(-0.0355492 0.171144 -4.80211e-18)
(-0.0300583 0.171701 1.31398e-17)
(-0.0245781 0.172162 1.55164e-18)
(-0.0191069 0.172529 1.9206e-17)
(-0.0136429 0.172803 -5.10278e-18)
(-0.00818377 0.172985 1.87419e-17)
(-0.0027276 0.173076 -1.83828e-17)
(0.00272758 0.173076 1.36814e-17)
(0.00818375 0.172985 7.40853e-19)
(0.0136428 0.172803 1.22034e-17)
(0.0191069 0.172529 -2.61563e-18)
(0.0245781 0.172162 -1.04536e-17)
(0.0300583 0.171701 -3.50595e-18)
(0.0355492 0.171144 -2.20937e-17)
(0.0410526 0.17049 -2.19728e-18)
(0.0465699 0.169737 -2.61082e-18)
(0.0521023 0.168881 1.97448e-17)
(0.0576511 0.16792 -3.56118e-18)
(0.0632171 0.166851 -3.75628e-17)
(0.0688009 0.16567 -2.41492e-17)
(0.0744027 0.164374 -2.21191e-17)
(0.0800227 0.16296 2.83389e-17)
(0.0856603 0.161422 -6.77224e-18)
(0.091315 0.159757 -7.2299e-17)
(0.096985 0.157962 1.05384e-17)
(0.102668 0.156027 -4.99723e-17)
(-0.142889 0.148891 9.54035e-18)
(-0.137631 0.151175 -2.63038e-17)
(-0.131647 0.154017 1.05238e-17)
(-0.125662 0.156691 -1.62233e-17)
(-0.119679 0.159199 8.27601e-17)
(-0.113702 0.161547 8.43312e-18)
(-0.107733 0.16374 -7.80624e-18)
(-0.101777 0.165783 8.47541e-18)
(-0.0958332 0.167679 -1.99451e-18)
(-0.0899042 0.169438 -3.51185e-17)
(-0.0839919 0.171062 7.09509e-17)
(-0.0780972 0.172557 2.34649e-17)
(-0.0722205 0.173926 1.92115e-17)
(-0.0663621 0.175173 -7.11956e-18)
(-0.0605215 0.176303 -1.28417e-17)
(-0.0546983 0.177319 5.31485e-17)
(-0.0488917 0.178223 2.20481e-17)
(-0.0431005 0.17902 9.96571e-18)
(-0.0373234 0.179711 -3.69147e-18)
(-0.031559 0.180299 1.33986e-17)
(-0.0258056 0.180787 1.76897e-18)
(-0.0200615 0.181174 2.05186e-17)
(-0.0143246 0.181464 -4.76085e-18)
(-0.00859276 0.181656 1.86695e-17)
(-0.00286392 0.181752 -1.86989e-17)
(0.0028639 0.181752 1.3352e-17)