/*--------------------------------*- C++ -*----------------------------------*\
  =========                 |
  \\      /  F ield         | OpenFOAM: The Open Source CFD Toolbox
   \\    /   O peration     | Website:  https://openfoam.org
    \\  /    A nd           | Version:  7
     \\/     M anipulation  |
\*---------------------------------------------------------------------------*/
FoamFile
{
    version     2.0;
    format      ascii;
    class       volScalarField;
    location    "28000";
    object      nut;
}
// * * * * * * * * * * * * * * * * * * * * * * * * * * * * * * * * * * * * * //

dimensions      [0 2 -1 0 0 0 0];

internalField   nonuniform List<scalar> 
1776
(
3.98127e-06
4.0481e-06
4.11158e-06
4.17142e-06
4.22722e-06
4.27861e-06
4.32522e-06
4.36674e-06
4.40288e-06
3.66056e-06
3.72754e-06
3.79135e-06
3.852e-06
3.9092e-06
3.96255e-06
4.0117e-06
4.0563e-06
4.09603e-06
4.13061e-06
3.41566e-06
3.47943e-06
3.54023e-06
3.59805e-06
3.6526e-06
3.7035e-06
3.75041e-06
3.79298e-06
3.83091e-06
3.86393e-06
3.17655e-06
3.23712e-06
3.2949e-06
3.3499e-06
3.40179e-06
3.45024e-06
3.4949e-06
3.53543e-06
3.57156e-06
3.60302e-06
2.94338e-06
3.00076e-06
3.05554e-06
3.10771e-06
3.15695e-06
3.20295e-06
3.24535e-06
3.28385e-06
3.31817e-06
3.34807e-06
2.71635e-06
2.77055e-06
2.82234e-06
2.87167e-06
2.91827e-06
2.96181e-06
3.00196e-06
3.03843e-06
3.07094e-06
3.09927e-06
2.49564e-06
2.54668e-06
2.59547e-06
2.64199e-06
2.68595e-06
2.72703e-06
2.76493e-06
2.79936e-06
2.83007e-06
2.85683e-06
2.28145e-06
2.32934e-06
2.37517e-06
2.41888e-06
2.4602e-06
2.49884e-06
2.53449e-06
2.56689e-06
2.59579e-06
2.62098e-06
2.07402e-06
2.11878e-06
2.16164e-06
2.20256e-06
2.24126e-06
2.27745e-06
2.31086e-06
2.34123e-06
2.36833e-06
2.39196e-06
1.87356e-06
1.91522e-06
1.95515e-06
1.99328e-06
2.02937e-06
2.06313e-06
2.09431e-06
2.12266e-06
2.14797e-06
2.17003e-06
1.68037e-06
1.71895e-06
1.75596e-06
1.79133e-06
1.82482e-06
1.85616e-06
1.88512e-06
1.91146e-06
1.93498e-06
1.95549e-06
1.49472e-06
1.53026e-06
1.56437e-06
1.597e-06
1.62791e-06
1.65685e-06
1.6836e-06
1.70794e-06
1.72968e-06
1.74864e-06
1.31697e-06
1.34949e-06
1.38074e-06
1.41064e-06
1.43899e-06
1.46555e-06
1.4901e-06
1.51246e-06
1.53243e-06
1.54985e-06
1.1475e-06
1.17703e-06
1.20544e-06
1.23265e-06
1.25846e-06
1.28265e-06
1.30503e-06
1.32542e-06
1.34363e-06
1.35953e-06
9.86771e-07
1.01335e-06
1.03895e-06
1.06349e-06
1.08678e-06
1.10863e-06
1.12885e-06
1.14728e-06
1.16376e-06
1.17815e-06
8.35314e-07
8.5898e-07
8.81799e-07
9.03696e-07
9.24497e-07
9.44025e-07
9.62113e-07
9.78606e-07
9.9336e-07
1.00625e-06
6.93778e-07
7.14567e-07
7.34639e-07
7.53923e-07
7.7226e-07
7.89492e-07
8.05466e-07
8.20042e-07
8.3309e-07
8.44495e-07
5.62949e-07
5.80899e-07
5.98259e-07
6.14961e-07
6.30864e-07
6.45824e-07
6.59708e-07
6.72388e-07
6.83747e-07
6.93684e-07
4.43776e-07
4.58932e-07
4.73618e-07
4.87774e-07
5.01274e-07
5.13993e-07
5.25812e-07
5.36619e-07
5.46311e-07
5.54796e-07
3.37381e-07
3.49802e-07
3.61867e-07
3.73523e-07
3.84663e-07
3.95179e-07
4.04967e-07
4.1393e-07
4.21979e-07
4.29034e-07
2.45021e-07
2.54797e-07
2.64322e-07
2.73551e-07
2.82395e-07
2.90764e-07
2.98571e-07
3.05735e-07
3.12179e-07
3.17836e-07
1.67926e-07
1.75207e-07
1.82329e-07
1.89254e-07
1.95913e-07
2.02234e-07
2.08147e-07
2.13587e-07
2.18491e-07
2.22804e-07
1.06973e-07
1.12007e-07
1.16952e-07
1.21782e-07
1.26445e-07
1.30888e-07
1.35058e-07
1.38906e-07
1.42385e-07
1.45452e-07
6.2186e-08
6.53398e-08
6.84527e-08
7.15074e-08
7.44696e-08
7.73034e-08
7.99737e-08
8.24462e-08
8.46885e-08
8.66707e-08
3.2275e-08
3.40159e-08
3.57421e-08
3.74436e-08
3.91008e-08
4.06927e-08
4.21984e-08
4.35975e-08
4.48703e-08
4.59986e-08
1.45572e-08
1.53771e-08
1.6193e-08
1.70003e-08
1.77894e-08
1.855e-08
1.92718e-08
1.99445e-08
2.05581e-08
2.11034e-08
5.49988e-09
5.81641e-09
6.13204e-09
6.44511e-09
6.75185e-09
7.0482e-09
7.33004e-09
7.59323e-09
7.83376e-09
8.04787e-09
1.64263e-09
1.73695e-09
1.83104e-09
1.92444e-09
2.01604e-09
2.1046e-09
2.1889e-09
2.26768e-09
2.33973e-09
2.40391e-09
3.4932e-10
3.68783e-10
3.88168e-10
4.07392e-10
4.26227e-10
4.44426e-10
4.61735e-10
4.77903e-10
4.92682e-10
5.0584e-10
4.27461e-11
4.4958e-11
4.71516e-11
4.93199e-11
5.1438e-11
5.34787e-11
5.54149e-11
5.72191e-11
5.88649e-11
6.03277e-11
1.83847e-12
1.91787e-12
1.99587e-12
2.07239e-12
2.14661e-12
2.21765e-12
2.28465e-12
2.34675e-12
2.40313e-12
2.45302e-12
8.14967e-15
8.35264e-15
8.54723e-15
8.73489e-15
8.91409e-15
9.08316e-15
9.24051e-15
9.3846e-15
9.51401e-15
9.62747e-15
3.66056e-06
3.41566e-06
3.17655e-06
2.94338e-06
2.71635e-06
2.49564e-06
2.28145e-06
2.07401e-06
1.87356e-06
1.68037e-06
1.49472e-06
1.31697e-06
1.1475e-06
9.86771e-07
8.35314e-07
6.93778e-07
5.62949e-07
4.43776e-07
3.37381e-07
2.45021e-07
1.67926e-07
1.06973e-07
6.2186e-08
3.2275e-08
1.45572e-08
5.49988e-09
1.64263e-09
3.4932e-10
4.27461e-11
1.83847e-12
8.14967e-15
3.72754e-06
3.47943e-06
3.23712e-06
3.00076e-06
2.77055e-06
2.54668e-06
2.32935e-06
2.11878e-06
1.91522e-06
1.71895e-06
1.53026e-06
1.34949e-06
1.17703e-06
1.01335e-06
8.5898e-07
7.14567e-07
5.80899e-07
4.58932e-07
3.49802e-07
2.54797e-07
1.75207e-07
1.12007e-07
6.53398e-08
3.40159e-08
1.53771e-08
5.81641e-09
1.73695e-09
3.68783e-10
4.4958e-11
1.91787e-12
8.35264e-15
3.79135e-06
3.54023e-06
3.2949e-06
3.05555e-06
2.82234e-06
2.59548e-06
2.37517e-06
2.16165e-06
1.95515e-06
1.75596e-06
1.56437e-06
1.38074e-06
1.20544e-06
1.03895e-06
8.81799e-07
7.34639e-07
5.98259e-07
4.73618e-07
3.61867e-07
2.64322e-07
1.82329e-07
1.16952e-07
6.84528e-08
3.57421e-08
1.6193e-08
6.13204e-09
1.83104e-09
3.88168e-10
4.71516e-11
1.99587e-12
8.54723e-15
3.85201e-06
3.59806e-06
3.3499e-06
3.10771e-06
2.87168e-06
2.642e-06
2.41888e-06
2.20256e-06
1.99329e-06
1.79133e-06
1.597e-06
1.41064e-06
1.23265e-06
1.06349e-06
9.03696e-07
7.53923e-07
6.14961e-07
4.87774e-07
3.73524e-07
2.73551e-07
1.89255e-07
1.21782e-07
7.15075e-08
3.74437e-08
1.70003e-08
6.44511e-09
1.92445e-09
4.07392e-10
4.932e-11
2.07239e-12
8.7349e-15
3.9092e-06
3.6526e-06
3.40179e-06
3.15696e-06
2.91828e-06
2.68595e-06
2.4602e-06
2.24126e-06
2.02937e-06
1.82482e-06
1.62791e-06
1.43899e-06
1.25846e-06
1.08678e-06
9.24497e-07
7.7226e-07
6.30864e-07
5.01274e-07
3.84663e-07
2.82395e-07
1.95913e-07
1.26445e-07
7.44696e-08
3.91008e-08
1.77894e-08
6.75185e-09
2.01604e-09
4.26227e-10
5.1438e-11
2.14661e-12
8.91409e-15
3.96256e-06
3.70351e-06
3.45024e-06
3.20295e-06
2.96181e-06
2.72703e-06
2.49884e-06
2.27745e-06
2.06313e-06
1.85616e-06
1.65685e-06
1.46555e-06
1.28265e-06
1.10863e-06
9.44025e-07
7.89492e-07
6.45825e-07
5.13994e-07
3.95179e-07
2.90764e-07
2.02234e-07
1.30888e-07
7.73034e-08
4.06927e-08
1.85501e-08
7.04821e-09
2.1046e-09
4.44426e-10
5.34788e-11
2.21765e-12
9.08317e-15
4.0117e-06
3.75041e-06
3.4949e-06
3.24535e-06
3.00196e-06
2.76493e-06
2.53449e-06
2.31086e-06
2.09431e-06
1.88512e-06
1.6836e-06
1.4901e-06
1.30503e-06
1.12885e-06
9.62114e-07
8.05467e-07
6.59708e-07
5.25813e-07
4.04967e-07
2.98571e-07
2.08147e-07
1.35058e-07
7.99737e-08
4.21985e-08
1.92719e-08
7.33004e-09
2.1889e-09
4.61736e-10
5.54149e-11
2.28465e-12
9.24051e-15
4.0563e-06
3.79298e-06
3.53543e-06
3.28385e-06
3.03843e-06
2.79936e-06
2.56689e-06
2.34123e-06
2.12266e-06
1.91146e-06
1.70794e-06
1.51246e-06
1.32542e-06
1.14728e-06
9.78606e-07
8.20042e-07
6.72388e-07
5.36619e-07
4.1393e-07
3.05735e-07
2.13587e-07
1.38906e-07
8.24462e-08
4.35975e-08
1.99445e-08
7.59323e-09
2.26768e-09
4.77903e-10
5.72191e-11
2.34675e-12
9.3846e-15
4.09603e-06
3.83091e-06
3.57156e-06
3.31818e-06
3.07094e-06
2.83007e-06
2.59579e-06
2.36834e-06
2.14797e-06
1.93498e-06
1.72968e-06
1.53243e-06
1.34363e-06
1.16376e-06
9.9336e-07
8.3309e-07
6.83748e-07
5.46311e-07
4.21979e-07
3.12179e-07
2.18491e-07
1.42385e-07
8.46885e-08
4.48703e-08
2.05581e-08
7.83377e-09
2.33973e-09
4.92682e-10
5.88649e-11
2.40313e-12
9.51401e-15
4.13061e-06
3.86394e-06
3.60302e-06
3.34807e-06
3.09927e-06
2.85683e-06
2.62098e-06
2.39196e-06
2.17003e-06
1.95549e-06
1.74864e-06
1.54986e-06
1.35953e-06
1.17815e-06
1.00625e-06
8.44496e-07
6.93684e-07
5.54796e-07
4.29034e-07
3.17836e-07
2.22804e-07
1.45452e-07
8.66707e-08
4.59986e-08
2.11034e-08
8.04786e-09
2.40391e-09
5.0584e-10
6.03276e-11
2.45302e-12
9.62746e-15
4.15981e-06
3.89182e-06
3.62959e-06
3.37331e-06
3.12319e-06
2.87943e-06
2.64226e-06
2.41192e-06
2.18868e-06
1.97283e-06
1.76468e-06
1.5646e-06
1.37299e-06
1.19033e-06
1.01716e-06
8.54157e-07
7.02107e-07
5.61994e-07
4.35025e-07
3.22645e-07
2.26477e-07
1.48069e-07
8.8366e-08
4.69658e-08
2.15718e-08
8.23205e-09
2.45915e-09
5.17163e-10
6.15844e-11
2.49573e-12
9.7238e-15
4.1834e-06
3.91436e-06
3.65107e-06
3.39373e-06
3.14254e-06
2.89772e-06
2.65948e-06
2.42808e-06
2.20377e-06
1.98686e-06
1.77766e-06
1.57653e-06
1.38389e-06
1.20019e-06
1.02601e-06
8.61991e-07
7.08939e-07
5.67836e-07
4.3989e-07
3.26556e-07
2.29468e-07
1.50203e-07
8.97513e-08
4.77578e-08
2.1956e-08
8.38329e-09
2.50454e-09
5.26462e-10
6.26154e-11
2.53066e-12
9.80208e-15
4.20125e-06
3.9314e-06
3.66732e-06
3.40917e-06
3.15718e-06
2.91155e-06
2.67251e-06
2.4403e-06
2.2152e-06
1.99749e-06
1.78749e-06
1.58557e-06
1.39214e-06
1.20767e-06
1.03271e-06
8.67927e-07
7.14117e-07
5.72266e-07
4.43583e-07
3.29526e-07
2.31741e-07
1.51828e-07
9.08075e-08
4.83625e-08
2.22498e-08
8.49905e-09
2.53929e-09
5.33581e-10
6.34038e-11
2.55731e-12
9.8615e-15
4.21321e-06
3.94283e-06
3.67821e-06
3.41953e-06
3.167e-06
2.92083e-06
2.68125e-06
2.4485e-06
2.22286e-06
2.00461e-06
1.79408e-06
1.59164e-06
1.39768e-06
1.21268e-06
1.03721e-06
8.71913e-07
7.17596e-07
5.75243e-07
4.46065e-07
3.31523e-07
2.33272e-07
1.52923e-07
9.15198e-08
4.87709e-08
2.24483e-08
8.57735e-09
2.5628e-09
5.38397e-10
6.39368e-11
2.5753e-12
9.90144e-15
4.21922e-06
3.94857e-06
3.68368e-06
3.42473e-06
3.17192e-06
2.92548e-06
2.68563e-06
2.45262e-06
2.22671e-06
2.00819e-06
1.79739e-06
1.59468e-06
1.40046e-06
1.2152e-06
1.03947e-06
8.73915e-07
7.19344e-07
5.76739e-07
4.47313e-07
3.32528e-07
2.34042e-07
1.53474e-07
9.18785e-08
4.89766e-08
2.25484e-08
8.61684e-09
2.57466e-09
5.40826e-10
6.42055e-11
2.58436e-12
9.92152e-15
4.21922e-06
3.94857e-06
3.68368e-06
3.42473e-06
3.17192e-06
2.92548e-06
2.68563e-06
2.45262e-06
2.22671e-06
2.00819e-06
1.79739e-06
1.59468e-06
1.40046e-06
1.2152e-06
1.03947e-06
8.73915e-07
7.19344e-07
5.76739e-07
4.47313e-07
3.32528e-07
2.34042e-07
1.53474e-07
9.18785e-08
4.89766e-08
2.25484e-08
8.61684e-09
2.57466e-09
5.40826e-10
6.42055e-11
2.58436e-12
9.92152e-15
4.21321e-06
3.94283e-06
3.67821e-06
3.41953e-06
3.167e-06
2.92083e-06
2.68125e-06
2.4485e-06
2.22286e-06
2.00461e-06
1.79408e-06
1.59164e-06
1.39768e-06
1.21268e-06
1.03721e-06
8.71913e-07
7.17596e-07
5.75243e-07
4.46065e-07
3.31523e-07
2.33272e-07
1.52923e-07
9.15198e-08
4.87708e-08
2.24483e-08
8.57735e-09
2.5628e-09
5.38397e-10
6.39368e-11
2.5753e-12
9.90144e-15
4.20125e-06
3.9314e-06
3.66731e-06
3.40917e-06
3.15718e-06
2.91155e-06
2.67251e-06
2.4403e-06
2.2152e-06
1.99748e-06
1.78749e-06
1.58557e-06
1.39214e-06
1.20767e-06
1.03271e-06
8.67926e-07
7.14117e-07
5.72266e-07
4.43583e-07
3.29525e-07
2.31741e-07
1.51828e-07
9.08074e-08
4.83625e-08
2.22498e-08
8.49905e-09
2.53929e-09
5.33581e-10
6.34038e-11
2.55731e-12
9.86149e-15
4.1834e-06
3.91436e-06
3.65107e-06
3.39373e-06
3.14254e-06
2.89772e-06
2.65948e-06
2.42808e-06
2.20377e-06
1.98686e-06
1.77766e-06
1.57653e-06
1.38389e-06
1.20019e-06
1.02601e-06
8.61991e-07
7.08938e-07
5.67836e-07
4.3989e-07
3.26556e-07
2.29468e-07
1.50203e-07
8.97513e-08
4.77578e-08
2.1956e-08
8.38329e-09
2.50454e-09
5.26462e-10
6.26154e-11
2.53066e-12
9.80208e-15
4.1598e-06
3.89182e-06
3.62959e-06
3.37331e-06
3.12319e-06
2.87943e-06
2.64226e-06
2.41192e-06
2.18868e-06
1.97283e-06
1.76468e-06
1.5646e-06
1.37299e-06
1.19033e-06
1.01716e-06
8.54157e-07
7.02106e-07
5.61994e-07
4.35024e-07
3.22645e-07
2.26477e-07
1.48069e-07
8.8366e-08
4.69658e-08
2.15718e-08
8.23204e-09
2.45915e-09
5.17162e-10
6.15844e-11
2.49573e-12
9.7238e-15
4.13061e-06
3.86393e-06
3.60302e-06
3.34807e-06
3.09927e-06
2.85683e-06
2.62098e-06
2.39196e-06
2.17003e-06
1.95549e-06
1.74864e-06
1.54985e-06
1.35953e-06
1.17815e-06
1.00625e-06
8.44495e-07
6.93684e-07
5.54796e-07
4.29034e-07
3.17836e-07
2.22804e-07
1.45452e-07
8.66706e-08
4.59985e-08
2.11034e-08
8.04785e-09
2.40391e-09
5.0584e-10
6.03276e-11
2.45302e-12
9.62745e-15
4.09603e-06
3.83091e-06
3.57156e-06
3.31818e-06
3.07094e-06
2.83007e-06
2.59579e-06
2.36834e-06
2.14797e-06
1.93498e-06
1.72968e-06
1.53243e-06
1.34363e-06
1.16376e-06
9.9336e-07
8.3309e-07
6.83748e-07
5.46311e-07
4.21979e-07
3.12179e-07
2.18491e-07
1.42385e-07
8.46885e-08
4.48703e-08
2.05581e-08
7.83376e-09
2.33973e-09
4.92682e-10
5.88649e-11
2.40313e-12
9.51401e-15
4.0563e-06
3.79298e-06
3.53543e-06
3.28385e-06
3.03843e-06
2.79936e-06
2.56689e-06
2.34123e-06
2.12266e-06
1.91146e-06
1.70794e-06
1.51246e-06
1.32542e-06
1.14728e-06
9.78606e-07
8.20042e-07
6.72388e-07
5.36619e-07
4.1393e-07
3.05735e-07
2.13587e-07
1.38906e-07
8.24462e-08
4.35975e-08
1.99445e-08
7.59323e-09
2.26768e-09
4.77903e-10
5.72191e-11
2.34675e-12
9.3846e-15
4.01171e-06
3.75041e-06
3.4949e-06
3.24535e-06
3.00196e-06
2.76493e-06
2.53449e-06
2.31086e-06
2.09431e-06
1.88512e-06
1.6836e-06
1.4901e-06
1.30503e-06
1.12885e-06
9.62113e-07
8.05466e-07
6.59708e-07
5.25813e-07
4.04967e-07
2.98571e-07
2.08147e-07
1.35058e-07
7.99737e-08
4.21985e-08
1.92718e-08
7.33004e-09
2.1889e-09
4.61736e-10
5.54149e-11
2.28465e-12
9.24051e-15
3.96255e-06
3.7035e-06
3.45024e-06
3.20295e-06
2.96181e-06
2.72703e-06
2.49884e-06
2.27745e-06
2.06313e-06
1.85616e-06
1.65685e-06
1.46555e-06
1.28265e-06
1.10863e-06
9.44025e-07
7.89492e-07
6.45825e-07
5.13993e-07
3.95179e-07
2.90764e-07
2.02234e-07
1.30888e-07
7.73034e-08
4.06927e-08
1.855e-08
7.0482e-09
2.1046e-09
4.44426e-10
5.34787e-11
2.21765e-12
9.08317e-15
3.9092e-06
3.6526e-06
3.40179e-06
3.15695e-06
2.91827e-06
2.68595e-06
2.4602e-06
2.24126e-06
2.02937e-06
1.82482e-06
1.62791e-06
1.43899e-06
1.25846e-06
1.08678e-06
9.24497e-07
7.7226e-07
6.30864e-07
5.01274e-07
3.84663e-07
2.82395e-07
1.95913e-07
1.26445e-07
7.44696e-08
3.91008e-08
1.77894e-08
6.75185e-09
2.01604e-09
4.26227e-10
5.1438e-11
2.14661e-12
8.91409e-15
3.85201e-06
3.59805e-06
3.3499e-06
3.10771e-06
2.87168e-06
2.642e-06
2.41888e-06
2.20256e-06
1.99329e-06
1.79133e-06
1.597e-06
1.41064e-06
1.23265e-06
1.06349e-06
9.03696e-07
7.53923e-07
6.14961e-07
4.87774e-07
3.73523e-07
2.73551e-07
1.89254e-07
1.21782e-07
7.15075e-08
3.74437e-08
1.70003e-08
6.44511e-09
1.92444e-09
4.07392e-10
4.932e-11
2.07239e-12
8.73489e-15
3.79135e-06
3.54023e-06
3.2949e-06
3.05554e-06
2.82234e-06
2.59548e-06
2.37517e-06
2.16164e-06
1.95515e-06
1.75596e-06
1.56437e-06
1.38074e-06
1.20544e-06
1.03895e-06
8.81799e-07
7.34639e-07
5.98259e-07
4.73618e-07
3.61867e-07
2.64322e-07
1.82329e-07
1.16952e-07
6.84528e-08
3.57421e-08
1.6193e-08
6.13204e-09
1.83104e-09
3.88168e-10
4.71516e-11
1.99587e-12
8.54723e-15
3.72754e-06
3.47943e-06
3.23712e-06
3.00077e-06
2.77055e-06
2.54668e-06
2.32935e-06
2.11878e-06
1.91522e-06
1.71895e-06
1.53026e-06
1.34949e-06
1.17703e-06
1.01335e-06
8.5898e-07
7.14567e-07
5.80899e-07
4.58932e-07
3.49802e-07
2.54797e-07
1.75207e-07
1.12007e-07
6.53398e-08
3.40159e-08
1.53771e-08
5.81641e-09
1.73695e-09
3.68783e-10
4.4958e-11
1.91787e-12
8.35264e-15
3.66056e-06
3.41566e-06
3.17655e-06
2.94338e-06
2.71635e-06
2.49564e-06
2.28146e-06
2.07402e-06
1.87356e-06
1.68037e-06
1.49472e-06
1.31697e-06
1.1475e-06
9.86771e-07
8.35314e-07
6.93778e-07
5.62949e-07
4.43776e-07
3.37381e-07
2.45021e-07
1.67926e-07
1.06973e-07
6.2186e-08
3.2275e-08
1.45572e-08
5.49988e-09
1.64263e-09
3.4932e-10
4.27461e-11
1.83847e-12
8.14967e-15
3.66056e-06
3.41566e-06
3.17655e-06
2.94338e-06
2.71635e-06
2.49564e-06
2.28145e-06
2.07401e-06
1.87356e-06
1.68037e-06
1.49472e-06
1.31697e-06
1.1475e-06
9.86771e-07
8.35314e-07
6.93778e-07
5.62949e-07
4.43776e-07
3.37381e-07
2.45021e-07
1.67926e-07
1.06973e-07
6.2186e-08
3.2275e-08
1.45572e-08
5.49988e-09
1.64263e-09
3.4932e-10
4.27461e-11
1.83847e-12
8.14967e-15
3.72754e-06
3.47943e-06
3.23712e-06
3.00076e-06
2.77055e-06
2.54668e-06
2.32934e-06
2.11878e-06
1.91522e-06
1.71895e-06
1.53026e-06
1.34949e-06
1.17703e-06
1.01335e-06
8.5898e-07
7.14567e-07
5.80899e-07
4.58932e-07
3.49802e-07
2.54797e-07
1.75207e-07
1.12007e-07
6.53398e-08
3.40159e-08
1.53771e-08
5.81641e-09
1.73695e-09
3.68783e-10
4.4958e-11
1.91787e-12
8.35264e-15
3.79135e-06
3.54023e-06
3.2949e-06
3.05555e-06
2.82234e-06
2.59548e-06
2.37517e-06
2.16165e-06
1.95515e-06
1.75596e-06
1.56437e-06
1.38074e-06
1.20544e-06
1.03895e-06
8.81799e-07
7.34639e-07
5.98259e-07
4.73618e-07
3.61867e-07
2.64322e-07
1.82329e-07
1.16952e-07
6.84528e-08
3.57421e-08
1.6193e-08
6.13204e-09
1.83104e-09
3.88168e-10
4.71516e-11
1.99587e-12
8.54723e-15
3.85201e-06
3.59805e-06
3.3499e-06
3.10771e-06
2.87168e-06
2.642e-06
2.41888e-06
2.20256e-06
1.99329e-06
1.79133e-06
1.597e-06
1.41064e-06
1.23265e-06
1.06349e-06
9.03696e-07
7.53923e-07
6.14961e-07
4.87774e-07
3.73524e-07
2.73551e-07
1.89254e-07
1.21782e-07
7.15075e-08
3.74437e-08
1.70003e-08
6.44511e-09
1.92445e-09
4.07392e-10
4.932e-11
2.07239e-12
8.73489e-15
3.9092e-06
3.6526e-06
3.40179e-06
3.15696e-06
2.91828e-06
2.68595e-06
2.4602e-06
2.24126e-06
2.02937e-06
1.82482e-06
1.62791e-06
1.43899e-06
1.25846e-06
1.08678e-06
9.24497e-07
7.7226e-07
6.30864e-07
5.01274e-07
3.84663e-07
2.82395e-07
1.95913e-07
1.26445e-07
7.44696e-08
3.91008e-08
1.77894e-08
6.75185e-09
2.01604e-09
4.26227e-10
5.1438e-11
2.14661e-12
8.91409e-15
3.96256e-06
3.70351e-06
3.45024e-06
3.20295e-06
2.96181e-06
2.72703e-06
2.49884e-06
2.27745e-06
2.06313e-06
1.85616e-06
1.65685e-06
1.46555e-06
1.28265e-06
1.10863e-06
9.44025e-07
7.89492e-07
6.45825e-07
5.13993e-07
3.95179e-07
2.90764e-07
2.02234e-07
1.30888e-07
7.73034e-08
4.06927e-08
1.85501e-08
7.04821e-09
2.1046e-09
4.44426e-10
5.34788e-11
2.21765e-12
9.08317e-15
4.0117e-06
3.75041e-06
3.4949e-06
3.24535e-06
3.00196e-06
2.76493e-06
2.53449e-06
2.31086e-06
2.09431e-06
1.88512e-06
1.6836e-06
1.4901e-06
1.30503e-06
1.12885e-06
9.62113e-07
8.05467e-07
6.59708e-07
5.25813e-07
4.04967e-07
2.98571e-07
2.08147e-07
1.35058e-07
7.99737e-08
4.21985e-08
1.92718e-08
7.33004e-09
2.1889e-09
4.61736e-10
5.54149e-11
2.28465e-12
9.24051e-15
4.0563e-06
3.79298e-06
3.53543e-06
3.28385e-06
3.03843e-06
2.79936e-06
2.56689e-06
2.34123e-06
2.12266e-06
1.91146e-06
1.70794e-06
1.51246e-06
1.32542e-06
1.14728e-06
9.78606e-07
8.20042e-07
6.72388e-07
5.36619e-07
4.1393e-07
3.05735e-07
2.13587e-07
1.38906e-07
8.24462e-08
4.35975e-08
1.99445e-08
7.59323e-09
2.26768e-09
4.77903e-10
5.72191e-11
2.34675e-12
9.3846e-15
4.09603e-06
3.83091e-06
3.57156e-06
3.31818e-06
3.07094e-06
2.83007e-06
2.59579e-06
2.36834e-06
2.14797e-06
1.93498e-06
1.72968e-06
1.53243e-06
1.34363e-06
1.16376e-06
9.9336e-07
8.3309e-07
6.83748e-07
5.46311e-07
4.21979e-07
3.12179e-07
2.18491e-07
1.42385e-07
8.46885e-08
4.48703e-08
2.05581e-08
7.83377e-09
2.33973e-09
4.92682e-10
5.88649e-11
2.40313e-12
9.51401e-15
4.13061e-06
3.86394e-06
3.60302e-06
3.34807e-06
3.09927e-06
2.85683e-06
2.62098e-06
2.39196e-06
2.17003e-06
1.95549e-06
1.74864e-06
1.54986e-06
1.35953e-06
1.17815e-06
1.00625e-06
8.44496e-07
6.93684e-07
5.54796e-07
4.29034e-07
3.17836e-07
2.22804e-07
1.45452e-07
8.66707e-08
4.59986e-08
2.11034e-08
8.04786e-09
2.40391e-09
5.0584e-10
6.03276e-11
2.45302e-12
9.62746e-15
4.15981e-06
3.89182e-06
3.62959e-06
3.37331e-06
3.12319e-06
2.87943e-06
2.64226e-06
2.41192e-06
2.18868e-06
1.97283e-06
1.76468e-06
1.5646e-06
1.37299e-06
1.19033e-06
1.01716e-06
8.54157e-07
7.02107e-07
5.61994e-07
4.35025e-07
3.22645e-07
2.26477e-07
1.48069e-07
8.8366e-08
4.69658e-08
2.15718e-08
8.23205e-09
2.45915e-09
5.17163e-10
6.15844e-11
2.49573e-12
9.7238e-15
4.1834e-06
3.91436e-06
3.65107e-06
3.39373e-06
3.14254e-06
2.89772e-06
2.65948e-06
2.42808e-06
2.20377e-06
1.98686e-06
1.77766e-06
1.57653e-06
1.38389e-06
1.20019e-06
1.02601e-06
8.61991e-07
7.08939e-07
5.67836e-07
4.3989e-07
3.26556e-07
2.29468e-07
1.50203e-07
8.97513e-08
4.77578e-08
2.1956e-08
8.38329e-09
2.50454e-09
5.26462e-10
6.26154e-11
2.53066e-12
9.80208e-15
4.20125e-06
3.9314e-06
3.66732e-06
3.40917e-06
3.15718e-06
2.91155e-06
2.67251e-06
2.4403e-06
2.2152e-06
1.99749e-06
1.78749e-06
1.58557e-06
1.39214e-06
1.20767e-06
1.03271e-06
8.67927e-07
7.14117e-07
5.72266e-07
4.43583e-07
3.29526e-07
2.31741e-07
1.51828e-07
9.08075e-08
4.83625e-08
2.22498e-08
8.49905e-09
2.53929e-09
5.33581e-10
6.34038e-11
2.55731e-12
9.8615e-15
4.21321e-06
3.94283e-06
3.67821e-06
3.41953e-06
3.167e-06
2.92083e-06
2.68125e-06
2.4485e-06
2.22286e-06
2.00461e-06
1.79408e-06
1.59164e-06
1.39768e-06
1.21268e-06
1.03721e-06
8.71913e-07
7.17596e-07
5.75243e-07
4.46065e-07
3.31523e-07
2.33272e-07
1.52923e-07
9.15199e-08
4.87709e-08
2.24483e-08
8.57735e-09
2.5628e-09
5.38397e-10
6.39368e-11
2.5753e-12
9.90145e-15
4.21922e-06
3.94857e-06
3.68368e-06
3.42473e-06
3.17192e-06
2.92548e-06
2.68563e-06
2.45262e-06
2.22671e-06
2.00819e-06
1.79739e-06
1.59468e-06
1.40046e-06
1.2152e-06
1.03947e-06
8.73915e-07
7.19344e-07
5.76739e-07
4.47313e-07
3.32528e-07
2.34042e-07
1.53474e-07
9.18785e-08
4.89766e-08
2.25484e-08
8.61684e-09
2.57466e-09
5.40826e-10
6.42055e-11
2.58436e-12
9.92152e-15
4.21922e-06
3.94857e-06
3.68368e-06
3.42473e-06
3.17192e-06
2.92548e-06
2.68563e-06
2.45262e-06
2.22671e-06
2.00819e-06
1.79739e-06
1.59468e-06
1.40046e-06
1.2152e-06
1.03947e-06
8.73915e-07
7.19344e-07
5.76739e-07
4.47313e-07
3.32528e-07
2.34042e-07
1.53474e-07
9.18785e-08
4.89766e-08
2.25484e-08
8.61684e-09
2.57466e-09
5.40826e-10
6.42055e-11
2.58436e-12
9.92152e-15
4.21321e-06
3.94283e-06
3.67821e-06
3.41953e-06
3.167e-06
2.92083e-06
2.68125e-06
2.4485e-06
2.22286e-06
2.00461e-06
1.79408e-06
1.59164e-06
1.39768e-06
1.21268e-06
1.03721e-06
8.71913e-07
7.17596e-07
5.75243e-07
4.46065e-07
3.31523e-07
2.33272e-07
1.52923e-07
9.15198e-08
4.87708e-08
2.24483e-08
8.57735e-09
2.5628e-09
5.38397e-10
6.39368e-11
2.5753e-12
9.90144e-15
)
;

boundaryField
{
    inlet
    {
        type            cyclic;
    }
    outlet
    {
        type            cyclic;
    }
    wall
    {
        type            fixedValue;
        value           uniform 1e-30;
    }
    procBoundary0to1
    {
        type            processor;
        value           nonuniform List<scalar> 
59
(
4.24048e-06
4.31031e-06
4.37662e-06
4.43909e-06
4.49733e-06
4.55095e-06
4.59958e-06
4.64288e-06
4.68056e-06
3.91109e-06
3.91109e-06
3.91109e-06
3.98127e-06
4.0481e-06
4.11158e-06
4.17142e-06
4.22722e-06
4.27861e-06
4.32522e-06
4.36674e-06
4.40288e-06
4.43338e-06
4.45803e-06
4.47667e-06
4.48916e-06
4.49543e-06
4.49543e-06
4.48916e-06
4.47667e-06
4.45803e-06
4.43338e-06
4.40288e-06
4.36674e-06
4.32522e-06
4.27861e-06
4.22722e-06
4.17142e-06
4.11158e-06
4.0481e-06
3.98127e-06
3.91109e-06
3.91109e-06
3.98127e-06
4.0481e-06
4.11158e-06
4.17142e-06
4.22722e-06
4.27861e-06
4.32522e-06
4.36674e-06
4.40288e-06
4.43338e-06
4.45803e-06
4.47667e-06
4.48916e-06
4.49543e-06
4.49543e-06
4.48916e-06
4.20125e-06
)
;
    }
    procBoundary0to2
    {
        type            processor;
        value           nonuniform List<scalar> 
30
(
3.9314e-06
3.66732e-06
3.40917e-06
3.15718e-06
2.91155e-06
2.67251e-06
2.4403e-06
2.2152e-06
1.99748e-06
1.78749e-06
1.58557e-06
1.39214e-06
1.20767e-06
1.03271e-06
8.67927e-07
7.14117e-07
5.72266e-07
4.43583e-07
3.29526e-07
2.31741e-07
1.51828e-07
9.08075e-08
4.83625e-08
2.22498e-08
8.49906e-09
2.53929e-09
5.33582e-10
6.34038e-11
2.55731e-12
9.8615e-15
)
;
    }
    procBoundary0to3
    {
        type            processor;
        value           nonuniform List<scalar> 
32
(
4.43337e-06
4.1598e-06
3.89181e-06
3.62959e-06
3.37331e-06
3.12319e-06
2.87943e-06
2.64226e-06
2.41192e-06
2.18868e-06
1.97283e-06
1.76468e-06
1.5646e-06
1.37299e-06
1.19033e-06
1.01716e-06
8.54157e-07
7.02106e-07
5.61994e-07
4.35024e-07
3.22645e-07
2.26477e-07
1.48069e-07
8.83659e-08
4.69658e-08
2.15718e-08
8.23203e-09
2.45915e-09
5.17162e-10
6.15843e-11
2.49572e-12
9.72379e-15
)
;
    }
}


// ************************************************************************* //
