/*--------------------------------*- C++ -*----------------------------------*\
  =========                 |
  \\      /  F ield         | OpenFOAM: The Open Source CFD Toolbox
   \\    /   O peration     | Website:  https://openfoam.org
    \\  /    A nd           | Version:  7
     \\/     M anipulation  |
\*---------------------------------------------------------------------------*/
FoamFile
{
    version     2.0;
    format      ascii;
    class       surfaceScalarField;
    location    "12000";
    object      phi;
}
// * * * * * * * * * * * * * * * * * * * * * * * * * * * * * * * * * * * * * //

dimensions      [0 3 -1 0 0 0 0];

internalField   nonuniform List<scalar> 
28140
(
3.15516e-23
1.07822e-22
-8.0244e-23
-4.4344e-23
-1.58952e-23
5.26384e-23
-4.01244e-24
-4.05742e-23
6.10573e-23
-2.7188e-23
-4.60405e-23
4.5108e-23
-3.20899e-23
-2.6666e-23
4.40119e-23
-4.35216e-23
-7.9061e-23
3.3709e-23
-7.79157e-23
-9.50173e-23
2.56388e-23
-1.00845e-22
-1.56406e-22
3.73702e-23
-1.07149e-22
-1.55696e-22
6.01407e-23
-6.42168e-23
-6.62002e-23
7.02007e-23
-3.16858e-23
-6.19061e-23
-5.94245e-24
-2.47449e-23
-9.06375e-23
6.33383e-24
2.77779e-24
-1.0204e-22
1.32322e-23
4.61661e-23
-1.79675e-22
1.17436e-23
1.5971e-23
-1.75915e-22
1.89748e-23
-4.19007e-23
-1.1573e-22
-1.47386e-23
-3.86419e-23
-1.04283e-22
1.60263e-23
-7.62137e-24
-5.08541e-23
1.59966e-23
-4.74523e-23
-1.70918e-22
1.15915e-23
-9.41759e-23
-1.12771e-22
8.03255e-23
-1.02048e-22
-1.50478e-22
4.69693e-23
-1.15414e-22
-1.15643e-22
9.15729e-23
-1.06382e-22
-2.00146e-22
6.10424e-23
-1.09296e-22
9.87516e-24
6.9485e-23
-3.96901e-23
-8.04357e-23
2.00945e-24
-4.53406e-23
-6.8164e-23
-1.31633e-23
4.98882e-24
-2.98885e-23
-2.22899e-23
-1.85481e-23
-8.48398e-23
-4.25731e-23
-6.69929e-23
-1.11631e-24
-3.46757e-24
-9.87967e-23
3.54454e-23
1.91854e-23
-4.33914e-23
-3.03853e-23
1.16134e-22
-1.09903e-22
2.1065e-23
1.33105e-22
-2.80695e-23
1.14218e-22
-4.37154e-23
9.2972e-23
-3.4402e-23
7.99668e-23
-7.13853e-23
1.01057e-22
-1.09387e-22
7.75019e-23
-9.74162e-23
5.19683e-23
-1.02126e-22
1.05437e-22
-1.97864e-22
1.56392e-22
-3.0924e-23
1.30835e-22
-4.2298e-23
-1.55734e-23
-9.21911e-23
3.14831e-23
-1.86841e-22
6.98963e-23
-2.48956e-22
6.36576e-23
-6.08592e-23
1.09924e-22
-7.21878e-23
7.07663e-23
-5.49307e-23
4.01239e-23
-4.48801e-23
2.40688e-23
-1.53198e-22
-1.79333e-23
-4.43054e-23
-2.62062e-23
-1.56605e-22
-5.64543e-23
-1.16376e-22
3.81174e-23
-7.76271e-23
3.69031e-23
-1.06775e-22
3.65013e-23
-7.19309e-23
7.11737e-23
-8.23246e-23
1.03788e-22
6.22157e-24
1.03097e-22
1.10245e-22
2.06618e-23
-2.68574e-24
2.10129e-23
7.04574e-23
1.48205e-22
-1.02567e-22
6.33054e-23
2.34472e-22
8.73191e-24
2.61258e-22
-4.86938e-23
1.7812e-22
3.77164e-23
1.80189e-22
-6.77037e-23
1.04309e-22
-8.85723e-23
1.1068e-22
2.2273e-23
2.19855e-22
-8.95769e-24
1.57674e-22
-2.05603e-22
7.06754e-23
-2.2271e-22
1.36363e-22
4.991e-23
2.2014e-22
-1.93013e-23
8.08412e-23
-1.97712e-22
-2.01467e-23
-1.9116e-22
3.08065e-23
-1.24501e-22
7.36794e-23
-1.21259e-22
7.02636e-23
-1.04459e-22
4.95043e-23
-1.11565e-22
3.7516e-24
-1.76453e-22
6.73079e-23
-8.52008e-23
1.99992e-22
-6.929e-23
1.97811e-22
-1.08898e-22
2.53152e-23
-5.08547e-23
-1.4431e-23
-5.95975e-23
3.28133e-23
-3.11786e-23
4.4674e-23
-1.1464e-22
4.745e-23
-7.15094e-23
4.67474e-23
6.52605e-23
8.62612e-23
3.15473e-23
2.49817e-23
1.81858e-22
2.89622e-22
-7.61622e-23
1.90368e-22
2.49017e-22
-3.62408e-23
1.66322e-22
3.39618e-23
1.54627e-22
-6.63502e-24
1.66712e-22
-6.97163e-23
1.51591e-22
5.88061e-23
2.6377e-22
-2.57006e-23
2.71961e-22
-4.55457e-23
1.97609e-22
-1.2289e-22
1.50015e-22
-1.32167e-22
1.48829e-22
-9.42281e-23
1.40618e-22
-1.21764e-22
6.68552e-23
-1.48473e-22
9.75827e-24
-1.56232e-22
1.66001e-23
-1.32274e-22
5.32239e-23
-1.33125e-22
4.67486e-23
-1.45318e-22
4.81397e-23
-4.46144e-23
8.39591e-23
-5.12718e-23
5.82014e-23
-1.36778e-22
3.09538e-23
-2.68764e-22
2.65051e-23
-1.11844e-22
1.06023e-22
2.24391e-23
9.4996e-23
-5.52021e-23
7.98688e-23
-4.77071e-23
5.83703e-23
-1.18142e-22
8.95725e-23
-1.4868e-23
1.10346e-22
1.19376e-23
3.31848e-23
3.18403e-23
5.23878e-24
1.46435e-22
2.55892e-22
-1.12096e-22
1.28598e-22
2.50781e-22
-1.36964e-23
2.16899e-22
6.89387e-23
3.33993e-22
-2.63637e-23
2.57527e-22
1.64681e-23
1.19806e-22
8.21711e-23
2.01224e-22
-1.01003e-22
1.72944e-22
-8.9689e-23
1.66476e-22
-1.21641e-22
1.89539e-22
-1.32817e-22
1.77316e-22
-1.7105e-22
1.59296e-22
-1.77481e-22
5.70736e-23
-1.53069e-22
1.00994e-23
-1.29199e-22
-2.70965e-23
-1.30239e-22
5.33655e-23
-1.33865e-22
5.2243e-23
-1.05222e-22
4.74919e-23
-5.972e-23
1.31439e-23
-6.52899e-23
3.81086e-23
-1.38081e-22
5.96949e-23
-1.6531e-22
4.71146e-23
-9.01035e-23
4.79374e-23
5.33053e-23
-4.5701e-23
-5.77211e-23
-8.71793e-23
-1.20665e-23
-4.46547e-24
-8.66277e-23
3.33743e-24
-4.92873e-23
5.24877e-23
1.55363e-23
6.70511e-23
6.09076e-23
-2.3746e-23
9.85316e-23
2.18185e-22
-1.00961e-22
1.14678e-22
2.09586e-22
7.95434e-23
2.13461e-22
1.01469e-23
1.24692e-22
-1.3324e-22
8.98916e-23
5.11807e-23
2.34299e-22
3.42845e-23
2.22617e-22
-7.50195e-23
2.97879e-22
-9.39611e-23
2.08988e-22
-1.09281e-22
1.96044e-22
-1.43877e-22
1.9676e-22
-2.60695e-22
4.04369e-23
-2.18054e-22
2.91308e-23
-1.83976e-22
8.15986e-24
-5.79083e-23
1.29008e-22
-1.36066e-22
1.2925e-22
-1.37228e-22
6.07949e-23
-1.37865e-22
4.89354e-23
-4.26235e-23
1.15735e-22
-7.94815e-23
8.03912e-23
-1.37043e-22
1.29669e-22
-1.64052e-22
7.59691e-23
-1.18654e-22
2.01758e-23
5.84747e-23
8.40288e-23
2.09014e-23
-5.94334e-23
-4.16184e-25
-1.72558e-23
-3.35334e-23
1.43551e-23
-2.77788e-23
7.27699e-23
-1.53396e-23
5.10053e-23
9.05678e-23
-5.59684e-23
5.36252e-23
1.87436e-22
-7.01637e-23
1.23558e-22
2.30161e-22
5.6389e-23
2.83439e-22
-3.33586e-25
1.91843e-22
-8.36755e-23
1.33262e-22
2.27975e-23
9.03189e-23
1.18462e-22
1.10874e-22
-1.40249e-22
4.68498e-23
-9.03869e-23
1.50799e-22
-1.21857e-22
2.6e-22
-2.66751e-22
7.61366e-23
-2.55772e-22
5.64894e-23
-2.42586e-22
8.02769e-23
-8.83744e-23
1.71344e-22
-6.25077e-23
1.05129e-22
-1.87196e-22
4.05274e-24
-1.48693e-22
-1.39653e-23
-7.36117e-23
-5.07606e-23
-5.48973e-23
6.22371e-23
-2.81315e-23
7.12825e-23
-2.04819e-22
4.21457e-23
-2.04799e-22
6.97895e-23
-6.7679e-23
1.47326e-22
-5.85928e-23
7.52283e-23
6.60708e-23
8.96224e-23
4.23191e-23
-3.36924e-23
-1.27737e-23
4.61286e-23
-5.05375e-23
1.38161e-22
-3.00426e-23
1.23972e-22
1.251e-22
-6.01567e-23
4.73292e-23
2.02003e-22
-7.33891e-23
1.69937e-22
3.40253e-22
-7.65277e-25
1.78695e-22
-5.15456e-24
1.74812e-22
-9.09154e-23
1.11019e-22
-1.00862e-23
2.43198e-22
8.48669e-23
2.37661e-22
-4.58291e-23
1.30335e-22
-1.09796e-23
1.40831e-22
-2.3717e-22
-8.60729e-24
-2.69638e-22
1.36996e-22
-2.51426e-22
7.35042e-23
-1.79235e-22
6.86046e-23
-1.28151e-22
1.53298e-22
-1.25585e-22
1.24458e-22
-2.01868e-22
7.26399e-23
-1.7601e-22
1.70474e-22
3.14332e-24
2.24222e-22
-3.71011e-23
1.37292e-22
-3.97354e-23
6.7819e-23
-1.88888e-22
-3.30094e-23
-1.57236e-22
6.92562e-23
-9.40386e-23
1.0651e-22
-1.83518e-23
2.22729e-23
-1.97307e-23
5.27582e-23
8.86272e-23
1.32739e-22
2.84962e-23
1.00226e-22
-5.36954e-23
-7.04722e-24
-5.47121e-23
1.12729e-22
1.57744e-22
-8.28361e-23
1.15035e-22
1.4733e-22
-7.32492e-23
4.0256e-23
1.09334e-22
4.01218e-23
1.58687e-22
-1.97038e-23
1.69446e-22
-2.72775e-23
7.11125e-23
-1.26773e-23
2.10658e-22
3.77519e-23
1.54306e-22
-2.60118e-23
1.58176e-22
-1.02469e-22
1.85434e-22
-1.404e-22
1.35514e-23
-2.93053e-22
-2.0731e-23
-2.54837e-22
1.4364e-22
-1.23875e-22
2.44983e-22
-1.39974e-22
1.78976e-22
-1.50454e-22
1.04644e-22
-1.56929e-22
9.11268e-23
-1.36095e-22
1.56218e-22
-6.27816e-23
1.33792e-22
-5.70921e-23
1.61985e-22
-1.05886e-22
5.52019e-23
-1.25889e-22
-5.55636e-23
-1.27689e-22
6.26947e-23
-1.32421e-22
9.20092e-23
2.87638e-23
1.09776e-22
3.54194e-23
1.84559e-23
7.63136e-23
-1.4031e-22
-2.96151e-23
-3.98393e-23
3.07616e-23
-2.5046e-23
-7.51646e-23
-4.75975e-25
2.09194e-22
-1.06231e-22
6.92462e-23
1.17977e-22
-4.8287e-23
5.35745e-23
9.45661e-23
3.85481e-23
1.20823e-22
-6.93265e-23
-4.22102e-23
7.35228e-24
-1.15558e-23
-2.68258e-23
1.92665e-22
1.6732e-23
1.14877e-22
-3.91304e-23
-2.15011e-23
-1.85703e-22
-1.03904e-22
-1.40348e-22
1.51207e-23
-1.987e-22
4.50863e-23
-2.0497e-22
1.56219e-22
-1.59781e-22
2.35733e-22
-1.80618e-22
1.60027e-22
-1.46535e-22
6.49552e-23
-1.24808e-22
6.72794e-23
-1.38405e-22
1.36061e-22
-5.4413e-23
2.37079e-23
-8.91675e-23
1.46132e-22
-1.6875e-22
6.95867e-23
-6.2966e-23
2.80592e-23
-7.28034e-23
6.07279e-23
-1.01072e-22
8.00757e-23
-2.56186e-23
2.56283e-22
-9.65648e-24
3.25733e-23
1.41857e-22
-1.57428e-23
5.17038e-24
-1.17281e-22
2.75798e-23
1.47498e-23
8.59043e-24
6.08884e-23
1.63776e-22
-1.7485e-22
1.42034e-23
-4.68102e-23
-7.19355e-23
8.61358e-23
9.86884e-24
-3.37842e-23
-2.27869e-23
-6.51974e-23
-2.54217e-23
8.0467e-23
1.03638e-22
-5.9366e-23
3.28823e-23
-2.12089e-23
7.14045e-23
-5.76799e-23
2.46579e-23
-1.19994e-22
-1.99995e-23
-1.28313e-22
2.2783e-23
-1.23059e-22
9.38757e-23
-1.74972e-22
-6.22616e-23
-1.95159e-22
2.74526e-23
-2.18932e-22
1.41678e-22
-1.42626e-22
4.23341e-22
-9.67593e-23
2.55851e-22
-1.84811e-22
2.27525e-22
4.66047e-24
3.00099e-22
-1.28081e-22
1.43651e-22
-2.05197e-22
9.1471e-23
-4.09993e-23
3.91442e-22
-6.38814e-23
1.27962e-22
-1.89072e-23
1.35947e-23
-1.09887e-22
-9.43599e-23
-4.88546e-23
2.44109e-23
9.58271e-23
1.55879e-22
4.84181e-23
-5.49678e-23
3.89483e-23
4.8062e-23
2.37382e-23
1.14104e-22
9.5906e-23
-1.66778e-22
2.2908e-23
-1.69238e-23
-4.27734e-23
4.35506e-23
3.3709e-23
-2.82476e-23
2.36113e-23
-1.76535e-23
-3.96201e-23
6.57457e-23
-7.53519e-24
-3.61162e-23
7.68828e-23
-5.73494e-23
5.73652e-23
-6.65517e-23
4.40292e-23
-9.51717e-23
-7.78633e-24
-8.48707e-23
3.75103e-23
-1.9945e-22
-4.30228e-24
-1.4463e-22
-1.00151e-22
-1.38438e-22
-1.09403e-23
-1.02944e-22
6.51389e-23
-2.12672e-22
3.10909e-23
-9.98194e-23
1.53496e-22
-1.58181e-22
3.08447e-23
-3.78975e-23
1.47827e-22
-1.28571e-22
-5.0102e-23
-8.82909e-23
2.5449e-23
-1.47775e-22
1.89592e-22
-1.00618e-22
1.29401e-22
-3.7169e-23
-4.50794e-23
-3.97494e-23
-8.34001e-23
2.44943e-23
-8.86263e-24
6.55123e-24
2.45629e-22
7.58478e-23
1.68176e-22
7.5938e-23
2.25905e-23
7.49634e-24
-7.58844e-23
-2.66575e-23
-1.27063e-22
3.67681e-23
8.72247e-24
-4.79972e-23
7.12466e-23
2.84369e-23
-5.15297e-23
-1.07715e-22
-9.48673e-24
-7.43276e-23
8.58493e-23
1.42445e-22
-2.54214e-23
-7.31419e-23
-3.6188e-23
5.6644e-23
-5.29765e-23
5.53969e-23
-8.72327e-23
8.12061e-25
-8.96247e-23
9.17542e-23
-2.38688e-22
-6.29433e-23
-1.1174e-22
7.80405e-23
-1.06638e-22
2.03433e-23
-1.26055e-22
-7.54361e-23
-1.56884e-22
5.64457e-23
-1.39463e-22
1.60344e-22
-1.2158e-22
-1.28542e-23
-9.58554e-23
1.51366e-22
-8.09437e-23
-3.75934e-23
-3.03864e-23
-8.88541e-23
-1.41263e-22
3.35464e-23
-1.70499e-22
-7.36061e-23
-5.10175e-23
5.36597e-23
-2.0858e-23
-9.8878e-23
1.47867e-22
7.09644e-23
-2.74063e-23
-1.03784e-22
3.39207e-23
9.2381e-23
8.54691e-23
1.68345e-22
1.21873e-23
-2.63562e-23
5.02184e-23
-5.53897e-23
4.55544e-23
-1.1501e-23
-4.26557e-23
6.04689e-23
4.73637e-23
-1.69385e-23
-3.40403e-23
4.53246e-23
1.0323e-22
1.87448e-23
1.49046e-22
1.20179e-23
1.46358e-22
-3.57153e-23
5.4819e-23
-6.56308e-23
9.08827e-23
-5.93239e-23
1.4913e-23
-1.26421e-22
-4.31032e-23
-2.01206e-22
2.79996e-23
-1.32861e-22
8.5545e-23
-1.41507e-22
-1.34223e-22
-9.94843e-23
-8.91347e-23
-1.17073e-22
5.93837e-23
-1.84445e-22
2.68328e-23
-7.40414e-23
2.51285e-23
-1.37603e-22
3.16816e-23
-1.0331e-22
-6.86512e-23
3.12694e-24
9.95118e-23
-1.55877e-22
-1.05693e-22
-1.13215e-22
-6.27824e-23
-8.66862e-23
4.48173e-23
4.62577e-23
4.655e-23
1.19443e-22
3.84668e-23
6.48836e-23
-8.9796e-23
4.22748e-23
1.12477e-22
2.13933e-23
1.5984e-22
2.64348e-23
-4.40256e-23
9.23562e-23
-4.59399e-23
6.94463e-23
9.79723e-23
-6.20672e-24
3.21251e-23
9.76073e-23
3.42756e-23
3.07945e-23
6.28426e-23
1.29268e-22
3.42758e-23
1.31238e-22
7.70884e-24
1.31094e-22
-3.24366e-23
2.40915e-24
-7.81834e-23
1.14109e-22
-8.63497e-23
3.46629e-23
-9.1388e-23
-1.69056e-22
-1.80802e-22
-2.70531e-22
-1.95386e-22
-4.62055e-23
-1.27237e-22
8.67835e-23
-6.42605e-23
4.57098e-23
-1.26819e-22
1.25748e-22
-1.68006e-22
7.24806e-23
-8.40658e-23
1.72609e-22
-1.57222e-22
1.40655e-22
-5.96993e-23
6.10594e-23
-7.14617e-23
6.47603e-23
-1.41262e-22
1.61849e-22
-7.88286e-23
1.26467e-22
-9.04953e-23
1.6241e-22
4.78794e-23
1.55506e-22
5.94637e-23
3.01567e-23
1.19682e-22
8.48526e-23
6.5285e-23
1.74515e-22
-2.25917e-23
1.80588e-22
3.54436e-23
8.39646e-23
-6.99625e-23
-7.51704e-23
6.29233e-23
-1.20446e-23
-5.03518e-23
3.81673e-23
4.67617e-23
5.28234e-23
5.11275e-23
6.60238e-23
1.66148e-22
5.23279e-23
1.70818e-22
-2.66647e-23
8.38443e-23
-1.58837e-23
-4.91549e-23
-1.05053e-22
-1.12764e-22
-1.16718e-22
3.77325e-23
-1.18844e-22
-5.80549e-23
-1.35326e-22
5.21922e-24
-1.54987e-22
-6.13358e-23
-1.21319e-22
1.09635e-22
-5.04902e-23
2.34137e-22
-1.3942e-22
2.34002e-22
-1.24665e-22
2.71568e-22
-1.03857e-22
2.02583e-22
-1.71576e-22
2.37044e-22
-5.77834e-23
3.8051e-22
-5.99971e-23
3.73324e-22
-1.66739e-22
2.83833e-22
-6.05489e-23
2.79706e-22
-9.45967e-23
2.89639e-22
6.49898e-24
3.69899e-22
6.24087e-23
2.14355e-22
1.22153e-22
2.41707e-22
6.54676e-23
2.62483e-22
-3.25046e-23
1.48327e-23
-5.39487e-24
1.76852e-23
-4.08418e-23
-3.60935e-23
4.76878e-23
-5.42133e-23
-7.42682e-23
5.0591e-23
2.2667e-23
7.39833e-23
1.7536e-23
5.36192e-23
2.27595e-22
1.1072e-23
1.44577e-22
-2.64123e-23
-5.92862e-24
-4.58462e-23
-8.98298e-23
-7.79697e-23
-1.223e-22
-1.20552e-22
7.71148e-23
-1.00921e-22
-2.95287e-23
-1.35594e-22
2.87655e-23
-1.14971e-22
-1.87133e-23
-7.79439e-23
1.92516e-22
-6.45426e-23
-8.18948e-24
-1.22928e-22
2.44455e-22
-1.45729e-22
3.05173e-22
-8.16312e-23
1.4855e-22
-1.30122e-22
4.83058e-23
-6.00264e-23
3.01795e-22
-7.00718e-23
1.31352e-22
-1.70067e-22
3.93506e-22
-7.15706e-23
5.069e-22
-7.68118e-23
3.76015e-22
-3.63541e-23
3.54776e-22
8.0926e-23
3.63038e-22
1.24535e-22
2.23149e-22
1.98214e-23
1.16639e-22
-2.4227e-23
-2.21166e-23
-8.25725e-24
-1.46412e-23
-8.32078e-23
-1.66344e-23
6.9882e-23
-4.74552e-23
-6.19676e-23
4.25538e-23
5.44533e-23
1.01559e-22
-4.70146e-23
5.52399e-23
6.36879e-23
-1.68681e-23
1.82894e-22
-4.2974e-23
1.84372e-22
-5.44309e-23
-9.70653e-23
-3.05051e-23
5.274e-23
-1.15132e-22
-3.8991e-23
-9.56012e-23
-6.38258e-23
-1.43606e-22
-1.17575e-22
-7.48037e-23
-7.50612e-23
-1.12125e-22
1.92039e-23
-1.00293e-23
1.48649e-22
-1.10217e-22
7.94292e-23
-1.77655e-22
1.73569e-22
-9.01017e-23
3.47929e-22
-8.13352e-23
2.9541e-22
-9.22929e-23
2.59023e-22
-1.53767e-23
2.6257e-22
-1.38972e-22
3.18045e-22
-9.83576e-23
4.70603e-22
-7.57093e-23
4.40899e-22
-1.01244e-23
3.48012e-22
5.57462e-23
3.01976e-22
8.11197e-23
2.02353e-22
-1.73082e-23
2.29459e-22
-1.7398e-23
1.21211e-22
-1.69687e-23
-6.3873e-23
-7.77997e-23
-1.24421e-23
8.27762e-23
-5.2952e-23
-5.84972e-23
5.85795e-24
-1.06251e-22
1.2676e-22
1.39384e-23
6.43963e-23
-1.20421e-22
-2.18165e-24
1.43682e-23
-8.66664e-23
1.58342e-23
-3.69695e-23
-1.8101e-22
-3.85061e-23
1.09285e-23
-1.00593e-22
2.21558e-23
-1.28256e-22
-3.03623e-22
-1.23246e-22
-1.39801e-22
-6.57547e-23
-9.14472e-23
-7.67054e-23
4.40355e-23
-1.76185e-23
1.31223e-22
-9.39728e-23
1.56539e-22
-1.45413e-22
2.7647e-22
-9.498e-23
2.80874e-22
-9.62011e-23
7.91976e-23
-8.16943e-23
2.0129e-22
-3.93331e-24
3.76501e-22
-1.08501e-22
3.67913e-22
-8.87338e-23
4.49543e-22
-9.20654e-23
4.59063e-22
-9.18383e-24
3.0639e-22
5.0805e-23
3.09362e-22
8.6268e-23
1.96061e-22
-6.53532e-23
1.28691e-22
-4.04157e-23
3.0717e-22
-1.95099e-23
-1.26157e-22
-9.89023e-23
-1.89461e-23
5.47859e-23
-9.74223e-23
-5.95691e-23
3.10567e-23
-1.11318e-22
8.38483e-23
-5.09969e-23
9.93376e-23
-1.34268e-22
-2.33175e-24
5.70894e-23
-1.25616e-22
9.49852e-23
-4.76027e-24
1.67514e-22
-4.69351e-23
6.69029e-23
-1.47921e-22
-1.12984e-22
-9.86458e-23
-3.54088e-22
-1.07158e-22
-1.88969e-22
-5.42275e-23
-1.00035e-22
-4.47467e-23
1.39682e-23
-8.2125e-24
1.00675e-22
-8.1987e-23
-1.21365e-23
-1.39273e-22
1.29865e-22
-1.18083e-22
2.57599e-22
-8.07401e-23
2.73984e-22
-4.97169e-23
3.691e-22
9.74006e-24
4.7436e-22
-1.12929e-22
1.78155e-22
-7.0885e-23
3.92489e-22
-1.11299e-22
3.22686e-22
-8.90718e-25
4.58549e-22
4.09827e-23
2.67845e-22
9.021e-23
1.38882e-22
-2.26668e-23
-1.60719e-23
-1.01511e-22
9.1225e-23
-3.03454e-23
3.64982e-23
-5.27034e-23
-2.83963e-23
3.70056e-23
-1.91324e-22
-4.32901e-23
5.1387e-23
-1.51181e-22
7.96907e-23
-6.0356e-23
1.33715e-22
1.78915e-24
6.55989e-24
-6.13756e-23
-9.2357e-23
-1.0259e-22
-1.1961e-23
5.16223e-23
-6.47758e-23
-1.09713e-22
-1.83338e-22
1.87127e-23
-7.05811e-23
-6.56794e-23
-9.14014e-23
-2.01674e-22
-3.61865e-23
-1.5764e-22
-2.30915e-23
6.08117e-24
-1.76763e-23
-1.66113e-22
-6.6609e-23
-1.53553e-22
-1.17291e-22
1.85536e-22
-1.02096e-22
2.06813e-22
-7.00614e-23
2.01966e-22
-2.67313e-23
5.11461e-22
-3.44471e-23
4.34798e-22
-9.4341e-23
1.82507e-22
-6.46486e-23
3.58886e-22
-9.20543e-23
1.16823e-22
-3.032e-23
3.96959e-22
1.63111e-23
2.62979e-22
5.76834e-23
5.6143e-23
-7.70606e-26
-7.32156e-24
-1.08183e-22
-6.89319e-23
-3.41663e-23
8.00921e-24
-4.55356e-23
-3.81704e-23
5.23286e-23
-3.0286e-22
-2.97236e-23
6.43332e-23
4.8694e-23
1.01687e-22
8.20473e-23
1.19218e-22
1.66309e-22
-1.50201e-26
-1.78146e-22
-7.0948e-23
-1.0864e-22
-3.95209e-23
1.74152e-23
-5.72053e-23
-1.27549e-22
-1.79352e-22
-1.37553e-22
-1.11774e-22
3.64016e-23
-7.28699e-23
1.64106e-22
-1.34291e-23
9.53076e-23
-4.04506e-23
9.78762e-23
-1.01927e-23
-1.75358e-22
-2.53381e-23
-1.0799e-22
-1.08287e-22
6.96724e-23
-8.96066e-23
1.3797e-22
-3.42116e-23
1.59232e-22
-3.82994e-23
4.97705e-22
-5.14121e-23
1.64602e-22
-7.13429e-23
1.66388e-22
-7.42322e-23
3.92381e-22
-5.46919e-23
8.88692e-23
-4.10147e-23
3.98413e-22
-1.05604e-23
2.72716e-22
5.17667e-23
2.14356e-22
-1.56921e-23
1.01698e-23
-8.57516e-23
-3.23395e-23
-5.32395e-23
8.48269e-24
-1.75291e-23
-4.07544e-23
9.12262e-23
9.5283e-23
5.4539e-25
5.79349e-23
9.02812e-24
1.26471e-22
1.96429e-22
8.17614e-23
-8.54354e-23
-3.68108e-24
-3.59457e-22
-5.8876e-23
-8.56916e-23
-4.67985e-23
-1.70152e-22
-6.55103e-23
-7.21462e-23
-1.47041e-22
-6.26526e-23
-9.30524e-23
-3.18317e-23
-7.73892e-23
7.86058e-23
-2.61028e-23
4.77547e-23
-7.34513e-23
-2.91019e-23
6.18755e-24
-2.19907e-22
-7.57658e-24
-3.23208e-22
-9.35948e-23
-6.68688e-23
-7.83888e-23
8.96323e-23
1.38032e-23
7.04341e-23
-8.11848e-23
8.70338e-23
-3.38838e-23
4.62719e-23
-5.05997e-23
1.62391e-22
-9.36984e-23
1.41287e-22
-2.13726e-23
4.27155e-23
-3.16758e-23
3.40139e-22
-2.29835e-23
2.05926e-22
2.86128e-23
1.48858e-22
-3.21264e-23
4.79825e-23
-9.30495e-23
5.34142e-23
-2.883e-23
1.85568e-23
-1.82203e-22
-5.5548e-23
9.22175e-23
1.99451e-22
-9.45969e-24
6.95752e-23
-2.32887e-23
7.87455e-23
9.53757e-23
6.7259e-23
4.86161e-23
2.19576e-23
-3.80876e-22
-6.40437e-23
-1.89991e-22
-2.46716e-23
9.26981e-24
-4.75991e-23
-6.21028e-23
-1.33482e-22
-1.85671e-22
-8.08137e-23
1.14797e-22
-5.9989e-23
2.07936e-22
-4.84821e-23
-2.81179e-24
-9.25007e-23
8.3504e-23
-6.05511e-24
-1.6319e-23
1.64883e-23
-1.42351e-22
-7.43987e-23
-8.60372e-23
-6.77869e-23
6.13372e-23
1.348e-24
-2.00671e-23
-6.91124e-23
9.16048e-23
-2.46691e-23
1.34565e-22
-6.26037e-23
1.22506e-22
-9.38158e-23
1.02476e-22
2.01714e-24
1.81539e-22
-4.32303e-23
2.88213e-22
-2.67285e-23
2.35793e-22
1.45513e-23
1.68514e-22
-2.50583e-23
-3.29146e-23
-9.68062e-23
-1.27607e-23
-3.82355e-23
3.47681e-23
-2.82687e-22
-4.56678e-23
7.58765e-23
1.76546e-22
-4.33994e-23
8.07686e-23
-4.63255e-23
6.5144e-23
4.83821e-23
2.86102e-23
3.63335e-23
4.39595e-23
-1.86054e-22
-2.54884e-23
-9.88474e-23
-3.66921e-23
5.91767e-23
-4.66141e-23
-1.39442e-23
-1.04418e-22
-2.93268e-22
-7.30575e-23
3.6475e-23
-7.63758e-23
1.35407e-22
-5.1752e-23
-3.12329e-22
-9.73746e-23
-7.12697e-23
-1.44846e-23
-3.08696e-23
2.25357e-23
-1.91792e-22
-5.73341e-23
-4.49925e-23
-7.26994e-23
2.31682e-22
-8.20421e-25
1.24665e-22
-3.88952e-23
6.52311e-23
-3.26846e-23
7.7363e-23
-5.24156e-23
9.00142e-23
-7.57489e-23
6.73716e-23
-9.15295e-25
1.09322e-22
-4.02225e-23
8.33092e-23
-2.25989e-23
6.58384e-24
-1.39047e-24
-2.26661e-23
-2.45475e-23
1.21702e-23
-9.84994e-23
-1.56978e-22
-5.31751e-23
8.45816e-24
-2.45656e-22
-5.2795e-24
6.63126e-23
1.79321e-22
-6.3359e-23
6.57038e-23
-4.88045e-23
6.39968e-23
3.07198e-23
5.7537e-24
-9.41277e-23
5.29673e-23
-2.77205e-23
-9.74184e-24
1.01053e-23
-4.12873e-23
-1.40822e-22
-7.01244e-23
6.15652e-24
-6.7921e-23
-8.68069e-23
-7.08672e-23
-1.7225e-22
-1.06686e-22
1.46911e-22
-3.45028e-23
-3.37552e-24
-9.10499e-23
1.85882e-22
-3.09378e-23
1.43162e-22
3.73155e-23
2.49997e-23
-3.10212e-23
-2.64688e-23
-8.14759e-23
5.56048e-24
3.4593e-24
2.53065e-22
-3.76537e-23
1.05055e-22
-3.69525e-23
-1.97259e-22
-4.4396e-23
2.96176e-23
-7.04248e-23
-1.08519e-22
-5.76765e-24
2.58071e-22
-3.47827e-23
2.99595e-22
-2.76874e-23
1.43167e-22
2.86747e-23
1.15792e-22
-3.91044e-23
-1.50595e-22
-8.16407e-23
-1.31021e-22
-5.88812e-23
6.15747e-24
-6.8571e-23
1.7908e-23
4.91129e-23
1.55116e-22
-6.75205e-23
6.36571e-23
-7.95509e-23
4.88186e-23
-3.89832e-24
2.85385e-23
-7.18674e-23
5.93046e-23
-7.68996e-23
-2.2541e-23
5.21827e-23
-2.37626e-23
-1.1547e-22
-7.63902e-23
-3.14065e-22
-7.62521e-23
-7.56457e-23
-4.36148e-23
-2.27459e-22
-1.16987e-22
-6.35058e-24
-1.66191e-23
5.39485e-23
-8.6544e-23
5.27956e-23
-4.03311e-23
1.06419e-22
3.99322e-23
2.27109e-22
-3.09679e-23
5.94718e-23
-5.97627e-23
7.48867e-24
-5.09254e-24
2.3392e-22
-6.53991e-23
-2.60457e-22
-1.43297e-23
-2.39723e-23
-5.39499e-23
4.8788e-23
-3.81696e-23
4.65712e-23
-5.04186e-24
1.72536e-22
-4.08745e-23
2.66267e-22
-4.68375e-23
1.10318e-22
1.05348e-23
1.81315e-22
-3.27155e-23
-1.1765e-22
-8.58849e-23
-2.59241e-22
-5.30502e-23
-4.44023e-24
-1.52752e-22
1.86129e-23
2.72577e-23
1.25132e-23
-7.53774e-23
6.36778e-23
5.44608e-23
4.71015e-23
-4.2047e-23
3.65359e-23
6.09657e-23
7.56127e-23
5.6149e-23
-4.0099e-23
-2.21554e-23
-3.54919e-23
7.14448e-23
-6.42951e-23
-3.26568e-22
-8.6167e-23
-2.40343e-22
-2.64493e-23
-4.60193e-23
-9.79743e-23
7.46301e-23
-1.50698e-23
4.0269e-22
-8.431e-23
8.35761e-23
-2.78342e-23
1.11242e-22
2.72933e-23
1.78184e-22
-3.76314e-23
-7.56783e-23
-4.34713e-23
-1.98393e-23
-4.50787e-23
6.07947e-23
-4.62379e-23
-2.52816e-23
-3.46271e-24
-6.14348e-23
-5.07259e-23
-1.09286e-22
-2.24779e-23
5.27685e-23
9.59619e-24
7.44077e-23
-4.95041e-23
7.02859e-23
-3.20903e-23
1.75678e-23
-1.37347e-23
1.29136e-22
-4.36531e-23
-2.82779e-22
-6.42458e-23
-1.59511e-23
-7.72455e-23
2.78939e-23
1.5358e-22
3.1367e-23
2.7176e-23
5.64397e-23
-4.84383e-23
4.83455e-23
2.27084e-22
5.8547e-23
-8.28951e-23
3.42969e-23
1.83867e-23
6.96887e-23
1.46832e-22
-2.81264e-23
-1.10116e-22
-6.36434e-23
-1.05667e-22
-5.91982e-23
-3.2955e-22
-5.69995e-23
1.5421e-23
-1.63075e-23
-5.13734e-23
-6.79301e-23
-8.97054e-23
-3.75163e-23
1.53425e-22
-8.8312e-23
-7.20693e-23
-1.92232e-23
7.98205e-23
5.34658e-24
-4.58491e-23
-2.39727e-23
-4.54547e-23
-5.06431e-23
-2.55599e-22
-3.86418e-23
4.77069e-23
-5.26181e-23
1.02734e-24
1.89333e-24
1.58797e-22
-4.285e-23
-2.2139e-22
-3.01271e-23
7.62089e-23
8.28629e-24
2.65398e-23
-4.06003e-23
4.57877e-23
-2.39422e-23
-3.7835e-23
-3.91663e-23
-1.19947e-22
-2.41242e-23
-1.11996e-22
-5.65959e-23
1.58008e-23
-7.09226e-23
-1.03859e-22
3.12515e-22
3.61736e-24
2.42749e-23
5.14796e-23
-1.65475e-23
2.41961e-23
3.13178e-22
6.3852e-23
9.40506e-23
4.32661e-23
3.63768e-23
5.34385e-23
6.81175e-23
-3.45416e-23
-2.00161e-23
-7.41165e-23
-1.23921e-22
-5.66788e-23
-3.25657e-22
-4.11818e-23
1.62131e-23
-2.02146e-23
-9.9391e-23
-5.19363e-23
-2.27539e-23
-4.88305e-23
1.76156e-22
-8.20587e-23
-3.33761e-23
-2.67305e-23
2.43542e-22
4.81534e-24
4.56949e-23
-3.35685e-23
1.86422e-22
-3.82471e-23
-8.40462e-23
-2.92352e-23
2.34924e-22
-4.92202e-23
8.96764e-23
-1.49825e-23
1.64806e-22
-2.23574e-23
-1.16616e-22
-3.44167e-23
1.57082e-22
1.79113e-23
2.8834e-22
-4.76772e-23
6.76389e-23
-1.82959e-23
-5.45675e-23
-2.63066e-23
-1.585e-22
-2.0697e-23
-1.39604e-22
-6.47466e-23
5.63742e-23
-4.19974e-23
1.08803e-24
1.91772e-22
-4.40049e-23
3.39969e-23
7.85617e-23
-9.66165e-24
2.80296e-23
2.39538e-22
5.3041e-23
8.65068e-23
4.64356e-23
4.87439e-25
6.40346e-23
3.17551e-23
-4.99064e-23
-2.67897e-22
-6.07316e-23
-8.84385e-23
-3.33908e-23
-3.19206e-22
-4.64763e-23
3.0181e-23
-1.46828e-23
-1.0759e-22
-4.14049e-23
2.32327e-23
-5.61941e-23
8.91959e-24
-6.57177e-23
1.64968e-22
-3.75527e-23
2.03819e-22
1.49762e-23
2.18909e-22
-4.23617e-23
2.66074e-22
-2.92993e-23
-6.9728e-23
-2.38458e-23
2.29078e-22
-5.37331e-23
-6.14795e-23
-2.43621e-23
2.22463e-22
-5.14074e-24
1.27771e-22
-3.01599e-23
4.49848e-23
-6.86307e-24
2.02284e-22
-5.82213e-23
1.21893e-22
-3.9378e-23
3.32476e-22
-1.78199e-23
1.18833e-23
-1.18278e-23
-1.41224e-22
-6.25294e-23
-1.25452e-22
-6.02425e-23
-1.78189e-23
2.46445e-22
-5.24597e-23
2.32398e-23
1.37741e-22
5.59842e-24
2.21966e-23
5.0901e-22
4.61952e-23
6.06342e-23
5.3621e-23
-1.26146e-23
3.65221e-23
-1.65821e-22
-4.65675e-23
-4.10794e-22
-6.78917e-23
-7.09063e-23
-1.75237e-23
-1.70718e-22
-4.48975e-23
6.09902e-23
-3.04953e-24
1.25822e-23
-4.29907e-23
4.92367e-23
-3.74349e-23
2.94774e-23
-6.92309e-23
1.91799e-22
-2.93126e-23
3.47908e-22
1.66392e-23
4.23936e-22
-5.50088e-23
1.40768e-22
-2.07448e-23
1.53265e-22
-2.99715e-23
2.6108e-22
-4.31317e-23
-8.09385e-24
-1.75868e-23
2.36853e-22
-2.7587e-23
2.33548e-22
-2.00572e-23
8.49043e-23
-4.57203e-24
1.91436e-22
-4.86359e-23
1.59796e-22
-4.76127e-23
2.23889e-22
-2.75475e-23
-1.3651e-24
-8.94667e-24
2.53297e-23
-4.87859e-23
-1.58038e-22
-3.38541e-23
-2.62763e-22
5.04953e-24
-7.36872e-23
3.88637e-23
1.39813e-22
5.30424e-24
2.45318e-24
2.50976e-22
4.66366e-23
2.10746e-22
3.04316e-23
-5.50528e-24
3.13039e-23
1.60671e-23
-4.05545e-23
-3.81141e-22
-6.46944e-23
-5.83887e-23
-1.9627e-23
4.94896e-23
-3.40392e-23
7.41739e-23
-5.88055e-24
-1.02894e-23
-4.23351e-23
3.90947e-23
-2.39274e-23
6.70002e-23
-6.31393e-23
1.00838e-22
-1.8697e-23
4.96902e-22
-4.95528e-24
4.38688e-22
-4.11834e-23
1.60802e-22
-2.6237e-23
1.398e-22
-3.51735e-23
3.20528e-22
-3.59826e-23
-6.94655e-23
-1.14666e-23
8.95436e-23
-3.21087e-23
1.5384e-22
-1.02062e-23
2.9911e-22
-1.36073e-24
1.7129e-22
-3.74185e-23
1.53442e-22
-5.88394e-23
4.01872e-23
-1.83632e-23
7.84578e-23
-2.2339e-23
-1.18604e-22
-4.5389e-23
-1.55758e-22
-2.92565e-23
-3.04331e-22
-1.05066e-22
-6.25918e-23
4.07254e-23
1.66328e-22
-3.69987e-24
6.22214e-24
3.74889e-22
3.88639e-23
3.35322e-22
2.38121e-23
5.83742e-23
2.88436e-23
4.51596e-24
-1.80731e-23
-3.20059e-22
-4.69213e-23
-3.65062e-23
-1.06411e-23
4.89198e-23
-3.57948e-23
-1.4809e-22
-1.14602e-24
4.206e-24
-4.08112e-23
7.18365e-23
-1.5294e-23
2.59443e-22
-4.35396e-23
1.26451e-22
-1.66156e-23
4.99623e-22
-2.10266e-23
4.0697e-22
-3.54501e-23
3.60612e-22
-2.80745e-23
1.87574e-22
-4.34233e-23
3.35603e-22
-3.92609e-23
-6.01263e-23
-9.36264e-24
1.3614e-22
-2.33085e-23
2.71681e-22
-2.19701e-23
3.19526e-22
-6.48452e-24
1.43046e-22
-5.91658e-23
1.90126e-22
-5.79277e-23
-2.07681e-23
-2.78332e-23
1.56654e-23
-2.09235e-23
-1.44464e-22
-4.11043e-23
-1.00767e-22
-3.69346e-23
-9.01953e-23
-6.85924e-23
-4.53739e-23
5.03678e-23
3.50267e-22
-6.14832e-24
-1.7326e-24
1.25128e-22
4.01727e-23
4.97592e-22
1.13527e-23
8.19008e-23
1.87794e-23
7.05614e-24
-1.36564e-23
-3.20222e-22
-3.91955e-23
-1.52069e-22
-2.14365e-23
3.92863e-23
-1.93101e-23
-1.67813e-22
-4.51293e-25
1.71169e-22
-2.97107e-23
1.23366e-22
-1.72879e-23
2.39926e-22
-2.94833e-23
1.55617e-22
-1.7539e-23
5.346e-22
-2.11222e-23
3.91838e-22
-4.05568e-23
3.48749e-22
-2.72821e-23
1.51788e-22
-4.84027e-23
3.92391e-22
-3.80883e-23
3.30505e-24
1.79245e-24
3.88396e-22
-2.53382e-23
3.45549e-22
-2.80019e-23
1.60444e-22
-6.63746e-24
1.22924e-22
-6.40333e-23
2.52419e-22
-6.08245e-23
2.39922e-23
-3.44815e-23
1.5239e-22
-2.45712e-23
2.73085e-23
-2.76276e-23
-1.08457e-23
-4.05311e-23
-2.04145e-22
-7.19101e-23
-3.42883e-23
4.34046e-23
5.0862e-22
-1.38642e-23
1.48215e-23
1.93988e-22
1.66677e-23
5.17495e-22
-6.0214e-24
-6.71425e-23
1.74081e-23
1.58242e-23
-1.8177e-23
-2.76112e-22
-2.67147e-23
7.47978e-23
-2.3724e-23
8.01571e-23
-4.06849e-24
1.19481e-22
-7.42529e-25
2.00969e-22
-2.37062e-23
1.94205e-22
-1.46449e-23
2.63408e-22
-1.94236e-23
1.94735e-22
-1.69244e-23
5.39008e-22
-2.03218e-23
3.93078e-22
-4.85656e-23
3.32388e-22
-2.14617e-23
3.21467e-22
-5.86736e-23
2.16846e-22
-2.37863e-23
7.32876e-23
-5.55413e-25
2.53893e-22
-2.85053e-23
3.86258e-22
-3.4473e-23
1.4206e-22
-1.56891e-24
4.87354e-23
-6.20645e-23
-6.52385e-23
-5.82602e-23
-4.39785e-25
-3.50361e-23
1.56998e-22
-9.73106e-24
1.85492e-23
-4.07649e-23
-1.62906e-22
-3.78005e-23
-1.64481e-22
-6.01743e-23
-2.92686e-23
1.80913e-23
3.94092e-22
-2.79326e-23
2.51495e-23
2.05916e-22
2.63858e-24
3.55043e-22
-6.36308e-24
-5.1984e-23
1.24511e-23
5.87463e-23
-1.70495e-24
-1.09638e-22
-2.63586e-23
1.28423e-22
-1.58725e-23
2.88663e-22
-6.11895e-24
8.8257e-23
5.93379e-24
1.98827e-22
-2.21819e-23
1.84984e-22
-1.15089e-23
2.58986e-22
-1.10532e-23
2.48991e-22
-1.88974e-23
5.21195e-22
-2.14241e-23
3.6364e-22
-4.46319e-23
2.91889e-22
-2.88642e-23
3.43067e-22
-5.69592e-23
2.69718e-22
-2.52429e-23
3.2514e-22
8.88973e-24
2.62191e-22
-4.3265e-23
1.22792e-22
-3.43892e-23
1.49326e-22
-8.74757e-24
2.28573e-22
-5.26549e-23
1.36802e-22
-5.96657e-23
-1.37638e-22
-2.92805e-23
3.0637e-22
-2.58847e-23
3.20198e-23
-3.52445e-23
-1.05595e-22
-2.38797e-23
-1.84549e-22
-1.52013e-23
-2.47396e-23
2.38484e-23
2.49871e-22
-2.84838e-23
2.76889e-23
3.46427e-22
-1.48568e-23
3.85186e-22
-7.02282e-24
1.31735e-22
1.22651e-23
6.75049e-23
6.50716e-24
7.09276e-23
-1.73034e-23
1.73356e-22
-1.59714e-23
2.96833e-22
-7.7647e-24
7.08904e-23
9.20428e-24
1.65562e-22
-2.25569e-23
2.21394e-22
-9.94332e-24
2.57829e-22
-2.55877e-24
2.69698e-22
-2.08485e-23
4.62793e-22
-2.12355e-23
4.8325e-22
-4.31003e-23
2.80107e-22
-3.18791e-23
3.61216e-22
-4.91866e-23
1.15626e-22
-3.33056e-23
3.28237e-22
1.69836e-24
2.63981e-22
-3.293e-23
1.6571e-22
-3.46997e-23
6.70218e-23
-1.80256e-23
1.40181e-22
-5.79039e-23
1.55477e-22
-4.5556e-23
8.19606e-23
-3.56362e-23
2.47732e-22
-3.45544e-23
5.26228e-23
-3.15906e-23
-5.22567e-23
-2.35426e-23
-1.86745e-22
-1.87951e-23
-2.7374e-23
2.75715e-23
2.4699e-22
-2.66239e-23
2.17747e-23
1.29484e-22
-2.08378e-23
1.79933e-22
-1.50927e-23
9.17491e-23
2.51511e-23
1.56411e-22
1.08688e-23