/*--------------------------------*- C++ -*----------------------------------*\
  =========                 |
  \\      /  F ield         | OpenFOAM: The Open Source CFD Toolbox
   \\    /   O peration     | Website:  https://openfoam.org
    \\  /    A nd           | Version:  7
     \\/     M anipulation  |
\*---------------------------------------------------------------------------*/
FoamFile
{
    version     2.0;
    format      ascii;
    class       volVectorField;
    location    "264000";
    object      U;
}
// * * * * * * * * * * * * * * * * * * * * * * * * * * * * * * * * * * * * * //

dimensions      [0 1 -1 0 0 0 0];

internalField   nonuniform List<vector> 
4782
(
(9.18932e-19 8.5846e-19 -0.00982898)
(9.29979e-19 8.15559e-19 -0.00973737)
(9.89995e-19 7.45102e-19 -0.00964382)
(1.00458e-18 7.82833e-19 -0.00954822)
(9.57206e-19 8.99798e-19 -0.00945047)
(9.23251e-19 9.60587e-19 -0.00935046)
(9.87161e-19 8.64426e-19 -0.00924806)
(1.06175e-18 7.68253e-19 -0.00914315)
(1.05459e-18 8.01598e-19 -0.00903558)
(1.04811e-18 8.50732e-19 -0.00892522)
(-3.7574e-19 8.76838e-19 -0.0127921)
(-8.59029e-20 6.25191e-19 -0.0127401)
(6.50889e-20 5.85025e-19 -0.0126877)
(1.34105e-19 5.99183e-19 -0.0126349)
(2.51851e-20 8.01455e-19 -0.0125818)
(-2.87281e-19 1.23483e-18 -0.0125281)
(-4.79564e-19 1.49722e-18 -0.0124741)
(-4.36201e-19 1.46021e-18 -0.0124196)
(-2.92154e-19 1.2638e-18 -0.0123645)
(-1.41337e-20 8.48225e-19 -0.012309)
(2.33802e-19 4.5036e-19 -0.0122529)
(2.61813e-19 3.5232e-19 -0.0121963)
(2.3184e-19 4.0156e-19 -0.0121392)
(1.7784e-19 4.66245e-19 -0.0120815)
(2.05326e-19 4.43996e-19 -0.0120233)
(2.3757e-19 4.57914e-19 -0.0119644)
(2.29894e-19 5.43923e-19 -0.011905)
(2.52314e-19 5.44676e-19 -0.011845)
(3.22241e-19 4.6989e-19 -0.0117843)
(4.98694e-19 2.56455e-19 -0.011723)
(7.19515e-19 -6.2884e-20 -0.011661)
(6.38261e-19 -7.16921e-21 -0.0115983)
(2.26883e-19 4.83952e-19 -0.0115349)
(-5.80072e-20 8.25122e-19 -0.0114708)
(-2.20466e-20 7.646e-19 -0.0114059)
(2.43162e-19 4.24048e-19 -0.0113402)
(5.81149e-19 -7.57372e-21 -0.0112737)
(8.03957e-19 -2.73239e-19 -0.0112064)
(7.72156e-19 -1.7327e-19 -0.0111382)
(6.96927e-19 -2.82626e-20 -0.011069)
(8.10622e-19 -1.40466e-19 -0.010999)
(9.85924e-19 -3.28673e-19 -0.010928)
(1.00459e-18 -3.09793e-19 -0.0108559)
(9.24881e-19 -1.69504e-19 -0.0107828)
(8.631e-19 -6.09661e-20 -0.0107087)
(9.28247e-19 -1.19766e-19 -0.0106333)
(1.01156e-18 -1.68027e-19 -0.0105568)
(9.20737e-19 4.61028e-21 -0.0104791)
(8.66234e-19 8.92652e-20 -0.0104)
(8.70425e-19 5.91819e-20 -0.0103196)
(8.03626e-19 1.20648e-19 -0.0102378)
(7.38599e-19 1.75392e-19 -0.0101545)
(7.5693e-19 1.13839e-19 -0.0100697)
(6.31771e-19 2.3284e-19 -0.0099833)
(3.67888e-19 5.68621e-19 -0.00989518)
(2.94981e-19 6.74985e-19 -0.00980529)
(4.4564e-19 4.9664e-19 -0.00971354)
(6.1953e-19 2.7154e-19 -0.00961984)
(5.95346e-19 2.95213e-19 -0.00952409)
(3.27448e-19 6.25618e-19 -0.00942619)
(7.11132e-20 9.49544e-19 -0.00932601)
(-5.93254e-20 1.09922e-18 -0.00922345)
(-8.76611e-21 9.89876e-19 -0.00911837)
(1.83004e-19 6.91451e-19 -0.00901064)
(2.69745e-19 5.4443e-19 -0.0089001)
(8.97886e-20 1.13815e-18 -0.0127714)
(3.62673e-20 1.04526e-18 -0.0127194)
(-6.31497e-20 9.81271e-19 -0.012667)
(-1.54042e-19 9.52619e-19 -0.0126142)
(-1.72161e-19 8.41303e-19 -0.0125609)
(-1.96253e-19 8.37463e-19 -0.0125073)
(-2.27277e-19 9.77516e-19 -0.0124531)
(-2.27692e-19 1.13971e-18 -0.0123985)
(-2.3035e-19 1.27929e-18 -0.0123434)
(-3.22885e-19 1.43326e-18 -0.0122878)
(-4.24667e-19 1.49272e-18 -0.0122317)
(-4.01e-19 1.36747e-18 -0.0121751)
(-3.47192e-19 1.22308e-18 -0.0121179)
(-2.38653e-19 1.08183e-18 -0.0120601)
(-2.84632e-20 8.80758e-19 -0.0120018)
(7.54357e-20 8.3095e-19 -0.0119429)
(-1.1385e-19 1.13704e-18 -0.0118834)
(-3.98757e-19 1.55758e-18 -0.0118233)
(-4.59242e-19 1.67728e-18 -0.0117625)
(-4.01439e-19 1.63645e-18 -0.0117011)
(-3.72465e-19 1.60194e-18 -0.011639)
(-4.07797e-19 1.6431e-18 -0.0115763)
(-4.34866e-19 1.73251e-18 -0.0115128)
(-2.89212e-19 1.66827e-18 -0.0114486)
(-4.73002e-20 1.48858e-18 -0.0113836)
(8.16797e-20 1.41965e-18 -0.0113179)
(1.76756e-19 1.30991e-18 -0.0112513)
(4.25035e-19 9.67147e-19 -0.0111839)
(6.53389e-19 6.44336e-19 -0.0111156)
(6.65924e-19 6.26579e-19 -0.0110464)
(5.9725e-19 7.08198e-19 -0.0109763)
(6.00036e-19 6.71909e-19 -0.0109052)
(5.43692e-19 6.88256e-19 -0.010833)
(4.6746e-19 7.50501e-19 -0.0107598)
(5.34716e-19 6.34879e-19 -0.0106855)
(7.41112e-19 3.78228e-19 -0.0106101)
(7.9812e-19 3.04881e-19 -0.0105335)
(6.32708e-19 4.93461e-19 -0.0104556)
(4.23517e-19 7.37585e-19 -0.0103765)
(2.95075e-19 8.78309e-19 -0.0102959)
(2.88882e-19 8.65931e-19 -0.010214)
(3.24428e-19 8.08662e-19 -0.0101306)
(2.94851e-19 8.21813e-19 -0.0100457)
(3.73458e-19 6.98261e-19 -0.0099591)
(5.71728e-19 4.78937e-19 -0.00987085)
(6.53238e-19 4.25887e-19 -0.00978081)
(6.43689e-19 4.64809e-19 -0.00968892)
(5.94265e-19 5.1886e-19 -0.00959507)
(5.31604e-19 5.7439e-19 -0.00949916)
(4.93334e-19 5.9732e-19 -0.0094011)
(4.5004e-19 6.53118e-19 -0.00930076)
(3.24175e-19 8.32093e-19 -0.00919803)
(2.39802e-19 9.65226e-19 -0.00909277)
(2.95586e-19 9.073e-19 -0.00898486)
(4.23142e-19 7.50025e-19 -0.00887414)
(-1.58551e-18 1.79946e-18 -0.0127502)
(-1.57561e-18 1.82307e-18 -0.0126981)
(-1.43331e-18 1.65883e-18 -0.0126457)
(-1.23886e-18 1.41552e-18 -0.0125928)
(-1.05186e-18 1.17561e-18 -0.0125395)
(-6.86487e-19 7.23792e-19 -0.0124858)
(-2.62672e-19 2.82851e-19 -0.0124316)
(-6.65348e-20 1.66301e-19 -0.0123769)
(-2.73497e-19 5.28304e-19 -0.0123218)
(-5.90722e-19 1.01786e-18 -0.0122661)
(-6.67532e-19 1.23609e-18 -0.0122099)
(-5.51638e-19 1.23746e-18 -0.0121532)
(-1.95743e-19 9.56356e-19 -0.0120959)
(3.2246e-19 4.88283e-19 -0.0120381)
(6.99817e-19 1.53548e-19 -0.0119797)
(7.34287e-19 1.80494e-19 -0.0119207)
(6.25879e-19 3.69653e-19 -0.0118611)
(5.86347e-19 5.16253e-19 -0.0118009)
(6.04855e-19 6.17614e-19 -0.0117401)
(6.84143e-19 6.30889e-19 -0.0116787)
(8.63731e-19 5.34664e-19 -0.0116165)
(1.0764e-18 3.74659e-19 -0.0115537)
(1.21371e-18 3.06852e-19 -0.0114901)
(1.26053e-18 3.74159e-19 -0.0114258)
(1.23642e-18 4.98445e-19 -0.0113608)
(1.05425e-18 7.84206e-19 -0.011295)
(8.89276e-19 1.04147e-18 -0.0112283)
(9.5021e-19 1.04318e-18 -0.0111608)
(1.08494e-18 9.39948e-19 -0.0110924)
(1.16878e-18 8.52586e-19 -0.0110231)
(1.1492e-18 8.84385e-19 -0.0109529)
(1.10213e-18 9.27722e-19 -0.0108817)
(1.13067e-18 8.84873e-19 -0.0108095)
(1.16124e-18 8.58095e-19 -0.0107362)
(1.26093e-18 7.4242e-19 -0.0106618)
(1.48259e-18 4.5689e-19 -0.0105862)
(1.48854e-18 4.28321e-19 -0.0105095)
(1.32935e-18 6.02553e-19 -0.0104315)
(1.26938e-18 6.66724e-19 -0.0103522)
(1.27116e-18 6.70245e-19 -0.0102716)
(1.25457e-18 6.81341e-19 -0.0101895)
(1.20961e-18 7.29333e-19 -0.010106)
(1.19921e-18 7.54735e-19 -0.0100209)
(1.39384e-18 5.68006e-19 -0.00993421)
(1.58586e-18 3.79757e-19 -0.00984581)
(1.55005e-18 4.4984e-19 -0.00975563)
(1.40157e-18 6.37336e-19 -0.00966358)
(1.31096e-18 7.41634e-19 -0.00956957)
(1.21094e-18 8.50906e-19 -0.0094735)
(1.13836e-18 9.37603e-19 -0.00937526)
(1.24515e-18 8.18603e-19 -0.00927475)
(1.34466e-18 7.09804e-19 -0.00917184)
(1.33959e-18 7.3092e-19 -0.0090664)
(1.29652e-18 8.01422e-19 -0.0089583)
(1.38078e-18 7.32701e-19 -0.00884738)
(2.16258e-19 1.00855e-18 -0.0127285)
(2.37833e-19 1.13312e-18 -0.0126764)
(1.88415e-19 1.34634e-18 -0.0126239)
(1.7627e-19 1.4879e-18 -0.012571)
(2.91382e-19 1.46496e-18 -0.0125176)
(6.11571e-19 1.15657e-18 -0.0124638)
(9.53693e-19 7.43034e-19 -0.0124095)
(9.54898e-19 6.58517e-19 -0.0123548)
(7.64418e-19 7.53084e-19 -0.0122995)
(6.75043e-19 8.30973e-19 -0.0122438)
(7.39129e-19 8.13607e-19 -0.0121875)
(9.13942e-19 7.02108e-19 -0.0121307)
(1.04826e-18 5.71037e-19 -0.0120734)
(1.02085e-18 5.51198e-19 -0.0120155)
(8.4303e-19 6.72318e-19 -0.011957)
(6.43528e-19 8.23905e-19 -0.011898)
(5.1689e-19 9.71233e-19 -0.0118383)
(4.2352e-19 1.09299e-18 -0.0117781)
(3.60523e-19 1.19731e-18 -0.0117172)
(3.81419e-19 1.22247e-18 -0.0116556)
(3.44517e-19 1.30658e-18 -0.0115934)
(2.07596e-19 1.48052e-18 -0.0115305)
(2.83885e-19 1.40666e-18 -0.0114669)
(3.72833e-19 1.306e-18 -0.0114025)
(3.26173e-19 1.35831e-18 -0.0113374)
(2.63568e-19 1.45593e-18 -0.0112715)
(3.73857e-19 1.39143e-18 -0.0112047)
(6.12204e-19 1.16402e-18 -0.0111371)
(5.75349e-19 1.22705e-18 -0.0110687)
(3.80166e-19 1.46578e-18 -0.0109993)
(2.15817e-19 1.67193e-18 -0.010929)
(1.63062e-19 1.76839e-18 -0.0108576)
(2.62508e-19 1.70028e-18 -0.0107853)
(2.6816e-19 1.73011e-18 -0.0107119)
(1.85109e-19 1.88427e-18 -0.0106374)
(3.32942e-19 1.77632e-18 -0.0105618)
(5.45948e-19 1.56932e-18 -0.0104849)
(5.07638e-19 1.65388e-18 -0.0104068)
(4.13928e-19 1.81523e-18 -0.0103274)
(3.01853e-19 1.99244e-18 -0.0102466)
(2.93915e-19 2.05843e-18 -0.0101644)
(5.24945e-19 1.87438e-18 -0.0100808)
(7.97158e-19 1.65107e-18 -0.00999555)
(1.03451e-18 1.44454e-18 -0.0099087)
(1.19011e-18 1.2784e-18 -0.00982014)
(1.16192e-18 1.30018e-18 -0.0097298)
(9.4461e-19 1.53094e-18 -0.00963759)
(7.61911e-19 1.74613e-18 -0.00954341)
(7.67002e-19 1.76425e-18 -0.00944717)
(8.36844e-19 1.72429e-18 -0.00934876)
(8.4374e-19 1.7423e-18 -0.00924806)
(8.51208e-19 1.74907e-18 -0.00914496)
(9.4749e-19 1.65569e-18 -0.00903933)
(1.05096e-18 1.54429e-18 -0.00893102)
(1.03121e-18 1.56686e-18 -0.0088199)
(-8.43177e-19 1.07626e-18 -0.0127285)
(-8.99993e-19 1.16773e-18 -0.0126764)
(-8.01451e-19 1.15452e-18 -0.0126239)
(-6.82603e-19 1.16979e-18 -0.012571)
(-6.50189e-19 1.25864e-18 -0.0125176)
(-6.54243e-19 1.36414e-18 -0.0124638)
(-7.16253e-19 1.44577e-18 -0.0124095)
(-9.66727e-19 1.62014e-18 -0.0123548)
(-1.0294e-18 1.65678e-18 -0.0122995)
(-7.03868e-19 1.40857e-18 -0.0122438)
(-3.58629e-19 1.19073e-18 -0.0121875)
(-4.11065e-19 1.32521e-18 -0.0121307)
(-6.45676e-19 1.5899e-18 -0.0120734)
(-5.65393e-19 1.5226e-18 -0.0120155)
(-3.13262e-19 1.23381e-18 -0.011957)
(5.04464e-20 8.32412e-19 -0.011898)
(2.81607e-19 5.69106e-19 -0.0118383)
(3.10076e-19 5.26432e-19 -0.0117781)
(4.14558e-19 4.38872e-19 -0.0117172)
(4.86993e-19 3.82579e-19 -0.0116556)
(4.69366e-19 3.78835e-19 -0.0115934)
(4.81243e-19 3.50706e-19 -0.0115305)
(4.54782e-19 3.63918e-19 -0.0114669)
(3.8008e-19 3.97164e-19 -0.0114025)
(4.50339e-19 2.98519e-19 -0.0113374)
(4.94574e-19 2.35369e-19 -0.0112715)
(3.02034e-19 4.13833e-19 -0.0112047)
(1.4295e-19 5.5126e-19 -0.0111371)
(2.11253e-19 4.62659e-19 -0.0110687)
(3.28957e-19 3.58194e-19 -0.0109993)
(3.99114e-19 3.22972e-19 -0.010929)
(4.71497e-19 3.30057e-19 -0.0108576)
(5.24168e-19 3.51262e-19 -0.0107853)
(7.20359e-19 2.20643e-19 -0.0107119)
(9.47947e-19 6.00696e-20 -0.0106374)
(9.69524e-19 8.20215e-20 -0.0105618)
(9.30844e-19 1.23718e-19 -0.0104849)
(9.99199e-19 6.833e-20 -0.0104068)
(1.03729e-18 6.90889e-20 -0.0103274)
(1.02879e-18 1.16188e-19 -0.0102466)
(1.08202e-18 1.13108e-19 -0.0101644)
(1.1168e-18 1.12373e-19 -0.0100808)
(9.92375e-19 2.49557e-19 -0.00999555)
(7.00524e-19 5.17152e-19 -0.0099087)
(4.7763e-19 6.94034e-19 -0.00982014)
(3.98482e-19 7.23507e-19 -0.0097298)
(4.39491e-19 6.5324e-19 -0.00963759)
(5.35975e-19 5.42723e-19 -0.00954341)
(5.37403e-19 5.16045e-19 -0.00944717)
(4.79578e-19 5.50915e-19 -0.00934876)
(4.63881e-19 5.32613e-19 -0.00924806)
(4.7659e-19 4.86753e-19 -0.00914496)
(3.87928e-19 5.37076e-19 -0.00903933)
(2.37357e-19 6.3723e-19 -0.00893102)
(5.91336e-20 7.62294e-19 -0.0088199)
(-2.18205e-20 8.58149e-19 -0.0127502)
(1.48566e-19 7.13574e-19 -0.0126981)
(3.13064e-19 5.75522e-19 -0.0126457)
(4.31837e-19 4.95789e-19 -0.0125928)
(4.48695e-19 5.0076e-19 -0.0125395)
(4.04241e-19 5.62661e-19 -0.0124858)
(1.65561e-19 8.01167e-19 -0.0124316)
(4.00455e-20 9.66081e-19 -0.0123769)
(3.10678e-19 7.93425e-19 -0.0123218)
(7.4587e-19 4.8496e-19 -0.0122661)
(1.0435e-18 2.84475e-19 -0.0122099)
(1.06584e-18 3.19073e-19 -0.0121532)
(8.29001e-19 6.09842e-19 -0.0120959)
(2.76317e-19 1.18783e-18 -0.0120381)
(-2.29031e-19 1.69816e-18 -0.0119797)
(-3.2407e-19 1.82177e-18 -0.0119207)
(-1.24028e-19 1.64687e-18 -0.0118611)
(1.38783e-19 1.44138e-18 -0.0118009)
(2.16313e-19 1.39074e-18 -0.0117401)
(9.08665e-20 1.50877e-18 -0.0116787)
(-9.29216e-20 1.67842e-18 -0.0116165)
(-1.76424e-19 1.76375e-18 -0.0115537)
(-1.59624e-19 1.77773e-18 -0.0114901)
(-1.50383e-19 1.80946e-18 -0.0114258)
(-7.911e-20 1.78507e-18 -0.0113608)
(1.22244e-19 1.64399e-18 -0.011295)
(3.65014e-19 1.48198e-18 -0.0112283)
(4.81427e-19 1.42048e-18 -0.0111608)
(5.23724e-19 1.38219e-18 -0.0110924)
(6.57574e-19 1.23931e-18 -0.0110231)
(9.28384e-19 9.90626e-19 -0.0109529)
(1.12557e-18 8.23254e-19 -0.0108817)
(1.06048e-18 8.80731e-19 -0.0108095)
(9.18084e-19 1.01846e-18 -0.0107362)
(7.38452e-19 1.17318e-18 -0.0106618)
(5.66963e-19 1.29168e-18 -0.0105862)
(5.476e-19 1.25385e-18 -0.0105095)
(7.05965e-19 1.0636e-18 -0.0104315)
(8.03819e-19 9.31487e-19 -0.0103522)
(7.26061e-19 9.57406e-19 -0.0102716)
(6.23869e-19 1.00771e-18 -0.0101895)
(6.53551e-19 9.43686e-19 -0.010106)
(6.47248e-19 9.07135e-19 -0.0100209)
(4.95936e-19 1.01407e-18 -0.00993421)
(3.97062e-19 1.0867e-18 -0.00984581)
(4.24239e-19 1.05104e-18 -0.00975563)
(4.36385e-19 1.02311e-18 -0.00966358)
(3.17849e-19 1.10098e-18 -0.00956957)
(3.51318e-19 1.03989e-18 -0.0094735)
(3.8552e-19 9.79202e-19 -0.00937526)
(3.03029e-19 1.02111e-18 -0.00927475)
(3.73745e-19 9.21338e-19 -0.00917184)
(4.80041e-19 7.9341e-19 -0.0090664)
(5.17666e-19 7.49977e-19 -0.0089583)
(5.10472e-19 7.62143e-19 -0.00884738)
(4.72719e-19 8.18115e-19 -0.00873349)
(5.17764e-19 8.06385e-19 -0.00861646)
(7.2696e-19 6.4115e-19 -0.00849612)
(8.39426e-19 5.42146e-19 -0.00837226)
(-8.41114e-19 2.15739e-18 -0.0127714)
(-7.46524e-19 2.10879e-18 -0.0127194)
(-5.58725e-19 1.97917e-18 -0.012667)
(-3.91903e-19 1.82372e-18 -0.0126142)
(-3.85493e-19 1.80144e-18 -0.0125609)
(-3.50657e-19 1.74111e-18 -0.0125073)
(-2.69013e-19 1.65037e-18 -0.0124531)
(-4.59061e-19 1.81871e-18 -0.0123985)
(-5.88232e-19 1.89504e-18 -0.0123434)
(-3.19745e-19 1.65989e-18 -0.0122878)
(-3.36459e-20 1.40602e-18 -0.0122317)
(7.79663e-20 1.28351e-18 -0.0121751)
(1.1873e-19 1.22063e-18 -0.0121179)
(1.61371e-19 1.18165e-18 -0.0120601)
(8.46042e-20 1.27856e-18 -0.0120018)
(2.41052e-20 1.38734e-18 -0.0119429)
(1.71905e-19 1.31809e-18 -0.0118834)
(3.40941e-19 1.20169e-18 -0.0118233)
(4.19219e-19 1.13661e-18 -0.0117625)
(4.88587e-19 1.0828e-18 -0.0117011)
(4.97551e-19 1.06708e-18 -0.011639)
(6.06507e-19 9.75821e-19 -0.0115763)
(7.52804e-19 8.80874e-19 -0.0115128)
(7.69534e-19 9.24532e-19 -0.0114486)
(8.36877e-19 9.39109e-19 -0.0113836)
(9.72899e-19 8.87395e-19 -0.0113179)
(8.08193e-19 1.03678e-18 -0.0112513)
(2.89847e-19 1.40958e-18 -0.0111839)
(-9.63539e-20 1.67149e-18 -0.0111156)
(-7.75202e-20 1.62887e-18 -0.0110464)
(1.71306e-19 1.38867e-18 -0.0109763)
(2.82682e-19 1.21525e-18 -0.0109052)
(3.44935e-19 1.06398e-18 -0.010833)
(4.73465e-19 8.83364e-19 -0.0107598)
(3.44539e-19 9.23506e-19 -0.0106855)
(-4.45339e-20 1.19524e-18 -0.0106101)
(-2.41334e-19 1.31148e-18 -0.0105335)
(-9.9245e-20 1.16358e-18 -0.0104556)
(1.74001e-20 1.03761e-18 -0.0103765)
(6.45183e-20 9.72216e-19 -0.0102959)
(1.34534e-19 8.94323e-19 -0.010214)
(1.56249e-19 8.70148e-19 -0.0101306)
(1.36542e-19 8.70057e-19 -0.0100457)
(8.22373e-20 9.05934e-19 -0.0099591)
(1.25301e-21 9.88741e-19 -0.00987085)
(-7.01254e-20 1.07511e-18 -0.00978081)
(-1.28633e-19 1.137e-18 -0.00968892)
(-1.29236e-19 1.14206e-18 -0.00959507)
(-1.32187e-19 1.13917e-18 -0.00949916)
(-1.57748e-19 1.14319e-18 -0.0094011)
(-1.90734e-19 1.17001e-18 -0.00930076)
(-1.48646e-19 1.13847e-18 -0.00919803)
(6.43827e-20 9.61073e-19 -0.00909277)
(3.17027e-19 7.45661e-19 -0.00898486)
(4.68373e-19 6.08079e-19 -0.00887414)
(5.90452e-19 5.0307e-19 -0.00876045)
(6.81268e-19 4.39034e-19 -0.00864362)
(6.51864e-19 4.67513e-19 -0.00852349)
(5.71236e-19 5.18542e-19 -0.00839984)
(5.48925e-19 5.13602e-19 -0.00827248)
(-5.91399e-19 4.92851e-20 -0.0127921)
(-5.83605e-19 1.82844e-19 -0.0127401)
(-5.90432e-19 3.19966e-19 -0.0126877)
(-5.90511e-19 3.95783e-19 -0.0126349)
(-5.84525e-19 4.70108e-19 -0.0125818)
(-6.57975e-19 6.08558e-19 -0.0125281)
(-6.12138e-19 6.8012e-19 -0.0124741)
(-7.30911e-19 8.47441e-19 -0.0124196)
(-6.57345e-19 9.17767e-19 -0.0123645)
(-2.2101e-19 6.92347e-19 -0.012309)
(5.83459e-20 5.74938e-19 -0.0122529)
(8.26324e-20 6.1783e-19 -0.0121963)
(-1.65095e-20 7.73145e-19 -0.0121392)
(-2.56283e-19 1.0156e-18 -0.0120815)
(-4.39987e-19 1.20853e-18 -0.0120233)
(-4.86788e-19 1.31381e-18 -0.0119644)
(-5.13325e-19 1.40444e-18 -0.011905)
(-5.33165e-19 1.47635e-18 -0.011845)
(-5.43238e-19 1.54162e-18 -0.0117843)
(-7.08534e-19 1.7095e-18 -0.011723)
(-9.43495e-19 1.89701e-18 -0.011661)
(-8.60075e-19 1.81541e-18 -0.0115983)
(-4.98039e-19 1.50209e-18 -0.0115349)
(-2.4866e-19 1.26772e-18 -0.0114708)
(-2.30765e-19 1.21812e-18 -0.0114059)
(-4.28772e-19 1.32487e-18 -0.0113402)
(-9.21986e-19 1.65766e-18 -0.0112737)
(-1.27935e-18 1.91411e-18 -0.0112064)
(-1.09465e-18 1.78883e-18 -0.0111382)
(-8.50333e-19 1.62548e-18 -0.011069)
(-9.42982e-19 1.70779e-18 -0.010999)
(-1.16107e-18 1.86716e-18 -0.010928)
(-1.12803e-18 1.8497e-18 -0.0108559)
(-9.86754e-19 1.72084e-18 -0.0107828)
(-9.2103e-19 1.63305e-18 -0.0107087)
(-8.95974e-19 1.59674e-18 -0.0106333)
(-7.62556e-19 1.49918e-18 -0.0105568)
(-4.65101e-19 1.26148e-18 -0.0104791)
(-3.14234e-19 1.10742e-18 -0.0104)
(-3.11352e-19 1.06292e-18 -0.0103196)
(-2.36092e-19 9.74216e-19 -0.0102378)
(-1.63514e-19 8.86804e-19 -0.0101545)
(-1.89671e-19 8.70537e-19 -0.0100697)
(-6.42127e-20 7.40307e-19 -0.0099833)
(1.43066e-19 5.59731e-19 -0.00989518)
(1.25886e-19 5.62962e-19 -0.00980529)
(-7.81794e-20 7.13496e-19 -0.00971354)
(-3.68539e-19 9.25337e-19 -0.00961984)
(-5.12008e-19 1.02425e-18 -0.00952409)
(-4.00287e-19 9.31329e-19 -0.00942619)
(-2.57369e-19 8.24292e-19 -0.00932601)
(-1.58719e-19 7.55891e-19 -0.00922345)
(-1.22939e-19 7.27044e-19 -0.00911837)
(-2.01153e-19 7.68966e-19 -0.00901064)
(-1.95582e-19 7.3526e-19 -0.0089001)
(-2.66109e-20 5.6845e-19 -0.0087866)
(5.25547e-20 4.6313e-19 -0.00866997)
(-6.00456e-20 5.03676e-19 -0.00855003)
(-2.14847e-19 5.81762e-19 -0.00842659)
(-2.71352e-19 5.86923e-19 -0.00829943)
(-1.23434e-19 4.36867e-19 -0.00816834)
(1.49514e-19 2.02106e-19 -0.00803308)
(3.43485e-19 4.02347e-20 -0.0078934)
(3.61833e-19 2.50273e-20 -0.00774904)
(3.08729e-19 5.99171e-20 -0.00759971)
(3.0913e-19 3.63827e-20 -0.00744511)
(3.91691e-19 -5.15196e-20 -0.00728494)
(4.72056e-19 -1.31505e-19 -0.00711886)
(5.23886e-19 -1.89108e-19 -0.00694653)
(5.92037e-19 -2.57201e-19 -0.0067676)
(5.98277e-19 -2.77365e-19 -0.00658164)
(5.30509e-19 -2.46156e-19 -0.00638789)
(4.84588e-19 -2.38044e-19 -0.00618556)
(5.13681e-19 -2.93013e-19 -0.00597411)
(5.59963e-19 -3.56882e-19 -0.00575306)
(5.86141e-19 -4.04429e-19 -0.00552202)
(5.3891e-19 -3.97778e-19 -0.00528073)
(4.04186e-19 -3.21653e-19 -0.00502912)
(3.10569e-19 -2.71982e-19 -0.00476742)
(2.5033e-19 -2.41729e-19 -0.00449617)
(1.89256e-19 -2.04716e-19 -0.00421628)
(1.56586e-19 -1.83722e-19 -0.00392902)
(1.54381e-19 -1.81046e-19 -0.00363598)
(1.57109e-19 -1.76517e-19 -0.0033389)
(1.58776e-19 -1.71647e-19 -0.00303952)
(1.33212e-19 -1.41319e-19 -0.00273943)
(1.12931e-19 -1.09361e-19 -0.00243997)
(1.26087e-19 -1.03076e-19 -0.00214216)
(1.38048e-19 -9.35302e-20 -0.00184669)
(1.08607e-19 -4.96821e-20 -0.00155403)
(6.59924e-20 3.52069e-21 -0.0012644)
(4.68791e-20 4.03854e-20 -0.000977945)
(4.68685e-20 6.86783e-20 -0.000694686)
(6.42928e-20 9.14773e-20 -0.000414622)
(-5.76689e-21 -6.32921e-21 -0.000137729)
(-2.17447e-19 5.08339e-19 -0.0128121)
(-1.39722e-20 4.44651e-19 -0.0127602)
(-1.14846e-19 5.80035e-19 -0.0127078)
(-1.59872e-19 6.67866e-19 -0.0126551)
(-8.10021e-20 6.29778e-19 -0.012602)
(1.39816e-19 5.37536e-19 -0.0125484)
(2.33526e-19 5.27965e-19 -0.0124944)
(1.44467e-19 6.30853e-19 -0.0124399)
(1.12317e-19 7.08666e-19 -0.012385)
(1.81706e-19 6.45662e-19 -0.0123295)
(2.50655e-19 5.24618e-19 -0.0122735)
(3.01239e-19 4.1715e-19 -0.012217)
(3.53939e-19 3.42361e-19 -0.0121599)
(2.40167e-19 4.09774e-19 -0.0121023)
(1.4004e-19 4.37339e-19 -0.0120441)
(8.64764e-20 4.2805e-19 -0.0119853)
(9.55289e-20 3.82663e-19 -0.011926)
(1.54681e-19 3.11203e-19 -0.011866)
(1.24244e-19 2.88727e-19 -0.0118054)
(-1.28085e-19 4.21004e-19 -0.0117441)
(-5.29659e-19 6.91802e-19 -0.0116822)
(-7.6304e-19 8.5493e-19 -0.0116196)
(-8.24272e-19 8.70692e-19 -0.0115563)
(-8.2957e-19 8.17869e-19 -0.0114922)
(-7.90356e-19 7.44898e-19 -0.0114274)
(-7.29439e-19 6.60907e-19 -0.0113618)
(-7.09037e-19 6.3126e-19 -0.0112954)
(-8.08301e-19 7.50942e-19 -0.0112281)
(-9.13835e-19 8.87122e-19 -0.01116)
(-8.9621e-19 9.26913e-19 -0.011091)
(-8.1686e-19 9.20504e-19 -0.011021)
(-6.56429e-19 8.7578e-19 -0.0109501)
(-6.11289e-19 9.41207e-19 -0.0108782)
(-7.55641e-19 1.14387e-18 -0.0108052)
(-7.72762e-19 1.26947e-18 -0.0107311)
(-7.60355e-19 1.36783e-18 -0.0106558)
(-8.42616e-19 1.50829e-18 -0.0105794)
(-9.97782e-19 1.67201e-18 -0.0105018)
(-1.098e-18 1.77543e-18 -0.0104228)
(-9.36163e-19 1.68408e-18 -0.0103426)
(-7.22744e-19 1.55444e-18 -0.0102609)
(-7.20251e-19 1.56572e-18 -0.0101777)
(-7.13897e-19 1.57681e-18 -0.010093)
(-5.8586e-19 1.49594e-18 -0.0100067)
(-4.37756e-19 1.39048e-18 -0.00991873)
(-3.95546e-19 1.34893e-18 -0.00982898)
(-4.80688e-19 1.41179e-18 -0.00973737)
(-5.01503e-19 1.45804e-18 -0.00964382)
(-3.91031e-19 1.44523e-18 -0.00954822)
(-2.02778e-19 1.38696e-18 -0.00945047)
(-5.85352e-20 1.34282e-18 -0.00935046)
(-4.57873e-20 1.38733e-18 -0.00924806)
(-6.99018e-20 1.46503e-18 -0.00914315)
(-5.25153e-20 1.51058e-18 -0.00903558)
(-8.03587e-21 1.53227e-18 -0.00892522)
(2.89349e-20 1.5496e-18 -0.00881191)
(5.0976e-20 1.56993e-18 -0.00869546)
(1.0341e-19 1.56139e-18 -0.00857571)
(1.98504e-19 1.51941e-18 -0.00845246)
(3.57201e-19 1.43395e-18 -0.0083255)
(5.96284e-19 1.28846e-18 -0.00819461)
(8.18712e-19 1.1524e-18 -0.00805955)
(9.9716e-19 1.04457e-18 -0.00792007)
(1.08647e-18 1.00357e-18 -0.0077759)
(9.34e-19 1.15029e-18 -0.00762676)
(7.44999e-19 1.32989e-18 -0.00747235)
(7.42639e-19 1.37113e-18 -0.00731235)
(8.19645e-19 1.34657e-18 -0.00714643)
(8.93125e-19 1.31557e-18 -0.00697426)
(9.43308e-19 1.28849e-18 -0.00679545)
(8.90147e-19 1.33194e-18 -0.00660959)
(7.73736e-19 1.42206e-18 -0.00641596)
(7.16303e-19 1.47297e-18 -0.00621377)
(7.72804e-19 1.43742e-18 -0.00600241)
(8.40486e-19 1.38662e-18 -0.0057814)
(8.50527e-19 1.3688e-18 -0.00555031)
(8.68166e-19 1.33577e-18 -0.00530887)
(8.61135e-19 1.3197e-18 -0.00505698)
(8.57134e-19 1.29858e-18 -0.00479483)
(8.55121e-19 1.26832e-18 -0.00452292)
(8.29415e-19 1.2439e-18 -0.00424216)
(7.95878e-19 1.21619e-18 -0.00395381)
(7.68865e-19 1.17656e-18 -0.00365945)
(7.18075e-19 1.14635e-18 -0.00336084)
(6.42089e-19 1.12441e-18 -0.00305976)
(6.07525e-19 1.05854e-18 -0.00275786)
(5.96692e-19 9.65929e-19 -0.00245649)
(5.74944e-19 8.71913e-19 -0.00215673)
(5.46995e-19 7.68901e-19 -0.00185929)
(4.89285e-19 6.72693e-19 -0.00156464)
(4.14039e-19 5.74183e-19 -0.00127305)
(3.46843e-19 4.5379e-19 -0.000984642)
(2.63435e-19 3.2847e-19 -0.000699447)
(1.67826e-19 1.97186e-19 -0.000417466)
(5.73528e-20 7.68959e-20 -0.000138675)
(2.20848e-19 1.57052e-19 -0.0128314)
(1.23221e-19 1.91877e-19 -0.0127795)
(-4.07841e-20 2.87141e-19 -0.0127273)
(-3.26648e-19 4.76456e-19 -0.0126746)
(-3.39244e-19 4.84795e-19 -0.0126215)
(-2.38238e-19 4.37018e-19 -0.012568)
(-3.30568e-19 4.88813e-19 -0.012514)
(-4.77192e-19 5.91308e-19 -0.0124596)
(-7.87501e-19 7.75693e-19 -0.0124047)
(-1.12677e-18 9.55781e-19 -0.0123493)
(-1.22695e-18 9.46833e-19 -0.0122934)
(-1.04423e-18 7.63813e-19 -0.0122369)
(-8.56748e-19 5.7358e-19 -0.0121799)
(-1.18936e-18 7.06881e-19 -0.0121224)
(-1.63221e-18 9.24009e-19 -0.0120642)
(-1.70825e-18 9.07403e-19 -0.0120055)
(-1.68916e-18 8.29766e-19 -0.0119462)
(-1.8029e-18 8.20703e-19 -0.0118863)
(-1.96772e-18 8.41542e-19 -0.0118258)
(-1.9738e-18 7.46713e-19 -0.0117646)
(-1.95476e-18 6.48997e-19 -0.0117027)
(-1.99743e-18 6.1234e-19 -0.0116402)
(-2.00748e-18 5.66894e-19 -0.0115769)
(-1.85217e-18 4.29314e-19 -0.011513)
(-1.7035e-18 2.99177e-19 -0.0114482)
(-1.67291e-18 2.46148e-19 -0.0113827)
(-1.52122e-18 1.05792e-19 -0.0113163)
(-1.33856e-18 -3.5793e-20 -0.0112492)
(-1.14686e-18 -1.50609e-19 -0.0111811)
(-1.02549e-18 -2.171e-19 -0.0111122)
(-1.04654e-18 -2.15406e-19 -0.0110423)
(-9.5988e-19 -2.93839e-19 -0.0109715)
(-7.68631e-19 -4.38852e-19 -0.0108996)
(-5.43106e-19 -5.84595e-19 -0.0108267)
(-4.57219e-19 -6.30734e-19 -0.0107527)
(-7.54173e-19 -4.1687e-19 -0.0106776)
(-1.11346e-18 -1.36083e-19 -0.0106013)
(-1.23137e-18 4.74198e-21 -0.0105237)
(-1.27995e-18 1.05271e-19 -0.0104449)
(-1.31511e-18 1.88449e-19 -0.0103647)
(-1.32964e-18 2.47505e-19 -0.0102831)
(-1.31459e-18 2.9176e-19 -0.0102001)
(-1.33288e-18 3.66481e-19 -0.0101155)
(-1.30796e-18 4.0875e-19 -0.0100293)
(-1.27515e-18 4.35632e-19 -0.00994146)
(-1.25788e-18 4.67597e-19 -0.00985183)
(-1.02097e-18 3.44359e-19 -0.00976036)
(-6.42923e-19 1.21152e-19 -0.00966694)
(-3.27699e-19 -6.0234e-20 -0.00957149)
(-3.17734e-19 -3.17081e-20 -0.00947388)
(-4.75553e-19 1.04918e-19 -0.00937402)
(-4.30223e-19 1.0211e-19 -0.00927178)
(-3.90469e-19 1.08764e-19 -0.00916703)
(-5.65289e-19 2.67414e-19 -0.00905963)
(-7.25124e-19 4.11153e-19 -0.00894944)
(-7.5256e-19 4.63314e-19 -0.0088363)
(-8.17033e-19 5.42722e-19 -0.00872003)
(-9.76646e-19 6.87835e-19 -0.00860046)
(-1.07379e-18 7.86765e-19 -0.0084774)
(-1.08333e-18 8.232e-19 -0.00835062)
(-9.68373e-19 7.58711e-19 -0.00821992)
(-7.67194e-19 6.18444e-19 -0.00808505)
(-5.85171e-19 4.88584e-19 -0.00794576)
(-4.21143e-19 3.68143e-19 -0.00780179)
(-2.79671e-19 2.64322e-19 -0.00765283)
(-1.9854e-19 2.13999e-19 -0.0074986)
(-1.91942e-19 2.18101e-19 -0.00733877)
(-2.86894e-19 2.89923e-19 -0.00717301)
(-4.53436e-19 4.10713e-19 -0.00700098)
(-5.34192e-19 4.70698e-19 -0.00682229)
(-4.53187e-19 4.16658e-19 -0.00663653)
(-3.18233e-19 3.30706e-19 -0.00644303)
(-2.07628e-19 2.6406e-19 -0.00624097)
(-1.48515e-19 2.35615e-19 -0.00602971)
(-1.65627e-19 2.56686e-19 -0.00580874)
(-1.77293e-19 2.75123e-19 -0.00557762)
(-1.26444e-19 2.4614e-19 -0.00533604)
(-8.46483e-20 2.24935e-19 -0.00508389)
(-9.60738e-20 2.40886e-19 -0.00482131)
(-1.41054e-19 2.83123e-19 -0.0045488)
(-1.88912e-19 3.30802e-19 -0.00426721)
(-1.7421e-19 3.38339e-19 -0.00397782)
(-1.17195e-19 3.17038e-19 -0.00368219)
(-9.78274e-20 3.19993e-19 -0.00338211)
(-9.61301e-20 3.36823e-19 -0.0030794)
(-4.48854e-20 3.19229e-19 -0.00277573)
(5.11421e-20 2.66016e-19 -0.00247253)
(1.27524e-19 2.24685e-19 -0.00217086)
(1.63069e-19 2.06612e-19 -0.00187151)
(1.62937e-19 2.06095e-19 -0.00157495)
(1.41244e-19 2.11079e-19 -0.00128145)
(1.24152e-19 2.01389e-19 -0.000991142)
(1.19843e-19 1.67205e-19 -0.000704069)
(9.11406e-20 1.34349e-19 -0.000420227)
(2.56124e-20 3.08222e-20 -0.000139594)
(-4.54934e-19 5.48367e-19 -0.01285)
(-4.52288e-19 3.87809e-19 -0.0127982)
(-5.09464e-19 2.34312e-19 -0.012746)
(-6.09309e-19 1.4034e-19 -0.0126933)
(-5.38729e-19 -3.14815e-21 -0.0126403)
(-4.34938e-19 -1.59356e-19 -0.0125868)
(-4.45655e-19 -2.14519e-19 -0.0125329)
(-6.26971e-19 -1.45441e-19 -0.0124785)
(-9.56107e-19 5.98544e-20 -0.0124237)
(-1.19872e-18 2.4263e-19 -0.0123684)
(-1.21869e-18 2.90866e-19 -0.0123125)
(-1.08195e-18 2.32087e-19 -0.0122561)
(-1.11014e-18 2.51605e-19 -0.0121992)
(-1.22227e-18 3.07931e-19 -0.0121417)
(-1.15504e-18 3.02738e-19 -0.0120836)
(-1.10842e-18 3.16724e-19 -0.012025)
(-1.15648e-18 3.98526e-19 -0.0119657)
(-1.18014e-18 4.59606e-19 -0.0119059)
(-1.22671e-18 5.43084e-19 -0.0118454)
(-1.38393e-18 7.00143e-19 -0.0117843)
(-1.49937e-18 8.32093e-19 -0.0117225)
(-1.44493e-18 8.65993e-19 -0.01166)
(-1.22051e-18 7.88542e-19 -0.0115968)
(-1.00479e-18 6.98629e-19 -0.0115329)
(-9.05983e-19 6.50022e-19 -0.0114682)
(-8.65795e-19 6.34896e-19 -0.0114028)
(-7.22936e-19 5.47988e-19 -0.0113365)
(-4.33464e-19 3.73639e-19 -0.0112694)
(-3.03687e-19 2.93179e-19 -0.0112014)
(-5.19024e-19 4.06913e-19 -0.0111326)
(-7.42669e-19 5.13486e-19 -0.0110628)
(-6.59238e-19 4.15348e-19 -0.010992)
(-4.64461e-19 2.33985e-19 -0.0109202)
(-4.54788e-19 1.6417e-19 -0.0108474)
(-4.97542e-19 1.11529e-19 -0.0107735)
(-3.36097e-19 -6.67789e-20 -0.0106985)
(-9.20207e-20 -2.74214e-19 -0.0106222)
(-8.44551e-20 -3.1482e-19 -0.0105448)
(-2.87021e-19 -2.15009e-19 -0.0104661)
(-3.66962e-19 -1.9341e-19 -0.010386)
(-2.81519e-19 -2.90857e-19 -0.0103045)
(-2.21519e-19 -3.54615e-19 -0.0102216)
(-2.29796e-19 -3.62621e-19 -0.0101371)
(-2.7021e-19 -3.39442e-19 -0.010051)
(-3.10525e-19 -3.23606e-19 -0.0099633)
(-4.08252e-19 -2.61797e-19 -0.0098738)
(-6.19098e-19 -1.31161e-19 -0.00978245)
(-7.2828e-19 -8.22869e-20 -0.00968917)
(-6.57075e-19 -1.54932e-19 -0.00959385)
(-5.75284e-19 -2.33697e-19 -0.00949638)
(-5.50393e-19 -2.68788e-19 -0.00939666)
(-5.33907e-19 -3.03271e-19 -0.00929457)
(-4.94239e-19 -3.56236e-19 -0.00918997)
(-5.20526e-19 -3.59358e-19 -0.00908273)
(-5.95013e-19 -3.27404e-19 -0.0089727)
(-5.99732e-19 -3.4586e-19 -0.00885973)
(-5.84425e-19 -3.78711e-19 -0.00874363)
(-5.84315e-19 -3.91581e-19 -0.00862424)
(-5.7122e-19 -4.06309e-19 -0.00850135)
(-6.48739e-19 -3.68123e-19 -0.00837475)
(-8.04626e-19 -2.79879e-19 -0.00824423)
(-7.85536e-19 -3.03735e-19 -0.00810955)
(-6.46127e-19 -4.10461e-19 -0.00797044)
(-5.62197e-19 -4.88448e-19 -0.00782665)
(-5.43675e-19 -5.3171e-19 -0.00767787)
(-5.50744e-19 -5.59548e-19 -0.00752382)
(-5.66837e-19 -5.79831e-19 -0.00736415)
(-5.48461e-19 -6.17312e-19 -0.00719855)
(-4.93523e-19 -6.69397e-19 -0.00702665)
(-4.75295e-19 -6.89061e-19 -0.00684808)
(-4.86442e-19 -6.86089e-19 -0.00666243)
(-4.94541e-19 -6.80729e-19 -0.00646904)
(-5.01452e-19 -6.77683e-19 -0.00626712)
(-5.03047e-19 -6.79864e-19 -0.00605596)
(-5.00493e-19 -6.81856e-19 -0.00583504)
(-5.03743e-19 -6.70312e-19 -0.00560389)
(-5.11214e-19 -6.52037e-19 -0.00536219)
(-4.83882e-19 -6.52401e-19 -0.0051098)
(-3.99123e-19 -6.85547e-19 -0.00484683)
(-2.86682e-19 -7.30724e-19 -0.00457374)
(-1.9283e-19 -7.53842e-19 -0.00429138)
(-1.82053e-19 -7.16585e-19 -0.00400099)
(-2.25163e-19 -6.368e-19 -0.00370415)
(-2.64379e-19 -5.5135e-19 -0.00340267)
(-2.69073e-19 -4.78265e-19 -0.00309839)
(-2.46626e-19 -4.12857e-19 -0.00279302)
(-2.02779e-19 -3.53158e-19 -0.00248804)
(-1.3763e-19 -2.98912e-19 -0.00218454)
(-7.91817e-20 -2.3148e-19 -0.00188334)