/*--------------------------------*- C++ -*----------------------------------*\
  =========                 |
  \\      /  F ield         | OpenFOAM: The Open Source CFD Toolbox
   \\    /   O peration     | Website:  https://openfoam.org
    \\  /    A nd           | Version:  7
     \\/     M anipulation  |
\*---------------------------------------------------------------------------*/
FoamFile
{
    version     2.0;
    format      ascii;
    class       volVectorField;
    location    "264000";
    object      vorticity;
}
// * * * * * * * * * * * * * * * * * * * * * * * * * * * * * * * * * * * * * //

dimensions      [0 0 -1 0 0 0 0];

internalField   nonuniform List<vector> 
4782
(
(-0.0733708 -0.0552409 3.62816e-17)
(-0.0758804 -0.0571253 3.64628e-17)
(-0.0785223 -0.059109 3.65831e-17)
(-0.081306 -0.0611992 3.74295e-17)
(-0.0842417 -0.0634034 3.86425e-17)
(-0.0873406 -0.0657302 3.90817e-17)
(-0.0906148 -0.0681885 3.91642e-17)
(-0.0940775 -0.0707883 3.92992e-17)
(-0.0977429 -0.0735402 4.15186e-17)
(-0.101626 -0.0764559 4.55835e-17)
(-0.0230472 -0.0185768 1.18043e-17)
(-0.0235236 -0.0189586 1.30847e-17)
(-0.0240126 -0.0193505 1.43661e-17)
(-0.0245146 -0.0197528 1.51548e-17)
(-0.0250302 -0.020166 1.54198e-17)
(-0.0255623 -0.0205925 1.53744e-17)
(-0.0261153 -0.0210359 1.50705e-17)
(-0.0266897 -0.0214968 1.45597e-17)
(-0.0272833 -0.021973 1.39189e-17)
(-0.0278945 -0.0224634 1.27957e-17)
(-0.0285228 -0.0229675 1.13557e-17)
(-0.0291686 -0.0234856 1.06791e-17)
(-0.0298325 -0.0240181 1.0356e-17)
(-0.0305154 -0.0245658 9.85838e-18)
(-0.0312181 -0.0251295 9.98304e-18)
(-0.0319419 -0.0257099 1.08425e-17)
(-0.0326877 -0.026308 1.17744e-17)
(-0.0334569 -0.0269247 1.23662e-17)
(-0.0342505 -0.027561 1.2199e-17)
(-0.0350699 -0.028218 1.1771e-17)
(-0.0359165 -0.0288968 1.0757e-17)
(-0.0367917 -0.0295984 9.39088e-18)
(-0.0376969 -0.0303241 8.63839e-18)
(-0.0386338 -0.0310751 7.94965e-18)
(-0.039604 -0.0318529 6.96005e-18)
(-0.0406093 -0.0326587 6.04809e-18)
(-0.0416516 -0.0334943 5.34746e-18)
(-0.0427329 -0.034361 5.15872e-18)
(-0.0438553 -0.0352607 5.05157e-18)
(-0.0450211 -0.0361951 4.70314e-18)
(-0.0462328 -0.0371663 4.75691e-18)
(-0.0474929 -0.0381762 5.47893e-18)
(-0.0488042 -0.0392272 6.50381e-18)
(-0.0501697 -0.0403216 7.40048e-18)
(-0.0515926 -0.041462 7.8692e-18)
(-0.0530763 -0.0426511 8.02695e-18)
(-0.0546246 -0.0438919 8.49976e-18)
(-0.0562413 -0.0451875 9.12208e-18)
(-0.0579307 -0.0465414 8.92489e-18)
(-0.0596975 -0.0479572 8.01915e-18)
(-0.0615466 -0.0494389 7.05355e-18)
(-0.0634833 -0.0509908 5.83374e-18)
(-0.0655134 -0.0526175 4.15565e-18)
(-0.0676431 -0.0543241 3.19472e-18)
(-0.0698793 -0.0561158 2.61707e-18)
(-0.0722292 -0.0579986 2.34716e-18)
(-0.0747007 -0.0599789 1.00446e-18)
(-0.0773024 -0.0620634 -8.6114e-19)
(-0.0800437 -0.0642597 -3.30381e-18)
(-0.0829345 -0.0665758 -5.52021e-18)
(-0.085986 -0.0690204 -6.69871e-18)
(-0.0892098 -0.0716032 -8.52159e-18)
(-0.092619 -0.0743344 -1.11828e-17)
(-0.0962276 -0.0772253 -1.24891e-17)
(-0.100051 -0.0802879 -1.23292e-17)
(-0.0226534 -0.0194303 1.43392e-17)
(-0.0231216 -0.0198302 1.24237e-17)
(-0.023602 -0.0202406 1.03878e-17)
(-0.0240953 -0.0206621 8.7002e-18)
(-0.0246027 -0.0210957 7.5079e-18)
(-0.0251279 -0.0215446 7.24303e-18)
(-0.0256741 -0.0220119 8.32256e-18)
(-0.0262404 -0.0224965 9.99423e-18)
(-0.0268241 -0.0229961 1.15512e-17)
(-0.0274245 -0.0235098 1.25722e-17)
(-0.0280414 -0.0240376 1.24121e-17)
(-0.0286754 -0.0245799 1.14388e-17)
(-0.0293272 -0.0251373 1.06534e-17)
(-0.0299976 -0.0257106 1.05501e-17)
(-0.0306878 -0.0263007 1.12023e-17)
(-0.0313987 -0.0269084 1.21917e-17)
(-0.0321314 -0.0275348 1.35858e-17)
(-0.032887 -0.0281807 1.46096e-17)
(-0.0336669 -0.0288473 1.47142e-17)
(-0.0344722 -0.0295356 1.41826e-17)
(-0.0353043 -0.0302468 1.3525e-17)
(-0.0361645 -0.0309819 1.31385e-17)
(-0.0370544 -0.0317424 1.33908e-17)
(-0.0379754 -0.0325295 1.4505e-17)
(-0.0389292 -0.0333447 1.56e-17)
(-0.0399177 -0.0341894 1.61131e-17)
(-0.0409425 -0.0350651 1.56721e-17)
(-0.0420057 -0.0359737 1.43639e-17)
(-0.0431094 -0.0369168 1.28011e-17)
(-0.0442559 -0.0378964 1.19286e-17)
(-0.0454474 -0.0389146 1.07063e-17)
(-0.0466866 -0.0399734 8.52547e-18)
(-0.0479762 -0.0410753 6.58102e-18)
(-0.0493192 -0.0422228 4.61747e-18)
(-0.0507186 -0.0434185 2.53487e-18)
(-0.0521778 -0.0446653 9.69199e-19)
(-0.0537006 -0.0459663 3.08557e-20)
(-0.0552907 -0.0473248 -9.18792e-19)
(-0.0569523 -0.0487444 -2.10595e-18)
(-0.0586901 -0.050229 -3.68876e-18)
(-0.0605088 -0.0517827 -5.61805e-18)
(-0.0624136 -0.05341 -7.36621e-18)
(-0.0644104 -0.0551157 -8.9517e-18)
(-0.0665051 -0.0569052 -1.02156e-17)
(-0.0687045 -0.0587839 -1.06054e-17)
(-0.0710156 -0.0607582 -1.02633e-17)
(-0.0734464 -0.0628345 -1.07123e-17)
(-0.0760051 -0.0650201 -1.19677e-17)
(-0.078701 -0.0673227 -1.40976e-17)
(-0.0815438 -0.0697509 -1.67614e-17)
(-0.0845445 -0.0723138 -1.87889e-17)
(-0.0877145 -0.0750213 -2.04785e-17)
(-0.0910665 -0.0778841 -2.19092e-17)
(-0.0946142 -0.0809141 -1.96803e-17)
(-0.0983724 -0.0841238 -1.61824e-17)
(-0.0222378 -0.020279 4.95185e-18)
(-0.0226977 -0.0206967 4.9356e-18)
(-0.0231697 -0.0211256 4.19276e-18)
(-0.0236542 -0.0215666 2.85463e-18)
(-0.0241535 -0.0220221 1.52798e-18)
(-0.0246721 -0.0224959 3.12795e-19)
(-0.0252107 -0.022988 3.60226e-20)
(-0.0257669 -0.023496 1.10293e-18)
(-0.0263394 -0.0240184 2.75108e-18)
(-0.0269276 -0.0245549 4.44283e-18)
(-0.0275319 -0.0251058 6.12525e-18)
(-0.0281531 -0.0256719 8.01025e-18)
(-0.0287919 -0.0262538 9.96503e-18)
(-0.0294492 -0.0268525 1.13979e-17)
(-0.0301259 -0.0274688 1.26015e-17)
(-0.0308232 -0.0281037 1.41327e-17)
(-0.031542 -0.0287583 1.59273e-17)
(-0.0322834 -0.0294334 1.80363e-17)
(-0.0330488 -0.0301302 2.02506e-17)
(-0.0338391 -0.0308498 2.21996e-17)
(-0.0346559 -0.0315934 2.39599e-17)
(-0.0355003 -0.0323622 2.55282e-17)
(-0.0363739 -0.0331575 2.71623e-17)
(-0.0372781 -0.0339807 2.89393e-17)
(-0.0382146 -0.0348333 3.04744e-17)
(-0.0391852 -0.0357168 3.22053e-17)
(-0.0401915 -0.0366329 3.38163e-17)
(-0.0412355 -0.0375834 3.49259e-17)
(-0.0423194 -0.03857 3.52214e-17)
(-0.0434452 -0.0395949 3.50362e-17)
(-0.0446154 -0.0406601 3.45895e-17)
(-0.0458325 -0.041768 3.40817e-17)
(-0.047099 -0.0429209 3.36369e-17)
(-0.048418 -0.0441215 3.33498e-17)
(-0.0497925 -0.0453727 3.26537e-17)
(-0.0512258 -0.0466773 3.14112e-17)
(-0.0527215 -0.0480387 3.01214e-17)
(-0.0542833 -0.0494603 2.93216e-17)
(-0.0559154 -0.0509459 2.87894e-17)
(-0.0576223 -0.0524995 2.81878e-17)
(-0.0594087 -0.0541254 2.73058e-17)
(-0.0612797 -0.0558284 2.63069e-17)
(-0.063241 -0.0576134 2.60471e-17)
(-0.0652985 -0.059486 2.61647e-17)
(-0.0674587 -0.0614521 2.66498e-17)
(-0.0697287 -0.063518 2.70591e-17)
(-0.072116 -0.0656907 2.7259e-17)
(-0.074629 -0.0679777 2.65291e-17)
(-0.0772765 -0.0703871 2.50883e-17)
(-0.0800683 -0.0729277 2.33149e-17)
(-0.0830148 -0.0756091 2.10557e-17)
(-0.0861274 -0.0784416 1.84944e-17)
(-0.0894185 -0.0814365 1.53727e-17)
(-0.0929014 -0.0846058 1.73963e-17)
(-0.0965906 -0.0879628 2.30285e-17)
(-0.0224265 -0.0204866 1.91408e-17)
(-0.022875 -0.020924 2.2334e-17)
(-0.0233391 -0.0213761 2.47411e-17)
(-0.0238199 -0.0218446 2.60375e-17)
(-0.0243164 -0.0223289 2.65362e-17)
(-0.0248277 -0.0228283 2.58937e-17)
(-0.0253541 -0.0233423 2.42646e-17)
(-0.025896 -0.0238708 2.28207e-17)
(-0.0264534 -0.024414 2.17335e-17)
(-0.0270267 -0.0249722 2.16169e-17)
(-0.0276164 -0.025546 2.22748e-17)
(-0.0282231 -0.0261359 2.28963e-17)
(-0.0288474 -0.0267428 2.28519e-17)
(-0.0294902 -0.0273674 2.25112e-17)
(-0.0301523 -0.0280106 2.1589e-17)
(-0.0308347 -0.0286734 2.06762e-17)
(-0.0315384 -0.0293566 2.05566e-17)
(-0.0322645 -0.0300614 2.06294e-17)
(-0.0330141 -0.0307888 2.10893e-17)
(-0.0337884 -0.03154 2.19096e-17)
(-0.0345887 -0.0323163 2.31393e-17)
(-0.0354162 -0.0331188 2.37907e-17)
(-0.0362725 -0.0339491 2.38058e-17)
(-0.0371589 -0.0348084 2.3333e-17)
(-0.0380771 -0.0356984 2.33048e-17)
(-0.0390288 -0.0366206 2.36259e-17)
(-0.0400158 -0.0375769 2.39486e-17)
(-0.0410398 -0.0385689 2.37876e-17)
(-0.0421031 -0.0395987 2.35055e-17)
(-0.0432076 -0.0406684 2.36061e-17)
(-0.0443558 -0.0417802 2.3923e-17)
(-0.04555 -0.0429364 2.43128e-17)
(-0.046793 -0.0441397 2.47869e-17)
(-0.0480875 -0.0453926 2.55829e-17)
(-0.0494365 -0.0466983 2.67951e-17)
(-0.0508434 -0.0480598 2.76441e-17)
(-0.0523116 -0.0494805 2.79384e-17)
(-0.0538449 -0.050964 2.83866e-17)
(-0.0554472 -0.0525142 2.91151e-17)
(-0.057123 -0.0541354 3.02307e-17)
(-0.0588769 -0.055832 3.16202e-17)
(-0.0607139 -0.057609 3.30779e-17)
(-0.0626396 -0.0594715 3.35946e-17)
(-0.0646598 -0.0614254 3.33395e-17)
(-0.0667808 -0.0634768 3.26773e-17)
(-0.0690096 -0.0656323 3.16243e-17)
(-0.0713536 -0.0678992 3.08236e-17)
(-0.0738208 -0.0702852 3.04289e-17)
(-0.0764201 -0.0727988 3.03731e-17)
(-0.0791608 -0.0754492 2.96328e-17)
(-0.0820532 -0.0782464 2.77918e-17)
(-0.0851084 -0.0812009 2.53531e-17)
(-0.0883385 -0.0843247 2.17896e-17)
(-0.0917564 -0.0876301 2.20681e-17)
(-0.0953763 -0.091131 2.45072e-17)
(-0.0204866 -0.0224265 1.25727e-17)
(-0.020924 -0.022875 1.55477e-17)
(-0.0213761 -0.0233391 1.72608e-17)
(-0.0218446 -0.0238199 1.83436e-17)
(-0.0223289 -0.0243164 1.89228e-17)
(-0.0228283 -0.0248277 1.90096e-17)
(-0.0233424 -0.0253541 1.86263e-17)
(-0.0238708 -0.025896 1.78454e-17)
(-0.024414 -0.0264534 1.77059e-17)
(-0.0249722 -0.0270267 1.86478e-17)
(-0.025546 -0.0276164 2.01055e-17)
(-0.0261359 -0.0282231 2.12015e-17)
(-0.0267428 -0.0288474 2.15492e-17)
(-0.0273674 -0.0294902 2.06956e-17)
(-0.0280106 -0.0301523 1.86314e-17)
(-0.0286734 -0.0308347 1.66141e-17)
(-0.0293566 -0.0315384 1.48125e-17)
(-0.0300614 -0.0322645 1.32626e-17)
(-0.0307888 -0.0330141 1.24616e-17)
(-0.03154 -0.0337884 1.16355e-17)
(-0.0323163 -0.0345886 1.03742e-17)
(-0.0331188 -0.0354162 9.03084e-18)
(-0.0339491 -0.0362725 7.72521e-18)
(-0.0348084 -0.0371589 5.87716e-18)
(-0.0356984 -0.0380771 3.8311e-18)
(-0.0366207 -0.0390288 1.99179e-18)
(-0.0375769 -0.0400158 4.11594e-19)
(-0.0385689 -0.0410398 -1.48715e-18)
(-0.0395987 -0.0421031 -2.89881e-18)
(-0.0406684 -0.0432076 -3.74553e-18)
(-0.0417802 -0.0443558 -3.83413e-18)
(-0.0429364 -0.04555 -3.39368e-18)
(-0.0441397 -0.046793 -3.03911e-18)
(-0.0453926 -0.0480875 -2.63064e-18)
(-0.0466983 -0.0494365 -2.12913e-18)
(-0.0480598 -0.0508434 -2.40614e-18)
(-0.0494805 -0.0523116 -3.65213e-18)
(-0.050964 -0.0538449 -4.85898e-18)
(-0.0525142 -0.0554472 -5.6554e-18)
(-0.0541354 -0.057123 -6.09749e-18)
(-0.055832 -0.0588769 -6.37808e-18)
(-0.057609 -0.0607139 -6.9609e-18)
(-0.0594715 -0.0626396 -8.34359e-18)
(-0.0614254 -0.0646598 -1.0531e-17)
(-0.0634768 -0.0667808 -1.38613e-17)
(-0.0656323 -0.0690096 -1.7437e-17)
(-0.0678992 -0.0713536 -2.04152e-17)
(-0.0702852 -0.0738208 -2.29252e-17)
(-0.0727988 -0.0764201 -2.53146e-17)
(-0.0754492 -0.0791608 -2.83121e-17)
(-0.0782464 -0.0820532 -3.17018e-17)
(-0.0812009 -0.0851084 -3.61146e-17)
(-0.0843247 -0.0883385 -4.07408e-17)
(-0.0876301 -0.0917564 -4.20727e-17)
(-0.091131 -0.0953763 -4.11526e-17)
(-0.020279 -0.0222378 1.79233e-17)
(-0.0206967 -0.0226977 1.85545e-17)
(-0.0211256 -0.0231697 1.80627e-17)
(-0.0215666 -0.0236541 1.7325e-17)
(-0.0220221 -0.0241535 1.71033e-17)
(-0.0224959 -0.0246721 1.7251e-17)
(-0.022988 -0.0252107 1.74009e-17)
(-0.023496 -0.0257669 1.80811e-17)
(-0.0240184 -0.0263394 1.93254e-17)
(-0.0245549 -0.0269276 2.06037e-17)
(-0.0251058 -0.0275319 2.19783e-17)
(-0.0256719 -0.0281531 2.3054e-17)
(-0.0262538 -0.0287919 2.37048e-17)
(-0.0268525 -0.0294492 2.44967e-17)
(-0.0274688 -0.0301259 2.49863e-17)
(-0.0281037 -0.0308232 2.49334e-17)
(-0.0287583 -0.031542 2.47268e-17)
(-0.0294334 -0.0322834 2.4852e-17)
(-0.0301302 -0.0330488 2.51093e-17)
(-0.0308498 -0.0338391 2.50261e-17)
(-0.0315934 -0.0346559 2.47129e-17)
(-0.0323622 -0.0355003 2.46587e-17)
(-0.0331575 -0.0363739 2.47247e-17)
(-0.0339807 -0.0372781 2.51223e-17)
(-0.0348333 -0.0382146 2.56279e-17)
(-0.0357168 -0.0391852 2.65404e-17)
(-0.0366329 -0.0401915 2.77136e-17)
(-0.0375834 -0.0412355 2.8688e-17)
(-0.03857 -0.0423194 2.87343e-17)
(-0.0395949 -0.0434452 2.83699e-17)
(-0.0406601 -0.0446154 2.82353e-17)
(-0.041768 -0.0458325 2.82722e-17)
(-0.0429209 -0.047099 2.78827e-17)
(-0.0441215 -0.048418 2.769e-17)
(-0.0453727 -0.0497925 2.65944e-17)
(-0.0466773 -0.0512258 2.45631e-17)
(-0.0480387 -0.0527215 2.21626e-17)
(-0.0494603 -0.0542833 2.01007e-17)
(-0.0509459 -0.0559154 1.83407e-17)
(-0.0524995 -0.0576223 1.66287e-17)
(-0.0541254 -0.0594087 1.52211e-17)
(-0.0558284 -0.0612797 1.32934e-17)
(-0.0576134 -0.063241 1.16941e-17)
(-0.059486 -0.0652985 1.04079e-17)
(-0.0614521 -0.0674587 9.53293e-18)
(-0.063518 -0.0697287 9.1956e-18)
(-0.0656907 -0.072116 8.90538e-18)
(-0.0679777 -0.074629 7.99556e-18)
(-0.0703871 -0.0772765 6.57462e-18)
(-0.0729277 -0.0800683 5.01396e-18)
(-0.0756091 -0.0830148 3.24463e-18)
(-0.0784416 -0.0861275 1.06337e-18)
(-0.0814365 -0.0894185 -5.95223e-19)
(-0.0846058 -0.0929014 -1.11587e-18)
(-0.0879628 -0.0965906 -1.1439e-18)
(-0.0915217 -0.100502 -9.70855e-19)
(-0.0952978 -0.104652 1.89977e-19)
(-0.0993078 -0.109059 1.65027e-18)
(-0.103569 -0.113742 1.99628e-18)
(-0.0194303 -0.0226534 1.79029e-17)
(-0.0198302 -0.0231216 1.87201e-17)
(-0.0202406 -0.023602 1.90477e-17)
(-0.0206621 -0.0240953 1.90009e-17)
(-0.0210957 -0.0246027 1.9215e-17)
(-0.0215446 -0.0251278 1.92475e-17)
(-0.0220119 -0.0256741 1.95441e-17)
(-0.0224965 -0.0262404 1.98822e-17)
(-0.0229961 -0.0268241 1.98662e-17)
(-0.0235098 -0.0274245 1.99002e-17)
(-0.0240376 -0.0280414 1.96861e-17)
(-0.0245799 -0.0286754 1.92839e-17)
(-0.0251373 -0.0293272 1.94006e-17)
(-0.0257106 -0.0299976 1.99189e-17)
(-0.0263007 -0.0306878 2.09086e-17)
(-0.0269084 -0.0313986 2.24006e-17)
(-0.0275348 -0.0321314 2.3663e-17)
(-0.0281807 -0.032887 2.44819e-17)
(-0.0288473 -0.0336669 2.51791e-17)
(-0.0295356 -0.0344722 2.5793e-17)
(-0.0302468 -0.0353043 2.59629e-17)
(-0.0309819 -0.0361645 2.61958e-17)
(-0.0317424 -0.0370544 2.70495e-17)
(-0.0325295 -0.0379754 2.83487e-17)
(-0.0333447 -0.0389292 2.99053e-17)
(-0.0341894 -0.0399177 3.14289e-17)
(-0.0350651 -0.0409425 3.1717e-17)
(-0.0359737 -0.0420057 3.09428e-17)
(-0.0369168 -0.0431094 2.98504e-17)
(-0.0378964 -0.0442559 2.91653e-17)
(-0.0389146 -0.0454474 2.7957e-17)
(-0.0399734 -0.0466866 2.56042e-17)
(-0.0410753 -0.0479762 2.25706e-17)
(-0.0422228 -0.0493192 2.00108e-17)
(-0.0434185 -0.0507186 1.77532e-17)
(-0.0446653 -0.0521778 1.53055e-17)
(-0.0459663 -0.0537006 1.39163e-17)
(-0.0473248 -0.0552907 1.34641e-17)
(-0.0487444 -0.0569523 1.30221e-17)
(-0.050229 -0.0586901 1.26761e-17)
(-0.0517827 -0.0605088 1.21811e-17)
(-0.05341 -0.0624136 1.18899e-17)
(-0.0551157 -0.0644104 1.18647e-17)
(-0.0569052 -0.0665051 1.16343e-17)
(-0.0587839 -0.0687045 1.20689e-17)
(-0.0607582 -0.0710156 1.32778e-17)
(-0.0628345 -0.0734464 1.39709e-17)
(-0.0650201 -0.0760051 1.38878e-17)
(-0.0673227 -0.078701 1.31304e-17)
(-0.0697509 -0.0815439 1.22985e-17)
(-0.0723138 -0.0845445 1.15811e-17)
(-0.0750213 -0.0877145 1.14401e-17)
(-0.0778841 -0.0910665 1.1601e-17)
(-0.0809141 -0.0946142 1.16051e-17)
(-0.0841238 -0.0983725 1.1177e-17)
(-0.0875269 -0.102357 1.13863e-17)
(-0.0911383 -0.106586 1.18327e-17)
(-0.0949739 -0.111077 1.18327e-17)
(-0.099051 -0.115852 9.63543e-18)
(-0.103388 -0.12093 6.71887e-18)
(-0.0185768 -0.0230472 -3.70053e-18)
(-0.0189586 -0.0235236 -1.53672e-18)
(-0.0193505 -0.0240126 -6.70352e-21)
(-0.0197528 -0.0245146 6.30317e-19)
(-0.020166 -0.0250302 9.50246e-19)
(-0.0205925 -0.0255623 1.59936e-18)
(-0.0210359 -0.0261153 2.82922e-18)
(-0.0214968 -0.0266897 3.93607e-18)
(-0.021973 -0.0272833 5.36901e-18)
(-0.0224634 -0.0278945 7.22282e-18)
(-0.0229675 -0.0285228 8.98376e-18)
(-0.0234856 -0.0291686 1.0477e-17)
(-0.0240181 -0.0298325 1.16141e-17)
(-0.0245658 -0.0305154 1.25507e-17)
(-0.0251295 -0.0312181 1.36525e-17)
(-0.0257099 -0.0319419 1.51454e-17)
(-0.026308 -0.0326877 1.66032e-17)
(-0.0269247 -0.0334569 1.77002e-17)
(-0.027561 -0.0342505 1.86925e-17)
(-0.028218 -0.0350699 1.93155e-17)
(-0.0288968 -0.0359165 1.92647e-17)
(-0.0295984 -0.0367917 1.90108e-17)
(-0.0303241 -0.0376969 1.88413e-17)
(-0.0310751 -0.0386338 1.85254e-17)
(-0.0318529 -0.039604 1.81431e-17)
(-0.0326588 -0.0406093 1.78965e-17)
(-0.0334943 -0.0416516 1.72017e-17)
(-0.034361 -0.0427329 1.68076e-17)
(-0.0352607 -0.0438553 1.77459e-17)
(-0.0361951 -0.0450211 1.8855e-17)
(-0.0371663 -0.0462328 1.93107e-17)
(-0.0381762 -0.0474929 1.93064e-17)
(-0.0392272 -0.0488042 1.94048e-17)
(-0.0403216 -0.0501697 1.96342e-17)
(-0.041462 -0.0515926 1.94635e-17)
(-0.0426511 -0.0530763 1.91554e-17)
(-0.0438919 -0.0546246 1.90196e-17)
(-0.0451875 -0.0562413 1.83176e-17)
(-0.0465414 -0.0579307 1.69778e-17)
(-0.0479572 -0.0596975 1.55336e-17)
(-0.0494389 -0.0615466 1.40282e-17)
(-0.0509908 -0.0634833 1.27408e-17)
(-0.0526175 -0.0655134 1.1101e-17)
(-0.0543241 -0.0676431 9.50175e-18)
(-0.0561158 -0.0698793 8.19958e-18)
(-0.0579987 -0.0722292 7.37611e-18)
(-0.0599789 -0.0747007 6.6526e-18)
(-0.0620634 -0.0773024 5.83318e-18)
(-0.0642597 -0.0800437 5.27476e-18)
(-0.0665758 -0.0829345 5.02541e-18)
(-0.0690204 -0.085986 4.94699e-18)
(-0.0716032 -0.0892098 5.16434e-18)
(-0.0743345 -0.0926191 4.77538e-18)
(-0.0772253 -0.0962276 3.6805e-18)
(-0.080288 -0.100051 2.34782e-18)
(-0.0835355 -0.104105 2.56899e-19)
(-0.0869823 -0.108407 -2.5831e-18)
(-0.0906436 -0.112978 -6.01908e-18)
(-0.0945361 -0.117837 -9.28085e-18)
(-0.0986774 -0.123007 -1.19901e-17)
(-0.103087 -0.128512 -1.39325e-17)
(-0.107784 -0.134376 -1.43637e-17)
(-0.112791 -0.140627 -1.43815e-17)
(-0.11813 -0.147293 -1.41237e-17)
(-0.123825 -0.154403 -1.42474e-17)
(-0.129899 -0.161986 -1.55608e-17)
(-0.136376 -0.170072 -1.69355e-17)
(-0.143281 -0.178694 -1.78142e-17)
(-0.150643 -0.187886 -1.8268e-17)
(-0.158515 -0.197715 -1.85899e-17)
(-0.167083 -0.208412 -1.96699e-17)
(-0.176535 -0.220215 -2.14987e-17)
(-0.186808 -0.233042 -2.29647e-17)
(-0.197781 -0.246743 -2.45306e-17)
(-0.209411 -0.261264 -2.47704e-17)
(-0.221614 -0.276501 -2.3861e-17)
(-0.234247 -0.292276 -2.34618e-17)
(-0.247096 -0.30832 -2.12368e-17)
(-0.259869 -0.324269 -1.75593e-17)
(-0.272209 -0.339679 -1.30537e-17)
(-0.283726 -0.354062 -7.53467e-18)
(-0.294049 -0.366955 -7.02897e-19)
(-0.302891 -0.377999 6.65942e-18)
(-0.3101 -0.387004 1.26847e-17)
(-0.315686 -0.393984 1.80235e-17)
(-0.319805 -0.399131 2.31368e-17)
(-0.322711 -0.402765 2.55901e-17)
(-0.324697 -0.405251 2.70102e-17)
(-0.326043 -0.406936 2.87512e-17)
(-0.32698 -0.40811 2.91593e-17)
(-0.327678 -0.408987 3.00339e-17)
(-0.328252 -0.409708 3.56904e-17)
(-0.328767 -0.410356 4.66531e-17)
(-0.329257 -0.410973 -8.77739e-17)
(-0.329736 -0.411576 -9.79416e-17)
(-0.0177199 -0.0234198 9.33775e-18)
(-0.0180836 -0.0239041 1.13985e-17)
(-0.0184569 -0.0244011 1.19655e-17)
(-0.0188401 -0.0249114 1.164e-17)
(-0.0192337 -0.0254355 1.14031e-17)
(-0.0196388 -0.0259749 1.15212e-17)
(-0.0200586 -0.0265337 1.16546e-17)
(-0.0204955 -0.0271149 1.1764e-17)
(-0.0209483 -0.0277172 1.18073e-17)
(-0.0214152 -0.0283383 1.14008e-17)
(-0.0218955 -0.0289772 1.00373e-17)
(-0.0223893 -0.0296341 8.83169e-18)
(-0.0228969 -0.0303093 8.27894e-18)
(-0.0234188 -0.0310038 7.32874e-18)
(-0.0239559 -0.0317184 5.81317e-18)
(-0.024509 -0.0324543 4.40379e-18)
(-0.0250788 -0.0332125 3.57569e-18)
(-0.0256663 -0.0339943 2.90628e-18)
(-0.0262724 -0.0348009 1.99639e-18)
(-0.0268981 -0.0356337 7.21795e-19)
(-0.0275444 -0.0364939 -3.52139e-19)
(-0.0282125 -0.0373832 -6.64659e-19)
(-0.0289035 -0.0383029 -1.05576e-18)
(-0.0296185 -0.0392547 -2.11511e-18)
(-0.0303589 -0.0402403 -3.28342e-18)
(-0.0311261 -0.0412615 -4.17367e-18)
(-0.0319214 -0.0423202 -4.2012e-18)
(-0.0327464 -0.0434185 -3.37423e-18)
(-0.0336028 -0.0445585 -1.81508e-18)
(-0.0344922 -0.0457425 7.23237e-19)
(-0.0354165 -0.0469731 3.5283e-18)
(-0.0363777 -0.0482528 6.81535e-18)
(-0.0373779 -0.0495845 1.075e-17)
(-0.0384194 -0.0509712 1.45701e-17)
(-0.0395047 -0.0524161 1.88306e-17)
(-0.0406363 -0.0539228 2.29169e-17)
(-0.041817 -0.055495 2.56729e-17)
(-0.0430499 -0.0571366 2.74272e-17)
(-0.0443383 -0.0588521 2.86991e-17)
(-0.0456855 -0.0606461 3.00981e-17)
(-0.0470955 -0.0625237 3.11927e-17)
(-0.0485723 -0.0644902 3.2299e-17)
(-0.0501202 -0.0665515 3.35243e-17)
(-0.0517441 -0.0687141 3.44173e-17)
(-0.0534492 -0.0709847 3.43017e-17)
(-0.0552409 -0.0733708 3.35e-17)
(-0.0571253 -0.0758804 3.3001e-17)
(-0.059109 -0.0785223 3.37362e-17)
(-0.0611992 -0.081306 3.61783e-17)
(-0.0634034 -0.0842417 3.94456e-17)
(-0.0657302 -0.0873406 4.2627e-17)
(-0.0681885 -0.0906148 4.57107e-17)
(-0.0707883 -0.0940775 4.89468e-17)
(-0.0735402 -0.0977429 5.20075e-17)
(-0.0764559 -0.101626 5.44061e-17)
(-0.0795481 -0.105745 5.64769e-17)
(-0.0828302 -0.110117 5.77237e-17)
(-0.0863172 -0.114762 5.73754e-17)
(-0.0900248 -0.1197 5.71791e-17)
(-0.0939702 -0.124956 5.80805e-17)
(-0.0981717 -0.130552 5.92937e-17)
(-0.102649 -0.136516 6.00562e-17)
(-0.107422 -0.142875 5.9895e-17)
(-0.112514 -0.149658 5.9708e-17)
(-0.117946 -0.156894 6.00374e-17)
(-0.123742 -0.164616 6.05353e-17)
(-0.129926 -0.172853 6.07338e-17)
(-0.136521 -0.181639 6.01362e-17)
(-0.143555 -0.191011 5.7597e-17)
(-0.151077 -0.201032 5.35875e-17)
(-0.159245 -0.211916 4.74982e-17)
(-0.168243 -0.223906 4.22508e-17)
(-0.178049 -0.23697 3.81139e-17)
(-0.188554 -0.250966 3.27189e-17)
(-0.199704 -0.265822 2.61587e-17)
(-0.211424 -0.281436 1.67118e-17)
(-0.223581 -0.297634 6.5668e-18)
(-0.235974 -0.314146 -2.87651e-18)
(-0.248325 -0.330604 -1.25981e-17)
(-0.260293 -0.346552 -2.552e-17)
(-0.271498 -0.361483 -3.9661e-17)
(-0.281573 -0.37491 -5.24669e-17)
(-0.290227 -0.386446 -6.55534e-17)
(-0.297302 -0.395879 -7.97035e-17)
(-0.302796 -0.403205 -9.6626e-17)
(-0.306852 -0.408616 -1.16027e-16)
(-0.309715 -0.412437 -1.35228e-16)
(-0.31167 -0.415049 -1.55919e-16)
(-0.31299 -0.416816 -1.79801e-16)
(-0.313906 -0.418043 -2.0599e-16)
(-0.314585 -0.418955 -2.32917e-16)
(-0.31514 -0.419702 -2.61153e-16)
(-0.315638 -0.420372 -2.89636e-16)
(-0.316111 -0.42101 -3.04807e-16)
(-0.316573 -0.421632 -3.36099e-16)
(-0.0168605 -0.0237716 2.83027e-18)
(-0.0172061 -0.0242634 4.59533e-18)
(-0.0175608 -0.0247681 4.94391e-18)
(-0.017925 -0.0252862 4.9452e-18)
(-0.018299 -0.0258182 5.40806e-18)
(-0.0186833 -0.0263649 5.83112e-18)
(-0.0190802 -0.0269295 6.04446e-18)
(-0.0194932 -0.0275167 6.07931e-18)
(-0.0199223 -0.0281267 5.83977e-18)
(-0.0203656 -0.0287567 5.24396e-18)
(-0.0208221 -0.0294054 4.30727e-18)
(-0.0212915 -0.0300725 3.39063e-18)
(-0.021774 -0.0307584 2.21255e-18)
(-0.0222703 -0.0314637 3.34369e-19)
(-0.0227808 -0.0321895 -1.69627e-18)
(-0.0233065 -0.0329368 -3.20865e-18)
(-0.023848 -0.0337067 -4.47416e-18)
(-0.0244063 -0.0345004 -6.39733e-18)
(-0.0249822 -0.0353192 -9.11747e-18)
(-0.0255766 -0.0361645 -1.17291e-17)
(-0.0261907 -0.0370376 -1.38865e-17)
(-0.0268253 -0.0379401 -1.59174e-17)
(-0.0274816 -0.0388734 -1.77659e-17)
(-0.0281607 -0.0398392 -1.91896e-17)
(-0.0288639 -0.0408392 -2.00944e-17)
(-0.0295925 -0.0418754 -2.09255e-17)
(-0.0303477 -0.0429495 -2.18671e-17)
(-0.0311311 -0.0440637 -2.22796e-17)
(-0.0319443 -0.0452202 -2.21091e-17)
(-0.0327888 -0.0464214 -2.21112e-17)
(-0.0336664 -0.0476697 -2.27768e-17)
(-0.034579 -0.0489678 -2.32732e-17)
(-0.0355286 -0.0503185 -2.35592e-17)
(-0.0365175 -0.0517251 -2.33463e-17)
(-0.0375478 -0.0531906 -2.28077e-17)
(-0.038622 -0.0547188 -2.2396e-17)
(-0.039743 -0.0563133 -2.10012e-17)
(-0.0409134 -0.0579783 -1.83298e-17)
(-0.0421364 -0.0597182 -1.53478e-17)
(-0.0434154 -0.0615376 -1.24627e-17)
(-0.0447539 -0.0634417 -9.35341e-18)
(-0.0461558 -0.0654361 -6.60578e-18)
(-0.0476252 -0.0675267 -3.93625e-18)
(-0.0491668 -0.0697198 -1.65483e-18)
(-0.0507854 -0.0720226 4.58967e-19)
(-0.0524862 -0.0744425 2.4019e-18)
(-0.0542752 -0.0769878 3.90282e-18)
(-0.0561585 -0.0796672 5.11246e-18)
(-0.0581428 -0.0824905 6.02804e-18)
(-0.0602355 -0.0854681 7.02599e-18)
(-0.0624446 -0.0886113 7.79106e-18)
(-0.0647788 -0.0919325 8.80574e-18)
(-0.0672474 -0.0954451 9.82696e-18)
(-0.0698608 -0.0991635 1.07196e-17)
(-0.0726298 -0.103104 1.21097e-17)
(-0.0755667 -0.107283 1.34995e-17)
(-0.0786845 -0.111719 1.41474e-17)
(-0.0819971 -0.116433 1.45144e-17)
(-0.08552 -0.121446 1.50163e-17)
(-0.0892694 -0.126781 1.56103e-17)
(-0.0932629 -0.132464 1.5421e-17)
(-0.0975194 -0.138522 1.36013e-17)
(-0.102059 -0.144982 1.17401e-17)
(-0.106902 -0.151874 1.01807e-17)
(-0.112071 -0.15923 8.74271e-18)
(-0.117588 -0.167081 7.77328e-18)
(-0.123476 -0.175461 7.28655e-18)
(-0.129759 -0.184402 6.97999e-18)
(-0.136462 -0.193943 5.98022e-18)
(-0.14363 -0.204145 5.17095e-18)
(-0.151398 -0.215203 5.46072e-18)
(-0.159943 -0.227367 5.6744e-18)
(-0.169279 -0.240653 6.46961e-18)
(-0.179308 -0.254927 8.2494e-18)
(-0.189968 -0.2701 9.7181e-18)
(-0.20119 -0.286073 9.07425e-18)
(-0.212853 -0.302674 9.37135e-18)
(-0.224768 -0.319635 9.8338e-18)
(-0.236674 -0.336583 9.23737e-18)
(-0.248242 -0.353051 1.0068e-17)
(-0.259105 -0.368516 1.15771e-17)
(-0.268902 -0.382466 1.46255e-17)
(-0.277342 -0.394487 1.66877e-17)
(-0.28426 -0.404341 1.84835e-17)
(-0.289643 -0.412012 1.98191e-17)
(-0.293623 -0.417686 1.8224e-17)
(-0.296432 -0.421694 1.5585e-17)
(-0.298348 -0.424432 1.11224e-17)
(-0.29964 -0.42628 2.93724e-18)
(-0.300531 -0.427559 -9.08137e-18)
(-0.30119 -0.428505 -2.40587e-17)
(-0.301726 -0.429278 -4.31845e-17)
(-0.302205 -0.42997 -6.70067e-17)
(-0.30266 -0.430628 -1.54206e-16)
(-0.303105 -0.43127 -1.90176e-16)
(-0.015999 -0.0241031 -5.18873e-18)
(-0.0163266 -0.0246018 -5.68146e-18)
(-0.0166628 -0.0251136 -7.54663e-18)
(-0.0170079 -0.025639 -1.01534e-17)
(-0.0173623 -0.0261786 -1.21352e-17)
(-0.0177264 -0.0267328 -1.30774e-17)
(-0.0181015 -0.027304 -1.3667e-17)
(-0.0184907 -0.0278961 -1.41068e-17)
(-0.0188956 -0.028512 -1.40763e-17)
(-0.0193151 -0.0291499 -1.37791e-17)
(-0.0197476 -0.0298076 -1.34592e-17)
(-0.0201926 -0.0304843 -1.32117e-17)
(-0.0206502 -0.0311802 -1.32088e-17)
(-0.0211207 -0.0318959 -1.31133e-17)
(-0.0216048 -0.0326322 -1.24563e-17)
(-0.0221031 -0.0333902 -1.16199e-17)
(-0.0226164 -0.0341711 -1.08355e-17)
(-0.0231455 -0.034976 -9.91517e-18)
(-0.0236912 -0.0358063 -8.9101e-18)
(-0.0242545 -0.0366633 -7.85042e-18)
(-0.0248363 -0.0375485 -6.63669e-18)
(-0.0254375 -0.0384634 -5.25861e-18)
(-0.0260593 -0.0394094 -3.84367e-18)
(-0.0267026 -0.0403883 -2.73438e-18)
(-0.0273687 -0.0414019 -1.717e-18)
(-0.0280587 -0.042452 -1.01698e-18)
(-0.028774 -0.0435406 -3.97739e-19)
(-0.029516 -0.0446697 2.51102e-19)
(-0.0302861 -0.0458417 5.33447e-19)
(-0.0310858 -0.0470588 -1.76999e-19)
(-0.0319169 -0.0483236 -1.55324e-18)
(-0.0327811 -0.0496389 -2.82961e-18)
(-0.0336804 -0.0510075 -4.43899e-18)
(-0.0346167 -0.0524325 -6.81845e-18)
(-0.0355923 -0.0539174 -9.19534e-18)
(-0.0366094 -0.0554656 -1.13632e-17)
(-0.0376708 -0.057081 -1.35022e-17)
(-0.038779 -0.0587677 -1.49662e-17)
(-0.039937 -0.0605303 -1.5829e-17)
(-0.0411479 -0.0623735 -1.70775e-17)
(-0.0424152 -0.0643024 -1.77715e-17)
(-0.0437424 -0.0663228 -1.79709e-17)
(-0.0451337 -0.0684405 -1.817e-17)
(-0.0465932 -0.0706622 -1.76921e-17)
(-0.0481257 -0.0729949 -1.65984e-17)
(-0.0497361 -0.0754464 -1.55473e-17)
(-0.0514299 -0.0780248 -1.43053e-17)
(-0.0532131 -0.0807392 -1.36143e-17)
(-0.0550919 -0.0835994 -1.31628e-17)
(-0.0570735 -0.0866159 -1.27103e-17)
(-0.0591654 -0.0898004 -1.25479e-17)
(-0.0613758 -0.0931654 -1.26887e-17)
(-0.0637136 -0.0967245 -1.31169e-17)
(-0.0661887 -0.100492 -1.3831e-17)
(-0.0688114 -0.104485 -1.45064e-17)
(-0.0715934 -0.108721 -1.46729e-17)
(-0.074547 -0.113217 -1.50717e-17)
(-0.0776856 -0.117996 -1.55654e-17)
(-0.0810238 -0.123078 -1.55624e-17)
(-0.0845773 -0.128488 -1.58844e-17)
(-0.0883628 -0.134252 -1.61008e-17)
(-0.0923984 -0.140396 -1.62901e-17)
(-0.0967031 -0.14695 -1.66041e-17)
(-0.101297 -0.153945 -1.78116e-17)
(-0.106202 -0.161413 -1.95288e-17)
(-0.111438 -0.169386 -2.16611e-17)
(-0.117029 -0.177899 -2.43314e-17)
(-0.122997 -0.186987 -2.54824e-17)
(-0.129367 -0.196687 -2.47042e-17)
(-0.136179 -0.207059 -2.32599e-17)
(-0.143546 -0.218279 -2.0502e-17)
(-0.151639 -0.230603 -1.72763e-17)
(-0.160501 -0.244098 -1.44555e-17)
(-0.170047 -0.258635 -1.14048e-17)
(-0.180208 -0.274107 -6.7696e-18)
(-0.19092 -0.29042 -1.16448e-18)
(-0.202072 -0.307405 5.59332e-18)
(-0.21349 -0.324794 1.3408e-17)
(-0.224926 -0.342212 2.19972e-17)
(-0.236068 -0.359182 3.21883e-17)
(-0.246559 -0.375165 4.31427e-17)
(-0.25605 -0.389625 5.47746e-17)
(-0.26425 -0.40212 6.78125e-17)
(-0.270988 -0.412391 8.14908e-17)
(-0.276241 -0.420402 9.77107e-17)
(-0.28013 -0.426336 1.14182e-16)
(-0.282876 -0.430531 1.29404e-16)
(-0.284748 -0.433393 1.4469e-16)
(-0.286006 -0.435322 1.58783e-16)
(-0.286871 -0.436652 1.70717e-16)
(-0.287507 -0.437632 1.81183e-16)
(-0.288023 -0.43843 1.87864e-16)
(-0.288483 -0.439143 1.88942e-16)
(-0.288919 -0.439819 -1.76098e-16)
(-0.289345 -0.44048 -2.29351e-16)
(-0.0151361 -0.0244146 -7.61145e-18)
(-0.0154457 -0.0249199 -8.05759e-18)
(-0.0157633 -0.0254384 -9.21711e-18)
(-0.0160895 -0.0259707 -1.12742e-17)
(-0.0164244 -0.0265172 -1.32381e-17)
(-0.0167684 -0.0270787 -1.52532e-17)
(-0.0171221 -0.0276559 -1.77276e-17)
(-0.0174878 -0.0282527 -2.03177e-17)
(-0.0178688 -0.028874 -2.30041e-17)
(-0.0182645 -0.0295191 -2.55798e-17)
(-0.0186729 -0.030185 -2.76197e-17)
(-0.0190935 -0.0308706 -2.89792e-17)
(-0.019526 -0.0315758 -2.99843e-17)
(-0.0199708 -0.0323011 -3.08093e-17)
(-0.0204284 -0.0330472 -3.143e-17)
(-0.0208994 -0.0338153 -3.18282e-17)
(-0.0213845 -0.0346064 -3.20586e-17)
(-0.0218845 -0.0354219 -3.21106e-17)
(-0.0224002 -0.0362629 -3.20693e-17)
(-0.0229324 -0.0371309 -3.15306e-17)
(-0.023482 -0.0380274 -3.05369e-17)
(-0.0240499 -0.0389538 -2.92674e-17)
(-0.0246372 -0.0399118 -2.83867e-17)
(-0.0252448 -0.040903 -2.78384e-17)
(-0.0258739 -0.0419292 -2.73112e-17)
(-0.0265256 -0.0429924 -2.64366e-17)
(-0.0272011 -0.0440944 -2.56355e-17)
(-0.0279018 -0.0452375 -2.56244e-17)
(-0.028629 -0.0464238 -2.57377e-17)
(-0.0293841 -0.0476558 -2.60608e-17)
(-0.0301689 -0.0489361 -2.57652e-17)
(-0.0309848 -0.0502673 -2.46975e-17)
(-0.0318339 -0.0516525 -2.37775e-17)
(-0.0327179 -0.0530948 -2.31464e-17)
(-0.033639 -0.0545976 -2.18341e-17)
(-0.0345993 -0.0561645 -2.11567e-17)
(-0.0356013 -0.0577993 -2.14748e-17)
(-0.0366475 -0.0595063 -2.22095e-17)