/*--------------------------------*- C++ -*----------------------------------*\
  =========                 |
  \\      /  F ield         | OpenFOAM: The Open Source CFD Toolbox
   \\    /   O peration     | Website:  https://openfoam.org
    \\  /    A nd           | Version:  7
     \\/     M anipulation  |
\*---------------------------------------------------------------------------*/
FoamFile
{
    version     2.0;
    format      ascii;
    class       volScalarField;
    location    "176000";
    object      omega;
}
// * * * * * * * * * * * * * * * * * * * * * * * * * * * * * * * * * * * * * //

dimensions      [0 0 -1 0 0 0 0];

internalField   nonuniform List<scalar> 
4782
(
0.289248
0.298998
0.30926
0.32007
0.331471
0.343506
0.356224
0.36968
0.383933
0.399047
0.0950781
0.0970128
0.098999
0.101039
0.103134
0.105287
0.107501
0.109777
0.112118
0.114528
0.117008
0.119563
0.122195
0.12491
0.127709
0.130598
0.13358
0.136659
0.139839
0.143125
0.146522
0.150034
0.153668
0.15743
0.161325
0.165361
0.169544
0.173883
0.178386
0.183061
0.187918
0.192967
0.198219
0.203686
0.20938
0.215314
0.221503
0.227963
0.234711
0.241763
0.249141
0.256865
0.264957
0.273444
0.282351
0.291708
0.301546
0.3119
0.322809
0.334312
0.346456
0.359289
0.372866
0.387246
0.402496
0.0958489
0.0977997
0.0998026
0.101859
0.103973
0.106144
0.108376
0.110672
0.113034
0.115464
0.117966
0.120543
0.123199
0.125938
0.128763
0.131678
0.134687
0.137793
0.141002
0.144318
0.147745
0.151289
0.154956
0.158751
0.162682
0.166754
0.170975
0.175354
0.179897
0.184615
0.189517
0.194612
0.199913
0.20543
0.211177
0.217166
0.223413
0.229934
0.236744
0.243863
0.25131
0.259106
0.267274
0.27584
0.284831
0.294276
0.304206
0.314658
0.325668
0.337279
0.349536
0.362489
0.376192
0.390705
0.406095
0.096649
0.0986166
0.100637
0.102712
0.104843
0.107034
0.109286
0.111602
0.113984
0.116437
0.118961
0.121563
0.124243
0.127008
0.129859
0.132802
0.135838
0.138974
0.142212
0.145558
0.149017
0.152595
0.156295
0.160126
0.164093
0.168204
0.172465
0.176884
0.181471
0.186234
0.191182
0.196326
0.201677
0.207248
0.213049
0.219097
0.225404
0.231987
0.238863
0.246051
0.25357
0.261442
0.26969
0.278339
0.287417
0.296953
0.30698
0.317533
0.32865
0.340374
0.352749
0.365826
0.37966
0.394312
0.409849
0.0974783
0.0994632
0.101501
0.103594
0.105745
0.107955
0.110227
0.112564
0.114969
0.117444
0.119994
0.122621
0.125328
0.12812
0.130999
0.133969
0.137035
0.1402
0.14347
0.146848
0.15034
0.153951
0.157688
0.161556
0.165561
0.169712
0.174014
0.178477
0.183109
0.187918
0.192915
0.19811
0.203515
0.209141
0.215
0.221108
0.227479
0.234128
0.241074
0.248334
0.255929
0.26388
0.272212
0.280949
0.290119
0.299751
0.30988
0.320539
0.331769
0.34361
0.356109
0.369317
0.38329
0.398088
0.413778
0.0974783
0.0994632
0.101501
0.103594
0.105745
0.107955
0.110227
0.112564
0.114969
0.117444
0.119994
0.122621
0.125328
0.12812
0.130999
0.133969
0.137035
0.1402
0.14347
0.146848
0.15034
0.153951
0.157688
0.161556
0.165561
0.169712
0.174014
0.178477
0.183109
0.187918
0.192915
0.19811
0.203515
0.209141
0.215
0.221108
0.227479
0.234128
0.241074
0.248334
0.255929
0.263881
0.272212
0.280949
0.290119
0.299751
0.30988
0.320539
0.331769
0.34361
0.356109
0.369317
0.38329
0.398088
0.413778
0.096649
0.0986166
0.100637
0.102712
0.104843
0.107034
0.109286
0.111602
0.113984
0.116437
0.118961
0.121563
0.124243
0.127008
0.129859
0.132802
0.135838
0.138974
0.142212
0.145558
0.149017
0.152595
0.156295
0.160126
0.164093
0.168204
0.172465
0.176884
0.181471
0.186234
0.191182
0.196326
0.201677
0.207248
0.213049
0.219097
0.225404
0.231987
0.238863
0.246051
0.25357
0.261442
0.26969
0.278339
0.287417
0.296953
0.306981
0.317533
0.328651
0.340374
0.352749
0.365826
0.37966
0.394312
0.409849
0.426343
0.443877
0.46254
0.482434
0.0958488
0.0977997
0.0998026
0.101859
0.103973
0.106144
0.108376
0.110672
0.113034
0.115464
0.117966
0.120543
0.123199
0.125938
0.128763
0.131678
0.134687
0.137793
0.141002
0.144318
0.147745
0.151289
0.154956
0.158751
0.162682
0.166754
0.170975
0.175354
0.179897
0.184615
0.189517
0.194612
0.199913
0.20543
0.211177
0.217166
0.223414
0.229934
0.236744
0.243863
0.25131
0.259106
0.267274
0.27584
0.284831
0.294276
0.304206
0.314658
0.325668
0.337279
0.349536
0.362489
0.376192
0.390705
0.406095
0.422435
0.439805
0.458295
0.478005
0.499047
0.0950781
0.0970128
0.098999
0.101039
0.103134
0.105287
0.107501
0.109777
0.112118
0.114528
0.117008
0.119563
0.122195
0.12491
0.127709
0.130598
0.13358
0.136659
0.139839
0.143125
0.146522
0.150034
0.153668
0.15743
0.161325
0.165361
0.169544
0.173883
0.178386
0.183061
0.187918
0.192967
0.198219
0.203686
0.20938
0.215314
0.221503
0.227963
0.234711
0.241763
0.249141
0.256865
0.264958
0.273444
0.282351
0.291708
0.301546
0.3119
0.322809
0.334312
0.346456
0.359289
0.372866
0.387246
0.402496
0.418687
0.435899
0.454223
0.473756
0.49461
0.516908
0.540791
0.566416
0.593964
0.623641
0.655687
0.69038
0.728049
0.769087
0.813968
0.863276
0.917739
0.978311
1.0462
1.12289
1.21023
1.31067
1.42756
1.56551
1.73096
1.93308
2.18504
2.50605
2.92462
3.48417
4.253
5.3434
6.95028
9.43616
13.5368
20.9262
36.0552
73.7348
203.79
1024
0.0943376
0.0962569
0.0982272
0.100251
0.102329
0.104465
0.10666
0.108918
0.11124
0.113629
0.116089
0.118622
0.121232
0.123923
0.126699
0.129562
0.132519
0.135571
0.138724
0.141981
0.145349
0.148831
0.152434
0.156163
0.160025
0.164025
0.168172
0.172473
0.176937
0.181571
0.186385
0.19139
0.196596
0.202014
0.207658
0.213539
0.219674
0.226076
0.232763
0.239753
0.247064
0.254719
0.262739
0.271149
0.279976
0.289249
0.298999
0.30926
0.32007
0.331471
0.343506
0.356224
0.36968
0.383933
0.399047
0.415095
0.432157
0.45032
0.469683
0.490356
0.512463
0.53614
0.561547
0.588861
0.618286
0.65006
0.684459
0.721807
0.762492
0.806983
0.855852
0.909818
0.969811
1.03703
1.11294
1.19937
1.29873
1.4143
1.55061
1.714
1.9135
2.16208
2.47867
2.89143
3.44323
4.20155
5.27733
6.8632
9.31747
13.3676
20.6695
35.6285
72.9194
201.836
1017.34
0.0936283
0.0955329
0.097488
0.0994956
0.101558
0.103677
0.105855
0.108095
0.110399
0.112769
0.115209
0.117722
0.120311
0.122979
0.125732
0.128572
0.131503
0.13453
0.137657
0.140888
0.144227
0.147681
0.151254
0.154952
0.158781
0.162748
0.166861
0.171126
0.175552
0.180147
0.18492
0.189883
0.195044
0.200417
0.206012
0.211844
0.217925
0.224273
0.230902
0.237832
0.24508
0.252669
0.260619
0.268957
0.277707
0.286899
0.296565
0.306737
0.317454
0.328756
0.340687
0.353296
0.366636
0.380767
0.395752
0.411663
0.42858
0.446589
0.465789
0.486289
0.508211
0.531693
0.55689
0.583979
0.613163
0.644677
0.678793
0.715834
0.756181
0.800298
0.848749
0.90224
0.961681
1.02826
1.10343
1.18899
1.28732
1.40164
1.5364
1.69784
1.89485
2.14021
2.45261
2.85984
3.40426
4.15256
5.21441
6.78025
9.20437
13.2063
20.4247
35.2214
72.1407
199.967
1010.95
0.092951
0.0948416
0.0967822
0.0987749
0.100822
0.102925
0.105087
0.107309
0.109596
0.111948
0.11437
0.116863
0.119432
0.122079
0.12481
0.127627
0.130535
0.133538
0.13664
0.139845
0.143158
0.146584
0.150128
0.153797
0.157596
0.161531
0.165611
0.169841
0.174231
0.178789
0.183524
0.188446
0.193566
0.198895
0.204444
0.210228
0.216259
0.222554
0.229129
0.236001
0.24319
0.250715
0.2586
0.266868
0.275545
0.284661
0.294246
0.304334
0.314962
0.326169
0.338001
0.350506
0.363736
0.377749
0.392611
0.408392
0.42517
0.443033
0.462078
0.482412
0.504158
0.527452
0.552448
0.579323
0.608276
0.639542
0.673389
0.710136
0.750162
0.793922
0.841975
0.895014
0.95393
1.0199
1.09437
1.17911
1.27646
1.38959
1.52288
1.68248
1.87713
2.11945
2.42787
2.82986
3.36727
4.10606
5.15467
6.70146
9.09693
13.0531
20.1919
34.8342
71.3993
198.185
1004.84
0.0923064
0.0941837
0.0961106
0.0980892
0.100121
0.10221
0.104356
0.106562
0.108832
0.111167
0.113571
0.116046
0.118596
0.121224
0.123933
0.126729
0.129615
0.132595
0.135673
0.138853
0.142141
0.145541
0.149058
0.152699
0.156469
0.160374
0.164422
0.168621
0.172977
0.177499
0.182198
0.187082
0.192161
0.197448
0.202954
0.208692
0.214677
0.220922
0.227445
0.234262
0.241394
0.248859
0.256681
0.264883
0.273492
0.282535
0.292043
0.302051
0.312594
0.323712
0.33545
0.347855
0.36098
0.374882
0.389627
0.405283
0.42193
0.439654
0.45855
0.478728
0.500307
0.523422
0.548228
0.574898
0.603633
0.634662
0.668253
0.704722
0.744442
0.787864
0.835539
0.88815
0.946571
1.01196
1.08577
1.16973
1.26616
1.37817
1.51008
1.66793
1.86036
2.0998
2.40447
2.8015
3.33228
4.06207
5.09814
6.62688
8.99519
12.9079
19.9714
34.467
70.6959
196.491
999.024
0.0916951
0.0935598
0.0954738
0.097439
0.0994574
0.101531
0.103663
0.105854
0.108108
0.110428
0.112815
0.115272
0.117804
0.120413
0.123103
0.125879
0.128743
0.131701
0.134757
0.137914
0.141178
0.144553
0.148045
0.151659
0.155402
0.159279
0.163297
0.167464
0.171789
0.176278
0.180942
0.185789
0.190831
0.196079
0.201543
0.207239
0.213178
0.219376
0.22585
0.232616
0.239693
0.247102
0.254865
0.263004
0.271547
0.280521
0.289957
0.299889
0.310351
0.321385
0.333033
0.345344
0.35837
0.372167
0.3868
0.402339
0.418861
0.436453
0.455209
0.475238
0.496658
0.519604
0.54423
0.570707
0.599234
0.63004
0.66339
0.699596
0.739028
0.782133
0.829453
0.881665
0.939628
1.00448
1.07766
1.16088
1.25643
1.36739
1.49799
1.65421
1.84454
2.08128
2.38241
2.77476
3.2993
4.02059
5.04482
6.55654
8.8992
12.7709
19.7632
34.1202
70.031
194.888
993.499
0.0911178
0.0929706
0.0948723
0.0968249
0.0988304
0.100891
0.103009
0.105186
0.107425
0.109729
0.1121
0.114542
0.117056
0.119648
0.12232
0.125076
0.127921
0.130858
0.133893
0.137028
0.14027
0.143622
0.147089
0.150678
0.154395
0.158245
0.162235
0.166374
0.170668
0.175126
0.179757
0.18457
0.189577
0.194787
0.200213
0.205867
0.211764
0.217918
0.224346
0.231063
0.23809
0.245445
0.253151
0.261232
0.269713
0.278623
0.28799
0.297849
0.308236
0.31919
0.330754
0.342976
0.355908
0.369606
0.384135
0.399562
0.415967
0.433434
0.452058
0.471946
0.493216
0.516003
0.540458
0.566753
0.595085
0.62568
0.658802
0.694761
0.733922
0.776727
0.823714
0.87555
0.933082
0.997432
1.07001
1.15255
1.24728
1.35724
1.48662
1.6413
1.82967
2.06387
2.36168
2.74965
3.26832
3.98162
4.99473
6.49042
8.80895
12.642
19.5673
33.7938
69.4047
193.377
988.275
0.0905748
0.0924165
0.0943068
0.0962476
0.0982409
0.100289
0.102393
0.104557
0.106783
0.109072
0.111429
0.113855
0.116354
0.118929
0.121584
0.124322
0.127148
0.130067
0.133081
0.136196
0.139416
0.142746
0.146191
0.149757
0.153449
0.157274
0.161238
0.165349
0.169615
0.174044
0.178644
0.183425
0.188398
0.193574
0.198963
0.20458
0.210437
0.216549
0.222933
0.229605
0.236584
0.243889
0.251543
0.259568
0.267991
0.276839
0.286143
0.295934
0.30625
0.317129
0.328614
0.340753
0.353596
0.367201
0.381631
0.396955
0.413249
0.430598
0.449098
0.468854
0.489983
0.512621
0.536916
0.563039
0.591187
0.621584
0.654492
0.690218
0.729124
0.771648
0.818322
0.869806
0.926934
0.990811
1.06283
1.14472
1.23869
1.34772
1.47596
1.62921
1.81575
2.04758
2.34229
2.72616
3.23933
3.94515
4.94784
6.42853
8.72445
12.5214
19.3838
33.4879
68.8173
191.957
983.356
0.0900666
0.0918979
0.0937776
0.0957073
0.0976893
0.0997254
0.101818
0.103969
0.106182
0.108458
0.110801
0.113213
0.115697
0.118257
0.120895
0.123617
0.126426
0.129326
0.132322
0.135418
0.138618
0.141928
0.145352
0.148896
0.152565
0.156366
0.160306
0.164392
0.168631
0.173032
0.177603
0.182355
0.187297
0.19244
0.197795
0.203376
0.209196
0.21527
0.221613
0.228242
0.235176
0.242435
0.250039
0.258013
0.266382
0.275173
0.284417
0.294145
0.304394
0.315203
0.326614
0.338674
0.351435
0.364954
0.379291
0.394517
0.410708
0.427948
0.446331
0.465963
0.486961
0.509458
0.533603
0.559566
0.587542
0.617754
0.650462
0.685969
0.724637
0.766898
0.81328
0.864434
0.921186
0.984622
1.05613
1.13741
1.23066
1.33884
1.46602
1.61793
1.80277
2.0324
2.32423
2.70428
3.21234
3.91119
4.90417
6.37086
8.6457
12.4089
19.2126
33.2025
68.2689
190.63
978.749
0.0895936
0.0914153
0.093285
0.0952046
0.0971759
0.0992012
0.101283
0.103422
0.105623
0.107887
0.110216
0.112615
0.115086
0.117631
0.120255
0.122961
0.125754
0.128638
0.131617
0.134695
0.137877
0.141167
0.144571
0.148095
0.151743
0.155522
0.159439
0.163501
0.167716
0.172091
0.176636
0.18136
0.186273
0.191385
0.196709
0.202258
0.208043
0.214081
0.220386
0.226975
0.233868
0.241083
0.248642
0.256568
0.264886
0.273624
0.282812
0.292482
0.302669
0.313413
0.324755
0.336743
0.349427
0.362864
0.377116
0.392251
0.408345
0.425483
0.443758
0.463275
0.48415
0.506517
0.530522
0.556336
0.584152
0.614191
0.646712
0.682017
0.720463
0.76248
0.80859
0.859439
0.915842
0.978868
1.0499
1.13062
1.22321
1.33059
1.45679
1.60747
1.79074
2.01833
2.30749
2.68401
3.18733
3.87973
4.8637
6.3174
8.57269
12.3045
19.0539
32.9376
67.7597
189.397
974.456
0.0891561
0.090969
0.0928295
0.0947396
0.0967012
0.0987164
0.100787
0.102916
0.105106
0.107358
0.109676
0.112063
0.114521
0.117053
0.119663
0.122355
0.125133
0.128002
0.130964
0.134026
0.137191
0.140464
0.14385
0.147355
0.150983
0.154742
0.158639
0.162679
0.166871
0.171222
0.175743
0.180441
0.185327
0.190411
0.195706
0.201224
0.206978
0.212982
0.219252
0.225805
0.232659
0.239834
0.247351
0.255232
0.263504
0.272193
0.281329
0.290945
0.301075
0.311758
0.323037
0.334958
0.347571
0.360933
0.375106
0.390157
0.406162
0.423206
0.44138
0.460791
0.481553
0.503798
0.527675
0.553351
0.581018
0.610898
0.643246
0.678363
0.716605
0.758396
0.804255
0.854822
0.910902
0.973552
1.04414
1.12435
1.21634
1.32298
1.44828
1.59783
1.77966
2.00537
2.29208
2.66534
3.1643
3.85074
4.82641
6.26815
8.5054
12.2084
18.9075
32.6933
67.2898
188.257
970.482
0.0887544
0.0905591
0.0924112
0.0943127
0.0962654
0.0982714
0.100333
0.102452
0.104631
0.106873
0.10918
0.111556
0.114002
0.116522
0.11912
0.121799
0.124564
0.127418
0.130366
0.133413
0.136562
0.139819
0.143188
0.146676
0.150286
0.154027
0.157904
0.161924
0.166095
0.170425
0.174923
0.179598
0.184459
0.189518
0.194786
0.200276
0.206
0.211974
0.218212
0.224731
0.23155
0.238688
0.246166
0.254007
0.262236
0.270881
0.27997
0.289535
0.299613
0.310241
0.321461
0.33332
0.345869
0.359162
0.373262
0.388236
0.404159
0.421116
0.439199
0.458511
0.479169
0.501303
0.525061
0.550611
0.578142
0.607875
0.640065
0.67501
0.713064
0.754648
0.800277
0.850585
0.90637
0.968675
1.03886
1.1186
1.21003
1.31601
1.44048
1.589
1.76951
1.99352
2.27798
2.64827
3.14323
3.82423
4.7923
6.22309
8.44382
12.1203
18.7734
32.4695
66.8591
187.212
966.829
0.0883887
0.090186
0.0920305
0.0939241
0.0958686
0.0978663
0.0999191
0.102029
0.104199
0.106432
0.108729
0.111094
0.11353
0.11604
0.118626
0.121293
0.124046
0.126887
0.129822
0.132855
0.13599
0.139232
0.142586
0.146058
0.149653
0.153376
0.157236
0.161238
0.16539
0.1697
0.174177
0.178831
0.18367
0.188705
0.193949
0.199413
0.205111
0.211057
0.217266
0.223755
0.230542
0.237646
0.245089
0.252893
0.261083
0.269687
0.278733
0.288253
0.298283
0.308861
0.320028
0.331831
0.34432
0.357551
0.371584
0.386488
0.402337
0.419215
0.437214
0.456437
0.477
0.499034
0.522684
0.548117
0.575524
0.605124
0.63717
0.671959
0.709841
0.751237
0.796657
0.846729
0.902247
0.964238
1.03405
1.11337
1.2043
1.30967
1.4334
1.58098
1.7603
1.98276
2.26519
2.63278
3.12413
3.80019
4.76136
6.18219
8.38793
12.0404
18.6517
32.2663
66.4677
186.261
963.502
0.0880591
0.0898497
0.0916874
0.0935739
0.0955112
0.0975013
0.0995463
0.101649
0.10381
0.106034
0.108323
0.110679
0.113105
0.115605
0.118181
0.120838
0.123579
0.126409
0.129332
0.132352
0.135475
0.138704
0.142044
0.145502
0.149082
0.15279
0.156634
0.16062
0.164755
0.169047
0.173506
0.17814
0.182959
0.187974
0.193196
0.198637
0.204311
0.210232
0.216414
0.222876
0.229634
0.236708
0.244119
0.25189
0.260045
0.268612
0.277619
0.287099
0.297086
0.307618
0.318738
0.33049
0.342926
0.3561
0.370074
0.384914
0.400697
0.417503
0.435427
0.454569
0.475047
0.496989
0.520542
0.545871
0.573167
0.602646
0.634562
0.66921
0.706938
0.748164
0.793396
0.843257
0.898533
0.960243
1.02973
1.10867
1.19914
1.30397
1.42703
1.57378
1.75202
1.97309
2.2537
2.61887
3.10697
3.77859
4.73356
6.14545
8.3377
11.9686
18.5423
32.0835
66.1157
185.406
960.501
0.0877658
0.0895505
0.0913821
0.0932623
0.0951931
0.0971765
0.0992146
0.10131
0.103464
0.10568
0.107961
0.110309
0.112727
0.115218
0.117785
0.120433
0.123164
0.125984
0.128896
0.131905
0.135016
0.138234
0.141562
0.145007
0.148574
0.152269
0.156099
0.16007
0.16419
0.168467
0.172909
0.177526
0.182327
0.187323
0.192526
0.197947
0.203599
0.209498
0.215657
0.222094
0.228827
0.235874
0.243257
0.250998
0.259122
0.267656
0.276629
0.286072
0.296021
0.306513
0.31759
0.329297
0.341686
0.35481
0.36873
0.383515
0.399237
0.415981
0.433837
0.452908
0.47331
0.495171
0.518637
0.543874
0.57107
0.600442
0.632243
0.666765
0.704356
0.745432
0.790496
0.840169
0.895231
0.956691
1.02589
1.10448
1.19456
1.29891
1.42137
1.56738
1.74467
1.96451
2.24351
2.60653
3.09174
3.75942
4.70889
6.11285
8.29312
11.9048
18.4452
31.9212
65.8028
184.645
957.829
0.0875089
0.0892885
0.0911147
0.0929895
0.0949146
0.0968921
0.0989242
0.101013
0.103161
0.105371
0.107644
0.109985
0.112396
0.114879
0.117439
0.120078
0.122801
0.125611
0.128514
0.131514
0.134615
0.137822
0.14114
0.144574
0.14813
0.151813
0.15563
0.159589
0.163695
0.167958
0.172386
0.176988
0.181774
0.186754
0.191939
0.197342
0.202976
0.208855
0.214994
0.22141
0.22812
0.235144
0.242502
0.250217
0.258314
0.266819
0.275762
0.285174
0.295089
0.305546
0.316586
0.328254
0.3406
0.353681
0.367555
0.38229
0.39796
0.414648
0.432446
0.451454
0.471789
0.493579
0.51697
0.542125
0.569234
0.598513
0.630212
0.664624
0.702095
0.743039
0.787957
0.837465
0.89234
0.953582
1.02252
1.10082
1.19055
1.29448
1.41643
1.56179
1.73825
1.95702
2.2346
2.59575
3.07844
3.74268
4.68734
6.08436
8.25417
11.8491
18.3603
31.7793
65.5293
183.979
955.488
0.0872886
0.0890637
0.0908854
0.0927554
0.0946757
0.0966483
0.0986752
0.100759
0.102901
0.105105
0.107373
0.109707
0.112112
0.114589
0.117141
0.119774
0.122489
0.125292
0.128187
0.131179
0.134271
0.13747
0.140778
0.144203
0.147749
0.151422
0.155229
0.159176
0.163272
0.167523
0.171938
0.176527
0.1813
0.186265
0.191436
0.196824
0.202442
0.208305
0.214426
0.220824
0.227515
0.234518
0.241855
0.249548
0.257622
0.266102
0.275019
0.284403
0.29429
0.304717
0.315725
0.327359
0.33967
0.352712
0.366547
0.38124
0.396865
0.413506
0.431253
0.450208
0.470486
0.492215
0.51554
0.540626
0.56766
0.596858
0.628471
0.662788
0.700157
0.740987
0.785779
0.835147
0.889862
0.950916
1.01964
1.09769
1.18711
1.29068
1.41219
1.557
1.73275
1.95061
2.22698
2.58653
3.06707
3.72836
4.6689
6.05998
8.22083
11.8014
18.2876
31.6578
65.2949
183.408
953.479
0.0871049
0.0888763
0.0906942
0.0925603
0.0944765
0.0964449
0.0984675
0.100547
0.102684
0.104884
0.107146
0.109476
0.111875
0.114346
0.116894
0.11952
0.122229
0.125026
0.127915
0.130899
0.133985
0.137176
0.140477
0.143894
0.147431
0.151096
0.154894
0.158832
0.162918
0.16716
0.171565
0.176143
0.180904
0.185859
0.191017
0.196392
0.201997
0.207846
0.213953
0.220335
0.22701
0.233996
0.241316
0.24899
0.257045
0.265505
0.2744
0.283762
0.293624
0.304026
0.315007
0.326613
0.338895
0.351906
0.365707
0.380364
0.395953
0.412553
0.430258
0.449169
0.469399
0.491077
0.514348
0.539376
0.566348
0.595479
0.627019
0.661258
0.698541
0.739277
0.783965
0.833215
0.887796
0.948695
1.01724
1.09507
1.18425
1.28752
1.40866
1.55301
1.72818
1.94527
2.22064
2.57885
3.0576
3.71644
4.65355
6.03968
8.19307
11.7617
18.227
31.5566
65.0997
182.932
951.803
0.0869579
0.0887263
0.0905412
0.0924041
0.0943171
0.0962822
0.0983013
0.100377
0.102511
0.104706
0.106965
0.109291
0.111686
0.114153
0.116695
0.119317
0.122022
0.124813
0.127696
0.130676
0.133755
0.13694
0.140236
0.143646
0.147177
0.150835
0.154626
0.158557
0.162636
0.166869
0.171266
0.175836
0.180588
0.185533
0.190682
0.196047
0.201641
0.207478
0.213574
0.219944
0.226606
0.233579
0.240884
0.248544
0.256583
0.265026
0.273904
0.283248
0.293092
0.303473
0.314433
0.326017
0.338274
0.35126
0.365035
0.379664
0.395222
0.411792
0.429463
0.448337
0.46853
0.490167
0.513395
0.538376
0.565298
0.594376
0.625858
0.660034
0.697248
0.737909
0.782513
0.83167
0.886144
0.946918
1.01531
1.09298
1.18196
1.28499
1.40584
1.54982
1.72452
1.941
2.21557
2.57272
3.05003
3.70691
4.64128
6.02346
8.17089
11.7299
18.1786
31.4756
64.9435
182.552
950.462
0.0868475
0.0886138
0.0904264
0.092287
0.0941975
0.0961601
0.0981766
0.100249
0.102381
0.104573
0.106829
0.109152
0.111543
0.114007
0.116547
0.119165
0.121866
0.124653
0.127533
0.130508
0.133583
0.136764
0.140055
0.14346
0.146986
0.150639
0.154425
0.158351
0.162423
0.166651
0.171042
0.175605
0.180351
0.185289
0.19043
0.195788
0.201374
0.207203
0.213289
0.21965
0.226303
0.233266
0.240561
0.248209
0.256236
0.264668
0.273533
0.282863
0.292692
0.303058
0.314002
0.325569
0.337809
0.350776
0.36453
0.379139
0.394675
0.41122
0.428866
0.447714
0.467877
0.489484
0.512679
0.537626
0.564511
0.593549
0.624987
0.659116
0.696279
0.736883
0.781425
0.830512
0.884906
0.945588
1.01388
1.09142
1.18025
1.2831
1.40373
1.54743
1.72178
1.9378
2.21177
2.56813
3.04436
3.69977
4.63209
6.01131
8.15426
11.7062
18.1424
31.415
64.8265
182.266
949.455
0.086774
0.0885388
0.0903498
0.0922088
0.0941178
0.0960786
0.0980935
0.100165
0.102294
0.104485
0.106739
0.109059
0.111449
0.11391
0.116447
0.119063
0.121762
0.124547
0.127423
0.130396
0.133469
0.136646
0.139934
0.143336
0.146859
0.150509
0.154291
0.158213
0.162282
0.166506
0.170893
0.175452
0.180193
0.185126
0.190263
0.195615
0.201196
0.207019
0.2131
0.219454
0.226101
0.233057
0.240345
0.247986
0.256005
0.264428
0.273285
0.282606
0.292425
0.302781
0.313715
0.32527
0.337498
0.350453
0.364194
0.378788
0.394309
0.410839
0.428468
0.447298
0.467442
0.489029
0.512203
0.537126
0.563986
0.592997
0.624407
0.658505
0.695633
0.7362
0.7807
0.829741
0.884083
0.944704
1.01292
1.09038
1.17911
1.28184
1.40232
1.54584
1.71995
1.93567
2.20924
2.56506
3.04058
3.69502
4.62597
6.00321
8.14319
11.6903
18.1182
31.3746
64.7485
182.076
948.784
0.0867372
0.0885012
0.0903115
0.0921697
0.0940779
0.0960379
0.0980519
0.100122
0.102251
0.10444
0.106693
0.109013
0.111401
0.113862
0.116398
0.119013
0.12171
0.124494
0.127369
0.13034
0.133411
0.136587
0.139873
0.143274
0.146796
0.150444
0.154224
0.158144
0.162211
0.166433
0.170818
0.175375
0.180113
0.185044
0.190179
0.195528
0.201107
0.206927
0.213005
0.219357
0.225999
0.232953
0.240237
0.247874
0.255889
0.264309
0.273161
0.282477
0.292292
0.302643
0.313571
0.325121
0.337343
0.350291
0.364026
0.378613
0.394127
0.410648
0.428269
0.44709
0.467225
0.488802
0.511964
0.536876
0.563724
0.592721
0.624117
0.658199
0.695311
0.735859
0.780338
0.829355
0.883671
0.944262
1.01244
1.08986
1.17854
1.28121
1.40162
1.54504
1.71904
1.93461
2.20798
2.56353
3.0387
3.69264
4.62291
5.99917
8.13765
11.6824
18.1061
31.3544
64.7095
181.981
948.448
0.0867372
0.0885012
0.0903115
0.0921697
0.0940779
0.0960379
0.0980519
0.100122
0.102251
0.10444
0.106693
0.109013
0.111401
0.113862
0.116398
0.119013
0.12171
0.124494
0.127369
0.13034
0.133411
0.136587
0.139873
0.143274
0.146796
0.150444
0.154224
0.158144
0.162211
0.166433
0.170818
0.175375
0.180113
0.185044
0.190179
0.195528
0.201107
0.206927
0.213005
0.219357
0.225999
0.232953
0.240237
0.247874
0.255889
0.264309
0.273161
0.282477
0.292292
0.302643
0.313571
0.325121
0.337343
0.350291
0.364026
0.378613
0.394127
0.410648
0.428269
0.44709
0.467225
0.488802
0.511964
0.536876
0.563724
0.592721
0.624117
0.658199
0.695311
0.735859
0.780338
0.829355
0.883671
0.944262
1.01244
1.08986
1.17854
1.28121
1.40162
1.54504
1.71904
1.93461
2.20798
2.56353
3.0387
3.69264
4.62291
5.99917
8.13765
11.6824
18.1061
31.3544
64.7095
181.981
948.448
0.0867739
0.0885388
0.0903498
0.0922088
0.0941178
0.0960786
0.0980935
0.100165
0.102294
0.104485
0.106739
0.109059
0.111449
0.11391
0.116447
0.119063
0.121762
0.124547
0.127423
0.130396
0.133469
0.136646
0.139934
0.143336
0.146859
0.150509
0.154291
0.158213
0.162282
0.166506
0.170893
0.175452
0.180192
0.185126
0.190263
0.195615
0.201196
0.207019
0.2131
0.219454
0.226101
0.233057
0.240345
0.247986
0.256005
0.264428
0.273285
0.282606
0.292425
0.302781
0.313715
0.32527
0.337498
0.350453
0.364194
0.378788
0.394309
0.410839
0.428468
0.447298
0.467442
0.489029
0.512203
0.537126
0.563986
0.592997
0.624407
0.658505
0.695633
0.7362
0.7807
0.829741
0.884083
0.944704
1.01292
1.09038
1.17911
1.28184
1.40232
1.54584
1.71995
1.93567
2.20924
2.56506
3.04058
3.69502
4.62597
6.00321
8.14319
11.6903
18.1182
31.3746
64.7485
182.076
948.784
0.0868475
0.0886138
0.0904263
0.092287
0.0941975
0.09616
0.0981766
0.100249
0.102381
0.104573
0.106829
0.109152
0.111543
0.114007
0.116547
0.119165
0.121866
0.124653
0.127533
0.130508
0.133583
0.136764
0.140055
0.14346
0.146986
0.150639
0.154425
0.158351
0.162423
0.166651
0.171042
0.175605
0.180351
0.185289
0.19043
0.195788
0.201374
0.207203
0.213289
0.21965
0.226303
0.233266
0.240561
0.248209
0.256236
0.264668
0.273533
0.282863
0.292692
0.303058
0.314002
0.325569
0.337809
0.350776
0.36453
0.379139
0.394675
0.41122
0.428866
0.447714
0.467877
0.489484
0.512679
0.537626
0.564511
0.593548
0.624987
0.659116
0.696279
0.736883
0.781425
0.830512
0.884906
0.945588
1.01388
1.09142
1.18025
1.2831
1.40373
1.54743
1.72178
1.9378
2.21177
2.56813
3.04436
3.69977
4.63209
6.01131
8.15426
11.7062
18.1424
31.415
64.8265
182.266
949.455
0.0869578
0.0887263
0.0905412
0.0924041
0.0943171
0.0962821
0.0983013
0.100377
0.102511
0.104706
0.106965
0.109291
0.111686
0.114153
0.116695
0.119317
0.122022
0.124813
0.127696
0.130676
0.133755
0.13694
0.140236
0.143646
0.147177
0.150835
0.154626
0.158557
0.162636
0.166869
0.171266
0.175836
0.180588
0.185533
0.190682
0.196047
0.201641
0.207478
0.213574
0.219944
0.226606
0.233579
0.240884
0.248544
0.256583
0.265026
0.273904
0.283248
0.293092
0.303473
0.314433
0.326017
0.338274
0.35126
0.365035
0.379664
0.395222
0.411792
0.429463
0.448337
0.468529
0.490167
0.513395
0.538376
0.565298
0.594376
0.625858
0.660034
0.697248
0.737909
0.782513
0.83167
0.886144
0.946918
1.01531
1.09298
1.18196
1.28499
1.40584
1.54982
1.72452
1.941
2.21557
2.57272
3.05003
3.70691
4.64128
6.02346
8.17089
11.7299
18.1786
31.4756
64.9435
182.552
950.462
0.0871049
0.0888763
0.0906942
0.0925603
0.0944765
0.0964449
0.0984675
0.100547
0.102684
0.104884
0.107146
0.109476
0.111875
0.114346
0.116894
0.11952
0.122229
0.125026
0.127915
0.130899
0.133985
0.137176
0.140477
0.143894
0.147431
0.151096
0.154894
0.158832
0.162918
0.16716
0.171565
0.176143
0.180904
0.185859
0.191017
0.196392
0.201997
0.207846
0.213953
0.220335
0.22701
0.233996
0.241316
0.24899
0.257045
0.265505
0.2744
0.283762
0.293624
0.304026
0.315007
0.326613
0.338895
0.351906
0.365707
0.380364
0.395953
0.412554
0.430258
0.449169
0.469399
0.491077
0.514348
0.539376
0.566348
0.595479
0.627019
0.661258
0.698541
0.739277
0.783965
0.833215
0.887796
0.948695
1.01724
1.09507
1.18425
1.28752
1.40866
1.55301
1.72818
1.94527
2.22064
2.57885
3.0576
3.71644
4.65355
6.03968
8.19307
11.7617
18.227
31.5566
65.0997
182.932
951.803
0.0872886
0.0890638
0.0908854
0.0927554
0.0946757
0.0966483
0.0986752
0.100759
0.102901
0.105105
0.107373
0.109707
0.112112
0.114589
0.117141
0.119774
0.122489
0.125292
0.128187
0.131179
0.134271
0.13747
0.140778
0.144203
0.147749
0.151422
0.155229
0.159176
0.163272
0.167523
0.171938
0.176527
0.1813
0.186265
0.191436
0.196824
0.202442
0.208305
0.214426
0.220824
0.227515
0.234518
0.241855
0.249548
0.257622
0.266102
0.275019
0.284403
0.29429
0.304717
0.315725
0.327359
0.33967
0.352712
0.366547
0.38124
0.396865
0.413506
0.431253
0.450208
0.470486
0.492215
0.51554
0.540626
0.56766
0.596858
0.628471
0.662788
0.700157
0.740987
0.785779
0.835147
0.889862
0.950916
1.01964
1.09769
1.18711
1.29068
1.41219
1.557
1.73275
1.95061
2.22698
2.58653
3.06707
3.72836
4.6689
6.05998
8.22083
11.8014
18.2876
31.6578
65.2949
183.408
953.479
0.087509
0.0892885
0.0911148
0.0929895
0.0949146
0.0968922
0.0989243
0.101013
0.103161
0.105371
0.107644
0.109985
0.112396
0.114879
0.117439
0.120078
0.122801
0.125611
0.128514
0.131514
0.134615
0.137822
0.14114
0.144574
0.14813
0.151813
0.15563
0.159589
0.163695
0.167958
0.172386
0.176988
0.181774
0.186754
0.191939
0.197342
0.202976
0.208855
0.214994
0.22141
0.22812
0.235144
0.242502
0.250217
0.258314
0.266819
0.275762
0.285174
0.295089
0.305546
0.316586
0.328254
0.3406
0.353681
0.367555
0.38229
0.39796
0.414648
0.432445
0.451454
0.471789
0.493579
0.51697
0.542125
0.569234
0.598513
0.630212
0.664624
0.702095
0.743039
0.787957
0.837465
0.89234
0.953582
1.02252
1.10082
1.19055
1.29448
1.41643
1.56179
1.73825
1.95702
2.2346
2.59575
3.07844
3.74268
4.68734
6.08436
8.25417
11.8491
18.3603
31.7793
65.5293
183.979
955.488
0.0877658
0.0895505
0.0913821
0.0932623
0.0951931
0.0971765
0.0992147
0.10131
0.103464
0.10568
0.107961
0.110309
0.112727
0.115218
0.117785
0.120433
0.123164
0.125984
0.128896
0.131905
0.135016
0.138234
0.141562
0.145007
0.148574
0.152269
0.156099
0.16007
0.16419
0.168467
0.172909
0.177526
0.182327
0.187323
0.192526
0.197947
0.203599
0.209498
0.215657
0.222094
0.228827
0.235874
0.243257
0.250998
0.259122
0.267656
0.276629
0.286072
0.296021
0.306513
0.31759
0.329298
0.341686
0.35481
0.36873
0.383515
0.399237
0.415981
0.433837
0.452908
0.47331
0.495171
0.518637
0.543874
0.57107
0.600442
0.632243
0.666765
0.704356
0.745431
0.790496
0.840169
0.895231
0.956691
1.02589
1.10448
1.19456
1.29891
1.42137
1.56738
1.74467
1.96451
2.2435
2.60653
3.09174
3.75942
4.70889
6.11285
8.29312
11.9048
18.4452
31.9212
65.8028
184.645
957.829
0.0880591
0.0898497
0.0916874
0.0935739
0.0955112
0.0975013
0.0995463
0.101649
0.10381
0.106034
0.108323
0.110679
0.113105
0.115605
0.118181
0.120838
0.123579
0.126409
0.129332
0.132352
0.135475
0.138704
0.142044
0.145502
0.149082
0.15279
0.156634
0.16062
0.164755
0.169047
0.173506
0.17814
0.182959
0.187974
0.193196
0.198637
0.204311
0.210232
0.216414
0.222876
0.229634
0.236708
0.244119
0.25189
0.260045
0.268612
0.277619
0.287099
0.297086
0.307618
0.318738
0.33049
0.342926
0.3561
0.370074
0.384914
0.400697
0.417503
0.435427
0.454569
0.475047
0.496989
0.520542
0.545871
0.573167
0.602646
0.634562
0.66921
0.706938
0.748164
0.793396
0.843257
0.898533
0.960243
1.02973
1.10867
1.19914
1.30397
1.42703
1.57378
1.75202
1.97309
2.2537
2.61887
3.10697
3.77859
4.73356
6.14545
8.3377
11.9686