/*--------------------------------*- C++ -*----------------------------------*\
  =========                 |
  \\      /  F ield         | OpenFOAM: The Open Source CFD Toolbox
   \\    /   O peration     | Website:  https://openfoam.org
    \\  /    A nd           | Version:  7
     \\/     M anipulation  |
\*---------------------------------------------------------------------------*/
FoamFile
{
    version     2.0;
    format      ascii;
    class       surfaceScalarField;
    location    "196000";
    object      phi;
}
// * * * * * * * * * * * * * * * * * * * * * * * * * * * * * * * * * * * * * //

dimensions      [0 3 -1 0 0 0 0];

internalField   nonuniform List<scalar> 
9375
(
7.43133e-25
2.84401e-23
5.56389e-24
6.57295e-23
-3.03963e-26
5.65927e-23
6.70886e-24
9.19411e-23
4.88075e-24
-5.25127e-23
8.41667e-23
-8.62903e-24
1.06668e-22
-7.19918e-25
3.46276e-23
-6.18817e-24
8.60518e-23
-1.7535e-23
1.0529e-22
-4.69578e-24
8.98086e-23
1.61103e-24
1.00167e-22
-4.66444e-24
6.8763e-23
-2.30047e-23
-2.44786e-23
-1.06529e-23
-3.42303e-23
2.86084e-24
8.47013e-23
4.77006e-24
1.07803e-22
1.00197e-24
1.00954e-22
4.28563e-24
8.88595e-23
6.78978e-24
1.37753e-23
-6.87796e-24
1.21714e-22
-3.99067e-24
7.38914e-23
-8.49334e-24
1.04605e-22
-1.64129e-23
7.64289e-23
-6.84667e-24
2.57456e-23
-1.41438e-23
-1.26312e-23
-1.44302e-23
7.67597e-23
-1.75298e-23
-9.96391e-24
-1.07722e-23
2.37687e-23
-1.25842e-23
1.0504e-22
-7.96947e-24
5.48848e-23
-3.16356e-24
9.55994e-23
-8.02005e-24
1.58442e-23
-6.08547e-24
6.96171e-23
1.26077e-22
-8.90392e-24
1.26298e-22
8.4975e-25
3.58831e-23
-7.10672e-24
8.50877e-23
-1.72418e-23
1.56323e-22
-4.39089e-24
9.14739e-23
1.34887e-24
1.85586e-22
-5.84949e-24
1.14915e-22
-2.24829e-23
-6.11093e-24
-9.28861e-24
-2.95196e-23
3.32904e-24
1.4222e-22
5.13433e-24
1.42598e-22
-1.5492e-26
1.06452e-22
3.47888e-24
7.50185e-23
9.26519e-24
2.32219e-24
-8.50559e-24
6.49309e-23
-2.34156e-24
4.62234e-23
-1.00062e-23
6.47274e-23
-1.58749e-23
7.87313e-23
-7.29655e-24
4.36239e-23
-1.3149e-23
-7.07306e-24
-1.55793e-23
5.17741e-23
-1.7095e-23
-3.59008e-23
-1.03303e-23
1.93702e-23
-1.24837e-23
7.77406e-23
-8.02017e-24
1.20097e-22
-4.42612e-24
3.90946e-23
-7.03443e-24
1.54504e-23
-5.53928e-24
1.64133e-23
2.21975e-24
1.36359e-22
2.96713e-24
4.66091e-23
-3.08413e-24
3.9671e-23
-2.43701e-24
-3.06573e-23
9.42765e-23
-8.73054e-24
1.44112e-22
2.36814e-24
2.47927e-23
-6.15259e-24
3.96685e-23
-1.7337e-23
1.72383e-22
-3.03983e-24
9.90558e-23
1.20547e-24
1.39927e-22
-8.78571e-24
1.30985e-22
-2.21054e-23
4.68563e-23
-6.84144e-24
7.9188e-23
2.76394e-24
1.27009e-22
5.025e-24
1.37558e-22
-1.55788e-24
1.1e-22
2.54433e-24
5.8269e-23
1.08964e-23
5.78913e-24
-9.41341e-24
1.19262e-23
-9.2138e-25
1.11865e-22
-1.08088e-23
3.76266e-23
-1.54962e-23
1.22717e-22
-7.93357e-24
3.76317e-23
-1.26966e-23
1.99797e-24
-1.66453e-23
-1.84818e-23
-1.63208e-23
-2.28844e-23
-9.97039e-24
1.06588e-23
-1.0545e-23
7.20263e-23
-1.0513e-23
8.26029e-23
-3.87088e-24
7.08393e-23
-7.06454e-24
1.94004e-23
-3.86523e-24
4.8261e-23
2.48245e-24
1.79142e-22
2.09419e-24
1.67717e-23
-3.10243e-24
4.66997e-23
-6.39649e-25
-3.89142e-23
1.46862e-24
5.64811e-23
2.97875e-24
1.34438e-23
7.93121e-24
6.10347e-23
2.94323e-24
-1.07179e-22
1.30404e-23
-3.62368e-23
6.84349e-25
-4.66501e-23
-8.29665e-24
5.4408e-23
-1.292e-23
-2.62424e-23
-4.8366e-24
1.25521e-23
-1.36195e-24
7.69337e-23
7.99811e-24
-2.4704e-23
-1.03238e-23
-8.24568e-23
-1.19756e-22
-9.8821e-24
1.72885e-22
2.98699e-24
8.96096e-23
-4.56484e-24
3.08632e-23
-1.7205e-23
1.82345e-22
-2.74476e-24
1.85829e-22
2.06849e-24
1.37711e-22
-9.99701e-24
1.5311e-22
-2.13316e-23
3.95722e-23
-5.84866e-24
3.46251e-23
2.65412e-24
1.85642e-22
4.53544e-24
2.10569e-22
-2.86532e-24
7.92309e-23
2.08691e-24
4.93426e-23
1.17781e-23
5.26741e-23
-8.34442e-24
-3.11667e-23
-1.4452e-24
1.05226e-22
-1.00294e-23
2.66987e-23
-1.63237e-23
8.46703e-23
-7.97853e-24
5.84858e-23
-1.35576e-23
1.13969e-23
-1.63707e-23
-2.05012e-23
-1.61704e-23
-1.44479e-23
-9.01081e-24
1.27724e-22
-9.9531e-24
6.95665e-23
-1.17262e-23
8.59022e-23
-3.58607e-24
9.4546e-23
-6.65996e-24
2.07648e-23
-2.40772e-24
1.17242e-22
1.41381e-24
1.1026e-22
2.4985e-24
1.00223e-23
-4.01704e-24
-3.11767e-23
2.55256e-25
-9.74415e-24
1.973e-24
7.81337e-23
3.00461e-24
4.14364e-23
6.32149e-24
4.64186e-23
3.49557e-24
-1.1445e-22
1.3653e-23
-4.19875e-23
1.33782e-24
-4.09082e-23
-7.4971e-24
-1.3159e-23
-1.30612e-23
-8.99882e-24
-3.72614e-24
-2.75123e-24
-2.43924e-24
2.22991e-23
5.23181e-24
-3.7847e-23
-1.0258e-23
-2.94821e-23
-8.35286e-23
-8.8302e-24
1.69121e-22
2.28039e-24
1.46505e-22
-3.39377e-24
2.02997e-23
-1.6291e-23
2.22523e-22
-4.4689e-24
1.92201e-22
1.58313e-24
1.8152e-22
-1.07733e-23
1.69604e-22
-2.16008e-23
5.6032e-23
-4.48105e-24
2.60792e-23
2.83561e-24
1.74238e-22
3.72084e-24
1.68693e-22
-3.07645e-24
6.80302e-23
1.20676e-24
7.19551e-23
1.2079e-23
1.5597e-22
-7.1572e-24
-3.85444e-23
-2.20582e-24
8.48351e-23
-9.37911e-24
-9.66714e-24
-1.60686e-23
4.51206e-23
-8.52874e-24
4.8982e-23
-1.42064e-23
2.52644e-23
-1.63996e-23
-2.17248e-23
-1.41736e-23
-2.98356e-24
-9.99507e-24
1.19582e-22
-9.28198e-24
-1.42024e-23
-1.24294e-23
1.08147e-22
-3.35391e-24
1.62344e-22
-5.26362e-24
-9.7675e-24
-3.32535e-24
1.26991e-22
3.15077e-25
1.09239e-22
1.59851e-24
1.78718e-23
-2.74453e-24
-3.30613e-23
1.11228e-24
-4.62354e-23
3.00739e-24
7.49649e-23
3.61599e-24
4.45069e-23
5.25368e-24
5.41751e-23
5.05152e-24
-1.27102e-22
1.40286e-23
-4.67427e-23
6.60211e-25
-6.41632e-23
-5.40105e-24
-5.5937e-24
-1.30066e-23
1.12566e-23
-2.4112e-24
6.41969e-23
-3.71748e-24
-1.6713e-23
5.15648e-24
2.48179e-23
-1.08104e-23
-8.92963e-24
-7.84617e-23
-9.24602e-24
1.64118e-22
1.71974e-24
1.19446e-22
-1.62906e-24
9.99304e-24
-1.53462e-23
1.42952e-22
-2.85843e-24
1.11141e-22
1.1279e-24
5.77774e-23
-1.22949e-23
2.06045e-22
-2.10235e-23
6.44329e-23
-1.9745e-24
8.75346e-24
2.06061e-24
1.36517e-22
2.98138e-24
1.69535e-22
-3.7137e-24
1.1113e-24
2.57328e-24
5.60831e-23
1.05555e-23
1.65165e-22
-6.59585e-24
-3.60229e-23
-2.3225e-24
9.00778e-23
-9.17807e-24
-1.73948e-23
-1.5543e-23
1.25068e-23
-8.85751e-24
4.61095e-23
-1.4551e-23
3.55092e-24
-1.65186e-23
-2.7055e-23
-1.24567e-23
4.58223e-23
-1.19616e-23
1.0381e-22
-7.36154e-24
2.05085e-23
-1.21707e-23
1.30858e-22
-4.73955e-24
1.11017e-22
-4.19008e-24
-1.63827e-23
-3.86966e-24
1.14983e-22
4.56274e-25
9.99297e-23
7.36154e-25
2.09531e-23
-3.44201e-24
-2.26448e-25
2.78831e-24
-5.48293e-23
2.97824e-24
7.00731e-23
3.66298e-24
-2.48215e-23
3.69316e-24
3.3612e-23
3.71292e-24
-5.69141e-23
1.39997e-23
1.95243e-23
1.30706e-24
-1.89277e-23
-4.26031e-24
-4.1057e-24
-1.22912e-23
2.20958e-23
-2.22729e-24
4.9582e-23
-3.97291e-24
-1.67038e-23
3.29937e-24
1.01245e-23
-1.03455e-23
7.88078e-24
-1.30511e-22
-7.9039e-24
7.87423e-23
1.94172e-24
9.50421e-23
-1.02045e-24
-2.27328e-24
-1.54685e-23
1.14173e-22
-2.78256e-24
1.49013e-22
2.24518e-24
9.99906e-23
-1.45132e-23
1.44068e-22
-2.10558e-23
6.70653e-23
-7.29002e-25
6.69716e-23
2.31616e-24
1.38235e-22
1.02491e-24
9.14199e-23
-3.04022e-24
4.96401e-23
3.72431e-24
3.78296e-23
9.2378e-24
1.46403e-22
-6.20659e-24
7.11747e-24
-2.98728e-24
8.5427e-23
-9.25934e-24
-6.78468e-23
-1.46117e-23
4.18185e-24
-9.35228e-24
6.53958e-23
-1.44093e-23
-2.0165e-23
-1.60191e-23
-6.15063e-23
-1.20795e-23
9.44193e-23
-1.31452e-23
8.09486e-23
-5.63934e-24
1.46229e-23
-1.298e-23
7.89014e-23
-5.56742e-24
1.08006e-22
-2.83296e-24
-3.07301e-23
-3.66854e-24
9.63925e-23
-6.30281e-25
3.80643e-23
1.20027e-24
1.47822e-22
-4.16878e-24
-6.81101e-24
4.66603e-24
-3.0774e-23
1.67415e-24
7.77787e-23
4.91916e-24
8.87741e-24
3.88172e-24
3.48618e-23
4.61285e-24
-3.32804e-23
1.34226e-23
8.37884e-23
1.71574e-24
-2.05716e-23
-5.07087e-24
3.19372e-25
-1.2308e-23
5.8079e-23
-1.93962e-24
1.1175e-22
-4.37276e-24
-1.23439e-23
2.25001e-24
-2.57842e-24
-1.13118e-23
2.15353e-23
-1.83221e-22
-7.62638e-24
1.4348e-22
1.79584e-24
1.07992e-22
-8.45594e-25
-1.29681e-23
-1.48138e-23
9.32527e-23
-1.93903e-24
1.50753e-22
3.0374e-24
2.14326e-23
-1.48204e-23
5.52865e-23
-2.11714e-23
1.46061e-22
2.11837e-25
1.76885e-22
1.28296e-24
1.49795e-22
5.15601e-25
1.32483e-22
-3.41658e-24
5.99693e-23
5.28627e-24
6.67097e-23
8.8565e-24
1.16104e-22
-6.57573e-24
1.76063e-23
-4.45088e-24
5.95233e-23
-8.46483e-24
-8.57461e-23
-1.36058e-23
1.4249e-23
-1.03071e-23
6.81528e-23
-1.45397e-23
-1.07332e-23
-1.4519e-23
-5.71969e-23
-1.24029e-23
6.36247e-23
-1.36979e-23
8.02831e-23
-4.61393e-24
1.37493e-22
-1.29091e-23
9.66929e-23
-6.66981e-24
9.6093e-23
-2.29118e-24
-2.02293e-23
-4.48498e-24
9.92564e-23
1.4672e-24
-3.56925e-23
-3.11976e-25
9.89455e-23
-4.51941e-24
-1.06375e-23
5.95869e-24
-7.55825e-23
1.21293e-24
6.55547e-24
5.41348e-24
4.65257e-23
3.06233e-24
3.07294e-23
5.69779e-24
4.28918e-23
1.33794e-23
4.38569e-23
1.69332e-24
-2.09702e-23
-3.57859e-24
-2.56522e-25
-1.19933e-23
3.03288e-23
-2.44127e-24
9.02234e-23
-4.67551e-24
3.23335e-23
2.08193e-24
-7.39408e-24
-1.18913e-23
-4.50869e-23
-1.67887e-22
-7.0801e-24
2.00897e-22
1.79933e-24
9.6668e-23
4.05051e-25
-3.16607e-23
-1.39001e-23
5.83175e-23
-2.86134e-24
1.08733e-22
3.67634e-24
3.46508e-23
-1.31235e-23
8.06697e-23
-2.10454e-23
1.5302e-22
-8.17615e-25
2.09619e-22
6.28582e-25
1.54289e-22
2.5501e-25
1.11028e-22
-3.89179e-24
8.59399e-23
5.76808e-24
1.424e-22
8.9604e-24
8.6003e-23
-7.18253e-24
-5.49536e-24
-5.29391e-24
5.93268e-23
-7.21135e-24
-6.83105e-24
-1.29209e-23
1.63742e-23
-1.12508e-23
7.1444e-23
-1.46315e-23
1.21906e-24
-1.34735e-23
-2.14505e-24
-1.23269e-23
7.76542e-23
-1.27494e-23
9.05292e-23
-5.40816e-24
1.30155e-22
-1.34896e-23
7.7038e-23
-7.36765e-24
1.30682e-22
-1.72642e-24
-3.801e-23
-5.49231e-24
9.9157e-23
3.43727e-24
-2.69686e-24
-7.4135e-25
4.67499e-23
-5.4834e-24
-1.28268e-23
6.79589e-24
-7.51543e-23
2.54769e-24
-6.26421e-23
4.93592e-24
5.24086e-23
4.3811e-24
1.06078e-22
4.77516e-24
-5.81957e-24
1.24552e-23
7.70403e-23
2.17738e-24
-5.41018e-23
-3.03652e-24
3.91991e-24
-1.22169e-23
-3.69369e-23
-3.28977e-24
6.79983e-23
-4.46962e-24
7.52321e-24
1.36866e-24
-2.63278e-23
-1.2856e-23
-1.52621e-22
-1.62294e-22
-6.76513e-24
1.89802e-22
1.2326e-24
8.36109e-23
1.24936e-24
3.36672e-23
-1.43734e-23
5.89716e-23
-3.30349e-24
1.02648e-22
4.99557e-24
7.6461e-23
-1.33287e-23
3.73343e-23
-1.97931e-23
1.76435e-22
-1.6783e-24
2.03111e-22
-1.73605e-25
1.52007e-22
3.93904e-25
1.23323e-22
-4.13015e-24
1.47862e-23
5.38996e-24
2.11388e-22
8.6579e-24
1.02591e-22
-7.66089e-24
-7.33813e-24
-5.42254e-24
5.73641e-23
-6.96361e-24
-1.78699e-23
-1.20398e-23
1.80654e-23
-1.20434e-23
6.48341e-23
-1.42816e-23
1.2687e-23
-1.29182e-23
1.60909e-23
-1.25266e-23
9.08488e-23
-1.15512e-23
1.46939e-22
-6.34339e-24
9.36789e-23
-1.34482e-23
9.32263e-23
-8.83814e-24
1.39805e-22
-6.47609e-25
-4.76931e-23
-5.68883e-24
1.00092e-22
4.36031e-24
2.73486e-23
-1.49307e-24
-3.76393e-23
-5.85175e-24
-1.33575e-23
6.89006e-24
-8.12015e-23
3.65118e-24
-3.10419e-23
7.5288e-24
3.84816e-23
3.37178e-24
1.08033e-23
5.42697e-24
-1.29279e-23
1.14545e-23
6.47058e-23
2.63949e-24
-7.86277e-23
-2.9687e-24
-1.19388e-22
-1.09315e-23
-5.95661e-23
-2.02114e-24
1.17153e-22
-5.56746e-24
-4.51283e-23
-6.18041e-25
-1.92091e-23
-1.22497e-23
-1.23791e-22
-1.23081e-22
-6.87664e-24
2.49099e-22
6.78397e-25
1.21749e-22
1.98613e-24
9.37072e-23
-1.41387e-23
2.90613e-23
-2.57227e-24
9.34265e-23
5.19798e-24
8.61622e-23
-1.21418e-23
2.95536e-23
-1.91804e-23
1.49297e-22
-2.837e-24
1.41642e-22
-8.06153e-25
1.44618e-22
-1.76017e-25
1.28306e-22
-2.31113e-24
1.29625e-23
4.60996e-24
2.01193e-22
7.97686e-24
1.00564e-22
-7.88081e-24
-2.23769e-23
-5.37271e-24
4.69603e-23
-6.39676e-24
5.26934e-23
-1.16141e-23
-1.04181e-23
-1.24416e-23
-5.96048e-24
-1.38403e-23
4.5347e-23
-1.24639e-23
6.27582e-23
-1.18784e-23
1.11596e-22
-1.21476e-23
1.57372e-22
-6.26298e-24
9.24083e-23
-1.36153e-23
2.19197e-23
-1.02525e-23
1.52676e-22
-4.89591e-25
-2.54731e-23
-5.13476e-24
1.34838e-22
2.77305e-24
3.84062e-23
-6.10616e-25
-1.24004e-23
-6.35433e-24
-1.11571e-23
7.5224e-24
-8.00607e-24
3.99465e-24
3.96629e-23
8.44793e-24
9.221e-24
3.63501e-24
-5.89297e-23
5.52117e-24
-2.45583e-23
1.04886e-23
1.72098e-23
2.66672e-24
-7.46031e-23
-3.43048e-24
-7.21468e-23
-8.66375e-24
-1.05687e-22
-2.98671e-24
1.00403e-22
-5.70857e-24
-3.91634e-23
-1.75405e-24
-1.26485e-23
-1.10463e-23
-1.1464e-22
-1.25445e-22
-7.72684e-24
1.9289e-22
1.11836e-24
1.93679e-22
1.5088e-24
9.33895e-23
-1.30789e-23
3.41452e-23
-2.48145e-24
8.3968e-23
5.77801e-24
9.67111e-23
-1.12443e-23
-2.77455e-23
-1.91061e-23
1.41779e-22
-2.56471e-24
1.092e-22
-1.56886e-24
1.38559e-22
-8.97522e-25
1.33626e-22
-1.0093e-24
6.79115e-23
3.61808e-24
1.56815e-22
6.95591e-24
9.8229e-23
-8.08843e-24
-8.26464e-23
-4.55685e-24
7.36772e-23
-7.14867e-24
4.553e-23
-1.18337e-23
-9.0428e-24
-1.13922e-23
1.14706e-23
-1.35293e-23
5.89351e-23
-1.19276e-23
1.17985e-22
-1.16137e-23
1.29938e-22
-1.28113e-23
8.10775e-23
-7.01025e-24
8.65315e-23
-1.21935e-23
7.02507e-23
-1.15609e-23
1.87472e-22
4.44037e-25
3.85131e-23
-5.48269e-24
1.74695e-22
2.15991e-24
5.34067e-23
-5.92142e-25
-2.95423e-23
-5.71998e-24
-8.2372e-24
8.0878e-24
4.45957e-23
2.35405e-24
-1.47324e-23
9.3428e-24
1.28566e-22
4.26668e-24
-5.83873e-23
5.25526e-24
-2.56215e-23
1.15033e-23
1.84479e-24
1.07127e-24
-6.81222e-23
-2.46876e-24
-1.5025e-22
-7.17534e-24
-4.7405e-23
-3.44388e-24
1.42408e-22
-6.35202e-24
-3.42339e-23
-2.86293e-24
3.29257e-23
-1.12823e-23
-1.08408e-22
-4.35831e-23
-1.13824e-23
3.86213e-24
-6.73724e-24
2.75516e-22
5.18305e-25
1.07248e-22
1.8773e-24
9.05391e-23
-1.24918e-23
1.49746e-23
-2.33541e-24
1.23629e-22
5.0729e-24
1.60945e-22
-9.68873e-24
-6.72543e-23
-1.90262e-23
1.20853e-22
-2.3282e-24
8.46038e-23
-1.25372e-24
9.84855e-23
-1.37215e-24
1.41676e-22
-6.40997e-25
4.79033e-23
3.54934e-24
1.62293e-22
5.40709e-24
1.02796e-22
-7.05552e-24
-8.19575e-23
-4.19676e-24
8.44965e-23
-7.42301e-24
4.73092e-23
-1.18385e-23
3.61369e-23
-1.05942e-23
1.35594e-23
-1.28696e-23
7.20341e-23
-1.17551e-23
9.87451e-23
-1.27759e-23
1.54274e-23
-1.25416e-23
5.50783e-23
-7.27959e-24
7.9699e-23
-1.13859e-23
1.00032e-22
-1.23298e-23
1.16529e-22
7.95523e-25
1.84541e-23
-5.65351e-24
9.86654e-23
7.03985e-25
9.4193e-23
-1.42092e-25
-3.76717e-23
-4.76505e-24
-9.05597e-24
7.09401e-24
1.08698e-22
3.01154e-24
-2.17241e-23
8.23677e-24
1.13833e-22
5.04359e-24
-8.41938e-23
5.87861e-24
-4.22863e-23
1.15724e-23
5.27964e-23
-4.57404e-26
-5.51765e-23
-1.28537e-24
-7.05757e-23
-6.40337e-24
-1.28553e-22
-4.11972e-24
1.3371e-22
-7.44377e-24
-3.13295e-23
-3.83742e-24
1.05638e-22
-1.19335e-23
-1.02771e-22
-4.93975e-23
-9.93342e-24
5.94905e-23
-7.42686e-24
2.60886e-22
1.26599e-24
1.77274e-22
1.56307e-24
9.14658e-23
-1.17214e-23
2.38392e-23
-1.26501e-24
1.18349e-22
2.42921e-24
1.67054e-22
-7.84986e-24
-5.89347e-23
-1.83728e-23
1.30009e-22
-3.02995e-24
7.86688e-23
-8.71502e-25
9.34281e-23
-2.25168e-24
1.5116e-22
-1.02217e-25
8.78418e-23
3.33203e-24
1.43336e-22
3.75237e-24
1.01327e-22
-5.85352e-24
-6.15867e-23
-4.10457e-24
5.33527e-23
-7.04523e-24
3.17916e-23
-1.25252e-23
-8.10248e-23
-9.3751e-24
3.99111e-23
-1.24502e-23
6.51735e-23
-1.2727e-23
1.56679e-22
-1.28172e-23
7.01252e-23
-1.19592e-23
5.99138e-23
-7.03247e-24
7.11827e-23
-1.2185e-23
1.04957e-22
-1.21297e-23
1.53532e-22
1.3075e-25
1.26692e-23
-4.00536e-24
9.96206e-23
-1.36988e-24
4.97355e-23
1.39801e-24
3.09073e-23
-4.61892e-24
7.20704e-25
7.23254e-24
8.60637e-23
3.26518e-24
-2.78813e-23
7.67787e-24
1.02787e-22
5.28593e-24
-7.63618e-23
6.40695e-24
-2.63084e-23
1.1115e-23
3.30817e-23
-5.80236e-26
-1.24931e-22
-1.57561e-24
-8.86479e-23
-4.25376e-24
-6.80839e-23
-4.19672e-24
1.27764e-22
-6.3058e-24
-7.07206e-23
-5.3182e-24
4.79715e-23
-1.12627e-23
-1.01353e-22
-5.41793e-23
-9.64997e-24
1.20885e-22
-7.18904e-24
2.68357e-22
5.90741e-25
1.66637e-22
1.54026e-24
9.36541e-23
-1.07471e-23
-2.64171e-23
-1.44038e-24
1.14411e-22
1.57655e-24
1.73928e-22
-6.99661e-24
-5.25237e-23
-1.83095e-23
5.50475e-23
-3.27139e-24
9.75761e-23
-5.78411e-25
1.36605e-22
-2.93493e-24
1.15034e-22
2.03009e-25
9.72895e-23
3.36251e-24
1.27814e-22
2.54246e-24
1.24628e-22
-5.16079e-24
-4.59969e-23
-4.13051e-24
1.93545e-23
-7.80997e-24
3.60237e-23
-1.15412e-23
-7.15629e-23
-8.95759e-24
3.70478e-23
-1.14285e-23
3.29643e-23
-1.34158e-23
7.92028e-23
-1.35188e-23
-5.70852e-24
-1.12414e-23
7.04709e-23
-6.36276e-24
6.76703e-23
-1.28208e-23
9.12178e-23
-1.22698e-23
1.59063e-22
-8.91646e-26
-9.85815e-25
-4.10752e-24
1.01486e-22
-1.4603e-24
3.89098e-23
1.42439e-24
8.42872e-23
-3.36667e-24
4.31494e-24
6.67014e-24
1.40864e-22
3.71235e-24
1.16759e-23
7.28167e-24
9.6859e-23
5.42526e-24
-7.22915e-23
7.77425e-24
3.61143e-23
1.02328e-23
2.64637e-23
-2.45663e-25
-1.1359e-22
-1.11357e-24
-9.13932e-23
-2.60682e-24
-6.7172e-23
-4.73648e-24
4.96306e-23
-6.98637e-24
-1.54058e-22
-5.20411e-24
4.85874e-23
-1.24168e-23
-1.30955e-22
-2.07081e-23
-1.93589e-23
2.29962e-22
-8.83909e-24
1.01922e-22
-7.04819e-24
2.72506e-22
1.11639e-25
1.52246e-22
1.18359e-24
9.55054e-23
-9.72794e-24
-1.44766e-23
4.40294e-25
1.09911e-22
2.81029e-25
1.14676e-22
-6.61501e-24
-4.61498e-23
-1.72556e-23
5.87863e-23
-3.46781e-24
7.41955e-23
6.31076e-26
1.86614e-22
-2.83779e-24
1.31459e-22
8.10558e-25
1.01763e-22
3.93124e-24
1.15089e-22
6.55343e-25
8.516e-23
-4.84767e-24
-4.05816e-23
-3.72225e-24
1.74349e-23
-8.59252e-24
4.53004e-23
-1.06835e-23
-3.43699e-23
-8.7016e-24
5.00489e-23
-1.09806e-23
3.27908e-23
-1.39291e-23
4.9758e-24
-1.35454e-23
7.25022e-24
-1.08034e-23
7.83639e-23
-6.07993e-24
6.87594e-23
-1.2512e-23
2.88249e-23
-1.31426e-23
1.66769e-22
-9.83989e-26
2.48006e-23
-4.19353e-24
1.05917e-22
-2.02596e-24
5.05461e-23
1.1313e-24
6.88375e-23
-2.5361e-24
-2.93418e-23
6.29187e-24
1.71037e-22
3.32708e-24
7.21796e-24
7.06441e-24
1.08157e-22
6.10294e-24
-7.38151e-23
6.89541e-24
3.75935e-23
9.55261e-24
1.77377e-23
-3.26349e-25
-1.01001e-22
-5.64234e-25
-9.47304e-23
-2.69447e-24
-6.73156e-23
-4.25305e-24
-9.83245e-24
-6.42522e-24
-1.55848e-22
-5.79075e-24
1.19802e-22
-1.19689e-23
-1.31125e-22
1.34292e-23
-1.88229e-23
2.24396e-22
-8.96323e-24
1.7053e-22
-7.19646e-24
2.74767e-22
-5.2887e-25
1.40526e-22
8.42012e-25
1.08356e-22
-8.91108e-24
-4.46097e-23
2.74996e-25
1.84059e-22
5.06581e-25
1.22679e-22
-6.7354e-24
-3.85848e-23
-1.55721e-23
6.69933e-23
-3.52168e-24
5.46553e-23
2.72522e-25
2.3044e-22
-3.85708e-24
7.30464e-23
9.54018e-25
1.04874e-22
3.746e-24
1.0967e-22
-7.61037e-25
7.05136e-23
-4.49335e-24
2.51725e-23
-3.33784e-24
1.20601e-23
-8.6354e-24
5.59297e-23
-1.03839e-23
-1.95353e-23
-8.47565e-24
7.28911e-23
-1.15173e-23
1.80917e-23
-1.32951e-23
1.37949e-23
-1.35895e-23
-4.41021e-23
-1.0275e-23
1.13683e-22
-6.74811e-24
6.79712e-23
-1.14864e-23
2.75393e-23
-1.39082e-23
5.59926e-23
-7.29167e-26
9.54248e-23
-3.52351e-24
1.10315e-22
-2.00475e-24
4.71879e-23
1.46039e-24
5.55401e-23
-1.70093e-24
-9.11624e-23
5.90422e-24
1.62912e-22
2.48813e-24
1.89416e-24
7.06465e-24
1.00693e-22
6.44032e-24
-9.77478e-23
6.76822e-24
-5.9526e-24
9.39329e-24
8.60592e-24
-7.884e-25
-8.84648e-23
5.88791e-25
-9.69173e-23
-2.78496e-24
-6.91353e-23
-4.34039e-24
3.4145e-23
-5.08098e-24
-1.55642e-22
-6.24806e-24
8.08711e-23
-1.25836e-23
-1.47442e-22
7.40334e-23
-2.31177e-23
-3.88687e-23
-1.85159e-23
1.20501e-22
-8.67546e-24
1.60735e-22
-7.0721e-24
2.76147e-22
-1.04813e-24
1.99389e-22
1.08561e-24
1.84371e-22
-7.49246e-24
-3.32648e-23
5.07444e-26
1.78655e-22
-1.09329e-24
9.54866e-23
-6.29624e-24
-2.99273e-23
-1.51453e-23
7.70564e-23
-2.98922e-24
1.07832e-22
-4.14855e-25
2.42161e-22
-4.13261e-24
4.21152e-23
1.51119e-24
1.47458e-22
3.50683e-24
4.64935e-23
-1.48659e-24
7.02928e-23
-4.52106e-24
2.30645e-23
-2.94137e-24
7.42337e-23
-8.65942e-24
-1.97466e-23
-9.9684e-24
-7.43265e-23
-8.50502e-24
6.34499e-23
-1.18509e-23
1.47062e-23
-1.34599e-23
2.61142e-23
-1.27977e-23
-3.82994e-23
-1.03251e-23
1.12139e-22
-6.79752e-24
7.80865e-23
-1.18593e-23
2.64087e-23
-1.29834e-23
5.08987e-23
-5.52611e-25
8.44014e-23
-3.05575e-24
1.13045e-22
-3.05942e-24
4.7917e-23
1.85345e-24
1.08439e-22
-4.90701e-25
-9.6852e-23
6.06102e-24
1.41792e-22
2.57397e-24
3.71265e-24
6.99422e-24
9.72995e-23
6.99205e-24
-2.37753e-23
6.84335e-24
-3.94471e-23
9.05571e-24
4.24075e-23
-1.41757e-24
-7.36111e-23
6.1248e-25
-9.75039e-23
-2.15717e-24
-7.26199e-23
-4.37677e-24
4.21481e-23
-4.32153e-24
-3.10143e-23
-7.25579e-24
8.43851e-23
-1.12384e-23
-1.51676e-22
5.39106e-23
-2.32254e-23
-2.62056e-23
-1.64069e-23
1.11952e-22
-8.43669e-24
1.17667e-22
-6.53252e-24
2.35798e-22
-1.32077e-24
1.10186e-22
8.8397e-25
1.20047e-22
-6.23209e-24
-2.33257e-23
-4.08891e-25
1.71837e-22
-1.44222e-24
6.38303e-23
-5.53103e-24
-2.54856e-23
-1.43003e-23
9.14094e-24
-2.12417e-24
9.24103e-23
-1.35571e-24
2.46511e-22
-4.59656e-24
1.29144e-23
1.06566e-24
1.46036e-22
4.12869e-24
4.31173e-23
-2.24739e-24
7.57827e-23
-3.97336e-24
1.84597e-23
-3.67618e-24
8.83696e-23
-8.64662e-24
-1.35316e-23
-9.1846e-24
-7.16105e-23
-8.49812e-24
7.88481e-24
-1.20946e-23
6.20027e-24
-1.36499e-23
3.19127e-23
-1.19752e-23
-3.25375e-23
-1.04903e-23
9.69149e-23
-6.9531e-24
7.80202e-23
-1.21256e-23
-1.02918e-23
-1.21417e-23
4.79347e-23
-8.37899e-25
7.39553e-23
-2.77228e-24
1.13277e-22
-2.62904e-24
5.13088e-23
1.11343e-24
1.67804e-22
6.67721e-25
-9.6947e-23
5.46254e-24
1.37561e-22
2.18127e-24
2.29404e-23
6.89505e-24
1.25682e-22
6.83838e-24
-7.83844e-24
7.75653e-24
-2.18454e-23
8.41402e-24
4.28633e-23
-1.84654e-24
-1.68745e-23
5.18854e-25
-2.27294e-23
-1.57982e-24
-4.19957e-23
-4.15952e-24
4.99874e-23
-4.77659e-24
-2.66751e-23
-8.13235e-24
8.34533e-23
-1.09011e-23
-1.13372e-22
-6.7139e-24
-2.31337e-23
-2.15486e-23
-1.57671e-23
1.04817e-22
-8.19655e-24
1.13291e-22
-6.28318e-24
2.34055e-22
-2.05578e-24
1.42637e-22
1.22456e-24
1.18316e-22
-5.33222e-24
-6.04898e-23
-8.95588e-25
1.66771e-22
-1.49562e-24
7.15987e-23
-5.36089e-24
-9.46532e-23
-1.3066e-23
1.52422e-23
-1.60042e-24
8.05604e-23
-2.2789e-24
2.19057e-22
-3.86221e-24
2.243e-23
5.00108e-25
1.57724e-22
5.07704e-24
4.95308e-23
-3.17376e-24
1.95309e-23
-3.29032e-24
5.49402e-23
-4.50002e-24
8.50533e-23
-8.72198e-24
-1.04772e-23
-8.83599e-24
-6.54857e-23
-7.90539e-24
-5.41059e-24
-1.23097e-23
-3.71896e-23
-1.36556e-23
3.49158e-23
-1.12773e-23
1.05147e-23
-1.06294e-23
9.37444e-23
-7.44359e-24
9.2885e-23
-1.19422e-23
-4.12397e-24
-1.17949e-23
8.43768e-23
-8.53345e-25
6.40841e-23
-2.73076e-24
1.11381e-22
-3.04764e-24
1.74826e-23
1.70026e-26
1.63277e-22
1.86834e-24
-9.7381e-23
5.60455e-24
1.40749e-22
1.44338e-24
-6.01972e-24
7.14193e-24
1.54258e-22
6.34943e-24
-1.02345e-23
8.44017e-24
-1.92197e-23
9.15269e-24
4.7068e-23
-2.84345e-24
-6.06372e-23
9.52819e-25
-2.33468e-23
-6.98802e-25
-8.69832e-24
-3.60566e-24
5.58568e-23
-5.11611e-24
-2.46512e-23
-9.05853e-24
5.22349e-23
-1.20153e-23
-4.6697e-23
1.3202e-23
-2.31317e-23
-8.23635e-23
-1.47988e-23
1.69555e-22
-7.66481e-24
1.06954e-22
-6.2113e-24
1.87593e-22
-2.49012e-24
1.731e-22
1.83226e-24
1.58564e-22
-4.96007e-24
-5.01461e-23
-9.46487e-25
1.78361e-22
-2.45602e-24
3.86949e-23
-5.24638e-24
-1.22393e-22
-1.1796e-23
2.50306e-23
-1.5227e-24
1.09011e-22
-2.49242e-24
2.25663e-22
-4.53723e-24
3.48317e-23
5.50139e-25
1.23325e-22
4.73162e-24
4.31125e-23
-2.84627e-24
2.29503e-23
-3.24912e-24
1.17124e-22
-4.74754e-24
8.00072e-23
-9.0278e-24
-1.18436e-23
-8.69814e-24
-5.88436e-23
-7.53373e-24
-1.40885e-23
-1.21453e-23
-1.05237e-23
-1.33805e-23
3.65587e-23
-1.09599e-23
1.03635e-23
-1.08426e-23
9.55997e-23
-7.85873e-24
9.23934e-23
-1.14849e-23
6.85842e-24
-1.17214e-23
2.37806e-23
-3.63293e-25
9.76125e-23
-3.04399e-24
1.07228e-22
-2.59767e-24
3.82811e-23
-1.2977e-24
1.6139e-22
3.26406e-24
-1.01315e-22
6.45556e-24
1.45208e-22
1.03944e-24
1.07165e-24
6.75799e-24
2.02388e-22
7.27798e-24
6.29765e-23
8.27824e-24
-6.24898e-23
8.65302e-24
1.43807e-23
-2.11889e-24
-7.70212e-23
9.30529e-25
-2.20088e-23
-5.05293e-25
4.39767e-23
-3.13858e-24
5.67479e-23
-5.68147e-24
-9.1217e-23
-8.97351e-24
5.84129e-23
-1.23598e-23
-1.12658e-23
1.04644e-23
-2.27136e-23
-4.48231e-23
-1.41619e-23
2.79048e-22
-7.20035e-24
9.58099e-23
-5.28084e-24
1.82169e-22
-2.86845e-24
9.80178e-23
1.35191e-24
7.58845e-23
-4.7793e-24
-8.24235e-23
-5.24492e-25
1.75802e-22
-3.45477e-24
-2.56018e-23
-4.03064e-24
-1.36595e-22
-1.07252e-23
4.55146e-23
-8.52068e-25
9.57298e-23
-3.37419e-24
1.53925e-22
-4.87686e-24
7.55677e-24
2.74709e-25
6.26479e-23
4.6379e-24
4.06495e-23
-2.02325e-24
2.09512e-23
-3.61734e-24
5.36991e-23
-5.13038e-24
7.29579e-23
-9.29511e-24
-1.26892e-23
-8.57838e-24
-5.57991e-23
-7.00948e-24
-1.94716e-23
-1.21377e-23
-4.3482e-23
-1.31169e-23
3.84077e-23
-1.04978e-23
1.05645e-23
-1.12129e-23
3.66969e-23
-7.79951e-24
8.6763e-23
-1.1989e-23
1.50769e-23
-1.05502e-23
6.06893e-23
-7.8188e-25
8.97973e-23
-2.63441e-24
1.01191e-22
-2.35913e-24
3.44137e-23
-1.99944e-24
1.96005e-22
3.97017e-24
-3.05295e-23
6.7085e-24
1.90298e-22
9.40972e-25
-6.96519e-23
6.04628e-24
2.29789e-22
7.04474e-24
9.87855e-23
8.8136e-24
-6.15744e-23
9.2921e-24
5.2625e-23
-2.54502e-24
-1.57718e-22
1.24344e-24
5.46891e-23
-3.99759e-25
5.84635e-23
-3.64633e-24
5.55731e-23
-4.98971e-24
-1.58423e-22
-9.15435e-24
6.64958e-23
-1.27734e-23
-4.62172e-23
-2.3491e-23
-2.36943e-23
9.35809e-23
-2.09026e-23
6.02474e-23
-1.50789e-23
2.72576e-22
-6.65367e-24
1.6396e-22
-4.95356e-24
1.60494e-22
-4.04506e-24
9.52788e-23
2.20707e-24
1.25472e-22
-3.45184e-24
-7.58942e-23
-9.93336e-25
2.38993e-22
-4.12726e-24
-1.4903e-23
-2.93988e-24
-7.70328e-23
-1.0632e-23
5.87312e-23
-6.68771e-25
1.55834e-22
-3.61701e-24
1.59612e-22
-5.73858e-24
-1.92019e-23
8.63705e-25
6.36128e-23
4.58778e-24
1.93417e-23
-1.66717e-24
2.25084e-23
-3.77142e-24
5.18302e-23
-5.41524e-24
6.5414e-23
-9.63455e-24
-5.00309e-23
-8.34937e-24
-5.55722e-23
-6.73964e-24
2.18444e-23
-1.19052e-23
-3.90178e-23
-1.3039e-23
3.88328e-23
-1.02567e-23
1.06631e-23
-1.13089e-23
4.21583e-23
-7.78201e-24
8.09825e-23
-1.17934e-23
-4.48847e-23
-1.0305e-23
6.26038e-23
-4.83668e-25
7.67005e-23
-2.86311e-24
9.59669e-23
-1.76075e-24
2.83178e-23
-2.64456e-24
1.94981e-22
5.0247e-24
-7.03674e-23
5.47889e-24
1.60383e-22
2.52861e-24
-6.13892e-23
6.40382e-24
2.18398e-22
5.42035e-24
9.68788e-23
9.18256e-24
-9.7451e-23
8.5064e-24
5.09055e-23
-1.38094e-24
-1.38369e-22
2.10043e-24
5.39295e-23
-1.01089e-24
9.07668e-23
-4.25254e-24
-1.82048e-23
-3.96868e-24
-1.51895e-22
-9.56175e-24
-4.07894e-23
-1.30988e-23
-4.70371e-23
-2.44896e-23
-1.90337e-23
7.49059e-23
-2.30298e-23
1.11323e-22
-2.07515e-23
4.92762e-23
-1.51985e-23
2.14619e-22
-6.80836e-24
1.69134e-22
-4.76108e-24
1.137e-22
-3.97971e-24
9.20993e-23
2.68755e-24
1.08227e-22
-2.67109e-24
-6.58431e-23
-1.2396e-24
2.37501e-22
-4.39687e-24
-6.63285e-23
-2.52918e-24
-3.65139e-23
-9.72422e-24
-5.541e-24
-1.26014e-24
1.29354e-22
-3.71605e-24
1.82983e-22
-6.28385e-24
-3.98633e-24
1.66326e-24
5.80424e-23
4.75292e-24
1.44625e-23
-1.64612e-24
2.55575e-23
-3.35736e-24
5.09208e-23
-6.10577e-24
5.91718e-23
-9.53513e-24
-1.61947e-23
-7.89574e-24
5.58835e-24
-6.79502e-24
2.24549e-23
-1.17107e-23
-3.63553e-23
-1.29409e-23
3.90493e-23
-1.0174e-23
1.05183e-23
-1.13368e-23
-2.00056e-23
-8.28798e-24
5.78798e-23
-1.13349e-23
-4.2211e-23
-1.00082e-23
2.29393e-23
-7.07772e-25
6.53674e-23
-2.58233e-24
9.20373e-23
-1.54479e-24
1.64866e-23
-3.56395e-24
1.33528e-22
5.75771e-24
-7.86181e-23
5.3788e-24
1.48223e-22
3.20268e-24
1.95275e-23
6.00678e-24
1.66735e-22
5.0166e-24
9.54425e-23
9.32489e-24
-1.15609e-22
8.33382e-24
5.20912e-23
-7.6506e-25
-1.21355e-22
2.68435e-24
1.34774e-23
-1.93947e-24
8.7206e-23
-4.48264e-24
-6.04486e-23
-3.91041e-24
-8.74972e-23
-9.09198e-24
-6.62613e-23
-1.35372e-23
-7.91771e-23
-6.6635e-23
-1.90013e-23
-3.72379e-24
-2.27675e-23
4.16371e-23
-2.12559e-23
4.17005e-23
-1.44773e-23
2.05033e-22
-7.30969e-24
1.60391e-22
-4.07165e-24
1.20425e-22
-4.43169e-24
1.71781e-22
3.26401e-24
1.84886e-22
-2.52779e-24
-5.6394e-23
-2.06634e-24
2.38652e-22
-3.75213e-24
-5.53759e-23
-2.7974e-24
-3.31585e-23
-8.18513e-24
4.25366e-24
-1.84479e-24
6.21091e-23
-4.27448e-24
1.22225e-22
-7.01854e-24
1.18854e-23
2.13376e-24
1.27212e-22
4.71697e-24
-5.10215e-23
-1.40952e-24
2.96718e-23
-3.24035e-24
4.88387e-23
-6.59153e-24
9.23435e-24
-9.11455e-24
-2.34381e-23
-8.01428e-24
-1.48923e-23
-6.56653e-24
2.47067e-23
-1.16439e-23
-7.06567e-23
-1.28925e-23
4.0703e-23
-1.03841e-23
1.10973e-23
-1.11259e-23
-2.06531e-23
-8.47571e-24
3.59779e-23
-1.11379e-23
-4.55756e-23
-9.98047e-24
2.53407e-23
-1.15953e-25
9.02681e-23
-2.78971e-24
2.87629e-23
-1.05365e-24
-2.59095e-24
-4.34409e-24
9.72084e-23
6.89687e-24
-6.23351e-23
5.83662e-24
9.37085e-23
3.20479e-24
3.95431e-23
5.69238e-24
1.4253e-22
4.66582e-24
1.29875e-22
9.59698e-24
-1.20082e-22
8.93328e-24
5.86431e-23
-3.24689e-26
-2.71508e-23
3.21742e-24
1.34738e-23
-3.42116e-24
1.54223e-23
-4.15956e-24
-2.46178e-23
-4.2849e-24
-1.21889e-22
-8.64695e-24
-5.14417e-23
-1.34245e-23
-1.11188e-22
2.89108e-24
-1.84694e-23
-1.03057e-23
1.58512e-23
-2.26098e-23
-2.29384e-23
-2.13359e-23
2.49472e-23
-1.39645e-23
2.72782e-22
-7.66539e-24
1.11411e-22
-3.6166e-24
1.25423e-22
-4.92905e-24
1.40629e-22
3.81454e-24
2.30985e-22
-1.33309e-24
-1.14817e-22
-3.00015e-24
2.40792e-22
-3.6312e-24
-1.12806e-23
-2.61708e-24
-3.38773e-23
-6.99002e-24
1.43467e-23
-1.51697e-24
5.83501e-23
-4.53182e-24
1.2811e-22
-6.67747e-24
2.16862e-23
1.43703e-24
1.01091e-22
5.26706e-24
1.8244e-23
-1.10674e-24
3.39401e-23
-3.31481e-24
4.75756e-23
-6.75888e-24
6.7176e-24
-8.7055e-24
-3.3762e-23
-8.03574e-24
-1.70911e-23
-6.69458e-24
3.7316e-23
-1.13513e-23
-6.55516e-23
-1.28893e-23
4.49991e-23
-1.05424e-23
8.61052e-24
-1.11513e-23
-2.18097e-23
-8.57691e-24
4.60032e-23
-1.10995e-23
-4.66968e-23
-9.29821e-24
2.6277e-23
-3.3869e-25
7.51642e-23
-2.91095e-24
1.55675e-23
-8.37885e-25
6.27526e-23
-4.80676e-24
6.42176e-23
6.54791e-24
-3.62768e-23
6.3188e-24
6.75666e-23
3.3904e-24
5.13541e-23
5.22941e-24
1.32836e-22
4.56863e-24
1.26846e-22
9.79152e-24
-1.19334e-22
9.08714e-24
7.84689e-23
-3.30077e-25
-7.66831e-23
3.88463e-24
4.84302e-23
-3.52372e-24
2.68941e-23
-4.24985e-24
1.78349e-24
-4.14425e-24
-1.51163e-22
-8.96049e-24
-7.55472e-23
-1.35217e-23
-3.64844e-23
6.74364e-23
-1.8475e-23
-5.84394e-23
1.60259e-23
-2.20804e-23
-1.614e-23
-2.07823e-23
1.93089e-23
-1.46567e-23
2.62449e-22
-6.74302e-24
1.69035e-22
-3.0666e-24