/*--------------------------------*- C++ -*----------------------------------*\
  =========                 |
  \\      /  F ield         | OpenFOAM: The Open Source CFD Toolbox
   \\    /   O peration     | Website:  https://openfoam.org
    \\  /    A nd           | Version:  7
     \\/     M anipulation  |
\*---------------------------------------------------------------------------*/
FoamFile
{
    version     2.0;
    format      ascii;
    class       volVectorField;
    location    "196000";
    object      vorticity;
}
// * * * * * * * * * * * * * * * * * * * * * * * * * * * * * * * * * * * * * //

dimensions      [0 0 -1 0 0 0 0];

internalField   nonuniform List<vector> 
4764
(
(0.0281328 0.00978539 7.0572e-18)
(0.02831 0.00885181 -2.24083e-18)
(0.0284688 0.0079186 -2.51401e-18)
(0.0286092 0.00698578 -6.03775e-18)
(0.0287316 0.00605337 -8.10812e-18)
(0.0288362 0.00512133 3.01066e-18)
(0.026195 0.0185651 5.3278e-18)
(0.0265613 0.0176149 -1.5057e-17)
(0.0269052 0.0166633 -1.42759e-17)
(0.0272275 0.0157107 4.67808e-18)
(0.0275283 0.0147573 3.32659e-18)
(0.0278083 0.0138035 -6.6917e-18)
(0.0280677 0.0128496 -3.37893e-18)
(0.028307 0.0118957 1.84095e-18)
(0.0285265 0.0109419 1.17269e-17)
(0.0287265 0.00998847 5.61435e-18)
(0.0289074 0.00903539 -3.71197e-18)
(0.0290693 0.00808273 -4.09434e-18)
(0.0292127 0.0071305 -7.65068e-18)
(0.0293376 0.00617871 -1.08439e-17)
(0.0294443 0.00522734 3.59967e-19)
(0.029533 0.00427635 3.59453e-19)
(0.0296038 0.00332568 -1.32493e-18)
(0.0296567 0.00237529 5.87569e-18)
(0.029692 0.0014251 -2.49476e-18)
(0.0297096 0.00047502 -1.935e-18)
(0.0297096 -0.000475015 1.16897e-17)
(0.029692 -0.00142509 1.48785e-17)
(0.0296567 -0.00237529 1.37545e-17)
(0.0296038 -0.00332568 3.73269e-18)
(0.029533 -0.00427634 1.06245e-17)
(0.0294443 -0.00522733 1.94502e-18)
(0.0293376 -0.00617871 -1.49886e-18)
(0.0292127 -0.0071305 2.0425e-18)
(0.0290693 -0.00808273 -1.02464e-17)
(0.0267514 0.0189561 5.84717e-18)
(0.0271254 0.0179856 -1.54344e-17)
(0.0274767 0.0170135 -1.63263e-17)
(0.0278058 0.0160405 4.2839e-18)
(0.028113 0.0150668 2.61617e-18)
(0.0283988 0.0140927 -8.89601e-18)
(0.0286637 0.0131186 -5.0028e-18)
(0.028908 0.0121445 5.05967e-19)
(0.0291321 0.0111706 9.85142e-18)
(0.0293363 0.0101971 4.34981e-18)
(0.0295209 0.00922396 -4.05056e-18)
(0.0296862 0.00825132 -3.48919e-18)
(0.0298325 0.00727915 -7.58037e-18)
(0.02996 0.00630745 -1.20075e-17)
(0.0300689 0.00533621 -8.27223e-19)
(0.0301594 0.00436538 -6.20044e-19)
(0.0302316 0.00339491 -2.29749e-18)
(0.0302856 0.00242472 5.992e-18)
(0.0303216 0.00145475 -1.49775e-18)
(0.0303396 0.000484904 -2.46387e-18)
(0.0303396 -0.000484899 1.13099e-17)
(0.0303216 -0.00145474 1.54211e-17)
(0.0302856 -0.00242472 1.28513e-17)
(0.0302316 -0.0033949 1.80236e-18)
(0.0301594 -0.00436538 9.72733e-18)
(0.0300689 -0.00533621 2.25179e-18)
(0.02996 -0.00630745 -1.44832e-18)
(0.0298325 -0.00727914 9.50371e-19)
(0.0296862 -0.00825131 -1.08648e-17)
(0.0295209 -0.00922396 -1.39128e-17)
(0.0293362 -0.0101971 -7.39629e-18)
(0.0291321 -0.0111706 -4.31127e-18)
(0.028908 -0.0121445 -8.72145e-18)
(0.0273231 0.0193581 6.24233e-18)
(0.0277053 0.0183665 -1.55778e-17)
(0.0280641 0.0173734 -1.86825e-17)
(0.0284002 0.0163794 3.24168e-18)
(0.0287139 0.0153849 2.54382e-18)
(0.0290058 0.0143899 -9.97549e-18)
(0.0292762 0.013395 -4.71277e-18)
(0.0295256 0.0124001 1.65063e-18)
(0.0297543 0.0114056 9.40461e-18)
(0.0299628 0.0104114 3.36998e-18)
(0.0301512 0.00941772 -3.28361e-18)
(0.03032 0.00842454 -1.51983e-18)
(0.0304693 0.00743188 -7.04406e-18)
(0.0305994 0.00643973 -1.20257e-17)
(0.0307105 0.00544807 -8.85522e-19)
(0.0308029 0.00445686 -1.20738e-18)
(0.0308766 0.00346603 -3.26434e-18)
(0.0309317 0.00247551 5.66278e-18)
(0.0309685 0.00148522 -6.25236e-19)
(0.0309868 0.000495058 -2.46297e-18)
(0.0309868 -0.000495053 1.13742e-17)
(0.0309685 -0.00148521 1.6297e-17)
(0.0309317 -0.00247551 1.27207e-17)
(0.0308766 -0.00346603 8.04363e-19)
(0.0308029 -0.00445686 9.93346e-18)
(0.0307105 -0.00544807 3.82082e-18)
(0.0305994 -0.00643973 -4.4624e-19)
(0.0304693 -0.00743187 -2.81445e-20)
(0.03032 -0.00842454 -1.08928e-17)
(0.0301512 -0.00941771 -1.40928e-17)
(0.0299628 -0.0104114 -7.87497e-18)
(0.0297543 -0.0114056 -5.15192e-18)
(0.0295256 -0.0124001 -9.56083e-18)
(0.0292762 -0.013395 -1.28286e-17)
(0.0290058 -0.0143899 -2.05679e-17)
(0.0287139 -0.0153849 -7.27855e-18)
(0.0284002 -0.0163794 -1.26858e-17)
(0.0280641 -0.0173734 -8.03846e-18)
(0.0277053 -0.0183665 -1.46382e-18)
(0.0273231 -0.0193581 6.86862e-18)
(0.0269174 -0.0203478 -3.59578e-18)
(0.0264873 -0.021335 -2.82529e-20)
(0.0260327 -0.0223188 3.94362e-19)
(0.0255533 -0.0232972 1.19117e-18)
(0.0256601 -0.0236503 2.05669e-17)
(0.0279111 0.0197714 6.24892e-18)
(0.0283014 0.0187581 -1.53866e-17)
(0.0286679 0.0177435 -2.12137e-17)
(0.0290112 0.0167279 1.31116e-18)
(0.0293316 0.0157119 3.11348e-18)
(0.0296297 0.0146955 -1.03202e-17)
(0.0299058 0.0136791 -3.892e-18)
(0.0301605 0.012663 3.71591e-18)
(0.030394 0.0116471 1.00033e-17)
(0.0306068 0.0106317 2.38041e-18)
(0.0307992 0.00961689 -2.08463e-18)
(0.0309714 0.00860259 5.50701e-19)
(0.0311238 0.00758887 -7.30335e-18)
(0.0312566 0.00657569 -1.20259e-17)
(0.03137 0.00556305 -7.1964e-19)
(0.0314643 0.00455089 -1.57537e-18)
(0.0315395 0.00353914 -4.12105e-18)
(0.0315958 0.00252771 5.33625e-18)
(0.0316332 0.00151653 3.69434e-19)
(0.031652 0.000505495 -1.90527e-18)
(0.031652 -0.000505491 1.1768e-17)
(0.0316332 -0.00151653 1.69203e-17)
(0.0315958 -0.00252771 1.29308e-17)
(0.0315395 -0.00353913 5.93748e-19)
(0.0314643 -0.00455088 1.03642e-17)
(0.03137 -0.00556305 5.51418e-18)
(0.0312566 -0.00657569 8.89462e-19)
(0.0311238 -0.00758886 -9.938e-19)
(0.0309714 -0.00860259 -1.05647e-17)
(0.0307992 -0.00961688 -1.36836e-17)
(0.0306068 -0.0106317 -8.63279e-18)
(0.030394 -0.0116471 -5.59793e-18)
(0.0301605 -0.012663 -9.79724e-18)
(0.0299058 -0.0136791 -1.4205e-17)
(0.0296297 -0.0146955 -2.14488e-17)
(0.0293316 -0.0157119 -6.42515e-18)
(0.0290112 -0.0167279 -1.50682e-17)
(0.0286679 -0.0177435 -1.00842e-17)
(0.0283014 -0.0187581 -1.57461e-18)
(0.0279111 -0.0197714 6.05145e-18)
(0.0274965 -0.0207828 -5.19516e-18)
(0.0270571 -0.0217917 -1.73301e-19)
(0.0265927 -0.0227972 1.52366e-18)
(0.0261033 -0.0237975 2.92276e-18)
(0.0262034 -0.0241786 1.9835e-17)
(0.0285158 0.0201965 5.74872e-18)
(0.0289146 0.019161 -1.48496e-17)
(0.029289 0.0181241 -2.3731e-17)
(0.0296397 0.0170864 -1.16874e-18)
(0.0299669 0.0160482 3.9219e-18)
(0.0302713 0.0150097 -1.09581e-17)
(0.0305533 0.0139714 -4.07244e-18)
(0.0308133 0.0129333 5.49345e-18)
(0.0310518 0.0118955 1.03091e-17)
(0.031269 0.0108583 1.30055e-18)
(0.0314654 0.00982169 -3.67988e-19)
(0.0316413 0.00878569 2.35954e-18)
(0.0317968 0.0077503 -8.04139e-18)
(0.0319324 0.0067155 -1.17657e-17)
(0.0320481 0.00568128 -6.98888e-20)
(0.0321443 0.00464757 -2.00874e-18)
(0.0322211 0.0036143 -4.97112e-18)
(0.0322785 0.00258139 4.99553e-18)
(0.0323168 0.00154873 1.33839e-18)
(0.0323359 0.000516227 -8.56813e-19)
(0.0323359 -0.000516222 1.21941e-17)
(0.0323168 -0.00154872 1.67771e-17)
(0.0322785 -0.00258138 1.30599e-17)
(0.0322211 -0.0036143 3.861e-19)
(0.0321443 -0.00464757 1.01857e-17)
(0.0320481 -0.00568128 6.88679e-18)
(0.0319324 -0.0067155 2.06627e-18)
(0.0317968 -0.00775029 -1.85407e-18)
(0.0316412 -0.00878569 -1.01386e-17)
(0.0314654 -0.00982169 -1.25293e-17)
(0.031269 -0.0108583 -9.11053e-18)
(0.0310518 -0.0118955 -6.10991e-18)
(0.0308133 -0.0129333 -9.60468e-18)
(0.0305533 -0.0139714 -1.50439e-17)
(0.0302713 -0.0150097 -2.16045e-17)
(0.0299669 -0.0160482 -4.96783e-18)
(0.0296397 -0.0170864 -1.68616e-17)
(0.029289 -0.0181241 -1.16409e-17)
(0.0289146 -0.019161 -1.57049e-18)
(0.0285158 -0.0201965 5.10077e-18)
(0.0280922 -0.0212302 -6.3756e-18)
(0.0276433 -0.0222615 2.19434e-19)
(0.0271688 -0.0232896 2.03741e-18)
(0.0266699 -0.0243138 4.39476e-18)
(0.0267659 -0.024726 1.99576e-17)
(0.0291381 0.0206339 4.87259e-18)
(0.0295456 0.0195755 -1.41813e-17)
(0.029928 0.0185157 -2.59177e-17)
(0.0302863 0.0174552 -3.19177e-18)
(0.0306205 0.0163942 4.80364e-18)
(0.0309314 0.015333 -1.2188e-17)
(0.0312195 0.014272 -4.73371e-18)
(0.031485 0.0132113 7.26195e-18)
(0.0317284 0.0121511 1.06144e-17)
(0.0319503 0.0110914 6.37269e-19)
(0.0321508 0.0100324 1.25484e-18)
(0.0323303 0.00897404 3.4898e-18)
(0.0324891 0.00791635 -9.26546e-18)
(0.0326274 0.00685932 -1.14555e-17)
(0.0327456 0.0058029 1.21265e-18)
(0.0328438 0.00474702 -2.53469e-18)
(0.0329221 0.00369162 -5.61205e-18)
(0.0329808 0.0026366 4.68611e-18)
(0.0330198 0.00158185 2.20723e-18)
(0.0330393 0.000527266 3.39904e-19)
(0.0330393 -0.000527261 1.24908e-17)
(0.0330198 -0.00158184 1.64454e-17)
(0.0329808 -0.00263659 1.36664e-17)
(0.0329221 -0.00369162 -3.17834e-20)
(0.0328438 -0.00474702 9.31524e-18)
(0.0327456 -0.00580289 8.19984e-18)
(0.0326274 -0.00685931 3.1211e-18)
(0.0324891 -0.00791635 -2.64798e-18)
(0.0323303 -0.00897404 -9.85084e-18)
(0.0321508 -0.0100324 -1.13036e-17)
(0.0319503 -0.0110914 -9.01807e-18)
(0.0317284 -0.0121511 -6.59007e-18)
(0.031485 -0.0132113 -9.22074e-18)
(0.0312195 -0.014272 -1.50919e-17)
(0.0309314 -0.015333 -2.15266e-17)
(0.0306205 -0.0163942 -3.51244e-18)
(0.0302863 -0.0174552 -1.75078e-17)
(0.029928 -0.0185157 -1.25504e-17)
(0.0295456 -0.0195755 -1.23893e-18)
(0.0291381 -0.0206339 4.52689e-18)
(0.0287054 -0.0216908 -7.1994e-18)
(0.0282477 -0.0227459 8.2294e-19)
(0.0277642 -0.0237984 2.00063e-18)
(0.0272568 -0.0248493 5.96475e-18)
(0.0273467 -0.0252918 2.07789e-17)
(0.0297802 0.0210852 4.15919e-18)
(0.0301953 0.0200023 -1.38036e-17)
(0.0305859 0.0189189 -2.77084e-17)
(0.0309518 0.0178348 -4.63324e-18)
(0.0312933 0.0167503 5.13377e-18)
(0.0316108 0.0156658 -1.36805e-17)
(0.031905 0.0145815 -5.53777e-18)
(0.0321762 0.0134975 8.91182e-18)
(0.0324248 0.0124141 1.09535e-17)
(0.0326513 0.0113313 9.10388e-20)
(0.0328561 0.0102492 2.47283e-18)
(0.0330393 0.00916787 4.55811e-18)
(0.0332014 0.00808725 -1.0497e-17)
(0.0333427 0.00700732 -1.14159e-17)
(0.0334633 0.00592805 2.40282e-18)
(0.0335635 0.00484937 -2.7689e-18)
(0.0336435 0.00377119 -5.83595e-18)
(0.0337033 0.00269341 4.50403e-18)
(0.0337432 0.00161593 2.98857e-18)
(0.0337631 0.000538625 1.44624e-18)
(0.0337631 -0.00053862 1.23661e-17)
(0.0337432 -0.00161593 1.56289e-17)
(0.0337033 -0.00269341 1.45255e-17)
(0.0336435 -0.00377118 -1.66451e-19)
(0.0335635 -0.00484936 8.77969e-18)
(0.0334633 -0.00592804 9.52933e-18)
(0.0333427 -0.00700731 3.54679e-18)
(0.0332014 -0.00808724 -3.50379e-18)
(0.0330393 -0.00916787 -9.62604e-18)
(0.0328561 -0.0102492 -1.03416e-17)
(0.0326513 -0.0113313 -8.57634e-18)
(0.0324248 -0.0124141 -6.49524e-18)
(0.0321762 -0.0134975 -8.72233e-18)
(0.031905 -0.0145815 -1.48754e-17)
(0.0316108 -0.0156658 -2.1764e-17)
(0.0312933 -0.0167503 -2.94528e-18)
(0.0309518 -0.0178348 -1.76167e-17)
(0.0305859 -0.0189189 -1.26468e-17)
(0.0301953 -0.0200023 -9.19368e-19)
(0.0297802 -0.0210852 4.40447e-18)
(0.0293394 -0.022167 -7.33122e-18)
(0.0288741 -0.0232481 1.53214e-18)
(0.0283831 -0.0243276 1.44319e-18)
(0.027867 -0.0254065 7.55133e-18)
(0.027946 -0.0258758 2.1392e-17)
(0.0304461 0.0215535 3.04608e-18)
(0.0308675 0.020444 -1.39557e-17)
(0.0312653 0.0193352 -2.93227e-17)
(0.0316379 0.0182261 -6.30842e-18)
(0.0319862 0.0171171 4.96754e-18)
(0.0323105 0.0160085 -1.45283e-17)
(0.032611 0.0149001 -6.31127e-18)
(0.0328879 0.0137922 9.86128e-18)
(0.0331418 0.0126849 1.12994e-17)
(0.0333731 0.0115782 5.71846e-20)
(0.0335822 0.0104724 3.52908e-18)
(0.0337693 0.00936743 5.53138e-18)
(0.0339348 0.00826318 -1.17495e-17)
(0.034079 0.00715968 -1.15317e-17)
(0.0342022 0.00605689 3.54811e-18)
(0.0343045 0.00495473 -2.47628e-18)
(0.0343861 0.0038531 -5.91841e-18)
(0.0344472 0.0027519 4.33412e-18)
(0.0344879 0.00165102 3.81022e-18)
(0.0345082 0.000550319 2.43102e-18)
(0.0345082 -0.000550314 1.18365e-17)
(0.0344879 -0.00165101 1.44366e-17)
(0.0344472 -0.0027519 1.53594e-17)
(0.0343861 -0.00385309 -9.79321e-20)
(0.0343045 -0.00495472 8.64177e-18)
(0.0342022 -0.00605688 1.09167e-17)
(0.034079 -0.00715968 3.45067e-18)
(0.0339348 -0.00826318 -4.10822e-18)
(0.0337693 -0.00936743 -9.52281e-18)
(0.0335822 -0.0104724 -9.97313e-18)
(0.0333731 -0.0115782 -7.66573e-18)
(0.0331418 -0.0126849 -6.24896e-18)
(0.0328879 -0.0137922 -8.34668e-18)
(0.032611 -0.0149001 -1.4871e-17)
(0.0323105 -0.0160085 -2.18675e-17)
(0.0319862 -0.0171171 -3.03658e-18)
(0.0316379 -0.0182261 -1.79227e-17)
(0.0312653 -0.0193352 -1.24267e-17)
(0.0308675 -0.020444 -1.19636e-18)
(0.0304461 -0.0215535 4.39148e-18)
(0.0299987 -0.0226624 -7.00087e-18)
(0.0295257 -0.0237708 2.44602e-18)
(0.0290263 -0.0248778 1.04763e-18)
(0.0284999 -0.0259843 9.24711e-18)
(0.0285643 -0.0264778 2.15543e-17)
(0.0311389 0.022041 1.18557e-18)
(0.0315672 0.0209039 -1.40507e-17)
(0.0319707 0.0197676 -3.05586e-17)
(0.0323486 0.0186315 -7.98068e-18)
(0.0327026 0.0174964 4.76088e-18)
(0.0330328 0.0163622 -1.53044e-17)
(0.0333386 0.0152286 -7.46196e-18)
(0.0336211 0.0140958 9.92907e-18)
(0.0338803 0.0129638 1.18461e-17)
(0.0341165 0.0118327 3.8307e-19)
(0.03433 0.0107024 4.56243e-18)
(0.0345211 0.00957297 6.14051e-18)
(0.0346901 0.00844438 -1.32647e-17)
(0.0348373 0.0073166 -1.13383e-17)
(0.0349631 0.00618958 4.63378e-18)
(0.0350675 0.00506324 -2.04947e-18)
(0.0351508 0.00393746 -6.04188e-18)
(0.0352132 0.00281214 4.10849e-18)
(0.0352547 0.00168715 4.51993e-18)
(0.0352755 0.000562362 3.15504e-18)
(0.0352755 -0.000562358 1.13295e-17)
(0.0352547 -0.00168715 1.32442e-17)
(0.0352132 -0.00281213 1.56874e-17)
(0.0351508 -0.00393745 3.59108e-20)
(0.0350675 -0.00506323 8.97278e-18)
(0.0349631 -0.00618958 1.2275e-17)
(0.0348373 -0.0073166 3.07906e-18)
(0.0346901 -0.00844438 -4.30959e-18)
(0.0345211 -0.00957297 -9.1231e-18)
(0.03433 -0.0107024 -1.01958e-17)
(0.0341165 -0.0118327 -6.94445e-18)
(0.0338803 -0.0129638 -6.07454e-18)
(0.0336211 -0.0140958 -7.86762e-18)
(0.0333386 -0.0152286 -1.51716e-17)
(0.0330328 -0.0163622 -2.22481e-17)
(0.0327026 -0.0174964 -3.45685e-18)
(0.0323486 -0.0186315 -1.82428e-17)
(0.0319707 -0.0197676 -1.18377e-17)
(0.0315672 -0.0209039 -1.8899e-18)
(0.0311389 -0.022041 3.8998e-18)
(0.0306841 -0.0231777 -6.66697e-18)
(0.0302019 -0.0243133 3.15141e-18)
(0.029692 -0.0254474 1.48415e-18)
(0.0291536 -0.0265807 1.11573e-17)
(0.029202 -0.0270983 2.07352e-17)
(0.0318578 0.0225468 -6.16846e-19)
(0.0322947 0.0213823 -1.35198e-17)
(0.0327047 0.0202177 -3.15874e-17)
(0.0330886 0.0190539 -9.17043e-18)
(0.0334478 0.0178911 4.26586e-18)
(0.0337824 0.0167295 -1.67854e-17)
(0.0340925 0.0155689 -8.48004e-18)
(0.0343796 0.0144099 1.0127e-17)
(0.0346434 0.013252 1.231e-17)
(0.0348838 0.0120952 6.66411e-19)
(0.0351011 0.0109395 5.8722e-18)
(0.0352959 0.00978482 6.12912e-18)
(0.0354684 0.00863113 -1.50479e-17)
(0.0356188 0.00747832 -1.07399e-17)
(0.0357471 0.00632633 5.59676e-18)
(0.0358537 0.00517505 -1.84682e-18)
(0.0359388 0.00402438 -6.2511e-18)
(0.0360025 0.00287421 3.90823e-18)
(0.0360449 0.00172438 5.14032e-18)
(0.036066 0.000574771 3.57716e-18)
(0.036066 -0.000574767 1.08846e-17)
(0.0360449 -0.00172438 1.22511e-17)
(0.0360025 -0.0028742 1.57976e-17)
(0.0359388 -0.00402438 3.8438e-19)
(0.0358537 -0.00517504 9.34993e-18)
(0.0357471 -0.00632632 1.34565e-17)
(0.0356187 -0.00747832 2.81924e-18)
(0.0354684 -0.00863113 -4.42503e-18)
(0.0352959 -0.00978481 -8.3221e-18)
(0.035101 -0.0109394 -1.05517e-17)
(0.0348838 -0.0120952 -6.41586e-18)
(0.0346434 -0.013252 -6.07668e-18)
(0.0343796 -0.0144099 -7.16481e-18)
(0.0340925 -0.0155689 -1.5376e-17)
(0.0337824 -0.0167295 -2.33944e-17)
(0.0334478 -0.0178911 -4.15554e-18)
(0.0330886 -0.0190539 -1.8531e-17)
(0.0327047 -0.0202177 -1.093e-17)
(0.0322947 -0.0213823 -2.33637e-18)
(0.0318578 -0.0225468 2.74567e-18)
(0.0313936 -0.023711 -6.66615e-18)
(0.0309008 -0.024874 3.76992e-18)
(0.0303791 -0.0260353 2.43835e-18)
(0.0298275 -0.0271953 1.29252e-17)
(0.0298597 -0.0277378 1.91915e-17)
(0.032601 0.0230698 -2.27445e-18)
(0.0330476 0.0218774 -1.26885e-17)
(0.033466 0.0206848 -3.24402e-17)
(0.0338577 0.0194929 -1.01641e-17)
(0.0342231 0.0183019 3.44513e-18)
(0.0345629 0.0171121 -1.83002e-17)
(0.0348778 0.0159236 -9.1151e-18)
(0.0351689 0.0147368 1.06415e-17)
(0.0354363 0.0135516 1.26719e-17)
(0.0356798 0.0123677 7.50958e-19)
(0.0359 0.0111852 7.47708e-18)
(0.036098 0.0100041 5.60366e-18)
(0.0362735 0.00882428 -1.68059e-17)
(0.0364265 0.00764547 -9.73167e-18)
(0.0365571 0.00646758 6.44372e-18)
(0.0366656 0.0052905 -1.83817e-18)
(0.0367521 0.0041141 -6.48405e-18)
(0.0368169 0.00293825 3.63016e-18)
(0.03686 0.00176279 5.56703e-18)
(0.0368815 0.000587572 3.78637e-18)
(0.0368815 -0.000587568 1.06012e-17)
(0.03686 -0.00176279 1.13772e-17)
(0.0368169 -0.00293825 1.59426e-17)
(0.0367521 -0.0041141 9.86853e-19)
(0.0366656 -0.00529049 9.4478e-18)
(0.0365571 -0.00646757 1.4281e-17)
(0.0364265 -0.00764546 2.65154e-18)
(0.0362735 -0.00882428 -4.38636e-18)
(0.036098 -0.0100041 -6.92795e-18)
(0.0359 -0.0111852 -1.08321e-17)
(0.0356798 -0.0123677 -6.14515e-18)
(0.0354363 -0.0135516 -6.20849e-18)
(0.0351689 -0.0147368 -6.89092e-18)
(0.0348778 -0.0159236 -1.48346e-17)
(0.0345629 -0.0171121 -2.48385e-17)
(0.0342231 -0.0183019 -5.53547e-18)
(0.0338577 -0.0194929 -1.92258e-17)
(0.033466 -0.0206848 -1.00405e-17)
(0.0330476 -0.0218774 -2.28171e-18)
(0.032601 -0.0230698 1.45205e-18)
(0.0321261 -0.0242617 -6.922e-18)
(0.0316217 -0.0254523 4.97484e-18)
(0.0310874 -0.0266412 3.37734e-18)
(0.030522 -0.0278283 1.42382e-17)
(0.0305379 -0.0283968 1.76263e-17)
(0.0333679 0.0236094 -4.36999e-18)
(0.033825 0.0223886 -1.19332e-17)
(0.0342531 0.0211676 -3.28245e-17)
(0.0346535 0.0199472 -1.13402e-17)
(0.0350267 0.0187277 2.32672e-18)
(0.0353734 0.0175094 -1.96444e-17)
(0.0356945 0.0162926 -9.30177e-18)
(0.0359905 0.0150772 1.15874e-17)
(0.0362619 0.0138637 1.2943e-17)
(0.0365092 0.0126517 4.15235e-19)
(0.0367327 0.0114413 8.67992e-18)
(0.0369334 0.0102326 5.03577e-18)
(0.0371112 0.00902529 -1.82178e-17)
(0.0372662 0.00781928 -8.6912e-18)
(0.0373985 0.00661436 7.06171e-18)
(0.0375083 0.0054104 -2.22364e-18)
(0.037596 0.00420724 -6.39612e-18)
(0.0376616 0.00300471 3.62839e-18)
(0.0377052 0.00180264 5.63582e-18)
(0.037727 0.000600851 3.50874e-18)
(0.037727 -0.000600847 1.04976e-17)
(0.0377052 -0.00180264 1.08191e-17)
(0.0376616 -0.0030047 1.62509e-17)
(0.037596 -0.00420723 1.74913e-18)
(0.0375083 -0.00541039 9.1363e-18)
(0.0373985 -0.00661436 1.47339e-17)
(0.0372662 -0.00781927 2.51172e-18)
(0.0371112 -0.00902529 -4.01433e-18)
(0.0369334 -0.0102326 -5.09503e-18)
(0.0367327 -0.0114413 -1.09458e-17)
(0.0365092 -0.0126517 -6.31496e-18)
(0.0362619 -0.0138637 -6.22258e-18)
(0.0359905 -0.0150773 -6.61344e-18)
(0.0356945 -0.0162926 -1.36552e-17)
(0.0353734 -0.0175094 -2.57963e-17)
(0.0350267 -0.0187277 -7.11847e-18)
(0.0346535 -0.0199472 -2.05653e-17)
(0.0342531 -0.0211676 -9.303e-18)
(0.033825 -0.0223886 -1.9339e-18)
(0.0333679 -0.0236094 2.65221e-19)
(0.0328816 -0.0248296 -7.54837e-18)
(0.0323649 -0.0260486 5.91138e-18)
(0.0318174 -0.0272657 4.59769e-18)
(0.0312376 -0.0284804 1.56959e-17)
(0.0312376 -0.0290763 1.63772e-17)
(0.0336605 0.0254152 5.32672e-18)
(0.0341588 0.0241658 -6.97946e-18)
(0.034627 0.0229159 -1.13474e-17)
(0.0350654 0.0216659 -3.28847e-17)
(0.0354754 0.0204164 -1.25987e-17)
(0.0358572 0.0191678 6.90898e-19)
(0.0362118 0.0179204 -2.06382e-17)
(0.0365401 0.0166746 -9.21236e-18)
(0.0368423 0.0154302 1.23315e-17)
(0.0371191 0.0141877 1.36558e-17)
(0.0373713 0.012947 -4.52752e-19)
(0.0375991 0.0117079 9.25629e-18)
(0.0378032 0.0104705 4.83191e-18)
(0.0379837 0.00923475 -1.93031e-17)
(0.0381409 0.00800043 -7.71887e-18)
(0.0382752 0.00676737 7.40766e-18)
(0.0383867 0.00553541 -2.81436e-18)
(0.0384756 0.00430435 -6.2836e-18)
(0.0385422 0.00307402 3.74854e-18)
(0.0385864 0.0018442 5.52899e-18)
(0.0386086 0.0006147 2.97961e-18)
(0.0386086 -0.000614696 1.07444e-17)
(0.0385864 -0.0018442 1.07431e-17)
(0.0385422 -0.00307401 1.65393e-17)
(0.0384756 -0.00430435 2.12851e-18)
(0.0383867 -0.0055354 8.62329e-18)
(0.0382752 -0.00676737 1.51074e-17)
(0.0381409 -0.00800043 2.21108e-18)
(0.0379837 -0.00923475 -3.8178e-18)
(0.0378032 -0.0104705 -3.00044e-18)
(0.0375992 -0.0117079 -1.09796e-17)
(0.0373713 -0.012947 -6.76741e-18)
(0.0371191 -0.0141877 -5.9398e-18)
(0.0368423 -0.0154302 -6.51188e-18)
(0.0365401 -0.0166746 -1.24033e-17)
(0.0362118 -0.0179204 -2.59032e-17)
(0.0358572 -0.0191678 -8.77887e-18)
(0.0354754 -0.0204164 -2.21673e-17)
(0.0350654 -0.0216659 -8.83911e-18)
(0.034627 -0.0229159 -1.409e-18)
(0.0341588 -0.0241658 -1.39751e-18)
(0.0336605 -0.0254152 -8.21013e-18)
(0.0331312 -0.0266632 6.22824e-18)
(0.03257 -0.0279093 5.54051e-18)
(0.0319756 -0.0291527 1.75394e-17)
(0.0319596 -0.0297772 1.57468e-17)
(0.0344639 0.026019 3.71159e-18)
(0.0349745 0.0247397 -9.36924e-18)
(0.0354542 0.0234599 -1.05427e-17)
(0.0359035 0.0221799 -3.28602e-17)
(0.0363235 0.0209006 -1.37894e-17)
(0.0367146 0.0196221 -1.26467e-18)
(0.0370777 0.0183449 -2.10738e-17)
(0.0374137 0.0170692 -8.59621e-18)
(0.0377229 0.0157952 1.26903e-17)
(0.038006 0.014523 1.45846e-17)
(0.0382638 0.0132526 -1.74154e-18)
(0.0384967 0.0119841 9.36146e-18)
(0.0387049 0.0107173 4.8445e-18)
(0.038889 0.00945213 -1.99617e-17)
(0.0390494 0.00818857 -7.01411e-18)
(0.0391863 0.00692639 7.43714e-18)
(0.0392999 0.00566539 -3.22042e-18)
(0.0393906 0.00440537 -6.28058e-18)
(0.0394584 0.00314613 4.08339e-18)
(0.0395036 0.00188745 5.25041e-18)
(0.0395261 0.000629115 2.38583e-18)
(0.0395261 -0.000629111 1.14713e-17)
(0.0395036 -0.00188745 1.08592e-17)
(0.0394584 -0.00314613 1.66591e-17)
(0.0393906 -0.00440536 2.30574e-18)
(0.0392999 -0.00566538 8.10912e-18)
(0.0391863 -0.00692638 1.56944e-17)
(0.0390494 -0.00818857 2.09974e-18)
(0.038889 -0.00945213 -4.04541e-18)
(0.0387049 -0.0107173 -1.62531e-18)
(0.0384967 -0.0119841 -1.07927e-17)
(0.0382638 -0.0132526 -7.15578e-18)
(0.038006 -0.014523 -5.89312e-18)
(0.0377229 -0.0157952 -6.77785e-18)
(0.0374137 -0.0170692 -1.12678e-17)
(0.0370777 -0.0183449 -2.57084e-17)
(0.0367146 -0.0196221 -1.04835e-17)
(0.0363235 -0.0209006 -2.33608e-17)
(0.0359035 -0.0221799 -8.49659e-18)
(0.0354543 -0.0234599 -9.01215e-19)
(0.0349745 -0.0247397 -3.07958e-18)
(0.0344639 -0.0260191 -8.93619e-18)
(0.0339215 -0.0272971 6.14409e-18)
(0.0333464 -0.0285731 5.62187e-18)
(0.032737 -0.0298462 1.9334e-17)
(0.0327049 -0.0305005 1.56829e-17)
(0.0352931 0.0266422 2.65753e-18)
(0.0358163 0.0253319 -1.16867e-17)
(0.0363079 0.0240211 -9.3049e-18)
(0.0367683 0.0227103 -3.22904e-17)
(0.0371986 0.0214001 -1.49426e-17)
(0.0375994 0.0200909 -3.41238e-18)
(0.0379714 0.018783 -2.1498e-17)
(0.0383156 0.0174767 -7.89752e-18)
(0.0386322 0.016172 1.32226e-17)
(0.0389221 0.0148693 1.53233e-17)
(0.039186 0.0135685 -3.39946e-18)
(0.0394244 0.0122696 9.01645e-18)
(0.0396374 0.0109724 5.11986e-18)
(0.0398256 0.00967702 -2.02058e-17)
(0.0399896 0.00838329 -6.77505e-18)
(0.0401295 0.00709101 7.56295e-18)
(0.0402457 0.00579999 -3.51819e-18)
(0.0403383 0.00451 -6.36104e-18)
(0.0404077 0.00322084 4.4655e-18)
(0.0404538 0.00193227 4.54555e-18)
(0.0404768 0.00064405 1.78115e-18)
(0.0404768 -0.000644046 1.2282e-17)
(0.0404538 -0.00193226 1.09376e-17)
(0.0404077 -0.00322083 1.69167e-17)
(0.0403383 -0.00451 2.52139e-18)
(0.0402457 -0.00579998 7.46303e-18)
(0.0401295 -0.00709101 1.64962e-17)
(0.0399896 -0.00838329 2.18841e-18)
(0.0398256 -0.00967702 -4.31751e-18)
(0.0396374 -0.0109724 -8.37258e-19)
(0.0394244 -0.0122696 -1.0462e-17)
(0.039186 -0.0135685 -7.22325e-18)
(0.0389221 -0.0148693 -5.75266e-18)
(0.0386322 -0.016172 -6.86211e-18)
(0.0383156 -0.0174767 -1.02441e-17)
(0.0379714 -0.018783 -2.58799e-17)
(0.0375994 -0.0200909 -1.19818e-17)
(0.0371986 -0.0214001 -2.39916e-17)
(0.0367683 -0.0227103 -8.14205e-18)
(0.0363079 -0.0240211 -8.37743e-19)
(0.0358163 -0.0253319 -4.54144e-18)
(0.0352931 -0.0266422 -9.84171e-18)
(0.0347372 -0.0279513 5.47753e-18)
(0.0341477 -0.0292583 5.18829e-18)
(0.0335231 -0.0305622 2.11234e-17)
(0.0334749 -0.0312476 1.58234e-17)
(0.0355796 0.0286268 3.1224e-17)
(0.0361493 0.0272857 1.98128e-18)
(0.0366855 0.0259433 -1.39969e-17)
(0.0371893 0.0246005 -8.1016e-18)
(0.0376612 0.0232578 -3.16942e-17)
(0.0381021 0.0219158 -1.60093e-17)
(0.0385128 0.0205748 -5.45576e-18)
(0.038894 0.0192352 -2.19555e-17)
(0.0392466 0.0178972 -6.99789e-18)
(0.0395711 0.0165611 1.35744e-17)
(0.0398681 0.0152268 1.53486e-17)
(0.0401384 0.0138946 -4.83844e-18)
(0.0403825 0.0125644 8.74211e-18)
(0.0406006 0.011236 5.33363e-18)
(0.0407933 0.00990938 -2.03985e-17)
(0.0409611 0.00858451 -6.44147e-18)
(0.0411043 0.00726116 7.82446e-18)
(0.0412233 0.00593912 -4.10315e-18)
(0.0413181 0.00461817 -6.64334e-18)
(0.0413891 0.00329807 4.87635e-18)
(0.0414363 0.0019786 3.78868e-18)
(0.0414598 0.000659493 1.44705e-18)
(0.0414598 -0.000659488 1.32017e-17)
(0.0414363 -0.00197859 1.07308e-17)
(0.041389 -0.00329807 1.71117e-17)
(0.0413181 -0.00461816 2.85858e-18)
(0.0412233 -0.00593911 6.79442e-18)
(0.0411043 -0.00726116 1.72896e-17)
(0.0409611 -0.00858451 2.30646e-18)
(0.0407933 -0.00990938 -4.84895e-18)
(0.0406006 -0.011236 -4.94959e-19)
(0.0403825 -0.0125644 -1.01408e-17)
(0.0401384 -0.0138946 -7.28653e-18)
(0.0398681 -0.0152268 -5.78389e-18)
(0.0395711 -0.0165611 -6.47371e-18)
(0.0392466 -0.0178972 -8.86018e-18)
(0.038894 -0.0192352 -2.62665e-17)
(0.0385128 -0.0205748 -1.32385e-17)
(0.0381021 -0.0219158 -2.42441e-17)
(0.0376612 -0.0232578 -7.6443e-18)
(0.0371893 -0.0246005 -9.17083e-19)
(0.0366855 -0.0259433 -5.79131e-18)
(0.0361493 -0.0272857 -1.00693e-17)
(0.0355796 -0.0286269 3.92319e-18)
(0.0349755 -0.029966 4.44728e-18)
(0.0343354 -0.0313019 2.27444e-17)
(0.0342708 -0.0320195 1.58256e-17)
(0.0364503 0.0293251 2.99508e-17)
(0.0370341 0.0279506 1.56231e-18)
(0.0375837 0.026575 -1.59352e-17)
(0.0380999 0.0251991 -6.85888e-18)
(0.0385835 0.0238234 -3.10096e-17)
(0.0390353 0.0224484 -1.72327e-17)
(0.0394562 0.0210746 -7.36258e-18)
(0.0398469 0.0197022 -2.20756e-17)
(0.0402082 0.0183316 -6.13177e-18)
(0.0405407 0.0169628 1.35949e-17)
(0.040845 0.0155961 1.47969e-17)
(0.0411219 0.0142314 -6.27871e-18)
(0.0413719 0.0128688 9.13745e-18)
(0.0415954 0.0115082 5.50531e-18)
(0.0417928 0.0101494 -2.04505e-17)
(0.0419647 0.00879236 -6.03165e-18)
(0.0421114 0.00743692 7.94313e-18)
(0.0422332 0.00608285 -4.77315e-18)
(0.0423303 0.00472991 -6.9958e-18)
(0.042403 0.00337787 5.12447e-18)
(0.0424513 0.00202646 3.24128e-18)
(0.0424754 0.000675446 1.55281e-18)
(0.0424754 -0.000675442 1.40641e-17)
(0.0424513 -0.00202646 1.0057e-17)
(0.0424029 -0.00337786 1.71455e-17)
(0.0423303 -0.00472991 3.54047e-18)
(0.0422332 -0.00608285 6.41905e-18)
(0.0421114 -0.00743692 1.76079e-17)
(0.0419647 -0.00879235 2.35508e-18)
(0.0417928 -0.0101494 -5.51117e-18)
(0.0415954 -0.0115082 -2.62669e-19)
(0.041372 -0.0128688 -9.46176e-18)
(0.0411219 -0.0142314 -7.6755e-18)
(0.040845 -0.0155961 -6.47724e-18)
(0.0405407 -0.0169628 -6.02451e-18)
(0.0402082 -0.0183316 -7.24523e-18)
(0.0398469 -0.0197022 -2.60292e-17)
(0.0394562 -0.0210746 -1.45165e-17)
(0.0390353 -0.0224484 -2.46797e-17)
(0.0385835 -0.0238234 -6.96171e-18)
(0.0380999 -0.0251991 -8.03669e-19)
(0.0375837 -0.026575 -6.8169e-18)
(0.0370341 -0.0279506 -9.48726e-18)
(0.0364503 -0.0293251 2.45036e-18)
(0.0358312 -0.0306975 3.7241e-18)
(0.0351753 -0.0320667 2.41619e-17)
(0.0350939 -0.0328177 1.56945e-17)
(0.0367165 0.0314542 2.89877e-17)
(0.0373509 0.0300472 2.9507e-17)
(0.0379492 0.0286382 7.46427e-19)
(0.0385124 0.0272282 -1.74883e-17)
(0.0390414 0.0258179 -5.44358e-18)
(0.039537 0.024408 -3.07363e-17)
(0.04 0.022999 -1.87302e-17)
(0.0404313 0.0215911 -9.41402e-18)
(0.0408317 0.0201849 -2.15283e-17)
(0.0412019 0.0187804 -5.42355e-18)
(0.0415425 0.017378 1.34467e-17)
(0.0418544 0.0159776 1.38098e-17)
(0.0421381 0.0145794 -7.4956e-18)
(0.0423943 0.0131834 1.03987e-17)
(0.0426232 0.0117894 5.48803e-18)
(0.0428255 0.0103973 -2.05473e-17)
(0.0430016 0.00900709 -5.95191e-18)
(0.0431518 0.00761851 7.70052e-18)
(0.0432766 0.00623135 -5.19591e-18)
(0.0433761 0.00484536 -7.15507e-18)
(0.0434505 0.00346031 5.09649e-18)
(0.0435 0.00207592 2.84078e-18)
(0.0435247 0.000691929 1.74173e-18)
(0.0435247 -0.000691925 1.49963e-17)
(0.0435 -0.00207591 9.329e-18)
(0.0434505 -0.0034603 1.68439e-17)
(0.0433761 -0.00484536 4.55135e-18)
(0.0432766 -0.00623134 6.63613e-18)
(0.0431518 -0.00761851 1.73698e-17)
(0.0430016 -0.00900709 1.81526e-18)
(0.0428255 -0.0103973 -6.21822e-18)
(0.0426232 -0.0117894 5.02641e-20)
(0.0423943 -0.0131834 -8.03412e-18)
(0.0421381 -0.0145794 -8.06524e-18)
(0.0418544 -0.0159776 -7.83739e-18)
(0.0415425 -0.017378 -5.9548e-18)
(0.0412019 -0.0187804 -5.58433e-18)
(0.0408317 -0.0201849 -2.51432e-17)
(0.0404313 -0.0215911 -1.5732e-17)
(0.04 -0.022999 -2.55329e-17)
(0.039537 -0.024408 -6.19173e-18)
(0.0390414 -0.0258179 -3.91584e-19)
(0.0385124 -0.0272282 -7.91565e-18)
(0.0379492 -0.0286382 -9.31431e-18)
(0.0373509 -0.0300472 1.68617e-18)
(0.0367165 -0.0314542 3.86188e-18)
(0.0360443 -0.0328579 2.58839e-17)
(0.0359458 -0.0336437 1.53356e-17)
(0.037633 0.0322375 2.92266e-17)
(0.0382832 0.0307947 2.94654e-17)
(0.0388963 0.0293499 -9.12333e-19)
(0.0394735 0.0279041 -1.89562e-17)
(0.0400156 0.0264583 -4.28518e-18)
(0.0405235 0.0250129 -3.07242e-17)
(0.040998 0.0235685 -2.01194e-17)
(0.0414399 0.0221254 -1.10281e-17)
(0.0418502 0.020684 -2.06513e-17)
(0.0422295 0.0192445 -4.95927e-18)
(0.0425786 0.0178072 1.31834e-17)
(0.0428981 0.0163721 1.25562e-17)
(0.0431888 0.0149392 -8.18311e-18)
(0.0434512 0.0135086 1.18814e-17)
(0.0436858 0.0120801 5.2894e-18)
(0.043893 0.0106536 -2.04475e-17)
(0.0440734 0.00922907 -6.13765e-18)
(0.0442273 0.00780621 7.03595e-18)
(0.0443551 0.00638484 -5.17434e-18)
(0.044457 0.00496469 -6.66249e-18)
(0.0445332 0.00354552 4.82908e-18)
(0.044584 0.00212703 2.2138e-18)
(0.0446093 0.000708966 1.64228e-18)
(0.0446093 -0.000708961 1.59e-17)
(0.044584 -0.00212703 8.76243e-18)
(0.0445332 -0.00354551 1.61916e-17)
(0.044457 -0.00496469 5.67956e-18)
(0.0443551 -0.00638483 7.30483e-18)
(0.0442273 -0.00780621 1.68679e-17)
(0.0440734 -0.00922906 7.10549e-19)
(0.043893 -0.0106536 -6.78985e-18)
(0.0436858 -0.0120801 1.32559e-19)
(0.0434512 -0.0135086 -6.06689e-18)
(0.0431888 -0.0149392 -8.15378e-18)
(0.0428981 -0.0163721 -9.3961e-18)