/*--------------------------------*- C++ -*----------------------------------*\
  =========                 |
  \\      /  F ield         | OpenFOAM: The Open Source CFD Toolbox
   \\    /   O peration     | Website:  https://openfoam.org
    \\  /    A nd           | Version:  7
     \\/     M anipulation  |
\*---------------------------------------------------------------------------*/
FoamFile
{
    version     2.0;
    format      ascii;
    class       volScalarField;
    location    "84000";
    object      p;
}
// * * * * * * * * * * * * * * * * * * * * * * * * * * * * * * * * * * * * * //

dimensions      [0 2 -2 0 0 0 0];

internalField   nonuniform List<scalar> 
4783
(
-8.80088e-19
-8.89236e-19
-8.97047e-19
-9.22355e-19
-9.06576e-19
-9.1968e-19
-8.95372e-19
-8.79475e-19
-8.58942e-19
-9.15261e-19
-9.00765e-19
-8.86507e-19
-8.6717e-19
-8.26574e-19
-7.38483e-19
-7.76325e-19
-1.06892e-18
-1.11099e-18
-9.79706e-19
-1.13142e-18
-1.10386e-18
-6.9516e-19
-8.87239e-19
-9.01123e-19
-8.85497e-19
-8.94365e-19
-8.9109e-19
-9.10743e-19
-8.98573e-19
-8.96955e-19
-8.85897e-19
-8.79826e-19
-8.86768e-19
-9.06351e-19
-8.95791e-19
-8.74878e-19
-8.60287e-19
-8.72416e-19
-9.59169e-19
-8.13329e-19
-7.46621e-19
-7.79338e-19
-8.8108e-19
-8.69574e-19
-8.7314e-19
-8.72312e-19
-8.87503e-19
-8.86781e-19
-8.73079e-19
-8.89592e-19
-8.88944e-19
-9.03149e-19
-9.13282e-19
-9.06452e-19
-8.83431e-19
-8.81397e-19
-9.13138e-19
-8.92553e-19
-8.7924e-19
-8.5569e-19
-8.87565e-19
-8.64749e-19
-8.11815e-19
-8.61524e-19
-8.76757e-19
-8.84362e-19
-8.86225e-19
-8.85365e-19
-8.76737e-19
-8.80434e-19
-8.9744e-19
-8.78836e-19
-8.88185e-19
-8.92874e-19
-8.87263e-19
-8.71968e-19
-8.716e-19
-9.02429e-19
-9.00382e-19
-9.10307e-19
-8.91304e-19
-8.79843e-19
-8.88233e-19
-8.80264e-19
-8.50566e-19
-8.9717e-19
-9.01236e-19
-8.87324e-19
-8.85323e-19
-8.80921e-19
-9.0285e-19
-8.94195e-19
-8.92296e-19
-8.93018e-19
-8.92366e-19
-8.86118e-19
-8.59585e-19
-8.7862e-19
-8.90979e-19
-8.96912e-19
-8.89865e-19
-8.69054e-19
-8.84009e-19
-8.76852e-19
-9.01175e-19
-8.91428e-19
-8.85463e-19
-8.97649e-19
-9.41677e-19
-9.18391e-19
-8.84995e-19
-8.84806e-19
-8.92343e-19
-8.91093e-19
-9.00792e-19
-8.96771e-19
-8.89574e-19
-8.92644e-19
-8.8868e-19
-8.66651e-19
-8.90221e-19
-8.97191e-19
-8.85136e-19
-8.45149e-19
-8.71231e-19
-8.8321e-19
-8.88472e-19
-8.91086e-19
-9.01785e-19
-8.89996e-19
-8.97112e-19
-8.84542e-19
-8.78275e-19
-8.83388e-19
-8.84671e-19
-8.7836e-19
-8.90067e-19
-8.95561e-19
-8.75583e-19
-8.88947e-19
-9.01652e-19
-8.89817e-19
-8.93686e-19
-8.95096e-19
-8.72022e-19
-8.52746e-19
-8.8523e-19
-8.94571e-19
-8.85858e-19
-8.84239e-19
-8.84109e-19
-8.85192e-19
-8.98982e-19
-8.94758e-19
-8.89058e-19
-8.87437e-19
-8.89972e-19
-8.96827e-19
-8.85203e-19
-8.78399e-19
-8.84428e-19
-8.75553e-19
-8.77529e-19
-8.82397e-19
-8.96694e-19
-9.00006e-19
-8.71846e-19
-8.84615e-19
-9.04085e-19
-9.14453e-19
-8.79287e-19
-8.8226e-19
-8.70053e-19
-8.65662e-19
-8.67373e-19
-8.6626e-19
-8.9933e-19
-9.05974e-19
-8.99678e-19
-8.87741e-19
-8.77663e-19
-8.96772e-19
-9.05166e-19
-9.0205e-19
-8.95712e-19
-8.93751e-19
-8.79575e-19
-8.87358e-19
-9.00096e-19
-8.92579e-19
-8.79876e-19
-8.86727e-19
-8.80331e-19
-8.84772e-19
-8.83945e-19
-8.70971e-19
-8.67368e-19
-8.74749e-19
-8.92272e-19
-9.15467e-19
-8.84621e-19
-8.86586e-19
-8.88798e-19
-8.93095e-19
-8.81121e-19
-9.00005e-19
-9.03362e-19
-8.77248e-19
-8.56386e-19
-8.73539e-19
-8.90771e-19
-8.88924e-19
-8.82442e-19
-8.83942e-19
-8.8434e-19
-8.81265e-19
-8.87519e-19
-8.92763e-19
-8.82553e-19
-8.78781e-19
-8.86952e-19
-8.89466e-19
-8.87529e-19
-8.91117e-19
-8.9133e-19
-8.80655e-19
-8.63022e-19
-8.89121e-19
-8.92809e-19
-8.88034e-19
-8.73125e-19
-8.85507e-19
-8.87397e-19
-8.88278e-19
-8.77378e-19
-8.94315e-19
-9.11659e-19
-8.81988e-19
-8.81347e-19
-8.83166e-19
-8.72696e-19
-8.92669e-19
-8.95914e-19
-8.78578e-19
-8.84406e-19
-8.90685e-19
-9.03942e-19
-9.17778e-19
-9.01828e-19
-8.8916e-19
-8.90246e-19
-8.96117e-19
-8.88663e-19
-8.92702e-19
-9.00543e-19
-8.97528e-19
-8.81475e-19
-8.78307e-19
-9.07297e-19
-8.72146e-19
-8.73594e-19
-8.78402e-19
-8.67407e-19
-8.7991e-19
-8.80067e-19
-8.89924e-19
-8.89531e-19
-8.71531e-19
-8.91198e-19
-8.97014e-19
-8.97111e-19
-8.79662e-19
-8.87686e-19
-8.91758e-19
-8.90303e-19
-8.97246e-19
-9.02952e-19
-8.88042e-19
-8.82214e-19
-8.79622e-19
-8.87074e-19
-8.72469e-19
-8.86914e-19
-8.7583e-19
-8.73717e-19
-8.70865e-19
-8.86852e-19
-8.89261e-19
-9.0166e-19
-8.98045e-19
-8.96652e-19
-8.89833e-19
-8.92197e-19
-8.77675e-19
-8.7877e-19
-8.81004e-19
-8.85435e-19
-8.88617e-19
-8.96428e-19
-8.82177e-19
-8.74809e-19
-8.84144e-19
-8.90941e-19
-8.79726e-19
-8.85103e-19
-8.81032e-19
-8.80284e-19
-8.87231e-19
-8.97244e-19
-8.90098e-19
-8.87513e-19
-8.94893e-19
-8.90997e-19
-8.88183e-19
-8.81521e-19
-8.91312e-19
-8.93493e-19
-8.88589e-19
-8.81948e-19
-8.88081e-19
-8.72165e-19
-8.74553e-19
-8.83077e-19
-8.86169e-19
-8.79378e-19
-8.71957e-19
-8.84478e-19
-8.79423e-19
-8.89756e-19
-8.92107e-19
-9.08113e-19
-8.96644e-19
-8.78485e-19
-8.67386e-19
-8.67535e-19
-8.88637e-19
-8.81196e-19
-8.9207e-19
-8.94347e-19
-8.85709e-19
-8.60227e-19
-8.73509e-19
-8.88924e-19
-8.94603e-19
-8.90738e-19
-8.78794e-19
-8.89933e-19
-8.87633e-19
-8.90225e-19
-8.85506e-19
-9.02635e-19
-8.80725e-19
-8.86225e-19
-8.91201e-19
-8.77495e-19
-8.79759e-19
-8.90233e-19
-8.83112e-19
-8.79736e-19
-8.69499e-19
-8.82944e-19
-9.00209e-19
-8.87387e-19
-8.8472e-19
-8.94756e-19
-8.91211e-19
-8.8191e-19
-8.97851e-19
-8.92037e-19
-8.93763e-19
-9.10458e-19
-8.74098e-19
-8.93795e-19
-8.93537e-19
-8.9881e-19
-8.93328e-19
-8.71302e-19
-8.78078e-19
-8.9852e-19
-8.91619e-19
-8.86051e-19
-8.77969e-19
-8.88725e-19
-8.90599e-19
-8.96579e-19
-8.86097e-19
-8.80582e-19
-8.97045e-19
-9.02681e-19
-8.9106e-19
-8.90262e-19
-8.82141e-19
-8.91222e-19
-8.87091e-19
-8.88756e-19
-8.87964e-19
-8.81042e-19
-8.83886e-19
-8.66262e-19
-9.03569e-19
-8.9112e-19
-8.79902e-19
-8.95203e-19
-8.90521e-19
-8.90677e-19
-8.93763e-19
-8.71073e-19
-8.70156e-19
-8.67676e-19
-9.01502e-19
-8.91411e-19
-8.89105e-19
-8.81007e-19
-8.86676e-19
-8.97049e-19
-8.90702e-19
-8.86625e-19
-8.94939e-19
-8.8994e-19
-8.89653e-19
-8.88877e-19
-8.81132e-19
-8.92701e-19
-8.99987e-19
-8.96231e-19
-8.90879e-19
-8.79247e-19
-8.88217e-19
-8.77682e-19
-8.86084e-19
-9.04261e-19
-8.95169e-19
-8.80266e-19
-8.89087e-19
-8.86768e-19
-8.73782e-19
-8.8649e-19
-8.89698e-19
-8.88218e-19
-8.7987e-19
-8.85668e-19
-8.8087e-19
-8.89253e-19
-8.97542e-19
-8.87784e-19
-8.82905e-19
-8.91563e-19
-8.9165e-19
-8.93607e-19
-8.88967e-19
-8.90923e-19
-8.86011e-19
-8.89126e-19
-8.92544e-19
-8.85907e-19
-8.87557e-19
-8.90429e-19
-8.84099e-19
-8.79014e-19
-8.93135e-19
-8.75134e-19
-8.7007e-19
-9.01191e-19
-8.82872e-19
-8.801e-19
-8.84723e-19
-8.83647e-19
-8.8424e-19
-8.86364e-19
-8.82824e-19
-8.84353e-19
-8.83963e-19
-8.80441e-19
-8.89671e-19
-8.827e-19
-8.73419e-19
-8.97936e-19
-8.72337e-19
-8.7875e-19
-8.96532e-19
-8.82549e-19
-8.79363e-19
-8.81848e-19
-8.85776e-19
-8.80024e-19
-8.81911e-19
-8.8972e-19
-8.8267e-19
-8.86371e-19
-8.81746e-19
-8.74977e-19
-9.01209e-19
-8.88471e-19
-9.05087e-19
-8.9156e-19
-8.89623e-19
-8.92191e-19
-8.948e-19
-8.8521e-19
-8.72531e-19
-8.81827e-19
-8.87622e-19
-8.787e-19
-8.9419e-19
-8.8203e-19
-8.79563e-19
-8.8853e-19
-8.91015e-19
-8.8413e-19
-8.80763e-19
-8.89919e-19
-8.90934e-19
-8.82482e-19
-8.87866e-19
-8.86011e-19
-8.77125e-19
-8.96441e-19
-9.06315e-19
-9.0561e-19
-8.95873e-19
-8.92914e-19
-8.9194e-19
-8.97919e-19
-9.04018e-19
-8.93378e-19
-8.88206e-19
-8.81972e-19
-8.73998e-19
-8.64892e-19
-8.64686e-19
-8.7758e-19
-8.75533e-19
-8.68965e-19
-8.93013e-19
-8.79256e-19
-9.0758e-19
-8.94443e-19
-8.96846e-19
-8.86251e-19
-8.95087e-19
-8.85846e-19
-8.65834e-19
-8.59514e-19
-8.85207e-19
-8.96098e-19
-8.84466e-19
-8.87622e-19
-8.89336e-19
-8.88453e-19
-8.89162e-19
-8.87546e-19
-8.86435e-19
-8.94621e-19
-9.00707e-19
-8.90807e-19
-8.90657e-19
-8.91114e-19
-8.887e-19
-8.94362e-19
-8.9594e-19
-8.91855e-19
-8.89917e-19
-8.87626e-19
-8.88601e-19
-8.84613e-19
-8.75459e-19
-8.91463e-19
-8.87708e-19
-8.78028e-19
-8.83509e-19
-8.95801e-19
-8.80951e-19
-8.75573e-19
-8.6921e-19
-8.74378e-19
-8.8852e-19
-9.03202e-19
-8.95365e-19
-9.06203e-19
-8.78075e-19
-8.83506e-19
-8.8789e-19
-8.84266e-19
-8.73265e-19
-8.8961e-19
-8.87487e-19
-8.90709e-19
-8.85718e-19
-8.7475e-19
-8.90341e-19
-8.70622e-19
-8.93312e-19
-8.96615e-19
-8.92364e-19
-8.87801e-19
-8.90058e-19
-8.91728e-19
-8.90862e-19
-9.01283e-19
-9.00199e-19
-8.93874e-19
-8.85954e-19
-8.90367e-19
-8.9503e-19
-8.93997e-19
-8.94828e-19
-9.02277e-19
-8.9343e-19
-8.90513e-19
-8.89316e-19
-8.89398e-19
-8.93491e-19
-8.88381e-19
-8.86378e-19
-8.85824e-19
-8.82089e-19
-8.87282e-19
-8.69097e-19
-8.91649e-19
-8.94639e-19
-9.06837e-19
-8.86773e-19
-8.89208e-19
-8.97368e-19
-8.74952e-19
-8.83635e-19
-8.87547e-19
-8.85137e-19
-8.85498e-19
-9.03737e-19
-8.77564e-19
-8.81967e-19
-8.81037e-19
-8.75461e-19
-8.80199e-19
-8.99643e-19
-8.8958e-19
-8.88099e-19
-8.97069e-19
-8.90367e-19
-8.91259e-19
-8.93805e-19
-9.01675e-19
-8.93533e-19
-8.8555e-19
-8.95908e-19
-8.91833e-19
-8.94903e-19
-8.976e-19
-8.99113e-19
-8.86513e-19
-8.8248e-19
-8.76657e-19
-8.70553e-19
-8.58669e-19
-8.72384e-19
-8.79374e-19
-8.81679e-19
-8.6952e-19
-8.74853e-19
-8.96694e-19
-9.05162e-19
-8.83738e-19
-8.83722e-19
-8.74975e-19
-8.83844e-19
-8.81008e-19
-8.93504e-19
-8.84899e-19
-8.88545e-19
-8.74046e-19
-8.90447e-19
-8.78477e-19
-8.85512e-19
-8.98614e-19
-8.97138e-19
-8.86181e-19
-8.89477e-19
-8.89362e-19
-8.88071e-19
-8.92667e-19
-8.99604e-19
-9.01825e-19
-8.92717e-19
-8.91361e-19
-8.98793e-19
-8.9843e-19
-8.94207e-19
-8.97327e-19
-8.97915e-19
-8.99639e-19
-8.92705e-19
-8.81674e-19
-8.86289e-19
-8.84106e-19
-8.85617e-19
-8.92691e-19
-8.88303e-19
-8.89306e-19
-8.8687e-19
-8.81355e-19
-8.55651e-19
-8.64876e-19
-8.85514e-19
-9.02131e-19
-8.8372e-19
-8.80177e-19
-8.81667e-19
-8.93164e-19
-8.71668e-19
-8.75951e-19
-8.92198e-19
-8.5937e-19
-8.82749e-19
-8.95169e-19
-8.91457e-19
-9.09204e-19
-8.91866e-19
-8.84811e-19
-8.87848e-19
-8.90108e-19
-8.85533e-19
-8.81209e-19
-8.87063e-19
-8.91286e-19
-9.00944e-19
-8.97796e-19
-8.95032e-19
-8.9086e-19
-8.89958e-19
-8.85901e-19
-8.95119e-19
-8.91739e-19
-8.79774e-19
-8.77621e-19
-8.79759e-19
-8.82399e-19
-8.78984e-19
-8.69065e-19
-8.68554e-19
-8.70187e-19
-8.77116e-19
-8.72356e-19
-8.82054e-19
-8.78706e-19
-8.85958e-19
-8.89486e-19
-8.85224e-19
-8.88764e-19
-8.99049e-19
-8.89442e-19
-8.69608e-19
-8.94177e-19
-9.08977e-19
-8.75741e-19
-8.82676e-19
-8.88287e-19
-8.98493e-19
-9.08334e-19
-8.88117e-19
-8.69808e-19
-8.82543e-19
-9.01697e-19
-9.15293e-19
-8.90812e-19
-8.8006e-19
-8.93728e-19
-8.83795e-19
-8.80129e-19
-8.85659e-19
-8.84508e-19
-8.74528e-19
-8.79052e-19
-8.93118e-19
-8.99512e-19
-8.87113e-19
-8.93762e-19
-8.87277e-19
-8.86111e-19
-8.83736e-19
-8.84859e-19
-8.86282e-19
-8.83641e-19
-8.82553e-19
-8.8854e-19
-9.07937e-19
-8.79874e-19
-8.60938e-19
-8.81248e-19
-8.9083e-19
-8.81279e-19
-8.85351e-19
-8.96894e-19
-8.76436e-19
-8.87183e-19
-8.86291e-19
-8.87406e-19
-8.96245e-19
-8.99729e-19
-8.86469e-19
-8.88405e-19
-8.99775e-19
-9.03506e-19
-8.91562e-19
-8.93747e-19
-9.06271e-19
-8.89062e-19
-8.76772e-19
-8.84315e-19
-8.82926e-19
-8.74933e-19
-8.85843e-19
-8.87643e-19
-8.88346e-19
-8.8343e-19
-8.85858e-19
-8.8562e-19
-8.81355e-19
-8.76862e-19
-8.79709e-19
-8.81061e-19
-8.8045e-19
-8.79261e-19
-8.81946e-19
-8.71031e-19
-8.6948e-19
-8.69683e-19
-9.10148e-19
-8.80719e-19
-8.52874e-19
-8.87341e-19
-9.16525e-19
-8.87714e-19
-8.73986e-19
-8.96575e-19
-8.81783e-19
-8.82378e-19
-8.83616e-19
-8.89038e-19
-8.89171e-19
-8.97266e-19
-8.83182e-19
-8.95317e-19
-8.96539e-19
-8.81753e-19
-8.95785e-19
-9.10555e-19
-9.07843e-19
-8.91651e-19
-8.91791e-19
-8.74476e-19
-8.66896e-19
-8.81757e-19
-8.8445e-19
-8.80299e-19
-8.85213e-19
-8.85237e-19
-8.81992e-19
-8.77695e-19
-8.76054e-19
-8.79875e-19
-8.78489e-19
-8.87149e-19
-8.81911e-19
-8.80966e-19
-8.8772e-19
-8.79842e-19
-8.81592e-19
-8.76021e-19
-8.50974e-19
-8.70686e-19
-8.59617e-19
-9.00723e-19
-8.95272e-19
-8.92265e-19
-8.84104e-19
-8.94407e-19
-8.80039e-19
-8.96787e-19
-8.85012e-19
-8.79254e-19
-8.84069e-19
-8.92658e-19
-8.8025e-19
-8.82791e-19
-8.85911e-19
-8.84161e-19
-8.87472e-19
-8.77923e-19
-8.84394e-19
-8.84522e-19
-8.85234e-19
-8.79282e-19
-8.85981e-19
-8.84619e-19
-8.86301e-19
-8.86587e-19
-8.88504e-19
-8.88573e-19
-8.84314e-19
-8.84406e-19
-8.84892e-19
-8.81655e-19
-8.81207e-19
-8.81479e-19
-8.86715e-19
-8.97664e-19
-8.92959e-19
-8.89348e-19
-8.79784e-19
-8.70303e-19
-8.64227e-19
-8.81043e-19
-8.80248e-19
-8.99556e-19
-8.80491e-19
-8.79759e-19
-8.78827e-19
-8.73531e-19
-8.82679e-19
-9.12598e-19
-8.97349e-19
-8.85436e-19
-8.82007e-19
-8.82869e-19
-8.90283e-19
-8.78976e-19
-8.91631e-19
-8.77602e-19
-8.76162e-19
-8.82363e-19
-8.84401e-19
-8.8201e-19
-8.94422e-19
-8.94209e-19
-9.00732e-19
-8.81774e-19
-8.80272e-19
-8.85197e-19
-8.87127e-19
-8.85344e-19
-8.78545e-19
-8.87168e-19
-8.84517e-19
-8.83802e-19
-8.81531e-19
-8.77107e-19
-8.85008e-19
-8.86297e-19
-8.77501e-19
-8.56326e-19
-8.58066e-19
-8.71111e-19
-8.82347e-19
-8.80016e-19
-8.77877e-19
-8.64739e-19
-8.66653e-19
-8.73962e-19
-8.78713e-19
-8.70397e-19
-8.81799e-19
-8.9616e-19
-8.85686e-19
-8.81163e-19
-8.75168e-19
-8.82688e-19
-8.84613e-19
-8.86404e-19
-8.93084e-19
-8.81016e-19
-8.83239e-19
-8.77148e-19
-8.85662e-19
-8.88545e-19
-8.87467e-19
-8.87526e-19
-8.89164e-19
-8.87885e-19
-8.86642e-19
-8.83005e-19
-8.87975e-19
-8.9002e-19
-8.95445e-19
-8.89841e-19
-8.8746e-19
-8.94667e-19
-8.81228e-19
-8.78353e-19
-8.78538e-19
-8.74712e-19
-8.9514e-19
-9.03815e-19
-8.93672e-19
-8.91152e-19
-8.85843e-19
-8.97194e-19
-8.74365e-19
-8.5659e-19
-8.68069e-19
-8.7825e-19
-8.86562e-19
-9.00194e-19
-8.89832e-19
-8.72517e-19
-8.79602e-19
-8.83175e-19
-8.72083e-19
-8.68324e-19
-8.73876e-19
-8.97661e-19
-9.08614e-19
-9.00101e-19
-8.96505e-19
-8.93803e-19
-8.84871e-19
-8.90027e-19
-8.97206e-19
-8.90422e-19
-8.87944e-19
-8.86738e-19
-8.79543e-19
-8.88516e-19
-8.96889e-19
-8.90076e-19
-8.79263e-19
-8.82609e-19
-8.77923e-19
-8.83013e-19
-8.84332e-19
-8.82697e-19
-8.77672e-19
-8.81774e-19
-8.83101e-19
-8.85237e-19
-8.91233e-19
-8.91794e-19
-8.8158e-19
-8.7182e-19
-8.71398e-19
-9.23535e-19
-8.85308e-19
-8.71031e-19
-8.55343e-19
-8.96779e-19
-9.21461e-19
-9.18181e-19
-8.82824e-19
-8.86074e-19
-8.80714e-19
-8.79709e-19
-8.71752e-19
-8.81202e-19
-8.8649e-19
-8.93141e-19
-8.96418e-19
-8.89113e-19
-8.92172e-19
-8.85173e-19
-8.68621e-19
-8.79878e-19
-8.73228e-19
-8.88765e-19
-8.96116e-19
-8.83594e-19
-8.83969e-19
-8.78298e-19
-8.95903e-19
-8.85977e-19
-8.85607e-19
-8.92221e-19
-9.00644e-19
-8.99685e-19
-8.91047e-19
-8.87593e-19
-8.84909e-19
-8.85138e-19
-8.87289e-19
-8.85315e-19
-8.82662e-19
-8.80466e-19
-8.86298e-19
-8.93163e-19
-8.97696e-19
-1.0234e-18
-9.00539e-19
-8.83065e-19
-8.72179e-19
-8.80585e-19
-8.83427e-19
-8.79141e-19
-8.64357e-19
-8.88464e-19
-8.83719e-19
-8.90667e-19
-8.86255e-19
-8.85547e-19
-8.92838e-19
-8.84205e-19
-8.81601e-19
-8.73927e-19
-8.73684e-19
-8.78325e-19
-8.86201e-19
-8.88242e-19
-8.88203e-19
-8.89377e-19
-8.80731e-19
-8.81344e-19
-8.86155e-19
-8.89529e-19
-8.91927e-19
-8.93215e-19
-8.74801e-19
-8.79672e-19
-8.72372e-19
-8.69706e-19
-8.83444e-19
-8.87137e-19
-8.89937e-19
-8.91683e-19
-9.02303e-19
-8.92234e-19
-8.88827e-19
-8.96276e-19
-8.98713e-19
-8.94319e-19
-8.9409e-19
-8.85533e-19
-9.89805e-19
-8.8912e-19
-9.05719e-19
-8.81204e-19
-8.8735e-19
-8.78409e-19
-8.68575e-19
-8.49383e-19
-8.79137e-19
-8.84874e-19
-8.70521e-19
-8.87431e-19
-8.86831e-19
-8.82734e-19
-8.82086e-19
-8.75951e-19
-8.84309e-19
-8.87261e-19
-8.88273e-19
-8.88924e-19
-8.91846e-19
-8.99995e-19
-9.01407e-19
-8.91365e-19
-8.85992e-19
-8.91875e-19
-8.93331e-19
-8.92914e-19
-8.93236e-19
-8.93678e-19
-8.96681e-19
-9.07059e-19
-8.85038e-19
-8.84727e-19
-8.75757e-19
-8.8391e-19
-8.89891e-19
-8.87941e-19
-8.87629e-19
-8.86385e-19
-8.76984e-19
-8.92086e-19
-8.81511e-19
-8.83889e-19
-8.89272e-19
-6.86973e-19
-8.00683e-19
-8.73521e-19
-8.71735e-19
-8.6548e-19
-8.76576e-19
-8.78384e-19
-8.8448e-19
-8.81984e-19
-8.77392e-19
-8.49895e-19
-8.56499e-19
-8.78695e-19
-8.73575e-19
-8.87733e-19
-8.82304e-19
-8.86872e-19
-8.96383e-19
-8.91268e-19
-8.9626e-19
-8.91975e-19
-8.90818e-19
-8.85007e-19
-8.86341e-19
-8.97926e-19
-8.91032e-19
-8.92718e-19
-8.91517e-19
-8.9171e-19
-8.88081e-19
-8.78526e-19
-8.8987e-19
-8.91411e-19
-8.90602e-19
-8.89242e-19
-8.90309e-19
-8.89878e-19
-8.94891e-19
-9.0568e-19
-8.92685e-19
-8.88516e-19
-8.86557e-19
-8.75273e-19
-8.83746e-19
-8.94778e-19
-8.90075e-19
-6.44686e-19
-9.44162e-19
-8.97352e-19
-8.82265e-19
-8.72224e-19
-8.72342e-19
-8.80452e-19
-8.87845e-19
-8.79882e-19
-8.791e-19
-8.79083e-19
-8.90127e-19
-8.90613e-19
-8.83405e-19
-8.95306e-19
-8.94618e-19
-8.8919e-19
-8.85937e-19
-8.80241e-19
-8.88221e-19
-8.93449e-19
-9.04094e-19
-9.08589e-19
-9.12565e-19
-9.03915e-19
-9.17506e-19
-9.16111e-19
-8.98629e-19
-8.93857e-19
-8.95888e-19
-8.98811e-19
-9.05216e-19
-8.95226e-19
-8.85565e-19
-8.73559e-19
-8.89031e-19
-9.03475e-19
-8.95797e-19
-9.00996e-19
-8.89002e-19
-8.84306e-19
-8.82772e-19
-8.75496e-19
-8.79399e-19
-8.82469e-19
-8.79846e-19
-8.80297e-19
-7.7652e-19
-1.00402e-18
-9.52715e-19
-9.14651e-19
-8.76768e-19
-8.58777e-19
-8.77094e-19
-8.9191e-19
-8.76379e-19
-8.71485e-19
-8.78754e-19
-8.87978e-19
-8.74542e-19
-8.77177e-19
-8.79742e-19
-8.76166e-19
-8.80249e-19
-8.73068e-19
-8.73589e-19
-8.76936e-19
-8.79676e-19
-8.82562e-19
-8.90997e-19
-8.93487e-19
-8.92544e-19
-8.9269e-19
-8.93489e-19
-8.93875e-19
-8.92994e-19
-8.97594e-19
-9.15029e-19
-9.17991e-19
-9.13896e-19
-8.95866e-19
-8.83277e-19
-9.06037e-19
-9.11164e-19
-8.96647e-19
-8.96631e-19
-8.86387e-19
-8.74173e-19
-8.86103e-19
-8.97e-19
-8.83662e-19
-8.82339e-19
-8.80605e-19
-8.81327e-19
-6.56473e-19
-9.49915e-19
-8.98933e-19
-8.8005e-19
-8.63688e-19
-8.69794e-19
-8.77317e-19
-8.95806e-19
-8.89625e-19
-8.67786e-19
-8.7589e-19
-8.78791e-19
-8.75615e-19
-8.78103e-19
-8.82388e-19
-8.90331e-19
-8.85168e-19
-8.85682e-19
-8.95692e-19
-8.95474e-19
-8.9548e-19
-8.86375e-19
-8.90314e-19
-8.94678e-19
-9.00885e-19
-8.78237e-19
-8.93408e-19
-9.0562e-19
-8.82641e-19
-8.93796e-19
-9.04219e-19
-8.82768e-19
-8.89257e-19
-8.92003e-19
-8.89621e-19
-8.87896e-19
-8.82971e-19
-8.69642e-19
-8.77635e-19
-8.8118e-19
-8.78857e-19
-8.77446e-19
-8.73752e-19
-8.6332e-19
-8.66413e-19
-8.57992e-19
-8.67019e-19
-6.49437e-19
-8.6374e-19
-8.77652e-19
-8.60945e-19
-8.18437e-19
-8.62059e-19
-8.63895e-19
-8.93519e-19
-8.92655e-19
-8.75552e-19
-8.85958e-19
-8.91096e-19
-8.82123e-19
-8.76509e-19
-8.78181e-19
-8.81337e-19
-8.78876e-19
-8.77142e-19
-8.87164e-19
-8.86072e-19
-8.875e-19
-8.85105e-19
-8.88468e-19
-8.90647e-19
-8.73194e-19
-8.68846e-19
-8.89642e-19
-9.08368e-19
-8.96604e-19
-8.9334e-19
-8.9388e-19
-8.92468e-19
-8.95976e-19
-8.9954e-19
-8.93214e-19
-8.90329e-19
-8.91279e-19
-9.00415e-19
-8.88602e-19
-8.82707e-19
-8.77478e-19
-8.69466e-19
-8.8779e-19
-8.81759e-19
-8.75531e-19
-8.7498e-19
-8.80968e-19
-1.03173e-18
-8.77149e-19
-8.62537e-19
-8.6471e-19
-8.43576e-19
-8.70538e-19
-8.65303e-19
-8.88095e-19
-8.80257e-19
-8.79485e-19
-8.66364e-19
-8.76642e-19
-8.84006e-19
-8.71e-19
-8.78916e-19
-8.83126e-19
-8.7121e-19
-8.77846e-19
-8.76837e-19
-8.88147e-19
-8.99368e-19
-8.6914e-19
-8.68433e-19
-9.03959e-19
-9.12445e-19
-9.08402e-19
-8.93471e-19
-8.94888e-19
-9.01552e-19
-8.77727e-19
-8.91032e-19
-9.05431e-19
-8.89507e-19
-8.72982e-19
-8.78033e-19
-8.70065e-19
-8.79004e-19
-8.8675e-19
-8.94586e-19
-8.80723e-19
-8.79626e-19
-8.91375e-19
-8.94107e-19
-8.84444e-19
-8.5467e-19
-8.50039e-19
-8.6244e-19
-8.67975e-19
-8.97072e-19
-8.17431e-19
-8.09034e-19
-8.56863e-19
-8.66468e-19
-8.96554e-19
-8.90076e-19
-8.76248e-19
-8.85811e-19
-8.86718e-19
-8.73251e-19
-8.66113e-19
-8.67655e-19
-8.74658e-19
-8.78432e-19
-8.76182e-19
-8.59606e-19
-8.77096e-19
-8.82586e-19
-8.89744e-19
-8.84584e-19
-8.82484e-19
-8.85349e-19
-9.02785e-19
-8.93199e-19
-8.96355e-19
-8.86557e-19
-8.85343e-19
-8.81901e-19
-8.69865e-19
-8.81426e-19
-8.85714e-19
-8.8784e-19
-8.92634e-19
-8.75796e-19
-8.89269e-19
-8.73507e-19
-8.87709e-19
-8.80377e-19
-8.74903e-19
-8.73482e-19
-8.73553e-19
-8.71614e-19
-8.69732e-19
-8.68339e-19
-8.68445e-19
-8.68628e-19
-8.6802e-19
-8.45504e-19
-7.20785e-19
-9.02812e-19
-8.35131e-19
-8.47127e-19
-8.99197e-19
-8.92459e-19
-8.60843e-19
-8.73735e-19
-8.76381e-19
-8.65953e-19
-8.76291e-19
-8.77261e-19
-8.68798e-19
-8.80702e-19
-8.88048e-19
-8.78764e-19
-8.84277e-19
-8.75825e-19
-8.75801e-19
-8.6178e-19
-8.71505e-19
-8.70025e-19
-9.00356e-19
-8.87968e-19
-8.83633e-19
-8.83513e-19
-8.8476e-19
-8.85056e-19
-8.88517e-19
-9.0448e-19
-9.03712e-19
-8.86152e-19
-8.82321e-19
-8.83775e-19
-8.95344e-19
-8.90367e-19
-8.65227e-19
-8.70909e-19
-8.74879e-19
-8.74361e-19
-8.72094e-19
-8.67706e-19
-8.69746e-19
-8.68127e-19
-8.66055e-19
-8.62145e-19
-8.63837e-19
-8.65596e-19
-1.04309e-18
-8.64356e-19
-8.81803e-19
-8.75828e-19
-8.77957e-19
-8.94354e-19
-8.78849e-19
-8.62568e-19
-8.72983e-19
-8.814e-19
-8.68414e-19
-8.79606e-19
-8.87512e-19
-8.80502e-19
-8.97893e-19
-8.91399e-19
-8.77251e-19
-8.70374e-19
-8.76943e-19
-8.77555e-19
-8.73648e-19
-8.61175e-19
-8.74424e-19
-8.80376e-19
-8.78985e-19
-8.79124e-19
-8.75437e-19
-8.63578e-19
-8.74786e-19
-8.78129e-19
-8.83521e-19
-8.93793e-19
-8.72876e-19
-8.87472e-19
-8.79581e-19
-8.75028e-19
-8.74836e-19
-8.72972e-19
-8.724e-19
-8.72071e-19
-8.70832e-19
-8.69525e-19
-8.67679e-19
-8.62745e-19
-8.52528e-19
-8.61055e-19
-8.63691e-19
-8.58829e-19
-8.48877e-19
-1.1132e-18
-9.68221e-19
-8.75518e-19
-9.18985e-19
-9.00161e-19
-8.85192e-19
-8.77368e-19
-8.85044e-19
-8.7476e-19
-8.66025e-19
-8.76511e-19
-8.87377e-19
-8.79044e-19
-8.7452e-19
-8.73619e-19
-8.85771e-19
-8.78203e-19
-8.79122e-19
-8.82458e-19
-8.6267e-19
-8.69821e-19
-8.59864e-19
-8.78994e-19
-8.93443e-19
-8.86839e-19
-8.99196e-19
-8.97819e-19
-8.86247e-19
-8.95984e-19
-8.84418e-19
-8.79582e-19
-8.83159e-19
-8.92224e-19
-8.81014e-19
-8.7256e-19
-8.6031e-19
-8.69605e-19
-8.72449e-19
-8.72413e-19
-8.75922e-19
-8.85823e-19
-8.71494e-19
-8.55999e-19
-8.63735e-19
-8.67e-19
-8.69867e-19
-8.76445e-19
-8.64569e-19
-8.62416e-19
-8.65217e-19
-9.4036e-19
-1.14304e-18
-8.12342e-19
-9.09273e-19
-8.95829e-19
-8.93437e-19
-8.78327e-19
-8.77632e-19
-8.7465e-19
-8.73674e-19
-8.77959e-19
-8.7627e-19
-8.64993e-19
-8.62876e-19
-8.71744e-19
-8.69411e-19
-8.62649e-19
-8.74325e-19
-8.78632e-19
-8.75214e-19
-8.71812e-19
-8.78005e-19
-8.96031e-19
-8.86085e-19
-8.76538e-19
-8.75729e-19
-8.76151e-19
-8.75129e-19
-8.7957e-19
-8.8822e-19
-8.77237e-19
-8.73057e-19
-8.73052e-19
-8.7562e-19
-8.88039e-19
-8.88695e-19
-8.71621e-19
-8.57788e-19
-8.65014e-19
-8.67935e-19
-8.69106e-19
-8.66436e-19
-8.60903e-19
-8.63825e-19
-8.64812e-19
-8.63452e-19
-8.6181e-19
-8.57652e-19
-8.44793e-19
-8.43601e-19
-8.37864e-19
-7.60485e-19
-7.71035e-19
-9.02857e-19
-9.04749e-19
-8.79642e-19
-8.78049e-19
-8.77332e-19
-8.77843e-19
-8.75038e-19
-8.74449e-19
-8.65554e-19
-8.71731e-19
-8.62207e-19
-8.66658e-19
-8.77307e-19
-8.8419e-19
-8.76025e-19
-8.74623e-19
-8.69636e-19
-8.68201e-19
-8.63492e-19
-8.91311e-19
-8.77788e-19
-8.7071e-19
-8.59285e-19
-8.71946e-19
-8.79435e-19
-8.95644e-19
-8.99702e-19
-8.97815e-19
-8.97789e-19
-8.97123e-19
-8.89549e-19
-8.63723e-19
-8.68238e-19
-8.71298e-19
-8.7036e-19
-8.69506e-19
-8.72247e-19
-8.81249e-19
-8.66061e-19
-8.5298e-19
-8.61042e-19
-8.63898e-19
-8.59754e-19
-8.51538e-19
-8.55943e-19
-8.57869e-19
-8.56876e-19
-8.94729e-19
-8.38839e-19
-8.39248e-19
-8.8067e-19
-8.8157e-19
-8.60545e-19
-8.8638e-19
-8.80696e-19
-8.84591e-19
-8.73165e-19
-8.63256e-19
-8.73553e-19
-8.74801e-19
-8.67949e-19
-8.8072e-19
-8.76087e-19
-8.70136e-19
-8.80133e-19
-8.60778e-19
-8.64882e-19
-8.54682e-19
-8.88615e-19
-8.92349e-19
-8.60853e-19
-8.6928e-19
-8.73104e-19
-8.74212e-19
-8.73244e-19
-8.72949e-19
-8.72402e-19
-8.70484e-19
-8.71022e-19
-8.71804e-19
-8.70985e-19
-8.65128e-19
-8.56273e-19
-8.64651e-19
-8.66392e-19
-8.66106e-19
-8.65582e-19
-8.61253e-19
-8.51315e-19
-8.60054e-19
-8.63667e-19
-8.66777e-19
-8.75035e-19
-8.63851e-19
-8.57891e-19
-8.58307e-19
-8.61776e-19
-1.0475e-18
-8.83616e-19
-8.08023e-19
-8.64114e-19
-8.79727e-19
-8.73589e-19
-8.78131e-19
-8.73678e-19
-8.59708e-19
-8.64037e-19
-8.63906e-19
-8.81527e-19
-8.7582e-19
-8.63456e-19
-8.64215e-19
-8.68944e-19
-8.5764e-19
-8.7919e-19
-8.73909e-19
-8.67208e-19
-8.71015e-19
-8.75652e-19
-8.72864e-19
-8.70992e-19
-8.72091e-19
-8.73468e-19
-8.71952e-19
-8.76539e-19
-8.88303e-19
-8.76408e-19
-8.71861e-19
-8.70436e-19
-8.68858e-19
-8.65569e-19
-8.54799e-19
-8.67104e-19
-8.82818e-19
-8.75565e-19
-8.81053e-19
-8.68535e-19
-8.66831e-19
-8.73399e-19
-8.515e-19
-8.50368e-19
-8.42267e-19
-8.49556e-19
-8.46794e-19
-8.37449e-19
-8.47904e-19
-8.53413e-19
-7.26808e-19
-8.32571e-19
-8.47961e-19
-8.57233e-19
-8.99292e-19
-8.81244e-19
-8.76989e-19
-8.69879e-19
-8.47389e-19
-8.73841e-19
-8.7255e-19
-8.76241e-19
-8.87058e-19
-8.73164e-19
-8.70847e-19
-8.76652e-19
-8.78134e-19
-8.75056e-19
-8.73289e-19
-8.7179e-19
-8.64927e-19
-8.71872e-19
-8.72522e-19
-8.72956e-19
-8.73447e-19
-8.72246e-19
-8.70896e-19
-8.76376e-19
-8.88011e-19
-8.74938e-19
-8.73195e-19
-8.84589e-19
-8.74465e-19
-8.72194e-19
-8.80776e-19
-8.71307e-19
-8.67205e-19
-8.67517e-19
-8.67636e-19
-8.6443e-19
-8.6395e-19
-8.63815e-19
-8.61496e-19
-8.58848e-19
-8.57689e-19
-8.57217e-19
-8.53928e-19
-8.49759e-19
-8.4488e-19
-8.48251e-19
-8.44693e-19
-7.62053e-19
-8.57896e-19
-8.72218e-19
-9.01382e-19
-8.80906e-19
-8.72803e-19
-8.62508e-19
-8.74882e-19
-8.79963e-19
-8.48127e-19
-8.63192e-19
-9.02602e-19
-8.77925e-19
-8.70735e-19
-8.76603e-19
-8.65748e-19
-8.67924e-19
-8.73411e-19
-8.8079e-19
-8.80024e-19
-8.74651e-19
-8.72994e-19
-8.75602e-19
-8.92134e-19
-8.93814e-19
-8.79458e-19
-8.87238e-19
-8.75411e-19
-8.639e-19
-8.55386e-19
-8.80103e-19
-8.82879e-19
-8.6315e-19
-8.41934e-19
-8.44203e-19
-8.56789e-19
-8.61015e-19
-8.60521e-19
-8.58898e-19
-8.58148e-19
-8.53021e-19
-8.36905e-19
-8.35967e-19
-8.47574e-19
-8.50696e-19
-8.4952e-19
-8.4807e-19
-8.40472e-19
-8.33961e-19
-9.91265e-19
-8.76368e-19
-8.75107e-19
-8.48883e-19
-8.80028e-19
-8.91435e-19
-8.74041e-19
-8.69831e-19
-8.83271e-19
-8.74187e-19
-8.56192e-19
-8.68652e-19
-8.76404e-19
-8.7694e-19
-8.62625e-19
-8.68252e-19
-8.69287e-19
-8.72174e-19
-8.86949e-19
-8.71662e-19
-8.68485e-19
-8.66558e-19
-8.6088e-19
-8.66303e-19
-8.6044e-19
-8.8093e-19
-8.66312e-19
-8.89811e-19
-8.85779e-19
-8.53094e-19
-8.58232e-19
-8.56653e-19
-8.66589e-19
-8.78719e-19
-8.67202e-19
-8.64487e-19
-8.65918e-19
-8.69349e-19
-8.781e-19
-8.63416e-19
-8.49721e-19
-8.57518e-19
-8.58557e-19
-8.59057e-19
-8.52618e-19
-8.43631e-19
-8.48416e-19
-8.46168e-19
-8.47482e-19
-8.38961e-19
-5.53154e-19
-9.5891e-19
-8.9165e-19
-8.70169e-19
-8.79067e-19
-8.91467e-19
-8.71265e-19
-8.69412e-19
-8.71174e-19
-8.68283e-19
-8.56785e-19
-8.57772e-19
-8.67446e-19
-8.65942e-19
-8.6669e-19
-8.7738e-19
-8.77208e-19
-8.66338e-19
-8.60677e-19
-8.62115e-19
-8.73923e-19
-8.69074e-19
-8.68693e-19
-8.79593e-19
-8.6103e-19
-8.654e-19
-8.66235e-19
-8.65089e-19
-8.66053e-19
-8.61192e-19
-8.51348e-19
-8.73171e-19
-8.66891e-19
-8.61859e-19
-8.59744e-19
-8.59535e-19
-8.61263e-19
-8.57884e-19
-8.53018e-19
-8.45757e-19
-8.59811e-19
-8.60955e-19
-8.65505e-19
-8.43553e-19
-8.41634e-19
-8.50595e-19
-8.5384e-19
-8.51096e-19
-8.511e-19
-8.49831e-19
-7.89428e-19
-9.86583e-19
-8.95479e-19
-8.78513e-19
-8.74408e-19
-8.72658e-19
-8.6239e-19
-8.75743e-19
-8.68945e-19
-8.68949e-19
-8.66782e-19
-8.65754e-19
-8.6088e-19
-8.67097e-19
-8.61448e-19
-8.66464e-19
-8.64315e-19
-8.57173e-19
-8.63962e-19
-8.65829e-19
-8.65221e-19
-8.70003e-19
-8.62958e-19
-8.55629e-19
-8.52831e-19
-8.62987e-19
-8.7287e-19
-8.65518e-19
-8.47279e-19
-8.55503e-19
-8.59413e-19
-8.58567e-19
-8.59873e-19
-8.58852e-19
-8.57668e-19
-8.58496e-19
-8.55953e-19
-8.55162e-19
-8.45322e-19
-8.51207e-19
-8.60636e-19
-8.7359e-19
-8.64509e-19
-8.5024e-19
-8.52202e-19
-8.49806e-19
-8.55581e-19
-8.4925e-19
-8.47002e-19
-8.48122e-19
-8.11491e-19
-9.07532e-19
-8.80729e-19
-8.76347e-19
-8.7665e-19
-8.69147e-19
-8.6634e-19
-8.60745e-19
-8.6564e-19
-8.66814e-19
-8.57364e-19
-8.67629e-19
-8.86343e-19
-8.72022e-19
-8.75173e-19
-8.74538e-19
-8.6163e-19
-8.63836e-19
-8.69729e-19
-8.64409e-19
-8.60513e-19
-8.54038e-19
-8.58531e-19
-8.61611e-19
-8.58359e-19
-8.60648e-19
-8.60396e-19
-8.60645e-19
-8.59407e-19
-8.69249e-19
-8.60702e-19
-8.61566e-19
-8.80832e-19
-8.71643e-19
-8.73743e-19
-8.60355e-19
-8.54987e-19
-8.47871e-19
-8.67678e-19
-8.64585e-19
-8.6747e-19
-8.56031e-19
-8.5246e-19
-8.55359e-19
-8.61719e-19
-8.52053e-19
-8.51235e-19
-8.49758e-19
-8.51917e-19
-8.55596e-19
-9.71723e-19
-9.00368e-19
-8.88465e-19
-8.82064e-19
-8.91182e-19
-8.58681e-19
-8.5457e-19
-8.7294e-19
-8.67753e-19
-8.78079e-19
-8.70023e-19
-8.4379e-19
-8.64257e-19
-8.53901e-19
-8.42463e-19
-8.59906e-19
-8.64426e-19
-8.71186e-19
-8.64228e-19
-8.69831e-19
-8.70967e-19
-8.56291e-19
-8.49155e-19
-8.56798e-19
-8.5591e-19
-8.54419e-19
-8.59041e-19
-8.64413e-19
-8.64461e-19
-8.70104e-19
-8.57695e-19
-8.56108e-19
-8.45047e-19
-8.38513e-19
-8.42414e-19
-8.47435e-19
-8.49675e-19
-8.44966e-19
-8.43482e-19
-8.51799e-19
-8.55627e-19
-8.49917e-19
-8.45583e-19
-8.5099e-19
-8.57484e-19
-8.52789e-19
-8.54114e-19
-8.57179e-19
-8.61602e-19
-8.46239e-19
-8.23889e-19
-8.76864e-19
-9.06464e-19
-9.02686e-19
-8.90377e-19
-8.65323e-19
-8.51509e-19
-8.57289e-19
-8.65805e-19
-8.75955e-19
-8.65427e-19
-8.51854e-19
-8.60084e-19
-8.53084e-19
-8.52817e-19
-8.64835e-19
-8.7176e-19
-8.61893e-19
-8.56762e-19
-8.58823e-19
-8.55272e-19
-8.49399e-19
-8.58943e-19
-8.56523e-19
-8.56192e-19
-8.60863e-19
-8.53609e-19
-8.5133e-19
-8.46027e-19
-8.60022e-19
-8.59434e-19
-8.53706e-19
-8.57605e-19
-8.52628e-19
-8.51263e-19
-8.53256e-19
-8.57274e-19
-8.52999e-19
-8.52117e-19
-8.52551e-19
-8.45027e-19
-8.54267e-19
-8.53128e-19
-8.55839e-19
-8.55927e-19
-8.59403e-19
-8.5972e-19
-8.48139e-19
-8.40976e-19
-8.38532e-19
-8.62091e-19
-8.73132e-19
-8.76677e-19
-8.94918e-19
-8.72756e-19
-8.65643e-19
-8.6508e-19
-8.75552e-19
-8.66729e-19
-8.72515e-19
-8.53893e-19
-8.52074e-19
-8.66377e-19
-8.73338e-19
-8.6257e-19
-8.61335e-19
-8.70465e-19
-8.66666e-19
-8.50642e-19
-8.61815e-19
-8.57696e-19