/*--------------------------------*- C++ -*----------------------------------*\
  =========                 |
  \\      /  F ield         | OpenFOAM: The Open Source CFD Toolbox
   \\    /   O peration     | Website:  https://openfoam.org
    \\  /    A nd           | Version:  7
     \\/     M anipulation  |
\*---------------------------------------------------------------------------*/
FoamFile
{
    version     2.0;
    format      ascii;
    class       volScalarField;
    location    "236000";
    object      k;
}
// * * * * * * * * * * * * * * * * * * * * * * * * * * * * * * * * * * * * * //

dimensions      [0 2 -2 0 0 0 0];

internalField   nonuniform List<scalar> 
4850
(
8.22025e-07
8.16704e-07
8.32194e-07
8.26868e-07
8.21702e-07
8.42382e-07
8.37054e-07
8.31884e-07
8.26866e-07
8.22009e-07
8.52579e-07
8.47255e-07
8.42086e-07
8.37065e-07
8.32204e-07
8.27511e-07
8.62778e-07
8.57462e-07
8.52297e-07
8.47279e-07
8.42418e-07
8.37722e-07
8.33202e-07
8.72972e-07
8.67668e-07
8.62512e-07
8.57499e-07
8.52642e-07
8.47948e-07
8.43427e-07
8.39089e-07
8.34943e-07
8.83152e-07
8.77864e-07
8.7272e-07
8.67718e-07
8.62868e-07
8.58179e-07
8.53662e-07
8.49326e-07
8.4518e-07
8.41231e-07
8.93314e-07
8.88045e-07
8.82917e-07
8.77928e-07
8.73089e-07
8.68409e-07
8.63899e-07
8.59568e-07
8.55425e-07
8.51478e-07
8.47737e-07
8.44208e-07
8.409e-07
8.37819e-07
9.03449e-07
8.98203e-07
8.93094e-07
8.88122e-07
8.83297e-07
8.7863e-07
8.7413e-07
8.69807e-07
8.6567e-07
8.61729e-07
8.57991e-07
8.54465e-07
8.51158e-07
8.48077e-07
8.4523e-07
8.42621e-07
8.40257e-07
8.38143e-07
9.13553e-07
9.08332e-07
9.03246e-07
8.98294e-07
8.93487e-07
8.88835e-07
8.84348e-07
8.80036e-07
8.75909e-07
8.71975e-07
8.68243e-07
8.64722e-07
8.61419e-07
8.58342e-07
8.55496e-07
8.52889e-07
8.50526e-07
8.48413e-07
8.46553e-07
8.44952e-07
9.2362e-07
9.18427e-07
9.13366e-07
9.08437e-07
9.0365e-07
8.99017e-07
8.94546e-07
8.90248e-07
8.86133e-07
8.8221e-07
8.78487e-07
8.74973e-07
8.71677e-07
8.68604e-07
8.65763e-07
8.63159e-07
8.60799e-07
8.58688e-07
8.5683e-07
8.55229e-07
8.5389e-07
8.52815e-07
8.52007e-07
8.51467e-07
9.33643e-07
9.28482e-07
9.23449e-07
9.18546e-07
9.13782e-07
9.0917e-07
9.04718e-07
9.00437e-07
8.96336e-07
8.92426e-07
8.88715e-07
8.85211e-07
8.81923e-07
8.78858e-07
8.76023e-07
8.73424e-07
8.71068e-07
8.6896e-07
8.67105e-07
8.65507e-07
8.6417e-07
8.63096e-07
8.62289e-07
8.6175e-07
8.6148e-07
8.6148e-07
8.6175e-07
8.62289e-07
8.63096e-07
9.43619e-07
9.38491e-07
9.3349e-07
9.28615e-07
9.23877e-07
9.19288e-07
9.14857e-07
9.10595e-07
9.06512e-07
9.02618e-07
8.9892e-07
8.95428e-07
8.92151e-07
8.89095e-07
8.86268e-07
8.83676e-07
8.81326e-07
8.79223e-07
8.77373e-07
8.75778e-07
8.74443e-07
8.73372e-07
8.72566e-07
8.72028e-07
8.71758e-07
8.71758e-07
8.72028e-07
8.72566e-07
8.73372e-07
8.74443e-07
8.75778e-07
8.77373e-07
9.53542e-07
9.48451e-07
9.43482e-07
9.38638e-07
9.33929e-07
9.29366e-07
9.24959e-07
9.20719e-07
9.16655e-07
9.12778e-07
9.09096e-07
9.05619e-07
9.02354e-07
8.99309e-07
8.96492e-07
8.93909e-07
8.91566e-07
8.8947e-07
8.87624e-07
8.86034e-07
8.84703e-07
8.83634e-07
8.82831e-07
8.82294e-07
8.82025e-07
8.82025e-07
8.82294e-07
8.82831e-07
8.83634e-07
8.84703e-07
8.86034e-07
8.87624e-07
8.8947e-07
8.91567e-07
9.63408e-07
9.58355e-07
9.53422e-07
9.48611e-07
9.43933e-07
9.39398e-07
9.35017e-07
9.30801e-07
9.26759e-07
9.22902e-07
9.19238e-07
9.15777e-07
9.12526e-07
9.09494e-07
9.06689e-07
9.04116e-07
9.01782e-07
8.99693e-07
8.97854e-07
8.96269e-07
8.94942e-07
8.93877e-07
8.93076e-07
8.92541e-07
8.92273e-07
8.92273e-07
8.92541e-07
8.93076e-07
8.93877e-07
8.94942e-07
8.96269e-07
8.97854e-07
8.99693e-07
9.01782e-07
9.73212e-07
9.682e-07
9.63305e-07
9.58529e-07
9.53884e-07
9.49379e-07
9.45027e-07
9.40836e-07
9.36819e-07
9.32983e-07
9.29339e-07
9.25896e-07
9.22662e-07
9.19644e-07
9.16852e-07
9.1429e-07
9.11967e-07
9.09886e-07
9.08055e-07
9.06476e-07
9.05155e-07
9.04094e-07
9.03296e-07
9.02763e-07
9.02496e-07
9.02496e-07
9.02763e-07
9.03296e-07
9.04094e-07
9.05155e-07
9.06476e-07
9.08055e-07
9.09886e-07
9.11967e-07
9.82951e-07
9.77981e-07
9.73126e-07
9.68388e-07
9.63777e-07
9.59305e-07
9.54983e-07
9.50821e-07
9.46829e-07
9.43017e-07
9.39395e-07
9.35971e-07
9.32755e-07
9.29754e-07
9.26975e-07
9.24427e-07
9.22115e-07
9.20044e-07
9.18221e-07
9.1665e-07
9.15335e-07
9.14278e-07
9.13484e-07
9.12953e-07
9.12687e-07
9.12687e-07
9.12953e-07
9.13484e-07
9.14278e-07
9.15335e-07
9.1665e-07
9.18221e-07
9.20044e-07
9.22115e-07
9.9262e-07
9.87695e-07
9.82882e-07
9.78183e-07
9.73609e-07
9.69172e-07
9.64882e-07
9.60749e-07
9.56785e-07
9.52999e-07
9.494e-07
9.45998e-07
9.42801e-07
9.39817e-07
9.37055e-07
9.3452e-07
9.32221e-07
9.30161e-07
9.28348e-07
9.26785e-07
9.25476e-07
9.24425e-07
9.23634e-07
9.23106e-07
9.22841e-07
9.22841e-07
9.23106e-07
9.23634e-07
9.24425e-07
9.25476e-07
9.26785e-07
9.28348e-07
9.30161e-07
9.32221e-07
1.00222e-06
9.97338e-07
9.92569e-07
9.87911e-07
9.83375e-07
9.78974e-07
9.74718e-07
9.70617e-07
9.66682e-07
9.62923e-07
9.59349e-07
9.5597e-07
9.52794e-07
9.49829e-07
9.47084e-07
9.44565e-07
9.42279e-07
9.40232e-07
9.38429e-07
9.36874e-07
9.35573e-07
9.34528e-07
9.33741e-07
9.33216e-07
9.32953e-07
9.32953e-07
9.33216e-07
9.33741e-07
9.34528e-07
9.35573e-07
9.36874e-07
9.38429e-07
9.40232e-07
9.42279e-07
1.01174e-06
1.00691e-06
1.00218e-06
9.97567e-07
9.93072e-07
9.88709e-07
9.84488e-07
9.80421e-07
9.76517e-07
9.72786e-07
9.69239e-07
9.65884e-07
9.6273e-07
9.59786e-07
9.57059e-07
9.54557e-07
9.52285e-07
9.50251e-07
9.48459e-07
9.46914e-07
9.45621e-07
9.44582e-07
9.438e-07
9.43278e-07
9.43016e-07
9.43016e-07
9.43278e-07
9.438e-07
9.44582e-07
9.45621e-07
9.46914e-07
9.48459e-07
9.50251e-07
9.52285e-07
1.02118e-06
1.0164e-06
1.01172e-06
1.00715e-06
1.0027e-06
9.98372e-07
9.94189e-07
9.90156e-07
9.86284e-07
9.82584e-07
9.79064e-07
9.75735e-07
9.72605e-07
9.69682e-07
9.66975e-07
9.6449e-07
9.62234e-07
9.60214e-07
9.58434e-07
9.569e-07
9.55614e-07
9.54582e-07
9.53806e-07
9.53287e-07
9.53027e-07
9.53027e-07
9.53287e-07
9.53806e-07
9.54582e-07
9.55614e-07
9.569e-07
9.58434e-07
9.60214e-07
9.62235e-07
1.03054e-06
1.02581e-06
1.02118e-06
1.01665e-06
1.01224e-06
1.00796e-06
1.00382e-06
9.99819e-07
9.95981e-07
9.92312e-07
9.88821e-07
9.85519e-07
9.82414e-07
9.79514e-07
9.76827e-07
9.74361e-07
9.72122e-07
9.70116e-07
9.68349e-07
9.66826e-07
9.6555e-07
9.64525e-07
9.63753e-07
9.63238e-07
9.6298e-07
9.6298e-07
9.63238e-07
9.63753e-07
9.64525e-07
9.6555e-07
9.66826e-07
9.68349e-07
9.70116e-07
9.72122e-07
1.03981e-06
1.03513e-06
1.03055e-06
1.02607e-06
1.02171e-06
1.01747e-06
1.01336e-06
1.00941e-06
1.0056e-06
1.00197e-06
9.98507e-07
9.95233e-07
9.92154e-07
9.89277e-07
9.86612e-07
9.84166e-07
9.81944e-07
9.79954e-07
9.782e-07
9.76688e-07
9.75422e-07
9.74404e-07
9.73639e-07
9.73127e-07
9.72871e-07
9.72871e-07
9.73127e-07
9.73639e-07
9.74404e-07
9.75422e-07
9.76688e-07
9.782e-07
9.79954e-07
9.81944e-07
9.84166e-07
1.049e-06
1.04437e-06
1.03984e-06
1.03541e-06
1.03109e-06
1.0269e-06
1.02283e-06
1.01891e-06
1.01515e-06
1.01154e-06
1.00812e-06
1.00487e-06
1.00182e-06
9.98969e-07
9.96326e-07
9.939e-07
9.91697e-07
9.89723e-07
9.87983e-07
9.86483e-07
9.85227e-07
9.84217e-07
9.83458e-07
9.8295e-07
9.82696e-07
9.82696e-07
9.8295e-07
9.83458e-07
9.84217e-07
9.85227e-07
9.86483e-07
9.87983e-07
9.89723e-07
9.91697e-07
9.939e-07
1.05809e-06
1.05352e-06
1.04904e-06
1.04466e-06
1.04039e-06
1.03624e-06
1.03222e-06
1.02834e-06
1.02461e-06
1.02104e-06
1.01765e-06
1.01443e-06
1.01141e-06
1.00858e-06
1.00597e-06
1.00356e-06
1.00138e-06
9.99419e-07
9.97694e-07
9.96207e-07
9.94961e-07
9.9396e-07
9.93207e-07
9.92703e-07
9.92451e-07
9.92451e-07
9.92703e-07
9.93207e-07
9.9396e-07
9.94961e-07
9.96207e-07
9.97694e-07
9.99419e-07
1.00138e-06
1.00356e-06
1.06709e-06
1.06258e-06
1.05815e-06
1.05383e-06
1.0496e-06
1.0455e-06
1.04152e-06
1.03768e-06
1.03399e-06
1.03046e-06
1.0271e-06
1.02391e-06
1.02092e-06
1.01812e-06
1.01553e-06
1.01314e-06
1.01098e-06
1.00904e-06
1.00733e-06
1.00586e-06
1.00462e-06
1.00363e-06
1.00288e-06
1.00238e-06
1.00213e-06
1.00213e-06
1.00238e-06
1.00288e-06
1.00363e-06
1.00462e-06
1.00586e-06
1.00733e-06
1.00904e-06
1.01098e-06
1.076e-06
1.07154e-06
1.06717e-06
1.0629e-06
1.05872e-06
1.05466e-06
1.05073e-06
1.04693e-06
1.04328e-06
1.03979e-06
1.03646e-06
1.03331e-06
1.03035e-06
1.02757e-06
1.025e-06
1.02264e-06
1.0205e-06
1.01858e-06
1.01689e-06
1.01543e-06
1.0142e-06
1.01322e-06
1.01248e-06
1.01198e-06
1.01174e-06
1.01174e-06
1.01198e-06
1.01248e-06
1.01322e-06
1.0142e-06
1.01543e-06
1.01689e-06
1.01858e-06
1.0205e-06
1.08481e-06
1.08041e-06
1.0761e-06
1.07187e-06
1.06775e-06
1.06374e-06
1.05985e-06
1.0561e-06
1.05249e-06
1.04903e-06
1.04574e-06
1.04262e-06
1.03969e-06
1.03694e-06
1.0344e-06
1.03206e-06
1.02994e-06
1.02804e-06
1.02636e-06
1.02491e-06
1.0237e-06
1.02273e-06
1.022e-06
1.02151e-06
1.02126e-06
1.02126e-06
1.02151e-06
1.022e-06
1.02273e-06
1.0237e-06
1.02491e-06
1.02636e-06
1.02804e-06
1.02994e-06
1.09352e-06
1.08918e-06
1.08492e-06
1.08075e-06
1.07668e-06
1.07272e-06
1.06888e-06
1.06516e-06
1.0616e-06
1.05818e-06
1.05492e-06
1.05184e-06
1.04894e-06
1.04622e-06
1.04371e-06
1.04139e-06
1.03929e-06
1.03741e-06
1.03575e-06
1.03432e-06
1.03312e-06
1.03215e-06
1.03143e-06
1.03094e-06
1.0307e-06
1.0307e-06
1.03094e-06
1.03143e-06
1.03215e-06
1.03312e-06
1.03432e-06
1.03575e-06
1.03741e-06
1.03929e-06
1.10213e-06
1.09785e-06
1.09365e-06
1.08953e-06
1.08551e-06
1.0816e-06
1.0778e-06
1.07414e-06
1.07061e-06
1.06724e-06
1.06402e-06
1.06097e-06
1.0581e-06
1.05541e-06
1.05292e-06
1.05064e-06
1.04856e-06
1.04669e-06
1.04505e-06
1.04363e-06
1.04245e-06
1.04149e-06
1.04077e-06
1.04029e-06
1.04005e-06
1.04005e-06
1.04029e-06
1.04077e-06
1.04149e-06
1.04245e-06
1.04363e-06
1.04505e-06
1.04669e-06
1.11064e-06
1.10641e-06
1.10227e-06
1.09821e-06
1.09424e-06
1.09038e-06
1.08664e-06
1.08302e-06
1.07953e-06
1.0762e-06
1.07302e-06
1.07e-06
1.06716e-06
1.06451e-06
1.06205e-06
1.05979e-06
1.05773e-06
1.05589e-06
1.05426e-06
1.05286e-06
1.05169e-06
1.05074e-06
1.05003e-06
1.04956e-06
1.04932e-06
1.04932e-06
1.04956e-06
1.05003e-06
1.05074e-06
1.05169e-06
1.05286e-06
1.05426e-06
1.05589e-06
1.11904e-06
1.11488e-06
1.11079e-06
1.10679e-06
1.10287e-06
1.09906e-06
1.09537e-06
1.09179e-06
1.08835e-06
1.08506e-06
1.08192e-06
1.07894e-06
1.07613e-06
1.07351e-06
1.07108e-06
1.06884e-06
1.06681e-06
1.06499e-06
1.06338e-06
1.06199e-06
1.06083e-06
1.0599e-06
1.0592e-06
1.05873e-06
1.05849e-06
1.05849e-06
1.05873e-06
1.0592e-06
1.0599e-06
1.06083e-06
1.06199e-06
1.06338e-06
1.12733e-06
1.12323e-06
1.11921e-06
1.11526e-06
1.1114e-06
1.10764e-06
1.104e-06
1.10047e-06
1.09707e-06
1.09382e-06
1.09072e-06
1.08778e-06
1.08501e-06
1.08241e-06
1.08001e-06
1.0778e-06
1.07579e-06
1.07399e-06
1.0724e-06
1.07103e-06
1.06988e-06
1.06896e-06
1.06827e-06
1.0678e-06
1.06757e-06
1.06757e-06
1.0678e-06
1.06827e-06
1.06896e-06
1.06988e-06
1.07103e-06
1.0724e-06
1.13552e-06
1.13148e-06
1.12752e-06
1.12363e-06
1.11982e-06
1.11612e-06
1.11252e-06
1.10904e-06
1.10569e-06
1.10248e-06
1.09942e-06
1.09651e-06
1.09378e-06
1.09122e-06
1.08884e-06
1.08666e-06
1.08467e-06
1.0829e-06
1.08133e-06
1.07997e-06
1.07884e-06
1.07792e-06
1.07724e-06
1.07678e-06
1.07655e-06
1.07655e-06
1.07678e-06
1.07724e-06
1.07792e-06
1.07884e-06
1.07997e-06
1.08133e-06
1.1436e-06
1.13963e-06
1.13572e-06
1.13189e-06
1.12814e-06
1.12449e-06
1.12094e-06
1.11751e-06
1.1142e-06
1.11103e-06
1.10801e-06
1.10515e-06
1.10244e-06
1.09992e-06
1.09757e-06
1.09542e-06
1.09346e-06
1.0917e-06
1.09015e-06
1.08881e-06
1.08769e-06
1.08679e-06
1.08611e-06
1.08566e-06
1.08543e-06
1.08543e-06
1.08566e-06
1.08611e-06
1.08679e-06
1.08769e-06
1.08881e-06
1.09015e-06
1.15157e-06
1.14766e-06
1.14381e-06
1.14004e-06
1.13635e-06
1.13275e-06
1.12925e-06
1.12587e-06
1.12261e-06
1.11948e-06
1.1165e-06
1.11367e-06
1.11101e-06
1.10852e-06
1.1062e-06
1.10407e-06
1.10214e-06
1.1004e-06
1.09887e-06
1.09755e-06
1.09644e-06
1.09555e-06
1.09488e-06
1.09444e-06
1.09421e-06
1.09421e-06
1.09444e-06
1.09488e-06
1.09555e-06
1.09644e-06
1.09755e-06
1.09887e-06
1.15943e-06
1.15558e-06
1.15179e-06
1.14808e-06
1.14444e-06
1.1409e-06
1.13745e-06
1.13412e-06
1.13091e-06
1.12782e-06
1.12488e-06
1.1221e-06
1.11947e-06
1.11701e-06
1.11472e-06
1.11262e-06
1.11071e-06
1.109e-06
1.10749e-06
1.10619e-06
1.10509e-06
1.10421e-06
1.10355e-06
1.10311e-06
1.10289e-06
1.10289e-06
1.10311e-06
1.10355e-06
1.10421e-06
1.10509e-06
1.10619e-06
1.10749e-06
1.16717e-06
1.16338e-06
1.15966e-06
1.15601e-06
1.15243e-06
1.14894e-06
1.14554e-06
1.14226e-06
1.13909e-06
1.13606e-06
1.13316e-06
1.13041e-06
1.12782e-06
1.12539e-06
1.12314e-06
1.12107e-06
1.11918e-06
1.11749e-06
1.116e-06
1.11472e-06
1.11364e-06
1.11277e-06
1.11212e-06
1.11168e-06
1.11146e-06
1.11146e-06
1.11168e-06
1.11212e-06
1.11277e-06
1.11364e-06
1.11472e-06
1.116e-06
1.1748e-06
1.17108e-06
1.16742e-06
1.16382e-06
1.1603e-06
1.15686e-06
1.15352e-06
1.15029e-06
1.14717e-06
1.14418e-06
1.14132e-06
1.13861e-06
1.13606e-06
1.13366e-06
1.13144e-06
1.1294e-06
1.12754e-06
1.12588e-06
1.12441e-06
1.12314e-06
1.12207e-06
1.12122e-06
1.12057e-06
1.12014e-06
1.11993e-06
1.11993e-06
1.12014e-06
1.12057e-06
1.12122e-06
1.12207e-06
1.12314e-06
1.12441e-06
1.18231e-06
1.17865e-06
1.17506e-06
1.17152e-06
1.16806e-06
1.16468e-06
1.16139e-06
1.15821e-06
1.15513e-06
1.15219e-06
1.14937e-06
1.1467e-06
1.14419e-06
1.14183e-06
1.13964e-06
1.13763e-06
1.13579e-06
1.13415e-06
1.1327e-06
1.13145e-06
1.1304e-06
1.12956e-06
1.12892e-06
1.1285e-06
1.12829e-06
1.12829e-06
1.1285e-06
1.12892e-06
1.12956e-06
1.1304e-06
1.13145e-06
1.1327e-06
1.18971e-06
1.18612e-06
1.18258e-06
1.17911e-06
1.1757e-06
1.17238e-06
1.16914e-06
1.16601e-06
1.16299e-06
1.16008e-06
1.15731e-06
1.15468e-06
1.1522e-06
1.14988e-06
1.14772e-06
1.14574e-06
1.14393e-06
1.14231e-06
1.14089e-06
1.13965e-06
1.13862e-06
1.13779e-06
1.13716e-06
1.13674e-06
1.13653e-06
1.13653e-06
1.13674e-06
1.13716e-06
1.13779e-06
1.13862e-06
1.13965e-06
1.14089e-06
1.19699e-06
1.19346e-06
1.18999e-06
1.18657e-06
1.18323e-06
1.17996e-06
1.17678e-06
1.17369e-06
1.17072e-06
1.16786e-06
1.16514e-06
1.16255e-06
1.16011e-06
1.15782e-06
1.15569e-06
1.15374e-06
1.15196e-06
1.15037e-06
1.14896e-06
1.14774e-06
1.14672e-06
1.1459e-06
1.14529e-06
1.14488e-06
1.14467e-06
1.14467e-06
1.14488e-06
1.14529e-06
1.1459e-06
1.14672e-06
1.14774e-06
1.14896e-06
1.20415e-06
1.20068e-06
1.19728e-06
1.19392e-06
1.19064e-06
1.18742e-06
1.1843e-06
1.18126e-06
1.17834e-06
1.17553e-06
1.17285e-06
1.1703e-06
1.16789e-06
1.16564e-06
1.16355e-06
1.16162e-06
1.15987e-06
1.1583e-06
1.15692e-06
1.15572e-06
1.15472e-06
1.15391e-06
1.1533e-06
1.1529e-06
1.15269e-06
1.15269e-06
1.1529e-06
1.1533e-06
1.15391e-06
1.15472e-06
1.15572e-06
1.15692e-06
1.21119e-06
1.20779e-06
1.20444e-06
1.20115e-06
1.19793e-06
1.19477e-06
1.1917e-06
1.18872e-06
1.18584e-06
1.18308e-06
1.18044e-06
1.17793e-06
1.17556e-06
1.17335e-06
1.17129e-06
1.16939e-06
1.16767e-06
1.16612e-06
1.16476e-06
1.16358e-06
1.16259e-06
1.1618e-06
1.1612e-06
1.1608e-06
1.1606e-06
1.1606e-06
1.1608e-06
1.1612e-06
1.1618e-06
1.16259e-06
1.16358e-06
1.16476e-06
1.21811e-06
1.21478e-06
1.21149e-06
1.20826e-06
1.2051e-06
1.202e-06
1.19898e-06
1.19605e-06
1.19322e-06
1.19051e-06
1.18791e-06
1.18544e-06
1.18312e-06
1.18094e-06
1.17891e-06
1.17705e-06
1.17535e-06
1.17383e-06
1.17248e-06
1.17133e-06
1.17035e-06
1.16957e-06
1.16898e-06
1.16859e-06
1.16839e-06
1.16839e-06
1.16859e-06
1.16898e-06
1.16957e-06
1.17035e-06
1.17133e-06
1.17249e-06
1.2249e-06
1.22164e-06
1.21842e-06
1.21525e-06
1.21214e-06
1.2091e-06
1.20614e-06
1.20326e-06
1.20048e-06
1.19781e-06
1.19526e-06
1.19284e-06
1.19055e-06
1.18841e-06
1.18641e-06
1.18458e-06
1.18291e-06
1.18141e-06
1.18009e-06
1.17895e-06
1.178e-06
1.17723e-06
1.17665e-06
1.17626e-06
1.17607e-06
1.17607e-06
1.17626e-06
1.17665e-06
1.17723e-06
1.178e-06
1.17895e-06
1.18009e-06
1.23158e-06
1.22838e-06
1.22523e-06
1.22212e-06
1.21907e-06
1.21609e-06
1.21318e-06
1.21035e-06
1.20762e-06
1.205e-06
1.20249e-06
1.20011e-06
1.19786e-06
1.19576e-06
1.1938e-06
1.192e-06
1.19035e-06
1.18888e-06
1.18758e-06
1.18646e-06
1.18552e-06
1.18476e-06
1.18419e-06
1.18381e-06
1.18362e-06
1.18362e-06
1.18381e-06
1.18419e-06
1.18476e-06
1.18552e-06
1.18646e-06
1.23813e-06
1.23499e-06
1.23191e-06
1.22886e-06
1.22587e-06
1.22295e-06
1.22009e-06
1.21732e-06
1.21464e-06
1.21207e-06
1.20961e-06
1.20726e-06
1.20506e-06
1.20298e-06
1.20106e-06
1.19929e-06
1.19768e-06
1.19623e-06
1.19495e-06
1.19385e-06
1.19292e-06
1.19218e-06
1.19162e-06
1.19124e-06
1.19106e-06
1.19106e-06
1.19124e-06
1.19162e-06
1.19218e-06
1.19292e-06
1.19385e-06
1.24455e-06
1.24149e-06
1.23846e-06
1.23548e-06
1.23255e-06
1.22968e-06
1.22688e-06
1.22417e-06
1.22154e-06
1.21901e-06
1.21659e-06
1.21429e-06
1.21212e-06
1.21009e-06
1.2082e-06
1.20646e-06
1.20488e-06
1.20345e-06
1.2022e-06
1.20111e-06
1.2002e-06
1.19947e-06
1.19892e-06
1.19856e-06
1.19837e-06
1.19837e-06
1.19856e-06
1.19892e-06
1.19947e-06
1.20021e-06
1.25085e-06
1.24785e-06
1.24489e-06
1.24198e-06
1.23911e-06
1.2363e-06
1.23355e-06
1.23089e-06
1.22831e-06
1.22583e-06
1.22346e-06
1.2212e-06
1.21907e-06
1.21707e-06
1.21522e-06
1.21351e-06
1.21195e-06
1.21056e-06
1.20932e-06
1.20826e-06
1.20736e-06
1.20665e-06
1.20611e-06
1.20574e-06
1.20556e-06
1.20556e-06
1.20574e-06
1.20611e-06
1.20665e-06
1.20736e-06
1.25702e-06
1.25409e-06
1.2512e-06
1.24834e-06
1.24554e-06
1.24278e-06
1.24009e-06
1.23748e-06
1.23495e-06
1.23252e-06
1.23019e-06
1.22798e-06
1.22589e-06
1.22393e-06
1.22211e-06
1.22043e-06
1.2189e-06
1.21753e-06
1.21632e-06
1.21528e-06
1.2144e-06
1.2137e-06
1.21316e-06
1.21281e-06
1.21263e-06
1.21263e-06
1.21281e-06
1.21316e-06
1.2137e-06
1.2144e-06
1.26307e-06
1.2602e-06
1.25738e-06
1.25458e-06
1.25184e-06
1.24914e-06
1.24651e-06
1.24395e-06
1.24147e-06
1.23909e-06
1.2368e-06
1.23463e-06
1.23259e-06
1.23066e-06
1.22888e-06
1.22723e-06
1.22573e-06
1.22439e-06
1.2232e-06
1.22217e-06
1.22131e-06
1.22062e-06
1.2201e-06
1.21975e-06
1.21958e-06
1.21958e-06
1.21975e-06
1.2201e-06
1.22062e-06
1.22131e-06
1.26898e-06
1.26619e-06
1.26342e-06
1.2607e-06
1.25801e-06
1.25537e-06
1.25279e-06
1.25029e-06
1.24786e-06
1.24552e-06
1.24329e-06
1.24116e-06
1.23915e-06
1.23727e-06
1.23552e-06
1.2339e-06
1.23243e-06
1.23111e-06
1.22995e-06
1.22894e-06
1.2281e-06
1.22742e-06
1.22691e-06
1.22656e-06
1.22639e-06
1.22639e-06
1.22656e-06
1.22691e-06
1.22742e-06
1.2281e-06
1.27477e-06
1.27204e-06
1.26934e-06
1.26668e-06
1.26405e-06
1.26147e-06
1.25895e-06
1.2565e-06
1.25412e-06
1.25183e-06
1.24964e-06
1.24756e-06
1.24559e-06
1.24374e-06
1.24203e-06
1.24045e-06
1.239e-06
1.23771e-06
1.23657e-06
1.23558e-06
1.23475e-06
1.23409e-06
1.23359e-06
1.23325e-06
1.23308e-06
1.23308e-06
1.23325e-06
1.23359e-06
1.23409e-06
1.23475e-06
1.28042e-06
1.27776e-06
1.27513e-06
1.27253e-06
1.26996e-06
1.26744e-06
1.26498e-06
1.26258e-06
1.26025e-06
1.25801e-06
1.25587e-06
1.25383e-06
1.2519e-06
1.25009e-06
1.24841e-06
1.24686e-06
1.24545e-06
1.24418e-06
1.24306e-06
1.24209e-06
1.24128e-06
1.24063e-06
1.24014e-06
1.23981e-06
1.23965e-06
1.23965e-06
1.23981e-06
1.24014e-06
1.24063e-06
1.24128e-06
1.28594e-06
1.28335e-06
1.28079e-06
1.27825e-06
1.27575e-06
1.27328e-06
1.27087e-06
1.26853e-06
1.26625e-06
1.26406e-06
1.26196e-06
1.25997e-06
1.25808e-06
1.25631e-06
1.25466e-06
1.25314e-06
1.25176e-06
1.25052e-06
1.24942e-06
1.24848e-06
1.24768e-06
1.24704e-06
1.24656e-06
1.24624e-06
1.24608e-06
1.24608e-06
1.24624e-06
1.24656e-06
1.24704e-06
1.24768e-06
1.29133e-06
1.28881e-06
1.28631e-06
1.28384e-06
1.28139e-06
1.27899e-06
1.27664e-06
1.27434e-06
1.27212e-06
1.26998e-06
1.26793e-06
1.26598e-06
1.26413e-06
1.2624e-06
1.26078e-06
1.2593e-06
1.25795e-06
1.25673e-06
1.25566e-06
1.25473e-06
1.25395e-06
1.25333e-06
1.25285e-06
1.25254e-06
1.25238e-06
1.25238e-06
1.25254e-06
1.25285e-06
1.25333e-06
1.25395e-06
1.29659e-06
1.29413e-06
1.2917e-06
1.28929e-06
1.28691e-06
1.28456e-06
1.28226e-06
1.28003e-06
1.27785e-06
1.27576e-06
1.27376e-06
1.27185e-06
1.27004e-06
1.26835e-06
1.26677e-06
1.26532e-06
1.264e-06
1.26281e-06
1.26176e-06
1.26085e-06
1.26009e-06
1.25948e-06
1.25901e-06
1.25871e-06
1.25855e-06
1.25855e-06
1.25871e-06
1.25901e-06
1.25948e-06
1.26009e-06
1.30171e-06
1.29932e-06
1.29696e-06
1.29461e-06
1.29229e-06
1.29e-06
1.28776e-06
1.28557e-06
1.28346e-06
1.28141e-06
1.27945e-06
1.27759e-06
1.27583e-06
1.27417e-06
1.27263e-06
1.27121e-06
1.26991e-06
1.26875e-06
1.26772e-06
1.26684e-06
1.26609e-06
1.26549e-06
1.26504e-06
1.26474e-06
1.26459e-06
1.26459e-06
1.26474e-06
1.26504e-06
1.26549e-06
1.26609e-06
1.30669e-06
1.30438e-06
1.30208e-06
1.29979e-06
1.29753e-06
1.2953e-06
1.29312e-06
1.29099e-06
1.28892e-06
1.28693e-06
1.28501e-06
1.28319e-06
1.28147e-06
1.27985e-06
1.27835e-06
1.27696e-06
1.2757e-06
1.27456e-06
1.27356e-06
1.27269e-06
1.27196e-06
1.27138e-06
1.27093e-06
1.27064e-06
1.27049e-06
1.27049e-06
1.27064e-06
1.27093e-06
1.27138e-06
1.27196e-06
1.31154e-06
1.30929e-06
1.30706e-06
1.30484e-06
1.30264e-06
1.30047e-06
1.29834e-06
1.29626e-06
1.29425e-06
1.2923e-06
1.29044e-06
1.28866e-06
1.28698e-06
1.2854e-06
1.28393e-06
1.28258e-06
1.28134e-06
1.28023e-06
1.27925e-06
1.27841e-06
1.27769e-06
1.27712e-06
1.27669e-06
1.2764e-06
1.27626e-06
1.27626e-06
1.2764e-06
1.27669e-06
1.27712e-06
1.27769e-06
1.31624e-06
1.31407e-06
1.3119e-06
1.30974e-06
1.30761e-06
1.30549e-06
1.30342e-06
1.3014e-06
1.29944e-06
1.29754e-06
1.29572e-06
1.29399e-06
1.29235e-06
1.29081e-06
1.28938e-06
1.28806e-06
1.28685e-06
1.28577e-06
1.28481e-06
1.28399e-06
1.28329e-06
1.28273e-06
1.28231e-06
1.28203e-06
1.28189e-06
1.28189e-06
1.28203e-06
1.28231e-06
1.28273e-06
1.28329e-06
1.32081e-06
1.3187e-06
1.3166e-06
1.31451e-06
1.31243e-06
1.31038e-06
1.30837e-06
1.3064e-06
1.30449e-06
1.30264e-06
1.30087e-06
1.29918e-06
1.29759e-06
1.29609e-06
1.29469e-06
1.2934e-06
1.29222e-06
1.29117e-06
1.29023e-06
1.28943e-06
1.28875e-06
1.28821e-06
1.2878e-06
1.28752e-06
1.28738e-06
1.28738e-06
1.28752e-06
1.2878e-06
1.28821e-06
1.28875e-06
1.32523e-06
1.3232e-06
1.32117e-06
1.31914e-06
1.31712e-06
1.31513e-06
1.31317e-06
1.31125e-06
1.3094e-06
1.3076e-06
1.30588e-06
1.30423e-06
1.30268e-06
1.30122e-06
1.29986e-06
1.2986e-06
1.29745e-06
1.29643e-06
1.29552e-06
1.29473e-06
1.29407e-06
1.29354e-06
1.29314e-06
1.29287e-06
1.29274e-06
1.29274e-06
1.29287e-06
1.29314e-06
1.29354e-06
1.29407e-06
1.32952e-06
1.32755e-06
1.32558e-06
1.32362e-06
1.32166e-06
1.31973e-06
1.31783e-06
1.31597e-06
1.31416e-06
1.31242e-06
1.31074e-06
1.30914e-06
1.30763e-06
1.30621e-06
1.30488e-06
1.30366e-06
1.30254e-06
1.30154e-06
1.30066e-06
1.29989e-06
1.29925e-06
1.29873e-06
1.29834e-06
1.29808e-06
1.29795e-06
1.29795e-06
1.29808e-06
1.29834e-06
1.29873e-06
1.29925e-06
1.33365e-06
1.33176e-06
1.32986e-06
1.32796e-06
1.32606e-06
1.32419e-06
1.32234e-06
1.32054e-06
1.31879e-06
1.31709e-06
1.31546e-06
1.31391e-06
1.31244e-06
1.31105e-06
1.30977e-06
1.30858e-06
1.30749e-06
1.30652e-06
1.30565e-06
1.30491e-06
1.30428e-06
1.30378e-06
1.3034e-06
1.30315e-06
1.30302e-06
1.30302e-06
1.30315e-06
1.3034e-06
1.30378e-06
1.30428e-06
1.33764e-06
1.33582e-06
1.33399e-06
1.33215e-06
1.33032e-06
1.3285e-06
1.32671e-06
1.32497e-06
1.32326e-06
1.32162e-06
1.32004e-06
1.31853e-06
1.3171e-06
1.31576e-06
1.3145e-06
1.31335e-06
1.31229e-06
1.31135e-06
1.31051e-06
1.30978e-06
1.30918e-06
1.30869e-06
1.30832e-06
1.30807e-06
1.30795e-06
1.30795e-06
1.30807e-06
1.30832e-06
1.30869e-06
1.30918e-06
1.34149e-06
1.33973e-06
1.33797e-06
1.33619e-06
1.33442e-06
1.33267e-06
1.33094e-06
1.32924e-06
1.32759e-06
1.326e-06
1.32447e-06
1.323e-06
1.32162e-06
1.32031e-06
1.3191e-06
1.31798e-06
1.31695e-06
1.31603e-06
1.31522e-06
1.31451e-06
1.31392e-06
1.31345e-06
1.31309e-06
1.31285e-06
1.31273e-06
1.31273e-06
1.31285e-06
1.31309e-06
1.31345e-06
1.31392e-06
1.34518e-06
1.3435e-06
1.3418e-06
1.34009e-06
1.33838e-06
1.33668e-06
1.33501e-06
1.33337e-06
1.33178e-06
1.33023e-06
1.32875e-06
1.32733e-06
1.32599e-06
1.32472e-06
1.32354e-06
1.32245e-06
1.32146e-06
1.32057e-06
1.31978e-06
1.3191e-06
1.31852e-06
1.31806e-06
1.31771e-06
1.31748e-06
1.31736e-06
1.31736e-06
1.31748e-06
1.31771e-06
1.31806e-06
1.31852e-06
1.34873e-06
1.34711e-06
1.34548e-06
1.34383e-06
1.34219e-06
1.34055e-06
1.33893e-06
1.33735e-06
1.33581e-06
1.33432e-06
1.33288e-06
1.33151e-06
1.33021e-06
1.32898e-06
1.32784e-06
1.32678e-06
1.32582e-06
1.32496e-06
1.32419e-06
1.32353e-06
1.32297e-06
1.32252e-06
1.32219e-06
1.32196e-06
1.32185e-06
1.32185e-06
1.32196e-06
1.32219e-06
1.32252e-06
1.32297e-06
1.349e-06
1.34742e-06
1.34584e-06
1.34426e-06
1.34271e-06
1.34118e-06
1.33969e-06
1.33825e-06
1.33686e-06
1.33553e-06
1.33427e-06
1.33309e-06
1.32727e-06
1.32684e-06
1.32651e-06
1.32629e-06
1.32618e-06
1.32618e-06
1.32629e-06
1.32651e-06
1.32684e-06
1.32727e-06
7.05185e-07
7.04211e-07
7.03479e-07
7.0299e-07
7.02746e-07
7.02746e-07
7.0299e-07
7.03479e-07
7.0421e-07
7.05185e-07
7.1562e-07
7.14385e-07
7.13394e-07
7.12651e-07
7.12154e-07
7.11906e-07
7.11906e-07
7.12154e-07
7.12651e-07
7.13394e-07
7.14385e-07
7.1562e-07
7.171e-07
7.18821e-07
7.20783e-07
7.22981e-07
7.25414e-07
7.28078e-07
7.3097e-07
7.34086e-07
7.37421e-07
7.28241e-07
7.26497e-07
7.24997e-07
7.23744e-07
7.22739e-07
7.21985e-07
7.21481e-07
7.21229e-07
7.21229e-07
7.21481e-07
7.21985e-07
7.22739e-07
7.23744e-07
7.24997e-07
7.26496e-07
7.28241e-07
7.30229e-07
7.32456e-07
7.3492e-07
7.37617e-07
7.40544e-07
7.43696e-07
7.47068e-07
7.50657e-07
7.54457e-07
7.58461e-07
7.62665e-07
7.44555e-07
7.42063e-07
7.3981e-07
7.37799e-07
7.36034e-07
7.34515e-07
7.33247e-07
7.3223e-07
7.31466e-07
7.30956e-07
7.30701e-07
7.30701e-07
7.30956e-07
7.31466e-07
7.3223e-07
7.33247e-07
7.34515e-07
7.36033e-07
7.37799e-07
7.3981e-07
7.42063e-07
7.44554e-07
7.47281e-07
7.50238e-07
7.53422e-07
7.56828e-07
7.6045e-07
7.64284e-07
7.68322e-07
7.72559e-07
7.76988e-07
7.81603e-07
7.86395e-07
7.60041e-07
7.57056e-07
7.54304e-07
7.51788e-07
7.49513e-07
7.47481e-07
7.45697e-07
7.44162e-07
7.4288e-07
7.41852e-07
7.41079e-07
7.40563e-07
7.40305e-07
7.40305e-07
7.40563e-07
7.41079e-07
7.41851e-07
7.4288e-07
7.44162e-07
7.45697e-07
7.47481e-07
7.49512e-07
7.51788e-07
7.54304e-07
7.57056e-07
7.6004e-07
7.63252e-07
7.66687e-07
7.70338e-07
7.742e-07
7.78267e-07
7.82532e-07
7.86988e-07
7.91629e-07
7.96445e-07
8.01429e-07
8.06572e-07
8.11883e-07
7.76632e-07
7.73173e-07
7.69937e-07
7.66929e-07
7.64155e-07
7.61618e-07
7.59322e-07
7.57273e-07
7.55472e-07
7.53923e-07
7.52629e-07
7.51591e-07
7.50811e-07
7.5029e-07
7.5003e-07
7.5003e-07
7.5029e-07
7.50811e-07
7.51591e-07
7.52629e-07
7.53923e-07
7.55472e-07
7.57273e-07
7.59322e-07
7.61617e-07
7.64154e-07
7.66929e-07
7.69937e-07
7.73173e-07
7.76632e-07
7.80307e-07
7.84194e-07
7.88285e-07
7.92573e-07
7.97051e-07
8.01712e-07
8.06546e-07
8.11547e-07
8.16704e-07
8.22025e-07
7.90347e-07
7.86651e-07
7.83172e-07
7.79916e-07
7.76888e-07
7.74094e-07
7.71539e-07
7.69227e-07
7.67162e-07
7.65347e-07
7.63786e-07
7.62481e-07
7.61434e-07
7.60648e-07
7.60123e-07
7.5986e-07
7.5986e-07
7.60123e-07
7.60648e-07
7.61434e-07
7.62481e-07
7.63786e-07
7.65347e-07
7.67162e-07
7.69227e-07
7.71539e-07
7.74094e-07
7.76888e-07
7.79916e-07
7.83172e-07
7.86651e-07
7.90347e-07
7.94254e-07
7.98364e-07
8.02671e-07
8.07166e-07
8.11842e-07
8.1669e-07
8.21702e-07
8.26868e-07
8.32194e-07
8.04369e-07
8.00446e-07
7.96734e-07
7.93238e-07
7.89965e-07
7.86921e-07
7.84111e-07
7.81541e-07
7.79214e-07
7.77136e-07
7.75309e-07
7.73738e-07
7.72424e-07
7.7137e-07
7.70577e-07
7.70049e-07
7.69784e-07
7.69784e-07
7.70048e-07
7.70577e-07
7.71369e-07
7.72423e-07
7.73737e-07
7.75309e-07
7.77136e-07
7.79214e-07
7.81541e-07
7.84111e-07
7.86921e-07
7.89965e-07
7.93238e-07
7.96734e-07
8.00446e-07
8.04369e-07
8.08494e-07
8.12814e-07
8.17322e-07
8.22009e-07
8.26866e-07
8.31884e-07
8.37054e-07
8.42382e-07
8.18665e-07
8.14529e-07
8.10594e-07
8.06869e-07
8.0336e-07
8.00074e-07
7.97017e-07
7.94194e-07
7.91611e-07
7.89273e-07
7.87183e-07
7.85347e-07
7.83766e-07
7.82444e-07
7.81384e-07
7.80587e-07
7.80055e-07
7.79789e-07
7.79789e-07
7.80055e-07
7.80587e-07
7.81384e-07
7.82444e-07
7.83766e-07
7.85346e-07
7.87183e-07
7.89272e-07
7.91611e-07
7.94194e-07
7.97016e-07
8.00074e-07
8.0336e-07
8.06869e-07
8.10594e-07
8.14528e-07
8.18664e-07
8.22995e-07
8.27511e-07
8.32204e-07
8.37065e-07
8.42086e-07
8.47255e-07
8.52579e-07
8.33202e-07
8.28866e-07
8.24723e-07
8.2078e-07
8.17046e-07
8.13528e-07
8.10231e-07
8.07164e-07
8.04331e-07
8.01738e-07
7.99391e-07
7.97292e-07
7.95448e-07
7.9386e-07
7.92532e-07
7.91467e-07
7.90666e-07
7.90132e-07
7.89864e-07
7.89864e-07
7.90131e-07
7.90666e-07
7.91467e-07
7.92532e-07
7.9386e-07
7.95447e-07
7.97292e-07
7.9939e-07
8.01738e-07
8.04331e-07
8.07164e-07
8.10231e-07
8.13527e-07
8.17046e-07
8.2078e-07
8.24723e-07
8.28866e-07
8.33202e-07
8.37722e-07
8.42418e-07
8.47279e-07
8.52297e-07
8.57462e-07
8.62778e-07
8.43428e-07
8.3909e-07
8.34943e-07
8.30996e-07
8.27256e-07
8.23731e-07
8.20428e-07
8.17353e-07
8.14513e-07
8.11913e-07
8.09558e-07
8.07453e-07
8.05602e-07
8.04008e-07
8.02676e-07
8.01607e-07
8.00803e-07
8.00266e-07
7.99998e-07
7.99998e-07
8.00266e-07
8.00803e-07
8.01607e-07
8.02676e-07
8.04008e-07
8.05602e-07
8.07453e-07
8.09558e-07
8.11913e-07
8.14513e-07
8.17353e-07
8.20428e-07
8.23731e-07
8.27256e-07
8.30996e-07
8.34943e-07
8.39089e-07
8.43427e-07
8.47948e-07
8.52642e-07
8.57499e-07
8.62511e-07
8.67668e-07
8.72971e-07
8.5818e-07
8.53663e-07
8.49326e-07
8.4518e-07
8.41231e-07
8.37489e-07
8.33961e-07
8.30654e-07
8.27575e-07
8.24729e-07
8.22124e-07
8.19764e-07
8.17655e-07
8.15799e-07
8.14202e-07
8.12865e-07
8.11793e-07
8.10987e-07
8.10449e-07
8.10179e-07
8.10179e-07
8.10449e-07
8.10987e-07
8.11793e-07
8.12865e-07
8.14201e-07
8.15799e-07
8.17654e-07
8.19764e-07
8.22124e-07
8.24729e-07
8.27574e-07
8.30654e-07
8.33961e-07
8.37489e-07
8.41231e-07
8.45179e-07
8.49326e-07
8.53662e-07
8.58179e-07
8.62868e-07
8.67718e-07
8.7272e-07
8.77864e-07
8.83152e-07
8.73089e-07
8.6841e-07
8.63899e-07
8.59568e-07
8.55425e-07
8.51478e-07
8.47737e-07
8.44208e-07
8.409e-07
8.37819e-07
8.34971e-07
8.32364e-07
8.30001e-07
8.27888e-07
8.26029e-07
8.24429e-07
8.23091e-07
8.22016e-07
8.21209e-07
8.20669e-07
8.20399e-07