/*--------------------------------*- C++ -*----------------------------------*\
  =========                 |
  \\      /  F ield         | OpenFOAM: The Open Source CFD Toolbox
   \\    /   O peration     | Website:  https://openfoam.org
    \\  /    A nd           | Version:  7
     \\/     M anipulation  |
\*---------------------------------------------------------------------------*/
FoamFile
{
    version     2.0;
    format      ascii;
    class       volScalarField;
    location    "184000";
    object      strainRate;
}
// * * * * * * * * * * * * * * * * * * * * * * * * * * * * * * * * * * * * * //

dimensions      [0 0 -1 0 0 0 0];

internalField   nonuniform List<scalar> 
4782
(
0.0916403
0.0948342
0.0982013
0.101754
0.105506
0.109472
0.113668
0.118111
0.12282
0.127815
0.0294194
0.0300247
0.0306458
0.0312833
0.0319378
0.0326102
0.033301
0.0340111
0.0347413
0.0354926
0.0362671
0.03707
0.0379054
0.0387723
0.0396683
0.0405925
0.0415453
0.0425276
0.0435408
0.0445864
0.0456662
0.0467823
0.0479367
0.0491316
0.0503693
0.0516522
0.052983
0.0543644
0.0557992
0.0572907
0.058842
0.0604567
0.0621385
0.0638916
0.0657202
0.067629
0.0696229
0.0717075
0.0738884
0.0761719
0.0785648
0.0810743
0.0837082
0.0864752
0.0893844
0.0924456
0.0956698
0.0990686
0.102655
0.106442
0.110444
0.114679
0.119163
0.123914
0.128954
0.0296602
0.0302704
0.0308966
0.0315394
0.0321994
0.0328774
0.0335741
0.0342903
0.0350268
0.0357847
0.0365679
0.0373822
0.0382286
0.0391048
0.0400091
0.0409412
0.0419018
0.0428921
0.0439136
0.0449679
0.046057
0.0471827
0.0483473
0.0495529
0.0508019
0.0520967
0.0534399
0.0548342
0.0562827
0.0577883
0.0593545
0.0609847
0.0626829
0.064453
0.0662994
0.0682269
0.0702404
0.0723454
0.0745478
0.0768538
0.0792703
0.0818045
0.0844645
0.0872587
0.0901965
0.0932878
0.0965436
0.0999755
0.103596
0.10742
0.111461
0.115736
0.120262
0.125058
0.130145
0.0299088
0.0305241
0.0311555
0.0318038
0.0324695
0.0331535
0.0338565
0.0345793
0.0353229
0.0360894
0.0368838
0.0377102
0.0385672
0.0394521
0.0403641
0.0413038
0.042272
0.0432703
0.0443002
0.0453635
0.0464621
0.047598
0.0487733
0.0499902
0.051251
0.0525582
0.0539144
0.0553224
0.0567851
0.0583056
0.0598874
0.061534
0.0632492
0.0650371
0.0669023
0.0688493
0.0708833
0.0730098
0.0752347
0.0775644
0.0800056
0.0825658
0.085253
0.0880758
0.0910436
0.0941664
0.0974552
0.100922
0.104579
0.108441
0.112522
0.116839
0.121409
0.126251
0.131386
0.030191
0.0308106
0.0314464
0.0320991
0.0327693
0.0334578
0.0341657
0.0348966
0.0356542
0.0364388
0.0372494
0.0380858
0.0389486
0.0398381
0.0407551
0.0417006
0.0426757
0.0436817
0.0447202
0.0457928
0.0469013
0.0480477
0.0492341
0.0504626
0.0517357
0.0530557
0.0544254
0.0558474
0.0573248
0.0588608
0.0604587
0.0621222
0.0638551
0.0656616
0.0675461
0.0695135
0.0715689
0.0737178
0.0759661
0.0783204
0.0807874
0.0833748
0.0860904
0.0889431
0.0919423
0.0950981
0.0984216
0.101925
0.10562
0.109522
0.113645
0.118006
0.122622
0.127513
0.132698
0.030191
0.0308106
0.0314464
0.0320991
0.0327693
0.0334578
0.0341657
0.0348966
0.0356542
0.0364388
0.0372494
0.0380858
0.0389486
0.0398381
0.0407551
0.0417006
0.0426757
0.0436817
0.0447202
0.0457928
0.0469013
0.0480477
0.0492341
0.0504626
0.0517357
0.0530557
0.0544254
0.0558474
0.0573248
0.0588608
0.0604587
0.0621222
0.0638551
0.0656616
0.0675461
0.0695135
0.0715689
0.0737178
0.0759661
0.0783204
0.0807874
0.0833748
0.0860904
0.0889432
0.0919423
0.0950981
0.0984216
0.101925
0.10562
0.109522
0.113645
0.118006
0.122622
0.127513
0.132698
0.0299088
0.0305241
0.0311555
0.0318038
0.0324695
0.0331535
0.0338565
0.0345793
0.0353229
0.0360894
0.0368838
0.0377102
0.0385672
0.0394521
0.0403641
0.0413038
0.042272
0.0432703
0.0443002
0.0453635
0.0464621
0.047598
0.0487733
0.0499902
0.051251
0.0525582
0.0539144
0.0553224
0.0567851
0.0583056
0.0598874
0.061534
0.0632492
0.0650371
0.0669023
0.0688493
0.0708833
0.0730099
0.0752347
0.0775644
0.0800056
0.0825658
0.085253
0.0880758
0.0910436
0.0941664
0.0974552
0.100922
0.104579
0.108441
0.112522
0.116839
0.121409
0.126251
0.131386
0.136836
0.142623
0.148774
0.155315
0.0296602
0.0302704
0.0308966
0.0315393
0.0321994
0.0328774
0.0335741
0.0342903
0.0350268
0.0357847
0.0365679
0.0373822
0.0382287
0.0391048
0.0400091
0.0409412
0.0419018
0.0428921
0.0439136
0.0449679
0.046057
0.0471827
0.0483473
0.0495529
0.0508019
0.0520967
0.0534399
0.0548342
0.0562827
0.0577883
0.0593545
0.0609847
0.0626829
0.064453
0.0662994
0.0682269
0.0702404
0.0723454
0.0745478
0.0768538
0.0792703
0.0818045
0.0844645
0.0872587
0.0901965
0.0932878
0.0965436
0.0999755
0.103596
0.10742
0.111461
0.115736
0.120262
0.125058
0.130145
0.135543
0.141278
0.147375
0.153859
0.160761
0.0294194
0.0300247
0.0306458
0.0312833
0.0319378
0.0326102
0.033301
0.0340111
0.0347413
0.0354926
0.0362671
0.03707
0.0379054
0.0387723
0.0396683
0.0405925
0.0415453
0.0425276
0.0435408
0.0445864
0.0456662
0.0467823
0.0479367
0.0491316
0.0503693
0.0516522
0.052983
0.0543644
0.0557992
0.0572907
0.058842
0.0604567
0.0621385
0.0638916
0.0657202
0.067629
0.069623
0.0717075
0.0738884
0.0761719
0.0785648
0.0810743
0.0837083
0.0864752
0.0893844
0.0924456
0.0956698
0.0990686
0.102655
0.106442
0.110444
0.114679
0.119163
0.123914
0.128955
0.134305
0.139989
0.146033
0.152462
0.159307
0.166598
0.174366
0.182645
0.19147
0.200876
0.210897
0.221567
0.232917
0.244976
0.257774
0.271362
0.285955
0.301926
0.319361
0.337943
0.357353
0.377322
0.397479
0.417344
0.436355
0.45392
0.469506
0.482725
0.493405
0.501613
0.507623
0.511837
0.514703
0.516636
0.517976
0.518974
0.519794
0.52053
0.521232
0.521917
0.0291876
0.0297882
0.0304044
0.0310368
0.0316862
0.0323531
0.0330384
0.0337428
0.0344671
0.0352121
0.035979
0.0367719
0.0375967
0.0384541
0.0393417
0.0402581
0.0412032
0.0421777
0.0431828
0.04422
0.045291
0.0463978
0.0475425
0.0487271
0.0499541
0.0512258
0.0525448
0.0539139
0.0553358
0.0568137
0.0583509
0.0599508
0.0616172
0.063354
0.0651657
0.0670567
0.069032
0.0710971
0.0732575
0.0755196
0.0778899
0.0803758
0.082985
0.0857259
0.0886077
0.0916403
0.0948343
0.0982013
0.101754
0.105506
0.109472
0.113668
0.118111
0.12282
0.127815
0.133119
0.138755
0.144747
0.151124
0.157914
0.165148
0.172857
0.181077
0.189842
0.199186
0.209147
0.219758
0.231051
0.243057
0.255804
0.26934
0.283841
0.299682
0.317034
0.335595
0.355021
0.375047
0.395312
0.415337
0.434557
0.452371
0.468227
0.481714
0.492639
0.501052
0.50722
0.511547
0.514486
0.516463
0.517829
0.518842
0.51967
0.520413
0.52112
0.52181
0.0289652
0.0295613
0.0301728
0.0308005
0.0314449
0.0321067
0.0327867
0.0334856
0.0342043
0.0349434
0.0357042
0.036489
0.0373031
0.0381502
0.0390292
0.0399379
0.0408756
0.0418426
0.0428401
0.0438693
0.044932
0.04603
0.0471654
0.0483404
0.0495572
0.0508182
0.0521261
0.0534834
0.0548931
0.0563581
0.0578819
0.0594677
0.0611194
0.0628408
0.0646363
0.0665104
0.0684681
0.0705145
0.0726555
0.0748972
0.0772461
0.0797094
0.082295
0.085011
0.0878667
0.0908718
0.094037
0.0973737
0.100894
0.104613
0.108543
0.112702
0.117106
0.121775
0.126728
0.131986
0.137575
0.143519
0.149844
0.156581
0.16376
0.171414
0.179576
0.188282
0.197568
0.207469
0.218022
0.22926
0.241213
0.25391
0.267394
0.281805
0.297522
0.314791
0.333329
0.352766
0.372844
0.393207
0.413382
0.432802
0.450855
0.466971
0.48072
0.491884
0.5005
0.506824
0.511262
0.514273
0.516295
0.517687
0.518713
0.51955
0.520299
0.521011
0.521706
0.0287526
0.0293444
0.0299516
0.0305747
0.0312144
0.0318714
0.0325464
0.0332402
0.0339535
0.0346871
0.0354421
0.0362194
0.0370237
0.0378611
0.0387317
0.0396328
0.0405632
0.0415231
0.0425131
0.0435347
0.0445895
0.0456792
0.0468059
0.0479717
0.0491789
0.0504298
0.0517271
0.0530733
0.0544713
0.0559242
0.0574352
0.0590077
0.0606454
0.0623522
0.0641324
0.0659905
0.0679313
0.0699601
0.0720825
0.0743047
0.0766333
0.0790752
0.0816382
0.0843306
0.0871615
0.0901404
0.0932781
0.0965859
0.100076
0.103763
0.107659
0.111783
0.11615
0.120779
0.125691
0.130907
0.136451
0.142347
0.148624
0.155311
0.162437
0.170036
0.178143
0.186793
0.196021
0.205866
0.216363
0.227546
0.239448
0.252096
0.265529
0.279853
0.29545
0.312638
0.331151
0.350594
0.370718
0.391172
0.411488
0.431096
0.449376
0.465744
0.479746
0.491144
0.499958
0.506436
0.510983
0.514066
0.516132
0.517548
0.518589
0.519434
0.520189
0.520906
0.521606
0.0285502
0.0291379
0.0297409
0.0303597
0.030995
0.0316474
0.0323176
0.0330065
0.0337147
0.0344431
0.0351926
0.0359642
0.0367609
0.0375883
0.0384493
0.0393425
0.0402658
0.0412188
0.042202
0.0432165
0.0442638
0.0453457
0.0464642
0.0476214
0.0488194
0.0500608
0.0513481
0.0526838
0.0540708
0.0555122
0.0570111
0.058571
0.0601954
0.0618884
0.063654
0.0654969
0.0674217
0.0694337
0.0715386
0.0737424
0.0760515
0.0784731
0.0810147
0.0836847
0.0864919
0.089446
0.0925575
0.0958378
0.0992992
0.102955
0.10682
0.11091
0.115242
0.119834
0.124707
0.129882
0.135383
0.141235
0.147465
0.154103
0.161179
0.168727
0.17678
0.185375
0.194549
0.20434
0.214782
0.225913
0.237765
0.250366
0.26375
0.277995
0.29348
0.310586
0.329067
0.348513
0.368676
0.389213
0.409659
0.429444
0.447941
0.46455
0.478795
0.49042
0.499427
0.506055
0.510709
0.513863
0.515971
0.517412
0.518467
0.51932
0.52008
0.520802
0.521507
0.0283581
0.0289421
0.0295411
0.0301558
0.0307869
0.031435
0.0321007
0.0327849
0.0334884
0.0342119
0.0349562
0.0357225
0.0365122
0.0373305
0.0381825
0.039068
0.0399844
0.0409308
0.0419074
0.0429151
0.0439553
0.0450298
0.0461406
0.0472896
0.0484791
0.0497115
0.0509893
0.0523151
0.0536918
0.0551222
0.0566098
0.0581577
0.0597696
0.0614494
0.0632013
0.0650297
0.0669394
0.0689356
0.0710238
0.0732101
0.0755009
0.0779032
0.0804246
0.0830732
0.085858
0.0887885
0.0918752
0.0951294
0.0985633
0.10219
0.106025
0.110083
0.114381
0.118938
0.123773
0.12891
0.13437
0.140179
0.146365
0.152957
0.159985
0.167483
0.175486
0.184029
0.193151
0.202888
0.213279
0.224359
0.236162
0.248718
0.262061
0.276264
0.291673
0.308669
0.327085
0.346527
0.366723
0.387335
0.407901
0.427851
0.446552
0.463389
0.477867
0.489711
0.498904
0.505677
0.510436
0.513659
0.515809
0.517274
0.518342
0.519203
0.519969
0.520695
0.521404
0.0281766
0.028757
0.0293523
0.0299632
0.0305903
0.0312343
0.0318959
0.0325757
0.0332747
0.0339935
0.034733
0.0354942
0.0362782
0.0370889
0.0379321
0.0388095
0.0397189
0.0406589
0.0416291
0.0426305
0.0436641
0.0447317
0.0458352
0.0469766
0.048158
0.049382
0.0506509
0.0519674
0.0533343
0.0547545
0.0562313
0.057768
0.0593681
0.0610356
0.0627745
0.0645893
0.0664848
0.068466
0.0705385
0.0727083
0.0749818
0.0773659
0.0798682
0.0824967
0.0852604
0.0881687
0.091232
0.0944615
0.0978696
0.101469
0.105275
0.109303
0.113569
0.118093
0.122893
0.127993
0.133414
0.139184
0.145328
0.151875
0.158858
0.166309
0.174264
0.182758
0.19183
0.201517
0.211858
0.22289
0.234647
0.24716
0.260463
0.274626
0.28996
0.306852
0.325204
0.344641
0.364865
0.385543
0.40622
0.426325
0.445218
0.462271
0.476972
0.489025
0.498398
0.505312
0.510172
0.513462
0.515653
0.517141
0.518221
0.51909
0.519861
0.520592
0.521306
0.0280059
0.0285829
0.0291748
0.0297821
0.0304055
0.0310457
0.0317033
0.032379
0.0330737
0.0337882
0.0345232
0.0352797
0.0360588
0.036863
0.0376978
0.0385671
0.0394697
0.0404034
0.0413677
0.042363
0.0433905
0.0444517
0.0455483
0.0466826
0.0478565
0.0490726
0.0503332
0.0516409
0.0529987
0.0544093
0.055876
0.0574022
0.0589912
0.0606471
0.0623739
0.0641759
0.066058
0.0680252
0.070083
0.0722374
0.0744946
0.0768617
0.079346
0.0819557
0.0846995
0.0875869
0.0906283
0.0938347
0.0972184
0.100793
0.104571
0.108571
0.112807
0.117299
0.122067
0.127132
0.132517
0.138249
0.144353
0.15086
0.1578
0.165207
0.173115
0.181563
0.190587
0.200227
0.210521
0.221507
0.233219
0.245691
0.258956
0.273079
0.288343
0.305135
0.323427
0.342855
0.363103
0.383842
0.40462
0.424869
0.443942
0.4612
0.476114
0.488367
0.497912
0.504962
0.50992
0.513274
0.515504
0.517015
0.518108
0.518984
0.51976
0.520496
0.521213
0.0278461
0.02842
0.0290086
0.0296126
0.0302326
0.0308692
0.0315231
0.032195
0.0328858
0.0335962
0.034327
0.0350792
0.0358537
0.036652
0.0374792
0.0383409
0.039237
0.0401649
0.0411235
0.0421131
0.0431348
0.0441899
0.0452802
0.0464077
0.0475747
0.0487834
0.0500362
0.0513359
0.0526851
0.0540868
0.0555441
0.0570604
0.0586392
0.0602842
0.0619996
0.0637898
0.0656594
0.0676135
0.0696576
0.0717975
0.0740396
0.0763907
0.0788583
0.0814503
0.0841756
0.0870435
0.0900644
0.0932492
0.0966102
0.10016
0.103914
0.107887
0.112095
0.116558
0.121295
0.126328
0.131679
0.137375
0.143442
0.14991
0.15681
0.164175
0.172041
0.180444
0.189424
0.199019
0.209268
0.22021
0.231881
0.244313
0.257541
0.271627
0.286824
0.303522
0.321755
0.341174
0.361442
0.382235
0.403107
0.423489
0.442731
0.460182
0.475296
0.487739
0.497449
0.504629
0.50968
0.513097
0.515365
0.516897
0.518002
0.518885
0.519666
0.520405
0.521126
0.0276974
0.0282683
0.028854
0.0294548
0.0300716
0.0307049
0.0313554
0.0320238
0.0327109
0.0334175
0.0341444
0.0348925
0.0356628
0.0364564
0.0372773
0.0381317
0.039021
0.039943
0.0408962
0.0418806
0.0428968
0.0439463
0.0450308
0.0461522
0.0473127
0.0485146
0.0497603
0.0510524
0.0523937
0.0537871
0.0552357
0.0567428
0.058312
0.059947
0.0616519
0.0634311
0.0652891
0.067231
0.0692623
0.0713888
0.0736168
0.0759531
0.0784051
0.0809808
0.0836889
0.0865387
0.0895404
0.0927052
0.096045
0.099573
0.103303
0.107251
0.111434
0.115869
0.120577
0.12558
0.1309
0.136562
0.142595
0.149026
0.155889
0.163215
0.171041
0.179403
0.188341
0.197894
0.208101
0.219002
0.230632
0.243027
0.25622
0.27027
0.285404
0.302015
0.320193
0.339601
0.359885
0.380727
0.401685
0.42219
0.441589
0.459219
0.474522
0.487144
0.49701
0.504313
0.509454
0.51293
0.515234
0.516787
0.517903
0.518793
0.519579
0.520321
0.521046
0.0275598
0.028128
0.0287109
0.0293089
0.0299227
0.0305529
0.0312003
0.0318654
0.0325492
0.0332523
0.0339756
0.0347199
0.0354863
0.0362758
0.0370915
0.0379391
0.0388217
0.0397381
0.0406862
0.0416656
0.0426769
0.0437213
0.0448004
0.0459161
0.0470707
0.0482662
0.0495053
0.0507905
0.0521245
0.0535103
0.0549508
0.0564496
0.0580099
0.0596357
0.0613308
0.0630998
0.0649471
0.0668778
0.0688973
0.0710114
0.0732264
0.0755491
0.0779867
0.0805473
0.0832394
0.0860725
0.0890566
0.0922028
0.0955231
0.0990304
0.102739
0.106664
0.110823
0.115233
0.119914
0.124889
0.130179
0.135811
0.141811
0.14821
0.155037
0.162327
0.170116
0.17844
0.187339
0.196852
0.20702
0.217882
0.229476
0.241835
0.254996
0.269011
0.284087
0.300616
0.318741
0.338138
0.358437
0.379322
0.400357
0.420975
0.440518
0.458316
0.473794
0.486585
0.496597
0.504017
0.509243
0.512774
0.515113
0.516685
0.517812
0.518708
0.519498
0.520244
0.520972
0.0274334
0.0279992
0.0285795
0.0291749
0.029786
0.0304135
0.0310579
0.0317201
0.0324007
0.0331006
0.0338206
0.0345616
0.0353244
0.0361102
0.0369211
0.0377625
0.0386391
0.0395504
0.0404938
0.0414686
0.0424753
0.0435149
0.044589
0.0456996
0.0468486
0.0480385
0.0492715
0.0505503
0.0518777
0.0532564
0.0546896
0.0561806
0.0577329
0.0593501
0.0610364
0.062796
0.0646335
0.066554
0.0685627
0.0706654
0.0728685
0.0751786
0.077603
0.0801497
0.0828273
0.085645
0.0886129
0.0917421
0.0950444
0.0985328
0.102222
0.106126
0.110262
0.114649
0.119306
0.124255
0.129518
0.135122
0.141093
0.14746
0.154255
0.161512
0.169266
0.177555
0.186418
0.195895
0.206027
0.216853
0.228412
0.240739
0.253868
0.267852
0.282873
0.299327
0.317404
0.336789
0.357099
0.378023
0.399127
0.419848
0.439523
0.457475
0.473116
0.486064
0.496212
0.503742
0.509046
0.51263
0.515001
0.516591
0.517729
0.51863
0.519424
0.520174
0.520905
0.0273183
0.0278819
0.0284599
0.029053
0.0296616
0.0302865
0.0309283
0.0315878
0.0322656
0.0329626
0.0336796
0.0344175
0.0351771
0.0359595
0.0367662
0.0376021
0.0384733
0.0393798
0.0403189
0.0412895
0.0422919
0.0433272
0.0443968
0.0455026
0.0466467
0.0478313
0.0490589
0.0503319
0.0516532
0.0530256
0.0544521
0.0559361
0.057481
0.0590905
0.0607687
0.0625198
0.0643484
0.0662595
0.0682584
0.0703508
0.072543
0.0748417
0.0772542
0.0797883
0.0824525
0.0852563
0.0882095
0.0913231
0.0946091
0.0980804
0.101751
0.105636
0.109752
0.114118
0.118753
0.123678
0.128917
0.134495
0.140439
0.146778
0.153544
0.16077
0.168493
0.17675
0.18558
0.195023
0.205122
0.215915
0.227442
0.239739
0.25284
0.266794
0.281765
0.29815
0.316182
0.335556
0.355874
0.376832
0.397999
0.418812
0.438608
0.456701
0.472491
0.485582
0.495857
0.503487
0.508865
0.512498
0.514899
0.516506
0.517653
0.51856
0.519357
0.52011
0.520844
0.0272146
0.0277762
0.0283522
0.0289431
0.0295495
0.0301721
0.0308116
0.0314686
0.0321439
0.0328383
0.0335526
0.0342877
0.0350444
0.0358238
0.036627
0.0374586
0.0383246
0.0392264
0.0401613
0.041128
0.0421266
0.043158
0.0442236
0.0453252
0.0464648
0.0476448
0.0488674
0.0501353
0.0514511
0.0528177
0.0542383
0.055716
0.0572542
0.0588569
0.0605278
0.0622712
0.0640918
0.0659945
0.0679845
0.0700676
0.0722501
0.0745385
0.0769402
0.0794629
0.0821152
0.0849064
0.0878463
0.090946
0.0942173
0.0976731
0.101327
0.105195
0.109294
0.11364
0.118255
0.123159
0.128376
0.13393
0.13985
0.146164
0.152903
0.160102
0.167796
0.176024
0.184824
0.194237
0.204305
0.215069
0.226567
0.238836
0.251911
0.265838
0.280764
0.297087
0.315078
0.33444
0.354766
0.375753
0.396975
0.417871
0.437775
0.455995
0.471921
0.485143
0.495533
0.503256
0.508701
0.512379
0.514806
0.516429
0.517584
0.518496
0.519297
0.520052
0.520789
0.0271224
0.0276822
0.0282563
0.0288452
0.0294497
0.0300703
0.0307077
0.0313625
0.0320356
0.0327277
0.0334396
0.0341721
0.0349263
0.035703
0.0365035
0.0373314
0.0381929
0.0390901
0.0400212
0.0409844
0.0419796
0.0430076
0.0440696
0.0451674
0.0463031
0.0474789
0.0486972
0.0499604
0.0512714
0.052633
0.0540482
0.0555203
0.0570527
0.0586491
0.0603136
0.0620502
0.0638637
0.0657589
0.067741
0.0698159
0.0719897
0.074269
0.076661
0.0791737
0.0818154
0.0845953
0.0875235
0.0906108
0.093869
0.097311
0.100951
0.104803
0.108885
0.113215
0.117812
0.122697
0.127895
0.133428
0.139326
0.145617
0.152333
0.159507
0.167176
0.175378
0.184151
0.193538
0.203579
0.214315
0.225788
0.238032
0.251083
0.264986
0.279872
0.296139
0.314092
0.333444
0.353775
0.374787
0.396058
0.417027
0.437028
0.455361
0.471408
0.484747
0.495241
0.503047
0.508553
0.512271
0.514724
0.516361
0.517524
0.51844
0.519244
0.520001
0.52074
0.0270415
0.0275998
0.0281723
0.0287596
0.0293623
0.0299812
0.0306167
0.0312697
0.0319408
0.0326308
0.0333406
0.034071
0.0348229
0.0355973
0.0363953
0.0372201
0.0380776
0.038971
0.0398987
0.0408588
0.041851
0.0428759
0.0439348
0.0450293
0.0461616
0.0473337
0.0485482
0.0498074
0.0511142
0.0524713
0.0538818
0.055349
0.0568763
0.0584673
0.0601261
0.0618568
0.0636641
0.0655527
0.067528
0.0695957
0.0717618
0.0740332
0.0764168
0.0789206
0.081553
0.0843232
0.087241
0.0903175
0.0935642
0.0969941
0.100621
0.10446
0.108528
0.112843
0.117424
0.122293
0.127473
0.132989
0.138867
0.145139
0.151834
0.158987
0.166633
0.174812
0.183562
0.192924
0.202942
0.213655
0.225104
0.237327
0.250357
0.264239
0.279088
0.295307
0.313227
0.332569
0.352904
0.373938
0.395251
0.416284
0.436368
0.454801
0.470954
0.484398
0.494983
0.502863
0.508423
0.512177
0.514651
0.516301
0.51747
0.518391
0.519197
0.519957
0.520698
0.0269722
0.0275291
0.0281002
0.0286861
0.0292874
0.0299047
0.0305387
0.03119
0.0318594
0.0325478
0.0332558
0.0339843
0.0347343
0.0355067
0.0363026
0.0371248
0.0379788
0.0388688
0.0397937
0.0407512
0.0417408
0.042763
0.0438192
0.0449109
0.0460402
0.0472093
0.0484204
0.0496762
0.0509794
0.0523327
0.0537392
0.0552022
0.0567251
0.0583115
0.0599654
0.0616911
0.063493
0.065376
0.0673454
0.0694069
0.0715665
0.073831
0.0762075
0.0787037
0.0813281
0.0840899
0.0869989
0.090066
0.093303
0.0967225
0.100339
0.104166
0.108222
0.112524
0.117092
0.121947
0.127112
0.132612
0.138474
0.144728
0.151406
0.15854
0.166168
0.174326
0.183056
0.192398
0.202395
0.213088
0.224518
0.236721
0.249734
0.263596
0.278415
0.294592
0.312484
0.331816
0.352155
0.373207
0.394556
0.415643
0.435799
0.454317
0.470562
0.484095
0.49476
0.502703
0.50831
0.512096
0.514589
0.516249
0.517425
0.518349
0.519157
0.519919
0.520661
0.0269144
0.0274702
0.0280402
0.0286249
0.0292249
0.029841
0.0304736
0.0311236
0.0317917
0.0324785
0.033185
0.033912
0.0346604
0.0354311
0.0362253
0.0370452
0.0378965
0.0387837
0.0397062
0.0406614
0.0416489
0.042669
0.0437229
0.0448123
0.0459391
0.0471056
0.048314
0.0495669
0.050867
0.0522172
0.0536204
0.0550799
0.0565991
0.0581817
0.0598315
0.0615529
0.0633504
0.0652287
0.0671932
0.0692495
0.0714038
0.0736626
0.076033
0.0785229
0.0811407
0.0838955
0.0867972
0.0898565
0.0930853
0.0964962
0.100103
0.103921
0.107967
0.112259
0.116815
0.121658
0.126811
0.132298
0.138147
0.144386
0.151049
0.158168
0.165779
0.173922
0.182635
0.19196
0.201939
0.212615
0.224028
0.236216
0.249213
0.26306
0.277853
0.293995
0.311863
0.331188
0.351529
0.372596
0.393973
0.415105
0.435322
0.453911
0.470233
0.483841
0.494573
0.502569
0.508216
0.512027
0.514537
0.516206
0.517387
0.518313
0.519124
0.519887
0.520631
0.0268681
0.027423
0.0279921
0.0285759
0.0291749
0.02979
0.0304216
0.0310705
0.0317374
0.0324231
0.0331284
0.0338542
0.0346013
0.0353706
0.0361634
0.0369816
0.0378306
0.0387156
0.0396362
0.0405897
0.0415754
0.0425937
0.0436458
0.0447333
0.0458582
0.0470226
0.0482288
0.0494794
0.0507771
0.0521248
0.0535253
0.054982
0.0564983
0.0580778
0.0597244
0.0614424
0.0632363
0.0651109
0.0670715
0.0691236
0.0712735
0.0735278
0.0758934
0.0783783
0.0809908
0.0837399
0.0866357
0.0896889
0.0929111
0.0963151
0.0999148
0.103725
0.107763
0.112046
0.116594
0.121427
0.12657
0.132047
0.137884
0.144113
0.150763
0.15787
0.165469
0.173598
0.182297
0.191609
0.201575
0.212237
0.223636
0.235811
0.248797
0.262631
0.277403
0.293517
0.311366
0.330684
0.351027
0.372105
0.393506
0.414674
0.434938
0.453584
0.469968
0.483636
0.494421
0.502461
0.508139
0.511972
0.514495
0.516172
0.517356
0.518285
0.519097
0.519862
0.520607
0.0268334
0.0273877
0.027956
0.0285391
0.0291374
0.0297517
0.0303825
0.0310306
0.0316967
0.0323815
0.0330859
0.0338108
0.0345569
0.0353253
0.036117
0.0369339
0.0377812
0.0386645
0.0395836
0.0405358
0.0415202
0.0425373
0.043588
0.0446741
0.0457975
0.0469603
0.0481649
0.0494138
0.0507097
0.0520554
0.0534539
0.0549085
0.0564226
0.0579998
0.059644
0.0613595
0.0631507
0.0650225
0.0669801
0.0690292
0.0711758
0.0734266
0.0757887
0.0782698
0.0808782
0.0836232
0.0865146
0.089563
0.0927803
0.0961792
0.0997735
0.103578
0.10761
0.111887
0.116427
0.121254
0.126389
0.131858
0.137688
0.143907
0.150549
0.157646
0.165235
0.173355
0.182044
0.191345
0.201301
0.211953
0.223342
0.235508
0.248484
0.262309
0.27707
0.293165
0.310996
0.330306
0.35065
0.371736
0.393154
0.414349
0.434648
0.453337
0.469767
0.483481
0.494306
0.502379
0.508081
0.51193
0.514462
0.516145
0.517332
0.518263
0.519076
0.519841
0.520588
0.0268103
0.0273641
0.027932
0.0285146
0.0291124
0.0297262
0.0303565
0.031004
0.0316695
0.0323538
0.0330576
0.0337818
0.0345273
0.035295
0.036086
0.0369021
0.0377482
0.0386305
0.0395486
0.0404999
0.0414835
0.0424996
0.0435495
0.0446346
0.045757
0.0469188
0.0481223
0.04937
0.0506647
0.0520092
0.0534064
0.0548596
0.0563721
0.0579478
0.0595904
0.0613041
0.0630936
0.0649635
0.0669191
0.0689662
0.0711106
0.0733591
0.0757188
0.0781973
0.0808032
0.0835453
0.0864337
0.0894791
0.0926931
0.0960885
0.0996791
0.10348
0.107508
0.11178
0.116316
0.121138
0.126268
0.131732
0.137556
0.14377
0.150406
0.157497
0.16508
0.173192
0.181875
0.191169
0.201118
0.211763
0.223146
0.235305
0.248275
0.262095
0.27685
0.292935
0.310753
0.330055
0.350399
0.37149
0.392919
0.414131
0.434455
0.453172
0.469633
0.483376
0.494229
0.502323
0.508041
0.511901
0.51444
0.516126
0.517316
0.518247
0.519061
0.519827
0.520574
0.0267987
0.0273523
0.0279199
0.0285023
0.0290999
0.0297134
0.0303434
0.0309907
0.031656
0.0323399
0.0330435
0.0337674
0.0345125
0.0352799
0.0360706
0.0368861
0.0377318
0.0386134
0.0395311
0.0404819
0.0414651
0.0424808
0.0435302
0.0446149
0.0457368
0.046898
0.048101
0.0493482
0.0506422
0.051986
0.0533826
0.0548351
0.0563469
0.0579218
0.0595636
0.0612765
0.063065
0.064934
0.0668886
0.0689346
0.071078
0.0733254
0.0756838
0.0781611
0.0807656
0.0835064
0.0863933
0.0894371
0.0926495
0.0960431
0.0996319
0.103431
0.107457
0.111727
0.116261
0.12108
0.126208
0.131669
0.137491
0.143702
0.150335
0.157423
0.165002
0.173111
0.18179
0.191081
0.201026
0.211668
0.223048
0.235203
0.248171
0.261988
0.27674
0.292821
0.310631
0.329929
0.350273
0.371367
0.392802
0.414023
0.434358
0.453089
0.469565
0.483324
0.49419
0.502295
0.508021
0.511886
0.514428
0.516116
0.517307
0.518239
0.519053
0.51982
0.520567
0.0267987
0.0273523
0.0279199
0.0285023
0.0290999
0.0297134
0.0303434
0.0309907
0.031656
0.0323399
0.0330435
0.0337673
0.0345125
0.0352799
0.0360706
0.0368861
0.0377318
0.0386134
0.0395311
0.0404819
0.0414651
0.0424808
0.0435302
0.0446149
0.0457368
0.046898
0.048101
0.0493482
0.0506422
0.051986
0.0533826
0.0548351
0.0563469
0.0579218
0.0595636
0.0612765
0.063065
0.064934
0.0668886
0.0689346
0.071078
0.0733254
0.0756838
0.0781611
0.0807656
0.0835064
0.0863933
0.0894371
0.0926495
0.0960431
0.0996319
0.103431
0.107457
0.111727
0.116261
0.12108
0.126208
0.131669
0.137491
0.143702
0.150335
0.157423
0.165002
0.173111
0.18179
0.191081
0.201026
0.211668
0.223048
0.235203
0.248171
0.261988
0.27674
0.292821
0.310631
0.329929
0.350273
0.371367
0.392802
0.414023
0.434358
0.453089
0.469565
0.483324
0.49419
0.502295
0.508021
0.511886
0.514428
0.516116
0.517307
0.518239
0.519053
0.51982
0.520567
0.0268103
0.0273641
0.027932
0.0285146
0.0291124
0.0297262
0.0303565
0.031004
0.0316695
0.0323538
0.0330576
0.0337818
0.0345273
0.035295
0.036086
0.0369021
0.0377482
0.0386305
0.0395486
0.0404999
0.0414835
0.0424996
0.0435495
0.0446346
0.045757
0.0469188
0.0481223
0.04937
0.0506647
0.0520092
0.0534064
0.0548596
0.0563721
0.0579478
0.0595904
0.0613041
0.0630936
0.0649635
0.0669191
0.0689662
0.0711106
0.0733591
0.0757188
0.0781973
0.0808032
0.0835453
0.0864337
0.0894791
0.0926931
0.0960885
0.0996791
0.10348
0.107508
0.11178
0.116316
0.121138
0.126268
0.131732
0.137556
0.14377
0.150406
0.157497
0.16508
0.173192
0.181875
0.191169
0.201118
0.211763
0.223146
0.235305
0.248275
0.262095
0.27685
0.292935
0.310753
0.330055
0.350399
0.37149
0.392919
0.414131
0.434455
0.453172
0.469633
0.483376
0.494229
0.502323
0.508041
0.511901
0.51444
0.516126
0.517316
0.518247
0.519061
0.519827
0.520574
0.0268334
0.0273877
0.027956
0.0285391
0.0291374
0.0297517
0.0303825
0.0310306
0.0316967
0.0323815
0.0330859
0.0338108
0.0345569
0.0353253
0.036117
0.0369339
0.0377812
0.0386645
0.0395836
0.0405358
0.0415202
0.0425373
0.043588
0.0446741
0.0457975
0.0469603
0.0481649
0.0494138
0.0507097
0.0520554
0.053454
0.0549085
0.0564226
0.0579998
0.059644
0.0613595
0.0631507
0.0650225
0.0669801
0.0690292
0.0711758
0.0734266
0.0757887
0.0782698
0.0808782
0.0836232
0.0865146
0.089563
0.0927803
0.0961792
0.0997735
0.103578
0.10761
0.111887
0.116427
0.121254
0.126389
0.131858
0.137688
0.143907
0.150549
0.157646
0.165235
0.173355
0.182044
0.191345
0.201301
0.211953
0.223342
0.235508
0.248484
0.262309
0.27707
0.293165
0.310996
0.330306
0.35065
0.371736
0.393154
0.414349
0.434648
0.453337
0.469767
0.483481
0.494306
0.502379
0.508081
0.51193
0.514462
0.516145
0.517332
0.518263
0.519076
0.519841
0.520588
0.0268681
0.027423
0.0279921
0.0285759
0.0291749
0.02979
0.0304216
0.0310705
0.0317374
0.0324231
0.0331284
0.0338542
0.0346013
0.0353706
0.0361634
0.0369816
0.0378306
0.0387156
0.0396362
0.0405897
0.0415754
0.0425937
0.0436458
0.0447334
0.0458582
0.0470226
0.0482288
0.0494794
0.0507771
0.0521248
0.0535253
0.054982
0.0564983
0.0580778
0.0597244
0.0614424
0.0632363
0.0651109
0.0670715
0.0691236
0.0712735
0.0735278
0.0758934
0.0783783
0.0809908
0.0837399
0.0866357
0.0896889
0.0929111
0.0963151
0.0999148
0.103725
0.107763
0.112046
0.116594
0.121427
0.12657
0.132047
0.137884
0.144113
0.150763
0.15787
0.165469
0.173598
0.182297
0.191609
0.201575
0.212237
0.223636
0.235811
0.248797
0.262631
0.277403
0.293517
0.311366
0.330684
0.351027
0.372105
0.393506
0.414674
0.434938
0.453584
0.469968
0.483636
0.494421
0.502462
0.508139
0.511972
0.514495
0.516172
0.517356
0.518285
0.519097
0.519862
0.520607
0.0269144
0.0274702
0.0280402
0.0286249
0.0292249
0.029841
0.0304736
0.0311236
0.0317917
0.0324785
0.033185
0.033912
0.0346604
0.0354311
0.0362253
0.0370452
0.0378965
0.0387837
0.0397062
0.0406614
0.0416489
0.042669
0.0437229
0.0448123
0.0459391
0.0471056
0.048314
0.0495669
0.050867
0.0522172
0.0536204
0.0550799
0.0565991
0.0581817
0.0598315
0.0615529
0.0633504
0.0652287
0.0671932
0.0692495
0.0714038
0.0736626
0.076033
0.0785229
0.0811407
0.0838955
0.0867972
0.0898565
0.0930853
0.0964962
0.100103
0.103921
0.107967
0.112259
0.116815
0.121658
0.126811
0.132298
0.138147
0.144386
0.151049
0.158168
0.165779
0.173922
0.182635
0.19196
0.201939
0.212615
0.224028
0.236216
0.249213
0.26306
0.277853
0.293995
0.311863
0.331188
0.351529
0.372596
0.393973
0.415105
0.435322
0.453911
0.470233
0.483841
0.494573
0.502569
0.508216
0.512027
0.514537
0.516206
0.517387
0.518313
0.519124
0.519887
0.520631
0.0269722
0.0275291
0.0281002
0.0286861
0.0292874
0.0299047
0.0305387
0.03119
0.0318595
0.0325478
0.0332558
0.0339843
0.0347343
0.0355067
0.0363026
0.0371248
0.0379788
0.0388688
0.0397937
0.0407512
0.0417408
0.042763
0.0438192
0.0449109
0.0460402
0.0472093
0.0484204
0.0496762
0.0509794
0.0523327
0.0537392
0.0552022
0.0567251
0.0583115
0.0599655
0.0616911
0.063493
0.065376
0.0673454
0.0694069
0.0715665
0.073831
0.0762075
0.0787037
0.0813281
0.0840899
0.0869989
0.090066
0.093303
0.0967225
0.100339
0.104166
0.108222
0.112524
0.117092
0.121947
0.127112
0.132612
0.138474
0.144728
0.151406
0.15854
0.166168
0.174326
0.183056
0.192398
0.202395
0.213088
0.224518
0.236721
0.249734
0.263596
0.278415
0.294592
0.312484
0.331816
0.352155
0.373207
0.394556
0.415643
0.435799
0.454317
0.470562
0.484095
0.49476
0.502703
0.50831
0.512096
0.514589
0.516249
0.517425
0.518349
0.519157
0.519919
0.520661
0.0270415
0.0275998
0.0281723
0.0287596
0.0293624
0.0299812
0.0306167
0.0312697
0.0319408
0.0326308
0.0333406
0.034071
0.0348229
0.0355973
0.0363953
0.0372201
0.0380776
0.038971
0.0398987
0.0408588
0.041851
0.0428759
0.0439348
0.0450293
0.0461616
0.0473337
0.0485482
0.0498074
0.0511142
0.0524713
0.0538818