/*--------------------------------*- C++ -*----------------------------------*\
  =========                 |
  \\      /  F ield         | OpenFOAM: The Open Source CFD Toolbox
   \\    /   O peration     | Website:  https://openfoam.org
    \\  /    A nd           | Version:  7
     \\/     M anipulation  |
\*---------------------------------------------------------------------------*/
FoamFile
{
    version     2.0;
    format      ascii;
    class       volScalarField;
    location    "24000";
    object      nut;
}
// * * * * * * * * * * * * * * * * * * * * * * * * * * * * * * * * * * * * * //

dimensions      [0 2 -1 0 0 0 0];

internalField   nonuniform List<scalar> 
4814
(
5.07411e-06
5.10012e-06
5.12372e-06
5.14484e-06
4.3245e-06
4.3748e-06
4.42305e-06
4.47003e-06
4.5157e-06
4.55998e-06
4.60275e-06
4.64395e-06
4.68348e-06
4.72119e-06
4.75703e-06
4.7909e-06
4.82277e-06
4.85252e-06
4.88008e-06
4.90539e-06
4.92837e-06
4.94892e-06
4.967e-06
4.98259e-06
4.99564e-06
5.00614e-06
5.01403e-06
5.01928e-06
5.02191e-06
5.02189e-06
5.01922e-06
5.01392e-06
5.00604e-06
4.99553e-06
4.98248e-06
4.96691e-06
4.94885e-06
4.92838e-06
4.14863e-06
4.19744e-06
4.2443e-06
4.28993e-06
4.33429e-06
4.3773e-06
4.41887e-06
4.45891e-06
4.49733e-06
4.53399e-06
4.56884e-06
4.60177e-06
4.63276e-06
4.66168e-06
4.68848e-06
4.7131e-06
4.73544e-06
4.75544e-06
4.77303e-06
4.78819e-06
4.80088e-06
4.8111e-06
4.81878e-06
4.82389e-06
4.82644e-06
4.82642e-06
4.82383e-06
4.81868e-06
4.811e-06
4.80078e-06
4.78808e-06
4.77293e-06
4.75537e-06
4.73546e-06
4.71323e-06
4.6887e-06
4.66193e-06
4.63296e-06
4.60191e-06
4.56889e-06
4.534e-06
3.97526e-06
4.02259e-06
4.06805e-06
4.11232e-06
4.15537e-06
4.19713e-06
4.23748e-06
4.27636e-06
4.31368e-06
4.34928e-06
4.38313e-06
4.41512e-06
4.44523e-06
4.47333e-06
4.49937e-06
4.5233e-06
4.545e-06
4.56444e-06
4.58153e-06
4.59627e-06
4.6086e-06
4.61854e-06
4.62601e-06
4.63097e-06
4.63345e-06
4.63343e-06
4.63092e-06
4.6259e-06
4.61844e-06
4.60851e-06
4.59615e-06
4.58144e-06
4.56437e-06
4.54502e-06
4.52342e-06
4.49958e-06
4.47357e-06
4.44542e-06
4.41526e-06
4.38318e-06
4.34929e-06
4.31365e-06
4.27637e-06
4.2376e-06
3.80444e-06
3.85028e-06
3.89435e-06
3.93726e-06
3.979e-06
4.01949e-06
4.05864e-06
4.09636e-06
4.13257e-06
4.16711e-06
4.19995e-06
4.23101e-06
4.26024e-06
4.28751e-06
4.31279e-06
4.33602e-06
4.35709e-06
4.37596e-06
4.39256e-06
4.40688e-06
4.41885e-06
4.4285e-06
4.43576e-06
4.44057e-06
4.44298e-06
4.44297e-06
4.44052e-06
4.43565e-06
4.42841e-06
4.41876e-06
4.40676e-06
4.39247e-06
4.37589e-06
4.35711e-06
4.33613e-06
4.31299e-06
4.28774e-06
4.26041e-06
4.23114e-06
4.20001e-06
4.16712e-06
4.13254e-06
4.09637e-06
4.05876e-06
3.63622e-06
3.68058e-06
3.72324e-06
3.76481e-06
3.80523e-06
3.84446e-06
3.88239e-06
3.91895e-06
3.95405e-06
3.98754e-06
4.01938e-06
4.04949e-06
4.07783e-06
4.10428e-06
4.12879e-06
4.15132e-06
4.17176e-06
4.19007e-06
4.20618e-06
4.22007e-06
4.23168e-06
4.24104e-06
4.24808e-06
4.25275e-06
4.25509e-06
4.25508e-06
4.25271e-06
4.24799e-06
4.24095e-06
4.23159e-06
4.21995e-06
4.20608e-06
4.19e-06
4.17178e-06
4.15144e-06
4.12899e-06
4.1045e-06
4.078e-06
4.04961e-06
4.01943e-06
3.98754e-06
3.95402e-06
3.91896e-06
3.88252e-06
3.47066e-06
3.51354e-06
3.55481e-06
3.59502e-06
3.63412e-06
3.67209e-06
3.70881e-06
3.7442e-06
3.77819e-06
3.81062e-06
3.84145e-06
3.87062e-06
3.89808e-06
3.9237e-06
3.94745e-06
3.96928e-06
3.98908e-06
4.00682e-06
4.02243e-06
4.0359e-06
4.04715e-06
4.05623e-06
4.06305e-06
4.06758e-06
4.06984e-06
4.06983e-06
4.06754e-06
4.06296e-06
4.05614e-06
4.04706e-06
4.03578e-06
4.02234e-06
4.00676e-06
3.9891e-06
3.96938e-06
3.94763e-06
3.92391e-06
3.89823e-06
3.87073e-06
3.8415e-06
3.81062e-06
3.77816e-06
3.74421e-06
3.70894e-06
3.30783e-06
3.34923e-06
3.3891e-06
3.42795e-06
3.46574e-06
3.50245e-06
3.53794e-06
3.57218e-06
3.60505e-06
3.63642e-06
3.66625e-06
3.69446e-06
3.72104e-06
3.74582e-06
3.76881e-06
3.78994e-06
3.80911e-06
3.82628e-06
3.84139e-06
3.85443e-06
3.86533e-06
3.87411e-06
3.88072e-06
3.8851e-06
3.88729e-06
3.88728e-06
3.88506e-06
3.88063e-06
3.87403e-06
3.86524e-06
3.85432e-06
3.8413e-06
3.82622e-06
3.80912e-06
3.79004e-06
3.76899e-06
3.74603e-06
3.72118e-06
3.69457e-06
3.66629e-06
3.63642e-06
3.60502e-06
3.57218e-06
3.53808e-06
3.50271e-06
3.14779e-06
3.18772e-06
3.22618e-06
3.26367e-06
3.30016e-06
3.33559e-06
3.36987e-06
3.40294e-06
3.4347e-06
3.465e-06
3.49382e-06
3.52109e-06
3.54678e-06
3.57073e-06
3.59295e-06
3.61338e-06
3.63191e-06
3.64851e-06
3.66313e-06
3.67573e-06
3.68627e-06
3.69477e-06
3.70116e-06
3.70539e-06
3.70752e-06
3.70751e-06
3.70536e-06
3.70107e-06
3.69468e-06
3.68619e-06
3.67562e-06
3.66304e-06
3.64845e-06
3.63192e-06
3.61347e-06
3.59312e-06
3.57092e-06
3.54691e-06
3.52119e-06
3.49386e-06
3.465e-06
3.43466e-06
3.40294e-06
3.37e-06
3.33586e-06
2.99062e-06
3.02906e-06
3.06612e-06
3.10226e-06
3.13743e-06
3.1716e-06
3.20466e-06
3.23656e-06
3.2672e-06
3.29644e-06
3.32426e-06
3.35058e-06
3.37537e-06
3.39849e-06
3.41994e-06
3.43966e-06
3.45756e-06
3.47359e-06
3.48771e-06
3.49988e-06
3.51006e-06
3.51827e-06
3.52444e-06
3.52853e-06
3.53058e-06
3.53057e-06
3.5285e-06
3.52435e-06
3.51818e-06
3.50998e-06
3.49978e-06
3.48762e-06
3.47353e-06
3.45757e-06
3.43975e-06
3.4201e-06
3.39867e-06
3.37549e-06
3.35066e-06
3.32429e-06
3.29644e-06
3.26716e-06
3.23656e-06
3.20479e-06
3.17187e-06
2.83637e-06
2.87334e-06
2.909e-06
2.94378e-06
2.97764e-06
3.01054e-06
3.04238e-06
3.07311e-06
3.10263e-06
3.13081e-06
3.15762e-06
3.18299e-06
3.20689e-06
3.22918e-06
3.24985e-06
3.26888e-06
3.28613e-06
3.30159e-06
3.31521e-06
3.32695e-06
3.33677e-06
3.34468e-06
3.35064e-06
3.35458e-06
3.35656e-06
3.35655e-06
3.35456e-06
3.35056e-06
3.3446e-06
3.33669e-06
3.32685e-06
3.31512e-06
3.30153e-06
3.28614e-06
3.26896e-06
3.25e-06
3.22934e-06
3.207e-06
3.18307e-06
3.15765e-06
3.13081e-06
3.1026e-06
3.07312e-06
3.04251e-06
3.01081e-06
2.68513e-06
2.72063e-06
2.75489e-06
2.78832e-06
2.82086e-06
2.85249e-06
2.88312e-06
2.91268e-06
2.94108e-06
2.9682e-06
2.994e-06
3.01841e-06
3.04142e-06
3.06287e-06
3.08278e-06
3.10109e-06
3.11771e-06
3.1326e-06
3.14571e-06
3.15702e-06
3.16648e-06
3.1741e-06
3.17983e-06
3.18364e-06
3.18554e-06
3.18553e-06
3.18361e-06
3.17976e-06
3.17402e-06
3.16641e-06
3.15692e-06
3.14563e-06
3.13254e-06
3.11772e-06
3.10117e-06
3.08291e-06
3.06303e-06
3.04151e-06
3.01848e-06
2.99403e-06
2.9682e-06
2.94105e-06
2.91268e-06
2.88324e-06
2.53699e-06
2.57102e-06
2.60388e-06
2.63595e-06
2.66719e-06
2.69755e-06
2.72695e-06
2.75535e-06
2.78263e-06
2.80868e-06
2.83347e-06
2.85693e-06
2.87904e-06
2.89966e-06
2.91879e-06
2.9364e-06
2.95237e-06
2.96669e-06
2.9793e-06
2.99018e-06
2.99927e-06
3.00661e-06
3.01212e-06
3.01578e-06
3.01761e-06
3.0176e-06
3.01575e-06
3.01205e-06
3.00653e-06
2.99921e-06
2.99009e-06
2.97922e-06
2.96664e-06
2.95238e-06
2.93647e-06
2.91892e-06
2.8998e-06
2.87913e-06
2.85699e-06
2.8335e-06
2.80868e-06
2.78259e-06
2.75535e-06
2.72708e-06
2.392e-06
2.42458e-06
2.45604e-06
2.48676e-06
2.51669e-06
2.54579e-06
2.57397e-06
2.6012e-06
2.62736e-06
2.65234e-06
2.67612e-06
2.69863e-06
2.71984e-06
2.73963e-06
2.75799e-06
2.77489e-06
2.79022e-06
2.80397e-06
2.81608e-06
2.82652e-06
2.83525e-06
2.84229e-06
2.84758e-06
2.85109e-06
2.85285e-06
2.85285e-06
2.85108e-06
2.84751e-06
2.84221e-06
2.83519e-06
2.82643e-06
2.816e-06
2.80391e-06
2.79023e-06
2.77495e-06
2.75811e-06
2.73976e-06
2.71992e-06
2.69868e-06
2.67615e-06
2.65235e-06
2.62732e-06
2.6012e-06
2.57409e-06
2.25023e-06
2.28137e-06
2.31145e-06
2.34083e-06
2.36945e-06
2.39729e-06
2.42427e-06
2.45033e-06
2.47537e-06
2.49929e-06
2.52206e-06
2.54361e-06
2.56393e-06
2.58288e-06
2.60047e-06
2.61666e-06
2.63135e-06
2.64452e-06
2.65613e-06
2.66613e-06
2.67451e-06
2.68125e-06
2.68632e-06
2.68969e-06
2.69138e-06
2.69138e-06
2.68968e-06
2.68626e-06
2.68118e-06
2.67445e-06
2.66605e-06
2.65606e-06
2.64447e-06
2.63136e-06
2.61672e-06
2.60058e-06
2.583e-06
2.564e-06
2.54366e-06
2.52208e-06
2.49929e-06
2.47533e-06
2.45032e-06
2.42438e-06
2.11173e-06
2.14141e-06
2.17012e-06
2.19818e-06
2.22552e-06
2.25212e-06
2.2779e-06
2.3028e-06
2.32673e-06
2.34959e-06
2.37135e-06
2.39196e-06
2.41138e-06
2.42951e-06
2.44632e-06
2.46181e-06
2.47586e-06
2.48845e-06
2.49955e-06
2.50913e-06
2.51714e-06
2.52359e-06
2.52844e-06
2.53166e-06
2.53328e-06
2.53328e-06
2.53165e-06
2.52838e-06
2.52352e-06
2.51708e-06
2.50905e-06
2.49949e-06
2.4884e-06
2.47586e-06
2.46185e-06
2.44642e-06
2.42962e-06
2.41145e-06
2.392e-06
2.37137e-06
2.34959e-06
2.32669e-06
2.30279e-06
2.27801e-06
1.97667e-06
2.00491e-06
2.03223e-06
2.05894e-06
2.08499e-06
2.11033e-06
2.1349e-06
2.15865e-06
2.18148e-06
2.20329e-06
2.22407e-06
2.24374e-06
2.26228e-06
2.27959e-06
2.29563e-06
2.31041e-06
2.32383e-06
2.33585e-06
2.34645e-06
2.35559e-06
2.36324e-06
2.3694e-06
2.37403e-06
2.37711e-06
2.37865e-06
2.37865e-06
2.3771e-06
2.37397e-06
2.36933e-06
2.36319e-06
2.35551e-06
2.34639e-06
2.3358e-06
2.32383e-06
2.31045e-06
2.29572e-06
2.27969e-06
2.26234e-06
2.24377e-06
2.22409e-06
2.2033e-06
2.18144e-06
2.15864e-06
2.13501e-06
1.84516e-06
1.87196e-06
1.89791e-06
1.92328e-06
1.94803e-06
1.97211e-06
1.99547e-06
2.01806e-06
2.03978e-06
2.06053e-06
2.0803e-06
2.09902e-06
2.11667e-06
2.13315e-06
2.14843e-06
2.16252e-06
2.1753e-06
2.18676e-06
2.19686e-06
2.20558e-06
2.21287e-06
2.21875e-06
2.22316e-06
2.2261e-06
2.22757e-06
2.22757e-06
2.22609e-06
2.22311e-06
2.21868e-06
2.21283e-06
2.20551e-06
2.19681e-06
2.18671e-06
2.1753e-06
2.16255e-06
2.14852e-06
2.13324e-06
2.11672e-06
2.09905e-06
2.08032e-06
2.06054e-06
2.03974e-06
2.01805e-06
1.99557e-06
1.7173e-06
1.74267e-06
1.76725e-06
1.7913e-06
1.81476e-06
1.83759e-06
1.85974e-06
1.88117e-06
1.90177e-06
1.92147e-06
1.94023e-06
1.95801e-06
1.97476e-06
1.99041e-06
2.00492e-06
2.0183e-06
2.03045e-06
2.04133e-06
2.05094e-06
2.05922e-06
2.06615e-06
2.07174e-06
2.07593e-06
2.07872e-06
2.08012e-06
2.08012e-06
2.07872e-06
2.07588e-06
2.07167e-06
2.06611e-06
2.05916e-06
2.05089e-06
2.0413e-06
2.03045e-06
2.01834e-06
2.005e-06
1.99049e-06
1.97481e-06
1.95803e-06
1.94025e-06
1.92148e-06
1.90174e-06
1.88116e-06
1.85983e-06
1.59319e-06
1.61714e-06
1.64037e-06
1.66309e-06
1.68527e-06
1.70686e-06
1.72782e-06
1.74809e-06
1.76759e-06
1.78623e-06
1.804e-06
1.82082e-06
1.83669e-06
1.85151e-06
1.86526e-06
1.87793e-06
1.88944e-06
1.89976e-06
1.90886e-06
1.91671e-06
1.92328e-06
1.92857e-06
1.93255e-06
1.93519e-06
1.93652e-06
1.93652e-06
1.93519e-06
1.9325e-06
1.92851e-06
1.92324e-06
1.91665e-06
1.90881e-06
1.89972e-06
1.88944e-06
1.87796e-06
1.86533e-06
1.85158e-06
1.83673e-06
1.82085e-06
1.80401e-06
1.78624e-06
1.76756e-06
1.74808e-06
1.7279e-06
1.47293e-06
1.49548e-06
1.51735e-06
1.53877e-06
1.55968e-06
1.58004e-06
1.59981e-06
1.61894e-06
1.63734e-06
1.65493e-06
1.6717e-06
1.68759e-06
1.70257e-06
1.71657e-06
1.72956e-06
1.74153e-06
1.75241e-06
1.76215e-06
1.77076e-06
1.77818e-06
1.78439e-06
1.78939e-06
1.79314e-06
1.79565e-06
1.79691e-06
1.79691e-06
1.79565e-06
1.7931e-06
1.78933e-06
1.78435e-06
1.77812e-06
1.77071e-06
1.76212e-06
1.75241e-06
1.74156e-06
1.72962e-06
1.71664e-06
1.70261e-06
1.68761e-06
1.67172e-06
1.65494e-06
1.63731e-06
1.61892e-06
1.59988e-06
1.35663e-06
1.37779e-06
1.39833e-06
1.41845e-06
1.4381e-06
1.45723e-06
1.47583e-06
1.49382e-06
1.51113e-06
1.52769e-06
1.54347e-06
1.55843e-06
1.57253e-06
1.58571e-06
1.59794e-06
1.60922e-06
1.61947e-06
1.62865e-06
1.63675e-06
1.64375e-06
1.6496e-06
1.65432e-06
1.65785e-06
1.66021e-06
1.6614e-06
1.6614e-06
1.66021e-06
1.65782e-06
1.65426e-06
1.64957e-06
1.6437e-06
1.63672e-06
1.62862e-06
1.61947e-06
1.60924e-06
1.598e-06
1.58577e-06
1.57257e-06
1.55844e-06
1.54349e-06
1.5277e-06
1.5111e-06
1.4938e-06
1.4759e-06
1.45745e-06
1.24439e-06
1.26419e-06
1.28341e-06
1.30224e-06
1.32065e-06
1.33857e-06
1.356e-06
1.37287e-06
1.3891e-06
1.40463e-06
1.41943e-06
1.43346e-06
1.44669e-06
1.45907e-06
1.47055e-06
1.48113e-06
1.49075e-06
1.49938e-06
1.50699e-06
1.51356e-06
1.51905e-06
1.52349e-06
1.52681e-06
1.52902e-06
1.53014e-06
1.53014e-06
1.52902e-06
1.52677e-06
1.52343e-06
1.51903e-06
1.51351e-06
1.50696e-06
1.49935e-06
1.49075e-06
1.48115e-06
1.4706e-06
1.45912e-06
1.44673e-06
1.43347e-06
1.41944e-06
1.40463e-06
1.38907e-06
1.37285e-06
1.35606e-06
1.33878e-06
1.13635e-06
1.15479e-06
1.17271e-06
1.19028e-06
1.20745e-06
1.22418e-06
1.24045e-06
1.2562e-06
1.27137e-06
1.28588e-06
1.29971e-06
1.31282e-06
1.3252e-06
1.33677e-06
1.3475e-06
1.35741e-06
1.36641e-06
1.37447e-06
1.3816e-06
1.38775e-06
1.39289e-06
1.39704e-06
1.40014e-06
1.40222e-06
1.40327e-06
1.40327e-06
1.40222e-06
1.40012e-06
1.39699e-06
1.39287e-06
1.3877e-06
1.38157e-06
1.37445e-06
1.3664e-06
1.35742e-06
1.34755e-06
1.33682e-06
1.32523e-06
1.31284e-06
1.29972e-06
1.28589e-06
1.27134e-06
1.25619e-06
1.24051e-06
1.22437e-06
1.0326e-06
1.04972e-06
1.06636e-06
1.08267e-06
1.09863e-06
1.11418e-06
1.12931e-06
1.14396e-06
1.15807e-06
1.17157e-06
1.18445e-06
1.19666e-06
1.20818e-06
1.21896e-06
1.22896e-06
1.23818e-06
1.24657e-06
1.25409e-06
1.26073e-06
1.26646e-06
1.27125e-06
1.27512e-06
1.27802e-06
1.27996e-06
1.28093e-06
1.28093e-06
1.27996e-06
1.27799e-06
1.27508e-06
1.27123e-06
1.26642e-06
1.2607e-06
1.25407e-06
1.24657e-06
1.2382e-06
1.229e-06
1.219e-06
1.20821e-06
1.19667e-06
1.18446e-06
1.17158e-06
1.15805e-06
1.14395e-06
1.12936e-06
1.11436e-06
9.33219e-07
9.49054e-07
9.64439e-07
9.79527e-07
9.94293e-07
1.00869e-06
1.0227e-06
1.03627e-06
1.04934e-06
1.06186e-06
1.07379e-06
1.0851e-06
1.09578e-06
1.10577e-06
1.11505e-06
1.12361e-06
1.13139e-06
1.13837e-06
1.14453e-06
1.14985e-06
1.1543e-06
1.15789e-06
1.16058e-06
1.16238e-06
1.16328e-06
1.16328e-06
1.16238e-06
1.16056e-06
1.15785e-06
1.15428e-06
1.14981e-06
1.1445e-06
1.13835e-06
1.13139e-06
1.12362e-06
1.11509e-06
1.10582e-06
1.09581e-06
1.08511e-06
1.0738e-06
1.06186e-06
1.04932e-06
1.03625e-06
1.02275e-06
8.38061e-07
8.52773e-07
8.66944e-07
8.8085e-07
8.94464e-07
9.07744e-07
9.20674e-07
9.33202e-07
9.45275e-07
9.5683e-07
9.67838e-07
9.78272e-07
9.88129e-07
9.97351e-07
1.00591e-06
1.01382e-06
1.021e-06
1.02745e-06
1.03314e-06
1.03806e-06
1.04217e-06
1.04548e-06
1.04797e-06
1.04963e-06
1.05047e-06
1.05047e-06
1.04963e-06
1.04795e-06
1.04545e-06
1.04215e-06
1.03802e-06
1.03312e-06
1.02743e-06
1.021e-06
1.01383e-06
1.00595e-06
9.9739e-07
9.88149e-07
9.78283e-07
9.67846e-07
9.56837e-07
9.45253e-07
9.33186e-07
9.20714e-07
7.45595e-07
7.60044e-07
7.73152e-07
7.86025e-07
7.98638e-07
8.10948e-07
8.22942e-07
8.34567e-07
8.45777e-07
8.5648e-07
8.66592e-07
8.76178e-07
8.85239e-07
8.93718e-07
9.01591e-07
9.0886e-07
9.15471e-07
9.21402e-07
9.26641e-07
9.31166e-07
9.34951e-07
9.38006e-07
9.40292e-07
9.41824e-07
9.42596e-07
9.42593e-07
9.41825e-07
9.40276e-07
9.37972e-07
9.34937e-07
9.31137e-07
9.26622e-07
9.21387e-07
9.15469e-07
9.08869e-07
9.01626e-07
8.93753e-07
8.85257e-07
8.76189e-07
8.66599e-07
8.56487e-07
8.45756e-07
8.34551e-07
8.22976e-07
6.51185e-07
6.6453e-07
6.77523e-07
6.90289e-07
7.02799e-07
7.15001e-07
7.26897e-07
7.38419e-07
7.4953e-07
7.59963e-07
7.69287e-07
7.7813e-07
7.86492e-07
7.94321e-07
8.01592e-07
8.08309e-07
8.14418e-07
8.19901e-07
8.24745e-07
8.28931e-07
8.32431e-07
8.35258e-07
8.37372e-07
8.3879e-07
8.39505e-07
8.39501e-07
8.38792e-07
8.37359e-07
8.35226e-07
8.32419e-07
8.28904e-07
8.24728e-07
8.19888e-07
8.14417e-07
8.08317e-07
8.01624e-07
7.94353e-07
7.86508e-07
7.7814e-07
7.69293e-07
7.5997e-07
7.49508e-07
7.38398e-07
7.26922e-07
5.61699e-07
5.7378e-07
5.85563e-07
5.97152e-07
6.08516e-07
6.19611e-07
6.30435e-07
6.40924e-07
6.51046e-07
6.60737e-07
6.69955e-07
6.78694e-07
6.86963e-07
6.94703e-07
7.01886e-07
7.08525e-07
7.14561e-07
7.19979e-07
7.24764e-07
7.28902e-07
7.32355e-07
7.35149e-07
7.37233e-07
7.38637e-07
7.39345e-07
7.39337e-07
7.3864e-07
7.37227e-07
7.35116e-07
7.32348e-07
7.28875e-07
7.2475e-07
7.19968e-07
7.14559e-07
7.0853e-07
7.01917e-07
6.94734e-07
6.86977e-07
6.78705e-07
6.6996e-07
6.60745e-07
6.51028e-07
6.40905e-07
6.30456e-07
4.77635e-07
4.8844e-07
4.98999e-07
5.09394e-07
5.19598e-07
5.29569e-07
5.39305e-07
5.48747e-07
5.57865e-07
5.66603e-07
5.74925e-07
5.82819e-07
5.90292e-07
5.97292e-07
6.0379e-07
6.09799e-07
6.15264e-07
6.20173e-07
6.24508e-07
6.28256e-07
6.31387e-07
6.3392e-07
6.35811e-07
6.37083e-07
6.37724e-07
6.37718e-07
6.37085e-07
6.35804e-07
6.33891e-07
6.31381e-07
6.28233e-07
6.24494e-07
6.20162e-07
6.15262e-07
6.09804e-07
6.03817e-07
5.97319e-07
5.90303e-07
5.82828e-07
5.74929e-07
5.6661e-07
5.57849e-07
5.4873e-07
5.39322e-07
3.99521e-07
4.09046e-07
4.18371e-07
4.27563e-07
4.36597e-07
4.45434e-07
4.54071e-07
4.62454e-07
4.70558e-07
4.78332e-07
4.85745e-07
4.92782e-07
4.99448e-07
5.05696e-07
5.11501e-07
5.16869e-07
5.21754e-07
5.26145e-07
5.30023e-07
5.33377e-07
5.3618e-07
5.38448e-07
5.40141e-07
5.41281e-07
5.41855e-07
5.41849e-07
5.41282e-07
5.40135e-07
5.38423e-07
5.36174e-07
5.33357e-07
5.30009e-07
5.26135e-07
5.21753e-07
5.16873e-07
5.11523e-07
5.05719e-07
4.99458e-07
4.9279e-07
4.85748e-07
4.78337e-07
4.70545e-07
4.6244e-07
4.54085e-07
3.27896e-07
3.36147e-07
3.44241e-07
3.5223e-07
3.60093e-07
3.67794e-07
3.75328e-07
3.8265e-07
3.89735e-07
3.96541e-07
4.03038e-07
4.09212e-07
4.15063e-07
4.20552e-07
4.25657e-07
4.30378e-07
4.34679e-07
4.38545e-07
4.41962e-07
4.44917e-07
4.4739e-07
4.49389e-07
4.50883e-07
4.51888e-07
4.52395e-07
4.5239e-07
4.51889e-07
4.50877e-07
4.49369e-07
4.47384e-07
4.449e-07
4.4195e-07
4.38537e-07
4.34678e-07
4.30383e-07
4.25675e-07
4.20572e-07
4.15071e-07
4.09218e-07
4.0304e-07
3.96545e-07
3.89725e-07
3.82638e-07
3.75339e-07
2.63285e-07
2.70282e-07
2.77161e-07
2.83962e-07
2.90665e-07
2.97241e-07
3.03681e-07
3.09949e-07
3.16022e-07
3.21863e-07
3.27446e-07
3.32758e-07
3.37796e-07
3.42526e-07
3.4693e-07
3.51005e-07
3.54719e-07
3.58061e-07
3.61015e-07
3.63571e-07
3.65712e-07
3.67442e-07
3.68736e-07
3.69606e-07
3.70045e-07
3.70041e-07
3.69606e-07
3.68731e-07
3.67425e-07
3.65707e-07
3.63557e-07
3.61005e-07
3.58054e-07
3.54719e-07
3.51009e-07
3.46944e-07
3.42543e-07
3.37803e-07
3.32762e-07
3.27447e-07
3.21866e-07
3.16013e-07
3.0994e-07
3.03691e-07
2.97304e-07
2.06149e-07
2.11934e-07
2.17634e-07
2.23279e-07
2.28853e-07
2.3433e-07
2.39703e-07
2.44939e-07
2.5002e-07
2.54913e-07
2.59597e-07
2.6406e-07
2.68297e-07
2.72278e-07
2.75989e-07
2.79426e-07
2.8256e-07
2.85382e-07
2.87878e-07
2.9004e-07
2.9185e-07
2.93314e-07
2.94411e-07
2.95146e-07
2.95518e-07
2.95515e-07
2.95146e-07
2.94405e-07
2.93301e-07
2.91846e-07
2.90028e-07
2.8787e-07
2.85376e-07
2.8256e-07
2.79428e-07
2.76001e-07
2.72292e-07
2.68302e-07
2.64063e-07
2.59598e-07
2.54915e-07
2.50012e-07
2.44932e-07
2.3971e-07
2.34378e-07
1.56821e-07
1.61461e-07
1.66043e-07
1.7059e-07
1.75089e-07
1.79517e-07
1.83868e-07
1.88115e-07
1.92243e-07
1.96225e-07
2.00043e-07
2.03685e-07
2.07147e-07
2.10404e-07
2.13443e-07
2.1626e-07
2.18832e-07
2.21148e-07
2.23199e-07
2.24976e-07
2.26466e-07
2.2767e-07
2.28573e-07
2.29179e-07
2.29485e-07
2.29482e-07
2.29179e-07
2.28569e-07
2.2766e-07
2.26462e-07
2.24967e-07
2.23193e-07
2.21144e-07
2.18832e-07
2.16262e-07
2.13452e-07
2.10415e-07
2.07151e-07
2.03688e-07
2.00043e-07
1.96226e-07
1.92237e-07
1.8811e-07
1.83873e-07
1.79553e-07
1.15434e-07
1.19025e-07
1.22579e-07
1.26114e-07
1.29617e-07
1.33073e-07
1.36474e-07
1.39801e-07
1.43039e-07
1.46168e-07
1.49173e-07
1.52044e-07
1.54776e-07
1.57351e-07
1.59755e-07
1.61986e-07
1.64025e-07
1.65863e-07
1.67491e-07
1.68904e-07
1.70088e-07
1.71046e-07
1.71765e-07
1.72247e-07
1.7249e-07
1.72489e-07
1.72247e-07
1.71762e-07
1.71038e-07
1.70085e-07
1.68897e-07
1.67487e-07
1.6586e-07
1.64025e-07
1.61988e-07
1.59762e-07
1.57359e-07
1.5478e-07
1.52046e-07
1.49173e-07
1.46169e-07
1.43034e-07
1.39796e-07
1.36478e-07
1.33099e-07
1.29626e-07
8.18541e-08
8.452e-08
8.71649e-08
8.98003e-08
9.24176e-08
9.50048e-08
9.75553e-08
1.00055e-07
1.02492e-07
1.04851e-07
1.0712e-07
1.09292e-07
1.11362e-07
1.13314e-07
1.1514e-07
1.16836e-07
1.18387e-07
1.19787e-07
1.21029e-07
1.22106e-07
1.2301e-07
1.23742e-07
1.24291e-07
1.24659e-07
1.24845e-07
1.24844e-07
1.24659e-07
1.24288e-07
1.23736e-07
1.23008e-07
1.22101e-07
1.21025e-07
1.19785e-07
1.18387e-07
1.16837e-07
1.15145e-07
1.1332e-07
1.11364e-07
1.09293e-07
1.07121e-07
1.04851e-07
1.02488e-07
1.00051e-07
9.75583e-08
9.50232e-08
9.24237e-08
5.56419e-08
5.75286e-08
5.94045e-08
6.12773e-08
6.3141e-08
6.49867e-08
6.68095e-08
6.8599e-08
7.03469e-08
7.20417e-08
7.36747e-08
7.52401e-08
7.67335e-08
7.81446e-08
7.9466e-08
8.06942e-08
8.1819e-08
8.28351e-08
8.37368e-08
8.45197e-08
8.51775e-08
8.57097e-08
8.61096e-08
8.63781e-08
8.65134e-08
8.65125e-08
8.63778e-08
8.61079e-08
8.57057e-08
8.51758e-08
8.45162e-08
8.37344e-08
8.28334e-08
8.1819e-08
8.06952e-08
7.94696e-08
7.81486e-08
7.67353e-08
7.52411e-08
7.36749e-08
7.2042e-08
7.03445e-08
6.85967e-08
6.68116e-08
6.49992e-08
6.3145e-08
6.12791e-08
3.60592e-08
3.73239e-08
3.85837e-08
3.98437e-08
4.10998e-08
4.2346e-08
4.35788e-08
4.47911e-08
4.5977e-08
4.71288e-08
4.82403e-08
4.93072e-08
5.03265e-08
5.12907e-08
5.21948e-08
5.30359e-08
5.3807e-08
5.45041e-08
5.51233e-08
5.56613e-08
5.61136e-08
5.64796e-08
5.67549e-08
5.69397e-08
5.70328e-08
5.70322e-08
5.69395e-08
5.67537e-08
5.6477e-08
5.61124e-08
5.56589e-08
5.51217e-08
5.4503e-08
5.38069e-08
5.30366e-08
5.21972e-08
5.12934e-08
5.03277e-08
4.93079e-08
4.82404e-08
4.7129e-08
4.59754e-08
4.47896e-08
4.35802e-08
4.23542e-08
4.11024e-08
3.98447e-08
2.21336e-08
2.29307e-08
2.3726e-08
2.45227e-08
2.53181e-08
2.61085e-08
2.68914e-08
2.76625e-08
2.84179e-08
2.91525e-08
2.98624e-08
3.05446e-08
3.11972e-08
3.18151e-08
3.23952e-08
3.29353e-08
3.34309e-08
3.38793e-08
3.42779e-08
3.46244e-08
3.49159e-08
3.51519e-08
3.53294e-08
3.54486e-08
3.55087e-08
3.55083e-08
3.54485e-08
3.53287e-08
3.51502e-08
3.49151e-08
3.46229e-08
3.42769e-08
3.38786e-08
3.34309e-08
3.29357e-08
3.23967e-08
3.18168e-08
3.11979e-08
3.05451e-08
2.98625e-08
2.91526e-08
2.84169e-08
2.76616e-08
2.68923e-08
2.61135e-08
2.53197e-08
2.45232e-08
1.27634e-08
1.32319e-08
1.36998e-08
1.41692e-08
1.46384e-08
1.51051e-08
1.55681e-08
1.60245e-08
1.64721e-08
1.69079e-08
1.73295e-08
1.77351e-08
1.81234e-08
1.84915e-08
1.88373e-08
1.91595e-08
1.94553e-08
1.97232e-08
1.99615e-08
2.01687e-08
2.03431e-08
2.04843e-08
2.05906e-08
2.0662e-08
2.0698e-08
2.06978e-08
2.06619e-08
2.05902e-08
2.04833e-08
2.03426e-08
2.01678e-08
1.99609e-08
1.97228e-08
1.94553e-08
1.91597e-08
1.88381e-08
1.84925e-08
1.81239e-08
1.77354e-08
1.73296e-08
1.6908e-08
1.64715e-08
1.60239e-08
1.55686e-08
1.51081e-08
1.46393e-08
1.41695e-08
6.84004e-09
7.09399e-09
7.34787e-09
7.60272e-09
7.85769e-09
8.11156e-09
8.36357e-09
8.61224e-09
8.85632e-09
9.09415e-09
9.32438e-09
9.54607e-09
9.75843e-09
9.95986e-09
1.01492e-08
1.03258e-08
1.0488e-08
1.06349e-08
1.07656e-08
1.08794e-08
1.09752e-08
1.10527e-08
1.11111e-08
1.11504e-08
1.11701e-08
1.117e-08
1.11503e-08
1.11109e-08
1.10522e-08
1.09749e-08
1.08789e-08
1.07653e-08
1.06347e-08
1.0488e-08
1.03259e-08
1.01497e-08
9.9604e-09
9.75867e-09
9.5462e-09
9.32441e-09
9.09417e-09
8.856e-09
8.61194e-09
8.36384e-09
8.11314e-09
7.85817e-09
7.60286e-09
3.35537e-09
3.48045e-09
3.60552e-09
3.73114e-09
3.85688e-09
3.98215e-09
4.10655e-09
4.22937e-09
4.34998e-09
4.46756e-09
4.58144e-09
4.69114e-09
4.79627e-09
4.89603e-09
4.98985e-09
5.07735e-09
5.15778e-09
5.23066e-09
5.29551e-09
5.35195e-09
5.39949e-09
5.438e-09
5.467e-09
5.48648e-09
5.49629e-09
5.49623e-09
5.48645e-09
5.46688e-09
5.43774e-09
5.39937e-09
5.35172e-09
5.29535e-09
5.23054e-09
5.15778e-09
5.07743e-09
4.99009e-09
4.8963e-09
4.79639e-09
4.69121e-09
4.58145e-09
4.46757e-09
4.34982e-09
4.22922e-09
4.10669e-09
3.98292e-09
3.85712e-09
3.73121e-09
3.60554e-09
1.47339e-09
1.52811e-09
1.58283e-09
1.63779e-09
1.69282e-09
1.74764e-09
1.80209e-09
1.85587e-09
1.90868e-09
1.96017e-09
2.01005e-09
2.05811e-09
2.10417e-09
2.14789e-09
2.18902e-09
2.22737e-09
2.26264e-09
2.29459e-09
2.32303e-09
2.34779e-09
2.36864e-09
2.38553e-09
2.39825e-09
2.4068e-09
2.4111e-09
2.41108e-09
2.40679e-09
2.3982e-09
2.38541e-09
2.36858e-09
2.34768e-09
2.32296e-09
2.29454e-09
2.26263e-09
2.22741e-09
2.18912e-09
2.14801e-09
2.10423e-09
2.05814e-09
2.01006e-09
1.96018e-09
1.90861e-09
1.8558e-09
1.80215e-09
1.74798e-09
1.69292e-09
1.63782e-09
1.58284e-09
5.59533e-10
5.80063e-10
6.00581e-10
6.21185e-10
6.41807e-10
6.6235e-10
6.82752e-10
7.02894e-10
7.22674e-10
7.41957e-10
7.60632e-10
7.78624e-10
7.95867e-10
8.12231e-10
8.27622e-10
8.41978e-10
8.55173e-10
8.67131e-10
8.77774e-10
8.87036e-10
8.94838e-10
9.01159e-10
9.05918e-10
9.09115e-10
9.10725e-10
9.10716e-10
9.09111e-10
9.05897e-10
9.01114e-10
8.94817e-10
8.86997e-10
8.77747e-10
8.67112e-10
8.55173e-10
8.4199e-10
8.27662e-10
8.12276e-10
7.95888e-10
7.78635e-10
7.60635e-10
7.41959e-10
7.22648e-10
7.02869e-10
6.82775e-10
6.62479e-10
6.41847e-10
6.21196e-10
6.00583e-10
1.7371e-10
1.79938e-10
1.86155e-10
1.92394e-10
1.98635e-10
2.04848e-10
2.11014e-10
2.17099e-10
2.23072e-10
2.28891e-10
2.34524e-10
2.39948e-10
2.45145e-10
2.50075e-10
2.5471e-10
2.59032e-10
2.63004e-10
2.66603e-10
2.69805e-10
2.72591e-10
2.74937e-10
2.76838e-10
2.78269e-10
2.7923e-10
2.79714e-10
2.79711e-10
2.79229e-10
2.78262e-10
2.76824e-10
2.74931e-10
2.72579e-10
2.69796e-10
2.66597e-10
2.63004e-10
2.59036e-10
2.54723e-10
2.50089e-10
2.45152e-10
2.39952e-10
2.34525e-10
2.28892e-10
2.23064e-10
2.17092e-10
2.11021e-10
2.04888e-10
1.98647e-10
1.92398e-10
1.86156e-10
3.9937e-11
4.13113e-11
4.26808e-11
4.40532e-11
4.54244e-11
4.67879e-11
4.81397e-11
4.94723e-11
5.07788e-11
5.20505e-11
5.32804e-11
5.44635e-11
5.55962e-11
5.667e-11
5.76788e-11
5.8619e-11
5.94824e-11
6.02644e-11
6.09598e-11
6.15647e-11
6.20739e-11
6.24863e-11
6.27967e-11
6.30051e-11
6.31101e-11
6.31095e-11
6.30048e-11
6.27952e-11
6.24832e-11
6.20724e-11
6.15619e-11
6.09579e-11
6.0263e-11
5.94824e-11
5.86199e-11
5.76816e-11
5.66731e-11
5.55977e-11
5.44643e-11
5.32805e-11
5.20507e-11
5.0777e-11
4.94705e-11
4.81413e-11
4.6797e-11
4.54272e-11
4.40541e-11
4.26809e-11
5.61024e-12
5.78891e-12
5.96633e-12
6.14373e-12
6.32055e-12
6.49599e-12
6.66959e-12
6.84038e-12
7.00751e-12
7.16987e-12
7.32658e-12
7.4771e-12
7.621e-12
7.75721e-12
7.88501e-12
8.004e-12
8.11315e-12
8.21191e-12
8.29966e-12
8.37593e-12
8.44009e-12
8.49204e-12
8.5311e-12
8.55733e-12
8.57055e-12
8.57047e-12
8.5573e-12
8.53091e-12
8.49162e-12
8.43989e-12
8.37556e-12
8.2994e-12
8.21172e-12
8.11315e-12
8.00412e-12
7.88539e-12
7.75763e-12
7.62119e-12
7.47721e-12
7.32661e-12
7.16989e-12
7.00725e-12
6.84013e-12
6.66982e-12
6.49725e-12
6.32094e-12
6.14384e-12
5.96635e-12
3.13987e-13
3.22373e-13
3.30639e-13
3.38862e-13
3.47021e-13
3.5508e-13
3.63022e-13
3.70803e-13
3.78387e-13
3.85725e-13
3.9278e-13
3.99532e-13
4.05968e-13
4.12043e-13
4.17727e-13
4.23008e-13
4.27842e-13
4.32207e-13
4.36078e-13
4.39438e-13
4.42259e-13
4.44543e-13
4.46257e-13
4.47407e-13
4.47987e-13
4.47983e-13
4.47406e-13
4.46246e-13
4.44521e-13
4.42249e-13
4.39418e-13
4.36064e-13
4.32197e-13
4.27842e-13
4.23015e-13
4.17747e-13
4.12066e-13
4.05979e-13
3.99537e-13
3.92781e-13
3.85726e-13
3.78373e-13
3.70789e-13
3.63034e-13
3.55149e-13
3.47043e-13
3.38869e-13
3.3064e-13
2.37636e-15
2.41391e-15
2.45016e-15
2.48582e-15
2.52084e-15
2.55508e-15
2.58855e-15
2.62106e-15
2.65247e-15
2.68257e-15
2.71123e-15
2.73845e-15
2.76425e-15
2.78844e-15
2.81094e-15
2.83178e-15
2.85076e-15
2.86782e-15
2.88289e-15
2.89594e-15
2.90685e-15
2.91567e-15
2.92226e-15
2.92669e-15
2.92892e-15
2.92889e-15
2.92667e-15
2.92219e-15
2.91553e-15
2.90678e-15
2.89581e-15
2.8828e-15
2.86775e-15
2.85076e-15
2.83183e-15
2.81108e-15
2.7886e-15
2.76432e-15
2.73849e-15
2.71124e-15
2.68258e-15
2.65238e-15
2.62097e-15
2.58864e-15
2.55558e-15
2.521e-15
2.48587e-15
2.45017e-15
4.32451e-06
4.14864e-06
3.97527e-06
3.80445e-06
3.63623e-06
3.47068e-06
3.30785e-06
3.14781e-06
2.99063e-06
2.83638e-06
2.68515e-06
2.537e-06
2.39201e-06
2.25024e-06
2.11174e-06
1.97668e-06
1.84517e-06
1.71731e-06
1.5932e-06
1.47294e-06
1.35663e-06
1.2444e-06
1.13636e-06
1.03261e-06
9.33225e-07
8.38067e-07
7.45602e-07
6.5119e-07
5.61703e-07
4.77638e-07
3.99523e-07
3.27898e-07
2.63287e-07
2.0615e-07
1.56822e-07
1.15434e-07
8.18547e-08
5.56423e-08
3.60595e-08
2.21337e-08
1.27635e-08
6.84009e-09
3.3554e-09
1.47341e-09
5.59537e-10
1.73711e-10
3.99373e-11
5.61029e-12
3.1399e-13
2.37638e-15
4.37482e-06
4.19747e-06
4.02261e-06
3.85031e-06
3.68061e-06
3.51357e-06
3.34926e-06
3.18774e-06
3.02909e-06
2.87337e-06
2.72066e-06
2.57104e-06
2.4246e-06
2.28139e-06
2.14143e-06
2.00492e-06
1.87198e-06
1.74269e-06
1.61716e-06
1.49549e-06
1.3778e-06
1.2642e-06
1.1548e-06
1.04972e-06
9.49061e-07
8.5278e-07
7.6005e-07
6.64535e-07
5.73784e-07
4.88444e-07
4.09049e-07
3.36149e-07
2.70285e-07
2.11936e-07
1.61462e-07
1.19026e-07
8.45208e-08
5.75292e-08
3.73243e-08
2.29309e-08
1.3232e-08
7.09407e-09
3.48048e-09
1.52813e-09
5.80069e-10
1.7994e-10
4.13117e-11
5.78897e-12
3.22376e-13
2.41393e-15
4.42312e-06
4.24437e-06
4.06812e-06
3.89442e-06
3.72332e-06
3.55488e-06
3.38917e-06
3.22625e-06
3.06619e-06
2.90907e-06
2.75496e-06
2.60394e-06
2.4561e-06
2.3115e-06
2.17018e-06
2.03228e-06
1.89795e-06
1.76729e-06
1.6404e-06
1.51739e-06
1.39836e-06
1.28344e-06
1.17274e-06
1.06638e-06
9.64455e-07
8.66958e-07
7.73163e-07
6.7753e-07
5.85569e-07
4.99004e-07
4.18375e-07
3.44244e-07
2.77164e-07
2.17636e-07
1.66045e-07
1.22581e-07
8.7166e-08
5.94053e-08
3.85842e-08
2.37264e-08
1.37e-08
7.34798e-09
3.60558e-09
1.58286e-09
6.0059e-10
1.86158e-10
4.26814e-11
5.96643e-12
3.30644e-13
2.4502e-15
4.47014e-06
4.29004e-06
4.11243e-06
3.93736e-06
3.7649e-06
3.5951e-06
3.42803e-06
3.26374e-06
3.10232e-06
2.94384e-06
2.78837e-06
2.63599e-06
2.4868e-06
2.34086e-06
2.1982e-06
2.05896e-06
1.9233e-06
1.79131e-06
1.6631e-06
1.53877e-06
1.41845e-06
1.30225e-06
1.19028e-06
1.08267e-06
9.79527e-07
8.80848e-07
7.86023e-07
6.90284e-07
5.97147e-07
5.0939e-07
4.2756e-07
3.52228e-07
2.83961e-07
2.23279e-07
1.7059e-07
1.26114e-07
8.98003e-08
6.12774e-08
3.98438e-08
2.45228e-08
1.41692e-08
7.60274e-09
3.73115e-09
1.6378e-09
6.21187e-10
1.92395e-10
4.40534e-11
6.14374e-12
3.38863e-13
2.48583e-15
4.51582e-06
4.33441e-06
4.15548e-06
3.97911e-06
3.80534e-06
3.63422e-06
3.46584e-06
3.30024e-06
3.1375e-06
2.97771e-06
2.82092e-06
2.66724e-06
2.51673e-06
2.36949e-06