/*--------------------------------*- C++ -*----------------------------------*\
  =========                 |
  \\      /  F ield         | OpenFOAM: The Open Source CFD Toolbox
   \\    /   O peration     | Website:  https://openfoam.org
    \\  /    A nd           | Version:  7
     \\/     M anipulation  |
\*---------------------------------------------------------------------------*/
FoamFile
{
    version     2.0;
    format      ascii;
    class       volScalarField;
    location    "192000";
    object      omega;
}
// * * * * * * * * * * * * * * * * * * * * * * * * * * * * * * * * * * * * * //

dimensions      [0 0 -1 0 0 0 0];

internalField   nonuniform List<scalar> 
4844
(
0.034531
0.0346886
0.0348616
0.0351738
0.0353342
0.0355102
0.0357017
0.0359086
0.0361306
0.0363676
0.0366193
0.0358294
0.0359926
0.0361716
0.0363664
0.0365768
0.0368026
0.0370436
0.0372996
0.0375704
0.0378556
0.0381551
0.0364977
0.0366637
0.0368458
0.0370439
0.0372578
0.0374874
0.0377324
0.0379927
0.0382679
0.0385578
0.0388622
0.0391806
0.0395128
0.0398584
0.0402169
0.0405886
0.0371789
0.0373477
0.0375328
0.0377342
0.0379517
0.0381851
0.0384341
0.0386986
0.0389783
0.039273
0.0395822
0.0399058
0.0402433
0.0405943
0.0409585
0.041336
0.0378731
0.0380446
0.0382328
0.0384375
0.0386586
0.0388957
0.0391489
0.0394176
0.0397019
0.0400012
0.0403154
0.0406441
0.040987
0.0413435
0.0417134
0.0420968
0.0387547
0.0389459
0.039154
0.0393786
0.0396196
0.0398768
0.0401499
0.0404386
0.0407428
0.041062
0.0413958
0.0417441
0.0421062
0.0424819
0.0428712
0.0394779
0.0396723
0.0398837
0.0401119
0.0403567
0.040618
0.0408955
0.0411888
0.0414978
0.041822
0.0421611
0.0425148
0.0428826
0.0432641
0.0436593
0.0402146
0.0404121
0.0406268
0.0408587
0.0411074
0.0413728
0.0416547
0.0419527
0.0422665
0.0425957
0.0429402
0.0432994
0.0436729
0.0440602
0.0444616
0.040782
0.0409649
0.0411654
0.0413836
0.0416191
0.0418718
0.0421414
0.0424277
0.0427303
0.043049
0.0433835
0.0437333
0.044098
0.0444773
0.0448707
0.0452782
0.0415432
0.0417289
0.0419327
0.0421543
0.0423935
0.0426501
0.042924
0.0432147
0.0435221
0.0438458
0.0441854
0.0445407
0.0449111
0.0452962
0.0456957
0.0461095
0.0423184
0.042507
0.042714
0.042939
0.043182
0.0434427
0.0437208
0.0440161
0.0443282
0.044657
0.0450019
0.0453626
0.0457388
0.0461299
0.0465355
0.0469557
0.0431078
0.0432994
0.0435095
0.0437381
0.0439849
0.0442496
0.0445321
0.044832
0.045149
0.0454829
0.0458332
0.0461995
0.0465815
0.0469787
0.0473905
0.0478172
0.0437361
0.0439117
0.0441063
0.0443197
0.0445519
0.0448025
0.0450714
0.0453582
0.0456628
0.0459848
0.0463238
0.0466795
0.0470516
0.0474395
0.0478428
0.0482611
0.0486943
0.0445521
0.0447304
0.044928
0.0451448
0.0453805
0.0456351
0.0459081
0.0461994
0.0465088
0.0468358
0.0471801
0.0475413
0.0479192
0.0483131
0.0487227
0.0491474
0.0495874
0.0452219
0.0453831
0.0455642
0.0457649
0.045985
0.0462245
0.046483
0.0467603
0.0470561
0.0473703
0.0477024
0.048052
0.048419
0.0488027
0.0492028
0.0496187
0.0500501
0.0504968
0.0460658
0.0462296
0.0464134
0.0466172
0.0468408
0.047084
0.0473465
0.0476281
0.0479286
0.0482477
0.0485849
0.0489401
0.0493127
0.0497025
0.0501088
0.0505313
0.0509694
0.0514231
0.0469254
0.0470917
0.0472784
0.0474854
0.0477125
0.0479594
0.048226
0.0485121
0.0488173
0.0491413
0.0494839
0.0498446
0.0502231
0.0506189
0.0510316
0.0514608
0.0519057
0.0523666
0.047801
0.0479699
0.0481596
0.0483698
0.0486004
0.0488512
0.049122
0.0494125
0.0497225
0.0500516
0.0503996
0.050766
0.0511504
0.0515525
0.0519717
0.0524076
0.0528596
0.0533277
0.048693
0.0488646
0.0490572
0.0492707
0.0495049
0.0497597
0.0500347
0.0503298
0.0506447
0.050979
0.0513325
0.0517046
0.0520952
0.0525036
0.0529295
0.0533723
0.0538315
0.054307
0.0496019
0.0497762
0.0499718
0.0501886
0.0504265
0.0506853
0.0509647
0.0512644
0.0515843
0.0519239
0.052283
0.0526611
0.0530578
0.0534727
0.0539054
0.0543552
0.0548217
0.0553049
0.050528
0.050705
0.0509037
0.051124
0.0513656
0.0516285
0.0519123
0.0522168
0.0525417
0.0528868
0.0532516
0.0536357
0.0540388
0.0544604
0.0548999
0.055357
0.055831
0.0563219
0.0514719
0.0516516
0.0518535
0.0520772
0.0523227
0.0525897
0.0528781
0.0531874
0.0535176
0.0538681
0.0542387
0.054629
0.0550386
0.055467
0.0559136
0.0563781
0.0568597
0.0573586
0.0524338
0.0526165
0.0528215
0.0530488
0.0532982
0.0535695
0.0538625
0.0541768
0.0545122
0.0548684
0.055245
0.0556416
0.0560578
0.0564931
0.056947
0.057419
0.0579085
0.0584155
0.0534145
0.0536
0.0538084
0.0540393
0.0542927
0.0545683
0.054866
0.0551854
0.0555262
0.0558882
0.0562709
0.056674
0.0570969
0.0575393
0.0580007
0.0584804
0.0589779
0.0594932
0.0544143
0.0546028
0.0548145
0.0550492
0.0553066
0.0555867
0.0558892
0.0562138
0.0565602
0.056928
0.057317
0.0577267
0.0581566
0.0586062
0.0590752
0.0595628
0.0600685
0.0605923
0.0554339
0.0556254
0.0558405
0.056079
0.0563406
0.0566253
0.0569327
0.0572626
0.0576146
0.0579885
0.0583839
0.0588003
0.0592373
0.0596944
0.0601711
0.0606668
0.061181
0.0617135
0.0564737
0.0566684
0.056887
0.0571293
0.0573952
0.0576845
0.057997
0.0583323
0.0586902
0.0590702
0.0594721
0.0598955
0.0603397
0.0608045
0.0612891
0.0617931
0.0623159
0.0628574
0.0575344
0.0577323
0.0579544
0.0582008
0.0584711
0.0587651
0.0590827
0.0594236
0.0597874
0.0601738
0.0605824
0.0610129
0.0614646
0.0619371
0.0624299
0.0629424
0.063474
0.0640247
0.0586167
0.0588178
0.0590436
0.059294
0.0595688
0.0598677
0.0601906
0.0605371
0.060907
0.0612999
0.0617154
0.0621531
0.0626125
0.063093
0.0635942
0.0641154
0.0646561
0.0652161
0.0595419
0.059721
0.0599255
0.060155
0.0604096
0.060689
0.0609929
0.0613212
0.0616736
0.0620497
0.0624493
0.0628718
0.0633169
0.0637841
0.0642728
0.0647826
0.0653127
0.0658627
0.0664324
0.0606661
0.0608482
0.0610561
0.0612895
0.0615483
0.0618324
0.0621415
0.0624753
0.0628337
0.0632162
0.0636226
0.0640523
0.0645051
0.0649803
0.0654774
0.0659959
0.0665353
0.0670948
0.0676743
0.0616549
0.0618138
0.061999
0.0622103
0.0624477
0.0627109
0.0629998
0.0633141
0.0636536
0.0640181
0.0644072
0.0648205
0.0652577
0.0657183
0.0662017
0.0667075
0.067235
0.0677838
0.068353
0.0689427
0.062824
0.0629857
0.063174
0.0633889
0.0636303
0.063898
0.0641918
0.0645116
0.0648569
0.0652277
0.0656235
0.066044
0.0664888
0.0669573
0.0674492
0.0679639
0.0685007
0.069059
0.0696384
0.0702385
0.0640181
0.0641825
0.0643741
0.0645927
0.0648382
0.0651105
0.0654094
0.0657346
0.066086
0.0664632
0.0668659
0.0672937
0.0677463
0.0682231
0.0687237
0.0692474
0.0697937
0.070362
0.0709516
0.0715624
0.0652379
0.0654051
0.0656
0.0658223
0.0660721
0.0663492
0.0666532
0.0669842
0.0673417
0.0677255
0.0681353
0.0685706
0.0690312
0.0695165
0.0700259
0.070559
0.0711151
0.0716935
0.0722937
0.0729155
0.0664842
0.0666544
0.0668526
0.0670788
0.067333
0.0676148
0.0679243
0.068261
0.0686248
0.0690154
0.0694325
0.0698756
0.0703444
0.0708383
0.0713569
0.0718995
0.0724656
0.0730545
0.0736656
0.0742987
0.067758
0.0679311
0.0681328
0.068363
0.0686216
0.0689085
0.0692234
0.0695661
0.0699363
0.0703339
0.0707584
0.0712095
0.0716867
0.0721896
0.0727175
0.07327
0.0738464
0.0744461
0.0750683
0.075713
0.06906
0.0692362
0.0694415
0.0696758
0.069939
0.0702309
0.0705514
0.0709003
0.0712772
0.0716819
0.0721141
0.0725734
0.0730592
0.0735713
0.0741089
0.0746715
0.0752585
0.0758691
0.0765028
0.0771594
0.0703914
0.0705707
0.0707796
0.0710181
0.071286
0.0715832
0.0719095
0.0722647
0.0726484
0.0730605
0.0735006
0.0739682
0.074463
0.0749844
0.0755319
0.0761049
0.0767028
0.0773248
0.0779703
0.0786391
0.071753
0.0719355
0.0721482
0.072391
0.0726638
0.0729664
0.0732986
0.0736602
0.074051
0.0744706
0.0749188
0.075395
0.075899
0.0764301
0.0769878
0.0775715
0.0781805
0.0788141
0.0794718
0.0801532
0.0731459
0.0733318
0.0735483
0.0737956
0.0740733
0.0743815
0.0747198
0.0750881
0.075486
0.0759134
0.0763699
0.076855
0.0773683
0.0779094
0.0784776
0.0790723
0.0796928
0.0803384
0.0810085
0.0817029
0.0745713
0.0747605
0.0749811
0.0752328
0.0755157
0.0758296
0.0761741
0.0765493
0.0769546
0.07739
0.077855
0.0783493
0.0788723
0.0794235
0.0800025
0.0806085
0.0812408
0.0818988
0.0825817
0.0832894
0.0760301
0.0762229
0.0764475
0.076704
0.0769922
0.0773118
0.0776629
0.078045
0.078458
0.0789016
0.0793754
0.079879
0.080412
0.0809738
0.0815638
0.0821814
0.0828259
0.0834966
0.0841927
0.0849141
0.0775237
0.0777201
0.077949
0.0782102
0.0785038
0.0788295
0.0791872
0.0795766
0.0799974
0.0804494
0.0809323
0.0814455
0.0819887
0.0825613
0.0831628
0.0837924
0.0844494
0.0851331
0.0858428
0.0865783
0.0790533
0.0792534
0.0794866
0.0797528
0.080052
0.0803839
0.0807483
0.0811452
0.0815741
0.0820348
0.082527
0.0830501
0.0836039
0.0841876
0.0848008
0.0854427
0.0861126
0.0868098
0.0875335
0.0882835
0.0806202
0.0808241
0.0810617
0.0813331
0.0816379
0.0819762
0.0823477
0.0827522
0.0831894
0.0836591
0.0841608
0.0846942
0.0852588
0.085854
0.0864792
0.0871338
0.087817
0.0885281
0.0892661
0.0900311
0.0822257
0.0824335
0.0826758
0.0829523
0.0832631
0.083608
0.0839867
0.0843991
0.0848449
0.0853237
0.0858353
0.0863792
0.0869549
0.087562
0.0881996
0.0888673
0.0895642
0.0902895
0.0910424
0.0918227
0.0838713
0.0840832
0.0843301
0.0846121
0.084929
0.0852806
0.0856668
0.0860873
0.0865418
0.0870302
0.0875519
0.0881067
0.0886939
0.0893131
0.0899636
0.0906447
0.0913557
0.0920956
0.0928638
0.09366
0.0855585
0.0857745
0.0860264
0.0863139
0.086637
0.0869956
0.0873894
0.0878183
0.0882819
0.0887801
0.0893123
0.0898781
0.0904772
0.0911089
0.0917726
0.0924676
0.0931931
0.0939482
0.0947322
0.0955447
0.0872888
0.0875091
0.087766
0.0880593
0.0883889
0.0887546
0.0891563
0.0895938
0.0900668
0.090575
0.091118
0.0916953
0.0923066
0.0929512
0.0936285
0.0943378
0.0950783
0.095849
0.0966492
0.0974785
0.0890639
0.0892887
0.0895507
0.0898499
0.0901862
0.0905593
0.0909692
0.0914155
0.0918981
0.0924167
0.0929708
0.09356
0.0941838
0.0948418
0.0955331
0.0962571
0.097013
0.0977999
0.0986168
0.0994634
0.0908856
0.0911149
0.0913823
0.0916876
0.0920307
0.0924114
0.0928297
0.0932852
0.0937778
0.094307
0.0948725
0.095474
0.0961108
0.0967824
0.0974882
0.0982274
0.0989992
0.0998027
0.100637
0.101501
0.0927556
0.0929896
0.0932625
0.0935741
0.0939242
0.0943129
0.0947398
0.0952048
0.0957075
0.0962478
0.0968251
0.0974392
0.0980893
0.0987751
0.0994958
0.100251
0.101039
0.10186
0.102712
0.103594
0.0946759
0.0949148
0.0951933
0.0955113
0.0958688
0.0962656
0.0967014
0.0971761
0.0976894
0.0982411
0.0988306
0.0994576
0.100122
0.100822
0.101558
0.102329
0.103134
0.103973
0.104843
0.105745
0.0978664
0.0982715
0.0987166
0.0992014
0.0997256
0.100289
0.100891
0.101531
0.10221
0.102925
0.103677
0.104465
0.105288
0.106144
0.107034
0.107955
0.101818
0.102394
0.103009
0.103663
0.104356
0.105087
0.105855
0.10666
0.107501
0.108377
0.109286
0.110227
0.0436593
0.043264
0.0444616
0.0440602
0.0452782
0.0448706
0.0461094
0.0456956
0.0452962
0.0469556
0.0465355
0.0461299
0.0478171
0.0473905
0.0469786
0.0465814
0.0486942
0.048261
0.0478428
0.0474394
0.0495873
0.0491474
0.0487227
0.0483131
0.0504968
0.0500501
0.0496187
0.0492027
0.0488026
0.0514231
0.0509693
0.0505312
0.0501087
0.0497024
0.0523665
0.0519057
0.0514607
0.0510316
0.0506189
0.0533277
0.0528596
0.0524076
0.0519717
0.0515524
0.0543069
0.0538314
0.0533722
0.0529294
0.0525036
0.0553048
0.0548217
0.0543552
0.0539053
0.0534727
0.0563218
0.055831
0.055357
0.0548999
0.0544603
0.0540387
0.0573585
0.0568597
0.056378
0.0559136
0.0554669
0.0550385
0.0584154
0.0579085
0.057419
0.056947
0.0564931
0.0560577
0.0556416
0.0594931
0.0589779
0.0584803
0.0580006
0.0575393
0.0570969
0.0566739
0.0562708
0.0605922
0.0600685
0.0595627
0.0590751
0.0586062
0.0581565
0.0577266
0.0573169
0.056928
0.0617134
0.0611809
0.0606668
0.0601711
0.0596944
0.0592372
0.0588002
0.0583838
0.0579885
0.0576146
0.0628573
0.0623159
0.0617931
0.0612891
0.0608044
0.0603397
0.0598954
0.0594721
0.0590702
0.0586901
0.0640246
0.063474
0.0629424
0.0624299
0.0619371
0.0614645
0.0610128
0.0605824
0.0601738
0.0597874
0.065216
0.064656
0.0641153
0.0635941
0.0630929
0.0626124
0.062153
0.0617154
0.0612999
0.060907
0.0664323
0.0658627
0.0653127
0.0647825
0.0642728
0.063784
0.0633169
0.0628718
0.0624492
0.0620497
0.0676743
0.0670947
0.0665352
0.0659959
0.0654774
0.0649802
0.064505
0.0640523
0.0636225
0.0632162
0.0689427
0.068353
0.0677837
0.067235
0.0667074
0.0662016
0.0657182
0.0652576
0.0648205
0.0644071
0.0702384
0.0696383
0.069059
0.0685006
0.0679638
0.0674492
0.0669573
0.0664887
0.0660439
0.0656234
0.0715624
0.0709515
0.0703619
0.0697937
0.0692473
0.0687236
0.068223
0.0677462
0.0672937
0.0668658
0.0729154
0.0722936
0.0716934
0.071115
0.0705589
0.0700259
0.0695164
0.0690311
0.0685706
0.0681352
0.0742986
0.0736655
0.0730545
0.0724656
0.0718995
0.0713568
0.0708382
0.0703443
0.0698755
0.0694324
0.0757129
0.0750682
0.074446
0.0738464
0.07327
0.0727175
0.0721895
0.0716866
0.0712094
0.0707584
0.0771594
0.0765027
0.075869
0.0752584
0.0746714
0.0741088
0.0735712
0.0730592
0.0725733
0.0721141
0.0436593
0.0444616
0.0452782
0.0461094
0.0469556
0.0478171
0.0486942
0.0495873
0.0504968
0.0514231
0.0523665
0.0533277
0.0543069
0.0553048
0.0563218
0.0573585
0.0584154
0.0594931
0.0605923
0.0617134
0.0628573
0.0640246
0.065216
0.0664323
0.0676743
0.0689427
0.0702384
0.0715624
0.0729155
0.0742986
0.0757129
0.0771594
0.043264
0.0440602
0.0448707
0.0456957
0.0465355
0.0473905
0.048261
0.0491474
0.0500501
0.0509694
0.0519057
0.0528596
0.0538314
0.0548217
0.055831
0.0568597
0.0579085
0.0589779
0.0600685
0.0611809
0.0623159
0.063474
0.064656
0.0658627
0.0670947
0.068353
0.0696383
0.0709516
0.0722937
0.0736656
0.0750682
0.0765028
0.0779702
0.0428825
0.0436728
0.0444773
0.0452962
0.0461299
0.0469786
0.0478428
0.0487227
0.0496187
0.0505312
0.0514607
0.0524076
0.0533722
0.0543552
0.055357
0.056378
0.057419
0.0584803
0.0595627
0.0606668
0.0617931
0.0629424
0.0641153
0.0653127
0.0665352
0.0677837
0.069059
0.070362
0.0716935
0.0730545
0.074446
0.0758691
0.0773247
0.0788141
0.0803384
0.0818988
0.0834966
0.0851331
0.0425148
0.0432993
0.044098
0.0449111
0.0457388
0.0465815
0.0474395
0.0483131
0.0492027
0.0501088
0.0510316
0.0519717
0.0529295
0.0539054
0.0548999
0.0559136
0.056947
0.0580006
0.0590751
0.0601711
0.0612891
0.0624299
0.0635941
0.0647826
0.0659959
0.067235
0.0685006
0.0697937
0.071115
0.0724656
0.0738464
0.0752584
0.0767027
0.0781805
0.0796927
0.0812408
0.0828259
0.0844494
0.0421611
0.0429402
0.0437333
0.0445406
0.0453626
0.0461995
0.0470515
0.0479191
0.0488027
0.0497024
0.0506189
0.0515525
0.0525036
0.0534727
0.0544603
0.0554669
0.0564931
0.0575393
0.0586062
0.0596944
0.0608045
0.0619371
0.063093
0.0642728
0.0654774
0.0667075
0.0679638
0.0692474
0.070559
0.0718995
0.07327
0.0746715
0.0761049
0.0775714
0.0790722
0.0806085
0.0821814
0.0837923
0.041822
0.0425957
0.0433835
0.0441854
0.0450019
0.0458331
0.0466795
0.0475413
0.0484189
0.0493127
0.0502231
0.0511504
0.0520952
0.0530578
0.0540388
0.0550386
0.0560578
0.0570969
0.0581565
0.0592373
0.0603397
0.0614646
0.0626124
0.0637841
0.0649802
0.0662017
0.0674492
0.0687236
0.0700259
0.0713569
0.0727175
0.0741088
0.0755319
0.0769877
0.0784775
0.0800025
0.0815638
0.0831627
0.0848007
0.0414978
0.0422664
0.043049
0.0438458
0.044657
0.0454829
0.0463238
0.0471801
0.048052
0.0489401
0.0498446
0.050766
0.0517046
0.052661
0.0536357
0.054629
0.0556416
0.056674
0.0577266
0.0588003
0.0598955
0.0610128
0.0621531
0.0633169
0.064505
0.0657182
0.0669573
0.0682231
0.0695164
0.0708383
0.0721895
0.0735712
0.0749844
0.07643
0.0779094
0.0794235
0.0809737
0.0825613
0.0841876
0.0411888
0.0419526
0.0427303
0.0435221
0.0443282
0.045149
0.0459847
0.0468357
0.0477023
0.0485849
0.0494839
0.0503996
0.0513324
0.0522829
0.0532515
0.0542387
0.055245
0.0562709
0.057317
0.0583839
0.0594721
0.0605824
0.0617154
0.0628718
0.0640523
0.0652577
0.0664887
0.0677463
0.0690312
0.0703443
0.0716867
0.0730592
0.0744629
0.0758989
0.0773683
0.0788722
0.0804119
0.0819887
0.0836038
0.0408955
0.0416547
0.0424277
0.0432147
0.0440161
0.044832
0.0456628
0.0465087
0.0473703
0.0482477
0.0491413
0.0500516
0.050979
0.0519239
0.0528868
0.0538681
0.0548684
0.0558882
0.056928
0.0579885
0.0590702
0.0601738
0.0612999
0.0624493
0.0636225
0.0648205
0.066044
0.0672937
0.0685706
0.0698756
0.0712095
0.0725733
0.0739682
0.075395
0.076855
0.0783492
0.079879
0.0814455
0.0830501
0.040618
0.0413728
0.0421414
0.042924
0.0437208
0.0445321
0.0453582
0.0461994
0.0470561
0.0479286
0.0488173
0.0497225
0.0506447
0.0515843
0.0525417
0.0535175
0.0545122
0.0555262
0.0565602
0.0576146
0.0586901
0.0597874
0.060907
0.0620497
0.0632162
0.0644072
0.0656235
0.0668659
0.0681352
0.0694324
0.0707584
0.0721141
0.0735005
0.0749187
0.0763698
0.077855
0.0793754
0.0809322
0.0825269
0.0403567
0.0411074
0.0418718
0.0426501
0.0434426
0.0442496
0.0450713
0.0459081
0.0467603
0.0476281
0.0485121
0.0494125
0.0503298
0.0512644
0.0522168
0.0531874
0.0541768
0.0551854
0.0562138
0.0572625
0.0583323
0.0594236
0.0605371
0.0616736
0.0628337
0.0640181
0.0652277
0.0664632
0.0677254
0.0690154
0.0703339
0.0716819
0.0730605
0.0744706
0.0759134
0.07739
0.0789016
0.0804494
0.0820348
0.0408587
0.0416191
0.0423935
0.043182
0.0439849
0.0448025
0.0456351
0.0464829
0.0473465
0.048226
0.049122
0.0500347
0.0509647
0.0519123
0.0528781
0.0538624
0.054866
0.0558892
0.0569327
0.057997
0.0590827
0.0601906
0.0613212
0.0624753
0.0636536
0.0648569
0.066086
0.0673416
0.0686248
0.0699363
0.0712772
0.0726484
0.074051
0.075486
0.0769546
0.078458
0.0799974
0.081574
0.0413836
0.0421542
0.042939
0.0437381
0.0445519
0.0453805
0.0462245
0.047084
0.0479594
0.0488512
0.0497597
0.0506853
0.0516285
0.0525897
0.0535695
0.0545683
0.0555867
0.0566253
0.0576845
0.0587651
0.0598677
0.0609929
0.0621414
0.0633141
0.0645115
0.0657346
0.0669841
0.068261
0.069566
0.0709003
0.0722646
0.0736602
0.075088
0.0765492
0.078045
0.0795765
0.0811451
0.0411654
0.0419327
0.0427139
0.0435095
0.0443197
0.0451448
0.045985
0.0468408
0.0477125
0.0486004
0.0495049
0.0504265
0.0513656
0.0523227
0.0532982
0.0542927
0.0553066
0.0563406
0.0573952
0.058471
0.0595687
0.0606889
0.0618324
0.0629997
0.0641918
0.0654093
0.0666532
0.0679242
0.0692233
0.0705514
0.0719095
0.0732986
0.0747197
0.0761741
0.0776628
0.0791871
0.0807483
0.0417289
0.042507
0.0432994
0.0441063
0.044928
0.0457649
0.0466172
0.0474854
0.0483698
0.0492707
0.0501886
0.051124
0.0520772
0.0530488
0.0540393
0.0550492
0.056079
0.0571293
0.0582007
0.0592939
0.0604096
0.0615483
0.0627109
0.063898
0.0651105
0.0663491
0.0676148
0.0689084
0.0702309
0.0715832
0.0729664
0.0743814
0.0758295
0.0773118
0.0788295
0.0803838
0.0415432
0.0423184
0.0431078
0.0439117
0.0447304
0.0455642
0.0464134
0.0472784
0.0481595
0.0490572
0.0499718
0.0509037
0.0518535
0.0528215
0.0538083
0.0548145
0.0558405
0.0568869
0.0579544
0.0590436
0.060155
0.0612895
0.0624476
0.0636303
0.0648382
0.0660721
0.067333
0.0686216
0.069939
0.071286
0.0726638
0.0740733
0.0755157
0.0769921
0.0785038
0.0800519
0.0421482
0.0429349
0.0437361
0.0445521
0.0453831
0.0462296
0.0470917
0.0479699
0.0488646
0.0497762
0.050705
0.0516516
0.0526165
0.0536
0.0546028
0.0556254
0.0566684
0.0577323
0.0588177
0.0599254
0.0610561
0.0622103
0.0633889
0.0645926
0.0658223
0.0670788
0.068363
0.0696757
0.0710181
0.072391
0.0737955
0.0752328
0.076704
0.0782102
0.0797528
0.0427809
0.0435798
0.0443933
0.0452219
0.0460658
0.0469254
0.047801
0.048693
0.0496019
0.050528
0.0514719
0.0524338
0.0534145
0.0544143
0.0554339
0.0564737
0.0575344
0.0586167
0.059721
0.0608482
0.061999
0.063174
0.064374
0.0655999
0.0668526
0.0681327
0.0694414
0.0707796
0.0721482
0.0735483
0.074981
0.0764475
0.0779489
0.0794865
0.0426459
0.0434427
0.0442541
0.0450805
0.0459222
0.0467796
0.0476529
0.0485427
0.0494492
0.0503729
0.0513143
0.0522738
0.0532519
0.0542491
0.055266
0.0563031
0.0573611
0.0584404
0.0595419
0.0606661
0.0618138
0.0629856
0.0641825
0.0654051
0.0666543
0.067931
0.0692362
0.0705706
0.0719355
0.0733317
0.0747604
0.0762228
0.07772
0.0792533
0.0425301
0.043325
0.0441346
0.0449591
0.0457989
0.0466544
0.0475258
0.0484136
0.0493181
0.0502397
0.051179
0.0521364
0.0531123
0.0541073
0.0551219
0.0561567
0.0572123
0.0582892
0.0593881
0.0605098
0.0616548
0.062824
0.0640181
0.0652379
0.0664842
0.067758
0.06906
0.0703914
0.071753
0.0731459
0.0745712
0.0760301
0.0775237
0.0790533
0.0424334
0.0432268
0.0440348
0.0448578
0.0456961
0.0465499
0.0474197
0.0483058
0.0492087
0.0501286
0.0510662
0.0520217
0.0529959
0.053989
0.0550017
0.0560346
0.0570881
0.058163
0.0592599
0.0603794
0.0615223
0.0626892
0.063881
0.0650984
0.0663423
0.0676136
0.0689131
0.0702418
0.0716007
0.0729909
0.0744134
0.0758693
0.0773599
0.0788864
0.0431481
0.043955
0.0447767
0.0456137
0.0464663
0.0473348
0.0482196
0.0491211
0.0500397
0.0509758
0.0519299
0.0529026
0.0538943
0.0549054
0.0559367
0.0569887
0.058062
0.0591572
0.060275
0.0614161
0.0625813
0.0637712
0.0649868
0.0662288
0.067498
0.0687955
0.0701221
0.0714789
0.0728668
0.0742871
0.0757407
0.0772289
0.0787529
0.0430891
0.043895
0.0447158
0.0455519
0.0464035
0.047271
0.0481548
0.0490553
0.0499729
0.050908
0.051861
0.0528326
0.0538231
0.0548332
0.0558633
0.0569141
0.0579862
0.0590801
0.0601967
0.0613365
0.0625003
0.0636889
0.064903
0.0661435
0.0674113
0.0687072
0.0700323
0.0713875
0.0727737
0.0741923
0.0756441
0.0771305
0.0786527
0.043855
0.0446752
0.0455107
0.0463616
0.0472285
0.0481116
0.0490114
0.0499283
0.0508627
0.0518151
0.0527859
0.0537757
0.054785
0.0558144
0.0568644
0.0579356
0.0590287
0.0601444
0.0612833
0.0624463
0.0636339
0.0648471
0.0660867
0.0673535
0.0686484
0.0699724
0.0713265
0.0727117
0.074129
0.0755797
0.0770649
0.0785859
0.043835
0.0446549
0.04549
0.0463407
0.0472072
0.04809
0.0489895
0.049906
0.0508401
0.0517921
0.0527626
0.053752
0.0547609
0.0557899
0.0568395
0.0579103
0.059003
0.0601183
0.0612568
0.0624192
0.0636064
0.0648192
0.0660582
0.0673245
0.0686189
0.0699424
0.071296
0.0726806
0.0740974
0.0755475
0.0770321
0.0785524
0.0446549
0.04549
0.0463407
0.0472072
0.04809
0.0489895
0.049906
0.0508401
0.0517921
0.0527626
0.053752
0.0547609
0.0557899
0.0568395
0.0579103
0.059003
0.0601183
0.0612568
0.0624192
0.0636064
0.0648192
0.0660582
0.0673245
0.0686189
0.0699424
0.071296
0.0726806
0.0740974
0.0755475
0.0770321
0.0785524
0.0446752
0.0455107
0.0463616
0.0472285
0.0481116
0.0490114
0.0499283
0.0508627
0.0518151
0.0527859
0.0537757
0.054785
0.0558144
0.0568643
0.0579356
0.0590287
0.0601444
0.0612833
0.0624463
0.0636339
0.0648471
0.0660867
0.0673534
0.0686484
0.0699724
0.0713265
0.0727117
0.074129
0.0755797
0.0770649
0.0785859
0.0447158
0.0455519
0.0464035
0.047271
0.0481548
0.0490553
0.0499729
0.050908
0.051861
0.0528326
0.0538231
0.0548332
0.0558633
0.0569141
0.0579862
0.0590801
0.0601967
0.0613365
0.0625003
0.0636889
0.064903
0.0661435
0.0674113
0.0687072
0.0700323
0.0713874
0.0727737
0.0741923
0.0756441
0.0771305
0.0786527
0.0447767
0.0456137
0.0464663
0.0473348
0.0482196
0.0491211
0.0500396
0.0509758
0.0519299
0.0529026
0.0538942
0.0549054
0.0559367
0.0569887
0.058062
0.0591572
0.060275
0.0614161
0.0625813
0.0637712
0.0649868
0.0662287
0.067498
0.0687955
0.0701221
0.0714789
0.0728668
0.0742871
0.0757407
0.0772289
0.0787529
0.0448578
0.0456961
0.0465499
0.0474197
0.0483058
0.0492087
0.0501286
0.0510662
0.0520217
0.0529958
0.053989
0.0550017
0.0560345
0.0570881
0.058163
0.0592599
0.0603794
0.0615223
0.0626892
0.063881
0.0650984
0.0663423
0.0676136
0.0689131
0.0702418
0.0716007
0.0729909
0.0744134
0.0758693
0.0773599
0.0788864
0.0449591
0.0457989
0.0466544
0.0475258
0.0484135
0.0493181
0.0502397
0.051179
0.0521364
0.0531123
0.0541073
0.0551219
0.0561567
0.0572122
0.0582892
0.0593881
0.0605098
0.0616548
0.062824
0.0640181
0.0652379
0.0664842
0.067758
0.06906
0.0703913
0.071753
0.0731459
0.0745712
0.0760301
0.0775237
0.0790533
0.0450805
0.0459222
0.0467795
0.0476529
0.0485426
0.0494492
0.0503729
0.0513143
0.0522738
0.0532519
0.0542491
0.055266
0.0563031
0.057361
0.0584404
0.0595419
0.0606661
0.0618138
0.0629856
0.0641825
0.0654051
0.0666543
0.067931
0.0692362
0.0705706
0.0719355
0.0733317
0.0747604
0.0762228
0.07772
0.0792533
0.0452219
0.0460658
0.0469253
0.047801
0.048693
0.0496019
0.050528
0.0514718
0.0524338
0.0534145
0.0544143
0.0554339
0.0564737
0.0575344
0.0586166
0.059721
0.0608482
0.061999
0.063174
0.064374
0.0655999
0.0668526
0.0681328
0.0694414
0.0707796
0.0721482
0.0735483
0.074981
0.0764475
0.0779489
0.0794865
0.0453831
0.0462295
0.0470917
0.0479699
0.0488646
0.0497761
0.050705
0.0516516
0.0526165
0.0536
0.0546028
0.0556254
0.0566684
0.0577323
0.0588177
0.0599254
0.0610561
0.0622103
0.0633889
0.0645926
0.0658223
0.0670788
0.068363
0.0696758
0.0710181
0.072391
0.0737956
0.0752328
0.076704
0.0782102
0.0797528
0.0455642
0.0464134
0.0472784
0.0481595
0.0490572
0.0499718
0.0509037
0.0518535
0.0528215
0.0538083
0.0548145
0.0558405
0.0568869
0.0579544
0.0590436
0.060155
0.0612895
0.0624476
0.0636303
0.0648382
0.0660721
0.067333
0.0686216
0.069939
0.071286
0.0726638
0.0740733
0.0755157
0.0769921
0.0785038
0.0800519
0.0457649
0.0466172
0.0474854
0.0483697
0.0492707
0.0501886
0.051124
0.0520772
0.0530488
0.0540393
0.0550491
0.056079
0.0571293
0.0582007
0.0592939
0.0604096
0.0615483
0.0627109
0.063898
0.0651105
0.0663491
0.0676148
0.0689084
0.0702309
0.0715832
0.0729664
0.0743814
0.0758295
0.0773118
0.0788295
0.0803838
0.045985
0.0468408
0.0477124
0.0486004
0.0495049
0.0504265
0.0513656
0.0523227
0.0532982
0.0542927
0.0553066
0.0563406
0.0573952
0.058471
0.0595687
0.0606889
0.0618324
0.0629997
0.0641918
0.0654093
0.0666532
0.0679242
0.0692233
0.0705514
0.0719095
0.0732986
0.0747197
0.0761741
0.0776628
0.0791871
0.0807483
0.0462244
0.047084
0.0479594
0.0488512
0.0497596
0.0506853
0.0516285
0.0525897
0.0535695
0.0545683
0.0555867
0.0566253
0.0576845
0.0587651
0.0598677
0.0609929
0.0621414
0.0633141
0.0645115
0.0657346
0.0669841
0.068261
0.069566
0.0709003
0.0722646
0.0736602
0.075088
0.0765492
0.078045
0.0795765
0.0811451
0.0464829
0.0473465
0.048226
0.049122
0.0500347
0.0509646
0.0519123
0.052878
0.0538624
0.054866
0.0558892
0.0569326
0.057997
0.0590827
0.0601906
0.0613212
0.0624753
0.0636536
0.0648569
0.066086
0.0673416
0.0686248
0.0699363
0.0712772
0.0726484
0.074051
0.075486
0.0769546
0.078458
0.0799974
0.081574
0.0467602
0.0476281
0.0485121
0.0494125
0.0503298
0.0512644
0.0522168
0.0531874
0.0541768
0.0551854
0.0562138
0.0572625
0.0583323
0.0594236
0.0605371
0.0616736
0.0628337
0.0640181
0.0652277
0.0664632
0.0677254
0.0690154
0.0703339
0.0716819
0.0730605
0.0744706
0.0759134
0.07739
0.0789016
0.0804494
0.0820348
0.0470561
0.0479286
0.0488172
0.0497225
0.0506446
0.0515842
0.0525417
0.0535175
0.0545122
0.0555262
0.0565601
0.0576146
0.0586901
0.0597874
0.060907
0.0620497
0.0632162
0.0644072
0.0656235
0.0668659
0.0681352
0.0694324
0.0707584
0.0721141
0.0735005
0.0749187
0.0763698
0.077855
0.0793754
0.0809322
0.0825269
0.0473702
0.0482476
0.0491413
0.0500516
0.050979
0.0519239
0.0528867
0.0538681
0.0548684
0.0558882
0.056928
0.0579885
0.0590702
0.0601738
0.0612999
0.0624493
0.0636225
0.0648205
0.066044
0.0672937
0.0685706
0.0698756
0.0712095
0.0725733
0.0739682
0.075395
0.076855
0.0783492
0.079879
0.0814455
0.0830501
0.0477023
0.0485849
0.0494839
0.0503995
0.0513324
0.0522829
0.0532515
0.0542387
0.055245
0.0562709
0.057317
0.0583839
0.0594721
0.0605824
0.0617154
0.0628718
0.0640523
0.0652577
0.0664887
0.0677463
0.0690312
0.0703443
0.0716867
0.0730592
0.0744629
0.0758989
0.0773683
0.0788722
0.0804119
0.0819887
0.0836038
0.048052
0.0489401
0.0498446
0.050766
0.0517046
0.052661
0.0536357
0.054629
0.0556416
0.056674
0.0577266
0.0588003
0.0598955
0.0610128
0.0621531
0.0633169
0.064505
0.0657182
0.0669573
0.0682231
0.0695164
0.0708383
0.0721895
0.0735712
0.0749844
0.07643
0.0779093
0.0794235
0.0809737
0.0825613
0.0841876
0.0484189
0.0493127
0.0502231
0.0511504
0.0520952
0.0530578
0.0540388
0.0550386
0.0560578
0.0570969
0.0581566
0.0592373
0.0603397
0.0614646
0.0626124
0.0637841
0.0649802
0.0662017
0.0674492
0.0687236
0.0700259
0.0713569
0.0727175
0.0741088
0.0755319
0.0769877
0.0784775
0.0800025
0.0815638
0.0831627
0.0848007
0.0488026
0.0497024
0.0506189
0.0515525
0.0525036
0.0534727
0.0544603
0.0554669
0.0564931
0.0575393
0.0586062
0.0596944
0.0608045
0.0619371
0.063093
0.0642728
0.0654774
0.0667075
0.0679638
0.0692474
0.070559
0.0718995
0.07327
0.0746715
0.0761049
0.0775714
0.0790722
0.0806085
0.0821814
0.0837923
0.0854427
0.0492027
0.0501088
0.0510316
0.0519717
0.0529295
0.0539054
0.0548999
0.0559136
0.056947
0.0580006
0.0590751
0.0601711
0.0612891
0.0624299
0.0635941
0.0647826
0.0659959
0.067235
0.0685007
0.0697937
0.071115
0.0724656
0.0738464
0.0752584
0.0767028
0.0781805
0.0796928
0.0812408
0.0828259
0.0844494
0.0861126
0.087817
0.0895642
0.0913556
0.0931931
0.0496187
0.0505312
0.0514607
0.0524076
0.0533722
0.0543552
0.055357
0.056378
0.057419
0.0584804
0.0595628
0.0606668
0.0617931
0.0629424
0.0641154
0.0653127
0.0665353
0.0677837
0.069059
0.070362
0.0716935
0.0730545
0.074446
0.0758691
0.0773248
0.0788141
0.0803384
0.0818988
0.0834966
0.0851331
0.0868098
0.0885281
0.0902895
0.0920956
0.0939482
0.0500501
0.0509694
0.0519057
0.0528596
0.0538314
0.0548217
0.055831
0.0568597
0.0579085
0.0589779
0.0600685
0.0611809
0.0623159
0.063474
0.064656
0.0658627
0.0670947
0.068353
0.0696383
0.0709516
0.0722937
0.0736656
0.0750683
0.0765028
0.0779702
0.0794717
0.0810085
0.0825817
0.0841927
0.0858428
0.0875334
0.0892661
0.0910424
0.0928638
0.0947321
0.0504968
0.0514231
0.0523666
0.0533277
0.054307
0.0553048
0.0563219
0.0573585
0.0584154
0.0594931
0.0605923
0.0617134
0.0628573
0.0640246
0.065216
0.0664323
0.0676743
0.0689427
0.0702384
0.0715624
0.0729155
0.0742987
0.075713
0.0771594
0.0786391
0.0801532
0.0817029
0.0832894
0.0849141
0.0865783
0.0882835
0.0900311
0.0918227
0.09366
0.0955446
0.0504968
0.0514231
0.0523666
0.0533277
0.054307
0.0553048
0.0563219
0.0573585
0.0584154
0.0594931
0.0605923
0.0617134
0.0628573
0.0640246
0.065216
0.0664323
0.0676743
0.0689427
0.0702384
0.0715624
0.0729155
0.0742987
0.075713
0.0771594
0.0786391
0.0801532
0.0817029
0.0832894
0.0849141
0.0865783
0.0882835
0.0900311
0.0918227
0.09366
0.0955446
0.0500501
0.0509694
0.0519057
0.0528596
0.0538314
0.0548217
0.055831
0.0568597
0.0579085
0.0589779
0.0600685
0.0611809
0.0623159
0.063474
0.064656
0.0658627
0.0670947
0.068353
0.0696383
0.0709516
0.0722937