/*--------------------------------*- C++ -*----------------------------------*\
  =========                 |
  \\      /  F ield         | OpenFOAM: The Open Source CFD Toolbox
   \\    /   O peration     | Website:  https://openfoam.org
    \\  /    A nd           | Version:  7
     \\/     M anipulation  |
\*---------------------------------------------------------------------------*/
FoamFile
{
    version     2.0;
    format      ascii;
    class       volScalarField;
    location    "192000";
    object      p;
}
// * * * * * * * * * * * * * * * * * * * * * * * * * * * * * * * * * * * * * //

dimensions      [0 2 -2 0 0 0 0];

internalField   nonuniform List<scalar> 
4844
(
-2.44015e-19
-1.09159e-18
-1.03837e-18
-8.44478e-19
-1.1251e-18
-1.03567e-18
-1.01504e-18
-1.00918e-18
-9.85908e-19
-9.86562e-19
-9.78566e-19
-1.01969e-18
-1.12141e-18
-1.04216e-18
-1.02108e-18
-1.0036e-18
-9.79137e-19
-9.90145e-19
-9.75796e-19
-9.62738e-19
-9.5312e-19
-9.56997e-19
-1.04004e-18
-1.07427e-18
-1.04285e-18
-1.01876e-18
-1.00907e-18
-9.82352e-19
-9.8744e-19
-9.83051e-19
-9.70538e-19
-9.76139e-19
-9.47872e-19
-9.42673e-19
-9.42145e-19
-9.21755e-19
-9.55495e-19
-9.49622e-19
-1.02905e-18
-1.05898e-18
-1.02802e-18
-1.00953e-18
-9.99487e-19
-9.68806e-19
-9.9603e-19
-9.68955e-19
-9.66371e-19
-9.73455e-19
-9.50092e-19
-9.50243e-19
-9.35124e-19
-9.39009e-19
-9.52563e-19
-9.51943e-19
-1.01652e-18
-1.03982e-18
-1.01681e-18
-1.01865e-18
-9.85257e-19
-9.67424e-19
-9.79891e-19
-9.59135e-19
-9.65992e-19
-9.60369e-19
-9.49722e-19
-9.49534e-19
-9.26305e-19
-9.47577e-19
-9.47927e-19
-9.37943e-19
-1.04135e-18
-1.01924e-18
-1.0033e-18
-9.83588e-19
-9.66822e-19
-9.72693e-19
-9.51127e-19
-9.66943e-19
-9.45645e-19
-9.46237e-19
-9.49156e-19
-9.26871e-19
-9.51318e-19
-9.41645e-19
-9.44358e-19
-1.03687e-18
-1.01825e-18
-1.00025e-18
-9.8184e-19
-9.72773e-19
-9.73278e-19
-9.45829e-19
-9.65323e-19
-9.52025e-19
-9.51967e-19
-9.45068e-19
-9.45502e-19
-9.46343e-19
-9.2943e-19
-9.40435e-19
-1.02517e-18
-1.00563e-18
-9.90448e-19
-9.81492e-19
-9.70569e-19
-9.70035e-19
-9.49035e-19
-9.67456e-19
-9.45336e-19
-9.48942e-19
-9.38196e-19
-9.43107e-19
-9.40176e-19
-9.17039e-19
-9.49725e-19
-1.01354e-18
-1.01484e-18
-9.9271e-19
-9.84824e-19
-9.79121e-19
-9.62685e-19
-9.69379e-19
-9.5916e-19
-9.64547e-19
-9.45024e-19
-9.49714e-19
-9.36063e-19
-9.21016e-19
-9.23207e-19
-9.26738e-19
-9.46066e-19
-1.01511e-18
-1.01379e-18
-9.91786e-19
-9.79187e-19
-9.84609e-19
-9.634e-19
-9.57439e-19
-9.65014e-19
-9.43989e-19
-9.44751e-19
-9.43276e-19
-9.27089e-19
-9.19551e-19
-9.18107e-19
-9.23577e-19
-9.28398e-19
-1.00107e-18
-1.00396e-18
-9.85541e-19
-9.78384e-19
-9.77417e-19
-9.6033e-19
-9.63877e-19
-9.49274e-19
-9.4126e-19
-9.38331e-19
-9.38391e-19
-9.30834e-19
-9.28384e-19
-9.16371e-19
-9.15841e-19
-9.23702e-19
-9.97479e-19
-9.98554e-19
-9.7841e-19
-9.81268e-19
-9.71762e-19
-9.53433e-19
-9.69661e-19
-9.45857e-19
-9.44717e-19
-9.42395e-19
-9.40862e-19
-9.34035e-19
-9.18513e-19
-9.17678e-19
-9.11743e-19
-9.26601e-19
-9.96332e-19
-9.93876e-19
-9.90921e-19
-9.69358e-19
-9.83188e-19
-9.68947e-19
-9.47674e-19
-9.57866e-19
-9.36341e-19
-9.46398e-19
-9.503e-19
-9.28868e-19
-9.33734e-19
-9.22222e-19
-9.21702e-19
-9.18617e-19
-9.31725e-19
-9.89838e-19
-9.88267e-19
-9.80984e-19
-9.80273e-19
-9.79191e-19
-9.66736e-19
-9.45352e-19
-9.57338e-19
-9.388e-19
-9.34069e-19
-9.39647e-19
-9.43817e-19
-9.30598e-19
-9.18896e-19
-9.28287e-19
-9.322e-19
-9.28989e-19
-9.97752e-19
-9.8299e-19
-9.85302e-19
-9.79005e-19
-9.88963e-19
-9.67858e-19
-9.65465e-19
-9.50397e-19
-9.49176e-19
-9.42088e-19
-9.35001e-19
-9.27589e-19
-9.47789e-19
-9.18907e-19
-9.20196e-19
-9.21184e-19
-9.31782e-19
-9.23393e-19
-9.88083e-19
-9.80929e-19
-9.79059e-19
-9.69781e-19
-9.91978e-19
-9.65058e-19
-9.53258e-19
-9.43996e-19
-9.25514e-19
-9.37627e-19
-9.35706e-19
-9.17341e-19
-9.29546e-19
-9.17414e-19
-9.31577e-19
-9.23106e-19
-9.24655e-19
-9.14647e-19
-9.95478e-19
-9.76444e-19
-9.69519e-19
-9.68148e-19
-9.76999e-19
-9.59115e-19
-9.52869e-19
-9.36398e-19
-9.35544e-19
-9.38417e-19
-9.37555e-19
-9.14484e-19
-9.23194e-19
-9.04495e-19
-9.24943e-19
-9.20024e-19
-9.18351e-19
-9.15299e-19
-9.83365e-19
-9.63288e-19
-9.7349e-19
-9.73453e-19
-9.62247e-19
-9.58415e-19
-9.53273e-19
-9.41536e-19
-9.45113e-19
-9.3341e-19
-9.31215e-19
-9.07438e-19
-9.26645e-19
-9.10133e-19
-9.16247e-19
-9.09257e-19
-9.28054e-19
-9.25568e-19
-9.77574e-19
-9.61665e-19
-9.68658e-19
-9.81387e-19
-9.70195e-19
-9.63572e-19
-9.46464e-19
-9.39812e-19
-9.38256e-19
-9.29549e-19
-9.20743e-19
-9.0728e-19
-9.26914e-19
-9.12063e-19
-9.15981e-19
-9.12504e-19
-9.35407e-19
-9.21849e-19
-9.73947e-19
-9.67956e-19
-9.6722e-19
-9.62484e-19
-9.58803e-19
-9.50405e-19
-9.4093e-19
-9.35845e-19
-9.30048e-19
-9.2196e-19
-9.14625e-19
-9.10714e-19
-9.25711e-19
-9.16459e-19
-9.14217e-19
-9.08428e-19
-9.28015e-19
-9.17055e-19
-9.77438e-19
-9.66347e-19
-9.67829e-19
-9.56755e-19
-9.49797e-19
-9.46822e-19
-9.29634e-19
-9.31962e-19
-9.20205e-19
-9.14515e-19
-9.14066e-19
-9.09222e-19
-9.25978e-19
-9.0737e-19
-9.10812e-19
-9.0643e-19
-9.20698e-19
-9.11272e-19
-9.77448e-19
-9.62095e-19
-9.63778e-19
-9.65525e-19
-9.51653e-19
-9.47884e-19
-9.39212e-19
-9.28943e-19
-9.17439e-19
-9.14227e-19
-9.12012e-19
-9.11831e-19
-9.17342e-19
-9.0628e-19
-9.15286e-19
-9.10393e-19
-9.09338e-19
-9.0964e-19
-9.67289e-19
-9.6049e-19
-9.65274e-19
-9.64283e-19
-9.45604e-19
-9.4752e-19
-9.45048e-19
-9.18713e-19
-9.16126e-19
-9.17473e-19
-9.09818e-19
-9.08637e-19
-9.1694e-19
-9.04094e-19
-9.08062e-19
-9.14061e-19
-9.15825e-19
-9.10606e-19
-9.62729e-19
-9.61818e-19
-9.61732e-19
-9.5878e-19
-9.52707e-19
-9.49143e-19
-9.29034e-19
-9.21504e-19
-9.1643e-19
-9.14124e-19
-9.1603e-19
-9.0125e-19
-9.00059e-19
-8.93998e-19
-9.04413e-19
-9.05979e-19
-9.33109e-19
-9.03339e-19
-9.49186e-19
-9.57823e-19
-9.54858e-19
-9.50105e-19
-9.56094e-19
-9.42748e-19
-9.17835e-19
-9.22507e-19
-9.16481e-19
-9.0539e-19
-9.16008e-19
-8.87796e-19
-8.94237e-19
-8.98998e-19
-9.09865e-19
-9.01995e-19
-9.27231e-19
-9.07272e-19
-9.4721e-19
-9.54537e-19
-9.51607e-19
-9.41004e-19
-9.51878e-19
-9.40501e-19
-9.22522e-19
-9.29278e-19
-9.202e-19
-9.16217e-19
-9.12832e-19
-8.96808e-19
-9.05893e-19
-9.1563e-19
-9.17748e-19
-9.13107e-19
-9.09979e-19
-9.0293e-19
-9.53146e-19
-9.55223e-19
-9.47077e-19
-9.39402e-19
-9.40375e-19
-9.33596e-19
-9.2079e-19
-9.19773e-19
-9.16875e-19
-9.13258e-19
-9.06986e-19
-8.97815e-19
-9.03873e-19
-9.13781e-19
-9.10634e-19
-9.08638e-19
-9.04775e-19
-9.01068e-19
-9.50176e-19
-9.47992e-19
-9.47639e-19
-9.39018e-19
-9.31099e-19
-9.37231e-19
-9.26804e-19
-9.1205e-19
-9.00337e-19
-9.13855e-19
-9.01346e-19
-8.89773e-19
-8.9656e-19
-8.893e-19
-9.03617e-19
-8.94506e-19
-9.11328e-19
-8.98253e-19
-9.50388e-19
-9.50712e-19
-9.40324e-19
-9.40243e-19
-9.27866e-19
-9.26814e-19
-9.29674e-19
-9.23968e-19
-9.04149e-19
-8.97612e-19
-9.00663e-19
-8.81037e-19
-9.02976e-19
-8.83728e-19
-8.97857e-19
-8.95916e-19
-9.19247e-19
-9.05153e-19
-9.54063e-19
-9.38871e-19
-9.5392e-19
-9.47323e-19
-9.43652e-19
-9.30591e-19
-9.14735e-19
-9.26465e-19
-9.12019e-19
-9.072e-19
-8.90882e-19
-9.05948e-19
-8.83537e-19
-9.04627e-19
-8.83163e-19
-9.02483e-19
-8.88137e-19
-9.04718e-19
-9.06389e-19
-9.43506e-19
-9.3744e-19
-9.51649e-19
-9.44431e-19
-9.39409e-19
-9.3818e-19
-9.12781e-19
-9.24408e-19
-8.9822e-19
-9.01204e-19
-8.94092e-19
-9.01659e-19
-8.85694e-19
-8.93677e-19
-8.82571e-19
-9.02056e-19
-8.93182e-19
-8.92523e-19
-8.95442e-19
-9.28638e-19
-9.39353e-19
-9.41507e-19
-9.47141e-19
-9.36718e-19
-9.36682e-19
-9.37225e-19
-9.20293e-19
-9.17603e-19
-8.99161e-19
-8.9733e-19
-8.88805e-19
-8.99965e-19
-8.77411e-19
-8.96157e-19
-8.7765e-19
-8.99629e-19
-8.85312e-19
-8.95772e-19
-8.84344e-19
-9.34875e-19
-9.30918e-19
-9.39104e-19
-9.40216e-19
-9.31814e-19
-9.35526e-19
-9.27642e-19
-9.13077e-19
-9.16212e-19
-8.99416e-19
-8.93738e-19
-8.84354e-19
-8.91878e-19
-8.73853e-19
-8.93924e-19
-8.83539e-19
-9.01516e-19
-8.70625e-19
-9.12195e-19
-8.89869e-19
-9.38895e-19
-9.28273e-19
-9.40113e-19
-9.36858e-19
-9.32667e-19
-9.34828e-19
-9.2612e-19
-9.06823e-19
-9.1871e-19
-8.91568e-19
-8.99528e-19
-8.82304e-19
-8.84854e-19
-8.65914e-19
-8.92972e-19
-8.89851e-19
-9.06604e-19
-8.86924e-19
-9.18661e-19
-8.9336e-19
-9.27365e-19
-9.30876e-19
-9.29495e-19
-9.30544e-19
-9.25654e-19
-9.28472e-19
-9.20431e-19
-8.91889e-19
-9.13587e-19
-8.8707e-19
-8.98656e-19
-8.81021e-19
-8.8625e-19
-8.7298e-19
-8.96049e-19
-8.71405e-19
-9.05679e-19
-9.01075e-19
-8.97034e-19
-8.90974e-19
-9.27285e-19
-9.32121e-19
-9.27939e-19
-9.3505e-19
-9.21425e-19
-9.21112e-19
-9.20047e-19
-8.88776e-19
-9.20767e-19
-8.84229e-19
-8.97361e-19
-8.77463e-19
-8.85337e-19
-8.6683e-19
-8.93272e-19
-8.79187e-19
-9.00279e-19
-8.92896e-19
-9.03611e-19
-8.90826e-19
-9.27957e-19
-9.35157e-19
-9.24502e-19
-9.26912e-19
-9.18243e-19
-9.19802e-19
-9.22244e-19
-9.02619e-19
-9.1402e-19
-8.81137e-19
-8.8696e-19
-8.78913e-19
-8.89652e-19
-8.51899e-19
-8.86186e-19
-8.84138e-19
-8.78225e-19
-8.72827e-19
-9.0096e-19
-8.98317e-19
-9.3072e-19
-9.3e-19
-9.29423e-19
-9.32409e-19
-9.19131e-19
-9.214e-19
-9.23736e-19
-9.0937e-19
-9.13169e-19
-8.82595e-19
-8.93109e-19
-8.85533e-19
-8.91106e-19
-8.57838e-19
-8.87531e-19
-8.69053e-19
-8.96485e-19
-8.73383e-19
-8.93605e-19
-8.71708e-19
-9.27141e-19
-9.30687e-19
-9.35605e-19
-9.28268e-19
-9.07972e-19
-9.18659e-19
-9.15686e-19
-8.96783e-19
-9.04853e-19
-8.72739e-19
-8.95472e-19
-8.73063e-19
-8.79611e-19
-8.67413e-19
-8.77492e-19
-8.75514e-19
-8.97795e-19
-8.90778e-19
-8.88834e-19
-8.84205e-19
-9.28641e-19
-9.22772e-19
-9.22185e-19
-9.21762e-19
-9.15842e-19
-9.13538e-19
-9.12472e-19
-8.90563e-19
-8.93698e-19
-8.78264e-19
-8.90717e-19
-8.71088e-19
-8.80117e-19
-8.60822e-19
-8.88906e-19
-8.69956e-19
-8.86096e-19
-8.91226e-19
-9.03609e-19
-8.8731e-19
-9.21343e-19
-9.27423e-19
-9.18755e-19
-9.22547e-19
-9.17894e-19
-9.14018e-19
-9.12729e-19
-8.96216e-19
-9.0416e-19
-8.81471e-19
-8.88346e-19
-8.73871e-19
-8.86925e-19
-8.51536e-19
-8.78094e-19
-8.60677e-19
-8.87203e-19
-8.76483e-19
-8.95901e-19
-8.97614e-19
-9.14808e-19
-9.26916e-19
-9.12216e-19
-9.15285e-19
-9.14382e-19
-9.21305e-19
-9.09293e-19
-8.98338e-19
-9.03006e-19
-8.83749e-19
-8.86601e-19
-8.7038e-19
-8.82727e-19
-8.59647e-19
-8.75412e-19
-8.59863e-19
-8.86572e-19
-8.78614e-19
-8.92841e-19
-8.81297e-19
-9.17051e-19
-9.23096e-19
-9.1479e-19
-9.0687e-19
-9.16152e-19
-9.14063e-19
-9.11315e-19
-9.0405e-19
-8.98453e-19
-8.78613e-19
-8.82714e-19
-8.75602e-19
-8.88971e-19
-8.55841e-19
-8.76277e-19
-8.63285e-19
-8.84178e-19
-8.80133e-19
-8.94344e-19
-8.77713e-19
-9.17265e-19
-9.23773e-19
-9.15964e-19
-9.08844e-19
-9.1686e-19
-9.08274e-19
-9.10767e-19
-9.00255e-19
-8.95671e-19
-8.80896e-19
-8.75186e-19
-8.68268e-19
-8.83087e-19
-8.62649e-19
-8.89889e-19
-8.64437e-19
-8.89017e-19
-8.83773e-19
-8.91337e-19
-8.84801e-19
-9.14185e-19
-9.23497e-19
-9.17094e-19
-9.02413e-19
-9.17992e-19
-8.98284e-19
-9.07931e-19
-8.9635e-19
-8.93195e-19
-8.75012e-19
-8.76981e-19
-8.68337e-19
-8.80822e-19
-8.62993e-19
-8.87659e-19
-8.63004e-19
-8.84116e-19
-8.76701e-19
-8.96462e-19
-8.77109e-19
-9.11789e-19
-9.23632e-19
-9.14485e-19
-9.08372e-19
-9.16095e-19
-9.07258e-19
-9.04373e-19
-9.02708e-19
-8.93716e-19
-8.73906e-19
-8.81626e-19
-8.71727e-19
-8.72859e-19
-8.62282e-19
-8.73742e-19
-8.4901e-19
-8.88945e-19
-8.81836e-19
-8.85832e-19
-8.78631e-19
-9.12602e-19
-9.21703e-19
-9.17004e-19
-9.08729e-19
-9.13348e-19
-9.1209e-19
-9.0211e-19
-9.01456e-19
-8.91919e-19
-8.76012e-19
-8.91738e-19
-8.65831e-19
-8.72908e-19
-8.598e-19
-8.83645e-19
-8.51451e-19
-8.85979e-19
-8.79098e-19
-8.98248e-19
-8.93117e-19
-9.11498e-19
-9.16296e-19
-9.14466e-19
-8.99843e-19
-9.18426e-19
-9.14512e-19
-8.99642e-19
-8.97901e-19
-8.92838e-19
-8.79889e-19
-8.90024e-19
-8.51706e-19
-8.83476e-19
-8.52715e-19
-8.67194e-19
-8.56137e-19
-8.86371e-19
-8.67195e-19
-8.96206e-19
-8.80155e-19
-9.08616e-19
-9.09848e-19
-9.11e-19
-9.07906e-19
-9.1391e-19
-9.1464e-19
-9.00655e-19
-8.9822e-19
-8.88923e-19
-8.7072e-19
-8.84431e-19
-8.561e-19
-8.79173e-19
-8.55819e-19
-8.69992e-19
-8.39011e-19
-8.90259e-19
-8.71545e-19
-8.88979e-19
-8.80103e-19
-9.11543e-19
-9.13422e-19
-9.03947e-19
-9.10688e-19
-9.04604e-19
-9.11387e-19
-9.00157e-19
-8.92511e-19
-8.85251e-19
-8.75725e-19
-8.79816e-19
-8.47095e-19
-8.80817e-19
-8.60552e-19
-8.76073e-19
-8.43448e-19
-8.81016e-19
-8.64246e-19
-8.93214e-19
-8.81862e-19
-9.06623e-19
-9.14735e-19
-9.08879e-19
-9.10033e-19
-8.98801e-19
-9.03686e-19
-8.99591e-19
-8.94169e-19
-8.80463e-19
-8.75534e-19
-8.86912e-19
-8.5494e-19
-8.72696e-19
-8.57302e-19
-8.77082e-19
-8.60766e-19
-8.84821e-19
-8.62187e-19
-9.08856e-19
-8.75907e-19
-9.08475e-19
-9.15109e-19
-9.0754e-19
-9.12064e-19
-9.10824e-19
-9.01086e-19
-8.99057e-19
-8.85167e-19
-8.79152e-19
-8.70236e-19
-8.86431e-19
-8.50937e-19
-8.71256e-19
-8.47493e-19
-8.78835e-19
-8.60531e-19
-8.74116e-19
-8.65938e-19
-8.9996e-19
-8.77029e-19
-9.08596e-19
-9.07399e-19
-9.09541e-19
-9.03461e-19
-9.09764e-19
-8.99542e-19
-8.95204e-19
-8.85612e-19
-8.82641e-19
-8.69219e-19
-8.77538e-19
-8.54151e-19
-8.74196e-19
-8.57827e-19
-8.76822e-19
-8.62009e-19
-8.70928e-19
-8.66566e-19
-9.00294e-19
-8.85237e-19
-9.02493e-19
-9.11499e-19
-9.08136e-19
-9.02957e-19
-9.1609e-19
-9.08449e-19
-8.97353e-19
-8.87101e-19
-8.85112e-19
-8.78256e-19
-8.72831e-19
-8.50717e-19
-8.60418e-19
-8.47768e-19
-8.77737e-19
-8.56151e-19
-8.71464e-19
-8.66534e-19
-9.04901e-19
-8.86438e-19
-9.13456e-19
-9.08045e-19
-9.02917e-19
-8.86117e-19
-8.89934e-19
-8.72201e-19
-8.78799e-19
-8.57034e-19
-8.63172e-19
-8.42775e-19
-8.63637e-19
-8.46339e-19
-8.59948e-19
-8.65798e-19
-9.01429e-19
-8.93146e-19
-8.87111e-19
-8.65786e-19
-8.72763e-19
-8.59401e-19
-8.65218e-19
-8.56173e-19
-8.49199e-19
-8.36187e-19
-8.68803e-19
-8.65687e-19
-8.99818e-19
-8.88895e-19
-9.09455e-19
-9.10237e-19
-8.95274e-19
-9.15841e-19
-9.01733e-19
-9.11478e-19
-9.05662e-19
-9.21359e-19
-8.94823e-19
-9.0732e-19
-9.28783e-19
-9.00935e-19
-9.02962e-19
-9.19174e-19
-8.92846e-19
-9.1257e-19
-9.03655e-19
-9.13085e-19
-9.11957e-19
-9.27145e-19
-9.09741e-19
-9.0986e-19
-9.06276e-19
-9.23863e-19
-9.10665e-19
-9.05146e-19
-9.07169e-19
-9.15276e-19
-9.10843e-19
-9.05078e-19
-9.15824e-19
-9.07959e-19
-9.03862e-19
-9.07948e-19
-8.95193e-19
-9.11727e-19
-9.0653e-19
-9.17549e-19
-9.13077e-19
-8.87927e-19
-8.97322e-19
-9.09173e-19
-9.26175e-19
-9.17794e-19
-8.82533e-19
-9.01846e-19
-9.03488e-19
-9.30677e-19
-9.08188e-19
-8.75372e-19
-9.27881e-19
-9.06149e-19
-9.15923e-19
-9.05863e-19
-8.80323e-19
-9.23018e-19
-9.07248e-19
-9.1733e-19
-9.16993e-19
-9.23165e-19
-8.87483e-19
-9.2545e-19
-9.0669e-19
-9.22962e-19
-9.07771e-19
-9.1628e-19
-8.76782e-19
-9.20375e-19
-9.0055e-19
-9.19646e-19
-9.04588e-19
-9.16978e-19
-8.9382e-19
-8.95061e-19
-9.06566e-19
-9.06352e-19
-9.1648e-19
-9.10471e-19
-9.16069e-19
-9.09591e-19
-9.09447e-19
-8.89661e-19
-9.14425e-19
-9.01169e-19
-9.14076e-19
-9.20908e-19
-9.07089e-19
-9.17829e-19
-9.02793e-19
-8.9767e-19
-8.9046e-19
-9.13897e-19
-8.9327e-19
-9.05162e-19
-8.99746e-19
-9.07172e-19
-9.11908e-19
-8.94137e-19
-8.84382e-19
-8.91802e-19
-8.90856e-19
-9.03848e-19
-8.90646e-19
-9.07475e-19
-8.90045e-19
-9.02218e-19
-9.02093e-19
-9.05401e-19
-8.97548e-19
-8.99106e-19
-8.86551e-19
-9.09872e-19
-9.04814e-19
-9.11362e-19
-9.10637e-19
-9.1133e-19
-9.07177e-19
-9.10226e-19
-9.05057e-19
-9.07438e-19
-8.89901e-19
-8.975e-19
-8.95475e-19
-9.00765e-19
-9.04624e-19
-9.10783e-19
-9.08638e-19
-9.07133e-19
-9.07113e-19
-9.1021e-19
-8.92238e-19
-9.00299e-19
-8.94034e-19
-8.9517e-19
-9.05049e-19
-8.96053e-19
-9.08336e-19
-9.12087e-19
-9.0902e-19
-9.0272e-19
-8.96949e-19
-9.0222e-19
-8.82888e-19
-8.97139e-19
-9.04761e-19
-8.94979e-19
-9.03516e-19
-9.09277e-19
-9.03102e-19
-9.02308e-19
-8.95233e-19
-8.98815e-19
-8.98634e-19
-8.9322e-19
-8.95773e-19
-8.99374e-19
-9.13035e-19
-9.05457e-19
-9.04897e-19
-8.99512e-19
-9.02693e-19
-8.81609e-19
-9.12741e-19
-8.86267e-19
-8.92942e-19
-9.01694e-19
-9.07836e-19
-9.06066e-19
-9.03737e-19
-9.03626e-19
-8.93422e-19
-8.80884e-19
-8.96915e-19
-8.79794e-19
-8.82428e-19
-8.96464e-19
-9.0298e-19
-9.08191e-19
-8.9794e-19
-8.96324e-19
-8.86178e-19
-8.94128e-19
-8.85553e-19
-8.83034e-19
-8.91146e-19
-8.94636e-19
-8.95221e-19
-9.01793e-19
-8.96432e-19
-8.95978e-19
-8.85614e-19
-8.88668e-19
-8.85956e-19
-8.81313e-19
-8.98457e-19
-8.93073e-19
-8.90332e-19
-9.01805e-19
-8.91761e-19
-8.99534e-19
-8.78782e-19
-8.89154e-19
-8.92186e-19
-8.83303e-19
-8.93356e-19
-8.87098e-19
-8.90851e-19
-8.98135e-19
-8.96777e-19
-8.99895e-19
-8.99168e-19
-8.88448e-19
-8.95878e-19
-8.74712e-19
-8.98912e-19
-8.80891e-19
-8.89768e-19
-8.99111e-19
-8.92922e-19
-8.91133e-19
-9.05186e-19
-9.19119e-19
-9.12562e-19
-9.08054e-19
-9.06417e-19
-9.06999e-19
-9.04801e-19
-8.9727e-19
-8.9695e-19
-9.03212e-19
-9.07832e-19
-9.15336e-19
-9.18386e-19
-9.25032e-19
-9.21245e-19
-9.1313e-19
-9.19037e-19
-9.00818e-19
-9.12757e-19
-9.11522e-19
-9.09007e-19
-9.13074e-19
-9.04854e-19
-8.99432e-19
-8.94831e-19
-8.95138e-19
-8.86303e-19
-8.94207e-19
-9.0002e-19
-9.00531e-19
-9.08624e-19
-8.89371e-19
-8.99208e-19
-8.95059e-19
-9.07659e-19
-8.88065e-19
-8.7967e-19
-8.89391e-19
-8.94952e-19
-8.97355e-19
-9.01149e-19
-8.93394e-19
-8.96269e-19
-9.1742e-19
-9.03561e-19
-8.76003e-19
-8.83508e-19
-8.8084e-19
-8.84515e-19
-8.97427e-19
-8.89071e-19
-8.89268e-19
-8.92477e-19
-8.84455e-19
-8.94511e-19
-8.90821e-19
-8.88114e-19
-8.90826e-19
-9.07197e-19
-9.08533e-19
-8.94444e-19
-9.00594e-19
-9.00908e-19
-9.02562e-19
-8.99093e-19
-9.11325e-19
-9.08058e-19
-9.09421e-19
-9.12346e-19
-9.12082e-19
-9.2024e-19
-8.98066e-19
-9.02397e-19
-8.99844e-19
-9.03053e-19
-9.02425e-19
-8.99422e-19
-9.03971e-19
-8.96062e-19
-8.92783e-19
-8.93797e-19
-9.03012e-19
-8.99826e-19
-9.02519e-19
-9.07925e-19
-9.0791e-19
-8.92787e-19
-8.99639e-19
-8.95626e-19
-9.02852e-19
-8.9227e-19
-8.77286e-19
-8.92462e-19
-9.03398e-19
-9.02814e-19
-8.95197e-19
-8.93116e-19
-9.0582e-19
-9.00486e-19
-8.9231e-19
-8.93226e-19
-8.97791e-19
-9.13759e-19
-8.91796e-19
-8.99865e-19
-8.95111e-19
-8.94542e-19
-9.00059e-19
-8.93466e-19
-8.87879e-19
-8.90656e-19
-8.97606e-19
-9.0972e-19
-8.96801e-19
-8.87485e-19
-8.82798e-19
-8.96084e-19
-8.9393e-19
-8.88409e-19
-8.91053e-19
-8.90764e-19
-8.91684e-19
-8.97667e-19
-8.92699e-19
-8.88083e-19
-8.93309e-19
-8.96741e-19
-8.92661e-19
-8.94641e-19
-8.99571e-19
-9.03838e-19
-8.99621e-19
-9.00031e-19
-8.97775e-19
-9.05736e-19
-9.08862e-19
-8.94649e-19
-8.93221e-19
-8.90863e-19
-8.93831e-19
-9.04738e-19
-9.12806e-19
-9.05819e-19
-9.07076e-19
-9.05491e-19
-9.0492e-19
-9.03547e-19
-9.00034e-19
-9.02301e-19
-9.03917e-19
-9.07557e-19
-8.99794e-19
-8.93956e-19
-9.0164e-19
-9.03805e-19
-8.91414e-19
-8.97419e-19
-9.00747e-19
-8.94664e-19
-8.82381e-19
-9.00111e-19
-9.06527e-19
-8.84444e-19
-8.89038e-19
-8.87406e-19
-8.86819e-19
-8.93821e-19
-8.94897e-19
-9.03947e-19
-8.95546e-19
-8.8885e-19
-8.93488e-19
-8.90769e-19
-8.87598e-19
-8.79716e-19
-8.76492e-19
-8.88886e-19
-8.89081e-19
-8.89204e-19
-8.9976e-19
-8.99611e-19
-9.01395e-19
-9.04693e-19
-9.16623e-19
-9.15995e-19
-8.96191e-19
-8.99954e-19
-8.87845e-19
-8.96428e-19
-9.0022e-19
-8.97819e-19
-8.92276e-19
-8.8063e-19
-8.85462e-19
-8.87778e-19
-8.89056e-19
-8.85608e-19
-8.92271e-19
-8.8837e-19
-8.89545e-19
-8.78179e-19
-8.77943e-19
-8.90245e-19
-8.87285e-19
-8.86369e-19
-8.81307e-19
-8.85279e-19
-8.87137e-19
-8.88615e-19
-8.92983e-19
-8.9463e-19
-8.83842e-19
-8.95438e-19
-8.85709e-19
-8.86214e-19
-8.88197e-19
-8.90194e-19
-8.94564e-19
-9.097e-19
-8.96897e-19
-9.01085e-19
-9.04191e-19
-8.9968e-19
-9.04372e-19
-9.12566e-19
-8.95443e-19
-8.92894e-19
-8.92507e-19
-9.02439e-19
-8.93923e-19
-8.93143e-19
-8.9107e-19
-8.88063e-19
-8.95254e-19
-8.99744e-19
-8.84345e-19
-8.74039e-19
-8.78982e-19
-8.8904e-19
-8.82321e-19
-8.77401e-19
-8.73823e-19
-8.78892e-19
-8.69257e-19
-8.72377e-19
-8.80841e-19
-8.8607e-19
-8.88233e-19
-8.86225e-19
-8.87037e-19
-8.83537e-19
-8.8016e-19
-8.74973e-19
-8.78805e-19
-8.83675e-19
-8.98797e-19
-8.95907e-19
-9.03069e-19
-9.04907e-19
-9.12719e-19
-8.96144e-19
-9.01089e-19
-8.99468e-19
-8.83494e-19
-8.87216e-19
-8.96021e-19
-8.8558e-19
-8.88612e-19
-8.90203e-19
-8.83225e-19
-8.87875e-19
-8.75317e-19
-8.85002e-19
-8.84877e-19
-8.88837e-19
-8.9408e-19
-9.01583e-19
-8.8954e-19
-8.84118e-19
-8.86831e-19
-8.82047e-19
-8.82573e-19
-8.84721e-19
-8.8293e-19
-8.80151e-19
-8.86274e-19
-8.81998e-19
-8.8323e-19
-8.80038e-19
-8.80724e-19
-8.81137e-19
-8.84082e-19
-8.80479e-19
-8.89281e-19
-8.89281e-19
-8.86868e-19
-8.88842e-19
-8.95996e-19
-9.02529e-19
-8.94087e-19
-8.99795e-19
-9.15771e-19
-8.95973e-19
-8.89532e-19
-8.87089e-19
-8.85858e-19
-8.92454e-19
-8.97182e-19
-8.98675e-19
-8.9264e-19
-8.91189e-19
-8.88543e-19
-8.89454e-19
-8.96032e-19
-8.99834e-19
-9.0943e-19
-8.97606e-19
-8.89762e-19
-8.82437e-19
-8.79763e-19
-8.84608e-19
-8.81551e-19
-8.81293e-19
-8.85525e-19
-8.85322e-19
-8.88123e-19
-8.82681e-19
-8.86175e-19
-8.85524e-19
-8.89209e-19
-8.83468e-19
-8.7493e-19
-8.74046e-19
-8.72375e-19
-8.79201e-19
-9.10691e-19
-9.13962e-19
-9.07011e-19
-9.03603e-19
-9.02802e-19
-9.02405e-19
-9.00663e-19
-8.97184e-19
-8.90025e-19
-8.86427e-19
-8.93706e-19
-8.95073e-19
-8.8694e-19
-8.8345e-19
-8.95561e-19
-8.95505e-19
-8.88926e-19
-8.89216e-19
-8.9251e-19
-9.02181e-19
-8.95813e-19
-8.87804e-19
-8.84987e-19
-8.88746e-19
-8.86471e-19
-8.87792e-19
-8.82135e-19
-8.87309e-19
-8.84975e-19
-8.77937e-19
-8.75659e-19
-8.85752e-19
-8.86971e-19
-8.86784e-19
-8.87733e-19
-8.89851e-19
-8.90588e-19
-8.8342e-19
-8.87925e-19
-9.05606e-19
-9.03414e-19
-8.99068e-19
-9.08328e-19
-9.04908e-19
-9.03955e-19
-8.99087e-19
-8.9952e-19
-8.99607e-19
-9.02046e-19
-8.97284e-19
-8.93277e-19
-8.91711e-19
-8.9178e-19
-8.86591e-19
-8.90027e-19
-8.94675e-19
-8.92721e-19
-8.94143e-19
-9.07398e-19
-8.95731e-19
-8.82458e-19
-8.84956e-19
-8.88837e-19
-8.79885e-19
-8.73408e-19
-8.81565e-19
-8.85978e-19
-8.91415e-19
-9.02959e-19
-8.9051e-19
-8.91572e-19
-8.88464e-19
-8.92483e-19
-8.96791e-19
-9.0396e-19
-9.03473e-19
-9.04754e-19
-9.01355e-19
-9.13254e-19
-9.09927e-19
-9.07408e-19
-9.04861e-19
-9.01776e-19
-9.08119e-19
-9.0527e-19
-9.03779e-19
-9.0699e-19
-9.18427e-19
-9.13207e-19
-9.01104e-19
-8.97574e-19
-8.89062e-19
-8.92812e-19
-8.89555e-19
-8.98373e-19
-9.00976e-19
-8.99203e-19
-8.96627e-19
-8.95602e-19
-8.90166e-19
-8.88214e-19
-8.92716e-19
-8.83567e-19
-8.94566e-19
-8.9665e-19
-8.91408e-19
-8.93681e-19
-8.97283e-19
-8.94938e-19
-8.89779e-19
-8.86339e-19
-8.99383e-19
-8.98457e-19
-8.99978e-19
-9.02777e-19
-9.01583e-19
-9.13571e-19
-9.08256e-19
-9.09979e-19
-9.1258e-19
-9.03652e-19
-8.96118e-19
-8.99201e-19
-9.07253e-19
-8.99453e-19
-8.95961e-19
-8.98416e-19
-8.94344e-19
-9.02418e-19
-8.9299e-19
-8.92275e-19
-8.87742e-19
-8.92067e-19
-9.06706e-19
-8.99495e-19
-8.97389e-19
-8.93405e-19
-8.87409e-19
-8.88916e-19
-8.9911e-19
-8.96999e-19
-9.00964e-19
-8.94076e-19
-8.8681e-19
-9.05184e-19
-8.9898e-19
-8.84214e-19
-8.8862e-19
-9.03622e-19
-9.03381e-19
-8.97922e-19
-9.00425e-19
-9.00127e-19
-9.06805e-19
-9.05028e-19
-9.04817e-19
-9.10413e-19
-9.09043e-19
-9.07613e-19
-9.07331e-19
-9.07472e-19
-9.03634e-19
-9.0183e-19
-9.05952e-19
-9.04721e-19
-9.00783e-19
-9.00885e-19
-8.99698e-19
-9.07574e-19
-9.15048e-19
-9.05829e-19
-9.02799e-19
-9.03952e-19
-9.0596e-19
-9.00723e-19
-9.02859e-19
-9.07185e-19
-9.02708e-19
-9.09471e-19
-9.09395e-19
-9.08868e-19
-9.01962e-19
-9.03575e-19
-9.03854e-19
-9.07693e-19
-9.05539e-19
-9.01082e-19
-9.01059e-19
-9.02752e-19
-9.00688e-19
-9.08484e-19
-9.06374e-19
-9.12682e-19
-9.14469e-19
-9.05856e-19
-9.11023e-19
-9.08095e-19
-9.06682e-19
-9.05527e-19
-9.08095e-19
-9.01399e-19
-8.94392e-19
-8.98907e-19
-9.04089e-19
-9.02027e-19
-8.95763e-19
-8.87683e-19
-8.89558e-19
-8.91604e-19
-8.97739e-19
-8.93898e-19
-9.0223e-19
-9.00723e-19
-8.98558e-19
-8.95855e-19
-8.95213e-19
-9.02756e-19
-9.08201e-19
-9.03578e-19
-9.00359e-19
-8.93998e-19
-8.94108e-19
-8.88326e-19
-8.90137e-19
-8.96792e-19
-8.83214e-19
-9.16544e-19
-9.10699e-19
-9.16668e-19
-9.19488e-19
-9.12337e-19
-9.13775e-19
-9.15395e-19
-9.0643e-19
-9.11213e-19
-9.07396e-19
-9.03679e-19
-9.09335e-19
-9.14195e-19
-9.09766e-19
-9.10048e-19
-9.11417e-19
-9.08877e-19
-9.0621e-19
-8.97738e-19
-8.91247e-19
-9.02614e-19
-9.06378e-19
-9.10409e-19
-9.0868e-19
-9.09131e-19
-9.02785e-19
-9.1042e-19
-9.08175e-19
-9.06491e-19
-9.08154e-19
-9.00586e-19
-8.95017e-19
-8.97953e-19
-8.97255e-19
-9.00994e-19
-9.03731e-19
-9.06734e-19
-9.07888e-19
-9.18033e-19
-9.15502e-19
-9.1482e-19
-9.05952e-19
-9.07234e-19
-9.02213e-19
-9.05643e-19
-9.05104e-19
-9.06651e-19
-9.03968e-19
-8.97653e-19
-8.98208e-19
-9.02451e-19
-9.00355e-19
-9.0573e-19
-9.00842e-19
-8.89089e-19
-8.97433e-19
-9.02982e-19
-9.06612e-19
-9.03497e-19
-9.01274e-19
-8.99906e-19
-9.02649e-19
-8.93018e-19
-8.956e-19
-8.93022e-19
-8.90865e-19
-8.90841e-19
-8.90237e-19
-8.90311e-19
-8.91009e-19
-8.86835e-19
-9.16335e-19
-9.16204e-19
-9.2116e-19
-9.1765e-19
-9.2021e-19
-9.13742e-19
-9.10718e-19
-9.05691e-19
-9.03259e-19
-9.11778e-19
-9.23213e-19
-9.21621e-19
-9.14266e-19
-9.12991e-19
-9.12284e-19
-9.06661e-19
-9.09026e-19
-9.14585e-19
-9.16742e-19
-9.05828e-19
-9.12713e-19
-9.15382e-19
-9.11292e-19
-9.0803e-19
-9.0856e-19
-9.08088e-19
-9.08487e-19
-9.09712e-19
-9.03119e-19
-9.05692e-19
-9.06261e-19
-9.08891e-19
-9.13607e-19
-9.11242e-19
-9.18673e-19
-9.27232e-19
-9.29257e-19
-9.20943e-19
-9.21973e-19
-9.27504e-19
-9.21031e-19
-9.2338e-19
-9.33169e-19
-9.27406e-19
-9.16045e-19
-9.22631e-19
-9.18716e-19
-9.13453e-19
-9.20353e-19
-9.17429e-19
-9.18598e-19
-9.06933e-19
-9.04307e-19
-9.05179e-19
-9.05073e-19
-9.02344e-19
-9.01481e-19
-8.96392e-19
-9.0069e-19
-8.98271e-19
-8.96464e-19
-9.03702e-19
-8.9441e-19
-8.93912e-19
-8.97918e-19
-8.99771e-19
-9.00822e-19
-9.03836e-19
-9.16353e-19
-9.1739e-19
-9.14825e-19
-9.10627e-19
-9.16632e-19
-9.17785e-19
-9.1742e-19
-9.15737e-19
-9.15006e-19
-9.18106e-19
-9.14812e-19
-9.18037e-19
-9.16772e-19
-9.14572e-19
-9.18267e-19
-9.1465e-19
-9.18769e-19
-9.19175e-19
-9.21416e-19
-9.26209e-19
-9.22704e-19
-9.20196e-19
-9.21721e-19
-9.16778e-19
-9.12718e-19
-9.13494e-19
-9.16189e-19
-9.21062e-19
-9.22445e-19
-9.16622e-19
-9.14499e-19
-9.18294e-19
-9.13057e-19
-9.15946e-19
-9.44379e-19
-9.25191e-19
-9.19241e-19
-9.2353e-19
-9.21119e-19
-9.27112e-19
-9.31663e-19
-9.22445e-19
-9.23233e-19
-9.20774e-19
-9.25701e-19
-9.2778e-19
-9.30776e-19
-9.35245e-19
-9.24406e-19
-9.26156e-19
-9.25308e-19
-9.2686e-19
-9.17469e-19
-9.17306e-19
-9.17846e-19
-9.1597e-19
-9.11767e-19
-9.15558e-19
-9.15707e-19
-9.15387e-19
-9.13326e-19
-9.12418e-19
-9.10879e-19
-9.11329e-19
-9.16675e-19
-9.20373e-19
-9.22603e-19
-9.26433e-19
-9.28502e-19
-9.25055e-19
-9.1938e-19
-9.20452e-19
-9.28503e-19
-9.22724e-19
-9.23781e-19
-9.24125e-19
-9.23705e-19
-9.23097e-19
-9.22059e-19
-9.18705e-19
-9.18105e-19
-9.21864e-19
-9.22306e-19
-9.17327e-19
-9.22991e-19
-9.26471e-19
-9.28449e-19
-9.32492e-19
-9.31343e-19
-9.3276e-19
-9.29384e-19
-9.31407e-19
-9.25409e-19
-9.19921e-19
-9.23358e-19
-9.25728e-19
-9.2705e-19
-9.25845e-19
-9.24824e-19
-9.21122e-19
-9.2377e-19
-9.35349e-19
-9.33467e-19
-9.32179e-19
-9.31796e-19
-9.30182e-19
-9.26534e-19
-9.34504e-19
-9.36162e-19
-9.29784e-19
-9.2764e-19
-9.25505e-19
-9.20984e-19
-9.16286e-19
-9.16092e-19
-9.2514e-19
-9.30696e-19
-9.28776e-19
-9.318e-19
-9.28533e-19
-9.20373e-19
-9.22239e-19
-9.20009e-19
-9.21379e-19
-9.21994e-19
-9.23285e-19
-9.21233e-19
-9.21874e-19
-9.28014e-19
-9.34054e-19
-9.29381e-19
-9.2896e-19
-9.32745e-19
-9.30146e-19
-9.35409e-19
-9.34483e-19
-9.34038e-19
-9.33256e-19
-9.30521e-19
-9.25617e-19
-9.28558e-19
-9.28859e-19
-9.32378e-19
-9.39287e-19
-9.27522e-19
-9.28323e-19
-9.29536e-19
-9.27797e-19
-9.25679e-19
-9.34629e-19
-9.32602e-19
-9.32297e-19
-9.33607e-19
-9.36803e-19
-9.3289e-19
-9.32622e-19
-9.34353e-19
-9.32229e-19
-9.29193e-19
-9.26444e-19
-9.30883e-19
-9.25636e-19
-9.3014e-19
-9.27867e-19
-9.32301e-19
-9.2605e-19
-9.30162e-19
-9.31201e-19
-9.40507e-19
-9.36393e-19
-9.38334e-19
-9.41064e-19
-9.31537e-19
-9.34874e-19
-9.40115e-19
-9.34963e-19
-9.33008e-19
-9.32787e-19
-9.33993e-19
-9.38426e-19
-9.3288e-19
-9.27529e-19
-9.31755e-19
-9.35593e-19
-9.39083e-19
-9.349e-19
-9.32329e-19
-9.31166e-19
-9.29744e-19
-9.26429e-19
-9.2998e-19
-9.30546e-19
-9.26833e-19
-9.18559e-19
-9.26367e-19
-9.2968e-19
-9.30358e-19
-9.30998e-19
-9.49526e-19
-9.38972e-19
-9.38089e-19
-9.35202e-19
-9.41405e-19
-9.40045e-19
-9.39308e-19
-9.38828e-19
-9.38195e-19
-9.3947e-19
-9.4289e-19
-9.41865e-19
-9.45134e-19
-9.37869e-19
-9.27497e-19
-9.38107e-19
-9.4559e-19
-9.39259e-19
-9.32943e-19
-9.35754e-19
-9.36999e-19
-9.36748e-19
-9.35086e-19
-9.32111e-19
-9.34471e-19
-9.35014e-19
-9.34134e-19
-9.32185e-19
-9.27617e-19
-9.295e-19
-9.29644e-19
-9.44174e-19
-9.42873e-19
-9.40558e-19
-9.40152e-19
-9.40009e-19
-9.39866e-19
-9.40064e-19
-9.40147e-19
-9.39728e-19
-9.39144e-19
-9.3856e-19
-9.33929e-19
-9.26483e-19
-9.40666e-19
-9.37509e-19
-9.39078e-19
-9.41463e-19
-9.41236e-19
-9.37334e-19
-9.39331e-19
-9.42229e-19
-9.41919e-19
-9.40184e-19
-9.48765e-19
-9.49342e-19
-9.43579e-19
-9.39786e-19
-9.34938e-19
-9.38527e-19
-9.42591e-19
-9.48476e-19
-9.38602e-19
-9.35179e-19
-9.44287e-19
-9.41648e-19
-9.38587e-19
-9.34875e-19
-9.42719e-19
-9.495e-19
-9.44063e-19
-9.39028e-19
-9.44779e-19
-9.47802e-19
-9.48422e-19
-9.5396e-19
-9.52588e-19
-9.56995e-19
-9.59657e-19
-9.55862e-19
-9.50466e-19
-9.58189e-19
-9.51575e-19
-9.45645e-19
-9.44676e-19
-9.42516e-19
-9.4007e-19
-9.37046e-19
-9.36408e-19
-9.32689e-19
-9.31343e-19
-9.36252e-19
-9.36801e-19
-9.49927e-19
-9.45459e-19
-9.46345e-19
-9.49429e-19
-9.47076e-19
-9.53414e-19
-9.59766e-19
-9.49374e-19
-9.42977e-19
-9.36502e-19
-9.36482e-19
-9.4225e-19
-9.40337e-19
-9.37654e-19
-9.50321e-19
-9.41414e-19
-9.43099e-19
-9.35933e-19
-9.48116e-19
-9.50781e-19
-9.45405e-19
-9.38092e-19
-9.41998e-19
-9.45654e-19
-9.49571e-19
-9.45452e-19
-9.43454e-19
-9.44693e-19
-9.4245e-19
-9.40833e-19
-9.50076e-19
-9.37196e-19
-9.39801e-19
-9.45429e-19
-9.52001e-19
-9.40736e-19
-9.43285e-19
-9.49741e-19
-9.45809e-19
-9.44982e-19
-9.45877e-19
-9.48925e-19
-9.50733e-19
-9.47631e-19
-9.47804e-19
-9.50024e-19
-9.44043e-19
-9.46197e-19
-9.43636e-19
-9.47478e-19
-9.52875e-19
-9.52734e-19