/*--------------------------------*- C++ -*----------------------------------*\
  =========                 |
  \\      /  F ield         | OpenFOAM: The Open Source CFD Toolbox
   \\    /   O peration     | Website:  https://openfoam.org
    \\  /    A nd           | Version:  7
     \\/     M anipulation  |
\*---------------------------------------------------------------------------*/
FoamFile
{
    version     2.0;
    format      ascii;
    class       volScalarField;
    location    "108000";
    object      p;
}
// * * * * * * * * * * * * * * * * * * * * * * * * * * * * * * * * * * * * * //

dimensions      [0 2 -2 0 0 0 0];

internalField   nonuniform List<scalar> 
4782
(
-1.38997e-18
-1.39119e-18
-1.39221e-18
-1.39363e-18
-1.39593e-18
-1.39296e-18
-1.39092e-18
-1.39308e-18
-1.39505e-18
-1.39261e-18
-1.35042e-18
-1.3515e-18
-1.36403e-18
-1.36357e-18
-1.35848e-18
-1.37706e-18
-1.36987e-18
-1.35715e-18
-1.35946e-18
-1.35618e-18
-1.35779e-18
-1.3633e-18
-1.36552e-18
-1.36556e-18
-1.3635e-18
-1.36633e-18
-1.36758e-18
-1.36627e-18
-1.36712e-18
-1.36235e-18
-1.368e-18
-1.38072e-18
-1.38974e-18
-1.37611e-18
-1.37215e-18
-1.36697e-18
-1.36885e-18
-1.37718e-18
-1.38145e-18
-1.37897e-18
-1.37455e-18
-1.37515e-18
-1.38591e-18
-1.38618e-18
-1.38614e-18
-1.38262e-18
-1.38732e-18
-1.39236e-18
-1.38688e-18
-1.38788e-18
-1.39481e-18
-1.38988e-18
-1.38981e-18
-1.39812e-18
-1.39823e-18
-1.39134e-18
-1.38891e-18
-1.38758e-18
-1.39591e-18
-1.39753e-18
-1.39725e-18
-1.39593e-18
-1.3916e-18
-1.39052e-18
-1.39855e-18
-1.38026e-18
-1.38318e-18
-1.38003e-18
-1.38098e-18
-1.38134e-18
-1.38237e-18
-1.38819e-18
-1.38801e-18
-1.38427e-18
-1.3937e-18
-1.38372e-18
-1.38364e-18
-1.38496e-18
-1.38273e-18
-1.37808e-18
-1.38844e-18
-1.39373e-18
-1.39463e-18
-1.38567e-18
-1.3877e-18
-1.38557e-18
-1.39089e-18
-1.38799e-18
-1.38348e-18
-1.38425e-18
-1.38851e-18
-1.38586e-18
-1.37731e-18
-1.3885e-18
-1.3949e-18
-1.39133e-18
-1.391e-18
-1.39645e-18
-1.39528e-18
-1.39026e-18
-1.38929e-18
-1.39821e-18
-1.40191e-18
-1.39719e-18
-1.39596e-18
-1.39382e-18
-1.39905e-18
-1.39424e-18
-1.3975e-18
-1.39471e-18
-1.39872e-18
-1.4021e-18
-1.40067e-18
-1.39988e-18
-1.40126e-18
-1.40209e-18
-1.40551e-18
-1.4031e-18
-1.40067e-18
-1.40082e-18
-1.36955e-18
-1.35442e-18
-1.3631e-18
-1.36398e-18
-1.3608e-18
-1.36377e-18
-1.36735e-18
-1.37263e-18
-1.38714e-18
-1.37914e-18
-1.37505e-18
-1.37181e-18
-1.36168e-18
-1.35867e-18
-1.37082e-18
-1.37701e-18
-1.3808e-18
-1.37902e-18
-1.3783e-18
-1.37048e-18
-1.3737e-18
-1.37382e-18
-1.3775e-18
-1.38137e-18
-1.38127e-18
-1.38395e-18
-1.37942e-18
-1.37892e-18
-1.37794e-18
-1.38105e-18
-1.38812e-18
-1.38277e-18
-1.38746e-18
-1.38537e-18
-1.38455e-18
-1.38254e-18
-1.39334e-18
-1.39258e-18
-1.39171e-18
-1.39242e-18
-1.39334e-18
-1.39355e-18
-1.3937e-18
-1.39138e-18
-1.39382e-18
-1.40083e-18
-1.39936e-18
-1.40009e-18
-1.40349e-18
-1.40011e-18
-1.39859e-18
-1.40242e-18
-1.4041e-18
-1.40536e-18
-1.40384e-18
-1.37318e-18
-1.38375e-18
-1.38571e-18
-1.37914e-18
-1.37656e-18
-1.37104e-18
-1.37453e-18
-1.38569e-18
-1.38727e-18
-1.39007e-18
-1.38402e-18
-1.38147e-18
-1.38366e-18
-1.39459e-18
-1.39714e-18
-1.39491e-18
-1.39409e-18
-1.39687e-18
-1.3893e-18
-1.39395e-18
-1.39752e-18
-1.39602e-18
-1.38479e-18
-1.3892e-18
-1.39399e-18
-1.39547e-18
-1.3839e-18
-1.3922e-18
-1.39645e-18
-1.40003e-18
-1.40064e-18
-1.39113e-18
-1.3926e-18
-1.4068e-18
-1.39906e-18
-1.39225e-18
-1.39869e-18
-1.40328e-18
-1.40248e-18
-1.40434e-18
-1.40072e-18
-1.3978e-18
-1.39798e-18
-1.3987e-18
-1.4047e-18
-1.40619e-18
-1.41191e-18
-1.41142e-18
-1.40579e-18
-1.41064e-18
-1.41123e-18
-1.41106e-18
-1.41089e-18
-1.41217e-18
-1.41435e-18
-1.36983e-18
-1.36323e-18
-1.36557e-18
-1.36749e-18
-1.36913e-18
-1.37166e-18
-1.37184e-18
-1.37508e-18
-1.3695e-18
-1.35959e-18
-1.3711e-18
-1.38205e-18
-1.38207e-18
-1.37134e-18
-1.36701e-18
-1.37276e-18
-1.38087e-18
-1.37643e-18
-1.38236e-18
-1.37975e-18
-1.38764e-18
-1.38366e-18
-1.3935e-18
-1.392e-18
-1.39093e-18
-1.39274e-18
-1.40432e-18
-1.39327e-18
-1.38874e-18
-1.39233e-18
-1.3954e-18
-1.39645e-18
-1.40004e-18
-1.39001e-18
-1.39967e-18
-1.4087e-18
-1.40511e-18
-1.40534e-18
-1.40686e-18
-1.40831e-18
-1.40936e-18
-1.41101e-18
-1.41388e-18
-1.41823e-18
-1.41391e-18
-1.4152e-18
-1.41078e-18
-1.41279e-18
-1.41907e-18
-1.41669e-18
-1.41721e-18
-1.41846e-18
-1.42053e-18
-1.42208e-18
-1.42053e-18
-1.36272e-18
-1.3715e-18
-1.36632e-18
-1.36824e-18
-1.3713e-18
-1.37552e-18
-1.38206e-18
-1.3801e-18
-1.36636e-18
-1.37279e-18
-1.38253e-18
-1.38719e-18
-1.39855e-18
-1.40463e-18
-1.3969e-18
-1.38823e-18
-1.38233e-18
-1.38834e-18
-1.39207e-18
-1.40092e-18
-1.39726e-18
-1.39553e-18
-1.39658e-18
-1.39719e-18
-1.39562e-18
-1.39239e-18
-1.39863e-18
-1.39687e-18
-1.40256e-18
-1.39642e-18
-1.39693e-18
-1.40498e-18
-1.40954e-18
-1.41299e-18
-1.414e-18
-1.41751e-18
-1.41225e-18
-1.41328e-18
-1.41635e-18
-1.41841e-18
-1.41983e-18
-1.42064e-18
-1.42149e-18
-1.42785e-18
-1.42518e-18
-1.42027e-18
-1.42721e-18
-1.42651e-18
-1.42397e-18
-1.42739e-18
-1.43026e-18
-1.4257e-18
-1.42803e-18
-1.42693e-18
-1.42921e-18
-1.42927e-18
-1.42655e-18
-1.42526e-18
-1.42745e-18
-1.36577e-18
-1.36601e-18
-1.36232e-18
-1.36643e-18
-1.36907e-18
-1.36904e-18
-1.36867e-18
-1.37763e-18
-1.37643e-18
-1.36567e-18
-1.37788e-18
-1.3804e-18
-1.37952e-18
-1.38065e-18
-1.39017e-18
-1.38416e-18
-1.38377e-18
-1.38464e-18
-1.38898e-18
-1.39028e-18
-1.39576e-18
-1.39385e-18
-1.39806e-18
-1.40308e-18
-1.40073e-18
-1.40003e-18
-1.41082e-18
-1.41981e-18
-1.40923e-18
-1.40201e-18
-1.40455e-18
-1.41001e-18
-1.40634e-18
-1.41078e-18
-1.42089e-18
-1.42412e-18
-1.4137e-18
-1.41101e-18
-1.41846e-18
-1.4168e-18
-1.41935e-18
-1.41803e-18
-1.4223e-18
-1.42064e-18
-1.4244e-18
-1.42514e-18
-1.42241e-18
-1.42448e-18
-1.42646e-18
-1.42463e-18
-1.42651e-18
-1.42421e-18
-1.42295e-18
-1.424e-18
-1.42524e-18
-1.42433e-18
-1.4266e-18
-1.42758e-18
-1.42832e-18
-1.42486e-18
-1.37852e-18
-1.38187e-18
-1.37739e-18
-1.37794e-18
-1.38798e-18
-1.38281e-18
-1.3893e-18
-1.3908e-18
-1.38398e-18
-1.38172e-18
-1.38499e-18
-1.39356e-18
-1.40233e-18
-1.3973e-18
-1.39809e-18
-1.39708e-18
-1.39916e-18
-1.40332e-18
-1.40447e-18
-1.41179e-18
-1.40921e-18
-1.39918e-18
-1.3959e-18
-1.41e-18
-1.40941e-18
-1.41863e-18
-1.42297e-18
-1.41355e-18
-1.40904e-18
-1.41364e-18
-1.4206e-18
-1.42189e-18
-1.41235e-18
-1.41447e-18
-1.41655e-18
-1.42071e-18
-1.41564e-18
-1.41269e-18
-1.42262e-18
-1.42377e-18
-1.41811e-18
-1.42471e-18
-1.42557e-18
-1.41905e-18
-1.42018e-18
-1.42925e-18
-1.43006e-18
-1.43006e-18
-1.42541e-18
-1.42736e-18
-1.42719e-18
-1.42704e-18
-1.42968e-18
-1.4286e-18
-1.42674e-18
-1.42647e-18
-1.42691e-18
-1.4319e-18
-1.42912e-18
-1.42865e-18
-1.42557e-18
-1.42508e-18
-1.42634e-18
-1.42927e-18
-1.42852e-18
-1.42535e-18
-1.42736e-18
-1.42654e-18
-1.42701e-18
-1.42672e-18
-1.42738e-18
-1.42844e-18
-1.4272e-18
-1.42761e-18
-1.42703e-18
-1.42749e-18
-1.42805e-18
-1.42857e-18
-1.42799e-18
-1.42814e-18
-1.42826e-18
-1.42792e-18
-1.42793e-18
-1.42817e-18
-1.42797e-18
-1.42845e-18
-1.42826e-18
-1.42805e-18
-1.42835e-18
-1.42855e-18
-1.42854e-18
-1.42842e-18
-1.4284e-18
-1.42835e-18
-1.42834e-18
-1.35809e-18
-1.36896e-18
-1.37291e-18
-1.37267e-18
-1.36042e-18
-1.36765e-18
-1.36958e-18
-1.37843e-18
-1.37564e-18
-1.37985e-18
-1.3815e-18
-1.38085e-18
-1.38607e-18
-1.39169e-18
-1.39035e-18
-1.39218e-18
-1.39478e-18
-1.38997e-18
-1.40085e-18
-1.40824e-18
-1.40681e-18
-1.4058e-18
-1.40349e-18
-1.40387e-18
-1.40503e-18
-1.40607e-18
-1.40822e-18
-1.41474e-18
-1.41433e-18
-1.41042e-18
-1.40885e-18
-1.41409e-18
-1.41502e-18
-1.41856e-18
-1.41552e-18
-1.41862e-18
-1.42227e-18
-1.42138e-18
-1.41817e-18
-1.41632e-18
-1.419e-18
-1.42227e-18
-1.42136e-18
-1.42135e-18
-1.42103e-18
-1.42308e-18
-1.42243e-18
-1.42292e-18
-1.42228e-18
-1.42053e-18
-1.42356e-18
-1.42546e-18
-1.42325e-18
-1.42229e-18
-1.4241e-18
-1.42277e-18
-1.42375e-18
-1.42166e-18
-1.42207e-18
-1.42096e-18
-1.42025e-18
-1.42194e-18
-1.42055e-18
-1.42275e-18
-1.42612e-18
-1.42359e-18
-1.42206e-18
-1.42286e-18
-1.4221e-18
-1.42325e-18
-1.42368e-18
-1.42372e-18
-1.42234e-18
-1.42191e-18
-1.42226e-18
-1.42247e-18
-1.42228e-18
-1.42274e-18
-1.42229e-18
-1.42243e-18
-1.42304e-18
-1.42246e-18
-1.42285e-18
-1.42294e-18
-1.42299e-18
-1.42265e-18
-1.4225e-18
-1.42274e-18
-1.42263e-18
-1.42283e-18
-1.42288e-18
-1.42264e-18
-1.42286e-18
-1.4229e-18
-1.42288e-18
-1.39084e-18
-1.39769e-18
-1.40174e-18
-1.39617e-18
-1.39692e-18
-1.3951e-18
-1.3962e-18
-1.4044e-18
-1.40101e-18
-1.40446e-18
-1.39236e-18
-1.39004e-18
-1.40743e-18
-1.41381e-18
-1.40754e-18
-1.40025e-18
-1.40532e-18
-1.4119e-18
-1.40413e-18
-1.40488e-18
-1.40698e-18
-1.40773e-18
-1.40724e-18
-1.40556e-18
-1.40918e-18
-1.40902e-18
-1.40472e-18
-1.40836e-18
-1.40828e-18
-1.41577e-18
-1.41495e-18
-1.41234e-18
-1.41325e-18
-1.41159e-18
-1.4169e-18
-1.4305e-18
-1.42253e-18
-1.42072e-18
-1.42039e-18
-1.42213e-18
-1.42067e-18
-1.42157e-18
-1.4244e-18
-1.42445e-18
-1.42396e-18
-1.42325e-18
-1.41674e-18
-1.41863e-18
-1.42241e-18
-1.42834e-18
-1.42326e-18
-1.42355e-18
-1.42589e-18
-1.42822e-18
-1.42666e-18
-1.42483e-18
-1.42723e-18
-1.42715e-18
-1.42493e-18
-1.42599e-18
-1.42231e-18
-1.42346e-18
-1.42431e-18
-1.42337e-18
-1.42522e-18
-1.42543e-18
-1.426e-18
-1.42797e-18
-1.42745e-18
-1.42668e-18
-1.42552e-18
-1.4252e-18
-1.42592e-18
-1.42657e-18
-1.42727e-18
-1.42632e-18
-1.42647e-18
-1.42687e-18
-1.42714e-18
-1.42759e-18
-1.42731e-18
-1.42682e-18
-1.42673e-18
-1.42733e-18
-1.42716e-18
-1.42657e-18
-1.42663e-18
-1.42682e-18
-1.42685e-18
-1.42705e-18
-1.42707e-18
-1.42693e-18
-1.42681e-18
-1.42697e-18
-1.42696e-18
-1.37757e-18
-1.38344e-18
-1.37778e-18
-1.39006e-18
-1.38329e-18
-1.38303e-18
-1.39235e-18
-1.39465e-18
-1.40327e-18
-1.40093e-18
-1.38875e-18
-1.3911e-18
-1.39732e-18
-1.39801e-18
-1.39328e-18
-1.40008e-18
-1.40133e-18
-1.39709e-18
-1.40485e-18
-1.4022e-18
-1.40221e-18
-1.39755e-18
-1.39759e-18
-1.39467e-18
-1.4015e-18
-1.40415e-18
-1.39698e-18
-1.4001e-18
-1.40338e-18
-1.41167e-18
-1.40319e-18
-1.40162e-18
-1.40107e-18
-1.40897e-18
-1.40233e-18
-1.3985e-18
-1.40296e-18
-1.40574e-18
-1.41211e-18
-1.40515e-18
-1.40806e-18
-1.4105e-18
-1.41315e-18
-1.41193e-18
-1.41185e-18
-1.41589e-18
-1.41804e-18
-1.41726e-18
-1.41227e-18
-1.41473e-18
-1.41517e-18
-1.41604e-18
-1.41556e-18
-1.41778e-18
-1.4172e-18
-1.41454e-18
-1.41792e-18
-1.41597e-18
-1.41688e-18
-1.41899e-18
-1.41893e-18
-1.41573e-18
-1.4162e-18
-1.41804e-18
-1.41704e-18
-1.41851e-18
-1.41863e-18
-1.41805e-18
-1.41753e-18
-1.41907e-18
-1.41883e-18
-1.4185e-18
-1.41945e-18
-1.41871e-18
-1.4191e-18
-1.41962e-18
-1.41925e-18
-1.41944e-18
-1.41866e-18
-1.41906e-18
-1.41918e-18
-1.41984e-18
-1.42e-18
-1.41983e-18
-1.41987e-18
-1.41973e-18
-1.41979e-18
-1.41968e-18
-1.41974e-18
-1.41986e-18
-1.41997e-18
-1.41995e-18
-1.41986e-18
-1.41987e-18
-1.41992e-18
-1.42095e-18
-1.40945e-18
-1.40111e-18
-1.40381e-18
-1.39285e-18
-1.40163e-18
-1.40269e-18
-1.39715e-18
-1.40694e-18
-1.41557e-18
-1.40619e-18
-1.40788e-18
-1.41297e-18
-1.41118e-18
-1.4107e-18
-1.40553e-18
-1.41079e-18
-1.41567e-18
-1.40601e-18
-1.41108e-18
-1.40975e-18
-1.41356e-18
-1.42025e-18
-1.41043e-18
-1.41747e-18
-1.41273e-18
-1.40654e-18
-1.41337e-18
-1.41534e-18
-1.41903e-18
-1.41652e-18
-1.41112e-18
-1.41124e-18
-1.41295e-18
-1.41548e-18
-1.4148e-18
-1.41529e-18
-1.4113e-18
-1.4157e-18
-1.42009e-18
-1.40927e-18
-1.41034e-18
-1.41585e-18
-1.41782e-18
-1.41737e-18
-1.41605e-18
-1.42008e-18
-1.4203e-18
-1.41745e-18
-1.4224e-18
-1.42486e-18
-1.42236e-18
-1.42048e-18
-1.42345e-18
-1.42468e-18
-1.42258e-18
-1.42048e-18
-1.42264e-18
-1.42423e-18
-1.42218e-18
-1.42011e-18
-1.42146e-18
-1.42311e-18
-1.42256e-18
-1.42233e-18
-1.42169e-18
-1.42179e-18
-1.42249e-18
-1.42296e-18
-1.42258e-18
-1.42232e-18
-1.42338e-18
-1.42373e-18
-1.42253e-18
-1.42358e-18
-1.4233e-18
-1.42387e-18
-1.42408e-18
-1.42433e-18
-1.42395e-18
-1.42446e-18
-1.42407e-18
-1.42372e-18
-1.42402e-18
-1.42437e-18
-1.42398e-18
-1.42356e-18
-1.42394e-18
-1.4239e-18
-1.42393e-18
-1.42407e-18
-1.42409e-18
-1.42404e-18
-1.42402e-18
-1.42401e-18
-1.3954e-18
-1.40277e-18
-1.40576e-18
-1.40243e-18
-1.39292e-18
-1.40143e-18
-1.40814e-18
-1.40563e-18
-1.40625e-18
-1.41295e-18
-1.39366e-18
-1.40145e-18
-1.40245e-18
-1.40199e-18
-1.40525e-18
-1.40413e-18
-1.40471e-18
-1.40883e-18
-1.40114e-18
-1.405e-18
-1.40578e-18
-1.40307e-18
-1.40539e-18
-1.40421e-18
-1.39887e-18
-1.40226e-18
-1.40653e-18
-1.40846e-18
-1.40855e-18
-1.40162e-18
-1.4056e-18
-1.40855e-18
-1.40714e-18
-1.4015e-18
-1.41137e-18
-1.41736e-18
-1.4132e-18
-1.40522e-18
-1.40732e-18
-1.41132e-18
-1.41448e-18
-1.41363e-18
-1.4131e-18
-1.40972e-18
-1.41558e-18
-1.41343e-18
-1.41395e-18
-1.41731e-18
-1.41829e-18
-1.41593e-18
-1.41059e-18
-1.41507e-18
-1.41732e-18
-1.41697e-18
-1.41511e-18
-1.41589e-18
-1.41859e-18
-1.4162e-18
-1.41539e-18
-1.41543e-18
-1.41353e-18
-1.41307e-18
-1.41652e-18
-1.41686e-18
-1.41484e-18
-1.41493e-18
-1.41567e-18
-1.41502e-18
-1.41557e-18
-1.41568e-18
-1.41538e-18
-1.41607e-18
-1.41608e-18
-1.41685e-18
-1.41669e-18
-1.41646e-18
-1.41627e-18
-1.41682e-18
-1.4168e-18
-1.41713e-18
-1.41633e-18
-1.41666e-18
-1.41714e-18
-1.41718e-18
-1.41685e-18
-1.41658e-18
-1.41686e-18
-1.41722e-18
-1.41741e-18
-1.41711e-18
-1.41699e-18
-1.417e-18
-1.41709e-18
-1.41708e-18
-1.41707e-18
-1.42988e-18
-1.42906e-18
-1.4305e-18
-1.4233e-18
-1.41669e-18
-1.4323e-18
-1.42586e-18
-1.42548e-18
-1.43227e-18
-1.42547e-18
-1.42109e-18
-1.42568e-18
-1.4222e-18
-1.41701e-18
-1.42531e-18
-1.42476e-18
-1.42457e-18
-1.42707e-18
-1.42309e-18
-1.42046e-18
-1.42786e-18
-1.43196e-18
-1.42657e-18
-1.42383e-18
-1.41839e-18
-1.42832e-18
-1.4279e-18
-1.42329e-18
-1.42182e-18
-1.42136e-18
-1.4195e-18
-1.41546e-18
-1.41811e-18
-1.41103e-18
-1.4175e-18
-1.421e-18
-1.41441e-18
-1.41183e-18
-1.41485e-18
-1.41994e-18
-1.42402e-18
-1.41931e-18
-1.41443e-18
-1.41662e-18
-1.42098e-18
-1.41592e-18
-1.42021e-18
-1.42043e-18
-1.41843e-18
-1.41957e-18
-1.42019e-18
-1.42061e-18
-1.42056e-18
-1.42057e-18
-1.41989e-18
-1.4207e-18
-1.41801e-18
-1.41884e-18
-1.42114e-18
-1.42211e-18
-1.42112e-18
-1.42337e-18
-1.42184e-18
-1.41973e-18
-1.41788e-18
-1.42009e-18
-1.42104e-18
-1.42039e-18
-1.42108e-18
-1.42225e-18
-1.42116e-18
-1.42144e-18
-1.4207e-18
-1.42107e-18
-1.42088e-18
-1.42054e-18
-1.42115e-18
-1.42145e-18
-1.42179e-18
-1.42157e-18
-1.42153e-18
-1.42159e-18
-1.42163e-18
-1.42143e-18
-1.42098e-18
-1.42145e-18
-1.42165e-18
-1.42168e-18
-1.42196e-18
-1.42174e-18
-1.42174e-18
-1.42181e-18
-1.42174e-18
-1.42171e-18
-1.42172e-18
-1.4022e-18
-1.40293e-18
-1.41098e-18
-1.41695e-18
-1.42251e-18
-1.41648e-18
-1.42128e-18
-1.41103e-18
-1.41808e-18
-1.42466e-18
-1.41707e-18
-1.42633e-18
-1.41984e-18
-1.4134e-18
-1.42503e-18
-1.41746e-18
-1.42166e-18
-1.42388e-18
-1.41464e-18
-1.41285e-18
-1.40525e-18
-1.41428e-18
-1.41114e-18
-1.41039e-18
-1.41376e-18
-1.41052e-18
-1.40328e-18
-1.41586e-18
-1.4124e-18
-1.4169e-18
-1.41525e-18
-1.41155e-18
-1.40819e-18
-1.41379e-18
-1.41364e-18
-1.41959e-18
-1.41386e-18
-1.41592e-18
-1.4106e-18
-1.41039e-18
-1.41104e-18
-1.41085e-18
-1.41052e-18
-1.41515e-18
-1.41185e-18
-1.40818e-18
-1.40777e-18
-1.40985e-18
-1.41146e-18
-1.41126e-18
-1.41099e-18
-1.41036e-18
-1.40887e-18
-1.41189e-18
-1.41477e-18
-1.41389e-18
-1.41275e-18
-1.41158e-18
-1.41227e-18
-1.41179e-18
-1.41284e-18
-1.41462e-18
-1.41441e-18
-1.41445e-18
-1.41267e-18
-1.41245e-18
-1.41375e-18
-1.41479e-18
-1.41495e-18
-1.41381e-18
-1.4132e-18
-1.41547e-18
-1.41449e-18
-1.4134e-18
-1.41403e-18
-1.41436e-18
-1.41425e-18
-1.41413e-18
-1.41489e-18
-1.41495e-18
-1.41398e-18
-1.41406e-18
-1.41448e-18
-1.4146e-18
-1.41455e-18
-1.41461e-18
-1.41465e-18
-1.41463e-18
-1.41457e-18
-1.41472e-18
-1.41469e-18
-1.4148e-18
-1.41471e-18
-1.41473e-18
-1.41471e-18
-1.42266e-18
-1.42838e-18
-1.43116e-18
-1.42754e-18
-1.42801e-18
-1.4347e-18
-1.4421e-18
-1.42775e-18
-1.42719e-18
-1.4301e-18
-1.42786e-18
-1.42273e-18
-1.42072e-18
-1.43109e-18
-1.42648e-18
-1.42409e-18
-1.41695e-18
-1.4137e-18
-1.42673e-18
-1.42751e-18
-1.42492e-18
-1.42365e-18
-1.42891e-18
-1.42455e-18
-1.41659e-18
-1.4175e-18
-1.42185e-18
-1.4305e-18
-1.4265e-18
-1.42486e-18
-1.4238e-18
-1.42366e-18
-1.42407e-18
-1.42621e-18
-1.4289e-18
-1.42365e-18
-1.43089e-18
-1.42437e-18
-1.42296e-18
-1.42755e-18
-1.42753e-18
-1.42802e-18
-1.42707e-18
-1.42947e-18
-1.42762e-18
-1.41892e-18
-1.4275e-18
-1.42876e-18
-1.42471e-18
-1.42224e-18
-1.42373e-18
-1.42286e-18
-1.4242e-18
-1.42178e-18
-1.42296e-18
-1.42245e-18
-1.42437e-18
-1.42377e-18
-1.42349e-18
-1.42263e-18
-1.42216e-18
-1.42145e-18
-1.424e-18
-1.42448e-18
-1.42265e-18
-1.42411e-18
-1.42399e-18
-1.42316e-18
-1.42329e-18
-1.42306e-18
-1.42273e-18
-1.42143e-18
-1.42146e-18
-1.42138e-18
-1.42235e-18
-1.42307e-18
-1.42297e-18
-1.4231e-18
-1.42363e-18
-1.42339e-18
-1.42359e-18
-1.42289e-18
-1.42296e-18
-1.42325e-18
-1.42314e-18
-1.42296e-18
-1.42271e-18
-1.42295e-18
-1.42309e-18
-1.42312e-18
-1.42304e-18
-1.42309e-18
-1.42315e-18
-1.42314e-18
-1.42311e-18
-1.40885e-18
-1.41761e-18
-1.41487e-18
-1.41055e-18
-1.40924e-18
-1.40726e-18
-1.41703e-18
-1.42495e-18
-1.42588e-18
-1.41793e-18
-1.42157e-18
-1.42488e-18
-1.42481e-18
-1.41731e-18
-1.41665e-18
-1.41774e-18
-1.42161e-18
-1.41268e-18
-1.41713e-18
-1.4094e-18
-1.41066e-18
-1.41707e-18
-1.41957e-18
-1.40886e-18
-1.41074e-18
-1.41975e-18
-1.42172e-18
-1.41142e-18
-1.40795e-18
-1.41606e-18
-1.41669e-18
-1.41525e-18
-1.41136e-18
-1.40961e-18
-1.41401e-18
-1.41335e-18
-1.41366e-18
-1.41553e-18
-1.41308e-18
-1.41159e-18
-1.41466e-18
-1.41256e-18
-1.41488e-18
-1.41479e-18
-1.41799e-18
-1.41583e-18
-1.41363e-18
-1.41223e-18
-1.41791e-18
-1.41917e-18
-1.41568e-18
-1.413e-18
-1.4158e-18
-1.41768e-18
-1.41973e-18
-1.41803e-18
-1.41705e-18
-1.41441e-18
-1.41494e-18
-1.41748e-18
-1.41499e-18
-1.41748e-18
-1.41704e-18
-1.4157e-18
-1.41718e-18
-1.41739e-18
-1.4171e-18
-1.41671e-18
-1.41694e-18
-1.41761e-18
-1.41685e-18
-1.41594e-18
-1.41678e-18
-1.41663e-18
-1.41639e-18
-1.41716e-18
-1.41781e-18
-1.41787e-18
-1.41683e-18
-1.41684e-18
-1.41722e-18
-1.41681e-18
-1.41679e-18
-1.41716e-18
-1.41719e-18
-1.4169e-18
-1.41682e-18
-1.41693e-18
-1.41723e-18
-1.41731e-18
-1.41723e-18
-1.41698e-18
-1.41714e-18
-1.41723e-18
-1.41721e-18
-1.43433e-18
-1.43423e-18
-1.42026e-18
-1.42312e-18
-1.42731e-18
-1.42586e-18
-1.42576e-18
-1.43583e-18
-1.43166e-18
-1.43085e-18
-1.43351e-18
-1.43967e-18
-1.44298e-18
-1.43325e-18
-1.42801e-18
-1.42499e-18
-1.43e-18
-1.43114e-18
-1.42873e-18
-1.4341e-18
-1.43037e-18
-1.42832e-18
-1.42914e-18
-1.42919e-18
-1.42819e-18
-1.42877e-18
-1.42698e-18
-1.43427e-18
-1.42561e-18
-1.42299e-18
-1.42051e-18
-1.42684e-18
-1.42664e-18
-1.43086e-18
-1.4244e-18
-1.4241e-18
-1.42902e-18
-1.42117e-18
-1.42195e-18
-1.42799e-18
-1.42797e-18
-1.42677e-18
-1.42705e-18
-1.42874e-18
-1.42802e-18
-1.42867e-18
-1.42614e-18
-1.42644e-18
-1.42801e-18
-1.42768e-18
-1.42389e-18
-1.4281e-18
-1.42865e-18
-1.42365e-18
-1.42461e-18
-1.42562e-18
-1.42738e-18
-1.4236e-18
-1.4236e-18
-1.42863e-18
-1.42911e-18
-1.42437e-18
-1.42407e-18
-1.42539e-18
-1.42646e-18
-1.42562e-18
-1.42433e-18
-1.42535e-18
-1.42597e-18
-1.4255e-18
-1.42524e-18
-1.42401e-18
-1.42554e-18
-1.42617e-18
-1.42483e-18
-1.42493e-18
-1.42569e-18
-1.42508e-18
-1.42442e-18
-1.42484e-18
-1.42519e-18
-1.42486e-18
-1.42484e-18
-1.42484e-18
-1.42464e-18
-1.42483e-18
-1.42483e-18
-1.4247e-18
-1.42466e-18
-1.42466e-18
-1.42463e-18
-1.42456e-18
-1.42459e-18
-1.42461e-18
-1.42462e-18
-1.43129e-18
-1.42284e-18
-1.42633e-18
-1.4252e-18
-1.43461e-18
-1.43462e-18
-1.43356e-18
-1.42695e-18
-1.43684e-18
-1.43024e-18
-1.42482e-18
-1.42774e-18
-1.42826e-18
-1.43051e-18
-1.42958e-18
-1.43061e-18
-1.42864e-18
-1.42363e-18
-1.42912e-18
-1.42877e-18
-1.42927e-18
-1.42875e-18
-1.42639e-18
-1.42354e-18
-1.41793e-18
-1.41651e-18
-1.41143e-18
-1.4184e-18
-1.42211e-18
-1.41749e-18
-1.41763e-18
-1.41564e-18
-1.41424e-18
-1.4123e-18
-1.41619e-18
-1.41728e-18
-1.41895e-18
-1.41726e-18
-1.41584e-18
-1.41983e-18
-1.41822e-18
-1.41454e-18
-1.41572e-18
-1.41675e-18
-1.41672e-18
-1.41262e-18
-1.41481e-18
-1.4148e-18
-1.41468e-18
-1.40965e-18
-1.41206e-18
-1.41485e-18
-1.41244e-18
-1.41202e-18
-1.41203e-18
-1.41708e-18
-1.41668e-18
-1.41388e-18
-1.41358e-18
-1.41288e-18
-1.41297e-18
-1.41328e-18
-1.4135e-18
-1.41413e-18
-1.41582e-18
-1.41684e-18
-1.41591e-18
-1.41591e-18
-1.41603e-18
-1.4165e-18
-1.41712e-18
-1.4165e-18
-1.41594e-18
-1.41596e-18
-1.41709e-18
-1.41666e-18
-1.41662e-18
-1.41737e-18
-1.41672e-18
-1.41651e-18
-1.41616e-18
-1.41692e-18
-1.41739e-18
-1.41699e-18
-1.4172e-18
-1.41748e-18
-1.41748e-18
-1.41759e-18
-1.41757e-18
-1.41743e-18
-1.41758e-18
-1.41761e-18
-1.41752e-18
-1.41751e-18
-1.41752e-18
-1.43497e-18
-1.42346e-18
-1.42299e-18
-1.42966e-18
-1.44238e-18
-1.44039e-18
-1.43754e-18
-1.43506e-18
-1.43628e-18
-1.42989e-18
-1.43434e-18
-1.43359e-18
-1.43815e-18
-1.43351e-18
-1.43727e-18
-1.43717e-18
-1.43719e-18
-1.43445e-18
-1.43387e-18
-1.43244e-18
-1.43679e-18
-1.43197e-18
-1.43099e-18
-1.43413e-18
-1.43428e-18
-1.43116e-18
-1.42829e-18
-1.42908e-18
-1.42958e-18
-1.4318e-18
-1.43371e-18
-1.43224e-18
-1.42671e-18
-1.42562e-18
-1.43033e-18
-1.42917e-18
-1.42705e-18
-1.43152e-18
-1.43256e-18
-1.42962e-18
-1.42382e-18
-1.42516e-18
-1.42587e-18
-1.42377e-18
-1.41988e-18
-1.42256e-18
-1.42344e-18
-1.42467e-18
-1.42537e-18
-1.42359e-18
-1.42747e-18
-1.42728e-18
-1.42665e-18
-1.42664e-18
-1.42648e-18
-1.4269e-18
-1.42619e-18
-1.42533e-18
-1.4242e-18
-1.42615e-18
-1.42552e-18
-1.4281e-18
-1.42631e-18
-1.42523e-18
-1.42509e-18
-1.42648e-18
-1.42474e-18
-1.42568e-18
-1.42571e-18
-1.42738e-18
-1.4281e-18
-1.42707e-18
-1.4264e-18
-1.42668e-18
-1.42685e-18
-1.42692e-18
-1.42725e-18
-1.4276e-18
-1.4272e-18
-1.42752e-18
-1.42722e-18
-1.42717e-18
-1.42756e-18
-1.4274e-18
-1.42691e-18
-1.42733e-18
-1.42757e-18
-1.42704e-18
-1.42718e-18
-1.42723e-18
-1.42723e-18
-1.4273e-18
-1.4272e-18
-1.42726e-18
-1.42724e-18
-1.42675e-18
-1.42405e-18
-1.42128e-18
-1.42187e-18
-1.42203e-18
-1.4321e-18
-1.42364e-18
-1.42512e-18
-1.42966e-18
-1.4361e-18
-1.43165e-18
-1.43785e-18
-1.43348e-18
-1.42792e-18
-1.42824e-18
-1.43533e-18
-1.43232e-18
-1.43026e-18
-1.43197e-18
-1.42786e-18
-1.4293e-18
-1.42592e-18
-1.43161e-18
-1.42957e-18
-1.42884e-18
-1.42453e-18
-1.4223e-18
-1.42504e-18
-1.42848e-18
-1.43185e-18
-1.42184e-18
-1.42292e-18
-1.4254e-18
-1.42471e-18
-1.4236e-18
-1.42461e-18
-1.42331e-18
-1.41908e-18
-1.41936e-18
-1.41915e-18
-1.42494e-18
-1.4276e-18
-1.42102e-18
-1.41963e-18
-1.42231e-18
-1.41965e-18
-1.4188e-18
-1.41939e-18
-1.41988e-18
-1.42197e-18
-1.4212e-18
-1.42309e-18
-1.4193e-18
-1.41836e-18
-1.41636e-18
-1.41727e-18
-1.42024e-18
-1.42213e-18
-1.42152e-18
-1.4209e-18
-1.42144e-18
-1.42014e-18
-1.42004e-18
-1.4197e-18
-1.4198e-18
-1.42032e-18
-1.42149e-18
-1.42172e-18
-1.42108e-18
-1.42058e-18
-1.42144e-18
-1.42156e-18
-1.42185e-18
-1.42203e-18
-1.42185e-18
-1.4222e-18
-1.42222e-18
-1.42181e-18
-1.42185e-18
-1.42223e-18
-1.42202e-18
-1.42215e-18
-1.4221e-18
-1.42188e-18
-1.42213e-18
-1.42213e-18
-1.42194e-18
-1.422e-18
-1.42183e-18
-1.42186e-18
-1.42195e-18
-1.42183e-18
-1.42188e-18
-1.42194e-18
-1.42199e-18
-1.42167e-18
-1.4292e-18
-1.43318e-18
-1.43633e-18
-1.43079e-18
-1.42692e-18
-1.42993e-18
-1.4319e-18
-1.43744e-18
-1.43992e-18
-1.4371e-18
-1.43779e-18
-1.44394e-18
-1.44838e-18
-1.44308e-18
-1.43629e-18
-1.43371e-18
-1.43816e-18
-1.43601e-18
-1.43789e-18
-1.43718e-18
-1.43302e-18
-1.43142e-18
-1.43128e-18
-1.43257e-18
-1.43528e-18
-1.43298e-18
-1.43215e-18
-1.4302e-18
-1.43082e-18
-1.43757e-18
-1.43369e-18
-1.43047e-18
-1.43283e-18
-1.43682e-18
-1.43386e-18
-1.43258e-18
-1.42969e-18
-1.4298e-18
-1.43212e-18
-1.42977e-18
-1.43118e-18
-1.4326e-18
-1.42699e-18
-1.43008e-18
-1.43008e-18
-1.42865e-18
-1.43207e-18
-1.43405e-18
-1.43097e-18
-1.43162e-18
-1.43287e-18
-1.43256e-18
-1.43077e-18
-1.43239e-18
-1.43084e-18
-1.4323e-18
-1.43237e-18
-1.43009e-18
-1.42758e-18
-1.4296e-18
-1.43148e-18
-1.42979e-18
-1.42957e-18
-1.42987e-18
-1.43139e-18
-1.43183e-18
-1.43152e-18
-1.43108e-18
-1.43221e-18
-1.43265e-18
-1.43155e-18
-1.43088e-18
-1.43088e-18
-1.43096e-18
-1.43101e-18
-1.43061e-18
-1.43131e-18
-1.43189e-18
-1.43182e-18
-1.43138e-18
-1.43149e-18
-1.43149e-18
-1.4315e-18
-1.43131e-18
-1.43127e-18
-1.43142e-18
-1.43156e-18
-1.43147e-18
-1.43147e-18
-1.43149e-18
-1.43148e-18
-1.43137e-18
-1.43134e-18
-1.43141e-18
-1.41776e-18
-1.42584e-18
-1.42529e-18
-1.41153e-18
-1.41731e-18
-1.42603e-18
-1.42888e-18
-1.425e-18
-1.4267e-18
-1.43377e-18
-1.42767e-18
-1.42572e-18
-1.42454e-18
-1.42613e-18
-1.42528e-18
-1.42918e-18
-1.42898e-18
-1.42577e-18
-1.42624e-18
-1.42649e-18
-1.42277e-18
-1.42254e-18
-1.42434e-18
-1.42547e-18
-1.4242e-18
-1.42579e-18
-1.42756e-18
-1.42666e-18
-1.42608e-18
-1.42291e-18
-1.42448e-18
-1.42061e-18
-1.41974e-18
-1.42295e-18
-1.42212e-18
-1.42036e-18
-1.42026e-18
-1.42144e-18
-1.42314e-18
-1.42258e-18
-1.4294e-18
-1.42969e-18
-1.42896e-18
-1.42595e-18
-1.42577e-18
-1.42488e-18
-1.42634e-18
-1.4268e-18
-1.4289e-18
-1.42918e-18
-1.42829e-18
-1.42872e-18
-1.42907e-18
-1.42572e-18
-1.42797e-18
-1.42763e-18
-1.42699e-18
-1.42725e-18
-1.42938e-18
-1.4283e-18
-1.42841e-18
-1.4289e-18
-1.42965e-18
-1.42956e-18
-1.42878e-18
-1.42845e-18
-1.42936e-18
-1.42943e-18
-1.42898e-18
-1.4294e-18
-1.42892e-18
-1.42903e-18
-1.42896e-18
-1.4286e-18
-1.42901e-18
-1.42889e-18
-1.42916e-18
-1.42896e-18
-1.42877e-18
-1.42906e-18
-1.4288e-18
-1.42852e-18
-1.42848e-18
-1.42856e-18
-1.42851e-18
-1.42856e-18
-1.42859e-18
-1.42866e-18
-1.42867e-18
-1.42862e-18
-1.42851e-18
-1.42849e-18
-1.4285e-18
-1.42852e-18
-1.42854e-18
-1.42252e-18
-1.42407e-18
-1.42058e-18
-1.42291e-18
-1.42884e-18
-1.42569e-18
-1.42267e-18
-1.42188e-18
-1.42441e-18
-1.4292e-18
-1.43296e-18
-1.43483e-18
-1.43177e-18
-1.43016e-18
-1.43191e-18
-1.42677e-18
-1.42874e-18
-1.43566e-18
-1.43402e-18
-1.43267e-18
-1.43439e-18
-1.43725e-18
-1.43622e-18
-1.43628e-18
-1.44006e-18
-1.43966e-18
-1.43389e-18
-1.43513e-18
-1.43647e-18
-1.43753e-18
-1.43839e-18
-1.43541e-18
-1.43424e-18
-1.43711e-18
-1.43706e-18
-1.4364e-18
-1.43403e-18
-1.4383e-18
-1.44117e-18
-1.4368e-18
-1.43431e-18
-1.4329e-18
-1.43514e-18
-1.438e-18
-1.44056e-18
-1.44006e-18
-1.44029e-18
-1.44119e-18
-1.43866e-18
-1.43854e-18
-1.44043e-18
-1.43989e-18
-1.4389e-18
-1.43773e-18
-1.43996e-18
-1.44121e-18
-1.44057e-18
-1.43978e-18
-1.43862e-18
-1.43921e-18
-1.43886e-18
-1.43815e-18
-1.43729e-18
-1.43838e-18
-1.43823e-18
-1.43774e-18
-1.43705e-18
-1.43701e-18
-1.43793e-18
-1.43716e-18
-1.43808e-18
-1.43855e-18
-1.43839e-18
-1.43753e-18
-1.43679e-18
-1.43693e-18
-1.43714e-18
-1.43787e-18
-1.43819e-18
-1.43767e-18
-1.43737e-18
-1.43738e-18
-1.43725e-18
-1.43748e-18
-1.43768e-18
-1.43748e-18
-1.43729e-18
-1.43724e-18
-1.43749e-18
-1.43745e-18
-1.43736e-18
-1.43734e-18
-1.43735e-18
-1.43737e-18
-1.43737e-18
-1.43154e-18
-1.43025e-18
-1.42684e-18
-1.42964e-18
-1.4243e-18
-1.42116e-18
-1.42127e-18
-1.42248e-18
-1.41698e-18
-1.41791e-18
-1.41962e-18
-1.41778e-18
-1.41563e-18
-1.41831e-18
-1.4206e-18
-1.42354e-18
-1.42625e-18
-1.42286e-18
-1.42021e-18
-1.42207e-18
-1.42554e-18
-1.42831e-18
-1.43277e-18
-1.43312e-18
-1.42988e-18
-1.42917e-18
-1.43006e-18
-1.43128e-18
-1.42993e-18
-1.42888e-18
-1.43095e-18
-1.42927e-18
-1.42868e-18
-1.43108e-18
-1.43447e-18
-1.43591e-18
-1.43655e-18
-1.44039e-18
-1.44097e-18
-1.43734e-18
-1.43513e-18
-1.43797e-18
-1.43978e-18
-1.4367e-18
-1.4384e-18
-1.43723e-18
-1.43724e-18
-1.43691e-18
-1.43683e-18
-1.43701e-18
-1.43715e-18
-1.43561e-18
-1.43513e-18
-1.43591e-18
-1.43613e-18
-1.4358e-18
-1.43496e-18
-1.4348e-18
-1.43552e-18
-1.43641e-18
-1.43628e-18
-1.43422e-18
-1.43496e-18
-1.43466e-18
-1.43454e-18
-1.43541e-18
-1.43362e-18
-1.43404e-18
-1.43316e-18
-1.43276e-18
-1.43399e-18
-1.43409e-18
-1.43396e-18
-1.43394e-18
-1.43384e-18
-1.43354e-18
-1.43346e-18
-1.43371e-18
-1.43392e-18
-1.43388e-18
-1.43358e-18
-1.43338e-18
-1.4335e-18
-1.43355e-18
-1.43331e-18
-1.43333e-18
-1.43328e-18
-1.43346e-18
-1.43345e-18
-1.43328e-18
-1.43328e-18
-1.43334e-18
-1.43336e-18
-1.43336e-18
-1.43336e-18
-1.42894e-18
-1.42313e-18
-1.42538e-18
-1.42725e-18
-1.43126e-18
-1.42948e-18
-1.42205e-18
-1.42247e-18
-1.42601e-18
-1.4252e-18
-1.42558e-18
-1.42385e-18
-1.42852e-18
-1.43229e-18
-1.43315e-18
-1.43627e-18
-1.43365e-18
-1.43321e-18
-1.43491e-18
-1.43405e-18
-1.43248e-18
-1.43149e-18
-1.42646e-18
-1.4324e-18
-1.43564e-18
-1.43503e-18
-1.43499e-18
-1.43336e-18
-1.43898e-18
-1.43847e-18
-1.43816e-18
-1.43882e-18
-1.43965e-18
-1.43948e-18
-1.43715e-18
-1.44165e-18
-1.44621e-18
-1.44218e-18
-1.44399e-18
-1.44095e-18
-1.4425e-18
-1.44348e-18
-1.4439e-18
-1.44344e-18
-1.44405e-18
-1.44567e-18
-1.44432e-18
-1.44277e-18
-1.44367e-18
-1.44175e-18
-1.443e-18
-1.4432e-18
-1.44399e-18
-1.44432e-18
-1.44291e-18
-1.4421e-18
-1.44233e-18
-1.4419e-18
-1.44176e-18
-1.44143e-18
-1.44127e-18
-1.44072e-18
-1.44104e-18
-1.44129e-18
-1.44157e-18
-1.44104e-18
-1.44066e-18
-1.44058e-18
-1.44103e-18
-1.44037e-18
-1.43969e-18
-1.44048e-18
-1.44019e-18
-1.43987e-18
-1.44043e-18
-1.44036e-18
-1.44027e-18
-1.44054e-18
-1.44055e-18
-1.44023e-18
-1.44032e-18
-1.44037e-18
-1.43999e-18
-1.43998e-18
-1.44018e-18
-1.4401e-18
-1.44014e-18
-1.44001e-18
-1.43999e-18
-1.43993e-18
-1.43995e-18
-1.44003e-18
-1.44005e-18
-1.43999e-18
-1.43999e-18
-1.43547e-18
-1.44041e-18
-1.44076e-18
-1.43543e-18
-1.43379e-18
-1.43316e-18
-1.43461e-18
-1.43604e-18
-1.42857e-18
-1.42762e-18
-1.42868e-18
-1.43071e-18
-1.42744e-18
-1.43032e-18
-1.42886e-18
-1.42616e-18
-1.42925e-18
-1.42916e-18
-1.42206e-18
-1.42816e-18
-1.43207e-18
-1.42745e-18
-1.42043e-18
-1.42508e-18
-1.42769e-18
-1.42791e-18
-1.42839e-18
-1.42828e-18
-1.43011e-18
-1.42638e-18
-1.4274e-18
-1.42663e-18
-1.42963e-18
-1.43244e-18
-1.43396e-18
-1.42941e-18
-1.43067e-18
-1.43393e-18
-1.43636e-18
-1.43273e-18
-1.42976e-18
-1.42939e-18
-1.43185e-18
-1.43186e-18
-1.43399e-18
-1.43507e-18
-1.43543e-18
-1.43601e-18
-1.43711e-18
-1.43671e-18
-1.43514e-18
-1.43655e-18
-1.43681e-18
-1.43702e-18
-1.43513e-18
-1.43623e-18
-1.437e-18
-1.43677e-18
-1.4372e-18
-1.43557e-18
-1.43644e-18
-1.43767e-18
-1.43587e-18
-1.43587e-18
-1.43593e-18