/*--------------------------------*- C++ -*----------------------------------*\
  =========                 |
  \\      /  F ield         | OpenFOAM: The Open Source CFD Toolbox
   \\    /   O peration     | Website:  https://openfoam.org
    \\  /    A nd           | Version:  7
     \\/     M anipulation  |
\*---------------------------------------------------------------------------*/
FoamFile
{
    version     2.0;
    format      ascii;
    class       volScalarField;
    location    "24000";
    object      k;
}
// * * * * * * * * * * * * * * * * * * * * * * * * * * * * * * * * * * * * * //

dimensions      [0 2 -2 0 0 0 0];

internalField   nonuniform List<scalar> 
1768
(
7.77622e-07
7.7922e-07
7.81604e-07
7.84761e-07
7.96876e-07
7.95276e-07
7.94474e-07
7.94474e-07
7.95276e-07
7.96876e-07
7.99263e-07
8.02421e-07
8.39877e-07
8.33908e-07
8.28594e-07
8.2397e-07
8.20068e-07
8.16915e-07
8.14531e-07
8.12932e-07
8.1213e-07
8.1213e-07
8.12932e-07
8.14531e-07
8.16915e-07
8.20068e-07
8.57381e-07
8.51445e-07
8.46156e-07
8.41552e-07
8.37664e-07
8.34521e-07
8.32145e-07
8.30551e-07
8.29751e-07
8.29751e-07
8.30551e-07
8.32145e-07
8.34521e-07
8.37664e-07
8.74768e-07
8.68873e-07
8.63618e-07
8.59041e-07
8.55175e-07
8.52049e-07
8.49683e-07
8.48097e-07
8.47301e-07
8.47301e-07
8.48097e-07
8.49683e-07
8.52048e-07
8.55175e-07
9.37715e-07
9.2907e-07
9.20782e-07
9.1288e-07
9.05415e-07
8.98442e-07
8.92009e-07
8.86165e-07
8.80953e-07
8.7641e-07
8.72571e-07
8.69465e-07
8.67115e-07
8.65539e-07
8.64748e-07
8.64748e-07
8.65539e-07
8.67115e-07
8.69465e-07
8.72571e-07
9.54202e-07
9.45686e-07
9.37514e-07
9.29714e-07
9.22341e-07
9.15446e-07
9.09082e-07
9.03296e-07
8.98132e-07
8.9363e-07
8.89824e-07
8.86744e-07
8.84412e-07
8.82848e-07
8.82063e-07
8.82063e-07
8.82848e-07
8.84412e-07
8.86743e-07
8.89824e-07
9.70453e-07
9.62074e-07
9.54025e-07
9.46335e-07
9.3906e-07
9.32252e-07
9.25964e-07
9.20243e-07
9.15134e-07
9.10678e-07
9.06909e-07
9.03858e-07
9.01549e-07
8.99999e-07
8.99221e-07
8.99221e-07
8.99999e-07
9.01549e-07
9.03858e-07
9.06909e-07
9.86451e-07
9.78215e-07
9.70297e-07
9.62725e-07
9.55555e-07
9.48841e-07
9.42634e-07
9.36984e-07
9.31936e-07
9.27531e-07
9.23805e-07
9.20787e-07
9.18502e-07
9.16968e-07
9.16198e-07
9.16198e-07
9.16968e-07
9.18502e-07
9.20787e-07
9.23804e-07
1.00218e-06
9.94098e-07
9.86316e-07
9.78868e-07
9.7181e-07
9.65195e-07
9.59076e-07
9.53502e-07
9.4852e-07
9.44171e-07
9.4049e-07
9.37509e-07
9.35251e-07
9.33735e-07
9.32974e-07
9.32974e-07
9.33735e-07
9.3525e-07
9.37508e-07
9.4049e-07
1.01764e-06
1.00971e-06
1.00207e-06
9.94751e-07
9.87809e-07
9.81299e-07
9.75272e-07
9.6978e-07
9.64869e-07
9.60579e-07
9.56948e-07
9.54006e-07
9.51777e-07
9.50281e-07
9.4953e-07
9.4953e-07
9.50281e-07
9.51777e-07
9.54005e-07
9.56948e-07
1.03281e-06
1.02504e-06
1.01754e-06
1.01036e-06
1.00354e-06
9.97139e-07
9.9121e-07
9.85804e-07
9.80967e-07
9.76741e-07
9.73162e-07
9.70262e-07
9.68064e-07
9.66589e-07
9.65848e-07
9.65848e-07
9.66589e-07
9.68064e-07
9.70261e-07
9.73162e-07
1.04768e-06
1.04007e-06
1.03273e-06
1.02568e-06
1.01899e-06
1.0127e-06
1.00688e-06
1.00156e-06
9.968e-07
9.92641e-07
9.89118e-07
9.86261e-07
9.84097e-07
9.82644e-07
9.81914e-07
9.81914e-07
9.82644e-07
9.84097e-07
9.86261e-07
9.89117e-07
1.06225e-06
1.05481e-06
1.04762e-06
1.04072e-06
1.03415e-06
1.02798e-06
1.02226e-06
1.01703e-06
1.01236e-06
1.00827e-06
1.0048e-06
1.00199e-06
9.99863e-07
9.98433e-07
9.97715e-07
9.97715e-07
9.98433e-07
9.99863e-07
1.00199e-06
1.0048e-06
1.07651e-06
1.06923e-06
1.0622e-06
1.05544e-06
1.04901e-06
1.04296e-06
1.03735e-06
1.03222e-06
1.02763e-06
1.02361e-06
1.0202e-06
1.01744e-06
1.01535e-06
1.01394e-06
1.01324e-06
1.01324e-06
1.01394e-06
1.01535e-06
1.01744e-06
1.0202e-06
1.09044e-06
1.08334e-06
1.07647e-06
1.06986e-06
1.06356e-06
1.05763e-06
1.05213e-06
1.0471e-06
1.0426e-06
1.03865e-06
1.03531e-06
1.0326e-06
1.03055e-06
1.02916e-06
1.02847e-06
1.02847e-06
1.02916e-06
1.03054e-06
1.0326e-06
1.03531e-06
1.10405e-06
1.09713e-06
1.09042e-06
1.08395e-06
1.0778e-06
1.07199e-06
1.0666e-06
1.06168e-06
1.05726e-06
1.05339e-06
1.05012e-06
1.04746e-06
1.04544e-06
1.04409e-06
1.04341e-06
1.04341e-06
1.04409e-06
1.04544e-06
1.04746e-06
1.05012e-06
1.11733e-06
1.11058e-06
1.10403e-06
1.09773e-06
1.09171e-06
1.08603e-06
1.08076e-06
1.07594e-06
1.07161e-06
1.06782e-06
1.06461e-06
1.062e-06
1.06003e-06
1.0587e-06
1.05803e-06
1.05803e-06
1.0587e-06
1.06003e-06
1.062e-06
1.06461e-06
1.13027e-06
1.1237e-06
1.11732e-06
1.11116e-06
1.10529e-06
1.09974e-06
1.09459e-06
1.08987e-06
1.08564e-06
1.08193e-06
1.07878e-06
1.07623e-06
1.0743e-06
1.073e-06
1.07234e-06
1.07234e-06
1.073e-06
1.0743e-06
1.07623e-06
1.07878e-06
1.14287e-06
1.13648e-06
1.13026e-06
1.12427e-06
1.11853e-06
1.11312e-06
1.10808e-06
1.10347e-06
1.09933e-06
1.09571e-06
1.09263e-06
1.09014e-06
1.08824e-06
1.08697e-06
1.08633e-06
1.08633e-06
1.08697e-06
1.08824e-06
1.09014e-06
1.09263e-06
1.15513e-06
1.14891e-06
1.14286e-06
1.13702e-06
1.13143e-06
1.12616e-06
1.12124e-06
1.11674e-06
1.11269e-06
1.10915e-06
1.10615e-06
1.10371e-06
1.10186e-06
1.10062e-06
1.09999e-06
1.09999e-06
1.10062e-06
1.10186e-06
1.10371e-06
1.10615e-06
1.16703e-06
1.16099e-06
1.15512e-06
1.14943e-06
1.14399e-06
1.13885e-06
1.13405e-06
1.12966e-06
1.12572e-06
1.12226e-06
1.11933e-06
1.11694e-06
1.11514e-06
1.11392e-06
1.11331e-06
1.11331e-06
1.11392e-06
1.11514e-06
1.11694e-06
1.11933e-06
1.17858e-06
1.17272e-06
1.16701e-06
1.16149e-06
1.15619e-06
1.15119e-06
1.14652e-06
1.14223e-06
1.13839e-06
1.13502e-06
1.13216e-06
1.12984e-06
1.12807e-06
1.12689e-06
1.12629e-06
1.12629e-06
1.12689e-06
1.12807e-06
1.12983e-06
1.13216e-06
1.18976e-06
1.18409e-06
1.17855e-06
1.17319e-06
1.16804e-06
1.16317e-06
1.15862e-06
1.15446e-06
1.15071e-06
1.14743e-06
1.14464e-06
1.14238e-06
1.14066e-06
1.1395e-06
1.13892e-06
1.13892e-06
1.1395e-06
1.14066e-06
1.14238e-06
1.14464e-06
1.20059e-06
1.19509e-06
1.18973e-06
1.18453e-06
1.17953e-06
1.17479e-06
1.17038e-06
1.16632e-06
1.16268e-06
1.15948e-06
1.15677e-06
1.15457e-06
1.15289e-06
1.15177e-06
1.1512e-06
1.1512e-06
1.15177e-06
1.15289e-06
1.15456e-06
1.15677e-06
1.21104e-06
1.20573e-06
1.20054e-06
1.1955e-06
1.19065e-06
1.18605e-06
1.18176e-06
1.17782e-06
1.17428e-06
1.17118e-06
1.16854e-06
1.16639e-06
1.16477e-06
1.16367e-06
1.16312e-06
1.16312e-06
1.16367e-06
1.16477e-06
1.16639e-06
1.16854e-06
1.22112e-06
1.216e-06
1.21098e-06
1.2061e-06
1.2014e-06
1.19695e-06
1.19278e-06
1.18896e-06
1.18552e-06
1.1825e-06
1.17994e-06
1.17786e-06
1.17628e-06
1.17522e-06
1.17468e-06
1.17468e-06
1.17522e-06
1.17628e-06
1.17786e-06
1.17994e-06
1.23083e-06
1.22589e-06
1.22104e-06
1.21632e-06
1.21178e-06
1.20746e-06
1.20343e-06
1.19972e-06
1.19639e-06
1.19346e-06
1.19098e-06
1.18896e-06
1.18742e-06
1.18639e-06
1.18587e-06
1.18587e-06
1.18639e-06
1.18742e-06
1.18896e-06
1.19098e-06
1.24016e-06
1.23539e-06
1.23072e-06
1.22617e-06
1.22178e-06
1.2176e-06
1.2137e-06
1.21011e-06
1.20688e-06
1.20405e-06
1.20164e-06
1.19968e-06
1.19819e-06
1.19719e-06
1.19669e-06
1.19669e-06
1.19719e-06
1.19819e-06
1.19968e-06
1.20164e-06
1.24909e-06
1.24452e-06
1.24002e-06
1.23563e-06
1.23139e-06
1.22736e-06
1.22358e-06
1.22011e-06
1.21699e-06
1.21425e-06
1.21192e-06
1.21002e-06
1.20858e-06
1.20762e-06
1.20713e-06
1.20713e-06
1.20762e-06
1.20858e-06
1.21002e-06
1.21192e-06
1.25764e-06
1.25325e-06
1.24893e-06
1.2447e-06
1.24061e-06
1.23672e-06
1.23308e-06
1.22973e-06
1.22672e-06
1.22407e-06
1.22181e-06
1.21998e-06
1.21859e-06
1.21766e-06
1.21719e-06
1.21719e-06
1.21766e-06
1.21859e-06
1.21998e-06
1.22181e-06
1.26579e-06
1.26158e-06
1.25744e-06
1.25337e-06
1.24944e-06
1.2457e-06
1.24219e-06
1.23896e-06
1.23605e-06
1.23349e-06
1.23132e-06
1.22955e-06
1.22821e-06
1.22731e-06
1.22685e-06
1.22685e-06
1.22731e-06
1.22821e-06
1.22955e-06
1.23132e-06
1.27354e-06
1.26951e-06
1.26554e-06
1.26165e-06
1.25787e-06
1.25427e-06
1.2509e-06
1.24779e-06
1.24499e-06
1.24253e-06
1.24043e-06
1.23873e-06
1.23744e-06
1.23657e-06
1.23613e-06
1.23613e-06
1.23657e-06
1.23743e-06
1.23873e-06
1.24043e-06
1.28088e-06
1.27704e-06
1.27324e-06
1.26951e-06
1.2659e-06
1.26244e-06
1.2592e-06
1.25621e-06
1.25352e-06
1.25116e-06
1.24914e-06
1.2475e-06
1.24626e-06
1.24542e-06
1.245e-06
1.245e-06
1.24542e-06
1.24626e-06
1.2475e-06
1.24914e-06
1.2878e-06
1.28414e-06
1.28053e-06
1.27697e-06
1.2735e-06
1.2702e-06
1.26709e-06
1.26423e-06
1.26165e-06
1.25938e-06
1.25744e-06
1.25587e-06
1.25468e-06
1.25387e-06
1.25347e-06
1.25347e-06
1.25387e-06
1.25468e-06
1.25587e-06
1.25744e-06
1.29429e-06
1.29083e-06
1.28739e-06
1.284e-06
1.28069e-06
1.27753e-06
1.27456e-06
1.27183e-06
1.26936e-06
1.26718e-06
1.26533e-06
1.26382e-06
1.26268e-06
1.26191e-06
1.26152e-06
1.26152e-06
1.26191e-06
1.26268e-06
1.26382e-06
1.26533e-06
1.30036e-06
1.29708e-06
1.29382e-06
1.2906e-06
1.28745e-06
1.28444e-06
1.28161e-06
1.279e-06
1.27664e-06
1.27456e-06
1.27279e-06
1.27135e-06
1.27026e-06
1.30598e-06
1.30289e-06
1.29981e-06
1.29676e-06
1.29378e-06
1.29092e-06
1.28823e-06
1.28574e-06
1.28349e-06
1.28151e-06
1.27983e-06
1.27846e-06
1.27741e-06
1.31115e-06
1.30825e-06
1.30535e-06
1.30247e-06
1.29966e-06
1.29695e-06
1.2944e-06
1.29204e-06
1.2899e-06
1.28802e-06
1.28642e-06
1.28512e-06
1.28412e-06
9.37715e-07
9.54203e-07
9.70453e-07
9.86451e-07
1.00218e-06
1.01764e-06
1.03281e-06
1.04768e-06
1.06225e-06
1.07651e-06
1.09044e-06
1.10405e-06
1.11733e-06
1.13027e-06
1.14287e-06
1.15513e-06
1.16703e-06
1.17858e-06
1.18976e-06
1.20059e-06
1.21104e-06
1.22113e-06
1.23083e-06
1.24016e-06
1.2491e-06
1.25764e-06
1.26579e-06
1.27354e-06
1.28088e-06
1.2878e-06
1.29429e-06
1.30036e-06
1.30598e-06
1.31115e-06
9.2907e-07
9.45687e-07
9.62074e-07
9.78216e-07
9.94099e-07
1.00971e-06
1.02504e-06
1.04008e-06
1.05481e-06
1.06923e-06
1.08334e-06
1.09713e-06
1.11058e-06
1.1237e-06
1.13648e-06
1.14891e-06
1.16099e-06
1.17272e-06
1.18409e-06
1.19509e-06
1.20573e-06
1.216e-06
1.22589e-06
1.23539e-06
1.24452e-06
1.25325e-06
1.26158e-06
1.26951e-06
1.27704e-06
1.28414e-06
1.29083e-06
1.29708e-06
1.30289e-06
1.30825e-06
9.20782e-07
9.37514e-07
9.54025e-07
9.70297e-07
9.86316e-07
1.00207e-06
1.01754e-06
1.03273e-06
1.04762e-06
1.0622e-06
1.07647e-06
1.09042e-06
1.10403e-06
1.11732e-06
1.13026e-06
1.14287e-06
1.15512e-06
1.16702e-06
1.17855e-06
1.18973e-06
1.20054e-06
1.21098e-06
1.22104e-06
1.23073e-06
1.24002e-06
1.24893e-06
1.25744e-06
1.26554e-06
1.27324e-06
1.28053e-06
1.28739e-06
1.29382e-06
1.29981e-06
1.30535e-06
9.29715e-07
9.46336e-07
9.62726e-07
9.78869e-07
9.94752e-07
1.01036e-06
1.02569e-06
1.04072e-06
1.05544e-06
1.06986e-06
1.08396e-06
1.09773e-06
1.11117e-06
1.12427e-06
1.13702e-06
1.14943e-06
1.16149e-06
1.17319e-06
1.18453e-06
1.1955e-06
1.2061e-06
1.21632e-06
1.22617e-06
1.23563e-06
1.2447e-06
1.25337e-06
1.26165e-06
1.26951e-06
1.27697e-06
1.284e-06
1.2906e-06
1.29676e-06
1.30247e-06
9.55556e-07
9.71811e-07
9.8781e-07
1.00354e-06
1.01899e-06
1.03415e-06
1.04901e-06
1.06356e-06
1.0778e-06
1.09171e-06
1.10529e-06
1.11853e-06
1.13144e-06
1.14399e-06
1.1562e-06
1.16804e-06
1.17953e-06
1.19065e-06
1.2014e-06
1.21178e-06
1.22178e-06
1.23139e-06
1.24061e-06
1.24944e-06
1.25787e-06
1.2659e-06
1.27351e-06
1.28069e-06
1.28745e-06
1.29378e-06
1.29966e-06
9.48842e-07
9.65196e-07
9.813e-07
9.9714e-07
1.0127e-06
1.02798e-06
1.04296e-06
1.05764e-06
1.072e-06
1.08603e-06
1.09974e-06
1.11312e-06
1.12616e-06
1.13885e-06
1.15119e-06
1.16317e-06
1.1748e-06
1.18606e-06
1.19695e-06
1.20746e-06
1.2176e-06
1.22736e-06
1.23673e-06
1.2457e-06
1.25427e-06
1.26244e-06
1.2702e-06
1.27753e-06
1.28444e-06
1.29092e-06
1.29695e-06
9.42635e-07
9.59076e-07
9.75273e-07
9.91211e-07
1.00688e-06
1.02226e-06
1.03735e-06
1.05213e-06
1.06661e-06
1.08076e-06
1.09459e-06
1.10808e-06
1.12124e-06
1.13405e-06
1.14652e-06
1.15863e-06
1.17038e-06
1.18176e-06
1.19278e-06
1.20343e-06
1.2137e-06
1.22358e-06
1.23308e-06
1.24219e-06
1.2509e-06
1.2592e-06
1.26709e-06
1.27457e-06
1.28161e-06
1.28823e-06
1.2944e-06
9.36985e-07
9.53503e-07
9.69781e-07
9.85804e-07
1.00156e-06
1.01703e-06
1.03222e-06
1.0471e-06
1.06168e-06
1.07594e-06
1.08987e-06
1.10347e-06
1.11674e-06
1.12966e-06
1.14224e-06
1.15446e-06
1.16632e-06
1.17782e-06
1.18896e-06
1.19972e-06
1.21011e-06
1.22011e-06
1.22973e-06
1.23896e-06
1.24779e-06
1.25621e-06
1.26423e-06
1.27183e-06
1.279e-06
1.28574e-06
1.29204e-06
9.31937e-07
9.48521e-07
9.64869e-07
9.80967e-07
9.96801e-07
1.01236e-06
1.02763e-06
1.0426e-06
1.05726e-06
1.07161e-06
1.08564e-06
1.09933e-06
1.1127e-06
1.12572e-06
1.13839e-06
1.15071e-06
1.16268e-06
1.17428e-06
1.18552e-06
1.19639e-06
1.20688e-06
1.21699e-06
1.22672e-06
1.23605e-06
1.24499e-06
1.25352e-06
1.26165e-06
1.26936e-06
1.27664e-06
1.28349e-06
1.2899e-06
9.27532e-07
9.44171e-07
9.6058e-07
9.76741e-07
9.92641e-07
1.00827e-06
1.02361e-06
1.03865e-06
1.05339e-06
1.06782e-06
1.08193e-06
1.09571e-06
1.10915e-06
1.12226e-06
1.13502e-06
1.14743e-06
1.15948e-06
1.17118e-06
1.1825e-06
1.19346e-06
1.20405e-06
1.21425e-06
1.22407e-06
1.23349e-06
1.24253e-06
1.25116e-06
1.25938e-06
1.26718e-06
1.27456e-06
1.28151e-06
1.28802e-06
9.23805e-07
9.4049e-07
9.56948e-07
9.73162e-07
9.89118e-07
1.0048e-06
1.0202e-06
1.03531e-06
1.05012e-06
1.06461e-06
1.07879e-06
1.09263e-06
1.10615e-06
1.11933e-06
1.13216e-06
1.14464e-06
1.15677e-06
1.16854e-06
1.17994e-06
1.19098e-06
1.20164e-06
1.21192e-06
1.22181e-06
1.23132e-06
1.24043e-06
1.24914e-06
1.25744e-06
1.26533e-06
1.2728e-06
1.27983e-06
1.28642e-06
9.20787e-07
9.37509e-07
9.54006e-07
9.70262e-07
9.86262e-07
1.00199e-06
1.01744e-06
1.0326e-06
1.04746e-06
1.062e-06
1.07623e-06
1.09014e-06
1.10371e-06
1.11694e-06
1.12984e-06
1.14238e-06
1.15457e-06
1.16639e-06
1.17786e-06
1.18896e-06
1.19968e-06
1.21002e-06
1.21998e-06
1.22955e-06
1.23873e-06
1.2475e-06
1.25587e-06
1.26382e-06
1.27136e-06
1.27846e-06
1.28512e-06
9.18502e-07
9.35251e-07
9.51777e-07
9.68065e-07
9.84098e-07
9.99863e-07
1.01535e-06
1.03055e-06
1.04544e-06
1.06003e-06
1.0743e-06
1.08824e-06
1.10186e-06
1.11514e-06
1.12807e-06
1.14066e-06
1.15289e-06
1.16477e-06
1.17628e-06
1.18742e-06
1.19819e-06
1.20858e-06
1.21859e-06
1.22821e-06
1.23744e-06
1.24626e-06
1.25468e-06
1.26268e-06
1.27026e-06
1.27741e-06
1.28412e-06
9.16969e-07
9.33735e-07
9.50281e-07
9.66589e-07
9.82645e-07
9.98434e-07
1.01394e-06
1.02917e-06
1.04409e-06
1.0587e-06
1.073e-06
1.08697e-06
1.10062e-06
1.11392e-06
1.12689e-06
1.13951e-06
1.15177e-06
1.16367e-06
1.17522e-06
1.18639e-06
1.19719e-06
1.20762e-06
1.21766e-06
1.22731e-06
1.23657e-06
1.24542e-06
1.25387e-06
1.26191e-06
1.26952e-06
1.27671e-06
1.28346e-06
9.16199e-07
9.32975e-07
9.4953e-07
9.65849e-07
9.81915e-07
9.97716e-07
1.01324e-06
1.02847e-06
1.04341e-06
1.05803e-06
1.07235e-06
1.08633e-06
1.09999e-06
1.11331e-06
1.12629e-06
1.13893e-06
1.1512e-06
1.16313e-06
1.17468e-06
1.18587e-06
1.19669e-06
1.20713e-06
1.21719e-06
1.22686e-06
1.23613e-06
1.245e-06
1.25347e-06
1.26152e-06
1.26915e-06
1.27636e-06
1.28312e-06
9.97716e-07
1.01324e-06
1.02847e-06
1.04341e-06
1.05803e-06
1.07235e-06
1.08633e-06
1.09999e-06
1.11331e-06
1.12629e-06
1.13893e-06
1.1512e-06
1.16313e-06
1.17468e-06
1.18587e-06
1.19669e-06
1.20713e-06
1.21719e-06
1.22686e-06
1.23613e-06
1.245e-06
1.25347e-06
1.26152e-06
1.26915e-06
1.27636e-06
1.28312e-06
9.98434e-07
1.01394e-06
1.02917e-06
1.04409e-06
1.0587e-06
1.073e-06
1.08697e-06
1.10062e-06
1.11392e-06
1.12689e-06
1.13951e-06
1.15177e-06
1.16368e-06
1.17522e-06
1.18639e-06
1.19719e-06
1.20762e-06
1.21766e-06
1.22731e-06
1.23657e-06
1.24542e-06
1.25387e-06
1.26191e-06
1.26952e-06
1.27671e-06
1.28346e-06
9.99864e-07
1.01535e-06
1.03055e-06
1.04544e-06
1.06003e-06
1.0743e-06
1.08825e-06
1.10186e-06
1.11514e-06
1.12807e-06
1.14066e-06
1.15289e-06
1.16477e-06
1.17628e-06
1.18742e-06
1.19819e-06
1.20858e-06
1.21859e-06
1.22821e-06
1.23744e-06
1.24626e-06
1.25468e-06
1.26268e-06
1.27026e-06
1.27741e-06
1.28412e-06
1.00199e-06
1.01744e-06
1.0326e-06
1.04746e-06
1.062e-06
1.07623e-06
1.09014e-06
1.10371e-06
1.11695e-06
1.12984e-06
1.14238e-06
1.15457e-06
1.1664e-06
1.17786e-06
1.18896e-06
1.19968e-06
1.21002e-06
1.21998e-06
1.22955e-06
1.23873e-06
1.2475e-06
1.25587e-06
1.26382e-06
1.27136e-06
1.27846e-06
1.28512e-06
1.0048e-06
1.0202e-06
1.03531e-06
1.05012e-06
1.06461e-06
1.07879e-06
1.09263e-06
1.10615e-06
1.11933e-06
1.13216e-06
1.14464e-06
1.15677e-06
1.16854e-06
1.17994e-06
1.19098e-06
1.20164e-06
1.21192e-06
1.22181e-06
1.23132e-06
1.00827e-06
1.02361e-06
1.03865e-06
1.05339e-06
1.06782e-06
1.08193e-06
1.09571e-06
1.10915e-06
1.12226e-06
1.13502e-06
1.14743e-06
1.15948e-06
1.17118e-06
1.1825e-06
1.19346e-06
1.20405e-06
1.21425e-06
1.22407e-06
1.23349e-06
1.01236e-06
1.02763e-06
1.0426e-06
1.05726e-06
1.07161e-06
1.08564e-06
1.09933e-06
1.1127e-06
1.12572e-06
1.13839e-06
1.15071e-06
1.16268e-06
1.17428e-06
1.18552e-06
1.19639e-06
1.20688e-06
1.21699e-06
1.22672e-06
1.23605e-06
1.01703e-06
1.03222e-06
1.0471e-06
1.06168e-06
1.07594e-06
1.08987e-06
1.10347e-06
1.11674e-06
1.12966e-06
1.14224e-06
1.15446e-06
1.16632e-06
1.17782e-06
1.18896e-06
1.19972e-06
1.21011e-06
1.22011e-06
1.22973e-06
1.23896e-06
1.02226e-06
1.03735e-06
1.05213e-06
1.06661e-06
1.08076e-06
1.09459e-06
1.10808e-06
1.12124e-06
1.13405e-06
1.14652e-06
1.15863e-06
1.17038e-06
1.18176e-06
1.19278e-06
1.20343e-06
1.2137e-06
1.22358e-06
1.23308e-06
1.24219e-06
1.02798e-06
1.04296e-06
1.05764e-06
1.072e-06
1.08603e-06
1.09974e-06
1.11312e-06
1.12616e-06
1.13885e-06
1.15119e-06
1.16317e-06
1.1748e-06
1.18606e-06
1.19695e-06
1.20746e-06
1.2176e-06
1.22736e-06
1.23672e-06
1.2457e-06
1.03415e-06
1.04901e-06
1.06356e-06
1.0778e-06
1.09171e-06
1.10529e-06
1.11853e-06
1.13144e-06
1.14399e-06
1.1562e-06
1.16804e-06
1.17953e-06
1.19065e-06
1.2014e-06
1.21178e-06
1.22178e-06
1.23139e-06
1.24061e-06
1.24944e-06
1.04072e-06
1.05544e-06
1.06986e-06
1.08396e-06
1.09773e-06
1.11116e-06
1.12427e-06
1.13702e-06
1.14943e-06
1.16149e-06
1.17319e-06
1.18453e-06
1.1955e-06
1.2061e-06
1.21632e-06
1.22617e-06
1.23563e-06
1.2447e-06
1.25337e-06
1.04762e-06
1.0622e-06
1.07647e-06
1.09042e-06
1.10403e-06
1.11732e-06
1.13026e-06
1.14287e-06
1.15512e-06
1.16701e-06
1.17855e-06
1.18973e-06
1.20054e-06
1.21098e-06
1.22104e-06
1.23072e-06
1.24002e-06
1.24893e-06
1.25744e-06
1.05481e-06
1.06923e-06
1.08334e-06
1.09713e-06
1.11058e-06
1.1237e-06
1.13648e-06
1.14891e-06
1.16099e-06
1.17272e-06
1.18409e-06
1.19509e-06
1.20573e-06
1.216e-06
1.22589e-06
1.23539e-06
1.24452e-06
1.25325e-06
1.26158e-06
1.06225e-06
1.07651e-06
1.09044e-06
1.10405e-06
1.11733e-06
1.13027e-06
1.14287e-06
1.15513e-06
1.16703e-06
1.17858e-06
1.18976e-06
1.20059e-06
1.21104e-06
1.22112e-06
1.23083e-06
1.24016e-06
1.24909e-06
1.25764e-06
1.26579e-06
1.06225e-06
1.07651e-06
1.09044e-06
1.10405e-06
1.11733e-06
1.13027e-06
1.14287e-06
1.15513e-06
1.16703e-06
1.17858e-06
1.18976e-06
1.20059e-06
1.21104e-06
1.22113e-06
1.23083e-06
1.24016e-06
1.24909e-06
1.25764e-06
1.26579e-06
1.05481e-06
1.06923e-06
1.08334e-06
1.09713e-06
1.11058e-06
1.1237e-06
1.13648e-06
1.14891e-06
1.16099e-06
1.17272e-06
1.18409e-06
1.19509e-06
1.20573e-06
1.216e-06
1.22589e-06
1.23539e-06
1.24452e-06
1.25325e-06
1.26158e-06
1.04762e-06
1.0622e-06
1.07647e-06
1.09042e-06
1.10403e-06
1.11732e-06
1.13026e-06
1.14287e-06
1.15512e-06
1.16702e-06
1.17855e-06
1.18973e-06
1.20054e-06
1.21098e-06
1.22104e-06
1.23072e-06
1.24002e-06
1.24893e-06
1.25744e-06
1.04072e-06
1.05544e-06
1.06986e-06
1.08396e-06
1.09773e-06
1.11117e-06
1.12427e-06
1.13702e-06
1.14943e-06
1.16149e-06
1.17319e-06
1.18453e-06
1.1955e-06
1.2061e-06
1.21632e-06
1.22617e-06
1.23563e-06
1.2447e-06
1.25337e-06
1.03415e-06
1.04901e-06
1.06356e-06
1.0778e-06
1.09171e-06
1.10529e-06
1.11853e-06
1.13144e-06
1.14399e-06
1.1562e-06
1.16804e-06
1.17953e-06
1.19065e-06
1.2014e-06
1.21178e-06
1.22178e-06
1.23139e-06
1.24061e-06
1.24944e-06
1.02798e-06
1.04296e-06
1.05764e-06
1.072e-06
1.08603e-06
1.09974e-06
1.11312e-06
1.12616e-06
1.13885e-06
1.15119e-06
1.16317e-06
1.1748e-06
1.18606e-06
1.19695e-06
1.20746e-06
1.2176e-06
1.22736e-06
1.23672e-06
1.2457e-06
1.02226e-06
1.03735e-06
1.05213e-06
1.06661e-06
1.08076e-06
1.09459e-06
1.10808e-06
1.12124e-06
1.13405e-06
1.14652e-06
1.15863e-06
1.17038e-06
1.18176e-06
1.19278e-06
1.20343e-06
1.2137e-06
1.22358e-06
1.23308e-06
1.24219e-06
1.01703e-06
1.03222e-06
1.0471e-06
1.06168e-06
1.07594e-06
1.08987e-06
1.10347e-06
1.11674e-06
1.12966e-06
1.14224e-06
1.15446e-06
1.16632e-06
1.17782e-06
1.18896e-06
1.19972e-06
1.21011e-06
1.22011e-06
1.22973e-06
1.23896e-06
1.01236e-06
1.02763e-06
1.0426e-06
1.05726e-06
1.07161e-06
1.08564e-06
1.09933e-06
1.1127e-06
1.12572e-06
1.13839e-06
1.15071e-06
1.16268e-06
1.17428e-06
1.18552e-06
1.19639e-06
1.20688e-06
1.21699e-06
1.22672e-06
1.23605e-06
1.00827e-06
1.02361e-06
1.03865e-06
1.05339e-06
1.06782e-06
1.08193e-06
1.09571e-06
1.10915e-06
1.12226e-06
1.13502e-06
1.14743e-06
1.15948e-06
1.17118e-06
1.1825e-06
1.19346e-06
1.20405e-06
1.21425e-06
1.22407e-06
1.23349e-06
1.0048e-06
1.0202e-06
1.03531e-06
1.05012e-06
1.06461e-06
1.07879e-06
1.09263e-06
1.10615e-06
1.11933e-06
1.13216e-06
1.14464e-06
1.15677e-06
1.16854e-06
1.17994e-06
1.19098e-06
1.20164e-06
1.21192e-06
1.22181e-06
1.23132e-06
1.00199e-06
1.01744e-06
1.0326e-06
1.04746e-06
1.062e-06
1.07623e-06
1.09014e-06
1.10371e-06
1.11694e-06
1.12984e-06
1.14238e-06
1.15457e-06
1.16639e-06
1.17786e-06
1.18896e-06
1.19968e-06
1.21002e-06
1.21998e-06
1.22955e-06
9.99864e-07
1.01535e-06
1.03055e-06
1.04544e-06
1.06003e-06
1.0743e-06
1.08824e-06
1.10186e-06
1.11514e-06
1.12807e-06
1.14066e-06
1.15289e-06
1.16477e-06
1.17628e-06
1.18742e-06
1.19819e-06
1.20858e-06
1.21859e-06
1.22821e-06
9.98434e-07
1.01394e-06
1.02917e-06
1.04409e-06
1.0587e-06
1.073e-06
1.08697e-06
1.10062e-06
1.11392e-06
1.12689e-06
1.13951e-06
1.15177e-06
1.16367e-06
1.17522e-06
1.18639e-06
1.19719e-06
1.20762e-06
1.21766e-06
1.22731e-06
)
;

boundaryField
{
    inlet
    {
        type            cyclic;
    }
    outlet
    {
        type            cyclic;
    }
    wall
    {
        type            fixedValue;
        value           nonuniform 0();
    }
    procBoundary4to1
    {
        type            processor;
        value           nonuniform List<scalar> 
61
(
1.31586e-06
1.31315e-06
1.31044e-06
1.30773e-06
1.30508e-06
1.30252e-06
1.30011e-06
1.29788e-06
1.29586e-06
1.29408e-06
1.31586e-06
1.31315e-06
1.31044e-06
1.30773e-06
1.30508e-06
1.30252e-06
1.30011e-06
1.29788e-06
1.29586e-06
1.29408e-06
1.29257e-06
1.29133e-06
1.29039e-06
1.28975e-06
1.28944e-06
1.28944e-06
1.28975e-06
1.29039e-06
1.24043e-06
1.24914e-06
1.25744e-06
1.26533e-06
1.2728e-06
1.27983e-06
1.29133e-06
1.28642e-06
1.24043e-06
1.24253e-06
1.24499e-06
1.24779e-06
1.2509e-06
1.25427e-06
1.25787e-06
1.26165e-06
1.26554e-06
1.26951e-06
1.27354e-06
1.27354e-06
1.26951e-06
1.26554e-06
1.26165e-06
1.25787e-06
1.25427e-06
1.2509e-06
1.24779e-06
1.24499e-06
1.24253e-06
1.24043e-06
1.23873e-06
1.23744e-06
1.23657e-06
)
;
    }
    procBoundary4to3
    {
        type            processor;
        value           nonuniform List<scalar> 
13
(
1.26952e-06
1.26915e-06
1.26915e-06
1.26952e-06
1.27026e-06
1.27135e-06
1.27279e-06
1.26952e-06
1.27671e-06
1.29257e-06
1.29133e-06
1.28346e-06
1.29039e-06
)
;
    }
    procBoundary4to5
    {
        type            processor;
        value           nonuniform List<scalar> 
55
(
7.88669e-07
8.0633e-07
8.2397e-07
8.41551e-07
8.59041e-07
8.7641e-07
8.9363e-07
9.10677e-07
9.27531e-07
9.44171e-07
9.60579e-07
9.7674e-07
9.9264e-07
1.00827e-06
1.02361e-06
1.03865e-06
1.05339e-06
1.06782e-06
1.08193e-06
1.09571e-06
1.10915e-06
1.12226e-06
1.13502e-06
1.14743e-06
1.15948e-06
1.17118e-06
1.1825e-06
1.19346e-06
1.20404e-06
1.21425e-06
1.22407e-06
1.23349e-06
1.24253e-06
1.25115e-06
1.25938e-06
1.26718e-06
9.97716e-07
1.01324e-06
1.02847e-06
1.04341e-06
1.05803e-06
1.07235e-06
1.08633e-06
1.09999e-06
1.11331e-06
1.12629e-06
1.13893e-06
1.1512e-06
1.16313e-06
1.17468e-06
1.18587e-06
1.19669e-06
1.20713e-06
1.21719e-06
1.22686e-06
)
;
    }
    procBoundary4to6
    {
        type            processor;
        value           nonuniform List<scalar> 
43
(
7.60012e-07
7.61604e-07
7.63981e-07
7.67128e-07
7.7922e-07
7.77622e-07
7.76821e-07
7.76821e-07
7.76821e-07
8.22287e-07
8.16296e-07
8.10965e-07
8.06331e-07
8.02421e-07
7.99263e-07
7.99263e-07
8.46461e-07
8.63924e-07
9.21006e-07
9.1224e-07
9.03846e-07
8.9585e-07
8.88304e-07
8.8126e-07
8.8126e-07
9.21006e-07
9.12241e-07
9.03847e-07
9.1288e-07
9.1288e-07
9.22341e-07
9.39061e-07
9.39061e-07
9.32253e-07
9.25964e-07
9.20243e-07
9.15134e-07
9.10678e-07
9.0691e-07
9.03859e-07
9.01549e-07
8.99999e-07
8.99221e-07
)
;
    }
    procBoundary4to7
    {
        type            processor;
        value           nonuniform List<scalar> 
34
(
9.16199e-07
9.32975e-07
9.4953e-07
9.65849e-07
9.81915e-07
9.81915e-07
9.82645e-07
9.84098e-07
9.86262e-07
9.89118e-07
9.92641e-07
9.96801e-07
1.00156e-06
1.00688e-06
1.0127e-06
1.01899e-06
1.02569e-06
1.03273e-06
1.04008e-06
1.04768e-06
1.04768e-06
1.04008e-06
1.03273e-06
1.02569e-06
1.01899e-06
1.0127e-06
1.00688e-06
1.00156e-06
9.96801e-07
9.92641e-07
9.89118e-07
9.86262e-07
9.84098e-07
9.82645e-07
)
;
    }
}


// ************************************************************************* //
