/*--------------------------------*- C++ -*----------------------------------*\
  =========                 |
  \\      /  F ield         | OpenFOAM: The Open Source CFD Toolbox
   \\    /   O peration     | Website:  https://openfoam.org
    \\  /    A nd           | Version:  7
     \\/     M anipulation  |
\*---------------------------------------------------------------------------*/
FoamFile
{
    version     2.0;
    format      ascii;
    class       volScalarField;
    location    "24000";
    object      nut;
}
// * * * * * * * * * * * * * * * * * * * * * * * * * * * * * * * * * * * * * //

dimensions      [0 2 -1 0 0 0 0];

internalField   nonuniform List<scalar> 
1768
(
2.44954e-05
2.44787e-05
2.44535e-05
2.44198e-05
2.42697e-05
2.42872e-05
2.42959e-05
2.42959e-05
2.42872e-05
2.42697e-05
2.42433e-05
2.42082e-05
2.37473e-05
2.38211e-05
2.38855e-05
2.39406e-05
2.39865e-05
2.40231e-05
2.40504e-05
2.40687e-05
2.40778e-05
2.40778e-05
2.40687e-05
2.40505e-05
2.40231e-05
2.39865e-05
2.35076e-05
2.35839e-05
2.36506e-05
2.37076e-05
2.37551e-05
2.3793e-05
2.38214e-05
2.38403e-05
2.38498e-05
2.38498e-05
2.38403e-05
2.38214e-05
2.3793e-05
2.37551e-05
2.32592e-05
2.33377e-05
2.34065e-05
2.34654e-05
2.35144e-05
2.35536e-05
2.35829e-05
2.36025e-05
2.36123e-05
2.36123e-05
2.36025e-05
2.35829e-05
2.35536e-05
2.35144e-05
2.23132e-05
2.24514e-05
2.25805e-05
2.27004e-05
2.28108e-05
2.29114e-05
2.30022e-05
2.3083e-05
2.31537e-05
2.32143e-05
2.32648e-05
2.33051e-05
2.33354e-05
2.33555e-05
2.33656e-05
2.33656e-05
2.33555e-05
2.33354e-05
2.33051e-05
2.32648e-05
2.20326e-05
2.21737e-05
2.23056e-05
2.24281e-05
2.25411e-05
2.26442e-05
2.27372e-05
2.282e-05
2.28926e-05
2.29548e-05
2.30066e-05
2.30481e-05
2.30792e-05
2.30999e-05
2.31102e-05
2.31102e-05
2.30999e-05
2.30792e-05
2.30481e-05
2.30066e-05
2.17455e-05
2.18892e-05
2.20236e-05
2.21487e-05
2.2264e-05
2.23693e-05
2.24644e-05
2.25492e-05
2.26234e-05
2.26871e-05
2.27402e-05
2.27827e-05
2.28146e-05
2.28359e-05
2.28465e-05
2.28465e-05
2.28359e-05
2.28146e-05
2.27827e-05
2.27402e-05
2.1452e-05
2.15981e-05
2.1735e-05
2.18623e-05
2.19799e-05
2.20872e-05
2.21843e-05
2.22708e-05
2.23466e-05
2.24117e-05
2.2466e-05
2.25095e-05
2.25421e-05
2.25639e-05
2.25747e-05
2.25747e-05
2.25639e-05
2.25421e-05
2.25095e-05
2.2466e-05
2.11526e-05
2.1301e-05
2.144e-05
2.15694e-05
2.1689e-05
2.17983e-05
2.18971e-05
2.19853e-05
2.20626e-05
2.2129e-05
2.21844e-05
2.22288e-05
2.2262e-05
2.22842e-05
2.22954e-05
2.22954e-05
2.22842e-05
2.2262e-05
2.22287e-05
2.21844e-05
2.08476e-05
2.0998e-05
2.1139e-05
2.12704e-05
2.13918e-05
2.15028e-05
2.16033e-05
2.16929e-05
2.17716e-05
2.18392e-05
2.18956e-05
2.19408e-05
2.19747e-05
2.19974e-05
2.20087e-05
2.20087e-05
2.19974e-05
2.19747e-05
2.19408e-05
2.18956e-05
2.05373e-05
2.06895e-05
2.08323e-05
2.09654e-05
2.10885e-05
2.12012e-05
2.13031e-05
2.13941e-05
2.14741e-05
2.15427e-05
2.16001e-05
2.16461e-05
2.16806e-05
2.17036e-05
2.17151e-05
2.17151e-05
2.17036e-05
2.16806e-05
2.16461e-05
2.16001e-05
2.02221e-05
2.03759e-05
2.05203e-05
2.0655e-05
2.07796e-05
2.08937e-05
2.0997e-05
2.10892e-05
2.11703e-05
2.124e-05
2.12982e-05
2.13448e-05
2.13799e-05
2.14032e-05
2.14149e-05
2.14149e-05
2.14032e-05
2.13799e-05
2.13448e-05
2.12982e-05
1.99022e-05
2.00574e-05
2.02032e-05
2.03393e-05
2.04653e-05
2.05807e-05
2.06852e-05
2.07786e-05
2.08606e-05
2.09312e-05
2.09902e-05
2.10375e-05
2.1073e-05
2.10967e-05
2.11086e-05
2.11086e-05
2.10967e-05
2.1073e-05
2.10375e-05
2.09902e-05
1.9578e-05
1.97345e-05
1.98815e-05
2.00188e-05
2.0146e-05
2.02625e-05
2.03681e-05
2.04624e-05
2.05454e-05
2.06168e-05
2.06765e-05
2.07244e-05
2.07603e-05
2.07843e-05
2.07963e-05
2.07963e-05
2.07843e-05
2.07603e-05
2.07243e-05
2.06765e-05
1.92498e-05
1.94073e-05
1.95554e-05
1.96938e-05
1.98219e-05
1.99394e-05
2.0046e-05
2.01412e-05
2.0225e-05
2.02971e-05
2.03574e-05
2.04058e-05
2.04421e-05
2.04664e-05
2.04785e-05
2.04785e-05
2.04664e-05
2.04421e-05
2.04058e-05
2.03574e-05
1.89179e-05
1.90763e-05
1.92253e-05
1.93645e-05
1.94935e-05
1.96119e-05
1.97192e-05
1.98152e-05
1.98997e-05
1.99725e-05
2.00333e-05
2.00821e-05
2.01188e-05
2.01433e-05
2.01556e-05
2.01556e-05
2.01433e-05
2.01188e-05
2.00821e-05
2.00333e-05
1.85827e-05
1.87417e-05
1.88914e-05
1.90314e-05
1.91611e-05
1.92801e-05
1.93881e-05
1.94848e-05
1.95699e-05
1.96432e-05
1.97045e-05
1.97537e-05
1.97907e-05
1.98154e-05
1.98277e-05
1.98277e-05
1.98154e-05
1.97907e-05
1.97537e-05
1.97045e-05
1.82443e-05
1.84039e-05
1.85541e-05
1.86946e-05
1.88249e-05
1.89445e-05
1.90531e-05
1.91503e-05
1.92358e-05
1.93096e-05
1.93713e-05
1.94208e-05
1.94581e-05
1.94829e-05
1.94954e-05
1.94954e-05
1.94829e-05
1.94581e-05
1.94208e-05
1.93713e-05
1.79032e-05
1.80631e-05
1.82137e-05
1.83546e-05
1.84853e-05
1.86053e-05
1.87143e-05
1.88119e-05
1.88979e-05
1.8972e-05
1.9034e-05
1.90838e-05
1.91213e-05
1.91463e-05
1.91588e-05
1.91588e-05
1.91463e-05
1.91213e-05
1.90838e-05
1.9034e-05
1.75595e-05
1.77196e-05
1.78704e-05
1.80116e-05
1.81425e-05
1.82629e-05
1.83721e-05
1.84701e-05
1.85564e-05
1.86307e-05
1.8693e-05
1.87431e-05
1.87807e-05
1.88058e-05
1.88184e-05
1.88184e-05
1.88058e-05
1.87807e-05
1.87431e-05
1.8693e-05
1.72137e-05
1.73737e-05
1.75246e-05
1.76659e-05
1.7797e-05
1.79174e-05
1.80269e-05
1.81251e-05
1.82116e-05
1.82861e-05
1.83486e-05
1.83988e-05
1.84366e-05
1.84618e-05
1.84744e-05
1.84744e-05
1.84618e-05
1.84365e-05
1.83988e-05
1.83486e-05
1.68659e-05
1.70258e-05
1.71766e-05
1.73178e-05
1.74488e-05
1.75694e-05
1.76789e-05
1.77772e-05
1.78638e-05
1.79385e-05
1.80011e-05
1.80514e-05
1.80892e-05
1.81145e-05
1.81272e-05
1.81272e-05
1.81145e-05
1.80892e-05
1.80514e-05
1.80011e-05
1.65164e-05
1.6676e-05
1.68266e-05
1.69676e-05
1.70985e-05
1.72189e-05
1.73285e-05
1.74267e-05
1.75133e-05
1.75881e-05
1.76508e-05
1.77011e-05
1.7739e-05
1.77643e-05
1.7777e-05
1.7777e-05
1.77643e-05
1.7739e-05
1.77011e-05
1.76507e-05
1.61656e-05
1.63247e-05
1.64749e-05
1.66155e-05
1.67462e-05
1.68664e-05
1.69758e-05
1.70739e-05
1.71605e-05
1.72353e-05
1.72979e-05
1.73483e-05
1.73861e-05
1.74115e-05
1.74242e-05
1.74242e-05
1.74115e-05
1.73861e-05
1.73482e-05
1.72979e-05
1.58136e-05
1.59722e-05
1.61217e-05
1.62619e-05
1.63922e-05
1.65121e-05
1.66213e-05
1.67192e-05
1.68056e-05
1.68803e-05
1.69428e-05
1.69931e-05
1.7031e-05
1.70563e-05
1.7069e-05
1.7069e-05
1.70563e-05
1.7031e-05
1.69931e-05
1.69428e-05
1.54608e-05
1.56186e-05
1.57675e-05
1.59071e-05
1.60368e-05
1.61563e-05
1.62651e-05
1.63627e-05
1.6449e-05
1.65234e-05
1.65859e-05
1.66361e-05
1.66739e-05
1.66991e-05
1.67118e-05
1.67118e-05
1.66991e-05
1.66739e-05
1.66361e-05
1.65858e-05
1.51074e-05
1.52642e-05
1.54123e-05
1.55512e-05
1.56803e-05
1.57993e-05
1.59076e-05
1.60049e-05
1.60908e-05
1.6165e-05
1.62272e-05
1.62773e-05
1.6315e-05
1.63402e-05
1.63528e-05
1.63528e-05
1.63402e-05
1.6315e-05
1.62773e-05
1.62272e-05
1.47536e-05
1.49094e-05
1.50565e-05
1.51946e-05
1.53229e-05
1.54412e-05
1.5549e-05
1.56458e-05
1.57313e-05
1.58052e-05
1.58672e-05
1.59171e-05
1.59547e-05
1.59798e-05
1.59924e-05
1.59924e-05
1.59798e-05
1.59547e-05
1.59171e-05
1.58672e-05
1.43996e-05
1.45543e-05
1.47004e-05
1.48374e-05
1.49649e-05
1.50825e-05
1.51896e-05
1.52858e-05
1.53709e-05
1.54444e-05
1.55061e-05
1.55558e-05
1.55932e-05
1.56182e-05
1.56307e-05
1.56307e-05
1.56182e-05
1.55932e-05
1.55558e-05
1.55061e-05
1.40458e-05
1.41992e-05
1.43441e-05
1.448e-05
1.46066e-05
1.47232e-05
1.48296e-05
1.49253e-05
1.50098e-05
1.50829e-05
1.51442e-05
1.51936e-05
1.52308e-05
1.52556e-05
1.52681e-05
1.52681e-05
1.52556e-05
1.52308e-05
1.51936e-05
1.51442e-05
1.36923e-05
1.38443e-05
1.39878e-05
1.41226e-05
1.42481e-05
1.43638e-05
1.44694e-05
1.45643e-05
1.46482e-05
1.47208e-05
1.47817e-05
1.48308e-05
1.48677e-05
1.48924e-05
1.49048e-05
1.49048e-05
1.48924e-05
1.48677e-05
1.48308e-05
1.47817e-05
1.33393e-05
1.34898e-05
1.36319e-05
1.37654e-05
1.38897e-05
1.40044e-05
1.4109e-05
1.42032e-05
1.42864e-05
1.43584e-05
1.44189e-05
1.44676e-05
1.45043e-05
1.45288e-05
1.45411e-05
1.45411e-05
1.45288e-05
1.45043e-05
1.44676e-05
1.44189e-05
1.29872e-05
1.3136e-05
1.32766e-05
1.34087e-05
1.35317e-05
1.36453e-05
1.37489e-05
1.38422e-05
1.39247e-05
1.39961e-05
1.4056e-05
1.41043e-05
1.41407e-05
1.41651e-05
1.41773e-05
1.41772e-05
1.4165e-05
1.41407e-05
1.41043e-05
1.4056e-05
1.2636e-05
1.2783e-05
1.2922e-05
1.30526e-05
1.31743e-05
1.32866e-05
1.33892e-05
1.34815e-05
1.35632e-05
1.36339e-05
1.36933e-05
1.37412e-05
1.37772e-05
1.38014e-05
1.38135e-05
1.38135e-05
1.38014e-05
1.37772e-05
1.37412e-05
1.36933e-05
1.2286e-05
1.24312e-05
1.25684e-05
1.26974e-05
1.28176e-05
1.29287e-05
1.30301e-05
1.31214e-05
1.32023e-05
1.32723e-05
1.33311e-05
1.33784e-05
1.34141e-05
1.3438e-05
1.345e-05
1.345e-05
1.3438e-05
1.34141e-05
1.33784e-05
1.33311e-05
1.19374e-05
1.20806e-05
1.2216e-05
1.23433e-05
1.2462e-05
1.25717e-05
1.26719e-05
1.27622e-05
1.28421e-05
1.29113e-05
1.29694e-05
1.30163e-05
1.30516e-05
1.15904e-05
1.17316e-05
1.18651e-05
1.19906e-05
1.21076e-05
1.22159e-05
1.23148e-05
1.24039e-05
1.24828e-05
1.25512e-05
1.26087e-05
1.26549e-05
1.26899e-05
1.12451e-05
1.13842e-05
1.15157e-05
1.16393e-05
1.17547e-05
1.18614e-05
1.1959e-05
1.20469e-05
1.21248e-05
1.21922e-05
1.2249e-05
1.22947e-05
1.23292e-05
2.23132e-05
2.20326e-05
2.17455e-05
2.1452e-05
2.11526e-05
2.08476e-05
2.05373e-05
2.02221e-05
1.99022e-05
1.9578e-05
1.92498e-05
1.89179e-05
1.85827e-05
1.82443e-05
1.79032e-05
1.75595e-05
1.72137e-05
1.68659e-05
1.65164e-05
1.61656e-05
1.58136e-05
1.54608e-05
1.51074e-05
1.47536e-05
1.43996e-05
1.40458e-05
1.36923e-05
1.33393e-05
1.29872e-05
1.2636e-05
1.2286e-05
1.19374e-05
1.15904e-05
1.12451e-05
2.24514e-05
2.21737e-05
2.18892e-05
2.15981e-05
2.1301e-05
2.0998e-05
2.06895e-05
2.03759e-05
2.00574e-05
1.97345e-05
1.94073e-05
1.90763e-05
1.87417e-05
1.84039e-05
1.80631e-05
1.77196e-05
1.73737e-05
1.70258e-05
1.6676e-05
1.63247e-05
1.59722e-05
1.56186e-05
1.52642e-05
1.49094e-05
1.45543e-05
1.41992e-05
1.38443e-05
1.34898e-05
1.3136e-05
1.2783e-05
1.24312e-05
1.20806e-05
1.17316e-05
1.13842e-05
2.25805e-05
2.23056e-05
2.20236e-05
2.1735e-05
2.144e-05
2.1139e-05
2.08323e-05
2.05203e-05
2.02032e-05
1.98815e-05
1.95554e-05
1.92253e-05
1.88914e-05
1.85541e-05
1.82137e-05
1.78704e-05
1.75246e-05
1.71766e-05
1.68266e-05
1.64749e-05
1.61218e-05
1.57675e-05
1.54123e-05
1.50565e-05
1.47004e-05
1.43441e-05
1.39878e-05
1.36319e-05
1.32766e-05
1.2922e-05
1.25684e-05
1.22161e-05
1.18651e-05
1.15157e-05
2.24281e-05
2.21487e-05
2.18623e-05
2.15694e-05
2.12704e-05
2.09654e-05
2.0655e-05
2.03393e-05
2.00188e-05
1.96938e-05
1.93645e-05
1.90314e-05
1.86946e-05
1.83546e-05
1.80116e-05
1.76659e-05
1.73178e-05
1.69676e-05
1.66155e-05
1.62619e-05
1.59071e-05
1.55512e-05
1.51946e-05
1.48374e-05
1.448e-05
1.41226e-05
1.37654e-05
1.34087e-05
1.30526e-05
1.26974e-05
1.23433e-05
1.19906e-05
1.16393e-05
2.19799e-05
2.1689e-05
2.13918e-05
2.10885e-05
2.07796e-05
2.04653e-05
2.0146e-05
1.98219e-05
1.94936e-05
1.91611e-05
1.88249e-05
1.84853e-05
1.81425e-05
1.7797e-05
1.74489e-05
1.70985e-05
1.67462e-05
1.63922e-05
1.60368e-05
1.56803e-05
1.53229e-05
1.49649e-05
1.46066e-05
1.42481e-05
1.38897e-05
1.35317e-05
1.31743e-05
1.28176e-05
1.2462e-05
1.21077e-05
1.17547e-05
2.20873e-05
2.17983e-05
2.15028e-05
2.12012e-05
2.08937e-05
2.05807e-05
2.02625e-05
1.99394e-05
1.96119e-05
1.92801e-05
1.89445e-05
1.86053e-05
1.82629e-05
1.79174e-05
1.75694e-05
1.72189e-05
1.68664e-05
1.65121e-05
1.61563e-05
1.57993e-05
1.54412e-05
1.50825e-05
1.47233e-05
1.43638e-05
1.40044e-05
1.36453e-05
1.32866e-05
1.29287e-05
1.25717e-05
1.22159e-05
1.18614e-05
2.21843e-05
2.18971e-05
2.16033e-05
2.13031e-05
2.0997e-05
2.06852e-05
2.03681e-05
2.0046e-05
1.97192e-05
1.93882e-05
1.90531e-05
1.87143e-05
1.83722e-05
1.80269e-05
1.76789e-05
1.73285e-05
1.69758e-05
1.66213e-05
1.62651e-05
1.59076e-05
1.5549e-05
1.51896e-05
1.48296e-05
1.44694e-05
1.4109e-05
1.37489e-05
1.33892e-05
1.30301e-05
1.26719e-05
1.23148e-05
1.1959e-05
2.22708e-05
2.19853e-05
2.16929e-05
2.13942e-05
2.10892e-05
2.07786e-05
2.04625e-05
2.01412e-05
1.98153e-05
1.94848e-05
1.91503e-05
1.88119e-05
1.84701e-05
1.81251e-05
1.77772e-05
1.74267e-05
1.7074e-05
1.67192e-05
1.63628e-05
1.60049e-05
1.56458e-05
1.52859e-05
1.49253e-05
1.45643e-05
1.42032e-05
1.38422e-05
1.34815e-05
1.31215e-05
1.27622e-05
1.24039e-05
1.20469e-05
2.23467e-05
2.20626e-05
2.17716e-05
2.14741e-05
2.11703e-05
2.08606e-05
2.05454e-05
2.0225e-05
1.98997e-05
1.95699e-05
1.92359e-05
1.88979e-05
1.85564e-05
1.82116e-05
1.78638e-05
1.75133e-05
1.71605e-05
1.68056e-05
1.6449e-05
1.60908e-05
1.57313e-05
1.53709e-05
1.50098e-05
1.46482e-05
1.42864e-05
1.39247e-05
1.35632e-05
1.32023e-05
1.28421e-05
1.24828e-05
1.21248e-05
2.24118e-05
2.2129e-05
2.18392e-05
2.15428e-05
2.124e-05
2.09312e-05
2.06168e-05
2.02971e-05
1.99725e-05
1.96432e-05
1.93096e-05
1.8972e-05
1.86308e-05
1.82862e-05
1.79385e-05
1.75881e-05
1.72353e-05
1.68803e-05
1.65234e-05
1.6165e-05
1.58052e-05
1.54444e-05
1.50829e-05
1.47208e-05
1.43584e-05
1.39961e-05
1.36339e-05
1.32723e-05
1.29113e-05
1.25512e-05
1.21922e-05
2.24661e-05
2.21844e-05
2.18956e-05
2.16001e-05
2.12982e-05
2.09902e-05
2.06765e-05
2.03574e-05
2.00333e-05
1.97045e-05
1.93713e-05
1.9034e-05
1.8693e-05
1.83486e-05
1.80011e-05
1.76508e-05
1.72979e-05
1.69428e-05
1.65859e-05
1.62272e-05
1.58672e-05
1.55061e-05
1.51442e-05
1.47817e-05
1.44189e-05
1.4056e-05
1.36934e-05
1.33311e-05
1.29694e-05
1.26087e-05
1.2249e-05
2.25095e-05
2.22288e-05
2.19408e-05
2.16461e-05
2.13448e-05
2.10375e-05
2.07244e-05
2.04058e-05
2.00821e-05
1.97537e-05
1.94208e-05
1.90838e-05
1.87431e-05
1.83988e-05
1.80514e-05
1.77011e-05
1.73483e-05
1.69932e-05
1.66361e-05
1.62773e-05
1.59171e-05
1.55558e-05
1.51936e-05
1.48308e-05
1.44676e-05
1.41043e-05
1.37412e-05
1.33784e-05
1.30163e-05
1.2655e-05
1.22947e-05
2.25421e-05
2.22621e-05
2.19748e-05
2.16806e-05
2.13799e-05
2.1073e-05
2.07603e-05
2.04421e-05
2.01188e-05
1.97907e-05
1.94581e-05
1.91213e-05
1.87807e-05
1.84366e-05
1.80892e-05
1.7739e-05
1.73862e-05
1.7031e-05
1.66739e-05
1.6315e-05
1.59547e-05
1.55932e-05
1.52308e-05
1.48677e-05
1.45043e-05
1.41407e-05
1.37773e-05
1.34141e-05
1.30516e-05
1.26899e-05
1.23292e-05
2.25639e-05
2.22843e-05
2.19974e-05
2.17036e-05
2.14033e-05
2.10967e-05
2.07843e-05
2.04664e-05
2.01433e-05
1.98154e-05
1.94829e-05
1.91463e-05
1.88058e-05
1.84618e-05
1.81145e-05
1.77643e-05
1.74115e-05
1.70563e-05
1.66991e-05
1.63402e-05
1.59798e-05
1.56182e-05
1.52556e-05
1.48924e-05
1.45288e-05
1.41651e-05
1.38014e-05
1.3438e-05
1.30752e-05
1.27132e-05
1.23522e-05
2.25748e-05
2.22954e-05
2.20087e-05
2.17151e-05
2.1415e-05
2.11086e-05
2.07963e-05
2.04786e-05
2.01556e-05
1.98278e-05
1.94954e-05
1.91588e-05
1.88184e-05
1.84744e-05
1.81272e-05
1.7777e-05
1.74242e-05
1.7069e-05
1.67118e-05
1.63528e-05
1.59924e-05
1.56307e-05
1.52681e-05
1.49048e-05
1.45411e-05
1.41773e-05
1.38135e-05
1.345e-05
1.30871e-05
1.27249e-05
1.23638e-05
2.11086e-05
2.07963e-05
2.04786e-05
2.01556e-05
1.98278e-05
1.94954e-05
1.91588e-05
1.88184e-05
1.84744e-05
1.81272e-05
1.7777e-05
1.74242e-05
1.7069e-05
1.67118e-05
1.63528e-05
1.59924e-05
1.56307e-05
1.52681e-05
1.49048e-05
1.45411e-05
1.41773e-05
1.38135e-05
1.345e-05
1.30871e-05
1.27249e-05
1.23638e-05
2.10967e-05
2.07843e-05
2.04664e-05
2.01433e-05
1.98154e-05
1.9483e-05
1.91463e-05
1.88058e-05
1.84618e-05
1.81145e-05
1.77643e-05
1.74115e-05
1.70563e-05
1.66992e-05
1.63402e-05
1.59798e-05
1.56182e-05
1.52557e-05
1.48924e-05
1.45288e-05
1.41651e-05
1.38014e-05
1.3438e-05
1.30752e-05
1.27132e-05
1.23522e-05
2.1073e-05
2.07603e-05
2.04422e-05
2.01188e-05
1.97907e-05
1.94581e-05
1.91213e-05
1.87807e-05
1.84366e-05
1.80892e-05
1.7739e-05
1.73862e-05
1.7031e-05
1.66739e-05
1.6315e-05
1.59547e-05
1.55932e-05
1.52308e-05
1.48677e-05
1.45043e-05
1.41407e-05
1.37773e-05
1.34141e-05
1.30516e-05
1.26899e-05
1.23292e-05
2.10375e-05
2.07244e-05
2.04058e-05
2.00821e-05
1.97537e-05
1.94208e-05
1.90839e-05
1.87431e-05
1.83988e-05
1.80514e-05
1.77011e-05
1.73483e-05
1.69932e-05
1.66361e-05
1.62773e-05
1.59171e-05
1.55558e-05
1.51936e-05
1.48308e-05
1.44676e-05
1.41043e-05
1.37412e-05
1.33784e-05
1.30163e-05
1.2655e-05
1.22947e-05
2.09902e-05
2.06765e-05
2.03574e-05
2.00333e-05
1.97045e-05
1.93713e-05
1.90341e-05
1.86931e-05
1.83486e-05
1.80011e-05
1.76508e-05
1.72979e-05
1.69429e-05
1.65859e-05
1.62272e-05
1.58672e-05
1.55061e-05
1.51442e-05
1.47817e-05
2.09312e-05
2.06168e-05
2.02971e-05
1.99725e-05
1.96432e-05
1.93096e-05
1.8972e-05
1.86308e-05
1.82862e-05
1.79385e-05
1.75881e-05
1.72353e-05
1.68803e-05
1.65234e-05
1.6165e-05
1.58052e-05
1.54444e-05
1.50829e-05
1.47208e-05
2.08606e-05
2.05454e-05
2.0225e-05
1.98997e-05
1.95699e-05
1.92359e-05
1.88979e-05
1.85564e-05
1.82116e-05
1.78638e-05
1.75134e-05
1.71605e-05
1.68057e-05
1.6449e-05
1.60908e-05
1.57313e-05
1.53709e-05
1.50098e-05
1.46482e-05
2.07786e-05
2.04625e-05
2.01412e-05
1.98153e-05
1.94848e-05
1.91503e-05
1.88119e-05
1.84701e-05
1.81251e-05
1.77772e-05
1.74267e-05
1.7074e-05
1.67192e-05
1.63628e-05
1.60049e-05
1.56458e-05
1.52859e-05
1.49253e-05
1.45643e-05
2.06852e-05
2.03681e-05
2.0046e-05
1.97192e-05
1.93882e-05
1.90531e-05
1.87143e-05
1.83722e-05
1.80269e-05
1.76789e-05
1.73285e-05
1.69758e-05
1.66213e-05
1.62651e-05
1.59076e-05
1.5549e-05
1.51896e-05
1.48296e-05
1.44694e-05
2.05807e-05
2.02625e-05
1.99395e-05
1.96119e-05
1.92802e-05
1.89445e-05
1.86053e-05
1.82629e-05
1.79175e-05
1.75694e-05
1.7219e-05
1.68664e-05
1.65121e-05
1.61563e-05
1.57993e-05
1.54412e-05
1.50825e-05
1.47233e-05
1.43638e-05
2.04653e-05
2.0146e-05
1.9822e-05
1.94936e-05
1.91611e-05
1.88249e-05
1.84853e-05
1.81425e-05
1.7797e-05
1.74489e-05
1.70985e-05
1.67462e-05
1.63922e-05
1.60368e-05
1.56803e-05
1.53229e-05
1.49649e-05
1.46066e-05
1.42481e-05
2.03394e-05
2.00189e-05
1.96938e-05
1.93645e-05
1.90314e-05
1.86946e-05
1.83546e-05
1.80116e-05
1.76659e-05
1.73178e-05
1.69676e-05
1.66155e-05
1.62619e-05
1.59071e-05
1.55512e-05
1.51946e-05
1.48374e-05
1.448e-05
1.41226e-05
2.02032e-05
1.98815e-05
1.95554e-05
1.92253e-05
1.88914e-05
1.85541e-05
1.82137e-05
1.78704e-05
1.75246e-05
1.71766e-05
1.68266e-05
1.64749e-05
1.61218e-05
1.57675e-05
1.54123e-05
1.50565e-05
1.47004e-05
1.43441e-05
1.39878e-05
2.00574e-05
1.97345e-05
1.94073e-05
1.90763e-05
1.87417e-05
1.84039e-05
1.80631e-05
1.77196e-05
1.73738e-05
1.70258e-05
1.6676e-05
1.63247e-05
1.59722e-05
1.56186e-05
1.52643e-05
1.49094e-05
1.45543e-05
1.41992e-05
1.38443e-05
1.99022e-05
1.9578e-05
1.92498e-05
1.89179e-05
1.85827e-05
1.82443e-05
1.79032e-05
1.75595e-05
1.72137e-05
1.68659e-05
1.65164e-05
1.61656e-05
1.58136e-05
1.54608e-05
1.51074e-05
1.47536e-05
1.43996e-05
1.40458e-05
1.36923e-05
1.99022e-05
1.9578e-05
1.92498e-05
1.89179e-05
1.85827e-05
1.82443e-05
1.79032e-05
1.75595e-05
1.72137e-05
1.68659e-05
1.65164e-05
1.61656e-05
1.58136e-05
1.54608e-05
1.51074e-05
1.47536e-05
1.43996e-05
1.40458e-05
1.36923e-05
2.00574e-05
1.97345e-05
1.94073e-05
1.90763e-05
1.87417e-05
1.84039e-05
1.80631e-05
1.77196e-05
1.73737e-05
1.70258e-05
1.6676e-05
1.63247e-05
1.59722e-05
1.56186e-05
1.52643e-05
1.49094e-05
1.45543e-05
1.41992e-05
1.38443e-05
2.02032e-05
1.98815e-05
1.95554e-05
1.92253e-05
1.88914e-05
1.85541e-05
1.82137e-05
1.78704e-05
1.75246e-05
1.71766e-05
1.68266e-05
1.64749e-05
1.61218e-05
1.57675e-05
1.54123e-05
1.50566e-05
1.47004e-05
1.43441e-05
1.39878e-05
2.03394e-05
2.00189e-05
1.96938e-05
1.93646e-05
1.90314e-05
1.86946e-05
1.83546e-05
1.80116e-05
1.76659e-05
1.73178e-05
1.69676e-05
1.66155e-05
1.62619e-05
1.59071e-05
1.55512e-05
1.51946e-05
1.48374e-05
1.448e-05
1.41226e-05
2.04653e-05
2.0146e-05
1.9822e-05
1.94936e-05
1.91611e-05
1.88249e-05
1.84853e-05
1.81425e-05
1.7797e-05
1.74489e-05
1.70985e-05
1.67462e-05
1.63922e-05
1.60368e-05
1.56803e-05
1.53229e-05
1.49649e-05
1.46066e-05
1.42481e-05
2.05807e-05
2.02625e-05
1.99395e-05
1.96119e-05
1.92802e-05
1.89445e-05
1.86053e-05
1.82629e-05
1.79175e-05
1.75694e-05
1.7219e-05
1.68664e-05
1.65121e-05
1.61563e-05
1.57993e-05
1.54412e-05
1.50825e-05
1.47233e-05
1.43638e-05
2.06852e-05
2.03681e-05
2.0046e-05
1.97192e-05
1.93882e-05
1.90531e-05
1.87143e-05
1.83722e-05
1.80269e-05
1.76789e-05
1.73285e-05
1.69758e-05
1.66213e-05
1.62651e-05
1.59076e-05
1.5549e-05
1.51896e-05
1.48296e-05
1.44694e-05
2.07786e-05
2.04625e-05
2.01412e-05
1.98153e-05
1.94848e-05
1.91503e-05
1.88119e-05
1.84701e-05
1.81251e-05
1.77772e-05
1.74267e-05
1.7074e-05
1.67192e-05
1.63628e-05
1.60049e-05
1.56458e-05
1.52859e-05
1.49253e-05
1.45643e-05
2.08606e-05
2.05454e-05
2.0225e-05
1.98997e-05
1.95699e-05
1.92359e-05
1.88979e-05
1.85564e-05
1.82116e-05
1.78638e-05
1.75134e-05
1.71605e-05
1.68057e-05
1.6449e-05
1.60908e-05
1.57313e-05
1.53709e-05
1.50098e-05
1.46482e-05
2.09312e-05
2.06168e-05
2.02971e-05
1.99725e-05
1.96432e-05
1.93096e-05
1.8972e-05
1.86308e-05
1.82862e-05
1.79385e-05
1.75881e-05
1.72353e-05
1.68803e-05
1.65234e-05
1.6165e-05
1.58052e-05
1.54444e-05
1.50829e-05
1.47208e-05
2.09902e-05
2.06765e-05
2.03574e-05
2.00333e-05
1.97045e-05
1.93713e-05
1.9034e-05
1.8693e-05
1.83486e-05
1.80011e-05
1.76508e-05
1.72979e-05
1.69428e-05
1.65859e-05
1.62272e-05
1.58672e-05
1.55061e-05
1.51442e-05
1.47817e-05
2.10375e-05
2.07244e-05
2.04058e-05
2.00821e-05
1.97537e-05
1.94208e-05
1.90838e-05
1.87431e-05
1.83988e-05
1.80514e-05
1.77011e-05
1.73483e-05
1.69932e-05
1.66361e-05
1.62773e-05
1.59171e-05
1.55558e-05
1.51936e-05
1.48308e-05
2.1073e-05
2.07603e-05
2.04422e-05
2.01188e-05
1.97907e-05
1.94581e-05
1.91213e-05
1.87807e-05
1.84366e-05
1.80892e-05
1.7739e-05
1.73862e-05
1.7031e-05
1.66739e-05
1.6315e-05
1.59547e-05
1.55932e-05
1.52308e-05
1.48677e-05
2.10967e-05
2.07843e-05
2.04664e-05
2.01433e-05
1.98154e-05
1.9483e-05
1.91463e-05
1.88058e-05
1.84618e-05
1.81145e-05
1.77643e-05
1.74115e-05
1.70563e-05
1.66992e-05
1.63402e-05
1.59798e-05
1.56182e-05
1.52556e-05
1.48924e-05
)
;

boundaryField
{
    inlet
    {
        type            cyclic;
    }
    outlet
    {
        type            cyclic;
    }
    wall
    {
        type            fixedValue;
        value           nonuniform 0();
    }
    procBoundary4to1
    {
        type            processor;
        value           nonuniform List<scalar> 
61
(
1.09018e-05
1.10387e-05
1.1168e-05
1.12898e-05
1.14034e-05
1.15085e-05
1.16046e-05
1.16913e-05
1.17681e-05
1.18346e-05
1.09018e-05
1.10387e-05
1.1168e-05
1.12898e-05
1.14034e-05
1.15085e-05
1.16046e-05
1.16913e-05
1.17681e-05
1.18346e-05
1.18906e-05
1.19357e-05
1.19697e-05
1.19925e-05
1.20039e-05
1.20039e-05
1.19925e-05
1.19697e-05
1.44189e-05
1.40561e-05
1.36934e-05
1.33311e-05
1.29694e-05
1.26087e-05
1.19357e-05
1.2249e-05
1.44189e-05
1.43585e-05
1.42864e-05
1.42032e-05
1.4109e-05
1.40044e-05
1.38897e-05
1.37654e-05
1.36319e-05
1.34898e-05
1.33393e-05
1.33393e-05
1.34898e-05
1.36319e-05
1.37654e-05
1.38897e-05
1.40044e-05
1.4109e-05
1.42032e-05
1.42864e-05
1.43584e-05
1.44189e-05
1.44676e-05
1.45043e-05
1.45288e-05
)
;
    }
    procBoundary4to3
    {
        type            processor;
        value           nonuniform List<scalar> 
13
(
1.30752e-05
1.30871e-05
1.30871e-05
1.30752e-05
1.30516e-05
1.30163e-05
1.29694e-05
1.30752e-05
1.27132e-05
1.18906e-05
1.19357e-05
1.23522e-05
1.19697e-05
)
;
    }
    procBoundary4to5
    {
        type            processor;
        value           nonuniform List<scalar> 
55
(
2.43775e-05
2.41641e-05
2.39406e-05
2.37076e-05
2.34654e-05
2.32143e-05
2.29548e-05
2.26871e-05
2.24117e-05
2.2129e-05
2.18392e-05
2.15427e-05
2.124e-05
2.09312e-05
2.06168e-05
2.02971e-05
1.99725e-05
1.96432e-05
1.93096e-05
1.8972e-05
1.86307e-05
1.82861e-05
1.79385e-05
1.75881e-05
1.72353e-05
1.68803e-05
1.65234e-05
1.6165e-05
1.58052e-05
1.54444e-05
1.50829e-05
1.47208e-05
1.43584e-05
1.39961e-05
1.36339e-05
1.32723e-05
2.11086e-05
2.07963e-05
2.04786e-05
2.01556e-05
1.98278e-05
1.94954e-05
1.91589e-05
1.88184e-05
1.84744e-05
1.81272e-05
1.7777e-05
1.74242e-05
1.7069e-05
1.67118e-05
1.63528e-05
1.59924e-05
1.56307e-05
1.52681e-05
1.49048e-05
)
;
    }
    procBoundary4to6
    {
        type            processor;
        value           nonuniform List<scalar> 
43
(
2.4693e-05
2.46771e-05
2.4653e-05
2.46209e-05
2.44787e-05
2.44954e-05
2.45038e-05
2.45038e-05
2.45038e-05
2.39778e-05
2.40489e-05
2.4111e-05
2.41641e-05
2.42082e-05
2.42433e-05
2.42433e-05
2.36642e-05
2.34218e-05
2.25868e-05
2.2722e-05
2.2848e-05
2.2965e-05
2.30727e-05
2.31708e-05
2.31708e-05
2.25868e-05
2.2722e-05
2.2848e-05
2.27004e-05
2.27004e-05
2.25411e-05
2.2264e-05
2.2264e-05
2.23693e-05
2.24644e-05
2.25492e-05
2.26234e-05
2.26871e-05
2.27402e-05
2.27828e-05
2.28146e-05
2.28359e-05
2.28465e-05
)
;
    }
    procBoundary4to7
    {
        type            processor;
        value           nonuniform List<scalar> 
34
(
2.25748e-05
2.22954e-05
2.20087e-05
2.17151e-05
2.1415e-05
2.1415e-05
2.14033e-05
2.13799e-05
2.13449e-05
2.12982e-05
2.124e-05
2.11703e-05
2.10893e-05
2.0997e-05
2.08937e-05
2.07796e-05
2.0655e-05
2.05203e-05
2.03759e-05
2.02221e-05
2.02221e-05
2.03759e-05
2.05203e-05
2.0655e-05
2.07796e-05
2.08937e-05
2.0997e-05
2.10893e-05
2.11703e-05
2.124e-05
2.12982e-05
2.13449e-05
2.13799e-05
2.14033e-05
)
;
    }
}


// ************************************************************************* //
