/*--------------------------------*- C++ -*----------------------------------*\
  =========                 |
  \\      /  F ield         | OpenFOAM: The Open Source CFD Toolbox
   \\    /   O peration     | Website:  https://openfoam.org
    \\  /    A nd           | Version:  7
     \\/     M anipulation  |
\*---------------------------------------------------------------------------*/
FoamFile
{
    version     2.0;
    format      ascii;
    class       volScalarField;
    location    "24000";
    object      omega;
}
// * * * * * * * * * * * * * * * * * * * * * * * * * * * * * * * * * * * * * //

dimensions      [0 0 -1 0 0 0 0];

internalField   nonuniform List<scalar> 
1768
(
0.0317456
0.0318326
0.0319629
0.0321363
0.0328342
0.0327447
0.0326999
0.0326999
0.0327447
0.0328342
0.0329683
0.0331467
0.0353673
0.0350072
0.0346902
0.0344172
0.0341888
0.0340054
0.0338676
0.0337755
0.0337294
0.0337294
0.0337755
0.0338676
0.0340054
0.0341888
0.0364725
0.0361028
0.0357774
0.0354971
0.0352625
0.0350742
0.0349326
0.0348381
0.0347907
0.0347907
0.0348381
0.0349326
0.0350742
0.0352625
0.0376096
0.0372304
0.0368965
0.0366089
0.0363682
0.0361749
0.0360296
0.0359325
0.0358839
0.0358839
0.0359325
0.0360296
0.0361749
0.0363682
0.0420251
0.0413813
0.0407778
0.0402143
0.0396924
0.0392137
0.0387793
0.0383904
0.038048
0.037753
0.0375061
0.0373079
0.0371588
0.0370592
0.0370094
0.0370094
0.0370592
0.0371588
0.0373079
0.0375061
0.0433086
0.042649
0.0420305
0.041453
0.0409182
0.0404275
0.0399822
0.0395835
0.0392325
0.0389301
0.0386769
0.0384737
0.0383208
0.0382187
0.0381676
0.0381676
0.0382187
0.0383208
0.0384737
0.0386769
0.0446278
0.043952
0.0433183
0.0427265
0.0421784
0.0416755
0.0412191
0.0408105
0.0404508
0.0401407
0.0398813
0.039673
0.0395163
0.0394116
0.0393593
0.0393593
0.0394116
0.0395163
0.0396729
0.0398813
0.0459841
0.0452916
0.0446422
0.0440358
0.0434741
0.0429588
0.0424911
0.0420723
0.0417036
0.041386
0.04112
0.0409066
0.040746
0.0406388
0.0405851
0.0405851
0.0406388
0.040746
0.0409066
0.04112
0.0473788
0.0466692
0.0460036
0.0453822
0.0448066
0.0442784
0.0437992
0.0433701
0.0429923
0.0426667
0.0423942
0.0421755
0.042011
0.0419011
0.0418461
0.0418461
0.0419011
0.042011
0.0421755
0.0423942
0.0488134
0.048086
0.0474039
0.046767
0.0461771
0.0456358
0.0451446
0.0447049
0.0443178
0.0439842
0.043705
0.0434809
0.0433123
0.0431997
0.0431434
0.0431434
0.0431997
0.0433123
0.0434809
0.043705
0.0502895
0.0495439
0.0488446
0.0481917
0.0475871
0.0470323
0.0465289
0.0460782
0.0456815
0.0453397
0.0450536
0.0448239
0.0446513
0.0445359
0.0444782
0.0444782
0.0445359
0.0446512
0.0448239
0.0450536
0.051809
0.0510444
0.0503274
0.049658
0.0490381
0.0484694
0.0479534
0.0474915
0.0470849
0.0467346
0.0464414
0.0462061
0.0460292
0.045911
0.0458518
0.0458518
0.045911
0.0460292
0.0462061
0.0464414
0.0533736
0.0525895
0.0518541
0.0511676
0.050532
0.0499489
0.0494199
0.0489463
0.0485296
0.0481705
0.0478701
0.0476289
0.0474476
0.0473265
0.0472659
0.0472659
0.0473265
0.0474476
0.0476289
0.0478701
0.0549856
0.0541811
0.0534266
0.0527225
0.0520706
0.0514725
0.0509301
0.0504446
0.0500173
0.0496492
0.0493412
0.049094
0.0489082
0.0487841
0.048722
0.048722
0.0487841
0.0489082
0.049094
0.0493412
0.056647
0.0558213
0.0550471
0.0543246
0.0536558
0.0530424
0.052486
0.051988
0.0515498
0.0511725
0.0508567
0.0506033
0.0504128
0.0502856
0.0502219
0.0502219
0.0502856
0.0504128
0.0506033
0.0508567
0.0583602
0.0575125
0.0567178
0.0559763
0.0552899
0.0546605
0.0540896
0.0535788
0.0531294
0.0527423
0.0524185
0.0521587
0.0519634
0.0518329
0.0517676
0.0517676
0.0518329
0.0519634
0.0521587
0.0524185
0.0601277
0.0592571
0.0584411
0.0576798
0.0569752
0.0563291
0.0557433
0.0552192
0.054758
0.054361
0.0540288
0.0537623
0.053562
0.0534282
0.0533613
0.0533613
0.0534282
0.053562
0.0537623
0.0540288
0.0619522
0.0610577
0.0602195
0.0594376
0.0587141
0.0580508
0.0574494
0.0569114
0.0564381
0.0560307
0.0556899
0.0554165
0.055211
0.0550737
0.0550051
0.0550051
0.0550737
0.055211
0.0554165
0.0556899
0.0638364
0.0629172
0.0620558
0.0612525
0.0605093
0.0598281
0.0592105
0.0586581
0.0581722
0.057754
0.0574042
0.0571236
0.0569127
0.0567719
0.0567014
0.0567014
0.0567719
0.0569127
0.0571236
0.0574042
0.0657835
0.0648383
0.0639529
0.0631274
0.0623637
0.0616637
0.0610293
0.0604619
0.059963
0.0595335
0.0591744
0.0588863
0.0586698
0.0585253
0.058453
0.058453
0.0585253
0.0586698
0.0588863
0.0591744
0.0677967
0.0668245
0.065914
0.0650652
0.0642801
0.0635607
0.0629088
0.0623258
0.0618133
0.0613721
0.0610033
0.0607074
0.0604851
0.0603367
0.0602624
0.0602624
0.0603367
0.0604851
0.0607074
0.0610033
0.0698793
0.0688789
0.0679422
0.0670693
0.0662619
0.0655223
0.0648521
0.0642529
0.0637261
0.0632728
0.0628939
0.06259
0.0623616
0.0622091
0.0621329
0.0621329
0.0622091
0.0623616
0.06259
0.0628939
0.0720351
0.0710053
0.0700413
0.0691431
0.0683126
0.0675518
0.0668625
0.0662465
0.0657049
0.0652389
0.0648494
0.0645371
0.0643024
0.0641458
0.0640674
0.0640674
0.0641457
0.0643024
0.0645371
0.0648494
0.074268
0.0732074
0.072215
0.0712904
0.0704356
0.0696528
0.0689437
0.06831
0.067753
0.0672739
0.0668734
0.0665523
0.066311
0.06615
0.0660694
0.0660694
0.0661499
0.066311
0.0665522
0.0668734
0.0765821
0.0754895
0.0744672
0.0735151
0.0726351
0.0718293
0.0710995
0.0704474
0.0698743
0.0693814
0.0689694
0.0686391
0.068391
0.0682254
0.0681425
0.0681425
0.0682254
0.068391
0.0686391
0.0689694
0.0789819
0.0778557
0.0768024
0.0758215
0.0749151
0.0740853
0.0733339
0.0726626
0.0720727
0.0715654
0.0711415
0.0708016
0.0705463
0.0703759
0.0702907
0.0702907
0.0703759
0.0705463
0.0708016
0.0711414
0.0814722
0.0803109
0.079225
0.0782142
0.0772802
0.0764253
0.0756513
0.0749599
0.0743525
0.0738301
0.0733937
0.0730439
0.0727811
0.0726057
0.072518
0.072518
0.0726057
0.0727811
0.0730438
0.0733937
0.0840581
0.08286
0.0817402
0.0806979
0.0797351
0.078854
0.0780564
0.077344
0.0767183
0.0761802
0.0757307
0.0753704
0.0750998
0.0749192
0.0748289
0.0748289
0.0749192
0.0750998
0.0753704
0.0757307
0.086745
0.0855084
0.0843531
0.083278
0.082285
0.0813764
0.0805541
0.0798198
0.0791749
0.0786205
0.0781573
0.0777861
0.0775073
0.0773212
0.0772282
0.0772282
0.0773212
0.0775073
0.0777861
0.0781573
0.0895387
0.0882619
0.0870693
0.0859598
0.0849354
0.0839981
0.08315
0.0823927
0.0817277
0.0811561
0.0806786
0.080296
0.0800086
0.0798168
0.0797209
0.0797209
0.0798168
0.0800086
0.0802959
0.0806786
0.0924456
0.0911266
0.089895
0.0887496
0.0876921
0.0867247
0.0858496
0.0850683
0.0843823
0.0837927
0.0833002
0.0829056
0.0826093
0.0824115
0.0823126
0.0823126
0.0824115
0.0826093
0.0829056
0.0833002
0.0954724
0.0941091
0.0928367
0.0916536
0.0905615
0.0895627
0.0886592
0.0878528
0.0871447
0.0865363
0.0860281
0.0856209
0.0853152
0.0851112
0.0850092
0.0850092
0.0851112
0.0853152
0.0856209
0.0860281
0.0986263
0.0972166
0.0959014
0.0946787
0.0935504
0.0925186
0.0915854
0.0907526
0.0900215
0.0893933
0.0888687
0.0884484
0.0881328
0.0879222
0.0878169
0.0878168
0.0879222
0.0881327
0.0884483
0.0888686
0.101915
0.100457
0.0990966
0.0978325
0.0966661
0.0955997
0.0946354
0.0937749
0.0930196
0.0923707
0.0918288
0.0913947
0.0910687
0.0908513
0.0907425
0.0907425
0.0908513
0.0910687
0.0913947
0.0918288
0.105347
0.103838
0.10243
0.101123
0.0999165
0.0988139
0.0978169
0.0969273
0.0961467
0.0954759
0.0949159
0.0944673
0.0941305
0.0939058
0.0937934
0.0937934
0.0939058
0.0941305
0.0944673
0.0949159
0.108932
0.107368
0.105912
0.104558
0.10331
0.102169
0.101138
0.100218
0.0994107
0.0987171
0.0981381
0.0976743
0.0973261
0.112678
0.111058
0.10955
0.108148
0.106856
0.105675
0.104608
0.103656
0.102821
0.102103
0.101504
0.101024
0.100664
0.116597
0.114918
0.113355
0.111903
0.110565
0.109342
0.108237
0.107251
0.106386
0.105643
0.105023
0.104526
0.104153
0.0420252
0.0433086
0.0446278
0.0459841
0.0473788
0.0488134
0.0502895
0.051809
0.0533736
0.0549856
0.056647
0.0583602
0.0601277
0.0619522
0.0638365
0.0657835
0.0677967
0.0698793
0.0720351
0.074268
0.0765821
0.0789819
0.0814722
0.0840581
0.086745
0.0895387
0.0924457
0.0954724
0.0986263
0.101915
0.105347
0.108932
0.112678
0.116597
0.0413813
0.042649
0.043952
0.0452916
0.0466692
0.0480861
0.0495439
0.0510444
0.0525895
0.0541811
0.0558213
0.0575125
0.0592571
0.0610577
0.0629172
0.0648384
0.0668245
0.068879
0.0710053
0.0732075
0.0754895
0.0778557
0.0803109
0.08286
0.0855084
0.0882619
0.0911266
0.0941091
0.0972166
0.100457
0.103838
0.107368
0.111058
0.114918
0.0407778
0.0420305
0.0433183
0.0446422
0.0460036
0.0474039
0.0488446
0.0503274
0.0518541
0.0534266
0.0550471
0.0567178
0.0584411
0.0602195
0.0620558
0.0639529
0.065914
0.0679423
0.0700413
0.072215
0.0744672
0.0768024
0.0792251
0.0817402
0.0843531
0.0870693
0.089895
0.0928367
0.0959014
0.0990965
0.10243
0.105912
0.10955
0.113355
0.041453
0.0427265
0.0440358
0.0453822
0.046767
0.0481917
0.049658
0.0511677
0.0527225
0.0543247
0.0559763
0.0576798
0.0594377
0.0612526
0.0631274
0.0650652
0.0670693
0.0691431
0.0712904
0.0735151
0.0758215
0.0782142
0.0806979
0.083278
0.0859598
0.0887496
0.0916536
0.0946787
0.0978325
0.101123
0.104558
0.108148
0.111903
0.0434742
0.0448066
0.0461771
0.0475871
0.0490381
0.050532
0.0520706
0.0536558
0.0552899
0.0569752
0.0587141
0.0605094
0.0623637
0.0642802
0.066262
0.0683126
0.0704357
0.0726351
0.0749152
0.0772802
0.0797352
0.082285
0.0849354
0.0876921
0.0905615
0.0935504
0.0966661
0.0999165
0.10331
0.106856
0.110565
0.0429588
0.0442784
0.0456358
0.0470323
0.0484694
0.0499489
0.0514726
0.0530424
0.0546605
0.0563291
0.0580508
0.0598281
0.0616637
0.0635607
0.0655223
0.0675518
0.0696528
0.0718293
0.0740853
0.0764253
0.078854
0.0813764
0.0839981
0.0867247
0.0895627
0.0925186
0.0955997
0.0988139
0.102169
0.105675
0.109342
0.0424911
0.0437992
0.0451446
0.0465289
0.0479534
0.0494199
0.0509301
0.052486
0.0540896
0.0557433
0.0574494
0.0592105
0.0610293
0.0629088
0.0648521
0.0668625
0.0689437
0.0710995
0.0733339
0.0756513
0.0780564
0.0805541
0.08315
0.0858496
0.0886592
0.0915854
0.0946354
0.0978169
0.101138
0.104608
0.108237
0.0420723
0.0433701
0.0447049
0.0460782
0.0474915
0.0489463
0.0504446
0.051988
0.0535788
0.0552192
0.0569114
0.0586581
0.0604619
0.0623258
0.0642529
0.0662465
0.06831
0.0704474
0.0726626
0.0749599
0.077344
0.0798199
0.0823927
0.0850683
0.0878527
0.0907526
0.0937749
0.0969273
0.100218
0.103656
0.107251
0.0417036
0.0429922
0.0443177
0.0456815
0.0470849
0.0485295
0.0500172
0.0515498
0.0531294
0.054758
0.0564381
0.0581722
0.059963
0.0618133
0.0637261
0.0657049
0.067753
0.0698743
0.0720727
0.0743525
0.0767183
0.0791749
0.0817277
0.0843823
0.0871447
0.0900215
0.0930196
0.0961466
0.0994107
0.102821
0.106386
0.0413859
0.0426667
0.0439842
0.0453396
0.0467346
0.0481705
0.0496492
0.0511724
0.0527423
0.054361
0.0560307
0.057754
0.0595335
0.0613721
0.0632728
0.0652389
0.0672739
0.0693814
0.0715654
0.0738301
0.0761802
0.0786204
0.0811561
0.0837927
0.0865362
0.0893933
0.0923706
0.0954759
0.0987171
0.102103
0.105643
0.04112
0.0423942
0.043705
0.0450536
0.0464414
0.04787
0.0493412
0.0508567
0.0524185
0.0540288
0.0556899
0.0574042
0.0591744
0.0610033
0.0628939
0.0648494
0.0668734
0.0689694
0.0711414
0.0733937
0.0757307
0.0781573
0.0806786
0.0833002
0.0860281
0.0888686
0.0918288
0.0949159
0.0981381
0.101504
0.105023
0.0409065
0.0421755
0.0434809
0.0448239
0.0462061
0.0476289
0.049094
0.0506033
0.0521587
0.0537623
0.0554165
0.0571236
0.0588863
0.0607074
0.0625899
0.0645371
0.0665522
0.0686391
0.0708016
0.0730438
0.0753704
0.0777861
0.0802959
0.0829056
0.0856209
0.0884483
0.0913947
0.0944673
0.0976742
0.101024
0.104526
0.040746
0.042011
0.0433123
0.0446512
0.0460291
0.0474476
0.0489082
0.0504128
0.0519633
0.053562
0.0552109
0.0569127
0.0586698
0.0604851
0.0623616
0.0643024
0.066311
0.068391
0.0705463
0.0727811
0.0750998
0.0775073
0.0800086
0.0826092
0.0853152
0.0881327
0.0910687
0.0941305
0.0973261
0.100664
0.104153
0.0406388
0.0419011
0.0431997
0.0445359
0.045911
0.0473265
0.0487841
0.0502856
0.0518329
0.0534282
0.0550737
0.0567719
0.0585253
0.0603367
0.0622091
0.0641457
0.0661499
0.0682254
0.0703759
0.0726057
0.0749192
0.0773212
0.0798168
0.0824115
0.0851112
0.0879222
0.0908513
0.0939058
0.0970938
0.100424
0.103905
0.0405851
0.0418461
0.0431434
0.0444782
0.0458518
0.0472659
0.048722
0.0502219
0.0517676
0.0533613
0.0550051
0.0567014
0.058453
0.0602624
0.0621328
0.0640674
0.0660694
0.0681425
0.0702906
0.0725179
0.0748289
0.0772281
0.0797209
0.0823126
0.0850091
0.0878168
0.0907425
0.0937934
0.0969776
0.100303
0.10378
0.0472659
0.048722
0.0502219
0.0517676
0.0533613
0.055005
0.0567014
0.0584529
0.0602624
0.0621328
0.0640674
0.0660694
0.0681425
0.0702906
0.0725179
0.0748289
0.0772281
0.0797209
0.0823126
0.0850091
0.0878168
0.0907425
0.0937934
0.0969776
0.100303
0.10378
0.0473265
0.0487841
0.0502856
0.0518329
0.0534282
0.0550737
0.0567719
0.0585253
0.0603367
0.0622091
0.0641457
0.0661499
0.0682254
0.0703759
0.0726057
0.0749192
0.0773212
0.0798168
0.0824115
0.0851112
0.0879222
0.0908513
0.0939058
0.0970938
0.100424
0.103905
0.0474476
0.0489082
0.0504128
0.0519633
0.053562
0.0552109
0.0569127
0.0586698
0.0604851
0.0623616
0.0643024
0.066311
0.068391
0.0705463
0.0727811
0.0750998
0.0775073
0.0800086
0.0826093
0.0853152
0.0881327
0.0910687
0.0941305
0.097326
0.100664
0.104153
0.0476289
0.049094
0.0506033
0.0521587
0.0537623
0.0554165
0.0571236
0.0588863
0.0607074
0.06259
0.0645371
0.0665522
0.0686391
0.0708016
0.0730438
0.0753704
0.0777861
0.0802959
0.0829056
0.0856209
0.0884483
0.0913947
0.0944673
0.0976743
0.101024
0.104526
0.04787
0.0493412
0.0508567
0.0524185
0.0540288
0.0556899
0.0574042
0.0591744
0.0610033
0.0628939
0.0648494
0.0668734
0.0689694
0.0711414
0.0733937
0.0757307
0.0781573
0.0806786
0.0833002
0.0481705
0.0496492
0.0511724
0.0527423
0.0543609
0.0560307
0.057754
0.0595335
0.0613721
0.0632728
0.0652389
0.0672738
0.0693813
0.0715653
0.0738301
0.0761802
0.0786204
0.0811561
0.0837926
0.0485295
0.0500172
0.0515498
0.0531294
0.054758
0.0564381
0.0581722
0.059963
0.0618132
0.0637261
0.0657049
0.067753
0.0698743
0.0720727
0.0743525
0.0767182
0.0791749
0.0817277
0.0843823
0.0489463
0.0504445
0.051988
0.0535788
0.0552191
0.0569114
0.0586581
0.0604619
0.0623258
0.0642529
0.0662464
0.06831
0.0704473
0.0726625
0.0749599
0.077344
0.0798198
0.0823927
0.0850683
0.0494198
0.0509301
0.0524859
0.0540896
0.0557433
0.0574494
0.0592104
0.0610293
0.0629087
0.064852
0.0668625
0.0689437
0.0710995
0.0733338
0.0756513
0.0780563
0.0805541
0.0831499
0.0858496
0.0499489
0.0514725
0.0530424
0.0546605
0.0563291
0.0580508
0.059828
0.0616637
0.0635607
0.0655223
0.0675517
0.0696528
0.0718293
0.0740853
0.0764253
0.078854
0.0813764
0.0839981
0.0867247
0.050532
0.0520705
0.0536558
0.0552899
0.0569752
0.0587141
0.0605093
0.0623636
0.0642801
0.0662619
0.0683126
0.0704356
0.0726351
0.0749151
0.0772802
0.0797351
0.082285
0.0849353
0.0876921
0.0511676
0.0527225
0.0543246
0.0559763
0.0576798
0.0594376
0.0612525
0.0631274
0.0650652
0.0670693
0.0691431
0.0712904
0.0735151
0.0758215
0.0782142
0.0806979
0.0832779
0.0859598
0.0887495
0.0518541
0.0534266
0.0550471
0.0567178
0.058441
0.0602195
0.0620558
0.0639529
0.0659139
0.0679422
0.0700413
0.0722149
0.0744672
0.0768023
0.079225
0.0817401
0.084353
0.0870693
0.089895
0.0525895
0.054181
0.0558213
0.0575125
0.0592571
0.0610577
0.0629171
0.0648383
0.0668245
0.0688789
0.0710053
0.0732074
0.0754894
0.0778557
0.0803108
0.08286
0.0855084
0.0882619
0.0911266
0.0533736
0.0549856
0.056647
0.0583602
0.0601277
0.0619522
0.0638364
0.0657835
0.0677966
0.0698793
0.0720351
0.0742679
0.0765821
0.0789819
0.0814722
0.084058
0.0867449
0.0895387
0.0924456
0.0533736
0.0549856
0.056647
0.0583602
0.0601277
0.0619522
0.0638364
0.0657835
0.0677967
0.0698793
0.0720351
0.074268
0.0765821
0.0789819
0.0814722
0.0840581
0.086745
0.0895387
0.0924456
0.0525895
0.054181
0.0558213
0.0575125
0.0592571
0.0610577
0.0629171
0.0648383
0.0668245
0.0688789
0.0710053
0.0732074
0.0754894
0.0778557
0.0803109
0.08286
0.0855084
0.0882619
0.0911266
0.0518541
0.0534266
0.0550471
0.0567178
0.0584411
0.0602195
0.0620558
0.0639529
0.065914
0.0679422
0.0700413
0.072215
0.0744672
0.0768023
0.079225
0.0817402
0.084353
0.0870693
0.089895
0.0511676
0.0527225
0.0543247
0.0559763
0.0576798
0.0594376
0.0612525
0.0631274
0.0650652
0.0670693
0.0691431
0.0712904
0.0735151
0.0758215
0.0782142
0.0806979
0.0832779
0.0859598
0.0887495
0.050532
0.0520706
0.0536558
0.0552899
0.0569752
0.0587141
0.0605093
0.0623637
0.0642801
0.066262
0.0683126
0.0704357
0.0726351
0.0749151
0.0772802
0.0797351
0.082285
0.0849354
0.0876921
0.0499489
0.0514725
0.0530424
0.0546605
0.0563291
0.0580508
0.0598281
0.0616637
0.0635607
0.0655223
0.0675518
0.0696528
0.0718293
0.0740853
0.0764253
0.078854
0.0813764
0.0839981
0.0867247
0.0494199
0.0509301
0.052486
0.0540896
0.0557433
0.0574494
0.0592105
0.0610293
0.0629088
0.0648521
0.0668625
0.0689437
0.0710995
0.0733339
0.0756513
0.0780563
0.0805541
0.0831499
0.0858496
0.0489463
0.0504445
0.051988
0.0535788
0.0552192
0.0569114
0.0586581
0.0604619
0.0623258
0.0642529
0.0662465
0.06831
0.0704474
0.0726625
0.0749599
0.077344
0.0798198
0.0823927
0.0850683
0.0485295
0.0500172
0.0515498
0.0531294
0.054758
0.0564381
0.0581722
0.059963
0.0618132
0.0637261
0.0657049
0.067753
0.0698743
0.0720727
0.0743525
0.0767182
0.0791749
0.0817277
0.0843823
0.0481705
0.0496492
0.0511724
0.0527423
0.0543609
0.0560307
0.057754
0.0595335
0.0613721
0.0632728
0.0652389
0.0672738
0.0693813
0.0715653
0.0738301
0.0761802
0.0786204
0.081156
0.0837926
0.04787
0.0493412
0.0508567
0.0524185
0.0540288
0.0556899
0.0574042
0.0591744
0.0610033
0.0628939
0.0648494
0.0668734
0.0689694
0.0711414
0.0733937
0.0757307
0.0781573
0.0806786
0.0833002
0.0476289
0.049094
0.0506033
0.0521587
0.0537623
0.0554165
0.0571236
0.0588863
0.0607074
0.0625899
0.0645371
0.0665522
0.0686391
0.0708016
0.0730438
0.0753704
0.077786
0.0802959
0.0829056
0.0474476
0.0489082
0.0504128
0.0519633
0.053562
0.0552109
0.0569127
0.0586698
0.0604851
0.0623616
0.0643024
0.066311
0.068391
0.0705463
0.072781
0.0750998
0.0775072
0.0800086
0.0826092
0.0473265
0.0487841
0.0502856
0.0518329
0.0534282
0.0550737
0.0567719
0.0585253
0.0603367
0.0622091
0.0641457
0.0661499
0.0682253
0.0703759
0.0726057
0.0749192
0.0773212
0.0798168
0.0824115
)
;

boundaryField
{
    inlet
    {
        type            cyclic;
    }
    outlet
    {
        type            cyclic;
    }
    wall
    {
        type            fixedValue;
        value           nonuniform 0();
    }
    procBoundary4to1
    {
        type            processor;
        value           nonuniform List<scalar> 
61
(
0.120701
0.118959
0.117338
0.115833
0.114446
0.113179
0.112034
0.111013
0.110117
0.109347
0.120701
0.118959
0.117338
0.115833
0.114446
0.113179
0.112034
0.111013
0.110117
0.109347
0.108705
0.108191
0.107805
0.107547
0.107418
0.107418
0.107547
0.107804
0.0860281
0.0888686
0.0918288
0.0949159
0.0981381
0.101504
0.108191
0.105023
0.0860281
0.0865362
0.0871447
0.0878527
0.0886592
0.0895626
0.0905615
0.0916535
0.0928367
0.0941091
0.0954724
0.0954724
0.0941091
0.0928367
0.0916535
0.0905615
0.0895627
0.0886592
0.0878527
0.0871447
0.0865362
0.0860281
0.0856209
0.0853152
0.0851112
)
;
    }
    procBoundary4to3
    {
        type            processor;
        value           nonuniform List<scalar> 
13
(
0.0970938
0.0969776
0.0969776
0.0970938
0.0973261
0.0976743
0.0981381
0.0970938
0.100424
0.108705
0.108191
0.103905
0.107805
)
;
    }
    procBoundary4to5
    {
        type            processor;
        value           nonuniform List<scalar> 
55
(
0.0323523
0.033369
0.0344172
0.0354971
0.0366089
0.037753
0.03893
0.0401407
0.0413859
0.0426667
0.0439842
0.0453397
0.0467346
0.0481705
0.0496492
0.0511724
0.0527423
0.054361
0.0560307
0.057754
0.0595335
0.0613721
0.0632728
0.0652389
0.0672739
0.0693814
0.0715654
0.0738301
0.0761802
0.0786204
0.0811561
0.0837927
0.0865362
0.0893932
0.0923706
0.0954759
0.0472659
0.048722
0.0502219
0.0517676
0.0533613
0.055005
0.0567014
0.0584529
0.0602624
0.0621328
0.0640673
0.0660693
0.0681425
0.0702906
0.0725179
0.0748288
0.0772281
0.0797209
0.0823126
)
;
    }
    procBoundary4to6
    {
        type            processor;
        value           nonuniform List<scalar> 
43
(
0.0307784
0.0308628
0.0309893
0.0311576
0.0318326
0.0317456
0.031702
0.031702
0.031702
0.0342937
0.0339431
0.0336347
0.033369
0.0331467
0.0329684
0.0329684
0.0357697
0.0368855
0.0407763
0.0401479
0.039559
0.0390093
0.0385002
0.0380333
0.0380333
0.0407763
0.040148
0.0395591
0.0402143
0.0402143
0.0409182
0.0421784
0.0421784
0.0416755
0.0412191
0.0408105
0.0404507
0.0401407
0.0398813
0.0396729
0.0395163
0.0394116
0.0393592
)
;
    }
    procBoundary4to7
    {
        type            processor;
        value           nonuniform List<scalar> 
34
(
0.0405851
0.0418461
0.0431434
0.0444782
0.0458518
0.0458518
0.045911
0.0460291
0.0462061
0.0464414
0.0467346
0.0470849
0.0474915
0.0479534
0.0484694
0.0490381
0.049658
0.0503274
0.0510444
0.0518089
0.0518089
0.0510444
0.0503274
0.049658
0.0490381
0.0484694
0.0479534
0.0474915
0.0470849
0.0467346
0.0464414
0.0462061
0.0460291
0.045911
)
;
    }
}


// ************************************************************************* //
