/*--------------------------------*- C++ -*----------------------------------*\
  =========                 |
  \\      /  F ield         | OpenFOAM: The Open Source CFD Toolbox
   \\    /   O peration     | Website:  https://openfoam.org
    \\  /    A nd           | Version:  7
     \\/     M anipulation  |
\*---------------------------------------------------------------------------*/
FoamFile
{
    version     2.0;
    format      ascii;
    class       volVectorField;
    location    "24000";
    object      U;
}
// * * * * * * * * * * * * * * * * * * * * * * * * * * * * * * * * * * * * * //

dimensions      [0 1 -1 0 0 0 0];

internalField   nonuniform List<vector> 
1768
(
(-6.7571e-19 8.99188e-19 -0.0162289)
(4.94975e-20 1.06346e-18 -0.0162241)
(-6.95659e-19 7.97118e-19 -0.016217)
(-2.55017e-19 1.90844e-18 -0.0162076)
(-8.7397e-19 2.4777e-19 -0.0161691)
(-6.71176e-19 8.02879e-19 -0.016174)
(-1.27457e-18 1.04983e-18 -0.0161764)
(-1.4546e-18 -4.32314e-19 -0.0161764)
(-9.7805e-19 1.97216e-19 -0.016174)
(2.14715e-19 9.47526e-19 -0.0161691)
(-1.97237e-19 8.23726e-19 -0.0161618)
(1.33169e-19 2.13497e-18 -0.0161522)
(3.74811e-19 2.17556e-18 -0.0160326)
(-1.07474e-18 3.05771e-18 -0.0160517)
(-3.07665e-19 1.23054e-18 -0.0160686)
(1.41811e-18 9.95853e-19 -0.0160832)
(1.66509e-18 1.06387e-18 -0.0160955)
(1.05594e-18 9.33992e-19 -0.0161053)
(2.89959e-20 6.43358e-19 -0.0161127)
(-6.57654e-19 8.96484e-19 -0.0161177)
(-7.99078e-19 1.18995e-18 -0.0161202)
(-1.18146e-18 -2.55292e-19 -0.0161202)
(-1.54404e-18 3.47204e-20 -0.0161177)
(-1.91849e-19 6.3392e-19 -0.0161127)
(-2.35393e-19 8.01928e-19 -0.0161053)
(-8.27361e-19 2.34828e-18 -0.0160955)
(-5.16819e-19 1.84385e-18 -0.0159734)
(-1.03523e-18 3.29964e-18 -0.0159929)
(1.81318e-19 8.27709e-19 -0.0160101)
(2.28244e-18 7.22976e-19 -0.016025)
(1.92354e-18 1.30349e-18 -0.0160375)
(1.09087e-18 1.27547e-18 -0.0160475)
(1.37569e-19 1.06683e-18 -0.0160551)
(-6.96802e-19 1.13666e-18 -0.0160601)
(-4.60939e-19 1.28392e-18 -0.0160627)
(-1.06586e-18 -2.14881e-19 -0.0160627)
(-1.39167e-18 -3.44697e-19 -0.0160601)
(-4.93325e-19 3.28079e-19 -0.0160551)
(-8.2759e-19 1.24206e-18 -0.0160475)
(-1.82695e-18 2.72183e-18 -0.0160375)
(-1.53062e-18 1.51831e-18 -0.0159131)
(-4.78958e-19 3.17216e-18 -0.0159329)
(8.49554e-19 4.46346e-19 -0.0159504)
(1.95206e-18 2.2007e-19 -0.0159656)
(1.90586e-18 1.52075e-18 -0.0159782)
(1.1151e-18 1.70855e-18 -0.0159885)
(4.46949e-20 1.40743e-18 -0.0159961)
(2.92258e-19 1.20313e-18 -0.0160013)
(3.63355e-19 1.36988e-18 -0.0160039)
(-9.07806e-19 2.26383e-20 -0.0160039)
(-1.23859e-18 -3.84978e-19 -0.0160013)
(-1.02018e-18 4.10393e-19 -0.0159961)
(-2.11175e-18 1.74864e-18 -0.0159885)
(-2.09622e-18 2.54241e-18 -0.0159782)
(5.16326e-19 7.64175e-19 -0.0156871)
(-5.77589e-19 1.75532e-18 -0.0157195)
(3.08878e-20 2.45648e-18 -0.0157498)
(-1.39831e-18 3.4911e-18 -0.0157783)
(-1.58334e-19 4.24956e-18 -0.0158049)
(-3.08444e-19 1.95858e-18 -0.0158294)
(-1.2412e-18 1.44756e-18 -0.0158517)
(-1.76936e-19 2.79534e-18 -0.0158718)
(1.13981e-18 4.14045e-19 -0.0158896)
(1.00187e-18 -2.03269e-19 -0.0159049)
(5.9386e-19 1.2512e-18 -0.0159178)
(3.32356e-19 1.96099e-18 -0.0159282)
(-3.41938e-19 1.38274e-18 -0.015936)
(1.15616e-18 1.10218e-18 -0.0159412)
(6.2504e-19 1.81036e-18 -0.0159439)
(-8.57954e-19 3.51822e-19 -0.0159439)
(-9.89845e-19 -4.57785e-19 -0.0159412)
(-9.41257e-19 7.26031e-19 -0.015936)
(-2.79329e-18 2.05782e-18 -0.0159282)
(-1.22445e-18 1.97901e-18 -0.0159178)
(4.6721e-19 4.73918e-19 -0.0156226)
(-7.15833e-19 1.53142e-18 -0.0156553)
(-7.06439e-19 2.1411e-18 -0.015686)
(-1.65361e-18 3.21347e-18 -0.0157148)
(6.7602e-19 4.47675e-18 -0.0157417)
(-5.63346e-19 2.33776e-18 -0.0157665)
(-2.64352e-19 1.77025e-18 -0.0157892)
(-2.28911e-19 2.49466e-18 -0.0158096)
(8.94259e-19 3.15262e-19 -0.0158276)
(2.97991e-19 -1.18131e-19 -0.0158432)
(-7.23344e-19 1.10358e-18 -0.0158563)
(-5.12267e-19 1.87122e-18 -0.0158668)
(-4.22877e-19 1.05868e-18 -0.0158747)
(1.18948e-18 8.38489e-19 -0.01588)
(8.38649e-19 2.22289e-18 -0.0158827)
(-3.52435e-19 5.85205e-19 -0.0158827)
(-7.1279e-19 -5.1026e-19 -0.01588)
(-6.03226e-19 1.12419e-18 -0.0158747)
(-1.92471e-18 1.89128e-18 -0.0158668)
(-5.07332e-19 1.31712e-18 -0.0158563)
(-5.70159e-20 3.08227e-19 -0.0155571)
(-6.27051e-19 1.7154e-18 -0.0155902)
(-1.514e-18 1.64805e-18 -0.0156211)
(-1.30723e-18 2.70301e-18 -0.0156503)
(1.10923e-18 4.75186e-18 -0.0156775)
(-5.30755e-19 2.79169e-18 -0.0157027)
(-1.15085e-19 1.70319e-18 -0.0157256)
(-6.72443e-21 2.6327e-18 -0.0157463)
(1.05428e-18 4.49748e-19 -0.0157645)
(-2.85461e-19 -3.86075e-20 -0.0157803)
(-1.29172e-18 1.03859e-18 -0.0157936)
(-3.07013e-19 1.76883e-18 -0.0158043)
(-2.81101e-19 7.39798e-19 -0.0158123)
(5.49881e-19 5.1506e-19 -0.0158177)
(8.12154e-19 2.45232e-18 -0.0158204)
(2.59427e-19 8.68235e-19 -0.0158204)
(-7.32673e-19 -4.84917e-19 -0.0158177)
(-3.62001e-19 1.18185e-18 -0.0158123)
(-1.09158e-18 1.77074e-18 -0.0158043)
(-9.40635e-19 1.24948e-18 -0.0157936)
(-4.54505e-19 2.60475e-19 -0.0154906)
(-3.44621e-19 1.93985e-18 -0.0155241)
(-1.4735e-18 1.81799e-18 -0.0155554)
(-1.24317e-18 1.97265e-18 -0.0155849)
(3.44911e-19 4.19796e-18 -0.0156124)
(-6.07778e-19 3.38148e-18 -0.0156378)
(-7.41003e-19 1.46035e-18 -0.0156611)
(-1.00765e-19 2.30511e-18 -0.015682)
(1.4865e-18 8.26678e-19 -0.0157004)
(-4.64847e-19 4.29421e-19 -0.0157164)
(-1.53542e-18 7.93347e-19 -0.0157299)
(7.8232e-19 1.68897e-18 -0.0157407)
(-2.76419e-19 7.50634e-19 -0.0157489)
(-2.04747e-19 2.56083e-19 -0.0157543)
(4.63856e-19 2.37009e-18 -0.015757)
(2.86796e-19 1.11213e-18 -0.015757)
(-1.19083e-18 -3.56505e-19 -0.0157543)
(-8.40213e-19 1.32281e-18 -0.0157489)
(-1.57811e-18 2.04108e-18 -0.0157407)
(-1.20198e-18 1.17227e-18 -0.0157299)
(-4.3694e-19 3.83212e-19 -0.0154234)
(1.557e-19 2.17258e-18 -0.0154571)
(-9.44991e-19 2.33291e-18 -0.0154887)
(-4.31579e-19 2.12355e-18 -0.0155185)
(-7.27226e-19 3.58423e-18 -0.0155463)
(-9.34999e-19 3.57988e-18 -0.015572)
(-2.46935e-19 1.67767e-18 -0.0155955)
(-5.09535e-20 1.93977e-18 -0.0156166)
(1.11506e-18 7.54261e-19 -0.0156354)
(2.44837e-19 1.09442e-18 -0.0156515)
(-1.25756e-18 4.66643e-19 -0.0156651)
(9.06483e-19 1.46632e-18 -0.0156761)
(-6.30919e-19 1.06136e-18 -0.0156843)
(-7.04795e-19 7.79731e-20 -0.0156899)
(-9.18134e-22 2.29308e-18 -0.0156926)
(-9.68642e-20 1.44546e-18 -0.0156926)
(-1.06673e-18 -1.56545e-19 -0.0156899)
(-1.90222e-18 1.54148e-18 -0.0156843)
(-1.78431e-18 1.98863e-18 -0.0156761)
(-7.72896e-19 8.97441e-19 -0.0156651)
(-1.60084e-19 5.82964e-19 -0.0153552)
(6.35717e-19 2.25906e-18 -0.0153892)
(-5.25435e-19 2.62258e-18 -0.0154211)
(9.63653e-20 2.38228e-18 -0.0154512)
(-8.96081e-19 3.66698e-18 -0.0154793)
(-1.57485e-18 3.27233e-18 -0.0155053)
(3.49086e-19 1.82213e-18 -0.015529)
(4.48147e-19 2.13135e-18 -0.0155504)
(6.90728e-19 5.45969e-19 -0.0155693)
(9.59567e-19 1.54306e-18 -0.0155857)
(-8.22063e-19 6.07892e-19 -0.0155994)
(-5.02726e-19 1.21323e-18 -0.0156105)
(-1.03205e-18 1.24676e-18 -0.0156188)
(-8.98907e-19 -8.67417e-20 -0.0156244)
(-9.72841e-19 2.1662e-18 -0.0156272)
(-4.2506e-19 1.49835e-18 -0.0156272)
(-5.10208e-19 1.47623e-19 -0.0156244)
(-2.25814e-18 1.77369e-18 -0.0156188)
(-7.6194e-19 1.49736e-18 -0.0156105)
(-6.4405e-19 7.75989e-19 -0.0155994)
(4.55529e-19 9.23398e-19 -0.0152862)
(4.73238e-19 2.00209e-18 -0.0153205)
(-4.16625e-19 2.82834e-18 -0.0153527)
(-4.51299e-19 2.06474e-18 -0.015383)
(-1.30901e-18 3.8171e-18 -0.0154114)
(-1.71075e-18 3.28472e-18 -0.0154376)
(-2.56653e-20 1.28818e-18 -0.0154616)
(1.04534e-18 2.32759e-18 -0.0154831)
(9.99279e-19 5.59393e-19 -0.0155023)
(6.26778e-19 1.63716e-18 -0.0155188)
(-5.68287e-19 1.04584e-18 -0.0155327)
(-2.17811e-18 1.01878e-18 -0.0155439)
(-7.86143e-19 1.1946e-18 -0.0155523)
(-6.65861e-19 -1.9196e-20 -0.015558)
(-1.23528e-18 2.13742e-18 -0.0155608)
(-2.34384e-19 1.30402e-18 -0.0155608)
(-1.65241e-19 3.52067e-19 -0.015558)
(-1.6153e-18 1.63687e-18 -0.0155523)
(-9.62603e-20 1.14038e-18 -0.0155439)
(-7.69641e-19 9.85715e-19 -0.0155327)
(8.44317e-19 1.01704e-18 -0.0152164)
(-1.89619e-19 1.53638e-18 -0.0152509)
(-3.42954e-19 3.03555e-18 -0.0152834)
(-6.43443e-19 2.12498e-18 -0.015314)
(-2.08281e-18 3.43287e-18 -0.0153426)
(-9.79668e-19 3.64757e-18 -0.015369)
(2.55615e-20 9.8108e-19 -0.0153932)
(1.52124e-18 2.22545e-18 -0.015415)
(9.2557e-19 7.54322e-19 -0.0154343)
(-1.51326e-20 1.7433e-18 -0.015451)
(-2.82836e-19 1.60814e-18 -0.0154651)
(-2.65521e-18 9.33821e-19 -0.0154764)
(-1.0776e-19 8.5939e-19 -0.0154849)
(-4.82248e-19 1.23169e-20 -0.0154906)
(-3.37636e-19 2.07328e-18 -0.0154934)
(5.20592e-20 1.15046e-18 -0.0154934)
(4.55418e-19 4.93192e-19 -0.0154906)
(-1.12444e-18 1.64569e-18 -0.0154849)
(-6.33149e-19 1.15592e-18 -0.0154764)
(-1.37281e-18 1.14179e-18 -0.0154651)
(8.32698e-19 9.40728e-19 -0.0151457)
(-5.55723e-19 1.20586e-18 -0.0151805)
(-6.54824e-19 2.74982e-18 -0.0152132)
(-5.67423e-19 2.48465e-18 -0.015244)
(-2.53352e-18 3.22352e-18 -0.0152729)
(-5.11843e-19 3.65647e-18 -0.0152996)
(4.98775e-19 9.03124e-19 -0.015324)
(1.79481e-18 2.28898e-18 -0.015346)
(2.74274e-19 8.26748e-19 -0.0153655)
(9.71218e-20 1.80998e-18 -0.0153823)
(-4.35867e-20 2.00226e-18 -0.0153965)
(-1.93578e-18 1.01214e-18 -0.0154079)
(2.57287e-19 6.00298e-19 -0.0154165)
(-5.85732e-19 -2.82833e-20 -0.0154223)
(6.56203e-19 2.04146e-18 -0.0154252)
(-6.26116e-19 1.07745e-18 -0.0154252)
(2.81244e-19 6.65367e-19 -0.0154223)
(-1.61823e-18 1.9888e-18 -0.0154165)
(-1.17101e-18 1.33159e-18 -0.0154079)
(-2.20754e-18 1.09452e-18 -0.0153965)
(6.30144e-19 9.32459e-19 -0.0150743)
(-8.77949e-19 1.06428e-18 -0.0151093)
(-1.05795e-18 2.40505e-18 -0.0151422)
(-7.6556e-19 2.55731e-18 -0.0151733)
(-2.50059e-18 3.16767e-18 -0.0152024)
(2.30112e-19 3.74429e-18 -0.0152293)
(4.31099e-19 6.02781e-19 -0.0152539)
(1.96976e-18 2.41522e-18 -0.0152761)
(-8.71327e-20 9.81728e-19 -0.0152957)
(3.71424e-19 1.83735e-18 -0.0153127)
(-2.47605e-19 2.27244e-18 -0.015327)
(-1.23744e-18 1.09622e-18 -0.0153385)
(-1.69384e-19 4.07569e-19 -0.0153472)
(-7.7389e-19 -2.19441e-19 -0.015353)
(3.83909e-19 2.13176e-18 -0.0153559)
(-1.51133e-18 1.30712e-18 -0.0153559)
(-6.08394e-19 8.52567e-19 -0.015353)
(-2.24579e-18 2.23284e-18 -0.0153472)
(-1.04365e-18 1.33772e-18 -0.0153385)
(-2.59914e-18 9.35554e-19 -0.015327)
(4.65078e-19 1.03909e-18 -0.015002)
(-1.31607e-18 8.07715e-19 -0.0150373)
(-1.12343e-18 2.18991e-18 -0.0150704)
(-1.0141e-18 2.56422e-18 -0.0151017)
(-1.90799e-18 3.1976e-18 -0.015131)
(1.01252e-18 3.95664e-18 -0.0151581)
(2.04211e-19 4.14724e-19 -0.0151829)
(1.34308e-18 2.21565e-18 -0.0152053)
(-1.99489e-19 1.17937e-18 -0.0152251)
(-1.44669e-19 1.70568e-18 -0.0152422)
(-5.84101e-19 2.42153e-18 -0.0152567)
(-8.12716e-19 1.21941e-18 -0.0152683)
(-4.27969e-19 3.5131e-19 -0.015277)
(-1.11705e-18 -3.28193e-19 -0.0152829)
(-8.91026e-19 2.26134e-18 -0.0152858)
(-1.50093e-18 1.41201e-18 -0.0152858)
(-1.1859e-18 9.7732e-19 -0.0152829)
(-2.41378e-18 2.23294e-18 -0.015277)
(-5.72983e-19 1.26705e-18 -0.0152683)
(-2.20525e-18 8.95116e-19 -0.0152567)
(3.72286e-19 1.23286e-18 -0.014929)
(-1.39529e-18 8.64034e-19 -0.0149644)
(-1.07079e-18 2.01544e-18 -0.0149978)
(-1.2637e-18 2.39371e-18 -0.0150293)
(-1.66177e-18 2.93483e-18 -0.0150588)
(1.02544e-18 3.9791e-18 -0.0150861)
(3.15502e-20 5.12563e-19 -0.0151111)
(1.82158e-19 1.81995e-18 -0.0151336)
(-5.44973e-19 1.28909e-18 -0.0151536)
(-7.76442e-19 1.58892e-18 -0.0151709)
(-9.1147e-19 2.38333e-18 -0.0151854)
(-6.51654e-19 1.21837e-18 -0.0151971)
(-7.27867e-19 3.97082e-19 -0.015206)
(-1.82354e-18 -2.66008e-19 -0.0152119)
(-1.65807e-18 2.24664e-18 -0.0152148)
(-1.36634e-18 1.41711e-18 -0.0152148)
(-1.55413e-18 1.17581e-18 -0.0152119)
(-2.25481e-18 2.08787e-18 -0.015206)
(-4.74355e-19 1.11716e-18 -0.0151971)
(-1.20107e-18 7.30997e-19 -0.0151854)
(1.34277e-19 1.23928e-18 -0.0148552)
(-9.09944e-19 1.26147e-18 -0.0148908)
(-1.20451e-18 1.83854e-18 -0.0149244)
(-1.61462e-18 2.2886e-18 -0.0149561)
(-1.91029e-18 2.45168e-18 -0.0149858)
(7.19164e-19 3.78766e-18 -0.0150133)
(7.46916e-20 7.92658e-19 -0.0150385)
(-9.92927e-19 1.476e-18 -0.0150612)
(-7.33365e-19 1.29812e-18 -0.0150813)
(-8.73916e-19 1.57133e-18 -0.0150987)
(-1.0559e-18 2.34023e-18 -0.0151133)
(-8.77054e-19 1.23122e-18 -0.0151251)
(-9.50755e-19 5.78418e-19 -0.015134)
(-2.32814e-18 -2.50491e-19 -0.01514)
(-1.90531e-18 2.16855e-18 -0.0151429)
(-1.90505e-18 1.42331e-18 -0.0151429)
(-1.51227e-18 1.25628e-18 -0.01514)
(-2.24254e-18 1.93189e-18 -0.015134)
(-4.26492e-19 8.7552e-19 -0.0151251)
(-7.08045e-19 6.16177e-19 -0.0151133)
(-7.13141e-19 6.98415e-19 -0.0147806)
(-4.27471e-19 1.7079e-18 -0.0148164)
(-1.88227e-18 1.50434e-18 -0.0148502)
(-1.3972e-18 2.43574e-18 -0.0148821)
(-1.65506e-18 2.19895e-18 -0.014912)
(7.14319e-19 3.6411e-18 -0.0149397)
(3.33259e-19 1.29032e-18 -0.014965)
(-1.19694e-18 1.49135e-18 -0.0149878)
(-5.92003e-19 1.24704e-18 -0.0150081)
(-1.18608e-18 1.52406e-18 -0.0150256)
(-1.30445e-18 2.34555e-18 -0.0150404)
(-1.12947e-18 1.1806e-18 -0.0150522)
(-7.01912e-19 7.6065e-19 -0.0150612)
(-2.45442e-18 -1.39197e-19 -0.0150672)
(-1.92416e-18 2.17718e-18 -0.0150702)
(-2.02087e-18 1.35981e-18 -0.0150702)
(-1.4221e-18 1.278e-18 -0.0150672)
(-2.19761e-18 1.79014e-18 -0.0150612)
(-3.55256e-19 6.01698e-19 -0.0150522)
(-9.89143e-19 7.48384e-19 -0.0150404)
(-1.6893e-18 1.78958e-19 -0.0147052)
(-1.32368e-19 1.91045e-18 -0.0147412)
(-2.2514e-18 1.29891e-18 -0.0147751)
(-6.09286e-19 2.71157e-18 -0.0148073)
(-1.58322e-18 1.9598e-18 -0.0148373)
(4.60153e-19 3.38896e-18 -0.0148652)
(3.77436e-20 1.46096e-18 -0.0148907)
(-9.29066e-19 1.71461e-18 -0.0149137)
(-9.32662e-19 1.24112e-18 -0.0149341)
(-1.55087e-18 1.53634e-18 -0.0149517)
(-1.60744e-18 2.26048e-18 -0.0149666)
(-1.07328e-18 1.10298e-18 -0.0149785)
(-6.49748e-19 9.30546e-19 -0.0149875)
(-2.49489e-18 -1.89474e-20 -0.0149936)
(-1.84846e-18 2.10999e-18 -0.0149966)
(-1.55304e-18 1.31821e-18 -0.0149966)
(-1.72723e-18 1.33754e-18 -0.0149936)
(-1.76172e-18 1.58793e-18 -0.0149875)
(-4.47928e-19 4.78003e-19 -0.0149785)
(-1.1054e-18 8.74771e-19 -0.0149666)
(-1.74114e-18 4.26547e-19 -0.014629)
(-1.25411e-19 1.84135e-18 -0.0146652)
(-2.30264e-18 1.22193e-18 -0.0146993)
(-2.23827e-19 2.82717e-18 -0.0147316)
(-1.43844e-18 1.95667e-18 -0.0147619)
(-1.65722e-19 3.01087e-18 -0.0147899)
(-7.46693e-19 1.36216e-18 -0.0148155)
(-1.16383e-18 1.74496e-18 -0.0148387)
(-1.36684e-18 1.20055e-18 -0.0148592)
(-1.63149e-18 1.54576e-18 -0.014877)
(-1.86627e-18 2.1659e-18 -0.0148919)
(-9.5257e-19 1.01154e-18 -0.0149039)
(-7.25699e-19 1.09261e-18 -0.014913)
(-2.48147e-18 9.67627e-20 -0.0149191)
(-1.92075e-18 1.99188e-18 -0.0149221)
(-1.30064e-18 1.34484e-18 -0.0149221)
(-1.87173e-18 1.38387e-18 -0.0149191)
(-1.41327e-18 1.3622e-18 -0.014913)
(-9.98359e-19 4.58273e-19 -0.0149039)
(-9.84582e-19 9.66973e-19 -0.0148919)
(-9.64142e-19 1.22244e-18 -0.014552)
(-6.08508e-19 1.55372e-18 -0.0145884)
(-1.82045e-18 1.42976e-18 -0.0146227)
(-4.14996e-19 2.48088e-18 -0.0146552)
(-1.04176e-18 2.17604e-18 -0.0146856)
(-3.88835e-19 3.00601e-18 -0.0147138)
(-1.39197e-18 1.26209e-18 -0.0147396)
(-1.36655e-18 1.71996e-18 -0.0147629)
(-1.34303e-18 1.26586e-18 -0.0147835)
(-1.71648e-18 1.5884e-18 -0.0148014)
(-2.06486e-18 2.06375e-18 -0.0148164)
(-7.66406e-19 8.97935e-19 -0.0148285)
(-9.45728e-19 1.24979e-18 -0.0148377)
(-2.3919e-18 2.24539e-19 -0.0148438)
(-2.05771e-18 1.86449e-18 -0.0148468)
(-1.21079e-18 1.33662e-18 -0.0148468)
(-1.71822e-18 1.38851e-18 -0.0148438)
(-1.18706e-18 1.28021e-18 -0.0148377)
(-1.38654e-18 4.49459e-19 -0.0148285)
(-1.17262e-18 9.08522e-19 -0.0148164)
(-2.5474e-19 1.96371e-18 -0.0144742)
(-4.82311e-19 1.72886e-18 -0.0145107)
(-1.04796e-18 1.81211e-18 -0.0145452)
(-9.38697e-19 2.07913e-18 -0.0145779)
(-1.23178e-18 1.96452e-18 -0.0146085)
(-5.20316e-19 3.12512e-18 -0.0146368)
(-2.12497e-18 1.18067e-18 -0.0146628)
(-1.61803e-18 1.58088e-18 -0.0146862)
(-1.28148e-18 1.33246e-18 -0.014707)
(-2.1241e-18 1.57681e-18 -0.0147249)
(-1.86548e-18 2.014e-18 -0.0147401)
(-5.59466e-19 8.11105e-19 -0.0147522)
(-1.0728e-18 1.42096e-18 -0.0147614)
(-2.12099e-18 3.38443e-19 -0.0147676)
(-1.84152e-18 1.75502e-18 -0.0147707)
(-1.08836e-18 1.30447e-18 -0.0147707)
(-1.67248e-18 1.39258e-18 -0.0147676)
(-2.96512e-19 1.12684e-18 -0.0147614)
(-8.29605e-19 3.5043e-19 -0.0147522)
(-1.36899e-18 8.804e-19 -0.0147401)
(1.73449e-19 2.25673e-18 -0.0143956)
(-1.36351e-19 2.06687e-18 -0.0144323)
(-1.0165e-18 1.93762e-18 -0.014467)
(-1.27309e-18 1.92661e-18 -0.0144998)
(-2.00842e-18 1.43077e-18 -0.0145305)
(-3.64699e-19 3.39632e-18 -0.014559)
(-2.82255e-18 1.11014e-18 -0.0145851)
(-1.78125e-18 1.38718e-18 -0.0146087)
(-1.20293e-18 1.42771e-18 -0.0146296)
(-2.02869e-18 1.64137e-18 -0.0146477)
(-1.23814e-18 1.95807e-18 -0.0146629)
(-3.71622e-19 7.6116e-19 -0.0146751)
(-1.33131e-18 1.5543e-18 -0.0146844)
(-1.78103e-18 4.06803e-19 -0.0146905)
(-1.42045e-18 1.67545e-18 -0.0146936)
(-6.62371e-19 1.33131e-18 -0.0146936)
(-1.62868e-18 1.23642e-18 -0.0146905)
(3.97459e-19 8.81633e-19 -0.0146844)
(-3.30171e-21 3.95944e-19 -0.0146751)
(-1.25409e-18 9.98935e-19 -0.0146629)
(5.13326e-19 2.49245e-18 -0.0143162)
(-2.79677e-19 2.14484e-18 -0.014353)
(-8.63496e-19 2.13391e-18 -0.0143879)
(-1.18107e-18 2.13585e-18 -0.0144209)
(-2.68038e-18 8.25453e-19 -0.0144518)
(-3.6174e-19 3.5106e-18 -0.0144804)
(-2.78909e-18 1.44565e-18 -0.0145067)
(-1.60327e-18 1.22587e-18 -0.0145303)
(-1.16166e-18 1.40471e-18 -0.0145513)
(-1.47636e-18 1.76245e-18 -0.0145695)
(-4.85819e-19 2.00841e-18 -0.0145848)
(-2.60311e-19 8.43594e-19 -0.0145971)
(-1.55608e-18 1.6788e-18 -0.0146064)
(-1.40039e-18 3.75654e-19 -0.0146126)
(-1.08017e-18 1.55336e-18 -0.0146158)
(-2.4499e-19 1.38016e-18 -0.0146158)
(-1.48534e-18 1.17076e-18 -0.0146126)
(1.48883e-19 6.96993e-19 -0.0146064)
(1.65425e-19 5.03968e-19 -0.0145971)
(-1.59149e-18 1.2593e-18 -0.0145848)
(8.28593e-19 2.77086e-18 -0.0142359)
(-2.18756e-19 2.3211e-18 -0.014273)
(-5.86753e-19 2.35273e-18 -0.0143079)
(-4.4056e-19 2.87037e-18 -0.0143411)
(-2.58136e-18 7.83884e-19 -0.0143722)
(-9.59478e-19 3.19162e-18 -0.014401)
(-2.20888e-18 1.87963e-18 -0.0144273)
(-1.7418e-18 1.06621e-18 -0.0144511)
(-1.55111e-18 1.24702e-18 -0.0144722)
(-1.38142e-18 1.66936e-18 -0.0144905)
(3.46701e-19 2.09318e-18 -0.0145059)
(-8.31007e-19 8.80453e-19 -0.0145183)
(-1.56831e-18 1.78699e-18 -0.0145276)
(-1.02337e-18 3.20051e-19 -0.0145339)
(-8.28584e-19 1.46013e-18 -0.014537)
(-1.33716e-19 1.45961e-18 -0.014537)
(-1.49565e-18 1.16114e-18 -0.0145339)
(-1.82526e-19 5.72405e-19 -0.0145276)
(1.24419e-19 7.20001e-19 -0.0145183)
(-2.04587e-18 1.47198e-18 -0.0145059)
(1.07008e-18 2.91215e-18 -0.0141548)
(-3.84972e-20 2.63941e-18 -0.014192)
(-6.06631e-19 2.23297e-18 -0.0142272)
(-8.79132e-20 3.30497e-18 -0.0142605)
(-2.35696e-18 1.03168e-18 -0.0142917)
(-1.28886e-18 2.99811e-18 -0.0143206)
(-1.84375e-18 2.2306e-18 -0.0143471)
(-2.05203e-18 9.70681e-19 -0.014371)
(-1.88859e-18 1.05293e-18 -0.0143922)
(-6.67912e-19 1.57043e-18 -0.0144106)
(9.78782e-19 2.24893e-18 -0.0144261)
(-1.97633e-18 9.31583e-19 -0.0144385)
(-1.74812e-18 1.72673e-18 -0.0144479)
(-7.73973e-19 2.21078e-19 -0.0144542)
(-7.26724e-19 1.38717e-18 -0.0144573)
(-1.21381e-19 1.57433e-18 -0.0144573)
(-9.84539e-19 1.15836e-18 -0.0144542)
(-2.12301e-19 3.82901e-19 -0.0144479)
(5.39863e-20 9.09598e-19 -0.0144385)
(-1.87091e-18 1.52876e-18 -0.0144261)
(1.18583e-18 2.90309e-18 -0.0140728)
(1.08931e-19 2.95689e-18 -0.0141102)
(-7.83884e-19 2.1091e-18 -0.0141455)
(-2.76917e-19 3.4069e-18 -0.014179)
(-2.06385e-18 1.29549e-18 -0.0142103)
(-1.56525e-18 2.78278e-18 -0.0142394)
(-1.30113e-18 2.62875e-18 -0.014266)
(-1.54118e-18 1.22769e-18 -0.0142901)
(-1.74673e-18 8.59595e-19 -0.0143114)
(5.25562e-19 1.54747e-18 -0.0143298)
(8.93037e-19 2.50154e-18 -0.0143454)
(-2.85307e-18 1.0892e-18 -0.0143579)
(-2.25842e-18 1.50155e-18 -0.0143673)
(-5.55415e-19 8.9389e-20 -0.0143736)
(-9.27362e-19 1.32994e-18 -0.0143768)
(-1.84647e-19 1.58234e-18 -0.0143768)
(-5.57671e-19 1.12404e-18 -0.0143736)
(-2.44509e-19 3.42183e-19 -0.0143673)
(7.76789e-19 9.69806e-19 -0.0143579)
(-6.94837e-19 1.35709e-18 -0.0143454)
(1.23178e-18 2.83218e-18 -0.01399)
(4.79326e-20 3.15932e-18 -0.0140275)
(-9.19789e-19 2.01128e-18 -0.014063)
(-1.39259e-19 3.59589e-18 -0.0140966)
(-1.74108e-18 1.64247e-18 -0.0141281)
(-1.77773e-18 2.57161e-18 -0.0141573)
(-9.53143e-19 2.77904e-18 -0.0141841)
(-9.31987e-19 1.58427e-18 -0.0142082)
(-1.59379e-18 6.97442e-19 -0.0142296)
(8.42329e-19 1.36192e-18 -0.0142482)
(2.88884e-19 2.79395e-18 -0.0142638)
(-2.89785e-18 1.41946e-18 -0.0142763)
(-2.28614e-18 1.2496e-18 -0.0142858)
(-2.02548e-19 -7.35112e-20 -0.0142922)
(-1.12432e-18 1.30281e-18 -0.0142953)
(-2.59109e-19 1.579e-18 -0.0142953)
(-1.85063e-19 1.12631e-18 -0.0142922)
(-2.33177e-19 9.67358e-20 -0.0142858)
(1.3184e-18 8.24321e-19 -0.0142763)
(7.3128e-19 1.22173e-18 -0.0142638)
(1.32183e-18 2.7153e-18 -0.0139062)
(-9.30249e-20 3.29496e-18 -0.0139439)
(-3.47523e-19 2.35847e-18 -0.0139795)
(-1.39165e-19 3.68361e-18 -0.0140133)
(-1.90277e-18 1.76479e-18 -0.0140449)
(-1.68273e-18 2.52896e-18 -0.0140743)
(-9.82445e-19 2.73553e-18 -0.0141012)
(-7.54579e-19 1.77944e-18 -0.0141254)
(-1.64035e-18 5.25747e-19 -0.0141469)
(5.47942e-19 1.06905e-18 -0.0141656)
(-4.69313e-20 3.05495e-18 -0.0141812)
(-1.84963e-18 1.80949e-18 -0.0141939)
(-1.41875e-18 1.11151e-18 -0.0142034)
(7.21876e-21 -1.89515e-19 -0.0142098)
(-1.00095e-18 1.33191e-18 -0.014213)
(-3.10971e-19 1.48437e-18 -0.014213)
(1.74889e-19 1.08061e-18 -0.0142098)
(-2.20256e-19 4.97564e-21 -0.0142034)
(4.06639e-19 8.82491e-19 -0.0141939)
(1.09979e-18 1.14305e-18 -0.0141812)
(1.18226e-18 2.44402e-18 -0.0138215)
(-6.13729e-21 3.46717e-18 -0.0138593)
(3.36958e-19 2.78807e-18 -0.0138951)
(-4.35836e-19 3.75921e-18 -0.013929)
(-2.01148e-18 1.87903e-18 -0.0139608)
(-1.39347e-18 2.5356e-18 -0.0139903)
(-7.4279e-19 2.80686e-18 -0.0140173)
(-9.62421e-19 1.84796e-18 -0.0140417)
(-1.75909e-18 3.88079e-19 -0.0140633)
(-2.11391e-19 6.34155e-19 -0.014082)
(-7.29483e-20 3.21353e-18 -0.0140978)
(-1.1901e-18 2.04866e-18 -0.0141105)
(-4.57104e-19 1.12301e-18 -0.01412)
(2.70545e-20 -2.52546e-19 -0.0141264)
(-1.01169e-18 1.35738e-18 -0.0141296)
(-3.27527e-19 1.4351e-18 -0.0141296)
(1.32081e-19 1.10228e-18 -0.0141264)
(-5.75561e-19 3.24377e-20 -0.01412)
(-2.70819e-19 8.64857e-19 -0.0141105)
(6.87119e-19 1.10636e-18 -0.0140978)
(9.20953e-19 2.1119e-18 -0.0137359)
(6.44121e-20 3.53369e-18 -0.0137738)
(2.70956e-19 2.77495e-18 -0.0138098)
(-6.54793e-19 3.88562e-18 -0.0138438)
(-1.28217e-18 2.39477e-18 -0.0138758)
(-1.17193e-18 2.48162e-18 -0.0139054)
(-4.72216e-19 2.96618e-18 -0.0139325)
(-1.23546e-18 1.95258e-18 -0.013957)
(-1.37357e-18 4.78367e-19 -0.0139787)
(-9.78332e-19 1.86484e-19 -0.0139975)
(-5.42561e-19 3.17948e-18 -0.0140133)
(-1.53029e-18 2.03658e-18 -0.0140261)
(9.65944e-20 1.05807e-18 -0.0140357)
(1.31653e-19 -2.13987e-19 -0.0140421)
(-1.18341e-18 1.38666e-18 -0.0140454)
(-2.59326e-19 1.34731e-18 -0.0140454)
(-3.40206e-21 1.15601e-18 -0.0140421)
(-5.25416e-19 4.33243e-20 -0.0140357)
(-1.63999e-19 7.53026e-19 -0.0140261)
(5.07511e-19 1.00133e-18 -0.0140133)
(9.16711e-19 2.04098e-18 -0.0136493)
(-2.54026e-20 3.50172e-18 -0.0136874)
(1.82864e-19 2.72096e-18 -0.0137235)
(-9.89798e-19 3.76328e-18 -0.0137577)
(-4.50513e-19 2.96216e-18 -0.0137897)
(-1.20038e-18 2.41986e-18 -0.0138195)
(-2.61123e-19 3.09492e-18 -0.0138468)
(-1.11875e-18 2.13195e-18 -0.0138714)
(-5.39658e-19 7.58417e-19 -0.0138931)
(-1.0459e-18 8.17994e-20 -0.013912)
(-1.07913e-18 3.14317e-18 -0.0139279)
(-1.94597e-18 1.9192e-18 -0.0139407)
(5.43856e-20 8.65513e-19 -0.0139504)
(2.83449e-19 -1.52443e-19 -0.0139568)
(-1.2395e-18 1.41942e-18 -0.0139601)
(3.59144e-20 1.28831e-18 -0.0139601)
(-1.87943e-19 1.19274e-18 -0.0139568)
(-7.40512e-20 -7.39934e-20 -0.0139504)
(-3.48207e-20 6.36239e-19 -0.0139407)
(9.56323e-19 7.80902e-19 -0.0139279)
(8.51076e-19 1.89338e-18 -0.0135616)
(-1.14058e-19 3.4604e-18 -0.0135999)
(4.76479e-19 2.98729e-18 -0.0136361)
(-1.5273e-18 3.49378e-18 -0.0136705)
(-3.6167e-19 3.07038e-18 -0.0137027)
(-1.53927e-18 2.21442e-18 -0.0137326)
(1.16081e-19 3.25756e-18 -0.01376)
(-1.00758e-18 2.2682e-18 -0.0137847)
(2.06248e-19 1.01144e-18 -0.0138066)
(-8.25894e-19 1.39249e-19 -0.0138255)
(-1.18064e-18 3.25085e-18 -0.0138415)
(-1.91532e-18 1.88598e-18 -0.0138543)
(-1.52228e-19 6.02102e-19 -0.013864)
(5.19788e-19 -1.1434e-19 -0.0138705)
(-1.23693e-18 1.4329e-18 -0.0138738)
(3.17451e-19 1.22446e-18 -0.0138738)
(-2.61734e-19 1.21334e-18 -0.0138705)
(2.18333e-19 -1.57804e-19 -0.013864)
(-1.49663e-19 5.57932e-19 -0.0138543)
(1.0791e-18 6.30704e-19 -0.0138415)
(5.16082e-19 1.5767e-18 -0.0134729)
(-4.64115e-19 3.13026e-18 -0.0135113)
(6.58925e-19 3.19646e-18 -0.0135477)
(-1.63052e-18 3.56536e-18 -0.0135822)
(-7.8169e-19 2.90589e-18 -0.0136146)
(-2.00105e-18 1.87802e-18 -0.0136446)
(2.43473e-19 3.25244e-18 -0.0136721)
(-6.91e-19 2.4594e-18 -0.0136969)
(6.15419e-19 1.14438e-18 -0.0137189)
(-7.2223e-19 2.22667e-19 -0.013738)
(-1.55747e-18 3.289e-18 -0.013754)
(-1.67204e-18 1.90365e-18 -0.0137669)
(-4.09245e-19 3.3747e-19 -0.0137766)
(7.31683e-19 -9.67216e-20 -0.0137831)
(-1.33527e-18 1.46151e-18 -0.0137864)
(3.24341e-19 1.19337e-18 -0.0137864)
(-3.76229e-19 1.24214e-18 -0.0137831)
(4.53349e-19 -2.5149e-19 -0.0137766)
(-3.86427e-19 5.26029e-19 -0.0137669)
(9.77695e-19 5.55959e-19 -0.013754)
(1.86972e-19 1.41188e-18 -0.0133831)
(-7.19066e-19 2.82386e-18 -0.0134217)
(3.47763e-19 2.95682e-18 -0.0134583)
(-1.6326e-18 3.75431e-18 -0.0134929)
(-1.36769e-18 2.71893e-18 -0.0135254)
(-1.91507e-18 1.76699e-18 -0.0135556)
(-2.6036e-19 2.87741e-18 -0.0135832)
(-1.73227e-20 2.75645e-18 -0.0136081)
(5.21416e-19 1.16633e-18 -0.0136302)
(-9.78817e-19 2.76932e-19 -0.0136493)
(-2.30338e-18 3.24338e-18 -0.0136654)
(-1.23652e-18 1.92564e-18 -0.0136784)
(-5.76389e-19 7.1993e-20 -0.0136881)
(7.6619e-19 -1.07661e-19 -0.0136947)
(-1.42994e-18 1.51052e-18 -0.013698)
(2.89735e-19 1.14899e-18 -0.013698)
(-2.6742e-19 1.21651e-18 -0.0136947)
(8.10151e-19 -3.247e-19 -0.0136881)
(-5.88878e-19 5.1902e-19 -0.0136784)
(1.20283e-18 3.60496e-19 -0.0136654)
(2.07222e-19 1.54837e-18 -0.0132922)
(-2.90148e-19 3.08742e-18 -0.013331)
(-5.50907e-19 2.31908e-18 -0.0133677)
(-2.14615e-18 3.61346e-18 -0.0134025)
(-1.75326e-18 2.57075e-18 -0.0134351)
(-1.29566e-18 1.9436e-18 -0.0134654)
(-1.14418e-18 2.31532e-18 -0.0134932)
(1.44966e-19 2.80313e-18 -0.0135182)
(4.01938e-19 1.28011e-18 -0.0135403)
(-1.21196e-18 3.72352e-19 -0.0135596)
(-2.33154e-18 3.26362e-18 -0.0135757)
(-3.40786e-19 1.9681e-18 -0.0135887)
(-6.28873e-19 -1.19695e-19 -0.0135985)
(4.44617e-19 1.74238e-18 -0.0132001)
(3.13518e-19 3.64166e-18 -0.0132391)
(-1.49794e-18 1.79567e-18 -0.0132759)
(-3.01605e-18 3.16195e-18 -0.0133109)
(-1.65647e-18 2.56292e-18 -0.0133437)
(-1.13782e-18 1.94829e-18 -0.0133741)
(-1.56269e-18 2.04115e-18 -0.013402)
(-7.56858e-19 2.35386e-18 -0.0134271)
(4.5699e-19 1.40722e-18 -0.0134493)
(-1.1081e-18 5.16231e-19 -0.0134686)
(-1.51998e-18 3.40265e-18 -0.0134849)
(2.26574e-19 2.01469e-18 -0.0134979)
(-8.97416e-19 -2.25878e-19 -0.0135078)
(4.93301e-19 1.68306e-18 -0.0131069)
(4.05661e-19 3.88763e-18 -0.0131459)
(-1.89543e-18 1.79385e-18 -0.013183)
(-3.7131e-18 2.73414e-18 -0.0132181)
(-1.09186e-18 2.76199e-18 -0.013251)
(-1.38652e-18 1.78307e-18 -0.0132816)
(-1.46228e-18 2.08632e-18 -0.0133095)
(-1.59561e-18 1.93784e-18 -0.0133348)
(6.16458e-19 1.4449e-18 -0.0133571)
(-1.24266e-18 5.31679e-19 -0.0133765)
(-1.02714e-18 3.48452e-18 -0.0133928)
(7.06907e-19 2.15258e-18 -0.0134059)
(-9.98028e-19 -2.78277e-19 -0.0134158)
(-8.72239e-19 -8.13293e-19 -0.0156871)
(-8.58498e-20 1.73694e-19 -0.0156226)
(6.70022e-19 1.20024e-18 -0.0155571)
(8.50206e-19 1.5391e-18 -0.0154906)
(9.7819e-19 1.71698e-18 -0.0154234)
(1.05242e-18 1.7906e-18 -0.0153552)
(7.97919e-19 1.12194e-18 -0.0152862)
(4.32958e-19 4.28828e-19 -0.0152164)
(6.07196e-19 7.22316e-19 -0.0151457)
(9.03181e-19 1.10792e-18 -0.0150743)
(7.67058e-19 1.03792e-18 -0.015002)
(5.30661e-19 9.76943e-19 -0.014929)
(4.93627e-19 1.06177e-18 -0.0148552)
(8.71375e-19 1.71232e-18 -0.0147806)
(1.32583e-18 2.69786e-18 -0.0147052)
(1.11444e-18 2.84312e-18 -0.014629)
(4.81734e-19 2.32176e-18 -0.014552)
(7.64545e-21 1.83849e-18 -0.0144742)
(-2.07919e-19 1.54052e-18 -0.0143956)
(-8.88736e-20 1.68093e-18 -0.0143162)
(-4.25716e-20 1.6991e-18 -0.0142359)
(-1.26028e-19 1.47639e-18 -0.0141548)
(-3.64396e-21 1.4472e-18 -0.0140728)
(-1.00666e-19 1.07967e-18 -0.01399)
(-1.66356e-19 8.02571e-19 -0.0139062)
(2.33902e-19 1.10822e-18 -0.0138215)
(5.85837e-19 1.48094e-18 -0.0137359)
(5.75514e-19 1.48032e-18 -0.0136493)
(5.616e-19 1.50126e-18 -0.0135616)
(8.45533e-19 1.93202e-18 -0.0134729)
(9.43946e-19 2.28944e-18 -0.0133831)
(6.12275e-19 2.20036e-18 -0.0132922)
(2.22821e-19 1.91749e-18 -0.0132001)
(1.90294e-19 1.95766e-18 -0.0131069)
(-1.63186e-18 6.33212e-19 -0.0157195)
(-1.3986e-18 1.20094e-18 -0.0156553)
(-1.3175e-18 1.0809e-18 -0.0155902)
(-1.31663e-18 1.036e-18 -0.0155241)
(-1.12114e-18 9.61923e-19 -0.0154571)
(-9.36889e-19 7.33936e-19 -0.0153892)
(-4.00591e-19 9.48017e-19 -0.0153205)
(2.44261e-19 1.7075e-18 -0.0152509)
(3.84828e-19 1.81139e-18 -0.0151805)
(4.57812e-19 1.71677e-18 -0.0151093)
(8.71602e-19 2.1005e-18 -0.0150373)
(9.43303e-19 2.09824e-18 -0.0149644)
(6.2352e-19 1.73951e-18 -0.0148908)
(3.27342e-19 1.51308e-18 -0.0148164)
(4.36043e-20 1.35842e-18 -0.0147412)
(6.3978e-20 1.38655e-18 -0.0146652)
(2.18157e-19 1.76654e-18 -0.0145884)
(2.5754e-19 1.87217e-18 -0.0145107)
(2.38213e-19 2.00463e-18 -0.0144323)
(2.82031e-19 2.367e-18 -0.014353)
(2.54063e-19 2.42942e-18 -0.014273)
(4.37198e-20 2.2868e-18 -0.014192)
(-2.73673e-19 2.01084e-18 -0.0141102)
(-4.1727e-19 1.98975e-18 -0.0140275)
(-4.34626e-19 2.25456e-18 -0.0139439)
(-3.40648e-19 2.48883e-18 -0.0138593)
(-1.19406e-19 2.75603e-18 -0.0137738)
(7.97882e-20 3.01613e-18 -0.0136874)
(1.92245e-19 3.16786e-18 -0.0135999)
(5.14183e-19 3.42265e-18 -0.0135113)
(9.6582e-19 3.79017e-18 -0.0134217)
(9.09391e-19 3.57861e-18 -0.013331)
(4.20042e-19 3.01827e-18 -0.0132391)
(2.08832e-19 2.96106e-18 -0.0131459)
(-2.14411e-18 3.69337e-19 -0.0157498)
(-1.67647e-18 9.70737e-19 -0.015686)