/*--------------------------------*- C++ -*----------------------------------*\
  =========                 |
  \\      /  F ield         | OpenFOAM: The Open Source CFD Toolbox
   \\    /   O peration     | Website:  https://openfoam.org
    \\  /    A nd           | Version:  7
     \\/     M anipulation  |
\*---------------------------------------------------------------------------*/
FoamFile
{
    version     2.0;
    format      ascii;
    class       volVectorField;
    location    "96000";
    object      vorticity;
}
// * * * * * * * * * * * * * * * * * * * * * * * * * * * * * * * * * * * * * //

dimensions      [0 0 -1 0 0 0 0];

internalField   nonuniform List<vector> 
4764
(
(0.0282451 0.00982384 2.94048e-18)
(0.0284228 0.00888659 -5.12062e-18)
(0.0285819 0.00794974 -3.31402e-18)
(0.0287226 0.00701326 -7.5151e-18)
(0.0288453 0.00607718 -1.06686e-17)
(0.0289501 0.00514148 2.25017e-18)
(0.0263131 0.0186476 2.07995e-18)
(0.026676 0.0176899 -1.56935e-17)
(0.0270189 0.0167325 -1.55614e-17)
(0.0273406 0.0157747 1.41158e-18)
(0.0276415 0.0148168 1.48528e-18)
(0.0279221 0.013859 -1.0175e-17)
(0.0281823 0.012901 -8.28963e-18)
(0.0284222 0.0119432 -2.21676e-19)
(0.0286422 0.0109856 1.06199e-17)
(0.0288427 0.0100283 3.66715e-18)
(0.029024 0.00907139 -3.93965e-18)
(0.0291864 0.00811495 -2.87075e-18)
(0.02933 0.00715893 -6.82896e-18)
(0.0294552 0.00620334 -1.17976e-17)
(0.0295621 0.00524817 -6.04912e-20)
(0.029651 0.00429339 2.37161e-18)
(0.0297219 0.00333895 -3.80045e-18)
(0.029775 0.00238475 3.75866e-18)
(0.0298103 0.00143073 -5.87241e-19)
(0.029828 0.000476863 -2.04038e-18)
(0.029828 -0.000476958 9.77539e-18)
(0.0298104 -0.00143083 1.06285e-17)
(0.029775 -0.00238481 1.37028e-17)
(0.0297219 -0.00333899 5.68905e-18)
(0.0296509 -0.00429346 8.52979e-18)
(0.0295621 -0.00524824 7.05662e-19)
(0.0294552 -0.00620342 -1.88128e-18)
(0.02933 -0.00715902 3.19052e-18)
(0.0291865 -0.00811504 -9.6361e-18)
(0.0268873 0.0190517 3.95095e-18)
(0.0272556 0.0180709 -1.54118e-17)
(0.0276028 0.0170904 -1.70349e-17)
(0.0279284 0.01611 1.51272e-18)
(0.0282335 0.0151302 2.82318e-18)
(0.0285188 0.0141511 -1.03709e-17)
(0.0287832 0.0131722 -8.51323e-18)
(0.0290276 0.0121938 -6.28543e-19)
(0.0292521 0.0112159 9.55044e-18)
(0.0294567 0.0102383 2.62188e-18)
(0.0296418 0.00926126 -4.17546e-18)
(0.0298074 0.00828469 -2.62009e-18)
(0.029954 0.00730859 -6.29018e-18)
(0.0300817 0.00633296 -1.2815e-17)
(0.0301909 0.00535778 -1.26829e-18)
(0.0302815 0.00438302 1.3753e-18)
(0.0303539 0.00340863 -4.73366e-18)
(0.030408 0.00243451 3.40778e-18)
(0.0304441 0.00146058 -1.12864e-18)
(0.0304621 0.000486809 -3.42205e-18)
(0.0304622 -0.000486908 8.92683e-18)
(0.0304441 -0.00146068 1.1356e-17)
(0.030408 -0.00243457 1.39999e-17)
(0.0303539 -0.00340868 4.94276e-18)
(0.0302815 -0.00438309 8.64335e-18)
(0.0301908 -0.00535785 1.32985e-18)
(0.0300817 -0.00633303 -1.31404e-18)
(0.029954 -0.00730867 1.98007e-18)
(0.0298075 -0.00828478 -1.18002e-17)
(0.0296419 -0.00926135 -1.28343e-17)
(0.0294569 -0.0102384 -6.05758e-18)
(0.0292523 -0.0112159 -4.35765e-18)
(0.0290278 -0.0121939 -6.29786e-18)
(0.0274818 0.0194701 4.60512e-18)
(0.0278574 0.0184667 -1.52195e-17)
(0.0282099 0.0174629 -1.91461e-17)
(0.0285402 0.0164593 1.65311e-19)
(0.0288493 0.0154563 2.44153e-18)
(0.0291377 0.0144543 -1.18107e-17)
(0.0294052 0.0134529 -8.34203e-18)
(0.0296529 0.0124527 4.15895e-19)
(0.029881 0.0114533 8.57743e-18)
(0.030089 0.0104546 7.93061e-19)
(0.0302771 0.00945652 -4.6522e-18)
(0.0304459 0.00845919 -2.23017e-18)
(0.0305954 0.00746243 -6.28922e-18)
(0.0307257 0.00646619 -1.3519e-17)
(0.0308371 0.00547044 -1.65273e-18)
(0.0309296 0.00447515 1.34482e-18)
(0.0310034 0.00348026 -4.7444e-18)
(0.0310586 0.00248565 3.57765e-18)
(0.0310954 0.00149126 -5.97617e-19)
(0.0311138 0.000497032 -3.76935e-18)
(0.0311138 -0.000497132 8.85831e-18)
(0.0310954 -0.00149136 1.20542e-17)
(0.0310586 -0.00248571 1.36499e-17)
(0.0310033 -0.00348029 3.64211e-18)
(0.0309295 -0.00447521 8.5761e-18)
(0.030837 -0.00547051 2.42223e-18)
(0.0307257 -0.00646626 -2.69417e-19)
(0.0305954 -0.00746251 1.59578e-18)
(0.0304459 -0.00845928 -1.17465e-17)
(0.0302772 -0.00945662 -1.54511e-17)
(0.0300892 -0.0104547 -1.01264e-17)
(0.0298813 -0.0114534 -8.48168e-18)
(0.0296532 -0.0124528 -9.58068e-18)
(0.0294057 -0.0134531 -9.45036e-18)
(0.0291383 -0.0144544 -1.80179e-17)
(0.0288498 -0.0154564 -4.20421e-18)
(0.0285408 -0.0164594 -1.00667e-17)
(0.0282105 -0.017463 -9.90855e-18)
(0.0278578 -0.0184667 1.29257e-18)
(0.0274822 -0.0194702 1.06477e-17)
(0.0270833 -0.020473 -5.34951e-19)
(0.0266597 -0.0214742 1.05676e-18)
(0.0262117 -0.0224739 -1.05056e-18)
(0.025738 -0.0234723 3.2533e-18)
(0.0258631 -0.0238421 2.02512e-17)
(0.0280943 0.0199012 4.29312e-18)
(0.0284782 0.018875 -1.49533e-17)
(0.028838 0.0178482 -2.19566e-17)
(0.0291748 0.0168216 -2.24153e-18)
(0.0294892 0.0157954 1.43505e-18)
(0.0297817 0.01477 -1.38135e-17)
(0.0300528 0.0137455 -8.01026e-18)
(0.0303035 0.0127221 2.04541e-18)
(0.0305341 0.0117 8.24708e-18)
(0.0307442 0.0106789 -6.43047e-19)
(0.0309343 0.00965861 -4.54459e-18)
(0.0311055 0.00863948 -1.32684e-18)
(0.0312574 0.00762119 -6.72547e-18)
(0.0313898 0.00660356 -1.41923e-17)
(0.0315029 0.00558652 -1.81832e-18)
(0.0315969 0.00457002 1.92435e-18)
(0.0316718 0.00355398 -4.37301e-18)
(0.031728 0.00253827 3.67716e-18)
(0.0317653 0.00152282 4.97353e-19)
(0.031784 0.000507546 -3.24619e-18)
(0.031784 -0.000507647 9.39835e-18)
(0.0317653 -0.00152291 1.26093e-17)
(0.0317279 -0.00253832 1.30739e-17)
(0.0316717 -0.003554 2.47193e-18)
(0.0315968 -0.00457007 8.45059e-18)
(0.0315028 -0.00558659 3.56745e-18)
(0.0313898 -0.00660364 5.89659e-19)
(0.0312574 -0.00762128 1.34571e-18)
(0.0311056 -0.0086396 -1.0293e-17)
(0.0309346 -0.00965877 -1.46565e-17)
(0.0307446 -0.010679 -1.07869e-17)
(0.0305346 -0.0117002 -9.15256e-18)
(0.030304 -0.0127223 -9.95149e-18)
(0.0300534 -0.0137457 -1.13822e-17)
(0.0297823 -0.0147701 -1.92789e-17)
(0.0294898 -0.0157955 -5.29669e-18)
(0.0291753 -0.0168217 -1.43391e-17)
(0.0288385 -0.0178482 -1.34767e-17)
(0.0284785 -0.018875 -6.6344e-19)
(0.0280946 -0.0199011 9.61514e-18)
(0.0276865 -0.0209265 -2.32943e-18)
(0.027253 -0.0219503 -3.30934e-19)
(0.0267942 -0.0229723 -2.10319e-18)
(0.0263085 -0.0239924 1.49363e-18)
(0.0264193 -0.0243837 1.72015e-17)
(0.028724 0.0203443 3.56836e-18)
(0.0291169 0.019295 -1.44941e-17)
(0.029485 0.0182451 -2.45922e-17)
(0.0298294 0.0171953 -4.64372e-18)
(0.0301505 0.0161458 8.76438e-19)
(0.0304488 0.015097 -1.52522e-17)
(0.0307251 0.0140492 -8.12507e-18)
(0.0309799 0.0130024 3.63881e-18)
(0.0312136 0.0119569 8.19971e-18)
(0.0314265 0.0109125 -1.88358e-18)
(0.0316191 0.00986925 -3.58189e-18)
(0.0317922 0.00882722 -2.64446e-19)
(0.0319456 0.00778629 -7.71646e-18)
(0.0320793 0.00674625 -1.42024e-17)
(0.0321935 0.00570698 -1.4953e-18)
(0.0322884 0.00466839 1.71935e-18)
(0.0323641 0.00363037 -4.46527e-18)
(0.0324208 0.00259278 3.57588e-18)
(0.0324585 0.0015555 1.43937e-18)
(0.0324773 0.000518436 -2.22805e-18)
(0.0324773 -0.000518532 1.01397e-17)
(0.0324584 -0.00155557 1.29732e-17)
(0.0324206 -0.00259281 1.27779e-17)
(0.0323639 -0.00363038 1.61768e-18)
(0.0322882 -0.00466844 8.06399e-18)
(0.0321934 -0.00570706 4.82602e-18)
(0.0320793 -0.00674635 1.44517e-18)
(0.0319457 -0.00778641 9.1609e-19)
(0.0317923 -0.00882738 -9.00895e-18)
(0.0316194 -0.00986947 -1.20443e-17)
(0.031427 -0.0109127 -9.32714e-18)
(0.0312142 -0.0119571 -8.06458e-18)
(0.0309806 -0.0130027 -8.69918e-18)
(0.0307257 -0.0140494 -1.14092e-17)
(0.0304493 -0.0150971 -1.89976e-17)
(0.030151 -0.0161459 -4.68021e-18)
(0.0298297 -0.0171953 -1.62987e-17)
(0.0294853 -0.0182451 -1.45289e-17)
(0.0291171 -0.0192949 -7.3661e-19)
(0.0287241 -0.0203442 8.60376e-18)
(0.0283063 -0.0213925 -3.57935e-18)
(0.0278624 -0.0224392 -5.73635e-19)
(0.0273923 -0.023484 -1.30524e-18)
(0.0268944 -0.0245264 2.93967e-18)
(0.0269911 -0.0249401 1.71478e-17)
(0.029371 0.0207996 2.39536e-18)
(0.0297732 0.0197266 -1.42154e-17)
(0.0301502 0.0186532 -2.68365e-17)
(0.0305028 0.0175798 -6.43396e-18)
(0.0308314 0.0165066 9.31216e-19)
(0.0311364 0.0154342 -1.65422e-17)
(0.0314189 0.0143627 -8.43353e-18)
(0.031679 0.0132921 5.66982e-18)
(0.0319173 0.0122229 8.64865e-18)
(0.0321343 0.0111549 -2.63963e-18)
(0.0323305 0.0100882 -2.61939e-18)
(0.0325062 0.00902257 6.91139e-19)
(0.0326616 0.0079582 -9.18394e-18)
(0.032797 0.00689488 -1.40541e-17)
(0.0329127 0.0058325 -7.15098e-19)
(0.0330088 0.00477092 1.27753e-18)
(0.0330855 0.00371001 -4.48405e-18)
(0.0331429 0.00264961 3.35375e-18)
(0.0331811 0.00158958 2.22948e-18)
(0.0332001 0.000529797 -1.1445e-18)
(0.0332 -0.000529879 1.07019e-17)
(0.0331808 -0.00158963 1.3236e-17)
(0.0331425 -0.00264962 1.3188e-17)
(0.0330851 -0.00371002 1.05445e-18)
(0.0330085 -0.00477097 7.09757e-18)
(0.0329125 -0.00583259 6.21703e-18)
(0.032797 -0.00689501 2.25206e-18)
(0.0326617 -0.00795834 2.4207e-19)
(0.0325064 -0.00902277 -7.81419e-18)
(0.0323309 -0.0100884 -9.8738e-18)
(0.0321348 -0.0111552 -8.00019e-18)
(0.0319179 -0.0122231 -7.6018e-18)
(0.0316797 -0.0132924 -7.72588e-18)
(0.0314194 -0.0143628 -1.01819e-17)
(0.0311369 -0.0154342 -1.81592e-17)
(0.0308317 -0.0165066 -3.39966e-18)
(0.030503 -0.0175797 -1.65527e-17)
(0.0301504 -0.0186531 -1.41183e-17)
(0.0297734 -0.0197265 3.68986e-19)
(0.029371 -0.0207993 8.03737e-18)
(0.028943 -0.0218712 -4.27765e-18)
(0.0284884 -0.0229414 -4.4104e-19)
(0.0280066 -0.0240095 -1.15439e-19)
(0.0274963 -0.0250749 6.11959e-18)
(0.0275791 -0.0255121 1.87919e-17)
(0.0300356 0.0212672 1.25144e-18)
(0.0304476 0.0201701 -1.44539e-17)
(0.0308338 0.0190725 -2.86603e-17)
(0.0311949 0.0179749 -7.88072e-18)
(0.0315314 0.0168776 8.86945e-19)
(0.0318438 0.0157809 -1.81081e-17)
(0.0321329 0.0146853 -8.92579e-18)
(0.0323991 0.0135906 7.58612e-18)
(0.0326427 0.0124971 9.38538e-18)
(0.0328646 0.0114051 -3.52216e-18)
(0.0330651 0.0103142 -1.89761e-18)
(0.0332443 0.00922456 1.67824e-18)
(0.0334027 0.00813617 -1.0797e-17)
(0.0335407 0.00704893 -1.41532e-17)
(0.0336587 0.0059627 1.93926e-19)
(0.0337566 0.00487735 1.09276e-18)
(0.0338347 0.00379273 -4.29314e-18)
(0.0338932 0.00270866 3.15363e-18)
(0.0339321 0.00162501 3.20133e-18)
(0.0339514 0.000541612 -1.29979e-19)
(0.0339514 -0.000541672 1.05884e-17)
(0.0339318 -0.00162503 1.30288e-17)
(0.0338928 -0.00270866 1.38745e-17)
(0.0338343 -0.00379274 8.8596e-19)
(0.0337563 -0.00487741 6.44161e-18)
(0.0336585 -0.0059628 7.79974e-18)
(0.0335408 -0.00704906 2.60677e-18)
(0.0334029 -0.00813632 -7.29562e-19)
(0.0332446 -0.00922477 -6.6356e-18)
(0.0330654 -0.0103144 -8.23904e-18)
(0.032865 -0.0114053 -6.90344e-18)
(0.0326433 -0.0124973 -7.26418e-18)
(0.0323997 -0.0135908 -6.92465e-18)
(0.0321333 -0.0146853 -9.53371e-18)
(0.0318441 -0.0157809 -1.77827e-17)
(0.0315317 -0.0168775 -2.67828e-18)
(0.0311951 -0.0179747 -1.67481e-17)
(0.030834 -0.0190723 -1.34571e-17)
(0.0304478 -0.0201699 1.1188e-18)
(0.0300357 -0.021267 8.12229e-18)
(0.0295972 -0.022363 -3.93781e-18)
(0.0291315 -0.0234573 -3.28249e-19)
(0.028638 -0.0245494 9.11451e-20)
(0.0281151 -0.0256385 9.38175e-18)
(0.0281839 -0.0261001 2.01507e-17)
(0.0307188 0.0217479 -3.43955e-19)
(0.0311408 0.0206259 -1.50577e-17)
(0.0315364 0.0195034 -3.01013e-17)
(0.0319063 0.018381 -9.57758e-18)
(0.032251 0.0172589 5.31105e-19)
(0.0325711 0.0161374 -1.91339e-17)
(0.0328671 0.0150169 -9.50056e-18)
(0.0331397 0.0138975 8.57984e-18)
(0.0333892 0.0127793 1.0227e-17)
(0.0336163 0.0116625 -3.96264e-18)
(0.0338215 0.010547 -1.00504e-18)
(0.0340048 0.00943266 2.64532e-18)
(0.0341667 0.00831964 -1.23867e-17)
(0.0343079 0.00720781 -1.44027e-17)
(0.0344284 0.00609704 1.08713e-18)
(0.0345285 0.00498721 1.33253e-18)
(0.0346083 0.00387813 -4.23753e-18)
(0.0346681 0.00276965 2.97767e-18)
(0.0347079 0.0016616 4.29068e-18)
(0.0347276 0.000553818 7.17969e-19)
(0.0347275 -0.000553851 1.00321e-17)
(0.0347075 -0.0016616 1.23726e-17)
(0.0346677 -0.00276964 1.45792e-17)
(0.0346079 -0.00387814 1.02033e-18)
(0.0345281 -0.00498727 6.39955e-18)
(0.0344281 -0.00609716 9.41084e-18)
(0.0343078 -0.00720796 2.47087e-18)
(0.0341668 -0.00831979 -1.64746e-18)
(0.034005 -0.00943286 -5.71978e-18)
(0.0338217 -0.0105472 -7.42768e-18)
(0.0336166 -0.0116627 -5.96708e-18)
(0.0333896 -0.0127795 -6.65762e-18)
(0.0331401 -0.0138976 -6.33812e-18)
(0.0328675 -0.0150169 -9.54972e-18)
(0.0325713 -0.0161373 -1.80046e-17)
(0.0322512 -0.0172587 -2.64399e-18)
(0.0319064 -0.0183808 -1.73659e-17)
(0.0315365 -0.0195032 -1.26838e-17)
(0.0311409 -0.0206257 9.01707e-19)
(0.0307189 -0.0217476 8.09653e-18)
(0.0302697 -0.0228685 -3.06112e-18)
(0.0297928 -0.0239877 8.54183e-20)
(0.0292872 -0.0251045 -2.48378e-20)
(0.0287516 -0.0262182 1.21413e-17)
(0.0288063 -0.0267051 2.09877e-17)
(0.0314214 0.0222422 -2.60929e-18)
(0.0318536 0.0210945 -1.53232e-17)
(0.0322589 0.0199465 -3.12392e-17)
(0.0326378 0.0187985 -1.10085e-17)
(0.0329909 0.0176508 4.87897e-19)
(0.0333187 0.0165039 -1.97494e-17)
(0.033622 0.0153579 -1.05258e-17)
(0.0339012 0.0142131 8.80337e-18)
(0.0341568 0.0130695 1.13686e-17)
(0.0343894 0.0119273 -3.6067e-18)
(0.0345995 0.0107864 9.28982e-20)
(0.0347872 0.00964675 3.47351e-18)
(0.034953 0.00850844 -1.39777e-17)
(0.0350975 0.00737134 -1.46116e-17)
(0.0352208 0.00623534 1.94048e-18)
(0.0353232 0.00510032 1.85976e-18)
(0.035405 0.00396607 -4.26229e-18)
(0.0354662 0.00283245 2.69744e-18)
(0.0355068 0.00169928 5.29751e-18)
(0.035527 0.00056639 1.51904e-18)
(0.0355269 -0.000566393 9.28427e-18)
(0.0355065 -0.00169926 1.14435e-17)
(0.0354657 -0.00283243 1.48718e-17)
(0.0354046 -0.00396609 1.20875e-18)
(0.0353229 -0.00510039 6.84254e-18)
(0.0352205 -0.00623548 1.10479e-17)
(0.0350973 -0.00737149 2.18364e-18)
(0.034953 -0.00850859 -2.21429e-18)
(0.0347873 -0.00964694 -4.643e-18)
(0.0345996 -0.0107866 -7.24211e-18)
(0.0343896 -0.0119274 -5.21846e-18)
(0.0341571 -0.0130696 -5.93648e-18)
(0.0339015 -0.0142131 -5.98621e-18)
(0.0336222 -0.0153579 -1.00085e-17)
(0.0333189 -0.0165038 -1.86865e-17)
(0.032991 -0.0176507 -2.75642e-18)
(0.0326378 -0.0187983 -1.78455e-17)
(0.032259 -0.0199463 -1.22835e-17)
(0.0318538 -0.0210944 2.1276e-19)
(0.0314215 -0.0222419 7.51812e-18)
(0.0309615 -0.0233884 -2.42448e-18)
(0.030473 -0.0245333 6.68035e-19)
(0.0299552 -0.0256757 4.00147e-19)
(0.0294067 -0.0268148 1.44887e-17)
(0.0294472 -0.0273279 2.07674e-17)
(0.0321445 0.0227509 -5.03628e-18)
(0.0325871 0.0215767 -1.4848e-17)
(0.0330022 0.0204023 -3.23403e-17)
(0.0333903 0.019228 -1.19914e-17)
(0.0337519 0.018054 2.22668e-19)
(0.0340878 0.0168808 -2.0764e-17)
(0.0343984 0.0157086 -1.16018e-17)
(0.0346844 0.0145376 9.0627e-18)
(0.0349462 0.0133679 1.22973e-17)
(0.0351845 0.0121995 -3.26607e-18)
(0.0353996 0.0110326 1.42418e-18)
(0.0355919 0.00986694 3.54384e-18)
(0.0357618 0.00870264 -1.56663e-17)
(0.0359098 0.00753957 -1.42447e-17)
(0.0360361 0.00637763 2.74308e-18)
(0.0361409 0.00521668 2.20065e-18)
(0.0362246 0.00405654 -4.49313e-18)
(0.0362872 0.00289706 2.4585e-18)
(0.0363289 0.00173805 6.26141e-18)
(0.0363496 0.000579325 2.01956e-18)
(0.0363495 -0.000579298 8.61197e-18)
(0.0363285 -0.00173802 1.06855e-17)
(0.0362868 -0.00289705 1.4954e-17)
(0.0362242 -0.00405657 1.56451e-18)
(0.0361405 -0.00521676 7.38282e-18)
(0.0360357 -0.00637777 1.254e-17)
(0.0359095 -0.00753971 1.90609e-18)
(0.0357617 -0.00870278 -2.79595e-18)
(0.0355919 -0.00986712 -3.20627e-18)
(0.0353997 -0.0110327 -7.19144e-18)
(0.0351846 -0.0121997 -4.80718e-18)
(0.0349465 -0.013368 -5.38521e-18)
(0.0346846 -0.0145376 -5.48027e-18)
(0.0343986 -0.0157085 -1.07826e-17)
(0.0340879 -0.0168807 -1.97838e-17)
(0.033752 -0.0180538 -2.95093e-18)
(0.0333903 -0.0192277 -1.79854e-17)
(0.0330023 -0.0204021 -1.17625e-17)
(0.0325873 -0.0215766 -4.34351e-19)
(0.0321447 -0.0227506 6.60457e-18)
(0.0316736 -0.0239236 -1.92706e-18)
(0.0311733 -0.0250949 1.57445e-18)
(0.0306431 -0.0262637 1.32782e-18)
(0.0300813 -0.0274292 1.66795e-17)
(0.0301074 -0.0279692 1.97794e-17)
(0.0328891 0.0232747 -7.03469e-18)
(0.0333425 0.0220733 -1.43991e-17)
(0.0337675 0.0208716 -3.31291e-17)
(0.0341649 0.0196701 -1.27352e-17)
(0.0345353 0.018469 -5.49984e-19)
(0.0348793 0.0172687 -2.19994e-17)
(0.0351975 0.0160695 -1.21525e-17)
(0.0354904 0.0148715 9.47891e-18)
(0.0357586 0.0136749 1.31511e-17)
(0.0360026 0.0124797 -3.26531e-18)
(0.0362229 0.0112859 2.88871e-18)
(0.0364199 0.0100935 3.23896e-18)
(0.0365939 0.00890243 -1.71617e-17)
(0.0367455 0.00771263 -1.36163e-17)
(0.0368748 0.00652401 3.34204e-18)
(0.0369822 0.0053364 2.23868e-18)
(0.0370679 0.00414962 -4.69166e-18)
(0.037132 0.00296353 2.39609e-18)
(0.0371747 0.00177794 6.94436e-18)
(0.0371959 0.000592631 2.2202e-18)
(0.0371957 -0.000592576 8.1523e-18)
(0.0371743 -0.00177789 1.00487e-17)
(0.0371316 -0.00296352 1.51534e-17)
(0.0370675 -0.00414966 2.04965e-18)
(0.0369818 -0.00533648 7.61491e-18)
(0.0368745 -0.00652415 1.3817e-17)
(0.0367451 -0.00771277 1.71356e-18)
(0.0365937 -0.00890255 -3.27589e-18)
(0.0364198 -0.0100936 -1.24128e-18)
(0.0362229 -0.011286 -7.15694e-18)
(0.0360027 -0.0124798 -5.04797e-18)
(0.0357587 -0.0136749 -5.12751e-18)
(0.0354905 -0.0148715 -4.85519e-18)
(0.0351975 -0.0160694 -1.0876e-17)
(0.0348793 -0.0172685 -2.11147e-17)
(0.0345353 -0.0184688 -3.81687e-18)
(0.0341649 -0.0196698 -1.84886e-17)
(0.0337676 -0.0208714 -1.09015e-17)
(0.0333426 -0.0220731 -4.7047e-19)
(0.0328894 -0.0232744 5.30025e-18)
(0.032407 -0.0244747 -1.92125e-18)
(0.0318948 -0.0256734 2.93691e-18)
(0.0313517 -0.0268695 2.27172e-18)
(0.0307766 -0.0280622 1.82838e-17)
(0.0307879 -0.0286302 1.87032e-17)
(0.0336565 0.0238145 -8.44791e-18)
(0.0341207 0.0225849 -1.3945e-17)
(0.034556 0.021355 -3.37139e-17)
(0.0349629 0.0201255 -1.37219e-17)
(0.0353422 0.0188964 -1.64882e-18)
(0.0356944 0.0176682 -2.28993e-17)
(0.0360203 0.0164412 -1.22457e-17)
(0.0363203 0.0152154 9.8645e-18)
(0.036595 0.013991 1.38417e-17)
(0.0368449 0.0127681 -3.65162e-18)
(0.0370705 0.0115466 4.04738e-18)
(0.0372722 0.0103266 3.28078e-18)
(0.0374505 0.00910807 -1.8314e-17)
(0.0376057 0.00789077 -1.28685e-17)
(0.0377381 0.00667467 3.69266e-18)
(0.037848 0.00545962 1.70397e-18)
(0.0379358 0.00424543 -4.7036e-18)
(0.0380014 0.00303194 2.72746e-18)
(0.0380451 0.00181899 7.19191e-18)
(0.0380669 0.000606324 1.89646e-18)
(0.0380667 -0.000606243 8.01528e-18)
(0.0380448 -0.00181893 9.6864e-18)
(0.0380011 -0.00303194 1.54876e-17)
(0.0379355 -0.00424546 2.71135e-18)
(0.0378477 -0.0054597 7.475e-18)
(0.0377377 -0.0066748 1.45448e-17)
(0.0376053 -0.0078909 1.4648e-18)
(0.0374502 -0.00910819 -3.40827e-18)
(0.037272 -0.0103268 8.99531e-19)
(0.0370704 -0.0115468 -6.99154e-18)
(0.0368448 -0.0127682 -5.61885e-18)
(0.036595 -0.013991 -5.04952e-18)
(0.0363203 -0.0152153 -4.36318e-18)
(0.0360203 -0.016441 -1.03956e-17)
(0.0356945 -0.017668 -2.21853e-17)
(0.0353422 -0.0188962 -4.84111e-18)
(0.0349629 -0.0201252 -1.9414e-17)
(0.034556 -0.0213549 -1.0273e-17)
(0.0341209 -0.0225847 -1.64128e-19)
(0.0336568 -0.0238142 4.07796e-18)
(0.0331629 -0.0250427 -1.8641e-18)
(0.0326384 -0.0262697 4.28713e-18)
(0.0320823 -0.027494 3.56775e-18)
(0.0314935 -0.0287149 1.99448e-17)
(0.0314898 -0.0293116 1.78913e-17)
(0.0339421 0.0256288 4.85365e-19)
(0.0344478 0.0243711 -1.0033e-17)
(0.0349232 0.0231123 -1.30546e-17)
(0.0353689 0.0218534 -3.43628e-17)
(0.0357856 0.0205949 -1.4936e-17)
(0.0361739 0.0193369 -3.38017e-18)
(0.0365346 0.0180799 -2.32195e-17)
(0.0368683 0.0168241 -1.21254e-17)
(0.0371754 0.0155696 1.01811e-17)
(0.0374567 0.0143166 1.46531e-17)
(0.0377126 0.0130652 -4.41576e-18)
(0.0379436 0.0118153 4.67515e-18)
(0.0381502 0.0105668 3.62658e-18)
(0.0383327 0.00931987 -1.93166e-17)
(0.0384916 0.00807423 -1.21495e-17)
(0.0386273 0.00682984 4.05995e-18)
(0.0387398 0.00558652 8.84748e-19)
(0.0388296 0.00434409 -4.61517e-18)
(0.0388969 0.0031024 3.32317e-18)
(0.0389416 0.00186126 7.17226e-18)
(0.0389638 0.000620423 1.2092e-18)
(0.0389638 -0.000620321 8.27022e-18)
(0.0389413 -0.00186119 9.75823e-18)
(0.0388966 -0.0031024 1.57337e-17)
(0.0388293 -0.00434413 3.09091e-18)
(0.0387395 -0.0055866 7.1582e-18)
(0.0386268 -0.00682996 1.51871e-17)
(0.0384912 -0.00807436 1.28892e-18)
(0.0383324 -0.00931999 -3.69985e-18)
(0.0381499 -0.010567 2.94111e-18)
(0.0379434 -0.0118154 -6.88813e-18)
(0.0377125 -0.0130652 -6.39913e-18)
(0.0374566 -0.0143166 -4.85626e-18)
(0.0371754 -0.0155695 -4.1561e-18)
(0.0368682 -0.0168239 -9.43207e-18)
(0.0365346 -0.0180797 -2.2822e-17)
(0.0361739 -0.0193367 -6.26625e-18)
(0.0357856 -0.0205947 -2.06332e-17)
(0.0353689 -0.0218533 -9.83567e-18)
(0.0349234 -0.0231122 2.62143e-19)
(0.0344482 -0.0243708 2.53205e-18)
(0.0339424 -0.0256285 -1.95898e-18)
(0.0334054 -0.0268846 5.29747e-18)
(0.032836 -0.0281382 4.39928e-18)
(0.0322331 -0.0293883 2.17415e-17)
(0.0322141 -0.0300147 1.75914e-17)
(0.0347464 0.0262331 4.52881e-19)
(0.0352644 0.0249453 -1.20335e-17)
(0.0357512 0.0236565 -1.19959e-17)
(0.0362075 0.0223676 -3.48966e-17)
(0.0366341 0.0210791 -1.60224e-17)
(0.0370318 0.0197913 -5.42135e-18)
(0.037401 0.0185045 -2.30214e-17)
(0.0377427 0.017219 -1.12523e-17)
(0.0380572 0.0159349 1.02313e-17)
(0.0383452 0.0146524 1.53803e-17)
(0.0386072 0.0133715 -5.38769e-18)
(0.0388437 0.0120922 4.84848e-18)
(0.0390552 0.0108144 3.75913e-18)
(0.0392421 0.00953818 -1.9956e-17)
(0.0394048 0.00826332 -1.14517e-17)
(0.0395436 0.00698976 4.46304e-18)
(0.0396589 0.00571731 2.74197e-20)
(0.0397508 0.00444577 -4.5355e-18)
(0.0398196 0.00317501 3.94711e-18)
(0.0398654 0.00190482 6.88144e-18)
(0.0398882 0.00063495 5.65235e-19)
(0.0398882 -0.000634831 8.95906e-18)
(0.0398652 -0.00190474 9.98171e-18)
(0.0398193 -0.00317501 1.57328e-17)
(0.0397505 -0.00444581 3.30036e-18)
(0.0396585 -0.00571738 6.92777e-18)
(0.0395432 -0.00698987 1.57916e-17)
(0.0394043 -0.00826344 1.21816e-18)
(0.0392417 -0.00953829 -4.1533e-18)
(0.0390548 -0.0108145 4.25624e-18)
(0.0388434 -0.0120923 -6.85899e-18)
(0.038607 -0.0133715 -6.95097e-18)
(0.0383451 -0.0146524 -4.64526e-18)
(0.0380571 -0.0159348 -4.42773e-18)
(0.0377426 -0.0172188 -8.20305e-18)
(0.037401 -0.0185043 -2.29007e-17)
(0.0370317 -0.019791 -7.885e-18)
(0.0366341 -0.0210789 -2.15763e-17)
(0.0362075 -0.0223675 -9.67403e-18)
(0.0357514 -0.0236564 4.84298e-19)
(0.0352648 -0.0249451 8.03539e-19)
(0.0347469 -0.026233 -2.83794e-18)
(0.034197 -0.0275193 5.80441e-18)
(0.0336139 -0.0288031 4.16742e-18)
(0.0329965 -0.0300834 2.34428e-17)
(0.0329619 -0.0307404 1.76987e-17)
(0.0355769 0.0268572 -6.84506e-19)
(0.0361075 0.0255382 -1.39701e-17)
(0.0366059 0.0242183 -1.07264e-17)
(0.0370731 0.0228983 -3.49008e-17)
(0.03751 0.0215789 -1.70452e-17)
(0.0379171 0.0202602 -7.41919e-18)
(0.0382953 0.0189427 -2.30147e-17)
(0.038645 0.0176265 -1.0347e-17)
(0.0389671 0.0163118 1.02976e-17)
(0.0392619 0.0149988 1.58397e-17)
(0.0395301 0.0136874 -6.57922e-18)
(0.0397723 0.0123778 4.79447e-18)
(0.0399888 0.0110698 3.98332e-18)
(0.0401801 0.00976336 -2.03829e-17)
(0.0403467 0.00845835 -1.09359e-17)
(0.0404888 0.00715469 5.11462e-18)
(0.0406067 0.00585219 -8.79298e-19)
(0.0407008 0.00455064 -4.67965e-18)
(0.0407713 0.00324989 4.36374e-18)
(0.0408181 0.00194975 6.26011e-18)
(0.0408415 0.000649928 1.66916e-19)
(0.0408415 -0.000649796 9.72669e-18)
(0.040818 -0.00194966 1.0099e-17)
(0.040771 -0.00324988 1.57706e-17)
(0.0407006 -0.00455068 3.51291e-18)
(0.0406064 -0.00585225 6.60937e-18)
(0.0404883 -0.00715479 1.6538e-17)
(0.0403461 -0.00845847 1.33885e-18)
(0.0401796 -0.00976347 -4.46911e-18)
(0.0399883 -0.0110699 4.92799e-18)
(0.0397719 -0.0123779 -6.79944e-18)
(0.0395299 -0.0136875 -6.90835e-18)
(0.0392617 -0.0149987 -4.65641e-18)
(0.0389669 -0.0163117 -4.68179e-18)
(0.0386449 -0.0176262 -7.26643e-18)
(0.0382952 -0.0189424 -2.30732e-17)
(0.0379171 -0.0202599 -9.34017e-18)
(0.03751 -0.0215787 -2.1891e-17)
(0.0370732 -0.0228982 -9.29157e-18)
(0.0366061 -0.0242182 1.26283e-19)
(0.0361078 -0.025538 -9.86422e-19)
(0.0355776 -0.0268571 -3.49249e-18)
(0.0350144 -0.0281747 5.88565e-18)
(0.0344173 -0.0294897 3.61185e-18)
(0.0337851 -0.0308014 2.47627e-17)
(0.0337345 -0.03149 1.78921e-17)
(0.0358587 0.028852 2.7884e-17)
(0.0364351 0.027502 -1.86481e-18)
(0.0369785 0.0261507 -1.54984e-17)
(0.0374889 0.0247986 -9.51432e-18)
(0.0379673 0.0234465 -3.49682e-17)
(0.0384147 0.0220951 -1.79543e-17)
(0.0388315 0.0207445 -9.52419e-18)
(0.0392187 0.0193951 -2.28224e-17)
(0.0395768 0.0180472 -9.09822e-18)
(0.0399065 0.016701 1.03069e-17)
(0.0402083 0.0153564 1.57286e-17)
(0.0404828 0.0140136 -7.78505e-18)
(0.0407308 0.0126727 5.04357e-18)
(0.0409524 0.0113334 4.1896e-18)
(0.0411483 0.00999578 -2.07483e-17)
(0.0413188 0.00865965 -1.02018e-17)
(0.0414642 0.00732492 5.78711e-18)
(0.041585 0.00599139 -1.99161e-18)
(0.0416813 0.00465886 -5.07245e-18)
(0.0417534 0.00332717 4.7132e-18)
(0.0418014 0.00199611 5.60246e-18)
(0.0418253 0.000665385 2.24336e-19)
(0.0418253 -0.000665241 1.0603e-17)
(0.0418012 -0.00199601 9.84125e-18)
(0.0417531 -0.00332716 1.57577e-17)
(0.0416811 -0.0046589 3.79765e-18)
(0.0415847 -0.00599145 6.13884e-18)
(0.0414638 -0.00732501 1.74693e-17)
(0.0413182 -0.00865976 1.62213e-18)
(0.0411478 -0.00999588 -5.06904e-18)
(0.0409519 -0.0113335 5.13435e-18)
(0.0407304 -0.0126728 -6.49834e-18)
(0.0404827 -0.0140137 -6.96156e-18)
(0.0402081 -0.0153564 -5.32565e-18)
(0.0399063 -0.0167008 -4.4643e-18)
(0.0395766 -0.018047 -5.95735e-18)
(0.0392186 -0.0193949 -2.34425e-17)
(0.0388315 -0.0207442 -1.07453e-17)
(0.0384147 -0.0220949 -2.16899e-17)
(0.0379674 -0.0234464 -8.66942e-18)
(0.0374891 -0.0247985 -4.30773e-19)
(0.0369788 -0.0261505 -2.65001e-18)
(0.0364358 -0.0275019 -3.63974e-18)
(0.0358591 -0.0288518 5.13516e-18)
(0.0352476 -0.0301993 3.24841e-18)
(0.0346001 -0.0315433 2.55756e-17)
(0.034533 -0.0322646 1.7792e-17)
(0.0367317 0.0295519 2.91995e-17)
(0.0373223 0.0281686 -2.62057e-18)
(0.0378788 0.0267839 -1.68779e-17)
(0.0384016 0.0253984 -8.404e-18)
(0.0388916 0.0240131 -3.48536e-17)
(0.0393497 0.0226285 -1.91103e-17)
(0.0397764 0.0212449 -1.12017e-17)
(0.0401729 0.0198627 -2.23317e-17)
(0.0405396 0.018482 -7.94923e-18)
(0.0408771 0.017103 1.02234e-17)
(0.0411861 0.0157259 1.51486e-17)
(0.0414671 0.0143506 -8.88711e-18)
(0.041721 0.0129773 5.8693e-18)
(0.0419479 0.0116057 4.42114e-18)
(0.0421483 0.0102359 -2.10074e-17)
(0.0423228 0.00886756 -9.18132e-18)
(0.0424717 0.00750073 6.28683e-18)
(0.0425952 0.00613516 -3.04999e-18)
(0.0426939 0.00477063 -5.6197e-18)
(0.0427677 0.00340699 4.89569e-18)
(0.0428168 0.00204398 5.13836e-18)
(0.0428413 0.000681345 5.95148e-19)
(0.0428413 -0.000681191 1.15768e-17)
(0.0428167 -0.00204387 9.21041e-18)
(0.0427674 -0.00340697 1.54417e-17)
(0.0426936 -0.00477067 4.45473e-18)
(0.042595 -0.00613522 5.9525e-18)
(0.0424713 -0.00750081 1.79889e-17)
(0.0423223 -0.00886766 1.64463e-18)
(0.0421478 -0.0102359 -5.74309e-18)
(0.0419473 -0.0116058 5.11151e-18)
(0.0417205 -0.0129774 -5.83514e-18)
(0.041467 -0.0143507 -7.35611e-18)
(0.0411859 -0.0157259 -6.37223e-18)
(0.0408769 -0.0171028 -4.19608e-18)
(0.0405393 -0.0184817 -4.34626e-18)
(0.0401728 -0.0198624 -2.34581e-17)
(0.0397765 -0.0212447 -1.2116e-17)
(0.0393496 -0.0226283 -2.15261e-17)
(0.0388916 -0.024013 -7.68655e-18)
(0.0384017 -0.0253983 -7.78201e-19)
(0.0378792 -0.0267837 -4.00631e-18)
(0.0373231 -0.0281685 -3.33083e-18)
(0.0367323 -0.0295519 4.14008e-18)
(0.036106 -0.0309329 3.2264e-18)
(0.0354428 -0.0323105 2.65267e-17)
(0.0353589 -0.0330655 1.75401e-17)
(0.0369939 0.031692 3.05855e-17)
(0.0376349 0.030276 2.92131e-17)
(0.0382401 0.028858 -3.65465e-18)
(0.0388101 0.0274387 -1.80739e-17)
(0.0393456 0.0260188 -7.28367e-18)
(0.0398474 0.0245991 -3.493e-17)
(0.0403165 0.0231802 -2.05661e-17)
(0.0407536 0.0217624 -1.27914e-17)
(0.0411596 0.0203461 -2.17774e-17)
(0.041535 0.0189315 -6.92625e-18)
(0.0418806 0.0175187 9.96824e-18)
(0.0421969 0.0161079 1.41082e-17)
(0.0424846 0.014699 -9.87087e-18)
(0.0427445 0.0132921 7.31213e-18)
(0.0429768 0.0118872 4.68044e-18)
(0.043182 0.010484 -2.12015e-17)
(0.0433606 0.00908245 -8.53056e-18)
(0.0435129 0.00768244 6.36033e-18)
(0.0436394 0.00628374 -3.82954e-18)
(0.0437404 0.00488614 -5.77927e-18)
(0.0438159 0.00348947 4.82477e-18)
(0.0438661 0.00209346 4.7622e-18)
(0.0438913 0.000697838 1.03563e-18)
(0.0438912 -0.000697675 1.26761e-17)
(0.043866 -0.00209334 8.32929e-18)
(0.0438157 -0.00348944 1.4845e-17)
(0.0437401 -0.00488618 5.50216e-18)
(0.0436392 -0.00628379 6.34996e-18)
(0.0435125 -0.0076825 1.80135e-17)
(0.04336 -0.00908254 1.11209e-18)
(0.0431813 -0.0104841 -6.32832e-18)
(0.0429762 -0.0118873 4.97266e-18)
(0.0427439 -0.0132922 -4.46417e-18)
(0.0424845 -0.0146991 -7.5862e-18)
(0.0421967 -0.0161078 -7.67024e-18)
(0.0418804 -0.0175185 -4.27654e-18)
(0.0415347 -0.0189312 -2.7026e-18)
(0.0411594 -0.0203458 -2.28171e-17)
(0.0407536 -0.0217622 -1.34883e-17)
(0.0403165 -0.02318 -2.20609e-17)
(0.0398475 -0.024599 -6.59781e-18)
(0.0393457 -0.0260187 -7.29568e-19)
(0.0388104 -0.0274386 -5.36725e-18)
(0.0382408 -0.028858 -3.23953e-18)
(0.0376357 -0.0302761 3.65482e-18)
(0.0369941 -0.0316919 3.94814e-18)
(0.0363146 -0.0331042 2.75795e-17)
(0.0362135 -0.0338942 1.66263e-17)
(0.0379128 0.0324774 3.2454e-17)
(0.0385698 0.0310255 2.7931e-17)
(0.03919 0.0295716 -5.03401e-18)
(0.039774 0.0281165 -1.90906e-17)
(0.0403225 0.0266608 -6.41321e-18)
(0.0408365 0.0252054 -3.52344e-17)
(0.041317 0.023751 -2.18975e-17)
(0.0417646 0.0222978 -1.41857e-17)
(0.0421804 0.0208462 -2.11651e-17)
(0.0425648 0.0193965 -6.32737e-18)
(0.0429187 0.0179487 9.93227e-18)
(0.0432425 0.016503 1.28569e-17)
(0.0435372 0.0150593 -1.06853e-17)
(0.0438032 0.0136178 8.99173e-18)
(0.044041 0.0121783 4.9106e-18)
(0.044251 0.0107406 -2.10829e-17)
(0.0444338 0.0093047 -8.40929e-18)
(0.0445897 0.00787036 5.92549e-18)
(0.0447192 0.00643739 -4.09743e-18)
(0.0448226 0.0050056 -5.1943e-18)
(0.0448998 0.00357476 4.48211e-18)
(0.0449513 0.00214462 4.16874e-18)
(0.044977 0.000714891 1.2212e-18)
(0.044977 -0.000714721 1.37795e-17)
(0.0449512 -0.0021445 7.49575e-18)
(0.0448997 -0.00357473 1.39855e-17)
(0.0448223 -0.00500564 6.67442e-18)
(0.044719 -0.00643745 7.23037e-18)
(0.0445893 -0.00787041 1.79549e-17)
(0.0444332 -0.00930477 2.08006e-19)
(0.0442503 -0.0107407 -6.9e-18)
(0.0440403 -0.0121784 4.70076e-18)
(0.0438026 -0.0136179 -2.80932e-18)
(0.0435369 -0.0150594 -7.50722e-18)
(0.0432424 -0.0165029 -9.26803e-18)