/*--------------------------------*- C++ -*----------------------------------*\
  =========                 |
  \\      /  F ield         | OpenFOAM: The Open Source CFD Toolbox
   \\    /   O peration     | Website:  https://openfoam.org
    \\  /    A nd           | Version:  7
     \\/     M anipulation  |
\*---------------------------------------------------------------------------*/
FoamFile
{
    version     2.0;
    format      ascii;
    class       surfaceScalarField;
    location    "76000";
    object      phi;
}
// * * * * * * * * * * * * * * * * * * * * * * * * * * * * * * * * * * * * * //

dimensions      [0 3 -1 0 0 0 0];

internalField   nonuniform List<scalar> 
9375
(
-1.43481e-23
1.2878e-22
-1.53766e-23
8.32378e-23
-2.48875e-23
5.98227e-23
-1.64761e-23
1.24678e-22
-2.51195e-23
2.11633e-23
1.27587e-22
-9.8391e-24
8.13818e-23
-9.27429e-24
-7.36549e-24
-1.63397e-23
1.12573e-23
-2.5128e-23
5.09747e-23
-1.88157e-23
7.97489e-23
-2.25275e-23
1.31944e-22
-1.42958e-23
9.13189e-23
-2.42091e-23
4.45905e-23
-1.80135e-23
8.39029e-23
-1.42782e-23
1.23848e-22
-1.50659e-23
8.29848e-23
-2.32656e-23
1.1731e-22
-1.76916e-23
7.9696e-23
-2.3275e-23
7.28172e-23
-2.6081e-23
1.25561e-22
-2.27418e-23
1.50933e-22
-1.93344e-23
1.35534e-22
-2.20654e-23
1.42913e-22
-2.17334e-23
8.23074e-24
-2.64622e-23
2.67564e-23
-3.4632e-23
5.17051e-23
-3.79173e-23
8.1341e-23
-3.18825e-23
1.00529e-22
-1.99099e-23
1.39182e-22
-2.25713e-23
1.31829e-22
-1.78741e-23
2.42323e-22
-1.48529e-23
1.20292e-22
-6.44298e-24
1.88366e-22
1.81539e-22
-1.02884e-23
1.03987e-22
-8.08183e-24
-1.73029e-23
-1.66615e-23
1.6506e-23
-2.40327e-23
1.34705e-22
-1.73848e-23
7.61431e-23
-2.31319e-23
1.69678e-22
-1.34107e-23
1.9989e-22
-2.35978e-23
5.87285e-23
-1.77388e-23
7.23156e-24
-1.52577e-23
1.67842e-22
-1.28341e-23
1.33109e-22
-2.47742e-23
6.42133e-23
-1.69265e-23
6.88574e-23
-2.14354e-23
8.95563e-23
-2.59053e-23
5.60741e-23
-2.14721e-23
1.38454e-22
-2.00528e-23
1.01868e-22
-2.32143e-23
1.60709e-22
-2.07709e-23
5.66772e-23
-2.6232e-23
2.19939e-23
-3.37213e-23
8.04445e-23
-3.7165e-23
3.88927e-23
-3.19459e-23
9.96938e-23
-1.93097e-23
1.41871e-22
-2.13833e-23
2.10452e-22
-1.93728e-23
1.63261e-22
-1.41446e-23
1.23424e-22
-6.78819e-24
1.4387e-22
8.54319e-25
1.75688e-22
-1.21348e-24
1.22786e-22
-5.78048e-24
1.45049e-22
-1.71505e-24
9.67263e-23
1.70083e-22
-1.02174e-23
1.11759e-22
-6.93301e-24
-2.72593e-23
-1.45673e-23
-7.89008e-24
-2.40036e-23
1.38815e-22
-1.5917e-23
7.43283e-23
-2.15663e-23
1.39861e-22
-1.55941e-23
1.77528e-22
-2.45339e-23
1.00018e-22
-1.5348e-23
1.15317e-22
-1.64224e-23
1.35657e-22
-1.27173e-23
1.34273e-22
-2.50859e-23
8.96388e-23
-1.61269e-23
4.98591e-23
-2.12932e-23
8.60564e-23
-2.45234e-23
7.50743e-23
-2.0644e-23
1.73175e-22
-2.00628e-23
8.59716e-23
-2.41953e-23
2.10191e-22
-2.05648e-23
5.28946e-23
-2.55554e-23
2.29409e-23
-3.39258e-23
6.55275e-24
-3.58923e-23
3.36183e-23
-3.13177e-23
9.35053e-23
-1.76417e-23
1.11475e-22
-2.35295e-23
1.40976e-22
-1.83815e-23
1.91746e-22
-1.44016e-23
1.28546e-22
-6.29442e-24
1.69956e-22
7.79815e-25
2.48991e-22
-1.49866e-24
8.76615e-23
-5.50196e-24
1.49194e-22
-1.17086e-24
9.77151e-23
8.03423e-24
1.7367e-22
2.22663e-23
8.06443e-23
1.67953e-23
5.08631e-23
1.98762e-24
-6.83134e-23
7.09147e-24
3.45003e-23
4.04464e-24
9.65928e-24
-3.89409e-24
5.64521e-23
-9.77967e-24
2.99021e-23
-6.34326e-26
7.70931e-23
-1.48477e-24
1.32949e-22
4.19424e-24
5.81642e-23
-7.92043e-25
1.76079e-23
-1.26577e-23
-1.10892e-23
1.4613e-22
-6.41691e-24
2.85545e-24
-1.22603e-23
1.88469e-25
-2.37287e-23
1.51645e-22
-1.52379e-23
1.97809e-22
-1.96817e-23
1.33212e-22
-1.58881e-23
1.92706e-22
-2.45326e-23
1.32468e-22
-1.47879e-23
1.24559e-22
-1.64297e-23
1.78416e-22
-1.30982e-23
1.6862e-22
-2.54041e-23
2.34492e-23
-1.53295e-23
3.16743e-23
-2.04918e-23
1.20277e-22
-2.29309e-23
4.06629e-23
-2.09701e-23
9.47437e-23
-1.85497e-23
7.31478e-23
-2.64177e-23
1.49023e-22
-1.9913e-23
1.24432e-22
-2.6306e-23
2.54227e-23
-3.27286e-23
7.78847e-24
-3.51686e-23
3.13498e-23
-3.01936e-23
1.16461e-22
-1.74198e-23
7.83516e-23
-2.36308e-23
1.50926e-22
-1.77215e-23
2.34189e-22
-1.43952e-23
1.35889e-22
-5.12962e-24
1.87681e-22
-1.25188e-24
1.8281e-22
-5.43449e-25
7.44958e-23
-5.9694e-24
2.19608e-23
-7.82973e-25
1.24596e-22
7.65188e-24
1.8545e-22
2.08819e-23
1.02062e-22
1.47755e-23
4.94618e-23
3.16725e-24
-6.76918e-23
7.70367e-24
1.20227e-23
3.77266e-24
8.40468e-24
-2.93046e-24
3.63194e-23
-9.47946e-24
3.70134e-23
2.51596e-26
6.9271e-23
-2.08006e-24
8.78217e-23
1.89869e-24
4.84207e-23
-7.31307e-25
9.98737e-23
6.59376e-24
-1.0466e-23
1.42224e-22
-6.47313e-24
7.1152e-23
-1.05395e-23
3.83452e-24
-2.20239e-23
1.95039e-22
-1.72829e-23
1.88243e-22
-1.88964e-23
1.54033e-22
-1.52259e-23
1.88734e-22
-2.51728e-23
1.33568e-22
-1.50422e-23
1.08634e-22
-1.65561e-23
1.82383e-22
-1.37238e-23
1.39896e-22
-2.41443e-23
1.78519e-23
-1.51129e-23
9.91395e-23
-1.98682e-23
2.54631e-22
-2.25566e-23
2.4704e-23
-2.03532e-23
1.02198e-22
-1.77414e-23
3.87044e-24
-2.62745e-23
8.29741e-23
-2.06026e-23
1.13569e-22
-2.68115e-23
3.02194e-23
-3.1981e-23
8.58939e-24
-3.42014e-23
3.6129e-23
-2.969e-23
1.09475e-22
-1.66611e-23
2.78404e-23
-2.28758e-23
1.50197e-22
-1.71943e-23
2.19103e-22
-1.43241e-23
1.02719e-22
-5.22417e-24
2.1181e-22
-3.3773e-24
1.87859e-22
-1.56897e-24
8.84214e-23
-3.5657e-24
2.75737e-23
-4.17992e-25
9.7415e-23
7.78491e-24
1.62533e-22
2.02858e-23
8.12021e-23
1.32494e-23
3.25249e-23
5.00912e-24
-7.7369e-23
8.13155e-24
2.80678e-24
2.99502e-24
-1.1882e-23
-1.4219e-24
4.7911e-23
-8.8405e-24
4.69615e-23
1.31846e-25
1.2447e-22
-2.9941e-24
2.93539e-23
2.37003e-24
1.04082e-22
-2.07549e-24
1.10321e-22
1.5062e-23
-1.10134e-23
1.39691e-22
-6.4234e-24
6.29992e-23
-8.43664e-24
6.04335e-24
-2.06083e-23
1.15407e-22
-1.65184e-23
1.33445e-22
-1.79281e-23
1.15976e-22
-1.54932e-23
1.76081e-22
-2.4635e-23
1.40925e-22
-1.38333e-23
9.05184e-23
-1.76186e-23
1.13341e-22
-1.44659e-23
1.33138e-22
-2.25828e-23
-5.16955e-23
-1.31635e-23
8.93756e-23
-2.14164e-23
1.86421e-22
-2.23945e-23
2.05966e-24
-2.01152e-23
1.30462e-22
-1.72934e-23
2.15607e-23
-2.53287e-23
6.81417e-23
-2.1189e-23
1.0875e-22
-2.69753e-23
4.7775e-23
-3.13125e-23
9.06214e-24
-3.33543e-23
8.13732e-23
-2.97027e-23
1.39963e-22
-1.55374e-23
9.2489e-23
-2.23814e-23
1.48024e-22
-1.68835e-23
1.83332e-22
-1.416e-23
1.10136e-22
-4.97336e-24
1.96823e-22
-4.24748e-24
2.02771e-22
-2.54199e-24
9.28098e-23
-3.05892e-24
7.18946e-23
3.29167e-25
9.72171e-23
7.05098e-24
1.43329e-22
1.91408e-23
9.09935e-23
1.17775e-23
3.79743e-23
3.97925e-24
-9.38858e-24
8.29754e-24
7.34023e-23
3.43828e-24
5.31121e-23
-8.5178e-25
5.82034e-23
-7.66452e-24
5.66584e-23
-7.45166e-25
1.18394e-22
-2.48066e-24
2.98496e-23
1.1298e-24
9.63966e-23
-2.26418e-24
1.17216e-22
-1.73662e-23
-9.85461e-24
8.47211e-23
-5.79595e-24
5.13204e-23
-7.70043e-24
4.5646e-24
-1.97355e-23
6.80308e-23
-1.63444e-23
1.50275e-22
-1.71242e-23
1.34643e-22
-1.60593e-23
1.55894e-22
-2.43603e-23
1.54453e-22
-1.44398e-23
9.5746e-23
-1.71433e-23
1.27169e-22
-1.63826e-23
1.02265e-22
-1.95782e-23
-8.51449e-24
-1.28301e-23
8.81055e-23
-2.19291e-23
1.76576e-22
-2.16174e-23
6.46817e-23
-2.03158e-23
1.36629e-22
-1.72266e-23
8.71232e-24
-2.42956e-23
7.85356e-23
-2.127e-23
7.5328e-23
-2.74193e-23
5.01966e-24
-3.00609e-23
3.3057e-23
-3.32268e-23
1.24951e-22
-2.91084e-23
1.74465e-22
-1.52257e-23
7.00317e-23
-2.2453e-23
1.05285e-22
-1.59255e-23
1.82133e-22
-1.39911e-23
1.16095e-22
-3.75261e-24
2.14025e-22
-6.36314e-24
1.34323e-22
-2.18164e-24
1.75138e-22
-2.61994e-24
7.86403e-23
9.85448e-25
1.31532e-22
6.45061e-24
1.23137e-22
1.82694e-23
1.10066e-22
1.18887e-23
5.00107e-23
5.05821e-24
-8.6768e-24
8.21612e-24
1.05312e-22
3.33525e-24
5.71156e-23
-1.85953e-24
6.60938e-23
-7.27354e-24
1.33752e-22
-1.56127e-24
1.31743e-22
-2.12395e-24
3.04933e-23
6.05304e-25
8.9678e-23
-3.35165e-24
1.26651e-22
-4.37771e-23
-9.88037e-24
1.54518e-22
-5.51831e-24
1.05308e-22
-7.6687e-24
2.9193e-24
-1.82121e-23
5.41951e-23
-1.54667e-23
1.39156e-22
-1.57803e-23
1.06207e-22
-1.56233e-23
7.06924e-23
-2.47495e-23
2.01821e-22
-1.45328e-23
1.51664e-22
-1.72263e-23
1.38687e-22
-1.77007e-23
1.41547e-22
-1.73822e-23
-8.60973e-24
-1.19868e-23
7.3939e-23
-2.13901e-23
1.2939e-22
-2.18277e-23
4.52144e-23
-2.1159e-23
1.13032e-22
-1.6437e-23
2.1776e-23
-2.41729e-23
5.28137e-23
-2.11774e-23
6.58538e-23
-2.71434e-23
4.30318e-24
-2.85719e-23
3.56068e-23
-3.30465e-23
9.71578e-23
-2.89824e-23
1.72994e-22
-1.50674e-23
1.69069e-22
-2.1933e-23
9.67304e-23
-1.51385e-23
1.63401e-22
-1.40701e-23
9.62336e-23
-4.50702e-24
2.08638e-22
-5.53921e-24
6.86458e-23
-3.01212e-24
1.39721e-22
-1.90262e-24
8.35542e-23
7.50192e-25
1.1233e-22
6.7092e-24
9.50555e-23
1.70871e-23
1.1367e-22
1.07361e-23
1.76287e-23
6.17168e-24
2.02946e-23
9.03134e-24
6.3888e-23
2.87679e-24
6.01123e-23
-9.10251e-26
6.6815e-23
-7.93518e-24
8.10276e-23
-2.19243e-24
1.2438e-22
-1.6895e-24
9.33128e-23
7.3033e-25
8.8553e-23
-3.71234e-24
5.94906e-23
-3.27315e-23
-9.35899e-24
1.71148e-22
-5.6083e-24
9.38848e-23
-6.55035e-24
-1.95625e-24
-1.67983e-23
1.33058e-23
-1.53432e-23
8.70281e-23
-1.5145e-23
1.00389e-22
-1.38909e-23
7.17917e-23
-2.49328e-23
2.14377e-22
-1.58578e-23
1.56824e-22
-1.69993e-23
1.47175e-22
-1.89305e-23
1.04633e-22
-1.60811e-23
-2.69721e-23
-1.1583e-23
1.21804e-22
-2.05779e-23
1.00107e-22
-2.1721e-23
-8.54936e-24
-2.10571e-23
1.11114e-22
-1.60741e-23
6.48999e-23
-2.39973e-23
6.19947e-23
-2.113e-23
5.51203e-23
-2.67866e-23
8.69381e-24
-2.7393e-23
7.34809e-23
-3.25348e-23
1.09048e-22
-2.77957e-23
1.64582e-22
-1.66617e-23
1.54959e-22
-2.18665e-23
1.06557e-22
-1.44266e-23
2.29406e-22
-1.34438e-23
9.89577e-23
-5.56786e-24
2.0831e-22
-4.39893e-24
8.49225e-23
-3.1159e-24
9.81794e-23
-1.55583e-24
8.39436e-23
5.05317e-25
7.56631e-23
7.50027e-24
4.81485e-23
1.51322e-23
8.90613e-23
1.1486e-23
8.65604e-23
6.02402e-24
-2.48282e-23
9.00707e-24
7.58657e-23
2.85936e-24
2.51471e-25
5.60262e-25
6.60775e-23
-8.64927e-24
3.24424e-23
-2.83959e-24
1.17421e-22
-1.14331e-24
5.7019e-23
3.04743e-25
7.175e-23
-4.34443e-24
-4.9552e-23
-2.32701e-23
-8.62472e-24
1.72507e-22
-6.12216e-24
9.10891e-23
-6.09104e-24
4.17255e-23
-1.67764e-23
1.48334e-23
-1.49174e-23
7.79129e-23
-1.38787e-23
1.31081e-22
-1.35793e-23
5.54898e-23
-2.43884e-23
1.88843e-22
-1.65988e-23
1.24918e-22
-1.72328e-23
1.4978e-22
-1.9939e-23
1.10397e-22
-1.45219e-23
-4.62226e-23
-1.14952e-23
1.52566e-22
-2.06439e-23
9.45998e-23
-2.1232e-23
4.00697e-23
-2.08948e-23
1.07718e-22
-1.59294e-23
6.33287e-23
-2.37989e-23
6.78442e-23
-2.09588e-23
8.28717e-23
-2.61352e-23
1.66213e-23
-2.65632e-23
7.66297e-23
-3.24499e-23
1.1405e-22
-2.63133e-23
1.94833e-22
-1.75395e-23
1.54318e-22
-2.11503e-23
1.20998e-22
-1.49039e-23
2.18133e-22
-1.25561e-23
1.00198e-22
-6.39238e-24
2.10997e-22
-3.60716e-24
1.23828e-22
-3.66991e-24
2.52587e-23
-1.26115e-24
8.26634e-23
2.76693e-25
3.95359e-23
7.55923e-24
6.66656e-23
1.64879e-23
8.04915e-23
1.01966e-23
1.55329e-23
6.98641e-24
-9.07818e-24
8.6939e-24
6.82736e-23
3.23722e-24
-6.05487e-23
1.08726e-24
-1.16874e-23
-8.09275e-24
-2.10527e-23
-1.72748e-24
1.41881e-22
-1.66556e-24
2.14497e-23
-1.36741e-24
7.83694e-23
-3.44409e-24
1.76002e-23
-4.13179e-24
-8.40392e-24
2.08484e-22
-6.87539e-24
7.77302e-23
-5.42314e-24
7.32115e-23
-1.6086e-23
2.97988e-24
-1.34495e-23
7.00613e-23
-1.32934e-23
1.25957e-22
-1.31688e-23
5.78907e-23
-2.4068e-23
1.63143e-22
-1.71617e-23
7.50487e-23
-1.74994e-23
1.50621e-22
-2.07691e-23
1.14347e-22
-1.22503e-23
6.77811e-24
-1.1611e-23
1.49229e-22
-1.99099e-23
1.05462e-22
-2.13398e-23
2.65654e-23
-2.05323e-23
1.05531e-22
-1.5491e-23
9.36092e-23
-2.34711e-23
1.03892e-23
-2.1092e-23
3.92643e-23
-2.54835e-23
3.8169e-23
-2.57525e-23
9.61673e-23
-3.17583e-23
1.2027e-22
-2.59167e-23
1.85181e-22
-1.78701e-23
1.49204e-22
-2.09808e-23
9.57221e-23
-1.50222e-23
2.02757e-22
-1.25003e-23
1.11424e-22
-6.48648e-24
2.2254e-22
-5.01395e-24
1.23876e-22
-2.87374e-24
5.47582e-23
-1.29692e-24
8.46354e-23
8.33525e-25
1.07063e-22
7.03611e-24
1.20714e-22
1.62546e-23
8.53124e-23
1.03254e-23
1.1493e-23
7.17975e-24
-1.64345e-23
7.84263e-24
2.35808e-23
4.17639e-24
-5.86929e-23
2.76234e-25
1.94364e-23
-6.48559e-24
-5.77765e-23
-2.2318e-24
1.3296e-22
-1.53898e-24
2.38988e-23
-1.78316e-24
8.62399e-23
-2.75549e-24
1.78957e-23
1.91405e-24
-9.22695e-24
1.78855e-22
-6.40341e-24
1.4591e-22
-5.55229e-24
6.67691e-23
-1.48841e-23
5.82565e-24
-1.28217e-23
6.76224e-23
-1.19086e-23
1.1526e-22
-1.31109e-23
4.32633e-23
-2.40921e-23
1.87959e-22
-1.65157e-23
6.09437e-23
-1.79911e-23
1.54518e-22
-2.10398e-23
1.19472e-22
-1.1224e-23
7.923e-23
-1.18039e-23
8.56038e-23
-1.96839e-23
1.10348e-22
-2.13284e-23
-3.48965e-23
-2.00439e-23
1.35345e-22
-1.6124e-23
8.91563e-23
-2.28929e-23
2.1066e-23
-2.06083e-23
3.30593e-23
-2.50443e-23
4.99594e-23
-2.47668e-23
1.33623e-22
-3.14249e-23
1.26922e-22
-2.55868e-23
1.61563e-22
-1.80875e-23
1.43681e-22
-2.02531e-23
1.30948e-22
-1.49437e-23
2.62246e-22
-1.17286e-23
1.27835e-22
-7.36137e-24
2.60964e-22
-5.22437e-24
1.2527e-22
-3.06356e-24
5.29064e-23
-3.68988e-25
8.22434e-23
9.96578e-25
9.43459e-23
5.5134e-24
7.35746e-23
1.64613e-23
1.65557e-22
1.01918e-23
1.93e-23
6.80486e-24
-1.95799e-23
8.78064e-24
1.53091e-23
3.48991e-24
-5.2258e-23
9.89611e-25
-5.81954e-23
-5.56851e-24
-1.34427e-23
-2.37956e-24
1.43223e-22
-1.85945e-24
2.48394e-23
-2.30681e-24
1.24254e-22
-3.25162e-24
1.7577e-23
6.89448e-23
-8.40637e-24
-1.23564e-23
-8.72111e-24
2.69016e-22
-6.85922e-24
7.36316e-23
-4.86433e-24
5.779e-23
-1.40418e-23
2.65909e-23
-1.24896e-23
1.04594e-22
-1.10018e-23
1.75297e-22
-1.26694e-23
2.97574e-23
-2.42146e-23
1.6068e-22
-1.59464e-23
5.90092e-24
-1.756e-23
9.57634e-23
-2.08369e-23
1.28756e-22
-1.15838e-23
8.08042e-23
-1.07042e-23
1.49596e-22
-2.01904e-23
7.59878e-23
-2.00054e-23
2.4734e-23
-2.00971e-23
1.2531e-22
-1.63552e-23
8.4252e-23
-2.23772e-23
4.33404e-23
-2.01502e-23
3.19768e-23
-2.4286e-23
5.96453e-23
-2.41159e-23
7.09585e-23
-3.16301e-23
6.66592e-23
-2.52217e-23
1.39215e-22
-1.79677e-23
1.37323e-22
-1.95182e-23
9.17829e-23
-1.55415e-23
1.93223e-22
-1.08394e-23
1.21709e-22
-8.32573e-24
1.8248e-22
-5.77866e-24
1.6204e-22
-3.02655e-24
5.1191e-23
2.63442e-25
8.29264e-23
4.34732e-25
1.3599e-22
5.72223e-24
6.4226e-23
1.51955e-23
1.49153e-22
1.0169e-23
-4.07277e-23
7.33116e-24
-3.04963e-23
8.82988e-24
4.01864e-23
3.11855e-24
-4.69652e-23
1.77832e-24
1.28237e-23
-5.49889e-24
-9.86188e-23
-2.40223e-24
1.39923e-22
-2.55772e-24
2.28009e-23
-2.72599e-24
1.38228e-22
-4.1924e-24
1.44509e-23
6.29074e-23
-6.28717e-24
4.118e-23
-9.85099e-24
2.19682e-22
-6.23596e-24
1.38606e-22
-4.3367e-24
5.26955e-23
-1.34878e-23
3.3939e-23
-1.11905e-23
1.00229e-22
-1.17664e-23
1.69627e-22
-1.22472e-23
2.88508e-23
-2.40695e-23
1.68467e-22
-1.61026e-23
-5.69498e-24
-1.66982e-23
9.55593e-23
-2.08817e-23
1.39043e-22
-1.13902e-23
1.30963e-22
-1.09625e-23
1.50947e-22
-1.95745e-23
8.27936e-23
-1.95816e-23
2.15872e-23
-2.01437e-23
8.16028e-23
-1.61035e-23
1.44525e-22
-2.229e-23
-1.89388e-23
-1.94156e-23
4.71524e-23
-2.42165e-23
1.08192e-22
-2.35081e-23
1.29556e-22
-3.12545e-23
8.83567e-23
-2.46951e-23
1.66358e-22
-1.80993e-23
1.33165e-22
-1.9367e-23
8.8671e-23
-1.51427e-23
1.85627e-22
-1.10175e-23
8.32509e-23
-7.69502e-24
1.74125e-22
-6.84413e-24
1.27515e-22
-1.98692e-24
1.16946e-22
-1.22367e-25
8.37104e-23
1.04866e-24
1.3545e-22
5.64692e-24
5.53359e-23
1.40698e-23
1.32478e-22
1.01117e-23
-3.00337e-23
7.47337e-24
1.34459e-23
8.51617e-24
5.96818e-25
3.83098e-24
-8.70696e-23
1.12612e-24
-4.97168e-23
-3.92311e-24
-7.09439e-23
-2.16739e-24
1.37712e-22
-1.75433e-24
-1.43301e-23
-3.15235e-24
9.6039e-23
-3.75575e-24
1.26482e-23
5.28319e-23
-5.55894e-24
1.02294e-22
-9.81021e-24
2.14768e-22
-6.82495e-24
1.34449e-22
-3.5933e-24
4.36678e-23
-1.2742e-23
-2.04355e-23
-1.10979e-23
9.29364e-23
-1.10398e-23
1.67801e-22
-1.24885e-23
2.60507e-23
-2.45602e-23
1.07089e-22
-1.57436e-23
4.46092e-23
-1.61108e-23
1.34325e-22
-2.04222e-23
1.08153e-22
-1.14091e-23
1.14536e-22
-1.09763e-23
1.47454e-22
-1.90502e-23
5.17613e-23
-1.95167e-23
2.06621e-23
-1.92538e-23
6.17968e-23
-1.72185e-23
1.40469e-22
-2.14115e-23
-1.00738e-23
-1.85605e-23
4.72701e-23
-2.40585e-23
5.16851e-23
-2.32793e-23
1.08545e-22
-3.06901e-23
3.20986e-23
-2.44282e-23
1.54104e-22
-1.79211e-23
1.25649e-22
-1.95422e-23
1.49578e-22
-1.50603e-23
1.806e-22
-1.05109e-23
7.73486e-23
-8.44305e-24
1.71796e-22
-6.04136e-24
1.20112e-22
-2.43728e-24
1.4767e-22
7.54776e-25
8.25129e-23
7.67103e-25
1.69297e-22
5.75774e-24
1.06043e-22
1.31994e-23
1.18943e-22
1.02506e-23
-3.85425e-23
7.84085e-24
3.10978e-23
8.29018e-24
-2.61968e-24
3.64987e-24
-8.07676e-23
1.2602e-24
-5.00617e-23
-2.33197e-24
-6.98579e-23
-2.4316e-24
6.25462e-23
-2.43164e-24
-6.04691e-23
-2.4557e-24
9.98825e-23
-4.95385e-24
-2.62107e-23
8.23144e-23
-1.8242e-23
1.96382e-22
-4.46215e-24
8.64169e-23
-9.80347e-24
2.09152e-22
-7.26361e-24
1.2214e-22
-3.34447e-24
3.44108e-23
-1.17756e-23
-1.31856e-23
-9.22775e-24
8.74382e-23
-1.08393e-23
1.31389e-22
-1.2869e-23
2.36228e-23
-2.38366e-23
1.12856e-22
-1.57006e-23
3.74994e-23
-1.52747e-23
1.75417e-22
-1.9464e-23
1.26823e-22
-1.10424e-23
1.01187e-22
-1.10882e-23
1.45353e-22
-1.87983e-23
2.35725e-23
-1.93515e-23
1.8598e-23
-1.82608e-23
5.03486e-23
-1.82208e-23
1.33419e-22
-2.0685e-23
2.852e-23
-1.82185e-23
5.39738e-23
-2.34017e-23
6.22927e-23
-2.34139e-23
5.93953e-23
-2.98895e-23
3.6884e-23
-2.42469e-23
1.40403e-22
-1.71524e-23
1.17583e-22
-1.97896e-23
8.92138e-23
-1.54111e-23
1.84568e-22
-9.98041e-24
1.24734e-22
-9.1075e-24
1.69505e-22
-6.00388e-24
1.48683e-22
-2.95689e-24
1.42668e-22
1.1038e-24
4.24023e-23
9.66255e-25
1.96738e-22
4.91808e-24
9.43585e-23
1.23615e-23
1.72157e-22
1.06049e-23
-5.01984e-23
6.68554e-24
4.26181e-23
8.13799e-24
-5.88999e-25
3.59603e-24
-7.54835e-23
1.53603e-24
-5.12206e-23
-2.3184e-24
-7.38267e-23
-1.55721e-24
-2.64413e-26
-2.19526e-24
-6.34043e-23
-2.5658e-24
1.75012e-22
-4.5678e-24
-2.46154e-23
1.17699e-22
-1.80182e-23
2.04276e-22
-4.2922e-24
1.62431e-22
-1.00334e-23
2.08213e-22
-7.94704e-24
1.33172e-22
-3.06426e-24
5.75258e-23
-1.08652e-23
-4.12601e-23
-9.08765e-24
1.25432e-22
-9.61334e-24
1.29407e-22
-1.3543e-23
2.05056e-23
-2.24592e-23
1.12696e-22
-1.56027e-23
2.99538e-23
-1.48712e-23
1.96077e-22
-1.96825e-23
9.2022e-23
-1.08285e-23
8.89909e-23
-1.17757e-23
1.45816e-22
-1.84738e-23
1.5844e-23
-1.91342e-23
6.0986e-23
-1.73576e-23
3.94046e-23
-1.83462e-23
1.26755e-22
-2.05189e-23
1.96589e-23
-1.77595e-23
7.26001e-23
-2.34706e-23
3.58356e-23
-2.2937e-23
5.42392e-23
-2.92803e-23
-1.89887e-23
-2.38535e-23
1.73807e-22
-1.72711e-23
1.1032e-22
-1.9274e-23
8.62315e-23
-1.54092e-23
1.27949e-22
-9.78846e-24
1.40492e-22
-8.70879e-24
1.65655e-22
-5.65625e-24
1.41535e-22
-3.05228e-24
1.41275e-22
1.63841e-24
4.80256e-24
9.568e-25
1.92575e-22
4.36394e-24
8.35591e-23
1.11293e-23
1.60184e-22
1.08718e-23
-8.31342e-23
6.19891e-24
2.37396e-23
8.28471e-24
4.29546e-24
3.22928e-24
-6.74719e-23
2.30234e-24
-5.69186e-23
-2.35605e-24
-7.75415e-23
-1.13285e-24
6.33915e-23
-1.10958e-24
-6.65762e-23
-2.67839e-24
1.62649e-22
-5.15191e-24
-5.82325e-23
1.4968e-22
-1.98819e-23
-5.68911e-23
-1.78822e-23
8.85366e-23
-3.95717e-24
1.41074e-22
-9.81842e-24
2.06339e-22
-8.53252e-24
1.59229e-22
-2.38486e-24
1.42737e-22
-9.74998e-24
-3.35378e-23
-8.81736e-24
1.18708e-22
-1.01211e-23
1.11826e-22
-1.35897e-23
1.87704e-23
-2.212e-23
1.13542e-22
-1.52469e-23
3.9231e-23
-1.49151e-23
1.92901e-22
-1.95605e-23
3.31263e-23
-1.00733e-23
1.43008e-22
-1.24622e-23
9.04479e-23
-1.78836e-23
1.52228e-23
-1.9067e-23
6.50988e-23
-1.65708e-23
6.4791e-23
-1.86701e-23
5.55522e-23
-1.99801e-23
4.88203e-24
-1.77375e-23
7.17e-23
-2.3205e-23
4.15737e-23
-2.31396e-23
4.28181e-23
-2.77814e-23
-1.50225e-23
-2.40235e-23
1.70193e-22
-1.6795e-23
1.64025e-22
-1.9533e-23
8.89769e-23
-1.49056e-23
1.22519e-22
-9.67084e-24
1.33158e-22
-8.35203e-24
1.62999e-22
-6.23737e-24
1.36675e-22
-2.96539e-24
1.76806e-22
2.41922e-24
5.01584e-23
1.30195e-24
1.57021e-22
4.70635e-24
7.69412e-23
9.74754e-24
1.46443e-22
1.16727e-23
-1.13013e-23
5.83697e-24
-1.89454e-23
8.09418e-24
4.43155e-23
2.73074e-24
-5.3658e-23
2.06068e-24
-6.48129e-23
-1.4676e-24
-7.72432e-23
-9.69269e-25
6.47541e-23
-3.35684e-25
3.92135e-23
-3.69071e-24
1.60823e-22
-3.98017e-24
-5.68557e-23
1.17859e-22
-2.01123e-23
-5.32874e-23
-1.59954e-23
8.54189e-23
-3.55249e-24
1.30683e-22
-9.45793e-24
1.63972e-22
-8.42635e-24
8.01775e-23
-2.38854e-24
1.14349e-22
-8.73289e-24
-2.63574e-23
-8.64486e-24
1.14444e-22
-9.7486e-24
9.56824e-23
-1.32297e-23
2.13932e-23
-2.17035e-23
4.85671e-23
-1.43364e-23
3.63435e-23
-1.53537e-23
2.02275e-22
-1.92085e-23
2.24957e-23
-1.03663e-23
1.3543e-22
-1.23416e-23
9.07876e-23
-1.73836e-23
1.75762e-23
-1.87919e-23
7.26713e-23
-1.64844e-23
7.64264e-23
-1.85681e-23
5.528e-23
-1.93609e-23
1.36099e-23
-1.77242e-23
4.06563e-23
-2.31365e-23
5.01616e-23
-2.32444e-23
4.24658e-23
-2.63099e-23
-1.41775e-23
-2.3713e-23
1.27324e-22
-1.69754e-23
1.5492e-22
-1.97408e-23
5.447e-23
-1.4317e-23
1.14216e-22
-9.58134e-24
1.28236e-22
-8.15073e-24
1.60453e-22
-5.58228e-24
1.30736e-22
-3.18209e-24
2.13851e-22
2.46423e-24
4.58449e-23
9.65463e-25
1.61429e-22
4.61993e-24
1.36523e-22
8.56318e-24
1.56817e-22
1.16914e-23
2.72855e-23
6.44861e-24
3.74281e-23
7.46969e-24
4.97375e-23
2.37409e-24
3.80039e-24
1.7877e-24
-5.26312e-24
-7.05698e-25
-3.70772e-23
-6.09873e-25
6.04553e-23
-6.1256e-25
3.68712e-23
-4.50713e-24
1.58507e-22
-3.86947e-24
-1.30714e-23
6.21368e-23
-2.00567e-23
-5.22473e-23
-1.51363e-23
8.51428e-23
-3.51961e-24
1.10927e-22
-9.38755e-24
1.59321e-22
-8.36638e-24
1.10216e-22
-2.25406e-24
1.06907e-22
-8.05077e-24
-6.57902e-23
-8.38883e-24
1.0828e-22
-9.37988e-24
9.45125e-23
-1.33042e-23
-5.1184e-23
-2.08343e-23
5.02446e-23
-1.37589e-23
3.02036e-23
-1.56193e-23
1.71824e-22
-1.80804e-23
3.08693e-23
-1.06562e-23
1.42323e-22
-1.19039e-23
5.00122e-23
-1.70818e-23
2.26543e-23
-1.83806e-23
9.63203e-23
-1.65631e-23
7.22592e-23
-1.84864e-23
5.36118e-23
-1.90169e-23
1.79563e-23
-1.71899e-23
4.42763e-23
-2.32271e-23
-6.92879e-24
-2.31412e-23
4.0953e-23
-2.52952e-23
2.53557e-23
-2.31329e-23
1.24827e-22
-1.74356e-23
1.6197e-22
-1.95252e-23
5.89451e-23
-1.40866e-23
1.40309e-22
-9.36101e-24
1.25558e-22
-8.10324e-24
1.59305e-22
-5.90628e-24
8.89546e-23
-3.60092e-24
2.11573e-22
2.71979e-24
3.63422e-23
1.64033e-24
1.62594e-22
3.61685e-24
1.1859e-22
8.08156e-24
1.88238e-22
1.15151e-23
2.586e-23
6.58624e-24
2.90407e-23
8.13426e-24
4.94603e-23
1.43587e-24
-4.34651e-23
2.07904e-24
-1.26157e-23
2.0128e-25
2.57317e-23
4.64916e-26
5.67119e-23
-7.4074e-25
3.28799e-23
-5.36269e-24
1.00115e-22
-5.13303e-24
4.80541e-23
7.88492e-23
-2.00537e-23
-8.47652e-23
-1.41713e-23
1.4707e-22
-3.09464e-24
8.87321e-23
-9.46947e-24
1.13749e-22
-8.0615e-24
1.25503e-22
-1.87858e-24
1.29357e-22
-7.80253e-24
-6.08672e-23
-7.75304e-24
1.4341e-22
-9.89884e-24
5.77108e-23
-1.33188e-23
-6.17073e-23
-1.99196e-23
4.89139e-23
-1.36351e-23
4.1225e-23
-1.52794e-23
1.79375e-22
-1.82555e-23
3.9477e-23
-1.08032e-23
1.00324e-22
-1.1555e-23
4.81814e-23
-1.64401e-23
2.45352e-23
-1.8378e-23
1.1269e-22
-1.61933e-23
6.83705e-23
-1.85717e-23
5.73981e-23
-1.87868e-23
2.02971e-23
-1.71422e-23
4.44093e-23
-2.28368e-23
2.29011e-23
-2.27366e-23
4.21466e-23
-2.46665e-23
2.44761e-23
-2.26086e-23
1.21551e-22
-1.7851e-23
1.53329e-22
-1.91058e-23
6.4866e-23
-1.39459e-23
1.19022e-22
-8.83164e-24
1.37208e-22
-8.40968e-24
1.62446e-22
-5.42354e-24
1.50074e-22
-4.2355e-24
2.11806e-22
3.25789e-24
2.38851e-23
3.08062e-24
1.64612e-22
2.88853e-24
1.12879e-22
7.06139e-24
2.21184e-22
1.24235e-23
9.18676e-23
6.08021e-24
9.07795e-24
7.55123e-24
1.15273e-23
2.15678e-24
-6.99519e-23
2.21172e-24
-1.78987e-23
2.09721e-25
6.21613e-23
5.71171e-25
4.95759e-23
-1.24562e-24
-3.64132e-23
-5.01073e-24
9.68879e-23
-5.6499e-24
8.38477e-23
7.848e-23
-1.9842e-23
-5.12119e-23
-1.3621e-23
2.34093e-22
-2.65258e-24
6.90336e-23
-8.88676e-24
1.07756e-22
-7.69034e-24
5.695e-23
-2.44334e-24
5.24822e-23
-7.48688e-24
-8.92541e-23
-7.06287e-24
1.39967e-22
-1.023e-23
-6.17786e-24
-1.25556e-23
-1.09122e-22
-1.92477e-23
7.79031e-23
-1.27654e-23
3.98609e-23
-1.55913e-23
1.21597e-22
-1.82194e-23
5.66733e-25
-1.11006e-23
7.48057e-23
-1.1051e-23
4.72759e-23
-1.57759e-23
2.29666e-23
-1.83042e-23
8.44103e-23
-1.59191e-23
6.56515e-23
-1.86764e-23
6.18717e-23
-1.85398e-23
2.26731e-23
-1.6865e-23
4.47006e-23
-2.26846e-23
-1.06425e-23
-2.23241e-23
4.41705e-23
-2.3988e-23
2.68695e-23
-2.22855e-23
8.38814e-23
-1.77984e-23
1.47606e-22
-1.91829e-23
7.05487e-23
-1.33166e-23
1.42273e-22
-8.93955e-24
1.35618e-22
-7.58794e-24
1.63921e-22
-5.5959e-24
1.42621e-22
-4.41009e-24
2.49605e-22
3.23047e-24
8.19504e-23
3.83837e-24
1.79202e-22
2.41324e-24
4.17012e-23
5.95202e-24
2.5306e-22
1.23942e-23
1.49482e-22
6.05068e-24
2.00244e-23
7.91913e-24
7.44721e-23
1.90711e-24
-1.07399e-22
2.51386e-24
4.69022e-23
2.67078e-25
5.53843e-23
1.75067e-25
4.09744e-23
-6.32918e-25
-7.73532e-23
-4.89186e-24
9.60793e-23
-6.18126e-24
5.39968e-23
3.94374e-23
-2.29246e-23
7.79871e-23
-1.8427e-23
4.91428e-23
-1.44815e-23
2.2252e-22
-2.07541e-24
1.42532e-22
-8.85901e-24
6.89143e-23
-8.05155e-24
5.54395e-23
-1.74971e-24
1.07471e-22
-6.11158e-24
-8.28538e-23
-7.28555e-24
1.79757e-22
-1.05352e-23
-7.9468e-24
-1.14381e-23
-5.48654e-23
-1.94981e-23
7.70008e-23
-1.2369e-23
1.17351e-22
-1.55088e-23
1.31386e-22
-1.83058e-23
-1.02902e-23
-1.08668e-23
6.53585e-23
-1.05303e-23
3.88929e-24
-1.5289e-23
2.43515e-23
-1.82779e-23
9.20437e-23
-1.5551e-23
6.46497e-23
-1.88944e-23
2.46668e-24
-1.82198e-23
2.64063e-23
-1.68262e-23
5.82958e-23
-2.23361e-23
-6.83553e-24
-2.20549e-23
4.87237e-23
-2.33752e-23
2.94275e-23
-2.18979e-23
8.26379e-23
-1.78142e-23
1.37022e-22
-1.86669e-23
8.94976e-24
-1.33679e-23
1.292e-22
-8.43286e-24
1.38061e-22
-7.42805e-24
1.61422e-22
-5.39767e-24
1.32244e-22
-4.61403e-24
2.49982e-22
3.36921e-24
7.93135e-24
3.44325e-24
1.41235e-22
3.59253e-24
4.18017e-23
6.01371e-24
2.44857e-22
1.09015e-23
1.4824e-22
6.06389e-24
-3.73909e-23
7.07606e-24
7.44687e-23
2.77262e-24
-1.01944e-22
3.19122e-24
4.22901e-23
-1.91148e-25
8.38957e-23
-1.33818e-25
-7.11563e-24
1.01237e-25
-7.9413e-23
-4.97396e-24
-3.33379e-24
-6.64095e-24
5.67384e-23
4.06647e-23
-1.57928e-23
6.25799e-23
-2.2102e-23
1.08225e-22
-1.85308e-23
4.6336e-23
-1.45016e-23
1.71963e-22
-2.34647e-24
1.6719e-22
-8.82921e-24
2.10878e-23
-7.23031e-24
5.38804e-23
-1.44499e-24
1.09762e-22
-5.47046e-24
-7.74467e-23
-7.18042e-24
1.83487e-22
-1.04467e-23
-2.43672e-23
-1.09534e-23
-2.79653e-23
-1.88063e-23
9.67632e-24
-1.27841e-23
8.00674e-23
-1.51871e-23
1.50683e-22
-1.83845e-23
-1.34756e-23
-1.05521e-23
5.3125e-23
-9.58728e-24
-1.80325e-24
-1.505e-23
2.6424e-23
-1.77796e-23
9.83027e-23
-1.58543e-23
6.26901e-23
-1.84655e-23
2.07009e-23
-1.79386e-23
8.4976e-23
-1.67978e-23
5.73013e-23
-2.20613e-23
1.85351e-24
-2.17442e-23
5.57624e-23
-2.29712e-23
2.99022e-23
-2.14747e-23
4.63521e-23
-1.83343e-23
1.0395e-22
-1.79335e-23
8.09612e-24
-1.32075e-23
8.61288e-23
-8.48016e-24
1.39717e-22
-6.80929e-24
1.52982e-22
-5.53556e-24
1.20619e-22
-5.34639e-24
2.16924e-22
3.44964e-24
-4.83064e-24
4.02904e-24
1.50197e-22
4.02428e-24
8.7782e-23
5.38623e-24
1.9782e-22
1.0301e-23
1.40237e-22
6.09565e-24
-9.35831e-23
6.74492e-24
7.76205e-23
3.14551e-24
-9.60842e-23
3.61521e-24
3.12473e-24
-7.514e-25
8.16095e-23
-3.15889e-25
-2.22167e-23
2.36124e-26
-2.95743e-23
-4.25818e-24
-1.43638e-23
-7.14284e-24
2.03579e-23
8.23432e-24
-1.58058e-23
-6.64446e-24
-2.16657e-23
5.28791e-23
-1.92081e-23
4.60141e-23
-1.36691e-23
1.64132e-22
-3.11162e-24
1.48679e-22
-8.26011e-24
1.3223e-23
-6.86939e-24
1.13435e-22
-1.09463e-24
1.60398e-22
-5.447e-24
-6.88691e-23
-7.31492e-24
1.90834e-22
-9.94994e-24
-2.49411e-23
-1.10047e-23
-3.45549e-23
-1.7649e-23
1.14302e-23
-1.30602e-23
4.49057e-23
-1.54145e-23
1.14836e-22
-1.85972e-23
-2.00367e-23
-1.04406e-23
1.06243e-22
-8.84457e-24
-4.22757e-23
-1.45836e-23
3.06822e-23
-1.75431e-23
1.02958e-22
-1.61303e-23
4.66857e-23
-1.76191e-23
2.69836e-23
-1.82224e-23
2.25851e-23
-1.64564e-23
5.67564e-23
-2.19263e-23
-3.17927e-23
-2.14777e-23
5.98036e-23
-2.27021e-23
3.08108e-23
-2.11454e-23
4.51568e-23
-1.84748e-23
7.04572e-23
-1.74042e-23
4.30487e-24
-1.31905e-23
8.00853e-23
-7.88889e-24
1.36134e-22
-6.63256e-24
1.30277e-22
-5.26181e-24
7.23945e-23
-6.17448e-24
1.5925e-22
4.10781e-24
2.26714e-23
4.6855e-24
9.35825e-23
4.10028e-24
1.05275e-22
4.82511e-24
1.63526e-22
9.51734e-24
2.08162e-22
6.55776e-24
-8.59745e-23
7.01705e-24
8.05779e-23
3.68028e-24
-2.59108e-23
4.01974e-24
-6.68671e-25
-1.61641e-24
4.45846e-23
-2.23887e-25
3.18833e-23
-3.2573e-25
-7.22213e-23
-3.72783e-24
-1.70006e-23
-7.08375e-24
-3.89014e-23
5.41346e-23
-1.54012e-23
-3.24752e-24
1.27152e-23
-2.13277e-23
-3.24247e-23
-1.95446e-23
1.77582e-23
-1.31165e-23
2.40299e-22
-3.80229e-24
1.20086e-22
-7.79906e-24
8.03036e-24
-6.75096e-24
7.59101e-23
-4.95527e-25
1.68579e-22
-4.52215e-24
-8.75374e-23
-7.65739e-24
2.01447e-22
-9.94881e-24
9.53874e-24
-1.06127e-23
-3.93459e-23
-1.65879e-23
1.36622e-23
-1.25058e-23
4.56305e-23
-1.56397e-23
1.20923e-22
-1.78444e-23
-2.83635e-23
-1.10833e-23
8.11166e-23
-7.76663e-24
1.55877e-23
-1.40298e-23
3.55741e-23
-1.72589e-23
1.08727e-22
-1.63245e-23
4.70672e-23
-1.7232e-23
3.09888e-23
-1.80499e-23
2.04457e-23
-1.64093e-23
6.56352e-23
-2.15652e-23
-2.57228e-23
-2.12661e-23
6.15762e-23
-2.24242e-23
2.92822e-23
-2.11671e-23
4.32133e-23
-1.8397e-23
7.30977e-23
-1.70957e-23
-3.98665e-24
-1.28332e-23
7.6191e-23
-7.40177e-24
1.3666e-22
-6.98304e-24
8.42108e-23
-5.22062e-24
1.45739e-22
-6.34148e-24
1.24922e-22
3.30345e-24
7.80877e-23
5.41545e-24
8.54178e-23
4.23069e-24
1.0158e-22
4.53799e-24
1.66117e-22
8.72221e-24
2.00619e-22
6.85543e-24
-8.38418e-23
6.82965e-24
1.14628e-22
3.38946e-24
-6.24616e-23
4.74738e-24
5.67427e-23
-1.30383e-24
4.1084e-23
-7.62977e-25
5.48477e-23
-2.0139e-25
-8.83965e-23
-3.96635e-24
-3.16294e-23
-7.16925e-24
3.03408e-23
1.28102e-22
-1.5752e-23
-6.61978e-23
1.27582e-23
-2.05379e-23
-2.992e-23
-1.90718e-23
2.25416e-23
-1.36153e-23
2.3657e-22
-3.57073e-24
1.33239e-22
-7.16771e-24
-2.79046e-23
-6.24988e-24
7.25713e-23
-3.95515e-25
2.01432e-22
-4.17962e-24
-7.16477e-23
-6.83778e-24
1.4673e-22