/*--------------------------------*- C++ -*----------------------------------*\
  =========                 |
  \\      /  F ield         | OpenFOAM: The Open Source CFD Toolbox
   \\    /   O peration     | Website:  https://openfoam.org
    \\  /    A nd           | Version:  7
     \\/     M anipulation  |
\*---------------------------------------------------------------------------*/
FoamFile
{
    version     2.0;
    format      ascii;
    class       volVectorField;
    location    "52000";
    object      U;
}
// * * * * * * * * * * * * * * * * * * * * * * * * * * * * * * * * * * * * * //

dimensions      [0 1 -1 0 0 0 0];

internalField   nonuniform List<vector> 
1762
(
(4.87462e-19 8.75093e-19 -0.0138733)
(-2.80565e-19 4.51852e-19 -0.0138487)
(1.2089e-19 1.58728e-18 -0.0138215)
(5.26458e-19 -4.58236e-19 -0.0137917)
(1.07312e-18 1.84179e-19 -0.0137596)
(-1.64912e-18 -6.89713e-20 -0.0137254)
(-1.25399e-19 7.26387e-19 -0.0136893)
(-1.46053e-18 6.48884e-19 -0.0136512)
(2.89621e-19 3.38165e-19 -0.0137866)
(-1.81674e-19 5.37738e-19 -0.0137619)
(7.11803e-20 1.60581e-18 -0.0137345)
(4.21782e-19 -5.41724e-19 -0.0137046)
(7.1004e-19 -3.18604e-19 -0.0136724)
(-2.08555e-18 -6.51825e-19 -0.0136381)
(-3.4743e-19 2.86545e-19 -0.0136018)
(-1.62327e-18 3.85917e-19 -0.0135635)
(-4.38189e-19 -1.23767e-19 -0.0137883)
(-1.97669e-20 9.19058e-19 -0.0137851)
(-1.48257e-18 -8.80425e-19 -0.0137786)
(-1.5353e-18 6.91193e-19 -0.0137688)
(-9.23548e-19 -6.87946e-19 -0.0137559)
(-2.72113e-18 2.5155e-19 -0.0137399)
(-1.09886e-19 1.87972e-18 -0.0137209)
(6.1954e-20 -1.73529e-19 -0.0136989)
(-8.62839e-20 3.85942e-19 -0.0136741)
(8.97932e-20 1.8158e-18 -0.0136466)
(3.6343e-19 -4.61824e-19 -0.0136165)
(5.5274e-19 -3.76515e-19 -0.0135842)
(-2.42626e-18 -1.06471e-18 -0.0135497)
(-5.84688e-19 -1.6655e-19 -0.0135133)
(-2.00298e-18 -2.42829e-19 -0.0134748)
(-1.90659e-18 6.53955e-19 -0.0136901)
(-2.13859e-18 -1.62654e-19 -0.0136966)
(-5.06307e-19 1.92002e-18 -0.0136999)
(-4.6571e-19 -9.1327e-20 -0.0136999)
(-6.98201e-20 6.01962e-19 -0.0136966)
(-1.54511e-18 -8.8388e-19 -0.0136901)
(-1.53781e-18 7.34264e-19 -0.0136803)
(-9.83504e-19 -7.02512e-19 -0.0136673)
(-2.70036e-18 -2.17466e-19 -0.0136513)
(-9.89902e-20 1.74302e-18 -0.0136321)
(7.46536e-20 1.22236e-20 -0.01361)
(-4.94587e-20 1.74832e-20 -0.0135851)
(1.36359e-19 2.00599e-18 -0.0135575)
(2.10234e-19 -5.22508e-19 -0.0135274)
(4.99152e-19 -2.24585e-19 -0.0134949)
(-2.5868e-18 -1.14096e-18 -0.0134602)
(-8.64646e-19 -6.26763e-19 -0.0134236)
(-2.08476e-18 -6.14418e-19 -0.0133851)
(-2.02394e-18 6.7099e-19 -0.0136005)
(-2.10168e-18 1.6334e-19 -0.013607)
(-4.97519e-19 2.45418e-18 -0.0136103)
(-5.7721e-19 1.34353e-19 -0.0136103)
(-1.42633e-19 2.93949e-19 -0.013607)
(-1.56889e-18 -1.02312e-18 -0.0136005)
(-1.48045e-18 1.06277e-18 -0.0135907)
(-1.0766e-18 -5.99956e-19 -0.0135776)
(-2.48847e-18 4.76227e-20 -0.0135615)
(-2.84073e-20 1.57961e-18 -0.0135423)
(1.56097e-19 4.09602e-19 -0.0135201)
(-1.10617e-19 -5.26241e-19 -0.0134951)
(3.70055e-21 1.85517e-18 -0.0134673)
(-9.25084e-20 -8.46905e-19 -0.0134371)
(2.40942e-19 -4.45362e-19 -0.0134044)
(-2.6861e-18 -1.03146e-18 -0.0133696)
(-7.83197e-19 -6.11049e-19 -0.0133329)
(-1.90795e-18 -7.29538e-19 -0.0132941)
(-2.08888e-18 8.95776e-19 -0.0135097)
(-2.05744e-18 4.39991e-19 -0.0135163)
(-4.85373e-19 2.35259e-18 -0.0135196)
(-7.21445e-19 4.46394e-19 -0.0135196)
(-2.3488e-19 1.05009e-19 -0.0135163)
(-1.53142e-18 -9.94167e-19 -0.0135097)
(-1.47858e-18 9.60112e-19 -0.0134999)
(-1.10105e-18 -4.29083e-19 -0.0134868)
(-2.18035e-18 7.55e-19 -0.0134706)
(4.83191e-20 1.60634e-18 -0.0134513)
(1.30542e-19 6.59882e-19 -0.013429)
(-1.63229e-19 -9.08611e-19 -0.0134039)
(-2.6034e-19 1.38877e-18 -0.013376)
(-2.6017e-19 -8.94025e-19 -0.0133456)
(-1.08351e-19 -8.96453e-19 -0.0133128)
(-2.76058e-18 -1.05907e-18 -0.0132778)
(-3.91399e-19 -1.88188e-19 -0.013241)
(-1.57602e-18 -5.94829e-19 -0.0132021)
(-2.12267e-18 9.57864e-19 -0.0134177)
(-2.05165e-18 4.12339e-19 -0.0134244)
(-4.39323e-19 1.74501e-18 -0.0134277)
(-8.44148e-19 6.44972e-19 -0.0134277)
(-3.29158e-19 1.66719e-20 -0.0134244)
(-1.50146e-18 -8.31433e-19 -0.0134177)
(-1.5016e-18 7.14679e-19 -0.0134078)
(-1.07869e-18 -3.79859e-19 -0.0133947)
(-2.07261e-18 6.98301e-19 -0.0133784)
(1.49353e-19 1.78999e-18 -0.0133591)
(4.17275e-21 6.88387e-19 -0.0133367)
(-6.64669e-20 -8.36342e-19 -0.0133115)
(-5.47794e-19 8.4375e-19 -0.0132835)
(-2.62308e-19 -6.66335e-19 -0.0132529)
(-4.61052e-19 -1.2874e-18 -0.01322)
(-2.57148e-18 -7.94891e-19 -0.0131849)
(-4.98388e-20 9.1868e-20 -0.0131478)
(-1.32917e-18 -4.67979e-19 -0.0131088)
(-2.0204e-18 5.57698e-19 -0.0133245)
(-2.12556e-18 8.88439e-19 -0.0133312)
(-3.74775e-19 1.10184e-18 -0.0133345)
(-9.27751e-19 3.89349e-19 -0.0133345)
(-4.33399e-19 -3.17335e-19 -0.0133312)
(-1.46467e-18 -6.55567e-19 -0.0133245)
(-1.48955e-18 7.71615e-19 -0.0133146)
(-1.07815e-18 -2.41677e-19 -0.0133014)
(-2.02886e-18 3.5143e-19 -0.0132851)
(2.49969e-19 1.87802e-18 -0.0132656)
(-2.83692e-19 2.96956e-19 -0.0132432)
(1.17151e-19 -4.86724e-19 -0.0132178)
(-7.52041e-19 4.68377e-19 -0.0131897)
(-3.38001e-19 -5.69199e-19 -0.013159)
(-4.69975e-19 -1.22356e-18 -0.0131259)
(-2.04854e-18 -1.7159e-19 -0.0130907)
(1.30925e-19 2.54374e-19 -0.0130535)
(-1.29763e-18 -5.35364e-19 -0.0130142)
(-1.82984e-18 -1.57345e-19 -0.01323)
(-2.2144e-18 1.56955e-18 -0.0132367)
(-4.28537e-19 7.27561e-19 -0.0132401)
(-1.02571e-18 -2.43409e-19 -0.0132401)
(-4.81479e-19 -6.5049e-19 -0.0132367)
(-1.38858e-18 -5.6936e-19 -0.01323)
(-1.44378e-18 9.75858e-19 -0.0132201)
(-1.09922e-18 -1.43871e-19 -0.0132068)
(-1.91554e-18 3.24005e-19 -0.0131904)
(2.97829e-19 1.93873e-18 -0.0131709)
(-5.27288e-19 -7.51427e-20 -0.0131483)
(3.19602e-19 -1.88985e-19 -0.0131228)
(-7.97193e-19 5.07426e-19 -0.0130946)
(-5.10957e-19 -7.66607e-19 -0.0130638)
(-2.04388e-20 -5.1857e-19 -0.0130306)
(-1.84103e-18 8.34272e-20 -0.0129951)
(-3.53631e-20 5.1927e-20 -0.0129578)
(-1.33697e-18 -7.51183e-19 -0.0129183)
(-1.67408e-18 -7.2121e-19 -0.0131342)
(-2.22964e-18 1.75751e-18 -0.0131409)
(-5.57862e-19 8.75927e-19 -0.0131442)
(-1.10636e-18 -5.68987e-19 -0.0131442)
(-4.53773e-19 -5.96209e-19 -0.0131409)
(-1.29326e-18 -5.42169e-19 -0.0131342)
(-1.45978e-18 8.86065e-19 -0.0131242)
(-1.1782e-18 -2.32635e-19 -0.0131109)
(-1.73833e-18 4.73648e-19 -0.0130944)
(3.36038e-19 2.00713e-18 -0.0130747)
(-6.56013e-19 -1.486e-19 -0.0130521)
(4.54939e-19 -9.89917e-20 -0.0130265)
(-8.13333e-19 6.86647e-19 -0.0129982)
(-6.33941e-19 -9.70494e-19 -0.0129672)
(4.6106e-19 1.92476e-19 -0.0129338)
(-1.96175e-18 3.3824e-20 -0.0128982)
(-2.18445e-19 -1.51485e-19 -0.0128607)
(-1.26897e-18 -9.50451e-19 -0.0128211)
(-1.5506e-18 -1.15356e-18 -0.0130369)
(-2.17385e-18 1.64327e-18 -0.0130436)
(-6.95562e-19 1.06684e-18 -0.013047)
(-1.20002e-18 -5.08738e-19 -0.013047)
(-4.11442e-19 -4.55922e-19 -0.0130436)
(-1.24202e-18 -5.47896e-19 -0.0130369)
(-1.53053e-18 5.43262e-19 -0.0130268)
(-1.24598e-18 -4.98759e-19 -0.0130135)
(-1.50849e-18 7.72158e-19 -0.0129969)
(2.81443e-19 1.87196e-18 -0.0129772)
(-7.92946e-19 -2.59548e-19 -0.0129545)
(5.59807e-19 -1.16069e-19 -0.0129288)
(-8.85835e-19 7.91107e-19 -0.0129003)
(-4.5425e-19 -7.39825e-19 -0.0128692)
(7.41698e-19 6.00344e-19 -0.0128357)
(-1.9448e-18 2.77398e-19 -0.0127999)
(4.30526e-20 1.96344e-19 -0.0127622)
(-8.98224e-19 -7.93932e-19 -0.0127224)
(-4.02196e-19 -1.71727e-19 -0.0129281)
(-1.45766e-18 -1.49592e-18 -0.0129382)
(-2.05903e-18 1.07807e-18 -0.0129449)
(-7.97732e-19 8.18216e-19 -0.0129483)
(-1.27916e-18 -4.54084e-19 -0.0129483)
(-3.69343e-19 -2.15997e-19 -0.0129449)
(-1.21133e-18 -5.73806e-19 -0.0129382)
(-1.55995e-18 6.02213e-19 -0.0129281)
(-1.29738e-18 -8.56214e-19 -0.0129147)
(-1.34524e-18 8.01235e-19 -0.012898)
(1.2801e-19 1.54865e-18 -0.0128782)
(-1.00097e-18 -5.84971e-19 -0.0128554)
(6.77618e-19 -1.44589e-19 -0.0128296)
(-1.13744e-18 4.47927e-19 -0.012801)
(-1.94087e-19 -3.92384e-19 -0.0127698)
(7.85044e-19 6.27485e-19 -0.0127361)
(-1.54733e-18 1.01053e-18 -0.0127001)
(4.43312e-19 7.20226e-19 -0.0126622)
(-3.03598e-19 -2.63104e-19 -0.0126222)
(-5.41381e-19 -1.75446e-19 -0.0128278)
(-1.48848e-18 -1.16826e-18 -0.0128379)
(-1.94298e-18 2.48468e-19 -0.0128447)
(-8.49568e-19 4.5317e-19 -0.0128481)
(-1.32021e-18 -6.45148e-19 -0.0128481)
(-3.14261e-19 1.3787e-19 -0.0128447)
(-1.17025e-18 -5.02219e-19 -0.0128379)
(-1.58491e-18 7.93593e-19 -0.0128278)
(-1.27085e-18 -7.22399e-19 -0.0128143)
(-1.21616e-18 7.18139e-19 -0.0127976)
(3.86655e-20 1.48045e-18 -0.0127777)
(-1.19689e-18 -9.58253e-19 -0.0127548)
(8.90797e-19 7.5755e-20 -0.0127288)
(-1.67433e-18 -4.60296e-19 -0.0127001)
(-1.16748e-19 -4.65856e-19 -0.0126687)
(6.92204e-19 3.45477e-19 -0.0126349)
(-1.34687e-18 1.42416e-18 -0.0125987)
(6.48358e-19 1.01575e-18 -0.0125607)
(1.11805e-19 1.96804e-19 -0.0125205)
(-5.99381e-19 -1.42072e-19 -0.0127258)
(-1.62493e-18 -4.96088e-19 -0.012736)
(-1.91737e-18 -3.02736e-19 -0.0127428)
(-8.76387e-19 1.65505e-19 -0.0127463)
(-1.31442e-18 -6.29762e-19 -0.0127463)
(-2.42162e-19 2.81781e-19 -0.0127428)
(-1.11722e-18 -2.13676e-19 -0.012736)
(-1.6011e-18 9.05442e-19 -0.0127258)
(-1.19742e-18 -4.11809e-19 -0.0127123)
(-9.84081e-19 1.08221e-18 -0.0126955)
(6.13475e-21 1.67094e-18 -0.0126756)
(-1.21829e-18 -9.05789e-19 -0.0126525)
(1.10113e-18 4.17241e-19 -0.0126265)
(-2.11107e-18 -1.07473e-18 -0.0125976)
(1.0669e-19 -3.82008e-19 -0.0125661)
(4.41003e-19 -2.0875e-19 -0.012532)
(-1.55332e-18 1.19917e-18 -0.0124957)
(7.15056e-19 1.09982e-18 -0.0124575)
(2.9516e-19 4.89189e-19 -0.0124171)
(-5.39907e-19 -3.60515e-19 -0.0126222)
(-1.69209e-18 -4.83439e-19 -0.0126325)
(-1.96457e-18 -5.31929e-19 -0.0126393)
(-8.72432e-19 1.48691e-19 -0.0126427)
(-1.2934e-18 -4.15625e-19 -0.0126427)
(-1.74844e-19 2.75246e-19 -0.0126393)
(-1.06859e-18 -6.03748e-20 -0.0126325)
(-1.62501e-18 1.08934e-18 -0.0126222)
(-1.16532e-18 -4.17854e-19 -0.0126086)
(-6.67662e-19 1.72828e-18 -0.0125918)
(-1.14478e-19 1.65749e-18 -0.0125717)
(-1.06558e-18 -4.32535e-19 -0.0125485)
(1.20487e-18 6.01664e-19 -0.0125224)
(-2.17654e-18 -9.75819e-19 -0.0124934)
(5.14044e-19 5.74815e-20 -0.0124617)
(2.87745e-19 -5.10304e-19 -0.0124275)
(-1.81506e-18 8.38877e-19 -0.012391)
(1.06178e-18 1.46506e-18 -0.0123525)
(2.84186e-19 6.33672e-19 -0.012312)
(-5.53166e-19 -3.56136e-19 -0.0125168)
(-1.68186e-18 -1.05058e-18 -0.0125271)
(-2.00008e-18 -3.97137e-19 -0.012534)
(-8.68584e-19 6.25563e-19 -0.0125374)
(-1.28351e-18 -3.50395e-19 -0.0125374)
(-1.17372e-19 2.29669e-19 -0.012534)
(-1.03844e-18 -1.43115e-19 -0.0125271)
(-1.65457e-18 1.21539e-18 -0.0125168)
(-1.11132e-18 -4.76434e-19 -0.0125032)
(-4.03339e-19 2.22755e-18 -0.0124862)
(-2.9089e-19 1.50674e-18 -0.0124661)
(-9.58106e-19 -1.18266e-19 -0.0124428)
(1.08935e-18 3.34009e-19 -0.0124165)
(-2.03072e-18 -5.09792e-19 -0.0123874)
(8.16358e-19 3.38394e-19 -0.0123555)
(1.83872e-19 -6.50779e-19 -0.0123211)
(-1.83506e-18 7.27241e-19 -0.0122845)
(1.50555e-18 1.92131e-18 -0.0122458)
(9.72773e-20 6.60042e-19 -0.012205)
(-5.97401e-19 -2.92586e-19 -0.0124096)
(-1.68343e-18 -1.50353e-18 -0.0124199)
(-1.98826e-18 6.44624e-20 -0.0124268)
(-8.79544e-19 9.44186e-19 -0.0124303)
(-1.32258e-18 -3.07739e-19 -0.0124303)
(-6.9276e-20 1.10105e-19 -0.0124268)
(-1.03871e-18 -5.66557e-19 -0.0124199)
(-1.70636e-18 1.20468e-18 -0.0124096)
(-1.08701e-18 -7.47234e-19 -0.0123958)
(-3.63953e-19 1.94026e-18 -0.0123788)
(-5.26374e-19 1.24084e-18 -0.0123586)
(-8.71316e-19 2.19449e-19 -0.0123352)
(9.10876e-19 -1.45637e-19 -0.0123088)
(-1.86262e-18 -8.67322e-20 -0.0122795)
(9.41947e-19 4.05624e-19 -0.0122475)
(-2.25719e-19 -1.2709e-18 -0.0122129)
(-1.555e-18 9.80044e-19 -0.012176)
(1.60439e-18 1.96072e-18 -0.0121371)
(-7.12477e-20 6.45631e-19 -0.0120961)
(-6.54821e-19 -2.99941e-19 -0.0123003)
(-1.71007e-18 -1.485e-18 -0.0123107)
(-1.95867e-18 4.20291e-19 -0.0123177)
(-9.00023e-19 6.67652e-19 -0.0123212)
(-1.36192e-18 -2.64919e-19 -0.0123212)
(-5.73744e-20 4.52597e-20 -0.0123177)
(-1.04377e-18 -1.07677e-18 -0.0123107)
(-1.71655e-18 1.33571e-18 -0.0123003)
(-1.13686e-18 -1.15765e-18 -0.0122866)
(-3.92725e-19 1.39869e-18 -0.0122694)
(-6.84245e-19 9.60053e-19 -0.0122491)
(-6.41002e-19 9.20631e-19 -0.0122256)
(9.01974e-19 -2.03443e-19 -0.012199)
(-1.81446e-18 6.85282e-20 -0.0121696)
(1.01488e-18 5.20334e-19 -0.0121374)
(-4.5039e-19 -1.65749e-18 -0.0121027)
(-1.19767e-18 1.2425e-18 -0.0120656)
(1.27891e-18 1.51895e-18 -0.0120265)
(-2.87506e-19 5.60774e-19 -0.0119852)
(-7.18896e-19 -2.04269e-19 -0.012189)
(-1.78564e-18 -1.08289e-18 -0.0121995)
(-1.95276e-18 5.07764e-19 -0.0122065)
(-9.27771e-19 3.87607e-19 -0.01221)
(-1.38e-18 -1.7785e-19 -0.01221)
(-5.52714e-20 4.11081e-20 -0.0122065)
(-1.03447e-18 -1.67016e-18 -0.0121995)
(-1.73778e-18 1.43957e-18 -0.012189)
(-1.12146e-18 -1.15778e-18 -0.0121752)
(-3.7958e-19 9.54142e-19 -0.012158)
(-6.91594e-19 9.75896e-19 -0.0121375)
(-4.66955e-19 1.43759e-18 -0.0121139)
(1.0109e-18 9.64163e-20 -0.0120872)
(-1.86505e-18 4.16959e-20 -0.0120576)
(1.18306e-18 7.76317e-19 -0.0120253)
(-3.00572e-19 -1.47287e-18 -0.0119903)
(-1.06131e-18 1.29584e-18 -0.0119531)
(9.28468e-19 1.08337e-18 -0.0119137)
(-5.47655e-19 3.95628e-19 -0.0118722)
(-6.83992e-19 -5.07789e-19 -0.0120755)
(-1.8729e-18 -6.27773e-19 -0.012086)
(-1.9887e-18 7.36898e-19 -0.0120931)
(-9.55035e-19 3.8415e-19 -0.0120966)
(-1.38878e-18 -1.15159e-20 -0.0120966)
(-7.87903e-20 3.77944e-19 -0.0120931)
(-1.01757e-18 -2.18046e-18 -0.012086)
(-1.73513e-18 1.31054e-18 -0.0120755)
(-1.02385e-18 -6.70359e-19 -0.0120616)
(-4.10095e-19 3.7392e-19 -0.0120443)
(-6.57827e-19 9.65963e-19 -0.0120238)
(-4.22462e-19 1.61043e-18 -0.012)
(1.07067e-18 3.32683e-19 -0.0119732)
(-1.90803e-18 3.81904e-20 -0.0119434)
(1.38344e-18 1.05154e-18 -0.0119109)
(-2.13538e-19 -1.35355e-18 -0.0118758)
(-1.00071e-18 1.26621e-18 -0.0118383)
(7.41593e-19 8.67366e-19 -0.0117987)
(-4.81401e-19 6.02607e-19 -0.011757)
(-5.94909e-19 -9.64428e-19 -0.0119597)
(-1.90705e-18 -1.63369e-19 -0.0119703)
(-2.05364e-18 1.08403e-18 -0.0119773)
(-1.00323e-18 6.18437e-19 -0.0119809)
(-1.37166e-18 1.31932e-19 -0.0119809)
(-1.28424e-19 5.62038e-19 -0.0119773)
(-9.61003e-19 -2.11059e-18 -0.0119703)
(-1.69847e-18 1.16883e-18 -0.0119597)
(-9.5845e-19 -2.41114e-19 -0.0119457)
(-4.09151e-19 2.7995e-20 -0.0119284)
(-6.18352e-19 8.9444e-19 -0.0119077)
(-4.06321e-19 1.68766e-18 -0.0118838)
(9.85148e-19 2.51153e-19 -0.0118568)
(-1.86703e-18 1.8354e-19 -0.0118269)
(1.51949e-18 1.21535e-18 -0.0117942)
(-2.92153e-19 -1.47079e-18 -0.0117589)
(-8.73831e-19 1.36483e-18 -0.0117211)
(4.78852e-19 4.99826e-19 -0.0116813)
(-2.6768e-19 9.6013e-19 -0.0116393)
(-5.55765e-19 -1.00976e-18 -0.0118415)
(-1.89864e-18 1.57543e-19 -0.0118521)
(-2.10549e-18 1.15202e-18 -0.0118592)
(-1.0539e-18 6.6309e-19 -0.0118627)
(-1.38277e-18 2.89906e-19 -0.0118627)
(-1.84039e-19 5.62356e-19 -0.0118592)
(-9.07114e-19 -2.13754e-18 -0.0118521)
(-1.66271e-18 1.01232e-18 -0.0118415)
(-9.93601e-19 -2.27312e-19 -0.0118274)
(-3.00597e-19 8.05429e-20 -0.0118099)
(-4.20074e-19 1.24436e-18 -0.0117891)
(-4.34845e-19 1.71468e-18 -0.0117651)
(9.38839e-19 2.37454e-19 -0.011738)
(-1.75507e-18 4.27225e-19 -0.0117079)
(1.58124e-18 1.29836e-18 -0.011675)
(-4.62155e-19 -1.73964e-18 -0.0116394)
(-6.92738e-19 1.54378e-18 -0.0116015)
(2.21728e-19 1.43762e-19 -0.0115614)
(-4.07158e-19 9.22897e-19 -0.0115191)
(-5.50789e-19 -8.08962e-19 -0.0117206)
(-1.81586e-18 -1.81236e-19 -0.0117313)
(-2.16686e-18 1.04766e-18 -0.0117384)
(-1.08899e-18 5.8756e-19 -0.011742)
(-1.36339e-18 5.94808e-19 -0.011742)
(-2.63998e-19 5.58132e-19 -0.0117384)
(-8.75104e-19 -2.19147e-18 -0.0117313)
(-1.64736e-18 7.3136e-19 -0.0117206)
(-1.02151e-18 -2.78706e-19 -0.0117065)
(-7.05747e-20 3.83968e-19 -0.0116889)
(-1.59255e-19 1.8389e-18 -0.011668)
(-5.26282e-19 1.65042e-18 -0.0116438)
(9.47266e-19 3.03842e-19 -0.0116165)
(-1.69496e-18 5.96535e-19 -0.0115862)
(1.63096e-18 1.41056e-18 -0.0115531)
(-6.38787e-19 -2.03981e-18 -0.0115174)
(-5.4597e-19 1.68267e-18 -0.0114792)
(-3.36095e-20 -1.75049e-19 -0.0114388)
(-6.97017e-19 6.76296e-19 -0.0113963)
(-5.82332e-19 -6.33253e-19 -0.011597)
(-1.70959e-18 -8.08e-19 -0.0116077)
(-2.19903e-18 1.13247e-18 -0.0116149)
(-1.10687e-18 7.25293e-19 -0.0116185)
(-1.36194e-18 8.83014e-19 -0.0116185)
(-3.63964e-19 3.9652e-19 -0.0116149)
(-8.15461e-19 -1.99338e-18 -0.0116077)
(-1.67822e-18 2.07949e-19 -0.011597)
(-9.91536e-19 -2.24029e-19 -0.0115828)
(1.15671e-19 4.39159e-19 -0.0115651)
(-1.19196e-19 1.84442e-18 -0.011544)
(-5.84833e-19 1.77086e-18 -0.0115197)
(1.03538e-18 5.18456e-19 -0.0114923)
(-1.66334e-18 6.87517e-19 -0.0114618)
(1.70969e-18 1.61456e-18 -0.0114285)
(-6.41463e-19 -2.0818e-18 -0.0113925)
(-5.31293e-19 1.63831e-18 -0.0113541)
(-4.64121e-20 -1.60145e-19 -0.0113134)
(-8.36994e-19 5.31317e-19 -0.0112706)
(-6.50525e-19 -3.74071e-19 -0.0114704)
(-1.6412e-18 -1.06214e-18 -0.0114812)
(-2.22252e-18 1.43667e-18 -0.0114884)
(-1.12889e-18 8.44072e-19 -0.0114921)
(-1.37196e-18 9.98282e-19 -0.0114921)
(-4.51106e-19 3.99332e-19 -0.0114884)
(-7.93535e-19 -1.8773e-18 -0.0114812)
(-1.73603e-18 -4.05367e-19 -0.0114704)
(-9.35693e-19 -1.57085e-19 -0.0114561)
(1.89367e-19 1.59709e-19 -0.0114383)
(-2.57027e-19 1.27014e-18 -0.0114171)
(-4.86786e-19 2.16356e-18 -0.0113927)
(1.17148e-18 8.50196e-19 -0.0113651)
(-1.51038e-18 1.04665e-18 -0.0113344)
(1.7447e-18 1.73721e-18 -0.0113009)
(-5.034e-19 -1.87788e-18 -0.0112646)
(-5.38717e-19 1.5535e-18 -0.0112259)
(2.17281e-19 1.82908e-19 -0.011185)
(-7.29315e-19 6.76549e-19 -0.0111418)
(-7.50287e-19 -6.39231e-20 -0.0113407)
(-1.60424e-18 -1.07161e-18 -0.0113516)
(-2.21733e-18 1.49748e-18 -0.0113589)
(-1.1591e-18 8.33768e-19 -0.0113625)
(-1.38786e-18 9.45966e-19 -0.0113625)
(-5.38312e-19 4.11456e-19 -0.0113589)
(-8.077e-19 -1.82431e-18 -0.0113516)
(-1.74846e-18 -8.00937e-19 -0.0113407)
(-8.33119e-19 6.94813e-20 -0.0113263)
(2.25502e-19 -1.46536e-19 -0.0113084)
(-3.24681e-19 7.90066e-19 -0.0112871)
(-5.18169e-19 2.16125e-18 -0.0112625)
(1.13066e-18 7.70266e-19 -0.0112347)
(-1.20805e-18 1.70665e-18 -0.0112038)
(1.60931e-18 1.61561e-18 -0.01117)
(-5.23573e-19 -1.91892e-18 -0.0111336)
(-4.12563e-19 1.62116e-18 -0.0110946)
(4.00404e-19 4.10177e-19 -0.0110534)
(-3.50565e-19 1.18212e-18 -0.0110099)
(-7.73794e-19 -1.76375e-19 -0.0112077)
(-1.61478e-18 -8.41569e-19 -0.0112186)
(-2.20196e-18 1.34815e-18 -0.0112259)
(-1.18686e-18 7.90366e-19 -0.0112296)
(-1.40144e-18 8.13234e-19 -0.0112296)
(-6.17144e-19 4.19741e-19 -0.0112259)
(-8.29458e-19 -1.75192e-18 -0.0112186)
(-1.71155e-18 -9.77867e-19 -0.0112077)
(-6.95978e-19 4.46175e-19 -0.0111932)
(3.14202e-19 -1.84838e-19 -0.0111752)
(-3.41593e-19 4.93057e-19 -0.0111537)
(-7.05585e-19 1.76724e-18 -0.0111289)
(1.04247e-18 4.52297e-19 -0.0111009)
(-1.11008e-18 1.9819e-18 -0.0110698)
(1.37066e-18 1.40823e-18 -0.0110358)
(-6.25015e-19 -2.12753e-18 -0.0109991)
(-1.2822e-19 1.87058e-18 -0.0109598)
(3.77259e-19 3.42352e-19 -0.0109183)
(-1.35273e-19 1.5741e-18 -0.0108745)
(-7.95133e-19 -2.56973e-19 -0.0110711)
(-1.59432e-18 -7.24425e-19 -0.0110821)
(-2.20289e-18 1.25871e-18 -0.0110894)
(-1.21384e-18 7.20136e-19 -0.0110931)
(-1.4113e-18 7.97388e-19 -0.0110931)
(-6.90146e-19 4.07507e-19 -0.0110894)
(-8.56785e-19 -1.65199e-18 -0.0110821)
(-1.66152e-18 -1.17991e-18 -0.0110711)
(-5.55315e-19 7.76676e-19 -0.0110565)
(4.39639e-19 6.55275e-21 -0.0110383)
(-3.41994e-19 3.11346e-19 -0.0110167)
(-8.56992e-19 1.48854e-18 -0.0109917)
(9.57668e-19 1.12699e-19 -0.0109635)
(-1.26477e-18 1.76412e-18 -0.0109322)
(1.23701e-18 1.38918e-18 -0.010898)
(-6.4136e-19 -2.26613e-18 -0.010861)
(8.12193e-20 2.01377e-18 -0.0108214)
(1.83773e-19 9.59738e-20 -0.0107796)
(-3.25712e-19 1.51993e-18 -0.0107354)
(-2.21591e-19 5.98549e-19 -0.0109159)
(-8.79091e-19 -4.7334e-20 -0.0109306)
(-1.5355e-18 -1.01983e-18 -0.0109417)
(-2.20838e-18 1.2502e-18 -0.0109491)
(-1.23116e-18 5.20683e-19 -0.0109528)
(-1.41936e-18 6.62408e-19 -0.0109528)
(-7.56705e-19 4.65763e-19 -0.0109491)
(-9.03567e-19 -1.61887e-18 -0.0109417)
(-1.57764e-18 -1.21381e-18 -0.0109306)
(-5.2686e-19 5.34229e-19 -0.0109159)
(5.57499e-19 2.05443e-19 -0.0108976)
(-3.92104e-19 4.69254e-20 -0.0108759)
(-9.4443e-19 1.40068e-18 -0.0108507)
(1.04165e-18 1.31446e-19 -0.0108223)
(-1.42034e-18 1.51142e-18 -0.0107908)
(1.13807e-18 1.41651e-18 -0.0107563)
(-6.9364e-19 -2.45736e-18 -0.010719)
(-3.1848e-20 1.72672e-18 -0.0106791)
(-6.43215e-21 -1.30381e-19 -0.0106369)
(-5.85611e-19 1.3435e-18 -0.0105924)
(-1.91367e-19 4.53532e-19 -0.0107712)
(-9.43222e-19 -3.69979e-20 -0.010786)
(-1.49033e-18 -1.21891e-18 -0.0107972)
(-2.20237e-18 1.23736e-18 -0.0108047)
(-1.26127e-18 2.47188e-19 -0.0108084)
(-1.41477e-18 3.49718e-19 -0.0108084)
(-8.09064e-19 5.73621e-19 -0.0108047)
(-9.52578e-19 -1.58489e-18 -0.0107972)
(-1.48394e-18 -1.05461e-18 -0.010786)
(-5.71171e-19 -3.00354e-20 -0.0107712)
(6.28499e-19 2.00025e-19 -0.0107528)
(-4.83403e-19 -3.22176e-19 -0.0107309)
(-9.64705e-19 1.39726e-18 -0.0107055)
(1.19861e-18 3.20475e-19 -0.0106769)
(-1.56476e-18 1.32572e-18 -0.0106451)
(1.00801e-18 1.40657e-18 -0.0106104)
(-7.97973e-19 -2.70701e-18 -0.0105728)
(-1.97261e-19 1.35404e-18 -0.0105326)
(4.55121e-21 -1.28131e-19 -0.0104901)
(-8.22158e-19 1.18677e-18 -0.0104451)
(-1.41054e-19 2.20571e-19 -0.0106221)
(-9.52874e-19 -2.99257e-19 -0.010637)
(-1.49134e-18 -1.03511e-18 -0.0106483)
(-2.21085e-18 1.25094e-18 -0.0106558)
(-1.29864e-18 2.67569e-20 -0.0106596)
(-1.39231e-18 1.33428e-19 -0.0106596)
(-8.53534e-19 6.1243e-19 -0.0106558)
(-9.96953e-19 -1.51548e-18 -0.0106483)
(-1.41676e-18 -9.16482e-19 -0.010637)
(-5.48453e-19 -2.65725e-19 -0.0106221)
(6.31888e-19 -6.64929e-20 -0.0106035)
(-5.19011e-19 -5.37747e-19 -0.0105815)
(-9.34377e-19 1.48483e-18 -0.0105559)
(1.19681e-18 1.60133e-19 -0.0105271)
(-1.76742e-18 1.0374e-18 -0.010495)
(9.35592e-19 1.50892e-18 -0.01046)
(-7.08558e-19 -2.65755e-18 -0.0104221)
(-1.98541e-19 1.16304e-18 -0.0103815)
(8.41856e-20 -4.0416e-20 -0.0103386)
(-9.29126e-19 1.17072e-18 -0.0102933)
(-1.55656e-19 1.17353e-19 -0.0104682)
(-9.56194e-19 -4.81096e-19 -0.0104833)
(-1.46767e-18 -8.69455e-19 -0.0104946)
(-2.22852e-18 1.18529e-18 -0.0105022)
(-1.34954e-18 -1.26911e-20 -0.010506)
(-1.3566e-18 7.49195e-20 -0.010506)
(-9.0033e-19 5.53728e-19 -0.0105022)
(-1.04742e-18 -1.50114e-18 -0.0104946)
(-1.33599e-18 -6.84324e-19 -0.0104833)
(-4.80526e-19 -2.3056e-19 -0.0104682)
(6.21948e-19 -3.77298e-19 -0.0104495)
(-5.78874e-19 -8.91542e-19 -0.0104272)
(-8.46899e-19 1.74016e-18 -0.0104015)
(1.12703e-18 -9.37394e-20 -0.0103724)
(-1.94e-18 7.72084e-19 -0.0103401)
(9.63635e-19 1.72807e-18 -0.0103047)
(-4.08088e-19 -2.27782e-18 -0.0102665)
(-2.79085e-19 8.77099e-19 -0.0102256)
(5.95001e-21 -1.54633e-19 -0.0101824)
(-9.66813e-19 1.21674e-18 -0.0101366)
(-2.1225e-19 1.51344e-19 -0.0103092)
(-1.0208e-18 -3.50048e-19 -0.0103244)
(-1.44701e-18 -7.38081e-19 -0.0103358)
(-2.25107e-18 1.21514e-18 -0.0103435)
(-1.39749e-18 2.97242e-19 -0.0103473)
(-1.32248e-18 1.51824e-19 -0.0103473)
(-9.60144e-19 3.6878e-19 -0.0103435)
(-1.07515e-18 -1.43002e-18 -0.0103358)
(-1.24748e-18 -4.2542e-19 -0.0103244)
(-3.9511e-19 -2.62967e-20 -0.0103092)
(6.60002e-19 -4.2709e-19 -0.0102903)
(-6.34845e-19 -1.29004e-18 -0.0102678)
(-8.22075e-19 1.79991e-18 -0.0102419)
(1.14583e-18 -1.31489e-19 -0.0102125)
(-1.89764e-18 8.74332e-19 -0.0101799)
(8.50324e-19 1.67333e-18 -0.0101443)
(-1.75479e-19 -1.95507e-18 -0.0101057)
(-4.84119e-19 4.57851e-19 -0.0100645)
(-1.44806e-19 -3.82125e-19 -0.0100208)
(-1.09156e-18 1.14292e-18 -0.00997455)
(-1.99964e-19 -9.9699e-21 -0.0101446)
(-1.09857e-18 -9.81639e-20 -0.0101599)
(-1.4223e-18 -5.91569e-19 -0.0101714)
(-2.26779e-18 1.32621e-18 -0.0101791)
(-1.4515e-18 6.08646e-19 -0.010183)
(-1.31367e-18 2.20124e-19 -0.010183)
(-1.01493e-18 2.46371e-19 -0.0101791)
(-1.0884e-18 -1.3525e-18 -0.0101714)
(-1.1694e-18 -2.58602e-19 -0.0101599)
(-2.83906e-19 2.9624e-19 -0.0101446)
(7.8418e-19 -1.12986e-19 -0.0101255)
(-5.53388e-19 -1.25401e-18 -0.0101029)
(-9.31246e-19 1.49757e-18 -0.0100767)
(1.2146e-18 -1.10211e-19 -0.010047)
(-1.87047e-18 9.88018e-19 -0.0100142)
(5.42721e-19 1.30373e-18 -0.00997816)
(-2.3831e-20 -1.75403e-18 -0.00993924)
(-5.10465e-19 3.02603e-19 -0.0098976)
(-3.84209e-19 -7.34465e-19 -0.00985351)
(-1.09004e-18 1.19095e-18 -0.00980681)
(-1.06242e-19 -3.44513e-19 -0.00997388)
(-1.15588e-18 1.07165e-19 -0.00998934)
(-1.39478e-18 -5.39338e-19 -0.010001)
(-2.25132e-18 1.04033e-18 -0.0100088)
(-1.49656e-18 7.71346e-19 -0.0100127)
(-1.30871e-18 2.14287e-19 -0.0100127)
(-1.05785e-18 3.08365e-19 -0.0100088)
(-1.09821e-18 -1.29307e-18 -0.010001)
(-1.0872e-18 -1.3419e-19 -0.00998934)
(-1.9257e-19 4.90669e-19 -0.00997388)
(8.96652e-19 1.73127e-19 -0.00995467)
(-3.92446e-19 -8.90062e-19 -0.00993179)
(-1.02285e-18 1.26591e-18 -0.00990535)
(1.25897e-18 -1.78315e-19 -0.00987546)
(-1.96597e-18 8.95898e-19 -0.00984226)
(3.84796e-19 1.16686e-18 -0.00980592)
(7.00399e-20 -1.6772e-18 -0.00976662)
(-3.80415e-19 3.94853e-19 -0.00972458)
(-6.99549e-19 -1.18519e-18 -0.00968005)
(-8.49026e-19 1.49188e-18 -0.00963287)
(1.57931e-20 -7.65075e-19 -0.00979661)
(-1.15391e-18 7.94048e-20 -0.00981222)
(-1.376e-18 -5.57697e-19 -0.00982398)
(-2.22928e-18 8.01595e-19 -0.00983185)
(-1.52465e-18 8.83162e-19 -0.00983579)
(-1.30861e-18 1.15087e-19 -0.00983579)
(-1.09957e-18 3.23922e-19 -0.00983185)
(-1.10197e-18 -1.16939e-18 -0.00982398)
(-1.00327e-18 7.06595e-21 -0.00981222)
(-9.58613e-20 7.07636e-19 -0.00979661)
(9.20524e-19 1.09058e-19 -0.00977721)
(-2.58527e-19 -5.79443e-19 -0.00975412)
(-9.51081e-19 1.48806e-18 -0.00972742)
(1.29149e-18 -2.73347e-19 -0.00969724)
(-2.02002e-18 8.69311e-19 -0.00966371)
(4.13778e-19 1.33293e-18 -0.00962702)
(1.08883e-19 -1.68565e-18 -0.00958733)
(-4.36385e-19 2.65632e-19 -0.00954487)
(-9.65359e-19 -1.59807e-18 -0.00949988)
(-7.57482e-19 1.61254e-18 -0.00945219)
(7.39699e-20 -9.95961e-19 -0.00961216)
(-1.11446e-18 -7.49963e-20 -0.00962792)
(-1.34841e-18 -5.6138e-19 -0.0096398)
(-2.2254e-18 8.68772e-19 -0.00964775)
(-1.55336e-18 8.21889e-19 -0.00965173)
(-1.31139e-18 5.2769e-21 -0.00965173)
(-1.13839e-18 2.59271e-19 -0.00964775)
(-1.10019e-18 -1.08298e-18 -0.0096398)
(-8.98136e-19 2.13104e-19 -0.00962792)
(-9.95518e-21 9.43999e-19 -0.00961216)
(9.1362e-19 -3.29156e-20 -0.00959257)
(-2.38433e-19 -6.63322e-19 -0.00956924)
(-8.77086e-19 1.74275e-18 -0.00954227)
(1.31448e-18 -3.61227e-19 -0.00951179)
(-1.97012e-18 1.0119e-18 -0.00947792)
(2.9977e-19 1.26637e-18 -0.00944085)
(2.74218e-19 -1.46944e-18 -0.00940075)
(-5.98133e-19 1.61034e-20 -0.00935785)
(-1.11704e-18 -1.88916e-18 -0.00931239)
(-8.31765e-19 1.51798e-18 -0.00926418)
(3.36128e-20 -8.23138e-19 -0.00941985)
(-1.11322e-18 1.48691e-20 -0.00943578)
(-1.32412e-18 -4.34558e-19 -0.00944778)
(-2.21327e-18 8.19845e-19 -0.00945581)
(-1.58715e-18 7.1169e-19 -0.00945984)
(-1.30807e-18 2.33228e-20 -0.00945984)
(-1.18143e-18 9.74213e-20 -0.00945581)
(-1.1008e-18 -1.07723e-18 -0.00944778)
(-8.01987e-19 3.46796e-19 -0.00943578)
(9.12393e-21 9.44467e-19 -0.00941985)
(9.28336e-19 -3.90724e-20 -0.00940006)
(-2.74562e-19 -9.14365e-19 -0.00937649)
(-9.46458e-19 1.6292e-18 -0.00934924)
(1.36733e-18 -4.05528e-19 -0.00931843)
(-1.97097e-18 1.08039e-18 -0.00928422)
(1.41754e-19 1.10991e-18 -0.00924675)
(4.97005e-19 -1.17551e-18 -0.00920623)
(-7.29849e-19 -1.4911e-19 -0.00916286)
(-1.07734e-18 -1.96016e-18 -0.0091169)
(-8.75345e-19 1.43975e-18 -0.00906815)
(-4.16295e-20 -4.44533e-19 -0.00921894)
(-1.1608e-18 3.56616e-19 -0.00923504)
(-1.3185e-18 -2.53582e-19 -0.00924717)
(-2.20167e-18 7.16443e-19 -0.00925528)
(-1.61229e-18 6.9373e-19 -0.00925935)
(-1.3101e-18 7.58269e-20 -0.00925935)
(-1.22121e-18 3.49338e-20 -0.00925528)
(-1.06968e-18 -9.24054e-19 -0.00924717)
(-7.6158e-19 1.77652e-19 -0.00923504)
(-1.33466e-20 7.77912e-19 -0.00921894)
(9.42009e-19 -2.63256e-20 -0.00919893)
(-2.94963e-19 -1.08195e-18 -0.00917511)
(-1.01663e-18 1.50139e-18 -0.00914756)
(1.49232e-18 -3.0428e-19 -0.00911642)
(-2.15715e-18 7.91392e-19 -0.00908183)
(1.72056e-19 1.24694e-18 -0.00904396)
(6.03618e-19 -1.04434e-18 -0.00900299)
(-9.13007e-19 -3.76584e-19 -0.00895915)
(-8.38848e-19 -1.80158e-18 -0.00891268)
(-8.19119e-19 1.46095e-18 -0.00886336)
(-3.34526e-20 -3.76231e-19 -0.00900856)
(-1.18607e-18 5.6425e-19 -0.00902484)
(-1.30346e-18 -1.93976e-19 -0.0090371)
(-2.1918e-18 6.55732e-19 -0.00904531)
(-1.6381e-18 7.04037e-19 -0.00904942)
(-1.31241e-18 1.90175e-20 -0.00904942)
(-1.23539e-18 1.8587e-19 -0.00904531)
(-1.04416e-18 -6.87808e-19 -0.0090371)
(-7.47767e-19 -5.26796e-20 -0.00902484)
(1.12439e-20 7.68281e-19 -0.00900856)
(9.58447e-19 5.88979e-21 -0.00898833)
(-2.95516e-19 -1.19138e-18 -0.00896424)
(-9.92274e-19 1.57227e-18 -0.00893639)
(1.68291e-18 -2.35415e-20 -0.0089049)
(-2.35054e-18 4.78327e-19 -0.00886993)
(1.24713e-19 1.21242e-18 -0.00883163)
(6.39448e-19 -9.8055e-19 -0.0087902)
(-9.54344e-19 -4.15093e-19 -0.00874587)
(-4.56807e-19 -1.50068e-18 -0.00869886)
(-7.31382e-19 1.52769e-18 -0.00864896)
(2.5531e-20 -5.07789e-19 -0.00878774)
(-1.1737e-18 6.05926e-19 -0.00880421)
(-1.25298e-18 -4.19831e-19 -0.00881661)
(-2.16762e-18 4.75194e-19 -0.00882491)
(-1.65902e-18 6.21247e-19 -0.00882906)
(-1.3097e-18 -6.02755e-20 -0.00882906)
(-1.24591e-18 2.98779e-19 -0.00882491)
(-1.03733e-18 -5.53805e-19 -0.00881661)
(-6.98199e-19 -1.03504e-19 -0.00880421)
(6.97406e-20 8.91235e-19 -0.00878774)
(9.81052e-19 1.05434e-19 -0.00876728)
(-2.00146e-19 -1.02214e-18 -0.00874292)
(-1.0144e-18 1.48914e-18 -0.00871475)
(1.84273e-18 2.26445e-19 -0.00868291)
(-2.28726e-18 6.8732e-19 -0.00864753)
(-5.08292e-20 9.42555e-19 -0.0086088)
(6.11484e-19 -1.04248e-18 -0.00856689)
(-8.20243e-19 -2.44151e-19 -0.00852205)
(1.85217e-20 -1.08184e-18 -0.0084745)
(-9.24749e-19 1.31494e-18 -0.00842401)
(4.07116e-20 -4.31476e-19 -0.00855539)
(-1.16357e-18 6.25209e-19 -0.00857205)
(-1.20394e-18 -6.61843e-19 -0.0085846)
(-2.12111e-18 1.84679e-19 -0.00859299)
(-1.67246e-18 5.05853e-19 -0.00859719)
(-1.30062e-18 -1.26875e-19 -0.00859719)
(-1.25503e-18 3.79021e-19 -0.00859299)
(-1.04611e-18 -5.01976e-19 -0.0085846)
(-6.43896e-19 -1.22272e-19 -0.00857205)
(6.93701e-20 7.5421e-19 -0.00855539)
(9.63023e-19 4.68742e-20 -0.0085347)