/*--------------------------------*- C++ -*----------------------------------*\
  =========                 |
  \\      /  F ield         | OpenFOAM: The Open Source CFD Toolbox
   \\    /   O peration     | Website:  https://openfoam.org
    \\  /    A nd           | Version:  7
     \\/     M anipulation  |
\*---------------------------------------------------------------------------*/
FoamFile
{
    version     2.0;
    format      ascii;
    class       volScalarField;
    location    "80000";
    object      omega;
}
// * * * * * * * * * * * * * * * * * * * * * * * * * * * * * * * * * * * * * //

dimensions      [0 0 -1 0 0 0 0];

internalField   nonuniform List<scalar> 
4783
(
0.0306764
0.0306668
0.0306576
0.0306487
0.0306403
0.0306323
0.0306247
0.0306175
0.0306107
0.0306042
0.0305982
0.0305926
0.0305874
0.0305826
0.0305782
0.0305742
0.0305707
0.0305675
0.0305648
0.0305624
0.0305605
0.030559
0.030693
0.0306836
0.0306744
0.0306654
0.0306568
0.0306485
0.0306406
0.0306332
0.0306261
0.0306194
0.0306131
0.0306073
0.0306019
0.0305969
0.0305923
0.0305881
0.0305844
0.030581
0.0305782
0.0305757
0.0305737
0.0305721
0.0307102
0.0307007
0.0306914
0.0306823
0.0306735
0.030665
0.0306569
0.0306492
0.0306419
0.030635
0.0306286
0.0306225
0.0306168
0.0306116
0.0306068
0.0306025
0.0305986
0.0305951
0.0305921
0.0305896
0.0305875
0.0305858
0.030728
0.0307183
0.0307088
0.0306996
0.0306906
0.030682
0.0306737
0.0306658
0.0306583
0.0306512
0.0306445
0.0306382
0.0306324
0.030627
0.030622
0.0306175
0.0306134
0.0306098
0.0306067
0.0306041
0.0306019
0.0306001
0.0307463
0.0307363
0.0307267
0.0307173
0.0307082
0.0306994
0.0306909
0.0306828
0.0306751
0.0306678
0.0306609
0.0306544
0.0306484
0.0306428
0.0306377
0.030633
0.0306289
0.0306251
0.0306219
0.0306191
0.0306168
0.0306151
0.030765
0.0307549
0.030745
0.0307354
0.0307261
0.0307172
0.0307085
0.0307002
0.0306923
0.0306849
0.0306778
0.0306712
0.030665
0.0306592
0.030654
0.0306491
0.0306448
0.030641
0.0306376
0.0306348
0.0306324
0.0306305
0.0307842
0.0307739
0.0307638
0.030754
0.0307445
0.0307354
0.0307266
0.0307181
0.0307101
0.0307024
0.0306952
0.0306884
0.030682
0.0306761
0.0306707
0.0306658
0.0306613
0.0306574
0.0306539
0.030651
0.0306485
0.0306466
0.0308038
0.0307932
0.030783
0.030773
0.0307634
0.0307541
0.0307451
0.0307365
0.0307283
0.0307204
0.030713
0.0307061
0.0306996
0.0306935
0.030688
0.0306829
0.0306784
0.0306743
0.0306707
0.0306677
0.0306652
0.0306632
0.0308237
0.030813
0.0308026
0.0307925
0.0307826
0.0307732
0.030764
0.0307552
0.0307469
0.0307389
0.0307314
0.0307243
0.0307176
0.0307114
0.0307058
0.0307006
0.0306959
0.0306917
0.0306881
0.030685
0.0306824
0.0306804
0.0308441
0.0308332
0.0308226
0.0308123
0.0308023
0.0307927
0.0307834
0.0307744
0.0307659
0.0307578
0.0307501
0.0307429
0.0307361
0.0307298
0.030724
0.0307187
0.0307139
0.0307097
0.0307059
0.0307027
0.0307001
0.030698
0.0308647
0.0308537
0.0308429
0.0308325
0.0308223
0.0308125
0.0308031
0.030794
0.0307854
0.0307771
0.0307693
0.0307619
0.030755
0.0307486
0.0307427
0.0307373
0.0307324
0.030728
0.0307242
0.030721
0.0307183
0.0307161
0.0308857
0.0308745
0.0308636
0.030853
0.0308427
0.0308328
0.0308232
0.030814
0.0308052
0.0307968
0.0307889
0.0307814
0.0307744
0.0307678
0.0307618
0.0307563
0.0307513
0.0307469
0.030743
0.0307397
0.0307369
0.0307347
0.030907
0.0308957
0.0308846
0.0308739
0.0308635
0.0308534
0.0308437
0.0308343
0.0308254
0.0308169
0.0308088
0.0308012
0.0307941
0.0307875
0.0307813
0.0307757
0.0307707
0.0307662
0.0307622
0.0307588
0.030756
0.0307537
0.0309286
0.0309171
0.0309059
0.0308951
0.0308845
0.0308743
0.0308645
0.030855
0.030846
0.0308374
0.0308292
0.0308215
0.0308142
0.0308075
0.0308013
0.0307956
0.0307904
0.0307858
0.0307818
0.0307784
0.0307755
0.0307732
0.0309504
0.0309388
0.0309275
0.0309165
0.0309059
0.0308956
0.0308856
0.0308761
0.0308669
0.0308582
0.0308499
0.0308421
0.0308347
0.0308279
0.0308216
0.0308158
0.0308106
0.0308059
0.0308018
0.0307984
0.0309725
0.0309608
0.0309494
0.0309383
0.0309275
0.0309171
0.030907
0.0308974
0.0308881
0.0308793
0.0308709
0.030863
0.0308556
0.0308487
0.0308423
0.0308364
0.0308311
0.0308264
0.0308222
0.0309948
0.030983
0.0309715
0.0309603
0.0309494
0.0309389
0.0309287
0.030919
0.0309096
0.0309007
0.0308923
0.0308843
0.0308768
0.0308697
0.0308633
0.0308573
0.0308519
0.0310173
0.0310054
0.0309938
0.0309825
0.0309715
0.0309609
0.0309507
0.0309409
0.0309315
0.0309225
0.0309139
0.0309058
0.0308983
0.0308911
0.0310399
0.031028
0.0310163
0.0310049
0.0309939
0.0309832
0.0309729
0.030963
0.0309535
0.0309445
0.0309359
0.0309276
0.0310628
0.0310508
0.031039
0.0310276
0.0310165
0.0310057
0.0309954
0.0309854
0.0309758
0.0309667
0.0310858
0.0310737
0.0310619
0.0310504
0.0310392
0.0310284
0.031018
0.031008
0.0309984
0.0311089
0.0310968
0.0310849
0.0310734
0.0310622
0.0310513
0.0310408
0.0310308
0.0311322
0.03112
0.0311081
0.0310965
0.0310853
0.0310744
0.0310639
0.0311556
0.0311433
0.0311314
0.0311198
0.0311085
0.0310975
0.031179
0.0311668
0.0311548
0.0311432
0.0311319
0.0311208
0.0312025
0.0311903
0.0311783
0.0311667
0.0311554
0.0312261
0.0312138
0.0312019
0.0311902
0.0312498
0.0312375
0.0312255
0.0312139
0.0312735
0.0312611
0.0312491
0.0312972
0.0312848
0.0312727
0.0313209
0.0313085
0.0312964
0.0313447
0.0313322
0.0313201
0.0313684
0.031356
0.0313438
0.0313921
0.0313797
0.0313675
0.0314158
0.0314034
0.0313912
0.0314395
0.0314271
0.0314148
0.0314632
0.0314507
0.0314385
0.0314868
0.0314744
0.0314621
0.0315103
0.0314979
0.0314857
0.0315338
0.0315215
0.0315092
0.0315578
0.0315449
0.0315327
0.0315856
0.0315701
0.0315566
0.0306765
0.0306931
0.0307102
0.030728
0.0307463
0.030765
0.0307842
0.0308038
0.0308238
0.0308441
0.0308648
0.0308858
0.0309071
0.0309286
0.0309505
0.0309725
0.0309948
0.0310173
0.03104
0.0310629
0.0310859
0.031109
0.0311323
0.0311557
0.0311792
0.0312027
0.0312263
0.03125
0.0312737
0.0312975
0.0313212
0.031345
0.0313688
0.0313925
0.0314163
0.03144
0.0314636
0.0314873
0.0315108
0.0315343
0.0315583
0.0315861
0.0306668
0.0306836
0.0307007
0.0307183
0.0307363
0.0307549
0.0307739
0.0307933
0.030813
0.0308332
0.0308537
0.0308746
0.0308957
0.0309172
0.0309389
0.0309609
0.0309831
0.0310055
0.0310281
0.0310509
0.0310739
0.031097
0.0311203
0.0311436
0.0311671
0.0311907
0.0312143
0.031238
0.0312617
0.0312855
0.0313093
0.0313331
0.031357
0.0313808
0.0314046
0.0314284
0.0314521
0.0314758
0.0314995
0.0315231
0.0315466
0.0315717
0.0306575
0.0306743
0.0306914
0.0307088
0.0307267
0.030745
0.0307638
0.030783
0.0308026
0.0308226
0.030843
0.0308637
0.0308847
0.0309061
0.0309277
0.0309496
0.0309717
0.030994
0.0310166
0.0310393
0.0310622
0.0310853
0.0311085
0.0311319
0.0311553
0.0311789
0.0312025
0.0312262
0.03125
0.0312738
0.0312976
0.0313215
0.0313454
0.0313693
0.0313931
0.031417
0.0314408
0.0314646
0.0314883
0.031512
0.0315356
0.0315596
0.0306487
0.0306653
0.0306823
0.0306995
0.0307173
0.0307354
0.030754
0.0307731
0.0307925
0.0308124
0.0308326
0.0308531
0.030874
0.0308952
0.0309167
0.0309385
0.0309605
0.0309828
0.0310053
0.031028
0.0310508
0.0310739
0.0310971
0.0311204
0.0311438
0.0311674
0.031191
0.0312147
0.0312385
0.0312623
0.0312862
0.0313101
0.031334
0.031358
0.0313819
0.0314058
0.0314297
0.0314535
0.0314773
0.0315011
0.0315248
0.0315484
0.0306402
0.0306567
0.0306734
0.0306906
0.0307081
0.0307261
0.0307446
0.0307634
0.0307827
0.0308024
0.0308225
0.0308429
0.0308637
0.0308847
0.0309061
0.0309278
0.0309497
0.0309719
0.0309943
0.0310169
0.0310398
0.0310627
0.0310859
0.0311092
0.0311326
0.0311561
0.0311798
0.0312035
0.0312273
0.0312511
0.0312751
0.031299
0.0313229
0.0313469
0.0313709
0.0313948
0.0314188
0.0314427
0.0314666
0.0314904
0.0315142
0.0315379
0.0306322
0.0306484
0.030665
0.0306819
0.0306993
0.0307171
0.0307354
0.0307541
0.0307732
0.0307928
0.0308127
0.030833
0.0308536
0.0308746
0.0308959
0.0309174
0.0309393
0.0309614
0.0309837
0.0310063
0.031029
0.031052
0.0310751
0.0310983
0.0311217
0.0311452
0.0311689
0.0311926
0.0312164
0.0312403
0.0312642
0.0312881
0.0313121
0.0313361
0.0313602
0.0313842
0.0314082
0.0314321
0.0314561
0.0314799
0.0315038
0.0315276
0.0306245
0.0306405
0.0306568
0.0306736
0.0306908
0.0307085
0.0307266
0.0307451
0.0307641
0.0307835
0.0308032
0.0308234
0.0308439
0.0308648
0.0308859
0.0309074
0.0309292
0.0309512
0.0309734
0.0309959
0.0310186
0.0310415
0.0310646
0.0310878
0.0311112
0.0311347
0.0311583
0.031182
0.0312058
0.0312297
0.0312536
0.0312776
0.0313016
0.0313257
0.0313497
0.0313738
0.0313978
0.0314218
0.0314458
0.0314698
0.0314937
0.0315175
0.0306173
0.030633
0.0306491
0.0306657
0.0306827
0.0307002
0.0307181
0.0307365
0.0307553
0.0307745
0.0307942
0.0308142
0.0308346
0.0308553
0.0308764
0.0308978
0.0309194
0.0309414
0.0309636
0.030986
0.0310086
0.0310315
0.0310545
0.0310777
0.031101
0.0311245
0.0311481
0.0311718
0.0311956
0.0312195
0.0312435
0.0312675
0.0312915
0.0313156
0.0313397
0.0313637
0.0313878
0.0314119
0.0314359
0.0314599
0.0314839
0.0315078
0.0306104
0.0306259
0.0306417
0.0306581
0.030675
0.0306923
0.03071
0.0307283
0.0307469
0.030766
0.0307855
0.0308054
0.0308257
0.0308463
0.0308672
0.0308885
0.0309101
0.030932
0.0309541
0.0309764
0.030999
0.0310218
0.0310448
0.031068
0.0310913
0.0311147
0.0311383
0.031162
0.0311858
0.0312097
0.0312337
0.0312577
0.0312817
0.0313058
0.0313299
0.0313541
0.0313782
0.0314023
0.0314264
0.0314504
0.0314744
0.0314984
0.0306039
0.0306191
0.0306348
0.030651
0.0306676
0.0306847
0.0307023
0.0307204
0.0307389
0.0307579
0.0307772
0.030797
0.0308172
0.0308377
0.0308585
0.0308797
0.0309012
0.030923
0.030945
0.0309673
0.0309898
0.0310126
0.0310355
0.0310587
0.0310819
0.0311054
0.031129
0.0311526
0.0311764
0.0312003
0.0312243
0.0312483
0.0312724
0.0312965
0.0313206
0.0313448
0.0313689
0.0313931
0.0314172
0.0314413
0.0314654
0.0314894
0.0305979
0.0306128
0.0306283
0.0306442
0.0306607
0.0306776
0.0306951
0.030713
0.0307313
0.0307502
0.0307694
0.030789
0.0308091
0.0308295
0.0308502
0.0308713
0.0308927
0.0309144
0.0309364
0.0309586
0.0309811
0.0310038
0.0310267
0.0310498
0.0310731
0.0310965
0.03112
0.0311437
0.0311675
0.0311914
0.0312153
0.0312394
0.0312634
0.0312876
0.0313117
0.0313359
0.0313601
0.0313843
0.0314085
0.0314326
0.0314567
0.0314808
0.0305922
0.0306069
0.0306221
0.0306379
0.0306542
0.0306709
0.0306882
0.030706
0.0307242
0.0307429
0.030762
0.0307815
0.0308014
0.0308217
0.0308424
0.0308634
0.0308847
0.0309064
0.0309283
0.0309504
0.0309729
0.0309955
0.0310184
0.0310414
0.0310646
0.031088
0.0311116
0.0311352
0.031159
0.0311829
0.0312068
0.0312309
0.031255
0.0312791
0.0313033
0.0313275
0.0313517
0.0313759
0.0314001
0.0314243
0.0314484
0.0314725
0.0314965
0.0305869
0.0306014
0.0306164
0.030632
0.0306481
0.0306647
0.0306818
0.0306994
0.0307175
0.0307361
0.030755
0.0307745
0.0307943
0.0308145
0.0308351
0.030856
0.0308772
0.0308988
0.0309206
0.0309427
0.0309651
0.0309877
0.0310105
0.0310335
0.0310567
0.0310801
0.0311036
0.0311272
0.031151
0.0311749
0.0311988
0.0312228
0.0312469
0.0312711
0.0312953
0.0313195
0.0313437
0.031368
0.0313922
0.0314164
0.0314405
0.0314647
0.0314887
0.0315127
0.030582
0.0305963
0.0306111
0.0306265
0.0306424
0.0306589
0.0306758
0.0306933
0.0307113
0.0307297
0.0307486
0.0307679
0.0307876
0.0308077
0.0308282
0.030849
0.0308702
0.0308917
0.0309135
0.0309355
0.0309578
0.0309804
0.0310031
0.0310261
0.0310493
0.0310726
0.0310961
0.0311197
0.0311435
0.0311673
0.0311913
0.0312153
0.0312394
0.0312636
0.0312878
0.031312
0.0313363
0.0313605
0.0313848
0.031409
0.0314332
0.0314574
0.0314815
0.0315056
0.0305776
0.0305916
0.0306063
0.0306215
0.0306372
0.0306535
0.0306703
0.0306877
0.0307055
0.0307238
0.0307426
0.0307618
0.0307814
0.0308014
0.0308218
0.0308426
0.0308637
0.0308851
0.0309068
0.0309288
0.0309511
0.0309736
0.0309963
0.0310193
0.0310424
0.0310657
0.0310892
0.0311128
0.0311365
0.0311603
0.0311843
0.0312083
0.0312324
0.0312566
0.0312808
0.031305
0.0313293
0.0313536
0.0313778
0.0314021
0.0314263
0.0314505
0.0314746
0.0314987
0.0315227
0.0305735
0.0305874
0.0306018
0.0306169
0.0306325
0.0306486
0.0306653
0.0306825
0.0307002
0.0307185
0.0307371
0.0307562
0.0307758
0.0307957
0.030816
0.0308367
0.0308577
0.0308791
0.0309007
0.0309227
0.0309449
0.0309673
0.03099
0.0310129
0.031036
0.0310593
0.0310827
0.0311063
0.0311301
0.0311539
0.0311778
0.0312018
0.0312259
0.0312501
0.0312743
0.0312986
0.0313228
0.0313471
0.0313714
0.0313957
0.0314199
0.0314441
0.0314683
0.0314925
0.0315166
0.0305698
0.0305835
0.0305978
0.0306127
0.0306282
0.0306442
0.0306608
0.0306779
0.0306955
0.0307136
0.0307321
0.0307512
0.0307706
0.0307905
0.0308107
0.0308313
0.0308523
0.0308736
0.0308952
0.0309171
0.0309392
0.0309617
0.0309843
0.0310072
0.0310302
0.0310535
0.0310769
0.0311005
0.0311242
0.031148
0.0311719
0.0311959
0.03122
0.0312442
0.0312684
0.0312926
0.0313169
0.0313412
0.0313655
0.0313898
0.0314141
0.0314383
0.0314625
0.0314867
0.0315107
0.0315348
0.0305666
0.0305801
0.0305943
0.030609
0.0306243
0.0306402
0.0306567
0.0306737
0.0306912
0.0307092
0.0307277
0.0307466
0.030766
0.0307858
0.030806
0.0308265
0.0308474
0.0308686
0.0308902
0.030912
0.0309342
0.0309565
0.0309791
0.031002
0.031025
0.0310482
0.0310716
0.0310952
0.0311188
0.0311427
0.0311666
0.0311906
0.0312147
0.0312388
0.031263
0.0312873
0.0313115
0.0313358
0.0313601
0.0313844
0.0314087
0.031433
0.0314572
0.0314814
0.0315055
0.0315295
0.0315535
0.0305637
0.0305771
0.0305911
0.0306058
0.030621
0.0306368
0.0306531
0.03067
0.0306874
0.0307054
0.0307238
0.0307426
0.0307619
0.0307816
0.0308018
0.0308222
0.0308431
0.0308643
0.0308858
0.0309076
0.0309297
0.030952
0.0309746
0.0309974
0.0310204
0.0310436
0.0310669
0.0310905
0.0311141
0.0311379
0.0311618
0.0311858
0.0312099
0.031234
0.0312582
0.0312825
0.0313067
0.031331
0.0313553
0.0313796
0.0314039
0.0314282
0.0314524
0.0314766
0.0315007
0.0315248
0.0315488
0.0305613
0.0305746
0.0305885
0.030603
0.0306181
0.0306338
0.0306501
0.0306669
0.0306842
0.030702
0.0307204
0.0307392
0.0307584
0.0307781
0.0307981
0.0308186
0.0308394
0.0308605
0.030882
0.0309037
0.0309257
0.030948
0.0309706
0.0309934
0.0310163
0.0310395
0.0310628
0.0310863
0.03111
0.0311338
0.0311576
0.0311816
0.0312057
0.0312298
0.031254
0.0312782
0.0313025
0.0313268
0.0313511
0.0313754
0.0313997
0.031424
0.0314482
0.0314724
0.0314965
0.0315206
0.0315446
0.0305592
0.0305724
0.0305862
0.0306006
0.0306157
0.0306313
0.0306475
0.0306642
0.0306815
0.0306993
0.0307175
0.0307363
0.0307554
0.0307751
0.0307951
0.0308155
0.0308362
0.0308573
0.0308787
0.0309004
0.0309224
0.0309447
0.0309672
0.03099
0.0310129
0.0310361
0.0310594
0.0310828
0.0311065
0.0311302
0.0311541
0.031178
0.0312021
0.0312262
0.0312504
0.0312746
0.0312989
0.0313232
0.0313474
0.0313717
0.031396
0.0314203
0.0314445
0.0314687
0.0314929
0.031517
0.031541
0.0305576
0.0305707
0.0305844
0.0305988
0.0306137
0.0306293
0.0306454
0.0306621
0.0306793
0.030697
0.0307152
0.0307339
0.0307531
0.0307726
0.0307926
0.0308129
0.0308336
0.0308547
0.0308761
0.0308978
0.0309197
0.030942
0.0309645
0.0309872
0.0310101
0.0310332
0.0310565
0.03108
0.0311036
0.0311273
0.0311511
0.0311751
0.0311991
0.0312232
0.0312474
0.0312716
0.0312958
0.0313201
0.0313444
0.0313686
0.0313929
0.0314172
0.0314414
0.0314655
0.0314897
0.0315137
0.0315377
0.0315627
0.0305564
0.0305694
0.0305831
0.0305974
0.0306123
0.0306278
0.0306438
0.0306605
0.0306776
0.0306953
0.0307135
0.0307321
0.0307512
0.0307708
0.0307907
0.030811
0.0308317
0.0308527
0.0308741
0.0308957
0.0309177
0.0309399
0.0309623
0.030985
0.0310079
0.031031
0.0310543
0.0310777
0.0311013
0.031125
0.0311488
0.0311728
0.0311968
0.0312208
0.031245
0.0312692
0.0312934
0.0313176
0.0313419
0.0313662
0.0313904
0.0314146
0.0314388
0.031463
0.0314871
0.0315111
0.0315351
0.0315599
0.0305556
0.0305686
0.0305822
0.0305964
0.0306113
0.0306267
0.0306428
0.0306594
0.0306765
0.0306942
0.0307123
0.0307309
0.03075
0.0307695
0.0307894
0.0308097
0.0308303
0.0308513
0.0308727
0.0308943
0.0309162
0.0309384
0.0309608
0.0309835
0.0310064
0.0310294
0.0310527
0.0310761
0.0310997
0.0311234
0.0311472
0.0311711
0.031195
0.0312191
0.0312432
0.0312674
0.0312916
0.0313158
0.03134
0.0313643
0.0313885
0.0314127
0.0314368
0.0314609
0.031485
0.031509
0.0315329
0.0315575
0.0315866
0.0305552
0.0305681
0.0305817
0.0305959
0.0306108
0.0306262
0.0306422
0.0306588
0.0306759
0.0306935
0.0307117
0.0307303
0.0307493
0.0307688
0.0307887
0.0308089
0.0308296
0.0308506
0.0308719
0.0308935
0.0309154
0.0309375
0.03096
0.0309826
0.0310055
0.0310285
0.0310517
0.0310751
0.0310987
0.0311223
0.0311461
0.03117
0.031194
0.031218
0.0312421
0.0312662
0.0312904
0.0313146
0.0313388
0.031363
0.0313872
0.0314114
0.0314355
0.0314596
0.0314836
0.0315075
0.0315314
0.031556
0.0315849
0.0305552
0.0305681
0.0305817
0.0305959
0.0306108
0.0306262
0.0306422
0.0306588
0.0306759
0.0306935
0.0307116
0.0307302
0.0307492
0.0307687
0.0307885
0.0308088
0.0308294
0.0308504
0.0308717
0.0308933
0.0309152
0.0309373
0.0309597
0.0309824
0.0310052
0.0310282
0.0310514
0.0310748
0.0310983
0.031122
0.0311457
0.0311696
0.0311935
0.0312176
0.0312416
0.0312657
0.0312899
0.0313141
0.0313382
0.0313624
0.0313866
0.0314107
0.0314348
0.0314588
0.0314828
0.0315067
0.0315306
0.031555
0.0315837
0.0316254
0.0305556
0.0305686
0.0305822
0.0305964
0.0306112
0.0306267
0.0306427
0.0306592
0.0306763
0.030694
0.0307121
0.0307307
0.0307497
0.0307692
0.030789
0.0308093
0.0308299
0.0308509
0.0308721
0.0308937
0.0309156
0.0309378
0.0309601
0.0309828
0.0310056
0.0310286
0.0310518
0.0310751
0.0310986
0.0311223
0.031146
0.0311699
0.0311938
0.0312178
0.0312418
0.0312659
0.03129
0.0313142
0.0313383
0.0313625
0.0313866
0.0314107
0.0314347
0.0314588
0.0314827
0.0315066
0.0315304
0.0315549
0.0315838
0.0316259
0.0305564
0.0305694
0.030583
0.0305973
0.0306122
0.0306276
0.0306437
0.0306602
0.0306774
0.030695
0.0307131
0.0307317
0.0307508
0.0307702
0.0307901
0.0308104
0.030831
0.0308519
0.0308732
0.0308948
0.0309167
0.0309388
0.0309612
0.0309838
0.0310066
0.0310296
0.0310528
0.0310761
0.0310996
0.0311232
0.0311469
0.0311708
0.0311947
0.0312186
0.0312427
0.0312667
0.0312908
0.0313149
0.0313391
0.0313632
0.0313873
0.0314113
0.0314354
0.0314594
0.0314833
0.0315071
0.0315309
0.0315555
0.0315848
0.0316278
0.0305576
0.0305707
0.0305844
0.0305987
0.0306136
0.0306291
0.0306452
0.0306618
0.0306789
0.0306966
0.0307147
0.0307333
0.0307524
0.0307719
0.0307918
0.030812
0.0308327
0.0308536
0.0308749
0.0308965
0.0309184
0.0309405
0.0309629
0.0309855
0.0310083
0.0310313
0.0310544
0.0310778
0.0311012
0.0311248
0.0311485
0.0311723
0.0311962
0.0312202
0.0312442
0.0312682
0.0312923
0.0313164
0.0313405
0.0313646
0.0313886
0.0314127
0.0314367
0.0314606
0.0314845
0.0315084
0.0315321
0.0315568
0.0315868
0.0316313
0.0305593
0.0305724
0.0305862
0.0306005
0.0306155
0.030631
0.0306472
0.0306638
0.030681
0.0306987
0.0307169
0.0307355
0.0307546
0.0307741
0.030794
0.0308143
0.0308349
0.0308559
0.0308772
0.0308988
0.0309207
0.0309428
0.0309652
0.0309878
0.0310106
0.0310336
0.0310567
0.0310801
0.0311035
0.0311271
0.0311508
0.0311746
0.0311984
0.0312224
0.0312463
0.0312704
0.0312944
0.0313185
0.0313425
0.0313666
0.0313906
0.0314147
0.0314386
0.0314626
0.0314864
0.0315102
0.0315339
0.0315589
0.0315897
0.0316365
0.0305613
0.0305746
0.0305884
0.0306028
0.0306179
0.0306335
0.0306497
0.0306664
0.0306836
0.0307014
0.0307196
0.0307383
0.0307574
0.0307769
0.0307969
0.0308172
0.0308378
0.0308588
0.0308801
0.0309018
0.0309236
0.0309458
0.0309681
0.0309907
0.0310135
0.0310365
0.0310597
0.031083
0.0311064
0.03113
0.0311537
0.0311774
0.0312013
0.0312252
0.0312492
0.0312732
0.0312972
0.0313212
0.0313453
0.0313693
0.0313933
0.0314173
0.0314413
0.0314651
0.031489
0.0315128
0.0315364
0.0315617
0.0315938
0.0316435
0.0305638
0.0305771
0.0305911
0.0306056
0.0306207
0.0306364
0.0306527
0.0306695
0.0306868
0.0307046
0.0307229
0.0307416
0.0307608
0.0307803
0.0308003
0.0308206
0.0308413
0.0308623
0.0308837
0.0309053
0.0309272
0.0309493
0.0309717
0.0309943
0.0310171
0.0310401
0.0310633
0.0310866
0.03111
0.0311336
0.0311572
0.031181
0.0312048
0.0312287
0.0312526
0.0312766
0.0313006
0.0313246
0.0313486
0.0313726
0.0313966
0.0314206
0.0314445
0.0314684
0.0314922
0.0315159
0.0315396
0.0315653
0.031599
0.0316527
0.0305666
0.0305801
0.0305942
0.0306088
0.0306241
0.0306399
0.0306562
0.0306731
0.0306904
0.0307083
0.0307267
0.0307454
0.0307647
0.0307843
0.0308043
0.0308247
0.0308454
0.0308665
0.0308878
0.0309095
0.0309314
0.0309535
0.0309759
0.0309985
0.0310213
0.0310443
0.0310675
0.0310908
0.0311142
0.0311378
0.0311614
0.0311851
0.0312089
0.0312328
0.0312567
0.0312807
0.0313047
0.0313286
0.0313526
0.0313766
0.0314006
0.0314245
0.0314484
0.0314722
0.031496
0.0315198
0.0315434
0.0315697
0.0316057
0.0316646
0.0305699
0.0305835
0.0305977
0.0306125
0.0306279
0.0306438
0.0306602
0.0306772
0.0306946
0.0307126
0.030731
0.0307498
0.0307691
0.0307888
0.0308089
0.0308293
0.0308501
0.0308711
0.0308925
0.0309142
0.0309361
0.0309583
0.0309807
0.0310034
0.0310262
0.0310492
0.0310723
0.0310956
0.031119
0.0311426
0.0311662
0.0311899
0.0312137
0.0312376
0.0312615
0.0312854
0.0313093
0.0313333
0.0313572
0.0313812
0.0314051
0.031429
0.0314528
0.0314766
0.0315004
0.031524
0.0315479
0.0315754
0.0316144
0.0316802
0.0305736
0.0305874
0.0306017
0.0306166
0.0306321
0.0306481
0.0306647
0.0306818
0.0306993
0.0307174
0.0307359
0.0307548
0.0307741
0.0307939
0.030814
0.0308345
0.0308553
0.0308764
0.0308978
0.0309195
0.0309415
0.0309637
0.0309861
0.0310088
0.0310316
0.0310546
0.0310778
0.0311011
0.0311245
0.031148
0.0311716
0.0311953
0.0312191
0.0312429
0.0312668
0.0312907
0.0313146
0.0313385
0.0313625
0.0313864
0.0314102
0.0314341
0.0314579
0.0314816
0.0315053
0.0315289
0.0315532
0.0315823
0.0316254
0.0317001
0.0305777
0.0305916
0.0306061
0.0306212
0.0306368
0.030653
0.0306697
0.0306869
0.0307045
0.0307227
0.0307412
0.0307603
0.0307797
0.0307995
0.0308197
0.0308402
0.0308611
0.0308822
0.0309037
0.0309255
0.0309475
0.0309697
0.0309921
0.0310148
0.0310376
0.0310606
0.0310838
0.0311071
0.0311305
0.031154
0.0311776
0.0312013
0.0312251
0.0312489
0.0312727
0.0312966
0.0313205
0.0313444
0.0313683
0.0313921
0.031416
0.0314398
0.0314635
0.0314872
0.0315108
0.0315344
0.0315593
0.0315907
0.0316393
0.0317257
0.0305822
0.0305963
0.030611
0.0306262
0.030642
0.0306583
0.0306751
0.0306924
0.0307102
0.0307284
0.0307471
0.0307662
0.0307857
0.0308056
0.0308259
0.0308465
0.0308674
0.0308886
0.0309102
0.0309319
0.030954
0.0309762
0.0309987
0.0310214
0.0310442
0.0310673
0.0310904
0.0311137
0.0311371
0.0311607
0.0311843
0.0312079
0.0312317
0.0312555
0.0312793
0.0313031
0.031327
0.0313508
0.0313747
0.0313985
0.0314223
0.0314461
0.0314698
0.0314934
0.031517
0.0315405
0.0315663
0.0316009
0.0316567
0.0317584
0.0305871
0.0306014
0.0306163
0.0306317
0.0306476
0.0306641
0.030681
0.0306985
0.0307164
0.0307347
0.0307535
0.0307727
0.0307923
0.0308123
0.0308326
0.0308533
0.0308743
0.0308956
0.0309171
0.030939
0.030961
0.0309833
0.0310058
0.0310285
0.0310514
0.0310744
0.0310976
0.0311209
0.0311443
0.0311678
0.0311914
0.0312151
0.0312388
0.0312626
0.0312864
0.0313102
0.031334
0.0313579
0.0313817
0.0314054
0.0314292
0.0314529
0.0314766
0.0315002
0.0315237
0.0315475
0.0315748
0.0316136
0.0316792
0.0318006
0.0305923
0.0306069
0.030622
0.0306376
0.0306537
0.0306703
0.0306874
0.030705
0.030723
0.0307415
0.0307604
0.0307797
0.0307994
0.0308194
0.0308399
0.0308606
0.0308817
0.030903
0.0309246
0.0309465
0.0309686
0.030991
0.0310135
0.0310362
0.0310591
0.0310822
0.0311054
0.0311287
0.0311521
0.0311756
0.0311992
0.0312228
0.0312465
0.0312703
0.031294
0.0313178
0.0313416
0.0313654
0.0313892
0.0314129
0.0314366
0.0314603
0.0314839
0.0315074
0.0315308
0.0315552
0.031585
0.0316298
0.0317084
0.0318551
0.030598
0.0306129
0.0306281
0.0306439
0.0306602
0.030677
0.0306942
0.0307119
0.0307301
0.0307487
0.0307677
0.0307871
0.0308069
0.0308271
0.0308476
0.0308684
0.0308895
0.030911
0.0309326
0.0309546
0.0309767
0.0309991
0.0310217
0.0310444
0.0310674
0.0310904
0.0311136
0.0311369
0.0311604
0.0311839
0.0312074
0.0312311
0.0312548
0.0312785
0.0313022
0.031326
0.0313498
0.0313735
0.0313972
0.0314209
0.0314446
0.0314682
0.0314917
0.0315152
0.0315386
0.031564
0.0315973
0.0316504
0.0317465
0.0319256
0.0306041
0.0306192
0.0306347
0.0306507
0.0306671
0.0306841
0.0307015
0.0307193
0.0307376
0.0307564
0.0307755
0.030795
0.0308149
0.0308352
0.0308558
0.0308767
0.0308979
0.0309194
0.0309411
0.0309631
0.0309853
0.0310078
0.0310304
0.0310532
0.0310761
0.0310992
0.0311224
0.0311457
0.0311691
0.0311926
0.0312162
0.0312398
0.0312635
0.0312872
0.0313109
0.0313347
0.0313584
0.0313821
0.0314058
0.0314294
0.0314531
0.0314766
0.0315001
0.0315235
0.0315472
0.0315742
0.0316126
0.0316771
0.0317965
0.0320159
0.0306106
0.0306259
0.0306416
0.0306578
0.0306745
0.0306916
0.0307092
0.0307272
0.0307456
0.0307645
0.0307837
0.0308034
0.0308234
0.0308438
0.0308645
0.0308855
0.0309067
0.0309283
0.0309501
0.0309722
0.0309944
0.0310169
0.0310396
0.0310624
0.0310853
0.0311085
0.0311317
0.031155
0.0311784
0.0312019
0.0312255
0.0312491
0.0312728
0.0312964
0.0313201
0.0313438
0.0313675
0.0313912
0.0314148
0.0314384
0.031462
0.0314855
0.0315089
0.0315322
0.0315567
0.0315867
0.0316322
0.0317126
0.0318624
0.0321312
0.0306175
0.030633
0.030649
0.0306654
0.0306822
0.0306995
0.0307172
0.0307354
0.030754
0.030773
0.0307924
0.0308122
0.0308323
0.0308528
0.0308735
0.0308946
0.030916
0.0309377
0.0309595
0.0309817
0.031004
0.0310265
0.0310492
0.031072
0.031095
0.0311182
0.0311414
0.0311648
0.0311882
0.0312117
0.0312352
0.0312588
0.0312825
0.0313061
0.0313298
0.0313535
0.0313771
0.0314008
0.0314244
0.0314479
0.0314714
0.0314949
0.0315183
0.0315416
0.0315673
0.0316018
0.0316578
0.0317598
0.031949
0.0322767
0.0306248
0.0306406
0.0306567
0.0306733
0.0306904
0.0307078
0.0307257
0.030744
0.0307628
0.0307819
0.0308014
0.0308213
0.0308416
0.0308622
0.0308831
0.0309043
0.0309257
0.0309474
0.0309694
0.0309916
0.031014
0.0310365
0.0310593
0.0310822
0.0311052
0.0311283
0.0311516
0.0311749
0.0311984
0.0312219
0.0312454
0.031269
0.0312926
0.0313163
0.0313399
0.0313635
0.0313872
0.0314108
0.0314343
0.0314578
0.0314813
0.0315046
0.0315279
0.0315518
0.0315799
0.031621
0.0316917
0.0318229
0.0320615
0.0324566
0.0306324
0.0306485
0.0306649
0.0306816
0.0306988
0.0307165
0.0307345
0.030753
0.0307719
0.0307912
0.0308109
0.0308309
0.0308513
0.030872
0.030893
0.0309143
0.0309358
0.0309576
0.0309797
0.0310019
0.0310244
0.031047
0.0310698
0.0310927
0.0311157
0.0311389
0.0311622
0.0311856
0.031209
0.0312325
0.031256
0.0312796
0.0313032
0.0313268
0.0313504
0.031374
0.0313976
0.0314212
0.0314447
0.0314681
0.0314915
0.0315148
0.0315381
0.0315631
0.0315953
0.0316462
0.0317376
0.0319076
0.0322064
0.032675
0.0306405
0.0306568
0.0306734
0.0306903
0.0307077
0.0307255
0.0307437
0.0307623
0.0307814
0.0308008
0.0308206
0.0308408
0.0308613
0.0308822
0.0309033
0.0309247
0.0309463
0.0309682
0.0309903
0.0310126
0.0310351
0.0310578
0.0310806
0.0311036
0.0311267
0.0311499
0.0311732
0.0311966
0.03122
0.0312435
0.031267
0.0312906
0.0313142
0.0313378
0.0313613
0.0313849
0.0314084
0.0314319
0.0314554
0.0314788
0.0315022
0.0315254
0.031549
0.0315761
0.0316147
0.0316798
0.0317999
0.0320196
0.0323888
0.0329346
0.030649
0.0306655
0.0306822
0.0306993
0.0307168
0.0307348
0.0307532
0.030772
0.0307912
0.0308108
0.0308308
0.0308511
0.0308717
0.0308927
0.0309139
0.0309354
0.0309572
0.0309792
0.0310013
0.0310237
0.0310463
0.031069
0.0310919
0.0311149
0.031138
0.0311612
0.0311845
0.0312079
0.0312314
0.0312549
0.0312784
0.0313019
0.0313255
0.0313491
0.0313726
0.0313961
0.0314196
0.0314431
0.0314665
0.0314898
0.0315131
0.0315363
0.0315609
0.031592
0.0316402
0.0317258
0.0318848
0.032166
0.0326126
0.0332352
0.0306578
0.0306745
0.0306913
0.0307085
0.0307262
0.0307444
0.0307629
0.0307819
0.0308013
0.0308211
0.0308412
0.0308617
0.0308825
0.0309036
0.0309249
0.0309465
0.0309684
0.0309904
0.0310127
0.0310352
0.0310578
0.0310806
0.0311035
0.0311265
0.0311497
0.0311729
0.0311962
0.0312196
0.0312431
0.0312666
0.0312901
0.0313136
0.0313371
0.0313607
0.0313842
0.0314077
0.0314312
0.0314546
0.0314779
0.0315012
0.0315245
0.0315479
0.0315746
0.0316121
0.0316747
0.0317894
0.0319991
0.0323533
0.0328816
0.0335783
0.0306671
0.0306837
0.0307006
0.030718
0.0307359
0.0307542
0.030773
0.0307922
0.0308118
0.0308317
0.030852
0.0308726
0.0308935
0.0309147
0.0309362
0.0309579
0.0309799
0.031002
0.0310244
0.0310469
0.0310696
0.0310924
0.0311154
0.0311385
0.0311616
0.0311849
0.0312082
0.0312316
0.0312551
0.0312785
0.0313021
0.0313256
0.0313491
0.0313726
0.0313961
0.0314195
0.0314429
0.0314663
0.0314896
0.0315129
0.031536
0.0315606
0.0315915
0.031639
0.0317227
0.0318771
0.0321501
0.0325852
0.0331953
0.0339643
0.0306768
0.0306932
0.0307102
0.0307278
0.0307459
0.0307644
0.0307834
0.0308028
0.0308225
0.0308427
0.0308631
0.0308839
0.0309049
0.0309263
0.0309478
0.0309697
0.0309917
0.0310139
0.0310364
0.031059
0.0310817
0.0311046
0.0311276
0.0311507
0.0311739
0.0311972
0.0312205
0.0312439
0.0312674
0.0312908
0.0313143
0.0313378
0.0313613
0.0313848
0.0314082
0.0314316
0.031455
0.0314783
0.0315016
0.0315248
0.0315484
0.0315754
0.0316134
0.0316762
0.03179
0.0319965
0.0323444
0.0328643
0.0335522
0.0343901
0.0306769
0.0306933
0.0307103
0.0307279
0.030746
0.0307646
0.0307836
0.0308029
0.0308227
0.0308428
0.0308633
0.0308841
0.0309051
0.0309265
0.030948
0.0309699
0.0309919
0.0310142
0.0310366
0.0310592
0.0310819
0.0311048
0.0311278
0.031151
0.0311742
0.0311974
0.0312208
0.0312442
0.0312676
0.0312911
0.0313146
0.0313381
0.0313616
0.0313851
0.0314085
0.0314319
0.0314553
0.0314786
0.0315019
0.0315251
0.0315486
0.0315757
0.0316137
0.0316765
0.0317903
0.0319968
0.0323446
0.0328644
0.0335521
0.03439
0.0306675
0.0306841
0.030701
0.0307184
0.0307363
0.0307547
0.0307735
0.0307927
0.0308123
0.0308322
0.0308525
0.0308732
0.0308941
0.0309153
0.0309368
0.0309586
0.0309805
0.0310027
0.0310251
0.0310476
0.0310703
0.0310932
0.0311161
0.0311392
0.0311624
0.0311857
0.031209
0.0312324
0.0312559
0.0312794
0.0313029
0.0313264
0.0313499
0.0313734
0.0313969
0.0314204
0.0314438
0.0314672
0.0314905
0.0315137
0.0315369
0.0315615
0.0315924
0.0316399
0.0317235
0.0318779
0.0321507
0.0325856
0.0331954
0.0339639
0.0306584
0.0306751
0.030692
0.0307092
0.0307269
0.0307451
0.0307637