/*--------------------------------*- C++ -*----------------------------------*\
  =========                 |
  \\      /  F ield         | OpenFOAM: The Open Source CFD Toolbox
   \\    /   O peration     | Website:  https://openfoam.org
    \\  /    A nd           | Version:  7
     \\/     M anipulation  |
\*---------------------------------------------------------------------------*/
FoamFile
{
    version     2.0;
    format      ascii;
    class       volScalarField;
    location    "80000";
    object      strainRate;
}
// * * * * * * * * * * * * * * * * * * * * * * * * * * * * * * * * * * * * * //

dimensions      [0 0 -1 0 0 0 0];

internalField   nonuniform List<scalar> 
4783
(
3.86217e-05
3.74753e-05
3.69065e-05
3.59859e-05
3.48625e-05
3.3623e-05
3.23061e-05
3.09341e-05
2.95215e-05
2.80797e-05
2.66181e-05
2.5145e-05
2.36689e-05
2.21983e-05
2.07427e-05
1.93133e-05
1.79231e-05
1.65881e-05
1.5328e-05
1.41666e-05
1.31552e-05
1.23165e-05
4.4947e-05
4.15504e-05
4.10894e-05
4.0232e-05
3.90929e-05
3.77794e-05
3.63569e-05
3.48642e-05
3.33254e-05
3.1757e-05
3.01713e-05
2.85787e-05
2.6989e-05
2.54121e-05
2.38589e-05
2.23416e-05
2.0875e-05
1.94763e-05
1.81662e-05
1.69688e-05
1.59279e-05
1.50828e-05
4.70329e-05
4.29849e-05
4.23882e-05
4.1675e-05
4.07525e-05
3.96451e-05
3.83958e-05
3.70431e-05
3.56162e-05
3.41374e-05
3.2624e-05
3.10907e-05
2.95508e-05
2.80176e-05
2.65047e-05
2.5027e-05
2.36013e-05
2.22466e-05
2.09842e-05
1.98378e-05
1.88459e-05
1.80425e-05
4.94593e-05
4.52314e-05
4.4375e-05
4.35844e-05
4.27091e-05
4.17033e-05
4.05684e-05
3.93242e-05
3.79938e-05
3.65988e-05
3.51582e-05
3.36891e-05
3.22073e-05
3.07281e-05
2.92674e-05
2.78419e-05
2.64695e-05
2.517e-05
2.39647e-05
2.28761e-05
2.1938e-05
2.11807e-05
5.21432e-05
4.78796e-05
4.68271e-05
4.59054e-05
4.49857e-05
4.39994e-05
4.29197e-05
4.17458e-05
4.04891e-05
3.9166e-05
3.77936e-05
3.63889e-05
3.49685e-05
3.35489e-05
3.21471e-05
3.07806e-05
2.94681e-05
2.82292e-05
2.70848e-05
2.60558e-05
2.51716e-05
2.44597e-05
5.50148e-05
5.07689e-05
4.95804e-05
4.85385e-05
4.75446e-05
4.65331e-05
4.54659e-05
4.43286e-05
4.31221e-05
4.18556e-05
4.05425e-05
3.91978e-05
3.78376e-05
3.64785e-05
3.51374e-05
3.38322e-05
3.25814e-05
3.14043e-05
3.03205e-05
2.93494e-05
2.85168e-05
2.78475e-05
5.8014e-05
5.38126e-05
5.25301e-05
5.13932e-05
5.03259e-05
4.92725e-05
4.81942e-05
4.70705e-05
4.58949e-05
4.46705e-05
4.34065e-05
4.21153e-05
4.08112e-05
3.951e-05
3.82281e-05
3.6983e-05
3.57925e-05
3.46751e-05
3.36491e-05
3.27325e-05
3.19477e-05
3.13173e-05
6.1092e-05
5.6953e-05
5.56064e-05
5.43987e-05
5.32699e-05
5.21739e-05
5.10755e-05
4.99525e-05
4.87948e-05
4.76012e-05
4.6377e-05
4.5132e-05
4.38785e-05
4.26308e-05
4.14044e-05
4.02158e-05
3.9082e-05
3.80205e-05
3.70482e-05
3.61815e-05
3.54401e-05
3.48445e-05
6.42111e-05
6.0148e-05
5.87595e-05
5.75018e-05
5.63258e-05
5.51936e-05
5.40745e-05
5.29472e-05
5.18001e-05
5.06294e-05
4.94378e-05
4.82325e-05
4.70237e-05
4.58243e-05
4.46485e-05
4.35117e-05
4.24299e-05
4.14194e-05
4.0496e-05
3.96742e-05
3.89713e-05
3.84059e-05
6.73415e-05
6.3365e-05
6.19521e-05
6.06614e-05
5.94522e-05
5.82928e-05
5.71568e-05
5.6025e-05
5.48854e-05
5.37331e-05
5.25688e-05
5.13977e-05
5.02284e-05
4.9072e-05
4.79415e-05
4.6851e-05
4.58158e-05
4.48511e-05
4.39713e-05
4.31894e-05
4.252e-05
4.19795e-05
7.04602e-05
6.65789e-05
6.51554e-05
6.38457e-05
6.26156e-05
6.14384e-05
6.02913e-05
5.91573e-05
5.8025e-05
5.68888e-05
5.57483e-05
5.46073e-05
5.34729e-05
5.23546e-05
5.1264e-05
5.02142e-05
4.92199e-05
4.82952e-05
4.74537e-05
4.67073e-05
4.60666e-05
4.55436e-05
7.3549e-05
6.97695e-05
6.83464e-05
6.70294e-05
6.57892e-05
6.46029e-05
6.3451e-05
6.23184e-05
6.11946e-05
6.00739e-05
5.89551e-05
5.7841e-05
5.67375e-05
5.56528e-05
5.45971e-05
5.35821e-05
5.26226e-05
5.17323e-05
5.09231e-05
5.02088e-05
4.95943e-05
4.90757e-05
7.65932e-05
7.29207e-05
7.15071e-05
7.01923e-05
6.89509e-05
6.77634e-05
6.66127e-05
6.54856e-05
6.43723e-05
6.32673e-05
6.21688e-05
6.1079e-05
6.00032e-05
5.89481e-05
5.79227e-05
5.69363e-05
5.60053e-05
5.51437e-05
5.43586e-05
5.36762e-05
5.30359e-05
5.25018e-05
7.95813e-05
7.60194e-05
7.46227e-05
7.33179e-05
7.20831e-05
7.09011e-05
6.9757e-05
6.86391e-05
6.75386e-05
6.64499e-05
6.53707e-05
6.43028e-05
6.32517e-05
6.22223e-05
6.12241e-05
6.02589e-05
5.93495e-05
5.85139e-05
5.77387e-05
5.70027e-05
5.63208e-05
5.57479e-05
8.25035e-05
7.90551e-05
7.76812e-05
7.63929e-05
7.51709e-05
7.4e-05
7.28673e-05
7.1762e-05
7.06762e-05
6.96045e-05
6.85435e-05
6.74944e-05
6.64658e-05
6.5457e-05
6.4487e-05
6.35325e-05
6.26373e-05
6.17767e-05
6.09649e-05
6.01763e-05
8.53521e-05
8.20188e-05
8.06727e-05
7.94062e-05
7.82022e-05
7.70471e-05
7.59293e-05
7.48391e-05
7.37696e-05
7.27153e-05
7.16717e-05
7.06358e-05
6.96299e-05
6.86339e-05
6.7643e-05
6.66897e-05
6.57709e-05
6.48821e-05
6.40332e-05
8.81206e-05
8.49033e-05
8.35889e-05
8.23485e-05
8.11666e-05
8.0031e-05
7.89309e-05
7.78573e-05
7.68044e-05
7.57677e-05
7.47424e-05
7.37106e-05
7.26724e-05
7.16525e-05
7.06364e-05
6.96668e-05
6.87392e-05
9.08034e-05
8.77025e-05
8.64231e-05
8.52122e-05
8.40556e-05
8.29421e-05
8.18616e-05
8.08048e-05
7.9767e-05
7.87501e-05
7.76838e-05
7.66196e-05
7.55455e-05
7.44941e-05
9.33961e-05
9.04113e-05
8.91694e-05
8.79907e-05
8.68615e-05
8.57718e-05
8.47123e-05
8.36709e-05
8.26484e-05
8.1562e-05
8.04527e-05
7.93492e-05
9.58946e-05
9.30252e-05
9.18229e-05
9.06785e-05
8.95781e-05
8.85126e-05
8.74749e-05
8.64505e-05
8.53519e-05
8.42073e-05
9.82955e-05
9.55404e-05
9.43792e-05
9.32709e-05
9.21999e-05
9.11564e-05
9.01468e-05
8.9048e-05
8.78895e-05
0.000100596
9.79534e-05
9.68345e-05
9.57641e-05
9.47228e-05
9.36987e-05
9.26321e-05
9.14774e-05
0.000102794
0.000100261
9.91851e-05
9.81545e-05
9.71449e-05
9.61155e-05
9.49563e-05
0.000104888
0.000102462
0.000101427
0.000100438
9.94712e-05
9.8365e-05
0.000106876
0.000104552
0.000103558
0.000102613
0.000101606
0.000100484
0.000108757
0.000106532
0.000105573
0.000104658
0.000103576
0.000110533
0.000108401
0.000107472
0.000106529
0.000112203
0.000110161
0.000109238
0.000108277
0.000113769
0.000111815
0.000110896
0.000115233
0.000113371
0.00011248
0.000116593
0.000114831
0.000113983
0.000117848
0.000116189
0.000115398
0.000118995
0.000117442
0.000116709
0.000120033
0.000118586
0.00011791
0.000120957
0.000119617
0.000118999
0.000121765
0.000120534
0.000119974
0.000122453
0.000121333
0.000120832
0.000123017
0.00012201
0.000121573
0.000123451
0.000122559
0.000122196
0.000125424
0.00012302
0.000122702
0.000137733
0.000127772
0.000124051
0.000179465
0.000150681
0.000134781
3.82466e-05
4.46871e-05
4.67755e-05
4.92216e-05
5.19237e-05
5.48118e-05
5.78261e-05
6.09182e-05
6.40501e-05
6.71927e-05
7.03228e-05
7.34225e-05
7.64772e-05
7.94755e-05
8.24079e-05
8.52668e-05
8.80456e-05
9.07393e-05
9.33433e-05
9.5854e-05
9.82683e-05
0.000100584
0.000102798
0.00010491
0.000106918
0.000108822
0.000110621
0.000112314
0.000113902
0.000115384
0.000116758
0.000118023
0.000119177
0.000120216
0.000121138
0.000121939
0.000122614
0.000123158
0.000123563
0.000125525
0.000137861
0.000179586
3.75867e-05
4.16292e-05
4.30603e-05
4.52987e-05
4.79393e-05
5.08219e-05
5.38598e-05
5.69955e-05
6.01866e-05
6.34008e-05
6.66128e-05
6.98024e-05
7.29536e-05
7.60532e-05
7.90909e-05
8.20577e-05
8.49467e-05
8.77519e-05
9.04684e-05
9.30921e-05
9.56196e-05
9.8048e-05
0.000100375
0.000102599
0.000104719
0.000106732
0.00010864
0.000110439
0.000112131
0.000113713
0.000115186
0.000116547
0.000117795
0.000118927
0.000119941
0.000120833
0.0001216
0.000122237
0.000122737
0.000123143
0.00012785
0.000150696
3.70292e-05
4.11981e-05
4.24967e-05
4.44757e-05
4.6918e-05
4.96617e-05
5.26029e-05
5.5672e-05
5.88193e-05
6.20074e-05
6.52076e-05
6.83969e-05
7.15573e-05
7.46741e-05
7.77354e-05
8.07314e-05
8.36542e-05
8.64973e-05
8.9255e-05
9.19229e-05
9.44973e-05
9.69749e-05
9.93532e-05
0.00010163
0.000103804
0.000105873
0.000107836
0.000109692
0.00011144
0.000113079
0.000114608
0.000116025
0.000117329
0.000118517
0.000119588
0.000120537
0.000121362
0.000122058
0.00012262
0.000123043
0.000124333
0.000134986
3.61235e-05
4.03624e-05
4.18084e-05
4.37112e-05
4.60218e-05
4.86436e-05
5.14877e-05
5.44841e-05
5.75795e-05
6.07332e-05
6.39132e-05
6.70944e-05
7.02565e-05
7.33832e-05
7.64615e-05
7.94803e-05
8.2431e-05
8.53061e-05
8.80995e-05
9.08063e-05
9.34223e-05
9.59438e-05
9.83681e-05
0.000100693
0.000102915
0.000105035
0.000107049
0.000108957
0.000110757
0.000112449
0.000114031
0.000115501
0.000116857
0.000118099
0.000119223
0.000120227
0.000121106
0.000121856
0.000122471
0.000122944
0.000123169
0.000127526
3.502e-05
3.92444e-05
4.09076e-05
4.2858e-05
4.51236e-05
4.76702e-05
5.04394e-05
5.33725e-05
5.64191e-05
5.95381e-05
6.26959e-05
6.58659e-05
6.90262e-05
7.21592e-05
7.52504e-05
7.82881e-05
8.12626e-05
8.41657e-05
8.69908e-05
8.97324e-05
9.23858e-05
9.49472e-05
9.74133e-05
9.97814e-05
0.000102049
0.000104215
0.000106276
0.000108232
0.000110081
0.000111822
0.000113453
0.000114972
0.000116379
0.000117671
0.000118847
0.000119902
0.000120834
0.000121638
0.000122309
0.000122841
0.000123105
0.000124313
3.37998e-05
3.79503e-05
3.98185e-05
4.18702e-05
4.41549e-05
4.66752e-05
4.94014e-05
5.22905e-05
5.52996e-05
5.839e-05
6.15289e-05
6.46887e-05
6.7847e-05
7.09851e-05
7.40877e-05
7.71421e-05
8.01378e-05
8.30663e-05
8.59202e-05
8.86936e-05
9.13815e-05
9.39795e-05
9.64842e-05
9.88925e-05
0.000101202
0.00010341
0.000105515
0.000107516
0.00010941
0.000111196
0.000112874
0.00011444
0.000115894
0.000117233
0.000118456
0.000119559
0.000120538
0.000121391
0.000122111
0.000122694
0.000123012
0.000123093
3.25013e-05
3.65455e-05
3.85851e-05
4.07502e-05
4.30893e-05
4.56213e-05
4.83354e-05
5.12033e-05
5.41905e-05
5.7263e-05
6.03896e-05
6.35437e-05
6.67025e-05
6.98469e-05
7.2961e-05
7.60316e-05
7.90477e-05
8.2e-05
8.4881e-05
8.76842e-05
9.04042e-05
9.30364e-05
9.55771e-05
9.80229e-05
0.000100371
0.000102619
0.000104766
0.000106808
0.000108745
0.000110574
0.000112295
0.000113905
0.000115403
0.000116787
0.000118054
0.000119201
0.000120225
0.00012112
0.000121881
0.0001225
0.000122849
0.000122922
3.1146e-05
3.50686e-05
3.72459e-05
3.9518e-05
4.19264e-05
4.44942e-05
4.7221e-05
5.00888e-05
5.30708e-05
5.61378e-05
5.92614e-05
6.24162e-05
6.55799e-05
6.87335e-05
7.18609e-05
7.49485e-05
7.7985e-05
8.09608e-05
8.3868e-05
8.66996e-05
8.94502e-05
9.21149e-05
9.46896e-05
9.71708e-05
9.95557e-05
0.000101842
0.000104026
0.000106108
0.000108085
0.000109955
0.000111717
0.000113369
0.000114909
0.000116336
0.000117646
0.000118837
0.000119906
0.00012085
0.000121663
0.000122343
0.000122773
0.000122961
2.97485e-05
3.35437e-05
3.58303e-05
3.8197e-05
4.0678e-05
4.3295e-05
4.6052e-05
4.8937e-05
5.1929e-05
5.50029e-05
5.81332e-05
6.12962e-05
6.44704e-05
6.76373e-05
7.07807e-05
7.38872e-05
7.69451e-05
7.99447e-05
8.28777e-05
8.57373e-05
8.85174e-05
9.12132e-05
9.38204e-05
9.63354e-05
9.8755e-05
0.000101077
0.000103298
0.000105417
0.000107432
0.000109341
0.000111142
0.000112834
0.000114414
0.000115881
0.000117232
0.000118464
0.000119573
0.000120553
0.0001214
0.000122104
0.000122544
0.000122713
2.83195e-05
3.19867e-05
3.43601e-05
3.68087e-05
3.93602e-05
4.2033e-05
4.48315e-05
4.77468e-05
5.07615e-05
5.38535e-05
5.7e-05
6.01788e-05
6.33695e-05
6.65541e-05
6.97169e-05
7.28445e-05
7.59253e-05
7.89495e-05
8.19087e-05
8.47959e-05
8.7605e-05
9.0331e-05
9.29695e-05
9.55167e-05
9.79696e-05
0.000100325
0.000102581
0.000104736
0.000106786
0.000108732
0.00011057
0.0001123
0.000113919
0.000115426
0.000116818
0.000118091
0.000119244
0.000120271
0.000121168
0.000121927
0.000122431
0.000122679
2.6868e-05
3.04097e-05
3.28524e-05
3.53718e-05
3.79901e-05
4.07214e-05
4.35686e-05
4.65237e-05
4.95709e-05
5.26906e-05
5.58616e-05
5.90631e-05
6.2276e-05
6.54829e-05
6.86686e-05
7.18198e-05
7.49252e-05
7.7975e-05
8.09609e-05
8.38758e-05
8.67135e-05
8.9469e-05
9.21378e-05
9.47161e-05
9.72006e-05
9.95887e-05
0.000101878
0.000104066
0.00010615
0.00010813
0.000110004
0.00011177
0.000113425
0.000114969
0.000116399
0.000117713
0.000118907
0.000119979
0.000120925
0.000121739
0.000122303
0.000122601
2.54019e-05
2.88224e-05
3.13213e-05
3.39029e-05
3.65843e-05
3.93751e-05
4.22755e-05
4.5277e-05
4.83644e-05
5.15193e-05
5.47217e-05
5.79522e-05
6.11923e-05
6.44256e-05
6.76374e-05
7.08147e-05
7.39464e-05
7.70229e-05
8.0036e-05
8.29786e-05
8.58447e-05
8.86291e-05
9.13273e-05
9.39355e-05
9.64505e-05
9.88693e-05
0.00010119
0.000103409
0.000105526
0.000107539
0.000109445
0.000111244
0.000112933
0.000114511
0.000115976
0.000117324
0.000118554
0.00011966
0.000120638
0.000121482
0.000122189
0.00012261
0.000122767
2.39285e-05
2.72338e-05
2.97794e-05
3.24171e-05
3.51588e-05
3.80094e-05
4.09662e-05
4.40188e-05
4.71521e-05
5.0348e-05
5.35874e-05
5.68517e-05
6.01234e-05
6.33866e-05
6.66272e-05
6.98326e-05
7.29921e-05
7.60963e-05
7.91371e-05
8.21075e-05
8.50015e-05
8.78141e-05
9.05409e-05
9.31779e-05
9.57219e-05
9.81702e-05
0.00010052
0.00010277
0.000104917
0.00010696
0.000108897
0.000110727
0.000112448
0.000114058
0.000115556
0.000116938
0.000118203
0.000119347
0.000120366
0.000121255
0.000122009
0.000122625
0.000122957
0.000123048
2.24556e-05
2.56528e-05
2.8239e-05
3.09289e-05
3.37294e-05
3.66404e-05
3.96556e-05
4.27628e-05
4.59461e-05
4.91873e-05
5.24679e-05
5.57698e-05
5.90763e-05
6.23722e-05
6.56437e-05
6.88788e-05
7.20672e-05
7.51996e-05
7.82682e-05
8.12663e-05
8.41879e-05
8.7028e-05
8.97822e-05
9.24469e-05
9.50187e-05
9.74948e-05
9.98728e-05
0.000102151
0.000104326
0.000106398
0.000108364
0.000110223
0.000111974
0.000113615
0.000115144
0.000116559
0.000117859
0.000119041
0.000120102
0.000121039
0.00012185
0.000122532
0.000122965
0.00012314
2.0991e-05
2.40886e-05
2.67125e-05
2.94531e-05
3.23121e-05
3.52841e-05
3.83595e-05
4.15238e-05
4.47599e-05
4.80494e-05
5.13741e-05
5.47163e-05
5.80599e-05
6.13901e-05
6.4694e-05
6.79598e-05
7.11776e-05
7.43384e-05
7.74348e-05
8.046e-05
8.34084e-05
8.6275e-05
8.90556e-05
9.17466e-05
9.43446e-05
9.6847e-05
9.92514e-05
0.000101556
0.000103758
0.000105856
0.000107849
0.000109736
0.000111514
0.000113183
0.000114741
0.000116186
0.000117515
0.000118727
0.000119818
0.000120783
0.000121618
0.000122314
0.000122867
0.000123123
0.000123113
1.9544e-05
2.2552e-05
2.52131e-05
2.8005e-05
3.09232e-05
3.39575e-05
3.70944e-05
4.03174e-05
4.3608e-05
4.69476e-05
5.0318e-05
5.37019e-05
5.70838e-05
6.04494e-05
6.37861e-05
6.70829e-05
7.03301e-05
7.3519e-05
7.66425e-05
7.96941e-05
8.26682e-05
8.55602e-05
8.83658e-05
9.10815e-05
9.37042e-05
9.62311e-05
9.866e-05
0.000100989
0.000103215
0.000105339
0.000107357
0.000109268
0.000111072
0.000112767
0.000114352
0.000115824
0.000117183
0.000118425
0.000119548
0.000120549
0.000121424
0.000122168
0.000122774
0.000123114
0.000123171
1.8125e-05
2.10552e-05
2.37558e-05
2.6601e-05
2.95801e-05
3.26778e-05
3.58772e-05
3.91596e-05
4.25055e-05
4.58957e-05
4.93122e-05
5.27383e-05
5.61586e-05
5.95595e-05
6.29289e-05
6.62562e-05
6.95321e-05
7.27483e-05
7.58979e-05
7.89746e-05
8.19731e-05
8.48889e-05
8.77178e-05
9.04565e-05
9.31019e-05
9.56514e-05
9.81027e-05
0.000100454
0.000102703
0.000104848
0.000106889
0.000108824
0.000110651
0.000112369
0.000113978
0.000115475
0.00011686
0.00011813
0.000119283
0.000120316
0.000121225
0.000122007
0.000122655
0.000123168
0.000123389
0.000124303
1.67474e-05
1.96132e-05
2.23577e-05
2.52594e-05
2.83013e-05
3.14634e-05
3.47256e-05
3.80671e-05
4.14677e-05
4.4908e-05
4.83699e-05
5.18372e-05
5.52951e-05
5.87304e-05
6.21314e-05
6.5488e-05
6.87913e-05
7.20333e-05
7.52074e-05
7.83076e-05
8.13288e-05
8.42665e-05
8.71168e-05
8.98765e-05
9.25425e-05
9.51123e-05
9.75837e-05
9.99548e-05
0.000102224
0.00010439
0.00010645
0.000108405
0.000110252
0.000111992
0.000113621
0.000115141
0.000116548
0.000117841
0.00011902
0.00012008
0.000121021
0.000121838
0.000122529
0.00012309
0.000123525
0.000123749
0.000130825
1.54275e-05
1.82442e-05
2.10385e-05
2.40004e-05
2.71068e-05
3.03333e-05
3.36573e-05
3.70566e-05
4.05101e-05
4.39985e-05
4.7504e-05
5.10107e-05
5.45042e-05
5.79719e-05
6.14027e-05
6.47867e-05
6.81154e-05
7.13813e-05
7.45779e-05
7.76995e-05
8.07412e-05
8.36986e-05
8.65681e-05
8.93463e-05
9.20306e-05
9.46183e-05
9.71074e-05
9.9496e-05
0.000101782
0.000103965
0.000106043
0.000108015
0.00010988
0.000111637
0.000113285
0.000114822
0.000116247
0.00011756
0.000118758
0.000119838
0.000120798
0.000121635
0.000122343
0.000122916
0.000123348
0.000123501
0.000128924
1.41863e-05
1.69706e-05
1.9821e-05
2.28462e-05
2.60176e-05
2.93073e-05
3.26907e-05
3.61447e-05
3.9648e-05
4.31812e-05
4.67271e-05
5.02701e-05
5.37963e-05
5.72937e-05
6.07515e-05
6.41603e-05
6.75119e-05
7.07992e-05
7.40158e-05
7.71563e-05
8.02159e-05
8.31906e-05
8.60767e-05
8.8871e-05
9.15708e-05
9.41738e-05
9.66779e-05
9.90812e-05
0.000101382
0.000103579
0.000105672
0.000107658
0.000109537
0.000111308
0.00011297
0.000114522
0.000115963
0.000117291
0.000118505
0.000119602
0.00012058
0.000121434
0.000122161
0.000122753
0.000123203
0.000123374
0.000127644
1.30509e-05
1.58197e-05
1.87313e-05
2.18211e-05
2.50557e-05
2.84051e-05
3.18436e-05
3.53475e-05
3.88958e-05
4.24693e-05
4.60512e-05
4.96263e-05
5.31814e-05
5.67048e-05
6.01862e-05
6.36165e-05
6.69879e-05
7.02935e-05
7.35272e-05
7.66837e-05
7.97585e-05
8.27476e-05
8.56475e-05
8.84551e-05
9.11677e-05
9.37832e-05
9.62993e-05
9.87145e-05
0.000101027
0.000103236
0.000105339
0.000107337
0.000109227
0.000111009
0.000112682
0.000114245
0.000115698
0.000117038
0.000118264
0.000119374
0.000120367
0.000121239
0.000121986
0.000122605
0.000123089
0.000123306
0.000126735
1.20548e-05
1.48237e-05
1.77985e-05
2.09503e-05
2.42433e-05
2.76463e-05
3.11331e-05
3.46804e-05
3.82671e-05
4.18748e-05
4.5487e-05
4.90891e-05
5.26683e-05
5.62133e-05
5.97142e-05
6.31622e-05
6.65498e-05
6.98702e-05
7.31177e-05
7.62871e-05
7.93739e-05
8.23744e-05
8.52851e-05
8.8103e-05
9.08255e-05
9.34504e-05
9.59757e-05
9.83997e-05
0.000100721
0.000102938
0.000105049
0.000107055
0.000108953
0.000110742
0.000112423
0.000113993
0.000115453
0.0001168
0.000118034
0.000119151
0.000120151
0.00012103
0.000121783
0.000122405
0.000122889
0.000123229
0.00012615
0.000143038
1.12385e-05
1.40188e-05
1.70526e-05
2.0259e-05
2.36015e-05
2.70487e-05
3.05747e-05
3.41565e-05
3.77738e-05
4.14083e-05
4.50441e-05
4.86671e-05
5.22648e-05
5.58264e-05
5.9342e-05
6.28034e-05
6.6203e-05
6.95345e-05
7.27921e-05
7.59709e-05
7.90665e-05
8.20751e-05
8.49935e-05
8.78186e-05
9.05479e-05
9.31793e-05
9.57108e-05
9.81406e-05
0.000100467
0.00010269
0.000104806
0.000106816
0.000108718
0.000110512
0.000112197
0.000113771
0.000115234
0.000116585
0.000117823
0.000118945
0.000119951
0.000120837
0.000121601
0.000122241
0.000122751
0.000123128
0.000125647
0.000140893
1.06459e-05
1.34417e-05
1.65224e-05
1.97701e-05
2.31489e-05
2.66277e-05
3.01814e-05
3.37873e-05
3.74255e-05
4.10783e-05
4.47301e-05
4.83671e-05
5.19772e-05
5.55496e-05
5.90749e-05
6.25449e-05
6.59522e-05
6.92907e-05
7.25546e-05
7.57391e-05
7.88399e-05
8.18534e-05
8.47761e-05
8.76053e-05
9.03384e-05
9.29732e-05
9.55078e-05
9.79405e-05
0.00010027
0.000102494
0.000104613
0.000106625
0.000108529
0.000110324
0.000112009
0.000113584
0.000115047
0.000116398
0.000117636
0.000118758
0.000119763
0.000120649
0.000121413
0.000122051
0.000122557
0.000122925
0.000125238
0.000139521
0.000187512
1.03173e-05
1.3124e-05
1.62313e-05
1.95016e-05
2.28996e-05
2.63949e-05
2.99627e-05
3.35807e-05
3.72293e-05
4.0891e-05
4.45505e-05
4.81941e-05
5.18098e-05
5.53871e-05
5.89166e-05
6.23902e-05
6.58007e-05
6.91418e-05
7.2408e-05
7.55945e-05
7.8697e-05
8.17118e-05
8.46357e-05
8.74657e-05
9.01995e-05
9.28348e-05
9.53697e-05
9.78024e-05
0.000100131
0.000102356
0.000104474
0.000106484
0.000108387
0.000110181
0.000111864
0.000113437
0.000114898
0.000116247
0.000117482
0.000118602
0.000119605
0.000120491
0.000121257
0.000121899
0.000122417
0.000122805
0.000124963
0.000138711
0.00018565
1.0279e-05
1.30856e-05
1.61934e-05
1.94639e-05
2.28618e-05
2.63568e-05
2.9924e-05
3.35414e-05
3.71892e-05
4.085e-05
4.45085e-05
4.8151e-05
5.17655e-05
5.53414e-05
5.88696e-05
6.23416e-05
6.57506e-05
6.909e-05
7.23544e-05
7.5539e-05
7.86396e-05
8.16523e-05
8.45741e-05
8.74019e-05
9.01333e-05
9.27662e-05
9.52984e-05
9.77284e-05
0.000100055
0.000102276
0.000104391
0.000106398
0.000108297
0.000110087
0.000111766
0.000113335
0.000114792
0.000116136
0.000117366
0.000118482
0.000119481
0.000120362
0.000121123
0.000121762
0.000122275
0.000122658
0.000124756
0.000138487
0.000185563
0.000303133
1.05339e-05
1.33287e-05
1.64105e-05
1.96585e-05
2.30367e-05
2.65144e-05
3.00664e-05
3.36703e-05
3.7306e-05
4.09561e-05
4.46048e-05
4.82384e-05
5.18448e-05
5.54132e-05
5.89343e-05
6.23998e-05
6.58024e-05
6.91358e-05
7.23945e-05
7.55735e-05
7.86685e-05
8.16759e-05
8.45922e-05
8.74148e-05
9.01409e-05
9.27684e-05
9.52954e-05
9.77201e-05
0.000100041
0.000102257
0.000104366
0.000106368
0.000108261
0.000110045
0.000111719
0.000113282
0.000114733
0.000116071
0.000117295
0.000118405
0.000119399
0.000120276
0.000121034
0.000121671
0.000122185
0.000122573
0.000124806
0.000139043
0.000187332
0.000307478
1.10612e-05
1.38379e-05
1.68718e-05
2.00774e-05
2.34182e-05
2.6863e-05
3.0386e-05
3.39641e-05
3.75771e-05
4.12069e-05
4.48375e-05
4.84548e-05
5.20464e-05
5.56013e-05
5.91099e-05
6.25638e-05
6.59556e-05
6.92788e-05
7.25278e-05
7.56975e-05
7.87835e-05
8.17822e-05
8.46901e-05
8.75044e-05
9.02224e-05
9.28419e-05
9.5361e-05
9.77778e-05
0.000100091
0.000102299
0.0001044
0.000106395
0.00010828
0.000110057
0.000111723
0.000113278
0.000114722
0.000116053
0.00011727
0.000118373
0.000119361
0.000120232
0.000120985
0.000121618
0.000122129
0.000122515
0.000125058
0.000140418
0.000191153
0.000316343
1.1823e-05
1.45837e-05
1.7556e-05
2.07047e-05
2.3994e-05
2.73927e-05
3.08746e-05
3.44162e-05
3.79968e-05
4.15976e-05
4.52023e-05
4.87964e-05
5.23669e-05
5.59027e-05
5.93938e-05
6.28315e-05
6.62082e-05
6.95172e-05
7.27527e-05
7.59096e-05
7.89834e-05
8.19703e-05
8.48668e-05
8.76699e-05
9.0377e-05
9.29859e-05
9.54945e-05
9.79011e-05
0.000100204
0.000102402
0.000104494
0.000106478
0.000108355
0.000110122
0.000111779
0.000113325
0.000114759
0.000116081
0.00011729
0.000118385
0.000119364
0.000120227
0.000120972
0.000121597
0.0001221
0.000122478
0.000125507
0.000142653
0.000197238
0.00033027
1.27752e-05
1.55302e-05
1.84353e-05
2.15186e-05
2.47467e-05
2.80893e-05
3.15204e-05
3.50165e-05
3.85562e-05
4.21206e-05
4.56926e-05
4.92573e-05
5.28013e-05
5.63129e-05
5.97818e-05
6.3199e-05
6.65567e-05
6.98478e-05
7.30665e-05
7.62074e-05
7.92659e-05
8.2238e-05
8.51202e-05
8.79095e-05
9.06031e-05
9.31988e-05
9.56945e-05
9.80885e-05
0.000100379
0.000102565
0.000104645
0.000106617
0.000108482
0.000110238
0.000111884
0.000113419
0.000114843
0.000116155
0.000117354
0.000118439
0.000119408
0.000120261
0.000120995
0.00012161
0.000122101
0.000122467
0.000126177
0.00014586
0.000205931
0.000350053
1.38762e-05
1.66406e-05
1.94795e-05
2.24943e-05
2.56556e-05
2.89355e-05
3.23088e-05
3.57523e-05
3.92446e-05
4.27663e-05
4.62999e-05
4.983e-05
5.33426e-05
5.68257e-05
6.02684e-05
6.36615e-05
6.69966e-05
7.02667e-05
7.34654e-05
7.65873e-05
7.96276e-05
8.25823e-05
8.54476e-05
8.82205e-05
9.08982e-05
9.34782e-05
9.59587e-05
9.83376e-05
0.000100613
0.000102785
0.00010485
0.000106809
0.00010866
0.000110403
0.000112036
0.000113559
0.000114971
0.000116271
0.000117459
0.000118533
0.000119492
0.000120335
0.00012106
0.000121664
0.000122144
0.000122496
0.000127111
0.000150228
0.000217776
0.000376876
1.50903e-05
1.78811e-05
2.0659e-05
2.36062e-05
2.66988e-05
2.9912e-05
3.32229e-05
3.66088e-05
4.00488e-05
4.35231e-05
4.70139e-05
5.05052e-05
5.39827e-05
5.74337e-05
6.08469e-05
6.42127e-05
6.75224e-05
7.07685e-05
7.39446e-05
7.7045e-05
8.00646e-05
8.29994e-05
8.58454e-05
8.85995e-05
9.12588e-05
9.3821e-05
9.62838e-05
9.86454e-05
0.000100904
0.000103059
0.000105108
0.000107051
0.000108886
0.000110613
0.000112231
0.000113739
0.000115137
0.000116424
0.0001176
0.000118663
0.000119613
0.000120448
0.000121168
0.000121769
0.000122247
0.000122596
0.000128394
0.00015608
0.000233635
0.000412473
1.63889e-05
1.92233e-05
2.19468e-05
2.48294e-05
2.78537e-05
3.0999e-05
3.42448e-05
3.75702e-05
4.09545e-05
4.43782e-05
4.78231e-05
5.12727e-05
5.47122e-05
5.81284e-05
6.15096e-05
6.48457e-05
6.81276e-05
7.13476e-05
7.44988e-05
7.75754e-05
8.05722e-05
8.34848e-05
8.63094e-05
8.90425e-05
9.16814e-05
9.42233e-05
9.66663e-05
9.90084e-05
0.000101248
0.000103383
0.000105414
0.000107338
0.000109154
0.000110863
0.000112463
0.000113953
0.000115334
0.000116604
0.000117764
0.000118813
0.000119751
0.00012058
0.000121299
0.000121912
0.000122422
0.000122838
0.000130268
0.000164081
0.000254886
0.000459238
1.77495e-05
2.06432e-05
2.33188e-05
2.6141e-05
2.90987e-05
3.21763e-05
3.53564e-05
3.86198e-05
4.19467e-05
4.53179e-05
4.8715e-05
5.21211e-05
5.55208e-05
5.89005e-05
6.22481e-05
6.55527e-05
6.88052e-05
7.19972e-05
7.51219e-05
7.81729e-05
8.11451e-05
8.40337e-05
8.68349e-05
8.95451e-05
9.21614e-05
9.46812e-05
9.71022e-05
9.94225e-05
0.00010164
0.000103754
0.000105763
0.000107666
0.000109461
0.000111148
0.000112726
0.000114195
0.000115553
0.0001168
0.000117935
0.000118958
0.000119868
0.000120664
0.000121344
0.000121906
0.000122349
0.000123559
0.000134305
0.000175879
0.000283023
0.000519525
1.91545e-05
2.21216e-05
2.47543e-05
2.75198e-05
3.04134e-05
3.34244e-05
3.65391e-05
3.97404e-05
4.30097e-05
4.63279e-05
4.96766e-05
5.30386e-05
5.63979e-05
5.97404e-05
6.30534e-05
6.63257e-05
6.95476e-05
7.27106e-05
7.58074e-05
7.88316e-05
8.17777e-05
8.46409e-05
8.7417e-05
9.01026e-05
9.26946e-05
9.51903e-05
9.75874e-05
9.98839e-05
0.000102078
0.000104168
0.000106153
0.000108032
0.000109803
0.000111466
0.00011302
0.000114463
0.000115796
0.000117016
0.000118123
0.000119116
0.000119993
0.000120751
0.000121388
0.000121901
0.000122285
0.000124788
0.000140302
0.000192124
0.000320314
0.000597187
2.05899e-05
2.36425e-05
2.62354e-05
2.89469e-05
3.17784e-05
3.47244e-05
3.7775e-05
4.09153e-05
4.41278e-05
4.73938e-05
5.06949e-05
5.40133e-05
5.73326e-05
6.06381e-05
6.39165e-05
6.71563e-05
7.03474e-05
7.34808e-05
7.6549e-05
7.95454e-05
8.24643e-05
8.53008e-05
8.80506e-05
9.07102e-05
9.32763e-05
9.57462e-05
9.81176e-05
0.000100388
0.000102557
0.000104622
0.000106581
0.000108434
0.000110179
0.000111816
0.000113343
0.00011476
0.000116066
0.00011726
0.000118341
0.000119307
0.000120158
0.000120891
0.000121503
0.000121991
0.000122347
0.000126568
0.000148447
0.000213955
0.000369649
0.000696955
2.20443e-05
2.5193e-05
2.77464e-05
3.04049e-05
3.31756e-05
3.60583e-05
3.90465e-05
4.21277e-05
4.52855e-05
4.85015e-05
5.17568e-05
5.50334e-05
5.83142e-05
6.15839e-05
6.48287e-05
6.80365e-05
7.11969e-05
7.43008e-05
7.73401e-05
8.03083e-05
8.31993e-05
8.60082e-05
8.87307e-05
9.1363e-05
9.39019e-05
9.63446e-05
9.86887e-05
0.000100932
0.000103073
0.00010511
0.000107042
0.000108867
0.000110585
0.000112194
0.000113693
0.000115083
0.000116362
0.000117529
0.000118585
0.00011953
0.000120362
0.000121085
0.000121698
0.000122206
0.00012262
0.000129166
0.000159614
0.000243499
0.00043504
0.000824515
2.35082e-05
2.67617e-05
2.92732e-05
3.18778e-05
3.45881e-05
3.74087e-05
4.03367e-05
4.33616e-05
4.64679e-05
4.96372e-05
5.28501e-05
5.60878e-05
5.93326e-05
6.25686e-05
6.57814e-05
6.89586e-05
7.20893e-05
7.51641e-05
7.81748e-05
8.11146e-05
8.39774e-05
8.67581e-05
8.94524e-05
9.20564e-05
9.45669e-05
9.69811e-05
9.92966e-05
0.000101511
0.000103623
0.000105631
0.000107533
0.000109329
0.000111017
0.000112595
0.000114065
0.000115424
0.000116671
0.000117808
0.000118832
0.000119743
0.000120541
0.000121225
0.000121796
0.000122255
0.000123495
0.000134292
0.000175981
0.000283588
0.000521165
0.000985745
2.49732e-05
2.83388e-05
3.08028e-05
3.33504e-05
3.59992e-05
3.87587e-05
4.16292e-05
4.46018e-05
4.76611e-05
5.07883e-05
5.39632e-05
5.71662e-05
6.03787e-05
6.35841e-05
6.67674e-05
6.99159e-05
7.30183e-05
7.60649e-05
7.90476e-05
8.19592e-05
8.47936e-05
8.75458e-05
9.02112e-05
9.27861e-05
9.52672e-05
9.76517e-05
9.99372e-05
0.000102122
0.000104203
0.00010618
0.000108051
0.000109815
0.000111471
0.000113018
0.000114454
0.00011578
0.000116994
0.000118095
0.000119082
0.000119953
0.000120706
0.000121338
0.000121844
0.000122215
0.000125286
0.000143004
0.000199758
0.000338193
0.000634134
0.00118691
2.64312e-05
2.9915e-05
3.23226e-05
3.48075e-05
3.73926e-05
4.00919e-05
4.29084e-05
4.58339e-05
4.88523e-05
5.19437e-05
5.50867e-05
5.82602e-05
6.1445e-05
6.46236e-05
6.77806e-05
7.09028e-05
7.39787e-05
7.69985e-05
7.99539e-05
8.28377e-05
8.56439e-05
8.83672e-05
9.10033e-05
9.35484e-05
9.59992e-05
9.83529e-05
0.000100607
0.00010276
0.000104809
0.000106754
0.000108592
0.000110323
0.000111945
0.000113458
0.000114861
0.000116153
0.000117333
0.000118401
0.000119356
0.000120197
0.000120926
0.000121541
0.000122045
0.000122446
0.000128186
0.000155648
0.00023326
0.000412889
0.000781953
0.00143489
2.78747e-05
3.1481e-05
3.38195e-05
3.62336e-05
3.87517e-05
4.13923e-05
4.41599e-05
4.70454e-05
5.0031e-05
5.30946e-05
5.62129e-05
5.93635e-05
6.2526e-05
6.56823e-05
6.88166e-05
7.19152e-05
7.49667e-05
7.79612e-05
8.08902e-05
8.37468e-05
8.65248e-05
8.92191e-05
9.18254e-05
9.43399e-05
9.67595e-05
9.90813e-05
0.000101303
0.000103423
0.000105439
0.000107349
0.000109153
0.000110849
0.000112436
0.000113914
0.000115281
0.000116536
0.00011768
0.000118711
0.00011963
0.000120436
0.000121131
0.000121714
0.00012219
0.000123347
0.000133763
0.00017459
0.000280405
0.000514471
0.000973043
0.00173535
2.92954e-05
3.30265e-05
3.5279e-05
3.76117e-05
4.00595e-05
4.26447e-05
4.5371e-05
4.82264e-05
5.11895e-05
5.42351e-05
5.73375e-05
6.04726e-05
6.36189e-05
6.67578e-05
6.98731e-05
7.29512e-05
7.59804e-05
7.89509e-05
8.18545e-05
8.46842e-05
8.74341e-05
9.00992e-05
9.26751e-05
9.51583e-05
9.75456e-05
9.98345e-05
0.000102023
0.000104108
0.000106089
0.000107964
0.000109731
0.000111391
0.000112941
0.00011438
0.000115709
0.000116925
0.000118029
0.000119019
0.000119892
0.000120649
0.000121283
0.000121789
0.000122157
0.000125498
0.000144289
0.000203439
0.000346633
0.000650982
0.00121496
0.00209004
3.06841e-05
3.45394e-05
3.66836e-05
3.89226e-05
4.12987e-05
4.38354e-05
4.65322e-05
4.9371e-05
5.23248e-05
5.5364e-05
5.84602e-05
6.15877e-05