/*--------------------------------*- C++ -*----------------------------------*\
  =========                 |
  \\      /  F ield         | OpenFOAM: The Open Source CFD Toolbox
   \\    /   O peration     | Website:  https://openfoam.org
    \\  /    A nd           | Version:  7
     \\/     M anipulation  |
\*---------------------------------------------------------------------------*/
FoamFile
{
    version     2.0;
    format      ascii;
    class       volScalarField;
    location    "64000";
    object      nut;
}
// * * * * * * * * * * * * * * * * * * * * * * * * * * * * * * * * * * * * * //

dimensions      [0 2 -1 0 0 0 0];

internalField   nonuniform List<scalar> 
4838
(
4.33492e-07
4.32936e-07
4.32417e-07
4.31927e-07
4.31465e-07
4.31029e-07
4.30617e-07
4.30229e-07
4.29864e-07
4.29523e-07
4.29204e-07
4.28908e-07
4.28634e-07
4.28381e-07
4.28151e-07
4.27942e-07
4.27754e-07
4.27588e-07
4.27443e-07
4.2732e-07
4.27217e-07
4.27136e-07
4.27075e-07
4.27036e-07
4.27018e-07
4.2702e-07
4.27044e-07
4.27088e-07
4.27154e-07
4.27241e-07
4.27348e-07
4.27477e-07
4.27628e-07
4.27799e-07
4.27992e-07
4.28206e-07
4.28442e-07
4.287e-07
4.28979e-07
4.29281e-07
4.29605e-07
4.29952e-07
4.30321e-07
4.30715e-07
4.31132e-07
4.31573e-07
4.32041e-07
4.32536e-07
4.3306e-07
4.3362e-07
4.34469e-07
4.33932e-07
4.33418e-07
4.32928e-07
4.32464e-07
4.32025e-07
4.3161e-07
4.31221e-07
4.30854e-07
4.30511e-07
4.30191e-07
4.29894e-07
4.29619e-07
4.29366e-07
4.29134e-07
4.28925e-07
4.28737e-07
4.2857e-07
4.28425e-07
4.28301e-07
4.28198e-07
4.28117e-07
4.28056e-07
4.28017e-07
4.27999e-07
4.28001e-07
4.28025e-07
4.2807e-07
4.28136e-07
4.28223e-07
4.28331e-07
4.2846e-07
4.28611e-07
4.28783e-07
4.28976e-07
4.29191e-07
4.29428e-07
4.29686e-07
4.29967e-07
4.3027e-07
4.30596e-07
4.30944e-07
4.31316e-07
4.31711e-07
4.3213e-07
4.32575e-07
4.33045e-07
4.3354e-07
4.3406e-07
4.34601e-07
4.35489e-07
4.34949e-07
4.34436e-07
4.33946e-07
4.33481e-07
4.33041e-07
4.32625e-07
4.32233e-07
4.31865e-07
4.31521e-07
4.312e-07
4.30901e-07
4.30625e-07
4.30371e-07
4.30139e-07
4.29929e-07
4.29741e-07
4.29574e-07
4.29428e-07
4.29304e-07
4.29201e-07
4.29119e-07
4.29058e-07
4.29019e-07
4.29001e-07
4.29003e-07
4.29027e-07
4.29072e-07
4.29138e-07
4.29226e-07
4.29334e-07
4.29464e-07
4.29615e-07
4.29787e-07
4.29982e-07
4.30197e-07
4.30435e-07
4.30694e-07
4.30976e-07
4.3128e-07
4.31607e-07
4.31957e-07
4.32331e-07
4.32728e-07
4.33149e-07
4.33595e-07
4.34066e-07
4.34561e-07
4.3508e-07
4.35625e-07
4.36538e-07
4.3599e-07
4.35474e-07
4.34983e-07
4.34517e-07
4.34075e-07
4.33657e-07
4.33264e-07
4.32895e-07
4.32549e-07
4.32227e-07
4.31927e-07
4.3165e-07
4.31395e-07
4.31162e-07
4.30951e-07
4.30762e-07
4.30595e-07
4.30449e-07
4.30324e-07
4.30221e-07
4.30139e-07
4.30079e-07
4.30039e-07
4.30021e-07
4.30023e-07
4.30047e-07
4.30093e-07
4.30159e-07
4.30246e-07
4.30355e-07
4.30485e-07
4.30637e-07
4.3081e-07
4.31005e-07
4.31222e-07
4.3146e-07
4.3172e-07
4.32003e-07
4.32309e-07
4.32637e-07
4.32989e-07
4.33364e-07
4.33763e-07
4.34186e-07
4.34633e-07
4.35106e-07
4.35602e-07
4.36124e-07
4.36676e-07
4.37606e-07
4.37053e-07
4.36532e-07
4.36037e-07
4.35569e-07
4.35125e-07
4.34706e-07
4.34311e-07
4.33941e-07
4.33593e-07
4.3327e-07
4.32969e-07
4.32691e-07
4.32435e-07
4.32201e-07
4.3199e-07
4.318e-07
4.31632e-07
4.31486e-07
4.31361e-07
4.31257e-07
4.31175e-07
4.31114e-07
4.31075e-07
4.31056e-07
4.31059e-07
4.31083e-07
4.31128e-07
4.31195e-07
4.31283e-07
4.31392e-07
4.31523e-07
4.31675e-07
4.31849e-07
4.32044e-07
4.32262e-07
4.32501e-07
4.32763e-07
4.33047e-07
4.33353e-07
4.33683e-07
4.34036e-07
4.34413e-07
4.34814e-07
4.35238e-07
4.35688e-07
4.36162e-07
4.36663e-07
4.37189e-07
4.37748e-07
4.3869e-07
4.38131e-07
4.37605e-07
4.37107e-07
4.36636e-07
4.3619e-07
4.35769e-07
4.35373e-07
4.35e-07
4.34652e-07
4.34327e-07
4.34025e-07
4.33745e-07
4.33489e-07
4.33254e-07
4.33042e-07
4.32852e-07
4.32683e-07
4.32536e-07
4.32411e-07
4.32307e-07
4.32225e-07
4.32164e-07
4.32124e-07
4.32105e-07
4.32108e-07
4.32132e-07
4.32178e-07
4.32245e-07
4.32333e-07
4.32443e-07
4.32574e-07
4.32726e-07
4.32901e-07
4.33097e-07
4.33315e-07
4.33556e-07
4.33819e-07
4.34104e-07
4.34412e-07
4.34743e-07
4.35098e-07
4.35476e-07
4.35879e-07
4.36305e-07
4.36757e-07
4.37235e-07
4.37738e-07
4.3827e-07
4.38834e-07
4.39784e-07
4.39221e-07
4.38692e-07
4.3819e-07
4.37716e-07
4.37268e-07
4.36845e-07
4.36446e-07
4.36073e-07
4.35722e-07
4.35396e-07
4.35093e-07
4.34812e-07
4.34555e-07
4.34319e-07
4.34106e-07
4.33915e-07
4.33746e-07
4.33599e-07
4.33473e-07
4.33369e-07
4.33286e-07
4.33225e-07
4.33185e-07
4.33167e-07
4.33169e-07
4.33194e-07
4.33239e-07
4.33306e-07
4.33395e-07
4.33505e-07
4.33637e-07
4.3379e-07
4.33965e-07
4.34162e-07
4.34381e-07
4.34623e-07
4.34887e-07
4.35173e-07
4.35483e-07
4.35815e-07
4.36172e-07
4.36552e-07
4.36956e-07
4.37385e-07
4.37839e-07
4.3832e-07
4.38827e-07
4.39363e-07
4.39931e-07
4.40887e-07
4.40321e-07
4.39788e-07
4.39284e-07
4.38807e-07
4.38356e-07
4.37931e-07
4.37531e-07
4.37155e-07
4.36804e-07
4.36476e-07
4.36172e-07
4.3589e-07
4.35631e-07
4.35395e-07
4.35181e-07
4.3499e-07
4.3482e-07
4.34672e-07
4.34546e-07
4.34441e-07
4.34358e-07
4.34297e-07
4.34257e-07
4.34238e-07
4.34241e-07
4.34265e-07
4.34311e-07
4.34378e-07
4.34467e-07
4.34578e-07
4.3471e-07
4.34864e-07
4.3504e-07
4.35238e-07
4.35458e-07
4.357e-07
4.35965e-07
4.36253e-07
4.36564e-07
4.36898e-07
4.37256e-07
4.37638e-07
4.38044e-07
4.38475e-07
4.38932e-07
4.39415e-07
4.39926e-07
4.40465e-07
4.41036e-07
4.41997e-07
4.41429e-07
4.40893e-07
4.40386e-07
4.39906e-07
4.39453e-07
4.39026e-07
4.38625e-07
4.38247e-07
4.37894e-07
4.37565e-07
4.3726e-07
4.36977e-07
4.36717e-07
4.3648e-07
4.36265e-07
4.36073e-07
4.35903e-07
4.35754e-07
4.35627e-07
4.35522e-07
4.35439e-07
4.35377e-07
4.35337e-07
4.35319e-07
4.35321e-07
4.35346e-07
4.35392e-07
4.35459e-07
4.35549e-07
4.3566e-07
4.35792e-07
4.35947e-07
4.36124e-07
4.36322e-07
4.36543e-07
4.36787e-07
4.37053e-07
4.37342e-07
4.37654e-07
4.3799e-07
4.38349e-07
4.38733e-07
4.39141e-07
4.39574e-07
4.40034e-07
4.4052e-07
4.41033e-07
4.41574e-07
4.42148e-07
4.43112e-07
4.42542e-07
4.42004e-07
4.41495e-07
4.41014e-07
4.40559e-07
4.4013e-07
4.39726e-07
4.39347e-07
4.38993e-07
4.38662e-07
4.38356e-07
4.38072e-07
4.37811e-07
4.37573e-07
4.37358e-07
4.37164e-07
4.36993e-07
4.36844e-07
4.36717e-07
4.36612e-07
4.36528e-07
4.36466e-07
4.36426e-07
4.36407e-07
4.3641e-07
4.36434e-07
4.36481e-07
4.36548e-07
4.36638e-07
4.36749e-07
4.36883e-07
4.37038e-07
4.37215e-07
4.37415e-07
4.37636e-07
4.37881e-07
4.38148e-07
4.38438e-07
4.38752e-07
4.39089e-07
4.3945e-07
4.39835e-07
4.40246e-07
4.40681e-07
4.41143e-07
4.41631e-07
4.42146e-07
4.4269e-07
4.43265e-07
4.44232e-07
4.43661e-07
4.43121e-07
4.4261e-07
4.42127e-07
4.4167e-07
4.41239e-07
4.40834e-07
4.40454e-07
4.40098e-07
4.39767e-07
4.39459e-07
4.39174e-07
4.38912e-07
4.38673e-07
4.38457e-07
4.38263e-07
4.38091e-07
4.37941e-07
4.37814e-07
4.37708e-07
4.37624e-07
4.37562e-07
4.37521e-07
4.37502e-07
4.37505e-07
4.3753e-07
4.37576e-07
4.37644e-07
4.37734e-07
4.37846e-07
4.3798e-07
4.38136e-07
4.38314e-07
4.38514e-07
4.38737e-07
4.38982e-07
4.3925e-07
4.39542e-07
4.39857e-07
4.40195e-07
4.40558e-07
4.40945e-07
4.41357e-07
4.41794e-07
4.42257e-07
4.42747e-07
4.43265e-07
4.4381e-07
4.44387e-07
4.45355e-07
4.44783e-07
4.44242e-07
4.4373e-07
4.43245e-07
4.42786e-07
4.42354e-07
4.41948e-07
4.41566e-07
4.41209e-07
4.40876e-07
4.40567e-07
4.40282e-07
4.40019e-07
4.39779e-07
4.39562e-07
4.39367e-07
4.39195e-07
4.39044e-07
4.38916e-07
4.3881e-07
4.38726e-07
4.38663e-07
4.38623e-07
4.38604e-07
4.38607e-07
4.38631e-07
4.38678e-07
4.38746e-07
4.38836e-07
4.38948e-07
4.39083e-07
4.39239e-07
4.39418e-07
4.39619e-07
4.39843e-07
4.40089e-07
4.40359e-07
4.40651e-07
4.40967e-07
4.41307e-07
4.41671e-07
4.4206e-07
4.42473e-07
4.42912e-07
4.43377e-07
4.43868e-07
4.44387e-07
4.44934e-07
4.45511e-07
4.46481e-07
4.45908e-07
4.45367e-07
4.44853e-07
4.44367e-07
4.43907e-07
4.43474e-07
4.43066e-07
4.42684e-07
4.42325e-07
4.41991e-07
4.41681e-07
4.41394e-07
4.41131e-07
4.4089e-07
4.40672e-07
4.40477e-07
4.40304e-07
4.40153e-07
4.40024e-07
4.39918e-07
4.39833e-07
4.3977e-07
4.39729e-07
4.3971e-07
4.39713e-07
4.39738e-07
4.39785e-07
4.39853e-07
4.39944e-07
4.40056e-07
4.40191e-07
4.40348e-07
4.40528e-07
4.40729e-07
4.40954e-07
4.41201e-07
4.41472e-07
4.41765e-07
4.42083e-07
4.42424e-07
4.42789e-07
4.43179e-07
4.43594e-07
4.44034e-07
4.445e-07
4.44993e-07
4.45513e-07
4.46061e-07
4.46639e-07
4.4761e-07
4.47036e-07
4.46494e-07
4.4598e-07
4.45492e-07
4.45032e-07
4.44597e-07
4.44189e-07
4.43805e-07
4.43446e-07
4.43111e-07
4.428e-07
4.42512e-07
4.42247e-07
4.42006e-07
4.41787e-07
4.41591e-07
4.41418e-07
4.41266e-07
4.41137e-07
4.4103e-07
4.40945e-07
4.40882e-07
4.40841e-07
4.40822e-07
4.40825e-07
4.40849e-07
4.40896e-07
4.40965e-07
4.41056e-07
4.41169e-07
4.41304e-07
4.41461e-07
4.41641e-07
4.41844e-07
4.4207e-07
4.42318e-07
4.42589e-07
4.42884e-07
4.43202e-07
4.43544e-07
4.43911e-07
4.44302e-07
4.44718e-07
4.4516e-07
4.45627e-07
4.46121e-07
4.46642e-07
4.4719e-07
4.47769e-07
4.4874e-07
4.48167e-07
4.47624e-07
4.47109e-07
4.46621e-07
4.46159e-07
4.45724e-07
4.45314e-07
4.4493e-07
4.4457e-07
4.44234e-07
4.43922e-07
4.43633e-07
4.43368e-07
4.43126e-07
4.42906e-07
4.4271e-07
4.42535e-07
4.42383e-07
4.42254e-07
4.42146e-07
4.42061e-07
4.41998e-07
4.41956e-07
4.41937e-07
4.4194e-07
4.41965e-07
4.42012e-07
4.4208e-07
4.42172e-07
4.42285e-07
4.42421e-07
4.42579e-07
4.42759e-07
4.42963e-07
4.43189e-07
4.43438e-07
4.4371e-07
4.44006e-07
4.44325e-07
4.44669e-07
4.45036e-07
4.45428e-07
4.45845e-07
4.46288e-07
4.46757e-07
4.47251e-07
4.47773e-07
4.48321e-07
4.489e-07
4.49872e-07
4.49299e-07
4.48755e-07
4.4824e-07
4.47751e-07
4.47289e-07
4.46853e-07
4.46443e-07
4.46057e-07
4.45696e-07
4.4536e-07
4.45047e-07
4.44758e-07
4.44492e-07
4.44249e-07
4.44029e-07
4.43831e-07
4.43656e-07
4.43504e-07
4.43374e-07
4.43266e-07
4.43181e-07
4.43117e-07
4.43075e-07
4.43056e-07
4.43059e-07
4.43084e-07
4.43131e-07
4.432e-07
4.43291e-07
4.43405e-07
4.43541e-07
4.43699e-07
4.43881e-07
4.44085e-07
4.44311e-07
4.44561e-07
4.44834e-07
4.45131e-07
4.45451e-07
4.45796e-07
4.46164e-07
4.46557e-07
4.46975e-07
4.47419e-07
4.47888e-07
4.48384e-07
4.48905e-07
4.49454e-07
4.50033e-07
4.51006e-07
4.50432e-07
4.49889e-07
4.49373e-07
4.48884e-07
4.48421e-07
4.47985e-07
4.47573e-07
4.47187e-07
4.46826e-07
4.46489e-07
4.46175e-07
4.45885e-07
4.45618e-07
4.45375e-07
4.45154e-07
4.44956e-07
4.44781e-07
4.44628e-07
4.44497e-07
4.44389e-07
4.44303e-07
4.44239e-07
4.44198e-07
4.44178e-07
4.44181e-07
4.44206e-07
4.44253e-07
4.44322e-07
4.44413e-07
4.44527e-07
4.44664e-07
4.44823e-07
4.45005e-07
4.45209e-07
4.45437e-07
4.45688e-07
4.45961e-07
4.46259e-07
4.4658e-07
4.46925e-07
4.47295e-07
4.47689e-07
4.48107e-07
4.48552e-07
4.49021e-07
4.49517e-07
4.5004e-07
4.50589e-07
4.51167e-07
4.52142e-07
4.51567e-07
4.51023e-07
4.50507e-07
4.50018e-07
4.49555e-07
4.49118e-07
4.48706e-07
4.4832e-07
4.47958e-07
4.4762e-07
4.47306e-07
4.47015e-07
4.46748e-07
4.46504e-07
4.46282e-07
4.46084e-07
4.45908e-07
4.45754e-07
4.45624e-07
4.45515e-07
4.45429e-07
4.45365e-07
4.45323e-07
4.45303e-07
4.45305e-07
4.4533e-07
4.45377e-07
4.45447e-07
4.45538e-07
4.45653e-07
4.4579e-07
4.45949e-07
4.46131e-07
4.46336e-07
4.46565e-07
4.46816e-07
4.47091e-07
4.47389e-07
4.47711e-07
4.48057e-07
4.48427e-07
4.48822e-07
4.49241e-07
4.49686e-07
4.50156e-07
4.50652e-07
4.51175e-07
4.51724e-07
4.52302e-07
4.53279e-07
4.52703e-07
4.5216e-07
4.51643e-07
4.51153e-07
4.5069e-07
4.50253e-07
4.49841e-07
4.49454e-07
4.49091e-07
4.48753e-07
4.48438e-07
4.48147e-07
4.47879e-07
4.47635e-07
4.47413e-07
4.47214e-07
4.47037e-07
4.46883e-07
4.46752e-07
4.46643e-07
4.46557e-07
4.46492e-07
4.4645e-07
4.4643e-07
4.46433e-07
4.46457e-07
4.46504e-07
4.46574e-07
4.46666e-07
4.4678e-07
4.46917e-07
4.47077e-07
4.4726e-07
4.47466e-07
4.47695e-07
4.47947e-07
4.48222e-07
4.48521e-07
4.48844e-07
4.4919e-07
4.49561e-07
4.49956e-07
4.50377e-07
4.50822e-07
4.51292e-07
4.51789e-07
4.52311e-07
4.5286e-07
4.53437e-07
4.53297e-07
4.52781e-07
4.5229e-07
4.51827e-07
4.5139e-07
4.50977e-07
4.5059e-07
4.50227e-07
4.49888e-07
4.49573e-07
4.49281e-07
4.49013e-07
4.48768e-07
4.48545e-07
4.48346e-07
4.48169e-07
4.48015e-07
4.47883e-07
4.47774e-07
4.47687e-07
4.47622e-07
4.4758e-07
4.4756e-07
4.47562e-07
4.47587e-07
4.47634e-07
4.47703e-07
4.47795e-07
4.4791e-07
4.48047e-07
4.48208e-07
4.48391e-07
4.48597e-07
4.48826e-07
4.49079e-07
4.49355e-07
4.49655e-07
4.49978e-07
4.50325e-07
4.50697e-07
4.51092e-07
4.51513e-07
4.51959e-07
4.52429e-07
4.52926e-07
4.53448e-07
4.53997e-07
4.54573e-07
4.5392e-07
4.53429e-07
4.52965e-07
4.52528e-07
4.52115e-07
4.51727e-07
4.51364e-07
4.51025e-07
4.50709e-07
4.50417e-07
4.50148e-07
4.49903e-07
4.4968e-07
4.4948e-07
4.49302e-07
4.49148e-07
4.49016e-07
4.48906e-07
4.48819e-07
4.48754e-07
4.48711e-07
4.48691e-07
4.48693e-07
4.48718e-07
4.48765e-07
4.48834e-07
4.48926e-07
4.49041e-07
4.49179e-07
4.4934e-07
4.49523e-07
4.4973e-07
4.4996e-07
4.50213e-07
4.50489e-07
4.5079e-07
4.51114e-07
4.51461e-07
4.51833e-07
4.5223e-07
4.52651e-07
4.53096e-07
4.53567e-07
4.54064e-07
4.54586e-07
4.55134e-07
4.5571e-07
4.54105e-07
4.53667e-07
4.53254e-07
4.52866e-07
4.52503e-07
4.52163e-07
4.51847e-07
4.51555e-07
4.51285e-07
4.51039e-07
4.50816e-07
4.50615e-07
4.50437e-07
4.50282e-07
4.5015e-07
4.5004e-07
4.49952e-07
4.49887e-07
4.49844e-07
4.49824e-07
4.49826e-07
4.4985e-07
4.49897e-07
4.49967e-07
4.50059e-07
4.50174e-07
4.50312e-07
4.50473e-07
4.50657e-07
4.50864e-07
4.51094e-07
4.51348e-07
4.51625e-07
4.51926e-07
4.5225e-07
4.52599e-07
4.52971e-07
4.53368e-07
4.53789e-07
4.54235e-07
4.54706e-07
4.55202e-07
4.55724e-07
4.56272e-07
4.56847e-07
4.54808e-07
4.54395e-07
4.54006e-07
4.53643e-07
4.53303e-07
4.52987e-07
4.52694e-07
4.52424e-07
4.52177e-07
4.51953e-07
4.51752e-07
4.51574e-07
4.51419e-07
4.51286e-07
4.51176e-07
4.51088e-07
4.51022e-07
4.50979e-07
4.50958e-07
4.5096e-07
4.50984e-07
4.51031e-07
4.51101e-07
4.51193e-07
4.51309e-07
4.51447e-07
4.51608e-07
4.51792e-07
4.52e-07
4.5223e-07
4.52485e-07
4.52762e-07
4.53063e-07
4.53388e-07
4.53737e-07
4.5411e-07
4.54507e-07
4.54928e-07
4.55374e-07
4.55845e-07
4.56341e-07
4.56863e-07
4.5741e-07
4.57984e-07
4.55538e-07
4.55148e-07
4.54784e-07
4.54444e-07
4.54128e-07
4.53834e-07
4.53564e-07
4.53317e-07
4.53092e-07
4.52891e-07
4.52712e-07
4.52557e-07
4.52423e-07
4.52313e-07
4.52225e-07
4.52159e-07
4.52115e-07
4.52094e-07
4.52096e-07
4.5212e-07
4.52167e-07
4.52236e-07
4.52329e-07
4.52444e-07
4.52582e-07
4.52743e-07
4.52928e-07
4.53136e-07
4.53367e-07
4.53622e-07
4.539e-07
4.54202e-07
4.54527e-07
4.54876e-07
4.55249e-07
4.55647e-07
4.56068e-07
4.56514e-07
4.56985e-07
4.57481e-07
4.58002e-07
4.58548e-07
4.59122e-07
4.55927e-07
4.55588e-07
4.5527e-07
4.54976e-07
4.54705e-07
4.54458e-07
4.54233e-07
4.54031e-07
4.53852e-07
4.53696e-07
4.53562e-07
4.53451e-07
4.53363e-07
4.53297e-07
4.53253e-07
4.53232e-07
4.53233e-07
4.53257e-07
4.53304e-07
4.53373e-07
4.53465e-07
4.5358e-07
4.53719e-07
4.5388e-07
4.54065e-07
4.54274e-07
4.54505e-07
4.54761e-07
4.55039e-07
4.55341e-07
4.55667e-07
4.56016e-07
4.5639e-07
4.56787e-07
4.57209e-07
4.57655e-07
4.58125e-07
4.58621e-07
4.59141e-07
4.59687e-07
4.60259e-07
4.56732e-07
4.56414e-07
4.56119e-07
4.55847e-07
4.55601e-07
4.55375e-07
4.55173e-07
4.54993e-07
4.54837e-07
4.54703e-07
4.54591e-07
4.54502e-07
4.54436e-07
4.54392e-07
4.5437e-07
4.54371e-07
4.54395e-07
4.54441e-07
4.54511e-07
4.54603e-07
4.54718e-07
4.54856e-07
4.55018e-07
4.55203e-07
4.55412e-07
4.55644e-07
4.559e-07
4.56179e-07
4.56481e-07
4.56807e-07
4.57157e-07
4.57531e-07
4.57928e-07
4.5835e-07
4.58796e-07
4.59266e-07
4.59761e-07
4.60281e-07
4.60826e-07
4.61397e-07
4.56745e-07
4.56519e-07
4.56316e-07
4.56135e-07
4.55979e-07
4.55844e-07
4.55733e-07
4.55644e-07
4.55576e-07
4.55532e-07
4.5551e-07
4.55511e-07
4.55535e-07
4.55581e-07
4.55649e-07
4.55741e-07
4.55857e-07
4.55995e-07
4.56156e-07
4.56342e-07
4.56551e-07
4.56784e-07
4.5704e-07
4.57319e-07
4.57622e-07
4.57948e-07
4.58298e-07
4.58672e-07
4.5907e-07
4.59491e-07
4.59937e-07
4.60407e-07
4.60901e-07
4.61421e-07
4.61965e-07
4.62536e-07
4.57123e-07
4.56987e-07
4.56876e-07
4.56786e-07
4.56718e-07
4.56673e-07
4.56652e-07
4.56652e-07
4.56675e-07
4.56721e-07
4.56789e-07
4.56881e-07
4.56996e-07
4.57134e-07
4.57296e-07
4.57482e-07
4.57691e-07
4.57924e-07
4.5818e-07
4.5846e-07
4.58764e-07
4.5909e-07
4.5944e-07
4.59814e-07
4.60212e-07
4.60633e-07
4.61079e-07
4.61548e-07
4.62042e-07
4.62561e-07
4.63104e-07
4.63674e-07
4.58021e-07
4.5793e-07
4.57862e-07
4.57816e-07
4.57795e-07
4.57795e-07
4.57817e-07
4.57862e-07
4.5793e-07
4.58022e-07
4.58137e-07
4.58274e-07
4.58436e-07
4.58622e-07
4.58832e-07
4.59065e-07
4.59322e-07
4.59602e-07
4.59906e-07
4.60233e-07
4.60583e-07
4.60957e-07
4.61354e-07
4.61776e-07
4.62221e-07
4.6269e-07
4.63184e-07
4.63702e-07
4.64244e-07
4.64813e-07
4.58939e-07
4.58939e-07
4.5896e-07
4.59005e-07
4.59072e-07
4.59164e-07
4.59278e-07
4.59416e-07
4.59577e-07
4.59763e-07
4.59973e-07
4.60207e-07
4.60464e-07
4.60745e-07
4.61049e-07
4.61376e-07
4.61726e-07
4.621e-07
4.62497e-07
4.62918e-07
4.63363e-07
4.63832e-07
4.64325e-07
4.64843e-07
4.65384e-07
4.65952e-07
4.60308e-07
4.60421e-07
4.60558e-07
4.6072e-07
4.60905e-07
4.61116e-07
4.61349e-07
4.61607e-07
4.61888e-07
4.62192e-07
4.62519e-07
4.6287e-07
4.63243e-07
4.63641e-07
4.64062e-07
4.64506e-07
4.64975e-07
4.65467e-07
4.65984e-07
4.66525e-07
4.67091e-07
4.61863e-07
4.62047e-07
4.62259e-07
4.62493e-07
4.62751e-07
4.63032e-07
4.63336e-07
4.63664e-07
4.64014e-07
4.64388e-07
4.64785e-07
4.65205e-07
4.6565e-07
4.66118e-07
4.6661e-07
4.67125e-07
4.67665e-07
4.68231e-07
4.63403e-07
4.63637e-07
4.63895e-07
4.64177e-07
4.64481e-07
4.64809e-07
4.65159e-07
4.65533e-07
4.6593e-07
4.6635e-07
4.66794e-07
4.67261e-07
4.67752e-07
4.68267e-07
4.68806e-07
4.69371e-07
4.64549e-07
4.64783e-07
4.6504e-07
4.65323e-07
4.65628e-07
4.65955e-07
4.66305e-07
4.66678e-07
4.67075e-07
4.67495e-07
4.67938e-07
4.68405e-07
4.68896e-07
4.6941e-07
4.69948e-07
4.70511e-07
4.65696e-07
4.65929e-07
4.66187e-07
4.6647e-07
4.66775e-07
4.67102e-07
4.67452e-07
4.67825e-07
4.68222e-07
4.68641e-07
4.69084e-07
4.6955e-07
4.7004e-07
4.70553e-07
4.7109e-07
4.71652e-07
4.67618e-07
4.67923e-07
4.6825e-07
4.686e-07
4.68972e-07
4.69369e-07
4.69788e-07
4.70229e-07
4.70696e-07
4.71185e-07
4.71697e-07
4.72233e-07
4.72794e-07
4.70518e-07
4.70935e-07
4.71376e-07
4.71843e-07
4.7233e-07
4.72842e-07
4.73377e-07
4.73937e-07
4.7299e-07
4.73477e-07
4.73988e-07
4.74522e-07
4.75081e-07
4.2686e-07
4.26825e-07
4.2681e-07
4.26817e-07
4.26845e-07
4.26894e-07
4.26964e-07
4.27055e-07
4.27166e-07
4.27299e-07
4.27453e-07
4.27628e-07
4.27824e-07
4.28042e-07
4.28281e-07
4.28541e-07
4.28824e-07
4.29128e-07
4.29455e-07
4.29804e-07
4.30176e-07
4.30572e-07
4.30991e-07
4.31434e-07
4.31904e-07
4.324e-07
4.32926e-07
4.33487e-07
4.27831e-07
4.27796e-07
4.27782e-07
4.27789e-07
4.27817e-07
4.27867e-07
4.27937e-07
4.28028e-07
4.28141e-07
4.28274e-07
4.28428e-07
4.28604e-07
4.28801e-07
4.2902e-07
4.2926e-07
4.29522e-07
4.29805e-07
4.30111e-07
4.3044e-07
4.30791e-07
4.31165e-07
4.31562e-07
4.31984e-07
4.32431e-07
4.32903e-07
4.334e-07
4.33921e-07
4.34465e-07
4.28824e-07
4.28789e-07
4.28775e-07
4.28782e-07
4.28811e-07
4.28861e-07
4.28931e-07
4.29023e-07
4.29136e-07
4.2927e-07
4.29425e-07
4.29602e-07
4.298e-07
4.30019e-07
4.3026e-07
4.30523e-07
4.30808e-07
4.31116e-07
4.31446e-07
4.31798e-07
4.32174e-07
4.32574e-07
4.32998e-07
4.33447e-07
4.3392e-07
4.34417e-07
4.34937e-07
4.35485e-07
4.29835e-07
4.298e-07
4.29786e-07
4.29794e-07
4.29823e-07
4.29873e-07
4.29944e-07
4.30036e-07
4.3015e-07
4.30285e-07
4.30441e-07
4.30618e-07
4.30817e-07
4.31037e-07
4.31279e-07
4.31543e-07
4.3183e-07
4.32139e-07
4.3247e-07
4.32825e-07
4.33203e-07
4.33604e-07
4.3403e-07
4.3448e-07
4.34955e-07
4.35454e-07
4.35978e-07
4.36533e-07
4.30862e-07
4.30827e-07
4.30813e-07
4.30821e-07
4.3085e-07
4.30901e-07
4.30973e-07
4.31066e-07
4.3118e-07
4.31315e-07
4.31472e-07
4.3165e-07
4.3185e-07
4.32071e-07
4.32314e-07
4.3258e-07
4.32868e-07
4.33178e-07
4.33511e-07
4.33867e-07
4.34247e-07
4.34651e-07
4.35078e-07
4.35531e-07
4.36008e-07
4.36511e-07
4.3704e-07
4.37602e-07
4.31903e-07
4.31868e-07
4.31855e-07
4.31863e-07
4.31892e-07
4.31943e-07
4.32015e-07
4.32109e-07
4.32224e-07
4.3236e-07
4.32517e-07
4.32696e-07
4.32897e-07
4.33119e-07
4.33364e-07
4.33631e-07
4.3392e-07
4.34231e-07
4.34566e-07
4.34924e-07
4.35306e-07
4.35711e-07
4.36141e-07
4.36596e-07
4.37077e-07
4.37583e-07
4.38118e-07
4.38685e-07
4.32956e-07
4.32921e-07
4.32908e-07
4.32917e-07
4.32947e-07
4.32998e-07
4.33071e-07
4.33164e-07
4.3328e-07
4.33417e-07
4.33575e-07
4.33755e-07
4.33957e-07
4.3418e-07
4.34426e-07
4.34694e-07
4.34984e-07
4.35297e-07
4.35634e-07
4.35994e-07
4.36377e-07
4.36785e-07
4.37217e-07
4.37675e-07
4.38158e-07
4.38669e-07
4.39208e-07
4.39779e-07
4.34021e-07
4.33986e-07
4.33973e-07
4.33981e-07
4.34012e-07
4.34063e-07
4.34136e-07
4.34231e-07
4.34347e-07
4.34484e-07
4.34644e-07
4.34824e-07
4.35027e-07
4.35251e-07
4.35498e-07
4.35767e-07
4.36059e-07
4.36374e-07
4.36712e-07
4.37074e-07
4.37459e-07
4.37869e-07
4.38304e-07
4.38764e-07
4.39251e-07
4.39765e-07
4.40307e-07
4.40882e-07
4.35094e-07
4.35059e-07
4.35047e-07
4.35056e-07
4.35086e-07
4.35138e-07
4.35212e-07
4.35307e-07
4.35423e-07
4.35562e-07
4.35721e-07
4.35903e-07
4.36107e-07
4.36332e-07
4.3658e-07
4.36851e-07
4.37144e-07
4.3746e-07
4.378e-07
4.38163e-07
4.38551e-07
4.38963e-07
4.394e-07
4.39863e-07
4.40352e-07
4.40869e-07
4.41414e-07
4.41992e-07
4.36176e-07
4.36142e-07
4.36129e-07
4.36138e-07
4.36169e-07
4.36221e-07
4.36295e-07
4.36391e-07
4.36508e-07
4.36647e-07
4.36808e-07
4.3699e-07
4.37195e-07
4.37422e-07
4.37671e-07
4.37942e-07
4.38237e-07
4.38555e-07
4.38896e-07
4.39261e-07
4.3965e-07
4.40064e-07
4.40503e-07
4.40969e-07
4.41461e-07
4.4198e-07
4.42528e-07
4.43107e-07
4.37266e-07
4.37231e-07
4.37219e-07
4.37228e-07
4.37259e-07
4.37312e-07
4.37386e-07
4.37482e-07
4.376e-07
4.3774e-07
4.37901e-07
4.38085e-07
4.3829e-07
4.38518e-07
4.38768e-07
4.39041e-07
4.39337e-07
4.39656e-07
4.39998e-07
4.40365e-07
4.40756e-07
4.41172e-07
4.41613e-07
4.42081e-07
4.42575e-07
4.43096e-07
4.43646e-07
4.44227e-07
4.38362e-07
4.38328e-07
4.38316e-07
4.38325e-07
4.38356e-07
4.38409e-07
4.38484e-07
4.38581e-07
4.38699e-07
4.38839e-07
4.39002e-07
4.39186e-07
4.39392e-07
4.39621e-07
4.39872e-07
4.40146e-07
4.40443e-07
4.40763e-07
4.41107e-07
4.41475e-07
4.41868e-07
4.42286e-07
4.42729e-07
4.43198e-07
4.43694e-07
4.44217e-07
4.44768e-07
4.4535e-07
4.39464e-07
4.3943e-07
4.39418e-07
4.39428e-07
4.3946e-07
4.39513e-07
4.39588e-07
4.39685e-07
4.39804e-07
4.39945e-07
4.40108e-07
4.40293e-07
4.405e-07
4.40729e-07
4.40981e-07
4.41256e-07
4.41554e-07
4.41876e-07
4.42221e-07
4.42591e-07
4.42985e-07
4.43404e-07
4.43849e-07
4.44319e-07
4.44817e-07
4.45341e-07
4.45893e-07
4.46476e-07
4.40572e-07
4.40538e-07
4.40527e-07
4.40537e-07
4.40568e-07
4.40622e-07
4.40697e-07
4.40794e-07
4.40914e-07
4.41056e-07
4.41219e-07
4.41405e-07
4.41613e-07
4.41843e-07
4.42096e-07
4.42372e-07
4.42671e-07
4.42993e-07
4.4334e-07
4.43711e-07
4.44106e-07
4.44526e-07
4.44972e-07
4.45444e-07
4.45943e-07
4.46468e-07
4.47021e-07
4.47604e-07
4.42029e-07
4.42172e-07
4.42336e-07
4.42522e-07
4.4273e-07
4.42961e-07
4.43215e-07
4.43492e-07
4.43791e-07
4.44115e-07
4.44463e-07
4.44835e-07
4.45231e-07
4.45652e-07
4.461e-07
4.46573e-07
4.47072e-07
4.47598e-07
4.48152e-07
4.48735e-07
4.4559e-07
4.45962e-07
4.46359e-07
4.46781e-07
4.4723e-07
4.47703e-07
4.48203e-07
4.4873e-07
4.49284e-07
4.49867e-07
4.48363e-07
4.48837e-07
4.49337e-07
4.49864e-07
4.50418e-07
4.51001e-07
4.51e-07
4.51554e-07
4.52137e-07
4.78776e-07
4.79956e-07
4.81147e-07
4.58975e-07
4.60121e-07
4.61267e-07
4.62413e-07
4.63559e-07
4.64706e-07
4.65853e-07
4.67001e-07
4.68149e-07
4.69297e-07
4.70446e-07
4.71595e-07
4.72745e-07
4.73896e-07
4.75047e-07
4.762e-07
4.77354e-07
4.78516e-07
4.79691e-07
4.80878e-07
4.55314e-07
4.56456e-07
4.57599e-07
4.58743e-07
4.59888e-07
4.61034e-07
4.6218e-07
4.63326e-07
4.64473e-07
4.6562e-07
4.66767e-07
4.67915e-07
4.69063e-07
4.70212e-07
4.71361e-07
4.72511e-07
4.73662e-07
4.74814e-07
4.75966e-07
4.7712e-07
4.78279e-07
4.7945e-07
4.80634e-07
4.55106e-07
4.56248e-07
4.57391e-07
4.58536e-07
4.5968e-07
4.60825e-07
4.61971e-07
4.63117e-07
4.64264e-07
4.6541e-07
4.66558e-07
4.67705e-07
4.68854e-07
4.70002e-07
4.71151e-07
4.72301e-07
4.73452e-07
4.74603e-07
4.75755e-07
4.76908e-07
4.78066e-07
4.79233e-07
4.80413e-07
4.54922e-07
4.56065e-07
4.57208e-07
4.58352e-07
4.59497e-07
4.60642e-07
4.61787e-07
4.62933e-07
4.64079e-07
4.65225e-07
4.66372e-07
4.6752e-07
4.68667e-07
4.69816e-07
4.70965e-07
4.72114e-07
4.73264e-07
4.74415e-07
4.75567e-07
4.7672e-07
4.77876e-07
4.79041e-07
4.80216e-07
4.54765e-07
4.55907e-07
4.5705e-07
4.58194e-07
4.59338e-07
4.60482e-07
4.61627e-07
4.62772e-07
4.63918e-07
4.65064e-07
4.6621e-07
4.67357e-07
4.68505e-07
4.69653e-07
4.70802e-07
4.71951e-07
4.73101e-07
4.74251e-07
4.75402e-07
4.76555e-07
4.77709e-07
4.78872e-07
4.80044e-07
4.32358e-07
4.33421e-07
4.34494e-07
4.35576e-07
4.36666e-07
4.37762e-07
4.38865e-07
4.39973e-07
4.41085e-07
4.42201e-07
4.4332e-07
4.44443e-07
4.45568e-07
4.46695e-07
4.47824e-07
4.48955e-07
4.50087e-07
4.51222e-07
4.52357e-07
4.53495e-07
4.54634e-07
4.55775e-07
4.56917e-07
4.58059e-07
4.59203e-07
4.60346e-07
4.61491e-07
4.62635e-07
4.63781e-07
4.64926e-07
4.66073e-07
4.67219e-07
4.68366e-07
4.69514e-07
4.70662e-07
4.71811e-07
4.7296e-07
4.7411e-07
4.75261e-07
4.76413e-07
4.77567e-07
4.78727e-07
4.79897e-07
4.32253e-07
4.33316e-07
4.34389e-07
4.35471e-07
4.3656e-07
4.37657e-07
4.38759e-07
4.39866e-07
4.40978e-07
4.42094e-07
4.43213e-07
4.44335e-07
4.4546e-07
4.46587e-07
4.47716e-07
4.48847e-07
4.4998e-07
4.51114e-07
4.5225e-07
4.53387e-07
4.54526e-07
4.55666e-07
4.56807e-07
4.57949e-07
4.59091e-07
4.60235e-07
4.61378e-07
4.62523e-07
4.63667e-07
4.64813e-07
4.65958e-07
4.67104e-07
4.68251e-07
4.69398e-07
4.70546e-07
4.71695e-07
4.72844e-07
4.73993e-07
4.75144e-07
4.76295e-07
4.77448e-07
4.78607e-07
4.79774e-07
4.3217e-07
4.33233e-07
4.34306e-07
4.35388e-07
4.36477e-07
4.37573e-07
4.38675e-07
4.39782e-07
4.40894e-07
4.4201e-07
4.43129e-07
4.44251e-07
4.45376e-07
4.46503e-07
4.47632e-07
4.48763e-07
4.49895e-07
4.5103e-07
4.52165e-07
4.53302e-07
4.54441e-07
4.5558e-07
4.56721e-07
4.57862e-07
4.59004e-07
4.60146e-07
4.61289e-07
4.62433e-07
4.63577e-07
4.64722e-07
4.65867e-07
4.67013e-07
4.6816e-07
4.69306e-07
4.70454e-07
4.71602e-07
4.72751e-07
4.739e-07
4.7505e-07
4.76202e-07
4.77354e-07
4.78511e-07
4.79677e-07
4.27024e-07
4.28004e-07
4.29005e-07
4.30024e-07
4.31059e-07
4.3211e-07
4.33173e-07
4.34246e-07
4.35327e-07
4.36416e-07
4.37512e-07
4.38614e-07
4.39721e-07
4.40833e-07
4.41948e-07
4.43067e-07
4.44189e-07
4.45314e-07
4.46441e-07
4.4757e-07
4.48701e-07
4.49833e-07
4.50967e-07
4.52103e-07
4.5324e-07
4.54378e-07
4.55517e-07
4.56657e-07
4.57797e-07
4.58939e-07
4.60081e-07
4.61224e-07
4.62367e-07
4.63511e-07
4.64655e-07
4.658e-07
4.66946e-07
4.68092e-07
4.69238e-07
4.70385e-07
4.71533e-07
4.72682e-07
4.73831e-07
4.74981e-07
4.76131e-07
4.77283e-07
4.7844e-07
4.79604e-07
4.26987e-07
4.27967e-07
4.28968e-07
4.29987e-07
4.31023e-07
4.32073e-07
4.33135e-07
4.34208e-07
4.35289e-07
4.36378e-07
4.37474e-07
4.38575e-07
4.39682e-07
4.40794e-07
4.41909e-07
4.43028e-07
4.4415e-07
4.45274e-07
4.46401e-07
4.4753e-07
4.48661e-07
4.49794e-07
4.50928e-07
4.52063e-07
4.532e-07
4.54337e-07
4.55476e-07
4.56616e-07
4.57756e-07
4.58897e-07
4.60039e-07
4.61181e-07
4.62324e-07
4.63468e-07
4.64612e-07
4.65757e-07
4.66902e-07
4.68047e-07
4.69194e-07
4.70341e-07
4.71488e-07
4.72636e-07
4.73785e-07
4.74935e-07
4.76085e-07
4.77237e-07
4.78393e-07
4.79557e-07
4.26971e-07
4.27951e-07
4.28952e-07
4.29972e-07
4.31008e-07
4.32057e-07
4.33119e-07
4.34191e-07
4.35272e-07
4.36361e-07
4.37457e-07
4.38559e-07
4.39665e-07
4.40777e-07
4.41892e-07
4.43011e-07
4.44133e-07
4.45257e-07
4.46384e-07
4.47513e-07
4.48644e-07
4.49776e-07
4.5091e-07
4.52046e-07
4.53182e-07
4.54319e-07
4.55458e-07
4.56597e-07
4.57737e-07
4.58878e-07
4.6002e-07
4.61162e-07
4.62305e-07
4.63448e-07
4.64592e-07
4.65736e-07
4.66881e-07
4.68027e-07
4.69173e-07
4.7032e-07
4.71467e-07
4.72615e-07
4.73764e-07
4.74913e-07
4.76063e-07
4.77215e-07
4.7837e-07
4.79534e-07
4.26976e-07
4.27956e-07
4.28958e-07
4.29978e-07
4.31013e-07
4.32063e-07
4.33125e-07
4.34197e-07
4.35278e-07
4.36367e-07
4.37462e-07
4.38564e-07
4.39671e-07
4.40782e-07
4.41897e-07
4.43016e-07
4.44138e-07
4.45263e-07
4.46389e-07
4.47518e-07
4.48649e-07
4.49782e-07
4.50915e-07
4.52051e-07
4.53187e-07
4.54324e-07
4.55463e-07
4.56602e-07
4.57742e-07
4.58882e-07
4.60024e-07
4.61166e-07
4.62308e-07
4.63452e-07
4.64595e-07
4.6574e-07
4.66884e-07
4.6803e-07
4.69176e-07
4.70322e-07
4.71469e-07
4.72617e-07
4.73766e-07
4.74915e-07
4.76065e-07
4.77217e-07
4.78372e-07
4.79536e-07
4.27003e-07
4.27983e-07
4.28985e-07
4.30005e-07
4.3104e-07
4.3209e-07
4.33152e-07
4.34224e-07
4.35305e-07
4.36394e-07
4.37489e-07
4.38591e-07
4.39698e-07
4.40809e-07
4.41925e-07
4.43043e-07
4.44165e-07
4.4529e-07
4.46417e-07
4.47546e-07
4.48677e-07
4.49809e-07
4.50943e-07
4.52078e-07
4.53215e-07
4.54352e-07
4.5549e-07
4.56629e-07
4.57769e-07
4.5891e-07
4.60051e-07
4.61193e-07
4.62335e-07
4.63478e-07
4.64622e-07
4.65766e-07
4.66911e-07
4.68056e-07
4.69202e-07
4.70349e-07
4.71496e-07
4.72644e-07
4.73792e-07
4.74941e-07
4.76092e-07
4.77243e-07
4.78399e-07
4.79562e-07
4.2705e-07
4.28031e-07
4.29033e-07
4.30053e-07
4.31089e-07
4.32138e-07
4.332e-07
4.34272e-07
4.35353e-07
4.36442e-07
4.37538e-07
4.3864e-07
4.39747e-07
4.40858e-07
4.41974e-07
4.43093e-07
4.44215e-07
4.4534e-07
4.46467e-07
4.47596e-07
4.48727e-07
4.49859e-07
4.50993e-07
4.52129e-07
4.53265e-07
4.54402e-07
4.55541e-07
4.5668e-07
4.5782e-07
4.5896e-07
4.60101e-07
4.61243e-07
4.62386e-07
4.63529e-07
4.64672e-07
4.65816e-07
4.66961e-07
4.68106e-07
4.69252e-07
4.70399e-07
4.71546e-07
4.72694e-07
4.73842e-07
4.74992e-07
4.76142e-07
4.77293e-07
4.78449e-07
4.79614e-07
4.27118e-07
4.28099e-07
4.29101e-07
4.30122e-07
4.31158e-07
4.32208e-07
4.3327e-07
4.34342e-07