/*--------------------------------*- C++ -*----------------------------------*\
  =========                 |
  \\      /  F ield         | OpenFOAM: The Open Source CFD Toolbox
   \\    /   O peration     | Website:  https://openfoam.org
    \\  /    A nd           | Version:  7
     \\/     M anipulation  |
\*---------------------------------------------------------------------------*/
FoamFile
{
    version     2.0;
    format      ascii;
    class       volScalarField;
    location    "244000";
    object      p;
}
// * * * * * * * * * * * * * * * * * * * * * * * * * * * * * * * * * * * * * //

dimensions      [0 2 -2 0 0 0 0];

internalField   nonuniform List<scalar> 
4844
(
-1.5788e-19
-1.49935e-18
-1.3203e-18
-1.17828e-18
-1.53656e-18
-1.31769e-18
-1.2943e-18
-1.27091e-18
-1.23141e-18
-1.2157e-18
-1.19626e-18
-1.40989e-18
-1.50679e-18
-1.32244e-18
-1.29978e-18
-1.26532e-18
-1.22152e-18
-1.21777e-18
-1.19308e-18
-1.17113e-18
-1.1479e-18
-1.14493e-18
-1.37027e-18
-1.42792e-18
-1.32162e-18
-1.29655e-18
-1.27103e-18
-1.22599e-18
-1.21542e-18
-1.19973e-18
-1.17953e-18
-1.17116e-18
-1.13584e-18
-1.12729e-18
-1.12165e-18
-1.09795e-18
-1.12048e-18
-1.10394e-18
-1.32582e-18
-1.38864e-18
-1.30514e-18
-1.28339e-18
-1.25711e-18
-1.21338e-18
-1.22616e-18
-1.18694e-18
-1.1744e-18
-1.17021e-18
-1.13753e-18
-1.1348e-18
-1.11453e-18
-1.11432e-18
-1.11553e-18
-1.10528e-18
-1.30338e-18
-1.35527e-18
-1.29307e-18
-1.28774e-18
-1.23821e-18
-1.21077e-18
-1.20939e-18
-1.17811e-18
-1.17331e-18
-1.15855e-18
-1.13814e-18
-1.13427e-18
-1.10544e-18
-1.12302e-18
-1.11098e-18
-1.09048e-18
-1.34679e-18
-1.29291e-18
-1.26865e-18
-1.23344e-18
-1.20711e-18
-1.20119e-18
-1.16888e-18
-1.17331e-18
-1.14297e-18
-1.13485e-18
-1.13431e-18
-1.10549e-18
-1.12785e-18
-1.10441e-18
-1.09378e-18
-1.33219e-18
-1.28879e-18
-1.26032e-18
-1.23019e-18
-1.21029e-18
-1.20073e-18
-1.16248e-18
-1.17047e-18
-1.14853e-18
-1.14021e-18
-1.13106e-18
-1.12539e-18
-1.12278e-18
-1.09174e-18
-1.08897e-18
-1.31154e-18
-1.27135e-18
-1.24535e-18
-1.22593e-18
-1.20526e-18
-1.19661e-18
-1.16469e-18
-1.17105e-18
-1.14101e-18
-1.13617e-18
-1.12323e-18
-1.12388e-18
-1.11526e-18
-1.07889e-18
-1.09727e-18
-1.27835e-18
-1.29279e-18
-1.25486e-18
-1.23902e-18
-1.21954e-18
-1.19442e-18
-1.1932e-18
-1.17399e-18
-1.16616e-18
-1.13991e-18
-1.13525e-18
-1.1204e-18
-1.10047e-18
-1.09773e-18
-1.08829e-18
-1.0926e-18
-1.27586e-18
-1.28429e-18
-1.25183e-18
-1.231e-18
-1.22268e-18
-1.19435e-18
-1.18093e-18
-1.17949e-18
-1.14299e-18
-1.13912e-18
-1.12852e-18
-1.11111e-18
-1.09985e-18
-1.09069e-18
-1.08513e-18
-1.07588e-18
-1.25895e-18
-1.26698e-18
-1.24109e-18
-1.22619e-18
-1.21468e-18
-1.1905e-18
-1.18502e-18
-1.1641e-18
-1.141e-18
-1.13266e-18
-1.12474e-18
-1.11478e-18
-1.10987e-18
-1.08959e-18
-1.07771e-18
-1.072e-18
-1.25196e-18
-1.2554e-18
-1.22953e-18
-1.22537e-18
-1.20791e-18
-1.18299e-18
-1.1904e-18
-1.15978e-18
-1.14431e-18
-1.13694e-18
-1.12776e-18
-1.11783e-18
-1.0953e-18
-1.08972e-18
-1.07195e-18
-1.0737e-18
-1.24832e-18
-1.24471e-18
-1.2424e-18
-1.21622e-18
-1.22372e-18
-1.20387e-18
-1.17682e-18
-1.17802e-18
-1.15008e-18
-1.14717e-18
-1.14531e-18
-1.11585e-18
-1.11556e-18
-1.09628e-18
-1.08903e-18
-1.07733e-18
-1.0776e-18
-1.23821e-18
-1.23535e-18
-1.22762e-18
-1.22308e-18
-1.21822e-18
-1.20047e-18
-1.1744e-18
-1.17667e-18
-1.15087e-18
-1.13545e-18
-1.13325e-18
-1.13059e-18
-1.1107e-18
-1.09228e-18
-1.09318e-18
-1.08776e-18
-1.07154e-18
-1.23644e-18
-1.22821e-18
-1.22861e-18
-1.22114e-18
-1.22777e-18
-1.20552e-18
-1.19795e-18
-1.17976e-18
-1.16746e-18
-1.15278e-18
-1.13475e-18
-1.1218e-18
-1.13432e-18
-1.09736e-18
-1.09307e-18
-1.08371e-18
-1.08454e-18
-1.06443e-18
-1.22547e-18
-1.22375e-18
-1.2206e-18
-1.20966e-18
-1.22868e-18
-1.20168e-18
-1.18432e-18
-1.17031e-18
-1.14449e-18
-1.14722e-18
-1.13544e-18
-1.11035e-18
-1.11588e-18
-1.09407e-18
-1.10233e-18
-1.08327e-18
-1.07485e-18
-1.05409e-18
-1.23321e-18
-1.21745e-18
-1.20935e-18
-1.20393e-18
-1.21137e-18
-1.19314e-18
-1.18245e-18
-1.1619e-18
-1.15342e-18
-1.14893e-18
-1.13699e-18
-1.10827e-18
-1.10962e-18
-1.08105e-18
-1.09389e-18
-1.07785e-18
-1.06614e-18
-1.05319e-18
-1.22138e-18
-1.20282e-18
-1.21183e-18
-1.20499e-18
-1.19425e-18
-1.19018e-18
-1.18136e-18
-1.16651e-18
-1.16191e-18
-1.14318e-18
-1.13189e-18
-1.10214e-18
-1.11338e-18
-1.08642e-18
-1.0836e-18
-1.06474e-18
-1.07354e-18
-1.06206e-18
-1.21403e-18
-1.19994e-18
-1.20591e-18
-1.21011e-18
-1.19994e-18
-1.19336e-18
-1.17305e-18
-1.16463e-18
-1.15582e-18
-1.13872e-18
-1.12244e-18
-1.10302e-18
-1.11412e-18
-1.08798e-18
-1.08194e-18
-1.06558e-18
-1.08051e-18
-1.05709e-18
-1.21084e-18
-1.20518e-18
-1.20391e-18
-1.19154e-18
-1.18638e-18
-1.17847e-18
-1.16594e-18
-1.15904e-18
-1.14845e-18
-1.13046e-18
-1.11723e-18
-1.10579e-18
-1.11356e-18
-1.09191e-18
-1.07899e-18
-1.06066e-18
-1.07104e-18
-1.05123e-18
-1.21499e-18
-1.20258e-18
-1.20444e-18
-1.18384e-18
-1.17508e-18
-1.17344e-18
-1.15302e-18
-1.15375e-18
-1.13605e-18
-1.12211e-18
-1.11766e-18
-1.10363e-18
-1.11295e-18
-1.08226e-18
-1.07454e-18
-1.0576e-18
-1.06166e-18
-1.04462e-18
-1.21413e-18
-1.19723e-18
-1.19726e-18
-1.19016e-18
-1.17632e-18
-1.17335e-18
-1.16091e-18
-1.14962e-18
-1.13274e-18
-1.1225e-18
-1.1169e-18
-1.10549e-18
-1.10374e-18
-1.0806e-18
-1.07993e-18
-1.06033e-18
-1.04993e-18
-1.04239e-18
-1.20333e-18
-1.19454e-18
-1.19791e-18
-1.18777e-18
-1.16962e-18
-1.17212e-18
-1.16673e-18
-1.13857e-18
-1.13099e-18
-1.12621e-18
-1.11466e-18
-1.10132e-18
-1.10306e-18
-1.07954e-18
-1.07033e-18
-1.06249e-18
-1.05774e-18
-1.04288e-18
-1.19836e-18
-1.19477e-18
-1.19399e-18
-1.18232e-18
-1.17607e-18
-1.17133e-18
-1.15241e-18
-1.14073e-18
-1.13092e-18
-1.12141e-18
-1.11779e-18
-1.09266e-18
-1.08614e-18
-1.06892e-18
-1.06439e-18
-1.0526e-18
-1.0765e-18
-1.0352e-18
-1.18467e-18
-1.18957e-18
-1.18369e-18
-1.17322e-18
-1.17885e-18
-1.16594e-18
-1.14319e-18
-1.14112e-18
-1.13073e-18
-1.11115e-18
-1.11676e-18
-1.07767e-18
-1.07712e-18
-1.07189e-18
-1.0675e-18
-1.04461e-18
-1.07081e-18
-1.03878e-18
-1.18291e-18
-1.18505e-18
-1.17722e-18
-1.16516e-18
-1.17572e-18
-1.16459e-18
-1.14858e-18
-1.14716e-18
-1.13443e-18
-1.122e-18
-1.11288e-18
-1.08668e-18
-1.08746e-18
-1.08509e-18
-1.0731e-18
-1.0544e-18
-1.05101e-18
-1.03415e-18
-1.18944e-18
-1.18277e-18
-1.16936e-18
-1.16283e-18
-1.16525e-18
-1.15846e-18
-1.14634e-18
-1.13672e-18
-1.12963e-18
-1.11723e-18
-1.10655e-18
-1.08758e-18
-1.08433e-18
-1.08334e-18
-1.06378e-18
-1.05133e-18
-1.04374e-18
-1.03214e-18
-1.18591e-18
-1.17581e-18
-1.16967e-18
-1.1634e-18
-1.15538e-18
-1.16114e-18
-1.15064e-18
-1.12785e-18
-1.11187e-18
-1.11583e-18
-1.1007e-18
-1.0794e-18
-1.07603e-18
-1.06085e-18
-1.05598e-18
-1.03664e-18
-1.04846e-18
-1.02937e-18
-1.18602e-18
-1.18035e-18
-1.16339e-18
-1.16567e-18
-1.15158e-18
-1.15142e-18
-1.15384e-18
-1.14012e-18
-1.11471e-18
-1.09895e-18
-1.10016e-18
-1.07055e-18
-1.08302e-18
-1.05446e-18
-1.04904e-18
-1.03731e-18
-1.05461e-18
-1.03504e-18
-1.18952e-18
-1.17469e-18
-1.18211e-18
-1.17098e-18
-1.1703e-18
-1.15362e-18
-1.14009e-18
-1.15292e-18
-1.12837e-18
-1.11696e-18
-1.09128e-18
-1.10593e-18
-1.07292e-18
-1.08363e-18
-1.05191e-18
-1.05374e-18
-1.02866e-18
-1.03828e-18
-1.03381e-18
-1.18072e-18
-1.17381e-18
-1.17988e-18
-1.16673e-18
-1.16435e-18
-1.16028e-18
-1.13733e-18
-1.1488e-18
-1.1146e-18
-1.11029e-18
-1.09478e-18
-1.10094e-18
-1.07493e-18
-1.07167e-18
-1.04968e-18
-1.05313e-18
-1.03269e-18
-1.02581e-18
-1.02062e-18
-1.16665e-18
-1.17848e-18
-1.17714e-18
-1.1769e-18
-1.16047e-18
-1.16017e-18
-1.15977e-18
-1.14416e-18
-1.14029e-18
-1.11554e-18
-1.10579e-18
-1.08949e-18
-1.09888e-18
-1.06656e-18
-1.07316e-18
-1.04336e-18
-1.04881e-18
-1.02363e-18
-1.02728e-18
-1.00889e-18
-1.17297e-18
-1.17212e-18
-1.17411e-18
-1.17149e-18
-1.15675e-18
-1.15762e-18
-1.15055e-18
-1.13637e-18
-1.13742e-18
-1.11585e-18
-1.10158e-18
-1.08479e-18
-1.09074e-18
-1.06147e-18
-1.06994e-18
-1.04654e-18
-1.05018e-18
-1.0076e-18
-1.04192e-18
-1.01385e-18
-1.17712e-18
-1.16727e-18
-1.17286e-18
-1.16818e-18
-1.15861e-18
-1.15541e-18
-1.14941e-18
-1.12965e-18
-1.1401e-18
-1.10972e-18
-1.1067e-18
-1.08227e-18
-1.08249e-18
-1.05204e-18
-1.06808e-18
-1.05025e-18
-1.05467e-18
-1.0224e-18
-1.04656e-18
-1.0154e-18
-1.16432e-18
-1.17102e-18
-1.16135e-18
-1.16206e-18
-1.15412e-18
-1.14726e-18
-1.14424e-18
-1.11429e-18
-1.1337e-18
-1.10419e-18
-1.10653e-18
-1.08034e-18
-1.08302e-18
-1.05913e-18
-1.0704e-18
-1.03066e-18
-1.05316e-18
-1.03637e-18
-1.02455e-18
-1.01266e-18
-1.16444e-18
-1.17233e-18
-1.15861e-18
-1.16687e-18
-1.15261e-18
-1.13907e-18
-1.14461e-18
-1.11079e-18
-1.13964e-18
-1.10055e-18
-1.10441e-18
-1.07592e-18
-1.08155e-18
-1.05306e-18
-1.067e-18
-1.03722e-18
-1.04573e-18
-1.02639e-18
-1.02921e-18
-1.0122e-18
-1.16372e-18
-1.17588e-18
-1.15362e-18
-1.1591e-18
-1.15109e-18
-1.13771e-18
-1.1464e-18
-1.1228e-18
-1.13165e-18
-1.09691e-18
-1.09463e-18
-1.07776e-18
-1.08411e-18
-1.0383e-18
-1.06088e-18
-1.04085e-18
-1.02165e-18
-1.00585e-18
-1.02599e-18
-1.01946e-18
-1.16494e-18
-1.16889e-18
-1.15941e-18
-1.16505e-18
-1.15123e-18
-1.14144e-18
-1.14639e-18
-1.1277e-18
-1.12955e-18
-1.09802e-18
-1.09997e-18
-1.0846e-18
-1.08395e-18
-1.04454e-18
-1.06339e-18
-1.02575e-18
-1.0407e-18
-1.00443e-18
-1.01791e-18
-9.91269e-19
-1.15966e-18
-1.16824e-18
-1.16608e-18
-1.16145e-18
-1.13972e-18
-1.14032e-18
-1.13852e-18
-1.11464e-18
-1.11996e-18
-1.08808e-18
-1.10152e-18
-1.07231e-18
-1.07371e-18
-1.05315e-18
-1.05335e-18
-1.03342e-18
-1.03996e-18
-1.01968e-18
-1.01377e-18
-1.00359e-18
-1.16075e-18
-1.1594e-18
-1.15281e-18
-1.15419e-18
-1.1461e-18
-1.13644e-18
-1.13569e-18
-1.10789e-18
-1.10745e-18
-1.0924e-18
-1.09589e-18
-1.06906e-18
-1.07273e-18
-1.04564e-18
-1.06222e-18
-1.02759e-18
-1.02752e-18
-1.01775e-18
-1.02783e-18
-1.00648e-18
-1.15292e-18
-1.16489e-18
-1.1507e-18
-1.15435e-18
-1.14684e-18
-1.13792e-18
-1.13512e-18
-1.11294e-18
-1.11646e-18
-1.09469e-18
-1.0926e-18
-1.07054e-18
-1.07816e-18
-1.03555e-18
-1.05038e-18
-1.01669e-18
-1.02785e-18
-1.0003e-18
-1.01677e-18
-1.01659e-18
-1.14568e-18
-1.16278e-18
-1.14667e-18
-1.14654e-18
-1.1421e-18
-1.14608e-18
-1.13101e-18
-1.11443e-18
-1.11509e-18
-1.09636e-18
-1.08991e-18
-1.0657e-18
-1.07129e-18
-1.043e-18
-1.04681e-18
-1.01425e-18
-1.02649e-18
-1.00072e-18
-1.01174e-18
-1.0002e-18
-1.14708e-18
-1.15622e-18
-1.14769e-18
-1.13759e-18
-1.14264e-18
-1.13835e-18
-1.13107e-18
-1.11813e-18
-1.1102e-18
-1.08954e-18
-1.08506e-18
-1.07091e-18
-1.07487e-18
-1.03872e-18
-1.04559e-18
-1.01735e-18
-1.02346e-18
-1.00283e-18
-1.01121e-18
-9.96684e-19
-1.14637e-18
-1.15428e-18
-1.14739e-18
-1.1391e-18
-1.14208e-18
-1.13215e-18
-1.12862e-18
-1.11493e-18
-1.10704e-18
-1.09037e-18
-1.07654e-18
-1.06229e-18
-1.06751e-18
-1.04533e-18
-1.05717e-18
-1.01819e-18
-1.02773e-18
-1.00809e-18
-1.006e-18
-1.00405e-18
-1.14235e-18
-1.15278e-18
-1.14713e-18
-1.13231e-18
-1.14186e-18
-1.12187e-18
-1.12515e-18
-1.10899e-18
-1.10416e-18
-1.08453e-18
-1.07733e-18
-1.06116e-18
-1.06362e-18
-1.04713e-18
-1.05289e-18
-1.01648e-18
-1.02225e-18
-1.00121e-18
-1.01119e-18
-9.96904e-19
-1.13901e-18
-1.15434e-18
-1.14449e-18
-1.13676e-18
-1.13848e-18
-1.12812e-18
-1.12224e-18
-1.11586e-18
-1.10428e-18
-1.08366e-18
-1.08094e-18
-1.06343e-18
-1.05249e-18
-1.04448e-18
-1.03805e-18
-1.0023e-18
-1.02647e-18
-1.00645e-18
-1.00156e-18
-9.97975e-19
-1.14014e-18
-1.15264e-18
-1.14571e-18
-1.13573e-18
-1.13415e-18
-1.1303e-18
-1.11938e-18
-1.11507e-18
-1.10204e-18
-1.08494e-18
-1.08997e-18
-1.05781e-18
-1.05034e-18
-1.0393e-18
-1.0469e-18
-1.00213e-18
-1.02283e-18
-1.00624e-18
-1.01467e-18
-1.01101e-18
-1.13931e-18
-1.14505e-18
-1.14316e-18
-1.12558e-18
-1.13759e-18
-1.13134e-18
-1.11639e-18
-1.1107e-18
-1.10247e-18
-1.08823e-18
-1.08583e-18
-1.04415e-18
-1.05962e-18
-1.02746e-18
-1.02807e-18
-1.00426e-18
-1.02248e-18
-9.95601e-19
-1.01305e-18
-9.98055e-19
-1.13673e-18
-1.13647e-18
-1.13723e-18
-1.13122e-18
-1.13261e-18
-1.13132e-18
-1.11699e-18
-1.1102e-18
-1.09803e-18
-1.07749e-18
-1.07888e-18
-1.04682e-18
-1.05495e-18
-1.02737e-18
-1.02727e-18
-9.84601e-19
-1.02555e-18
-1.0025e-18
-1.00597e-18
-9.96984e-19
-1.14007e-18
-1.13917e-18
-1.12781e-18
-1.13165e-18
-1.1228e-18
-1.12789e-18
-1.11617e-18
-1.10489e-18
-1.09506e-18
-1.08116e-18
-1.07398e-18
-1.03637e-18
-1.05479e-18
-1.02916e-18
-1.03218e-18
-9.86498e-19
-1.01537e-18
-9.96689e-19
-1.01007e-18
-9.97889e-19
-1.13446e-18
-1.13961e-18
-1.13044e-18
-1.1299e-18
-1.11647e-18
-1.11999e-18
-1.11537e-18
-1.10571e-18
-1.09222e-18
-1.07979e-18
-1.08066e-18
-1.043e-18
-1.0447e-18
-1.02316e-18
-1.03084e-18
-1.00241e-18
-1.01812e-18
-9.96366e-19
-1.02648e-18
-9.90029e-19
-1.1358e-18
-1.13913e-18
-1.128e-18
-1.12966e-18
-1.12675e-18
-1.11719e-18
-1.11469e-18
-1.09581e-18
-1.09179e-18
-1.07339e-18
-1.08087e-18
-1.0392e-18
-1.04112e-18
-1.01076e-18
-1.03264e-18
-1.00188e-18
-1.00619e-18
-9.98642e-19
-1.01925e-18
-9.89303e-19
-1.13438e-18
-1.13059e-18
-1.12891e-18
-1.11998e-18
-1.12394e-18
-1.11546e-18
-1.11079e-18
-1.0976e-18
-1.0952e-18
-1.07246e-18
-1.07261e-18
-1.03933e-18
-1.0429e-18
-1.01858e-18
-1.02956e-18
-1.00066e-18
-1.00276e-18
-9.99232e-19
-1.01996e-18
-9.95627e-19
-1.12692e-18
-1.13507e-18
-1.12642e-18
-1.1184e-18
-1.12847e-18
-1.12306e-18
-1.11296e-18
-1.10034e-18
-1.09779e-18
-1.08039e-18
-1.06624e-18
-1.03065e-18
-1.02783e-18
-1.00835e-18
-1.02722e-18
-9.94318e-19
-1.00407e-18
-9.98258e-19
-1.02487e-18
-9.971e-19
-1.12628e-18
-1.12025e-18
-1.11748e-18
-1.10058e-18
-1.10292e-18
-1.07437e-18
-1.07065e-18
-1.03522e-18
-1.02923e-18
-1.00439e-18
-1.01218e-18
-9.85059e-19
-9.90962e-19
-9.96776e-19
-1.02278e-18
-1.00281e-18
-1.09943e-18
-1.06798e-18
-1.06201e-18
-1.03584e-18
-1.02983e-18
-1.0167e-18
-9.96752e-19
-9.75413e-19
-9.96996e-19
-9.94983e-19
-1.02146e-18
-9.97375e-19
-1.04383e-18
-1.05678e-18
-1.02839e-18
-1.05963e-18
-1.03553e-18
-1.05595e-18
-1.04183e-18
-1.0676e-18
-1.04259e-18
-1.04554e-18
-1.07324e-18
-1.0471e-18
-1.0412e-18
-1.06239e-18
-1.0375e-18
-1.06291e-18
-1.04202e-18
-1.05556e-18
-1.0548e-18
-1.07778e-18
-1.04837e-18
-1.05208e-18
-1.04885e-18
-1.07515e-18
-1.04969e-18
-1.04743e-18
-1.05089e-18
-1.06774e-18
-1.06605e-18
-1.0446e-18
-1.05834e-18
-1.05232e-18
-1.05604e-18
-1.0617e-18
-1.0353e-18
-1.05459e-18
-1.05119e-18
-1.06801e-18
-1.06684e-18
-1.03067e-18
-1.04066e-18
-1.05395e-18
-1.0771e-18
-1.07123e-18
-1.02649e-18
-1.04569e-18
-1.04812e-18
-1.08043e-18
-1.06097e-18
-1.01921e-18
-1.0703e-18
-1.05227e-18
-1.06472e-18
-1.05776e-18
-1.02105e-18
-1.06363e-18
-1.05491e-18
-1.06707e-18
-1.0677e-18
-1.08552e-18
-1.02741e-18
-1.06742e-18
-1.05618e-18
-1.07375e-18
-1.05845e-18
-1.08157e-18
-1.01453e-18
-1.06332e-18
-1.05045e-18
-1.07156e-18
-1.05796e-18
-1.08172e-18
-1.06795e-18
-1.03082e-18
-1.05036e-18
-1.05691e-18
-1.06951e-18
-1.06595e-18
-1.08215e-18
-1.08482e-18
-1.09806e-18
-1.02671e-18
-1.05914e-18
-1.05259e-18
-1.06995e-18
-1.07806e-18
-1.0728e-18
-1.09566e-18
-1.09035e-18
-1.08759e-18
-1.0254e-18
-1.05787e-18
-1.0456e-18
-1.06229e-18
-1.0599e-18
-1.07233e-18
-1.089e-18
-1.08103e-18
-1.07721e-18
-1.093e-18
-1.02862e-18
-1.05046e-18
-1.04402e-18
-1.06591e-18
-1.05309e-18
-1.06991e-18
-1.07859e-18
-1.09181e-18
-1.09144e-18
-1.1006e-18
-1.02702e-18
-1.05918e-18
-1.0593e-18
-1.07112e-18
-1.07486e-18
-1.08136e-18
-1.08471e-18
-1.09629e-18
-1.09836e-18
-1.10916e-18
-1.03142e-18
-1.04635e-18
-1.05107e-18
-1.06187e-18
-1.06997e-18
-1.07977e-18
-1.08715e-18
-1.09295e-18
-1.0998e-18
-1.1138e-18
-1.03489e-18
-1.04709e-18
-1.05074e-18
-1.05766e-18
-1.07153e-18
-1.06699e-18
-1.08794e-18
-1.0961e-18
-1.10092e-18
-1.1066e-18
-1.03931e-18
-1.04987e-18
-1.04085e-18
-1.06107e-18
-1.07233e-18
-1.06768e-18
-1.08282e-18
-1.09298e-18
-1.09564e-18
-1.10659e-18
-1.03747e-18
-1.04714e-18
-1.05643e-18
-1.05864e-18
-1.06593e-18
-1.07223e-18
-1.09059e-18
-1.08867e-18
-1.09796e-18
-1.10426e-18
-1.04496e-18
-1.02897e-18
-1.07197e-18
-1.05324e-18
-1.06265e-18
-1.07618e-18
-1.08675e-18
-1.08865e-18
-1.09725e-18
-1.10888e-18
-1.0359e-18
-1.02859e-18
-1.05618e-18
-1.04846e-18
-1.05313e-18
-1.07257e-18
-1.08329e-18
-1.0899e-18
-1.09186e-18
-1.10213e-18
-1.02902e-18
-1.04199e-18
-1.04493e-18
-1.05214e-18
-1.06122e-18
-1.07086e-18
-1.07703e-18
-1.08227e-18
-1.09077e-18
-1.10242e-18
-1.02746e-18
-1.03649e-18
-1.0455e-18
-1.04968e-18
-1.06775e-18
-1.06941e-18
-1.07386e-18
-1.08501e-18
-1.08659e-18
-1.10672e-18
-1.02117e-18
-1.03677e-18
-1.05345e-18
-1.05123e-18
-1.06168e-18
-1.06353e-18
-1.07487e-18
-1.08364e-18
-1.09208e-18
-1.10647e-18
-1.04089e-18
-1.03561e-18
-1.05906e-18
-1.04386e-18
-1.06892e-18
-1.05887e-18
-1.07446e-18
-1.08663e-18
-1.08867e-18
-1.09719e-18
-1.03456e-18
-1.04617e-18
-1.04116e-18
-1.03801e-18
-1.03755e-18
-1.03908e-18
-1.03771e-18
-1.0309e-18
-1.03113e-18
-1.03759e-18
-1.04214e-18
-1.04942e-18
-1.05379e-18
-1.05933e-18
-1.05383e-18
-1.04378e-18
-1.04928e-18
-1.03228e-18
-1.04215e-18
-1.04054e-18
-1.03932e-18
-1.04462e-18
-1.03746e-18
-1.03461e-18
-1.02795e-18
-1.02784e-18
-1.01869e-18
-1.02785e-18
-1.03511e-18
-1.03436e-18
-1.03997e-18
-1.02113e-18
-1.02665e-18
-1.02214e-18
-1.03299e-18
-1.01412e-18
-1.00664e-18
-1.01744e-18
-1.0242e-18
-1.02776e-18
-1.03485e-18
-1.02695e-18
-1.0283e-18
-1.04831e-18
-1.03734e-18
-1.01123e-18
-1.01351e-18
-1.0077e-18
-1.01012e-18
-1.02183e-18
-1.01229e-18
-1.013e-18
-1.0168e-18
-1.01115e-18
-1.02057e-18
-1.01649e-18
-1.01196e-18
-1.01288e-18
-1.02886e-18
-1.02809e-18
-1.01448e-18
-1.02065e-18
-1.02061e-18
-1.02164e-18
-1.01871e-18
-1.02863e-18
-1.02642e-18
-1.02867e-18
-1.03258e-18
-1.03347e-18
-1.04288e-18
-1.02432e-18
-1.02886e-18
-1.02527e-18
-1.02787e-18
-1.02702e-18
-1.02419e-18
-1.02932e-18
-1.02041e-18
-1.01599e-18
-1.01586e-18
-1.024e-18
-1.01792e-18
-1.01933e-18
-1.02513e-18
-1.02369e-18
-1.00838e-18
-1.01432e-18
-1.00867e-18
-1.01668e-18
-1.00783e-18
-9.94207e-19
-1.01049e-18
-1.02238e-18
-1.02119e-18
-1.01286e-18
-1.00998e-18
-1.02182e-18
-1.01549e-18
-1.00785e-18
-1.00945e-18
-1.01227e-18
-1.02668e-18
-1.00281e-18
-1.01144e-18
-1.0071e-18
-1.00663e-18
-1.01412e-18
-1.00736e-18
-1.00162e-18
-1.00394e-18
-1.0101e-18
-1.02097e-18
-1.00817e-18
-1.00023e-18
-9.96402e-19
-1.01199e-18
-1.01008e-18
-1.00465e-18
-1.00893e-18
-1.00673e-18
-1.00399e-18
-1.01121e-18
-1.00897e-18
-1.00878e-18
-1.01397e-18
-1.01626e-18
-1.01151e-18
-1.01322e-18
-1.01812e-18
-1.02404e-18
-1.02018e-18
-1.02102e-18
-1.0179e-18
-1.02369e-18
-1.02607e-18
-1.01244e-18
-1.01162e-18
-1.00856e-18
-1.01214e-18
-1.02235e-18
-1.0191e-18
-1.01208e-18
-1.01504e-18
-1.01277e-18
-1.01131e-18
-1.00855e-18
-1.00506e-18
-1.00671e-18
-1.00914e-18
-1.01334e-18
-1.00784e-18
-1.00227e-18
-1.01008e-18
-1.01399e-18
-1.00312e-18
-1.01234e-18
-1.01544e-18
-1.00931e-18
-9.95488e-19
-1.01355e-18
-1.02198e-18
-1.00017e-18
-1.00485e-18
-1.00303e-18
-1.00196e-18
-1.00972e-18
-1.0113e-18
-1.02066e-18
-1.01532e-18
-1.00716e-18
-1.01164e-18
-1.00999e-18
-1.0078e-18
-9.99489e-19
-9.95826e-19
-1.00904e-18
-1.00996e-18
-1.01074e-18
-1.00643e-18
-1.0055e-18
-1.00683e-18
-1.00972e-18
-1.02124e-18
-1.02021e-18
-1.00007e-18
-1.00347e-18
-9.88594e-19
-9.99581e-19
-1.00524e-18
-1.00425e-18
-9.99794e-19
-9.89016e-19
-9.94448e-19
-9.9884e-19
-9.98195e-19
-9.93932e-19
-1.00249e-18
-1.00165e-18
-1.00574e-18
-9.93994e-19
-9.94999e-19
-1.00857e-18
-1.00698e-18
-1.00607e-18
-1.00115e-18
-1.00538e-18
-1.00768e-18
-1.00972e-18
-1.01476e-18
-1.01721e-18
-1.00737e-18
-1.01869e-18
-1.01018e-18
-1.01206e-18
-1.01425e-18
-1.01664e-18
-1.02164e-18
-1.01186e-18
-9.99561e-19
-1.00393e-18
-1.00693e-18
-1.00234e-18
-1.007e-18
-1.01529e-18
-1.0026e-18
-1.00103e-18
-1.00055e-18
-1.01087e-18
-1.00304e-18
-1.00313e-18
-1.00209e-18
-1.00029e-18
-1.00905e-18
-1.01543e-18
-1.00074e-18
-9.9175e-19
-9.95231e-19
-1.00419e-18
-9.98093e-19
-9.93894e-19
-9.91149e-19
-9.97174e-19
-9.88581e-19
-9.92866e-19
-9.9963e-19
-1.00473e-18
-1.00826e-18
-1.00762e-18
-1.00838e-18
-1.0048e-18
-1.00263e-18
-9.98602e-19
-1.00357e-18
-1.00822e-18
-1.02046e-18
-1.01718e-18
-1.00302e-18
-1.00636e-18
-1.0158e-18
-9.96772e-19
-1.00137e-18
-9.99227e-19
-9.82441e-19
-9.8885e-19
-9.99519e-19
-9.92413e-19
-9.96603e-19
-9.99285e-19
-9.93312e-19
-9.98722e-19
-9.85008e-19
-9.95288e-19
-9.9566e-19
-1.00167e-18
-1.00714e-18
-1.0148e-18
-1.00292e-18
-9.97612e-19
-1.00029e-18
-9.95278e-19
-9.96875e-19
-9.99848e-19
-9.98675e-19
-9.96294e-19
-1.00268e-18
-1.00006e-18
-1.00291e-18
-1.00132e-18
-1.00363e-18
-1.00434e-18
-1.00764e-18
-1.00442e-18
-1.01361e-18
-1.0127e-18
-1.01072e-18
-9.86215e-19
-9.94451e-19
-1.0017e-18
-9.93583e-19
-9.99531e-19
-1.01576e-18
-9.98422e-19
-9.94989e-19
-9.92268e-19
-9.93384e-19
-1.00087e-18
-1.00695e-18
-1.01208e-18
-1.00466e-18
-1.00044e-18
-9.97058e-19
-9.99097e-19
-1.00686e-18
-1.01009e-18
-1.01898e-18
-1.00956e-18
-1.00407e-18
-9.97592e-19
-9.95976e-19
-1.00057e-18
-9.97468e-19
-9.97298e-19
-1.00169e-18
-1.00169e-18
-1.00469e-18
-1.00084e-18
-1.00584e-18
-1.0067e-18
-1.0119e-18
-1.00631e-18
-9.97941e-19
-9.97205e-19
-9.96945e-19
-1.00391e-18
-1.0086e-18
-1.01318e-18
-1.0058e-18
-1.0023e-18
-1.00166e-18
-1.00146e-18
-1.00001e-18
-9.96742e-19
-9.89422e-19
-9.87245e-19
-9.95467e-19
-9.99263e-19
-9.93311e-19
-9.89868e-19
-1.0018e-18
-1.00143e-18
-9.96247e-19
-9.97922e-19
-1.00265e-18
-1.01397e-18
-1.0063e-18
-9.98829e-19
-9.96592e-19
-1.00095e-18
-9.99276e-19
-1.00126e-18
-9.96364e-19
-1.00243e-18
-1.00115e-18
-9.95395e-19
-9.94705e-19
-1.0038e-18
-1.00566e-18
-1.00768e-18
-1.00966e-18
-1.01308e-18
-1.01546e-18
-1.00768e-18
-1.01066e-18
-1.00131e-18
-9.98982e-19
-9.94558e-19
-1.00371e-18
-1.00228e-18
-1.00138e-18
-9.96785e-19
-9.97711e-19
-9.98397e-19
-1.00167e-18
-9.9787e-19
-9.94919e-19
-9.94418e-19
-9.95598e-19
-9.91749e-19
-9.95072e-19
-9.99819e-19
-9.97959e-19
-9.99358e-19
-1.01235e-18
-1.00173e-18
-9.89277e-19
-9.92442e-19
-9.9684e-19
-9.88302e-19
-9.82158e-19
-9.9057e-19
-9.95201e-19
-1.00072e-18
-1.01211e-18
-1.00065e-18
-1.00233e-18
-9.99614e-19
-1.00387e-18
-1.00819e-18
-1.01514e-18
-1.01419e-18
-1.01474e-18
-1.01165e-18
-1.00472e-18
-1.00221e-18
-1.00019e-18
-9.98041e-19
-9.95162e-19
-1.00158e-18
-1.00062e-18
-9.98863e-19
-1.00359e-18
-1.01636e-18
-1.01236e-18
-9.99458e-19
-9.94769e-19
-9.86308e-19
-9.93048e-19
-9.92374e-19
-1.00197e-18
-1.00548e-18
-1.00488e-18
-1.00223e-18
-1.00153e-18
-9.96793e-19
-9.94309e-19
-9.98633e-19
-9.89582e-19
-9.99373e-19
-1.00349e-18
-1.00056e-18
-1.00411e-18
-1.00952e-18
-1.00517e-18
-9.98373e-19
-9.96338e-19
-1.00823e-18
-1.00639e-18
-1.00721e-18
-1.00948e-18
-1.00784e-18
-1.00522e-18
-9.99615e-19
-1.00108e-18
-1.00322e-18
-9.95637e-19
-9.89324e-19
-9.93504e-19
-1.00268e-18
-9.96033e-19
-9.93741e-19
-9.97454e-19
-9.94866e-19
-1.00303e-18
-9.94145e-19
-9.92488e-19
-9.87074e-19
-9.90447e-19
-1.00394e-18
-9.96937e-19
-9.94749e-19
-9.90412e-19
-9.83715e-19
-9.85742e-19
-9.96109e-19
-9.93848e-19
-9.97398e-19
-9.89813e-19
-9.83017e-19
-1.00297e-18
-9.97977e-19
-9.84165e-19
-9.89372e-19
-1.00222e-18
-1.00103e-18
-9.95783e-19
-1.00101e-18
-1.00205e-18
-9.95368e-19
-9.94682e-19
-9.96019e-19
-1.00163e-18
-1.0007e-18
-9.99865e-19
-1.00028e-18
-1.00118e-18
-9.98118e-19
-9.97056e-19
-1.00183e-18
-1.00108e-18
-9.97471e-19
-9.97795e-19
-9.96627e-19
-1.0043e-18
-1.01139e-18
-1.00165e-18
-9.97964e-19
-9.98349e-19
-1.00097e-18
-9.96113e-19
-9.98542e-19
-1.00299e-18
-9.98456e-19
-1.00342e-18
-1.00116e-18
-1.00103e-18
-9.95632e-19
-9.98433e-19
-9.99638e-19
-1.00418e-18
-1.00111e-18
-9.95515e-19
-9.95439e-19
-9.98145e-19
-9.96766e-19
-9.91817e-19
-9.90788e-19
-9.9972e-19
-1.00402e-18
-9.95995e-19
-1.00186e-18
-9.99829e-19
-9.99487e-19
-9.99454e-19
-1.00325e-18
-9.96074e-19
-9.88673e-19
-9.94629e-19
-1.00137e-18
-9.99261e-19
-9.92929e-19
-9.8476e-19
-9.84982e-19
-9.88783e-19
-9.95185e-19
-9.90185e-19
-1.00061e-18
-9.9972e-19
-9.98266e-19
-9.97897e-19
-9.95317e-19
-1.00117e-18
-1.00654e-18
-1.00183e-18
-9.9844e-19
-9.93182e-19
-9.94303e-19
-9.89535e-19
-9.91097e-19
-9.98944e-19
-9.85337e-19
-9.98237e-19
-9.94402e-19
-1.00024e-18
-1.00475e-18
-9.9913e-19
-9.99982e-19
-1.00274e-18
-9.96602e-19
-1.00216e-18
-9.98943e-19
-9.95628e-19
-1.00153e-18
-1.00657e-18
-1.00402e-18
-1.00793e-18
-1.00979e-18
-1.0047e-18
-1.00128e-18
-9.93772e-19
-9.86687e-19
-9.99201e-19
-1.00433e-18
-1.00993e-18
-1.00998e-18
-1.0109e-18
-1.0052e-18
-1.01226e-18
-1.01119e-18
-1.011e-18
-1.01311e-18
-1.00498e-18
-9.99149e-19
-1.00202e-18
-1.00141e-18
-1.00544e-18
-1.00864e-18
-9.89528e-19
-9.91468e-19
-1.0008e-18
-9.99559e-19
-1.00008e-18
-9.92567e-19
-9.95483e-19
-9.92371e-19
-9.9624e-19
-9.96608e-19
-9.97728e-19
-9.9509e-19
-9.89293e-19
-9.89021e-19
-9.94278e-19
-9.9328e-19
-1.00004e-18
-9.93602e-19
-9.80526e-19
-9.89286e-19
-9.95304e-19
-1.00095e-18
-9.99872e-19
-9.98127e-19
-9.97233e-19
-1.00042e-18
-9.91228e-19
-9.94183e-19
-9.91842e-19
-9.91156e-19
-9.92497e-19
-9.91879e-19
-9.90648e-19
-9.9144e-19
-9.87433e-19
-9.94359e-19
-9.96309e-19
-1.00326e-18
-9.99847e-19
-1.0026e-18
-9.96369e-19
-9.93598e-19
-9.88669e-19
-9.86144e-19
-9.94416e-19
-1.00545e-18
-1.00327e-18
-9.9686e-19
-9.9644e-19
-9.96481e-19
-9.9147e-19
-9.9426e-19
-1.00013e-18
-1.00255e-18
-9.93426e-19
-1.00058e-18
-1.00671e-18
-1.00325e-18
-1.00086e-18
-1.00244e-18
-1.00321e-18
-1.00509e-18
-1.00804e-18
-1.00206e-18
-1.0041e-18
-1.00301e-18
-1.00412e-18
-1.00734e-18
-1.00342e-18
-9.94065e-19
-1.00504e-18
-1.00727e-18
-9.98886e-19
-9.99507e-19
-1.0043e-18
-9.98641e-19
-1.00152e-18
-1.00976e-18
-1.00398e-18
-9.92379e-19
-9.98632e-19
-9.9432e-19
-9.90296e-19
-9.98255e-19
-9.96284e-19
-9.98372e-19
-9.87597e-19
-9.8585e-19
-9.86002e-19
-9.85092e-19
-9.81356e-19
-9.82124e-19
-9.79777e-19
-9.84982e-19
-9.8311e-19
-9.82972e-19
-9.91592e-19
-9.83433e-19
-9.81056e-19
-9.85722e-19
-9.89449e-19
-9.91021e-19
-9.93251e-19
-9.93029e-19
-9.93979e-19
-9.91798e-19
-9.88319e-19
-9.93487e-19
-9.9404e-19
-9.93324e-19
-9.91487e-19
-9.90685e-19
-9.92011e-19
-9.86802e-19
-9.89602e-19
-9.87588e-19
-9.87743e-19
-9.91687e-19
-9.88044e-19
-9.93515e-19
-9.95061e-19
-9.98334e-19
-1.00253e-18
-9.99975e-19
-9.98402e-19
-1.0009e-18
-9.98453e-19
-9.96964e-19
-9.97588e-19
-1.0004e-18
-1.00565e-18
-1.00759e-18
-1.00105e-18
-9.98355e-19
-1.00165e-18
-9.98595e-19
-1.00237e-18
-1.01256e-18
-9.95374e-19
-9.91257e-19
-9.953e-19
-9.94435e-19
-9.99774e-19
-1.00333e-18
-9.94592e-19
-9.95445e-19
-9.94496e-19
-9.98906e-19
-1.0003e-18
-1.00408e-18
-1.01078e-18
-9.98461e-19
-1.00018e-18
-9.99083e-19
-1.00015e-18
-9.89969e-19
-9.90238e-19
-9.9248e-19
-9.92083e-19
-9.89225e-19
-9.92713e-19
-9.92345e-19
-9.9117e-19
-9.87867e-19
-9.88192e-19
-9.87546e-19
-9.88632e-19
-9.94445e-19
-9.98515e-19
-1.00108e-18
-1.00515e-18
-9.9368e-19
-9.92037e-19
-9.87906e-19
-9.92441e-19
-1.00214e-18
-9.96444e-19
-9.97976e-19
-9.9899e-19
-9.99563e-19
-1.00021e-18
-1.00079e-18
-9.99565e-19
-9.99973e-19
-1.00192e-18
-1.00106e-18
-9.95158e-19
-1.00023e-18
-1.00337e-18
-1.00522e-18
-1.00928e-18
-1.00819e-18
-1.01119e-18
-1.00785e-18
-1.00997e-18
-1.0042e-18
-9.97659e-19
-1.00022e-18
-1.00184e-18
-1.0025e-18
-1.00067e-18
-9.99013e-19
-9.95954e-19
-9.97857e-19
-9.98128e-19
-9.98025e-19
-9.98401e-19
-9.99615e-19
-9.99408e-19
-9.96964e-19
-1.00793e-18
-1.00888e-18
-1.00363e-18
-1.00261e-18
-1.00156e-18
-9.98042e-19
-9.92594e-19
-9.93266e-19
-1.0015e-18
-1.00619e-18
-1.00494e-18
-1.00856e-18
-1.00585e-18
-9.98282e-19
-1.00077e-18
-9.99172e-19
-9.99647e-19
-9.99302e-19
-9.99475e-19
-9.97554e-19
-9.96713e-19
-1.00117e-18
-1.0066e-18
-1.00235e-18
-1.00207e-18
-1.0058e-18
-1.00295e-18
-9.98491e-19
-9.98949e-19
-9.99793e-19
-1.00039e-18
-9.99294e-19
-9.96371e-19
-9.99748e-19
-1.00082e-18
-1.00546e-18
-1.01391e-18
-1.00047e-18
-1.00144e-18
-1.0029e-18
-1.00312e-18
-1.00146e-18
-1.0111e-18
-1.00999e-18
-1.00922e-18
-1.01182e-18
-1.01648e-18
-1.01271e-18
-1.0128e-18
-1.01513e-18
-1.0124e-18
-1.00904e-18
-1.00618e-18
-1.01213e-18
-1.00724e-18
-1.01094e-18
-1.00673e-18
-1.01074e-18
-1.00555e-18
-9.91426e-19
-9.94834e-19
-1.00292e-18
-9.97802e-19
-1.00058e-18
-1.00382e-18
-9.96278e-19
-9.99505e-19
-1.00435e-18
-1.00202e-18
-1.00086e-18
-1.00142e-18
-1.00345e-18
-1.00874e-18
-1.00402e-18
-9.99473e-19
-1.00442e-18
-1.00891e-18
-1.01306e-18
-1.00952e-18
-1.00756e-18
-1.00695e-18
-1.00602e-18
-1.00314e-18
-1.00707e-18
-1.00948e-18
-1.00771e-18
-1.00158e-18
-1.00766e-18
-1.00952e-18
-1.00899e-18
-1.0099e-18
-1.00661e-18
-9.95528e-19
-9.95565e-19
-9.95229e-19
-1.00201e-18
-1.00123e-18
-1.00099e-18
-1.00098e-18
-1.00083e-18
-1.00244e-18
-1.00598e-18
-1.0065e-18
-1.01101e-18
-1.00464e-18
-9.96385e-19
-1.00732e-18
-1.01509e-18
-1.00905e-18
-1.00306e-18
-1.00782e-18
-1.00967e-18
-1.0102e-18
-1.0095e-18
-1.00622e-18
-1.00842e-18
-1.00886e-18
-1.00783e-18
-1.00561e-18
-1.00067e-18
-1.00348e-18
-1.00455e-18
-1.00177e-18
-1.00039e-18
-9.98199e-19
-9.98128e-19
-9.98306e-19
-9.98524e-19
-9.99171e-19
-9.99862e-19
-1.0003e-18
-1.00085e-18
-1.00173e-18
-9.99043e-19
-9.94127e-19
-1.01156e-18
-1.00594e-18
-1.00572e-18
-1.00685e-18
-1.00576e-18
-1.00127e-18
-1.00285e-18
-1.00677e-18
-1.00737e-18
-1.00643e-18
-1.01568e-18
-1.01685e-18
-1.01163e-18
-1.00838e-18
-1.00406e-18
-1.00681e-18
-1.01134e-18
-1.01765e-18
-9.94273e-19
-9.91324e-19
-9.99333e-19
-9.97725e-19
-9.93974e-19
-9.8963e-19
-9.96744e-19
-1.00265e-18
-9.97923e-19
-9.93335e-19
-9.99205e-19
-1.00189e-18
-1.00331e-18
-1.00903e-18
-1.0071e-18
-1.0102e-18
-1.01231e-18
-1.00873e-18
-1.00435e-18
-1.01555e-18
-1.01048e-18
-1.00578e-18
-1.00573e-18
-1.00418e-18
-1.00209e-18
-9.99163e-19
-9.99759e-19
-9.97071e-19
-9.96616e-19
-1.00101e-18
-1.00097e-18
-9.98254e-19
-9.95019e-19
-9.96796e-19
-1.00064e-18
-9.98887e-19
-1.00584e-18
-1.01108e-18
-9.99757e-19
-9.94331e-19
-9.88945e-19
-9.90217e-19
-9.95872e-19
-9.94117e-19
-9.91763e-19
-1.00655e-18
-1.00011e-18
-1.00168e-18
-9.95023e-19
-1.00677e-18
-1.01102e-18
-1.00606e-18
-1.00092e-18
-1.00581e-18
-1.00934e-18
-1.0135e-18
-1.00995e-18
-1.00745e-18
-1.00842e-18
-1.00603e-18
-1.0043e-18
-1.01348e-18
-9.84248e-19
-9.86688e-19
-9.92715e-19
-1.00028e-18
-9.88569e-19
-9.91036e-19
-9.95871e-19
-9.92177e-19
-9.91599e-19
-9.92663e-19
-9.95705e-19
-9.98854e-19
-9.96879e-19
-9.98191e-19
-9.99953e-19
-9.93421e-19
-9.96297e-19
-9.94085e-19
-9.99401e-19
-1.00599e-18
-1.00836e-18