/*--------------------------------*- C++ -*----------------------------------*\
  =========                 |
  \\      /  F ield         | OpenFOAM: The Open Source CFD Toolbox
   \\    /   O peration     | Website:  https://openfoam.org
    \\  /    A nd           | Version:  7
     \\/     M anipulation  |
\*---------------------------------------------------------------------------*/
FoamFile
{
    version     2.0;
    format      ascii;
    class       volScalarField;
    location    "20000";
    object      k;
}
// * * * * * * * * * * * * * * * * * * * * * * * * * * * * * * * * * * * * * //

dimensions      [0 2 -2 0 0 0 0];

internalField   uniform 2.22045e-16;

boundaryField
{
    inlet
    {
        type            cyclic;
    }
    outlet
    {
        type            cyclic;
    }
    wall
    {
        type            fixedValue;
        value           uniform 1e-30;
    }
    procBoundary7to0
    {
        type            processor;
        value           uniform 2.22045e-16;
    }
    procBoundary7to1
    {
        type            processor;
        value           uniform 2.22045e-16;
    }
    procBoundary7to4
    {
        type            processor;
        value           uniform 2.22045e-16;
    }
    procBoundary7to5
    {
        type            processor;
        value           uniform 2.22045e-16;
    }
    procBoundary7to6
    {
        type            processor;
        value           uniform 2.22045e-16;
    }
}


// ************************************************************************* //
