/*--------------------------------*- C++ -*----------------------------------*\
  =========                 |
  \\      /  F ield         | OpenFOAM: The Open Source CFD Toolbox
   \\    /   O peration     | Website:  https://openfoam.org
    \\  /    A nd           | Version:  7
     \\/     M anipulation  |
\*---------------------------------------------------------------------------*/
FoamFile
{
    version     2.0;
    format      ascii;
    class       volVectorField;
    location    "20000";
    object      U;
}
// * * * * * * * * * * * * * * * * * * * * * * * * * * * * * * * * * * * * * //

dimensions      [0 1 -1 0 0 0 0];

internalField   nonuniform List<vector> 
4764
(
(-4.24552e-19 1.47758e-19 -0.00295623)
(-2.22757e-19 2.8312e-19 -0.00295639)
(-2.73034e-19 1.41069e-19 -0.00295654)
(-2.41166e-19 2.04902e-19 -0.00295667)
(-1.55956e-19 -2.83893e-20 -0.00295678)
(-3.94724e-19 1.33177e-19 -0.00295688)
(-3.9143e-19 -7.23647e-21 -0.00295361)
(-1.10954e-19 -1.19673e-19 -0.00295388)
(-2.33089e-19 -5.26943e-21 -0.00295414)
(-5.15335e-19 -8.93497e-21 -0.00295439)
(-4.60193e-19 -6.29385e-20 -0.00295464)
(-2.72257e-19 -7.77754e-21 -0.00295487)
(-3.52229e-19 -2.92802e-20 -0.00295508)
(-2.81313e-19 1.19085e-21 -0.00295529)
(-4.42939e-19 7.66984e-20 -0.00295548)
(-4.31898e-19 2.12279e-19 -0.00295566)
(-2.58242e-19 3.92842e-19 -0.00295582)
(-2.84539e-19 1.57896e-19 -0.00295596)
(-2.57552e-19 2.00028e-19 -0.00295609)
(-1.53185e-19 -3.60183e-20 -0.00295621)
(-3.823e-19 2.0472e-19 -0.00295631)
(-3.53678e-19 2.16419e-19 -0.00295639)
(-2.33028e-19 1.64872e-19 -0.00295645)
(-3.43072e-19 1.79833e-19 -0.0029565)
(-2.49627e-19 2.10646e-19 -0.00295653)
(-2.41351e-19 1.03815e-19 -0.00295654)
(-3.89612e-19 3.32049e-19 -0.00295653)
(-3.59978e-19 3.26591e-19 -0.0029565)
(-3.48186e-19 1.86502e-19 -0.00295646)
(-1.32521e-19 4.13802e-19 -0.0029564)
(-2.78285e-19 4.28834e-19 -0.00295632)
(-1.31474e-19 5.07759e-19 -0.00295623)
(-1.45419e-19 2.24956e-19 -0.00295612)
(-2.70969e-19 3.22297e-19 -0.002956)
(-7.68642e-21 4.16028e-19 -0.00295587)
(-4.10391e-19 1.2903e-20 -0.00295301)
(-9.74727e-20 -1.37989e-19 -0.00295328)
(-2.04424e-19 -1.56113e-21 -0.00295355)
(-5.20226e-19 9.1455e-21 -0.0029538)
(-4.8611e-19 -2.36824e-20 -0.00295404)
(-2.90515e-19 4.76552e-20 -0.00295428)
(-4.14292e-19 1.16729e-19 -0.0029545)
(-2.71155e-19 -2.4303e-20 -0.0029547)
(-4.381e-19 9.58537e-20 -0.0029549)
(-4.25805e-19 2.42355e-19 -0.00295508)
(-2.6245e-19 3.93923e-19 -0.00295524)
(-2.97569e-19 1.46954e-19 -0.00295539)
(-2.59668e-19 1.51765e-19 -0.00295552)
(-1.64724e-19 5.19109e-20 -0.00295564)
(-3.61001e-19 1.59362e-19 -0.00295574)
(-3.54414e-19 1.87816e-19 -0.00295582)
(-2.33906e-19 2.01984e-19 -0.00295588)
(-3.38611e-19 2.0225e-19 -0.00295593)
(-2.59325e-19 2.95583e-19 -0.00295596)
(-2.36376e-19 1.31808e-19 -0.00295597)
(-3.85141e-19 3.65908e-19 -0.00295596)
(-3.79537e-19 2.68332e-19 -0.00295593)
(-3.40101e-19 2.25735e-19 -0.00295589)
(-1.19216e-19 4.17723e-19 -0.00295583)
(-2.74579e-19 4.58639e-19 -0.00295575)
(-1.55396e-19 4.86792e-19 -0.00295566)
(-1.71147e-19 1.82561e-19 -0.00295555)
(-2.50729e-19 3.47999e-19 -0.00295543)
(-3.18859e-22 4.04058e-19 -0.00295529)
(6.17552e-20 2.69123e-19 -0.00295513)
(-2.54702e-20 2.78028e-19 -0.00295497)
(-5.86547e-20 2.07078e-19 -0.00295479)
(9.23106e-20 3.53746e-19 -0.00295459)
(-4.39009e-19 4.5091e-20 -0.00295241)
(-1.11091e-19 -1.16427e-19 -0.00295269)
(-1.62798e-19 -9.40915e-21 -0.00295295)
(-5.24526e-19 3.34458e-20 -0.00295321)
(-5.15196e-19 1.93737e-20 -0.00295345)
(-2.85425e-19 7.27364e-20 -0.00295369)
(-4.48076e-19 1.80355e-19 -0.00295391)
(-3.03565e-19 2.69364e-20 -0.00295412)
(-4.301e-19 1.14324e-19 -0.00295431)
(-4.24046e-19 2.68584e-19 -0.0029545)
(-2.68002e-19 3.82139e-19 -0.00295467)
(-2.90812e-19 6.64335e-20 -0.00295482)
(-2.50592e-19 9.59031e-20 -0.00295495)
(-1.75034e-19 1.15011e-19 -0.00295507)
(-3.42761e-19 9.4055e-20 -0.00295516)
(-3.48644e-19 2.23159e-19 -0.00295524)
(-2.37763e-19 2.82565e-19 -0.00295531)
(-3.40864e-19 2.5347e-19 -0.00295535)
(-2.67487e-19 3.18379e-19 -0.00295538)
(-2.33285e-19 1.37803e-19 -0.00295539)
(-3.85749e-19 2.80592e-19 -0.00295538)
(-3.98958e-19 2.3504e-19 -0.00295536)
(-3.34929e-19 2.4523e-19 -0.00295531)
(-1.09091e-19 3.8579e-19 -0.00295525)
(-2.7737e-19 4.50537e-19 -0.00295517)
(-1.76965e-19 4.81825e-19 -0.00295508)
(-1.71229e-19 2.14623e-19 -0.00295497)
(-2.20856e-19 4.06288e-19 -0.00295485)
(1.48886e-20 4.7951e-19 -0.00295471)
(3.78772e-20 2.16118e-19 -0.00295455)
(-4.51615e-20 2.32196e-19 -0.00295438)
(-5.52986e-20 1.92794e-19 -0.0029542)
(8.38179e-20 3.36412e-19 -0.002954)
(3.25503e-20 1.09279e-19 -0.00295379)
(2.14068e-19 1.32328e-19 -0.00295356)
(-1.0802e-19 -6.93054e-20 -0.00295333)
(1.00848e-19 1.29526e-19 -0.00295308)
(1.17018e-19 2.0177e-19 -0.00295282)
(9.31852e-20 2.78466e-19 -0.00295255)
(-9.2352e-20 9.97093e-20 -0.00295228)
(1.32597e-19 1.13285e-19 -0.00295199)
(2.10625e-19 1.11265e-19 -0.00295171)
(1.08175e-19 6.19437e-20 -0.00295142)
(-3.79683e-20 -8.75413e-20 -0.00295113)
(-9.59349e-20 7.18195e-20 -0.00295085)
(-4.74136e-19 9.45665e-20 -0.00295181)
(-1.58437e-19 -5.14612e-20 -0.00295209)
(-1.35509e-19 -2.20231e-21 -0.00295235)
(-5.18663e-19 5.47842e-20 -0.00295261)
(-5.47579e-19 7.30724e-20 -0.00295286)
(-2.75736e-19 7.43597e-20 -0.0029531)
(-4.47323e-19 1.85688e-19 -0.00295332)
(-3.61322e-19 1.54465e-19 -0.00295353)
(-4.38925e-19 1.57232e-19 -0.00295373)
(-4.27356e-19 3.1597e-19 -0.00295392)
(-2.99006e-19 4.26401e-19 -0.00295409)
(-3.0754e-19 4.45157e-20 -0.00295424)
(-2.3983e-19 7.86722e-20 -0.00295437)
(-1.80104e-19 1.63501e-19 -0.00295449)
(-3.22712e-19 2.92148e-20 -0.00295459)
(-3.32331e-19 2.12897e-19 -0.00295467)
(-2.28478e-19 2.44323e-19 -0.00295473)
(-3.48545e-19 3.36286e-19 -0.00295478)
(-2.79971e-19 3.15233e-19 -0.00295481)
(-2.43286e-19 1.46708e-19 -0.00295482)
(-3.894e-19 1.62323e-19 -0.00295481)
(-4.03246e-19 2.17336e-19 -0.00295478)
(-3.24649e-19 3.19369e-19 -0.00295474)
(-1.02835e-19 3.58707e-19 -0.00295468)
(-2.78864e-19 4.18487e-19 -0.0029546)
(-1.81076e-19 5.50416e-19 -0.0029545)
(-1.69973e-19 2.65217e-19 -0.00295439)
(-2.05633e-19 3.8376e-19 -0.00295427)
(1.53567e-20 5.06064e-19 -0.00295413)
(1.85081e-20 2.14082e-19 -0.00295397)
(-5.76304e-20 2.02576e-19 -0.0029538)
(-4.64947e-20 2.00774e-19 -0.00295361)
(4.94317e-20 2.55115e-19 -0.00295341)
(3.44817e-20 1.09101e-19 -0.00295319)
(2.29366e-19 1.78797e-19 -0.00295296)
(-1.09765e-19 -6.11025e-20 -0.00295273)
(9.64976e-20 6.76705e-20 -0.00295247)
(1.01381e-19 1.59552e-19 -0.00295221)
(4.57565e-20 2.19134e-19 -0.00295194)
(-5.82272e-20 1.64416e-19 -0.00295166)
(1.67792e-19 1.58228e-19 -0.00295138)
(1.60662e-19 6.0996e-20 -0.00295109)
(6.34977e-20 3.27507e-20 -0.0029508)
(7.662e-21 -1.96687e-20 -0.00295051)
(-3.445e-20 1.26227e-19 -0.00295023)
(-4.89973e-19 1.24214e-19 -0.0029512)
(-2.29509e-19 4.79244e-20 -0.00295148)
(-1.2669e-19 3.38168e-20 -0.00295175)
(-5.15169e-19 8.65213e-20 -0.00295201)
(-5.62582e-19 8.50895e-20 -0.00295226)
(-2.67778e-19 7.83632e-20 -0.0029525)
(-4.66468e-19 2.60405e-19 -0.00295273)
(-3.88852e-19 2.05244e-19 -0.00295294)
(-4.37252e-19 1.57812e-19 -0.00295314)
(-4.29591e-19 3.58476e-19 -0.00295333)
(-3.15597e-19 4.2234e-19 -0.0029535)
(-3.49096e-19 1.15256e-19 -0.00295366)
(-2.51133e-19 1.55358e-19 -0.00295379)
(-2.09849e-19 2.97414e-19 -0.00295391)
(-3.20113e-19 9.90324e-21 -0.00295401)
(-3.12759e-19 1.64152e-19 -0.00295409)
(-2.06677e-19 1.91782e-19 -0.00295415)
(-3.40553e-19 3.12935e-19 -0.0029542)
(-2.96866e-19 3.15051e-19 -0.00295423)
(-2.56101e-19 1.58222e-19 -0.00295424)
(-3.93091e-19 1.4317e-19 -0.00295423)
(-3.95648e-19 2.26625e-19 -0.0029542)
(-3.17392e-19 3.92131e-19 -0.00295416)
(-1.09985e-19 2.9646e-19 -0.0029541)
(-2.70147e-19 4.03878e-19 -0.00295402)
(-1.83111e-19 5.99418e-19 -0.00295392)
(-1.87525e-19 2.6835e-19 -0.00295381)
(-1.95769e-19 3.66682e-19 -0.00295369)
(-4.46264e-21 4.37582e-19 -0.00295354)
(4.36792e-21 2.25624e-19 -0.00295338)
(-6.84213e-20 1.74994e-19 -0.00295321)
(-4.92817e-20 1.87105e-19 -0.00295302)
(3.43106e-20 2.22601e-19 -0.00295282)
(3.50639e-20 9.08359e-20 -0.0029526)
(1.98787e-19 1.24266e-19 -0.00295237)
(-1.04914e-19 -2.96732e-20 -0.00295212)
(9.70089e-20 2.41584e-20 -0.00295187)
(5.99811e-20 6.80307e-20 -0.00295161)
(1.72719e-20 1.84443e-19 -0.00295133)
(-6.78552e-20 1.52931e-19 -0.00295105)
(1.96741e-19 1.97692e-19 -0.00295076)
(1.28173e-19 3.42906e-20 -0.00295047)
(7.51975e-20 5.89148e-20 -0.00295017)
(7.13925e-20 5.83487e-20 -0.00294989)
(1.44125e-20 1.86136e-19 -0.00294961)
(-4.76785e-19 1.19028e-19 -0.00295059)
(-2.7314e-19 1.04179e-19 -0.00295087)
(-1.28602e-19 7.122e-20 -0.00295115)
(-4.94427e-19 7.98986e-20 -0.00295141)
(-5.64349e-19 7.01795e-20 -0.00295166)
(-2.59415e-19 1.03046e-19 -0.00295191)
(-4.80019e-19 3.17101e-19 -0.00295214)
(-3.97631e-19 1.76399e-19 -0.00295235)
(-4.25236e-19 1.35759e-19 -0.00295255)
(-4.07153e-19 3.26198e-19 -0.00295274)
(-3.27446e-19 4.15838e-19 -0.00295291)
(-3.70814e-19 1.50615e-19 -0.00295307)
(-2.48614e-19 2.11628e-19 -0.00295321)
(-2.39219e-19 4.0925e-19 -0.00295332)
(-3.47998e-19 8.82692e-20 -0.00295342)
(-3.09431e-19 2.11389e-19 -0.0029535)
(-1.97424e-19 1.83975e-19 -0.00295357)
(-3.27558e-19 2.13704e-19 -0.00295362)
(-3.04133e-19 3.01551e-19 -0.00295364)
(-2.68178e-19 1.15229e-19 -0.00295366)
(-3.95789e-19 1.36702e-19 -0.00295365)
(-3.85887e-19 2.64464e-19 -0.00295362)
(-3.24662e-19 3.64128e-19 -0.00295358)
(-1.19299e-19 2.26451e-19 -0.00295351)
(-2.53783e-19 3.96337e-19 -0.00295344)
(-2.02917e-19 5.61749e-19 -0.00295334)
(-2.13752e-19 2.20502e-19 -0.00295323)
(-1.74729e-19 4.11056e-19 -0.0029531)
(-2.16991e-20 3.8293e-19 -0.00295296)
(-6.04396e-21 2.37329e-19 -0.00295279)
(-6.2559e-20 2.08253e-19 -0.00295262)
(-4.99003e-20 1.65294e-19 -0.00295243)
(4.05996e-20 2.46422e-19 -0.00295222)
(3.43556e-20 9.21677e-20 -0.002952)
(1.6661e-19 5.24163e-20 -0.00295176)
(-7.7902e-20 3.14754e-20 -0.00295152)
(1.13885e-19 3.52859e-20 -0.00295126)
(4.44799e-20 2.6173e-20 -0.00295099)
(1.43124e-20 1.78275e-19 -0.00295072)
(-5.47176e-20 1.61431e-19 -0.00295043)
(2.12929e-19 2.17031e-19 -0.00295014)
(9.74057e-20 1.37836e-20 -0.00294985)
(1.06656e-19 1.00753e-19 -0.00294955)
(1.05748e-19 1.04698e-19 -0.00294926)
(-1.52997e-20 1.68283e-19 -0.00294899)
(-4.31728e-19 7.25293e-20 -0.00294997)
(-2.65759e-19 8.34372e-20 -0.00295026)
(-1.19246e-19 8.71519e-20 -0.00295054)
(-4.46814e-19 1.80735e-20 -0.0029508)
(-5.62957e-19 5.85385e-20 -0.00295106)
(-2.44983e-19 1.15356e-19 -0.0029513)
(-4.61907e-19 2.87558e-19 -0.00295154)
(-4.15441e-19 1.70804e-19 -0.00295175)
(-4.19166e-19 1.19101e-19 -0.00295196)
(-3.74196e-19 2.68498e-19 -0.00295215)
(-3.35063e-19 4.13888e-19 -0.00295232)
(-3.9953e-19 1.98191e-19 -0.00295248)
(-2.28089e-19 1.94106e-19 -0.00295262)
(-2.37431e-19 4.02406e-19 -0.00295274)
(-3.68617e-19 1.55725e-19 -0.00295284)
(-3.14367e-19 2.56173e-19 -0.00295292)
(-1.966e-19 1.48851e-19 -0.00295298)
(-3.18791e-19 1.72993e-19 -0.00295303)
(-3.1091e-19 2.47036e-19 -0.00295306)
(-2.78906e-19 3.00464e-20 -0.00295307)
(-3.89682e-19 1.08417e-19 -0.00295306)
(-3.7899e-19 3.26745e-19 -0.00295304)
(-3.37516e-19 3.62334e-19 -0.00295299)
(-1.16247e-19 2.32883e-19 -0.00295293)
(-2.42199e-19 3.71434e-19 -0.00295285)
(-2.33879e-19 4.71998e-19 -0.00295275)
(-2.23946e-19 2.02764e-19 -0.00295264)
(-1.52325e-19 4.51149e-19 -0.00295251)
(-4.15101e-20 3.34771e-19 -0.00295236)
(-6.23737e-21 2.58806e-19 -0.0029522)
(-4.45551e-20 2.81395e-19 -0.00295202)
(-3.70183e-20 1.94869e-19 -0.00295183)
(3.88079e-20 2.40206e-19 -0.00295162)
(4.13075e-20 1.22227e-19 -0.00295139)
(1.79323e-19 7.34842e-20 -0.00295116)
(-4.91668e-20 8.56358e-20 -0.00295091)
(1.56635e-19 9.95781e-20 -0.00295065)
(6.50927e-20 4.98729e-20 -0.00295038)
(2.57938e-20 1.95912e-19 -0.0029501)
(-1.45215e-20 2.17557e-19 -0.00294981)
(2.15285e-19 2.24988e-19 -0.00294952)
(6.61231e-20 -1.77123e-20 -0.00294922)
(1.18087e-19 1.09571e-19 -0.00294892)
(9.05353e-20 1.0561e-19 -0.00294862)
(-9.46595e-20 9.28041e-20 -0.00294835)
(-3.97485e-19 4.08388e-20 -0.00294934)
(-2.67824e-19 8.66785e-20 -0.00294963)
(-1.12704e-19 9.80744e-20 -0.00294992)
(-3.86664e-19 -6.65769e-20 -0.00295019)
(-5.58046e-19 5.19635e-20 -0.00295045)
(-2.17733e-19 9.2509e-20 -0.00295069)
(-4.19369e-19 2.08015e-19 -0.00295093)
(-4.58359e-19 2.34006e-19 -0.00295115)
(-4.33669e-19 1.48047e-19 -0.00295136)
(-3.49398e-19 2.37405e-19 -0.00295155)
(-3.16141e-19 3.51093e-19 -0.00295172)
(-4.23011e-19 2.25946e-19 -0.00295188)
(-2.31971e-19 2.49146e-19 -0.00295202)
(-2.18806e-19 3.31792e-19 -0.00295214)
(-3.82577e-19 1.88375e-19 -0.00295224)
(-3.16755e-19 2.43003e-19 -0.00295233)
(-1.96906e-19 1.24846e-19 -0.00295239)
(-3.13633e-19 1.50944e-19 -0.00295244)
(-3.21973e-19 2.04592e-19 -0.00295247)
(-2.87894e-19 -8.0201e-21 -0.00295248)
(-3.74498e-19 8.00975e-20 -0.00295247)
(-3.67571e-19 3.3208e-19 -0.00295244)
(-3.47674e-19 4.016e-19 -0.0029524)
(-1.11801e-19 3.19286e-19 -0.00295234)
(-2.40738e-19 3.446e-19 -0.00295226)
(-2.57428e-19 4.11599e-19 -0.00295216)
(-2.21957e-19 2.08953e-19 -0.00295205)
(-1.38611e-19 4.78478e-19 -0.00295192)
(-5.15763e-20 3.20111e-19 -0.00295177)
(1.30892e-20 3.19637e-19 -0.0029516)
(-3.39207e-20 3.24892e-19 -0.00295142)
(-2.22034e-20 2.43874e-19 -0.00295122)
(1.65508e-20 1.90163e-19 -0.00295101)
(5.64871e-20 1.52143e-19 -0.00295079)
(1.95508e-19 9.85333e-20 -0.00295055)
(-5.02928e-20 7.54976e-20 -0.00295029)
(1.85804e-19 1.40649e-19 -0.00295003)
(5.84782e-20 3.77974e-20 -0.00294976)
(2.4939e-20 1.85111e-19 -0.00294947)
(1.90851e-20 2.58932e-19 -0.00294918)
(2.11729e-19 2.36381e-19 -0.00294888)
(4.00262e-20 -3.47123e-20 -0.00294858)
(1.20631e-19 1.07924e-19 -0.00294827)
(1.67606e-20 4.67867e-20 -0.00294798)
(-1.48031e-19 3.49829e-20 -0.0029477)
(-4.14698e-19 9.5997e-20 -0.0029487)
(-2.80771e-19 1.10062e-19 -0.002949)
(-1.24748e-19 1.27575e-19 -0.00294929)
(-3.49152e-19 -1.11341e-19 -0.00294956)
(-5.43396e-19 3.15652e-20 -0.00294983)
(-2.02824e-19 8.08803e-20 -0.00295008)
(-3.83547e-19 1.68285e-19 -0.00295031)
(-4.778e-19 2.71784e-19 -0.00295054)
(-4.6302e-19 1.91884e-19 -0.00295075)
(-3.48512e-19 2.42324e-19 -0.00295094)
(-2.94116e-19 2.74598e-19 -0.00295112)
(-4.09993e-19 1.65023e-19 -0.00295128)
(-2.39808e-19 3.03981e-19 -0.00295142)
(-2.08546e-19 2.742e-19 -0.00295154)
(-3.90518e-19 2.21521e-19 -0.00295164)
(-3.20202e-19 2.18374e-19 -0.00295173)
(-2.00404e-19 1.18834e-19 -0.00295179)
(-3.09078e-19 1.41077e-19 -0.00295184)
(-3.32828e-19 2.06389e-19 -0.00295187)
(-2.98347e-19 8.18931e-21 -0.00295188)
(-3.62159e-19 1.10553e-19 -0.00295187)
(-3.56877e-19 2.8903e-19 -0.00295185)
(-3.51444e-19 3.98344e-19 -0.0029518)
(-1.10567e-19 3.86508e-19 -0.00295174)
(-2.46155e-19 3.31235e-19 -0.00295166)
(-2.66844e-19 4.32416e-19 -0.00295156)
(-2.19488e-19 1.94178e-19 -0.00295145)
(-1.26195e-19 4.8556e-19 -0.00295131)
(-5.25325e-20 3.29384e-19 -0.00295116)
(7.38721e-21 2.96293e-19 -0.002951)
(-3.93322e-20 3.30627e-19 -0.00295081)
(-2.03025e-20 2.75504e-19 -0.00295061)
(-6.05852e-21 1.36076e-19 -0.0029504)
(4.84186e-20 1.2083e-19 -0.00295017)
(1.83423e-19 7.61257e-20 -0.00294993)
(-6.71828e-20 3.06205e-20 -0.00294967)
(1.89744e-19 1.31611e-19 -0.0029494)
(3.34276e-20 -3.60388e-21 -0.00294913)
(1.91948e-21 1.31189e-19 -0.00294884)
(-5.68066e-21 2.09705e-19 -0.00294854)
(1.88035e-19 2.21216e-19 -0.00294824)
(2.62556e-20 -4.25141e-20 -0.00294793)
(1.09495e-19 9.98427e-20 -0.00294762)
(-1.08453e-19 -6.7357e-20 -0.00294732)
(-1.43125e-19 2.83912e-20 -0.00294704)
(-4.49222e-19 1.80816e-19 -0.00294805)
(-2.86051e-19 1.12472e-19 -0.00294835)
(-1.38695e-19 1.5587e-19 -0.00294864)
(-3.27173e-19 -1.36479e-19 -0.00294893)
(-5.19599e-19 -3.28084e-21 -0.00294919)
(-1.94773e-19 9.34013e-20 -0.00294945)
(-3.80035e-19 1.98585e-19 -0.00294969)
(-4.7171e-19 2.41797e-19 -0.00294992)
(-4.74218e-19 1.98267e-19 -0.00295013)
(-3.62545e-19 2.81312e-19 -0.00295033)
(-2.99559e-19 2.64059e-19 -0.00295051)
(-3.92703e-19 9.49456e-20 -0.00295067)
(-2.4019e-19 3.51463e-19 -0.00295081)
(-1.97755e-19 2.34787e-19 -0.00295093)
(-3.88158e-19 1.78207e-19 -0.00295104)
(-3.2526e-19 1.8522e-19 -0.00295112)
(-2.04155e-19 1.42917e-19 -0.00295119)
(-3.04415e-19 1.44098e-19 -0.00295124)
(-3.41113e-19 1.81188e-19 -0.00295127)
(-3.0498e-19 4.58952e-20 -0.00295128)
(-3.52968e-19 1.61183e-19 -0.00295127)
(-3.50425e-19 2.68573e-19 -0.00295124)
(-3.48344e-19 4.4256e-19 -0.0029512)
(-1.19419e-19 3.57122e-19 -0.00295114)
(-2.52105e-19 2.9469e-19 -0.00295105)
(-2.73606e-19 4.78923e-19 -0.00295096)
(-2.19469e-19 1.92515e-19 -0.00295084)
(-1.15868e-19 4.84018e-19 -0.0029507)
(-6.16911e-20 3.36073e-19 -0.00295055)
(-1.37289e-20 2.19255e-19 -0.00295038)
(-4.35581e-20 3.07878e-19 -0.0029502)
(-2.55871e-20 2.87136e-19 -0.00295)
(-1.09738e-20 1.50725e-19 -0.00294978)
(2.44564e-20 4.83937e-20 -0.00294954)
(1.89243e-19 8.04919e-20 -0.0029493)
(-6.69815e-20 1.63136e-20 -0.00294904)
(1.88808e-19 1.15194e-19 -0.00294877)
(1.92119e-20 -1.58025e-20 -0.00294848)
(-2.98903e-20 7.08061e-20 -0.00294819)
(-6.1212e-20 1.05164e-19 -0.00294789)
(1.97261e-19 2.40483e-19 -0.00294758)
(2.21012e-20 -3.3772e-20 -0.00294727)
(7.21311e-20 7.62625e-20 -0.00294696)
(-2.09355e-19 -1.57485e-19 -0.00294666)
(-1.0009e-19 5.20966e-20 -0.00294637)
(-4.36674e-19 1.90625e-19 -0.00294738)
(-2.88597e-19 1.04646e-19 -0.00294769)
(-1.3419e-19 1.48408e-19 -0.00294799)
(-3.08271e-19 -1.62739e-19 -0.00294828)
(-5.05929e-19 -1.11024e-20 -0.00294855)
(-1.96881e-19 1.39061e-19 -0.00294881)
(-3.63051e-19 1.91189e-19 -0.00294905)
(-4.6724e-19 2.12661e-19 -0.00294928)
(-4.57243e-19 1.36836e-19 -0.0029495)
(-3.75487e-19 3.22366e-19 -0.0029497)
(-3.25854e-19 3.01825e-19 -0.00294988)
(-3.96448e-19 1.22295e-19 -0.00295004)
(-2.41348e-19 4.00795e-19 -0.00295019)
(-2.01172e-19 1.94856e-19 -0.00295031)
(-3.72487e-19 7.11333e-20 -0.00295042)
(-3.25102e-19 1.90093e-19 -0.00295051)
(-2.08098e-19 1.80641e-19 -0.00295057)
(-3.05697e-19 1.39665e-19 -0.00295062)
(-3.4773e-19 1.87563e-19 -0.00295065)
(-3.06621e-19 7.98625e-20 -0.00295067)
(-3.47273e-19 2.02596e-19 -0.00295066)
(-3.38979e-19 2.54191e-19 -0.00295063)
(-3.50633e-19 4.79818e-19 -0.00295059)
(-1.41551e-19 2.9313e-19 -0.00295052)
(-2.47236e-19 2.92918e-19 -0.00295044)
(-2.81347e-19 4.88511e-19 -0.00295034)
(-2.14066e-19 2.16624e-19 -0.00295022)
(-1.05161e-19 4.79867e-19 -0.00295008)
(-7.46567e-20 3.40967e-19 -0.00294993)
(-1.19623e-20 2.33014e-19 -0.00294976)
(-4.61936e-20 2.8819e-19 -0.00294957)
(-2.2327e-20 3.07593e-19 -0.00294937)
(-3.67092e-21 2.00856e-19 -0.00294914)
(3.01816e-20 5.27447e-20 -0.00294891)
(1.80283e-19 4.38507e-20 -0.00294866)
(-6.60007e-20 1.06545e-20 -0.00294839)
(1.81475e-19 8.57772e-20 -0.00294812)
(2.96924e-20 1.90642e-20 -0.00294783)
(-3.28235e-20 7.17831e-20 -0.00294753)
(-9.5477e-20 2.03288e-20 -0.00294722)
(2.24521e-19 2.72006e-19 -0.00294691)
(5.17298e-21 -3.49379e-20 -0.00294659)
(5.07905e-20 8.17871e-20 -0.00294628)
(-2.3085e-19 -1.59694e-19 -0.00294598)
(-5.05466e-20 8.33093e-20 -0.00294569)
(-4.31419e-19 2.13785e-19 -0.00294669)
(-2.9898e-19 1.10739e-19 -0.00294702)
(-1.30288e-19 1.39795e-19 -0.00294732)
(-2.94165e-19 -1.72803e-19 -0.00294761)
(-5.00678e-19 1.1947e-20 -0.00294789)
(-2.11289e-19 2.02006e-19 -0.00294815)
(-3.32173e-19 1.34811e-19 -0.0029484)
(-4.6675e-19 1.80642e-19 -0.00294864)
(-4.33864e-19 7.10172e-20 -0.00294886)
(-3.62623e-19 3.19116e-19 -0.00294906)
(-3.50077e-19 3.43689e-19 -0.00294924)
(-4.05838e-19 1.56258e-19 -0.00294941)
(-2.33079e-19 3.82346e-19 -0.00294956)
(-2.18134e-19 2.01645e-19 -0.00294968)
(-3.65155e-19 2.71328e-20 -0.00294979)
(-3.18453e-19 1.96768e-19 -0.00294988)
(-2.13268e-19 2.06864e-19 -0.00294995)
(-3.04844e-19 1.46805e-19 -0.00295)
(-3.53342e-19 2.10054e-19 -0.00295003)
(-3.08863e-19 1.1067e-19 -0.00295004)
(-3.43277e-19 2.71212e-19 -0.00295003)
(-3.33816e-19 2.10008e-19 -0.00295001)
(-3.6284e-19 4.04867e-19 -0.00294996)
(-1.54712e-19 2.69161e-19 -0.0029499)
(-2.41478e-19 2.80061e-19 -0.00294981)
(-3.00175e-19 4.45882e-19 -0.00294971)
(-2.03337e-19 2.71469e-19 -0.00294959)
(-9.62708e-20 4.83397e-19 -0.00294945)
(-8.33692e-20 3.49165e-19 -0.0029493)
(-1.1858e-20 2.38817e-19 -0.00294912)
(-3.86809e-20 2.98686e-19 -0.00294893)
(-1.07382e-20 3.40231e-19 -0.00294872)
(-5.80455e-21 2.26748e-19 -0.0029485)
(6.77063e-20 1.53639e-19 -0.00294826)
(1.64575e-19 6.38913e-22 -0.002948)
(-6.16746e-20 -8.85814e-22 -0.00294774)
(1.81631e-19 6.13634e-20 -0.00294745)
(3.7409e-20 4.11758e-20 -0.00294716)
(-2.54018e-20 1.03515e-19 -0.00294686)
(-9.56107e-20 -1.08988e-20 -0.00294655)
(2.35607e-19 2.76319e-19 -0.00294623)
(-1.81832e-20 -4.2897e-20 -0.00294591)
(6.95056e-20 1.32465e-19 -0.00294559)
(-2.09837e-19 -1.12552e-19 -0.00294529)
(-6.79934e-21 1.1656e-19 -0.002945)
(-2.71678e-19 -1.07749e-19 -0.00294565)
(-4.55085e-19 2.85376e-19 -0.002946)
(-3.14023e-19 1.15323e-19 -0.00294633)
(-1.44049e-19 1.59022e-19 -0.00294664)
(-2.86382e-19 -1.69709e-19 -0.00294694)
(-4.94894e-19 4.29017e-20 -0.00294722)
(-2.35326e-19 2.74592e-19 -0.00294749)
(-2.90477e-19 4.0481e-20 -0.00294774)
(-4.65512e-19 1.56616e-19 -0.00294798)
(-4.30018e-19 5.48426e-20 -0.0029482)
(-3.25578e-19 2.50502e-19 -0.00294841)
(-3.64876e-19 3.52806e-19 -0.00294859)
(-4.16198e-19 1.76402e-19 -0.00294876)
(-2.26244e-19 3.89501e-19 -0.00294891)
(-2.25825e-19 1.66574e-19 -0.00294904)
(-3.73933e-19 6.46296e-20 -0.00294915)
(-3.08836e-19 1.93599e-19 -0.00294924)
(-2.15831e-19 2.29803e-19 -0.00294931)
(-3.07426e-19 1.52915e-19 -0.00294936)
(-3.56078e-19 2.00032e-19 -0.00294939)
(-3.04824e-19 1.48649e-19 -0.00294941)
(-3.46283e-19 3.08285e-19 -0.0029494)
(-3.38735e-19 2.00804e-19 -0.00294937)
(-3.72631e-19 3.1592e-19 -0.00294932)
(-1.63823e-19 2.64003e-19 -0.00294926)
(-2.44805e-19 2.35042e-19 -0.00294917)
(-3.11764e-19 3.85963e-19 -0.00294907)
(-1.88999e-19 3.05982e-19 -0.00294895)
(-9.88314e-20 4.4569e-19 -0.00294881)
(-8.98185e-20 3.88051e-19 -0.00294865)
(-1.5371e-20 2.32971e-19 -0.00294847)
(-2.44527e-20 3.18548e-19 -0.00294828)
(-1.43348e-20 3.34808e-19 -0.00294807)
(-5.51649e-21 2.358e-19 -0.00294784)
(1.08629e-19 2.64459e-19 -0.0029476)
(1.51024e-19 -1.74414e-20 -0.00294734)
(-5.19312e-20 9.83486e-23 -0.00294706)
(1.93332e-19 5.93018e-20 -0.00294678)
(1.00834e-20 8.84032e-22 -0.00294648)
(-3.21718e-20 1.10553e-19 -0.00294618)
(-9.81254e-20 -4.6031e-20 -0.00294586)
(2.45617e-19 2.79878e-19 -0.00294554)
(-3.21378e-20 -4.71456e-20 -0.00294522)
(1.20462e-19 2.19676e-19 -0.0029449)
(-1.84865e-19 -5.73954e-20 -0.0029446)
(2.47736e-20 1.46005e-19 -0.00294431)
(-2.97632e-19 -5.43922e-20 -0.00294495)
(-4.38794e-19 2.92326e-19 -0.0029453)
(-3.34393e-19 1.25168e-19 -0.00294564)
(-1.50632e-19 1.66928e-19 -0.00294595)
(-2.72312e-19 -1.76605e-19 -0.00294625)
(-4.75767e-19 6.10738e-20 -0.00294654)
(-2.64486e-19 3.36611e-19 -0.00294681)
(-2.72019e-19 -1.68215e-20 -0.00294707)
(-4.54888e-19 1.23613e-19 -0.00294731)
(-4.33889e-19 4.71837e-20 -0.00294753)
(-2.9792e-19 2.14917e-19 -0.00294774)
(-3.62789e-19 3.38119e-19 -0.00294793)
(-4.26547e-19 2.08655e-19 -0.0029481)
(-2.31445e-19 4.07614e-19 -0.00294825)
(-2.24855e-19 9.79865e-20 -0.00294839)
(-3.78805e-19 1.13884e-19 -0.0029485)
(-2.95543e-19 1.406e-19 -0.00294859)
(-2.18926e-19 2.42086e-19 -0.00294866)
(-3.06422e-19 1.01492e-19 -0.00294871)
(-3.5683e-19 2.08172e-19 -0.00294874)
(-3.00999e-19 1.71611e-19 -0.00294876)
(-3.49089e-19 3.09289e-19 -0.00294875)
(-3.45993e-19 2.02048e-19 -0.00294872)
(-3.79767e-19 3.0606e-19 -0.00294867)
(-1.69246e-19 2.70749e-19 -0.00294861)
(-2.44085e-19 2.31645e-19 -0.00294852)
(-3.11201e-19 4.04763e-19 -0.00294842)
(-1.88568e-19 2.8836e-19 -0.00294829)
(-1.04082e-19 3.85591e-19 -0.00294815)
(-9.85469e-20 3.91511e-19 -0.00294799)
(-2.89747e-21 2.88838e-19 -0.00294781)
(-2.00566e-20 3.16286e-19 -0.00294761)
(-1.30381e-20 3.40619e-19 -0.0029474)
(-6.01816e-22 2.40687e-19 -0.00294717)
(1.11769e-19 2.96413e-19 -0.00294692)
(1.26426e-19 -5.19209e-20 -0.00294666)
(-1.78255e-20 3.6504e-20 -0.00294638)
(2.18173e-19 9.23436e-20 -0.0029461)
(-3.16188e-20 -6.0612e-20 -0.0029458)
(-3.39646e-20 1.25496e-19 -0.00294549)
(-9.638e-20 -7.8428e-20 -0.00294517)
(2.60506e-19 2.84434e-19 -0.00294485)
(-6.8567e-20 -8.84535e-20 -0.00294453)
(1.32793e-19 2.52561e-19 -0.00294421)
(-1.84292e-19 -2.34096e-20 -0.00294391)
(3.40309e-20 1.59265e-19 -0.00294363)
(-3.39015e-19 1.51317e-20 -0.00294426)
(-4.06307e-19 2.72572e-19 -0.00294461)
(-3.69303e-19 1.62384e-19 -0.00294495)
(-1.47999e-19 1.52666e-19 -0.00294526)
(-2.60689e-19 -1.78239e-19 -0.00294557)
(-4.41325e-19 5.80777e-20 -0.00294585)
(-2.62371e-19 3.35644e-19 -0.00294613)
(-2.94727e-19 9.15647e-21 -0.00294638)
(-4.36904e-19 7.11158e-20 -0.00294663)
(-4.48471e-19 7.86243e-20 -0.00294685)
(-2.94131e-19 2.48991e-19 -0.00294707)
(-3.68763e-19 3.4349e-19 -0.00294726)
(-4.28682e-19 2.10708e-19 -0.00294743)
(-2.34627e-19 4.11011e-19 -0.00294758)
(-2.30409e-19 6.58625e-20 -0.00294772)
(-3.79179e-19 1.09063e-19 -0.00294783)
(-2.81541e-19 7.75111e-20 -0.00294792)
(-2.21828e-19 2.6318e-19 -0.002948)
(-3.04437e-19 3.14005e-20 -0.00294805)
(-3.51635e-19 2.25512e-19 -0.00294808)
(-2.96866e-19 1.85291e-19 -0.00294809)
(-3.56377e-19 2.74363e-19 -0.00294809)
(-3.52995e-19 1.74967e-19 -0.00294806)
(-3.81493e-19 3.1742e-19 -0.00294801)
(-1.78022e-19 2.67299e-19 -0.00294794)
(-2.37365e-19 2.52702e-19 -0.00294786)
(-3.06434e-19 4.54877e-19 -0.00294775)
(-1.94652e-19 2.58762e-19 -0.00294763)
(-1.00554e-19 3.62955e-19 -0.00294748)
(-1.11445e-19 3.60461e-19 -0.00294732)
(1.41128e-20 3.57215e-19 -0.00294714)
(-2.2154e-20 3.01734e-19 -0.00294694)
(1.28197e-21 3.80472e-19 -0.00294672)
(1.18141e-20 2.71517e-19 -0.00294649)
(8.88642e-20 2.73429e-19 -0.00294624)
(1.26622e-19 -4.66735e-20 -0.00294597)
(4.37031e-20 1.15357e-19 -0.0029457)
(2.2029e-19 9.91269e-20 -0.00294541)
(-5.97433e-20 -9.38852e-20 -0.00294511)
(-4.83555e-20 1.12553e-19 -0.0029448)
(-7.23288e-20 -7.53227e-20 -0.00294448)
(2.23287e-19 2.24012e-19 -0.00294416)
(-1.36046e-19 -1.68295e-19 -0.00294385)
(1.15877e-19 2.42469e-19 -0.00294354)
(-2.11242e-19 -2.56779e-20 -0.00294324)
(4.77838e-20 1.78837e-19 -0.00294297)
(-7.28086e-19 1.57239e-19 -0.00294325)
(-3.90292e-19 8.88664e-20 -0.00294358)
(-3.93496e-19 2.7996e-19 -0.00294393)
(-3.88804e-19 1.73067e-19 -0.00294426)
(-1.60618e-19 1.62161e-19 -0.00294458)
(-2.52849e-19 -1.71711e-19 -0.00294488)
(-4.24524e-19 8.48696e-20 -0.00294517)
(-2.22209e-19 2.62163e-19 -0.00294544)
(-3.14065e-19 2.34383e-20 -0.0029457)
(-4.18301e-19 1.5575e-20 -0.00294594)
(-4.59081e-19 1.15827e-19 -0.00294617)
(-2.95417e-19 2.94765e-19 -0.00294638)
(-3.76446e-19 3.48611e-19 -0.00294658)
(-4.29372e-19 2.04966e-19 -0.00294675)
(-2.40286e-19 4.1691e-19 -0.0029469)
(-2.42907e-19 5.57653e-20 -0.00294704)
(-3.78275e-19 9.89739e-20 -0.00294715)
(-2.70192e-19 6.39284e-20 -0.00294725)
(-2.26944e-19 2.81523e-19 -0.00294732)
(-3.0836e-19 3.02812e-20 -0.00294737)
(-3.42919e-19 2.48258e-19 -0.00294741)
(-2.9778e-19 1.74496e-19 -0.00294742)
(-3.657e-19 2.0943e-19 -0.00294741)
(-3.56594e-19 1.41716e-19 -0.00294738)
(-3.84729e-19 3.22666e-19 -0.00294734)
(-1.85345e-19 2.53484e-19 -0.00294727)
(-2.31259e-19 2.48252e-19 -0.00294718)
(-3.16953e-19 4.42734e-19 -0.00294707)
(-1.94855e-19 2.73738e-19 -0.00294695)
(-9.76429e-20 3.37977e-19 -0.0029468)
(-1.09387e-19 3.70219e-19 -0.00294664)
(1.85936e-20 3.80963e-19 -0.00294646)
(-3.03219e-20 2.69868e-19 -0.00294626)
(2.04244e-20 4.18744e-19 -0.00294604)
(2.63159e-20 3.20282e-19 -0.0029458)
(8.12067e-20 2.90215e-19 -0.00294555)
(1.39805e-19 -3.48498e-20 -0.00294529)
(8.7529e-20 1.64331e-19 -0.00294501)
(1.96398e-19 7.13565e-20 -0.00294472)
(-7.03904e-20 -9.41476e-20 -0.00294443)
(-6.78617e-20 8.92499e-20 -0.00294412)
(-5.68178e-20 -7.79457e-20 -0.00294381)
(1.62664e-19 1.40317e-19 -0.00294349)
(-1.92385e-19 -2.45162e-19 -0.00294318)
(9.8205e-20 2.25606e-19 -0.00294288)
(-2.52804e-19 -4.77115e-20 -0.00294259)
(1.03488e-19 2.44405e-19 -0.00294233)
(-7.07285e-19 1.26324e-19 -0.0029426)
(-4.26368e-19 1.40277e-19 -0.00294293)
(-3.94433e-19 2.98562e-19 -0.00294327)
(-3.8909e-19 1.55291e-19 -0.0029436)
(-1.84472e-19 1.95051e-19 -0.00294391)
(-2.26437e-19 -1.98309e-19 -0.00294421)
(-4.3902e-19 1.60685e-19 -0.00294449)
(-1.82508e-19 1.8431e-19 -0.00294476)
(-3.2211e-19 1.942e-20 -0.00294502)
(-4.11539e-19 -6.96639e-21 -0.00294526)
(-4.56705e-19 1.29308e-19 -0.00294549)
(-2.951e-19 3.28646e-19 -0.0029457)
(-3.72425e-19 2.98886e-19 -0.00294589)
(-4.26709e-19 1.90656e-19 -0.00294607)
(-2.39981e-19 4.05593e-19 -0.00294622)
(-2.48556e-19 8.63918e-21 -0.00294636)
(-3.81598e-19 1.05935e-19 -0.00294647)
(-2.60376e-19 5.86222e-20 -0.00294657)
(-2.24847e-19 2.62646e-19 -0.00294664)
(-3.15115e-19 7.14123e-20 -0.0029467)
(-3.37642e-19 2.58117e-19 -0.00294673)
(-3.01884e-19 1.29828e-19 -0.00294674)
(-3.76435e-19 1.74928e-19 -0.00294673)
(-3.57079e-19 8.31183e-20 -0.00294671)
(-3.82653e-19 3.55759e-19 -0.00294666)
(-1.96597e-19 2.45035e-19 -0.00294659)
(-2.34699e-19 1.98725e-19 -0.0029465)
(-3.29416e-19 3.7876e-19 -0.0029464)
(-1.80335e-19 3.50189e-19 -0.00294627)
(-9.48232e-20 3.13415e-19 -0.00294612)
(-1.00636e-19 4.05353e-19 -0.00294596)
(7.85602e-21 3.72719e-19 -0.00294578)
(-3.99087e-20 2.26571e-19 -0.00294557)
(3.56327e-20 4.3297e-19 -0.00294536)
(2.84187e-20 3.31556e-19 -0.00294512)
(7.76974e-20 3.2347e-19 -0.00294488)
(1.45577e-19 -3.47111e-20 -0.00294461)
(8.92804e-20 1.29779e-19 -0.00294434)
(1.85947e-19 6.72239e-20 -0.00294405)
(-7.40855e-20 -8.45952e-20 -0.00294376)
(-6.97497e-20 9.69056e-20 -0.00294346)
(-5.18266e-20 -9.02755e-20 -0.00294315)
(1.44328e-19 1.21487e-19 -0.00294284)
(-1.72135e-19 -2.21889e-19 -0.00294254)
(9.25651e-20 2.23378e-19 -0.00294225)
(-2.955e-19 -8.4486e-20 -0.00294197)
(1.65327e-19 3.20685e-19 -0.00294172)
(-3.17812e-19 -3.21746e-19 -0.0029417)
(-6.30026e-19 2.52678e-20 -0.00294198)
(-4.25614e-19 1.51645e-19 -0.00294231)
(-3.90759e-19 3.06615e-19 -0.00294264)
(-3.85191e-19 1.30976e-19 -0.00294296)
(-2.13e-19 2.34867e-19 -0.00294326)
(-1.99035e-19 -2.2054e-19 -0.00294356)
(-4.56504e-19 2.42019e-19 -0.00294384)
(-1.67312e-19 1.51209e-19 -0.0029441)