/*--------------------------------*- C++ -*----------------------------------*\
  =========                 |
  \\      /  F ield         | OpenFOAM: The Open Source CFD Toolbox
   \\    /   O peration     | Website:  https://openfoam.org
    \\  /    A nd           | Version:  7
     \\/     M anipulation  |
\*---------------------------------------------------------------------------*/
FoamFile
{
    version     2.0;
    format      ascii;
    class       volScalarField;
    location    "52000";
    object      nu;
}
// * * * * * * * * * * * * * * * * * * * * * * * * * * * * * * * * * * * * * //

dimensions      [0 2 -1 0 0 0 0];

internalField   nonuniform List<scalar> 
4814
(
2.3245e-06
2.32855e-06
2.33225e-06
2.33558e-06
2.21872e-06
2.22536e-06
2.23171e-06
2.23797e-06
2.24414e-06
2.25018e-06
2.2561e-06
2.26185e-06
2.26742e-06
2.2728e-06
2.27795e-06
2.28287e-06
2.28752e-06
2.2919e-06
2.29599e-06
2.29976e-06
2.3032e-06
2.3063e-06
2.30904e-06
2.31142e-06
2.31341e-06
2.31502e-06
2.31623e-06
2.31704e-06
2.31744e-06
2.31744e-06
2.31704e-06
2.31623e-06
2.31501e-06
2.31341e-06
2.31141e-06
2.30904e-06
2.3063e-06
2.3032e-06
2.19683e-06
2.20306e-06
2.209e-06
2.21487e-06
2.22064e-06
2.22629e-06
2.23182e-06
2.23719e-06
2.2424e-06
2.24742e-06
2.25223e-06
2.25681e-06
2.26116e-06
2.26524e-06
2.26904e-06
2.27256e-06
2.27576e-06
2.27865e-06
2.2812e-06
2.28341e-06
2.28526e-06
2.28676e-06
2.28789e-06
2.28864e-06
2.28902e-06
2.28902e-06
2.28864e-06
2.28789e-06
2.28676e-06
2.28526e-06
2.28341e-06
2.2812e-06
2.27864e-06
2.27576e-06
2.27255e-06
2.26904e-06
2.26524e-06
2.26116e-06
2.25682e-06
2.25223e-06
2.24742e-06
2.17599e-06
2.18184e-06
2.18741e-06
2.19291e-06
2.19831e-06
2.2036e-06
2.20877e-06
2.2138e-06
2.21867e-06
2.22336e-06
2.22785e-06
2.23213e-06
2.23618e-06
2.23999e-06
2.24354e-06
2.24682e-06
2.24981e-06
2.2525e-06
2.25487e-06
2.25693e-06
2.25866e-06
2.26005e-06
2.2611e-06
2.2618e-06
2.26216e-06
2.26216e-06
2.2618e-06
2.2611e-06
2.26005e-06
2.25866e-06
2.25693e-06
2.25487e-06
2.25249e-06
2.2498e-06
2.24681e-06
2.24354e-06
2.23999e-06
2.23618e-06
2.23213e-06
2.22785e-06
2.22336e-06
2.21868e-06
2.21381e-06
2.20879e-06
2.15614e-06
2.16163e-06
2.16685e-06
2.17201e-06
2.17707e-06
2.18203e-06
2.18687e-06
2.19158e-06
2.19613e-06
2.20051e-06
2.20471e-06
2.20872e-06
2.2125e-06
2.21606e-06
2.21937e-06
2.22243e-06
2.22522e-06
2.22773e-06
2.22995e-06
2.23186e-06
2.23348e-06
2.23477e-06
2.23575e-06
2.23641e-06
2.23674e-06
2.23674e-06
2.23641e-06
2.23575e-06
2.23477e-06
2.23347e-06
2.23186e-06
2.22994e-06
2.22772e-06
2.22522e-06
2.22243e-06
2.21937e-06
2.21606e-06
2.2125e-06
2.20872e-06
2.20472e-06
2.20052e-06
2.19614e-06
2.19159e-06
2.18689e-06
2.1372e-06
2.14236e-06
2.14726e-06
2.1521e-06
2.15685e-06
2.1615e-06
2.16603e-06
2.17044e-06
2.1747e-06
2.1788e-06
2.18273e-06
2.18647e-06
2.19001e-06
2.19334e-06
2.19643e-06
2.19929e-06
2.20189e-06
2.20424e-06
2.20631e-06
2.2081e-06
2.2096e-06
2.21082e-06
2.21173e-06
2.21234e-06
2.21264e-06
2.21264e-06
2.21234e-06
2.21173e-06
2.21081e-06
2.2096e-06
2.2081e-06
2.20631e-06
2.20423e-06
2.20189e-06
2.19929e-06
2.19643e-06
2.19334e-06
2.19002e-06
2.18648e-06
2.18274e-06
2.17881e-06
2.17471e-06
2.17045e-06
2.16605e-06
2.11911e-06
2.12396e-06
2.12857e-06
2.13311e-06
2.13757e-06
2.14193e-06
2.14618e-06
2.15031e-06
2.1543e-06
2.15814e-06
2.16182e-06
2.16532e-06
2.16863e-06
2.17174e-06
2.17464e-06
2.17731e-06
2.17974e-06
2.18193e-06
2.18387e-06
2.18554e-06
2.18694e-06
2.18808e-06
2.18893e-06
2.1895e-06
2.18978e-06
2.18978e-06
2.1895e-06
2.18893e-06
2.18807e-06
2.18694e-06
2.18554e-06
2.18386e-06
2.18193e-06
2.17974e-06
2.17731e-06
2.17464e-06
2.17174e-06
2.16864e-06
2.16533e-06
2.16183e-06
2.15815e-06
2.15431e-06
2.15032e-06
2.14619e-06
2.10183e-06
2.10639e-06
2.11072e-06
2.11498e-06
2.11917e-06
2.12326e-06
2.12725e-06
2.13112e-06
2.13486e-06
2.13846e-06
2.14191e-06
2.14519e-06
2.14829e-06
2.1512e-06
2.1539e-06
2.1564e-06
2.15868e-06
2.16072e-06
2.16253e-06
2.1641e-06
2.16541e-06
2.16647e-06
2.16726e-06
2.1678e-06
2.16806e-06
2.16806e-06
2.1678e-06
2.16726e-06
2.16647e-06
2.16541e-06
2.1641e-06
2.16253e-06
2.16072e-06
2.15868e-06
2.1564e-06
2.1539e-06
2.1512e-06
2.14829e-06
2.14519e-06
2.14191e-06
2.13847e-06
2.13487e-06
2.13113e-06
2.12726e-06
2.12327e-06
2.08529e-06
2.08958e-06
2.09366e-06
2.09766e-06
2.10159e-06
2.10543e-06
2.10917e-06
2.11281e-06
2.11632e-06
2.11969e-06
2.12292e-06
2.12599e-06
2.1289e-06
2.13162e-06
2.13416e-06
2.13649e-06
2.13862e-06
2.14054e-06
2.14223e-06
2.14369e-06
2.14492e-06
2.14591e-06
2.14665e-06
2.14715e-06
2.1474e-06
2.1474e-06
2.14715e-06
2.14665e-06
2.14591e-06
2.14492e-06
2.14369e-06
2.14223e-06
2.14054e-06
2.13862e-06
2.13649e-06
2.13415e-06
2.13162e-06
2.1289e-06
2.12599e-06
2.12292e-06
2.1197e-06
2.11632e-06
2.11282e-06
2.10919e-06
2.10544e-06
2.06946e-06
2.0735e-06
2.07733e-06
2.08109e-06
2.08478e-06
2.08839e-06
2.09191e-06
2.09531e-06
2.09861e-06
2.10177e-06
2.1048e-06
2.10768e-06
2.1104e-06
2.11295e-06
2.11533e-06
2.11752e-06
2.11951e-06
2.1213e-06
2.12289e-06
2.12425e-06
2.1254e-06
2.12633e-06
2.12702e-06
2.12749e-06
2.12772e-06
2.12772e-06
2.12749e-06
2.12702e-06
2.12633e-06
2.1254e-06
2.12425e-06
2.12288e-06
2.1213e-06
2.11951e-06
2.11751e-06
2.11533e-06
2.11295e-06
2.1104e-06
2.10768e-06
2.1048e-06
2.10178e-06
2.09861e-06
2.09532e-06
2.09192e-06
2.0884e-06
2.05429e-06
2.05809e-06
2.06169e-06
2.06523e-06
2.0687e-06
2.07209e-06
2.07539e-06
2.07859e-06
2.08168e-06
2.08465e-06
2.08749e-06
2.09019e-06
2.09274e-06
2.09513e-06
2.09736e-06
2.09941e-06
2.10127e-06
2.10295e-06
2.10444e-06
2.10572e-06
2.10679e-06
2.10766e-06
2.10831e-06
2.10875e-06
2.10896e-06
2.10896e-06
2.10875e-06
2.10831e-06
2.10766e-06
2.10679e-06
2.10572e-06
2.10443e-06
2.10295e-06
2.10127e-06
2.0994e-06
2.09736e-06
2.09513e-06
2.09274e-06
2.09019e-06
2.08749e-06
2.08465e-06
2.08169e-06
2.0786e-06
2.0754e-06
2.0721e-06
2.03974e-06
2.04332e-06
2.04671e-06
2.05004e-06
2.0533e-06
2.05648e-06
2.05958e-06
2.06258e-06
2.06548e-06
2.06827e-06
2.07094e-06
2.07347e-06
2.07586e-06
2.0781e-06
2.08019e-06
2.08211e-06
2.08386e-06
2.08543e-06
2.08682e-06
2.08802e-06
2.08903e-06
2.08984e-06
2.09045e-06
2.09086e-06
2.09106e-06
2.09106e-06
2.09086e-06
2.09045e-06
2.08984e-06
2.08903e-06
2.08802e-06
2.08682e-06
2.08543e-06
2.08386e-06
2.08211e-06
2.08019e-06
2.0781e-06
2.07586e-06
2.07347e-06
2.07094e-06
2.06828e-06
2.06549e-06
2.06259e-06
2.05959e-06
2.02578e-06
2.02915e-06
2.03233e-06
2.03546e-06
2.03853e-06
2.04152e-06
2.04443e-06
2.04725e-06
2.04998e-06
2.05259e-06
2.05509e-06
2.05747e-06
2.05971e-06
2.06181e-06
2.06377e-06
2.06557e-06
2.06721e-06
2.06868e-06
2.06999e-06
2.07111e-06
2.07205e-06
2.07281e-06
2.07338e-06
2.07377e-06
2.07396e-06
2.07396e-06
2.07377e-06
2.07338e-06
2.07281e-06
2.07205e-06
2.07111e-06
2.06998e-06
2.06868e-06
2.06721e-06
2.06557e-06
2.06377e-06
2.06181e-06
2.05971e-06
2.05747e-06
2.0551e-06
2.0526e-06
2.04999e-06
2.04726e-06
2.04444e-06
2.01236e-06
2.01554e-06
2.01854e-06
2.02148e-06
2.02436e-06
2.02717e-06
2.02991e-06
2.03256e-06
2.03512e-06
2.03757e-06
2.03992e-06
2.04215e-06
2.04425e-06
2.04622e-06
2.04806e-06
2.04975e-06
2.05128e-06
2.05266e-06
2.05388e-06
2.05494e-06
2.05582e-06
2.05653e-06
2.05707e-06
2.05743e-06
2.0576e-06
2.0576e-06
2.05742e-06
2.05707e-06
2.05653e-06
2.05582e-06
2.05494e-06
2.05388e-06
2.05266e-06
2.05128e-06
2.04974e-06
2.04806e-06
2.04622e-06
2.04425e-06
2.04215e-06
2.03992e-06
2.03758e-06
2.03512e-06
2.03257e-06
2.02992e-06
1.99947e-06
2.00246e-06
2.00528e-06
2.00805e-06
2.01076e-06
2.0134e-06
2.01597e-06
2.01846e-06
2.02086e-06
2.02317e-06
2.02537e-06
2.02746e-06
2.02944e-06
2.03129e-06
2.03301e-06
2.03459e-06
2.03603e-06
2.03732e-06
2.03847e-06
2.03945e-06
2.04028e-06
2.04095e-06
2.04145e-06
2.04179e-06
2.04195e-06
2.04195e-06
2.04179e-06
2.04145e-06
2.04095e-06
2.04028e-06
2.03945e-06
2.03847e-06
2.03732e-06
2.03603e-06
2.03459e-06
2.033e-06
2.03129e-06
2.02944e-06
2.02746e-06
2.02537e-06
2.02317e-06
2.02087e-06
2.01847e-06
2.01598e-06
1.98707e-06
1.98988e-06
1.99254e-06
1.99514e-06
1.99769e-06
2.00017e-06
2.00259e-06
2.00493e-06
2.00718e-06
2.00935e-06
2.01141e-06
2.01338e-06
2.01523e-06
2.01696e-06
2.01857e-06
2.02006e-06
2.02141e-06
2.02262e-06
2.02369e-06
2.02462e-06
2.0254e-06
2.02602e-06
2.02649e-06
2.0268e-06
2.02696e-06
2.02696e-06
2.0268e-06
2.02649e-06
2.02602e-06
2.0254e-06
2.02462e-06
2.02369e-06
2.02262e-06
2.02141e-06
2.02006e-06
2.01857e-06
2.01696e-06
2.01523e-06
2.01338e-06
2.01142e-06
2.00935e-06
2.00719e-06
2.00494e-06
2.0026e-06
1.97513e-06
1.97778e-06
1.98028e-06
1.98273e-06
1.98512e-06
1.98746e-06
1.98973e-06
1.99192e-06
1.99404e-06
1.99607e-06
1.99801e-06
1.99985e-06
2.00159e-06
2.00322e-06
2.00473e-06
2.00612e-06
2.00739e-06
2.00853e-06
2.00953e-06
2.0104e-06
2.01112e-06
2.01171e-06
2.01215e-06
2.01244e-06
2.01259e-06
2.01259e-06
2.01244e-06
2.01215e-06
2.01171e-06
2.01112e-06
2.0104e-06
2.00953e-06
2.00852e-06
2.00739e-06
2.00612e-06
2.00473e-06
2.00322e-06
2.00159e-06
1.99985e-06
1.99801e-06
1.99608e-06
1.99405e-06
1.99193e-06
1.98974e-06
1.96364e-06
1.96613e-06
1.96848e-06
1.97078e-06
1.97303e-06
1.97523e-06
1.97736e-06
1.97942e-06
1.98141e-06
1.98331e-06
1.98513e-06
1.98686e-06
1.98849e-06
1.99002e-06
1.99144e-06
1.99274e-06
1.99393e-06
1.99499e-06
1.99593e-06
1.99675e-06
1.99743e-06
1.99798e-06
1.99839e-06
1.99866e-06
1.9988e-06
1.9988e-06
1.99866e-06
1.99839e-06
1.99798e-06
1.99743e-06
1.99675e-06
1.99593e-06
1.99499e-06
1.99393e-06
1.99274e-06
1.99144e-06
1.99002e-06
1.98849e-06
1.98686e-06
1.98514e-06
1.98332e-06
1.98141e-06
1.97943e-06
1.97737e-06
1.95256e-06
1.95491e-06
1.95712e-06
1.95928e-06
1.96139e-06
1.96345e-06
1.96546e-06
1.96739e-06
1.96926e-06
1.97105e-06
1.97275e-06
1.97437e-06
1.9759e-06
1.97733e-06
1.97866e-06
1.97988e-06
1.981e-06
1.982e-06
1.98288e-06
1.98364e-06
1.98428e-06
1.98479e-06
1.98518e-06
1.98544e-06
1.98556e-06
1.98556e-06
1.98543e-06
1.98518e-06
1.98479e-06
1.98428e-06
1.98364e-06
1.98288e-06
1.98199e-06
1.981e-06
1.97988e-06
1.97866e-06
1.97733e-06
1.9759e-06
1.97438e-06
1.97276e-06
1.97105e-06
1.96926e-06
1.9674e-06
1.96547e-06
1.94188e-06
1.94409e-06
1.94616e-06
1.9482e-06
1.95018e-06
1.95212e-06
1.95399e-06
1.95581e-06
1.95756e-06
1.95924e-06
1.96084e-06
1.96236e-06
1.96379e-06
1.96513e-06
1.96638e-06
1.96752e-06
1.96857e-06
1.9695e-06
1.97033e-06
1.97104e-06
1.97164e-06
1.97212e-06
1.97248e-06
1.97272e-06
1.97285e-06
1.97284e-06
1.97272e-06
1.97248e-06
1.97212e-06
1.97164e-06
1.97104e-06
1.97033e-06
1.9695e-06
1.96857e-06
1.96752e-06
1.96638e-06
1.96513e-06
1.96379e-06
1.96236e-06
1.96084e-06
1.95924e-06
1.95757e-06
1.95582e-06
1.954e-06
1.93157e-06
1.93365e-06
1.9356e-06
1.93751e-06
1.93937e-06
1.94119e-06
1.94295e-06
1.94466e-06
1.9463e-06
1.94787e-06
1.94937e-06
1.95079e-06
1.95214e-06
1.95339e-06
1.95456e-06
1.95563e-06
1.95661e-06
1.95749e-06
1.95826e-06
1.95893e-06
1.95949e-06
1.95994e-06
1.96028e-06
1.9605e-06
1.96062e-06
1.96062e-06
1.9605e-06
1.96027e-06
1.95994e-06
1.95949e-06
1.95893e-06
1.95826e-06
1.95749e-06
1.95661e-06
1.95563e-06
1.95456e-06
1.95339e-06
1.95214e-06
1.9508e-06
1.94937e-06
1.94787e-06
1.9463e-06
1.94466e-06
1.94296e-06
1.92163e-06
1.92358e-06
1.92541e-06
1.9272e-06
1.92895e-06
1.93065e-06
1.93231e-06
1.9339e-06
1.93544e-06
1.93692e-06
1.93832e-06
1.93966e-06
1.94091e-06
1.94209e-06
1.94318e-06
1.94419e-06
1.9451e-06
1.94592e-06
1.94664e-06
1.94727e-06
1.94779e-06
1.94821e-06
1.94853e-06
1.94874e-06
1.94885e-06
1.94885e-06
1.94874e-06
1.94853e-06
1.94821e-06
1.94779e-06
1.94727e-06
1.94664e-06
1.94592e-06
1.9451e-06
1.94419e-06
1.94318e-06
1.94209e-06
1.94091e-06
1.93966e-06
1.93833e-06
1.93692e-06
1.93545e-06
1.93391e-06
1.93231e-06
1.93066e-06
1.91202e-06
1.91385e-06
1.91557e-06
1.91725e-06
1.91889e-06
1.92049e-06
1.92204e-06
1.92353e-06
1.92497e-06
1.92635e-06
1.92767e-06
1.92892e-06
1.9301e-06
1.9312e-06
1.93222e-06
1.93316e-06
1.93401e-06
1.93478e-06
1.93546e-06
1.93604e-06
1.93653e-06
1.93693e-06
1.93722e-06
1.93742e-06
1.93752e-06
1.93752e-06
1.93742e-06
1.93722e-06
1.93693e-06
1.93653e-06
1.93604e-06
1.93546e-06
1.93478e-06
1.93401e-06
1.93316e-06
1.93222e-06
1.9312e-06
1.9301e-06
1.92892e-06
1.92767e-06
1.92636e-06
1.92498e-06
1.92354e-06
1.92205e-06
1.9205e-06
1.90274e-06
1.90445e-06
1.90607e-06
1.90764e-06
1.90918e-06
1.91067e-06
1.91212e-06
1.91352e-06
1.91487e-06
1.91617e-06
1.9174e-06
1.91857e-06
1.91967e-06
1.9207e-06
1.92165e-06
1.92253e-06
1.92333e-06
1.92405e-06
1.92468e-06
1.92523e-06
1.92568e-06
1.92605e-06
1.92633e-06
1.92651e-06
1.92661e-06
1.92661e-06
1.92651e-06
1.92633e-06
1.92605e-06
1.92568e-06
1.92522e-06
1.92468e-06
1.92405e-06
1.92333e-06
1.92253e-06
1.92165e-06
1.9207e-06
1.91967e-06
1.91857e-06
1.9174e-06
1.91617e-06
1.91488e-06
1.91353e-06
1.91213e-06
1.91068e-06
1.89376e-06
1.89537e-06
1.89688e-06
1.89836e-06
1.89979e-06
1.90119e-06
1.90255e-06
1.90386e-06
1.90512e-06
1.90633e-06
1.90748e-06
1.90858e-06
1.9096e-06
1.91057e-06
1.91146e-06
1.91228e-06
1.91303e-06
1.9137e-06
1.91429e-06
1.9148e-06
1.91522e-06
1.91557e-06
1.91583e-06
1.916e-06
1.91609e-06
1.91609e-06
1.916e-06
1.91583e-06
1.91557e-06
1.91522e-06
1.9148e-06
1.91429e-06
1.9137e-06
1.91303e-06
1.91228e-06
1.91146e-06
1.91057e-06
1.90961e-06
1.90858e-06
1.90749e-06
1.90634e-06
1.90513e-06
1.90387e-06
1.90256e-06
1.90121e-06
1.88508e-06
1.88659e-06
1.888e-06
1.88938e-06
1.89073e-06
1.89203e-06
1.8933e-06
1.89453e-06
1.89571e-06
1.89684e-06
1.89791e-06
1.89893e-06
1.89989e-06
1.90079e-06
1.90162e-06
1.90239e-06
1.90309e-06
1.90371e-06
1.90426e-06
1.90474e-06
1.90514e-06
1.90546e-06
1.9057e-06
1.90586e-06
1.90594e-06
1.90594e-06
1.90586e-06
1.9057e-06
1.90546e-06
1.90514e-06
1.90474e-06
1.90426e-06
1.90371e-06
1.90309e-06
1.90239e-06
1.90162e-06
1.90079e-06
1.89989e-06
1.89893e-06
1.89791e-06
1.89684e-06
1.89571e-06
1.89454e-06
1.89331e-06
1.87668e-06
1.87809e-06
1.87941e-06
1.8807e-06
1.88196e-06
1.88318e-06
1.88436e-06
1.88551e-06
1.88661e-06
1.88766e-06
1.88866e-06
1.88961e-06
1.89051e-06
1.89135e-06
1.89213e-06
1.89284e-06
1.89349e-06
1.89407e-06
1.89459e-06
1.89503e-06
1.8954e-06
1.8957e-06
1.89592e-06
1.89607e-06
1.89615e-06
1.89615e-06
1.89607e-06
1.89592e-06
1.8957e-06
1.8954e-06
1.89503e-06
1.89458e-06
1.89407e-06
1.89349e-06
1.89284e-06
1.89212e-06
1.89135e-06
1.89051e-06
1.88962e-06
1.88867e-06
1.88766e-06
1.88661e-06
1.88551e-06
1.88437e-06
1.86854e-06
1.86986e-06
1.8711e-06
1.8723e-06
1.87347e-06
1.87461e-06
1.87572e-06
1.87678e-06
1.87781e-06
1.87879e-06
1.87972e-06
1.88061e-06
1.88145e-06
1.88223e-06
1.88295e-06
1.88361e-06
1.88422e-06
1.88476e-06
1.88524e-06
1.88565e-06
1.886e-06
1.88628e-06
1.88648e-06
1.88662e-06
1.88669e-06
1.88669e-06
1.88662e-06
1.88648e-06
1.88627e-06
1.886e-06
1.88565e-06
1.88524e-06
1.88476e-06
1.88422e-06
1.88361e-06
1.88295e-06
1.88223e-06
1.88145e-06
1.88061e-06
1.87973e-06
1.87879e-06
1.87781e-06
1.87679e-06
1.87573e-06
1.86067e-06
1.8619e-06
1.86305e-06
1.86417e-06
1.86526e-06
1.86632e-06
1.86735e-06
1.86834e-06
1.8693e-06
1.87021e-06
1.87108e-06
1.87191e-06
1.87268e-06
1.87341e-06
1.87408e-06
1.8747e-06
1.87526e-06
1.87576e-06
1.87621e-06
1.87659e-06
1.87691e-06
1.87717e-06
1.87737e-06
1.8775e-06
1.87756e-06
1.87756e-06
1.8775e-06
1.87737e-06
1.87717e-06
1.87691e-06
1.87659e-06
1.87621e-06
1.87576e-06
1.87526e-06
1.8747e-06
1.87408e-06
1.87341e-06
1.87268e-06
1.87191e-06
1.87108e-06
1.87022e-06
1.8693e-06
1.86835e-06
1.86736e-06
1.85303e-06
1.85418e-06
1.85525e-06
1.85629e-06
1.85731e-06
1.8583e-06
1.85925e-06
1.86018e-06
1.86106e-06
1.86191e-06
1.86272e-06
1.86348e-06
1.8642e-06
1.86488e-06
1.8655e-06
1.86608e-06
1.8666e-06
1.86707e-06
1.86748e-06
1.86784e-06
1.86813e-06
1.86837e-06
1.86855e-06
1.86867e-06
1.86873e-06
1.86873e-06
1.86867e-06
1.86855e-06
1.86837e-06
1.86813e-06
1.86783e-06
1.86748e-06
1.86707e-06
1.8666e-06
1.86608e-06
1.8655e-06
1.86488e-06
1.86421e-06
1.86349e-06
1.86272e-06
1.86192e-06
1.86107e-06
1.86018e-06
1.85926e-06
1.84563e-06
1.8467e-06
1.84769e-06
1.84866e-06
1.84961e-06
1.85052e-06
1.85141e-06
1.85227e-06
1.85309e-06
1.85388e-06
1.85463e-06
1.85533e-06
1.856e-06
1.85663e-06
1.85721e-06
1.85774e-06
1.85822e-06
1.85865e-06
1.85904e-06
1.85937e-06
1.85964e-06
1.85986e-06
1.86003e-06
1.86014e-06
1.8602e-06
1.8602e-06
1.86014e-06
1.86003e-06
1.85986e-06
1.85964e-06
1.85936e-06
1.85904e-06
1.85865e-06
1.85822e-06
1.85774e-06
1.85721e-06
1.85663e-06
1.856e-06
1.85534e-06
1.85463e-06
1.85388e-06
1.85309e-06
1.85227e-06
1.85142e-06
1.83846e-06
1.83945e-06
1.84037e-06
1.84127e-06
1.84214e-06
1.84299e-06
1.84381e-06
1.84461e-06
1.84537e-06
1.84609e-06
1.84679e-06
1.84744e-06
1.84806e-06
1.84864e-06
1.84917e-06
1.84967e-06
1.85011e-06
1.85051e-06
1.85087e-06
1.85117e-06
1.85143e-06
1.85163e-06
1.85179e-06
1.85189e-06
1.85194e-06
1.85194e-06
1.85189e-06
1.85178e-06
1.85163e-06
1.85142e-06
1.85117e-06
1.85086e-06
1.85051e-06
1.85011e-06
1.84966e-06
1.84917e-06
1.84864e-06
1.84806e-06
1.84745e-06
1.84679e-06
1.8461e-06
1.84537e-06
1.84461e-06
1.84382e-06
1.8315e-06
1.83241e-06
1.83327e-06
1.8341e-06
1.83491e-06
1.83569e-06
1.83645e-06
1.83718e-06
1.83788e-06
1.83855e-06
1.83919e-06
1.8398e-06
1.84037e-06
1.8409e-06
1.8414e-06
1.84185e-06
1.84226e-06
1.84263e-06
1.84296e-06
1.84324e-06
1.84347e-06
1.84366e-06
1.8438e-06
1.8439e-06
1.84395e-06
1.84395e-06
1.8439e-06
1.8438e-06
1.84366e-06
1.84347e-06
1.84324e-06
1.84296e-06
1.84263e-06
1.84226e-06
1.84185e-06
1.8414e-06
1.8409e-06
1.84037e-06
1.8398e-06
1.8392e-06
1.83856e-06
1.83789e-06
1.83719e-06
1.83646e-06
1.82474e-06
1.82559e-06
1.82638e-06
1.82714e-06
1.82789e-06
1.82861e-06
1.82931e-06
1.82998e-06
1.83063e-06
1.83125e-06
1.83184e-06
1.83239e-06
1.83292e-06
1.83341e-06
1.83386e-06
1.83428e-06
1.83466e-06
1.835e-06
1.8353e-06
1.83555e-06
1.83577e-06
1.83594e-06
1.83608e-06
1.83616e-06
1.83621e-06
1.83621e-06
1.83616e-06
1.83608e-06
1.83594e-06
1.83577e-06
1.83555e-06
1.8353e-06
1.835e-06
1.83466e-06
1.83428e-06
1.83386e-06
1.83341e-06
1.83292e-06
1.8324e-06
1.83184e-06
1.83125e-06
1.83063e-06
1.82999e-06
1.82932e-06
1.82862e-06
1.81819e-06
1.81896e-06
1.81969e-06
1.82039e-06
1.82108e-06
1.82174e-06
1.82238e-06
1.823e-06
1.82359e-06
1.82416e-06
1.8247e-06
1.82521e-06
1.82569e-06
1.82614e-06
1.82656e-06
1.82694e-06
1.82729e-06
1.8276e-06
1.82787e-06
1.82811e-06
1.82831e-06
1.82847e-06
1.82859e-06
1.82867e-06
1.82871e-06
1.82871e-06
1.82867e-06
1.82859e-06
1.82847e-06
1.82831e-06
1.82811e-06
1.82787e-06
1.8276e-06
1.82729e-06
1.82694e-06
1.82656e-06
1.82614e-06
1.82569e-06
1.82521e-06
1.8247e-06
1.82417e-06
1.8236e-06
1.82301e-06
1.82239e-06
1.82175e-06
1.81182e-06
1.81253e-06
1.81319e-06
1.81384e-06
1.81447e-06
1.81507e-06
1.81566e-06
1.81623e-06
1.81677e-06
1.81729e-06
1.81778e-06
1.81825e-06
1.81869e-06
1.8191e-06
1.81948e-06
1.81983e-06
1.82015e-06
1.82043e-06
1.82068e-06
1.8209e-06
1.82108e-06
1.82122e-06
1.82133e-06
1.82141e-06
1.82144e-06
1.82144e-06
1.82141e-06
1.82133e-06
1.82122e-06
1.82108e-06
1.8209e-06
1.82068e-06
1.82043e-06
1.82015e-06
1.81983e-06
1.81948e-06
1.8191e-06
1.81869e-06
1.81825e-06
1.81778e-06
1.81729e-06
1.81677e-06
1.81623e-06
1.81567e-06
1.81509e-06
1.80563e-06
1.80628e-06
1.80689e-06
1.80748e-06
1.80805e-06
1.8086e-06
1.80914e-06
1.80965e-06
1.81015e-06
1.81062e-06
1.81107e-06
1.81149e-06
1.81189e-06
1.81227e-06
1.81261e-06
1.81293e-06
1.81322e-06
1.81348e-06
1.81371e-06
1.8139e-06
1.81407e-06
1.8142e-06
1.8143e-06
1.81436e-06
1.8144e-06
1.8144e-06
1.81436e-06
1.8143e-06
1.8142e-06
1.81407e-06
1.8139e-06
1.8137e-06
1.81348e-06
1.81322e-06
1.81293e-06
1.81261e-06
1.81227e-06
1.81189e-06
1.81149e-06
1.81107e-06
1.81062e-06
1.81015e-06
1.80966e-06
1.80915e-06
1.80862e-06
1.80806e-06
1.79962e-06
1.80021e-06
1.80076e-06
1.80129e-06
1.80181e-06
1.80232e-06
1.8028e-06
1.80327e-06
1.80372e-06
1.80414e-06
1.80455e-06
1.80494e-06
1.8053e-06
1.80564e-06
1.80595e-06
1.80624e-06
1.8065e-06
1.80673e-06
1.80694e-06
1.80712e-06
1.80727e-06
1.80738e-06
1.80747e-06
1.80753e-06
1.80756e-06
1.80756e-06
1.80753e-06
1.80747e-06
1.80738e-06
1.80726e-06
1.80712e-06
1.80694e-06
1.80673e-06
1.8065e-06
1.80624e-06
1.80595e-06
1.80564e-06
1.8053e-06
1.80494e-06
1.80455e-06
1.80415e-06
1.80372e-06
1.80327e-06
1.80281e-06
1.80233e-06
1.80183e-06
1.79378e-06
1.79431e-06
1.79481e-06
1.79529e-06
1.79576e-06
1.79621e-06
1.79665e-06
1.79707e-06
1.79747e-06
1.79786e-06
1.79822e-06
1.79857e-06
1.7989e-06
1.7992e-06
1.79948e-06
1.79974e-06
1.79998e-06
1.80019e-06
1.80037e-06
1.80053e-06
1.80067e-06
1.80077e-06
1.80085e-06
1.80091e-06
1.80094e-06
1.80094e-06
1.80091e-06
1.80085e-06
1.80077e-06
1.80066e-06
1.80053e-06
1.80037e-06
1.80019e-06
1.79998e-06
1.79974e-06
1.79948e-06
1.7992e-06
1.7989e-06
1.79857e-06
1.79823e-06
1.79786e-06
1.79748e-06
1.79707e-06
1.79666e-06
1.79622e-06
1.79577e-06
1.7953e-06
1.78809e-06
1.78857e-06
1.78902e-06
1.78945e-06
1.78987e-06
1.79028e-06
1.79067e-06
1.79104e-06
1.7914e-06
1.79175e-06
1.79208e-06
1.79239e-06
1.79268e-06
1.79295e-06
1.7932e-06
1.79343e-06
1.79364e-06
1.79383e-06
1.794e-06
1.79414e-06
1.79426e-06
1.79436e-06
1.79443e-06
1.79448e-06
1.7945e-06
1.7945e-06
1.79448e-06
1.79443e-06
1.79436e-06
1.79426e-06
1.79414e-06
1.794e-06
1.79383e-06
1.79364e-06
1.79343e-06
1.7932e-06
1.79295e-06
1.79268e-06
1.79239e-06
1.79208e-06
1.79175e-06
1.79141e-06
1.79105e-06
1.79068e-06
1.79029e-06
1.78988e-06
1.78946e-06
1.78256e-06
1.78299e-06
1.78339e-06
1.78377e-06
1.78415e-06
1.78451e-06
1.78485e-06
1.78519e-06
1.78551e-06
1.78581e-06
1.78611e-06
1.78638e-06
1.78664e-06
1.78688e-06
1.7871e-06
1.78731e-06
1.78749e-06
1.78766e-06
1.78781e-06
1.78793e-06
1.78804e-06
1.78812e-06
1.78819e-06
1.78823e-06
1.78825e-06
1.78825e-06
1.78823e-06
1.78819e-06
1.78812e-06
1.78804e-06
1.78793e-06
1.78781e-06
1.78766e-06
1.78749e-06
1.78731e-06
1.7871e-06
1.78688e-06
1.78664e-06
1.78638e-06
1.78611e-06
1.78582e-06
1.78551e-06
1.78519e-06
1.78486e-06
1.78452e-06
1.78416e-06
1.78378e-06
1.77718e-06
1.77756e-06
1.77791e-06
1.77825e-06
1.77858e-06
1.7789e-06
1.7792e-06
1.7795e-06
1.77978e-06
1.78005e-06
1.7803e-06
1.78054e-06
1.78077e-06
1.78098e-06
1.78118e-06
1.78136e-06
1.78152e-06
1.78166e-06
1.78179e-06
1.7819e-06
1.782e-06
1.78207e-06
1.78213e-06
1.78217e-06
1.78218e-06
1.78218e-06
1.78216e-06
1.78213e-06
1.78207e-06
1.782e-06
1.7819e-06
1.78179e-06
1.78166e-06
1.78152e-06
1.78135e-06
1.78118e-06
1.78098e-06
1.78077e-06
1.78054e-06
1.7803e-06
1.78005e-06
1.77978e-06
1.7795e-06
1.77921e-06
1.77891e-06
1.77859e-06
1.77826e-06
1.77195e-06
1.77227e-06
1.77258e-06
1.77288e-06
1.77316e-06
1.77344e-06
1.7737e-06
1.77396e-06
1.7742e-06
1.77444e-06
1.77466e-06
1.77487e-06
1.77506e-06
1.77525e-06
1.77541e-06
1.77557e-06
1.77571e-06
1.77584e-06
1.77595e-06
1.77605e-06
1.77613e-06
1.77619e-06
1.77624e-06
1.77627e-06
1.77629e-06
1.77629e-06
1.77627e-06
1.77624e-06
1.77619e-06
1.77613e-06
1.77604e-06
1.77595e-06
1.77584e-06
1.77571e-06
1.77557e-06
1.77541e-06
1.77525e-06
1.77506e-06
1.77487e-06
1.77466e-06
1.77444e-06
1.77421e-06
1.77397e-06
1.77371e-06
1.77345e-06
1.77318e-06
1.77289e-06
1.76685e-06
1.76713e-06
1.76739e-06
1.76765e-06
1.76789e-06
1.76813e-06
1.76836e-06
1.76857e-06
1.76878e-06
1.76898e-06
1.76917e-06
1.76935e-06
1.76951e-06
1.76967e-06
1.76981e-06
1.76995e-06
1.77007e-06
1.77017e-06
1.77027e-06
1.77035e-06
1.77042e-06
1.77047e-06
1.77052e-06
1.77054e-06
1.77056e-06
1.77056e-06
1.77054e-06
1.77051e-06
1.77047e-06
1.77042e-06
1.77035e-06
1.77027e-06
1.77017e-06
1.77007e-06
1.76995e-06
1.76981e-06
1.76967e-06
1.76951e-06
1.76935e-06
1.76917e-06
1.76898e-06
1.76879e-06
1.76858e-06
1.76836e-06
1.76814e-06
1.76791e-06
1.76766e-06
1.76741e-06
1.76189e-06
1.76212e-06
1.76234e-06
1.76256e-06
1.76276e-06
1.76296e-06
1.76315e-06
1.76333e-06
1.76351e-06
1.76367e-06
1.76383e-06
1.76398e-06
1.76412e-06
1.76425e-06
1.76437e-06
1.76448e-06
1.76458e-06
1.76467e-06
1.76475e-06
1.76481e-06
1.76487e-06
1.76492e-06
1.76495e-06
1.76497e-06
1.76498e-06
1.76498e-06
1.76497e-06
1.76495e-06
1.76492e-06
1.76487e-06
1.76481e-06
1.76474e-06
1.76467e-06
1.76458e-06
1.76448e-06
1.76437e-06
1.76425e-06
1.76412e-06
1.76398e-06
1.76383e-06
1.76367e-06
1.76351e-06
1.76334e-06
1.76316e-06
1.76297e-06
1.76277e-06
1.76257e-06
1.76235e-06
1.75705e-06
1.75724e-06
1.75742e-06
1.7576e-06
1.75777e-06
1.75793e-06
1.75808e-06
1.75823e-06
1.75837e-06
1.75851e-06
1.75863e-06
1.75875e-06
1.75886e-06
1.75897e-06
1.75907e-06
1.75916e-06
1.75924e-06
1.75931e-06
1.75937e-06
1.75943e-06
1.75947e-06
1.75951e-06
1.75954e-06
1.75956e-06
1.75957e-06
1.75957e-06
1.75956e-06
1.75954e-06
1.75951e-06
1.75947e-06
1.75943e-06
1.75937e-06
1.75931e-06
1.75924e-06
1.75916e-06
1.75907e-06
1.75897e-06
1.75887e-06
1.75875e-06
1.75863e-06
1.75851e-06
1.75838e-06
1.75824e-06
1.75809e-06
1.75794e-06
1.75778e-06
1.75761e-06
1.75744e-06
1.75234e-06
1.75249e-06
1.75263e-06
1.75277e-06
1.7529e-06
1.75303e-06
1.75315e-06
1.75326e-06
1.75337e-06
1.75348e-06
1.75357e-06
1.75367e-06
1.75375e-06
1.75383e-06
1.75391e-06
1.75398e-06
1.75404e-06
1.7541e-06
1.75414e-06
1.75419e-06
1.75422e-06
1.75425e-06
1.75427e-06
1.75429e-06
1.75429e-06
1.75429e-06
1.75429e-06
1.75427e-06
1.75425e-06
1.75422e-06
1.75419e-06
1.75414e-06
1.7541e-06
1.75404e-06
1.75398e-06
1.75391e-06
1.75383e-06
1.75375e-06
1.75367e-06
1.75358e-06
1.75348e-06
1.75338e-06
1.75327e-06
1.75316e-06
1.75304e-06
1.75291e-06
1.75278e-06
1.75265e-06
1.74775e-06
1.74786e-06
1.74796e-06
1.74807e-06
1.74816e-06
1.74825e-06
1.74834e-06
1.74842e-06
1.7485e-06
1.74858e-06
1.74865e-06
1.74872e-06
1.74878e-06
1.74884e-06
1.74889e-06
1.74894e-06
1.74898e-06
1.74902e-06
1.74906e-06
1.74909e-06
1.74911e-06
1.74913e-06
1.74915e-06
1.74916e-06
1.74916e-06
1.74916e-06
1.74916e-06
1.74915e-06
1.74913e-06
1.74911e-06
1.74909e-06
1.74906e-06
1.74902e-06
1.74898e-06
1.74894e-06
1.74889e-06
1.74884e-06
1.74878e-06
1.74872e-06
1.74865e-06
1.74858e-06
1.74851e-06
1.74843e-06
1.74835e-06
1.74827e-06
1.74817e-06
1.74808e-06
1.74798e-06
1.74328e-06
1.74334e-06
1.74341e-06
1.74348e-06
1.74354e-06
1.7436e-06
1.74366e-06
1.74371e-06
1.74376e-06
1.74381e-06
1.74385e-06
1.74389e-06
1.74393e-06
1.74397e-06
1.744e-06
1.74403e-06
1.74406e-06
1.74408e-06
1.7441e-06
1.74412e-06
1.74414e-06
1.74415e-06
1.74416e-06
1.74417e-06
1.74417e-06
1.74417e-06
1.74417e-06
1.74416e-06
1.74415e-06
1.74414e-06
1.74412e-06
1.7441e-06
1.74408e-06
1.74406e-06
1.74403e-06
1.744e-06
1.74397e-06
1.74393e-06
1.74389e-06
1.74385e-06
1.74381e-06
1.74377e-06
1.74372e-06
1.74367e-06
1.74361e-06
1.74356e-06
1.74349e-06
1.74343e-06
1.73891e-06
1.73894e-06
1.73898e-06
1.73901e-06
1.73904e-06
1.73907e-06
1.7391e-06
1.73912e-06
1.73914e-06
1.73916e-06
1.73918e-06
1.73919e-06
1.73921e-06
1.73923e-06
1.73924e-06
1.73925e-06
1.73926e-06
1.73927e-06
1.73928e-06
1.73929e-06
1.73929e-06
1.7393e-06
1.7393e-06
1.73931e-06
1.73931e-06
1.73931e-06
1.7393e-06
1.7393e-06
1.7393e-06
1.73929e-06
1.73929e-06
1.73928e-06
1.73927e-06
1.73926e-06
1.73925e-06
1.73924e-06
1.73923e-06
1.73921e-06
1.7392e-06
1.73918e-06
1.73916e-06
1.73914e-06
1.73912e-06
1.7391e-06
1.73908e-06
1.73905e-06
1.73902e-06
1.73899e-06
1.73465e-06
1.73465e-06
1.73465e-06
1.73465e-06
1.73465e-06
1.73465e-06
1.73465e-06
1.73464e-06
1.73463e-06
1.73463e-06
1.73462e-06
1.73462e-06
1.73461e-06
1.7346e-06
1.7346e-06
1.73459e-06
1.73459e-06
1.73458e-06
1.73458e-06
1.73458e-06
1.73457e-06
1.73457e-06
1.73457e-06
1.73457e-06
1.73457e-06
1.73457e-06
1.73457e-06
1.73457e-06
1.73457e-06
1.73457e-06
1.73458e-06
1.73458e-06
1.73458e-06
1.73459e-06
1.73459e-06
1.7346e-06
1.7346e-06
1.73461e-06
1.73462e-06
1.73462e-06
1.73463e-06
1.73464e-06
1.73465e-06
1.73465e-06
1.73466e-06
1.73466e-06
1.73466e-06
1.73466e-06
2.21872e-06
2.19683e-06
2.17599e-06
2.15614e-06
2.1372e-06
2.11911e-06
2.10183e-06
2.08529e-06
2.06946e-06
2.05429e-06
2.03974e-06
2.02578e-06
2.01236e-06
1.99947e-06
1.98707e-06
1.97513e-06
1.96364e-06
1.95256e-06
1.94188e-06
1.93157e-06
1.92163e-06
1.91202e-06
1.90274e-06
1.89376e-06
1.88508e-06
1.87668e-06
1.86854e-06
1.86067e-06
1.85303e-06
1.84564e-06
1.83846e-06
1.8315e-06
1.82475e-06
1.81819e-06
1.81182e-06
1.80563e-06
1.79962e-06
1.79378e-06
1.78809e-06
1.78256e-06
1.77718e-06
1.77195e-06
1.76685e-06
1.76189e-06
1.75705e-06
1.75234e-06
1.74775e-06
1.74328e-06
1.73891e-06
1.73465e-06
2.22536e-06
2.20306e-06
2.18184e-06
2.16163e-06
2.14236e-06
2.12396e-06
2.10639e-06
2.08959e-06
2.0735e-06
2.05809e-06
2.04332e-06
2.02915e-06
2.01554e-06
2.00246e-06
1.98988e-06
1.97778e-06
1.96613e-06
1.95491e-06
1.94409e-06
1.93365e-06
1.92358e-06
1.91385e-06
1.90446e-06
1.89537e-06
1.88659e-06
1.87809e-06
1.86986e-06
1.8619e-06
1.85418e-06
1.8467e-06
1.83945e-06
1.83242e-06
1.82559e-06
1.81896e-06
1.81253e-06
1.80628e-06
1.80021e-06
1.79431e-06
1.78857e-06
1.78299e-06
1.77756e-06
1.77228e-06
1.76713e-06
1.76212e-06
1.75724e-06
1.75249e-06
1.74786e-06
1.74334e-06
1.73894e-06
1.73465e-06
2.23171e-06
2.209e-06
2.18741e-06
2.16686e-06
2.14727e-06
2.12857e-06
2.11072e-06
2.09366e-06
2.07733e-06
2.0617e-06
2.04671e-06
2.03234e-06
2.01854e-06
2.00528e-06
1.99254e-06
1.98028e-06
1.96848e-06
1.95712e-06
1.94616e-06
1.9356e-06
1.92541e-06
1.91557e-06
1.90607e-06
1.89688e-06
1.888e-06
1.87941e-06
1.8711e-06
1.86305e-06
1.85525e-06
1.8477e-06
1.84037e-06
1.83327e-06
1.82638e-06
1.81969e-06
1.81319e-06
1.80689e-06
1.80076e-06
1.79481e-06
1.78902e-06
1.78339e-06
1.77791e-06
1.77258e-06
1.76739e-06
1.76234e-06
1.75742e-06
1.75263e-06
1.74796e-06
1.74341e-06
1.73898e-06
1.73465e-06
2.23797e-06
2.21487e-06
2.19291e-06
2.17201e-06
2.1521e-06
2.13311e-06
2.11499e-06
2.09766e-06
2.0811e-06
2.06524e-06
2.05004e-06
2.03547e-06
2.02148e-06
2.00805e-06
1.99514e-06
1.98273e-06
1.97079e-06
1.95928e-06
1.9482e-06
1.93751e-06
1.9272e-06
1.91725e-06
1.90764e-06
1.89836e-06
1.88938e-06
1.8807e-06
1.8723e-06
1.86417e-06
1.8563e-06
1.84867e-06
1.84127e-06
1.8341e-06
1.82714e-06
1.82039e-06
1.81384e-06
1.80748e-06
1.8013e-06
1.79529e-06
1.78945e-06
1.78377e-06
1.77825e-06
1.77288e-06
1.76765e-06
1.76256e-06
1.7576e-06
1.75277e-06
1.74807e-06
1.74348e-06
1.73901e-06
1.73465e-06
2.24414e-06
2.22064e-06
2.19831e-06
2.17708e-06
2.15685e-06
2.13757e-06
2.11917e-06
2.10159e-06
2.08479e-06
2.0687e-06
2.0533e-06
2.03853e-06
2.02436e-06