/*--------------------------------*- C++ -*----------------------------------*\
  =========                 |
  \\      /  F ield         | OpenFOAM: The Open Source CFD Toolbox
   \\    /   O peration     | Website:  https://openfoam.org
    \\  /    A nd           | Version:  7
     \\/     M anipulation  |
\*---------------------------------------------------------------------------*/
FoamFile
{
    version     2.0;
    format      ascii;
    class       surfaceScalarField;
    location    "52000";
    object      phi;
}
// * * * * * * * * * * * * * * * * * * * * * * * * * * * * * * * * * * * * * //

dimensions      [0 3 -1 0 0 0 0];

internalField   nonuniform List<scalar> 
9474
(
5.33319e-24
-2.64932e-23
3.73568e-24
-6.47638e-23
6.92303e-24
4.34186e-23
-1.82587e-23
1.47706e-26
-1.47707e-23
-5.53426e-25
1.78489e-24
5.68225e-23
5.95779e-25
3.90595e-23
1.91914e-24
2.08921e-23
2.55532e-24
8.28018e-23
7.23454e-24
1.0221e-22
7.77373e-24
3.4573e-24
1.1239e-23
7.27704e-23
1.14772e-23
-6.24432e-23
7.63359e-24
4.04218e-23
5.74835e-24
-2.79609e-23
8.24368e-24
-4.71561e-24
5.25267e-24
-9.78372e-23
8.06084e-24
1.53323e-23
5.20165e-24
-1.96133e-23
3.82398e-24
-6.96649e-23
6.64096e-24
2.70446e-23
8.08491e-24
-2.06697e-23
3.63459e-24
-7.25813e-23
1.35214e-24
-9.74971e-23
-2.43481e-24
-1.09971e-23
-3.24835e-24
-2.7273e-23
-8.03727e-24
-7.86538e-23
-7.61864e-24
3.51039e-24
-1.08815e-23
-6.65856e-23
-9.53021e-24
4.01111e-23
-9.77944e-24
-3.16122e-24
-7.90862e-24
7.72951e-24
-8.64518e-24
-1.89277e-23
-8.91384e-24
2.20695e-23
-6.02944e-24
7.1747e-23
-1.69708e-24
8.00282e-23
-1.06092e-24
7.36805e-23
2.96222e-23
-6.31866e-26
-4.31504e-23
-9.06156e-25
1.97131e-24
8.6754e-23
4.73917e-25
2.18712e-23
2.00766e-24
3.53456e-23
2.67817e-24
6.52243e-23
6.87727e-24
5.69783e-23
7.63837e-24
2.17394e-23
1.10708e-23
7.86045e-23
1.13417e-23
-6.67729e-23
7.59583e-24
1.27088e-23
5.34478e-24
-3.29921e-23
8.23225e-24
2.47161e-23
5.18231e-24
-1.17818e-22
7.93795e-24
7.60177e-24
5.02152e-24
-2.5498e-23
3.72971e-24
-7.11119e-23
6.6258e-24
3.01884e-23
7.66195e-24
-3.31001e-23
3.57443e-24
-7.13851e-23
1.33079e-24
-9.85979e-23
-2.47815e-24
-1.19342e-23
-3.4057e-24
-2.64551e-23
-7.89994e-24
-7.00606e-23
-7.78856e-24
1.28569e-24
-1.06102e-23
-4.42095e-23
-9.55478e-24
4.00635e-23
-9.63149e-24
-1.05411e-23
-8.08329e-24
6.59314e-24
-8.30779e-24
6.34881e-24
-8.70495e-24
2.40258e-23
-6.10209e-24
5.62519e-23
-1.71314e-24
8.24017e-23
-1.09434e-24
6.79937e-23
-2.5618e-24
3.12115e-23
-5.1266e-25
6.55949e-23
3.23539e-24
6.76824e-23
4.72824e-24
6.6053e-23
4.84073e-24
3.10659e-23
2.79956e-24
2.38521e-23
2.19721e-24
3.69859e-23
3.63857e-23
-5.527e-26
-6.08048e-23
-9.85123e-25
1.82218e-24
7.56726e-23
3.63618e-25
1.71512e-23
2.00198e-24
4.5786e-23
2.58097e-24
6.83156e-23
6.71745e-24
3.24108e-23
7.39483e-24
3.96137e-23
1.08008e-23
7.33397e-23
1.13031e-23
-4.11615e-23
7.57248e-24
3.49735e-23
5.17952e-24
-2.94496e-23
8.11045e-24
3.91103e-23
5.13436e-24
-1.15237e-22
7.68832e-24
-9.34223e-24
4.95118e-24
-3.69511e-23
3.56656e-24
-6.46579e-23
6.43053e-24
3.34936e-23
7.37232e-24
-3.56344e-23
3.47134e-24
-6.87032e-23
1.34009e-24
-8.84441e-23
-2.45356e-24
-2.04935e-23
-3.57437e-24
-3.39577e-23
-7.80403e-24
-5.9615e-23
-7.85484e-24
-1.77185e-23
-1.04324e-23
-4.16843e-23
-9.55864e-24
3.84175e-23
-9.50567e-24
-8.06346e-24
-8.09053e-24
6.56214e-24
-8.09545e-24
5.06138e-25
-8.50127e-24
3.21271e-23
-6.13152e-24
5.29986e-23
-1.77634e-24
7.79114e-23
-1.01762e-24
6.52428e-23
-2.63858e-24
2.73191e-23
-4.64123e-25
6.04539e-23
3.35286e-24
8.00971e-23
4.49313e-24
4.78335e-23
4.92592e-24
5.30695e-23
2.68881e-24
1.61328e-23
2.16609e-24
2.73757e-23
8.48265e-24
2.49809e-23
4.36191e-24
1.44792e-23
-6.92771e-25
-4.29607e-23
-1.58552e-23
3.16157e-25
-6.63029e-23
-8.11116e-25
1.7417e-24
6.27604e-23
5.55845e-25
3.16612e-23
1.80257e-24
4.65346e-23
2.39542e-24
7.21722e-23
6.89709e-24
1.64256e-23
7.16502e-24
3.7996e-23
1.05975e-23
5.42073e-23
1.12104e-23
-4.46362e-23
7.38277e-24
4.37876e-23
5.07251e-24
-2.80774e-23
7.74696e-24
3.69362e-23
5.23167e-24
-1.11213e-22
7.54449e-24
-1.18553e-24
4.85248e-24
-3.65708e-23
3.42795e-24
-5.03508e-23
6.1399e-24
3.06621e-23
7.02252e-24
-1.68229e-23
3.50879e-24
-6.23139e-23
1.28e-24
-8.42467e-23
-2.50269e-24
-2.31339e-23
-3.58496e-24
-2.31697e-23
-7.84117e-24
-5.1123e-23
-7.79533e-24
-1.56395e-23
-1.02967e-23
-4.23248e-23
-9.5044e-24
5.73149e-23
-9.41151e-24
-6.02945e-24
-8.06858e-24
8.25253e-24
-7.84282e-24
-3.47081e-24
-8.3504e-24
2.34364e-23
-6.11839e-24
3.10497e-23
-1.83409e-24
7.08059e-23
-9.40445e-25
6.53966e-23
-2.64557e-24
2.92176e-23
-3.6415e-25
3.66257e-23
3.18706e-24
7.01595e-23
4.65844e-24
2.98661e-23
4.68442e-24
3.95452e-23
2.65457e-24
3.14896e-23
2.26321e-24
2.76275e-23
8.5805e-24
1.81095e-23
4.32791e-24
7.1894e-25
-6.91207e-25
-3.93799e-23
-2.12847e-23
3.27583e-25
-7.10731e-23
-9.37504e-25
1.7328e-24
5.14732e-23
5.52074e-25
1.24948e-23
1.65121e-24
5.11331e-23
2.1858e-24
3.42902e-23
6.94531e-24
2.59212e-23
6.8095e-24
4.53338e-23
1.05841e-23
5.03923e-23
1.10344e-23
-1.75595e-23
7.39495e-24
5.0571e-23
4.93234e-24
-3.48451e-23
7.3613e-24
1.79776e-23
5.25449e-24
-8.76935e-23
7.39421e-24
4.34979e-24
4.74415e-24
-2.87141e-23
3.35507e-24
-6.71087e-23
6.05554e-24
4.2697e-23
6.67716e-24
-2.70525e-23
3.41083e-24
-4.71332e-23
1.21721e-24
-9.1763e-23
-2.40868e-24
-2.56544e-23
-3.60768e-24
-3.9317e-23
-7.86899e-24
-5.32429e-23
-7.74131e-24
-5.58183e-24
-1.00543e-23
-5.77101e-23
-9.523e-24
6.0923e-23
-9.31874e-24
7.40848e-24
-8.07355e-24
8.97804e-24
-7.6351e-24
1.41636e-23
-8.2307e-24
2.04557e-23
-6.01298e-24
2.51569e-23
-1.89182e-24
6.40306e-23
-8.47579e-25
8.35826e-23
-2.87756e-24
-6.25106e-25
-3.10091e-25
3.04539e-23
3.18093e-24
5.74098e-23
4.71959e-24
2.73136e-23
4.75624e-24
1.70936e-23
2.47177e-24
1.98786e-23
2.34008e-24
2.23942e-23
8.3802e-24
1.54562e-23
4.48179e-24
-1.56053e-23
-5.40783e-25
-3.26544e-23
-4.16952e-23
4.52335e-25
-6.77481e-23
-9.96982e-25
1.78125e-24
6.46147e-23
5.58091e-25
1.19209e-23
1.40013e-24
5.35398e-23
2.19072e-24
5.18218e-23
6.78577e-24
7.74347e-24
6.5677e-24
2.91048e-23
1.05947e-23
6.40328e-23
1.07409e-23
-5.30148e-23
7.45917e-24
3.37986e-23
4.67665e-24
-2.81474e-23
7.23768e-24
8.97158e-24
5.11923e-24
-6.66102e-23
7.40683e-24
7.27432e-24
4.63554e-24
-3.37604e-23
3.36829e-24
-4.90747e-23
5.84175e-24
3.64665e-23
6.4548e-24
-3.06427e-23
3.18609e-24
-3.24795e-23
1.23727e-24
-7.15609e-23
-2.42477e-24
-2.83054e-23
-3.57457e-24
-3.67509e-23
-7.85425e-24
-6.40616e-23
-7.78944e-24
-1.21779e-24
-9.70775e-24
-5.44777e-23
-9.48599e-24
5.97404e-23
-9.26315e-24
1.21361e-23
-7.97337e-24
2.17872e-24
-7.4357e-24
9.13673e-24
-8.16954e-24
2.42754e-24
-5.88887e-24
3.44171e-23
-1.79762e-24
5.23747e-23
-1.01173e-24
7.10935e-23
-2.88718e-24
2.68377e-25
-2.05314e-25
3.04444e-23
2.95532e-24
5.90006e-23
4.6828e-24
2.28742e-23
4.85008e-24
7.82356e-24
2.377e-24
3.22501e-23
2.34598e-24
2.57471e-23
8.21353e-24
3.71949e-23
4.69342e-24
1.04258e-23
-4.88536e-25
-4.5232e-23
-4.11338e-23
6.6366e-25
-7.03893e-23
-9.70529e-25
1.71121e-24
4.37276e-23
7.38974e-25
9.73854e-24
1.17877e-24
5.34773e-23
2.02792e-24
5.21761e-23
6.609e-24
-3.72952e-25
6.5142e-24
2.22031e-23
1.03419e-23
6.80922e-23
1.07046e-23
-4.58769e-23
7.34621e-24
5.30834e-23
4.398e-24
-3.19486e-23
7.17746e-24
6.3225e-24
4.93591e-24
-9.99971e-23
7.26603e-24
9.94722e-24
4.59291e-24
-3.16693e-23
3.28975e-24
-4.79113e-23
5.57706e-24
6.15415e-23
6.20755e-24
-1.93573e-23
3.07637e-24
-2.48922e-23
1.10107e-24
-7.20724e-23
-2.38221e-24
-3.84242e-23
-3.56495e-24
-3.35156e-23
-7.77572e-24
-6.24563e-23
-7.83945e-24
1.81739e-24
-9.37887e-24
-3.3208e-23
-9.41597e-24
5.50135e-23
-9.26757e-24
2.40087e-23
-7.83162e-24
1.97341e-23
-7.32779e-24
-6.30275e-24
-7.94782e-24
-1.59979e-24
-5.78216e-24
3.73008e-23
-1.72413e-24
5.18705e-23
-9.93687e-25
6.88889e-23
-2.90941e-24
-7.09964e-24
-8.48436e-26
4.60632e-23
2.9984e-24
4.10043e-23
4.50746e-24
1.94731e-23
4.91514e-24
6.1312e-24
2.33841e-24
3.64899e-23
2.34077e-24
3.79675e-23
8.20402e-24
3.36121e-23
4.60286e-24
1.6203e-23
-3.20597e-25
-5.64227e-23
-1.63391e-24
-3.1973e-23
-1.84382e-23
8.27595e-25
-6.36534e-23
-9.72408e-25
1.66573e-24
4.06344e-23
6.81864e-25
-7.41676e-24
1.08827e-24
5.30362e-23
1.78237e-24
4.72664e-23
6.58564e-24
-6.2471e-26
6.49766e-24
1.56755e-23
9.94393e-24
8.07895e-23
1.06529e-23
-2.73294e-23
7.18367e-24
3.77135e-23
4.04624e-24
-4.06996e-23
7.02243e-24
9.23238e-24
4.82278e-24
-1.00032e-22
7.19915e-24
1.83379e-23
4.40563e-24
-4.58359e-23
3.40896e-24
-3.66177e-23
5.33466e-24
4.01825e-23
6.00542e-24
-3.18846e-24
3.00431e-24
-1.57791e-23
9.59712e-25
-6.52725e-23
-2.34188e-24
-4.66826e-23
-3.57567e-24
-3.65636e-23
-7.65377e-24
-7.33957e-23
-7.79207e-24
-6.04558e-24
-9.1341e-24
-3.06509e-23
-9.30492e-24
3.51836e-23
-9.19954e-24
2.18092e-23
-7.81094e-24
1.96673e-23
-7.14059e-24
-5.01655e-25
-7.74817e-24
-6.333e-24
-5.67021e-24
4.37824e-23
-1.74101e-24
4.78734e-23
-1.15261e-24
5.38103e-23
-2.78979e-24
-1.15121e-23
-1.4511e-25
2.42021e-23
3.06666e-24
5.48069e-23
4.47161e-24
2.41228e-23
5.08925e-24
3.62337e-24
2.30654e-24
8.19582e-24
2.44714e-24
5.61233e-23
8.16968e-24
4.67246e-23
4.57116e-24
1.42903e-24
-2.24815e-25
-8.17723e-23
-1.44438e-24
-2.72154e-23
-2.82411e-23
9.50996e-25
-5.12489e-23
-9.5869e-25
1.63665e-24
3.30789e-23
7.43441e-25
-3.12013e-23
9.3625e-25
3.8721e-23
1.57913e-24
5.67532e-23
6.52009e-24
3.01164e-23
6.40711e-24
1.59861e-23
9.81242e-24
7.51925e-23
1.03813e-23
-6.16381e-24
7.10133e-24
4.1643e-23
3.99556e-24
-5.81927e-23
6.73735e-24
1.29029e-23
4.93926e-24
-8.6936e-23
6.95162e-24
1.6422e-24
4.40408e-24
-4.48601e-23
3.36583e-24
-2.49009e-23
5.09344e-24
3.48812e-23
5.83324e-24
-4.62413e-24
2.86653e-24
-2.3653e-23
7.60194e-25
-6.61461e-23
-2.27939e-24
-3.74176e-23
-3.62403e-24
-2.62301e-23
-7.50487e-24
-6.99815e-23
-7.70913e-24
-2.25686e-23
-8.9426e-24
-2.72781e-23
-9.1459e-24
2.49756e-23
-9.11635e-24
2.37205e-23
-7.70732e-24
1.84823e-23
-6.98669e-24
-5.90306e-24
-7.57375e-24
-1.0336e-23
-5.52711e-24
4.21293e-23
-1.71784e-24
4.34512e-23
-1.15772e-24
6.10163e-23
-2.7345e-24
-4.42666e-24
-9.3914e-26
5.13345e-23
3.077e-24
6.82684e-23
4.48483e-24
3.81288e-23
5.0772e-24
6.85449e-24
2.38645e-24
-7.74365e-24
2.34177e-24
5.3394e-23
8.0599e-24
4.19918e-23
4.51529e-24
-3.63966e-24
-4.17227e-26
-7.53642e-23
-1.40622e-24
-2.82671e-23
-3.49486e-23
9.50989e-25
-3.06884e-23
-1.0788e-24
1.55182e-24
3.98128e-23
9.25308e-25
-3.11844e-23
6.53052e-25
4.12644e-23
1.55291e-24
5.69812e-23
6.32439e-24
4.65731e-23
6.34507e-24
1.72704e-23
9.58765e-24
7.71553e-23
1.01162e-23
-4.41832e-24
6.87179e-24
3.02547e-23
3.71172e-24
-5.39103e-23
6.53415e-24
2.48332e-23
4.8804e-24
-7.38127e-23
6.98615e-24
-4.44843e-24
4.28645e-24
-5.08766e-23
3.39405e-24
-6.09803e-24
4.85507e-24
3.15108e-25
5.72749e-24
1.19562e-23
2.69626e-24
-3.54903e-23
6.67507e-25
-6.79963e-23
-2.24393e-24
-2.84234e-23
-3.64706e-24
-2.36127e-23
-7.38671e-24
-8.02898e-23
-7.5604e-24
-1.83134e-23
-8.7544e-24
-2.60296e-23
-8.97174e-24
2.40522e-23
-9.0353e-24
3.09844e-23
-7.64504e-24
3.48681e-23
-6.81237e-24
9.43887e-24
-7.37313e-24
-1.19064e-23
-5.37643e-24
4.67568e-23
-1.69307e-24
4.67157e-23
-1.18571e-24
4.078e-23
-2.62403e-24
-5.7553e-24
1.96015e-27
5.34524e-23
2.9596e-24
7.34036e-23
4.35836e-24
4.14261e-23
5.09453e-24
2.59743e-23
2.65836e-24
3.85977e-24
2.40119e-24
5.35234e-23
7.87961e-24
5.03505e-23
4.57465e-24
-1.13739e-24
3.14673e-26
-7.74278e-23
-1.27995e-24
-3.20068e-23
1.02503e-24
-1.73418e-23
-1.09805e-24
1.48862e-24
3.24436e-23
9.83158e-25
-3.85816e-23
5.88221e-25
5.08142e-23
1.50833e-24
4.26327e-23
6.14654e-24
3.60141e-23
6.18795e-24
1.82113e-23
9.32733e-24
7.88465e-23
9.9717e-24
-4.1789e-24
6.6973e-24
4.01359e-23
3.5816e-24
-4.91927e-23
6.34419e-24
2.42135e-23
4.75044e-24
-6.85844e-23
6.77781e-24
-9.22118e-24
4.32564e-24
-2.85502e-23
3.23163e-24
-1.97318e-24
4.77392e-24
-1.25833e-23
5.4652e-24
-3.45986e-24
2.58156e-24
-4.11998e-23
6.75653e-25
-5.4132e-23
-2.27375e-24
-3.057e-23
-3.69077e-24
-1.97036e-23
-7.24678e-24
-7.636e-23
-7.43042e-24
-1.50797e-23
-8.54771e-24
-2.6001e-23
-8.77858e-24
2.2458e-23
-8.88869e-24
2.47764e-23
-7.58127e-24
3.4196e-23
-6.63372e-24
2.70741e-23
-7.20761e-24
-1.94407e-23
-5.20785e-24
3.59639e-23
-1.67926e-24
4.48398e-23
-1.12295e-24
5.36766e-23
-2.40679e-24
-2.43306e-24
2.41039e-26
4.16728e-23
2.96196e-24
7.22693e-23
4.36998e-24
4.60254e-23
5.0185e-24
3.3863e-23
2.68448e-24
7.32542e-24
2.45968e-24
5.36686e-23
7.60475e-24
3.1634e-23
4.51516e-24
1.60385e-24
2.01339e-25
-8.72706e-23
-2.22297e-23
1.00105e-24
-3.00225e-23
-1.29746e-24
1.34579e-24
1.88286e-23
1.13885e-24
-3.18984e-23
4.79222e-25
2.69868e-23
1.40523e-24
5.47376e-23
5.97148e-24
5.28908e-23
6.12805e-24
3.28472e-23
8.94024e-24
7.45136e-23
9.71727e-24
2.4949e-23
6.52586e-24
1.62353e-23
3.42907e-24
-3.47283e-23
6.22776e-24
2.3462e-23
4.5841e-24
-5.10145e-23
6.7736e-24
-1.61201e-23
4.18913e-24
-1.26977e-23
3.11204e-24
1.90313e-24
4.67417e-24
-2.21633e-23
5.3058e-24
7.58302e-24
2.46506e-24
-3.98936e-23
5.91425e-25
-4.06106e-23
-2.31736e-24
-3.23292e-23
-3.72362e-24
-1.71944e-23
-7.08385e-24
-6.37528e-23
-7.32848e-24
-1.27899e-23
-8.32146e-24
-3.37473e-23
-8.60486e-24
1.85182e-23
-8.69282e-24
2.39472e-23
-7.4196e-24
4.16912e-23
-6.54824e-24
2.40374e-23
-7.00854e-24
-2.64939e-23
-4.98821e-24
3.02087e-23
-1.61766e-24
4.38267e-23
-1.11728e-24
4.59022e-23
-2.30367e-24
8.23989e-25
9.01006e-26
3.23731e-23
2.98448e-24
4.83952e-23
4.28613e-24
4.27873e-23
4.97797e-24
2.07857e-23
2.62723e-24
-1.07649e-23
2.44767e-24
3.86028e-23
7.59911e-24
5.39832e-23
4.41244e-24
-2.4046e-23
4.47937e-25
-8.30469e-23
-3.97558e-23
1.00563e-24
-3.38516e-23
-1.35544e-24
1.25546e-24
1.80123e-23
1.09297e-24
-3.21152e-23
4.33569e-25
4.25084e-23
1.37005e-24
3.42198e-23
5.81201e-24
6.90047e-23
5.98397e-24
2.14992e-23
8.73461e-24
7.76707e-23
9.38106e-24
2.53986e-23
6.4019e-24
1.74962e-23
3.21574e-24
-4.2275e-23
6.04132e-24
2.26614e-23
4.53822e-24
-4.77033e-23
6.74043e-24
-2.17568e-23
4.06654e-24
-1.7764e-23
2.96069e-24
5.35836e-24
4.51355e-24
-9.39945e-24
5.11465e-24
2.1117e-23
2.49528e-24
-4.80962e-23
4.83646e-25
-3.90972e-23
-2.32664e-24
-3.51103e-23
-3.74053e-24
-1.55191e-23
-6.92746e-24
-5.78936e-23
-7.24001e-24
-1.94676e-23
-8.06326e-24
-3.46108e-23
-8.449e-24
1.11146e-23
-8.46252e-24
2.37486e-23
-7.29582e-24
3.46583e-23
-6.46969e-24
2.68498e-23
-6.80658e-24
-2.65492e-23
-4.80822e-24
2.95183e-23
-1.57602e-24
4.15028e-23
-1.07327e-24
3.069e-23
-2.17919e-24
-5.92334e-24
1.14642e-25
1.82008e-23
2.99926e-24
4.60823e-23
4.22563e-24
3.39814e-23
4.92415e-24
2.13561e-23
2.75286e-24
-1.66128e-23
2.50465e-24
4.46991e-23
7.38822e-24
4.92041e-23
4.43472e-24
-1.5678e-23
5.2763e-25
-9.19304e-23
-2.34293e-23
9.84666e-25
-4.55095e-23
-1.28326e-24
1.23166e-24
1.22749e-23
1.20551e-24
-2.08208e-23
3.31169e-25
4.00325e-23
1.44625e-24
3.22292e-23
5.58055e-24
6.71352e-23
5.85078e-24
2.89607e-23
8.63203e-24
9.30092e-23
9.00736e-24
2.57199e-23
6.2546e-24
1.83156e-23
3.172e-24
-3.67751e-23
5.70271e-24
1.56897e-23
4.39257e-24
-4.50898e-23
6.74661e-24
-3.40437e-23
3.97303e-24
-1.54217e-23
2.87616e-24
1.30654e-24
4.40077e-24
-3.69314e-24
4.8476e-24
1.38081e-23
2.48183e-24
-3.13744e-23
4.17855e-25
-3.70461e-23
-2.33197e-24
-3.46401e-23
-3.73934e-24
-1.41148e-23
-6.81146e-24
-5.08169e-23
-7.15239e-24
-1.84457e-23
-7.81609e-24
-3.63502e-23
-8.24076e-24
-2.4368e-24
-8.24892e-24
2.20734e-23
-7.1325e-24
4.08473e-23
-6.38276e-24
2.39947e-23
-6.65619e-24
-2.61231e-23
-4.52145e-24
2.82871e-23
-1.57809e-24
3.95116e-23
-1.00743e-24
3.66435e-23
-2.10169e-24
-4.94184e-24
1.7716e-25
2.37116e-23
2.98574e-24
3.74092e-23
4.29703e-24
3.16082e-23
4.93544e-24
2.12824e-23
2.81324e-24
-2.20023e-23
2.58545e-24
5.59541e-23
7.17508e-24
4.46365e-23
4.28207e-24
-2.0521e-23
6.71994e-25
-8.84567e-23
-3.29548e-23
8.76488e-25
-5.73856e-23
-1.25096e-24
1.32159e-24
1.71219e-23
1.24031e-24
-3.06543e-23
2.44655e-25
4.40882e-23
1.34644e-24
1.82841e-23
5.34856e-24
6.58926e-23
5.86826e-24
3.51016e-23
8.25263e-24
9.02198e-23
8.63221e-24
2.05901e-23
6.12376e-24
1.79348e-23
3.08952e-24
-4.98852e-23
5.47915e-24
2.01742e-23
4.26157e-24
-4.24817e-23
6.76141e-24
-2.24033e-23
3.85088e-24
-2.31566e-23
2.81517e-24
-9.84898e-24
4.26249e-24
-4.83432e-24
4.64194e-24
7.122e-24
2.41841e-24
-3.76382e-23
3.63864e-25
-2.77773e-23
-2.34784e-24
-2.73004e-23
-3.68439e-24
-1.95343e-23
-6.70979e-24
-5.199e-23
-7.05315e-24
-1.73711e-23
-7.58839e-24
-3.1172e-23
-7.99655e-24
-1.00009e-24
-8.03013e-24
2.01504e-23
-6.98546e-24
4.5467e-23
-6.28161e-24
2.82875e-23
-6.45075e-24
-1.28356e-23
-4.29676e-24
3.21743e-23
-1.552e-24
4.4009e-23
-9.53022e-25
4.85215e-23
-1.91876e-24
1.6255e-24
1.32131e-25
1.46076e-23
3.11884e-24
4.1157e-23
4.29058e-24
3.00017e-23
4.74162e-24
2.87182e-23
2.9916e-24
-2.10988e-23
2.56933e-24
6.65972e-23
7.02155e-24
4.07487e-23
4.26798e-24
-1.36429e-23
7.82512e-25
-8.57847e-23
-2.96193e-23
9.8142e-25
-5.65102e-23
-1.15194e-24
1.17059e-24
5.86364e-24
1.35024e-24
-1.7887e-23
8.20907e-26
3.11349e-23
1.34119e-24
1.2771e-23
5.03905e-24
4.75294e-23
5.74842e-24
3.55776e-23
7.92662e-24
7.63957e-23
8.35082e-24
2.11105e-23
5.81802e-24
1.78928e-23
2.96929e-24
-4.18443e-23
5.36822e-24
1.95264e-23
4.13208e-24
-5.17441e-23
6.70856e-24
-5.09611e-24
3.75023e-24
-3.00947e-23
2.72111e-24
-3.59822e-24
4.10201e-24
1.56803e-24
4.47014e-24
-7.02025e-24
2.38828e-24
-3.61482e-23
3.05629e-25
-2.65996e-23
-2.366e-24
-2.05132e-23
-3.6686e-24
-2.2468e-23
-6.55652e-24
-4.7311e-23
-6.98311e-24
-2.1153e-23
-7.35211e-24
-1.46654e-23
-7.77916e-24
4.5519e-25
-7.74222e-24
2.43741e-23
-6.86031e-24
3.73903e-23
-6.12216e-24
2.63937e-23
-6.26673e-24
-1.26303e-23
-4.08942e-24
3.05146e-23
-1.44788e-24
4.18121e-23
-9.33946e-25
3.52925e-23
-1.85155e-24
-2.16123e-24
2.71995e-25
1.30071e-23
3.18469e-24
5.02306e-23
4.19829e-24
2.22682e-23
4.67528e-24
4.52218e-23
3.13373e-24
-1.50934e-23
2.64309e-24
7.7368e-23
6.78004e-24
3.24711e-23
4.27353e-24
-1.75901e-23
9.98642e-25
-7.18715e-23
-2.73283e-23
9.72285e-25
-5.42361e-23
-1.09014e-24
1.13063e-24
-3.94061e-24
1.36333e-24
-1.19356e-23
-3.60151e-26
1.82139e-23
1.38229e-24
6.76146e-24
4.96122e-24
2.23328e-23
5.59068e-24
2.83812e-23
7.6932e-24
6.94812e-23
8.00433e-24
8.94188e-24
5.67831e-24
3.03413e-23
2.91771e-24
-3.90973e-23
5.08332e-24
1.32145e-23
4.07575e-24
-4.29267e-23
6.5696e-24
-1.14903e-23
3.67201e-24
-2.58186e-23
2.67924e-24
9.25854e-24
3.88636e-24
3.10762e-24
4.33474e-24
-3.74958e-24
2.37756e-24
-3.66906e-23
2.67664e-25
-2.34556e-23
-2.41832e-24
-2.43289e-23
-3.63661e-24
-2.6466e-23
-6.39611e-24
-3.19985e-23
-6.83985e-24
-2.22299e-23
-7.1602e-24
-1.7511e-23
-7.55617e-24
2.26074e-24
-7.49671e-24
2.80819e-23
-6.70933e-24
2.96535e-23
-5.96997e-24
2.55783e-23
-6.04395e-24
-1.66103e-23
-3.87119e-24
2.22672e-23
-1.41301e-24
4.0236e-23
-9.15574e-25
2.90204e-23
-1.69194e-24
7.0296e-26
3.16034e-25
5.21503e-24
3.17833e-24
6.57027e-23
4.32233e-24
2.7077e-23
4.6323e-24
4.87429e-23
3.25633e-24
-1.45094e-23
2.5278e-24
5.32301e-23
6.59004e-24
1.7819e-23
4.2822e-24
-5.19263e-24
9.96441e-25
-6.8997e-23
-1.3927e-23
9.08509e-25
-6.76551e-23
-1.03391e-24
1.17916e-24
-1.20717e-23
1.31296e-24
-2.18667e-24
-1.05442e-25
-7.67308e-25
1.37379e-24
1.52223e-24
4.83312e-24
2.11235e-23
5.40134e-24
2.59585e-23
7.4141e-24
7.43978e-23
7.78226e-24
1.8696e-23
5.41727e-24
3.05854e-23
2.74835e-24
-3.64853e-23
4.92278e-24
1.37854e-23
3.9201e-24
-3.37759e-23
6.49603e-24
-1.8577e-23
3.64247e-24
-3.9238e-23
2.55623e-24
4.50256e-24
3.72657e-24
9.9975e-25
4.10378e-24
-2.03122e-23
2.40362e-24
-2.51608e-23
2.16604e-25
-2.5963e-23
-2.43056e-24
-2.45861e-23
-3.54794e-24
-2.58747e-23
-6.30361e-24
-3.87722e-23
-6.68832e-24
-2.26298e-23
-6.94819e-24
-1.45332e-23
-7.31292e-24
3.52289e-24
-7.28859e-24
2.01277e-23
-6.52077e-24
2.7986e-23
-5.82766e-24
2.49323e-23
-5.86159e-24
-1.56852e-23
-3.63187e-24
1.47153e-23
-1.35896e-24
3.24978e-23
-8.2527e-25
4.5286e-23
-1.56342e-24
2.07335e-24
4.3255e-25
3.99892e-24
3.16284e-24
6.3048e-23
4.37629e-24
4.31625e-23
4.61335e-24
4.21745e-23
3.32852e-24
-1.41782e-23
2.4964e-24
5.32259e-23
6.50026e-24
1.54932e-23
4.16409e-24
-1.48083e-23
1.16146e-24
-6.2983e-23
-1.37135e-23
7.84661e-25
-6.66845e-23
-9.63436e-25
1.22143e-24
-9.40004e-24
1.20662e-24
-1.48777e-24
-1.80621e-25
-2.63634e-24
1.26637e-24
1.83718e-24
4.69909e-24
2.08206e-23
5.29075e-24
2.3626e-23
7.14137e-24
6.68152e-23
7.58764e-24
1.80275e-23
5.16686e-24
2.19155e-23
2.57256e-24
-3.34735e-23
4.78202e-24
1.3111e-23
3.68811e-24
-3.08252e-23
6.43091e-24
-2.08421e-23
3.61965e-24
-4.68653e-23
2.4943e-24
4.59658e-25
3.54513e-24
-9.93056e-24
3.96712e-24
-3.09573e-23
2.33282e-24
-1.92204e-23
1.68983e-25
-2.19335e-23
-2.43191e-24
-2.14814e-23
-3.48273e-24
-2.53307e-23
-6.17671e-24
-3.50251e-23
-6.51977e-24
-1.54983e-23
-6.73766e-24
-1.14482e-23
-7.09625e-24
4.11474e-24
-7.04741e-24
2.94548e-23
-6.34205e-24
2.61921e-23
-5.66942e-24
2.42869e-23
-5.65863e-24
-8.80818e-24
-3.40458e-24
1.44135e-23
-1.23843e-24
2.61003e-23
-7.91134e-25
4.01889e-23
-1.45817e-24
1.06402e-23
5.53382e-25
1.92224e-24
3.23554e-24
7.04278e-23
4.32982e-24
4.21572e-23
4.56218e-24
4.13514e-23
3.41694e-24
-1.46124e-23
2.47922e-24
4.78913e-23
6.36446e-24
2.53781e-23
4.09176e-24
8.84377e-24
1.29538e-24
-5.84482e-23
-1.42986e-23
7.45809e-25
-6.51815e-23
-8.39554e-25
1.1666e-24
-6.75836e-24
1.16888e-24
-1.16123e-23
-3.41808e-25
5.03838e-24
1.24974e-24
2.67279e-23
4.53465e-24
8.71769e-24
5.17387e-24
1.0848e-23
6.83335e-24
6.76957e-23
7.22781e-24
1.32729e-24
5.01798e-24
1.88589e-23
2.49346e-24
-3.05307e-23
4.56089e-24
1.38527e-23
3.55135e-24
-1.88383e-23
6.31072e-24
-8.74422e-24
3.59387e-24
-4.38968e-23
2.39206e-24
-1.59096e-23
3.40423e-24
-1.95469e-23
3.82764e-24
-4.30903e-23
2.33623e-24
-1.90348e-23
1.00342e-25
-2.69871e-23
-2.4453e-24
-1.81759e-23
-3.4266e-24
-1.91971e-23
-6.0373e-24
-3.63309e-23
-6.35097e-24
-1.74736e-23
-6.54333e-24
-1.36928e-23
-6.85169e-24
4.85701e-24
-6.81556e-24
3.2748e-23
-6.15746e-24
2.60479e-23
-5.46317e-24
1.899e-23
-5.47573e-24
-6.84139e-24
-3.21983e-24
2.63539e-23
-1.0986e-24
1.82016e-23
-7.42178e-25
4.58299e-23
-1.34025e-24
1.7947e-23
6.73976e-25
4.60124e-24
3.26948e-24
7.18867e-23
4.30475e-24
3.14255e-23
4.44198e-24
3.09357e-23
3.45353e-24
-1.51542e-23
2.44087e-24
3.81466e-23
6.33048e-24
3.1059e-23
4.09163e-24
4.0042e-24
1.39184e-24
-5.41561e-23
-1.22264e-24
7.64411e-25
-6.05591e-23
-7.03876e-25
1.10633e-24
-4.61842e-24
1.17664e-24
-1.91962e-24
-3.73432e-25
-7.10542e-24
1.14589e-24
2.67267e-23
4.33366e-24
6.94901e-24
5.07003e-24
1.7999e-23
6.51408e-24
5.1198e-23
6.93488e-24
-3.48015e-24
4.79128e-24
4.6661e-24
2.32285e-24
-3.79314e-23
4.39849e-24
2.72699e-23
3.44818e-24
-1.19984e-23
6.13594e-24
-7.61596e-24
3.5133e-24
-4.22267e-23
2.29853e-24
-5.23508e-24
3.1916e-24
-2.75808e-23
3.78637e-24
-3.1849e-23
2.30783e-24
-2.00406e-23
2.74126e-26
-2.65496e-23
-2.40412e-24
-9.33627e-24
-3.38077e-24
-1.77801e-23
-5.88954e-24
-3.31553e-23
-6.18043e-24
-1.75416e-23
-6.3527e-24
-6.73038e-24
-6.58057e-24
4.58845e-24
-6.60034e-24
3.16279e-23
-5.98861e-24
2.60701e-23
-5.26105e-24
1.8354e-23
-5.28622e-24
-1.49949e-23
-3.04166e-24
1.8601e-23
-9.66167e-25
2.59813e-23
-6.48936e-25
3.62237e-23
-1.2267e-24
3.20916e-23
8.26854e-25
8.25268e-24
3.24997e-24
7.16698e-23
4.2718e-24
3.50021e-23
4.36591e-24
2.10396e-23
3.51449e-24
-2.4722e-23
2.55842e-24
4.41337e-23
6.18966e-24
3.86922e-23
4.04471e-24
3.76648e-24
1.51017e-24
-4.79814e-23
4.42094e-25
-1.87539e-23
-1.7038e-23
7.35946e-25
-4.43535e-23
-5.83726e-25
1.06115e-24
1.49979e-24
1.07197e-24
3.48844e-24
-3.60776e-25
-5.25231e-24
9.46379e-25
2.64472e-23
4.13889e-24
8.54868e-24
4.90249e-24
1.47673e-23
6.20484e-24
4.07789e-23
6.70203e-24
-2.68011e-24
4.6184e-24
5.62826e-24
2.23487e-24
-1.97192e-23
4.23838e-24
3.78601e-23
3.29884e-24
-1.03074e-23
5.97362e-24
-1.3751e-23
3.48009e-24
-3.78238e-23
2.15079e-24
-2.6512e-23
3.1101e-24
-1.99468e-23
3.67122e-24
-1.61165e-23
2.28676e-24
-2.09247e-23
2.00794e-26
-2.62216e-23
-2.42231e-24
-1.68357e-23
-3.31353e-24
-1.41246e-23
-5.76044e-24
-3.10135e-23
-5.97653e-24
-1.49174e-23
-6.18418e-24
-1.70505e-23
-6.30717e-24
3.91139e-24
-6.37834e-24
2.75074e-23
-5.79124e-24
2.5722e-23
-5.09726e-24
2.24341e-23
-5.07378e-24
-1.03381e-23
-2.81253e-24
2.02485e-23
-8.82671e-25
2.53397e-23
-5.42565e-25
3.91091e-23
-1.1569e-24
2.55314e-23
9.08475e-25
1.77659e-23
3.25058e-24
6.44228e-23
4.22197e-24
4.66234e-23
4.30996e-24
1.18897e-23
3.58496e-24
-2.81137e-23
2.55172e-24
2.97739e-23
6.01647e-24
4.03115e-23
3.99261e-24
2.52286e-24
1.59365e-24
-3.3433e-23
6.349e-25
-2.3269e-23
-1.5973e-23
7.42028e-25
-3.63985e-23
-4.59732e-25
1.08165e-24
-1.24571e-23
9.83179e-25
-3.80382e-24
-4.12781e-25
-2.13154e-23
8.52181e-25
2.56964e-23
4.07151e-24
1.64905e-23
4.65862e-24
1.30793e-23
5.93194e-24
3.0393e-23
6.36817e-24
1.01466e-25
4.35998e-24
4.31542e-24
2.14895e-24
-2.28923e-23
4.07659e-24
3.64862e-23
3.10503e-24
-1.26668e-23
5.85936e-24
-1.21778e-23
3.34981e-24
-3.49267e-23
2.04365e-24
-4.09374e-23
3.00665e-24
-1.82013e-23
3.4601e-24
-1.06399e-23
2.25335e-24
-1.15075e-23
-2.40888e-27
-3.00428e-23
-2.39725e-24
-1.0467e-23
-3.2819e-24
-1.38968e-23
-5.60805e-24
-3.16714e-23
-5.79587e-24
-2.33709e-23
-5.98804e-24
-1.6013e-23
-6.05145e-24
6.31343e-24
-6.13336e-24
2.60085e-23
-5.60923e-24
9.40185e-24
-4.91615e-24
1.82593e-23
-4.83609e-24
-1.10397e-23
-2.60089e-24
2.37857e-23
-7.19716e-25
1.35603e-23
-4.33137e-25
2.52589e-23
-1.01862e-24
1.93247e-23
9.57335e-25
2.16748e-23
3.30293e-24
6.49031e-23
4.12705e-24
4.13392e-23
4.2706e-24
9.53591e-24
3.66661e-24
-2.75075e-23
2.61387e-24
2.88086e-23
5.9009e-24
2.17465e-23
3.98568e-24
1.49581e-24
1.65284e-24
-3.01012e-23
7.58332e-25
-1.3404e-23
-2.3447e-23
6.16233e-25
-2.60324e-23
-3.80034e-25
1.00597e-24
-2.86164e-23
8.6393e-25
1.23444e-24
-4.4237e-25
-1.84517e-23
6.55294e-25
1.18345e-23
3.8568e-24
1.49395e-23
4.4748e-24
1.5017e-23
5.69945e-24
3.03347e-23
6.06351e-24
-4.50035e-25
4.16023e-24
6.88197e-24
2.06575e-24
-1.11946e-23
3.89152e-24
4.11214e-23
2.94241e-24
-8.77035e-24
5.7008e-24
-5.58485e-24
3.21222e-24
-4.18929e-23
1.95585e-24
-3.85795e-23
2.91261e-24
-1.72385e-23
3.34803e-24
-1.0632e-23
2.12477e-24
-1.40488e-23
2.19763e-26
-2.49118e-23
-2.40049e-24
-1.95181e-23
-3.21764e-24
-4.24371e-24
-5.49453e-24
-2.79215e-23
-5.58432e-24
-2.18662e-23
-5.78755e-24
-1.71987e-23
-5.79723e-24
4.04554e-24
-5.91442e-24
2.39887e-23
-5.38758e-24
4.39712e-24
-4.71929e-24
1.74268e-23
-4.58121e-24
-5.21577e-24
-2.43661e-24
2.14767e-23
-5.98549e-25
1.71515e-23
-3.35135e-25
2.54916e-23
-8.62185e-25
1.66986e-23
1.04152e-24
2.6357e-23
3.30133e-24
6.08099e-23
4.04171e-24
4.04068e-23
4.20113e-24
1.13846e-23
3.71634e-24
-3.07369e-23
2.64166e-24
1.06423e-23
5.79425e-24
1.92423e-23
3.91237e-24
4.10294e-24
1.66854e-24
-2.68082e-23
9.34281e-25
-5.01147e-24
5.55083e-25
-2.89737e-23
-3.36591e-25
1.03303e-24
-1.76612e-23
8.34367e-25
1.65693e-24
-5.03503e-25
-2.76489e-23
6.18328e-25
1.62621e-23
3.64072e-24
1.82586e-23
4.29874e-24
1.38225e-23
5.37989e-24
2.55749e-23
5.743e-24
-3.14709e-25
3.97873e-24
1.96098e-24
1.9408e-24
-1.05687e-23
3.66606e-24
3.95276e-23
2.81078e-24
2.06059e-24
5.51054e-24
-8.95698e-24
3.09328e-24
-3.92151e-23
1.89161e-24
-4.22834e-23
2.794e-24
-3.29054e-23
3.21458e-24
-1.55997e-24
2.0364e-24
-8.19356e-24
-2.12661e-26
-3.16842e-23
-2.32792e-24
-2.57862e-23
-3.19226e-24
-4.18067e-24
-5.36104e-24
-3.42848e-23
-5.38103e-24
-1.99189e-23
-5.59299e-24
-1.26933e-23
-5.53707e-24
4.62615e-24
-5.70636e-24
1.92636e-23
-5.15523e-24
3.45859e-24
-4.51039e-24
1.63722e-23
-4.36358e-24
-6.604e-24
-2.25316e-24
1.91266e-23
-4.53008e-25
1.58299e-23
-2.49238e-25
2.22667e-23
-6.81549e-25
2.38321e-23
1.10381e-24
4.05802e-23
3.27022e-24
6.21967e-23
3.98102e-24
4.39251e-23
4.14775e-24
6.28972e-24
3.72208e-24
-1.63775e-23
2.72158e-24
1.16574e-23
5.70078e-24
2.56402e-23
3.89194e-24
-3.00674e-24
1.71599e-24
-3.34491e-23
-3.2813e-24
5.29282e-25
-1.92151e-23
-2.34942e-25
9.51249e-25
-1.95492e-23
7.41374e-25
-9.08002e-24
-5.41376e-25
-2.40482e-23
5.07391e-25
1.96737e-23
3.44472e-24
1.21496e-23
4.02748e-24
1.26767e-23
5.11099e-24
1.28882e-23
5.47173e-24
-6.35146e-25
3.8186e-24
-4.26196e-24
1.81464e-24
-1.21186e-23
3.48414e-24
4.17542e-23
2.64818e-24
-8.72291e-24
5.2866e-24
-1.25604e-23
2.98034e-24
-3.12348e-23
1.77134e-24
-4.19577e-23
2.75965e-24
-3.3733e-23
3.08337e-24
8.08465e-24
1.90609e-24
-6.65378e-24
-4.61505e-26
-2.45088e-23
-2.23994e-24
-2.18789e-23
-3.18314e-24
-1.30386e-23
-5.20442e-24
-2.2569e-23
-5.17372e-24
-1.85402e-23
-5.39791e-24
-1.2078e-23
-5.28971e-24
1.18345e-23
-5.48638e-24
1.73602e-23
-4.92289e-24
5.08462e-24
-4.29011e-24
1.61934e-23
-4.14453e-24
-5.36174e-24
-2.09677e-24
1.2647e-23
-2.98842e-25
1.87241e-23
-1.81729e-25
1.30659e-23
-5.11743e-25
2.61313e-23
1.15468e-24
3.19818e-23
3.26993e-24
5.88522e-23
3.89897e-24
4.46534e-23
4.10899e-24
-4.7701e-24
3.72506e-24
-1.6617e-23
2.73295e-24
2.04576e-23
5.59322e-24
1.14913e-23
3.81619e-24
-6.43838e-24
1.82389e-24
-2.3828e-23
-8.62247e-24
4.12085e-25
-1.81664e-23
-1.59444e-25
9.06325e-25
-1.06866e-23
6.83105e-25
-1.58765e-23
-5.93483e-25
-1.59537e-23
4.40687e-25
3.07303e-23
3.27866e-24
1.05254e-23
3.74988e-24
1.18372e-23
4.83236e-24
1.14811e-23
5.19413e-24
-5.56292e-24
3.62002e-24
7.02499e-24
1.7525e-24
1.34906e-24
3.27343e-24
2.38598e-23
2.52348e-24
-1.14621e-23
5.0994e-24
-1.53155e-23
2.87148e-24
-2.87445e-23
1.63925e-24
-4.18385e-23
2.72776e-24
-2.88618e-23
2.91141e-24
8.44288e-24
1.76881e-24
-5.84568e-24
-5.73108e-26
-1.55847e-23
-2.20709e-24
-1.8466e-23
-3.11968e-24
-1.30901e-23
-5.06603e-24
-2.04726e-23
-4.96935e-24
-1.78698e-23
-5.18252e-24
-9.30286e-24
-5.07019e-24
7.76477e-24
-5.24889e-24
1.61659e-23
-4.68217e-24
3.99936e-24
-4.08462e-24
1.61601e-23
-3.91173e-24
-1.46472e-24
-1.91826e-24
5.58313e-24
-1.73325e-25
2.09846e-23
-5.80574e-26
1.19556e-23
-3.88702e-25
1.6075e-23
1.2427e-24
2.42845e-23
3.21536e-24
5.83176e-23
3.78536e-24
4.45483e-23
4.09661e-24
-3.49165e-24
3.73486e-24
-6.78262e-24
2.69269e-24
2.2254e-23
5.50865e-24
7.72457e-24
3.77309e-24
-8.20688e-24
1.86228e-24
-2.20284e-23
-9.42443e-24
3.37831e-25
-1.31834e-23
-8.61632e-26
8.22626e-25
-1.91027e-24
6.07744e-25
-1.04606e-23
-5.7753e-25
-2.80919e-23