/*--------------------------------*- C++ -*----------------------------------*\
  =========                 |
  \\      /  F ield         | OpenFOAM: The Open Source CFD Toolbox
   \\    /   O peration     | Website:  https://openfoam.org
    \\  /    A nd           | Version:  7
     \\/     M anipulation  |
\*---------------------------------------------------------------------------*/
FoamFile
{
    version     2.0;
    format      ascii;
    class       volScalarField;
    location    "52000";
    object      strainRate;
}
// * * * * * * * * * * * * * * * * * * * * * * * * * * * * * * * * * * * * * //

dimensions      [0 0 -1 0 0 0 0];

internalField   nonuniform List<scalar> 
4814
(
0.098461
0.0981606
0.097888
0.0976437
0.107007
0.106427
0.105879
0.105343
0.104821
0.104314
0.103823
0.103349
0.102895
0.10246
0.102047
0.101656
0.101288
0.100945
0.100627
0.100335
0.10007
0.0998326
0.0996235
0.0994431
0.0992921
0.0991708
0.0990795
0.0990186
0.098988
0.0989881
0.0990186
0.0990796
0.0991709
0.0992923
0.0994433
0.0996237
0.0998328
0.10007
0.108964
0.1084
0.107867
0.107346
0.106839
0.106346
0.105869
0.105409
0.104967
0.104545
0.104143
0.103763
0.103406
0.103073
0.102763
0.10248
0.102222
0.101992
0.101788
0.101613
0.101466
0.101349
0.10126
0.101201
0.101171
0.101171
0.101201
0.10126
0.101349
0.101467
0.101613
0.101789
0.101992
0.102223
0.10248
0.102764
0.103073
0.103406
0.103763
0.104143
0.104544
0.110895
0.110346
0.109828
0.109322
0.108829
0.108351
0.107887
0.10744
0.107011
0.106601
0.106211
0.105842
0.105495
0.105171
0.104871
0.104595
0.104345
0.104121
0.103924
0.103754
0.103611
0.103497
0.103411
0.103353
0.103324
0.103324
0.103353
0.103411
0.103497
0.103611
0.103754
0.103924
0.104121
0.104345
0.104596
0.104871
0.105171
0.105495
0.105842
0.106211
0.106601
0.107011
0.107439
0.107886
0.112799
0.112266
0.111763
0.111272
0.110793
0.110328
0.109878
0.109444
0.109028
0.108629
0.108251
0.107892
0.107556
0.107241
0.10695
0.106682
0.106439
0.106222
0.10603
0.105865
0.105727
0.105615
0.105532
0.105476
0.105448
0.105448
0.105476
0.105532
0.105616
0.105727
0.105865
0.10603
0.106222
0.106439
0.106682
0.10695
0.107241
0.107555
0.107892
0.10825
0.108629
0.109027
0.109443
0.109877
0.114678
0.11416
0.113672
0.113195
0.11273
0.112279
0.111842
0.111421
0.111017
0.11063
0.110263
0.109915
0.109588
0.109283
0.109
0.10874
0.108505
0.108294
0.108108
0.107947
0.107813
0.107705
0.107624
0.10757
0.107543
0.107543
0.10757
0.107624
0.107705
0.107813
0.107948
0.108108
0.108294
0.108505
0.108741
0.109
0.109283
0.109588
0.109915
0.110262
0.11063
0.111016
0.11142
0.111841
0.116531
0.116028
0.115554
0.115091
0.114641
0.114203
0.113779
0.113371
0.112979
0.112604
0.112247
0.11191
0.111593
0.111297
0.111022
0.110771
0.110542
0.110337
0.110157
0.110002
0.109871
0.109767
0.109688
0.109636
0.109609
0.109609
0.109636
0.109688
0.109767
0.109872
0.110002
0.110157
0.110338
0.110542
0.110771
0.111023
0.111297
0.111593
0.11191
0.112247
0.112603
0.112978
0.11337
0.113778
0.118359
0.117871
0.117411
0.116962
0.116525
0.116101
0.11569
0.115294
0.114914
0.11455
0.114205
0.113878
0.11357
0.113283
0.113017
0.112773
0.112552
0.112353
0.112179
0.112028
0.111902
0.1118
0.111724
0.111673
0.111647
0.111647
0.111673
0.111724
0.1118
0.111902
0.112028
0.112179
0.112354
0.112552
0.112774
0.113018
0.113283
0.11357
0.113878
0.114204
0.11455
0.114913
0.115293
0.115689
0.1161
0.120162
0.119689
0.119243
0.118808
0.118385
0.117973
0.117575
0.117191
0.116823
0.116471
0.116136
0.115819
0.115521
0.115243
0.114985
0.114749
0.114534
0.114342
0.114173
0.114026
0.113904
0.113806
0.113732
0.113683
0.113658
0.113658
0.113683
0.113732
0.113806
0.113904
0.114027
0.114173
0.114342
0.114534
0.114749
0.114985
0.115243
0.115521
0.115819
0.116135
0.11647
0.116822
0.11719
0.117574
0.117972
0.121941
0.121482
0.121051
0.120629
0.120219
0.11982
0.119435
0.119063
0.118706
0.118365
0.118041
0.117734
0.117445
0.117176
0.116927
0.116698
0.11649
0.116303
0.116139
0.115998
0.11588
0.115784
0.115713
0.115665
0.115641
0.115641
0.115665
0.115713
0.115785
0.11588
0.115998
0.11614
0.116304
0.11649
0.116698
0.116927
0.117176
0.117445
0.117734
0.11804
0.118364
0.118705
0.119062
0.119433
0.119819
0.123696
0.123251
0.122833
0.122425
0.122028
0.121642
0.121269
0.120909
0.120564
0.120234
0.11992
0.119623
0.119344
0.119083
0.118841
0.11862
0.118419
0.118238
0.11808
0.117943
0.117828
0.117736
0.117667
0.117621
0.117597
0.117597
0.117621
0.117667
0.117736
0.117828
0.117943
0.11808
0.118239
0.118419
0.11862
0.118841
0.119083
0.119343
0.119622
0.119919
0.120233
0.120563
0.120908
0.121268
0.121641
0.125427
0.124996
0.124592
0.124197
0.123812
0.123439
0.123078
0.12273
0.122396
0.122077
0.121773
0.121486
0.121216
0.120964
0.12073
0.120516
0.120321
0.120147
0.119993
0.119861
0.11975
0.119661
0.119594
0.119549
0.119527
0.119527
0.119549
0.119594
0.119661
0.11975
0.119861
0.119994
0.120147
0.120321
0.120516
0.12073
0.120964
0.121216
0.121486
0.121773
0.122076
0.122395
0.122729
0.123077
0.127134
0.126718
0.126327
0.125945
0.125573
0.125212
0.124863
0.124527
0.124204
0.123895
0.123602
0.123324
0.123063
0.122819
0.122593
0.122386
0.122198
0.12203
0.121881
0.121753
0.121646
0.12156
0.121495
0.121452
0.121431
0.121431
0.121452
0.121496
0.12156
0.121646
0.121754
0.121881
0.12203
0.122198
0.122386
0.122594
0.122819
0.123063
0.123324
0.123601
0.123895
0.124203
0.124526
0.124862
0.128819
0.128416
0.128038
0.127669
0.12731
0.126961
0.126624
0.126299
0.125987
0.125689
0.125405
0.125137
0.124885
0.12465
0.124431
0.124231
0.12405
0.123887
0.123744
0.12362
0.123516
0.123433
0.123371
0.123329
0.123308
0.123308
0.123329
0.123371
0.123433
0.123517
0.12362
0.123744
0.123887
0.12405
0.124231
0.124432
0.124649
0.124885
0.125137
0.125405
0.125688
0.125986
0.126298
0.126623
0.13048
0.130091
0.129726
0.12937
0.129023
0.128687
0.128361
0.128047
0.127746
0.127458
0.127185
0.126926
0.126682
0.126455
0.126245
0.126051
0.125876
0.125719
0.125581
0.125461
0.125361
0.125281
0.125221
0.125181
0.12516
0.12516
0.125181
0.125221
0.125281
0.125362
0.125461
0.125581
0.125719
0.125876
0.126051
0.126245
0.126455
0.126682
0.126925
0.127184
0.127458
0.127745
0.128046
0.12836
0.13212
0.131744
0.131392
0.131048
0.130713
0.130389
0.130075
0.129772
0.129481
0.129204
0.12894
0.12869
0.128455
0.128236
0.128033
0.127847
0.127678
0.127526
0.127393
0.127278
0.127181
0.127104
0.127046
0.127007
0.126987
0.126987
0.127007
0.127046
0.127104
0.127181
0.127278
0.127393
0.127526
0.127678
0.127847
0.128033
0.128236
0.128455
0.12869
0.128939
0.129203
0.12948
0.129771
0.130073
0.133737
0.133374
0.133035
0.132703
0.132381
0.132068
0.131765
0.131473
0.131193
0.130926
0.130671
0.13043
0.130204
0.129993
0.129797
0.129618
0.129455
0.129309
0.12918
0.129069
0.128977
0.128902
0.128846
0.128808
0.12879
0.12879
0.128808
0.128846
0.128902
0.128977
0.12907
0.12918
0.129309
0.129455
0.129618
0.129797
0.129993
0.130204
0.13043
0.130671
0.130925
0.131192
0.131472
0.131764
0.135332
0.134983
0.134655
0.134336
0.134025
0.133724
0.133432
0.133151
0.132882
0.132624
0.132379
0.132147
0.13193
0.131726
0.131538
0.131365
0.131208
0.131067
0.130944
0.130837
0.130747
0.130676
0.130622
0.130586
0.130568
0.130568
0.130586
0.130622
0.130676
0.130748
0.130837
0.130944
0.131068
0.131208
0.131365
0.131538
0.131726
0.131929
0.132147
0.132379
0.132623
0.132881
0.13315
0.133431
0.136906
0.136569
0.136254
0.135947
0.135648
0.135358
0.135077
0.134807
0.134548
0.1343
0.134064
0.133841
0.133632
0.133436
0.133255
0.133088
0.132937
0.132802
0.132683
0.13258
0.132494
0.132425
0.132373
0.132339
0.132321
0.132321
0.132339
0.132374
0.132426
0.132495
0.132581
0.132683
0.132802
0.132938
0.133088
0.133255
0.133436
0.133631
0.133841
0.134064
0.134299
0.134547
0.134806
0.135076
0.138458
0.138135
0.137832
0.137536
0.137249
0.13697
0.1367
0.13644
0.136191
0.135953
0.135726
0.135512
0.135311
0.135123
0.134948
0.134789
0.134643
0.134514
0.134399
0.1343
0.134218
0.134151
0.134101
0.134068
0.134051
0.134051
0.134068
0.134102
0.134151
0.134218
0.134301
0.134399
0.134514
0.134644
0.134789
0.134948
0.135122
0.13531
0.135512
0.135726
0.135952
0.13619
0.136439
0.136699
0.13999
0.139679
0.139388
0.139104
0.138828
0.13856
0.138301
0.138052
0.137812
0.137583
0.137366
0.13716
0.136967
0.136786
0.136619
0.136466
0.136326
0.136202
0.136092
0.135997
0.135918
0.135854
0.135806
0.135774
0.135758
0.135758
0.135774
0.135806
0.135854
0.135918
0.135997
0.136092
0.136202
0.136327
0.136466
0.136619
0.136786
0.136967
0.13716
0.137365
0.137583
0.137811
0.13805
0.1383
0.141501
0.141202
0.140923
0.140651
0.140386
0.140129
0.13988
0.139641
0.139412
0.139192
0.138984
0.138786
0.138601
0.138428
0.138267
0.13812
0.137987
0.137867
0.137762
0.137671
0.137595
0.137534
0.137488
0.137457
0.137442
0.137442
0.137457
0.137488
0.137534
0.137595
0.137671
0.137762
0.137867
0.137987
0.13812
0.138267
0.138428
0.138601
0.138786
0.138983
0.139191
0.139411
0.13964
0.139879
0.140127
0.142992
0.142705
0.142437
0.142176
0.141923
0.141676
0.141438
0.141209
0.140989
0.140779
0.140579
0.14039
0.140213
0.140047
0.139893
0.139752
0.139624
0.13951
0.139409
0.139322
0.139249
0.139191
0.139147
0.139117
0.139102
0.139102
0.139117
0.139147
0.139191
0.139249
0.139322
0.139409
0.13951
0.139625
0.139752
0.139893
0.140047
0.140212
0.14039
0.140579
0.140778
0.140988
0.141208
0.141437
0.141675
0.144462
0.144188
0.143931
0.143682
0.143439
0.143203
0.142975
0.142756
0.142546
0.142345
0.142153
0.141973
0.141803
0.141644
0.141497
0.141362
0.14124
0.14113
0.141034
0.140951
0.140881
0.140825
0.140783
0.140755
0.140741
0.140741
0.140755
0.140783
0.140825
0.140881
0.140951
0.141034
0.141131
0.14124
0.141363
0.141497
0.141644
0.141803
0.141972
0.142153
0.142344
0.142545
0.142755
0.142974
0.143202
0.145913
0.14565
0.145405
0.145167
0.144934
0.144709
0.144492
0.144282
0.144081
0.143889
0.143706
0.143534
0.143371
0.14322
0.14308
0.142951
0.142834
0.142729
0.142637
0.142557
0.142491
0.142437
0.142397
0.14237
0.142357
0.142357
0.14237
0.142397
0.142438
0.142491
0.142558
0.142637
0.142729
0.142834
0.142951
0.14308
0.14322
0.143371
0.143533
0.143706
0.143888
0.14408
0.144281
0.14449
0.144708
0.147344
0.147093
0.146859
0.146632
0.14641
0.146195
0.145988
0.145788
0.145596
0.145413
0.145238
0.145074
0.144919
0.144774
0.144641
0.144518
0.144406
0.144306
0.144218
0.144143
0.144079
0.144028
0.14399
0.143964
0.143951
0.143951
0.143964
0.14399
0.144028
0.144079
0.144143
0.144219
0.144307
0.144406
0.144518
0.144641
0.144774
0.144919
0.145073
0.145238
0.145412
0.145595
0.145786
0.145986
0.148756
0.148517
0.148294
0.148077
0.147866
0.147661
0.147463
0.147273
0.14709
0.146916
0.14675
0.146593
0.146446
0.146308
0.14618
0.146063
0.145957
0.145862
0.145778
0.145706
0.145646
0.145597
0.145561
0.145536
0.145524
0.145524
0.145536
0.145561
0.145597
0.145646
0.145706
0.145779
0.145862
0.145957
0.146064
0.14618
0.146308
0.146445
0.146593
0.146749
0.146915
0.147089
0.147272
0.147462
0.150149
0.149922
0.149709
0.149503
0.149302
0.149107
0.148919
0.148738
0.148565
0.148399
0.148241
0.148092
0.147952
0.147821
0.1477
0.147588
0.147488
0.147397
0.147318
0.147249
0.147191
0.147145
0.147111
0.147087
0.147076
0.147076
0.147087
0.147111
0.147145
0.147192
0.147249
0.147318
0.147397
0.147488
0.147589
0.1477
0.147821
0.147951
0.148091
0.14824
0.148398
0.148564
0.148737
0.148918
0.151524
0.151307
0.151106
0.15091
0.150719
0.150534
0.150356
0.150184
0.150019
0.149862
0.149712
0.14957
0.149437
0.149313
0.149198
0.149093
0.148997
0.148911
0.148836
0.148771
0.148716
0.148672
0.148639
0.148617
0.148606
0.148606
0.148617
0.148639
0.148672
0.148716
0.148771
0.148836
0.148911
0.148997
0.149093
0.149198
0.149313
0.149437
0.14957
0.149711
0.149861
0.150018
0.150183
0.150354
0.152879
0.152674
0.152483
0.152297
0.152117
0.151942
0.151773
0.15161
0.151454
0.151305
0.151163
0.151029
0.150903
0.150786
0.150677
0.150577
0.150486
0.150405
0.150334
0.150272
0.15022
0.150179
0.150148
0.150127
0.150116
0.150116
0.150127
0.150148
0.150179
0.15022
0.150272
0.150334
0.150405
0.150486
0.150577
0.150677
0.150786
0.150903
0.151029
0.151163
0.151304
0.151453
0.151609
0.151771
0.154217
0.154023
0.153842
0.153667
0.153496
0.15333
0.153171
0.153017
0.152869
0.152729
0.152595
0.152468
0.152349
0.152238
0.152135
0.152041
0.151955
0.151879
0.151811
0.151753
0.151704
0.151665
0.151636
0.151616
0.151606
0.151606
0.151616
0.151636
0.151665
0.151704
0.151753
0.151811
0.151879
0.151956
0.152041
0.152135
0.152238
0.152349
0.152468
0.152594
0.152728
0.152868
0.153016
0.153169
0.155537
0.155353
0.155183
0.155017
0.154856
0.1547
0.15455
0.154405
0.154266
0.154133
0.154007
0.153888
0.153776
0.153671
0.153574
0.153485
0.153405
0.153333
0.153269
0.153214
0.153168
0.153131
0.153103
0.153085
0.153076
0.153076
0.153085
0.153104
0.153131
0.153168
0.153214
0.153269
0.153333
0.153405
0.153485
0.153574
0.153671
0.153776
0.153887
0.154007
0.154132
0.154265
0.154404
0.154548
0.156839
0.156666
0.156506
0.15635
0.156199
0.156052
0.155911
0.155774
0.155644
0.155519
0.155401
0.155288
0.155183
0.155085
0.154994
0.15491
0.154835
0.154767
0.154707
0.154655
0.154612
0.154578
0.154552
0.154534
0.154525
0.154525
0.154534
0.154552
0.154578
0.154612
0.154656
0.154707
0.154767
0.154835
0.15491
0.154994
0.155085
0.155183
0.155288
0.1554
0.155518
0.155643
0.155773
0.155909
0.158123
0.157961
0.157811
0.157665
0.157523
0.157386
0.157253
0.157125
0.157003
0.156886
0.156775
0.15667
0.156572
0.15648
0.156394
0.156316
0.156245
0.156182
0.156126
0.156077
0.156037
0.156005
0.15598
0.155964
0.155956
0.155956
0.155964
0.15598
0.156005
0.156037
0.156078
0.156126
0.156182
0.156245
0.156316
0.156394
0.15648
0.156571
0.15667
0.156775
0.156885
0.157002
0.157124
0.157251
0.157383
0.15939
0.159239
0.159099
0.158962
0.15883
0.158701
0.158577
0.158458
0.158344
0.158235
0.158131
0.158033
0.157941
0.157856
0.157776
0.157703
0.157637
0.157578
0.157525
0.15748
0.157443
0.157412
0.15739
0.157374
0.157367
0.157367
0.157374
0.15739
0.157412
0.157443
0.15748
0.157525
0.157578
0.157637
0.157703
0.157776
0.157856
0.157941
0.158033
0.158131
0.158234
0.158343
0.158457
0.158576
0.158699
0.160641
0.1605
0.160369
0.160242
0.160119
0.159999
0.159884
0.159773
0.159667
0.159566
0.159469
0.159378
0.159293
0.159213
0.159139
0.159071
0.15901
0.158955
0.158906
0.158864
0.158829
0.158801
0.15878
0.158766
0.158759
0.158759
0.158766
0.15878
0.158801
0.158829
0.158864
0.158906
0.158955
0.15901
0.159071
0.159139
0.159213
0.159293
0.159378
0.159469
0.159565
0.159666
0.159772
0.159882
0.159997
0.161874
0.161744
0.161623
0.161505
0.161391
0.16128
0.161173
0.161071
0.160972
0.160879
0.16079
0.160705
0.160626
0.160552
0.160484
0.160421
0.160364
0.160313
0.160268
0.16023
0.160197
0.160171
0.160152
0.160139
0.160132
0.160132
0.160139
0.160152
0.160171
0.160197
0.16023
0.160269
0.160313
0.160364
0.160421
0.160484
0.160552
0.160626
0.160705
0.160789
0.160878
0.160971
0.161069
0.161172
0.161277
0.161388
0.163092
0.162971
0.162859
0.162751
0.162645
0.162543
0.162445
0.162351
0.16226
0.162174
0.162092
0.162014
0.161942
0.161874
0.161811
0.161753
0.161701
0.161654
0.161612
0.161577
0.161547
0.161523
0.161505
0.161493
0.161487
0.161487
0.161493
0.161505
0.161523
0.161547
0.161577
0.161613
0.161654
0.161701
0.161753
0.161811
0.161874
0.161941
0.162014
0.162091
0.162173
0.162259
0.162349
0.162443
0.162541
0.162643
0.164292
0.164182
0.16408
0.16398
0.163883
0.16379
0.1637
0.163614
0.163531
0.163452
0.163377
0.163306
0.163239
0.163177
0.16312
0.163067
0.163019
0.162976
0.162938
0.162906
0.162879
0.162857
0.16284
0.162829
0.162824
0.162824
0.162829
0.16284
0.162857
0.162879
0.162906
0.162939
0.162976
0.163019
0.163067
0.16312
0.163177
0.163239
0.163306
0.163376
0.163451
0.16353
0.163612
0.163698
0.163787
0.163881
0.163977
0.165477
0.165377
0.165283
0.165193
0.165105
0.16502
0.164938
0.16486
0.164785
0.164713
0.164645
0.16458
0.16452
0.164463
0.164411
0.164363
0.16432
0.164281
0.164247
0.164217
0.164192
0.164172
0.164157
0.164147
0.164142
0.164142
0.164147
0.164157
0.164172
0.164192
0.164217
0.164247
0.164281
0.16432
0.164363
0.164411
0.164463
0.16452
0.16458
0.164644
0.164712
0.164784
0.164858
0.164936
0.165017
0.165102
0.16519
0.166646
0.166556
0.166471
0.166389
0.16631
0.166234
0.16616
0.166089
0.166021
0.165957
0.165895
0.165837
0.165783
0.165732
0.165685
0.165642
0.165603
0.165568
0.165537
0.165511
0.165488
0.16547
0.165457
0.165448
0.165443
0.165444
0.165448
0.165457
0.16547
0.165488
0.165511
0.165537
0.165568
0.165603
0.165642
0.165685
0.165732
0.165783
0.165837
0.165895
0.165956
0.16602
0.166088
0.166158
0.166231
0.166307
0.166387
0.1678
0.167719
0.167643
0.16757
0.167499
0.167431
0.167365
0.167302
0.167242
0.167184
0.167129
0.167078
0.167029
0.166984
0.166942
0.166904
0.166869
0.166838
0.16681
0.166787
0.166767
0.166751
0.166739
0.166731
0.166727
0.166727
0.166731
0.166739
0.166751
0.166767
0.166787
0.166811
0.166838
0.166869
0.166904
0.166942
0.166984
0.167029
0.167078
0.167129
0.167183
0.167241
0.167301
0.167363
0.167428
0.167496
0.167567
0.168938
0.168866
0.1688
0.168735
0.168672
0.168612
0.168554
0.168499
0.168446
0.168395
0.168347
0.168302
0.168259
0.168219
0.168183
0.168149
0.168118
0.168091
0.168067
0.168046
0.168029
0.168015
0.168004
0.167997
0.167994
0.167994
0.167997
0.168004
0.168015
0.168029
0.168046
0.168067
0.168091
0.168118
0.168149
0.168183
0.168219
0.168259
0.168301
0.168347
0.168394
0.168445
0.168497
0.168553
0.16861
0.16867
0.168732
0.17006
0.169999
0.169941
0.169884
0.16983
0.169778
0.169728
0.16968
0.169634
0.16959
0.169548
0.169509
0.169472
0.169438
0.169406
0.169377
0.169351
0.169327
0.169306
0.169288
0.169273
0.169261
0.169252
0.169246
0.169243
0.169243
0.169246
0.169252
0.169261
0.169273
0.169288
0.169306
0.169327
0.169351
0.169377
0.169406
0.169438
0.169472
0.169509
0.169548
0.169589
0.169633
0.169678
0.169726
0.169775
0.169827
0.169882
0.169938
0.171168
0.171116
0.171066
0.171019
0.170972
0.170928
0.170885
0.170845
0.170806
0.170769
0.170734
0.1707
0.170669
0.17064
0.170614
0.170589
0.170567
0.170547
0.170529
0.170514
0.170501
0.170491
0.170483
0.170478
0.170476
0.170476
0.170478
0.170483
0.170491
0.170501
0.170514
0.170529
0.170547
0.170567
0.170589
0.170614
0.17064
0.170669
0.1707
0.170733
0.170768
0.170805
0.170843
0.170884
0.170925
0.17097
0.171016
0.171064
0.172262
0.172219
0.172177
0.172138
0.172099
0.172063
0.172028
0.171994
0.171962
0.171932
0.171903
0.171876
0.17185
0.171827
0.171805
0.171785
0.171766
0.17175
0.171736
0.171723
0.171713
0.171704
0.171698
0.171694
0.171692
0.171692
0.171694
0.171698
0.171705
0.171713
0.171723
0.171736
0.17175
0.171766
0.171785
0.171805
0.171827
0.17185
0.171876
0.171903
0.171931
0.171961
0.171993
0.172026
0.17206
0.172097
0.172135
0.172175
0.17334
0.173306
0.173273
0.173242
0.173211
0.173182
0.173155
0.173128
0.173103
0.17308
0.173057
0.173036
0.173016
0.172997
0.17298
0.172964
0.17295
0.172937
0.172926
0.172916
0.172908
0.172902
0.172897
0.172894
0.172892
0.172892
0.172894
0.172897
0.172902
0.172908
0.172916
0.172926
0.172937
0.17295
0.172964
0.17298
0.172997
0.173016
0.173035
0.173056
0.173079
0.173102
0.173127
0.173153
0.17318
0.173209
0.173239
0.173271
0.174405
0.17438
0.174355
0.174331
0.174309
0.174287
0.174267
0.174248
0.174229
0.174212
0.174196
0.17418
0.174166
0.174152
0.17414
0.174128
0.174118
0.174109
0.174101
0.174094
0.174088
0.174083
0.174079
0.174077
0.174076
0.174076
0.174077
0.17408
0.174083
0.174088
0.174094
0.174101
0.174109
0.174118
0.174128
0.17414
0.174152
0.174165
0.17418
0.174195
0.174211
0.174228
0.174246
0.174265
0.174285
0.174306
0.174328
0.174352
0.175455
0.175439
0.175422
0.175406
0.175391
0.175377
0.175364
0.175352
0.17534
0.175329
0.175319
0.175309
0.1753
0.175292
0.175284
0.175277
0.17527
0.175265
0.175259
0.175255
0.175251
0.175249
0.175246
0.175245
0.175244
0.175244
0.175245
0.175246
0.175249
0.175252
0.175255
0.17526
0.175265
0.17527
0.175277
0.175284
0.175292
0.1753
0.175309
0.175318
0.175329
0.175339
0.175351
0.175362
0.175375
0.175389
0.175403
0.175419
0.176491
0.176484
0.176475
0.176467
0.17646
0.176453
0.176447
0.176442
0.176437
0.176432
0.176427
0.176423
0.17642
0.176416
0.176413
0.17641
0.176407
0.176405
0.176403
0.176401
0.1764
0.176399
0.176398
0.176397
0.176397
0.176397
0.176397
0.176398
0.176399
0.1764
0.176401
0.176403
0.176405
0.176407
0.17641
0.176413
0.176416
0.176419
0.176423
0.176427
0.176431
0.176436
0.17644
0.176445
0.176451
0.176457
0.176464
0.176473
0.177514
0.177516
0.177515
0.177514
0.177514
0.177515
0.177516
0.177517
0.177519
0.17752
0.177522
0.177523
0.177525
0.177526
0.177527
0.177529
0.17753
0.177531
0.177532
0.177533
0.177533
0.177534
0.177534
0.177535
0.177535
0.177535
0.177535
0.177534
0.177534
0.177533
0.177533
0.177532
0.177531
0.17753
0.177529
0.177527
0.177526
0.177524
0.177523
0.177521
0.177519
0.177518
0.177516
0.177514
0.177512
0.177512
0.177511
0.177512
0.107007
0.108964
0.110895
0.112799
0.114678
0.116531
0.118359
0.120162
0.121941
0.123696
0.125427
0.127134
0.128819
0.13048
0.13212
0.133737
0.135332
0.136906
0.138458
0.13999
0.141501
0.142992
0.144462
0.145913
0.147344
0.148756
0.150149
0.151523
0.152879
0.154217
0.155537
0.156839
0.158123
0.15939
0.160641
0.161874
0.163091
0.164292
0.165477
0.166646
0.1678
0.168938
0.17006
0.171168
0.172262
0.17334
0.174405
0.175455
0.176491
0.177514
0.106427
0.1084
0.110346
0.112266
0.11416
0.116028
0.117871
0.119689
0.121482
0.123251
0.124996
0.126718
0.128416
0.130091
0.131744
0.133374
0.134983
0.136569
0.138135
0.139679
0.141202
0.142705
0.144188
0.14565
0.147093
0.148517
0.149921
0.151307
0.152674
0.154023
0.155353
0.156666
0.157961
0.159239
0.1605
0.161744
0.162971
0.164182
0.165377
0.166556
0.167719
0.168866
0.169999
0.171116
0.172218
0.173306
0.17438
0.175439
0.176484
0.177516
0.105878
0.107867
0.109828
0.111763
0.113671
0.115554
0.117411
0.119243
0.12105
0.122833
0.124592
0.126326
0.128038
0.129726
0.131391
0.133034
0.134655
0.136254
0.137831
0.139388
0.140923
0.142437
0.143931
0.145405
0.146859
0.148294
0.149709
0.151105
0.152483
0.153842
0.155183
0.156506
0.157811
0.159099
0.160369
0.161622
0.162859
0.164079
0.165283
0.166471
0.167643
0.168799
0.16994
0.171066
0.172177
0.173273
0.174355
0.175422
0.176475
0.177515
0.105343
0.107346
0.109322
0.111271
0.113194
0.115091
0.116962
0.118808
0.120629
0.122425
0.124197
0.125945
0.127669
0.12937
0.131048
0.132703
0.134336
0.135947
0.137536
0.139104
0.14065
0.142176
0.143681
0.145166
0.146631
0.148077
0.149503
0.150909
0.152297
0.153666
0.155017
0.15635
0.157665
0.158962
0.160242
0.161505
0.16275
0.16398
0.165192
0.166389
0.16757
0.168735
0.169884
0.171018
0.172137
0.173242
0.174331
0.175406
0.176467
0.177514
0.10482
0.106838
0.108829
0.110793
0.11273
0.11464
0.116525
0.118384
0.120218
0.122027
0.123812
0.125573
0.127309
0.129023
0.130713
0.13238
0.134025
0.135648
0.137248
0.138828
0.140385
0.141922
0.143438
0.144934
0.14641
0.147866
0.149302
0.150719
0.152116
0.153495
0.154856
0.156198
0.157523
0.158829
0.160118
0.16139
0.162645
0.163883
0.165105
0.16631
0.167499
0.168672
0.16983
0.170972
0.172099
0.173211
0.174308
0.175391
0.17646
0.177514
0.104313
0.106345
0.10835
0.110328
0.112278
0.114202
0.1161
0.117973
0.11982
0.121642
0.123439
0.125212
0.126961
0.128686
0.130388
0.132067
0.133724
0.135358
0.136969
0.13856
0.140128
0.141676
0.143203
0.144709
0.146195
0.147661
0.149107
0.150534
0.151941
0.15333
0.1547
0.156052
0.157385
0.158701
0.159999
0.16128
0.162543
0.16379
0.16502
0.166233
0.167431
0.168612
0.169778
0.170928
0.172062
0.173182
0.174287
0.175377
0.176453
0.177515
0.103822
0.105868
0.107887
0.109878
0.111841
0.113779
0.11569
0.117575
0.119434
0.121268
0.123078
0.124863
0.126624
0.128361
0.130074
0.131764
0.133432
0.135077
0.1367
0.138301
0.13988
0.141438
0.142975
0.144491
0.145987
0.147463
0.148919
0.150355
0.151772
0.15317
0.154549
0.15591
0.157253
0.158577
0.159884
0.161173
0.162445
0.1637
0.164938
0.166159
0.167365
0.168554
0.169727
0.170885
0.172027
0.173154
0.174267
0.175364
0.176447
0.177516
0.103349
0.105408
0.10744
0.109444
0.11142
0.11337
0.115294
0.117191
0.119062
0.120909
0.12273
0.124526
0.126298
0.128047
0.129771
0.131473
0.133151
0.134807
0.13644
0.138051
0.139641
0.141209
0.142756
0.144282
0.145787
0.147273
0.148738
0.150183
0.151609
0.153016
0.154404
0.155774
0.157125
0.158458
0.159773
0.16107
0.16235
0.163613
0.164859
0.166089
0.167302
0.168498
0.169679
0.170844
0.171994
0.173128
0.174247
0.175351
0.176441
0.177517
0.102894
0.104967
0.107011
0.109027
0.111016
0.112978
0.114913
0.116822
0.118705
0.120563
0.122396
0.124203
0.125986
0.127746
0.129481
0.131193
0.132881
0.134547
0.13619
0.137812
0.139411
0.140989
0.142545
0.144081
0.145595
0.14709
0.148564
0.150018
0.151453
0.152869
0.154265
0.155643
0.157002
0.158344
0.159667
0.160972
0.16226
0.16353
0.164784
0.166021
0.167241
0.168445
0.169633
0.170805
0.171962
0.173103
0.174229
0.17534
0.176436
0.177518
0.10246
0.104544
0.106601
0.108629
0.11063
0.112603
0.11455
0.11647
0.118364
0.120233
0.122076
0.123895
0.125688
0.127458
0.129203
0.130925
0.132624
0.134299
0.135952
0.137583
0.139192
0.140778
0.142344
0.143888
0.145412
0.146915
0.148398
0.149861
0.151304
0.152728
0.154133
0.155518
0.156886
0.158234
0.159565
0.160878
0.162173
0.163451
0.164712
0.165956
0.167184
0.168395
0.169589
0.170768
0.171931
0.173079
0.174211
0.175329
0.176431
0.17752
0.102046
0.104143
0.10621
0.10825
0.110262
0.112247
0.114204
0.116135
0.11804
0.119919
0.121773
0.123601
0.125405
0.127184
0.128939
0.130671
0.132379
0.134063
0.135726
0.137365
0.138983
0.140579
0.142153
0.143706
0.145238
0.146749
0.14824
0.149711
0.151162
0.152594
0.154006
0.1554
0.156775
0.158131
0.159469
0.160789
0.162091
0.163376
0.164644
0.165895
0.167129
0.168346
0.169548
0.170733
0.171902
0.173056
0.174195
0.175318
0.176427
0.177521
0.101655
0.103763
0.105841
0.107892
0.109914
0.111909
0.113877
0.115818
0.117733
0.119622
0.121485
0.123323
0.125136
0.126925
0.128689
0.13043
0.132147
0.13384
0.135511
0.13716
0.138786
0.14039
0.141972
0.143533
0.145073
0.146592
0.148091
0.14957
0.151028
0.152467
0.153887
0.155288
0.15667
0.158033
0.159378
0.160705
0.162014
0.163305
0.16458
0.165837
0.167077
0.168301
0.169509
0.1707
0.171875
0.173035
0.174179
0.175309
0.176423
0.177522
0.101288
0.103405
0.105494
0.107555
0.109587
0.111592
0.11357
0.11552
0.117445
0.119343
0.121215
0.123062
0.124884
0.126682
0.128455
0.130204
0.131929
0.133631
0.13531
0.136966
0.1386
0.140212
0.141802
0.143371
0.144918
0.146445
0.147951
0.149437
0.150902
0.152349
0.153775
0.155182
0.156571
0.157941
0.159292
0.160626
0.161941
0.163239
0.164519
0.165782
0.167029
0.168258
0.169472
0.170669
0.17185
0.173015
0.174165
0.175299
0.176419
0.177524
0.100944
0.103072
0.10517
0.10724
0.109282
0.111296
0.113283
0.115242
0.117175
0.119082
0.120963
0.122819
0.124649
0.126454
0.128235
0.129992
0.131725
0.133435
0.135122
0.136786
0.138427
0.140046
0.141643
0.143219
0.144774
0.146307
0.14782
0.149313
0.150785
0.152237
0.15367
0.155084
0.156479
0.157855
0.159212
0.160552
0.161873
0.163177
0.164463
0.165732
0.166983
0.168219
0.169437
0.17064
0.171826
0.172997
0.174151
0.175291
0.176415
0.177525
0.100626
0.102763
0.10487
0.106949
0.108999
0.111022
0.113017
0.114985
0.116926
0.118841
0.120729
0.122593
0.124431
0.126244
0.128032
0.129797
0.131537
0.133254
0.134948
0.136618
0.138267
0.139893
0.141497
0.143079
0.14464
0.14618
0.147699
0.149198
0.150676
0.152135
0.153574
0.154993
0.156394
0.157775
0.159138
0.160483
0.16181
0.163119
0.16441
0.165685
0.166942
0.168182
0.169406
0.170613
0.171804
0.172979
0.174139
0.175283
0.176412
0.177527
0.100334
0.102479
0.104595
0.106681
0.10874
0.11077
0.112773
0.114748
0.116697
0.118619
0.120515
0.122386
0.124231
0.126051
0.127846
0.129617
0.131364
0.133088
0.134788
0.136465
0.138119
0.139752
0.141362
0.14295
0.144517
0.146063
0.147588
0.149092
0.150576
0.15204
0.153485
0.15491
0.156315
0.157702
0.159071
0.160421
0.161752
0.163066
0.164362
0.165641
0.166903
0.168148
0.169376
0.170588
0.171784
0.172964
0.174128
0.175276
0.176409
0.177528
0.100069
0.102221
0.104344
0.106438
0.108504
0.110541
0.112551
0.114533
0.116489
0.118418
0.12032
0.122197
0.124049
0.125875
0.127677
0.129454
0.131207
0.132937
0.134643
0.136326
0.137986
0.139624
0.141239
0.142833
0.144405
0.145957
0.147487
0.148996
0.150485
0.151955
0.153404
0.154834
0.156244
0.157636
0.159009
0.160364
0.1617
0.163018
0.164319
0.165602
0.166868
0.168117
0.16935
0.170566
0.171766
0.172949
0.174117
0.17527
0.176407
0.177529
0.0998318
0.101991
0.10412
0.106221
0.108293
0.110337
0.112353
0.114341
0.116303
0.118238
0.120146
0.122029
0.123886
0.125718
0.127525
0.129308
0.131067
0.132801
0.134513
0.136201
0.137866
0.139509
0.14113
0.142728
0.144306
0.145861
0.147396
0.148911
0.150404
0.151878
0.153332
0.154766
0.156181
0.157577
0.158954
0.160313
0.161653
0.162975
0.16428
0.165567
0.166837
0.16809
0.169326
0.170546
0.171749
0.172937
0.174108
0.175264
0.176404
0.17753
0.0996226
0.101788
0.103923
0.106029
0.108107
0.110156
0.112178
0.114172
0.116139
0.118079
0.119993
0.12188
0.123743
0.12558
0.127392
0.129179
0.130943
0.132682
0.134398
0.136091
0.137761
0.139408
0.141033
0.142636
0.144218
0.145778
0.147317
0.148835
0.150333
0.15181
0.153268
0.154706
0.156125
0.157525
0.158905
0.160268
0.161612
0.162938
0.164246
0.165536
0.16681
0.168066
0.169305
0.170528
0.171735
0.172925
0.1741
0.175259
0.176402
0.177531
0.0994423
0.101612
0.103753
0.105864
0.107947
0.110001
0.112027
0.114026
0.115997
0.117942
0.11986
0.121753
0.123619
0.12546
0.127277
0.129069
0.130836
0.13258
0.1343
0.135996
0.13767
0.139321
0.14095
0.142557
0.144142
0.145705
0.147248
0.14877
0.150271
0.151752
0.153213
0.154655
0.156077
0.15748
0.158864
0.160229
0.161576
0.162905
0.164216
0.16551
0.166786
0.168045
0.169287
0.170513
0.171722
0.172916
0.174093
0.175254
0.1764
0.177532
0.0992912
0.101466
0.10361
0.105726
0.107812
0.109871
0.111901
0.113903
0.115879
0.117827
0.119749
0.121645
0.123516
0.125361
0.12718
0.128976
0.130747
0.132494
0.134217
0.135917
0.137594
0.139248
0.14088
0.14249
0.144078
0.145645
0.147191
0.148715
0.150219
0.151703
0.153167
0.154611
0.156036
0.157442
0.158828
0.160197
0.161546
0.162878
0.164191
0.165487
0.166766
0.168028
0.169272
0.1705