/*--------------------------------*- C++ -*----------------------------------*\
  =========                 |
  \\      /  F ield         | OpenFOAM: The Open Source CFD Toolbox
   \\    /   O peration     | Website:  https://openfoam.org
    \\  /    A nd           | Version:  7
     \\/     M anipulation  |
\*---------------------------------------------------------------------------*/
FoamFile
{
    version     2.0;
    format      ascii;
    class       volVectorField;
    location    "188000";
    object      U;
}
// * * * * * * * * * * * * * * * * * * * * * * * * * * * * * * * * * * * * * //

dimensions      [0 1 -1 0 0 0 0];

internalField   nonuniform List<vector> 
4782
(
(9.16579e-19 3.81732e-19 -0.00982891)
(9.09995e-19 3.44452e-19 -0.0097373)
(9.21037e-19 3.45353e-19 -0.00964375)
(9.05745e-19 4.41126e-19 -0.00954815)
(8.50674e-19 5.98248e-19 -0.0094504)
(8.64241e-19 6.2883e-19 -0.00935039)
(9.86517e-19 4.94715e-19 -0.00924799)
(1.06372e-18 4.24843e-19 -0.00914308)
(1.05499e-18 4.86562e-19 -0.00903552)
(1.02611e-18 5.80332e-19 -0.00892516)
(1.32964e-19 3.34769e-19 -0.012792)
(4.9775e-19 9.09004e-20 -0.01274)
(6.40697e-19 4.93446e-20 -0.0126876)
(6.45803e-19 9.64629e-20 -0.0126349)
(4.39392e-19 3.75636e-19 -0.0125817)
(9.85478e-20 8.06692e-19 -0.0125281)
(-1.16652e-19 1.07064e-18 -0.012474)
(-6.26743e-20 9.99875e-19 -0.0124195)
(2.25431e-19 6.13925e-19 -0.0123644)
(3.93539e-19 3.61385e-19 -0.0123089)
(4.83612e-19 2.00924e-19 -0.0122529)
(5.53913e-19 6.70137e-20 -0.0121963)
(5.05634e-19 1.2042e-19 -0.0121391)
(4.41445e-19 1.87334e-19 -0.0120815)
(4.06888e-19 2.27298e-19 -0.0120232)
(4.08698e-19 2.79146e-19 -0.0119644)
(4.39494e-19 3.0039e-19 -0.0119049)
(5.05956e-19 2.47078e-19 -0.0118449)
(6.45733e-19 7.41934e-20 -0.0117842)
(8.70035e-19 -2.29495e-19 -0.0117229)
(1.06305e-18 -5.34733e-19 -0.0116609)
(9.37804e-19 -4.4733e-19 -0.0115982)
(4.82662e-19 1.04545e-19 -0.0115348)
(1.3718e-19 5.24586e-19 -0.0114707)
(1.438e-19 4.94277e-19 -0.0114058)
(3.08168e-19 2.78957e-19 -0.0113401)
(5.1396e-19 1.92868e-21 -0.0112736)
(6.39422e-19 -1.67318e-19 -0.0112063)
(6.25584e-19 -1.38286e-19 -0.0111381)
(5.5398e-19 -4.36013e-20 -0.011069)
(6.7544e-19 -2.06727e-19 -0.0109989)
(9.26042e-19 -5.08745e-19 -0.0109279)
(9.35671e-19 -4.90907e-19 -0.0108559)
(8.15697e-19 -3.26792e-19 -0.0107828)
(7.32989e-19 -2.12897e-19 -0.0107086)
(8.01485e-19 -2.9416e-19 -0.0106333)
(9.03028e-19 -3.86846e-19 -0.0105567)
(8.61431e-19 -3.11002e-19 -0.010479)
(8.63459e-19 -3.29469e-19 -0.0103999)
(9.33397e-19 -4.68416e-19 -0.0103196)
(8.54996e-19 -4.02344e-19 -0.0102377)
(7.87741e-19 -3.61635e-19 -0.0101545)
(8.55366e-19 -4.94822e-19 -0.0100697)
(7.13717e-19 -3.65513e-19 -0.00998323)
(3.3702e-19 9.8558e-20 -0.00989511)
(1.27521e-19 3.62202e-19 -0.00980522)
(2.97593e-19 1.38938e-19 -0.00971347)
(5.64968e-19 -2.1988e-19 -0.00961977)
(6.48728e-19 -3.41092e-19 -0.00952402)
(4.94641e-19 -1.46971e-19 -0.00942612)
(3.06011e-19 1.02355e-19 -0.00932595)
(1.85877e-19 2.45804e-19 -0.00922339)
(2.00247e-19 1.90072e-19 -0.00911831)
(3.60563e-19 -5.87032e-20 -0.00901057)
(3.39556e-19 -6.56094e-20 -0.00890003)
(8.4823e-19 7.56457e-19 -0.0127713)
(7.15763e-19 7.29622e-19 -0.0127193)
(4.30313e-19 9.00843e-19 -0.0126669)
(3.66081e-19 8.18082e-19 -0.0126141)
(4.01039e-19 6.14673e-19 -0.0125609)
(4.45274e-19 5.52608e-19 -0.0125072)
(4.30611e-19 6.44525e-19 -0.0124531)
(4.85508e-19 7.241e-19 -0.0123985)
(5.04245e-19 7.81564e-19 -0.0123434)
(3.04563e-19 1.02364e-18 -0.0122878)
(8.76393e-20 1.23754e-18 -0.0122316)
(5.54635e-20 1.1793e-18 -0.012175)
(7.18747e-20 1.07529e-18 -0.0121178)
(1.18264e-19 9.94728e-19 -0.01206)
(2.79786e-19 8.35778e-19 -0.0120017)
(3.84474e-19 7.6156e-19 -0.0119428)
(2.60046e-19 9.65565e-19 -0.0118833)
(2.47901e-20 1.29321e-18 -0.0118232)
(-1.17574e-19 1.46982e-18 -0.0117624)
(-1.40644e-19 1.46605e-18 -0.011701)
(-1.33718e-19 1.42338e-18 -0.011639)
(-1.71984e-19 1.42975e-18 -0.0115762)
(-2.00504e-19 1.49049e-18 -0.0115127)
(-1.18235e-19 1.47689e-18 -0.0114485)
(7.95768e-20 1.30277e-18 -0.0113836)
(1.59056e-19 1.25438e-18 -0.0113178)
(1.7369e-19 1.24606e-18 -0.0112512)
(3.82249e-19 9.51607e-19 -0.0111838)
(6.22784e-19 6.20942e-19 -0.0111155)
(6.44679e-19 5.76864e-19 -0.0110463)
(6.35095e-19 5.76424e-19 -0.0109762)
(6.48258e-19 4.9548e-19 -0.0109051)
(5.35471e-19 5.61598e-19 -0.0108329)
(4.03808e-19 6.68751e-19 -0.0107598)
(4.22433e-19 6.06589e-19 -0.0106855)
(6.25263e-19 3.35536e-19 -0.01061)
(6.86143e-19 2.45828e-19 -0.0105334)
(4.40498e-19 5.19092e-19 -0.0104555)
(1.56267e-19 8.31793e-19 -0.0103764)
(7.13192e-20 8.87027e-19 -0.0102959)
(1.20978e-19 7.66196e-19 -0.0102139)
(1.68587e-19 6.63578e-19 -0.0101305)
(1.62081e-19 6.09716e-19 -0.0100456)
(2.679e-19 4.15741e-19 -0.00995903)
(4.61435e-19 1.6122e-19 -0.00987078)
(5.49427e-19 7.86809e-20 -0.00978074)
(5.53834e-19 8.72583e-20 -0.00968885)
(5.15222e-19 1.15604e-19 -0.009595)
(5.12193e-19 7.36141e-20 -0.00949909)
(5.13123e-19 1.54415e-20 -0.00940103)
(4.59273e-19 5.50159e-20 -0.00930069)
(3.15016e-19 2.27243e-19 -0.00919796)
(2.08395e-19 3.69991e-19 -0.00909271)
(2.43303e-19 3.26767e-19 -0.00898479)
(3.24158e-19 2.0831e-19 -0.00887407)
(-1.12105e-18 1.62248e-18 -0.0127501)
(-1.08085e-18 1.50403e-18 -0.0126981)
(-9.09967e-19 1.26124e-18 -0.0126456)
(-8.19675e-19 1.10942e-18 -0.0125927)
(-5.87731e-19 7.71341e-19 -0.0125395)
(-2.42617e-19 3.70942e-19 -0.0124857)
(2.04957e-20 8.63029e-20 -0.0124315)
(1.16074e-19 3.60957e-20 -0.0123769)
(-8.9954e-20 3.38331e-19 -0.0123217)
(-3.51339e-19 6.96631e-19 -0.012266)
(-4.75397e-19 9.22324e-19 -0.0122098)
(-3.83476e-19 9.22611e-19 -0.0121531)
(-7.99647e-20 7.08818e-19 -0.0120958)
(3.92708e-19 2.92318e-19 -0.012038)
(7.03479e-19 5.1289e-20 -0.0119796)
(7.06602e-19 1.25636e-19 -0.0119206)
(6.24517e-19 2.99142e-19 -0.0118611)
(5.15944e-19 5.11832e-19 -0.0118009)
(4.62163e-19 6.82117e-19 -0.0117401)
(6.45391e-19 5.86227e-19 -0.0116786)
(9.07114e-19 3.93279e-19 -0.0116164)
(1.10297e-18 2.36596e-19 -0.0115536)
(1.2137e-18 1.71475e-19 -0.0114901)
(1.09544e-18 4.04084e-19 -0.0114258)
(9.89002e-19 6.24618e-19 -0.0113607)
(9.1815e-19 7.73579e-19 -0.0112949)
(8.0738e-19 9.8512e-19 -0.0112282)
(8.16083e-19 1.05974e-18 -0.0111607)
(9.31745e-19 9.87287e-19 -0.0110923)
(9.6248e-19 9.6219e-19 -0.0110231)
(8.75042e-19 1.07297e-18 -0.0109528)
(8.51462e-19 1.09087e-18 -0.0108816)
(9.14894e-19 1.01508e-18 -0.0108094)
(9.91496e-19 9.56064e-19 -0.0107361)
(1.09689e-18 8.36509e-19 -0.0106617)
(1.30762e-18 5.75443e-19 -0.0105862)
(1.37205e-18 4.71909e-19 -0.0105094)
(1.22225e-18 6.2673e-19 -0.0104314)
(1.13835e-18 7.18284e-19 -0.0103522)
(1.12879e-18 7.34311e-19 -0.0102715)
(1.1075e-18 7.40403e-19 -0.0101895)
(1.06566e-18 7.70981e-19 -0.0101059)
(1.06456e-18 7.62003e-19 -0.0100208)
(1.22782e-18 5.98235e-19 -0.00993414)
(1.39763e-18 4.26527e-19 -0.00984574)
(1.38844e-18 4.5103e-19 -0.00975556)
(1.30822e-18 5.41e-19 -0.00966351)
(1.22439e-18 6.15159e-19 -0.0095695)
(1.08476e-18 7.4827e-19 -0.00947343)
(1.07036e-18 7.48028e-19 -0.0093752)
(1.22722e-18 5.51782e-19 -0.00927468)
(1.35617e-18 3.89851e-19 -0.00917177)
(1.38937e-18 3.5048e-19 -0.00906633)
(1.36027e-18 3.8914e-19 -0.00895823)
(1.35786e-18 3.93482e-19 -0.00884731)
(3.10651e-19 1.14516e-18 -0.0127284)
(3.50424e-19 1.21642e-18 -0.0126763)
(2.81673e-19 1.39518e-18 -0.0126238)
(2.8076e-19 1.4836e-18 -0.0125709)
(6.44434e-19 1.14953e-18 -0.0125176)
(9.91435e-19 7.50382e-19 -0.0124637)
(1.06336e-18 6.2636e-19 -0.0124095)
(1.0362e-18 5.49073e-19 -0.0123547)
(8.74155e-19 6.33889e-19 -0.0122995)
(6.99057e-19 7.6026e-19 -0.0122437)
(7.32175e-19 7.39614e-19 -0.0121874)
(1.0323e-18 4.52135e-19 -0.0121306)
(1.23097e-18 2.47305e-19 -0.0120733)
(1.19027e-18 2.5666e-19 -0.0120154)
(1.01424e-18 3.82995e-19 -0.0119569)
(8.5362e-19 5.38689e-19 -0.0118979)
(7.14094e-19 7.14324e-19 -0.0118383)
(5.64029e-19 9.03595e-19 -0.011778)
(5.7096e-19 9.45183e-19 -0.0117171)
(6.16015e-19 9.69337e-19 -0.0116556)
(4.38926e-19 1.20788e-18 -0.0115933)
(2.01249e-19 1.50559e-18 -0.0115304)
(2.38439e-19 1.45899e-18 -0.0114668)
(4.01393e-19 1.26684e-18 -0.0114025)
(4.3886e-19 1.23703e-18 -0.0113373)
(4.29817e-19 1.26998e-18 -0.0112714)
(5.35023e-19 1.18733e-18 -0.0112047)
(6.82272e-19 1.03678e-18 -0.0111371)
(5.907e-19 1.13306e-18 -0.0110686)
(3.66839e-19 1.38715e-18 -0.0109992)
(2.81448e-19 1.51643e-18 -0.0109289)
(3.00949e-19 1.54433e-18 -0.0108576)
(4.47103e-19 1.41831e-18 -0.0107852)
(3.72679e-19 1.53865e-18 -0.0107118)
(1.85007e-19 1.80176e-18 -0.0106373)
(2.83346e-19 1.75573e-18 -0.0105617)
(3.87179e-19 1.66075e-18 -0.0104848)
(3.06657e-19 1.7788e-18 -0.0104067)
(1.81948e-19 1.95799e-18 -0.0103273)
(6.86197e-20 2.1239e-18 -0.0102466)
(5.68601e-20 2.17711e-18 -0.0101644)
(2.24655e-19 2.03752e-18 -0.0100807)
(5.44747e-19 1.74128e-18 -0.00999548)
(9.1781e-19 1.36918e-18 -0.00990863)
(1.06193e-18 1.20545e-18 -0.00982007)
(9.67306e-19 1.28795e-18 -0.00972973)
(7.09104e-19 1.54809e-18 -0.00963752)
(5.12669e-19 1.76043e-18 -0.00954335)
(5.86519e-19 1.70859e-18 -0.0094471)
(6.91503e-19 1.62671e-18 -0.00934869)
(6.69998e-19 1.6683e-18 -0.009248)
(6.48319e-19 1.70058e-18 -0.0091449)
(6.92014e-19 1.65613e-18 -0.00903926)
(7.62578e-19 1.57703e-18 -0.00893096)
(8.01435e-19 1.5263e-18 -0.00881983)
(-8.25591e-19 1.0632e-18 -0.0127284)
(-7.26491e-19 1.06825e-18 -0.0126763)
(-5.75613e-19 1.04887e-18 -0.0126238)
(-4.42141e-19 1.06028e-18 -0.0125709)
(-4.05751e-19 1.16669e-18 -0.0125176)
(-4.61383e-19 1.27882e-18 -0.0124637)
(-5.77609e-19 1.41775e-18 -0.0124095)
(-7.43836e-19 1.55426e-18 -0.0123547)
(-8.95968e-19 1.66683e-18 -0.0122995)
(-7.52622e-19 1.56211e-18 -0.0122437)
(-3.92267e-19 1.33165e-18 -0.0121874)
(-3.19186e-19 1.33345e-18 -0.0121306)
(-4.42453e-19 1.44433e-18 -0.0120733)
(-3.96413e-19 1.36773e-18 -0.0120154)
(-8.1843e-20 9.97018e-19 -0.0119569)
(2.63076e-19 5.86406e-19 -0.0118979)
(3.01959e-19 4.5689e-19 -0.0118383)
(2.54996e-19 4.55469e-19 -0.011778)
(3.75066e-19 3.27816e-19 -0.0117171)
(4.65439e-19 2.17313e-19 -0.0116556)
(4.80028e-19 1.5749e-19 -0.0115933)
(4.08238e-19 1.96841e-19 -0.0115304)
(2.54998e-19 3.21901e-19 -0.0114668)
(1.43515e-19 3.88452e-19 -0.0114025)
(1.29982e-19 3.51173e-19 -0.0113373)
(1.10824e-19 3.25055e-19 -0.0112714)
(-1.44444e-19 5.148e-19 -0.0112047)
(-3.99443e-19 7.068e-19 -0.0111371)
(-3.30406e-19 5.89894e-19 -0.0110686)
(-7.51252e-20 3.24402e-19 -0.0109992)
(6.57639e-20 1.92682e-19 -0.0109289)
(4.79405e-20 2.38032e-19 -0.0108576)
(8.15369e-20 2.43368e-19 -0.0107852)
(3.17737e-19 3.54575e-20 -0.0107118)
(5.76995e-19 -1.67211e-19 -0.0106373)
(5.62783e-19 -1.24209e-19 -0.0105617)
(4.58232e-19 -2.49878e-20 -0.0104848)
(4.61662e-19 -3.49134e-20 -0.0104067)
(4.54385e-19 -9.69708e-21 -0.0103273)
(4.12673e-19 5.64472e-20 -0.0102466)
(3.81809e-19 1.2388e-19 -0.0101644)
(3.96757e-19 1.42188e-19 -0.0100807)
(3.08518e-19 2.33781e-19 -0.00999548)
(5.52365e-20 4.47102e-19 -0.00990863)
(-1.33456e-19 5.63347e-19 -0.00982007)
(-2.22866e-19 5.81847e-19 -0.00972973)
(-1.64065e-19 4.8086e-19 -0.00963752)
(7.61673e-20 2.2914e-19 -0.00954335)
(1.38578e-19 1.4783e-19 -0.0094471)
(4.56672e-20 2.13258e-19 -0.00934869)
(4.56772e-20 1.80305e-19 -0.009248)
(6.3249e-20 1.33092e-19 -0.0091449)
(-2.51124e-21 1.6681e-19 -0.00903926)
(-1.16721e-19 2.43137e-19 -0.00893096)
(-2.26731e-19 3.07351e-19 -0.00881983)
(3.46653e-19 3.75828e-19 -0.0127501)
(4.4106e-19 2.49196e-19 -0.0126981)
(4.35345e-19 2.13716e-19 -0.0126456)
(5.00742e-19 1.54418e-19 -0.0125927)
(5.8553e-19 8.52464e-20 -0.0125395)
(5.26745e-19 1.33553e-19 -0.0124857)
(3.09748e-19 3.46912e-19 -0.0124315)
(1.06502e-19 5.96653e-19 -0.0123769)
(1.64977e-19 6.44561e-19 -0.0123217)
(5.67172e-19 4.1891e-19 -0.012266)
(8.31027e-19 2.73801e-19 -0.0122098)
(7.44763e-19 4.06276e-19 -0.0121531)
(4.86249e-19 6.85937e-19 -0.0120958)
(4.41218e-20 1.13888e-18 -0.012038)
(-4.11834e-19 1.57794e-18 -0.0119796)
(-5.7857e-19 1.71704e-18 -0.0119206)
(-4.11779e-19 1.54715e-18 -0.0118611)
(-1.56762e-19 1.34229e-18 -0.0118009)
(-7.44843e-20 1.2858e-18 -0.0117401)
(-1.90481e-19 1.3924e-18 -0.0116786)
(-3.62865e-19 1.54887e-18 -0.0116164)
(-4.37375e-19 1.61598e-18 -0.0115536)
(-4.05276e-19 1.61799e-18 -0.0114901)
(-3.75549e-19 1.63504e-18 -0.0114258)
(-3.47169e-19 1.65196e-18 -0.0113607)
(-2.78159e-19 1.63822e-18 -0.0112949)
(-1.07453e-19 1.55067e-18 -0.0112282)
(3.39794e-20 1.48953e-18 -0.0111607)
(2.74753e-20 1.52584e-18 -0.0110923)
(1.31137e-19 1.43908e-18 -0.0110231)
(4.3738e-19 1.17301e-18 -0.0109528)
(6.99703e-19 9.49704e-19 -0.0108816)
(7.14605e-19 9.50286e-19 -0.0108094)
(6.21722e-19 1.05267e-18 -0.0107361)
(5.28633e-19 1.13245e-18 -0.0106617)
(3.65543e-19 1.23722e-18 -0.0105862)
(2.02702e-19 1.31619e-18 -0.0105094)
(2.17928e-19 1.24861e-18 -0.0104314)
(3.09732e-19 1.1207e-18 -0.0103522)
(3.11588e-19 1.07784e-18 -0.0102715)
(3.11278e-19 1.03938e-18 -0.0101895)
(2.50529e-19 1.06309e-18 -0.0101059)
(1.6636e-19 1.09752e-18 -0.0100208)
(5.0609e-20 1.1784e-18 -0.00993414)
(-7.36625e-20 1.28053e-18 -0.00984574)
(5.17112e-21 1.20272e-18 -0.00975556)
(9.46885e-20 1.11448e-18 -0.00966351)
(1.16066e-19 1.07782e-18 -0.0095695)
(2.61753e-19 9.15097e-19 -0.00947343)
(2.99321e-19 8.51346e-19 -0.0093752)
(2.1055e-19 9.01278e-19 -0.00927468)
(2.57308e-19 8.26953e-19 -0.00917177)
(3.37946e-19 7.29083e-19 -0.00906633)
(3.77829e-19 6.85959e-19 -0.00895823)
(3.74036e-19 6.90387e-19 -0.00884731)
(3.18047e-19 7.5297e-19 -0.00873342)
(3.36048e-19 7.61876e-19 -0.0086164)
(5.04231e-19 6.27752e-19 -0.00849605)
(6.47049e-19 4.96132e-19 -0.0083722)
(-1.15947e-18 1.88572e-18 -0.0127713)
(-1.14672e-18 1.86828e-18 -0.0127193)
(-8.64959e-19 1.63032e-18 -0.0126669)
(-6.20539e-19 1.43264e-18 -0.0126141)
(-6.5052e-19 1.4308e-18 -0.0125609)
(-5.96851e-19 1.36667e-18 -0.0125072)
(-3.57514e-19 1.16129e-18 -0.0124531)
(-2.32692e-19 1.06414e-18 -0.0123985)
(-2.57279e-19 1.07831e-18 -0.0123434)
(-2.48428e-19 1.04788e-18 -0.0122878)
(-1.77553e-19 9.68993e-19 -0.0122316)
(-1.87221e-19 9.79586e-19 -0.012175)
(-1.95026e-19 9.95578e-19 -0.0121178)
(-1.51391e-19 9.94387e-19 -0.01206)
(-2.0894e-19 1.09563e-18 -0.0120017)
(-2.29185e-19 1.20805e-18 -0.0119428)
(-3.72723e-20 1.14071e-18 -0.0118833)
(2.00084e-19 1.0057e-18 -0.0118232)
(3.44307e-19 9.22794e-19 -0.0117624)
(4.48167e-19 8.68432e-19 -0.011701)
(4.67396e-19 8.67544e-19 -0.011639)
(5.29375e-19 8.32307e-19 -0.0115762)
(6.30603e-19 7.87154e-19 -0.0115127)
(6.4006e-19 8.45958e-19 -0.0114485)
(7.05013e-19 8.66576e-19 -0.0113836)
(8.43337e-19 8.22802e-19 -0.0113178)
(7.01799e-19 9.74052e-19 -0.0112512)
(2.45548e-19 1.32681e-18 -0.0111838)
(-6.28907e-20 1.55647e-18 -0.0111155)
(-9.14506e-21 1.51046e-18 -0.0110463)
(1.36299e-19 1.37832e-18 -0.0109762)
(1.82301e-19 1.28086e-18 -0.0109051)
(2.97786e-19 1.10108e-18 -0.0108329)
(4.11576e-19 9.41738e-19 -0.0107598)
(2.27752e-19 1.04e-18 -0.0106855)
(-2.42303e-19 1.38227e-18 -0.01061)
(-4.59636e-19 1.52519e-18 -0.0105334)
(-3.24428e-19 1.39873e-18 -0.0104555)
(-2.27594e-19 1.30229e-18 -0.0103764)
(-1.85801e-19 1.25255e-18 -0.0102959)
(-1.11641e-19 1.17804e-18 -0.0102139)
(-8.43906e-20 1.14962e-18 -0.0101305)
(-8.75945e-20 1.1537e-18 -0.0100456)
(-5.22537e-20 1.12345e-18 -0.00995903)
(-9.43501e-20 1.18415e-18 -0.00987078)
(-1.54267e-19 1.27876e-18 -0.00978074)
(-1.30451e-19 1.27521e-18 -0.00968885)
(-5.18318e-20 1.2134e-18 -0.009595)
(-5.96124e-20 1.21026e-18 -0.00949909)
(-7.9619e-20 1.20399e-18 -0.00940103)
(-6.11558e-20 1.18416e-18 -0.00930069)
(1.70411e-20 1.12129e-18 -0.00919796)
(2.13697e-19 9.57143e-19 -0.00909271)
(3.79021e-19 8.12117e-19 -0.00898479)
(4.77887e-19 7.18098e-19 -0.00887407)
(6.01631e-19 6.08365e-19 -0.00876038)
(6.8032e-19 5.50838e-19 -0.00864356)
(6.2549e-19 5.9868e-19 -0.00852342)
(5.05845e-19 6.82608e-19 -0.00839977)
(5.092e-19 6.50106e-19 -0.00827241)
(-9.11119e-19 -3.87757e-19 -0.012792)
(-8.70139e-19 -2.62275e-19 -0.01274)
(-8.00902e-19 -1.82473e-19 -0.0126876)
(-7.21815e-19 -1.92088e-19 -0.0126349)
(-6.86113e-19 -1.86794e-19 -0.0125817)
(-6.82225e-19 -9.17066e-20 -0.0125281)
(-7.70992e-19 7.10126e-20 -0.012474)
(-8.96665e-19 2.68255e-19 -0.0124195)
(-9.50122e-19 4.1415e-19 -0.0123644)
(-6.29456e-19 2.86583e-19 -0.0123089)
(-2.15686e-19 5.45772e-20 -0.0122529)
(-1.26494e-19 5.79087e-20 -0.0121963)
(-2.22493e-19 2.34563e-19 -0.0121391)
(-4.41504e-19 4.92099e-19 -0.0120815)
(-5.62418e-19 6.70719e-19 -0.0120232)
(-5.43344e-19 7.62104e-19 -0.0119644)
(-5.80541e-19 8.88695e-19 -0.0119049)
(-6.10723e-19 9.84533e-19 -0.0118449)
(-6.53515e-19 1.09382e-18 -0.0117842)
(-8.6373e-19 1.30797e-18 -0.0117229)
(-1.12213e-18 1.52275e-18 -0.0116609)
(-1.06736e-18 1.47683e-18 -0.0115982)
(-7.35835e-19 1.21003e-18 -0.0115348)
(-5.15608e-19 1.02424e-18 -0.0114707)
(-5.19317e-19 1.02017e-18 -0.0114058)
(-7.3106e-19 1.16578e-18 -0.0113401)
(-1.14897e-18 1.46954e-18 -0.0112736)
(-1.39756e-18 1.67376e-18 -0.0112063)
(-1.29718e-18 1.63104e-18 -0.0111381)
(-1.13579e-18 1.53347e-18 -0.011069)
(-1.2139e-18 1.60707e-18 -0.0109989)
(-1.43014e-18 1.78712e-18 -0.0109279)
(-1.41034e-18 1.78302e-18 -0.0108559)
(-1.21112e-18 1.61232e-18 -0.0107828)
(-1.08523e-18 1.48485e-18 -0.0107086)
(-1.08079e-18 1.46702e-18 -0.0106333)
(-9.90035e-19 1.41192e-18 -0.0105567)
(-7.91276e-19 1.24999e-18 -0.010479)
(-6.65322e-19 1.12998e-18 -0.0103999)
(-6.23697e-19 1.07036e-18 -0.0103196)
(-5.24796e-19 9.778e-19 -0.0102377)
(-4.49721e-19 8.97058e-19 -0.0101545)
(-4.91723e-19 9.03543e-19 -0.0100697)
(-4.04948e-19 8.03281e-19 -0.00998323)
(-1.44406e-19 5.74304e-19 -0.00989511)
(-1.70984e-19 5.76835e-19 -0.00980522)
(-4.64438e-19 7.91679e-19 -0.00971347)
(-6.82555e-19 9.3957e-19 -0.00961977)
(-7.52897e-19 9.71272e-19 -0.00952402)
(-6.44702e-19 8.72593e-19 -0.00942612)
(-4.73497e-19 7.32573e-19 -0.00932595)
(-3.6137e-19 6.40318e-19 -0.00922339)
(-3.67467e-19 6.29205e-19 -0.00911831)
(-4.4196e-19 6.59306e-19 -0.00901057)
(-4.41213e-19 6.28853e-19 -0.00890003)
(-3.19017e-19 4.97373e-19 -0.00878654)
(-2.51958e-19 3.98014e-19 -0.00866991)
(-3.61902e-19 4.34721e-19 -0.00854996)
(-5.34225e-19 5.26938e-19 -0.00842652)
(-6.29659e-19 5.63958e-19 -0.00829936)
(-5.17352e-19 4.40931e-19 -0.00816827)
(-2.70902e-19 2.13849e-19 -0.00803301)
(-8.26615e-20 4.26793e-20 -0.00789334)
(-1.04261e-19 4.61513e-20 -0.00774897)
(-1.91e-19 9.46996e-20 -0.00759964)
(-1.32356e-19 1.56965e-20 -0.00744505)
(9.77286e-21 -1.28822e-19 -0.00728487)
(1.10296e-19 -2.35581e-19 -0.00711879)
(1.73296e-19 -3.14512e-19 -0.00694647)
(2.65512e-19 -4.18211e-19 -0.00676754)
(2.88588e-19 -4.71915e-19 -0.00658157)
(2.33895e-19 -4.71967e-19 -0.00638783)
(1.7613e-19 -4.7397e-19 -0.0061855)
(1.2919e-19 -4.83204e-19 -0.00597405)
(1.28198e-19 -5.22946e-19 -0.005753)
(1.47052e-19 -5.7942e-19 -0.00552196)
(1.11796e-19 -5.98076e-19 -0.00528067)
(1.49372e-21 -5.60061e-19 -0.00502907)
(-8.51114e-20 -5.36176e-19 -0.00476737)
(-1.43046e-19 -5.28306e-19 -0.00449612)
(-1.89002e-19 -5.24061e-19 -0.00421623)
(-2.20402e-19 -5.2165e-19 -0.00392898)
(-2.19e-19 -5.35447e-19 -0.00363594)
(-2.0403e-19 -5.51373e-19 -0.00333886)
(-1.95892e-19 -5.53078e-19 -0.00303948)
(-2.05681e-19 -5.25828e-19 -0.0027394)
(-2.09249e-19 -4.85329e-19 -0.00243994)
(-1.88931e-19 -4.45257e-19 -0.00214213)
(-1.57717e-19 -3.93832e-19 -0.00184667)
(-1.43382e-19 -3.08566e-19 -0.00155401)
(-1.31387e-19 -2.02459e-19 -0.00126439)
(-8.38323e-20 -1.02688e-19 -0.000977933)
(-1.54137e-20 2.08241e-21 -0.000694678)
(7.79006e-20 1.08052e-19 -0.000414617)
(-4.43704e-20 -4.51308e-20 -0.000137728)
(-4.20925e-19 4.33072e-19 -0.012812)
(-2.19782e-19 3.24569e-19 -0.0127601)
(-4.18797e-19 4.95581e-19 -0.0127078)
(-6.43817e-19 6.48861e-19 -0.012655)
(-4.08726e-19 4.73354e-19 -0.0126019)
(-1.81425e-20 1.74964e-19 -0.0125483)
(2.71077e-19 -3.33553e-20 -0.0124943)
(4.42601e-19 -1.45579e-19 -0.0124398)
(4.24012e-19 -1.10768e-19 -0.0123849)
(2.22343e-19 2.18319e-20 -0.0123294)
(3.94591e-20 8.27296e-20 -0.0122734)
(1.64514e-19 -7.04069e-20 -0.0122169)
(2.55505e-19 -1.94347e-19 -0.0121598)
(1.52952e-19 -1.55273e-19 -0.0121022)
(9.28093e-20 -1.44684e-19 -0.012044)
(4.38082e-20 -1.55492e-19 -0.0119853)
(-2.51462e-20 -1.38939e-19 -0.0119259)
(3.71091e-20 -2.20573e-19 -0.0118659)
(3.17706e-20 -2.70323e-19 -0.0118053)
(-2.6207e-19 -1.13581e-19 -0.0117441)
(-6.52228e-19 1.48856e-19 -0.0116821)
(-8.45486e-19 2.87508e-19 -0.0116195)
(-8.62391e-19 2.79439e-19 -0.0115562)
(-8.28247e-19 2.08991e-19 -0.0114921)
(-7.6913e-19 1.32432e-19 -0.0114273)
(-6.96519e-19 4.91648e-20 -0.0113617)
(-6.26071e-19 5.07743e-21 -0.0112953)
(-7.41221e-19 1.40667e-19 -0.0112281)
(-9.64077e-19 3.81531e-19 -0.0111599)
(-1.01946e-18 5.00973e-19 -0.0110909)
(-8.98388e-19 4.85824e-19 -0.011021)
(-7.98516e-19 5.07703e-19 -0.01095)
(-8.51058e-19 6.48131e-19 -0.0108781)
(-9.71888e-19 8.53204e-19 -0.0108051)
(-1.04235e-18 1.02217e-18 -0.010731)
(-1.08616e-18 1.16577e-18 -0.0106558)
(-1.21975e-18 1.34794e-18 -0.0105794)
(-1.3551e-18 1.49991e-18 -0.0105017)
(-1.36014e-18 1.54359e-18 -0.0104228)
(-1.2081e-18 1.46592e-18 -0.0103425)
(-1.0341e-18 1.37758e-18 -0.0102608)
(-1.04077e-18 1.40993e-18 -0.0101776)
(-1.09531e-18 1.47053e-18 -0.010093)
(-1.03961e-18 1.45043e-18 -0.0100067)
(-9.3735e-19 1.36995e-18 -0.00991866)
(-8.74219e-19 1.30105e-18 -0.00982891)
(-8.70222e-19 1.29903e-18 -0.0097373)
(-8.54659e-19 1.32411e-18 -0.00964375)
(-7.43416e-19 1.30991e-18 -0.00954815)
(-5.46639e-19 1.23948e-18 -0.0094504)
(-3.99352e-19 1.19114e-18 -0.00935039)
(-3.85661e-19 1.23901e-18 -0.00924799)
(-3.73805e-19 1.29364e-18 -0.00914308)
(-2.82194e-19 1.28456e-18 -0.00903552)
(-2.00141e-19 1.27286e-18 -0.00892516)
(-1.86215e-19 1.30329e-18 -0.00881184)
(-1.79151e-19 1.33058e-18 -0.0086954)
(-1.18706e-19 1.31634e-18 -0.00857564)
(-2.65385e-20 1.27791e-18 -0.00845239)
(1.55944e-19 1.17731e-18 -0.00832543)
(3.6798e-19 1.05468e-18 -0.00819454)
(5.19478e-19 9.73852e-19 -0.00805948)
(6.87025e-19 8.77544e-19 -0.00792)
(7.78476e-19 8.38821e-19 -0.00777583)
(6.53835e-19 9.72134e-19 -0.0076267)
(4.93427e-19 1.13793e-18 -0.00747229)
(4.93809e-19 1.1804e-18 -0.00731229)
(5.86002e-19 1.14636e-18 -0.00714637)
(6.54019e-19 1.12013e-18 -0.00697419)
(6.24781e-19 1.15137e-18 -0.00679539)
(5.17281e-19 1.22866e-18 -0.00660952)
(4.16935e-19 1.30164e-18 -0.0064159)
(3.83662e-19 1.3253e-18 -0.00621371)
(4.7083e-19 1.25791e-18 -0.00600235)
(5.6955e-19 1.17307e-18 -0.00578134)
(6.03949e-19 1.12596e-18 -0.00555025)
(6.16257e-19 1.08559e-18 -0.00530881)
(5.96716e-19 1.06366e-18 -0.00505692)
(5.98234e-19 1.02163e-18 -0.00479477)
(6.11507e-19 9.63445e-19 -0.00452287)
(5.94504e-19 9.15728e-19 -0.00424211)
(5.55735e-19 8.76822e-19 -0.00395376)
(5.11823e-19 8.38116e-19 -0.00365941)
(4.49185e-19 8.0748e-19 -0.0033608)
(3.65921e-19 7.85221e-19 -0.00305973)
(3.26847e-19 7.26957e-19 -0.00275782)
(3.31706e-19 6.38592e-19 -0.00245646)
(3.3622e-19 5.55123e-19 -0.0021567)
(3.25722e-19 4.90658e-19 -0.00185926)
(3.03222e-19 4.45965e-19 -0.00156462)
(2.80527e-19 4.14613e-19 -0.00127304)
(2.84998e-19 3.81554e-19 -0.000984629)
(2.88766e-19 3.70784e-19 -0.000699439)
(2.93779e-19 3.85989e-19 -0.000417461)
(5.00232e-21 3.45059e-21 -0.000138674)
(-2.53513e-19 2.38738e-19 -0.0128313)
(-2.08575e-19 2.19659e-19 -0.0127795)
(-3.40646e-19 3.33613e-19 -0.0127272)
(-5.13512e-19 5.09962e-19 -0.0126745)
(-6.36711e-19 6.46314e-19 -0.0126214)
(-6.57419e-19 6.71665e-19 -0.0125679)
(-5.9722e-19 6.47251e-19 -0.0125139)
(-6.10404e-19 6.48954e-19 -0.0124595)
(-8.03361e-19 7.49188e-19 -0.0124046)
(-1.05158e-18 8.5247e-19 -0.0123492)
(-1.02998e-18 7.8555e-19 -0.0122933)
(-9.75255e-19 6.94485e-19 -0.0122368)
(-9.58425e-19 6.0961e-19 -0.0121798)
(-1.09414e-18 6.0951e-19 -0.0121223)
(-1.37107e-18 7.04027e-19 -0.0120642)
(-1.43183e-18 6.51704e-19 -0.0120055)
(-1.50055e-18 6.11312e-19 -0.0119462)
(-1.73875e-18 6.73334e-19 -0.0118863)
(-1.9288e-18 6.87561e-19 -0.0118257)
(-1.93189e-18 5.76294e-19 -0.0117645)
(-1.89244e-18 4.55064e-19 -0.0117027)
(-1.91659e-18 3.96418e-19 -0.0116401)
(-1.92473e-18 3.39517e-19 -0.0115769)
(-1.79374e-18 2.06586e-19 -0.0115129)
(-1.69582e-18 1.08277e-19 -0.0114481)
(-1.62631e-18 2.124e-20 -0.0113826)
(-1.44983e-18 -1.45083e-19 -0.0113163)
(-1.17769e-18 -3.6524e-19 -0.0112491)
(-9.20961e-19 -5.40592e-19 -0.0111811)
(-8.82767e-19 -5.62548e-19 -0.0111121)
(-9.1058e-19 -5.62725e-19 -0.0110422)
(-9.53902e-19 -5.5727e-19 -0.0109714)
(-8.00024e-19 -6.6949e-19 -0.0108995)
(-5.15889e-19 -8.50776e-19 -0.0108266)
(-4.7929e-19 -8.59879e-19 -0.0107526)
(-7.87885e-19 -6.272e-19 -0.0106775)
(-1.2135e-18 -2.8666e-19 -0.0106012)
(-1.38337e-18 -8.17133e-20 -0.0105236)
(-1.40478e-18 2.0801e-20 -0.0104448)
(-1.3503e-18 5.71968e-20 -0.0103646)
(-1.26456e-18 7.1427e-20 -0.010283)
(-1.30069e-18 1.65075e-19 -0.0102)
(-1.36711e-18 2.78693e-19 -0.0101154)
(-1.50045e-18 4.28129e-19 -0.0100293)
(-1.60601e-18 5.599e-19 -0.00994139)
(-1.51528e-18 5.52754e-19 -0.00985177)
(-1.20199e-18 3.90395e-19 -0.00976029)
(-7.6785e-19 1.29614e-19 -0.00966688)
(-4.93116e-19 -2.10193e-20 -0.00957142)
(-4.98813e-19 1.84597e-20 -0.00947382)
(-5.10662e-19 5.67981e-20 -0.00937395)
(-3.81066e-19 -7.75264e-21 -0.00927171)
(-4.16444e-19 4.2079e-20 -0.00916696)
(-6.82497e-19 2.47002e-19 -0.00905957)
(-8.84479e-19 4.03902e-19 -0.00894937)
(-9.36649e-19 4.55919e-19 -0.00883623)
(-9.82339e-19 5.09696e-19 -0.00871997)
(-1.10068e-18 6.09699e-19 -0.0086004)
(-1.19964e-18 6.94912e-19 -0.00847733)
(-1.2193e-18 7.22871e-19 -0.00835056)
(-1.10961e-18 6.46621e-19 -0.00821985)
(-9.16053e-19 5.00451e-19 -0.00808499)
(-7.40556e-19 3.6652e-19 -0.0079457)
(-5.73172e-19 2.35161e-19 -0.00780172)
(-4.21569e-19 1.14495e-19 -0.00765277)
(-3.2757e-19 4.36791e-20 -0.00749854)
(-3.22665e-19 3.70406e-20 -0.00733871)
(-4.24909e-19 9.59476e-20 -0.00717295)
(-5.79159e-19 1.88194e-19 -0.00700091)
(-6.91158e-19 2.51066e-19 -0.00682223)
(-6.60235e-19 2.1736e-19 -0.00663647)
(-5.18482e-19 1.09433e-19 -0.00644297)
(-3.78231e-19 5.15243e-21 -0.00624091)
(-3.6428e-19 -1.40664e-20 -0.00602965)
(-4.3847e-19 2.01048e-20 -0.00580868)
(-4.45151e-19 5.69e-21 -0.00557756)
(-4.09419e-19 -4.29754e-20 -0.00533598)
(-3.73183e-19 -9.35151e-20 -0.00508383)
(-3.89321e-19 -1.04437e-19 -0.00482126)
(-4.62488e-19 -7.09104e-20 -0.00454874)
(-5.30656e-19 -3.80358e-20 -0.00426716)
(-5.2999e-19 -5.05027e-20 -0.00397777)
(-4.79473e-19 -9.19409e-20 -0.00368214)
(-4.82662e-19 -9.05489e-20 -0.00338207)
(-5.04867e-19 -6.67525e-20 -0.00307936)
(-4.5269e-19 -8.26587e-20 -0.0027757)
(-3.52461e-19 -1.19792e-19 -0.00247249)
(-2.58077e-19 -1.39457e-19 -0.00217084)
(-1.87044e-19 -1.24755e-19 -0.00187149)
(-1.37888e-19 -7.39131e-20 -0.00157493)
(-8.83558e-20 -1.31493e-21 -0.00128143)
(-1.93793e-20 8.07659e-20 -0.00099113)
(7.94388e-20 1.64859e-19 -0.00070406)
(1.68033e-19 2.80826e-19 -0.000420222)
(-2.53024e-20 -5.40184e-20 -0.000139592)
(-4.19383e-19 4.58887e-20 -0.01285)
(-2.63432e-19 -1.18024e-19 -0.0127981)
(-2.40108e-19 -2.65165e-19 -0.0127459)
(-3.73608e-19 -2.9352e-19 -0.0126933)
(-4.52901e-19 -3.12876e-19 -0.0126402)
(-2.90385e-19 -4.32755e-19 -0.0125867)
(-1.1416e-19 -5.36788e-19 -0.0125328)
(-1.68744e-19 -4.8588e-19 -0.0124785)
(-4.96866e-19 -2.71948e-19 -0.0124236)
(-8.50766e-19 -1.35966e-20 -0.0123683)
(-9.7669e-19 1.03786e-19 -0.0123124)
(-9.27991e-19 9.4325e-20 -0.012256)
(-9.80753e-19 1.55748e-19 -0.0121991)
(-1.12143e-18 2.49494e-19 -0.0121416)
(-1.16075e-18 2.99286e-19 -0.0120836)
(-1.15803e-18 3.28071e-19 -0.0120249)
(-1.20098e-18 3.88341e-19 -0.0119657)
(-1.25092e-18 4.60652e-19 -0.0119058)
(-1.3134e-18 5.49488e-19 -0.0118453)
(-1.43859e-18 6.82634e-19 -0.0117842)
(-1.52232e-18 7.88641e-19 -0.0117224)
(-1.44765e-18 7.9591e-19 -0.0116599)
(-1.21243e-18 6.9618e-19 -0.0115968)
(-9.15957e-19 5.35486e-19 -0.0115328)
(-7.76451e-19 4.66398e-19 -0.0114682)
(-7.85247e-19 4.83424e-19 -0.0114027)
(-6.89371e-19 4.28953e-19 -0.0113364)
(-4.76016e-19 3.04447e-19 -0.0112693)
(-4.06708e-19 2.58499e-19 -0.0112014)
(-6.23038e-19 3.72022e-19 -0.0111325)
(-7.54391e-19 4.20589e-19 -0.0110627)
(-6.2383e-19 2.88474e-19 -0.0109919)
(-4.5186e-19 1.46283e-19 -0.0109202)
(-4.44406e-19 7.84778e-20 -0.0108473)
(-4.68754e-19 1.87206e-20 -0.0107734)
(-2.69644e-19 -1.85255e-19 -0.0106984)
(8.98448e-20 -4.65363e-19 -0.0106222)
(1.76622e-19 -5.61043e-19 -0.0105447)
(-7.39414e-20 -4.42518e-19 -0.010466)
(-1.46833e-19 -4.37848e-19 -0.0103859)
(-8.99397e-20 -5.22717e-19 -0.0103044)
(-1.97004e-19 -4.92954e-19 -0.0102215)
(-3.992e-19 -3.75232e-19 -0.010137)
(-4.76704e-19 -3.29118e-19 -0.010051)
(-4.54573e-19 -3.36556e-19 -0.00996323)
(-5.01522e-19 -2.94656e-19 -0.00987373)
(-7.22196e-19 -1.40666e-19 -0.00978238)
(-9.04866e-19 -3.38274e-20 -0.0096891)
(-8.53655e-19 -9.98259e-20 -0.00959378)
(-7.77899e-19 -1.74324e-19 -0.00949631)
(-7.97083e-19 -1.81736e-19 -0.0093966)
(-8.9422e-19 -1.5631e-19 -0.0092945)
(-9.73653e-19 -1.57377e-19 -0.0091899)
(-1.02761e-18 -1.58737e-19 -0.00908267)
(-1.05932e-18 -1.64413e-19 -0.00897264)
(-1.03874e-18 -2.06609e-19 -0.00885966)
(-1.04855e-18 -2.31465e-19 -0.00874356)
(-1.07598e-18 -2.36354e-19 -0.00862417)
(-1.0524e-18 -2.73914e-19 -0.00850128)
(-1.10415e-18 -2.69208e-19 -0.00837469)
(-1.22294e-18 -2.22427e-19 -0.00824417)
(-1.21112e-18 -2.59611e-19 -0.00810948)
(-1.07865e-18 -3.77713e-19 -0.00797038)
(-1.00374e-18 -4.64301e-19 -0.00782658)
(-9.75548e-19 -5.28392e-19 -0.00767781)
(-9.71338e-19 -5.82099e-19 -0.00752375)
(-1.05919e-18 -5.73225e-19 -0.00736409)
(-1.10865e-18 -5.82067e-19 -0.00719848)
(-1.04301e-18 -6.57934e-19 -0.00702659)
(-1.00371e-18 -7.08299e-19 -0.00684802)
(-9.87358e-19 -7.37054e-19 -0.00666236)
(-9.70738e-19 -7.64559e-19 -0.00646898)
(-9.76972e-19 -7.80563e-19 -0.00626706)
(-9.81773e-19 -7.98117e-19 -0.0060559)
(-9.62525e-19 -8.27541e-19 -0.00583498)
(-9.5434e-19 -8.42469e-19 -0.00560383)
(-9.64025e-19 -8.40081e-19 -0.00536214)
(-9.36185e-19 -8.61525e-19 -0.00510974)
(-8.42494e-19 -9.2357e-19 -0.00484678)
(-7.28969e-19 -9.93983e-19 -0.00457369)
(-6.38564e-19 -1.03752e-18 -0.00429133)
(-6.19245e-19 -1.02645e-18 -0.00400094)
(-6.36408e-19 -9.82367e-19 -0.00370411)
(-6.53733e-19 -9.25916e-19 -0.00340263)
(-6.43439e-19 -8.70562e-19 -0.00309835)
(-6.08002e-19 -8.16382e-19 -0.00279299)
(-5.66345e-19 -7.48679e-19 -0.00248801)