/*--------------------------------*- C++ -*----------------------------------*\
  =========                 |
  \\      /  F ield         | OpenFOAM: The Open Source CFD Toolbox
   \\    /   O peration     | Website:  https://openfoam.org
    \\  /    A nd           | Version:  7
     \\/     M anipulation  |
\*---------------------------------------------------------------------------*/
FoamFile
{
    version     2.0;
    format      ascii;
    class       surfaceScalarField;
    location    "88000";
    object      phi;
}
// * * * * * * * * * * * * * * * * * * * * * * * * * * * * * * * * * * * * * //

dimensions      [0 3 -1 0 0 0 0];

internalField   nonuniform List<scalar> 
9492
(
1.35884e-21
8.46754e-21
4.84094e-22
1.13168e-21
1.52924e-22
8.86435e-22
6.72412e-21
5.86549e-22
1.43356e-21
3.43513e-22
3.97443e-22
2.55746e-22
2.04074e-22
2.14193e-22
1.08615e-22
1.92605e-22
9.389e-23
1.5838e-22
4.97096e-23
5.38741e-24
6.35668e-22
5.41137e-21
5.91998e-22
1.42212e-21
3.84231e-22
6.07491e-22
2.76958e-22
2.91726e-22
2.11677e-22
1.80371e-22
1.95861e-22
1.54721e-22
1.52168e-22
6.1121e-23
1.27802e-22
4.1004e-23
1.00381e-22
7.98057e-23
1.05505e-22
9.5065e-23
-1.52797e-23
4.45177e-22
4.29119e-21
4.95182e-22
1.47494e-21
3.4991e-22
7.47178e-22
2.75949e-22
3.43776e-22
2.17356e-22
2.15927e-22
2.04672e-22
1.74991e-22
1.625e-22
1.09741e-22
1.36256e-22
2.45148e-23
1.0725e-22
2.97046e-23
1.05183e-22
6.86704e-23
1.01019e-22
2.48376e-23
1.00232e-22
4.06459e-23
1.05181e-22
-1.44648e-23
1.07201e-22
4.19648e-23
7.75454e-23
-4.42692e-23
-7.58916e-23
6.05004e-23
3.35304e-22
3.53545e-21
4.06428e-22
1.38927e-21
3.26585e-22
8.5104e-22
2.73556e-22
4.66226e-22
2.20121e-22
2.70028e-22
2.14849e-22
2.29664e-22
1.61052e-22
4.49284e-23
1.41905e-22
4.86488e-23
1.1769e-22
6.10849e-23
1.03285e-22
5.21394e-23
1.06763e-22
5.07474e-23
9.59762e-23
4.45176e-23
1.12176e-22
-2.00739e-23
9.69167e-23
-2.19198e-23
8.13747e-23
-6.22031e-23
-9.55298e-23
5.90619e-23
2.5611e-22
3.36812e-22
1.37771e-21
3.0163e-22
9.34677e-22
2.58571e-22
4.73201e-22
2.29772e-22
3.41612e-22
2.10727e-22
2.40937e-22
1.67559e-22
9.56765e-23
1.45477e-22
7.15563e-23
1.1725e-22
6.04424e-23
1.07869e-22
2.79919e-23
1.07175e-22
4.75319e-23
9.34614e-23
2.29708e-23
1.14451e-22
1.76925e-24
9.35427e-23
8.87056e-25
7.8921e-23
-9.3116e-23
-4.08604e-23
6.91145e-23
2.79245e-22
1.31041e-21
2.6568e-22
9.48026e-22
2.51901e-22
5.51663e-22
2.22676e-22
4.02222e-22
2.02847e-22
2.9993e-22
1.70094e-22
1.35439e-22
1.48855e-22
9.87577e-23
1.07138e-22
2.39358e-23
1.10405e-22
6.06242e-23
1.04083e-22
5.51645e-23
9.068e-23
3.32533e-23
1.20921e-22
1.93258e-23
8.75574e-23
-3.66002e-23
8.08516e-23
-8.74361e-23
-6.01648e-23
7.23475e-23
2.26844e-22
1.21313e-21
2.35698e-22
9.02337e-22
2.36831e-22
5.73912e-22
2.14979e-22
4.45666e-22
1.97412e-22
3.07078e-22
1.67942e-22
1.66257e-22
1.41863e-22
1.16835e-22
1.11034e-22
5.87335e-23
1.09865e-22
6.03857e-23
9.97681e-23
2.33647e-23
9.44248e-23
-6.72446e-24
1.11797e-22
2.34691e-23
8.31714e-23
-8.45742e-23
8.43834e-23
-8.48627e-23
-5.23199e-23
7.69544e-23
1.81481e-22
1.14154e-21
2.08151e-22
8.949e-22
2.21566e-22
6.29889e-22
2.03623e-22
4.53473e-22
1.88181e-22
3.10177e-22
1.56629e-22
2.02622e-22
1.33284e-22
1.51106e-22
1.07995e-22
5.31391e-23
1.04029e-22
7.02392e-23
9.66571e-23
2.68374e-23
9.8752e-23
-4.83004e-24
1.02906e-22
-1.55308e-23
8.19331e-23
-1.41723e-22
9.3073e-23
-5.97889e-23
-6.37201e-23
7.48364e-23
7.92619e-23
1.65275e-21
1.45509e-22
1.06152e-21
1.84454e-22
9.31365e-22
2.01009e-22
6.91561e-22
1.89655e-22
4.92064e-22
1.79645e-22
3.46572e-22
1.48188e-22
2.0451e-22
1.22155e-22
1.87843e-22
1.06164e-22
4.0843e-23
9.77448e-23
7.88148e-23
9.53814e-23
5.08329e-23
8.92577e-23
1.36245e-24
9.33832e-23
1.10628e-23
9.15143e-23
-9.53262e-23
8.71918e-23
-2.31642e-23
-9.22192e-23
7.90834e-23
5.48159e-23
1.40611e-21
1.18815e-22
1.00049e-21
1.6167e-22
8.79428e-22
1.79296e-22
7.15841e-22
1.76782e-22
5.15691e-22
1.66481e-22
3.4939e-22
1.48836e-22
2.62266e-22
1.09149e-22
9.9807e-23
1.06282e-22
9.74443e-23
9.16341e-23
9.10889e-23
8.84294e-23
6.14472e-23
8.74702e-23
5.26653e-23
7.90272e-23
5.6773e-23
9.57987e-23
-3.47555e-23
8.26455e-23
-1.62191e-23
-2.82586e-23
9.0326e-23
4.65639e-23
1.26997e-21
9.88915e-23
9.48326e-22
1.47873e-22
9.07865e-22
1.57976e-22
7.00832e-22
1.61354e-22
5.18574e-22
1.58195e-22
3.48007e-22
1.27998e-22
2.75778e-22
1.08662e-22
1.29573e-22
1.02458e-22
1.22383e-22
9.2585e-23
1.05954e-22
8.43631e-23
7.10443e-23
8.98979e-23
5.91974e-23
7.28038e-23
-4.8785e-25
9.49936e-23
2.21847e-23
8.03864e-23
3.95563e-23
-4.30192e-23
8.97248e-23
3.58202e-23
1.16902e-21
8.4254e-23
8.98882e-22
1.30129e-22
8.54064e-22
1.40754e-22
6.95904e-22
1.4476e-22
5.20387e-22
1.51796e-22
3.74781e-22
1.17578e-22
1.79268e-22
1.08118e-22
1.50302e-22
9.72275e-23
1.42244e-22
9.08486e-23
1.21841e-22
8.01437e-23
8.80534e-23
7.9163e-23
2.85602e-23
7.60297e-23
4.31029e-23
9.25e-23
7.70427e-23
7.87723e-23
3.20948e-23
-2.80058e-23
8.54255e-23
-7.28063e-23
8.22014e-22
2.87857e-23
1.0712e-21
7.30146e-23
8.46111e-22
1.1837e-22
8.85446e-22
1.2403e-22
6.60077e-22
1.31703e-22
5.16215e-22
1.37774e-22
3.66629e-22
1.11711e-22
2.04572e-22
1.05715e-22
1.99197e-22
9.77123e-23
1.1392e-22
8.1933e-23
5.4873e-23
7.75051e-23
1.34238e-22
7.58166e-23
2.28071e-23
7.7524e-23
4.45867e-23
8.8259e-23
6.35375e-23
7.60902e-23
2.95189e-23
-4.5734e-23
7.91259e-23
-6.30191e-23
7.6664e-22
2.49496e-23
9.85087e-22
6.98893e-23
8.30097e-22
1.02767e-22
8.40574e-22
1.13345e-22
6.17114e-22
1.18475e-22
5.00318e-22
1.23884e-22
3.96178e-22
1.09022e-22
1.82667e-22
9.77125e-23
2.1059e-22
9.68505e-23
1.51207e-22
8.29096e-23
1.11031e-23
7.16273e-23
6.62755e-23
7.5131e-23
-2.80349e-23
7.86844e-23
4.46927e-23
8.38306e-23
2.54276e-23
7.08354e-23
-3.23325e-25
-3.85748e-23
7.49088e-23
-9.99921e-23
5.96203e-22
-5.43548e-23
7.21385e-22
2.13712e-23
9.0107e-22
6.60373e-23
7.73809e-22
8.54999e-23
7.6786e-22
1.01765e-22
5.97874e-22
1.10206e-22
4.39495e-22
1.10699e-22
3.62571e-22
1.08976e-22
2.08052e-22
9.0075e-23
1.95877e-22
8.66019e-23
1.5437e-22
8.31683e-23
1.32156e-23
6.74753e-23
5.10619e-23
7.95567e-23
3.15112e-23
7.94381e-23
9.67165e-23
8.02331e-23
3.04218e-23
6.78764e-23
1.7648e-23
-2.49321e-23
7.26426e-23
-8.6899e-23
6.27748e-22
-4.84242e-23
6.67904e-22
2.1047e-23
8.25597e-22
6.08999e-23
7.65284e-22
7.5891e-23
6.69892e-22
8.70151e-23
5.98892e-22
1.02477e-22
4.87475e-22
1.00529e-22
3.60936e-22
1.03723e-22
3.03577e-22
8.41606e-23
2.15586e-22
7.85694e-23
1.53416e-22
7.9603e-23
5.25669e-23
7.03589e-23
5.55861e-23
8.07149e-23
-2.20249e-23
7.5782e-23
5.04478e-23
7.51093e-23
3.15417e-23
6.78629e-23
2.9306e-23
-2.82505e-23
7.00721e-23
-8.00029e-23
5.05191e-22
-4.22364e-23
6.29534e-22
1.96579e-23
8.38029e-22
5.23718e-23
7.71373e-22
7.03498e-23
6.03988e-22
8.16635e-23
5.72497e-22
9.11888e-23
4.60912e-22
9.90094e-23
3.94171e-22
9.47847e-23
3.07734e-22
8.13681e-23
1.95762e-22
7.48744e-23
1.14564e-22
7.76111e-23
8.49385e-23
6.54628e-23
6.38791e-23
8.23181e-23
7.83053e-23
7.72608e-23
6.1209e-23
7.28543e-23
3.52212e-23
6.4186e-23
1.5046e-23
1.94213e-23
6.47773e-23
-7.19346e-23
5.17143e-22
-3.20154e-23
6.37536e-22
1.91923e-23
7.87137e-22
4.06471e-23
7.57622e-22
6.68661e-23
6.12741e-22
7.78747e-23
5.62213e-22
8.61953e-23
4.37878e-22
9.58479e-23
3.82615e-22
8.49682e-23
2.67067e-22
7.26941e-23
1.63384e-22
6.96768e-23
1.13323e-22
7.46643e-23
6.03341e-23
6.38153e-23
7.49913e-23
7.6666e-23
5.92549e-23
7.70916e-23
6.82436e-23
7.07771e-23
2.45772e-23
6.47622e-23
7.14611e-23
-4.19244e-23
5.93838e-23
-6.20818e-23
5.17583e-22
-2.4797e-23
6.49282e-22
2.05605e-23
7.40131e-22
3.22204e-23
6.15243e-22
6.17598e-23
5.55256e-22
6.77121e-23
5.21205e-22
8.1272e-23
4.18971e-22
9.1038e-23
3.86544e-22
7.79119e-23
2.70795e-22
6.74405e-23
1.5252e-22
6.89338e-23
9.89497e-23
7.46958e-23
8.41136e-23
6.59525e-23
8.97799e-23
7.37747e-23
5.21461e-23
7.29529e-23
7.54072e-23
6.87291e-23
3.37465e-23
5.8764e-23
4.67554e-24
-3.8126e-23
6.05776e-23
-5.25835e-23
5.22747e-22
-2.08576e-23
6.36836e-22
1.47884e-23
7.10599e-22
2.94351e-23
5.98749e-22
5.81637e-23
6.04081e-22
6.14134e-23
5.11658e-22
7.57323e-23
4.06201e-22
8.30391e-23
3.7249e-22
7.2797e-23
2.45167e-22
6.28188e-23
1.47035e-22
6.73496e-23
1.26172e-22
7.18946e-23
8.11324e-23
6.48994e-23
6.1448e-23
7.17898e-23
5.29091e-23
7.21274e-23
7.57883e-23
6.51568e-23
1.64608e-23
5.66954e-23
-5.97918e-23
-3.88708e-23
6.0463e-23
-4.59261e-23
4.47133e-22
-1.84684e-23
6.10743e-22
8.89398e-24
6.51979e-22
2.91278e-23
6.33749e-22
5.20722e-23
5.66656e-22
5.72415e-23
5.414e-22
7.24888e-23
4.80309e-22
7.54198e-23
3.68283e-22
6.60547e-23
2.35106e-22
6.01222e-23
2.18651e-22
6.46015e-23
1.24671e-22
7.2607e-23
7.11095e-23
6.28941e-23
3.99637e-23
7.27854e-23
5.26113e-23
6.74268e-23
6.61552e-23
6.02278e-23
-1.56616e-24
5.78118e-23
-1.01564e-23
-4.65009e-23
6.05726e-23
-3.818e-23
4.16228e-22
-1.65184e-23
5.93448e-22
8.54425e-24
6.3534e-22
2.45298e-23
5.84394e-22
4.80469e-23
5.51933e-22
5.25833e-23
5.27766e-22
6.66315e-23
4.66152e-22
6.75749e-23
3.65322e-22
6.54864e-23
3.15057e-22
5.39895e-23
2.17812e-22
6.22274e-23
1.47134e-22
6.87929e-23
6.30681e-23
6.31858e-23
-2.95277e-23
7.17682e-23
6.47694e-23
6.33579e-23
3.62733e-23
5.73e-23
2.51372e-24
5.63536e-23
3.2089e-23
-2.00863e-23
5.8158e-23
-2.92292e-23
4.21943e-22
-1.37885e-23
5.74966e-22
8.19956e-24
5.81311e-22
2.23984e-23
5.78513e-22
4.73989e-23
5.91893e-22
4.86535e-23
5.24412e-22
5.83212e-23
4.16362e-22
6.5643e-23
3.82028e-22
6.2799e-23
3.18197e-22
4.69048e-23
2.22366e-22
5.82854e-23
2.04813e-22
6.51027e-23
6.01506e-23
6.57346e-23
-2.30545e-23
6.9302e-23
7.77763e-23
6.06548e-23
5.36702e-23
5.65736e-23
-4.0699e-23
5.34965e-23
4.91096e-23
-2.70631e-23
5.48689e-23
-2.29441e-23
3.82543e-22
-1.2624e-23
5.26416e-22
7.25113e-24
5.22109e-22
2.3232e-23
5.84181e-22
4.20845e-23
5.96534e-22
4.05316e-23
4.47745e-22
5.71377e-23
3.94921e-22
5.96823e-23
3.69924e-22
5.83375e-23
3.21438e-22
4.55665e-23
1.85878e-22
5.20084e-23
1.65467e-22
5.9862e-23
2.82588e-23
6.89793e-23
4.26842e-24
6.84573e-23
6.76582e-23
5.6322e-23
5.79913e-23
6.10528e-23
-5.5993e-23
4.80145e-23
-6.34974e-23
-3.2191e-23
5.39126e-23
-1.78967e-23
4.40029e-22
-1.26836e-23
5.08034e-22
8.96978e-24
4.97341e-22
2.26001e-23
5.50119e-22
3.69725e-23
5.6141e-22
3.63446e-23
4.40309e-22
5.80665e-23
4.54601e-22
5.59748e-23
3.60632e-22
5.2951e-23
3.17194e-22
4.33604e-23
2.23848e-22
4.3825e-23
1.66901e-22
5.82336e-23
9.9225e-23
6.89133e-23
1.25306e-22
6.62771e-23
7.528e-23
5.15605e-23
5.95844e-23
5.91077e-23
1.02312e-23
5.01075e-23
-8.79811e-23
-3.70925e-23
5.1152e-23
-1.83308e-23
5.11368e-22
-1.21487e-23
4.88028e-22
1.11788e-23
4.64815e-22
2.48676e-23
5.27622e-22
3.08192e-23
4.83891e-22
3.23213e-23
3.91371e-22
5.58441e-23
4.51199e-22
5.31788e-23
3.22655e-22
5.0844e-23
2.69326e-22
3.74431e-23
2.03052e-22
4.24141e-23
1.68158e-22
5.80356e-23
8.88752e-23
7.02158e-23
1.13167e-22
6.2924e-23
4.4602e-23
5.11716e-23
3.05381e-23
5.16893e-23
-3.58236e-23
5.39598e-23
-1.15677e-23
-3.39127e-23
4.94724e-23
-2.14553e-23
4.54085e-22
-1.23988e-23
4.7155e-22
1.36681e-23
5.0953e-22
2.1403e-23
5.17558e-22
2.92278e-23
4.87138e-22
3.3629e-23
3.96762e-22
5.25247e-23
5.06978e-22
4.81156e-23
3.09174e-22
4.76927e-23
1.67608e-22
3.39109e-23
1.41953e-22
4.10477e-23
1.64545e-22
5.67329e-23
7.2148e-23
7.04151e-23
1.00536e-22
5.98763e-23
-3.02656e-23
5.28067e-23
5.57891e-23
5.18907e-23
-1.03998e-22
5.30493e-23
-1.77207e-23
-3.60747e-23
4.79099e-23
-2.14412e-23
4.30882e-22
-1.14439e-23
5.33994e-22
1.29596e-23
4.84024e-22
1.93641e-23
5.16019e-22
2.92107e-23
4.66146e-22
3.49802e-23
3.41187e-22
4.6353e-23
4.3453e-22
4.2511e-23
2.99959e-22
4.73443e-23
2.8474e-22
3.18462e-23
8.16367e-23
3.93698e-23
1.60667e-22
5.70535e-23
5.53205e-23
6.57222e-23
1.3207e-22
5.9084e-23
6.57922e-24
4.89479e-23
4.89884e-23
5.28055e-23
-4.05134e-23
5.09586e-23
-2.42997e-23
-9.82018e-24
4.68792e-23
-1.77935e-23
3.74298e-22
-1.34083e-23
4.54661e-22
1.3858e-23
4.50241e-22
1.63664e-23
5.20035e-22
2.63048e-23
4.84167e-22
3.64762e-23
3.16982e-22
4.36055e-23
4.24172e-22
3.70871e-23
2.15559e-22
4.16232e-23
2.63658e-22
3.42965e-23
9.91458e-23
3.64785e-23
1.63748e-22
5.58934e-23
1.16846e-22
6.31898e-23
1.47446e-22
5.76881e-23
5.31411e-23
4.71807e-23
1.28893e-22
5.1881e-23
-9.83653e-23
5.26359e-23
-5.50238e-23
-5.28253e-23
4.41367e-23
-1.79374e-23
3.51541e-22
-1.42717e-23
3.68036e-22
-1.18039e-23
4.36666e-22
1.47449e-23
3.8725e-22
1.34255e-23
3.96924e-22
2.16619e-23
4.64935e-22
3.86098e-23
3.5971e-22
3.8138e-23
3.7671e-22
3.57254e-23
2.05734e-22
3.63725e-23
2.51286e-22
3.51269e-23
1.39585e-22
3.66281e-23
1.69482e-22
5.55736e-23
1.05741e-22
5.84121e-23
1.53408e-22
5.6233e-23
4.93643e-23
4.35301e-23
1.18722e-22
4.86836e-23
-7.0021e-23
5.2511e-23
-1.98747e-23
-5.97105e-23
4.29058e-23
-1.72368e-23
3.36181e-22
-1.10415e-23
3.80774e-22
-1.28363e-23
3.76771e-22
1.32392e-23
3.45072e-22
1.46502e-23
3.94048e-22
1.88889e-23
4.10145e-22
3.51944e-23
3.29162e-22
3.40553e-23
3.39686e-22
3.50719e-23
1.98251e-22
3.53823e-23
2.3703e-22
3.31047e-23
1.38296e-22
3.54994e-23
1.9255e-22
5.1916e-23
9.72612e-23
5.67047e-23
1.43419e-22
5.40034e-23
5.0962e-23
3.97744e-23
7.96145e-23
4.60956e-23
-6.83387e-23
5.30639e-23
5.5482e-24
-7.36858e-23
4.57171e-23
-3.32622e-23
3.56915e-22
-1.60493e-23
2.98598e-22
-1.1472e-23
2.98216e-22
-1.2203e-23
3.01558e-22
1.37181e-23
3.30665e-22
1.52599e-23
3.85539e-22
1.95026e-23
3.9593e-22
3.31682e-23
3.07293e-22
3.08761e-23
3.33557e-22
3.38361e-23
1.89094e-22
3.4615e-23
2.64579e-22
3.42686e-23
1.41147e-22
3.44282e-23
1.15941e-22
5.4065e-23
1.10501e-22
5.48e-23
1.4649e-22
5.22542e-23
6.72722e-23
3.77761e-23
7.54535e-23
4.49828e-23
-6.53634e-23
4.92095e-23
-1.4327e-24
3.42309e-23
4.83886e-23
-3.49598e-23
3.54079e-22
-1.61768e-23
3.43708e-22
-1.15811e-23
2.87882e-22
-1.02595e-23
3.04444e-22
1.34705e-23
3.193e-22
1.38808e-23
3.51392e-22
1.97046e-23
3.80341e-22
3.1977e-23
2.91364e-22
2.86716e-23
3.35791e-22
3.21792e-23
1.72813e-22
3.12176e-23
2.55661e-22
3.15623e-23
1.37321e-22
3.50706e-23
1.27627e-22
5.51678e-23
9.50477e-23
5.17e-23
1.46815e-22
4.96046e-23
5.189e-23
3.37955e-23
7.23703e-23
4.48126e-23
1.74699e-23
4.76077e-23
-7.33179e-24
-1.08242e-23
4.58254e-23
-3.52526e-23
2.44962e-22
-1.93464e-23
3.96401e-22
-9.70895e-24
2.86637e-22
-9.42313e-24
3.1133e-22
1.34038e-23
3.09933e-22
1.30491e-23
2.74737e-22
1.81893e-23
3.65667e-22
3.1131e-23
2.79193e-22
2.54207e-23
3.06947e-22
3.37276e-23
2.38575e-22
3.00223e-23
2.49247e-22
2.81152e-23
1.70642e-22
3.45839e-23
1.7608e-22
5.35498e-23
1.65558e-22
4.74555e-23
1.44423e-22
4.97369e-23
4.6588e-24
3.57499e-23
-2.45873e-23
4.11294e-23
8.93652e-24
4.59079e-23
-1.74573e-23
-2.90943e-23
4.33016e-23
-2.90165e-23
3.02e-22
-2.33923e-23
3.72945e-22
-1.01613e-23
3.42937e-22
-9.89152e-24
3.28233e-22
1.23735e-23
2.96691e-22
1.36874e-23
2.67238e-22
1.80519e-23
3.50483e-22
3.08895e-23
3.25091e-22
2.34694e-23
3.19114e-22
3.27253e-23
2.5844e-22
2.73367e-23
2.4443e-22
2.80125e-23
1.63693e-22
3.49523e-23
1.81769e-22
5.31719e-23
1.59971e-22
4.41969e-23
1.13133e-22
5.03732e-23
5.39093e-23
3.73066e-23
-6.09565e-23
3.81727e-23
-2.6882e-23
4.91684e-23
1.21709e-24
-3.40692e-23
4.1447e-23
-2.60441e-23
3.06851e-22
-2.44223e-23
3.62542e-22
-1.01866e-23
3.05345e-22
-9.79425e-24
2.84768e-22
1.05294e-23
2.65532e-22
1.63837e-23
2.88797e-22
1.73745e-23
3.3738e-22
2.97751e-23
3.54742e-22
2.15728e-23
2.52801e-22
3.10544e-23
2.94706e-22
2.62125e-23
2.57767e-22
2.72247e-23
2.03451e-22
3.38394e-23
1.91977e-22
4.97964e-23
1.60793e-22
4.19838e-23
1.20457e-22
4.50352e-23
2.44893e-23
3.88619e-23
-4.36739e-23
3.82719e-23
-9.50482e-23
4.52516e-23
-7.06018e-24
-4.48927e-23
4.17427e-23
-2.40018e-23
3.05715e-22
-2.66731e-23
3.11744e-22
-1.25613e-23
3.44182e-22
-9.89154e-24
2.60709e-22
1.17008e-23
2.91472e-22
1.6693e-23
3.16715e-22
1.84539e-23
3.06234e-22
2.68276e-23
3.64596e-22
2.1268e-23
2.59642e-22
2.93539e-23
2.8159e-22
2.51771e-23
2.45621e-22
2.66585e-23
1.76541e-22
3.02792e-23
2.03413e-22
4.99393e-23
2.42357e-22
4.07715e-23
1.56463e-22
3.96384e-23
-2.28512e-23
3.52044e-23
5.49487e-23
4.18701e-23
-1.54401e-23
4.67563e-23
-1.14995e-23
-7.85499e-23
3.93205e-23
-2.3807e-23
2.67265e-22
-2.45545e-23
3.14834e-22
-1.44878e-23
3.24603e-22
-8.84648e-24
2.58571e-22
1.17746e-23
2.72221e-22
1.77247e-23
3.14026e-22
1.97088e-23
2.5586e-22
2.48091e-23
2.82525e-22
2.17584e-23
1.84063e-22
2.78685e-23
2.80176e-22
2.39616e-23
2.51077e-22
2.59566e-23
1.14404e-22
3.24283e-23
2.22525e-22
4.52856e-23
2.80456e-22
3.63212e-23
9.89045e-23
4.09089e-23
-1.3661e-23
3.11319e-23
2.27938e-23
3.99492e-23
1.80427e-23
4.34181e-23
-2.45721e-23
-3.62867e-24
4.31721e-23
-2.31852e-23
2.63985e-22
-2.39828e-23
2.36676e-22
-1.68628e-23
2.76279e-22
-1.0247e-23
2.48544e-22
1.53331e-23
3.77763e-22
1.64219e-23
3.15413e-22
1.76656e-23
2.5575e-22
2.53804e-23
3.16902e-22
2.24003e-23
2.00213e-22
2.74971e-23
3.05426e-22
2.10509e-23
1.80312e-22
2.70912e-23
1.59072e-22
3.44186e-23
2.63359e-22
3.83252e-23
2.00895e-22
3.32289e-23
1.41606e-22
4.05253e-23
5.436e-23
3.13685e-23
2.4494e-23
3.67572e-23
1.92541e-23
4.40691e-23
4.50899e-23
-8.56942e-24
3.98003e-23
-2.4088e-23
2.19712e-22
-2.20306e-23
2.78998e-22
-1.62716e-23
3.13225e-22
-8.24696e-24
2.34778e-22
1.30889e-23
3.61267e-22
1.55604e-23
3.11583e-22
1.75678e-23
2.63263e-22
2.39028e-23
3.40132e-22
2.32976e-23
2.094e-22
2.485e-23
3.12211e-22
2.14541e-23
1.83673e-22
2.77534e-23
1.5699e-22
3.17425e-23
2.76687e-22
3.98278e-23
1.96463e-22
3.0003e-23
1.44004e-22
3.84068e-23
3.28525e-23
3.06635e-23
3.14498e-23
3.78822e-23
1.04294e-23
4.24936e-23
-8.65278e-23
-2.24699e-23
3.75565e-23
-2.28372e-23
2.23477e-22
-2.18204e-23
2.47774e-22
-1.77965e-23
3.12614e-22
-6.7392e-24
1.97481e-22
1.32181e-23
3.40957e-22
1.42651e-23
3.56184e-22
1.73043e-23
2.72396e-22
2.33337e-23
3.40107e-22
2.35434e-23
2.15472e-22
2.17162e-23
3.21565e-22
2.26726e-23
1.90462e-22
3.00825e-23
1.55649e-22
2.85563e-23
2.12242e-22
3.81311e-23
2.13243e-22
2.73943e-23
1.59498e-22
3.7548e-23
9.49138e-24
2.74649e-23
4.00456e-23
3.73759e-23
3.13086e-23
4.23143e-23
-4.09578e-23
-4.6023e-23
3.6488e-23
-2.24828e-23
1.93502e-22
-2.05806e-23
2.62071e-22
-1.93884e-23
2.98833e-22
-5.15528e-24
1.72317e-22
1.45333e-23
3.67234e-22
1.19958e-23
2.53684e-22
1.81203e-23
2.13917e-22
2.18345e-23
3.7303e-22
2.34652e-23
1.90882e-22
1.91842e-23
2.60276e-22
2.21831e-23
2.06441e-22
2.89274e-23
2.01767e-22
2.83695e-23
2.25446e-22
3.54126e-23
2.11215e-22
2.42997e-23
1.75578e-22
3.65038e-23
7.38953e-23
2.57531e-23
4.51357e-23
3.44713e-23
-1.99023e-23
4.15013e-23
2.72735e-23
-4.39359e-23
3.93592e-23
-1.95642e-23
1.91007e-22
-2.03922e-23
2.49721e-22
-2.01825e-23
2.938e-22
-3.20282e-24
2.10929e-22
1.34236e-23
3.49633e-22
1.18367e-23
2.64009e-22
1.82835e-23
2.01741e-22
1.9884e-23
3.22195e-22
2.27963e-23
1.93872e-22
1.92098e-23
2.66013e-22
2.30561e-23
2.00187e-22
2.98459e-23
1.18413e-22
2.83708e-23
1.56466e-22
3.47053e-23
2.09702e-22
2.20935e-23
2.26173e-22
3.31582e-23
5.42154e-23
2.35329e-23
4.73119e-23
3.46128e-23
3.25448e-23
3.93043e-23
4.14039e-24
-4.76092e-23
4.03647e-23
-1.69257e-23
1.82694e-22
-2.04666e-23
2.39971e-22
-2.03312e-23
2.94377e-22
-1.39258e-24
1.80086e-22
1.22111e-23
3.35999e-22
1.10376e-23
2.68913e-22
1.9264e-23
1.90502e-22
1.84965e-23
2.76862e-22
2.27405e-23
1.94023e-22
1.65225e-23
2.32042e-22
2.21389e-23
3.19108e-22
2.88418e-23
1.22497e-22
2.9521e-23
1.70143e-22
3.4359e-23
2.77761e-22
1.87143e-23
1.13737e-22
3.21443e-23
3.8342e-23
2.39575e-23
5.3263e-23
3.27166e-23
8.51129e-23
3.8879e-23
6.20645e-23
-5.59785e-23
3.78868e-23
-1.48006e-23
1.73479e-22
-1.99871e-23
2.04497e-22
-2.121e-23
2.67413e-22
1.37282e-24
2.87376e-22
1.14555e-23
3.25783e-22
1.0228e-23
2.94919e-22
1.98573e-23
2.534e-22
1.89082e-23
3.02245e-22
2.19428e-23
1.9144e-22
1.84299e-23
2.28668e-22
1.92982e-23
3.03988e-22
2.86188e-23
1.28619e-22
3.17488e-23
9.50767e-23
3.17021e-23
2.00735e-22
1.85629e-23
8.87512e-23
3.08384e-23
2.60429e-23
2.30759e-23
5.25605e-23
3.28615e-23
5.57165e-23
3.49041e-23
4.32254e-23
1.8942e-23
3.7958e-23
-1.24429e-23
1.93041e-22
-2.03787e-23
1.72203e-22
-1.93043e-23
2.81067e-22
-1.12574e-24
2.73933e-22
1.23064e-23
2.8234e-22
8.8515e-24
2.88168e-22
1.98955e-23
2.67999e-22
1.81422e-23
2.63065e-22
2.17758e-23
2.18971e-22
1.99566e-23
2.17243e-22
1.71138e-23
2.88823e-22
2.64511e-23
1.28774e-22
3.40623e-23
1.39292e-22
2.80052e-23
1.29743e-22
1.6227e-23
1.87444e-22
3.07924e-23
8.44615e-23
2.35937e-23
5.87106e-23
3.1294e-23
-7.82396e-24
3.45987e-23
1.05579e-22
1.6435e-23
3.51592e-23
-1.15023e-23
1.79975e-22
-1.88176e-23
1.08163e-22
-1.83684e-23
2.09937e-22
-1.06194e-24
2.57721e-22
1.28965e-23
2.65592e-22
9.09412e-24
2.13025e-22
1.94868e-23
2.59454e-22
1.80226e-23
2.06995e-22
2.17768e-23
1.78096e-22
1.98045e-23
2.032e-22
1.41737e-23
1.9983e-22
2.62026e-23
5.48169e-23
3.38285e-23
1.46506e-22
2.81566e-23
6.77982e-23
1.39927e-23
8.48695e-23
2.95444e-23
7.31704e-23
2.21016e-23
6.38577e-23
3.19803e-23
-2.64926e-23
3.32213e-23
1.0227e-22
-5.37979e-23
3.11757e-23
-1.16243e-23
1.70214e-22
-1.74916e-23
1.16616e-22
-1.66866e-23
1.36426e-22
-1.28873e-25
2.71308e-22
1.10418e-23
2.22059e-22
9.24345e-24
1.77607e-22
1.77507e-23
2.43771e-22
1.86943e-23
1.91518e-22
2.16313e-23
1.67495e-22
2.09229e-23
2.09684e-22
1.16877e-23
1.52862e-22
2.65264e-23
1.26604e-22
3.26986e-23
1.56338e-22
2.66572e-23
6.80173e-23
1.45051e-23
1.43763e-22
2.79614e-23
7.70356e-23
2.09363e-23
6.8073e-23
3.33173e-23
3.63502e-23
3.13456e-23
9.22162e-23
-4.219e-24
2.97512e-23
-1.15846e-23
1.87483e-22
-1.80292e-23
1.74952e-22
-1.32378e-23
1.44812e-22
-2.28366e-24
2.63763e-22
1.0228e-23
2.1095e-22
1.14901e-23
1.67892e-22
1.61668e-23
2.38186e-22
1.89081e-23
1.32072e-22
2.18456e-23
1.48312e-22
1.92113e-23
1.92214e-22
1.27271e-23
1.44682e-22
2.57908e-23
1.15666e-22
3.13934e-23
1.53359e-22
2.67006e-23
7.42373e-23
1.23014e-23
9.28895e-23
2.78497e-23
1.15853e-22
1.9857e-23
2.88421e-23
3.24069e-23
2.22758e-23
3.08993e-23
1.61166e-22
8.90364e-24
2.64424e-23
-1.05535e-23
1.9425e-22
-2.00378e-23
2.00701e-22
-9.5457e-24
1.80642e-22
-4.61087e-24
2.31039e-22
1.05783e-23
2.11256e-22
1.29711e-23
1.83779e-22
1.35547e-23
2.31664e-22
1.9346e-23
1.96337e-22
2.24789e-23
1.64354e-22
1.76189e-23
1.85589e-22
1.24515e-23
9.63221e-23
2.61999e-23
1.72276e-22
2.96024e-23
1.66544e-22
2.77904e-23
9.46114e-23
1.02488e-23
1.24181e-22
2.58764e-23
1.53868e-22
2.10892e-23
2.61678e-23
3.23227e-23
3.79447e-25
2.90178e-23
1.58901e-22
1.58661e-23
2.2354e-23
-9.2955e-24
2.05766e-22
-2.07191e-23
2.23205e-22
-7.96739e-24
1.86675e-22
-6.4954e-24
2.38691e-22
1.07042e-23
3.21802e-22
1.25795e-23
1.82691e-22
1.4361e-23
2.22698e-22
1.76368e-23
1.436e-22
2.26628e-23
1.73202e-22
1.76647e-23
1.23482e-22
1.33367e-23
1.13132e-22
2.46392e-23
1.50545e-22
2.91078e-23
1.41895e-22
2.8412e-23
8.95567e-23
1.00695e-23
1.30922e-23
2.24815e-23
1.08405e-22
2.01448e-23
4.18178e-24
3.34927e-23
5.65984e-23
2.57051e-23
1.41615e-22
2.88175e-23
2.03486e-23
-8.1138e-24
1.93363e-22
-2.19378e-23
1.57791e-22
-6.03697e-24
1.86167e-22
-5.67727e-24
1.69505e-22
8.6106e-24
3.23416e-22
1.2456e-23
1.86488e-22
1.27842e-23
2.11143e-22
1.81494e-23
1.9315e-22
2.17563e-23
1.9117e-22
1.83065e-23
1.12814e-22
1.2372e-23
1.3225e-22
2.48715e-23
2.15396e-22
2.74882e-23
1.3625e-22
2.78297e-23
8.12427e-23
9.92867e-24
3.53857e-24
2.14628e-23
1.12963e-22
2.08648e-23
3.78546e-24
3.19512e-23
4.48062e-23
2.46257e-23
1.59787e-22
5.45403e-23
1.67619e-23
-8.40865e-24
1.75527e-22
-2.20935e-23
1.47575e-22
-5.26189e-24
1.81627e-22
-4.00982e-24
1.60732e-22
7.07021e-24
3.14118e-22
1.18574e-23
1.69755e-22
1.20129e-23
2.03362e-22
1.70361e-23
1.67374e-22
2.15e-23
1.67581e-22
1.79221e-23
1.23021e-22
1.34231e-23
1.09385e-22
2.33685e-23
1.56886e-22
2.56587e-23
8.38522e-23
2.62697e-23
4.9525e-23
9.96718e-24
-5.60455e-23
2.02098e-23
5.75712e-23
2.07817e-23
5.0828e-25
3.19507e-23
3.44122e-23
2.34143e-23
1.06364e-22
2.4857e-24
-8.21892e-24
-2.28603e-23
-4.51017e-24
-2.5517e-24
5.30213e-24
1.747e-22
1.11533e-23
1.74632e-22
1.2194e-23
2.00261e-22
1.68206e-23
1.53431e-22
2.09926e-23
1.61722e-22
1.84915e-23
9.40926e-23
1.28721e-23
7.6652e-23
2.28493e-23
1.82093e-22
2.5346e-23
1.03626e-22
2.40701e-23
7.91541e-23
1.04498e-23
-1.30525e-22
2.04462e-23
-2.07181e-23
2.00698e-23
4.63216e-23
3.18655e-23
2.28095e-23
2.12637e-23
2.72274e-23
9.4698e-24
4.74323e-24
1.13527e-23
1.12039e-23
1.6685e-23
1.99331e-23
8.60648e-23
1.89825e-23
1.03014e-22
1.21261e-23
1.69303e-23
2.15348e-23
1.40512e-22
2.30156e-23
9.84271e-23
2.16291e-23
1.42508e-22
1.13889e-23
-1.10427e-22
2.12277e-23
-2.57698e-23
2.00225e-23
9.47824e-23
3.08638e-23
7.34167e-23
2.07464e-23
6.1263e-24
-6.37529e-23
1.97741e-23
1.90973e-23
1.30164e-23
2.17346e-23
2.32669e-23
1.72408e-23
1.26067e-23
2.1763e-23
1.80073e-23
3.02366e-23
1.968e-23
-3.08754e-23
-3.10516e-23
2.14879e-23
-2.71664e-23
-2.9366e-23
-4.08965e-23
2.84349e-23
6.11085e-24
-2.24887e-23
-3.96581e-23
2.56621e-23
1.77476e-24
-1.66195e-23
-3.98405e-23
2.45014e-23
-4.69308e-23
1.00957e-24
6.01091e-24
-1.0875e-23
-2.73359e-23
2.50139e-23
-4.42709e-23
-9.29842e-23
-3.13603e-23
-1.83118e-23
-3.46052e-23
2.50723e-23
-3.91702e-23
-7.00715e-23
-2.72404e-23
5.7742e-23
2.09123e-23
-2.40956e-23
-4.05794e-23
2.71157e-23
-2.7448e-23
-5.79405e-23
-2.76353e-23
-1.66947e-23
-4.01325e-24
-2.46648e-23
-1.75867e-23
2.82662e-23
-2.39438e-23
-4.90682e-23
-2.34683e-23
-1.77022e-23
1.92154e-23
-2.7754e-23
-4.94879e-23
2.80417e-23
-2.1882e-23
-6.94748e-24
-2.36755e-23
-5.35967e-24
-2.04302e-23
-1.26572e-23
1.38679e-23
-2.83489e-23
-4.34217e-23
3.22593e-23
-2.15375e-23
4.97747e-24
-1.95013e-23
3.19153e-24
-1.61624e-23
7.89893e-23
4.9511e-23
-2.87282e-23
-4.05206e-23
3.54543e-23
-2.04904e-23
2.0394e-23
-1.48048e-23
9.80437e-24
-1.56895e-23
5.15651e-23
6.40554e-23
-3.18252e-23
-6.08992e-24
3.50601e-23
-1.40064e-23
8.92717e-23
-1.24531e-23
1.48055e-23
-1.54496e-23
6.39162e-23
2.65166e-23
-2.80482e-23
-2.68265e-23
3.20908e-23
-1.28628e-23
1.62413e-22
-9.97365e-24
4.91698e-23
-1.63576e-23
4.20588e-23
6.23172e-23
-2.05686e-23
-9.00531e-24
3.11062e-23
-1.52903e-23
1.21378e-22
-1.24656e-23
5.63493e-23
-1.46941e-23
8.40954e-23
6.44899e-23
-1.8724e-23
1.73675e-23
2.57847e-23
-1.53058e-23
7.8048e-23
-1.28689e-23
5.29891e-23
-1.3102e-23
7.886e-23
-1.14636e-23
1.19604e-23
2.76604e-23
-1.29726e-23
-2.56022e-23
2.18297e-23
-1.63625e-23
2.47674e-23
-1.10082e-23
6.79274e-23
-1.64762e-23
4.62525e-23
-9.17546e-24
3.78548e-23
3.6988e-23
-8.45238e-24
1.29255e-22
2.36045e-23
-1.43023e-23
-2.14332e-23
-1.12265e-23
4.49976e-23
-1.77447e-23
5.4385e-23
-8.74346e-24
2.76555e-23
-2.5931e-23
2.03486e-23
1.60679e-22
-1.59654e-23
1.00663e-22
1.4509e-23
-1.03309e-23
5.22462e-23
-1.29215e-23
2.05434e-23
-1.65668e-23
2.57805e-23
-8.91015e-24
6.99512e-23
-2.12556e-23
-6.47923e-24
-2.73369e-23
1.26377e-22
4.83414e-23
-1.27108e-23
7.81938e-23
1.35167e-23
-1.37205e-23
1.24749e-23
-1.17122e-23
3.23866e-23
-1.53982e-23
-7.73748e-24
-9.22413e-24
3.73694e-23
-1.62255e-23
5.44608e-23
-3.14569e-23
1.12076e-22
-3.84713e-23
5.74744e-23
4.14009e-23
-1.28013e-23
5.99637e-23
1.26702e-23
-1.35785e-23
-1.39564e-23
-1.11634e-23
7.70795e-23
-1.58112e-23
-2.15042e-24
-7.87818e-24
2.27167e-23
-1.62275e-23
-6.89469e-24
-3.07804e-23
5.47554e-23
-3.99389e-23
9.4948e-23
-1.28431e-23
1.42628e-22
1.02964e-22
-1.12715e-23
6.01827e-23
1.23792e-23
-1.4823e-23
2.93956e-23
-1.07792e-23
1.24136e-22
-1.90701e-23
3.54433e-24
-4.22998e-24
1.33024e-22
-1.632e-23
6.45565e-23
-2.65797e-23
1.05662e-22
-3.74896e-23
9.35259e-23
-1.38631e-23
1.58468e-22
1.4286e-22
-7.85823e-24
8.62571e-23
1.47007e-23
-1.22561e-23
-8.2893e-23
-1.33385e-23
5.35738e-23
-1.39217e-23
-2.36748e-23
-3.24967e-24
9.12733e-23
-1.70976e-23
1.10692e-23
-2.51317e-23
1.18722e-22
-3.51852e-23
9.44326e-23
-1.51175e-23
1.45385e-22
1.30712e-22
-9.29874e-24
7.98691e-23
1.38607e-23
-1.11836e-23
-3.1762e-23
-1.21385e-23
1.01182e-22
-1.37354e-23
-2.56971e-23
-6.7349e-24
7.04133e-23
-1.29972e-23
-3.67454e-24
-2.47091e-23
9.9248e-23
-3.31663e-23
1.38836e-22
-1.66438e-23
1.35416e-22
1.13508e-22
-7.81717e-24
3.90563e-23
1.44424e-23
-8.44894e-24
-6.08253e-23
-1.39445e-23
4.71279e-23
-1.02506e-23
-2.91895e-23
-8.42711e-24
6.26222e-23
-9.01237e-24
-3.08859e-24
-2.45487e-23
8.37065e-23
-3.27517e-23
2.1193e-23
-1.67331e-23
9.28925e-23
7.90651e-23
-8.67215e-24
4.54988e-24
1.51078e-23
-1.07928e-23
-4.81372e-23
-9.91107e-24
1.09176e-22
-1.06942e-23
-2.55832e-23
-8.56657e-24
1.38885e-23
-5.97532e-24
3.82133e-23
-2.16265e-23
9.78369e-23
-3.12757e-23
3.41221e-23
-1.64365e-23
9.20412e-23
8.91636e-23
-8.67467e-24
7.29333e-24
1.66726e-23
-7.60052e-24
-5.30279e-23
-1.31601e-23
1.17948e-22
-1.14885e-23
-3.45721e-23
-7.80501e-24
3.65789e-23
-5.22908e-24
3.82378e-23
-2.49834e-23
-6.63967e-24
-2.80723e-23
3.95431e-23
-1.83206e-23
9.44922e-23
9.38735e-23
-1.1817e-23
-1.38244e-23
1.57052e-23
-1.52549e-24
-4.28065e-23
-1.63469e-23
6.34842e-24
-9.77241e-24
-4.73478e-23
-5.01937e-24
2.66489e-23
-7.83364e-24
4.45205e-24
-2.27777e-23
-1.71105e-23
-2.62936e-23
5.05455e-23
-1.63333e-23
9.68912e-23
9.84781e-23
-9.29337e-24
-2.78041e-23
1.90094e-23
-2.40176e-24
-1.11374e-23
-1.43736e-23
1.9299e-23
-1.12689e-23
-2.35136e-23
-2.97289e-24
9.28058e-23
-6.7054e-24
4.08709e-24
-2.08805e-23
-6.91824e-23
-2.37786e-23
2.73276e-23
-1.75742e-23
9.9826e-23
9.46229e-23
-8.74831e-24
-1.13199e-23
2.3019e-23
-7.03002e-24
-1.74134e-23
-1.04932e-23
2.56818e-23
-1.00226e-23
-2.56662e-23
-5.52801e-24
1.56659e-22
-1.00629e-23
-2.21435e-25
-1.69245e-23
-6.14117e-23
-2.25289e-23
8.35918e-24
-1.62089e-23
1.03624e-22
1.0107e-22
-5.45233e-24
4.26917e-23
2.36249e-23
-4.66789e-24
-1.86794e-23
-1.13968e-23
7.54727e-23
-7.45072e-24
-2.2713e-23
-5.91683e-24
1.16771e-22
-1.05059e-23
-4.56078e-24
-1.43408e-23
2.07296e-23
-1.98058e-23
1.6686e-23
-1.45389e-23
1.30931e-22
5.92815e-23
-5.40965e-24
1.01987e-22
2.46062e-23
-6.04112e-24
-1.49041e-23
-1.01294e-23
7.19902e-23
-5.83062e-24
3.33971e-24
-7.6707e-24
1.47009e-22
-1.07999e-23
-8.68595e-24
-1.3004e-23
5.37439e-23
-1.60402e-23
2.39647e-23
-1.56402e-23
1.08617e-22
5.8758e-23
-8.7088e-24
1.85955e-23
-3.25339e-24
-1.13719e-23
-3.51006e-24
-9.19999e-24
-8.71582e-24
-1.40419e-23
-1.52826e-23
-1.46866e-23
5.34843e-23
3.04092e-23
1.8305e-23
2.49709e-23
1.3918e-23