/*--------------------------------*- C++ -*----------------------------------*\
  =========                 |
  \\      /  F ield         | OpenFOAM: The Open Source CFD Toolbox
   \\    /   O peration     | Website:  https://openfoam.org
    \\  /    A nd           | Version:  7
     \\/     M anipulation  |
\*---------------------------------------------------------------------------*/
FoamFile
{
    version     2.0;
    format      ascii;
    class       volScalarField;
    location    "276000";
    object      nu;
}
// * * * * * * * * * * * * * * * * * * * * * * * * * * * * * * * * * * * * * //

dimensions      [0 2 -1 0 0 0 0];

internalField   nonuniform List<scalar> 
4783
(
6.70061e-05
7.0753e-05
7.36867e-05
7.78337e-05
8.29865e-05
8.91413e-05
9.64211e-05
0.000105042
0.00011531
0.000127622
0.000142464
0.000160381
0.000181916
0.000207509
0.000237357
0.00027128
0.000308621
0.000348273
0.000388508
0.000427357
0.000462982
0.000493884
5.16332e-05
5.89527e-05
6.15109e-05
6.46072e-05
6.83508e-05
7.27667e-05
7.78906e-05
8.37885e-05
9.05616e-05
9.83448e-05
0.000107304
0.000117627
0.000129502
0.000143086
0.000158461
0.000175582
0.000194226
0.000213969
0.000234169
0.000254002
0.000272547
0.000288883
4.50613e-05
5.19571e-05
5.46209e-05
5.72913e-05
6.01905e-05
6.34384e-05
6.70986e-05
7.12135e-05
7.58227e-05
8.09704e-05
8.67079e-05
9.309e-05
0.000100169
0.000107984
0.000116541
0.000125799
0.000135645
0.000145883
0.000156228
0.000166311
0.000175703
0.000183949
4.10068e-05
4.65339e-05
4.89353e-05
5.13266e-05
5.37777e-05
5.63726e-05
5.91753e-05
6.22281e-05
6.55585e-05
6.91854e-05
7.31231e-05
7.7382e-05
8.19673e-05
8.68748e-05
9.20855e-05
9.75584e-05
0.000103223
0.000108973
0.000114665
0.000120121
0.000125136
0.000129493
3.78776e-05
4.23297e-05
4.4322e-05
4.63719e-05
4.84684e-05
5.06337e-05
5.29006e-05
5.52979e-05
5.78459e-05
6.0556e-05
6.34325e-05
6.64732e-05
6.967e-05
7.30076e-05
7.64619e-05
7.9998e-05
8.35672e-05
8.71059e-05
9.05342e-05
9.37584e-05
9.66743e-05
9.91744e-05
3.52876e-05
3.89586e-05
4.05978e-05
4.23134e-05
4.40859e-05
4.59106e-05
4.77944e-05
4.97489e-05
5.17845e-05
5.39071e-05
5.61174e-05
5.84107e-05
6.07768e-05
6.32e-05
6.5659e-05
6.81262e-05
7.05669e-05
7.29396e-05
7.5196e-05
7.72822e-05
7.91407e-05
8.0714e-05
3.30856e-05
3.61681e-05
3.75384e-05
3.89756e-05
4.04686e-05
4.20085e-05
4.35916e-05
4.52184e-05
4.68909e-05
4.86101e-05
5.03739e-05
5.21772e-05
5.40105e-05
5.58606e-05
5.77103e-05
5.95385e-05
6.13202e-05
6.30269e-05
6.46271e-05
6.60869e-05
6.7372e-05
6.84488e-05
3.11817e-05
3.38054e-05
3.49713e-05
3.61896e-05
3.74548e-05
3.87604e-05
4.01006e-05
4.14714e-05
4.28702e-05
4.42945e-05
4.57404e-05
4.72023e-05
4.86718e-05
5.01382e-05
5.15879e-05
5.30049e-05
5.43707e-05
5.5665e-05
5.68661e-05
5.79513e-05
5.88984e-05
5.96859e-05
2.95142e-05
3.17713e-05
3.27782e-05
3.38251e-05
3.49088e-05
3.60251e-05
3.71689e-05
3.83355e-05
3.95204e-05
4.07194e-05
4.19277e-05
4.31395e-05
4.43473e-05
4.55423e-05
4.67136e-05
4.78488e-05
4.89341e-05
4.99544e-05
5.08942e-05
5.17374e-05
5.24687e-05
5.30736e-05
2.80383e-05
2.99977e-05
3.08778e-05
3.17883e-05
3.27273e-05
3.36915e-05
3.46769e-05
3.56791e-05
3.66936e-05
3.77157e-05
3.87403e-05
3.97618e-05
4.07736e-05
4.1768e-05
4.27363e-05
4.36687e-05
4.45545e-05
4.53823e-05
4.61404e-05
4.68172e-05
4.74014e-05
4.78827e-05
2.67204e-05
2.84348e-05
2.92116e-05
3.0012e-05
3.08341e-05
3.16753e-05
3.25325e-05
3.34018e-05
3.42791e-05
3.51598e-05
3.60392e-05
3.6912e-05
3.77722e-05
3.86134e-05
3.94283e-05
4.0209e-05
4.0947e-05
4.16335e-05
4.22594e-05
4.2816e-05
4.32947e-05
4.3688e-05
2.55348e-05
2.70452e-05
2.77367e-05
2.84466e-05
2.91731e-05
2.99139e-05
3.06665e-05
3.14274e-05
3.21931e-05
3.29594e-05
3.3722e-05
3.44762e-05
3.52167e-05
3.59378e-05
3.66336e-05
3.72975e-05
3.79225e-05
3.85018e-05
3.90281e-05
3.94945e-05
3.98947e-05
4.02226e-05
2.44611e-05
2.58002e-05
2.64203e-05
2.70548e-05
2.7702e-05
2.83599e-05
2.90262e-05
2.96979e-05
3.0372e-05
3.10448e-05
3.17123e-05
3.23704e-05
3.30146e-05
3.36398e-05
3.4241e-05
3.48128e-05
3.53494e-05
3.58451e-05
3.62942e-05
3.66913e-05
3.70311e-05
3.7309e-05
2.34833e-05
2.46771e-05
2.52368e-05
2.58078e-05
2.63885e-05
2.69771e-05
2.75715e-05
2.81692e-05
2.87673e-05
2.93627e-05
2.9952e-05
3.05313e-05
3.10968e-05
3.16442e-05
3.21691e-05
3.26669e-05
3.31328e-05
3.35621e-05
3.39502e-05
3.42925e-05
3.45849e-05
3.48237e-05
2.25881e-05
2.36579e-05
2.4166e-05
2.46829e-05
2.52073e-05
2.57374e-05
2.62713e-05
2.68068e-05
2.73414e-05
2.78722e-05
2.83963e-05
2.89104e-05
2.94109e-05
2.98943e-05
3.03567e-05
3.07941e-05
3.12026e-05
3.15783e-05
3.19171e-05
3.22154e-05
2.17648e-05
2.2728e-05
2.31916e-05
2.36622e-05
2.41384e-05
2.46186e-05
2.51011e-05
2.5584e-05
2.60648e-05
2.65413e-05
2.70107e-05
2.74701e-05
2.79164e-05
2.83465e-05
2.8757e-05
2.91446e-05
2.95059e-05
2.98375e-05
3.0136e-05
2.10044e-05
2.18755e-05
2.23005e-05
2.27309e-05
2.31655e-05
2.36029e-05
2.40414e-05
2.44793e-05
2.49144e-05
2.53447e-05
2.57677e-05
2.61808e-05
2.65815e-05
2.69668e-05
2.73339e-05
2.76799e-05
2.80018e-05
2.02995e-05
2.10903e-05
2.14816e-05
2.18771e-05
2.22757e-05
2.26759e-05
2.30764e-05
2.34755e-05
2.38714e-05
2.42621e-05
2.46455e-05
2.50192e-05
2.5381e-05
2.57284e-05
1.96436e-05
2.03643e-05
2.0726e-05
2.10909e-05
2.14579e-05
2.18258e-05
2.21933e-05
2.25588e-05
2.29207e-05
2.32772e-05
2.36265e-05
2.39664e-05
1.90314e-05
1.96905e-05
2.0026e-05
2.03639e-05
2.07032e-05
2.10427e-05
2.13813e-05
2.17175e-05
2.20498e-05
2.23767e-05
1.84583e-05
1.9063e-05
1.93752e-05
1.96892e-05
2.0004e-05
2.03185e-05
2.06316e-05
2.09421e-05
2.12485e-05
1.79203e-05
1.84768e-05
1.87682e-05
1.90609e-05
1.93539e-05
1.96462e-05
1.99369e-05
2.02246e-05
1.74139e-05
1.79275e-05
1.82003e-05
1.84739e-05
1.87475e-05
1.90201e-05
1.92907e-05
1.69362e-05
1.74114e-05
1.76675e-05
1.7924e-05
1.81801e-05
1.8435e-05
1.64844e-05
1.69253e-05
1.71663e-05
1.74073e-05
1.76478e-05
1.78868e-05
1.60563e-05
1.64664e-05
1.66936e-05
1.69207e-05
1.7147e-05
1.56499e-05
1.60321e-05
1.62468e-05
1.64613e-05
1.52633e-05
1.56203e-05
1.58237e-05
1.60265e-05
1.48949e-05
1.52291e-05
1.5422e-05
1.45434e-05
1.48567e-05
1.50401e-05
1.42073e-05
1.45017e-05
1.46763e-05
1.38855e-05
1.41627e-05
1.43291e-05
1.3577e-05
1.38384e-05
1.39973e-05
1.32809e-05
1.35277e-05
1.36797e-05
1.29963e-05
1.32297e-05
1.33753e-05
1.27225e-05
1.29435e-05
1.30831e-05
1.24586e-05
1.26683e-05
1.28023e-05
1.22042e-05
1.24033e-05
1.25321e-05
1.19585e-05
1.21479e-05
1.22718e-05
1.17211e-05
1.19015e-05
1.20207e-05
1.14915e-05
1.16634e-05
1.17784e-05
1.12691e-05
1.14333e-05
1.15442e-05
6.7006e-05
5.16332e-05
4.50613e-05
4.10068e-05
3.78776e-05
3.52876e-05
3.30856e-05
3.11817e-05
2.95142e-05
2.80383e-05
2.67204e-05
2.55348e-05
2.44611e-05
2.34833e-05
2.25881e-05
2.17648e-05
2.10044e-05
2.02995e-05
1.96436e-05
1.90314e-05
1.84583e-05
1.79203e-05
1.74139e-05
1.69362e-05
1.64844e-05
1.60563e-05
1.56499e-05
1.52633e-05
1.48949e-05
1.45434e-05
1.42073e-05
1.38855e-05
1.3577e-05
1.32809e-05
1.29963e-05
1.27225e-05
1.24586e-05
1.22042e-05
1.19585e-05
1.17211e-05
1.14915e-05
1.12691e-05
7.0753e-05
5.89527e-05
5.19571e-05
4.65339e-05
4.23297e-05
3.89586e-05
3.61681e-05
3.38053e-05
3.17713e-05
2.99977e-05
2.84348e-05
2.70452e-05
2.58002e-05
2.46771e-05
2.36579e-05
2.2728e-05
2.18755e-05
2.10903e-05
2.03643e-05
1.96905e-05
1.9063e-05
1.84768e-05
1.79275e-05
1.74114e-05
1.69253e-05
1.64664e-05
1.60321e-05
1.56203e-05
1.52291e-05
1.48567e-05
1.45017e-05
1.41627e-05
1.38384e-05
1.35277e-05
1.32297e-05
1.29435e-05
1.26683e-05
1.24033e-05
1.21479e-05
1.19015e-05
1.16634e-05
1.14333e-05
7.36867e-05
6.15109e-05
5.46209e-05
4.89353e-05
4.4322e-05
4.05978e-05
3.75384e-05
3.49713e-05
3.27782e-05
3.08778e-05
2.92116e-05
2.77367e-05
2.64203e-05
2.52368e-05
2.4166e-05
2.31916e-05
2.23005e-05
2.14816e-05
2.0726e-05
2.0026e-05
1.93752e-05
1.87682e-05
1.82003e-05
1.76675e-05
1.71663e-05
1.66936e-05
1.62468e-05
1.58237e-05
1.5422e-05
1.50401e-05
1.46763e-05
1.43291e-05
1.39973e-05
1.36797e-05
1.33753e-05
1.30831e-05
1.28023e-05
1.25321e-05
1.22718e-05
1.20207e-05
1.17784e-05
1.15442e-05
7.78336e-05
6.46071e-05
5.72913e-05
5.13265e-05
4.63719e-05
4.23134e-05
3.89756e-05
3.61896e-05
3.38251e-05
3.17883e-05
3.0012e-05
2.84466e-05
2.70548e-05
2.58078e-05
2.46829e-05
2.36622e-05
2.27309e-05
2.18771e-05
2.10909e-05
2.03639e-05
1.96892e-05
1.90609e-05
1.84739e-05
1.7924e-05
1.74073e-05
1.69207e-05
1.64613e-05
1.60265e-05
1.56143e-05
1.52227e-05
1.485e-05
1.44947e-05
1.41553e-05
1.38307e-05
1.35197e-05
1.32215e-05
1.29351e-05
1.26596e-05
1.23944e-05
1.21387e-05
1.18921e-05
1.16538e-05
8.29865e-05
6.83508e-05
6.01905e-05
5.37777e-05
4.84683e-05
4.40859e-05
4.04686e-05
3.74548e-05
3.49088e-05
3.27273e-05
3.08341e-05
2.9173e-05
2.7702e-05
2.63884e-05
2.52073e-05
2.41383e-05
2.31655e-05
2.22757e-05
2.14579e-05
2.07032e-05
2.0004e-05
1.93539e-05
1.87475e-05
1.81801e-05
1.76478e-05
1.7147e-05
1.66747e-05
1.62283e-05
1.58054e-05
1.5404e-05
1.50223e-05
1.46587e-05
1.43117e-05
1.39801e-05
1.36626e-05
1.33583e-05
1.30663e-05
1.27855e-05
1.25154e-05
1.22552e-05
1.20042e-05
1.17619e-05
8.91413e-05
7.27667e-05
6.34384e-05
5.63726e-05
5.06337e-05
4.59106e-05
4.20085e-05
3.87604e-05
3.60251e-05
3.36915e-05
3.16753e-05
2.99139e-05
2.83599e-05
2.69771e-05
2.57374e-05
2.46186e-05
2.36029e-05
2.26759e-05
2.18258e-05
2.10427e-05
2.03185e-05
1.96462e-05
1.90201e-05
1.8435e-05
1.78868e-05
1.73716e-05
1.68864e-05
1.64282e-05
1.59946e-05
1.55834e-05
1.51927e-05
1.48208e-05
1.44662e-05
1.41275e-05
1.38035e-05
1.34932e-05
1.31955e-05
1.29095e-05
1.26345e-05
1.23697e-05
1.21144e-05
1.18681e-05
9.64211e-05
7.78905e-05
6.70986e-05
5.91753e-05
5.29006e-05
4.77944e-05
4.35916e-05
4.01005e-05
3.71689e-05
3.46768e-05
3.25325e-05
3.06664e-05
2.90261e-05
2.75715e-05
2.62713e-05
2.51011e-05
2.40414e-05
2.30764e-05
2.21933e-05
2.13813e-05
2.06316e-05
1.99369e-05
1.92907e-05
1.86878e-05
1.81235e-05
1.75939e-05
1.70956e-05
1.66255e-05
1.61812e-05
1.57601e-05
1.53604e-05
1.49803e-05
1.4618e-05
1.42723e-05
1.39419e-05
1.36255e-05
1.33222e-05
1.30311e-05
1.27512e-05
1.24818e-05
1.22223e-05
1.19721e-05
0.000105042
8.37885e-05
7.12135e-05
6.22281e-05
5.52979e-05
4.97489e-05
4.52184e-05
4.14714e-05
3.83354e-05
3.56791e-05
3.34018e-05
3.14274e-05
2.96979e-05
2.81692e-05
2.68068e-05
2.55839e-05
2.44792e-05
2.34755e-05
2.25588e-05
2.17175e-05
2.09421e-05
2.02246e-05
1.95582e-05
1.89373e-05
1.8357e-05
1.78129e-05
1.73015e-05
1.68196e-05
1.63645e-05
1.59337e-05
1.5525e-05
1.51366e-05
1.47668e-05
1.44141e-05
1.40772e-05
1.37549e-05
1.34461e-05
1.31498e-05
1.28651e-05
1.25913e-05
1.23276e-05
1.20734e-05
0.00011531
9.05615e-05
7.58226e-05
6.55585e-05
5.78459e-05
5.17844e-05
4.68909e-05
4.28702e-05
3.95203e-05
3.66936e-05
3.42791e-05
3.2193e-05
3.0372e-05
2.87673e-05
2.73414e-05
2.60648e-05
2.49144e-05
2.38714e-05
2.29207e-05
2.20498e-05
2.12485e-05
2.05082e-05
1.98216e-05
1.91827e-05
1.85862e-05
1.80277e-05
1.75033e-05
1.70097e-05
1.65438e-05
1.61033e-05
1.56857e-05
1.52892e-05
1.49119e-05
1.45524e-05
1.42091e-05
1.38809e-05
1.35666e-05
1.32652e-05
1.29758e-05
1.26976e-05
1.24298e-05
1.21717e-05
0.000127622
9.83448e-05
8.09704e-05
6.91853e-05
6.0556e-05
5.39071e-05
4.861e-05
4.42945e-05
4.07193e-05
3.77157e-05
3.51598e-05
3.29594e-05
3.10447e-05
2.93627e-05
2.78722e-05
2.65413e-05
2.53447e-05
2.42621e-05
2.32772e-05
2.23766e-05
2.15494e-05
2.07862e-05
2.00795e-05
1.94227e-05
1.88102e-05
1.82374e-05
1.77001e-05
1.71948e-05
1.67184e-05
1.62682e-05
1.58419e-05
1.54374e-05
1.50527e-05
1.46864e-05
1.43369e-05
1.40029e-05
1.36833e-05
1.33769e-05
1.30829e-05
1.28004e-05
1.25286e-05
1.22668e-05
0.000142464
0.000107304
8.67078e-05
7.3123e-05
6.34324e-05
5.61174e-05
5.03739e-05
4.57404e-05
4.19277e-05
3.87403e-05
3.60392e-05
3.3722e-05
3.17123e-05
2.99519e-05
2.83963e-05
2.70107e-05
2.57677e-05
2.46454e-05
2.36264e-05
2.26963e-05
2.18432e-05
2.10574e-05
2.03307e-05
1.96562e-05
1.90279e-05
1.8441e-05
1.78909e-05
1.73742e-05
1.68874e-05
1.64278e-05
1.59929e-05
1.55805e-05
1.51887e-05
1.48157e-05
1.44601e-05
1.41205e-05
1.37957e-05
1.34845e-05
1.3186e-05
1.28993e-05
1.26236e-05
1.23581e-05
0.000160381
0.000117627
9.30899e-05
7.7382e-05
6.64732e-05
5.84107e-05
5.21771e-05
4.72022e-05
4.31394e-05
3.97618e-05
3.69119e-05
3.44762e-05
3.23704e-05
3.05313e-05
2.89104e-05
2.747e-05
2.61808e-05
2.50192e-05
2.39663e-05
2.30069e-05
2.21284e-05
2.13203e-05
2.05739e-05
1.98819e-05
1.92382e-05
1.86373e-05
1.80749e-05
1.75469e-05
1.705e-05
1.65812e-05
1.6138e-05
1.57179e-05
1.53191e-05
1.49398e-05
1.45783e-05
1.42332e-05
1.39033e-05
1.35874e-05
1.32846e-05
1.29938e-05
1.27143e-05
1.24453e-05
1.21861e-05
0.000181916
0.000129502
0.000100169
8.19672e-05
6.967e-05
6.07768e-05
5.40104e-05
4.86718e-05
4.43473e-05
4.07736e-05
3.77722e-05
3.52166e-05
3.30145e-05
3.10968e-05
2.94109e-05
2.79164e-05
2.65814e-05
2.5381e-05
2.42948e-05
2.33067e-05
2.24031e-05
2.15732e-05
2.08076e-05
2.00987e-05
1.94398e-05
1.88255e-05
1.8251e-05
1.77122e-05
1.72055e-05
1.67278e-05
1.62765e-05
1.5849e-05
1.54435e-05
1.50579e-05
1.46907e-05
1.43404e-05
1.40057e-05
1.36853e-05
1.33783e-05
1.30836e-05
1.28005e-05
1.25281e-05
1.22657e-05
1.20127e-05
0.000207508
0.000143086
0.000107984
8.68747e-05
7.30075e-05
6.32e-05
5.58605e-05
5.01382e-05
4.55423e-05
4.1768e-05
3.86134e-05
3.59378e-05
3.36398e-05
3.16442e-05
2.98943e-05
2.83465e-05
2.69667e-05
2.57283e-05
2.46097e-05
2.35936e-05
2.26658e-05
2.18147e-05
2.10305e-05
2.03051e-05
1.96317e-05
1.90045e-05
1.84183e-05
1.78691e-05
1.73529e-05
1.68667e-05
1.64076e-05
1.59732e-05
1.55611e-05
1.51697e-05
1.4797e-05
1.44417e-05
1.41023e-05
1.37777e-05
1.34667e-05
1.31683e-05
1.28817e-05
1.26061e-05
1.23407e-05
1.20849e-05
0.000237357
0.000158461
0.000116541
9.20854e-05
7.64618e-05
6.5659e-05
5.77103e-05
5.15879e-05
4.67135e-05
4.27363e-05
3.94283e-05
3.66336e-05
3.4241e-05
3.21691e-05
3.03566e-05
2.8757e-05
2.73339e-05
2.60587e-05
2.49087e-05
2.38657e-05
2.29146e-05
2.20431e-05
2.12411e-05
2.05e-05
1.98127e-05
1.91731e-05
1.85759e-05
1.80167e-05
1.74916e-05
1.69972e-05
1.65308e-05
1.60896e-05
1.56715e-05
1.52744e-05
1.48966e-05
1.45365e-05
1.41928e-05
1.38641e-05
1.35493e-05
1.32475e-05
1.29577e-05
1.2679e-05
1.24108e-05
1.21523e-05
1.19029e-05
0.000271279
0.000175581
0.000125799
9.75583e-05
7.99979e-05
6.81261e-05
5.95385e-05
5.30048e-05
4.78487e-05
4.36687e-05
4.0209e-05
3.72974e-05
3.48127e-05
3.26668e-05
3.07941e-05
2.91446e-05
2.76798e-05
2.63695e-05
2.51897e-05
2.4121e-05
2.31477e-05
2.22569e-05
2.1438e-05
2.06821e-05
1.99817e-05
1.93303e-05
1.87227e-05
1.81541e-05
1.76206e-05
1.71186e-05
1.66453e-05
1.61978e-05
1.57739e-05
1.53716e-05
1.4989e-05
1.46245e-05
1.42766e-05
1.39441e-05
1.36259e-05
1.33208e-05
1.30279e-05
1.27464e-05
1.24756e-05
1.22146e-05
1.19629e-05
0.00030862
0.000194226
0.000135645
0.000103223
8.35671e-05
7.05668e-05
6.13202e-05
5.43706e-05
4.8934e-05
4.45544e-05
4.0947e-05
3.79225e-05
3.53493e-05
3.31327e-05
3.12026e-05
2.95059e-05
2.80017e-05
2.66583e-05
2.54503e-05
2.43575e-05
2.33634e-05
2.24546e-05
2.162e-05
2.08502e-05
2.01374e-05
1.94752e-05
1.88579e-05
1.82806e-05
1.77392e-05
1.72302e-05
1.67504e-05
1.62971e-05
1.58679e-05
1.54608e-05
1.50737e-05
1.47051e-05
1.43534e-05
1.40175e-05
1.3696e-05
1.33879e-05
1.30922e-05
1.28081e-05
1.25348e-05
1.22716e-05
1.20177e-05
1.17727e-05
0.000348272
0.000213968
0.000145883
0.000108973
8.71058e-05
7.29395e-05
6.30269e-05
5.56649e-05
4.99544e-05
4.53822e-05
4.16334e-05
3.85017e-05
3.5845e-05
3.35621e-05
3.15782e-05
2.98374e-05
2.82967e-05
2.69225e-05
2.56885e-05
2.45734e-05
2.35602e-05
2.26347e-05
2.17855e-05
2.1003e-05
2.0279e-05
1.96068e-05
1.89805e-05
1.83952e-05
1.78467e-05
1.73313e-05
1.68456e-05
1.6387e-05
1.5953e-05
1.55414e-05
1.51502e-05
1.47779e-05
1.44228e-05
1.40836e-05
1.37592e-05
1.34484e-05
1.31502e-05
1.28637e-05
1.25882e-05
1.23229e-05
1.20671e-05
1.18203e-05
1.15818e-05
0.000388507
0.000234169
0.000156227
0.000114665
9.05341e-05
7.5196e-05
6.4627e-05
5.6866e-05
5.08941e-05
4.61403e-05
4.22594e-05
3.9028e-05
3.62942e-05
3.39501e-05
3.1917e-05
3.0136e-05
2.85619e-05
2.71598e-05
2.59021e-05
2.47669e-05
2.37362e-05
2.27958e-05
2.19335e-05
2.11394e-05
2.04053e-05
1.97241e-05
1.90898e-05
1.84974e-05
1.79424e-05
1.74212e-05
1.69303e-05
1.64669e-05
1.60285e-05
1.5613e-05
1.52182e-05
1.48425e-05
1.44843e-05
1.41424e-05
1.38153e-05
1.3502e-05
1.32015e-05
1.2913e-05
1.26355e-05
1.23683e-05
1.21108e-05
1.18624e-05
1.16224e-05
0.000427356
0.000254001
0.000166311
0.000120121
9.37583e-05
7.72821e-05
6.60868e-05
5.79512e-05
5.17374e-05
4.68171e-05
4.28159e-05
3.94945e-05
3.66912e-05
3.42924e-05
3.22154e-05
3.03984e-05
2.87947e-05
2.73678e-05
2.60892e-05
2.49361e-05
2.38902e-05
2.29365e-05
2.20626e-05
2.12585e-05
2.05154e-05
1.98263e-05
1.9185e-05
1.85863e-05
1.80257e-05
1.74994e-05
1.70039e-05
1.65364e-05
1.60942e-05
1.56751e-05
1.52772e-05
1.48986e-05
1.45378e-05
1.41933e-05
1.38639e-05
1.35485e-05
1.32461e-05
1.29557e-05
1.26765e-05
1.24077e-05
1.21487e-05
1.18989e-05
1.16576e-05
0.000462981
0.000272546
0.000175703
0.000125136
9.66742e-05
7.91406e-05
6.73719e-05
5.88983e-05
5.24686e-05
4.74013e-05
4.32946e-05
3.98946e-05
3.7031e-05
3.45848e-05
3.24698e-05
3.0622e-05
2.89928e-05
2.75446e-05
2.62481e-05
2.50797e-05
2.40207e-05
2.30556e-05
2.2172e-05
2.13592e-05
2.06085e-05
1.99127e-05
1.92655e-05
1.86614e-05
1.8096e-05
1.75654e-05
1.7066e-05
1.65949e-05
1.61495e-05
1.57276e-05
1.53269e-05
1.49458e-05
1.45827e-05
1.42362e-05
1.39049e-05
1.35877e-05
1.32836e-05
1.29916e-05
1.2711e-05
1.24408e-05
1.21806e-05
1.19295e-05
1.16871e-05
0.000493882
0.000288882
0.000183948
0.000129492
9.91742e-05
8.07139e-05
6.84487e-05
5.96858e-05
5.30735e-05
4.78826e-05
4.36879e-05
4.02225e-05
3.73089e-05
3.48236e-05
3.26773e-05
3.08041e-05
2.91539e-05
2.76884e-05
2.63771e-05
2.51963e-05
2.41266e-05
2.31523e-05
2.22606e-05
2.14408e-05
2.06839e-05
1.99827e-05
1.93305e-05
1.87222e-05
1.81529e-05
1.76187e-05
1.71162e-05
1.66422e-05
1.61942e-05
1.57699e-05
1.53671e-05
1.4984e-05
1.4619e-05
1.42708e-05
1.39379e-05
1.36192e-05
1.33138e-05
1.30206e-05
1.27387e-05
1.24675e-05
1.22062e-05
1.19542e-05
1.17109e-05
1.14758e-05
0.00051838
0.00030209
0.000190606
0.000132982
0.000101156
8.19486e-05
6.92867e-05
6.0295e-05
5.35393e-05
4.82521e-05
4.3989e-05
4.04731e-05
3.7521e-05
3.50056e-05
3.28353e-05
3.09426e-05
2.92764e-05
2.77975e-05
2.64751e-05
2.52847e-05
2.42069e-05
2.32255e-05
2.23277e-05
2.15025e-05
2.0741e-05
2.00356e-05
1.93798e-05
1.87681e-05
1.81959e-05
1.76591e-05
1.71541e-05
1.6678e-05
1.6228e-05
1.58018e-05
1.53974e-05
1.50128e-05
1.46464e-05
1.42969e-05
1.39628e-05
1.36431e-05
1.33366e-05
1.30424e-05
1.27597e-05
1.24877e-05
1.22256e-05
1.19729e-05
1.17289e-05
1.14931e-05
0.000535239
0.000311367
0.000195289
0.000135422
0.000102531
8.27993e-05
6.98606e-05
6.07103e-05
5.38558e-05
4.85026e-05
4.41928e-05
4.06425e-05
3.76642e-05
3.51283e-05
3.29417e-05
3.10359e-05
2.93589e-05
2.7871e-05
2.6541e-05
2.53442e-05
2.42608e-05
2.32747e-05
2.23728e-05
2.1544e-05
2.07794e-05
2.00711e-05
1.94128e-05
1.87989e-05
1.82247e-05
1.76861e-05
1.71795e-05
1.6702e-05
1.62507e-05
1.58233e-05
1.54177e-05
1.50321e-05
1.46648e-05
1.43144e-05
1.39795e-05
1.3659e-05
1.33519e-05
1.3057e-05
1.27737e-05
1.25011e-05
1.22386e-05
1.19853e-05
1.17409e-05
1.15046e-05
1.12761e-05
0.000543812
0.00031615
0.000197706
0.000136678
0.000103236
8.32333e-05
7.01523e-05
6.09208e-05
5.4016e-05
4.86291e-05
4.42957e-05
4.07279e-05
3.77364e-05
3.51901e-05
3.29953e-05
3.10828e-05
2.94004e-05
2.79079e-05
2.65741e-05
2.53741e-05
2.42879e-05
2.32995e-05
2.23954e-05
2.15649e-05
2.07986e-05
2.00889e-05
1.94294e-05
1.88144e-05
1.82392e-05
1.76997e-05
1.71923e-05
1.6714e-05
1.6262e-05
1.5834e-05
1.54279e-05
1.50418e-05
1.4674e-05
1.43232e-05
1.39879e-05
1.3667e-05
1.33595e-05
1.30644e-05
1.27808e-05
1.25079e-05
1.22451e-05
1.19916e-05
1.17469e-05
1.15104e-05
1.12817e-05
0.000543812
0.00031615
0.000197706
0.000136678
0.000103236
8.32333e-05
7.01523e-05
6.09208e-05
5.4016e-05
4.86291e-05
4.42957e-05
4.07279e-05
3.77364e-05
3.51901e-05
3.29953e-05
3.10828e-05
2.94004e-05
2.79079e-05
2.65741e-05
2.53741e-05
2.42879e-05
2.32995e-05
2.23954e-05
2.15649e-05
2.07986e-05
2.00889e-05
1.94294e-05
1.88144e-05
1.82392e-05
1.76997e-05
1.71923e-05
1.6714e-05
1.6262e-05
1.5834e-05
1.54279e-05
1.50418e-05
1.4674e-05
1.43232e-05
1.39879e-05
1.3667e-05
1.33595e-05
1.30644e-05
1.27808e-05
1.25079e-05
1.22451e-05
1.19916e-05
1.17469e-05
1.15104e-05
1.12817e-05
1.10603e-05
0.000535239
0.000311367
0.000195289
0.000135422
0.000102531
8.27993e-05
6.98606e-05
6.07103e-05
5.38558e-05
4.85026e-05
4.41928e-05
4.06425e-05
3.76642e-05
3.51283e-05
3.29417e-05
3.10359e-05
2.93589e-05
2.7871e-05
2.6541e-05
2.53442e-05
2.42608e-05
2.32747e-05
2.23728e-05
2.1544e-05
2.07794e-05
2.00711e-05
1.94128e-05
1.87989e-05
1.82247e-05
1.76861e-05
1.71795e-05
1.6702e-05
1.62507e-05
1.58233e-05
1.54177e-05
1.50321e-05
1.46648e-05
1.43144e-05
1.39795e-05
1.3659e-05
1.33519e-05
1.3057e-05
1.27737e-05
1.25011e-05
1.22386e-05
1.19853e-05
1.17409e-05
1.15046e-05
1.12761e-05
1.10549e-05
0.00051838
0.00030209
0.000190607
0.000132982
0.000101156
8.19486e-05
6.92867e-05
6.0295e-05
5.35393e-05
4.82521e-05
4.3989e-05
4.04731e-05
3.7521e-05
3.50056e-05
3.28353e-05
3.09426e-05
2.92764e-05
2.77975e-05
2.64751e-05
2.52847e-05
2.42069e-05
2.32255e-05
2.23277e-05
2.15025e-05
2.0741e-05
2.00356e-05
1.93798e-05
1.87681e-05
1.81959e-05
1.76591e-05
1.71541e-05
1.6678e-05
1.6228e-05
1.58018e-05
1.53974e-05
1.50128e-05
1.46464e-05
1.42969e-05
1.39628e-05
1.36431e-05
1.33366e-05
1.30424e-05
1.27597e-05
1.24877e-05
1.22256e-05
1.19729e-05
1.17289e-05
1.14931e-05
1.1265e-05
1.10441e-05
0.000493882
0.000288882
0.000183949
0.000129493
9.91742e-05
8.07139e-05
6.84487e-05
5.96858e-05
5.30735e-05
4.78826e-05
4.36879e-05
4.02225e-05
3.73089e-05
3.48236e-05
3.26773e-05
3.08041e-05
2.91539e-05
2.76884e-05
2.63771e-05
2.51963e-05
2.41266e-05
2.31523e-05
2.22606e-05
2.14408e-05
2.06839e-05
1.99827e-05
1.93305e-05
1.87222e-05
1.81529e-05
1.76187e-05
1.71162e-05
1.66422e-05
1.61942e-05
1.57699e-05
1.53671e-05
1.4984e-05
1.4619e-05
1.42708e-05
1.39379e-05
1.36192e-05
1.33138e-05
1.30206e-05
1.27387e-05
1.24675e-05
1.22062e-05
1.19542e-05
1.17109e-05
1.14757e-05
1.12483e-05
1.1028e-05
0.000462981
0.000272546
0.000175703
0.000125136
9.66742e-05
7.91406e-05
6.73719e-05
5.88983e-05
5.24687e-05
4.74013e-05
4.32947e-05
3.98946e-05
3.7031e-05
3.45848e-05
3.24698e-05
3.0622e-05
2.89928e-05
2.75446e-05
2.62481e-05
2.50797e-05
2.40207e-05
2.30556e-05
2.2172e-05
2.13592e-05
2.06085e-05
1.99127e-05
1.92654e-05
1.86614e-05
1.8096e-05
1.75654e-05
1.7066e-05
1.65949e-05
1.61495e-05
1.57275e-05
1.53269e-05
1.49458e-05
1.45827e-05
1.42362e-05
1.39049e-05
1.35877e-05
1.32836e-05
1.29916e-05
1.27109e-05
1.24408e-05
1.21806e-05
1.19295e-05
1.16871e-05
1.14528e-05
1.12261e-05
1.10066e-05
0.000427357
0.000254001
0.000166311
0.000120121
9.37583e-05
7.72821e-05
6.60869e-05
5.79513e-05
5.17374e-05
4.68171e-05
4.28159e-05
3.94945e-05
3.66912e-05
3.42924e-05
3.22154e-05
3.03984e-05
2.87947e-05
2.73678e-05
2.60892e-05
2.49361e-05
2.38902e-05
2.29365e-05
2.20626e-05
2.12584e-05
2.05154e-05
1.98263e-05
1.9185e-05
1.85863e-05
1.80257e-05
1.74994e-05
1.70039e-05
1.65364e-05
1.60942e-05
1.56751e-05
1.52772e-05
1.48986e-05
1.45378e-05
1.41933e-05
1.38639e-05
1.35485e-05
1.32461e-05
1.29557e-05
1.26765e-05
1.24077e-05
1.21487e-05
1.18989e-05
1.16576e-05
1.14243e-05
1.11986e-05
1.098e-05
0.000388508
0.000234169
0.000156228
0.000114665
9.05342e-05
7.5196e-05
6.4627e-05
5.6866e-05
5.08941e-05
4.61404e-05
4.22594e-05
3.9028e-05
3.62942e-05
3.39501e-05
3.1917e-05
3.0136e-05
2.85619e-05
2.71598e-05
2.59021e-05
2.47669e-05
2.37362e-05
2.27958e-05
2.19335e-05
2.11394e-05
2.04053e-05
1.97241e-05
1.90898e-05
1.84974e-05
1.79424e-05
1.74212e-05
1.69303e-05
1.64669e-05
1.60285e-05
1.56129e-05
1.52182e-05
1.48425e-05
1.44843e-05
1.41424e-05
1.38153e-05
1.3502e-05
1.32015e-05
1.2913e-05
1.26355e-05
1.23683e-05
1.21108e-05
1.18624e-05
1.16224e-05
1.13904e-05
1.11659e-05
1.09484e-05
0.000348273
0.000213968
0.000145883
0.000108973
8.71058e-05
7.29396e-05
6.30269e-05
5.5665e-05
4.99544e-05
4.53822e-05
4.16335e-05
3.85017e-05
3.5845e-05
3.35621e-05
3.15782e-05
2.98374e-05
2.82967e-05
2.69225e-05
2.56885e-05
2.45734e-05
2.35602e-05
2.26347e-05
2.17855e-05
2.1003e-05
2.0279e-05
1.96068e-05
1.89805e-05
1.83952e-05
1.78467e-05
1.73312e-05
1.68456e-05
1.6387e-05
1.5953e-05
1.55413e-05
1.51502e-05
1.47779e-05
1.44228e-05
1.40836e-05
1.37592e-05
1.34484e-05
1.31502e-05
1.28637e-05
1.25882e-05
1.23229e-05
1.20671e-05
1.18203e-05
1.15818e-05
1.13512e-05
1.11281e-05
1.09119e-05
0.000308621
0.000194226
0.000135645
0.000103223
8.35672e-05
7.05669e-05
6.13202e-05
5.43707e-05
4.8934e-05
4.45544e-05
4.0947e-05
3.79225e-05
3.53493e-05
3.31327e-05
3.12026e-05
2.95059e-05
2.80017e-05
2.66583e-05
2.54503e-05
2.43575e-05
2.33634e-05
2.24546e-05
2.162e-05
2.08502e-05
2.01374e-05
1.94752e-05
1.88578e-05
1.82806e-05
1.77392e-05
1.72302e-05
1.67504e-05
1.62971e-05
1.58679e-05
1.54607e-05
1.50737e-05
1.47051e-05
1.43534e-05
1.40175e-05
1.36959e-05
1.33878e-05
1.30922e-05
1.28081e-05
1.25348e-05
1.22715e-05
1.20177e-05
1.17727e-05
1.1536e-05
1.1307e-05
1.10853e-05
1.08705e-05
0.00027128
0.000175582
0.000125799
9.75584e-05
7.9998e-05
6.81262e-05
5.95385e-05
5.30049e-05
4.78488e-05
4.36687e-05
4.0209e-05
3.72974e-05
3.48127e-05
3.26668e-05
3.07941e-05
2.91446e-05
2.76798e-05
2.63695e-05
2.51897e-05
2.4121e-05
2.31477e-05
2.22569e-05
2.1438e-05
2.06821e-05
1.99817e-05
1.93303e-05
1.87227e-05
1.81541e-05
1.76206e-05
1.71186e-05
1.66453e-05
1.61978e-05
1.57739e-05
1.53716e-05
1.4989e-05
1.46245e-05
1.42766e-05
1.39441e-05
1.36259e-05
1.33208e-05
1.30279e-05
1.27464e-05
1.24756e-05
1.22146e-05
1.19629e-05
1.17199e-05
1.1485e-05
1.12578e-05
1.10378e-05
1.08247e-05
0.000237357
0.000158461
0.000116541
9.20855e-05
7.64619e-05
6.5659e-05
5.77103e-05
5.15879e-05
4.67136e-05
4.27363e-05
3.94283e-05
3.66336e-05
3.4241e-05
3.21691e-05
3.03566e-05
2.8757e-05
2.73339e-05
2.60587e-05
2.49087e-05
2.38657e-05
2.29145e-05
2.20431e-05
2.12411e-05
2.05e-05
1.98127e-05
1.91731e-05
1.85759e-05
1.80166e-05
1.74916e-05
1.69972e-05
1.65308e-05
1.60896e-05
1.56715e-05
1.52744e-05
1.48966e-05
1.45365e-05
1.41928e-05
1.38641e-05
1.35493e-05
1.32475e-05
1.29577e-05
1.2679e-05
1.24108e-05
1.21523e-05
1.19029e-05
1.16621e-05
1.14293e-05
1.1204e-05
1.09858e-05
1.07744e-05
0.000207509
0.000143086
0.000107984
8.68748e-05
7.30076e-05
6.32e-05
5.58606e-05
5.01382e-05
4.55423e-05
4.1768e-05
3.86134e-05
3.59378e-05
3.36398e-05
3.16442e-05
2.98943e-05
2.83465e-05
2.69667e-05
2.57283e-05
2.46097e-05
2.35936e-05
2.26658e-05
2.18146e-05
2.10305e-05
2.03051e-05
1.96317e-05
1.90044e-05
1.84183e-05
1.78691e-05
1.73529e-05
1.68667e-05
1.64076e-05
1.59731e-05
1.55611e-05
1.51697e-05
1.4797e-05
1.44417e-05
1.41023e-05
1.37777e-05
1.34667e-05
1.31683e-05
1.28817e-05
1.26061e-05
1.23407e-05
1.20849e-05
1.1838e-05
1.15995e-05
1.13689e-05
1.11457e-05
1.09295e-05
1.07199e-05
0.000181917
0.000129502
0.000100169
8.19673e-05
6.967e-05
6.07768e-05
5.40105e-05
4.86718e-05
4.43473e-05
4.07736e-05
3.77722e-05
3.52166e-05
3.30145e-05
3.10968e-05
2.94109e-05
2.79164e-05
2.65814e-05
2.5381e-05
2.42948e-05
2.33067e-05
2.24031e-05
2.15732e-05
2.08076e-05
2.00986e-05
1.94398e-05
1.88255e-05
1.8251e-05
1.77122e-05
1.72055e-05
1.67278e-05
1.62764e-05
1.5849e-05
1.54435e-05
1.50579e-05
1.46907e-05
1.43404e-05
1.40057e-05
1.36853e-05
1.33783e-05
1.30836e-05
1.28005e-05
1.25281e-05
1.22657e-05
1.20127e-05
1.17685e-05
1.15325e-05
1.13042e-05
1.10832e-05
1.08691e-05
1.06614e-05
0.000160381
0.000117627
9.309e-05
7.7382e-05
6.64733e-05
5.84107e-05
5.21772e-05
4.72023e-05
4.31394e-05
3.97618e-05
3.69119e-05
3.44762e-05
3.23704e-05
3.05313e-05
2.89104e-05
2.747e-05
2.61808e-05
2.50192e-05
2.39663e-05
2.30069e-05
2.21284e-05
2.13203e-05
2.05739e-05
1.98819e-05
1.92382e-05
1.86373e-05
1.80749e-05
1.75469e-05
1.705e-05
1.65812e-05
1.6138e-05
1.57179e-05
1.53191e-05
1.49398e-05
1.45783e-05
1.42332e-05
1.39033e-05
1.35874e-05
1.32846e-05
1.29938e-05
1.27143e-05
1.24453e-05
1.21861e-05
1.1936e-05
1.16946e-05
1.14612e-05
1.12354e-05
1.10167e-05
1.08048e-05
1.05992e-05
0.000142464
0.000107304
8.67079e-05
7.31231e-05
6.34325e-05
5.61175e-05
5.03739e-05
4.57404e-05
4.19277e-05
3.87403e-05
3.60392e-05
3.3722e-05
3.17123e-05
2.99519e-05
2.83963e-05
2.70107e-05
2.57677e-05
2.46454e-05
2.36264e-05
2.26963e-05
2.18432e-05
2.10574e-05
2.03307e-05
1.96562e-05
1.90279e-05
1.84409e-05
1.78909e-05
1.73742e-05
1.68874e-05
1.64278e-05
1.59929e-05
1.55805e-05
1.51887e-05
1.48157e-05
1.44601e-05
1.41205e-05
1.37957e-05
1.34845e-05
1.3186e-05
1.28993e-05
1.26236e-05
1.23581e-05
1.21021e-05
1.18552e-05
1.16166e-05
1.1386e-05
1.11628e-05
1.09466e-05
1.07369e-05
1.05336e-05
0.000127622
9.83449e-05
8.09705e-05
6.91854e-05
6.0556e-05
5.39071e-05
4.86101e-05
4.42945e-05
4.07194e-05
3.77157e-05
3.51598e-05
3.29594e-05
3.10448e-05
2.93627e-05
2.78722e-05
2.65413e-05
2.53447e-05
2.42621e-05
2.32772e-05
2.23766e-05
2.15494e-05
2.07862e-05
2.00795e-05
1.94227e-05
1.88102e-05
1.82374e-05
1.77001e-05
1.71948e-05
1.67184e-05
1.62682e-05
1.58419e-05
1.54373e-05
1.50527e-05
1.46864e-05
1.43369e-05
1.40029e-05
1.36833e-05
1.33769e-05
1.30829e-05
1.28004e-05
1.25286e-05
1.22668e-05
1.20143e-05
1.17705e-05
1.1535e-05
1.13072e-05
1.10867e-05
1.0873e-05
1.06657e-05
1.04646e-05
0.00011531
9.05616e-05
7.58227e-05
6.55585e-05
5.78459e-05
5.17845e-05
4.68909e-05
4.28702e-05
3.95204e-05
3.66936e-05
3.42791e-05
3.21931e-05
3.0372e-05
2.87673e-05
2.73414e-05
2.60648e-05
2.49144e-05
2.38714e-05
2.29207e-05
2.20498e-05
2.12485e-05
2.05081e-05
1.98216e-05
1.91827e-05
1.85862e-05
1.80277e-05
1.75033e-05
1.70096e-05
1.65438e-05
1.61032e-05
1.56857e-05
1.52892e-05
1.49119e-05
1.45524e-05
1.42091e-05
1.38809e-05
1.35666e-05
1.32652e-05
1.29758e-05
1.26976e-05
1.24298e-05
1.21717e-05
1.19228e-05
1.16823e-05
1.14499e-05
1.12251e-05
1.10073e-05
1.07962e-05
1.05915e-05
1.03927e-05
0.000105042
8.37886e-05
7.12136e-05
6.22282e-05
5.5298e-05
4.97489e-05
4.52184e-05
4.14714e-05
3.83355e-05
3.56791e-05
3.34018e-05