/*--------------------------------*- C++ -*----------------------------------*\
  =========                 |
  \\      /  F ield         | OpenFOAM: The Open Source CFD Toolbox
   \\    /   O peration     | Website:  https://openfoam.org
    \\  /    A nd           | Version:  7
     \\/     M anipulation  |
\*---------------------------------------------------------------------------*/
FoamFile
{
    version     2.0;
    format      ascii;
    class       volScalarField;
    location    "276000";
    object      p;
}
// * * * * * * * * * * * * * * * * * * * * * * * * * * * * * * * * * * * * * //

dimensions      [0 2 -2 0 0 0 0];

internalField   nonuniform List<scalar> 
4783
(
-1.15291e-18
-1.16625e-18
-1.17411e-18
-1.22357e-18
-1.19247e-18
-1.22765e-18
-1.17919e-18
-1.14959e-18
-1.11252e-18
-1.22055e-18
-1.19618e-18
-1.18273e-18
-1.17054e-18
-1.13138e-18
-1.0432e-18
-1.08657e-18
-1.37065e-18
-1.40516e-18
-1.30961e-18
-1.45135e-18
-1.45373e-18
-1.07535e-18
-1.16383e-18
-1.18792e-18
-1.13622e-18
-1.16422e-18
-1.16899e-18
-1.21646e-18
-1.18616e-18
-1.17872e-18
-1.17573e-18
-1.18241e-18
-1.17291e-18
-1.17853e-18
-1.19027e-18
-1.16873e-18
-1.15005e-18
-1.16647e-18
-1.2718e-18
-1.10441e-18
-1.03872e-18
-1.08035e-18
-1.19732e-18
-1.19218e-18
-1.127e-18
-1.12089e-18
-1.14656e-18
-1.15042e-18
-1.12933e-18
-1.1575e-18
-1.16539e-18
-1.19213e-18
-1.23005e-18
-1.21897e-18
-1.16748e-18
-1.14989e-18
-1.22482e-18
-1.19229e-18
-1.16778e-18
-1.12563e-18
-1.17941e-18
-1.1509e-18
-1.08559e-18
-1.15501e-18
-1.18488e-18
-1.20361e-18
-1.15875e-18
-1.1511e-18
-1.12756e-18
-1.12889e-18
-1.18167e-18
-1.13411e-18
-1.15421e-18
-1.16517e-18
-1.15888e-18
-1.13072e-18
-1.13579e-18
-1.20598e-18
-1.20029e-18
-1.22723e-18
-1.18738e-18
-1.16812e-18
-1.1867e-18
-1.17637e-18
-1.12296e-18
-1.18869e-18
-1.2087e-18
-1.19814e-18
-1.15686e-18
-1.14178e-18
-1.1876e-18
-1.16827e-18
-1.17435e-18
-1.16639e-18
-1.16203e-18
-1.15129e-18
-1.11064e-18
-1.14331e-18
-1.16502e-18
-1.17797e-18
-1.16592e-18
-1.13349e-18
-1.16585e-18
-1.14912e-18
-1.21836e-18
-1.19983e-18
-1.19131e-18
-1.20975e-18
-1.28062e-18
-1.24266e-18
-1.15787e-18
-1.15621e-18
-1.16685e-18
-1.16783e-18
-1.19354e-18
-1.17853e-18
-1.16147e-18
-1.16652e-18
-1.1603e-18
-1.142e-18
-1.16792e-18
-1.17546e-18
-1.15423e-18
-1.09729e-18
-1.16091e-18
-1.17384e-18
-1.18693e-18
-1.1984e-18
-1.22722e-18
-1.20294e-18
-1.21259e-18
-1.19401e-18
-1.14217e-18
-1.15546e-18
-1.15737e-18
-1.13965e-18
-1.17008e-18
-1.18685e-18
-1.13874e-18
-1.16198e-18
-1.19567e-18
-1.1693e-18
-1.1776e-18
-1.1762e-18
-1.13297e-18
-1.10487e-18
-1.17152e-18
-1.19026e-18
-1.17723e-18
-1.18056e-18
-1.18354e-18
-1.18783e-18
-1.22196e-18
-1.21098e-18
-1.16644e-18
-1.16642e-18
-1.17204e-18
-1.18381e-18
-1.15994e-18
-1.14784e-18
-1.15825e-18
-1.13947e-18
-1.1393e-18
-1.14541e-18
-1.18484e-18
-1.20211e-18
-1.1528e-18
-1.16391e-18
-1.21266e-18
-1.23398e-18
-1.15969e-18
-1.16877e-18
-1.15061e-18
-1.14385e-18
-1.15176e-18
-1.16621e-18
-1.18804e-18
-1.20157e-18
-1.18916e-18
-1.1691e-18
-1.14486e-18
-1.19135e-18
-1.20011e-18
-1.19115e-18
-1.17426e-18
-1.18453e-18
-1.169e-18
-1.18062e-18
-1.20145e-18
-1.17882e-18
-1.15952e-18
-1.18899e-18
-1.17555e-18
-1.17738e-18
-1.17525e-18
-1.15652e-18
-1.15344e-18
-1.17677e-18
-1.17092e-18
-1.20697e-18
-1.15035e-18
-1.15915e-18
-1.16192e-18
-1.18081e-18
-1.14702e-18
-1.17095e-18
-1.17561e-18
-1.14596e-18
-1.11904e-18
-1.14366e-18
-1.18099e-18
-1.1775e-18
-1.16824e-18
-1.18379e-18
-1.18916e-18
-1.18135e-18
-1.18945e-18
-1.20974e-18
-1.18612e-18
-1.18721e-18
-1.16107e-18
-1.16227e-18
-1.15757e-18
-1.16439e-18
-1.16265e-18
-1.14788e-18
-1.12175e-18
-1.16053e-18
-1.16708e-18
-1.16243e-18
-1.14194e-18
-1.16563e-18
-1.17958e-18
-1.17927e-18
-1.15521e-18
-1.20285e-18
-1.23507e-18
-1.18348e-18
-1.18026e-18
-1.18661e-18
-1.16759e-18
-1.20707e-18
-1.17345e-18
-1.14223e-18
-1.15359e-18
-1.16253e-18
-1.18839e-18
-1.20549e-18
-1.18586e-18
-1.16242e-18
-1.16688e-18
-1.17479e-18
-1.1698e-18
-1.18054e-18
-1.20327e-18
-1.20117e-18
-1.16976e-18
-1.16515e-18
-1.22362e-18
-1.1597e-18
-1.16385e-18
-1.17892e-18
-1.16105e-18
-1.18765e-18
-1.1494e-18
-1.1614e-18
-1.16112e-18
-1.13109e-18
-1.1662e-18
-1.16803e-18
-1.17151e-18
-1.14317e-18
-1.16133e-18
-1.16999e-18
-1.17551e-18
-1.19594e-18
-1.20833e-18
-1.18622e-18
-1.17215e-18
-1.17267e-18
-1.18941e-18
-1.16042e-18
-1.19841e-18
-1.1873e-18
-1.17866e-18
-1.17486e-18
-1.15546e-18
-1.15893e-18
-1.17525e-18
-1.17074e-18
-1.17907e-18
-1.14567e-18
-1.15995e-18
-1.14104e-18
-1.14904e-18
-1.1532e-18
-1.16535e-18
-1.17888e-18
-1.19635e-18
-1.1747e-18
-1.1581e-18
-1.17833e-18
-1.19778e-18
-1.17418e-18
-1.18641e-18
-1.18603e-18
-1.18904e-18
-1.19881e-18
-1.16648e-18
-1.15671e-18
-1.15646e-18
-1.16647e-18
-1.16642e-18
-1.15453e-18
-1.14311e-18
-1.16452e-18
-1.17935e-18
-1.16867e-18
-1.15658e-18
-1.17083e-18
-1.15141e-18
-1.15635e-18
-1.17155e-18
-1.1814e-18
-1.16949e-18
-1.15762e-18
-1.18237e-18
-1.18186e-18
-1.15648e-18
-1.15756e-18
-1.17946e-18
-1.16779e-18
-1.14902e-18
-1.13318e-18
-1.13395e-18
-1.16332e-18
-1.15362e-18
-1.17536e-18
-1.18449e-18
-1.16773e-18
-1.13398e-18
-1.15479e-18
-1.18163e-18
-1.19835e-18
-1.19375e-18
-1.16651e-18
-1.19315e-18
-1.15252e-18
-1.15488e-18
-1.15163e-18
-1.17387e-18
-1.15153e-18
-1.15715e-18
-1.16455e-18
-1.15033e-18
-1.15461e-18
-1.17362e-18
-1.16715e-18
-1.15875e-18
-1.14915e-18
-1.17187e-18
-1.19761e-18
-1.18449e-18
-1.18277e-18
-1.16068e-18
-1.15505e-18
-1.14839e-18
-1.16791e-18
-1.16511e-18
-1.16839e-18
-1.18616e-18
-1.14362e-18
-1.17048e-18
-1.17389e-18
-1.18513e-18
-1.18011e-18
-1.15581e-18
-1.16847e-18
-1.15951e-18
-1.1565e-18
-1.15255e-18
-1.1439e-18
-1.16043e-18
-1.16521e-18
-1.17256e-18
-1.16017e-18
-1.15498e-18
-1.17671e-18
-1.19023e-18
-1.17672e-18
-1.15283e-18
-1.14483e-18
-1.15858e-18
-1.15719e-18
-1.16059e-18
-1.15979e-18
-1.15068e-18
-1.15812e-18
-1.13615e-18
-1.18489e-18
-1.15524e-18
-1.14195e-18
-1.16363e-18
-1.16167e-18
-1.1637e-18
-1.16801e-18
-1.13905e-18
-1.14104e-18
-1.13618e-18
-1.16766e-18
-1.15704e-18
-1.15692e-18
-1.14996e-18
-1.16072e-18
-1.17296e-18
-1.1637e-18
-1.1623e-18
-1.15851e-18
-1.15476e-18
-1.15731e-18
-1.16081e-18
-1.15726e-18
-1.16821e-18
-1.17578e-18
-1.16101e-18
-1.15773e-18
-1.14588e-18
-1.16314e-18
-1.15095e-18
-1.16094e-18
-1.17065e-18
-1.16116e-18
-1.14951e-18
-1.16678e-18
-1.16019e-18
-1.1455e-18
-1.1473e-18
-1.1533e-18
-1.15851e-18
-1.15117e-18
-1.15527e-18
-1.13871e-18
-1.15236e-18
-1.16759e-18
-1.15706e-18
-1.14203e-18
-1.15699e-18
-1.16028e-18
-1.16367e-18
-1.15033e-18
-1.1565e-18
-1.15372e-18
-1.15193e-18
-1.15887e-18
-1.15623e-18
-1.15182e-18
-1.15737e-18
-1.15475e-18
-1.14221e-18
-1.16063e-18
-1.14357e-18
-1.13431e-18
-1.17267e-18
-1.15504e-18
-1.14707e-18
-1.15523e-18
-1.15654e-18
-1.15365e-18
-1.15647e-18
-1.15638e-18
-1.15642e-18
-1.15592e-18
-1.15478e-18
-1.16488e-18
-1.15616e-18
-1.14836e-18
-1.17481e-18
-1.14663e-18
-1.15421e-18
-1.17133e-18
-1.15754e-18
-1.15486e-18
-1.15489e-18
-1.16118e-18
-1.15513e-18
-1.1558e-18
-1.16572e-18
-1.15929e-18
-1.16318e-18
-1.15821e-18
-1.14992e-18
-1.18369e-18
-1.16937e-18
-1.20135e-18
-1.16792e-18
-1.16918e-18
-1.16985e-18
-1.18012e-18
-1.15588e-18
-1.13362e-18
-1.14983e-18
-1.15847e-18
-1.14146e-18
-1.16252e-18
-1.14732e-18
-1.1442e-18
-1.15654e-18
-1.1581e-18
-1.14748e-18
-1.14305e-18
-1.15382e-18
-1.15487e-18
-1.14206e-18
-1.15021e-18
-1.14691e-18
-1.13541e-18
-1.15925e-18
-1.16774e-18
-1.16723e-18
-1.15612e-18
-1.15207e-18
-1.15226e-18
-1.16153e-18
-1.16891e-18
-1.15779e-18
-1.15504e-18
-1.15103e-18
-1.14269e-18
-1.13264e-18
-1.13523e-18
-1.15063e-18
-1.15081e-18
-1.14419e-18
-1.16502e-18
-1.14331e-18
-1.20734e-18
-1.17544e-18
-1.18321e-18
-1.16656e-18
-1.17238e-18
-1.15803e-18
-1.12106e-18
-1.115e-18
-1.157e-18
-1.1731e-18
-1.14698e-18
-1.15219e-18
-1.15535e-18
-1.15653e-18
-1.15781e-18
-1.15286e-18
-1.15142e-18
-1.16315e-18
-1.16787e-18
-1.15531e-18
-1.15412e-18
-1.15368e-18
-1.14916e-18
-1.15582e-18
-1.15572e-18
-1.15009e-18
-1.14896e-18
-1.14721e-18
-1.14922e-18
-1.14416e-18
-1.13343e-18
-1.15227e-18
-1.1527e-18
-1.14425e-18
-1.15083e-18
-1.16649e-18
-1.15227e-18
-1.1477e-18
-1.14409e-18
-1.15179e-18
-1.15484e-18
-1.1935e-18
-1.18112e-18
-1.19402e-18
-1.13732e-18
-1.15442e-18
-1.16553e-18
-1.15269e-18
-1.13394e-18
-1.16952e-18
-1.16203e-18
-1.16581e-18
-1.15608e-18
-1.14023e-18
-1.15743e-18
-1.13433e-18
-1.16078e-18
-1.16482e-18
-1.15984e-18
-1.15532e-18
-1.15449e-18
-1.15581e-18
-1.15397e-18
-1.16743e-18
-1.1652e-18
-1.15392e-18
-1.14386e-18
-1.14857e-18
-1.15351e-18
-1.15227e-18
-1.15245e-18
-1.1612e-18
-1.15285e-18
-1.15323e-18
-1.15349e-18
-1.15519e-18
-1.16107e-18
-1.15789e-18
-1.15816e-18
-1.16023e-18
-1.15973e-18
-1.16696e-18
-1.10146e-18
-1.16373e-18
-1.17924e-18
-1.1955e-18
-1.15631e-18
-1.15813e-18
-1.18497e-18
-1.13788e-18
-1.156e-18
-1.16187e-18
-1.15484e-18
-1.15491e-18
-1.18703e-18
-1.14362e-18
-1.14692e-18
-1.14789e-18
-1.14136e-18
-1.14507e-18
-1.1674e-18
-1.15532e-18
-1.15172e-18
-1.1621e-18
-1.15153e-18
-1.15201e-18
-1.15333e-18
-1.16215e-18
-1.15252e-18
-1.14352e-18
-1.15578e-18
-1.15137e-18
-1.15452e-18
-1.15799e-18
-1.1606e-18
-1.14698e-18
-1.14471e-18
-1.14039e-18
-1.13555e-18
-1.12426e-18
-1.14072e-18
-1.14983e-18
-1.1535e-18
-1.14167e-18
-1.12947e-18
-1.16008e-18
-1.20176e-18
-1.14253e-18
-1.14925e-18
-1.12906e-18
-1.15334e-18
-1.16307e-18
-1.17888e-18
-1.15781e-18
-1.15655e-18
-1.12998e-18
-1.15244e-18
-1.13712e-18
-1.14829e-18
-1.16559e-18
-1.16241e-18
-1.14685e-18
-1.15199e-18
-1.15244e-18
-1.15032e-18
-1.15414e-18
-1.15966e-18
-1.16066e-18
-1.14963e-18
-1.14795e-18
-1.15652e-18
-1.15704e-18
-1.1515e-18
-1.15611e-18
-1.15599e-18
-1.15982e-18
-1.15246e-18
-1.14096e-18
-1.14767e-18
-1.14688e-18
-1.15155e-18
-1.16156e-18
-1.15782e-18
-1.16171e-18
-1.15932e-18
-1.15579e-18
-1.09402e-18
-1.10777e-18
-1.16296e-18
-1.1882e-18
-1.15686e-18
-1.14429e-18
-1.13561e-18
-1.17531e-18
-1.13151e-18
-1.13896e-18
-1.17134e-18
-1.11267e-18
-1.14823e-18
-1.17023e-18
-1.15956e-18
-1.18167e-18
-1.1579e-18
-1.14553e-18
-1.14801e-18
-1.153e-18
-1.14662e-18
-1.1412e-18
-1.14533e-18
-1.15052e-18
-1.1609e-18
-1.15711e-18
-1.15252e-18
-1.14649e-18
-1.146e-18
-1.13983e-18
-1.15174e-18
-1.14975e-18
-1.13766e-18
-1.13719e-18
-1.14306e-18
-1.14951e-18
-1.14767e-18
-1.13705e-18
-1.14057e-18
-1.14647e-18
-1.15363e-18
-1.14731e-18
-1.14637e-18
-1.1397e-18
-1.15848e-18
-1.1696e-18
-1.16174e-18
-1.16213e-18
-1.18188e-18
-1.16539e-18
-1.12465e-18
-1.17563e-18
-1.19861e-18
-1.13361e-18
-1.14692e-18
-1.15768e-18
-1.17346e-18
-1.18169e-18
-1.15382e-18
-1.12943e-18
-1.14126e-18
-1.16441e-18
-1.18245e-18
-1.15193e-18
-1.139e-18
-1.15351e-18
-1.14157e-18
-1.13507e-18
-1.14293e-18
-1.14096e-18
-1.12719e-18
-1.13232e-18
-1.15242e-18
-1.1625e-18
-1.1491e-18
-1.15813e-18
-1.15223e-18
-1.15465e-18
-1.15357e-18
-1.15618e-18
-1.15948e-18
-1.15878e-18
-1.15726e-18
-1.16521e-18
-1.18785e-18
-1.147e-18
-1.13341e-18
-1.16072e-18
-1.17384e-18
-1.15625e-18
-1.16034e-18
-1.18629e-18
-1.13311e-18
-1.15489e-18
-1.15985e-18
-1.15816e-18
-1.17683e-18
-1.17859e-18
-1.15446e-18
-1.15454e-18
-1.16661e-18
-1.17131e-18
-1.15602e-18
-1.15643e-18
-1.1721e-18
-1.15056e-18
-1.13655e-18
-1.14471e-18
-1.14186e-18
-1.13003e-18
-1.14215e-18
-1.14436e-18
-1.14531e-18
-1.13825e-18
-1.14408e-18
-1.14669e-18
-1.14488e-18
-1.1401e-18
-1.14507e-18
-1.14859e-18
-1.14978e-18
-1.15058e-18
-1.15561e-18
-1.14455e-18
-1.14279e-18
-1.14443e-18
-1.21549e-18
-1.14888e-18
-1.09563e-18
-1.16957e-18
-1.21707e-18
-1.16861e-18
-1.13021e-18
-1.18457e-18
-1.1508e-18
-1.15089e-18
-1.15218e-18
-1.15525e-18
-1.15973e-18
-1.1726e-18
-1.14276e-18
-1.16702e-18
-1.1641e-18
-1.14479e-18
-1.16141e-18
-1.17953e-18
-1.17591e-18
-1.1551e-18
-1.155e-18
-1.13323e-18
-1.1237e-18
-1.14088e-18
-1.14383e-18
-1.13764e-18
-1.14341e-18
-1.14434e-18
-1.14286e-18
-1.13861e-18
-1.13995e-18
-1.14419e-18
-1.14357e-18
-1.15589e-18
-1.14951e-18
-1.14981e-18
-1.16e-18
-1.15308e-18
-1.15918e-18
-1.15673e-18
-1.10442e-18
-1.13678e-18
-1.10397e-18
-1.19744e-18
-1.18467e-18
-1.18734e-18
-1.16047e-18
-1.17933e-18
-1.1408e-18
-1.18045e-18
-1.1601e-18
-1.14761e-18
-1.15579e-18
-1.17123e-18
-1.15252e-18
-1.1483e-18
-1.14989e-18
-1.1477e-18
-1.15242e-18
-1.14018e-18
-1.14738e-18
-1.14628e-18
-1.14609e-18
-1.13867e-18
-1.14649e-18
-1.14399e-18
-1.14599e-18
-1.1454e-18
-1.14737e-18
-1.14831e-18
-1.14294e-18
-1.14495e-18
-1.14792e-18
-1.14506e-18
-1.14551e-18
-1.14727e-18
-1.15423e-18
-1.16718e-18
-1.16222e-18
-1.15582e-18
-1.14992e-18
-1.14354e-18
-1.13031e-18
-1.15277e-18
-1.15661e-18
-1.19119e-18
-1.1617e-18
-1.16133e-18
-1.15578e-18
-1.14559e-18
-1.15715e-18
-1.20692e-18
-1.18435e-18
-1.15464e-18
-1.14908e-18
-1.15827e-18
-1.16802e-18
-1.13914e-18
-1.15603e-18
-1.13819e-18
-1.13486e-18
-1.14465e-18
-1.14693e-18
-1.14083e-18
-1.1539e-18
-1.15445e-18
-1.16285e-18
-1.13818e-18
-1.13288e-18
-1.14117e-18
-1.14351e-18
-1.14183e-18
-1.13436e-18
-1.1446e-18
-1.14333e-18
-1.14379e-18
-1.14241e-18
-1.13885e-18
-1.15009e-18
-1.15233e-18
-1.1444e-18
-1.12148e-18
-1.12426e-18
-1.14074e-18
-1.14415e-18
-1.15364e-18
-1.17982e-18
-1.11972e-18
-1.14102e-18
-1.15087e-18
-1.15364e-18
-1.12558e-18
-1.14747e-18
-1.18105e-18
-1.16095e-18
-1.14382e-18
-1.12927e-18
-1.14706e-18
-1.15362e-18
-1.15563e-18
-1.16278e-18
-1.14188e-18
-1.14698e-18
-1.13918e-18
-1.14905e-18
-1.15067e-18
-1.14712e-18
-1.1452e-18
-1.14755e-18
-1.14564e-18
-1.1415e-18
-1.13558e-18
-1.14278e-18
-1.14661e-18
-1.15157e-18
-1.14596e-18
-1.1435e-18
-1.15291e-18
-1.13878e-18
-1.13746e-18
-1.13911e-18
-1.13656e-18
-1.15862e-18
-1.16899e-18
-1.15857e-18
-1.15868e-18
-1.15185e-18
-1.15476e-18
-1.13851e-18
-1.10693e-18
-1.12795e-18
-1.16053e-18
-1.17274e-18
-1.19487e-18
-1.17301e-18
-1.12698e-18
-1.14702e-18
-1.14705e-18
-1.12257e-18
-1.11764e-18
-1.12907e-18
-1.17234e-18
-1.19031e-18
-1.17457e-18
-1.16327e-18
-1.1573e-18
-1.14679e-18
-1.15202e-18
-1.15671e-18
-1.14896e-18
-1.14509e-18
-1.14565e-18
-1.13511e-18
-1.14367e-18
-1.15279e-18
-1.1456e-18
-1.13292e-18
-1.1372e-18
-1.13316e-18
-1.13883e-18
-1.14065e-18
-1.13932e-18
-1.13466e-18
-1.13927e-18
-1.1411e-18
-1.14347e-18
-1.14956e-18
-1.1523e-18
-1.1419e-18
-1.13164e-18
-1.1329e-18
-1.18634e-18
-1.15579e-18
-1.13321e-18
-1.10102e-18
-1.19428e-18
-1.23124e-18
-1.22401e-18
-1.1636e-18
-1.15288e-18
-1.15023e-18
-1.14689e-18
-1.1245e-18
-1.14157e-18
-1.15218e-18
-1.16964e-18
-1.17208e-18
-1.15468e-18
-1.15606e-18
-1.14731e-18
-1.1262e-18
-1.13861e-18
-1.12821e-18
-1.14628e-18
-1.15306e-18
-1.13902e-18
-1.13729e-18
-1.12911e-18
-1.14834e-18
-1.13673e-18
-1.13654e-18
-1.14597e-18
-1.15483e-18
-1.15534e-18
-1.14632e-18
-1.14281e-18
-1.13995e-18
-1.13982e-18
-1.14373e-18
-1.14075e-18
-1.1367e-18
-1.13482e-18
-1.14223e-18
-1.14993e-18
-1.15476e-18
-1.28745e-18
-1.18131e-18
-1.16212e-18
-1.14215e-18
-1.16651e-18
-1.16974e-18
-1.15963e-18
-1.11964e-18
-1.17086e-18
-1.16134e-18
-1.17456e-18
-1.15809e-18
-1.15569e-18
-1.17026e-18
-1.15393e-18
-1.14281e-18
-1.12713e-18
-1.12723e-18
-1.13686e-18
-1.14642e-18
-1.14843e-18
-1.14629e-18
-1.14605e-18
-1.13298e-18
-1.13392e-18
-1.13877e-18
-1.14256e-18
-1.1436e-18
-1.14369e-18
-1.12407e-18
-1.13007e-18
-1.12059e-18
-1.11995e-18
-1.13566e-18
-1.14149e-18
-1.14448e-18
-1.14684e-18
-1.15867e-18
-1.14782e-18
-1.1443e-18
-1.15473e-18
-1.15656e-18
-1.15193e-18
-1.15177e-18
-1.14088e-18
-1.243e-18
-1.16524e-18
-1.20893e-18
-1.16127e-18
-1.17737e-18
-1.15662e-18
-1.14225e-18
-1.09808e-18
-1.14322e-18
-1.15098e-18
-1.12827e-18
-1.16279e-18
-1.1545e-18
-1.15012e-18
-1.14755e-18
-1.12878e-18
-1.14162e-18
-1.14917e-18
-1.14863e-18
-1.14839e-18
-1.14973e-18
-1.15913e-18
-1.15761e-18
-1.14384e-18
-1.13605e-18
-1.14206e-18
-1.14366e-18
-1.1433e-18
-1.14424e-18
-1.14336e-18
-1.14615e-18
-1.15699e-18
-1.13043e-18
-1.13238e-18
-1.12455e-18
-1.13504e-18
-1.14248e-18
-1.13908e-18
-1.13894e-18
-1.13947e-18
-1.12915e-18
-1.14775e-18
-1.13795e-18
-1.14171e-18
-1.14879e-18
-9.58199e-19
-1.0588e-18
-1.15228e-18
-1.14213e-18
-1.1109e-18
-1.14415e-18
-1.15506e-18
-1.17157e-18
-1.15546e-18
-1.14322e-18
-1.09683e-18
-1.1068e-18
-1.14025e-18
-1.13185e-18
-1.15978e-18
-1.13456e-18
-1.14705e-18
-1.16447e-18
-1.15376e-18
-1.15672e-18
-1.14927e-18
-1.14539e-18
-1.13532e-18
-1.13473e-18
-1.14681e-18
-1.13936e-18
-1.14089e-18
-1.1382e-18
-1.13857e-18
-1.13367e-18
-1.12397e-18
-1.13872e-18
-1.14019e-18
-1.13952e-18
-1.14121e-18
-1.14336e-18
-1.14172e-18
-1.1475e-18
-1.15924e-18
-1.14465e-18
-1.14097e-18
-1.13928e-18
-1.12748e-18
-1.13948e-18
-1.15346e-18
-1.15088e-18
-9.24923e-19
-1.22538e-18
-1.18021e-18
-1.1547e-18
-1.1309e-18
-1.13383e-18
-1.15353e-18
-1.16496e-18
-1.15548e-18
-1.15073e-18
-1.1499e-18
-1.17202e-18
-1.1707e-18
-1.15732e-18
-1.17289e-18
-1.16521e-18
-1.15306e-18
-1.14569e-18
-1.13629e-18
-1.14574e-18
-1.14887e-18
-1.15808e-18
-1.16312e-18
-1.16746e-18
-1.15669e-18
-1.17234e-18
-1.16713e-18
-1.14708e-18
-1.14246e-18
-1.14507e-18
-1.14945e-18
-1.15577e-18
-1.14637e-18
-1.13507e-18
-1.1246e-18
-1.142e-18
-1.15897e-18
-1.14928e-18
-1.15517e-18
-1.14332e-18
-1.13899e-18
-1.13815e-18
-1.13143e-18
-1.13821e-18
-1.14431e-18
-1.1427e-18
-1.14218e-18
-1.02437e-18
-1.28958e-18
-1.24484e-18
-1.21028e-18
-1.13949e-18
-1.10559e-18
-1.14996e-18
-1.18589e-18
-1.15952e-18
-1.14477e-18
-1.15328e-18
-1.16766e-18
-1.13279e-18
-1.14295e-18
-1.1457e-18
-1.1323e-18
-1.13738e-18
-1.12489e-18
-1.12497e-18
-1.13166e-18
-1.1317e-18
-1.13277e-18
-1.14172e-18
-1.14477e-18
-1.14436e-18
-1.14372e-18
-1.14482e-18
-1.14475e-18
-1.14111e-18
-1.14617e-18
-1.16471e-18
-1.16747e-18
-1.16467e-18
-1.14396e-18
-1.13187e-18
-1.15507e-18
-1.16516e-18
-1.15057e-18
-1.15367e-18
-1.14225e-18
-1.12894e-18
-1.1444e-18
-1.15873e-18
-1.14437e-18
-1.14461e-18
-1.1443e-18
-1.1442e-18
-8.75528e-19
-1.25291e-18
-1.18063e-18
-1.15661e-18
-1.12347e-18
-1.13145e-18
-1.14674e-18
-1.19218e-18
-1.1787e-18
-1.12673e-18
-1.14892e-18
-1.1555e-18
-1.14633e-18
-1.14658e-18
-1.15277e-18
-1.164e-18
-1.14893e-18
-1.14678e-18
-1.16406e-18
-1.16062e-18
-1.15894e-18
-1.14394e-18
-1.14704e-18
-1.15232e-18
-1.15544e-18
-1.13229e-18
-1.14705e-18
-1.15597e-18
-1.12959e-18
-1.13888e-18
-1.14659e-18
-1.12414e-18
-1.13157e-18
-1.13599e-18
-1.13655e-18
-1.13685e-18
-1.13324e-18
-1.11986e-18
-1.13151e-18
-1.13776e-18
-1.13777e-18
-1.13894e-18
-1.13573e-18
-1.12509e-18
-1.13002e-18
-1.12287e-18
-1.13328e-18
-8.82594e-19
-1.13043e-18
-1.14171e-18
-1.12004e-18
-1.05068e-18
-1.11946e-18
-1.11227e-18
-1.18587e-18
-1.18407e-18
-1.15051e-18
-1.16993e-18
-1.17573e-18
-1.15758e-18
-1.148e-18
-1.15026e-18
-1.15204e-18
-1.14301e-18
-1.1338e-18
-1.15844e-18
-1.15168e-18
-1.14885e-18
-1.14428e-18
-1.14632e-18
-1.14691e-18
-1.12634e-18
-1.12162e-18
-1.1452e-18
-1.16162e-18
-1.1461e-18
-1.1393e-18
-1.13583e-18
-1.12874e-18
-1.13962e-18
-1.14661e-18
-1.1434e-18
-1.14318e-18
-1.14618e-18
-1.1575e-18
-1.14571e-18
-1.14193e-18
-1.13843e-18
-1.13164e-18
-1.15529e-18
-1.14956e-18
-1.14383e-18
-1.14407e-18
-1.1512e-18
-1.26169e-18
-1.12824e-18
-1.11226e-18
-1.11905e-18
-1.08145e-18
-1.13409e-18
-1.11662e-18
-1.17588e-18
-1.16412e-18
-1.14784e-18
-1.12449e-18
-1.14541e-18
-1.16199e-18
-1.13128e-18
-1.14815e-18
-1.16065e-18
-1.1304e-18
-1.13581e-18
-1.13298e-18
-1.14936e-18
-1.16141e-18
-1.12734e-18
-1.12917e-18
-1.16499e-18
-1.17269e-18
-1.1675e-18
-1.14704e-18
-1.14751e-18
-1.15228e-18
-1.12675e-18
-1.14031e-18
-1.15552e-18
-1.13991e-18
-1.12446e-18
-1.13348e-18
-1.13021e-18
-1.13772e-18
-1.14669e-18
-1.15794e-18
-1.14527e-18
-1.14592e-18
-1.16246e-18
-1.16645e-18
-1.15615e-18
-1.12551e-18
-1.12045e-18
-1.13474e-18
-1.13983e-18
-1.15612e-18
-1.07728e-18
-1.05841e-18
-1.10735e-18
-1.12474e-18
-1.19593e-18
-1.1859e-18
-1.15776e-18
-1.17972e-18
-1.17625e-18
-1.1399e-18
-1.12143e-18
-1.12439e-18
-1.13729e-18
-1.1467e-18
-1.14347e-18
-1.11392e-18
-1.13911e-18
-1.14612e-18
-1.15652e-18
-1.1488e-18
-1.14454e-18
-1.14914e-18
-1.16575e-18
-1.15443e-18
-1.15775e-18
-1.14333e-18
-1.14056e-18
-1.13533e-18
-1.12386e-18
-1.13548e-18
-1.13952e-18
-1.14096e-18
-1.14725e-18
-1.13189e-18
-1.14648e-18
-1.13572e-18
-1.15276e-18
-1.14622e-18
-1.14171e-18
-1.14133e-18
-1.14237e-18
-1.14314e-18
-1.14367e-18
-1.14258e-18
-1.14311e-18
-1.14369e-18
-1.14327e-18
-1.12752e-18
-9.85299e-19
-1.18296e-18
-1.07732e-18
-1.09375e-18
-1.202e-18
-1.18866e-18
-1.11642e-18
-1.14837e-18
-1.15206e-18
-1.12189e-18
-1.13851e-18
-1.14173e-18
-1.12954e-18
-1.15367e-18
-1.16764e-18
-1.152e-18
-1.15734e-18
-1.13568e-18
-1.13941e-18
-1.12705e-18
-1.13671e-18
-1.13408e-18
-1.17146e-18
-1.1528e-18
-1.1432e-18
-1.14273e-18
-1.14353e-18
-1.14382e-18
-1.14785e-18
-1.16487e-18
-1.16337e-18
-1.14495e-18
-1.14023e-18
-1.1426e-18
-1.1568e-18
-1.15417e-18
-1.13082e-18
-1.13815e-18
-1.14358e-18
-1.14443e-18
-1.14355e-18
-1.14067e-18
-1.14441e-18
-1.14449e-18
-1.14468e-18
-1.14156e-18
-1.14279e-18
-1.14478e-18
-1.34277e-18
-1.11627e-18
-1.14786e-18
-1.14406e-18
-1.14621e-18
-1.19414e-18
-1.15866e-18
-1.11672e-18
-1.14667e-18
-1.16714e-18
-1.12711e-18
-1.15192e-18
-1.17059e-18
-1.15695e-18
-1.18445e-18
-1.17621e-18
-1.14917e-18
-1.13212e-18
-1.14206e-18
-1.14399e-18
-1.1387e-18
-1.12469e-18
-1.13926e-18
-1.14549e-18
-1.14351e-18
-1.14127e-18
-1.13745e-18
-1.12466e-18
-1.13653e-18
-1.14046e-18
-1.14647e-18
-1.16056e-18
-1.13722e-18
-1.15353e-18
-1.14655e-18
-1.14181e-18
-1.14232e-18
-1.14148e-18
-1.14203e-18
-1.1428e-18
-1.14256e-18
-1.14211e-18
-1.14119e-18
-1.13724e-18
-1.12532e-18
-1.13599e-18
-1.13965e-18
-1.13455e-18
-1.12348e-18
-1.36293e-18
-1.19572e-18
-1.13227e-18
-1.21308e-18
-1.16509e-18
-1.16569e-18
-1.16126e-18
-1.17705e-18
-1.15114e-18
-1.12798e-18
-1.14752e-18
-1.17428e-18
-1.15483e-18
-1.14336e-18
-1.13812e-18
-1.16362e-18
-1.14919e-18
-1.15107e-18
-1.15802e-18
-1.13171e-18
-1.13717e-18
-1.12843e-18
-1.14871e-18
-1.16503e-18
-1.15613e-18
-1.16685e-18
-1.1654e-18
-1.15247e-18
-1.16113e-18
-1.14929e-18
-1.14323e-18
-1.14706e-18
-1.1544e-18
-1.14495e-18
-1.13878e-18
-1.12718e-18
-1.13865e-18
-1.14302e-18
-1.14447e-18
-1.14926e-18
-1.16037e-18
-1.14442e-18
-1.12894e-18
-1.14078e-18
-1.14572e-18
-1.15071e-18
-1.16008e-18
-1.14509e-18
-1.14257e-18
-1.14564e-18
-1.18418e-18
-1.30529e-18
-1.04842e-18
-1.2044e-18
-1.17877e-18
-1.18924e-18
-1.16147e-18
-1.16031e-18
-1.15273e-18
-1.14557e-18
-1.14945e-18
-1.14742e-18
-1.12688e-18
-1.12606e-18
-1.13785e-18
-1.1265e-18
-1.11733e-18
-1.14392e-18
-1.15105e-18
-1.14615e-18
-1.13621e-18
-1.14674e-18
-1.16885e-18
-1.16004e-18
-1.14703e-18
-1.14635e-18
-1.14458e-18
-1.14443e-18
-1.14703e-18
-1.15924e-18
-1.14757e-18
-1.14341e-18
-1.14415e-18
-1.1488e-18
-1.16229e-18
-1.16253e-18
-1.14584e-18
-1.13035e-18
-1.14083e-18
-1.14469e-18
-1.14687e-18
-1.14513e-18
-1.14086e-18
-1.14372e-18
-1.14492e-18
-1.14389e-18
-1.14264e-18
-1.13888e-18
-1.12418e-18
-1.12521e-18
-1.10324e-18
-1.0051e-18
-1.01127e-18
-1.16073e-18
-1.19976e-18
-1.16046e-18
-1.16053e-18
-1.15833e-18
-1.15841e-18
-1.14977e-18
-1.14322e-18
-1.12965e-18
-1.13944e-18
-1.12591e-18
-1.13121e-18
-1.14897e-18
-1.16286e-18
-1.15366e-18
-1.1466e-18
-1.13875e-18
-1.13656e-18
-1.13318e-18
-1.16079e-18
-1.1478e-18
-1.14013e-18
-1.12962e-18
-1.14117e-18
-1.14979e-18
-1.16708e-18
-1.17067e-18
-1.17101e-18
-1.17068e-18
-1.17001e-18
-1.16264e-18
-1.13919e-18
-1.14366e-18
-1.14726e-18
-1.1471e-18
-1.14751e-18
-1.15177e-18
-1.16275e-18
-1.14748e-18
-1.13251e-18
-1.14109e-18
-1.14399e-18
-1.13913e-18
-1.12912e-18
-1.13705e-18
-1.14167e-18
-1.14089e-18
-1.15165e-18
-1.08426e-18
-1.09103e-18
-1.13859e-18
-1.15503e-18
-1.11715e-18
-1.18074e-18
-1.16612e-18
-1.17743e-18
-1.14986e-18
-1.12566e-18
-1.14539e-18
-1.14618e-18
-1.13312e-18
-1.16308e-18
-1.14999e-18
-1.13525e-18
-1.15821e-18
-1.12715e-18
-1.13532e-18
-1.12285e-18
-1.16634e-18
-1.17126e-18
-1.13984e-18
-1.14344e-18
-1.14678e-18
-1.14777e-18
-1.14438e-18
-1.14395e-18
-1.14512e-18
-1.1453e-18
-1.14527e-18
-1.14563e-18
-1.14679e-18
-1.14024e-18
-1.12978e-18
-1.14064e-18
-1.14385e-18
-1.14459e-18
-1.14482e-18
-1.14095e-18
-1.13094e-18
-1.14174e-18
-1.1474e-18
-1.15267e-18
-1.16347e-18
-1.15297e-18
-1.14666e-18
-1.14955e-18
-1.1561e-18
-1.28096e-18
-1.12239e-18
-1.06095e-18
-1.12253e-18
-1.16077e-18
-1.1509e-18
-1.15958e-18
-1.14744e-18
-1.12408e-18
-1.14124e-18
-1.13333e-18
-1.17218e-18
-1.1545e-18
-1.12687e-18
-1.12917e-18
-1.13899e-18
-1.12277e-18
-1.16123e-18
-1.15054e-18
-1.13873e-18
-1.14564e-18
-1.15285e-18
-1.15003e-18
-1.14769e-18
-1.14801e-18
-1.14986e-18
-1.1471e-18
-1.15112e-18
-1.16277e-18
-1.14857e-18
-1.14682e-18
-1.14516e-18
-1.14541e-18
-1.14366e-18
-1.13447e-18
-1.14615e-18
-1.16479e-18
-1.15647e-18
-1.16174e-18
-1.14937e-18
-1.14831e-18
-1.15579e-18
-1.1344e-18
-1.13618e-18
-1.13081e-18
-1.13901e-18
-1.13683e-18
-1.1276e-18
-1.14049e-18
-1.14817e-18
-9.69333e-19
-1.0817e-18
-1.11161e-18
-1.10137e-18
-1.20504e-18
-1.17006e-18
-1.15426e-18
-1.135e-18
-1.10203e-18
-1.14853e-18
-1.14745e-18
-1.15776e-18
-1.17787e-18
-1.15226e-18
-1.14847e-18
-1.15682e-18
-1.16558e-18
-1.15782e-18
-1.15263e-18
-1.14843e-18
-1.13909e-18
-1.14637e-18
-1.1482e-18
-1.14838e-18
-1.14723e-18
-1.14655e-18
-1.1448e-18
-1.15252e-18
-1.16419e-18
-1.14921e-18
-1.14861e-18
-1.16341e-18
-1.15494e-18
-1.15194e-18
-1.16255e-18
-1.15042e-18
-1.14661e-18
-1.14683e-18
-1.14634e-18
-1.14401e-18
-1.14608e-18
-1.14814e-18
-1.14778e-18
-1.14718e-18
-1.14814e-18
-1.14977e-18
-1.14859e-18
-1.14471e-18
-1.1404e-18
-1.14688e-18
-1.09994e-18
-1.03664e-18
-1.13346e-18
-1.13986e-18
-1.21028e-18
-1.17367e-18
-1.15202e-18
-1.12402e-18
-1.1518e-18
-1.17352e-18
-1.11249e-18
-1.13296e-18
-1.19072e-18
-1.16078e-18
-1.15319e-18
-1.16639e-18
-1.14183e-18
-1.14842e-18
-1.15444e-18
-1.16269e-18
-1.16107e-18
-1.15383e-18
-1.15142e-18
-1.15401e-18
-1.16694e-18
-1.16849e-18
-1.15305e-18
-1.16099e-18
-1.15066e-18
-1.13923e-18
-1.13343e-18
-1.15829e-18
-1.16483e-18
-1.14405e-18
-1.12131e-18
-1.12134e-18
-1.13612e-18
-1.14233e-18
-1.14399e-18
-1.14275e-18
-1.14328e-18
-1.14049e-18
-1.12513e-18
-1.12577e-18
-1.13962e-18
-1.14525e-18
-1.14481e-18
-1.1444e-18
-1.13595e-18
-1.13076e-18
-1.25222e-18
-1.1631e-18
-1.14926e-18
-1.10269e-18
-1.17123e-18
-1.20321e-18
-1.16666e-18
-1.15964e-18
-1.18754e-18
-1.16248e-18
-1.12485e-18
-1.14625e-18
-1.16392e-18
-1.17195e-18
-1.14061e-18
-1.15319e-18
-1.15438e-18
-1.15796e-18
-1.17631e-18
-1.15655e-18
-1.15193e-18
-1.1471e-18
-1.14002e-18
-1.14774e-18
-1.13915e-18
-1.16172e-18
-1.1449e-18
-1.16917e-18
-1.16505e-18
-1.13032e-18
-1.1356e-18
-1.13085e-18
-1.14641e-18
-1.16299e-18
-1.14841e-18
-1.1452e-18
-1.14608e-18
-1.15117e-18
-1.16125e-18
-1.14491e-18
-1.12896e-18
-1.14069e-18
-1.14459e-18
-1.14721e-18
-1.14248e-18
-1.13492e-18
-1.14117e-18
-1.14006e-18
-1.14241e-18
-1.13467e-18
-9.36747e-19
-1.25965e-18
-1.17741e-18
-1.1514e-18
-1.17437e-18
-1.20677e-18
-1.16966e-18
-1.16872e-18
-1.16871e-18
-1.15589e-18
-1.12984e-18
-1.1328e-18
-1.15106e-18
-1.15364e-18
-1.15534e-18
-1.17769e-18
-1.177e-18
-1.15675e-18
-1.14995e-18
-1.14955e-18
-1.16294e-18
-1.15649e-18
-1.15563e-18
-1.16976e-18
-1.14552e-18
-1.14824e-18
-1.14715e-18
-1.14368e-18
-1.14674e-18
-1.1412e-18
-1.13033e-18
-1.15527e-18
-1.14994e-18
-1.14563e-18
-1.14379e-18
-1.14409e-18
-1.14425e-18
-1.14223e-18
-1.1367e-18
-1.12905e-18
-1.14336e-18
-1.14727e-18
-1.1548e-18
-1.13128e-18
-1.13059e-18
-1.14101e-18
-1.14577e-18
-1.14431e-18
-1.14554e-18
-1.14533e-18
-1.08331e-18
-1.27714e-18
-1.18309e-18
-1.16744e-18
-1.1674e-18
-1.16972e-18
-1.15833e-18
-1.18412e-18
-1.16564e-18
-1.1589e-18
-1.15073e-18
-1.15088e-18
-1.14145e-18
-1.15159e-18
-1.1429e-18
-1.15798e-18
-1.15357e-18
-1.14147e-18
-1.15213e-18
-1.15463e-18
-1.15318e-18
-1.1614e-18
-1.15566e-18
-1.14452e-18
-1.13847e-18
-1.14901e-18
-1.15789e-18
-1.14907e-18
-1.1286e-18
-1.14055e-18
-1.14667e-18
-1.1456e-18
-1.14657e-18
-1.14437e-18
-1.14356e-18
-1.14364e-18
-1.13936e-18
-1.13844e-18
-1.12769e-18
-1.13432e-18
-1.14616e-18
-1.16127e-18
-1.15164e-18
-1.13659e-18
-1.14024e-18
-1.13735e-18
-1.14706e-18
-1.14228e-18
-1.14168e-18
-1.1445e-18
-1.08807e-18
-1.19694e-18
-1.16887e-18
-1.16884e-18
-1.17591e-18
-1.16018e-18
-1.14985e-18
-1.14188e-18
-1.15677e-18
-1.16059e-18
-1.14097e-18
-1.15561e-18
-1.18131e-18
-1.16632e-18
-1.17761e-18
-1.17688e-18
-1.14541e-18
-1.15419e-18
-1.16543e-18
-1.15834e-18
-1.15326e-18
-1.14769e-18
-1.15167e-18
-1.15679e-18
-1.1536e-18
-1.15472e-18
-1.15275e-18
-1.1529e-18
-1.15287e-18
-1.16604e-18
-1.15375e-18
-1.15394e-18
-1.17556e-18
-1.16517e-18
-1.16801e-18
-1.15195e-18
-1.14506e-18
-1.13466e-18
-1.1565e-18
-1.15339e-18
-1.15684e-18
-1.14356e-18
-1.13813e-18
-1.14114e-18
-1.14708e-18
-1.13779e-18
-1.1408e-18
-1.14217e-18
-1.14667e-18
-1.15231e-18
-1.25236e-18
-1.19146e-18
-1.18675e-18
-1.18452e-18
-1.21097e-18
-1.13542e-18
-1.12726e-18
-1.17706e-18
-1.16927e-18
-1.1931e-18
-1.17824e-18
-1.12534e-18
-1.15343e-18
-1.13508e-18
-1.12329e-18
-1.1539e-18
-1.16041e-18
-1.16955e-18
-1.15982e-18
-1.16733e-18
-1.17128e-18
-1.15301e-18
-1.14586e-18
-1.15544e-18
-1.15323e-18
-1.14679e-18
-1.15262e-18
-1.16088e-18
-1.16143e-18
-1.1712e-18
-1.1552e-18
-1.15248e-18
-1.13703e-18
-1.12957e-18
-1.13343e-18
-1.13929e-18
-1.1414e-18
-1.13577e-18
-1.13309e-18
-1.14216e-18
-1.1464e-18
-1.13843e-18
-1.13392e-18
-1.14142e-18
-1.14993e-18
-1.14711e-18
-1.15087e-18
-1.15478e-18
-1.16035e-18
-1.14577e-18
-1.10841e-18
-1.174e-18
-1.23201e-18
-1.23597e-18
-1.21789e-18
-1.15674e-18
-1.12147e-18
-1.1417e-18
-1.16277e-18
-1.17633e-18
-1.16175e-18
-1.13469e-18
-1.15108e-18
-1.13864e-18
-1.13624e-18
-1.1619e-18
-1.18035e-18
-1.16365e-18
-1.15643e-18
-1.15916e-18
-1.15469e-18
-1.14855e-18
-1.16134e-18
-1.15835e-18
-1.15688e-18
-1.16317e-18
-1.15341e-18
-1.14928e-18
-1.14383e-18
-1.16165e-18
-1.1638e-18
-1.15573e-18
-1.15782e-18
-1.15173e-18
-1.14961e-18
-1.15148e-18
-1.15568e-18
-1.14972e-18
-1.14759e-18
-1.14701e-18
-1.13834e-18
-1.1465e-18
-1.14607e-18
-1.1515e-18
-1.15388e-18
-1.15736e-18
-1.15745e-18
-1.14712e-18
-1.14096e-18
-1.13946e-18
-1.14416e-18
-1.16992e-18
-1.18562e-18
-1.22698e-18
-1.18352e-18
-1.16838e-18
-1.16415e-18
-1.19064e-18
-1.17159e-18
-1.1834e-18
-1.14139e-18
-1.13675e-18
-1.16537e-18
-1.18345e-18
-1.16608e-18
-1.16571e-18
-1.18436e-18
-1.17522e-18
-1.15534e-18
-1.16833e-18