/*--------------------------------*- C++ -*----------------------------------*\
  =========                 |
  \\      /  F ield         | OpenFOAM: The Open Source CFD Toolbox
   \\    /   O peration     | Website:  https://openfoam.org
    \\  /    A nd           | Version:  7
     \\/     M anipulation  |
\*---------------------------------------------------------------------------*/
FoamFile
{
    version     2.0;
    format      ascii;
    class       volScalarField;
    location    "88000";
    object      k;
}
// * * * * * * * * * * * * * * * * * * * * * * * * * * * * * * * * * * * * * //

dimensions      [0 2 -2 0 0 0 0];

internalField   nonuniform List<scalar> 
4764
(
6.93361e-07
6.91803e-07
6.90393e-07
6.89106e-07
6.87998e-07
6.86972e-07
7.18113e-07
7.15781e-07
7.1347e-07
7.11293e-07
7.09172e-07
7.07158e-07
7.05246e-07
7.03461e-07
7.0177e-07
7.00192e-07
6.98677e-07
6.97308e-07
6.96063e-07
6.94983e-07
6.93989e-07
6.93107e-07
6.92438e-07
6.91882e-07
6.91552e-07
6.91437e-07
6.91471e-07
6.91683e-07
6.9208e-07
6.92617e-07
6.93308e-07
6.94064e-07
6.94987e-07
6.96033e-07
6.97265e-07
7.24214e-07
7.21957e-07
7.19717e-07
7.17605e-07
7.15543e-07
7.13587e-07
7.11741e-07
7.10008e-07
7.08367e-07
7.06838e-07
7.05364e-07
7.04044e-07
7.02833e-07
7.01781e-07
7.00819e-07
6.99962e-07
6.99307e-07
6.98758e-07
6.98435e-07
6.98327e-07
6.98365e-07
6.98576e-07
6.98967e-07
6.99488e-07
7.00161e-07
7.00895e-07
7.01785e-07
7.028e-07
7.03999e-07
7.05305e-07
7.06731e-07
7.08281e-07
7.09982e-07
7.30138e-07
7.2795e-07
7.25784e-07
7.23733e-07
7.2173e-07
7.19837e-07
7.18049e-07
7.16376e-07
7.14786e-07
7.13305e-07
7.1187e-07
7.10592e-07
7.09414e-07
7.08392e-07
7.07461e-07
7.06634e-07
7.05988e-07
7.05451e-07
7.05136e-07
7.05034e-07
7.05069e-07
7.05279e-07
7.05673e-07
7.0617e-07
7.06826e-07
7.07538e-07
7.08402e-07
7.09384e-07
7.10546e-07
7.11815e-07
7.132e-07
7.14701e-07
7.1635e-07
7.1812e-07
7.19941e-07
7.21858e-07
7.23827e-07
7.259e-07
7.28047e-07
7.30241e-07
7.3246e-07
7.34687e-07
7.3695e-07
7.39244e-07
7.41602e-07
7.35879e-07
7.33762e-07
7.31666e-07
7.29677e-07
7.27737e-07
7.25908e-07
7.24177e-07
7.22557e-07
7.21019e-07
7.19586e-07
7.18194e-07
7.1696e-07
7.15814e-07
7.14824e-07
7.13916e-07
7.13124e-07
7.12482e-07
7.11961e-07
7.11653e-07
7.11559e-07
7.11591e-07
7.11799e-07
7.12191e-07
7.1267e-07
7.13305e-07
7.13998e-07
7.14837e-07
7.15786e-07
7.16912e-07
7.18145e-07
7.19488e-07
7.20939e-07
7.22532e-07
7.24248e-07
7.26014e-07
7.27872e-07
7.29774e-07
7.31777e-07
7.33852e-07
7.35975e-07
7.38119e-07
7.40267e-07
7.42451e-07
7.44664e-07
7.4694e-07
7.41434e-07
7.39394e-07
7.37368e-07
7.35441e-07
7.33564e-07
7.31798e-07
7.30124e-07
7.28552e-07
7.27065e-07
7.2568e-07
7.24335e-07
7.23141e-07
7.22024e-07
7.21068e-07
7.20183e-07
7.19424e-07
7.18794e-07
7.18286e-07
7.17986e-07
7.17902e-07
7.17929e-07
7.18136e-07
7.18521e-07
7.18987e-07
7.19596e-07
7.20277e-07
7.2109e-07
7.22004e-07
7.23091e-07
7.24287e-07
7.25588e-07
7.26995e-07
7.28532e-07
7.30195e-07
7.31906e-07
7.337e-07
7.35539e-07
7.37474e-07
7.39477e-07
7.41525e-07
7.43593e-07
7.45662e-07
7.47774e-07
7.49899e-07
7.52094e-07
7.46804e-07
7.44843e-07
7.42883e-07
7.41018e-07
7.3921e-07
7.37506e-07
7.35889e-07
7.34365e-07
7.3293e-07
7.31587e-07
7.30294e-07
7.2914e-07
7.28052e-07
7.27132e-07
7.26267e-07
7.25536e-07
7.24916e-07
7.24428e-07
7.24134e-07
7.24055e-07
7.24083e-07
7.24289e-07
7.24662e-07
7.25115e-07
7.25706e-07
7.26372e-07
7.27155e-07
7.28033e-07
7.29081e-07
7.30241e-07
7.31505e-07
7.32862e-07
7.34349e-07
7.35955e-07
7.37611e-07
7.39347e-07
7.41122e-07
7.42989e-07
7.44922e-07
7.46894e-07
7.48885e-07
7.50877e-07
7.52911e-07
7.54953e-07
7.57064e-07
7.51992e-07
7.50105e-07
7.48215e-07
7.46413e-07
7.44668e-07
7.43026e-07
7.41466e-07
7.39989e-07
7.38612e-07
7.37312e-07
7.36069e-07
7.3495e-07
7.33895e-07
7.33006e-07
7.32168e-07
7.31457e-07
7.30855e-07
7.30384e-07
7.30096e-07
7.30019e-07
7.30046e-07
7.30257e-07
7.30615e-07
7.31052e-07
7.31632e-07
7.32277e-07
7.3303e-07
7.33877e-07
7.34887e-07
7.36006e-07
7.3724e-07
7.38546e-07
7.39983e-07
7.41532e-07
7.43134e-07
7.44806e-07
7.46517e-07
7.48316e-07
7.50179e-07
7.52076e-07
7.53995e-07
7.5591e-07
7.57866e-07
7.59824e-07
7.61853e-07
7.56997e-07
7.55178e-07
7.53364e-07
7.51619e-07
7.49937e-07
7.48355e-07
7.46859e-07
7.45429e-07
7.4411e-07
7.42847e-07
7.41653e-07
7.40571e-07
7.39546e-07
7.38691e-07
7.37877e-07
7.37195e-07
7.36602e-07
7.36154e-07
7.35872e-07
7.35791e-07
7.35823e-07
7.3604e-07
7.36376e-07
7.36798e-07
7.37368e-07
7.37992e-07
7.3872e-07
7.39535e-07
7.40509e-07
7.41586e-07
7.42784e-07
7.44044e-07
7.45431e-07
7.46924e-07
7.48466e-07
7.50081e-07
7.51727e-07
7.53454e-07
7.55247e-07
7.57069e-07
7.58917e-07
7.60761e-07
7.62638e-07
7.64511e-07
7.66458e-07
7.61811e-07
7.6006e-07
7.58322e-07
7.56635e-07
7.5502e-07
7.535e-07
7.5206e-07
7.50683e-07
7.49417e-07
7.48197e-07
7.47045e-07
7.46001e-07
7.45011e-07
7.44186e-07
7.434e-07
7.4274e-07
7.42163e-07
7.41731e-07
7.4146e-07
7.41377e-07
7.41412e-07
7.4163e-07
7.41953e-07
7.42357e-07
7.42913e-07
7.43515e-07
7.44219e-07
7.45001e-07
7.45939e-07
7.46978e-07
7.48144e-07
7.49355e-07
7.50693e-07
7.5213e-07
7.53612e-07
7.55165e-07
7.56746e-07
7.58406e-07
7.60129e-07
7.61877e-07
7.63653e-07
7.65427e-07
7.67225e-07
7.69011e-07
7.70879e-07
7.66439e-07
7.64751e-07
7.63092e-07
7.61463e-07
7.59916e-07
7.58457e-07
7.57069e-07
7.55749e-07
7.54532e-07
7.53354e-07
7.52244e-07
7.51244e-07
7.50287e-07
7.49488e-07
7.4873e-07
7.48093e-07
7.47536e-07
7.4712e-07
7.46858e-07
7.46775e-07
7.46812e-07
7.47033e-07
7.47342e-07
7.47729e-07
7.48266e-07
7.4885e-07
7.49525e-07
7.50277e-07
7.5118e-07
7.52182e-07
7.5331e-07
7.54478e-07
7.55761e-07
7.57149e-07
7.58565e-07
7.60057e-07
7.61578e-07
7.63171e-07
7.64825e-07
7.66497e-07
7.68202e-07
7.699e-07
7.71619e-07
7.73323e-07
7.75112e-07
7.70871e-07
7.69251e-07
7.67668e-07
7.66101e-07
7.64617e-07
7.63219e-07
7.61883e-07
7.6062e-07
7.59458e-07
7.58321e-07
7.57249e-07
7.56293e-07
7.55373e-07
7.54596e-07
7.5387e-07
7.53257e-07
7.52713e-07
7.52318e-07
7.52065e-07
7.51983e-07
7.52021e-07
7.5224e-07
7.52537e-07
7.5291e-07
7.53424e-07
7.53996e-07
7.54641e-07
7.55362e-07
7.56231e-07
7.57196e-07
7.58282e-07
7.59406e-07
7.60639e-07
7.61974e-07
7.63329e-07
7.6476e-07
7.66215e-07
7.67746e-07
7.69332e-07
7.70927e-07
7.72556e-07
7.74179e-07
7.75824e-07
7.77444e-07
7.7915e-07
7.75107e-07
7.7356e-07
7.72053e-07
7.70547e-07
7.69127e-07
7.6779e-07
7.66506e-07
7.65297e-07
7.64187e-07
7.63097e-07
7.62062e-07
7.61151e-07
7.60266e-07
7.59513e-07
7.58813e-07
7.58225e-07
7.57697e-07
7.57324e-07
7.5708e-07
7.56999e-07
7.57038e-07
7.57252e-07
7.57535e-07
7.57899e-07
7.58386e-07
7.58951e-07
7.59567e-07
7.60254e-07
7.6109e-07
7.62018e-07
7.63058e-07
7.6414e-07
7.65323e-07
7.66603e-07
7.67895e-07
7.69272e-07
7.70661e-07
7.72124e-07
7.73641e-07
7.75161e-07
7.76713e-07
7.78261e-07
7.79832e-07
7.81371e-07
7.8299e-07
7.80607e-07
7.79144e-07
7.77673e-07
7.76238e-07
7.74799e-07
7.73441e-07
7.72161e-07
7.70934e-07
7.69778e-07
7.68718e-07
7.6768e-07
7.6668e-07
7.6581e-07
7.64959e-07
7.64232e-07
7.63556e-07
7.62999e-07
7.62488e-07
7.6213e-07
7.61893e-07
7.61815e-07
7.61859e-07
7.62064e-07
7.62335e-07
7.62689e-07
7.63154e-07
7.63707e-07
7.64293e-07
7.64951e-07
7.65755e-07
7.66645e-07
7.6764e-07
7.68679e-07
7.69813e-07
7.71033e-07
7.72267e-07
7.73585e-07
7.74906e-07
7.76303e-07
7.77752e-07
7.79199e-07
7.80676e-07
7.82148e-07
7.83644e-07
7.85096e-07
7.86635e-07
7.84371e-07
7.82977e-07
7.81588e-07
7.80222e-07
7.78848e-07
7.77553e-07
7.76336e-07
7.75165e-07
7.74061e-07
7.73048e-07
7.7206e-07
7.71102e-07
7.70273e-07
7.69455e-07
7.68749e-07
7.68103e-07
7.67573e-07
7.67081e-07
7.66739e-07
7.66509e-07
7.66435e-07
7.66478e-07
7.66676e-07
7.6694e-07
7.67282e-07
7.67722e-07
7.68262e-07
7.68819e-07
7.69444e-07
7.70224e-07
7.71074e-07
7.7202e-07
7.7302e-07
7.74101e-07
7.75262e-07
7.76443e-07
7.77696e-07
7.78954e-07
7.80283e-07
7.81666e-07
7.83039e-07
7.84435e-07
7.85837e-07
7.87253e-07
7.88621e-07
7.90077e-07
7.87929e-07
7.86609e-07
7.85297e-07
7.84005e-07
7.82696e-07
7.81465e-07
7.80311e-07
7.79191e-07
7.78139e-07
7.77179e-07
7.76236e-07
7.75324e-07
7.74531e-07
7.73752e-07
7.73068e-07
7.72451e-07
7.71944e-07
7.71475e-07
7.71144e-07
7.70925e-07
7.70855e-07
7.70897e-07
7.7109e-07
7.71347e-07
7.7167e-07
7.7209e-07
7.72614e-07
7.73139e-07
7.73738e-07
7.74487e-07
7.75305e-07
7.76202e-07
7.77156e-07
7.78188e-07
7.79293e-07
7.80413e-07
7.81603e-07
7.82797e-07
7.84059e-07
7.85376e-07
7.86674e-07
7.87992e-07
7.89319e-07
7.90656e-07
7.91942e-07
7.93315e-07
7.92506e-07
7.91277e-07
7.90035e-07
7.88801e-07
7.8758e-07
7.86334e-07
7.85172e-07
7.84077e-07
7.83013e-07
7.82014e-07
7.81102e-07
7.80208e-07
7.79343e-07
7.78588e-07
7.7784e-07
7.77179e-07
7.76596e-07
7.76108e-07
7.7566e-07
7.75345e-07
7.75137e-07
7.75067e-07
7.75113e-07
7.75296e-07
7.75546e-07
7.75856e-07
7.76257e-07
7.76759e-07
7.77258e-07
7.77828e-07
7.78544e-07
7.79327e-07
7.80181e-07
7.81083e-07
7.82067e-07
7.83115e-07
7.8418e-07
7.85302e-07
7.86435e-07
7.87629e-07
7.88882e-07
7.90103e-07
7.91344e-07
7.92595e-07
7.93848e-07
7.95055e-07
7.96342e-07
7.95566e-07
7.94412e-07
7.93251e-07
7.92091e-07
7.90942e-07
7.89764e-07
7.88667e-07
7.87636e-07
7.86623e-07
7.85682e-07
7.84819e-07
7.83969e-07
7.83152e-07
7.82433e-07
7.81722e-07
7.81084e-07
7.80535e-07
7.80063e-07
7.79638e-07
7.79341e-07
7.79141e-07
7.79073e-07
7.79123e-07
7.79297e-07
7.79541e-07
7.79837e-07
7.80214e-07
7.80695e-07
7.81166e-07
7.81711e-07
7.82388e-07
7.83143e-07
7.83953e-07
7.84803e-07
7.85733e-07
7.86727e-07
7.87734e-07
7.88795e-07
7.89865e-07
7.90992e-07
7.92176e-07
7.93319e-07
7.94486e-07
7.95661e-07
7.96825e-07
7.97956e-07
7.99154e-07
7.99486e-07
7.98411e-07
7.97329e-07
7.96255e-07
7.95168e-07
7.94093e-07
7.92981e-07
7.9195e-07
7.90979e-07
7.90022e-07
7.89139e-07
7.88325e-07
7.87514e-07
7.86744e-07
7.8607e-07
7.85393e-07
7.84779e-07
7.84259e-07
7.83808e-07
7.83407e-07
7.83127e-07
7.82934e-07
7.82868e-07
7.82918e-07
7.83088e-07
7.83321e-07
7.83608e-07
7.83961e-07
7.84423e-07
7.84864e-07
7.85384e-07
7.86018e-07
7.86744e-07
7.87511e-07
7.8831e-07
7.89189e-07
7.90123e-07
7.91078e-07
7.92071e-07
7.93079e-07
7.94137e-07
7.95252e-07
7.96321e-07
7.97409e-07
7.98508e-07
7.99583e-07
8.00639e-07
8.01745e-07
8.02032e-07
8.01037e-07
8.00028e-07
7.99035e-07
7.98023e-07
7.97022e-07
7.95982e-07
7.95011e-07
7.94102e-07
7.932e-07
7.92375e-07
7.91614e-07
7.9084e-07
7.90124e-07
7.89487e-07
7.8885e-07
7.88259e-07
7.87769e-07
7.87336e-07
7.86956e-07
7.86699e-07
7.86512e-07
7.86448e-07
7.86495e-07
7.86665e-07
7.86882e-07
7.8716e-07
7.87495e-07
7.87933e-07
7.88348e-07
7.88837e-07
7.89433e-07
7.90126e-07
7.90854e-07
7.91602e-07
7.9243e-07
7.93305e-07
7.94201e-07
7.95131e-07
7.9607e-07
7.97064e-07
7.98107e-07
7.99099e-07
8.00112e-07
8.01131e-07
8.02121e-07
8.031e-07
8.04114e-07
8.04346e-07
8.03433e-07
8.02502e-07
8.01592e-07
8.0065e-07
7.99729e-07
7.98755e-07
7.97847e-07
7.97004e-07
7.96157e-07
7.95387e-07
7.9468e-07
7.93946e-07
7.93278e-07
7.92686e-07
7.92082e-07
7.9152e-07
7.91056e-07
7.9064e-07
7.90286e-07
7.90047e-07
7.89871e-07
7.89809e-07
7.89853e-07
7.90019e-07
7.90225e-07
7.9049e-07
7.90804e-07
7.91225e-07
7.91613e-07
7.92065e-07
7.92629e-07
7.93284e-07
7.93972e-07
7.94674e-07
7.95446e-07
7.96262e-07
7.97099e-07
7.97966e-07
7.98836e-07
7.99764e-07
8.00735e-07
8.01653e-07
8.02587e-07
8.03529e-07
8.04432e-07
8.05329e-07
8.06256e-07
8.0643e-07
8.05599e-07
8.04747e-07
8.03915e-07
8.03049e-07
8.02204e-07
8.01296e-07
8.00455e-07
7.99675e-07
7.98887e-07
7.98174e-07
7.97516e-07
7.96827e-07
7.96209e-07
7.95656e-07
7.9509e-07
7.94557e-07
7.94114e-07
7.93721e-07
7.93392e-07
7.93172e-07
7.93001e-07
7.92946e-07
7.92987e-07
7.93146e-07
7.93345e-07
7.93591e-07
7.93891e-07
7.9429e-07
7.9465e-07
7.9507e-07
7.956e-07
7.96213e-07
7.96867e-07
7.97516e-07
7.98232e-07
7.98988e-07
7.9977e-07
8.00569e-07
8.01369e-07
8.02236e-07
8.03131e-07
8.03972e-07
8.04832e-07
8.05691e-07
8.06512e-07
8.07326e-07
8.08165e-07
8.08275e-07
8.07522e-07
8.06754e-07
8.05999e-07
8.05208e-07
8.04441e-07
8.03603e-07
8.02825e-07
8.0211e-07
8.01384e-07
8.00724e-07
8.00118e-07
7.99477e-07
7.98909e-07
7.98396e-07
7.97868e-07
7.97364e-07
7.96943e-07
7.96572e-07
7.96268e-07
7.96064e-07
7.95902e-07
7.95849e-07
7.95892e-07
7.96043e-07
7.96237e-07
7.96464e-07
7.96747e-07
7.97127e-07
7.97457e-07
7.97844e-07
7.98341e-07
7.98912e-07
7.99527e-07
8.00127e-07
8.00787e-07
8.01479e-07
8.02208e-07
8.02941e-07
8.03668e-07
8.04469e-07
8.05292e-07
8.06055e-07
8.06835e-07
8.07617e-07
8.08349e-07
8.09078e-07
8.09829e-07
8.10475e-07
8.09871e-07
8.09197e-07
8.08518e-07
8.0784e-07
8.07125e-07
8.06438e-07
8.05669e-07
8.04956e-07
8.04307e-07
8.03641e-07
8.03033e-07
8.02484e-07
8.0189e-07
8.01372e-07
8.00901e-07
8.0041e-07
7.99934e-07
7.99537e-07
7.99189e-07
7.98904e-07
7.98716e-07
7.98567e-07
7.98512e-07
7.98562e-07
7.98707e-07
7.9889e-07
7.99102e-07
7.99369e-07
7.99725e-07
8.00029e-07
8.00383e-07
8.00842e-07
8.0137e-07
8.01946e-07
8.02495e-07
8.03104e-07
8.03732e-07
8.04403e-07
8.05069e-07
8.05727e-07
8.06462e-07
8.07208e-07
8.07892e-07
8.08595e-07
8.09299e-07
8.09941e-07
8.10583e-07
8.11246e-07
8.12212e-07
8.11726e-07
8.1121e-07
8.1062e-07
8.10027e-07
8.09428e-07
8.08794e-07
8.08184e-07
8.07489e-07
8.0684e-07
8.06254e-07
8.05649e-07
8.05097e-07
8.04602e-07
8.04058e-07
8.03593e-07
8.03159e-07
8.0271e-07
8.02258e-07
8.01889e-07
8.01564e-07
8.01299e-07
8.01127e-07
8.00989e-07
8.00933e-07
8.00986e-07
8.01124e-07
8.01297e-07
8.01495e-07
8.01748e-07
8.02077e-07
8.02354e-07
8.0268e-07
8.03099e-07
8.03586e-07
8.04123e-07
8.0462e-07
8.05173e-07
8.05741e-07
8.06353e-07
8.06946e-07
8.07539e-07
8.08207e-07
8.08876e-07
8.09478e-07
8.10104e-07
8.10725e-07
8.1128e-07
8.1183e-07
8.12405e-07
8.13104e-07
8.12711e-07
8.12284e-07
8.11782e-07
8.11273e-07
8.10759e-07
8.10206e-07
8.0967e-07
8.09049e-07
8.0847e-07
8.07948e-07
8.07404e-07
8.06909e-07
8.06465e-07
8.05974e-07
8.05563e-07
8.05167e-07
8.04757e-07
8.04332e-07
8.03992e-07
8.03689e-07
8.03445e-07
8.03285e-07
8.03158e-07
8.03106e-07
8.03162e-07
8.03294e-07
8.03451e-07
8.03641e-07
8.03879e-07
8.04182e-07
8.04431e-07
8.04722e-07
8.05107e-07
8.05552e-07
8.0605e-07
8.06494e-07
8.06989e-07
8.07493e-07
8.08045e-07
8.0857e-07
8.09096e-07
8.09692e-07
8.10284e-07
8.10803e-07
8.11355e-07
8.11887e-07
8.12357e-07
8.12815e-07
8.13296e-07
8.13722e-07
8.13424e-07
8.13088e-07
8.12677e-07
8.12251e-07
8.11819e-07
8.11349e-07
8.10893e-07
8.10346e-07
8.09838e-07
8.09377e-07
8.08898e-07
8.08457e-07
8.08066e-07
8.07631e-07
8.07271e-07
8.06914e-07
8.06543e-07
8.06149e-07
8.05839e-07
8.05558e-07
8.05334e-07
8.05187e-07
8.05071e-07
8.05023e-07
8.05077e-07
8.05208e-07
8.05349e-07
8.05526e-07
8.0575e-07
8.06027e-07
8.06246e-07
8.06503e-07
8.06858e-07
8.0726e-07
8.07715e-07
8.08109e-07
8.08547e-07
8.08984e-07
8.09476e-07
8.09933e-07
8.10385e-07
8.10909e-07
8.11428e-07
8.11861e-07
8.12334e-07
8.12781e-07
8.13161e-07
8.13527e-07
8.13911e-07
8.14058e-07
8.13857e-07
8.13614e-07
8.13289e-07
8.12953e-07
8.126e-07
8.12213e-07
8.11839e-07
8.11371e-07
8.1093e-07
8.10532e-07
8.10123e-07
8.09737e-07
8.09401e-07
8.09016e-07
8.08708e-07
8.08395e-07
8.08059e-07
8.07696e-07
8.07417e-07
8.07162e-07
8.06959e-07
8.0682e-07
8.06719e-07
8.06675e-07
8.06727e-07
8.06859e-07
8.06983e-07
8.07147e-07
8.07355e-07
8.07603e-07
8.07797e-07
8.08019e-07
8.08338e-07
8.08701e-07
8.09109e-07
8.09452e-07
8.09832e-07
8.10205e-07
8.10633e-07
8.11025e-07
8.11402e-07
8.11854e-07
8.12294e-07
8.12643e-07
8.13033e-07
8.13397e-07
8.13684e-07
8.13955e-07
8.1424e-07
8.14101e-07
8.13998e-07
8.13846e-07
8.13608e-07
8.13364e-07
8.13096e-07
8.12793e-07
8.12499e-07
8.12115e-07
8.11742e-07
8.11408e-07
8.11069e-07
8.10735e-07
8.10455e-07
8.10124e-07
8.09869e-07
8.09602e-07
8.09297e-07
8.08968e-07
8.0872e-07
8.08488e-07
8.0831e-07
8.08179e-07
8.0809e-07
8.08054e-07
8.081e-07
8.08232e-07
8.08344e-07
8.08496e-07
8.08683e-07
8.08903e-07
8.09069e-07
8.0926e-07
8.09543e-07
8.09865e-07
8.10224e-07
8.10517e-07
8.10839e-07
8.11149e-07
8.11507e-07
8.11832e-07
8.12137e-07
8.12516e-07
8.12873e-07
8.1314e-07
8.13445e-07
8.13724e-07
8.13918e-07
8.14091e-07
8.14276e-07
8.13835e-07
8.13833e-07
8.13778e-07
8.13628e-07
8.13477e-07
8.13297e-07
8.13078e-07
8.12865e-07
8.12562e-07
8.12259e-07
8.11994e-07
8.11723e-07
8.11445e-07
8.11222e-07
8.10945e-07
8.10745e-07
8.1052e-07
8.10252e-07
8.09956e-07
8.0974e-07
8.09529e-07
8.09374e-07
8.09256e-07
8.09177e-07
8.09146e-07
8.0919e-07
8.09318e-07
8.09421e-07
8.09558e-07
8.09724e-07
8.09915e-07
8.10058e-07
8.10217e-07
8.10463e-07
8.1074e-07
8.11053e-07
8.11292e-07
8.11555e-07
8.11799e-07
8.12091e-07
8.12349e-07
8.12579e-07
8.12881e-07
8.13154e-07
8.13337e-07
8.13556e-07
8.13749e-07
8.13848e-07
8.1392e-07
8.14009e-07
8.13253e-07
8.13349e-07
8.13393e-07
8.13338e-07
8.13277e-07
8.1319e-07
8.13054e-07
8.12922e-07
8.12706e-07
8.12473e-07
8.12276e-07
8.12077e-07
8.11856e-07
8.11688e-07
8.11468e-07
8.11325e-07
8.11138e-07
8.10912e-07
8.10648e-07
8.10462e-07
8.10277e-07
8.10139e-07
8.10039e-07
8.09971e-07
8.09943e-07
8.09986e-07
8.10112e-07
8.10199e-07
8.10323e-07
8.10466e-07
8.10634e-07
8.10752e-07
8.10878e-07
8.11083e-07
8.11314e-07
8.11582e-07
8.11769e-07
8.11968e-07
8.12145e-07
8.12375e-07
8.1256e-07
8.12713e-07
8.12937e-07
8.13129e-07
8.13225e-07
8.13358e-07
8.13459e-07
8.13464e-07
8.13434e-07
8.13421e-07
8.12342e-07
8.12538e-07
8.1268e-07
8.12723e-07
8.12755e-07
8.12763e-07
8.1271e-07
8.12659e-07
8.12531e-07
8.12369e-07
8.12244e-07
8.12115e-07
8.11952e-07
8.11844e-07
8.11683e-07
8.11593e-07
8.11451e-07
8.11261e-07
8.11034e-07
8.10878e-07
8.10719e-07
8.10599e-07
8.10512e-07
8.10456e-07
8.10436e-07
8.10478e-07
8.10602e-07
8.10673e-07
8.10778e-07
8.109e-07
8.11043e-07
8.11136e-07
8.11234e-07
8.11392e-07
8.1158e-07
8.11799e-07
8.11933e-07
8.12072e-07
8.1218e-07
8.12343e-07
8.12457e-07
8.12532e-07
8.12676e-07
8.12783e-07
8.12789e-07
8.12834e-07
8.12843e-07
8.12756e-07
8.1262e-07
8.12505e-07
8.11083e-07
8.11382e-07
8.11623e-07
8.11767e-07
8.11894e-07
8.11999e-07
8.12035e-07
8.12066e-07
8.12023e-07
8.11933e-07
8.11882e-07
8.11829e-07
8.11725e-07
8.11679e-07
8.11575e-07
8.11537e-07
8.11441e-07
8.11291e-07
8.11101e-07
8.10972e-07
8.10844e-07
8.10742e-07
8.10668e-07
8.10623e-07
8.10612e-07
8.10652e-07
8.10771e-07
8.10825e-07
8.10917e-07
8.11016e-07
8.11136e-07
8.11203e-07
8.11265e-07
8.11381e-07
8.11525e-07
8.11691e-07
8.1177e-07
8.11848e-07
8.11886e-07
8.11984e-07
8.12028e-07
8.12022e-07
8.12081e-07
8.12101e-07
8.1202e-07
8.11971e-07
8.11889e-07
8.11708e-07
8.11465e-07
8.11245e-07
8.09466e-07
8.0987e-07
8.10213e-07
8.1046e-07
8.10679e-07
8.10883e-07
8.11014e-07
8.11125e-07
8.11169e-07
8.11156e-07
8.11181e-07
8.11202e-07
8.11161e-07
8.11174e-07
8.11128e-07
8.11148e-07
8.11093e-07
8.10986e-07
8.10837e-07
8.10734e-07
8.10637e-07
8.1055e-07
8.10494e-07
8.10461e-07
8.10458e-07
8.10496e-07
8.10607e-07
8.10647e-07
8.10726e-07
8.10801e-07
8.10894e-07
8.10933e-07
8.10964e-07
8.11037e-07
8.11132e-07
8.11249e-07
8.11271e-07
8.11284e-07
8.11253e-07
8.11283e-07
8.11253e-07
8.11168e-07
8.11142e-07
8.1107e-07
8.10902e-07
8.10758e-07
8.10581e-07
8.10302e-07
8.09949e-07
8.09623e-07
8.0747e-07
8.07985e-07
8.08433e-07
8.08784e-07
8.09095e-07
8.094e-07
8.09631e-07
8.09824e-07
8.09957e-07
8.10023e-07
8.10121e-07
8.10221e-07
8.10244e-07
8.10318e-07
8.10331e-07
8.10406e-07
8.10399e-07
8.10333e-07
8.10225e-07
8.10151e-07
8.10081e-07
8.10013e-07
8.09975e-07
8.09953e-07
8.09958e-07
8.09995e-07
8.10094e-07
8.10124e-07
8.1019e-07
8.10241e-07
8.10302e-07
8.10314e-07
8.10312e-07
8.10346e-07
8.10391e-07
8.10454e-07
8.10418e-07
8.10365e-07
8.10266e-07
8.10227e-07
8.10119e-07
8.09952e-07
8.09839e-07
8.09673e-07
8.0942e-07
8.0918e-07
8.08901e-07
8.08522e-07
8.0806e-07
8.07627e-07
8.05083e-07
8.05711e-07
8.06262e-07
8.06719e-07
8.07127e-07
8.07536e-07
8.07866e-07
8.08147e-07
8.08371e-07
8.08516e-07
8.08689e-07
8.08867e-07
8.08959e-07
8.09096e-07
8.09168e-07
8.09296e-07
8.09337e-07
8.09318e-07
8.09247e-07
8.09202e-07
8.0916e-07
8.09111e-07
8.09091e-07
8.09086e-07
8.09095e-07
8.09133e-07
8.09217e-07
8.0924e-07
8.0929e-07
8.09317e-07
8.09349e-07
8.09328e-07
8.09293e-07
8.09291e-07
8.09281e-07
8.0929e-07
8.09198e-07
8.09079e-07
8.08906e-07
8.08797e-07
8.08608e-07
8.08362e-07
8.0816e-07
8.07898e-07
8.07558e-07
8.07219e-07
8.06836e-07
8.06355e-07
8.05781e-07
8.05235e-07
8.02281e-07
8.03025e-07
8.03685e-07
8.04248e-07
8.04758e-07
8.0527e-07
8.05705e-07
8.06072e-07
8.06394e-07
8.06619e-07
8.06869e-07
8.07123e-07
8.07288e-07
8.07485e-07
8.07617e-07
8.07802e-07
8.07895e-07
8.0792e-07
8.0789e-07
8.07874e-07
8.0786e-07
8.07831e-07
8.0783e-07
8.07841e-07
8.07854e-07
8.07895e-07
8.07964e-07
8.0798e-07
8.08012e-07
8.0801e-07
8.08015e-07
8.0796e-07
8.07895e-07
8.07851e-07
8.0779e-07
8.07744e-07
8.07595e-07
8.07403e-07
8.07158e-07
8.06974e-07
8.06707e-07
8.06378e-07
8.06087e-07
8.05727e-07
8.05297e-07
8.04854e-07
8.04369e-07
8.03783e-07
8.03093e-07
8.02428e-07
7.99044e-07
7.99907e-07
8.00684e-07
8.01354e-07
8.01969e-07
8.02586e-07
8.03125e-07
8.03584e-07
8.04001e-07
8.04309e-07
8.04637e-07
8.04969e-07
8.05208e-07
8.05469e-07
8.05664e-07
8.05903e-07
8.0605e-07
8.0612e-07
8.06132e-07
8.0615e-07
8.06165e-07
8.06155e-07
8.06174e-07
8.06197e-07
8.06219e-07
8.06262e-07
8.06317e-07
8.06324e-07
8.06339e-07
8.06307e-07
8.0628e-07
8.06194e-07
8.06094e-07
8.06009e-07
8.05898e-07
8.05794e-07
8.05585e-07
8.05325e-07
8.05005e-07
8.04745e-07
8.04397e-07
8.03983e-07
8.03597e-07
8.03139e-07
8.02615e-07
8.02069e-07
8.01476e-07
8.00784e-07
7.99977e-07
7.99191e-07
7.95355e-07
7.96337e-07
7.97232e-07
7.98016e-07
7.98739e-07
7.99463e-07
8.00109e-07
8.00662e-07
8.01174e-07
8.01568e-07
8.01977e-07
8.02386e-07
8.02704e-07
8.03029e-07
8.0329e-07
8.03582e-07
8.03783e-07
8.03898e-07
8.03952e-07
8.0401e-07
8.04051e-07
8.04064e-07
8.04103e-07
8.04135e-07
8.04169e-07
8.0421e-07
8.04255e-07
8.04249e-07
8.04247e-07
8.04185e-07
8.04125e-07
8.04012e-07
8.03876e-07
8.03748e-07
8.03587e-07
8.03419e-07
8.03152e-07
8.02818e-07
8.02424e-07
8.02084e-07
8.01658e-07
8.01156e-07
8.00669e-07
8.00116e-07
7.9949e-07
7.98842e-07
7.98136e-07
7.97336e-07
7.9641e-07
7.95501e-07
7.9119e-07
7.92293e-07
7.93308e-07
7.94208e-07
7.95044e-07
7.95877e-07
7.96631e-07
7.97284e-07
7.97889e-07
7.98376e-07
7.98867e-07
7.99354e-07
7.99754e-07
8.00145e-07
8.00472e-07
8.00819e-07
8.01076e-07
8.01233e-07
8.01329e-07
8.01432e-07
8.01495e-07
8.01535e-07
8.01595e-07
8.01632e-07
8.01679e-07
8.01718e-07
8.01754e-07
8.01733e-07
8.0172e-07
8.01625e-07
8.01533e-07
8.01387e-07
8.01218e-07
8.01043e-07
8.0083e-07
8.00598e-07
8.00272e-07
7.99865e-07
7.99396e-07
7.98969e-07
7.98463e-07
7.9787e-07
7.97282e-07
7.96633e-07
7.95904e-07
7.95148e-07
7.94329e-07
7.93418e-07
7.92371e-07
7.91336e-07
7.86522e-07
7.8775e-07
7.8889e-07
7.89908e-07
7.90857e-07
7.91803e-07
7.92666e-07
7.93425e-07
7.94126e-07
7.94704e-07
7.95279e-07
7.95851e-07
7.96333e-07
7.9679e-07
7.97184e-07
7.97592e-07
7.97903e-07
7.98106e-07
7.98246e-07
7.98394e-07
7.98479e-07
7.98548e-07
7.98629e-07
7.98671e-07
7.9873e-07
7.98769e-07
7.98794e-07
7.98759e-07
7.98733e-07
7.98606e-07
7.9848e-07
7.98301e-07
7.98094e-07
7.97871e-07
7.97608e-07
7.97307e-07
7.96921e-07
7.96444e-07
7.95895e-07
7.95382e-07
7.94789e-07
7.94103e-07
7.93414e-07
7.92667e-07
7.91833e-07
7.90962e-07
7.90028e-07
7.89003e-07
7.87834e-07
7.86671e-07
7.81328e-07
7.82683e-07
7.83948e-07
7.85088e-07
7.86155e-07
7.87217e-07
7.88194e-07
7.89057e-07
7.89861e-07
7.90528e-07
7.91189e-07
7.91847e-07
7.92415e-07
7.92942e-07
7.93405e-07
7.93876e-07
7.94237e-07
7.94493e-07
7.94675e-07
7.94866e-07
7.94975e-07
7.95075e-07
7.95175e-07
7.95226e-07
7.95299e-07
7.95336e-07
7.95351e-07
7.95301e-07
7.95259e-07
7.95102e-07
7.94942e-07
7.94728e-07
7.94479e-07
7.94211e-07
7.93893e-07
7.93526e-07
7.93078e-07
7.92528e-07
7.91898e-07
7.91296e-07
7.90615e-07
7.89832e-07
7.8904e-07
7.88193e-07
7.8725e-07
7.86259e-07
7.85206e-07
7.84067e-07
7.82773e-07
7.81476e-07
7.75575e-07
7.77064e-07
7.78456e-07
7.7972e-07
7.80908e-07
7.82089e-07
7.83182e-07
7.84156e-07
7.85062e-07
7.85823e-07
7.86572e-07
7.8732e-07
7.87974e-07
7.88571e-07
7.89107e-07
7.89645e-07
7.90053e-07
7.90361e-07
7.90592e-07
7.90823e-07
7.90956e-07
7.91089e-07
7.91207e-07
7.91271e-07
7.91355e-07
7.91389e-07
7.91395e-07
7.91333e-07
7.91275e-07
7.91086e-07
7.90888e-07
7.90642e-07
7.90351e-07
7.90033e-07
7.89658e-07
7.89223e-07
7.88711e-07
7.88088e-07
7.87373e-07
7.86681e-07
7.85909e-07
7.8503e-07
7.84129e-07
7.83179e-07
7.82129e-07
7.81014e-07
7.7984e-07
7.7858e-07
7.77157e-07
7.75727e-07
7.69239e-07
7.70861e-07
7.72385e-07
7.73777e-07
7.75089e-07
7.76392e-07
7.77605e-07
7.78693e-07
7.79704e-07
7.80556e-07
7.814e-07
7.82236e-07
7.82983e-07
7.8365e-07
7.84259e-07
7.84864e-07
7.85322e-07
7.85687e-07
7.85967e-07
7.8624e-07
7.86396e-07
7.86563e-07
7.86701e-07
7.86777e-07
7.86869e-07
7.86905e-07
7.869e-07
7.86826e-07
7.86749e-07
7.8653e-07
7.86294e-07
7.86011e-07
7.85676e-07
7.85311e-07
7.84878e-07
7.84373e-07
7.83793e-07
7.83093e-07
7.82295e-07
7.81506e-07
7.80641e-07
7.79665e-07
7.78656e-07
7.77599e-07
7.76436e-07
7.75197e-07
7.73899e-07
7.72512e-07
7.7096e-07
7.6939e-07
7.62282e-07
7.64045e-07
7.65706e-07
7.67227e-07
7.68666e-07
7.70096e-07
7.71428e-07
7.72632e-07
7.73751e-07
7.747e-07
7.75641e-07
7.76563e-07
7.7741e-07
7.78146e-07
7.78828e-07
7.79504e-07
7.80016e-07
7.8044e-07
7.80769e-07
7.81082e-07
7.81266e-07
7.81466e-07
7.81626e-07
7.81714e-07
7.81809e-07
7.81848e-07
7.81837e-07
7.8175e-07
7.81649e-07
7.814e-07
7.81128e-07
7.80803e-07
7.80427e-07
7.8001e-07
7.79519e-07
7.78946e-07
7.78291e-07
7.77512e-07
7.76633e-07
7.75746e-07
7.74782e-07
7.73707e-07
7.72588e-07
7.71421e-07
7.70139e-07
7.68778e-07
7.67352e-07
7.65831e-07
7.64151e-07
7.62433e-07
7.54672e-07
7.56583e-07
7.5838e-07
7.60037e-07
7.61606e-07
7.63165e-07
7.64621e-07
7.65943e-07
7.6717e-07
7.68222e-07
7.69261e-07
7.70274e-07
7.71219e-07
7.72025e-07
7.72782e-07
7.73531e-07
7.74102e-07
7.74586e-07
7.74961e-07
7.75319e-07
7.75531e-07
7.75763e-07
7.75944e-07
7.76049e-07
7.76149e-07
7.76186e-07
7.76171e-07
7.76066e-07
7.75943e-07
7.75665e-07
7.75357e-07
7.74988e-07
7.74567e-07
7.74098e-07
7.7355e-07
7.72904e-07
7.72176e-07
7.71317e-07
7.7035e-07
7.69361e-07
7.68299e-07
7.67124e-07
7.65892e-07
7.64608e-07
7.63205e-07
7.61721e-07
7.60162e-07
7.58507e-07
7.56691e-07
7.54826e-07
7.46376e-07
7.48437e-07
7.50374e-07
7.52171e-07
7.53873e-07
7.55562e-07
7.57143e-07
7.58588e-07
7.59925e-07
7.61081e-07
7.62225e-07
7.6333e-07
7.64373e-07
7.65254e-07
7.66088e-07
7.6691e-07
7.6754e-07
7.6809e-07
7.68511e-07
7.68916e-07
7.69156e-07
7.69422e-07
7.69621e-07
7.69743e-07
7.69847e-07
7.69882e-07
7.69864e-07
7.69745e-07
7.69596e-07
7.69291e-07
7.68945e-07
7.68533e-07
7.68062e-07
7.67542e-07
7.66932e-07
7.66211e-07
7.6541e-07
7.64468e-07
7.63413e-07
7.6232e-07
7.61158e-07
7.5988e-07
7.58532e-07
7.57129e-07
7.55601e-07
7.53988e-07
7.52296e-07
7.50504e-07
7.48549e-07
7.4653e-07
7.37357e-07
7.39569e-07
7.41649e-07
7.43591e-07
7.45429e-07
7.47251e-07
7.48962e-07
7.50527e-07
7.51981e-07
7.53243e-07
7.54492e-07
7.55695e-07
7.56835e-07
7.57795e-07
7.58709e-07
7.59602e-07
7.60297e-07
7.60911e-07
7.61382e-07
7.61831e-07
7.62104e-07
7.624e-07
7.62622e-07
7.62761e-07
7.62869e-07
7.62899e-07
7.62882e-07
7.62748e-07
7.62568e-07
7.6224e-07
7.61856e-07
7.61398e-07
7.60876e-07
7.60301e-07
7.59631e-07
7.58834e-07
7.57957e-07
7.56926e-07
7.55782e-07
7.54585e-07
7.53321e-07
7.51932e-07
7.5047e-07
7.48945e-07
7.47287e-07
7.45541e-07
7.43713e-07
7.41781e-07
7.39688e-07
7.3751e-07
7.27575e-07
7.29937e-07
7.32167e-07
7.34258e-07
7.36233e-07
7.38192e-07
7.40032e-07
7.41721e-07
7.43295e-07
7.44666e-07
7.46023e-07
7.47328e-07
7.48564e-07
7.49609e-07
7.506e-07
7.51571e-07
7.52327e-07
7.53008e-07
7.53532e-07
7.54025e-07
7.54333e-07
7.54661e-07
7.54902e-07
7.55058e-07
7.55172e-07
7.55199e-07
7.5518e-07
7.55031e-07
7.54824e-07
7.5447e-07
7.54047e-07
7.53542e-07
7.52968e-07
7.52338e-07
7.51604e-07
7.50727e-07
7.49773e-07
7.48654e-07
7.47415e-07
7.46116e-07
7.44747e-07
7.43245e-07
7.41666e-07
7.40016e-07
7.38221e-07
7.36344e-07
7.34373e-07
7.32301e-07
7.30063e-07
7.27728e-07
7.16986e-07
7.19504e-07
7.21883e-07
7.24126e-07
7.26245e-07
7.28341e-07
7.30312e-07
7.32131e-07
7.33823e-07
7.35306e-07
7.36778e-07
7.38182e-07
7.39517e-07
7.40652e-07
7.41722e-07
7.42769e-07
7.43592e-07
7.44338e-07
7.44915e-07
7.45457e-07
7.45801e-07
7.46158e-07
7.46423e-07
7.46593e-07
7.46716e-07
7.46741e-07
7.46716e-07
7.46554e-07
7.46315e-07
7.45936e-07
7.45473e-07
7.44924e-07
7.44297e-07
7.43606e-07
7.42806e-07
7.41848e-07
7.40815e-07
7.39607e-07
7.38273e-07
7.36868e-07
7.35394e-07
7.33776e-07
7.32076e-07
7.30297e-07
7.28364e-07
7.26353e-07
7.24237e-07
7.2202e-07
7.19634e-07
7.17142e-07
7.05549e-07
7.08226e-07
7.10757e-07
7.13154e-07
7.15416e-07
7.17651e-07
7.19761e-07
7.21708e-07
7.23522e-07
7.25121e-07
7.26709e-07
7.28216e-07
7.29649e-07
7.30878e-07
7.32025e-07
7.33151e-07
7.34045e-07
7.34855e-07
7.35489e-07
7.36082e-07
7.36461e-07
7.36845e-07
7.37134e-07
7.37322e-07
7.37451e-07
7.37476e-07
7.37446e-07
7.37271e-07
7.37001e-07
7.36594e-07
7.36091e-07
7.35497e-07
7.34815e-07
7.34062e-07
7.33192e-07
7.3215e-07
7.31038e-07
7.29741e-07
7.28307e-07
7.26795e-07
7.25216e-07
7.2348e-07
7.21653e-07
7.19742e-07
7.17673e-07
7.15526e-07
7.13262e-07
7.10893e-07
7.08357e-07
7.05705e-07
6.93219e-07
6.96059e-07
6.98745e-07
7.01298e-07
7.03704e-07
7.06078e-07
7.08328e-07
7.10406e-07
7.12343e-07
7.14063e-07
7.15771e-07
7.17378e-07
7.18915e-07
7.2024e-07
7.21465e-07
7.22674e-07
7.23639e-07
7.2451e-07
7.25206e-07
7.25848e-07
7.26265e-07
7.26678e-07
7.26991e-07
7.27196e-07
7.27331e-07
7.27358e-07
7.27319e-07
7.27131e-07
7.26828e-07
7.26397e-07
7.25852e-07
7.25208e-07
7.24471e-07
7.23655e-07
7.22715e-07
7.2159e-07
7.20394e-07
7.19007e-07
7.1747e-07
7.15851e-07
7.14162e-07
7.12306e-07
7.10354e-07
7.0831e-07
7.06102e-07
7.03813e-07
7.01399e-07
6.9888e-07
6.96192e-07
6.93377e-07
6.79949e-07
6.82955e-07
6.85799e-07
6.88507e-07
6.91062e-07
6.93574e-07
6.95966e-07
6.98176e-07
7.00242e-07
7.02083e-07
7.03909e-07
7.05622e-07
7.07263e-07
7.08687e-07
7.09992e-07
7.11281e-07
7.12322e-07
7.13257e-07
7.14011e-07
7.14704e-07
7.15163e-07
7.15604e-07
7.15942e-07
7.16166e-07