/*--------------------------------*- C++ -*----------------------------------*\
  =========                 |
  \\      /  F ield         | OpenFOAM: The Open Source CFD Toolbox
   \\    /   O peration     | Website:  https://openfoam.org
    \\  /    A nd           | Version:  7
     \\/     M anipulation  |
\*---------------------------------------------------------------------------*/
FoamFile
{
    version     2.0;
    format      ascii;
    class       volVectorField;
    location    "40000";
    object      U;
}
// * * * * * * * * * * * * * * * * * * * * * * * * * * * * * * * * * * * * * //

dimensions      [0 1 -1 0 0 0 0];

internalField   nonuniform List<vector> 
1745
(
(-1.42386e-18 -1.0399e-18 -0.0163317)
(2.99802e-19 -7.54078e-19 -0.0163363)
(-8.52984e-20 4.49898e-19 -0.0163385)
(-1.40679e-18 1.9426e-19 -0.0163385)
(-5.74948e-19 6.7129e-19 -0.0163363)
(-3.69992e-19 3.73422e-19 -0.0163317)
(-1.45692e-18 -4.77253e-21 -0.016325)
(-3.18593e-19 1.06245e-18 -0.016316)
(6.14854e-20 3.56807e-20 -0.0160551)
(1.26819e-18 3.91158e-19 -0.0160848)
(1.5936e-18 -3.09596e-20 -0.0161124)
(1.10646e-18 8.91555e-19 -0.0161383)
(1.16761e-18 1.25765e-18 -0.0161623)
(6.3987e-19 8.90361e-19 -0.0161844)
(8.5302e-19 4.24381e-21 -0.0162044)
(8.35059e-19 -1.30984e-19 -0.0162224)
(-1.68439e-20 -2.12735e-19 -0.0162383)
(-6.39414e-20 -1.84022e-18 -0.016252)
(-1.12914e-18 -2.09322e-18 -0.0162635)
(-2.0064e-18 -1.30199e-18 -0.0162727)
(-1.3795e-18 7.16821e-20 -0.0162797)
(3.15614e-19 5.73991e-19 -0.0162843)
(-5.95686e-20 8.26205e-19 -0.0162866)
(-1.32412e-18 8.5783e-19 -0.0162866)
(-4.45045e-19 1.08756e-18 -0.0162843)
(-4.90286e-19 8.33956e-19 -0.0162797)
(-1.09455e-18 1.37665e-18 -0.0162727)
(5.95532e-20 2.07205e-18 -0.0162635)
(-1.10382e-18 2.1127e-18 -0.016252)
(1.7636e-19 2.97733e-19 -0.0159968)
(8.08974e-19 7.68107e-19 -0.0160271)
(1.73316e-18 7.45664e-20 -0.0160552)
(1.36768e-18 1.21417e-18 -0.0160816)
(1.17114e-18 1.02341e-18 -0.0161061)
(8.50393e-19 -4.55185e-19 -0.0161286)
(7.16352e-19 -4.78685e-19 -0.0161491)
(1.05066e-18 -7.95631e-19 -0.0161675)
(-1.8092e-19 5.33492e-20 -0.0161838)
(-3.50539e-19 -1.2938e-18 -0.0161978)
(-1.229e-18 -1.02298e-18 -0.0162096)
(-1.72744e-18 -1.08851e-18 -0.016219)
(-8.99099e-19 9.62393e-19 -0.0162261)
(4.64777e-19 6.11453e-19 -0.0162309)
(-4.81236e-21 1.1056e-18 -0.0162332)
(-1.37692e-18 1.5673e-18 -0.0162332)
(-6.57039e-19 7.72934e-19 -0.0162309)
(-3.66108e-19 3.3232e-19 -0.0162261)
(-6.84225e-19 1.42023e-18 -0.016219)
(3.78711e-20 1.02091e-18 -0.0162096)
(-1.19157e-18 2.17833e-18 -0.0161978)
(3.82673e-19 1.51879e-19 -0.0159374)
(5.12332e-19 8.25715e-19 -0.0159682)
(1.7292e-18 -9.52154e-22 -0.0159968)
(1.87128e-18 8.45597e-19 -0.0160236)
(8.58544e-19 7.07657e-19 -0.0160486)
(4.97368e-19 -3.63917e-19 -0.0160716)
(8.44993e-19 -6.17868e-19 -0.0160925)
(1.30325e-18 -1.96441e-19 -0.0161113)
(-1.19577e-19 1.5472e-19 -0.0161279)
(-6.31631e-19 -1.2241e-18 -0.0161422)
(-1.12457e-18 -1.2194e-18 -0.0161542)
(-1.20303e-18 -8.56002e-19 -0.0161638)
(-8.47721e-19 1.1154e-18 -0.0161711)
(3.01044e-19 2.44675e-19 -0.016176)
(3.79327e-19 7.65248e-19 -0.0161784)
(-1.62813e-18 1.22175e-18 -0.0161784)
(-1.14206e-18 1.17073e-18 -0.016176)
(-2.99521e-19 2.63046e-19 -0.0161711)
(-8.5785e-19 7.78122e-19 -0.0161638)
(8.52605e-21 -2.10406e-19 -0.0161542)
(-5.54325e-19 1.29743e-18 -0.0161422)
(4.90882e-19 6.30324e-20 -0.0158769)
(7.32193e-19 9.73018e-20 -0.0159081)
(1.35347e-18 2.68284e-19 -0.0159372)
(2.63212e-18 -8.87201e-20 -0.0159645)
(1.28928e-18 4.58509e-19 -0.0159899)
(4.65383e-21 2.86129e-19 -0.0160133)
(7.01768e-19 -6.28489e-19 -0.0160346)
(1.28105e-18 5.70514e-19 -0.0160537)
(-2.67978e-19 -3.37148e-19 -0.0160706)
(-7.7389e-19 -2.15985e-18 -0.0160852)
(-9.88307e-19 -1.70653e-18 -0.0160975)
(-7.30682e-19 -9.29717e-19 -0.0161073)
(-4.95423e-19 3.14997e-19 -0.0161147)
(1.87889e-19 6.99027e-19 -0.0161197)
(4.4747e-19 4.79438e-19 -0.0161222)
(-1.37146e-18 9.44581e-19 -0.0161222)
(-1.18786e-18 1.61546e-18 -0.0161197)
(-6.24383e-19 4.46317e-19 -0.0161147)
(-1.08493e-18 3.59983e-19 -0.0161073)
(2.70993e-19 6.72703e-19 -0.0160975)
(-1.08339e-19 1.02165e-18 -0.0160852)
(2.69522e-19 -3.31644e-20 -0.0158153)
(1.00088e-18 -3.39134e-19 -0.015847)
(9.67292e-19 5.01523e-19 -0.0158764)
(2.69094e-18 -4.25207e-19 -0.0159042)
(1.89921e-18 3.67228e-19 -0.01593)
(2.60321e-20 2.0394e-20 -0.0159537)
(4.15215e-19 3.66113e-19 -0.0159754)
(1.38941e-18 8.0725e-19 -0.0159949)
(-8.38811e-19 -7.77758e-19 -0.0160121)
(-9.57053e-19 -2.78966e-18 -0.016027)
(-5.75616e-19 -1.84346e-18 -0.0160395)
(-3.71933e-19 -9.29074e-19 -0.0160495)
(-1.20168e-19 4.92824e-20 -0.0160571)
(2.89985e-19 6.30784e-19 -0.0160621)
(4.74649e-19 3.43092e-20 -0.0160646)
(-1.2693e-18 7.68488e-19 -0.0160646)
(-1.49026e-18 1.352e-18 -0.0160621)
(-9.57289e-19 5.91785e-19 -0.0160571)
(-7.52808e-19 8.25311e-19 -0.0160495)
(7.21071e-19 1.71329e-18 -0.0160395)
(3.7988e-20 7.71915e-19 -0.016027)
(-4.9447e-20 -2.84551e-19 -0.0157527)
(9.11045e-19 -1.50798e-19 -0.0157847)
(9.56907e-19 2.63991e-19 -0.0158146)
(2.22696e-18 4.88808e-19 -0.0158427)
(2.2059e-18 4.83278e-19 -0.0158689)
(4.91912e-19 -1.93219e-19 -0.0158931)
(1.7489e-19 1.31998e-18 -0.0159151)
(1.21851e-18 8.91146e-20 -0.0159349)
(-1.29522e-18 -1.32231e-18 -0.0159524)
(-1.41247e-18 -2.12475e-18 -0.0159675)
(-3.14028e-19 -1.75038e-18 -0.0159802)
(3.65057e-20 -1.05058e-18 -0.0159904)
(1.44414e-19 2.84e-20 -0.0159981)
(2.29655e-19 -5.60149e-19 -0.0160033)
(5.13662e-19 -9.64695e-19 -0.0160058)
(-9.69296e-19 5.07584e-19 -0.0160058)
(-1.46867e-18 1.09552e-18 -0.0160033)
(-8.91169e-19 9.97547e-19 -0.0159981)
(-2.95523e-19 2.04255e-18 -0.0159904)
(5.91116e-19 2.14988e-18 -0.0159802)
(-2.08131e-19 3.39338e-19 -0.0159675)
(-2.50249e-19 -5.38694e-19 -0.0156891)
(4.85822e-19 5.07439e-19 -0.0157215)
(9.58343e-19 4.8218e-19 -0.0157518)
(1.80242e-18 1.37478e-18 -0.0157803)
(2.31695e-18 3.27491e-20 -0.0158068)
(9.19982e-19 -3.12702e-19 -0.0158313)
(3.14043e-19 7.80165e-19 -0.0158537)
(1.02289e-18 -6.97286e-19 -0.0158738)
(-1.27537e-18 -1.65408e-18 -0.0158915)
(-1.73368e-18 -1.20513e-18 -0.0159069)
(-5.54759e-19 -5.60843e-19 -0.0159198)
(2.61414e-19 -4.92755e-19 -0.0159302)
(2.93302e-20 3.54582e-19 -0.015938)
(-1.01554e-20 -1.67352e-18 -0.0159432)
(9.31121e-19 -1.45868e-18 -0.0159458)
(-5.57789e-19 3.29483e-19 -0.0159458)
(-1.47973e-18 7.55751e-19 -0.0159432)
(-5.85261e-19 7.97188e-19 -0.015938)
(3.2392e-20 2.57003e-18 -0.0159302)
(-5.04796e-20 1.29892e-18 -0.0159198)
(-2.9658e-19 4.12416e-19 -0.0159069)
(-1.84915e-19 1.60704e-18 -0.0158915)
(-6.91936e-19 3.51036e-20 -0.0156245)
(2.48329e-19 1.15586e-18 -0.0156573)
(4.59322e-19 1.37119e-18 -0.0156879)
(1.58278e-18 1.21833e-18 -0.0157168)
(2.50124e-18 -8.83689e-19 -0.0157437)
(1.14303e-18 -3.14951e-20 -0.0157685)
(6.20195e-19 -3.51148e-19 -0.0157912)
(8.11011e-19 -8.78694e-19 -0.0158115)
(-1.18649e-18 -1.54526e-18 -0.0158296)
(-1.51143e-18 -7.39226e-19 -0.0158451)
(-6.22923e-19 2.32707e-19 -0.0158582)
(2.09444e-19 -6.5073e-22 -0.0158688)
(-3.17916e-19 -2.18511e-19 -0.0158767)
(-4.49191e-19 -1.98527e-18 -0.015882)
(1.34638e-18 -1.92112e-18 -0.0158847)
(-2.10845e-19 -2.94964e-19 -0.0158847)
(-1.4705e-18 4.12842e-19 -0.015882)
(-2.2511e-19 3.39957e-19 -0.0158767)
(-1.60354e-19 1.4113e-18 -0.0158688)
(-6.00102e-19 4.92046e-19 -0.0158582)
(-3.51716e-20 5.79549e-19 -0.0158451)
(-5.03828e-19 1.142e-18 -0.0158296)
(-1.30256e-18 1.10836e-18 -0.015559)
(3.71028e-19 1.10702e-18 -0.0155921)
(3.92726e-21 1.93931e-18 -0.0156231)
(8.41282e-19 1.09765e-18 -0.0156523)
(2.77848e-18 -1.54409e-18 -0.0156795)
(1.38762e-18 5.30212e-20 -0.0157046)
(6.65938e-19 -8.75252e-19 -0.0157276)
(9.44991e-19 -1.05655e-18 -0.0157482)
(-9.72903e-19 -1.85896e-18 -0.0157665)
(-1.41579e-18 -3.94219e-19 -0.0157823)
(-6.15252e-19 2.40655e-19 -0.0157956)
(5.47416e-20 -5.71092e-19 -0.0158062)
(-6.28944e-19 -9.76176e-19 -0.0158143)
(-7.48878e-19 -1.53047e-18 -0.0158197)
(1.60771e-18 -1.98355e-18 -0.0158224)
(2.21653e-19 -9.68028e-19 -0.0158224)
(-1.38529e-18 4.10093e-19 -0.0158197)
(-2.59182e-19 4.07813e-20 -0.0158143)
(-2.23899e-19 5.56481e-19 -0.0158062)
(-4.64627e-19 8.01125e-19 -0.0157956)
(3.886e-20 6.98464e-19 -0.0157823)
(-7.88576e-19 7.47682e-19 -0.0157665)
(-4.31382e-19 2.00784e-19 -0.0157482)
(1.07361e-18 1.40023e-18 -0.0157276)
(1.02619e-18 1.03703e-18 -0.0157046)
(2.0928e-18 5.8945e-19 -0.0156795)
(2.15838e-18 -3.6612e-19 -0.0156523)
(4.181e-19 5.82826e-19 -0.0156231)
(4.14104e-19 8.85633e-19 -0.0155921)
(-7.42309e-20 -5.49272e-19 -0.015559)
(-1.44858e-18 1.68103e-18 -0.0154926)
(4.16852e-19 9.11135e-19 -0.015526)
(2.67632e-19 1.74025e-18 -0.0155573)
(-1.28355e-19 1.30217e-18 -0.0155868)
(2.21416e-18 -1.00093e-18 -0.0156144)
(1.70346e-18 3.13577e-19 -0.0156398)
(5.08321e-19 -8.31545e-19 -0.015663)
(7.42611e-19 -1.04827e-18 -0.0156839)
(-5.23442e-19 -2.41277e-18 -0.0157024)
(-9.72501e-19 -4.00172e-19 -0.0157184)
(-8.68892e-19 2.25825e-19 -0.0157318)
(-1.7355e-20 -1.8999e-18 -0.0157427)
(-6.38152e-19 -9.5431e-19 -0.0157508)
(-9.95705e-19 -8.2412e-19 -0.0157563)
(1.56693e-18 -1.53371e-18 -0.015759)
(6.03274e-19 -9.89263e-19 -0.015759)
(-1.19558e-18 8.81819e-19 -0.0157563)
(-1.46111e-19 4.91205e-19 -0.0157508)
(7.9404e-20 1.21829e-18 -0.0157427)
(-4.33365e-19 1.05319e-18 -0.0157318)
(-3.65693e-20 7.74609e-19 -0.0157184)
(-9.00015e-19 5.40979e-19 -0.0157024)
(-1.25455e-19 3.8116e-19 -0.0156839)
(1.04689e-18 8.53499e-19 -0.015663)
(6.23719e-19 1.88257e-19 -0.0156398)
(1.53015e-18 -4.25403e-19 -0.0156144)
(1.6986e-18 -8.79162e-19 -0.0155868)
(-1.3146e-20 -3.20032e-19 -0.0155573)
(4.09348e-20 6.57109e-19 -0.015526)
(-1.49346e-19 -1.18224e-18 -0.0154926)
(-1.49563e-18 2.02097e-18 -0.0154253)
(2.62961e-19 7.4018e-19 -0.015459)
(7.23107e-19 1.30312e-18 -0.0154906)
(-1.41647e-19 6.11009e-19 -0.0155204)
(1.49811e-18 5.48179e-20 -0.0155483)
(1.57461e-18 7.39719e-19 -0.015574)
(5.7947e-19 -1.38535e-18 -0.0155975)
(5.41091e-19 -1.09419e-18 -0.0156186)
(-5.51392e-19 -2.12289e-18 -0.0156373)
(-3.38913e-19 -1.28637e-18 -0.0156535)
(-1.21769e-18 -1.79981e-19 -0.0156671)
(-2.09049e-19 -2.16534e-18 -0.0156781)
(-3.12145e-19 -5.7494e-19 -0.0156863)
(-1.15163e-18 -2.63016e-19 -0.0156918)
(1.52726e-18 -6.42189e-19 -0.0156946)
(1.05454e-18 -5.42513e-19 -0.0156946)
(-9.46903e-19 7.93631e-19 -0.0156918)
(4.27319e-20 1.50191e-18 -0.0156863)
(8.82131e-20 1.40242e-18 -0.0156781)
(-7.20447e-19 3.80641e-19 -0.0156671)
(-1.93197e-19 6.76804e-19 -0.0156535)
(-1.09921e-18 1.66887e-19 -0.0156373)
(6.4927e-20 5.40461e-19 -0.0156186)
(9.91826e-19 8.37564e-19 -0.0155975)
(3.2403e-19 8.17768e-22 -0.015574)
(1.35664e-18 -9.79345e-19 -0.0155483)
(1.43549e-18 -1.4505e-18 -0.0155204)
(-2.00147e-19 -8.00367e-19 -0.0154906)
(-1.67513e-19 4.72938e-19 -0.015459)
(1.68415e-20 -1.39152e-18 -0.0154253)
(-1.35557e-18 1.88496e-18 -0.0153571)
(-3.93625e-20 5.18343e-19 -0.0153912)
(8.5582e-19 9.7632e-19 -0.0154231)
(-6.12867e-20 2.04641e-19 -0.0154531)
(1.50741e-18 2.21938e-19 -0.0154812)
(1.27571e-18 8.77554e-19 -0.0155072)
(4.23734e-19 -1.73664e-18 -0.0155309)
(7.82778e-19 -1.55345e-18 -0.0155523)
(-7.46678e-19 -1.73751e-18 -0.0155712)
(6.00031e-20 -2.09372e-18 -0.0155876)
(-1.10865e-18 -6.72393e-19 -0.0156014)
(-4.22662e-19 -8.36535e-19 -0.0156124)
(-7.57544e-20 -1.4783e-19 -0.0156208)
(-1.18308e-18 2.84213e-20 -0.0156264)
(1.43015e-18 8.53032e-19 -0.0156292)
(1.10929e-18 -1.64206e-19 -0.0156292)
(-6.22755e-19 2.44367e-19 -0.0156264)
(2.2433e-19 1.762e-18 -0.0156208)
(-4.69773e-19 3.46006e-19 -0.0156124)
(-9.01951e-19 7.22303e-20 -0.0156014)
(-2.01993e-19 5.96966e-19 -0.0155876)
(-1.01973e-18 2.4925e-19 -0.0155712)
(4.65064e-19 6.43314e-19 -0.0155523)
(1.0911e-18 1.21986e-18 -0.0155309)
(2.64496e-19 5.00992e-19 -0.0155072)
(1.67453e-18 1.8096e-19 -0.0154812)
(1.18354e-18 -1.6251e-18 -0.0154531)
(-3.80128e-20 -8.70945e-19 -0.0154231)
(-1.93253e-19 5.45875e-19 -0.0153912)
(2.59579e-19 -1.37758e-18 -0.0153571)
(-1.01943e-18 1.3077e-18 -0.0152881)
(-4.62719e-19 6.62665e-19 -0.0153224)
(9.52081e-19 8.91967e-19 -0.0153546)
(-3.5186e-19 4.43249e-19 -0.015385)
(1.40055e-18 5.05742e-19 -0.0154133)
(1.33583e-18 5.14969e-19 -0.0154395)
(-1.7248e-19 -1.17576e-18 -0.0154635)
(9.79149e-19 -2.07228e-18 -0.0154851)
(-7.35618e-19 -2.06966e-18 -0.0155042)
(9.48297e-20 -1.7957e-18 -0.0155208)
(-7.107e-19 -9.41935e-19 -0.0155347)
(-5.76322e-19 8.03649e-19 -0.0155458)
(-5.95848e-20 -3.50413e-19 -0.0155543)
(-9.35606e-19 -1.53327e-19 -0.0155599)
(1.43523e-18 7.57062e-19 -0.0155628)
(8.57306e-19 -4.1288e-19 -0.0155628)
(-4.24378e-19 -1.7635e-19 -0.0155599)
(2.98911e-20 9.59891e-19 -0.0155543)
(-8.09005e-19 -3.77876e-19 -0.0155458)
(-6.27142e-19 4.79545e-19 -0.0155347)
(-2.76598e-19 1.92683e-19 -0.0155208)
(-8.77609e-19 7.37851e-19 -0.0155042)
(5.43163e-19 1.4379e-19 -0.0154851)
(8.42504e-19 5.2917e-19 -0.0154635)
(2.85093e-19 4.38497e-19 -0.0154395)
(1.7774e-18 8.26907e-19 -0.0154133)
(8.4967e-19 -1.52723e-18 -0.015385)
(4.12362e-19 -4.48999e-19 -0.0153546)
(-3.41622e-19 4.06715e-19 -0.0153224)
(8.81401e-19 -3.63758e-19 -0.0152881)
(-1.06814e-18 9.26171e-19 -0.0152183)
(-1.01622e-18 1.14803e-18 -0.0152529)
(1.02242e-18 6.70418e-19 -0.0152853)
(-3.11126e-19 4.38814e-19 -0.0153159)
(9.04906e-19 1.2474e-18 -0.0153445)
(1.51633e-18 -7.79575e-20 -0.015371)
(-5.55409e-19 -1.07939e-18 -0.0153952)
(8.2878e-19 -2.42729e-18 -0.015417)
(-5.53951e-19 -2.04023e-18 -0.0154363)
(1.43015e-19 -1.15766e-18 -0.015453)
(-1.96313e-19 -1.22364e-18 -0.015467)
(-6.20244e-19 1.27647e-18 -0.0154783)
(-3.26109e-19 -9.63735e-19 -0.0154868)
(-9.00642e-19 -3.12321e-19 -0.0154925)
(1.386e-18 -6.63421e-19 -0.0154954)
(7.90688e-19 -8.3828e-19 -0.0154954)
(-3.0916e-19 -1.01651e-18 -0.0154925)
(-1.40929e-20 2.33015e-19 -0.0154868)
(-7.23396e-19 4.31424e-20 -0.0154783)
(-5.04363e-19 1.10168e-18 -0.015467)
(-4.7033e-19 -7.30997e-19 -0.015453)
(-7.39115e-19 1.11732e-18 -0.0154363)
(4.21192e-19 -4.71048e-20 -0.015417)
(6.78093e-19 -1.48948e-19 -0.0153952)
(3.76654e-19 1.75759e-19 -0.015371)
(1.32965e-18 3.59785e-19 -0.0153445)
(9.57191e-19 -1.00637e-18 -0.0153159)
(9.23972e-19 1.54305e-19 -0.0152853)
(-5.73908e-19 -1.57287e-19 -0.0152529)
(1.47446e-18 9.08598e-19 -0.0152183)
(-1.14722e-18 6.01164e-19 -0.0151477)
(-1.38218e-18 1.2263e-18 -0.0151825)
(6.97887e-19 8.61986e-19 -0.0152151)
(-2.97584e-20 3.40763e-19 -0.015246)
(5.74632e-19 1.59409e-18 -0.0152748)
(1.39754e-18 -4.88721e-19 -0.0153015)
(-6.9706e-19 -1.45136e-18 -0.0153259)
(8.04506e-19 -2.55282e-18 -0.0153479)
(-4.9809e-19 -1.47539e-18 -0.0153674)
(1.62347e-19 -1.26709e-18 -0.0153843)
(1.44559e-19 -1.44509e-18 -0.0153984)
(-4.99002e-19 5.74675e-19 -0.0154098)
(-5.1573e-19 -1.23448e-18 -0.0154184)
(-9.43609e-19 -1.62192e-19 -0.0154242)
(1.31699e-18 -1.12194e-18 -0.0154271)
(7.47356e-19 -3.1924e-19 -0.0154271)
(-2.00423e-19 -1.35269e-18 -0.0154242)
(3.13714e-19 5.56791e-19 -0.0154184)
(-4.72946e-19 3.90445e-19 -0.0154098)
(-6.62728e-19 1.57464e-18 -0.0153984)
(-5.81819e-19 -9.61919e-19 -0.0153843)
(-5.72581e-19 8.99138e-19 -0.0153674)
(4.49156e-19 4.32601e-19 -0.0153479)
(7.29931e-19 -3.59318e-20 -0.0153259)
(6.00862e-19 5.54603e-19 -0.0153015)
(1.05343e-18 -2.96756e-19 -0.0152748)
(1.40436e-18 -3.59962e-19 -0.015246)
(1.01454e-18 5.84828e-19 -0.0152151)
(-3.48771e-19 -4.33822e-20 -0.0151825)
(1.40851e-18 1.29497e-18 -0.0151477)
(-1.22346e-18 1.42543e-19 -0.0150762)
(-1.47837e-18 1.2677e-18 -0.0151112)
(3.32577e-19 1.08859e-18 -0.0151441)
(1.18224e-19 2.38293e-19 -0.0151752)
(4.97149e-19 1.42026e-18 -0.0152043)
(1.40591e-18 -1.21918e-18 -0.0152312)
(-1.03082e-18 -1.3172e-18 -0.0152558)
(7.92893e-19 -2.51191e-18 -0.015278)
(-3.66712e-19 -1.26108e-18 -0.0152976)
(1.66766e-19 -1.55878e-18 -0.0153147)
(3.59375e-19 -1.21273e-18 -0.015329)
(-3.65043e-19 -9.49345e-20 -0.0153405)
(-6.38568e-19 -6.75659e-19 -0.0153492)
(-9.90421e-19 5.76849e-20 -0.015355)
(1.34006e-18 -4.42963e-19 -0.0153579)
(7.40485e-19 3.9134e-19 -0.0153579)
(-5.78393e-20 -9.50458e-19 -0.015355)
(6.26985e-19 1.07388e-18 -0.0153492)
(-4.75145e-19 3.6021e-20 -0.0153405)
(-8.77408e-19 1.51518e-18 -0.015329)
(-5.32394e-19 -5.37557e-20 -0.0153147)
(-5.13548e-19 2.27474e-19 -0.0152976)
(5.71639e-19 7.46959e-19 -0.015278)
(9.09943e-19 2.60918e-19 -0.0152558)
(8.11225e-19 1.22202e-18 -0.0152312)
(9.20261e-19 -3.76646e-19 -0.0152043)
(1.57654e-18 -4.06437e-19 -0.0151752)
(9.6602e-19 5.5659e-19 -0.0151441)
(-7.97354e-21 3.46527e-19 -0.0151112)
(1.06953e-18 1.4302e-18 -0.0150762)
(-1.19832e-18 -2.59627e-19 -0.015004)
(-1.70498e-18 1.49637e-18 -0.0150392)
(1.37272e-19 9.40833e-19 -0.0150723)
(1.48288e-19 3.17893e-19 -0.0151037)
(5.5662e-19 6.64174e-19 -0.0151329)
(1.57563e-18 -2.01333e-18 -0.0151601)
(-1.20302e-18 -1.0468e-18 -0.0151849)
(5.72587e-19 -2.10645e-18 -0.0152072)
(-2.21742e-19 -1.3365e-18 -0.015227)
(4.93445e-20 -1.09467e-18 -0.0152442)
(4.55041e-19 -8.20793e-19 -0.0152586)
(-1.81809e-19 -4.81898e-19 -0.0152702)
(-6.37668e-19 -2.41963e-19 -0.015279)
(-1.00593e-18 3.6471e-19 -0.0152848)
(1.39148e-18 6.50231e-19 -0.0152878)
(6.08433e-19 2.01061e-19 -0.0152878)
(4.82e-20 -5.44187e-19 -0.0152848)
(7.15285e-19 1.24136e-18 -0.015279)
(-5.79936e-19 -6.69606e-19 -0.0152702)
(-8.63323e-19 1.03976e-18 -0.0152586)
(-6.07824e-19 5.5296e-19 -0.0152442)
(-4.61625e-19 1.9922e-19 -0.015227)
(7.13055e-19 6.9393e-19 -0.0152072)
(1.11067e-18 4.99324e-19 -0.0151849)
(7.51147e-19 1.31298e-18 -0.0151601)
(9.21236e-19 -5.31549e-20 -0.0151329)
(1.60367e-18 -5.96653e-19 -0.0151036)
(6.86359e-19 9.60825e-20 -0.0150723)
(-5.62948e-20 6.89263e-20 -0.0150392)
(4.81901e-19 1.22358e-18 -0.015004)
(-9.33325e-19 -5.13353e-19 -0.0149309)
(-1.68059e-18 1.51799e-18 -0.0149664)
(-3.59406e-19 1.25337e-18 -0.0149997)
(-3.80871e-20 4.86104e-19 -0.0150312)
(3.43618e-19 2.51098e-19 -0.0150607)
(1.5781e-18 -2.02402e-18 -0.0150881)
(-1.17734e-18 -8.74232e-19 -0.015113)
(2.51456e-19 -1.50907e-18 -0.0151356)
(-9.94587e-20 -1.07426e-18 -0.0151555)
(-9.00977e-21 -5.59695e-19 -0.0151728)
(3.69018e-19 -4.0106e-19 -0.0151874)
(-1.08557e-19 -6.05592e-19 -0.0151991)
(-4.89317e-19 -3.21289e-19 -0.0152079)
(-8.9227e-19 9.76861e-19 -0.0152138)
(1.28866e-18 1.16412e-18 -0.0152168)
(3.92346e-19 -9.21705e-20 -0.0152168)
(2.83358e-19 -1.825e-19 -0.0152138)
(6.75636e-19 1.45602e-18 -0.0152079)
(-6.75643e-19 -4.81951e-19 -0.0151991)
(-8.44593e-19 3.1497e-19 -0.0151874)
(-6.40356e-19 6.22381e-19 -0.0151728)
(-2.33139e-19 7.43499e-19 -0.0151555)
(8.04885e-19 6.5014e-19 -0.0151356)
(1.20844e-18 5.34337e-19 -0.015113)
(4.05925e-19 7.15098e-19 -0.0150881)
(9.14185e-19 2.4951e-19 -0.0150607)
(1.3536e-18 -9.57676e-19 -0.0150312)
(5.44506e-19 -2.83769e-20 -0.0149997)
(2.25198e-20 2.90788e-20 -0.0149664)
(-1.72538e-19 4.91075e-19 -0.0149309)
(-8.2558e-19 -3.56337e-19 -0.0148571)
(-1.311e-18 1.28891e-18 -0.0148927)
(-9.20675e-19 1.84313e-18 -0.0149263)
(-3.19751e-19 7.27228e-19 -0.014958)
(-9.31283e-20 3.5274e-19 -0.0149877)
(1.37404e-18 -1.67586e-18 -0.0150152)
(-1.03139e-18 -9.03847e-19 -0.0150404)
(-4.35235e-20 -8.13835e-19 -0.0150631)
(4.77973e-21 -1.1215e-18 -0.0150832)
(7.57193e-20 -6.82315e-19 -0.0151006)
(2.96402e-19 -1.51551e-19 -0.0151153)
(-1.7103e-19 -3.40721e-19 -0.015127)
(-2.30431e-19 -4.50928e-19 -0.0151359)
(-7.46909e-19 1.38392e-18 -0.0151419)
(1.12987e-18 8.94923e-19 -0.0151449)
(2.45196e-19 3.37428e-19 -0.0151449)
(5.00907e-19 -1.42835e-19 -0.0151419)
(6.30113e-19 9.56147e-19 -0.0151359)
(-8.32472e-19 7.93551e-20 -0.015127)
(-8.01401e-19 1.89478e-19 -0.0151153)
(-4.21647e-19 9.81704e-19 -0.0151006)
(-5.28059e-20 1.25407e-18 -0.0150832)
(8.02145e-19 6.23067e-19 -0.0150631)
(1.26756e-18 8.97706e-19 -0.0150404)
(2.20607e-19 3.88008e-19 -0.0150152)
(8.67491e-19 3.32489e-19 -0.0149877)
(1.23289e-18 -1.18615e-18 -0.014958)
(8.65989e-19 3.00008e-19 -0.0149263)
(1.504e-19 3.71014e-19 -0.0148927)
(-4.56796e-19 7.52982e-20 -0.0148571)
(-1.36011e-18 6.42674e-19 -0.0147825)
(-8.1142e-19 9.54648e-19 -0.0148183)
(-1.42042e-18 2.54502e-18 -0.0148521)
(-3.78125e-19 4.32293e-19 -0.014884)
(-3.17956e-19 1.25947e-21 -0.0149139)
(1.21622e-18 -1.57073e-18 -0.0149416)
(-7.4516e-19 -1.14039e-18 -0.0149669)
(-2.2772e-19 -5.78622e-19 -0.0149898)
(4.62468e-21 -1.27219e-18 -0.01501)
(1.33074e-19 -2.90262e-19 -0.0150275)
(3.20224e-19 2.30567e-19 -0.0150423)
(-2.80658e-19 2.28697e-21 -0.0150542)
(-5.91556e-20 -4.43691e-19 -0.0150631)
(-6.3136e-19 1.45674e-18 -0.0150691)
(1.06223e-18 4.87886e-19 -0.0150721)
(1.37722e-19 4.55022e-19 -0.0150721)
(4.74104e-19 -5.07135e-20 -0.0150691)
(6.39122e-19 5.31836e-19 -0.0150631)
(-8.17241e-19 3.31189e-19 -0.0150542)
(-5.69446e-19 7.40788e-19 -0.0150423)
(-2.28949e-19 1.27934e-18 -0.0150275)
(-1.51686e-19 1.11227e-18 -0.01501)
(8.31639e-19 5.7111e-19 -0.0149898)
(1.36439e-18 1.18356e-18 -0.0149669)
(2.77611e-19 8.69436e-19 -0.0149416)
(1.13661e-18 1.11491e-18 -0.0149139)
(1.55843e-18 -7.32504e-19 -0.014884)
(9.90507e-19 3.2126e-19 -0.0148521)
(-6.75195e-20 3.22037e-19 -0.0148183)
(-5.52259e-19 -2.21169e-21 -0.0147825)
(-2.14421e-18 1.69728e-18 -0.0147071)
(-4.97815e-19 7.05325e-19 -0.0147431)
(-1.80373e-18 3.03451e-18 -0.0147771)
(-3.50104e-19 -3.88835e-19 -0.0148092)
(-5.79187e-19 -4.84187e-20 -0.0148392)
(9.45888e-19 -1.15283e-18 -0.0148671)
(-7.11253e-19 -7.8898e-19 -0.0148926)
(-3.19069e-19 -3.37753e-19 -0.0149156)
(-9.47098e-20 -5.8934e-19 -0.014936)
(1.48365e-19 4.03628e-19 -0.0149536)
(1.82458e-19 8.20137e-19 -0.0149685)
(-4.05119e-19 5.36681e-20 -0.0149804)
(8.33096e-20 -2.51102e-19 -0.0149895)
(-5.67471e-19 1.49223e-18 -0.0149955)
(9.29133e-19 3.35792e-19 -0.0149985)
(1.13255e-19 1.67825e-19 -0.0149985)
(5.83187e-19 4.96936e-19 -0.0149955)
(7.02919e-19 7.57736e-19 -0.0149895)
(-7.44152e-19 6.95917e-19 -0.0149804)
(-3.67186e-19 1.28676e-18 -0.0149685)
(-3.0539e-19 1.2691e-18 -0.0149536)
(-4.6085e-19 3.33543e-19 -0.014936)
(9.45438e-19 5.3905e-19 -0.0149156)
(1.22725e-18 7.03083e-19 -0.0148926)
(2.70995e-19 6.3829e-19 -0.0148671)
(1.37285e-18 1.70557e-18 -0.0148392)
(1.71503e-18 -1.083e-19 -0.0148092)
(6.21818e-19 -1.30889e-19 -0.0147771)
(-4.31115e-19 2.9224e-20 -0.0147431)
(-5.25909e-19 3.24708e-20 -0.0147071)
(-2.13854e-18 1.66071e-18 -0.0146309)
(-5.84918e-19 9.19535e-19 -0.0146671)
(-2.0608e-18 3.22572e-18 -0.0147012)
(-5.18517e-19 -7.52278e-19 -0.0147335)
(-7.2723e-19 8.63282e-20 -0.0147638)
(5.0376e-19 -2.65819e-19 -0.0147918)
(-8.97386e-19 2.69009e-20 -0.0148175)
(-5.16974e-19 2.14769e-19 -0.0148406)
(-2.35759e-19 9.84875e-20 -0.0148611)
(2.19016e-19 6.64417e-19 -0.0148789)
(7.45241e-20 1.11157e-18 -0.0148938)
(-5.64997e-19 4.06571e-20 -0.0149059)
(2.15872e-19 -1.18542e-20 -0.0149149)
(-5.3182e-19 1.49022e-18 -0.014921)
(7.79276e-19 5.12512e-19 -0.0149241)
(1.93017e-19 3.83323e-19 -0.0149241)
(7.12473e-19 8.93016e-19 -0.014921)
(7.16663e-19 8.99745e-19 -0.0149149)
(-6.5915e-19 9.1602e-19 -0.0149059)
(-3.44195e-19 1.2958e-18 -0.0148938)
(-5.45969e-19 1.29207e-18 -0.0148789)
(-6.07856e-19 2.54632e-20 -0.0148611)
(1.22028e-18 9.29667e-19 -0.0148406)
(1.10396e-18 5.48375e-19 -0.0148175)
(2.97538e-19 3.81393e-19 -0.0147918)
(1.45415e-18 1.67994e-18 -0.0147638)
(1.5344e-18 3.5664e-20 -0.0147335)
(1.56882e-19 -5.77839e-19 -0.0147012)
(-7.18556e-19 -3.7906e-19 -0.0146671)
(-3.52488e-19 2.17573e-19 -0.0146309)
(-1.78016e-18 1.18293e-18 -0.0145539)
(-9.33717e-19 1.73165e-18 -0.0145903)
(-1.97576e-18 2.79974e-18 -0.0146246)
(-1.1464e-18 -4.57767e-19 -0.0146571)
(-6.99387e-19 9.13712e-20 -0.0146875)
(2.78217e-19 4.26679e-19 -0.0147157)
(-1.0631e-18 6.38518e-19 -0.0147415)
(-7.07566e-19 6.48977e-19 -0.0147648)
(-2.77516e-19 2.76994e-19 -0.0147854)
(2.7764e-19 7.98418e-19 -0.0148033)
(1.53394e-20 1.08254e-18 -0.0148183)
(-6.95601e-19 8.24074e-21 -0.0148304)
(3.52412e-19 1.74905e-19 -0.0148396)
(-4.73148e-19 1.38034e-18 -0.0148457)
(6.99246e-19 8.20043e-19 -0.0148488)
(2.48722e-19 7.62215e-19 -0.0148488)
(7.70454e-19 9.33978e-19 -0.0148457)
(6.76358e-19 6.6431e-19 -0.0148396)
(-6.85648e-19 9.37035e-19 -0.0148304)
(-3.47439e-19 1.16099e-18 -0.0148183)
(-6.64599e-19 1.46042e-18 -0.0148033)
(-3.30572e-19 8.2967e-19 -0.0147854)
(1.59286e-18 1.54143e-18 -0.0147648)
(1.16457e-18 9.84211e-19 -0.0147415)
(5.96086e-19 7.00919e-19 -0.0147157)
(1.59339e-18 1.94994e-18 -0.0146875)
(1.24566e-18 1.52742e-19 -0.0146571)
(1.95361e-19 -1.68141e-19 -0.0146246)
(-8.20151e-19 -6.54122e-19 -0.0145903)
(-3.32083e-19 1.28574e-19 -0.0145539)
(-1.2937e-18 7.37471e-19 -0.0144761)
(-8.48535e-19 1.78112e-18 -0.0145126)
(-1.54616e-18 1.81285e-18 -0.0145471)
(-1.8481e-18 2.9276e-19 -0.0145798)
(-8.58479e-19 3.16844e-19 -0.0146104)
(2.38546e-19 7.9344e-19 -0.0146387)
(-1.2161e-18 1.22424e-18 -0.0146647)
(-9.759e-19 1.08936e-18 -0.0146881)
(-3.36603e-19 3.8284e-19 -0.0147089)
(2.90921e-19 1.11318e-18 -0.0147268)
(-1.00834e-20 8.6058e-19 -0.014742)
(-8.13769e-19 2.52868e-20 -0.0147542)
(4.39143e-19 6.04051e-19 -0.0147633)
(-3.84013e-19 1.00862e-18 -0.0147695)
(6.80668e-19 7.45327e-19 -0.0147726)
(2.70969e-19 8.39725e-19 -0.0147726)
(7.32622e-19 1.00709e-18 -0.0147695)
(5.80148e-19 -8.12144e-20 -0.0147633)
(-6.96081e-19 5.0456e-19 -0.0147542)
(-3.00564e-19 1.22528e-18 -0.014742)
(-5.47721e-19 1.96578e-18 -0.0147268)
(-8.3574e-20 1.37569e-18 -0.0147089)
(1.7124e-18 1.76957e-18 -0.0146881)
(1.0808e-18 1.10182e-18 -0.0146647)
(1.15352e-18 1.66493e-18 -0.0146387)
(1.26902e-18 1.38375e-18 -0.0146104)
(1.07442e-18 2.85373e-19 -0.0145798)
(2.45137e-19 2.77831e-19 -0.0145471)
(-2.72671e-19 2.56744e-19 -0.0145126)
(-2.44897e-19 1.21763e-19 -0.0144761)
(-1.05824e-18 3.23191e-19 -0.0143975)
(-4.92969e-19 1.44549e-18 -0.0144342)
(-1.18674e-18 1.35948e-18 -0.0144689)
(-2.20749e-18 7.07464e-19 -0.0145017)
(-1.16463e-18 6.60748e-19 -0.0145324)
(3.4315e-19 9.46866e-19 -0.014561)
(-1.13432e-18 1.3271e-18 -0.0145871)
(-1.24777e-18 1.42076e-18 -0.0146106)
(-4.619e-19 6.52457e-19 -0.0146315)
(3.02027e-19 1.16796e-18 -0.0146496)
(-1.07623e-20 3.04262e-19 -0.0146648)
(-8.33903e-19 2.00465e-19 -0.014677)
(4.56673e-19 1.03194e-18 -0.0146863)
(-4.01455e-19 3.89692e-19 -0.0146924)
(7.25016e-19 4.20543e-19 -0.0146956)
(3.45666e-19 4.60155e-19 -0.0146956)
(5.97531e-19 9.9201e-19 -0.0146924)
(4.05948e-19 -5.15522e-19 -0.0146863)
(-6.63261e-19 -2.25375e-19 -0.014677)
(-1.25451e-19 1.01169e-18 -0.0146648)
(-5.13994e-19 2.2771e-18 -0.0146496)
(-1.73473e-19 1.15497e-18 -0.0146315)
(1.73642e-18 1.72445e-18 -0.0146106)
(1.01693e-18 7.27025e-19 -0.0145871)
(1.67687e-18 2.8402e-18 -0.014561)
(5.86587e-19 5.55371e-19 -0.0145324)
(1.1122e-18 5.20045e-19 -0.0145017)
(8.45101e-21 -1.49472e-19 -0.0144689)
(1.80678e-19 8.86157e-19 -0.0144342)
(-1.26251e-19 5.73024e-19 -0.0143975)
(-9.89395e-19 3.00392e-19 -0.0143181)
(-4.68647e-19 1.53308e-18 -0.0143549)
(-8.43689e-19 9.24628e-19 -0.0143898)
(-1.97446e-18 2.90979e-19 -0.0144228)
(-1.7572e-18 1.51399e-18 -0.0144537)
(2.70716e-19 1.19586e-18 -0.0144823)
(-8.08663e-19 9.28892e-19 -0.0145086)
(-1.31596e-18 1.41824e-18 -0.0145322)
(-6.73989e-19 9.82737e-19 -0.0145532)
(3.23705e-19 7.52747e-19 -0.0145714)
(9.66141e-20 -4.03532e-19 -0.0145867)
(-7.39998e-19 2.55536e-19 -0.014599)
(4.46765e-19 8.10205e-19 -0.0146083)
(-4.72753e-19 -1.39974e-19 -0.0146145)
(7.70182e-19 1.66004e-19 -0.0146177)
(4.27849e-19 -2.74274e-21 -0.0146177)
(5.16747e-19 7.62236e-19 -0.0146145)
(2.55975e-19 -3.81087e-19 -0.0146083)
(-5.61e-19 -3.33057e-19 -0.014599)
(1.35802e-19 1.06921e-18 -0.0145867)
(-6.23992e-19 2.00455e-18 -0.0145714)
(-2.26355e-19 9.80178e-19 -0.0145532)
(1.80143e-18 1.85499e-18 -0.0145322)
(1.23892e-18 8.32189e-19 -0.0145086)
(1.57989e-18 2.74237e-18 -0.0144823)
(9.08819e-20 1.39452e-19 -0.0144537)
(1.453e-18 1.2842e-18 -0.0144228)
(-1.97153e-19 -3.25298e-19 -0.0143898)
(7.83796e-20 5.4882e-19 -0.0143549)
(-2.1125e-19 6.54003e-19 -0.0143181)
(-8.08014e-19 2.20458e-19 -0.0142378)
(-3.8331e-19 1.41629e-18 -0.0142748)
(-6.76811e-19 5.79042e-19 -0.0143098)
(-1.35351e-18 -3.37624e-19 -0.014343)
(-2.00212e-18 2.05303e-18 -0.014374)
(-2.06874e-21 1.4377e-18 -0.0144029)
(-8.27937e-19 1.16478e-18 -0.0144292)
(-1.3582e-18 1.60857e-18 -0.014453)
(-9.80848e-19 1.52473e-18 -0.0144741)
(1.65962e-19 5.75968e-19 -0.0144924)
(1.4321e-19 -6.96768e-19 -0.0145078)
(-7.33033e-19 9.61177e-19 -0.0145202)
(4.07292e-19 6.97258e-19 -0.0145295)
(-5.47604e-19 -1.70198e-19 -0.0145358)
(8.27152e-19 -8.59866e-21 -0.0145389)
(5.14698e-19 -2.06922e-19 -0.0145389)
(4.86917e-19 5.17452e-19 -0.0145358)
(2.08546e-19 4.70737e-20 -0.0145295)
(-3.95958e-19 -2.13893e-19 -0.0145202)
(3.77351e-19 1.4259e-18 -0.0145078)
(-8.39853e-19 1.63454e-18 -0.0144924)
(-2.11292e-19 8.09182e-19 -0.0144741)
(1.923e-18 1.84613e-18 -0.014453)
(1.35323e-18 1.02549e-18 -0.0144292)
(1.11126e-18 2.15276e-18 -0.0144029)
(6.00741e-21 4.19649e-20 -0.014374)
(1.76684e-18 1.84982e-18 -0.014343)
(-2.60844e-19 -4.82576e-20 -0.0143098)
(2.34501e-19 6.46624e-19 -0.0142748)
(-2.75787e-19 6.91316e-19 -0.0142378)
(-7.52354e-19 2.01971e-19 -0.0141567)
(-2.07804e-19 1.22813e-18 -0.0141939)
(-8.19255e-19 6.35406e-19 -0.014229)
(-1.08926e-18 -4.18945e-19 -0.0142623)
(-1.92151e-18 2.13283e-18 -0.0142936)
(-6.74141e-20 1.50338e-18 -0.0143225)
(-8.34233e-19 1.48389e-18 -0.014349)
(-1.38526e-18 1.70197e-18 -0.0143729)
(-1.2806e-18 1.90745e-18 -0.0143941)
(5.94209e-20 -4.16182e-20 -0.0144125)
(2.94324e-19 -7.83742e-19 -0.014428)
(-7.25941e-19 1.85087e-18 -0.0144404)
(2.42998e-19 5.9033e-19 -0.0144498)
(-6.9331e-19 8.2876e-20 -0.0144561)
(8.34375e-19 -5.84416e-20 -0.0144592)
(5.93144e-19 -3.22712e-19 -0.0144592)
(5.31088e-19 2.83835e-19 -0.0144561)
(1.6367e-19 3.99564e-19 -0.0144498)
(-3.31333e-19 -5.39266e-19 -0.0144404)
(3.95653e-19 9.18709e-19 -0.014428)
(-1.0599e-18 1.45014e-18 -0.0144125)
(-1.57904e-19 6.88641e-19 -0.0143941)
(2.00878e-18 1.77904e-18 -0.0143729)
(1.17317e-18 5.66695e-19 -0.014349)
(7.89447e-19 1.73917e-18 -0.0143225)
(-4.15364e-20 -1.1925e-19 -0.0142936)
(1.63246e-18 1.65515e-18 -0.0142623)
(-3.28067e-19 1.72156e-19 -0.014229)
(5.95601e-19 1.02446e-18 -0.0141939)
(-1.47082e-19 1.07045e-18 -0.0141567)
(-8.75868e-19 2.47909e-19 -0.0140747)
(3.78342e-20 9.56235e-19 -0.0141121)
(-9.16645e-19 7.17338e-19 -0.0141474)
(-9.13205e-19 -3.34343e-19 -0.0141808)