/*--------------------------------*- C++ -*----------------------------------*\
  =========                 |
  \\      /  F ield         | OpenFOAM: The Open Source CFD Toolbox
   \\    /   O peration     | Website:  https://openfoam.org
    \\  /    A nd           | Version:  7
     \\/     M anipulation  |
\*---------------------------------------------------------------------------*/
FoamFile
{
    version     2.0;
    format      ascii;
    class       volScalarField;
    location    "124000";
    object      omega;
}
// * * * * * * * * * * * * * * * * * * * * * * * * * * * * * * * * * * * * * //

dimensions      [0 0 -1 0 0 0 0];

internalField   nonuniform List<scalar> 
4850
(
0.0293313
0.0290635
0.0298508
0.0295778
0.0293156
0.0303813
0.0301031
0.0298358
0.0295788
0.0293324
0.0309226
0.0306392
0.0303668
0.0301049
0.0298536
0.0296133
0.0314746
0.0311861
0.0309087
0.0306418
0.0303858
0.0301408
0.029907
0.0320376
0.0317439
0.0314615
0.0311897
0.0309289
0.0306793
0.030441
0.0302144
0.0299995
0.0326114
0.0323126
0.0320251
0.0317485
0.0314829
0.0312287
0.030986
0.0307551
0.0305361
0.0303293
0.0331962
0.0328923
0.0325998
0.0323182
0.0320479
0.0317891
0.031542
0.0313068
0.0310838
0.0308731
0.0306748
0.0304892
0.0303163
0.0301562
0.0337919
0.0334829
0.0331854
0.0328989
0.0326239
0.0323605
0.032109
0.0318696
0.0316425
0.0314279
0.031226
0.0310369
0.0308608
0.0306977
0.0305479
0.0304114
0.0302883
0.0301787
0.0343988
0.0340846
0.033782
0.0334907
0.033211
0.032943
0.032687
0.0324434
0.0322123
0.0319938
0.0317882
0.0315957
0.0314164
0.0312503
0.0310977
0.0309587
0.0308333
0.0307217
0.0306238
0.0305398
0.0350168
0.0346975
0.0343899
0.0340937
0.0338091
0.0335366
0.0332762
0.0330283
0.0327931
0.0325708
0.0323616
0.0321657
0.0319831
0.0318141
0.0316587
0.0315172
0.0313895
0.0312758
0.0311761
0.0310906
0.0310192
0.0309621
0.0309192
0.0308906
0.0356461
0.0353216
0.0350089
0.0347078
0.0344185
0.0341413
0.0338766
0.0336244
0.0333852
0.033159
0.0329462
0.0327468
0.032561
0.032389
0.0322309
0.0320868
0.0319569
0.0318411
0.0317397
0.0316526
0.0315799
0.0315218
0.0314781
0.031449
0.0314344
0.0314344
0.031449
0.0314781
0.0315218
0.0362869
0.0359571
0.0356394
0.0353333
0.0350392
0.0347574
0.0344882
0.0342318
0.0339885
0.0337585
0.033542
0.0333391
0.0331501
0.0329752
0.0328143
0.0326677
0.0325355
0.0324177
0.0323144
0.0322258
0.0321519
0.0320927
0.0320482
0.0320186
0.0320038
0.0320038
0.0320186
0.0320482
0.0320927
0.0321519
0.0322258
0.0323144
0.0369392
0.0366042
0.0362813
0.0359702
0.0356713
0.0353849
0.0351112
0.0348506
0.0346032
0.0343693
0.0341491
0.0339428
0.0337506
0.0335726
0.033409
0.0332599
0.0331254
0.0330055
0.0329005
0.0328104
0.0327351
0.0326749
0.0326297
0.0325995
0.0325844
0.0325844
0.0325995
0.0326297
0.0326749
0.0327351
0.0328104
0.0329005
0.0330055
0.0331253
0.0376033
0.0372629
0.0369349
0.0366188
0.036315
0.0360239
0.0357457
0.0354808
0.0352293
0.0349915
0.0347677
0.0345579
0.0343625
0.0341815
0.0340151
0.0338634
0.0337266
0.0336048
0.033498
0.0334063
0.0333298
0.0332685
0.0332225
0.0331918
0.0331765
0.0331765
0.0331918
0.0332225
0.0332685
0.0333297
0.0334063
0.0334979
0.0336048
0.0337266
0.0382793
0.0379335
0.0376003
0.0372791
0.0369705
0.0366746
0.0363919
0.0361226
0.035867
0.0356253
0.0353978
0.0351846
0.0349859
0.0348018
0.0346327
0.0344785
0.0343394
0.0342155
0.0341069
0.0340136
0.0339358
0.0338735
0.0338267
0.0337955
0.0337799
0.0337799
0.0337955
0.0338267
0.0338735
0.0339358
0.0340136
0.0341068
0.0342155
0.0343394
0.0389673
0.0386162
0.0382776
0.0379513
0.0376378
0.0373372
0.0370499
0.0367763
0.0365165
0.0362709
0.0360396
0.0358229
0.0356209
0.0354338
0.0352619
0.0351051
0.0349637
0.0348377
0.0347273
0.0346325
0.0345534
0.0344901
0.0344425
0.0344108
0.034395
0.0343949
0.0344108
0.0344425
0.0344901
0.0345534
0.0346325
0.0347273
0.0348377
0.0349637
0.0396677
0.0393111
0.0389671
0.0386357
0.0383171
0.0380117
0.0377199
0.0374418
0.0371779
0.0369282
0.0366932
0.036473
0.0362677
0.0360776
0.0359028
0.0357435
0.0355997
0.0354717
0.0353595
0.0352631
0.0351827
0.0351183
0.03507
0.0350378
0.0350216
0.0350216
0.0350377
0.03507
0.0351183
0.0351827
0.0352631
0.0353595
0.0354717
0.0355997
0.0403806
0.0400184
0.039669
0.0393324
0.0390087
0.0386985
0.038402
0.0381195
0.0378513
0.0375976
0.0373588
0.037135
0.0369264
0.0367332
0.0365556
0.0363937
0.0362476
0.0361175
0.0360035
0.0359055
0.0358238
0.0357584
0.0357092
0.0356765
0.0356601
0.0356601
0.0356765
0.0357092
0.0357584
0.0358238
0.0359055
0.0360034
0.0361175
0.0362476
0.0411062
0.0407383
0.0403835
0.0400416
0.0397128
0.0393977
0.0390964
0.0388094
0.038537
0.0382793
0.0380366
0.0378092
0.0375973
0.037401
0.0372205
0.037056
0.0369075
0.0367753
0.0366594
0.0365599
0.0364769
0.0364104
0.0363604
0.0363272
0.0363105
0.0363105
0.0363271
0.0363604
0.0364104
0.0364769
0.0365599
0.0366594
0.0367753
0.0369075
0.0418448
0.0414712
0.0411109
0.0407635
0.0404296
0.0401095
0.0398035
0.0395119
0.0392351
0.0389733
0.0387268
0.0384958
0.0382804
0.038081
0.0378976
0.0377305
0.0375796
0.0374453
0.0373275
0.0372264
0.037142
0.0370745
0.0370238
0.0369899
0.036973
0.036973
0.0369899
0.0370238
0.0370745
0.037142
0.0372264
0.0373275
0.0374453
0.0375796
0.0425966
0.0422173
0.0418513
0.0414985
0.0411593
0.0408341
0.0405233
0.0402271
0.0399459
0.03968
0.0394295
0.0391948
0.0389761
0.0387735
0.0385872
0.0384173
0.0382641
0.0381276
0.038008
0.0379053
0.0378195
0.0377509
0.0376994
0.037665
0.0376478
0.0376478
0.037665
0.0376994
0.0377509
0.0378195
0.0379053
0.038008
0.0381276
0.0382641
0.043362
0.0429767
0.042605
0.0422467
0.0419022
0.0415719
0.0412562
0.0409553
0.0406697
0.0403995
0.0401451
0.0399067
0.0396845
0.0394786
0.0392894
0.0391168
0.0389612
0.0388225
0.038701
0.0385966
0.0385095
0.0384398
0.0383875
0.0383525
0.0383351
0.0383351
0.0383525
0.0383874
0.0384398
0.0385095
0.0385966
0.038701
0.0388225
0.0389612
0.0391168
0.0441412
0.0437499
0.0433724
0.0430084
0.0426585
0.042323
0.0420023
0.0416967
0.0414066
0.0411321
0.0408737
0.0406315
0.0404058
0.0401967
0.0400044
0.0398292
0.0396711
0.0395302
0.0394067
0.0393007
0.0392123
0.0391414
0.0390882
0.0390528
0.039035
0.039035
0.0390528
0.0390882
0.0391414
0.0392123
0.0393007
0.0394067
0.0395302
0.039671
0.0398291
0.0449345
0.0445371
0.0441537
0.043784
0.0434286
0.0430878
0.042762
0.0424516
0.0421569
0.0418781
0.0416156
0.0413696
0.0411403
0.0409279
0.0407326
0.0405546
0.040394
0.0402509
0.0401255
0.0400178
0.0399279
0.039856
0.039802
0.0397659
0.0397479
0.0397479
0.0397659
0.0398019
0.039856
0.0399279
0.0400178
0.0401255
0.0402509
0.0403939
0.0405546
0.0457423
0.0453386
0.0449492
0.0445737
0.0442127
0.0438665
0.0435356
0.0432203
0.0429209
0.0426378
0.0423711
0.0421212
0.0418883
0.0416725
0.0414742
0.0412933
0.0411302
0.0409848
0.0408574
0.0407481
0.0406568
0.0405837
0.0405288
0.0404922
0.0404739
0.0404739
0.0404922
0.0405288
0.0405837
0.0406568
0.0407481
0.0408574
0.0409848
0.0411302
0.0465648
0.0461548
0.0457592
0.0453778
0.0450111
0.0446595
0.0443234
0.0440031
0.043699
0.0434113
0.0431405
0.0428866
0.04265
0.0424309
0.0422294
0.0420457
0.04188
0.0417323
0.0416029
0.0414918
0.0413991
0.0413249
0.0412692
0.041232
0.0412134
0.0412134
0.041232
0.0412691
0.0413249
0.0413991
0.0414918
0.0416029
0.0417323
0.0418799
0.0474024
0.046986
0.0465842
0.0461967
0.0458242
0.0454671
0.0451256
0.0448003
0.0444913
0.0441992
0.043924
0.0436661
0.0434258
0.0432032
0.0429985
0.0428119
0.0426436
0.0424936
0.0423622
0.0422493
0.0421552
0.0420798
0.0420232
0.0419854
0.0419665
0.0419665
0.0419854
0.0420232
0.0420798
0.0421552
0.0422493
0.0423622
0.0424936
0.0426436
0.0482556
0.0478326
0.0474243
0.0470308
0.0466524
0.0462895
0.0459427
0.0456122
0.0452983
0.0450015
0.044722
0.0444601
0.0442159
0.0439898
0.0437819
0.0435923
0.0434214
0.043269
0.0431355
0.0430209
0.0429253
0.0428487
0.0427912
0.0427528
0.0427337
0.0427337
0.0427528
0.0427912
0.0428487
0.0429253
0.0430209
0.0431355
0.043269
0.0434213
0.0491246
0.0486949
0.0482802
0.0478803
0.0474959
0.0471273
0.0467749
0.0464391
0.0461203
0.0458188
0.0455348
0.0452687
0.0450207
0.044791
0.0445798
0.0443873
0.0442136
0.0440589
0.0439233
0.0438069
0.0437097
0.0436319
0.0435735
0.0435346
0.0435151
0.0435151
0.0435346
0.0435735
0.0436319
0.0437097
0.0438068
0.0439233
0.0440589
0.0500099
0.0495733
0.049152
0.0487458
0.0483552
0.0479807
0.0476227
0.0472816
0.0469577
0.0466513
0.0463628
0.0460925
0.0458405
0.0456072
0.0453926
0.0451971
0.0450207
0.0448635
0.0447257
0.0446075
0.0445088
0.0444298
0.0443705
0.0443309
0.0443111
0.0443111
0.0443309
0.0443705
0.0444298
0.0445088
0.0446075
0.0447257
0.0448635
0.0509119
0.0504684
0.0500402
0.0496275
0.0492306
0.0488501
0.0484864
0.0481398
0.0478107
0.0474995
0.0472064
0.0469318
0.0466758
0.0464387
0.0462208
0.0460221
0.0458429
0.0456832
0.0455433
0.0454232
0.0453229
0.0452426
0.0451824
0.0451422
0.0451221
0.0451221
0.0451422
0.0451824
0.0452426
0.0453229
0.0454231
0.0455433
0.0518311
0.0513804
0.0509453
0.0505259
0.0501227
0.0497361
0.0493665
0.0490143
0.0486799
0.0483637
0.0480659
0.0477868
0.0475268
0.0472859
0.0470645
0.0468627
0.0466806
0.0465184
0.0463763
0.0462542
0.0461524
0.0460709
0.0460097
0.0459688
0.0459484
0.0459484
0.0459688
0.0460097
0.0460709
0.0461524
0.0462542
0.0463762
0.0527678
0.0523098
0.0518677
0.0514415
0.0510317
0.0506388
0.0502633
0.0499054
0.0495656
0.0492443
0.0489417
0.0486582
0.048394
0.0481492
0.0479243
0.0477192
0.0475342
0.0473695
0.047225
0.0471011
0.0469976
0.0469148
0.0468526
0.0468112
0.0467904
0.0467904
0.0468112
0.0468526
0.0469148
0.0469976
0.0471011
0.047225
0.0537226
0.0532571
0.0528078
0.0523747
0.0519582
0.051559
0.0511773
0.0508136
0.0504683
0.0501418
0.0498343
0.0495462
0.0492777
0.0490291
0.0488005
0.0485921
0.0484042
0.0482368
0.0480901
0.0479641
0.047859
0.0477749
0.0477117
0.0476696
0.0476485
0.0476485
0.0476696
0.0477117
0.0477749
0.047859
0.0479641
0.04809
0.054696
0.0542229
0.0537662
0.0533259
0.0529027
0.0524969
0.0521089
0.0517393
0.0513884
0.0510566
0.0507441
0.0504513
0.0501785
0.0499258
0.0496935
0.0494818
0.0492909
0.0491208
0.0489717
0.0488437
0.048737
0.0486515
0.0485873
0.0485445
0.0485231
0.0485231
0.0485445
0.0485873
0.0486515
0.048737
0.0488437
0.0489717
0.0556885
0.0552075
0.0547433
0.0542958
0.0538656
0.0534531
0.0530588
0.0526831
0.0523264
0.0519892
0.0516716
0.051374
0.0510967
0.05084
0.0506039
0.0503888
0.0501947
0.0500219
0.0498704
0.0497404
0.0496319
0.049545
0.0494798
0.0494364
0.0494146
0.0494146
0.0494364
0.0494798
0.049545
0.0496319
0.0497404
0.0498704
0.0567005
0.0562116
0.0557396
0.0552847
0.0548474
0.054428
0.0540272
0.0536454
0.0532828
0.05294
0.0526172
0.0523148
0.0520329
0.051772
0.0515321
0.0513135
0.0511163
0.0509406
0.0507867
0.0506546
0.0505443
0.050456
0.0503898
0.0503456
0.0503235
0.0503235
0.0503456
0.0503898
0.050456
0.0505443
0.0506545
0.0507867
0.0577328
0.0572357
0.0567558
0.0562933
0.0558486
0.0554223
0.0550149
0.0546266
0.0542581
0.0539096
0.0535815
0.0532741
0.0529876
0.0527223
0.0524785
0.0522563
0.0520559
0.0518774
0.051721
0.0515867
0.0514747
0.0513849
0.0513176
0.0512727
0.0512502
0.0512502
0.0512727
0.0513176
0.0513849
0.0514746
0.0515867
0.0517209
0.0587858
0.0582803
0.0577924
0.0573221
0.05687
0.0564365
0.0560222
0.0556275
0.0552528
0.0548985
0.0545649
0.0542524
0.0539612
0.0536916
0.0534437
0.0532179
0.0530142
0.0528327
0.0526737
0.0525373
0.0524234
0.0523322
0.0522638
0.0522182
0.0521953
0.0521953
0.0522182
0.0522638
0.0523322
0.0524234
0.0525373
0.0526737
0.0598601
0.0593461
0.0588499
0.0583716
0.0579119
0.0574711
0.0570498
0.0566485
0.0562675
0.0559072
0.0555681
0.0552504
0.0549543
0.0546802
0.0544282
0.0541986
0.0539916
0.0538072
0.0536455
0.0535068
0.0533911
0.0532984
0.0532289
0.0531825
0.0531593
0.0531593
0.0531825
0.0532289
0.0532984
0.0533911
0.0535068
0.0536455
0.0609565
0.0604336
0.0599289
0.0594426
0.058975
0.0585267
0.0580983
0.0576901
0.0573027
0.0569364
0.0565916
0.0562685
0.0559675
0.0556888
0.0554326
0.0551992
0.0549887
0.0548012
0.0546369
0.0544959
0.0543783
0.0542841
0.0542134
0.0541662
0.0541427
0.0541427
0.0541662
0.0542134
0.0542841
0.0543783
0.0544959
0.0546369
0.0620755
0.0615436
0.0610303
0.0605355
0.0600599
0.059604
0.0591682
0.0587531
0.0583591
0.0579866
0.0576359
0.0573074
0.0570013
0.0567179
0.0564574
0.0562201
0.0560061
0.0558155
0.0556484
0.0555051
0.0553855
0.0552897
0.0552179
0.0551699
0.055146
0.055146
0.0551699
0.0552179
0.0552897
0.0553855
0.0555051
0.0556484
0.0632178
0.0626767
0.0621544
0.0616512
0.0611674
0.0607036
0.0602603
0.0598381
0.0594373
0.0590584
0.0587017
0.0583676
0.0580563
0.0577682
0.0575033
0.057262
0.0570443
0.0568505
0.0566807
0.0565349
0.0564133
0.056316
0.0562429
0.0561942
0.0561698
0.0561698
0.0561942
0.0562429
0.056316
0.0564133
0.0565349
0.0566807
0.0643841
0.0638335
0.0633022
0.0627902
0.0622979
0.0618261
0.0613752
0.0609457
0.060538
0.0601525
0.0597897
0.0594499
0.0591333
0.0588402
0.0585708
0.0583254
0.0581041
0.057907
0.0577343
0.0575861
0.0574624
0.0573634
0.0572891
0.0572396
0.0572148
0.0572148
0.0572396
0.0572891
0.0573634
0.0574624
0.0575861
0.0577343
0.0655752
0.0650149
0.0644743
0.0639532
0.0634524
0.0629723
0.0625135
0.0620765
0.0616617
0.0612696
0.0609006
0.0605548
0.0602328
0.0599347
0.0596607
0.0594111
0.059186
0.0589855
0.0588099
0.0586591
0.0585334
0.0584327
0.0583572
0.0583068
0.0582816
0.0582816
0.0583068
0.0583572
0.0584327
0.0585334
0.0586591
0.0588098
0.0667918
0.0662216
0.0656714
0.0651412
0.0646315
0.0641429
0.0636761
0.0632314
0.0628093
0.0624104
0.0620349
0.0616832
0.0613555
0.0610522
0.0607735
0.0605196
0.0602906
0.0600868
0.0599081
0.0597548
0.0596269
0.0595245
0.0594477
0.0593964
0.0593708
0.0593708
0.0593964
0.0594477
0.0595245
0.0596269
0.0597548
0.0680348
0.0674544
0.0668943
0.0663547
0.0658359
0.0653387
0.0648636
0.064411
0.0639815
0.0635755
0.0631935
0.0628356
0.0625022
0.0621937
0.0619101
0.0616518
0.0614188
0.0612114
0.0610297
0.0608737
0.0607436
0.0606395
0.0605613
0.0605092
0.0604831
0.0604831
0.0605092
0.0605613
0.0606395
0.0607436
0.0608737
0.0693049
0.0687141
0.0681439
0.0675946
0.0670665
0.0665604
0.0660768
0.0656162
0.0651791
0.0647659
0.064377
0.0640128
0.0636736
0.0633596
0.0630711
0.0628083
0.0625713
0.0623602
0.0621753
0.0620167
0.0618843
0.0617784
0.0616988
0.0616458
0.0616193
0.0616193
0.0616458
0.0616988
0.0617784
0.0618843
0.0706031
0.0700015
0.069421
0.0688617
0.0683241
0.0678089
0.0673166
0.0668477
0.0664027
0.0659822
0.0655864
0.0652157
0.0648705
0.064551
0.0642573
0.0639899
0.0637487
0.063534
0.0633458
0.0631844
0.0630497
0.0629419
0.062861
0.0628071
0.0627801
0.0627801
0.0628071
0.062861
0.0629419
0.0630497
0.0719302
0.0713176
0.0707265
0.070157
0.0696096
0.069085
0.0685837
0.0681064
0.0676534
0.0672253
0.0668224
0.0664451
0.0660937
0.0657684
0.0654696
0.0651974
0.0649519
0.0647334
0.0645419
0.0643777
0.0642406
0.0641309
0.0640486
0.0639937
0.0639662
0.0639662
0.0639937
0.0640486
0.0641309
0.0642406
0.0732871
0.0726633
0.0720613
0.0714813
0.0709239
0.0703897
0.0698792
0.0693931
0.0689319
0.068496
0.0680858
0.0677017
0.067344
0.0670129
0.0667087
0.0664316
0.0661818
0.0659594
0.0657645
0.0655973
0.0654578
0.0653462
0.0652624
0.0652065
0.0651786
0.0651786
0.0652065
0.0652624
0.0653462
0.0654578
0.074675
0.0740395
0.0734264
0.0728356
0.0722679
0.0717237
0.0712039
0.0707089
0.0702392
0.0697953
0.0693777
0.0689866
0.0686223
0.0682852
0.0679756
0.0676935
0.0674391
0.0672127
0.0670144
0.0668442
0.0667022
0.0665886
0.0665033
0.0664464
0.0664179
0.0664179
0.0664464
0.0665033
0.0665885
0.0667022
0.0760947
0.0754473
0.0748227
0.0742209
0.0736425
0.0730883
0.0725588
0.0720546
0.0715762
0.0711241
0.0706988
0.0703005
0.0699296
0.0695864
0.069271
0.0689838
0.0687249
0.0684944
0.0682924
0.0681191
0.0679746
0.0678589
0.0677721
0.0677142
0.0676852
0.0676852
0.0677142
0.0677721
0.0678589
0.0679746
0.0775473
0.0768877
0.0762513
0.0756382
0.0750489
0.0744842
0.0739448
0.0734312
0.0729439
0.0724834
0.0720502
0.0716445
0.0712668
0.0709173
0.0705961
0.0703036
0.07004
0.0698052
0.0695996
0.0694232
0.069276
0.0691582
0.0690698
0.0690109
0.0689814
0.0689814
0.0690109
0.0690698
0.0691582
0.069276
0.079034
0.0783618
0.0777133
0.0770885
0.0764881
0.0759127
0.0753631
0.0748398
0.0743433
0.0738742
0.0734329
0.0730197
0.0726349
0.0722789
0.0719518
0.0716539
0.0713854
0.0711463
0.0709369
0.0707572
0.0706074
0.0704874
0.0703974
0.0703374
0.0703073
0.0703073
0.0703374
0.0703974
0.0704874
0.0706074
0.0805559
0.0798708
0.0792099
0.0785731
0.0779612
0.0773748
0.0768147
0.0762814
0.0757756
0.0752976
0.0748479
0.074427
0.074035
0.0736723
0.0733391
0.0730356
0.0727621
0.0725186
0.0723053
0.0721223
0.0719697
0.0718475
0.0717558
0.0716947
0.0716641
0.0716641
0.0716947
0.0717558
0.0718475
0.0719697
0.0821143
0.0814159
0.0807422
0.0800931
0.0794693
0.0788716
0.0783008
0.0777573
0.0772418
0.0767547
0.0762965
0.0758675
0.0754681
0.0750985
0.0747591
0.0744499
0.0741713
0.0739232
0.0737059
0.0735195
0.073364
0.0732396
0.0731462
0.0730839
0.0730528
0.0730528
0.0730839
0.0731462
0.0732396
0.073364
0.0837103
0.0829984
0.0823114
0.0816497
0.0810137
0.0804045
0.0798225
0.0792685
0.078743
0.0782466
0.0777796
0.0773424
0.0769354
0.0765588
0.0762129
0.0758979
0.0756139
0.0753612
0.0751398
0.0749499
0.0747915
0.0746647
0.0745695
0.0745061
0.0744744
0.0744744
0.0745061
0.0745695
0.0746647
0.0747915
0.0853454
0.0846194
0.083919
0.0832441
0.0825957
0.0819745
0.0813812
0.0808164
0.0802807
0.0797746
0.0792986
0.078853
0.0784381
0.0780543
0.0777017
0.0773807
0.0770913
0.0768338
0.0766082
0.0764146
0.0762532
0.076124
0.0760271
0.0759624
0.0759301
0.0759301
0.0759624
0.0760271
0.076124
0.0762532
0.0870209
0.0862805
0.0855661
0.0848779
0.0842166
0.0835831
0.082978
0.0824021
0.0818559
0.0813399
0.0808546
0.0804003
0.0799774
0.0795862
0.0792268
0.0788996
0.0786046
0.0783421
0.0781122
0.0779149
0.0777504
0.0776188
0.0775199
0.0774541
0.0774211
0.0774211
0.0774541
0.0775199
0.0776187
0.0777504
0.0887382
0.0879831
0.0872543
0.0865523
0.0858777
0.0852316
0.0846145
0.0840271
0.0834701
0.082944
0.0824491
0.0819859
0.0815547
0.0811558
0.0807894
0.0804558
0.0801551
0.0798875
0.0796532
0.0794521
0.0792844
0.0791502
0.0790495
0.0789823
0.0789487
0.0789487
0.0789823
0.0790495
0.0791502
0.0792844
0.0904989
0.0897285
0.088985
0.0882688
0.0875806
0.0869214
0.0862919
0.0856928
0.0851247
0.0845881
0.0840834
0.083611
0.0831713
0.0827645
0.0823909
0.0820508
0.0817442
0.0814713
0.0812324
0.0810274
0.0808564
0.0807196
0.0806169
0.0805484
0.0805142
0.0805142
0.0805484
0.0806169
0.0807196
0.0808564
0.0923045
0.0915185
0.0907598
0.0900289
0.0893267
0.0886541
0.0880119
0.0874007
0.0868211
0.0862737
0.0857589
0.0852771
0.0848286
0.0844137
0.0840327
0.0836858
0.0833732
0.0830949
0.0828512
0.0826422
0.0824679
0.0823283
0.0822236
0.0821538
0.0821189
0.0821189
0.0821538
0.0822236
0.0823283
0.0824679
0.0941568
0.0933547
0.0925803
0.0918343
0.0911177
0.0904313
0.0897759
0.0891522
0.0885609
0.0880024
0.0874772
0.0869856
0.0865281
0.0861049
0.0857163
0.0853624
0.0850435
0.0847598
0.0845112
0.084298
0.0841202
0.0839779
0.0838711
0.0837999
0.0837643
0.0837643
0.0837999
0.0838711
0.0839779
0.0841202
0.0960574
0.0952388
0.0944482
0.0936866
0.0929551
0.0922545
0.0915856
0.0909491
0.0903457
0.0897757
0.0892398
0.0887383
0.0882715
0.0878397
0.0874432
0.0870822
0.0867569
0.0864674
0.0862138
0.0859963
0.0858149
0.0856698
0.0855609
0.0854883
0.0854519
0.0854519
0.0854883
0.0855609
0.0856698
0.0858149
0.0980082
0.0971725
0.0963653
0.0955877
0.0948408
0.0941256
0.0934428
0.0927931
0.0921771
0.0915954
0.0910484
0.0905366
0.0900602
0.0896196
0.089215
0.0888467
0.0885147
0.0882193
0.0879606
0.0877387
0.0875537
0.0874056
0.0872945
0.0872204
0.0871833
0.0871833
0.0872204
0.0872945
0.0874056
0.0875537
0.100011
0.0991579
0.0983334
0.0975393
0.0967766
0.0960463
0.0953492
0.0946858
0.094057
0.0934632
0.0929048
0.0923824
0.0918962
0.0914465
0.0910335
0.0906576
0.0903188
0.0900173
0.0897533
0.0895269
0.0893381
0.0891869
0.0890736
0.088998
0.0889601
0.0889601
0.088998
0.0890736
0.0891869
0.0893381
0.102068
0.101197
0.100355
0.0995434
0.0987645
0.0980186
0.0973066
0.0966293
0.0959872
0.0953809
0.0948108
0.0942774
0.0937811
0.093322
0.0929004
0.0925167
0.0921709
0.0918632
0.0915937
0.0913626
0.0911698
0.0910156
0.0908999
0.0908227
0.0907841
0.0907841
0.0908227
0.0908999
0.0910156
0.0911698
0.104182
0.103291
0.102431
0.101602
0.100806
0.100044
0.0993172
0.0986254
0.0979697
0.0973505
0.0967683
0.0962237
0.0957168
0.0952481
0.0948177
0.0944258
0.0940728
0.0937587
0.0934836
0.0932476
0.0930509
0.0928934
0.0927753
0.0926965
0.0926571
0.0926571
0.0926965
0.0927753
0.0928934
0.0930509
0.104564
0.103717
0.102904
0.102126
0.101383
0.100676
0.100006
0.099374
0.0987794
0.0982231
0.0977054
0.0972267
0.094983
0.0948223
0.0947016
0.0946212
0.094581
0.094581
0.0946212
0.0947016
0.0948223
0.094983
0.0239766
0.0239361
0.0239058
0.0238856
0.0238755
0.0238755
0.0238856
0.0239058
0.0239361
0.0239766
0.0244147
0.0243626
0.0243209
0.0242897
0.0242688
0.0242584
0.0242584
0.0242688
0.0242897
0.0243209
0.0243626
0.0244147
0.0244772
0.0245501
0.0246335
0.0247272
0.0248313
0.0249458
0.0250707
0.0252059
0.0253513
0.0249543
0.0248793
0.024815
0.0247613
0.0247184
0.0246863
0.0246648
0.0246541
0.0246541
0.0246648
0.0246863
0.0247184
0.0247613
0.024815
0.0248793
0.0249543
0.02504
0.0251364
0.0252435
0.0253612
0.0254894
0.0256283
0.0257777
0.0259376
0.0261079
0.0262886
0.0264796
0.0256678
0.0255579
0.0254589
0.0253708
0.0252937
0.0252276
0.0251725
0.0251284
0.0250953
0.0250733
0.0250623
0.0250623
0.0250733
0.0250953
0.0251284
0.0251725
0.0252276
0.0252937
0.0253708
0.0254589
0.0255579
0.0256678
0.0257886
0.0259203
0.0260627
0.026216
0.0263799
0.0265546
0.0267397
0.0269354
0.0271415
0.0273579
0.0275845
0.026363
0.026228
0.0261041
0.0259913
0.0258898
0.0257994
0.0257203
0.0256525
0.0255959
0.0255507
0.0255167
0.0254941
0.0254827
0.0254827
0.0254941
0.0255167
0.0255507
0.0255959
0.0256525
0.0257203
0.0257994
0.0258898
0.0259913
0.0261041
0.026228
0.026363
0.026509
0.026666
0.026834
0.0270128
0.0272024
0.0274027
0.0276135
0.0278348
0.0280664
0.0283082
0.02856
0.0288225
0.0271277
0.0269669
0.0268174
0.0266791
0.0265522
0.0264367
0.0263326
0.02624
0.0261589
0.0260893
0.0260314
0.0259849
0.0259501
0.0259269
0.0259153
0.0259153
0.0259269
0.0259501
0.0259849
0.0260314
0.0260893
0.0261589
0.02624
0.0263326
0.0264367
0.0265522
0.0266791
0.0268174
0.0269669
0.0271277
0.0272996
0.0274825
0.0276765
0.0278813
0.0280968
0.0283229
0.0285596
0.0288065
0.0290635
0.0293313
0.0277765
0.0276007
0.0274363
0.0272833
0.0271418
0.027012
0.0268937
0.0267871
0.0266923
0.0266093
0.026538
0.0264786
0.0264311
0.0263954
0.0263716
0.0263597
0.0263597
0.0263716
0.0263954
0.0264311
0.0264787
0.0265381
0.0266093
0.0266923
0.0267871
0.0268937
0.027012
0.0271419
0.0272833
0.0274363
0.0276008
0.0277765
0.0279636
0.0281618
0.0283711
0.0285912
0.0288222
0.0290637
0.0293156
0.0295778
0.0298509
0.0284559
0.0282648
0.0280852
0.0279171
0.0277607
0.0276161
0.0274832
0.0273623
0.0272533
0.0271563
0.0270713
0.0269984
0.0269376
0.026889
0.0268525
0.0268281
0.026816
0.026816
0.0268281
0.0268525
0.026889
0.0269377
0.0269984
0.0270713
0.0271563
0.0272533
0.0273623
0.0274832
0.0276161
0.0277607
0.0279171
0.0280852
0.0282648
0.0284559
0.0286584
0.028872
0.0290968
0.0293324
0.0295788
0.0298358
0.0301031
0.0303813
0.029166
0.0289594
0.0287643
0.0285808
0.0284092
0.0282495
0.0281017
0.0279659
0.0278423
0.0277309
0.0276318
0.0275449
0.0274704
0.0274082
0.0273585
0.0273211
0.0272962
0.0272838
0.0272838
0.0272962
0.0273211
0.0273585
0.0274082
0.0274704
0.0275449
0.0276318
0.0277309
0.0278423
0.0279659
0.0281017
0.0282495
0.0284092
0.0285809
0.0287643
0.0289594
0.029166
0.029384
0.0296133
0.0298536
0.0301049
0.0303668
0.0306392
0.0309226
0.029907
0.0296847
0.0294739
0.0292749
0.0290877
0.0289125
0.0287494
0.0285985
0.0284599
0.0283337
0.0282199
0.0281186
0.0280299
0.0279538
0.0278903
0.0278394
0.0278013
0.0277758
0.0277631
0.0277631
0.0277758
0.0278013
0.0278394
0.0278903
0.0279538
0.0280299
0.0281186
0.0282199
0.0283337
0.02846
0.0285985
0.0287494
0.0289125
0.0290877
0.0292749
0.0294739
0.0296847
0.029907
0.0301408
0.0303858
0.0306418
0.0309087
0.0311861
0.0314746
0.030441
0.0302144
0.0299995
0.0297966
0.0296057
0.029427
0.0292606
0.0291066
0.0289652
0.0288364
0.0287202
0.0286168
0.0285262
0.0284485
0.0283837
0.0283317
0.0282928
0.0282668
0.0282538
0.0282538
0.0282668
0.0282928
0.0283317
0.0283837
0.0284485
0.0285262
0.0286168
0.0287202
0.0288364
0.0289652
0.0291066
0.0292606
0.029427
0.0296057
0.0297966
0.0299995
0.0302144
0.0304411
0.0306793
0.0309289
0.0311897
0.0314615
0.0317439
0.0320376
0.0312287
0.030986
0.0307551
0.0305361
0.0303293
0.0301347
0.0299525
0.0297829
0.0296259
0.0294816
0.0293502
0.0292317
0.0291263
0.0290338
0.0289545
0.0288884
0.0288354
0.0287956
0.0287691
0.0287558
0.0287558
0.0287691
0.0287956
0.0288354
0.0288884
0.0289545
0.0290338
0.0291263
0.0292318
0.0293502
0.0294816
0.0296259
0.0297829
0.0299525
0.0301347
0.0303293
0.0305362
0.0307551
0.030986
0.0312287
0.0314829
0.0317485
0.0320251
0.0323126
0.0326114
0.0320479
0.0317891
0.031542
0.0313068
0.0310838
0.0308731
0.0306748
0.0304892
0.0303163
0.0301562
0.0300092
0.0298752
0.0297545
0.0296469
0.0295526
0.0294718
0.0294043
0.0293503
0.0293097
0.0292827
0.0292691
0.0292691
0.0292827
0.0293097
0.0293503
0.0294043
0.0294718
0.0295527
0.0296469
0.0297545
0.0298753
0.0300092
0.0301563
0.0303163
0.0304892
0.0306748
0.0308731
0.0310838
0.0313069
0.031542
0.0317891
0.0320479
0.0323182
0.0325998
0.0328923
0.0331962
0.0326239
0.0323605
0.032109
0.0318696
0.0316425
0.0314279
0.031226
0.0310369
0.0308608
0.0306977
0.0305479
0.0304114
0.0302883
0.0301787
0.0300826
0.0300002
0.0299314
0.0298763
0.029835
0.0298074
0.0297937
0.0297937
0.0298074
0.029835
0.0298764
0.0299314
0.0300002
0.0300826
0.0301787
0.0302883
0.0304114
0.0305479
0.0306977
0.0308608
0.0310369
0.031226
0.0314279
0.0316425
0.0318696
0.032109
0.0323605
0.0326239
0.032899
0.0331854
0.0334829
0.0337919
0.0334907
0.0332109
0.032943
0.032687
0.0324434
0.0322123
0.0319938
0.0317882
0.0315957
0.0314164
0.0312503
0.0310978
0.0309587
0.0308333
0.0307217
0.0306238
0.0305398
0.0304697
0.0304136
0.0303715
0.0303434
0.0303294
0.0303294
0.0303434
0.0303715
0.0304136
0.0304697
0.0305398
0.0306238
0.0307217
0.0308333
0.0309587
0.0310978
0.0312503
0.0314164
0.0315957
0.0317883
0.0319938
0.0322123
0.0324434
0.0326871
0.032943
0.033211
0.0334907
0.033782
0.0340846
0.0343988
0.0340936
0.0338091
0.0335365
0.0332762
0.0330283
0.0327931
0.0325708
0.0323616
0.0321657
0.0319831
0.0318141
0.0316587
0.0315172
0.0313895
0.0312758
0.0311761
0.0310906
0.0310192
0.0309621
0.0309192
0.0308906
0.0308763
0.0308763
0.0308906
0.0309192
0.0309621
0.0310193
0.0310906
0.0311762
0.0312758
0.0313895
0.0315172
0.0316587
0.0318141
0.0319831
0.0321657
0.0323616
0.0325709
0.0327932
0.0330283
0.0332762
0.0335366
0.0338091
0.0340937
0.0343899
0.0346975
0.0350168
0.0347078
0.0344185
0.0341413
0.0338766
0.0336244
0.0333852
0.033159
0.0329462
0.0327468
0.032561
0.032389
0.0322309
0.0320868
0.0319569
0.0318411
0.0317397
0.0316526
0.03158
0.0315218
0.0314781
0.031449
0.0314344
0.0314344
0.031449
0.0314781
0.0315218
0.03158
0.0316526
0.0317397
0.0318411
0.0319569
0.0320868
0.0322309
0.032389
0.032561
0.0327468
0.0329462
0.0331591
0.0333852
0.0336244
0.0338766
0.0341413
0.0344185
0.0347078
0.0350089
0.0353216
0.0356461
0.0353333
0.0350392
0.0347574
0.0344882
0.0342318
0.0339885
0.0337585
0.033542
0.0333391
0.0331502
0.0329752
0.0328143
0.0326677
0.0325355
0.0324177
0.0323145
0.0322258
0.0321519
0.0320927
0.0320483
0.0320186
0.0320038
0.0320038
0.0320186
0.0320483
0.0320927
0.0321519
0.0322259
0.0323145
0.0324177
0.0325355
0.0326677
0.0328143
0.0329752
0.0331502
0.0333392
0.033542
0.0337585
0.0339885
0.0342318
0.0344882
0.0347574
0.0350392
0.0353333
0.0356394
0.0359571
0.0362869
0.0359702
0.0356713
0.0353849
0.0351112
0.0348506
0.0346032
0.0343693
0.0341491
0.0339428
0.0337506
0.0335726
0.033409
0.0332599
0.0331254
0.0330056
0.0329005
0.0328104
0.0327352
0.0326749
0.0326297
0.0325995
0.0325845
0.0325845
0.0325995
0.0326297
0.0326749
0.0327352
0.0328104
0.0329005
0.0330056
0.0331254
0.0332599
0.033409
0.0335726
0.0337506
0.0339428
0.0341491
0.0343693
0.0346032
0.0348506
0.0351112
0.0353849
0.0356713
0.0359702
0.0362813
0.0366042
0.0369392
0.0366188
0.036315
0.0360239
0.0357457
0.0354808
0.0352293
0.0349915
0.0347677
0.0345579
0.0343625
0.0341815
0.0340151
0.0338634
0.0337266
0.0336048
0.033498
0.0334063
0.0333298
0.0332685
0.0332225
0.0331918
0.0331765
0.0331765
0.0331918
0.0332225
0.0332685
0.0333298
0.0334063
0.033498
0.0336048
0.0337266
0.0338635
0.0340151
0.0341815
0.0343625
0.0345579
0.0347677
0.0349915
0.0352293
0.0354808
0.0357458
0.0360239
0.036315
0.0366188
0.0369349
0.0372629
0.0376033
0.0372791
0.0369704
0.0366746
0.0363919
0.0361226
0.035867
0.0356253
0.0353978
0.0351846
0.0349859
0.0348019
0.0346327
0.0344785
0.0343394
0.0342155
0.0341069
0.0340136
0.0339358
0.0338735
0.0338268
0.0337956
0.03378
0.03378
0.0337956
0.0338268
0.0338735
0.0339358
0.0340136
0.0341069
0.0342155
0.0343394
0.0344785
0.0346327
0.0348019
0.0349859
0.0351846
0.0353978
0.0356254
0.0358671
0.0361227
0.0363919
0.0366746
0.0369705
0.0372791
0.0376003
0.0379336
0.0382793
0.0379513
0.0376377
0.0373372
0.0370499
0.0367763
0.0365165
0.0362709
0.0360396
0.0358229
0.0356209
0.0354338
0.0352619
0.0351051
0.0349637
0.0348378
0.0347273
0.0346325
0.0345534
0.0344901
0.0344426
0.0344108
0.034395
0.034395
0.0344108
0.0344426
0.0344901
0.0345535
0.0346326
0.0347273
0.0348378
0.0349637
0.0351051
0.0352619
0.0354339
0.0356209
0.0358229
0.0360396
0.0362709
0.0365165
0.0367763
0.0370499
0.0373372
0.0376378
0.0379514
0.0382776
0.0386162
0.0389673
0.0386357
0.0383171
0.0380117
0.0377199
0.0374418
0.0371778
0.0369282
0.0366932
0.036473
0.0362677
0.0360776
0.0359028
0.0357435
0.0355998
0.0354717
0.0353595
0.0352631
0.0351827
0.0351183
0.03507
0.0350378
0.0350216
0.0350216
0.0350378
0.03507
0.0351183
0.0351827
0.0352631
0.0353595
0.0354717
0.0355998
0.0357435
0.0359028
0.0360776
0.0362677
0.036473
0.0366932
0.0369283
0.0371779
0.0374418
0.0377199
0.0380118
0.0383171