/*--------------------------------*- C++ -*----------------------------------*\
  =========                 |
  \\      /  F ield         | OpenFOAM: The Open Source CFD Toolbox
   \\    /   O peration     | Website:  https://openfoam.org
    \\  /    A nd           | Version:  7
     \\/     M anipulation  |
\*---------------------------------------------------------------------------*/
FoamFile
{
    version     2.0;
    format      ascii;
    class       surfaceScalarField;
    location    "124000";
    object      phi;
}
// * * * * * * * * * * * * * * * * * * * * * * * * * * * * * * * * * * * * * //

dimensions      [0 3 -1 0 0 0 0];

internalField   nonuniform List<scalar> 
9375
(
-2.11774e-23
7.42888e-23
-9.72939e-24
1.07066e-22
-1.37408e-23
6.16279e-23
-2.36741e-24
6.09732e-23
-1.48276e-23
-5.15663e-23
1.01951e-22
-9.05058e-24
5.45769e-23
-5.80184e-24
-3.30076e-23
-1.51441e-23
1.83883e-23
-1.93677e-23
3.5398e-23
-1.4995e-23
3.52392e-23
-9.51658e-24
5.50944e-23
-1.68728e-23
3.12415e-23
-2.1022e-23
-2.22851e-23
-2.55792e-23
2.76779e-23
-1.92754e-23
1.25997e-22
-9.86554e-24
1.52656e-22
-1.33068e-23
1.14334e-22
-4.13562e-24
5.67055e-23
-1.23536e-23
-1.18717e-23
-2.2129e-23
1.02147e-22
-1.59814e-23
1.01049e-22
-1.84956e-23
7.22621e-23
-2.32522e-23
8.43256e-23
-1.2646e-23
2.75586e-23
-2.05224e-23
2.59041e-23
-2.99663e-23
1.73155e-22
-2.87914e-23
1.18209e-22
-2.70975e-23
2.64464e-23
-2.18116e-23
1.25731e-22
-1.59467e-23
1.51504e-22
-1.16467e-23
2.3189e-22
-9.31719e-24
9.68661e-23
-6.07052e-24
1.40397e-22
1.46907e-22
-9.2035e-24
7.13733e-23
-4.6573e-24
-4.61757e-23
-1.55243e-23
1.86657e-23
-1.90423e-23
1.14944e-22
-1.41145e-23
1.11271e-23
-9.83464e-24
1.7439e-22
-1.66771e-23
1.38033e-22
-1.92956e-23
-1.06019e-23
-2.46802e-23
-3.77856e-23
-1.86332e-23
1.7713e-22
-9.00274e-24
2.01394e-22
-1.51986e-23
5.64072e-23
-4.77e-24
4.02256e-23
-9.55951e-24
5.54205e-23
-2.29705e-23
3.63015e-23
-1.45593e-23
8.93054e-23
-1.96808e-23
2.68532e-23
-2.22476e-23
8.96195e-23
-1.27755e-23
6.13289e-23
-1.77181e-23
2.86355e-23
-3.1146e-23
1.07202e-22
-2.95369e-23
7.40336e-23
-2.63166e-23
2.09363e-23
-2.05994e-23
1.39606e-22
-1.50279e-23
1.66922e-22
-1.3596e-23
1.70296e-22
-8.52217e-24
8.68575e-23
-6.46141e-24
9.77857e-23
2.15323e-24
1.39145e-22
4.37342e-24
4.78702e-23
1.3722e-24
6.11609e-23
9.50799e-24
5.83892e-23
1.85301e-22
-8.78144e-24
9.46797e-23
-3.50971e-24
-5.72635e-23
-1.35406e-23
-2.57906e-23
-1.97963e-23
1.16785e-22
-1.13827e-23
-1.82168e-23
-9.7315e-24
1.32577e-22
-1.93688e-23
1.65074e-22
-1.89563e-23
4.37889e-23
-2.18325e-23
5.50694e-23
-1.84692e-23
9.55983e-23
-1.02829e-23
2.12824e-22
-1.59223e-23
8.15893e-23
-4.32436e-24
2.39085e-23
-9.33108e-24
5.59211e-23
-2.26709e-23
-2.84885e-23
-1.36507e-23
1.12553e-22
-2.0286e-23
-3.57517e-23
-2.12281e-23
1.29215e-22
-1.32927e-23
5.97226e-23
-1.62744e-23
3.37971e-23
-3.18171e-23
-5.59099e-24
-2.97843e-23
7.35756e-23
-2.46946e-23
5.80838e-24
-1.92866e-23
1.34454e-22
-1.6224e-23
1.36208e-22
-1.3335e-23
2.156e-22
-8.43115e-24
8.03465e-23
-5.97578e-24
8.19059e-23
2.14191e-24
2.12838e-22
4.00786e-24
1.65392e-23
2.14784e-24
7.03789e-23
1.14658e-23
5.27896e-23
6.8579e-24
1.22581e-22
2.29573e-23
4.68143e-23
1.29475e-23
8.22954e-23
9.9059e-24
-5.95349e-23
1.15943e-23
7.20999e-23
3.80075e-24
4.77216e-23
1.20017e-24
1.55158e-22
-4.24245e-24
6.3361e-23
5.48612e-24
8.32763e-23
-6.65523e-24
1.23352e-22
-2.15826e-25
8.96267e-23
-1.78387e-24
7.0629e-23
-1.66112e-23
-9.68729e-24
1.21228e-22
-3.15321e-24
-8.19749e-23
-1.13241e-23
-3.39477e-23
-2.03825e-23
1.15211e-22
-9.36529e-24
9.7926e-23
-8.3048e-24
1.25579e-22
-2.04631e-23
1.10998e-22
-1.83869e-23
8.54851e-23
-2.13019e-23
-1.46937e-23
-1.62141e-23
1.80917e-22
-1.20706e-23
2.55957e-22
-1.66444e-23
7.54616e-24
-3.8014e-24
1.14677e-23
-9.87288e-24
4.48408e-23
-2.08187e-23
-4.96121e-23
-1.45189e-23
7.87695e-23
-1.86643e-23
2.6254e-24
-2.13181e-23
9.99562e-23
-1.33755e-23
9.25916e-23
-1.70386e-23
3.61818e-23
-3.04383e-23
1.05366e-24
-3.05519e-23
6.80076e-23
-2.23407e-23
6.78631e-23
-1.89556e-23
1.3265e-22
-1.62629e-23
1.33493e-22
-1.36147e-23
2.65152e-22
-8.87279e-24
6.84168e-23
-4.26084e-24
9.28745e-23
3.55897e-25
8.91969e-23
4.89733e-24
5.05022e-23
2.15694e-24
3.21777e-24
1.20337e-23
8.47234e-23
6.705e-24
5.43421e-23
2.26635e-23
5.89419e-23
1.14981e-23
9.22329e-23
1.08466e-23
-6.13135e-23
1.25657e-23
4.70569e-23
4.35752e-24
5.64741e-23
1.79789e-24
1.16659e-22
-4.89789e-24
7.67045e-23
5.39358e-24
8.60481e-23
-6.1953e-24
5.70726e-23
-2.31695e-24
8.60687e-23
-2.4735e-24
1.42011e-22
4.50879e-24
-9.78176e-24
1.0405e-22
-2.62139e-24
4.21233e-23
-9.86258e-24
-4.10739e-23
-1.92915e-23
1.58976e-22
-1.01511e-23
8.49405e-23
-9.25665e-24
9.89295e-23
-1.92318e-23
1.42632e-22
-1.98854e-23
9.53185e-23
-1.96633e-23
-3.59789e-24
-1.48813e-23
1.94053e-22
-1.42056e-23
2.18251e-22
-1.53516e-23
5.80267e-23
-4.73314e-24
3.55138e-23
-9.6289e-24
1.29682e-22
-1.9543e-23
-3.69375e-23
-1.4383e-23
8.07424e-23
-1.80281e-23
-3.23556e-23
-2.04346e-23
1.1798e-22
-1.40348e-23
8.88227e-23
-1.74742e-23
3.75133e-23
-2.97307e-23
4.2653e-24
-3.01399e-23
6.36589e-23
-2.11904e-23
4.86614e-23
-1.84282e-23
4.09225e-23
-1.54933e-23
1.35691e-22
-1.41393e-23
2.56876e-22
-9.21233e-24
2.3417e-23
-4.67269e-24
1.25634e-22
-4.69718e-26
8.0693e-23
3.89624e-24
5.66218e-23
4.03515e-24
1.36677e-23
1.10927e-23
9.92377e-23
8.44321e-24
7.1894e-23
2.35271e-23
4.21227e-23
1.02905e-23
3.67802e-23
1.26945e-23
-6.89506e-23
1.33456e-23
2.55622e-23
4.2097e-24
3.77663e-23
3.15188e-24
1.10158e-22
-5.02616e-24
8.9019e-23
5.13091e-24
1.20918e-22
-5.68712e-24
4.01505e-23
-1.38974e-24
1.20066e-22
-4.59673e-24
1.37869e-22
2.74545e-23
-1.03784e-23
8.54805e-23
-2.71025e-24
3.3649e-23
-7.87393e-24
-4.30173e-23
-1.84695e-23
8.90837e-23
-8.53363e-24
9.19523e-23
-8.65679e-24
6.22519e-23
-1.93426e-23
1.64991e-22
-1.98346e-23
1.09393e-22
-1.68195e-23
-1.55404e-24
-1.47572e-23
1.20662e-22
-1.53813e-23
2.19466e-22
-1.55452e-23
-1.73104e-23
-3.86243e-24
2.84571e-23
-1.05077e-23
1.5634e-22
-1.88663e-23
-2.61015e-23
-1.39232e-23
1.01273e-22
-1.69288e-23
-2.22134e-23
-2.01727e-23
8.33337e-23
-1.45846e-23
8.59556e-23
-1.75016e-23
5.93136e-23
-2.92849e-23
1.15891e-23
-2.98564e-23
9.44185e-23
-2.11463e-23
6.69947e-23
-1.66901e-23
7.19739e-23
-1.51248e-23
1.43122e-22
-1.49907e-23
2.26973e-22
-9.40793e-24
1.57792e-23
-4.95782e-24
1.21976e-22
6.99545e-25
7.75395e-23
3.16027e-24
6.33493e-23
4.68873e-24
6.30141e-23
1.03565e-23
9.80576e-23
8.64608e-24
8.42799e-23
2.28696e-23
5.10602e-23
9.71214e-24
5.39589e-23
1.15332e-23
5.37893e-23
1.36676e-23
8.2029e-23
5.27223e-24
7.46576e-23
3.6078e-24
1.04248e-22
-4.92612e-24
1.01453e-22
4.61991e-24
1.17968e-22
-4.94256e-24
4.9039e-23
-2.07935e-24
1.19534e-22
-5.29136e-24
1.3809e-22
-2.22734e-23
-8.82826e-24
-6.32814e-24
-2.0893e-24
3.16925e-23
-7.10152e-24
-4.34171e-23
-1.75139e-23
6.1674e-23
-8.44763e-24
1.18406e-22
-7.94379e-24
1.14368e-22
-2.00775e-23
1.5896e-22
-1.9921e-23
1.2101e-22
-1.62595e-23
2.51136e-23
-1.2953e-23
1.25033e-22
-1.80044e-23
1.46903e-22
-1.41368e-23
2.59867e-23
-2.96378e-24
2.72645e-23
-1.14543e-23
1.66007e-22
-1.813e-23
2.10493e-23
-1.40003e-23
1.06293e-22
-1.64868e-23
-5.19563e-23
-1.95183e-23
8.09148e-23
-1.46128e-23
4.66305e-23
-1.76886e-23
2.66153e-23
-2.85437e-23
-2.0637e-23
-3.01762e-23
8.65141e-23
-2.09684e-23
1.25475e-22
-1.51234e-23
6.34454e-23
-1.53432e-23
1.24759e-22
-1.53728e-23
1.52094e-22
-9.36163e-24
1.20161e-23
-4.54377e-24
1.61478e-22
2.81889e-25
3.47002e-23
3.73301e-24
1.43194e-22
5.32379e-24
7.2503e-23
9.84701e-24
1.34934e-22
8.74937e-24
8.80564e-23
2.25358e-23
5.99186e-23
1.11561e-23
8.21808e-23
1.1693e-23
3.41934e-23
1.3254e-23
1.2222e-22
6.15339e-24
7.1345e-23
2.41924e-24
1.05704e-22
-5.47626e-24
1.46618e-22
4.25235e-24
1.53008e-22
-4.43395e-24
5.78254e-23
-2.27672e-24
1.20114e-22
-7.1859e-24
1.38367e-22
-7.84842e-23
-8.1109e-24
1.0704e-22
-1.82198e-24
6.88109e-23
-7.02898e-24
-3.75965e-23
-1.59766e-23
8.60633e-23
-7.18291e-24
1.10918e-22
-6.98587e-24
6.56605e-23
-1.98079e-23
1.09832e-22
-2.05204e-23
1.69936e-22
-1.55691e-23
5.42648e-23
-1.23958e-23
1.27327e-22
-1.92653e-23
1.29361e-22
-1.34679e-23
2.48775e-23
-1.35715e-24
5.87062e-23
-1.20224e-23
1.46045e-22
-1.79704e-23
2.56645e-23
-1.479e-23
2.78169e-23
-1.53372e-23
-4.67396e-23
-1.96302e-23
5.10912e-23
-1.43109e-23
3.5812e-23
-1.79352e-23
2.75229e-23
-2.78072e-23
-1.92781e-23
-2.90734e-23
5.90894e-23
-2.14278e-23
1.0833e-22
-1.36465e-23
1.85384e-22
-1.64854e-23
1.32723e-22
-1.48083e-23
1.51685e-22
-9.31608e-24
4.28388e-23
-5.83554e-24
1.69105e-22
2.15563e-24
3.09567e-23
3.06164e-24
1.54165e-22
6.33048e-24
6.95396e-23
8.64433e-24
6.32124e-23
9.23521e-24
5.24581e-23
2.19952e-23
1.23996e-22
1.06702e-23
4.92056e-23
1.25718e-23
7.99346e-23
1.35657e-23
7.03776e-23
6.57024e-24
7.31497e-23
3.61182e-24
1.03671e-22
-6.32472e-24
8.20911e-23
3.66453e-24
1.45883e-22
-3.84661e-24
9.89199e-23
-1.90062e-24
1.16128e-22
-8.53327e-24
6.09514e-23
-7.33166e-23
-7.57718e-24
1.691e-22
-1.4499e-24
6.53372e-23
-5.46857e-24
-3.57574e-23
-1.49721e-23
4.7232e-23
-7.01238e-24
1.24157e-22
-6.07543e-24
5.46472e-23
-1.85678e-23
5.39355e-23
-2.15302e-23
1.74752e-22
-1.57095e-23
1.25994e-22
-1.22579e-23
1.24474e-22
-1.96723e-23
9.27615e-23
-1.29168e-23
2.5465e-23
-6.40969e-25
1.43175e-22
-1.21374e-23
1.39982e-22
-1.87664e-23
-1.53093e-24
-1.40716e-23
3.09983e-23
-1.46053e-23
-1.02008e-23
-1.95363e-23
5.65112e-23
-1.4151e-23
2.93435e-23
-1.7958e-23
2.94708e-23
-2.74353e-23
1.57136e-23
-2.77685e-23
6.25355e-23
-2.02971e-23
1.11959e-22
-1.41126e-23
1.79822e-22
-1.79424e-23
1.08475e-22
-1.37914e-23
1.83528e-22
-9.26616e-24
4.50052e-23
-6.53485e-24
1.7511e-22
3.8488e-24
5.44921e-23
2.55282e-24
1.30759e-22
6.09745e-24
6.75355e-23
8.1607e-24
2.67415e-23
1.1362e-23
-1.20091e-24
1.98221e-23
6.97842e-23
1.21668e-23
9.14255e-23
1.18951e-23
4.68724e-23
1.27967e-23
1.02456e-22
7.60771e-24
9.55939e-23
3.44385e-24
1.06914e-22
-6.99444e-24
1.91953e-23
2.61932e-24
1.39889e-22
-2.82242e-24
8.52166e-23
-2.22959e-24
9.91665e-23
-1.02233e-23
-5.01178e-23
-7.51566e-23
-7.19729e-24
1.58707e-22
-1.54745e-24
6.61215e-23
-4.65046e-24
9.81888e-24
-1.46715e-23
5.59045e-23
-7.3554e-24
1.1546e-22
-5.36639e-24
8.18817e-23
-1.81417e-23
2.99024e-23
-2.08113e-23
1.36513e-22
-1.63566e-23
9.48996e-23
-1.24383e-23
1.19007e-22
-1.96794e-23
8.47034e-23
-1.16761e-23
-2.4969e-23
-6.8755e-25
1.82483e-22
-1.30707e-23
7.88689e-23
-1.92358e-23
4.81955e-23
-1.33829e-23
3.27258e-23
-1.41698e-23
-4.11354e-24
-1.94124e-23
6.57295e-23
-1.38785e-23
5.27898e-23
-1.7625e-23
3.83626e-23
-2.74768e-23
2.571e-23
-2.67179e-23
6.35312e-23
-1.88218e-23
1.53598e-22
-1.46564e-23
9.73736e-23
-1.8666e-23
1.19941e-22
-1.34498e-23
1.7091e-22
-8.84898e-24
5.14023e-23
-6.77839e-24
1.83149e-22
5.1239e-24
1.1378e-22
1.43852e-24
1.62592e-23
5.84911e-24
6.54553e-23
7.82085e-24
-2.92774e-23
1.19896e-23
2.66913e-23
2.10796e-23
7.08831e-23
1.1938e-23
1.30645e-23
1.28326e-23
4.31451e-23
1.2479e-23
1.00995e-22
7.89992e-24
5.89285e-23
2.9305e-24
-1.47199e-23
-6.10933e-24
-2.40154e-23
3.7853e-24
1.89165e-22
-3.36447e-24
4.21842e-23
-3.91599e-24
1.01682e-22
-1.02629e-23
-2.84063e-23
-1.9748e-23
-7.11523e-24
2.15231e-22
-2.10849e-24
5.09348e-23
-3.53291e-24
3.41432e-23
-1.37953e-23
3.11892e-23
-6.68656e-24
1.02279e-22
-5.3304e-24
8.44344e-23
-1.7572e-23
3.78647e-23
-2.02725e-23
1.47839e-22
-1.68021e-23
5.75709e-23
-1.27003e-23
1.14733e-22
-1.98907e-23
8.54791e-23
-9.2874e-24
9.09797e-25
-1.46454e-24
1.87587e-22
-1.24527e-23
9.38959e-23
-2.0215e-23
2.47723e-23
-1.25964e-23
2.45647e-23
-1.34645e-23
-1.59447e-23
-1.9227e-23
-7.49783e-24
-1.37822e-23
1.76324e-23
-1.72565e-23
2.52105e-23
-2.76814e-23
6.84217e-23
-2.49567e-23
5.55906e-23
-1.95405e-23
1.60067e-22
-1.36972e-23
8.97214e-23
-1.9706e-23
1.01594e-22
-1.27762e-23
1.48847e-22
-9.26036e-24
8.90186e-23
-6.02551e-24
2.19064e-22
3.00777e-24
8.75253e-23
2.32893e-24
4.95063e-23
4.83285e-24
6.59764e-23
8.58198e-24
8.90707e-23
1.21947e-23
6.32996e-23
2.07759e-23
1.04089e-22
1.27005e-23
-1.42936e-23
1.33071e-23
3.3559e-23
1.18543e-23
6.1837e-23
7.91963e-24
5.46603e-23
1.62626e-24
3.76383e-23
-4.04279e-24
-3.50517e-23
2.9921e-24
1.72853e-22
-3.20116e-24
6.02407e-23
-4.86009e-24
1.04878e-22
-9.38592e-24
-2.02371e-23
-2.95859e-23
-8.34735e-24
1.60513e-22
-1.50562e-24
1.32422e-22
-3.15121e-24
2.24163e-23
-1.22403e-23
4.13882e-23
-6.78836e-24
9.03172e-23
-4.34346e-24
8.29853e-23
-1.69922e-23
1.71888e-23
-2.05794e-23
1.88908e-22
-1.61364e-23
5.64375e-23
-1.30752e-23
1.09917e-22
-1.98264e-23
8.75047e-23
-7.8624e-24
5.98101e-23
-2.43644e-24
1.60304e-22
-1.26581e-23
1.02257e-22
-2.0886e-23
-1.21533e-23
-1.20604e-23
5.56815e-23
-1.37079e-23
-1.48868e-24
-1.84973e-23
1.62491e-24
-1.35928e-23
1.86707e-23
-1.6229e-23
3.81413e-23
-2.8068e-23
7.92856e-23
-2.34108e-23
5.00238e-23
-2.02792e-23
1.28228e-22
-1.2904e-23
7.88994e-23
-2.00372e-23
1.02034e-22
-1.17186e-23
2.10428e-22
-8.83539e-24
6.93512e-23
-6.80562e-24
2.53868e-22
2.50781e-24
6.58451e-23
2.21923e-24
4.55558e-23
5.75701e-24
6.51858e-23
8.11052e-24
6.58317e-23
1.16154e-23
3.15046e-23
2.02757e-23
1.37724e-22
1.32714e-23
-1.21679e-23
1.34054e-23
2.79105e-23
1.31041e-23
6.14377e-23
6.45057e-24
5.57495e-23
2.04826e-24
-4.20295e-23
-3.08256e-24
2.1197e-23
2.87271e-24
2.30543e-22
-3.83049e-24
7.68041e-23
-5.80634e-24
1.24381e-22
-9.93494e-24
-1.7363e-23
4.1503e-23
-1.2377e-23
-4.46231e-23
-7.64107e-24
2.3593e-22
-2.20801e-24
5.41811e-23
-1.7885e-24
2.80966e-23
-1.12389e-23
2.75861e-23
-6.94713e-24
1.00059e-22
-4.08051e-24
1.64775e-22
-1.56752e-23
-1.99748e-23
-2.10638e-23
1.59743e-22
-1.57379e-23
2.32842e-23
-1.2414e-23
7.21848e-23
-1.95345e-23
9.36985e-23
-7.26607e-24
6.39819e-23
-2.38881e-24
1.40075e-22
-1.32428e-23
7.00803e-23
-2.05897e-23
-1.87564e-23
-1.19124e-23
1.13378e-22
-1.37011e-23
1.13737e-23
-1.76804e-23
4.14879e-23
-1.35301e-23
1.80263e-23
-1.54178e-23
4.70942e-23
-2.84739e-23
1.47146e-23
-2.25671e-23
-4.13278e-23
-2.06262e-23
4.71618e-23
-1.24405e-23
7.11694e-23
-1.9629e-23
3.57622e-23
-1.19832e-23
1.5664e-22
-7.86649e-24
6.02022e-23
-7.95618e-24
1.66346e-22
1.99091e-24
1.12855e-22
2.41714e-24
4.13975e-23
6.00557e-24
6.50465e-23
7.22056e-24
1.14049e-22
1.19407e-23
3.22006e-23
1.90795e-23
1.36006e-22
1.39328e-23
-4.9986e-23
1.45108e-23
1.18242e-23
1.32274e-23
7.8666e-23
5.43815e-24
5.87903e-23
2.64525e-24
3.73565e-23
-2.45388e-24
-5.42289e-23
2.43085e-24
2.17526e-22
-5.39599e-24
7.41217e-23
-6.38982e-24
1.65976e-22
-1.09552e-23
-1.1809e-23
3.05933e-23
-1.05831e-23
3.86509e-24
-8.52713e-24
2.31754e-22
-1.54346e-24
1.34751e-22
-1.19159e-24
3.34479e-23
-1.04813e-23
3.8173e-23
-5.58187e-24
9.16004e-23
-5.99916e-24
1.65082e-22
-1.41006e-23
-1.75991e-23
-2.12118e-23
1.64529e-22
-1.60199e-23
2.90701e-23
-1.18028e-23
6.9814e-23
-1.93198e-23
1.07738e-22
-7.20245e-24
1.25309e-22
-2.49325e-24
1.35744e-22
-1.36043e-23
6.71711e-23
-1.94287e-23
-1.49271e-23
-1.24848e-23
6.27664e-23
-1.31135e-23
5.39242e-23
-1.76501e-23
-2.93399e-23
-1.29933e-23
5.20162e-23
-1.54232e-23
8.19319e-23
-2.90356e-23
6.91544e-23
-2.17749e-23
2.97504e-23
-1.99635e-23
8.47713e-23
-1.27106e-23
7.08811e-23
-1.91415e-23
4.37494e-23
-1.15615e-23
1.62717e-22
-7.95227e-24
1.5513e-23
-7.116e-24
1.61742e-22
6.78331e-25
1.06896e-22
3.64507e-24
1.05829e-22
5.1964e-24
6.3165e-23
7.8918e-24
1.13208e-22
1.18438e-23
3.07926e-23
1.81812e-23
1.29341e-22
1.40805e-23
-5.02372e-23
1.50495e-23
7.55328e-23
1.3213e-23
1.5811e-23
5.66909e-24
-1.85501e-23
1.80218e-24
-1.3227e-24
-4.86944e-25
1.318e-23
2.52349e-24
2.07602e-22
-4.96477e-24
3.02125e-23
-7.20421e-24
1.52515e-22
-1.07388e-23
-8.88347e-24
2.14376e-23
-9.68188e-24
6.33849e-23
-8.60139e-24
2.25139e-22
-2.26604e-24
1.31234e-22
-4.38461e-25
3.40898e-23
-9.53019e-24
4.15485e-25
-5.52289e-24
8.13568e-23
-6.16653e-24
1.68232e-22
-1.34348e-23
-1.92024e-23
-2.18114e-23
8.95714e-23
-1.5808e-23
7.33993e-23
-1.14133e-23
1.21725e-22
-1.85826e-23
5.67288e-23
-7.64355e-24
1.14338e-22
-2.42651e-24
1.35164e-22
-1.37666e-23
2.61832e-23
-1.87977e-23
-1.01983e-23
-1.23377e-23
2.5839e-23
-1.3723e-23
5.90846e-23
-1.65744e-23
-2.6612e-23
-1.26314e-23
4.96166e-23
-1.54532e-23
4.28849e-23
-2.90205e-23
3.47486e-24
-2.14573e-23
4.16615e-23
-1.94522e-23
9.39575e-23
-1.26517e-23
6.95754e-23
-1.88454e-23
7.87337e-23
-1.17812e-23
1.40382e-22
-7.29918e-24
1.02519e-24
-7.40642e-24
1.49127e-22
8.28215e-25
1.08696e-22
3.44296e-24
1.34151e-22
5.88091e-24
6.02559e-23
7.61593e-24
1.25797e-22
1.19243e-23
7.00462e-23
1.74194e-23
1.16717e-22
1.46981e-23
-5.58239e-23
1.53606e-23
8.84454e-23
1.31426e-23
2.21815e-23
5.49702e-24
-1.46676e-23
2.04615e-24
8.2933e-25
9.78312e-25
8.68666e-24
2.1042e-24
1.20848e-22
-5.77625e-24
-4.97909e-23
-6.92589e-24
1.56293e-22
-1.23626e-23
-4.60331e-23
7.3405e-23
-1.98296e-23
1.8143e-22
-8.29047e-24
6.44168e-23
-8.69048e-24
2.20676e-22
-2.77077e-24
1.22146e-22
3.55676e-26
3.51583e-23
-8.69986e-24
4.44162e-24
-3.50537e-24
6.94226e-23
-6.75181e-24
1.1015e-22
-1.31508e-23
-2.17947e-23
-2.11848e-23
9.75952e-23
-1.56358e-23
7.91977e-23
-1.10369e-23
1.47516e-22
-1.70379e-23
1.13858e-22
-7.64619e-24
1.12141e-22
-2.45678e-24
1.30735e-22
-1.41857e-23
-1.2485e-23
-1.84132e-23
-9.1695e-24
-1.17364e-23
1.49769e-23
-1.43314e-23
6.63541e-23
-1.56842e-23
3.72252e-23
-1.24759e-23
7.18361e-23
-1.58243e-23
5.2711e-23
-2.78661e-23
-4.29927e-23
-2.15946e-23
4.6148e-23
-1.92353e-23
9.72502e-23
-1.24157e-23
6.52633e-23
-1.84312e-23
2.63398e-23
-1.25017e-23
1.41567e-22
-6.54465e-24
6.05303e-23
-7.34011e-24
1.40806e-22
-6.12852e-27
1.14816e-22
3.13683e-24
1.18657e-22
5.73492e-24
4.1976e-23
7.92076e-24
1.86215e-22
1.117e-23
7.32929e-23
1.69024e-23
1.73022e-22
1.53599e-23
-5.98939e-23
1.41277e-23
8.14813e-23
1.31088e-23
2.40079e-23
5.48603e-24
-1.11771e-23
2.33052e-24
4.61816e-24
6.28013e-25
5.11364e-24
2.74089e-24
7.75671e-23
-5.37148e-24
-5.28584e-23
-7.48791e-24
2.33431e-22
-1.20309e-23
-4.04464e-23
1.24577e-22
-1.92545e-23
1.75286e-22
-8.10413e-24
1.44386e-22
-9.03276e-24
2.15685e-22
-3.45965e-24
1.14042e-22
4.34273e-25
7.34758e-23
-8.01264e-24
-3.41309e-23
-3.47791e-24
1.40562e-22
-5.92478e-24
1.1724e-22
-1.32822e-23
-2.04129e-23
-1.96984e-23
1.06659e-22
-1.58637e-23
8.19681e-23
-1.04557e-23
1.92041e-22
-1.70624e-23
8.94328e-23
-8.06e-24
1.11955e-22
-3.14151e-24
1.22848e-22
-1.43412e-23
-2.77887e-23
-1.80014e-23
5.10547e-23
-1.10596e-23
3.29247e-24
-1.38982e-23
7.02214e-23
-1.55602e-23
1.10073e-23
-1.22799e-23
9.29418e-23
-1.70216e-23
-2.24371e-24
-2.60067e-23
-3.55854e-23
-2.17412e-23
-1.86402e-23
-1.88651e-23
1.11845e-22
-1.30103e-23
6.36776e-23
-1.74497e-23
3.11037e-23
-1.2731e-23
5.33021e-23
-6.17494e-24
8.00438e-23
-6.5283e-24
1.34165e-22
-1.6068e-25
1.05597e-22
3.63509e-24
1.12985e-22
5.81553e-24
3.2528e-24
7.88272e-24
1.87024e-22
1.04141e-23
7.77367e-23
1.60407e-23
1.59643e-22
1.56786e-23
-5.1303e-23
1.37577e-23
3.31461e-23
1.34643e-23
2.0702e-23
5.15014e-24
-1.10777e-23
3.21655e-24
6.31406e-24
4.62808e-25
4.27592e-24
2.70396e-24
1.40711e-22
-4.1324e-24
-5.26509e-23
-7.94112e-24
1.71976e-22
-1.27075e-23
-7.61508e-23
1.33284e-22
-2.43403e-23
-9.55265e-23
-1.87064e-23
1.00422e-22
-7.67697e-24
1.28688e-22
-9.04882e-24
2.09663e-22
-3.77197e-24
1.73424e-22
1.08171e-24
1.42405e-22
-6.76219e-24
-2.66522e-23
-3.54714e-24
1.36827e-22
-6.92651e-24
8.04961e-23
-1.27825e-23
-2.09318e-23
-1.92037e-23
1.16323e-22
-1.56769e-23
9.41588e-23
-1.04579e-23
2.35796e-22
-1.67825e-23
3.48033e-23
-8.01017e-24
1.27947e-22
-3.7827e-24
7.91796e-23
-1.39668e-23
-3.06789e-23
-1.79973e-23
4.43604e-23
-1.03692e-23
5.61986e-23
-1.38912e-23
-5.56675e-24
-1.4945e-23
-1.21792e-23
-1.26854e-23
9.41184e-23
-1.7612e-23
6.20788e-24
-2.49899e-23
3.53964e-23
-2.12116e-23
-1.49419e-23
-1.87883e-23
1.11249e-22
-1.29408e-23
1.02577e-22
-1.76392e-23
3.43044e-23
-1.21059e-23
4.27487e-23
-5.93599e-24
6.18713e-23
-5.90185e-24
1.2912e-22
-1.26449e-24
1.01541e-22
4.41113e-24
1.71484e-22
6.12878e-24
-5.96754e-24
8.34556e-24
1.477e-22
1.06104e-23
7.84163e-23
1.53857e-23
1.41552e-22
1.59146e-23
1.9049e-23
1.35615e-23
-7.40867e-24
1.35707e-23
8.40023e-23
4.71016e-24
-8.66761e-24
3.01748e-24
4.9693e-24
1.20204e-24
1.87517e-24
2.48777e-24
1.36589e-22
-3.70414e-24
7.01894e-23
-8.88143e-24
1.68821e-22
-1.17298e-23
-7.18445e-23
1.14811e-22
-2.42423e-23
-8.72491e-23
-1.66521e-23
9.05743e-23
-7.3074e-24
9.90848e-23
-8.59944e-24
1.90055e-22
-3.85737e-24
8.83857e-23
1.28849e-24
9.55435e-23
-5.58978e-24
-2.18656e-23
-3.93051e-24
1.3441e-22
-6.70318e-24
4.26627e-23
-1.19182e-23
-1.76196e-23
-1.87445e-23
4.75278e-23
-1.43932e-23
9.8393e-23
-1.13085e-23
2.40826e-22
-1.67851e-23
2.51279e-23
-8.42939e-24
1.282e-22
-3.78331e-24
7.78133e-23
-1.37127e-23
-3.21511e-23
-1.74198e-23
4.0638e-23
-1.07718e-23
8.30899e-23
-1.33678e-23
-2.0435e-24
-1.43002e-23
-2.38964e-23
-1.29463e-23
6.25284e-23
-1.76963e-23
8.00817e-24
-2.46332e-23
3.24567e-23
-2.06208e-23
-1.03575e-23
-1.85152e-23
9.42436e-23
-1.32936e-23
1.01815e-22
-1.78686e-23
5.5641e-25
-1.14797e-23
2.56974e-23
-5.58914e-24
4.59542e-23
-5.40239e-24
1.24198e-22
-8.0775e-25
9.64302e-23
4.04086e-24
2.10237e-22
6.25632e-24
-4.85418e-24
8.13423e-24
1.43385e-22
1.02462e-23
1.16431e-22
1.47403e-23
1.65299e-22
1.55386e-23
4.19881e-23
1.45022e-23
1.07335e-23
1.29835e-23
8.75933e-23
4.52049e-24
5.98616e-23
2.74918e-24
8.16923e-23
1.78961e-24
6.8156e-23
2.56439e-24
1.32728e-22
-4.42467e-24
7.72572e-23
-9.58637e-24
1.69052e-22
-1.1742e-23
-3.13366e-23
8.7408e-23
-2.39109e-23
-7.96073e-23
-1.58835e-23
8.05467e-23
-6.85489e-24
8.68397e-23
-8.77383e-24
1.88333e-22
-4.17614e-24
1.43094e-22
1.78413e-24
8.54464e-23
-4.75221e-24
-9.16527e-23
-4.4112e-24
1.34875e-22
-6.23061e-24
4.17554e-23
-1.15658e-23
-8.7247e-23
-1.76922e-23
5.31873e-23
-1.35895e-23
9.96739e-23
-1.19707e-23
2.09085e-22
-1.58438e-23
3.27391e-23
-8.94246e-24
1.46544e-22
-3.48316e-24
6.05945e-23
-1.36994e-23
-2.01918e-23
-1.64987e-23
7.64722e-23
-1.14833e-23
7.71808e-23
-1.29463e-23
3.67715e-25
-1.39276e-23
-3.16536e-23
-1.25675e-23
6.73539e-23
-1.80026e-23
-3.49061e-23
-2.3991e-23
2.84389e-23
-2.01614e-23
3.23831e-23
-1.82317e-23
9.2361e-23
-1.39505e-23
1.21103e-22
-1.78135e-23
2.96674e-24
-1.12387e-23
7.21292e-23
-5.022e-24
3.44617e-23
-5.12073e-24
1.19975e-22
-1.40856e-24
5.30831e-23
3.5208e-24
2.1075e-22
6.43046e-24
-3.73776e-24
8.81217e-24
1.35343e-22
9.32124e-24
7.04812e-23
1.46071e-23
1.87057e-22
1.47195e-23
2.95626e-23
1.52752e-23
5.07962e-24
1.39522e-23
9.65359e-23
3.56955e-24
2.3485e-23
3.28897e-24
7.72899e-23
2.3346e-24
1.02545e-22
3.03145e-24
1.31193e-22
-5.00124e-24
9.04557e-23
-1.04323e-23
1.28775e-22
-1.28484e-23
3.35473e-23
1.30673e-22
-2.36826e-23
-1.09387e-22
-1.49099e-23
1.42572e-22
-6.0025e-24
7.07386e-23
-8.90684e-24
1.52031e-22
-4.43513e-24
1.52351e-22
2.2875e-24
1.41517e-22
-4.16294e-24
-8.7634e-23
-4.45193e-24
1.53755e-22
-6.66823e-24
2.84661e-23
-1.12476e-23
-1.19798e-22
-1.65374e-23
5.38604e-23
-1.33917e-23
1.15334e-22
-1.19146e-23
1.95398e-22
-1.62385e-23
4.178e-23
-9.12168e-24
1.09533e-22
-3.44083e-24
5.43959e-23
-1.32272e-23
-1.9114e-23
-1.62407e-23
1.13314e-22
-1.16628e-23
7.30322e-23
-1.27857e-23
2.18343e-24
-1.36698e-23
-3.90751e-23
-1.24285e-23
7.12249e-23
-1.81147e-23
-3.52119e-23
-2.29587e-23
4.18061e-23
-2.0065e-23
3.35108e-23
-1.79897e-23
9.00615e-23
-1.45902e-23
1.29187e-22
-1.73661e-23
5.8941e-24
-1.13391e-23
1.92218e-23
-4.07463e-24
8.76628e-23
-5.21315e-24
1.16594e-22
-1.05936e-24
1.12816e-22
2.77906e-24
2.12373e-22
6.79023e-24
-4.25832e-24
1.0115e-23
1.27372e-22
8.8282e-24
7.38482e-23
1.38513e-23
2.37097e-22
1.53019e-23
9.50848e-23
1.52198e-23
-1.25404e-23
1.37727e-23
6.10468e-23
4.2281e-24
-1.51947e-23
3.43058e-24
7.58993e-23
2.18017e-24
1.33996e-22
3.49304e-24
1.29632e-22
-5.8876e-24
3.00252e-23
-1.02101e-23
1.24849e-22
-1.29407e-23
7.28463e-23
1.11325e-22
-2.32963e-23
-6.57247e-23
-1.42723e-23
2.49764e-22
-5.15023e-24
5.2827e-23
-8.42964e-24
1.52997e-22
-4.31851e-24
7.33891e-23
1.57125e-24
6.13365e-23
-3.73631e-24
-1.19257e-22
-3.90208e-24
1.57101e-22
-7.39167e-24
-4.02024e-23
-9.88474e-24
-1.60544e-22
-1.56023e-23
9.24596e-23
-1.26998e-23
1.11234e-22
-1.23159e-23
1.05833e-22
-1.63597e-23
-8.40963e-24
-9.57607e-24
4.61085e-23
-3.18404e-24
4.6214e-23
-1.24966e-23
-1.71813e-23
-1.6156e-23
9.65202e-23
-1.19185e-23
6.77366e-23
-1.26671e-23
5.01237e-24
-1.33422e-23
-4.70464e-23
-1.23267e-23
7.20701e-23
-1.80904e-23
-6.43266e-23
-2.203e-23
5.1979e-23
-1.98661e-23
3.49716e-23
-1.78595e-23
5.65955e-23
-1.48313e-23
1.34183e-22
-1.77962e-23
7.18229e-24
-1.01752e-23
7.37284e-23
-4.29648e-24
7.86973e-23
-4.11967e-24
1.13211e-22
-1.3275e-24
1.05739e-22
2.59234e-24
2.48378e-22
6.43578e-24
7.26883e-23
1.0769e-23
1.55328e-22
8.71381e-24
5.18646e-24
1.27253e-23
2.89531e-22
1.50767e-23
1.28881e-22
1.55859e-23
-1.31693e-23
1.46228e-23
1.07263e-22
3.80894e-24
-8.63831e-23
3.69867e-24
1.2087e-22
2.18295e-24
1.32155e-22
3.01546e-24
1.27932e-22
-5.6192e-24
-5.13313e-23
-1.01976e-23
1.23638e-22
-1.32235e-23
6.05849e-23
8.61334e-23
-2.84294e-23
3.57552e-23
-2.15116e-23
2.58978e-23
-1.51793e-23
2.45309e-22
-4.20708e-24
1.29138e-22
-8.58347e-24
1.15988e-22
-4.98352e-24
7.22799e-23
2.22064e-24
9.03023e-23
-2.1631e-24
-1.20542e-22
-4.34747e-24
1.74856e-22
-8.00619e-24
-3.91532e-23
-8.22376e-24
-1.00554e-22
-1.56888e-23
9.5719e-23
-1.27885e-23
1.59109e-22
-1.21138e-23
1.16353e-22
-1.68965e-23
-6.05905e-23
-9.16345e-24
4.8622e-23
-2.8102e-24
4.50901e-25
-1.17878e-23
-1.18158e-23
-1.63526e-23
9.51753e-23
-1.20629e-23
6.38337e-23
-1.27092e-23
-2.96859e-23
-1.29038e-23
-5.02931e-23
-1.23962e-23
8.49431e-23
-1.78326e-23
-5.76274e-23
-2.13793e-23
5.70372e-23
-1.96196e-23
3.76346e-23
-1.7675e-23
6.23928e-23
-1.52035e-23
1.52063e-22
-1.73279e-23
-3.49323e-23
-1.00512e-23
6.30692e-23
-3.83616e-24
6.73021e-23
-3.71762e-24
1.1251e-22
-1.18929e-24
9.76465e-23
2.46952e-24
2.47264e-22
6.38053e-24
4.51593e-23
1.00025e-23
1.28585e-22
1.05491e-23
9.20623e-24
1.24411e-23
2.76929e-22
1.34323e-23
1.23369e-22
1.58143e-23
-7.925e-23
1.41338e-23
1.08879e-22
4.64001e-24
-8.34812e-23
4.64458e-24
1.16668e-22
1.58838e-24
1.76797e-22
2.26653e-24
5.11335e-23
-4.87397e-24
-3.90823e-23
-1.02255e-23
-1.4352e-23
-1.34955e-23
6.34866e-23
7.15563e-23
-2.00277e-23
1.48479e-23
-2.75537e-23
9.59081e-23
-2.12479e-23
2.94682e-23
-1.52156e-23
2.47019e-22
-4.20307e-24
1.79273e-22
-8.73714e-24
8.35111e-23
-4.58671e-24
7.23404e-23
2.61877e-24
8.13136e-23
-1.53863e-24
-1.24612e-22
-4.17335e-24
1.80247e-22
-8.19531e-24
-6.87034e-23
-7.29141e-24
-3.54914e-23
-1.50339e-23
2.60132e-23
-1.34655e-23
1.15515e-22
-1.20204e-23
1.29568e-22
-1.69061e-23
-4.63774e-23
-8.75748e-24
5.1745e-23
-1.9951e-24
-7.6219e-24
-1.14458e-23
-3.49271e-24
-1.6008e-23
9.42486e-23
-1.25847e-23
6.36217e-23
-1.23691e-23
7.55305e-24
-1.2494e-23
-1.83321e-23
-1.2453e-23
8.5817e-23
-1.7621e-23
-4.71306e-23
-2.07514e-23
5.90902e-23
-1.95149e-23
3.98779e-23
-1.7217e-23
3.04241e-23
-1.61349e-23
8.76779e-23
-1.69007e-23
-3.77072e-23
-9.78113e-24
3.97267e-23
-3.89917e-24
6.10054e-23
-2.83387e-24
1.11907e-22
-1.42189e-24
9.47014e-23
2.09611e-24
2.02592e-22
6.12867e-24
4.94279e-23
1.01518e-23
1.22045e-22
1.15233e-23
8.3269e-23
1.13651e-23
1.92867e-22
1.2808e-23
1.16846e-22
1.60707e-23
-9.75525e-23
1.41549e-23
1.13298e-22
4.96147e-24
-7.86029e-23
5.41254e-24
7.3755e-23
6.41345e-25
1.80438e-22
1.92488e-24
1.28145e-23
-5.31979e-24
-1.70839e-23
-9.1785e-24
1.62838e-24
-1.39548e-23
2.49859e-23
3.72307e-25
-1.96903e-23
-5.19575e-23
-2.73128e-23
1.36079e-23
-2.1269e-23
2.84508e-23
-1.451e-23
2.39877e-22
-4.87941e-24
1.64327e-22
-8.42563e-24
9.44752e-23
-4.74159e-24
1.38198e-22
3.08314e-24
1.50229e-22
-1.50013e-24
-1.26815e-22
-4.40665e-24
1.81344e-22
-7.52473e-24
-6.54378e-23
-7.21972e-24
-3.08657e-23
-1.39015e-23
3.311e-23
-1.40378e-23
5.13793e-23
-1.23723e-23
1.11997e-22
-1.7054e-23
-3.04027e-23
-8.68373e-24
1.23989e-22
-1.36424e-24
-2.99811e-23
-1.09128e-23
7.67862e-24
-1.59815e-23
9.13744e-23
-1.2866e-23
2.83881e-23
-1.20142e-23
8.48223e-24
-1.23979e-23
-3.85488e-23
-1.22128e-23
8.36733e-23
-1.75344e-23
-7.08875e-23
-2.01949e-23
6.06604e-23
-1.95048e-23
4.331e-23
-1.71693e-23
3.20402e-23
-1.63804e-23
5.17417e-23
-1.65058e-23
-4.39657e-23
-9.88244e-24
3.08775e-23
-3.16463e-24
7.87785e-23
-2.4387e-24
9.13256e-23
-1.22844e-24
5.62029e-23
1.698e-24
1.34273e-22
6.3617e-24
8.08933e-23
1.0612e-23
1.00418e-22
1.16533e-23
1.48074e-22
1.06382e-23
1.79049e-22
1.23329e-23
1.95676e-22
1.6414e-23
-9.97333e-23
1.4899e-23
1.17056e-22
5.46286e-24
2.96153e-24
6.1585e-24
6.79034e-23
-8.54442e-25
1.13256e-22
1.77047e-24
5.40423e-23
-5.47697e-24
-7.08217e-23
-8.56561e-24
4.08238e-24
-1.4074e-23
-9.13055e-24
6.8707e-23
-1.90518e-23
-4.50188e-23
1.79681e-23
-2.70824e-23
-6.94864e-23
-2.0921e-23
-1.71585e-23
-1.40106e-23
3.06078e-22
-5.42889e-24
1.13155e-22
-8.30589e-24
1.07937e-22
-5.0486e-24
1.00274e-22
3.61566e-24
1.76721e-22
-4.48831e-25
-1.64733e-22
-4.77788e-24
1.822e-22
-7.35831e-24
-4.4747e-23
-6.69601e-24
-2.64767e-23
-1.31069e-23
3.88135e-23
-1.33167e-23
5.07427e-23
-1.27944e-23
1.21171e-22
-1.61636e-23
-3.90943e-23
-9.36987e-24
5.77159e-23
-5.27661e-25
3.70756e-23
-1.03165e-23
1.98563e-23
-1.60667e-23
8.78131e-23
-1.28789e-23
2.75307e-23
-1.17372e-23
8.17071e-24
-1.2243e-23
-4.13505e-23
-1.22176e-23
7.24865e-23
-1.72548e-23
-5.92295e-23
-1.97292e-23
6.37313e-23
-1.94396e-23
4.36654e-23
-1.74939e-23
3.20578e-23
-1.64137e-23
5.53028e-23
-1.63798e-23
-5.46961e-23
-9.35934e-24
1.73252e-23
-2.72161e-24
7.77338e-23
-2.61075e-24
4.92502e-23
-1.34881e-24
1.36389e-22
1.93045e-24
1.16353e-22
5.4413e-24
9.47762e-23
1.11618e-23
7.47797e-23
1.16506e-23
1.48851e-22
1.00751e-23
1.79187e-22
1.17637e-23
1.88107e-22
1.66427e-23
-1.03791e-22
1.51207e-23
1.55835e-22
4.9672e-24
-4.9429e-23
7.1221e-24
9.96659e-23
-9.66387e-25
1.0809e-22
1.0192e-24
1.14938e-22
-5.035e-24
-1.26829e-22
-8.61298e-24
-8.20173e-24
-1.44169e-23
6.53637e-23
1.44119e-22
-1.91793e-23
-7.38746e-23
1.86769e-23
-2.65483e-23
-5.02685e-23
-1.97334e-23
-2.71193e-23
-1.46586e-23
2.98895e-22
-4.76892e-24
1.66199e-22
-8.0758e-24
5.63775e-23
-4.79976e-24
9.84108e-23
3.34931e-24
2.00934e-22
1.10074e-26
-1.57931e-22
-3.98718e-24
1.1069e-22
-7.34754e-24
-1.01122e-22