/*--------------------------------*- C++ -*----------------------------------*\
  =========                 |
  \\      /  F ield         | OpenFOAM: The Open Source CFD Toolbox
   \\    /   O peration     | Website:  https://openfoam.org
    \\  /    A nd           | Version:  7
     \\/     M anipulation  |
\*---------------------------------------------------------------------------*/
FoamFile
{
    version     2.0;
    format      ascii;
    class       volScalarField;
    location    "64000";
    object      nu;
}
// * * * * * * * * * * * * * * * * * * * * * * * * * * * * * * * * * * * * * //

dimensions      [0 2 -1 0 0 0 0];

internalField   nonuniform List<scalar> 
4783
(
0.001
0.001
0.001
0.001
0.001
0.001
0.001
0.001
0.001
0.001
0.001
0.001
0.001
0.001
0.001
0.001
0.001
0.001
0.001
0.001
0.001
0.001
0.001
0.001
0.001
0.001
0.001
0.001
0.001
0.001
0.001
0.001
0.001
0.001
0.001
0.001
0.001
0.001
0.001
0.001
0.001
0.001
0.001
0.001
0.001
0.001
0.001
0.001
0.001
0.001
0.001
0.001
0.001
0.001
0.001
0.001
0.001
0.001
0.001
0.001
0.001
0.001
0.001
0.001
0.001
0.001
0.001
0.001
0.001
0.001
0.001
0.001
0.001
0.001
0.001
0.001
0.001
0.001
0.001
0.001
0.001
0.001
0.001
0.001
0.001
0.001
0.001
0.001
0.001
0.001
0.001
0.001
0.001
0.001
0.001
0.001
0.001
0.001
0.001
0.001
0.001
0.001
0.001
0.001
0.001
0.001
0.001
0.001
0.001
0.001
0.001
0.001
0.001
0.001
0.001
0.001
0.001
0.001
0.001
0.001
0.001
0.001
0.001
0.001
0.001
0.001
0.001
0.001
0.001
0.001
0.001
0.001
0.001
0.001
0.001
0.001
0.001
0.001
0.001
0.001
0.001
0.001
0.001
0.001
0.001
0.001
0.001
0.001
0.001
0.001
0.001
0.001
0.001
0.001
0.001
0.001
0.001
0.001
0.001
0.001
0.001
0.001
0.001
0.001
0.001
0.001
0.001
0.001
0.001
0.001
0.001
0.001
0.001
0.001
0.001
0.001
0.001
0.001
0.001
0.001
0.001
0.001
0.001
0.001
0.001
0.001
0.001
0.001
0.001
0.001
0.001
0.001
0.001
0.001
0.001
0.001
0.001
0.001
0.001
0.001
0.001
0.001
0.001
0.001
0.001
0.001
0.001
0.001
0.001
0.001
0.001
0.001
0.001
0.001
0.001
0.001
0.001
0.001
0.001
0.001
0.001
0.001
0.001
0.001
0.001
0.001
0.001
0.001
0.001
0.001
0.001
0.001
0.001
0.001
0.001
0.001
0.001
0.001
0.001
0.001
0.001
0.001
0.001
0.001
0.001
0.001
0.001
0.001
0.001
0.001
0.001
0.001
0.001
0.001
0.001
0.001
0.001
0.001
0.001
0.001
0.001
0.001
0.001
0.001
0.001
0.001
0.001
0.001
0.001
0.001
0.001
0.001
0.001
0.001
0.001
0.001
0.001
0.001
0.001
0.001
0.001
0.001
0.001
0.001
0.001
0.001
0.001
0.001
0.001
0.001
0.001
0.001
0.001
0.001
0.001
0.001
0.001
0.001
0.001
0.001
0.001
0.001
0.001
0.001
0.001
0.001
0.001
0.001
0.001
0.001
0.001
0.001
0.001
0.001
0.001
0.001
0.001
0.001
0.001
0.001
0.001
0.001
0.001
0.001
0.001
0.001
0.001
0.001
0.001
0.001
0.001
0.001
0.001
0.001
0.001
0.001
0.001
0.001
0.001
0.001
0.001
0.001
0.001
0.001
0.001
0.001
0.001
0.001
0.001
0.001
0.001
0.001
0.001
0.001
0.001
0.001
0.001
0.001
0.001
0.001
0.001
0.001
0.001
0.001
0.001
0.001
0.001
0.001
0.001
0.001
0.001
0.001
0.001
0.001
0.001
0.001
0.001
0.001
0.001
0.001
0.001
0.001
0.001
0.001
0.001
0.001
0.001
0.001
0.001
0.001
0.001
0.001
0.001
0.001
0.001
0.001
0.001
0.001
0.001
0.001
0.001
0.001
0.001
0.001
0.001
0.001
0.001
0.001
0.001
0.001
0.001
0.001
0.001
0.001
0.001
0.001
0.001
0.001
0.001
0.001
0.001
0.001
0.001
0.001
0.001
0.001
0.001
0.001
0.001
0.001
0.001
0.001
0.001
0.001
0.001
0.001
0.001
0.001
0.001
0.001
0.001
0.001
0.001
0.001
0.001
0.001
0.001
0.001
0.001
0.001
0.001
0.001
0.000845902
0.001
0.001
0.000474471
0.00069613
0.000902484
0.000212294
0.000336669
0.00050923
9.61053e-05
0.000145079
0.000222737
5.09911e-05
6.95328e-05
9.84938e-05
3.24992e-05
4.02867e-05
5.15698e-05
2.39214e-05
2.7701e-05
3.26992e-05
1.9345e-05
2.14662e-05
2.40341e-05
1.6566e-05
1.79133e-05
1.9428e-05
1.46946e-05
1.56337e-05
1.66319e-05
1.33373e-05
1.40357e-05
1.47481e-05
1.23008e-05
1.28442e-05
1.33814e-05
1.14796e-05
1.19166e-05
1.23378e-05
0.001
0.001
0.001
0.001
0.001
0.001
0.001
0.001
0.001
0.001
0.001
0.001
0.001
0.001
0.001
0.001
0.001
0.001
0.001
0.001
0.001
0.001
0.001
0.001
0.001
0.001
0.001
0.001
0.001
0.000851639
0.0004767
0.00021265
9.613e-05
5.0986e-05
3.24959e-05
2.39203e-05
1.93447e-05
1.6566e-05
1.46948e-05
1.33376e-05
1.23011e-05
1.14798e-05
0.001
0.001
0.001
0.001
0.001
0.001
0.001
0.001
0.001
0.001
0.001
0.001
0.001
0.001
0.001
0.001
0.001
0.001
0.001
0.001
0.001
0.001
0.001
0.001
0.001
0.001
0.001
0.001
0.001
0.001
0.000694863
0.000335971
0.000144833
6.94535e-05
4.02598e-05
2.76911e-05
2.14622e-05
1.79115e-05
1.56329e-05
1.40354e-05
1.28442e-05
1.19165e-05
0.001
0.001
0.001
0.001
0.001
0.001
0.001
0.001
0.001
0.001
0.001
0.001
0.001
0.001
0.001
0.001
0.001
0.001
0.001
0.001
0.001
0.001
0.001
0.001
0.001
0.001
0.001
0.001
0.001
0.001
0.000898435
0.000506857
0.000221914
9.82515e-05
5.1496e-05
3.26743e-05
2.40246e-05
1.94239e-05
1.663e-05
1.47472e-05
1.33811e-05
1.23377e-05
0.001
0.001
0.001
0.001
0.001
0.001
0.001
0.001
0.001
0.001
0.001
0.001
0.001
0.001
0.001
0.001
0.001
0.001
0.001
0.001
0.001
0.001
0.001
0.001
0.001
0.001
0.001
0.001
0.001
0.001
0.001
0.000704833
0.000338608
0.000144178
6.86615e-05
3.97661e-05
2.74051e-05
2.12897e-05
1.77989e-05
1.55528e-05
1.39743e-05
1.2795e-05
0.001
0.001
0.001
0.001
0.001
0.001
0.001
0.001
0.001
0.001
0.001
0.001
0.001
0.001
0.001
0.001
0.001
0.001
0.001
0.001
0.001
0.001
0.001
0.001
0.001
0.001
0.001
0.001
0.001
0.001
0.001
0.000890663
0.000497168
0.000215479
9.51379e-05
5.00645e-05
3.19684e-05
2.36384e-05
1.91886e-05
1.64718e-05
1.46322e-05
1.32924e-05
0.001
0.001
0.001
0.001
0.001
0.001
0.001
0.001
0.001
0.001
0.001
0.001
0.001
0.001
0.001
0.001
0.001
0.001
0.001
0.001
0.001
0.001
0.001
0.001
0.001
0.001
0.001
0.001
0.001
0.001
0.001
0.001
0.000679437
0.000319882
0.000135748
6.52202e-05
3.82542e-05
2.66543e-05
2.08653e-05
1.75295e-05
1.53651e-05
1.38343e-05
0.001
0.001
0.001
0.001
0.001
0.001
0.001
0.001
0.001
0.001
0.001
0.001
0.001
0.001
0.001
0.001
0.001
0.001
0.001
0.001
0.001
0.001
0.001
0.001
0.001
0.001
0.001
0.001
0.001
0.001
0.001
0.001
0.000853095
0.000459622
0.000196567
8.76481e-05
4.70369e-05
3.05906e-05
2.29171e-05
1.87577e-05
1.61848e-05
1.44251e-05
0.001
0.001
0.001
0.001
0.001
0.001
0.001
0.001
0.001
0.001
0.001
0.001
0.001
0.001
0.001
0.001
0.001
0.001
0.001
0.001
0.001
0.001
0.001
0.001
0.001
0.001
0.001
0.001
0.001
0.001
0.001
0.001
0.000995146
0.000624046
0.000283154
0.00012061
5.94031e-05
3.57961e-05
2.5461e-05
2.01973e-05
1.7106e-05
1.50699e-05
0.001
0.001
0.001
0.001
0.001
0.001
0.001
0.001
0.001
0.001
0.001
0.001
0.001
0.001
0.001
0.001
0.001
0.001
0.001
0.001
0.001
0.001
0.001
0.001
0.001
0.001
0.001
0.001
0.001
0.001
0.001
0.001
0.001
0.000783108
0.000397961
0.000168119
7.68611e-05
4.27514e-05
2.86512e-05
2.18998e-05
1.81461e-05
1.57748e-05
0.001
0.001
0.001
0.001
0.001
0.001
0.001
0.001
0.001
0.001
0.001
0.001
0.001
0.001
0.001
0.001
0.001
0.001
0.001
0.001
0.001
0.001
0.001
0.001
0.001
0.001
0.001
0.001
0.001
0.001
0.001
0.001
0.001
0.000922745
0.000535069
0.000233783
0.000101295
5.20574e-05
3.2675e-05
2.3926e-05
1.93248e-05
1.65454e-05
0.001
0.001
0.001
0.001
0.001
0.001
0.001
0.001
0.001
0.001
0.001
0.001
0.001
0.001
0.001
0.001
0.001
0.001
0.001
0.001
0.001
0.001
0.001
0.001
0.001
0.001
0.001
0.001
0.001
0.001
0.001
0.001
0.001
0.001
0.000679478
0.000319681
0.00013486
6.44743e-05
3.77724e-05
2.63504e-05
2.06645e-05
1.73874e-05
0.001
0.001
0.001
0.001
0.001
0.001
0.001
0.001
0.001
0.001
0.001
0.001
0.001
0.001
0.001
0.001
0.001
0.001
0.001
0.001
0.001
0.001
0.001
0.001
0.001
0.001
0.001
0.001
0.001
0.001
0.001
0.001
0.001
0.001
0.000812936
0.000424553
0.000179704
8.08994e-05
4.42136e-05
2.92526e-05
2.21883e-05
1.83065e-05
1.58751e-05
0.001
0.001
0.001
0.001
0.001
0.001
0.001
0.001
0.001
0.001
0.001
0.001
0.001
0.001
0.001
0.001
0.001
0.001
0.001
0.001
0.001
0.001
0.001
0.001
0.001
0.001
0.001
0.001
0.001
0.001
0.001
0.001
0.001
0.001
0.000929173
0.000542373
0.000237131
0.000102265
5.2288e-05
3.27139e-05
2.39179e-05
1.93068e-05
1.65264e-05
1.46574e-05
0.001
0.001
0.001
0.001
0.001
0.001
0.001
0.001
0.001
0.001
0.001
0.001
0.001
0.001
0.001
0.001
0.001
0.001
0.001
0.001
0.001
0.001
0.001
0.001
0.001
0.001
0.001
0.001
0.001
0.001
0.001
0.001
0.001
0.001
0.001
0.000661817
0.000306963
0.000129357
6.22853e-05
3.68189e-05
2.58739e-05
2.03905e-05
1.72095e-05
1.5131e-05
0.001
0.001
0.001
0.001
0.001
0.001
0.001
0.001
0.001
0.001
0.001
0.001
0.001
0.001
0.001
0.001
0.001
0.001
0.001
0.001
0.001
0.001
0.001
0.001
0.001
0.001
0.001
0.001
0.001
0.001
0.001
0.001
0.001
0.001
0.001
0.000769594
0.000387158
0.000162695
7.44522e-05
4.16279e-05
2.80655e-05
2.15551e-05
1.79194e-05
1.56117e-05
1.40023e-05
0.001
0.001
0.001
0.001
0.001
0.001
0.001
0.001
0.001
0.001
0.001
0.001
0.001
0.001
0.001
0.001
0.001
0.001
0.001
0.001
0.001
0.001
0.001
0.001
0.001
0.001
0.001
0.001
0.001
0.001
0.001
0.001
0.001
0.001
0.001
0.000865809
0.000473794
0.000202102
8.88924e-05
4.71552e-05
3.04846e-05
2.2791e-05
1.86485e-05
1.60938e-05
1.43479e-05
0.001
0.001
0.001
0.001
0.001
0.001
0.001
0.001
0.001
0.001
0.001
0.001
0.001
0.001
0.001
0.001
0.001
0.001
0.001
0.001
0.001
0.001
0.001
0.001
0.001
0.001
0.001
0.001
0.001
0.001
0.001
0.001
0.001
0.001
0.001
0.000948358
0.000562322
0.000246714
0.000105533
5.33662e-05
3.31069e-05
2.40828e-05
1.93869e-05
1.65705e-05
1.46839e-05
1.33186e-05
0.001
0.001
0.001
0.001
0.001
0.001
0.001
0.001
0.001
0.001
0.001
0.001
0.001
0.001
0.001
0.001
0.001
0.001
0.001
0.001
0.001
0.001
0.001
0.001
0.001
0.001
0.001
0.001
0.001
0.001
0.001
0.001
0.001
0.001
0.001
0.001
0.000645034
0.000294567
0.000123988
6.01542e-05
3.58908e-05
2.54093e-05
2.01223e-05
1.70343e-05
1.50055e-05
1.35566e-05
1.24614e-05
0.001
0.001
0.001
0.001
0.001
0.001
0.001
0.001
0.001
0.001
0.001
0.001
0.001
0.001
0.001
0.001
0.001
0.001
0.001
0.001
0.001
0.001
0.001
0.001
0.001
0.001
0.001
0.001
0.001
0.001
0.001
0.001
0.001
0.001
0.001
0.001
0.000714411
0.000343188
0.000143648
6.73302e-05
3.87605e-05
2.67361e-05
2.08373e-05
1.74753e-05
1.53066e-05
1.37772e-05
1.2631e-05
0.001
0.001
0.001
0.001
0.001
0.001
0.001
0.001
0.001
0.001
0.001
0.001
0.001
0.001
0.001
0.001
0.001
0.001
0.001
0.001
0.001
0.001
0.001
0.001
0.001
0.001
0.001
0.001
0.001
0.001
0.001
0.001
0.001
0.001
0.001
0.001
0.00077344
0.000389987
0.000163567
7.45921e-05
4.16041e-05
2.80176e-05
2.1511e-05
1.78825e-05
1.55809e-05
1.39763e-05
1.2783e-05
0.001
0.001
0.001
0.001
0.001
0.001
0.001
0.001
0.001
0.001
0.001
0.001
0.001
0.001
0.001
0.001
0.001
0.001
0.001
0.001
0.001
0.001
0.001
0.001
0.001
0.001
0.001
0.001
0.001
0.001
0.001
0.001
0.001
0.001
0.001
0.001
0.000823152
0.000433087
0.000182733
8.15815e-05
4.4292e-05
2.92026e-05
2.21212e-05
1.8245e-05
1.58217e-05
1.41494e-05
1.29142e-05
0.001
0.001
0.001
0.001
0.001
0.001
0.001
0.001
0.001
0.001
0.001
0.001
0.001
0.001
0.001
0.001
0.001
0.001
0.001
0.001
0.001
0.001
0.001
0.001
0.001
0.001
0.001
0.001
0.001
0.001
0.001
0.001
0.001
0.001
0.001
0.001
0.000863363
0.000470532
0.000200028
8.78979e-05
4.66839e-05
3.02374e-05
2.26443e-05
1.85509e-05
1.60227e-05
1.42927e-05
1.30224e-05
1.20436e-05
0.001
0.001
0.001
0.001
0.001
0.001
0.001
0.001
0.001
0.001
0.001
0.001
0.001
0.001
0.001
0.001
0.001
0.001
0.001
0.001
0.001
0.001
0.001
0.001
0.001
0.001
0.001
0.001
0.001
0.001
0.001
0.001
0.001
0.001
0.001
0.001
0.00089375
0.000500467
0.000214297
9.31213e-05
4.86379e-05
3.10699e-05
2.30588e-05
1.87904e-05
1.61787e-05
1.44033e-05
1.31055e-05
1.21086e-05
0.001
0.001
0.001
0.001
0.001
0.001
0.001
0.001
0.001
0.001
0.001
0.001
0.001
0.001
0.001
0.001
0.001
0.001
0.001
0.001
0.001
0.001
0.001
0.001
0.001
0.001
0.001
0.001
0.001
0.001
0.001
0.001
0.001
0.001
0.001
0.001
0.000914104
0.000521347
0.000224488
9.686e-05
5.0024e-05
3.16537e-05
2.33465e-05
1.89551e-05
1.62853e-05
1.44786e-05
1.31618e-05
1.21526e-05
1.13508e-05
0.001
0.001
0.001
0.001
0.001
0.001
0.001
0.001
0.001
0.001
0.001
0.001
0.001
0.001
0.001
0.001
0.001
0.001
0.001
0.001
0.001
0.001
0.001
0.001
0.001
0.001
0.001
0.001
0.001
0.001
0.001
0.001
0.001
0.001
0.001
0.001
0.000924336
0.000532083
0.0002298
9.88114e-05
5.07435e-05
3.19548e-05
2.3494e-05
1.90392e-05
1.63394e-05
1.45166e-05
1.31902e-05
1.21746e-05
1.13684e-05
0.001
0.001
0.001
0.001
0.001
0.001
0.001
0.001
0.001
0.001
0.001
0.001
0.001
0.001
0.001
0.001
0.001
0.001
0.001
0.001
0.001
0.001
0.001
0.001
0.001
0.001
0.001
0.001
0.001
0.001
0.001
0.001
0.001
0.001
0.001
0.001
0.000924419
0.000532115
0.000229802
9.88093e-05
5.07421e-05
3.1954e-05
2.34936e-05
1.9039e-05
1.63394e-05
1.45166e-05
1.31902e-05
1.21746e-05
1.13684e-05
1.07107e-05
0.001
0.001
0.001
0.001
0.001
0.001
0.001
0.001
0.001
0.001
0.001
0.001
0.001
0.001
0.001
0.001
0.001
0.001
0.001
0.001
0.001
0.001
0.001
0.001
0.001
0.001
0.001
0.001
0.001
0.001
0.001
0.001
0.001
0.001
0.001
0.001
0.000914346
0.000521438
0.000224492
9.68543e-05
5.00203e-05
3.16519e-05
2.33456e-05
1.89546e-05
1.62849e-05
1.44783e-05
1.31615e-05
1.21523e-05
1.13505e-05
1.06959e-05
0.001
0.001
0.001
0.001
0.001
0.001
0.001
0.001
0.001
0.001
0.001
0.001
0.001
0.001
0.001
0.001
0.001
0.001
0.001
0.001
0.001
0.001
0.001
0.001
0.001
0.001
0.001
0.001
0.001
0.001
0.001
0.001
0.001
0.001
0.001
0.001
0.000894127
0.0005006
0.000214302
9.31117e-05
4.86316e-05
3.10663e-05
2.30567e-05
1.87891e-05
1.61778e-05
1.44026e-05
1.31047e-05
1.21079e-05
1.13146e-05
1.06664e-05
0.001
0.001
0.001
0.001
0.001
0.001
0.001
0.001
0.001
0.001
0.001
0.001
0.001
0.001
0.001
0.001
0.001
0.001
0.001
0.001
0.001
0.001
0.001
0.001
0.001
0.001
0.001
0.001
0.001
0.001
0.001
0.001
0.001
0.001
0.001
0.001
0.000863836
0.000470681
0.000200028
8.78848e-05
4.66757e-05
3.02326e-05
2.26411e-05
1.85487e-05
1.6021e-05
1.42912e-05
1.30211e-05
1.20423e-05
1.12618e-05
1.06228e-05
0.001
0.001
0.001
0.001
0.001
0.001
0.001
0.001
0.001
0.001
0.001
0.001
0.001
0.001
0.001
0.001
0.001
0.001
0.001
0.001
0.001
0.001
0.001
0.001
0.001
0.001
0.001
0.001
0.001
0.001
0.001
0.001
0.001
0.001
0.001
0.001
0.000823666
0.000433221
0.000182722
8.15633e-05
4.42811e-05
2.91963e-05
2.2117e-05
1.82419e-05
1.58191e-05
1.4147e-05
1.29121e-05
1.19569e-05
1.11929e-05
1.05659e-05
0.001
0.001
0.001
0.001
0.001
0.001
0.001
0.001
0.001
0.001
0.001
0.001
0.001
0.001
0.001
0.001
0.001
0.001
0.001
0.001
0.001
0.001
0.001
0.001
0.001
0.001
0.001
0.001
0.001
0.001
0.001
0.001
0.001
0.001
0.001
0.001
0.000773937
0.000390084
0.000163543
7.45692e-05
4.15911e-05
2.801e-05
2.1506e-05
1.78787e-05
1.55776e-05
1.39733e-05
1.27805e-05
1.18533e-05
1.11089e-05
1.04964e-05
0.001
0.001
0.001
0.001
0.001
0.001
0.001
0.001
0.001
0.001
0.001
0.001
0.001
0.001
0.001
0.001
0.001
0.001
0.001
0.001
0.001
0.001
0.001
0.001
0.001
0.001
0.001
0.001
0.001
0.001
0.001
0.001
0.001
0.001
0.001
0.001
0.000714855
0.000343248
0.000143616
6.73051e-05
3.87463e-05
2.67276e-05
2.08316e-05
1.7471e-05
1.53031e-05
1.37741e-05
1.26284e-05
1.17329e-05
1.1011e-05
1.0415e-05
0.001
0.001
0.001
0.001
0.001
0.001
0.001
0.001
0.001
0.001
0.001
0.001
0.001
0.001
0.001
0.001
0.001
0.001
0.001
0.001
0.001
0.001
0.001
0.001
0.001
0.001
0.001
0.001
0.001
0.001
0.001
0.001
0.001
0.001
0.001
0.001
0.00064548
0.00029461
0.000123953
6.01291e-05
3.58766e-05
2.54006e-05
2.01163e-05
1.70298e-05
1.50018e-05
1.35535e-05
1.24588e-05
1.15979e-05
1.09008e-05
1.0323e-05
0.001
0.001
0.001
0.001
0.001
0.001
0.001
0.001
0.001
0.001
0.001
0.001
0.001
0.001
0.001
0.001
0.001
0.001
0.001
0.001
0.001
0.001
0.001
0.001
0.001
0.001
0.001
0.001
0.001
0.001
0.001
0.001
0.001
0.001
0.001
0.000949779
0.000562843
0.000246727
0.000105492
5.33411e-05
3.30931e-05
2.40745e-05
1.93812e-05
1.65661e-05
1.46801e-05
1.33152e-05
1.22743e-05
1.14504e-05
1.07799e-05
1.02218e-05
0.001
0.001
0.001
0.001
0.001
0.001
0.001
0.001
0.001
0.001
0.001
0.001
0.001
0.001
0.001
0.001
0.001
0.001
0.001
0.001
0.001
0.001
0.001
0.001
0.001
0.001
0.001
0.001
0.001
0.001
0.001
0.001
0.001
0.001
0.001
0.000867053
0.000474146
0.00020208
8.88495e-05
4.71309e-05
3.04715e-05
2.27831e-05
1.8643e-05
1.60893e-05
1.4344e-05
1.30637e-05
1.2078e-05
1.12925e-05
1.06497e-05
1.01125e-05
0.001
0.001
0.001
0.001
0.001
0.001
0.001
0.001
0.001
0.001
0.001
0.001
0.001
0.001
0.001
0.001
0.001
0.001
0.001
0.001
0.001
0.001
0.001
0.001
0.001
0.001
0.001
0.001
0.001
0.001
0.001
0.001
0.001
0.001
0.001
0.000770497
0.000387319
0.000162643
7.44088e-05
4.16046e-05
2.80527e-05
2.15472e-05
1.79138e-05
1.56073e-05
1.39987e-05
1.28025e-05
1.18726e-05
1.11262e-05
1.05121e-05
9.99658e-06
0.001
0.001
0.001
0.001
0.001
0.001
0.001
0.001
0.001
0.001
0.001
0.001
0.001
0.001
0.001
0.001
0.001
0.001
0.001
0.001
0.001
0.001
0.001
0.001
0.001
0.001
0.001
0.001
0.001
0.001
0.001
0.001
0.001
0.001
0.001
0.000662466
0.000306996
0.000129287
6.2242e-05
3.67965e-05
2.58616e-05
2.03828e-05
1.72039e-05
1.51267e-05
1.36489e-05
1.25349e-05
1.16606e-05
1.09537e-05
1.03686e-05
9.87515e-06
0.001
0.001
0.001
0.001
0.001
0.001
0.001
0.001
0.001
0.001
0.001
0.001
0.001
0.001
0.001
0.001
0.001
0.001
0.001
0.001
0.001
0.001
0.001
0.001
0.001
0.001
0.001
0.001
0.001
0.001
0.001
0.001
0.001
0.001
0.000930932
0.000542878
0.000237062
0.000102181
5.22447e-05
3.26921e-05
2.3906e-05
1.92993e-05
1.65212e-05
1.46534e-05
1.32988e-05
1.22641e-05
1.14443e-05
1.07765e-05
1.02205e-05
9.74917e-06
0.001
0.001
0.001
0.001
0.001
0.001
0.001
0.001
0.001
0.001
0.001
0.001
0.001
0.001
0.001
0.001
0.001
0.001
0.001
0.001
0.001
0.001
0.001
0.001
0.001
0.001
0.001
0.001
0.001
0.001
0.001
0.001
0.001
0.001
0.00081413
0.000424701
0.000179578
8.08167e-05
4.41731e-05
2.92321e-05
2.21767e-05
1.8299e-05
1.58696e-05
1.41915e-05
1.29519e-05
1.19929e-05
1.12258e-05
1.05964e-05
1.00691e-05
9.61981e-06
0.001
0.001
0.001
0.001
0.001
0.001
0.001
0.001
0.001
0.001
0.001
0.001
0.001
0.001
0.001
0.001
0.001
0.001
0.001
0.001
0.001
0.001
0.001
0.001
0.001
0.001
0.001
0.001
0.001
0.001
0.001
0.001
0.001
0.001
0.000680133
0.000319592
0.000134713
6.43966e-05
3.7735e-05
2.63309e-05
2.06529e-05
1.73796e-05
1.52519e-05
1.37442e-05
1.26109e-05
1.17233e-05
1.10068e-05
1.04145e-05
9.91541e-06
9.48796e-06
0.001
0.001
0.001
0.001
0.001
0.001
0.001
0.001
0.001
0.001
0.001
0.001
0.001
0.001
0.001
0.001
0.001
0.001
0.001
0.001
0.001
0.001
0.001
0.001
0.001
0.001
0.001
0.001
0.001
0.001
0.001
0.001
0.001
0.000924575
0.000535371
0.000233559
0.000101145
5.19863e-05
3.26405e-05
2.39072e-05
1.93131e-05
1.65371e-05
1.46691e-05
1.33137e-05
1.22781e-05
1.14575e-05
1.0789e-05
1.02324e-05
9.76065e-06
9.35453e-06
0.001
0.001
0.001
0.001
0.001
0.001
0.001
0.001
0.001
0.001
0.001
0.001
0.001
0.001
0.001
0.001
0.001
0.001
0.001
0.001
0.001
0.001
0.001
0.001
0.001
0.001
0.001
0.001
0.001
0.001
0.001
0.001
0.001
0.000784111
0.000397817
0.000167857
7.67262e-05
4.26891e-05
2.86199e-05
2.1882e-05
1.81346e-05
1.57665e-05
1.41213e-05
1.29013e-05
1.19551e-05
1.11969e-05
1.05739e-05
1.00515e-05
9.60603e-06
9.2206e-06
0.001
0.001
0.001
0.001
0.001
0.001
0.001
0.001
0.001
0.001
0.001
0.001
0.001
0.001
0.001
0.001
0.001
0.001
0.001
0.001
0.001
0.001
0.001
0.001
0.001
0.001
0.001
0.001
0.001
0.001
0.001
0.001
0.000997555
0.000624439
0.000282768
0.000120358
5.92883e-05
3.57427e-05
2.5433e-05
2.01805e-05
1.70945e-05
1.50613e-05
1.36075e-05
1.25082e-05
1.16434e-05
1.0943e-05
1.03626e-05
9.87267e-06
9.45238e-06
9.0869e-06
0.001
0.001
0.001
0.001
0.001
0.001
0.001
0.001
0.001
0.001
0.001
0.001
0.001
0.001
0.001
0.001
0.001
0.001
0.001
0.001
0.001
0.001
0.001
0.001
0.001
0.001
0.001
0.001
0.001
0.001
0.001
0.001
0.000854161
0.000459308
0.000196137
8.74353e-05
4.69423e-05
3.05449e-05
2.2892e-05
1.87417e-05
1.61734e-05
1.44162e-05
1.3127e-05
1.21346e-05
1.13437e-05
1.06967e-05
1.01562e-05
9.69674e-06
9.30035e-06
8.95394e-06
0.001
0.001
0.001
0.001
0.001
0.001
0.001
0.001
0.001
0.001
0.001
0.001
0.001
0.001
0.001
0.001
0.001
0.001
0.001
0.001
0.001
0.001
0.001
0.001
0.001
0.001
0.001
0.001
0.001
0.001
0.001
0.001
0.000679392
0.000319259
0.000135368
6.50508e-05
3.81774e-05
2.66152e-05
2.08426e-05
1.75143e-05
1.53538e-05
1.38253e-05
1.2678e-05
1.17806e-05
1.10568e-05
1.04589e-05
9.95539e-06
9.52462e-06
9.15088e-06
8.82261e-06
0.001
0.001
0.001
0.001
0.001
0.001
0.001
0.001
0.001
0.001
0.001
0.001
0.001
0.001
0.001
0.001
0.001
0.001
0.001
0.001
0.001
0.001
0.001
0.001
0.001
0.001
0.001
0.001
0.001
0.001
0.001
0.000891468
0.000496518
0.000214839
9.4834e-05
4.99327e-05
3.19063e-05
2.3605e-05
1.91679e-05
1.64574e-05
1.46212e-05
1.32836e-05
1.22592e-05
1.14461e-05
1.07828e-05
1.023e-05
9.76081e-06
9.35676e-06
9.00423e-06
8.69304e-06
0.001
0.001
0.001
0.001
0.001
0.001
0.001
0.001
0.001
0.001
0.001
0.001
0.001
0.001
0.001
0.001
0.001
0.001
0.001
0.001
0.001
0.001
0.001
0.001
0.001
0.001
0.001
0.001
0.001
0.001
0.001
0.000704405
0.000337687
0.000143657
6.84351e-05
3.96653e-05
2.73548e-05
2.1261e-05
1.77802e-05
1.55393e-05
1.39638e-05
1.27866e-05
1.18688e-05
1.11304e-05
1.05217e-05
1.001e-05
9.57262e-06
9.19347e-06
8.86079e-06
8.56577e-06
0.001
0.001
0.001
0.001
0.001
0.001
0.001
0.001
0.001
0.001
0.001
0.001
0.001
0.001
0.001
0.001
0.001
0.001
0.001
0.001
0.001
0.001
0.001
0.001
0.001
0.001
0.001
0.001
0.001
0.001
0.00089878
0.0005058
0.000221068
9.78638e-05
5.1331e-05
3.25977e-05
2.39841e-05
1.93994e-05
1.66133e-05
1.47349e-05
1.33714e-05
1.23299e-05
1.15047e-05
1.08326e-05
1.02732e-05
9.79899e-06
9.39089e-06
9.03497e-06
8.72101e-06
8.44128e-06
0.001
0.001
0.001
0.001
0.001
0.001
0.001
0.001
0.001
0.001
0.001
0.001
0.001
0.001
0.001
0.001
0.001
0.001
0.001
0.001
0.001
0.001
0.001
0.001
0.001
0.001
0.001
0.001
0.001
0.001
0.000693917
0.000334748
0.00014419
6.91811e-05
4.01406e-05
2.76327e-05
2.14295e-05
1.78907e-05
1.56182e-05
1.40242e-05
1.28353e-05
1.19095e-05
1.11652e-05
1.05522e-05
1.00371e-05
9.59702e-06
9.21582e-06
8.88147e-06
8.58504e-06
8.3197e-06
0.001
0.001
0.001
0.001
0.001
0.001
0.001
0.001
0.001
0.001
0.001
0.001
0.001
0.001
0.001
0.001
0.001
0.001
0.001
0.001
0.001
0.001
0.001
0.001
0.001
0.001
0.001
0.001
0.001
0.000849099
0.000474371
0.000211487
9.56608e-05
5.0795e-05
3.24094e-05
2.38755e-05
1.93182e-05
1.65484e-05
1.4682e-05
1.33278e-05
1.22933e-05
1.14735e-05
1.08057e-05
1.02497e-05
9.77845e-06
9.37282e-06
9.01906e-06
8.70699e-06
8.42895e-06
8.17897e-06
0.001
0.001
0.001
0.001
0.001
0.001
0.001
0.001
0.001
0.001
0.001
0.001
0.001
0.001
0.001
0.001
0.001
0.001
0.001
0.001
0.001
0.001
0.001
0.001
0.001
0.001
0.001
0.001
0.001
0.000847764
0.00047382
0.000211383
9.56475e-05
5.0794e-05
3.24097e-05
2.38758e-05
1.93185e-05
1.65487e-05
1.46824e-05
1.33282e-05
1.22937e-05
1.14739e-05
1.08059e-05
1.02498e-05
9.77843e-06
9.37274e-06
9.01901e-06
8.70702e-06
8.42903e-06
8.17904e-06
0.001
0.001
0.001
0.001
0.001
0.001
0.001
0.001
0.001
0.001
0.001
0.001
0.001
0.001
0.001
0.001
0.001
0.001
0.001
0.001
0.001
0.001
0.001
0.001
0.001
0.001
0.001
0.001
0.001
0.001
0.000694117
0.000334818
0.000144211
6.91897e-05
4.01446e-05
2.76349e-05
2.1431e-05
1.7892e-05
1.56194e-05
1.40254e-05
1.28364e-05
1.19103e-05
1.11659e-05
1.05526e-05
1.00374e-05
9.5972e-06
9.21586e-06
8.88144e-06
8.58504e-06
8.31974e-06
0.001
0.001
0.001
0.001
0.001
0.001
0.001
0.001
0.001
0.001
0.001
0.001
0.001
0.001
0.001
0.001
0.001
0.001
0.001
0.001
0.001
0.001
0.001
0.001
0.001
0.001
0.001
0.001
0.001
0.001
0.000899484
0.000506102
0.000221151
9.78884e-05
5.13401e-05
3.2602e-05
2.39868e-05
1.94014e-05
1.66151e-05
1.47365e-05
1.33729e-05
1.23312e-05
1.15058e-05
1.08334e-05
1.02737e-05
9.79939e-06
9.39116e-06
9.03518e-06
8.72123e-06
8.4415e-06
0.001
0.001
0.001
0.001
0.001
0.001
0.001
0.001
0.001
0.001
0.001
0.001
0.001
0.001
0.001
0.001
0.001
0.001
0.001
0.001
0.001
0.001
0.001
0.001
0.001
0.001
0.001
0.001
0.001
0.001
0.001
0.000705038
0.000337929
0.000143723
6.84553e-05
3.96732e-05
2.73589e-05
2.12636e-05
1.77824e-05
1.55413e-05
1.39657e-05
1.27883e-05
1.18703e-05
1.11316e-05
1.05227e-05
1.00107e-05
9.5731e-06
9.19388e-06
8.86124e-06
8.56626e-06
0.001
0.001
0.001
0.001
0.001
0.001
0.001
0.001
0.001
0.001
0.001
0.001
0.001
0.001
0.001
0.001
0.001
0.001
0.001
0.001
0.001
0.001
0.001
0.001
0.001
0.001
0.001
0.001
0.001
0.001
0.001
0.000892704
0.000497083
0.000214995
9.48768e-05
4.99468e-05
3.19122e-05
2.36083e-05
1.91704e-05
1.64596e-05
1.46233e-05
1.32856e-05
1.2261e-05
1.14477e-05
1.07842e-05
1.02312e-05
9.76184e-06
9.35758e-06
9.00483e-06
8.69353e-06
0.001
0.001
0.001
0.001
0.001
0.001
0.001
0.001
0.001
0.001
0.001
0.001
0.001
0.001
0.001
0.001
0.001
0.001
0.001
0.001
0.001
0.001
0.001
0.001
0.001
0.001
0.001
0.001
0.001
0.001
0.001
0.001
0.000680324
0.000319611
0.000135462
6.50778e-05
3.81868e-05
2.66196e-05
2.08453e-05
1.75165e-05
1.53559e-05
1.38274e-05
1.268e-05
1.17824e-05
1.10585e-05
1.04605e-05
9.95691e-06
9.52589e-06
9.15184e-06
8.82332e-06
0.001
0.001
0.001
0.001
0.001
0.001
0.001
0.001
0.001
0.001
0.001
0.001
0.001
0.001
0.001
0.001
0.001
0.001
0.001
0.001
0.001
0.001
0.001
0.001
0.001
0.001
0.001
0.001
0.001
0.001
0.001
0.001
0.000855707
0.000460021
0.000196334
8.74882e-05
4.69587e-05
3.05513e-05
2.28953e-05
1.87441e-05
1.61754e-05
1.44182e-05
1.31289e-05
1.21365e-05
1.13456e-05
1.06986e-05
1.0158e-05
9.69833e-06
9.30162e-06
8.95487e-06
0.001
0.001
0.001
0.001
0.001
0.001
0.001
0.001
0.001
0.001
0.001
0.001
0.001
0.001
0.001
0.001
0.001
0.001
0.001
0.001
0.001
0.001
0.001
0.001
0.001
0.001
0.001
0.001
0.001
0.001
0.001
0.001
0.0009998
0.000625659
0.000283156
0.000120463
5.93191e-05
3.57533e-05
2.54378e-05
2.01833e-05
1.70966e-05
1.50632e-05
1.36094e-05
1.25101e-05
1.16453e-05
1.0945e-05
1.03645e-05
9.87418e-06
9.45351e-06
9.08774e-06
0.001
0.001
0.001
0.001
0.001
0.001
0.001
0.001
0.001
0.001
0.001
0.001
0.001
0.001
0.001
0.001
0.001
0.001
0.001
0.001
0.001
0.001
0.001
0.001
0.001
0.001
0.001
0.001
0.001
0.001
0.001
0.001
0.001
0.000785805
0.00039857
0.000168071
7.67863e-05
4.27085e-05
2.86276e-05
2.18859e-05
1.8137e-05
1.57683e-05
1.4123e-05
1.2903e-05
1.19569e-05
1.11987e-05
1.05756e-05
1.00529e-05
9.60711e-06
9.22143e-06
0.001
0.001
0.001
0.001
0.001
0.001
0.001
0.001
0.001
0.001
0.001
0.001
0.001
0.001
0.001
0.001
0.001
0.001
0.001
0.001
0.001
0.001
0.001
0.001
0.001
0.001
0.001
0.001
0.001
0.001
0.001
0.001
0.001
0.000926951
0.000536678
0.000233968
0.000101259
5.20216e-05
3.26533e-05
2.39129e-05
1.93163e-05
1.65393e-05
1.46709e-05
1.33152e-05
1.22796e-05
1.14589e-05
1.07903e-05
1.02336e-05
9.76156e-06
0.001
0.001
0.001
0.001
0.001
0.001
0.001
0.001
0.001
0.001
0.001
0.001
0.001
0.001
0.001
0.001
0.001
0.001
0.001
0.001
0.001
0.001
0.001
0.001
0.001
0.001
0.001
0.001
0.001
0.001
0.001
0.001
0.001
0.001
0.000681815
0.000320329
0.000134931
6.44609e-05
3.77566e-05
2.63395e-05
2.06571e-05
1.73821e-05
1.52538e-05
1.37457e-05
1.26123e-05
1.17247e-05
1.1008e-05
1.04155e-05
0.001
0.001
0.001
0.001
0.001
0.001
0.001
0.001
0.001
0.001
0.001
0.001
0.001
0.001
0.001
0.001
0.001
0.001
0.001
0.001
0.001
0.001
0.001
0.001
0.001
0.001
0.001
0.001
0.001
0.001
0.001
0.001
0.001
0.001
0.00081642
0.00042591
0.000179963
8.09297e-05
4.42096e-05
2.92457e-05
2.21828e-05
1.83024e-05
1.58719e-05
1.41934e-05
1.29535e-05
1.19943e-05
1.12271e-05
1.05975e-05
0.001
0.001
0.001
0.001
0.001
0.001
0.001
0.001
0.001
0.001
0.001
0.001
0.001
0.001
0.001
0.001
0.001
0.001
0.001
0.001
0.001
0.001
0.001
0.001
0.001
0.001
0.001
0.001
0.001
0.001
0.001
0.001
0.001
0.001
0.000933871
0.000544712
0.000237707
0.000102374
5.23052e-05
3.27139e-05
2.39152e-05
1.93041e-05
1.65243e-05
1.46558e-05
1.33008e-05
1.22659e-05
1.14459e-05
1.0778e-05
0.001
0.001
0.001
0.001
0.001
0.001
0.001
0.001
0.001
0.001
0.001
0.001
0.001
0.001
0.001
0.001
0.001
0.001
0.001
0.001
0.001
0.001
0.001
0.001
0.001
0.001
0.001
0.001
0.001
0.001
0.001
0.001
0.001
0.001
0.001
0.000664528
0.00030799
0.000129603
6.23392e-05
3.68302e-05
2.58754e-05
2.03898e-05
1.72084e-05
1.513e-05
1.36516e-05
0.001
0.001
0.001
0.001
0.001
0.001
0.001
0.001
0.001
0.001
0.001
0.001
0.001
0.001
0.001
0.001
0.001
0.001
0.001
0.001
0.001
0.001
0.001
0.001
0.001
0.001
0.001
0.001
0.001
0.001
0.001
0.001
0.001
0.001
0.001
0.001
0.001
0.001
0.001
0.001
0.001
0.001
0.001
0.001
0.001
0.001
0.001
0.001
0.001
0.001
0.001
0.001
0.001
0.001
0.001
0.001
0.001
0.001
0.001
0.001
0.001
0.001
0.001
0.001
0.001
0.001
0.001
0.001
0.001
0.001
0.001
0.001
0.001
0.001
0.001
0.001
0.001
0.001
0.001
0.001
0.001
0.001
0.001
0.001
0.001
0.001
0.001
0.001
0.001
0.001
0.001
0.001
0.001
0.001
0.001
0.001
0.001
0.001
0.001
0.001
0.001
0.001
0.001
0.001
0.001
0.001
0.001
0.001
0.001
0.001
0.001
0.001
0.001
0.001
0.001
0.001
0.001
0.001
0.001
0.001
0.001
0.001
0.001
0.001
0.001
0.001
0.001
0.001
0.001
0.001
0.001
0.001
0.001
0.001
0.001
0.001
0.001
0.001
0.001
0.001
0.001
0.001
0.001
0.001
0.001
0.001
0.001
0.001
0.001
0.001
0.001
0.001
0.001
0.001
0.001
0.001
0.001
0.001
0.001
0.001
0.001
0.001
0.001
0.001
0.001
0.001
0.001
0.001
0.001
0.001
0.001
0.001
0.001
0.001
0.001
0.001
0.001
0.001
0.001
0.001
0.001
0.001
0.001
0.001
0.001
0.001
0.001
0.001
0.001
0.001
0.001
0.001
0.001
0.001
0.001
0.001
0.001
0.001
0.001
0.001
0.001
0.001
0.001
0.001
0.001
0.001
0.001
0.001
0.001
0.001
0.001
0.001
0.001
0.001
0.001
0.001
0.001
0.001
0.001
0.001
0.001
0.001
0.001
0.001
0.001
0.001
0.001
0.001
0.001
0.001
0.001
0.001
0.001
0.001
0.001
0.001
0.001
0.001
0.001
0.001
0.001
0.001
0.001
0.001
0.001
0.001
0.001
0.001
0.001
0.001
0.001
0.001
0.001
0.001
0.001
0.001
0.001
0.001
0.001
0.001
0.001
0.001
0.001
0.001
0.001
0.001
0.001
0.001
0.001
0.001
0.001
0.001
0.001
0.001
0.001
0.001
0.001
0.001
0.001
0.001
0.001
0.001
0.001
0.001
0.001
0.001
0.001
0.001
0.001
0.001
0.001
0.001
0.001
0.001
0.001
0.001
0.001
0.001
0.001
0.001
0.001
0.001
0.001
0.001
0.001
0.001
0.001
0.001
0.001
0.001
0.001
0.001
0.001
0.001
0.001
0.001
0.001
0.001
0.001
0.001
0.001
0.001
0.001
0.001
0.001
0.001
0.001
0.001
0.001
0.001
0.001
0.001
0.001
0.001
0.001
0.001
0.001
0.001
0.001
0.001
0.001
0.001
0.001
0.001
0.001
0.001
0.001
0.001
0.001
0.001
0.001
0.001
0.001
0.001
0.001
0.001
0.001
0.001
0.001
0.001
0.001
0.001
0.001
0.001
0.001
0.001
0.001
0.001
0.001
0.001
0.001
0.001
0.001
0.001
0.001
0.001
0.001
0.001
0.001
0.001
0.001
0.001
0.001
0.001
0.001
0.001
0.001
0.001
0.001
0.001
0.001
0.001
0.001
0.001
0.001
0.001
0.001
0.001
0.001
0.001
0.001
0.001
0.001
0.001
0.001
0.001
0.001
0.001
0.001
0.001
0.001
0.001
0.001
0.001