/*--------------------------------*- C++ -*----------------------------------*\
  =========                 |
  \\      /  F ield         | OpenFOAM: The Open Source CFD Toolbox
   \\    /   O peration     | Website:  https://openfoam.org
    \\  /    A nd           | Version:  7
     \\/     M anipulation  |
\*---------------------------------------------------------------------------*/
FoamFile
{
    version     2.0;
    format      ascii;
    class       volScalarField;
    location    "64000";
    object      omega;
}
// * * * * * * * * * * * * * * * * * * * * * * * * * * * * * * * * * * * * * //

dimensions      [0 0 -1 0 0 0 0];

internalField   nonuniform List<scalar> 
4783
(
0.0260357
0.0260291
0.0260228
0.0260168
0.0260111
0.0260057
0.0260005
0.0259956
0.025991
0.0259867
0.0259827
0.0259789
0.0259754
0.0259722
0.0259693
0.0259667
0.0259643
0.0259623
0.0259605
0.025959
0.0259578
0.0259569
0.0260472
0.0260408
0.0260346
0.0260285
0.0260226
0.026017
0.0260117
0.0260066
0.0260018
0.0259973
0.0259931
0.0259892
0.0259856
0.0259822
0.0259792
0.0259764
0.025974
0.0259718
0.0259699
0.0259684
0.0259671
0.0259662
0.0260591
0.0260527
0.0260464
0.0260403
0.0260343
0.0260286
0.0260231
0.0260179
0.0260129
0.0260083
0.0260039
0.0259999
0.0259961
0.0259926
0.0259894
0.0259866
0.025984
0.0259817
0.0259798
0.0259782
0.0259769
0.0259759
0.0260715
0.0260649
0.0260585
0.0260523
0.0260462
0.0260404
0.0260348
0.0260295
0.0260244
0.0260196
0.0260151
0.0260109
0.026007
0.0260034
0.0260001
0.0259971
0.0259944
0.0259921
0.0259901
0.0259884
0.025987
0.025986
0.0260842
0.0260775
0.026071
0.0260646
0.0260585
0.0260525
0.0260468
0.0260413
0.0260361
0.0260312
0.0260266
0.0260223
0.0260182
0.0260145
0.0260111
0.026008
0.0260053
0.0260029
0.0260008
0.025999
0.0259976
0.0259965
0.0260972
0.0260904
0.0260837
0.0260773
0.026071
0.026065
0.0260591
0.0260535
0.0260482
0.0260432
0.0260385
0.026034
0.0260299
0.026026
0.0260225
0.0260194
0.0260165
0.026014
0.0260119
0.0260101
0.0260086
0.0260075
0.0261106
0.0261036
0.0260968
0.0260902
0.0260839
0.0260777
0.0260718
0.0260661
0.0260606
0.0260555
0.0260506
0.0260461
0.0260419
0.0260379
0.0260343
0.0260311
0.0260282
0.0260256
0.0260234
0.0260215
0.02602
0.0260188
0.0261242
0.0261171
0.0261102
0.0261035
0.026097
0.0260907
0.0260847
0.0260789
0.0260734
0.0260681
0.0260632
0.0260585
0.0260542
0.0260502
0.0260465
0.0260431
0.0260402
0.0260375
0.0260352
0.0260333
0.0260317
0.0260305
0.0261381
0.0261309
0.0261239
0.026117
0.0261104
0.0261041
0.0260979
0.026092
0.0260864
0.0260811
0.026076
0.0260713
0.0260669
0.0260628
0.026059
0.0260556
0.0260525
0.0260498
0.0260475
0.0260455
0.0260439
0.0260427
0.0261522
0.0261449
0.0261378
0.0261309
0.0261242
0.0261177
0.0261115
0.0261055
0.0260998
0.0260943
0.0260892
0.0260844
0.0260798
0.0260757
0.0260718
0.0260683
0.0260652
0.0260624
0.02606
0.026058
0.0260564
0.0260551
0.0261666
0.0261592
0.026152
0.0261449
0.0261382
0.0261316
0.0261253
0.0261192
0.0261134
0.0261079
0.0261026
0.0260977
0.0260931
0.0260889
0.026085
0.0260814
0.0260782
0.0260754
0.026073
0.0260709
0.0260692
0.0260679
0.0261812
0.0261737
0.0261664
0.0261593
0.0261524
0.0261457
0.0261393
0.0261332
0.0261273
0.0261217
0.0261164
0.0261114
0.0261067
0.0261024
0.0260984
0.0260948
0.0260916
0.0260887
0.0260862
0.0260841
0.0260824
0.026081
0.026196
0.0261884
0.026181
0.0261738
0.0261669
0.0261601
0.0261537
0.0261474
0.0261415
0.0261358
0.0261304
0.0261254
0.0261206
0.0261162
0.0261122
0.0261085
0.0261052
0.0261023
0.0260997
0.0260976
0.0260959
0.0260945
0.026211
0.0262033
0.0261959
0.0261886
0.0261816
0.0261748
0.0261682
0.0261619
0.0261559
0.0261502
0.0261447
0.0261396
0.0261348
0.0261303
0.0261262
0.0261225
0.0261191
0.0261162
0.0261136
0.0261114
0.0261097
0.0261082
0.0262261
0.0262184
0.0262109
0.0262036
0.0261965
0.0261896
0.026183
0.0261767
0.0261706
0.0261648
0.0261593
0.0261541
0.0261492
0.0261447
0.0261405
0.0261367
0.0261333
0.0261303
0.0261277
0.0261255
0.0262415
0.0262337
0.0262262
0.0262188
0.0262116
0.0262047
0.026198
0.0261916
0.0261854
0.0261796
0.026174
0.0261688
0.0261639
0.0261593
0.0261551
0.0261512
0.0261478
0.0261447
0.026142
0.026257
0.0262492
0.0262416
0.0262341
0.0262269
0.0262199
0.0262132
0.0262067
0.0262005
0.0261946
0.026189
0.0261837
0.0261788
0.0261741
0.0261699
0.026166
0.0261624
0.0262727
0.0262648
0.0262571
0.0262497
0.0262424
0.0262354
0.0262286
0.0262221
0.0262158
0.0262099
0.0262042
0.0261989
0.0261939
0.0261892
0.0262884
0.0262805
0.0262728
0.0262653
0.026258
0.026251
0.0262442
0.0262376
0.0262313
0.0262253
0.0262197
0.0262142
0.0263043
0.0262964
0.0262887
0.0262811
0.0262738
0.0262667
0.0262599
0.0262533
0.026247
0.026241
0.0263203
0.0263124
0.0263046
0.0262971
0.0262897
0.0262826
0.0262757
0.0262691
0.0262628
0.0263364
0.0263285
0.0263207
0.0263131
0.0263058
0.0262986
0.0262917
0.0262851
0.0263526
0.0263447
0.0263369
0.0263293
0.0263219
0.0263147
0.0263079
0.0263689
0.0263609
0.0263531
0.0263455
0.0263381
0.026331
0.0263852
0.0263772
0.0263694
0.0263619
0.0263545
0.0263473
0.0264016
0.0263936
0.0263858
0.0263783
0.0263709
0.026418
0.02641
0.0264022
0.0263947
0.0264345
0.0264265
0.0264187
0.0264112
0.026451
0.026443
0.0264352
0.0264689
0.0264596
0.0264516
0.0264939
0.0264792
0.026469
0.0265418
0.0265115
0.0264926
0.0266478
0.0265808
0.0265384
0.0268677
0.0267348
0.0266422
0.0272436
0.0270301
0.0268615
0.0277694
0.027486
0.0272394
0.0284179
0.0280766
0.0277683
0.0291621
0.028777
0.0284201
0.0299772
0.0295603
0.0291675
0.0308443
0.030404
0.0299854
0.0317483
0.0312921
0.0308551
0.0326788
0.0322117
0.0317614
0.0260355
0.0260471
0.026059
0.0260713
0.026084
0.026097
0.0261103
0.026124
0.0261378
0.0261519
0.0261663
0.0261809
0.0261957
0.0262107
0.0262258
0.0262412
0.0262567
0.0262723
0.0262881
0.0263039
0.0263199
0.026336
0.0263522
0.0263684
0.0263847
0.0264011
0.0264176
0.026434
0.0264506
0.0264684
0.0264934
0.0265412
0.0266472
0.0268672
0.0272432
0.027769
0.0284173
0.0291617
0.0299773
0.0308443
0.0317488
0.0326793
0.0260286
0.0260403
0.0260522
0.0260644
0.0260769
0.0260897
0.0261029
0.0261164
0.0261301
0.0261441
0.0261583
0.0261728
0.0261875
0.0262024
0.0262174
0.0262327
0.0262481
0.0262637
0.0262794
0.0262952
0.0263111
0.0263272
0.0263433
0.0263595
0.0263758
0.0263921
0.0264085
0.0264249
0.0264414
0.026458
0.0264776
0.02651
0.0265794
0.0267337
0.0270292
0.0274854
0.0280759
0.0287764
0.0295597
0.030404
0.0312921
0.0322112
0.026022
0.0260337
0.0260455
0.0260576
0.02607
0.0260827
0.0260957
0.026109
0.0261226
0.0261365
0.0261506
0.0261649
0.0261795
0.0261943
0.0262093
0.0262244
0.0262398
0.0262553
0.0262709
0.0262867
0.0263025
0.0263185
0.0263346
0.0263508
0.026367
0.0263833
0.0263997
0.0264161
0.0264325
0.0264489
0.0264663
0.0264901
0.026536
0.0266402
0.02686
0.0272384
0.0277675
0.0284192
0.0291666
0.0299847
0.0308541
0.031761
0.0260157
0.0260273
0.026039
0.026051
0.0260632
0.0260758
0.0260887
0.0261018
0.0261153
0.026129
0.026143
0.0261573
0.0261718
0.0261864
0.0262013
0.0262164
0.0262317
0.0262471
0.0262626
0.0262783
0.0262942
0.0263101
0.0263262
0.0263423
0.0263585
0.0263748
0.0263911
0.0264075
0.0264239
0.0264403
0.0264568
0.0264763
0.0265083
0.0265775
0.0267334
0.0270335
0.0274959
0.0280927
0.0287991
0.0295874
0.0304356
0.0313274
0.0260097
0.0260211
0.0260327
0.0260445
0.0260567
0.0260691
0.0260819
0.0260949
0.0261082
0.0261219
0.0261357
0.0261499
0.0261642
0.0261788
0.0261936
0.0262086
0.0262238
0.0262391
0.0262546
0.0262703
0.026286
0.0263019
0.0263179
0.026334
0.0263502
0.0263664
0.0263827
0.0263991
0.0264155
0.0264319
0.0264484
0.0264658
0.0264898
0.0265368
0.0266443
0.0268715
0.0272599
0.0277988
0.0284595
0.0292144
0.0300389
0.0309135
0.026004
0.0260152
0.0260266
0.0260383
0.0260503
0.0260626
0.0260753
0.0260882
0.0261014
0.0261149
0.0261287
0.0261427
0.0261569
0.0261714
0.0261861
0.0262011
0.0262162
0.0262314
0.0262469
0.0262624
0.0262782
0.026294
0.02631
0.026326
0.0263422
0.0263584
0.0263747
0.026391
0.0264074
0.0264238
0.0264403
0.0264569
0.0264766
0.0265101
0.0265835
0.0267488
0.0270631
0.0275402
0.0281504
0.0288678
0.0296653
0.030521
0.0259985
0.0260095
0.0260208
0.0260324
0.0260442
0.0260564
0.0260689
0.0260817
0.0260948
0.0261082
0.0261218
0.0261358
0.0261499
0.0261643
0.0261789
0.0261938
0.0262088
0.026224
0.0262394
0.0262549
0.0262706
0.0262864
0.0263023
0.0263183
0.0263344
0.0263506
0.0263669
0.0263832
0.0263996
0.026416
0.0264324
0.0264489
0.0264667
0.026492
0.026543
0.0266606
0.0269054
0.0273146
0.0278714
0.0285477
0.0293152
0.0301497
0.0259933
0.0260041
0.0260152
0.0260267
0.0260384
0.0260504
0.0260628
0.0260755
0.0260885
0.0261017
0.0261153
0.0261291
0.0261432
0.0261575
0.026172
0.0261868
0.0262017
0.0262169
0.0262322
0.0262476
0.0262632
0.026279
0.0262949
0.0263109
0.0263269
0.0263431
0.0263594
0.0263757
0.0263921
0.0264085
0.026425
0.0264415
0.0264582
0.0264788
0.0265157
0.0265987
0.0267833
0.0271237
0.027625
0.0282562
0.0289905
0.029801
0.0259884
0.025999
0.02601
0.0260212
0.0260328
0.0260447
0.026057
0.0260695
0.0260824
0.0260956
0.026109
0.0261227
0.0261367
0.0261509
0.0261654
0.0261801
0.0261949
0.02621
0.0262253
0.0262407
0.0262562
0.026272
0.0262878
0.0263037
0.0263198
0.0263359
0.0263522
0.0263685
0.0263848
0.0264013
0.0264177
0.0264342
0.0264507
0.0264692
0.0264974
0.0265565
0.0266927
0.0269677
0.0274093
0.0279926
0.0286908
0.0294754
0.0259838
0.0259942
0.026005
0.0260161
0.0260275
0.0260393
0.0260514
0.0260639
0.0260766
0.0260897
0.026103
0.0261166
0.0261305
0.0261447
0.026159
0.0261736
0.0261885
0.0262035
0.0262187
0.026234
0.0262496
0.0262652
0.026281
0.0262969
0.026313
0.0263291
0.0263453
0.0263616
0.026378
0.0263944
0.0264108
0.0264273
0.0264438
0.0264611
0.0264839
0.0265275
0.0266275
0.0268439
0.0272231
0.0277577
0.0284174
0.029174
0.0259794
0.0259897
0.0260003
0.0260112
0.0260225
0.0260342
0.0260462
0.0260585
0.0260711
0.0260841
0.0260973
0.0261109
0.0261247
0.0261387
0.026153
0.0261676
0.0261823
0.0261973
0.0262124
0.0262277
0.0262432
0.0262588
0.0262746
0.0262905
0.0263065
0.0263226
0.0263388
0.0263551
0.0263714
0.0263878
0.0264043
0.0264208
0.0264373
0.026454
0.0264738
0.0265072
0.026581
0.0267482
0.0270675
0.0275521
0.0281707
0.0288969
0.0259753
0.0259854
0.0259958
0.0260067
0.0260178
0.0260294
0.0260412
0.0260534
0.026066
0.0260788
0.026092
0.0261054
0.0261191
0.0261331
0.0261474
0.0261618
0.0261765
0.0261914
0.0262065
0.0262218
0.0262372
0.0262528
0.0262685
0.0262844
0.0263004
0.0263165
0.0263326
0.0263489
0.0263652
0.0263816
0.0263981
0.0264146
0.0264311
0.0264476
0.0264659
0.0264928
0.0265483
0.0266767
0.0269407
0.0273727
0.0279498
0.0286445
0.0294275
0.0259715
0.0259814
0.0259917
0.0260024
0.0260134
0.0260248
0.0260366
0.0260487
0.0260611
0.0260739
0.026087
0.0261003
0.026114
0.0261279
0.026142
0.0261564
0.0261711
0.0261859
0.0262009
0.0262162
0.0262316
0.0262471
0.0262628
0.0262787
0.0262946
0.0263107
0.0263269
0.0263431
0.0263594
0.0263758
0.0263923
0.0264088
0.0264254
0.0264419
0.0264591
0.0264818
0.0265249
0.0266238
0.0268391
0.0272183
0.0277542
0.0284164
0.0291756
0.0300065
0.025968
0.0259778
0.0259879
0.0259984
0.0260094
0.0260206
0.0260323
0.0260443
0.0260566
0.0260693
0.0260823
0.0260956
0.0261091
0.026123
0.0261371
0.0261514
0.026166
0.0261808
0.0261958
0.0262109
0.0262263
0.0262418
0.0262575
0.0262733
0.0262893
0.0263053
0.0263215
0.0263377
0.026354
0.0263704
0.0263869
0.0264034
0.02642
0.0264366
0.0264533
0.0264734
0.026508
0.0265849
0.0267592
0.0270889
0.0275839
0.0282124
0.028947
0.0297599
0.0259648
0.0259744
0.0259844
0.0259948
0.0260056
0.0260168
0.0260283
0.0260402
0.0260525
0.026065
0.0260779
0.0260912
0.0261046
0.0261184
0.0261325
0.0261468
0.0261613
0.026176
0.026191
0.0262061
0.0262214
0.0262369
0.0262526
0.0262684
0.0262843
0.0263003
0.0263165
0.0263327
0.026349
0.0263654
0.0263819
0.0263984
0.0264149
0.0264315
0.0264481
0.0264668
0.0264957
0.0265567
0.0266979
0.0269823
0.027436
0.0280313
0.0287408
0.0295358
0.030393
0.0259618
0.0259713
0.0259812
0.0259915
0.0260021
0.0260132
0.0260247
0.0260365
0.0260486
0.0260611
0.026074
0.0260871
0.0261005
0.0261143
0.0261282
0.0261425
0.026157
0.0261717
0.0261866
0.0262017
0.026217
0.0262324
0.0262481
0.0262638
0.0262797
0.0262957
0.0263119
0.0263281
0.0263444
0.0263608
0.0263773
0.0263938
0.0264103
0.0264269
0.0264435
0.0264613
0.0264862
0.0265359
0.0266513
0.0268956
0.0273081
0.0278717
0.028557
0.0293342
0.0301789
0.0259592
0.0259685
0.0259783
0.0259885
0.025999
0.02601
0.0260214
0.0260331
0.0260452
0.0260576
0.0260704
0.0260834
0.0260968
0.0261105
0.0261244
0.0261386
0.026153
0.0261677
0.0261826
0.0261976
0.0262129
0.0262284
0.026244
0.0262597
0.0262756
0.0262916
0.0263077
0.0263239
0.0263402
0.0263566
0.0263731
0.0263896
0.0264062
0.0264228
0.0264394
0.0264566
0.0264787
0.0265203
0.0266158
0.0268259
0.0272004
0.027734
0.0283952
0.0291553
0.0299872
0.0308716
0.0259568
0.025966
0.0259757
0.0259858
0.0259962
0.0260071
0.0260184
0.0260301
0.0260421
0.0260544
0.0260671
0.0260802
0.0260935
0.0261071
0.026121
0.0261351
0.0261495
0.0261641
0.026179
0.026194
0.0262093
0.0262247
0.0262403
0.026256
0.0262719
0.0262879
0.026304
0.0263202
0.0263365
0.0263529
0.0263693
0.0263859
0.0264025
0.0264191
0.0264358
0.0264525
0.0264729
0.0265087
0.0265891
0.0267709
0.0271114
0.0276171
0.0282555
0.0289985
0.0298184
0.0306946
0.0316105
0.0259547
0.0259638
0.0259734
0.0259834
0.0259938
0.0260046
0.0260158
0.0260274
0.0260393
0.0260516
0.0260643
0.0260773
0.0260905
0.0261041
0.0261179
0.0261321
0.0261464
0.026161
0.0261758
0.0261908
0.0262061
0.0262215
0.026237
0.0262527
0.0262686
0.0262846
0.0263007
0.0263169
0.0263332
0.0263496
0.026366
0.0263825
0.0263991
0.0264157
0.0264324
0.026449
0.0264685
0.0265002
0.0265693
0.0267282
0.0270387
0.0275183
0.0281354
0.0288625
0.0296714
0.0305393
0.0314498
0.0259529
0.025962
0.0259714
0.0259813
0.0259917
0.0260024
0.0260136
0.0260251
0.026037
0.0260492
0.0260618
0.0260747
0.026088
0.0261015
0.0261153
0.0261294
0.0261437
0.0261583
0.0261731
0.0261881
0.0262033
0.0262187
0.0262342
0.0262499
0.0262657
0.0262817
0.0262978
0.026314
0.0263303
0.0263467
0.0263631
0.0263797
0.0263962
0.0264128
0.0264295
0.0264461
0.0264649
0.0264937
0.0265545
0.0266954
0.0269805
0.0274363
0.0280343
0.0287473
0.029546
0.0304072
0.0313128
0.0259514
0.0259604
0.0259698
0.0259796
0.0259899
0.0260006
0.0260117
0.0260231
0.026035
0.0260472
0.0260598
0.0260726
0.0260858
0.0260993
0.0261131
0.0261272
0.0261415
0.026156
0.0261708
0.0261858
0.0262009
0.0262163
0.0262318
0.0262475
0.0262634
0.0262793
0.0262954
0.0263116
0.0263279
0.0263443
0.0263607
0.0263772
0.0263938
0.0264104
0.0264271
0.0264437
0.026462
0.0264887
0.0265433
0.0266705
0.0269346
0.0273693
0.0279513
0.028652
0.0294416
0.0302962
0.0311971
0.0259502
0.0259591
0.0259684
0.0259782
0.0259884
0.0259991
0.0260101
0.0260216
0.0260334
0.0260455
0.0260581
0.0260709
0.0260841
0.0260976
0.0261113
0.0261253
0.0261396
0.0261542
0.0261689
0.0261839
0.026199
0.0262144
0.0262299
0.0262456
0.0262614
0.0262774
0.0262935
0.0263097
0.026326
0.0263423
0.0263588
0.0263753
0.0263919
0.0264085
0.0264252
0.0264418
0.0264598
0.0264849
0.0265351
0.026652
0.0268997
0.0273171
0.0278859
0.0285764
0.0293587
0.0302082
0.0311063
0.0320384
0.0259492
0.0259581
0.0259674
0.0259772
0.0259873
0.0259979
0.0260089
0.0260204
0.0260321
0.0260443
0.0260568
0.0260696
0.0260828
0.0260962
0.02611
0.026124
0.0261382
0.0261527
0.0261675
0.0261824
0.0261976
0.0262129
0.0262285
0.0262441
0.02626
0.0262759
0.026292
0.0263082
0.0263245
0.0263409
0.0263573
0.0263738
0.0263904
0.0264071
0.0264237
0.0264404
0.0264581
0.0264821
0.0265292
0.0266388
0.0268743
0.0272786
0.0278372
0.0285199
0.0292966
0.030142
0.0310371
0.031967
0.0259486
0.0259574
0.0259667
0.0259764
0.0259866
0.0259971
0.0260081
0.0260195
0.0260313
0.0260434
0.0260559
0.0260687
0.0260818
0.0260953
0.026109
0.026123
0.0261373
0.0261518
0.0261665
0.0261815
0.0261966
0.0262119
0.0262274
0.0262431
0.0262589
0.0262749
0.026291
0.0263072
0.0263235
0.0263398
0.0263563
0.0263728
0.0263894
0.0264061
0.0264227
0.0264395
0.0264569
0.0264803
0.0265255
0.0266304
0.0268579
0.0272535
0.0278054
0.028483
0.0292561
0.030099
0.0309921
0.0319214
0.0328757
0.0259482
0.025957
0.0259663
0.025976
0.0259861
0.0259967
0.0260077
0.0260191
0.0260308
0.0260429
0.0260554
0.0260682
0.0260813
0.0260948
0.0261085
0.0261225
0.0261367
0.0261512
0.026166
0.0261809
0.0261961
0.0262114
0.0262269
0.0262426
0.0262584
0.0262743
0.0262904
0.0263066
0.0263229
0.0263393
0.0263558
0.0263723
0.0263889
0.0264055
0.0264222
0.0264389
0.0264563
0.0264794
0.0265236
0.0266262
0.0268498
0.0272411
0.0277897
0.0284644
0.0292355
0.0300772
0.0309694
0.0318977
0.0328511
0.0259481
0.025957
0.0259662
0.0259759
0.0259861
0.0259966
0.0260076
0.026019
0.0260307
0.0260428
0.0260553
0.0260681
0.0260812
0.0260947
0.0261084
0.0261224
0.0261366
0.0261511
0.0261659
0.0261808
0.026196
0.0262113
0.0262268
0.0262425
0.0262583
0.0262743
0.0262903
0.0263065
0.0263228
0.0263392
0.0263557
0.0263722
0.0263888
0.0264054
0.0264221
0.0264389
0.0264563
0.0264793
0.0265235
0.0266261
0.0268497
0.027241
0.0277896
0.0284645
0.0292358
0.0300773
0.0309696
0.0318978
0.0328512
0.033822
0.0259484
0.0259572
0.0259665
0.0259762
0.0259863
0.0259969
0.0260079
0.0260193
0.026031
0.0260432
0.0260556
0.0260684
0.0260816
0.026095
0.0261087
0.0261227
0.026137
0.0261515
0.0261662
0.0261812
0.0261963
0.0262117
0.0262272
0.0262428
0.0262587
0.0262746
0.0262907
0.0263069
0.0263232
0.0263396
0.0263561
0.0263726
0.0263892
0.0264058
0.0264225
0.0264392
0.0264567
0.0264801
0.0265252
0.0266301
0.0268577
0.0272533
0.0278052
0.0284827
0.0292559
0.0300988
0.0309921
0.0319215
0.0328757
0.0338464
0.0259489
0.0259577
0.025967
0.0259768
0.0259869
0.0259975
0.0260085
0.0260199
0.0260317
0.0260438
0.0260563
0.0260692
0.0260823
0.0260958
0.0261095
0.0261235
0.0261378
0.0261523
0.026167
0.026182
0.0261971
0.0262125
0.026228
0.0262437
0.0262595
0.0262755
0.0262915
0.0263077
0.026324
0.0263404
0.0263569
0.0263734
0.02639
0.0264066
0.0264233
0.02644
0.0264577
0.0264817
0.0265288
0.0266385
0.026874
0.0272784
0.0278372
0.0285202
0.0292976
0.0301434
0.0310385
0.0319693
0.0329243
0.033896
0.0259497
0.0259586
0.0259679
0.0259777
0.0259879
0.0259985
0.0260095
0.026021
0.0260328
0.0260449
0.0260575
0.0260703
0.0260835
0.0260969
0.0261107
0.0261247
0.026139
0.0261535
0.0261683
0.0261832
0.0261984
0.0262138
0.0262293
0.026245
0.0262608
0.0262768
0.0262928
0.026309
0.0263253
0.0263417
0.0263582
0.0263747
0.0263913
0.0264079
0.0264246
0.0264413
0.0264592
0.0264843
0.0265345
0.0266515
0.0268992
0.0273168
0.0278857
0.0285766
0.0293593
0.0302092
0.0311074
0.0320396
0.0329959
0.0339681
0.0259507
0.0259597
0.0259691
0.0259789
0.0259892
0.0259998
0.0260109
0.0260224
0.0260342
0.0260464
0.026059
0.0260718
0.026085
0.0260985
0.0261123
0.0261263
0.0261406
0.0261552
0.02617
0.0261849
0.0262001
0.0262155
0.026231
0.0262467
0.0262625
0.0262785
0.0262946
0.0263108
0.0263271
0.0263435
0.02636
0.0263765
0.0263931
0.0264097
0.0264263
0.026443
0.0264613
0.026488
0.0265426
0.0266699
0.0269341
0.027369
0.0279514
0.0286528
0.0294431
0.030298
0.0311996
0.0321341
0.0330918
0.034065
0.0259521
0.0259611
0.0259706
0.0259805
0.0259908
0.0260015
0.0260126
0.0260241
0.026036
0.0260483
0.0260609
0.0260738
0.026087
0.0261005
0.0261143
0.0261284
0.0261427
0.0261573
0.0261721
0.0261871
0.0262023
0.0262176
0.0262332
0.0262489
0.0262648
0.0262807
0.0262968
0.026313
0.0263293
0.0263457
0.0263622
0.0263787
0.0263953
0.0264119
0.0264286
0.0264452
0.026464
0.0264928
0.0265536
0.0266947
0.0269799
0.027436
0.0280344
0.028748
0.0295473
0.0304087
0.0313151
0.0322528
0.0332122
0.0341866
0.0259538
0.0259629
0.0259724
0.0259824
0.0259927
0.0260035
0.0260147
0.0260263
0.0260382
0.0260505
0.0260631
0.0260761
0.0260894
0.0261029
0.0261168
0.0261309
0.0261452
0.0261598
0.0261746
0.0261896
0.0262049
0.0262203
0.0262358
0.0262515
0.0262674
0.0262834
0.0262995
0.0263157
0.026332
0.0263484
0.0263649
0.0263814
0.026398
0.0264146
0.0264313
0.026448
0.0264675
0.0264992
0.0265683
0.0267273
0.0270381
0.0275182
0.0281356
0.0288636
0.0296729
0.0305416
0.0314527
0.0323936
0.0333553
0.034331
0.0259557
0.0259649
0.0259745
0.0259846
0.025995
0.0260059
0.0260171
0.0260288
0.0260408
0.0260531
0.0260658
0.0260788
0.0260921
0.0261057
0.0261196
0.0261337
0.0261481
0.0261628
0.0261776
0.0261926
0.0262079
0.0262233
0.0262389
0.0262546
0.0262705
0.0262865
0.0263026
0.0263188
0.0263352
0.0263516
0.026368
0.0263846
0.0264012
0.0264178
0.0264345
0.0264513
0.0264717
0.0265075
0.026588
0.0267699
0.0271107
0.0276168
0.0282557
0.0289995
0.0298203
0.0306967
0.0316134
0.0325583
0.0335222
0.0344986
0.0259579
0.0259673
0.025977
0.0259871
0.0259977
0.0260086
0.0260199
0.0260316
0.0260437
0.0260561
0.0260688
0.0260819
0.0260953
0.0261089
0.0261228
0.026137
0.0261515
0.0261661
0.026181
0.0261961
0.0262113
0.0262268
0.0262424
0.0262581
0.026274
0.02629
0.0263062
0.0263224
0.0263387
0.0263551
0.0263716
0.0263881
0.0264047
0.0264214
0.026438
0.0264552
0.0264773
0.0265189
0.0266145
0.0268249
0.0271998
0.027734
0.0283959
0.0291566
0.0299897
0.0308749
0.0317975
0.0327461
0.0337125
0.0346903
0.0259605
0.0259699
0.0259797
0.02599
0.0260006
0.0260116
0.0260231
0.0260348
0.026047
0.0260595
0.0260723
0.0260854
0.0260988
0.0261125
0.0261265
0.0261407
0.0261552
0.0261699
0.0261848
0.0261999
0.0262152
0.0262307
0.0262463
0.0262621
0.026278
0.026294
0.0263101
0.0263264
0.0263427
0.0263591
0.0263756
0.0263921
0.0264087
0.0264253
0.0264419
0.0264597
0.0264847
0.0265344
0.0266499
0.0268946
0.0273077
0.027872
0.0285579
0.0293358
0.0301812
0.0310748
0.0320033
0.0329555
0.0339243
0.0349034
0.0259633
0.0259728
0.0259828
0.0259931
0.0260039
0.026015
0.0260265
0.0260384
0.0260506
0.0260632
0.0260761
0.0260892
0.0261027
0.0261165
0.0261305
0.0261448
0.0261593
0.026174
0.026189
0.0262041
0.0262195
0.026235
0.0262506
0.0262664
0.0262823
0.0262984
0.0263145
0.0263308
0.0263471
0.0263635
0.02638
0.0263965
0.0264131
0.0264297
0.0264463
0.0264651
0.026494
0.0265551
0.0266964
0.0269813
0.0274357
0.0280318
0.0287423
0.0295381
0.0303957
0.0312984
0.0322325
0.0331885
0.034159
0.0351393
0.0259663
0.025976
0.0259861
0.0259966
0.0260075
0.0260187
0.0260303
0.0260423
0.0260546
0.0260672
0.0260802
0.0260934
0.026107
0.0261208
0.0261349
0.0261492
0.0261638
0.0261786
0.0261936
0.0262088
0.0262241
0.0262397
0.0262553
0.0262712
0.0262871
0.0263032
0.0263193
0.0263356
0.0263519
0.0263684
0.0263849
0.0264014
0.026418
0.0264346
0.0264513
0.0264715
0.0265061
0.0265831
0.0267577
0.027088
0.0275837
0.028213
0.0289483
0.0297622
0.0306329
0.0315442
0.0324841
0.0334439
0.0344166
0.035398
0.0259697
0.0259796
0.0259898
0.0260004
0.0260114
0.0260228
0.0260345
0.0260465
0.0260589
0.0260716
0.0260847
0.026098
0.0261116
0.0261255
0.0261397
0.0261541
0.0261687
0.0261835
0.0261985
0.0262138
0.0262292
0.0262447
0.0262604
0.0262763
0.0262923
0.0263083
0.0263245
0.0263408
0.0263572
0.0263736
0.0263901
0.0264066
0.0264232
0.0264398
0.026457
0.0264797
0.0265228
0.0266218
0.0268375
0.0272175
0.0277542
0.028417
0.0291772
0.0300086
0.0308913
0.0318111
0.0327569
0.0337205
0.0346952
0.0356774
0.0259733
0.0259834
0.0259938
0.0260045
0.0260156
0.0260271
0.0260389
0.0260511
0.0260636
0.0260764
0.0260895
0.0261029
0.0261166
0.0261306
0.0261448
0.0261592
0.0261739
0.0261888
0.0262039
0.0262192
0.0262346
0.0262502
0.0262659
0.0262818
0.0262978
0.0263139
0.0263301
0.0263464
0.0263627
0.0263792
0.0263956
0.0264122
0.0264287
0.0264453
0.0264635
0.0264905
0.026546
0.0266747
0.0269393
0.0273722
0.0279503
0.0286459
0.0294297
0.0302781
0.0311732
0.0321016
0.0330527
0.034019
0.0349957
0.0359783
0.0259773
0.0259875
0.025998
0.0260089
0.0260201
0.0260317
0.0260437
0.026056
0.0260685
0.0260815
0.0260947
0.0261082
0.0261219
0.026136
0.0261503
0.0261648
0.0261795
0.0261944
0.0262096
0.0262249
0.0262404
0.026256
0.0262718
0.0262877
0.0263037
0.0263198
0.026336
0.0263523
0.0263687
0.0263851
0.0264016
0.0264182
0.0264347
0.0264514
0.0264712
0.0265047
0.0265786
0.0267463
0.0270665
0.0275522
0.0281721
0.0288995
0.0297065
0.0305713
0.0314777
0.0324133
0.0333691
0.0343384
0.0353159
0.0362991
0.0259815
0.0259919
0.0260025
0.0260136
0.026025
0.0260367
0.0260487
0.0260611
0.0260738
0.0260868
0.0261001
0.0261137
0.0261276
0.0261417
0.026156
0.0261706
0.0261854
0.0262004
0.0262156
0.026231
0.0262465
0.0262622
0.026278
0.0262939
0.0263099
0.0263261
0.0263423
0.0263586
0.026375
0.0263914
0.0264079
0.0264244
0.026441
0.0264582
0.0264811
0.0265248
0.0266251
0.0268421
0.0272225
0.0277583
0.0284193
0.0291771
0.0300058
0.0308858
0.0318025
0.0327454
0.0337055
0.0346771
0.0356562
0.0366394
0.025986
0.0259965
0.0260074
0.0260186
0.0260301
0.0260419
0.0260541
0.0260666
0.0260794
0.0260925
0.0261059
0.0261196
0.0261335
0.0261477
0.0261622
0.0261768
0.0261917
0.0262067
0.026222
0.0262374
0.0262529
0.0262687
0.0262845
0.0263005
0.0263165
0.0263327
0.0263489
0.0263653
0.0263817
0.0263981
0.0264146
0.0264311
0.0264476
0.0264661
0.0264943
0.0265536
0.0266903
0.0269661
0.0274088
0.0279935
0.028693
0.0294789
0.0303276
0.0312216
0.0321484
0.0330973
0.0340616
0.0350355
0.0360154
0.0369987
0.0259907
0.0260015
0.0260125
0.0260238
0.0260355
0.0260475
0.0260597
0.0260724
0.0260853
0.0260985
0.026112
0.0261257
0.0261398
0.0261541
0.0261686
0.0261833
0.0261982
0.0262133
0.0262286
0.0262441
0.0262597
0.0262755
0.0262913
0.0263073
0.0263234
0.0263396
0.0263559
0.0263722
0.0263886
0.0264051
0.0264216
0.0264382
0.0264548
0.0264755
0.0265125
0.0265957
0.0267809
0.0271221
0.0276244
0.0282568
0.0289922
0.0298041
0.0306715
0.0315791
0.0325145
0.033469
0.0344367
0.0354123
0.0363926
0.0373762
0.0259958
0.0260067
0.0260179
0.0260293
0.0260411
0.0260532
0.0260657
0.0260784
0.0260914
0.0261047
0.0261183
0.0261322
0.0261463
0.0261607
0.0261753
0.0261901
0.0262051
0.0262202
0.0262356
0.0262511
0.0262668
0.0262826
0.0262985
0.0263145
0.0263306
0.0263468
0.0263631
0.0263795
0.0263959
0.0264123
0.0264288
0.0264453
0.0264631
0.0264884
0.0265396
0.0266575
0.0269032
0.0273134
0.0278713
0.0285489
0.0293177
0.0301536
0.0310376
0.0319565
0.0328997
0.0338594
0.03483
0.0358069
0.0367877
0.037771
0.0260011
0.0260122
0.0260235
0.0260351
0.026047
0.0260593
0.0260718
0.0260846
0.0260978
0.0261112
0.0261249
0.0261389
0.0261531
0.0261676
0.0261822
0.0261971
0.0262122
0.0262274
0.0262428
0.0262584
0.0262741
0.0262899
0.0263059
0.026322
0.0263381
0.0263543
0.0263706
0.026387
0.0264034
0.0264199
0.0264364
0.026453
0.0264728
0.0265062
0.02658
0.0267459
0.0270614
0.0275399
0.0281514
0.0288703
0.0296691
0.0305261
0.0314255
0.0323549
0.0333052
0.0342689
0.0352414
0.0362192
0.0372002
0.0381831
0.0260067
0.0260179
0.0260294
0.0260412
0.0260532
0.0260655
0.0260782
0.0260912
0.0261044
0.026118
0.0261318
0.0261458
0.0261602
0.0261747
0.0261894
0.0262044
0.0262195
0.0262349
0.0262503
0.026266
0.0262817
0.0262976
0.0263136
0.0263297
0.0263459
0.0263621
0.0263784
0.0263948
0.0264112
0.0264277
0.0264441
0.0264616
0.0264856
0.0265328
0.0266408
0.026869
0.0272587
0.027799
0.0284615
0.029218
0.0300439
0.0309206
0.0318332
0.0327716
0.0337274
0.0346943
0.035668
0.0366463
0.0376271
0.0386096
0.0260125
0.026024
0.0260355
0.0260474
0.0260595
0.026072
0.0260848
0.0260979
0.0261113
0.0261249
0.0261389
0.026153
0.0261674
0.0261821
0.0261969
0.0262119
0.0262272
0.0262425
0.0262581
0.0262737
0.0262896
0.0263055
0.0263215
0.0263376
0.0263538
0.0263701
0.0263865
0.0264029
0.0264193
0.0264358
0.0264523
0.0264718
0.0265038
0.0265734
0.0267301
0.0270314
0.0274954
0.0280939
0.0288017
0.0295914
0.0304414
0.0313349
0.0322594
0.0332055
0.0341656
0.0351352
0.0361102
0.0370883
0.0380684
0.0390504
0.0260187
0.0260302
0.0260419
0.0260538
0.0260661
0.0260787
0.0260916
0.0261048
0.0261183
0.0261321
0.0261462
0.0261604
0.0261749
0.0261897
0.0262046
0.0262197
0.026235
0.0262504
0.026266
0.0262818
0.0262976
0.0263136
0.0263297
0.0263458
0.0263621
0.0263784
0.0263947
0.0264111
0.0264276
0.026444
0.0264615
0.0264853
0.0265314
0.0266361
0.0268571
0.0272369
0.0277675
0.0284208
0.0291695
0.0299891
0.0308604
0.0317689
0.032703
0.0336552
0.0346192
0.0355906
0.0365662
0.0375442
0.0385239
0.0395059
0.0260251
0.0260366
0.0260483
0.0260604
0.0260728
0.0260855
0.0260986
0.026112
0.0261256
0.0261395
0.0261537
0.026168
0.0261827
0.0261975
0.0262125
0.0262277
0.026243
0.0262585
0.0262742
0.02629
0.0263059
0.0263219
0.026338
0.0263542
0.0263705
0.0263868
0.0264032
0.0264197
0.0264362
0.0264528
0.0264724
0.026505
0.0265747
0.0267299
0.0270268
0.0274846
0.0280768
0.0287791
0.029564
0.0304095
0.0312993
0.0322207
0.0331635
0.0341209
0.0350877
0.0360601
0.0370359
0.0380141
0.0389939
0.0399759
0.0260318
0.0260432
0.026055
0.0260672
0.0260797
0.0260926
0.0261058
0.0261193
0.0261331
0.0261471
0.0261614
0.0261759
0.0261906
0.0262055
0.0262206
0.0262359
0.0262513
0.0262669
0.0262826
0.0262984
0.0263144
0.0263304
0.0263466
0.0263628
0.0263791
0.0263955
0.0264119
0.0264284
0.0264449
0.0264628
0.0264878
0.0265359
0.0266427
0.0268638
0.0272415
0.027769
0.0284193
0.0291653
0.029982
0.0308506
0.0317565
0.0326881
0.0336379
0.0345996
0.0355688
0.0365423
0.0375183
0.038496
0.0394759
0.0404582
0.0260319
0.0260432
0.026055
0.0260672
0.0260798
0.0260927
0.0261059
0.0261194
0.0261332
0.0261472
0.0261615
0.026176
0.0261907
0.0262056
0.0262207
0.026236
0.0262514
0.026267
0.0262827
0.0262985
0.0263145
0.0263305
0.0263467
0.0263629
0.0263792
0.0263956
0.026412
0.0264285
0.026445
0.0264629
0.0264879
0.0265361
0.0266428
0.026864
0.0272417
0.0277692
0.0284192
0.0291653
0.0299824
0.0308508
0.0317567
0.0326884
0.0336378
0.0345989
0.0355678
0.0365413
0.0375177
0.0384958
0.0394755
0.040458
0.0260253
0.0260369
0.0260486
0.0260606
0.026073
0.0260858
0.0260989
0.0261122
0.0261259
0.0261398
0.0261539
0.0261683
0.026183
0.0261978
0.0262128
0.026228
0.0262434
0.0262589
0.0262745
0.0262903
0.0263062
0.0263222
0.0263384
0.0263546
0.0263708
0.0263872
0.0264036
0.02642
0.0264365
0.0264531
0.0264728
0.0265053
0.0265751
0.0267302
0.0270272
0.027485
0.0280772
0.0287792
0.0295642
0.03041
0.0312994
0.0322199
0.0331624
0.0341197
0.0350861
0.0360587
0.0370345
0.0380127
0.0389926
0.0399746
0.026019
0.0260306
0.0260423
0.0260542
0.0260665
0.0260791
0.026092
0.0261053
0.0261188
0.0261326
0.0261466