/*--------------------------------*- C++ -*----------------------------------*\
  =========                 |
  \\      /  F ield         | OpenFOAM: The Open Source CFD Toolbox
   \\    /   O peration     | Website:  https://openfoam.org
    \\  /    A nd           | Version:  7
     \\/     M anipulation  |
\*---------------------------------------------------------------------------*/
FoamFile
{
    version     2.0;
    format      ascii;
    class       volScalarField;
    location    "100000";
    object      omega;
}
// * * * * * * * * * * * * * * * * * * * * * * * * * * * * * * * * * * * * * //

dimensions      [0 0 -1 0 0 0 0];

internalField   nonuniform List<scalar> 
4844
(
0.0350334
0.0351901
0.035362
0.0356716
0.0358309
0.0360056
0.0361957
0.0364009
0.0366211
0.0368561
0.0371057
0.0363216
0.0364835
0.0366611
0.0368543
0.0370628
0.0372866
0.0375253
0.0377789
0.038047
0.0383294
0.0386258
0.0369837
0.0371482
0.0373287
0.0375249
0.0377368
0.0379641
0.0382067
0.0384643
0.0387367
0.0390236
0.0393248
0.0396398
0.0399684
0.0403102
0.0406649
0.0410325
0.037658
0.0378251
0.0380085
0.0382079
0.0384231
0.0386541
0.0389005
0.0391622
0.039439
0.0397304
0.0400363
0.0403563
0.0406901
0.0410372
0.0413974
0.0417708
0.0383446
0.0385144
0.0387007
0.0389033
0.039122
0.0393566
0.0396069
0.0398728
0.0401539
0.0404499
0.0407606
0.0410857
0.0414247
0.0417773
0.0421431
0.0425223
0.0392164
0.0394056
0.0396114
0.0398335
0.0400719
0.0403262
0.0405962
0.0408818
0.0411825
0.0414981
0.0418282
0.0421726
0.0425307
0.0429022
0.0432873
0.0399312
0.0401234
0.0403324
0.0405581
0.0408002
0.0410585
0.0413328
0.0416229
0.0419283
0.0422489
0.0425842
0.0429339
0.0432977
0.043675
0.0440661
0.040659
0.0408543
0.0410666
0.0412958
0.0415418
0.0418042
0.0420828
0.0423774
0.0426877
0.0430133
0.0433539
0.0437091
0.0440786
0.0444618
0.044859
0.0412195
0.0414003
0.0415986
0.0418143
0.0420471
0.0422969
0.0425635
0.0428465
0.0431457
0.0434609
0.0437916
0.0441376
0.0444984
0.0448736
0.0452629
0.0456663
0.0419715
0.0421551
0.0423566
0.0425756
0.0428121
0.0430659
0.0433366
0.0436241
0.0439281
0.0442482
0.0445842
0.0449356
0.0453021
0.0456832
0.0460786
0.0464883
0.0427374
0.0429239
0.0431285
0.043351
0.0435912
0.043849
0.044124
0.0444161
0.0447248
0.04505
0.0453913
0.0457482
0.0461205
0.0465077
0.0469093
0.0473255
0.0435174
0.0437069
0.0439147
0.0441407
0.0443847
0.0446466
0.044926
0.0452226
0.0455363
0.0458666
0.0462132
0.0465759
0.046954
0.0473473
0.0477553
0.0481781
0.0441383
0.0443119
0.0445044
0.0447155
0.0449451
0.045193
0.045459
0.0457428
0.0460441
0.0463628
0.0466983
0.0470505
0.0474189
0.0478031
0.0482026
0.0486171
0.0490465
0.0449449
0.0451213
0.0453168
0.0455312
0.0457644
0.0460163
0.0462865
0.0465748
0.046881
0.0472047
0.0475456
0.0479033
0.0482776
0.0486679
0.0490739
0.0494949
0.0499312
0.0456071
0.0457666
0.0459458
0.0461444
0.0463622
0.0465992
0.046855
0.0471295
0.0474224
0.0477335
0.0480624
0.0484087
0.0487722
0.0491525
0.0495491
0.0499615
0.0503893
0.0508326
0.0464418
0.0466039
0.0467859
0.0469876
0.0472089
0.0474496
0.0477096
0.0479885
0.0482861
0.0486021
0.0489363
0.0492882
0.0496575
0.0500439
0.0504469
0.050866
0.0513007
0.0517511
0.0472923
0.047457
0.0476419
0.0478468
0.0480717
0.0483163
0.0485804
0.0488637
0.0491661
0.0494872
0.0498268
0.0501844
0.0505597
0.0509523
0.0513618
0.0517877
0.0522295
0.0526872
0.048159
0.0483264
0.0485142
0.0487225
0.0489509
0.0491994
0.0494678
0.0497557
0.050063
0.0503893
0.0507343
0.0510978
0.0514792
0.0518782
0.0522943
0.0527271
0.0531761
0.0536413
0.0490425
0.0492125
0.0494033
0.0496149
0.0498471
0.0500996
0.0503723
0.0506649
0.0509771
0.0513088
0.0516594
0.0520288
0.0524164
0.0528219
0.0532449
0.0536848
0.0541411
0.0546139
0.049943
0.0501157
0.0503097
0.0505247
0.0507606
0.0510172
0.0512943
0.0515917
0.051909
0.0522461
0.0526025
0.0529779
0.0533719
0.0537841
0.054214
0.0546611
0.055125
0.0556056
0.050861
0.0510366
0.0512337
0.0514522
0.0516919
0.0519527
0.0522344
0.0525366
0.0528592
0.0532017
0.053564
0.0539456
0.0543461
0.0547651
0.0552022
0.0556567
0.0561283
0.0566169
0.0517971
0.0519755
0.0521758
0.0523979
0.0526416
0.0529067
0.0531929
0.0535001
0.053828
0.0541763
0.0545445
0.0549325
0.0553396
0.0557656
0.0562099
0.0566721
0.0571515
0.0576483
0.0527517
0.052933
0.0531366
0.0533624
0.0536101
0.0538795
0.0541705
0.0544828
0.0548162
0.0551702
0.0555446
0.055939
0.056353
0.0567861
0.0572379
0.0577078
0.0581953
0.0587004
0.0537254
0.0539097
0.0541167
0.0543461
0.0545979
0.0548719
0.0551677
0.0554852
0.0558241
0.0561841
0.0565648
0.0569658
0.0573867
0.0578272
0.0582866
0.0587644
0.0592602
0.0597739
0.0547187
0.0549061
0.0551164
0.0553497
0.0556057
0.0558842
0.056185
0.0565079
0.0568525
0.0572185
0.0576056
0.0580134
0.0584415
0.0588894
0.0593566
0.0598426
0.0603469
0.0608693
0.0557322
0.0559226
0.0561365
0.0563737
0.056634
0.0569172
0.0572231
0.0575514
0.0579018
0.058274
0.0586677
0.0590825
0.0595179
0.0599735
0.0604486
0.060943
0.0614559
0.0619873
0.0567664
0.0569601
0.0571776
0.0574187
0.0576834
0.0579714
0.0582825
0.0586163
0.0589727
0.0593513
0.0597518
0.0601737
0.0606165
0.06108
0.0615633
0.0620662
0.062588
0.0631286
0.057822
0.0580189
0.0582401
0.0584854
0.0587546
0.0590475
0.0593638
0.0597034
0.0600659
0.0604511
0.0608584
0.0612876
0.0617381
0.0622096
0.0627014
0.063213
0.0637439
0.064294
0.0588996
0.0590999
0.0593249
0.0595743
0.0598481
0.060146
0.0604679
0.0608133
0.0611821
0.0615739
0.0619883
0.062425
0.0628834
0.0633631
0.0638635
0.064384
0.0649243
0.065484
0.0598214
0.0599999
0.0602037
0.0604325
0.0606863
0.0609648
0.0612678
0.0615952
0.0619467
0.0623219
0.0627205
0.0631422
0.0635865
0.064053
0.0645411
0.0650503
0.0655801
0.0661299
0.0666996
0.060942
0.0611236
0.0613309
0.0615637
0.0618218
0.0621052
0.0624135
0.0627466
0.0631042
0.063486
0.0638917
0.0643208
0.064773
0.0652477
0.0657445
0.0662628
0.066802
0.0673616
0.0679414
0.0619281
0.0620867
0.0622715
0.0624823
0.0627192
0.0629819
0.0632702
0.0635839
0.0639229
0.0642868
0.0646753
0.0650882
0.0655249
0.0659851
0.0664683
0.066974
0.0675016
0.0680505
0.0686201
0.0692104
0.0630949
0.0632562
0.0634442
0.0636588
0.0638998
0.0641671
0.0644605
0.0647798
0.0651247
0.0654951
0.0658905
0.0663108
0.0667553
0.0672238
0.0677157
0.0682305
0.0687676
0.0693265
0.0699064
0.0705074
0.0642871
0.0644513
0.0646426
0.0648609
0.0651062
0.0653783
0.0656769
0.0660019
0.066353
0.06673
0.0671325
0.0675603
0.0680129
0.0684899
0.0689907
0.0695149
0.0700618
0.0706308
0.0712213
0.0718334
0.0655057
0.0656727
0.0658675
0.0660897
0.0663394
0.0666163
0.0669202
0.0672511
0.0676085
0.0679923
0.0684022
0.0688377
0.0692985
0.0697842
0.0702942
0.070828
0.0713849
0.0719644
0.0725658
0.0731891
0.0667514
0.0669215
0.0671197
0.067346
0.0676001
0.067882
0.0681915
0.0685283
0.0688922
0.069283
0.0697003
0.0701438
0.0706131
0.0711077
0.0716271
0.0721708
0.072738
0.0733282
0.0739408
0.0745757
0.0680253
0.0681984
0.0684002
0.0686306
0.0688893
0.0691763
0.0694914
0.0698344
0.070205
0.0706029
0.0710279
0.0714796
0.0719576
0.0724614
0.0729904
0.0735442
0.074122
0.0747233
0.0753473
0.0759941
0.0693281
0.0695045
0.0697099
0.0699445
0.070208
0.0705002
0.0708211
0.0711704
0.0715478
0.0719531
0.072386
0.0728461
0.073333
0.0738462
0.0743852
0.0749493
0.075538
0.0761506
0.0767865
0.0774455
0.070661
0.0708406
0.0710498
0.0712887
0.071557
0.0718547
0.0721815
0.0725373
0.0729217
0.0733346
0.0737756
0.0742443
0.0747403
0.0752632
0.0758124
0.0763872
0.0769871
0.0776114
0.0782593
0.0789308
0.0720249
0.0722078
0.0724209
0.0726642
0.0729375
0.0732407
0.0735737
0.0739361
0.0743277
0.0747484
0.0751977
0.0756752
0.0761807
0.0767135
0.0772731
0.077859
0.0784704
0.0791066
0.079767
0.0804514
0.0734208
0.0736071
0.0738242
0.0740721
0.0743505
0.0746594
0.0749986
0.0753679
0.075767
0.0761956
0.0766534
0.0771401
0.0776552
0.0781982
0.0787686
0.0793658
0.079989
0.0806376
0.0813107
0.0820084
0.0748499
0.0750397
0.0752609
0.0755134
0.0757972
0.076112
0.0764576
0.0768339
0.0772406
0.0776774
0.078144
0.07864
0.0791651
0.0797186
0.0803001
0.0809088
0.0815442
0.0822054
0.0828917
0.083603
0.0763133
0.0765067
0.0767322
0.0769895
0.0772787
0.0775995
0.0779517
0.0783352
0.0787498
0.079195
0.0796706
0.0801763
0.0807115
0.0812759
0.0818687
0.0824894
0.0831373
0.0838115
0.0845114
0.0852366
0.0778123
0.0780094
0.0782392
0.0785015
0.0787962
0.0791232
0.0794822
0.0798732
0.0802958
0.0807497
0.0812346
0.0817501
0.0822959
0.0828713
0.0834759
0.0841089
0.0847696
0.0854573
0.086171
0.0869106
0.079348
0.079549
0.0797832
0.0800506
0.080351
0.0806844
0.0810505
0.0814491
0.0818799
0.0823427
0.0828372
0.0833629
0.0839195
0.0845063
0.0851229
0.0857686
0.0864425
0.087144
0.0878721
0.0886265
0.0809219
0.0811268
0.0813656
0.0816382
0.0819446
0.0822845
0.0826577
0.0830642
0.0835036
0.0839755
0.0844798
0.085016
0.0855837
0.0861823
0.0868113
0.0874699
0.0881575
0.0888732
0.0896161
0.0903856
0.0825353
0.0827442
0.0829877
0.0832657
0.0835782
0.0839248
0.0843055
0.08472
0.0851682
0.0856496
0.086164
0.0867109
0.08729
0.0879008
0.0885425
0.0892146
0.0899161
0.0906465
0.0914046
0.0921897
0.0841896
0.0844027
0.0846511
0.0849346
0.0852533
0.0856069
0.0859952
0.0864181
0.0868752
0.0873664
0.0878912
0.0884492
0.0890401
0.0896633
0.0903181
0.091004
0.09172
0.0924654
0.0932392
0.0940404
0.0858865
0.0861038
0.0863572
0.0866464
0.0869715
0.0873323
0.0877284
0.0881599
0.0886263
0.0891275
0.089663
0.0902324
0.0908354
0.0914714
0.0921398
0.0928399
0.0935708
0.0943318
0.0951217
0.0959395
0.0876273
0.0878491
0.0881076
0.0884028
0.0887345
0.0891026
0.0895068
0.0899471
0.0904231
0.0909345
0.0914811
0.0920623
0.0926778
0.093327
0.0940093
0.094724
0.0954703
0.0962473
0.0970539
0.0978886
0.0894139
0.0896402
0.089904
0.0902053
0.0905438
0.0909195
0.0913321
0.0917814
0.0922673
0.0927893
0.0933472
0.0939406
0.0945689
0.0952318
0.0959284
0.0966582
0.0974203
0.0982138
0.0990377
0.09989
0.0912481
0.091479
0.0917483
0.0920558
0.0924013
0.0927848
0.093206
0.0936647
0.0941607
0.0946937
0.0952633
0.0958691
0.0965108
0.0971876
0.0978991
0.0986444
0.0994227
0.100233
0.101075
0.101946
0.0931315
0.0933673
0.0936422
0.0939561
0.0943089
0.0947004
0.0951304
0.0955988
0.0961053
0.0966496
0.0972313
0.0978499
0.0985052
0.0991966
0.0999233
0.100685
0.10148
0.102308
0.103168
0.104059
0.0950662
0.0953069
0.0955876
0.0959081
0.0962684
0.0966682
0.0971074
0.0975858
0.0981031
0.0986589
0.0992531
0.099885
0.100554
0.101261
0.102003
0.102781
0.103593
0.10444
0.105319
0.106231
0.098282
0.0986904
0.099139
0.0996277
0.100156
0.100724
0.101331
0.101977
0.10266
0.103382
0.104141
0.104936
0.105766
0.106632
0.107531
0.108465
0.102267
0.102847
0.103467
0.104127
0.104826
0.105563
0.106339
0.107152
0.108001
0.108886
0.109807
0.110762
0.044066
0.0436749
0.0448589
0.0444617
0.0456662
0.0452628
0.0464882
0.0460785
0.0456831
0.0473253
0.0469092
0.0465075
0.0481779
0.0477552
0.0473472
0.0469539
0.0490464
0.048617
0.0482025
0.0478029
0.0499311
0.0494948
0.0490737
0.0486678
0.0508325
0.0503892
0.0499614
0.0495489
0.0491523
0.051751
0.0513006
0.0508658
0.0504467
0.0500437
0.052687
0.0522293
0.0517875
0.0513616
0.0509521
0.0536411
0.053176
0.052727
0.0522941
0.051878
0.0546138
0.054141
0.0536846
0.0532447
0.0528217
0.0556054
0.0551248
0.054661
0.0542138
0.0537839
0.0566167
0.0561281
0.0556565
0.055202
0.0547649
0.0543459
0.0576481
0.0571514
0.0566719
0.0562097
0.0557654
0.0553394
0.0587002
0.0581951
0.0577076
0.0572377
0.0567859
0.0563527
0.0559388
0.0597737
0.05926
0.0587642
0.0582864
0.057827
0.0573865
0.0569655
0.0565645
0.0608691
0.0603467
0.0598424
0.0593564
0.0588892
0.0584413
0.0580132
0.0576053
0.0572182
0.0619871
0.0614557
0.0609428
0.0604485
0.0599732
0.0595177
0.0590822
0.0586675
0.0582738
0.0579015
0.0631284
0.0625878
0.062066
0.0615632
0.0610797
0.0606163
0.0601734
0.0597515
0.0593511
0.0589725
0.0642938
0.0637437
0.0632128
0.0627012
0.0622094
0.0617379
0.0612873
0.0608581
0.0604508
0.0600657
0.0654838
0.064924
0.0643839
0.0638633
0.0633628
0.0628831
0.0624247
0.061988
0.0615736
0.0611818
0.0666994
0.0661297
0.0655799
0.0650501
0.0645409
0.0640527
0.0635862
0.0631419
0.0627202
0.0623216
0.0679412
0.0673613
0.0668018
0.0662626
0.0657443
0.0652474
0.0647727
0.0643205
0.0638914
0.0634857
0.0692102
0.0686199
0.0680503
0.0675014
0.0669738
0.0664681
0.0659848
0.0655246
0.0650879
0.064675
0.0705072
0.0699062
0.0693262
0.0687674
0.0682303
0.0677154
0.0672235
0.066755
0.0663104
0.0658902
0.0718331
0.0712211
0.0706305
0.0700615
0.0695146
0.0689904
0.0684896
0.0680126
0.06756
0.0671322
0.0731889
0.0725655
0.0719641
0.0713846
0.0708277
0.0702939
0.0697839
0.0692982
0.0688374
0.0684018
0.0745754
0.0739405
0.0733279
0.0727377
0.0721704
0.0716268
0.0711074
0.0706128
0.0701435
0.0697
0.0759939
0.0753471
0.074723
0.0741217
0.0735439
0.0729901
0.072461
0.0719572
0.0714793
0.0710276
0.0774452
0.0767862
0.0761503
0.0755377
0.074949
0.0743848
0.0738458
0.0733326
0.0728457
0.0723857
0.044066
0.0448589
0.0456662
0.0464882
0.0473254
0.048178
0.0490464
0.0499311
0.0508325
0.051751
0.052687
0.0536411
0.0546138
0.0556054
0.0566167
0.0576481
0.0587002
0.0597737
0.0608691
0.0619872
0.0631285
0.0642938
0.0654838
0.0666994
0.0679413
0.0692102
0.0705072
0.0718331
0.0731889
0.0745755
0.0759939
0.0774452
0.043675
0.0444617
0.0452628
0.0460785
0.0469092
0.0477552
0.048617
0.0494949
0.0503893
0.0513006
0.0522294
0.053176
0.054141
0.0551249
0.0561282
0.0571514
0.0581952
0.0592601
0.0603467
0.0614557
0.0625879
0.0637437
0.0649241
0.0661298
0.0673614
0.06862
0.0699063
0.0712212
0.0725656
0.0739406
0.0753472
0.0767863
0.0782591
0.0432976
0.0440785
0.0448736
0.0456832
0.0465076
0.0473473
0.0482025
0.0490738
0.0499614
0.0508659
0.0517876
0.052727
0.0536847
0.054661
0.0556566
0.056672
0.0577077
0.0587643
0.0598425
0.0609429
0.0620661
0.0632129
0.0643839
0.06558
0.0668019
0.0680504
0.0693263
0.0706307
0.0719643
0.0733281
0.0747232
0.0761505
0.0776112
0.0791065
0.0806374
0.0822053
0.0838114
0.0854571
0.0429339
0.0437091
0.0444983
0.045302
0.0461204
0.046954
0.047803
0.0486679
0.049549
0.0504468
0.0513617
0.0522942
0.0532448
0.0542139
0.0552021
0.0562098
0.0572378
0.0582865
0.0593565
0.0604485
0.0615632
0.0627013
0.0638633
0.0650502
0.0662627
0.0675015
0.0687675
0.0700616
0.0713848
0.0727379
0.0741219
0.0755379
0.076987
0.0784702
0.0799888
0.081544
0.0831371
0.0847694
0.0425842
0.0433538
0.0441375
0.0449355
0.0457482
0.0465758
0.0474188
0.0482776
0.0491524
0.0500439
0.0509523
0.0518781
0.0528219
0.053784
0.054765
0.0557655
0.056786
0.0578271
0.0588893
0.0599734
0.0610799
0.0622095
0.063363
0.064541
0.0657444
0.0669739
0.0682304
0.0695148
0.0708279
0.0721706
0.0735441
0.0749492
0.0763871
0.0778588
0.0793656
0.0809087
0.0824892
0.0841087
0.0422488
0.0430133
0.0437916
0.0445841
0.0453912
0.0462132
0.0470505
0.0479033
0.0487722
0.0496575
0.0505597
0.0514791
0.0524163
0.0533718
0.0543461
0.0553396
0.0563529
0.0573867
0.0584414
0.0595178
0.0606165
0.0617381
0.0628833
0.0640529
0.0652476
0.0664683
0.0677156
0.0689906
0.0702941
0.071627
0.0729903
0.074385
0.0758122
0.077273
0.0787685
0.0802999
0.0818685
0.0834757
0.0851227
0.0419283
0.0426877
0.0434609
0.0442482
0.04505
0.0458666
0.0466983
0.0475456
0.0484087
0.0492882
0.0501844
0.0510977
0.0520287
0.0529778
0.0539456
0.0549324
0.055939
0.0569657
0.0580134
0.0590824
0.0601736
0.0612875
0.0624249
0.0635864
0.0647729
0.065985
0.0672237
0.0684898
0.0697841
0.0711076
0.0724613
0.073846
0.075263
0.0767133
0.0781981
0.0797185
0.0812757
0.0828711
0.0845061
0.0416229
0.0423774
0.0431457
0.0439281
0.0447248
0.0455363
0.0463627
0.0472046
0.0480623
0.0489362
0.0498267
0.0507343
0.0516594
0.0526024
0.053564
0.0545445
0.0555446
0.0565647
0.0576056
0.0586677
0.0597517
0.0608583
0.0619882
0.0631421
0.0643207
0.0655248
0.0667552
0.0680128
0.0692984
0.070613
0.0719575
0.0733328
0.0747402
0.0761805
0.077655
0.0791649
0.0807114
0.0822957
0.0839193
0.0413328
0.0420828
0.0428465
0.0436241
0.0444161
0.0452226
0.0460441
0.0468809
0.0477335
0.0486021
0.0494872
0.0503893
0.0513087
0.052246
0.0532017
0.0541762
0.0551701
0.056184
0.0572184
0.058274
0.0593513
0.060451
0.0615738
0.0627204
0.0638916
0.0650881
0.0663107
0.0675602
0.0688376
0.0701437
0.0714795
0.072846
0.0742441
0.0756751
0.0771399
0.0786399
0.0801761
0.0817499
0.0833627
0.0410585
0.0418042
0.0425635
0.0433366
0.044124
0.044926
0.0457428
0.0465748
0.0474224
0.048286
0.0491661
0.050063
0.0509771
0.051909
0.0528591
0.053828
0.0548161
0.0558241
0.0568524
0.0579017
0.0589727
0.0600659
0.061182
0.0623218
0.0634859
0.0646752
0.0658905
0.0671324
0.068402
0.0697002
0.0710278
0.0723859
0.0737754
0.0751975
0.0766532
0.0781438
0.0796704
0.0812344
0.0828369
0.0408002
0.0415418
0.0422969
0.0430659
0.043849
0.0446466
0.045459
0.0462865
0.0471295
0.0479885
0.0488637
0.0497557
0.0506649
0.0515917
0.0525366
0.0535001
0.0544828
0.0554852
0.0565078
0.0575513
0.0586163
0.0597034
0.0608132
0.0619466
0.0631041
0.0642867
0.065495
0.0667299
0.0679922
0.0692829
0.0706028
0.071953
0.0733344
0.0747482
0.0761954
0.0776772
0.0791948
0.0807494
0.0823425
0.0412959
0.0420471
0.0428122
0.0435913
0.0443848
0.045193
0.0460163
0.046855
0.0477096
0.0485803
0.0494677
0.0503722
0.0512943
0.0522343
0.0531929
0.0541705
0.0551677
0.056185
0.057223
0.0582824
0.0593638
0.0604678
0.0615951
0.0627465
0.0639228
0.0651246
0.0663528
0.0676084
0.068892
0.0702048
0.0715476
0.0729215
0.0743275
0.0757668
0.0772404
0.0787495
0.0802955
0.0818796
0.0418143
0.0425756
0.043351
0.0441407
0.0449451
0.0457644
0.0465992
0.0474496
0.0483162
0.0491994
0.0500996
0.0510172
0.0519527
0.0529066
0.0538795
0.0548718
0.0558842
0.0569171
0.0579713
0.0590474
0.0601459
0.0612677
0.0624134
0.0635838
0.0647796
0.0660017
0.0672509
0.0685281
0.0698342
0.0711702
0.0725371
0.0739359
0.0753677
0.0768336
0.078335
0.0798729
0.0814488
0.0415986
0.0423566
0.0431285
0.0439147
0.0447155
0.0455312
0.0463622
0.0472089
0.0480717
0.0489509
0.0498471
0.0507606
0.0516919
0.0526415
0.05361
0.0545979
0.0556057
0.056634
0.0576834
0.0587545
0.059848
0.0609647
0.0621051
0.06327
0.0644603
0.0656767
0.0669201
0.0681913
0.0694912
0.0708209
0.0721813
0.0735735
0.0749984
0.0764574
0.0779515
0.079482
0.0810502
0.0421552
0.0429239
0.0437069
0.0445044
0.0453168
0.0461444
0.0469876
0.0478468
0.0487224
0.0496149
0.0505246
0.0514521
0.0523979
0.0533623
0.0543461
0.0553497
0.0563737
0.0574187
0.0584853
0.0595743
0.0606862
0.0618217
0.0629817
0.0641669
0.0653781
0.0666161
0.0678818
0.0691762
0.0705
0.0718545
0.0732405
0.0746592
0.0761117
0.0775992
0.0791229
0.0806841
0.0419716
0.0427374
0.0435174
0.0443119
0.0451213
0.0459458
0.0467859
0.0476419
0.0485142
0.0494033
0.0503096
0.0512336
0.0521758
0.0531366
0.0541167
0.0551164
0.0561365
0.0571775
0.0582401
0.0593248
0.0604324
0.0615636
0.0627191
0.0638996
0.0651061
0.0663392
0.0676
0.0688892
0.0702078
0.0715568
0.0729373
0.0743503
0.0757969
0.0772784
0.0787959
0.0803507
0.0425691
0.0433465
0.0441383
0.0449449
0.0457667
0.0466039
0.047457
0.0483264
0.0492125
0.0501157
0.0510366
0.0519755
0.052933
0.0539097
0.054906
0.0559226
0.05696
0.0580189
0.0590998
0.0602036
0.0613308
0.0624822
0.0636586
0.0648608
0.0660896
0.0673458
0.0686304
0.0699443
0.0712885
0.072664
0.0740718
0.0755132
0.0769893
0.0785012
0.0800503
0.0431943
0.0439837
0.0447879
0.0456071
0.0464418
0.0472923
0.0481591
0.0490425
0.049943
0.050861
0.0517971
0.0527517
0.0537254
0.0547187
0.0557321
0.0567663
0.0578219
0.0588996
0.0599999
0.0611236
0.0622714
0.0634441
0.0646425
0.0658673
0.0671196
0.0684001
0.0697098
0.0710496
0.0724207
0.073824
0.0752607
0.0767319
0.0782389
0.0797829
0.0430608
0.0438482
0.0446502
0.0454672
0.0462997
0.047148
0.0480124
0.0488935
0.0497916
0.0507072
0.0516408
0.0525929
0.0535639
0.0545545
0.0555652
0.0565967
0.0576494
0.058724
0.0598214
0.060942
0.0620866
0.0632561
0.0644512
0.0656726
0.0669214
0.0681983
0.0695043
0.0708404
0.0722075
0.0736069
0.0750395
0.0765065
0.0780091
0.0795487
0.0429463
0.0437318
0.044532
0.0453472
0.0461777
0.0470241
0.0478865
0.0487656
0.0496616
0.0505751
0.0515066
0.0524565
0.0534253
0.0544136
0.055422
0.056451
0.0575013
0.0585734
0.0596682
0.0607861
0.0619281
0.0630948
0.064287
0.0655056
0.0667513
0.0680252
0.069328
0.0706609
0.0720247
0.0734206
0.0748497
0.0763131
0.0778121
0.0793478
0.0428507
0.0436347
0.0444333
0.045247
0.046076
0.0469207
0.0477815
0.0486589
0.0495532
0.050465
0.0513946
0.0523427
0.0533096
0.054296
0.0553025
0.0563295
0.0573777
0.0584478
0.0595404
0.0606561
0.0617959
0.0629602
0.0641501
0.0653662
0.0666095
0.0678808
0.069181
0.0705111
0.0718722
0.0732653
0.0746914
0.0761519
0.0776477
0.0791803
0.0435569
0.0443544
0.0451667
0.0459945
0.0468379
0.0476974
0.0485734
0.0494664
0.0503767
0.051305
0.0522516
0.053217
0.0542019
0.0552068
0.0562322
0.0572788
0.0583472
0.059438
0.0605521
0.06169
0.0628525
0.0640405
0.0652546
0.0664959
0.0677651
0.0690633
0.0703913
0.0717501
0.0731409
0.0745648
0.0760228
0.0775161
0.0790462
0.0434985
0.0442951
0.0451065
0.0459333
0.0467757
0.0476343
0.0485093
0.0494012
0.0503105
0.0512377
0.0521832
0.0531475
0.0541313
0.0551349
0.0561592
0.0572045
0.0582717
0.0593612
0.060474
0.0616105
0.0627717
0.0639582
0.0651709
0.0664107
0.0676784
0.068975
0.0703013
0.0716586
0.0730476
0.0744697
0.0759259
0.0774174
0.0789456
0.0442555
0.0450664
0.0458925
0.0467343
0.0475922
0.0484665
0.0493578
0.0502664
0.0511928
0.0521376
0.0531012
0.0540841
0.0550871
0.0561105
0.057155
0.0582213
0.05931
0.0604219
0.0615575
0.0627178
0.0639034
0.0651151
0.0663539
0.0676206
0.0689161
0.0702414
0.0715975
0.0729854
0.0744063
0.0758613
0.0773516
0.0788785
0.0442357
0.0450463
0.0458721
0.0467136
0.0475711
0.0484451
0.049336
0.0502443
0.0511704
0.0521148
0.053078
0.0540606
0.0550631
0.0560861
0.0571302
0.0581961
0.0592844
0.0603958
0.061531
0.0626908
0.0638759
0.0650872
0.0663254
0.0675916
0.0688866
0.0702114
0.0715669
0.0729543
0.0743746
0.075829
0.0773187
0.0788449
0.0450462
0.0458721
0.0467135
0.0475711
0.0484451
0.049336
0.0502443
0.0511703
0.0521147
0.053078
0.0540606
0.0550631
0.0560861
0.0571302
0.0581961
0.0592844
0.0603958
0.061531
0.0626908
0.0638759
0.0650872
0.0663254
0.0675916
0.0688866
0.0702114
0.0715669
0.0729543
0.0743746
0.075829
0.0773187
0.0788449
0.0450663
0.0458925
0.0467343
0.0475921
0.0484665
0.0493577
0.0502663
0.0511928
0.0521375
0.0531011
0.0540841
0.055087
0.0561104
0.057155
0.0582213
0.05931
0.0604218
0.0615575
0.0627177
0.0639033
0.0651151
0.0663539
0.0676205
0.0689161
0.0702413
0.0715975
0.0729854
0.0744063
0.0758613
0.0773516
0.0788785
0.0451065
0.0459333
0.0467757
0.0476343
0.0485093
0.0494012
0.0503105
0.0512377
0.0521832
0.0531475
0.0541312
0.0551349
0.0561591
0.0572045
0.0582716
0.0593612
0.0604739
0.0616105
0.0627716
0.0639582
0.0651709
0.0664107
0.0676784
0.0689749
0.0703013
0.0716585
0.0730476
0.0744697
0.0759259
0.0774174
0.0789455
0.0451667
0.0459945
0.0468379
0.0476974
0.0485734
0.0494664
0.0503767
0.051305
0.0522515
0.053217
0.0542019
0.0552067
0.0562321
0.0572787
0.0583471
0.059438
0.060552
0.06169
0.0628525
0.0640404
0.0652546
0.0664959
0.0677651
0.0690633
0.0703913
0.0717501
0.0731409
0.0745647
0.0760227
0.0775161
0.0790462
0.045247
0.046076
0.0469207
0.0477815
0.0486589
0.0495532
0.0504649
0.0513946
0.0523426
0.0533096
0.054296
0.0553024
0.0563294
0.0573777
0.0584477
0.0595403
0.0606561
0.0617958
0.0629602
0.0641501
0.0653662
0.0666094
0.0678807
0.0691809
0.0705111
0.0718722
0.0732652
0.0746914
0.0761518
0.0776477
0.0791803
0.0453472
0.0461777
0.0470241
0.0478865
0.0487656
0.0496616
0.0505751
0.0515065
0.0524564
0.0534252
0.0544136
0.0554219
0.056451
0.0575012
0.0585734
0.0596681
0.0607861
0.0619281
0.0630948
0.064287
0.0655055
0.0667513
0.0680251
0.069328
0.0706608
0.0720247
0.0734206
0.0748497
0.0763131
0.0778121
0.0793478
0.0454672
0.0462997
0.0471479
0.0480124
0.0488934
0.0497915
0.0507072
0.0516407
0.0525928
0.0535639
0.0545545
0.0555652
0.0565966
0.0576493
0.058724
0.0598213
0.0609419
0.0620866
0.0632561
0.0644511
0.0656726
0.0669214
0.0681983
0.0695043
0.0708404
0.0722075
0.0736069
0.0750395
0.0765065
0.0780092
0.0795487
0.0456071
0.0464418
0.0472923
0.048159
0.0490424
0.0499429
0.050861
0.0517971
0.0527517
0.0537254
0.0547187
0.0557321
0.0567663
0.0578219
0.0588995
0.0599998
0.0611235
0.0622714
0.0634441
0.0646425
0.0658673
0.0671196
0.0684001
0.0697098
0.0710496
0.0724207
0.073824
0.0752607
0.076732
0.0782389
0.079783
0.0457666
0.0466039
0.047457
0.0483263
0.0492124
0.0501157
0.0510365
0.0519755
0.052933
0.0539097
0.054906
0.0559226
0.05696
0.0580189
0.0590998
0.0602036
0.0613308
0.0624822
0.0636587
0.0648608
0.0660896
0.0673458
0.0686304
0.0699443
0.0712885
0.072664
0.0740719
0.0755133
0.0769893
0.0785013
0.0800504
0.0459458
0.0467858
0.0476418
0.0485142
0.0494033
0.0503096
0.0512336
0.0521758
0.0531366
0.0541166
0.0551164
0.0561365
0.0571775
0.0582401
0.0593248
0.0604324
0.0615636
0.0627191
0.0638997
0.0651061
0.0663392
0.0676
0.0688892
0.0702078
0.0715568
0.0729373
0.0743503
0.075797
0.0772785
0.078796
0.0803508
0.0461443
0.0469876
0.0478468
0.0487224
0.0496149
0.0505246
0.0514521
0.0523978
0.0533623
0.0543461
0.0553497
0.0563737
0.0574187
0.0584853
0.0595742
0.0606861
0.0618217
0.0629817
0.0641669
0.0653781
0.0666161
0.0678818
0.0691762
0.0705001
0.0718545
0.0732405
0.0746592
0.0761117
0.0775992
0.0791229
0.0806841
0.0463622
0.0472089
0.0480716
0.0489509
0.049847
0.0507605
0.0516918
0.0526415
0.05361
0.0545978
0.0556056
0.0566339
0.0576833
0.0587545
0.059848
0.0609646
0.062105
0.06327
0.0644603
0.0656767
0.06692
0.0681912
0.0694912
0.0708209
0.0721813
0.0735734
0.0749984
0.0764574
0.0779515
0.079482
0.0810502
0.0465991
0.0474496
0.0483162
0.0491994
0.0500995
0.0510171
0.0519526
0.0529066
0.0538794
0.0548718
0.0558841
0.0569171
0.0579713
0.0590473
0.0601459
0.0612677
0.0624134
0.0635838
0.0647796
0.0660017
0.0672509
0.0685281
0.0698342
0.0711702
0.072537
0.0739358
0.0753676
0.0768336
0.0783349
0.0798729
0.0814487
0.046855
0.0477095
0.0485803
0.0494677
0.0503722
0.0512942
0.0522343
0.0531928
0.0541704
0.0551676
0.0561849
0.057223
0.0582823
0.0593637
0.0604677
0.0615951
0.0627465
0.0639227
0.0651245
0.0663528
0.0676083
0.068892
0.0702048
0.0715476
0.0729215
0.0743275
0.0757667
0.0772403
0.0787495
0.0802954
0.0818796
0.0471295
0.0479884
0.0488637
0.0497556
0.0506648
0.0515916
0.0525365
0.0535
0.0544827
0.0554851
0.0565078
0.0575513
0.0586162
0.0597033
0.0608132
0.0619465
0.0631041
0.0642866
0.0654949
0.0667298
0.0679921
0.0692828
0.0706027
0.0719529
0.0733344
0.0747481
0.0761953
0.0776771
0.0791947
0.0807494
0.0823424
0.0474224
0.048286
0.049166
0.0500629
0.0509771
0.0519089
0.0528591
0.0538279
0.0548161
0.055824
0.0568523
0.0579017
0.0589726
0.0600658
0.061182
0.0623217
0.0634859
0.0646752
0.0658904
0.0671324
0.068402
0.0697001
0.0710277
0.0723858
0.0737753
0.0751974
0.0766532
0.0781437
0.0796704
0.0812343
0.0828369
0.0477334
0.048602
0.0494872
0.0503892
0.0513087
0.052246
0.0532017
0.0541762
0.0551701
0.056184
0.0572184
0.0582739
0.0593512
0.060451
0.0615738
0.0627204
0.0638915
0.065088
0.0663106
0.0675602
0.0688375
0.0701436
0.0714794
0.0728459
0.0742441
0.075675
0.0771399
0.0786398
0.080176
0.0817499
0.0833626
0.0480623
0.0489362
0.0498267
0.0507343
0.0516593
0.0526024
0.0535639
0.0545445
0.0555445
0.0565647
0.0576055
0.0586677
0.0597517
0.0608583
0.0619882
0.0631421
0.0643207
0.0655248
0.0667552
0.0680128
0.0692984
0.0706129
0.0719574
0.0733328
0.0747401
0.0761804
0.077655
0.0791648
0.0807113
0.0822956
0.0839192
0.0484087
0.0492882
0.0501843
0.0510977
0.0520287
0.0529778
0.0539456
0.0549324
0.055939
0.0569657
0.0580134
0.0590824
0.0601736
0.0612875
0.0624249
0.0635864
0.0647728
0.065985
0.0672237
0.0684897
0.069784
0.0711075
0.0724612
0.073846
0.075263
0.0767133
0.078198
0.0797184
0.0812756
0.082871
0.084506
0.0487722
0.0496575
0.0505597
0.0514791
0.0524164
0.0533718
0.0543461
0.0553396
0.0563529
0.0573867
0.0584415
0.0595178
0.0606165
0.0617381
0.0628833
0.0640529
0.0652476
0.0664682
0.0677156
0.0689906
0.070294
0.0716269
0.0729902
0.0743849
0.0758121
0.0772729
0.0787684
0.0802998
0.0818685
0.0834756
0.0851226
0.0491525
0.0500439
0.0509523
0.0518781
0.0528219
0.053784
0.0547651
0.0557656
0.056786
0.0578271
0.0588893
0.0599734
0.0610799
0.0622095
0.063363
0.064541
0.0657444
0.0669739
0.0682304
0.0695147
0.0708278
0.0721706
0.073544
0.0749492
0.076387
0.0778588
0.0793656
0.0809086
0.0824892
0.0841086
0.0857683
0.049549
0.0504468
0.0513618
0.0522943
0.0532448
0.0542139
0.0552021
0.0562099
0.0572378
0.0582865
0.0593566
0.0604486
0.0615633
0.0627013
0.0638634
0.0650503
0.0662627
0.0675015
0.0687676
0.0700617
0.0713848
0.0727379
0.0741219
0.0755379
0.076987
0.0784702
0.0799888
0.0815441
0.0831371
0.0847694
0.0864423
0.0881573
0.089916
0.0917198
0.0935706
0.0499614
0.0508659
0.0517876
0.0527271
0.0536847
0.0546611
0.0556566
0.056672
0.0577077
0.0587643
0.0598425
0.0609429
0.0620661
0.0632129
0.064384
0.0655801
0.0668019
0.0680504
0.0693264
0.0706307
0.0719643
0.0733281
0.0747232
0.0761505
0.0776112
0.0791065
0.0806374
0.0822053
0.0838114
0.0854571
0.0871438
0.0888731
0.0906463
0.0924653
0.0943316
0.0503893
0.0513006
0.0522294
0.053176
0.054141
0.0551249
0.0561282
0.0571514
0.0581952
0.0592601
0.0603468
0.0614558
0.0625879
0.0637438
0.0649242
0.0661298
0.0673615
0.06862
0.0699063
0.0712212
0.0725657
0.0739407
0.0753472
0.0767864
0.0782592
0.0797669
0.0813106
0.0828916
0.0845112
0.0861709
0.0878719
0.0896159
0.0914044
0.093239
0.0951215
0.0508325
0.051751
0.0526871
0.0536412
0.0546138
0.0556055
0.0566168
0.0576482
0.0587003
0.0597738
0.0608692
0.0619872
0.0631285
0.0642939
0.0654839
0.0666995
0.0679413
0.0692103
0.0705073
0.0718332
0.073189
0.0745756
0.075994
0.0774453
0.0789307
0.0804513
0.0820082
0.0836029
0.0852365
0.0869105
0.0886263
0.0903855
0.0921896
0.0940403
0.0959393
0.0508325
0.051751
0.0526871
0.0536412
0.0546138
0.0556055
0.0566167
0.0576482
0.0587003
0.0597738
0.0608692
0.0619872
0.0631285
0.0642939
0.0654839
0.0666995
0.0679413
0.0692103
0.0705073
0.0718332
0.073189
0.0745756
0.075994
0.0774453
0.0789307
0.0804513
0.0820082
0.0836029
0.0852365
0.0869105
0.0886263
0.0903855
0.0921896
0.0940402
0.0959393
0.0503893
0.0513006
0.0522294
0.053176
0.054141
0.0551249
0.0561282
0.0571514
0.0581952
0.0592601
0.0603467
0.0614558
0.0625879
0.0637438
0.0649241
0.0661298