/*--------------------------------*- C++ -*----------------------------------*\
  =========                 |
  \\      /  F ield         | OpenFOAM: The Open Source CFD Toolbox
   \\    /   O peration     | Website:  https://openfoam.org
    \\  /    A nd           | Version:  7
     \\/     M anipulation  |
\*---------------------------------------------------------------------------*/
FoamFile
{
    version     2.0;
    format      ascii;
    class       volScalarField;
    location    "40000";
    object      strainRate;
}
// * * * * * * * * * * * * * * * * * * * * * * * * * * * * * * * * * * * * * //

dimensions      [0 0 -1 0 0 0 0];

internalField   nonuniform List<scalar> 
1776
(
0.0944363
0.093079
0.0918201
0.0906611
0.0896034
0.0886486
0.087798
0.0870526
0.0864128
0.101209
0.099637
0.098202
0.0968711
0.0956455
0.094527
0.0935173
0.0926177
0.0918293
0.0911527
0.106942
0.105279
0.10376
0.102351
0.101054
0.0998692
0.0988
0.0978473
0.0970124
0.0962959
0.113175
0.111415
0.109805
0.108311
0.106936
0.10568
0.104546
0.103536
0.102651
0.101891
0.119969
0.118104
0.116395
0.11481
0.11335
0.112016
0.110812
0.10974
0.1088
0.107993
0.127394
0.125414
0.123599
0.121915
0.120362
0.118945
0.117665
0.116524
0.115524
0.114666
0.13553
0.133426
0.131495
0.129702
0.12805
0.126541
0.125178
0.123963
0.122899
0.121985
0.144468
0.142231
0.140174
0.138263
0.136502
0.134894
0.133441
0.132146
0.13101
0.130035
0.154315
0.151932
0.149739
0.147701
0.145822
0.144105
0.142554
0.141172
0.139959
0.138918
0.165192
0.162652
0.160312
0.158136
0.156129
0.154295
0.152637
0.151159
0.149862
0.148749
0.177238
0.17453
0.172031
0.169706
0.16756
0.165598
0.163825
0.162244
0.160856
0.159665
0.190611
0.187724
0.185054
0.182569
0.180274
0.178175
0.176277
0.174584
0.173098
0.171822
0.205489
0.202412
0.199561
0.196905
0.194451
0.192205
0.190174
0.188361
0.186769
0.185402
0.222064
0.218789
0.215749
0.212914
0.210293
0.207892
0.205719
0.203779
0.202075
0.20061
0.240539
0.237065
0.233831
0.230812
0.228018
0.225457
0.223137
0.221064
0.219242
0.217676
0.261109
0.257441
0.254018
0.250818
0.247852
0.24513
0.242663
0.240455
0.238514
0.236844
0.28393
0.280089
0.276494
0.273127
0.27
0.267128
0.264519
0.262183
0.260127
0.258357
0.309064
0.305094
0.301364
0.297862
0.294604
0.291604
0.288875
0.286428
0.284272
0.282412
0.336388
0.332366
0.328569
0.324992
0.321656
0.318576
0.315768
0.313245
0.311018
0.309094
0.365477
0.361517
0.357759
0.354204
0.350876
0.347795
0.344978
0.34244
0.340194
0.338251
0.395456
0.391716
0.388143
0.384747
0.381553
0.378584
0.37586
0.373398
0.371213
0.369318
0.424936
0.421597
0.41838
0.415306
0.412401
0.409687
0.407187
0.404918
0.402898
0.401141
0.452127
0.449349
0.446648
0.444051
0.441584
0.439268
0.437125
0.435172
0.433427
0.431904
0.475248
0.473116
0.47102
0.468994
0.467059
0.465236
0.463542
0.461993
0.460603
0.459387
0.493132
0.491617
0.490107
0.488641
0.487238
0.485913
0.484678
0.483547
0.48253
0.481638
0.505668
0.504643
0.503602
0.502591
0.501623
0.50071
0.499859
0.49908
0.49838
0.497766
0.513751
0.513051
0.512322
0.511615
0.510942
0.510308
0.509721
0.509185
0.508704
0.508284
0.518771
0.518256
0.517702
0.517167
0.516659
0.516185
0.515748
0.51535
0.514995
0.514687
0.522031
0.521612
0.521146
0.520696
0.520272
0.519877
0.519514
0.519185
0.518893
0.51864
0.524414
0.524047
0.523627
0.52322
0.522838
0.522482
0.522156
0.521861
0.5216
0.521373
0.526345
0.526013
0.525619
0.525239
0.524881
0.524549
0.524245
0.52397
0.523726
0.523515
0.527969
0.527664
0.527291
0.52693
0.52659
0.526275
0.525986
0.525726
0.525495
0.525295
0.101209
0.106942
0.113175
0.119969
0.127394
0.13553
0.144468
0.154315
0.165192
0.177238
0.190611
0.205489
0.222064
0.240539
0.261109
0.28393
0.309064
0.336388
0.365477
0.395456
0.424936
0.452127
0.475248
0.493132
0.505668
0.513751
0.518771
0.522031
0.524414
0.526345
0.527969
0.099637
0.105279
0.111415
0.118104
0.125414
0.133426
0.142231
0.151932
0.162652
0.17453
0.187724
0.202412
0.218789
0.237065
0.257441
0.280089
0.305094
0.332366
0.361517
0.391716
0.421597
0.449349
0.473116
0.491617
0.504643
0.513051
0.518256
0.521612
0.524047
0.526013
0.527664
0.098202
0.10376
0.109805
0.116395
0.123599
0.131495
0.140174
0.149739
0.160312
0.172031
0.185054
0.199561
0.215749
0.233831
0.254018
0.276494
0.301364
0.328569
0.357759
0.388143
0.41838
0.446648
0.47102
0.490107
0.503602
0.512322
0.517702
0.521146
0.523627
0.525619
0.527291
0.0968711
0.102351
0.108311
0.11481
0.121915
0.129702
0.138263
0.147701
0.158136
0.169706
0.182569
0.196905
0.212914
0.230812
0.250818
0.273127
0.297862
0.324992
0.354204
0.384747
0.415306
0.444051
0.468994
0.488641
0.502591
0.511615
0.517167
0.520696
0.52322
0.525239
0.52693
0.0956455
0.101054
0.106936
0.11335
0.120362
0.12805
0.136502
0.145822
0.156129
0.16756
0.180274
0.194451
0.210293
0.228018
0.247852
0.27
0.294604
0.321656
0.350876
0.381553
0.412401
0.441584
0.467059
0.487238
0.501623
0.510942
0.516659
0.520272
0.522838
0.524881
0.52659
0.094527
0.0998692
0.10568
0.112016
0.118945
0.126541
0.134894
0.144105
0.154295
0.165598
0.178175
0.192205
0.207892
0.225457
0.24513
0.267128
0.291604
0.318576
0.347795
0.378584
0.409687
0.439268
0.465236
0.485913
0.50071
0.510308
0.516185
0.519877
0.522482
0.524549
0.526275
0.0935173
0.0988
0.104546
0.110812
0.117665
0.125178
0.133441
0.142554
0.152637
0.163825
0.176277
0.190174
0.205719
0.223137
0.242663
0.264519
0.288875
0.315768
0.344978
0.37586
0.407187
0.437125
0.463542
0.484678
0.499859
0.509721
0.515748
0.519514
0.522156
0.524245
0.525986
0.0926177
0.0978473
0.103536
0.10974
0.116524
0.123963
0.132146
0.141172
0.151159
0.162244
0.174584
0.188361
0.203779
0.221064
0.240455
0.262183
0.286428
0.313245
0.34244
0.373398
0.404918
0.435172
0.461993
0.483547
0.49908
0.509185
0.51535
0.519185
0.521861
0.52397
0.525726
0.0918293
0.0970124
0.10265
0.1088
0.115524
0.122899
0.13101
0.139959
0.149862
0.160856
0.173098
0.186769
0.202075
0.219242
0.238514
0.260127
0.284272
0.311018
0.340194
0.371213
0.402898
0.433427
0.460603
0.48253
0.49838
0.508704
0.514995
0.518893
0.5216
0.523726
0.525495
0.0911527
0.0962959
0.101891
0.107993
0.114666
0.121985
0.130035
0.138918
0.148749
0.159665
0.171822
0.185402
0.20061
0.217676
0.236844
0.258357
0.282412
0.309094
0.338251
0.369318
0.401141
0.431904
0.459387
0.481638
0.497766
0.508284
0.514687
0.51864
0.521373
0.523515
0.525295
0.0905884
0.0956983
0.101257
0.10732
0.11395
0.121222
0.129222
0.13805
0.147821
0.158671
0.170757
0.18426
0.199387
0.216367
0.235448
0.256875
0.280855
0.307482
0.336619
0.367723
0.399658
0.430615
0.458356
0.48088
0.497244
0.507928
0.514425
0.518426
0.521182
0.523337
0.525127
0.0901368
0.09522
0.10075
0.106781
0.113377
0.120612
0.128571
0.137354
0.147077
0.157875
0.169904
0.183346
0.198407
0.215318
0.234329
0.255687
0.279605
0.306186
0.335305
0.366437
0.39846
0.429572
0.457519
0.480264
0.49682
0.507639
0.514214
0.518253
0.521028
0.523194
0.524991
0.089798
0.0948612
0.100369
0.106377
0.112947
0.120154
0.128083
0.136833
0.146519
0.157277
0.169264
0.182659
0.197671
0.21453
0.233487
0.254794
0.278665
0.30521
0.334315
0.365467
0.397555
0.428782
0.456884
0.479797
0.496499
0.507419
0.514054
0.518123
0.520912
0.523086
0.524889
0.0895721
0.094622
0.100115
0.106107
0.112661
0.119849
0.127757
0.136485
0.146147
0.156879
0.168837
0.182201
0.19718
0.214004
0.232926
0.254197
0.278036
0.304558
0.333654
0.364818
0.396948
0.428252
0.456457
0.479482
0.496282
0.507272
0.513947
0.518036
0.520834
0.523014
0.52482
0.0894591
0.0945023
0.0999885
0.105972
0.112517
0.119696
0.127594
0.136311
0.145961
0.15668
0.168623
0.181972
0.196934
0.213742
0.232645
0.253899
0.277722
0.304231
0.333322
0.364492
0.396644
0.427986
0.456243
0.479324
0.496173
0.507198
0.513893
0.517992
0.520795
0.522978
0.524786
0.0894591
0.0945023
0.0999885
0.105972
0.112517
0.119696
0.127594
0.136311
0.145961
0.15668
0.168623
0.181972
0.196934
0.213742
0.232645
0.253899
0.277722
0.304231
0.333322
0.364492
0.396644
0.427986
0.456243
0.479324
0.496173
0.507198
0.513893
0.517992
0.520795
0.522978
0.524786
0.0895721
0.094622
0.100115
0.106107
0.112661
0.119849
0.127757
0.136485
0.146147
0.156879
0.168837
0.182201
0.19718
0.214004
0.232926
0.254197
0.278036
0.304558
0.333654
0.364818
0.396948
0.428252
0.456457
0.479482
0.496282
0.507272
0.513947
0.518036
0.520834
0.523014
0.52482
0.089798
0.0948612
0.100369
0.106377
0.112947
0.120154
0.128083
0.136833
0.146519
0.157277
0.169264
0.182659
0.197671
0.21453
0.233487
0.254794
0.278665
0.30521
0.334315
0.365467
0.397555
0.428782
0.456884
0.479797
0.496499
0.507419
0.514054
0.518123
0.520912
0.523086
0.524889
0.0901368
0.09522
0.10075
0.106781
0.113377
0.120612
0.128571
0.137354
0.147077
0.157875
0.169904
0.183346
0.198407
0.215318
0.234329
0.255687
0.279605
0.306186
0.335305
0.366437
0.39846
0.429572
0.457519
0.480264
0.49682
0.507639
0.514214
0.518253
0.521028
0.523194
0.524991
0.0905884
0.0956983
0.101257
0.10732
0.11395
0.121222
0.129222
0.13805
0.147821
0.158671
0.170757
0.18426
0.199387
0.216367
0.235448
0.256875
0.280855
0.307482
0.336619
0.367723
0.399658
0.430615
0.458356
0.48088
0.497244
0.507928
0.514425
0.518426
0.521182
0.523337
0.525127
0.0911527
0.0962959
0.101891
0.107993
0.114666
0.121985
0.130035
0.138918
0.148749
0.159665
0.171822
0.185402
0.20061
0.217676
0.236844
0.258357
0.282412
0.309094
0.338251
0.369318
0.401141
0.431904
0.459387
0.481638
0.497766
0.508284
0.514686
0.51864
0.521373
0.523515
0.525295
0.0918293
0.0970124
0.10265
0.1088
0.115524
0.122899
0.13101
0.139959
0.149862
0.160856
0.173098
0.186769
0.202075
0.219242
0.238514
0.260127
0.284272
0.311018
0.340194
0.371213
0.402898
0.433427
0.460603
0.48253
0.49838
0.508704
0.514995
0.518893
0.5216
0.523726
0.525495
0.0926177
0.0978473
0.103536
0.10974
0.116524
0.123963
0.132146
0.141172
0.151159
0.162244
0.174584
0.188361
0.203779
0.221064
0.240455
0.262183
0.286428
0.313245
0.34244
0.373398
0.404918
0.435172
0.461993
0.483547
0.49908
0.509185
0.51535
0.519185
0.521861
0.52397
0.525726
0.0935173
0.0988
0.104546
0.110812
0.117665
0.125178
0.133441
0.142554
0.152637
0.163825
0.176277
0.190174
0.205719
0.223137
0.242663
0.264519
0.288875
0.315768
0.344978
0.37586
0.407187
0.437125
0.463542
0.484678
0.499859
0.509721
0.515748
0.519514
0.522156
0.524245
0.525986
0.094527
0.0998692
0.10568
0.112016
0.118945
0.126541
0.134894
0.144105
0.154295
0.165598
0.178175
0.192205
0.207892
0.225457
0.24513
0.267128
0.291604
0.318576
0.347795
0.378584
0.409687
0.439268
0.465236
0.485913
0.50071
0.510308
0.516185
0.519877
0.522482
0.524549
0.526275
0.0956455
0.101054
0.106936
0.11335
0.120362
0.12805
0.136502
0.145822
0.156129
0.16756
0.180274
0.194451
0.210293
0.228018
0.247852
0.27
0.294604
0.321656
0.350876
0.381553
0.412401
0.441584
0.467059
0.487238
0.501623
0.510942
0.516659
0.520272
0.522838
0.524881
0.52659
0.0968711
0.102351
0.108311
0.11481
0.121915
0.129702
0.138263
0.147701
0.158136
0.169706
0.182569
0.196905
0.212914
0.230812
0.250818
0.273127
0.297862
0.324992
0.354204
0.384747
0.415306
0.444051
0.468994
0.488641
0.502591
0.511615
0.517167
0.520696
0.52322
0.525239
0.52693
0.098202
0.10376
0.109805
0.116395
0.123599
0.131495
0.140174
0.149739
0.160312
0.172031
0.185054
0.199561
0.215749
0.233831
0.254018
0.276494
0.301364
0.328569
0.357759
0.388143
0.41838
0.446648
0.47102
0.490107
0.503602
0.512322
0.517702
0.521146
0.523627
0.525619
0.527291
0.099637
0.105279
0.111415
0.118104
0.125414
0.133426
0.142231
0.151932
0.162652
0.17453
0.187724
0.202412
0.218789
0.237065
0.257441
0.280089
0.305094
0.332366
0.361517
0.391716
0.421597
0.449349
0.473116
0.491617
0.504643
0.513051
0.518256
0.521612
0.524047
0.526013
0.527664
0.101209
0.106942
0.113175
0.119969
0.127394
0.13553
0.144468
0.154315
0.165192
0.177238
0.190611
0.205489
0.222064
0.240539
0.261109
0.28393
0.309064
0.336388
0.365477
0.395456
0.424936
0.452127
0.475248
0.493132
0.505668
0.513751
0.518771
0.522031
0.524414
0.526345
0.527969
0.101209
0.106942
0.113175
0.119969
0.127394
0.13553
0.144468
0.154315
0.165192
0.177238
0.190611
0.205489
0.222064
0.240539
0.261109
0.28393
0.309064
0.336388
0.365477
0.395456
0.424936
0.452127
0.475248
0.493132
0.505668
0.513751
0.518771
0.522031
0.524414
0.526345
0.527969
0.099637
0.105279
0.111415
0.118104
0.125414
0.133426
0.142231
0.151932
0.162652
0.17453
0.187724
0.202412
0.218789
0.237065
0.257441
0.280089
0.305094
0.332366
0.361517
0.391716
0.421597
0.449349
0.473116
0.491617
0.504643
0.513051
0.518256
0.521612
0.524047
0.526013
0.527664
0.098202
0.10376
0.109805
0.116395
0.123599
0.131495
0.140174
0.149739
0.160312
0.172031
0.185054
0.199561
0.215749
0.233831
0.254018
0.276494
0.301364
0.328569
0.357759
0.388143
0.41838
0.446648
0.47102
0.490107
0.503602
0.512322
0.517702
0.521146
0.523627
0.525619
0.527291
0.0968711
0.102351
0.108311
0.11481
0.121915
0.129702
0.138263
0.147701
0.158136
0.169706
0.182569
0.196905
0.212914
0.230812
0.250818
0.273127
0.297862
0.324992
0.354204
0.384747
0.415306
0.444051
0.468994
0.488641
0.502591
0.511615
0.517167
0.520696
0.52322
0.525239
0.52693
0.0956455
0.101054
0.106936
0.11335
0.120362
0.12805
0.136502
0.145822
0.156129
0.16756
0.180274
0.194451
0.210293
0.228018
0.247852
0.27
0.294604
0.321656
0.350876
0.381553
0.412401
0.441584
0.467059
0.487238
0.501623
0.510942
0.516659
0.520272
0.522838
0.524881
0.52659
0.094527
0.0998692
0.10568
0.112016
0.118945
0.126541
0.134894
0.144105
0.154295
0.165598
0.178175
0.192205
0.207892
0.225457
0.24513
0.267128
0.291604
0.318576
0.347795
0.378584
0.409687
0.439268
0.465236
0.485913
0.50071
0.510308
0.516185
0.519877
0.522482
0.524549
0.526275
0.0935173
0.0988
0.104546
0.110812
0.117665
0.125178
0.133441
0.142554
0.152637
0.163825
0.176277
0.190174
0.205719
0.223137
0.242663
0.264519
0.288875
0.315768
0.344978
0.37586
0.407187
0.437125
0.463542
0.484678
0.499859
0.509721
0.515748
0.519514
0.522156
0.524245
0.525986
0.0926177
0.0978473
0.103536
0.10974
0.116524
0.123963
0.132146
0.141172
0.151159
0.162244
0.174584
0.188361
0.203779
0.221064
0.240455
0.262183
0.286428
0.313245
0.34244
0.373398
0.404918
0.435172
0.461993
0.483547
0.49908
0.509185
0.51535
0.519185
0.521861
0.52397
0.525726
0.0918293
0.0970124
0.10265
0.1088
0.115524
0.122899
0.13101
0.139959
0.149862
0.160856
0.173098
0.186769
0.202075
0.219242
0.238514
0.260127
0.284272
0.311018
0.340194
0.371213
0.402898
0.433427
0.460603
0.48253
0.49838
0.508704
0.514995
0.518893
0.5216
0.523726
0.525495
0.0911527
0.0962959
0.101891
0.107993
0.114666
0.121985
0.130035
0.138918
0.148749
0.159665
0.171822
0.185402
0.20061
0.217676
0.236844
0.258357
0.282412
0.309094
0.338251
0.369318
0.401141
0.431904
0.459387
0.481638
0.497766
0.508284
0.514687
0.51864
0.521373
0.523515
0.525295
0.0905884
0.0956983
0.101257
0.10732
0.11395
0.121222
0.129222
0.13805
0.147821
0.158671
0.170757
0.18426
0.199387
0.216367
0.235448
0.256875
0.280855
0.307482
0.336619
0.367723
0.399658
0.430615
0.458356
0.48088
0.497244
0.507928
0.514425
0.518426
0.521182
0.523337
0.525127
0.0901368
0.09522
0.10075
0.106781
0.113377
0.120612
0.128571
0.137354
0.147077
0.157875
0.169904
0.183346
0.198407
0.215318
0.234329
0.255687
0.279605
0.306186
0.335305
0.366437
0.39846
0.429572
0.457519
0.480264
0.49682
0.507639
0.514214
0.518253
0.521028
0.523194
0.524991
0.089798
0.0948612
0.100369
0.106377
0.112947
0.120154
0.128083
0.136833
0.146519
0.157277
0.169264
0.182659
0.197671
0.21453
0.233487
0.254794
0.278665
0.30521
0.334315
0.365467
0.397555
0.428782
0.456884
0.479797
0.496499
0.507419
0.514054
0.518123
0.520912
0.523086
0.524889
0.0895721
0.094622
0.100115
0.106107
0.112661
0.119849
0.127757
0.136485
0.146147
0.156879
0.168837
0.182201
0.19718
0.214004
0.232926
0.254197
0.278036
0.304558
0.333654
0.364818
0.396948
0.428252
0.456457
0.479482
0.496282
0.507272
0.513947
0.518036
0.520834
0.523014
0.52482
0.0894591
0.0945023
0.0999885
0.105972
0.112517
0.119696
0.127594
0.136311
0.145961
0.15668
0.168623
0.181972
0.196934
0.213742
0.232645
0.253899
0.277722
0.304231
0.333322
0.364492
0.396644
0.427986
0.456243
0.479324
0.496173
0.507198
0.513893
0.517992
0.520795
0.522978
0.524786
0.0894591
0.0945023
0.0999885
0.105972
0.112517
0.119696
0.127594
0.136311
0.145961
0.15668
0.168623
0.181972
0.196934
0.213742
0.232645
0.253899
0.277722
0.304231
0.333322
0.364492
0.396644
0.427986
0.456243
0.479324
0.496173
0.507198
0.513893
0.517992
0.520795
0.522978
0.524786
0.0895721
0.094622
0.100115
0.106107
0.112661
0.119849
0.127757
0.136485
0.146147
0.156879
0.168837
0.182201
0.19718
0.214004
0.232926
0.254197
0.278036
0.304558
0.333654
0.364818
0.396948
0.428252
0.456457
0.479482
0.496282
0.507272
0.513947
0.518036
0.520834
0.523014
0.52482
)
;

boundaryField
{
    inlet
    {
        type            cyclic;
    }
    outlet
    {
        type            cyclic;
    }
    wall
    {
        type            calculated;
        value           nonuniform List<scalar> 
57
(
0.528707
0.528415
0.528052
0.5277
0.527369
0.527062
0.526781
0.526527
0.526302
0.526108
0.528707
0.528415
0.528052
0.5277
0.527369
0.527062
0.526781
0.526527
0.526302
0.526108
0.525944
0.525812
0.525712
0.525646
0.525612
0.525612
0.525646
0.525712
0.525812
0.525944
0.526108
0.526302
0.526527
0.526781
0.527062
0.527369
0.5277
0.528052
0.528415
0.528707
0.528707
0.528415
0.528052
0.5277
0.527369
0.527062
0.526781
0.526527
0.526302
0.526108
0.525944
0.525812
0.525712
0.525646
0.525612
0.525612
0.525646
)
;
    }
    procBoundary0to1
    {
        type            processor;
        value           nonuniform List<scalar> 
59
(
0.0896315
0.088346
0.087154
0.0860564
0.085055
0.084151
0.0833457
0.0826399
0.0820343
0.0959251
0.0959251
0.0959251
0.0944363
0.093079
0.0918201
0.0906611
0.0896034
0.0886486
0.087798
0.0870525
0.0864128
0.0858793
0.0854523
0.085132
0.0849184
0.0848116
0.0848116
0.0849184
0.085132
0.0854523
0.0858793
0.0864128
0.0870525
0.087798
0.0886486
0.0896034
0.0906611
0.0918201
0.093079
0.0944363
0.0959251
0.0959251
0.0944363
0.093079
0.0918201
0.0906611
0.0896034
0.0886486
0.087798
0.0870525
0.0864128
0.0858793
0.0854523
0.085132
0.0849184
0.0848116
0.0848116
0.0849184
0.089798
)
;
    }
    procBoundary0to2
    {
        type            processor;
        value           nonuniform List<scalar> 
30
(
0.0948612
0.100369
0.106377
0.112947
0.120154
0.128083
0.136833
0.146519
0.157277
0.169264
0.182659
0.197671
0.21453
0.233487
0.254794
0.278665
0.30521
0.334315
0.365467
0.397555
0.428782
0.456884
0.479797
0.496499
0.507419
0.514054
0.518123
0.520912
0.523086
0.524889
)
;
    }
    procBoundary0to3
    {
        type            processor;
        value           nonuniform List<scalar> 
32
(
0.0858793
0.0905885
0.0956983
0.101257
0.10732
0.11395
0.121222
0.129222
0.13805
0.147821
0.158671
0.170757
0.18426
0.199387
0.216367
0.235448
0.256875
0.280855
0.307482
0.336619
0.367723
0.399658
0.430615
0.458356
0.48088
0.497244
0.507928
0.514425
0.518426
0.521182
0.523337
0.525127
)
;
    }
}


// ************************************************************************* //
