/*--------------------------------*- C++ -*----------------------------------*\
  =========                 |
  \\      /  F ield         | OpenFOAM: The Open Source CFD Toolbox
   \\    /   O peration     | Website:  https://openfoam.org
    \\  /    A nd           | Version:  7
     \\/     M anipulation  |
\*---------------------------------------------------------------------------*/
FoamFile
{
    version     2.0;
    format      ascii;
    class       volScalarField;
    location    "156000";
    object      omega;
}
// * * * * * * * * * * * * * * * * * * * * * * * * * * * * * * * * * * * * * //

dimensions      [0 0 -1 0 0 0 0];

internalField   nonuniform List<scalar> 
4814
(
0.262233
0.26108
0.260041
0.259118
0.299747
0.296949
0.294271
0.291703
0.289244
0.286895
0.284657
0.282531
0.280517
0.278618
0.276835
0.275169
0.27362
0.272189
0.270877
0.269683
0.268608
0.267652
0.266816
0.266098
0.265501
0.265023
0.264664
0.264425
0.264305
0.264305
0.264425
0.264664
0.265023
0.265501
0.266098
0.266816
0.267652
0.268608
0.309875
0.306976
0.304202
0.301542
0.298994
0.29656
0.294242
0.292039
0.289953
0.287986
0.286139
0.284412
0.282808
0.281325
0.279965
0.278728
0.277615
0.276625
0.275758
0.275015
0.274396
0.2739
0.273529
0.273281
0.273157
0.273157
0.273281
0.273529
0.2739
0.274396
0.275015
0.275758
0.276625
0.277615
0.278728
0.279965
0.281325
0.282808
0.284412
0.286139
0.287986
0.320535
0.317529
0.314653
0.311896
0.309255
0.306733
0.304329
0.302046
0.299884
0.297845
0.29593
0.294141
0.292477
0.290941
0.289531
0.288249
0.287094
0.286068
0.285169
0.284399
0.283757
0.283244
0.282859
0.282602
0.282473
0.282473
0.282602
0.282859
0.283244
0.283757
0.284399
0.285169
0.286068
0.287094
0.288249
0.289531
0.290941
0.292477
0.294141
0.29593
0.297845
0.299884
0.302046
0.304329
0.331764
0.328646
0.325664
0.322804
0.320066
0.31745
0.314957
0.312589
0.310347
0.308232
0.306246
0.30439
0.302664
0.301071
0.299608
0.298279
0.297081
0.296016
0.295085
0.294286
0.29362
0.293087
0.292688
0.292421
0.292288
0.292288
0.292421
0.292688
0.293087
0.29362
0.294286
0.295085
0.296016
0.297081
0.298279
0.299608
0.301071
0.302664
0.30439
0.306246
0.308232
0.310347
0.312589
0.314957
0.343605
0.340369
0.337274
0.334307
0.331466
0.328751
0.326165
0.323707
0.32138
0.319185
0.317124
0.315198
0.313408
0.311754
0.310236
0.308856
0.307613
0.306508
0.305541
0.304712
0.304021
0.303468
0.303053
0.302777
0.302638
0.302638
0.302777
0.303054
0.303468
0.304021
0.304712
0.305541
0.306508
0.307613
0.308856
0.310236
0.311754
0.313408
0.315198
0.317124
0.319185
0.32138
0.323707
0.326165
0.356104
0.352744
0.349531
0.346451
0.343501
0.340682
0.337996
0.335445
0.333028
0.330749
0.328609
0.326609
0.32475
0.323032
0.321457
0.320023
0.318733
0.317585
0.316581
0.31572
0.315002
0.314428
0.313997
0.31371
0.313566
0.313566
0.31371
0.313997
0.314428
0.315002
0.31572
0.316581
0.317585
0.318733
0.320023
0.321457
0.323032
0.32475
0.326609
0.328609
0.330749
0.333028
0.335445
0.337996
0.369312
0.365821
0.362484
0.359284
0.356219
0.353291
0.350501
0.34785
0.345339
0.342971
0.340748
0.338669
0.336738
0.334953
0.333315
0.331826
0.330485
0.329293
0.328249
0.327354
0.326609
0.326012
0.325564
0.325266
0.325116
0.325116
0.325266
0.325564
0.326012
0.326609
0.327354
0.328249
0.329293
0.330485
0.331826
0.333315
0.334953
0.336738
0.338669
0.340748
0.342971
0.345339
0.34785
0.3505
0.353291
0.383284
0.379655
0.376186
0.37286
0.369675
0.366631
0.36373
0.360974
0.358364
0.355902
0.353591
0.35143
0.349422
0.347566
0.345864
0.344315
0.342921
0.341681
0.340595
0.339665
0.33889
0.338269
0.337804
0.337493
0.337338
0.337338
0.337493
0.337804
0.338269
0.33889
0.339665
0.340595
0.341681
0.342921
0.344315
0.345864
0.347566
0.349422
0.35143
0.353591
0.355902
0.358364
0.360974
0.36373
0.366631
0.398082
0.394307
0.3907
0.38724
0.383927
0.380761
0.377744
0.374877
0.372161
0.369601
0.367196
0.364948
0.362858
0.360928
0.359157
0.357545
0.356095
0.354804
0.353675
0.352707
0.3519
0.351255
0.350771
0.350448
0.350286
0.350286
0.350448
0.350771
0.351255
0.3519
0.352707
0.353675
0.354804
0.356095
0.357545
0.359157
0.360928
0.362858
0.364948
0.367196
0.369601
0.372161
0.374877
0.377744
0.380761
0.413771
0.409843
0.406089
0.40249
0.399041
0.395746
0.392605
0.389621
0.386794
0.384129
0.381625
0.379285
0.37711
0.3751
0.373256
0.371579
0.370068
0.368725
0.367549
0.366541
0.365701
0.365029
0.364525
0.364189
0.36402
0.36402
0.364189
0.364525
0.365029
0.365701
0.366541
0.367549
0.368725
0.370068
0.371579
0.373256
0.3751
0.37711
0.379285
0.381625
0.384129
0.386794
0.389621
0.392605
0.395746
0.430428
0.426337
0.422429
0.41868
0.415089
0.411657
0.408385
0.405277
0.402333
0.399556
0.396949
0.394511
0.392245
0.390151
0.38823
0.386482
0.384908
0.383509
0.382284
0.381234
0.380359
0.379658
0.379133
0.378783
0.378607
0.378607
0.378783
0.379133
0.379658
0.380359
0.381234
0.382284
0.383509
0.384908
0.386482
0.38823
0.390151
0.392245
0.394511
0.396949
0.399556
0.402333
0.405277
0.408385
0.448133
0.44387
0.439798
0.435892
0.43215
0.428573
0.425163
0.421924
0.418855
0.415961
0.413242
0.410702
0.408339
0.406156
0.404153
0.402331
0.40069
0.399231
0.397954
0.396859
0.395947
0.395217
0.394669
0.394303
0.394121
0.394121
0.394303
0.394669
0.395217
0.395947
0.396859
0.397954
0.399231
0.40069
0.402331
0.404153
0.406156
0.408339
0.410701
0.413242
0.415961
0.418855
0.421924
0.425163
0.466978
0.462533
0.458288
0.454215
0.450313
0.446582
0.443026
0.439647
0.436446
0.433427
0.430592
0.427941
0.425477
0.423199
0.42111
0.419209
0.417497
0.415974
0.414642
0.413499
0.412547
0.411785
0.411214
0.410833
0.410642
0.410642
0.410833
0.411214
0.411785
0.412547
0.413499
0.414642
0.415974
0.417497
0.419209
0.42111
0.423199
0.425477
0.427941
0.430592
0.433427
0.436446
0.439647
0.443026
0.487064
0.482427
0.477998
0.473748
0.469676
0.465782
0.46207
0.458543
0.455202
0.452051
0.449091
0.446324
0.443751
0.441374
0.439192
0.437207
0.43542
0.43383
0.432439
0.431246
0.430252
0.429456
0.428859
0.428461
0.428262
0.428262
0.428461
0.428859
0.429456
0.430252
0.431246
0.432439
0.43383
0.43542
0.437207
0.439192
0.441374
0.443751
0.446324
0.449091
0.452051
0.455202
0.458543
0.46207
0.508505
0.503663
0.499039
0.494602
0.490348
0.486282
0.482405
0.47872
0.47523
0.471938
0.468846
0.465956
0.463268
0.460783
0.458504
0.45643
0.454562
0.452901
0.451447
0.450201
0.449162
0.44833
0.447707
0.447291
0.447083
0.447083
0.447291
0.447707
0.44833
0.449162
0.450201
0.451447
0.452901
0.454562
0.45643
0.458504
0.460783
0.463268
0.465956
0.468846
0.471938
0.47523
0.47872
0.482405
0.531427
0.526368
0.521537
0.5169
0.512454
0.508203
0.50415
0.500298
0.49665
0.493208
0.489976
0.486953
0.484143
0.481545
0.479162
0.476993
0.47504
0.473303
0.471782
0.470478
0.469392
0.468522
0.46787
0.467435
0.467218
0.467218
0.467435
0.46787
0.468522
0.469392
0.470478
0.471782
0.473303
0.47504
0.476993
0.479162
0.481545
0.484143
0.486953
0.489976
0.493208
0.49665
0.500298
0.50415
0.555975
0.550684
0.545632
0.540782
0.536132
0.531684
0.527444
0.523413
0.519596
0.515995
0.512612
0.50945
0.506508
0.50379
0.501295
0.499026
0.496981
0.495163
0.493571
0.492207
0.491069
0.490159
0.489477
0.489022
0.488794
0.488794
0.489021
0.489477
0.490159
0.491069
0.492207
0.493572
0.495163
0.496981
0.499026
0.501295
0.50379
0.506508
0.50945
0.512612
0.515995
0.519596
0.523413
0.527443
0.582309
0.576772
0.571484
0.566406
0.561537
0.55688
0.552439
0.548219
0.544221
0.540449
0.536907
0.533594
0.530514
0.527666
0.525053
0.522675
0.520534
0.518629
0.516961
0.515532
0.51434
0.513386
0.512671
0.512194
0.511956
0.511956
0.512194
0.512671
0.513386
0.51434
0.515532
0.516961
0.518629
0.520534
0.522675
0.525053
0.527666
0.530514
0.533594
0.536907
0.540449
0.544221
0.548219
0.552439
0.610617
0.604816
0.599275
0.593954
0.58885
0.583969
0.579313
0.574888
0.570697
0.566744
0.56303
0.559557
0.556327
0.553341
0.550601
0.548108
0.545862
0.543865
0.542116
0.540617
0.539367
0.538367
0.537617
0.537117
0.536867
0.536867
0.537117
0.537617
0.538367
0.539367
0.540617
0.542116
0.543865
0.545862
0.548108
0.550601
0.553341
0.556327
0.559557
0.56303
0.566744
0.570697
0.574888
0.579313
0.64111
0.635026
0.629213
0.62363
0.618275
0.613152
0.608266
0.603622
0.599224
0.595075
0.591177
0.587532
0.584142
0.581008
0.578132
0.575515
0.573157
0.57106
0.569225
0.567651
0.566339
0.565289
0.564502
0.563977
0.563714
0.563714
0.563977
0.564502
0.565289
0.566339
0.567651
0.569225
0.57106
0.573157
0.575515
0.578132
0.581008
0.584142
0.587532
0.591177
0.595075
0.599224
0.603622
0.608266
0.674036
0.667646
0.661541
0.655675
0.650049
0.644665
0.639531
0.634651
0.630029
0.62567
0.621574
0.617743
0.614181
0.610887
0.607865
0.605114
0.602636
0.600432
0.598503
0.596848
0.595469
0.594366
0.593538
0.592987
0.592711
0.592711
0.592987
0.593539
0.594366
0.595469
0.596848
0.598503
0.600432
0.602636
0.605114
0.607864
0.610887
0.614181
0.617743
0.621574
0.62567
0.630029
0.634651
0.63953
0.644665
0.709683
0.702962
0.696539
0.690368
0.684447
0.678781
0.673377
0.668241
0.663378
0.658791
0.654481
0.65045
0.646701
0.643235
0.640054
0.637159
0.634551
0.632232
0.630201
0.62846
0.627008
0.625847
0.624976
0.624396
0.624106
0.624106
0.624396
0.624976
0.625847
0.627008
0.62846
0.630201
0.632232
0.634551
0.637159
0.640054
0.643235
0.646701
0.65045
0.654481
0.658791
0.663378
0.668241
0.673377
0.678781
0.748393
0.741312
0.734542
0.728036
0.721794
0.715821
0.710123
0.704709
0.699583
0.694748
0.690205
0.685957
0.682005
0.678351
0.674998
0.671947
0.669198
0.666753
0.664612
0.662777
0.661247
0.660023
0.659105
0.658493
0.658188
0.658188
0.658493
0.659105
0.660023
0.661247
0.662777
0.664612
0.666753
0.669198
0.671947
0.674998
0.678351
0.682005
0.685957
0.690205
0.694748
0.699583
0.704709
0.710123
0.71582
0.790576
0.783097
0.775946
0.769073
0.762478
0.756168
0.750148
0.744428
0.739015
0.733908
0.729111
0.724624
0.72045
0.716592
0.713051
0.709828
0.706925
0.704343
0.702083
0.700144
0.698528
0.697236
0.696267
0.695621
0.695298
0.695298
0.695621
0.696267
0.697236
0.698528
0.700144
0.702083
0.704343
0.706925
0.709828
0.713051
0.716592
0.72045
0.724624
0.729111
0.733908
0.739015
0.744428
0.750148
0.756167
0.836727
0.828808
0.821234
0.813953
0.806967
0.800283
0.793907
0.787849
0.782118
0.776713
0.771634
0.766884
0.762466
0.758382
0.754634
0.751223
0.748151
0.745418
0.743025
0.740974
0.739264
0.737896
0.73687
0.736187
0.735845
0.735845
0.736187
0.73687
0.737896
0.739264
0.740974
0.743025
0.745418
0.748151
0.751223
0.754634
0.758382
0.762466
0.766884
0.771634
0.776712
0.782118
0.787849
0.793907
0.887458
0.879045
0.870996
0.863259
0.855836
0.848733
0.841959
0.835523
0.829438
0.823699
0.818307
0.813265
0.808575
0.80424
0.800262
0.796642
0.793381
0.790481
0.787942
0.785765
0.78395
0.782498
0.78141
0.780686
0.780324
0.780324
0.780686
0.78141
0.782498
0.78395
0.785765
0.787942
0.790481
0.793381
0.796642
0.800262
0.80424
0.808575
0.813265
0.818307
0.823699
0.829438
0.835523
0.841959
0.943543
0.934568
0.925979
0.917722
0.909801
0.902223
0.894997
0.888134
0.881649
0.875534
0.869789
0.864418
0.859423
0.854806
0.850569
0.846714
0.843241
0.840153
0.83745
0.835132
0.8332
0.831654
0.830496
0.829725
0.82934
0.82934
0.829725
0.830496
0.831654
0.8332
0.835132
0.83745
0.840153
0.843241
0.846714
0.850569
0.854806
0.859423
0.864418
0.869789
0.875534
0.881649
0.888134
0.894997
1.006
0.996373
0.987154
0.978292
0.969793
0.961663
0.953912
0.946553
0.93961
0.933065
0.926917
0.921169
0.915824
0.910885
0.906353
0.90223
0.898517
0.895214
0.892324
0.889845
0.88778
0.886127
0.88489
0.884066
0.883654
0.883654
0.884066
0.88489
0.886127
0.88778
0.889845
0.892324
0.895214
0.898517
0.90223
0.906353
0.910885
0.915824
0.921169
0.926917
0.933065
0.93961
0.946553
0.953912
1.0761
1.0657
1.05575
1.04618
1.03701
1.02824
1.01988
1.01194
1.00446
0.997413
0.990792
0.984603
0.97885
0.973534
0.968657
0.96422
0.960225
0.956673
0.953564
0.950899
0.948677
0.9469
0.945571
0.944686
0.944245
0.944245
0.944686
0.945571
0.9469
0.948677
0.950899
0.953564
0.956673
0.960225
0.96422
0.968657
0.973534
0.97885
0.984603
0.990792
0.997413
1.00446
1.01194
1.01988
1.15534
1.14406
1.13325
1.12287
1.11292
1.10341
1.09435
1.08575
1.07764
1.06999
1.06282
1.05611
1.04988
1.04412
1.03884
1.03404
1.02971
1.02587
1.0225
1.01962
1.01722
1.01529
1.01386
1.0129
1.01242
1.01242
1.0129
1.01386
1.01529
1.01722
1.01962
1.0225
1.02587
1.02971
1.03404
1.03884
1.04412
1.04988
1.05611
1.06282
1.06999
1.07764
1.08575
1.09435
1.24567
1.23334
1.22154
1.21021
1.19935
1.18897
1.17909
1.16971
1.16086
1.15252
1.1447
1.13739
1.1306
1.12433
1.11858
1.11335
1.10865
1.10446
1.1008
1.09767
1.09505
1.09296
1.0914
1.09036
1.08984
1.08984
1.09036
1.0914
1.09296
1.09505
1.09767
1.1008
1.10446
1.10865
1.11335
1.11858
1.12433
1.1306
1.13739
1.1447
1.15252
1.16086
1.16971
1.17909
1.34969
1.33612
1.32313
1.31065
1.2987
1.2873
1.27644
1.26614
1.25641
1.24725
1.23866
1.23064
1.22319
1.21631
1.21001
1.20428
1.19912
1.19454
1.19053
1.18709
1.18423
1.18194
1.18023
1.17909
1.17852
1.17852
1.17909
1.18023
1.18194
1.18423
1.18709
1.19053
1.19454
1.19912
1.20428
1.21001
1.21631
1.22319
1.23064
1.23866
1.24725
1.25641
1.26614
1.27644
1.47094
1.45585
1.4414
1.42754
1.41428
1.40161
1.38957
1.37815
1.36736
1.35722
1.3477
1.33882
1.33057
1.32296
1.31599
1.30965
1.30395
1.29888
1.29445
1.29066
1.2875
1.28497
1.28308
1.28182
1.28119
1.28119
1.28182
1.28308
1.28497
1.2875
1.29066
1.29446
1.29888
1.30395
1.30965
1.31599
1.32296
1.33057
1.33882
1.3477
1.35722
1.36736
1.37815
1.38957
1.40161
1.61428
1.59731
1.58107
1.56549
1.55059
1.53637
1.52286
1.51005
1.49797
1.4866
1.47594
1.46599
1.45677
1.44826
1.44046
1.43338
1.42701
1.42135
1.41641
1.41217
1.40864
1.40582
1.40371
1.4023
1.4016
1.4016
1.4023
1.40371
1.40582
1.40864
1.41217
1.41641
1.42135
1.42701
1.43338
1.44046
1.44826
1.45677
1.46599
1.47594
1.4866
1.49797
1.51005
1.52286
1.53637
1.78652
1.76719
1.74868
1.73094
1.71398
1.69782
1.68246
1.66791
1.65419
1.64128
1.62919
1.61791
1.60745
1.59781
1.58898
1.58096
1.57376
1.56736
1.56176
1.55697
1.55299
1.5498
1.54741
1.54582
1.54502
1.54502
1.54582
1.54741
1.5498
1.55299
1.55697
1.56176
1.56736
1.57376
1.58096
1.58898
1.59781
1.60745
1.61791
1.62919
1.64128
1.65419
1.66791
1.68246
1.69782
1.99731
1.97496
1.95356
1.93306
1.91348
1.89483
1.87711
1.86034
1.84452
1.82965
1.81573
1.80275
1.79072
1.77964
1.76949
1.76028
1.752
1.74465
1.73823
1.73273
1.72816
1.7245
1.72176
1.71993
1.71902
1.71902
1.71993
1.72176
1.7245
1.72816
1.73273
1.73823
1.74465
1.752
1.76028
1.76949
1.77964
1.79072
1.80275
1.81573
1.82965
1.84452
1.86034
1.87711
1.89483
1.91348
2.26044
2.2342
2.20908
2.18503
2.16206
2.14019
2.11943
2.09979
2.08126
2.06385
2.04756
2.03238
2.01832
2.00536
1.9935
1.98274
1.97308
1.9645
1.957
1.95059
1.94525
1.94098
1.93778
1.93565
1.93459
1.93459
1.93565
1.93778
1.94098
1.94525
1.95059
1.957
1.9645
1.97308
1.98274
1.9935
2.00536
2.01832
2.03238
2.04756
2.06385
2.08126
2.09979
2.11943
2.14019
2.16206
2.59599
2.56469
2.53472
2.50604
2.47866
2.4526
2.42786
2.40446
2.3824
2.36167
2.34228
2.32422
2.30748
2.29207
2.27797
2.26518
2.25369
2.24349
2.23459
2.22697
2.22063
2.21556
2.21176
2.20923
2.20797
2.20797
2.20923
2.21176
2.21556
2.22063
2.22697
2.23459
2.24349
2.25369
2.26518
2.27797
2.29207
2.30748
2.32422
2.34228
2.36167
2.3824
2.40446
2.42786
2.4526
2.47866
2.50604
3.03367
2.99573
2.95939
2.92462
2.89143
2.85984
2.82986
2.8015
2.77476
2.74965
2.72615
2.70427
2.684
2.66534
2.64826
2.63278
2.61887
2.60653
2.59575
2.58653
2.57885
2.57272
2.56812
2.56506
2.56353
2.56353
2.56506
2.56812
2.57272
2.57885
2.58653
2.59575
2.60653
2.61887
2.63278
2.64826
2.66534
2.684
2.70427
2.72615
2.74965
2.77476
2.8015
2.82986
2.85984
2.89143
2.92462
3.61866
3.57188
3.52707
3.48418
3.44324
3.40427
3.36728
3.3323
3.29931
3.26833
3.23934
3.21235
3.18734
3.16431
3.14324
3.12413
3.10697
3.09175
3.07845
3.06707
3.0576
3.05003
3.04436
3.04059
3.0387
3.0387
3.04059
3.04436
3.05003
3.0576
3.06707
3.07845
3.09175
3.10697
3.12413
3.14324
3.16431
3.18734
3.21235
3.23934
3.26833
3.29931
3.3323
3.36728
3.40427
3.44324
3.48418
4.42197
4.36322
4.30692
4.25303
4.20158
4.15259
4.10609
4.06209
4.02061
3.98164
3.94518
3.91122
3.87975
3.85077
3.82426
3.80021
3.77861
3.75944
3.7427
3.72838
3.71646
3.70693
3.69979
3.69504
3.69266
3.69266
3.69504
3.69979
3.70693
3.71646
3.72838
3.7427
3.75944
3.77861
3.80021
3.82426
3.85077
3.87975
3.91122
3.94518
3.98164
4.02061
4.06209
4.10609
4.15259
4.20158
4.25303
5.56025
5.48488
5.41264
5.34345
5.27738
5.21446
5.15472
5.09819
5.04487
4.99477
4.94789
4.90421
4.86374
4.82645
4.79234
4.7614
4.7336
4.70893
4.68738
4.66894
4.65359
4.64132
4.63213
4.62601
4.62295
4.62295
4.62601
4.63213
4.64132
4.65359
4.66894
4.68738
4.70893
4.7336
4.7614
4.79234
4.82645
4.86374
4.90421
4.94789
4.99477
5.04487
5.09819
5.15472
5.21446
5.27738
5.34345
7.23593
7.13669
7.04152
6.95036
6.86328
6.78033
6.70154
6.62696
6.55661
6.49049
6.4286
6.37093
6.31748
6.26822
6.22316
6.18226
6.14552
6.11292
6.08443
6.06005
6.03975
6.02353
6.01138
6.00328
5.99923
5.99923
6.00328
6.01138
6.02353
6.03975
6.06005
6.08443
6.11292
6.14552
6.18226
6.22316
6.26822
6.31748
6.37093
6.4286
6.49049
6.55661
6.62696
6.70154
6.78033
6.86328
6.95036
7.04152
9.82522
9.69011
9.56049
9.43628
9.31759
9.2045
9.09705
8.99531
8.89931
8.80907
8.72457
8.64581
8.5728
8.50551
8.44393
8.38803
8.33781
8.29323
8.25428
8.22093
8.19317
8.17099
8.15436
8.14329
8.13775
8.13775
8.14329
8.15436
8.17099
8.19317
8.22093
8.25428
8.29323
8.33781
8.38803
8.44393
8.50551
8.5728
8.64581
8.72457
8.80907
8.89931
8.99531
9.09705
9.2045
9.31759
9.43628
9.56049
14.091
13.8986
13.714
13.537
13.3678
13.2065
13.0533
12.9081
12.7711
12.6422
12.5215
12.409
12.3047
12.2085
12.1205
12.0406
11.9688
11.905
11.8493
11.8016
11.7619
11.7301
11.7063
11.6905
11.6825
11.6825
11.6905
11.7063
11.7301
11.7619
11.8016
11.8493
11.905
11.9688
12.0406
12.1205
12.2085
12.3047
12.409
12.5215
12.6422
12.7711
12.9081
13.0533
13.2065
13.3678
13.537
13.714
21.7664
21.4749
21.195
20.9265
20.6698
20.425
20.1922
19.9717
19.7634
19.5676
19.384
19.2129
19.0541
18.9077
18.7737
18.652
18.5426
18.4455
18.3605
18.2878
18.2273
18.1789
18.1426
18.1185
18.1064
18.1064
18.1185
18.1426
18.1789
18.2273
18.2878
18.3605
18.4455
18.5426
18.652
18.7737
18.9077
19.0541
19.2129
19.384
19.5676
19.7634
19.9717
20.1922
20.425
20.6698
20.9265
21.195
37.4498
36.9663
36.5016
36.0557
35.629
35.2219
34.8346
34.4675
34.1207
33.7943
33.4884
33.2029
32.9381
32.6938
32.47
32.2667
32.084
31.9217
31.7798
31.6582
31.557
31.4761
31.4154
31.375
31.3548
31.3548
31.375
31.4154
31.4761
31.557
31.6582
31.7798
31.9217
32.084
32.2667
32.47
32.6938
32.9381
33.2029
33.4884
33.7943
34.1207
34.4675
34.8346
35.2219
35.629
36.0557
36.5016
76.395
75.4736
74.5871
73.7358
72.9203
72.1416
71.4003
70.6969
70.0319
69.4056
68.8182
68.2698
67.7606
67.2906
66.86
66.4686
66.1165
65.8037
65.5301
65.2958
65.1005
64.9444
64.8274
64.7494
64.7104
64.7104
64.7494
64.8274
64.9444
65.1005
65.2958
65.5301
65.8037
66.1165
66.4686
66.86
67.2906
67.7606
68.2698
68.8182
69.4056
70.0319
70.6969
71.4003
72.1416
72.9203
73.7358
74.5871
210.144
207.947
205.829
203.792
201.838
199.969
198.187
196.493
194.891
193.379
191.959
190.632
189.399
188.259
187.214
186.264
185.408
184.647
183.981
183.41
182.934
182.554
182.268
182.078
181.983
181.983
182.078
182.268
182.554
182.934
183.41
183.981
184.647
185.408
186.264
187.214
188.259
189.399
190.632
191.959
193.379
194.891
196.493
198.187
199.969
201.838
203.792
205.829
1045.49
1038.09
1030.92
1024
1017.35
1010.96
1004.85
999.031
993.507
988.282
983.364
978.756
974.463
970.489
966.837
963.509
960.508
957.837
955.496
953.487
951.811
950.469
949.462
948.791
948.455
948.455
948.791
949.462
950.469
951.811
953.487
955.496
957.837
960.508
963.509
966.837
970.489
974.463
978.756
983.364
988.282
993.507
999.031
1004.85
1010.96
1017.35
1024
1030.92
0.299747
0.309875
0.320535
0.331764
0.343605
0.356104
0.369312
0.383284
0.398082
0.413771
0.430428
0.448133
0.466978
0.487064
0.508505
0.531427
0.555975
0.582309
0.610617
0.64111
0.674036
0.709683
0.748393
0.790576
0.836727
0.887458
0.943543
1.006
1.0761
1.15534
1.24567
1.34969
1.47094
1.61428
1.78652
1.99731
2.26044
2.59599
3.03367
3.61866
4.42197
5.56025
7.23593
9.82522
14.091
21.7664
37.4498
76.395
210.144
1045.49
0.296949
0.306976
0.317529
0.328646
0.340369
0.352744
0.365821
0.379655
0.394306
0.409843
0.426337
0.44387
0.462533
0.482427
0.503663
0.526368
0.550684
0.576772
0.604816
0.635026
0.667646
0.702962
0.741312
0.783097
0.828808
0.879045
0.934568
0.996373
1.0657
1.14406
1.23334
1.33612
1.45585
1.59731
1.76719
1.97496
2.2342
2.56469
2.99573
3.57188
4.36322
5.48488
7.13669
9.69011
13.8986
21.4749
36.9663
75.4736
207.947
1038.09
0.294271
0.304202
0.314653
0.325663
0.337274
0.349531
0.362484
0.376186
0.390699
0.406089
0.422428
0.439798
0.458288
0.477998
0.499039
0.521537
0.545632
0.571484
0.599275
0.629213
0.661541
0.696539
0.734542
0.775946
0.821234
0.870996
0.925979
0.987154
1.05575
1.13325
1.22154
1.32313
1.4414
1.58107
1.74868
1.95356
2.20908
2.53472
2.95939
3.52707
4.30692
5.41264
7.04152
9.56049
13.714
21.195
36.5016
74.5871
205.829
1030.92
0.291703
0.301541
0.311896
0.322804
0.334307
0.346451
0.359284
0.37286
0.38724
0.40249
0.41868
0.435892
0.454215
0.473748
0.494602
0.5169
0.540782
0.566406
0.593954
0.62363
0.655675
0.690368
0.728036
0.769073
0.813953
0.863259
0.917722
0.978292
1.04618
1.12287
1.21021
1.31065
1.42754
1.56549
1.73094
1.93306
2.18503
2.50604
2.92462
3.48418
4.25303
5.34345
6.95036
9.43628
13.537
20.9265
36.0557
73.7357
203.792
1024
0.289244
0.298994
0.309255
0.320066
0.331466
0.343501
0.356219
0.369675
0.383927
0.399041
0.415089
0.43215
0.450313
0.469676
0.490348
0.512454
0.536132
0.561537
0.58885
0.618275
0.650049
0.684447
0.721794
0.762478
0.806968
0.855836
0.909801
0.969793
1.03701
1.11292
1.19935
1.2987
1.41428
1.55059
1.71398
1.91348
2.16206
2.47866
2.89143
3.44324
4.20158
5.27738
6.86328
9.31759
13.3678
20.6698
35.629
72.9203
201.838
1017.35
0.286895
0.29656
0.306733
0.31745
0.328751
0.340682
0.353291
0.366631
0.380761
0.395746
0.411657
0.428573
0.446582
0.465782
0.486282
0.508203
0.531684
0.55688
0.583969
0.613152
0.644665
0.678781
0.715821
0.756167
0.800283
0.848733
0.902223
0.961663
1.02824
1.10341
1.18897
1.2873
1.40161
1.53637
1.69782
1.89483
2.14019
2.4526
2.85984
3.40427
4.15259
5.21446
6.78033
9.2045
13.2065
20.425
35.2219
72.1416
199.969
1010.96
0.284657
0.294242
0.304329
0.314957
0.326165
0.337996
0.3505
0.36373
0.377744
0.392605
0.408385
0.425163
0.443026
0.46207
0.482405
0.50415
0.527443
0.552439
0.579313
0.608266
0.639531
0.673377
0.710123
0.750148
0.793907
0.841959
0.894997
0.953912
1.01988
1.09435
1.17909
1.27644
1.38957
1.52286
1.68246
1.87711
2.11943
2.42786
2.82986
3.36728
4.10609
5.15472
6.70154
9.09705
13.0533
20.1922
34.8346
71.4003
198.187
1004.85
0.282531
0.292039
0.302046
0.312589
0.323707
0.335445
0.34785
0.360974
0.374877
0.389621
0.405277
0.421924
0.439647
0.458543
0.47872
0.500298
0.523413
0.548219
0.574888
0.603622
0.634651
0.668241
0.704709
0.744428
0.787849
0.835523
0.888134
0.946553
1.01194
1.08575
1.16971
1.26614
1.37815
1.51005
1.66791
1.86034
2.09979
2.40446
2.8015
3.3323
4.06209
5.09819
6.62696
8.99531
12.9081
19.9717
34.4675
70.6969
196.493
999.031
0.280517
0.289953
0.299884
0.310347
0.32138
0.333028
0.345339
0.358364
0.372162
0.386794
0.402333
0.418855
0.436446
0.455202
0.47523
0.49665
0.519596
0.544221
0.570697
0.599224
0.630029
0.663378
0.699583
0.739015
0.782118
0.829438
0.881649
0.93961
1.00446
1.07764
1.16086
1.25641
1.36736
1.49797
1.65419
1.84452
2.08126
2.3824
2.77476
3.29931
4.02061
5.04487
6.55661
8.89931
12.7711
19.7634
34.1207
70.0319
194.891
993.507
0.278618
0.287986
0.297845
0.308232
0.319185
0.330749
0.342971
0.355902
0.369601
0.384129
0.399556
0.415961
0.433427
0.452051
0.471938
0.493208
0.515995
0.540449
0.566744
0.595075
0.62567
0.658791
0.694748
0.733908
0.776712
0.823699
0.875534
0.933065
0.997413
1.06999
1.15252
1.24725
1.35722
1.4866
1.64128
1.82965
2.06385
2.36167
2.74965
3.26833
3.98164
4.99477
6.49049
8.80907
12.6422
19.5676
33.7943
69.4056
193.379
988.282
0.276835
0.286139
0.29593
0.306246
0.317124
0.328609
0.340748
0.353591
0.367196
0.381625
0.396949
0.413242
0.430592
0.449091
0.468846
0.489976
0.512612
0.536907
0.56303
0.591177
0.621574
0.654481
0.690205
0.729111
0.771634
0.818307
0.869789
0.926917
0.990792
1.06282
1.1447
1.23866
1.3477
1.47594
1.62919
1.81573
2.04756
2.34228
2.72615
3.23934
3.94518
4.94789
6.4286
8.72457
12.5215
19.384
33.4884
68.8182
191.959
983.364
0.275169
0.284412
0.294141
0.30439
0.315198
0.326609
0.338669
0.35143
0.364948
0.379285
0.394511
0.410701
0.427941
0.446324
0.465956
0.486953
0.50945
0.533594
0.559557
0.587532
0.617743
0.65045
0.685957
0.724624
0.766884
0.813265
0.864418
0.921169
0.984603
1.05611
1.13739
1.23064
1.33882
1.46599
1.61791
1.80275
2.03238
2.32422
2.70427
3.21235
3.91122
4.90421
6.37093
8.64581
12.409
19.2129
33.2029
68.2698
190.632
978.756
0.27362
0.282808
0.292477
0.302664
0.313408
0.32475
0.336738
0.349422
0.362858
0.37711
0.392245
0.408339
0.425477
0.443751
0.463268
0.484143
0.506508
0.530514
0.556327
0.584142
0.614181
0.646701
0.682005
0.72045
0.762466
0.808575
0.859423
0.915824
0.97885
1.04988
1.1306
1.22319
1.33057
1.45677
1.60745
1.79072
2.01832
2.30748
2.684
3.18734
3.87975
4.86374
6.31748
8.5728
12.3047
19.0541
32.9381
67.7606
189.399
974.463
0.272189
0.281325
0.290941
0.301071
0.311754
0.323032
0.334953
0.347566
0.360928
0.3751
0.390151
0.406156
0.423199
0.441374
0.460783
0.481545
0.50379
0.527666
0.553341
0.581008
0.610887
0.643235
0.678351
0.716592
0.758382
0.80424
0.854806
0.910885
0.973534
1.04412
1.12433
1.21631
1.32296
1.44826
1.59781
1.77964
2.00536
2.29207
2.66534
3.16431
3.85077
4.82645
6.26822
8.50551
12.2085
18.9077
32.6938
67.2906
188.259
970.489
0.270877
0.279965
0.289531
0.299608
0.310236
0.321457
0.333315
0.345864
0.359157
0.373256
0.38823
0.404153
0.42111
0.439192
0.458504
0.479162
0.501295
0.525053
0.550601
0.578132
0.607865
0.640054
0.674998
0.713051
0.754634
0.800262
0.850569
0.906353
0.968657
1.03884
1.11858
1.21001
1.31599
1.44046
1.58898
1.76949
1.9935
2.27797
2.64826
3.14324
3.82426
4.79234
6.22316
8.44393
12.1205
18.7737
32.47
66.86
187.214
966.837
0.269683
0.278728
0.288249
0.298279
0.308856
0.320023
0.331826
0.344315
0.357545
0.371579
0.386482
0.402331
0.419209
0.437207
0.45643
0.476993
0.499026
0.522675
0.548108
0.575515
0.605114
0.637159
0.671947
0.709828
0.751223
0.796642
0.846714
0.90223
0.96422
1.03404
1.11335
1.20428
1.30965
1.43338
1.58096
1.76028
1.98274
2.26518
2.63278
3.12413
3.80021
4.7614
6.18226
8.38803
12.0406
18.652
32.2667
66.4686
186.264
963.509
0.268608
0.277615
0.287094
0.297081
0.307613
0.318733
0.330485
0.342921
0.356095
0.370068
0.384908
0.40069
0.417497
0.43542
0.454562
0.47504
0.496981
0.520534
0.545862
0.573157
0.602636
0.634551
0.669198
0.706925
0.748151
0.793381
0.843241
0.898517
0.960225
1.02971
1.10865
1.19912
1.30395
1.42701
1.57376
1.752
1.97308
2.25369
2.61887
3.10697
3.77861
4.7336
6.14552
8.33781
11.9688
18.5426
32.084
66.1165
185.408
960.508
0.267652
0.276625
0.286068
0.296016
0.306508
0.317585
0.329293
0.341681
0.354804
0.368725
0.383509
0.399231
0.415974
0.43383
0.452901
0.473303
0.495163
0.518629
0.543865
0.57106
0.600432
0.632232
0.666753
0.704343
0.745418
0.790481
0.840153
0.895214
0.956673
1.02587
1.10446
1.19454
1.29888
1.42135
1.56736
1.74465
1.9645
2.24349
2.60653
3.09175
3.75944
4.70893
6.11292
8.29323
11.905
18.4455
31.9217
65.8037
184.647
957.837
0.266816
0.275758
0.285169
0.295085
0.305541
0.316581
0.328249
0.340595
0.353675
0.367549
0.382284
0.397954
0.414642
0.432439
0.451447
0.471782
0.493572
0.516961
0.542116
0.569225
0.598503
0.630201
0.664612
0.702083
0.743025
0.787942
0.83745
0.892324
0.953564
1.0225
1.1008
1.19053
1.29446
1.41641
1.56176
1.73823
1.957
2.23459
2.59575
3.07845
3.7427
4.68738
6.08443
8.25428
11.8493
18.3605
31.7798
65.5301
183.981
955.496
0.266098
0.275015
0.284399
0.294286
0.304712
0.31572
0.327354
0.339665
0.352707
0.366541
0.381234
0.396859
0.413499
0.431246
0.450201
0.470478
0.492207
0.515532
0.540617
0.567651
0.596848
0.62846
0.662777
0.700144
0.740974
0.785765
0.835132
0.889845
0.950899
1.01962
1.09767
1.18709
1.29066
1.41217
1.55697
1.73273
1.95059
2.22697
2.58653
3.06707
3.72838
4.66894
6.06005
8.22093
11.8016
18.2878
31.6582
65.2958
183.41
953.487
0.265501
0.274396
0.283757
0.29362
0.304021
0.315002
0.326609
0.33889
0.3519
0.365701
0.380359
0.395947
0.412547
0.430252
0.449162
0.469392
0.491069
0.51434
0.539367
0.566339
0.595469
0.627008
0.661247
0.698528
0.739264
0.78395
0.8332
0.88778
0.948677
1.01722
1.09505
1.18423
1.2875
1.40864
1.55299
1.72816
1.94525
2.22063
2.57885
3.0576
3.71646
4.65359
6.03975
8.19317
11.7619
18.2273
31.557
65.1005
182.934
951.811
0.265023
0.2739
0.283244
0.293087
0.303468
0.314428
0.326012
0.338269
0.351255
0.365029
0.379658
0.395216
0.411785
0.429456
0.44833
0.468522
0.490159
0.513386
0.538367
0.565289
0.594366
0.625847
0.660023
0.697236
0.737896
0.782498
0.831654
0.886127
0.9469
1.01529
1.09296
1.18194
1.28497
1.40582
1.5498
1.7245
1.94098
2.21556
2.57272
3.05003
3.70693
4.64132
6.02353
8.17099
11.7301
18.1789
31.4761
64.9444
182.554
950.469
0.264664
0.273529
0.282858
0.292688
0.303053
0.313997
0.325564
0.337804
0.350771
0.364525
0.379133
0.394669
0.411214
0.428859
0.447707
0.46787
0.489477
0.512671
0.537617
0.564502
0.593538
0.624976
0.659105
0.696267
0.73687
0.78141
0.830496
0.88489
0.945571
1.01386
1.0914
1.18023
1.28308
1.40371
1.54741
1.72176
1.93778
2.21176
2.56812
3.04436
3.69979
4.63213
6.01138
8.15436
11.7063
18.1426
31.4154
64.8273
182.268
949.462
0.264424
0.273281
0.282601
0.292421
0.302777
0.31371
0.325266
0.337493
0.350448
0.364188
0.378783
0.394303
0.410833
0.428461
0.447291
0.467435
0.489021
0.512194
0.537117
0.563977
0.592987
0.624396
0.658493
0.695621
0.736187
0.780686
0.829725
0.884066
0.944686
1.0129
1.09036
1.17909
1.28182
1.4023
1.54582
1.71993
1.93565
2.20923
2.56506
3.04059
3.69504
4.62601
6.00328
8.14329
11.6905
18.1185
31.375
64.7494
182.078
948.791
0.264305
0.273157
0.282473
0.292288
0.302638
0.313566
0.325116
0.337338
0.350286
0.36402
0.378607
0.394121
0.410642