/*--------------------------------*- C++ -*----------------------------------*\
  =========                 |
  \\      /  F ield         | OpenFOAM: The Open Source CFD Toolbox
   \\    /   O peration     | Website:  https://openfoam.org
    \\  /    A nd           | Version:  7
     \\/     M anipulation  |
\*---------------------------------------------------------------------------*/
FoamFile
{
    version     2.0;
    format      ascii;
    class       volScalarField;
    location    "8000";
    object      omega;
}
// * * * * * * * * * * * * * * * * * * * * * * * * * * * * * * * * * * * * * //

dimensions      [0 0 -1 0 0 0 0];

internalField   nonuniform List<scalar> 
4782
(
0.322646
0.333616
0.345158
0.357313
0.370125
0.383645
0.397925
0.413026
0.429012
0.445955
0.104323
0.106479
0.108694
0.110971
0.11331
0.115716
0.11819
0.120736
0.123357
0.126054
0.128833
0.131696
0.134647
0.13769
0.140828
0.144067
0.14741
0.150863
0.15443
0.158117
0.161929
0.165873
0.169954
0.174181
0.178559
0.183097
0.187802
0.192684
0.197752
0.203016
0.208485
0.214172
0.220089
0.226249
0.232665
0.239353
0.246328
0.253609
0.261212
0.26916
0.277472
0.286173
0.295288
0.304845
0.314872
0.325402
0.336471
0.348116
0.360379
0.373306
0.386946
0.401353
0.416588
0.432715
0.449807
0.105182
0.107356
0.109591
0.111886
0.114246
0.116673
0.119168
0.121736
0.12438
0.127101
0.129904
0.132793
0.13577
0.138839
0.142006
0.145273
0.148646
0.15213
0.155729
0.159449
0.163296
0.167275
0.171394
0.175659
0.180077
0.184656
0.189405
0.194332
0.199446
0.204758
0.210278
0.216017
0.221989
0.228205
0.234681
0.241431
0.248471
0.255819
0.263493
0.271514
0.279904
0.288686
0.297886
0.307531
0.317651
0.328279
0.339451
0.351203
0.36358
0.376626
0.390391
0.404931
0.420305
0.436579
0.453826
0.106075
0.108269
0.110522
0.112839
0.115219
0.117668
0.120186
0.122777
0.125444
0.128191
0.131019
0.133934
0.136938
0.140036
0.143232
0.146529
0.149934
0.15345
0.157082
0.160837
0.16472
0.168737
0.172894
0.177199
0.181659
0.186281
0.191075
0.196048
0.201211
0.206573
0.212146
0.21794
0.223969
0.230245
0.236782
0.243597
0.250704
0.258123
0.265871
0.273969
0.282439
0.291305
0.300593
0.310331
0.320548
0.331278
0.342556
0.354421
0.366916
0.380086
0.393982
0.408659
0.424177
0.440604
0.458013
0.107002
0.109216
0.111491
0.113828
0.116231
0.118702
0.121244
0.123859
0.126551
0.129324
0.132179
0.135121
0.138154
0.141282
0.144508
0.147837
0.151274
0.154824
0.158492
0.162283
0.166203
0.170259
0.174457
0.178804
0.183308
0.187976
0.192817
0.197839
0.203053
0.208469
0.214096
0.219948
0.226037
0.232375
0.238978
0.24586
0.253039
0.260531
0.268357
0.276536
0.285091
0.294046
0.303426
0.313261
0.32358
0.334417
0.345807
0.35779
0.370408
0.383708
0.397741
0.412562
0.428232
0.444819
0.462396
0.107002
0.109216
0.111491
0.113828
0.116231
0.118702
0.121244
0.123859
0.126552
0.129324
0.132179
0.135121
0.138154
0.141282
0.144508
0.147837
0.151274
0.154824
0.158492
0.162283
0.166203
0.170259
0.174457
0.178804
0.183308
0.187976
0.192817
0.197839
0.203053
0.208469
0.214097
0.219948
0.226037
0.232376
0.238978
0.245861
0.253039
0.260532
0.268357
0.276536
0.285091
0.294046
0.303427
0.313261
0.323581
0.334417
0.345807
0.35779
0.370408
0.383708
0.397741
0.412562
0.428232
0.444819
0.462396
0.106075
0.108269
0.110522
0.112839
0.11522
0.117668
0.120186
0.122777
0.125444
0.128191
0.131019
0.133934
0.136938
0.140036
0.143232
0.14653
0.149934
0.15345
0.157083
0.160837
0.16472
0.168737
0.172894
0.177199
0.181659
0.186282
0.191075
0.196049
0.201211
0.206574
0.212146
0.217941
0.223969
0.230245
0.236783
0.243598
0.250705
0.258123
0.265872
0.27397
0.28244
0.291306
0.300594
0.310332
0.320549
0.331279
0.342557
0.354422
0.366917
0.380087
0.393982
0.408659
0.424178
0.440605
0.458013
0.476484
0.496106
0.516978
0.539209
0.105182
0.107357
0.109591
0.111886
0.114246
0.116673
0.119169
0.121737
0.12438
0.127101
0.129905
0.132793
0.13577
0.13884
0.142006
0.145274
0.148647
0.15213
0.15573
0.15945
0.163296
0.167276
0.171395
0.175659
0.180078
0.184657
0.189406
0.194332
0.199447
0.204758
0.210279
0.216018
0.22199
0.228206
0.234682
0.241432
0.248472
0.25582
0.263494
0.271515
0.279905
0.288687
0.297887
0.307532
0.317652
0.32828
0.339451
0.351204
0.363581
0.376626
0.390392
0.404931
0.420305
0.436579
0.453826
0.472127
0.491568
0.51225
0.53428
0.557779
0.104323
0.106479
0.108695
0.110971
0.11331
0.115716
0.118191
0.120736
0.123357
0.126055
0.128834
0.131697
0.134648
0.13769
0.140829
0.144068
0.147411
0.150863
0.15443
0.158117
0.16193
0.165873
0.169955
0.174182
0.17856
0.183098
0.187803
0.192685
0.197753
0.203017
0.208486
0.214173
0.22009
0.22625
0.232666
0.239354
0.246329
0.25361
0.261213
0.269161
0.277473
0.286175
0.29529
0.304846
0.314873
0.325404
0.336472
0.348117
0.360381
0.373307
0.386947
0.401355
0.416589
0.432717
0.449809
0.467945
0.487214
0.507712
0.529548
0.552841
0.577727
0.604354
0.632891
0.663528
0.696482
0.731996
0.770354
0.811882
0.856961
0.906042
0.959667
1.01849
1.08335
1.15526
1.23558
1.32608
1.42916
1.54812
1.68756
1.85395
2.05659
2.30887
2.63034
3.05011
3.61244
4.38693
5.48788
7.11344
9.63176
13.7893
21.2828
36.6192
74.7767
206.225
1032.12
0.103499
0.105638
0.107835
0.110092
0.112413
0.114798
0.117252
0.119777
0.122375
0.125051
0.127806
0.130645
0.133571
0.136588
0.1397
0.142911
0.146226
0.149649
0.153185
0.15684
0.16062
0.164529
0.168576
0.172765
0.177105
0.181604
0.186268
0.191107
0.196131
0.201348
0.206769
0.212406
0.218271
0.224376
0.230735
0.237364
0.244277
0.251493
0.259029
0.266906
0.275144
0.283768
0.292802
0.302273
0.312211
0.322648
0.333618
0.34516
0.357315
0.370127
0.383647
0.397927
0.413028
0.429014
0.445957
0.463936
0.483038
0.50336
0.52501
0.548105
0.57278
0.599184
0.627484
0.657869
0.690553
0.725779
0.763828
0.805023
0.849741
0.898431
0.951625
1.00998
1.07429
1.1456
1.22521
1.31487
1.41695
1.53466
1.67253
1.83692
2.03698
2.28588
2.60292
3.01682
3.57128
4.33509
5.42118
7.02538
9.5116
13.6179
21.0228
36.1872
73.9519
204.253
1025.43
0.10271
0.104832
0.107012
0.109252
0.111554
0.11392
0.116355
0.118859
0.121437
0.12409
0.126824
0.129639
0.132542
0.135534
0.13862
0.141805
0.145092
0.148487
0.151994
0.155619
0.159367
0.163244
0.167257
0.171411
0.175715
0.180175
0.1848
0.189599
0.194579
0.199752
0.205128
0.210717
0.216532
0.222585
0.22889
0.235462
0.242316
0.24947
0.256941
0.26475
0.272918
0.281468
0.290424
0.299814
0.309667
0.320014
0.330891
0.342334
0.354384
0.367087
0.380492
0.394651
0.409623
0.425474
0.442275
0.460103
0.479046
0.499199
0.520669
0.543575
0.568049
0.594239
0.622312
0.652454
0.684879
0.719829
0.757581
0.798456
0.84283
0.891143
0.943927
1.00182
1.06563
1.13635
1.21529
1.30416
1.40528
1.52181
1.65819
1.82069
2.01829
2.26399
2.57682
2.98513
3.53211
4.28574
5.35766
6.9415
9.3971
13.4545
20.7747
35.775
73.1642
202.366
1019.01
0.101958
0.104064
0.106227
0.10845
0.110734
0.113083
0.115498
0.117984
0.120541
0.123174
0.125886
0.12868
0.13156
0.134529
0.137591
0.14075
0.144012
0.14738
0.150859
0.154455
0.158173
0.162019
0.165999
0.17012
0.174389
0.178814
0.183401
0.188161
0.193101
0.198232
0.203563
0.209107
0.214874
0.220877
0.227131
0.233649
0.240446
0.247541
0.254951
0.262696
0.270796
0.279276
0.288158
0.29747
0.307242
0.317504
0.32829
0.339639
0.351591
0.364189
0.377484
0.391527
0.406377
0.422099
0.438764
0.456448
0.475238
0.49523
0.51653
0.539255
0.563536
0.589522
0.617377
0.647288
0.679466
0.714152
0.75162
0.792191
0.836235
0.88419
0.936581
0.994043
1.05736
1.12753
1.20584
1.29395
1.39416
1.50957
1.64455
1.80526
2.00054
2.24321
2.55205
2.95506
3.49494
4.2389
5.29736
6.86184
9.28833
13.2993
20.539
35.3828
72.4143
200.567
1012.86
0.101242
0.103333
0.10548
0.107687
0.109955
0.112286
0.114684
0.117151
0.11969
0.122304
0.124995
0.127768
0.130626
0.133573
0.136612
0.139748
0.142985
0.146327
0.14978
0.153348
0.157038
0.160854
0.164804
0.168894
0.17313
0.17752
0.182072
0.186794
0.191696
0.196787
0.202077
0.207577
0.213299
0.219255
0.225459
0.231926
0.23867
0.245709
0.253061
0.260744
0.268781
0.277193
0.286005
0.295243
0.304937
0.315118
0.32582
0.337079
0.348936
0.361436
0.374625
0.388559
0.403293
0.418892
0.435427
0.452974
0.47162
0.491458
0.512595
0.535148
0.559246
0.585038
0.612686
0.642376
0.674319
0.708753
0.745952
0.786232
0.829962
0.877577
0.929595
0.986644
1.0495
1.11915
1.19685
1.28425
1.3836
1.49796
1.63162
1.79064
1.98373
2.22354
2.52861
2.92662
3.45978
4.19459
5.24029
6.78642
9.18533
13.1522
20.3155
35.011
71.7028
198.857
1007.01
0.100563
0.10264
0.104772
0.106964
0.109216
0.111531
0.113912
0.116362
0.118883
0.121478
0.124151
0.126905
0.129742
0.132668
0.135685
0.138798
0.142012
0.14533
0.148758
0.1523
0.155963
0.159752
0.163672
0.167732
0.171937
0.176295
0.180813
0.185501
0.190366
0.195419
0.20067
0.206129
0.211808
0.217719
0.223877
0.230295
0.236989
0.243975
0.251271
0.258896
0.266872
0.275221
0.283966
0.293135
0.302756
0.31286
0.323481
0.334655
0.346423
0.358828
0.371919
0.385748
0.400372
0.415855
0.432267
0.449684
0.468193
0.487886
0.508868
0.531257
0.555182
0.580789
0.608241
0.637722
0.669442
0.703637
0.74058
0.780585
0.824017
0.871309
0.922973
0.979633
1.04206
1.11121
1.18834
1.27507
1.37362
1.48699
1.6194
1.77683
1.96787
2.20499
2.50652
2.8998
3.42663
4.1528
5.18647
6.71528
9.08813
13.0134
20.1045
34.6598
71.0299
197.238
1001.45
0.0999224
0.101985
0.104104
0.106281
0.108519
0.110819
0.113184
0.115618
0.118122
0.1207
0.123354
0.126089
0.128908
0.131814
0.13481
0.137902
0.141094
0.144389
0.147793
0.151312
0.154949
0.158711
0.162605
0.166636
0.170812
0.175139
0.179626
0.18428
0.189111
0.194129
0.199342
0.204763
0.210401
0.216271
0.222385
0.228757
0.235403
0.242339
0.249583
0.257154
0.265072
0.273361
0.282043
0.291147
0.300698
0.31073
0.321274
0.332368
0.344052
0.356368
0.369366
0.383096
0.397616
0.412989
0.429285
0.44658
0.464958
0.484514
0.505351
0.527586
0.551347
0.576779
0.604045
0.633329
0.664838
0.698807
0.735508
0.775253
0.818405
0.865391
0.916722
0.973014
1.03503
1.10372
1.18031
1.26641
1.3642
1.47664
1.60789
1.76384
1.95296
2.18756
2.48576
2.87462
3.39549
4.11355
5.1359
6.64841
8.99674
12.8828
19.906
34.3291
70.3962
195.712
996.197
0.0993202
0.101371
0.103476
0.10564
0.107863
0.110149
0.1125
0.114918
0.117406
0.119968
0.122606
0.125323
0.128124
0.131011
0.133988
0.13706
0.140231
0.143505
0.146887
0.150383
0.153996
0.157734
0.161602
0.165607
0.169755
0.174053
0.17851
0.183134
0.187933
0.192917
0.198095
0.203479
0.20908
0.214911
0.220983
0.227312
0.233913
0.240802
0.247997
0.255517
0.263382
0.271614
0.280238
0.289279
0.298766
0.308729
0.319202
0.33022
0.341825
0.354058
0.366967
0.380605
0.395027
0.410298
0.426484
0.443664
0.46192
0.481347
0.502047
0.524137
0.547744
0.573012
0.600104
0.629202
0.660512
0.694269
0.730743
0.770243
0.813131
0.859831
0.910849
0.966796
1.02842
1.09668
1.17277
1.25828
1.35537
1.46694
1.59711
1.75167
1.939
2.17125
2.46634
2.85106
3.36637
4.07683
5.08858
6.58583
8.91118
12.7605
19.72
34.0192
69.8018
194.278
991.25
0.0987567
0.100795
0.102889
0.10504
0.10725
0.109523
0.111859
0.114263
0.116737
0.119283
0.121906
0.124607
0.12739
0.13026
0.13322
0.136273
0.139425
0.142679
0.14604
0.149514
0.153106
0.15682
0.160664
0.164644
0.168766
0.173038
0.177468
0.182062
0.186831
0.191784
0.19693
0.20228
0.207845
0.213639
0.219673
0.225962
0.232521
0.239366
0.246515
0.253987
0.261801
0.269981
0.27855
0.287533
0.296959
0.306859
0.317265
0.328213
0.339743
0.351899
0.364726
0.378277
0.392608
0.407782
0.423867
0.440939
0.459081
0.478387
0.498959
0.520912
0.544375
0.56949
0.596419
0.625343
0.656467
0.690026
0.726287
0.765558
0.808199
0.854631
0.905355
0.960979
1.02225
1.09009
1.16572
1.25069
1.34711
1.45788
1.58704
1.74032
1.92598
2.15605
2.44826
2.82913
3.33925
4.04263
5.0445
6.52752
8.83145
12.6465
19.5466
33.7301
69.2469
192.938
986.615
0.0982322
0.10026
0.102342
0.104481
0.10668
0.10894
0.111264
0.113654
0.116114
0.118647
0.121254
0.12394
0.126708
0.129562
0.132505
0.135541
0.138675
0.14191
0.145253
0.148707
0.152277
0.155971
0.159793
0.163749
0.167848
0.172095
0.176498
0.181066
0.185807
0.19073
0.195846
0.201165
0.206697
0.212456
0.218455
0.224706
0.231226
0.238031
0.245137
0.252564
0.260332
0.268463
0.27698
0.28591
0.29528
0.30512
0.315464
0.326347
0.337809
0.349892
0.362643
0.376113
0.390359
0.405443
0.421434
0.438405
0.456441
0.475635
0.496088
0.517915
0.541243
0.566215
0.592992
0.621754
0.652705
0.686079
0.722142
0.7612
0.80361
0.849793
0.900245
0.955569
1.0165
1.08397
1.15916
1.24362
1.33944
1.44947
1.5777
1.72979
1.91391
2.14197
2.4315
2.80881
3.31413
4.01095
5.00366
6.47347
8.75753
12.5408
19.3857
33.4618
68.7316
191.693
982.297
0.0977473
0.0997647
0.101837
0.103965
0.106152
0.108401
0.110713
0.113091
0.115539
0.118058
0.120652
0.123324
0.126078
0.128917
0.131844
0.134864
0.137982
0.1412
0.144525
0.14796
0.151512
0.155186
0.158987
0.162922
0.166999
0.171223
0.175602
0.180145
0.184861
0.189757
0.194845
0.200134
0.205637
0.211364
0.217329
0.223547
0.230031
0.236797
0.243864
0.25125
0.258975
0.267061
0.275531
0.284411
0.293729
0.303514
0.313801
0.324623
0.336021
0.348037
0.360717
0.374113
0.388281
0.403282
0.419184
0.436063
0.454001
0.473091
0.493433
0.515143
0.538348
0.563188
0.589824
0.618436
0.649227
0.68243
0.718309
0.75717
0.799368
0.84532
0.89552
0.950567
1.01119
1.07831
1.1531
1.2371
1.33236
1.44171
1.56908
1.72008
1.90279
2.12899
2.41607
2.7901
3.291
3.98177
4.96603
6.42368
8.68941
12.4434
19.2374
33.2144
68.2561
190.542
978.3
0.097302
0.0993102
0.101373
0.103491
0.105668
0.107906
0.110207
0.112575
0.11501
0.117518
0.120099
0.122759
0.125499
0.128325
0.131238
0.134244
0.137346
0.140548
0.143857
0.147275
0.15081
0.154465
0.158248
0.162164
0.16622
0.170423
0.17478
0.179301
0.183992
0.188864
0.193926
0.199189
0.204664
0.210362
0.216297
0.222483
0.228933
0.235666
0.242697
0.250045
0.25773
0.265775
0.274201
0.283036
0.292306
0.302041
0.312275
0.323042
0.334382
0.346336
0.358952
0.372279
0.386375
0.4013
0.417122
0.433915
0.451763
0.470757
0.490999
0.512601
0.535691
0.56041
0.586917
0.615391
0.646036
0.679081
0.714792
0.753471
0.795474
0.841213
0.891183
0.945975
1.00632
1.07312
1.14754
1.23111
1.32586
1.43459
1.56118
1.71119
1.89261
2.11712
2.40195
2.77299
3.26984
3.95509
4.93162
6.37813
8.62707
12.3542
19.1016
32.9878
67.8204
189.486
974.627
0.0968968
0.0988965
0.10095
0.10306
0.105228
0.107456
0.109747
0.112104
0.11453
0.117026
0.119597
0.122244
0.124973
0.127786
0.130686
0.133678
0.136767
0.139955
0.143249
0.146652
0.150171
0.15381
0.157575
0.161473
0.165511
0.169695
0.174033
0.178532
0.183202
0.188052
0.193091
0.198329
0.203778
0.20945
0.215358
0.221515
0.227935
0.234636
0.241635
0.248948
0.256598
0.264604
0.272992
0.281785
0.291011
0.300701
0.310887
0.321603
0.33289
0.344788
0.357345
0.370611
0.384641
0.399497
0.415245
0.431962
0.449728
0.468635
0.488784
0.510289
0.533275
0.557884
0.584273
0.612622
0.643132
0.676035
0.711592
0.750107
0.791931
0.837478
0.887237
0.941797
1.00188
1.0684
1.14249
1.22567
1.31996
1.42812
1.554
1.70311
1.88337
2.10634
2.38915
2.75746
3.25066
3.93088
4.9004
6.33679
8.5705
12.2733
18.9783
32.7819
67.4245
188.527
971.28
0.0965316
0.0985238
0.10057
0.102671
0.104831
0.10705
0.109333
0.111681
0.114097
0.116583
0.119144
0.121781
0.124499
0.1273
0.130189
0.13317
0.136245
0.139421
0.142701
0.146091
0.149595
0.153219
0.15697
0.160852
0.164873
0.169039
0.173359
0.17784
0.182491
0.18732
0.192338
0.197555
0.202981
0.208629
0.214512
0.220643
0.227037
0.23371
0.240678
0.247961
0.255578
0.263551
0.271903
0.280658
0.289846
0.299494
0.309637
0.320308
0.331547
0.343395
0.355898
0.369108
0.383079
0.397872
0.413555
0.430201
0.447893
0.466722
0.486789
0.508205
0.531098
0.555607
0.58189
0.610126
0.640516
0.67329
0.708709
0.747075
0.788739
0.834112
0.883681
0.938034
0.997888
1.06414
1.13794
1.22077
1.31464
1.42229
1.54755
1.69585
1.87506
2.09666
2.37765
2.74353
3.23343
3.90914
4.87236
6.29966
8.51967
12.2005
18.8674
32.5968
67.0683
187.662
968.262
0.0962067
0.0981921
0.100231
0.102325
0.104477
0.10669
0.108964
0.111304
0.113711
0.116189
0.118741
0.121369
0.124077
0.126868
0.129747
0.132717
0.135782
0.138946
0.142214
0.145592
0.149083
0.152694
0.156431
0.160299
0.164305
0.168457
0.172761
0.177225
0.181858
0.18667
0.191669
0.196866
0.202272
0.207899
0.21376
0.219868
0.226238
0.232885
0.239828
0.247083
0.254671
0.262614
0.270934
0.279656
0.288809
0.298421
0.308525
0.319156
0.330352
0.342155
0.354612
0.367771
0.38169
0.396428
0.412052
0.428636
0.446263
0.465022
0.485014
0.506353
0.529162
0.553582
0.579771
0.607906
0.638189
0.670847
0.706143
0.744377
0.785899
0.831117
0.880518
0.934685
0.994333
1.06035
1.13389
1.21641
1.30992
1.41712
1.54181
1.6894
1.86769
2.08807
2.36744
2.73116
3.21814
3.88986
4.84747
6.2667
8.47454
12.1359
18.769
32.4325
66.7518
186.894
965.575
0.0959222
0.0979017
0.0999344
0.102022
0.104168
0.106374
0.108641
0.110974
0.113374
0.115844
0.118388
0.121008
0.123708
0.12649
0.12936
0.132321
0.135376
0.13853
0.141788
0.145155
0.148635
0.152235
0.155959
0.159815
0.163808
0.167946
0.172236
0.176686
0.181305
0.186101
0.191083
0.196263
0.201652
0.20726
0.213102
0.219189
0.225538
0.232164
0.239083
0.246314
0.253877
0.261793
0.270086
0.278779
0.287902
0.297482
0.307552
0.318147
0.329306
0.34107
0.353485
0.366602
0.380474
0.395163
0.410736
0.427266
0.444835
0.463533
0.483461
0.50473
0.527467
0.551809
0.577916
0.605963
0.636152
0.66871
0.703898
0.742016
0.783413
0.828496
0.877749
0.931754
0.991222
1.05704
1.13034
1.2126
1.30578
1.41259
1.5368
1.68377
1.86124
2.08057
2.35853
2.72036
3.20479
3.87301
4.82574
6.23791
8.43512
12.0795
18.683
32.2887
66.475
186.222
963.221
0.0956782
0.0976526
0.0996801
0.101763
0.103903
0.106103
0.108364
0.110691
0.113085
0.115548
0.118085
0.120698
0.123391
0.126166
0.129028
0.131981
0.135028
0.138174
0.141423
0.14478
0.148251
0.151841
0.155555
0.1594
0.163382
0.167509
0.171787
0.176225
0.18083
0.185612
0.190581
0.195747
0.20112
0.206713
0.212537
0.218608
0.224939
0.231545
0.238445
0.245655
0.253197
0.26109
0.269359
0.278028
0.287124
0.296676
0.306718
0.317283
0.32841
0.34014
0.35252
0.365599
0.379432
0.394079
0.409608
0.426091
0.443611
0.462257
0.482129
0.50334
0.526014
0.55029
0.576325
0.604297
0.634405
0.666877
0.701972
0.739991
0.781281
0.826248
0.875374
0.92924
0.988554
1.0542
1.1273
1.20933
1.30224
1.40871
1.5325
1.67894
1.85573
2.07414
2.3509
2.71112
3.19336
3.85859
4.80714
6.21327
8.40137
12.0312
18.6093
32.1657
66.2379
185.645
961.201
0.0954748
0.097445
0.0994682
0.101546
0.103682
0.105877
0.108134
0.110455
0.112843
0.115302
0.117833
0.12044
0.123127
0.125896
0.128752
0.131697
0.134738
0.137876
0.141118
0.144468
0.147931
0.151512
0.155218
0.159054
0.163027
0.167144
0.171412
0.17584
0.180434
0.185205
0.190163
0.195316
0.200677
0.206256
0.212067
0.218123
0.224439
0.23103
0.237913
0.245106
0.25263
0.260505
0.268753
0.277401
0.286476
0.296005
0.306023
0.316563
0.327663
0.339365
0.351715
0.364763
0.378563
0.393176
0.408668
0.425112
0.442591
0.461193
0.481019
0.502181
0.524802
0.549023
0.575
0.602908
0.632949
0.665349
0.700367
0.738303
0.779503
0.824373
0.873394
0.927144
0.98633
1.05183
1.12477
1.2066
1.29928
1.40548
1.52892
1.67492
1.85113
2.0688
2.34455
2.70343
3.18386
3.8466
4.79166
6.19276
8.37328
11.9909
18.548
32.0632
66.0404
185.165
959.515
0.095312
0.0972788
0.0992985
0.101373
0.103505
0.105696
0.107949
0.110266
0.112651
0.115105
0.117631
0.120234
0.122916
0.12568
0.12853
0.131471
0.134505
0.137638
0.140874
0.144218
0.147675
0.151249
0.154948
0.158777
0.162743
0.166852
0.171113
0.175532
0.180118
0.18488
0.189828
0.194971
0.200322
0.205891
0.211691
0.217735
0.224039
0.230617
0.237487
0.244667
0.252176
0.260036
0.268269
0.2769
0.285957
0.295469
0.305467
0.315986
0.327066
0.338746
0.351072
0.364095
0.377869
0.392453
0.407916
0.424329
0.441775
0.460342
0.480131
0.501254
0.523833
0.54801
0.573939
0.601797
0.631784
0.664126
0.699083
0.736952
0.778081
0.822873
0.87181
0.925467
0.98455
1.04994
1.12274
1.20442
1.29692
1.4029
1.52606
1.6717
1.84746
2.06452
2.33948
2.69728
3.17626
3.83701
4.77928
6.17637
8.35083
11.9588
18.499
31.9812
65.8825
184.781
958.166
0.0951899
0.0971542
0.0991713
0.101243
0.103372
0.105561
0.107811
0.110125
0.112506
0.114957
0.11748
0.120079
0.122757
0.125518
0.128365
0.131301
0.134331
0.13746
0.140692
0.144031
0.147483
0.151052
0.154746
0.15857
0.16253
0.166634
0.170888
0.175301
0.17988
0.184636
0.189577
0.194713
0.200056
0.205617
0.211408
0.217444
0.223739
0.230308
0.237168
0.244338
0.251836
0.259684
0.267905
0.276524
0.285568
0.295066
0.30505
0.315554
0.326617
0.338281
0.350589
0.363593
0.377347
0.391911
0.407352
0.423742
0.441163
0.459704
0.479465
0.500558
0.523106
0.547249
0.573143
0.600963
0.63091
0.663208
0.698119
0.735938
0.777013
0.821747
0.87062
0.924208
0.983214
1.04851
1.12122
1.20278
1.29515
1.40096
1.52392
1.66929
1.84471
2.06132
2.33567
2.69268
3.17057
3.82983
4.77001
6.16408
8.334
11.9347
18.4622
31.9198
65.764
184.493
957.154
0.0951084
0.097071
0.0990864
0.101157
0.103284
0.10547
0.107718
0.11003
0.112409
0.114858
0.117379
0.119976
0.122652
0.12541
0.128254
0.131188
0.134215
0.137341
0.14057
0.143906
0.147354
0.150921
0.154611
0.158432
0.162388
0.166488
0.170738
0.175147
0.179722
0.184473
0.189409
0.194541
0.199878
0.205434
0.21122
0.21725
0.223539
0.230102
0.236955
0.244118
0.251609
0.25945
0.267663
0.276274
0.285309
0.294797
0.304771
0.315266
0.326318
0.33797
0.350267
0.363259
0.376999
0.39155
0.406975
0.42335
0.440754
0.459278
0.479021
0.500094
0.522621
0.546742
0.572612
0.600407
0.630327
0.662597
0.697476
0.735263
0.776301
0.820997
0.869828
0.92337
0.982324
1.04756
1.12021
1.20169
1.29397
1.39966
1.52248
1.66769
1.84287
2.05918
2.33314
2.68961
3.16678
3.82504
4.76384
6.1559
8.32279
11.9186
18.4377
31.8788
65.6851
184.3
956.478
0.0950677
0.0970295
0.099044
0.101113
0.103239
0.105425
0.107672
0.109983
0.112361
0.114809
0.117329
0.119924
0.122599
0.125356
0.128199
0.131131
0.134157
0.137282
0.140509
0.143843
0.14729
0.150855
0.154544
0.158362
0.162317
0.166415
0.170663
0.17507
0.179643
0.184392
0.189325
0.194454
0.19979
0.205343
0.211126
0.217153
0.223439
0.229999
0.236849
0.244008
0.251495
0.259332
0.267542
0.276148
0.285179
0.294663
0.304632
0.315122
0.326169
0.337815
0.350106
0.363091
0.376825
0.391369
0.406787
0.423154
0.44055
0.459064
0.478798
0.499861
0.522378
0.546488
0.572346
0.600128
0.630034
0.66229
0.697154
0.734924
0.775945
0.820621
0.869431
0.922949
0.981878
1.04709
1.1197
1.20115
1.29337
1.39902
1.52177
1.66688
1.84196
2.05812
2.33187
2.68807
3.16488
3.82265
4.76075
6.1518
8.31718
11.9106
18.4255
31.8584
65.6456
184.204
956.14
0.0950677
0.0970295
0.099044
0.101113
0.103239
0.105425
0.107672
0.109983
0.112361
0.114809
0.117329
0.119924
0.122599
0.125356
0.128199
0.131131
0.134157
0.137282
0.140509
0.143843
0.14729
0.150855
0.154544
0.158362
0.162317
0.166415
0.170663
0.17507
0.179643
0.184391
0.189325
0.194454
0.19979
0.205343
0.211126
0.217153
0.223439
0.229999
0.236849
0.244008
0.251495
0.259332
0.267542
0.276148
0.285179
0.294663
0.304632
0.315122
0.326169
0.337815
0.350106
0.363091
0.376826
0.391369
0.406787
0.423154
0.44055
0.459065
0.478798
0.499861
0.522378
0.546488
0.572346
0.600129
0.630035
0.66229
0.697154
0.734924
0.775945
0.820622
0.869432
0.92295
0.981879
1.04709
1.1197
1.20115
1.29338
1.39902
1.52177
1.66688
1.84196
2.05812
2.33187
2.68807
3.16488
3.82265
4.76075
6.15181
8.31719
11.9106
18.4255
31.8584
65.6457
184.204
956.141
0.0951084
0.0970711
0.0990865
0.101157
0.103284
0.10547
0.107718
0.11003
0.112409
0.114858
0.117379
0.119976
0.122652
0.12541
0.128254
0.131188
0.134215
0.137341
0.14057
0.143906
0.147354
0.150921
0.154611
0.158432
0.162388
0.166488
0.170738
0.175147
0.179722
0.184473
0.189409
0.194541
0.199878
0.205434
0.21122
0.21725
0.223539
0.230102
0.236955
0.244118
0.251609
0.259449
0.267663
0.276273
0.285308
0.294797
0.304771
0.315265
0.326318
0.33797
0.350267
0.363258
0.376999
0.391549
0.406975
0.42335
0.440754
0.459278
0.479021
0.500094
0.522621
0.546742
0.572612
0.600407
0.630327
0.662597
0.697476
0.735263
0.776302
0.820997
0.869828
0.92337
0.982324
1.04757
1.12021
1.20169
1.29397
1.39966
1.52248
1.66769
1.84287
2.05918
2.33314
2.68961
3.16678
3.82504
4.76384
6.1559
8.32279
11.9186
18.4377
31.8788
65.6851
184.3
956.478
0.0951899
0.0971543
0.0991714
0.101243
0.103372
0.105561
0.107811
0.110125
0.112506
0.114957
0.11748
0.120079
0.122758
0.125518
0.128365
0.131301
0.134332
0.13746
0.140692
0.144031
0.147483
0.151053
0.154746
0.15857
0.16253
0.166634
0.170888
0.175301
0.17988
0.184636
0.189577
0.194713
0.200056
0.205617
0.211408
0.217444
0.223739
0.230308
0.237168
0.244337
0.251836
0.259684
0.267905
0.276524
0.285568
0.295065
0.305049
0.315553
0.326617
0.33828
0.350588
0.363592
0.377346
0.39191
0.407351
0.423741
0.441162
0.459703
0.479464
0.500557
0.523105
0.547248
0.573141
0.600962
0.630908
0.663207
0.698117
0.735937
0.777012
0.821746
0.870619
0.924207
0.983213
1.04851
1.12122
1.20278
1.29515
1.40096
1.52391
1.66929
1.84471
2.06132
2.33567
2.69267
3.17057
3.82983
4.77001
6.16408
8.334
11.9347
18.4622
31.9198
65.764
184.493
957.154
0.0953121
0.0972789
0.0992986
0.101373
0.103505
0.105696
0.107949
0.110267
0.112651
0.115105
0.117632
0.120234
0.122916
0.12568
0.128531
0.131471
0.134506
0.137639
0.140875
0.144219
0.147675
0.15125
0.154949
0.158778
0.162744
0.166853
0.171113
0.175532
0.180118
0.18488
0.189828
0.194972
0.200322
0.205891
0.211691
0.217735
0.224039
0.230617
0.237487
0.244667
0.252176
0.260036
0.268269
0.2769
0.285957
0.295468
0.305466
0.315986
0.327065
0.338745
0.351071
0.364094
0.377867
0.392452
0.407915
0.424328
0.441773
0.460341
0.48013
0.501252
0.523831
0.548008
0.573937
0.601795
0.631782
0.664124
0.69908
0.73695
0.778078
0.822871
0.871807
0.925465
0.984548
1.04993
1.12274
1.20442
1.29692
1.40289
1.52606
1.6717
1.84746
2.06452
2.33947
2.69728
3.17626
3.83701
4.77928
6.17636
8.35083
11.9588
18.499
31.9812
65.8825
184.781
958.166
0.0954749
0.0974452
0.0994684
0.101547
0.103682
0.105877
0.108134
0.110455
0.112844
0.115302
0.117834
0.120441
0.123127
0.125897
0.128752
0.131698
0.134738
0.137877
0.141119
0.144468
0.147931
0.151513
0.155219
0.159055
0.163028
0.167145
0.171413
0.17584
0.180435
0.185206
0.190163
0.195316
0.200677
0.206256
0.212067
0.218123
0.224439
0.23103
0.237913
0.245106
0.25263
0.260504
0.268753
0.277401
0.286475
0.296005
0.306022
0.316562
0.327662
0.339365
0.351715
0.364762
0.378562
0.393175
0.408666
0.425111
0.442589
0.461191
0.481018
0.502179
0.524801
0.549021
0.574998
0.602906
0.632947
0.665347
0.700365
0.738301
0.779501
0.824372
0.873393
0.927143
0.986329
1.05183
1.12477
1.2066
1.29928
1.40548
1.52892
1.67492
1.85113
2.06879
2.34455
2.70343
3.18386
3.8466
4.79166
6.19276
8.37328
11.9909
18.548
32.0632
66.0404
185.165
959.515
0.0956785
0.097653
0.0996805
0.101763
0.103903
0.106103
0.108365
0.110691
0.113085
0.115549
0.118086
0.120699
0.123391
0.126167
0.129029
0.131981
0.135028
0.138174
0.141423
0.144781
0.148252
0.151841
0.155556
0.159401
0.163383
0.167509
0.171788
0.176225
0.180831
0.185613
0.190582
0.195747
0.201121
0.206713
0.212538
0.218608
0.224939
0.231546
0.238445
0.245656
0.253197
0.261091
0.269359
0.278028
0.287124
0.296676
0.306717
0.317282
0.328409
0.34014
0.352519
0.365598
0.37943
0.394078
0.409606
0.42609
0.443609
0.462255
0.482127
0.503337
0.526011
0.550287
0.576322
0.604294
0.634402
0.666874
0.701969
0.739988
0.781277
0.826244
0.875371
0.929237
0.988551
1.0542
1.1273
1.20932
1.30223
1.40871
1.5325
1.67894
1.85573
2.07414
2.3509
2.71112
3.19336
3.85859
4.80714
6.21327
8.40137
12.0312
18.6093
32.1657
66.2379
185.645
961.2
0.0959225
0.0979021
0.0999348
0.102023
0.104169
0.106374
0.108642
0.110974
0.113374
0.115845
0.118388
0.121008
0.123708
0.126491
0.129361
0.132321
0.135376
0.138531
0.141789
0.145156
0.148636
0.152236
0.15596
0.159816
0.163809
0.167947
0.172237
0.176687
0.181306
0.186101
0.191084
0.196264
0.201653
0.207261
0.213102
0.21919
0.225539
0.232164
0.239084
0.246315
0.253878
0.261794
0.270086
0.27878
0.287902
0.297482
0.307552
0.318147
0.329306
0.34107
0.353485
0.366601
0.380473
0.395162
0.410735
0.427265
0.444833
0.463531
0.483459
0.504729
0.527465
0.551807
0.577914
0.605961
0.63615
0.668708
0.703895
0.742014
0.78341
0.828493
0.877746
0.931751
0.99122
1.05704
1.13034
1.21259
1.30578
1.41259
1.5368
1.68376
1.86124
2.08057
2.35853
2.72036
3.20479
3.87301
4.82574
6.23791
8.43512
12.0795
18.683
32.2887
66.475
186.222
963.221
0.0962072
0.0981926
0.100231
0.102326
0.104478
0.10669
0.108965
0.111304
0.113712
0.11619
0.118741
0.121369
0.124078
0.126869
0.129748
0.132718
0.135782
0.138947
0.142215
0.145593
0.149084
0.152695
0.156432
0.1603
0.164306
0.168457
0.172761
0.177226
0.181859
0.186671
0.19167
0.196867
0.202273
0.2079
0.213761
0.219869
0.226239
0.232886
0.239828
0.247084
0.254672
0.262614
0.270934
0.279657
0.288809
0.298421
0.308525
0.319156
0.330352
0.342155
0.354612
0.367771
0.38169
0.396427
0.412051
0.428635
0.446262
0.465021
0.485013
0.506351
0.52916
0.55358
0.579769
0.607905
0.638187
0.670846
0.706141
0.744375
0.785897
0.831115
0.880516
0.934683
0.994331
1.06035
1.13388
1.21641
1.30991
1.41712
1.54181
1.6894
1.86769
2.08807
2.36744
2.73116
3.21814
3.88986
4.84747
6.2667
8.47455
12.1359
18.769
32.4325
66.7518
186.894
965.575
0.0965321
0.0985242
0.10057
0.102672
0.104831
0.107051
0.109333
0.111681
0.114097
0.116584
0.119144
0.121782
0.124499
0.127301
0.13019
0.13317
0.136246
0.139422
0.142702
0.146092
0.149596
0.15322
0.15697
0.160853
0.164874
0.16904
0.17336
0.177841
0.182492
0.187321
0.192339
0.197556
0.202982
0.20863
0.214513
0.220644
0.227038
0.23371
0.240679
0.247962
0.255579
0.263551
0.271903
0.280659
0.289846
0.299495
0.309637
0.320309
0.331547
0.343395
0.355899
0.369108
0.383079
0.397873
0.413555
0.430202
0.447894
0.466723
0.486789
0.508206
0.531098
0.555607
0.581891
0.610126
0.640516
0.67329
0.708708
0.747075
0.788739
0.834111
0.883681
0.938033
0.997887
1.06414
1.13793
1.22077
1.31464
1.42229
1.54755
1.69585
1.87506
2.09666
2.37764
2.74353
3.23343
3.90914
4.87236
6.29966
8.51967
12.2005
18.8674
32.5969
67.0683
187.663
968.263
0.0968972
0.098897
0.100951
0.10306
0.105228
0.107456
0.109748
0.112105
0.11453
0.117027
0.119597
0.122245
0.124974
0.127786
0.130687
0.133679
0.136767
0.139956
0.143249
0.146653