/*--------------------------------*- C++ -*----------------------------------*\
  =========                 |
  \\      /  F ield         | OpenFOAM: The Open Source CFD Toolbox
   \\    /   O peration     | Website:  https://openfoam.org
    \\  /    A nd           | Version:  7
     \\/     M anipulation  |
\*---------------------------------------------------------------------------*/
FoamFile
{
    version     2.0;
    format      ascii;
    class       volScalarField;
    location    "0";
    object      strainRate;
}
// * * * * * * * * * * * * * * * * * * * * * * * * * * * * * * * * * * * * * //

dimensions      [0 0 -1 0 0 0 0];

internalField   nonuniform List<scalar> 
1762
(
0.00231297
0.00238623
0.00247081
0.00256517
0.00266765
0.00277639
0.00288907
0.00300219
0.00310914
0.00319773
0.00338917
0.00269283
0.00277428
0.00286985
0.00297837
0.00309836
0.00322782
0.00336386
0.00350197
0.00363543
0.00375766
0.00419807
0.00305473
0.00313474
0.00322848
0.00333463
0.00345159
0.0035773
0.00370935
0.00384533
0.00398482
0.00413465
0.00463465
0.0034123
0.00349036
0.00358181
0.00368543
0.00379985
0.00392362
0.00405561
0.00419581
0.00434691
0.00451542
0.00499881
0.00376784
0.00384448
0.00393444
0.00403672
0.00415033
0.00427444
0.00440883
0.00455434
0.00471323
0.00488808
0.00534523
0.00412192
0.0041977
0.00428691
0.00438877
0.00450259
0.00462794
0.00476487
0.00491407
0.00507656
0.00525266
0.00568527
0.00447473
0.00455009
0.00463904
0.00474097
0.00485539
0.00498199
0.00512078
0.00527201
0.00543584
0.00561173
0.00602293
0.00482646
0.00490165
0.00499061
0.00509283
0.00520788
0.00533548
0.00547547
0.00562774
0.005792
0.00596742
0.00636013
0.00517731
0.0052525
0.00534161
0.00544418
0.00555981
0.00568816
0.00582893
0.00598178
0.00614619
0.00632129
0.00669801
0.00552758
0.00560288
0.00569222
0.00579517
0.00591132
0.00604026
0.00618161
0.00633487
0.00649945
0.00667445
0.00703732
0.00587763
0.00595312
0.00604275
0.0061461
0.00626275
0.00639224
0.00653411
0.0066878
0.00685265
0.00702782
0.00737867
0.00622789
0.00630363
0.00639361
0.0064974
0.00661456
0.00674462
0.00688705
0.00704126
0.00720657
0.00738213
0.00772255
0.00657882
0.00665487
0.00674526
0.00684955
0.00696728
0.00709797
0.00724105
0.0073959
0.00756185
0.00773806
0.00806943
0.00693088
0.00700732
0.00709818
0.00720303
0.00732142
0.00745283
0.00759667
0.00775234
0.00791912
0.0080962
0.00841975
0.00736145
0.00745286
0.00755837
0.0076775
0.00780974
0.00795449
0.00811112
0.00827894
0.00845712
0.00877392
0.0078098
0.00791605
0.00803604
0.00816924
0.00831504
0.00847281
0.00864185
0.00882135
0.00913237
0.00816949
0.00827659
0.00839755
0.00853183
0.00867884
0.00883792
0.00900838
0.00918941
0.00949553
0.00853244
0.00864049
0.00876253
0.00889804
0.0090464
0.00920697
0.00937904
0.00956181
0.00986381
0.00889913
0.00900823
0.00913148
0.00926835
0.00941823
0.00958046
0.00975434
0.00993905
0.0102377
0.00927006
0.00938032
0.00950491
0.00964328
0.00979484
0.00995891
0.0101348
0.0103216
0.0106175
0.00964573
0.00975726
0.00988331
0.0100233
0.0101767
0.0103428
0.0105209
0.0107101
0.0110039
0.0101395
0.0102672
0.010409
0.0105644
0.0107327
0.0109131
0.0111049
0.0113971
0.0105277
0.010657
0.0108008
0.0109583
0.011129
0.011312
0.0115066
0.0117978
0.00856465
0.00893217
0.0093041
0.00968093
0.0100632
0.0104513
0.0108459
0.0112475
0.0116566
0.0120737
0.0124995
0.00503959
0.00538989
0.00573977
0.00608969
0.00644013
0.00679157
0.0071445
0.0074994
0.00785677
0.00821708
0.00858083
0.00894851
0.00932061
0.00969763
0.0100801
0.0104685
0.0108633
0.0112651
0.0116745
0.0120919
0.012518
0.0033002
0.00365793
0.00401349
0.00436722
0.00471943
0.00507048
0.00542074
0.00577064
0.00612062
0.00647116
0.00682273
0.00717582
0.00753092
0.00788851
0.00824908
0.00861311
0.00898111
0.00935356
0.00973097
0.0101138
0.0105026
0.010898
0.0113003
0.0117102
0.0121282
0.012555
0.00334865
0.00370542
0.0040603
0.0044136
0.00476557
0.0051165
0.00546674
0.00581669
0.00616678
0.00651748
0.00686926
0.0072226
0.00757799
0.00793592
0.00829687
0.00866135
0.00902982
0.0094028
0.00978078
0.0101643
0.0105538
0.0109498
0.0113529
0.0117636
0.0121825
0.0126102
0.00231298
0.00269284
0.00305474
0.00341231
0.00376785
0.00412192
0.00447474
0.00482647
0.00517732
0.00552759
0.00587764
0.0062279
0.00657883
0.00693089
0.00728458
0.00764037
0.00799877
0.00836025
0.0087253
0.00909443
0.00946812
0.00984687
0.0102312
0.0106216
0.0110186
0.0114227
0.0118346
0.0122546
0.0126835
0.00238624
0.00277429
0.00313475
0.00349037
0.00384449
0.00419771
0.0045501
0.00490166
0.00525251
0.00560289
0.00595313
0.00630364
0.00665489
0.00700733
0.00736146
0.00771777
0.00807675
0.00843889
0.00880469
0.00917463
0.00954921
0.00992894
0.0103143
0.0107058
0.0111041
0.0115095
0.0119227
0.0123443
0.0127747
0.00247082
0.00286986
0.00322849
0.00358181
0.00393445
0.00428692
0.00463905
0.00499062
0.00534162
0.00569223
0.00604276
0.00639362
0.00674527
0.00709819
0.00745287
0.00780981
0.00816951
0.00853245
0.00889914
0.00927007
0.00964574
0.0100266
0.0104133
0.0108062
0.0112059
0.0116129
0.0120278
0.0124511
0.0128835
0.00256518
0.00297838
0.00333464
0.00368544
0.00403673
0.00438878
0.00474098
0.00509284
0.00544419
0.00579518
0.00614611
0.00649741
0.00684956
0.00720304
0.00755838
0.00791606
0.0082766
0.0086405
0.00900824
0.00938033
0.00975727
0.0101396
0.0105277
0.0109222
0.0113236
0.0117325
0.0121494
0.0125748
0.0130093
0.00266766
0.00309837
0.00345159
0.00379986
0.00415034
0.0045026
0.0048554
0.00520789
0.00555982
0.00591133
0.00626276
0.00661458
0.00696729
0.00732143
0.00767751
0.00803605
0.00839756
0.00876254
0.00913149
0.00950492
0.00988332
0.0102672
0.0106571
0.0110534
0.0114568
0.0118678
0.0122869
0.0127147
0.0131519
0.0027764
0.00322783
0.00357731
0.00392363
0.00427445
0.00462795
0.004982
0.00533549
0.00568817
0.00604027
0.00639225
0.00674463
0.00709798
0.00745284
0.00780975
0.00816925
0.00853184
0.00889805
0.00926836
0.00964329
0.0100233
0.010409
0.0108008
0.0111993
0.0116049
0.0120183
0.01244
0.0128705
0.0133105
0.00288908
0.00336387
0.00370936
0.00405561
0.00440884
0.00476488
0.00512079
0.00547548
0.00582894
0.00618162
0.00653412
0.00688706
0.00724106
0.00759668
0.0079545
0.00831505
0.00867885
0.00904641
0.00941824
0.00979484
0.0101767
0.0105644
0.0109584
0.0113591
0.0117673
0.0121833
0.0126078
0.0130414
0.0134845
0.0030022
0.00350198
0.00384534
0.00419581
0.00455435
0.00491408
0.00527202
0.00562775
0.00598179
0.00633488
0.00668781
0.00704127
0.00739591
0.00775235
0.00811113
0.00847282
0.00883793
0.00920698
0.00958047
0.00995891
0.0103428
0.0107327
0.011129
0.0115323
0.0119432
0.0123622
0.0127898
0.0132266
0.0136733
0.00310915
0.00363543
0.00398483
0.00434692
0.00471324
0.00507657
0.00543585
0.00579201
0.00614619
0.00649945
0.00685266
0.00720658
0.00756186
0.00791913
0.00827894
0.00864186
0.00900839
0.00937905
0.00975435
0.0101348
0.0105209
0.0109131
0.011312
0.0117181
0.012132
0.0125541
0.0129851
0.0134255
0.013876
0.00319774
0.00375766
0.00413466
0.00451543
0.00488809
0.00525266
0.00561173
0.00596743
0.0063213
0.00667446
0.00702783
0.00738214
0.00773807
0.00809621
0.00845713
0.00882136
0.00918942
0.00956182
0.00993906
0.0103217
0.0107101
0.0111049
0.0115066
0.0119157
0.0123327
0.0127582
0.0131928
0.0136371
0.0140916
0.00338918
0.00419808
0.00463466
0.00499882
0.00534524
0.00568528
0.00602294
0.00636014
0.00669802
0.00703733
0.00737868
0.00772256
0.00806944
0.00841976
0.00877393
0.00913238
0.00949554
0.00986382
0.0102377
0.0106175
0.0110039
0.0113971
0.0117978
0.0122064
0.0126235
0.0130495
0.013485
0.0139306
0.0143869
0.00338918
0.00419807
0.00463466
0.00499882
0.00534524
0.00568528
0.00602294
0.00636014
0.00669802
0.00703733
0.00737868
0.00772256
0.00806944
0.00841976
0.00877393
0.00913238
0.00949554
0.00986382
0.0102377
0.0106175
0.0110039
0.0113971
0.0117978
0.0122064
0.0126235
0.0130495
0.013485
0.0139306
0.0143869
0.00319774
0.00375766
0.00413466
0.00451543
0.00488809
0.00525266
0.00561173
0.00596743
0.0063213
0.00667446
0.00702783
0.00738214
0.00773807
0.00809621
0.00845713
0.00882136
0.00918942
0.00956182
0.00993906
0.0103217
0.0107101
0.0111049
0.0115066
0.0119157
0.0123327
0.0127582
0.0131928
0.0136371
0.0140916
0.00310915
0.00363543
0.00398483
0.00434692
0.00471324
0.00507657
0.00543585
0.00579201
0.0061462
0.00649946
0.00685266
0.00720658
0.00756186
0.00791913
0.00827894
0.00864186
0.00900839
0.00937905
0.00975435
0.0101348
0.0105209
0.0109131
0.011312
0.0117181
0.012132
0.0125541
0.0129851
0.0134255
0.013876
0.0030022
0.00350198
0.00384534
0.00419582
0.00455435
0.00491408
0.00527202
0.00562775
0.00598179
0.00633489
0.00668781
0.00704127
0.00739592
0.00775235
0.00811114
0.00847282
0.00883793
0.00920698
0.00958047
0.00995891
0.0103428
0.0107327
0.011129
0.0115323
0.0119432
0.0123622
0.0127898
0.0132266
0.0136733
0.00288908
0.00336387
0.00370936
0.00405562
0.00440884
0.00476488
0.00512079
0.00547548
0.00582894
0.00618162
0.00653412
0.00688706
0.00724106
0.00759669
0.00795451
0.00831505
0.00867885
0.00904641
0.00941824
0.00979484
0.0101767
0.0105644
0.0109584
0.0113591
0.0117673
0.0121833
0.0126078
0.0130414
0.0134845
0.0027764
0.00322783
0.00357731
0.00392363
0.00427445
0.00462795
0.004982
0.00533549
0.00568817
0.00604027
0.00639225
0.00674463
0.00709798
0.00745284
0.00780975
0.00816925
0.00853184
0.00889805
0.00926836
0.00964329
0.0100233
0.010409
0.0108008
0.0111993
0.0116049
0.0120183
0.01244
0.0128705
0.0133105
0.00266766
0.00309837
0.0034516
0.00379986
0.00415034
0.0045026
0.0048554
0.00520789
0.00555983
0.00591133
0.00626276
0.00661458
0.0069673
0.00732143
0.00767752
0.00803606
0.00839756
0.00876254
0.0091315
0.00950492
0.00988332
0.0102672
0.0106571
0.0110534
0.0114568
0.0118678
0.0122869
0.0127147
0.0131519
0.00256518
0.00297838
0.00333464
0.00368544
0.00403674
0.00438879
0.00474098
0.00509284
0.0054442
0.00579518
0.00614611
0.00649742
0.00684956
0.00720305
0.00755838
0.00791607
0.00827661
0.0086405
0.00900824
0.00938033
0.00975727
0.0101396
0.0105277
0.0109222
0.0113236
0.0117325
0.0121494
0.0125748
0.0130093
0.00247082
0.00286986
0.00322849
0.00358182
0.00393445
0.00428692
0.00463905
0.00499062
0.00534162
0.00569223
0.00604276
0.00639362
0.00674527
0.00709819
0.00745287
0.00780981
0.00816951
0.00853245
0.00889915
0.00927007
0.00964574
0.0100266
0.0104133
0.0108062
0.0112059
0.0116129
0.0120278
0.0124511
0.0128835
0.00238624
0.00277429
0.00313475
0.00349037
0.00384449
0.00419771
0.0045501
0.00490166
0.00525251
0.00560289
0.00595313
0.00630365
0.00665489
0.00700733
0.00736146
0.00771777
0.00807675
0.0084389
0.00880469
0.00917463
0.00954922
0.00992894
0.0103143
0.0107058
0.0111041
0.0115095
0.0119227
0.0123443
0.0127747
0.00231298
0.00269284
0.00305474
0.00341232
0.00376785
0.00412193
0.00447475
0.00482647
0.00517732
0.00552759
0.00587764
0.0062279
0.00657883
0.0069309
0.00728458
0.00764038
0.00799877
0.00836025
0.00872531
0.00909443
0.00946812
0.00984687
0.0102312
0.0106216
0.0110186
0.0114227
0.0118346
0.0122546
0.0126835
0.00225242
0.00262649
0.00298949
0.00334866
0.00370542
0.00406031
0.0044136
0.00476557
0.0051165
0.00546674
0.00581669
0.00616678
0.00651748
0.00686926
0.0072226
0.00757799
0.00793592
0.00829688
0.00866135
0.00902983
0.00940281
0.00978078
0.0101643
0.0105538
0.0109498
0.0113529
0.0117636
0.0121825
0.0126102
0.00220581
0.00257602
0.00293984
0.0033002
0.00365793
0.00401349
0.00436722
0.00471944
0.00507048
0.00542074
0.00577064
0.00612062
0.00647116
0.00682273
0.00717583
0.00753092
0.00788851
0.00824908
0.00861312
0.00898111
0.00935356
0.00973097
0.0101138
0.0105026
0.010898
0.0113003
0.0117102
0.0121282
0.012555
0.00217414
0.00254203
0.00290639
0.00326756
0.00362595
0.00398199
0.00433604
0.00468845
0.00503959
0.00538989
0.00573977
0.00608969
0.00644013
0.00679158
0.0071445
0.00749941
0.00785677
0.00821708
0.00858083
0.00894851
0.00932061
0.00969763
0.0100801
0.0104685
0.0108633
0.0112651
0.0116745
0.0120919
0.012518
0.00215813
0.00252493
0.00288956
0.00325113
0.00360987
0.00396616
0.00432037
0.00467288
0.00502409
0.00537441
0.00572428
0.00607418
0.00642457
0.00677595
0.0071288
0.00748361
0.00784086
0.00820104
0.00856465
0.00893217
0.0093041
0.00968093
0.0100632
0.0104513
0.0108459
0.0112475
0.0116566
0.00215813
0.00252493
0.00288956
0.00325113
0.00360987
0.00396616
0.00432037
0.00467288
0.00502409
0.00537441
0.00572428
0.00607418
0.00642457
0.00677595
0.0071288
0.00748361
0.00784086
0.00820104
0.00856465
0.00893217
0.0093041
0.00968093
0.0100632
0.0104513
0.0108459
0.0112475
0.0116566
0.00217414
0.00254203
0.00290639
0.00326755
0.00362595
0.00398199
0.00433604
0.00468845
0.00503959
0.00538989
0.00573977
0.00608969
0.00644013
0.00679158
0.0071445
0.0074994
0.00785677
0.00821708
0.00858083
0.00894851
0.00932061
0.00969763
0.0100801
0.0104685
0.0108633
0.0112651
0.0116745
0.00220581
0.00257602
0.00293984
0.0033002
0.00365793
0.00401349
0.00436722
0.00471943
0.00507048
0.00542074
0.00577064
0.00612062
0.00647116
0.00682273
0.00717582
0.00753092
0.00788851
0.00824908
0.00861311
0.00898111
0.00935356
0.00973096
0.0101138
0.0105026
0.010898
0.0113003
0.0117102
0.00225242
0.00262649
0.00298949
0.00334865
0.00370542
0.0040603
0.0044136
0.00476557
0.0051165
0.00546674
0.00581669
0.00616678
0.00651748
0.00686926
0.0072226
0.00757799
0.00793592
0.00829687
0.00866134
0.00902982
0.0094028
0.00978078
0.0101643
0.0105538
0.0109498
0.0113529
0.0117636
0.00231298
0.00269284
0.00305474
0.00341231
0.00376785
0.00412193
0.00447474
0.00482647
0.00517732
0.00552758
0.00587764
0.0062279
0.00657883
0.00693089
0.00728458
0.00764037
0.00799877
0.00836024
0.0087253
0.00909443
0.00946812
0.00984687
0.0102312
0.0106216
0.00238624
0.00277429
0.00313475
0.00349037
0.00384449
0.00419771
0.0045501
0.00490166
0.00525251
0.00560289
0.00595313
0.00630364
0.00665488
0.00700733
0.00736146
0.00771777
0.00807675
0.00843889
0.00880469
0.00917463
0.00954921
0.00992893
0.0103143
0.00247082
0.00286986
0.00322849
0.00358181
0.00393445
0.00428692
0.00463904
0.00499062
0.00534162
0.00569223
0.00604276
0.00639362
0.00674527
0.00709818
0.00745287
0.00780981
0.0081695
0.00853245
0.00889914
0.00927007
0.00964573
0.0100266
0.0104133
0.00256518
0.00297838
0.00333464
0.00368544
0.00403673
0.00438878
0.00474098
0.00509284
0.00544419
0.00579518
0.00614611
0.00649741
0.00684955
0.00720304
0.00755837
0.00791606
0.0082766
0.00864049
0.00900824
0.00938032
0.00975726
0.0101395
0.0105277
0.00266766
0.00309836
0.00345159
0.00379986
0.00415033
0.0045026
0.00485539
0.00520789
0.00555982
0.00591132
0.00626275
0.00661457
0.00696729
0.00732143
0.00767751
0.00803605
0.00839756
0.00876254
0.00913149
0.00950491
0.00988331
0.0102672
0.010657
0.0027764
0.00322783
0.00357731
0.00392363
0.00427445
0.00462795
0.00498199
0.00533548
0.00568816
0.00604027
0.00639224
0.00674463
0.00709797
0.00745283
0.00780974
0.00816924
0.00853184
0.00889804
0.00926836
0.00964328
0.0100233
0.010409
0.0108008
0.00288907
0.00336386
0.00370936
0.00405561
0.00440883
0.00476488
0.00512078
0.00547547
0.00582893
0.00618161
0.00653411
0.00688706
0.00724105
0.00759668
0.0079545
0.00831504
0.00867884
0.0090464
0.00941823
0.00979484
0.0101767
0.0105644
0.0109583
0.00300219
0.00350197
0.00384534
0.00419581
0.00455435
0.00491407
0.00527202
0.00562775
0.00598178
0.00633488
0.0066878
0.00704126
0.00739591
0.00775234
0.00811113
0.00847281
0.00883792
0.00920697
0.00958046
0.00995891
0.0103428
0.0107327
0.011129
0.00310914
0.00363543
0.00398482
0.00434691
0.00471324
0.00507656
0.00543584
0.005792
0.00614619
0.00649945
0.00685266
0.00720657
0.00756185
0.00791912
0.00827894
0.00864185
0.00900838
0.00937904
0.00975434
0.0101348
0.0105209
0.0109131
0.011312
0.00319773
0.00375766
0.00413466
0.00451542
0.00488808
0.00525266
0.00561173
0.00596743
0.00632129
0.00667446
0.00702782
0.00738214
0.00773806
0.0080962
0.00845712
0.00882135
0.00918941
0.00956181
0.00993905
0.0103216
0.0107101
0.0111049
0.0115066
0.00338918
0.00419807
0.00463465
0.00499881
0.00534523
0.00568528
0.00602294
0.00636014
0.00669801
0.00703732
0.00737867
0.00772255
0.00806943
0.00841975
0.00877392
0.00913237
0.00949553
0.00986381
0.0102377
0.0106175
0.0110039
0.0113971
0.0117978
0.00207863
0.00219452
0.00233088
0.00248657
0.00266055
0.00285198
0.00306036
0.00328601
0.00353173
0.00381827
0.00440012
0.00177317
0.00187219
0.00198852
0.00212096
0.00226829
0.00242943
0.00260359
0.0027906
0.00299207
0.00322509
0.00381827
0.00150951
0.00161321
0.00173453
0.0018722
0.00202488
0.00219131
0.00237037
0.00256122
0.00276389
0.00299207
0.00353173
0.0012511
0.00136321
0.0014929
0.00163872
0.00179921
0.00197295
0.00215857
0.00235482
0.00256122
0.0027906
0.00328601
0.000991949
0.00111495
0.00125519
0.00141093
0.00158062
0.00176275
0.00195586
0.00215857
0.00237037
0.00260359
0.00306036
0.000733414
0.000868255
0.00102101
0.00118867
0.00136922
0.00156106
0.00176275
0.00197295
0.00219131
0.00242943
0.00285198
0.000487868
0.000628304
0.000792304
0.000973073
0.00116619
0.00136922
0.00158062
0.00179922
0.00202488
0.00226829
0.00266056
0.000283386
0.000410856
0.000575786
0.000766758
0.000973072
0.00118867
0.00141093
0.00163872
0.0018722
0.00212096
0.00248658
0.000147609
0.000240655
0.000385959
0.000575785
0.000792303
0.001021
0.00125519
0.0014929
0.00173453
0.00198853
0.00233088
8.10257e-05
0.000133196
0.000240651
0.00041085
0.000628299
0.000868252
0.00111495
0.00136321
0.00161321
0.00187219
0.00219452
5.72656e-05
8.10206e-05
0.000147598
0.000283372
0.000487855
0.000733405
0.000991944
0.0012511
0.00150951
0.00177317
0.00207863
4.88993e-05
6.07857e-05
9.85624e-05
0.000197586
0.000377892
0.000620634
0.000888374
0.00115804
0.00142462
0.00169256
0.00198435
4.40743e-05
5.28824e-05
7.58517e-05
0.000147214
0.000301314
0.000534285
0.000807056
0.00108573
0.00135964
0.00163125
0.00191266
4.07035e-05
4.90906e-05
6.5886e-05
0.000121111
0.000255038
0.000476821
0.000750948
0.00103602
0.00131556
0.00158998
0.0018644
3.88062e-05
4.72687e-05
6.23751e-05
0.000110537
0.000233544
0.000448324
0.000722312
0.00101064
0.00129327
0.00156921
0.00184012
3.88062e-05
4.72688e-05
6.2375e-05
0.000110536
0.000233543
0.000448323
0.000722311
0.00101064
0.00129327
0.00156921
0.00184012
4.07037e-05
4.90906e-05
6.58857e-05
0.00012111
0.000255035
0.000476818
0.000750946
0.00103602
0.00131556
0.00158998
0.0018644
4.40745e-05
5.28823e-05
7.58506e-05
0.000147211
0.00030131
0.000534281
0.000807054
0.00108573
0.00135963
0.00163125
0.00191266
4.88995e-05
6.07852e-05
9.85598e-05
0.000197581
0.000377886
0.000620629
0.000888371
0.00115804
0.00142462
0.00169255
0.00198434
5.72652e-05
8.10185e-05
0.000147593
0.000283365
0.000487849
0.0007334
0.000991941
0.00125109
0.00150951
0.00177317
0.00207863
8.10236e-05
0.000133191
0.000240643
0.000410841
0.000628293
0.000868248
0.00111495
0.00136321
0.00161321
0.00187219
0.00219451
0.000147604
0.000240647
0.000385949
0.000575777
0.000792297
0.001021
0.00125519
0.0014929
0.00173453
0.00198852
0.00233088
0.000283378
0.000410846
0.000575778
0.000766752
0.000973068
0.00118866
0.00141093
0.00163872
0.0018722
0.00212096
0.00248657
0.000487859
0.000628296
0.000792297
0.000973067
0.00116618
0.00136921
0.00158062
0.00179921
0.00202488
0.00226829
0.00266055
0.000733406
0.000868248
0.001021
0.00118866
0.00136921
0.00156106
0.00176275
0.00197295
0.0021913
0.00242943
0.00285197
0.000991942
0.00111495
0.00125519
0.00141093
0.00158062
0.00176275
0.00195585
0.00215856
0.00237037
0.00260359
0.00306036
0.00125109
0.00136321
0.0014929
0.00163871
0.00179921
0.00197294
0.00215856
0.00235481
0.00256122
0.00279059
0.003286
0.0015095
0.0016132
0.00173453
0.00187219
0.00202487
0.0021913
0.00237036
0.00256122
0.00276389
0.00299206
0.00353172
0.00177316
0.00187218
0.00198852
0.00212095
0.00226829
0.00242942
0.00260358
0.00279059
0.00299206
0.00322509
0.00381826
0.00207862
0.00219451
0.00233087
0.00248656
0.00266055
0.00285197
0.00306035
0.003286
0.00353172
0.00381826
0.00440011
)
;

boundaryField
{
    inlet
    {
        type            cyclic;
    }
    outlet
    {
        type            cyclic;
    }
    wall
    {
        type            calculated;
        value           nonuniform 0();
    }
    procBoundary7to4
    {
        type            processor;
        value           nonuniform List<scalar> 
34
(
0.0108459
0.0112475
0.0116566
0.0120737
0.0124995
0.0129346
0.0129534
0.012991
0.0130472
0.0131219
0.0132147
0.0133255
0.0134537
0.0135989
0.0137605
0.013938
0.0141305
0.0143371
0.0145571
0.0148545
0.0148545
0.0145571
0.0143371
0.0141304
0.013938
0.0137605
0.0135989
0.0134537
0.0133255
0.0132147
0.0131219
0.0130472
0.012991
0.0129534
)
;
    }
    procBoundary7to5
    {
        type            processor;
        value           nonuniform List<scalar> 
42
(
0.00728457
0.00728457
0.00771776
0.00771776
0.00807674
0.00843888
0.00880468
0.00917462
0.0095492
0.0100266
0.0100266
0.0104133
0.0109222
0.0110534
0.0111993
0.0113591
0.0115323
0.0117181
0.0119157
0.0122064
0.0120737
0.0124995
0.0120737
0.0120737
0.0120919
0.0121282
0.0110186
0.0114227
0.0121825
0.0118345
0.0110186
0.0107058
0.0107058
0.0108062
0.0109222
0.0110534
0.0111993
0.0113591
0.0115323
0.0117181
0.0119156
0.0122064
)
;
    }
    procBoundary7to6
    {
        type            processor;
        value           nonuniform List<scalar> 
72
(
0.00225241
0.00262648
0.00298948
0.00334864
0.00370541
0.00406029
0.00441359
0.00476556
0.00511649
0.00546673
0.00581668
0.00616677
0.00651747
0.00686924
0.00856465
0.00893217
0.0093041
0.00968093
0.0100632
0.0104513
0.00502409
0.0053744
0.00572428
0.00607418
0.00642457
0.00677595
0.0071288
0.00748361
0.00784086
0.00820104
0.00820104
0.00326756
0.00362595
0.00398199
0.00433604
0.00468845
0.00468845
0.00293984
0.00225243
0.00262649
0.00298949
0.00298949
0.00198435
0.00169256
0.00142463
0.00115805
0.000888385
0.000620651
0.000377913
0.000197606
9.85752e-05
6.07928e-05
4.89031e-05
4.24451e-05
3.6868e-05
3.26591e-05
3.03192e-05
3.03192e-05
3.26592e-05
3.68681e-05
4.24453e-05
4.89031e-05
6.07921e-05
9.85723e-05
0.000197599
0.000377904
0.000620642
0.000888377
0.00115804
0.00142462
0.00169255
0.00198434
)
;
    }
}


// ************************************************************************* //
