/*--------------------------------*- C++ -*----------------------------------*\
  =========                 |
  \\      /  F ield         | OpenFOAM: The Open Source CFD Toolbox
   \\    /   O peration     | Website:  https://openfoam.org
    \\  /    A nd           | Version:  7
     \\/     M anipulation  |
\*---------------------------------------------------------------------------*/
FoamFile
{
    version     2.0;
    format      ascii;
    class       volScalarField;
    location    "172000";
    object      nut;
}
// * * * * * * * * * * * * * * * * * * * * * * * * * * * * * * * * * * * * * //

dimensions      [0 2 -1 0 0 0 0];

internalField   nonuniform List<scalar> 
4783
(
2.29014e-05
2.28942e-05
2.28872e-05
2.28802e-05
2.28734e-05
2.28668e-05
2.28606e-05
2.28548e-05
2.28494e-05
2.28444e-05
2.28401e-05
2.28362e-05
2.28329e-05
2.28301e-05
2.28277e-05
2.28258e-05
2.28243e-05
2.28231e-05
2.28221e-05
2.28213e-05
2.28207e-05
2.28203e-05
2.29132e-05
2.29068e-05
2.29002e-05
2.28936e-05
2.2887e-05
2.28804e-05
2.28741e-05
2.2868e-05
2.28622e-05
2.28568e-05
2.28518e-05
2.28473e-05
2.28432e-05
2.28396e-05
2.28365e-05
2.28338e-05
2.28315e-05
2.28297e-05
2.28281e-05
2.28269e-05
2.2826e-05
2.28252e-05
2.29234e-05
2.2918e-05
2.29122e-05
2.29062e-05
2.29e-05
2.28938e-05
2.28877e-05
2.28817e-05
2.28758e-05
2.28702e-05
2.2865e-05
2.286e-05
2.28555e-05
2.28514e-05
2.28476e-05
2.28444e-05
2.28415e-05
2.28391e-05
2.2837e-05
2.28353e-05
2.28339e-05
2.28329e-05
2.29315e-05
2.29274e-05
2.29227e-05
2.29175e-05
2.29121e-05
2.29065e-05
2.29008e-05
2.28951e-05
2.28895e-05
2.2884e-05
2.28787e-05
2.28737e-05
2.28689e-05
2.28645e-05
2.28605e-05
2.28569e-05
2.28536e-05
2.28508e-05
2.28483e-05
2.28463e-05
2.28446e-05
2.28433e-05
2.2937e-05
2.29344e-05
2.2931e-05
2.29271e-05
2.29226e-05
2.29178e-05
2.29128e-05
2.29077e-05
2.29025e-05
2.28973e-05
2.28923e-05
2.28874e-05
2.28828e-05
2.28784e-05
2.28743e-05
2.28705e-05
2.28671e-05
2.2864e-05
2.28614e-05
2.28591e-05
2.28572e-05
2.28557e-05
2.29395e-05
2.29386e-05
2.29368e-05
2.29342e-05
2.2931e-05
2.29272e-05
2.29232e-05
2.29188e-05
2.29143e-05
2.29097e-05
2.29051e-05
2.29006e-05
2.28962e-05
2.2892e-05
2.28881e-05
2.28844e-05
2.2881e-05
2.28779e-05
2.28752e-05
2.28729e-05
2.28709e-05
2.28693e-05
2.29387e-05
2.29397e-05
2.29395e-05
2.29385e-05
2.29367e-05
2.29343e-05
2.29313e-05
2.2928e-05
2.29244e-05
2.29205e-05
2.29166e-05
2.29126e-05
2.29087e-05
2.29049e-05
2.29012e-05
2.28978e-05
2.28946e-05
2.28916e-05
2.2889e-05
2.28867e-05
2.28848e-05
2.28833e-05
2.29343e-05
2.29372e-05
2.29389e-05
2.29396e-05
2.29394e-05
2.29385e-05
2.29369e-05
2.29347e-05
2.29321e-05
2.29293e-05
2.29262e-05
2.29229e-05
2.29196e-05
2.29164e-05
2.29132e-05
2.29101e-05
2.29072e-05
2.29045e-05
2.29021e-05
2.29e-05
2.28982e-05
2.28967e-05
2.29258e-05
2.29309e-05
2.29346e-05
2.29372e-05
2.29388e-05
2.29394e-05
2.29393e-05
2.29385e-05
2.29372e-05
2.29354e-05
2.29333e-05
2.2931e-05
2.29285e-05
2.29259e-05
2.29233e-05
2.29207e-05
2.29183e-05
2.2916e-05
2.29139e-05
2.2912e-05
2.29104e-05
2.29091e-05
2.29133e-05
2.29205e-05
2.29264e-05
2.2931e-05
2.29344e-05
2.29368e-05
2.29383e-05
2.2939e-05
2.29391e-05
2.29386e-05
2.29376e-05
2.29363e-05
2.29347e-05
2.29329e-05
2.29311e-05
2.29291e-05
2.29273e-05
2.29254e-05
2.29237e-05
2.29222e-05
2.29209e-05
2.29198e-05
2.28964e-05
2.29059e-05
2.2914e-05
2.29206e-05
2.29261e-05
2.29303e-05
2.29336e-05
2.29359e-05
2.29375e-05
2.29384e-05
2.29387e-05
2.29385e-05
2.2938e-05
2.29371e-05
2.29361e-05
2.29349e-05
2.29337e-05
2.29324e-05
2.29312e-05
2.29301e-05
2.29291e-05
2.29282e-05
2.2875e-05
2.28869e-05
2.28972e-05
2.29061e-05
2.29135e-05
2.29198e-05
2.29249e-05
2.29289e-05
2.29321e-05
2.29345e-05
2.29361e-05
2.29372e-05
2.29378e-05
2.29381e-05
2.29379e-05
2.29376e-05
2.29371e-05
2.29365e-05
2.29358e-05
2.29351e-05
2.29345e-05
2.2934e-05
2.28491e-05
2.28634e-05
2.2876e-05
2.28871e-05
2.28967e-05
2.29049e-05
2.29119e-05
2.29178e-05
2.29227e-05
2.29266e-05
2.29297e-05
2.29322e-05
2.2934e-05
2.29354e-05
2.29363e-05
2.29368e-05
2.29371e-05
2.29372e-05
2.29372e-05
2.2937e-05
2.29368e-05
2.29367e-05
2.28184e-05
2.28352e-05
2.28502e-05
2.28635e-05
2.28753e-05
2.28856e-05
2.28946e-05
2.29023e-05
2.29089e-05
2.29145e-05
2.29192e-05
2.29231e-05
2.29262e-05
2.29288e-05
2.29308e-05
2.29323e-05
2.29335e-05
2.29343e-05
2.2935e-05
2.29354e-05
2.29357e-05
2.29358e-05
2.27831e-05
2.28023e-05
2.28197e-05
2.28353e-05
2.28493e-05
2.28617e-05
2.28727e-05
2.28824e-05
2.28908e-05
2.28981e-05
2.29044e-05
2.29097e-05
2.29142e-05
2.2918e-05
2.29212e-05
2.29238e-05
2.29258e-05
2.29275e-05
2.29289e-05
2.29299e-05
2.2743e-05
2.27647e-05
2.27844e-05
2.28024e-05
2.28186e-05
2.28332e-05
2.28462e-05
2.28578e-05
2.28681e-05
2.28771e-05
2.28851e-05
2.28919e-05
2.28979e-05
2.2903e-05
2.29073e-05
2.29109e-05
2.2914e-05
2.29165e-05
2.29186e-05
2.26981e-05
2.27223e-05
2.27444e-05
2.27647e-05
2.27831e-05
2.27999e-05
2.2815e-05
2.28286e-05
2.28407e-05
2.28515e-05
2.28611e-05
2.28696e-05
2.28769e-05
2.28834e-05
2.28889e-05
2.28937e-05
2.28978e-05
2.26485e-05
2.26751e-05
2.26996e-05
2.27222e-05
2.27429e-05
2.27618e-05
2.2779e-05
2.27945e-05
2.28086e-05
2.28212e-05
2.28325e-05
2.28425e-05
2.28514e-05
2.28592e-05
2.25941e-05
2.26232e-05
2.265e-05
2.26749e-05
2.26978e-05
2.27189e-05
2.27381e-05
2.27557e-05
2.27717e-05
2.27861e-05
2.27991e-05
2.28107e-05
2.2535e-05
2.25665e-05
2.25957e-05
2.26228e-05
2.2648e-05
2.26712e-05
2.26925e-05
2.27121e-05
2.27299e-05
2.27461e-05
2.24713e-05
2.25051e-05
2.25366e-05
2.2566e-05
2.25933e-05
2.26187e-05
2.26421e-05
2.26636e-05
2.26833e-05
2.2403e-05
2.2439e-05
2.24728e-05
2.25044e-05
2.25339e-05
2.25614e-05
2.25868e-05
2.26103e-05
2.23301e-05
2.23684e-05
2.24044e-05
2.24382e-05
2.24699e-05
2.24994e-05
2.25268e-05
2.22527e-05
2.22933e-05
2.23315e-05
2.23674e-05
2.24011e-05
2.24327e-05
2.21709e-05
2.22137e-05
2.2254e-05
2.22921e-05
2.23278e-05
2.23614e-05
2.20848e-05
2.21297e-05
2.21722e-05
2.22123e-05
2.225e-05
2.19945e-05
2.20415e-05
2.20859e-05
2.2128e-05
2.19001e-05
2.1949e-05
2.19955e-05
2.20395e-05
2.18016e-05
2.18525e-05
2.19009e-05
2.16991e-05
2.17519e-05
2.18022e-05
2.15927e-05
2.16474e-05
2.16995e-05
2.14826e-05
2.15391e-05
2.15929e-05
2.13688e-05
2.1427e-05
2.14825e-05
2.12514e-05
2.13113e-05
2.13685e-05
2.11306e-05
2.1192e-05
2.12508e-05
2.10063e-05
2.10693e-05
2.11296e-05
2.08787e-05
2.09432e-05
2.1005e-05
2.0748e-05
2.08139e-05
2.08771e-05
2.06141e-05
2.06814e-05
2.07459e-05
2.04772e-05
2.05458e-05
2.06117e-05
2.03373e-05
2.04072e-05
2.04744e-05
2.01947e-05
2.02657e-05
2.03341e-05
2.29014e-05
2.29132e-05
2.29234e-05
2.29315e-05
2.2937e-05
2.29395e-05
2.29387e-05
2.29343e-05
2.29258e-05
2.29133e-05
2.28964e-05
2.2875e-05
2.28491e-05
2.28184e-05
2.27831e-05
2.2743e-05
2.26981e-05
2.26485e-05
2.25941e-05
2.2535e-05
2.24713e-05
2.24029e-05
2.23301e-05
2.22527e-05
2.21709e-05
2.20848e-05
2.19945e-05
2.19001e-05
2.18016e-05
2.16991e-05
2.15927e-05
2.14826e-05
2.13688e-05
2.12514e-05
2.11306e-05
2.10063e-05
2.08787e-05
2.0748e-05
2.06141e-05
2.04772e-05
2.03373e-05
2.01947e-05
2.28942e-05
2.29068e-05
2.2918e-05
2.29274e-05
2.29344e-05
2.29386e-05
2.29397e-05
2.29372e-05
2.29309e-05
2.29205e-05
2.29059e-05
2.28869e-05
2.28634e-05
2.28352e-05
2.28023e-05
2.27647e-05
2.27223e-05
2.26751e-05
2.26231e-05
2.25665e-05
2.25051e-05
2.2439e-05
2.23684e-05
2.22933e-05
2.22137e-05
2.21297e-05
2.20415e-05
2.1949e-05
2.18525e-05
2.17519e-05
2.16474e-05
2.15391e-05
2.1427e-05
2.13113e-05
2.1192e-05
2.10693e-05
2.09432e-05
2.08139e-05
2.06814e-05
2.05458e-05
2.04072e-05
2.02657e-05
2.28872e-05
2.29002e-05
2.29122e-05
2.29227e-05
2.2931e-05
2.29368e-05
2.29395e-05
2.29389e-05
2.29346e-05
2.29264e-05
2.2914e-05
2.28972e-05
2.2876e-05
2.28502e-05
2.28197e-05
2.27844e-05
2.27444e-05
2.26996e-05
2.265e-05
2.25957e-05
2.25366e-05
2.24728e-05
2.24044e-05
2.23315e-05
2.2254e-05
2.21721e-05
2.20859e-05
2.19955e-05
2.19008e-05
2.18021e-05
2.16995e-05
2.15929e-05
2.14825e-05
2.13684e-05
2.12508e-05
2.11296e-05
2.1005e-05
2.08771e-05
2.07459e-05
2.06117e-05
2.04744e-05
2.03341e-05
2.28802e-05
2.28936e-05
2.29062e-05
2.29175e-05
2.2927e-05
2.29342e-05
2.29385e-05
2.29396e-05
2.29372e-05
2.2931e-05
2.29206e-05
2.29061e-05
2.28871e-05
2.28635e-05
2.28353e-05
2.28024e-05
2.27646e-05
2.27222e-05
2.26749e-05
2.26228e-05
2.2566e-05
2.25044e-05
2.24382e-05
2.23674e-05
2.22921e-05
2.22122e-05
2.2128e-05
2.20395e-05
2.19468e-05
2.18499e-05
2.1749e-05
2.16442e-05
2.15355e-05
2.14231e-05
2.1307e-05
2.11873e-05
2.10642e-05
2.09376e-05
2.08079e-05
2.06749e-05
2.05388e-05
2.03998e-05
2.28734e-05
2.2887e-05
2.29e-05
2.29121e-05
2.29226e-05
2.2931e-05
2.29367e-05
2.29394e-05
2.29388e-05
2.29344e-05
2.29261e-05
2.29135e-05
2.28967e-05
2.28753e-05
2.28493e-05
2.28186e-05
2.27831e-05
2.27428e-05
2.26978e-05
2.26479e-05
2.25933e-05
2.25339e-05
2.24699e-05
2.24011e-05
2.23278e-05
2.225e-05
2.21678e-05
2.20812e-05
2.19903e-05
2.18952e-05
2.17961e-05
2.1693e-05
2.15859e-05
2.14751e-05
2.13605e-05
2.12423e-05
2.11206e-05
2.09955e-05
2.08671e-05
2.07354e-05
2.06005e-05
2.04626e-05
2.28668e-05
2.28804e-05
2.28938e-05
2.29065e-05
2.29178e-05
2.29272e-05
2.29343e-05
2.29385e-05
2.29394e-05
2.29368e-05
2.29303e-05
2.29198e-05
2.29049e-05
2.28856e-05
2.28617e-05
2.28331e-05
2.27998e-05
2.27618e-05
2.27189e-05
2.26711e-05
2.26186e-05
2.25614e-05
2.24994e-05
2.24327e-05
2.23614e-05
2.22855e-05
2.22052e-05
2.21204e-05
2.20314e-05
2.19381e-05
2.18406e-05
2.17392e-05
2.16337e-05
2.15245e-05
2.14114e-05
2.12947e-05
2.11744e-05
2.10506e-05
2.09235e-05
2.0793e-05
2.06594e-05
2.05227e-05
2.28606e-05
2.28741e-05
2.28877e-05
2.29008e-05
2.29128e-05
2.29232e-05
2.29313e-05
2.29368e-05
2.29393e-05
2.29383e-05
2.29336e-05
2.29249e-05
2.29119e-05
2.28946e-05
2.28727e-05
2.28462e-05
2.2815e-05
2.27789e-05
2.27381e-05
2.26925e-05
2.2642e-05
2.25868e-05
2.25268e-05
2.24621e-05
2.23927e-05
2.23187e-05
2.22402e-05
2.21573e-05
2.207e-05
2.19784e-05
2.18827e-05
2.17828e-05
2.1679e-05
2.15712e-05
2.14596e-05
2.13443e-05
2.12254e-05
2.1103e-05
2.09771e-05
2.08479e-05
2.07154e-05
2.05798e-05
2.28548e-05
2.2868e-05
2.28817e-05
2.28951e-05
2.29077e-05
2.29188e-05
2.2928e-05
2.29347e-05
2.29385e-05
2.2939e-05
2.29359e-05
2.29289e-05
2.29178e-05
2.29023e-05
2.28824e-05
2.28578e-05
2.28286e-05
2.27945e-05
2.27557e-05
2.2712e-05
2.26636e-05
2.26103e-05
2.25522e-05
2.24894e-05
2.24219e-05
2.23497e-05
2.2273e-05
2.21918e-05
2.21063e-05
2.20163e-05
2.19222e-05
2.18239e-05
2.17216e-05
2.16153e-05
2.15051e-05
2.13912e-05
2.12736e-05
2.11525e-05
2.10278e-05
2.08998e-05
2.07685e-05
2.0634e-05
2.28494e-05
2.28622e-05
2.28758e-05
2.28895e-05
2.29025e-05
2.29143e-05
2.29244e-05
2.29321e-05
2.29372e-05
2.29391e-05
2.29375e-05
2.29321e-05
2.29226e-05
2.29089e-05
2.28908e-05
2.28681e-05
2.28407e-05
2.28086e-05
2.27716e-05
2.27299e-05
2.26833e-05
2.26319e-05
2.25756e-05
2.25146e-05
2.24489e-05
2.23786e-05
2.23036e-05
2.22241e-05
2.21401e-05
2.20518e-05
2.19592e-05
2.18625e-05
2.17616e-05
2.16567e-05
2.1548e-05
2.14354e-05
2.13191e-05
2.11992e-05
2.10757e-05
2.09488e-05
2.08186e-05
2.06852e-05
2.28444e-05
2.28568e-05
2.28702e-05
2.2884e-05
2.28973e-05
2.29097e-05
2.29205e-05
2.29293e-05
2.29354e-05
2.29386e-05
2.29384e-05
2.29345e-05
2.29266e-05
2.29145e-05
2.28981e-05
2.28771e-05
2.28515e-05
2.28212e-05
2.27861e-05
2.27461e-05
2.27013e-05
2.26517e-05
2.25972e-05
2.2538e-05
2.2474e-05
2.24053e-05
2.23319e-05
2.2254e-05
2.21717e-05
2.20849e-05
2.19938e-05
2.18985e-05
2.1799e-05
2.16955e-05
2.15881e-05
2.14768e-05
2.13617e-05
2.1243e-05
2.11207e-05
2.09949e-05
2.08658e-05
2.07334e-05
2.28401e-05
2.28518e-05
2.2865e-05
2.28787e-05
2.28923e-05
2.29051e-05
2.29166e-05
2.29262e-05
2.29333e-05
2.29376e-05
2.29387e-05
2.29361e-05
2.29297e-05
2.29192e-05
2.29044e-05
2.2885e-05
2.28611e-05
2.28325e-05
2.2799e-05
2.27608e-05
2.27177e-05
2.26697e-05
2.2617e-05
2.25594e-05
2.2497e-05
2.24299e-05
2.23581e-05
2.22818e-05
2.22009e-05
2.21156e-05
2.2026e-05
2.1932e-05
2.18339e-05
2.17317e-05
2.16256e-05
2.15155e-05
2.14016e-05
2.1284e-05
2.11628e-05
2.10381e-05
2.091e-05
2.07786e-05
2.28362e-05
2.28473e-05
2.286e-05
2.28737e-05
2.28874e-05
2.29006e-05
2.29126e-05
2.29229e-05
2.2931e-05
2.29363e-05
2.29385e-05
2.29372e-05
2.29322e-05
2.29231e-05
2.29097e-05
2.28919e-05
2.28695e-05
2.28425e-05
2.28107e-05
2.2774e-05
2.27325e-05
2.26862e-05
2.2635e-05
2.25789e-05
2.25181e-05
2.24525e-05
2.23823e-05
2.23074e-05
2.22279e-05
2.2144e-05
2.20557e-05
2.19631e-05
2.18663e-05
2.17653e-05
2.16603e-05
2.15514e-05
2.14387e-05
2.13222e-05
2.1202e-05
2.10783e-05
2.09512e-05
2.08207e-05
2.06869e-05
2.28329e-05
2.28432e-05
2.28555e-05
2.28689e-05
2.28828e-05
2.28962e-05
2.29087e-05
2.29196e-05
2.29285e-05
2.29347e-05
2.2938e-05
2.29378e-05
2.2934e-05
2.29262e-05
2.29142e-05
2.28978e-05
2.28769e-05
2.28513e-05
2.2821e-05
2.27859e-05
2.27459e-05
2.2701e-05
2.26513e-05
2.25967e-05
2.25374e-05
2.24732e-05
2.24044e-05
2.23308e-05
2.22527e-05
2.21701e-05
2.20831e-05
2.19917e-05
2.18961e-05
2.17963e-05
2.16925e-05
2.15847e-05
2.1473e-05
2.13575e-05
2.12384e-05
2.11156e-05
2.09894e-05
2.08598e-05
2.07269e-05
2.05907e-05
2.28301e-05
2.28396e-05
2.28514e-05
2.28646e-05
2.28784e-05
2.2892e-05
2.29049e-05
2.29164e-05
2.29259e-05
2.29329e-05
2.29371e-05
2.2938e-05
2.29353e-05
2.29287e-05
2.2918e-05
2.29029e-05
2.28833e-05
2.28591e-05
2.28302e-05
2.27964e-05
2.27578e-05
2.27144e-05
2.2666e-05
2.26129e-05
2.25548e-05
2.2492e-05
2.24245e-05
2.23522e-05
2.22754e-05
2.2194e-05
2.21082e-05
2.2018e-05
2.19235e-05
2.18248e-05
2.1722e-05
2.16152e-05
2.15045e-05
2.139e-05
2.12718e-05
2.115e-05
2.10246e-05
2.08958e-05
2.07637e-05
2.06283e-05
2.28277e-05
2.28365e-05
2.28476e-05
2.28605e-05
2.28743e-05
2.28881e-05
2.29012e-05
2.29131e-05
2.29233e-05
2.29311e-05
2.29361e-05
2.29379e-05
2.29362e-05
2.29307e-05
2.29211e-05
2.29073e-05
2.28889e-05
2.28659e-05
2.28383e-05
2.28058e-05
2.27685e-05
2.27263e-05
2.26793e-05
2.26273e-05
2.25706e-05
2.2509e-05
2.24426e-05
2.23716e-05
2.22959e-05
2.22157e-05
2.2131e-05
2.20418e-05
2.19484e-05
2.18507e-05
2.17489e-05
2.16431e-05
2.15334e-05
2.14197e-05
2.13024e-05
2.11814e-05
2.10568e-05
2.09288e-05
2.07974e-05
2.06628e-05
2.0525e-05
2.28258e-05
2.28338e-05
2.28444e-05
2.28569e-05
2.28705e-05
2.28844e-05
2.28978e-05
2.29101e-05
2.29207e-05
2.29291e-05
2.29349e-05
2.29376e-05
2.29368e-05
2.29323e-05
2.29237e-05
2.29109e-05
2.28937e-05
2.28719e-05
2.28453e-05
2.2814e-05
2.27779e-05
2.27369e-05
2.2691e-05
2.26403e-05
2.25846e-05
2.25242e-05
2.2459e-05
2.2389e-05
2.23144e-05
2.22352e-05
2.21515e-05
2.20634e-05
2.19709e-05
2.18742e-05
2.17733e-05
2.16684e-05
2.15595e-05
2.14467e-05
2.13301e-05
2.12099e-05
2.10861e-05
2.09588e-05
2.08281e-05
2.06941e-05
2.05569e-05
2.28243e-05
2.28315e-05
2.28415e-05
2.28536e-05
2.28671e-05
2.2881e-05
2.28946e-05
2.29072e-05
2.29183e-05
2.29272e-05
2.29336e-05
2.29371e-05
2.29371e-05
2.29334e-05
2.29258e-05
2.2914e-05
2.28977e-05
2.28769e-05
2.28515e-05
2.28212e-05
2.27862e-05
2.27462e-05
2.27014e-05
2.26517e-05
2.25971e-05
2.25377e-05
2.24735e-05
2.24045e-05
2.23309e-05
2.22526e-05
2.21699e-05
2.20826e-05
2.1991e-05
2.18952e-05
2.17951e-05
2.1691e-05
2.15829e-05
2.14708e-05
2.1355e-05
2.12355e-05
2.11123e-05
2.09857e-05
2.08556e-05
2.07222e-05
2.05856e-05
2.04459e-05
2.28231e-05
2.28297e-05
2.28391e-05
2.28508e-05
2.2864e-05
2.28779e-05
2.28916e-05
2.29045e-05
2.2916e-05
2.29254e-05
2.29324e-05
2.29364e-05
2.29372e-05
2.29343e-05
2.29275e-05
2.29165e-05
2.29012e-05
2.28813e-05
2.28567e-05
2.28274e-05
2.27933e-05
2.27543e-05
2.27105e-05
2.26617e-05
2.2608e-05
2.25495e-05
2.24862e-05
2.24182e-05
2.23454e-05
2.2268e-05
2.21861e-05
2.20996e-05
2.20088e-05
2.19138e-05
2.18145e-05
2.1711e-05
2.16036e-05
2.14923e-05
2.13771e-05
2.12582e-05
2.11356e-05
2.10096e-05
2.08801e-05
2.07472e-05
2.06112e-05
2.04719e-05
2.03296e-05
2.28221e-05
2.28282e-05
2.2837e-05
2.28483e-05
2.28614e-05
2.28752e-05
2.2889e-05
2.29021e-05
2.29139e-05
2.29237e-05
2.29312e-05
2.29358e-05
2.29371e-05
2.29349e-05
2.29288e-05
2.29186e-05
2.2904e-05
2.28849e-05
2.28612e-05
2.28327e-05
2.27994e-05
2.27613e-05
2.27182e-05
2.26703e-05
2.26175e-05
2.25598e-05
2.24973e-05
2.243e-05
2.2358e-05
2.22814e-05
2.22001e-05
2.21144e-05
2.20243e-05
2.19299e-05
2.18313e-05
2.17285e-05
2.16217e-05
2.15109e-05
2.13963e-05
2.1278e-05
2.1156e-05
2.10305e-05
2.09015e-05
2.07691e-05
2.06335e-05
2.04947e-05
2.03528e-05
2.28213e-05
2.28269e-05
2.28353e-05
2.28463e-05
2.28591e-05
2.28729e-05
2.28867e-05
2.29e-05
2.2912e-05
2.29222e-05
2.293e-05
2.29351e-05
2.2937e-05
2.29353e-05
2.29298e-05
2.29202e-05
2.29063e-05
2.28879e-05
2.28649e-05
2.28372e-05
2.28046e-05
2.27671e-05
2.27248e-05
2.26776e-05
2.26255e-05
2.25685e-05
2.25067e-05
2.244e-05
2.23687e-05
2.22927e-05
2.22121e-05
2.21271e-05
2.20376e-05
2.19437e-05
2.18457e-05
2.17434e-05
2.16372e-05
2.15269e-05
2.14128e-05
2.1295e-05
2.11734e-05
2.10483e-05
2.09198e-05
2.07878e-05
2.06526e-05
2.05142e-05
2.03727e-05
2.28207e-05
2.2826e-05
2.28339e-05
2.28446e-05
2.28572e-05
2.28709e-05
2.28848e-05
2.28982e-05
2.29104e-05
2.29209e-05
2.2929e-05
2.29345e-05
2.29368e-05
2.29356e-05
2.29306e-05
2.29216e-05
2.29082e-05
2.28904e-05
2.28679e-05
2.28408e-05
2.28088e-05
2.2772e-05
2.27302e-05
2.26836e-05
2.26321e-05
2.25757e-05
2.25144e-05
2.24484e-05
2.23776e-05
2.23021e-05
2.22221e-05
2.21375e-05
2.20485e-05
2.19552e-05
2.18576e-05
2.17559e-05
2.165e-05
2.15402e-05
2.14265e-05
2.13091e-05
2.11879e-05
2.10632e-05
2.0935e-05
2.08034e-05
2.06685e-05
2.05304e-05
2.03893e-05
2.28203e-05
2.28252e-05
2.28329e-05
2.28433e-05
2.28557e-05
2.28693e-05
2.28832e-05
2.28967e-05
2.29091e-05
2.29198e-05
2.29282e-05
2.2934e-05
2.29366e-05
2.29358e-05
2.29312e-05
2.29226e-05
2.29096e-05
2.28923e-05
2.28703e-05
2.28436e-05
2.28121e-05
2.27757e-05
2.27345e-05
2.26883e-05
2.26373e-05
2.25814e-05
2.25206e-05
2.2455e-05
2.23847e-05
2.23096e-05
2.223e-05
2.21459e-05
2.20573e-05
2.19644e-05
2.18671e-05
2.17658e-05
2.16603e-05
2.15508e-05
2.14375e-05
2.13204e-05
2.11995e-05
2.10751e-05
2.09472e-05
2.08159e-05
2.06813e-05
2.05434e-05
2.04025e-05
2.02585e-05
2.282e-05
2.28247e-05
2.28321e-05
2.28423e-05
2.28546e-05
2.28681e-05
2.28821e-05
2.28956e-05
2.29081e-05
2.29189e-05
2.29276e-05
2.29335e-05
2.29364e-05
2.29359e-05
2.29316e-05
2.29233e-05
2.29107e-05
2.28937e-05
2.2872e-05
2.28457e-05
2.28146e-05
2.27786e-05
2.27377e-05
2.26919e-05
2.26412e-05
2.25856e-05
2.25252e-05
2.24599e-05
2.23899e-05
2.23153e-05
2.2236e-05
2.21521e-05
2.20638e-05
2.19712e-05
2.18743e-05
2.17732e-05
2.1668e-05
2.15588e-05
2.14457e-05
2.13288e-05
2.12082e-05
2.1084e-05
2.09563e-05
2.08252e-05
2.06908e-05
2.05532e-05
2.04124e-05
2.02686e-05
2.28198e-05
2.28244e-05
2.28316e-05
2.28416e-05
2.28538e-05
2.28673e-05
2.28813e-05
2.28949e-05
2.29074e-05
2.29183e-05
2.29271e-05
2.29332e-05
2.29363e-05
2.2936e-05
2.29319e-05
2.29237e-05
2.29114e-05
2.28946e-05
2.28732e-05
2.28471e-05
2.28162e-05
2.27804e-05
2.27398e-05
2.26942e-05
2.26438e-05
2.25884e-05
2.25282e-05
2.24632e-05
2.23934e-05
2.2319e-05
2.22399e-05
2.21563e-05
2.20682e-05
2.19758e-05
2.1879e-05
2.17781e-05
2.16731e-05
2.15641e-05
2.14512e-05
2.13344e-05
2.1214e-05
2.109e-05
2.09624e-05
2.08315e-05
2.06972e-05
2.05597e-05
2.0419e-05
2.02754e-05
2.01288e-05
2.28197e-05
2.28242e-05
2.28314e-05
2.28413e-05
2.28535e-05
2.2867e-05
2.28809e-05
2.28945e-05
2.29071e-05
2.29181e-05
2.29269e-05
2.29331e-05
2.29362e-05
2.2936e-05
2.2932e-05
2.2924e-05
2.29117e-05
2.2895e-05
2.28737e-05
2.28478e-05
2.2817e-05
2.27814e-05
2.27408e-05
2.26954e-05
2.26451e-05
2.25898e-05
2.25297e-05
2.24648e-05
2.23952e-05
2.23208e-05
2.22419e-05
2.21584e-05
2.20704e-05
2.1978e-05
2.18814e-05
2.17806e-05
2.16757e-05
2.15667e-05
2.14539e-05
2.13373e-05
2.12169e-05
2.10929e-05
2.09655e-05
2.08346e-05
2.07004e-05
2.05629e-05
2.04223e-05
2.02787e-05
2.01322e-05
2.28197e-05
2.28242e-05
2.28314e-05
2.28413e-05
2.28535e-05
2.2867e-05
2.28809e-05
2.28945e-05
2.29071e-05
2.29181e-05
2.29269e-05
2.29331e-05
2.29362e-05
2.2936e-05
2.2932e-05
2.2924e-05
2.29117e-05
2.2895e-05
2.28737e-05
2.28478e-05
2.2817e-05
2.27814e-05
2.27408e-05
2.26954e-05
2.26451e-05
2.25898e-05
2.25297e-05
2.24648e-05
2.23952e-05
2.23208e-05
2.22419e-05
2.21584e-05
2.20704e-05
2.1978e-05
2.18814e-05
2.17806e-05
2.16757e-05
2.15667e-05
2.14539e-05
2.13373e-05
2.12169e-05
2.10929e-05
2.09655e-05
2.08346e-05
2.07004e-05
2.05629e-05
2.04223e-05
2.02787e-05
2.01322e-05
1.99828e-05
2.28198e-05
2.28244e-05
2.28316e-05
2.28416e-05
2.28538e-05
2.28673e-05
2.28813e-05
2.28949e-05
2.29074e-05
2.29183e-05
2.29271e-05
2.29332e-05
2.29363e-05
2.2936e-05
2.29319e-05
2.29237e-05
2.29114e-05
2.28946e-05
2.28732e-05
2.28471e-05
2.28162e-05
2.27804e-05
2.27398e-05
2.26942e-05
2.26438e-05
2.25884e-05
2.25282e-05
2.24632e-05
2.23934e-05
2.2319e-05
2.22399e-05
2.21563e-05
2.20682e-05
2.19758e-05
2.1879e-05
2.17781e-05
2.16731e-05
2.15641e-05
2.14512e-05
2.13344e-05
2.1214e-05
2.109e-05
2.09624e-05
2.08315e-05
2.06972e-05
2.05597e-05
2.0419e-05
2.02754e-05
2.01288e-05
1.99793e-05
2.282e-05
2.28247e-05
2.28321e-05
2.28423e-05
2.28546e-05
2.28681e-05
2.28821e-05
2.28956e-05
2.29081e-05
2.29189e-05
2.29276e-05
2.29335e-05
2.29364e-05
2.29359e-05
2.29316e-05
2.29233e-05
2.29107e-05
2.28937e-05
2.2872e-05
2.28457e-05
2.28146e-05
2.27786e-05
2.27377e-05
2.26919e-05
2.26412e-05
2.25856e-05
2.25252e-05
2.24599e-05
2.23899e-05
2.23152e-05
2.2236e-05
2.21521e-05
2.20638e-05
2.19712e-05
2.18743e-05
2.17732e-05
2.1668e-05
2.15588e-05
2.14457e-05
2.13288e-05
2.12082e-05
2.1084e-05
2.09563e-05
2.08252e-05
2.06908e-05
2.05532e-05
2.04124e-05
2.02686e-05
2.01219e-05
1.99723e-05
2.28203e-05
2.28252e-05
2.28329e-05
2.28433e-05
2.28557e-05
2.28693e-05
2.28832e-05
2.28967e-05
2.29091e-05
2.29198e-05
2.29282e-05
2.2934e-05
2.29366e-05
2.29358e-05
2.29312e-05
2.29225e-05
2.29096e-05
2.28923e-05
2.28703e-05
2.28436e-05
2.28121e-05
2.27757e-05
2.27345e-05
2.26883e-05
2.26373e-05
2.25813e-05
2.25206e-05
2.2455e-05
2.23846e-05
2.23096e-05
2.223e-05
2.21459e-05
2.20573e-05
2.19644e-05
2.18671e-05
2.17658e-05
2.16603e-05
2.15508e-05
2.14375e-05
2.13204e-05
2.11995e-05
2.10751e-05
2.09472e-05
2.08159e-05
2.06813e-05
2.05434e-05
2.04025e-05
2.02585e-05
2.01116e-05
1.99619e-05
2.28207e-05
2.2826e-05
2.28339e-05
2.28446e-05
2.28572e-05
2.28709e-05
2.28848e-05
2.28982e-05
2.29104e-05
2.29209e-05
2.2929e-05
2.29345e-05
2.29368e-05
2.29356e-05
2.29306e-05
2.29215e-05
2.29082e-05
2.28904e-05
2.28679e-05
2.28408e-05
2.28088e-05
2.27719e-05
2.27302e-05
2.26836e-05
2.26321e-05
2.25756e-05
2.25144e-05
2.24484e-05
2.23776e-05
2.23021e-05
2.22221e-05
2.21375e-05
2.20485e-05
2.19552e-05
2.18576e-05
2.17559e-05
2.165e-05
2.15402e-05
2.14265e-05
2.13091e-05
2.11879e-05
2.10632e-05
2.0935e-05
2.08034e-05
2.06685e-05
2.05304e-05
2.03892e-05
2.0245e-05
2.00979e-05
1.9948e-05
2.28213e-05
2.28269e-05
2.28353e-05
2.28463e-05
2.28591e-05
2.28729e-05
2.28867e-05
2.29e-05
2.2912e-05
2.29222e-05
2.293e-05
2.29351e-05
2.2937e-05
2.29353e-05
2.29298e-05
2.29202e-05
2.29063e-05
2.28879e-05
2.28649e-05
2.28371e-05
2.28046e-05
2.27671e-05
2.27248e-05
2.26776e-05
2.26255e-05
2.25685e-05
2.25066e-05
2.244e-05
2.23687e-05
2.22927e-05
2.22121e-05
2.21271e-05
2.20376e-05
2.19437e-05
2.18457e-05
2.17434e-05
2.16372e-05
2.15269e-05
2.14128e-05
2.1295e-05
2.11734e-05
2.10483e-05
2.09198e-05
2.07878e-05
2.06526e-05
2.05142e-05
2.03727e-05
2.02282e-05
2.00808e-05
1.99306e-05
2.28221e-05
2.28281e-05
2.2837e-05
2.28483e-05
2.28614e-05
2.28752e-05
2.2889e-05
2.29021e-05
2.29139e-05
2.29237e-05
2.29312e-05
2.29358e-05
2.29371e-05
2.29349e-05
2.29288e-05
2.29186e-05
2.2904e-05
2.28849e-05
2.28612e-05
2.28327e-05
2.27994e-05
2.27613e-05
2.27182e-05
2.26703e-05
2.26175e-05
2.25598e-05
2.24973e-05
2.243e-05
2.2358e-05
2.22813e-05
2.22001e-05
2.21144e-05
2.20243e-05
2.19299e-05
2.18313e-05
2.17285e-05
2.16217e-05
2.15109e-05
2.13963e-05
2.1278e-05
2.1156e-05
2.10305e-05
2.09015e-05
2.07691e-05
2.06335e-05
2.04947e-05
2.03528e-05
2.0208e-05
2.00602e-05
1.99097e-05
2.28231e-05
2.28297e-05
2.28391e-05
2.28508e-05
2.2864e-05
2.28779e-05
2.28916e-05
2.29045e-05
2.2916e-05
2.29254e-05
2.29324e-05
2.29364e-05
2.29372e-05
2.29343e-05
2.29275e-05
2.29165e-05
2.29011e-05
2.28813e-05
2.28567e-05
2.28274e-05
2.27933e-05
2.27543e-05
2.27104e-05
2.26617e-05
2.2608e-05
2.25495e-05
2.24862e-05
2.24181e-05
2.23454e-05
2.2268e-05
2.2186e-05
2.20996e-05
2.20088e-05
2.19137e-05
2.18144e-05
2.1711e-05
2.16036e-05
2.14922e-05
2.13771e-05
2.12582e-05
2.11356e-05
2.10096e-05
2.08801e-05
2.07472e-05
2.06112e-05
2.04719e-05
2.03296e-05
2.01844e-05
2.00363e-05
1.98854e-05
2.28243e-05
2.28315e-05
2.28415e-05
2.28536e-05
2.28671e-05
2.2881e-05
2.28945e-05
2.29072e-05
2.29182e-05
2.29272e-05
2.29336e-05
2.2937e-05
2.29371e-05
2.29334e-05
2.29258e-05
2.2914e-05
2.28977e-05
2.28769e-05
2.28515e-05
2.28212e-05
2.27861e-05
2.27462e-05
2.27014e-05
2.26517e-05
2.25971e-05
2.25377e-05
2.24735e-05
2.24045e-05
2.23309e-05
2.22526e-05
2.21698e-05
2.20826e-05
2.1991e-05
2.18952e-05
2.17951e-05
2.1691e-05
2.15829e-05
2.14708e-05
2.1355e-05
2.12355e-05
2.11123e-05
2.09857e-05
2.08556e-05
2.07222e-05
2.05856e-05
2.04459e-05
2.03031e-05
2.01574e-05
2.00089e-05
1.98576e-05
2.28258e-05
2.28338e-05
2.28444e-05
2.28569e-05
2.28705e-05
2.28844e-05
2.28978e-05
2.29101e-05
2.29207e-05
2.29291e-05
2.29349e-05
2.29376e-05
2.29368e-05
2.29323e-05
2.29237e-05
2.29109e-05
2.28937e-05
2.28718e-05
2.28453e-05
2.2814e-05
2.27779e-05
2.27369e-05
2.2691e-05
2.26402e-05
2.25846e-05
2.25242e-05
2.24589e-05
2.2389e-05
2.23144e-05
2.22352e-05
2.21515e-05
2.20634e-05
2.19709e-05
2.18742e-05
2.17733e-05
2.16683e-05
2.15594e-05
2.14467e-05
2.13301e-05
2.12099e-05
2.1086e-05
2.09587e-05
2.08281e-05
2.06941e-05
2.05569e-05
2.04166e-05
2.02733e-05
2.01271e-05
1.99781e-05
1.98263e-05
2.28277e-05
2.28365e-05
2.28476e-05
2.28605e-05
2.28743e-05
2.2888e-05
2.29012e-05
2.29131e-05
2.29233e-05
2.2931e-05
2.29361e-05
2.29379e-05
2.29362e-05
2.29307e-05
2.29211e-05
2.29072e-05
2.28889e-05
2.28659e-05
2.28382e-05
2.28058e-05
2.27685e-05
2.27263e-05
2.26792e-05
2.26273e-05
2.25705e-05
2.2509e-05
2.24426e-05
2.23716e-05
2.22959e-05
2.22157e-05
2.21309e-05
2.20418e-05
2.19484e-05
2.18507e-05
2.17489e-05
2.16431e-05
2.15333e-05
2.14197e-05
2.13024e-05
2.11814e-05
2.10568e-05
2.09288e-05
2.07974e-05
2.06628e-05
2.0525e-05
2.03841e-05
2.02402e-05
2.00934e-05
1.99439e-05
1.97916e-05
2.28301e-05
2.28396e-05
2.28513e-05
2.28645e-05
2.28784e-05
2.2892e-05
2.29049e-05
2.29163e-05
2.29259e-05
2.29329e-05
2.29371e-05
2.2938e-05
2.29353e-05
2.29287e-05
2.2918e-05
2.29029e-05
2.28833e-05
2.28591e-05
2.28302e-05
2.27964e-05
2.27578e-05
2.27144e-05
2.2666e-05
2.26128e-05
2.25548e-05
2.2492e-05
2.24244e-05
2.23522e-05
2.22754e-05
2.2194e-05
2.21081e-05
2.20179e-05
2.19234e-05
2.18248e-05
2.1722e-05
2.16152e-05
2.15045e-05
2.139e-05
2.12718e-05
2.11499e-05
2.10246e-05
2.08958e-05
2.07637e-05
2.06283e-05
2.04898e-05
2.03483e-05
2.02038e-05
2.00564e-05
1.99063e-05
1.97535e-05
2.28329e-05
2.28432e-05
2.28555e-05
2.28689e-05
2.28828e-05
2.28962e-05
2.29087e-05
2.29196e-05
2.29284e-05
2.29347e-05
2.29379e-05
2.29378e-05
2.2934e-05
2.29262e-05
2.29142e-05
2.28978e-05
2.28769e-05
2.28513e-05
2.2821e-05
2.27858e-05
2.27458e-05
2.2701e-05
2.26513e-05
2.25967e-05
2.25373e-05
2.24732e-05
2.24043e-05
2.23308e-05
2.22527e-05
2.21701e-05
2.20831e-05
2.19917e-05
2.18961e-05
2.17963e-05
2.16925e-05
2.15846e-05
2.1473e-05
2.13575e-05
2.12383e-05
2.11156e-05
2.09894e-05
2.08598e-05
2.07268e-05
2.05907e-05
2.04515e-05
2.03092e-05
2.01641e-05
2.00161e-05
1.98653e-05
1.97119e-05
2.28362e-05
2.28473e-05
2.286e-05
2.28737e-05
2.28874e-05
2.29006e-05
2.29126e-05
2.29229e-05
2.2931e-05
2.29363e-05
2.29385e-05
2.29372e-05
2.29321e-05
2.2923e-05
2.29097e-05
2.28919e-05
2.28695e-05
2.28425e-05
2.28106e-05
2.2774e-05
2.27325e-05
2.26861e-05
2.26349e-05
2.25789e-05
2.25181e-05
2.24525e-05
2.23822e-05
2.23073e-05
2.22279e-05
2.2144e-05
2.20557e-05
2.19631e-05
2.18662e-05
2.17653e-05
2.16603e-05
2.15514e-05
2.14386e-05
2.13221e-05
2.1202e-05
2.10783e-05
2.09512e-05
2.08207e-05
2.06869e-05
2.055e-05
2.041e-05
2.0267e-05
2.01211e-05
1.99724e-05
1.9821e-05
1.9667e-05
2.284e-05
2.28518e-05
2.28649e-05
2.28787e-05
2.28923e-05
2.29051e-05
2.29166e-05
2.29261e-05
2.29333e-05
2.29376e-05
2.29386e-05
2.29361e-05
2.29297e-05
2.29192e-05
2.29043e-05
2.2885e-05
2.28611e-05
2.28324e-05
2.2799e-05
2.27608e-05
2.27177e-05
2.26697e-05
2.26169e-05
2.25593e-05
2.2497e-05
2.24299e-05
2.23581e-05
2.22818e-05
2.22009e-05
2.21156e-05
2.20259e-05
2.1932e-05
2.18339e-05
2.17317e-05
2.16255e-05
2.15154e-05
2.14016e-05
2.1284e-05
2.11628e-05
2.10381e-05
2.091e-05
2.07785e-05
2.06439e-05
2.05061e-05
2.03652e-05
2.02215e-05
2.00748e-05
1.99254e-05
1.97734e-05
1.96187e-05
2.28444e-05
2.28568e-05
2.28702e-05
2.2884e-05
2.28973e-05
2.29097e-05
2.29205e-05
2.29292e-05
2.29354e-05
2.29386e-05
2.29383e-05
2.29344e-05
2.29266e-05
2.29145e-05
2.28981e-05
2.28771e-05
2.28515e-05
2.28212e-05
2.2786e-05
2.27461e-05
2.27013e-05
2.26516e-05
2.25972e-05
2.25379e-05
2.24739e-05
2.24052e-05
2.23319e-05
2.2254e-05
2.21716e-05
2.20849e-05
2.19938e-05
2.18985e-05
2.1799e-05
2.16955e-05
2.15881e-05
2.14768e-05
2.13617e-05
2.1243e-05
2.11207e-05
2.09949e-05
2.08658e-05
2.07334e-05
2.05978e-05
2.04591e-05
2.03174e-05
2.01728e-05
2.00253e-05
1.98752e-05
1.97224e-05
1.95671e-05
2.28494e-05
2.28622e-05
2.28758e-05
2.28895e-05
2.29025e-05
2.29143e-05
2.29243e-05
2.29321e-05
2.29372e-05
2.29391e-05
2.29375e-05
2.29321e-05
2.29226e-05
2.29089e-05
2.28908e-05
2.28681e-05
2.28407e-05
2.28085e-05
2.27716e-05
2.27299e-05
2.26833e-05
2.26318e-05
2.25756e-05
2.25146e-05
2.24489e-05
2.23785e-05
2.23035e-05
2.2224e-05
2.21401e-05
2.20518e-05
2.19592e-05
2.18624e-05
2.17616e-05
2.16567e-05
2.15479e-05
2.14354e-05
2.13191e-05
2.11991e-05
2.10757e-05
2.09488e-05
2.08186e-05
2.06852e-05
2.05486e-05
2.04089e-05
2.02663e-05
2.01209e-05
1.99726e-05
1.98217e-05
1.96682e-05
1.95121e-05
2.28548e-05
2.2868e-05
2.28817e-05
2.28951e-05
2.29076e-05
2.29188e-05
2.2928e-05
2.29347e-05
2.29385e-05
2.2939e-05
2.29359e-05
2.29289e-05
2.29178e-05
2.29023e-05
2.28823e-05
2.28578e-05
2.28285e-05