/*--------------------------------*- C++ -*----------------------------------*\
  =========                 |
  \\      /  F ield         | OpenFOAM: The Open Source CFD Toolbox
   \\    /   O peration     | Website:  https://openfoam.org
    \\  /    A nd           | Version:  7
     \\/     M anipulation  |
\*---------------------------------------------------------------------------*/
FoamFile
{
    version     2.0;
    format      ascii;
    class       volVectorField;
    location    "244000";
    object      U;
}
// * * * * * * * * * * * * * * * * * * * * * * * * * * * * * * * * * * * * * //

dimensions      [0 1 -1 0 0 0 0];

internalField   nonuniform List<vector> 
4782
(
(1.31766e-18 7.17054e-19 -0.00984693)
(1.28617e-18 7.10234e-19 -0.00975549)
(1.33668e-18 6.60553e-19 -0.00966205)
(1.33251e-18 7.18138e-19 -0.0095665)
(1.26198e-18 8.73579e-19 -0.00946872)
(1.21274e-18 9.66758e-19 -0.0093686)
(1.27824e-18 8.86215e-19 -0.00926601)
(1.34253e-18 8.09332e-19 -0.00916081)
(1.3293e-18 8.55285e-19 -0.00905286)
(1.29581e-18 9.38693e-19 -0.008942)
(4.37021e-19 7.50755e-19 -0.012788)
(7.2286e-19 5.56929e-19 -0.0127363)
(8.95793e-19 5.28349e-19 -0.0126843)
(9.50006e-19 5.32426e-19 -0.0126318)
(8.96193e-19 6.39353e-19 -0.012579)
(5.52138e-19 1.11921e-18 -0.0125257)
(1.70444e-19 1.68326e-18 -0.012472)
(5.51122e-20 1.84874e-18 -0.0124179)
(2.04583e-19 1.67345e-18 -0.0123633)
(4.79679e-19 1.3127e-18 -0.0123082)
(7.51448e-19 9.14837e-19 -0.0122527)
(9.40127e-19 6.39818e-19 -0.0121967)
(9.75984e-19 5.58758e-19 -0.0121401)
(9.56054e-19 5.53206e-19 -0.012083)
(9.44706e-19 5.61523e-19 -0.0120254)
(9.57248e-19 5.85975e-19 -0.0119671)
(1.01077e-18 5.71058e-19 -0.0119083)
(1.08917e-18 5.14969e-19 -0.0118488)
(1.2226e-18 3.64884e-19 -0.0117887)
(1.42811e-18 9.90457e-20 -0.011728)
(1.62692e-18 -2.10253e-19 -0.0116666)
(1.50092e-18 -1.23833e-19 -0.0116045)
(1.05761e-18 4.06904e-19 -0.0115417)
(7.20331e-19 7.99546e-19 -0.0114781)
(6.79598e-19 8.07665e-19 -0.0114138)
(8.95638e-19 4.97782e-19 -0.0113487)
(1.19863e-18 6.43933e-20 -0.0112828)
(1.30955e-18 -1.16087e-19 -0.0112161)
(1.28054e-18 -8.48385e-20 -0.0111484)
(1.273e-18 -7.17605e-20 -0.0110799)
(1.40597e-18 -2.42919e-19 -0.0110104)
(1.57391e-18 -4.57647e-19 -0.01094)
(1.58354e-18 -4.4242e-19 -0.0108685)
(1.52842e-18 -3.46559e-19 -0.0107959)
(1.45008e-18 -2.26547e-19 -0.0107223)
(1.47072e-18 -2.28465e-19 -0.0106475)
(1.51105e-18 -2.34035e-19 -0.0105715)
(1.41984e-18 -8.11651e-20 -0.0104942)
(1.36764e-18 -1.70663e-20 -0.0104156)
(1.37861e-18 -6.33236e-20 -0.0103357)
(1.31266e-18 -2.0352e-21 -0.0102543)
(1.231e-18 6.59188e-20 -0.0101714)
(1.21514e-18 4.1562e-20 -0.0100869)
(1.10042e-18 1.54155e-19 -0.0100008)
(7.86185e-19 5.5345e-19 -0.00991294)
(6.03526e-19 7.99696e-19 -0.00982326)
(7.88377e-19 5.80226e-19 -0.00973167)
(9.90604e-19 3.17438e-19 -0.00963806)
(9.97915e-19 2.971e-19 -0.00954234)
(8.67152e-19 4.49091e-19 -0.0094444)
(6.92962e-19 6.68346e-19 -0.0093441)
(5.81949e-19 7.98363e-19 -0.00924132)
(6.41655e-19 6.70083e-19 -0.00913594)
(8.11737e-19 3.90162e-19 -0.00902779)
(8.22052e-19 3.33532e-19 -0.00891673)
(6.89948e-19 1.10106e-18 -0.0127674)
(6.49697e-19 1.00793e-18 -0.0127157)
(4.36461e-19 1.1188e-18 -0.0126636)
(3.20017e-19 1.12905e-18 -0.0126112)
(3.93011e-19 8.93284e-19 -0.0125583)
(4.68811e-19 7.41435e-19 -0.0125049)
(4.88259e-19 8.12444e-19 -0.0124512)
(5.4373e-19 9.41665e-19 -0.012397)
(5.8891e-19 1.0587e-18 -0.0123424)
(5.20814e-19 1.24016e-18 -0.0122873)
(4.05588e-19 1.38696e-18 -0.0122317)
(3.49545e-19 1.40612e-18 -0.0121756)
(3.4619e-19 1.3483e-18 -0.012119)
(4.07292e-19 1.27639e-18 -0.0120618)
(5.86837e-19 1.10974e-18 -0.0120041)
(7.10448e-19 1.05447e-18 -0.0119458)
(6.51967e-19 1.20479e-18 -0.0118869)
(4.80703e-19 1.47243e-18 -0.0118273)
(3.39904e-19 1.66547e-18 -0.0117672)
(3.03806e-19 1.69742e-18 -0.0117063)
(3.04665e-19 1.68688e-18 -0.0116449)
(2.45611e-19 1.74269e-18 -0.0115827)
(1.72319e-19 1.86893e-18 -0.0115198)
(2.3326e-19 1.88481e-18 -0.0114562)
(4.51563e-19 1.7051e-18 -0.0113918)
(5.76393e-19 1.61204e-18 -0.0113266)
(6.34691e-19 1.54551e-18 -0.0112606)
(8.90789e-19 1.19858e-18 -0.0111938)
(1.13859e-18 8.78949e-19 -0.0111261)
(1.11587e-18 9.00123e-19 -0.0110574)
(1.03088e-18 9.94639e-19 -0.0109879)
(1.07741e-18 8.78637e-19 -0.0109173)
(1.08752e-18 7.90402e-19 -0.0108457)
(1.05379e-18 7.7018e-19 -0.0107731)
(1.12361e-18 6.29941e-19 -0.0106993)
(1.26963e-18 4.17446e-19 -0.0106244)
(1.31107e-18 3.45952e-19 -0.0105483)
(1.11264e-18 5.5576e-19 -0.0104709)
(8.85351e-19 8.03762e-19 -0.0103922)
(8.33757e-19 8.33107e-19 -0.0103121)
(8.40131e-19 7.90718e-19 -0.0102306)
(8.42667e-19 7.66173e-19 -0.0101475)
(8.76038e-19 6.95611e-19 -0.0100629)
(9.93708e-19 5.18762e-19 -0.00997665)
(1.15655e-18 3.18141e-19 -0.00988864)
(1.24218e-18 2.55311e-19 -0.0097988)
(1.20441e-18 3.24588e-19 -0.00970704)
(1.10442e-18 4.31455e-19 -0.00961327)
(1.00925e-18 5.21192e-19 -0.00951738)
(9.48336e-19 5.51347e-19 -0.00941925)
(9.34314e-19 5.44967e-19 -0.00931876)
(7.58632e-19 7.53174e-19 -0.0092158)
(5.84056e-19 9.69064e-19 -0.00911021)
(6.17485e-19 9.13823e-19 -0.00900186)
(6.88096e-19 8.01092e-19 -0.00889058)
(-1.14014e-18 1.52146e-18 -0.0127463)
(-1.0549e-18 1.45093e-18 -0.0126946)
(-9.53801e-19 1.32399e-18 -0.0126425)
(-8.54421e-19 1.20541e-18 -0.0125899)
(-6.61176e-19 9.83974e-19 -0.012537)
(-3.16255e-19 5.72281e-19 -0.0124836)
(6.50792e-20 1.79988e-19 -0.0124298)
(2.44578e-19 1.03544e-19 -0.0123756)
(9.9568e-20 3.83398e-19 -0.0123209)
(-1.43675e-19 7.49265e-19 -0.0122657)
(-2.71691e-19 9.89429e-19 -0.0122101)
(-2.01004e-19 1.00991e-18 -0.012154)
(1.28458e-19 7.39162e-19 -0.0120973)
(6.29786e-19 2.77289e-19 -0.01204)
(1.02265e-18 -7.78922e-20 -0.0119822)
(1.10768e-18 -9.70619e-20 -0.0119238)
(9.82116e-19 1.29517e-19 -0.0118648)
(8.48662e-19 3.7571e-19 -0.0118052)
(7.8373e-19 5.62623e-19 -0.011745)
(9.71414e-19 4.60977e-19 -0.0116841)
(1.25215e-18 2.36291e-19 -0.0116225)
(1.39395e-18 1.48241e-19 -0.0115603)
(1.45235e-18 1.66349e-19 -0.0114973)
(1.40752e-18 3.314e-19 -0.0114336)
(1.30752e-18 5.67772e-19 -0.0113691)
(1.20998e-18 7.6557e-19 -0.0113039)
(1.19984e-18 8.5856e-19 -0.0112378)
(1.32412e-18 8.10669e-19 -0.0111709)
(1.45435e-18 7.1899e-19 -0.0111031)
(1.49338e-18 7.14104e-19 -0.0110343)
(1.40632e-18 8.42829e-19 -0.0109647)
(1.28412e-18 9.85387e-19 -0.010894)
(1.29775e-18 9.76143e-19 -0.0108223)
(1.3679e-18 9.11741e-19 -0.0107496)
(1.43577e-18 8.18074e-19 -0.0106757)
(1.62317e-18 5.57631e-19 -0.0106006)
(1.64166e-18 5.04654e-19 -0.0105244)
(1.47982e-18 6.71417e-19 -0.0104469)
(1.44229e-18 7.21144e-19 -0.0103681)
(1.47124e-18 6.90141e-19 -0.0102878)
(1.50875e-18 6.32739e-19 -0.0102062)
(1.48935e-18 6.36669e-19 -0.010123)
(1.44905e-18 6.79479e-19 -0.0100382)
(1.53978e-18 5.88833e-19 -0.0099518)
(1.68392e-18 4.37371e-19 -0.00986363)
(1.66056e-18 4.75931e-19 -0.00977362)
(1.52075e-18 6.2762e-19 -0.0096817)
(1.44815e-18 6.93013e-19 -0.00958774)
(1.30665e-18 8.31952e-19 -0.00949166)
(1.23495e-18 9.06543e-19 -0.00939334)
(1.34473e-18 7.69637e-19 -0.00929266)
(1.45628e-18 6.26356e-19 -0.00918949)
(1.51207e-18 5.68441e-19 -0.0090837)
(1.48983e-18 6.0532e-19 -0.00897513)
(1.49464e-18 6.13308e-19 -0.00886363)
(5.22408e-19 9.12582e-19 -0.0127247)
(5.2305e-19 1.02211e-18 -0.0126729)
(3.44221e-19 1.3338e-18 -0.0126207)
(4.13238e-19 1.34297e-18 -0.0125682)
(6.32185e-19 1.16501e-18 -0.0125152)
(9.37299e-19 8.19584e-19 -0.0124618)
(1.32597e-18 3.09666e-19 -0.012408)
(1.32578e-18 1.69961e-19 -0.0123537)
(9.88093e-19 4.52928e-19 -0.012299)
(7.70182e-19 6.58762e-19 -0.0122437)
(7.73568e-19 6.97661e-19 -0.012188)
(9.03065e-19 6.25715e-19 -0.0121318)
(1.05277e-18 4.8649e-19 -0.012075)
(1.03857e-18 4.59049e-19 -0.0120177)
(9.40694e-19 5.04257e-19 -0.0119598)
(8.50607e-19 5.70484e-19 -0.0119013)
(7.61094e-19 6.83211e-19 -0.0118423)
(6.71059e-19 8.02857e-19 -0.0117826)
(6.46433e-19 8.79735e-19 -0.0117223)
(6.17104e-19 9.87799e-19 -0.0116613)
(4.48559e-19 1.21604e-18 -0.0115996)
(3.1258e-19 1.3944e-18 -0.0115373)
(3.66062e-19 1.34995e-18 -0.0114743)
(5.16612e-19 1.18668e-18 -0.0114105)
(5.59684e-19 1.1568e-18 -0.0113459)
(4.99433e-19 1.27108e-18 -0.0112806)
(6.5065e-19 1.16075e-18 -0.0112144)
(8.35862e-19 9.76735e-19 -0.0111474)
(8.35311e-19 9.81595e-19 -0.0110795)
(6.76567e-19 1.17704e-18 -0.0110107)
(4.19877e-19 1.49318e-18 -0.0109409)
(4.36521e-19 1.53264e-18 -0.0108701)
(6.20985e-19 1.40297e-18 -0.0107983)
(5.38972e-19 1.56241e-18 -0.0107255)
(3.64654e-19 1.84472e-18 -0.0106515)
(5.17989e-19 1.77033e-18 -0.0105763)
(7.56853e-19 1.54976e-18 -0.0104999)
(8.24709e-19 1.53139e-18 -0.0104223)
(7.70694e-19 1.65307e-18 -0.0103433)
(6.53215e-19 1.84232e-18 -0.010263)
(5.92908e-19 1.96172e-18 -0.0101812)
(7.15356e-19 1.88141e-18 -0.0100978)
(1.003e-18 1.62463e-18 -0.0100129)
(1.28409e-18 1.35987e-18 -0.00992633)
(1.45407e-18 1.18333e-18 -0.00983799)
(1.37348e-18 1.25426e-18 -0.00974781)
(1.11792e-18 1.53172e-18 -0.00965571)
(9.35435e-19 1.75221e-18 -0.00956157)
(9.51927e-19 1.76765e-18 -0.0094653)
(1.02691e-18 1.72988e-18 -0.00936678)
(1.00965e-18 1.7814e-18 -0.00926589)
(1.0084e-18 1.80882e-18 -0.0091625)
(1.08261e-18 1.74553e-18 -0.00905649)
(1.17192e-18 1.65147e-18 -0.00894769)
(1.1511e-18 1.6711e-18 -0.00883596)
(-6.51258e-19 1.41403e-18 -0.0127247)
(-6.01286e-19 1.41725e-18 -0.0126729)
(-5.45627e-19 1.43887e-18 -0.0126207)
(-4.77928e-19 1.50286e-18 -0.0125682)
(-5.29113e-19 1.62858e-18 -0.0125152)
(-6.26922e-19 1.77947e-18 -0.0124618)
(-7.89137e-19 1.90657e-18 -0.012408)
(-8.40656e-19 1.85989e-18 -0.0123537)
(-7.1341e-19 1.66795e-18 -0.012299)
(-4.30497e-19 1.44499e-18 -0.0122437)
(-1.02916e-19 1.23734e-18 -0.012188)
(-8.94551e-20 1.32295e-18 -0.0121318)
(-2.58e-19 1.52891e-18 -0.012075)
(-1.69017e-19 1.44034e-18 -0.0120177)
(2.35649e-19 1.01105e-18 -0.0119598)
(6.07749e-19 5.81572e-19 -0.0119013)
(6.42637e-19 4.67264e-19 -0.0118423)
(6.00809e-19 4.6451e-19 -0.0117826)
(7.30872e-19 3.35631e-19 -0.0117223)
(8.27146e-19 2.36787e-19 -0.0116613)
(8.31477e-19 2.11608e-19 -0.0115996)
(8.09982e-19 2.2117e-19 -0.0115373)
(7.03703e-19 3.09804e-19 -0.0114743)
(5.99135e-19 3.80601e-19 -0.0114105)
(6.4146e-19 2.93732e-19 -0.0113459)
(6.87942e-19 2.24996e-19 -0.0112806)
(4.75812e-19 4.05812e-19 -0.0112144)
(2.73349e-19 5.65569e-19 -0.0111474)
(3.98273e-19 4.18564e-19 -0.0110795)
(6.00744e-19 2.14979e-19 -0.0110107)
(7.10543e-19 1.41065e-19 -0.0109409)
(8.27688e-19 1.11854e-19 -0.0108701)
(9.54568e-19 5.69079e-20 -0.0107983)
(1.18956e-18 -1.14289e-19 -0.0107255)
(1.44246e-18 -2.89012e-19 -0.0106515)
(1.34789e-18 -1.5114e-19 -0.0105763)
(1.1617e-18 2.95018e-20 -0.0104999)
(1.16199e-18 3.22906e-20 -0.0104223)
(1.1673e-18 4.07977e-20 -0.0103433)
(1.14366e-18 8.84341e-20 -0.010263)
(1.13157e-18 1.30156e-19 -0.0101812)
(1.12348e-18 1.6996e-19 -0.0100978)
(9.91577e-19 3.13777e-19 -0.0100129)
(7.51995e-19 5.29035e-19 -0.00992633)
(5.17781e-19 7.05027e-19 -0.00983799)
(4.72523e-19 6.91335e-19 -0.00974781)
(6.36492e-19 5.02619e-19 -0.00965571)
(7.91677e-19 3.35106e-19 -0.00956157)
(7.76715e-19 3.23881e-19 -0.0094653)
(6.9711e-19 3.65384e-19 -0.00936678)
(6.99649e-19 3.21929e-19 -0.00926589)
(7.0465e-19 2.77683e-19 -0.0091625)
(5.83295e-19 3.48149e-19 -0.00905649)
(4.03567e-19 4.70675e-19 -0.00894769)
(2.65741e-19 5.50065e-19 -0.00883596)
(4.56474e-19 5.79928e-19 -0.0127463)
(3.06661e-19 6.80059e-19 -0.0126946)
(3.65437e-19 6.4655e-19 -0.0126425)
(4.53928e-19 5.9588e-19 -0.0125899)
(4.25478e-19 6.38506e-19 -0.012537)
(3.49769e-19 7.13835e-19 -0.0124836)
(1.47418e-19 9.46626e-19 -0.0124298)
(-3.28458e-20 1.19733e-18 -0.0123756)
(2.34231e-19 1.0646e-18 -0.0123209)
(8.12155e-19 6.58955e-19 -0.0122657)
(1.17602e-18 4.35389e-19 -0.0122101)
(1.20424e-18 4.83926e-19 -0.012154)
(8.80647e-19 8.41883e-19 -0.0120973)
(3.2053e-19 1.41851e-18 -0.01204)
(-1.52567e-19 1.8881e-18 -0.0119822)
(-2.79614e-19 2.00226e-18 -0.0119238)
(-5.59448e-20 1.79589e-18 -0.0118648)
(2.51477e-19 1.53891e-18 -0.0118052)
(3.83443e-19 1.44857e-18 -0.011745)
(2.87543e-19 1.54411e-18 -0.0116841)
(1.22598e-19 1.69643e-18 -0.0116225)
(7.18558e-20 1.75315e-18 -0.0115603)
(8.69652e-20 1.76332e-18 -0.0114973)
(6.05168e-20 1.81796e-18 -0.0114336)
(1.27726e-19 1.78157e-18 -0.0113691)
(2.96496e-19 1.64743e-18 -0.0113039)
(4.98611e-19 1.50686e-18 -0.0112378)
(6.27668e-19 1.44814e-18 -0.0111709)
(7.06716e-19 1.39544e-18 -0.0111031)
(9.2298e-19 1.18349e-18 -0.0110343)
(1.27254e-18 8.77808e-19 -0.0109647)
(1.50076e-18 6.76825e-19 -0.010894)
(1.4427e-18 7.14646e-19 -0.0108223)
(1.31053e-18 8.37883e-19 -0.0107496)
(1.1197e-18 9.99108e-19 -0.0106757)
(8.81309e-19 1.16311e-18 -0.0106006)
(7.82918e-19 1.192e-18 -0.0105244)
(8.74075e-19 1.0641e-18 -0.0104469)
(9.55081e-19 9.56485e-19 -0.0103681)
(9.20192e-19 9.50845e-19 -0.0102878)
(8.71296e-19 9.49074e-19 -0.0102062)
(9.08085e-19 8.74864e-19 -0.010123)
(9.03349e-19 8.43878e-19 -0.0100382)
(7.29211e-19 9.75722e-19 -0.0099518)
(5.93015e-19 1.08445e-18 -0.00986363)
(6.41482e-19 1.03802e-18 -0.00977362)
(6.88799e-19 9.81636e-19 -0.0096817)
(6.00987e-19 1.02551e-18 -0.00958774)
(5.39012e-19 1.04279e-18 -0.00949166)
(4.93957e-19 1.04926e-18 -0.00939334)
(4.31514e-19 1.06524e-18 -0.00929266)
(4.27782e-19 1.02639e-18 -0.00918949)
(4.85163e-19 9.40183e-19 -0.0090837)
(5.6897e-19 8.52836e-19 -0.00897513)
(5.80839e-19 8.43603e-19 -0.00886363)
(5.41674e-19 8.91968e-19 -0.00874904)
(6.22807e-19 8.39577e-19 -0.00863118)
(8.59688e-19 6.40758e-19 -0.00850986)
(9.94312e-19 5.16923e-19 -0.00838487)
(-9.57261e-19 2.03815e-18 -0.0127674)
(-8.04098e-19 1.93795e-18 -0.0127157)
(-5.73311e-19 1.78082e-18 -0.0126636)
(-5.37307e-19 1.76419e-18 -0.0126112)
(-6.63652e-19 1.87973e-18 -0.0125583)
(-5.48511e-19 1.83861e-18 -0.0125049)
(-2.60931e-19 1.65756e-18 -0.0124512)
(-1.35952e-19 1.61429e-18 -0.012397)
(-8.95369e-20 1.6154e-18 -0.0123424)
(1.19449e-19 1.42085e-18 -0.0122873)
(3.91455e-19 1.18113e-18 -0.0122317)
(3.93951e-19 1.15409e-18 -0.0121756)
(3.68655e-19 1.14968e-18 -0.012119)
(3.90524e-19 1.15015e-18 -0.0120618)
(3.25836e-19 1.26273e-18 -0.0120041)
(3.1256e-19 1.36664e-18 -0.0119458)
(4.1349e-19 1.37163e-18 -0.0118869)
(6.43797e-19 1.24192e-18 -0.0118273)
(8.76441e-19 1.08863e-18 -0.0117672)
(9.50258e-19 1.04877e-18 -0.0117063)
(9.72485e-19 1.04303e-18 -0.0116449)
(1.02785e-18 1.01508e-18 -0.0115827)
(1.05948e-18 1.03283e-18 -0.0115198)
(9.88388e-19 1.1707e-18 -0.0114562)
(9.57555e-19 1.29099e-18 -0.0113918)
(1.11969e-18 1.23894e-18 -0.0113266)
(1.17821e-18 1.23601e-18 -0.0112606)
(8.36025e-19 1.50009e-18 -0.0111938)
(4.48268e-19 1.79549e-18 -0.0111261)
(5.41299e-19 1.70819e-18 -0.0110574)
(7.92898e-19 1.4779e-18 -0.0109879)
(7.94977e-19 1.40171e-18 -0.0109173)
(9.57949e-19 1.17949e-18 -0.0108457)
(1.20564e-18 9.01702e-19 -0.0107731)
(1.04889e-18 9.73797e-19 -0.0106993)
(5.48213e-19 1.34452e-18 -0.0106244)
(3.29877e-19 1.49284e-18 -0.0105483)
(5.09965e-19 1.32478e-18 -0.0104709)
(6.38169e-19 1.20623e-18 -0.0103922)
(5.67471e-19 1.25134e-18 -0.0103121)
(5.1216e-19 1.28362e-18 -0.0102306)
(5.90967e-19 1.20854e-18 -0.0101475)
(6.41611e-19 1.14436e-18 -0.0100629)
(6.19874e-19 1.1417e-18 -0.00997665)
(5.5452e-19 1.20312e-18 -0.00988864)
(5.14816e-19 1.25585e-18 -0.0097988)
(4.60363e-19 1.3041e-18 -0.00970704)
(4.50044e-19 1.30286e-18 -0.00961327)
(4.69931e-19 1.27371e-18 -0.00951738)
(4.15907e-19 1.30757e-18 -0.00941925)
(3.82554e-19 1.33077e-18 -0.00931876)
(4.71865e-19 1.25888e-18 -0.0092158)
(6.74934e-19 1.09319e-18 -0.00911021)
(8.7805e-19 9.16158e-19 -0.00900186)
(1.01779e-18 7.83849e-19 -0.00889058)
(1.14818e-18 6.65346e-19 -0.00877622)
(1.23858e-18 5.91092e-19 -0.00865859)
(1.20093e-18 6.16663e-19 -0.0085375)
(1.09646e-18 6.77377e-19 -0.00841275)
(1.05573e-18 6.76933e-19 -0.00828413)
(-4.98287e-19 3.13642e-20 -0.012788)
(-5.13808e-19 1.73014e-19 -0.0127363)
(-4.38791e-19 2.10373e-19 -0.0126843)
(-3.37623e-19 1.90736e-19 -0.0126318)
(-1.62008e-19 1.29315e-19 -0.012579)
(-5.64205e-20 1.90051e-19 -0.0125257)
(-1.96465e-19 4.2547e-19 -0.012472)
(-4.00216e-19 6.86129e-19 -0.0124179)
(-5.55951e-19 9.09188e-19 -0.0123633)
(-2.76102e-19 8.06125e-19 -0.0123082)
(1.35675e-19 5.88473e-19 -0.0122527)
(1.70251e-19 6.38993e-19 -0.0121967)
(5.94817e-20 8.21929e-19 -0.0121401)
(-6.73021e-20 1.01107e-18 -0.012083)
(-1.36375e-19 1.15183e-18 -0.0120254)
(-1.12755e-19 1.21804e-18 -0.0119671)
(-9.48581e-20 1.27909e-18 -0.0119083)
(-7.31753e-20 1.3321e-18 -0.0118488)
(-1.16795e-19 1.44125e-18 -0.0117887)
(-3.23635e-19 1.63988e-18 -0.011728)
(-5.13139e-19 1.79881e-18 -0.0116666)
(-3.85012e-19 1.69238e-18 -0.0116045)
(1.67293e-20 1.37246e-18 -0.0115417)
(2.90006e-19 1.15237e-18 -0.0114781)
(3.16001e-19 1.13815e-18 -0.0114138)
(1.28541e-19 1.28827e-18 -0.0113487)
(-2.88189e-19 1.60437e-18 -0.0112828)
(-5.81249e-19 1.8366e-18 -0.0112161)
(-4.72526e-19 1.79076e-18 -0.0111484)
(-2.71789e-19 1.6811e-18 -0.0110799)
(-3.31703e-19 1.74484e-18 -0.0110104)
(-5.05809e-19 1.89488e-18 -0.01094)
(-5.15501e-19 1.93165e-18 -0.0108685)
(-3.56954e-19 1.80385e-18 -0.0107959)
(-2.19086e-19 1.67744e-18 -0.0107223)
(-2.17222e-19 1.67107e-18 -0.0106475)
(-1.34752e-19 1.62742e-18 -0.0105715)
(1.17353e-19 1.41963e-18 -0.0104942)
(2.69342e-19 1.25916e-18 -0.0104156)
(2.38109e-19 1.24214e-18 -0.0103357)
(2.1656e-19 1.24238e-18 -0.0102543)
(1.80153e-19 1.2494e-18 -0.0101714)
(9.42691e-20 1.27718e-18 -0.0100869)
(1.73242e-19 1.17701e-18 -0.0100008)
(3.70765e-19 9.94785e-19 -0.00991294)
(3.55024e-19 9.86299e-19 -0.00982326)
(1.3112e-19 1.14564e-18 -0.00973167)
(-9.83384e-20 1.30751e-18 -0.00963806)
(-1.47328e-19 1.32379e-18 -0.00954234)
(-8.19939e-20 1.25589e-18 -0.0094444)
(1.54064e-20 1.17533e-18 -0.0093441)
(1.10676e-19 1.09688e-18 -0.00924132)
(8.31375e-20 1.10203e-18 -0.00913594)
(-6.66938e-21 1.13676e-18 -0.00902779)
(-3.41409e-21 1.0914e-18 -0.00891673)
(1.20335e-19 9.44261e-19 -0.00880258)
(2.35392e-19 7.97845e-19 -0.00868517)
(1.91322e-19 7.68205e-19 -0.00856431)
(3.16103e-20 8.34583e-19 -0.00843979)
(-5.87015e-20 8.52237e-19 -0.0083114)
(3.75447e-20 7.28861e-19 -0.0081789)
(2.62733e-19 5.13144e-19 -0.00804206)
(4.43941e-19 3.44591e-19 -0.00790061)
(4.15322e-19 3.5204e-19 -0.00775428)
(3.28611e-19 4.01156e-19 -0.00760278)
(3.79179e-19 3.26944e-19 -0.00744581)
(5.05142e-19 1.95351e-19 -0.00728306)
(5.93944e-19 9.52591e-20 -0.00711422)
(6.59531e-19 1.06834e-20 -0.00693894)
(7.40647e-19 -8.87598e-20 -0.0067569)
(7.46127e-19 -1.29869e-19 -0.00656776)
(6.7187e-19 -1.15501e-19 -0.00637115)
(6.08046e-19 -1.11733e-19 -0.00616646)
(5.55057e-19 -1.21034e-19 -0.00595286)
(5.37369e-19 -1.5639e-19 -0.00572967)
(5.50053e-19 -2.13921e-19 -0.00549656)
(4.90236e-19 -2.16013e-19 -0.00525333)
(3.70264e-19 -1.70666e-19 -0.00500003)
(3.02043e-19 -1.56983e-19 -0.00473695)
(2.4957e-19 -1.49359e-19 -0.00446476)
(1.91266e-19 -1.28668e-19 -0.00418445)
(1.62484e-19 -1.24063e-19 -0.00389735)
(1.62219e-19 -1.35574e-19 -0.00360504)
(1.66503e-19 -1.43855e-19 -0.00330923)
(1.74538e-19 -1.49408e-19 -0.00301158)
(1.57617e-19 -1.25436e-19 -0.0027136)
(1.46763e-19 -9.52823e-20 -0.00241651)
(1.64755e-19 -7.68916e-20 -0.00212125)
(1.827e-19 -5.1212e-20 -0.00182845)
(1.65319e-19 5.90242e-21 -0.00153853)
(1.35834e-19 7.13479e-20 -0.00125168)
(1.23774e-19 1.1521e-19 -0.000968028)
(1.14841e-19 1.40233e-19 -0.000687588)
(1.0634e-19 1.40033e-19 -0.000410353)
(1.99017e-20 2.51459e-20 -0.000136298)
(-2.45881e-19 1.04053e-18 -0.0128079)
(-1.55476e-20 9.5164e-19 -0.0127563)
(-1.42267e-19 1.08494e-18 -0.0127043)
(-2.15114e-19 1.16557e-18 -0.0126519)
(8.28175e-20 9.6843e-19 -0.0125991)
(5.32372e-19 6.71224e-19 -0.0125458)
(6.92879e-19 5.92648e-19 -0.0124922)
(6.81029e-19 6.45712e-19 -0.0124381)
(6.69144e-19 7.08254e-19 -0.0123836)
(7.60235e-19 6.70945e-19 -0.0123285)
(8.76339e-19 5.46954e-19 -0.0122731)
(9.4641e-19 4.47889e-19 -0.0122171)
(1.02825e-18 3.85057e-19 -0.0121606)
(9.60883e-19 4.17341e-19 -0.0121036)
(7.55336e-19 5.12656e-19 -0.012046)
(5.49026e-19 5.9956e-19 -0.0119878)
(4.74213e-19 6.00572e-19 -0.0119291)
(6.69241e-19 4.25346e-19 -0.0118697)
(7.00596e-19 3.44686e-19 -0.0118097)
(3.65936e-19 5.32931e-19 -0.011749)
(2.50952e-20 7.57632e-19 -0.0116876)
(-1.61885e-19 8.82247e-19 -0.0116256)
(-1.91718e-19 8.6897e-19 -0.0115629)
(-1.66641e-19 7.89961e-19 -0.0114994)
(-1.10269e-19 6.88368e-19 -0.0114352)
(-1.66876e-20 5.7229e-19 -0.0113702)
(5.27008e-20 5.07447e-19 -0.0113043)
(-1.85275e-20 6.01088e-19 -0.0112377)
(-1.64259e-19 7.65144e-19 -0.0111701)
(-1.88747e-19 8.33186e-19 -0.0111017)
(-8.40442e-20 8.06446e-19 -0.0110323)
(7.58198e-20 7.61034e-19 -0.0109619)
(1.42194e-19 8.0597e-19 -0.0108906)
(9.50739e-20 9.34036e-19 -0.0108181)
(3.81151e-20 1.07164e-18 -0.0107446)
(-8.39038e-20 1.25298e-18 -0.0106699)
(-3.46831e-19 1.51175e-18 -0.010594)
(-6.51221e-19 1.77028e-18 -0.0105168)
(-7.00927e-19 1.82462e-18 -0.0104384)
(-4.97025e-19 1.69233e-18 -0.0103585)
(-3.35128e-19 1.6024e-18 -0.0102773)
(-4.07256e-19 1.67759e-18 -0.0101945)
(-4.62797e-19 1.7434e-18 -0.0101102)
(-3.57231e-19 1.69492e-18 -0.0100242)
(-2.27722e-19 1.60979e-18 -0.00993646)
(-1.1425e-19 1.52109e-18 -0.00984693)
(-1.05907e-19 1.52025e-18 -0.00975549)
(-1.42926e-19 1.58216e-18 -0.00966205)
(-8.18296e-20 1.59782e-18 -0.0095665)
(7.09435e-20 1.55273e-18 -0.00946872)
(2.0073e-19 1.51388e-18 -0.0093686)
(2.11825e-19 1.55814e-18 -0.00926601)
(1.5467e-19 1.6566e-18 -0.00916081)
(1.5976e-19 1.71093e-18 -0.00905286)
(2.1671e-19 1.71773e-18 -0.008942)
(2.73358e-19 1.71366e-18 -0.00882806)
(2.91092e-19 1.73385e-18 -0.00871086)
(3.17098e-19 1.73552e-18 -0.00859021)
(4.2445e-19 1.67927e-18 -0.00846591)
(5.76168e-19 1.59282e-18 -0.00833774)
(7.67515e-19 1.47672e-18 -0.00820547)
(9.52724e-19 1.36486e-18 -0.00806886)
(1.14009e-18 1.24756e-18 -0.00792763)
(1.24032e-18 1.19403e-18 -0.00778152)
(1.12086e-18 1.31452e-18 -0.00763024)
(9.53197e-19 1.47528e-18 -0.00747348)
(9.32388e-19 1.52275e-18 -0.00731093)
(9.88122e-19 1.50448e-18 -0.00714226)
(1.00577e-18 1.50309e-18 -0.00696714)
(9.90349e-19 1.51174e-18 -0.00678523)
(9.11025e-19 1.56042e-18 -0.00659619)
(7.97732e-19 1.63356e-18 -0.00639964)
(7.61363e-19 1.6522e-18 -0.00619503)
(7.80693e-19 1.63e-18 -0.00598152)
(8.34173e-19 1.57203e-18 -0.00575835)
(8.87563e-19 1.50545e-18 -0.00552518)
(8.97496e-19 1.4619e-18 -0.00528177)
(8.83689e-19 1.43785e-18 -0.00502814)
(8.95695e-19 1.39027e-18 -0.00476456)
(8.90619e-19 1.34967e-18 -0.00449167)
(8.58531e-19 1.319e-18 -0.00421043)
(8.22463e-19 1.28172e-18 -0.00392218)
(7.76407e-19 1.24879e-18 -0.00362851)
(7.1429e-19 1.22376e-18 -0.00333114)
(6.38598e-19 1.20124e-18 -0.00303177)
(6.12524e-19 1.13515e-18 -0.00273195)
(6.22318e-19 1.041e-18 -0.00243296)
(6.22453e-19 9.50419e-19 -0.00213574)
(6.00906e-19 8.6834e-19 -0.00184098)
(5.52346e-19 7.92411e-19 -0.00154908)
(4.97014e-19 7.06278e-19 -0.00126028)
(4.4614e-19 5.9454e-19 -0.000974682)
(3.67785e-19 4.74153e-19 -0.000692318)
(2.65527e-19 3.34842e-19 -0.000413178)
(7.6881e-20 9.83883e-20 -0.000137237)
(5.79809e-19 5.63436e-19 -0.0128271)
(3.39412e-19 7.29272e-19 -0.0127756)
(2.01791e-19 8.46457e-19 -0.0127236)
(1.1334e-19 9.50529e-19 -0.0126713)
(2.07465e-19 9.70801e-19 -0.0126185)
(4.08485e-19 8.75286e-19 -0.0125653)
(4.01976e-19 8.92219e-19 -0.0125117)
(2.74291e-19 9.92564e-19 -0.0124577)
(-4.50432e-20 1.19122e-18 -0.0124032)
(-3.66288e-19 1.36143e-18 -0.0123482)
(-4.3316e-19 1.33434e-18 -0.0122928)
(-2.32232e-19 1.1306e-18 -0.0122368)
(-2.15137e-19 1.03903e-18 -0.0121804)
(-6.90247e-19 1.25091e-18 -0.0121235)
(-1.10714e-18 1.42688e-18 -0.0120659)
(-1.17269e-18 1.38993e-18 -0.0120078)
(-1.10175e-18 1.27002e-18 -0.0119491)
(-1.19896e-18 1.24343e-18 -0.0118898)
(-1.38253e-18 1.23851e-18 -0.0118299)
(-1.37662e-18 1.1135e-18 -0.0117693)
(-1.36026e-18 9.92051e-19 -0.011708)
(-1.39463e-18 9.22917e-19 -0.011646)
(-1.37055e-18 8.27872e-19 -0.0115834)
(-1.28155e-18 7.05814e-19 -0.01152)
(-1.19163e-18 5.9398e-19 -0.0114558)
(-1.07782e-18 4.62013e-19 -0.0113909)
(-8.54843e-19 2.44577e-19 -0.0113251)
(-6.40794e-19 4.82732e-20 -0.0112586)
(-5.36791e-19 -4.288e-20 -0.0111911)
(-4.96673e-19 -8.09949e-20 -0.0111227)
(-4.9247e-19 -1.18149e-19 -0.0110534)
(-4.06508e-19 -2.16801e-19 -0.0109832)
(-3.09241e-19 -3.17282e-19 -0.0109119)
(-1.85921e-19 -4.20343e-19 -0.0108395)
(-1.21367e-19 -4.85137e-19 -0.0107661)
(-4.16121e-19 -2.89834e-19 -0.0106915)
(-8.42482e-19 2.5786e-20 -0.0106157)
(-1.01906e-18 2.05693e-19 -0.0105386)
(-1.03953e-18 2.95413e-19 -0.0104603)
(-9.69379e-19 3.10842e-19 -0.0103806)
(-9.06502e-19 3.12235e-19 -0.0102994)
(-9.21079e-19 3.7855e-19 -0.0102168)
(-9.18094e-19 4.43113e-19 -0.0101326)
(-9.52695e-19 5.26605e-19 -0.0100467)
(-1.01931e-18 6.28949e-19 -0.00995914)
(-1.01788e-18 6.77626e-19 -0.00986975)
(-8.11461e-19 5.77998e-19 -0.00977846)
(-4.91293e-19 3.94952e-19 -0.00968517)
(-2.50155e-19 2.56017e-19 -0.00958978)
(-2.62543e-19 2.93571e-19 -0.00949217)
(-3.38932e-19 3.73412e-19 -0.00939222)
(-2.61834e-19 3.50119e-19 -0.0092898)
(-2.49624e-19 3.68864e-19 -0.00918478)
(-4.48665e-19 5.37034e-19 -0.00907702)
(-6.87145e-19 7.25354e-19 -0.00896635)
(-7.15318e-19 7.69104e-19 -0.0088526)
(-7.44457e-19 8.14162e-19 -0.00873561)
(-8.56854e-19 9.19822e-19 -0.00861517)
(-9.19683e-19 9.88352e-19 -0.00849108)
(-9.47222e-19 1.02834e-18 -0.00836312)
(-8.37391e-19 9.59949e-19 -0.00823107)
(-6.44222e-19 8.19174e-19 -0.00809467)
(-4.83902e-19 6.97984e-19 -0.00795366)
(-3.41902e-19 5.83484e-19 -0.00780777)
(-2.18821e-19 4.81797e-19 -0.0076567)
(-1.55721e-19 4.30971e-19 -0.00750014)
(-1.63764e-19 4.32697e-19 -0.00733779)
(-2.76769e-19 4.99336e-19 -0.00716929)
(-4.45948e-19 6.0386e-19 -0.00699433)
(-5.17495e-19 6.42403e-19 -0.00681254)
(-4.51159e-19 5.84348e-19 -0.0066236)
(-3.11298e-19 4.79176e-19 -0.00642712)
(-1.65168e-19 3.7093e-19 -0.0062226)
(-1.61425e-19 3.63894e-19 -0.00600917)
(-2.31845e-19 4.05778e-19 -0.00578604)
(-2.32406e-19 3.96894e-19 -0.00555281)
(-1.81889e-19 3.49884e-19 -0.00530924)
(-1.24083e-19 2.97057e-19 -0.00505531)
(-1.3109e-19 2.89417e-19 -0.00479127)
(-1.9327e-19 3.23622e-19 -0.00451771)
(-2.62096e-19 3.67093e-19 -0.0042356)
(-2.5654e-19 3.62656e-19 -0.00394625)
(-2.01864e-19 3.25468e-19 -0.00365127)
(-1.95631e-19 3.22361e-19 -0.00335239)
(-2.13684e-19 3.39006e-19 -0.00305137)
(-1.6564e-19 3.10952e-19 -0.00274977)
(-6.93988e-20 2.48604e-19 -0.00244892)
(-1.49668e-21 2.03927e-19 -0.00214982)
(3.19291e-20 1.81058e-19 -0.00185314)
(4.25924e-20 1.70447e-19 -0.00155933)
(3.79602e-20 1.63627e-19 -0.00126863)
(3.29561e-20 1.45793e-19 -0.000981146)
(4.29464e-20 9.91423e-20 -0.000696913)
(2.47417e-20 4.77959e-20 -0.000415922)
(2.81582e-20 3.0288e-20 -0.00013815)
(-2.77485e-19 6.92288e-19 -0.0128457)
(-2.05393e-19 5.31188e-19 -0.0127941)
(-2.53005e-19 4.1424e-19 -0.0127422)
(-1.24641e-19 2.03398e-19 -0.0126899)
(6.74079e-20 7.95064e-21 -0.0126372)
(1.25523e-19 -1.05386e-19 -0.0125841)
(1.68953e-19 -1.85701e-19 -0.0125305)
(5.97761e-21 -1.19728e-19 -0.0124765)
(-3.44219e-19 1.01263e-19 -0.012422)
(-6.03435e-19 3.0399e-19 -0.0123671)
(-6.44881e-19 3.75487e-19 -0.0123117)
(-5.87402e-19 3.73381e-19 -0.0122559)
(-6.27503e-19 4.04837e-19 -0.0121995)
(-7.51641e-19 4.94191e-19 -0.0121426)
(-7.85558e-19 5.61264e-19 -0.0120851)
(-7.86358e-19 6.1724e-19 -0.0120271)
(-8.62031e-19 7.16782e-19 -0.0119684)
(-9.43089e-19 8.00649e-19 -0.0119092)
(-1.03802e-18 9.01451e-19 -0.0118493)
(-1.21124e-18 1.05538e-18 -0.0117888)
(-1.30633e-18 1.16395e-18 -0.0117276)
(-1.22354e-18 1.16834e-18 -0.0116657)
(-9.92681e-19 1.07113e-18 -0.0116031)
(-7.15751e-19 9.21461e-19 -0.0115398)
(-5.61381e-19 8.34976e-19 -0.0114757)
(-5.55193e-19 8.24744e-19 -0.0114108)
(-4.47757e-19 7.42954e-19 -0.0113451)
(-1.77007e-19 5.62351e-19 -0.0112786)
(-3.12429e-20 4.58804e-19 -0.0112113)
(-2.017e-19 5.30955e-19 -0.011143)
(-3.74228e-19 5.86538e-19 -0.0110738)
(-2.70602e-19 4.62108e-19 -0.0110036)
(-1.01811e-19 2.83143e-19 -0.0109324)
(-1.17957e-19 2.24534e-19 -0.0108601)
(-1.27678e-19 1.41113e-19 -0.0107867)
(8.41902e-20 -8.5113e-20 -0.0107122)
(2.85268e-19 -2.8709e-19 -0.0106365)
(3.10798e-19 -3.52627e-19 -0.0105596)
(2.03599e-19 -3.24155e-19 -0.0104814)
(6.257e-20 -2.77435e-19 -0.0104018)
(9.28873e-20 -3.61783e-19 -0.0103207)
(1.48984e-19 -4.49702e-19 -0.0102382)
(5.26045e-20 -4.16614e-19 -0.0101541)
(6.56286e-21 -4.09223e-19 -0.0100684)
(-7.48803e-21 -4.16333e-19 -0.00998094)
(-8.35508e-20 -3.73141e-19 -0.00989169)
(-2.58047e-19 -2.64343e-19 -0.00980054)
(-5.05947e-19 -1.15211e-19 -0.00970739)
(-5.57168e-19 -9.63174e-20 -0.00961215)
(-4.20367e-19 -1.99687e-19 -0.00951469)
(-3.27379e-19 -2.70693e-19 -0.0094149)
(-3.83436e-19 -2.61283e-19 -0.00931265)
(-4.84265e-19 -2.29801e-19 -0.00920781)
(-5.56722e-19 -2.08766e-19 -0.00910022)
(-6.12898e-19 -1.89874e-19 -0.00898973)
(-5.92251e-19 -2.27396e-19 -0.00887618)
(-5.76526e-19 -2.67953e-19 -0.00875937)
(-5.63736e-19 -2.95321e-19 -0.00863913)
(-5.56941e-19 -3.17794e-19 -0.00851524)
(-6.37855e-19 -2.88142e-19 -0.0083875)
(-7.83037e-19 -2.17248e-19 -0.00825565)
(-7.94973e-19 -2.32398e-19 -0.00811946)
(-6.86729e-19 -3.2876e-19 -0.00797866)
(-6.30553e-19 -3.9897e-19 -0.00783298)
(-6.19815e-19 -4.47887e-19 -0.00768211)
(-6.224e-19 -4.88273e-19 -0.00752575)
(-6.88579e-19 -4.8601e-19 -0.00736358)
(-7.2781e-19 -4.97129e-19 -0.00719525)
(-6.74085e-19 -5.60246e-19 -0.00702044)
(-6.50517e-19 -5.96577e-19 -0.00683879)
(-6.56144e-19 -6.11037e-19 -0.00664994)
(-6.62864e-19 -6.20511e-19 -0.00645353)
(-6.42866e-19 -6.516e-19 -0.0062491)
(-6.20414e-19 -6.86732e-19 -0.00603576)
(-6.23025e-19 -7.0007e-19 -0.00581267)
(-6.29189e-19 -7.02776e-19 -0.0055794)
(-6.53518e-19 -6.89779e-19 -0.00533569)
(-6.42433e-19 -6.96304e-19 -0.00508148)
(-5.62938e-19 -7.45181e-19 -0.00481701)
(-4.59527e-19 -8.02726e-19 -0.00454283)
(-3.7475e-19 -8.38544e-19 -0.00425989)
(-3.6554e-19 -8.1785e-19 -0.0039695)
(-4.04947e-19 -7.60423e-19 -0.00367326)
(-4.36796e-19 -6.99951e-19 -0.00337294)
(-4.44142e-19 -6.47148e-19 -0.00307032)
(-4.22278e-19 -6.07818e-19 -0.00276701)
(-3.84427e-19 -5.74451e-19 -0.00246438)
(-3.37156e-19 -5.3932e-19 -0.00216344)
(-2.91367e-19 -4.9863e-19 -0.00186491)
(-2.52094e-19 -4.47613e-19 -0.00156925)
(-2.26958e-19 -3.82871e-19 -0.00127671)