/*--------------------------------*- C++ -*----------------------------------*\
  =========                 |
  \\      /  F ield         | OpenFOAM: The Open Source CFD Toolbox
   \\    /   O peration     | Website:  https://openfoam.org
    \\  /    A nd           | Version:  7
     \\/     M anipulation  |
\*---------------------------------------------------------------------------*/
FoamFile
{
    version     2.0;
    format      ascii;
    class       volScalarField;
    location    "232000";
    object      p;
}
// * * * * * * * * * * * * * * * * * * * * * * * * * * * * * * * * * * * * * //

dimensions      [0 2 -2 0 0 0 0];

internalField   nonuniform List<scalar> 
4814
(
-1.35698e-18
-1.35727e-18
-1.36073e-18
-1.35714e-18
-1.31446e-18
-1.31487e-18
-1.31714e-18
-1.31483e-18
-1.31451e-18
-1.31036e-18
-1.32286e-18
-1.32405e-18
-1.33194e-18
-1.32793e-18
-1.34443e-18
-1.3374e-18
-1.34408e-18
-1.34201e-18
-1.35846e-18
-1.35416e-18
-1.36319e-18
-1.35444e-18
-1.35693e-18
-1.34661e-18
-1.34435e-18
-1.34046e-18
-1.34631e-18
-1.3439e-18
-1.35279e-18
-1.35044e-18
-1.35683e-18
-1.35556e-18
-1.35747e-18
-1.34434e-18
-1.33127e-18
-1.32454e-18
-1.3245e-18
-1.32529e-18
-1.31946e-18
-1.31093e-18
-1.31711e-18
-1.31034e-18
-1.3152e-18
-1.31748e-18
-1.31771e-18
-1.32101e-18
-1.33356e-18
-1.32704e-18
-1.345e-18
-1.33236e-18
-1.34865e-18
-1.3441e-18
-1.35851e-18
-1.35286e-18
-1.36268e-18
-1.35414e-18
-1.3554e-18
-1.34666e-18
-1.34521e-18
-1.34155e-18
-1.34657e-18
-1.3436e-18
-1.35024e-18
-1.35041e-18
-1.35745e-18
-1.35483e-18
-1.35436e-18
-1.34322e-18
-1.33296e-18
-1.32517e-18
-1.32342e-18
-1.32538e-18
-1.33372e-18
-1.33296e-18
-1.34186e-18
-1.34123e-18
-1.34846e-18
-1.34687e-18
-1.34468e-18
-1.31748e-18
-1.31287e-18
-1.31377e-18
-1.30871e-18
-1.31448e-18
-1.31535e-18
-1.31752e-18
-1.32115e-18
-1.32919e-18
-1.32808e-18
-1.34337e-18
-1.33254e-18
-1.35147e-18
-1.3437e-18
-1.35513e-18
-1.35121e-18
-1.3611e-18
-1.35084e-18
-1.35484e-18
-1.34578e-18
-1.34517e-18
-1.34286e-18
-1.34627e-18
-1.34416e-18
-1.35166e-18
-1.34975e-18
-1.35512e-18
-1.35441e-18
-1.35405e-18
-1.34271e-18
-1.33371e-18
-1.32576e-18
-1.32441e-18
-1.32573e-18
-1.33449e-18
-1.33471e-18
-1.34634e-18
-1.33675e-18
-1.35104e-18
-1.34871e-18
-1.34504e-18
-1.3479e-18
-1.35317e-18
-1.35235e-18
-1.31204e-18
-1.31556e-18
-1.31162e-18
-1.31368e-18
-1.31517e-18
-1.31214e-18
-1.32264e-18
-1.32408e-18
-1.32806e-18
-1.33326e-18
-1.34219e-18
-1.33628e-18
-1.34578e-18
-1.34265e-18
-1.35535e-18
-1.34925e-18
-1.36022e-18
-1.34929e-18
-1.35291e-18
-1.34866e-18
-1.34572e-18
-1.34149e-18
-1.34513e-18
-1.34348e-18
-1.3528e-18
-1.34791e-18
-1.35405e-18
-1.35399e-18
-1.35439e-18
-1.34307e-18
-1.33269e-18
-1.32746e-18
-1.32478e-18
-1.32546e-18
-1.33585e-18
-1.33551e-18
-1.34566e-18
-1.34484e-18
-1.34824e-18
-1.34853e-18
-1.34565e-18
-1.35094e-18
-1.34878e-18
-1.34862e-18
-1.31491e-18
-1.31263e-18
-1.31379e-18
-1.31261e-18
-1.31722e-18
-1.30624e-18
-1.32031e-18
-1.31896e-18
-1.33053e-18
-1.33168e-18
-1.34304e-18
-1.33848e-18
-1.34335e-18
-1.34324e-18
-1.36044e-18
-1.35035e-18
-1.3575e-18
-1.35081e-18
-1.35276e-18
-1.34834e-18
-1.34569e-18
-1.34325e-18
-1.34575e-18
-1.34277e-18
-1.35198e-18
-1.34862e-18
-1.35302e-18
-1.35329e-18
-1.35306e-18
-1.34342e-18
-1.33251e-18
-1.32683e-18
-1.32399e-18
-1.32741e-18
-1.33413e-18
-1.33286e-18
-1.3411e-18
-1.3463e-18
-1.34914e-18
-1.34892e-18
-1.34786e-18
-1.34817e-18
-1.35107e-18
-1.35028e-18
-1.31487e-18
-1.31e-18
-1.31224e-18
-1.31339e-18
-1.31479e-18
-1.31153e-18
-1.3205e-18
-1.31633e-18
-1.33569e-18
-1.33089e-18
-1.34341e-18
-1.33677e-18
-1.34537e-18
-1.34374e-18
-1.35729e-18
-1.34859e-18
-1.35904e-18
-1.34893e-18
-1.35403e-18
-1.34662e-18
-1.34538e-18
-1.3416e-18
-1.34777e-18
-1.34368e-18
-1.35096e-18
-1.35012e-18
-1.35288e-18
-1.35177e-18
-1.35376e-18
-1.34515e-18
-1.33065e-18
-1.32648e-18
-1.32513e-18
-1.32682e-18
-1.33579e-18
-1.33518e-18
-1.33804e-18
-1.34363e-18
-1.34894e-18
-1.34795e-18
-1.34868e-18
-1.34274e-18
-1.35305e-18
-1.34987e-18
-1.31408e-18
-1.31428e-18
-1.31483e-18
-1.31364e-18
-1.31347e-18
-1.31145e-18
-1.31969e-18
-1.31838e-18
-1.33082e-18
-1.33085e-18
-1.34411e-18
-1.33743e-18
-1.35087e-18
-1.34014e-18
-1.35431e-18
-1.34841e-18
-1.35632e-18
-1.34676e-18
-1.35343e-18
-1.34655e-18
-1.34646e-18
-1.34104e-18
-1.34707e-18
-1.34453e-18
-1.35e-18
-1.35102e-18
-1.35194e-18
-1.35028e-18
-1.35367e-18
-1.34333e-18
-1.33178e-18
-1.32748e-18
-1.32568e-18
-1.32864e-18
-1.33557e-18
-1.3369e-18
-1.34201e-18
-1.34449e-18
-1.34824e-18
-1.34593e-18
-1.34632e-18
-1.34554e-18
-1.35216e-18
-1.34957e-18
-1.35169e-18
-1.31257e-18
-1.31473e-18
-1.31637e-18
-1.31112e-18
-1.31622e-18
-1.30905e-18
-1.32021e-18
-1.32032e-18
-1.32844e-18
-1.33153e-18
-1.34618e-18
-1.33566e-18
-1.3472e-18
-1.33992e-18
-1.35648e-18
-1.34686e-18
-1.35956e-18
-1.34881e-18
-1.3529e-18
-1.34698e-18
-1.34647e-18
-1.3399e-18
-1.34722e-18
-1.34559e-18
-1.35041e-18
-1.35244e-18
-1.35156e-18
-1.35172e-18
-1.35259e-18
-1.34236e-18
-1.33205e-18
-1.32791e-18
-1.32621e-18
-1.32617e-18
-1.33512e-18
-1.33304e-18
-1.34118e-18
-1.34351e-18
-1.35175e-18
-1.34447e-18
-1.34583e-18
-1.34875e-18
-1.35082e-18
-1.34824e-18
-1.35546e-18
-1.31166e-18
-1.31541e-18
-1.3151e-18
-1.31229e-18
-1.31699e-18
-1.30665e-18
-1.31828e-18
-1.31744e-18
-1.32889e-18
-1.33114e-18
-1.34375e-18
-1.33841e-18
-1.34446e-18
-1.34473e-18
-1.35639e-18
-1.34706e-18
-1.35997e-18
-1.35022e-18
-1.35579e-18
-1.34763e-18
-1.34572e-18
-1.34003e-18
-1.34585e-18
-1.34529e-18
-1.35056e-18
-1.35149e-18
-1.35223e-18
-1.35183e-18
-1.35183e-18
-1.34218e-18
-1.3328e-18
-1.32574e-18
-1.32464e-18
-1.32682e-18
-1.33318e-18
-1.33154e-18
-1.33707e-18
-1.34329e-18
-1.34812e-18
-1.34858e-18
-1.34737e-18
-1.34813e-18
-1.35227e-18
-1.35088e-18
-1.35636e-18
-1.31274e-18
-1.3129e-18
-1.31362e-18
-1.31424e-18
-1.31478e-18
-1.3088e-18
-1.31862e-18
-1.31581e-18
-1.33058e-18
-1.33146e-18
-1.3412e-18
-1.33734e-18
-1.3453e-18
-1.3439e-18
-1.35614e-18
-1.34741e-18
-1.36148e-18
-1.34801e-18
-1.35412e-18
-1.34495e-18
-1.34551e-18
-1.34112e-18
-1.34758e-18
-1.34497e-18
-1.35073e-18
-1.35031e-18
-1.35162e-18
-1.35066e-18
-1.34961e-18
-1.34226e-18
-1.33454e-18
-1.32712e-18
-1.32688e-18
-1.32593e-18
-1.33433e-18
-1.3323e-18
-1.33804e-18
-1.34233e-18
-1.34609e-18
-1.35012e-18
-1.34739e-18
-1.34702e-18
-1.35322e-18
-1.35053e-18
-1.35475e-18
-1.31068e-18
-1.31287e-18
-1.31427e-18
-1.31451e-18
-1.31582e-18
-1.31108e-18
-1.32089e-18
-1.31748e-18
-1.32967e-18
-1.33054e-18
-1.33948e-18
-1.3377e-18
-1.34446e-18
-1.34254e-18
-1.35135e-18
-1.34669e-18
-1.36012e-18
-1.34922e-18
-1.35378e-18
-1.34328e-18
-1.34582e-18
-1.34165e-18
-1.34634e-18
-1.34438e-18
-1.35092e-18
-1.35014e-18
-1.35276e-18
-1.35027e-18
-1.34945e-18
-1.34283e-18
-1.33499e-18
-1.32697e-18
-1.32586e-18
-1.32772e-18
-1.3372e-18
-1.33642e-18
-1.339e-18
-1.34213e-18
-1.34676e-18
-1.34877e-18
-1.34859e-18
-1.34782e-18
-1.35228e-18
-1.34684e-18
-1.31588e-18
-1.31564e-18
-1.31209e-18
-1.31421e-18
-1.31502e-18
-1.30913e-18
-1.31993e-18
-1.31893e-18
-1.32684e-18
-1.33312e-18
-1.34067e-18
-1.33567e-18
-1.34556e-18
-1.34023e-18
-1.35173e-18
-1.34712e-18
-1.35673e-18
-1.34746e-18
-1.35423e-18
-1.34377e-18
-1.34688e-18
-1.3414e-18
-1.34539e-18
-1.34498e-18
-1.35137e-18
-1.35093e-18
-1.35221e-18
-1.34963e-18
-1.35004e-18
-1.34291e-18
-1.3352e-18
-1.32655e-18
-1.32822e-18
-1.32943e-18
-1.33694e-18
-1.33757e-18
-1.3423e-18
-1.34287e-18
-1.35072e-18
-1.34792e-18
-1.34545e-18
-1.34975e-18
-1.35036e-18
-1.35103e-18
-1.3165e-18
-1.31694e-18
-1.31148e-18
-1.30951e-18
-1.31726e-18
-1.30952e-18
-1.32172e-18
-1.3184e-18
-1.32907e-18
-1.33222e-18
-1.34209e-18
-1.33604e-18
-1.34864e-18
-1.343e-18
-1.35424e-18
-1.34771e-18
-1.3549e-18
-1.34732e-18
-1.35403e-18
-1.34443e-18
-1.347e-18
-1.34183e-18
-1.34566e-18
-1.34577e-18
-1.35066e-18
-1.35123e-18
-1.35145e-18
-1.34971e-18
-1.34877e-18
-1.34205e-18
-1.33493e-18
-1.3275e-18
-1.32958e-18
-1.32945e-18
-1.33602e-18
-1.33567e-18
-1.33954e-18
-1.34023e-18
-1.35037e-18
-1.34687e-18
-1.34589e-18
-1.34779e-18
-1.35232e-18
-1.34881e-18
-1.31458e-18
-1.31398e-18
-1.3112e-18
-1.31209e-18
-1.3168e-18
-1.31189e-18
-1.32057e-18
-1.31608e-18
-1.32973e-18
-1.32999e-18
-1.34098e-18
-1.33612e-18
-1.34835e-18
-1.34193e-18
-1.35483e-18
-1.34846e-18
-1.35521e-18
-1.34964e-18
-1.35208e-18
-1.34526e-18
-1.34623e-18
-1.34199e-18
-1.34525e-18
-1.34492e-18
-1.34999e-18
-1.35128e-18
-1.35141e-18
-1.34886e-18
-1.34892e-18
-1.34121e-18
-1.33353e-18
-1.32794e-18
-1.32807e-18
-1.32854e-18
-1.33412e-18
-1.33504e-18
-1.33854e-18
-1.34009e-18
-1.34975e-18
-1.34595e-18
-1.34796e-18
-1.34852e-18
-1.35195e-18
-1.34912e-18
-1.31446e-18
-1.31121e-18
-1.31288e-18
-1.31251e-18
-1.31795e-18
-1.3111e-18
-1.31875e-18
-1.31984e-18
-1.32966e-18
-1.32898e-18
-1.3406e-18
-1.3369e-18
-1.34595e-18
-1.33865e-18
-1.35602e-18
-1.34585e-18
-1.35545e-18
-1.35197e-18
-1.3532e-18
-1.34437e-18
-1.34528e-18
-1.34234e-18
-1.34686e-18
-1.34441e-18
-1.3489e-18
-1.35001e-18
-1.35137e-18
-1.3477e-18
-1.34853e-18
-1.34028e-18
-1.3335e-18
-1.32768e-18
-1.32704e-18
-1.3284e-18
-1.33669e-18
-1.33344e-18
-1.34107e-18
-1.34166e-18
-1.34669e-18
-1.34536e-18
-1.34923e-18
-1.34879e-18
-1.35118e-18
-1.35054e-18
-1.31345e-18
-1.3152e-18
-1.3113e-18
-1.31562e-18
-1.3188e-18
-1.31499e-18
-1.31906e-18
-1.32161e-18
-1.33149e-18
-1.32983e-18
-1.34071e-18
-1.33688e-18
-1.34844e-18
-1.3376e-18
-1.35419e-18
-1.3457e-18
-1.35466e-18
-1.34982e-18
-1.35314e-18
-1.34465e-18
-1.34544e-18
-1.34254e-18
-1.34597e-18
-1.34507e-18
-1.34839e-18
-1.34941e-18
-1.35027e-18
-1.34882e-18
-1.34798e-18
-1.34164e-18
-1.33464e-18
-1.32837e-18
-1.33097e-18
-1.32985e-18
-1.33421e-18
-1.33173e-18
-1.34121e-18
-1.33896e-18
-1.34606e-18
-1.34623e-18
-1.34902e-18
-1.34728e-18
-1.35035e-18
-1.35199e-18
-1.31304e-18
-1.31521e-18
-1.31101e-18
-1.316e-18
-1.31747e-18
-1.31417e-18
-1.32206e-18
-1.32009e-18
-1.3319e-18
-1.32758e-18
-1.34004e-18
-1.33712e-18
-1.346e-18
-1.34165e-18
-1.35436e-18
-1.34468e-18
-1.3556e-18
-1.34781e-18
-1.3527e-18
-1.34532e-18
-1.3474e-18
-1.34303e-18
-1.3448e-18
-1.34466e-18
-1.34948e-18
-1.34926e-18
-1.35016e-18
-1.34907e-18
-1.34819e-18
-1.3415e-18
-1.33564e-18
-1.32901e-18
-1.33095e-18
-1.32905e-18
-1.3368e-18
-1.33066e-18
-1.33737e-18
-1.34051e-18
-1.34639e-18
-1.35104e-18
-1.35025e-18
-1.3463e-18
-1.35154e-18
-1.34788e-18
-1.31319e-18
-1.31439e-18
-1.31147e-18
-1.31475e-18
-1.31907e-18
-1.31355e-18
-1.32171e-18
-1.31877e-18
-1.32843e-18
-1.32937e-18
-1.33925e-18
-1.33603e-18
-1.34666e-18
-1.34162e-18
-1.35458e-18
-1.34593e-18
-1.35546e-18
-1.34956e-18
-1.35211e-18
-1.34603e-18
-1.34657e-18
-1.34257e-18
-1.34663e-18
-1.34383e-18
-1.34974e-18
-1.34911e-18
-1.35097e-18
-1.34778e-18
-1.34811e-18
-1.34084e-18
-1.3358e-18
-1.32992e-18
-1.32942e-18
-1.32916e-18
-1.33594e-18
-1.33259e-18
-1.33666e-18
-1.3407e-18
-1.3484e-18
-1.3498e-18
-1.3485e-18
-1.34885e-18
-1.35254e-18
-1.3481e-18
-1.3135e-18
-1.3137e-18
-1.31354e-18
-1.31207e-18
-1.31712e-18
-1.31467e-18
-1.32197e-18
-1.31944e-18
-1.32794e-18
-1.33184e-18
-1.33861e-18
-1.33503e-18
-1.34831e-18
-1.33981e-18
-1.354e-18
-1.3465e-18
-1.35557e-18
-1.35015e-18
-1.35225e-18
-1.34474e-18
-1.34677e-18
-1.3422e-18
-1.34664e-18
-1.34379e-18
-1.34962e-18
-1.34895e-18
-1.35019e-18
-1.34751e-18
-1.34806e-18
-1.3401e-18
-1.33645e-18
-1.33028e-18
-1.33136e-18
-1.32885e-18
-1.33523e-18
-1.3323e-18
-1.33868e-18
-1.33953e-18
-1.34815e-18
-1.34966e-18
-1.34681e-18
-1.34846e-18
-1.35221e-18
-1.34996e-18
-1.31283e-18
-1.31357e-18
-1.31315e-18
-1.31285e-18
-1.314e-18
-1.31303e-18
-1.32115e-18
-1.31968e-18
-1.32977e-18
-1.3322e-18
-1.34015e-18
-1.3367e-18
-1.34559e-18
-1.33817e-18
-1.35238e-18
-1.34654e-18
-1.35534e-18
-1.35003e-18
-1.35233e-18
-1.34479e-18
-1.34689e-18
-1.34238e-18
-1.34668e-18
-1.34477e-18
-1.34933e-18
-1.3487e-18
-1.34984e-18
-1.34752e-18
-1.34822e-18
-1.34052e-18
-1.33575e-18
-1.33004e-18
-1.33117e-18
-1.32842e-18
-1.33467e-18
-1.33273e-18
-1.33971e-18
-1.34071e-18
-1.34645e-18
-1.34815e-18
-1.34488e-18
-1.34936e-18
-1.35172e-18
-1.34927e-18
-1.31192e-18
-1.31369e-18
-1.31081e-18
-1.31583e-18
-1.31654e-18
-1.31299e-18
-1.31995e-18
-1.32051e-18
-1.32952e-18
-1.33049e-18
-1.34024e-18
-1.33569e-18
-1.34581e-18
-1.34024e-18
-1.35141e-18
-1.34516e-18
-1.35471e-18
-1.3476e-18
-1.35307e-18
-1.34509e-18
-1.346e-18
-1.3429e-18
-1.34609e-18
-1.34487e-18
-1.34935e-18
-1.34844e-18
-1.35033e-18
-1.34743e-18
-1.34739e-18
-1.34174e-18
-1.33609e-18
-1.32933e-18
-1.33173e-18
-1.32881e-18
-1.33405e-18
-1.33377e-18
-1.33828e-18
-1.34057e-18
-1.34751e-18
-1.34733e-18
-1.34682e-18
-1.34953e-18
-1.35073e-18
-1.3511e-18
-1.35611e-18
-1.31159e-18
-1.31415e-18
-1.31184e-18
-1.31374e-18
-1.31816e-18
-1.31267e-18
-1.3205e-18
-1.3206e-18
-1.32853e-18
-1.32985e-18
-1.33941e-18
-1.33423e-18
-1.34475e-18
-1.34097e-18
-1.35228e-18
-1.3467e-18
-1.35344e-18
-1.34788e-18
-1.35267e-18
-1.34561e-18
-1.34766e-18
-1.34294e-18
-1.34615e-18
-1.34477e-18
-1.35027e-18
-1.34837e-18
-1.35038e-18
-1.34715e-18
-1.34651e-18
-1.34016e-18
-1.33527e-18
-1.33074e-18
-1.3329e-18
-1.33022e-18
-1.33312e-18
-1.33353e-18
-1.3376e-18
-1.3399e-18
-1.34786e-18
-1.34774e-18
-1.34739e-18
-1.34961e-18
-1.35055e-18
-1.35074e-18
-1.35564e-18
-1.31071e-18
-1.31453e-18
-1.31337e-18
-1.31452e-18
-1.31749e-18
-1.31119e-18
-1.32122e-18
-1.32002e-18
-1.329e-18
-1.33045e-18
-1.33866e-18
-1.33529e-18
-1.34672e-18
-1.33969e-18
-1.3524e-18
-1.34568e-18
-1.35301e-18
-1.34821e-18
-1.35207e-18
-1.34558e-18
-1.34721e-18
-1.34278e-18
-1.34623e-18
-1.34492e-18
-1.34988e-18
-1.34838e-18
-1.35018e-18
-1.34809e-18
-1.34714e-18
-1.34008e-18
-1.33576e-18
-1.33089e-18
-1.3337e-18
-1.33123e-18
-1.3347e-18
-1.3326e-18
-1.33831e-18
-1.33907e-18
-1.34713e-18
-1.34873e-18
-1.34769e-18
-1.34896e-18
-1.35169e-18
-1.34931e-18
-1.35798e-18
-1.31157e-18
-1.31482e-18
-1.31316e-18
-1.31395e-18
-1.31842e-18
-1.31191e-18
-1.32178e-18
-1.31959e-18
-1.32867e-18
-1.32965e-18
-1.33724e-18
-1.3354e-18
-1.34639e-18
-1.33898e-18
-1.35241e-18
-1.34564e-18
-1.35345e-18
-1.3485e-18
-1.35267e-18
-1.34453e-18
-1.34795e-18
-1.34228e-18
-1.3464e-18
-1.34445e-18
-1.3492e-18
-1.34821e-18
-1.35016e-18
-1.34765e-18
-1.34726e-18
-1.33976e-18
-1.33731e-18
-1.33043e-18
-1.33293e-18
-1.33062e-18
-1.33418e-18
-1.33251e-18
-1.33786e-18
-1.33947e-18
-1.347e-18
-1.34945e-18
-1.34805e-18
-1.34959e-18
-1.35232e-18
-1.3487e-18
-1.35815e-18
-1.31267e-18
-1.31321e-18
-1.31243e-18
-1.31414e-18
-1.31733e-18
-1.31288e-18
-1.3203e-18
-1.32006e-18
-1.32861e-18
-1.32887e-18
-1.33868e-18
-1.33554e-18
-1.3455e-18
-1.33933e-18
-1.35176e-18
-1.34399e-18
-1.35384e-18
-1.34796e-18
-1.3524e-18
-1.34517e-18
-1.34821e-18
-1.34288e-18
-1.34618e-18
-1.34431e-18
-1.34871e-18
-1.34819e-18
-1.35032e-18
-1.34683e-18
-1.34693e-18
-1.33991e-18
-1.33706e-18
-1.33076e-18
-1.3337e-18
-1.33034e-18
-1.33519e-18
-1.33232e-18
-1.33791e-18
-1.33999e-18
-1.34581e-18
-1.34775e-18
-1.34878e-18
-1.35035e-18
-1.35257e-18
-1.35066e-18
-1.31225e-18
-1.31364e-18
-1.31329e-18
-1.31353e-18
-1.31701e-18
-1.31421e-18
-1.32042e-18
-1.32049e-18
-1.32878e-18
-1.33031e-18
-1.3395e-18
-1.33573e-18
-1.34618e-18
-1.33948e-18
-1.35104e-18
-1.34312e-18
-1.35295e-18
-1.34742e-18
-1.35301e-18
-1.34406e-18
-1.34695e-18
-1.34352e-18
-1.3456e-18
-1.34424e-18
-1.3488e-18
-1.34771e-18
-1.3501e-18
-1.34634e-18
-1.34677e-18
-1.34027e-18
-1.33767e-18
-1.33021e-18
-1.334e-18
-1.33088e-18
-1.33687e-18
-1.3325e-18
-1.33811e-18
-1.34041e-18
-1.34565e-18
-1.34664e-18
-1.34866e-18
-1.3502e-18
-1.35164e-18
-1.35075e-18
-1.31243e-18
-1.31257e-18
-1.31288e-18
-1.31246e-18
-1.31685e-18
-1.3147e-18
-1.32175e-18
-1.31955e-18
-1.32777e-18
-1.32827e-18
-1.33725e-18
-1.33702e-18
-1.34702e-18
-1.34052e-18
-1.35148e-18
-1.34399e-18
-1.35273e-18
-1.34819e-18
-1.35291e-18
-1.34342e-18
-1.34745e-18
-1.34308e-18
-1.34593e-18
-1.34408e-18
-1.34867e-18
-1.34783e-18
-1.34998e-18
-1.34651e-18
-1.34701e-18
-1.33995e-18
-1.33819e-18
-1.33054e-18
-1.33364e-18
-1.33101e-18
-1.33596e-18
-1.33251e-18
-1.33701e-18
-1.33872e-18
-1.34507e-18
-1.34778e-18
-1.34748e-18
-1.35076e-18
-1.35188e-18
-1.35003e-18
-1.31208e-18
-1.31199e-18
-1.31302e-18
-1.31379e-18
-1.31804e-18
-1.31416e-18
-1.32069e-18
-1.31931e-18
-1.32763e-18
-1.32956e-18
-1.33792e-18
-1.33699e-18
-1.34628e-18
-1.33891e-18
-1.35195e-18
-1.34451e-18
-1.35226e-18
-1.34855e-18
-1.35284e-18
-1.3441e-18
-1.34752e-18
-1.34328e-18
-1.34591e-18
-1.34369e-18
-1.34871e-18
-1.34737e-18
-1.34994e-18
-1.34668e-18
-1.34662e-18
-1.34005e-18
-1.33772e-18
-1.3311e-18
-1.3338e-18
-1.33146e-18
-1.33482e-18
-1.33249e-18
-1.33839e-18
-1.33847e-18
-1.345e-18
-1.34779e-18
-1.34635e-18
-1.35035e-18
-1.35185e-18
-1.35051e-18
-1.31211e-18
-1.31361e-18
-1.31315e-18
-1.31355e-18
-1.3185e-18
-1.31362e-18
-1.32129e-18
-1.3204e-18
-1.32789e-18
-1.32949e-18
-1.33878e-18
-1.33715e-18
-1.34646e-18
-1.33826e-18
-1.35179e-18
-1.34417e-18
-1.35198e-18
-1.34908e-18
-1.35327e-18
-1.34486e-18
-1.34754e-18
-1.3436e-18
-1.3463e-18
-1.34399e-18
-1.34849e-18
-1.3474e-18
-1.34959e-18
-1.34648e-18
-1.3466e-18
-1.34027e-18
-1.33735e-18
-1.33122e-18
-1.33438e-18
-1.33115e-18
-1.33515e-18
-1.33272e-18
-1.3386e-18
-1.33867e-18
-1.34508e-18
-1.34794e-18
-1.34701e-18
-1.34996e-18
-1.35157e-18
-1.34983e-18
-1.31241e-18
-1.31332e-18
-1.31327e-18
-1.31421e-18
-1.31823e-18
-1.31308e-18
-1.32097e-18
-1.31958e-18
-1.32779e-18
-1.32952e-18
-1.33894e-18
-1.33646e-18
-1.34655e-18
-1.33936e-18
-1.35072e-18
-1.34393e-18
-1.35225e-18
-1.3488e-18
-1.35275e-18
-1.34544e-18
-1.34771e-18
-1.34304e-18
-1.34637e-18
-1.3438e-18
-1.34893e-18
-1.34735e-18
-1.34984e-18
-1.34629e-18
-1.34678e-18
-1.34015e-18
-1.33706e-18
-1.33144e-18
-1.33423e-18
-1.33116e-18
-1.33561e-18
-1.33292e-18
-1.33761e-18
-1.33829e-18
-1.34578e-18
-1.34765e-18
-1.34695e-18
-1.34991e-18
-1.35254e-18
-1.34994e-18
-1.31352e-18
-1.31317e-18
-1.3146e-18
-1.31371e-18
-1.31805e-18
-1.31415e-18
-1.32057e-18
-1.32002e-18
-1.32771e-18
-1.32983e-18
-1.3384e-18
-1.33505e-18
-1.34572e-18
-1.3391e-18
-1.35108e-18
-1.34374e-18
-1.35192e-18
-1.34864e-18
-1.35271e-18
-1.34535e-18
-1.348e-18
-1.34311e-18
-1.34651e-18
-1.34379e-18
-1.34882e-18
-1.3473e-18
-1.35003e-18
-1.34647e-18
-1.34673e-18
-1.33984e-18
-1.33723e-18
-1.3315e-18
-1.33471e-18
-1.33151e-18
-1.33612e-18
-1.33243e-18
-1.33788e-18
-1.33821e-18
-1.34491e-18
-1.34798e-18
-1.34753e-18
-1.3498e-18
-1.3523e-18
-1.35029e-18
-1.31325e-18
-1.31387e-18
-1.31361e-18
-1.31318e-18
-1.31803e-18
-1.31422e-18
-1.32111e-18
-1.31958e-18
-1.32853e-18
-1.32933e-18
-1.33831e-18
-1.33517e-18
-1.34502e-18
-1.33824e-18
-1.35117e-18
-1.34329e-18
-1.35192e-18
-1.34911e-18
-1.35275e-18
-1.3453e-18
-1.34806e-18
-1.34321e-18
-1.34648e-18
-1.34393e-18
-1.34896e-18
-1.34729e-18
-1.34994e-18
-1.34646e-18
-1.34635e-18
-1.3396e-18
-1.33774e-18
-1.33184e-18
-1.3342e-18
-1.33154e-18
-1.33587e-18
-1.33235e-18
-1.33877e-18
-1.33954e-18
-1.34483e-18
-1.34779e-18
-1.34775e-18
-1.34947e-18
-1.35191e-18
-1.3507e-18
-1.31207e-18
-1.31362e-18
-1.31274e-18
-1.31339e-18
-1.31751e-18
-1.31404e-18
-1.32112e-18
-1.31946e-18
-1.32784e-18
-1.329e-18
-1.33835e-18
-1.33504e-18
-1.3449e-18
-1.33878e-18
-1.35048e-18
-1.34303e-18
-1.35233e-18
-1.34834e-18
-1.35275e-18
-1.34468e-18
-1.34786e-18
-1.34296e-18
-1.34646e-18
-1.34378e-18
-1.34872e-18
-1.34745e-18
-1.35008e-18
-1.34666e-18
-1.34588e-18
-1.33969e-18
-1.33801e-18
-1.33197e-18
-1.33477e-18
-1.33133e-18
-1.33552e-18
-1.33291e-18
-1.33858e-18
-1.33994e-18
-1.34492e-18
-1.34745e-18
-1.34784e-18
-1.34995e-18
-1.35253e-18
-1.35108e-18
-1.35752e-18
-1.31214e-18
-1.31318e-18
-1.31321e-18
-1.3138e-18
-1.31802e-18
-1.31325e-18
-1.32139e-18
-1.3193e-18
-1.32773e-18
-1.32854e-18
-1.3374e-18
-1.33443e-18
-1.34584e-18
-1.33933e-18
-1.35103e-18
-1.34342e-18
-1.3523e-18
-1.34761e-18
-1.35279e-18
-1.34442e-18
-1.34769e-18
-1.34297e-18
-1.34667e-18
-1.34378e-18
-1.34881e-18
-1.3474e-18
-1.34978e-18
-1.34642e-18
-1.34609e-18
-1.33979e-18
-1.33822e-18
-1.33208e-18
-1.33493e-18
-1.33133e-18
-1.3355e-18
-1.33218e-18
-1.33817e-18
-1.339e-18
-1.34517e-18
-1.34787e-18
-1.34807e-18
-1.35e-18
-1.353e-18
-1.34975e-18
-1.35758e-18
-1.31258e-18
-1.31344e-18
-1.31312e-18
-1.31358e-18
-1.3179e-18
-1.31297e-18
-1.32115e-18
-1.31975e-18
-1.32738e-18
-1.32874e-18
-1.33779e-18
-1.3346e-18
-1.3458e-18
-1.33892e-18
-1.35136e-18
-1.34314e-18
-1.35194e-18
-1.34757e-18
-1.35247e-18
-1.34495e-18
-1.34761e-18
-1.34328e-18
-1.3467e-18
-1.34391e-18
-1.34904e-18
-1.34725e-18
-1.34973e-18
-1.34639e-18
-1.34589e-18
-1.33978e-18
-1.33788e-18
-1.33231e-18
-1.33458e-18
-1.33187e-18
-1.336e-18
-1.33228e-18
-1.33786e-18
-1.33911e-18
-1.34519e-18
-1.34743e-18
-1.34784e-18
-1.3501e-18
-1.35286e-18
-1.34985e-18
-1.35778e-18
-1.3132e-18
-1.31333e-18
-1.31305e-18
-1.31348e-18
-1.31731e-18
-1.31339e-18
-1.3212e-18
-1.31933e-18
-1.32812e-18
-1.32883e-18
-1.33855e-18
-1.33431e-18
-1.34541e-18
-1.33859e-18
-1.35181e-18
-1.34343e-18
-1.35215e-18
-1.34791e-18
-1.35248e-18
-1.34528e-18
-1.34786e-18
-1.34318e-18
-1.34673e-18
-1.34394e-18
-1.34899e-18
-1.34726e-18
-1.3497e-18
-1.34619e-18
-1.34614e-18
-1.34001e-18
-1.33762e-18
-1.33247e-18
-1.33442e-18
-1.33171e-18
-1.33555e-18
-1.33272e-18
-1.33797e-18
-1.33935e-18
-1.34521e-18
-1.34703e-18
-1.34773e-18
-1.3495e-18
-1.35319e-18
-1.34981e-18
-1.35772e-18
-1.35498e-18
-1.31278e-18
-1.31344e-18
-1.31379e-18
-1.31385e-18
-1.31788e-18
-1.31392e-18
-1.32064e-18
-1.31978e-18
-1.32823e-18
-1.32879e-18
-1.33829e-18
-1.33495e-18
-1.34572e-18
-1.33837e-18
-1.35115e-18
-1.34345e-18
-1.35202e-18
-1.34773e-18
-1.35281e-18
-1.3453e-18
-1.34806e-18
-1.34312e-18
-1.34682e-18
-1.34379e-18
-1.34865e-18
-1.34711e-18
-1.3497e-18
-1.34628e-18
-1.34634e-18
-1.33988e-18
-1.33762e-18
-1.3325e-18
-1.33465e-18
-1.33184e-18
-1.33519e-18
-1.33304e-18
-1.33814e-18
-1.33896e-18
-1.34406e-18
-1.34681e-18
-1.3476e-18
-1.34989e-18
-1.35273e-18
-1.35052e-18
-1.35727e-18
-1.35485e-18
-1.31262e-18
-1.31404e-18
-1.31396e-18
-1.31388e-18
-1.31752e-18
-1.31406e-18
-1.32055e-18
-1.32017e-18
-1.32771e-18
-1.32875e-18
-1.33824e-18
-1.33482e-18
-1.34563e-18
-1.3388e-18
-1.35076e-18
-1.34299e-18
-1.35207e-18
-1.34766e-18
-1.35264e-18
-1.34545e-18
-1.34795e-18
-1.34344e-18
-1.34693e-18
-1.34396e-18
-1.34855e-18
-1.34699e-18
-1.34948e-18
-1.34611e-18
-1.34594e-18
-1.33972e-18
-1.33777e-18
-1.33234e-18
-1.33462e-18
-1.33181e-18
-1.33586e-18
-1.33257e-18
-1.33838e-18
-1.33908e-18
-1.34395e-18
-1.34686e-18
-1.34734e-18
-1.35039e-18
-1.35236e-18
-1.35067e-18
-1.3573e-18
-1.35501e-18
-1.36575e-18
-1.31259e-18
-1.3138e-18
-1.31396e-18
-1.31374e-18
-1.31742e-18
-1.31344e-18
-1.32077e-18
-1.31998e-18
-1.32769e-18
-1.32895e-18
-1.33807e-18
-1.33456e-18
-1.34558e-18
-1.33873e-18
-1.35122e-18
-1.34314e-18
-1.35232e-18
-1.34763e-18
-1.35255e-18
-1.34524e-18
-1.3479e-18
-1.34346e-18
-1.34678e-18
-1.34403e-18
-1.34857e-18
-1.34707e-18
-1.34951e-18
-1.34618e-18
-1.34577e-18
-1.33974e-18
-1.33778e-18
-1.3324e-18
-1.33475e-18
-1.33158e-18
-1.33571e-18
-1.33211e-18
-1.33845e-18
-1.33928e-18
-1.34452e-18
-1.34686e-18
-1.34752e-18
-1.35056e-18
-1.3524e-18
-1.35048e-18
-1.35794e-18
-1.35515e-18
-1.3658e-18
-1.31292e-18
-1.3139e-18
-1.31372e-18
-1.314e-18
-1.31739e-18
-1.3136e-18
-1.32073e-18
-1.31972e-18
-1.32808e-18
-1.32938e-18
-1.33805e-18
-1.3347e-18
-1.34544e-18
-1.33882e-18
-1.35106e-18
-1.34362e-18
-1.35217e-18
-1.3478e-18
-1.35258e-18
-1.34507e-18
-1.34814e-18
-1.34326e-18
-1.34682e-18
-1.344e-18
-1.34867e-18
-1.34715e-18
-1.34957e-18
-1.3462e-18
-1.34584e-18
-1.33986e-18
-1.33768e-18
-1.33245e-18
-1.33458e-18
-1.33173e-18
-1.33535e-18
-1.33244e-18
-1.33824e-18
-1.33924e-18
-1.34442e-18
-1.34664e-18
-1.34756e-18
-1.35017e-18
-1.35273e-18
-1.35064e-18
-1.35779e-18
-1.35527e-18
-1.36536e-18
-1.31271e-18
-1.3136e-18
-1.31353e-18
-1.31358e-18
-1.31775e-18
-1.3142e-18
-1.32088e-18
-1.3199e-18
-1.32807e-18
-1.32886e-18
-1.33798e-18
-1.3349e-18
-1.34564e-18
-1.3386e-18
-1.35082e-18
-1.34328e-18
-1.35221e-18
-1.34766e-18
-1.35249e-18
-1.34526e-18
-1.34814e-18
-1.34331e-18
-1.34696e-18
-1.34402e-18
-1.3487e-18
-1.34707e-18
-1.34961e-18
-1.34608e-18
-1.34577e-18
-1.33986e-18
-1.33763e-18
-1.33267e-18
-1.33445e-18
-1.33159e-18
-1.33587e-18
-1.33266e-18
-1.33834e-18
-1.3393e-18
-1.34425e-18
-1.34675e-18
-1.34782e-18
-1.35002e-18
-1.35263e-18
-1.35079e-18
-1.35722e-18
-1.3551e-18
-1.36572e-18
-1.31286e-18
-1.31346e-18
-1.3137e-18
-1.3138e-18
-1.31791e-18
-1.31418e-18
-1.32089e-18
-1.3204e-18
-1.32792e-18
-1.32893e-18
-1.33796e-18
-1.33493e-18
-1.34572e-18
-1.33857e-18
-1.35086e-18
-1.34302e-18
-1.35213e-18
-1.34752e-18
-1.35243e-18
-1.34549e-18
-1.3482e-18
-1.3433e-18
-1.34693e-18
-1.34411e-18
-1.34865e-18
-1.34703e-18
-1.34951e-18
-1.34608e-18
-1.34593e-18
-1.33973e-18
-1.33759e-18
-1.33272e-18
-1.33471e-18
-1.33159e-18
-1.33607e-18
-1.33258e-18
-1.33851e-18
-1.33939e-18
-1.34405e-18
-1.34676e-18
-1.34767e-18
-1.35009e-18
-1.35238e-18
-1.35056e-18
-1.35724e-18
-1.35497e-18
-1.36552e-18
-1.31303e-18
-1.31386e-18
-1.31383e-18
-1.31405e-18
-1.31767e-18
-1.314e-18
-1.32104e-18
-1.32011e-18
-1.32767e-18
-1.32886e-18
-1.33798e-18
-1.33477e-18
-1.34563e-18
-1.33872e-18
-1.35079e-18
-1.34352e-18
-1.35213e-18
-1.34738e-18
-1.35234e-18
-1.34557e-18
-1.34803e-18
-1.3434e-18
-1.34693e-18
-1.34413e-18
-1.34857e-18
-1.34701e-18
-1.34945e-18
-1.34611e-18
-1.34596e-18
-1.3398e-18
-1.33756e-18
-1.33278e-18
-1.33488e-18
-1.33166e-18
-1.33546e-18
-1.33258e-18
-1.33843e-18
-1.33924e-18
-1.34438e-18
-1.34676e-18
-1.34752e-18
-1.35037e-18
-1.35272e-18
-1.3503e-18
-1.35736e-18
-1.355e-18
-1.36529e-18
-1.36485e-18
-1.31298e-18
-1.31378e-18
-1.31366e-18
-1.31379e-18
-1.31775e-18
-1.31399e-18
-1.321e-18
-1.32017e-18
-1.3275e-18
-1.32855e-18
-1.338e-18
-1.3347e-18
-1.34535e-18
-1.33876e-18
-1.35084e-18
-1.34338e-18
-1.35235e-18
-1.34744e-18
-1.35232e-18
-1.34532e-18
-1.34802e-18
-1.34341e-18
-1.34699e-18
-1.34409e-18
-1.34856e-18
-1.347e-18
-1.34943e-18
-1.34606e-18
-1.34587e-18
-1.33994e-18
-1.33781e-18
-1.33281e-18
-1.33488e-18
-1.3315e-18
-1.33542e-18
-1.33243e-18
-1.33835e-18
-1.33939e-18
-1.34439e-18
-1.34656e-18
-1.34776e-18
-1.35064e-18
-1.35268e-18
-1.35033e-18
-1.35749e-18
-1.35461e-18
-1.36553e-18
-1.36515e-18
-1.31273e-18
-1.31377e-18
-1.31385e-18
-1.31364e-18
-1.31754e-18
-1.31381e-18
-1.32089e-18
-1.32016e-18
-1.32779e-18
-1.32877e-18
-1.33782e-18
-1.33468e-18
-1.34527e-18
-1.33874e-18
-1.351e-18
-1.34333e-18
-1.35232e-18
-1.34742e-18
-1.35235e-18
-1.34536e-18
-1.34816e-18
-1.34348e-18
-1.34704e-18
-1.34401e-18
-1.34861e-18
-1.34701e-18
-1.34944e-18
-1.34599e-18
-1.34578e-18
-1.33986e-18
-1.33777e-18
-1.33279e-18
-1.33492e-18
-1.3317e-18
-1.33562e-18
-1.33246e-18
-1.33829e-18
-1.33931e-18
-1.34435e-18
-1.34663e-18
-1.34756e-18
-1.35029e-18
-1.35275e-18
-1.35045e-18
-1.35774e-18
-1.3549e-18
-1.36558e-18
-1.36486e-18
-1.31315e-18
-1.31394e-18
-1.31364e-18
-1.31364e-18
-1.31764e-18
-1.31379e-18
-1.3208e-18
-1.32001e-18
-1.32791e-18
-1.32878e-18
-1.33798e-18
-1.33476e-18
-1.34536e-18
-1.33873e-18
-1.35089e-18
-1.34333e-18
-1.35223e-18
-1.34738e-18
-1.35245e-18
-1.34547e-18
-1.34822e-18
-1.34347e-18
-1.34702e-18
-1.34407e-18
-1.34862e-18
-1.34701e-18
-1.34943e-18
-1.34605e-18
-1.34583e-18
-1.33982e-18
-1.33767e-18
-1.33271e-18
-1.33493e-18
-1.33179e-18
-1.33564e-18
-1.33256e-18
-1.33837e-18
-1.33935e-18
-1.34422e-18
-1.34658e-18
-1.3477e-18
-1.35013e-18
-1.35287e-18
-1.35057e-18
-1.35774e-18
-1.35502e-18
-1.36546e-18
-1.36505e-18
-1.31321e-18
-1.31397e-18
-1.31363e-18
-1.31379e-18
-1.31786e-18
-1.31394e-18
-1.32083e-18
-1.31997e-18
-1.3279e-18
-1.32871e-18
-1.33785e-18
-1.33471e-18
-1.34547e-18
-1.33879e-18
-1.35087e-18
-1.34327e-18
-1.35235e-18
-1.34738e-18
-1.35246e-18
-1.34549e-18
-1.34815e-18
-1.3434e-18
-1.34694e-18
-1.34406e-18
-1.34862e-18
-1.34701e-18
-1.34942e-18
-1.3461e-18
-1.3459e-18
-1.3399e-18
-1.33766e-18
-1.33271e-18
-1.33489e-18
-1.33171e-18
-1.33575e-18
-1.33254e-18
-1.3384e-18
-1.33924e-18
-1.34422e-18
-1.34665e-18
-1.34774e-18
-1.34997e-18
-1.35289e-18
-1.3506e-18
-1.35762e-18
-1.35479e-18
-1.36543e-18
-1.36501e-18
-1.31309e-18
-1.31401e-18
-1.31379e-18
-1.31382e-18
-1.31764e-18
-1.31404e-18
-1.32092e-18
-1.3201e-18
-1.32781e-18
-1.32877e-18
-1.33791e-18
-1.33465e-18
-1.34542e-18
-1.33876e-18
-1.35096e-18
-1.34336e-18
-1.35229e-18
-1.34748e-18
-1.35245e-18
-1.34549e-18
-1.34811e-18
-1.34338e-18
-1.34695e-18
-1.34401e-18
-1.34861e-18
-1.34701e-18
-1.34939e-18
-1.34608e-18
-1.34591e-18
-1.33996e-18
-1.33767e-18
-1.33273e-18
-1.33484e-18
-1.33169e-18
-1.3357e-18
-1.33245e-18
-1.33839e-18
-1.33934e-18
-1.34433e-18
-1.34653e-18
-1.34766e-18
-1.35011e-18
-1.35284e-18
-1.35047e-18
-1.35752e-18
-1.35498e-18
-1.36545e-18
-1.36484e-18
-1.31295e-18
-1.31388e-18
-1.31387e-18
-1.31388e-18
-1.31756e-18
-1.3139e-18
-1.32091e-18
-1.3201e-18
-1.32782e-18
-1.3288e-18
-1.3379e-18
-1.33466e-18
-1.34533e-18
-1.33874e-18
-1.35098e-18
-1.34331e-18
-1.35222e-18
-1.3475e-18
-1.35243e-18
-1.34548e-18
-1.34811e-18
-1.34342e-18
-1.347e-18
-1.34401e-18
-1.34861e-18
-1.347e-18
-1.3494e-18
-1.34605e-18
-1.34587e-18
-1.33997e-18
-1.33768e-18
-1.33275e-18
-1.33485e-18
-1.33172e-18
-1.33577e-18
-1.33247e-18
-1.33836e-18
-1.33939e-18
-1.34432e-18
-1.34652e-18
-1.34763e-18
-1.35014e-18
-1.3528e-18
-1.35046e-18
-1.35768e-18
-1.355e-18
-1.36538e-18
-1.36482e-18
-1.31301e-18
-1.31389e-18
-1.31379e-18
-1.3139e-18
-1.31759e-18
-1.31391e-18
-1.32086e-18
-1.32009e-18
-1.32783e-18
-1.3288e-18
-1.33789e-18
-1.33469e-18
-1.34535e-18
-1.33872e-18
-1.35098e-18
-1.34332e-18
-1.35217e-18
-1.34743e-18
-1.35242e-18
-1.34547e-18
-1.34811e-18
-1.34342e-18
-1.34702e-18
-1.34402e-18
-1.34861e-18
-1.34699e-18
-1.34941e-18
-1.34605e-18
-1.34587e-18
-1.33995e-18
-1.33767e-18
-1.33278e-18
-1.33491e-18
-1.33177e-18
-1.33576e-18
-1.33246e-18
-1.33839e-18
-1.33934e-18
-1.34427e-18
-1.34651e-18
-1.34761e-18
-1.35014e-18
-1.35281e-18
-1.35051e-18
-1.35768e-18
-1.35497e-18
-1.36534e-18
-1.36495e-18
-1.31857e-18
-1.31299e-18
-1.31412e-18
-1.31924e-18
-1.31604e-18
-1.31601e-18
-1.3167e-18
-1.31824e-18
-1.31902e-18
-1.31768e-18
-1.3197e-18
-1.31433e-18
-1.31365e-18
-1.31558e-18
-1.31551e-18
-1.31642e-18
-1.31681e-18
-1.31664e-18
-1.3162e-18
-1.31682e-18
-1.31767e-18
-1.31794e-18