/*--------------------------------*- C++ -*----------------------------------*\
  =========                 |
  \\      /  F ield         | OpenFOAM: The Open Source CFD Toolbox
   \\    /   O peration     | Website:  https://openfoam.org
    \\  /    A nd           | Version:  7
     \\/     M anipulation  |
\*---------------------------------------------------------------------------*/
FoamFile
{
    version     2.0;
    format      ascii;
    class       volVectorField;
    location    "240000";
    object      U;
}
// * * * * * * * * * * * * * * * * * * * * * * * * * * * * * * * * * * * * * //

dimensions      [0 1 -1 0 0 0 0];

internalField   nonuniform List<vector> 
4825
(
(-2.24955e-18 -4.47931e-19 -0.0125152)
(-1.57695e-18 -1.26822e-18 -0.012537)
(-2.38958e-18 -4.1266e-19 -0.0124618)
(-1.56202e-18 -1.34876e-18 -0.0124836)
(-2.3031e-18 -5.35619e-19 -0.0125049)
(-1.44432e-18 -1.029e-19 -0.0125257)
(-1.38162e-18 -9.10736e-19 -0.0125458)
(-2.56746e-18 -2.50838e-19 -0.012408)
(-1.73593e-18 -1.21252e-18 -0.0124298)
(-2.27469e-18 -5.36914e-19 -0.0124512)
(-1.62631e-18 8.18849e-21 -0.012472)
(-1.36058e-18 -9.75297e-19 -0.0124922)
(-2.72547e-18 -3.85297e-20 -0.0123537)
(-1.89346e-18 -1.13012e-18 -0.0123756)
(-2.38755e-18 -3.66893e-19 -0.012397)
(-1.73723e-18 4.62456e-20 -0.0124179)
(-1.49319e-18 -8.43929e-19 -0.0124381)
(-2.75743e-18 2.24151e-20 -0.0122989)
(-1.85894e-18 -1.25593e-18 -0.0123209)
(-2.48544e-18 -2.24661e-19 -0.0123424)
(-1.79267e-18 -2.38162e-20 -0.0123633)
(-1.57203e-18 -7.44275e-19 -0.0123835)
(-2.43763e-18 -3.68394e-19 -0.0122437)
(-1.69628e-18 -1.54281e-18 -0.0122657)
(-2.35007e-18 -3.5684e-19 -0.0122873)
(-1.76343e-18 -1.92334e-19 -0.0123082)
(-1.54391e-18 -7.59673e-19 -0.0123285)
(-2.13939e-18 -7.81841e-19 -0.012188)
(-1.56074e-18 -1.73513e-18 -0.0122101)
(-2.1751e-18 -5.30258e-19 -0.0122317)
(-1.51906e-18 -6.44911e-19 -0.0122527)
(-1.41252e-18 -8.91443e-19 -0.0122731)
(-2.20487e-18 -7.68054e-19 -0.0121318)
(-1.62016e-18 -1.70669e-18 -0.0121539)
(-2.12664e-18 -6.02072e-19 -0.0121756)
(-1.3954e-18 -9.3532e-19 -0.0121967)
(-1.25655e-18 -1.01681e-18 -0.0122171)
(-2.35247e-18 -6.02773e-19 -0.012075)
(-1.96218e-18 -1.35193e-18 -0.0120973)
(-2.11394e-18 -6.3742e-19 -0.012119)
(-1.57493e-18 -8.3825e-19 -0.0121401)
(-1.19685e-18 -1.05214e-18 -0.0121606)
(-2.31175e-18 -5.76595e-19 -0.0120177)
(-2.44074e-18 -8.67908e-19 -0.01204)
(-2.11068e-18 -7.07188e-19 -0.0120618)
(-1.83616e-18 -6.18411e-19 -0.012083)
(-1.21799e-18 -1.00906e-18 -0.0121036)
(-2.00359e-18 -8.22231e-19 -0.0119598)
(-2.77977e-18 -5.2615e-19 -0.0119822)
(-2.21789e-18 -6.54083e-19 -0.0120041)
(-2.09637e-18 -3.99002e-19 -0.0120254)
(-1.22018e-18 -9.30691e-19 -0.012046)
(-1.65016e-18 -1.10993e-18 -0.0119013)
(-2.84595e-18 -4.49121e-19 -0.0119238)
(-2.32953e-18 -6.06838e-19 -0.0119458)
(-2.26666e-18 -3.14654e-19 -0.0119671)
(-1.20472e-18 -8.82733e-19 -0.0119878)
(-1.5374e-18 -1.15397e-18 -0.0118422)
(-2.69473e-18 -5.97015e-19 -0.0118648)
(-2.27845e-18 -7.44534e-19 -0.0118869)
(-2.36597e-18 -3.33117e-19 -0.0119083)
(-1.19376e-18 -8.51668e-19 -0.0119291)
(-1.51604e-18 -1.13086e-18 -0.0117826)
(-2.5087e-18 -8.24329e-19 -0.0118052)
(-2.14702e-18 -9.63197e-19 -0.0118273)
(-2.42391e-18 -3.80413e-19 -0.0118488)
(-1.38117e-18 -1.2807e-18 -0.0117222)
(-2.39808e-18 -9.65208e-19 -0.011745)
(-2.03174e-18 -1.13573e-18 -0.0117672)
(-2.59688e-18 -2.51895e-19 -0.0117887)
(-1.30028e-18 -1.37981e-18 -0.0116613)
(-2.54363e-18 -8.00125e-19 -0.0116841)
(-2.00112e-18 -1.16479e-18 -0.0117063)
(-2.84701e-18 1.2241e-20 -0.011728)
(-1.28566e-18 -1.37229e-18 -0.0115996)
(-2.7456e-18 -5.57275e-19 -0.0116225)
(-2.0178e-18 -1.14894e-18 -0.0116449)
(-1.2683e-18 -1.37331e-18 -0.0115373)
(-2.80192e-18 -4.91297e-19 -0.0115603)
(-1.93047e-18 -1.25493e-18 -0.0115827)
(-1.32577e-18 -1.3057e-18 -0.0114743)
(-2.81486e-18 -4.88642e-19 -0.0114973)
(-1.41299e-18 -1.16888e-18 -0.0114105)
(-2.86418e-18 -4.8388e-19 -0.0114336)
(-1.38476e-18 -1.12697e-18 -0.0113459)
(-2.90189e-18 -4.99297e-19 -0.0113691)
(-1.38614e-18 -1.07219e-18 -0.0112806)
(-2.84893e-18 -6.14457e-19 -0.0113039)
(-1.61798e-18 -7.85283e-19 -0.0112144)
(-2.79116e-18 -7.58139e-19 -0.0112378)
(-1.81811e-18 -5.25005e-19 -0.0111474)
(-9.82366e-20 1.81808e-19 -0.0132705)
(-5.59597e-19 3.32185e-19 -0.0132917)
(-3.09086e-19 6.62205e-19 -0.0133123)
(-1.29212e-18 8.32552e-19 -0.0133324)
(-1.36719e-18 4.65455e-19 -0.0133518)
(-5.8036e-19 9.34038e-19 -0.0133705)
(-1.12116e-18 8.85607e-19 -0.0133886)
(-4.88603e-19 8.07606e-19 -0.0134059)
(-1.26397e-18 7.52365e-19 -0.0134225)
(-5.4318e-19 1.06966e-18 -0.0134382)
(-1.08882e-18 7.99297e-19 -0.0134531)
(-8.30999e-19 6.42265e-19 -0.0134671)
(-4.36134e-19 -1.79653e-19 -0.0134803)
(-8.68555e-19 -2.34692e-19 -0.0134925)
(-1.67464e-18 1.54476e-20 -0.0135037)
(-1.73267e-18 9.02816e-19 -0.013514)
(-1.16008e-18 1.45316e-18 -0.0135234)
(-5.93803e-19 1.5516e-18 -0.0135317)
(-3.15858e-19 8.70214e-19 -0.013539)
(-1.26296e-19 6.02493e-19 -0.0135453)
(2.15299e-20 3.55415e-19 -0.0132226)
(-7.00423e-19 2.13591e-19 -0.0132438)
(-1.99003e-19 7.65322e-19 -0.0132645)
(-1.44063e-18 8.28325e-19 -0.0132846)
(-8.93492e-19 7.07219e-19 -0.013304)
(-5.2676e-19 9.414e-19 -0.0133228)
(-1.01641e-18 9.55657e-19 -0.0133409)
(-5.62557e-19 8.18443e-19 -0.0133583)
(-1.48898e-18 6.45311e-19 -0.0133749)
(-5.09269e-19 1.05049e-18 -0.0133907)
(-8.35518e-19 9.48819e-19 -0.0134056)
(-4.58358e-19 7.71839e-19 -0.0134197)
(-4.35798e-20 2.51267e-20 -0.0134328)
(-9.91691e-19 -1.42949e-19 -0.0134451)
(-1.67878e-18 9.54658e-20 -0.0134564)
(-2.18907e-18 7.45119e-19 -0.0134667)
(-1.16297e-18 1.31745e-18 -0.013476)
(-4.37666e-19 1.54206e-18 -0.0134844)
(-3.46189e-19 8.86164e-19 -0.0134917)
(-1.74962e-19 5.61303e-19 -0.013498)
(-5.58901e-20 3.67813e-19 -0.0131743)
(-6.54809e-19 2.19925e-19 -0.0131956)
(-5.22248e-20 8.6908e-19 -0.0132163)
(-1.27662e-18 9.95204e-19 -0.0132364)
(-4.91754e-19 8.91892e-19 -0.0132559)
(-3.71012e-19 1.06537e-18 -0.0132748)
(-7.71404e-19 1.13354e-18 -0.0132929)
(-6.15165e-19 8.86862e-19 -0.0133103)
(-1.71811e-18 5.31275e-19 -0.013327)
(-4.7061e-19 1.00855e-18 -0.0133428)
(-8.78075e-19 9.46579e-19 -0.0133578)
(-4.71753e-19 7.50368e-19 -0.0133719)
(-3.21558e-19 1.3677e-20 -0.0133851)
(-1.13018e-18 -5.25565e-20 -0.0133973)
(-1.68728e-18 1.91355e-19 -0.0134087)
(-2.18835e-18 6.86969e-19 -0.013419)
(-8.88166e-19 1.23612e-18 -0.0134284)
(-3.86413e-19 1.5226e-18 -0.0134367)
(-1.32401e-19 9.3379e-19 -0.0134441)
(-1.28973e-19 5.23542e-19 -0.0134504)
(-8.20217e-20 4.17733e-19 -0.0131257)
(-3.77628e-19 3.76359e-19 -0.013147)
(7.113e-20 9.39035e-19 -0.0131678)
(-1.01492e-18 1.21997e-18 -0.013188)
(-4.3404e-19 8.6321e-19 -0.0132075)
(-2.00406e-19 1.17123e-18 -0.0132264)
(-5.0731e-19 1.33477e-18 -0.0132446)
(-5.46399e-19 1.08419e-18 -0.0132621)
(-1.80875e-18 4.87582e-19 -0.0132787)
(-4.66674e-19 9.3288e-19 -0.0132946)
(-1.10325e-18 8.95541e-19 -0.0133096)
(-7.02194e-19 6.82581e-19 -0.0133237)
(-6.55263e-19 -3.54528e-20 -0.013337)
(-1.16818e-18 1.54281e-20 -0.0133493)
(-1.52804e-18 3.0757e-19 -0.0133606)
(-1.94014e-18 6.82097e-19 -0.013371)
(-6.30574e-19 1.15573e-18 -0.0133804)
(-2.39762e-19 1.51729e-18 -0.0133888)
(5.4557e-20 9.91707e-19 -0.0133962)
(-1.12204e-19 4.65473e-19 -0.0134025)
(1.41727e-19 6.1813e-19 -0.0130768)
(-2.26289e-19 4.33086e-19 -0.0130982)
(2.42705e-19 1.04735e-18 -0.013119)
(-8.94763e-19 1.37012e-18 -0.0131392)
(-5.19695e-19 7.4763e-19 -0.0131588)
(-5.40152e-21 1.25599e-18 -0.0131777)
(-4.56763e-19 1.40352e-18 -0.013196)
(-5.50183e-19 1.26119e-18 -0.0132135)
(-1.62249e-18 6.17385e-19 -0.0132302)
(-4.1401e-19 9.16481e-19 -0.0132461)
(-1.4123e-18 8.15187e-19 -0.0132611)
(-8.35875e-19 6.32252e-19 -0.0132753)
(-8.17898e-19 -4.78978e-20 -0.0132885)
(-1.44079e-18 -3.396e-20 -0.0133009)
(-1.46533e-18 3.77588e-19 -0.0133122)
(-1.69245e-18 6.82554e-19 -0.0133227)
(-6.11857e-19 1.03027e-18 -0.0133321)
(-2.34648e-19 1.49361e-18 -0.0133405)
(1.01946e-19 1.03379e-18 -0.0133479)
(-2.19783e-19 3.93561e-19 -0.0133542)
(3.69857e-19 8.16969e-19 -0.0130276)
(-3.07823e-19 3.19491e-19 -0.013049)
(3.17273e-19 1.06778e-18 -0.0130698)
(-7.49123e-19 1.57643e-18 -0.0130901)
(-6.5065e-19 5.84169e-19 -0.0131097)
(1.25388e-19 1.29204e-18 -0.0131287)
(-9.23445e-19 1.19909e-18 -0.013147)
(-6.60472e-19 1.3337e-18 -0.0131645)
(-1.31505e-18 7.83716e-19 -0.0131813)
(-2.38156e-19 1.01706e-18 -0.0131972)
(-1.4977e-18 8.57731e-19 -0.0132123)
(-1.0013e-18 5.61701e-19 -0.0132265)
(-9.70872e-19 -1.02876e-20 -0.0132398)
(-1.76205e-18 -1.05273e-19 -0.0132521)
(-1.59381e-18 3.13552e-19 -0.0132635)
(-1.5123e-18 6.75552e-19 -0.013274)
(-5.24422e-19 9.51551e-19 -0.0132834)
(-4.1247e-19 1.4073e-18 -0.0132918)
(-5.139e-20 1.05006e-18 -0.0132993)
(-3.4169e-19 3.31967e-19 -0.0133056)
(5.9452e-19 1.03139e-18 -0.012978)
(-3.40632e-19 2.71797e-19 -0.0129994)
(1.47866e-19 8.42643e-19 -0.0130203)
(-7.66484e-19 1.67886e-18 -0.0130406)
(-7.30031e-19 4.87841e-19 -0.0130603)
(9.50428e-20 1.29096e-18 -0.0130793)
(-1.61278e-18 8.69637e-19 -0.0130976)
(-6.4292e-19 1.36568e-18 -0.0131152)
(-1.14146e-18 8.5897e-19 -0.013132)
(8.54047e-20 1.20007e-18 -0.013148)
(-1.53342e-18 9.64706e-19 -0.0131631)
(-1.13705e-18 5.20678e-19 -0.0131773)
(-9.64978e-19 6.31665e-20 -0.0131907)
(-1.79031e-18 -7.04835e-20 -0.0132031)
(-1.50325e-18 3.03838e-19 -0.0132145)
(-1.38346e-18 6.09764e-19 -0.0132249)
(-9.08394e-20 9.93228e-19 -0.0132344)
(-4.96051e-19 1.40151e-18 -0.0132429)
(-1.48675e-19 1.05598e-18 -0.0132503)
(-2.69703e-19 3.01145e-19 -0.0132567)
(4.94965e-19 9.51213e-19 -0.012928)
(-3.43035e-19 3.32658e-19 -0.0129495)
(-1.89466e-19 5.28588e-19 -0.0129704)
(-8.3499e-19 1.70189e-18 -0.0129908)
(-7.69732e-19 3.9447e-19 -0.0130105)
(-2.0795e-19 1.17393e-18 -0.0130296)
(-2.20739e-18 5.79248e-19 -0.013048)
(-5.7443e-19 1.36272e-18 -0.0130656)
(-1.23371e-18 7.60695e-19 -0.0130824)
(3.75071e-19 1.38421e-18 -0.0130984)
(-1.65116e-18 1.08274e-18 -0.0131136)
(-9.89546e-19 5.71069e-19 -0.0131278)
(-1.21309e-18 3.98394e-20 -0.0131412)
(-1.55275e-18 3.84709e-20 -0.0131536)
(-1.13817e-18 3.70094e-19 -0.0131651)
(-1.26713e-18 5.27964e-19 -0.0131756)
(1.75689e-19 9.94007e-19 -0.0131851)
(-4.1179e-19 1.46229e-18 -0.0131935)
(-2.80179e-21 1.10393e-18 -0.013201)
(-2.84428e-19 2.93882e-19 -0.0132074)
(-1.00081e-19 1.22339e-18 -0.0132127)
(-2.54104e-19 1.02847e-18 -0.013217)
(-5.40973e-20 5.59992e-19 -0.0132202)
(3.4801e-19 1.06726e-18 -0.0132224)
(7.76075e-19 4.65535e-19 -0.0132235)
(2.65008e-19 -3.94276e-19 -0.0132235)
(-6.45777e-20 4.99606e-19 -0.0132224)
(3.93264e-19 -3.94605e-19 -0.0132202)
(2.49373e-19 -5.48727e-19 -0.013217)
(4.59133e-19 -5.28041e-19 -0.0132127)
(1.08233e-19 -1.17799e-19 -0.0132074)
(2.60672e-19 1.19653e-19 -0.013201)
(-2.94696e-19 -7.60312e-19 -0.0131935)
(-7.76298e-19 -7.8453e-20 -0.0131851)
(-5.11413e-19 3.95126e-19 -0.0131756)
(1.50101e-20 5.5486e-19 -0.0128778)
(-2.23386e-19 4.70402e-19 -0.0128993)
(-5.01278e-19 2.07653e-19 -0.0129202)
(-7.49129e-19 1.80653e-18 -0.0129406)
(-1.00511e-18 2.40057e-19 -0.0129604)
(-6.66932e-19 1.00836e-18 -0.0129795)
(-2.40479e-18 4.71309e-19 -0.0129979)
(-3.80765e-19 1.39626e-18 -0.0130156)
(-1.29887e-18 6.64121e-19 -0.0130325)
(2.66772e-19 1.34948e-18 -0.0130485)
(-1.75398e-18 1.19255e-18 -0.0130637)
(-5.57204e-19 7.87497e-19 -0.013078)
(-1.57602e-18 -4.49401e-20 -0.0130914)
(-1.21328e-18 9.60305e-20 -0.0131038)
(-8.38662e-19 4.51643e-19 -0.0131153)
(-9.89103e-19 5.23965e-19 -0.0131258)
(-1.87334e-19 8.40333e-19 -0.0131353)
(-3.65668e-19 1.50433e-18 -0.0131438)
(2.57219e-19 1.19556e-18 -0.0131513)
(-3.68299e-19 3.09685e-19 -0.0131577)
(-2.19199e-19 1.2064e-18 -0.0131631)
(-2.68715e-19 1.02272e-18 -0.0131674)
(6.91588e-20 5.19506e-19 -0.0131706)
(4.46551e-19 1.02749e-18 -0.0131728)
(8.46271e-19 4.86611e-19 -0.0131738)
(2.38764e-19 -3.10885e-19 -0.0131738)
(-2.87495e-19 4.80529e-19 -0.0131728)
(7.15767e-19 -4.63865e-19 -0.0131706)
(9.59777e-20 -5.23347e-19 -0.0131674)
(2.65053e-19 -5.00815e-19 -0.0131631)
(-2.65257e-20 -7.36621e-20 -0.0131577)
(2.8889e-19 1.20969e-19 -0.0131513)
(-1.13725e-19 -7.48336e-19 -0.0131438)
(-7.70172e-19 -4.58153e-20 -0.0131353)
(-3.06649e-19 3.55696e-19 -0.0131258)
(-5.00739e-19 3.20967e-20 -0.0131153)
(1.00509e-19 -6.62101e-19 -0.0131038)
(-3.99811e-19 1.9245e-19 -0.0128271)
(-1.89786e-19 5.2474e-19 -0.0128487)
(-8.33361e-19 -9.72373e-20 -0.0128697)
(-7.98056e-19 1.81135e-18 -0.0128901)
(-1.25783e-18 1.11063e-19 -0.0129099)
(-8.7091e-19 9.44879e-19 -0.0129291)
(-1.84422e-18 7.44615e-19 -0.0129475)
(-2.04069e-19 1.43156e-18 -0.0129652)
(-1.13796e-18 7.45121e-19 -0.0129821)
(-7.17173e-20 1.22425e-18 -0.0129982)
(-1.78517e-18 1.2488e-18 -0.0130135)
(-1.73098e-19 9.8455e-19 -0.0130278)
(-1.7548e-18 -2.11176e-20 -0.0130412)
(-1.01939e-18 7.56525e-20 -0.0130537)
(-8.64314e-19 4.07872e-19 -0.0130652)
(-7.55236e-19 5.91818e-19 -0.0130757)
(-5.74939e-19 7.15477e-19 -0.0130853)
(-4.30488e-19 1.42791e-18 -0.0130938)
(3.67966e-19 1.25921e-18 -0.0131013)
(-3.43234e-19 3.70729e-19 -0.0131077)
(-1.28948e-19 1.21282e-18 -0.0131131)
(-1.80609e-19 1.02866e-18 -0.0131174)
(1.3757e-19 4.82563e-19 -0.0131206)
(3.73298e-19 9.89593e-19 -0.0131228)
(6.85986e-19 5.09886e-19 -0.0131239)
(1.8263e-19 -2.40327e-19 -0.0131239)
(-2.20899e-19 4.25878e-19 -0.0131228)
(9.03712e-19 -5.26783e-19 -0.0131206)
(1.56105e-19 -4.91999e-19 -0.0131174)
(1.90406e-19 -4.83651e-19 -0.0131131)
(-1.904e-20 -8.81189e-20 -0.0131077)
(4.358e-19 8.17703e-20 -0.0131013)
(1.04729e-20 -6.94905e-19 -0.0130938)
(-9.20099e-19 4.52423e-20 -0.0130853)
(-1.9926e-19 3.1336e-19 -0.0130757)
(-2.38374e-19 -9.69319e-20 -0.0130652)
(1.03137e-19 -6.73893e-19 -0.0130537)
(-6.61608e-20 -3.14731e-19 -0.0130412)
(-5.607e-19 7.05437e-20 -0.0127761)
(-1.0351e-19 6.17385e-19 -0.0127977)
(-1.06588e-18 -3.43698e-19 -0.0128187)
(-8.61438e-19 1.77848e-18 -0.0128392)
(-9.48038e-19 3.51887e-19 -0.0128591)
(-6.70942e-19 1.03319e-18 -0.0128783)
(-1.13895e-18 1.10317e-18 -0.0128968)
(-3.90138e-19 1.33221e-18 -0.0129145)
(-8.75602e-19 9.04529e-19 -0.0129315)
(-2.35793e-19 1.1939e-18 -0.0129476)
(-1.55717e-18 1.37362e-18 -0.0129628)
(-4.83269e-20 1.09605e-18 -0.0129772)
(-1.76417e-18 6.83713e-20 -0.0129907)
(-8.61619e-19 4.90764e-20 -0.0130032)
(-1.18851e-18 2.82763e-19 -0.0130147)
(-1.05755e-18 4.88803e-19 -0.0130253)
(-6.18139e-19 6.95475e-19 -0.0130348)
(-5.27391e-19 1.35445e-18 -0.0130434)
(2.25985e-19 1.25804e-18 -0.0130508)
(-4.00141e-19 3.95868e-19 -0.0130573)
(-1.26691e-20 1.21625e-18 -0.0130627)
(-1.25336e-19 1.03518e-18 -0.013067)
(8.48896e-20 4.55399e-19 -0.0130703)
(3.2448e-19 9.7842e-19 -0.0130724)
(5.29109e-19 5.25736e-19 -0.0130735)
(2.40827e-19 -1.95157e-19 -0.0130735)
(-1.42176e-19 3.52178e-19 -0.0130724)
(1.06296e-18 -5.83769e-19 -0.0130703)
(2.08293e-19 -4.45323e-19 -0.013067)
(2.6176e-19 -4.84825e-19 -0.0130627)
(5.14736e-20 -1.16578e-19 -0.0130573)
(4.76282e-19 6.29837e-20 -0.0130508)
(2.22064e-20 -5.9443e-19 -0.0130434)
(-1.02846e-18 1.06477e-19 -0.0130348)
(1.49791e-20 1.98681e-19 -0.0130253)
(1.36155e-20 -1.96667e-19 -0.0130147)
(3.14476e-20 -6.60866e-19 -0.0130032)
(4.76513e-20 -3.61284e-19 -0.0129907)
(2.37038e-19 -1.48016e-19 -0.0129772)
(-2.95885e-19 7.08388e-19 -0.0129628)
(-5.25981e-19 8.27166e-20 -0.0127247)
(6.73687e-20 8.08359e-19 -0.0127463)
(-1.2459e-18 -5.0101e-19 -0.0127674)
(-9.31695e-19 1.63923e-18 -0.012788)
(-4.28855e-19 6.8952e-19 -0.0128079)
(-4.81831e-19 1.14275e-18 -0.0128271)
(-8.69743e-19 1.2793e-18 -0.0128456)
(-8.48439e-19 1.09999e-18 -0.0128634)
(-6.99271e-19 9.83186e-19 -0.0128804)
(-1.69876e-19 1.27065e-18 -0.0128966)
(-1.18528e-18 1.55625e-18 -0.0129119)
(-4.82992e-20 1.17111e-18 -0.0129263)
(-1.56632e-18 2.36401e-19 -0.0129397)
(-1.12733e-18 -7.40417e-20 -0.0129523)
(-1.34303e-18 2.70372e-19 -0.0129639)
(-1.30733e-18 3.76051e-19 -0.0129744)
(-6.63601e-19 6.26443e-19 -0.012984)
(-5.34497e-19 1.30554e-18 -0.0129926)
(3.09502e-20 1.25608e-18 -0.0130001)
(-4.97521e-19 3.96751e-19 -0.0130065)
(-8.87176e-20 1.18189e-18 -0.0130119)
(-7.18374e-20 1.06371e-18 -0.0130163)
(-2.71098e-20 4.20975e-19 -0.0130195)
(3.21114e-19 9.5849e-19 -0.0130217)
(4.16685e-19 5.31642e-19 -0.0130228)
(3.29214e-19 -1.66657e-19 -0.0130228)
(-3.62375e-20 2.74694e-19 -0.0130217)
(1.17521e-18 -6.38322e-19 -0.0130195)
(2.39105e-19 -3.96824e-19 -0.0130163)
(3.76729e-19 -4.97421e-19 -0.0130119)
(1.97801e-19 -1.51309e-19 -0.0130065)
(4.46071e-19 6.7591e-20 -0.0130001)
(6.06355e-20 -4.9682e-19 -0.0129926)
(-9.88756e-19 1.09532e-19 -0.012984)
(-9.97599e-20 1.53589e-19 -0.0129744)
(2.00921e-19 -2.52874e-19 -0.0129638)
(-1.79155e-20 -6.33031e-19 -0.0129523)
(1.08723e-19 -3.68578e-19 -0.0129397)
(9.03341e-20 -2.54954e-20 -0.0129263)
(3.24444e-20 6.39898e-19 -0.0129119)
(-3.74499e-19 -9.0034e-19 -0.0128966)
(-4.34186e-19 -6.12552e-19 -0.0128804)
(-4.90732e-19 1.03034e-19 -0.0126729)
(-4.17816e-20 7.92128e-19 -0.0126946)
(-1.21921e-18 -4.78819e-19 -0.0127157)
(-1.04924e-18 1.41754e-18 -0.0127363)
(-3.33977e-19 7.19959e-19 -0.0127563)
(-4.45395e-19 1.17431e-18 -0.0127756)
(-7.20927e-19 1.43616e-18 -0.0127941)
(-1.23094e-18 9.15836e-19 -0.0128119)
(-7.11249e-19 8.9976e-19 -0.012829)
(-1.78033e-19 1.27955e-18 -0.0128452)
(-7.01446e-19 1.80427e-18 -0.0128605)
(-2.49008e-19 1.17397e-18 -0.0128749)
(-1.45276e-18 4.21324e-19 -0.0128884)
(-1.5056e-18 -2.25854e-19 -0.012901)
(-1.19255e-18 2.91429e-19 -0.0129126)
(-1.0773e-18 4.10516e-19 -0.0129232)
(-6.64866e-19 5.79419e-19 -0.0129328)
(-4.5646e-19 1.2899e-18 -0.0129414)
(-2.13154e-19 1.24849e-18 -0.0129489)
(-4.76821e-19 4.15722e-19 -0.0129554)
(-2.71411e-19 1.12172e-18 -0.0129608)
(8.20979e-20 1.0858e-18 -0.0129651)
(-9.24684e-20 4.01404e-19 -0.0129684)
(3.29029e-19 9.49824e-19 -0.0129706)
(4.06366e-19 5.34761e-19 -0.0129717)
(3.05297e-19 -1.55858e-19 -0.0129717)
(9.58485e-20 1.90626e-19 -0.0129706)
(1.18191e-18 -6.73537e-19 -0.0129684)
(5.78012e-20 -3.26183e-19 -0.0129651)
(3.76994e-19 -5.08625e-19 -0.0129608)
(2.85867e-19 -1.59994e-19 -0.0129554)
(4.22117e-19 7.89508e-20 -0.0129489)
(7.87627e-20 -4.09941e-19 -0.0129414)
(-7.90579e-19 1.09991e-19 -0.0129328)
(-5.20789e-19 1.90891e-19 -0.0129232)
(1.54599e-19 -2.69389e-19 -0.0129126)
(-3.67173e-20 -6.23215e-19 -0.012901)
(-1.84917e-20 -3.0525e-19 -0.0128884)
(-4.05715e-20 8.06632e-20 -0.0128749)
(2.80498e-19 5.45357e-19 -0.0128605)
(2.64211e-19 -1.22268e-18 -0.0128452)
(-2.22275e-19 -6.93516e-19 -0.012829)
(-3.8059e-19 -1.22451e-18 -0.0128119)
(-8.13652e-19 -9.96428e-19 -0.0127941)
(-1.37428e-18 -1.0857e-18 -0.0127756)
(-4.02096e-19 1.82661e-19 -0.0126207)
(-8.26728e-20 8.12582e-19 -0.0126424)
(-9.11487e-19 -2.39138e-19 -0.0126636)
(-9.07895e-19 1.42054e-18 -0.0126843)
(-5.09729e-19 5.39091e-19 -0.0127043)
(-6.65287e-19 1.00258e-18 -0.0127236)
(-5.56619e-19 1.63317e-18 -0.0127422)
(-1.30771e-18 9.38804e-19 -0.0127601)
(-8.78659e-19 7.2936e-19 -0.0127771)
(-5.21118e-19 1.06515e-18 -0.0127934)
(-3.56129e-19 2.00326e-18 -0.0128087)
(-5.50208e-19 1.18086e-18 -0.0128232)
(-1.50604e-18 5.28812e-19 -0.0128367)
(-1.39842e-18 -2.17275e-19 -0.0128493)
(-1.09172e-18 2.59735e-19 -0.012861)
(-8.29225e-19 4.63744e-19 -0.0128716)
(-7.22332e-19 5.31948e-19 -0.0128812)
(-4.10883e-19 1.28654e-18 -0.0128898)
(-4.45162e-19 1.24826e-18 -0.0128973)
(-3.44322e-19 4.44756e-19 -0.0129038)
(-5.31344e-19 1.04232e-18 -0.0129093)
(2.3107e-19 1.10559e-18 -0.0129136)
(-3.61636e-19 3.77535e-19 -0.0129169)
(4.33357e-19 9.27967e-19 -0.0129191)
(5.07406e-19 5.48062e-19 -0.0129201)
(3.36489e-19 -1.49967e-19 -0.0129201)
(2.45602e-19 1.03309e-19 -0.0129191)
(9.45091e-19 -6.56331e-19 -0.0129169)
(-6.06834e-20 -2.6098e-19 -0.0129136)
(2.21981e-19 -5.27904e-19 -0.0129093)
(2.10079e-19 -1.53685e-19 -0.0129038)
(4.68294e-19 8.21422e-20 -0.0128973)
(9.29436e-21 -3.23822e-19 -0.0128898)
(-4.70007e-19 1.04157e-19 -0.0128812)
(-6.26434e-19 1.76303e-19 -0.0128716)
(-4.98901e-20 -2.65898e-19 -0.012861)
(-4.37771e-21 -6.11929e-19 -0.0128493)
(-2.68538e-19 -1.7989e-19 -0.0128367)
(-2.40286e-19 1.61936e-19 -0.0128232)
(3.80047e-19 4.45185e-19 -0.0128087)
(6.36879e-19 -1.40581e-18 -0.0127934)
(-1.02485e-19 -7.17953e-19 -0.0127771)
(2.38828e-20 -1.43093e-18 -0.0127601)
(-6.78695e-19 -1.0169e-18 -0.0127422)
(-9.62473e-19 -1.26426e-18 -0.0127236)
(-2.01129e-18 -7.96928e-19 -0.0127043)
(-1.12381e-18 -1.09434e-18 -0.0126843)
(-3.23571e-19 2.23883e-19 -0.0125682)
(-6.68368e-21 8.98452e-19 -0.0125899)
(-6.36906e-19 -5.12757e-20 -0.0126112)
(-7.49871e-19 1.50333e-18 -0.0126318)
(-6.49722e-19 4.71756e-19 -0.0126519)
(-8.7302e-19 7.95837e-19 -0.0126712)
(-5.56303e-19 1.67146e-18 -0.0126899)
(-1.09189e-18 1.16416e-18 -0.0127078)
(-1.03463e-18 6.22456e-19 -0.0127249)
(-7.49335e-19 8.70189e-19 -0.0127412)
(-6.5763e-19 1.88113e-18 -0.0127566)
(-7.13289e-19 1.2619e-18 -0.0127711)
(-1.40384e-18 6.51622e-19 -0.0127847)
(-9.88528e-19 -1.12394e-19 -0.0127973)
(-1.08498e-18 2.11485e-19 -0.0128089)
(-7.00676e-19 4.93873e-19 -0.0128196)
(-7.48457e-19 5.10032e-19 -0.0128292)
(-5.9592e-19 1.23713e-18 -0.0128378)
(-3.61264e-19 1.29142e-18 -0.0128454)
(-2.34822e-19 4.82192e-19 -0.0128519)
(-5.80891e-19 9.96286e-19 -0.0128573)
(2.86892e-19 1.11867e-18 -0.0128617)
(-5.7461e-19 3.54611e-19 -0.012865)
(5.55582e-19 8.71464e-19 -0.0128671)
(6.52355e-19 5.64368e-19 -0.0128682)
(4.02786e-19 -1.49416e-19 -0.0128682)
(3.51236e-19 5.64916e-20 -0.0128671)
(7.48027e-19 -6.37877e-19 -0.012865)
(-9.32273e-20 -2.17373e-19 -0.0128617)
(-6.99201e-20 -5.08799e-19 -0.0128573)
(6.65343e-20 -1.53018e-19 -0.0128519)
(3.87555e-19 1.06166e-19 -0.0128454)
(2.37563e-20 -2.78006e-19 -0.0128378)
(-2.81218e-19 1.0867e-19 -0.0128292)
(-5.75192e-19 1.55759e-19 -0.0128196)
(-2.34096e-19 -2.59923e-19 -0.0128089)
(-6.28976e-20 -5.78185e-19 -0.0127973)
(-4.82019e-19 -5.1061e-20 -0.0127847)
(-3.90842e-19 2.07493e-19 -0.0127711)
(3.78532e-19 3.62415e-19 -0.0127566)
(6.017e-19 -1.39908e-18 -0.0127412)
(-2.82225e-19 -6.02882e-19 -0.0127249)
(1.87824e-19 -1.50264e-18 -0.0127078)
(-7.31983e-19 -9.29804e-19 -0.0126899)
(-4.88251e-19 -1.52293e-18 -0.0126712)
(-1.51855e-18 -1.16026e-18 -0.0126519)
(-9.22561e-19 -1.26267e-18 -0.0126318)
(-1.49831e-18 -4.25167e-19 -0.0126112)
(-1.87214e-18 1.45184e-20 -0.0125899)
(-2.66053e-18 -1.21519e-18 -0.0125682)
(-3.4339e-19 1.70395e-19 -0.0125152)
(1.57036e-20 9.27651e-19 -0.012537)
(-5.39462e-19 1.47004e-20 -0.0125583)
(-8.04617e-19 1.44315e-18 -0.012579)
(-3.97625e-19 6.56321e-19 -0.0125991)
(-9.59325e-19 6.78242e-19 -0.0126185)
(-7.05149e-19 1.59131e-18 -0.0126372)
(-9.84236e-19 1.32476e-18 -0.0126551)
(-8.50122e-19 7.2639e-19 -0.0126723)
(-8.99939e-19 7.68735e-19 -0.0126886)
(-1.15121e-18 1.67715e-18 -0.012704)
(-7.48422e-19 1.30968e-18 -0.0127185)
(-1.07807e-18 8.20871e-19 -0.0127322)
(-6.36192e-19 9.97225e-22 -0.0127448)
(-1.22492e-18 1.46167e-19 -0.0127565)
(-7.2122e-19 4.75946e-19 -0.0127672)
(-5.54824e-19 5.73362e-19 -0.0127768)
(-7.52449e-19 1.17258e-18 -0.0127854)
(-1.43338e-19 1.334e-18 -0.012793)
(-2.54659e-19 5.06648e-19 -0.0127995)
(-5.76757e-19 9.59715e-19 -0.012805)
(2.00523e-20 1.11979e-18 -0.0128094)
(-5.82148e-19 3.41059e-19 -0.0128126)
(5.67873e-19 7.94498e-19 -0.0128148)
(7.64032e-19 5.85814e-19 -0.0128159)
(2.89009e-19 -1.36938e-19 -0.0128159)
(2.508e-19 1.58718e-20 -0.0128148)
(7.72938e-19 -6.21322e-19 -0.0128126)
(-2.30492e-19 -1.3625e-19 -0.0128094)
(-3.28211e-19 -4.99523e-19 -0.012805)
(-1.87619e-19 -1.47355e-19 -0.0127995)
(3.43278e-19 1.06056e-19 -0.012793)
(1.12757e-19 -2.67938e-19 -0.0127854)
(-2.52651e-19 1.67945e-19 -0.0127768)
(-2.91503e-19 8.40854e-20 -0.0127672)
(-6.67375e-20 -3.57129e-19 -0.0127565)
(-9.50854e-20 -5.35922e-19 -0.0127448)
(-6.43043e-19 5.20261e-20 -0.0127322)
(-3.58307e-19 1.47451e-19 -0.0127185)
(6.25116e-19 1.74862e-19 -0.012704)
(5.04544e-19 -1.32004e-18 -0.0126886)
(-4.75608e-19 -4.99872e-19 -0.0126723)
(6.78196e-20 -1.43649e-18 -0.0126551)
(-9.68598e-19 -7.82527e-19 -0.0126372)
(-1.12551e-19 -1.79111e-18 -0.0126185)
(-1.2593e-18 -1.31515e-18 -0.0125991)
(-1.19984e-18 -1.05505e-18 -0.012579)
(-1.28437e-18 -5.21659e-19 -0.0125583)
(-1.26569e-18 -4.66495e-19 -0.012537)
(-2.65414e-18 -1.25605e-18 -0.0125152)
(-4.0371e-19 8.42271e-20 -0.0124618)
(-3.45771e-20 8.83134e-19 -0.0124836)
(-3.53502e-19 1.53936e-19 -0.0125049)
(-8.63852e-19 1.33526e-18 -0.0125257)
(-4.50308e-20 9.3099e-19 -0.0125458)
(-1.0993e-18 5.87992e-19 -0.0125653)
(-7.04616e-19 1.58423e-18 -0.0125841)
(-1.01633e-18 1.35476e-18 -0.012602)
(-6.89933e-19 8.39449e-19 -0.0126192)
(-1.10189e-18 6.97508e-19 -0.0126356)
(-1.42843e-18 1.54045e-18 -0.012651)
(-8.33247e-19 1.28938e-18 -0.0126656)
(-6.79217e-19 9.98291e-19 -0.0126792)
(-3.84659e-19 1.24713e-19 -0.0126919)
(-1.47919e-18 7.21879e-20 -0.0127036)
(-1.05049e-18 3.27322e-19 -0.0127143)
(-5.08108e-19 5.90772e-19 -0.012724)
(-8.35749e-19 1.14215e-18 -0.0127326)
(-7.43318e-20 1.35285e-18 -0.0127402)
(-3.20704e-19 5.47824e-19 -0.0127468)
(-7.19013e-19 9.36505e-19 -0.0127522)
(-1.30828e-19 1.114e-18 -0.0127566)
(-5.53353e-19 2.9774e-19 -0.0127599)
(4.02487e-19 7.08528e-19 -0.0127621)
(7.92999e-19 6.18284e-19 -0.0127632)
(1.08182e-19 -1.03864e-19 -0.0127632)
(4.36027e-21 -3.73952e-20 -0.0127621)
(7.44513e-19 -6.09879e-19 -0.0127599)
(-3.35058e-19 -4.37963e-20 -0.0127566)
(-4.27806e-19 -4.91911e-19 -0.0127522)
(-5.02409e-19 -1.49554e-19 -0.0127468)
(3.83567e-19 5.99817e-20 -0.0127402)
(1.82232e-19 -2.44998e-19 -0.0127326)
(-2.17679e-19 1.82211e-19 -0.012724)
(2.81029e-19 -1.08468e-19 -0.0127143)
(3.33003e-19 -4.88349e-19 -0.0127036)
(8.31072e-20 -5.29752e-19 -0.0126919)
(-6.54756e-19 8.92339e-20 -0.0126792)
(3.59389e-20 -1.06968e-19 -0.0126656)
(9.81657e-19 -4.51123e-20 -0.012651)
(4.77154e-19 -1.23994e-18 -0.0126356)
(-3.06072e-19 -5.64953e-19 -0.0126192)
(-1.61529e-19 -1.28081e-18 -0.012602)
(-1.21151e-18 -6.7395e-19 -0.0125841)
(-1.31955e-19 -1.82621e-18 -0.0125653)
(-1.3244e-18 -1.16878e-18 -0.0125458)
(-1.62548e-18 -7.54253e-19 -0.0125257)
(-1.21271e-18 -6.23434e-19 -0.0125049)
(-8.97837e-19 -7.57722e-19 -0.0124836)
(-2.26272e-18 -1.57123e-18 -0.0124618)
(-5.56299e-19 -3.66497e-20 -0.012408)
(-1.88065e-19 7.12334e-19 -0.0124298)
(-1.56415e-19 3.03452e-19 -0.0124512)
(-9.58336e-19 1.20785e-18 -0.012472)
(9.12718e-22 9.80688e-19 -0.0124922)
(-1.16332e-18 5.53282e-19 -0.0125117)
(-6.01763e-19 1.63285e-18 -0.0125305)
(-1.00104e-18 1.43627e-18 -0.0125485)
(-9.16928e-19 7.60223e-19 -0.0125657)
(-1.24786e-18 6.71939e-19 -0.0125821)
(-1.39931e-18 1.55363e-18 -0.0125976)
(-1.16584e-18 1.10479e-18 -0.0126122)
(-3.91005e-19 1.09865e-18 -0.0126259)
(-1.64301e-19 2.90972e-19 -0.0126386)
(-1.55008e-18 1.20346e-19 -0.0126503)
(-1.35143e-18 1.86929e-19 -0.012661)
(-6.9377e-19 5.18716e-19 -0.0126707)
(-8.18324e-19 1.11197e-18 -0.0126794)
(-3.93311e-19 1.28974e-18 -0.012687)
(-2.82548e-19 6.12859e-19 -0.0126936)
(-8.47278e-19 8.95984e-19 -0.012699)
(1.30512e-20 1.13415e-18 -0.0127034)
(-6.44e-19 2.8037e-19 -0.0127067)
(1.63357e-19 6.19939e-19 -0.0127089)
(7.70296e-19 6.40169e-19 -0.01271)
(1.30409e-19 -5.67067e-20 -0.01271)
(-3.67447e-20 -1.04295e-19 -0.0127089)
(7.27532e-19 -6.09154e-19 -0.0127067)
(-3.25155e-19 3.39902e-20 -0.0127034)
(-4.90287e-19 -4.82339e-19 -0.012699)
(-4.71159e-19 -2.11527e-19 -0.0126936)
(4.14643e-19 -5.80522e-21 -0.012687)
(2.04188e-19 -2.19171e-19 -0.0126794)
(-3.49785e-19 2.06362e-19 -0.0126707)
(5.06517e-19 -2.17685e-19 -0.012661)
(5.23026e-19 -5.31739e-19 -0.0126503)
(2.06636e-19 -4.78008e-19 -0.0126386)
(-6.70103e-19 9.46978e-20 -0.0126259)
(4.43132e-19 -3.86843e-19 -0.0126122)
(9.40873e-19 -2.92263e-20 -0.0125976)
(5.85486e-19 -1.22653e-18 -0.0125821)
(-1.51648e-19 -6.07297e-19 -0.0125657)
(-2.83514e-19 -1.14563e-18 -0.0125485)
(-1.33723e-18 -6.36582e-19 -0.0125305)
(-5.89063e-19 -1.582e-18 -0.0125117)
(-1.28354e-18 -1.08914e-18 -0.0124922)
(-1.92542e-18 -5.6623e-19 -0.012472)
(-1.43425e-18 -5.41684e-19 -0.0124512)
(-7.1774e-19 -9.52019e-19 -0.0124298)
(-1.77925e-18 -1.92792e-18 -0.012408)
(-8.14434e-19 -2.19279e-19 -0.0123537)
(-2.75175e-19 5.65152e-19 -0.0123756)
(-3.3358e-19 1.47686e-19 -0.012397)
(-1.16555e-18 1.01606e-18 -0.0124179)
(-1.72608e-19 8.80166e-19 -0.0124381)
(-1.30606e-18 4.52073e-19 -0.0124577)
(-7.22698e-19 1.5346e-18 -0.0124765)
(-9.25837e-19 1.58348e-18 -0.0124946)
(-1.21197e-18 6.66083e-19 -0.0125118)
(-1.49544e-18 5.38174e-19 -0.0125282)
(-1.12229e-18 1.70349e-18 -0.0125438)
(-1.4239e-18 9.72048e-19 -0.0125584)
(-2.54954e-19 1.08266e-18 -0.0125721)
(-2.80362e-19 3.3611e-19 -0.0125848)
(-1.29863e-18 2.91976e-19 -0.0125966)
(-1.39172e-18 1.42183e-19 -0.0126073)
(-5.7311e-19 5.04778e-19 -0.0126171)
(-6.03092e-19 1.16298e-18 -0.0126257)
(-7.4335e-19 1.22493e-18 -0.0126334)
(4.94628e-22 6.85298e-19 -0.0126399)
(-1.06066e-18 8.50562e-19 -0.0126454)
(5.3864e-20 1.14368e-18 -0.0126498)
(-7.9378e-19 2.77386e-19 -0.0126531)
(2.22357e-20 5.2539e-19 -0.0126553)
(7.22556e-19 6.35362e-19 -0.0126564)
(4.07514e-19 -3.00632e-20 -0.0126564)
(1.14597e-19 -1.71746e-19 -0.0126553)
(7.10905e-19 -6.03693e-19 -0.0126531)
(-2.60814e-19 1.16764e-19 -0.0126498)
(-4.02518e-19 -5.06333e-19 -0.0126454)
(-4.35335e-19 -2.85802e-19 -0.0126399)
(3.85359e-19 -3.49419e-20 -0.0126334)
(6.85875e-20 -1.2824e-19 -0.0126257)
(-5.61356e-19 2.51795e-19 -0.0126171)
(4.07749e-19 -2.6229e-19 -0.0126073)
(5.853e-19 -5.37424e-19 -0.0125966)
(1.04364e-19 -3.45609e-19 -0.0125848)
(-5.18648e-19 1.55378e-20 -0.0125721)
(4.56979e-19 -4.7852e-19 -0.0125584)
(8.35621e-19 1.27924e-20 -0.0125438)
(7.48929e-19 -1.26992e-18 -0.0125282)
(8.25314e-21 -6.22634e-19 -0.0125118)
(-2.83981e-19 -1.07395e-18 -0.0124946)
(-1.13258e-18 -7.46135e-19 -0.0124765)
(-1.06939e-18 -1.33957e-18 -0.0124576)
(-1.21707e-18 -1.05484e-18 -0.0124381)
(-1.92901e-18 -5.37836e-19 -0.0124179)
(-1.63942e-18 -5.23207e-19 -0.012397)
(-8.11776e-19 -9.93884e-19 -0.0123756)
(-1.59252e-18 -1.98064e-18 -0.0123537)
(-8.96906e-19 -2.30109e-19 -0.012299)
(-1.23231e-19 6.32969e-19 -0.0123209)
(-4.62406e-19 6.18517e-20 -0.0123424)
(-1.29746e-18 8.51006e-19 -0.0123633)
(-3.28819e-19 7.73347e-19 -0.0123835)
(-1.54059e-18 2.99851e-19 -0.0124032)
(-9.53716e-19 1.33696e-18 -0.012422)
(-8.9026e-19 1.70285e-18 -0.0124401)
(-1.55531e-18 5.88391e-19 -0.0124574)