/*--------------------------------*- C++ -*----------------------------------*\
  =========                 |
  \\      /  F ield         | OpenFOAM: The Open Source CFD Toolbox
   \\    /   O peration     | Website:  https://openfoam.org
    \\  /    A nd           | Version:  7
     \\/     M anipulation  |
\*---------------------------------------------------------------------------*/
FoamFile
{
    version     2.0;
    format      ascii;
    class       volScalarField;
    location    "32000";
    object      p;
}
// * * * * * * * * * * * * * * * * * * * * * * * * * * * * * * * * * * * * * //

dimensions      [0 2 -2 0 0 0 0];

internalField   nonuniform List<scalar> 
4782
(
-1.2197e-18
-1.22007e-18
-1.22043e-18
-1.22099e-18
-1.22205e-18
-1.22039e-18
-1.21913e-18
-1.22024e-18
-1.22144e-18
-1.21995e-18
-1.20987e-18
-1.20899e-18
-1.21727e-18
-1.21703e-18
-1.21363e-18
-1.22533e-18
-1.21922e-18
-1.20928e-18
-1.21051e-18
-1.20945e-18
-1.21098e-18
-1.21441e-18
-1.21519e-18
-1.21367e-18
-1.21162e-18
-1.21392e-18
-1.21446e-18
-1.21279e-18
-1.2124e-18
-1.20925e-18
-1.21209e-18
-1.22012e-18
-1.22523e-18
-1.21609e-18
-1.21277e-18
-1.20847e-18
-1.20904e-18
-1.21475e-18
-1.21789e-18
-1.21504e-18
-1.21128e-18
-1.21169e-18
-1.21869e-18
-1.21769e-18
-1.21657e-18
-1.21378e-18
-1.21571e-18
-1.21796e-18
-1.21394e-18
-1.21421e-18
-1.21817e-18
-1.21479e-18
-1.2144e-18
-1.21959e-18
-1.21974e-18
-1.21469e-18
-1.21255e-18
-1.21157e-18
-1.2165e-18
-1.21736e-18
-1.21689e-18
-1.21585e-18
-1.21284e-18
-1.21204e-18
-1.2167e-18
-1.22441e-18
-1.2253e-18
-1.22101e-18
-1.22169e-18
-1.2227e-18
-1.22474e-18
-1.22762e-18
-1.22586e-18
-1.22309e-18
-1.22906e-18
-1.22144e-18
-1.22062e-18
-1.2208e-18
-1.21859e-18
-1.21528e-18
-1.22181e-18
-1.22517e-18
-1.22481e-18
-1.21834e-18
-1.21936e-18
-1.21752e-18
-1.2196e-18
-1.21769e-18
-1.21435e-18
-1.21402e-18
-1.21661e-18
-1.21442e-18
-1.20819e-18
-1.21488e-18
-1.21806e-18
-1.21412e-18
-1.21438e-18
-1.21798e-18
-1.21601e-18
-1.21255e-18
-1.21157e-18
-1.21726e-18
-1.2194e-18
-1.21549e-18
-1.21427e-18
-1.21278e-18
-1.2161e-18
-1.21303e-18
-1.21525e-18
-1.21284e-18
-1.21469e-18
-1.21646e-18
-1.21549e-18
-1.21478e-18
-1.21541e-18
-1.21572e-18
-1.21769e-18
-1.21603e-18
-1.21433e-18
-1.21438e-18
-1.21434e-18
-1.20336e-18
-1.2079e-18
-1.20652e-18
-1.20279e-18
-1.20392e-18
-1.20493e-18
-1.20902e-18
-1.21828e-18
-1.21268e-18
-1.20971e-18
-1.20736e-18
-1.20061e-18
-1.19878e-18
-1.20672e-18
-1.20977e-18
-1.21135e-18
-1.20994e-18
-1.209e-18
-1.20325e-18
-1.2057e-18
-1.20594e-18
-1.2087e-18
-1.21155e-18
-1.21206e-18
-1.21375e-18
-1.20857e-18
-1.20816e-18
-1.20677e-18
-1.20815e-18
-1.212e-18
-1.20744e-18
-1.21013e-18
-1.20828e-18
-1.20756e-18
-1.20576e-18
-1.2127e-18
-1.2117e-18
-1.21035e-18
-1.21008e-18
-1.20994e-18
-1.20931e-18
-1.20904e-18
-1.20698e-18
-1.2081e-18
-1.21207e-18
-1.21025e-18
-1.20984e-18
-1.21127e-18
-1.20874e-18
-1.20744e-18
-1.20936e-18
-1.21004e-18
-1.21037e-18
-1.20906e-18
-1.21204e-18
-1.21778e-18
-1.21838e-18
-1.21219e-18
-1.2102e-18
-1.20699e-18
-1.21088e-18
-1.21772e-18
-1.21773e-18
-1.21736e-18
-1.2117e-18
-1.20956e-18
-1.21148e-18
-1.2172e-18
-1.21887e-18
-1.21754e-18
-1.21603e-18
-1.21746e-18
-1.21278e-18
-1.21611e-18
-1.21856e-18
-1.21816e-18
-1.21015e-18
-1.21191e-18
-1.21512e-18
-1.21596e-18
-1.20832e-18
-1.21291e-18
-1.21423e-18
-1.21719e-18
-1.21764e-18
-1.21127e-18
-1.21136e-18
-1.22032e-18
-1.21473e-18
-1.20952e-18
-1.21313e-18
-1.21521e-18
-1.21474e-18
-1.21514e-18
-1.21187e-18
-1.20946e-18
-1.2092e-18
-1.20931e-18
-1.21258e-18
-1.21314e-18
-1.21613e-18
-1.21474e-18
-1.2104e-18
-1.21295e-18
-1.21282e-18
-1.21218e-18
-1.21158e-18
-1.21184e-18
-1.21297e-18
-1.21279e-18
-1.20827e-18
-1.2091e-18
-1.20979e-18
-1.2107e-18
-1.21299e-18
-1.2118e-18
-1.21276e-18
-1.20656e-18
-1.19884e-18
-1.20575e-18
-1.21134e-18
-1.21012e-18
-1.20294e-18
-1.19913e-18
-1.2026e-18
-1.20627e-18
-1.20268e-18
-1.20573e-18
-1.2035e-18
-1.20855e-18
-1.20455e-18
-1.21002e-18
-1.20787e-18
-1.20574e-18
-1.20761e-18
-1.21479e-18
-1.20687e-18
-1.2033e-18
-1.20367e-18
-1.20602e-18
-1.2068e-18
-1.20862e-18
-1.20103e-18
-1.2066e-18
-1.21166e-18
-1.20827e-18
-1.20724e-18
-1.20749e-18
-1.20785e-18
-1.20785e-18
-1.20867e-18
-1.21023e-18
-1.21214e-18
-1.20836e-18
-1.2083e-18
-1.20501e-18
-1.20591e-18
-1.20932e-18
-1.20737e-18
-1.20734e-18
-1.2079e-18
-1.20886e-18
-1.2095e-18
-1.20829e-18
-1.20723e-18
-1.21129e-18
-1.20736e-18
-1.20902e-18
-1.2099e-18
-1.21142e-18
-1.21526e-18
-1.21203e-18
-1.20149e-18
-1.20514e-18
-1.21208e-18
-1.21282e-18
-1.21798e-18
-1.22042e-18
-1.21477e-18
-1.20832e-18
-1.20358e-18
-1.20684e-18
-1.20859e-18
-1.21403e-18
-1.2108e-18
-1.20903e-18
-1.20891e-18
-1.20863e-18
-1.20674e-18
-1.20432e-18
-1.20797e-18
-1.20479e-18
-1.2072e-18
-1.20199e-18
-1.20137e-18
-1.20589e-18
-1.20798e-18
-1.20954e-18
-1.2094e-18
-1.21083e-18
-1.2065e-18
-1.20624e-18
-1.20747e-18
-1.2079e-18
-1.20803e-18
-1.20787e-18
-1.20728e-18
-1.21039e-18
-1.20789e-18
-1.20423e-18
-1.20813e-18
-1.20762e-18
-1.20582e-18
-1.20768e-18
-1.20889e-18
-1.20578e-18
-1.20719e-18
-1.2065e-18
-1.20791e-18
-1.20822e-18
-1.20667e-18
-1.20582e-18
-1.20731e-18
-1.20633e-18
-1.20364e-18
-1.20077e-18
-1.20323e-18
-1.20383e-18
-1.202e-18
-1.2003e-18
-1.20504e-18
-1.20285e-18
-1.19412e-18
-1.20138e-18
-1.20204e-18
-1.2005e-18
-1.20014e-18
-1.20508e-18
-1.19947e-18
-1.19662e-18
-1.19761e-18
-1.20023e-18
-1.2002e-18
-1.20281e-18
-1.20091e-18
-1.20265e-18
-1.20479e-18
-1.20227e-18
-1.20095e-18
-1.20781e-18
-1.21333e-18
-1.20584e-18
-1.20098e-18
-1.20164e-18
-1.20447e-18
-1.20229e-18
-1.20479e-18
-1.21022e-18
-1.21093e-18
-1.20316e-18
-1.20069e-18
-1.20494e-18
-1.20331e-18
-1.20467e-18
-1.20336e-18
-1.2056e-18
-1.20428e-18
-1.20611e-18
-1.20598e-18
-1.20374e-18
-1.2046e-18
-1.20561e-18
-1.20456e-18
-1.20532e-18
-1.20378e-18
-1.203e-18
-1.20382e-18
-1.20472e-18
-1.20433e-18
-1.20582e-18
-1.20668e-18
-1.20729e-18
-1.20527e-18
-1.20709e-18
-1.20825e-18
-1.20529e-18
-1.20406e-18
-1.2096e-18
-1.20461e-18
-1.20796e-18
-1.20917e-18
-1.20499e-18
-1.19998e-18
-1.19963e-18
-1.20447e-18
-1.20943e-18
-1.20639e-18
-1.2065e-18
-1.20408e-18
-1.20395e-18
-1.20583e-18
-1.2063e-18
-1.2098e-18
-1.20669e-18
-1.19908e-18
-1.19629e-18
-1.20495e-18
-1.20451e-18
-1.21051e-18
-1.21253e-18
-1.20547e-18
-1.20159e-18
-1.20446e-18
-1.20865e-18
-1.2086e-18
-1.20182e-18
-1.20288e-18
-1.20425e-18
-1.20643e-18
-1.20238e-18
-1.20022e-18
-1.20646e-18
-1.20696e-18
-1.20306e-18
-1.20687e-18
-1.20712e-18
-1.20261e-18
-1.20295e-18
-1.20824e-18
-1.20859e-18
-1.20843e-18
-1.20547e-18
-1.20616e-18
-1.20576e-18
-1.20569e-18
-1.2075e-18
-1.20688e-18
-1.20553e-18
-1.20526e-18
-1.20574e-18
-1.20884e-18
-1.20725e-18
-1.20701e-18
-1.20514e-18
-1.2049e-18
-1.20578e-18
-1.20766e-18
-1.20714e-18
-1.20514e-18
-1.20642e-18
-1.20603e-18
-1.2064e-18
-1.20632e-18
-1.20675e-18
-1.20734e-18
-1.20667e-18
-1.20691e-18
-1.20654e-18
-1.20679e-18
-1.20712e-18
-1.20743e-18
-1.20704e-18
-1.20707e-18
-1.20714e-18
-1.20693e-18
-1.20692e-18
-1.20702e-18
-1.20687e-18
-1.20714e-18
-1.20702e-18
-1.20689e-18
-1.20706e-18
-1.20717e-18
-1.20717e-18
-1.20708e-18
-1.20706e-18
-1.20702e-18
-1.20701e-18
-1.18952e-18
-1.19522e-18
-1.19708e-18
-1.19589e-18
-1.1867e-18
-1.19159e-18
-1.19294e-18
-1.19741e-18
-1.19444e-18
-1.19514e-18
-1.19506e-18
-1.19308e-18
-1.19626e-18
-1.19955e-18
-1.19838e-18
-1.19851e-18
-1.1988e-18
-1.19475e-18
-1.20208e-18
-1.20654e-18
-1.20489e-18
-1.20348e-18
-1.20105e-18
-1.20041e-18
-1.20059e-18
-1.20092e-18
-1.20279e-18
-1.20719e-18
-1.20567e-18
-1.20191e-18
-1.20046e-18
-1.20421e-18
-1.20492e-18
-1.20692e-18
-1.20431e-18
-1.20594e-18
-1.20801e-18
-1.20618e-18
-1.20292e-18
-1.20083e-18
-1.20173e-18
-1.20321e-18
-1.20248e-18
-1.20232e-18
-1.20183e-18
-1.20321e-18
-1.20275e-18
-1.20298e-18
-1.20256e-18
-1.20139e-18
-1.203e-18
-1.20431e-18
-1.20289e-18
-1.20226e-18
-1.20369e-18
-1.20304e-18
-1.20357e-18
-1.20247e-18
-1.20275e-18
-1.20212e-18
-1.20178e-18
-1.20277e-18
-1.20194e-18
-1.2034e-18
-1.20556e-18
-1.20403e-18
-1.20309e-18
-1.20359e-18
-1.20323e-18
-1.20393e-18
-1.20416e-18
-1.20417e-18
-1.20333e-18
-1.20305e-18
-1.20326e-18
-1.20343e-18
-1.20337e-18
-1.2036e-18
-1.2033e-18
-1.20337e-18
-1.20369e-18
-1.20332e-18
-1.20357e-18
-1.20363e-18
-1.20365e-18
-1.20342e-18
-1.20334e-18
-1.20349e-18
-1.20341e-18
-1.20352e-18
-1.20355e-18
-1.20342e-18
-1.20355e-18
-1.20357e-18
-1.20355e-18
-1.203e-18
-1.2084e-18
-1.21044e-18
-1.2058e-18
-1.20586e-18
-1.2034e-18
-1.20447e-18
-1.20862e-18
-1.20656e-18
-1.2077e-18
-1.19914e-18
-1.19706e-18
-1.20809e-18
-1.2107e-18
-1.20541e-18
-1.19968e-18
-1.20246e-18
-1.20669e-18
-1.20133e-18
-1.20177e-18
-1.20287e-18
-1.20307e-18
-1.20226e-18
-1.20045e-18
-1.20255e-18
-1.20217e-18
-1.19917e-18
-1.20067e-18
-1.19994e-18
-1.20503e-18
-1.2045e-18
-1.20253e-18
-1.20341e-18
-1.20193e-18
-1.20527e-18
-1.21408e-18
-1.20905e-18
-1.20707e-18
-1.20651e-18
-1.20779e-18
-1.20608e-18
-1.20619e-18
-1.20772e-18
-1.20791e-18
-1.20689e-18
-1.20609e-18
-1.20183e-18
-1.20289e-18
-1.20509e-18
-1.20876e-18
-1.20551e-18
-1.20551e-18
-1.20696e-18
-1.20836e-18
-1.20725e-18
-1.20602e-18
-1.20735e-18
-1.20724e-18
-1.20581e-18
-1.20638e-18
-1.2041e-18
-1.20467e-18
-1.2051e-18
-1.20446e-18
-1.20557e-18
-1.20573e-18
-1.20607e-18
-1.20711e-18
-1.20663e-18
-1.20615e-18
-1.20548e-18
-1.20521e-18
-1.20565e-18
-1.20608e-18
-1.20644e-18
-1.20579e-18
-1.20585e-18
-1.20609e-18
-1.20626e-18
-1.2065e-18
-1.20633e-18
-1.20606e-18
-1.20602e-18
-1.20639e-18
-1.20627e-18
-1.20592e-18
-1.20595e-18
-1.20608e-18
-1.2061e-18
-1.20622e-18
-1.20624e-18
-1.20615e-18
-1.20608e-18
-1.20617e-18
-1.20618e-18
-1.19046e-18
-1.19327e-18
-1.18934e-18
-1.1966e-18
-1.19086e-18
-1.19003e-18
-1.1953e-18
-1.19671e-18
-1.2023e-18
-1.20133e-18
-1.19333e-18
-1.19487e-18
-1.19934e-18
-1.19853e-18
-1.195e-18
-1.1991e-18
-1.19972e-18
-1.19668e-18
-1.2014e-18
-1.19961e-18
-1.19912e-18
-1.19564e-18
-1.19531e-18
-1.19326e-18
-1.1981e-18
-1.19959e-18
-1.1946e-18
-1.1967e-18
-1.19925e-18
-1.20503e-18
-1.19948e-18
-1.1979e-18
-1.19718e-18
-1.20226e-18
-1.19822e-18
-1.19592e-18
-1.19834e-18
-1.20026e-18
-1.20443e-18
-1.19927e-18
-1.20139e-18
-1.20216e-18
-1.20306e-18
-1.20132e-18
-1.20075e-18
-1.20293e-18
-1.2039e-18
-1.2031e-18
-1.19974e-18
-1.20128e-18
-1.20167e-18
-1.20215e-18
-1.20176e-18
-1.20309e-18
-1.20254e-18
-1.20056e-18
-1.20278e-18
-1.20161e-18
-1.20192e-18
-1.2031e-18
-1.20309e-18
-1.20097e-18
-1.20108e-18
-1.2022e-18
-1.20162e-18
-1.2025e-18
-1.2024e-18
-1.20191e-18
-1.2015e-18
-1.20224e-18
-1.20197e-18
-1.20169e-18
-1.20218e-18
-1.20171e-18
-1.20189e-18
-1.20212e-18
-1.20179e-18
-1.20186e-18
-1.20137e-18
-1.20157e-18
-1.20162e-18
-1.20198e-18
-1.20204e-18
-1.20191e-18
-1.20192e-18
-1.20182e-18
-1.20182e-18
-1.20173e-18
-1.20175e-18
-1.20182e-18
-1.20188e-18
-1.20187e-18
-1.20181e-18
-1.20181e-18
-1.20184e-18
-1.21149e-18
-1.20376e-18
-1.19805e-18
-1.19887e-18
-1.1915e-18
-1.19725e-18
-1.19812e-18
-1.19387e-18
-1.20063e-18
-1.20637e-18
-1.20035e-18
-1.20134e-18
-1.20469e-18
-1.20426e-18
-1.20489e-18
-1.20141e-18
-1.20423e-18
-1.20725e-18
-1.20113e-18
-1.20472e-18
-1.20506e-18
-1.20716e-18
-1.21061e-18
-1.20348e-18
-1.20779e-18
-1.20473e-18
-1.20065e-18
-1.20551e-18
-1.20705e-18
-1.21028e-18
-1.20841e-18
-1.20541e-18
-1.2039e-18
-1.2051e-18
-1.20731e-18
-1.20639e-18
-1.20628e-18
-1.20368e-18
-1.20627e-18
-1.20889e-18
-1.201e-18
-1.20124e-18
-1.2043e-18
-1.20548e-18
-1.20475e-18
-1.2034e-18
-1.20543e-18
-1.2051e-18
-1.20314e-18
-1.20613e-18
-1.20729e-18
-1.2055e-18
-1.20416e-18
-1.20616e-18
-1.20693e-18
-1.20553e-18
-1.20431e-18
-1.20561e-18
-1.20647e-18
-1.20504e-18
-1.20362e-18
-1.20437e-18
-1.20528e-18
-1.20499e-18
-1.20478e-18
-1.20446e-18
-1.20451e-18
-1.20491e-18
-1.20516e-18
-1.20484e-18
-1.2045e-18
-1.20511e-18
-1.2053e-18
-1.20452e-18
-1.20502e-18
-1.20478e-18
-1.20512e-18
-1.20523e-18
-1.20534e-18
-1.20508e-18
-1.20536e-18
-1.2051e-18
-1.20486e-18
-1.20503e-18
-1.20521e-18
-1.20497e-18
-1.20472e-18
-1.20494e-18
-1.20492e-18
-1.20493e-18
-1.205e-18
-1.20501e-18
-1.20498e-18
-1.20497e-18
-1.20497e-18
-1.18896e-18
-1.19205e-18
-1.19278e-18
-1.18986e-18
-1.18225e-18
-1.18751e-18
-1.19222e-18
-1.18937e-18
-1.18905e-18
-1.19373e-18
-1.1805e-18
-1.18501e-18
-1.18589e-18
-1.18634e-18
-1.1887e-18
-1.18722e-18
-1.18858e-18
-1.19174e-18
-1.18748e-18
-1.19018e-18
-1.19123e-18
-1.18974e-18
-1.19192e-18
-1.19137e-18
-1.1874e-18
-1.18954e-18
-1.19303e-18
-1.19526e-18
-1.19591e-18
-1.19165e-18
-1.19406e-18
-1.19589e-18
-1.1944e-18
-1.19098e-18
-1.19822e-18
-1.20259e-18
-1.19965e-18
-1.19363e-18
-1.19443e-18
-1.19796e-18
-1.20036e-18
-1.19996e-18
-1.19923e-18
-1.19695e-18
-1.20086e-18
-1.19947e-18
-1.19991e-18
-1.20229e-18
-1.20293e-18
-1.20124e-18
-1.19769e-18
-1.2003e-18
-1.20161e-18
-1.20131e-18
-1.2002e-18
-1.20063e-18
-1.20225e-18
-1.20065e-18
-1.20007e-18
-1.20001e-18
-1.19866e-18
-1.19834e-18
-1.20042e-18
-1.20068e-18
-1.19948e-18
-1.1996e-18
-1.20004e-18
-1.19957e-18
-1.19987e-18
-1.19993e-18
-1.19971e-18
-1.20006e-18
-1.20005e-18
-1.20035e-18
-1.20014e-18
-1.19995e-18
-1.19983e-18
-1.20018e-18
-1.20018e-18
-1.20035e-18
-1.19985e-18
-1.20005e-18
-1.20035e-18
-1.20036e-18
-1.20015e-18
-1.19999e-18
-1.20015e-18
-1.20036e-18
-1.20047e-18
-1.20029e-18
-1.20021e-18
-1.20021e-18
-1.20026e-18
-1.20027e-18
-1.20026e-18
-1.20716e-18
-1.20568e-18
-1.20682e-18
-1.20123e-18
-1.19498e-18
-1.2052e-18
-1.20091e-18
-1.2001e-18
-1.20391e-18
-1.19922e-18
-1.19666e-18
-1.20085e-18
-1.19783e-18
-1.19338e-18
-1.19927e-18
-1.19957e-18
-1.20016e-18
-1.20218e-18
-1.19917e-18
-1.19739e-18
-1.20271e-18
-1.20579e-18
-1.20226e-18
-1.20079e-18
-1.19786e-18
-1.20491e-18
-1.20463e-18
-1.20198e-18
-1.20093e-18
-1.20084e-18
-1.19972e-18
-1.19719e-18
-1.19932e-18
-1.19503e-18
-1.19909e-18
-1.20134e-18
-1.19596e-18
-1.19448e-18
-1.1973e-18
-1.20128e-18
-1.20461e-18
-1.20102e-18
-1.19708e-18
-1.19944e-18
-1.20299e-18
-1.19965e-18
-1.20213e-18
-1.20189e-18
-1.20077e-18
-1.20183e-18
-1.2025e-18
-1.20222e-18
-1.20192e-18
-1.20211e-18
-1.20177e-18
-1.20213e-18
-1.20051e-18
-1.20112e-18
-1.20263e-18
-1.20332e-18
-1.20271e-18
-1.2041e-18
-1.20321e-18
-1.20189e-18
-1.20067e-18
-1.20186e-18
-1.20252e-18
-1.20216e-18
-1.20253e-18
-1.20314e-18
-1.2025e-18
-1.2026e-18
-1.202e-18
-1.20219e-18
-1.20206e-18
-1.20184e-18
-1.20212e-18
-1.20222e-18
-1.20243e-18
-1.20227e-18
-1.20219e-18
-1.2022e-18
-1.20219e-18
-1.20204e-18
-1.20174e-18
-1.20198e-18
-1.20206e-18
-1.20206e-18
-1.20222e-18
-1.20209e-18
-1.20207e-18
-1.2021e-18
-1.20206e-18
-1.20203e-18
-1.20204e-18
-1.18019e-18
-1.17916e-18
-1.1844e-18
-1.18823e-18
-1.1916e-18
-1.18614e-18
-1.18843e-18
-1.18125e-18
-1.18635e-18
-1.19123e-18
-1.18484e-18
-1.19063e-18
-1.18658e-18
-1.18418e-18
-1.19341e-18
-1.1885e-18
-1.19154e-18
-1.19373e-18
-1.18849e-18
-1.1878e-18
-1.18253e-18
-1.18811e-18
-1.18597e-18
-1.18578e-18
-1.18859e-18
-1.18676e-18
-1.18202e-18
-1.19025e-18
-1.18779e-18
-1.19157e-18
-1.19063e-18
-1.18707e-18
-1.18645e-18
-1.19128e-18
-1.19245e-18
-1.19675e-18
-1.19312e-18
-1.19471e-18
-1.19146e-18
-1.1914e-18
-1.19205e-18
-1.1924e-18
-1.19266e-18
-1.19614e-18
-1.19398e-18
-1.19164e-18
-1.19164e-18
-1.19292e-18
-1.19388e-18
-1.19365e-18
-1.19358e-18
-1.19305e-18
-1.19202e-18
-1.19385e-18
-1.19559e-18
-1.19497e-18
-1.19425e-18
-1.1938e-18
-1.19426e-18
-1.19391e-18
-1.19451e-18
-1.19579e-18
-1.19579e-18
-1.1958e-18
-1.19465e-18
-1.19451e-18
-1.19536e-18
-1.19609e-18
-1.19629e-18
-1.19565e-18
-1.19535e-18
-1.19672e-18
-1.19614e-18
-1.19546e-18
-1.19583e-18
-1.19604e-18
-1.19598e-18
-1.19591e-18
-1.19636e-18
-1.19638e-18
-1.19582e-18
-1.19586e-18
-1.1961e-18
-1.19615e-18
-1.19611e-18
-1.19617e-18
-1.1962e-18
-1.19619e-18
-1.19616e-18
-1.19624e-18
-1.19623e-18
-1.19629e-18
-1.19624e-18
-1.19625e-18
-1.19623e-18
-1.19585e-18
-1.19983e-18
-1.19957e-18
-1.19543e-18
-1.19469e-18
-1.19892e-18
-1.2031e-18
-1.194e-18
-1.19389e-18
-1.19615e-18
-1.19404e-18
-1.18928e-18
-1.18847e-18
-1.19464e-18
-1.19288e-18
-1.193e-18
-1.18909e-18
-1.18666e-18
-1.19543e-18
-1.19628e-18
-1.19481e-18
-1.19408e-18
-1.19775e-18
-1.19539e-18
-1.19047e-18
-1.19127e-18
-1.19462e-18
-1.20075e-18
-1.19844e-18
-1.19678e-18
-1.19663e-18
-1.19679e-18
-1.19726e-18
-1.19864e-18
-1.19997e-18
-1.1965e-18
-1.20136e-18
-1.19698e-18
-1.19602e-18
-1.19937e-18
-1.19931e-18
-1.19952e-18
-1.19903e-18
-1.20083e-18
-1.1999e-18
-1.19408e-18
-1.19957e-18
-1.20054e-18
-1.19853e-18
-1.19736e-18
-1.19836e-18
-1.19792e-18
-1.1989e-18
-1.19762e-18
-1.19833e-18
-1.19819e-18
-1.19955e-18
-1.19943e-18
-1.19935e-18
-1.1986e-18
-1.19843e-18
-1.19814e-18
-1.19989e-18
-1.20026e-18
-1.19927e-18
-1.20027e-18
-1.20034e-18
-1.19988e-18
-1.20004e-18
-1.19987e-18
-1.19961e-18
-1.19879e-18
-1.19884e-18
-1.19885e-18
-1.19942e-18
-1.19983e-18
-1.1998e-18
-1.1999e-18
-1.20025e-18
-1.20009e-18
-1.20021e-18
-1.19978e-18
-1.19982e-18
-1.2e-18
-1.19992e-18
-1.19981e-18
-1.19966e-18
-1.1998e-18
-1.19989e-18
-1.1999e-18
-1.19984e-18
-1.19987e-18
-1.19991e-18
-1.1999e-18
-1.19988e-18
-1.18139e-18
-1.18849e-18
-1.18537e-18
-1.18135e-18
-1.17932e-18
-1.17827e-18
-1.18468e-18
-1.1892e-18
-1.19042e-18
-1.18497e-18
-1.18714e-18
-1.18908e-18
-1.18904e-18
-1.18424e-18
-1.18332e-18
-1.18498e-18
-1.1887e-18
-1.18212e-18
-1.18551e-18
-1.18135e-18
-1.18294e-18
-1.18699e-18
-1.18766e-18
-1.18147e-18
-1.18339e-18
-1.19002e-18
-1.1918e-18
-1.18475e-18
-1.18222e-18
-1.18814e-18
-1.18888e-18
-1.18795e-18
-1.18536e-18
-1.18396e-18
-1.18698e-18
-1.18705e-18
-1.18736e-18
-1.18835e-18
-1.18663e-18
-1.18551e-18
-1.18756e-18
-1.18665e-18
-1.18883e-18
-1.18943e-18
-1.19175e-18
-1.1906e-18
-1.18941e-18
-1.18887e-18
-1.19259e-18
-1.19352e-18
-1.19172e-18
-1.19038e-18
-1.1922e-18
-1.19361e-18
-1.19476e-18
-1.19379e-18
-1.19311e-18
-1.19147e-18
-1.19181e-18
-1.19341e-18
-1.19194e-18
-1.19338e-18
-1.19322e-18
-1.19235e-18
-1.19318e-18
-1.19322e-18
-1.19304e-18
-1.19283e-18
-1.19301e-18
-1.19336e-18
-1.19278e-18
-1.1923e-18
-1.19286e-18
-1.19276e-18
-1.19261e-18
-1.19307e-18
-1.19342e-18
-1.19346e-18
-1.19285e-18
-1.19286e-18
-1.1931e-18
-1.19287e-18
-1.19284e-18
-1.19307e-18
-1.1931e-18
-1.19293e-18
-1.19289e-18
-1.19297e-18
-1.19316e-18
-1.19322e-18
-1.19317e-18
-1.19302e-18
-1.19312e-18
-1.19318e-18
-1.19316e-18
-1.197e-18
-1.19771e-18
-1.18799e-18
-1.18837e-18
-1.19072e-18
-1.18887e-18
-1.18778e-18
-1.19436e-18
-1.19162e-18
-1.19087e-18
-1.19215e-18
-1.19629e-18
-1.19748e-18
-1.19116e-18
-1.18813e-18
-1.1867e-18
-1.1905e-18
-1.19116e-18
-1.19155e-18
-1.19676e-18
-1.19468e-18
-1.19397e-18
-1.19562e-18
-1.19606e-18
-1.19584e-18
-1.19692e-18
-1.19625e-18
-1.20141e-18
-1.19547e-18
-1.19364e-18
-1.19253e-18
-1.19681e-18
-1.19676e-18
-1.19974e-18
-1.19584e-18
-1.19597e-18
-1.19983e-18
-1.19477e-18
-1.19544e-18
-1.19946e-18
-1.19937e-18
-1.19844e-18
-1.1988e-18
-1.20023e-18
-1.19958e-18
-1.1998e-18
-1.1979e-18
-1.1981e-18
-1.19896e-18
-1.19848e-18
-1.19611e-18
-1.19874e-18
-1.19916e-18
-1.19605e-18
-1.19625e-18
-1.19703e-18
-1.19843e-18
-1.19617e-18
-1.19629e-18
-1.19943e-18
-1.19974e-18
-1.1969e-18
-1.19689e-18
-1.1976e-18
-1.19828e-18
-1.19787e-18
-1.19723e-18
-1.19786e-18
-1.19825e-18
-1.1979e-18
-1.19766e-18
-1.19691e-18
-1.19789e-18
-1.19831e-18
-1.19763e-18
-1.19771e-18
-1.19818e-18
-1.19783e-18
-1.19748e-18
-1.1978e-18
-1.19801e-18
-1.19781e-18
-1.1978e-18
-1.19784e-18
-1.19775e-18
-1.19787e-18
-1.19789e-18
-1.19779e-18
-1.19776e-18
-1.19776e-18
-1.19775e-18
-1.19771e-18
-1.19773e-18
-1.19775e-18
-1.19776e-18
-1.1891e-18
-1.18218e-18
-1.18557e-18
-1.18465e-18
-1.19066e-18
-1.19035e-18
-1.18938e-18
-1.1844e-18
-1.19092e-18
-1.18741e-18
-1.18362e-18
-1.18499e-18
-1.18559e-18
-1.18799e-18
-1.18801e-18
-1.18772e-18
-1.18391e-18
-1.18216e-18
-1.18817e-18
-1.18951e-18
-1.18936e-18
-1.19026e-18
-1.18932e-18
-1.18767e-18
-1.18441e-18
-1.18339e-18
-1.18008e-18
-1.18539e-18
-1.18837e-18
-1.18494e-18
-1.18503e-18
-1.18341e-18
-1.18241e-18
-1.18183e-18
-1.18501e-18
-1.18598e-18
-1.18719e-18
-1.18579e-18
-1.18447e-18
-1.18732e-18
-1.18613e-18
-1.1842e-18
-1.18574e-18
-1.18698e-18
-1.18731e-18
-1.18497e-18
-1.18662e-18
-1.18697e-18
-1.18724e-18
-1.18432e-18
-1.18633e-18
-1.18848e-18
-1.18729e-18
-1.18714e-18
-1.18718e-18
-1.19012e-18
-1.18995e-18
-1.18838e-18
-1.18801e-18
-1.18771e-18
-1.18774e-18
-1.18792e-18
-1.18815e-18
-1.18853e-18
-1.18952e-18
-1.19016e-18
-1.18958e-18
-1.18946e-18
-1.18944e-18
-1.1898e-18
-1.19022e-18
-1.18989e-18
-1.18954e-18
-1.18966e-18
-1.19036e-18
-1.19014e-18
-1.19009e-18
-1.19055e-18
-1.19021e-18
-1.18999e-18
-1.18974e-18
-1.19017e-18
-1.19043e-18
-1.19014e-18
-1.19024e-18
-1.1904e-18
-1.19039e-18
-1.19046e-18
-1.19044e-18
-1.19035e-18
-1.19042e-18
-1.19043e-18
-1.19038e-18
-1.19037e-18
-1.19037e-18
-1.19661e-18
-1.18726e-18
-1.18618e-18
-1.18914e-18
-1.19646e-18
-1.19592e-18
-1.19392e-18
-1.19172e-18
-1.19184e-18
-1.18689e-18
-1.1896e-18
-1.18897e-18
-1.19131e-18
-1.18753e-18
-1.19105e-18
-1.19214e-18
-1.1923e-18
-1.1899e-18
-1.18934e-18
-1.18855e-18
-1.19176e-18
-1.18784e-18
-1.18671e-18
-1.18867e-18
-1.19039e-18
-1.18913e-18
-1.18778e-18
-1.18866e-18
-1.18959e-18
-1.19133e-18
-1.19289e-18
-1.192e-18
-1.18814e-18
-1.18764e-18
-1.19149e-18
-1.19113e-18
-1.18974e-18
-1.19322e-18
-1.19465e-18
-1.19326e-18
-1.18996e-18
-1.1909e-18
-1.19169e-18
-1.19077e-18
-1.18851e-18
-1.19044e-18
-1.19104e-18
-1.19196e-18
-1.1927e-18
-1.19157e-18
-1.19356e-18
-1.19346e-18
-1.1932e-18
-1.19313e-18
-1.19291e-18
-1.19337e-18
-1.19319e-18
-1.19274e-18
-1.19217e-18
-1.19348e-18
-1.19315e-18
-1.19482e-18
-1.19391e-18
-1.19326e-18
-1.19309e-18
-1.19384e-18
-1.19268e-18
-1.19334e-18
-1.19343e-18
-1.19441e-18
-1.1949e-18
-1.1943e-18
-1.19392e-18
-1.19405e-18
-1.19413e-18
-1.1942e-18
-1.19443e-18
-1.19455e-18
-1.19425e-18
-1.1944e-18
-1.19418e-18
-1.19411e-18
-1.19436e-18
-1.19426e-18
-1.19395e-18
-1.1942e-18
-1.19437e-18
-1.19405e-18
-1.19414e-18
-1.19418e-18
-1.19419e-18
-1.19424e-18
-1.19419e-18
-1.19422e-18
-1.19421e-18
-1.1832e-18
-1.18252e-18
-1.18097e-18
-1.18057e-18
-1.1797e-18
-1.18622e-18
-1.17945e-18
-1.17918e-18
-1.1816e-18
-1.18721e-18
-1.18361e-18
-1.1887e-18
-1.18572e-18
-1.18125e-18
-1.18293e-18
-1.18987e-18
-1.18891e-18
-1.18792e-18
-1.19e-18
-1.18631e-18
-1.18609e-18
-1.18527e-18
-1.18939e-18
-1.18763e-18
-1.18676e-18
-1.18387e-18
-1.18239e-18
-1.18503e-18
-1.18795e-18
-1.1906e-18
-1.18396e-18
-1.18476e-18
-1.18679e-18
-1.18683e-18
-1.18588e-18
-1.1865e-18
-1.18594e-18
-1.18318e-18
-1.18368e-18
-1.18389e-18
-1.18854e-18
-1.19044e-18
-1.18576e-18
-1.18494e-18
-1.1869e-18
-1.1854e-18
-1.18524e-18
-1.18577e-18
-1.18608e-18
-1.18745e-18
-1.18731e-18
-1.18881e-18
-1.18679e-18
-1.18651e-18
-1.18569e-18
-1.18638e-18
-1.1881e-18
-1.18927e-18
-1.18906e-18
-1.18883e-18
-1.1892e-18
-1.18852e-18
-1.18856e-18
-1.18847e-18
-1.18851e-18
-1.18881e-18
-1.18944e-18
-1.18955e-18
-1.18913e-18
-1.18879e-18
-1.18934e-18
-1.18951e-18
-1.18969e-18
-1.18976e-18
-1.18956e-18
-1.18977e-18
-1.18977e-18
-1.18949e-18
-1.1895e-18
-1.18972e-18
-1.18959e-18
-1.18968e-18
-1.18966e-18
-1.18953e-18
-1.18968e-18
-1.18967e-18
-1.18955e-18
-1.18959e-18
-1.18948e-18
-1.1895e-18
-1.18956e-18
-1.18949e-18
-1.18951e-18
-1.18955e-18
-1.18959e-18
-1.18458e-18
-1.18975e-18
-1.1939e-18
-1.19602e-18
-1.1908e-18
-1.18698e-18
-1.18876e-18
-1.18959e-18
-1.19324e-18
-1.19499e-18
-1.19179e-18
-1.19159e-18
-1.19558e-18
-1.1986e-18
-1.19568e-18
-1.19094e-18
-1.18891e-18
-1.19266e-18
-1.19124e-18
-1.19285e-18
-1.19277e-18
-1.1899e-18
-1.18882e-18
-1.18894e-18
-1.18978e-18
-1.19158e-18
-1.19005e-18
-1.1895e-18
-1.18881e-18
-1.19001e-18
-1.19546e-18
-1.19248e-18
-1.19007e-18
-1.1918e-18
-1.19453e-18
-1.19255e-18
-1.19162e-18
-1.18991e-18
-1.19007e-18
-1.19169e-18
-1.19032e-18
-1.1915e-18
-1.19267e-18
-1.18859e-18
-1.19045e-18
-1.19046e-18
-1.18931e-18
-1.1909e-18
-1.1925e-18
-1.19092e-18
-1.1915e-18
-1.19244e-18
-1.19214e-18
-1.19097e-18
-1.19178e-18
-1.19095e-18
-1.19186e-18
-1.19214e-18
-1.19071e-18
-1.18895e-18
-1.1903e-18
-1.19153e-18
-1.19063e-18
-1.19052e-18
-1.19043e-18
-1.1914e-18
-1.19181e-18
-1.19166e-18
-1.19148e-18
-1.19227e-18
-1.19258e-18
-1.19191e-18
-1.1915e-18
-1.19152e-18
-1.19164e-18
-1.19164e-18
-1.19133e-18
-1.19182e-18
-1.19227e-18
-1.19225e-18
-1.192e-18
-1.19206e-18
-1.1921e-18
-1.19212e-18
-1.19203e-18
-1.19203e-18
-1.19214e-18
-1.19223e-18
-1.19218e-18
-1.19219e-18
-1.1922e-18
-1.1922e-18
-1.19213e-18
-1.19212e-18
-1.19216e-18
-1.17848e-18
-1.18419e-18
-1.18418e-18
-1.17498e-18
-1.17847e-18
-1.18445e-18
-1.18565e-18
-1.18226e-18
-1.1822e-18
-1.18696e-18
-1.18224e-18
-1.1803e-18
-1.17806e-18
-1.17781e-18
-1.17689e-18
-1.18091e-18
-1.18169e-18
-1.17935e-18
-1.18015e-18
-1.18021e-18
-1.17909e-18
-1.1798e-18
-1.18301e-18
-1.18355e-18
-1.18285e-18
-1.1844e-18
-1.18577e-18
-1.18558e-18
-1.18553e-18
-1.18397e-18
-1.18515e-18
-1.18279e-18
-1.18249e-18
-1.1842e-18
-1.18276e-18
-1.18232e-18
-1.18231e-18
-1.18293e-18
-1.18414e-18
-1.18367e-18
-1.18823e-18
-1.18852e-18
-1.18782e-18
-1.18549e-18
-1.18507e-18
-1.18427e-18
-1.1854e-18
-1.18571e-18
-1.18683e-18
-1.18688e-18
-1.18628e-18
-1.18645e-18
-1.18658e-18
-1.18452e-18
-1.18589e-18
-1.1857e-18
-1.18528e-18
-1.18548e-18
-1.18673e-18
-1.18617e-18
-1.1862e-18
-1.18647e-18
-1.18685e-18
-1.18685e-18
-1.18648e-18
-1.18634e-18
-1.1869e-18
-1.18694e-18
-1.18669e-18
-1.18701e-18
-1.18673e-18
-1.18683e-18
-1.18682e-18
-1.18668e-18
-1.18702e-18
-1.18697e-18
-1.18713e-18
-1.18707e-18
-1.18703e-18
-1.18725e-18
-1.18712e-18
-1.18701e-18
-1.18701e-18
-1.18709e-18
-1.18708e-18
-1.18713e-18
-1.18717e-18
-1.18722e-18
-1.18724e-18
-1.18723e-18
-1.18718e-18
-1.18717e-18
-1.18718e-18
-1.1872e-18
-1.18721e-18
-1.18519e-18
-1.18385e-18
-1.18005e-18
-1.18161e-18
-1.18678e-18
-1.18505e-18
-1.18197e-18
-1.18055e-18
-1.18131e-18
-1.18539e-18
-1.18835e-18
-1.1901e-18
-1.18733e-18
-1.18564e-18
-1.18778e-18
-1.18374e-18
-1.18506e-18
-1.19009e-18
-1.1887e-18
-1.18755e-18
-1.18894e-18
-1.19096e-18
-1.18969e-18
-1.18966e-18
-1.19239e-18
-1.19173e-18
-1.18757e-18
-1.18882e-18
-1.1901e-18
-1.19085e-18
-1.19131e-18
-1.18889e-18
-1.1876e-18
-1.18931e-18
-1.18919e-18
-1.18841e-18
-1.18697e-18
-1.19028e-18
-1.19236e-18
-1.18893e-18
-1.18698e-18
-1.18575e-18
-1.18748e-18
-1.18949e-18
-1.1912e-18
-1.19062e-18
-1.1907e-18
-1.19144e-18
-1.18987e-18
-1.18966e-18
-1.19054e-18
-1.19041e-18
-1.18991e-18
-1.18927e-18
-1.19072e-18
-1.19154e-18
-1.19123e-18
-1.19068e-18
-1.19023e-18
-1.19077e-18
-1.19068e-18
-1.19034e-18
-1.18998e-18
-1.19076e-18
-1.19081e-18
-1.19051e-18
-1.19004e-18
-1.19002e-18
-1.19065e-18
-1.19034e-18
-1.19101e-18
-1.19125e-18
-1.19107e-18
-1.19055e-18
-1.19013e-18
-1.19013e-18
-1.19018e-18
-1.19065e-18
-1.1909e-18
-1.19057e-18
-1.19036e-18
-1.19036e-18
-1.1903e-18
-1.19044e-18
-1.19056e-18
-1.19043e-18
-1.1903e-18
-1.19026e-18
-1.19042e-18
-1.1904e-18
-1.19034e-18
-1.19032e-18
-1.19033e-18
-1.19034e-18
-1.19034e-18
-1.18537e-18
-1.18461e-18
-1.18281e-18
-1.18538e-18
-1.18266e-18
-1.18155e-18
-1.18291e-18
-1.18488e-18
-1.17989e-18
-1.18127e-18
-1.18254e-18
-1.18071e-18
-1.17849e-18
-1.18081e-18
-1.18213e-18
-1.18405e-18
-1.18588e-18
-1.18248e-18
-1.17898e-18
-1.1801e-18
-1.18292e-18
-1.18465e-18
-1.18742e-18
-1.18746e-18
-1.18461e-18
-1.18387e-18
-1.18434e-18
-1.18475e-18
-1.18344e-18
-1.18204e-18
-1.18317e-18
-1.18139e-18
-1.18051e-18
-1.18165e-18
-1.18399e-18
-1.18476e-18
-1.18492e-18
-1.18737e-18
-1.18762e-18
-1.18488e-18
-1.18301e-18
-1.18531e-18
-1.18689e-18
-1.18455e-18
-1.18585e-18
-1.18567e-18
-1.1856e-18
-1.18534e-18
-1.18533e-18
-1.1855e-18
-1.18577e-18
-1.18518e-18
-1.18516e-18
-1.1857e-18
-1.18594e-18
-1.18589e-18
-1.18551e-18
-1.18563e-18
-1.18631e-18
-1.18705e-18
-1.1871e-18
-1.1861e-18
-1.18658e-18
-1.18651e-18
-1.18653e-18
-1.1871e-18
-1.18606e-18
-1.18625e-18
-1.18568e-18
-1.18553e-18
-1.18632e-18
-1.18637e-18
-1.18625e-18
-1.1862e-18
-1.18611e-18
-1.18592e-18
-1.1859e-18
-1.18604e-18
-1.18616e-18
-1.18611e-18
-1.18595e-18
-1.18583e-18
-1.18588e-18
-1.18592e-18
-1.18577e-18
-1.18579e-18
-1.18577e-18
-1.18588e-18
-1.18589e-18
-1.18579e-18
-1.1858e-18
-1.18584e-18
-1.18586e-18
-1.18586e-18
-1.18586e-18
-1.18135e-18
-1.17718e-18
-1.18013e-18
-1.18293e-18
-1.18808e-18
-1.18666e-18
-1.18054e-18
-1.18161e-18
-1.18401e-18
-1.18294e-18
-1.18286e-18
-1.18045e-18
-1.18451e-18
-1.18792e-18
-1.18735e-18
-1.18878e-18
-1.18637e-18
-1.18632e-18
-1.18832e-18
-1.18744e-18
-1.18626e-18
-1.18541e-18
-1.18186e-18
-1.18538e-18
-1.18733e-18
-1.18668e-18
-1.18612e-18
-1.18455e-18
-1.18845e-18
-1.18763e-18
-1.18692e-18
-1.1871e-18
-1.18736e-18
-1.18675e-18
-1.18469e-18
-1.18733e-18
-1.18998e-18
-1.18708e-18
-1.18832e-18
-1.1859e-18
-1.18713e-18
-1.18807e-18
-1.18838e-18
-1.18808e-18
-1.18863e-18
-1.18983e-18
-1.18893e-18
-1.18794e-18
-1.18875e-18
-1.18757e-18
-1.18827e-18
-1.18836e-18
-1.18889e-18
-1.18917e-18
-1.18859e-18
-1.1883e-18
-1.18859e-18
-1.18842e-18
-1.18846e-18
-1.1884e-18
-1.18836e-18
-1.18812e-18
-1.18827e-18
-1.18838e-18
-1.18851e-18
-1.18827e-18
-1.18815e-18
-1.18818e-18
-1.18848e-18
-1.18812e-18
-1.18767e-18
-1.18806e-18
-1.18804e-18
-1.18789e-18
-1.18826e-18
-1.18824e-18
-1.1882e-18
-1.18844e-18
-1.18851e-18
-1.18834e-18
-1.1884e-18
-1.18841e-18
-1.18824e-18
-1.18826e-18
-1.18841e-18
-1.18837e-18
-1.18839e-18
-1.18833e-18
-1.18833e-18
-1.1883e-18
-1.18832e-18
-1.18837e-18
-1.18839e-18
-1.18836e-18
-1.18836e-18
-1.18092e-18
-1.18412e-18
-1.18313e-18
-1.17982e-18
-1.17889e-18
-1.17942e-18
-1.1808e-18
-1.18234e-18
-1.17678e-18
-1.17547e-18
-1.17586e-18
-1.17795e-18
-1.17676e-18
-1.17909e-18
-1.17861e-18
-1.1769e-18
-1.18004e-18
-1.1813e-18
-1.17561e-18
-1.17984e-18
-1.18339e-18
-1.18054e-18
-1.17605e-18
-1.17964e-18
-1.18199e-18
-1.18205e-18
-1.18226e-18
-1.18346e-18
-1.1844e-18
-1.18116e-18
-1.18133e-18
-1.18062e-18
-1.1822e-18
-1.18389e-18
-1.18477e-18
-1.18152e-18
-1.18229e-18
-1.18442e-18
-1.18598e-18
-1.1835e-18
-1.18121e-18
-1.18091e-18
-1.18234e-18
-1.18224e-18
-1.18337e-18
-1.18382e-18
-1.18392e-18
-1.18413e-18
-1.18477e-18
-1.18443e-18
-1.18338e-18
-1.1839e-18
-1.18399e-18
-1.18418e-18
-1.18331e-18
-1.18401e-18
-1.18461e-18
-1.18445e-18
-1.18481e-18
-1.1839e-18
-1.18431e-18
-1.18497e-18
-1.18402e-18
-1.18395e-18
-1.1839e-18
-1.18422e-18
-1.18424e-18