/*--------------------------------*- C++ -*----------------------------------*\
  =========                 |
  \\      /  F ield         | OpenFOAM: The Open Source CFD Toolbox
   \\    /   O peration     | Website:  https://openfoam.org
    \\  /    A nd           | Version:  7
     \\/     M anipulation  |
\*---------------------------------------------------------------------------*/
FoamFile
{
    version     2.0;
    format      ascii;
    class       volScalarField;
    location    "116000";
    object      nut;
}
// * * * * * * * * * * * * * * * * * * * * * * * * * * * * * * * * * * * * * //

dimensions      [0 2 -1 0 0 0 0];

internalField   nonuniform List<scalar> 
4825
(
1.26934e-05
1.28053e-05
1.24543e-05
1.25672e-05
1.26628e-05
1.27538e-05
1.28402e-05
1.22162e-05
1.23269e-05
1.2423e-05
1.25151e-05
1.26036e-05
1.19794e-05
1.20872e-05
1.21825e-05
1.22742e-05
1.23629e-05
1.17442e-05
1.1849e-05
1.19429e-05
1.20337e-05
1.21217e-05
1.15107e-05
1.16127e-05
1.17051e-05
1.17946e-05
1.18815e-05
1.12788e-05
1.13785e-05
1.14692e-05
1.15574e-05
1.16429e-05
1.10488e-05
1.11463e-05
1.12354e-05
1.13221e-05
1.14063e-05
1.08204e-05
1.09161e-05
1.10036e-05
1.10889e-05
1.11717e-05
1.05938e-05
1.06877e-05
1.07737e-05
1.08576e-05
1.09391e-05
1.03689e-05
1.0461e-05
1.05457e-05
1.06283e-05
1.07084e-05
1.01456e-05
1.02361e-05
1.03194e-05
1.04007e-05
1.04796e-05
9.92387e-06
1.00128e-05
1.00949e-05
1.01748e-05
1.02525e-05
9.70375e-06
9.79116e-06
9.87194e-06
9.9507e-06
9.4852e-06
9.57111e-06
9.65066e-06
9.72819e-06
9.2682e-06
9.35263e-06
9.43096e-06
9.5073e-06
9.05274e-06
9.13572e-06
9.21284e-06
8.83883e-06
8.92036e-06
8.99629e-06
8.62646e-06
8.70656e-06
8.41564e-06
8.49432e-06
8.20637e-06
8.28364e-06
7.99868e-06
8.07455e-06
7.79258e-06
7.86705e-06
7.58808e-06
1.62667e-05
1.63732e-05
1.64768e-05
1.65774e-05
1.66748e-05
1.67687e-05
1.68591e-05
1.69456e-05
1.70282e-05
1.71067e-05
1.71809e-05
1.72508e-05
1.73162e-05
1.7377e-05
1.74331e-05
1.74844e-05
1.75308e-05
1.75723e-05
1.76087e-05
1.764e-05
1.60263e-05
1.61321e-05
1.62352e-05
1.63353e-05
1.64322e-05
1.65256e-05
1.66155e-05
1.67016e-05
1.67838e-05
1.68619e-05
1.69358e-05
1.70053e-05
1.70704e-05
1.71309e-05
1.71868e-05
1.72379e-05
1.72841e-05
1.73253e-05
1.73616e-05
1.73928e-05
1.57861e-05
1.58914e-05
1.59939e-05
1.60934e-05
1.61897e-05
1.62827e-05
1.6372e-05
1.64577e-05
1.65394e-05
1.66171e-05
1.66906e-05
1.67599e-05
1.68246e-05
1.68849e-05
1.69404e-05
1.69913e-05
1.70373e-05
1.70783e-05
1.71144e-05
1.71455e-05
1.55463e-05
1.56509e-05
1.57528e-05
1.58517e-05
1.59475e-05
1.60399e-05
1.61287e-05
1.62139e-05
1.62952e-05
1.63725e-05
1.64456e-05
1.65144e-05
1.65789e-05
1.66388e-05
1.66941e-05
1.67447e-05
1.67904e-05
1.68313e-05
1.68672e-05
1.68982e-05
1.53068e-05
1.54108e-05
1.5512e-05
1.56103e-05
1.57055e-05
1.57973e-05
1.58857e-05
1.59703e-05
1.60511e-05
1.6128e-05
1.62007e-05
1.62692e-05
1.63332e-05
1.63928e-05
1.64478e-05
1.64981e-05
1.65437e-05
1.65843e-05
1.66201e-05
1.66508e-05
1.50678e-05
1.5171e-05
1.52716e-05
1.53693e-05
1.54638e-05
1.55551e-05
1.56429e-05
1.5727e-05
1.58073e-05
1.58837e-05
1.5956e-05
1.6024e-05
1.60878e-05
1.6147e-05
1.62017e-05
1.62517e-05
1.6297e-05
1.63374e-05
1.6373e-05
1.64036e-05
1.48292e-05
1.49317e-05
1.50316e-05
1.51286e-05
1.52226e-05
1.53132e-05
1.54004e-05
1.5484e-05
1.55638e-05
1.56397e-05
1.57115e-05
1.57792e-05
1.58425e-05
1.59014e-05
1.59557e-05
1.60055e-05
1.60505e-05
1.60907e-05
1.6126e-05
1.61564e-05
1.45911e-05
1.46929e-05
1.47921e-05
1.48884e-05
1.49817e-05
1.50717e-05
1.51583e-05
1.52413e-05
1.53206e-05
1.5396e-05
1.54673e-05
1.55345e-05
1.55975e-05
1.5656e-05
1.571e-05
1.57594e-05
1.58042e-05
1.58441e-05
1.58793e-05
1.59095e-05
1.59347e-05
1.5955e-05
1.59702e-05
1.59804e-05
1.59855e-05
1.59855e-05
1.59804e-05
1.59702e-05
1.5955e-05
1.59347e-05
1.59095e-05
1.58793e-05
1.58441e-05
1.58042e-05
1.57594e-05
1.43536e-05
1.44547e-05
1.45531e-05
1.46487e-05
1.47413e-05
1.48307e-05
1.49166e-05
1.49991e-05
1.50778e-05
1.51526e-05
1.52235e-05
1.52903e-05
1.53528e-05
1.54109e-05
1.54646e-05
1.55137e-05
1.55581e-05
1.55978e-05
1.56327e-05
1.56628e-05
1.56879e-05
1.5708e-05
1.57231e-05
1.57332e-05
1.57383e-05
1.57383e-05
1.57332e-05
1.57231e-05
1.5708e-05
1.56879e-05
1.56628e-05
1.56327e-05
1.55978e-05
1.55581e-05
1.55137e-05
1.54646e-05
1.54109e-05
1.41167e-05
1.4217e-05
1.43146e-05
1.44095e-05
1.45014e-05
1.45901e-05
1.46754e-05
1.47572e-05
1.48354e-05
1.49097e-05
1.49801e-05
1.50464e-05
1.51084e-05
1.51662e-05
1.52195e-05
1.52682e-05
1.53124e-05
1.53518e-05
1.53865e-05
1.54163e-05
1.54413e-05
1.54613e-05
1.54763e-05
1.54863e-05
1.54914e-05
1.54914e-05
1.54863e-05
1.54763e-05
1.54613e-05
1.54413e-05
1.54163e-05
1.53865e-05
1.53518e-05
1.53124e-05
1.52682e-05
1.52195e-05
1.51662e-05
1.51084e-05
1.38805e-05
1.39799e-05
1.40768e-05
1.41709e-05
1.42621e-05
1.43501e-05
1.44347e-05
1.45159e-05
1.45935e-05
1.46672e-05
1.47371e-05
1.48029e-05
1.48645e-05
1.49218e-05
1.49747e-05
1.50232e-05
1.5067e-05
1.51062e-05
1.51406e-05
1.51702e-05
1.5195e-05
1.52149e-05
1.52298e-05
1.52398e-05
1.52448e-05
1.52448e-05
1.52398e-05
1.52298e-05
1.52149e-05
1.5195e-05
1.51702e-05
1.51406e-05
1.51062e-05
1.5067e-05
1.50232e-05
1.49747e-05
1.49218e-05
1.48645e-05
1.48029e-05
1.47371e-05
1.36449e-05
1.37435e-05
1.38396e-05
1.39329e-05
1.40234e-05
1.41106e-05
1.41946e-05
1.42752e-05
1.43521e-05
1.44253e-05
1.44946e-05
1.45599e-05
1.4621e-05
1.46779e-05
1.47304e-05
1.47785e-05
1.4822e-05
1.48609e-05
1.48951e-05
1.49245e-05
1.49491e-05
1.49688e-05
1.49837e-05
1.49936e-05
1.49985e-05
1.49985e-05
1.49936e-05
1.49837e-05
1.49688e-05
1.49491e-05
1.49245e-05
1.48951e-05
1.48609e-05
1.4822e-05
1.47785e-05
1.47304e-05
1.46779e-05
1.4621e-05
1.45599e-05
1.44946e-05
1.44253e-05
1.43521e-05
1.34101e-05
1.35078e-05
1.36031e-05
1.36956e-05
1.37853e-05
1.38718e-05
1.39551e-05
1.4035e-05
1.41113e-05
1.41839e-05
1.42526e-05
1.43174e-05
1.43781e-05
1.44345e-05
1.44866e-05
1.45343e-05
1.45775e-05
1.46161e-05
1.465e-05
1.46792e-05
1.47036e-05
1.47232e-05
1.47379e-05
1.47478e-05
1.47527e-05
1.47527e-05
1.47478e-05
1.47379e-05
1.47232e-05
1.47036e-05
1.46792e-05
1.465e-05
1.46161e-05
1.45775e-05
1.45343e-05
1.44866e-05
1.44345e-05
1.43781e-05
1.43174e-05
1.42526e-05
1.41839e-05
1.41113e-05
1.4035e-05
1.39551e-05
1.38718e-05
1.31728e-05
1.32728e-05
1.33673e-05
1.3459e-05
1.35479e-05
1.36337e-05
1.37162e-05
1.37954e-05
1.38711e-05
1.39431e-05
1.40112e-05
1.40755e-05
1.41357e-05
1.41916e-05
1.42433e-05
1.42907e-05
1.43335e-05
1.43718e-05
1.44055e-05
1.44344e-05
1.44586e-05
1.44781e-05
1.44927e-05
1.45024e-05
1.45073e-05
1.45073e-05
1.45024e-05
1.44927e-05
1.44781e-05
1.44586e-05
1.44344e-05
1.44055e-05
1.43718e-05
1.43335e-05
1.42907e-05
1.42434e-05
1.41916e-05
1.41357e-05
1.40755e-05
1.40112e-05
1.39431e-05
1.38711e-05
1.37954e-05
1.37162e-05
1.36337e-05
1.35479e-05
1.3459e-05
1.29332e-05
1.30386e-05
1.31322e-05
1.32231e-05
1.33112e-05
1.33962e-05
1.34781e-05
1.35565e-05
1.36315e-05
1.37029e-05
1.37705e-05
1.38342e-05
1.38938e-05
1.39494e-05
1.40006e-05
1.40476e-05
1.40901e-05
1.4128e-05
1.41614e-05
1.41902e-05
1.42142e-05
1.42335e-05
1.42479e-05
1.42576e-05
1.42625e-05
1.42625e-05
1.42576e-05
1.42479e-05
1.42335e-05
1.42142e-05
1.41902e-05
1.41614e-05
1.4128e-05
1.40901e-05
1.40476e-05
1.40006e-05
1.39494e-05
1.38939e-05
1.38342e-05
1.37705e-05
1.37029e-05
1.36315e-05
1.35565e-05
1.34781e-05
1.33962e-05
1.33112e-05
1.32231e-05
1.31322e-05
1.30386e-05
1.29332e-05
1.26934e-05
1.28053e-05
1.2898e-05
1.29881e-05
1.30753e-05
1.31595e-05
1.32406e-05
1.33184e-05
1.33927e-05
1.34634e-05
1.35304e-05
1.35935e-05
1.36527e-05
1.37077e-05
1.37586e-05
1.38051e-05
1.38472e-05
1.38849e-05
1.3918e-05
1.39465e-05
1.39703e-05
1.39894e-05
1.40038e-05
1.40134e-05
1.40182e-05
1.40182e-05
1.40134e-05
1.40038e-05
1.39894e-05
1.39703e-05
1.39465e-05
1.3918e-05
1.38849e-05
1.38472e-05
1.38051e-05
1.37586e-05
1.37077e-05
1.36527e-05
1.35936e-05
1.35304e-05
1.34634e-05
1.33927e-05
1.33184e-05
1.32406e-05
1.31595e-05
1.30753e-05
1.29881e-05
1.2898e-05
1.28053e-05
1.26934e-05
1.24543e-05
1.25672e-05
1.26628e-05
1.27538e-05
1.28402e-05
1.29236e-05
1.30039e-05
1.3081e-05
1.31546e-05
1.32247e-05
1.32911e-05
1.33536e-05
1.34122e-05
1.34668e-05
1.35171e-05
1.35633e-05
1.3605e-05
1.36423e-05
1.36752e-05
1.37034e-05
1.3727e-05
1.3746e-05
1.37602e-05
1.37697e-05
1.37745e-05
1.37745e-05
1.37697e-05
1.37602e-05
1.3746e-05
1.3727e-05
1.37034e-05
1.36752e-05
1.36423e-05
1.3605e-05
1.35633e-05
1.35172e-05
1.34668e-05
1.34122e-05
1.33536e-05
1.32911e-05
1.32247e-05
1.31546e-05
1.3081e-05
1.30039e-05
1.29236e-05
1.28402e-05
1.27538e-05
1.26628e-05
1.25672e-05
1.24543e-05
1.22162e-05
1.23269e-05
1.2423e-05
1.25151e-05
1.26036e-05
1.26886e-05
1.27681e-05
1.28444e-05
1.29173e-05
1.29867e-05
1.30525e-05
1.31144e-05
1.31725e-05
1.32265e-05
1.32764e-05
1.33221e-05
1.33635e-05
1.34005e-05
1.3433e-05
1.3461e-05
1.34844e-05
1.35032e-05
1.35173e-05
1.35267e-05
1.35315e-05
1.35315e-05
1.35267e-05
1.35173e-05
1.35032e-05
1.34844e-05
1.3461e-05
1.3433e-05
1.34005e-05
1.33635e-05
1.33221e-05
1.32764e-05
1.32265e-05
1.31725e-05
1.31144e-05
1.30525e-05
1.29867e-05
1.29173e-05
1.28444e-05
1.27681e-05
1.26886e-05
1.26036e-05
1.25151e-05
1.2423e-05
1.23269e-05
1.22162e-05
1.19794e-05
1.20872e-05
1.21825e-05
1.22742e-05
1.23629e-05
1.24484e-05
1.253e-05
1.26081e-05
1.26808e-05
1.27495e-05
1.28147e-05
1.2876e-05
1.29335e-05
1.2987e-05
1.30365e-05
1.30818e-05
1.31227e-05
1.31594e-05
1.31916e-05
1.32193e-05
1.32425e-05
1.32611e-05
1.32751e-05
1.32845e-05
1.32891e-05
1.32891e-05
1.32845e-05
1.32751e-05
1.32611e-05
1.32425e-05
1.32193e-05
1.31916e-05
1.31594e-05
1.31227e-05
1.30818e-05
1.30365e-05
1.29871e-05
1.29335e-05
1.2876e-05
1.28147e-05
1.27496e-05
1.26808e-05
1.26081e-05
1.253e-05
1.24484e-05
1.2363e-05
1.22742e-05
1.21825e-05
1.20872e-05
1.19794e-05
1.17442e-05
1.1849e-05
1.19429e-05
1.20337e-05
1.21217e-05
1.22066e-05
1.22883e-05
1.23666e-05
1.24408e-05
1.25113e-05
1.25777e-05
1.26384e-05
1.26954e-05
1.27484e-05
1.27973e-05
1.28422e-05
1.28827e-05
1.2919e-05
1.29509e-05
1.29784e-05
1.30014e-05
1.30198e-05
1.30337e-05
1.30429e-05
1.30475e-05
1.30475e-05
1.30429e-05
1.30337e-05
1.30198e-05
1.30014e-05
1.29784e-05
1.29509e-05
1.2919e-05
1.28828e-05
1.28422e-05
1.27973e-05
1.27484e-05
1.26954e-05
1.26385e-05
1.25777e-05
1.25113e-05
1.24408e-05
1.23666e-05
1.22883e-05
1.22066e-05
1.21217e-05
1.20337e-05
1.19429e-05
1.1849e-05
1.17442e-05
1.15107e-05
1.16127e-05
1.17051e-05
1.17946e-05
1.18815e-05
1.19654e-05
1.20464e-05
1.2124e-05
1.21982e-05
1.22687e-05
1.23354e-05
1.23977e-05
1.2456e-05
1.25101e-05
1.2559e-05
1.26034e-05
1.26436e-05
1.26795e-05
1.27111e-05
1.27383e-05
1.2761e-05
1.27793e-05
1.2793e-05
1.28022e-05
1.28067e-05
1.28067e-05
1.28022e-05
1.2793e-05
1.27793e-05
1.2761e-05
1.27383e-05
1.27111e-05
1.26795e-05
1.26436e-05
1.26034e-05
1.2559e-05
1.25102e-05
1.2456e-05
1.23977e-05
1.23354e-05
1.22687e-05
1.21982e-05
1.2124e-05
1.20464e-05
1.19654e-05
1.18815e-05
1.17946e-05
1.17051e-05
1.16127e-05
1.15107e-05
1.12788e-05
1.13785e-05
1.14692e-05
1.15574e-05
1.16429e-05
1.17256e-05
1.18055e-05
1.18822e-05
1.19556e-05
1.20255e-05
1.20917e-05
1.21541e-05
1.22124e-05
1.22666e-05
1.23164e-05
1.23618e-05
1.24029e-05
1.24396e-05
1.24719e-05
1.2499e-05
1.25215e-05
1.25396e-05
1.25532e-05
1.25622e-05
1.25668e-05
1.25668e-05
1.25622e-05
1.25532e-05
1.25396e-05
1.25215e-05
1.2499e-05
1.24719e-05
1.24396e-05
1.24029e-05
1.23618e-05
1.23164e-05
1.22666e-05
1.22124e-05
1.21541e-05
1.20917e-05
1.20256e-05
1.19556e-05
1.18822e-05
1.18055e-05
1.17256e-05
1.16429e-05
1.15574e-05
1.14692e-05
1.13785e-05
1.12788e-05
1.10488e-05
1.11463e-05
1.12354e-05
1.13221e-05
1.14063e-05
1.14878e-05
1.15664e-05
1.16419e-05
1.17144e-05
1.17833e-05
1.18487e-05
1.19104e-05
1.19682e-05
1.2022e-05
1.20717e-05
1.21171e-05
1.21582e-05
1.21949e-05
1.22272e-05
1.22548e-05
1.22778e-05
1.22963e-05
1.23102e-05
1.23194e-05
1.2324e-05
1.23241e-05
1.23194e-05
1.23102e-05
1.22963e-05
1.22778e-05
1.22548e-05
1.22272e-05
1.2195e-05
1.21582e-05
1.21171e-05
1.20717e-05
1.2022e-05
1.19682e-05
1.19104e-05
1.18487e-05
1.17833e-05
1.17144e-05
1.1642e-05
1.15664e-05
1.14878e-05
1.14063e-05
1.13221e-05
1.12354e-05
1.11463e-05
1.10488e-05
1.08204e-05
1.09161e-05
1.10036e-05
1.10889e-05
1.11717e-05
1.12519e-05
1.13293e-05
1.14036e-05
1.14749e-05
1.15428e-05
1.16071e-05
1.1668e-05
1.1725e-05
1.17781e-05
1.18273e-05
1.18723e-05
1.1913e-05
1.19494e-05
1.19814e-05
1.20089e-05
1.20319e-05
1.20504e-05
1.20643e-05
1.20735e-05
1.20781e-05
1.20781e-05
1.20735e-05
1.20643e-05
1.20504e-05
1.2032e-05
1.20089e-05
1.19814e-05
1.19494e-05
1.1913e-05
1.18723e-05
1.18273e-05
1.17781e-05
1.17251e-05
1.1668e-05
1.16071e-05
1.15428e-05
1.14749e-05
1.14036e-05
1.13293e-05
1.12519e-05
1.11717e-05
1.10889e-05
1.10036e-05
1.09161e-05
1.08204e-05
1.05938e-05
1.06877e-05
1.07737e-05
1.08576e-05
1.09391e-05
1.1018e-05
1.10941e-05
1.11673e-05
1.12373e-05
1.13041e-05
1.13675e-05
1.14274e-05
1.14835e-05
1.15358e-05
1.15843e-05
1.16286e-05
1.16688e-05
1.17047e-05
1.17363e-05
1.17635e-05
1.17863e-05
1.18046e-05
1.18183e-05
1.18275e-05
1.18321e-05
1.18321e-05
1.18275e-05
1.18183e-05
1.18046e-05
1.17863e-05
1.17635e-05
1.17363e-05
1.17047e-05
1.16688e-05
1.16286e-05
1.15843e-05
1.15358e-05
1.14835e-05
1.14274e-05
1.13675e-05
1.13041e-05
1.12373e-05
1.11673e-05
1.10941e-05
1.1018e-05
1.09391e-05
1.08576e-05
1.07737e-05
1.06877e-05
1.05938e-05
1.03689e-05
1.0461e-05
1.05457e-05
1.06283e-05
1.07085e-05
1.07861e-05
1.08609e-05
1.09329e-05
1.10018e-05
1.10675e-05
1.11299e-05
1.11888e-05
1.1244e-05
1.12954e-05
1.13431e-05
1.13867e-05
1.14263e-05
1.14617e-05
1.14928e-05
1.15196e-05
1.15421e-05
1.15601e-05
1.15736e-05
1.15827e-05
1.15872e-05
1.15872e-05
1.15827e-05
1.15736e-05
1.15601e-05
1.15421e-05
1.15196e-05
1.14928e-05
1.14617e-05
1.14263e-05
1.13867e-05
1.13431e-05
1.12954e-05
1.1244e-05
1.11888e-05
1.11299e-05
1.10675e-05
1.10018e-05
1.09329e-05
1.08609e-05
1.07861e-05
1.07085e-05
1.06283e-05
1.05457e-05
1.0461e-05
1.03689e-05
1.01456e-05
1.02361e-05
1.03194e-05
1.04007e-05
1.04796e-05
1.0556e-05
1.06297e-05
1.07005e-05
1.07683e-05
1.08329e-05
1.08942e-05
1.09521e-05
1.10064e-05
1.10571e-05
1.11039e-05
1.11468e-05
1.11858e-05
1.12205e-05
1.12512e-05
1.12776e-05
1.12997e-05
1.13174e-05
1.13307e-05
1.13396e-05
1.13441e-05
1.13441e-05
1.13396e-05
1.13307e-05
1.13174e-05
1.12997e-05
1.12776e-05
1.12512e-05
1.12206e-05
1.11858e-05
1.11468e-05
1.11039e-05
1.10571e-05
1.10064e-05
1.09521e-05
1.08942e-05
1.08329e-05
1.07683e-05
1.07005e-05
1.06297e-05
1.0556e-05
1.04796e-05
1.04007e-05
1.03194e-05
1.02361e-05
1.01456e-05
9.92387e-06
1.00128e-05
1.00949e-05
1.01749e-05
1.02525e-05
1.03277e-05
1.04002e-05
1.04699e-05
1.05366e-05
1.06002e-05
1.06605e-05
1.07174e-05
1.07709e-05
1.08207e-05
1.08667e-05
1.0909e-05
1.09472e-05
1.09814e-05
1.10116e-05
1.10375e-05
1.10593e-05
1.10767e-05
1.10898e-05
1.10986e-05
1.1103e-05
1.1103e-05
1.10986e-05
1.10898e-05
1.10767e-05
1.10593e-05
1.10375e-05
1.10116e-05
1.09815e-05
1.09472e-05
1.0909e-05
1.08667e-05
1.08207e-05
1.07709e-05
1.07175e-05
1.06605e-05
1.06002e-05
1.05366e-05
1.04699e-05
1.04002e-05
1.03277e-05
1.02525e-05
1.01749e-05
1.00949e-05
1.00128e-05
9.92387e-06
9.70375e-06
9.79117e-06
9.87195e-06
9.95071e-06
1.00272e-05
1.01012e-05
1.01725e-05
1.02411e-05
1.03067e-05
1.03693e-05
1.04287e-05
1.04847e-05
1.05372e-05
1.05862e-05
1.06315e-05
1.0673e-05
1.07107e-05
1.07443e-05
1.0774e-05
1.07995e-05
1.08209e-05
1.0838e-05
1.08509e-05
1.08595e-05
1.08638e-05
1.08638e-05
1.08595e-05
1.08509e-05
1.0838e-05
1.08209e-05
1.07995e-05
1.0774e-05
1.07443e-05
1.07107e-05
1.06731e-05
1.06315e-05
1.05862e-05
1.05372e-05
1.04847e-05
1.04287e-05
1.03693e-05
1.03067e-05
1.02411e-05
1.01725e-05
1.01012e-05
1.00272e-05
9.9507e-06
9.87195e-06
9.79116e-06
9.70375e-06
9.4852e-06
9.57111e-06
9.65066e-06
9.7282e-06
9.80348e-06
9.87632e-06
9.94656e-06
1.0014e-05
1.00786e-05
1.01402e-05
1.01986e-05
1.02537e-05
1.03054e-05
1.03536e-05
1.03982e-05
1.0439e-05
1.04761e-05
1.05092e-05
1.05383e-05
1.05634e-05
1.05844e-05
1.06013e-05
1.0614e-05
1.06225e-05
1.06267e-05
1.06267e-05
1.06225e-05
1.0614e-05
1.06013e-05
1.05844e-05
1.05634e-05
1.05383e-05
1.05092e-05
1.04761e-05
1.0439e-05
1.03982e-05
1.03536e-05
1.03054e-05
1.02537e-05
1.01986e-05
1.01402e-05
1.00786e-05
1.0014e-05
9.94656e-06
9.87632e-06
9.80348e-06
9.72819e-06
9.65066e-06
9.57111e-06
9.4852e-06
9.2682e-06
9.35263e-06
9.43097e-06
9.5073e-06
9.5814e-06
9.65311e-06
9.72224e-06
9.78867e-06
9.85223e-06
9.91282e-06
9.97029e-06
1.00245e-05
1.00754e-05
1.01228e-05
1.01667e-05
1.02069e-05
1.02433e-05
1.02759e-05
1.03045e-05
1.03292e-05
1.03499e-05
1.03665e-05
1.0379e-05
1.03873e-05
1.03915e-05
1.03915e-05
1.03873e-05
1.0379e-05
1.03665e-05
1.03499e-05
1.03292e-05
1.03045e-05
1.02759e-05
1.02433e-05
1.02069e-05
1.01667e-05
1.01228e-05
1.00754e-05
1.00245e-05
9.9703e-06
9.91282e-06
9.85224e-06
9.78867e-06
9.72224e-06
9.65311e-06
9.5814e-06
9.50729e-06
9.43096e-06
9.35263e-06
9.2682e-06
9.05275e-06
9.13572e-06
9.21285e-06
9.28798e-06
9.36093e-06
9.4315e-06
9.49955e-06
9.56492e-06
9.62748e-06
9.68711e-06
9.74367e-06
9.79704e-06
9.84711e-06
9.89377e-06
9.93691e-06
9.97645e-06
1.00123e-05
1.00443e-05
1.00726e-05
1.00969e-05
1.01172e-05
1.01335e-05
1.01458e-05
1.0154e-05
1.01581e-05
1.01581e-05
1.0154e-05
1.01458e-05
1.01335e-05
1.01172e-05
1.00969e-05
1.00726e-05
1.00443e-05
1.00123e-05
9.97646e-06
9.93692e-06
9.89377e-06
9.84711e-06
9.79704e-06
9.74367e-06
9.68711e-06
9.62749e-06
9.56492e-06
9.49955e-06
9.4315e-06
9.36093e-06
9.28798e-06
9.21284e-06
9.13572e-06
9.05274e-06
8.83884e-06
8.92036e-06
8.99629e-06
9.07025e-06
9.14204e-06
9.21149e-06
9.27846e-06
9.34279e-06
9.40436e-06
9.46303e-06
9.51869e-06
9.57121e-06
9.62048e-06
9.6664e-06
9.70885e-06
9.74776e-06
9.78302e-06
9.81456e-06
9.84232e-06
9.86623e-06
9.88624e-06
9.90229e-06
9.91437e-06
9.92244e-06
9.92647e-06
9.92648e-06
9.92244e-06
9.91437e-06
9.9023e-06
9.88624e-06
9.86623e-06
9.84232e-06
9.81457e-06
9.78303e-06
9.74776e-06
9.70886e-06
9.6664e-06
9.62049e-06
9.57122e-06
9.5187e-06
9.46304e-06
9.40436e-06
9.34279e-06
9.27846e-06
9.21149e-06
9.14203e-06
9.07024e-06
8.99628e-06
8.92036e-06
8.83883e-06
8.62647e-06
8.70656e-06
8.78129e-06
8.85407e-06
8.92472e-06
8.99306e-06
9.05895e-06
9.12226e-06
9.18284e-06
9.24057e-06
9.29534e-06
9.34702e-06
9.3955e-06
9.44068e-06
9.48246e-06
9.52074e-06
9.55543e-06
9.58647e-06
9.61378e-06
9.63731e-06
9.65699e-06
9.67279e-06
9.68468e-06
9.69261e-06
9.69658e-06
9.69658e-06
9.69261e-06
9.68468e-06
9.6728e-06
9.65699e-06
9.63731e-06
9.61379e-06
9.58648e-06
9.55544e-06
9.52074e-06
9.48246e-06
9.44068e-06
9.39551e-06
9.34702e-06
9.29534e-06
9.24058e-06
9.18284e-06
9.12226e-06
9.05896e-06
8.99306e-06
8.92472e-06
8.85407e-06
8.78129e-06
8.70656e-06
8.62646e-06
8.41564e-06
8.49432e-06
8.56786e-06
8.63947e-06
8.70897e-06
8.7762e-06
8.84103e-06
8.90331e-06
8.96291e-06
9.01971e-06
9.07359e-06
9.12444e-06
9.17214e-06
9.21659e-06
9.25769e-06
9.29536e-06
9.3295e-06
9.36004e-06
9.38691e-06
9.41005e-06
9.42942e-06
9.44497e-06
9.45666e-06
9.46447e-06
9.46837e-06
9.46837e-06
9.46447e-06
9.45666e-06
9.44497e-06
9.42942e-06
9.41006e-06
9.38691e-06
9.36004e-06
9.3295e-06
9.29536e-06
9.2577e-06
9.2166e-06
9.17214e-06
9.12444e-06
9.0736e-06
9.01971e-06
8.96291e-06
8.90331e-06
8.84103e-06
8.7762e-06
8.70896e-06
8.63946e-06
8.56785e-06
8.49432e-06
8.41564e-06
8.20638e-06
8.28365e-06
8.35599e-06
8.42643e-06
8.49479e-06
8.56092e-06
8.62468e-06
8.68594e-06
8.74456e-06
8.80044e-06
8.85344e-06
8.90346e-06
8.95038e-06
8.99411e-06
9.03455e-06
9.0716e-06
9.10519e-06
9.13523e-06
9.16167e-06
9.18444e-06
9.20349e-06
9.21879e-06
9.23029e-06
9.23797e-06
9.24181e-06
9.24181e-06
9.23797e-06
9.23029e-06
9.21879e-06
9.20349e-06
9.18444e-06
9.16167e-06
9.13524e-06
9.10519e-06
9.07161e-06
9.03455e-06
8.99412e-06
8.95039e-06
8.90346e-06
8.85344e-06
8.80044e-06
8.74457e-06
8.68594e-06
8.62468e-06
8.56092e-06
8.49478e-06
8.42642e-06
8.35598e-06
8.28364e-06
8.20637e-06
7.99869e-06
8.07455e-06
8.14569e-06
8.21496e-06
8.28218e-06
8.34721e-06
8.40991e-06
8.47015e-06
8.5278e-06
8.58275e-06
8.63488e-06
8.68407e-06
8.73022e-06
8.77324e-06
8.81301e-06
8.84946e-06
8.88249e-06
8.91205e-06
8.93805e-06
8.96045e-06
8.97919e-06
8.99424e-06
9.00555e-06
9.0131e-06
9.01689e-06
9.01689e-06
9.0131e-06
9.00555e-06
8.99424e-06
8.97919e-06
8.96045e-06
8.93805e-06
8.91205e-06
8.8825e-06
8.84946e-06
8.81302e-06
8.77324e-06
8.73023e-06
8.68408e-06
8.63488e-06
8.58275e-06
8.5278e-06
8.47015e-06
8.40991e-06
8.34721e-06
8.28218e-06
8.21495e-06
8.14568e-06
8.07454e-06
7.99868e-06
7.79258e-06
7.86705e-06
7.93699e-06
8.00508e-06
8.07116e-06
8.13508e-06
8.19672e-06
8.25594e-06
8.31262e-06
8.36665e-06
8.41791e-06
8.46628e-06
8.51166e-06
8.55396e-06
8.59307e-06
8.62891e-06
8.6614e-06
8.69047e-06
8.71604e-06
8.73807e-06
8.7565e-06
8.7713e-06
8.78243e-06
8.78986e-06
8.79358e-06
8.79358e-06
8.78986e-06
8.78243e-06
8.7713e-06
8.75651e-06
8.73807e-06
8.71605e-06
8.69047e-06
8.66141e-06
8.62892e-06
8.59308e-06
8.55397e-06
8.51167e-06
8.46628e-06
8.41791e-06
8.36665e-06
8.31263e-06
8.25594e-06
8.19672e-06
8.13509e-06
8.07116e-06
8.00507e-06
7.93698e-06
7.86704e-06
7.79258e-06
7.58809e-06
7.66115e-06
7.72989e-06
7.79681e-06
7.86174e-06
7.92456e-06
7.98513e-06
8.04334e-06
8.09905e-06
8.15215e-06
8.20253e-06
8.25008e-06
8.2947e-06
8.33628e-06
8.37474e-06
8.40998e-06
8.44192e-06
8.4705e-06
8.49564e-06
8.5173e-06
8.53543e-06
8.54998e-06
8.56092e-06
8.56822e-06
8.57188e-06
8.57188e-06
8.56822e-06
8.56092e-06
8.54998e-06
8.53543e-06
8.51731e-06
8.49565e-06
8.4705e-06
8.44192e-06
8.40998e-06
8.37474e-06
8.33629e-06
8.29471e-06
8.25009e-06
8.20254e-06
8.15215e-06
8.09905e-06
8.04334e-06
7.98513e-06
7.92456e-06
7.86174e-06
7.7968e-06
7.72988e-06
7.66115e-06
7.58808e-06
7.38521e-06
7.45689e-06
7.52442e-06
7.59016e-06
7.65394e-06
7.71565e-06
7.77516e-06
7.83234e-06
7.88708e-06
7.93926e-06
7.98877e-06
8.0355e-06
8.07935e-06
8.12022e-06
8.15801e-06
8.19265e-06
8.22405e-06
8.25214e-06
8.27685e-06
8.29815e-06
8.31596e-06
8.33026e-06
8.34102e-06
8.3482e-06
8.3518e-06
8.3518e-06
8.3482e-06
8.34102e-06
8.33027e-06
8.31596e-06
8.29815e-06
8.27686e-06
8.25214e-06
8.22405e-06
8.19265e-06
8.15802e-06
8.12022e-06
8.07935e-06
8.03551e-06
7.98877e-06
7.93926e-06
7.88708e-06
7.83234e-06
7.77516e-06
7.71565e-06
7.65394e-06
7.59015e-06
7.52441e-06
7.45688e-06
7.38521e-06
7.18398e-06
7.25427e-06
7.32059e-06
7.38514e-06
7.44778e-06
7.50838e-06
7.56682e-06
7.62298e-06
7.67674e-06
7.728e-06
7.77663e-06
7.82254e-06
7.86562e-06
7.90578e-06
7.94291e-06
7.97694e-06
8.0078e-06
8.0354e-06
8.05969e-06
8.08061e-06
8.09812e-06
8.11218e-06
8.12274e-06
8.1298e-06
8.13334e-06
8.13334e-06
8.1298e-06
8.12274e-06
8.11218e-06
8.09812e-06
8.08062e-06
8.05969e-06
8.0354e-06
8.0078e-06
7.97695e-06
7.94292e-06
7.90578e-06
7.86563e-06
7.82255e-06
7.77664e-06
7.728e-06
7.67675e-06
7.62298e-06
7.56682e-06
7.50838e-06
7.44778e-06
7.38513e-06
7.32058e-06
7.25427e-06
7.18398e-06
6.98442e-06
7.05333e-06
7.11843e-06
7.18179e-06
7.24328e-06
7.30276e-06
7.36013e-06
7.41527e-06
7.46805e-06
7.51838e-06
7.56614e-06
7.61123e-06
7.65354e-06
7.69298e-06
7.72945e-06
7.76288e-06
7.79319e-06
7.8203e-06
7.84416e-06
7.86472e-06
7.88191e-06
7.89572e-06
7.90611e-06
7.91304e-06
7.91651e-06
7.91651e-06
7.91304e-06
7.90611e-06
7.89572e-06
7.88192e-06
7.86472e-06
7.84416e-06
7.8203e-06
7.79319e-06
7.76288e-06
7.72946e-06
7.69298e-06
7.65354e-06
7.61123e-06
7.56615e-06
7.51839e-06
7.46806e-06
7.41527e-06
7.36013e-06
7.30276e-06
7.24327e-06
7.18178e-06
7.11842e-06
7.05333e-06
6.78655e-06
6.85407e-06
6.91795e-06
6.98012e-06
7.04045e-06
7.09882e-06
7.15511e-06
7.20922e-06
7.26103e-06
7.31043e-06
7.35732e-06
7.40158e-06
7.44311e-06
7.48183e-06
7.51765e-06
7.55047e-06
7.58023e-06
7.60685e-06
7.63029e-06
7.65047e-06
7.66736e-06
7.68092e-06
7.69112e-06
7.69793e-06
7.70134e-06
7.70134e-06
7.69793e-06
7.69112e-06
7.68092e-06
7.66736e-06
7.65047e-06
7.63029e-06
7.60686e-06
7.58023e-06
7.55048e-06
7.51765e-06
7.48184e-06
7.44312e-06
7.40158e-06
7.35732e-06
7.31044e-06
7.26104e-06
7.20922e-06
7.15511e-06
7.09882e-06
7.04045e-06
6.98012e-06
6.91795e-06
6.5904e-06
6.65654e-06
6.71919e-06
6.78016e-06
6.83933e-06
6.89658e-06
6.95179e-06
7.00487e-06
7.0557e-06
7.10417e-06
7.15018e-06
7.19361e-06
7.23437e-06
7.27237e-06
7.30752e-06
7.33974e-06
7.36895e-06
7.39508e-06
7.41808e-06
7.4379e-06
7.45448e-06
7.46779e-06
7.4778e-06
7.48449e-06
7.48783e-06
7.48783e-06
7.48449e-06
7.4778e-06
7.46779e-06
7.45448e-06
7.4379e-06
7.41809e-06
7.39509e-06
7.36895e-06
7.33974e-06
7.30753e-06
7.27238e-06
7.23438e-06
7.19361e-06
7.15018e-06
7.10418e-06
7.05571e-06
7.00488e-06
6.9518e-06
6.89658e-06
6.83933e-06
6.78016e-06
6.39599e-06
6.46075e-06
6.52217e-06
6.58194e-06
6.63994e-06
6.69606e-06
6.7502e-06
6.80225e-06
6.85209e-06
6.89963e-06
6.94475e-06
6.98735e-06
7.02734e-06
7.06462e-06
7.0991e-06
7.13071e-06
7.15937e-06
7.18501e-06
7.20758e-06
7.22702e-06
7.24329e-06
7.25635e-06
7.26618e-06
7.27274e-06
7.27602e-06
7.27602e-06
7.27274e-06
7.26618e-06
7.25635e-06
7.24329e-06
7.22702e-06
7.20758e-06
7.18501e-06
7.15937e-06
7.13071e-06
7.09911e-06
7.06462e-06
7.02734e-06
6.98735e-06
6.94475e-06
6.89963e-06
6.85209e-06
6.80225e-06
6.7502e-06
6.69606e-06
6.63994e-06
6.20336e-06
6.26674e-06
6.32691e-06
6.38548e-06
6.4423e-06
6.4973e-06
6.55035e-06
6.60136e-06
6.65022e-06
6.69682e-06
6.74106e-06
6.78283e-06
6.82203e-06
6.85859e-06
6.8924e-06
6.9234e-06
6.95151e-06
6.97666e-06
6.99879e-06
7.01786e-06
7.03382e-06
7.04663e-06
7.05627e-06
7.0627e-06
7.06592e-06
7.06592e-06
7.0627e-06
7.05627e-06
7.04663e-06
7.03382e-06
7.01786e-06
6.99879e-06
6.97666e-06
6.95151e-06
6.92341e-06
6.89241e-06
6.85859e-06
6.82204e-06
6.78283e-06
6.74106e-06
6.69682e-06
6.65022e-06
6.60136e-06
6.55035e-06
6.4973e-06
6.01252e-06
6.07452e-06
6.13346e-06
6.1908e-06
6.24646e-06
6.30032e-06
6.35229e-06
6.40226e-06
6.45012e-06
6.49578e-06
6.53913e-06
6.58006e-06
6.61849e-06
6.65432e-06
6.68746e-06
6.71785e-06
6.7454e-06
6.77005e-06
6.79175e-06
6.81044e-06
6.82609e-06
6.83865e-06
6.8481e-06
6.85441e-06
6.85757e-06
6.85757e-06
6.85441e-06
6.8481e-06
6.83865e-06
6.82609e-06
6.81045e-06
6.79175e-06
6.77005e-06
6.7454e-06
6.71785e-06
6.68747e-06
6.65432e-06
6.61849e-06
6.58007e-06
6.53913e-06
6.49579e-06
6.45013e-06
6.40226e-06
6.35229e-06
6.30032e-06
5.82352e-06
5.88414e-06
5.94182e-06
5.99795e-06
6.05243e-06
6.10515e-06
6.15603e-06
6.20496e-06
6.25183e-06
6.29655e-06
6.339e-06
6.37909e-06
6.41674e-06
6.45183e-06
6.48431e-06
6.51407e-06
6.54107e-06
6.56522e-06
6.58648e-06
6.6048e-06
6.62013e-06
6.63244e-06
6.6417e-06
6.64789e-06
6.65098e-06
6.65098e-06
6.64789e-06
6.6417e-06
6.63245e-06
6.62014e-06
6.60481e-06
6.58649e-06
6.56523e-06
6.54107e-06
6.51408e-06
6.48431e-06
6.45184e-06
6.41674e-06
6.3791e-06
6.339e-06
6.29655e-06
6.25183e-06
6.20496e-06
6.15603e-06
6.10515e-06
5.63638e-06
5.69562e-06
5.75205e-06
5.80695e-06
5.86025e-06
5.91183e-06
5.96161e-06
6.00949e-06
6.05537e-06
6.09914e-06
6.1407e-06
6.17995e-06
6.2168e-06
6.25117e-06
6.28296e-06
6.31211e-06
6.33855e-06
6.3622e-06
6.38302e-06
6.40097e-06
6.41598e-06
6.42804e-06
6.43711e-06
6.44316e-06
6.4462e-06
6.4462e-06
6.44316e-06
6.43711e-06
6.42804e-06
6.41598e-06
6.40097e-06
6.38303e-06
6.36221e-06
6.33855e-06
6.31212e-06
6.28297e-06
6.25117e-06
6.21681e-06
6.17995e-06
6.1407e-06
6.09914e-06
6.05537e-06
6.00949e-06
5.96161e-06
5.91183e-06
5.45114e-06
5.50899e-06
5.56416e-06
5.61784e-06
5.66995e-06
5.72039e-06
5.76907e-06
5.8159e-06
5.86077e-06
5.90359e-06
5.94425e-06
5.98266e-06
6.01872e-06
6.05235e-06
6.08347e-06
6.112e-06
6.13787e-06
6.16102e-06
6.1814e-06
6.19897e-06
6.21367e-06
6.22547e-06
6.23435e-06
6.24028e-06
6.24324e-06
6.24324e-06
6.24027e-06
6.23434e-06
6.22547e-06
6.21367e-06
6.19897e-06
6.18141e-06
6.16103e-06
6.13787e-06
6.112e-06
6.08347e-06
6.05236e-06
6.01873e-06
5.98266e-06
5.94426e-06
5.9036e-06
5.86078e-06
5.8159e-06
5.76907e-06
5.72039e-06
5.26783e-06
5.3243e-06
5.3782e-06
5.43065e-06
5.48156e-06
5.53085e-06
5.57844e-06
5.62421e-06
5.66808e-06
5.70995e-06
5.74971e-06
5.78726e-06
5.82253e-06
5.85542e-06
5.88586e-06
5.91376e-06
5.93907e-06
5.96172e-06
5.98166e-06
5.99884e-06
6.01322e-06
6.02477e-06
6.03345e-06
6.03925e-06
6.04216e-06
6.04216e-06
6.03925e-06
6.03345e-06
6.02477e-06
6.01322e-06
5.99884e-06
5.98166e-06
5.96172e-06
5.93907e-06
5.91376e-06
5.88586e-06
5.85543e-06
5.82254e-06
5.78727e-06
5.74971e-06
5.70995e-06
5.66808e-06
5.62421e-06
5.57844e-06
5.53086e-06
5.08648e-06
5.14158e-06
5.19421e-06
5.24542e-06
5.29513e-06
5.34327e-06
5.38975e-06
5.43447e-06
5.47733e-06
5.51823e-06
5.55709e-06
5.5938e-06
5.62826e-06
5.66041e-06
5.69016e-06
5.71744e-06
5.74218e-06
5.76432e-06
5.78382e-06
5.80062e-06
5.81468e-06
5.82597e-06
5.83446e-06
5.84013e-06
5.84297e-06
5.84297e-06
5.84013e-06
5.83446e-06
5.82597e-06
5.81468e-06
5.80062e-06
5.78382e-06
5.76433e-06
5.74218e-06
5.71744e-06
5.69017e-06
5.66042e-06
5.62827e-06
5.5938e-06
5.55709e-06
5.51824e-06
5.47733e-06
5.43447e-06
5.38975e-06
5.34328e-06
4.90714e-06
4.96085e-06
5.01221e-06
5.06218e-06
5.11069e-06
5.15768e-06
5.20304e-06
5.2467e-06
5.28855e-06
5.3285e-06
5.36644e-06
5.40229e-06
5.43596e-06
5.46737e-06
5.49643e-06
5.52308e-06
5.54725e-06
5.56888e-06
5.58793e-06
5.60434e-06
5.61808e-06
5.62911e-06
5.63741e-06
5.64296e-06
5.64573e-06
5.64573e-06
5.64296e-06
5.63741e-06
5.62912e-06
5.61808e-06
5.60434e-06
5.58793e-06
5.56888e-06
5.54725e-06
5.52308e-06
5.49643e-06
5.46737e-06
5.43596e-06
5.40229e-06
5.36644e-06
5.3285e-06
5.28855e-06
5.2467e-06
5.20304e-06
4.72984e-06
4.78217e-06
4.83225e-06
4.88097e-06
4.92828e-06
4.97411e-06
5.01836e-06
5.06095e-06
5.10179e-06
5.14077e-06
5.1778e-06
5.2128e-06
5.24566e-06
5.27632e-06
5.30469e-06
5.3307e-06
5.3543e-06
5.37543e-06
5.39402e-06
5.41005e-06
5.42347e-06
5.43424e-06
5.44235e-06
5.44776e-06
5.45047e-06
5.45047e-06
5.44776e-06
5.44235e-06
5.43424e-06
5.42347e-06
5.41005e-06
5.39403e-06
5.37543e-06
5.3543e-06
5.33071e-06
5.30469e-06
5.27632e-06
5.24566e-06
5.2128e-06
5.17781e-06
5.14077e-06
5.10179e-06
5.06095e-06
5.01836e-06
4.55462e-06
4.60557e-06
4.65436e-06
4.70184e-06