/*--------------------------------*- C++ -*----------------------------------*\
  =========                 |
  \\      /  F ield         | OpenFOAM: The Open Source CFD Toolbox
   \\    /   O peration     | Website:  https://openfoam.org
    \\  /    A nd           | Version:  7
     \\/     M anipulation  |
\*---------------------------------------------------------------------------*/
FoamFile
{
    version     2.0;
    format      ascii;
    class       volScalarField;
    location    "156000";
    object      p;
}
// * * * * * * * * * * * * * * * * * * * * * * * * * * * * * * * * * * * * * //

dimensions      [0 2 -2 0 0 0 0];

internalField   nonuniform List<scalar> 
4782
(
-2.41883e-18
-2.41941e-18
-2.42009e-18
-2.42117e-18
-2.42314e-18
-2.4201e-18
-2.41801e-18
-2.42012e-18
-2.4218e-18
-2.41933e-18
-2.3911e-18
-2.39082e-18
-2.40419e-18
-2.40445e-18
-2.39885e-18
-2.41573e-18
-2.40675e-18
-2.39106e-18
-2.39575e-18
-2.39367e-18
-2.3943e-18
-2.39876e-18
-2.39986e-18
-2.40073e-18
-2.3999e-18
-2.40241e-18
-2.40327e-18
-2.40149e-18
-2.40181e-18
-2.39689e-18
-2.40324e-18
-2.41571e-18
-2.42444e-18
-2.41135e-18
-2.40749e-18
-2.40199e-18
-2.40313e-18
-2.41075e-18
-2.41434e-18
-2.41239e-18
-2.40774e-18
-2.40738e-18
-2.41724e-18
-2.41588e-18
-2.41461e-18
-2.40988e-18
-2.41373e-18
-2.41757e-18
-2.41122e-18
-2.41168e-18
-2.41806e-18
-2.4129e-18
-2.41228e-18
-2.42005e-18
-2.4196e-18
-2.41217e-18
-2.40918e-18
-2.40757e-18
-2.41587e-18
-2.4169e-18
-2.41602e-18
-2.4141e-18
-2.40939e-18
-2.40793e-18
-2.41581e-18
-2.41851e-18
-2.42104e-18
-2.41508e-18
-2.41539e-18
-2.41611e-18
-2.41739e-18
-2.42342e-18
-2.42342e-18
-2.41987e-18
-2.42948e-18
-2.41963e-18
-2.41967e-18
-2.42109e-18
-2.41896e-18
-2.41438e-18
-2.42478e-18
-2.43009e-18
-2.4305e-18
-2.42149e-18
-2.42253e-18
-2.41983e-18
-2.42407e-18
-2.42133e-18
-2.41644e-18
-2.41675e-18
-2.42085e-18
-2.41795e-18
-2.40863e-18
-2.41858e-18
-2.42405e-18
-2.41907e-18
-2.41802e-18
-2.42304e-18
-2.42136e-18
-2.41612e-18
-2.41489e-18
-2.42315e-18
-2.42616e-18
-2.42073e-18
-2.41876e-18
-2.41653e-18
-2.42166e-18
-2.41673e-18
-2.41988e-18
-2.41607e-18
-2.41938e-18
-2.42207e-18
-2.41997e-18
-2.41824e-18
-2.41897e-18
-2.4197e-18
-2.42301e-18
-2.42001e-18
-2.41712e-18
-2.41695e-18
-2.41299e-18
-2.39618e-18
-2.40325e-18
-2.4026e-18
-2.39684e-18
-2.4006e-18
-2.40384e-18
-2.40988e-18
-2.42406e-18
-2.41677e-18
-2.41341e-18
-2.41095e-18
-2.40119e-18
-2.39915e-18
-2.41141e-18
-2.41734e-18
-2.42144e-18
-2.42006e-18
-2.41937e-18
-2.41214e-18
-2.41604e-18
-2.41696e-18
-2.42156e-18
-2.42605e-18
-2.42585e-18
-2.42858e-18
-2.42383e-18
-2.42246e-18
-2.41994e-18
-2.42128e-18
-2.42708e-18
-2.42057e-18
-2.42383e-18
-2.42111e-18
-2.41975e-18
-2.41691e-18
-2.42555e-18
-2.42373e-18
-2.42151e-18
-2.42089e-18
-2.42054e-18
-2.4195e-18
-2.41904e-18
-2.41581e-18
-2.41706e-18
-2.4232e-18
-2.42057e-18
-2.41989e-18
-2.42189e-18
-2.41794e-18
-2.41559e-18
-2.4186e-18
-2.41948e-18
-2.41994e-18
-2.41763e-18
-2.4201e-18
-2.42872e-18
-2.42867e-18
-2.42118e-18
-2.41761e-18
-2.41218e-18
-2.4157e-18
-2.42688e-18
-2.42845e-18
-2.42913e-18
-2.42095e-18
-2.41723e-18
-2.41965e-18
-2.4307e-18
-2.43422e-18
-2.43286e-18
-2.43189e-18
-2.43538e-18
-2.42846e-18
-2.4337e-18
-2.4374e-18
-2.43643e-18
-2.42569e-18
-2.43103e-18
-2.43546e-18
-2.43659e-18
-2.42509e-18
-2.43308e-18
-2.43704e-18
-2.44035e-18
-2.44113e-18
-2.43147e-18
-2.43136e-18
-2.44481e-18
-2.43674e-18
-2.42931e-18
-2.43557e-18
-2.43938e-18
-2.4379e-18
-2.43854e-18
-2.4335e-18
-2.42958e-18
-2.42857e-18
-2.4282e-18
-2.43322e-18
-2.43384e-18
-2.43821e-18
-2.43564e-18
-2.42805e-18
-2.4316e-18
-2.43097e-18
-2.42966e-18
-2.42843e-18
-2.42849e-18
-2.42963e-18
-2.42491e-18
-2.41718e-18
-2.41844e-18
-2.41935e-18
-2.42004e-18
-2.42166e-18
-2.42098e-18
-2.4234e-18
-2.41595e-18
-2.40417e-18
-2.41695e-18
-2.42762e-18
-2.42638e-18
-2.41444e-18
-2.40994e-18
-2.41652e-18
-2.42456e-18
-2.41963e-18
-2.42515e-18
-2.42217e-18
-2.43019e-18
-2.4255e-18
-2.43467e-18
-2.43255e-18
-2.43044e-18
-2.43206e-18
-2.44347e-18
-2.43182e-18
-2.42673e-18
-2.42902e-18
-2.43158e-18
-2.43215e-18
-2.4349e-18
-2.42335e-18
-2.43191e-18
-2.43952e-18
-2.43422e-18
-2.43243e-18
-2.43231e-18
-2.43247e-18
-2.43227e-18
-2.43299e-18
-2.43433e-18
-2.43689e-18
-2.43109e-18
-2.43093e-18
-2.42479e-18
-2.42538e-18
-2.43025e-18
-2.42675e-18
-2.42642e-18
-2.42682e-18
-2.42794e-18
-2.42865e-18
-2.4265e-18
-2.42427e-18
-2.43366e-18
-2.42686e-18
-2.42845e-18
-2.4313e-18
-2.43434e-18
-2.43986e-18
-2.43596e-18
-2.42151e-18
-2.42742e-18
-2.43687e-18
-2.44039e-18
-2.45032e-18
-2.45466e-18
-2.44588e-18
-2.43535e-18
-2.42775e-18
-2.43315e-18
-2.43637e-18
-2.44529e-18
-2.44046e-18
-2.43769e-18
-2.43783e-18
-2.43808e-18
-2.43629e-18
-2.43254e-18
-2.43798e-18
-2.43394e-18
-2.43748e-18
-2.43087e-18
-2.42945e-18
-2.43567e-18
-2.43847e-18
-2.44022e-18
-2.43921e-18
-2.44075e-18
-2.43393e-18
-2.43309e-18
-2.43465e-18
-2.43523e-18
-2.4352e-18
-2.43457e-18
-2.4343e-18
-2.43923e-18
-2.43514e-18
-2.42882e-18
-2.43436e-18
-2.4331e-18
-2.42972e-18
-2.4323e-18
-2.43432e-18
-2.42916e-18
-2.43138e-18
-2.43028e-18
-2.43266e-18
-2.43304e-18
-2.4305e-18
-2.42925e-18
-2.43157e-18
-2.43077e-18
-2.42925e-18
-2.42631e-18
-2.42904e-18
-2.43049e-18
-2.42939e-18
-2.42695e-18
-2.43389e-18
-2.43072e-18
-2.41793e-18
-2.42916e-18
-2.42965e-18
-2.42674e-18
-2.4263e-18
-2.43423e-18
-2.42609e-18
-2.42355e-18
-2.42412e-18
-2.42674e-18
-2.42629e-18
-2.43044e-18
-2.42626e-18
-2.4295e-18
-2.43351e-18
-2.4301e-18
-2.42789e-18
-2.43754e-18
-2.44575e-18
-2.43395e-18
-2.42588e-18
-2.42754e-18
-2.43213e-18
-2.42794e-18
-2.43076e-18
-2.43928e-18
-2.4402e-18
-2.42887e-18
-2.42595e-18
-2.4325e-18
-2.42995e-18
-2.43192e-18
-2.4297e-18
-2.4334e-18
-2.43087e-18
-2.43376e-18
-2.43364e-18
-2.43035e-18
-2.43214e-18
-2.43386e-18
-2.4315e-18
-2.43286e-18
-2.43005e-18
-2.42855e-18
-2.42961e-18
-2.43086e-18
-2.42996e-18
-2.43212e-18
-2.433e-18
-2.43364e-18
-2.43027e-18
-2.43856e-18
-2.44126e-18
-2.43618e-18
-2.4362e-18
-2.44693e-18
-2.44143e-18
-2.44772e-18
-2.44916e-18
-2.4435e-18
-2.43836e-18
-2.43796e-18
-2.44413e-18
-2.45172e-18
-2.44566e-18
-2.4451e-18
-2.44192e-18
-2.44152e-18
-2.44383e-18
-2.44327e-18
-2.44853e-18
-2.44354e-18
-2.43118e-18
-2.42653e-18
-2.43887e-18
-2.43656e-18
-2.4445e-18
-2.448e-18
-2.43734e-18
-2.43119e-18
-2.43497e-18
-2.44073e-18
-2.44081e-18
-2.43043e-18
-2.43169e-18
-2.43324e-18
-2.43685e-18
-2.43121e-18
-2.42733e-18
-2.43703e-18
-2.43792e-18
-2.43232e-18
-2.43835e-18
-2.43866e-18
-2.4316e-18
-2.43253e-18
-2.44081e-18
-2.44144e-18
-2.44099e-18
-2.43591e-18
-2.43718e-18
-2.43609e-18
-2.43607e-18
-2.43885e-18
-2.43767e-18
-2.4356e-18
-2.43512e-18
-2.43536e-18
-2.44028e-18
-2.43775e-18
-2.43741e-18
-2.43437e-18
-2.43391e-18
-2.4352e-18
-2.43806e-18
-2.43714e-18
-2.43372e-18
-2.43573e-18
-2.43491e-18
-2.43546e-18
-2.43516e-18
-2.43574e-18
-2.43678e-18
-2.43565e-18
-2.43603e-18
-2.43531e-18
-2.43571e-18
-2.43623e-18
-2.43678e-18
-2.43618e-18
-2.4363e-18
-2.43645e-18
-2.43613e-18
-2.43614e-18
-2.43634e-18
-2.4361e-18
-2.43656e-18
-2.43636e-18
-2.43615e-18
-2.43645e-18
-2.43663e-18
-2.43663e-18
-2.43649e-18
-2.43646e-18
-2.43641e-18
-2.4364e-18
-2.41134e-18
-2.42324e-18
-2.42697e-18
-2.42529e-18
-2.41156e-18
-2.4195e-18
-2.4221e-18
-2.43054e-18
-2.42626e-18
-2.42787e-18
-2.42689e-18
-2.42357e-18
-2.42814e-18
-2.43304e-18
-2.43045e-18
-2.43098e-18
-2.4318e-18
-2.4247e-18
-2.4342e-18
-2.4411e-18
-2.43866e-18
-2.43661e-18
-2.43323e-18
-2.4325e-18
-2.43295e-18
-2.43284e-18
-2.43381e-18
-2.43954e-18
-2.43791e-18
-2.43314e-18
-2.43106e-18
-2.43615e-18
-2.43765e-18
-2.44136e-18
-2.43846e-18
-2.44062e-18
-2.44298e-18
-2.4415e-18
-2.43768e-18
-2.43489e-18
-2.43597e-18
-2.43796e-18
-2.43639e-18
-2.436e-18
-2.43528e-18
-2.4372e-18
-2.43611e-18
-2.43614e-18
-2.43501e-18
-2.43277e-18
-2.43582e-18
-2.43746e-18
-2.43496e-18
-2.43396e-18
-2.43593e-18
-2.43474e-18
-2.43572e-18
-2.4335e-18
-2.434e-18
-2.43284e-18
-2.43217e-18
-2.43368e-18
-2.4322e-18
-2.43439e-18
-2.43782e-18
-2.43525e-18
-2.43366e-18
-2.43447e-18
-2.43372e-18
-2.43478e-18
-2.43511e-18
-2.43513e-18
-2.43377e-18
-2.43329e-18
-2.43364e-18
-2.43384e-18
-2.43367e-18
-2.43413e-18
-2.43363e-18
-2.43369e-18
-2.43423e-18
-2.4336e-18
-2.43396e-18
-2.43401e-18
-2.43404e-18
-2.43367e-18
-2.43353e-18
-2.43375e-18
-2.43364e-18
-2.43384e-18
-2.43388e-18
-2.43365e-18
-2.43387e-18
-2.4339e-18
-2.43388e-18
-2.44185e-18
-2.4509e-18
-2.45493e-18
-2.44833e-18
-2.44821e-18
-2.44342e-18
-2.44387e-18
-2.45146e-18
-2.44857e-18
-2.45043e-18
-2.43682e-18
-2.43307e-18
-2.45014e-18
-2.45419e-18
-2.44662e-18
-2.43803e-18
-2.44325e-18
-2.44903e-18
-2.44094e-18
-2.4414e-18
-2.44323e-18
-2.44419e-18
-2.44349e-18
-2.44164e-18
-2.44429e-18
-2.44319e-18
-2.43843e-18
-2.44165e-18
-2.44119e-18
-2.44873e-18
-2.4476e-18
-2.4447e-18
-2.44573e-18
-2.44384e-18
-2.44894e-18
-2.46234e-18
-2.45381e-18
-2.45079e-18
-2.44961e-18
-2.45051e-18
-2.44856e-18
-2.44833e-18
-2.45007e-18
-2.44936e-18
-2.44845e-18
-2.44733e-18
-2.44072e-18
-2.44195e-18
-2.44483e-18
-2.45098e-18
-2.44585e-18
-2.44611e-18
-2.44844e-18
-2.45077e-18
-2.44874e-18
-2.4467e-18
-2.44892e-18
-2.44899e-18
-2.44683e-18
-2.44796e-18
-2.44424e-18
-2.44528e-18
-2.44603e-18
-2.44491e-18
-2.44659e-18
-2.44674e-18
-2.44717e-18
-2.44902e-18
-2.44838e-18
-2.44751e-18
-2.44618e-18
-2.44571e-18
-2.44629e-18
-2.44688e-18
-2.4474e-18
-2.44629e-18
-2.4464e-18
-2.44677e-18
-2.44704e-18
-2.44744e-18
-2.44714e-18
-2.44666e-18
-2.44657e-18
-2.44716e-18
-2.44698e-18
-2.4464e-18
-2.44646e-18
-2.44666e-18
-2.4467e-18
-2.44691e-18
-2.44693e-18
-2.44679e-18
-2.44667e-18
-2.44682e-18
-2.44682e-18
-2.4201e-18
-2.42711e-18
-2.42243e-18
-2.43439e-18
-2.42722e-18
-2.42652e-18
-2.4354e-18
-2.43725e-18
-2.44434e-18
-2.44149e-18
-2.42982e-18
-2.43266e-18
-2.43941e-18
-2.43963e-18
-2.43447e-18
-2.4409e-18
-2.44135e-18
-2.43733e-18
-2.44535e-18
-2.44253e-18
-2.44242e-18
-2.43766e-18
-2.43763e-18
-2.43512e-18
-2.44153e-18
-2.44383e-18
-2.43635e-18
-2.44005e-18
-2.44357e-18
-2.45218e-18
-2.44448e-18
-2.44261e-18
-2.44223e-18
-2.45039e-18
-2.44444e-18
-2.43994e-18
-2.44382e-18
-2.44681e-18
-2.45313e-18
-2.4452e-18
-2.44689e-18
-2.44789e-18
-2.44919e-18
-2.44701e-18
-2.44605e-18
-2.44926e-18
-2.45064e-18
-2.44915e-18
-2.44348e-18
-2.44559e-18
-2.44571e-18
-2.44682e-18
-2.44634e-18
-2.44808e-18
-2.44706e-18
-2.4441e-18
-2.44732e-18
-2.44534e-18
-2.44622e-18
-2.44832e-18
-2.44806e-18
-2.44466e-18
-2.44496e-18
-2.44663e-18
-2.44557e-18
-2.44699e-18
-2.44697e-18
-2.44611e-18
-2.44548e-18
-2.44677e-18
-2.44628e-18
-2.4458e-18
-2.4466e-18
-2.44572e-18
-2.44597e-18
-2.44637e-18
-2.44588e-18
-2.44596e-18
-2.44508e-18
-2.44539e-18
-2.44542e-18
-2.44604e-18
-2.44614e-18
-2.44592e-18
-2.44592e-18
-2.44574e-18
-2.44576e-18
-2.44561e-18
-2.44564e-18
-2.44575e-18
-2.44584e-18
-2.44582e-18
-2.44572e-18
-2.44573e-18
-2.44578e-18
-2.46289e-18
-2.45159e-18
-2.44356e-18
-2.44553e-18
-2.43279e-18
-2.44103e-18
-2.44277e-18
-2.4369e-18
-2.4465e-18
-2.45508e-18
-2.44575e-18
-2.44759e-18
-2.45293e-18
-2.45148e-18
-2.45145e-18
-2.44586e-18
-2.45086e-18
-2.45609e-18
-2.44692e-18
-2.4526e-18
-2.452e-18
-2.45619e-18
-2.46158e-18
-2.45142e-18
-2.45822e-18
-2.45286e-18
-2.44693e-18
-2.45285e-18
-2.45394e-18
-2.45718e-18
-2.45541e-18
-2.45074e-18
-2.45083e-18
-2.45253e-18
-2.45543e-18
-2.45442e-18
-2.45424e-18
-2.45066e-18
-2.4548e-18
-2.45896e-18
-2.44759e-18
-2.44783e-18
-2.45253e-18
-2.45406e-18
-2.45319e-18
-2.45149e-18
-2.45486e-18
-2.45475e-18
-2.45157e-18
-2.45623e-18
-2.45814e-18
-2.45589e-18
-2.45401e-18
-2.45699e-18
-2.45847e-18
-2.45663e-18
-2.45466e-18
-2.45697e-18
-2.45861e-18
-2.4564e-18
-2.45428e-18
-2.4554e-18
-2.45683e-18
-2.45626e-18
-2.45601e-18
-2.45528e-18
-2.45537e-18
-2.45607e-18
-2.45654e-18
-2.4561e-18
-2.4557e-18
-2.45677e-18
-2.45715e-18
-2.45584e-18
-2.4568e-18
-2.45643e-18
-2.45692e-18
-2.45706e-18
-2.45723e-18
-2.45676e-18
-2.45723e-18
-2.4568e-18
-2.45643e-18
-2.45668e-18
-2.45699e-18
-2.45656e-18
-2.45612e-18
-2.45649e-18
-2.45643e-18
-2.45644e-18
-2.45657e-18
-2.45658e-18
-2.45653e-18
-2.45651e-18
-2.45651e-18
-2.43131e-18
-2.43794e-18
-2.44015e-18
-2.43595e-18
-2.4255e-18
-2.43305e-18
-2.43876e-18
-2.43518e-18
-2.43576e-18
-2.44452e-18
-2.42615e-18
-2.43271e-18
-2.43346e-18
-2.43369e-18
-2.43555e-18
-2.43293e-18
-2.43385e-18
-2.43816e-18
-2.43194e-18
-2.43714e-18
-2.43914e-18
-2.43753e-18
-2.44042e-18
-2.43975e-18
-2.43486e-18
-2.43868e-18
-2.44249e-18
-2.44476e-18
-2.44514e-18
-2.43847e-18
-2.44269e-18
-2.44544e-18
-2.44382e-18
-2.43714e-18
-2.4467e-18
-2.45266e-18
-2.44875e-18
-2.44027e-18
-2.44182e-18
-2.44589e-18
-2.44873e-18
-2.44783e-18
-2.4472e-18
-2.44368e-18
-2.44936e-18
-2.447e-18
-2.44816e-18
-2.45212e-18
-2.45311e-18
-2.45073e-18
-2.44563e-18
-2.45061e-18
-2.45309e-18
-2.45269e-18
-2.45103e-18
-2.45199e-18
-2.45499e-18
-2.45276e-18
-2.45211e-18
-2.45229e-18
-2.45043e-18
-2.45009e-18
-2.45367e-18
-2.45412e-18
-2.45222e-18
-2.4525e-18
-2.45334e-18
-2.45271e-18
-2.45328e-18
-2.45341e-18
-2.45313e-18
-2.45384e-18
-2.4538e-18
-2.4544e-18
-2.45419e-18
-2.45403e-18
-2.45386e-18
-2.45445e-18
-2.45446e-18
-2.4548e-18
-2.45402e-18
-2.45437e-18
-2.45487e-18
-2.45492e-18
-2.45461e-18
-2.45436e-18
-2.45463e-18
-2.45498e-18
-2.45517e-18
-2.45487e-18
-2.45475e-18
-2.45476e-18
-2.45486e-18
-2.45486e-18
-2.45485e-18
-2.46182e-18
-2.46051e-18
-2.4617e-18
-2.4533e-18
-2.44449e-18
-2.45918e-18
-2.45189e-18
-2.45072e-18
-2.45677e-18
-2.45143e-18
-2.44853e-18
-2.45466e-18
-2.45072e-18
-2.44518e-18
-2.4542e-18
-2.4544e-18
-2.455e-18
-2.45836e-18
-2.4548e-18
-2.45263e-18
-2.46097e-18
-2.46555e-18
-2.46062e-18
-2.45879e-18
-2.4538e-18
-2.4642e-18
-2.46465e-18
-2.46092e-18
-2.45992e-18
-2.45996e-18
-2.45862e-18
-2.45551e-18
-2.45872e-18
-2.45258e-18
-2.45928e-18
-2.4623e-18
-2.45488e-18
-2.45254e-18
-2.4558e-18
-2.4611e-18
-2.46507e-18
-2.45956e-18
-2.45421e-18
-2.45655e-18
-2.46104e-18
-2.45548e-18
-2.45958e-18
-2.4593e-18
-2.45736e-18
-2.45882e-18
-2.45973e-18
-2.4599e-18
-2.45959e-18
-2.46009e-18
-2.45963e-18
-2.46066e-18
-2.45841e-18
-2.45943e-18
-2.4619e-18
-2.46305e-18
-2.46211e-18
-2.46443e-18
-2.46295e-18
-2.46089e-18
-2.45909e-18
-2.46126e-18
-2.46234e-18
-2.46181e-18
-2.46247e-18
-2.46368e-18
-2.46277e-18
-2.46301e-18
-2.46224e-18
-2.46277e-18
-2.46274e-18
-2.4625e-18
-2.46309e-18
-2.46343e-18
-2.46383e-18
-2.4637e-18
-2.46366e-18
-2.46374e-18
-2.4638e-18
-2.46362e-18
-2.46319e-18
-2.46365e-18
-2.46385e-18
-2.46388e-18
-2.46417e-18
-2.46397e-18
-2.46398e-18
-2.46405e-18
-2.46399e-18
-2.46397e-18
-2.46399e-18
-2.4199e-18
-2.41918e-18
-2.42788e-18
-2.43423e-18
-2.4411e-18
-2.43506e-18
-2.4397e-18
-2.42913e-18
-2.43573e-18
-2.4428e-18
-2.43445e-18
-2.44485e-18
-2.43823e-18
-2.4345e-18
-2.44866e-18
-2.44246e-18
-2.4479e-18
-2.45123e-18
-2.44344e-18
-2.44297e-18
-2.43705e-18
-2.44675e-18
-2.44419e-18
-2.44392e-18
-2.44767e-18
-2.44515e-18
-2.43851e-18
-2.45201e-18
-2.44851e-18
-2.45369e-18
-2.45219e-18
-2.4509e-18
-2.44944e-18
-2.45612e-18
-2.45735e-18
-2.465e-18
-2.46023e-18
-2.4629e-18
-2.45856e-18
-2.45937e-18
-2.46039e-18
-2.46029e-18
-2.4598e-18
-2.46401e-18
-2.46034e-18
-2.45604e-18
-2.45566e-18
-2.45721e-18
-2.45834e-18
-2.4577e-18
-2.45728e-18
-2.45652e-18
-2.45465e-18
-2.45732e-18
-2.46009e-18
-2.45911e-18
-2.4581e-18
-2.45706e-18
-2.45765e-18
-2.45707e-18
-2.45802e-18
-2.4598e-18
-2.45959e-18
-2.45962e-18
-2.45783e-18
-2.45759e-18
-2.45878e-18
-2.45997e-18
-2.46019e-18
-2.45894e-18
-2.4583e-18
-2.46053e-18
-2.45959e-18
-2.45846e-18
-2.45911e-18
-2.45947e-18
-2.45936e-18
-2.45924e-18
-2.46001e-18
-2.46007e-18
-2.45907e-18
-2.45915e-18
-2.45961e-18
-2.45974e-18
-2.45972e-18
-2.45978e-18
-2.45983e-18
-2.45982e-18
-2.45978e-18
-2.45993e-18
-2.45991e-18
-2.46002e-18
-2.45993e-18
-2.45996e-18
-2.45994e-18
-2.43844e-18
-2.44522e-18
-2.44662e-18
-2.44394e-18
-2.4453e-18
-2.4528e-18
-2.46093e-18
-2.44723e-18
-2.44732e-18
-2.45087e-18
-2.44927e-18
-2.44478e-18
-2.44549e-18
-2.45652e-18
-2.45256e-18
-2.45277e-18
-2.44718e-18
-2.44642e-18
-2.46141e-18
-2.46319e-18
-2.46158e-18
-2.46174e-18
-2.46843e-18
-2.4655e-18
-2.45855e-18
-2.46094e-18
-2.46724e-18
-2.47621e-18
-2.473e-18
-2.47223e-18
-2.47129e-18
-2.47136e-18
-2.47204e-18
-2.47448e-18
-2.47714e-18
-2.47151e-18
-2.47875e-18
-2.47187e-18
-2.47009e-18
-2.47498e-18
-2.47457e-18
-2.4753e-18
-2.47453e-18
-2.47708e-18
-2.47565e-18
-2.46701e-18
-2.47564e-18
-2.4769e-18
-2.47367e-18
-2.47172e-18
-2.47342e-18
-2.473e-18
-2.47452e-18
-2.47225e-18
-2.47359e-18
-2.47299e-18
-2.47482e-18
-2.47437e-18
-2.47423e-18
-2.47318e-18
-2.47264e-18
-2.47187e-18
-2.47436e-18
-2.47479e-18
-2.47292e-18
-2.47425e-18
-2.47427e-18
-2.47341e-18
-2.47353e-18
-2.47321e-18
-2.47279e-18
-2.47134e-18
-2.47138e-18
-2.47131e-18
-2.47205e-18
-2.47266e-18
-2.47259e-18
-2.47275e-18
-2.47329e-18
-2.47303e-18
-2.47323e-18
-2.4725e-18
-2.47254e-18
-2.4728e-18
-2.47266e-18
-2.47244e-18
-2.47219e-18
-2.47241e-18
-2.47254e-18
-2.47257e-18
-2.47248e-18
-2.47252e-18
-2.47259e-18
-2.47258e-18
-2.47255e-18
-2.42419e-18
-2.43494e-18
-2.43065e-18
-2.4272e-18
-2.42797e-18
-2.42816e-18
-2.43799e-18
-2.445e-18
-2.44733e-18
-2.43981e-18
-2.44505e-18
-2.45006e-18
-2.4518e-18
-2.44621e-18
-2.44756e-18
-2.45076e-18
-2.45682e-18
-2.45016e-18
-2.456e-18
-2.4488e-18
-2.45112e-18
-2.45864e-18
-2.46183e-18
-2.45184e-18
-2.45445e-18
-2.46462e-18
-2.46775e-18
-2.45773e-18
-2.45454e-18
-2.46293e-18
-2.46381e-18
-2.4626e-18
-2.4589e-18
-2.45732e-18
-2.4626e-18
-2.46204e-18
-2.46278e-18
-2.46504e-18
-2.46225e-18
-2.46005e-18
-2.46476e-18
-2.46392e-18
-2.46717e-18
-2.46799e-18
-2.47149e-18
-2.46963e-18
-2.46835e-18
-2.4673e-18
-2.47307e-18
-2.47472e-18
-2.47192e-18
-2.46887e-18
-2.4716e-18
-2.47369e-18
-2.47522e-18
-2.47329e-18
-2.4721e-18
-2.46915e-18
-2.46939e-18
-2.47166e-18
-2.46903e-18
-2.47139e-18
-2.47074e-18
-2.4693e-18
-2.47068e-18
-2.47071e-18
-2.47027e-18
-2.46963e-18
-2.46964e-18
-2.47009e-18
-2.4692e-18
-2.46816e-18
-2.46889e-18
-2.46856e-18
-2.46808e-18
-2.46857e-18
-2.46912e-18
-2.46906e-18
-2.46797e-18
-2.46794e-18
-2.46825e-18
-2.46778e-18
-2.46774e-18
-2.4681e-18
-2.46812e-18
-2.46783e-18
-2.46773e-18
-2.46783e-18
-2.46812e-18
-2.4682e-18
-2.46812e-18
-2.46787e-18
-2.46803e-18
-2.46812e-18
-2.4681e-18
-2.44609e-18
-2.44683e-18
-2.43368e-18
-2.43616e-18
-2.43999e-18
-2.43815e-18
-2.43871e-18
-2.44933e-18
-2.4456e-18
-2.4462e-18
-2.45016e-18
-2.45751e-18
-2.46192e-18
-2.45525e-18
-2.45297e-18
-2.45283e-18
-2.45968e-18
-2.46265e-18
-2.46202e-18
-2.46962e-18
-2.4676e-18
-2.46727e-18
-2.4698e-18
-2.4711e-18
-2.47135e-18
-2.47363e-18
-2.47268e-18
-2.48041e-18
-2.47219e-18
-2.47045e-18
-2.46888e-18
-2.47615e-18
-2.47692e-18
-2.48217e-18
-2.47677e-18
-2.47721e-18
-2.48294e-18
-2.47595e-18
-2.47659e-18
-2.48222e-18
-2.48188e-18
-2.48072e-18
-2.48141e-18
-2.48354e-18
-2.48235e-18
-2.48254e-18
-2.47988e-18
-2.48064e-18
-2.48267e-18
-2.4825e-18
-2.4786e-18
-2.48269e-18
-2.48312e-18
-2.47774e-18
-2.47832e-18
-2.47968e-18
-2.48178e-18
-2.47809e-18
-2.47819e-18
-2.48308e-18
-2.48333e-18
-2.47847e-18
-2.47815e-18
-2.47947e-18
-2.48052e-18
-2.47968e-18
-2.47839e-18
-2.47933e-18
-2.47988e-18
-2.47942e-18
-2.47919e-18
-2.47791e-18
-2.47947e-18
-2.48006e-18
-2.47876e-18
-2.4789e-18
-2.47965e-18
-2.47903e-18
-2.47835e-18
-2.47875e-18
-2.47907e-18
-2.47878e-18
-2.47879e-18
-2.47884e-18
-2.47865e-18
-2.47884e-18
-2.47884e-18
-2.4787e-18
-2.47865e-18
-2.47865e-18
-2.47863e-18
-2.47857e-18
-2.4786e-18
-2.47862e-18
-2.47865e-18
-2.44044e-18
-2.42984e-18
-2.43583e-18
-2.43349e-18
-2.4416e-18
-2.4425e-18
-2.44332e-18
-2.43849e-18
-2.449e-18
-2.44403e-18
-2.43909e-18
-2.44242e-18
-2.44431e-18
-2.44885e-18
-2.45011e-18
-2.4522e-18
-2.45115e-18
-2.44889e-18
-2.45697e-18
-2.45908e-18
-2.46004e-18
-2.46264e-18
-2.46237e-18
-2.46109e-18
-2.45741e-18
-2.45701e-18
-2.4529e-18
-2.46037e-18
-2.46456e-18
-2.45996e-18
-2.46047e-18
-2.45879e-18
-2.45883e-18
-2.4571e-18
-2.46191e-18
-2.46384e-18
-2.46629e-18
-2.46496e-18
-2.46384e-18
-2.46809e-18
-2.46703e-18
-2.46386e-18
-2.46517e-18
-2.46662e-18
-2.46728e-18
-2.46383e-18
-2.46665e-18
-2.46724e-18
-2.46771e-18
-2.46298e-18
-2.46541e-18
-2.4685e-18
-2.46613e-18
-2.46629e-18
-2.46662e-18
-2.47105e-18
-2.47027e-18
-2.46783e-18
-2.46755e-18
-2.46667e-18
-2.46659e-18
-2.46675e-18
-2.46683e-18
-2.46725e-18
-2.46882e-18
-2.46983e-18
-2.4689e-18
-2.46891e-18
-2.46903e-18
-2.46959e-18
-2.47031e-18
-2.46971e-18
-2.46917e-18
-2.46936e-18
-2.47046e-18
-2.47e-18
-2.46983e-18
-2.47043e-18
-2.46971e-18
-2.46935e-18
-2.46888e-18
-2.46951e-18
-2.46988e-18
-2.4694e-18
-2.46955e-18
-2.46978e-18
-2.46972e-18
-2.46978e-18
-2.46972e-18
-2.46955e-18
-2.46967e-18
-2.46969e-18
-2.4696e-18
-2.46957e-18
-2.46957e-18
-2.44599e-18
-2.43358e-18
-2.4323e-18
-2.43816e-18
-2.45006e-18
-2.44954e-18
-2.44702e-18
-2.44603e-18
-2.44878e-18
-2.44404e-18
-2.44918e-18
-2.45028e-18
-2.45575e-18
-2.45314e-18
-2.45796e-18
-2.45995e-18
-2.46208e-18
-2.46144e-18
-2.46294e-18
-2.46354e-18
-2.46989e-18
-2.46615e-18
-2.46624e-18
-2.46998e-18
-2.47116e-18
-2.46904e-18
-2.46758e-18
-2.46933e-18
-2.47078e-18
-2.47354e-18
-2.47599e-18
-2.47507e-18
-2.47049e-18
-2.46994e-18
-2.47558e-18
-2.47534e-18
-2.47378e-18
-2.47881e-18
-2.48007e-18
-2.47771e-18
-2.47247e-18
-2.47439e-18
-2.47568e-18
-2.47416e-18
-2.47055e-18
-2.47323e-18
-2.47382e-18
-2.47478e-18
-2.47521e-18
-2.47317e-18
-2.47652e-18
-2.47608e-18
-2.47545e-18
-2.47543e-18
-2.47498e-18
-2.47535e-18
-2.4748e-18
-2.47407e-18
-2.47295e-18
-2.47488e-18
-2.47443e-18
-2.47727e-18
-2.47562e-18
-2.47466e-18
-2.47453e-18
-2.47601e-18
-2.47444e-18
-2.47545e-18
-2.47554e-18
-2.47733e-18
-2.47818e-18
-2.47718e-18
-2.47661e-18
-2.47698e-18
-2.47717e-18
-2.47726e-18
-2.4776e-18
-2.47785e-18
-2.47738e-18
-2.47768e-18
-2.47738e-18
-2.47733e-18
-2.47776e-18
-2.47761e-18
-2.4771e-18
-2.4775e-18
-2.47775e-18
-2.47724e-18
-2.47739e-18
-2.47745e-18
-2.47746e-18
-2.47754e-18
-2.47746e-18
-2.47752e-18
-2.47751e-18
-2.43512e-18
-2.43267e-18
-2.43e-18
-2.43051e-18
-2.43046e-18
-2.44022e-18
-2.43015e-18
-2.42983e-18
-2.43339e-18
-2.44072e-18
-2.43788e-18
-2.44646e-18
-2.44525e-18
-2.44163e-18
-2.44476e-18
-2.45455e-18
-2.45614e-18
-2.45765e-18
-2.46198e-18
-2.4586e-18
-2.46035e-18
-2.45823e-18
-2.46473e-18
-2.46352e-18
-2.46318e-18
-2.45972e-18
-2.4579e-18
-2.46148e-18
-2.46575e-18
-2.46992e-18
-2.46069e-18
-2.46255e-18
-2.46618e-18
-2.46663e-18
-2.46552e-18
-2.46652e-18
-2.46558e-18
-2.46241e-18
-2.46339e-18
-2.46421e-18
-2.47068e-18
-2.47333e-18
-2.46642e-18
-2.46502e-18
-2.46768e-18
-2.4653e-18
-2.46471e-18
-2.46525e-18
-2.4654e-18
-2.46744e-18
-2.46716e-18
-2.46981e-18
-2.46624e-18
-2.46579e-18
-2.46427e-18
-2.46567e-18
-2.46866e-18
-2.47058e-18
-2.47014e-18
-2.46969e-18
-2.47042e-18
-2.46932e-18
-2.46934e-18
-2.46903e-18
-2.46899e-18
-2.46939e-18
-2.47045e-18
-2.47068e-18
-2.47005e-18
-2.46957e-18
-2.47031e-18
-2.47039e-18
-2.47073e-18
-2.47082e-18
-2.47063e-18
-2.47104e-18
-2.47106e-18
-2.47061e-18
-2.47064e-18
-2.47104e-18
-2.47087e-18
-2.47103e-18
-2.47098e-18
-2.47075e-18
-2.47103e-18
-2.47101e-18
-2.47083e-18
-2.47091e-18
-2.47075e-18
-2.47078e-18
-2.47089e-18
-2.47078e-18
-2.47083e-18
-2.47091e-18
-2.47097e-18
-2.43452e-18
-2.44294e-18
-2.44782e-18
-2.45072e-18
-2.44496e-18
-2.4409e-18
-2.4449e-18
-2.4468e-18
-2.45239e-18
-2.45503e-18
-2.45249e-18
-2.45248e-18
-2.45799e-18
-2.46383e-18
-2.45993e-18
-2.45454e-18
-2.45335e-18
-2.46009e-18
-2.45916e-18
-2.46218e-18
-2.46251e-18
-2.45931e-18
-2.45859e-18
-2.45925e-18
-2.46125e-18
-2.46461e-18
-2.4633e-18
-2.46381e-18
-2.46272e-18
-2.46413e-18
-2.47163e-18
-2.46884e-18
-2.46625e-18
-2.4692e-18
-2.47335e-18
-2.47089e-18
-2.47007e-18
-2.46796e-18
-2.46882e-18
-2.47184e-18
-2.47015e-18
-2.47186e-18
-2.47389e-18
-2.46855e-18
-2.47158e-18
-2.47151e-18
-2.47002e-18
-2.47338e-18
-2.47529e-18
-2.47271e-18
-2.4733e-18
-2.47476e-18
-2.47439e-18
-2.47305e-18
-2.47513e-18
-2.47352e-18
-2.47516e-18
-2.47494e-18
-2.47238e-18
-2.47002e-18
-2.47219e-18
-2.47442e-18
-2.47286e-18
-2.47256e-18
-2.47287e-18
-2.4745e-18
-2.47504e-18
-2.47481e-18
-2.47438e-18
-2.47552e-18
-2.47611e-18
-2.47515e-18
-2.47462e-18
-2.47476e-18
-2.47504e-18
-2.47515e-18
-2.47464e-18
-2.47529e-18
-2.4759e-18
-2.47585e-18
-2.47541e-18
-2.47548e-18
-2.47549e-18
-2.4755e-18
-2.4753e-18
-2.47526e-18
-2.47543e-18
-2.47558e-18
-2.4755e-18
-2.47552e-18
-2.47555e-18
-2.47555e-18
-2.47545e-18
-2.47543e-18
-2.4755e-18
-2.43423e-18
-2.4427e-18
-2.44251e-18
-2.42908e-18
-2.4352e-18
-2.44313e-18
-2.44636e-18
-2.44286e-18
-2.44496e-18
-2.45028e-18
-2.4446e-18
-2.44305e-18
-2.44226e-18
-2.4411e-18
-2.43948e-18
-2.44552e-18
-2.44728e-18
-2.44587e-18
-2.448e-18
-2.44886e-18
-2.4466e-18
-2.44729e-18
-2.45088e-18
-2.45285e-18
-2.45239e-18
-2.45477e-18
-2.45734e-18
-2.45722e-18
-2.45742e-18
-2.45503e-18
-2.45739e-18
-2.45433e-18
-2.45428e-18
-2.45717e-18
-2.45607e-18
-2.45481e-18
-2.45596e-18
-2.45769e-18
-2.45962e-18
-2.45931e-18
-2.46607e-18
-2.46665e-18
-2.46624e-18
-2.46289e-18
-2.46242e-18
-2.46124e-18
-2.46273e-18
-2.46321e-18
-2.46506e-18
-2.46509e-18
-2.46423e-18
-2.46495e-18
-2.46533e-18
-2.46198e-18
-2.46424e-18
-2.46414e-18
-2.46373e-18
-2.46419e-18
-2.46641e-18
-2.46563e-18
-2.46581e-18
-2.46636e-18
-2.46716e-18
-2.46721e-18
-2.46645e-18
-2.46615e-18
-2.46698e-18
-2.46706e-18
-2.46667e-18
-2.46723e-18
-2.4668e-18
-2.46702e-18
-2.46704e-18
-2.46683e-18
-2.46743e-18
-2.46748e-18
-2.46785e-18
-2.46778e-18
-2.46772e-18
-2.46812e-18
-2.46796e-18
-2.46778e-18
-2.46786e-18
-2.468e-18
-2.468e-18
-2.46811e-18
-2.46819e-18
-2.46829e-18
-2.46833e-18
-2.4683e-18
-2.46822e-18
-2.46821e-18
-2.46823e-18
-2.46825e-18
-2.46827e-18
-2.44533e-18
-2.44498e-18
-2.44089e-18
-2.44259e-18
-2.44782e-18
-2.44501e-18
-2.44108e-18
-2.44037e-18
-2.44171e-18
-2.44734e-18
-2.45176e-18
-2.45414e-18
-2.4525e-18
-2.45113e-18
-2.45406e-18
-2.45107e-18
-2.45415e-18
-2.46119e-18
-2.45965e-18
-2.4584e-18
-2.46021e-18
-2.46315e-18
-2.46216e-18
-2.46267e-18
-2.46684e-18
-2.46634e-18
-2.46042e-18
-2.46188e-18
-2.46338e-18
-2.46455e-18
-2.46545e-18
-2.46246e-18
-2.46122e-18
-2.46357e-18
-2.46333e-18
-2.46279e-18
-2.46048e-18
-2.46547e-18
-2.46866e-18
-2.46454e-18
-2.46226e-18
-2.46068e-18
-2.46337e-18
-2.46696e-18
-2.46926e-18
-2.46909e-18
-2.46961e-18
-2.47078e-18
-2.46848e-18
-2.46827e-18
-2.47033e-18
-2.47047e-18
-2.46986e-18
-2.46904e-18
-2.47159e-18
-2.47314e-18
-2.47229e-18
-2.47175e-18
-2.47104e-18
-2.47196e-18
-2.47191e-18
-2.47157e-18
-2.47107e-18
-2.4725e-18
-2.47267e-18
-2.47249e-18
-2.47208e-18
-2.47232e-18
-2.47358e-18
-2.47314e-18
-2.47429e-18
-2.47492e-18
-2.47491e-18
-2.47418e-18
-2.47358e-18
-2.47372e-18
-2.47387e-18
-2.47466e-18
-2.47506e-18
-2.47454e-18
-2.47424e-18
-2.47426e-18
-2.47416e-18
-2.47442e-18
-2.47465e-18
-2.47446e-18
-2.47428e-18
-2.47423e-18
-2.47448e-18
-2.47445e-18
-2.47436e-18
-2.47435e-18
-2.47435e-18
-2.47437e-18
-2.47438e-18
-2.45463e-18
-2.45251e-18
-2.45091e-18
-2.45576e-18
-2.45041e-18
-2.44752e-18
-2.44814e-18
-2.45011e-18
-2.44447e-18
-2.44661e-18
-2.44868e-18
-2.44746e-18
-2.44617e-18
-2.44995e-18
-2.45255e-18
-2.45504e-18
-2.45748e-18
-2.453e-18
-2.4484e-18
-2.45029e-18
-2.45383e-18
-2.4567e-18
-2.46128e-18
-2.46179e-18
-2.45828e-18
-2.45731e-18
-2.45795e-18
-2.45892e-18
-2.4573e-18
-2.45555e-18
-2.45774e-18
-2.45575e-18
-2.45445e-18
-2.45652e-18
-2.45995e-18
-2.46103e-18
-2.46095e-18
-2.46407e-18
-2.46464e-18
-2.46166e-18
-2.45939e-18
-2.46249e-18
-2.46452e-18
-2.46132e-18
-2.4635e-18
-2.46278e-18
-2.46382e-18
-2.46418e-18
-2.46447e-18
-2.46499e-18
-2.46574e-18
-2.46478e-18
-2.46512e-18
-2.46593e-18
-2.46616e-18
-2.46584e-18
-2.46499e-18
-2.46505e-18
-2.46621e-18
-2.46752e-18
-2.46779e-18
-2.46611e-18
-2.46722e-18
-2.46717e-18
-2.46728e-18
-2.46838e-18
-2.4668e-18
-2.46743e-18
-2.46674e-18
-2.4666e-18
-2.468e-18
-2.46819e-18
-2.46812e-18
-2.46818e-18
-2.4682e-18
-2.46808e-18
-2.46811e-18
-2.46846e-18
-2.46882e-18
-2.46891e-18
-2.46872e-18
-2.46861e-18
-2.46882e-18
-2.46896e-18
-2.4688e-18
-2.4689e-18
-2.46891e-18
-2.46912e-18
-2.46917e-18
-2.46905e-18
-2.46907e-18
-2.46915e-18
-2.46918e-18
-2.46919e-18
-2.46919e-18
-2.44114e-18
-2.43677e-18
-2.44036e-18
-2.4435e-18
-2.44986e-18
-2.44925e-18
-2.44301e-18
-2.44468e-18
-2.44956e-18
-2.44799e-18
-2.4477e-18
-2.44643e-18
-2.45156e-18
-2.45579e-18
-2.45604e-18
-2.45951e-18
-2.45815e-18
-2.45888e-18
-2.46169e-18
-2.46094e-18
-2.45944e-18
-2.45848e-18
-2.45341e-18
-2.45967e-18
-2.46358e-18
-2.46353e-18
-2.46351e-18
-2.46182e-18
-2.46729e-18
-2.46613e-18
-2.46511e-18
-2.46537e-18
-2.46572e-18
-2.46498e-18
-2.46199e-18
-2.46538e-18
-2.46873e-18
-2.4641e-18
-2.46628e-18
-2.46348e-18
-2.4655e-18
-2.46716e-18
-2.46815e-18
-2.46816e-18
-2.46916e-18
-2.47109e-18
-2.47028e-18
-2.46921e-18
-2.47111e-18
-2.46983e-18
-2.47112e-18
-2.47158e-18
-2.4726e-18
-2.47337e-18
-2.47238e-18
-2.47194e-18
-2.47228e-18
-2.47193e-18
-2.47208e-18
-2.47191e-18
-2.4721e-18
-2.47177e-18
-2.4723e-18
-2.47274e-18
-2.47319e-18
-2.47282e-18
-2.47266e-18
-2.4728e-18
-2.47338e-18
-2.47283e-18
-2.47226e-18
-2.47307e-18
-2.47279e-18
-2.47248e-18
-2.47305e-18
-2.47306e-18
-2.47302e-18
-2.47335e-18
-2.47341e-18
-2.47311e-18
-2.47323e-18
-2.47331e-18
-2.47296e-18
-2.473e-18
-2.47322e-18
-2.47319e-18
-2.47325e-18
-2.47312e-18
-2.4731e-18
-2.47305e-18
-2.47307e-18
-2.47316e-18
-2.47319e-18
-2.47315e-18
-2.47315e-18
-2.44321e-18
-2.4493e-18
-2.44958e-18
-2.44537e-18
-2.4437e-18
-2.44414e-18
-2.44545e-18
-2.44663e-18
-2.43988e-18
-2.43945e-18
-2.44086e-18
-2.44415e-18
-2.44303e-18
-2.44691e-18
-2.4474e-18
-2.44662e-18
-2.45162e-18
-2.45346e-18
-2.44834e-18
-2.45551e-18
-2.46059e-18
-2.45815e-18
-2.45297e-18
-2.4596e-18
-2.46392e-18
-2.46513e-18
-2.46594e-18
-2.4655e-18
-2.46719e-18
-2.46349e-18
-2.46471e-18
-2.46388e-18
-2.46619e-18
-2.46885e-18
-2.47075e-18
-2.46668e-18
-2.46784e-18
-2.47115e-18
-2.47376e-18
-2.4708e-18
-2.46863e-18
-2.46785e-18
-2.46938e-18
-2.46859e-18
-2.47068e-18
-2.47151e-18
-2.4714e-18
-2.47161e-18
-2.47271e-18
-2.47237e-18
-2.47037e-18
-2.47087e-18
-2.47029e-18
-2.4705e-18
-2.46917e-18
-2.47009e-18
-2.47099e-18
-2.47067e-18
-2.47106e-18
-2.46931e-18
-2.47e-18
-2.47098e-18
-2.46895e-18
-2.46867e-18
-2.46847e-18
-2.46892e-18