/*--------------------------------*- C++ -*----------------------------------*\
  =========                 |
  \\      /  F ield         | OpenFOAM: The Open Source CFD Toolbox
   \\    /   O peration     | Website:  https://openfoam.org
    \\  /    A nd           | Version:  7
     \\/     M anipulation  |
\*---------------------------------------------------------------------------*/
FoamFile
{
    version     2.0;
    format      ascii;
    class       volScalarField;
    location    "32000";
    object      nut;
}
// * * * * * * * * * * * * * * * * * * * * * * * * * * * * * * * * * * * * * //

dimensions      [0 2 -1 0 0 0 0];

internalField   nonuniform List<scalar> 
4850
(
3.19668e-05
3.20992e-05
3.17121e-05
3.18453e-05
3.1974e-05
3.14559e-05
3.15897e-05
3.17189e-05
3.18443e-05
3.19648e-05
3.11981e-05
3.13324e-05
3.14622e-05
3.1588e-05
3.17093e-05
3.18258e-05
3.09388e-05
3.10738e-05
3.1204e-05
3.13303e-05
3.1452e-05
3.15692e-05
3.16815e-05
3.06782e-05
3.08136e-05
3.09443e-05
3.1071e-05
3.11933e-05
3.13108e-05
3.14235e-05
3.15316e-05
3.16346e-05
3.04163e-05
3.05519e-05
3.06831e-05
3.08101e-05
3.09329e-05
3.10508e-05
3.11641e-05
3.12727e-05
3.13761e-05
3.14746e-05
3.01531e-05
3.02891e-05
3.04205e-05
3.05479e-05
3.0671e-05
3.07894e-05
3.09031e-05
3.10123e-05
3.11161e-05
3.12147e-05
3.13082e-05
3.13956e-05
3.14775e-05
3.15539e-05
2.98886e-05
3.00249e-05
3.01567e-05
3.02844e-05
3.04079e-05
3.05267e-05
3.06408e-05
3.07503e-05
3.08547e-05
3.09536e-05
3.10473e-05
3.11352e-05
3.12173e-05
3.1294e-05
3.13647e-05
3.14288e-05
3.1487e-05
3.15391e-05
2.96231e-05
2.97597e-05
2.98918e-05
3.00198e-05
3.01436e-05
3.02627e-05
3.03772e-05
3.04871e-05
3.05918e-05
3.06909e-05
3.07849e-05
3.08731e-05
3.09556e-05
3.10326e-05
3.11033e-05
3.11677e-05
3.1226e-05
3.12784e-05
3.13245e-05
3.13642e-05
2.93566e-05
2.94934e-05
2.96258e-05
2.97541e-05
2.98782e-05
2.99975e-05
3.01124e-05
3.02225e-05
3.03274e-05
3.04269e-05
3.05212e-05
3.06098e-05
3.06925e-05
3.07696e-05
3.08404e-05
3.09051e-05
3.09635e-05
3.10162e-05
3.10624e-05
3.11021e-05
3.11352e-05
3.11617e-05
3.11819e-05
3.11956e-05
2.90891e-05
2.9226e-05
2.93587e-05
2.94874e-05
2.96117e-05
2.97313e-05
2.98463e-05
2.99567e-05
3.00619e-05
3.01616e-05
3.0256e-05
3.03449e-05
3.04279e-05
3.0505e-05
3.0576e-05
3.06408e-05
3.06995e-05
3.07522e-05
3.07987e-05
3.08383e-05
3.08716e-05
3.08983e-05
3.09186e-05
3.0932e-05
3.09392e-05
3.09392e-05
3.09322e-05
3.09188e-05
3.08989e-05
2.88207e-05
2.89576e-05
2.90906e-05
2.92193e-05
2.93441e-05
2.94639e-05
2.95791e-05
2.96896e-05
2.97951e-05
2.9895e-05
2.99894e-05
3.00785e-05
3.01617e-05
3.0239e-05
3.03102e-05
3.03752e-05
3.04341e-05
3.04869e-05
3.05335e-05
3.05732e-05
3.06066e-05
3.06333e-05
3.06537e-05
3.0667e-05
3.0674e-05
3.06742e-05
3.06675e-05
3.0654e-05
3.0634e-05
3.06076e-05
3.05749e-05
3.05358e-05
2.85513e-05
2.86884e-05
2.88214e-05
2.89504e-05
2.90754e-05
2.91954e-05
2.93108e-05
2.94215e-05
2.9527e-05
2.96272e-05
2.97217e-05
2.98108e-05
2.98942e-05
2.99715e-05
3.00429e-05
3.01082e-05
3.01674e-05
3.02202e-05
3.02669e-05
3.03066e-05
3.03401e-05
3.03668e-05
3.03873e-05
3.04007e-05
3.04077e-05
3.0408e-05
3.04012e-05
3.03877e-05
3.03678e-05
3.03411e-05
3.03083e-05
3.02691e-05
3.02237e-05
3.01717e-05
2.82809e-05
2.84182e-05
2.85514e-05
2.86806e-05
2.88056e-05
2.89257e-05
2.90415e-05
2.91523e-05
2.92579e-05
2.93583e-05
2.94528e-05
2.95419e-05
2.96255e-05
2.97029e-05
2.97746e-05
2.984e-05
2.98993e-05
2.99523e-05
2.99989e-05
3.00388e-05
3.00723e-05
3.00989e-05
3.01194e-05
3.01329e-05
3.01399e-05
3.01404e-05
3.01337e-05
3.01201e-05
3.01e-05
3.00733e-05
3.00404e-05
3.00012e-05
2.99558e-05
2.99039e-05
2.80099e-05
2.81472e-05
2.82806e-05
2.84098e-05
2.85348e-05
2.86552e-05
2.87711e-05
2.8882e-05
2.89876e-05
2.90881e-05
2.91829e-05
2.9272e-05
2.93557e-05
2.94333e-05
2.95051e-05
2.95706e-05
2.96299e-05
2.9683e-05
2.97297e-05
2.97696e-05
2.9803e-05
2.98298e-05
2.98503e-05
2.98639e-05
2.9871e-05
2.98713e-05
2.98647e-05
2.9851e-05
2.9831e-05
2.98042e-05
2.97713e-05
2.97321e-05
2.96866e-05
2.96347e-05
2.77381e-05
2.78755e-05
2.80089e-05
2.81382e-05
2.82633e-05
2.83837e-05
2.84996e-05
2.86108e-05
2.87165e-05
2.88171e-05
2.8912e-05
2.9001e-05
2.90848e-05
2.91626e-05
2.92344e-05
2.93e-05
2.93594e-05
2.94126e-05
2.94594e-05
2.94992e-05
2.95327e-05
2.95595e-05
2.95801e-05
2.95936e-05
2.96006e-05
2.9601e-05
2.95943e-05
2.95809e-05
2.95606e-05
2.9534e-05
2.95011e-05
2.94618e-05
2.94162e-05
2.93643e-05
2.74656e-05
2.7603e-05
2.77365e-05
2.78658e-05
2.79909e-05
2.81114e-05
2.82273e-05
2.83386e-05
2.84443e-05
2.85449e-05
2.864e-05
2.8729e-05
2.8813e-05
2.88907e-05
2.89626e-05
2.90281e-05
2.90878e-05
2.9141e-05
2.91879e-05
2.92277e-05
2.92612e-05
2.92881e-05
2.93087e-05
2.93222e-05
2.93293e-05
2.93294e-05
2.93227e-05
2.93094e-05
2.92891e-05
2.92626e-05
2.92296e-05
2.91902e-05
2.91446e-05
2.90928e-05
2.71926e-05
2.73298e-05
2.74632e-05
2.75926e-05
2.77178e-05
2.78384e-05
2.79542e-05
2.80654e-05
2.81712e-05
2.8272e-05
2.83671e-05
2.84561e-05
2.85401e-05
2.86178e-05
2.86896e-05
2.87552e-05
2.88149e-05
2.88682e-05
2.89152e-05
2.89551e-05
2.89886e-05
2.90156e-05
2.90361e-05
2.90496e-05
2.90567e-05
2.90568e-05
2.90501e-05
2.90368e-05
2.90167e-05
2.899e-05
2.89569e-05
2.89176e-05
2.88721e-05
2.88201e-05
2.69189e-05
2.70561e-05
2.71894e-05
2.73187e-05
2.74438e-05
2.75645e-05
2.76804e-05
2.77916e-05
2.78975e-05
2.79982e-05
2.80932e-05
2.81824e-05
2.82662e-05
2.83441e-05
2.84158e-05
2.84814e-05
2.85412e-05
2.85944e-05
2.86416e-05
2.86816e-05
2.87151e-05
2.87421e-05
2.87624e-05
2.87759e-05
2.87831e-05
2.87833e-05
2.87765e-05
2.87631e-05
2.87431e-05
2.87165e-05
2.86834e-05
2.86439e-05
2.85983e-05
2.85463e-05
2.66447e-05
2.67819e-05
2.6915e-05
2.70441e-05
2.71692e-05
2.72899e-05
2.74058e-05
2.7517e-05
2.76227e-05
2.77235e-05
2.78184e-05
2.79078e-05
2.79915e-05
2.80693e-05
2.81411e-05
2.82067e-05
2.82664e-05
2.83198e-05
2.83669e-05
2.8407e-05
2.84406e-05
2.84675e-05
2.84878e-05
2.85013e-05
2.85086e-05
2.85088e-05
2.8502e-05
2.84885e-05
2.84685e-05
2.84419e-05
2.84088e-05
2.83693e-05
2.83236e-05
2.82716e-05
2.63701e-05
2.65071e-05
2.66402e-05
2.6769e-05
2.68941e-05
2.70148e-05
2.71306e-05
2.72417e-05
2.73474e-05
2.7448e-05
2.7543e-05
2.76323e-05
2.77159e-05
2.77937e-05
2.78657e-05
2.79312e-05
2.7991e-05
2.80442e-05
2.80912e-05
2.81314e-05
2.81651e-05
2.8192e-05
2.82121e-05
2.82258e-05
2.82331e-05
2.82332e-05
2.82264e-05
2.82131e-05
2.8193e-05
2.81664e-05
2.81333e-05
2.80938e-05
2.80479e-05
2.79959e-05
2.60949e-05
2.62317e-05
2.63648e-05
2.64935e-05
2.66183e-05
2.6739e-05
2.68549e-05
2.69658e-05
2.70714e-05
2.7172e-05
2.72669e-05
2.73561e-05
2.74397e-05
2.75175e-05
2.75894e-05
2.7655e-05
2.77145e-05
2.77679e-05
2.78147e-05
2.78549e-05
2.78887e-05
2.79157e-05
2.79357e-05
2.79495e-05
2.79567e-05
2.79568e-05
2.795e-05
2.79366e-05
2.79167e-05
2.789e-05
2.78571e-05
2.78176e-05
2.77716e-05
2.77194e-05
2.76611e-05
2.58193e-05
2.5956e-05
2.60889e-05
2.62175e-05
2.63421e-05
2.64628e-05
2.65785e-05
2.66894e-05
2.6795e-05
2.68953e-05
2.69901e-05
2.70793e-05
2.71628e-05
2.72407e-05
2.73123e-05
2.73781e-05
2.74375e-05
2.74908e-05
2.75375e-05
2.75777e-05
2.76116e-05
2.76385e-05
2.76585e-05
2.76723e-05
2.76795e-05
2.76797e-05
2.76727e-05
2.76594e-05
2.76394e-05
2.7613e-05
2.75799e-05
2.75404e-05
2.74945e-05
2.74422e-05
2.73838e-05
2.55434e-05
2.568e-05
2.58125e-05
2.5941e-05
2.60655e-05
2.6186e-05
2.63017e-05
2.64124e-05
2.65178e-05
2.66179e-05
2.67129e-05
2.6802e-05
2.68854e-05
2.69631e-05
2.70346e-05
2.71003e-05
2.71598e-05
2.72129e-05
2.72595e-05
2.72997e-05
2.73336e-05
2.73605e-05
2.73805e-05
2.73944e-05
2.74017e-05
2.74017e-05
2.73947e-05
2.73815e-05
2.73615e-05
2.73352e-05
2.7302e-05
2.72626e-05
2.72167e-05
2.71644e-05
2.71058e-05
2.52672e-05
2.54035e-05
2.55359e-05
2.56643e-05
2.57886e-05
2.59088e-05
2.60244e-05
2.61348e-05
2.62402e-05
2.63402e-05
2.64351e-05
2.6524e-05
2.66072e-05
2.66849e-05
2.67564e-05
2.68221e-05
2.68813e-05
2.69343e-05
2.69809e-05
2.70211e-05
2.70549e-05
2.70817e-05
2.71018e-05
2.71157e-05
2.7123e-05
2.7123e-05
2.71161e-05
2.7103e-05
2.70829e-05
2.70567e-05
2.70235e-05
2.69841e-05
2.69383e-05
2.6886e-05
2.49909e-05
2.5127e-05
2.52591e-05
2.5387e-05
2.55113e-05
2.56313e-05
2.57466e-05
2.5857e-05
2.59621e-05
2.60619e-05
2.61568e-05
2.62456e-05
2.63286e-05
2.6406e-05
2.64774e-05
2.65432e-05
2.66023e-05
2.66552e-05
2.67017e-05
2.6742e-05
2.67756e-05
2.68025e-05
2.68225e-05
2.68365e-05
2.68437e-05
2.68437e-05
2.68368e-05
2.68238e-05
2.68037e-05
2.67774e-05
2.67444e-05
2.6705e-05
2.66592e-05
2.66069e-05
2.47144e-05
2.48501e-05
2.49819e-05
2.51096e-05
2.52336e-05
2.53533e-05
2.54685e-05
2.55786e-05
2.56836e-05
2.57833e-05
2.58779e-05
2.59665e-05
2.60496e-05
2.61268e-05
2.6198e-05
2.62637e-05
2.63228e-05
2.63755e-05
2.64221e-05
2.64622e-05
2.64957e-05
2.65227e-05
2.65427e-05
2.65565e-05
2.65637e-05
2.65636e-05
2.65569e-05
2.65439e-05
2.6524e-05
2.64976e-05
2.64648e-05
2.64253e-05
2.63796e-05
2.63274e-05
2.44378e-05
2.45731e-05
2.47045e-05
2.4832e-05
2.49558e-05
2.50752e-05
2.51901e-05
2.52999e-05
2.54046e-05
2.55042e-05
2.55986e-05
2.56872e-05
2.57701e-05
2.58472e-05
2.59182e-05
2.59836e-05
2.60428e-05
2.60954e-05
2.61418e-05
2.61819e-05
2.62153e-05
2.62423e-05
2.62623e-05
2.6276e-05
2.62831e-05
2.62831e-05
2.62766e-05
2.62636e-05
2.62436e-05
2.62172e-05
2.61846e-05
2.61451e-05
2.60996e-05
2.60475e-05
2.4161e-05
2.42959e-05
2.44271e-05
2.45542e-05
2.46776e-05
2.47968e-05
2.49114e-05
2.50208e-05
2.51253e-05
2.52248e-05
2.53191e-05
2.54074e-05
2.54902e-05
2.55671e-05
2.5638e-05
2.57031e-05
2.57623e-05
2.58149e-05
2.58612e-05
2.59011e-05
2.59345e-05
2.59615e-05
2.59814e-05
2.59951e-05
2.60021e-05
2.60021e-05
2.59957e-05
2.59827e-05
2.59628e-05
2.59365e-05
2.59039e-05
2.58645e-05
2.58191e-05
2.38842e-05
2.40187e-05
2.41494e-05
2.42764e-05
2.43994e-05
2.45182e-05
2.46324e-05
2.47416e-05
2.48458e-05
2.49452e-05
2.50392e-05
2.51273e-05
2.52101e-05
2.52867e-05
2.53574e-05
2.54224e-05
2.54813e-05
2.55339e-05
2.558e-05
2.56199e-05
2.56533e-05
2.56802e-05
2.57002e-05
2.57137e-05
2.57207e-05
2.57208e-05
2.57143e-05
2.57014e-05
2.56816e-05
2.56554e-05
2.56228e-05
2.55835e-05
2.55382e-05
2.36073e-05
2.37414e-05
2.38718e-05
2.39984e-05
2.41211e-05
2.42395e-05
2.43532e-05
2.44623e-05
2.45662e-05
2.46653e-05
2.47591e-05
2.4847e-05
2.49296e-05
2.50059e-05
2.50766e-05
2.51414e-05
2.52002e-05
2.52527e-05
2.52986e-05
2.53383e-05
2.53716e-05
2.53984e-05
2.54184e-05
2.5432e-05
2.54388e-05
2.54391e-05
2.54326e-05
2.54198e-05
2.54e-05
2.53739e-05
2.53413e-05
2.53021e-05
2.33305e-05
2.34642e-05
2.35941e-05
2.37203e-05
2.38427e-05
2.39608e-05
2.40741e-05
2.41828e-05
2.42864e-05
2.43853e-05
2.44789e-05
2.45665e-05
2.46488e-05
2.4725e-05
2.47956e-05
2.486e-05
2.49188e-05
2.49711e-05
2.50169e-05
2.50564e-05
2.50897e-05
2.51164e-05
2.51364e-05
2.51499e-05
2.51567e-05
2.51571e-05
2.51505e-05
2.51377e-05
2.51181e-05
2.5092e-05
2.50595e-05
2.50203e-05
2.30538e-05
2.3187e-05
2.33165e-05
2.34422e-05
2.35643e-05
2.36819e-05
2.37948e-05
2.39032e-05
2.40066e-05
2.41052e-05
2.41985e-05
2.42858e-05
2.43679e-05
2.44439e-05
2.45143e-05
2.45785e-05
2.4637e-05
2.46891e-05
2.4735e-05
2.47744e-05
2.48076e-05
2.48342e-05
2.48541e-05
2.48676e-05
2.48744e-05
2.48747e-05
2.48682e-05
2.48554e-05
2.48359e-05
2.48099e-05
2.47774e-05
2.47381e-05
2.27772e-05
2.29099e-05
2.3039e-05
2.31642e-05
2.32858e-05
2.3403e-05
2.35155e-05
2.36236e-05
2.37267e-05
2.3825e-05
2.39179e-05
2.4005e-05
2.40869e-05
2.41627e-05
2.42328e-05
2.42969e-05
2.43551e-05
2.4407e-05
2.44527e-05
2.44921e-05
2.45252e-05
2.45517e-05
2.45715e-05
2.4585e-05
2.45918e-05
2.45922e-05
2.45856e-05
2.45728e-05
2.45536e-05
2.45275e-05
2.44951e-05
2.44558e-05
2.25008e-05
2.2633e-05
2.27616e-05
2.28864e-05
2.30074e-05
2.31241e-05
2.32364e-05
2.3344e-05
2.34468e-05
2.35448e-05
2.36374e-05
2.37241e-05
2.38057e-05
2.38814e-05
2.39512e-05
2.40151e-05
2.4073e-05
2.41248e-05
2.41704e-05
2.42096e-05
2.42426e-05
2.42691e-05
2.42888e-05
2.43021e-05
2.43091e-05
2.43093e-05
2.43028e-05
2.429e-05
2.42709e-05
2.42448e-05
2.42125e-05
2.41734e-05
2.22246e-05
2.23562e-05
2.24843e-05
2.26087e-05
2.27291e-05
2.28454e-05
2.29573e-05
2.30645e-05
2.31668e-05
2.32644e-05
2.33567e-05
2.34432e-05
2.35244e-05
2.36e-05
2.36694e-05
2.37332e-05
2.37909e-05
2.38425e-05
2.3888e-05
2.3927e-05
2.39599e-05
2.39862e-05
2.40061e-05
2.40193e-05
2.40261e-05
2.40264e-05
2.40199e-05
2.40071e-05
2.39881e-05
2.39621e-05
2.39298e-05
2.38909e-05
2.19487e-05
2.20796e-05
2.22072e-05
2.23311e-05
2.24511e-05
2.25669e-05
2.26783e-05
2.27849e-05
2.28869e-05
2.29842e-05
2.3076e-05
2.31623e-05
2.32432e-05
2.33185e-05
2.33876e-05
2.34512e-05
2.35087e-05
2.35602e-05
2.36054e-05
2.36444e-05
2.36772e-05
2.37033e-05
2.37231e-05
2.37363e-05
2.37432e-05
2.37433e-05
2.37368e-05
2.37242e-05
2.37051e-05
2.36792e-05
2.3647e-05
2.36084e-05
2.1673e-05
2.18034e-05
2.19304e-05
2.20537e-05
2.21732e-05
2.22884e-05
2.23995e-05
2.25056e-05
2.26072e-05
2.27041e-05
2.27955e-05
2.28815e-05
2.2962e-05
2.3037e-05
2.31059e-05
2.31693e-05
2.32264e-05
2.32778e-05
2.33229e-05
2.33618e-05
2.33944e-05
2.34203e-05
2.34401e-05
2.34533e-05
2.34601e-05
2.34603e-05
2.34538e-05
2.34411e-05
2.3422e-05
2.33963e-05
2.33642e-05
2.33258e-05
2.13977e-05
2.15275e-05
2.16538e-05
2.17764e-05
2.18954e-05
2.20103e-05
2.21207e-05
2.22265e-05
2.23276e-05
2.2424e-05
2.25151e-05
2.26007e-05
2.26809e-05
2.27556e-05
2.28243e-05
2.28874e-05
2.29441e-05
2.29954e-05
2.30404e-05
2.3079e-05
2.31116e-05
2.31374e-05
2.31572e-05
2.31703e-05
2.3177e-05
2.31772e-05
2.31707e-05
2.3158e-05
2.31389e-05
2.31134e-05
2.30815e-05
2.30433e-05
2.11228e-05
2.12519e-05
2.13775e-05
2.14995e-05
2.1618e-05
2.17324e-05
2.18422e-05
2.19476e-05
2.20483e-05
2.21443e-05
2.2235e-05
2.23201e-05
2.24e-05
2.24743e-05
2.25428e-05
2.26056e-05
2.2662e-05
2.2713e-05
2.27579e-05
2.27964e-05
2.28287e-05
2.28545e-05
2.28742e-05
2.28873e-05
2.28939e-05
2.28941e-05
2.28876e-05
2.2875e-05
2.2856e-05
2.28305e-05
2.27989e-05
2.2761e-05
2.08484e-05
2.09768e-05
2.11017e-05
2.1223e-05
2.13409e-05
2.14548e-05
2.1564e-05
2.1669e-05
2.17692e-05
2.18647e-05
2.1955e-05
2.20398e-05
2.21191e-05
2.21932e-05
2.22614e-05
2.23238e-05
2.238e-05
2.24307e-05
2.24755e-05
2.25139e-05
2.2546e-05
2.25718e-05
2.25913e-05
2.26043e-05
2.26108e-05
2.2611e-05
2.26046e-05
2.2592e-05
2.2573e-05
2.25478e-05
2.25164e-05
2.24787e-05
2.05744e-05
2.07021e-05
2.08262e-05
2.09469e-05
2.10642e-05
2.11776e-05
2.12862e-05
2.13907e-05
2.14905e-05
2.15854e-05
2.16753e-05
2.17597e-05
2.18386e-05
2.19122e-05
2.19801e-05
2.20422e-05
2.20982e-05
2.21487e-05
2.21933e-05
2.22314e-05
2.22634e-05
2.22891e-05
2.23085e-05
2.23214e-05
2.23279e-05
2.23281e-05
2.23217e-05
2.23091e-05
2.22903e-05
2.22652e-05
2.22341e-05
2.21965e-05
2.03008e-05
2.04279e-05
2.05513e-05
2.06713e-05
2.07879e-05
2.09006e-05
2.10088e-05
2.11127e-05
2.12121e-05
2.13065e-05
2.13959e-05
2.14797e-05
2.15582e-05
2.16314e-05
2.1699e-05
2.17608e-05
2.18166e-05
2.18667e-05
2.19112e-05
2.19492e-05
2.1981e-05
2.20066e-05
2.2026e-05
2.20388e-05
2.20452e-05
2.20454e-05
2.20391e-05
2.20265e-05
2.20078e-05
2.19828e-05
2.1952e-05
2.19145e-05
2.00277e-05
2.01541e-05
2.02768e-05
2.03961e-05
2.0512e-05
2.06241e-05
2.07318e-05
2.08351e-05
2.09339e-05
2.10278e-05
2.11167e-05
2.12e-05
2.12781e-05
2.1351e-05
2.14182e-05
2.14797e-05
2.15353e-05
2.15851e-05
2.16293e-05
2.16672e-05
2.16989e-05
2.17244e-05
2.17436e-05
2.17564e-05
2.17628e-05
2.17629e-05
2.17567e-05
2.17441e-05
2.17255e-05
2.17006e-05
2.16701e-05
2.16327e-05
1.97552e-05
1.98808e-05
2.00029e-05
2.01214e-05
2.02366e-05
2.03481e-05
2.04552e-05
2.05579e-05
2.06561e-05
2.07495e-05
2.08378e-05
2.09207e-05
2.09985e-05
2.10708e-05
2.11378e-05
2.1199e-05
2.12542e-05
2.13038e-05
2.13476e-05
2.13855e-05
2.1417e-05
2.14424e-05
2.14615e-05
2.14742e-05
2.14806e-05
2.14807e-05
2.14744e-05
2.14621e-05
2.14436e-05
2.14187e-05
2.13884e-05
2.13514e-05
1.94832e-05
1.96082e-05
1.97295e-05
1.98473e-05
1.99618e-05
2.00726e-05
2.01791e-05
2.02811e-05
2.03788e-05
2.04717e-05
2.05594e-05
2.06417e-05
2.07191e-05
2.0791e-05
2.08577e-05
2.09185e-05
2.09734e-05
2.10229e-05
2.10664e-05
2.11041e-05
2.11354e-05
2.11607e-05
2.11797e-05
2.11924e-05
2.11987e-05
2.11988e-05
2.11926e-05
2.11803e-05
2.11619e-05
2.11371e-05
2.11069e-05
1.92119e-05
1.93362e-05
1.94567e-05
1.95738e-05
1.96875e-05
1.97977e-05
1.99035e-05
2.00049e-05
2.01019e-05
2.01943e-05
2.02815e-05
2.03632e-05
2.04402e-05
2.05117e-05
2.05781e-05
2.06385e-05
2.06932e-05
2.07422e-05
2.07855e-05
2.08229e-05
2.08542e-05
2.08794e-05
2.08982e-05
2.0911e-05
2.09172e-05
2.09173e-05
2.09111e-05
2.08988e-05
2.08806e-05
2.08559e-05
2.0826e-05
1.89413e-05
1.90648e-05
1.91845e-05
1.93009e-05
1.94139e-05
1.95233e-05
1.96285e-05
1.97293e-05
1.98256e-05
1.99174e-05
2.00041e-05
2.00853e-05
2.01618e-05
2.02329e-05
2.02989e-05
2.0359e-05
2.04133e-05
2.04621e-05
2.05051e-05
2.05422e-05
2.05733e-05
2.05984e-05
2.06172e-05
2.06298e-05
2.06361e-05
2.06362e-05
2.06299e-05
2.06177e-05
2.05995e-05
2.05751e-05
1.86713e-05
1.8794e-05
1.8913e-05
1.90286e-05
1.91409e-05
1.92495e-05
1.93541e-05
1.94542e-05
1.95499e-05
1.9641e-05
1.97272e-05
1.98078e-05
1.98839e-05
1.99545e-05
2.00201e-05
2.008e-05
2.01339e-05
2.01824e-05
2.02251e-05
2.0262e-05
2.02929e-05
2.03178e-05
2.03366e-05
2.03492e-05
2.03554e-05
2.03555e-05
2.03492e-05
2.03371e-05
2.0319e-05
2.02947e-05
1.84022e-05
1.8524e-05
1.86422e-05
1.8757e-05
1.88686e-05
1.89765e-05
1.90803e-05
1.91798e-05
1.92748e-05
1.93652e-05
1.94509e-05
1.95309e-05
1.96066e-05
1.96768e-05
1.9742e-05
1.98015e-05
1.98549e-05
1.99031e-05
1.99455e-05
1.99823e-05
2.0013e-05
2.00377e-05
2.00564e-05
2.00689e-05
2.00751e-05
2.00753e-05
2.0069e-05
2.0057e-05
2.00389e-05
2.00148e-05
1.81338e-05
1.82548e-05
1.83722e-05
1.84861e-05
1.8597e-05
1.87041e-05
1.88072e-05
1.8906e-05
1.90003e-05
1.909e-05
1.91751e-05
1.92547e-05
1.93298e-05
1.93996e-05
1.94643e-05
1.95235e-05
1.95765e-05
1.96243e-05
1.96665e-05
1.97031e-05
1.97337e-05
1.97581e-05
1.97768e-05
1.97892e-05
1.97954e-05
1.97956e-05
1.97894e-05
1.97773e-05
1.97593e-05
1.97354e-05
1.78662e-05
1.79863e-05
1.81029e-05
1.8216e-05
1.83261e-05
1.84324e-05
1.85348e-05
1.86328e-05
1.87265e-05
1.88155e-05
1.89e-05
1.89791e-05
1.90536e-05
1.9123e-05
1.91873e-05
1.9246e-05
1.92987e-05
1.93462e-05
1.93881e-05
1.94244e-05
1.94548e-05
1.94791e-05
1.94977e-05
1.95099e-05
1.95162e-05
1.95163e-05
1.95103e-05
1.94981e-05
1.94802e-05
1.94564e-05
1.75994e-05
1.77186e-05
1.78344e-05
1.79466e-05
1.8056e-05
1.81614e-05
1.82631e-05
1.83603e-05
1.84534e-05
1.85417e-05
1.86256e-05
1.87041e-05
1.87782e-05
1.8847e-05
1.89108e-05
1.89692e-05
1.90215e-05
1.90687e-05
1.91102e-05
1.91463e-05
1.91765e-05
1.92007e-05
1.92192e-05
1.92313e-05
1.92376e-05
1.92377e-05
1.92317e-05
1.92195e-05
1.92018e-05
1.9178e-05
1.73335e-05
1.74517e-05
1.75667e-05
1.7678e-05
1.77866e-05
1.78912e-05
1.79921e-05
1.80886e-05
1.8181e-05
1.82687e-05
1.83519e-05
1.84298e-05
1.85033e-05
1.85717e-05
1.8635e-05
1.86929e-05
1.8745e-05
1.87918e-05
1.88329e-05
1.88689e-05
1.88988e-05
1.89229e-05
1.89412e-05
1.89533e-05
1.89596e-05
1.89597e-05
1.89537e-05
1.89416e-05
1.8924e-05
1.89003e-05
1.70684e-05
1.71857e-05
1.72998e-05
1.74103e-05
1.7518e-05
1.76218e-05
1.77219e-05
1.78177e-05
1.79093e-05
1.79964e-05
1.80789e-05
1.81562e-05
1.82292e-05
1.82972e-05
1.83599e-05
1.84173e-05
1.84692e-05
1.85157e-05
1.85564e-05
1.85921e-05
1.86218e-05
1.86458e-05
1.8664e-05
1.8676e-05
1.86822e-05
1.86823e-05
1.86762e-05
1.86642e-05
1.86469e-05
1.86232e-05
1.68043e-05
1.69207e-05
1.70338e-05
1.71435e-05
1.72503e-05
1.73533e-05
1.74525e-05
1.75476e-05
1.76385e-05
1.77249e-05
1.78067e-05
1.78834e-05
1.79559e-05
1.80234e-05
1.80855e-05
1.81424e-05
1.81941e-05
1.82402e-05
1.82806e-05
1.83161e-05
1.83455e-05
1.83694e-05
1.83874e-05
1.83994e-05
1.84056e-05
1.84056e-05
1.83996e-05
1.83876e-05
1.83704e-05
1.83469e-05
1.65411e-05
1.66565e-05
1.67688e-05
1.68775e-05
1.69834e-05
1.70856e-05
1.71841e-05
1.72783e-05
1.73684e-05
1.74542e-05
1.75353e-05
1.76115e-05
1.76833e-05
1.77503e-05
1.78119e-05
1.78684e-05
1.79196e-05
1.79654e-05
1.80056e-05
1.80408e-05
1.807e-05
1.80936e-05
1.81116e-05
1.81234e-05
1.81296e-05
1.81295e-05
1.81236e-05
1.81118e-05
1.80946e-05
1.80713e-05
1.6279e-05
1.63933e-05
1.65047e-05
1.66125e-05
1.67175e-05
1.68188e-05
1.69165e-05
1.70099e-05
1.70992e-05
1.71844e-05
1.72648e-05
1.73404e-05
1.74116e-05
1.7478e-05
1.75391e-05
1.75952e-05
1.76461e-05
1.76915e-05
1.77314e-05
1.77662e-05
1.77953e-05
1.78187e-05
1.78364e-05
1.78482e-05
1.78543e-05
1.78542e-05
1.78484e-05
1.78367e-05
1.78196e-05
1.77965e-05
1.60178e-05
1.61312e-05
1.62416e-05
1.63485e-05
1.64525e-05
1.6553e-05
1.66498e-05
1.67424e-05
1.68309e-05
1.69154e-05
1.69952e-05
1.70702e-05
1.71406e-05
1.72065e-05
1.72672e-05
1.73228e-05
1.73733e-05
1.74185e-05
1.7458e-05
1.74925e-05
1.75214e-05
1.75446e-05
1.75622e-05
1.75738e-05
1.75798e-05
1.75798e-05
1.7574e-05
1.75625e-05
1.75453e-05
1.75225e-05
1.57577e-05
1.587e-05
1.59795e-05
1.60855e-05
1.61885e-05
1.62881e-05
1.6384e-05
1.64757e-05
1.65635e-05
1.66473e-05
1.67265e-05
1.68009e-05
1.68707e-05
1.6936e-05
1.69962e-05
1.70513e-05
1.71014e-05
1.71462e-05
1.71855e-05
1.72197e-05
1.72483e-05
1.72714e-05
1.72887e-05
1.73003e-05
1.73062e-05
1.73061e-05
1.73004e-05
1.7289e-05
1.72719e-05
1.72494e-05
1.54986e-05
1.56099e-05
1.57185e-05
1.58235e-05
1.59255e-05
1.60242e-05
1.61193e-05
1.62102e-05
1.62972e-05
1.63801e-05
1.64588e-05
1.65324e-05
1.66016e-05
1.66663e-05
1.6726e-05
1.67807e-05
1.68304e-05
1.68748e-05
1.69137e-05
1.69477e-05
1.69761e-05
1.6999e-05
1.70162e-05
1.70276e-05
1.70335e-05
1.70334e-05
1.70278e-05
1.70164e-05
1.69994e-05
1.69771e-05
1.52407e-05
1.53508e-05
1.54585e-05
1.55625e-05
1.56636e-05
1.57614e-05
1.58555e-05
1.59456e-05
1.60318e-05
1.61141e-05
1.6192e-05
1.62649e-05
1.63335e-05
1.63976e-05
1.64568e-05
1.65111e-05
1.65603e-05
1.66044e-05
1.6643e-05
1.66767e-05
1.67048e-05
1.67274e-05
1.67445e-05
1.67557e-05
1.67616e-05
1.67615e-05
1.6756e-05
1.67446e-05
1.67278e-05
1.67057e-05
1.49839e-05
1.50929e-05
1.51996e-05
1.53027e-05
1.54028e-05
1.54997e-05
1.55928e-05
1.56821e-05
1.57676e-05
1.5849e-05
1.59262e-05
1.59984e-05
1.60663e-05
1.61298e-05
1.61885e-05
1.62424e-05
1.62912e-05
1.63349e-05
1.63731e-05
1.64065e-05
1.64345e-05
1.64568e-05
1.64738e-05
1.64849e-05
1.64907e-05
1.64906e-05
1.64851e-05
1.64738e-05
1.64572e-05
1.64353e-05
1.47282e-05
1.48361e-05
1.49418e-05
1.5044e-05
1.51431e-05
1.5239e-05
1.53312e-05
1.54196e-05
1.55043e-05
1.55849e-05
1.56614e-05
1.5733e-05
1.58002e-05
1.58631e-05
1.59213e-05
1.59746e-05
1.6023e-05
1.60663e-05
1.61043e-05
1.61373e-05
1.6165e-05
1.61872e-05
1.6204e-05
1.6215e-05
1.62207e-05
1.62206e-05
1.62152e-05
1.6204e-05
1.61875e-05
1.61658e-05
1.44738e-05
1.45806e-05
1.46851e-05
1.47864e-05
1.48845e-05
1.49795e-05
1.50708e-05
1.51583e-05
1.52422e-05
1.53219e-05
1.53977e-05
1.54686e-05
1.55352e-05
1.55975e-05
1.56551e-05
1.57079e-05
1.57559e-05
1.57988e-05
1.58365e-05
1.58691e-05
1.58967e-05
1.59185e-05
1.59352e-05
1.59461e-05
1.59517e-05
1.59517e-05
1.59462e-05
1.59352e-05
1.59188e-05
1.58973e-05
1.42205e-05
1.43262e-05
1.44297e-05
1.45299e-05
1.46271e-05
1.47211e-05
1.48115e-05
1.48981e-05
1.49811e-05
1.506e-05
1.5135e-05
1.52054e-05
1.52712e-05
1.53329e-05
1.539e-05
1.54423e-05
1.54898e-05
1.55324e-05
1.55696e-05
1.5602e-05
1.56293e-05
1.5651e-05
1.56674e-05
1.56782e-05
1.56837e-05
1.56837e-05
1.56783e-05
1.56674e-05
1.56511e-05
1.56298e-05
1.39685e-05
1.40731e-05
1.41754e-05
1.42747e-05
1.43708e-05
1.44638e-05
1.45533e-05
1.46389e-05
1.47212e-05
1.47993e-05
1.48736e-05
1.49433e-05
1.50084e-05
1.50694e-05
1.5126e-05
1.51778e-05
1.52248e-05
1.52669e-05
1.53038e-05
1.53359e-05
1.5363e-05
1.53844e-05
1.54008e-05
1.54114e-05
1.54168e-05
1.54168e-05
1.54115e-05
1.54006e-05
1.53845e-05
1.53634e-05
1.37177e-05
1.38212e-05
1.39224e-05
1.40207e-05
1.41158e-05
1.42078e-05
1.42963e-05
1.4381e-05
1.44624e-05
1.45398e-05
1.46132e-05
1.46822e-05
1.47468e-05
1.48071e-05
1.48631e-05
1.49145e-05
1.4961e-05
1.50026e-05
1.50391e-05
1.50709e-05
1.50978e-05
1.5119e-05
1.51352e-05
1.51458e-05
1.51509e-05
1.51509e-05
1.51457e-05
1.51349e-05
1.51189e-05
1.5098e-05
1.34682e-05
1.35706e-05
1.36707e-05
1.3768e-05
1.3862e-05
1.3953e-05
1.40405e-05
1.41243e-05
1.42047e-05
1.42814e-05
1.43541e-05
1.44224e-05
1.44863e-05
1.4546e-05
1.46014e-05
1.46522e-05
1.46983e-05
1.47394e-05
1.47756e-05
1.48071e-05
1.48336e-05
1.48546e-05
1.48706e-05
1.48812e-05
1.48862e-05
1.48863e-05
1.48811e-05
1.48703e-05
1.48546e-05
1.48338e-05
1.34202e-05
1.35165e-05
1.36094e-05
1.36994e-05
1.3786e-05
1.38688e-05
1.39484e-05
1.40243e-05
1.40962e-05
1.41637e-05
1.42269e-05
1.4286e-05
1.45706e-05
1.45914e-05
1.46073e-05
1.46177e-05
1.46226e-05
1.46227e-05
1.46176e-05
1.46069e-05
1.45913e-05
1.45708e-05
3.48447e-05
3.48686e-05
3.48864e-05
3.48981e-05
3.49039e-05
3.49037e-05
3.48975e-05
3.48853e-05
3.48672e-05
3.4843e-05
3.45845e-05
3.46143e-05
3.46385e-05
3.46563e-05
3.46684e-05
3.46743e-05
3.46739e-05
3.46677e-05
3.46554e-05
3.46371e-05
3.46125e-05
3.45824e-05
3.45459e-05
3.45038e-05
3.44557e-05
3.44019e-05
3.43422e-05
3.4277e-05
3.42065e-05
3.41302e-05
3.40489e-05
3.42727e-05
3.43148e-05
3.43509e-05
3.4381e-05
3.44052e-05
3.44234e-05
3.44355e-05
3.44416e-05
3.44414e-05
3.44351e-05
3.44225e-05
3.4404e-05
3.43791e-05
3.43485e-05
3.43118e-05
3.42691e-05
3.42206e-05
3.41663e-05
3.41063e-05
3.40405e-05
3.39693e-05
3.38923e-05
3.38101e-05
3.37229e-05
3.36305e-05
3.35328e-05
3.34303e-05
3.38722e-05
3.39324e-05
3.39871e-05
3.40354e-05
3.40781e-05
3.41147e-05
3.41449e-05
3.41693e-05
3.41878e-05
3.41999e-05
3.42059e-05
3.42057e-05
3.41994e-05
3.41868e-05
3.41679e-05
3.4143e-05
3.4112e-05
3.40749e-05
3.40319e-05
3.3983e-05
3.39282e-05
3.38676e-05
3.38013e-05
3.37294e-05
3.36518e-05
3.3569e-05
3.3481e-05
3.33878e-05
3.32895e-05
3.31861e-05
3.30783e-05
3.29653e-05
3.2848e-05
3.34921e-05
3.35646e-05
3.36311e-05
3.36917e-05
3.37468e-05
3.37957e-05
3.38388e-05
3.38756e-05
3.39063e-05
3.39307e-05
3.39493e-05
3.39617e-05
3.39677e-05
3.39674e-05
3.39609e-05
3.39482e-05
3.39294e-05
3.39043e-05
3.3873e-05
3.38354e-05
3.37922e-05
3.37428e-05
3.36875e-05
3.36264e-05
3.35595e-05
3.34871e-05
3.3409e-05
3.33256e-05
3.32368e-05
3.3143e-05
3.30438e-05
3.29399e-05
3.2831e-05
3.27175e-05
3.25993e-05
3.24767e-05
3.23501e-05
3.22191e-05
3.30857e-05
3.31695e-05
3.32477e-05
3.33204e-05
3.33874e-05
3.34485e-05
3.35039e-05
3.35533e-05
3.35968e-05
3.36338e-05
3.36648e-05
3.36896e-05
3.37082e-05
3.37207e-05
3.37268e-05
3.37266e-05
3.37199e-05
3.37072e-05
3.36882e-05
3.36627e-05
3.36312e-05
3.35934e-05
3.35498e-05
3.35003e-05
3.34446e-05
3.33831e-05
3.33155e-05
3.32426e-05
3.3164e-05
3.30798e-05
3.29905e-05
3.28959e-05
3.27959e-05
3.26913e-05
3.25818e-05
3.24674e-05
3.23484e-05
3.22252e-05
3.2098e-05
3.19662e-05
3.27482e-05
3.28378e-05
3.29221e-05
3.3001e-05
3.30741e-05
3.31416e-05
3.32031e-05
3.3259e-05
3.33086e-05
3.33524e-05
3.33897e-05
3.3421e-05
3.34459e-05
3.34647e-05
3.34771e-05
3.34834e-05
3.34832e-05
3.34764e-05
3.34635e-05
3.34443e-05
3.34187e-05
3.33871e-05
3.3349e-05
3.33051e-05
3.32552e-05
3.31991e-05
3.31372e-05
3.30692e-05
3.29957e-05
3.29167e-05
3.28318e-05
3.27419e-05
3.26466e-05
3.25461e-05
3.24406e-05
3.23304e-05
3.22153e-05
3.20958e-05
3.1972e-05
3.18441e-05
3.17117e-05
3.24024e-05
3.24976e-05
3.25879e-05
3.26727e-05
3.27521e-05
3.28258e-05
3.28936e-05
3.29555e-05
3.30116e-05
3.30616e-05
3.31057e-05
3.31434e-05
3.31749e-05
3.31999e-05
3.32189e-05
3.32312e-05
3.32377e-05
3.32376e-05
3.32308e-05
3.32175e-05
3.3198e-05
3.31723e-05
3.31405e-05
3.31024e-05
3.30582e-05
3.30078e-05
3.29514e-05
3.28891e-05
3.28207e-05
3.27466e-05
3.26672e-05
3.25817e-05
3.24913e-05
3.23952e-05
3.2294e-05
3.2188e-05
3.20772e-05
3.19616e-05
3.18415e-05
3.17172e-05
3.15886e-05
3.14554e-05
3.20483e-05
3.21494e-05
3.22452e-05
3.23359e-05
3.24213e-05
3.25011e-05
3.25752e-05
3.26436e-05
3.27059e-05
3.27622e-05
3.28126e-05
3.28567e-05
3.28949e-05
3.29264e-05
3.29516e-05
3.29706e-05
3.29831e-05
3.29895e-05
3.29895e-05
3.29826e-05
3.29694e-05
3.29495e-05
3.29237e-05
3.28916e-05
3.28535e-05
3.28089e-05
3.27583e-05
3.27016e-05
3.26388e-05
3.25702e-05
3.24956e-05
3.24156e-05
3.23297e-05
3.22387e-05
3.2142e-05
3.20402e-05
3.19337e-05
3.18224e-05
3.17061e-05
3.15856e-05
3.14606e-05
3.13313e-05
3.11976e-05
3.16862e-05
3.17928e-05
3.18945e-05
3.1991e-05
3.20821e-05
3.21679e-05
3.22482e-05
3.23228e-05
3.23917e-05
3.24543e-05
3.25107e-05
3.25613e-05
3.26057e-05
3.26441e-05
3.26758e-05
3.2701e-05
3.27201e-05
3.27328e-05
3.27393e-05
3.27392e-05
3.27322e-05
3.2719e-05
3.2699e-05
3.2673e-05
3.26406e-05
3.26024e-05
3.25578e-05
3.25068e-05
3.24498e-05
3.23866e-05
3.23175e-05
3.22426e-05
3.2162e-05
3.20759e-05
3.19842e-05
3.1887e-05
3.17847e-05
3.16777e-05
3.15658e-05
3.1449e-05
3.13279e-05
3.12024e-05
3.10726e-05
3.09385e-05
3.14285e-05
3.15357e-05
3.16378e-05
3.1735e-05
3.18266e-05
3.19127e-05
3.19936e-05
3.20686e-05
3.21377e-05
3.22006e-05
3.22572e-05
3.2308e-05
3.23528e-05
3.23912e-05
3.24232e-05
3.24485e-05
3.24676e-05
3.24804e-05
3.24869e-05
3.24868e-05
3.24797e-05
3.24664e-05
3.24464e-05
3.24202e-05
3.23877e-05
3.23493e-05
3.23044e-05
3.22532e-05
3.21959e-05
3.21324e-05
3.2063e-05
3.19878e-05
3.19067e-05
3.18201e-05
3.17281e-05
3.16304e-05
3.15276e-05
3.142e-05
3.13075e-05
3.11904e-05
3.10688e-05
3.09429e-05
3.08125e-05
3.06779e-05
3.10569e-05
3.11693e-05
3.12771e-05
3.13797e-05
3.14773e-05
3.15694e-05
3.16558e-05
3.1737e-05
3.18124e-05
3.18818e-05
3.19449e-05
3.20018e-05
3.2053e-05
3.2098e-05
3.21366e-05
3.21685e-05
3.2194e-05
3.22133e-05
3.22261e-05
3.22326e-05
3.22323e-05
3.22254e-05
3.22117e-05
3.21918e-05
3.21655e-05
3.21328e-05
3.20941e-05
3.2049e-05
3.19976e-05
3.19401e-05
3.18763e-05
3.18067e-05
3.1731e-05
3.16497e-05
3.15627e-05
3.147e-05
3.13722e-05
3.12688e-05
3.11608e-05
3.10479e-05
3.09303e-05
3.08084e-05
3.06818e-05
3.05511e-05
3.04159e-05
3.06781e-05
3.07957e-05
3.09086e-05
3.1017e-05
3.11199e-05
3.12178e-05
3.13103e-05
3.13972e-05
3.14786e-05
3.15543e-05
3.16241e-05
3.16875e-05
3.17447e-05
3.17961e-05
3.18412e-05
3.188e-05
3.19121e-05
3.19378e-05
3.19572e-05
3.197e-05
3.19765e-05
3.19761e-05
3.19689e-05