/*--------------------------------*- C++ -*----------------------------------*\
  =========                 |
  \\      /  F ield         | OpenFOAM: The Open Source CFD Toolbox
   \\    /   O peration     | Website:  https://openfoam.org
    \\  /    A nd           | Version:  7
     \\/     M anipulation  |
\*---------------------------------------------------------------------------*/
FoamFile
{
    version     2.0;
    format      ascii;
    class       volScalarField;
    location    "32000";
    object      strainRate;
}
// * * * * * * * * * * * * * * * * * * * * * * * * * * * * * * * * * * * * * //

dimensions      [0 0 -1 0 0 0 0];

internalField   nonuniform List<scalar> 
4850
(
0.00588281
0.00570157
0.00602578
0.00584861
0.00577378
0.0061703
0.00599688
0.00592153
0.00584865
0.00577841
0.00631639
0.0061464
0.00607053
0.00599714
0.00592637
0.00585834
0.0064641
0.00629725
0.00622083
0.0061469
0.00607561
0.00600705
0.00594133
0.00661346
0.0064495
0.00637249
0.00629801
0.00622618
0.00615709
0.00609085
0.00602756
0.0059673
0.00676451
0.0066032
0.0065256
0.00645054
0.00637813
0.0063085
0.00624172
0.00617791
0.00611714
0.00605949
0.00691732
0.00675843
0.0066802
0.00660453
0.00653154
0.00646133
0.006394
0.00632965
0.00626838
0.00621024
0.00615534
0.00610379
0.0060556
0.00601085
0.00707193
0.00691524
0.00683635
0.00676004
0.00668644
0.00661563
0.00654773
0.00648283
0.00642103
0.00636242
0.00630705
0.00625504
0.00620644
0.00616131
0.0061197
0.00608171
0.00604736
0.0060167
0.00722837
0.00707369
0.00699411
0.00691714
0.0068429
0.00677148
0.00670299
0.00663752
0.00657518
0.00651606
0.00646021
0.00640774
0.00635872
0.0063132
0.00627125
0.00623293
0.0061983
0.00616737
0.00614022
0.00611686
0.00738671
0.00723384
0.00715355
0.00707588
0.00700098
0.00692893
0.00685983
0.00679377
0.00673088
0.00667123
0.00661488
0.00656194
0.00651249
0.00646658
0.00642427
0.00638563
0.0063507
0.00631951
0.00629211
0.00626856
0.00624888
0.0062331
0.00622125
0.00621333
0.00754699
0.00739579
0.00731475
0.00723636
0.00716075
0.00708805
0.00701832
0.00695167
0.0068882
0.00682801
0.00677116
0.00671773
0.00666783
0.00662151
0.00657884
0.00653985
0.00650462
0.00647316
0.00644552
0.00642177
0.00640192
0.00638599
0.00637404
0.00636606
0.00636206
0.00636208
0.00636609
0.00637406
0.00638601
0.0077093
0.0075596
0.00747778
0.00739864
0.0073223
0.00724891
0.00717853
0.00711127
0.00704721
0.00698646
0.00692909
0.00687517
0.00682481
0.00677807
0.00673501
0.00669566
0.0066601
0.00662837
0.00660049
0.00657653
0.0065565
0.00654044
0.00652838
0.00652035
0.00651632
0.00651631
0.00652033
0.00652838
0.00654042
0.00655643
0.00657641
0.00660034
0.00787369
0.00772532
0.00764271
0.0075628
0.00748572
0.0074116
0.00734054
0.00727264
0.00720797
0.00714664
0.00708875
0.00703432
0.00698349
0.00693631
0.00689284
0.00685312
0.00681722
0.0067852
0.00675708
0.0067329
0.0067127
0.00669651
0.00668434
0.00667623
0.00667217
0.00667214
0.00667619
0.00668431
0.00669645
0.00671261
0.00673278
0.0067569
0.00678495
0.00681692
0.00804024
0.00789306
0.00780961
0.0077289
0.00765105
0.00757619
0.00750442
0.00743585
0.00737055
0.00730862
0.00725018
0.00719524
0.00714392
0.00709629
0.00705238
0.00701228
0.00697604
0.00694372
0.00691535
0.00689095
0.00687057
0.00685424
0.00684197
0.00683377
0.00682966
0.00682963
0.00683371
0.0068419
0.00685415
0.00687048
0.00689082
0.00691515
0.00694344
0.00697568
0.00820899
0.00806286
0.00797854
0.00789701
0.00781837
0.00774276
0.00767025
0.00760098
0.00753503
0.00747249
0.00741345
0.00735799
0.00730615
0.00725805
0.0072137
0.00717322
0.00713665
0.00710401
0.00707538
0.00705075
0.00703019
0.00701371
0.00700131
0.00699303
0.00698889
0.00698885
0.00699296
0.00700123
0.0070136
0.00703008
0.0070506
0.00707515
0.0071037
0.00713622
0.00838002
0.00823481
0.0081496
0.0080672
0.00798775
0.00791136
0.0078381
0.0077681
0.00770147
0.00763829
0.00757865
0.00752263
0.00747028
0.00742168
0.0073769
0.00733602
0.00729908
0.00726612
0.00723721
0.00721237
0.00719161
0.00717497
0.00716244
0.00715409
0.00714991
0.00714989
0.00715403
0.00716237
0.00717486
0.00719148
0.00721218
0.00723696
0.0072658
0.00729862
0.00855339
0.008409
0.00832287
0.00823957
0.00815927
0.00808206
0.00800804
0.0079373
0.00786997
0.00780612
0.00774584
0.00768926
0.00763637
0.00758728
0.00754206
0.00750076
0.00746344
0.00743014
0.00740094
0.00737586
0.00735491
0.00733809
0.00732543
0.00731701
0.0073128
0.00731279
0.00731698
0.00732537
0.00733799
0.00735475
0.00737566
0.00740069
0.00742979
0.00746294
0.00872916
0.00858549
0.00849842
0.0084142
0.00833301
0.00825495
0.00818014
0.00810863
0.00804057
0.00797604
0.00791513
0.00785794
0.00780449
0.00775491
0.00770923
0.00766751
0.00762979
0.00759616
0.00756663
0.00754129
0.00752014
0.00750315
0.00749038
0.00748188
0.00747763
0.00747762
0.00748185
0.00749032
0.00750305
0.00751998
0.00754111
0.00756638
0.00759576
0.00762925
0.00890744
0.00876435
0.00867632
0.00859117
0.00850906
0.00843012
0.00835448
0.00828218
0.00821337
0.00814813
0.00808657
0.00802875
0.00797474
0.00792463
0.00787848
0.00783632
0.0077982
0.00776422
0.00773437
0.00770876
0.00768738
0.00767022
0.00765735
0.00764876
0.00764445
0.00764443
0.00764872
0.00765728
0.00767013
0.00768724
0.00770859
0.00773412
0.0077638
0.00779763
0.00908831
0.00894567
0.00885664
0.00877053
0.00868749
0.00860765
0.00853113
0.00845802
0.00838844
0.00832248
0.00826025
0.00820178
0.00814719
0.00809653
0.00804986
0.00800726
0.00796874
0.00793439
0.00790423
0.00787833
0.00785671
0.0078394
0.00782639
0.00781772
0.00781336
0.00781333
0.00781766
0.00782633
0.00783931
0.00785659
0.00787816
0.00790397
0.00793398
0.00796816
0.00927183
0.00912956
0.00903947
0.00895238
0.00886836
0.00878759
0.00871019
0.00863625
0.00856587
0.00849916
0.00843623
0.00837711
0.0083219
0.00827068
0.00822347
0.00818042
0.00814149
0.00810676
0.00807628
0.0080501
0.00802824
0.00801075
0.0079976
0.00798883
0.00798442
0.0079844
0.00798877
0.00799753
0.00801065
0.00802813
0.00804991
0.00807601
0.00810636
0.00814091
0.00945809
0.0093161
0.00922492
0.00913679
0.00905179
0.00897005
0.00889172
0.00881691
0.00874572
0.00867824
0.00861458
0.00855479
0.00849896
0.00844714
0.00839941
0.00835587
0.00831652
0.00828141
0.00825061
0.00822414
0.00820204
0.00818433
0.00817106
0.00816218
0.00815772
0.0081577
0.00816212
0.00817099
0.00818424
0.00820191
0.00822393
0.0082503
0.008281
0.00831595
0.00835508
0.00964721
0.00950537
0.00941308
0.00932386
0.00923785
0.00915511
0.00907582
0.00900011
0.00892808
0.00885981
0.0087954
0.00873491
0.00867843
0.00862601
0.00857775
0.0085337
0.00849392
0.00845841
0.00842728
0.00840052
0.00837816
0.00836025
0.00834683
0.00833785
0.00833333
0.00833332
0.0083378
0.00834677
0.00836016
0.00837801
0.00840029
0.00842695
0.008458
0.00849336
0.00853294
0.00983924
0.00969746
0.00960403
0.00951369
0.00942662
0.00934286
0.00926259
0.00918595
0.00911305
0.00904397
0.00897878
0.00891756
0.00886042
0.00880738
0.00875857
0.008714
0.00867376
0.00863786
0.00860639
0.00857932
0.0085567
0.0085386
0.00852501
0.00851591
0.00851134
0.00851133
0.00851588
0.00852493
0.00853848
0.00855652
0.00857907
0.00860603
0.00863744
0.0086732
0.00871328
0.0100343
0.00989246
0.00979785
0.00970637
0.00961819
0.00953339
0.00945212
0.00937453
0.00930072
0.0092308
0.00916479
0.00910284
0.00904503
0.00899136
0.00894195
0.00889685
0.00885616
0.00881986
0.008788
0.00876062
0.00873775
0.00871945
0.00870569
0.00869647
0.00869184
0.00869183
0.00869643
0.00870557
0.0087193
0.00873753
0.00876035
0.00878763
0.0088194
0.00885559
0.0102324
0.0100905
0.00999464
0.009902
0.00981267
0.00972679
0.0096445
0.00956591
0.00949116
0.00942038
0.00935355
0.00929084
0.00923233
0.00917803
0.00912802
0.00908235
0.00904117
0.00900446
0.00897221
0.0089445
0.00892138
0.00890287
0.00888894
0.00887961
0.00887493
0.00887492
0.00887956
0.0088888
0.00890268
0.00892115
0.00894422
0.00897184
0.00900399
0.00904061
0.0104337
0.0102916
0.0101945
0.0101007
0.0100102
0.00992318
0.00983981
0.00976022
0.00968451
0.00961282
0.00954516
0.00948166
0.00942241
0.00936745
0.00931683
0.0092706
0.0092289
0.00919175
0.00915912
0.00913108
0.00910769
0.00908894
0.00907485
0.00906543
0.00906069
0.00906069
0.00906536
0.00907471
0.00908874
0.00910745
0.00913077
0.00915873
0.00919127
0.00922834
0.0106383
0.0104959
0.0103976
0.0103025
0.0102108
0.0101226
0.0100382
0.00995756
0.00988087
0.00980824
0.00973971
0.00967539
0.00961537
0.00955971
0.00950848
0.00946169
0.00941944
0.00938183
0.00934881
0.00932044
0.00929677
0.00927777
0.00926353
0.00925399
0.00924921
0.0092492
0.00925389
0.00926336
0.00927758
0.00929652
0.00932011
0.00934842
0.00938134
0.00941887
0.0108463
0.0107036
0.0106039
0.0105075
0.0104146
0.0103253
0.0102397
0.010158
0.0100803
0.0100067
0.00993728
0.00987211
0.00981131
0.00975495
0.00970308
0.00965571
0.00961292
0.00957481
0.00954139
0.00951267
0.00948871
0.00946947
0.00945505
0.00944541
0.00944057
0.00944055
0.00944529
0.00945488
0.00946927
0.00948844
0.00951233
0.00954098
0.0095743
0.0110579
0.0109147
0.0108136
0.0107159
0.0106217
0.0105312
0.0104445
0.0103617
0.010283
0.0102083
0.010138
0.010072
0.0100103
0.00995324
0.0099007
0.00985274
0.00980941
0.00977079
0.00973696
0.00970789
0.00968361
0.00966414
0.00964953
0.00963978
0.00963488
0.00963485
0.00963965
0.00964934
0.00966391
0.00968331
0.00970752
0.00973652
0.00977028
0.011273
0.0111293
0.0110269
0.0109278
0.0108323
0.0107405
0.0106526
0.0105687
0.0104889
0.0104132
0.0103419
0.010275
0.0102126
0.0101547
0.0101015
0.0100529
0.010009
0.00996986
0.00993562
0.00990619
0.00988159
0.00986188
0.00984708
0.00983719
0.00983224
0.00983218
0.00983705
0.00984684
0.0098616
0.00988124
0.00990578
0.00993516
0.011492
0.0113476
0.0112437
0.0111432
0.0110463
0.0109533
0.0108642
0.0107791
0.0106982
0.0106215
0.0105492
0.0104814
0.0104181
0.0103595
0.0103055
0.0102563
0.0102118
0.0101722
0.0101375
0.0101077
0.0100827
0.0100628
0.0100478
0.0100378
0.0100327
0.0100327
0.0100376
0.0100475
0.0100625
0.0100823
0.0101072
0.010137
0.0117147
0.0115697
0.0114643
0.0113624
0.0112641
0.0111697
0.0110794
0.0109931
0.010911
0.0108332
0.0107599
0.0106911
0.010627
0.0105676
0.0105128
0.010463
0.0104179
0.0103778
0.0103426
0.0103124
0.0102871
0.0102669
0.0102517
0.0102416
0.0102365
0.0102364
0.0102414
0.0102515
0.0102666
0.0102867
0.010312
0.0103422
0.0119415
0.0117957
0.0116887
0.0115853
0.0114856
0.0113899
0.0112982
0.0112107
0.0111274
0.0110486
0.0109742
0.0109045
0.0108394
0.0107792
0.0107237
0.0106731
0.0106275
0.0105868
0.0105511
0.0105205
0.0104949
0.0104744
0.0104591
0.0104488
0.0104436
0.0104435
0.0104486
0.0104588
0.0104741
0.0104945
0.0105201
0.0105508
0.0121724
0.0120258
0.0119172
0.0118122
0.0117111
0.011614
0.0115209
0.0114321
0.0113476
0.0112676
0.0111922
0.0111215
0.0110555
0.0109944
0.0109382
0.0108869
0.0108406
0.0107994
0.0107632
0.0107322
0.0107063
0.0106855
0.0106699
0.0106595
0.0106542
0.0106542
0.0106593
0.0106696
0.0106851
0.0107059
0.0107318
0.0107629
0.0124075
0.01226
0.0121497
0.0120432
0.0119406
0.011842
0.0117476
0.0116574
0.0115717
0.0114906
0.011414
0.0113423
0.0112754
0.0112133
0.0111563
0.0111043
0.0110574
0.0110156
0.0109789
0.0109475
0.0109212
0.0109001
0.0108843
0.0108738
0.0108684
0.0108684
0.0108736
0.010884
0.0108998
0.0109208
0.0109471
0.0109787
0.0126469
0.0124985
0.0123865
0.0122784
0.0121742
0.0120741
0.0119783
0.0118868
0.0117999
0.0117175
0.0116398
0.011567
0.0114991
0.0114362
0.0113784
0.0113256
0.011278
0.0112356
0.0111984
0.0111665
0.0111399
0.0111186
0.0111025
0.0110918
0.0110864
0.0110863
0.0110916
0.0111022
0.0111182
0.0111395
0.0111662
0.0111982
0.012891
0.0127414
0.0126278
0.0125179
0.0124121
0.0123106
0.0122132
0.0121204
0.0120321
0.0119485
0.0118697
0.0117958
0.0117269
0.011663
0.0116044
0.0115508
0.0115026
0.0114595
0.0114218
0.0113895
0.0113624
0.0113408
0.0113245
0.0113137
0.0113082
0.0113081
0.0113135
0.0113243
0.0113405
0.0113621
0.0113892
0.0114216
0.0131396
0.0129889
0.0128735
0.012762
0.0126546
0.0125514
0.0124526
0.0123583
0.0122687
0.0121838
0.0121038
0.0120287
0.0119588
0.011894
0.0118345
0.0117802
0.0117312
0.0116875
0.0116493
0.0116164
0.011589
0.0115671
0.0115506
0.0115395
0.011534
0.0115339
0.0115394
0.0115503
0.0115668
0.0115887
0.0116162
0.011649
0.0133931
0.0132412
0.013124
0.0130107
0.0129016
0.0127967
0.0126964
0.0126006
0.0125096
0.0124234
0.0123422
0.012266
0.012195
0.0121293
0.0120688
0.0120137
0.0119641
0.0119197
0.0118809
0.0118476
0.0118197
0.0117975
0.0117807
0.0117695
0.0117639
0.0117639
0.0117694
0.0117805
0.0117972
0.0118194
0.0118473
0.0118806
0.0136515
0.0134983
0.0133793
0.0132642
0.0131533
0.0130468
0.0129449
0.0128476
0.0127551
0.0126676
0.0125851
0.0125077
0.0124357
0.0123689
0.0123076
0.0122516
0.0122012
0.0121563
0.0121168
0.012083
0.0120548
0.0120322
0.0120152
0.0120038
0.0119982
0.0119981
0.0120037
0.012015
0.0120319
0.0120544
0.0120826
0.0121164
0.0139151
0.0137605
0.0136396
0.0135227
0.01341
0.0133017
0.0131982
0.0130993
0.0130053
0.0129165
0.0128327
0.0127541
0.012681
0.0126132
0.0125509
0.0124941
0.0124429
0.0123973
0.0123572
0.0123229
0.0122942
0.0122713
0.012254
0.0122425
0.0122368
0.0122367
0.0122424
0.0122538
0.012271
0.0122938
0.0123225
0.0123568
0.014184
0.014028
0.0139051
0.0137863
0.0136717
0.0135617
0.0134565
0.013356
0.0132605
0.0131702
0.0130851
0.0130053
0.012931
0.0128622
0.0127989
0.0127413
0.0126892
0.0126429
0.0126022
0.0125673
0.0125383
0.012515
0.0124975
0.0124858
0.0124799
0.0124799
0.0124856
0.0124972
0.0125147
0.0125379
0.0125669
0.0126017
0.0144584
0.0143008
0.0141759
0.0140551
0.0139387
0.0138269
0.0137199
0.0136177
0.0135207
0.0134289
0.0133425
0.0132614
0.013186
0.013116
0.0130518
0.0129932
0.0129404
0.0128933
0.012852
0.0128166
0.012787
0.0127634
0.0127456
0.0127338
0.0127278
0.0127278
0.0127336
0.0127454
0.012763
0.0127866
0.012816
0.0128514
0.0147385
0.0145793
0.0144522
0.0143295
0.0142111
0.0140974
0.0139886
0.0138848
0.0137862
0.0136929
0.013605
0.0135227
0.013446
0.013375
0.0133097
0.0132502
0.0131965
0.0131487
0.0131067
0.0130707
0.0130407
0.0130167
0.0129986
0.0129866
0.0129806
0.0129805
0.0129864
0.0129984
0.0130163
0.0130403
0.0130701
0.013106
0.0150245
0.0148635
0.0147343
0.0146094
0.0144891
0.0143735
0.0142629
0.0141573
0.0140571
0.0139622
0.0138729
0.0137893
0.0137113
0.0136391
0.0135727
0.0135123
0.0134578
0.0134091
0.0133666
0.01333
0.0132995
0.013275
0.0132567
0.0132445
0.0132384
0.0132383
0.0132443
0.0132564
0.0132746
0.013299
0.0133293
0.0153165
0.0151537
0.0150223
0.0148952
0.0147729
0.0146553
0.0145428
0.0144355
0.0143335
0.0142371
0.0141463
0.0140613
0.013982
0.0139087
0.0138412
0.0137798
0.0137243
0.0136749
0.0136317
0.0135945
0.0135635
0.0135386
0.01352
0.0135076
0.0135013
0.0135013
0.0135074
0.0135197
0.0135382
0.0135629
0.0135937
0.0156148
0.0154501
0.0153164
0.0151871
0.0150627
0.014943
0.0148286
0.0147194
0.0146158
0.0145177
0.0144254
0.014339
0.0142584
0.0141838
0.0141152
0.0140527
0.0139964
0.0139462
0.0139022
0.0138645
0.0138329
0.0138076
0.0137887
0.013776
0.0137697
0.0137697
0.0137759
0.0137884
0.0138072
0.0138323
0.0159196
0.0157529
0.0156168
0.0154853
0.0153586
0.0152369
0.0151204
0.0150094
0.014904
0.0148042
0.0147104
0.0146225
0.0145405
0.0144647
0.0143949
0.0143313
0.0142741
0.0142231
0.0141784
0.01414
0.014108
0.0140823
0.014063
0.0140501
0.0140437
0.0140436
0.01405
0.0140627
0.0140818
0.0141073
0.0162311
0.0160623
0.0159238
0.0157899
0.015661
0.0155371
0.0154186
0.0153056
0.0151984
0.0150969
0.0150014
0.014912
0.0148287
0.0147515
0.0146805
0.0146159
0.0145578
0.0145059
0.0144604
0.0144214
0.0143888
0.0143627
0.0143431
0.01433
0.0143234
0.0143233
0.0143298
0.0143427
0.0143622
0.0143881
0.0165495
0.0163786
0.0162376
0.0161013
0.01597
0.0158439
0.0157233
0.0156083
0.0154992
0.015396
0.0152988
0.0152079
0.015123
0.0150446
0.0149724
0.0149066
0.0148475
0.0147948
0.0147486
0.0147088
0.0146757
0.0146492
0.0146292
0.0146159
0.0146092
0.0146091
0.0146156
0.0146288
0.0146486
0.014675
0.0168751
0.016702
0.0165583
0.0164196
0.0162858
0.0161575
0.0160347
0.0159177
0.0158066
0.0157017
0.0156028
0.0155102
0.0154239
0.015344
0.0152706
0.0152037
0.0151436
0.01509
0.0150429
0.0150026
0.0149688
0.0149419
0.0149215
0.014908
0.0149011
0.014901
0.0149077
0.0149211
0.0149413
0.0149681
0.0172081
0.0170327
0.0168864
0.0167451
0.0166089
0.0164782
0.0163531
0.016234
0.0161209
0.0160141
0.0159135
0.0158192
0.0157314
0.0156501
0.0155754
0.0155074
0.0154462
0.0153917
0.0153438
0.0153027
0.0152684
0.015241
0.0152203
0.0152065
0.0151994
0.0151993
0.0152061
0.0152198
0.0152403
0.0152677
0.0175489
0.017371
0.0172219
0.017078
0.0169393
0.0168062
0.0166789
0.0165575
0.0164424
0.0163336
0.0162312
0.0161353
0.0160459
0.0159631
0.0158871
0.0158179
0.0157556
0.0157001
0.0156514
0.0156096
0.0155747
0.0155467
0.0155257
0.0155116
0.0155044
0.0155043
0.0155113
0.0155252
0.015546
0.015574
0.0178976
0.0177172
0.0175653
0.0174187
0.0172774
0.0171418
0.0170121
0.0168885
0.0167712
0.0166604
0.0165562
0.0164585
0.0163675
0.0162832
0.0162059
0.0161354
0.016072
0.0160155
0.015966
0.0159234
0.0158879
0.0158594
0.0158379
0.0158236
0.0158163
0.0158162
0.0158233
0.0158375
0.0158587
0.0158872
0.0182546
0.0180716
0.0179168
0.0177674
0.0176233
0.0174852
0.017353
0.0172271
0.0171077
0.0169948
0.0168887
0.0167893
0.0166965
0.0166107
0.016532
0.0164603
0.0163956
0.0163381
0.0162877
0.0162443
0.0162082
0.0161792
0.0161574
0.0161428
0.0161354
0.0161353
0.0161425
0.016157
0.0161785
0.0162075
0.0186202
0.0184344
0.0182767
0.0181243
0.0179775
0.0178367
0.017702
0.0175738
0.0174521
0.0173371
0.017229
0.0171277
0.0170333
0.0169459
0.0168658
0.0167927
0.0167268
0.0166683
0.0166169
0.0165728
0.016536
0.0165065
0.0164842
0.0164693
0.0164618
0.0164617
0.0164691
0.0164838
0.0165058
0.0165353
0.0189946
0.018806
0.0186452
0.0184899
0.0183403
0.0181967
0.0180594
0.0179287
0.0178047
0.0176875
0.0175774
0.0174742
0.017378
0.017289
0.0172074
0.017133
0.0170659
0.0170062
0.0169539
0.0169089
0.0168715
0.0168414
0.0168188
0.0168036
0.0167959
0.0167959
0.0168034
0.0168183
0.0168407
0.0168707
0.0193782
0.0191867
0.0190227
0.0188644
0.0187118
0.0185654
0.0184255
0.0182923
0.0181659
0.0180465
0.0179342
0.017829
0.017731
0.0176403
0.0175571
0.0174814
0.017413
0.0173521
0.0172989
0.0172531
0.0172149
0.0171842
0.0171612
0.0171458
0.017138
0.017138
0.0171456
0.0171607
0.0171836
0.0172142
0.0197714
0.0195768
0.0194095
0.0192481
0.0190925
0.0189432
0.0188006
0.0186647
0.018536
0.0184142
0.0182996
0.0181924
0.0180926
0.0180002
0.0179154
0.0178382
0.0177685
0.0177065
0.0176522
0.0176055
0.0175666
0.0175354
0.017512
0.0174963
0.0174884
0.0174883
0.017496
0.0175115
0.0175348
0.0175659
0.0201745
0.0199768
0.019806
0.0196413
0.0194827
0.0193305
0.0191849
0.0190464
0.0189151
0.0187909
0.0186741
0.0185649
0.0184631
0.018369
0.0182825
0.0182038
0.0181328
0.0180695
0.0180142
0.0179666
0.0179269
0.0178951
0.0178713
0.0178553
0.0178472
0.0178472
0.017855
0.0178708
0.0178946
0.0179262
0.0205878
0.0203869
0.0202126
0.0200446
0.0198827
0.0197274
0.019579
0.0194377
0.0193037
0.0191771
0.019058
0.0189466
0.0188429
0.0187469
0.0186587
0.0185784
0.018506
0.0184416
0.0183851
0.0183366
0.0182962
0.0182638
0.0182395
0.0182232
0.0182149
0.0182149
0.0182229
0.018239
0.0182633
0.0182955
0.0210118
0.0208076
0.0206297
0.0204581
0.0202929
0.0201344
0.019983
0.0198389
0.0197022
0.0195731
0.0194516
0.019338
0.0192323
0.0191344
0.0190445
0.0189625
0.0188887
0.018823
0.0187654
0.0187159
0.0186747
0.0186417
0.0186169
0.0186004
0.0185919
0.0185919
0.0186001
0.0186165
0.0186412
0.018674
0.0214469
0.0212391
0.0210575
0.0208824
0.0207138
0.020552
0.0203975
0.0202504
0.0201109
0.0199792
0.0198553
0.0197395
0.0196316
0.0195318
0.01944
0.0193565
0.0192812
0.0192141
0.0191553
0.0191049
0.0190629
0.0190292
0.0190039
0.0189871
0.0189785
0.0189785
0.0189868
0.0190035
0.0190287
0.0190622
0.0218935
0.021682
0.0214967
0.0213178
0.0211457
0.0209805
0.0208228
0.0206727
0.0205303
0.020396
0.0202695
0.0201513
0.0200413
0.0199394
0.0198458
0.0197606
0.0196838
0.0196153
0.0195553
0.0195039
0.019461
0.0194267
0.0194009
0.0193838
0.019375
0.019375
0.0193835
0.0194005
0.0194263
0.0194604
0.0223519
0.0221368
0.0219475
0.0217648
0.021589
0.0214203
0.0212593
0.0211061
0.0209608
0.0208237
0.0206946
0.0205739
0.0204617
0.0203577
0.0202622
0.0201752
0.0200968
0.020027
0.0199658
0.0199134
0.0198695
0.0198345
0.0198082
0.0197907
0.0197819
0.0197818
0.0197905
0.0198079
0.0198342
0.019869
0.0228229
0.0226037
0.0224104
0.0222238
0.0220442
0.021872
0.0217075
0.0215512
0.0214028
0.0212628
0.021131
0.0210077
0.0208932
0.0207872
0.0206896
0.0206009
0.0205209
0.0204496
0.0203872
0.0203336
0.0202888
0.0202531
0.0202263
0.0202085
0.0201995
0.0201994
0.0202083
0.020226
0.0202529
0.0202884
0.0233067
0.0230835
0.022886
0.0226953
0.0225118
0.0223359
0.0221679
0.0220083
0.0218568
0.0217138
0.0215792
0.0214533
0.0213364
0.0212282
0.0211286
0.0210379
0.0209563
0.0208836
0.0208199
0.0207651
0.0207194
0.020683
0.0206556
0.0206374
0.0206282
0.0206282
0.0206372
0.0206554
0.0206828
0.020719
0.0238041
0.0235766
0.0233748
0.0231798
0.0229924
0.0228126
0.022641
0.022478
0.0223232
0.0221771
0.0220397
0.0219111
0.0217916
0.0216812
0.0215795
0.0214869
0.0214036
0.0213294
0.0212644
0.0212084
0.0211617
0.0211245
0.0210965
0.0210779
0.0210686
0.0210686
0.0210778
0.0210964
0.0211243
0.0211614
0.0238774
0.023678
0.0234864
0.0233026
0.0231274
0.0229607
0.0228027
0.0226533
0.0225129
0.0223816
0.0222596
0.0221468
0.0216162
0.0215782
0.0215496
0.0215305
0.0215212
0.0215211
0.0215305
0.0215496
0.0215781
0.021616
0.00410084
0.00408652
0.00407575
0.00406855
0.00406494
0.00406492
0.0040685
0.00407566
0.00408639
0.00410067
0.00425529
0.0042374
0.00422303
0.00421221
0.00420498
0.00420135
0.00420133
0.00420493
0.00421212
0.0042229
0.00423724
0.00425511
0.00427648
0.0043013
0.00432952
0.00436108
0.00439594
0.00443401
0.00447526
0.00451964
0.00456708
0.00443914
0.00441418
0.00439269
0.00437472
0.00436028
0.00434942
0.00434216
0.00433851
0.00433849
0.0043421
0.00434933
0.00436017
0.00437459
0.00439255
0.00441404
0.004439
0.00446738
0.00449913
0.00453419
0.00457251
0.00461404
0.00465873
0.00470651
0.00475734
0.00481118
0.00486798
0.00492768
0.00467343
0.00463813
0.00460616
0.00457761
0.00455251
0.0045309
0.00451283
0.00449832
0.00448741
0.00448012
0.00447646
0.00447644
0.00448007
0.00448733
0.00449823
0.00451272
0.00453079
0.0045524
0.00457751
0.00460606
0.004638
0.00467329
0.00471187
0.00475369
0.00479869
0.00484681
0.00489801
0.00495222
0.00500941
0.00506952
0.00513246
0.00519819
0.00526658
0.00489434
0.00485221
0.00481337
0.00477784
0.00474568
0.00471695
0.0046917
0.00466996
0.00465179
0.0046372
0.00462623
0.00461889
0.00461522
0.00461522
0.00461887
0.00462617
0.00463712
0.00465169
0.00466987
0.00469162
0.00471687
0.0047456
0.00477775
0.00481327
0.00485211
0.00489422
0.00493954
0.004988
0.00503957
0.00509417
0.00515176
0.00521227
0.00527564
0.00534178
0.00541059
0.00548198
0.00555581
0.00574143
0.0051302
0.00508138
0.00503574
0.00499335
0.00495425
0.00491848
0.00488611
0.0048572
0.00483178
0.00480992
0.00479163
0.00477696
0.00476593
0.00475855
0.00475486
0.00475486
0.00475854
0.00476588
0.00477689
0.00479156
0.00480985
0.00483173
0.00485714
0.00488604
0.0049184
0.00495417
0.00499328
0.00503568
0.00508132
0.00513014
0.00518208
0.00523707
0.00529508
0.00535601
0.00541981
0.00548638
0.00555564
0.00562746
0.00570173
0.00588289
0.0053256
0.00527328
0.00522411
0.00517815
0.00513546
0.00509609
0.00506008
0.00502749
0.00499839
0.00497281
0.00495082
0.00493241
0.00491765
0.00490655
0.00489914
0.00489543
0.00489542
0.00489913
0.00490652
0.00491761
0.00493236
0.00495076
0.00497278
0.00499835
0.00502745
0.00506003
0.00509604
0.00513543
0.00517814
0.0052241
0.00527328
0.0053256
0.005381
0.00543942
0.0055008
0.00556504
0.00563206
0.00570177
0.00577404
0.00584878
0.00602587
0.00552591
0.00547012
0.00541742
0.00536789
0.00532159
0.00527859
0.00523894
0.00520268
0.00516988
0.00514058
0.00511483
0.00509269
0.00507417
0.00505931
0.00504815
0.0050407
0.00503696
0.00503696
0.00504068
0.00504814
0.0050593
0.00507415
0.00509266
0.00511482
0.00514057
0.00516987
0.00520268
0.00523894
0.00527861
0.00532163
0.00536794
0.00541748
0.00547019
0.00552601
0.00558486
0.00564667
0.00571137
0.00577885
0.00584903
0.00592179
0.00599703
0.0061704
0.00573122
0.00567195
0.00561575
0.00556266
0.00551276
0.00546612
0.0054228
0.00538285
0.00534633
0.00531331
0.00528381
0.0052579
0.00523559
0.00521696
0.00520201
0.00519078
0.00518328
0.00517952
0.00517951
0.00518326
0.00519077
0.00520202
0.00521697
0.00523561
0.00525791
0.00528384
0.00531334
0.00534639
0.00538292
0.00542288
0.00546622
0.00551287
0.00556279
0.0056159
0.00567214
0.00573143
0.0057937
0.00585886
0.00592683
0.00599751
0.00607079
0.00614656
0.0063165
0.00594161
0.00587891
0.0058192
0.00576255
0.00570907
0.00565878
0.00561178
0.00556813
0.00552788
0.00549109
0.00545784
0.00542814
0.00540205
0.00537959
0.00536083
0.00534579
0.00533449
0.00532694
0.00532316
0.00532315
0.00532693
0.00533448
0.00534582
0.00536088
0.00537965
0.0054021
0.0054282
0.00545792
0.00549121
0.00552801
0.00556828
0.00561195
0.00565896
0.00570926
0.00576278
0.00581946
0.0058792
0.00594194
0.00600758
0.00607606
0.00614726
0.00622108
0.00629741
0.0064642
0.00609105
0.00602787
0.00596769
0.00591059
0.00585668
0.005806
0.00575863
0.00571464
0.00567408
0.00563703
0.00560353
0.00557362
0.00554733
0.00552472
0.00550583
0.0054907
0.00547932
0.00547172
0.00546792
0.00546791
0.00547173
0.00547934
0.00549075
0.00550592
0.00552483
0.00554744
0.00557373
0.00560366
0.0056372
0.00567429
0.00571487
0.00575887
0.00580626
0.00585695
0.00591089
0.00596801
0.00602822
0.00609145
0.00615761
0.00622661
0.00629835
0.00637273
0.00644964
0.00661356
0.00630848
0.00624183
0.00617813
0.00611748
0.00605992
0.00600557
0.00595449
0.00590674
0.0058624
0.00582153
0.00578419
0.00575044
0.0057203
0.00569381
0.00567104
0.00565202
0.00563678
0.00562532
0.00561767
0.00561385
0.00561386
0.0056177
0.00562538
0.00563687
0.00565215
0.00567119
0.00569398
0.00572048
0.00575064
0.00578443
0.00582181
0.0058627
0.00590706
0.00595482
0.00600592
0.0060603
0.00611787
0.00617857
0.0062423
0.00630899
0.00637853
0.00645084
0.00652582
0.00660333
0.00676463
0.00653129
0.00646122
0.00639402
0.00632978
0.00626862
0.0062106
0.0061558
0.0061043
0.00605617
0.00601147
0.00597027
0.00593263
0.0058986
0.00586823
0.00584156
0.00581861
0.00579945
0.00578409
0.00577255
0.00576485
0.005761
0.00576103
0.00576492
0.00577266
0.00578423
0.00579962
0.00581881
0.00584178
0.00586849
0.0058989
0.00593296
0.00597062
0.00601184
0.00605656
0.00610471
0.00615624
0.00621106
0.0062691
0.0063303
0.00639455
0.00646178
0.0065319
0.0066048
0.0066804
0.00675855
0.00691744
0.00668611
0.00661543
0.00654766
0.00648288
0.00642119
0.00636268
0.00630742
0.00625549
0.00620696
0.00616189
0.00612036
0.00608241
0.0060481
0.00601749
0.00599062
0.0059675
0.00594817
0.0059327
0.00592107
0.00591332
0.00590945
0.00590949
0.00591342
0.00592122
0.00593288
0.00594838
0.00596774
0.0059909
0.00601782
0.00604847
0.00608281
0.00612078
0.00616234
0.00620743
0.006256
0.00630795
0.00636324
0.00642176
0.00648348
0.00654828
0.00661608
0.00668679
0.00676031
0.00683655
0.00691537
0.00707204
0.00691659
0.00684249
0.00677119
0.00670283
0.00663748
0.00657525
0.00651624
0.00646049
0.00640811
0.00635917
0.00631373
0.00627184
0.00623359
0.006199
0.00616814
0.00614104
0.00611774
0.00609827
0.00608266
0.00607095
0.00606314
0.00605925
0.00605931
0.00606327
0.00607113
0.00608288
0.00609852
0.00611804
0.00614138
0.00616853
0.00619943
0.00623405
0.00627234
0.00631425
0.00635973
0.00640871
0.00646112
0.00651688
0.00657591
0.00663816
0.00670354
0.00677194
0.00684327
0.00691743
0.00699432
0.00707382
0.00722848
0.00707525
0.00700048
0.00692856
0.00685958
0.00679365
0.00673087
0.00667133
0.00661508
0.00656223
0.00651286
0.00646703
0.0064248
0.00638622
0.00635135
0.00632023
0.0062929
0.00626942
0.0062498
0.00623406
0.00622226
0.00621438
0.00621048
0.00621053
0.00621453
0.00622245
0.0062343
0.00625008
0.00626975
0.00629329
0.00632067
0.00635184
0.00638676
0.00642538
0.00646765
0.00651352
0.00656293
0.0066158
0.00667205
0.00673162
0.00679442
0.00686039
0.00692941
0.00700139
0.00707621
0.00715378
0.00723398
0.00738682
0.00723564
0.00716017
0.00708759
0.00701799
0.00695147
0.00688811
0.00682803
0.00677128
0.00671794
0.00666813
0.00662189
0.00657929
0.00654039
0.00650521
0.00647383
0.00644627
0.00642258
0.0064028
0.00638694
0.00637503
0.00636711
0.00636318
0.00636323
0.00636725
0.00637524
0.00638719
0.00640312
0.00642295
0.0064467
0.00647432
0.00650576
0.00654099
0.00657996
0.00662261
0.00666887
0.00671872
0.00677207
0.00682884
0.00688895
0.00695233
0.00701891
0.00708856
0.0071612
0.00723671
0.007315
0.00739593
0.00754711
0.00739783
0.00732163
0.00724837
0.00717813
0.00711099
0.00704704
0.0069864
0.00692914
0.00687531
0.00682504
0.00677838
0.00673539
0.00669613
0.00666064
0.00662899
0.00660119
0.0065773
0.00655734
0.00654135
0.00652934
0.00652136
0.0065174
0.00651744
0.00652149
0.00652955
0.00654163
0.00655769
0.00657771
0.00660166
0.00662953
0.00666125
0.0066968
0.00673613
0.00677916
0.00682585
0.00687615
0.00692999
0.00698729
0.00704797
0.00711196
0.00717915
0.00724947
0.00732278
0.00739902
0.00747805
0.00755975
0.00770943
0.0075619
0.00748495
0.00741097
0.00734005
0.00727227
0.00720772
0.00714651
0.00708872
0.0070344
0.00698366
0.00693656
0.00689316
0.00685352
0.00681771
0.00678577
0.00675773
0.00673362
0.00671349
0.00669736
0.00668526
0.00667721
0.0066732
0.00667323
0.00667732
0.00668547
0.00669766
0.00671388
0.00673409
0.00675825
0.00678637
0.00681838
0.00685426
0.00689395
0.00693736
0.00698451
0.00703527
0.00708962
0.00714749
0.00720876
0.00727336
0.0073412
0.00741218
0.00748621
0.00756319
0.00764299
0.0077255
0.00787384
0.00772789
0.00765019
0.00757548
0.00750384
0.0074354
0.00737023
0.00730842
0.00725008
0.00719524
0.00714402
0.00709647
0.00705265
0.00701263
0.00697648
0.00694424
0.00691595
0.00689163
0.00687132
0.00685505
0.00684285
0.00683472
0.00683067
0.00683069
0.00683482
0.00684306
0.00685537
0.00687175
0.00689214
0.00691653
0.00694489
0.0069772
0.00701342
0.00705347
0.00709732
0.00714491