/*--------------------------------*- C++ -*----------------------------------*\
  =========                 |
  \\      /  F ield         | OpenFOAM: The Open Source CFD Toolbox
   \\    /   O peration     | Website:  https://openfoam.org
    \\  /    A nd           | Version:  7
     \\/     M anipulation  |
\*---------------------------------------------------------------------------*/
FoamFile
{
    version     2.0;
    format      ascii;
    class       volVectorField;
    location    "32000";
    object      U;
}
// * * * * * * * * * * * * * * * * * * * * * * * * * * * * * * * * * * * * * //

dimensions      [0 1 -1 0 0 0 0];

internalField   nonuniform List<vector> 
4850
(
(-1.48072e-18 -6.17903e-19 -0.0120071)
(-1.21676e-18 -7.06556e-19 -0.0120191)
(-1.42848e-18 -6.25633e-19 -0.0119839)
(-1.33638e-18 -5.00767e-19 -0.011996)
(-1.01059e-18 -2.99769e-19 -0.0120076)
(-1.17633e-18 -5.69024e-19 -0.0119603)
(-1.38766e-18 -4.22246e-19 -0.0119726)
(-1.05221e-18 -3.0313e-19 -0.0119843)
(-9.36124e-19 -4.85696e-20 -0.0119957)
(-7.24791e-19 -1.43826e-19 -0.0120067)
(-1.05855e-18 -6.26154e-19 -0.0119365)
(-1.32953e-18 -4.14232e-19 -0.0119489)
(-1.03741e-18 -2.70319e-19 -0.0119608)
(-1.02147e-18 -7.56083e-20 -0.0119723)
(-6.98222e-19 -1.10238e-19 -0.0119834)
(-5.54843e-19 3.97832e-19 -0.011994)
(-9.30457e-19 -7.59134e-19 -0.0119125)
(-1.32604e-18 -3.0562e-19 -0.0119249)
(-1.17658e-18 7.72532e-21 -0.0119369)
(-9.7275e-19 -8.60614e-20 -0.0119486)
(-8.77272e-19 3.87154e-19 -0.0119598)
(-3.86995e-19 5.09935e-19 -0.0119705)
(-5.74395e-19 9.70301e-19 -0.0119808)
(-9.37998e-19 -5.88732e-19 -0.0118881)
(-1.09739e-18 -1.00527e-19 -0.0119007)
(-1.2422e-18 4.113e-20 -0.0119128)
(-9.89179e-19 2.41695e-20 -0.0119246)
(-9.14653e-19 6.05532e-19 -0.0119359)
(-4.28653e-19 5.79407e-19 -0.0119467)
(-3.99008e-19 1.01131e-18 -0.0119572)
(-6.57023e-19 1.07769e-18 -0.0119671)
(-1.118e-18 6.71221e-19 -0.0119766)
(-9.53066e-19 -5.57364e-19 -0.0118635)
(-1.15336e-18 2.29502e-20 -0.0118762)
(-1.10764e-18 -1.29766e-19 -0.0118884)
(-9.61527e-19 2.04023e-19 -0.0119003)
(-9.07721e-19 6.06893e-19 -0.0119117)
(-4.77086e-19 8.29216e-19 -0.0119227)
(-2.44055e-19 9.84083e-19 -0.0119332)
(-5.86601e-19 6.71852e-19 -0.0119433)
(-1.04562e-18 1.70258e-19 -0.0119528)
(-1.14895e-18 3.67266e-19 -0.0119619)
(-8.56954e-19 -4.02578e-19 -0.0118387)
(-1.00242e-18 7.52757e-20 -0.0118514)
(-1.16737e-18 -1.07555e-19 -0.0118638)
(-8.49812e-19 2.66642e-19 -0.0118757)
(-7.40398e-19 4.83892e-19 -0.0118873)
(-5.82686e-19 9.15195e-19 -0.0118983)
(-3.06953e-19 7.24043e-19 -0.011909)
(-5.0878e-19 2.41212e-19 -0.0119191)
(-9.05951e-19 5.39804e-20 -0.0119288)
(-1.02985e-18 3.1742e-19 -0.011938)
(-1.13989e-18 1.94463e-19 -0.0119466)
(-1.48573e-18 7.86464e-20 -0.0119548)
(-1.40499e-18 -3.74079e-19 -0.0119624)
(-1.38418e-18 -1.94961e-19 -0.0119694)
(-1.11395e-18 1.5065e-19 -0.0118136)
(-8.91292e-19 -6.70868e-20 -0.0118264)
(-1.08585e-18 -1.22877e-19 -0.0118389)
(-8.25764e-19 1.24494e-19 -0.0118509)
(-5.34482e-19 2.30195e-19 -0.0118626)
(-4.45108e-19 7.3116e-19 -0.0118737)
(-3.56762e-19 4.48748e-19 -0.0118845)
(-5.43182e-19 1.49367e-19 -0.0118947)
(-8.31423e-19 4.93124e-20 -0.0119045)
(-9.50666e-19 1.31166e-19 -0.0119137)
(-1.07022e-18 -1.08054e-19 -0.0119225)
(-1.46057e-18 -1.61928e-19 -0.0119307)
(-1.51232e-18 3.21556e-20 -0.0119384)
(-1.39814e-18 8.14611e-20 -0.0119455)
(-1.49429e-18 -1.42e-19 -0.0119521)
(-1.6249e-18 -2.82489e-19 -0.0119581)
(-1.74838e-18 -6.85771e-20 -0.0119635)
(-1.31002e-18 2.36511e-19 -0.0119683)
(-1.23073e-18 2.13379e-19 -0.0117882)
(-1.06447e-18 -6.19299e-20 -0.0118012)
(-1.09473e-18 -1.41541e-19 -0.0118137)
(-8.49902e-19 1.59034e-19 -0.0118259)
(-4.33127e-19 1.27367e-19 -0.0118376)
(-3.22464e-19 4.44999e-19 -0.0118489)
(-3.28575e-19 2.09884e-19 -0.0118597)
(-5.2862e-19 1.19851e-19 -0.01187)
(-7.913e-19 -2.11441e-20 -0.0118799)
(-9.23962e-19 -7.41072e-20 -0.0118892)
(-1.03178e-18 -2.61668e-19 -0.011898)
(-1.20498e-18 -3.30515e-19 -0.0119063)
(-1.46766e-18 3.13822e-19 -0.0119141)
(-1.54535e-18 8.54644e-20 -0.0119213)
(-1.63544e-18 -2.16455e-19 -0.0119279)
(-1.6063e-18 -3.9267e-19 -0.011934)
(-1.64001e-18 -1.228e-19 -0.0119394)
(-1.34884e-18 -7.67434e-20 -0.0119443)
(-7.13117e-19 -5.23798e-19 -0.0119486)
(-9.56077e-19 -1.51374e-19 -0.0119523)
(-1.108e-18 -6.49907e-20 -0.0117626)
(-1.10594e-18 -5.28353e-20 -0.0117757)
(-1.08591e-18 -1.01342e-19 -0.0117883)
(-9.52458e-19 1.48452e-19 -0.0118006)
(-5.45544e-19 1.68925e-19 -0.0118124)
(-1.89216e-19 1.80921e-19 -0.0118237)
(-1.83083e-19 -1.72264e-19 -0.0118347)
(-4.80318e-19 3.88885e-21 -0.0118451)
(-7.55276e-19 -1.60214e-19 -0.011855)
(-9.06465e-19 -1.96957e-19 -0.0118644)
(-1.02699e-18 -4.42206e-19 -0.0118733)
(-9.75431e-19 -5.78364e-19 -0.0118817)
(-1.24431e-18 2.36265e-20 -0.0118895)
(-1.54046e-18 -2.7681e-19 -0.0118968)
(-1.74966e-18 -8.04841e-20 -0.0119035)
(-1.61367e-18 -2.46006e-19 -0.0119096)
(-1.64976e-18 -2.75669e-20 -0.0119151)
(-1.52574e-18 -3.04409e-19 -0.0119201)
(-7.87381e-19 -7.4917e-19 -0.0119244)
(-6.86023e-19 -4.91095e-19 -0.0119281)
(-1.01095e-18 1.50655e-20 -0.0119312)
(-7.66094e-19 -1.49374e-19 -0.0119337)
(-1.01985e-18 -3.81715e-19 -0.0119356)
(-8.89093e-19 -1.08707e-18 -0.0119368)
(-9.69358e-19 -2.98823e-19 -0.0117368)
(-1.09621e-18 -5.85955e-20 -0.0117499)
(-1.07029e-18 -1.43732e-19 -0.0117627)
(-8.94985e-19 1.03747e-19 -0.011775)
(-7.38565e-19 3.13859e-19 -0.0117869)
(-4.74077e-19 2.41932e-19 -0.0117984)
(-8.43375e-20 -3.68786e-19 -0.0118094)
(-3.05024e-19 -9.08601e-20 -0.0118199)
(-6.7405e-19 -3.32858e-19 -0.0118299)
(-9.22945e-19 -3.11315e-19 -0.0118394)
(-1.04297e-18 -7.35465e-19 -0.0118484)
(-9.27245e-19 -4.18621e-19 -0.0118568)
(-1.07097e-18 -2.75558e-19 -0.0118647)
(-1.33646e-18 -6.26132e-19 -0.011872)
(-1.65416e-18 -1.09492e-19 -0.0118788)
(-1.70872e-18 1.6592e-21 -0.011885)
(-1.66022e-18 -3.13878e-19 -0.0118905)
(-1.75587e-18 -3.1278e-19 -0.0118955)
(-9.08749e-19 -3.13306e-19 -0.0118999)
(-5.653e-19 -6.09267e-20 -0.0119036)
(-9.00875e-19 -7.08277e-20 -0.0119068)
(-8.76221e-19 -1.05171e-19 -0.0119093)
(-1.24031e-18 -5.74864e-19 -0.0119112)
(-8.98994e-19 -7.84512e-19 -0.0119124)
(-6.53731e-19 -4.21994e-19 -0.0119131)
(-2.7913e-18 1.17276e-22 -0.0119131)
(-4.1732e-18 6.61632e-20 -0.0119124)
(-2.91498e-18 -2.61223e-19 -0.0119112)
(-2.47333e-18 -2.70434e-19 -0.0119093)
(-9.354e-19 -3.30199e-19 -0.0117107)
(-9.75986e-19 -1.1697e-19 -0.011724)
(-1.11178e-18 -7.49227e-20 -0.0117368)
(-8.65525e-19 1.2298e-19 -0.0117492)
(-7.5027e-19 4.47972e-19 -0.0117612)
(-8.06836e-19 5.10727e-19 -0.0117728)
(-4.12993e-19 -6.88411e-20 -0.0117838)
(-2.88674e-19 -7.90465e-20 -0.0117944)
(-6.70926e-19 -2.86396e-19 -0.0118045)
(-9.50872e-19 -4.03433e-19 -0.0118141)
(-1.05317e-18 -5.42652e-19 -0.0118232)
(-8.93432e-19 -1.93517e-19 -0.0118317)
(-1.13652e-18 -4.52988e-19 -0.0118396)
(-1.25066e-18 -7.27169e-19 -0.011847)
(-1.37753e-18 -2.95757e-19 -0.0118538)
(-1.80664e-18 5.68351e-20 -0.01186)
(-1.72064e-18 -5.15544e-19 -0.0118657)
(-1.67425e-18 -3.83286e-20 -0.0118707)
(-9.20446e-19 2.2851e-19 -0.0118751)
(-6.39514e-19 2.6177e-19 -0.0118789)
(-9.8751e-19 -3.4857e-20 -0.0118821)
(-9.95438e-19 4.91723e-20 -0.0118846)
(-1.32242e-18 -4.53473e-19 -0.0118865)
(-8.40808e-19 2.57964e-20 -0.0118878)
(-4.99204e-19 -1.0718e-19 -0.0118884)
(-2.73253e-18 -8.70457e-20 -0.0118884)
(-4.20074e-18 1.75845e-19 -0.0118878)
(-2.93828e-18 3.96149e-19 -0.0118865)
(-2.50438e-18 3.71513e-20 -0.0118846)
(-3.59582e-18 1.29695e-19 -0.011882)
(-3.99367e-18 -4.01969e-19 -0.0118789)
(-4.49582e-18 -1.26149e-18 -0.0118751)
(-1.05779e-18 -1.60049e-19 -0.0116844)
(-7.78191e-19 -3.27381e-19 -0.0116977)
(-1.11966e-18 3.60428e-20 -0.0117107)
(-1.02685e-18 5.35285e-19 -0.0117232)
(-7.37071e-19 5.86927e-19 -0.0117353)
(-8.48921e-19 3.93629e-19 -0.0117469)
(-6.58482e-19 8.57662e-20 -0.0117581)
(-3.02068e-19 -1.72407e-19 -0.0117687)
(-6.99438e-19 -2.6744e-19 -0.0117789)
(-9.13741e-19 -4.7295e-19 -0.0117886)
(-1.10454e-18 -3.37401e-19 -0.0117977)
(-9.05216e-19 -3.5155e-19 -0.0118063)
(-1.18592e-18 -4.93045e-19 -0.0118143)
(-1.27885e-18 -3.98471e-19 -0.0118217)
(-1.18786e-18 -3.54032e-19 -0.0118286)
(-1.76225e-18 -1.75173e-19 -0.0118349)
(-1.74019e-18 -3.24041e-19 -0.0118405)
(-1.63688e-18 3.45314e-19 -0.0118456)
(-9.94058e-19 5.92601e-19 -0.01185)
(-6.94643e-19 1.97514e-19 -0.0118539)
(-9.77811e-19 1.72824e-20 -0.0118571)
(-1.08241e-18 2.71867e-19 -0.0118596)
(-1.26976e-18 -2.46794e-19 -0.0118615)
(-7.74856e-19 4.50477e-19 -0.0118628)
(-6.8229e-19 -8.15496e-20 -0.0118635)
(-2.72353e-18 -1.41193e-19 -0.0118635)
(-4.01386e-18 2.7379e-19 -0.0118628)
(-2.89186e-18 1.07414e-18 -0.0118615)
(-2.59988e-18 4.46892e-19 -0.0118596)
(-3.74056e-18 4.21225e-19 -0.0118571)
(-4.20918e-18 2.70213e-20 -0.0118539)
(-5.07126e-18 -1.0614e-19 -0.01185)
(-5.85289e-18 -2.77971e-18 -0.0118456)
(-9.43675e-18 -3.16234e-18 -0.0118405)
(-1.30836e-18 -1.60987e-20 -0.0116579)
(-7.37231e-19 -3.53652e-19 -0.0116713)
(-8.77819e-19 2.12539e-19 -0.0116843)
(-1.15706e-18 8.68013e-19 -0.0116969)
(-7.5181e-19 2.45539e-19 -0.0117091)
(-7.6782e-19 -5.01189e-20 -0.0117208)
(-7.5123e-19 -1.25736e-19 -0.011732)
(-3.75974e-19 -2.01612e-19 -0.0117428)
(-5.95664e-19 -5.00818e-19 -0.011753)
(-8.57618e-19 -5.57054e-19 -0.0117628)
(-1.06172e-18 -4.123e-19 -0.011772)
(-8.77808e-19 -4.6106e-19 -0.0117806)
(-1.10569e-18 -4.26222e-19 -0.0117887)
(-1.324e-18 -1.75497e-19 -0.0117962)
(-1.1475e-18 -6.24062e-19 -0.0118031)
(-1.63928e-18 -4.75855e-19 -0.0118094)
(-1.58181e-18 -2.67025e-19 -0.0118151)
(-1.44967e-18 4.0679e-19 -0.0118203)
(-1.08851e-18 3.84668e-19 -0.0118247)
(-8.66431e-19 1.41521e-19 -0.0118286)
(-9.31976e-19 -1.14033e-20 -0.0118318)
(-1.12191e-18 2.6109e-19 -0.0118344)
(-1.27352e-18 -1.41072e-19 -0.0118363)
(-7.73383e-19 2.23692e-19 -0.0118376)
(-7.45614e-19 -1.24218e-19 -0.0118383)
(-2.64217e-18 1.42786e-20 -0.0118383)
(-3.72664e-18 4.32914e-19 -0.0118376)
(-2.80866e-18 1.41527e-18 -0.0118363)
(-2.80505e-18 8.84221e-19 -0.0118344)
(-3.86119e-18 7.61588e-19 -0.0118318)
(-4.27456e-18 4.53658e-19 -0.0118286)
(-5.57635e-18 1.01924e-18 -0.0118247)
(-6.65662e-18 -1.26336e-18 -0.0118202)
(-1.30998e-17 -2.41543e-18 -0.0118151)
(-1.46354e-18 4.14594e-20 -0.0116311)
(-9.48694e-19 -1.28174e-19 -0.0116446)
(-6.61093e-19 2.43664e-19 -0.0116577)
(-1.1461e-18 7.2331e-19 -0.0116704)
(-7.75492e-19 -2.49235e-19 -0.0116827)
(-6.40886e-19 -3.83093e-19 -0.0116944)
(-6.68218e-19 -2.54156e-19 -0.0117058)
(-4.82805e-19 -2.05435e-19 -0.0117166)
(-6.19873e-19 -6.26504e-19 -0.0117269)
(-7.54549e-19 -6.01165e-19 -0.0117367)
(-1.03408e-18 -4.64758e-19 -0.011746)
(-8.41783e-19 -5.79675e-19 -0.0117547)
(-1.01805e-18 -4.15716e-19 -0.0117628)
(-1.35949e-18 -3.60189e-19 -0.0117704)
(-1.153e-18 -8.80559e-19 -0.0117774)
(-1.48759e-18 -6.0094e-19 -0.0117837)
(-1.40792e-18 -3.36853e-19 -0.0117895)
(-1.34741e-18 -1.19592e-19 -0.0117946)
(-1.01467e-18 -3.95157e-19 -0.0117992)
(-8.71953e-19 1.81061e-19 -0.011803)
(-9.01753e-19 -8.75171e-20 -0.0118063)
(-1.11608e-18 8.48053e-20 -0.0118089)
(-1.32014e-18 -7.06647e-20 -0.0118108)
(-7.64678e-19 1.21852e-19 -0.0118121)
(-7.59481e-19 -9.77053e-21 -0.0118128)
(-2.55672e-18 -3.14177e-19 -0.0118128)
(-3.47869e-18 4.95242e-19 -0.0118121)
(-2.71786e-18 1.20247e-18 -0.0118108)
(-2.94511e-18 1.07228e-18 -0.0118089)
(-4.05048e-18 6.92985e-19 -0.0118063)
(-4.17627e-18 1.01158e-18 -0.011803)
(-5.82807e-18 1.53816e-18 -0.0117991)
(-7.59804e-18 7.1839e-19 -0.0117946)
(-1.93733e-17 2.51205e-20 -0.0117895)
(-1.3667e-18 2.63189e-20 -0.0116042)
(-1.09424e-18 -7.14161e-20 -0.0116177)
(-5.07506e-19 1.86486e-19 -0.0116309)
(-1.0719e-18 4.30841e-19 -0.0116437)
(-9.3937e-19 -4.68743e-19 -0.011656)
(-6.6345e-19 -3.67223e-19 -0.0116679)
(-6.33655e-19 -3.33648e-19 -0.0116793)
(-5.05699e-19 -3.00097e-19 -0.0116902)
(-7.04708e-19 -5.33072e-19 -0.0117006)
(-6.84236e-19 -6.78131e-19 -0.0117104)
(-9.93456e-19 -5.72061e-19 -0.0117198)
(-8.61049e-19 -4.86662e-19 -0.0117285)
(-9.2614e-19 -4.78253e-19 -0.0117367)
(-1.39762e-18 -5.43625e-19 -0.0117444)
(-1.14987e-18 -9.64776e-19 -0.0117514)
(-1.35634e-18 -6.70449e-19 -0.0117578)
(-1.38879e-18 -4.28362e-19 -0.0117636)
(-1.38765e-18 -4.13042e-19 -0.0117688)
(-8.67181e-19 -5.6192e-19 -0.0117733)
(-7.79267e-19 3.8864e-19 -0.0117772)
(-9.48184e-19 -1.38455e-19 -0.0117805)
(-1.07497e-18 -8.66205e-20 -0.0117831)
(-1.30344e-18 1.52776e-19 -0.0117851)
(-7.64955e-19 3.03647e-19 -0.0117864)
(-9.15066e-19 -4.77809e-20 -0.0117871)
(-2.509e-18 -5.55861e-19 -0.0117871)
(-3.15806e-18 6.68199e-19 -0.0117864)
(-2.63678e-18 9.13555e-19 -0.0117851)
(-3.15483e-18 8.99926e-19 -0.0117831)
(-4.06332e-18 5.65792e-19 -0.0117805)
(-3.99501e-18 1.60704e-18 -0.0117772)
(-5.96557e-18 1.75079e-18 -0.0117733)
(-8.13426e-18 2.60389e-18 -0.0117688)
(-2.62767e-17 7.4117e-18 -0.0117636)
(-1.34546e-18 4.88344e-20 -0.011577)
(-1.1219e-18 -2.14938e-19 -0.0115906)
(-5.08243e-19 2.43302e-19 -0.0116039)
(-8.86167e-19 3.0891e-20 -0.0116167)
(-1.02444e-18 -5.43598e-19 -0.0116291)
(-7.01204e-19 -3.52707e-19 -0.0116411)
(-6.33841e-19 -3.81315e-19 -0.0116525)
(-5.76933e-19 -1.74666e-19 -0.0116635)
(-8.53873e-19 -3.67661e-19 -0.011674)
(-7.30433e-19 -6.03237e-19 -0.0116839)
(-9.17724e-19 -5.1741e-19 -0.0116933)
(-8.65422e-19 -4.47751e-19 -0.0117021)
(-9.18678e-19 -5.76012e-19 -0.0117104)
(-1.447e-18 -6.54705e-19 -0.0117181)
(-1.19981e-18 -9.19032e-19 -0.0117251)
(-1.25365e-18 -6.07207e-19 -0.0117316)
(-1.2989e-18 -4.79842e-19 -0.0117375)
(-1.42131e-18 -3.73171e-19 -0.0117427)
(-8.07948e-19 7.03731e-20 -0.0117473)
(-7.59859e-19 6.85955e-19 -0.0117512)
(-1.07691e-18 -1.58719e-19 -0.0117545)
(-9.6354e-19 -2.1413e-19 -0.0117571)
(-1.21335e-18 4.04333e-19 -0.0117591)
(-8.79962e-19 7.16309e-19 -0.0117604)
(-1.10358e-18 -5.97833e-20 -0.0117611)
(-2.33387e-18 -2.8107e-19 -0.0117611)
(-2.93052e-18 9.28341e-19 -0.0117604)
(-2.70489e-18 7.86046e-19 -0.0117591)
(-3.25141e-18 8.75651e-19 -0.0117571)
(-3.884e-18 8.70633e-19 -0.0117545)
(-3.8088e-18 1.92072e-18 -0.0117512)
(-5.76767e-18 2.26546e-18 -0.0117472)
(-6.99893e-18 4.01343e-18 -0.0117427)
(-1.74237e-17 1.08042e-17 -0.0117374)
(-1.22451e-18 -9.72073e-20 -0.0115496)
(-1.30998e-18 -7.1716e-20 -0.0115633)
(-5.79454e-19 3.04763e-19 -0.0115766)
(-6.5716e-19 -5.63471e-19 -0.0115895)
(-1.02063e-18 -6.69822e-19 -0.011602)
(-6.87502e-19 -4.29768e-19 -0.011614)
(-6.22554e-19 -3.17339e-19 -0.0116256)
(-6.56414e-19 1.12988e-19 -0.0116366)
(-9.87671e-19 -2.09634e-19 -0.0116472)
(-8.58347e-19 -3.71268e-19 -0.0116572)
(-1.04158e-18 -2.04095e-19 -0.0116666)
(-8.28031e-19 -6.79926e-19 -0.0116755)
(-8.75502e-19 -6.56535e-19 -0.0116838)
(-1.48789e-18 -5.94075e-19 -0.0116915)
(-1.23018e-18 -6.71577e-19 -0.0116987)
(-1.24089e-18 -3.87587e-19 -0.0117052)
(-1.29947e-18 -4.36798e-19 -0.0117111)
(-1.27978e-18 -1.03307e-19 -0.0117163)
(-6.68501e-19 5.72679e-19 -0.0117209)
(-8.58152e-19 4.28717e-19 -0.0117249)
(-1.32792e-18 1.13248e-19 -0.0117282)
(-8.3908e-19 -2.20903e-19 -0.0117309)
(-9.61277e-19 3.96547e-19 -0.0117329)
(-9.77303e-19 7.51313e-19 -0.0117342)
(-1.31448e-18 4.95555e-20 -0.0117349)
(-2.16921e-18 -5.60396e-20 -0.0117349)
(-2.79915e-18 7.46495e-19 -0.0117342)
(-2.74178e-18 7.79039e-19 -0.0117329)
(-3.23519e-18 1.20747e-18 -0.0117309)
(-3.6901e-18 1.34051e-18 -0.0117282)
(-3.58949e-18 2.19073e-18 -0.0117249)
(-5.31831e-18 2.94406e-18 -0.0117209)
(-5.64709e-18 4.98394e-18 -0.0117163)
(-1.11235e-17 1.03542e-17 -0.0117111)
(-8.88719e-19 -4.00231e-19 -0.011522)
(-1.38647e-18 6.21173e-20 -0.0115358)
(-7.82279e-19 9.24501e-20 -0.0115492)
(-5.50007e-19 -9.62747e-19 -0.0115622)
(-9.42279e-19 -6.14786e-19 -0.0115747)
(-6.47725e-19 -4.40005e-19 -0.0115868)
(-5.56078e-19 -1.9253e-19 -0.0115984)
(-6.53616e-19 2.1339e-19 -0.0116095)
(-1.05959e-18 -2.48303e-19 -0.0116201)
(-9.58565e-19 -1.58734e-21 -0.0116302)
(-1.28039e-18 1.64654e-19 -0.0116397)
(-9.86955e-19 -7.07081e-19 -0.0116486)
(-7.76933e-19 -6.51202e-19 -0.011657)
(-1.48933e-18 -3.89005e-19 -0.0116648)
(-1.28311e-18 -3.9084e-19 -0.011672)
(-1.23401e-18 -2.63241e-19 -0.0116785)
(-1.30111e-18 4.66502e-21 -0.0116844)
(-1.20991e-18 3.15037e-19 -0.0116897)
(-7.47205e-19 8.58599e-19 -0.0116944)
(-8.219e-19 7.85199e-20 -0.0116984)
(-1.40744e-18 4.47125e-19 -0.0117017)
(-8.97372e-19 7.38888e-20 -0.0117044)
(-8.39798e-19 5.10468e-19 -0.0117064)
(-1.00537e-18 4.2339e-19 -0.0117077)
(-1.42927e-18 2.6115e-19 -0.0117084)
(-2.11429e-18 8.23864e-20 -0.0117084)
(-2.69416e-18 4.14227e-19 -0.0117077)
(-2.61542e-18 6.90299e-19 -0.0117064)
(-3.13607e-18 1.19828e-18 -0.0117044)
(-3.50222e-18 1.918e-18 -0.0117017)
(-3.31153e-18 2.50583e-18 -0.0116984)
(-4.74659e-18 3.59357e-18 -0.0116944)
(-4.5251e-18 5.83458e-18 -0.0116897)
(-7.63208e-18 9.18353e-18 -0.0116844)
(-7.20328e-19 -4.7985e-19 -0.0114941)
(-1.17554e-18 -1.41652e-19 -0.011508)
(-8.6466e-19 -2.04225e-19 -0.0115215)
(-7.27549e-19 -7.97198e-19 -0.0115345)
(-9.94878e-19 -3.57344e-19 -0.0115472)
(-6.75745e-19 -3.70231e-19 -0.0115593)
(-5.05515e-19 -1.21749e-19 -0.011571)
(-5.20425e-19 -5.06692e-20 -0.0115822)
(-1.01356e-18 -2.33154e-19 -0.0115928)
(-8.81185e-19 1.54183e-19 -0.011603)
(-1.27408e-18 -2.63877e-19 -0.0116125)
(-1.30647e-18 -4.13568e-19 -0.0116215)
(-7.86915e-19 -3.56525e-19 -0.01163)
(-1.4352e-18 -2.32988e-19 -0.0116378)
(-1.29895e-18 -3.23277e-19 -0.011645)
(-1.13936e-18 -1.62511e-19 -0.0116516)
(-1.26457e-18 3.98778e-19 -0.0116576)
(-1.12326e-18 5.56979e-19 -0.0116629)
(-8.6161e-19 1.08911e-18 -0.0116676)
(-9.48082e-19 2.29381e-19 -0.0116716)
(-1.36984e-18 4.01128e-19 -0.011675)
(-8.78005e-19 1.51317e-19 -0.0116776)
(-8.37657e-19 5.75129e-19 -0.0116797)
(-1.05129e-18 3.5925e-19 -0.011681)
(-1.4593e-18 5.42331e-19 -0.0116817)
(-2.16216e-18 3.49697e-19 -0.0116817)
(-2.64256e-18 4.72094e-19 -0.011681)
(-2.52638e-18 7.2449e-19 -0.0116797)
(-2.89405e-18 1.17868e-18 -0.0116776)
(-3.19049e-18 2.30577e-18 -0.0116749)
(-3.05543e-18 2.72498e-18 -0.0116716)
(-4.07667e-18 4.08699e-18 -0.0116676)
(-3.75188e-18 6.162e-18 -0.0116629)
(-5.64579e-18 8.25975e-18 -0.0116576)
(-6.56444e-19 -4.1385e-19 -0.0114661)
(-1.14771e-18 -1.71818e-19 -0.01148)
(-9.14579e-19 -2.83048e-19 -0.0114936)
(-8.60298e-19 -4.63104e-19 -0.0115067)
(-1.07451e-18 -1.48207e-19 -0.0115194)
(-7.85314e-19 -2.50829e-19 -0.0115316)
(-5.89388e-19 -6.26606e-21 -0.0115434)
(-4.32056e-19 -1.78922e-19 -0.0115546)
(-1.0314e-18 -9.96277e-21 -0.0115653)
(-9.5356e-19 6.50092e-20 -0.0115755)
(-1.11097e-18 -7.00578e-19 -0.0115852)
(-1.32699e-18 -7.82631e-20 -0.0115942)
(-9.29038e-19 8.0697e-20 -0.0116027)
(-1.43973e-18 -3.09366e-19 -0.0116106)
(-1.31659e-18 -2.62769e-19 -0.0116178)
(-9.64948e-19 -2.56496e-19 -0.0116245)
(-1.12535e-18 4.10413e-19 -0.0116305)
(-1.04599e-18 6.22219e-19 -0.0116358)
(-8.29409e-19 5.50872e-19 -0.0116405)
(-1.08549e-18 3.81926e-19 -0.0116446)
(-1.40988e-18 5.69938e-20 -0.011648)
(-8.44161e-19 -1.63772e-19 -0.0116507)
(-7.54373e-19 3.84855e-19 -0.0116527)
(-1.01058e-18 4.23005e-19 -0.0116541)
(-1.44687e-18 5.71223e-19 -0.0116547)
(-2.18848e-18 6.23717e-19 -0.0116547)
(-2.60645e-18 7.1834e-19 -0.0116541)
(-2.38933e-18 1.31924e-18 -0.0116527)
(-2.63247e-18 1.47013e-18 -0.0116507)
(-2.96567e-18 2.41546e-18 -0.0116479)
(-2.75843e-18 2.78688e-18 -0.0116446)
(-3.50894e-18 4.33763e-18 -0.0116405)
(-3.26888e-18 5.88406e-18 -0.0116358)
(-4.36548e-18 7.4388e-18 -0.0116305)
(-5.76585e-19 -3.44104e-19 -0.0114379)
(-1.14734e-18 -6.82701e-20 -0.0114519)
(-9.90845e-19 -3.13536e-19 -0.0114655)
(-9.17808e-19 -3.28333e-19 -0.0114787)
(-1.10323e-18 -8.51369e-20 -0.0114914)
(-8.73336e-19 -1.22318e-19 -0.0115037)
(-7.61003e-19 2.61087e-19 -0.0115155)
(-3.51862e-19 -2.6019e-19 -0.0115268)
(-9.69519e-19 6.84034e-20 -0.0115376)
(-9.80024e-19 -1.83582e-19 -0.0115479)
(-1.16189e-18 -5.79168e-19 -0.0115575)
(-1.26612e-18 1.35845e-19 -0.0115667)
(-1.076e-18 3.25136e-19 -0.0115752)
(-1.51937e-18 -2.22499e-19 -0.0115831)
(-1.42496e-18 7.8086e-20 -0.0115904)
(-8.64341e-19 -3.20816e-19 -0.0115971)
(-9.23591e-19 3.12997e-19 -0.0116031)
(-1.08418e-18 4.74527e-19 -0.0116085)
(-7.86534e-19 8.28432e-20 -0.0116133)
(-1.13109e-18 5.33932e-19 -0.0116173)
(-1.53872e-18 -1.06683e-19 -0.0116207)
(-7.93034e-19 6.46742e-20 -0.0116235)
(-6.11154e-19 3.6419e-19 -0.0116255)
(-9.76325e-19 4.5571e-19 -0.0116269)
(-1.39143e-18 1.83244e-19 -0.0116276)
(-2.15587e-18 6.46226e-19 -0.0116276)
(-2.44046e-18 7.39636e-19 -0.0116269)
(-2.25974e-18 1.72447e-18 -0.0116255)
(-2.57384e-18 1.40102e-18 -0.0116235)
(-2.7568e-18 2.68109e-18 -0.0116207)
(-2.46789e-18 2.80006e-18 -0.0116173)
(-3.04954e-18 4.33076e-18 -0.0116132)
(-2.93575e-18 5.67472e-18 -0.0116085)
(-3.45165e-18 6.82558e-18 -0.0116031)
(1.58024e-18 1.03071e-17 -0.0115971)
(-5.08261e-19 -3.77239e-19 -0.0114094)
(-1.08277e-18 -1.34362e-19 -0.0114235)
(-9.94864e-19 -4.14477e-19 -0.0114372)
(-9.657e-19 -1.21569e-19 -0.0114504)
(-1.07387e-18 -7.59689e-20 -0.0114632)
(-8.87496e-19 4.29615e-22 -0.0114756)
(-1.00941e-18 5.10264e-19 -0.0114875)
(-4.49852e-19 -2.0064e-19 -0.0114988)
(-8.91428e-19 -2.41462e-20 -0.0115097)
(-9.64769e-19 -4.05896e-19 -0.01152)
(-1.09511e-18 -3.68937e-19 -0.0115297)
(-1.17962e-18 2.99542e-19 -0.0115389)
(-1.0903e-18 2.58964e-19 -0.0115475)
(-1.57318e-18 -2.96986e-20 -0.0115554)
(-1.57227e-18 3.72301e-19 -0.0115628)
(-9.59273e-19 -4.55008e-20 -0.0115695)
(-7.54815e-19 8.9284e-20 -0.0115756)
(-1.06072e-18 1.6067e-19 -0.011581)
(-7.36163e-19 9.65182e-20 -0.0115858)
(-1.15705e-18 7.79308e-19 -0.0115898)
(-1.63876e-18 3.45519e-19 -0.0115933)
(-8.07842e-19 7.64465e-19 -0.011596)
(-6.16009e-19 4.43668e-19 -0.0115981)
(-1.06313e-18 4.8497e-19 -0.0115995)
(-1.37476e-18 -3.19262e-19 -0.0116001)
(-2.03705e-18 4.43443e-19 -0.0116001)
(-2.27328e-18 8.37847e-19 -0.0115995)
(-2.21521e-18 1.44837e-18 -0.0115981)
(-2.41578e-18 1.11365e-18 -0.011596)
(-2.49682e-18 2.82e-18 -0.0115933)
(-2.27835e-18 2.75211e-18 -0.0115898)
(-2.67172e-18 3.9936e-18 -0.0115857)
(-2.63767e-18 5.41757e-18 -0.011581)
(-2.71562e-18 6.32128e-18 -0.0115756)
(1.33872e-18 9.08099e-18 -0.0115695)
(-4.80893e-19 -2.73832e-19 -0.0113808)
(-9.74167e-19 -1.97181e-19 -0.0113949)
(-9.77399e-19 -4.06454e-19 -0.0114086)
(-1.0493e-18 9.44211e-20 -0.011422)
(-1.07936e-18 -1.15944e-19 -0.0114348)
(-8.07255e-19 6.04505e-20 -0.0114473)
(-9.71503e-19 3.43575e-19 -0.0114592)
(-7.86037e-19 2.53314e-19 -0.0114706)
(-8.54995e-19 -1.54315e-19 -0.0114815)
(-1.05117e-18 -2.43089e-19 -0.0114919)
(-1.04352e-18 -2.07072e-19 -0.0115017)
(-1.11554e-18 2.58195e-19 -0.0115109)
(-1.0272e-18 -7.80729e-20 -0.0115195)
(-1.50188e-18 1.16911e-20 -0.0115275)
(-1.54111e-18 3.14385e-19 -0.0115349)
(-1.10359e-18 5.78548e-20 -0.0115417)
(-7.21866e-19 -2.31724e-19 -0.0115478)
(-9.83073e-19 -1.17215e-19 -0.0115532)
(-6.03126e-19 2.86304e-19 -0.011558)
(-9.97418e-19 5.99191e-19 -0.0115621)
(-1.66697e-18 7.65163e-19 -0.0115656)
(-9.23267e-19 1.36684e-18 -0.0115683)
(-7.18875e-19 5.24725e-19 -0.0115704)
(-1.2251e-18 2.28542e-19 -0.0115718)
(-1.40525e-18 -3.91616e-19 -0.0115725)
(-1.79453e-18 3.15301e-19 -0.0115725)
(-2.1393e-18 8.97046e-19 -0.0115718)
(-2.26676e-18 1.15138e-18 -0.0115704)
(-2.21241e-18 9.60385e-19 -0.0115683)
(-2.27266e-18 2.49101e-18 -0.0115656)
(-2.17362e-18 2.61972e-18 -0.0115621)
(-2.38491e-18 3.42816e-18 -0.011558)
(-2.35042e-18 5.14876e-18 -0.0115532)
(-2.18796e-18 5.8187e-18 -0.0115478)
(1.07629e-18 7.82105e-18 -0.0115417)
(-5.62413e-19 -7.47195e-20 -0.0113519)
(-9.57262e-19 -2.16416e-19 -0.0113661)
(-9.30124e-19 -3.77279e-19 -0.0113799)
(-9.69607e-19 6.11681e-20 -0.0113933)
(-1.18366e-18 -1.83645e-20 -0.0114062)
(-7.704e-19 -1.1266e-20 -0.0114187)
(-7.69961e-19 1.01132e-19 -0.0114307)
(-1.03672e-18 6.69934e-19 -0.0114422)
(-9.31854e-19 -1.99295e-19 -0.0114532)
(-1.11905e-18 -2.68716e-20 -0.0114636)
(-1.00244e-18 -1.78007e-19 -0.0114734)
(-1.11184e-18 1.70464e-19 -0.0114827)
(-1.00632e-18 -1.74744e-19 -0.0114913)
(-1.37526e-18 -8.53033e-20 -0.0114994)
(-1.53031e-18 1.83325e-19 -0.0115068)
(-1.20089e-18 -2.10925e-20 -0.0115136)
(-8.01875e-19 8.51062e-21 -0.0115198)
(-8.70093e-19 -2.37671e-20 -0.0115252)
(-5.69384e-19 5.79547e-19 -0.0115301)
(-8.61561e-19 2.82403e-19 -0.0115342)
(-1.43151e-18 7.17916e-19 -0.0115377)
(-1.00967e-18 1.57247e-18 -0.0115404)
(-1.01464e-18 5.23408e-19 -0.0115425)
(-1.35998e-18 5.81656e-20 -0.0115439)
(-1.35828e-18 3.20787e-20 -0.0115446)
(-1.62767e-18 4.27318e-19 -0.0115446)
(-2.04493e-18 8.45554e-19 -0.0115439)
(-2.28068e-18 1.10956e-18 -0.0115425)
(-2.03595e-18 9.67342e-19 -0.0115404)
(-2.07005e-18 2.1431e-18 -0.0115377)
(-2.07617e-18 2.496e-18 -0.0115342)
(-2.05295e-18 3.1262e-18 -0.0115301)
(-2.02741e-18 4.85342e-18 -0.0115252)
(-1.88238e-18 5.15372e-18 -0.0115198)
(-4.78163e-19 -5.46573e-22 -0.0113229)
(-1.05379e-18 -8.96472e-20 -0.0113371)
(-9.53615e-19 -3.38526e-19 -0.011351)
(-8.60647e-19 3.83507e-20 -0.0113644)
(-1.31021e-18 1.48921e-19 -0.0113774)
(-8.25597e-19 -1.33914e-20 -0.01139)
(-6.61933e-19 2.0943e-19 -0.011402)
(-1.09909e-18 7.75169e-19 -0.0114136)
(-1.14149e-18 2.93667e-20 -0.0114246)
(-1.20559e-18 1.44765e-19 -0.011435)
(-1.01976e-18 -1.28321e-19 -0.0114449)
(-1.10431e-18 1.79848e-19 -0.0114542)
(-1.10791e-18 -3.82664e-20 -0.011463)
(-1.26393e-18 -2.16242e-19 -0.0114711)
(-1.48963e-18 1.77265e-19 -0.0114785)
(-1.22405e-18 1.20469e-19 -0.0114853)
(-8.7802e-19 3.9752e-19 -0.0114915)
(-8.6667e-19 1.51929e-19 -0.011497)
(-5.61601e-19 6.81198e-19 -0.0115019)
(-8.17773e-19 2.34278e-20 -0.011506)
(-1.19787e-18 4.50794e-19 -0.0115095)
(-9.97033e-19 1.10791e-18 -0.0115123)
(-1.23601e-18 4.78753e-19 -0.0115144)
(-1.40697e-18 3.34811e-19 -0.0115158)
(-1.30301e-18 5.41321e-19 -0.0115165)
(-1.54524e-18 5.30559e-19 -0.0115165)
(-1.96857e-18 9.18912e-19 -0.0115158)
(-2.29063e-18 1.12378e-18 -0.0115144)
(-1.89863e-18 1.21658e-18 -0.0115123)
(-1.88928e-18 1.90707e-18 -0.0115095)
(-1.94439e-18 2.42025e-18 -0.011506)
(-1.77728e-18 2.833e-18 -0.0115019)
(-1.9314e-18 4.24302e-18 -0.011497)
(-1.76252e-18 4.4212e-18 -0.0114915)
(-3.29008e-19 3.60084e-20 -0.0112936)
(-9.08238e-19 -2.74043e-19 -0.0113079)
(-9.83207e-19 -3.33419e-19 -0.0113219)
(-7.80491e-19 9.96429e-20 -0.0113354)
(-1.42608e-18 3.3414e-19 -0.0113484)
(-9.06483e-19 2.37572e-20 -0.011361)
(-5.71765e-19 2.62398e-19 -0.0113731)
(-9.91584e-19 6.23214e-19 -0.0113847)
(-1.31019e-18 2.53501e-19 -0.0113958)
(-1.30699e-18 2.33663e-19 -0.0114063)
(-1.09832e-18 4.36794e-20 -0.0114162)
(-1.09287e-18 1.85475e-19 -0.0114256)
(-1.22063e-18 1.15982e-19 -0.0114344)
(-1.22343e-18 -2.31076e-19 -0.0114425)
(-1.34811e-18 -7.92105e-20 -0.01145)
(-1.20013e-18 1.23281e-19 -0.0114569)
(-9.09818e-19 4.68814e-19 -0.0114631)
(-8.4147e-19 1.71264e-19 -0.0114686)
(-6.04893e-19 5.665e-19 -0.0114735)
(-8.29931e-19 -1.76029e-19 -0.0114777)
(-1.05175e-18 5.37652e-19 -0.0114812)
(-9.33892e-19 6.25281e-19 -0.011484)
(-1.28143e-18 4.77469e-19 -0.0114861)
(-1.37893e-18 4.96317e-19 -0.0114875)
(-1.31283e-18 7.80686e-19 -0.0114882)
(-1.5247e-18 5.04189e-19 -0.0114882)
(-1.90462e-18 9.71698e-19 -0.0114875)
(-2.25148e-18 1.02213e-18 -0.0114861)
(-1.78595e-18 1.4306e-18 -0.011484)
(-1.78258e-18 1.69299e-18 -0.0114812)
(-1.85225e-18 2.35651e-18 -0.0114777)
(-1.6203e-18 2.60734e-18 -0.0114735)
(-1.83073e-18 3.64673e-18 -0.0114686)
(-1.52479e-18 4.09658e-18 -0.0114631)
(-3.69561e-19 -4.48688e-20 -0.0112642)
(-6.34192e-19 -6.44324e-19 -0.0112785)
(-1.01982e-18 -1.41339e-19 -0.0112925)
(-6.72542e-19 1.83019e-19 -0.0113061)
(-1.22049e-18 -3.6184e-20 -0.0113192)
(-1.08079e-18 1.14761e-19 -0.0113319)
(-5.24088e-19 3.07311e-19 -0.011344)
(-9.88336e-19 7.83778e-19 -0.0113557)
(-1.38798e-18 4.20982e-19 -0.0113668)
(-1.39713e-18 3.51625e-19 -0.0113773)
(-1.20125e-18 2.08949e-19 -0.0113873)
(-1.08078e-18 1.77208e-19 -0.0113967)
(-1.28654e-18 1.28525e-19 -0.0114055)
(-1.28948e-18 -2.83402e-19 -0.0114137)
(-1.25902e-18 -2.55312e-19 -0.0114213)
(-1.07334e-18 1.18058e-19 -0.0114282)
(-8.67655e-19 3.31607e-19 -0.0114344)
(-8.49823e-19 9.73743e-20 -0.01144)
(-5.92911e-19 2.36557e-19 -0.0114449)
(-7.94069e-19 1.49382e-20 -0.0114491)
(-9.8811e-19 8.74027e-19 -0.0114526)
(-9.75831e-19 5.78704e-19 -0.0114554)
(-1.29246e-18 5.00205e-19 -0.0114575)
(-1.34471e-18 5.81359e-19 -0.0114589)
(-1.31595e-18 9.10893e-19 -0.0114596)
(-1.50527e-18 4.25196e-19 -0.0114596)
(-1.85848e-18 9.4904e-19 -0.0114589)
(-2.22106e-18 8.63091e-19 -0.0114575)
(-1.72208e-18 1.28155e-18 -0.0114554)
(-1.72122e-18 1.24096e-18 -0.0114526)
(-1.7399e-18 2.16359e-18 -0.0114491)
(-1.47094e-18 2.63451e-18 -0.0114449)
(-1.69541e-18 3.43572e-18 -0.01144)
(-1.31083e-18 3.86137e-18 -0.0114344)
(-4.24127e-19 -1.61079e-19 -0.0112345)
(-5.45341e-19 -6.4567e-19 -0.011249)
(-9.7613e-19 7.96165e-21 -0.011263)
(-7.996e-19 2.38033e-19 -0.0112766)
(-9.86544e-19 -3.57059e-19 -0.0112898)
(-1.20014e-18 4.97767e-19 -0.0113025)
(-5.60044e-19 5.75534e-19 -0.0113147)
(-8.90175e-19 7.63158e-19 -0.0113264)
(-1.50343e-18 5.36717e-19 -0.0113376)
(-1.49809e-18 4.62224e-19 -0.0113482)
(-1.26048e-18 1.95925e-19 -0.0113582)
(-1.0912e-18 1.01132e-19 -0.0113677)
(-1.30877e-18 6.33875e-21 -0.0113765)
(-1.34941e-18 -2.11489e-19 -0.0113847)
(-1.24921e-18 -6.14831e-20 -0.0113923)
(-1.07894e-18 2.91887e-19 -0.0113992)
(-8.55167e-19 1.62236e-19 -0.0114055)
(-8.67722e-19 3.9352e-20 -0.0114111)
(-5.54548e-19 1.24747e-19 -0.011416)
(-6.69832e-19 3.05192e-19 -0.0114203)
(-9.05819e-19 8.51802e-19 -0.0114238)
(-1.05704e-18 6.76627e-19 -0.0114266)
(-1.29738e-18 5.02343e-19 -0.0114287)
(-1.2824e-18 6.80179e-19 -0.0114302)
(-1.37696e-18 1.00155e-18 -0.0114309)
(-1.53239e-18 3.92376e-19 -0.0114309)
(-1.82472e-18 9.18389e-19 -0.0114302)
(-2.2227e-18 7.85698e-19 -0.0114287)
(-1.73313e-18 1.12128e-18 -0.0114266)
(-1.64865e-18 8.53931e-19 -0.0114238)
(-1.51653e-18 1.95451e-18 -0.0114202)
(-1.32295e-18 2.43539e-18 -0.011416)
(-1.59109e-18 3.31571e-18 -0.0114111)
(-4.50614e-19 -1.89804e-19 -0.0112047)
(-6.38333e-19 -4.12114e-19 -0.0112192)
(-8.72484e-19 8.01984e-20 -0.0112333)
(-7.62206e-19 1.52102e-19 -0.0112469)
(-9.86018e-19 -2.09404e-19 -0.0112602)
(-1.22144e-18 7.02411e-19 -0.0112729)
(-6.40774e-19 5.79111e-19 -0.0112852)
(-5.72546e-19 1.96635e-19 -0.0112969)
(-1.32759e-18 2.92242e-19 -0.0113082)
(-1.5941e-18 4.8926e-19 -0.0113188)