/*--------------------------------*- C++ -*----------------------------------*\
  =========                 |
  \\      /  F ield         | OpenFOAM: The Open Source CFD Toolbox
   \\    /   O peration     | Website:  https://openfoam.org
    \\  /    A nd           | Version:  7
     \\/     M anipulation  |
\*---------------------------------------------------------------------------*/
FoamFile
{
    version     2.0;
    format      ascii;
    class       volScalarField;
    location    "24000";
    object      nu;
}
// * * * * * * * * * * * * * * * * * * * * * * * * * * * * * * * * * * * * * //

dimensions      [0 2 -1 0 0 0 0];

internalField   nonuniform List<scalar> 
4844
(
0.001
0.001
0.001
0.001
0.001
0.001
0.001
0.001
0.001
0.001
0.001
0.001
0.001
0.001
0.001
0.001
0.001
0.001
0.001
0.001
0.001
0.001
0.001
0.001
0.001
0.001
0.001
0.001
0.001
0.001
0.001
0.001
0.001
0.001
0.001
0.001
0.001
0.001
0.001
0.001
0.001
0.001
0.001
0.001
0.001
0.001
0.001
0.001
0.001
0.001
0.001
0.001
0.001
0.001
0.001
0.001
0.001
0.001
0.001
0.001
0.001
0.001
0.001
0.001
0.001
0.001
0.001
0.001
0.001
0.001
0.001
0.001
0.001
0.001
0.001
0.001
0.001
0.001
0.001
0.001
0.001
0.001
0.001
0.001
0.000998228
0.001
0.001
0.001
0.001
0.001
0.001
0.001
0.001
0.001
0.001
0.001
0.001
0.001
0.001
0.000991141
0.001
0.001
0.001
0.001
0.001
0.001
0.001
0.001
0.001
0.001
0.001
0.001
0.000997118
0.000992563
0.000980505
0.001
0.001
0.001
0.001
0.001
0.001
0.001
0.001
0.001
0.001
0.000998846
0.000995983
0.000992229
0.00098701
0.000980068
0.000967225
0.001
0.001
0.001
0.001
0.001
0.001
0.001
0.000999414
0.000996928
0.000993889
0.000990125
0.000985474
0.000979763
0.000973056
0.000964986
0.000952117
0.001
0.001
0.001
0.001
0.000999179
0.000996967
0.000994317
0.000991103
0.000987113
0.000982478
0.000977276
0.000971457
0.000964703
0.000957125
0.000948579
0.000935879
0.00099904
0.000998128
0.000996116
0.000993745
0.000990846
0.000987296
0.000983221
0.000978648
0.00097369
0.000968174
0.000962156
0.000955591
0.000948259
0.000940221
0.000931505
0.000919029
0.000989001
0.000991532
0.000989493
0.00098628
0.000982585
0.000978514
0.000974096
0.000969223
0.00096394
0.00095836
0.000952319
0.000945813
0.000938787
0.000931128
0.000922876
0.000914127
0.000901907
0.000981743
0.000980612
0.000977309
0.000973255
0.000968784
0.000964034
0.000959047
0.000953701
0.000948015
0.000942038
0.000935661
0.000928846
0.000921541
0.000913705
0.000905375
0.000896659
0.000884722
0.000969298
0.000971231
0.000967492
0.000963199
0.000958526
0.000953567
0.000948403
0.00094304
0.000937394
0.000931455
0.000925218
0.000918615
0.000911599
0.000904133
0.00089621
0.000887877
0.000879227
0.000867594
0.000959166
0.000957638
0.000952891
0.000947969
0.000942868
0.000937591
0.000932158
0.000926548
0.0009207
0.000914587
0.000908175
0.000901417
0.000894272
0.000886717
0.000878766
0.00087047
0.00086191
0.000850588
0.00094551
0.00094224
0.000937272
0.000932042
0.000926682
0.000921203
0.000915595
0.000909822
0.000903835
0.000897597
0.000891065
0.000884203
0.000876979
0.000869385
0.000861443
0.000853208
0.000844752
0.000833741
0.000929395
0.000925869
0.000920979
0.000915662
0.000910181
0.00090459
0.000898876
0.000892999
0.000886919
0.000880593
0.000873981
0.000867052
0.000859787
0.000852187
0.000844281
0.000836122
0.000827781
0.000817073
0.000912465
0.000908995
0.000904258
0.000898983
0.000893485
0.000887856
0.000882091
0.000876159
0.000870021
0.000863639
0.000856978
0.000850014
0.000842737
0.000835156
0.000827303
0.000819232
0.000811012
0.000800598
0.000895305
0.000891851
0.000887264
0.000882102
0.000876667
0.000871062
0.000865296
0.000859347
0.000853184
0.000846775
0.000840092
0.000833119
0.000825853
0.00081831
0.000810524
0.00080255
0.000794455
0.000784321
0.000877993
0.000874505
0.000870074
0.000865085
0.000859778
0.000854252
0.000848529
0.000842599
0.000836439
0.000830029
0.000823348
0.000816387
0.000809152
0.000801662
0.000793954
0.000786082
0.000778114
0.000768251
0.0008604
0.000856942
0.000852732
0.000847981
0.00084286
0.000837461
0.00083182
0.000825939
0.00081981
0.000813421
0.000806763
0.000799834
0.000792645
0.00078522
0.000777599
0.000769836
0.000761996
0.000752391
0.000842368
0.000839147
0.000835283
0.000830843
0.00082596
0.000820728
0.000815198
0.000809393
0.000803317
0.00079697
0.000790353
0.000783471
0.000776342
0.000768993
0.000761466
0.000753814
0.000746103
0.000736747
0.000823848
0.000821181
0.000817804
0.000813739
0.000809128
0.000804089
0.000798695
0.000792984
0.000786979
0.000780691
0.000774129
0.000767309
0.00076025
0.000752986
0.000745558
0.000738021
0.000730439
0.000721323
0.00080502
0.000803214
0.000800417
0.000796752
0.000792424
0.000787588
0.000782338
0.000776736
0.000770814
0.000764598
0.000758104
0.000751355
0.000744377
0.000737204
0.00072988
0.00072246
0.000715007
0.000706122
0.000786338
0.00078551
0.000783268
0.00077997
0.000775906
0.000771263
0.00076616
0.00076067
0.00075484
0.000748704
0.000742288
0.000735619
0.000728728
0.000721652
0.000714436
0.000707134
0.000699807
0.000691144
0.000768442
0.000768352
0.000766499
0.000763477
0.000759627
0.000755153
0.000750185
0.000744806
0.000739072
0.000733022
0.00072669
0.000720108
0.000713309
0.000706334
0.000699227
0.000692043
0.000684842
0.000676391
0.000751891
0.000751945
0.000750214
0.000747334
0.000743627
0.000739287
0.000734437
0.000729162
0.000723522
0.000717561
0.000711318
0.000704827
0.000698124
0.000691252
0.000684255
0.000677188
0.000670109
0.00066186
0.000736846
0.000736346
0.00073445
0.000731571
0.000727932
0.000723683
0.000718929
0.000713748
0.000708199
0.000702328
0.000696176
0.000689778
0.000683174
0.000676406
0.000669519
0.000662566
0.000655605
0.00064755
0.000723233
0.000722983
0.000721456
0.000719182
0.000716187
0.000712548
0.00070835
0.000703669
0.000698571
0.000693108
0.000687327
0.000681265
0.000674963
0.000668459
0.000661795
0.000655017
0.000648175
0.000641328
0.000633457
0.000712539
0.000709676
0.00070708
0.000704338
0.000701153
0.000697464
0.000693285
0.000688659
0.000683632
0.000678251
0.000672556
0.000666586
0.00066038
0.000653975
0.000647414
0.000640742
0.00063401
0.000627273
0.000619581
0.000699616
0.000700783
0.000696425
0.000693016
0.000689826
0.000686427
0.000682659
0.000678478
0.000673891
0.000668928
0.000663623
0.000658013
0.000652134
0.000646023
0.000639717
0.000633259
0.000626692
0.000620066
0.000613439
0.000605923
0.000689224
0.000687712
0.000683008
0.000679102
0.000675556
0.000671961
0.000668108
0.000663914
0.000659358
0.000654452
0.00064922
0.000643693
0.000637903
0.000631886
0.00062568
0.000619323
0.00061286
0.000606341
0.000599828
0.000592492
0.000676811
0.000673931
0.000669365
0.00066524
0.00066146
0.000657712
0.000653787
0.000649579
0.00064505
0.000640197
0.000635036
0.00062959
0.000623889
0.000617966
0.000611857
0.000605602
0.000599245
0.000592838
0.000586445
0.000579299
0.000662808
0.000659792
0.000655539
0.000651398
0.000647503
0.000643657
0.000639679
0.000635464
0.000630963
0.000626162
0.000621069
0.000615703
0.000610089
0.000604259
0.000598249
0.000592097
0.00058585
0.000579563
0.000573304
0.000566365
0.000648305
0.000645528
0.000641627
0.000637596
0.000633681
0.00062979
0.000625785
0.000621572
0.000617101
0.000612352
0.000607325
0.000602036
0.000596508
0.000590771
0.00058486
0.000578816
0.000572685
0.000566529
0.000560423
0.000553711
0.000633834
0.000631323
0.000627752
0.000623892
0.000620023
0.000616129
0.000612118
0.000607917
0.000603479
0.00059878
0.000593817
0.000588603
0.000583159
0.000577515
0.000571706
0.000565773
0.000559768
0.000553756
0.000547822
0.000541358
0.000619649
0.000617332
0.000614041
0.000610367
0.000606581
0.000602712
0.000598712
0.000594529
0.000590124
0.000585473
0.00058057
0.000575427
0.000570066
0.000564515
0.00055881
0.000552993
0.000547121
0.000541267
0.000535522
0.000529319
0.000605877
0.000603681
0.000600611
0.000597111
0.000593419
0.00058959
0.000585609
0.000581446
0.000577073
0.000572463
0.000567615
0.00056254
0.00055726
0.000551803
0.000546203
0.000540506
0.000534774
0.000529086
0.000523536
0.000517589
0.000592585
0.000590457
0.000587555
0.000584201
0.000580598
0.000576809
0.00057285
0.000568708
0.000564361
0.000559788
0.000554989
0.000549979
0.000544778
0.000539413
0.00053392
0.000528345
0.000522753
0.000517228
0.000511863
0.000506141
0.000579789
0.000577698
0.000574917
0.000571679
0.00056815
0.0005644
0.000560464
0.000556341
0.000552016
0.000547473
0.000542719
0.000537773
0.000532651
0.000527377
0.000521988
0.000516532
0.000511076
0.000505698
0.000500483
0.000494915
0.000567439
0.000565368
0.000562675
0.000559526
0.000556059
0.00055235
0.000548444
0.000544341
0.000540037
0.000535522
0.000530816
0.000525934
0.00052089
0.000515706
0.000510417
0.000505074
0.000499737
0.000494476
0.000489346
0.000483818
0.000555394
0.000553338
0.000550715
0.000547647
0.000544241
0.000540588
0.000536728
0.000532658
0.000528379
0.000523903
0.000519253
0.000514441
0.000509476
0.000504379
0.000499186
0.000493943
0.000488703
0.000483512
0.000478379
0.000472736
0.000543418
0.000541381
0.000538828
0.00053585
0.00053253
0.00052897
0.000525188
0.000521176
0.000516944
0.000512529
0.000507955
0.000503222
0.000498339
0.000493329
0.000488225
0.000483069
0.000477898
0.000472721
0.000467481
0.000461544
0.000531187
0.000529182
0.000526717
0.000523867
0.000520689
0.000517279
0.000513623
0.000509713
0.00050557
0.000501261
0.000496789
0.000492151
0.000487356
0.000482433
0.000477414
0.000472333
0.000467202
0.000461983
0.000456537
0.000450135
0.000518343
0.000516391
0.000514043
0.000511378
0.000508436
0.000505253
0.000501777
0.000498029
0.000494046
0.000489902
0.000485568
0.000481042
0.000476346
0.000471515
0.000466582
0.000461565
0.000456452
0.000451149
0.000445426
0.000438445
0.000504579
0.000502705
0.000500507
0.000498094
0.00049551
0.000492623
0.000489381
0.000485866
0.000482141
0.00047823
0.00047407
0.000469676
0.000465094
0.000460365
0.000455521
0.000450569
0.000445462
0.000440058
0.000434043
0.000426483
0.000489759
0.000487987
0.000485965
0.000483849
0.000481746
0.000479197
0.000476221
0.000473004
0.000469655
0.000466037
0.000462076
0.000457834
0.000453382
0.000448771
0.000444029
0.000439148
0.000434055
0.000428567
0.000422321
0.000414339
0.000474035
0.000472382
0.000470541
0.00046872
0.000467173
0.000464941
0.000462231
0.000459348
0.000456487
0.000453187
0.000449436
0.00044536
0.000441056
0.000436581
0.000431958
0.000427163
0.000422105
0.000416585
0.000410244
0.000402177
0.000457938
0.000456407
0.000454722
0.000453124
0.00045208
0.000450068
0.000447583
0.000445017
0.000442702
0.000439689
0.000436134
0.000432231
0.00042809
0.000423767
0.000419278
0.000414587
0.000409597
0.000404123
0.00039788
0.000390199
0.000442384
0.000440957
0.000439377
0.00043786
0.000437045
0.000435091
0.000432752
0.000430417
0.000428582
0.000425757
0.000422362
0.000418625
0.000414652
0.000410489
0.000406141
0.000401569
0.000396679
0.000391333
0.000385394
0.000378602
0.000428588
0.000427226
0.00042568
0.000424063
0.000422897
0.00042082
0.000418526
0.00041627
0.00041464
0.000411848
0.000408557
0.000404965
0.000401148
0.000397134
0.00039292
0.000388464
0.000383694
0.000378543
0.000373071
0.000367553
0.000417892
0.000416531
0.000414945
0.000413068
0.000410628
0.000408288
0.000405935
0.000403566
0.00040158
0.000398653
0.0003954
0.00039191
0.000388213
0.000384315
0.000380202
0.000375837
0.00037118
0.000366254
0.000361326
0.000357191
0.000410256
0.000408846
0.000407162
0.000404953
0.000401272
0.000398609
0.000396107
0.000393448
0.000390222
0.00038703
0.000383743
0.000380294
0.000376654
0.000372809
0.000368737
0.00036441
0.000359828
0.000355105
0.000350691
0.000347723
0.000394555
0.000391621
0.000388912
0.000385863
0.000381409
0.000377889
0.000374495
0.000371002
0.000367333
0.000363451
0.000359333
0.000354965
0.000350389
0.000345803
0.000341779
0.000339525
0.000374766
0.000370954
0.00036739
0.000363766
0.000359974
0.000355964
0.000351713
0.000347226
0.00034259
0.000338065
0.00033427
0.000332212
0.000970085
0.000976779
0.00096621
0.00097156
0.000958317
0.000964173
0.000946837
0.000954248
0.00095515
0.000933251
0.000942267
0.000946091
0.000918335
0.000928425
0.000934507
0.000933254
0.000902511
0.000913205
0.00092024
0.000922834
0.000886053
0.000896955
0.000904363
0.000909614
0.000869167
0.000879988
0.000887499
0.000893852
0.000895478
0.000852032
0.000862585
0.000869962
0.000876488
0.000880572
0.000834802
0.000844992
0.000852087
0.000858186
0.000862601
0.000817614
0.000827424
0.00083421
0.000839785
0.000843244
0.000800581
0.000810049
0.000816608
0.000821863
0.000824703
0.000783799
0.000792993
0.000799456
0.000804718
0.000807785
0.000767346
0.00077634
0.000782835
0.000788379
0.000792375
0.000792947
0.000751289
0.000760144
0.000766763
0.000772734
0.000777839
0.000781391
0.000735683
0.000744444
0.00075123
0.000757655
0.000763696
0.000769433
0.000767866
0.000720562
0.000729258
0.000736216
0.00074304
0.000749801
0.000756637
0.000759571
0.000757127
0.000705925
0.00071457
0.00072168
0.000728814
0.000736068
0.000743486
0.000749454
0.000750356
0.0007486
0.000691707
0.000700308
0.000707536
0.000714885
0.000722442
0.000730187
0.000737397
0.000741419
0.00074208
0.000741542
0.000677758
0.000686313
0.000693625
0.000701104
0.000708815
0.000716706
0.000724357
0.000730017
0.000733149
0.000733688
0.000663828
0.000672325
0.000679684
0.000687222
0.00069498
0.000702886
0.000710615
0.000717057
0.000721482
0.000723512
0.000649572
0.000657988
0.000665354
0.000672891
0.000680617
0.000688447
0.000696093
0.000702829
0.000707916
0.000710802
0.000634598
0.000642888
0.000650215
0.000657698
0.000665332
0.000673023
0.000680509
0.00068728
0.000692683
0.000696151
0.000618553
0.000626655
0.000633883
0.000641258
0.000648748
0.000656253
0.000663537
0.000670211
0.000675743
0.000679641
0.000601257
0.000609089
0.000616147
0.000623355
0.000630653
0.000637933
0.000644984
0.000651494
0.000657045
0.000661249
0.000582848
0.00059032
0.000597131
0.000604113
0.000611172
0.000618192
0.000624985
0.000631292
0.000636788
0.000641181
0.000563903
0.000570931
0.000577429
0.000584131
0.000590913
0.000597648
0.000604164
0.000610246
0.000615639
0.00062012
0.000545478
0.000552012
0.000558154
0.000564545
0.00057103
0.000577469
0.000583707
0.000589561
0.000594829
0.000599332
0.000529032
0.00053508
0.00054087
0.000546954
0.000553151
0.000559314
0.000565298
0.000570945
0.000576098
0.000580609
0.00051623
0.00052189
0.000527387
0.000533211
0.000539169
0.000545109
0.000550895
0.000556392
0.000561475
0.000566037
0.000506959
0.000512421
0.000517723
0.000523354
0.000529134
0.000534915
0.000540566
0.000545974
0.000551041
0.000555696
0.000971486
0.000967945
0.000959973
0.000948067
0.00093398
0.000918661
0.000902602
0.000886076
0.000869252
0.000852259
0.000835205
0.000818183
0.000801275
0.000784555
0.000768093
0.000751954
0.000736198
0.000720876
0.00070601
0.000691573
0.000677472
0.00066352
0.00064944
0.000634884
0.000619493
0.000603005
0.000585391
0.000567006
0.000548695
0.000531813
0.00051809
0.000507641
0.000981897
0.000978011
0.000970226
0.000958665
0.000944832
0.000929622
0.000913576
0.000897023
0.000880166
0.000863144
0.000846054
0.000828974
0.00081197
0.000795099
0.00077842
0.000761988
0.000745863
0.000730104
0.000714754
0.000699836
0.000685322
0.000671123
0.000657072
0.000642925
0.00062839
0.000613174
0.000597072
0.00058007
0.00056245
0.000544877
0.000528428
0.000514558
0.000503211
0.00098832
0.000984397
0.000976669
0.000965317
0.000951771
0.000936845
0.000921036
0.000904669
0.000887963
0.000871067
0.000854087
0.0008371
0.000820165
0.000803329
0.000786638
0.000770136
0.000753871
0.000737895
0.000722257
0.000707
0.000692139
0.000677652
0.000663465
0.000649443
0.0006354
0.000621121
0.000606412
0.000591154
0.000575353
0.000559171
0.000542896
0.000526867
0.000511401
0.000496705
0.000483041
0.000470956
0.000461338
0.00045391
0.000994121
0.000990587
0.000983092
0.000971936
0.000958588
0.000943857
0.000928228
0.000912016
0.00089544
0.000878653
0.000861767
0.000844862
0.000827994
0.000811209
0.000794542
0.000778027
0.000761698
0.000745596
0.000729765
0.000714251
0.000699092
0.000684309
0.000669893
0.000655797
0.000641928
0.000628147
0.000614281
0.000600137
0.000585529
0.000570307
0.000554394
0.000537835
0.000520855
0.000503926
0.00048782
0.000473609
0.000462577
0.000454586
0.000998768
0.000996083
0.00098919
0.000978438
0.000965353
0.000950798
0.000935298
0.000919188
0.000902697
0.000885984
0.000869163
0.000852317
0.000835503
0.000818763
0.000802127
0.000785621
0.00076927
0.000753102
0.000737151
0.00072146
0.000706074
0.000691038
0.000676384
0.000662122
0.000648224
0.00063461
0.000621141
0.000607607
0.000593745
0.000579261
0.000563894
0.0005475
0.000530172
0.000512355
0.000494918
0.000479151
0.000466628
0.000457477
0.001
0.001
0.000994719
0.000984776
0.000972085
0.00095772
0.000942314
0.000926259
0.000909805
0.000893125
0.000876336
0.00085952
0.000842737
0.000826025
0.000809412
0.000792919
0.000776561
0.000760359
0.000744336
0.000728529
0.000712983
0.000697753
0.000682893
0.000668446
0.000654425
0.000640793
0.000627441
0.000614176
0.000600722
0.000586745
0.000571919
0.000556018
0.000539033
0.000521275
0.00050343
0.000486528
0.000471827
0.00046065
0.00045272
0.001
0.001
0.000998585
0.000990455
0.000978568
0.000964533
0.000949249
0.000933233
0.000916789
0.000900111
0.000883324
0.000866512
0.000849734
0.000833029
0.000816424
0.000799934
0.000783571
0.000767346
0.000751277
0.000735393
0.000719736
0.000704362
0.000689337
0.00067472
0.000660551
0.00064682
0.000633449
0.000620266
0.000607003
0.000593315
0.000578838
0.000563281
0.000546542
0.000528833
0.000510757
0.00049332
0.000477841
0.000465786
0.00045709
0.001
0.001
0.001
0.000994668
0.000984227
0.000970885
0.000955908
0.000940012
0.000923606
0.000906931
0.000890133
0.000873307
0.000856516
0.0008398
0.000823185
0.000806685
0.000790308
0.00077406
0.000757955
0.000742014
0.000726276
0.000710795
0.00069564
0.000680881
0.000666572
0.000652723
0.000639276
0.000626079
0.000612873
0.000599313
0.000585012
0.000569639
0.00055304
0.00053537
0.000517195
0.000499513
0.000483679
0.000471224
0.000462135
0.001
0.001
0.001
0.000997712
0.000988941
0.000976525
0.000962057
0.000946428
0.00093015
0.000913523
0.000896733
0.000879895
0.000863083
0.000846344
0.000829705
0.000813182
0.00079678
0.000780505
0.000764363
0.000748373
0.000732569
0.000717004
0.000701747
0.000686871
0.000672441
0.000658478
0.000644941
0.000631687
0.000618469
0.00060494
0.000590703
0.000575404
0.000558858
0.000541191
0.000522949
0.000505129
0.000489107
0.000476452
0.000467169
0.001
0.001
0.001
0.000999961
0.000992726
0.000981381
0.000967607
0.000952392
0.000936339
0.000919822
0.000903074
0.00088624
0.000869412
0.000852648
0.000835979
0.000819424
0.00080299
0.00078668
0.000770498
0.00075446
0.000738597
0.000722959
0.000707615
0.000692643
0.00067811
0.000664048
0.000650421
0.0006371
0.000623839
0.000610293
0.000596058
0.000580764
0.00056421
0.000546505
0.000528185
0.000510253
0.000494102
0.00048133
0.00047195
0.001
0.001
0.001
0.001
0.000995582
0.000985748
0.000972768
0.000957981
0.000942167
0.000925782
0.000909103
0.000892296
0.000875468
0.000858685
0.000841989
0.000825401
0.000808929
0.000792578
0.000776352
0.000760264
0.000744344
0.000728639
0.000713219
0.000698163
0.000683541
0.000669392
0.000655686
0.000642297
0.000628985
0.000615402
0.000601138
0.000585814
0.000569214
0.000551438
0.000533022
0.000514975
0.00049871
0.000485849
0.000476411
0.001
0.001
0.001
0.000998136
0.000989647
0.000977421
0.000963084
0.000947551
0.000931343
0.000914769
0.000898017
0.00088121
0.000864424
0.000847707
0.000831088
0.000814579
0.000798186
0.000781914
0.000765775
0.000749798
0.000734029
0.000718538
0.000703405
0.000688705
0.000674479
0.000660702
0.000647253
0.000633891
0.000620266
0.000605962
0.00059059
0.000573924
0.00055606
0.000537531
0.000519361
0.000502981
0.000490038
0.000480555
0.001
0.001
0.001
0.000992741
0.000981315
0.000967528
0.000952374
0.000936421
0.00092001
0.000903356
0.000886597
0.000869826
0.000853101
0.000836458
0.000819916
0.000803483
0.000787166
0.000770977
0.000754943
0.000739112
0.000723554
0.00070835
0.000693578
0.000679283
0.000665444
0.00065194
0.000638534
0.000624869
0.000610523
0.000595098
0.00057836
0.000560397
0.000541749
0.000523449
0.00050695
0.000493924
0.000484398
0.001
0.001
0.001
0.000994403
0.000984172
0.000971187
0.000956564
0.000940963
0.000924782
0.00090827
0.000891591
0.000874856
0.000858138
0.000841482
0.000824913
0.000808445
0.000792086
0.000775849
0.000759762
0.000743873
0.000728251
0.000712981
0.000698142
0.000683784
0.000669888
0.000656338
0.000642891
0.000629191
0.000614807
0.00059933
0.000582518
0.000564456
0.000545686
0.000527255
0.000510637
0.000497526
0.000487956
0.001
0.001
0.00099585
0.000986491
0.000974188
0.000960123
0.000944947
0.000929062
0.000912739
0.000896169
0.000879489
0.000862789
0.00084613
0.000829543
0.000813047
0.000796653
0.000780373
0.000764237
0.000748294
0.000732613
0.000717281
0.000702381
0.000687964
0.000674018
0.000660425
0.000646945
0.000633215
0.000618795
0.000603271
0.000586389
0.000568231
0.000549343
0.000530784
0.000514047
0.000500852
0.000491237
0.001
0.001
0.000995938
0.000987555
0.000976332
0.000963095
0.000948464
0.000932909
0.000916779
0.000900319
0.000883697
0.000867026
0.000850373
0.000833779
0.000817265
0.000800843
0.000784529
0.000768351
0.000752359
0.000736624
0.000721235
0.000706279
0.00069181
0.000677818
0.000664188
0.000650678
0.000636922
0.000622473
0.000606905
0.000589959
0.000571711
0.000552711
0.000534029
0.000517179
0.000503902
0.000494243
0.000996488
0.000994734
0.000988857
0.000978735
0.000966055
0.000951733
0.000936371
0.00092037
0.000904001
0.000887443
0.000870811
0.000854181
0.000837595
0.000821075
0.000804638
0.000788298
0.000772086
0.000756053
0.000740271
0.000724831
0.000709823
0.000695307
0.000681273
0.000667611
0.000654076
0.000640298
0.000625824
0.000610219
0.000593215
0.000574884
0.000555779
0.000536982
0.000520027
0.000506672
0.00049697
0.000991344
0.000988263
0.000980449
0.000968592
0.000954553
0.000939323
0.000923426
0.000907153
0.000890678
0.000874113
0.000857528
0.000840969
0.000824461
0.00080802
0.000791666
0.00077543
0.000759362
0.00074354
0.000728057
0.000713004
0.000698444
0.000684374
0.000670683
0.000657126
0.00064333
0.000628835
0.000613197
0.000596142
0.000577736
0.000558536
0.000539635
0.000522582
0.000509156
0.000499413
0.000989745
0.000987032
0.000980147
0.000969263
0.000955986
0.000941283
0.000925736
0.000909695
0.000893377
0.000876919
0.000860407
0.000843895
0.000827412
0.000810982
0.000794624
0.000778371
0.000762279
0.000746424
0.000730902
0.000715809
0.000701213
0.000687111
0.000673394
0.000659819
0.000646008
0.000631495
0.00061583
0.000598729
0.000580257
0.000560972
0.000541978
0.000524837
0.000511346
0.000501567
0.000988827
0.000985903
0.00097933
0.000969071
0.000956489
0.000942398
0.000927324
0.000911622
0.000895538
0.000879237
0.000862828
0.000846381
0.000829938
0.000813526
0.000797171
0.000780909
0.000764797
0.000748914
0.00073336
0.000718233
0.000703604
0.000689473
0.000675735
0.000662144
0.000648321
0.000633794
0.000618105
0.000600965
0.000582436
0.000563077
0.000544001
0.000526783
0.000513236
0.000503425
0.000987203
0.000984176
0.000978162
0.000968561
0.000956643
0.00094311
0.000928469
0.000913093
0.000897247
0.000881114
0.000864821
0.000848449
0.000832051
0.000815662
0.000799312
0.000783043
0.000766914
0.000751007
0.000735425
0.000720268
0.00070561
0.000691456
0.000677698
0.000664094
0.000650261
0.000635722
0.000620013
0.000602841
0.000584264
0.000564843
0.000545697
0.000528414
0.000514819
0.00050498
0.00098019
0.00097611
0.000968259
0.000956975
0.000943761
0.000929379
0.000914237
0.000898589
0.00088261
0.000866425
0.000850123
0.000833766
0.000817396
0.00080105
0.000784773
0.000768628
0.000752699
0.000737091
0.000721908
0.000707226
0.000693051
0.000679277
0.000665662
0.00065182
0.000637272
0.000621548
0.00060435
0.000585734
0.000566262
0.00054706
0.000529724
0.00051609
0.000506229
0.000976518
0.000972738
0.000966092
0.000955969
0.000943654
0.000929856
0.000915068
0.000899631
0.000883781
0.000867675
0.00085142
0.000835088
0.000818727
0.000802379
0.000786091
0.00076993
0.000753981
0.000738351
0.000723147
0.000708444
0.000694251
0.000680465
0.000666841
0.000652992
0.000638436
0.000622701
0.000605484
0.000586838
0.000567329
0.000548084
0.000530707
0.000517043
0.000507165
0.000967395
0.000962985
0.000954938
0.000943497
0.000930129
0.000915602
0.000900337
0.000884596
0.000868553
0.000852329
0.000836006
0.000819644
0.000803287
0.000786987
0.00077081
0.000754844
0.000739197
0.000723975
0.000709257
0.000695051
0.000681255
0.000667624
0.000653771
0.000639211
0.000623468
0.000606237
0.000587572
0.000568037
0.000548763
0.00053136
0.000517676
0.000507787
0.000962999
0.000959008
0.00095228
0.000942084
0.000929634
0.000915647
0.000900652
0.000885026
0.000869024
0.00085281
0.000836485
0.000820115
0.00080375
0.00078744
0.000771252
0.000755275
0.000739617
0.000724384
0.000709657
0.000695444
0.000681643
0.000668008
0.000654153
0.00063959
0.000623844
0.000606607
0.000587932
0.000568384
0.000549096
0.000531679
0.000517985
0.00050809
0.000953643
0.00094923
0.000941012
0.000929237
0.000915458
0.000900535
0.000884948
0.000868975
0.000852781
0.000836469
0.000820106
0.000803742
0.000787432
0.000771242
0.000755263
0.000739603
0.000724368
0.00070964
0.000695425
0.000681624
0.000667989
0.000654134
0.000639572
0.000623826
0.00060659
0.000587916
0.000568368
0.000549081
0.000531664
0.00051797
0.000508076
0.000950336
0.000946216
0.000938676
0.000927557
0.00091425
0.000899622
0.000884207
0.000868334
0.0008522
0.000835926
0.000819588
0.000803243
0.000786947
0.000770769
0.000754799
0.000739148
0.000723921
0.0007092
0.000694992
0.000681195
0.000667565
0.000653713
0.000639155
0.000623414
0.000606186
0.000587522
0.000567989
0.000548716
0.000531313
0.00051763
0.000507742
0.000948014
0.00094372
0.00093629
0.000925434
0.000912418
0.000898044
0.000882824
0.00086709
0.000851053
0.000834847
0.000818558
0.00080225
0.000785983
0.000769829
0.000753883
0.000738251
0.000723043
0.000708338
0.000694144
0.000680358
0.000666736
0.000652891
0.000638339
0.000622609
0.000605395
0.000586753
0.000567246
0.000548004
0.000530629
0.000516966
0.00050709
0.000946062
0.000941505
0.000933978
0.000923157
0.000910255
0.000896021
0.00088094
0.000865327
0.000849389
0.000833261
0.000817033
0.000800775
0.000784549
0.000768432
0.000752519
0.000736918
0.000721739
0.000707059
0.000692886
0.000679116
0.000665506
0.00065167
0.000637129
0.000621413
0.000604222
0.000585611
0.000566144
0.000546945
0.000529612
0.00051598
0.000506121
0.000944125
0.000939317
0.000931632
0.000920747
0.000907852
0.000893672
0.000878666
0.000863134
0.000847273
0.000831214
0.000815048
0.000798842
0.000782665
0.000766592
0.000750721
0.000735159
0.000720016
0.000705368
0.000691222
0.000677474
0.00066388
0.000650057
0.000635529
0.000619832
0.00060267
0.000584101
0.000564687
0.000545546
0.000528267
0.000514676
0.00050484
0.000942009
0.000936978
0.000929128
0.000918145
0.000905208
0.000891028
0.000876051
0.000860564
0.000844755
0.00082875
0.000812636
0.000796481
0.000780353
0.000764328
0.000748503
0.000732987
0.000717886
0.000703277
0.000689163
0.00067544
0.000661865
0.000648057
0.000633546
0.000617872
0.000600746
0.000582228
0.000562879
0.000543811
0.000526599
0.000513057
0.000503251
0.000939604
0.000934376
0.000926373
0.000915286
0.00090229
0.000888086
0.000873111
0.000857644
0.000841866
0.000825899
0.000809827
0.000793716
0.000777634
0.000761657
0.000745881
0.000730414
0.000715361
0.000700794
0.000686717
0.000673023
0.00065947
0.00064568
0.000631189
0.000615543
0.000598459
0.000580002
0.00056073
0.000541746
0.000524614
0.000511131
0.000501358
0.000936846
0.000931447
0.000923308
0.000912125
0.000899066
0.000884828
0.000869841
0.000854379
0.000838618
0.000822677
0.000806637
0.000790565
0.000774525
0.000758595
0.00074287
0.000727454
0.000712452
0.000697932
0.000683895
0.000670233
0.000656705
0.000642936
0.000628467
0.000612853
0.000595819
0.000577432
0.000558248
0.000539361
0.000522319
0.000508903
0.000499169
0.000933711
0.000928164
0.000919905
0.000908633
0.000895514
0.000881238
0.000866232
0.000850765
0.000835013
0.000819089
0.000803076
0.000787037
0.000771038
0.000755155
0.000739481
0.00072412
0.000709172
0.000694702
0.000680709
0.000667082
0.000653581
0.000639835
0.000625391
0.000609814
0.000592836
0.000574528
0.000555443
0.000536664
0.000519723
0.000506382
0.000496691
0.000930219
0.000924533
0.000916158
0.000904798
0.000891616
0.0008773
0.00086227
0.000846795
0.000831047
0.000815137
0.000799147
0.00078314
0.000767181
0.000751346
0.000735725
0.000720422
0.000705531
0.000691115
0.000677169
0.00066358
0.000650109
0.00063639
0.000621976
0.00060644
0.000589523
0.000571302
0.000552325
0.000533665
0.000516836
0.000503576
0.000493933
0.000926407
0.00092056
0.000912056
0.000900604
0.000887357
0.000872999
0.000857946
0.000842462
0.000826716
0.00081082
0.000794853
0.000778878
0.000762961
0.000747176
0.000731612
0.00071637
0.00070154
0.000687183
0.000673288
0.000659742
0.000646304
0.000632614
0.000618233
0.000602743
0.000585895
0.000567768
0.000548908
0.000530377
0.000513667
0.000500496
0.000490906
0.00092224
0.000916224
0.000907585
0.000896037
0.000882726
0.000868327
0.000853251
0.000837758
0.000822016
0.000806136
0.000790194
0.000774256
0.000758384
0.000742654
0.000727152
0.000711976
0.000697214
0.000682921
0.000669082
0.000655581
0.000642181
0.000628524
0.000614179
0.000598739
0.000581964
0.000563939
0.000545205
0.000526811
0.000510229
0.000497155
0.000487621
0.000917682
0.0009115
0.000902729
0.000891087
0.000877713
0.000863274
0.000848178
0.00083268
0.000816946
0.000801085
0.000785175
0.000769279
0.00075346
0.000737791
0.000722359
0.000707257
0.000692568
0.000678344
0.000664565
0.000651115
0.000637756
0.000624135
0.00060983
0.000594445
0.000577748
0.00055983
0.00054123
0.000522982
0.000506538
0.000493566
0.000484097
0.000912716
0.000906374
0.000897475
0.000885744
0.000872309
0.000857834
0.000842722
0.000827225
0.000811507
0.000795674
0.000779804
0.00076396
0.000748203
0.000732606
0.000717252