/*--------------------------------*- C++ -*----------------------------------*\
  =========                 |
  \\      /  F ield         | OpenFOAM: The Open Source CFD Toolbox
   \\    /   O peration     | Website:  https://openfoam.org
    \\  /    A nd           | Version:  7
     \\/     M anipulation  |
\*---------------------------------------------------------------------------*/
FoamFile
{
    version     2.0;
    format      ascii;
    class       volScalarField;
    location    "48000";
    object      k;
}
// * * * * * * * * * * * * * * * * * * * * * * * * * * * * * * * * * * * * * //

dimensions      [0 2 -2 0 0 0 0];

internalField   nonuniform List<scalar> 
1776
(
1.24833e-06
1.25098e-06
1.25336e-06
1.2555e-06
1.2574e-06
1.25909e-06
1.26055e-06
1.26181e-06
1.26287e-06
1.23028e-06
1.23347e-06
1.23645e-06
1.23915e-06
1.24158e-06
1.24375e-06
1.24568e-06
1.24737e-06
1.24882e-06
1.25005e-06
1.21338e-06
1.21694e-06
1.22026e-06
1.22328e-06
1.22602e-06
1.22848e-06
1.23066e-06
1.23258e-06
1.23424e-06
1.23565e-06
1.19464e-06
1.19858e-06
1.20226e-06
1.20562e-06
1.20868e-06
1.21143e-06
1.21388e-06
1.21604e-06
1.21791e-06
1.21951e-06
1.17389e-06
1.17822e-06
1.18228e-06
1.186e-06
1.18939e-06
1.19244e-06
1.19518e-06
1.19759e-06
1.19968e-06
1.20147e-06
1.15094e-06
1.15569e-06
1.16014e-06
1.16423e-06
1.16796e-06
1.17134e-06
1.17437e-06
1.17704e-06
1.17937e-06
1.18135e-06
1.12558e-06
1.13076e-06
1.13562e-06
1.1401e-06
1.14419e-06
1.14791e-06
1.15124e-06
1.15418e-06
1.15675e-06
1.15895e-06
1.09758e-06
1.10321e-06
1.1085e-06
1.11338e-06
1.11785e-06
1.12191e-06
1.12555e-06
1.12879e-06
1.13161e-06
1.13402e-06
1.06667e-06
1.07277e-06
1.0785e-06
1.08379e-06
1.08866e-06
1.09308e-06
1.09706e-06
1.10059e-06
1.10367e-06
1.10632e-06
1.03255e-06
1.03914e-06
1.04533e-06
1.05106e-06
1.05632e-06
1.06112e-06
1.06544e-06
1.06929e-06
1.07264e-06
1.07552e-06
9.94917e-07
1.002e-06
1.00866e-06
1.01484e-06
1.02052e-06
1.02571e-06
1.03038e-06
1.03455e-06
1.03819e-06
1.04131e-06
9.53417e-07
9.61013e-07
9.68146e-07
9.74776e-07
9.80889e-07
9.86471e-07
9.91511e-07
9.96001e-07
9.99936e-07
1.00331e-06
9.07691e-07
9.15794e-07
9.23406e-07
9.30493e-07
9.37036e-07
9.43018e-07
9.48427e-07
9.5325e-07
9.57481e-07
9.61114e-07
8.57374e-07
8.6597e-07
8.74052e-07
8.81587e-07
8.88554e-07
8.94934e-07
9.00709e-07
9.05865e-07
9.10392e-07
9.14282e-07
8.02124e-07
8.11183e-07
8.19706e-07
8.27667e-07
8.35041e-07
8.41802e-07
8.4793e-07
8.53409e-07
8.58224e-07
8.62366e-07
7.41672e-07
7.51136e-07
7.60049e-07
7.68391e-07
7.76131e-07
7.83241e-07
7.89694e-07
7.9547e-07
8.00554e-07
8.0493e-07
6.75894e-07
6.85666e-07
6.94883e-07
7.03529e-07
7.11568e-07
7.18965e-07
7.25691e-07
7.31721e-07
7.37035e-07
7.41615e-07
6.04924e-07
6.14857e-07
6.24245e-07
6.33074e-07
6.41303e-07
6.48892e-07
6.55806e-07
6.62015e-07
6.67496e-07
6.72226e-07
5.29322e-07
5.39204e-07
5.48569e-07
5.57403e-07
5.65661e-07
5.73296e-07
5.80269e-07
5.86545e-07
5.92094e-07
5.96892e-07
4.50272e-07
4.59821e-07
4.689e-07
4.77496e-07
4.85558e-07
4.93036e-07
4.99884e-07
5.06064e-07
5.1154e-07
5.16284e-07
3.69794e-07
3.78663e-07
3.87128e-07
3.95178e-07
4.02758e-07
4.09814e-07
4.16299e-07
4.22167e-07
4.27382e-07
4.3191e-07
2.9083e-07
2.98645e-07
3.06139e-07
3.13299e-07
3.20072e-07
3.26404e-07
3.32245e-07
3.37549e-07
3.42277e-07
3.46393e-07
2.17047e-07
2.23486e-07
2.2969e-07
2.35648e-07
2.4131e-07
2.46627e-07
2.51551e-07
2.56041e-07
2.60055e-07
2.63561e-07
1.52211e-07
1.57096e-07
1.61823e-07
1.66385e-07
1.7074e-07
1.74848e-07
1.78667e-07
1.82162e-07
1.85298e-07
1.88044e-07
9.92303e-08
1.02594e-07
1.05861e-07
1.09026e-07
1.12059e-07
1.14929e-07
1.17608e-07
1.20067e-07
1.22279e-07
1.24222e-07
5.93348e-08
6.14078e-08
6.34255e-08
6.53853e-08
6.72686e-08
6.90557e-08
7.07273e-08
7.22651e-08
7.36517e-08
7.48715e-08
3.18841e-08
3.30063e-08
3.40993e-08
3.51625e-08
3.61855e-08
3.71576e-08
3.8068e-08
3.89065e-08
3.96634e-08
4.033e-08
1.48555e-08
1.53712e-08
1.58731e-08
1.63614e-08
1.68314e-08
1.7278e-08
1.76965e-08
1.80819e-08
1.843e-08
1.87366e-08
5.60467e-09
5.79184e-09
5.97368e-09
6.15042e-09
6.32038e-09
6.48179e-09
6.6329e-09
6.77203e-09
6.89759e-09
7.00814e-09
1.48368e-09
1.52928e-09
1.57342e-09
1.61621e-09
1.65728e-09
1.6962e-09
1.73258e-09
1.76601e-09
1.79614e-09
1.82264e-09
1.95788e-10
2.00684e-10
2.05382e-10
2.09912e-10
2.14239e-10
2.18321e-10
2.2212e-10
2.25599e-10
2.28724e-10
2.31464e-10
5.39045e-12
5.45902e-12
5.523e-12
5.58392e-12
5.64146e-12
5.6952e-12
5.74476e-12
5.78977e-12
5.82991e-12
5.86487e-12
1.23028e-06
1.21338e-06
1.19464e-06
1.17389e-06
1.15094e-06
1.12558e-06
1.09758e-06
1.06667e-06
1.03255e-06
9.94917e-07
9.53417e-07
9.07691e-07
8.57374e-07
8.02124e-07
7.41672e-07
6.75894e-07
6.04924e-07
5.29322e-07
4.50272e-07
3.69794e-07
2.9083e-07
2.17047e-07
1.52211e-07
9.92303e-08
5.93348e-08
3.18841e-08
1.48555e-08
5.60467e-09
1.48368e-09
1.95788e-10
5.39045e-12
1.23347e-06
1.21694e-06
1.19858e-06
1.17822e-06
1.15569e-06
1.13076e-06
1.10321e-06
1.07277e-06
1.03914e-06
1.002e-06
9.61013e-07
9.15794e-07
8.6597e-07
8.11184e-07
7.51136e-07
6.85666e-07
6.14857e-07
5.39204e-07
4.59822e-07
3.78663e-07
2.98645e-07
2.23486e-07
1.57096e-07
1.02594e-07
6.14078e-08
3.30063e-08
1.53712e-08
5.79184e-09
1.52928e-09
2.00685e-10
5.45902e-12
1.23645e-06
1.22026e-06
1.20226e-06
1.18228e-06
1.16014e-06
1.13562e-06
1.1085e-06
1.0785e-06
1.04533e-06
1.00866e-06
9.68146e-07
9.23406e-07
8.74052e-07
8.19706e-07
7.60049e-07
6.94883e-07
6.24245e-07
5.48569e-07
4.689e-07
3.87128e-07
3.06139e-07
2.2969e-07
1.61824e-07
1.05861e-07
6.34255e-08
3.40993e-08
1.58731e-08
5.97368e-09
1.57342e-09
2.05382e-10
5.523e-12
1.23915e-06
1.22328e-06
1.20562e-06
1.186e-06
1.16423e-06
1.1401e-06
1.11338e-06
1.08379e-06
1.05106e-06
1.01484e-06
9.74777e-07
9.30493e-07
8.81587e-07
8.27668e-07
7.68391e-07
7.03529e-07
6.33074e-07
5.57403e-07
4.77496e-07
3.95178e-07
3.133e-07
2.35648e-07
1.66385e-07
1.09026e-07
6.53854e-08
3.51625e-08
1.63614e-08
6.15042e-09
1.61621e-09
2.09912e-10
5.58392e-12
1.24158e-06
1.22602e-06
1.20868e-06
1.18939e-06
1.16796e-06
1.14419e-06
1.11785e-06
1.08866e-06
1.05632e-06
1.02052e-06
9.80889e-07
9.37036e-07
8.88554e-07
8.35041e-07
7.76131e-07
7.11568e-07
6.41303e-07
5.65661e-07
4.85558e-07
4.02758e-07
3.20072e-07
2.4131e-07
1.7074e-07
1.12059e-07
6.72686e-08
3.61855e-08
1.68314e-08
6.32038e-09
1.65728e-09
2.14239e-10
5.64146e-12
1.24375e-06
1.22848e-06
1.21143e-06
1.19244e-06
1.17134e-06
1.14791e-06
1.12191e-06
1.09308e-06
1.06112e-06
1.02571e-06
9.86471e-07
9.43018e-07
8.94934e-07
8.41802e-07
7.8324e-07
7.18965e-07
6.48892e-07
5.73296e-07
4.93036e-07
4.09814e-07
3.26404e-07
2.46627e-07
1.74848e-07
1.14929e-07
6.90557e-08
3.71575e-08
1.7278e-08
6.48179e-09
1.6962e-09
2.18321e-10
5.6952e-12
1.24568e-06
1.23066e-06
1.21388e-06
1.19518e-06
1.17437e-06
1.15124e-06
1.12556e-06
1.09706e-06
1.06544e-06
1.03038e-06
9.91511e-07
9.48427e-07
9.00709e-07
8.47931e-07
7.89694e-07
7.25691e-07
6.55806e-07
5.80269e-07
4.99884e-07
4.16299e-07
3.32245e-07
2.51551e-07
1.78667e-07
1.17608e-07
7.07274e-08
3.8068e-08
1.76965e-08
6.63291e-09
1.73258e-09
2.2212e-10
5.74476e-12
1.24737e-06
1.23258e-06
1.21604e-06
1.19759e-06
1.17704e-06
1.15418e-06
1.12879e-06
1.10059e-06
1.06929e-06
1.03455e-06
9.96001e-07
9.5325e-07
9.05865e-07
8.53409e-07
7.9547e-07
7.31721e-07
6.62015e-07
5.86545e-07
5.06064e-07
4.22167e-07
3.37549e-07
2.56041e-07
1.82162e-07
1.20067e-07
7.22651e-08
3.89065e-08
1.80819e-08
6.77203e-09
1.76601e-09
2.25599e-10
5.78978e-12
1.24882e-06
1.23424e-06
1.21791e-06
1.19968e-06
1.17937e-06
1.15675e-06
1.13161e-06
1.10367e-06
1.07265e-06
1.03819e-06
9.99936e-07
9.57481e-07
9.10392e-07
8.58224e-07
8.00554e-07
7.37035e-07
6.67496e-07
5.92094e-07
5.1154e-07
4.27382e-07
3.42277e-07
2.60056e-07
1.85298e-07
1.22279e-07
7.36517e-08
3.96634e-08
1.843e-08
6.89759e-09
1.79614e-09
2.28724e-10
5.82991e-12
1.25005e-06
1.23565e-06
1.21951e-06
1.20147e-06
1.18135e-06
1.15895e-06
1.13402e-06
1.10632e-06
1.07552e-06
1.04131e-06
1.00331e-06
9.61114e-07
9.14282e-07
8.62366e-07
8.0493e-07
7.41615e-07
6.72226e-07
5.96892e-07
5.16284e-07
4.3191e-07
3.46393e-07
2.63561e-07
1.88044e-07
1.24222e-07
7.48714e-08
4.03299e-08
1.87366e-08
7.00813e-09
1.82264e-09
2.31463e-10
5.86486e-12
1.25107e-06
1.23681e-06
1.22082e-06
1.20295e-06
1.183e-06
1.16077e-06
1.13603e-06
1.10851e-06
1.07792e-06
1.04391e-06
1.00613e-06
9.64145e-07
9.1753e-07
8.65826e-07
8.08591e-07
7.45449e-07
6.76191e-07
6.00919e-07
5.20272e-07
4.35724e-07
3.49868e-07
2.66529e-07
1.90374e-07
1.25874e-07
7.59103e-08
4.08981e-08
1.89979e-08
7.10234e-09
1.84519e-09
2.3379e-10
5.89438e-12
1.25187e-06
1.23773e-06
1.22187e-06
1.20412e-06
1.18431e-06
1.16222e-06
1.13763e-06
1.11027e-06
1.07983e-06
1.04599e-06
1.00838e-06
9.66571e-07
9.20132e-07
8.686e-07
8.11527e-07
7.48527e-07
6.79377e-07
6.04158e-07
5.23485e-07
4.38801e-07
3.52678e-07
2.68932e-07
1.92266e-07
1.27217e-07
7.67563e-08
4.13612e-08
1.9211e-08
7.17911e-09
1.86356e-09
2.3568e-10
5.91826e-12
1.25247e-06
1.23842e-06
1.22265e-06
1.205e-06
1.18529e-06
1.16331e-06
1.13883e-06
1.11158e-06
1.08127e-06
1.04755e-06
1.01007e-06
9.68391e-07
9.22085e-07
8.70684e-07
8.13733e-07
7.50842e-07
6.81774e-07
6.06598e-07
5.25907e-07
4.41125e-07
3.54802e-07
2.70753e-07
1.93701e-07
1.28238e-07
7.73997e-08
4.17135e-08
1.93731e-08
7.23752e-09
1.87752e-09
2.37115e-10
5.93632e-12
1.25286e-06
1.23887e-06
1.22317e-06
1.20558e-06
1.18594e-06
1.16403e-06
1.13962e-06
1.11245e-06
1.08222e-06
1.04859e-06
1.01119e-06
9.69605e-07
9.23388e-07
8.72074e-07
8.15206e-07
7.52388e-07
6.83376e-07
6.08229e-07
5.27528e-07
4.42681e-07
3.56226e-07
2.71975e-07
1.94665e-07
1.28925e-07
7.78328e-08
4.19508e-08
1.94824e-08
7.27686e-09
1.88692e-09
2.3808e-10
5.94843e-12
1.25306e-06
1.2391e-06
1.22343e-06
1.20587e-06
1.18627e-06
1.16439e-06
1.14002e-06
1.11289e-06
1.0827e-06
1.04911e-06
1.01175e-06
9.70212e-07
9.2404e-07
8.7277e-07
8.15943e-07
7.53162e-07
6.84179e-07
6.09046e-07
5.2834e-07
4.43461e-07
3.5694e-07
2.72588e-07
1.95149e-07
1.2927e-07
7.80506e-08
4.20702e-08
1.95373e-08
7.29665e-09
1.89164e-09
2.38565e-10
5.95451e-12
1.25306e-06
1.2391e-06
1.22343e-06
1.20587e-06
1.18627e-06
1.16439e-06
1.14002e-06
1.11289e-06
1.0827e-06
1.04911e-06
1.01175e-06
9.70212e-07
9.2404e-07
8.7277e-07
8.15943e-07
7.53162e-07
6.84178e-07
6.09046e-07
5.2834e-07
4.43461e-07
3.5694e-07
2.72588e-07
1.95149e-07
1.2927e-07
7.80506e-08
4.20702e-08
1.95373e-08
7.29665e-09
1.89164e-09
2.38565e-10
5.95451e-12
1.25286e-06
1.23887e-06
1.22317e-06
1.20558e-06
1.18594e-06
1.16403e-06
1.13962e-06
1.11245e-06
1.08222e-06
1.04859e-06
1.01119e-06
9.69605e-07
9.23388e-07
8.72074e-07
8.15206e-07
7.52388e-07
6.83376e-07
6.08229e-07
5.27528e-07
4.42681e-07
3.56226e-07
2.71975e-07
1.94665e-07
1.28925e-07
7.78328e-08
4.19508e-08
1.94824e-08
7.27686e-09
1.88692e-09
2.3808e-10
5.94843e-12
1.25247e-06
1.23842e-06
1.22265e-06
1.205e-06
1.18529e-06
1.16331e-06
1.13883e-06
1.11158e-06
1.08127e-06
1.04755e-06
1.01007e-06
9.68391e-07
9.22085e-07
8.70684e-07
8.13733e-07
7.50842e-07
6.81774e-07
6.06598e-07
5.25907e-07
4.41124e-07
3.54802e-07
2.70753e-07
1.93701e-07
1.28238e-07
7.73997e-08
4.17135e-08
1.93731e-08
7.23752e-09
1.87752e-09
2.37115e-10
5.93632e-12
1.25187e-06
1.23773e-06
1.22187e-06
1.20412e-06
1.18431e-06
1.16222e-06
1.13763e-06
1.11027e-06
1.07983e-06
1.04599e-06
1.00838e-06
9.66571e-07
9.20132e-07
8.686e-07
8.11527e-07
7.48527e-07
6.79377e-07
6.04158e-07
5.23485e-07
4.38801e-07
3.52678e-07
2.68932e-07
1.92266e-07
1.27217e-07
7.67563e-08
4.13612e-08
1.9211e-08
7.17911e-09
1.86356e-09
2.3568e-10
5.91826e-12
1.25107e-06
1.23681e-06
1.22082e-06
1.20295e-06
1.183e-06
1.16077e-06
1.13603e-06
1.10851e-06
1.07792e-06
1.04391e-06
1.00613e-06
9.64145e-07
9.1753e-07
8.65826e-07
8.08591e-07
7.45449e-07
6.76191e-07
6.00919e-07
5.20272e-07
4.35724e-07
3.49868e-07
2.66529e-07
1.90374e-07
1.25874e-07
7.59103e-08
4.08981e-08
1.89979e-08
7.10234e-09
1.84519e-09
2.3379e-10
5.89438e-12
1.25005e-06
1.23565e-06
1.21951e-06
1.20147e-06
1.18135e-06
1.15895e-06
1.13402e-06
1.10632e-06
1.07552e-06
1.04131e-06
1.00331e-06
9.61114e-07
9.14282e-07
8.62366e-07
8.0493e-07
7.41615e-07
6.72226e-07
5.96892e-07
5.16284e-07
4.3191e-07
3.46393e-07
2.63561e-07
1.88044e-07
1.24222e-07
7.48714e-08
4.03299e-08
1.87366e-08
7.00813e-09
1.82264e-09
2.31463e-10
5.86486e-12
1.24882e-06
1.23424e-06
1.21791e-06
1.19968e-06
1.17937e-06
1.15675e-06
1.13161e-06
1.10367e-06
1.07265e-06
1.03819e-06
9.99936e-07
9.57481e-07
9.10392e-07
8.58224e-07
8.00554e-07
7.37035e-07
6.67496e-07
5.92094e-07
5.1154e-07
4.27382e-07
3.42277e-07
2.60055e-07
1.85298e-07
1.22279e-07
7.36517e-08
3.96634e-08
1.843e-08
6.89759e-09
1.79614e-09
2.28724e-10
5.82991e-12
1.24737e-06
1.23258e-06
1.21604e-06
1.19759e-06
1.17704e-06
1.15418e-06
1.12879e-06
1.10059e-06
1.06929e-06
1.03455e-06
9.96001e-07
9.5325e-07
9.05865e-07
8.53409e-07
7.9547e-07
7.31721e-07
6.62015e-07
5.86545e-07
5.06064e-07
4.22167e-07
3.37549e-07
2.56041e-07
1.82162e-07
1.20067e-07
7.22651e-08
3.89065e-08
1.80819e-08
6.77203e-09
1.76601e-09
2.25599e-10
5.78977e-12
1.24568e-06
1.23066e-06
1.21388e-06
1.19518e-06
1.17437e-06
1.15124e-06
1.12555e-06
1.09706e-06
1.06544e-06
1.03038e-06
9.91511e-07
9.48427e-07
9.00709e-07
8.4793e-07
7.89694e-07
7.25691e-07
6.55806e-07
5.80269e-07
4.99884e-07
4.16299e-07
3.32245e-07
2.51551e-07
1.78667e-07
1.17608e-07
7.07274e-08
3.8068e-08
1.76965e-08
6.63291e-09
1.73258e-09
2.2212e-10
5.74476e-12
1.24375e-06
1.22848e-06
1.21143e-06
1.19244e-06
1.17134e-06
1.14791e-06
1.12191e-06
1.09308e-06
1.06112e-06
1.02571e-06
9.86471e-07
9.43018e-07
8.94934e-07
8.41802e-07
7.8324e-07
7.18965e-07
6.48892e-07
5.73296e-07
4.93036e-07
4.09814e-07
3.26404e-07
2.46627e-07
1.74848e-07
1.14929e-07
6.90557e-08
3.71575e-08
1.7278e-08
6.48179e-09
1.6962e-09
2.18321e-10
5.6952e-12
1.24158e-06
1.22602e-06
1.20868e-06
1.18939e-06
1.16796e-06
1.14419e-06
1.11785e-06
1.08866e-06
1.05632e-06
1.02052e-06
9.80889e-07
9.37036e-07
8.88554e-07
8.35041e-07
7.76131e-07
7.11568e-07
6.41303e-07
5.65661e-07
4.85558e-07
4.02758e-07
3.20072e-07
2.4131e-07
1.7074e-07
1.12059e-07
6.72686e-08
3.61855e-08
1.68314e-08
6.32038e-09
1.65728e-09
2.14239e-10
5.64146e-12
1.23915e-06
1.22328e-06
1.20562e-06
1.186e-06
1.16423e-06
1.1401e-06
1.11338e-06
1.08379e-06
1.05106e-06
1.01484e-06
9.74777e-07
9.30493e-07
8.81587e-07
8.27668e-07
7.68391e-07
7.03529e-07
6.33074e-07
5.57403e-07
4.77496e-07
3.95178e-07
3.133e-07
2.35648e-07
1.66385e-07
1.09026e-07
6.53854e-08
3.51625e-08
1.63614e-08
6.15042e-09
1.61621e-09
2.09912e-10
5.58392e-12
1.23645e-06
1.22026e-06
1.20226e-06
1.18228e-06
1.16014e-06
1.13562e-06
1.1085e-06
1.0785e-06
1.04533e-06
1.00866e-06
9.68146e-07
9.23406e-07
8.74052e-07
8.19706e-07
7.60049e-07
6.94883e-07
6.24245e-07
5.48569e-07
4.689e-07
3.87128e-07
3.06139e-07
2.2969e-07
1.61824e-07
1.05861e-07
6.34255e-08
3.40993e-08
1.58731e-08
5.97368e-09
1.57342e-09
2.05382e-10
5.523e-12
1.23347e-06
1.21694e-06
1.19858e-06
1.17822e-06
1.15569e-06
1.13076e-06
1.10321e-06
1.07277e-06
1.03914e-06
1.00201e-06
9.61013e-07
9.15794e-07
8.6597e-07
8.11184e-07
7.51136e-07
6.85666e-07
6.14857e-07
5.39204e-07
4.59822e-07
3.78663e-07
2.98645e-07
2.23486e-07
1.57096e-07
1.02594e-07
6.14078e-08
3.30063e-08
1.53712e-08
5.79184e-09
1.52929e-09
2.00685e-10
5.45903e-12
1.23028e-06
1.21338e-06
1.19464e-06
1.17389e-06
1.15094e-06
1.12558e-06
1.09758e-06
1.06667e-06
1.03255e-06
9.94917e-07
9.53417e-07
9.07691e-07
8.57374e-07
8.02124e-07
7.41672e-07
6.75894e-07
6.04924e-07
5.29322e-07
4.50272e-07
3.69794e-07
2.9083e-07
2.17047e-07
1.52211e-07
9.92303e-08
5.93348e-08
3.18841e-08
1.48555e-08
5.60467e-09
1.48368e-09
1.95788e-10
5.39045e-12
1.23028e-06
1.21338e-06
1.19464e-06
1.17389e-06
1.15094e-06
1.12558e-06
1.09758e-06
1.06667e-06
1.03255e-06
9.94917e-07
9.53417e-07
9.07691e-07
8.57374e-07
8.02124e-07
7.41672e-07
6.75894e-07
6.04924e-07
5.29322e-07
4.50272e-07
3.69794e-07
2.9083e-07
2.17047e-07
1.52211e-07
9.92303e-08
5.93348e-08
3.18841e-08
1.48555e-08
5.60467e-09
1.48368e-09
1.95788e-10
5.39045e-12
1.23347e-06
1.21694e-06
1.19858e-06
1.17822e-06
1.15569e-06
1.13076e-06
1.10321e-06
1.07277e-06
1.03914e-06
1.002e-06
9.61013e-07
9.15794e-07
8.6597e-07
8.11184e-07
7.51136e-07
6.85666e-07
6.14857e-07
5.39204e-07
4.59822e-07
3.78663e-07
2.98645e-07
2.23486e-07
1.57096e-07
1.02594e-07
6.14078e-08
3.30063e-08
1.53712e-08
5.79184e-09
1.52928e-09
2.00685e-10
5.45902e-12
1.23645e-06
1.22026e-06
1.20226e-06
1.18228e-06
1.16014e-06
1.13562e-06
1.1085e-06
1.0785e-06
1.04533e-06
1.00866e-06
9.68146e-07
9.23406e-07
8.74052e-07
8.19706e-07
7.60049e-07
6.94883e-07
6.24245e-07
5.48569e-07
4.689e-07
3.87128e-07
3.06139e-07
2.2969e-07
1.61824e-07
1.05861e-07
6.34255e-08
3.40993e-08
1.58731e-08
5.97368e-09
1.57342e-09
2.05382e-10
5.523e-12
1.23915e-06
1.22328e-06
1.20562e-06
1.186e-06
1.16423e-06
1.1401e-06
1.11338e-06
1.08379e-06
1.05106e-06
1.01484e-06
9.74777e-07
9.30493e-07
8.81587e-07
8.27668e-07
7.68391e-07
7.03529e-07
6.33074e-07
5.57403e-07
4.77496e-07
3.95178e-07
3.133e-07
2.35648e-07
1.66385e-07
1.09026e-07
6.53854e-08
3.51625e-08
1.63614e-08
6.15042e-09
1.61621e-09
2.09912e-10
5.58392e-12
1.24158e-06
1.22602e-06
1.20868e-06
1.18939e-06
1.16796e-06
1.14419e-06
1.11785e-06
1.08866e-06
1.05632e-06
1.02052e-06
9.80889e-07
9.37036e-07
8.88554e-07
8.35041e-07
7.76131e-07
7.11568e-07
6.41303e-07
5.65661e-07
4.85558e-07
4.02758e-07
3.20072e-07
2.4131e-07
1.7074e-07
1.12059e-07
6.72686e-08
3.61855e-08
1.68314e-08
6.32038e-09
1.65728e-09
2.14239e-10
5.64146e-12
1.24375e-06
1.22848e-06
1.21143e-06
1.19244e-06
1.17134e-06
1.14791e-06
1.12191e-06
1.09308e-06
1.06112e-06
1.02571e-06
9.86471e-07
9.43018e-07
8.94934e-07
8.41802e-07
7.8324e-07
7.18965e-07
6.48892e-07
5.73296e-07
4.93036e-07
4.09814e-07
3.26404e-07
2.46627e-07
1.74848e-07
1.14929e-07
6.90557e-08
3.71575e-08
1.7278e-08
6.48179e-09
1.6962e-09
2.18321e-10
5.6952e-12
1.24568e-06
1.23066e-06
1.21388e-06
1.19518e-06
1.17437e-06
1.15124e-06
1.12555e-06
1.09706e-06
1.06544e-06
1.03038e-06
9.91511e-07
9.48427e-07
9.00709e-07
8.47931e-07
7.89694e-07
7.25691e-07
6.55806e-07
5.80269e-07
4.99884e-07
4.16299e-07
3.32245e-07
2.51551e-07
1.78667e-07
1.17608e-07
7.07274e-08
3.8068e-08
1.76965e-08
6.63291e-09
1.73258e-09
2.2212e-10
5.74476e-12
1.24737e-06
1.23258e-06
1.21604e-06
1.19759e-06
1.17704e-06
1.15418e-06
1.12879e-06
1.10059e-06
1.06929e-06
1.03455e-06
9.96001e-07
9.5325e-07
9.05865e-07
8.53409e-07
7.9547e-07
7.31721e-07
6.62015e-07
5.86545e-07
5.06064e-07
4.22167e-07
3.37549e-07
2.56041e-07
1.82162e-07
1.20067e-07
7.22651e-08
3.89065e-08
1.80819e-08
6.77203e-09
1.76601e-09
2.25599e-10
5.78978e-12
1.24882e-06
1.23424e-06
1.21791e-06
1.19968e-06
1.17937e-06
1.15675e-06
1.13161e-06
1.10367e-06
1.07265e-06
1.03819e-06
9.99936e-07
9.57481e-07
9.10392e-07
8.58224e-07
8.00554e-07
7.37035e-07
6.67496e-07
5.92094e-07
5.1154e-07
4.27382e-07
3.42277e-07
2.60056e-07
1.85298e-07
1.22279e-07
7.36517e-08
3.96634e-08
1.843e-08
6.89759e-09
1.79614e-09
2.28724e-10
5.82991e-12
1.25005e-06
1.23565e-06
1.21951e-06
1.20147e-06
1.18135e-06
1.15895e-06
1.13402e-06
1.10632e-06
1.07552e-06
1.04131e-06
1.00331e-06
9.61114e-07
9.14282e-07
8.62366e-07
8.0493e-07
7.41615e-07
6.72226e-07
5.96892e-07
5.16284e-07
4.3191e-07
3.46393e-07
2.63561e-07
1.88044e-07
1.24222e-07
7.48714e-08
4.03299e-08
1.87366e-08
7.00813e-09
1.82264e-09
2.31463e-10
5.86486e-12
1.25107e-06
1.23681e-06
1.22082e-06
1.20295e-06
1.183e-06
1.16077e-06
1.13603e-06
1.10851e-06
1.07792e-06
1.04391e-06
1.00613e-06
9.64145e-07
9.1753e-07
8.65826e-07
8.08591e-07
7.45449e-07
6.76191e-07
6.00919e-07
5.20272e-07
4.35724e-07
3.49868e-07
2.66529e-07
1.90374e-07
1.25874e-07
7.59103e-08
4.08981e-08
1.89979e-08
7.10234e-09
1.84519e-09
2.3379e-10
5.89438e-12
1.25187e-06
1.23773e-06
1.22187e-06
1.20412e-06
1.18431e-06
1.16222e-06
1.13763e-06
1.11027e-06
1.07983e-06
1.04599e-06
1.00838e-06
9.66571e-07
9.20132e-07
8.686e-07
8.11527e-07
7.48527e-07
6.79377e-07
6.04158e-07
5.23485e-07
4.38801e-07
3.52678e-07
2.68932e-07
1.92266e-07
1.27217e-07
7.67563e-08
4.13612e-08
1.9211e-08
7.17911e-09
1.86356e-09
2.3568e-10
5.91826e-12
1.25247e-06
1.23842e-06
1.22265e-06
1.205e-06
1.18529e-06
1.16331e-06
1.13883e-06
1.11158e-06
1.08127e-06
1.04755e-06
1.01007e-06
9.68391e-07
9.22085e-07
8.70684e-07
8.13733e-07
7.50842e-07
6.81774e-07
6.06598e-07
5.25907e-07
4.41125e-07
3.54802e-07
2.70753e-07
1.93701e-07
1.28238e-07
7.73997e-08
4.17135e-08
1.93731e-08
7.23752e-09
1.87752e-09
2.37115e-10
5.93632e-12
1.25286e-06
1.23887e-06
1.22317e-06
1.20558e-06
1.18594e-06
1.16403e-06
1.13962e-06
1.11245e-06
1.08222e-06
1.04859e-06
1.01119e-06
9.69605e-07
9.23388e-07
8.72074e-07
8.15206e-07
7.52388e-07
6.83376e-07
6.08229e-07
5.27528e-07
4.42681e-07
3.56226e-07
2.71975e-07
1.94665e-07
1.28925e-07
7.78328e-08
4.19508e-08
1.94824e-08
7.27686e-09
1.88692e-09
2.3808e-10
5.94843e-12
1.25306e-06
1.2391e-06
1.22343e-06
1.20587e-06
1.18627e-06
1.16439e-06
1.14002e-06
1.11289e-06
1.0827e-06
1.04911e-06
1.01175e-06
9.70212e-07
9.2404e-07
8.7277e-07
8.15943e-07
7.53162e-07
6.84179e-07
6.09046e-07
5.2834e-07
4.43461e-07
3.5694e-07
2.72588e-07
1.95149e-07
1.2927e-07
7.80506e-08
4.20702e-08
1.95373e-08
7.29665e-09
1.89164e-09
2.38565e-10
5.95451e-12
1.25306e-06
1.2391e-06
1.22343e-06
1.20587e-06
1.18627e-06
1.16439e-06
1.14002e-06
1.11289e-06
1.0827e-06
1.04911e-06
1.01175e-06
9.70212e-07
9.2404e-07
8.7277e-07
8.15943e-07
7.53162e-07
6.84178e-07
6.09046e-07
5.2834e-07
4.43461e-07
3.5694e-07
2.72588e-07
1.95149e-07
1.2927e-07
7.80506e-08
4.20702e-08
1.95373e-08
7.29665e-09
1.89164e-09
2.38565e-10
5.95451e-12
1.25286e-06
1.23887e-06
1.22317e-06
1.20558e-06
1.18594e-06
1.16403e-06
1.13962e-06
1.11245e-06
1.08222e-06
1.04859e-06
1.01119e-06
9.69605e-07
9.23388e-07
8.72074e-07
8.15206e-07
7.52388e-07
6.83376e-07
6.08229e-07
5.27528e-07
4.4268e-07
3.56226e-07
2.71975e-07
1.94665e-07
1.28925e-07
7.78328e-08
4.19508e-08
1.94823e-08
7.27685e-09
1.88691e-09
2.3808e-10
5.94843e-12
)
;

boundaryField
{
    inlet
    {
        type            cyclic;
    }
    outlet
    {
        type            cyclic;
    }
    wall
    {
        type            fixedValue;
        value           uniform 1e-30;
    }
    procBoundary0to1
    {
        type            processor;
        value           nonuniform List<scalar> 
59
(
1.26165e-06
1.26398e-06
1.26606e-06
1.26792e-06
1.26956e-06
1.271e-06
1.27226e-06
1.27333e-06
1.27422e-06
1.24549e-06
1.24549e-06
1.24549e-06
1.24833e-06
1.25098e-06
1.25336e-06
1.2555e-06
1.2574e-06
1.25909e-06
1.26055e-06
1.26181e-06
1.26287e-06
1.26374e-06
1.26443e-06
1.26494e-06
1.26528e-06
1.26545e-06
1.26545e-06
1.26528e-06
1.26494e-06
1.26443e-06
1.26374e-06
1.26287e-06
1.26181e-06
1.26055e-06
1.25909e-06
1.2574e-06
1.2555e-06
1.25336e-06
1.25098e-06
1.24833e-06
1.24549e-06
1.24549e-06
1.24833e-06
1.25098e-06
1.25336e-06
1.2555e-06
1.2574e-06
1.25909e-06
1.26055e-06
1.26181e-06
1.26287e-06
1.26374e-06
1.26443e-06
1.26494e-06
1.26528e-06
1.26545e-06
1.26545e-06
1.26528e-06
1.25247e-06
)
;
    }
    procBoundary0to2
    {
        type            processor;
        value           nonuniform List<scalar> 
30
(
1.23842e-06
1.22265e-06
1.205e-06
1.18529e-06
1.16331e-06
1.13883e-06
1.11158e-06
1.08127e-06
1.04755e-06
1.01007e-06
9.68391e-07
9.22085e-07
8.70684e-07
8.13733e-07
7.50842e-07
6.81774e-07
6.06598e-07
5.25907e-07
4.41125e-07
3.54802e-07
2.70753e-07
1.93701e-07
1.28238e-07
7.73997e-08
4.17136e-08
1.93732e-08
7.23752e-09
1.87752e-09
2.37115e-10
5.93632e-12
)
;
    }
    procBoundary0to3
    {
        type            processor;
        value           nonuniform List<scalar> 
32
(
1.26374e-06
1.25107e-06
1.23681e-06
1.22082e-06
1.20295e-06
1.183e-06
1.16077e-06
1.13603e-06
1.10851e-06
1.07792e-06
1.04391e-06
1.00613e-06
9.64144e-07
9.1753e-07
8.65826e-07
8.0859e-07
7.45449e-07
6.76191e-07
6.00918e-07
5.20272e-07
4.35724e-07
3.49868e-07
2.66529e-07
1.90374e-07
1.25874e-07
7.59102e-08
4.08981e-08
1.89979e-08
7.10233e-09
1.84519e-09
2.3379e-10
5.89437e-12
)
;
    }
}


// ************************************************************************* //
