/*--------------------------------*- C++ -*----------------------------------*\
  =========                 |
  \\      /  F ield         | OpenFOAM: The Open Source CFD Toolbox
   \\    /   O peration     | Website:  https://openfoam.org
    \\  /    A nd           | Version:  7
     \\/     M anipulation  |
\*---------------------------------------------------------------------------*/
FoamFile
{
    version     2.0;
    format      ascii;
    class       volVectorField;
    location    "12000";
    object      U;
}
// * * * * * * * * * * * * * * * * * * * * * * * * * * * * * * * * * * * * * //

dimensions      [0 1 -1 0 0 0 0];

internalField   nonuniform List<vector> 
4850
(
(-1.98104e-19 -8.67227e-20 -0.00228717)
(-1.61405e-19 -8.79092e-20 -0.00228728)
(-1.90833e-19 -5.76815e-20 -0.00228696)
(-1.89486e-19 -3.57496e-20 -0.00228708)
(-1.00581e-19 -1.67491e-20 -0.0022872)
(-1.46764e-19 -4.52788e-20 -0.00228676)
(-2.11341e-19 -3.07136e-20 -0.00228687)
(-1.25697e-19 -4.61657e-20 -0.002287)
(-8.76156e-20 1.51862e-20 -0.00228712)
(-1.66796e-20 4.41252e-20 -0.00228726)
(-1.14313e-19 -5.45706e-20 -0.00228655)
(-2.00699e-19 -4.6498e-20 -0.00228667)
(-1.19945e-19 -5.00095e-20 -0.00228679)
(-1.14175e-19 4.84483e-20 -0.00228692)
(-4.05124e-20 5.9713e-20 -0.00228705)
(-3.49702e-21 1.47724e-19 -0.00228719)
(-9.53873e-20 -6.50837e-20 -0.00228634)
(-2.11072e-19 -4.09938e-20 -0.00228645)
(-1.47332e-19 9.30896e-21 -0.00228658)
(-9.35473e-20 6.95857e-20 -0.00228671)
(-6.44023e-20 1.63496e-19 -0.00228685)
(-1.96557e-20 2.54122e-19 -0.00228698)
(-5.1544e-20 3.14029e-19 -0.00228713)
(-8.15698e-20 -7.61571e-20 -0.00228612)
(-1.74722e-19 -1.49688e-20 -0.00228624)
(-1.78746e-19 6.87838e-20 -0.00228636)
(-9.51998e-20 8.76913e-20 -0.0022865)
(-4.52295e-20 2.03572e-19 -0.00228663)
(1.05425e-20 2.67912e-19 -0.00228677)
(-4.51307e-20 2.93624e-19 -0.00228692)
(-9.24581e-20 2.45245e-19 -0.00228706)
(-1.26152e-19 1.36931e-19 -0.0022872)
(-8.12386e-20 -7.10954e-20 -0.0022859)
(-1.43072e-19 2.11974e-21 -0.00228602)
(-1.60095e-19 5.3712e-20 -0.00228615)
(-1.07129e-19 1.13581e-19 -0.00228628)
(-4.05329e-20 1.9955e-19 -0.00228642)
(5.08151e-20 1.69208e-19 -0.00228656)
(2.77164e-20 1.49719e-19 -0.0022867)
(-6.64456e-20 9.02881e-20 -0.00228685)
(-1.21512e-19 6.754e-21 -0.00228699)
(-1.01546e-19 2.44968e-20 -0.00228713)
(-9.8632e-20 -1.81948e-20 -0.00228568)
(-1.39726e-19 5.98427e-20 -0.0022858)
(-1.60551e-19 8.97318e-20 -0.00228593)
(-1.07834e-19 1.45376e-19 -0.00228606)
(-4.76892e-20 1.23786e-19 -0.0022862)
(2.10704e-20 1.17329e-19 -0.00228634)
(3.14917e-20 8.19673e-20 -0.00228649)
(-1.93362e-20 -3.63469e-20 -0.00228663)
(-1.00546e-19 -1.48535e-20 -0.00228677)
(-8.18484e-20 -2.49525e-20 -0.00228692)
(-5.80334e-20 -1.87677e-21 -0.00228706)
(-8.26856e-20 2.81997e-20 -0.00228719)
(-4.41893e-20 4.31801e-20 -0.00228733)
(-3.91895e-20 4.3179e-20 -0.00228745)
(-1.28262e-19 7.63398e-20 -0.00228546)
(-1.30439e-19 9.68865e-20 -0.00228558)
(-1.60051e-19 9.37667e-20 -0.00228571)
(-1.17571e-19 6.64352e-20 -0.00228584)
(-4.18797e-20 5.69349e-20 -0.00228598)
(3.79493e-21 1.57292e-19 -0.00228612)
(-1.46575e-20 9.41356e-20 -0.00228627)
(-3.04199e-20 -3.88635e-20 -0.00228641)
(-7.76273e-20 -6.22345e-20 -0.00228656)
(-7.95379e-20 -6.13686e-20 -0.0022867)
(-3.82929e-20 -4.18038e-20 -0.00228684)
(-5.85239e-20 -2.38033e-20 -0.00228698)
(-5.48317e-20 8.38447e-20 -0.00228711)
(-4.31609e-20 7.91583e-20 -0.00228723)
(-9.37209e-20 2.37614e-20 -0.00228735)
(-1.5603e-19 8.86283e-21 -0.00228746)
(-2.45557e-19 6.62601e-20 -0.00228756)
(-1.78435e-19 6.8649e-20 -0.00228766)
(-1.508e-19 1.00996e-19 -0.00228523)
(-1.40159e-19 8.79832e-20 -0.00228535)
(-1.68077e-19 5.89113e-20 -0.00228548)
(-1.27523e-19 4.86782e-20 -0.00228562)
(-3.38838e-20 7.37219e-20 -0.00228576)
(-5.3833e-21 1.79124e-19 -0.0022859)
(-4.55362e-20 6.6431e-20 -0.00228605)
(-7.2942e-20 -4.83437e-20 -0.00228619)
(-6.70266e-20 -1.13006e-19 -0.00228634)
(-6.37256e-20 -8.37798e-20 -0.00228648)
(-2.99657e-20 -6.2541e-20 -0.00228662)
(-2.43658e-21 -4.17747e-20 -0.00228676)
(-3.75549e-20 1.70595e-19 -0.00228689)
(-7.7051e-20 7.97734e-20 -0.00228701)
(-1.2421e-19 5.1045e-20 -0.00228713)
(-1.36245e-19 2.34661e-20 -0.00228724)
(-2.39265e-19 6.85026e-20 -0.00228735)
(-2.05235e-19 -5.94301e-22 -0.00228744)
(-2.19385e-20 -9.23343e-20 -0.00228752)
(-2.48605e-20 2.05267e-20 -0.00228759)
(-1.46033e-19 7.58943e-20 -0.00228501)
(-1.48568e-19 9.77046e-20 -0.00228513)
(-1.80578e-19 7.88938e-20 -0.00228526)
(-1.75746e-19 9.18255e-20 -0.00228539)
(-5.01664e-20 9.54855e-20 -0.00228553)
(1.79887e-20 1.04716e-19 -0.00228568)
(-2.40778e-20 -8.90165e-20 -0.00228582)
(-8.74646e-20 -9.37859e-20 -0.00228597)
(-8.41039e-20 -1.08639e-19 -0.00228611)
(-6.09967e-20 -8.27382e-20 -0.00228626)
(-2.28039e-20 -8.42026e-20 -0.0022864)
(4.95879e-20 -3.25917e-20 -0.00228654)
(1.05943e-20 8.2615e-20 -0.00228667)
(-6.80618e-20 -8.9286e-21 -0.00228679)
(-1.39158e-19 1.31804e-19 -0.00228691)
(-1.39365e-19 3.69023e-20 -0.00228702)
(-2.44234e-19 4.28593e-20 -0.00228712)
(-2.62968e-19 -3.95663e-20 -0.00228722)
(-1.93875e-20 -1.74988e-19 -0.0022873)
(3.37641e-20 1.46084e-20 -0.00228737)
(-3.12575e-20 7.64864e-20 -0.00228743)
(3.53676e-21 6.96993e-20 -0.00228748)
(-9.77691e-20 -3.87194e-20 -0.00228752)
(-7.44022e-20 -1.43007e-19 -0.00228754)
(-1.28542e-19 4.60116e-20 -0.00228479)
(-1.4952e-19 1.17073e-19 -0.00228491)
(-1.93847e-19 1.07062e-19 -0.00228503)
(-1.98491e-19 1.08995e-19 -0.00228517)
(-1.03182e-19 9.16662e-20 -0.00228531)
(-3.97538e-20 4.23029e-20 -0.00228545)
(-2.18195e-20 -1.3609e-19 -0.0022856)
(-5.29546e-20 -9.43018e-20 -0.00228574)
(-8.15268e-20 -9.58866e-20 -0.00228589)
(-7.30586e-20 -7.9003e-20 -0.00228603)
(-2.52431e-20 -9.41993e-20 -0.00228617)
(5.73244e-20 -3.29163e-20 -0.00228631)
(3.54335e-20 -6.05756e-21 -0.00228644)
(-7.1449e-21 -3.03095e-20 -0.00228657)
(-1.16665e-19 1.44233e-19 -0.00228669)
(-1.69461e-19 3.77039e-20 -0.0022868)
(-2.50974e-19 1.18493e-20 -0.0022869)
(-3.24999e-19 -3.80569e-20 -0.00228699)
(-2.36779e-20 -9.4441e-20 -0.00228707)
(8.57258e-20 9.23903e-20 -0.00228714)
(-4.03236e-20 7.1783e-20 -0.0022872)
(-4.04401e-20 1.01926e-21 -0.00228725)
(-1.24963e-19 -1.38548e-19 -0.00228729)
(-6.65281e-20 -1.14821e-19 -0.00228732)
(-1.08858e-20 -2.46615e-20 -0.00228733)
(-4.44383e-19 5.56695e-20 -0.00228733)
(-7.11573e-19 6.42496e-20 -0.00228732)
(-5.03081e-19 6.84392e-20 -0.0022873)
(-4.34427e-19 1.19666e-19 -0.00228726)
(-1.30312e-19 7.24765e-20 -0.00228456)
(-1.26153e-19 1.29142e-19 -0.00228468)
(-1.81228e-19 9.11298e-20 -0.00228481)
(-2.32609e-19 1.25774e-19 -0.00228494)
(-1.58556e-19 1.46913e-19 -0.00228508)
(-1.17057e-19 1.16127e-19 -0.00228523)
(-9.15331e-20 -6.53191e-20 -0.00228537)
(-7.94683e-20 -4.03549e-20 -0.00228552)
(-9.79848e-20 -5.79828e-20 -0.00228566)
(-8.28099e-20 -7.08676e-20 -0.00228581)
(-4.75491e-20 -4.9127e-20 -0.00228595)
(5.91613e-20 -8.7505e-21 -0.00228609)
(4.46801e-20 -2.60116e-20 -0.00228622)
(1.572e-20 6.06452e-21 -0.00228634)
(-7.32825e-20 6.71664e-20 -0.00228646)
(-1.97988e-19 9.14242e-20 -0.00228657)
(-2.56891e-19 1.79833e-21 -0.00228667)
(-3.46879e-19 3.0242e-20 -0.00228677)
(-3.89145e-20 1.20774e-19 -0.00228685)
(9.6296e-20 1.31269e-19 -0.00228692)
(-6.65423e-20 9.01893e-20 -0.00228698)
(-9.4782e-20 9.60992e-20 -0.00228703)
(-1.47721e-19 -9.01182e-20 -0.00228706)
(-2.65451e-20 -1.01733e-20 -0.00228709)
(2.46847e-20 6.70267e-20 -0.0022871)
(-4.38634e-19 6.8666e-20 -0.0022871)
(-6.98879e-19 9.04785e-20 -0.00228709)
(-4.79347e-19 1.42542e-19 -0.00228707)
(-4.19829e-19 1.91311e-19 -0.00228703)
(-5.79161e-19 2.02409e-19 -0.00228698)
(-6.4485e-19 1.17313e-19 -0.00228693)
(-7.39471e-19 -9.49281e-20 -0.00228686)
(-1.36583e-19 9.80758e-20 -0.00228434)
(-9.83887e-20 6.37608e-20 -0.00228446)
(-1.48158e-19 7.00587e-20 -0.00228458)
(-2.08229e-19 1.46247e-19 -0.00228472)
(-1.8886e-19 1.74891e-19 -0.00228486)
(-1.56186e-19 4.84096e-20 -0.002285)
(-1.40956e-19 -3.85604e-20 -0.00228515)
(-9.1935e-20 3.29753e-21 -0.00228529)
(-1.16777e-19 -5.24038e-20 -0.00228544)
(-9.54487e-20 -5.63584e-20 -0.00228558)
(-6.73829e-20 3.26978e-21 -0.00228572)
(1.87697e-20 3.39431e-20 -0.00228586)
(5.06238e-20 -4.17455e-20 -0.00228599)
(4.25386e-20 -1.5814e-20 -0.00228612)
(-7.59426e-21 -5.00822e-20 -0.00228623)
(-1.92613e-19 9.76729e-20 -0.00228634)
(-2.60795e-19 -1.77722e-20 -0.00228645)
(-3.1737e-19 1.01695e-19 -0.00228654)
(-6.97221e-20 2.54637e-19 -0.00228662)
(6.6077e-20 1.18506e-19 -0.00228669)
(-4.82639e-20 9.31243e-20 -0.00228675)
(-1.35975e-19 2.0062e-19 -0.0022868)
(-1.80555e-19 -3.1449e-20 -0.00228684)
(-1.9119e-21 6.25448e-20 -0.00228686)
(2.66752e-20 5.72642e-20 -0.00228687)
(-4.40077e-19 7.93726e-20 -0.00228687)
(-6.80037e-19 8.70034e-20 -0.00228686)
(-4.37601e-19 2.38647e-19 -0.00228684)
(-3.97704e-19 2.60191e-19 -0.0022868)
(-5.97719e-19 2.53859e-19 -0.00228675)
(-6.85437e-19 1.89764e-19 -0.00228669)
(-8.00867e-19 1.5493e-19 -0.00228662)
(-7.16875e-19 -2.1942e-19 -0.00228654)
(-1.47117e-18 -1.10364e-19 -0.00228645)
(-1.679e-19 1.05589e-19 -0.00228412)
(-9.07521e-20 4.86287e-20 -0.00228423)
(-1.21665e-19 8.9834e-20 -0.00228436)
(-1.89807e-19 1.38324e-19 -0.00228449)
(-1.84223e-19 8.13494e-20 -0.00228463)
(-1.45359e-19 -5.18508e-20 -0.00228478)
(-1.41484e-19 -3.90712e-20 -0.00228492)
(-9.74049e-20 -3.32998e-20 -0.00228507)
(-1.17685e-19 -8.69638e-20 -0.00228521)
(-9.18374e-20 -3.5241e-20 -0.00228535)
(-7.91928e-20 6.24034e-20 -0.0022855)
(-1.2902e-20 5.79639e-20 -0.00228563)
(7.15999e-21 -1.208e-20 -0.00228576)
(2.77334e-20 -4.20933e-20 -0.00228589)
(4.89367e-20 -1.25447e-19 -0.00228601)
(-1.41694e-19 1.52489e-20 -0.00228612)
(-2.36905e-19 -5.1571e-20 -0.00228622)
(-2.5325e-19 5.79536e-20 -0.00228631)
(-8.09881e-20 2.02613e-19 -0.00228639)
(2.05166e-20 1.06876e-19 -0.00228646)
(-1.82157e-20 5.09512e-20 -0.00228652)
(-1.50087e-19 1.37257e-19 -0.00228657)
(-2.21699e-19 4.93563e-20 -0.00228661)
(5.3794e-21 4.64048e-20 -0.00228663)
(3.27675e-20 3.62093e-20 -0.00228664)
(-4.334e-19 6.46976e-20 -0.00228664)
(-6.31103e-19 1.0068e-19 -0.00228663)
(-3.81819e-19 3.66286e-19 -0.00228661)
(-4.06981e-19 3.19397e-19 -0.00228657)
(-6.15492e-19 2.79024e-19 -0.00228652)
(-6.84374e-19 2.50445e-19 -0.00228646)
(-8.57881e-19 3.33836e-19 -0.00228639)
(-8.05155e-19 -5.35832e-20 -0.00228631)
(-2.06433e-18 -3.09052e-20 -0.00228622)
(-2.07862e-19 1.50334e-19 -0.0022839)
(-1.34544e-19 8.17731e-20 -0.00228401)
(-1.00425e-19 8.99102e-20 -0.00228414)
(-1.97897e-19 1.50021e-19 -0.00228427)
(-1.83215e-19 -1.33713e-20 -0.00228441)
(-1.45805e-19 -1.10434e-19 -0.00228455)
(-1.29612e-19 -8.30632e-20 -0.0022847)
(-8.93192e-20 -7.28736e-20 -0.00228484)
(-1.04132e-19 -1.09996e-19 -0.00228499)
(-6.80127e-20 -1.42575e-20 -0.00228513)
(-9.37925e-20 1.19118e-19 -0.00228527)
(-3.92924e-20 4.1054e-20 -0.0022854)
(-2.1426e-20 9.74974e-21 -0.00228554)
(-1.64853e-20 -2.14832e-20 -0.00228566)
(5.48514e-20 -1.37376e-19 -0.00228578)
(-9.63662e-20 -6.65838e-20 -0.00228589)
(-2.18084e-19 -1.0407e-19 -0.00228599)
(-2.02546e-19 -4.39958e-20 -0.00228608)
(-4.6548e-20 3.80135e-20 -0.00228616)
(-7.14668e-21 9.45485e-20 -0.00228623)
(-2.00824e-20 -1.77734e-20 -0.00228629)
(-1.17831e-19 1.41916e-20 -0.00228634)
(-2.32215e-19 5.95708e-20 -0.00228638)
(-1.52134e-20 2.65383e-20 -0.0022864)
(3.2307e-20 2.17328e-20 -0.00228641)
(-4.23574e-19 8.02035e-21 -0.00228641)
(-5.52594e-19 1.62509e-19 -0.0022864)
(-3.34522e-19 3.59821e-19 -0.00228638)
(-4.45441e-19 3.01839e-19 -0.00228634)
(-6.44705e-19 2.35092e-19 -0.00228629)
(-6.61326e-19 3.34016e-19 -0.00228623)
(-9.03147e-19 4.07685e-19 -0.00228616)
(-9.35817e-19 1.70788e-19 -0.00228608)
(-3.10552e-18 2.46092e-19 -0.00228599)
(-2.35313e-19 1.92814e-19 -0.00228368)
(-1.68771e-19 7.83768e-20 -0.00228379)
(-8.17007e-20 8.76728e-20 -0.00228392)
(-1.80648e-19 9.14534e-20 -0.00228405)
(-1.76638e-19 -1.53496e-19 -0.00228419)
(-1.41526e-19 -1.54659e-19 -0.00228433)
(-1.15552e-19 -1.06897e-19 -0.00228447)
(-1.01125e-19 -7.39932e-20 -0.00228462)
(-1.16913e-19 -6.15318e-20 -0.00228476)
(-2.83245e-20 3.00081e-21 -0.0022849)
(-8.32841e-20 9.42229e-20 -0.00228504)
(-6.14875e-20 5.18928e-21 -0.00228518)
(-2.89021e-20 -1.79012e-20 -0.00228531)
(-5.5647e-20 -2.34021e-20 -0.00228543)
(3.53789e-20 -1.30374e-19 -0.00228555)
(-7.30968e-20 -1.13114e-19 -0.00228566)
(-2.02695e-19 -1.40382e-19 -0.00228576)
(-1.87945e-19 -9.82225e-20 -0.00228585)
(-1.35568e-20 -1.9827e-20 -0.00228593)
(-1.10552e-20 1.04918e-19 -0.002286)
(-4.00307e-20 -7.74086e-20 -0.00228606)
(-9.49149e-20 -1.0008e-19 -0.00228611)
(-2.2066e-19 1.47332e-20 -0.00228614)
(-2.17062e-20 4.96689e-20 -0.00228617)
(1.90194e-20 3.36841e-20 -0.00228618)
(-3.88019e-19 -1.84412e-20 -0.00228618)
(-4.84056e-19 2.76381e-19 -0.00228617)
(-3.32767e-19 2.84395e-19 -0.00228615)
(-4.847e-19 2.73066e-19 -0.00228611)
(-6.30313e-19 1.88581e-19 -0.00228606)
(-6.15184e-19 4.24009e-19 -0.002286)
(-9.34875e-19 4.66491e-19 -0.00228593)
(-1.02075e-18 4.52416e-19 -0.00228585)
(-3.95531e-18 1.23417e-18 -0.00228575)
(-2.18093e-19 1.62293e-19 -0.00228346)
(-2.02275e-19 4.76335e-20 -0.00228357)
(-6.90584e-20 4.19802e-20 -0.0022837)
(-1.56696e-19 -3.66301e-20 -0.00228383)
(-1.56593e-19 -2.58376e-19 -0.00228396)
(-1.13538e-19 -1.83662e-19 -0.00228411)
(-9.52218e-20 -1.2749e-19 -0.00228425)
(-8.90833e-20 -4.66941e-20 -0.00228439)
(-1.4373e-19 6.18033e-21 -0.00228454)
(-3.99898e-20 2.57537e-20 -0.00228468)
(-5.98674e-20 1.54543e-20 -0.00228482)
(-7.74829e-20 -3.03196e-20 -0.00228495)
(-2.50982e-20 -5.04229e-20 -0.00228508)
(-8.10969e-20 -1.22516e-20 -0.0022852)
(1.69178e-21 -8.92331e-20 -0.00228532)
(-7.47559e-20 -8.41315e-20 -0.00228543)
(-1.96065e-19 -1.4375e-19 -0.00228553)
(-1.73535e-19 -6.30057e-20 -0.00228562)
(1.12091e-20 5.87276e-20 -0.0022857)
(-3.86604e-20 1.28694e-19 -0.00228577)
(-9.84011e-20 -9.91172e-20 -0.00228583)
(-6.4055e-20 -1.82809e-19 -0.00228588)
(-1.73554e-19 3.42165e-21 -0.00228591)
(-2.3416e-20 1.73726e-19 -0.00228594)
(-4.58521e-21 5.90637e-20 -0.00228595)
(-3.3808e-19 1.63206e-20 -0.00228595)
(-4.33385e-19 3.2234e-19 -0.00228594)
(-3.5416e-19 2.47492e-19 -0.00228591)
(-5.11555e-19 2.71664e-19 -0.00228588)
(-6.00206e-19 2.46712e-19 -0.00228583)
(-5.64956e-19 4.54677e-19 -0.00228577)
(-9.1641e-19 5.36298e-19 -0.0022857)
(-8.6397e-19 6.99049e-19 -0.00228562)
(-2.77669e-18 1.70954e-18 -0.00228552)
(-1.64437e-19 8.46827e-20 -0.00228324)
(-2.13658e-19 1.57797e-21 -0.00228336)
(-7.39946e-20 -6.20519e-21 -0.00228348)
(-1.14073e-19 -1.77947e-19 -0.00228361)
(-1.89888e-19 -2.47081e-19 -0.00228375)
(-1.10341e-19 -1.62549e-19 -0.00228389)
(-7.06626e-20 -1.24179e-19 -0.00228403)
(-7.41177e-20 -1.30578e-20 -0.00228417)
(-1.35419e-19 6.46752e-21 -0.00228431)
(-6.94561e-20 5.15408e-20 -0.00228445)
(-9.86518e-20 7.217e-20 -0.00228459)
(-7.35652e-20 -7.76212e-20 -0.00228473)
(-2.2525e-20 -4.60548e-20 -0.00228486)
(-9.66982e-20 2.54504e-20 -0.00228498)
(-3.79618e-20 1.61639e-20 -0.00228509)
(-1.02061e-19 -1.97402e-21 -0.0022852)
(-1.95845e-19 -1.00253e-19 -0.0022853)
(-1.52476e-19 1.84005e-20 -0.00228539)
(2.07567e-20 1.39296e-19 -0.00228547)
(-7.32447e-20 1.12273e-19 -0.00228554)
(-1.81034e-19 2.25002e-20 -0.0022856)
(-5.46064e-20 -1.56418e-19 -0.00228565)
(-8.42216e-20 2.40415e-20 -0.00228568)
(-1.66588e-20 2.51012e-19 -0.00228571)
(-5.42691e-20 7.89294e-20 -0.00228572)
(-2.96065e-19 6.6249e-20 -0.00228572)
(-4.05421e-19 2.74391e-19 -0.00228571)
(-3.73621e-19 2.26689e-19 -0.00228568)
(-5.09514e-19 2.79047e-19 -0.00228565)
(-5.58434e-19 3.47645e-19 -0.0022856)
(-5.27132e-19 4.85901e-19 -0.00228554)
(-8.47871e-19 6.21181e-19 -0.00228547)
(-6.83793e-19 8.54222e-19 -0.00228539)
(-1.75062e-18 1.55897e-18 -0.00228529)
(-1.05035e-19 -2.80644e-20 -0.00228302)
(-2.31296e-19 -1.01552e-20 -0.00228314)
(-1.22402e-19 -2.5034e-20 -0.00228326)
(-8.19144e-20 -2.67226e-19 -0.00228339)
(-1.90417e-19 -1.88736e-19 -0.00228353)
(-1.16259e-19 -1.59892e-19 -0.00228367)
(-8.03591e-20 -7.88865e-20 -0.00228381)
(-7.98078e-20 5.52384e-20 -0.00228395)
(-1.46453e-19 4.71352e-20 -0.00228409)
(-7.68385e-20 1.41877e-19 -0.00228423)
(-1.77344e-19 1.92687e-19 -0.00228437)
(-1.38599e-19 -3.92416e-20 -0.0022845)
(-3.41854e-21 -1.51844e-20 -0.00228463)
(-8.98579e-20 7.64829e-20 -0.00228475)
(-6.89657e-20 1.21968e-19 -0.00228487)
(-1.43387e-19 8.38004e-20 -0.00228498)
(-2.30283e-19 7.71056e-20 -0.00228507)
(-1.46196e-19 1.6821e-19 -0.00228516)
(1.0065e-20 2.17914e-19 -0.00228524)
(-7.41344e-20 1.01003e-19 -0.00228531)
(-2.39457e-19 1.6854e-19 -0.00228537)
(-9.04727e-20 -7.18195e-22 -0.00228542)
(-2.50115e-20 9.34461e-20 -0.00228545)
(-1.02636e-20 1.91713e-19 -0.00228548)
(-8.81719e-20 1.16934e-19 -0.00228549)
(-2.75499e-19 1.04646e-19 -0.00228549)
(-3.90427e-19 2.24318e-19 -0.00228548)
(-3.73998e-19 2.15221e-19 -0.00228545)
(-4.85089e-19 3.08827e-19 -0.00228542)
(-5.17865e-19 4.32216e-19 -0.00228537)
(-4.83675e-19 5.28821e-19 -0.00228531)
(-7.64969e-19 7.26264e-19 -0.00228524)
(-5.40051e-19 1.03676e-18 -0.00228516)
(-1.21735e-18 1.34922e-18 -0.00228507)
(-8.04253e-20 -6.82693e-20 -0.0022828)
(-2.42688e-19 4.12099e-20 -0.00228292)
(-1.65879e-19 -7.05075e-20 -0.00228304)
(-1.13704e-19 -2.50449e-19 -0.00228317)
(-1.99804e-19 -1.51011e-19 -0.00228331)
(-1.22343e-19 -1.28159e-19 -0.00228345)
(-6.1596e-20 -2.0319e-20 -0.00228359)
(-6.15223e-20 7.42789e-20 -0.00228373)
(-1.4311e-19 8.01231e-20 -0.00228387)
(-8.01529e-20 2.09951e-19 -0.00228401)
(-1.89967e-19 1.51419e-19 -0.00228415)
(-2.25526e-19 4.50519e-20 -0.00228428)
(-3.25558e-20 7.40989e-20 -0.00228441)
(-6.98427e-20 1.05901e-19 -0.00228453)
(-7.41615e-20 1.64795e-19 -0.00228464)
(-1.38269e-19 1.45888e-19 -0.00228475)
(-2.3529e-19 2.39886e-19 -0.00228485)
(-1.73451e-19 2.94891e-19 -0.00228494)
(-2.98543e-20 2.32715e-19 -0.00228502)
(-8.49323e-20 1.32625e-19 -0.00228508)
(-2.43561e-19 1.9399e-19 -0.00228514)
(-1.20862e-19 1.00698e-19 -0.00228519)
(-2.38966e-20 1.27113e-19 -0.00228522)
(-9.74562e-21 1.47234e-19 -0.00228525)
(-9.83873e-20 1.62685e-19 -0.00228526)
(-2.69237e-19 1.51063e-19 -0.00228526)
(-3.82752e-19 2.08912e-19 -0.00228525)
(-3.59729e-19 2.52842e-19 -0.00228522)
(-4.44396e-19 3.4456e-19 -0.00228519)
(-4.76904e-19 4.94106e-19 -0.00228514)
(-4.38137e-19 5.57551e-19 -0.00228508)
(-6.38957e-19 8.17979e-19 -0.00228501)
(-4.53665e-19 1.14842e-18 -0.00228493)
(-9.42854e-19 1.22264e-18 -0.00228484)
(-9.15046e-20 2.57199e-20 -0.00228258)
(-2.11275e-19 -1.86439e-20 -0.0022827)
(-1.85263e-19 -1.41738e-19 -0.00228282)
(-1.69109e-19 -1.54024e-19 -0.00228295)
(-1.95615e-19 -1.10959e-19 -0.00228309)
(-1.72061e-19 -3.6896e-20 -0.00228323)
(-6.16324e-20 -1.55855e-20 -0.00228337)
(-1.37488e-20 1.08228e-20 -0.00228351)
(-1.05968e-19 5.76005e-20 -0.00228365)
(-6.26335e-20 1.74328e-19 -0.00228379)
(-1.60648e-19 2.53493e-20 -0.00228393)
(-2.47911e-19 1.04554e-19 -0.00228406)
(-6.66737e-20 1.61322e-19 -0.00228419)
(-6.27517e-20 7.95334e-20 -0.00228431)
(-5.63273e-20 1.34382e-19 -0.00228442)
(-1.08189e-19 1.2053e-19 -0.00228453)
(-2.07623e-19 2.45114e-19 -0.00228462)
(-1.91129e-19 2.88681e-19 -0.00228471)
(-5.46225e-20 1.74593e-19 -0.00228479)
(-9.05108e-20 1.67087e-19 -0.00228486)
(-2.52884e-19 1.50158e-19 -0.00228492)
(-1.3688e-19 7.65303e-20 -0.00228496)
(-1.8399e-20 1.28859e-19 -0.002285)
(-8.95564e-23 1.30817e-19 -0.00228502)
(-9.5721e-20 1.62683e-19 -0.00228503)
(-2.71936e-19 1.91787e-19 -0.00228503)
(-3.69812e-19 2.19562e-19 -0.00228502)
(-3.3363e-19 3.58678e-19 -0.002285)
(-4.12856e-19 3.60039e-19 -0.00228496)
(-4.44448e-19 5.40853e-19 -0.00228491)
(-3.85324e-19 5.66164e-19 -0.00228486)
(-5.39086e-19 8.54198e-19 -0.00228479)
(-4.33844e-19 1.06707e-18 -0.00228471)
(-7.66754e-19 1.14628e-18 -0.00228461)
(-7.89882e-20 9.5612e-21 -0.00228236)
(-2.0097e-19 -7.66967e-20 -0.00228248)
(-1.75926e-19 -1.51486e-19 -0.0022826)
(-2.05876e-19 -7.81182e-20 -0.00228273)
(-2.27161e-19 -4.11883e-20 -0.00228287)
(-1.80774e-19 -2.15778e-20 -0.00228301)
(-1.19565e-19 4.97785e-20 -0.00228315)
(-2.16251e-21 7.75038e-21 -0.00228329)
(-9.23314e-20 1.01258e-19 -0.00228343)
(-5.003e-20 1.12459e-19 -0.00228357)
(-1.23564e-19 -4.31722e-20 -0.00228371)
(-2.33634e-19 1.388e-19 -0.00228384)
(-9.94975e-20 1.5426e-19 -0.00228397)
(-7.864e-20 6.18527e-20 -0.00228409)
(-5.00655e-20 1.253e-19 -0.0022842)
(-5.92208e-20 4.30831e-20 -0.00228431)
(-1.6053e-19 1.99506e-19 -0.0022844)
(-2.02324e-19 2.26594e-19 -0.00228449)
(-6.59381e-20 1.08181e-19 -0.00228457)
(-9.67296e-20 1.94001e-19 -0.00228463)
(-2.71836e-19 1.13429e-19 -0.00228469)
(-1.44724e-19 1.13988e-19 -0.00228474)
(-1.27884e-20 1.38172e-19 -0.00228477)
(9.09073e-23 1.06053e-19 -0.0022848)
(-8.21679e-20 5.08338e-20 -0.00228481)
(-2.62695e-19 1.85741e-19 -0.00228481)
(-3.38863e-19 2.19133e-19 -0.0022848)
(-3.16901e-19 4.19632e-19 -0.00228477)
(-4.04573e-19 2.99503e-19 -0.00228474)
(-4.11961e-19 5.70967e-19 -0.00228469)
(-3.48636e-19 5.68343e-19 -0.00228463)
(-4.78596e-19 8.36115e-19 -0.00228456)
(-4.24276e-19 1.00936e-18 -0.00228448)
(-6.31706e-19 1.09053e-18 -0.00228439)
(1.78817e-19 1.75441e-18 -0.00228429)
(-5.46582e-20 -2.22952e-20 -0.00228214)
(-1.961e-19 -8.87068e-20 -0.00228225)
(-1.91128e-19 -1.38877e-19 -0.00228238)
(-1.81534e-19 -6.24116e-20 -0.00228251)
(-2.25974e-19 -4.63302e-20 -0.00228265)
(-1.63831e-19 -5.14284e-20 -0.00228278)
(-1.55683e-19 1.08974e-19 -0.00228293)
(7.21568e-21 -1.52011e-20 -0.00228307)
(-8.10522e-20 9.40978e-20 -0.00228321)
(-6.61145e-20 5.89245e-20 -0.00228335)
(-1.03984e-19 -5.11755e-20 -0.00228349)
(-1.99408e-19 1.19882e-19 -0.00228362)
(-1.05496e-19 1.06388e-19 -0.00228375)
(-9.06972e-20 8.28979e-20 -0.00228387)
(-6.09747e-20 1.04034e-19 -0.00228398)
(-4.21648e-20 2.56845e-21 -0.00228408)
(-1.03888e-19 1.07759e-19 -0.00228418)
(-2.06358e-19 1.30683e-19 -0.00228427)
(-7.03666e-20 1.2371e-19 -0.00228434)
(-9.0552e-20 2.14794e-19 -0.00228441)
(-2.82031e-19 9.86217e-20 -0.00228447)
(-1.58565e-19 2.45183e-19 -0.00228451)
(-3.10781e-20 1.58033e-19 -0.00228455)
(-3.37231e-20 8.0741e-20 -0.00228457)
(-7.21976e-20 -7.85632e-20 -0.00228458)
(-2.28489e-19 1.20785e-19 -0.00228458)
(-3.06875e-19 1.89744e-19 -0.00228457)
(-3.28421e-19 3.24062e-19 -0.00228455)
(-3.9811e-19 2.015e-19 -0.00228451)
(-3.70693e-19 5.3899e-19 -0.00228447)
(-3.24273e-19 5.4403e-19 -0.00228441)
(-4.34788e-19 7.52628e-19 -0.00228434)
(-4.13412e-19 9.73002e-19 -0.00228426)
(-5.24512e-19 1.04327e-18 -0.00228416)
(1.49733e-19 1.63221e-18 -0.00228406)
(-5.13682e-20 -4.34347e-20 -0.00228191)
(-1.72175e-19 -1.279e-19 -0.00228203)
(-1.88677e-19 -1.32532e-19 -0.00228215)
(-1.84868e-19 -6.24667e-20 -0.00228229)
(-1.93142e-19 -1.17639e-19 -0.00228242)
(-1.26799e-19 -6.83475e-20 -0.00228256)
(-1.45191e-19 4.42837e-20 -0.0022827)
(1.24091e-21 -4.451e-20 -0.00228285)
(-2.56714e-20 2.40501e-20 -0.00228299)
(-7.03046e-20 3.69772e-20 -0.00228313)
(-8.34642e-20 -6.34624e-20 -0.00228326)
(-1.75024e-19 9.2929e-20 -0.0022834)
(-1.0118e-19 4.60596e-20 -0.00228352)
(-1.01841e-19 8.67613e-20 -0.00228364)
(-7.32624e-20 8.17021e-20 -0.00228376)
(-3.95095e-20 -1.04284e-20 -0.00228386)
(-6.83719e-20 2.5888e-20 -0.00228396)
(-1.73059e-19 5.22758e-20 -0.00228404)
(-6.23877e-20 1.89728e-19 -0.00228412)
(-1.01321e-19 2.00897e-19 -0.00228419)
(-2.6813e-19 1.09953e-19 -0.00228425)
(-1.63274e-19 3.73489e-19 -0.00228429)
(-8.14885e-20 1.71944e-19 -0.00228433)
(-8.76469e-20 5.66259e-20 -0.00228435)
(-7.56717e-20 -9.16331e-20 -0.00228436)
(-1.86818e-19 6.99521e-20 -0.00228436)
(-2.92351e-19 1.64213e-19 -0.00228435)
(-3.50352e-19 2.15283e-19 -0.00228433)
(-3.699e-19 1.39678e-19 -0.00228429)
(-3.2948e-19 4.49396e-19 -0.00228424)
(-3.17616e-19 4.90383e-19 -0.00228418)
(-4.07038e-19 6.08993e-19 -0.00228411)
(-3.89558e-19 9.24231e-19 -0.00228403)
(-4.26389e-19 9.99817e-19 -0.00228394)
(9.10556e-20 1.42778e-18 -0.00228383)
(-5.76333e-20 -3.78539e-20 -0.00228168)
(-1.79302e-19 -1.08501e-19 -0.0022818)
(-1.8234e-19 -1.27943e-19 -0.00228193)
(-1.76025e-19 -7.41514e-20 -0.00228206)
(-2.17302e-19 -1.02821e-19 -0.0022822)
(-1.04316e-19 -9.5098e-20 -0.00228234)
(-1.11658e-19 -2.69045e-20 -0.00228248)
(-3.55041e-20 1.14659e-20 -0.00228262)
(-1.80155e-20 2.78124e-20 -0.00228276)
(-8.49003e-20 4.56414e-20 -0.0022829)
(-6.94401e-20 -7.11442e-20 -0.00228304)
(-1.54887e-19 7.23841e-20 -0.00228317)
(-1.11563e-19 5.87643e-20 -0.0022833)
(-1.01872e-19 1.18575e-19 -0.00228342)
(-1.04871e-19 1.19104e-19 -0.00228353)
(-6.45091e-20 2.14956e-20 -0.00228364)
(-6.95358e-20 8.46388e-20 -0.00228373)
(-1.38837e-19 3.53714e-20 -0.00228382)
(-3.95687e-20 1.9567e-19 -0.0022839)
(-1.0463e-19 1.57996e-19 -0.00228397)
(-2.32182e-19 1.11059e-19 -0.00228402)
(-1.59696e-19 3.3257e-19 -0.00228407)
(-1.49097e-19 1.58945e-19 -0.0022841)
(-1.32625e-19 4.91255e-20 -0.00228412)
(-7.76064e-20 -5.03245e-20 -0.00228414)
(-1.56492e-19 8.37474e-20 -0.00228414)
(-2.81541e-19 1.71215e-19 -0.00228412)
(-3.69475e-19 2.14426e-19 -0.0022841)
(-3.47067e-19 1.42742e-19 -0.00228407)
(-2.95598e-19 3.46759e-19 -0.00228402)
(-3.17528e-19 4.37944e-19 -0.00228396)
(-3.68175e-19 5.0337e-19 -0.00228389)
(-3.48077e-19 8.57647e-19 -0.00228381)
(-3.81793e-19 9.44887e-19 -0.00228371)
(-7.89856e-20 3.07036e-23 -0.00228146)
(-2.17109e-19 -5.99741e-20 -0.00228157)
(-1.77787e-19 -1.47575e-19 -0.0022817)
(-1.72493e-19 -6.8087e-20 -0.00228183)
(-2.38818e-19 -8.96053e-20 -0.00228197)
(-1.01829e-19 -1.18821e-19 -0.00228211)
(-8.26393e-20 -4.97496e-20 -0.00228225)
(-6.39534e-20 9.13287e-20 -0.0022824)
(-1.11337e-20 2.47475e-20 -0.00228254)
(-1.097e-19 6.69406e-20 -0.00228268)
(-9.883e-20 9.95104e-21 -0.00228282)
(-1.34861e-19 8.27634e-20 -0.00228295)
(-1.184e-19 9.55347e-20 -0.00228308)
(-1.05844e-19 1.38187e-19 -0.0022832)
(-1.21976e-19 1.2969e-19 -0.00228331)
(-7.43555e-20 7.39299e-20 -0.00228341)
(-8.69398e-20 1.50537e-19 -0.00228351)
(-1.40083e-19 4.42095e-20 -0.0022836)
(-2.13965e-20 1.65608e-19 -0.00228367)
(-1.00628e-19 3.59513e-20 -0.00228374)
(-2.09738e-19 5.46284e-20 -0.0022838)
(-1.42317e-19 1.89975e-19 -0.00228384)
(-1.8418e-19 1.29624e-19 -0.00228388)
(-1.70509e-19 6.61057e-20 -0.0022839)
(-7.42732e-20 2.38578e-20 -0.00228391)
(-1.25053e-19 9.53077e-20 -0.00228391)
(-2.71055e-19 1.92896e-19 -0.0022839)
(-3.85071e-19 2.27823e-19 -0.00228388)
(-3.42893e-19 1.73514e-19 -0.00228384)
(-2.70095e-19 2.89212e-19 -0.00228379)
(-3.08872e-19 4.04796e-19 -0.00228373)
(-3.2752e-19 4.687e-19 -0.00228366)
(-3.22907e-19 7.41832e-19 -0.00228358)
(-3.61544e-19 8.40157e-19 -0.00228348)
(-7.30292e-20 1.50446e-20 -0.00228123)
(-2.13827e-19 -9.1378e-20 -0.00228135)
(-1.74891e-19 -1.7288e-19 -0.00228147)
(-1.82302e-19 -2.32761e-20 -0.00228161)
(-2.61844e-19 -9.12641e-20 -0.00228174)
(-1.19053e-19 -1.09904e-19 -0.00228188)
(-3.9031e-20 -6.31551e-20 -0.00228203)
(-8.0356e-20 1.25145e-19 -0.00228217)
(-6.54547e-21 -7.95602e-21 -0.00228231)
(-9.79209e-20 8.83024e-20 -0.00228245)
(-1.26047e-19 8.34483e-20 -0.00228259)
(-1.37684e-19 7.91169e-20 -0.00228272)
(-1.22622e-19 1.08495e-19 -0.00228285)
(-8.03965e-20 6.23777e-20 -0.00228297)
(-1.16797e-19 7.47445e-20 -0.00228308)
(-6.57975e-20 3.95246e-20 -0.00228319)
(-8.92466e-20 1.44144e-19 -0.00228328)
(-1.43317e-19 4.83388e-20 -0.00228337)
(-3.50026e-20 1.37045e-19 -0.00228345)
(-1.02938e-19 -6.40589e-20 -0.00228352)
(-1.78466e-19 3.06419e-20 -0.00228357)
(-1.23687e-19 1.03397e-19 -0.00228362)
(-1.96421e-19 1.08435e-19 -0.00228365)
(-1.82721e-19 9.41606e-20 -0.00228367)
(-7.7389e-20 1.01199e-19 -0.00228369)
(-1.11331e-19 7.87469e-20 -0.00228369)
(-2.59535e-19 2.1735e-19 -0.00228367)
(-4.03897e-19 1.84354e-19 -0.00228365)
(-3.3914e-19 2.03041e-19 -0.00228361)
(-2.48182e-19 2.60455e-19 -0.00228357)
(-2.96596e-19 3.8043e-19 -0.00228351)
(-3.00727e-19 4.61546e-19 -0.00228343)
(-3.1968e-19 6.21912e-19 -0.00228335)
(-3.44426e-19 7.61006e-19 -0.00228325)
(-8.66633e-20 1.00355e-20 -0.00228099)
(-1.70464e-19 -1.7955e-19 -0.00228111)
(-2.17299e-19 -8.21643e-20 -0.00228124)
(-1.99889e-19 3.61192e-20 -0.00228138)
(-2.57139e-19 -1.3682e-19 -0.00228151)
(-1.64101e-19 -7.40174e-20 -0.00228166)
(-7.80192e-21 -7.43423e-20 -0.0022818)
(-5.9579e-20 1.02073e-19 -0.00228194)
(-2.85781e-20 3.49269e-20 -0.00228209)
(-8.87979e-20 1.15229e-19 -0.00228223)
(-1.2841e-19 7.77796e-20 -0.00228236)
(-1.33628e-19 7.22125e-20 -0.0022825)
(-1.49113e-19 1.26296e-19 -0.00228262)
(-7.90196e-20 -7.60157e-21 -0.00228274)
(-1.09826e-19 5.13899e-20 -0.00228286)
(-3.75982e-20 -2.28256e-21 -0.00228296)
(-7.37588e-20 1.16146e-19 -0.00228306)
(-1.50227e-19 5.48653e-20 -0.00228314)
(-4.90079e-20 1.07033e-19 -0.00228322)
(-1.17062e-19 -4.56674e-20 -0.00228329)
(-1.70805e-19 1.37675e-19 -0.00228335)
(-1.14205e-19 8.47024e-20 -0.00228339)
(-1.94067e-19 9.88927e-20 -0.00228343)
(-1.87895e-19 1.11255e-19 -0.00228345)
(-8.71183e-20 1.38872e-19 -0.00228346)
(-9.72022e-20 4.83025e-20 -0.00228346)
(-2.58204e-19 2.34016e-19 -0.00228345)
(-4.21861e-19 1.33723e-19 -0.00228342)
(-3.30694e-19 2.0628e-19 -0.00228339)
(-2.39895e-19 1.95296e-19 -0.00228334)
(-2.82247e-19 3.36951e-19 -0.00228328)
(-2.87494e-19 4.59218e-19 -0.0022832)
(-3.01136e-19 6.1263e-19 -0.00228311)
(-3.15586e-19 6.87425e-19 -0.00228302)
(-1.00213e-19 -2.55218e-21 -0.00228076)
(-1.42968e-19 -1.98794e-19 -0.00228088)
(-2.71421e-19 6.38191e-20 -0.00228101)
(-1.94662e-19 -2.20252e-20 -0.00228114)
(-2.64852e-19 -1.62396e-19 -0.00228128)
(-2.08464e-19 -5.5459e-21 -0.00228143)
(-5.01908e-20 2.39715e-20 -0.00228157)
(-2.41446e-20 7.92091e-20 -0.00228171)
(-4.17072e-20 7.98091e-20 -0.00228186)
(-9.24807e-20 1.28403e-19 -0.002282)
(-1.24728e-19 4.50687e-20 -0.00228213)
(-1.21187e-19 5.43763e-20 -0.00228227)
(-1.71189e-19 1.36929e-19 -0.00228239)
(-9.84108e-20 1.36109e-20 -0.00228252)
(-1.07212e-19 2.99078e-20 -0.00228263)
(-4.88133e-20 3.6524e-20 -0.00228273)
(-4.5679e-20 5.00061e-20 -0.00228283)
(-1.55516e-19 7.67604e-20 -0.00228292)
(-5.15167e-20 4.69251e-20 -0.00228299)
(-9.49791e-20 -8.81947e-21 -0.00228306)
(-1.63911e-19 2.14058e-19 -0.00228312)
(-1.39585e-19 9.66968e-20 -0.00228316)
(-1.94176e-19 8.92462e-20 -0.0022832)
(-1.82802e-19 1.03545e-19 -0.00228322)
(-1.03947e-19 1.6458e-19 -0.00228323)
(-9.02555e-20 2.00901e-20 -0.00228323)
(-2.58391e-19 1.2908e-19 -0.00228322)