/*--------------------------------*- C++ -*----------------------------------*\
  =========                 |
  \\      /  F ield         | OpenFOAM: The Open Source CFD Toolbox
   \\    /   O peration     | Website:  https://openfoam.org
    \\  /    A nd           | Version:  7
     \\/     M anipulation  |
\*---------------------------------------------------------------------------*/
FoamFile
{
    version     2.0;
    format      ascii;
    class       volScalarField;
    location    "120000";
    object      strainRate;
}
// * * * * * * * * * * * * * * * * * * * * * * * * * * * * * * * * * * * * * //

dimensions      [0 0 -1 0 0 0 0];

internalField   nonuniform List<scalar> 
4814
(
0.082707
0.0823331
0.0819964
0.0816975
0.094955
0.0940255
0.0931488
0.0923083
0.091504
0.0907365
0.0900063
0.0893133
0.0886577
0.0880392
0.0874587
0.0869163
0.0864124
0.0859469
0.0855199
0.0851321
0.0847829
0.0844728
0.0842015
0.0839689
0.0837749
0.0836199
0.0835034
0.0834258
0.0833869
0.0833868
0.0834257
0.0835033
0.0836193
0.0837746
0.0839683
0.0842007
0.084472
0.0847822
0.0982722
0.0973083
0.0963987
0.0955267
0.0946923
0.093896
0.0931383
0.0924192
0.0917389
0.0910972
0.0904949
0.0899319
0.0894089
0.0889259
0.0884827
0.0880803
0.0877179
0.0873961
0.0871145
0.086873
0.0866718
0.0865109
0.08639
0.0863094
0.086269
0.0862689
0.0863093
0.0863898
0.0865102
0.0866714
0.0868726
0.0871137
0.0873953
0.0877172
0.0880796
0.0884821
0.088925
0.0894082
0.0899314
0.0904946
0.0910974
0.101768
0.100768
0.0998242
0.0989192
0.0980532
0.0972266
0.09644
0.0956935
0.0949872
0.0943211
0.0936957
0.0931112
0.0925681
0.0920666
0.0916065
0.0911885
0.0908124
0.0904782
0.0901857
0.089935
0.0897261
0.0895588
0.0894333
0.0893497
0.0893077
0.0893076
0.0893496
0.0894331
0.0895581
0.0897257
0.0899346
0.090185
0.0904773
0.0908116
0.0911878
0.0916058
0.0920656
0.0925674
0.0931106
0.0936953
0.0943213
0.0949879
0.0956944
0.0964407
0.105456
0.104418
0.103438
0.102498
0.101599
0.100741
0.0999237
0.0991483
0.0984148
0.0977229
0.0970734
0.0964662
0.0959019
0.095381
0.094903
0.0944687
0.094078
0.0937307
0.0934268
0.0931663
0.0929493
0.0927755
0.092645
0.0925582
0.0925146
0.0925145
0.0925581
0.0926449
0.0927748
0.0929489
0.0931661
0.0934263
0.0937299
0.0940772
0.094468
0.0949022
0.0953799
0.0959011
0.0964654
0.0970729
0.0977232
0.0984156
0.0991493
0.0999244
0.10935
0.108272
0.107254
0.106278
0.105344
0.104452
0.103603
0.102797
0.102035
0.101316
0.100641
0.10001
0.0994232
0.098882
0.0983851
0.0979336
0.0975275
0.0971664
0.0968505
0.0965798
0.0963543
0.0961735
0.0960379
0.0959476
0.0959023
0.0959022
0.0959475
0.0960377
0.0961728
0.0963539
0.0965796
0.0968502
0.0971658
0.0975267
0.0979329
0.0983842
0.0988807
0.0994225
0.100009
0.10064
0.101316
0.102036
0.102798
0.103604
0.113464
0.112345
0.111286
0.110272
0.109301
0.108374
0.107492
0.106654
0.105862
0.105114
0.104412
0.103756
0.103146
0.102584
0.102067
0.101597
0.101175
0.100799
0.100471
0.100189
0.0999547
0.0997666
0.0996256
0.0995317
0.0994847
0.0994845
0.0995315
0.0996254
0.099766
0.0999543
0.100189
0.100471
0.100799
0.101174
0.101596
0.102066
0.102582
0.103146
0.103755
0.104412
0.105115
0.105863
0.106655
0.107493
0.117815
0.116652
0.115552
0.114497
0.113488
0.112524
0.111606
0.110735
0.109911
0.109134
0.108404
0.107721
0.107086
0.106501
0.105963
0.105475
0.105035
0.104644
0.104303
0.10401
0.103766
0.10357
0.103423
0.103325
0.103277
0.103276
0.103325
0.103423
0.103569
0.103765
0.10401
0.104303
0.104644
0.105035
0.105474
0.105962
0.106499
0.107086
0.10772
0.108403
0.109134
0.109912
0.110736
0.111607
0.112524
0.12242
0.121211
0.120067
0.11897
0.117921
0.116918
0.115964
0.115057
0.1142
0.113391
0.112631
0.111921
0.11126
0.110651
0.110091
0.109583
0.109125
0.108718
0.108362
0.108057
0.107803
0.1076
0.107447
0.107345
0.107294
0.107294
0.107345
0.107447
0.107599
0.107803
0.108057
0.108362
0.108718
0.109124
0.109582
0.11009
0.110649
0.111259
0.11192
0.11263
0.113391
0.114201
0.115058
0.115964
0.116919
0.127298
0.126041
0.124851
0.12371
0.122618
0.121575
0.120582
0.119639
0.118746
0.117904
0.117113
0.116373
0.115686
0.115051
0.114469
0.113939
0.113463
0.113039
0.112668
0.11235
0.112086
0.111874
0.111715
0.111609
0.111556
0.111556
0.111608
0.111714
0.111873
0.112085
0.11235
0.112668
0.113038
0.113462
0.113938
0.114468
0.11505
0.115685
0.116372
0.117112
0.117904
0.118747
0.11964
0.120583
0.121576
0.132469
0.131161
0.129924
0.128737
0.127601
0.126515
0.125481
0.124499
0.12357
0.122693
0.121869
0.121099
0.120383
0.119722
0.119115
0.118563
0.118067
0.117625
0.117239
0.116908
0.116632
0.116411
0.116245
0.116135
0.11608
0.11608
0.116135
0.116245
0.116411
0.116632
0.116908
0.117239
0.117625
0.118066
0.118562
0.119114
0.11972
0.120382
0.121098
0.121869
0.122693
0.123571
0.1245
0.125482
0.126516
0.137954
0.136595
0.135307
0.134072
0.13289
0.131759
0.130683
0.12966
0.128693
0.127779
0.126921
0.126118
0.125372
0.124684
0.124052
0.123476
0.122959
0.122498
0.122096
0.121751
0.121464
0.121233
0.121061
0.120946
0.120888
0.120888
0.120945
0.12106
0.121233
0.121463
0.121751
0.122096
0.122498
0.122958
0.123475
0.12405
0.124682
0.125371
0.126117
0.12692
0.127779
0.128693
0.129661
0.130683
0.143778
0.142364
0.141024
0.139739
0.138508
0.137331
0.13621
0.135145
0.134137
0.133186
0.132291
0.131455
0.130678
0.12996
0.129301
0.128701
0.128162
0.127682
0.127262
0.126902
0.126603
0.126363
0.126183
0.126063
0.126003
0.126003
0.126062
0.126182
0.126362
0.126603
0.126903
0.127263
0.127682
0.128161
0.1287
0.1293
0.129958
0.130677
0.131454
0.132291
0.133185
0.134138
0.135146
0.136211
0.149964
0.148493
0.147099
0.145762
0.144481
0.143256
0.142088
0.140979
0.139929
0.138937
0.138005
0.137134
0.136324
0.135575
0.134889
0.134263
0.133701
0.1332
0.132762
0.132387
0.132075
0.131825
0.131637
0.131511
0.131449
0.131449
0.131511
0.131636
0.131824
0.132075
0.132388
0.132763
0.1332
0.1337
0.134262
0.134887
0.135574
0.136323
0.137133
0.138005
0.138937
0.139929
0.14098
0.142089
0.15654
0.15501
0.15356
0.152168
0.150835
0.14956
0.148344
0.147189
0.146095
0.145061
0.14409
0.143182
0.142337
0.141557
0.140841
0.140189
0.139602
0.13908
0.138623
0.138232
0.137906
0.137645
0.137449
0.137318
0.137253
0.137253
0.137318
0.137448
0.137645
0.137906
0.138233
0.138624
0.13908
0.139601
0.140188
0.14084
0.141555
0.142336
0.143181
0.144089
0.145061
0.146095
0.147189
0.148345
0.163532
0.161942
0.160434
0.158986
0.157599
0.156272
0.155005
0.153802
0.152662
0.151586
0.150574
0.149627
0.148746
0.147933
0.147187
0.146507
0.145895
0.145351
0.144874
0.144466
0.144126
0.143854
0.143649
0.143513
0.143445
0.143444
0.143512
0.143648
0.143853
0.144126
0.144466
0.144875
0.145351
0.145894
0.146506
0.147185
0.147932
0.148746
0.149626
0.150573
0.151585
0.152663
0.153803
0.155006
0.170971
0.169319
0.167751
0.166246
0.164803
0.163421
0.162103
0.16085
0.159663
0.158542
0.157487
0.156501
0.155583
0.154735
0.153957
0.153248
0.15261
0.152042
0.151546
0.15112
0.150765
0.150481
0.150268
0.150125
0.150054
0.150054
0.150125
0.150267
0.150481
0.150765
0.15112
0.151546
0.152043
0.15261
0.153247
0.153956
0.154734
0.155582
0.1565
0.157486
0.158541
0.159663
0.16085
0.162104
0.178887
0.177171
0.175542
0.173978
0.172477
0.171041
0.169669
0.168365
0.167129
0.165961
0.164863
0.163836
0.16288
0.161996
0.161185
0.160446
0.159781
0.159189
0.158671
0.158227
0.157856
0.15756
0.157338
0.157189
0.157115
0.157115
0.157189
0.157337
0.15756
0.157856
0.158227
0.158672
0.159189
0.15978
0.160445
0.161184
0.161995
0.162879
0.163835
0.164862
0.165961
0.167129
0.168365
0.169669
0.187311
0.185531
0.18384
0.182215
0.180656
0.179163
0.177737
0.17638
0.175095
0.173879
0.172736
0.171666
0.170671
0.16975
0.168905
0.168135
0.167442
0.166825
0.166285
0.165822
0.165436
0.165127
0.164895
0.164741
0.164663
0.164663
0.16474
0.164895
0.165127
0.165436
0.165823
0.166286
0.166826
0.167442
0.168135
0.168904
0.169749
0.17067
0.171665
0.172735
0.173878
0.175095
0.17638
0.177737
0.196275
0.194431
0.192677
0.190991
0.189372
0.187822
0.186341
0.184931
0.183595
0.18233
0.181141
0.180028
0.178992
0.178034
0.177155
0.176353
0.175631
0.174988
0.174426
0.173943
0.173541
0.173219
0.172977
0.172816
0.172735
0.172735
0.172815
0.172977
0.173219
0.173541
0.173944
0.174426
0.174989
0.175631
0.176352
0.177153
0.178033
0.178991
0.180027
0.18114
0.182329
0.183594
0.184931
0.186341
0.205811
0.203902
0.202086
0.200339
0.198661
0.197053
0.195516
0.194052
0.192665
0.191352
0.190116
0.188959
0.187882
0.186886
0.185971
0.185137
0.184385
0.183717
0.183131
0.182629
0.18221
0.181875
0.181623
0.181455
0.181371
0.181371
0.181455
0.181623
0.181875
0.18221
0.182629
0.183132
0.183717
0.184385
0.185136
0.185969
0.186885
0.187881
0.188958
0.190115
0.19135
0.192665
0.194052
0.195516
0.215949
0.213978
0.212101
0.210293
0.208556
0.206891
0.205298
0.203781
0.202342
0.20098
0.199698
0.198497
0.197379
0.196343
0.195393
0.194526
0.193745
0.19305
0.192441
0.191919
0.191483
0.191135
0.190873
0.190698
0.190611
0.190611
0.190698
0.190873
0.191135
0.191483
0.191919
0.192442
0.193051
0.193745
0.194526
0.195392
0.196343
0.197377
0.198496
0.199697
0.200979
0.202342
0.203781
0.205298
0.206891
0.22672
0.224688
0.222751
0.220885
0.219091
0.217369
0.215721
0.214152
0.212663
0.211252
0.209923
0.208679
0.207519
0.206446
0.20546
0.204561
0.20375
0.203029
0.202397
0.201854
0.201402
0.20104
0.200768
0.200587
0.200496
0.200495
0.200586
0.200768
0.20104
0.201402
0.201855
0.202397
0.20303
0.203751
0.204561
0.205459
0.206445
0.207518
0.208678
0.209922
0.21125
0.212662
0.214152
0.215721
0.217369
0.23815
0.23606
0.234066
0.232144
0.230295
0.228519
0.226819
0.225198
0.22366
0.222202
0.220828
0.219541
0.218342
0.217231
0.216211
0.21528
0.21444
0.213692
0.213037
0.212474
0.212005
0.21163
0.211349
0.21116
0.211066
0.211066
0.21116
0.211348
0.21163
0.212006
0.212475
0.213037
0.213693
0.21444
0.215279
0.216209
0.217231
0.218341
0.219541
0.220827
0.2222
0.223659
0.225198
0.226819
0.228518
0.250261
0.248118
0.246072
0.244098
0.242196
0.24037
0.23862
0.236951
0.235366
0.233863
0.232447
0.231119
0.229881
0.228734
0.22768
0.226718
0.22585
0.225078
0.2244
0.223818
0.223333
0.222945
0.222654
0.222459
0.222361
0.222361
0.222458
0.222653
0.222945
0.223333
0.223819
0.224401
0.225078
0.225851
0.226718
0.227679
0.228734
0.22988
0.231118
0.232446
0.233861
0.235366
0.236951
0.23862
0.240369
0.263084
0.26089
0.258795
0.256773
0.254824
0.25295
0.251153
0.249438
0.247809
0.246264
0.244808
0.243443
0.242169
0.240988
0.239902
0.238911
0.238017
0.23722
0.236521
0.235921
0.235421
0.23502
0.23472
0.234519
0.234418
0.234418
0.234518
0.234719
0.23502
0.235421
0.235922
0.236522
0.237221
0.238017
0.238911
0.239901
0.240987
0.242168
0.243442
0.244807
0.246263
0.247809
0.249438
0.251153
0.276705
0.274444
0.2723
0.270228
0.268229
0.266306
0.26446
0.262697
0.261021
0.259438
0.257945
0.256545
0.255238
0.254025
0.25291
0.251892
0.250972
0.250153
0.249435
0.248817
0.248303
0.24789
0.247581
0.247374
0.24727
0.24727
0.247373
0.24758
0.24789
0.248303
0.248818
0.249435
0.250154
0.250973
0.251892
0.252909
0.254025
0.255236
0.256544
0.257944
0.259436
0.261021
0.262697
0.26446
0.291484
0.289115
0.286878
0.284714
0.282625
0.280614
0.278683
0.276838
0.275084
0.273458
0.271928
0.270492
0.26915
0.267906
0.266761
0.265714
0.264769
0.263926
0.263187
0.262551
0.262022
0.261597
0.261279
0.261066
0.260958
0.260958
0.261065
0.261278
0.261597
0.262022
0.262552
0.263187
0.263927
0.264769
0.265714
0.26676
0.267905
0.269149
0.270491
0.271927
0.273457
0.275084
0.276838
0.278683
0.307747
0.305259
0.302889
0.300595
0.298379
0.296245
0.294196
0.292238
0.290375
0.288674
0.287076
0.285575
0.284172
0.28287
0.281672
0.280576
0.279587
0.278705
0.27793
0.277265
0.27671
0.276265
0.275931
0.275708
0.275596
0.275596
0.275708
0.275931
0.276265
0.27671
0.277266
0.277931
0.278705
0.279588
0.280577
0.281671
0.282869
0.284171
0.285574
0.287075
0.288673
0.290375
0.292238
0.294196
0.325242
0.322693
0.320243
0.317868
0.315571
0.313359
0.311233
0.309199
0.307263
0.305462
0.303767
0.302174
0.300685
0.299303
0.298031
0.296868
0.295817
0.29488
0.294058
0.293351
0.292762
0.292289
0.291934
0.291697
0.291578
0.291578
0.291697
0.291934
0.292289
0.292762
0.293352
0.294059
0.294881
0.295818
0.296868
0.29803
0.299303
0.300684
0.302173
0.303766
0.305461
0.307263
0.309199
0.311232
0.343597
0.341047
0.338588
0.3362
0.333888
0.331656
0.329509
0.327452
0.325491
0.323635
0.321881
0.320232
0.31869
0.317258
0.315939
0.314733
0.313643
0.31267
0.311816
0.311082
0.31047
0.309978
0.30961
0.309363
0.30924
0.30924
0.309363
0.309609
0.309979
0.31047
0.311083
0.311817
0.312671
0.313644
0.314734
0.315939
0.317258
0.31869
0.320232
0.32188
0.323634
0.325491
0.327452
0.329508
0.362601
0.360091
0.357664
0.355302
0.35301
0.350794
0.348659
0.34661
0.344654
0.342795
0.341037
0.339383
0.337834
0.336393
0.335065
0.33385
0.33275
0.331769
0.330907
0.330166
0.329546
0.32905
0.328677
0.328428
0.328303
0.328303
0.328428
0.328677
0.32905
0.329547
0.330166
0.330908
0.33177
0.332751
0.333851
0.335065
0.336393
0.337833
0.339382
0.341037
0.342795
0.344653
0.34661
0.348658
0.381964
0.379542
0.377193
0.374901
0.372672
0.370513
0.368428
0.366423
0.364506
0.36268
0.36095
0.359319
0.35779
0.356367
0.355053
0.353849
0.35276
0.351786
0.35093
0.350194
0.349578
0.349084
0.348713
0.348465
0.348341
0.348341
0.348465
0.348713
0.349085
0.349578
0.350194
0.350931
0.351787
0.352761
0.35385
0.355053
0.356367
0.35779
0.359319
0.360949
0.362679
0.364505
0.366423
0.368427
0.401296
0.399015
0.396796
0.394625
0.392507
0.390451
0.388461
0.386544
0.384706
0.382951
0.381286
0.379713
0.378236
0.376859
0.375587
0.37442
0.373362
0.372416
0.371583
0.370866
0.370267
0.369785
0.369424
0.369182
0.369061
0.369061
0.369182
0.369424
0.369786
0.370267
0.370867
0.371584
0.372417
0.373363
0.374421
0.375587
0.37686
0.378236
0.379713
0.381285
0.382951
0.384705
0.386543
0.38846
0.390449
0.420117
0.418032
0.415995
0.413997
0.412042
0.410138
0.408292
0.406509
0.404795
0.403155
0.401594
0.400117
0.398729
0.397432
0.396231
0.395129
0.394129
0.393233
0.392444
0.391763
0.391194
0.390737
0.390393
0.390163
0.390048
0.390049
0.390164
0.390394
0.390738
0.391195
0.391765
0.392445
0.393234
0.39413
0.39513
0.396232
0.397432
0.398729
0.400117
0.401594
0.403154
0.404794
0.406508
0.408291
0.410137
0.437894
0.436052
0.434246
0.432467
0.430722
0.429019
0.427362
0.425758
0.424212
0.422728
0.421312
0.41997
0.418706
0.417524
0.416427
0.415419
0.414502
0.413681
0.412956
0.412331
0.411807
0.411386
0.41107
0.410858
0.410753
0.410753
0.410859
0.411071
0.411388
0.411809
0.412332
0.412957
0.413682
0.414504
0.41542
0.416428
0.417525
0.418707
0.419971
0.421312
0.422727
0.424211
0.425756
0.42736
0.429017
0.454097
0.452533
0.450992
0.449469
0.447971
0.446503
0.445073
0.443685
0.442343
0.44105
0.439815
0.438641
0.437533
0.436495
0.43553
0.434643
0.433834
0.433109
0.432468
0.431915
0.431451
0.431078
0.430797
0.43061
0.430516
0.430517
0.430611
0.430799
0.43108
0.431453
0.431916
0.43247
0.43311
0.433836
0.434644
0.435532
0.436496
0.437534
0.438641
0.439815
0.44105
0.442342
0.443683
0.445071
0.446502
0.447969
0.468284
0.46701
0.46575
0.464499
0.463265
0.462054
0.460871
0.459719
0.458604
0.457524
0.456491
0.455507
0.454577
0.453704
0.452891
0.452143
0.45146
0.450846
0.450304
0.449835
0.449442
0.449125
0.448887
0.448727
0.448648
0.448648
0.448729
0.448888
0.449127
0.449443
0.449837
0.450305
0.450848
0.451462
0.452144
0.452893
0.453706
0.454578
0.455508
0.456491
0.457524
0.458602
0.459717
0.460869
0.462052
0.463264
0.480167
0.479175
0.478187
0.477203
0.47623
0.475273
0.474337
0.473424
0.472537
0.471675
0.470849
0.470061
0.469315
0.468614
0.46796
0.467357
0.466807
0.466312
0.465874
0.465495
0.465176
0.46492
0.464727
0.464598
0.464534
0.464534
0.464599
0.464729
0.464922
0.465178
0.465496
0.465875
0.466313
0.466809
0.467359
0.467962
0.468616
0.469316
0.470062
0.470849
0.471675
0.472535
0.473421
0.474335
0.475272
0.476229
0.477202
0.489668
0.488926
0.488182
0.487439
0.486703
0.485978
0.485267
0.484574
0.483899
0.48324
0.482607
0.482004
0.481432
0.480894
0.480391
0.479928
0.479505
0.479124
0.478786
0.478494
0.478248
0.478051
0.477902
0.477802
0.477753
0.477753
0.477804
0.477904
0.478053
0.478251
0.478496
0.478788
0.479125
0.479507
0.47993
0.480394
0.480896
0.481434
0.482005
0.482608
0.48324
0.483897
0.484571
0.485265
0.485976
0.486701
0.487437
0.496914
0.496378
0.495836
0.495292
0.494753
0.494222
0.493702
0.493194
0.492699
0.492213
0.491746
0.491301
0.490879
0.490482
0.490111
0.48977
0.489458
0.489177
0.488927
0.488712
0.48853
0.488384
0.488274
0.488201
0.488164
0.488165
0.488202
0.488276
0.488386
0.488533
0.488714
0.488929
0.489178
0.48946
0.489772
0.490115
0.490485
0.490881
0.491302
0.491747
0.492213
0.492697
0.493191
0.493699
0.49422
0.494751
0.49529
0.502199
0.501819
0.501431
0.50104
0.500652
0.50027
0.499897
0.499532
0.499178
0.498827
0.49849
0.498169
0.497866
0.49758
0.497314
0.497069
0.496846
0.496644
0.496465
0.49631
0.49618
0.496075
0.495996
0.495944
0.495919
0.495919
0.495946
0.495999
0.496078
0.496183
0.496312
0.496467
0.496645
0.496847
0.497071
0.497317
0.497583
0.497868
0.498171
0.498491
0.498827
0.499176
0.49953
0.499894
0.500268
0.50065
0.501038
0.50591
0.505641
0.505361
0.505077
0.504796
0.504519
0.504251
0.503989
0.503734
0.50348
0.503236
0.503005
0.502787
0.502582
0.502391
0.502216
0.502057
0.501913
0.501785
0.501676
0.501583
0.501508
0.501452
0.501415
0.501398
0.501398
0.501417
0.501455
0.501511
0.501586
0.501677
0.501787
0.501914
0.502059
0.502219
0.502394
0.502585
0.502789
0.503006
0.503237
0.50348
0.503732
0.503986
0.504248
0.504518
0.504793
0.505075
0.508453
0.508257
0.508047
0.507833
0.507622
0.507415
0.507215
0.50702
0.506831
0.506641
0.506458
0.506286
0.506124
0.505973
0.505832
0.505704
0.505587
0.505481
0.505388
0.505308
0.50524
0.505186
0.505145
0.505119
0.505106
0.505106
0.50512
0.505148
0.505188
0.505243
0.50531
0.50539
0.505483
0.505589
0.505706
0.505835
0.505976
0.506127
0.506287
0.506459
0.506641
0.506829
0.507017
0.507212
0.507413
0.50762
0.507831
0.508045
0.510196
0.510045
0.509878
0.509707
0.509538
0.509373
0.509214
0.50906
0.508911
0.50876
0.508615
0.508479
0.508351
0.508232
0.508122
0.508022
0.507931
0.50785
0.507777
0.507715
0.507663
0.507621
0.507589
0.507569
0.50756
0.50756
0.507571
0.507592
0.507623
0.507666
0.507717
0.507779
0.507851
0.507933
0.508025
0.508126
0.508235
0.508354
0.50848
0.508616
0.50876
0.508909
0.509057
0.509211
0.509371
0.509535
0.509705
0.509876
0.511433
0.511309
0.511166
0.51102
0.510875
0.510735
0.5106
0.51047
0.510343
0.510214
0.510091
0.509975
0.509868
0.509767
0.509674
0.509591
0.509515
0.509447
0.509386
0.509334
0.509291
0.509256
0.50923
0.509213
0.509205
0.509206
0.509215
0.509232
0.509258
0.509294
0.509336
0.509388
0.509448
0.509517
0.509593
0.509678
0.509771
0.50987
0.509977
0.510092
0.510214
0.510341
0.510467
0.510597
0.510733
0.510873
0.511018
0.511165
0.512377
0.51227
0.512142
0.512009
0.511879
0.511752
0.511631
0.511514
0.5114
0.511284
0.511173
0.511068
0.510971
0.510882
0.510798
0.510724
0.510656
0.510595
0.510541
0.510495
0.510456
0.510425
0.510402
0.510387
0.510381
0.510381
0.510389
0.510405
0.510428
0.510459
0.510497
0.510543
0.510597
0.510658
0.510726
0.510802
0.510885
0.510974
0.51107
0.511173
0.511284
0.511398
0.511511
0.511628
0.51175
0.511876
0.512007
0.51214
0.513169
0.513072
0.512953
0.51283
0.512708
0.512589
0.512476
0.512367
0.512262
0.512153
0.512049
0.511951
0.511861
0.511777
0.511699
0.51163
0.511567
0.511511
0.511461
0.511418
0.511382
0.511353
0.511331
0.511318
0.511312
0.511312
0.51132
0.511334
0.511355
0.511385
0.51142
0.511462
0.511512
0.511569
0.511633
0.511703
0.51178
0.511863
0.511953
0.512049
0.512153
0.512259
0.512364
0.512474
0.512587
0.512705
0.512828
0.512952
0.51389
0.513801
0.513689
0.513572
0.513456
0.513343
0.513236
0.513133
0.513033
0.512929
0.51283
0.512737
0.512651
0.512572
0.512498
0.512432
0.512373
0.512319
0.512272
0.512231
0.512197
0.51217
0.512149
0.512137
0.512131
0.512131
0.512138
0.512152
0.512172
0.5122
0.512233
0.512274
0.512321
0.512375
0.512435
0.512502
0.512575
0.512654
0.512739
0.512831
0.512929
0.51303
0.51313
0.513233
0.513341
0.513453
0.51357
0.513687
0.514579
0.514499
0.514391
0.51428
0.514169
0.514062
0.51396
0.513861
0.513766
0.513667
0.513572
0.513483
0.513401
0.513325
0.513255
0.513192
0.513135
0.513084
0.513039
0.513
0.512967
0.512942
0.512922
0.51291
0.512904
0.512905
0.512912
0.512925
0.512944
0.51297
0.513002
0.513041
0.513086
0.513137
0.513195
0.513259
0.513328
0.513404
0.513485
0.513573
0.513667
0.513764
0.513858
0.513957
0.51406
0.514167
0.514278
0.51439
0.515254
0.515181
0.515079
0.514972
0.514867
0.514765
0.514667
0.514573
0.514482
0.514387
0.514297
0.514212
0.514133
0.514061
0.513993
0.513934
0.513879
0.51383
0.513787
0.513751
0.513719
0.513694
0.513676
0.513664
0.513659
0.513659
0.513666
0.513679
0.513697
0.513722
0.513752
0.513789
0.513832
0.513881
0.513936
0.513997
0.514064
0.514136
0.514213
0.514297
0.514387
0.51448
0.514571
0.514665
0.514763
0.514865
0.51497
0.515077
0.0949548
0.098272
0.101768
0.105456
0.10935
0.113464
0.117815
0.12242
0.127298
0.132468
0.137954
0.143777
0.149964
0.156539
0.163532
0.17097
0.178886
0.18731
0.196274
0.20581
0.215949
0.22672
0.23815
0.250261
0.263084
0.276705
0.291484
0.307747
0.325242
0.343597
0.362602
0.381964
0.401296
0.420117
0.437894
0.454098
0.468284
0.480168
0.489668
0.496914
0.502199
0.50591
0.508454
0.510197
0.511433
0.512378
0.51317
0.51389
0.51458
0.515255
0.0940247
0.0973074
0.100767
0.104417
0.108271
0.112343
0.116651
0.12121
0.126039
0.13116
0.136593
0.142362
0.148492
0.155009
0.161941
0.169318
0.177171
0.18553
0.19443
0.203902
0.213978
0.224688
0.23606
0.248118
0.260889
0.274444
0.289115
0.305259
0.322693
0.341047
0.360091
0.379543
0.399016
0.418033
0.436053
0.452534
0.467012
0.479176
0.488927
0.496379
0.501821
0.505643
0.508259
0.510046
0.51131
0.512271
0.513074
0.513803
0.5145
0.515182
0.0931473
0.096397
0.0998225
0.103436
0.107252
0.111284
0.11555
0.120065
0.124849
0.129922
0.135305
0.141022
0.147098
0.153558
0.160433
0.16775
0.175541
0.183839
0.192676
0.202086
0.2121
0.222751
0.234066
0.246072
0.258796
0.272301
0.286879
0.30289
0.320244
0.338589
0.357665
0.377194
0.396797
0.415997
0.434247
0.450994
0.465751
0.478188
0.488184
0.495837
0.501433
0.505362
0.508049
0.509879
0.511168
0.512143
0.512955
0.513691
0.514393
0.515081
0.0923063
0.0955245
0.0989169
0.102496
0.106275
0.110269
0.114495
0.118968
0.123708
0.128735
0.13407
0.139737
0.14576
0.152167
0.158985
0.166245
0.173977
0.182214
0.190991
0.200339
0.210293
0.220885
0.232145
0.244098
0.256774
0.270229
0.284715
0.300596
0.317869
0.336201
0.355303
0.374903
0.394626
0.413998
0.432468
0.44947
0.464501
0.477205
0.487441
0.495294
0.501042
0.505079
0.507835
0.509708
0.511022
0.512011
0.512832
0.513573
0.514281
0.514974
0.0915024
0.0946906
0.0980513
0.101597
0.105341
0.109299
0.113486
0.117919
0.122616
0.127599
0.132888
0.138506
0.144479
0.150834
0.157597
0.164801
0.172476
0.180655
0.189372
0.198661
0.208556
0.219091
0.230295
0.242197
0.254825
0.26823
0.282626
0.298379
0.315572
0.333888
0.353011
0.372674
0.392508
0.412043
0.430724
0.447972
0.463267
0.476232
0.486704
0.494755
0.500653
0.504797
0.507624
0.509539
0.510877
0.51188
0.512709
0.513457
0.514171
0.514869
0.0907355
0.0938949
0.0972254
0.100739
0.10445
0.108373
0.112523
0.116917
0.121574
0.126514
0.131759
0.137331
0.143255
0.149559
0.15627
0.16342
0.171039
0.179162
0.187821
0.197052
0.20689
0.217368
0.228518
0.240369
0.252949
0.266305
0.280613
0.296245
0.313358
0.331656
0.350794
0.370513
0.390451
0.410139
0.429019
0.446504
0.462055
0.475275
0.485979
0.494223
0.500272
0.504521
0.507417
0.509375
0.510737
0.511754
0.512591
0.513345
0.514064
0.514767
0.0900054
0.0931375
0.0964392
0.0999231
0.103602
0.107491
0.111606
0.115963
0.120582
0.125481
0.130683
0.13621
0.142088
0.148343
0.155005
0.162102
0.169668
0.177736
0.186339
0.195515
0.205297
0.215721
0.226819
0.23862
0.251153
0.26446
0.278683
0.294196
0.311233
0.329509
0.348659
0.368428
0.388461
0.408292
0.427362
0.445074
0.460871
0.474337
0.485268
0.493703
0.499898
0.504252
0.507215
0.509215
0.510601
0.511632
0.512477
0.513237
0.513961
0.514668
0.0893126
0.0924187
0.0956931
0.0991481
0.102797
0.106654
0.110735
0.115058
0.119639
0.124499
0.129661
0.135145
0.140979
0.147188
0.153802
0.16085
0.168364
0.176379
0.18493
0.194051
0.20378
0.214151
0.225197
0.23695
0.249437
0.262696
0.276838
0.292238
0.309199
0.327452
0.34661
0.366423
0.386544
0.406509
0.425758
0.443685
0.45972
0.473424
0.484574
0.493195
0.499533
0.50399
0.507021
0.509061
0.510471
0.511515
0.512368
0.513134
0.513863
0.514575
0.0886571
0.0917385
0.094987
0.0984147
0.102035
0.105862
0.109911
0.1142
0.118746
0.12357
0.128693
0.134137
0.139929
0.146094
0.152662
0.159663
0.167129
0.175094
0.183593
0.192663
0.202341
0.212661
0.223658
0.235365
0.247808
0.26102
0.275083
0.290375
0.307262
0.325491
0.344653
0.364505
0.384706
0.404795
0.424213
0.442344
0.458605
0.472538
0.4839
0.492701
0.499179
0.503736
0.506833
0.508913
0.510345
0.511402
0.512263
0.513034
0.513768
0.514484
0.0880387
0.0910967
0.0943205
0.0977224
0.101315
0.105114
0.109133
0.11339
0.117903
0.122692
0.127778
0.133184
0.138936
0.14506
0.151584
0.15854
0.16596
0.173877
0.182328
0.19135
0.200978
0.211249
0.222199
0.23386
0.246262
0.259436
0.273456
0.288672
0.305461
0.323634
0.342795
0.362679
0.382951
0.403155
0.422729
0.441052
0.457526
0.471678
0.483243
0.492217
0.498831
0.503484
0.506644
0.508763
0.510218
0.511287
0.512156
0.512933
0.51367
0.514391
0.0874579
0.0904939
0.0936947
0.0970723
0.10064
0.104411
0.108402
0.11263
0.117112
0.121868
0.12692
0.13229
0.138004
0.144088
0.150572
0.157486
0.164862
0.172734
0.18114
0.190114
0.199696
0.209921
0.220827
0.232445
0.244807
0.257944
0.271927
0.287075
0.303766
0.321881
0.341037
0.36095
0.381286
0.401595
0.421313
0.439816
0.456493
0.470851
0.48261
0.491749
0.498493
0.50324
0.506462
0.508619
0.510095
0.511176
0.512052
0.512834
0.513575
0.5143
0.0869155
0.0899311
0.0931104
0.0964652
0.100009
0.103755
0.10772
0.11192
0.116372
0.121098
0.126117
0.131454
0.137133
0.143181
0.149626
0.1565
0.163835
0.171665
0.180027
0.188958
0.198496
0.208678
0.219541
0.231118
0.243442
0.256544
0.270491
0.285574
0.302173
0.320232
0.339382
0.359319
0.379713
0.400118
0.419971
0.438642
0.455508
0.470062
0.482006
0.491303
0.498172
0.503007
0.506289
0.508481
0.509978
0.511071
0.511954
0.51274
0.513486
0.514215
0.0864116
0.0894082
0.0925675
0.0959014
0.0994229
0.103146
0.107086
0.11126
0.115686
0.120383
0.125372
0.130677
0.136323
0.142337
0.148746
0.155583
0.162879
0.17067
0.178992
0.187882
0.197378
0.207519
0.218342
0.229881
0.242169
0.255238
0.269151
0.284172
0.300685
0.318691
0.337834
0.35779
0.378236
0.398729
0.418707
0.437534
0.454578
0.469316
0.481433
0.49088
0.497867
0.502788
0.506125
0.508352
0.509869
0.510973
0.511862
0.512653
0.513403
0.514135
0.0859465
0.0889256
0.0920663
0.0953806
0.0988815
0.102583
0.1065
0.11065
0.11505
0.119721
0.124683
0.129959
0.135575
0.141556
0.147933
0.154735
0.161996
0.16975
0.178034
0.186886
0.196344
0.206447
0.217232
0.228735
0.240989
0.254026
0.267907
0.282871
0.299304
0.317259
0.336394
0.356367
0.37686
0.397432
0.417524
0.436495
0.453704
0.468614
0.480894
0.490483
0.497581
0.502582
0.505973
0.508233
0.509768
0.510882
0.511778
0.512572
0.513326
0.514061
0.0855201
0.088483
0.0916068
0.0949033
0.0983853
0.102067
0.105963
0.110091
0.114469
0.119115
0.124051
0.129301
0.134888
0.14084
0.147186
0.153957
0.161185
0.168905
0.177154
0.185971
0.195393
0.20546
0.216211
0.22768
0.239902
0.25291
0.26676
0.281671
0.29803
0.315939
0.335065
0.355052
0.375587
0.396231
0.416427
0.435531
0.452892
0.46796
0.480392
0.490112
0.497315
0.502392
0.505833
0.508123
0.509675
0.510799
0.5117
0.512499
0.513256
0.513995
0.0851321
0.0880804
0.0911887
0.094469
0.097934
0.101598
0.105475
0.109583
0.113939
0.118564
0.123477
0.128702
0.134264
0.140189
0.146507
0.153249
0.160447
0.168136
0.176354
0.185138
0.194527
0.204562
0.21528
0.226719
0.238912
0.251893
0.265715
0.280577
0.296868
0.314734
0.33385
0.35385
0.37442
0.395129
0.415419
0.434642
0.452142
0.467357
0.479928
0.48977
0.497068
0.502215
0.505703
0.508021
0.50959
0.510723
0.511629
0.512432
0.513191
0.513933
0.0847829
0.0877179
0.0908123
0.0940779
0.0975274
0.101175
0.105035
0.109125
0.113462
0.118067
0.122959
0.128162
0.133701
0.139603
0.145895
0.152611
0.159782
0.167443
0.175632
0.184386
0.193746
0.203752
0.214441
0.225852
0.238018
0.250974
0.26477
0.279588
0.295818
0.313644
0.332751
0.35276
0.373363
0.394129
0.414503
0.433834
0.45146
0.466807
0.479505
0.489457
0.496844
0.502056
0.505586
0.50793
0.509514
0.510655
0.511566
0.512372
0.513134
0.513878
0.0844724
0.0873957
0.0904778
0.0937304
0.0971662
0.100799
0.104645
0.108718
0.113039
0.117625
0.122499
0.127682
0.133201
0.139081
0.145351
0.152043
0.15919
0.166826
0.174989
0.183717
0.193051
0.20303
0.213693
0.225078
0.237221
0.250154
0.263927
0.278705
0.294881
0.312671
0.33177
0.351787
0.372416
0.393233
0.413681
0.433109
0.450847
0.466312
0.479124
0.489177
0.496644
0.501913
0.505481
0.507849
0.509446
0.510595
0.51151
0.512319
0.513084
0.51383
0.0842008
0.0871138
0.090185
0.0934262
0.0968499
0.10047
0.104302
0.108362
0.112668
0.117238
0.122096
0.127262
0.132763
0.138624
0.144875
0.151546
0.158671
0.166286
0.174426
0.183132
0.192442
0.202397
0.213038
0.224401
0.236522
0.249435
0.263188
0.277931
0.294059
0.311817
0.330908
0.350931
0.371584
0.392445
0.412957
0.432469
0.450305
0.465874
0.478787
0.488928
0.496466
0.501786
0.505389
0.507778
0.509387
0.510542
0.511461
0.512273
0.51304
0.513788
0.0839681
0.0868723
0.0899342
0.0931655
0.096579
0.100188
0.104009
0.108057
0.11235
0.116907
0.121751
0.126902
0.132387
0.138232
0.144466
0.15112
0.158227
0.165822
0.173943
0.182629
0.191919
0.201854
0.212475
0.223819
0.235922
0.248818
0.262553
0.277266
0.293352
0.311083
0.330166
0.350194
0.370867
0.391764
0.412332
0.431916
0.449837
0.465496
0.478496
0.488713
0.496312
0.501677
0.505309
0.507717
0.509336
0.510497
0.511419
0.512233
0.513002
0.513752
0.0837742
0.086671
0.0897251
0.0929483
0.0963532
0.0999535
0.103764
0.107802
0.112085
0.116631
0.121462
0.126602
0.132074
0.137905