/*--------------------------------*- C++ -*----------------------------------*\
  =========                 |
  \\      /  F ield         | OpenFOAM: The Open Source CFD Toolbox
   \\    /   O peration     | Website:  https://openfoam.org
    \\  /    A nd           | Version:  7
     \\/     M anipulation  |
\*---------------------------------------------------------------------------*/
FoamFile
{
    version     2.0;
    format      ascii;
    class       volVectorField;
    location    "120000";
    object      vorticity;
}
// * * * * * * * * * * * * * * * * * * * * * * * * * * * * * * * * * * * * * //

dimensions      [0 0 -1 0 0 0 0];

internalField   nonuniform List<vector> 
4814
(
(-0.026929 0.0782002 -1.02369e-17)
(-0.0243403 0.078653 2.74641e-17)
(-0.0217584 0.0790568 5.34983e-18)
(-0.0191828 0.0794134 -1.74619e-17)
(-0.0654393 0.0688051 1.20727e-17)
(-0.0633204 0.0695077 -5.92529e-18)
(-0.0605584 0.070777 1.3699e-17)
(-0.0577979 0.0719737 1.04352e-17)
(-0.0550404 0.0730995 4.06065e-17)
(-0.0522877 0.0741561 -4.13367e-18)
(-0.0495409 0.0751454 -6.14221e-18)
(-0.0468012 0.0760692 -6.54683e-18)
(-0.0440688 0.0769294 -1.94024e-17)
(-0.0413439 0.0777276 -3.65833e-17)
(-0.0386269 0.0784665 3.08978e-17)
(-0.0359179 0.0791476 2.17066e-18)
(-0.0332174 0.0797728 -2.85392e-18)
(-0.030525 0.0803436 6.22632e-18)
(-0.0278403 0.0808614 -8.51437e-18)
(-0.0251635 0.0813282 2.9597e-17)
(-0.0224938 0.0817445 6.30254e-18)
(-0.0198308 0.0821121 -1.649e-17)
(-0.0171739 0.0824315 -2.60432e-17)
(-0.0145225 0.0827035 4.34466e-18)
(-0.0118757 0.0829289 7.11703e-18)
(-0.00923255 0.0831087 5.47423e-19)
(-0.00659252 0.0832428 -4.02559e-18)
(-0.00395464 0.083332 7.69679e-18)
(-0.00131814 0.0833764 2.40576e-18)
(0.00131785 0.0833764 1.69246e-17)
(0.00395433 0.083332 6.07265e-18)
(0.00659214 0.0832427 1.34931e-17)
(0.0092321 0.0831081 5.60161e-18)
(0.0118752 0.0829286 1.56199e-17)
(0.0145223 0.082703 2.45125e-17)
(0.017174 0.0824306 5.55412e-18)
(0.0198311 0.0821112 -1.12414e-17)
(0.022494 0.0817438 -7.54843e-18)
(-0.0677451 0.0711901 9.48554e-18)
(-0.06553 0.0719355 -7.94845e-18)
(-0.0626693 0.073248 1.51919e-17)
(-0.0598104 0.0744853 9.02231e-18)
(-0.0569549 0.075649 4.03503e-17)
(-0.0541045 0.0767409 -3.11681e-18)
(-0.0512606 0.0777631 -4.93244e-18)
(-0.0484241 0.0787173 -3.00493e-18)
(-0.0455956 0.0796057 -1.83697e-17)
(-0.0427751 0.0804301 -4.01391e-17)
(-0.0399628 0.081193 3.2517e-17)
(-0.0371591 0.081896 6.35479e-18)
(-0.0343643 0.0825412 -6.0163e-19)
(-0.0315782 0.0831302 6.18545e-18)
(-0.0288002 0.0836645 -7.21137e-18)
(-0.0260306 0.0841459 3.07606e-17)
(-0.0232685 0.0845755 6.46187e-18)
(-0.0205134 0.0849546 -1.52753e-17)
(-0.0177648 0.0852839 -2.63998e-17)
(-0.015022 0.0855644 4.81892e-18)
(-0.0122839 0.0857969 7.0808e-18)
(-0.00954987 0.0859821 1.19138e-18)
(-0.00681906 0.0861204 -5.34554e-18)
(-0.00409052 0.0862124 8.27746e-18)
(-0.00136343 0.0862582 3.2151e-18)
(0.00136314 0.0862581 1.67791e-17)
(0.00409021 0.0862124 5.73584e-18)
(0.00681866 0.0861203 1.44078e-17)
(0.00954941 0.0859815 5.7691e-18)
(0.0122835 0.0857966 1.59064e-17)
(0.0150217 0.085564 2.58233e-17)
(0.0177649 0.0852831 5.82997e-18)
(0.0205137 0.0849536 -9.93153e-18)
(0.0232687 0.0845747 -6.84408e-18)
(0.0260307 0.0841452 2.18504e-17)
(0.0288004 0.0836638 -5.31787e-18)
(0.0315781 0.0831293 -2.81678e-17)
(0.0343643 0.0825404 -1.94697e-17)
(0.0371591 0.0818954 -9.31559e-18)
(0.0399628 0.0811926 2.5614e-17)
(0.0427753 0.0804302 -2.43702e-17)
(-0.0701752 0.0737038 8.44307e-18)
(-0.0678589 0.0744944 -9.47203e-18)
(-0.0648942 0.0758526 1.57976e-17)
(-0.0619316 0.0771328 7.3474e-18)
(-0.058973 0.0783365 4.21725e-17)
(-0.0560197 0.0794658 -8.09827e-19)
(-0.0530734 0.0805226 -3.47194e-18)
(-0.050135 0.081509 -1.32583e-18)
(-0.0472051 0.0824272 -1.84844e-17)
(-0.0442838 0.0832791 -4.22424e-17)
(-0.0413712 0.0840673 3.42267e-17)
(-0.0384676 0.0847935 9.29178e-18)
(-0.0355735 0.0854598 5.89155e-19)
(-0.0326886 0.0860681 5.15303e-18)
(-0.0298123 0.0866197 -6.43874e-18)
(-0.0269447 0.0871167 3.13857e-17)
(-0.0240852 0.0875602 6.52851e-18)
(-0.0212331 0.0879515 -1.4087e-17)
(-0.0183877 0.0882913 -2.65966e-17)
(-0.0155485 0.0885807 4.71163e-18)
(-0.0127144 0.0888207 6.05125e-18)
(-0.00988443 0.0890117 2.43752e-18)
(-0.0070579 0.0891543 -5.55351e-18)
(-0.00423379 0.0892493 8.59089e-18)
(-0.00141119 0.0892965 3.30075e-18)
(0.00141089 0.0892964 1.72287e-17)
(0.00423347 0.0892492 6.32286e-18)
(0.00705748 0.0891542 1.48263e-17)
(0.00988395 0.0890111 4.60183e-18)
(0.012714 0.0888203 1.46632e-17)
(0.0155483 0.0885804 2.54278e-17)
(0.0183878 0.0882906 4.85952e-18)
(0.0212333 0.0879505 -9.68262e-18)
(0.0240854 0.0875594 -7.49237e-18)
(0.0269448 0.087116 2.38665e-17)
(0.0298124 0.086619 -3.91816e-18)
(0.0326885 0.0860671 -2.95499e-17)
(0.0355735 0.085459 -2.11458e-17)
(0.0384677 0.0847928 -1.05895e-17)
(0.0413712 0.0840669 2.70171e-17)
(0.044284 0.0832792 -2.57349e-17)
(0.0472056 0.0824278 -8.01914e-17)
(0.0501356 0.0815097 -1.26644e-17)
(0.053074 0.0805231 -1.69961e-17)
(-0.0727387 0.0763554 8.63564e-18)
(-0.0703157 0.0771939 -1.08409e-17)
(-0.0672413 0.0786004 1.59771e-17)
(-0.0641696 0.079926 6.14699e-18)
(-0.0611021 0.0811721 4.59101e-17)
(-0.0580404 0.0823407 2.09662e-18)
(-0.0549862 0.0834342 -2.15299e-18)
(-0.0519403 0.0844547 -5.86608e-19)
(-0.0489035 0.0854045 -1.93553e-17)
(-0.0458758 0.0862855 -4.35268e-17)
(-0.0428573 0.0871004 3.60247e-17)
(-0.0398484 0.0878511 1.18444e-17)
(-0.0368495 0.0885398 1.36557e-18)
(-0.0338603 0.0891685 2.94915e-18)
(-0.0308803 0.0897384 -5.71472e-18)
(-0.0279094 0.0902519 3.23541e-17)
(-0.0249471 0.09071 6.67162e-18)
(-0.0219925 0.0911141 -1.27764e-17)
(-0.0190451 0.091465 -2.66464e-17)
(-0.0161042 0.0917639 4.25805e-18)
(-0.0131687 0.0920118 4.65614e-18)
(-0.0102375 0.0922089 3.68064e-18)
(-0.00730997 0.0923562 -5.21987e-18)
(-0.00438498 0.0924543 8.88042e-18)
(-0.00146158 0.092503 2.74449e-18)
(0.00146128 0.0925029 1.79067e-17)
(0.00438466 0.0924542 7.51076e-18)
(0.00730952 0.0923561 1.48297e-17)
(0.010237 0.0922083 2.5361e-18)
(0.0131682 0.0920114 1.26658e-17)
(0.016104 0.0917637 2.40458e-17)
(0.0190452 0.0914645 2.91683e-18)
(0.0219927 0.0911132 -9.99923e-18)
(0.0249472 0.0907092 -8.51028e-18)
(0.0279095 0.0902511 2.44017e-17)
(0.0308803 0.0897376 -2.40957e-18)
(0.0338602 0.0891673 -3.07124e-17)
(0.0368495 0.0885389 -2.21522e-17)
(0.0398485 0.0878503 -1.00215e-17)
(0.0428574 0.0870999 2.77158e-17)
(0.0458761 0.0862856 -2.62585e-17)
(0.048904 0.0854051 -8.36331e-17)
(0.051941 0.0844555 -1.08532e-17)
(0.0549867 0.0834347 -1.61411e-17)
(-0.0754451 0.0791549 8.78789e-18)
(-0.0729096 0.0800442 -1.2756e-17)
(-0.0697196 0.0815018 1.59157e-17)
(-0.0665327 0.0828754 5.4895e-18)
(-0.0633505 0.0841664 5.0381e-17)
(-0.0601744 0.0853768 4.83233e-18)
(-0.0570062 0.0865092 -1.14975e-18)
(-0.0538469 0.0875657 6.8719e-21)
(-0.0506972 0.0885489 -2.05689e-17)
(-0.0475572 0.0894607 -4.43684e-17)
(-0.044427 0.090304 3.77843e-17)
(-0.0413069 0.0910807 1.42204e-17)
(-0.0381973 0.091793 2.26628e-18)
(-0.0350981 0.0924433 6.93794e-19)
(-0.0320084 0.0930328 -5.43223e-18)
(-0.0289284 0.0935636 3.33807e-17)
(-0.0258575 0.0940373 6.74974e-18)
(-0.0227947 0.0944548 -1.15201e-17)
(-0.0197396 0.0948176 -2.64581e-17)
(-0.0166912 0.0951265 4.07413e-18)
(-0.0136486 0.0953827 3.33312e-18)
(-0.0106105 0.0955864 4.52942e-18)
(-0.00757624 0.0957386 -5.12458e-18)
(-0.00454469 0.0958399 9.36911e-18)
(-0.00151482 0.0958904 1.81423e-18)
(0.0015145 0.0958902 1.84712e-17)
(0.00454437 0.0958398 8.91533e-18)
(0.00757578 0.0957385 1.46941e-17)
(0.01061 0.0955858 3.93264e-19)
(0.0136481 0.0953824 1.08331e-17)
(0.016691 0.0951264 2.27653e-17)
(0.0197397 0.0948172 1.1297e-18)
(0.022795 0.0944541 -9.98807e-18)
(0.0258577 0.0940364 -8.88155e-18)
(0.0289285 0.0935627 2.40897e-17)
(0.0320084 0.0930318 -1.28135e-18)
(0.0350979 0.092442 -3.16495e-17)
(0.0381973 0.0917922 -2.31579e-17)
(0.0413069 0.0910798 -8.72281e-18)
(0.0444271 0.0903035 2.81969e-17)
(0.0475576 0.0894609 -2.62737e-17)
(0.0506978 0.0885495 -8.62713e-17)
(0.0538476 0.0875666 -1.00552e-17)
(0.0570067 0.0865097 -1.62135e-17)
(-0.0783048 0.0821129 9.06633e-18)
(-0.0756506 0.0830561 -1.52736e-17)
(-0.0723386 0.084568 1.6178e-17)
(-0.0690302 0.0859926 5.46147e-18)
(-0.0657268 0.0873312 5.45763e-17)
(-0.0624299 0.088586 6.6385e-18)
(-0.0591414 0.0897596 9.63963e-20)
(-0.0558623 0.0908544 4.08384e-19)
(-0.0525935 0.091873 -2.19694e-17)
(-0.0493348 0.0928175 -4.49683e-17)
(-0.0460865 0.0936909 3.99016e-17)
(-0.0428489 0.0944952 1.64837e-17)
(-0.0396223 0.0952325 3.03156e-18)
(-0.0364067 0.0959059 -9.20092e-19)
(-0.0332013 0.0965159 -4.83798e-18)
(-0.0300059 0.0970652 3.39556e-17)
(-0.0268201 0.0975553 7.04351e-18)
(-0.023643 0.0979873 -1.02063e-17)
(-0.0204739 0.0983625 -2.61365e-17)
(-0.0173119 0.0986821 4.50395e-18)
(-0.014156 0.0989472 2.27323e-18)
(-0.0110049 0.0991578 5.33676e-18)
(-0.00785781 0.0993153 -5.5968e-18)
(-0.00471357 0.0994201 1.00306e-17)
(-0.00157112 0.0994723 6.71144e-19)
(0.00157079 0.0994721 1.87535e-17)
(0.00471325 0.0994199 1.04359e-17)
(0.00785733 0.0993151 1.44429e-17)
(0.0110044 0.0991572 -1.37504e-18)
(0.0141556 0.0989469 9.34232e-18)
(0.0173117 0.0986821 2.15137e-17)
(0.020474 0.0983624 -4.89278e-19)
(0.0236433 0.0979867 -9.42597e-18)
(0.0268203 0.0975545 -8.92747e-18)
(0.030006 0.0970643 2.32729e-17)
(0.0332012 0.0965148 -4.48829e-19)
(0.0364065 0.0959044 -3.23297e-17)
(0.0396223 0.0952317 -2.43973e-17)
(0.0428489 0.0944942 -8.14298e-18)
(0.0460866 0.0936904 2.90211e-17)
(0.0493352 0.0928178 -2.67759e-17)
(0.052594 0.0918737 -8.86815e-17)
(0.055863 0.0908553 -9.34803e-18)
(0.0591419 0.0897601 -1.72635e-17)
(-0.081329 0.085241 8.93448e-18)
(-0.0785495 0.0862416 -1.74175e-17)
(-0.0751088 0.0878113 1.74897e-17)
(-0.071672 0.08929 5.7833e-18)
(-0.0682406 0.0906792 5.85144e-17)
(-0.0648161 0.0919811 8.4662e-18)
(-0.0614005 0.0931986 8.24293e-19)
(-0.0579947 0.094334 1.02993e-18)
(-0.0545999 0.0953903 -2.24627e-17)
(-0.0512157 0.0963696 -4.60929e-17)
(-0.0478426 0.0972749 4.24963e-17)
(-0.0444807 0.0981085 1.83032e-17)
(-0.0411303 0.0988726 4.45056e-18)
(-0.0377917 0.0995704 -1.95457e-18)
(-0.0344637 0.100202 -4.40744e-18)
(-0.0311463 0.100771 3.46172e-17)
(-0.027839 0.101279 7.4278e-18)
(-0.0245408 0.101726 -8.88143e-18)
(-0.0212511 0.102115 -2.57332e-17)
(-0.0179689 0.102446 5.26347e-18)
(-0.0146931 0.10272 1.60959e-18)
(-0.0114224 0.102938 6.31806e-18)
(-0.00815585 0.103101 -6.37616e-18)
(-0.00489233 0.10321 1.04609e-17)
(-0.0016307 0.103264 -5.56828e-19)
(0.00163036 0.103264 1.88417e-17)
(0.004892 0.103209 1.17292e-17)
(0.00815535 0.103101 1.43301e-17)
(0.0114219 0.102938 -2.42143e-18)
(0.0146927 0.10272 7.57188e-18)
(0.0179687 0.102446 2.02064e-17)
(0.0212513 0.102115 -1.76567e-18)
(0.0245411 0.101726 -8.6757e-18)
(0.0278392 0.101278 -8.84186e-18)
(0.0311463 0.10077 2.25837e-17)
(0.0344636 0.100201 3.8342e-19)
(0.0377914 0.0995688 -3.30551e-17)
(0.0411304 0.0988718 -2.54927e-17)
(0.0444806 0.0981075 -7.97353e-18)
(0.0478427 0.0972744 2.9556e-17)
(0.0512162 0.0963698 -2.74583e-17)
(0.0546005 0.095391 -9.11502e-17)
(0.0579955 0.094335 -8.72148e-18)
(0.0614009 0.0931991 -1.87666e-17)
(0.0648162 0.0919815 3.3582e-17)
(-0.0845298 0.0885518 8.71831e-18)
(-0.081618 0.0896135 -1.85815e-17)
(-0.0780413 0.0912447 1.89391e-17)
(-0.0744688 0.092781 5.55553e-18)
(-0.0709022 0.0942241 6.27215e-17)
(-0.0673428 0.0955761 1.02751e-17)
(-0.0637927 0.0968403 9.05593e-19)
(-0.060253 0.0980191 1.8534e-18)
(-0.0567248 0.0991155 -2.26709e-17)
(-0.0532079 0.100132 -4.6579e-17)
(-0.0497026 0.101071 4.53589e-17)
(-0.0462091 0.101936 2.00631e-17)
(-0.0427278 0.102729 5.56619e-18)
(-0.0392589 0.103452 -2.9429e-18)
(-0.0358011 0.104108 -4.20448e-18)
(-0.0323544 0.104698 3.50862e-17)
(-0.0289185 0.105224 7.48326e-18)
(-0.025492 0.105687 -7.58465e-18)
(-0.0220745 0.10609 -2.49507e-17)
(-0.018665 0.106433 6.24313e-18)
(-0.0152622 0.106718 9.21493e-19)
(-0.0118647 0.106943 7.09364e-18)
(-0.00847163 0.107112 -7.23997e-18)
(-0.00508174 0.107225 1.07063e-17)
(-0.00169383 0.107281 -1.76079e-18)
(0.00169348 0.107281 1.88254e-17)
(0.0050814 0.107225 1.25724e-17)
(0.00847112 0.107112 1.44048e-17)
(0.0118642 0.106943 -2.90978e-18)
(0.0152618 0.106717 5.58274e-18)
(0.0186648 0.106433 1.91789e-17)
(0.0220747 0.10609 -2.68765e-18)
(0.0254923 0.105687 -7.84598e-18)
(0.0289186 0.105223 -8.54405e-18)
(0.0323544 0.104696 2.19834e-17)
(0.0358009 0.104106 1.21184e-18)
(0.0392585 0.103451 -3.33222e-17)
(0.0427279 0.102728 -2.66963e-17)
(0.0462091 0.101935 -8.25699e-18)
(0.0497027 0.101071 3.00117e-17)
(0.0532084 0.100132 -2.75471e-17)
(0.0567255 0.0991162 -9.24446e-17)
(0.0602538 0.09802 -8.24942e-18)
(0.0637932 0.0968408 -2.11828e-17)
(0.0673429 0.0955766 3.4081e-17)
(-0.0879203 0.0920587 8.25242e-18)
(-0.0848687 0.0931856 -1.89579e-17)
(-0.0811483 0.0948824 1.99846e-17)
(-0.0774324 0.0964802 4.37419e-18)
(-0.0737227 0.0979808 6.68842e-17)
(-0.0700206 0.0993862 1.20628e-17)
(-0.0663282 0.1007 1.17398e-18)
(-0.0626468 0.101925 2.31653e-18)
(-0.0589775 0.103065 -2.32986e-17)
(-0.05532 0.10412 -4.58925e-17)
(-0.0516746 0.105096 4.82646e-17)
(-0.0480417 0.105994 2.12784e-17)
(-0.0444216 0.106817 6.16753e-18)
(-0.0408146 0.107569 -4.14178e-18)
(-0.0372193 0.108249 -4.14121e-18)
(-0.0336356 0.108861 3.51268e-17)
(-0.0300632 0.109407 7.86104e-18)
(-0.0265008 0.109888 -6.58096e-18)
(-0.0229479 0.110306 -2.37237e-17)
(-0.0194032 0.110662 7.34736e-18)
(-0.0158657 0.110957 -4.04462e-20)
(-0.0123338 0.111192 7.87043e-18)
(-0.00880656 0.111367 -7.96265e-18)
(-0.00528263 0.111484 1.07194e-17)
(-0.00176078 0.111542 -2.85809e-18)
(0.00176042 0.111542 1.8642e-17)
(0.00528228 0.111483 1.27924e-17)
(0.00880603 0.111367 1.46616e-17)
(0.0123334 0.111191 -3.03498e-18)
(0.0158654 0.110957 3.49265e-18)
(0.0194031 0.110662 1.83721e-17)
(0.022948 0.110306 -2.97986e-18)
(0.0265011 0.109888 -7.24141e-18)
(0.0300633 0.109406 -8.67146e-18)
(0.0336356 0.10886 2.16896e-17)
(0.0372191 0.108248 2.21899e-18)
(0.0408142 0.107567 -3.34054e-17)
(0.0444217 0.106816 -2.72011e-17)
(0.0480417 0.105993 -9.65229e-18)
(0.0516748 0.105095 3.01747e-17)
(0.0553204 0.10412 -2.71252e-17)
(0.0589781 0.103065 -9.30859e-17)
(0.0626475 0.101926 -7.62399e-18)
(0.0663287 0.100701 -2.42384e-17)
(0.0700207 0.0993868 3.47994e-17)
(-0.0915145 0.0957762 7.5868e-18)
(-0.088315 0.096973 -1.87743e-17)
(-0.0844428 0.0987398 2.06747e-17)
(-0.0805752 0.100403 2.75042e-18)
(-0.0767142 0.101965 7.01493e-17)
(-0.072861 0.103428 1.35703e-17)
(-0.069018 0.104795 1.4162e-18)
(-0.0651865 0.106069 3.11274e-18)
(-0.0613675 0.107255 -2.33383e-17)
(-0.057561 0.108353 -4.45013e-17)
(-0.0537672 0.109367 5.16275e-17)
(-0.0499866 0.110301 2.1901e-17)
(-0.0462193 0.111157 7.20199e-18)
(-0.0424657 0.111938 -4.73999e-18)
(-0.0387246 0.112645 -4.7773e-18)
(-0.0349956 0.113281 3.54872e-17)
(-0.0312784 0.113848 8.62061e-18)
(-0.0275717 0.114348 -5.28002e-18)
(-0.023875 0.114782 -2.22277e-17)
(-0.0201869 0.115152 8.19804e-18)
(-0.0165064 0.115458 -1.35057e-18)
(-0.0128319 0.115702 8.89882e-18)
(-0.00916214 0.115884 -8.42632e-18)
(-0.00549591 0.116005 1.07074e-17)
(-0.00183186 0.116065 -3.98253e-18)
(0.0018315 0.116065 1.83331e-17)
(0.00549554 0.116005 1.26561e-17)
(0.0091616 0.115883 1.48604e-17)
(0.0128314 0.115701 -3.06562e-18)
(0.0165061 0.115458 1.38223e-18)
(0.0201869 0.115152 1.74971e-17)
(0.0238752 0.114782 -3.24441e-18)
(0.027572 0.114348 -6.84934e-18)
(0.0312784 0.113847 -9.04126e-18)
(0.0349955 0.11328 2.13977e-17)
(0.0387244 0.112643 3.26708e-18)
(0.0424654 0.111936 -3.3514e-17)
(0.0462194 0.111156 -2.76401e-17)
(0.0499865 0.1103 -1.15011e-17)
(0.0537674 0.109366 3.00992e-17)
(0.0575615 0.108352 -2.70913e-17)
(0.0613681 0.107255 -9.29821e-17)
(0.0651872 0.10607 -6.49813e-18)
(0.0690184 0.104796 -2.73537e-17)
(0.0728612 0.103428 3.51398e-17)
(-0.0953277 0.0997199 6.33559e-18)
(-0.0919717 0.100992 -1.86602e-17)
(-0.0879388 0.102833 2.17037e-17)
(-0.0839108 0.104567 8.4971e-19)
(-0.0798896 0.106195 7.30885e-17)
(-0.0758765 0.107719 1.50284e-17)
(-0.0718738 0.109143 1.75263e-18)
(-0.0678832 0.11047 4.05986e-18)
(-0.0639057 0.111704 -2.18774e-17)
(-0.0599412 0.112848 -4.3336e-17)
(-0.0559899 0.113904 5.4493e-17)
(-0.0520524 0.114875 2.22641e-17)
(-0.048129 0.115766 8.67004e-18)
(-0.0442199 0.116579 -4.54035e-18)
(-0.0403238 0.117315 -5.97595e-18)
(-0.0364405 0.117977 3.68463e-17)
(-0.0325695 0.118567 9.0734e-18)
(-0.0287097 0.119087 -4.48578e-18)
(-0.0248601 0.119538 -2.02833e-17)
(-0.0210197 0.119923 9.13226e-18)
(-0.0171873 0.120241 -2.69113e-18)
(-0.0133612 0.120495 1.01153e-17)
(-0.00954003 0.120684 -8.62874e-18)
(-0.00572257 0.12081 1.06422e-17)
(-0.00190741 0.120873 -5.14012e-18)
(0.00190702 0.120873 1.77839e-17)
(0.00572218 0.12081 1.22369e-17)
(0.00953948 0.120683 1.48981e-17)
(0.0133607 0.120494 -2.67946e-18)
(0.0171871 0.120241 -2.51668e-19)
(0.0210197 0.119923 1.67851e-17)
(0.0248603 0.119538 -3.60572e-18)
(0.0287099 0.119087 -7.0005e-18)
(0.0325696 0.118566 -9.24199e-18)
(0.0364404 0.117976 2.08154e-17)
(0.0403236 0.117314 3.76214e-18)
(0.0442196 0.116577 -3.2604e-17)
(0.0481291 0.115765 -2.84125e-17)
(0.0520524 0.114874 -1.3118e-17)
(0.0559901 0.113903 3.03041e-17)
(0.0599415 0.112847 -2.66936e-17)
(0.0639062 0.111705 -9.22e-17)
(0.0678838 0.110471 -5.15221e-18)
(0.0718743 0.109143 -3.05918e-17)
(-0.0993759 0.103907 5.07943e-18)
(-0.0958544 0.105258 -1.74282e-17)
(-0.0916516 0.107181 2.26147e-17)
(-0.0874537 0.10899 -1.76098e-18)
(-0.0832629 0.110688 7.58595e-17)
(-0.0790804 0.112277 1.63994e-17)
(-0.0749085 0.113763 1.90303e-18)
(-0.0707491 0.115147 4.28264e-18)
(-0.0666034 0.116434 -2.00588e-17)
(-0.0624712 0.117626 -4.22052e-17)
(-0.0583527 0.118726 5.74384e-17)
(-0.0542488 0.119739 2.25044e-17)
(-0.0501595 0.120668 1.01808e-17)
(-0.0460851 0.121514 -4.43434e-18)
(-0.0420245 0.122281 -7.22098e-18)
(-0.0379771 0.122971 3.90883e-17)
(-0.0339427 0.123586 9.4659e-18)
(-0.02992 0.124127 -3.70347e-18)
(-0.025908 0.124597 -1.83917e-17)
(-0.0219056 0.124997 9.70815e-18)
(-0.0179116 0.125329 -3.70789e-18)
(-0.0139242 0.125593 1.13687e-17)
(-0.009942 0.12579 -8.73562e-18)
(-0.00596369 0.125922 1.06751e-17)
(-0.00198777 0.125987 -6.3818e-18)
(0.00198737 0.125987 1.72165e-17)
(0.00596327 0.125921 1.17614e-17)
(0.00994145 0.12579 1.45957e-17)
(0.0139238 0.125593 -2.11719e-18)
(0.0179114 0.125329 -1.47791e-18)
(0.0219056 0.124998 1.58246e-17)
(0.0259082 0.124598 -4.30021e-18)
(0.0299202 0.124127 -7.2599e-18)
(0.0339427 0.123585 -9.28806e-18)
(0.037977 0.12297 1.99264e-17)
(0.0420243 0.12228 3.41323e-18)
(0.0460848 0.121513 -3.20872e-17)
(0.0501596 0.120667 -2.87898e-17)
(0.0542488 0.119738 -1.45311e-17)
(0.058353 0.118726 3.07136e-17)
(0.0624715 0.117625 -2.60074e-17)
(0.0666039 0.116434 -9.11815e-17)
(0.0707497 0.115148 -4.23469e-18)
(0.0749089 0.113763 -3.45074e-17)
(-0.103676 0.108354 4.91302e-18)
(-0.0999798 0.109792 -1.5807e-17)
(-0.0955972 0.111801 2.32033e-17)
(-0.0912195 0.113691 -4.46152e-18)
(-0.086849 0.115464 7.75131e-17)
(-0.0824869 0.117125 1.7422e-17)
(-0.0781357 0.118676 1.95283e-18)
(-0.0737972 0.120121 4.25146e-18)
(-0.069473 0.121465 -1.77031e-17)
(-0.0651627 0.122709 -3.99274e-17)
(-0.0608668 0.123858 6.00857e-17)
(-0.0565859 0.124915 2.27156e-17)
(-0.0523203 0.125884 1.19151e-17)
(-0.0480702 0.126767 -4.58313e-18)
(-0.0438347 0.127567 -8.35149e-18)
(-0.0396128 0.128287 4.21495e-17)
(-0.0354045 0.128928 9.70885e-18)
(-0.0312084 0.129493 -2.59426e-18)
(-0.0270236 0.129983 -1.63882e-17)
(-0.0228488 0.1304 1.01632e-17)
(-0.0186827 0.130747 -4.248e-18)
(-0.0145237 0.131022 1.23794e-17)
(-0.01037 0.131228 -8.78139e-18)
(-0.00622041 0.131364 1.10327e-17)
(-0.00207334 0.131432 -7.41803e-18)
(0.00207292 0.131432 1.64244e-17)
(0.00621998 0.131364 1.08714e-17)
(0.0103695 0.131227 1.38543e-17)
(0.0145233 0.131022 -1.426e-18)
(0.0186826 0.130747 -2.18079e-18)
(0.0228488 0.130401 1.47227e-17)
(0.0270238 0.129984 -5.35395e-18)
(0.0312086 0.129493 -6.96095e-18)
(0.0354045 0.128927 -9.15914e-18)
(0.0396127 0.128286 1.93378e-17)
(0.0438344 0.127566 2.91186e-18)
(0.04807 0.126766 -3.25459e-17)
(0.0523205 0.125883 -2.87263e-17)
(0.056586 0.124914 -1.57146e-17)
(0.060867 0.123857 3.02185e-17)
(0.065163 0.122708 -2.49947e-17)
(0.0694735 0.121465 -8.9184e-17)
(0.0737978 0.120122 -3.69855e-18)
(0.078136 0.118676 -3.7941e-17)
(-0.108248 0.113081 5.58891e-18)
(-0.104366 0.114612 -1.4949e-17)
(-0.0997929 0.116714 2.34167e-17)
(-0.0952248 0.118691 -6.73863e-18)
(-0.090664 0.120546 7.8954e-17)
(-0.0861116 0.122282 1.82799e-17)
(-0.08157 0.123904 2.70297e-18)
(-0.0770415 0.125416 4.34579e-18)
(-0.0725277 0.12682 -1.44055e-17)
(-0.0680283 0.128121 -3.7263e-17)
(-0.0635438 0.129322 6.2385e-17)
(-0.0590749 0.130427 2.30322e-17)
(-0.0546217 0.131439 1.44839e-17)
(-0.0501848 0.132362 -5.07032e-18)
(-0.045763 0.133199 -1.02459e-17)
(-0.0413554 0.13395 4.53643e-17)
(-0.036962 0.13462 9.56945e-18)
(-0.0325813 0.13521 -1.11592e-18)
(-0.0282123 0.135722 -1.41069e-17)
(-0.0238539 0.136158 1.07895e-17)
(-0.0195045 0.13652 -4.46706e-18)
(-0.0151625 0.136807 1.31248e-17)
(-0.0108262 0.137022 -8.63014e-18)
(-0.00649402 0.137165 1.15987e-17)
(-0.00216454 0.137236 -8.42484e-18)
(0.0021641 0.137236 1.55408e-17)
(0.00649358 0.137164 9.60011e-18)
(0.0108256 0.137021 1.28778e-17)
(0.0151621 0.136807 -5.03991e-19)
(0.0195044 0.13652 -2.55109e-18)
(0.0238539 0.136159 1.35116e-17)
(0.0282126 0.135723 -6.52871e-18)
(0.0325815 0.13521 -6.29983e-18)
(0.0369619 0.134619 -8.62012e-18)
(0.0413553 0.133949 1.97524e-17)
(0.0457627 0.133198 2.09682e-18)
(0.0501846 0.132361 -3.37896e-17)
(0.0546219 0.131438 -2.84519e-17)
(0.0590749 0.130426 -1.70718e-17)
(0.063544 0.129321 2.88632e-17)
(0.0680286 0.12812 -2.34098e-17)
(0.0725282 0.12682 -8.66625e-17)
(0.077042 0.125416 -3.62266e-18)
(0.0815703 0.123905 -4.0822e-17)
(-0.113109 0.118107 7.16901e-18)
(-0.109031 0.11974 -1.4694e-17)
(-0.104257 0.121941 2.3119e-17)
(-0.0994873 0.124012 -8.49199e-18)
(-0.0947248 0.125955 8.12948e-17)
(-0.0899706 0.127774 1.87092e-17)
(-0.0852272 0.129472 3.34622e-18)
(-0.080497 0.131055 4.35729e-18)
(-0.0757818 0.132525 -9.90724e-18)
(-0.0710814 0.133887 -3.4323e-17)
(-0.0663963 0.135144 6.45691e-17)
(-0.0617274 0.136301 2.376e-17)
(-0.0570748 0.137361 1.71556e-17)
(-0.0524388 0.138327 -5.64881e-18)
(-0.0478188 0.139202 -1.18079e-17)
(-0.0432134 0.139989 4.85744e-17)
(-0.0386227 0.14069 8.96476e-18)
(-0.0340453 0.141307 9.16035e-19)
(-0.0294801 0.141843 -1.23724e-17)
(-0.0249258 0.142299 1.14357e-17)
(-0.020381 0.142677 -4.65601e-18)
(-0.0158439 0.142978 1.35969e-17)
(-0.0113127 0.143203 -8.57373e-18)
(-0.00678587 0.143352 1.23591e-17)
(-0.00226181 0.143427 -9.18465e-18)
(0.00226136 0.143427 1.46569e-17)
(0.00678541 0.143352 7.86185e-18)
(0.0113122 0.143202 1.19204e-17)
(0.0158436 0.142978 2.86006e-19)
(0.0203809 0.142677 -2.99297e-18)
(0.0249259 0.1423 1.19889e-17)
(0.0294804 0.141844 -7.45127e-18)
(0.0340455 0.141307 -5.51617e-18)
(0.0386227 0.140689 -8.29536e-18)
(0.0432133 0.139988 1.99653e-17)
(0.0478185 0.139201 1.07917e-18)
(0.0524387 0.138326 -3.55722e-17)
(0.0570749 0.13736 -2.75157e-17)
(0.0617274 0.1363 -1.88379e-17)
(0.0663965 0.135143 2.6886e-17)
(0.0710816 0.133886 -2.09917e-17)
(0.0757823 0.132525 -8.38341e-17)
(0.0804974 0.131055 -3.35962e-18)
(0.0852274 0.129472 -4.41199e-17)
(-0.118281 0.123454 8.61379e-18)
(-0.113995 0.125196 -1.48111e-17)
(-0.109009 0.127505 2.23923e-17)
(-0.104026 0.129677 -1.01671e-17)
(-0.0990495 0.131716 8.32389e-17)
(-0.0940814 0.133623 1.89014e-17)
(-0.0891238 0.135405 4.04096e-18)
(-0.0841795 0.137064 5.39001e-18)
(-0.0792504 0.138606 -5.80134e-18)
(-0.0743363 0.140034 -3.11163e-17)
(-0.069438 0.141353 6.71577e-17)
(-0.0645562 0.142566 2.44784e-17)
(-0.0596912 0.143677 1.91195e-17)
(-0.0548434 0.14469 -5.44704e-18)
(-0.0500121 0.145608 -1.30656e-17)
(-0.0451959 0.146432 5.07848e-17)
(-0.0403949 0.147167 9.6711e-18)
(-0.0356077 0.147814 2.86739e-18)
(-0.0308332 0.148376 -1.12774e-17)
(-0.02607 0.148854 1.17077e-17)
(-0.0213166 0.14925 -4.47237e-18)
(-0.0165713 0.149566 1.42369e-17)
(-0.0118321 0.149801 -8.62716e-18)
(-0.00709743 0.149957 1.2716e-17)
(-0.00236566 0.150035 -9.90829e-18)
(0.00236519 0.150035 1.40014e-17)
(0.00709695 0.149957 5.85215e-18)
(0.0118315 0.1498 1.08327e-17)
(0.0165709 0.149565 9.43579e-19)
(0.0213165 0.14925 -3.67892e-18)
(0.0260701 0.148855 1.03612e-17)
(0.0308334 0.148377 -8.48516e-18)
(0.0356079 0.147814 -4.69289e-18)
(0.0403948 0.147166 -7.43481e-18)
(0.0451958 0.146431 1.97668e-17)
(0.0500117 0.145606 2.24771e-19)
(0.0548433 0.144689 -3.71101e-17)
(0.0596914 0.143676 -2.70008e-17)
(0.0645562 0.142565 -2.09303e-17)
(0.0694382 0.141352 2.54052e-17)
(0.0743365 0.140033 -1.75329e-17)
(0.0792508 0.138606 -8.15005e-17)
(0.0841798 0.137064 -2.45933e-18)
(0.0891239 0.135405 -4.7552e-17)
(-0.123784 0.129143 1.01009e-17)
(-0.11928 0.131004 -1.50715e-17)
(-0.114068 0.13343 2.20264e-17)
(-0.10886 0.135712 -1.12514e-17)
(-0.103657 0.137853 8.48176e-17)
(-0.0984621 0.139857 1.81836e-17)
(-0.0932774 0.141728 4.90876e-18)
(-0.0881058 0.143472 7.84695e-18)
(-0.0829494 0.145092 -2.16771e-18)
(-0.0778082 0.146591 -2.80651e-17)
(-0.0726831 0.147977 7.04273e-17)
(-0.0675747 0.149251 2.51726e-17)
(-0.0624836 0.150418 2.06324e-17)
(-0.05741 0.151482 -5.02828e-18)
(-0.0523535 0.152446 -1.36147e-17)
(-0.0473126 0.153312 5.18786e-17)
(-0.0422873 0.154083 1.12156e-17)
(-0.0372762 0.154763 5.27709e-18)
(-0.0322783 0.155353 -1.02487e-17)
(-0.027292 0.155855 1.18219e-17)
(-0.0223159 0.156271 -4.27679e-18)
(-0.0173483 0.156602 1.51483e-17)
(-0.0123869 0.156849 -8.737e-18)
(-0.00743026 0.157014 1.27372e-17)
(-0.00247659 0.157096 -1.08351e-17)
(0.0024761 0.157095 1.33689e-17)
(0.00742976 0.157013 3.98362e-18)
(0.0123864 0.156849 9.63514e-18)
(0.0173479 0.156602 1.54923e-18)
(0.0223159 0.156271 -4.45172e-18)
(0.0272922 0.155856 8.61898e-18)
(0.0322785 0.155354 -9.63734e-18)
(0.0372764 0.154763 -3.32659e-18)
(0.0422872 0.154083 -6.3692e-18)
(0.0473125 0.153311 1.93286e-17)
(0.0523531 0.152444 -3.16657e-19)
(0.05741 0.151481 -3.84718e-17)
(0.0624837 0.150417 -2.75424e-17)
(0.0675747 0.14925 -2.2877e-17)
(0.0726832 0.147976 2.45202e-17)
(0.0778084 0.146591 -1.42468e-17)
(0.0829498 0.145092 -8.03397e-17)
(0.088106 0.143472 -7.05953e-19)
(0.0932774 0.141729 -5.06569e-17)
(-0.129641 0.135198 1.20219e-17)
(-0.124906 0.137187 -1.51016e-17)
(-0.119456 0.13974 2.20686e-17)
(-0.114009 0.142141 -1.05741e-17)
(-0.108567 0.144394 8.72442e-17)
(-0.103132 0.146503 1.71842e-17)
(-0.0977063 0.148472 5.91053e-18)
(-0.0922934 0.150306 1.00095e-17)
(-0.0868957 0.152011 8.73288e-19)
(-0.0815131 0.153589 -2.55844e-17)
(-0.0761466 0.155047 7.46962e-17)
(-0.0707971 0.156387 2.56345e-17)
(-0.0654652 0.157616 2.22271e-17)
(-0.060151 0.158735 -4.03985e-18)
(-0.0548544 0.15975 -1.44371e-17)
(-0.0495737 0.160661 5.27568e-17)
(-0.044309 0.161473 1.29834e-17)
(-0.0390591 0.162188 7.93448e-18)
(-0.0338225 0.162809 -9.0874e-18)
(-0.028598 0.163337 1.20848e-17)
(-0.023384 0.163775 -4.14047e-18)
(-0.0181787 0.164124 1.59587e-17)
(-0.0129799 0.164384 -9.11829e-18)
(-0.00778602 0.164556 1.26536e-17)
(-0.00259518 0.164643 -1.18159e-17)
(0.00259467 0.164642 1.26515e-17)
(0.00778552 0.164556 2.2738e-18)
(0.0129794 0.164383 8.32626e-18)
(0.0181784 0.164123 2.03018e-18)
(0.023384 0.163775 -4.89148e-18)
(0.0285982 0.163338 6.75576e-18)
(0.0338228 0.16281 -1.07871e-17)
(0.0390592 0.162189 -2.19157e-18)
(0.044309 0.161473 -5.16268e-18)
(0.0495737 0.16066 1.79466e-17)
(0.054854 0.159748 -1.92853e-18)
(0.0601511 0.158734 -3.88572e-17)
(0.0654653 0.157615 -2.81693e-17)
(0.0707972 0.156386 -2.46682e-17)
(0.0761467 0.155045 2.44315e-17)
(0.0815133 0.153588 -1.22503e-17)
(0.0868961 0.152011 -7.97909e-17)
(0.0922935 0.150306 7.91292e-19)
(0.0977063 0.148472 -5.37852e-17)
(-0.135874 0.14164 1.48195e-17)
(-0.130895 0.14377 -1.57931e-17)
(-0.125195 0.14646 2.19467e-17)
(-0.119496 0.148991 -8.88193e-18)
(-0.1138 0.151365 8.89687e-17)
(-0.108111 0.153588 1.60239e-17)
(-0.10243 0.155663 6.00931e-18)
(-0.0967607 0.157597 1.2365e-17)
(-0.0911068 0.159394 3.81666e-18)
(-0.0854675 0.161058 -2.29301e-17)
(-0.0798444 0.162595 7.88868e-17)
(-0.0742382 0.164009 2.66342e-17)
(-0.0686498 0.165304 2.40713e-17)
(-0.0630792 0.166485 -2.56336e-18)
(-0.0575266 0.167554 -1.51898e-17)
(-0.0519902 0.168515 5.32571e-17)
(-0.04647 0.169371 1.49523e-17)
(-0.0409649 0.170126 1.02251e-17)
(-0.0354735 0.17078 -7.65961e-18)
(-0.0299944 0.171337 1.26051e-17)
(-0.0245261 0.171799 -4.02217e-18)
(-0.0190668 0.172167 1.68071e-17)
(-0.0136141 0.172441 -9.57243e-18)
(-0.00816649 0.172623 1.23654e-17)
(-0.002722 0.172714 -1.28087e-17)
(0.00272146 0.172714 1.17925e-17)
(0.00816597 0.172622 5.28812e-19)
(0.0136136 0.17244 6.99393e-18)
(0.0190665 0.172166 2.40913e-18)
(0.0245261 0.171799 -5.33417e-18)
(0.0299946 0.171338 4.96745e-18)
(0.0354737 0.170781 -1.25079e-17)
(0.040965 0.170126 -1.94721e-18)
(0.0464699 0.169371 -3.53422e-18)
(0.0519901 0.168515 1.58039e-17)
(0.0575262 0.167553 -4.10843e-18)
(0.0630794 0.166484 -3.87739e-17)
(0.0686499 0.165303 -2.79366e-17)
(0.0742383 0.164008 -2.64063e-17)
(0.0798445 0.162594 2.49573e-17)
(0.0854677 0.161057 -1.04198e-17)
(0.0911071 0.159394 -7.90442e-17)
(0.0967608 0.157597 1.98102e-18)
(0.10243 0.155663 -5.73079e-17)
(-0.142506 0.148493 1.77979e-17)
(-0.137269 0.150776 -1.67426e-17)
(-0.131305 0.153616 2.17705e-17)
(-0.12534 0.156287 -7.40801e-18)
(-0.119377 0.158794 8.9948e-17)
(-0.113418 0.161141 1.56917e-17)
(-0.107467 0.163332 6.05074e-18)
(-0.101526 0.165375 1.43979e-17)
(-0.0956004 0.167273 7.43832e-18)
(-0.0896886 0.169031 -1.94423e-17)
(-0.0837925 0.170654 8.23001e-17)
(-0.0779134 0.172148 2.81951e-17)
(-0.0720518 0.173517 2.63949e-17)
(-0.066208 0.174765 -7.95158e-19)
(-0.0603824 0.175895 -1.52778e-17)
(-0.0545731 0.176911 5.36506e-17)
(-0.0487802 0.177816 1.71357e-17)
(-0.0430026 0.178613 1.18648e-17)
(-0.0372389 0.179305 -6.77168e-18)
(-0.0314878 0.179894 1.30653e-17)
(-0.0257477 0.180381 -3.78276e-18)
(-0.0200167 0.18077 1.78437e-17)
(-0.0142925 0.18106 -1.00291e-17)
(-0.0085735 0.181253 1.19224e-17)
(-0.00285767 0.181349 -1.36908e-17)
(0.00285711 0.181348 1.06876e-17)