/*--------------------------------*- C++ -*----------------------------------*\
  =========                 |
  \\      /  F ield         | OpenFOAM: The Open Source CFD Toolbox
   \\    /   O peration     | Website:  https://openfoam.org
    \\  /    A nd           | Version:  7
     \\/     M anipulation  |
\*---------------------------------------------------------------------------*/
FoamFile
{
    version     2.0;
    format      ascii;
    class       volScalarField;
    location    "212000";
    object      nu;
}
// * * * * * * * * * * * * * * * * * * * * * * * * * * * * * * * * * * * * * //

dimensions      [0 2 -1 0 0 0 0];

internalField   nonuniform List<scalar> 
4850
(
1.90322e-05
1.96913e-05
1.8459e-05
1.90637e-05
1.9376e-05
1.79209e-05
1.84774e-05
1.87689e-05
1.90616e-05
1.93547e-05
1.74144e-05
1.7928e-05
1.82009e-05
1.84746e-05
1.87482e-05
1.90208e-05
1.69366e-05
1.74119e-05
1.7668e-05
1.79246e-05
1.81807e-05
1.84357e-05
1.86884e-05
1.64848e-05
1.69258e-05
1.71667e-05
1.74078e-05
1.76483e-05
1.78874e-05
1.81241e-05
1.83576e-05
1.85869e-05
1.60567e-05
1.64668e-05
1.6694e-05
1.69212e-05
1.71475e-05
1.73722e-05
1.75944e-05
1.78135e-05
1.80283e-05
1.8238e-05
1.56503e-05
1.60325e-05
1.62472e-05
1.64617e-05
1.66751e-05
1.68868e-05
1.70961e-05
1.7302e-05
1.75038e-05
1.77006e-05
1.78915e-05
1.80755e-05
1.82516e-05
1.8419e-05
1.52636e-05
1.56207e-05
1.5824e-05
1.60269e-05
1.62287e-05
1.64286e-05
1.6626e-05
1.68201e-05
1.70101e-05
1.71953e-05
1.73747e-05
1.75475e-05
1.77128e-05
1.78696e-05
1.80173e-05
1.81547e-05
1.82812e-05
1.83959e-05
1.48952e-05
1.52294e-05
1.54224e-05
1.56147e-05
1.58057e-05
1.59949e-05
1.61815e-05
1.63649e-05
1.65442e-05
1.67188e-05
1.68879e-05
1.70505e-05
1.7206e-05
1.73535e-05
1.74921e-05
1.76211e-05
1.77398e-05
1.78473e-05
1.7943e-05
1.80263e-05
1.45436e-05
1.4857e-05
1.50404e-05
1.5223e-05
1.54043e-05
1.55837e-05
1.57605e-05
1.5934e-05
1.61036e-05
1.62686e-05
1.64282e-05
1.65817e-05
1.67283e-05
1.68672e-05
1.69977e-05
1.71191e-05
1.72307e-05
1.73318e-05
1.74217e-05
1.74999e-05
1.75659e-05
1.76193e-05
1.76596e-05
1.76867e-05
1.42075e-05
1.4502e-05
1.46766e-05
1.48503e-05
1.50226e-05
1.5193e-05
1.53607e-05
1.55253e-05
1.5686e-05
1.58423e-05
1.59933e-05
1.61384e-05
1.62769e-05
1.6408e-05
1.65312e-05
1.66457e-05
1.67509e-05
1.68461e-05
1.69308e-05
1.70044e-05
1.70665e-05
1.71167e-05
1.71546e-05
1.71801e-05
1.71928e-05
1.71928e-05
1.71801e-05
1.71546e-05
1.71167e-05
1.38857e-05
1.41629e-05
1.43294e-05
1.44949e-05
1.4659e-05
1.4821e-05
1.49805e-05
1.51369e-05
1.52895e-05
1.54377e-05
1.55808e-05
1.57183e-05
1.58494e-05
1.59735e-05
1.609e-05
1.61982e-05
1.62975e-05
1.63874e-05
1.64673e-05
1.65368e-05
1.65954e-05
1.66427e-05
1.66785e-05
1.67024e-05
1.67144e-05
1.67144e-05
1.67024e-05
1.66785e-05
1.66427e-05
1.65954e-05
1.65368e-05
1.64673e-05
1.35772e-05
1.38386e-05
1.39975e-05
1.41555e-05
1.4312e-05
1.44664e-05
1.46183e-05
1.47671e-05
1.49122e-05
1.5053e-05
1.5189e-05
1.53195e-05
1.54438e-05
1.55615e-05
1.56718e-05
1.57743e-05
1.58683e-05
1.59534e-05
1.60289e-05
1.60946e-05
1.61499e-05
1.61947e-05
1.62284e-05
1.62511e-05
1.62624e-05
1.62624e-05
1.62511e-05
1.62284e-05
1.61947e-05
1.615e-05
1.60946e-05
1.60289e-05
1.59534e-05
1.58683e-05
1.32811e-05
1.35279e-05
1.36799e-05
1.38309e-05
1.39803e-05
1.41277e-05
1.42726e-05
1.44144e-05
1.45526e-05
1.46867e-05
1.4816e-05
1.49401e-05
1.50582e-05
1.517e-05
1.52747e-05
1.53719e-05
1.54611e-05
1.55417e-05
1.56133e-05
1.56755e-05
1.57279e-05
1.57702e-05
1.58022e-05
1.58236e-05
1.58344e-05
1.58344e-05
1.58236e-05
1.58022e-05
1.57702e-05
1.57279e-05
1.56755e-05
1.56133e-05
1.55417e-05
1.54611e-05
1.29965e-05
1.32299e-05
1.33755e-05
1.35199e-05
1.36628e-05
1.38037e-05
1.39421e-05
1.40775e-05
1.42093e-05
1.43371e-05
1.44604e-05
1.45785e-05
1.4691e-05
1.47973e-05
1.48969e-05
1.49893e-05
1.5074e-05
1.51505e-05
1.52185e-05
1.52775e-05
1.53272e-05
1.53674e-05
1.53977e-05
1.5418e-05
1.54282e-05
1.54282e-05
1.5418e-05
1.53977e-05
1.53674e-05
1.53272e-05
1.52775e-05
1.52185e-05
1.51505e-05
1.5074e-05
1.27226e-05
1.29437e-05
1.30833e-05
1.32217e-05
1.33585e-05
1.34933e-05
1.36257e-05
1.37551e-05
1.38811e-05
1.40031e-05
1.41208e-05
1.42334e-05
1.43407e-05
1.44419e-05
1.45368e-05
1.46247e-05
1.47053e-05
1.47781e-05
1.48428e-05
1.48989e-05
1.49461e-05
1.49843e-05
1.50131e-05
1.50324e-05
1.50421e-05
1.50421e-05
1.50324e-05
1.50131e-05
1.49843e-05
1.49461e-05
1.48989e-05
1.48428e-05
1.47782e-05
1.47053e-05
1.24587e-05
1.26685e-05
1.28024e-05
1.29352e-05
1.30664e-05
1.31956e-05
1.33224e-05
1.34463e-05
1.35668e-05
1.36835e-05
1.37959e-05
1.39035e-05
1.40059e-05
1.41025e-05
1.4193e-05
1.42769e-05
1.43537e-05
1.4423e-05
1.44846e-05
1.4538e-05
1.4583e-05
1.46193e-05
1.46467e-05
1.46651e-05
1.46743e-05
1.46743e-05
1.46651e-05
1.46467e-05
1.46193e-05
1.4583e-05
1.4538e-05
1.44846e-05
1.44231e-05
1.43537e-05
1.22043e-05
1.24035e-05
1.25322e-05
1.26597e-05
1.27857e-05
1.29096e-05
1.30312e-05
1.31499e-05
1.32654e-05
1.33771e-05
1.34847e-05
1.35876e-05
1.36855e-05
1.37779e-05
1.38643e-05
1.39444e-05
1.40177e-05
1.40839e-05
1.41426e-05
1.41935e-05
1.42364e-05
1.4271e-05
1.42971e-05
1.43146e-05
1.43234e-05
1.43234e-05
1.43146e-05
1.42971e-05
1.4271e-05
1.42364e-05
1.41935e-05
1.41426e-05
1.40839e-05
1.40177e-05
1.19586e-05
1.2148e-05
1.22719e-05
1.23945e-05
1.25155e-05
1.26346e-05
1.27513e-05
1.28653e-05
1.2976e-05
1.30831e-05
1.31862e-05
1.32848e-05
1.33785e-05
1.34669e-05
1.35495e-05
1.36261e-05
1.36962e-05
1.37594e-05
1.38155e-05
1.38641e-05
1.39051e-05
1.39381e-05
1.39631e-05
1.39797e-05
1.39881e-05
1.39881e-05
1.39797e-05
1.39631e-05
1.39381e-05
1.39051e-05
1.38641e-05
1.38155e-05
1.37594e-05
1.36962e-05
1.17212e-05
1.19016e-05
1.20208e-05
1.21389e-05
1.22553e-05
1.23698e-05
1.2482e-05
1.25914e-05
1.26978e-05
1.28006e-05
1.28994e-05
1.2994e-05
1.30838e-05
1.31685e-05
1.32477e-05
1.3321e-05
1.3388e-05
1.34485e-05
1.35022e-05
1.35487e-05
1.35879e-05
1.36194e-05
1.36433e-05
1.36592e-05
1.36672e-05
1.36672e-05
1.36592e-05
1.36433e-05
1.36195e-05
1.35879e-05
1.35487e-05
1.35022e-05
1.34486e-05
1.3388e-05
1.14916e-05
1.16635e-05
1.17785e-05
1.18922e-05
1.20043e-05
1.21145e-05
1.22225e-05
1.23277e-05
1.24299e-05
1.25287e-05
1.26237e-05
1.27145e-05
1.28007e-05
1.28819e-05
1.29578e-05
1.30281e-05
1.30924e-05
1.31503e-05
1.32017e-05
1.32463e-05
1.32837e-05
1.3314e-05
1.33368e-05
1.3352e-05
1.33597e-05
1.33597e-05
1.3352e-05
1.33368e-05
1.3314e-05
1.32837e-05
1.32463e-05
1.32017e-05
1.31503e-05
1.30924e-05
1.12692e-05
1.14334e-05
1.15443e-05
1.16539e-05
1.1762e-05
1.18682e-05
1.19722e-05
1.20735e-05
1.21719e-05
1.22669e-05
1.23582e-05
1.24454e-05
1.25282e-05
1.26063e-05
1.26792e-05
1.27466e-05
1.28083e-05
1.28639e-05
1.29131e-05
1.29558e-05
1.29918e-05
1.30207e-05
1.30426e-05
1.30572e-05
1.30646e-05
1.30646e-05
1.30572e-05
1.30426e-05
1.30207e-05
1.29918e-05
1.29558e-05
1.29131e-05
1.28639e-05
1.28083e-05
1.27466e-05
1.10538e-05
1.12107e-05
1.13177e-05
1.14236e-05
1.15279e-05
1.16303e-05
1.17305e-05
1.18281e-05
1.19229e-05
1.20144e-05
1.21023e-05
1.21862e-05
1.22658e-05
1.23409e-05
1.24109e-05
1.24757e-05
1.25349e-05
1.25883e-05
1.26356e-05
1.26766e-05
1.27111e-05
1.27389e-05
1.27599e-05
1.27739e-05
1.27809e-05
1.27809e-05
1.27739e-05
1.27599e-05
1.27389e-05
1.27111e-05
1.26766e-05
1.26356e-05
1.25883e-05
1.25349e-05
1.24757e-05
1.08449e-05
1.09949e-05
1.10984e-05
1.12006e-05
1.13014e-05
1.14002e-05
1.14969e-05
1.15911e-05
1.16824e-05
1.17706e-05
1.18553e-05
1.19361e-05
1.20128e-05
1.2085e-05
1.21524e-05
1.22147e-05
1.22717e-05
1.2323e-05
1.23685e-05
1.24079e-05
1.2441e-05
1.24677e-05
1.24878e-05
1.25013e-05
1.2508e-05
1.2508e-05
1.25013e-05
1.24878e-05
1.24677e-05
1.2441e-05
1.24079e-05
1.23685e-05
1.2323e-05
1.22717e-05
1.22147e-05
1.06421e-05
1.07858e-05
1.08859e-05
1.09847e-05
1.10821e-05
1.11776e-05
1.12709e-05
1.13619e-05
1.145e-05
1.15351e-05
1.16168e-05
1.16947e-05
1.17686e-05
1.18381e-05
1.1903e-05
1.1963e-05
1.20178e-05
1.20672e-05
1.2111e-05
1.21488e-05
1.21807e-05
1.22064e-05
1.22257e-05
1.22387e-05
1.22452e-05
1.22452e-05
1.22387e-05
1.22257e-05
1.22064e-05
1.21807e-05
1.21489e-05
1.2111e-05
1.20672e-05
1.20178e-05
1.04452e-05
1.05829e-05
1.06798e-05
1.07754e-05
1.08696e-05
1.09619e-05
1.10522e-05
1.114e-05
1.12251e-05
1.13073e-05
1.13861e-05
1.14613e-05
1.15326e-05
1.15996e-05
1.16622e-05
1.172e-05
1.17728e-05
1.18204e-05
1.18625e-05
1.1899e-05
1.19296e-05
1.19543e-05
1.1973e-05
1.19855e-05
1.19917e-05
1.19917e-05
1.19855e-05
1.1973e-05
1.19543e-05
1.19296e-05
1.1899e-05
1.18625e-05
1.18204e-05
1.17728e-05
1.02538e-05
1.03859e-05
1.04797e-05
1.05723e-05
1.06635e-05
1.07528e-05
1.08401e-05
1.09251e-05
1.10074e-05
1.10867e-05
1.11629e-05
1.12355e-05
1.13043e-05
1.1369e-05
1.14294e-05
1.14851e-05
1.15361e-05
1.15819e-05
1.16225e-05
1.16577e-05
1.16872e-05
1.1711e-05
1.1729e-05
1.1741e-05
1.1747e-05
1.1747e-05
1.1741e-05
1.1729e-05
1.1711e-05
1.16872e-05
1.16577e-05
1.16225e-05
1.15819e-05
1.15361e-05
1.00677e-05
1.01945e-05
1.02855e-05
1.03752e-05
1.04634e-05
1.055e-05
1.06345e-05
1.07167e-05
1.07963e-05
1.0873e-05
1.09466e-05
1.10168e-05
1.10833e-05
1.11458e-05
1.12041e-05
1.12579e-05
1.13071e-05
1.13513e-05
1.13905e-05
1.14244e-05
1.14529e-05
1.14758e-05
1.14932e-05
1.15047e-05
1.15105e-05
1.15105e-05
1.15047e-05
1.14932e-05
1.14758e-05
1.14529e-05
1.14244e-05
1.13905e-05
1.13513e-05
1.13071e-05
9.88654e-06
1.00084e-05
1.00966e-05
1.01836e-05
1.02692e-05
1.0353e-05
1.04348e-05
1.05144e-05
1.05915e-05
1.06658e-05
1.0737e-05
1.08049e-05
1.08692e-05
1.09296e-05
1.09859e-05
1.10379e-05
1.10854e-05
1.11281e-05
1.1166e-05
1.11987e-05
1.12262e-05
1.12483e-05
1.1265e-05
1.12762e-05
1.12818e-05
1.12818e-05
1.12762e-05
1.1265e-05
1.12483e-05
1.12262e-05
1.11987e-05
1.1166e-05
1.11281e-05
9.71012e-06
9.82737e-06
9.91293e-06
9.99733e-06
1.00803e-05
1.01616e-05
1.02409e-05
1.03181e-05
1.03927e-05
1.04647e-05
1.05336e-05
1.05993e-05
1.06615e-05
1.072e-05
1.07744e-05
1.08247e-05
1.08706e-05
1.09119e-05
1.09485e-05
1.09801e-05
1.10067e-05
1.10281e-05
1.10442e-05
1.1055e-05
1.10604e-05
1.10604e-05
1.1055e-05
1.10442e-05
1.10281e-05
1.10067e-05
1.09801e-05
1.09485e-05
1.09119e-05
9.53821e-06
9.65108e-06
9.73416e-06
9.81609e-06
9.89661e-06
9.97548e-06
1.00524e-05
1.01272e-05
1.01996e-05
1.02693e-05
1.03361e-05
1.03998e-05
1.046e-05
1.05166e-05
1.05693e-05
1.0618e-05
1.06624e-05
1.07023e-05
1.07376e-05
1.07682e-05
1.07939e-05
1.08146e-05
1.08302e-05
1.08406e-05
1.08458e-05
1.08458e-05
1.08406e-05
1.08302e-05
1.08146e-05
1.07939e-05
1.07682e-05
1.07376e-05
9.3706e-06
9.47933e-06
9.56005e-06
9.63963e-06
9.71782e-06
9.79438e-06
9.86907e-06
9.94165e-06
1.00119e-05
1.00795e-05
1.01442e-05
1.02059e-05
1.02642e-05
1.03191e-05
1.03701e-05
1.04172e-05
1.04602e-05
1.04989e-05
1.05331e-05
1.05627e-05
1.05875e-05
1.06075e-05
1.06226e-05
1.06327e-05
1.06378e-05
1.06378e-05
1.06327e-05
1.06226e-05
1.06075e-05
1.05875e-05
1.05627e-05
1.05331e-05
9.20709e-06
9.31192e-06
9.39039e-06
9.46772e-06
9.54369e-06
9.61806e-06
9.69059e-06
9.76105e-06
9.82919e-06
9.89479e-06
9.95761e-06
1.00174e-05
1.0074e-05
1.01271e-05
1.01766e-05
1.02223e-05
1.02639e-05
1.03014e-05
1.03345e-05
1.03631e-05
1.03872e-05
1.04065e-05
1.04211e-05
1.04309e-05
1.04358e-05
1.04358e-05
1.04309e-05
1.04211e-05
1.04066e-05
1.03872e-05
1.03631e-05
1.03345e-05
9.0475e-06
9.14864e-06
9.22495e-06
9.30014e-06
9.37399e-06
9.44627e-06
9.51674e-06
9.58518e-06
9.65136e-06
9.71505e-06
9.77602e-06
9.83406e-06
9.88895e-06
9.94049e-06
9.98848e-06
1.00327e-05
1.00731e-05
1.01094e-05
1.01415e-05
1.01692e-05
1.01926e-05
1.02113e-05
1.02254e-05
1.02349e-05
1.02396e-05
1.02396e-05
1.02349e-05
1.02255e-05
1.02113e-05
1.01926e-05
1.01692e-05
1.01415e-05
8.89165e-06
8.9893e-06
9.06355e-06
9.1367e-06
9.20852e-06
9.2788e-06
9.34731e-06
9.41383e-06
9.47813e-06
9.54e-06
9.59922e-06
9.65557e-06
9.70885e-06
9.75887e-06
9.80544e-06
9.84838e-06
9.88752e-06
9.92272e-06
9.95384e-06
9.98074e-06
1.00033e-05
1.00215e-05
1.00352e-05
1.00444e-05
1.0049e-05
1.0049e-05
1.00444e-05
1.00352e-05
1.00215e-05
1.00033e-05
9.98075e-06
9.95384e-06
8.73939e-06
8.83372e-06
8.906e-06
8.9772e-06
9.04708e-06
9.11545e-06
9.18209e-06
9.24677e-06
9.30928e-06
9.36941e-06
9.42695e-06
9.4817e-06
9.53345e-06
9.58202e-06
9.62723e-06
9.66891e-06
9.7069e-06
9.74106e-06
9.77124e-06
9.79734e-06
9.81925e-06
9.83689e-06
9.85018e-06
9.85907e-06
9.86352e-06
9.86352e-06
9.85907e-06
9.85018e-06
9.83689e-06
9.81926e-06
9.79734e-06
9.77124e-06
8.59056e-06
8.68174e-06
8.75214e-06
8.82146e-06
8.8895e-06
8.95604e-06
9.02088e-06
9.08381e-06
9.14461e-06
9.20308e-06
9.25902e-06
9.31223e-06
9.36252e-06
9.40971e-06
9.45363e-06
9.49411e-06
9.53099e-06
9.56415e-06
9.59346e-06
9.61879e-06
9.64005e-06
9.65717e-06
9.67006e-06
9.67869e-06
9.68301e-06
9.68301e-06
9.67869e-06
9.67006e-06
9.65717e-06
9.64006e-06
9.61879e-06
9.59346e-06
8.44501e-06
8.53321e-06
8.6018e-06
8.66933e-06
8.73559e-06
8.80038e-06
8.8635e-06
8.92475e-06
8.98392e-06
9.0408e-06
9.09521e-06
9.14696e-06
9.19585e-06
9.24173e-06
9.28441e-06
9.32374e-06
9.35957e-06
9.39178e-06
9.42024e-06
9.44484e-06
9.46549e-06
9.48211e-06
9.49463e-06
9.503e-06
9.5072e-06
9.5072e-06
9.503e-06
9.49463e-06
9.48211e-06
9.46549e-06
9.44485e-06
9.42025e-06
8.30262e-06
8.38799e-06
8.45484e-06
8.52064e-06
8.5852e-06
8.64832e-06
8.70979e-06
8.76943e-06
8.82703e-06
8.8824e-06
8.93535e-06
8.98569e-06
9.03325e-06
9.07786e-06
9.11936e-06
9.15759e-06
9.19243e-06
9.22373e-06
9.25139e-06
9.27529e-06
9.29535e-06
9.31149e-06
9.32365e-06
9.33178e-06
9.33586e-06
9.33586e-06
9.33178e-06
9.32365e-06
9.31149e-06
9.29535e-06
9.27529e-06
9.25139e-06
8.16325e-06
8.24592e-06
8.3111e-06
8.37525e-06
8.43818e-06
8.49969e-06
8.55959e-06
8.61768e-06
8.67378e-06
8.7277e-06
8.77924e-06
8.82824e-06
8.87452e-06
8.91793e-06
8.9583e-06
8.99549e-06
9.02936e-06
9.0598e-06
9.08668e-06
9.10992e-06
9.12941e-06
9.1451e-06
9.15692e-06
9.16482e-06
9.16878e-06
9.16878e-06
9.16482e-06
9.15692e-06
9.1451e-06
9.12942e-06
9.10992e-06
9.08668e-06
8.0268e-06
8.1069e-06
8.17048e-06
8.23304e-06
8.29439e-06
8.35436e-06
8.41274e-06
8.46935e-06
8.52401e-06
8.57653e-06
8.62673e-06
8.67445e-06
8.71951e-06
8.76175e-06
8.80104e-06
8.83723e-06
8.87018e-06
8.89979e-06
8.92594e-06
8.94854e-06
8.9675e-06
8.98275e-06
8.99424e-06
9.00192e-06
9.00577e-06
9.00577e-06
9.00193e-06
8.99424e-06
8.98275e-06
8.9675e-06
8.94854e-06
8.92594e-06
7.89314e-06
7.97079e-06
8.03283e-06
8.09386e-06
8.1537e-06
8.21218e-06
8.26911e-06
8.3243e-06
8.37758e-06
8.42876e-06
8.47767e-06
8.52415e-06
8.56803e-06
8.60917e-06
8.64742e-06
8.68265e-06
8.71472e-06
8.74354e-06
8.76898e-06
8.79097e-06
8.80941e-06
8.82425e-06
8.83543e-06
8.8429e-06
8.84665e-06
8.84665e-06
8.8429e-06
8.83543e-06
8.82425e-06
8.80941e-06
8.79097e-06
8.76898e-06
7.76218e-06
7.83749e-06
7.89804e-06
7.95759e-06
8.01599e-06
8.07304e-06
8.12857e-06
8.18239e-06
8.23434e-06
8.28423e-06
8.3319e-06
8.3772e-06
8.41995e-06
8.46003e-06
8.49728e-06
8.53159e-06
8.56282e-06
8.59087e-06
8.61564e-06
8.63704e-06
8.65499e-06
8.66943e-06
8.68031e-06
8.68758e-06
8.69123e-06
8.69123e-06
8.68758e-06
8.68031e-06
8.66943e-06
8.65499e-06
8.63704e-06
8.61564e-06
7.63381e-06
7.70689e-06
7.766e-06
7.82414e-06
7.88113e-06
7.93681e-06
7.99099e-06
8.0435e-06
8.09416e-06
8.14282e-06
8.1893e-06
8.23346e-06
8.27513e-06
8.31418e-06
8.35048e-06
8.3839e-06
8.41432e-06
8.44164e-06
8.46576e-06
8.4866e-06
8.50408e-06
8.51814e-06
8.52873e-06
8.53581e-06
8.53936e-06
8.53936e-06
8.53581e-06
8.52873e-06
8.51814e-06
8.50408e-06
8.4866e-06
8.46577e-06
7.50794e-06
7.57889e-06
7.63661e-06
7.69338e-06
7.74903e-06
7.80338e-06
7.85626e-06
7.9075e-06
7.95693e-06
8.0044e-06
8.04973e-06
8.09279e-06
8.13342e-06
8.17149e-06
8.20687e-06
8.23944e-06
8.26909e-06
8.2957e-06
8.3192e-06
8.3395e-06
8.35653e-06
8.37022e-06
8.38053e-06
8.38743e-06
8.39088e-06
8.39088e-06
8.38743e-06
8.38053e-06
8.37022e-06
8.35653e-06
8.3395e-06
8.3192e-06
7.38448e-06
7.45339e-06
7.50977e-06
7.56522e-06
7.61957e-06
7.67264e-06
7.72427e-06
7.77429e-06
7.82253e-06
7.86885e-06
7.91308e-06
7.95508e-06
7.99471e-06
8.03184e-06
8.06633e-06
8.09808e-06
8.12698e-06
8.15292e-06
8.17582e-06
8.1956e-06
8.21219e-06
8.22553e-06
8.23558e-06
8.2423e-06
8.24566e-06
8.24566e-06
8.2423e-06
8.23558e-06
8.22553e-06
8.21219e-06
8.1956e-06
7.26335e-06
7.3303e-06
7.3854e-06
7.43957e-06
7.49265e-06
7.54449e-06
7.59491e-06
7.64375e-06
7.69086e-06
7.73606e-06
7.77923e-06
7.82022e-06
7.85888e-06
7.89509e-06
7.92874e-06
7.9597e-06
7.98788e-06
8.01317e-06
8.03549e-06
8.05477e-06
8.07094e-06
8.08395e-06
8.09374e-06
8.10028e-06
8.10356e-06
8.10356e-06
8.10028e-06
8.09374e-06
8.08395e-06
8.07094e-06
8.05478e-06
7.14447e-06
7.20954e-06
7.26339e-06
7.31633e-06
7.3682e-06
7.41884e-06
7.4681e-06
7.5158e-06
7.5618e-06
7.60594e-06
7.64808e-06
7.68808e-06
7.72581e-06
7.76115e-06
7.79397e-06
7.82418e-06
7.85166e-06
7.87633e-06
7.8981e-06
7.9169e-06
7.93266e-06
7.94534e-06
7.95488e-06
7.96127e-06
7.96446e-06
7.96446e-06
7.96127e-06
7.95488e-06
7.94534e-06
7.93266e-06
7.02776e-06
7.09104e-06
7.14367e-06
7.19542e-06
7.24611e-06
7.2956e-06
7.34373e-06
7.39033e-06
7.43526e-06
7.47837e-06
7.51952e-06
7.55858e-06
7.59541e-06
7.6299e-06
7.66193e-06
7.6914e-06
7.71822e-06
7.74228e-06
7.76352e-06
7.78185e-06
7.79723e-06
7.80959e-06
7.8189e-06
7.82512e-06
7.82824e-06
7.82824e-06
7.82513e-06
7.8189e-06
7.80959e-06
7.79723e-06
6.91315e-06
6.9747e-06
7.02617e-06
7.07676e-06
7.12632e-06
7.17469e-06
7.22172e-06
7.26726e-06
7.31116e-06
7.35327e-06
7.39346e-06
7.4316e-06
7.46757e-06
7.50124e-06
7.53251e-06
7.56128e-06
7.58744e-06
7.61092e-06
7.63165e-06
7.64954e-06
7.66454e-06
7.6766e-06
7.68568e-06
7.69175e-06
7.69479e-06
7.69479e-06
7.69175e-06
7.68568e-06
7.6766e-06
7.66454e-06
6.80058e-06
6.86047e-06
6.9108e-06
6.96027e-06
7.00873e-06
7.05602e-06
7.102e-06
7.14651e-06
7.18941e-06
7.23056e-06
7.26982e-06
7.30708e-06
7.3422e-06
7.37508e-06
7.40561e-06
7.4337e-06
7.45924e-06
7.48216e-06
7.50238e-06
7.51984e-06
7.53448e-06
7.54625e-06
7.55511e-06
7.56104e-06
7.564e-06
7.564e-06
7.56104e-06
7.55511e-06
7.54625e-06
7.53448e-06
6.68999e-06
6.74828e-06
6.79751e-06
6.84589e-06
6.89328e-06
6.93953e-06
6.98448e-06
7.02799e-06
7.06992e-06
7.11014e-06
7.1485e-06
7.1849e-06
7.21922e-06
7.25133e-06
7.28115e-06
7.30858e-06
7.33352e-06
7.35589e-06
7.37564e-06
7.39268e-06
7.40697e-06
7.41846e-06
7.42711e-06
7.43289e-06
7.43578e-06
7.43578e-06
7.43289e-06
7.42711e-06
7.41846e-06
7.40697e-06
6.5813e-06
6.63805e-06
6.68621e-06
6.73354e-06
6.77989e-06
6.82513e-06
6.86909e-06
6.91163e-06
6.95263e-06
6.99194e-06
7.02944e-06
7.065e-06
7.09853e-06
7.12991e-06
7.15904e-06
7.18582e-06
7.21018e-06
7.23204e-06
7.25131e-06
7.26796e-06
7.28191e-06
7.29312e-06
7.30156e-06
7.30721e-06
7.31004e-06
7.31004e-06
7.30721e-06
7.30157e-06
7.29312e-06
7.28191e-06
6.47447e-06
6.52974e-06
6.57685e-06
6.62316e-06
6.66851e-06
6.71276e-06
6.75576e-06
6.79737e-06
6.83745e-06
6.87588e-06
6.91254e-06
6.94731e-06
6.98007e-06
7.01073e-06
7.03919e-06
7.06536e-06
7.08916e-06
7.1105e-06
7.12933e-06
7.14558e-06
7.15921e-06
7.17016e-06
7.1784e-06
7.18391e-06
7.18667e-06
7.18667e-06
7.18391e-06
7.1784e-06
7.17016e-06
7.15921e-06
6.36943e-06
6.42327e-06
6.46938e-06
6.51469e-06
6.55907e-06
6.60236e-06
6.64442e-06
6.68512e-06
6.72432e-06
6.7619e-06
6.79774e-06
6.83173e-06
6.86376e-06
6.89373e-06
6.92154e-06
6.94711e-06
6.97036e-06
6.99121e-06
7.00961e-06
7.02548e-06
7.03879e-06
7.04949e-06
7.05754e-06
7.06292e-06
7.06562e-06
7.06562e-06
7.06292e-06
7.05754e-06
7.04949e-06
7.03879e-06
6.26614e-06
6.31861e-06
6.36373e-06
6.40807e-06
6.4515e-06
6.49386e-06
6.53502e-06
6.57483e-06
6.61318e-06
6.64993e-06
6.68498e-06
6.71821e-06
6.74952e-06
6.77882e-06
6.806e-06
6.83099e-06
6.85371e-06
6.87409e-06
6.89206e-06
6.90758e-06
6.92058e-06
6.93103e-06
6.93889e-06
6.94415e-06
6.94679e-06
6.94679e-06
6.94415e-06
6.93889e-06
6.93103e-06
6.92058e-06
6.16455e-06
6.21568e-06
6.25984e-06
6.30325e-06
6.34576e-06
6.38722e-06
6.42749e-06
6.46644e-06
6.50396e-06
6.53991e-06
6.57419e-06
6.60669e-06
6.6373e-06
6.66594e-06
6.69252e-06
6.71695e-06
6.73915e-06
6.75907e-06
6.77663e-06
6.79179e-06
6.8045e-06
6.81471e-06
6.82239e-06
6.82753e-06
6.8301e-06
6.8301e-06
6.82753e-06
6.82239e-06
6.81471e-06
6.8045e-06
6.06461e-06
6.11445e-06
6.15768e-06
6.20017e-06
6.24178e-06
6.28236e-06
6.32178e-06
6.3599e-06
6.3966e-06
6.43177e-06
6.4653e-06
6.49709e-06
6.52703e-06
6.55504e-06
6.58102e-06
6.6049e-06
6.62661e-06
6.64608e-06
6.66325e-06
6.67806e-06
6.69048e-06
6.70046e-06
6.70797e-06
6.71299e-06
6.7155e-06
6.7155e-06
6.71299e-06
6.70797e-06
6.70046e-06
6.69048e-06
5.96627e-06
6.01486e-06
6.05718e-06
6.09879e-06
6.13952e-06
6.17925e-06
6.21783e-06
6.25514e-06
6.29105e-06
6.32547e-06
6.35827e-06
6.38936e-06
6.41865e-06
6.44604e-06
6.47145e-06
6.4948e-06
6.51602e-06
6.53506e-06
6.55184e-06
6.56632e-06
6.57846e-06
6.58821e-06
6.59555e-06
6.60046e-06
6.60292e-06
6.60292e-06
6.60046e-06
6.59556e-06
6.58821e-06
6.57846e-06
5.8695e-06
5.91688e-06
5.95831e-06
5.99905e-06
6.03894e-06
6.07783e-06
6.11559e-06
6.15211e-06
6.18726e-06
6.22093e-06
6.25303e-06
6.28345e-06
6.31209e-06
6.33889e-06
6.36374e-06
6.38657e-06
6.40733e-06
6.42594e-06
6.44235e-06
6.45651e-06
6.46837e-06
6.47791e-06
6.48509e-06
6.48988e-06
6.49229e-06
6.49229e-06
6.48988e-06
6.48509e-06
6.47791e-06
6.46837e-06
5.77425e-06
5.82045e-06
5.86102e-06
5.90091e-06
5.93997e-06
5.97805e-06
6.01502e-06
6.05077e-06
6.08517e-06
6.11813e-06
6.14953e-06
6.1793e-06
6.20732e-06
6.23353e-06
6.25784e-06
6.28017e-06
6.30047e-06
6.31867e-06
6.33472e-06
6.34856e-06
6.36016e-06
6.36949e-06
6.3765e-06
6.38119e-06
6.38354e-06
6.38354e-06
6.3812e-06
6.37651e-06
6.36949e-06
6.36017e-06
5.68048e-06
5.72554e-06
5.76526e-06
5.80433e-06
5.84258e-06
5.87987e-06
5.91607e-06
5.95107e-06
5.98474e-06
6.017e-06
6.04773e-06
6.07685e-06
6.10428e-06
6.12991e-06
6.15369e-06
6.17554e-06
6.1954e-06
6.2132e-06
6.22889e-06
6.24243e-06
6.25378e-06
6.26289e-06
6.26975e-06
6.27434e-06
6.27664e-06
6.27664e-06
6.27434e-06
6.26975e-06
6.26289e-06
6.25378e-06
5.58816e-06
5.6321e-06
5.67101e-06
5.70927e-06
5.74674e-06
5.78325e-06
5.8187e-06
5.85296e-06
5.88592e-06
5.91749e-06
5.94758e-06
5.97607e-06
6.00291e-06
6.02799e-06
6.05126e-06
6.07263e-06
6.09205e-06
6.10947e-06
6.12482e-06
6.13806e-06
6.14915e-06
6.15807e-06
6.16478e-06
6.16926e-06
6.17151e-06
6.17151e-06
6.16927e-06
6.16478e-06
6.15807e-06
6.14915e-06
5.49725e-06
5.5401e-06
5.57821e-06
5.61569e-06
5.65239e-06
5.68815e-06
5.72286e-06
5.7564e-06
5.78867e-06
5.81958e-06
5.84902e-06
5.87691e-06
5.90317e-06
5.92772e-06
5.95048e-06
5.97139e-06
5.99039e-06
6.00743e-06
6.02244e-06
6.0354e-06
6.04625e-06
6.05497e-06
6.06153e-06
6.06592e-06
6.06811e-06
6.06811e-06
6.06592e-06
6.06153e-06
6.05497e-06
6.04625e-06
5.40772e-06
5.44951e-06
5.48683e-06
5.52355e-06
5.55949e-06
5.59452e-06
5.62851e-06
5.66135e-06
5.69295e-06
5.7232e-06
5.75202e-06
5.77932e-06
5.80502e-06
5.82904e-06
5.85132e-06
5.87178e-06
5.89037e-06
5.90703e-06
5.92172e-06
5.93439e-06
5.94501e-06
5.95354e-06
5.95996e-06
5.96425e-06
5.9664e-06
5.9664e-06
5.96425e-06
5.95996e-06
5.95354e-06
5.94501e-06
5.31954e-06
5.36028e-06
5.39684e-06
5.43281e-06
5.46802e-06
5.50233e-06
5.53562e-06
5.56778e-06
5.59872e-06
5.62833e-06
5.65655e-06
5.68327e-06
5.70842e-06
5.73193e-06
5.75373e-06
5.77375e-06
5.79194e-06
5.80824e-06
5.82261e-06
5.83501e-06
5.8454e-06
5.85374e-06
5.86002e-06
5.86422e-06
5.86632e-06
5.86632e-06
5.86422e-06
5.86002e-06
5.85374e-06
5.8454e-06
5.23267e-06
5.27239e-06
5.3082e-06
5.34345e-06
5.37794e-06
5.41155e-06
5.44415e-06
5.47564e-06
5.50593e-06
5.53493e-06
5.56255e-06
5.5887e-06
5.61332e-06
5.63633e-06
5.65766e-06
5.67725e-06
5.69505e-06
5.71101e-06
5.72507e-06
5.7372e-06
5.74736e-06
5.75552e-06
5.76167e-06
5.76577e-06
5.76783e-06
5.76783e-06
5.76577e-06
5.76167e-06
5.75552e-06
5.74736e-06
5.14708e-06
5.1858e-06
5.22089e-06
5.25543e-06
5.28922e-06
5.32213e-06
5.35406e-06
5.3849e-06
5.41456e-06
5.44295e-06
5.46999e-06
5.49559e-06
5.51969e-06
5.54221e-06
5.56309e-06
5.58226e-06
5.59968e-06
5.61529e-06
5.62905e-06
5.64092e-06
5.65086e-06
5.65885e-06
5.66486e-06
5.66888e-06
5.67089e-06
5.67089e-06
5.66888e-06
5.66486e-06
5.65885e-06
5.65086e-06
5.06276e-06
5.10049e-06
5.13487e-06
5.16871e-06
5.20182e-06
5.23406e-06
5.26532e-06
5.29553e-06
5.32457e-06
5.35237e-06
5.37884e-06
5.4039e-06
5.42749e-06
5.44953e-06
5.46996e-06
5.48873e-06
5.50578e-06
5.52105e-06
5.53452e-06
5.54613e-06
5.55586e-06
5.56367e-06
5.56956e-06
5.57349e-06
5.57545e-06
5.57545e-06
5.57349e-06
5.56956e-06
5.56367e-06
5.55586e-06
5.05011e-06
5.08328e-06
5.11571e-06
5.14729e-06
5.17791e-06
5.20749e-06
5.23592e-06
5.26314e-06
5.28906e-06
5.31359e-06
5.33668e-06
5.35826e-06
5.46232e-06
5.46996e-06
5.47572e-06
5.47957e-06
5.48149e-06
5.48149e-06
5.47957e-06
5.47572e-06
5.46996e-06
5.46232e-06
3.24739e-05
3.26815e-05
3.28395e-05
3.2946e-05
3.29996e-05
3.29996e-05
3.2946e-05
3.28395e-05
3.26815e-05
3.24739e-05
3.04018e-05
3.06254e-05
3.08076e-05
3.09461e-05
3.10395e-05
3.10864e-05
3.10864e-05
3.10395e-05
3.09461e-05
3.08076e-05
3.06254e-05
3.04018e-05
3.01393e-05
2.98406e-05
2.95089e-05
2.91476e-05
2.87598e-05
2.83492e-05
2.7919e-05
2.74725e-05
2.7013e-05
2.82994e-05
2.85647e-05
2.87976e-05
2.89957e-05
2.91569e-05
2.92794e-05
2.93619e-05
2.94034e-05
2.94034e-05
2.93619e-05
2.92794e-05
2.91569e-05
2.89957e-05
2.87976e-05
2.85647e-05
2.82994e-05
2.80044e-05
2.76824e-05
2.73363e-05
2.69691e-05
2.65837e-05
2.61829e-05
2.57697e-05
2.53466e-05
2.49162e-05
2.4481e-05
2.4043e-05
2.60608e-05
2.63717e-05
2.66605e-05
2.69248e-05
2.71622e-05
2.73703e-05
2.75471e-05
2.76909e-05
2.78001e-05
2.78736e-05
2.79105e-05
2.79105e-05
2.78736e-05
2.78001e-05
2.76909e-05
2.75471e-05
2.73703e-05
2.71622e-05
2.69249e-05
2.66606e-05
2.63717e-05
2.60608e-05
2.57303e-05
2.53829e-05
2.5021e-05
2.46472e-05
2.42637e-05
2.3873e-05
2.3477e-05
2.30778e-05
2.26772e-05
2.22769e-05
2.18783e-05
2.42965e-05
2.46114e-05
2.49105e-05
2.51915e-05
2.54523e-05
2.56905e-05
2.59041e-05
2.60913e-05
2.62502e-05
2.63793e-05
2.64773e-05
2.65432e-05
2.65763e-05
2.65763e-05
2.65432e-05
2.64773e-05
2.63793e-05
2.62502e-05
2.60913e-05
2.59042e-05
2.56905e-05
2.54523e-05
2.51916e-05
2.49105e-05
2.46114e-05
2.42965e-05
2.39679e-05
2.3628e-05
2.32786e-05
2.2922e-05
2.25601e-05
2.21945e-05
2.18269e-05
2.1459e-05
2.10919e-05
2.07269e-05
2.03652e-05
1.96445e-05
2.26976e-05
2.30083e-05
2.33081e-05
2.35951e-05
2.38672e-05
2.41226e-05
2.43592e-05
2.45751e-05
2.47686e-05
2.49379e-05
2.50816e-05
2.51982e-05
2.52866e-05
2.53461e-05
2.5376e-05
2.5376e-05
2.53461e-05
2.52866e-05
2.51982e-05
2.50816e-05
2.49379e-05
2.47686e-05
2.45751e-05
2.43592e-05
2.41226e-05
2.38672e-05
2.35951e-05
2.33081e-05
2.30083e-05
2.26976e-05
2.23779e-05
2.2051e-05
2.17186e-05
2.13824e-05
2.10437e-05
2.07041e-05
2.03648e-05
2.00268e-05
1.96913e-05
1.90322e-05
2.15505e-05
2.18444e-05
2.21296e-05
2.24044e-05
2.26671e-05
2.29159e-05
2.31491e-05
2.33649e-05
2.35617e-05
2.37378e-05
2.38918e-05
2.40223e-05
2.41282e-05
2.42085e-05
2.42625e-05
2.42896e-05
2.42896e-05
2.42625e-05
2.42085e-05
2.41282e-05
2.40223e-05
2.38918e-05
2.37378e-05
2.35617e-05
2.33649e-05
2.31491e-05
2.29159e-05
2.26671e-05
2.24044e-05
2.21296e-05
2.18444e-05
2.15505e-05
2.12495e-05
2.09431e-05
2.06326e-05
2.03194e-05
2.00048e-05
1.969e-05
1.9376e-05
1.90637e-05
1.8459e-05
2.05091e-05
2.07872e-05
2.10584e-05
2.13213e-05
2.15743e-05
2.18158e-05
2.20443e-05
2.22582e-05
2.24559e-05
2.2636e-05
2.27971e-05
2.29378e-05
2.3057e-05
2.31537e-05
2.3227e-05
2.32762e-05
2.33009e-05
2.33009e-05
2.32762e-05
2.3227e-05
2.31537e-05
2.3057e-05
2.29378e-05
2.27971e-05
2.2636e-05
2.24559e-05
2.22582e-05
2.20443e-05
2.18158e-05
2.15743e-05
2.13213e-05
2.10585e-05
2.07872e-05
2.05091e-05
2.02255e-05
1.99377e-05
1.9647e-05
1.93546e-05
1.90616e-05
1.87689e-05
1.84774e-05
1.79209e-05
1.9559e-05
1.98224e-05
2.00804e-05
2.03316e-05
2.05748e-05
2.08086e-05
2.10315e-05
2.12421e-05
2.14391e-05
2.16211e-05
2.17867e-05
2.19346e-05
2.20638e-05
2.21732e-05
2.22618e-05
2.2329e-05
2.2374e-05
2.23967e-05
2.23967e-05
2.23741e-05
2.2329e-05
2.22618e-05
2.21732e-05
2.20638e-05
2.19346e-05
2.17867e-05
2.16211e-05
2.14391e-05
2.12421e-05
2.10315e-05
2.08086e-05
2.05748e-05
2.03316e-05
2.00804e-05
1.98224e-05
1.9559e-05
1.92914e-05
1.90208e-05
1.87482e-05
1.84746e-05
1.82009e-05
1.7928e-05
1.74144e-05
1.86884e-05
1.8938e-05
1.91834e-05
1.94235e-05
1.9657e-05
1.98827e-05
2.00995e-05
2.0306e-05
2.05009e-05
2.06831e-05
2.08511e-05
2.1004e-05
2.11404e-05
2.12595e-05
2.13602e-05
2.14418e-05
2.15036e-05
2.15451e-05
2.1566e-05
2.1566e-05
2.15451e-05
2.15036e-05
2.14418e-05
2.13602e-05
2.12595e-05
2.11404e-05
2.1004e-05
2.08512e-05
2.06831e-05
2.0501e-05
2.0306e-05
2.00995e-05
1.98827e-05
1.9657e-05
1.94235e-05
1.91834e-05
1.8938e-05
1.86884e-05
1.84357e-05
1.81807e-05
1.79246e-05
1.7668e-05
1.74119e-05
1.69366e-05
1.81241e-05
1.83576e-05
1.85869e-05
1.88109e-05
1.90286e-05
1.92389e-05
1.94406e-05
1.96325e-05
1.98135e-05
1.99825e-05
2.01383e-05
2.02799e-05
2.04062e-05
2.05163e-05
2.06095e-05
2.06849e-05
2.0742e-05
2.07803e-05
2.07996e-05
2.07996e-05
2.07803e-05
2.0742e-05
2.06849e-05
2.06095e-05
2.05163e-05
2.04062e-05
2.02799e-05
2.01383e-05
1.99825e-05
1.98135e-05
1.96325e-05
1.94406e-05
1.92389e-05
1.90286e-05
1.88109e-05
1.85869e-05
1.83576e-05
1.81241e-05
1.78873e-05
1.76483e-05
1.74078e-05
1.71667e-05
1.69258e-05
1.64848e-05
1.73721e-05
1.75944e-05
1.78135e-05
1.80283e-05
1.8238e-05
1.84416e-05
1.8638e-05
1.88262e-05
1.90052e-05
1.91738e-05
1.93311e-05
1.9476e-05
1.96076e-05
1.97249e-05
1.98271e-05
1.99136e-05
1.99835e-05
2.00364e-05
2.0072e-05
2.00898e-05
2.00898e-05
2.0072e-05
2.00364e-05
1.99835e-05
1.99136e-05
1.98271e-05
1.97249e-05
1.96076e-05
1.9476e-05
1.93311e-05
1.91738e-05
1.90052e-05
1.88262e-05
1.8638e-05
1.84416e-05
1.8238e-05
1.80283e-05
1.78135e-05
1.75944e-05
1.73721e-05
1.71475e-05
1.69212e-05
1.6694e-05
1.64668e-05
1.60567e-05
1.66751e-05
1.68868e-05
1.70961e-05
1.7302e-05
1.75038e-05
1.77006e-05
1.78915e-05
1.80755e-05
1.82516e-05
1.8419e-05
1.85765e-05
1.87233e-05
1.88585e-05
1.89812e-05
1.90905e-05
1.91857e-05
1.92662e-05
1.93313e-05
1.93805e-05
1.94136e-05
1.94302e-05
1.94302e-05
1.94136e-05