/*--------------------------------*- C++ -*----------------------------------*\
  =========                 |
  \\      /  F ield         | OpenFOAM: The Open Source CFD Toolbox
   \\    /   O peration     | Website:  https://openfoam.org
    \\  /    A nd           | Version:  7
     \\/     M anipulation  |
\*---------------------------------------------------------------------------*/
FoamFile
{
    version     2.0;
    format      ascii;
    class       volScalarField;
    location    "24000";
    object      strainRate;
}
// * * * * * * * * * * * * * * * * * * * * * * * * * * * * * * * * * * * * * //

dimensions      [0 0 -1 0 0 0 0];

internalField   nonuniform List<scalar> 
4838
(
0.00290829
0.00277748
0.0027534
0.00272066
0.0026845
0.00264748
0.00261053
0.00257411
0.00253848
0.00250387
0.00247046
0.00243843
0.00240795
0.00237917
0.00235225
0.00232731
0.0023045
0.00228391
0.00226565
0.00224983
0.00223652
0.00222579
0.00221769
0.00221227
0.00220955
0.00220956
0.00221228
0.00221771
0.00222582
0.00223656
0.00224988
0.00226572
0.00228397
0.00230457
0.00232739
0.00235233
0.00237926
0.00240804
0.00243852
0.00247055
0.00250397
0.00253859
0.00257422
0.00261065
0.0026476
0.00268463
0.00272078
0.00275353
0.00277762
0.00290835
0.00345924
0.00315256
0.00311954
0.00307337
0.00302033
0.00296477
0.00290907
0.00285444
0.00280154
0.00275075
0.00270231
0.00265638
0.00261311
0.00257264
0.00253508
0.00250054
0.00246912
0.00244092
0.00241603
0.00239453
0.0023765
0.00236199
0.00235107
0.00234377
0.00234011
0.00234011
0.00234378
0.00235109
0.00236203
0.00237655
0.00239459
0.00241609
0.00244099
0.0024692
0.00250062
0.00253517
0.00257274
0.00261322
0.00265648
0.00270241
0.00275087
0.00280166
0.00285456
0.00290919
0.00296491
0.00302047
0.00307351
0.00311968
0.0031527
0.00345934
0.00362502
0.00328079
0.00323401
0.00318706
0.00313697
0.00308461
0.00303145
0.00297868
0.00292712
0.00287731
0.0028296
0.00278425
0.00274145
0.00270137
0.00266414
0.00262988
0.00259871
0.00257073
0.00254603
0.0025247
0.0025068
0.00249241
0.00248156
0.00247432
0.00247069
0.0024707
0.00247433
0.00248159
0.00249244
0.00250685
0.00252475
0.00254609
0.0025708
0.00259879
0.00262997
0.00266423
0.00270147
0.00274156
0.00278436
0.00282971
0.00287743
0.00292724
0.0029788
0.00303158
0.00308474
0.00313711
0.0031872
0.00323415
0.00328093
0.00362511
0.00376674
0.00342812
0.00336797
0.00331381
0.00326132
0.0032089
0.00315653
0.0031047
0.00305398
0.00300486
0.00295771
0.0029128
0.00287037
0.0028306
0.00279363
0.00275961
0.00272865
0.00270085
0.00267631
0.00265511
0.00263733
0.00262303
0.00261226
0.00260506
0.00260146
0.00260147
0.00260508
0.00261229
0.00262307
0.00263738
0.00265517
0.00267637
0.00270092
0.00272872
0.0027597
0.00279373
0.0028307
0.00287047
0.00291291
0.00295781
0.00300498
0.0030541
0.00310482
0.00315665
0.00320903
0.00326145
0.00331395
0.0033681
0.00342825
0.00376683
0.00389789
0.003575
0.00350849
0.00344826
0.00339189
0.00333759
0.00328458
0.00323274
0.00318229
0.0031335
0.00308668
0.00304208
0.00299992
0.00296038
0.00292362
0.00288978
0.00285898
0.00283133
0.00280692
0.00278583
0.00276815
0.00275393
0.00274322
0.00273606
0.00273247
0.00273248
0.00273608
0.00274325
0.00275396
0.00276819
0.00278588
0.00280697
0.00283139
0.00285905
0.00288985
0.0029237
0.00296046
0.003
0.00304217
0.00308678
0.00313361
0.0031824
0.00323286
0.0032847
0.00333771
0.00339201
0.00344839
0.00350862
0.00357513
0.00389798
0.00402514
0.00371914
0.00365
0.00358609
0.00352643
0.00346983
0.00341548
0.00336298
0.00331226
0.00326344
0.00321669
0.00317221
0.00313019
0.00309079
0.00305417
0.00302045
0.00298977
0.00296222
0.00293791
0.00291691
0.0028993
0.00288514
0.00287448
0.00286735
0.00286378
0.00286378
0.00286736
0.0028745
0.00288517
0.00289934
0.00291695
0.00293795
0.00296227
0.00298983
0.00302051
0.00305423
0.00309085
0.00313026
0.0031723
0.00321679
0.00326354
0.00331237
0.00336309
0.00341559
0.00346994
0.00352654
0.00358621
0.00365012
0.00371926
0.00402523
0.00415124
0.00386109
0.00379089
0.00372495
0.00366299
0.00360441
0.00354859
0.00349512
0.00344383
0.00339469
0.0033478
0.00330327
0.00326125
0.00322189
0.00318532
0.00315167
0.00312106
0.00309358
0.00306932
0.00304838
0.00303082
0.0030167
0.00300607
0.00299897
0.00299541
0.00299542
0.00299898
0.00300609
0.00301673
0.00303085
0.00304842
0.00306936
0.00309362
0.0031211
0.00315172
0.00318538
0.00322195
0.00326132
0.00330335
0.00334789
0.00339479
0.00344393
0.00349522
0.00354868
0.00360451
0.00366309
0.00372505
0.003791
0.0038612
0.00415132
0.00427743
0.00400165
0.00393099
0.00386392
0.00380047
0.00374037
0.00368324
0.00362877
0.00357677
0.00352715
0.00347995
0.00343523
0.00339312
0.0033537
0.00331712
0.00328347
0.00325288
0.00322542
0.0032012
0.00318029
0.00316276
0.00314867
0.00313806
0.00313096
0.00312741
0.00312742
0.00313098
0.00313807
0.00314869
0.00316278
0.00318032
0.00320123
0.00322546
0.00325292
0.00328353
0.00331718
0.00335377
0.00339319
0.00343533
0.00348004
0.00352725
0.00357686
0.00362886
0.00368333
0.00374045
0.00380056
0.00386401
0.0039311
0.00400177
0.00427752
0.00440432
0.00414147
0.00407055
0.00400281
0.00393836
0.00387714
0.00381894
0.00376355
0.00371083
0.00366068
0.00361308
0.00356809
0.00352578
0.00348624
0.00344958
0.00341588
0.00338526
0.00335779
0.00333357
0.00331267
0.00329515
0.00328106
0.00327046
0.00326337
0.00325983
0.00325983
0.00326338
0.00327047
0.00328108
0.00329516
0.00331269
0.00333361
0.00335784
0.00338531
0.00341594
0.00344964
0.00348632
0.00352586
0.00356818
0.00361316
0.00366076
0.00371091
0.00376363
0.00381902
0.00387722
0.00393844
0.00400289
0.00407065
0.00414158
0.0044044
0.00453221
0.00428097
0.00420986
0.00414165
0.00407652
0.00401446
0.00395541
0.00389923
0.00384582
0.00379511
0.00374709
0.00370178
0.00365922
0.0036195
0.00358271
0.00354892
0.00351823
0.00349072
0.00346647
0.00344555
0.00342801
0.00341392
0.00340332
0.00339623
0.00339269
0.00339269
0.00339624
0.00340333
0.00341394
0.00342804
0.00344558
0.00346651
0.00349077
0.00351829
0.00354898
0.00358278
0.00361958
0.0036593
0.00370186
0.00374717
0.00379519
0.00384589
0.0038993
0.00395547
0.00401453
0.00407658
0.00414173
0.00420995
0.00428107
0.00453227
0.00466125
0.00442047
0.00434917
0.0042806
0.00421493
0.00415224
0.00409249
0.00403563
0.0039816
0.00393037
0.00388191
0.00383624
0.00379341
0.00375347
0.00371651
0.00368259
0.0036518
0.00362423
0.00359992
0.00357896
0.0035614
0.00354729
0.00353668
0.00352958
0.00352603
0.00352604
0.0035296
0.0035367
0.00354732
0.00356144
0.003579
0.00359997
0.00362428
0.00365187
0.00368266
0.00371658
0.00375355
0.00379348
0.00383631
0.00388198
0.00393044
0.00398167
0.00403569
0.00409254
0.00415229
0.00421499
0.00428066
0.00434924
0.00442056
0.00466129
0.00479152
0.00456018
0.00448867
0.00441978
0.00435368
0.00429045
0.00423012
0.00417268
0.0041181
0.00406637
0.00401748
0.00397145
0.00392832
0.00388814
0.00385099
0.00381692
0.00378601
0.00375834
0.00373396
0.00371295
0.00369535
0.00368121
0.00367057
0.00366347
0.00365991
0.00365992
0.00366348
0.0036706
0.00368125
0.00369539
0.003713
0.00373401
0.00375839
0.00378608
0.00381699
0.00385106
0.00388822
0.00392839
0.00397152
0.00401755
0.00406643
0.00411816
0.00417274
0.00423017
0.0042905
0.00435373
0.00441983
0.00448873
0.00456026
0.00479156
0.00492309
0.00470028
0.00462853
0.00455934
0.00449285
0.00442916
0.00436832
0.00431037
0.00425529
0.00420309
0.00415378
0.00410739
0.00406395
0.00402352
0.00398616
0.00395192
0.00392087
0.00389308
0.00386862
0.00384753
0.00382988
0.0038157
0.00380504
0.00379792
0.00379436
0.00379436
0.00379794
0.00380507
0.00381575
0.00382993
0.00384759
0.00386868
0.00389315
0.00392094
0.00395199
0.00398624
0.00402361
0.00406404
0.00410747
0.00415386
0.00420315
0.00425534
0.0043104
0.00436836
0.00442919
0.00449288
0.00455938
0.00462859
0.00470035
0.00492311
0.00505599
0.00484091
0.00476889
0.00469938
0.00463252
0.00456841
0.00450713
0.0044487
0.00439316
0.00434053
0.00429082
0.00424407
0.00420032
0.00415962
0.00412203
0.0040876
0.00405641
0.00402849
0.00400392
0.00398276
0.00396504
0.00395081
0.00394012
0.00393298
0.0039294
0.00392941
0.00393299
0.00394015
0.00395085
0.00396509
0.00398281
0.00400399
0.00402856
0.00405649
0.0040877
0.00412213
0.00415972
0.00420042
0.00424416
0.00429089
0.00434058
0.0043932
0.00444872
0.00450714
0.00456843
0.00463254
0.00469941
0.00476893
0.00484097
0.005056
0.00519024
0.00498218
0.00490986
0.00484002
0.0047728
0.00470829
0.00464657
0.00458771
0.00453174
0.0044787
0.00442861
0.00438151
0.00433745
0.00429648
0.00425864
0.00422401
0.00419265
0.00416459
0.00413991
0.00411865
0.00410086
0.00408658
0.00407585
0.00406868
0.00406509
0.00406509
0.00406869
0.00407587
0.00408661
0.00410091
0.00411871
0.00413998
0.00416468
0.00419274
0.00422412
0.00425875
0.00429658
0.00433754
0.00438159
0.00442867
0.00447874
0.00453177
0.00458773
0.00464659
0.0047083
0.00477281
0.00484004
0.00490989
0.00498223
0.00519023
0.00532587
0.00512421
0.00505155
0.00498135
0.00491376
0.00484886
0.00478674
0.00472745
0.00467107
0.00461763
0.00456716
0.00451973
0.00447536
0.0044341
0.00439603
0.00436118
0.00432963
0.00430143
0.00427662
0.00425526
0.00423739
0.00422304
0.00421226
0.00420505
0.00420145
0.00420145
0.00420507
0.00421228
0.00422307
0.00423743
0.00425532
0.0042767
0.00430152
0.00432974
0.0043613
0.00439614
0.0044342
0.00447543
0.00451979
0.00456722
0.00461766
0.00467109
0.00472747
0.00478674
0.00484886
0.00491377
0.00498137
0.00505157
0.00512424
0.00532583
0.00546289
0.00526707
0.00519405
0.00512348
0.0050555
0.0049902
0.00492767
0.00486798
0.00481119
0.00475736
0.00470652
0.00465874
0.00461406
0.00457253
0.0045342
0.00449914
0.0044674
0.00443903
0.00441409
0.00439261
0.00437465
0.00436023
0.00434939
0.00434216
0.00433854
0.00433855
0.00434217
0.00434941
0.00436027
0.0043747
0.00439268
0.00441418
0.00443914
0.00446752
0.00449926
0.00453432
0.00457263
0.00461414
0.00465881
0.00470657
0.00475739
0.0048112
0.00486798
0.00492767
0.00499019
0.0050555
0.00512349
0.00519406
0.00526708
0.00546283
0.00560133
0.00541083
0.00533742
0.00526646
0.00519808
0.00513237
0.00506943
0.00500934
0.00495215
0.00489793
0.00484673
0.0047986
0.00475361
0.0047118
0.00467322
0.00463793
0.00460599
0.00457745
0.00455236
0.00453076
0.00451269
0.00449821
0.00448731
0.00448004
0.0044764
0.00447641
0.00448005
0.00448734
0.00449825
0.00451276
0.00453084
0.00455246
0.00457757
0.00460612
0.00463805
0.00467333
0.0047119
0.00475369
0.00479867
0.00484678
0.00489796
0.00495216
0.00500933
0.00506942
0.00513236
0.00519807
0.00526646
0.00533743
0.00541083
0.00560126
0.00574123
0.00555558
0.00548174
0.00541037
0.00534157
0.00527545
0.00521209
0.00515159
0.005094
0.00503939
0.00498782
0.00493936
0.00489405
0.00485195
0.00481311
0.00477759
0.00474544
0.00471671
0.00469147
0.00466975
0.00465158
0.00463701
0.00462605
0.00461874
0.00461509
0.0046151
0.00461877
0.00462609
0.00463706
0.00465165
0.00466984
0.00469159
0.00471684
0.00474556
0.00477771
0.00481322
0.00485204
0.00489413
0.00493943
0.00498787
0.00503942
0.005094
0.00515158
0.00521208
0.00527543
0.00534156
0.00541037
0.00548175
0.00555557
0.00574113
0.00562711
0.00555528
0.00548605
0.0054195
0.00535572
0.00529479
0.0052368
0.0051818
0.00512987
0.00508105
0.00503542
0.00499303
0.00495392
0.00491816
0.0048858
0.00485689
0.00483148
0.00480963
0.00479135
0.00477669
0.00476567
0.00475831
0.00475464
0.00475465
0.00475835
0.00476571
0.00477674
0.00479142
0.00480972
0.00483161
0.00485702
0.00488592
0.00491827
0.00495402
0.00499311
0.0050355
0.00508112
0.00512991
0.00518182
0.0052368
0.00529479
0.00535571
0.00541949
0.00548605
0.0055553
0.00562712
0.00570137
0.00588247
0.00570129
0.00563157
0.00556457
0.00550036
0.00543901
0.00538061
0.00532522
0.00527291
0.00522373
0.00517777
0.00513507
0.0050957
0.00505969
0.0050271
0.004998
0.00497243
0.00495044
0.00493204
0.00491729
0.00490621
0.00489881
0.00489512
0.00489513
0.00489884
0.00490626
0.00491736
0.00493213
0.00495054
0.00497256
0.00499814
0.00502724
0.00505981
0.00509579
0.00513516
0.00517785
0.00522379
0.00527295
0.00532524
0.00538062
0.00543902
0.00550038
0.0055646
0.00563161
0.00570131
0.00577358
0.00584831
0.00602532
0.00571077
0.0056461
0.00558431
0.00552548
0.00546969
0.00541699
0.00536745
0.00532115
0.00527814
0.00523848
0.00520222
0.00516941
0.00514011
0.00511437
0.00509223
0.00507371
0.00505886
0.00504771
0.00504028
0.00503656
0.00503656
0.0050403
0.00504777
0.00505895
0.00507382
0.00509234
0.00511451
0.00514026
0.00516956
0.00520236
0.0052386
0.00527825
0.00532124
0.00536751
0.00541704
0.00546972
0.00552551
0.00558435
0.00564614
0.00571082
0.00577829
0.00584846
0.00592121
0.00599645
0.00616972
0.005793
0.00573075
0.00567148
0.00561527
0.00556217
0.00551226
0.00546561
0.00542228
0.00538232
0.0053458
0.00531276
0.00528326
0.00525735
0.00523505
0.00521642
0.00520147
0.00519025
0.00518277
0.00517902
0.00517902
0.00518279
0.0051903
0.00520157
0.00521653
0.00523519
0.00525749
0.00528342
0.00531293
0.00534596
0.00538247
0.00542241
0.00546572
0.00551234
0.00556223
0.00561531
0.00567153
0.00573081
0.00579305
0.00585819
0.00592615
0.00599681
0.00607008
0.00614585
0.00631569
0.00587842
0.00581866
0.00576201
0.00570851
0.00565821
0.0056112
0.00556754
0.00552727
0.00549048
0.00545721
0.0054275
0.00540141
0.00537896
0.0053602
0.00534516
0.00533387
0.00532632
0.00532255
0.00532255
0.00532635
0.00533391
0.00534525
0.00536033
0.00537911
0.00540157
0.00542768
0.0054574
0.00549067
0.00552746
0.0055677
0.00561134
0.00565832
0.00570858
0.00576207
0.00581873
0.00587846
0.00594117
0.0060068
0.00607526
0.00614645
0.00622025
0.00629657
0.00646326
0.00591
0.00585606
0.00580537
0.00575797
0.00571397
0.0056734
0.00563633
0.00560282
0.0055729
0.00554661
0.005524
0.00550511
0.00548997
0.0054786
0.005471
0.0054672
0.00546721
0.00547103
0.00547865
0.00549007
0.00550526
0.00552418
0.0055468
0.0055731
0.00560304
0.00563656
0.00567363
0.00571418
0.00575815
0.0058055
0.00585616
0.00591007
0.00596717
0.00602736
0.00609057
0.00615671
0.00622569
0.00629742
0.00637178
0.00644867
0.00661248
0.00600492
0.00595381
0.00590603
0.00586165
0.00582077
0.00578341
0.00574964
0.00571949
0.005693
0.00567023
0.00565121
0.00563596
0.0056245
0.00561685
0.00561303
0.00561304
0.00561689
0.00562458
0.00563608
0.00565137
0.00567043
0.00569323
0.00571974
0.0057499
0.00578368
0.00582103
0.00586189
0.00590622
0.00595394
0.00600501
0.00605936
0.00611691
0.00617759
0.0062413
0.00630796
0.00637749
0.00644978
0.00652474
0.00660224
0.00676342
0.00596945
0.00593178
0.00589773
0.00586733
0.00584065
0.00581771
0.00579854
0.00578317
0.00577162
0.00576392
0.00576008
0.0057601
0.00576399
0.00577174
0.00578332
0.00579872
0.00581793
0.00584091
0.00586762
0.00589804
0.00593208
0.00596972
0.00601091
0.0060556
0.00610371
0.00615521
0.00621
0.00626802
0.00632919
0.00639343
0.00646064
0.00653073
0.00660362
0.0066792
0.00675733
0.0069161
0.00598965
0.0059665
0.00594718
0.00593168
0.00592004
0.00591228
0.00590841
0.00590845
0.00591238
0.00592018
0.00593184
0.00594736
0.00596673
0.0059899
0.00601683
0.00604749
0.00608181
0.00611975
0.00616128
0.00620634
0.00625487
0.00630679
0.00636204
0.00642055
0.00648225
0.00654703
0.00661482
0.0066855
0.006759
0.00683522
0.00691402
0.00707057
0.0060972
0.00608157
0.00606983
0.00606199
0.0060581
0.00605815
0.00606211
0.00606997
0.00608172
0.00609737
0.0061169
0.00614025
0.00616741
0.00619832
0.00623293
0.00627119
0.00631307
0.00635851
0.00640745
0.00645982
0.00651555
0.00657458
0.00663681
0.00670216
0.00677055
0.00684186
0.00691599
0.00699286
0.00707235
0.00722689
0.00620923
0.00620927
0.00621326
0.00622117
0.00623302
0.00624881
0.00626847
0.00629202
0.00631942
0.0063506
0.00638551
0.0064241
0.00646634
0.00651216
0.00656154
0.00661437
0.0066706
0.00673016
0.00679294
0.00685889
0.0069279
0.00699985
0.00707465
0.0071522
0.00723239
0.00738512
0.00640174
0.00642155
0.00644529
0.00647293
0.00650438
0.0065396
0.00657855
0.00662116
0.00666738
0.00671719
0.00677051
0.00682726
0.00688736
0.00695072
0.00701728
0.00708692
0.00715954
0.00723503
0.0073133
0.00739423
0.00754531
0.00662802
0.00665973
0.00669528
0.00673458
0.00677757
0.00682422
0.00687449
0.0069283
0.00698558
0.00704625
0.00711022
0.0071774
0.0072477
0.007321
0.00739722
0.00747624
0.00755793
0.00770751
0.00685261
0.00689225
0.00693563
0.00698273
0.00703347
0.00708779
0.00714564
0.00720689
0.00727149
0.00733931
0.00741029
0.0074843
0.00756127
0.00764107
0.00772356
0.00787181
0.00701165
0.00705163
0.00709542
0.00714299
0.00719421
0.00724907
0.00730748
0.00736935
0.00743459
0.00750308
0.00757477
0.00764951
0.00772726
0.00780786
0.00789119
0.00803824
0.00717248
0.00721282
0.00725703
0.00730506
0.00735679
0.0074122
0.0074712
0.0075337
0.00759959
0.00766878
0.00774121
0.00781673
0.00789527
0.0079767
0.00806089
0.00820688
0.00746906
0.00752132
0.00757728
0.00763688
0.0077
0.00776657
0.00783649
0.00790967
0.00798601
0.00806536
0.00814766
0.00823274
0.0083778
0.00793564
0.00800631
0.00808025
0.00815742
0.00823762
0.00832081
0.0084068
0.00855106
0.00833108
0.00841216
0.00849625
0.00858318
0.00872677
0.00221799
0.00221254
0.0022098
0.00220978
0.00221247
0.00221788
0.00222595
0.00223667
0.00224996
0.00226577
0.002284
0.00230457
0.00232738
0.0023523
0.00237921
0.00240798
0.00243845
0.00247047
0.00250388
0.00253849
0.00257411
0.00261054
0.00264748
0.0026845
0.00272065
0.00275339
0.00277746
0.00290848
0.00235134
0.00234401
0.00234032
0.00234029
0.00234393
0.00235121
0.00236211
0.0023766
0.00239462
0.0024161
0.00244097
0.00246916
0.00250056
0.0025351
0.00257265
0.00261311
0.00265637
0.00270229
0.00275073
0.00280152
0.00285442
0.00290905
0.00296476
0.00302032
0.00307336
0.00311953
0.00315255
0.00345937
0.0024818
0.00247452
0.00247086
0.00247084
0.00247444
0.00248167
0.00249249
0.00250687
0.00252475
0.00254607
0.00257075
0.00259872
0.00262989
0.00266414
0.00270136
0.00274144
0.00278423
0.00282957
0.00287728
0.0029271
0.00297866
0.00303142
0.00308459
0.00313696
0.00318705
0.003234
0.00328078
0.00362514
0.00261246
0.00260523
0.0026016
0.00260157
0.00260516
0.00261234
0.00262309
0.00263737
0.00265513
0.00267632
0.00270084
0.00272864
0.00275959
0.00279361
0.00283057
0.00287034
0.00291276
0.00295767
0.00300482
0.00305395
0.00310467
0.0031565
0.00320888
0.00326129
0.0033138
0.00336796
0.00342811
0.00376684
0.00274338
0.00273619
0.00273257
0.00273255
0.00273611
0.00274326
0.00275395
0.00276815
0.00278582
0.00280689
0.00283129
0.00285894
0.00288973
0.00292356
0.00296031
0.00299985
0.00304201
0.00308662
0.00313345
0.00318224
0.0032327
0.00328454
0.00333756
0.00339186
0.00344824
0.00350847
0.00357498
0.00389798
0.0028746
0.00286744
0.00286384
0.00286381
0.00286736
0.00287447
0.00288512
0.00289926
0.00291686
0.00293784
0.00296215
0.00298969
0.00302036
0.00305407
0.00309069
0.00313009
0.00317212
0.00321661
0.00326337
0.0033122
0.00336292
0.00341543
0.00346978
0.00352638
0.00358606
0.00364998
0.00371912
0.00402521
0.00300616
0.00299902
0.00299543
0.00299541
0.00299894
0.00300603
0.00301664
0.00303075
0.00304829
0.00306922
0.00309346
0.00312094
0.00315155
0.0031852
0.00322177
0.00326114
0.00330317
0.00334771
0.00339461
0.00344376
0.00349505
0.00354852
0.00360435
0.00366294
0.0037249
0.00379085
0.00386106
0.0041513
0.0031381
0.00313098
0.0031274
0.00312737
0.0031309
0.00313797
0.00314856
0.00316264
0.00318016
0.00320106
0.00322528
0.00325273
0.00328333
0.00331698
0.00335357
0.00339299
0.00343513
0.00347985
0.00352706
0.00357668
0.00362868
0.00368316
0.00374029
0.0038004
0.00386387
0.00393095
0.00400163
0.00427748
0.00327047
0.00326335
0.00325977
0.00325974
0.00326327
0.00327034
0.00328092
0.00329499
0.0033125
0.00333341
0.00335763
0.00338509
0.00341572
0.00344942
0.0034861
0.00352565
0.00356797
0.00361296
0.00366056
0.00371072
0.00376346
0.00381885
0.00387706
0.00393829
0.00400274
0.0040705
0.00414144
0.00440436
0.00340329
0.00339616
0.00339259
0.00339256
0.00339609
0.00340316
0.00341375
0.00342783
0.00344536
0.00346628
0.00349053
0.00351804
0.00354874
0.00358254
0.00361935
0.00365907
0.00370163
0.00374695
0.00379498
0.0038457
0.00389912
0.0039553
0.00401437
0.00407643
0.00414158
0.00420981
0.00428094
0.00453223
0.0035366
0.00352947
0.00352589
0.00352587
0.0035294
0.00353649
0.00354709
0.00356119
0.00357875
0.00359971
0.00362401
0.0036516
0.00368239
0.00371632
0.00375329
0.00379324
0.00383607
0.00388175
0.00393023
0.00398147
0.00403551
0.00409237
0.00415213
0.00421485
0.00428052
0.00434911
0.00442043
0.00466126
0.00367045
0.00366331
0.00365973
0.00365971
0.00366325
0.00367035
0.00368098
0.00369512
0.00371271
0.00373372
0.0037581
0.00378578
0.0038167
0.00385078
0.00388795
0.00392813
0.00397127
0.00401731
0.00406622
0.00411796
0.00417255
0.00423
0.00429035
0.00435359
0.0044197
0.00448861
0.00456015
0.00479154
0.00380487
0.00379772
0.00379413
0.00379411
0.00379766
0.00380478
0.00381544
0.00382962
0.00384728
0.00386836
0.00389283
0.00392063
0.00395168
0.00398594
0.00402332
0.00406376
0.00410721
0.00415361
0.00420293
0.00425514
0.00431022
0.00436819
0.00442904
0.00449275
0.00455926
0.00462848
0.00470025
0.0049231
0.00393992
0.00393275
0.00392915
0.00392913
0.00393269
0.00393983
0.00395052
0.00396475
0.00398248
0.00400365
0.00402823
0.00405615
0.00408737
0.00412181
0.00415941
0.00420012
0.00424388
0.00429064
0.00434035
0.004393
0.00444854
0.00450699
0.0045683
0.00463242
0.00469931
0.00476884
0.00484088
0.005056
0.00411837
0.00413964
0.00416433
0.0041924
0.00422378
0.00425842
0.00429626
0.00433724
0.0043813
0.00442841
0.00447851
0.00453157
0.00458755
0.00464644
0.00470818
0.0047727
0.00483995
0.00490982
0.00498217
0.00519025
0.00461745
0.0046709
0.0047273
0.0047866
0.00484875
0.00491368
0.0049813
0.00505152
0.0051242
0.00532588
0.00499011
0.00505543
0.00512344
0.00519403
0.00526706
0.0054629
0.00533744
0.00541085
0.00560135
0.00917588
0.00936518
0.00955738
0.00627147
0.00642445
0.00657894
0.00673501
0.00689273
0.00705217
0.00721341
0.00737651
0.0075415
0.00770849
0.00787757
0.0080488
0.00822227
0.00839804
0.00857621
0.00875686
0.0089401
0.00912599
0.00931464
0.00950617
0.00578381
0.00593224
0.00608202
0.0062332
0.00638584
0.00653998
0.0066957
0.00685307
0.00701216
0.00717301
0.0073357
0.00750029
0.00766685
0.00783547
0.00800624
0.00817922
0.00835453
0.00853222
0.00871238
0.0088951
0.00908046
0.00926855
0.00945949
0.00575001
0.00589819
0.00604771
0.0061986
0.00635093
0.00650476
0.00666017
0.00681723
0.00697598
0.00713648
0.00729881
0.00746304
0.00762923
0.00779746
0.00796782
0.00814039
0.00831525
0.00849248
0.00867218
0.0088544
0.00903927
0.00922688
0.00941732
0.00571986
0.00586781
0.00601708
0.00616772
0.00631979
0.00647335
0.00662847
0.00678523
0.00694368
0.00710387
0.00726589
0.0074298
0.00759565
0.00776354
0.00793355
0.00810576
0.00828024
0.00845708
0.00863634
0.00881814
0.00900256
0.00918969
0.00937967
0.0056934
0.00584113
0.00599017
0.00614059
0.00629244
0.00644576
0.00660064
0.00675713
0.00691531
0.00707524
0.00723698
0.00740061
0.00756618
0.00773378
0.00790348
0.00807535
0.00824949
0.00842597
0.00860488
0.00878631
0.00897035
0.0091571
0.00934667
0.00291736
0.00304882
0.00318071
0.00331308
0.00344596
0.00357937
0.00371334
0.00384791
0.00398312
0.00411901
0.0042556
0.00439295
0.00453111
0.00467011
0.00480998
0.00495078
0.00509257
0.00523539
0.0053793
0.00552436
0.00567065
0.00581819
0.00596704
0.00611727
0.00626891
0.00642204
0.0065767
0.00673298
0.00689094
0.00705063
0.00721212
0.00737549
0.00754081
0.00770817
0.00787761
0.00804921
0.00822306
0.00839924
0.00857783
0.00875896
0.00894269
0.00912911
0.00931832
0.00289974
0.00303125
0.00316318
0.00329555
0.00342842
0.0035618
0.00369573
0.00383025
0.0039654
0.0041012
0.00423772
0.00437498
0.00451305
0.00465194
0.00479171
0.00493241
0.00507408
0.00521678
0.00536056
0.00550549
0.00565163
0.00579902
0.00594772
0.00609778
0.00624925
0.00640221
0.00655671
0.00671281
0.00687057
0.00703006
0.00719135
0.00735451
0.00751962
0.00768676
0.00785599
0.00802736
0.00820097
0.00837692
0.00855527
0.00873612
0.00891958
0.0091057
0.00929461
0.00288556
0.00301712
0.00314907
0.00328146
0.00341433
0.00354769
0.00368158
0.00381606
0.00395116
0.00408691
0.00422337
0.00436057
0.00449855
0.00463736
0.00477706
0.00491767
0.00505925
0.00520185
0.00534553
0.00549035
0.00563637
0.00578365
0.00593223
0.00608216
0.00623351
0.00638634
0.00654069
0.00669664
0.00685423
0.00701356
0.00717469
0.00733769
0.00750265
0.00766961
0.00783864
0.00800984
0.00818327
0.00835902
0.00853716
0.00871779
0.00890102
0.00908694
0.00927565
0.00221821
0.00235157
0.00248203
0.0026127
0.00274363
0.00287488
0.00300647
0.00313845
0.00327085
0.00340371
0.00353706
0.00367094
0.00380539
0.00394045
0.00407617
0.00421258
0.00434973
0.00448766
0.00462642
0.00476604
0.00490659
0.00504811
0.00519064
0.00533423
0.00547897
0.00562492
0.00577211
0.0059206
0.00607043
0.00622168
0.0063744
0.00652865
0.00668448
0.00684196
0.00700118
0.0071622
0.00732509
0.0074899
0.00765671
0.00782561
0.00799666
0.00816995
0.00834555
0.00852356
0.00870404
0.00888711
0.00907285
0.00926138
0.00221276
0.00234424
0.00247476
0.00260548
0.00273646
0.00286773
0.00299935
0.00313135
0.00326376
0.00339662
0.00352996
0.00366383
0.00379826
0.0039333
0.00406899
0.00420537
0.00434249
0.00448039
0.00461912
0.0047587
0.0048992
0.00504067
0.00518315
0.00532671
0.0054714
0.00561728
0.00576441
0.00591283
0.0060626
0.00621378
0.00636642
0.0065206
0.00667637
0.00683379
0.00699293
0.00715386
0.00731665
0.00748136
0.00764809
0.0078169
0.00798787
0.00816107
0.00833657
0.00851448
0.00869488
0.00887784
0.00906346
0.00925188
0.00221002
0.00234056
0.00247111
0.00260186
0.00273285
0.00286414
0.00299577
0.00312778
0.0032602
0.00339306
0.0035264
0.00366026
0.00379469
0.00392972
0.00406539
0.00420176
0.00433887
0.00447675
0.00461546
0.00475503
0.00489551
0.00503696
0.00517943
0.00532296
0.00546762
0.00561347
0.00576056
0.00590894
0.00605868
0.00620981
0.00636242
0.00651656
0.00667231
0.0068297
0.0069888
0.00714969
0.00731242
0.00747708
0.00764377
0.00781255
0.00798348
0.00815663
0.00833209
0.00850995
0.00869029
0.0088732
0.00905877
0.00924712
0.00221
0.00234054
0.00247109
0.00260184
0.00273284
0.00286413
0.00299576
0.00312776
0.00326018
0.00339305
0.00352639
0.00366025
0.00379468
0.00392971
0.00406539
0.00420177
0.00433887
0.00447676
0.00461546
0.00475504
0.00489552
0.00503698
0.00517944
0.00532298
0.00546765
0.0056135
0.00576058
0.00590895
0.00605867
0.0062098
0.00636242
0.00651657
0.00667231
0.0068297
0.0069888
0.00714968
0.00731241
0.00747708
0.00764376
0.00781255
0.00798347
0.00815662
0.00833208
0.00850995
0.00869031
0.00887323
0.0090588
0.00924715
0.0022127
0.00234418
0.00247471
0.00260543
0.00273641
0.00286769
0.0029993
0.0031313
0.00326372
0.00339659
0.00352993
0.0036638
0.00379824
0.00393328
0.00406898
0.00420538
0.0043425
0.00448041
0.00461913
0.00475872
0.00489923
0.00504072
0.00518321
0.00532678
0.00547147
0.00561735
0.00576445
0.00591285
0.0060626
0.00621376
0.00636641
0.00652059
0.00667636
0.00683379
0.00699294
0.00715386
0.00731664
0.00748134
0.00764807
0.00781688
0.00798785
0.00816104
0.00833655
0.00851446
0.00869487
0.00887785
0.00906349
0.00925194
0.00221811
0.00235146
0.00248194
0.00261262
0.00274356
0.0028748
0.0030064
0.00313839
0.0032708
0.00340366
0.00353702
0.0036709
0.00380535
0.00394043
0.00407616
0.00421258
0.00434975
0.00448768
0.00462644
0.00476608
0.00490664
0.00504817
0.00519072
0.00533435
0.0054791
0.00562502
0.00577218
0.00592063
0.00607045
0.00622169
0.0063744
0.00652864
0.00668447
0.00684196
0.00700118
0.00716219
0.00732507
0.00748987
0.00765667
0.00782556
0.00799662
0.0081699
0.00834549
0.00852351
0.00870404
0.00888713
0.00907289
0.00926145
0.00222619
0.00236237
0.00249277
0.00262337
0.00275425
0.00288546
0.00301702
0.00314899
0.00328139
0.00341426
0.00354762
0.00368152
0.00381601
0.00395112
0.0040869
0.00422337
0.00436058
0.00449857
0.0046374
0.00477711
0.00491774
0.00505933
0.00520195
0.00534566
0.0054905
0.0056365
0.00578375
0.0059323
0.00608221
0.00623354
0.00638635
0.00654069
0.00669663
0.00685422
0.00701355
0.00717466
0.00733766
0.00750261
0.00766956
0.00783858
0.00800977
0.0081832
0.00835895
0.00853712
0.00871778
0.00890103
0.00908696
0.00927567
0.00223691
0.00237686
0.00250714
0.00263766
0.00276847
0.00289961
0.00303113
0.00316307
0.00329547
0.00342833
0.00356172
0.00369565
0.00383018
0.00396535
0.00410118
0.00423771
0.00437499
0.00451307
0.00465198
0.00479177
0.00493249
0.00507418
0.00521691
0.00536072
0.00550566
0.00565178
0.00579915
0.00594782
0.00609785
0.00624931
0.00640224
0.00655672
0.0067128
0.00687053
0.00703001
0.0071913
0.00735447
0.00751958
0.00768671
0.00785592
0.00802728
0.00820089
0.00837685
0.00855524
0.00873612
0.00891957
0.0091057
0.00929462
0.0022502
0.00239488
0.00252503
0.00265543
0.00278614
0.00291721
0.00304868
0.00318059
0.00331297
0.00344585
0.00357926
0.00371324
0.00384783
0.00398306
0.00411896
0.00425558
0.00439295
0.00453113
0.00467014
0.00481004
0.00495088
0.0050927
0.00523555
0.00537948
0.00552455
0.00567082
0.00581833
0.00596715
0.00611734
0.00626897
0.00642208
0.00657673
0.00673297
0.00689089
0.00705057
0.00721208
0.00737545
0.00754076
0.0077081
0.00787753
0.00804914
0.00822299
0.00839917
0.00857779
0.00875893
0.00894267
0.00912909
0.00931831
0.00226601
0.00241636
0.00254635
0.00267661
0.00280721
0.0029382
0.00306961
0.00320149
0.00333386
0.00346675
0.00360021
0.00373425
0.00386891
0.00400422
0.00414022
0.00427694
0.00441443
0.00455271
0.00469185
0.00483188
0.00497286
0.00511484
0.00525784
0.00540194
0.00554717
0.0056936
0.00584129
0.00599029
0.00614067
0.00629249
0.0064458
0.00660066
0.00675713
0.00691528
0.00707519
0.00723694
0.00740056
0.00756612
0.00773371
0.00790339
0.00807527
0.00824942
0.00842592
0.00860485
0.00878629
0.00897034
0.00915709
0.00934664
0.00228424
0.00244123
0.00257103
0.00270114
0.00283161
0.0029625
0.00309385
0.0032257
0.00335806
0.00349099
0.0036245
0.00375862
0.00389337
0.00402878
0.0041649
0.00430175
0.00443936
0.00457779
0.00471708
0.00485728
0.00499842
0.00514056
0.00528374
0.00542803
0.00557345
0.00572008
0.00586797
0.0060172
0.0061678
0.00631985
0.00647338
0.00662848
0.00678522
0.00694365
0.00710383
0.00726584
0.00742975
0.00759562
0.00776351
0.00793351
0.0081057
0.00828018