/*--------------------------------*- C++ -*----------------------------------*\
  =========                 |
  \\      /  F ield         | OpenFOAM: The Open Source CFD Toolbox
   \\    /   O peration     | Website:  https://openfoam.org
    \\  /    A nd           | Version:  7
     \\/     M anipulation  |
\*---------------------------------------------------------------------------*/
FoamFile
{
    version     2.0;
    format      ascii;
    class       volScalarField;
    location    "164000";
    object      nut;
}
// * * * * * * * * * * * * * * * * * * * * * * * * * * * * * * * * * * * * * //

dimensions      [0 2 -1 0 0 0 0];

internalField   nonuniform List<scalar> 
4850
(
2.80237e-05
2.80988e-05
2.78766e-05
2.79538e-05
2.80276e-05
2.77252e-05
2.78045e-05
2.78803e-05
2.79528e-05
2.8022e-05
2.75697e-05
2.76509e-05
2.77287e-05
2.78032e-05
2.78743e-05
2.7942e-05
2.74101e-05
2.74933e-05
2.75729e-05
2.76493e-05
2.77223e-05
2.77918e-05
2.78579e-05
2.72467e-05
2.73317e-05
2.74131e-05
2.74913e-05
2.7566e-05
2.76373e-05
2.77051e-05
2.77694e-05
2.783e-05
2.70794e-05
2.71662e-05
2.72494e-05
2.73293e-05
2.74058e-05
2.74787e-05
2.75482e-05
2.7614e-05
2.76762e-05
2.77348e-05
2.69086e-05
2.6997e-05
2.70819e-05
2.71635e-05
2.72416e-05
2.73161e-05
2.73871e-05
2.74545e-05
2.75182e-05
2.75782e-05
2.76345e-05
2.7687e-05
2.77358e-05
2.77808e-05
2.67341e-05
2.68241e-05
2.69107e-05
2.69938e-05
2.70735e-05
2.71496e-05
2.72222e-05
2.7291e-05
2.73561e-05
2.74175e-05
2.74751e-05
2.75289e-05
2.75788e-05
2.76249e-05
2.76672e-05
2.77056e-05
2.77402e-05
2.77709e-05
2.65562e-05
2.66478e-05
2.67359e-05
2.68206e-05
2.69018e-05
2.69794e-05
2.70534e-05
2.71236e-05
2.71901e-05
2.72528e-05
2.73117e-05
2.73666e-05
2.74177e-05
2.74649e-05
2.75082e-05
2.75475e-05
2.75829e-05
2.76143e-05
2.76419e-05
2.76654e-05
2.6375e-05
2.64681e-05
2.65576e-05
2.66438e-05
2.67264e-05
2.68055e-05
2.68808e-05
2.69525e-05
2.70203e-05
2.70842e-05
2.71443e-05
2.72004e-05
2.72526e-05
2.73008e-05
2.7345e-05
2.73852e-05
2.74214e-05
2.74536e-05
2.74818e-05
2.75059e-05
2.7526e-05
2.75421e-05
2.75542e-05
2.75622e-05
2.61905e-05
2.6285e-05
2.6376e-05
2.64636e-05
2.65476e-05
2.6628e-05
2.67047e-05
2.67777e-05
2.68467e-05
2.69119e-05
2.69731e-05
2.70304e-05
2.70836e-05
2.71328e-05
2.71779e-05
2.7219e-05
2.7256e-05
2.72888e-05
2.73176e-05
2.73423e-05
2.73628e-05
2.73793e-05
2.73916e-05
2.73998e-05
2.74039e-05
2.74039e-05
2.73998e-05
2.73916e-05
2.73793e-05
2.6003e-05
2.60988e-05
2.61912e-05
2.62801e-05
2.63655e-05
2.64472e-05
2.65252e-05
2.65993e-05
2.66696e-05
2.67359e-05
2.67983e-05
2.68566e-05
2.69108e-05
2.6961e-05
2.7007e-05
2.70488e-05
2.70865e-05
2.71201e-05
2.71494e-05
2.71746e-05
2.71956e-05
2.72124e-05
2.7225e-05
2.72334e-05
2.72376e-05
2.72376e-05
2.72334e-05
2.7225e-05
2.72124e-05
2.71956e-05
2.71746e-05
2.71494e-05
2.58124e-05
2.59096e-05
2.60032e-05
2.60934e-05
2.618e-05
2.6263e-05
2.63422e-05
2.64175e-05
2.6489e-05
2.65564e-05
2.66198e-05
2.66792e-05
2.67344e-05
2.67854e-05
2.68323e-05
2.68749e-05
2.69133e-05
2.69475e-05
2.69774e-05
2.70031e-05
2.70245e-05
2.70416e-05
2.70544e-05
2.7063e-05
2.70673e-05
2.70673e-05
2.7063e-05
2.70544e-05
2.70416e-05
2.70245e-05
2.70031e-05
2.69774e-05
2.69475e-05
2.69133e-05
2.56189e-05
2.57173e-05
2.58122e-05
2.59036e-05
2.59915e-05
2.60756e-05
2.6156e-05
2.62325e-05
2.6305e-05
2.63735e-05
2.64379e-05
2.64982e-05
2.65544e-05
2.66063e-05
2.66539e-05
2.66973e-05
2.67364e-05
2.67712e-05
2.68017e-05
2.68278e-05
2.68496e-05
2.6867e-05
2.68801e-05
2.68888e-05
2.68932e-05
2.68932e-05
2.68888e-05
2.68801e-05
2.6867e-05
2.68496e-05
2.68278e-05
2.68017e-05
2.67712e-05
2.67364e-05
2.54227e-05
2.55222e-05
2.56183e-05
2.57109e-05
2.57998e-05
2.58851e-05
2.59666e-05
2.60442e-05
2.61178e-05
2.61873e-05
2.62527e-05
2.63139e-05
2.63709e-05
2.64237e-05
2.64721e-05
2.65162e-05
2.65559e-05
2.65913e-05
2.66223e-05
2.66488e-05
2.6671e-05
2.66887e-05
2.6702e-05
2.67109e-05
2.67154e-05
2.67154e-05
2.67109e-05
2.6702e-05
2.66887e-05
2.6671e-05
2.66489e-05
2.66223e-05
2.65913e-05
2.65559e-05
2.52237e-05
2.53244e-05
2.54215e-05
2.55152e-05
2.56053e-05
2.56917e-05
2.57742e-05
2.58528e-05
2.59274e-05
2.59979e-05
2.60642e-05
2.61263e-05
2.61842e-05
2.62377e-05
2.62868e-05
2.63316e-05
2.6372e-05
2.64079e-05
2.64394e-05
2.64664e-05
2.64889e-05
2.65069e-05
2.65204e-05
2.65295e-05
2.6534e-05
2.6534e-05
2.65295e-05
2.65204e-05
2.65069e-05
2.64889e-05
2.64664e-05
2.64394e-05
2.64079e-05
2.6372e-05
2.50221e-05
2.51238e-05
2.52221e-05
2.53168e-05
2.54079e-05
2.54953e-05
2.55788e-05
2.56584e-05
2.5734e-05
2.58054e-05
2.58726e-05
2.59355e-05
2.59942e-05
2.60485e-05
2.60983e-05
2.61437e-05
2.61847e-05
2.62212e-05
2.62531e-05
2.62805e-05
2.63034e-05
2.63217e-05
2.63354e-05
2.63445e-05
2.63491e-05
2.63491e-05
2.63445e-05
2.63354e-05
2.63217e-05
2.63034e-05
2.62805e-05
2.62531e-05
2.62212e-05
2.61847e-05
2.48181e-05
2.49208e-05
2.502e-05
2.51157e-05
2.52078e-05
2.52962e-05
2.53807e-05
2.54612e-05
2.55376e-05
2.56099e-05
2.56779e-05
2.57417e-05
2.58011e-05
2.58561e-05
2.59066e-05
2.59527e-05
2.59942e-05
2.60311e-05
2.60635e-05
2.60913e-05
2.61145e-05
2.61331e-05
2.6147e-05
2.61563e-05
2.61609e-05
2.61609e-05
2.61563e-05
2.6147e-05
2.61331e-05
2.61145e-05
2.60913e-05
2.60635e-05
2.60311e-05
2.59942e-05
2.46116e-05
2.47152e-05
2.48154e-05
2.4912e-05
2.50051e-05
2.50943e-05
2.51797e-05
2.52611e-05
2.53384e-05
2.54115e-05
2.54804e-05
2.55449e-05
2.5605e-05
2.56607e-05
2.57118e-05
2.57585e-05
2.58005e-05
2.5838e-05
2.58708e-05
2.58989e-05
2.59224e-05
2.59412e-05
2.59554e-05
2.59648e-05
2.59695e-05
2.59695e-05
2.59648e-05
2.59554e-05
2.59412e-05
2.59224e-05
2.58989e-05
2.58708e-05
2.5838e-05
2.58005e-05
2.44028e-05
2.45073e-05
2.46083e-05
2.47059e-05
2.47998e-05
2.48899e-05
2.49762e-05
2.50584e-05
2.51365e-05
2.52104e-05
2.528e-05
2.53452e-05
2.5406e-05
2.54623e-05
2.55141e-05
2.55613e-05
2.56038e-05
2.56417e-05
2.5675e-05
2.57035e-05
2.57273e-05
2.57463e-05
2.57606e-05
2.57701e-05
2.57749e-05
2.57749e-05
2.57701e-05
2.57606e-05
2.57463e-05
2.57273e-05
2.57035e-05
2.5675e-05
2.56418e-05
2.56039e-05
2.41918e-05
2.42971e-05
2.4399e-05
2.44973e-05
2.45921e-05
2.4683e-05
2.47701e-05
2.48531e-05
2.4932e-05
2.50066e-05
2.50769e-05
2.51428e-05
2.52043e-05
2.52612e-05
2.53135e-05
2.53612e-05
2.54042e-05
2.54426e-05
2.54762e-05
2.5505e-05
2.55291e-05
2.55484e-05
2.55628e-05
2.55725e-05
2.55773e-05
2.55773e-05
2.55725e-05
2.55628e-05
2.55484e-05
2.55291e-05
2.5505e-05
2.54762e-05
2.54426e-05
2.54043e-05
2.39786e-05
2.40847e-05
2.41874e-05
2.42865e-05
2.4382e-05
2.44737e-05
2.45615e-05
2.46453e-05
2.47249e-05
2.48002e-05
2.48712e-05
2.49377e-05
2.49998e-05
2.50573e-05
2.51101e-05
2.51583e-05
2.52018e-05
2.52406e-05
2.52745e-05
2.53037e-05
2.5328e-05
2.53475e-05
2.53621e-05
2.53719e-05
2.53768e-05
2.53768e-05
2.53719e-05
2.53621e-05
2.53475e-05
2.5328e-05
2.53037e-05
2.52746e-05
2.52406e-05
2.52019e-05
2.51584e-05
2.37634e-05
2.38703e-05
2.39736e-05
2.40735e-05
2.41697e-05
2.42622e-05
2.43507e-05
2.44351e-05
2.45154e-05
2.45913e-05
2.4663e-05
2.47301e-05
2.47927e-05
2.48508e-05
2.49041e-05
2.49528e-05
2.49967e-05
2.50358e-05
2.50702e-05
2.50996e-05
2.51242e-05
2.51439e-05
2.51586e-05
2.51685e-05
2.51734e-05
2.51734e-05
2.51685e-05
2.51586e-05
2.51439e-05
2.51242e-05
2.50996e-05
2.50702e-05
2.50359e-05
2.49967e-05
2.49528e-05
2.35463e-05
2.36538e-05
2.37578e-05
2.38584e-05
2.39553e-05
2.40484e-05
2.41375e-05
2.42226e-05
2.43035e-05
2.43801e-05
2.44523e-05
2.452e-05
2.45832e-05
2.46417e-05
2.46956e-05
2.47447e-05
2.4789e-05
2.48285e-05
2.48631e-05
2.48928e-05
2.49177e-05
2.49375e-05
2.49524e-05
2.49624e-05
2.49674e-05
2.49674e-05
2.49624e-05
2.49525e-05
2.49375e-05
2.49177e-05
2.48928e-05
2.48631e-05
2.48285e-05
2.4789e-05
2.47447e-05
2.33273e-05
2.34354e-05
2.35401e-05
2.36412e-05
2.37388e-05
2.38325e-05
2.39223e-05
2.40079e-05
2.40894e-05
2.41666e-05
2.42393e-05
2.43076e-05
2.43712e-05
2.44303e-05
2.44845e-05
2.45341e-05
2.45788e-05
2.46186e-05
2.46535e-05
2.46835e-05
2.47085e-05
2.47286e-05
2.47436e-05
2.47537e-05
2.47587e-05
2.47587e-05
2.47537e-05
2.47436e-05
2.47286e-05
2.47085e-05
2.46835e-05
2.46535e-05
2.46186e-05
2.45788e-05
2.31066e-05
2.32152e-05
2.33204e-05
2.34222e-05
2.35203e-05
2.36146e-05
2.37049e-05
2.37911e-05
2.38732e-05
2.39509e-05
2.40241e-05
2.40929e-05
2.4157e-05
2.42164e-05
2.42712e-05
2.43211e-05
2.43661e-05
2.44063e-05
2.44415e-05
2.44717e-05
2.44969e-05
2.45172e-05
2.45323e-05
2.45425e-05
2.45475e-05
2.45475e-05
2.45425e-05
2.45323e-05
2.45172e-05
2.44969e-05
2.44717e-05
2.44415e-05
2.44063e-05
2.43661e-05
2.28841e-05
2.29932e-05
2.3099e-05
2.32013e-05
2.32999e-05
2.33947e-05
2.34856e-05
2.35723e-05
2.36549e-05
2.3733e-05
2.38068e-05
2.3876e-05
2.39405e-05
2.40004e-05
2.40555e-05
2.41058e-05
2.41511e-05
2.41916e-05
2.42271e-05
2.42575e-05
2.4283e-05
2.43033e-05
2.43186e-05
2.43288e-05
2.43339e-05
2.43339e-05
2.43288e-05
2.43186e-05
2.43033e-05
2.4283e-05
2.42575e-05
2.42271e-05
2.41916e-05
2.41512e-05
2.266e-05
2.27696e-05
2.28758e-05
2.29786e-05
2.30777e-05
2.3173e-05
2.32644e-05
2.33516e-05
2.34346e-05
2.35132e-05
2.35874e-05
2.3657e-05
2.3722e-05
2.37822e-05
2.38377e-05
2.38883e-05
2.39339e-05
2.39747e-05
2.40104e-05
2.40411e-05
2.40667e-05
2.40872e-05
2.41026e-05
2.41129e-05
2.4118e-05
2.4118e-05
2.41129e-05
2.41026e-05
2.40872e-05
2.40667e-05
2.40411e-05
2.40104e-05
2.39747e-05
2.3934e-05
2.24344e-05
2.25444e-05
2.26511e-05
2.27543e-05
2.28538e-05
2.29496e-05
2.30413e-05
2.3129e-05
2.32124e-05
2.32915e-05
2.3366e-05
2.3436e-05
2.35014e-05
2.3562e-05
2.36178e-05
2.36687e-05
2.37146e-05
2.37556e-05
2.37915e-05
2.38224e-05
2.38482e-05
2.38688e-05
2.38843e-05
2.38947e-05
2.38999e-05
2.38999e-05
2.38947e-05
2.38844e-05
2.38688e-05
2.38482e-05
2.38224e-05
2.37915e-05
2.37556e-05
2.22074e-05
2.23178e-05
2.24248e-05
2.25284e-05
2.26283e-05
2.27244e-05
2.28166e-05
2.29046e-05
2.29884e-05
2.30679e-05
2.31428e-05
2.32132e-05
2.32788e-05
2.33398e-05
2.33958e-05
2.3447e-05
2.34932e-05
2.35345e-05
2.35706e-05
2.36017e-05
2.36276e-05
2.36484e-05
2.3664e-05
2.36744e-05
2.36796e-05
2.36796e-05
2.36744e-05
2.3664e-05
2.36484e-05
2.36276e-05
2.36017e-05
2.35706e-05
2.35345e-05
2.1979e-05
2.20897e-05
2.2197e-05
2.23009e-05
2.24012e-05
2.24977e-05
2.25902e-05
2.26786e-05
2.27628e-05
2.28425e-05
2.29178e-05
2.29885e-05
2.30545e-05
2.31157e-05
2.3172e-05
2.32235e-05
2.32699e-05
2.33114e-05
2.33477e-05
2.33789e-05
2.3405e-05
2.34259e-05
2.34416e-05
2.3452e-05
2.34573e-05
2.34573e-05
2.3452e-05
2.34416e-05
2.34259e-05
2.3405e-05
2.33789e-05
2.33477e-05
2.17493e-05
2.18602e-05
2.19679e-05
2.20721e-05
2.21727e-05
2.22695e-05
2.23623e-05
2.2451e-05
2.25355e-05
2.26155e-05
2.26911e-05
2.27621e-05
2.28283e-05
2.28898e-05
2.29464e-05
2.29981e-05
2.30448e-05
2.30864e-05
2.31229e-05
2.31543e-05
2.31805e-05
2.32015e-05
2.32172e-05
2.32277e-05
2.3233e-05
2.3233e-05
2.32277e-05
2.32172e-05
2.32015e-05
2.31805e-05
2.31543e-05
2.31229e-05
2.15183e-05
2.16295e-05
2.17374e-05
2.18419e-05
2.19427e-05
2.20398e-05
2.21329e-05
2.22219e-05
2.23066e-05
2.2387e-05
2.24628e-05
2.2534e-05
2.26005e-05
2.26622e-05
2.2719e-05
2.27709e-05
2.28178e-05
2.28596e-05
2.28963e-05
2.29278e-05
2.29541e-05
2.29752e-05
2.2991e-05
2.30016e-05
2.30069e-05
2.30069e-05
2.30016e-05
2.2991e-05
2.29752e-05
2.29541e-05
2.29278e-05
2.28963e-05
2.12863e-05
2.13977e-05
2.15057e-05
2.16104e-05
2.17115e-05
2.18088e-05
2.19021e-05
2.19913e-05
2.20763e-05
2.21569e-05
2.22329e-05
2.23044e-05
2.23711e-05
2.2433e-05
2.249e-05
2.25421e-05
2.25891e-05
2.26311e-05
2.26679e-05
2.26995e-05
2.2726e-05
2.27471e-05
2.2763e-05
2.27736e-05
2.2779e-05
2.2779e-05
2.27736e-05
2.2763e-05
2.27471e-05
2.2726e-05
2.26996e-05
2.26679e-05
2.10531e-05
2.11647e-05
2.12729e-05
2.13778e-05
2.1479e-05
2.15765e-05
2.167e-05
2.17594e-05
2.18446e-05
2.19254e-05
2.20016e-05
2.20733e-05
2.21402e-05
2.22023e-05
2.22595e-05
2.23117e-05
2.23589e-05
2.2401e-05
2.24379e-05
2.24697e-05
2.24962e-05
2.25174e-05
2.25334e-05
2.2544e-05
2.25493e-05
2.25494e-05
2.2544e-05
2.25334e-05
2.25174e-05
2.24962e-05
2.24697e-05
2.24379e-05
2.0819e-05
2.09307e-05
2.1039e-05
2.1144e-05
2.12454e-05
2.1343e-05
2.14367e-05
2.15263e-05
2.16116e-05
2.16925e-05
2.1769e-05
2.18408e-05
2.19078e-05
2.19701e-05
2.20274e-05
2.20798e-05
2.21271e-05
2.21693e-05
2.22064e-05
2.22382e-05
2.22648e-05
2.22861e-05
2.23021e-05
2.23128e-05
2.23181e-05
2.23181e-05
2.23128e-05
2.23021e-05
2.22861e-05
2.22648e-05
2.22382e-05
2.22064e-05
2.0584e-05
2.06957e-05
2.08041e-05
2.09092e-05
2.10107e-05
2.11084e-05
2.12022e-05
2.12919e-05
2.13774e-05
2.14584e-05
2.1535e-05
2.16069e-05
2.16741e-05
2.17365e-05
2.1794e-05
2.18465e-05
2.18939e-05
2.19362e-05
2.19734e-05
2.20053e-05
2.20319e-05
2.20533e-05
2.20693e-05
2.208e-05
2.20854e-05
2.20854e-05
2.20801e-05
2.20693e-05
2.20533e-05
2.20319e-05
2.20053e-05
2.19734e-05
2.03481e-05
2.04598e-05
2.05683e-05
2.06734e-05
2.07749e-05
2.08728e-05
2.09666e-05
2.10564e-05
2.1142e-05
2.12231e-05
2.12998e-05
2.13718e-05
2.14392e-05
2.15016e-05
2.15592e-05
2.16118e-05
2.16593e-05
2.17017e-05
2.17389e-05
2.17709e-05
2.17976e-05
2.1819e-05
2.18351e-05
2.18459e-05
2.18512e-05
2.18512e-05
2.18459e-05
2.18351e-05
2.18191e-05
2.17976e-05
2.17709e-05
2.17389e-05
2.01114e-05
2.02231e-05
2.03316e-05
2.04367e-05
2.05383e-05
2.06361e-05
2.07301e-05
2.08199e-05
2.09055e-05
2.09867e-05
2.10635e-05
2.11356e-05
2.1203e-05
2.12655e-05
2.13232e-05
2.13759e-05
2.14235e-05
2.14659e-05
2.15032e-05
2.15352e-05
2.1562e-05
2.15835e-05
2.15996e-05
2.16103e-05
2.16157e-05
2.16157e-05
2.16103e-05
2.15996e-05
2.15835e-05
2.1562e-05
2.15352e-05
2.15032e-05
1.9874e-05
1.99856e-05
2.00941e-05
2.01992e-05
2.03007e-05
2.03986e-05
2.04925e-05
2.05824e-05
2.0668e-05
2.07493e-05
2.08261e-05
2.08983e-05
2.09657e-05
2.10283e-05
2.1086e-05
2.11387e-05
2.11864e-05
2.12289e-05
2.12662e-05
2.12983e-05
2.13251e-05
2.13466e-05
2.13627e-05
2.13735e-05
2.13789e-05
2.13789e-05
2.13735e-05
2.13627e-05
2.13466e-05
2.13251e-05
2.12983e-05
2.12662e-05
1.9636e-05
1.97475e-05
1.98558e-05
1.99609e-05
2.00624e-05
2.01602e-05
2.02541e-05
2.0344e-05
2.04296e-05
2.05109e-05
2.05877e-05
2.06599e-05
2.07274e-05
2.079e-05
2.08478e-05
2.09005e-05
2.09482e-05
2.09907e-05
2.10281e-05
2.10602e-05
2.1087e-05
2.11085e-05
2.11247e-05
2.11355e-05
2.11409e-05
2.11409e-05
2.11355e-05
2.11247e-05
2.11085e-05
2.1087e-05
2.10602e-05
2.10281e-05
1.93974e-05
1.95087e-05
1.9617e-05
1.97219e-05
1.98234e-05
1.99211e-05
2.0015e-05
2.01048e-05
2.01904e-05
2.02716e-05
2.03484e-05
2.04206e-05
2.04881e-05
2.05507e-05
2.06085e-05
2.06612e-05
2.07089e-05
2.07515e-05
2.07889e-05
2.0821e-05
2.08478e-05
2.08694e-05
2.08855e-05
2.08963e-05
2.09017e-05
2.09017e-05
2.08963e-05
2.08855e-05
2.08694e-05
2.08478e-05
2.0821e-05
2.07889e-05
1.91582e-05
1.92694e-05
1.93775e-05
1.94823e-05
1.95836e-05
1.96813e-05
1.9775e-05
1.98648e-05
1.99503e-05
2.00315e-05
2.01083e-05
2.01804e-05
2.02479e-05
2.03105e-05
2.03682e-05
2.0421e-05
2.04687e-05
2.05113e-05
2.05486e-05
2.05808e-05
2.06076e-05
2.06291e-05
2.06453e-05
2.06561e-05
2.06615e-05
2.06615e-05
2.06561e-05
2.06453e-05
2.06291e-05
2.06076e-05
2.05808e-05
2.05487e-05
1.89186e-05
1.90296e-05
1.91375e-05
1.92421e-05
1.93433e-05
1.94408e-05
1.95345e-05
1.96241e-05
1.97095e-05
1.97907e-05
1.98673e-05
1.99394e-05
2.00068e-05
2.00694e-05
2.01271e-05
2.01799e-05
2.02276e-05
2.02701e-05
2.03075e-05
2.03396e-05
2.03664e-05
2.0388e-05
2.04041e-05
2.04149e-05
2.04203e-05
2.04203e-05
2.04149e-05
2.04041e-05
2.0388e-05
2.03664e-05
2.03396e-05
2.03075e-05
1.86786e-05
1.87894e-05
1.88971e-05
1.90015e-05
1.91025e-05
1.91998e-05
1.92933e-05
1.93828e-05
1.94681e-05
1.95491e-05
1.96257e-05
1.96977e-05
1.9765e-05
1.98276e-05
1.98852e-05
1.99379e-05
1.99856e-05
2.00281e-05
2.00654e-05
2.00976e-05
2.01244e-05
2.01459e-05
2.0162e-05
2.01728e-05
2.01782e-05
2.01782e-05
2.01728e-05
2.0162e-05
2.01459e-05
2.01244e-05
2.00976e-05
2.00655e-05
1.84383e-05
1.85488e-05
1.86562e-05
1.87604e-05
1.88612e-05
1.89583e-05
1.90516e-05
1.91409e-05
1.92261e-05
1.9307e-05
1.93834e-05
1.94553e-05
1.95226e-05
1.9585e-05
1.96426e-05
1.96952e-05
1.97428e-05
1.97853e-05
1.98226e-05
1.98547e-05
1.98815e-05
1.9903e-05
1.99191e-05
1.99299e-05
1.99353e-05
1.99353e-05
1.99299e-05
1.99191e-05
1.9903e-05
1.98815e-05
1.98547e-05
1.81977e-05
1.83079e-05
1.8415e-05
1.85189e-05
1.86194e-05
1.87163e-05
1.88094e-05
1.88985e-05
1.89835e-05
1.90643e-05
1.91406e-05
1.92123e-05
1.92795e-05
1.93418e-05
1.93993e-05
1.94519e-05
1.94994e-05
1.95418e-05
1.95791e-05
1.96111e-05
1.96379e-05
1.96593e-05
1.96755e-05
1.96862e-05
1.96916e-05
1.96916e-05
1.96862e-05
1.96755e-05
1.96593e-05
1.96379e-05
1.96111e-05
1.79569e-05
1.80668e-05
1.81735e-05
1.82772e-05
1.83774e-05
1.8474e-05
1.85669e-05
1.86557e-05
1.87405e-05
1.88211e-05
1.88972e-05
1.89688e-05
1.90358e-05
1.9098e-05
1.91554e-05
1.92079e-05
1.92553e-05
1.92977e-05
1.93349e-05
1.93668e-05
1.93936e-05
1.9415e-05
1.94311e-05
1.94418e-05
1.94472e-05
1.94472e-05
1.94418e-05
1.94311e-05
1.9415e-05
1.93936e-05
1.7716e-05
1.78254e-05
1.79319e-05
1.80351e-05
1.8135e-05
1.82314e-05
1.83239e-05
1.84126e-05
1.84971e-05
1.85775e-05
1.86534e-05
1.87248e-05
1.87916e-05
1.88537e-05
1.8911e-05
1.89633e-05
1.90107e-05
1.90529e-05
1.90901e-05
1.9122e-05
1.91487e-05
1.917e-05
1.91861e-05
1.91968e-05
1.92022e-05
1.92022e-05
1.91968e-05
1.91861e-05
1.917e-05
1.91487e-05
1.74749e-05
1.7584e-05
1.769e-05
1.77929e-05
1.78925e-05
1.79885e-05
1.80808e-05
1.81691e-05
1.82534e-05
1.83335e-05
1.84092e-05
1.84804e-05
1.85471e-05
1.8609e-05
1.86661e-05
1.87183e-05
1.87655e-05
1.88077e-05
1.88447e-05
1.88766e-05
1.89032e-05
1.89245e-05
1.89406e-05
1.89513e-05
1.89566e-05
1.89566e-05
1.89513e-05
1.89406e-05
1.89245e-05
1.89032e-05
1.72339e-05
1.73424e-05
1.74481e-05
1.75506e-05
1.76498e-05
1.77454e-05
1.78374e-05
1.79254e-05
1.80094e-05
1.80892e-05
1.81647e-05
1.82357e-05
1.83021e-05
1.83639e-05
1.84208e-05
1.84729e-05
1.852e-05
1.8562e-05
1.8599e-05
1.86307e-05
1.86573e-05
1.86786e-05
1.86946e-05
1.87052e-05
1.87106e-05
1.87106e-05
1.87052e-05
1.86946e-05
1.86786e-05
1.86573e-05
1.69928e-05
1.71009e-05
1.72061e-05
1.73082e-05
1.74069e-05
1.75022e-05
1.75938e-05
1.76815e-05
1.77652e-05
1.78447e-05
1.79199e-05
1.79907e-05
1.80569e-05
1.81184e-05
1.81752e-05
1.82271e-05
1.8274e-05
1.8316e-05
1.83528e-05
1.83845e-05
1.84109e-05
1.84322e-05
1.84481e-05
1.84587e-05
1.84641e-05
1.84641e-05
1.84587e-05
1.84481e-05
1.84322e-05
1.84109e-05
1.67518e-05
1.68594e-05
1.69641e-05
1.70657e-05
1.71641e-05
1.72589e-05
1.73501e-05
1.74375e-05
1.75208e-05
1.76e-05
1.76749e-05
1.77454e-05
1.78114e-05
1.78727e-05
1.79293e-05
1.7981e-05
1.80278e-05
1.80696e-05
1.81063e-05
1.81378e-05
1.81642e-05
1.81854e-05
1.82013e-05
1.82119e-05
1.82172e-05
1.82172e-05
1.82119e-05
1.82013e-05
1.81854e-05
1.81642e-05
1.65109e-05
1.6618e-05
1.67222e-05
1.68233e-05
1.69212e-05
1.70156e-05
1.71064e-05
1.71934e-05
1.72764e-05
1.73552e-05
1.74298e-05
1.75001e-05
1.75658e-05
1.76268e-05
1.76832e-05
1.77347e-05
1.77813e-05
1.78229e-05
1.78595e-05
1.7891e-05
1.79173e-05
1.79383e-05
1.79542e-05
1.79648e-05
1.797e-05
1.797e-05
1.79648e-05
1.79542e-05
1.79383e-05
1.79173e-05
1.62702e-05
1.63767e-05
1.64804e-05
1.6581e-05
1.66784e-05
1.67724e-05
1.68627e-05
1.69493e-05
1.70319e-05
1.71104e-05
1.71846e-05
1.72546e-05
1.732e-05
1.73808e-05
1.74369e-05
1.74882e-05
1.75346e-05
1.75761e-05
1.76125e-05
1.76439e-05
1.767e-05
1.7691e-05
1.77068e-05
1.77174e-05
1.77226e-05
1.77226e-05
1.77174e-05
1.77068e-05
1.76911e-05
1.767e-05
1.60297e-05
1.61356e-05
1.62387e-05
1.63388e-05
1.64357e-05
1.65292e-05
1.66191e-05
1.67052e-05
1.67874e-05
1.68655e-05
1.69394e-05
1.7009e-05
1.70741e-05
1.71347e-05
1.71905e-05
1.72416e-05
1.72878e-05
1.73291e-05
1.73654e-05
1.73966e-05
1.74227e-05
1.74436e-05
1.74593e-05
1.74698e-05
1.74751e-05
1.74751e-05
1.74698e-05
1.74593e-05
1.74436e-05
1.74227e-05
1.57895e-05
1.58948e-05
1.59973e-05
1.60968e-05
1.61932e-05
1.62862e-05
1.63756e-05
1.64612e-05
1.6543e-05
1.66207e-05
1.66942e-05
1.67635e-05
1.68283e-05
1.68885e-05
1.69441e-05
1.6995e-05
1.7041e-05
1.70821e-05
1.71182e-05
1.71492e-05
1.71752e-05
1.7196e-05
1.72117e-05
1.72221e-05
1.72273e-05
1.72273e-05
1.72221e-05
1.72117e-05
1.7196e-05
1.71752e-05
1.55496e-05
1.56543e-05
1.57562e-05
1.58551e-05
1.59509e-05
1.60433e-05
1.61322e-05
1.62174e-05
1.62987e-05
1.6376e-05
1.64491e-05
1.6518e-05
1.65825e-05
1.66424e-05
1.66977e-05
1.67483e-05
1.67941e-05
1.6835e-05
1.68709e-05
1.69018e-05
1.69277e-05
1.69484e-05
1.6964e-05
1.69744e-05
1.69796e-05
1.69796e-05
1.69744e-05
1.6964e-05
1.69484e-05
1.69277e-05
1.53101e-05
1.54141e-05
1.55153e-05
1.56137e-05
1.57089e-05
1.58007e-05
1.58891e-05
1.59738e-05
1.60546e-05
1.61314e-05
1.62042e-05
1.62727e-05
1.63368e-05
1.63964e-05
1.64514e-05
1.65017e-05
1.65473e-05
1.65879e-05
1.66237e-05
1.66544e-05
1.66801e-05
1.67008e-05
1.67163e-05
1.67266e-05
1.67318e-05
1.67318e-05
1.67266e-05
1.67163e-05
1.67008e-05
1.66801e-05
1.5071e-05
1.51743e-05
1.52749e-05
1.53726e-05
1.54672e-05
1.55584e-05
1.56462e-05
1.57304e-05
1.58107e-05
1.58871e-05
1.59594e-05
1.60275e-05
1.60912e-05
1.61505e-05
1.62052e-05
1.62552e-05
1.63005e-05
1.6341e-05
1.63765e-05
1.64071e-05
1.64327e-05
1.64532e-05
1.64686e-05
1.64789e-05
1.64841e-05
1.64841e-05
1.64789e-05
1.64686e-05
1.64532e-05
1.64327e-05
1.48324e-05
1.49349e-05
1.50348e-05
1.51319e-05
1.52258e-05
1.53165e-05
1.54037e-05
1.54873e-05
1.55671e-05
1.5643e-05
1.57149e-05
1.57825e-05
1.58459e-05
1.59048e-05
1.59592e-05
1.60089e-05
1.60539e-05
1.60942e-05
1.61295e-05
1.61599e-05
1.61854e-05
1.62057e-05
1.62211e-05
1.62313e-05
1.62364e-05
1.62364e-05
1.62313e-05
1.62211e-05
1.62057e-05
1.61854e-05
1.45943e-05
1.46961e-05
1.47953e-05
1.48916e-05
1.49849e-05
1.50749e-05
1.51616e-05
1.52446e-05
1.53239e-05
1.53993e-05
1.54707e-05
1.55379e-05
1.56008e-05
1.56594e-05
1.57134e-05
1.57628e-05
1.58076e-05
1.58475e-05
1.58827e-05
1.59129e-05
1.59382e-05
1.59585e-05
1.59737e-05
1.59839e-05
1.5989e-05
1.5989e-05
1.59839e-05
1.59737e-05
1.59585e-05
1.59382e-05
1.43567e-05
1.44578e-05
1.45562e-05
1.46519e-05
1.47445e-05
1.48338e-05
1.49198e-05
1.50023e-05
1.5081e-05
1.51559e-05
1.52268e-05
1.52935e-05
1.53561e-05
1.54142e-05
1.54679e-05
1.5517e-05
1.55615e-05
1.56012e-05
1.56361e-05
1.56661e-05
1.56912e-05
1.57114e-05
1.57265e-05
1.57366e-05
1.57417e-05
1.57417e-05
1.57366e-05
1.57265e-05
1.57114e-05
1.56913e-05
1.41197e-05
1.422e-05
1.43177e-05
1.44126e-05
1.45045e-05
1.45932e-05
1.46786e-05
1.47604e-05
1.48386e-05
1.49129e-05
1.49833e-05
1.50496e-05
1.51117e-05
1.51694e-05
1.52227e-05
1.52715e-05
1.53157e-05
1.53551e-05
1.53898e-05
1.54196e-05
1.54446e-05
1.54646e-05
1.54796e-05
1.54897e-05
1.54947e-05
1.54947e-05
1.54897e-05
1.54796e-05
1.54646e-05
1.54446e-05
1.38834e-05
1.39829e-05
1.40798e-05
1.4174e-05
1.42651e-05
1.43531e-05
1.44378e-05
1.4519e-05
1.45966e-05
1.46704e-05
1.47402e-05
1.48061e-05
1.48677e-05
1.4925e-05
1.49779e-05
1.50264e-05
1.50702e-05
1.51094e-05
1.51438e-05
1.51735e-05
1.51983e-05
1.52181e-05
1.52331e-05
1.52431e-05
1.5248e-05
1.5248e-05
1.52431e-05
1.52331e-05
1.52181e-05
1.51983e-05
1.36478e-05
1.37464e-05
1.38425e-05
1.39359e-05
1.40264e-05
1.41137e-05
1.41977e-05
1.42782e-05
1.43552e-05
1.44284e-05
1.44977e-05
1.4563e-05
1.46242e-05
1.46811e-05
1.47336e-05
1.47817e-05
1.48252e-05
1.48641e-05
1.48983e-05
1.49277e-05
1.49523e-05
1.4972e-05
1.49869e-05
1.49968e-05
1.50017e-05
1.50017e-05
1.49968e-05
1.49869e-05
1.4972e-05
1.49523e-05
1.34129e-05
1.35107e-05
1.3606e-05
1.36986e-05
1.37882e-05
1.38748e-05
1.39581e-05
1.4038e-05
1.41143e-05
1.41869e-05
1.42557e-05
1.43205e-05
1.43811e-05
1.44376e-05
1.44897e-05
1.45374e-05
1.45806e-05
1.46192e-05
1.46532e-05
1.46824e-05
1.47068e-05
1.47264e-05
1.47411e-05
1.47509e-05
1.47559e-05
1.47559e-05
1.47509e-05
1.47411e-05
1.47264e-05
1.47068e-05
1.31758e-05
1.32756e-05
1.33701e-05
1.34619e-05
1.35508e-05
1.36366e-05
1.37192e-05
1.37984e-05
1.3874e-05
1.39461e-05
1.40142e-05
1.40785e-05
1.41387e-05
1.41947e-05
1.42464e-05
1.42937e-05
1.43366e-05
1.43749e-05
1.44085e-05
1.44375e-05
1.44618e-05
1.44812e-05
1.44958e-05
1.45056e-05
1.45104e-05
1.45104e-05
1.45056e-05
1.44958e-05
1.44812e-05
1.44618e-05
1.29363e-05
1.30414e-05
1.3135e-05
1.3226e-05
1.3314e-05
1.33991e-05
1.34809e-05
1.35594e-05
1.36345e-05
1.37058e-05
1.37734e-05
1.38371e-05
1.38968e-05
1.39524e-05
1.40036e-05
1.40506e-05
1.40931e-05
1.41311e-05
1.41645e-05
1.41932e-05
1.42172e-05
1.42365e-05
1.4251e-05
1.42607e-05
1.42655e-05
1.42655e-05
1.42607e-05
1.4251e-05
1.42365e-05
1.42172e-05
1.29008e-05
1.29909e-05
1.30781e-05
1.31623e-05
1.32434e-05
1.33212e-05
1.33956e-05
1.34663e-05
1.35333e-05
1.35965e-05
1.36556e-05
1.37107e-05
1.39733e-05
1.39924e-05
1.40068e-05
1.40164e-05
1.40212e-05
1.40212e-05
1.40164e-05
1.40068e-05
1.39924e-05
1.39733e-05
2.9409e-05
2.9418e-05
2.94247e-05
2.94291e-05
2.94314e-05
2.94314e-05
2.94291e-05
2.94247e-05
2.9418e-05
2.9409e-05
2.93087e-05
2.93206e-05
2.93302e-05
2.93373e-05
2.9342e-05
2.93444e-05
2.93444e-05
2.9342e-05
2.93373e-05
2.93302e-05
2.93206e-05
2.93087e-05
2.92943e-05
2.92774e-05
2.92579e-05
2.92359e-05
2.92113e-05
2.9184e-05
2.91541e-05
2.91213e-05
2.90858e-05
2.91807e-05
2.91986e-05
2.92138e-05
2.92264e-05
2.92365e-05
2.92441e-05
2.92491e-05
2.92516e-05
2.92516e-05
2.92491e-05
2.92441e-05
2.92365e-05
2.92264e-05
2.92138e-05
2.91985e-05
2.91807e-05
2.91602e-05
2.91369e-05
2.9111e-05
2.90823e-05
2.90507e-05
2.90163e-05
2.8979e-05
2.89387e-05
2.88955e-05
2.88492e-05
2.87998e-05
2.90051e-05
2.90324e-05
2.90568e-05
2.90784e-05
2.90972e-05
2.91132e-05
2.91266e-05
2.91372e-05
2.91452e-05
2.91505e-05
2.91531e-05
2.91531e-05
2.91505e-05
2.91452e-05
2.91372e-05
2.91266e-05
2.91132e-05
2.90972e-05
2.90784e-05
2.90568e-05
2.90324e-05
2.90051e-05
2.8975e-05
2.89419e-05
2.89058e-05
2.88668e-05
2.88247e-05
2.87795e-05
2.87312e-05
2.86798e-05
2.86252e-05
2.85675e-05
2.85066e-05
2.88277e-05
2.88623e-05
2.88938e-05
2.89224e-05
2.89479e-05
2.89706e-05
2.89903e-05
2.90071e-05
2.90211e-05
2.90323e-05
2.90407e-05
2.90462e-05
2.9049e-05
2.9049e-05
2.90462e-05
2.90407e-05
2.90323e-05
2.90211e-05
2.90071e-05
2.89903e-05
2.89706e-05
2.89479e-05
2.89224e-05
2.88938e-05
2.88623e-05
2.88277e-05
2.879e-05
2.87493e-05
2.87054e-05
2.86584e-05
2.86081e-05
2.85547e-05
2.84981e-05
2.84382e-05
2.83751e-05
2.83088e-05
2.82393e-05
2.81664e-05
2.86267e-05
2.86691e-05
2.87083e-05
2.87443e-05
2.87772e-05
2.8807e-05
2.88337e-05
2.88573e-05
2.88779e-05
2.88956e-05
2.89102e-05
2.89219e-05
2.89306e-05
2.89365e-05
2.89394e-05
2.89394e-05
2.89365e-05
2.89306e-05
2.89219e-05
2.89102e-05
2.88956e-05
2.88779e-05
2.88573e-05
2.88337e-05
2.8807e-05
2.87772e-05
2.87443e-05
2.87083e-05
2.86691e-05
2.86267e-05
2.85811e-05
2.85322e-05
2.84801e-05
2.84247e-05
2.8366e-05
2.83041e-05
2.82389e-05
2.81705e-05
2.80988e-05
2.80237e-05
2.84517e-05
2.8499e-05
2.8543e-05
2.85837e-05
2.86212e-05
2.86554e-05
2.86864e-05
2.87142e-05
2.87388e-05
2.87603e-05
2.87786e-05
2.87939e-05
2.88061e-05
2.88152e-05
2.88213e-05
2.88244e-05
2.88244e-05
2.88213e-05
2.88152e-05
2.88061e-05
2.87939e-05
2.87786e-05
2.87603e-05
2.87388e-05
2.87141e-05
2.86864e-05
2.86554e-05
2.86212e-05
2.85837e-05
2.8543e-05
2.8499e-05
2.84517e-05
2.84011e-05
2.83472e-05
2.82899e-05
2.82293e-05
2.81653e-05
2.80981e-05
2.80276e-05
2.79538e-05
2.78766e-05
2.82653e-05
2.83176e-05
2.83665e-05
2.8412e-05
2.84542e-05
2.8493e-05
2.85285e-05
2.85606e-05
2.85895e-05
2.86151e-05
2.86374e-05
2.86565e-05
2.86724e-05
2.86851e-05
2.86946e-05
2.87009e-05
2.87041e-05
2.87041e-05
2.87009e-05
2.86946e-05
2.86851e-05
2.86724e-05
2.86565e-05
2.86374e-05
2.86151e-05
2.85895e-05
2.85606e-05
2.85285e-05
2.8493e-05
2.84542e-05
2.8412e-05
2.83665e-05
2.83175e-05
2.82652e-05
2.82095e-05
2.81504e-05
2.80879e-05
2.8022e-05
2.79528e-05
2.78803e-05
2.78045e-05
2.77252e-05
2.80673e-05
2.81247e-05
2.81787e-05
2.82292e-05
2.82762e-05
2.83198e-05
2.83599e-05
2.83966e-05
2.84299e-05
2.84598e-05
2.84863e-05
2.85094e-05
2.85293e-05
2.85457e-05
2.85589e-05
2.85688e-05
2.85753e-05
2.85786e-05
2.85786e-05
2.85753e-05
2.85688e-05
2.85589e-05
2.85457e-05
2.85292e-05
2.85094e-05
2.84863e-05
2.84598e-05
2.84299e-05
2.83966e-05
2.83599e-05
2.83198e-05
2.82762e-05
2.82291e-05
2.81786e-05
2.81247e-05
2.80672e-05
2.80064e-05
2.7942e-05
2.78743e-05
2.78032e-05
2.77287e-05
2.76509e-05
2.75697e-05
2.78579e-05
2.79205e-05
2.79796e-05
2.80351e-05
2.80872e-05
2.81356e-05
2.81806e-05
2.8222e-05
2.82599e-05
2.82943e-05
2.83252e-05
2.83526e-05
2.83765e-05
2.8397e-05
2.84141e-05
2.84277e-05
2.84379e-05
2.84447e-05
2.84481e-05
2.84481e-05
2.84447e-05
2.84379e-05
2.84277e-05
2.84141e-05
2.8397e-05
2.83765e-05
2.83526e-05
2.83252e-05
2.82943e-05
2.82599e-05
2.8222e-05
2.81806e-05
2.81356e-05
2.80871e-05
2.80351e-05
2.79796e-05
2.79205e-05
2.78579e-05
2.77918e-05
2.77222e-05
2.76493e-05
2.75729e-05
2.74933e-05
2.74101e-05
2.77051e-05
2.77694e-05
2.78301e-05
2.78871e-05
2.79406e-05
2.79905e-05
2.80368e-05
2.80794e-05
2.81185e-05
2.81539e-05
2.81858e-05
2.82141e-05
2.82388e-05
2.82599e-05
2.82775e-05
2.82916e-05
2.83022e-05
2.83092e-05
2.83127e-05
2.83127e-05
2.83092e-05
2.83022e-05
2.82916e-05
2.82775e-05
2.82599e-05
2.82388e-05
2.82141e-05
2.81858e-05
2.81539e-05
2.81185e-05
2.80794e-05
2.80368e-05
2.79905e-05
2.79406e-05
2.78871e-05
2.783e-05
2.77694e-05
2.77051e-05
2.76373e-05
2.7566e-05
2.74913e-05
2.74131e-05
2.73317e-05
2.72467e-05
2.74787e-05
2.75482e-05
2.7614e-05
2.76762e-05
2.77348e-05
2.77897e-05
2.78409e-05
2.78885e-05
2.79323e-05
2.79725e-05
2.80089e-05
2.80417e-05
2.80709e-05
2.80963e-05
2.81181e-05
2.81362e-05
2.81507e-05
2.81616e-05
2.81689e-05
2.81725e-05
2.81725e-05
2.81689e-05
2.81616e-05
2.81507e-05
2.81362e-05
2.81181e-05
2.80963e-05
2.80708e-05
2.80417e-05
2.80089e-05
2.79725e-05
2.79323e-05
2.78885e-05
2.78409e-05
2.77897e-05
2.77348e-05
2.76762e-05
2.7614e-05
2.75481e-05
2.74787e-05
2.74058e-05
2.73293e-05
2.72494e-05
2.71662e-05
2.70794e-05
2.72416e-05
2.73161e-05
2.73871e-05
2.74545e-05
2.75182e-05
2.75782e-05
2.76345e-05
2.7687e-05
2.77358e-05
2.77808e-05
2.7822e-05
2.78595e-05
2.78932e-05
2.79231e-05
2.79492e-05
2.79717e-05
2.79903e-05
2.80052e-05
2.80164e-05
2.80239e-05
2.80276e-05