/*--------------------------------*- C++ -*----------------------------------*\
  =========                 |
  \\      /  F ield         | OpenFOAM: The Open Source CFD Toolbox
   \\    /   O peration     | Website:  https://openfoam.org
    \\  /    A nd           | Version:  7
     \\/     M anipulation  |
\*---------------------------------------------------------------------------*/
FoamFile
{
    version     2.0;
    format      ascii;
    class       volScalarField;
    location    "212000";
    object      p;
}
// * * * * * * * * * * * * * * * * * * * * * * * * * * * * * * * * * * * * * //

dimensions      [0 2 -2 0 0 0 0];

internalField   nonuniform List<scalar> 
4844
(
-5.37235e-19
-1.75803e-18
-1.76861e-18
-1.35727e-18
-1.80785e-18
-1.77069e-18
-1.77871e-18
-1.79217e-18
-1.77833e-18
-1.78587e-18
-1.78302e-18
-1.63715e-18
-1.82383e-18
-1.78273e-18
-1.78826e-18
-1.78759e-18
-1.77204e-18
-1.79203e-18
-1.78281e-18
-1.77506e-18
-1.76572e-18
-1.77038e-18
-1.7086e-18
-1.7972e-18
-1.79281e-18
-1.79063e-18
-1.7951e-18
-1.77824e-18
-1.79236e-18
-1.79252e-18
-1.78857e-18
-1.79285e-18
-1.7652e-18
-1.75872e-18
-1.75866e-18
-1.73797e-18
-1.75973e-18
-1.7412e-18
-1.73311e-18
-1.79571e-18
-1.78514e-18
-1.78441e-18
-1.78805e-18
-1.7677e-18
-1.80452e-18
-1.78273e-18
-1.78638e-18
-1.79389e-18
-1.769e-18
-1.76659e-18
-1.75255e-18
-1.75401e-18
-1.75528e-18
-1.74172e-18
-1.74653e-18
-1.78904e-18
-1.77859e-18
-1.7944e-18
-1.77431e-18
-1.76937e-18
-1.79001e-18
-1.77696e-18
-1.78863e-18
-1.78225e-18
-1.7703e-18
-1.76805e-18
-1.74497e-18
-1.76262e-18
-1.75166e-18
-1.72757e-18
-1.80112e-18
-1.7852e-18
-1.78223e-18
-1.77552e-18
-1.76997e-18
-1.78444e-18
-1.76848e-18
-1.79042e-18
-1.76664e-18
-1.76857e-18
-1.76954e-18
-1.7471e-18
-1.76728e-18
-1.74675e-18
-1.73508e-18
-1.80567e-18
-1.78965e-18
-1.78221e-18
-1.77908e-18
-1.77733e-18
-1.78698e-18
-1.76497e-18
-1.78828e-18
-1.77406e-18
-1.77643e-18
-1.76706e-18
-1.76765e-18
-1.76387e-18
-1.73638e-18
-1.73367e-18
-1.80146e-18
-1.78363e-18
-1.77705e-18
-1.78017e-18
-1.77625e-18
-1.78608e-18
-1.76776e-18
-1.79045e-18
-1.76799e-18
-1.7737e-18
-1.7615e-18
-1.76755e-18
-1.75754e-18
-1.72631e-18
-1.74502e-18
-1.79013e-18
-1.79701e-18
-1.77639e-18
-1.77548e-18
-1.77743e-18
-1.77135e-18
-1.78628e-18
-1.77955e-18
-1.7858e-18
-1.76793e-18
-1.77513e-18
-1.76046e-18
-1.74619e-18
-1.74047e-18
-1.73675e-18
-1.74106e-18
-1.79714e-18
-1.79995e-18
-1.78046e-18
-1.77368e-18
-1.78667e-18
-1.77522e-18
-1.77787e-18
-1.7873e-18
-1.7634e-18
-1.76776e-18
-1.76747e-18
-1.75243e-18
-1.74624e-18
-1.73522e-18
-1.73516e-18
-1.72714e-18
-1.78943e-18
-1.79424e-18
-1.77879e-18
-1.77645e-18
-1.78293e-18
-1.77528e-18
-1.78408e-18
-1.7739e-18
-1.76253e-18
-1.76162e-18
-1.76356e-18
-1.75711e-18
-1.75759e-18
-1.73517e-18
-1.72974e-18
-1.72617e-18
-1.79338e-18
-1.79279e-18
-1.77599e-18
-1.78257e-18
-1.78045e-18
-1.77179e-18
-1.79183e-18
-1.77145e-18
-1.76726e-18
-1.76593e-18
-1.76706e-18
-1.76105e-18
-1.74507e-18
-1.73983e-18
-1.7263e-18
-1.72885e-18
-1.80446e-18
-1.79453e-18
-1.78859e-18
-1.77118e-18
-1.78732e-18
-1.78054e-18
-1.76777e-18
-1.77988e-18
-1.76348e-18
-1.77194e-18
-1.77598e-18
-1.75621e-18
-1.76159e-18
-1.74873e-18
-1.74321e-18
-1.732e-18
-1.73191e-18
-1.80243e-18
-1.79323e-18
-1.78349e-18
-1.78436e-18
-1.78772e-18
-1.78105e-18
-1.76772e-18
-1.78098e-18
-1.76596e-18
-1.76037e-18
-1.76731e-18
-1.77441e-18
-1.75947e-18
-1.7478e-18
-1.74932e-18
-1.74475e-18
-1.72915e-18
-1.81701e-18
-1.80194e-18
-1.79407e-18
-1.78594e-18
-1.79503e-18
-1.77855e-18
-1.78226e-18
-1.77762e-18
-1.77622e-18
-1.76958e-18
-1.7619e-18
-1.75712e-18
-1.7799e-18
-1.74868e-18
-1.7521e-18
-1.74172e-18
-1.74378e-18
-1.72343e-18
-1.81213e-18
-1.80497e-18
-1.79292e-18
-1.78098e-18
-1.79954e-18
-1.77777e-18
-1.77216e-18
-1.77288e-18
-1.75781e-18
-1.76547e-18
-1.76499e-18
-1.74876e-18
-1.76352e-18
-1.74774e-18
-1.76545e-18
-1.74288e-18
-1.73635e-18
-1.71445e-18
-1.8253e-18
-1.80436e-18
-1.78779e-18
-1.78165e-18
-1.78731e-18
-1.77374e-18
-1.77355e-18
-1.76744e-18
-1.76767e-18
-1.76812e-18
-1.76916e-18
-1.74773e-18
-1.75749e-18
-1.7348e-18
-1.75806e-18
-1.73858e-18
-1.73002e-18
-1.71472e-18
-1.82015e-18
-1.79561e-18
-1.79575e-18
-1.78909e-18
-1.77472e-18
-1.7748e-18
-1.77539e-18
-1.77345e-18
-1.77735e-18
-1.76659e-18
-1.76512e-18
-1.74252e-18
-1.76162e-18
-1.74184e-18
-1.74782e-18
-1.72613e-18
-1.7401e-18
-1.72436e-18
-1.81887e-18
-1.79875e-18
-1.79458e-18
-1.79887e-18
-1.78429e-18
-1.78155e-18
-1.76969e-18
-1.77326e-18
-1.7725e-18
-1.76427e-18
-1.75689e-18
-1.74425e-18
-1.76277e-18
-1.74489e-18
-1.74698e-18
-1.729e-18
-1.74646e-18
-1.71955e-18
-1.81932e-18
-1.80834e-18
-1.79656e-18
-1.78143e-18
-1.77399e-18
-1.76986e-18
-1.76492e-18
-1.76958e-18
-1.7663e-18
-1.75815e-18
-1.75303e-18
-1.74778e-18
-1.76256e-18
-1.75029e-18
-1.74544e-18
-1.72393e-18
-1.73671e-18
-1.71505e-18
-1.82662e-18
-1.80852e-18
-1.80051e-18
-1.77855e-18
-1.76552e-18
-1.76774e-18
-1.75404e-18
-1.76646e-18
-1.75675e-18
-1.75203e-18
-1.75306e-18
-1.74632e-18
-1.76399e-18
-1.74214e-18
-1.74305e-18
-1.72221e-18
-1.72916e-18
-1.71103e-18
-1.83027e-18
-1.8062e-18
-1.79801e-18
-1.78797e-18
-1.76902e-18
-1.77036e-18
-1.76546e-18
-1.76471e-18
-1.75617e-18
-1.75302e-18
-1.7518e-18
-1.74883e-18
-1.75676e-18
-1.7419e-18
-1.74937e-18
-1.72772e-18
-1.71947e-18
-1.71087e-18
-1.82371e-18
-1.80657e-18
-1.80115e-18
-1.78695e-18
-1.76578e-18
-1.77163e-18
-1.77458e-18
-1.75612e-18
-1.75718e-18
-1.75925e-18
-1.75061e-18
-1.74522e-18
-1.75633e-18
-1.74222e-18
-1.74305e-18
-1.73239e-18
-1.72769e-18
-1.71301e-18
-1.82289e-18
-1.80986e-18
-1.79941e-18
-1.78282e-18
-1.77351e-18
-1.77481e-18
-1.76166e-18
-1.759e-18
-1.75998e-18
-1.75893e-18
-1.75621e-18
-1.73704e-18
-1.73966e-18
-1.73297e-18
-1.74102e-18
-1.72476e-18
-1.74683e-18
-1.70668e-18
-1.81339e-18
-1.80769e-18
-1.79274e-18
-1.77666e-18
-1.77707e-18
-1.76985e-18
-1.75187e-18
-1.76003e-18
-1.76279e-18
-1.75174e-18
-1.7573e-18
-1.7241e-18
-1.73428e-18
-1.73718e-18
-1.74542e-18
-1.71884e-18
-1.74135e-18
-1.71139e-18
-1.81417e-18
-1.80608e-18
-1.78968e-18
-1.77146e-18
-1.77757e-18
-1.76897e-18
-1.75814e-18
-1.76829e-18
-1.76971e-18
-1.76434e-18
-1.75519e-18
-1.73487e-18
-1.74663e-18
-1.75306e-18
-1.75313e-18
-1.73068e-18
-1.72487e-18
-1.70766e-18
-1.82163e-18
-1.80661e-18
-1.78505e-18
-1.77189e-18
-1.77031e-18
-1.76317e-18
-1.75648e-18
-1.75991e-18
-1.76844e-18
-1.76165e-18
-1.75033e-18
-1.73725e-18
-1.74559e-18
-1.75549e-18
-1.74832e-18
-1.72789e-18
-1.71907e-18
-1.70624e-18
-1.8207e-18
-1.80073e-18
-1.78681e-18
-1.77505e-18
-1.76342e-18
-1.76756e-18
-1.76097e-18
-1.75298e-18
-1.7513e-18
-1.7626e-18
-1.74561e-18
-1.73027e-18
-1.73938e-18
-1.73543e-18
-1.74258e-18
-1.71479e-18
-1.72521e-18
-1.70373e-18
-1.82338e-18
-1.80626e-18
-1.78351e-18
-1.77815e-18
-1.76246e-18
-1.75927e-18
-1.76716e-18
-1.76716e-18
-1.75509e-18
-1.74683e-18
-1.74582e-18
-1.7223e-18
-1.74851e-18
-1.73143e-18
-1.7386e-18
-1.7167e-18
-1.73443e-18
-1.71083e-18
-1.83929e-18
-1.8147e-18
-1.81037e-18
-1.79415e-18
-1.78495e-18
-1.76737e-18
-1.74896e-18
-1.76883e-18
-1.75734e-18
-1.75855e-18
-1.74069e-18
-1.75199e-18
-1.72682e-18
-1.75133e-18
-1.7312e-18
-1.74555e-18
-1.7104e-18
-1.71974e-18
-1.71219e-18
-1.8321e-18
-1.81654e-18
-1.81016e-18
-1.79145e-18
-1.7808e-18
-1.77705e-18
-1.7499e-18
-1.76542e-18
-1.74549e-18
-1.75327e-18
-1.7446e-18
-1.74852e-18
-1.73071e-18
-1.74164e-18
-1.73123e-18
-1.7465e-18
-1.71633e-18
-1.70904e-18
-1.70284e-18
-1.83461e-18
-1.83123e-18
-1.82273e-18
-1.80889e-18
-1.78684e-18
-1.77805e-18
-1.77815e-18
-1.76004e-18
-1.76033e-18
-1.74842e-18
-1.75036e-18
-1.7401e-18
-1.74915e-18
-1.72395e-18
-1.74546e-18
-1.72712e-18
-1.74301e-18
-1.71033e-18
-1.7123e-18
-1.69326e-18
-1.84407e-18
-1.8259e-18
-1.81968e-18
-1.80484e-18
-1.78489e-18
-1.7781e-18
-1.77064e-18
-1.75525e-18
-1.76049e-18
-1.75075e-18
-1.74794e-18
-1.73645e-18
-1.74338e-18
-1.7217e-18
-1.74466e-18
-1.73406e-18
-1.74589e-18
-1.69711e-18
-1.72867e-18
-1.69727e-18
-1.85162e-18
-1.82479e-18
-1.82011e-18
-1.80261e-18
-1.78862e-18
-1.77818e-18
-1.77124e-18
-1.75128e-18
-1.76434e-18
-1.74664e-18
-1.75506e-18
-1.73513e-18
-1.73876e-18
-1.71482e-18
-1.74526e-18
-1.74163e-18
-1.75239e-18
-1.71306e-18
-1.73653e-18
-1.70225e-18
-1.84254e-18
-1.83197e-18
-1.81189e-18
-1.79877e-18
-1.78458e-18
-1.77356e-18
-1.76776e-18
-1.73855e-18
-1.76175e-18
-1.74314e-18
-1.75561e-18
-1.73444e-18
-1.74126e-18
-1.72414e-18
-1.75001e-18
-1.72464e-18
-1.75185e-18
-1.72797e-18
-1.7163e-18
-1.70129e-18
-1.84379e-18
-1.8364e-18
-1.81252e-18
-1.80404e-18
-1.78346e-18
-1.76733e-18
-1.76968e-18
-1.73606e-18
-1.76971e-18
-1.74154e-18
-1.75587e-18
-1.73129e-18
-1.74165e-18
-1.71999e-18
-1.74754e-18
-1.73114e-18
-1.74577e-18
-1.72014e-18
-1.72283e-18
-1.70254e-18
-1.84457e-18
-1.84139e-18
-1.81111e-18
-1.79932e-18
-1.78218e-18
-1.76646e-18
-1.77437e-18
-1.75186e-18
-1.76498e-18
-1.73993e-18
-1.74722e-18
-1.73437e-18
-1.746e-18
-1.70689e-18
-1.74233e-18
-1.73497e-18
-1.72489e-18
-1.7015e-18
-1.72156e-18
-1.71146e-18
-1.84762e-18
-1.83556e-18
-1.81638e-18
-1.80799e-18
-1.7838e-18
-1.77209e-18
-1.77718e-18
-1.7604e-18
-1.76591e-18
-1.74307e-18
-1.75385e-18
-1.74386e-18
-1.74757e-18
-1.71312e-18
-1.74575e-18
-1.72019e-18
-1.74331e-18
-1.70317e-18
-1.71554e-18
-1.68629e-18
-1.84452e-18
-1.83584e-18
-1.82268e-18
-1.80553e-18
-1.77347e-18
-1.77279e-18
-1.77061e-18
-1.74946e-18
-1.7606e-18
-1.73512e-18
-1.7568e-18
-1.73136e-18
-1.73759e-18
-1.72287e-18
-1.73665e-18
-1.72687e-18
-1.74377e-18
-1.72138e-18
-1.71486e-18
-1.70031e-18
-1.84814e-18
-1.82915e-18
-1.81197e-18
-1.80074e-18
-1.78216e-18
-1.77069e-18
-1.76898e-18
-1.74471e-18
-1.75232e-18
-1.74276e-18
-1.75268e-18
-1.72928e-18
-1.73827e-18
-1.71768e-18
-1.74655e-18
-1.72147e-18
-1.73152e-18
-1.72234e-18
-1.73105e-18
-1.70495e-18
-1.84177e-18
-1.83653e-18
-1.81103e-18
-1.80329e-18
-1.78491e-18
-1.7739e-18
-1.77086e-18
-1.75023e-18
-1.76419e-18
-1.74831e-18
-1.75097e-18
-1.73185e-18
-1.7453e-18
-1.70973e-18
-1.73583e-18
-1.71235e-18
-1.73233e-18
-1.7078e-18
-1.72217e-18
-1.71686e-18
-1.83498e-18
-1.83612e-18
-1.80818e-18
-1.79783e-18
-1.78189e-18
-1.78236e-18
-1.77048e-18
-1.7533e-18
-1.76443e-18
-1.75323e-18
-1.74989e-18
-1.72939e-18
-1.74272e-18
-1.71919e-18
-1.7334e-18
-1.7117e-18
-1.73161e-18
-1.71123e-18
-1.71934e-18
-1.70101e-18
-1.83715e-18
-1.83249e-18
-1.81305e-18
-1.79125e-18
-1.78528e-18
-1.7761e-18
-1.773e-18
-1.7596e-18
-1.75986e-18
-1.7484e-18
-1.74662e-18
-1.73683e-18
-1.74926e-18
-1.71677e-18
-1.73329e-18
-1.71665e-18
-1.72929e-18
-1.71386e-18
-1.72106e-18
-1.69811e-18
-1.83747e-18
-1.83337e-18
-1.81658e-18
-1.79509e-18
-1.78736e-18
-1.7711e-18
-1.77311e-18
-1.7574e-18
-1.75701e-18
-1.75138e-18
-1.73962e-18
-1.73165e-18
-1.74365e-18
-1.72506e-18
-1.74727e-18
-1.71943e-18
-1.73429e-18
-1.71849e-18
-1.71694e-18
-1.70609e-18
-1.83472e-18
-1.8346e-18
-1.82019e-18
-1.79054e-18
-1.78963e-18
-1.76303e-18
-1.77105e-18
-1.75219e-18
-1.75435e-18
-1.74659e-18
-1.74182e-18
-1.7339e-18
-1.74154e-18
-1.72837e-18
-1.74404e-18
-1.7198e-18
-1.72958e-18
-1.71236e-18
-1.72212e-18
-1.69957e-18
-1.83282e-18
-1.83619e-18
-1.81891e-18
-1.79709e-18
-1.78862e-18
-1.77246e-18
-1.76711e-18
-1.76085e-18
-1.75587e-18
-1.747e-18
-1.74669e-18
-1.73958e-18
-1.73222e-18
-1.72705e-18
-1.72891e-18
-1.70659e-18
-1.73457e-18
-1.71842e-18
-1.71139e-18
-1.70257e-18
-1.8343e-18
-1.83441e-18
-1.82166e-18
-1.79805e-18
-1.78654e-18
-1.77635e-18
-1.76453e-18
-1.76039e-18
-1.75491e-18
-1.74979e-18
-1.75677e-18
-1.73623e-18
-1.73314e-18
-1.72179e-18
-1.7399e-18
-1.71015e-18
-1.73172e-18
-1.71664e-18
-1.7235e-18
-1.71886e-18
-1.83401e-18
-1.82914e-18
-1.82081e-18
-1.78979e-18
-1.7921e-18
-1.77895e-18
-1.7618e-18
-1.75617e-18
-1.75523e-18
-1.75479e-18
-1.75598e-18
-1.72499e-18
-1.74556e-18
-1.71214e-18
-1.72435e-18
-1.71505e-18
-1.73213e-18
-1.70453e-18
-1.72213e-18
-1.70684e-18
-1.8321e-18
-1.82277e-18
-1.81799e-18
-1.79721e-18
-1.78917e-18
-1.7791e-18
-1.7626e-18
-1.75566e-18
-1.75055e-18
-1.74598e-18
-1.75219e-18
-1.72892e-18
-1.74413e-18
-1.71642e-18
-1.72672e-18
-1.69846e-18
-1.73595e-18
-1.70996e-18
-1.71532e-18
-1.70572e-18
-1.83615e-18
-1.82633e-18
-1.81187e-18
-1.79929e-18
-1.78136e-18
-1.7757e-18
-1.76195e-18
-1.75019e-18
-1.74839e-18
-1.75304e-18
-1.74909e-18
-1.71976e-18
-1.74732e-18
-1.7223e-18
-1.73589e-18
-1.70256e-18
-1.72774e-18
-1.70383e-18
-1.71974e-18
-1.70677e-18
-1.83007e-18
-1.82749e-18
-1.81559e-18
-1.79779e-18
-1.77706e-18
-1.76764e-18
-1.76127e-18
-1.75188e-18
-1.74492e-18
-1.75292e-18
-1.75867e-18
-1.73007e-18
-1.7395e-18
-1.72014e-18
-1.73993e-18
-1.72218e-18
-1.73245e-18
-1.70184e-18
-1.73535e-18
-1.69921e-18
-1.83092e-18
-1.82764e-18
-1.81334e-18
-1.79759e-18
-1.78705e-18
-1.76444e-18
-1.76066e-18
-1.7439e-18
-1.74359e-18
-1.7457e-18
-1.76167e-18
-1.72992e-18
-1.73707e-18
-1.71134e-18
-1.74354e-18
-1.72446e-18
-1.72252e-18
-1.70576e-18
-1.7274e-18
-1.69898e-18
-1.83017e-18
-1.81966e-18
-1.81474e-18
-1.78894e-18
-1.78526e-18
-1.7621e-18
-1.75678e-18
-1.74637e-18
-1.74814e-18
-1.7442e-18
-1.75497e-18
-1.73256e-18
-1.74e-18
-1.72147e-18
-1.74106e-18
-1.72519e-18
-1.71996e-18
-1.70663e-18
-1.72855e-18
-1.706e-18
-1.82329e-18
-1.82464e-18
-1.813e-18
-1.78822e-18
-1.7921e-18
-1.76999e-18
-1.7589e-18
-1.74975e-18
-1.75159e-18
-1.75291e-18
-1.75131e-18
-1.72765e-18
-1.72719e-18
-1.71117e-18
-1.74157e-18
-1.71885e-18
-1.72103e-18
-1.70575e-18
-1.73162e-18
-1.7082e-18
-1.79009e-18
-1.76948e-18
-1.76327e-18
-1.75058e-18
-1.7573e-18
-1.74777e-18
-1.75842e-18
-1.73382e-18
-1.73191e-18
-1.70815e-18
-1.72937e-18
-1.70989e-18
-1.7066e-18
-1.70422e-18
-1.72876e-18
-1.71471e-18
-1.75528e-18
-1.74347e-18
-1.7525e-18
-1.73727e-18
-1.73471e-18
-1.72121e-18
-1.71687e-18
-1.69971e-18
-1.71355e-18
-1.70451e-18
-1.72658e-18
-1.7091e-18
-2.10999e-18
-2.10992e-18
-2.09808e-18
-2.11431e-18
-2.10459e-18
-2.11119e-18
-2.11059e-18
-2.12485e-18
-2.09025e-18
-2.1141e-18
-2.13013e-18
-2.09617e-18
-2.10976e-18
-2.12062e-18
-2.08742e-18
-2.10446e-18
-2.11066e-18
-2.11475e-18
-2.10551e-18
-2.1192e-18
-2.11703e-18
-2.112e-18
-2.10031e-18
-2.11805e-18
-2.11815e-18
-2.10797e-18
-2.10297e-18
-2.11167e-18
-2.10071e-18
-2.11461e-18
-2.11948e-18
-2.10489e-18
-2.099e-18
-2.09811e-18
-2.10679e-18
-2.1163e-18
-2.10425e-18
-2.11168e-18
-2.10322e-18
-2.10179e-18
-2.10281e-18
-2.10751e-18
-2.11934e-18
-2.1077e-18
-2.09524e-18
-2.11006e-18
-2.10236e-18
-2.12275e-18
-2.09772e-18
-2.08883e-18
-2.13717e-18
-2.1073e-18
-2.10854e-18
-2.09503e-18
-2.09462e-18
-2.13171e-18
-2.11064e-18
-2.11203e-18
-2.1057e-18
-2.10974e-18
-2.10277e-18
-2.1371e-18
-2.1125e-18
-2.11956e-18
-2.09759e-18
-2.10494e-18
-2.09139e-18
-2.135e-18
-2.10714e-18
-2.11974e-18
-2.09697e-18
-2.10598e-18
-2.07906e-18
-2.11073e-18
-2.12102e-18
-2.11356e-18
-2.12005e-18
-2.10343e-18
-2.1054e-18
-2.09659e-18
-2.09187e-18
-2.10634e-18
-2.12901e-18
-2.11043e-18
-2.12142e-18
-2.11582e-18
-2.09838e-18
-2.10841e-18
-2.08418e-18
-2.07115e-18
-2.10657e-18
-2.12872e-18
-2.10601e-18
-2.11505e-18
-2.09957e-18
-2.10024e-18
-2.10305e-18
-2.07444e-18
-2.06054e-18
-2.06425e-18
-2.10972e-18
-2.12224e-18
-2.10681e-18
-2.12021e-18
-2.09287e-18
-2.09685e-18
-2.09254e-18
-2.08595e-18
-2.07459e-18
-2.07222e-18
-2.10807e-18
-2.13187e-18
-2.12275e-18
-2.12554e-18
-2.11467e-18
-2.10898e-18
-2.09889e-18
-2.09071e-18
-2.08299e-18
-2.07946e-18
-2.11235e-18
-2.1216e-18
-2.11514e-18
-2.11666e-18
-2.10968e-18
-2.10808e-18
-2.10348e-18
-2.08714e-18
-2.08608e-18
-2.08424e-18
-2.11556e-18
-2.12187e-18
-2.11536e-18
-2.11147e-18
-2.11096e-18
-2.09436e-18
-2.10681e-18
-2.09103e-18
-2.08917e-18
-2.07866e-18
-2.12125e-18
-2.1228e-18
-2.10602e-18
-2.11404e-18
-2.11136e-18
-2.09551e-18
-2.10323e-18
-2.09107e-18
-2.08464e-18
-2.08013e-18
-2.12075e-18
-2.11974e-18
-2.12232e-18
-2.11086e-18
-2.10443e-18
-2.1019e-18
-2.11312e-18
-2.08933e-18
-2.08793e-18
-2.07928e-18
-2.12967e-18
-2.10262e-18
-2.1373e-18
-2.10471e-18
-2.10349e-18
-2.10758e-18
-2.10884e-18
-2.09137e-18
-2.08834e-18
-2.08546e-18
-2.12065e-18
-2.10165e-18
-2.12117e-18
-2.09907e-18
-2.09472e-18
-2.10262e-18
-2.10529e-18
-2.09434e-18
-2.08416e-18
-2.08031e-18
-2.11391e-18
-2.11579e-18
-2.1098e-18
-2.10318e-18
-2.10513e-18
-2.10096e-18
-2.09925e-18
-2.08969e-18
-2.08433e-18
-2.08221e-18
-2.11402e-18
-2.11092e-18
-2.11042e-18
-2.10237e-18
-2.11417e-18
-2.09936e-18
-2.09653e-18
-2.09234e-18
-2.08136e-18
-2.08962e-18
-2.10945e-18
-2.11172e-18
-2.1185e-18
-2.1053e-18
-2.10945e-18
-2.09304e-18
-2.09676e-18
-2.09077e-18
-2.088e-18
-2.0925e-18
-2.13093e-18
-2.11096e-18
-2.12426e-18
-2.09768e-18
-2.11697e-18
-2.08762e-18
-2.0958e-18
-2.09343e-18
-2.08565e-18
-2.08351e-18
-2.10912e-18
-2.12508e-18
-2.11889e-18
-2.11536e-18
-2.11503e-18
-2.11699e-18
-2.11634e-18
-2.11061e-18
-2.11044e-18
-2.11712e-18
-2.12231e-18
-2.13055e-18
-2.13443e-18
-2.14015e-18
-2.13708e-18
-2.12788e-18
-2.13437e-18
-2.11836e-18
-2.12901e-18
-2.12975e-18
-2.12917e-18
-2.13516e-18
-2.12725e-18
-2.12209e-18
-2.11613e-18
-2.11795e-18
-2.11038e-18
-2.1208e-18
-2.12901e-18
-2.13049e-18
-2.13824e-18
-2.11731e-18
-2.10004e-18
-2.09741e-18
-2.11124e-18
-2.09471e-18
-2.0893e-18
-2.10018e-18
-2.10727e-18
-2.11149e-18
-2.11733e-18
-2.11009e-18
-2.11199e-18
-2.13247e-18
-2.11998e-18
-2.09584e-18
-2.10179e-18
-2.09783e-18
-2.10204e-18
-2.11725e-18
-2.10791e-18
-2.10895e-18
-2.11311e-18
-2.10613e-18
-2.11726e-18
-2.11469e-18
-2.11317e-18
-2.11717e-18
-2.13503e-18
-2.1366e-18
-2.12291e-18
-2.12805e-18
-2.12733e-18
-2.12788e-18
-2.126e-18
-2.11002e-18
-2.10902e-18
-2.11274e-18
-2.11831e-18
-2.11885e-18
-2.12762e-18
-2.10788e-18
-2.1145e-18
-2.11234e-18
-2.11602e-18
-2.11583e-18
-2.11317e-18
-2.11809e-18
-2.1106e-18
-2.10752e-18
-2.11042e-18
-2.12162e-18
-2.11723e-18
-2.12064e-18
-2.12702e-18
-2.12651e-18
-2.11259e-18
-2.12061e-18
-2.11771e-18
-2.12761e-18
-2.11663e-18
-2.10122e-18
-2.11731e-18
-2.129e-18
-2.12901e-18
-2.12187e-18
-2.12026e-18
-2.13349e-18
-2.12874e-18
-2.12e-18
-2.12194e-18
-2.12517e-18
-2.14008e-18
-2.08944e-18
-2.0988e-18
-2.09512e-18
-2.09513e-18
-2.10484e-18
-2.10009e-18
-2.09634e-18
-2.09891e-18
-2.10542e-18
-2.11858e-18
-2.10813e-18
-2.09909e-18
-2.09444e-18
-2.10924e-18
-2.1065e-18
-2.10192e-18
-2.10511e-18
-2.10315e-18
-2.10353e-18
-2.11164e-18
-2.10812e-18
-2.10605e-18
-2.1134e-18
-2.11709e-18
-2.11466e-18
-2.11809e-18
-2.12427e-18
-2.12965e-18
-2.12645e-18
-2.12784e-18
-2.12513e-18
-2.13263e-18
-2.13522e-18
-2.1217e-18
-2.12082e-18
-2.11752e-18
-2.12071e-18
-2.13037e-18
-2.1107e-18
-2.10448e-18
-2.10862e-18
-2.10789e-18
-2.10848e-18
-2.10832e-18
-2.10585e-18
-2.10873e-18
-2.11262e-18
-2.11859e-18
-2.11133e-18
-2.10597e-18
-2.11596e-18
-2.11866e-18
-2.10679e-18
-2.11512e-18
-2.11916e-18
-2.11398e-18
-2.10285e-18
-2.12214e-18
-2.13044e-18
-2.11055e-18
-2.11437e-18
-2.11211e-18
-2.11094e-18
-2.12041e-18
-2.1239e-18
-2.13385e-18
-2.12491e-18
-2.11765e-18
-2.1216e-18
-2.11944e-18
-2.11806e-18
-2.11047e-18
-2.10883e-18
-2.12136e-18
-2.1216e-18
-2.12167e-18
-2.09782e-18
-2.09851e-18
-2.10127e-18
-2.10544e-18
-2.11811e-18
-2.12019e-18
-2.10323e-18
-2.10815e-18
-2.09535e-18
-2.10706e-18
-2.11202e-18
-2.11089e-18
-2.10683e-18
-2.09683e-18
-2.10347e-18
-2.106e-18
-2.10755e-18
-2.10613e-18
-2.11318e-18
-2.11139e-18
-2.11468e-18
-2.10547e-18
-2.10571e-18
-2.11837e-18
-2.11567e-18
-2.11658e-18
-2.11342e-18
-2.11785e-18
-2.12028e-18
-2.12251e-18
-2.12784e-18
-2.13069e-18
-2.12133e-18
-2.13321e-18
-2.12537e-18
-2.12798e-18
-2.13101e-18
-2.13435e-18
-2.14043e-18
-2.10496e-18
-2.09403e-18
-2.09971e-18
-2.10392e-18
-2.10034e-18
-2.1059e-18
-2.11476e-18
-2.10204e-18
-2.10191e-18
-2.10223e-18
-2.11289e-18
-2.1051e-18
-2.10495e-18
-2.10522e-18
-2.10464e-18
-2.11268e-18
-2.1182e-18
-2.10395e-18
-2.09476e-18
-2.10255e-18
-2.11386e-18
-2.11014e-18
-2.10838e-18
-2.10669e-18
-2.11089e-18
-2.10067e-18
-2.10486e-18
-2.11286e-18
-2.11751e-18
-2.12041e-18
-2.12037e-18
-2.12301e-18
-2.11985e-18
-2.11667e-18
-2.11293e-18
-2.11807e-18
-2.12411e-18
-2.13898e-18
-2.13572e-18
-2.09926e-18
-2.10303e-18
-2.11369e-18
-2.0966e-18
-2.1017e-18
-2.10059e-18
-2.08543e-18
-2.09008e-18
-2.10163e-18
-2.09388e-18
-2.09784e-18
-2.10058e-18
-2.09493e-18
-2.09909e-18
-2.08594e-18
-2.09839e-18
-2.1009e-18
-2.10753e-18
-2.11388e-18
-2.12272e-18
-2.11206e-18
-2.108e-18
-2.11195e-18
-2.10815e-18
-2.1109e-18
-2.11505e-18
-2.1152e-18
-2.11431e-18
-2.12084e-18
-2.11848e-18
-2.1202e-18
-2.11755e-18
-2.12019e-18
-2.12119e-18
-2.12475e-18
-2.12178e-18
-2.13123e-18
-2.13056e-18
-2.12881e-18
-2.07766e-18
-2.08662e-18
-2.09517e-18
-2.08873e-18
-2.09666e-18
-2.11314e-18
-2.09635e-18
-2.09151e-18
-2.08944e-18
-2.08919e-18
-2.0971e-18
-2.10345e-18
-2.10871e-18
-2.10312e-18
-2.10075e-18
-2.0993e-18
-2.10153e-18
-2.1094e-18
-2.11435e-18
-2.1266e-18
-2.11722e-18
-2.11178e-18
-2.10692e-18
-2.10689e-18
-2.11306e-18
-2.11159e-18
-2.11314e-18
-2.1194e-18
-2.12144e-18
-2.12678e-18
-2.12127e-18
-2.12496e-18
-2.12622e-18
-2.1321e-18
-2.12614e-18
-2.11771e-18
-2.1172e-18
-2.1148e-18
-2.12115e-18
-2.08864e-18
-2.09524e-18
-2.09093e-18
-2.08971e-18
-2.09074e-18
-2.09183e-18
-2.09134e-18
-2.08874e-18
-2.08196e-18
-2.08017e-18
-2.08872e-18
-2.09291e-18
-2.08744e-18
-2.08454e-18
-2.09884e-18
-2.10093e-18
-2.09664e-18
-2.09938e-18
-2.10544e-18
-2.11838e-18
-2.11256e-18
-2.10553e-18
-2.10397e-18
-2.10914e-18
-2.10835e-18
-2.1112e-18
-2.10709e-18
-2.11389e-18
-2.11328e-18
-2.10804e-18
-2.10764e-18
-2.11688e-18
-2.1188e-18
-2.11939e-18
-2.12117e-18
-2.12422e-18
-2.12604e-18
-2.11755e-18
-2.12099e-18
-2.08198e-18
-2.08109e-18
-2.07832e-18
-2.08916e-18
-2.0872e-18
-2.08765e-18
-2.08423e-18
-2.08624e-18
-2.08802e-18
-2.09237e-18
-2.08781e-18
-2.08412e-18
-2.08455e-18
-2.08654e-18
-2.08345e-18
-2.08746e-18
-2.09455e-18
-2.09329e-18
-2.09528e-18
-2.10879e-18
-2.10021e-18
-2.08962e-18
-2.0945e-18
-2.1006e-18
-2.0937e-18
-2.08911e-18
-2.09746e-18
-2.10193e-18
-2.10873e-18
-2.12139e-18
-2.1098e-18
-2.1114e-18
-2.1086e-18
-2.11273e-18
-2.11694e-18
-2.12382e-18
-2.12153e-18
-2.12074e-18
-2.11763e-18
-2.08473e-18
-2.08401e-18
-2.08396e-18
-2.08181e-18
-2.07914e-18
-2.08579e-18
-2.08497e-18
-2.08521e-18
-2.08988e-18
-2.10249e-18
-2.10016e-18
-2.08715e-18
-2.08246e-18
-2.07406e-18
-2.08088e-18
-2.08028e-18
-2.09142e-18
-2.09613e-18
-2.09646e-18
-2.09619e-18
-2.09766e-18
-2.0933e-18
-2.09422e-18
-2.10186e-18
-2.09461e-18
-2.10476e-18
-2.10779e-18
-2.1038e-18
-2.10763e-18
-2.11314e-18
-2.11017e-18
-2.10466e-18
-2.10106e-18
-2.11272e-18
-2.11053e-18
-2.11087e-18
-2.11255e-18
-2.11023e-18
-2.08335e-18
-2.07911e-18
-2.08155e-18
-2.0845e-18
-2.07751e-18
-2.0717e-18
-2.07636e-18
-2.08589e-18
-2.07952e-18
-2.07748e-18
-2.08131e-18
-2.07872e-18
-2.08671e-18
-2.07744e-18
-2.0787e-18
-2.07613e-18
-2.08069e-18
-2.09546e-18
-2.08985e-18
-2.08909e-18
-2.08614e-18
-2.08079e-18
-2.08414e-18
-2.09575e-18
-2.09466e-18
-2.09936e-18
-2.09292e-18
-2.08585e-18
-2.10554e-18
-2.10171e-18
-2.08765e-18
-2.09262e-18
-2.10668e-18
-2.10535e-18
-2.09997e-18
-2.105e-18
-2.10571e-18
-2.07442e-18
-2.07343e-18
-2.07461e-18
-2.08212e-18
-2.08117e-18
-2.08053e-18
-2.08119e-18
-2.08229e-18
-2.07944e-18
-2.07864e-18
-2.08379e-18
-2.08358e-18
-2.08061e-18
-2.08167e-18
-2.08149e-18
-2.09033e-18
-2.09874e-18
-2.09053e-18
-2.08859e-18
-2.09097e-18
-2.09603e-18
-2.09091e-18
-2.09353e-18
-2.09854e-18
-2.09484e-18
-2.10242e-18
-2.10156e-18
-2.10303e-18
-2.09799e-18
-2.09995e-18
-2.10049e-18
-2.10447e-18
-2.10367e-18
-2.10041e-18
-2.10286e-18
-2.10838e-18
-2.11022e-18
-2.06819e-18
-2.06852e-18
-2.07707e-18
-2.08092e-18
-2.07432e-18
-2.08156e-18
-2.07896e-18
-2.07813e-18
-2.07765e-18
-2.08103e-18
-2.07526e-18
-2.06929e-18
-2.07499e-18
-2.08151e-18
-2.07918e-18
-2.07271e-18
-2.06612e-18
-2.06783e-18
-2.06969e-18
-2.07715e-18
-2.07276e-18
-2.08347e-18
-2.08416e-18
-2.08415e-18
-2.08511e-18
-2.08669e-18
-2.09512e-18
-2.10158e-18
-2.09647e-18
-2.09404e-18
-2.0897e-18
-2.0917e-18
-2.08776e-18
-2.09008e-18
-2.09856e-18
-2.0867e-18
-2.06987e-18
-2.06665e-18
-2.07512e-18
-2.08037e-18
-2.07564e-18
-2.0775e-18
-2.07935e-18
-2.07225e-18
-2.07667e-18
-2.07391e-18
-2.0708e-18
-2.07658e-18
-2.0829e-18
-2.07952e-18
-2.08044e-18
-2.08218e-18
-2.07984e-18
-2.07718e-18
-2.07007e-18
-2.06471e-18
-2.07699e-18
-2.08151e-18
-2.08612e-18
-2.08784e-18
-2.09151e-18
-2.08824e-18
-2.09739e-18
-2.0996e-18
-2.10108e-18
-2.10484e-18
-2.09839e-18
-2.09293e-18
-2.09626e-18
-2.09618e-18
-2.10211e-18
-2.10728e-18
-2.05753e-18
-2.06086e-18
-2.07323e-18
-2.07283e-18
-2.07406e-18
-2.06709e-18
-2.07043e-18
-2.0677e-18
-2.07196e-18
-2.07269e-18
-2.07421e-18
-2.07198e-18
-2.06647e-18
-2.06637e-18
-2.07011e-18
-2.0675e-18
-2.07564e-18
-2.07182e-18
-2.06114e-18
-2.07064e-18
-2.07588e-18
-2.0808e-18
-2.08061e-18
-2.07983e-18
-2.07992e-18
-2.0841e-18
-2.07587e-18
-2.07969e-18
-2.07807e-18
-2.07799e-18
-2.07982e-18
-2.07954e-18
-2.07984e-18
-2.08202e-18
-2.07924e-18
-2.06299e-18
-2.06621e-18
-2.07441e-18
-2.07218e-18
-2.07607e-18
-2.07095e-18
-2.06927e-18
-2.06554e-18
-2.06257e-18
-2.07229e-18
-2.08477e-18
-2.08416e-18
-2.07783e-18
-2.07781e-18
-2.07868e-18
-2.07508e-18
-2.07823e-18
-2.08335e-18
-2.08536e-18
-2.0761e-18
-2.08336e-18
-2.08825e-18
-2.08509e-18
-2.08294e-18
-2.08467e-18
-2.08688e-18
-2.08994e-18
-2.09242e-18
-2.08574e-18
-2.08958e-18
-2.09e-18
-2.09245e-18
-2.09691e-18
-2.09417e-18
-2.06161e-18
-2.07261e-18
-2.07663e-18
-2.06988e-18
-2.07209e-18
-2.07858e-18
-2.07289e-18
-2.07589e-18
-2.08618e-18
-2.08278e-18
-2.07214e-18
-2.07793e-18
-2.07342e-18
-2.06935e-18
-2.0773e-18
-2.0753e-18
-2.07725e-18
-2.06626e-18
-2.06417e-18
-2.0654e-18
-2.06542e-18
-2.0641e-18
-2.06587e-18
-2.06316e-18
-2.07117e-18
-2.07242e-18
-2.07293e-18
-2.08123e-18
-2.07464e-18
-2.07296e-18
-2.07747e-18
-2.08014e-18
-2.08099e-18
-2.08145e-18
-2.06096e-18
-2.06255e-18
-2.06093e-18
-2.05798e-18
-2.06365e-18
-2.0647e-18
-2.06432e-18
-2.06262e-18
-2.06179e-18
-2.06465e-18
-2.06076e-18
-2.06302e-18
-2.06226e-18
-2.06381e-18
-2.06777e-18
-2.0645e-18
-2.06909e-18
-2.07161e-18
-2.0761e-18
-2.08181e-18
-2.07951e-18
-2.07853e-18
-2.08191e-18
-2.07915e-18
-2.07764e-18
-2.07837e-18
-2.0813e-18
-2.08662e-18
-2.08856e-18
-2.0819e-18
-2.0789e-18
-2.08307e-18
-2.07946e-18
-2.08394e-18
-2.08401e-18
-2.06564e-18
-2.06056e-18
-2.0638e-18
-2.06214e-18
-2.06866e-18
-2.07362e-18
-2.06476e-18
-2.0659e-18
-2.06383e-18
-2.06738e-18
-2.06805e-18
-2.07122e-18
-2.0774e-18
-2.06458e-18
-2.06572e-18
-2.06724e-18
-2.06925e-18
-2.06005e-18
-2.06137e-18
-2.06315e-18
-2.06229e-18
-2.05889e-18
-2.06327e-18
-2.06377e-18
-2.06342e-18
-2.06095e-18
-2.06215e-18
-2.06246e-18
-2.0646e-18
-2.07025e-18
-2.07294e-18
-2.07554e-18
-2.07969e-18
-2.06365e-18
-2.05964e-18
-2.0554e-18
-2.05806e-18
-2.06599e-18
-2.06026e-18
-2.06144e-18
-2.06193e-18
-2.06174e-18
-2.06142e-18
-2.06082e-18
-2.05809e-18
-2.0566e-18
-2.05953e-18
-2.05924e-18
-2.05538e-18
-2.06071e-18
-2.06398e-18
-2.06582e-18
-2.07136e-18
-2.07027e-18
-2.07186e-18
-2.06875e-18
-2.07266e-18
-2.0673e-18
-2.06128e-18
-2.06442e-18
-2.06661e-18
-2.0678e-18
-2.0664e-18
-2.06508e-18
-2.06232e-18
-2.06447e-18
-2.0627e-18
-2.06201e-18
-2.06176e-18
-2.06229e-18
-2.06146e-18
-2.05854e-18
-2.06723e-18
-2.06774e-18
-2.06187e-18
-2.05996e-18
-2.05961e-18
-2.05495e-18
-2.05002e-18
-2.04954e-18
-2.05661e-18
-2.06007e-18
-2.05902e-18
-2.06271e-18
-2.05836e-18
-2.049e-18
-2.05096e-18
-2.04852e-18
-2.04937e-18
-2.04908e-18
-2.05044e-18
-2.04941e-18
-2.05065e-18
-2.05703e-18
-2.06434e-18
-2.06064e-18
-2.06103e-18
-2.06555e-18
-2.0636e-18
-2.05945e-18
-2.05886e-18
-2.05891e-18
-2.05876e-18
-2.05682e-18
-2.05291e-18
-2.05711e-18
-2.05906e-18
-2.06285e-18
-2.07041e-18
-2.05777e-18
-2.0579e-18
-2.05858e-18
-2.05642e-18
-2.05404e-18
-2.06131e-18
-2.05929e-18
-2.05744e-18
-2.05885e-18
-2.06228e-18
-2.05876e-18
-2.05905e-18
-2.06157e-18
-2.05905e-18
-2.05589e-18
-2.05325e-18
-2.0594e-18
-2.05464e-18
-2.05701e-18
-2.05401e-18
-2.05902e-18
-2.05463e-18
-2.04554e-18
-2.04848e-18
-2.05781e-18
-2.05388e-18
-2.05605e-18
-2.05884e-18
-2.051e-18
-2.05581e-18
-2.06239e-18
-2.05855e-18
-2.0562e-18
-2.05568e-18
-2.05671e-18
-2.06101e-18
-2.05535e-18
-2.04995e-18
-2.05271e-18
-2.05517e-18
-2.05733e-18
-2.05332e-18
-2.05087e-18
-2.04977e-18
-2.04834e-18
-2.04494e-18
-2.04834e-18
-2.05017e-18
-2.04773e-18
-2.0407e-18
-2.04836e-18
-2.05157e-18
-2.05214e-18
-2.05266e-18
-2.05766e-18
-2.04656e-18
-2.04674e-18
-2.04654e-18
-2.05346e-18
-2.05282e-18
-2.05275e-18
-2.05279e-18
-2.05249e-18
-2.05381e-18
-2.05699e-18
-2.05711e-18
-2.06124e-18
-2.05288e-18
-2.04105e-18
-2.05154e-18
-2.05876e-18
-2.05211e-18
-2.04552e-18
-2.04813e-18
-2.04918e-18
-2.04877e-18
-2.04701e-18
-2.04254e-18
-2.04627e-18
-2.04811e-18
-2.04853e-18
-2.04791e-18
-2.04477e-18
-2.04693e-18
-2.0476e-18
-2.04545e-18
-2.04551e-18
-2.04434e-18
-2.04504e-18
-2.04588e-18
-2.04664e-18
-2.0477e-18
-2.04861e-18
-2.04905e-18
-2.0494e-18
-2.04989e-18
-2.04662e-18
-2.04086e-18
-2.05553e-18
-2.04848e-18
-2.04821e-18
-2.04906e-18
-2.04749e-18
-2.04239e-18
-2.04488e-18
-2.0469e-18
-2.04576e-18
-2.04316e-18
-2.05224e-18
-2.05471e-18
-2.04801e-18
-2.04465e-18
-2.04014e-18
-2.04258e-18
-2.04663e-18
-2.0523e-18
-2.03826e-18
-2.03529e-18
-2.04319e-18
-2.04134e-18
-2.03904e-18
-2.03608e-18
-2.0445e-18
-2.05177e-18
-2.04679e-18
-2.04212e-18
-2.04807e-18
-2.05101e-18
-2.05121e-18
-2.0559e-18
-2.05317e-18
-2.0557e-18
-2.05751e-18
-2.05222e-18
-2.04468e-18
-2.05271e-18
-2.04734e-18
-2.04223e-18
-2.04175e-18
-2.03983e-18
-2.03737e-18
-2.03402e-18
-2.03418e-18
-2.03103e-18
-2.03007e-18
-2.03391e-18
-2.03324e-18
-2.04237e-18
-2.03859e-18
-2.04008e-18
-2.04381e-18
-2.04211e-18
-2.05109e-18
-2.05666e-18
-2.04564e-18
-2.0404e-18
-2.0351e-18
-2.03636e-18
-2.04186e-18
-2.03978e-18
-2.03702e-18
-2.0514e-18
-2.04287e-18
-2.04539e-18
-2.03806e-18
-2.04768e-18
-2.04839e-18
-2.04294e-18
-2.03569e-18
-2.03977e-18
-2.04375e-18
-2.04819e-18
-2.04341e-18
-2.04097e-18
-2.04188e-18
-2.03934e-18
-2.0374e-18
-2.04635e-18
-2.02335e-18
-2.02668e-18
-2.03312e-18
-2.04062e-18
-2.02851e-18
-2.03209e-18
-2.03946e-18
-2.03636e-18
-2.03626e-18
-2.03776e-18
-2.04124e-18
-2.04484e-18
-2.04174e-18
-2.04195e-18
-2.04423e-18
-2.03825e-18
-2.03865e-18
-2.03395e-18
-2.03823e-18
-2.04523e-18
-2.04806e-18
-2.0468e-18
-2.03879e-18