/*--------------------------------*- C++ -*----------------------------------*\
  =========                 |
  \\      /  F ield         | OpenFOAM: The Open Source CFD Toolbox
   \\    /   O peration     | Website:  https://openfoam.org
    \\  /    A nd           | Version:  7
     \\/     M anipulation  |
\*---------------------------------------------------------------------------*/
FoamFile
{
    version     2.0;
    format      ascii;
    class       volScalarField;
    location    "112000";
    object      nu;
}
// * * * * * * * * * * * * * * * * * * * * * * * * * * * * * * * * * * * * * //

dimensions      [0 2 -1 0 0 0 0];

internalField   nonuniform List<scalar> 
4838
(
2.31462e-05
2.39861e-05
2.42747e-05
2.47006e-05
2.51974e-05
2.57356e-05
2.63031e-05
2.68938e-05
2.75037e-05
2.81294e-05
2.87671e-05
2.94125e-05
3.00609e-05
3.07065e-05
3.13428e-05
3.19627e-05
3.2558e-05
3.312e-05
3.36396e-05
3.41074e-05
3.45144e-05
3.48519e-05
3.51123e-05
3.52896e-05
3.53794e-05
3.53794e-05
3.52896e-05
3.51124e-05
3.48519e-05
3.45144e-05
3.41075e-05
3.36396e-05
3.312e-05
3.2558e-05
3.19627e-05
3.13429e-05
3.07065e-05
3.00609e-05
2.94125e-05
2.87671e-05
2.81294e-05
2.75038e-05
2.68938e-05
2.63031e-05
2.57356e-05
2.51974e-05
2.47006e-05
2.42747e-05
2.39861e-05
2.31462e-05
1.93994e-05
2.12232e-05
2.15307e-05
2.19357e-05
2.2418e-05
2.29528e-05
2.35234e-05
2.41187e-05
2.47314e-05
2.5356e-05
2.59875e-05
2.66209e-05
2.72512e-05
2.78728e-05
2.84794e-05
2.90645e-05
2.96209e-05
3.01413e-05
3.06182e-05
3.1044e-05
3.14117e-05
3.17146e-05
3.19472e-05
3.21049e-05
3.21846e-05
3.21846e-05
3.21049e-05
3.19472e-05
3.17147e-05
3.14117e-05
3.10441e-05
3.06182e-05
3.01414e-05
2.96209e-05
2.90645e-05
2.84794e-05
2.78728e-05
2.72512e-05
2.66209e-05
2.59875e-05
2.5356e-05
2.47315e-05
2.41187e-05
2.35234e-05
2.29529e-05
2.2418e-05
2.19357e-05
2.15307e-05
2.12232e-05
1.93994e-05
1.82019e-05
2.00708e-05
2.04737e-05
2.0866e-05
2.12853e-05
2.17386e-05
2.22219e-05
2.27285e-05
2.32518e-05
2.37864e-05
2.4327e-05
2.48689e-05
2.54072e-05
2.59368e-05
2.64523e-05
2.6948e-05
2.74181e-05
2.78564e-05
2.82569e-05
2.86135e-05
2.89207e-05
2.91733e-05
2.93668e-05
2.94979e-05
2.9564e-05
2.9564e-05
2.94979e-05
2.93668e-05
2.91733e-05
2.89207e-05
2.86135e-05
2.82569e-05
2.78564e-05
2.74181e-05
2.6948e-05
2.64523e-05
2.59368e-05
2.54072e-05
2.48689e-05
2.4327e-05
2.37864e-05
2.32518e-05
2.27285e-05
2.2222e-05
2.17387e-05
2.12853e-05
2.0866e-05
2.04737e-05
2.00708e-05
1.82019e-05
1.74103e-05
1.90428e-05
1.94784e-05
1.98845e-05
2.02849e-05
2.0695e-05
2.11203e-05
2.15606e-05
2.20133e-05
2.24743e-05
2.29397e-05
2.34051e-05
2.38663e-05
2.43189e-05
2.47581e-05
2.51793e-05
2.55776e-05
2.59478e-05
2.62852e-05
2.6585e-05
2.68425e-05
2.70539e-05
2.72157e-05
2.73251e-05
2.73803e-05
2.73803e-05
2.73251e-05
2.72157e-05
2.70539e-05
2.68425e-05
2.6585e-05
2.62852e-05
2.59479e-05
2.55776e-05
2.51793e-05
2.47582e-05
2.43189e-05
2.38663e-05
2.34051e-05
2.29397e-05
2.24743e-05
2.20133e-05
2.15606e-05
2.11203e-05
2.0695e-05
2.0285e-05
1.98845e-05
1.94784e-05
1.90428e-05
1.74103e-05
1.67436e-05
1.81518e-05
1.85642e-05
1.8961e-05
1.93469e-05
1.97303e-05
2.01174e-05
2.05109e-05
2.09108e-05
2.13152e-05
2.17215e-05
2.21263e-05
2.25261e-05
2.29172e-05
2.32958e-05
2.36578e-05
2.39991e-05
2.43156e-05
2.46033e-05
2.48583e-05
2.5077e-05
2.52562e-05
2.53931e-05
2.54857e-05
2.55323e-05
2.55323e-05
2.54857e-05
2.53931e-05
2.52562e-05
2.5077e-05
2.48583e-05
2.46033e-05
2.43156e-05
2.39991e-05
2.36578e-05
2.32958e-05
2.29173e-05
2.25261e-05
2.21263e-05
2.17215e-05
2.13153e-05
2.09108e-05
2.0511e-05
2.01174e-05
1.97303e-05
1.93469e-05
1.8961e-05
1.85642e-05
1.81518e-05
1.67436e-05
1.61497e-05
1.73725e-05
1.77484e-05
1.81192e-05
1.8483e-05
1.8842e-05
1.91993e-05
1.95574e-05
1.99169e-05
2.02774e-05
2.0637e-05
2.09937e-05
2.13445e-05
2.16866e-05
2.20166e-05
2.23312e-05
2.26271e-05
2.29009e-05
2.31491e-05
2.33688e-05
2.35568e-05
2.37106e-05
2.3828e-05
2.39073e-05
2.39473e-05
2.39473e-05
2.39073e-05
2.3828e-05
2.37106e-05
2.35568e-05
2.33688e-05
2.31492e-05
2.29009e-05
2.26271e-05
2.23312e-05
2.20166e-05
2.16866e-05
2.13445e-05
2.09937e-05
2.0637e-05
2.02774e-05
1.99169e-05
1.95574e-05
1.91993e-05
1.8842e-05
1.8483e-05
1.81192e-05
1.77484e-05
1.73725e-05
1.61497e-05
1.56095e-05
1.66797e-05
1.70204e-05
1.73607e-05
1.76979e-05
1.80313e-05
1.83617e-05
1.86901e-05
1.90169e-05
1.9342e-05
1.96643e-05
1.99822e-05
2.02935e-05
2.05959e-05
2.08867e-05
2.11632e-05
2.14225e-05
2.16618e-05
2.18784e-05
2.20697e-05
2.22331e-05
2.23667e-05
2.24685e-05
2.25372e-05
2.25718e-05
2.25718e-05
2.25372e-05
2.24685e-05
2.23667e-05
2.22331e-05
2.20697e-05
2.18784e-05
2.16618e-05
2.14225e-05
2.11632e-05
2.08867e-05
2.05959e-05
2.02935e-05
1.99822e-05
1.96643e-05
1.9342e-05
1.90169e-05
1.86901e-05
1.83617e-05
1.80313e-05
1.76979e-05
1.73607e-05
1.70204e-05
1.66797e-05
1.56095e-05
1.51126e-05
1.60559e-05
1.63657e-05
1.66769e-05
1.6987e-05
1.72947e-05
1.75995e-05
1.79014e-05
1.82003e-05
1.84959e-05
1.87873e-05
1.90733e-05
1.93522e-05
1.96221e-05
1.98808e-05
2.01261e-05
2.03555e-05
2.05668e-05
2.07577e-05
2.09259e-05
2.10695e-05
2.11866e-05
2.12759e-05
2.1336e-05
2.13663e-05
2.13663e-05
2.1336e-05
2.12759e-05
2.11866e-05
2.10695e-05
2.09259e-05
2.07577e-05
2.05668e-05
2.03555e-05
2.01261e-05
1.98808e-05
1.96221e-05
1.93522e-05
1.90733e-05
1.87873e-05
1.84959e-05
1.82003e-05
1.79014e-05
1.75995e-05
1.72947e-05
1.6987e-05
1.66769e-05
1.63657e-05
1.60559e-05
1.51126e-05
1.46521e-05
1.54887e-05
1.5772e-05
1.60569e-05
1.63417e-05
1.66249e-05
1.69058e-05
1.71836e-05
1.74578e-05
1.7728e-05
1.79932e-05
1.82524e-05
1.85043e-05
1.87472e-05
1.89793e-05
1.91987e-05
1.94035e-05
1.95917e-05
1.97613e-05
1.99106e-05
2.00379e-05
2.01416e-05
2.02205e-05
2.02737e-05
2.03004e-05
2.03004e-05
2.02737e-05
2.02205e-05
2.01416e-05
2.00379e-05
1.99106e-05
1.97613e-05
1.95917e-05
1.94035e-05
1.91987e-05
1.89793e-05
1.87472e-05
1.85043e-05
1.82524e-05
1.79932e-05
1.7728e-05
1.74578e-05
1.71836e-05
1.69058e-05
1.66249e-05
1.63417e-05
1.60569e-05
1.5772e-05
1.54887e-05
1.46521e-05
1.42232e-05
1.49694e-05
1.52296e-05
1.54914e-05
1.57533e-05
1.60142e-05
1.6273e-05
1.65289e-05
1.67811e-05
1.70289e-05
1.72715e-05
1.75078e-05
1.77367e-05
1.79567e-05
1.81665e-05
1.83643e-05
1.85484e-05
1.87173e-05
1.88693e-05
1.90029e-05
1.91165e-05
1.92091e-05
1.92795e-05
1.93269e-05
1.93507e-05
1.93507e-05
1.93269e-05
1.92795e-05
1.92091e-05
1.91165e-05
1.90029e-05
1.88693e-05
1.87173e-05
1.85484e-05
1.83643e-05
1.81665e-05
1.79567e-05
1.77367e-05
1.75078e-05
1.72715e-05
1.70289e-05
1.67811e-05
1.65289e-05
1.6273e-05
1.60142e-05
1.57533e-05
1.54914e-05
1.52296e-05
1.49694e-05
1.42232e-05
1.38221e-05
1.4491e-05
1.47312e-05
1.49726e-05
1.52142e-05
1.5455e-05
1.56938e-05
1.59299e-05
1.61624e-05
1.63904e-05
1.66131e-05
1.68295e-05
1.70386e-05
1.72392e-05
1.74298e-05
1.76092e-05
1.7776e-05
1.79286e-05
1.80657e-05
1.8186e-05
1.82883e-05
1.83715e-05
1.84347e-05
1.84772e-05
1.84986e-05
1.84986e-05
1.84772e-05
1.84347e-05
1.83715e-05
1.82883e-05
1.8186e-05
1.80657e-05
1.79286e-05
1.7776e-05
1.76092e-05
1.74298e-05
1.72392e-05
1.70386e-05
1.68295e-05
1.66131e-05
1.63904e-05
1.61624e-05
1.59299e-05
1.56938e-05
1.5455e-05
1.52142e-05
1.49726e-05
1.47312e-05
1.4491e-05
1.38221e-05
1.34458e-05
1.40483e-05
1.42708e-05
1.44943e-05
1.47179e-05
1.49406e-05
1.51616e-05
1.53799e-05
1.55946e-05
1.5805e-05
1.60102e-05
1.62093e-05
1.64011e-05
1.65848e-05
1.6759e-05
1.69226e-05
1.70744e-05
1.72132e-05
1.73376e-05
1.74467e-05
1.75393e-05
1.76145e-05
1.76717e-05
1.77101e-05
1.77294e-05
1.77294e-05
1.77101e-05
1.76717e-05
1.76145e-05
1.75393e-05
1.74467e-05
1.73376e-05
1.72131e-05
1.70744e-05
1.69226e-05
1.6759e-05
1.65848e-05
1.64011e-05
1.62093e-05
1.60102e-05
1.5805e-05
1.55946e-05
1.53799e-05
1.51616e-05
1.49406e-05
1.47179e-05
1.44943e-05
1.42708e-05
1.40483e-05
1.34458e-05
1.30918e-05
1.36367e-05
1.38436e-05
1.40513e-05
1.42589e-05
1.44656e-05
1.46705e-05
1.48728e-05
1.50718e-05
1.52665e-05
1.54561e-05
1.56398e-05
1.58165e-05
1.59854e-05
1.61454e-05
1.62953e-05
1.64342e-05
1.6561e-05
1.66746e-05
1.6774e-05
1.68583e-05
1.69268e-05
1.69787e-05
1.70137e-05
1.70312e-05
1.70312e-05
1.70137e-05
1.69787e-05
1.69268e-05
1.68583e-05
1.6774e-05
1.66746e-05
1.6561e-05
1.64342e-05
1.62953e-05
1.61454e-05
1.59854e-05
1.58165e-05
1.56398e-05
1.54561e-05
1.52665e-05
1.50718e-05
1.48728e-05
1.46705e-05
1.44656e-05
1.42589e-05
1.40513e-05
1.38436e-05
1.36367e-05
1.30918e-05
1.2758e-05
1.32527e-05
1.34458e-05
1.36394e-05
1.38327e-05
1.40251e-05
1.42157e-05
1.44037e-05
1.45885e-05
1.47692e-05
1.49449e-05
1.5115e-05
1.52784e-05
1.54343e-05
1.55817e-05
1.57197e-05
1.58474e-05
1.59638e-05
1.60679e-05
1.6159e-05
1.62361e-05
1.62988e-05
1.63463e-05
1.63782e-05
1.63942e-05
1.63942e-05
1.63782e-05
1.63463e-05
1.62988e-05
1.62361e-05
1.6159e-05
1.60679e-05
1.59638e-05
1.58474e-05
1.57197e-05
1.55817e-05
1.54343e-05
1.52784e-05
1.5115e-05
1.49449e-05
1.47692e-05
1.45885e-05
1.44037e-05
1.42157e-05
1.4025e-05
1.38327e-05
1.36394e-05
1.34458e-05
1.32527e-05
1.2758e-05
1.24424e-05
1.28933e-05
1.3074e-05
1.3255e-05
1.34356e-05
1.36151e-05
1.37929e-05
1.39681e-05
1.41402e-05
1.43083e-05
1.44717e-05
1.46296e-05
1.47811e-05
1.49255e-05
1.5062e-05
1.51895e-05
1.53073e-05
1.54146e-05
1.55105e-05
1.55943e-05
1.56652e-05
1.57227e-05
1.57664e-05
1.57956e-05
1.58104e-05
1.58104e-05
1.57956e-05
1.57664e-05
1.57227e-05
1.56652e-05
1.55943e-05
1.55105e-05
1.54146e-05
1.53073e-05
1.51895e-05
1.50619e-05
1.49255e-05
1.47811e-05
1.46296e-05
1.44717e-05
1.43083e-05
1.41402e-05
1.39681e-05
1.37929e-05
1.36151e-05
1.34356e-05
1.3255e-05
1.3074e-05
1.28933e-05
1.24424e-05
1.21436e-05
1.25559e-05
1.27255e-05
1.28952e-05
1.30643e-05
1.32323e-05
1.33985e-05
1.35623e-05
1.3723e-05
1.38798e-05
1.40321e-05
1.41792e-05
1.43201e-05
1.44543e-05
1.45809e-05
1.46992e-05
1.48083e-05
1.49076e-05
1.49962e-05
1.50736e-05
1.51391e-05
1.51922e-05
1.52324e-05
1.52594e-05
1.5273e-05
1.5273e-05
1.52594e-05
1.52324e-05
1.51922e-05
1.51391e-05
1.50736e-05
1.49962e-05
1.49076e-05
1.48083e-05
1.46992e-05
1.45809e-05
1.44543e-05
1.43201e-05
1.41791e-05
1.40321e-05
1.38798e-05
1.3723e-05
1.35623e-05
1.33985e-05
1.32323e-05
1.30643e-05
1.28952e-05
1.27255e-05
1.25559e-05
1.21436e-05
1.186e-05
1.22382e-05
1.23978e-05
1.25573e-05
1.27161e-05
1.28738e-05
1.30296e-05
1.31831e-05
1.33335e-05
1.34802e-05
1.36225e-05
1.37598e-05
1.38913e-05
1.40164e-05
1.41342e-05
1.42442e-05
1.43457e-05
1.44378e-05
1.45201e-05
1.45918e-05
1.46525e-05
1.47016e-05
1.47389e-05
1.47638e-05
1.47764e-05
1.47764e-05
1.47638e-05
1.47389e-05
1.47016e-05
1.46525e-05
1.45918e-05
1.45201e-05
1.44378e-05
1.43457e-05
1.42442e-05
1.41342e-05
1.40163e-05
1.38913e-05
1.37598e-05
1.36225e-05
1.34802e-05
1.33335e-05
1.31831e-05
1.30296e-05
1.28738e-05
1.27161e-05
1.25573e-05
1.23978e-05
1.22382e-05
1.186e-05
1.15904e-05
1.19385e-05
1.2089e-05
1.22392e-05
1.23888e-05
1.2537e-05
1.26835e-05
1.28276e-05
1.29687e-05
1.31063e-05
1.32396e-05
1.33681e-05
1.34912e-05
1.3608e-05
1.37181e-05
1.38207e-05
1.39153e-05
1.40011e-05
1.40777e-05
1.41444e-05
1.42008e-05
1.42465e-05
1.4281e-05
1.43042e-05
1.43159e-05
1.43159e-05
1.43042e-05
1.4281e-05
1.42465e-05
1.42008e-05
1.41444e-05
1.40777e-05
1.40011e-05
1.39153e-05
1.38207e-05
1.37181e-05
1.3608e-05
1.34912e-05
1.33681e-05
1.32396e-05
1.31063e-05
1.29687e-05
1.28276e-05
1.26835e-05
1.2537e-05
1.23888e-05
1.22392e-05
1.2089e-05
1.19385e-05
1.15904e-05
1.13337e-05
1.16549e-05
1.17971e-05
1.1939e-05
1.20801e-05
1.22199e-05
1.23579e-05
1.24935e-05
1.26263e-05
1.27555e-05
1.28808e-05
1.30014e-05
1.31167e-05
1.32262e-05
1.33293e-05
1.34253e-05
1.35136e-05
1.35938e-05
1.36653e-05
1.37275e-05
1.37801e-05
1.38227e-05
1.38549e-05
1.38765e-05
1.38874e-05
1.38874e-05
1.38765e-05
1.38549e-05
1.38227e-05
1.37801e-05
1.37275e-05
1.36653e-05
1.35938e-05
1.35136e-05
1.34253e-05
1.33293e-05
1.32262e-05
1.31167e-05
1.30014e-05
1.28808e-05
1.27555e-05
1.26263e-05
1.24935e-05
1.23579e-05
1.22199e-05
1.20801e-05
1.1939e-05
1.17971e-05
1.16549e-05
1.13337e-05
1.15208e-05
1.16551e-05
1.17885e-05
1.19205e-05
1.20508e-05
1.21787e-05
1.23039e-05
1.24256e-05
1.25435e-05
1.26569e-05
1.27654e-05
1.28682e-05
1.29649e-05
1.3055e-05
1.31378e-05
1.32129e-05
1.32798e-05
1.3338e-05
1.33872e-05
1.3427e-05
1.34571e-05
1.34773e-05
1.34874e-05
1.34874e-05
1.34773e-05
1.34571e-05
1.3427e-05
1.33872e-05
1.3338e-05
1.32798e-05
1.32129e-05
1.31378e-05
1.3055e-05
1.29649e-05
1.28682e-05
1.27654e-05
1.26569e-05
1.25435e-05
1.24256e-05
1.23039e-05
1.21787e-05
1.20508e-05
1.19205e-05
1.17885e-05
1.16551e-05
1.15208e-05
1.13861e-05
1.10889e-05
1.13859e-05
1.15123e-05
1.16373e-05
1.17605e-05
1.18814e-05
1.19996e-05
1.21146e-05
1.22258e-05
1.23327e-05
1.24348e-05
1.25317e-05
1.26226e-05
1.27073e-05
1.27851e-05
1.28556e-05
1.29184e-05
1.29731e-05
1.30192e-05
1.30565e-05
1.30847e-05
1.31036e-05
1.31131e-05
1.31131e-05
1.31036e-05
1.30847e-05
1.30565e-05
1.30192e-05
1.2973e-05
1.29184e-05
1.28556e-05
1.27851e-05
1.27073e-05
1.26226e-05
1.25316e-05
1.24348e-05
1.23327e-05
1.22258e-05
1.21146e-05
1.19996e-05
1.18814e-05
1.17605e-05
1.16373e-05
1.15123e-05
1.13859e-05
1.12586e-05
1.11308e-05
1.08551e-05
1.13687e-05
1.14855e-05
1.16001e-05
1.17119e-05
1.18207e-05
1.19258e-05
1.20268e-05
1.21232e-05
1.22145e-05
1.23003e-05
1.238e-05
1.24533e-05
1.25197e-05
1.25788e-05
1.26301e-05
1.26735e-05
1.27085e-05
1.2735e-05
1.27528e-05
1.27617e-05
1.27617e-05
1.27528e-05
1.2735e-05
1.27085e-05
1.26735e-05
1.26301e-05
1.25788e-05
1.25197e-05
1.24533e-05
1.238e-05
1.23003e-05
1.22145e-05
1.21232e-05
1.20268e-05
1.19258e-05
1.18207e-05
1.17119e-05
1.16001e-05
1.14855e-05
1.13687e-05
1.12502e-05
1.11302e-05
1.10093e-05
1.08878e-05
1.06314e-05
1.12245e-05
1.13332e-05
1.14393e-05
1.15423e-05
1.16418e-05
1.17374e-05
1.18286e-05
1.19149e-05
1.1996e-05
1.20713e-05
1.21405e-05
1.22031e-05
1.22587e-05
1.23072e-05
1.2348e-05
1.2381e-05
1.2406e-05
1.24227e-05
1.24311e-05
1.24311e-05
1.24227e-05
1.2406e-05
1.2381e-05
1.2348e-05
1.23072e-05
1.22587e-05
1.22031e-05
1.21404e-05
1.20713e-05
1.1996e-05
1.19149e-05
1.18286e-05
1.17374e-05
1.16418e-05
1.15423e-05
1.14393e-05
1.13332e-05
1.12245e-05
1.11136e-05
1.10009e-05
1.08869e-05
1.07718e-05
1.06561e-05
1.04172e-05
1.10796e-05
1.11803e-05
1.12781e-05
1.13726e-05
1.14632e-05
1.15496e-05
1.16314e-05
1.17081e-05
1.17794e-05
1.18448e-05
1.19039e-05
1.19566e-05
1.20023e-05
1.20408e-05
1.2072e-05
1.20955e-05
1.21113e-05
1.21192e-05
1.21192e-05
1.21113e-05
1.20955e-05
1.2072e-05
1.20408e-05
1.20023e-05
1.19565e-05
1.19039e-05
1.18448e-05
1.17794e-05
1.17081e-05
1.16314e-05
1.15496e-05
1.14632e-05
1.13726e-05
1.12781e-05
1.11803e-05
1.10796e-05
1.09762e-05
1.08708e-05
1.07635e-05
1.06549e-05
1.05453e-05
1.04349e-05
1.02118e-05
1.1027e-05
1.11167e-05
1.12028e-05
1.12849e-05
1.13625e-05
1.14352e-05
1.15028e-05
1.15647e-05
1.16208e-05
1.16706e-05
1.17138e-05
1.17503e-05
1.17798e-05
1.1802e-05
1.1817e-05
1.18245e-05
1.18245e-05
1.1817e-05
1.1802e-05
1.17798e-05
1.17503e-05
1.17138e-05
1.16706e-05
1.16208e-05
1.15647e-05
1.15027e-05
1.14352e-05
1.13625e-05
1.12849e-05
1.12028e-05
1.11167e-05
1.1027e-05
1.0934e-05
1.08381e-05
1.07397e-05
1.06393e-05
1.0537e-05
1.04334e-05
1.03288e-05
1.02234e-05
1.00145e-05
1.08732e-05
1.09552e-05
1.10332e-05
1.11069e-05
1.1176e-05
1.12402e-05
1.1299e-05
1.13521e-05
1.13994e-05
1.14404e-05
1.1475e-05
1.15029e-05
1.1524e-05
1.15381e-05
1.15452e-05
1.15452e-05
1.15381e-05
1.1524e-05
1.15029e-05
1.1475e-05
1.14404e-05
1.13994e-05
1.13521e-05
1.1299e-05
1.12401e-05
1.1176e-05
1.11069e-05
1.10332e-05
1.09551e-05
1.08732e-05
1.07878e-05
1.06992e-05
1.06078e-05
1.0514e-05
1.04182e-05
1.03206e-05
1.02216e-05
1.01216e-05
1.00208e-05
9.82492e-06
1.09294e-05
1.09904e-05
1.10463e-05
1.10968e-05
1.11417e-05
1.11807e-05
1.12135e-05
1.124e-05
1.126e-05
1.12734e-05
1.12802e-05
1.12802e-05
1.12734e-05
1.126e-05
1.124e-05
1.12135e-05
1.11807e-05
1.11417e-05
1.10968e-05
1.10463e-05
1.09904e-05
1.09294e-05
1.08636e-05
1.07934e-05
1.07191e-05
1.06411e-05
1.05596e-05
1.04751e-05
1.03879e-05
1.02983e-05
1.02067e-05
1.01134e-05
1.00187e-05
9.92298e-06
9.82645e-06
9.64243e-06
1.08965e-05
1.09336e-05
1.09648e-05
1.099e-05
1.1009e-05
1.10218e-05
1.10282e-05
1.10282e-05
1.10218e-05
1.1009e-05
1.099e-05
1.09648e-05
1.09335e-05
1.08965e-05
1.08538e-05
1.08057e-05
1.07524e-05
1.06943e-05
1.06316e-05
1.05647e-05
1.04938e-05
1.04193e-05
1.03415e-05
1.02608e-05
1.01775e-05
1.00918e-05
1.00042e-05
9.91484e-06
9.82415e-06
9.73238e-06
9.63981e-06
9.46661e-06
1.07277e-05
1.07517e-05
1.07699e-05
1.0782e-05
1.07881e-05
1.07881e-05
1.0782e-05
1.07699e-05
1.07517e-05
1.07277e-05
1.0698e-05
1.06627e-05
1.0622e-05
1.05761e-05
1.05253e-05
1.04699e-05
1.041e-05
1.03461e-05
1.02784e-05
1.02072e-05
1.01329e-05
1.00556e-05
9.97585e-06
9.89383e-06
9.80986e-06
9.72425e-06
9.63728e-06
9.54922e-06
9.46035e-06
9.29705e-06
1.0559e-05
1.0559e-05
1.05532e-05
1.05416e-05
1.05244e-05
1.05015e-05
1.04731e-05
1.04394e-05
1.04005e-05
1.03567e-05
1.03082e-05
1.02553e-05
1.01981e-05
1.0137e-05
1.00722e-05
1.00041e-05
9.93287e-06
9.8589e-06
9.78244e-06
9.7038e-06
9.62326e-06
9.5411e-06
9.45758e-06
9.37299e-06
9.28757e-06
9.13335e-06
1.02852e-05
1.0258e-05
1.02258e-05
1.01887e-05
1.01468e-05
1.01004e-05
1.00498e-05
9.99503e-06
9.93652e-06
9.87448e-06
9.8092e-06
9.74095e-06
9.67001e-06
9.59665e-06
9.52116e-06
9.44381e-06
9.36487e-06
9.28459e-06
9.20323e-06
9.12104e-06
8.97517e-06
9.98574e-06
9.94566e-06
9.90123e-06
9.85269e-06
9.80025e-06
9.74416e-06
9.68467e-06
9.62204e-06
9.55653e-06
9.48842e-06
9.41795e-06
9.34541e-06
9.27104e-06
9.19511e-06
9.11786e-06
9.03953e-06
8.96037e-06
8.82219e-06
9.71003e-06
9.66347e-06
9.61315e-06
9.55932e-06
9.50221e-06
9.44205e-06
9.37911e-06
9.31364e-06
9.24588e-06
9.17609e-06
9.10451e-06
9.0314e-06
8.95699e-06
8.8815e-06
8.80518e-06
8.6741e-06
9.52626e-06
9.48155e-06
9.43322e-06
9.3815e-06
9.3266e-06
9.26877e-06
9.20822e-06
9.14522e-06
9.07999e-06
9.01278e-06
8.94383e-06
8.87336e-06
8.80161e-06
8.72879e-06
8.65514e-06
8.53062e-06
9.34942e-06
9.30645e-06
9.25998e-06
9.21023e-06
9.15741e-06
9.10174e-06
9.04344e-06
8.98276e-06
8.9199e-06
8.85512e-06
8.78862e-06
8.72064e-06
8.65139e-06
8.58109e-06
8.50995e-06
8.3915e-06
9.04508e-06
8.99421e-06
8.94057e-06
8.88439e-06
8.82587e-06
8.76525e-06
8.70274e-06
8.63856e-06
8.57291e-06
8.50602e-06
8.43809e-06
8.36933e-06
8.25651e-06
8.61571e-06
8.55534e-06
8.49333e-06
8.42989e-06
8.36523e-06
8.29953e-06
8.233e-06
8.12542e-06
8.29131e-06
8.22874e-06
8.16516e-06
8.10074e-06
7.99803e-06
3.51122e-05
3.52895e-05
3.53792e-05
3.53792e-05
3.52895e-05
3.51122e-05
3.48518e-05
3.45143e-05
3.41073e-05
3.36395e-05
3.31199e-05
3.25579e-05
3.19626e-05
3.13428e-05
3.07064e-05
3.00608e-05
2.94125e-05
2.8767e-05
2.81294e-05
2.75037e-05
2.68938e-05
2.63031e-05
2.57356e-05
2.51974e-05
2.47006e-05
2.42746e-05
2.39861e-05
2.31462e-05
3.19471e-05
3.21048e-05
3.21844e-05
3.21844e-05
3.21048e-05
3.19471e-05
3.17145e-05
3.14116e-05
3.1044e-05
3.06181e-05
3.01413e-05
2.96208e-05
2.90644e-05
2.84793e-05
2.78727e-05
2.72512e-05
2.66209e-05
2.59874e-05
2.5356e-05
2.47314e-05
2.41187e-05
2.35234e-05
2.29528e-05
2.24179e-05
2.19357e-05
2.15307e-05
2.12232e-05
1.93994e-05
2.93667e-05
2.94978e-05
2.95639e-05
2.95639e-05
2.94978e-05
2.93667e-05
2.91732e-05
2.89206e-05
2.86135e-05
2.82568e-05
2.78564e-05
2.7418e-05
2.6948e-05
2.64522e-05
2.59367e-05
2.54072e-05
2.48689e-05
2.4327e-05
2.37863e-05
2.32518e-05
2.27284e-05
2.22219e-05
2.17386e-05
2.12853e-05
2.0866e-05
2.04737e-05
2.00708e-05
1.82019e-05
2.72156e-05
2.7325e-05
2.73802e-05
2.73802e-05
2.7325e-05
2.72156e-05
2.70539e-05
2.68425e-05
2.65849e-05
2.62852e-05
2.59478e-05
2.55775e-05
2.51793e-05
2.47581e-05
2.43188e-05
2.38663e-05
2.34051e-05
2.29397e-05
2.24743e-05
2.20132e-05
2.15606e-05
2.11202e-05
2.0695e-05
2.02849e-05
1.98845e-05
1.94783e-05
1.90428e-05
1.74102e-05
2.53931e-05
2.54856e-05
2.55323e-05
2.55323e-05
2.54856e-05
2.53931e-05
2.52561e-05
2.50769e-05
2.48582e-05
2.46032e-05
2.43155e-05
2.3999e-05
2.36577e-05
2.32958e-05
2.29172e-05
2.25261e-05
2.21262e-05
2.17215e-05
2.13152e-05
2.09108e-05
2.05109e-05
2.01174e-05
1.97303e-05
1.93469e-05
1.8961e-05
1.85642e-05
1.81518e-05
1.67436e-05
2.3828e-05
2.39073e-05
2.39472e-05
2.39472e-05
2.39073e-05
2.3828e-05
2.37106e-05
2.35568e-05
2.33687e-05
2.31491e-05
2.29008e-05
2.26271e-05
2.23312e-05
2.20165e-05
2.16865e-05
2.13445e-05
2.09936e-05
2.0637e-05
2.02773e-05
1.99169e-05
1.95574e-05
1.91993e-05
1.8842e-05
1.8483e-05
1.81192e-05
1.77484e-05
1.73725e-05
1.61497e-05
2.24685e-05
2.25372e-05
2.25718e-05
2.25718e-05
2.25372e-05
2.24685e-05
2.23667e-05
2.22331e-05
2.20696e-05
2.18784e-05
2.16618e-05
2.14224e-05
2.11631e-05
2.08867e-05
2.05959e-05
2.02935e-05
1.99822e-05
1.96643e-05
1.9342e-05
1.90169e-05
1.86901e-05
1.83617e-05
1.80313e-05
1.76979e-05
1.73607e-05
1.70204e-05
1.66797e-05
1.56095e-05
2.12758e-05
2.1336e-05
2.13663e-05
2.13663e-05
2.1336e-05
2.12758e-05
2.11866e-05
2.10694e-05
2.09259e-05
2.07577e-05
2.05668e-05
2.03555e-05
2.0126e-05
1.98808e-05
1.96221e-05
1.93522e-05
1.90733e-05
1.87873e-05
1.84959e-05
1.82003e-05
1.79014e-05
1.75995e-05
1.72947e-05
1.69869e-05
1.66768e-05
1.63657e-05
1.60559e-05
1.51126e-05
2.02205e-05
2.02736e-05
2.03004e-05
2.03004e-05
2.02737e-05
2.02205e-05
2.01416e-05
2.00378e-05
1.99106e-05
1.97613e-05
1.95917e-05
1.94035e-05
1.91987e-05
1.89792e-05
1.87471e-05
1.85043e-05
1.82524e-05
1.79932e-05
1.77279e-05
1.74578e-05
1.71836e-05
1.69058e-05
1.66249e-05
1.63416e-05
1.60569e-05
1.5772e-05
1.54887e-05
1.46521e-05
1.92794e-05
1.93268e-05
1.93507e-05
1.93507e-05
1.93268e-05
1.92794e-05
1.92091e-05
1.91165e-05
1.90028e-05
1.88693e-05
1.87173e-05
1.85484e-05
1.83642e-05
1.81665e-05
1.79567e-05
1.77367e-05
1.75078e-05
1.72715e-05
1.70289e-05
1.67811e-05
1.65289e-05
1.6273e-05
1.60142e-05
1.57533e-05
1.54914e-05
1.52296e-05
1.49694e-05
1.42232e-05
1.84347e-05
1.84772e-05
1.84986e-05
1.84986e-05
1.84772e-05
1.84347e-05
1.83715e-05
1.82883e-05
1.8186e-05
1.80657e-05
1.79286e-05
1.7776e-05
1.76092e-05
1.74298e-05
1.72392e-05
1.70386e-05
1.68295e-05
1.66131e-05
1.63904e-05
1.61623e-05
1.59299e-05
1.56938e-05
1.5455e-05
1.52142e-05
1.49726e-05
1.47312e-05
1.4491e-05
1.38221e-05
1.76717e-05
1.77101e-05
1.77294e-05
1.77294e-05
1.77101e-05
1.76717e-05
1.76145e-05
1.75393e-05
1.74466e-05
1.73376e-05
1.72131e-05
1.70744e-05
1.69226e-05
1.6759e-05
1.65848e-05
1.64011e-05
1.62093e-05
1.60102e-05
1.5805e-05
1.55946e-05
1.53799e-05
1.51616e-05
1.49406e-05
1.47179e-05
1.44943e-05
1.42708e-05
1.40483e-05
1.34458e-05
1.69787e-05
1.70137e-05
1.70312e-05
1.70312e-05
1.70137e-05
1.69787e-05
1.69268e-05
1.68583e-05
1.6774e-05
1.66746e-05
1.6561e-05
1.64342e-05
1.62953e-05
1.61454e-05
1.59854e-05
1.58165e-05
1.56398e-05
1.54561e-05
1.52665e-05
1.50718e-05
1.48728e-05
1.46705e-05
1.44656e-05
1.42589e-05
1.40513e-05
1.38436e-05
1.36367e-05
1.30918e-05
1.63463e-05
1.63782e-05
1.63942e-05
1.63942e-05
1.63782e-05
1.63463e-05
1.62988e-05
1.62362e-05
1.6159e-05
1.60679e-05
1.59638e-05
1.58474e-05
1.57197e-05
1.55817e-05
1.54343e-05
1.52784e-05
1.5115e-05
1.49449e-05
1.47692e-05
1.45885e-05
1.44037e-05
1.42157e-05
1.40251e-05
1.38327e-05
1.36394e-05
1.34458e-05
1.32527e-05
1.2758e-05
1.55943e-05
1.55105e-05
1.54146e-05
1.53073e-05
1.51895e-05
1.5062e-05
1.49256e-05
1.47812e-05
1.46296e-05
1.44717e-05
1.43083e-05
1.41402e-05
1.39682e-05
1.37929e-05
1.36151e-05
1.34356e-05
1.3255e-05
1.3074e-05
1.28933e-05
1.24424e-05
1.38799e-05
1.3723e-05
1.35623e-05
1.33985e-05
1.32323e-05
1.30643e-05
1.28952e-05
1.27255e-05
1.25559e-05
1.21436e-05
1.28738e-05
1.27161e-05
1.25573e-05
1.23978e-05
1.22382e-05
1.186e-05
1.2089e-05
1.19385e-05
1.15904e-05
7.69343e-06
7.57489e-06
7.45945e-06
1.04699e-05
1.02553e-05
1.00498e-05
9.85269e-06
9.66346e-06
9.48155e-06
9.30644e-06
9.1377e-06
8.97492e-06
8.81773e-06
8.66578e-06
8.51875e-06
8.37637e-06
8.23836e-06
8.10448e-06
7.9745e-06
7.84822e-06
7.72543e-06
7.60596e-06
7.48964e-06
1.12401e-05
1.09904e-05
1.07524e-05
1.05253e-05
1.03082e-05
1.01004e-05
9.90123e-06
9.71003e-06
9.52626e-06
9.34942e-06
9.17906e-06
9.01476e-06
8.85613e-06
8.70284e-06
8.55455e-06
8.41097e-06
8.27183e-06
8.13689e-06
8.0059e-06
7.87866e-06
7.75496e-06
7.63462e-06
7.51748e-06
1.1299e-05
1.10463e-05
1.08057e-05
1.05761e-05
1.03567e-05
1.01468e-05
9.94566e-06
9.75262e-06
9.56714e-06
9.38871e-06
9.21686e-06
9.05116e-06
8.89122e-06
8.73669e-06
8.58724e-06
8.44256e-06
8.30239e-06
8.16646e-06
8.03454e-06
7.90642e-06
7.78188e-06
7.66076e-06
7.54286e-06
1.13521e-05
1.10968e-05
1.08538e-05
1.0622e-05
1.04005e-05
1.01887e-05
9.98574e-06
9.79104e-06
9.60401e-06
9.42414e-06
9.25093e-06
9.08396e-06
8.92283e-06
8.76718e-06
8.61667e-06
8.471e-06
8.32989e-06
8.19307e-06
8.06032e-06
7.9314e-06
7.80611e-06
7.68426e-06
7.56568e-06
1.13994e-05
1.11417e-05
1.08965e-05
1.06627e-05
1.04394e-05
1.02258e-05
1.00213e-05
9.8251e-06
9.63669e-06
9.45552e-06
9.28111e-06
9.11301e-06
8.95082e-06
8.79417e-06
8.64273e-06
8.49617e-06
8.35422e-06
8.21662e-06
8.08311e-06
7.95349e-06
7.82752e-06
7.70504e-06
7.58585e-06
2.33687e-05
2.20697e-05
2.09259e-05
1.99106e-05
1.90029e-05
1.8186e-05
1.74466e-05
1.6774e-05
1.6159e-05
1.55943e-05
1.50736e-05
1.45918e-05
1.41444e-05
1.37275e-05
1.3338e-05
1.2973e-05
1.26301e-05
1.23072e-05
1.20023e-05
1.17138e-05
1.14404e-05
1.11807e-05
1.09335e-05
1.0698e-05
1.04731e-05
1.0258e-05
1.00521e-05
9.85463e-06
9.66502e-06
9.48272e-06
9.30726e-06
9.13818e-06
8.97506e-06
8.81755e-06
8.66528e-06
8.51796e-06
8.37529e-06
8.23699e-06
8.10284e-06
7.9726e-06
7.84605e-06
7.72301e-06
7.6033e-06
2.35568e-05
2.22331e-05
2.10695e-05
2.00379e-05
1.91165e-05
1.82883e-05
1.75393e-05
1.68583e-05
1.62361e-05
1.56652e-05
1.51391e-05
1.46525e-05
1.42008e-05
1.37801e-05
1.33872e-05
1.30192e-05
1.26735e-05
1.2348e-05
1.20408e-05
1.17503e-05
1.1475e-05
1.12135e-05
1.09648e-05
1.07277e-05
1.05015e-05
1.02851e-05
1.0078e-05
9.87947e-06
9.68885e-06
9.5056e-06
9.32925e-06
9.15934e-06
8.99544e-06
8.8372e-06
8.68424e-06
8.53627e-06
8.39298e-06
8.25411e-06
8.11941e-06
7.98865e-06
7.86161e-06
7.73811e-06
7.61795e-06
2.37106e-05
2.23667e-05
2.11866e-05
2.01416e-05
1.92091e-05
1.83715e-05
1.76145e-05
1.69268e-05
1.62988e-05
1.57227e-05
1.51922e-05
1.47016e-05
1.42465e-05
1.38227e-05
1.3427e-05
1.30565e-05
1.27085e-05
1.2381e-05
1.2072e-05
1.17798e-05
1.15029e-05
1.124e-05
1.099e-05
1.07517e-05
1.05244e-05
1.0307e-05
1.0099e-05
9.89951e-06
9.70806e-06
9.52405e-06
9.34698e-06
9.17639e-06
9.01187e-06
8.85303e-06
8.69952e-06
8.55102e-06
8.40724e-06
8.2679e-06
8.13276e-06
8.00157e-06
7.87414e-06
7.75026e-06
7.62974e-06
3.51123e-05
3.19472e-05
2.93668e-05
2.72157e-05
2.53931e-05
2.3828e-05
2.24685e-05
2.12759e-05
2.02205e-05
1.92795e-05
1.84347e-05
1.76717e-05
1.69787e-05
1.63463e-05
1.57663e-05
1.52324e-05
1.47388e-05
1.4281e-05
1.38549e-05
1.34571e-05
1.30847e-05
1.2735e-05
1.2406e-05
1.20955e-05
1.1802e-05
1.1524e-05
1.126e-05
1.1009e-05
1.07699e-05
1.05416e-05
1.03235e-05
1.01147e-05
9.91463e-06
9.72256e-06
9.53797e-06
9.36035e-06
9.18926e-06
9.02426e-06
8.86497e-06
8.71104e-06
8.56214e-06
8.41798e-06
8.27829e-06
8.14281e-06
8.01132e-06
7.88358e-06
7.75941e-06
7.63862e-06
3.52895e-05
3.21049e-05
2.94978e-05
2.73251e-05
2.54857e-05
2.39073e-05
2.25373e-05
2.1336e-05
2.02737e-05
1.93269e-05
1.84772e-05
1.77101e-05
1.70137e-05
1.63782e-05
1.57956e-05
1.52594e-05
1.47638e-05
1.43042e-05
1.38765e-05
1.34773e-05
1.31036e-05
1.27528e-05
1.24227e-05
1.21113e-05
1.1817e-05
1.15381e-05
1.12734e-05
1.10218e-05
1.0782e-05
1.05532e-05
1.03346e-05
1.01253e-05
9.92476e-06
9.73226e-06
9.54728e-06
9.36931e-06
9.19787e-06
9.03255e-06
8.87296e-06
8.71875e-06
8.56958e-06
8.42518e-06
8.28525e-06
8.14955e-06
8.01784e-06
7.8899e-06
7.76554e-06
7.64457e-06
3.53793e-05
3.21845e-05
2.9564e-05
2.73803e-05
2.55323e-05
2.39473e-05
2.25718e-05
2.13663e-05
2.03004e-05
1.93507e-05
1.84986e-05
1.77294e-05
1.70312e-05
1.63942e-05
1.58104e-05
1.5273e-05
1.47764e-05
1.43159e-05
1.38874e-05
1.34874e-05
1.31131e-05
1.27617e-05
1.24311e-05
1.21192e-05
1.18244e-05
1.15452e-05
1.12802e-05
1.10281e-05
1.07881e-05
1.0559e-05
1.03401e-05
1.01306e-05
9.92983e-06
9.73713e-06
9.55195e-06
9.37379e-06
9.20219e-06
9.0367e-06
8.87696e-06
8.72261e-06
8.57331e-06
8.42878e-06
8.28873e-06
8.15292e-06
8.0211e-06
7.89307e-06
7.76861e-06
7.64755e-06
3.53793e-05
3.21845e-05
2.9564e-05
2.73803e-05
2.55323e-05
2.39473e-05
2.25718e-05
2.13663e-05
2.03004e-05
1.93507e-05
1.84986e-05
1.77294e-05
1.70312e-05
1.63942e-05
1.58104e-05
1.5273e-05
1.47764e-05
1.43159e-05
1.38874e-05
1.34874e-05
1.31131e-05
1.27617e-05
1.24311e-05
1.21192e-05
1.18244e-05
1.15452e-05
1.12802e-05
1.10281e-05
1.07881e-05
1.0559e-05
1.03401e-05
1.01306e-05
9.92983e-06
9.73713e-06
9.55195e-06
9.37379e-06
9.20219e-06
9.0367e-06
8.87696e-06
8.72261e-06
8.57331e-06
8.42878e-06
8.28873e-06
8.15292e-06
8.0211e-06
7.89306e-06
7.76861e-06
7.64755e-06
3.52896e-05
3.21049e-05
2.94978e-05
2.73251e-05
2.54857e-05
2.39073e-05
2.25372e-05
2.1336e-05
2.02737e-05
1.93269e-05
1.84772e-05
1.77101e-05
1.70137e-05
1.63782e-05
1.57956e-05
1.52594e-05
1.47638e-05
1.43042e-05
1.38765e-05
1.34773e-05
1.31036e-05
1.27528e-05
1.24227e-05
1.21113e-05
1.1817e-05
1.15381e-05
1.12734e-05
1.10218e-05
1.0782e-05
1.05532e-05
1.03346e-05
1.01253e-05
9.92476e-06
9.73226e-06
9.54728e-06
9.36931e-06
9.19787e-06
9.03255e-06
8.87296e-06
8.71874e-06
8.56958e-06
8.42518e-06
8.28525e-06
8.14955e-06
8.01783e-06
7.8899e-06
7.76554e-06
7.64457e-06
3.51123e-05
3.19472e-05
2.93668e-05
2.72157e-05
2.53931e-05
2.3828e-05
2.24685e-05
2.12759e-05
2.02205e-05
1.92795e-05
1.84347e-05
1.76717e-05
1.69787e-05
1.63463e-05
1.57664e-05
1.52324e-05
1.47389e-05
1.4281e-05
1.38549e-05
1.34571e-05
1.30847e-05
1.2735e-05
1.2406e-05
1.20955e-05
1.1802e-05
1.1524e-05
1.126e-05
1.1009e-05
1.07699e-05
1.05416e-05
1.03235e-05
1.01147e-05
9.91463e-06
9.72255e-06
9.53796e-06
9.36035e-06
9.18926e-06
9.02426e-06
8.86497e-06
8.71104e-06
8.56214e-06
8.41798e-06
8.27829e-06
8.14281e-06
8.01132e-06
7.88358e-06
7.75941e-06
7.63862e-06
3.48519e-05
3.17146e-05
2.91732e-05
2.70539e-05
2.52562e-05
2.37106e-05
2.23667e-05
2.11866e-05