/*--------------------------------*- C++ -*----------------------------------*\
  =========                 |
  \\      /  F ield         | OpenFOAM: The Open Source CFD Toolbox
   \\    /   O peration     | Website:  https://openfoam.org
    \\  /    A nd           | Version:  7
     \\/     M anipulation  |
\*---------------------------------------------------------------------------*/
FoamFile
{
    version     2.0;
    format      ascii;
    class       volScalarField;
    location    "112000";
    object      strainRate;
}
// * * * * * * * * * * * * * * * * * * * * * * * * * * * * * * * * * * * * * //

dimensions      [0 0 -1 0 0 0 0];

internalField   nonuniform List<scalar> 
4838
(
0.0033256
0.00319552
0.00315312
0.00309252
0.00302469
0.00295445
0.00288381
0.00281374
0.00274483
0.00267754
0.00261224
0.00254927
0.00248898
0.00243169
0.00237771
0.00232737
0.00228098
0.00223883
0.00220121
0.0021684
0.00214063
0.00211814
0.00210109
0.00208965
0.0020839
0.0020839
0.00208965
0.00210109
0.00211814
0.00214063
0.0021684
0.00220121
0.00223883
0.00228098
0.00232737
0.00237771
0.00243168
0.00248898
0.00254927
0.00261224
0.00267754
0.00274483
0.00281373
0.0028838
0.00295445
0.00302469
0.00309252
0.00315311
0.00319552
0.00332559
0.0040609
0.0036668
0.00360768
0.00353261
0.00344717
0.00335704
0.00326591
0.00317589
0.00308822
0.00300365
0.00292268
0.00284568
0.00277295
0.00270474
0.0026413
0.00258285
0.00252958
0.00248169
0.00243936
0.00240275
0.00237201
0.00234726
0.0023286
0.00231612
0.00230987
0.00230987
0.00231612
0.0023286
0.00234726
0.00237201
0.00240275
0.00243936
0.00248169
0.00252958
0.00258285
0.0026413
0.00270474
0.00277295
0.00284568
0.00292268
0.00300365
0.00308822
0.00317589
0.00326591
0.00335704
0.00344716
0.00353261
0.00360768
0.00366679
0.0040609
0.00436842
0.00390647
0.00381924
0.00373793
0.00365471
0.00356875
0.0034814
0.00339428
0.00330867
0.00322553
0.00314554
0.0030692
0.00299692
0.00292902
0.00286579
0.00280747
0.00275431
0.0027065
0.00266423
0.00262767
0.00259697
0.00257226
0.00255363
0.00254117
0.00253493
0.00253493
0.00254117
0.00255363
0.00257226
0.00259697
0.00262767
0.00266423
0.00270649
0.00275431
0.00280747
0.00286579
0.00292902
0.00299692
0.0030692
0.00314554
0.00322553
0.00330867
0.00339427
0.0034814
0.00356874
0.00365471
0.00373793
0.00381923
0.00390646
0.00436842
0.00459819
0.00414792
0.00404212
0.00394815
0.00385963
0.00377295
0.00368702
0.00360202
0.00351859
0.00343745
0.00335921
0.0032844
0.00321345
0.00314671
0.00308451
0.00302711
0.00297474
0.00292764
0.00288598
0.00284995
0.00281968
0.00279532
0.00277695
0.00276467
0.00275851
0.00275851
0.00276467
0.00277695
0.00279532
0.00281968
0.00284994
0.00288598
0.00292763
0.00297474
0.0030271
0.00308451
0.00314671
0.00321344
0.0032844
0.00335921
0.00343744
0.00351859
0.00360201
0.00368702
0.00377295
0.00385962
0.00394815
0.00404212
0.00414791
0.00459819
0.00481098
0.00438229
0.00427064
0.00416841
0.0040735
0.00398333
0.00389619
0.00381137
0.00372885
0.0036489
0.00357193
0.00349835
0.00342856
0.0033629
0.00330167
0.00324515
0.00319359
0.00314719
0.00310616
0.00307067
0.00304086
0.00301686
0.00299877
0.00298667
0.0029806
0.0029806
0.00298667
0.00299877
0.00301686
0.00304086
0.00307067
0.00310616
0.00314719
0.00319358
0.00324515
0.00330167
0.0033629
0.00342856
0.00349835
0.00357193
0.0036489
0.00372885
0.00381137
0.00389618
0.00398332
0.00407349
0.0041684
0.00427064
0.00438229
0.00481098
0.00501751
0.00460976
0.00449721
0.00439138
0.0042922
0.00419857
0.00410928
0.00402349
0.00394083
0.00386127
0.00378496
0.00371219
0.00364324
0.00357842
0.00351799
0.00346223
0.00341136
0.0033656
0.00332513
0.00329012
0.00326073
0.00323706
0.00321922
0.00320729
0.00320131
0.00320131
0.00320729
0.00321922
0.00323706
0.00326073
0.00329012
0.00332513
0.00336559
0.00341136
0.00346223
0.00351799
0.00357842
0.00364324
0.00371219
0.00378496
0.00386127
0.00394083
0.00402349
0.00410928
0.00419857
0.0042922
0.00439138
0.0044972
0.00460975
0.00501751
0.00522111
0.00483239
0.00472031
0.00461336
0.004512
0.004416
0.00432476
0.00423769
0.00415438
0.00407466
0.00399855
0.00392619
0.00385777
0.00379354
0.00373373
0.00367856
0.00362827
0.00358303
0.00354304
0.00350846
0.00347943
0.00345605
0.00343844
0.00342666
0.00342075
0.00342075
0.00342666
0.00343844
0.00345605
0.00347943
0.00350846
0.00354304
0.00358303
0.00362827
0.00367856
0.00373373
0.00379354
0.00385777
0.00392619
0.00399855
0.00407466
0.00415437
0.00423769
0.00432476
0.004416
0.004512
0.00461336
0.00472031
0.00483239
0.00522111
0.00542329
0.00505176
0.0049404
0.00483335
0.00473109
0.00463375
0.00454114
0.00445294
0.00436887
0.00428877
0.00421257
0.00414034
0.00407222
0.00400837
0.00394899
0.00389428
0.00384443
0.00379962
0.00376003
0.00372581
0.00369708
0.00367395
0.00365653
0.00364488
0.00363904
0.00363904
0.00364488
0.00365653
0.00367395
0.00369708
0.00372581
0.00376003
0.00379962
0.00384443
0.00389428
0.00394899
0.00400837
0.00407221
0.00414034
0.00421257
0.00428876
0.00436887
0.00445294
0.00454114
0.00463375
0.00473109
0.00483334
0.0049404
0.00505176
0.00542329
0.00562487
0.00526888
0.00515819
0.00505139
0.00494888
0.00485089
0.00475745
0.00466844
0.00458372
0.00450319
0.00442678
0.00435453
0.00428653
0.0042229
0.00416381
0.00410943
0.00405993
0.00401546
0.00397619
0.00394225
0.00391378
0.00389087
0.00387361
0.00386206
0.00385628
0.00385628
0.00386206
0.00387361
0.00389087
0.00391378
0.00394225
0.00397619
0.00401546
0.00405993
0.00410943
0.00416381
0.0042229
0.00428653
0.00435453
0.00442678
0.00450319
0.00458372
0.00466844
0.00475744
0.00485089
0.00494888
0.00505139
0.00515819
0.00526888
0.00562488
0.00582632
0.00548444
0.00537431
0.00526783
0.00516535
0.0050671
0.00497321
0.00488368
0.00479849
0.00471759
0.00464095
0.00456861
0.00450063
0.00443712
0.00437822
0.00432407
0.00427482
0.00423061
0.0041916
0.0041579
0.00412963
0.00410689
0.00408977
0.00407831
0.00407258
0.00407258
0.00407831
0.00408977
0.00410689
0.00412963
0.0041579
0.0041916
0.00423061
0.00427482
0.00432407
0.00437822
0.00443712
0.00450063
0.0045686
0.00464095
0.00471758
0.00479849
0.00488368
0.00497321
0.0050671
0.00516535
0.00526783
0.00537431
0.00548444
0.00582632
0.00602794
0.00569889
0.00558921
0.00548305
0.00538071
0.0052824
0.00518828
0.00509845
0.00501293
0.00493175
0.00485491
0.00478246
0.00471446
0.00465101
0.00459222
0.00453823
0.00448916
0.00444516
0.00440633
0.00437282
0.00434472
0.00432212
0.00430511
0.00429373
0.00428803
0.00428803
0.00429373
0.00430511
0.00432212
0.00434472
0.00437282
0.00440633
0.00444516
0.00448916
0.00453823
0.00459222
0.00465101
0.00471446
0.00478246
0.00485491
0.00493175
0.00501293
0.00509845
0.00518828
0.0052824
0.00538071
0.00548305
0.00558921
0.00569889
0.00602794
0.00622992
0.00591259
0.00580326
0.00569737
0.00559518
0.00549689
0.00540269
0.00531268
0.00522696
0.00514558
0.00506858
0.00499602
0.00492798
0.00486455
0.00480583
0.00475195
0.00470301
0.00465915
0.00462048
0.00458711
0.00455914
0.00453666
0.00451974
0.00450842
0.00450275
0.00450275
0.00450842
0.00451974
0.00453666
0.00455914
0.00458711
0.00462048
0.00465915
0.00470301
0.00475195
0.00480583
0.00486455
0.00492798
0.00499602
0.00506858
0.00514558
0.00522696
0.00531269
0.00540269
0.0054969
0.00559518
0.00569737
0.00580327
0.00591259
0.00622992
0.00643243
0.00612582
0.00601675
0.00591107
0.00580901
0.00571078
0.00561654
0.00552644
0.00544058
0.00535906
0.00528193
0.00520929
0.0051412
0.00507777
0.00501909
0.00496527
0.00491643
0.00487267
0.00483412
0.00480086
0.00477299
0.0047506
0.00473375
0.00472248
0.00471684
0.00471684
0.00472248
0.00473375
0.0047506
0.004773
0.00480086
0.00483412
0.00487267
0.00491643
0.00496527
0.00501909
0.00507777
0.0051412
0.00520929
0.00528193
0.00535906
0.00544058
0.00552644
0.00561654
0.00571078
0.00580901
0.00591107
0.00601675
0.00612582
0.00643244
0.0066356
0.0063388
0.00622991
0.00612437
0.00602242
0.00592423
0.00582998
0.00573982
0.00565387
0.00557224
0.00549502
0.00542229
0.00535416
0.00529071
0.00523204
0.00517826
0.00512948
0.00508581
0.00504733
0.00501416
0.00498637
0.00496405
0.00494725
0.00493603
0.0049304
0.00493041
0.00493603
0.00494725
0.00496405
0.00498637
0.00501416
0.00504733
0.00508581
0.00512948
0.00517827
0.00523204
0.00529071
0.00535416
0.00542229
0.00549502
0.00557224
0.00565387
0.00573982
0.00582998
0.00592423
0.00602242
0.00612437
0.00622991
0.0063388
0.0066356
0.00683952
0.00655173
0.00644294
0.00633749
0.00623559
0.00613742
0.00604316
0.00595295
0.00586692
0.0057852
0.0057079
0.0056351
0.00556692
0.00550344
0.00544477
0.00539101
0.00534226
0.00529863
0.00526022
0.00522711
0.00519938
0.00517711
0.00516035
0.00514916
0.00514355
0.00514355
0.00514916
0.00516035
0.00517711
0.00519938
0.00522711
0.00526022
0.00529864
0.00534226
0.00539101
0.00544477
0.00550344
0.00556692
0.0056351
0.0057079
0.00578521
0.00586692
0.00595295
0.00604316
0.00613742
0.00623559
0.00633749
0.00644294
0.00655173
0.00683952
0.00704429
0.00676479
0.00665603
0.0065506
0.00644871
0.00635053
0.00625623
0.00616596
0.00607986
0.00599806
0.00592067
0.0058478
0.00577955
0.00571604
0.00565735
0.00560359
0.00555486
0.00551126
0.00547288
0.00543981
0.00541212
0.00538988
0.00537316
0.00536198
0.00535639
0.00535639
0.00536198
0.00537316
0.00538989
0.00541212
0.00543981
0.00547288
0.00551126
0.00555486
0.00560359
0.00565735
0.00571604
0.00577956
0.0058478
0.00592067
0.00599806
0.00607986
0.00616596
0.00625623
0.00635053
0.00644871
0.0065506
0.00665603
0.00676479
0.00704429
0.00725001
0.00697813
0.00686934
0.00676387
0.00666194
0.00656371
0.00646934
0.00637899
0.00629281
0.00621091
0.00613344
0.00606049
0.00599217
0.0059286
0.00586988
0.0058161
0.00576736
0.00572377
0.00568541
0.00565236
0.0056247
0.00560249
0.00558578
0.00557462
0.00556903
0.00556903
0.00557462
0.00558578
0.00560249
0.0056247
0.00565236
0.00568541
0.00572377
0.00576736
0.0058161
0.00586988
0.0059286
0.00599217
0.00606049
0.00613344
0.00621092
0.00629281
0.00637899
0.00646934
0.00656371
0.00666194
0.00676387
0.00686934
0.00697813
0.00725001
0.00745675
0.0071919
0.00708301
0.00697745
0.00687543
0.0067771
0.00668264
0.00659218
0.00650589
0.00642389
0.00634631
0.00627327
0.00620487
0.00614123
0.00608246
0.00602864
0.00597988
0.00593628
0.00589792
0.00586487
0.00583722
0.00581502
0.00579833
0.00578717
0.00578159
0.00578159
0.00578718
0.00579833
0.00581502
0.00583722
0.00586488
0.00589792
0.00593628
0.00597989
0.00602864
0.00608246
0.00614124
0.00620487
0.00627327
0.00634631
0.0064239
0.00650589
0.00659219
0.00668264
0.0067771
0.00687543
0.00697745
0.00708301
0.0071919
0.00745676
0.00766461
0.00740624
0.00729719
0.00719148
0.00708932
0.00699085
0.00689625
0.00680567
0.00671924
0.00663712
0.00655941
0.00648626
0.00641776
0.00635404
0.00629519
0.00624132
0.00619253
0.00614889
0.00611051
0.00607746
0.0060498
0.00602761
0.00601091
0.00599976
0.00599418
0.00599418
0.00599976
0.00601091
0.00602761
0.00604981
0.00607746
0.00611052
0.0061489
0.00619253
0.00624132
0.00629519
0.00635404
0.00641777
0.00648626
0.00655942
0.00663712
0.00671925
0.00680567
0.00689626
0.00699086
0.00708932
0.00719149
0.00729719
0.00740624
0.00766462
0.00751201
0.0074061
0.00730375
0.0072051
0.00711033
0.00701957
0.00693299
0.00685071
0.00677286
0.00669957
0.00663096
0.00656713
0.00650819
0.00645425
0.0064054
0.00636172
0.00632331
0.00629023
0.00626256
0.00624035
0.00622365
0.00621249
0.00620691
0.00620691
0.00621249
0.00622365
0.00624035
0.00626256
0.00629023
0.00632331
0.00636172
0.0064054
0.00645425
0.0065082
0.00656713
0.00663096
0.00669957
0.00677286
0.00685071
0.00693299
0.00701957
0.00711033
0.0072051
0.00730375
0.00740611
0.00751201
0.00762128
0.00787368
0.00762143
0.00751884
0.00741997
0.00732498
0.00723402
0.00714724
0.00706478
0.00698677
0.00691332
0.00684457
0.00678062
0.00672157
0.00666754
0.00661861
0.00657487
0.0065364
0.00650329
0.00647559
0.00645336
0.00643664
0.00642548
0.00641989
0.00641989
0.00642548
0.00643664
0.00645336
0.00647559
0.00650329
0.00653641
0.00657487
0.00661861
0.00666754
0.00672158
0.00678062
0.00684457
0.00691332
0.00698677
0.00706478
0.00714725
0.00723403
0.00732498
0.00741997
0.00751885
0.00762144
0.0077276
0.00783714
0.00808402
0.00763558
0.00754034
0.00744914
0.00736214
0.00727946
0.00720125
0.00712763
0.00705871
0.00699461
0.00693544
0.00688129
0.00683227
0.00678845
0.00674992
0.00671675
0.00668901
0.00666675
0.00665001
0.00663884
0.00663324
0.00663324
0.00663884
0.00665002
0.00666675
0.00668901
0.00671676
0.00674992
0.00678845
0.00683227
0.0068813
0.00693544
0.00699461
0.00705871
0.00712763
0.00720125
0.00727946
0.00736214
0.00744915
0.00754034
0.00763559
0.00773473
0.00783762
0.00794408
0.00805394
0.00829572
0.00775652
0.00766505
0.00757778
0.00749487
0.00741643
0.0073426
0.00727349
0.00720923
0.0071499
0.00709563
0.00704649
0.00700257
0.00696396
0.00693073
0.00690294
0.00688064
0.00686387
0.00685268
0.00684707
0.00684707
0.00685268
0.00686387
0.00688064
0.00690294
0.00693073
0.00696397
0.00700258
0.00704649
0.00709563
0.00714991
0.00720923
0.0072735
0.0073426
0.00741643
0.00749487
0.00757779
0.00766505
0.00775653
0.00785207
0.00795153
0.00805475
0.00816157
0.0082718
0.00850888
0.00788186
0.0077943
0.00771111
0.00763242
0.00755835
0.00748903
0.00742457
0.00736508
0.00731065
0.00726138
0.00721735
0.00717865
0.00714533
0.00711748
0.00709513
0.00707832
0.00706711
0.00706149
0.00706149
0.00706711
0.00707833
0.00709513
0.00711748
0.00714534
0.00717865
0.00721735
0.00726138
0.00731065
0.00736508
0.00742458
0.00748904
0.00755836
0.00763242
0.00771111
0.00779431
0.00788187
0.00797366
0.00806954
0.00816936
0.00827296
0.00838018
0.00849084
0.00872358
0.0079283
0.00784933
0.007775
0.00770544
0.00764076
0.00758108
0.00752647
0.00747705
0.00743289
0.00739408
0.00736067
0.00733274
0.00731033
0.00729349
0.00728224
0.00727661
0.00727661
0.00728224
0.00729349
0.00731033
0.00733274
0.00736068
0.00739408
0.0074329
0.00747706
0.00752648
0.00758108
0.00764077
0.00770545
0.00777501
0.00784933
0.00792831
0.00801181
0.00809971
0.00819186
0.00828812
0.00838834
0.00849236
0.00860003
0.00871117
0.0089399
0.00806727
0.00799265
0.00792283
0.00785791
0.007798
0.00774321
0.00769362
0.00764931
0.00761037
0.00757686
0.00754884
0.00752636
0.00750947
0.00749819
0.00749254
0.00749254
0.00749819
0.00750947
0.00752636
0.00754884
0.00757686
0.00761037
0.00764932
0.00769362
0.00774322
0.00779801
0.00785792
0.00792284
0.00799266
0.00806728
0.00814658
0.00823042
0.00831868
0.00841123
0.0085079
0.00860857
0.00871307
0.00882124
0.00893289
0.00915793
0.00801597
0.00796096
0.00791118
0.00786671
0.00782763
0.007794
0.00776588
0.00774333
0.00772637
0.00771506
0.00770939
0.00770939
0.00771506
0.00772638
0.00774333
0.00776588
0.007794
0.00782763
0.00786672
0.00791119
0.00796097
0.00801599
0.00807613
0.00814132
0.00821144
0.00828638
0.00836602
0.00845024
0.00853891
0.00863188
0.00872902
0.00883017
0.00893519
0.0090439
0.00915613
0.00937777
0.00804596
0.0080122
0.00798398
0.00796134
0.00794432
0.00793296
0.00792728
0.00792728
0.00793296
0.00794432
0.00796134
0.00798398
0.00801221
0.00804597
0.00808522
0.00812987
0.00817987
0.00823511
0.00829552
0.008361
0.00843144
0.00850673
0.00858676
0.00867139
0.0087605
0.00885394
0.00895158
0.00905326
0.00915884
0.00926814
0.009381
0.0095995
0.00820324
0.0081805
0.00816341
0.00815201
0.0081463
0.0081463
0.00815201
0.00816342
0.00818051
0.00820324
0.00823159
0.0082655
0.00830492
0.00834978
0.0084
0.0084555
0.0085162
0.008582
0.00865279
0.00872846
0.0088089
0.00889397
0.00898355
0.00907751
0.00917569
0.00927794
0.00938412
0.00949407
0.00960759
0.00982322
0.00836657
0.00836658
0.00837231
0.00838377
0.00840094
0.00842378
0.00845226
0.00848633
0.00852594
0.00857101
0.00862148
0.00867727
0.00873828
0.00880442
0.00887559
0.00895167
0.00903255
0.0091181
0.0092082
0.0093027
0.00940146
0.00950433
0.00961116
0.00972179
0.00983603
0.010049
0.0086457
0.00867432
0.00870857
0.00874838
0.00879369
0.00884443
0.00890052
0.00896186
0.00902837
0.00909995
0.00917647
0.00925782
0.00934389
0.00943453
0.00952962
0.009629
0.00973253
0.00984006
0.00995141
0.0100664
0.010277
0.00897235
0.00901792
0.00906895
0.00912536
0.00918706
0.00925397
0.00932598
0.00940297
0.00948484
0.00957145
0.00966268
0.00975839
0.00985843
0.00996266
0.0100709
0.0101831
0.0102989
0.0105073
0.00929515
0.0093519
0.00941399
0.00948132
0.00955379
0.00963129
0.00971369
0.00980089
0.00989274
0.00998911
0.0100899
0.0101948
0.0103039
0.0104168
0.0105335
0.0107399
0.00952314
0.00958027
0.00964276
0.00971054
0.0097835
0.00986153
0.00994451
0.0100323
0.0101248
0.0102219
0.0103234
0.0104291
0.010539
0.0106528
0.0107704
0.010975
0.00975304
0.00981055
0.00987348
0.00994174
0.0100152
0.0100938
0.0101774
0.0102659
0.0103591
0.0104569
0.0105591
0.0106657
0.0107765
0.0108912
0.0110097
0.0112127
0.010175
0.010249
0.0103282
0.0104125
0.0105016
0.0105955
0.0106941
0.0107972
0.0109047
0.0110163
0.011132
0.0112515
0.0114531
0.0108344
0.0109338
0.0110378
0.0111461
0.0112587
0.0113754
0.011496
0.0116963
0.0113902
0.0115038
0.0116215
0.0117432
0.0119424
0.0021011
0.00208966
0.00208391
0.00208391
0.00208966
0.0021011
0.00211814
0.00214064
0.00216841
0.00220122
0.00223884
0.00228099
0.00232738
0.00237772
0.00243169
0.00248898
0.00254928
0.00261224
0.00267754
0.00274484
0.00281374
0.00288381
0.00295445
0.00302469
0.00309253
0.00315312
0.00319552
0.0033256
0.00232861
0.00231613
0.00230988
0.00230988
0.00231613
0.00232861
0.00234727
0.00237202
0.00240276
0.00243937
0.0024817
0.00252959
0.00258285
0.00264131
0.00270475
0.00277295
0.00284569
0.00292269
0.00300366
0.00308822
0.00317589
0.00326591
0.00335705
0.00344717
0.00353261
0.00360768
0.0036668
0.00406091
0.00255364
0.00254118
0.00253493
0.00253493
0.00254118
0.00255364
0.00257227
0.00259698
0.00262768
0.00266423
0.0027065
0.00275431
0.00280748
0.00286579
0.00292903
0.00299692
0.00306921
0.00314554
0.00322554
0.00330867
0.00339428
0.0034814
0.00356875
0.00365471
0.00373793
0.00381924
0.00390647
0.00436843
0.00277696
0.00276467
0.00275852
0.00275852
0.00276467
0.00277696
0.00279533
0.00281969
0.00284995
0.00288599
0.00292764
0.00297475
0.00302711
0.00308452
0.00314672
0.00321345
0.0032844
0.00335921
0.00343745
0.00351859
0.00360202
0.00368702
0.00377295
0.00385963
0.00394815
0.00404212
0.00414792
0.0045982
0.00299878
0.00298667
0.00298061
0.00298061
0.00298667
0.00299878
0.00301687
0.00304087
0.00307067
0.00310617
0.0031472
0.00319359
0.00324516
0.00330167
0.0033629
0.00342857
0.00349836
0.00357193
0.0036489
0.00372885
0.00381138
0.00389619
0.00398333
0.0040735
0.00416841
0.00427065
0.00438229
0.00481099
0.00321923
0.0032073
0.00320132
0.00320132
0.0032073
0.00321923
0.00323707
0.00326073
0.00329013
0.00332513
0.0033656
0.00341136
0.00346223
0.003518
0.00357842
0.00364325
0.00371219
0.00378497
0.00386127
0.00394084
0.00402349
0.00410928
0.00419857
0.0042922
0.00439138
0.00449721
0.00460976
0.00501751
0.00343845
0.00342666
0.00342076
0.00342076
0.00342666
0.00343845
0.00345606
0.00347943
0.00350847
0.00354305
0.00358304
0.00362827
0.00367857
0.00373373
0.00379355
0.00385778
0.00392619
0.00399855
0.00407466
0.00415438
0.00423769
0.00432476
0.004416
0.00451201
0.00461336
0.00472031
0.00483239
0.00522111
0.00365654
0.00364488
0.00363905
0.00363905
0.00364488
0.00365654
0.00367396
0.00369708
0.00372581
0.00376004
0.00379963
0.00384443
0.00389428
0.00394899
0.00400837
0.00407222
0.00414034
0.00421257
0.00428877
0.00436888
0.00445294
0.00454114
0.00463375
0.00473109
0.00483335
0.0049404
0.00505176
0.0054233
0.00387361
0.00386207
0.00385629
0.00385629
0.00386207
0.00387361
0.00389087
0.00391378
0.00394226
0.00397619
0.00401546
0.00405993
0.00410944
0.00416382
0.00422291
0.00428653
0.00435453
0.00442678
0.00450319
0.00458373
0.00466844
0.00475745
0.00485089
0.00494888
0.00505139
0.00515819
0.00526888
0.00562488
0.00408977
0.00407832
0.00407258
0.00407258
0.00407832
0.00408977
0.0041069
0.00412963
0.0041579
0.0041916
0.00423062
0.00427482
0.00432408
0.00437823
0.00443713
0.00450063
0.00456861
0.00464095
0.00471759
0.00479849
0.00488369
0.00497321
0.0050671
0.00516535
0.00526783
0.00537431
0.00548444
0.00582633
0.00430511
0.00429374
0.00428804
0.00428804
0.00429374
0.00430511
0.00432213
0.00434472
0.00437282
0.00440634
0.00444516
0.00448917
0.00453823
0.00459223
0.00465101
0.00471446
0.00478246
0.00485491
0.00493175
0.00501294
0.00509845
0.00518828
0.0052824
0.00538071
0.00548305
0.00558921
0.00569889
0.00602794
0.00451974
0.00450842
0.00450276
0.00450276
0.00450842
0.00451974
0.00453666
0.00455915
0.00458711
0.00462048
0.00465915
0.00470301
0.00475195
0.00480584
0.00486455
0.00492798
0.00499602
0.00506858
0.00514558
0.00522696
0.00531269
0.00540269
0.0054969
0.00559518
0.00569737
0.00580327
0.00591259
0.00622992
0.00473375
0.00472248
0.00471684
0.00471684
0.00472248
0.00473375
0.0047506
0.004773
0.00480086
0.00483412
0.00487267
0.00491643
0.00496527
0.00501909
0.00507777
0.0051412
0.00520929
0.00528193
0.00535906
0.00544058
0.00552644
0.00561654
0.00571078
0.00580901
0.00591107
0.00601675
0.00612582
0.00643244
0.00494725
0.00493602
0.0049304
0.0049304
0.00493602
0.00494725
0.00496405
0.00498637
0.00501416
0.00504733
0.0050858
0.00512948
0.00517826
0.00523204
0.00529071
0.00535416
0.00542229
0.00549502
0.00557224
0.00565387
0.00573982
0.00582998
0.00592423
0.00602242
0.00612437
0.00622991
0.0063388
0.0066356
0.0052271
0.00526021
0.00529863
0.00534226
0.005391
0.00544476
0.00550343
0.00556691
0.0056351
0.0057079
0.0057852
0.00586692
0.00595294
0.00604316
0.00613742
0.00623559
0.00633749
0.00644294
0.00655173
0.00683952
0.00599805
0.00607986
0.00616595
0.00625622
0.00635053
0.00644871
0.0065506
0.00665603
0.00676479
0.00704429
0.0065637
0.00666193
0.00676387
0.00686933
0.00697813
0.00725001
0.007083
0.0071919
0.00745675
0.0125735
0.0128369
0.0131038
0.0084555
0.00867727
0.00890052
0.00912536
0.00935191
0.00958027
0.00981056
0.0100429
0.0102774
0.0105141
0.0107533
0.0109949
0.0112392
0.0114862
0.0117361
0.0119889
0.0122449
0.0125042
0.0127668
0.0130329
0.00774322
0.00796097
0.00817986
0.0084
0.00862148
0.00884443
0.00906895
0.00929515
0.00952315
0.00975305
0.00998497
0.010219
0.0104553
0.010694
0.0109351
0.0111789
0.0114253
0.0116746
0.0119269
0.0121823
0.0124409
0.0127028
0.0129683
0.00769362
0.00791119
0.00812987
0.00834978
0.00857101
0.00879369
0.00901792
0.00924382
0.00947148
0.00970104
0.00993259
0.0101663
0.0104021
0.0106404
0.0108811
0.0111243
0.0113703
0.0116191
0.0118708
0.0121257
0.0123837
0.012645
0.0129099
0.00764932
0.00786672
0.00808522
0.00830492
0.00852594
0.00874838
0.00897236
0.00919798
0.00942536
0.00965461
0.00988583
0.0101192
0.0103547
0.0105925
0.0108328
0.0110757
0.0113212
0.0115696
0.0118208
0.0120751
0.0123327
0.0125935
0.0128578
0.00761037
0.00782763
0.00804597
0.0082655
0.00848633
0.00870857
0.00893233
0.00915772
0.00938485
0.00961383
0.00984477
0.0100778
0.010313
0.0105505
0.0107905
0.011033
0.0112781
0.0115261
0.0117769
0.0120308
0.0122879
0.0125482
0.012812
0.00329013
0.00350846
0.00372581
0.00394225
0.0041579
0.00437282
0.00458711
0.00480086
0.00501416
0.00522711
0.00543981
0.00565236
0.00586488
0.00607746
0.00629023
0.00650329
0.00671676
0.00693074
0.00714534
0.00736068
0.00757686
0.007794
0.00801221
0.00823159
0.00845226
0.00867433
0.0088979
0.00912309
0.00935
0.00957876
0.00980946
0.0100422
0.0102772
0.0105144
0.0107541
0.0109963
0.0112411
0.0114887
0.0117392
0.0119927
0.0122494
0.0125094
0.0127728
0.00326073
0.00347943
0.00369708
0.00391378
0.00412963
0.00434472
0.00455914
0.004773
0.00498638
0.00519938
0.00541212
0.0056247
0.00583722
0.00604981
0.00626256
0.00647559
0.00668902
0.00690294
0.00711748
0.00733274
0.00754884
0.00776589
0.00798398
0.00820325
0.00842379
0.00864571
0.00886913
0.00909415
0.00932088
0.00954945
0.00977995
0.0100125
0.0102472
0.0104842
0.0107236
0.0109656
0.0112101
0.0114575
0.0117077
0.0119609
0.0122173
0.0124769
0.01274
0.00323706
0.00345605
0.00367395
0.00389087
0.00410689
0.00432212
0.00453666
0.0047506
0.00496405
0.00517711
0.00538989
0.00560249
0.00581503
0.00602761
0.00624035
0.00645336
0.00666675
0.00688064
0.00709513
0.00731033
0.00752636
0.00774333
0.00796134
0.00818051
0.00840095
0.00862275
0.00884605
0.00907094
0.00929753
0.00952595
0.00975629
0.00998868
0.0102232
0.0104601
0.0106993
0.010941
0.0111853
0.0114324
0.0116824
0.0119354
0.0121915
0.0124509
0.0127137
0.0021011
0.00232861
0.00255364
0.00277695
0.00299877
0.00321922
0.00343844
0.00365653
0.00387361
0.00408977
0.00430511
0.00451974
0.00473375
0.00494725
0.00516035
0.00537316
0.00558578
0.00579833
0.00601091
0.00622365
0.00643665
0.00665002
0.00686387
0.00707833
0.00729349
0.00750947
0.00772638
0.00794433
0.00816342
0.00838378
0.0086055
0.00882871
0.0090535
0.00927999
0.00950829
0.00973852
0.00997078
0.0102052
0.0104419
0.0106809
0.0109225
0.0111667
0.0114136
0.0116635
0.0119163
0.0121722
0.0124314
0.0126939
0.00208965
0.00231612
0.00254117
0.00276467
0.00298667
0.00320729
0.00342665
0.00364488
0.00386206
0.00407831
0.00429373
0.00450842
0.00472248
0.00493603
0.00514916
0.00536199
0.00557462
0.00578718
0.00599976
0.0062125
0.00642548
0.00663884
0.00685268
0.00706711
0.00728224
0.00749819
0.00771506
0.00793297
0.00815202
0.00837232
0.00859399
0.00881713
0.00904186
0.00926828
0.00949651
0.00972666
0.00995884
0.0101932
0.0104298
0.0106687
0.0109102
0.0111543
0.0114011
0.0116508
0.0119035
0.0121593
0.0124183
0.0126808
0.0020839
0.00230987
0.00253493
0.00275851
0.0029806
0.00320131
0.00342075
0.00363904
0.00385628
0.00407258
0.00428803
0.00450275
0.00471684
0.00493041
0.00514355
0.00535639
0.00556903
0.00578159
0.00599418
0.00620691
0.0064199
0.00663325
0.00684708
0.00706149
0.00727661
0.00749254
0.0077094
0.00792728
0.00814631
0.00836659
0.00858823
0.00881134
0.00903603
0.00926242
0.00949061
0.00972072
0.00995286
0.0101871
0.0104237
0.0106626
0.010904
0.0111481
0.0113948
0.0116445
0.0118971
0.0121528
0.0124118
0.0126742
0.0020839
0.00230987
0.00253493
0.00275851
0.0029806
0.00320131
0.00342075
0.00363904
0.00385628
0.00407258
0.00428803
0.00450275
0.00471684
0.00493041
0.00514355
0.00535639
0.00556903
0.00578159
0.00599418
0.00620691
0.0064199
0.00663325
0.00684708
0.00706149
0.00727661
0.00749254
0.0077094
0.00792728
0.00814631
0.00836659
0.00858823
0.00881134
0.00903603
0.00926242
0.00949061
0.00972072
0.00995286
0.0101871
0.0104237
0.0106626
0.010904
0.0111481
0.0113948
0.0116445
0.0118971
0.0121528
0.0124118
0.0126742
0.00208965
0.00231612
0.00254117
0.00276467
0.00298667
0.00320729
0.00342666
0.00364488
0.00386206
0.00407831
0.00429373
0.00450842
0.00472248
0.00493603
0.00514916
0.00536198
0.00557462
0.00578718
0.00599976
0.0062125
0.00642548
0.00663884
0.00685268
0.00706711
0.00728224
0.00749819
0.00771506
0.00793297
0.00815202
0.00837232
0.00859399
0.00881713
0.00904186
0.00926828
0.00949651
0.00972666
0.00995884
0.0101932
0.0104298
0.0106687
0.0109102
0.0111543
0.0114011
0.0116508
0.0119035
0.0121593
0.0124183
0.0126808
0.0021011
0.00232861
0.00255363
0.00277695
0.00299877
0.00321922
0.00343844
0.00365653
0.00387361
0.00408977
0.00430511
0.00451973
0.00473375
0.00494725
0.00516035
0.00537316
0.00558578
0.00579833
0.00601091
0.00622365
0.00643665
0.00665002
0.00686387
0.00707833
0.00729349
0.00750947
0.00772638
0.00794433
0.00816343
0.00838378
0.00860551
0.00882871
0.0090535
0.00927999
0.0095083
0.00973852
0.00997079
0.0102052
0.0104419
0.0106809
0.0109225
0.0111667
0.0114136
0.0116635
0.0119163
0.0121722
0.0124314
0.0126939
0.00211814
0.00234726
0.00257226
0.00279532
0.00301686
0.00323706
0.00345605
0.00367395
0.00389087
0.00410689
0.00432212
0.00453666
0.0047506
0.00496405
0.00517711
0.00538988
0.00560249
0.00581502
0.00602761
0.00624035
0.00645336
0.00666675
0.00688064
0.00709513
0.00731034
0.00752637
0.00774333
0.00796135
0.00818051
0.00840095
0.00862276
0.00884605
0.00907094
0.00929754
0.00952595
0.0097563
0.00998869
0.0102232
0.0104601
0.0106993
0.010941
0.0111853
0.0114324
0.0116824
0.0119354
0.0121915
0.0124509
0.0127137
0.00214063
0.00237201
0.00259697
0.00281968
0.00304086
0.00326073
0.00347943
0.00369707
0.00391378
0.00412963
0.00434472
0.00455914
0.00477299
0.00498637
0.00519938
0.00541212
0.0056247
0.00583722
0.00604981
0.00626256
0.00647559
0.00668901
0.00690294
0.00711748
0.00733274
0.00754884
0.00776589
0.00798399
0.00820325
0.00842379
0.00864571
0.00886913
0.00909415
0.00932089
0.00954945
0.00977996
0.0100125
0.0102472
0.0104842
0.0107237
0.0109656
0.0112101
0.0114575
0.0117077
0.0119609
0.0122173
0.0124769
0.01274
0.0021684
0.00240276
0.00262767
0.00284995
0.00307067
0.00329012
0.00350846
0.00372581
0.00394225
0.0041579
0.00437282
0.00458711
0.00480086
0.00501416
0.00522711
0.00543981
0.00565236
0.00586487
0.00607746
0.00629023
0.00650329
0.00671676
0.00693073
0.00714534
0.00736068
0.00757686
0.00779401
0.00801221
0.0082316
0.00845227
0.00867433
0.00889791
0.00912309
0.00935001
0.00957876
0.00980946
0.0100422
0.0102772
0.0105144
0.0107541
0.0109963
0.0112411
0.0114887
0.0117392
0.0119927
0.0122494
0.0125094
0.0127728
0.00220121
0.00243936
0.00266423
0.00288598
0.00310616
0.00332513
0.00354304
0.00376003
0.00397619
0.0041916
0.00440633
0.00462048
0.00483412
0.00504733
0.00526022
0.00547288
0.00568541
0.00589792
0.00611052
0.00632331
0.00653641
0.00674992
0.00696397
0.00717865
0.00739408
0.00761038
0.00782764
0.00804598
0.00826551
0.00848634
0.00870858
0.00893234
0.00915772
0.00938485
0.00961383
0.00984477
0.0100778
0.010313
0.0105505
0.0107905
0.011033
0.0112781
0.0115261
0.0117769
0.0120308
0.0122879
0.0125483
0.012812
0.00223883
0.00248169
0.00270649
0.00292763
0.00314719
0.00336559
0.00358303
0.00379962
0.00401546
0.00423061
0.00444515
0.00465915
0.00487267
0.00508581
0.00529864
0.00551126
0.00572377
0.00593628
0.0061489
0.00636172
0.00657487
0.00678845
0.00700258
0.00721736
0.0074329
0.00764932
0.00786672
0.00808522
0.00830493
0.00852594
0.00874839
0.00897236
0.00919799
0.00942537
0.00965461
0.00988584
0.0101192
0.0103547
0.0105925
0.0108328
0.0110757
0.0113212
0.0115696
0.0118208
0.0120752
0.0123327
0.0125935
0.0128578
0.00228098
0.00252958
0.00275431
0.00297474
0.00319358
0.00341136
0.00362826
0.00384443
0.00405992
0.00427482
0.00448916
0.00470301
0.00491643
0.00512948
0.00534226