/*--------------------------------*- C++ -*----------------------------------*\
  =========                 |
  \\      /  F ield         | OpenFOAM: The Open Source CFD Toolbox
   \\    /   O peration     | Website:  https://openfoam.org
    \\  /    A nd           | Version:  7
     \\/     M anipulation  |
\*---------------------------------------------------------------------------*/
FoamFile
{
    version     2.0;
    format      ascii;
    class       surfaceScalarField;
    location    "108000";
    object      phi;
}
// * * * * * * * * * * * * * * * * * * * * * * * * * * * * * * * * * * * * * //

dimensions      [0 3 -1 0 0 0 0];

internalField   nonuniform List<scalar> 
9541
(
8.40224e-26
2.8763e-24
1.30067e-23
6.96777e-24
-6.20117e-24
1.10772e-24
2.49998e-24
-1.02235e-25
-1.15766e-23
3.69268e-24
-2.11441e-23
-2.10299e-23
-2.5353e-24
-9.82564e-24
-1.7687e-23
7.30545e-24
-3.02507e-23
-1.73828e-23
1.07789e-23
-2.09516e-23
-1.149e-23
1.45637e-23
-2.1388e-23
-7.881e-24
1.66428e-23
1.38901e-23
-5.55195e-24
1.70285e-23
-1.31114e-23
-1.83527e-23
4.62968e-24
-6.64953e-24
-1.46751e-23
2.23786e-24
-6.39381e-24
-1.34536e-23
1.24241e-23
-1.09532e-24
-1.59017e-23
2.06672e-23
-6.26271e-24
-1.72702e-23
2.78583e-23
-2.14815e-23
-1.90472e-23
1.73768e-23
1.16499e-23
-1.23731e-23
2.05923e-23
-1.58779e-23
-2.26773e-23
1.33749e-23
-2.75763e-23
-3.68408e-23
1.25124e-23
-6.25373e-24
-3.55721e-23
1.67796e-23
-9.4288e-24
-3.76368e-23
1.25234e-23
-5.99004e-23
-3.4289e-23
7.02264e-24
-2.95588e-23
-1.46513e-23
1.90573e-23
-3.3188e-23
-1.40768e-23
1.94496e-23
-3.59156e-23
-1.2254e-23
1.97122e-23
-2.59986e-23
-2.04147e-23
1.75232e-23
-5.01293e-23
-2.30807e-23
1.51745e-23
-3.55821e-23
-2.87534e-23
1.67552e-23
-4.30191e-23
-1.24711e-23
1.71583e-23
-5.02257e-23
-6.75146e-24
1.52301e-23
-2.51326e-23
-3.07487e-24
1.55184e-23
-5.2293e-23
-1.12395e-23
7.26779e-24
-4.84393e-23
-9.09797e-24
8.0427e-24
-7.21554e-24
-1.94266e-24
4.22275e-24
-5.43235e-23
-2.27835e-23
-1.72793e-23
-2.28619e-23
-1.22685e-23
-1.11707e-23
-4.02577e-23
-3.76182e-24
-2.15128e-23
-7.70781e-24
5.18418e-24
-7.28349e-24
-1.932e-23
-4.75874e-24
-1.87724e-23
2.80491e-24
-3.4989e-24
-7.87871e-24
-1.91407e-23
-5.18046e-24
-3.67618e-24
6.97877e-24
6.07562e-24
2.58469e-24
-2.24118e-23
2.07962e-24
-5.06803e-24
1.45563e-23
2.51071e-24
-9.36776e-25
1.68908e-23
-7.40312e-24
4.89101e-24
-2.91979e-24
-1.45161e-23
2.60629e-24
2.00806e-24
-1.09278e-23
2.76385e-24
1.20691e-23
-1.34508e-23
-4.996e-25
1.73496e-23
-1.47714e-23
9.4622e-24
2.60029e-23
-2.35989e-23
1.52274e-23
-2.45942e-23
2.918e-23
2.07657e-23
-3.28634e-24
-8.62607e-24
1.59511e-23
-3.02197e-23
-1.18331e-23
-9.09604e-24
-2.39928e-24
-1.95628e-23
-1.19993e-23
-9.1771e-24
-1.95884e-23
-2.70191e-23
-1.40409e-23
-2.17951e-23
-1.23561e-23
-1.51676e-23
-6.80384e-24
-1.31867e-23
-2.60854e-24
-6.85934e-24
-2.74187e-24
-1.34014e-23
-8.11086e-24
6.37173e-25
-7.21207e-24
-6.45948e-24
-7.05547e-24
-7.57104e-24
-1.35487e-23
-7.23557e-24
-1.53395e-23
3.80054e-24
-2.09132e-23
-3.05181e-23
-2.23586e-23
-1.89558e-23
-1.49769e-23
-7.0383e-24
-1.38458e-23
-7.76812e-25
-8.94237e-24
-2.56388e-23
-1.16488e-23
-2.90611e-23
-1.19241e-23
-2.98279e-23
-8.14067e-24
-5.04048e-23
-2.01181e-23
-2.21673e-23
-1.08484e-23
-5.8759e-23
-1.89962e-23
-2.92957e-24
9.20507e-25
-3.9938e-23
-9.55089e-24
-3.90309e-23
-9.73906e-24
-4.59746e-23
-3.22568e-24
-5.22435e-23
-2.60327e-24
-3.68633e-23
1.54325e-24
-3.88636e-23
1.19081e-24
-3.40943e-23
1.23961e-23
-2.11597e-23
1.13465e-23
-2.40511e-23
4.36631e-24
-1.63626e-23
-4.43602e-24
1.16973e-24
-7.13751e-24
2.52026e-24
-5.62278e-24
8.89448e-24
-9.88026e-24
7.46585e-24
-2.19904e-23
-8.65437e-25
-2.36233e-23
1.85726e-23
-1.22495e-23
1.58387e-23
-7.04958e-24
7.10117e-24
-7.37277e-24
-1.82074e-24
-5.09676e-24
2.39304e-23
-2.73181e-24
2.20755e-23
-9.34869e-24
4.45099e-23
-9.28612e-24
-2.10454e-23
3.3103e-23
-1.00281e-23
2.21152e-23
3.70771e-23
-7.58932e-24
2.26663e-23
-1.89757e-23
-3.28373e-24
-2.68804e-23
-2.1093e-25
-3.68969e-24
1.51894e-23
-7.94165e-24
-5.77932e-24
-1.71717e-23
-9.15597e-24
-9.16227e-24
-1.54345e-23
-1.98676e-23
-2.50293e-23
-2.6267e-23
-2.85761e-23
-1.53677e-23
-1.26089e-23
8.15858e-24
7.14966e-24
-1.529e-23
-1.41747e-23
-2.03841e-23
-6.67995e-24
-2.04447e-23
-1.08224e-23
-5.02734e-25
-4.75005e-24
-1.17488e-23
-8.88924e-24
-1.82273e-23
-8.74787e-24
2.87747e-24
-6.70874e-24
-6.85063e-24
-1.12047e-24
-1.75335e-23
-3.48616e-24
-1.91943e-23
-9.43028e-24
-4.38408e-23
-1.40891e-23
-2.61372e-23
8.18657e-25
-4.94337e-23
-6.52364e-24
-2.35058e-23
-1.20575e-23
-2.07573e-23
-3.51752e-23
-3.04682e-23
-3.23378e-23
-2.44507e-23
-2.61863e-23
-4.11531e-23
-2.26581e-23
-3.86252e-23
-1.13365e-23
-3.67056e-23
-4.53162e-24
-3.94316e-23
3.51173e-24
-3.15615e-23
3.65188e-24
-2.5155e-23
6.98659e-24
-1.70395e-23
6.05974e-24
-2.42309e-23
4.83853e-24
3.91539e-24
-4.27978e-24
8.10205e-24
-1.37397e-23
9.72269e-24
-1.35945e-23
-2.84151e-24
-1.25089e-23
1.85787e-23
-3.21685e-24
2.5395e-23
-6.46771e-24
5.67349e-24
-1.54287e-23
1.2726e-23
-8.80062e-24
1.3883e-23
-6.29256e-24
2.23322e-23
-8.82259e-24
2.8424e-23
-1.23944e-23
3.98145e-23
-1.8475e-23
-3.34471e-23
1.01409e-23
-1.06986e-23
2.17927e-23
1.17606e-23
-1.13458e-23
2.0757e-23
-7.92659e-24
3.67912e-23
4.43407e-24
2.80473e-23
-2.41002e-23
8.6493e-24
-1.15213e-23
1.19045e-23
-2.37062e-23
-3.70001e-24
-3.20544e-23
-1.38243e-23
-3.02475e-23
-2.20934e-23
-1.24147e-23
5.82493e-25
1.80023e-23
-9.52647e-25
-2.79876e-23
-2.6032e-23
-1.4938e-23
-2.23294e-23
-2.18745e-23
-3.3058e-23
-1.07148e-23
-2.14473e-23
-3.42072e-24
-1.61683e-23
-8.66902e-24
-5.90011e-24
-1.16995e-23
-4.71148e-24
1.23102e-23
-1.03879e-24
-7.58831e-24
-5.01772e-24
-2.08438e-23
4.2029e-24
-2.82619e-23
-7.47372e-24
-2.59798e-23
-1.60518e-23
-3.76185e-23
-1.87685e-23
-5.5825e-23
-2.02706e-23
-4.68154e-23
-2.2322e-23
-2.07566e-23
-3.00434e-23
-2.25476e-23
-2.83788e-23
-2.2431e-23
-2.34641e-23
-1.81702e-23
-2.30393e-23
-3.15154e-23
-3.41722e-23
-1.88469e-23
-2.60031e-23
-2.91334e-23
-2.03287e-23
-2.11667e-23
-1.22793e-24
-3.10518e-23
1.90713e-23
-2.90717e-23
1.34367e-23
-2.22732e-23
6.63595e-24
-2.1009e-24
1.50799e-23
1.08172e-24
2.00456e-23
6.46953e-24
2.02639e-23
1.34293e-23
1.90519e-23
2.22859e-23
2.44543e-23
5.38605e-24
7.37432e-24
1.86726e-23
7.98824e-24
1.52594e-23
-4.21673e-24
1.56476e-23
-4.59266e-24
2.52118e-23
-1.25125e-23
4.98401e-23
-3.34618e-23
3.65877e-23
-4.14506e-23
-2.88046e-23
2.90814e-23
-4.97466e-24
3.01635e-23
2.77408e-24
2.35795e-23
3.50147e-23
4.02727e-24
2.13173e-23
9.56439e-24
2.64963e-23
-1.56366e-23
2.60562e-23
-2.00741e-23
1.07407e-23
-3.10732e-23
9.78641e-24
-5.2061e-23
1.26206e-23
-4.35815e-24
2.81849e-23
-7.18414e-24
7.86822e-24
-4.17706e-24
1.28935e-24
-1.77282e-23
-3.3467e-24
-2.53719e-23
-1.09621e-23
-5.3946e-24
-1.88389e-23
-4.71185e-24
-2.34597e-23
1.66781e-23
-6.57729e-24
-6.38908e-24
-1.62348e-23
4.74088e-25
-1.34396e-23
1.04584e-24
-8.48743e-24
5.72453e-24
-1.84784e-23
-3.77033e-23
-3.98355e-23
-4.19937e-23
-3.5047e-23
-2.41881e-23
-3.54805e-23
-3.66824e-23
-3.98747e-23
-5.77856e-23
-3.04884e-23
-6.07844e-23
-1.55379e-23
-1.5726e-23
-2.65638e-24
-1.01421e-23
-2.73449e-24
-2.73076e-23
-3.14939e-24
-2.9371e-23
-1.05536e-23
-2.14352e-23
-3.41268e-25
-1.19752e-23
-3.56704e-25
-5.30653e-24
-4.55379e-24
2.95966e-24
-1.01611e-23
-3.95209e-23
-9.47838e-24
-3.20658e-23
1.47257e-23
-2.24671e-23
3.77051e-23
-6.77846e-24
3.89231e-23
-7.43617e-24
3.16725e-23
3.80071e-24
2.43382e-23
1.37102e-23
2.41825e-23
3.80934e-24
-2.10388e-24
2.22128e-24
3.92754e-24
-5.13032e-25
6.42892e-24
1.41451e-23
1.4783e-23
1.45698e-24
6.61284e-24
1.1616e-23
1.52221e-23
4.8049e-23
2.51425e-23
4.54223e-23
-5.01997e-24
-2.25482e-23
3.33684e-23
-1.02357e-24
2.52467e-23
8.19173e-24
6.62218e-24
2.70357e-23
8.85844e-25
3.17956e-23
3.92254e-24
1.49489e-23
-2.60307e-23
8.74949e-24
-2.89398e-23
1.48076e-23
-2.58534e-23
1.11292e-23
-3.18059e-23
2.37323e-23
-3.4389e-23
4.12623e-23
1.25381e-24
4.72983e-23
-1.25388e-23
2.41303e-23
-1.43347e-23
1.0204e-23
-3.19304e-23
8.44698e-24
5.97991e-24
2.56943e-23
2.59434e-23
3.29671e-23
1.75279e-23
6.5092e-24
2.65639e-24
-5.13499e-24
6.89124e-24
-1.80908e-23
-7.59503e-24
-2.77356e-23
-7.98351e-24
-2.68558e-23
-2.93457e-23
-2.57988e-23
-4.66009e-23
-2.11964e-23
-3.13906e-23
-2.13296e-23
-2.43095e-23
-1.78295e-23
-3.90042e-23
-1.36132e-23
-4.34341e-23
-5.24668e-24
-1.66523e-23
4.15122e-24
-7.85218e-24
-3.46997e-24
-3.31637e-23
-1.57163e-23
-2.35776e-23
3.7278e-25
-2.45226e-23
7.21416e-24
-2.31811e-23
7.71731e-24
-1.09338e-23
1.75664e-23
-3.05858e-24
1.92549e-23
-2.08365e-23
9.91377e-24
-1.4935e-23
1.67475e-23
-2.97236e-23
2.30749e-23
-2.07896e-23
3.79171e-23
-2.57427e-23
4.51714e-23
1.06315e-23
3.58274e-23
2.67037e-24
1.93645e-24
6.68789e-24
1.93154e-24
5.46614e-24
5.23399e-24
1.60598e-23
5.95435e-25
6.37693e-24
-1.03577e-23
1.24005e-23
2.71413e-24
3.09181e-23
3.19258e-24
2.46793e-23
-1.01246e-23
3.09096e-23
-1.71557e-23
-3.2968e-23
2.88234e-23
1.00273e-23
4.59866e-23
1.20212e-23
6.72401e-25
3.80343e-23
-5.22317e-24
3.78428e-23
2.14385e-25
3.81202e-23
-1.13743e-23
1.74371e-23
-3.7492e-23
1.91986e-24
-1.63153e-23
2.64008e-23
-7.06268e-24
1.93992e-23
-2.52698e-23
1.77175e-23
-8.53586e-24
3.903e-23
-1.28699e-23
3.64065e-23
-2.62791e-23
3.49058e-23
-1.28762e-23
2.8095e-23
3.21158e-23
6.04813e-23
1.94646e-23
4.73072e-23
7.01936e-24
2.24018e-23
3.66857e-24
-5.05358e-24
-3.46516e-24
-1.29181e-23
-1.05426e-23
-2.48512e-23
-1.00049e-23
-3.43002e-23
-1.98863e-23
-5.06777e-23
-4.04147e-23
-3.74603e-23
-2.47269e-23
-6.80645e-24
-2.07583e-23
6.03047e-24
-3.12597e-23
-4.02069e-24
-2.8117e-23
-5.90468e-24
-1.91329e-23
3.3909e-24
-2.10298e-23
7.05628e-24
-1.30641e-23
1.43232e-23
-1.80368e-23
1.03986e-23
-1.99014e-23
1.40913e-23
-2.33942e-23
2.29155e-23
-2.02353e-23
1.70241e-23
-1.30997e-23
1.24631e-23
-7.99775e-24
7.83883e-24
-6.91419e-24
1.55624e-23
-1.42093e-23
-8.37827e-25
-1.77429e-23
6.81099e-24
-4.19545e-23
-1.39119e-25
-1.98457e-23
2.08656e-23
2.15034e-24
2.23287e-23
2.7601e-24
8.06489e-25
1.14351e-23
-3.3291e-24
1.75065e-23
-4.81967e-24
1.81649e-23
-7.80453e-24
2.72515e-23
-2.04766e-24
3.24393e-23
4.25572e-24
2.30386e-23
1.18251e-24
-4.34208e-25
-1.68079e-24
-5.20543e-24
4.94582e-23
-2.80461e-24
5.05298e-23
6.08316e-24
-4.0504e-25
4.95081e-23
-7.1331e-25
3.99709e-23
-1.55466e-23
9.18012e-24
-1.50589e-23
1.35424e-23
-1.21325e-23
3.62168e-23
-2.58888e-23
4.20744e-23
-1.33229e-23
5.42474e-23
-5.51621e-24
4.8992e-23
-2.04117e-23
3.12618e-23
-1.78003e-24
2.55383e-23
-4.25289e-23
3.76297e-23
1.9017e-23
8.74221e-23
3.07384e-23
5.6656e-23
3.07782e-23
8.50622e-24
-2.0391e-23
-1.70726e-23
1.21862e-25
6.04234e-24
-1.71764e-23
2.61127e-24
-1.57959e-23
4.692e-24
-2.37629e-23
1.75814e-24
-5.86343e-24
1.09925e-23
-1.38529e-23
2.17096e-24
-1.36023e-23
-9.80659e-24
-3.00556e-23
-1.09182e-23
-3.31253e-23
9.96858e-25
-1.53571e-23
9.08654e-24
-1.86911e-23
1.10201e-23
-1.58552e-23
1.28756e-23
-7.16945e-24
1.16163e-23
-1.23322e-23
1.9641e-23
-1.69236e-23
2.31033e-23
-3.55235e-23
7.3239e-24
-1.90236e-23
6.60543e-24
-1.57088e-23
1.46047e-23
6.07182e-24
1.60347e-23
-1.63691e-23
-3.56946e-24
1.4789e-23
6.61064e-24
-2.96475e-23
-2.72406e-23
-3.91301e-23
-1.63274e-23
-2.22525e-23
8.75541e-24
-6.69382e-24
9.5059e-24
1.1366e-23
1.9832e-23
1.25237e-23
3.20424e-23
1.48125e-23
2.55344e-23
3.15805e-23
9.61255e-24
4.45624e-23
-1.24959e-23
3.77419e-23
-1.82146e-23
2.91687e-23
-1.82548e-23
1.10944e-23
-2.49437e-23
-1.20844e-23
4.99158e-23
-7.24862e-24
2.468e-23
3.63242e-24
-1.31767e-23
3.91689e-23
-1.64701e-23
1.63619e-24
-2.66203e-23
1.69323e-23
4.832e-24
2.76634e-23
-8.32409e-24
1.33149e-23
-1.27956e-23
6.03269e-24
-1.77492e-23
2.61543e-23
-2.5045e-25
3.04577e-23
-2.46329e-23
1.16127e-23
2.34132e-24
2.41909e-23
-4.18842e-24
3.39088e-23
9.93922e-26
4.0881e-23
1.79872e-23
5.06429e-23
2.8102e-23
3.35366e-23
-4.46693e-24
4.09032e-24
-1.05423e-23
1.50912e-24
-1.44396e-23
7.33537e-24
-2.01624e-23
1.14951e-23
-1.80798e-23
2.68144e-23
-5.22369e-24
2.70338e-23
-1.664e-23
1.38883e-23
-1.08739e-23
1.92209e-23
-2.85094e-23
8.28812e-24
-3.72272e-23
1.09536e-23
-8.3859e-24
1.33474e-23
-1.14562e-23
1.93928e-23
-1.19981e-23
2.14375e-23
3.63136e-24
2.72017e-23
-3.10395e-24
-7.21253e-24
-3.80441e-23
-2.75359e-23
-4.2365e-23
-9.77698e-24
-1.90784e-23
2.13897e-23
-1.77726e-23
1.99521e-23
-4.19307e-24
1.10817e-23
-8.7165e-24
-2.3075e-25
2.69827e-24
-1.0404e-23
-1.47587e-23
-1.06895e-23
-1.76594e-23
-1.31736e-23
-3.69191e-23
5.08113e-26
-1.55657e-23
2.69816e-23
1.21738e-23
2.49283e-23
-4.04193e-25
8.70783e-24
1.02472e-23
1.61713e-23
2.7864e-23
2.48846e-23
4.82266e-23
3.35088e-24
4.23006e-23
-1.54039e-23
2.35888e-23
-2.65396e-23
3.76721e-23
-3.00887e-23
-2.00102e-23
4.30453e-23
-1.12588e-24
2.0044e-23
1.97908e-23
-5.01923e-23
-8.30932e-25
-2.48595e-23
1.82534e-23
-2.25886e-23
2.63564e-23
-2.72865e-24
2.18236e-23
-3.07524e-23
8.16391e-24
-7.33716e-26
6.00615e-24
-2.19206e-23
2.89583e-23
-1.35479e-23
4.47097e-23
-2.31112e-23
5.83058e-23
1.73158e-23
7.61001e-23
2.1278e-23
6.93263e-23
1.27571e-23
5.40245e-23
1.88876e-23
4.44574e-23
2.77881e-23
1.90956e-23
3.70914e-24
1.2572e-23
-1.6226e-23
1.76389e-23
-2.0283e-23
1.01973e-23
-1.05597e-23
8.55062e-24
-2.29548e-23
3.19846e-24
-5.45642e-24
1.44267e-23
-9.59393e-24
2.38753e-23
-1.96055e-23
1.00479e-23
-2.9659e-23
1.83799e-23
-4.70718e-23
3.23882e-23
6.36974e-25
5.30264e-23
-6.23559e-24
3.23952e-23
8.13047e-25
1.97187e-23
-1.24277e-23
9.40878e-24
-6.34357e-24
4.1478e-24
-3.60474e-23
-6.65355e-24
-2.82139e-23
2.19646e-23
-2.64454e-23
2.26799e-23
-1.90473e-23
2.14887e-23
-1.60435e-23
1.1073e-23
-2.34865e-23
8.47657e-24
-4.58903e-24
8.98031e-24
-2.28063e-23
6.48438e-24
-1.57412e-23
2.26433e-23
-2.88069e-23
1.51273e-23
-1.20766e-23
1.56295e-23
3.1175e-24
1.66894e-23
2.7733e-24
1.56116e-23
2.52488e-23
-2.86923e-24
2.287e-23
-9.63593e-24
4.90731e-23
-8.70906e-24
4.17127e-23
-9.60768e-24
2.48909e-23
-8.69926e-24
5.70803e-23
-6.17371e-24
-3.54613e-23
3.69908e-23
-2.37747e-23
4.08861e-23
1.84368e-23
-3.40887e-23
1.85484e-23
-2.64106e-23
2.3738e-23
-1.31468e-23
2.77215e-23
-6.411e-24
3.19937e-23
-2.44521e-23
6.51845e-23
-8.18942e-25
7.87262e-23
-1.49761e-23
4.13072e-23
-1.38806e-23
3.74184e-23
-9.98237e-24
5.88631e-23
2.7129e-23
8.30664e-23
2.73737e-23
7.33728e-23
1.2875e-23
6.22155e-23
7.92381e-24
4.92753e-23
3.08874e-23
2.89132e-23
1.83607e-23
-1.09332e-23
-3.64927e-23
-1.56006e-23
-2.29091e-23
-6.86655e-24
-1.26546e-23
-1.23774e-24
-2.11657e-23
1.3823e-23
5.46405e-24
1.74244e-23
-1.17243e-23
1.02994e-23
-1.58615e-23
1.64282e-23
-3.19158e-23
1.028e-24
-4.3159e-23
9.59903e-24
-1.02586e-23
3.51165e-23
-5.41876e-24
3.24012e-23
-4.67958e-24
1.85508e-23
-1.71543e-23
-1.38006e-23
-1.57208e-23
-3.2392e-23
-9.14525e-24
-2.85908e-23
-3.95313e-23
-3.74119e-23
-2.78988e-23
-2.11427e-23
-2.6878e-23
-6.37578e-24
-1.11336e-23
-7.11083e-24
-2.81665e-23
-7.58604e-24
-5.80274e-24
2.3162e-23
-1.51393e-23
1.38553e-23
-3.06275e-23
1.74937e-24
-2.5668e-23
6.18986e-24
2.90763e-24
2.55526e-23
-9.02332e-25
3.22311e-23
8.46866e-24
1.3219e-23
2.57418e-23
2.15156e-23
3.4169e-23
2.23532e-23
4.4742e-23
1.21067e-23
3.50686e-23
-1.03324e-23
3.21695e-23
-9.88657e-24
3.98234e-23
-1.34483e-23
-1.16369e-23
5.69333e-23
-3.13816e-23
3.03281e-23
1.45946e-23
-2.47058e-23
5.23931e-23
-2.64162e-23
3.44791e-23
-1.58682e-23
1.87869e-23
7.22604e-24
3.03475e-23
-1.26618e-23
5.1006e-24
-1.32662e-23
4.22564e-24
-1.42846e-24
2.52961e-23
-3.17067e-24
3.55433e-23
1.29753e-23
4.85819e-23
2.35209e-23
6.79598e-23
2.68025e-23
6.50811e-23
8.74561e-24
4.0234e-23
2.24632e-24
1.98699e-23
1.0632e-23
1.8587e-23
2.58642e-23
9.42883e-24
-4.64453e-23
-2.63266e-23
-3.34356e-23
1.06522e-23
-5.48416e-24
4.90796e-23
-1.45991e-23
2.32547e-23
6.991e-24
3.05569e-23
2.45308e-24
1.06852e-23
-2.72569e-23
4.79204e-24
-3.56121e-23
5.22303e-24
-3.3225e-23
5.30343e-24
-1.28241e-23
2.43834e-23
-8.37585e-24
2.91452e-23
-2.4047e-23
5.13253e-25
-3.18959e-23
-4.8739e-24
-1.94951e-23
-4.56325e-25
-1.46461e-23
-3.33776e-23
-2.88539e-23
-5.99117e-23
-1.42576e-23
-3.50697e-23
-2.32711e-23
-2.65274e-23
-1.68804e-23
-1.47895e-23
-1.03779e-24
-2.96513e-23
-1.95597e-23
-3.99303e-23
-1.73783e-23
-2.58108e-23
-3.05106e-23
-2.52398e-23
-2.26956e-23
-8.19363e-24
1.50404e-23
-9.89393e-24
-1.21986e-23
-2.57288e-23
-1.85233e-24
2.40157e-23
2.43248e-23
3.80013e-23
3.11807e-23
1.08504e-23
3.89755e-23
-2.7122e-24
4.28347e-23
-2.21019e-23
3.25443e-23
-1.0111e-23
3.66661e-23
-2.45175e-23
-2.05261e-23
5.3596e-23
-1.99282e-23
5.52063e-23
3.64457e-23
-2.51251e-23
3.69268e-23
-4.31191e-23
5.14337e-23
-3.49494e-24
7.97907e-23
-2.17035e-23
6.0767e-23
-1.28333e-23
1.05059e-23
-2.4477e-23
1.99656e-23
6.98021e-24
2.91008e-23
1.28945e-23
2.96265e-23
1.74549e-23
3.81736e-23
2.77674e-23
5.01352e-23
1.53989e-23
3.30145e-23
-2.87419e-24
1.743e-23
-1.96705e-24
1.72018e-23
5.2119e-24
1.05536e-23
6.84721e-24
2.66305e-24
-2.92126e-23
4.08787e-24
-1.38689e-23
1.18828e-23
-2.35251e-23
1.46271e-23
-5.64345e-24
2.89182e-23
-2.53934e-24
3.22264e-23
9.03291e-24
3.23121e-23
-2.86377e-23
1.4878e-24
-4.34443e-23
1.14701e-23
-2.84842e-23
2.29023e-23
-4.86014e-25
2.78276e-23
-2.4927e-23
1.41546e-23
-3.35767e-23
4.25186e-24
-3.97345e-23
9.23384e-25
-4.42837e-23
6.14559e-24
-3.66897e-23
2.30625e-24
-1.57049e-23
5.99021e-24
-1.03361e-23
-1.79743e-23
-1.03716e-23
-2.68392e-23
-2.59097e-23
-3.32057e-23
7.03577e-24
-2.25291e-23
-1.56325e-23
-2.16669e-23
-2.38789e-23
-2.07787e-23
-2.43298e-23
-2.96786e-23
-2.17764e-23
-1.22438e-23
-2.5854e-24
7.24021e-24
1.8555e-23
-3.00922e-24
4.8033e-24
7.59074e-24
1.81014e-23
-9.58965e-24
3.07356e-23
-6.63937e-24
2.83922e-23
-6.31088e-24
4.5812e-23
-1.02188e-24
3.23033e-23
-6.58287e-24
5.17204e-23
-1.04848e-23
-1.76825e-23
3.50062e-23
-2.80387e-23
5.29158e-23
3.64692e-23
-2.48591e-23
4.16519e-23
-3.48081e-23
2.12555e-23
-2.13258e-23
2.99945e-23
-4.87968e-23
1.02025e-23
-1.17742e-23
2.46897e-23
-1.44923e-23
1.65941e-23
9.14185e-24
4.82956e-23
9.66224e-24
6.37799e-23
2.27541e-23
5.99026e-23
2.10486e-23
4.11807e-23
1.4323e-23
2.96661e-23
4.05901e-24
-1.33661e-23
3.42506e-25
1.17932e-23
1.12632e-23
3.168e-23
-1.52729e-24
1.31267e-23
-1.99675e-23
-1.23916e-23
-1.61003e-23
2.64043e-24
-1.84785e-23
1.98339e-23
-7.50549e-24
2.72152e-23
3.645e-24
2.6542e-23
-8.71123e-24
7.5333e-24
-2.09752e-23
3.06268e-24
-4.4664e-23
-5.33974e-25
-2.98969e-23
3.12432e-23
-1.30438e-24
3.06932e-23
-3.14468e-23
-6.31566e-25
-4.38373e-23
-1.26977e-23
-4.4189e-23
-2.79682e-23
-5.87007e-23
-1.08681e-23
-4.20942e-23
-3.82316e-24
-2.8804e-23
2.7946e-24
-1.42361e-23
1.38281e-24
-1.53569e-23
-2.34627e-23
-2.44538e-23
-2.89413e-23
4.44502e-25
-4.50149e-23
-2.678e-23
-3.53343e-23
-4.41854e-23
-3.85105e-23
-2.10809e-23
-1.32725e-23
-1.39524e-23
-2.0777e-23
-4.04254e-24
-3.87576e-24
3.63599e-23
-1.22897e-23
-6.41253e-24
-2.2542e-23
1.89049e-23
1.02968e-23
3.58793e-23
1.01069e-23
3.39952e-23
-8.75531e-24
3.82704e-23
-8.60705e-24
4.51781e-23
-6.61582e-24
5.40313e-23
-1.75894e-23
-3.5147e-23
2.95561e-23
-3.58967e-23
3.85761e-23
1.88714e-23
-2.56209e-23
4.13604e-23
-3.62582e-23
6.22778e-23
-4.36894e-23
3.38886e-23
-4.22412e-23
1.44255e-23
-2.83678e-23
1.09786e-23
7.09855e-25
1.88235e-23
1.33141e-23
3.16728e-23
1.73651e-23
3.06169e-23
1.53105e-23
5.65643e-23
1.19526e-23
6.16112e-23
-3.14489e-24
2.58998e-23
1.21646e-23
7.235e-24
1.69283e-23
4.05705e-23
1.20385e-23
3.29389e-23
-1.18518e-24
2.95693e-23
-7.81803e-24
3.07989e-23
-3.27428e-24
4.26336e-23
-1.26913e-23
3.65567e-23
-2.04573e-24
1.93304e-23
1.60345e-24
2.55173e-23
-6.97934e-24
1.26768e-23
-2.08837e-23
7.66071e-24
-2.58803e-23
-7.11974e-24
-3.00819e-23
-5.48045e-24
-1.69014e-23
1.24649e-23
-3.08717e-23
2.27841e-24
-5.70092e-23
-2.4768e-23
-3.99593e-23
-1.26882e-23
-6.25318e-23
-2.19273e-23
-4.67112e-23
-1.19391e-23
-3.3511e-23
-6.97178e-24
-3.5861e-23
-3.2386e-23
-2.23743e-23
-4.27513e-23
-3.83541e-23
-5.05388e-23
6.4489e-24
-4.9849e-23
-2.98337e-23
-8.91097e-23
-3.77965e-23
-6.48915e-23
-2.09393e-23
-3.0022e-23
-4.564e-24
1.08935e-24
-1.49788e-23
3.01158e-24
1.8736e-23
2.78457e-25
2.07429e-23
-1.45565e-23
1.68998e-23
-1.82109e-23
3.70161e-23
-6.44738e-24
4.1088e-23
-1.90509e-23
4.61818e-23
-1.9566e-23
3.58232e-23
-2.87595e-23
5.03571e-23
-5.89751e-23
-4.60419e-23
4.61012e-23
-3.65971e-23
4.96146e-23
2.86461e-23
-2.51042e-23
4.07972e-23
-4.80804e-23
2.1888e-24
-5.06852e-23
3.58045e-23
-4.42052e-23
5.15112e-23
-2.39203e-23
8.19729e-23
4.02619e-24
8.44487e-23
1.21758e-24
3.71531e-23
1.93359e-23
5.06908e-23
1.35785e-23
5.4297e-23
2.28829e-24
3.46232e-23
-1.3736e-23
2.75378e-23
3.14754e-23
5.20328e-23
1.58352e-23
3.39132e-23
9.93243e-24
3.36403e-23
-2.04913e-24
3.48269e-24
-8.29468e-24
1.09111e-25
-1.37053e-24
1.16815e-23
-1.80086e-23
1.71583e-23
4.8322e-24
3.35921e-23
6.09589e-25
3.02158e-23
7.071e-24
4.18327e-23
-2.46236e-23
3.58247e-23
-1.93898e-23
1.92697e-23
-1.19745e-23
1.67055e-23
-1.50248e-23
1.39064e-23
-4.6375e-23
-4.76411e-24
-4.89632e-23
-3.25339e-23
-4.78116e-23
-1.56358e-23
-6.09015e-23
-8.57908e-24
-4.54542e-23
-3.14037e-23
-4.58636e-23
-2.44162e-23
-3.5754e-23
-4.1513e-23
-3.07252e-23
-6.00142e-23
-3.65395e-23
-4.88675e-23
-9.71102e-24
-3.64878e-23
-2.16986e-23
-7.20018e-23
-1.87123e-23
-6.59196e-23
-1.02089e-23
-4.367e-23
-3.32342e-24
-3.65964e-23
-9.40075e-24
-2.10451e-23
1.47593e-23
1.58773e-23
3.14009e-23
-1.43558e-23
3.16364e-23
-1.86339e-23
2.84529e-23
-4.92178e-24
4.16208e-23
3.62744e-24
4.6742e-23
-3.14235e-23
3.01758e-23
-3.95679e-23
5.98666e-23
2.3067e-24
-2.71792e-23
4.41635e-23
-4.04758e-23
5.85442e-23
3.53345e-23
-3.81192e-23
3.69098e-23
-2.28506e-23
2.75022e-23
-5.31775e-23
2.88257e-23
-2.15949e-23
5.7369e-23
-1.71213e-23
6.98486e-23
-1.61742e-23
8.56946e-23
1.00374e-23
4.86845e-23
2.7747e-23
7.14512e-23
1.58305e-23
6.1159e-23
4.22439e-24
7.84182e-23
-8.95497e-24
7.65004e-23
2.09567e-23
5.80437e-23
1.69852e-23
2.1409e-23
-2.95717e-24
1.61659e-23
-3.59236e-24
3.50528e-24
-3.73986e-25
-9.81474e-25
-1.91433e-25
1.94873e-23
-1.42326e-23
3.29921e-23
1.34753e-24
2.26266e-23
6.87038e-24
2.96174e-23
6.47623e-24
6.55581e-24
-3.18858e-23
-1.7869e-23
-1.90019e-23
3.9588e-24
-8.88666e-24
3.59015e-24
-1.50225e-23
-2.14872e-23
-6.11476e-23
-5.29487e-23
-4.00613e-23
-2.69692e-23
-4.89219e-23
-4.84621e-23
-7.79038e-23
-6.99995e-23
-4.22882e-23
-3.44501e-23
-5.38921e-23
-5.18551e-23
-5.06465e-23
-5.34942e-23
-2.76427e-23
-4.30717e-23
-2.88953e-23
-5.09938e-23
-2.70731e-23
-7.39668e-23
-1.70271e-23
-7.51599e-23
-2.73582e-24
-4.07414e-23
-5.06216e-24
-6.66611e-23
-3.92747e-24
-3.91075e-23
2.58195e-24
-2.53562e-23
2.86055e-24
3.09597e-24
2.06043e-23
5.83965e-23
3.30418e-23
1.03984e-23
3.09152e-23
-6.61411e-24
2.36857e-23
-2.55569e-23
3.30159e-23
5.34585e-25
4.47373e-23
-6.72333e-24
5.2062e-23
-3.72055e-24
-1.63388e-23
3.888e-23
-4.46637e-23
6.28144e-23
3.27483e-23
-5.16644e-23
3.91964e-23
-2.58002e-23
3.60762e-23
-3.67108e-23
6.11e-24
-3.10967e-23
4.1955e-23
-1.38479e-23
5.20356e-23
-4.84705e-23
3.64944e-23
2.19041e-23
6.32549e-23
1.72831e-23
3.25166e-23
2.30823e-23
5.30608e-23
2.29912e-24
5.67256e-23
-1.49954e-23
5.29095e-23
1.17286e-23
5.97105e-23
1.54209e-23
3.41854e-23
-7.07473e-24
1.75717e-24
-1.11047e-23
8.35061e-24
4.36457e-24
1.89466e-23
2.06542e-24
2.75719e-23
-2.01783e-23
2.25e-23
2.97075e-24
2.74676e-24
2.32207e-24
-4.23927e-24
-3.10338e-24
1.65137e-23
-2.04824e-23
-1.99831e-25
-1.88306e-23
3.80242e-23
-2.05602e-23
4.22392e-23
-2.78221e-23
1.27898e-23
-4.84301e-23
-3.03926e-23
-4.80094e-23
-2.97533e-23
-6.35085e-23
-3.95803e-24
-6.6109e-23
-3.9404e-23
-5.4977e-23
-4.76443e-23
-5.62373e-23
-6.582e-23
-3.98432e-23
-8.64961e-23
-3.13056e-23
-5.82031e-23
-3.94259e-23
-7.97605e-23
-3.20523e-23
-7.53874e-23
-6.34364e-24
-5.65136e-23
-1.29664e-23
-5.40573e-23
3.73216e-24
-3.75433e-23
1.00463e-23
-5.04161e-23
1.03305e-23
-1.82943e-23
2.67824e-23
2.24144e-23
3.01399e-24
-3.7435e-24
3.22014e-23
1.90927e-23
2.62259e-23
-2.45138e-24
3.69131e-23
4.15076e-24
1.81124e-23
1.78322e-23
5.58121e-23
5.47186e-24
3.68786e-23
-4.51653e-24
-1.3636e-23
2.99114e-23
-5.56096e-23
-3.66894e-23
-4.5991e-23
3.90236e-23
-1.61764e-23
6.90708e-23
-2.48163e-23
4.8767e-23
-2.74278e-23
5.06015e-23
-2.5208e-23
2.61249e-23
-9.48292e-24
4.29667e-23
3.10709e-23
3.80501e-23
2.52111e-23
6.1692e-23
-3.87264e-24
4.76686e-23
-1.01381e-23
6.33902e-23
-2.72181e-24
7.95602e-23
4.51066e-24
1.00392e-22
-4.78398e-24
2.47679e-23
-1.18265e-23
2.96359e-24
2.91468e-24
4.23862e-24
-3.65612e-24
-1.69823e-24
-2.77022e-23
1.07182e-23
-3.67189e-24
2.35463e-23
1.04081e-23
2.54822e-23
-1.32443e-23
1.82037e-24
-2.38168e-24
9.55235e-26
-1.57974e-23
1.2205e-23
-2.91747e-23
1.33871e-23
-4.46482e-23
3.20733e-23
-4.99658e-23
-2.70782e-23
-4.03302e-23
-3.42425e-23
-8.48813e-23
-9.51935e-23
-6.70295e-23
-5.27911e-23
-6.11544e-23
-5.66807e-23
-6.25704e-23
-8.0259e-23
-2.00908e-23
-4.75216e-23
-4.14328e-23
-8.52461e-23
-4.01626e-23
-8.3577e-23
-2.15495e-23
-5.39445e-23
-1.18407e-23
-7.46996e-23
-2.29277e-24
-6.44062e-23
1.28636e-24
-6.83362e-23
2.70531e-23
-3.43712e-23
3.17375e-23
-1.34129e-23
2.06513e-23
2.20287e-24
6.54623e-25
2.52642e-23
1.96329e-23
-2.33789e-24
2.51872e-23
2.70491e-24
3.46194e-23
-6.62225e-24
2.00403e-23
-5.00817e-23
3.97171e-23
-1.41432e-23
3.50581e-23
-2.09846e-23
-6.52386e-23
1.10054e-23
-3.11331e-23
-2.05042e-23
5.72709e-23
-3.07006e-23
5.93303e-23
-3.96156e-23
6.07199e-23
-2.1103e-23
4.93055e-23
-1.35977e-23
3.17736e-23
4.49564e-23
6.01452e-23
1.25135e-23
5.79729e-23
8.2138e-24
5.73682e-23
-1.03173e-23
3.50375e-23
6.73296e-24
5.34779e-23
-1.82595e-23
2.89886e-23
-1.42137e-23
1.97031e-23
-1.44493e-23
-7.34294e-24
4.80618e-25
2.13288e-23
4.00757e-24
4.1329e-24
-2.43844e-23
2.11544e-24
-3.64367e-24
1.07664e-23
9.74742e-25
2.37793e-23
-5.85109e-24
1.17888e-23
3.65619e-24
2.001e-23
-1.89211e-23
4.18696e-23
-1.842e-23
1.78518e-23
-7.09682e-23
-1.00196e-23
-4.9956e-23
-4.10131e-23
-6.32736e-23
-6.80236e-23
-6.90426e-23
-8.32216e-23
-7.48209e-23
-8.77027e-23
-7.39279e-23
-5.47217e-23
-5.66186e-23
-5.72957e-23
-3.84135e-23
-7.97853e-23
-3.91143e-23
-1.27848e-22
-2.97042e-23
-9.18959e-23
-3.02713e-23
-6.31772e-23
-3.57967e-24
-6.85944e-23
-4.8125e-24
-6.14092e-23
2.24703e-23
-5.07127e-23
3.59801e-23
-4.57917e-23
4.80828e-23
-6.22782e-23
2.32838e-23
-6.39123e-23
6.31927e-24
-4.66117e-23
2.5581e-23
-1.11482e-23
3.12426e-23
-2.92031e-24
2.29136e-23
-3.20579e-23
2.91808e-23
-4.15366e-23
4.35984e-23
-2.25887e-23
2.18006e-23
-4.11951e-23
-2.1488e-23
2.4896e-23
-2.7017e-23
-2.59533e-23
-4.34422e-23
7.20631e-23
-1.83714e-23
1.202e-22
-4.11596e-24
1.40095e-22
4.46265e-23
1.43251e-22
1.65919e-23
8.44262e-23
4.76924e-24
7.2254e-23
-5.76669e-24
5.08907e-23
2.84029e-24
4.36907e-23
-2.90029e-23
6.11492e-23
-3.31054e-23
3.04588e-23
-2.08685e-25
3.6463e-23
-9.77794e-24
2.28532e-23
2.50601e-24
-1.47743e-23
-2.42121e-23
4.76911e-24
4.1711e-24
2.46051e-23
-3.4033e-24
2.50945e-23
-2.78351e-24
3.95017e-23
9.44364e-24
8.15112e-24
-2.67953e-23
-1.88799e-23
-2.6899e-23
2.14543e-23
-8.10849e-23
-4.83237e-23
-6.25223e-23
-5.34773e-23
-7.29251e-23
-4.97165e-23
-7.08718e-23
-1.18889e-22
-6.02854e-23
-9.13021e-23
-7.52582e-23
-7.85611e-23
-5.93117e-23
-8.64475e-23
-5.46095e-23
-9.04252e-23
-2.59032e-23
-8.06304e-23
-2.24829e-23
-1.05393e-22
-2.55163e-23
-7.42134e-23
2.23416e-24
-5.8809e-23
-3.12561e-24
-6.39531e-23
3.07108e-23
-8.14127e-23
3.60913e-23
-8.3871e-23
4.67918e-23
-7.65531e-23
3.5911e-23
-9.55303e-23
2.41631e-23
-7.48975e-23
3.0414e-23
-5.55952e-23
2.60762e-23
-3.37644e-23
2.72171e-23
-2.55524e-23
3.95595e-23
-4.04106e-23
4.21121e-23
-1.82662e-23
3.05134e-23
-2.3707e-23
-4.04685e-23
1.24863e-23
-2.30061e-23
-1.56962e-23
1.13367e-22
1.78747e-24
1.13633e-22
2.54011e-23
1.21551e-22
1.67227e-23
9.85358e-23
-1.7634e-24
4.75748e-23
-9.09845e-24
5.80014e-23
7.37199e-24
5.69885e-23
-2.93141e-23
1.07474e-23
-3.15998e-23
3.45875e-23
-3.93667e-24
3.75116e-23
-2.1276e-23
3.06908e-23
8.73513e-24
-1.1798e-23
-1.70917e-23
-1.08558e-23
-1.14965e-24
1.10846e-23
7.81778e-24
1.19597e-23
-1.42013e-23
-3.08113e-23
4.23085e-24
-1.15974e-23
-1.27381e-23
-2.66323e-24
-5.57351e-23
-2.44546e-23
-8.26108e-23
-2.38219e-23
-6.19271e-23
-7.75078e-23
-9.59352e-23
-1.02241e-22
-5.7376e-23
-6.29045e-23
-6.46399e-23
-8.17966e-23
-7.56238e-23
-1.03575e-22
-6.42613e-23
-1.06292e-22
-5.10876e-23
-1.11234e-22
-3.58387e-23
-9.7074e-23
-1.39059e-23
-9.75772e-23
-1.83072e-23
-1.10569e-22
-1.30749e-24
-8.4569e-23
-4.43806e-24
-1.01739e-22
3.53653e-23
-8.06373e-23
4.36831e-23
-8.75698e-23
4.01292e-23
-7.91726e-23
4.30632e-23
-6.56871e-23
3.61362e-23
-6.65103e-23
4.45753e-23
-5.26749e-23
2.63762e-23
-4.55988e-23
2.29213e-23
-1.37242e-23
4.16518e-23
-1.67576e-23
4.36516e-23
-1.45841e-23
2.33836e-23
-3.23583e-23
-1.17405e-23
3.6054e-23
-1.03869e-23
4.99019e-24
1.17156e-22
2.39588e-23
1.54405e-22
9.4695e-26
1.19538e-22
-1.27292e-24
8.50222e-23
-4.23367e-24
6.04156e-23
-7.91009e-24
5.66499e-23
-1.72684e-23
2.62228e-23
-3.32819e-23
4.68361e-23
-1.39082e-23
5.37262e-23
-3.44383e-23
6.78299e-24
6.48509e-24
-1.81631e-23
-1.12669e-23
-6.16935e-24
-6.30178e-24
1.19104e-24
-8.48568e-25
1.27593e-23
-1.20494e-23
-5.35502e-23
7.91969e-24
-3.3073e-23
-1.90358e-23
-6.83313e-23
-4.89694e-23
4.64153e-24
-9.91488e-23
2.13633e-23
-7.11527e-23
1.8534e-23
-8.57474e-23
-5.86297e-24
-6.98801e-23
1.58179e-23
-7.30143e-23
-5.80366e-23
-7.30134e-23
-1.02557e-22
-6.56612e-23
-1.21795e-22
-4.70849e-23
-1.0479e-22
-2.55099e-23
-1.27941e-22
-1.93409e-23
-1.08957e-22
-5.35548e-24
-1.21614e-22
-8.413e-24
-1.19854e-22
-3.47889e-25
-7.65277e-23
3.98034e-23
-3.38448e-23
4.2992e-23
-7.01351e-23
4.67235e-23
-1.20525e-22
3.88018e-23
-6.65352e-23
4.07423e-23
-5.74488e-23
4.23146e-23
-4.72678e-23
4.16222e-23
-3.57983e-23
2.54973e-23
1.50467e-23
3.91176e-23
-2.18011e-23
4.0165e-23
-2.58681e-24
2.50135e-23
-9.27177e-24
-1.60422e-23
3.99493e-23
1.61598e-23
9.38295e-24
-1.46875e-23
6.57786e-23
-3.71253e-24
6.99028e-23
-9.49476e-24
6.46619e-23
-1.34292e-23
5.94157e-23
-1.20588e-23
6.42839e-23
-3.6024e-23
3.91335e-23
-2.89353e-23
3.8152e-23
-4.01187e-23
-9.87394e-24
6.488e-24
2.16131e-23
-8.99971e-24
-1.96431e-24
3.65478e-24
-5.66851e-24
-2.42003e-23
4.79045e-23