/*--------------------------------*- C++ -*----------------------------------*\
  =========                 |
  \\      /  F ield         | OpenFOAM: The Open Source CFD Toolbox
   \\    /   O peration     | Website:  https://openfoam.org
    \\  /    A nd           | Version:  7
     \\/     M anipulation  |
\*---------------------------------------------------------------------------*/
FoamFile
{
    version     2.0;
    format      ascii;
    class       volScalarField;
    location    "8000";
    object      nu;
}
// * * * * * * * * * * * * * * * * * * * * * * * * * * * * * * * * * * * * * //

dimensions      [0 2 -1 0 0 0 0];

internalField   nonuniform List<scalar> 
4844
(
0.001
0.001
0.001
0.001
0.001
0.001
0.001
0.001
0.001
0.001
0.000995758
0.001
0.001
0.001
0.001
0.001
0.001
0.001
0.000994756
0.000984822
0.000976422
0.000966622
0.001
0.001
0.001
0.001
0.001
0.000999753
0.000995492
0.000989328
0.000982142
0.000973824
0.000963684
0.000950482
0.000939666
0.00092984
0.000921415
0.000909749
0.000992693
0.00099477
0.000995969
0.000996158
0.000994382
0.000990955
0.000985397
0.000979159
0.000973905
0.000966062
0.000956871
0.000947243
0.000937633
0.000928732
0.000921471
0.000910909
0.000981661
0.000983661
0.000985303
0.000985223
0.000982775
0.000978348
0.00097263
0.000966707
0.000961317
0.000953961
0.000945805
0.000938998
0.000930788
0.000922968
0.000916479
0.000905854
0.000971246
0.000972235
0.000971505
0.000968621
0.000963984
0.000958445
0.000952749
0.000946994
0.000940063
0.000932865
0.00092664
0.000919433
0.000912442
0.000906219
0.000895004
0.000958538
0.000958408
0.000956748
0.000953438
0.00094878
0.000943428
0.000937827
0.000931886
0.000925311
0.000918728
0.000912577
0.000905948
0.000899411
0.000893078
0.000881274
0.000945874
0.000944227
0.000941573
0.000937839
0.000933151
0.000927902
0.000922327
0.00091636
0.000910059
0.000903806
0.000897673
0.000891327
0.000884935
0.000878307
0.000866129
0.000933453
0.000932743
0.000929619
0.000926154
0.000922052
0.000917295
0.000912073
0.000906501
0.000900583
0.000894472
0.000888381
0.00088227
0.000876021
0.000869581
0.000862624
0.000850305
0.000920025
0.000918316
0.000914509
0.00091055
0.000906167
0.000901317
0.000896076
0.000890504
0.000884651
0.000878661
0.000872642
0.000866541
0.00086028
0.0008537
0.000846457
0.000834177
0.000904431
0.000902832
0.000899052
0.000894825
0.000890237
0.000885288
0.000880009
0.000874436
0.000868636
0.000862714
0.000856721
0.000850604
0.000844271
0.000837527
0.000830073
0.000817952
0.000888636
0.000887279
0.000883479
0.000879059
0.000874307
0.000869261
0.000863936
0.00085836
0.000852593
0.000846703
0.000840706
0.000834549
0.000828122
0.000821228
0.000813636
0.00080175
0.000869842
0.00087452
0.000872056
0.000867949
0.000863317
0.000858413
0.000853274
0.000847903
0.000842319
0.000836567
0.000830685
0.000824667
0.000818456
0.00081193
0.000804919
0.000797252
0.000785644
0.000862216
0.000861054
0.00085709
0.000852509
0.000847636
0.000842585
0.000837359
0.000831943
0.000826347
0.000820596
0.000814706
0.000808658
0.000802386
0.000795774
0.00078868
0.000780989
0.000769683
0.000845725
0.000851976
0.000847211
0.000842183
0.000837136
0.000832028
0.000826841
0.000821535
0.000816079
0.000810467
0.000804709
0.000798803
0.00079272
0.00078639
0.00077971
0.000772567
0.000764891
0.000753896
0.000838195
0.000838544
0.000832779
0.000827183
0.000821794
0.000816493
0.000811192
0.000805818
0.000800327
0.000794699
0.00078893
0.000783005
0.000776887
0.000770509
0.000763781
0.000756619
0.000748985
0.000738303
0.000826139
0.000823491
0.000817803
0.000812033
0.00080646
0.00080103
0.000795644
0.00079022
0.000784701
0.000779059
0.000773278
0.000767334
0.000761187
0.000754773
0.000748017
0.000740861
0.000733291
0.000722917
0.000810785
0.000807751
0.000802458
0.000796757
0.000791134
0.000785641
0.000780206
0.000774748
0.000769211
0.000763559
0.000757769
0.00075181
0.000745641
0.000739204
0.00073244
0.00072531
0.000717818
0.000707747
0.00079467
0.000791817
0.000786933
0.000781412
0.000775834
0.000770334
0.000764882
0.000759411
0.000753866
0.000748211
0.000742416
0.000736448
0.000730266
0.00072382
0.000717064
0.000709977
0.000702575
0.000692796
0.000778686
0.000775944
0.000771369
0.000766057
0.00076058
0.000755121
0.000749681
0.000744214
0.000738674
0.000733022
0.000727229
0.000721259
0.000715075
0.000708633
0.000701901
0.000694869
0.000687566
0.000678069
0.000763003
0.000760201
0.000755835
0.000750734
0.000745395
0.000740011
0.00073461
0.000729167
0.000723642
0.000718003
0.000712218
0.000706255
0.000700078
0.000693653
0.000686957
0.000679991
0.000672791
0.000663567
0.000747447
0.000744522
0.00074034
0.000735464
0.000730293
0.000725015
0.000719678
0.000714274
0.000708777
0.000703159
0.000697391
0.000691443
0.000685284
0.000678887
0.000672238
0.000665346
0.000658254
0.000649291
0.00073167
0.000728776
0.00072486
0.000720256
0.000715289
0.000710144
0.000704892
0.000699543
0.000694086
0.000688497
0.000682754
0.00067683
0.000670698
0.000664339
0.000657746
0.000650935
0.000643953
0.000635242
0.00071532
0.000712863
0.000709385
0.000705123
0.000700395
0.000695409
0.00069026
0.000684981
0.000679574
0.000674024
0.000668314
0.000662422
0.000656327
0.000650014
0.000643485
0.00063676
0.000629889
0.00062142
0.000698281
0.000696804
0.000693948
0.00069009
0.000685632
0.000680823
0.000675793
0.000670595
0.000665247
0.000659745
0.000654076
0.000648223
0.000642172
0.000635914
0.000629454
0.000622819
0.000616062
0.000607826
0.000680891
0.000680778
0.00067863
0.000675201
0.000671022
0.000666401
0.000661499
0.000656392
0.000651111
0.000645664
0.000640043
0.000634237
0.000628237
0.00062204
0.000615655
0.000609114
0.00060247
0.000594461
0.000663938
0.000665074
0.000663544
0.000660505
0.000656594
0.000652159
0.000647388
0.000642378
0.000637172
0.000631785
0.000626218
0.000620466
0.000614524
0.000608393
0.000602088
0.000595643
0.000589114
0.000581323
0.000648304
0.000649971
0.000648802
0.000646055
0.000642373
0.000638112
0.000633472
0.000628561
0.000623433
0.000618112
0.000612606
0.000606913
0.000601034
0.000594974
0.000588753
0.000582406
0.000575993
0.000568415
0.000634419
0.00063562
0.000634475
0.000631891
0.000628384
0.000624275
0.000619758
0.000614946
0.0006099
0.00060465
0.000599208
0.000593579
0.000587768
0.000581784
0.00057565
0.000569404
0.000563108
0.000555738
0.000619797
0.000622031
0.000621996
0.000620588
0.000618037
0.000614646
0.000610662
0.000606258
0.000601542
0.000596578
0.000591401
0.000586027
0.000580467
0.000574728
0.000568823
0.000562779
0.000556637
0.000550459
0.000543291
0.000612295
0.00061038
0.000608958
0.000607121
0.000604501
0.000601169
0.000597283
0.000592978
0.000588353
0.000583471
0.000578369
0.000573068
0.000567579
0.000561916
0.000556095
0.000550143
0.000544106
0.000538046
0.000531074
0.000598981
0.000603226
0.00059887
0.000596337
0.000594029
0.000591276
0.00058796
0.000584144
0.000579926
0.000575387
0.000570586
0.00056556
0.000560332
0.000554919
0.000549335
0.000543599
0.000537743
0.000531811
0.000525868
0.000519083
0.000592394
0.000592249
0.00058727
0.000583987
0.000581257
0.000578346
0.000575016
0.000571251
0.000567107
0.000562648
0.000557925
0.000552976
0.000547825
0.000542489
0.000536986
0.000531339
0.000525578
0.000519752
0.000513922
0.000507313
0.000582919
0.000580397
0.000575509
0.000571809
0.000568751
0.000565689
0.000562331
0.000558602
0.000554522
0.000550137
0.000545492
0.00054062
0.000535546
0.00053029
0.000524871
0.000519312
0.000513648
0.000507924
0.000502201
0.000495754
0.000571051
0.000568157
0.000563606
0.000559742
0.000556464
0.000553279
0.00054989
0.000546189
0.000542166
0.000537853
0.000533283
0.00052849
0.000523495
0.000518319
0.000512984
0.000507515
0.000501946
0.00049632
0.000490698
0.000484398
0.000558412
0.00055576
0.000551611
0.000547753
0.000544357
0.000541087
0.000537676
0.000534
0.000530032
0.000525788
0.000521294
0.000516578
0.000511663
0.000506569
0.000501319
0.000495939
0.000490462
0.000484931
0.000479402
0.000473239
0.000545666
0.000543335
0.000539578
0.000535829
0.000532398
0.000529085
0.000525665
0.000522018
0.000518104
0.00051393
0.000509512
0.000504874
0.000500039
0.000495026
0.000489861
0.000484569
0.000479183
0.000473744
0.000468306
0.000462278
0.000533048
0.000530964
0.000527556
0.000523971
0.000520569
0.000517249
0.000513836
0.000510223
0.000506368
0.000502264
0.000497923
0.000493362
0.000488606
0.000483675
0.000478595
0.00047339
0.000468094
0.000462747
0.000457405
0.000451525
0.000520632
0.000518709
0.000515598
0.000512199
0.000508869
0.00050557
0.000502178
0.000498606
0.000494812
0.00049078
0.000486512
0.000482029
0.000477351
0.000472502
0.000467506
0.00046239
0.000457185
0.000451935
0.000446704
0.000441002
0.000508464
0.000506641
0.000503775
0.000500559
0.000497321
0.00049406
0.000490697
0.000487169
0.000483438
0.000479475
0.000475279
0.00047087
0.00046627
0.000461504
0.000456593
0.000451566
0.000446457
0.000441315
0.000436218
0.000430734
0.000496608
0.000494848
0.000492178
0.000489126
0.000485979
0.000482758
0.000479426
0.000475941
0.000472269
0.000468366
0.000464236
0.000459899
0.000455378
0.000450695
0.000445872
0.000440937
0.000435929
0.000430909
0.000425973
0.000420746
0.000485154
0.000483435
0.000480916
0.000477996
0.00047492
0.000471729
0.000468424
0.000464975
0.000461349
0.000457494
0.000453421
0.000449154
0.000444712
0.000440113
0.00043538
0.000430542
0.000425644
0.000420758
0.000416
0.000411041
0.00047418
0.000472487
0.00047008
0.000467255
0.000464219
0.000461047
0.000457764
0.000454339
0.000450736
0.000446913
0.000442893
0.000438696
0.000434332
0.000429819
0.000425178
0.00042044
0.000415656
0.00041091
0.000406325
0.000401591
0.000463698
0.000462021
0.000459695
0.000456937
0.000453915
0.000450761
0.0004475
0.000444087
0.000440485
0.000436684
0.000432716
0.000428588
0.000424304
0.000419876
0.000415327
0.000410691
0.000406022
0.000401407
0.000396955
0.000392316
0.000453583
0.000451915
0.000449654
0.000446958
0.000443955
0.000440847
0.000437622
0.000434221
0.000430608
0.000426836
0.000422927
0.000418871
0.000414665
0.000410321
0.000405862
0.000401324
0.000396764
0.000392255
0.000387854
0.000383091
0.000443518
0.000441861
0.000439666
0.000437065
0.000434157
0.00043116
0.000428005
0.000424638
0.000421036
0.000417328
0.000413496
0.000409516
0.000405387
0.000401122
0.000396748
0.000392302
0.000387834
0.000383389
0.000378926
0.000373757
0.000432998
0.000431366
0.000429262
0.000426832
0.000424187
0.000421399
0.000418364
0.000415087
0.000411583
0.000408005
0.000404277
0.000400379
0.000396325
0.000392135
0.00038784
0.000383475
0.000379077
0.000374644
0.000369998
0.000364156
0.000421442
0.000419858
0.000417883
0.000415726
0.000413604
0.000411131
0.000408273
0.000405174
0.000401938
0.000398582
0.000394986
0.000391178
0.000387197
0.000383079
0.000378856
0.000374561
0.000370212
0.000365741
0.000360822
0.000354167
0.000408416
0.000406912
0.000405104
0.000403302
0.000401981
0.000399883
0.000397249
0.00039443
0.000391708
0.000388658
0.000385219
0.000381508
0.000377605
0.00037356
0.000369409
0.000365178
0.000360859
0.000356322
0.000351111
0.000343748
0.000393959
0.000392562
0.000390937
0.000389493
0.000389105
0.000387344
0.000384949
0.000382488
0.00038053
0.000377821
0.000374546
0.000370942
0.000367128
0.000363166
0.000359095
0.000354931
0.000350639
0.000346039
0.000340616
0.000332949
0.000378864
0.00037758
0.000376117
0.000374914
0.0003752
0.000373621
0.000371436
0.000369331
0.000368243
0.000365817
0.000362693
0.000359208
0.000355501
0.000351641
0.000347665
0.000343582
0.000339333
0.000334714
0.00032925
0.000321924
0.000364776
0.000363577
0.000362217
0.000361029
0.000361097
0.000359466
0.000357421
0.000355559
0.000355079
0.000352779
0.000349777
0.000346418
0.000342838
0.000339103
0.000335245
0.000331263
0.000327087
0.000322522
0.000317241
0.000310943
0.000353998
0.000352809
0.000351464
0.000350041
0.00034825
0.000346356
0.000344352
0.000342518
0.000341805
0.000339422
0.000336499
0.000333268
0.000329828
0.000326233
0.00032251
0.000318648
0.000314578
0.000310147
0.000305251
0.000300435
0.000346823
0.000345581
0.000344169
0.000342351
0.000338607
0.000336329
0.000334261
0.000332206
0.000329741
0.000327098
0.000324208
0.000321088
0.000317781
0.000314322
0.000310731
0.000306993
0.000303045
0.000298806
0.00029442
0.000291138
0.00033222
0.000329601
0.00032739
0.000324947
0.000320649
0.000317656
0.000314747
0.000311696
0.000308484
0.000305127
0.000301635
0.000297991
0.000294153
0.000290117
0.000286255
0.000284207
0.000314552
0.000311265
0.000308301
0.000305275
0.000302114
0.000298816
0.000295383
0.000291799
0.000288047
0.000284205
0.00028081
0.00027951
0.000845181
0.000854219
0.000842816
0.000848731
0.000836066
0.000841624
0.000825232
0.000832155
0.000830892
0.000812464
0.000821026
0.000823776
0.000798683
0.000808298
0.000814039
0.000807321
0.000784296
0.000794525
0.000801211
0.000800352
0.00076951
0.000779985
0.00078695
0.000790305
0.000754465
0.000764918
0.000772005
0.000777271
0.000774763
0.000739274
0.000749514
0.000756516
0.000762361
0.000764315
0.000724036
0.000733943
0.000740681
0.00074613
0.000749128
0.000708841
0.000718361
0.000724756
0.000729555
0.000731257
0.000693758
0.000702894
0.000708984
0.000713301
0.000714021
0.000678834
0.000687627
0.000693525
0.000697729
0.000698618
0.000664089
0.000672599
0.000678432
0.000682856
0.000684928
0.000681487
0.00064953
0.000657812
0.000663683
0.000668513
0.000671998
0.000673119
0.000635167
0.000643266
0.000649232
0.000654517
0.000659146
0.000663493
0.000656309
0.000621037
0.000628976
0.000635053
0.000640753
0.000646251
0.000652015
0.000651526
0.000644391
0.000607211
0.000615002
0.000621174
0.000627201
0.000633292
0.000639711
0.00064378
0.000640981
0.00063641
0.000593797
0.000601441
0.000607677
0.00061393
0.000620389
0.000627167
0.000633033
0.000634612
0.000632921
0.000631473
0.000580897
0.000588398
0.000594664
0.000601049
0.000607706
0.000614653
0.000621189
0.00062502
0.000626546
0.000626076
0.000568546
0.000575916
0.000582182
0.000588625
0.000595358
0.000602344
0.000609071
0.000614033
0.00061708
0.000618269
0.000556615
0.000563879
0.00057013
0.000576578
0.000583305
0.000590242
0.000596956
0.000602431
0.000606224
0.000608107
0.000544738
0.000551929
0.000558163
0.000564583
0.000571252
0.000578084
0.000584697
0.000590359
0.000594523
0.000596819
0.000532297
0.000539445
0.000545663
0.000552035
0.000558612
0.000565304
0.000571774
0.000577457
0.000581811
0.000584449
0.000518543
0.000525649
0.000531842
0.000538146
0.000544604
0.00055113
0.00055743
0.000563048
0.000567495
0.000570432
0.000502886
0.000509896
0.000516031
0.000522237
0.000528545
0.000534876
0.00054098
0.000546477
0.000550951
0.00055412
0.000485327
0.00049212
0.00049813
0.000504193
0.000510315
0.000516419
0.000522295
0.000527627
0.00053207
0.000535388
0.000466866
0.000473274
0.000479075
0.000484945
0.000490846
0.000496697
0.000502321
0.000507458
0.000511823
0.000515217
0.000449656
0.000455533
0.000461058
0.000466705
0.000472373
0.000477972
0.000483348
0.000488288
0.000492565
0.000496014
0.000436758
0.000442066
0.000447308
0.000452752
0.000458229
0.000463629
0.000468814
0.000473609
0.000477842
0.000481401
0.000428562
0.000433418
0.000438413
0.000443698
0.000449043
0.000454314
0.000459382
0.000464104
0.000468354
0.000472081
0.000847435
0.000845755
0.000839195
0.000827997
0.000814651
0.000800308
0.000785478
0.000770396
0.000755186
0.000739933
0.000724704
0.000709557
0.000694536
0.000679669
0.00066497
0.000650441
0.000636087
0.000621933
0.000608036
0.000594489
0.000581396
0.00056882
0.000556708
0.000544804
0.000532606
0.000519423
0.000504597
0.000487897
0.000469999
0.000452796
0.000439318
0.000430163
0.00085564
0.000853251
0.000846773
0.00083598
0.000822978
0.0008088
0.000793993
0.000778861
0.000763581
0.00074826
0.000732973
0.000717774
0.000702703
0.000687787
0.000673038
0.00065846
0.000644052
0.000629818
0.000615785
0.000602006
0.000588561
0.000575533
0.00056296
0.000550778
0.000538759
0.000526487
0.00051342
0.00049906
0.00048326
0.000466569
0.000450497
0.00043757
0.000427912
0.000862847
0.000859762
0.000852876
0.000841978
0.000829061
0.000815034
0.000800367
0.000785337
0.00077012
0.000754838
0.000739574
0.000724389
0.000709325
0.000694414
0.000679673
0.000665111
0.000650726
0.000636519
0.000622493
0.000608668
0.000595085
0.000581796
0.000568852
0.000556273
0.000544011
0.000531933
0.000519826
0.000507443
0.000494583
0.000481176
0.00046731
0.000453176
0.000438998
0.000424883
0.000411153
0.000398799
0.000389607
0.000383508
0.000870335
0.00086687
0.000859598
0.000848415
0.000835345
0.000821271
0.00080662
0.000791631
0.00077646
0.000761214
0.000745975
0.000730801
0.00071574
0.000700824
0.000686076
0.000671512
0.000657135
0.000642946
0.000628942
0.00061512
0.00060149
0.000588072
0.000574899
0.000562013
0.000549452
0.000537236
0.000525342
0.00051368
0.000502072
0.000490232
0.000477778
0.000464302
0.000449536
0.000433611
0.000417339
0.00040239
0.000391183
0.000383981
0.000877415
0.000873875
0.000866426
0.000855042
0.000841805
0.000827617
0.000812903
0.000797889
0.000782714
0.000767475
0.000752242
0.000737072
0.000722006
0.000707078
0.000692313
0.000677731
0.00066334
0.000649146
0.000635144
0.000621325
0.000607681
0.000594209
0.00058092
0.000567852
0.000555063
0.00054263
0.000530622
0.000519053
0.00050782
0.000496644
0.000485041
0.000472386
0.000458128
0.000442137
0.000425115
0.000408845
0.000396085
0.000387476
0.000883901
0.000880426
0.000872962
0.000861515
0.0008482
0.000833941
0.00081917
0.000804117
0.000788917
0.000773663
0.000758421
0.00074324
0.00072816
0.000713212
0.000698423
0.000683811
0.000669392
0.000655172
0.00064115
0.000627316
0.000613656
0.000600156
0.000586812
0.000573649
0.000560719
0.000548111
0.000535921
0.000524213
0.000512953
0.000501939
0.000490759
0.000478824
0.000465526
0.00045051
0.000434015
0.000417121
0.00040176
0.000390471
0.000383347
0.00088984
0.000886428
0.000879016
0.000867603
0.000854311
0.000840063
0.000825294
0.000810237
0.00079503
0.000779766
0.000764511
0.000749314
0.000734214
0.000719242
0.000704422
0.000689775
0.000675317
0.000661058
0.000646999
0.000633132
0.000619442
0.00060591
0.000592526
0.000579303
0.000566285
0.000553554
0.000541215
0.000529354
0.000517976
0.000506931
0.000495858
0.000484194
0.000471293
0.000456684
0.000440425
0.000423427
0.000407573
0.00039551
0.000387621
0.000895258
0.000891838
0.000884492
0.000873182
0.000860004
0.000845857
0.000831169
0.000816167
0.000800993
0.000785743
0.000770489
0.000755281
0.000740162
0.000725163
0.00071031
0.000695624
0.000681122
0.000666816
0.000652709
0.000638796
0.000625062
0.000611487
0.000598059
0.000584782
0.000571695
0.000558875
0.000546426
0.000534444
0.000522951
0.000511824
0.000500725
0.000489106
0.000476308
0.000461816
0.000445625
0.000428593
0.000412593
0.00040032
0.000392202
0.000899999
0.000896498
0.000889264
0.000878163
0.000865217
0.00085128
0.000836757
0.000821874
0.000806777
0.000791571
0.000776333
0.000761125
0.00074599
0.000730964
0.000716075
0.000701347
0.000686798
0.000672441
0.000658281
0.000644314
0.000630526
0.000616899
0.000603416
0.000590081
0.000576928
0.000564032
0.000551495
0.000539418
0.000527832
0.000516623
0.000505466
0.000493815
0.000481003
0.000466496
0.000450263
0.000433148
0.000417037
0.000404663
0.000396471
0.000903579
0.000900002
0.000893089
0.000882457
0.000869958
0.000856377
0.000842109
0.000827395
0.000812403
0.000797255
0.000782043
0.000766835
0.000751685
0.00073663
0.000721703
0.00070693
0.000692329
0.000677917
0.0006637
0.000649675
0.000635828
0.000622141
0.000608598
0.000595199
0.000581978
0.000569006
0.00055639
0.000544231
0.000532566
0.000521288
0.000510074
0.000498375
0.000485515
0.000470942
0.000454613
0.000437372
0.000421125
0.000408652
0.000400409
0.000904634
0.000901208
0.000895675
0.000886105
0.000874403
0.000861327
0.000847357
0.000832813
0.000817914
0.000802813
0.000787618
0.000772405
0.000757233
0.000742144
0.000727175
0.000712351
0.000697696
0.000683225
0.000668948
0.000654861
0.000640952
0.000627202
0.000613594
0.000600127
0.000586834
0.000573786
0.000561091
0.000548855
0.000537119
0.000525781
0.000514517
0.000502774
0.00048986
0.000475207
0.000458763
0.000441375
0.000424975
0.000412388
0.000404086
0.000896776
0.000895061
0.000889433
0.000879024
0.000866409
0.000852611
0.000838145
0.000823289
0.00080821
0.00079302
0.000777796
0.000762599
0.000747474
0.000732459
0.000717582
0.000702869
0.000688337
0.000673996
0.000659846
0.000645873
0.000632058
0.000618384
0.000604848
0.00059148
0.000578355
0.000565581
0.000553269
0.000541467
0.000530073
0.000518767
0.000506984
0.00049402
0.00047929
0.000462727
0.000445185
0.000428626
0.000415917
0.000407549
0.000889668
0.000888222
0.000881666
0.000870489
0.000857245
0.000843023
0.000828296
0.000813292
0.00079814
0.000782928
0.000767719
0.000752566
0.000737508
0.000722581
0.00070781
0.000693217
0.000678814
0.000664599
0.000650563
0.000636684
0.000622943
0.000609338
0.000595897
0.000582695
0.000569843
0.000557456
0.000545588
0.000534144
0.000522799
0.000510983
0.000497974
0.000483169
0.000466491
0.000448798
0.000432079
0.000419247
0.00041081
0.000887065
0.000885495
0.000880961
0.000871741
0.000859983
0.000846701
0.00083252
0.000817819
0.00080283
0.000787696
0.000772515
0.000757356
0.00074227
0.0007273
0.000712478
0.000697827
0.000683363
0.000669088
0.00065499
0.000641049
0.000627244
0.000613572
0.00060006
0.000586782
0.000573854
0.000561395
0.000549465
0.000537972
0.000526593
0.000514747
0.000501699
0.000486826
0.000470038
0.0004522
0.000435326
0.000422373
0.000413868
0.000880793
0.000879113
0.000872918
0.000862377
0.00084978
0.000836093
0.000821756
0.000807014
0.00079203
0.000776925
0.000761791
0.000746696
0.000731695
0.000716829
0.000702127
0.000687608
0.000673276
0.000659121
0.000645122
0.000631259
0.000617523
0.000603944
0.000590595
0.000577595
0.000565067
0.000553078
0.00054154
0.00053013
0.000518259
0.000505176
0.00049024
0.00047335
0.000455374
0.000438352
0.000425284
0.000416712
0.000878445
0.000876157
0.000871606
0.000862842
0.000851695
0.000838969
0.000825205
0.000810784
0.00079597
0.000780947
0.000765842
0.000750745
0.000735722
0.000720821
0.000706077
0.000691511
0.00067713
0.000662925
0.000648875
0.000634958
0.000621166
0.000607526
0.000594111
0.000581043
0.000568452
0.000556408
0.000544829
0.000533392
0.0005215
0.000508387
0.000493395
0.00047641
0.000458304
0.000441143
0.000427967
0.000419333
0.000869962
0.000868802
0.000863861
0.000854143
0.000842036
0.000828557
0.000814277
0.000799538
0.000784556
0.000769468
0.000754372
0.000739337
0.000724413
0.000709638
0.000695037
0.000680617
0.000666372
0.00065228
0.000638319
0.000624478
0.000610784
0.000597311
0.000584182
0.000571533
0.00055944
0.000547825
0.000536364
0.000524456
0.000511318
0.000496276
0.000479204
0.000460979
0.000443689
0.000430411
0.000421719
0.000863114
0.00086207
0.000855805
0.000844761
0.000831538
0.000817308
0.000802592
0.000787639
0.000772582
0.000757508
0.000742484
0.00072756
0.000712775
0.000698156
0.000683713
0.00066944
0.000655318
0.000641322
0.000627442
0.000613702
0.000600179
0.000586997
0.000574297
0.00056216
0.000550514
0.000539034
0.000527112
0.000513954
0.000498868
0.000481718
0.000463385
0.000445977
0.000432607
0.000423862
0.000862412
0.000860801
0.000855197
0.000845138
0.000832742
0.000819083
0.000804732
0.000790005
0.000775089
0.000760106
0.000745136
0.000730243
0.000715472
0.000700855
0.000686405
0.000672119
0.000657977
0.000643957
0.000630047
0.000616271
0.000602706
0.000589479
0.000576734
0.000564559
0.000552886
0.000541391
0.00052946
0.000516285
0.000501161
0.000483943
0.000465513
0.000448
0.000434547
0.000425754
0.000863854
0.000861022
0.00085503
0.000845172
0.000833239
0.000820075
0.000806141
0.000791727
0.000777031
0.000762194
0.00074732
0.000732486
0.000717749
0.000703149
0.000688704
0.000674414
0.000660262
0.000646226
0.000632293
0.000618488
0.000604888
0.000591622
0.000578839
0.000566633
0.000554937
0.000543429
0.00053149
0.000518302
0.000503147
0.000485869
0.000467355
0.00044975
0.000436224
0.000427389
0.000864174
0.000860591
0.000854862
0.00084535
0.00083383
0.000821016
0.000807357
0.000793155
0.000778622
0.000763909
0.000749124
0.000734351
0.000719653
0.000705073
0.000690637
0.000676346
0.000662187
0.000648137
0.000634185
0.000620355
0.000606725
0.000593426
0.000580611
0.000568376
0.000556661
0.000545143
0.000533198
0.00052
0.000504818
0.00048749
0.000468904
0.000451221
0.000437632
0.000428762
0.000856007
0.000853134
0.000846115
0.000835092
0.000822286
0.000808613
0.000794453
0.000779993
0.000765355
0.000750632
0.000735902
0.000721231
0.000706664
0.00069223
0.000677934
0.000663764
0.000649699
0.000635728
0.000621875
0.000608218
0.00059489
0.000582047
0.000569788
0.000558056
0.000546529
0.000534578
0.000521371
0.000506168
0.000488799
0.000470154
0.000452407
0.000438767
0.000429867
0.000852718
0.000849598
0.000843876
0.000834143
0.000822328
0.000809252
0.00079541
0.000781112
0.000766556
0.000751876
0.000737168
0.000722503
0.000707934
0.000693491
0.000679182
0.000664996
0.000650913
0.000636922
0.000623046
0.000609364
0.000596011
0.000583143
0.000570863
0.000559117
0.000547581
0.000535626
0.000522412
0.000507192
0.000489791
0.000471101
0.000453304
0.000439625
0.000430702
0.000842815
0.000840182
0.000833365
0.000822482
0.000809741
0.000796079
0.000781907
0.000767436
0.000752804
0.000738114
0.000723448
0.000708866
0.000694405
0.000680076
0.00066587
0.000651766
0.000637754
0.000623857
0.000610154
0.000596779
0.000583892
0.000571596
0.000559838
0.000548295
0.000536336
0.000523116
0.000507883
0.00049046
0.000471739
0.000453908
0.000440202
0.000431263
0.000838153
0.000835412
0.000830046
0.000820648
0.00080906
0.000796094
0.000782273
0.000767953
0.00075337
0.000738686
0.000724009
0.00070941
0.000694929
0.000680581
0.000666356
0.000652235
0.000638206
0.000624293
0.000610575
0.000597186
0.000584285
0.000571978
0.000560212
0.000548664
0.000536701
0.000523477
0.000508238
0.000490803
0.000472064
0.000454215
0.000440494
0.000431548
0.000828248
0.00082625
0.000819795
0.00080901
0.00079618
0.000782354
0.000768024
0.000753444
0.000738767
0.000724094
0.000709494
0.000695009
0.000680655
0.000666422
0.000652293
0.000638257
0.000624337
0.000610612
0.000597217
0.000584312
0.000572001
0.000560232
0.000548682
0.000536718
0.000523493
0.000508251
0.000490815
0.000472074
0.000454223
0.000440501
0.000431553
0.00082509
0.000823118
0.00081734
0.000807287
0.000794993
0.000781499
0.00076736
0.000752891
0.000738279
0.000723647
0.000709075
0.000694609
0.000680267
0.000666043
0.000651921
0.00063789
0.000623975
0.000610255
0.000596866
0.000583966
0.00057166
0.000559894
0.000548346
0.000536382
0.000523159
0.000507922
0.000490494
0.000471767
0.00045393
0.00044022
0.000431279
0.000823579
0.00082116
0.000815292
0.000805379
0.000793309
0.000780035
0.000766079
0.000751747
0.000737235
0.000722676
0.000708156
0.00069373
0.000679418
0.000665219
0.000651117
0.000637104
0.000623206
0.000609504
0.000596132
0.000583247
0.000570955
0.000559198
0.000547655
0.000535695
0.000522476
0.000507251
0.000489843
0.000471144
0.000453339
0.000439653
0.000430726
0.000822457
0.000819674
0.000813574
0.000803568
0.000791504
0.000778292
0.00076442
0.000750175
0.000735742
0.00072125
0.000706787
0.000692407
0.000678135
0.000663969
0.000649897
0.000635912
0.000622041
0.000608366
0.00059502
0.000582161
0.000569889
0.000558148
0.000546614
0.00053466
0.000521449
0.000506241
0.000488864
0.000470208
0.00045245
0.000438801
0.000429896
0.000821149
0.00081814
0.000811844
0.000801707
0.000789575
0.000776346
0.000762488
0.000748277
0.000733888
0.000719442
0.000705024
0.000690687
0.000676454
0.000662324
0.000648285
0.000634333
0.000620496
0.000606855
0.000593544
0.000580716
0.000568472
0.000556751
0.00054523
0.000533283
0.000520084
0.000504898
0.000487562
0.000468964
0.000451268
0.00043767
0.000428793
0.000819445
0.000816301
0.000809868
0.000799623
0.00078742
0.000774151
0.000760281
0.000746076
0.000731707
0.000717291
0.000702906
0.000688603
0.000674404
0.000660309
0.000646304
0.000632387
0.000618587
0.000604986
0.000591716
0.000578927
0.000566716
0.000555018
0.000543511
0.000531574
0.000518388
0.000503231
0.000485946
0.000467419
0.000449801
0.000436263
0.000427422
0.000817287
0.000814058
0.00080753
0.000797208
0.00078495
0.000771647
0.000757762
0.000743558
0.000729201
0.000714805
0.000700446
0.000686173
0.000672005
0.000657942
0.000643972
0.000630092
0.000616332
0.000602775
0.000589549
0.000576804
0.00056463
0.000552959
0.000541469
0.000529543
0.000516373
0.000501249
0.000484023
0.000465581
0.000448054
0.000434588
0.000425788
0.000814683
0.000811391
0.00080479
0.000794413
0.000782117
0.000768794
0.000754902
0.000740701
0.000726358
0.000711982
0.000697648
0.000683404
0.000669267
0.000655236
0.000641301
0.00062746
0.000613743
0.000600233
0.000587057
0.000574359
0.000562225
0.000550584
0.000539112
0.000527199
0.000514047
0.000498962
0.000481805
0.000463458
0.000446035
0.000432651
0.000423898
0.000811659
0.000808309
0.000801645
0.000791226
0.000778907
0.000765575
0.000751685
0.000737496
0.000723171
0.000708819
0.000694513
0.000680299
0.000666195
0.000652199
0.000638301
0.000624501
0.000610831
0.000597371
0.000584249
0.000571603
0.000559513
0.000547904
0.000536452
0.000524553
0.000511422
0.00049638
0.000479301
0.00046106
0.000443753
0.00043046
0.00042176
0.000808245
0.000804837
0.000798114
0.000787659
0.000775325
0.000761992
0.000748112
0.000733942
0.000719641
0.000705318
0.000691045
0.000676865
0.000662797
0.000648838
0.00063498
0.000621225
0.000607605
0.0005942
0.000581135
0.000568544
0.000556502
0.000544927
0.000533498
0.000521615
0.000508509
0.000493516
0.000476521
0.000458397
0.000441216
0.000428023
0.000419379
0.000804472
0.000801002
0.000794218
0.000783732
0.000771388
0.00075806
0.000744196
0.000730049
0.000715778
0.000701489
0.000687252
0.00067311
0.000659081
0.000645163
0.000631349
0.000617641
0.000604074
0.000590729
0.000577725
0.000565193
0.000553201
0.000541665
0.00053026
0.000518396
0.000505318
0.000490379
0.000473476
0.000455479
0.000438434
0.000425347
0.000416764
0.000800367
0.00079683
0.000789986
0.000779469
0.000767117
0.000753797
0.000739953