/*--------------------------------*- C++ -*----------------------------------*\
  =========                 |
  \\      /  F ield         | OpenFOAM: The Open Source CFD Toolbox
   \\    /   O peration     | Website:  https://openfoam.org
    \\  /    A nd           | Version:  7
     \\/     M anipulation  |
\*---------------------------------------------------------------------------*/
FoamFile
{
    version     2.0;
    format      ascii;
    class       volScalarField;
    location    "84000";
    object      p;
}
// * * * * * * * * * * * * * * * * * * * * * * * * * * * * * * * * * * * * * //

dimensions      [0 2 -2 0 0 0 0];

internalField   nonuniform List<scalar> 
4783
(
-3.38091e-17
-3.39757e-17
-3.40413e-17
-3.43162e-17
-3.41193e-17
-3.42898e-17
-3.40149e-17
-3.38824e-17
-3.37535e-17
-3.41406e-17
-3.40404e-17
-3.40054e-17
-3.39795e-17
-3.38802e-17
-3.37045e-17
-3.38151e-17
-3.42638e-17
-3.42596e-17
-3.4121e-17
-3.42849e-17
-3.4315e-17
-3.39559e-17
-3.3931e-17
-3.41919e-17
-3.38659e-17
-3.39913e-17
-3.39523e-17
-3.42034e-17
-3.4066e-17
-3.40504e-17
-3.40123e-17
-3.39645e-17
-3.39617e-17
-3.40843e-17
-3.40876e-17
-3.39863e-17
-3.39379e-17
-3.39715e-17
-3.42008e-17
-3.38484e-17
-3.37328e-17
-3.38186e-17
-3.40365e-17
-3.40678e-17
-3.36567e-17
-3.36149e-17
-3.38494e-17
-3.38796e-17
-3.37099e-17
-3.39132e-17
-3.39773e-17
-3.41464e-17
-3.43203e-17
-3.42019e-17
-3.39485e-17
-3.39025e-17
-3.42225e-17
-3.40659e-17
-3.39814e-17
-3.3804e-17
-3.40046e-17
-3.39434e-17
-3.37386e-17
-3.39925e-17
-3.4055e-17
-3.40993e-17
-3.39464e-17
-3.38847e-17
-3.37114e-17
-3.38153e-17
-3.40628e-17
-3.37606e-17
-3.39298e-17
-3.39945e-17
-3.39354e-17
-3.37454e-17
-3.37796e-17
-3.41667e-17
-3.41267e-17
-3.42876e-17
-3.40775e-17
-3.39825e-17
-3.40581e-17
-3.40272e-17
-3.38144e-17
-3.41763e-17
-3.41852e-17
-3.4107e-17
-3.39515e-17
-3.37912e-17
-3.41883e-17
-3.40595e-17
-3.40671e-17
-3.40059e-17
-3.3969e-17
-3.3872e-17
-3.35169e-17
-3.38116e-17
-3.39907e-17
-3.40802e-17
-3.39724e-17
-3.37798e-17
-3.39639e-17
-3.38942e-17
-3.41825e-17
-3.40999e-17
-3.40582e-17
-3.41603e-17
-3.45467e-17
-3.42788e-17
-3.39604e-17
-3.39433e-17
-3.40379e-17
-3.40516e-17
-3.4254e-17
-3.41101e-17
-3.39618e-17
-3.40113e-17
-3.39386e-17
-3.37207e-17
-3.40114e-17
-3.40856e-17
-3.38826e-17
-3.33677e-17
-3.37626e-17
-3.39602e-17
-3.40153e-17
-3.40772e-17
-3.4229e-17
-3.40965e-17
-3.41479e-17
-3.40709e-17
-3.37829e-17
-3.39222e-17
-3.39471e-17
-3.38512e-17
-3.40539e-17
-3.41425e-17
-3.37495e-17
-3.39629e-17
-3.42437e-17
-3.40375e-17
-3.40864e-17
-3.40692e-17
-3.37142e-17
-3.3385e-17
-3.39308e-17
-3.40939e-17
-3.39867e-17
-3.39935e-17
-3.39837e-17
-3.40001e-17
-3.41726e-17
-3.4215e-17
-3.40126e-17
-3.40111e-17
-3.4084e-17
-3.41966e-17
-3.39525e-17
-3.38219e-17
-3.39318e-17
-3.37509e-17
-3.38169e-17
-3.3936e-17
-3.41312e-17
-3.42322e-17
-3.3743e-17
-3.38911e-17
-3.42822e-17
-3.44653e-17
-3.38973e-17
-3.3954e-17
-3.37874e-17
-3.37381e-17
-3.37849e-17
-3.38605e-17
-3.42128e-17
-3.43313e-17
-3.42792e-17
-3.40459e-17
-3.37891e-17
-3.41909e-17
-3.4337e-17
-3.42198e-17
-3.40953e-17
-3.41246e-17
-3.38325e-17
-3.40237e-17
-3.41996e-17
-3.40455e-17
-3.39222e-17
-3.41163e-17
-3.40125e-17
-3.40372e-17
-3.40108e-17
-3.38786e-17
-3.38546e-17
-3.39754e-17
-3.40953e-17
-3.45533e-17
-3.39386e-17
-3.39455e-17
-3.39876e-17
-3.41231e-17
-3.38468e-17
-3.42096e-17
-3.42654e-17
-3.37946e-17
-3.3404e-17
-3.37549e-17
-3.40722e-17
-3.40492e-17
-3.39796e-17
-3.40881e-17
-3.41501e-17
-3.40687e-17
-3.41216e-17
-3.42294e-17
-3.40683e-17
-3.40686e-17
-3.40007e-17
-3.40397e-17
-3.3983e-17
-3.4018e-17
-3.40063e-17
-3.38506e-17
-3.34679e-17
-3.39953e-17
-3.40671e-17
-3.39734e-17
-3.37225e-17
-3.39583e-17
-3.40833e-17
-3.40856e-17
-3.38801e-17
-3.42621e-17
-3.46171e-17
-3.41091e-17
-3.40502e-17
-3.40732e-17
-3.39283e-17
-3.4283e-17
-3.41561e-17
-3.3831e-17
-3.39202e-17
-3.39766e-17
-3.42548e-17
-3.45228e-17
-3.4169e-17
-3.39706e-17
-3.40232e-17
-3.40819e-17
-3.39999e-17
-3.41042e-17
-3.43227e-17
-3.42954e-17
-3.40217e-17
-3.40138e-17
-3.45487e-17
-3.39235e-17
-3.39233e-17
-3.40101e-17
-3.38809e-17
-3.4099e-17
-3.38239e-17
-3.40982e-17
-3.40447e-17
-3.36131e-17
-3.40464e-17
-3.41277e-17
-3.40718e-17
-3.37789e-17
-3.39455e-17
-3.40265e-17
-3.40743e-17
-3.42494e-17
-3.44231e-17
-3.41706e-17
-3.40335e-17
-3.40537e-17
-3.42082e-17
-3.39722e-17
-3.41959e-17
-3.4028e-17
-3.4016e-17
-3.40026e-17
-3.39899e-17
-3.40318e-17
-3.42725e-17
-3.41935e-17
-3.41656e-17
-3.39606e-17
-3.40013e-17
-3.37507e-17
-3.38056e-17
-3.38529e-17
-3.40008e-17
-3.41183e-17
-3.43168e-17
-3.40636e-17
-3.3886e-17
-3.409e-17
-3.42447e-17
-3.40632e-17
-3.41279e-17
-3.40896e-17
-3.41451e-17
-3.42835e-17
-3.42152e-17
-3.40121e-17
-3.3935e-17
-3.40957e-17
-3.40214e-17
-3.39553e-17
-3.38221e-17
-3.404e-17
-3.41185e-17
-3.40267e-17
-3.39623e-17
-3.40543e-17
-3.37932e-17
-3.3875e-17
-3.40349e-17
-3.41287e-17
-3.40237e-17
-3.39246e-17
-3.41222e-17
-3.40864e-17
-3.40652e-17
-3.40468e-17
-3.43686e-17
-3.41502e-17
-3.3769e-17
-3.34989e-17
-3.35355e-17
-3.40035e-17
-3.38868e-17
-3.40963e-17
-3.41912e-17
-3.39757e-17
-3.34909e-17
-3.38268e-17
-3.41559e-17
-3.42943e-17
-3.42352e-17
-3.39949e-17
-3.42527e-17
-3.40288e-17
-3.4004e-17
-3.39179e-17
-3.43066e-17
-3.38688e-17
-3.39303e-17
-3.40753e-17
-3.38071e-17
-3.38936e-17
-3.40973e-17
-3.39628e-17
-3.3873e-17
-3.371e-17
-3.3997e-17
-3.43786e-17
-3.41674e-17
-3.41294e-17
-3.41374e-17
-3.40264e-17
-3.38456e-17
-3.42077e-17
-3.41056e-17
-3.41402e-17
-3.44938e-17
-3.37146e-17
-3.41906e-17
-3.41747e-17
-3.42865e-17
-3.41642e-17
-3.38075e-17
-3.39222e-17
-3.42002e-17
-3.40592e-17
-3.39596e-17
-3.37357e-17
-3.4031e-17
-3.40997e-17
-3.42146e-17
-3.39834e-17
-3.39014e-17
-3.42298e-17
-3.43728e-17
-3.41164e-17
-3.4065e-17
-3.39001e-17
-3.40968e-17
-3.39863e-17
-3.40439e-17
-3.40248e-17
-3.38309e-17
-3.39163e-17
-3.35455e-17
-3.43552e-17
-3.40943e-17
-3.38164e-17
-3.41929e-17
-3.40787e-17
-3.40836e-17
-3.41059e-17
-3.35982e-17
-3.36286e-17
-3.35612e-17
-3.43175e-17
-3.40609e-17
-3.40581e-17
-3.38629e-17
-3.40274e-17
-3.42376e-17
-3.40582e-17
-3.40578e-17
-3.41785e-17
-3.40345e-17
-3.40462e-17
-3.40413e-17
-3.39179e-17
-3.41653e-17
-3.42801e-17
-3.42378e-17
-3.40684e-17
-3.38e-17
-3.41245e-17
-3.3841e-17
-3.40683e-17
-3.44286e-17
-3.41353e-17
-3.38378e-17
-3.42171e-17
-3.40342e-17
-3.37914e-17
-3.39032e-17
-3.40085e-17
-3.40518e-17
-3.39375e-17
-3.39818e-17
-3.3728e-17
-3.40045e-17
-3.42752e-17
-3.40629e-17
-3.38068e-17
-3.41358e-17
-3.41439e-17
-3.42041e-17
-3.39795e-17
-3.41356e-17
-3.40461e-17
-3.4014e-17
-3.41479e-17
-3.4073e-17
-3.40086e-17
-3.41219e-17
-3.40238e-17
-3.38309e-17
-3.42236e-17
-3.38484e-17
-3.36629e-17
-3.44822e-17
-3.40316e-17
-3.39324e-17
-3.40489e-17
-3.40487e-17
-3.40527e-17
-3.40753e-17
-3.40494e-17
-3.40808e-17
-3.40701e-17
-3.40459e-17
-3.41184e-17
-3.40834e-17
-3.39915e-17
-3.41385e-17
-3.40392e-17
-3.40479e-17
-3.41188e-17
-3.4082e-17
-3.40613e-17
-3.40879e-17
-3.40912e-17
-3.4064e-17
-3.40889e-17
-3.40961e-17
-3.40737e-17
-3.40968e-17
-3.40862e-17
-3.40693e-17
-3.4097e-17
-3.39691e-17
-3.43142e-17
-3.40361e-17
-3.40395e-17
-3.40678e-17
-3.41467e-17
-3.39367e-17
-3.37045e-17
-3.38223e-17
-3.39453e-17
-3.38404e-17
-3.41304e-17
-3.38474e-17
-3.38105e-17
-3.4014e-17
-3.4067e-17
-3.39416e-17
-3.38207e-17
-3.40121e-17
-3.40187e-17
-3.37856e-17
-3.39355e-17
-3.38646e-17
-3.35958e-17
-3.41174e-17
-3.43575e-17
-3.43365e-17
-3.41054e-17
-3.40617e-17
-3.40808e-17
-3.42733e-17
-3.44607e-17
-3.4244e-17
-3.41974e-17
-3.41125e-17
-3.40548e-17
-3.40352e-17
-3.40568e-17
-3.40882e-17
-3.40872e-17
-3.40808e-17
-3.39478e-17
-3.37195e-17
-3.43204e-17
-3.40823e-17
-3.42055e-17
-3.4025e-17
-3.40807e-17
-3.39512e-17
-3.35707e-17
-3.33432e-17
-3.38845e-17
-3.41064e-17
-3.38446e-17
-3.39487e-17
-3.401e-17
-3.40167e-17
-3.4083e-17
-3.40692e-17
-3.40395e-17
-3.42211e-17
-3.43222e-17
-3.40948e-17
-3.40621e-17
-3.4049e-17
-3.39701e-17
-3.41028e-17
-3.41033e-17
-3.39943e-17
-3.40042e-17
-3.39723e-17
-3.39743e-17
-3.38684e-17
-3.35952e-17
-3.40506e-17
-3.41029e-17
-3.39993e-17
-3.40839e-17
-3.41688e-17
-3.41049e-17
-3.40893e-17
-3.40833e-17
-3.40923e-17
-3.39181e-17
-3.41149e-17
-3.40788e-17
-3.42419e-17
-3.37849e-17
-3.39289e-17
-3.3996e-17
-3.38931e-17
-3.37295e-17
-3.40385e-17
-3.40171e-17
-3.40952e-17
-3.39898e-17
-3.37908e-17
-3.40767e-17
-3.36342e-17
-3.41744e-17
-3.42586e-17
-3.41572e-17
-3.40743e-17
-3.40753e-17
-3.41131e-17
-3.40965e-17
-3.43258e-17
-3.42714e-17
-3.40721e-17
-3.38826e-17
-3.40106e-17
-3.41193e-17
-3.41103e-17
-3.41303e-17
-3.42963e-17
-3.41151e-17
-3.40864e-17
-3.40854e-17
-3.41091e-17
-3.41806e-17
-3.41279e-17
-3.41179e-17
-3.41169e-17
-3.4108e-17
-3.41122e-17
-3.36495e-17
-3.3973e-17
-3.40651e-17
-3.42524e-17
-3.39274e-17
-3.39818e-17
-3.41827e-17
-3.37337e-17
-3.39305e-17
-3.40313e-17
-3.39937e-17
-3.40345e-17
-3.44326e-17
-3.38309e-17
-3.39186e-17
-3.39016e-17
-3.37875e-17
-3.39008e-17
-3.43893e-17
-3.41306e-17
-3.40473e-17
-3.42208e-17
-3.4077e-17
-3.40703e-17
-3.40966e-17
-3.42725e-17
-3.40875e-17
-3.39317e-17
-3.41998e-17
-3.41105e-17
-3.41798e-17
-3.42789e-17
-3.43467e-17
-3.40274e-17
-3.3917e-17
-3.3891e-17
-3.39354e-17
-3.39123e-17
-3.40571e-17
-3.41007e-17
-3.41074e-17
-3.4089e-17
-3.37781e-17
-3.40474e-17
-3.42402e-17
-3.38363e-17
-3.38728e-17
-3.37563e-17
-3.39264e-17
-3.38713e-17
-3.41063e-17
-3.40137e-17
-3.41238e-17
-3.37763e-17
-3.4051e-17
-3.38207e-17
-3.39641e-17
-3.42472e-17
-3.42048e-17
-3.39964e-17
-3.40837e-17
-3.40906e-17
-3.40456e-17
-3.40914e-17
-3.4225e-17
-3.42834e-17
-3.40359e-17
-3.39529e-17
-3.41369e-17
-3.41627e-17
-3.41247e-17
-3.42541e-17
-3.42467e-17
-3.43021e-17
-3.41305e-17
-3.3869e-17
-3.4004e-17
-3.3991e-17
-3.40992e-17
-3.42113e-17
-3.41426e-17
-3.41345e-17
-3.41226e-17
-3.41086e-17
-3.35455e-17
-3.35997e-17
-3.39196e-17
-3.41198e-17
-3.38916e-17
-3.3847e-17
-3.38502e-17
-3.40716e-17
-3.36991e-17
-3.37947e-17
-3.41296e-17
-3.34751e-17
-3.39283e-17
-3.42031e-17
-3.41211e-17
-3.45235e-17
-3.41081e-17
-3.3909e-17
-3.39753e-17
-3.40975e-17
-3.40307e-17
-3.39072e-17
-3.39663e-17
-3.40579e-17
-3.42554e-17
-3.41827e-17
-3.40898e-17
-3.40083e-17
-3.39934e-17
-3.38665e-17
-3.41326e-17
-3.40844e-17
-3.38413e-17
-3.38616e-17
-3.39819e-17
-3.41013e-17
-3.40888e-17
-3.39797e-17
-3.40334e-17
-3.40792e-17
-3.41136e-17
-3.41006e-17
-3.38651e-17
-3.37857e-17
-3.38649e-17
-3.39461e-17
-3.39099e-17
-3.39679e-17
-3.41291e-17
-3.40069e-17
-3.36544e-17
-3.4131e-17
-3.44297e-17
-3.3827e-17
-3.3954e-17
-3.4076e-17
-3.43044e-17
-3.45276e-17
-3.40207e-17
-3.35602e-17
-3.38431e-17
-3.43151e-17
-3.47233e-17
-3.41278e-17
-3.38344e-17
-3.41147e-17
-3.38877e-17
-3.37737e-17
-3.3918e-17
-3.38758e-17
-3.35737e-17
-3.3702e-17
-3.41311e-17
-3.43231e-17
-3.40373e-17
-3.42631e-17
-3.41458e-17
-3.41342e-17
-3.41152e-17
-3.41408e-17
-3.41656e-17
-3.41385e-17
-3.41263e-17
-3.41372e-17
-3.41403e-17
-3.38339e-17
-3.35895e-17
-3.389e-17
-3.40132e-17
-3.38877e-17
-3.39499e-17
-3.42068e-17
-3.37996e-17
-3.39795e-17
-3.40404e-17
-3.40573e-17
-3.42634e-17
-3.43038e-17
-3.4038e-17
-3.40479e-17
-3.42859e-17
-3.43316e-17
-3.40958e-17
-3.41936e-17
-3.45124e-17
-3.40802e-17
-3.37728e-17
-3.39257e-17
-3.39044e-17
-3.37368e-17
-3.39473e-17
-3.3998e-17
-3.39894e-17
-3.3882e-17
-3.39945e-17
-3.40322e-17
-3.39701e-17
-3.38863e-17
-3.39955e-17
-3.40669e-17
-3.40884e-17
-3.41024e-17
-3.41534e-17
-3.40655e-17
-3.40754e-17
-3.40849e-17
-3.41195e-17
-3.3865e-17
-3.35131e-17
-3.39656e-17
-3.43745e-17
-3.39679e-17
-3.37162e-17
-3.41584e-17
-3.39104e-17
-3.39196e-17
-3.3982e-17
-3.40864e-17
-3.40802e-17
-3.42184e-17
-3.39188e-17
-3.41509e-17
-3.41635e-17
-3.38863e-17
-3.42071e-17
-3.45761e-17
-3.45008e-17
-3.41374e-17
-3.41131e-17
-3.37371e-17
-3.35629e-17
-3.39087e-17
-3.39672e-17
-3.38599e-17
-3.39735e-17
-3.40034e-17
-3.39646e-17
-3.3858e-17
-3.38529e-17
-3.39755e-17
-3.39955e-17
-3.42759e-17
-3.41242e-17
-3.4097e-17
-3.42164e-17
-3.41327e-17
-3.4142e-17
-3.41176e-17
-3.37576e-17
-3.38022e-17
-3.36307e-17
-3.41431e-17
-3.40877e-17
-3.40518e-17
-3.39177e-17
-3.4106e-17
-3.38467e-17
-3.42012e-17
-3.40337e-17
-3.39515e-17
-3.39953e-17
-3.41288e-17
-3.39113e-17
-3.39375e-17
-3.3977e-17
-3.39451e-17
-3.40241e-17
-3.38237e-17
-3.39879e-17
-3.39944e-17
-3.4e-17
-3.38693e-17
-3.40121e-17
-3.3997e-17
-3.40276e-17
-3.40334e-17
-3.40572e-17
-3.40821e-17
-3.40396e-17
-3.40623e-17
-3.41001e-17
-3.40786e-17
-3.40858e-17
-3.41144e-17
-3.42559e-17
-3.45199e-17
-3.4339e-17
-3.42288e-17
-3.41267e-17
-3.40816e-17
-3.38763e-17
-3.39159e-17
-3.39362e-17
-3.41255e-17
-3.39244e-17
-3.39198e-17
-3.39003e-17
-3.38488e-17
-3.39845e-17
-3.45179e-17
-3.42585e-17
-3.4003e-17
-3.39204e-17
-3.39297e-17
-3.4133e-17
-3.38769e-17
-3.41121e-17
-3.38204e-17
-3.37576e-17
-3.39153e-17
-3.39804e-17
-3.39358e-17
-3.42019e-17
-3.42156e-17
-3.43795e-17
-3.39566e-17
-3.38569e-17
-3.39988e-17
-3.40394e-17
-3.40146e-17
-3.38913e-17
-3.41395e-17
-3.41403e-17
-3.41847e-17
-3.41162e-17
-3.40065e-17
-3.42449e-17
-3.4309e-17
-3.41544e-17
-3.38158e-17
-3.39422e-17
-3.40886e-17
-3.39192e-17
-3.3924e-17
-3.39571e-17
-3.37715e-17
-3.37287e-17
-3.38552e-17
-3.38884e-17
-3.37501e-17
-3.39291e-17
-3.41991e-17
-3.40426e-17
-3.39084e-17
-3.3793e-17
-3.39271e-17
-3.40168e-17
-3.40851e-17
-3.41614e-17
-3.39002e-17
-3.39462e-17
-3.3826e-17
-3.40058e-17
-3.40793e-17
-3.40842e-17
-3.40806e-17
-3.4105e-17
-3.40679e-17
-3.40187e-17
-3.39373e-17
-3.40565e-17
-3.41297e-17
-3.42597e-17
-3.42021e-17
-3.4192e-17
-3.43879e-17
-3.40145e-17
-3.40081e-17
-3.40123e-17
-3.39332e-17
-3.43317e-17
-3.44419e-17
-3.42323e-17
-3.41823e-17
-3.41414e-17
-3.39181e-17
-3.38566e-17
-3.37435e-17
-3.38181e-17
-3.39182e-17
-3.4027e-17
-3.41767e-17
-3.406e-17
-3.37691e-17
-3.39265e-17
-3.39333e-17
-3.37326e-17
-3.36368e-17
-3.37537e-17
-3.42681e-17
-3.45875e-17
-3.43802e-17
-3.42986e-17
-3.41944e-17
-3.40286e-17
-3.4114e-17
-3.42686e-17
-3.41347e-17
-3.4069e-17
-3.40256e-17
-3.38618e-17
-3.40614e-17
-3.4253e-17
-3.40897e-17
-3.38698e-17
-3.39696e-17
-3.39275e-17
-3.40554e-17
-3.40885e-17
-3.4036e-17
-3.39583e-17
-3.40355e-17
-3.40754e-17
-3.41289e-17
-3.42528e-17
-3.42429e-17
-3.4136e-17
-3.40897e-17
-3.41015e-17
-3.39558e-17
-3.38922e-17
-3.3829e-17
-3.36793e-17
-3.41417e-17
-3.45163e-17
-3.45122e-17
-3.40126e-17
-3.40176e-17
-3.39671e-17
-3.39265e-17
-3.37365e-17
-3.38982e-17
-3.40106e-17
-3.41956e-17
-3.42662e-17
-3.41387e-17
-3.41784e-17
-3.39859e-17
-3.36439e-17
-3.38222e-17
-3.36918e-17
-3.40185e-17
-3.41779e-17
-3.39205e-17
-3.39113e-17
-3.3781e-17
-3.41867e-17
-3.39788e-17
-3.40017e-17
-3.41853e-17
-3.43668e-17
-3.44315e-17
-3.42631e-17
-3.41775e-17
-3.41312e-17
-3.41317e-17
-3.41476e-17
-3.41195e-17
-3.40822e-17
-3.40597e-17
-3.41168e-17
-3.41512e-17
-3.41577e-17
-3.41319e-17
-3.39376e-17
-3.38914e-17
-3.38471e-17
-3.39513e-17
-3.40083e-17
-3.3947e-17
-3.36583e-17
-3.40574e-17
-3.40566e-17
-3.41561e-17
-3.40205e-17
-3.4034e-17
-3.4211e-17
-3.40616e-17
-3.39667e-17
-3.38146e-17
-3.38373e-17
-3.38723e-17
-3.39922e-17
-3.40418e-17
-3.40328e-17
-3.40409e-17
-3.38471e-17
-3.38737e-17
-3.39915e-17
-3.40843e-17
-3.41582e-17
-3.41905e-17
-3.37769e-17
-3.38441e-17
-3.35902e-17
-3.3601e-17
-3.39474e-17
-3.4066e-17
-3.41467e-17
-3.42558e-17
-3.45217e-17
-3.42586e-17
-3.41429e-17
-3.42514e-17
-3.42361e-17
-3.41713e-17
-3.41519e-17
-3.41209e-17
-3.40535e-17
-3.38889e-17
-3.40191e-17
-3.39024e-17
-3.39828e-17
-3.39028e-17
-3.37962e-17
-3.34369e-17
-3.38945e-17
-3.40743e-17
-3.3804e-17
-3.40183e-17
-3.40053e-17
-3.40126e-17
-3.40057e-17
-3.38436e-17
-3.39791e-17
-3.40642e-17
-3.40743e-17
-3.41092e-17
-3.41637e-17
-3.43294e-17
-3.43135e-17
-3.40714e-17
-3.39485e-17
-3.40309e-17
-3.40788e-17
-3.41005e-17
-3.41207e-17
-3.41185e-17
-3.41932e-17
-3.44511e-17
-3.39472e-17
-3.39352e-17
-3.37458e-17
-3.39536e-17
-3.4111e-17
-3.41088e-17
-3.40874e-17
-3.40469e-17
-3.39161e-17
-3.41882e-17
-3.41182e-17
-3.41193e-17
-3.41311e-17
-3.36581e-17
-3.36697e-17
-3.38415e-17
-3.38305e-17
-3.37827e-17
-3.39023e-17
-3.39419e-17
-3.40175e-17
-3.39714e-17
-3.39086e-17
-3.34551e-17
-3.35014e-17
-3.38726e-17
-3.38791e-17
-3.41336e-17
-3.39779e-17
-3.40696e-17
-3.42381e-17
-3.41579e-17
-3.42642e-17
-3.4162e-17
-3.4107e-17
-3.3932e-17
-3.39008e-17
-3.41529e-17
-3.40243e-17
-3.40835e-17
-3.40618e-17
-3.40203e-17
-3.39025e-17
-3.36697e-17
-3.39766e-17
-3.40411e-17
-3.40195e-17
-3.40098e-17
-3.40617e-17
-3.41028e-17
-3.42518e-17
-3.45092e-17
-3.42089e-17
-3.41115e-17
-3.40977e-17
-3.40255e-17
-3.40966e-17
-3.41391e-17
-3.41286e-17
-3.3589e-17
-3.40124e-17
-3.39246e-17
-3.38812e-17
-3.38189e-17
-3.38426e-17
-3.39834e-17
-3.41376e-17
-3.39899e-17
-3.39596e-17
-3.3947e-17
-3.41195e-17
-3.4165e-17
-3.40956e-17
-3.42747e-17
-3.42336e-17
-3.41012e-17
-3.40124e-17
-3.38896e-17
-3.40353e-17
-3.41177e-17
-3.42879e-17
-3.441e-17
-3.45286e-17
-3.43517e-17
-3.46507e-17
-3.46104e-17
-3.42376e-17
-3.41374e-17
-3.4189e-17
-3.4297e-17
-3.44196e-17
-3.41999e-17
-3.39347e-17
-3.36501e-17
-3.40658e-17
-3.44289e-17
-3.42784e-17
-3.44273e-17
-3.41662e-17
-3.406e-17
-3.40479e-17
-3.40149e-17
-3.40749e-17
-3.4105e-17
-3.4104e-17
-3.41044e-17
-3.38059e-17
-3.41626e-17
-3.41261e-17
-3.40964e-17
-3.38283e-17
-3.36388e-17
-3.39281e-17
-3.41719e-17
-3.39946e-17
-3.38987e-17
-3.39883e-17
-3.41248e-17
-3.38768e-17
-3.3975e-17
-3.40172e-17
-3.39122e-17
-3.39489e-17
-3.38164e-17
-3.37841e-17
-3.38047e-17
-3.38242e-17
-3.38557e-17
-3.40445e-17
-3.41315e-17
-3.41427e-17
-3.41467e-17
-3.41733e-17
-3.41592e-17
-3.41315e-17
-3.42767e-17
-3.47108e-17
-3.47861e-17
-3.4642e-17
-3.41399e-17
-3.38333e-17
-3.44619e-17
-3.46542e-17
-3.43376e-17
-3.43932e-17
-3.40877e-17
-3.37874e-17
-3.40613e-17
-3.42047e-17
-3.41088e-17
-3.4106e-17
-3.41091e-17
-3.4112e-17
-3.3705e-17
-3.40765e-17
-3.39384e-17
-3.38762e-17
-3.37428e-17
-3.38064e-17
-3.3899e-17
-3.41823e-17
-3.41269e-17
-3.37772e-17
-3.39597e-17
-3.4028e-17
-3.3974e-17
-3.39995e-17
-3.40729e-17
-3.41922e-17
-3.4064e-17
-3.40588e-17
-3.42445e-17
-3.42408e-17
-3.42033e-17
-3.39511e-17
-3.40516e-17
-3.41995e-17
-3.43367e-17
-3.37731e-17
-3.41115e-17
-3.44187e-17
-3.38438e-17
-3.40567e-17
-3.4209e-17
-3.37717e-17
-3.39621e-17
-3.40431e-17
-3.40308e-17
-3.40318e-17
-3.39216e-17
-3.36165e-17
-3.38853e-17
-3.40281e-17
-3.40383e-17
-3.40655e-17
-3.40616e-17
-3.403e-17
-3.40704e-17
-3.40698e-17
-3.40911e-17
-3.36872e-17
-3.39111e-17
-3.3883e-17
-3.37652e-17
-3.33467e-17
-3.37496e-17
-3.36965e-17
-3.41226e-17
-3.41855e-17
-3.39954e-17
-3.41257e-17
-3.42062e-17
-3.40661e-17
-3.40111e-17
-3.40378e-17
-3.40591e-17
-3.40026e-17
-3.39423e-17
-3.41503e-17
-3.41179e-17
-3.41034e-17
-3.40305e-17
-3.40845e-17
-3.41468e-17
-3.37123e-17
-3.36282e-17
-3.41055e-17
-3.4548e-17
-3.426e-17
-3.41251e-17
-3.40962e-17
-3.40289e-17
-3.41531e-17
-3.42776e-17
-3.41727e-17
-3.41566e-17
-3.42446e-17
-3.44975e-17
-3.42258e-17
-3.40948e-17
-3.39817e-17
-3.3873e-17
-3.41841e-17
-3.41343e-17
-3.41028e-17
-3.41041e-17
-3.4115e-17
-3.40609e-17
-3.39071e-17
-3.384e-17
-3.38347e-17
-3.35961e-17
-3.3845e-17
-3.37482e-17
-3.40791e-17
-3.40613e-17
-3.40888e-17
-3.38451e-17
-3.3982e-17
-3.4094e-17
-3.39001e-17
-3.40117e-17
-3.40751e-17
-3.3888e-17
-3.3926e-17
-3.39044e-17
-3.4149e-17
-3.43833e-17
-3.37044e-17
-3.37473e-17
-3.45196e-17
-3.47172e-17
-3.46161e-17
-3.42436e-17
-3.42486e-17
-3.43672e-17
-3.37625e-17
-3.41227e-17
-3.45087e-17
-3.41337e-17
-3.37427e-17
-3.38224e-17
-3.36598e-17
-3.39329e-17
-3.41834e-17
-3.44089e-17
-3.41088e-17
-3.40848e-17
-3.43181e-17
-3.43002e-17
-3.41734e-17
-3.40471e-17
-3.40588e-17
-3.4096e-17
-3.41075e-17
-3.39576e-17
-3.38325e-17
-3.37119e-17
-3.38322e-17
-3.38527e-17
-3.41425e-17
-3.41129e-17
-3.39682e-17
-3.41219e-17
-3.41601e-17
-3.39312e-17
-3.3788e-17
-3.37908e-17
-3.39252e-17
-3.40055e-17
-3.39509e-17
-3.3648e-17
-3.39608e-17
-3.40802e-17
-3.42596e-17
-3.41246e-17
-3.40454e-17
-3.41499e-17
-3.45311e-17
-3.43397e-17
-3.44053e-17
-3.41766e-17
-3.41047e-17
-3.39773e-17
-3.36927e-17
-3.39983e-17
-3.41458e-17
-3.42153e-17
-3.43426e-17
-3.39175e-17
-3.42664e-17
-3.39012e-17
-3.43112e-17
-3.41825e-17
-3.4073e-17
-3.40676e-17
-3.40936e-17
-3.41041e-17
-3.41053e-17
-3.41013e-17
-3.4103e-17
-3.41071e-17
-3.41096e-17
-3.39074e-17
-3.37123e-17
-3.3977e-17
-3.37231e-17
-3.37516e-17
-3.42033e-17
-3.41403e-17
-3.37599e-17
-3.39585e-17
-3.39973e-17
-3.38109e-17
-3.39332e-17
-3.39513e-17
-3.38542e-17
-3.41094e-17
-3.42292e-17
-3.40988e-17
-3.41954e-17
-3.40533e-17
-3.4003e-17
-3.37206e-17
-3.38672e-17
-3.38254e-17
-3.45651e-17
-3.42646e-17
-3.41258e-17
-3.40989e-17
-3.40848e-17
-3.4124e-17
-3.42383e-17
-3.45909e-17
-3.46175e-17
-3.42314e-17
-3.41376e-17
-3.42238e-17
-3.45995e-17
-3.44687e-17
-3.38274e-17
-3.39803e-17
-3.40847e-17
-3.40947e-17
-3.40651e-17
-3.4037e-17
-3.40863e-17
-3.41042e-17
-3.4105e-17
-3.41032e-17
-3.41098e-17
-3.41133e-17
-3.40796e-17
-3.39043e-17
-3.39395e-17
-3.39381e-17
-3.39749e-17
-3.4155e-17
-3.39647e-17
-3.37793e-17
-3.3963e-17
-3.41016e-17
-3.39118e-17
-3.40522e-17
-3.41755e-17
-3.41295e-17
-3.44925e-17
-3.43545e-17
-3.41069e-17
-3.39535e-17
-3.40335e-17
-3.40303e-17
-3.39216e-17
-3.36619e-17
-3.39389e-17
-3.41296e-17
-3.41046e-17
-3.40923e-17
-3.39758e-17
-3.36611e-17
-3.39503e-17
-3.4061e-17
-3.42377e-17
-3.45575e-17
-3.39833e-17
-3.43399e-17
-3.42008e-17
-3.4118e-17
-3.41158e-17
-3.40851e-17
-3.40985e-17
-3.41269e-17
-3.41414e-17
-3.41187e-17
-3.41044e-17
-3.4087e-17
-3.40591e-17
-3.40978e-17
-3.41127e-17
-3.41092e-17
-3.40991e-17
-3.41611e-17
-3.40625e-17
-3.39239e-17
-3.4166e-17
-3.4131e-17
-3.40188e-17
-3.39739e-17
-3.40886e-17
-3.39622e-17
-3.38414e-17
-3.40036e-17
-3.41891e-17
-3.40422e-17
-3.39716e-17
-3.39591e-17
-3.42015e-17
-3.40662e-17
-3.40769e-17
-3.41304e-17
-3.37443e-17
-3.38537e-17
-3.36834e-17
-3.41329e-17
-3.45189e-17
-3.43327e-17
-3.45988e-17
-3.45863e-17
-3.43135e-17
-3.44946e-17
-3.42299e-17
-3.41044e-17
-3.4199e-17
-3.44127e-17
-3.41858e-17
-3.40007e-17
-3.37073e-17
-3.39344e-17
-3.40533e-17
-3.4115e-17
-3.42633e-17
-3.44878e-17
-3.41618e-17
-3.39486e-17
-3.40714e-17
-3.41152e-17
-3.41283e-17
-3.414e-17
-3.41209e-17
-3.4118e-17
-3.41204e-17
-3.40195e-17
-3.43303e-17
-3.37466e-17
-3.41573e-17
-3.40857e-17
-3.40978e-17
-3.39724e-17
-3.39774e-17
-3.39601e-17
-3.39474e-17
-3.40054e-17
-3.39806e-17
-3.37987e-17
-3.37796e-17
-3.39273e-17
-3.38834e-17
-3.37422e-17
-3.39791e-17
-3.40629e-17
-3.39791e-17
-3.39143e-17
-3.40855e-17
-3.44892e-17
-3.43345e-17
-3.41211e-17
-3.40847e-17
-3.40995e-17
-3.40941e-17
-3.42252e-17
-3.44416e-17
-3.41779e-17
-3.40647e-17
-3.40827e-17
-3.41939e-17
-3.45473e-17
-3.45615e-17
-3.41279e-17
-3.37998e-17
-3.39976e-17
-3.41106e-17
-3.4154e-17
-3.4111e-17
-3.40706e-17
-3.41077e-17
-3.41249e-17
-3.41222e-17
-3.41185e-17
-3.41127e-17
-3.40989e-17
-3.41023e-17
-3.39452e-17
-3.38303e-17
-3.36591e-17
-3.40993e-17
-3.41524e-17
-3.39798e-17
-3.39906e-17
-3.39835e-17
-3.40047e-17
-3.39671e-17
-3.39501e-17
-3.38324e-17
-3.39284e-17
-3.38313e-17
-3.38679e-17
-3.40595e-17
-3.41954e-17
-3.39936e-17
-3.39648e-17
-3.38902e-17
-3.38854e-17
-3.38457e-17
-3.44547e-17
-3.41635e-17
-3.39361e-17
-3.3662e-17
-3.3977e-17
-3.42315e-17
-3.46207e-17
-3.47202e-17
-3.46766e-17
-3.46772e-17
-3.47105e-17
-3.4516e-17
-3.38658e-17
-3.40019e-17
-3.4106e-17
-3.41055e-17
-3.41436e-17
-3.42802e-17
-3.45035e-17
-3.41713e-17
-3.39838e-17
-3.40891e-17
-3.41249e-17
-3.41167e-17
-3.41013e-17
-3.41139e-17
-3.41181e-17
-3.41167e-17
-3.39978e-17
-3.39103e-17
-3.38582e-17
-3.39974e-17
-3.3996e-17
-3.3806e-17
-3.41266e-17
-3.40566e-17
-3.41606e-17
-3.39532e-17
-3.3819e-17
-3.39879e-17
-3.4017e-17
-3.39583e-17
-3.41892e-17
-3.40821e-17
-3.39804e-17
-3.41654e-17
-3.37589e-17
-3.38511e-17
-3.36634e-17
-3.44482e-17
-3.45177e-17
-3.38028e-17
-3.39245e-17
-3.39993e-17
-3.40631e-17
-3.41253e-17
-3.41487e-17
-3.41335e-17
-3.40999e-17
-3.41004e-17
-3.40962e-17
-3.4024e-17
-3.38509e-17
-3.36336e-17
-3.39028e-17
-3.40178e-17
-3.40666e-17
-3.40679e-17
-3.39987e-17
-3.38654e-17
-3.40381e-17
-3.41117e-17
-3.41336e-17
-3.41528e-17
-3.41298e-17
-3.412e-17
-3.41228e-17
-3.41272e-17
-3.41561e-17
-3.3968e-17
-3.3754e-17
-3.39423e-17
-3.40381e-17
-3.39691e-17
-3.40139e-17
-3.39447e-17
-3.37736e-17
-3.38142e-17
-3.3836e-17
-3.41793e-17
-3.40581e-17
-3.38419e-17
-3.38977e-17
-3.39625e-17
-3.37814e-17
-3.42194e-17
-3.40789e-17
-3.39159e-17
-3.39826e-17
-3.41152e-17
-3.41331e-17
-3.40657e-17
-3.40748e-17
-3.41015e-17
-3.41418e-17
-3.42585e-17
-3.4533e-17
-3.42493e-17
-3.41388e-17
-3.41174e-17
-3.40658e-17
-3.39598e-17
-3.37186e-17
-3.40833e-17
-3.45105e-17
-3.43537e-17
-3.44576e-17
-3.42106e-17
-3.41758e-17
-3.42725e-17
-3.40086e-17
-3.40554e-17
-3.4065e-17
-3.41025e-17
-3.41081e-17
-3.40991e-17
-3.41119e-17
-3.41185e-17
-3.38166e-17
-3.38927e-17
-3.39006e-17
-3.39117e-17
-3.42221e-17
-3.40653e-17
-3.39874e-17
-3.38699e-17
-3.3506e-17
-3.38798e-17
-3.39075e-17
-3.40455e-17
-3.42515e-17
-3.40834e-17
-3.40606e-17
-3.41287e-17
-3.42068e-17
-3.41659e-17
-3.41218e-17
-3.40698e-17
-3.39556e-17
-3.40643e-17
-3.41033e-17
-3.41202e-17
-3.41606e-17
-3.41484e-17
-3.41248e-17
-3.42751e-17
-3.4544e-17
-3.42552e-17
-3.42302e-17
-3.45154e-17
-3.43062e-17
-3.42631e-17
-3.45142e-17
-3.42702e-17
-3.41704e-17
-3.41741e-17
-3.41713e-17
-3.41356e-17
-3.41368e-17
-3.41351e-17
-3.41158e-17
-3.41108e-17
-3.41151e-17
-3.41187e-17
-3.41182e-17
-3.41163e-17
-3.4113e-17
-3.41175e-17
-3.39079e-17
-3.37502e-17
-3.39313e-17
-3.39703e-17
-3.42356e-17
-3.40862e-17
-3.39906e-17
-3.38752e-17
-3.39802e-17
-3.40659e-17
-3.35392e-17
-3.38568e-17
-3.46502e-17
-3.42488e-17
-3.41176e-17
-3.42114e-17
-3.40133e-17
-3.41163e-17
-3.421e-17
-3.43163e-17
-3.43103e-17
-3.4184e-17
-3.41403e-17
-3.42072e-17
-3.45227e-17
-3.45848e-17
-3.43066e-17
-3.44899e-17
-3.42502e-17
-3.39779e-17
-3.38177e-17
-3.44293e-17
-3.45484e-17
-3.40962e-17
-3.35993e-17
-3.35943e-17
-3.39127e-17
-3.4049e-17
-3.41228e-17
-3.41252e-17
-3.41191e-17
-3.40844e-17
-3.39607e-17
-3.40087e-17
-3.40884e-17
-3.41084e-17
-3.41091e-17
-3.41109e-17
-3.41053e-17
-3.41018e-17
-3.40348e-17
-3.39931e-17
-3.39461e-17
-3.37602e-17
-3.40534e-17
-3.42655e-17
-3.40604e-17
-3.40361e-17
-3.42227e-17
-3.40137e-17
-3.37108e-17
-3.39694e-17
-3.41975e-17
-3.42217e-17
-3.39557e-17
-3.40923e-17
-3.41358e-17
-3.42443e-17
-3.45479e-17
-3.42385e-17
-3.41419e-17
-3.4061e-17
-3.39307e-17
-3.40173e-17
-3.38772e-17
-3.43022e-17
-3.40418e-17
-3.4569e-17
-3.44674e-17
-3.37443e-17
-3.38879e-17
-3.39169e-17
-3.42261e-17
-3.45611e-17
-3.42601e-17
-3.41759e-17
-3.42188e-17
-3.43456e-17
-3.45554e-17
-3.41432e-17
-3.38217e-17
-3.40328e-17
-3.41019e-17
-3.41157e-17
-3.41033e-17
-3.40937e-17
-3.41079e-17
-3.41092e-17
-3.41137e-17
-3.41087e-17
-3.35089e-17
-3.42395e-17
-3.40158e-17
-3.39418e-17
-3.40776e-17
-3.43098e-17
-3.40608e-17
-3.40783e-17
-3.4078e-17
-3.39921e-17
-3.38012e-17
-3.38333e-17
-3.40325e-17
-3.40657e-17
-3.40875e-17
-3.42885e-17
-3.43138e-17
-3.41136e-17
-3.40161e-17
-3.40314e-17
-3.4259e-17
-3.41632e-17
-3.41674e-17
-3.44069e-17
-3.3968e-17
-3.40276e-17
-3.40334e-17
-3.40029e-17
-3.40761e-17
-3.39799e-17
-3.38007e-17
-3.43715e-17
-3.4253e-17
-3.41546e-17
-3.41334e-17
-3.4125e-17
-3.41137e-17
-3.40725e-17
-3.39788e-17
-3.38483e-17
-3.41579e-17
-3.41669e-17
-3.41878e-17
-3.40669e-17
-3.40744e-17
-3.41025e-17
-3.41109e-17
-3.41094e-17
-3.41115e-17
-3.41119e-17
-3.38389e-17
-3.42799e-17
-3.40335e-17
-3.40087e-17
-3.40262e-17
-3.40575e-17
-3.39445e-17
-3.41864e-17
-3.40664e-17
-3.40332e-17
-3.39859e-17
-3.40257e-17
-3.39795e-17
-3.40632e-17
-3.39769e-17
-3.41035e-17
-3.40692e-17
-3.39456e-17
-3.40907e-17
-3.41436e-17
-3.41654e-17
-3.42425e-17
-3.40985e-17
-3.38992e-17
-3.38449e-17
-3.40502e-17
-3.4247e-17
-3.41679e-17
-3.38011e-17
-3.39957e-17
-3.41038e-17
-3.41223e-17
-3.4138e-17
-3.4098e-17
-3.40917e-17
-3.40894e-17
-3.40301e-17
-3.3951e-17
-3.36931e-17
-3.38897e-17
-3.41128e-17
-3.42806e-17
-3.41609e-17
-3.40851e-17
-3.40968e-17
-3.40994e-17
-3.41128e-17
-3.41084e-17
-3.41074e-17
-3.4111e-17
-3.38958e-17
-3.40658e-17
-3.39788e-17
-3.40035e-17
-3.40675e-17
-3.40175e-17
-3.39918e-17
-3.39697e-17
-3.40302e-17
-3.40551e-17
-3.39144e-17
-3.40932e-17
-3.44673e-17
-3.41903e-17
-3.42178e-17
-3.42399e-17
-3.4012e-17
-3.4146e-17
-3.43121e-17
-3.42157e-17
-3.4122e-17
-3.39763e-17
-3.40235e-17
-3.40858e-17
-3.40589e-17
-3.40934e-17
-3.41279e-17
-3.41606e-17
-3.41799e-17
-3.44075e-17
-3.42035e-17
-3.42481e-17
-3.47162e-17
-3.45005e-17
-3.45439e-17
-3.42167e-17
-3.40474e-17
-3.38355e-17
-3.43504e-17
-3.42808e-17
-3.43122e-17
-3.41358e-17
-3.40801e-17
-3.40964e-17
-3.41131e-17
-3.41012e-17
-3.41063e-17
-3.41084e-17
-3.41116e-17
-3.41158e-17
-3.41765e-17
-3.40551e-17
-3.40639e-17
-3.40835e-17
-3.42648e-17
-3.38721e-17
-3.38604e-17
-3.41829e-17
-3.41134e-17
-3.42962e-17
-3.41801e-17
-3.36874e-17
-3.40361e-17
-3.38447e-17
-3.36072e-17
-3.3996e-17
-3.41487e-17
-3.4347e-17
-3.42536e-17
-3.43697e-17
-3.44166e-17
-3.41007e-17
-3.39293e-17
-3.40657e-17
-3.40514e-17
-3.40104e-17
-3.41251e-17
-3.42716e-17
-3.43719e-17
-3.45758e-17
-3.42613e-17
-3.41774e-17
-3.38925e-17
-3.37685e-17
-3.38759e-17
-3.39943e-17
-3.40519e-17
-3.39577e-17
-3.38891e-17
-3.40528e-17
-3.41409e-17
-3.40908e-17
-3.40777e-17
-3.41e-17
-3.4115e-17
-3.41109e-17
-3.41144e-17
-3.41175e-17
-3.41232e-17
-3.41132e-17
-3.38187e-17
-3.40171e-17
-3.42837e-17
-3.43553e-17
-3.42659e-17
-3.39913e-17
-3.38473e-17
-3.39592e-17
-3.40999e-17
-3.42672e-17
-3.40752e-17
-3.3844e-17
-3.39961e-17
-3.38955e-17
-3.38573e-17
-3.41256e-17
-3.43398e-17
-3.42114e-17
-3.41367e-17
-3.41791e-17
-3.41097e-17
-3.40192e-17
-3.4198e-17
-3.41553e-17
-3.4142e-17
-3.42174e-17
-3.40678e-17
-3.40225e-17
-3.39123e-17
-3.42774e-17
-3.43102e-17
-3.41942e-17
-3.4236e-17
-3.41511e-17
-3.41291e-17
-3.41962e-17
-3.43054e-17
-3.41892e-17
-3.41435e-17
-3.41099e-17
-3.40359e-17
-3.4134e-17
-3.41271e-17
-3.41319e-17
-3.41276e-17
-3.41283e-17
-3.41265e-17
-3.41152e-17
-3.41093e-17
-3.41107e-17
-3.3931e-17
-3.40055e-17
-3.40669e-17
-3.4352e-17
-3.4124e-17
-3.40591e-17
-3.4085e-17
-3.42871e-17
-3.41293e-17
-3.41949e-17
-3.38374e-17
-3.38612e-17
-3.41388e-17
-3.43316e-17
-3.41617e-17
-3.4176e-17
-3.43814e-17
-3.43347e-17
-3.40345e-17
-3.42672e-17
-3.42246e-17