/*--------------------------------*- C++ -*----------------------------------*\
  =========                 |
  \\      /  F ield         | OpenFOAM: The Open Source CFD Toolbox
   \\    /   O peration     | Website:  https://openfoam.org
    \\  /    A nd           | Version:  7
     \\/     M anipulation  |
\*---------------------------------------------------------------------------*/
FoamFile
{
    version     2.0;
    format      ascii;
    class       surfaceScalarField;
    location    "84000";
    object      phi;
}
// * * * * * * * * * * * * * * * * * * * * * * * * * * * * * * * * * * * * * //

dimensions      [0 3 -1 0 0 0 0];

internalField   nonuniform List<scalar> 
9444
(
-9.82891e-24
-4.28152e-24
2.78113e-23
7.32901e-24
-1.89144e-23
2.94378e-24
2.21823e-24
-1.1214e-23
-1.02238e-23
2.15427e-24
-1.67572e-23
-1.21326e-23
4.03363e-24
-1.098e-23
-1.45879e-23
1.25463e-24
-1.62818e-23
-7.03867e-24
-1.17781e-24
-6.71144e-24
6.70069e-25
-3.18909e-24
-9.90171e-24
6.04207e-24
-2.60116e-24
2.11138e-23
6.62725e-24
5.66797e-25
-4.89907e-24
-6.90583e-24
-4.02534e-24
-7.92143e-24
-4.25695e-24
4.34076e-24
-1.29164e-23
1.24455e-24
1.9631e-24
-1.21911e-23
5.36932e-25
-1.14393e-24
-1.74232e-23
2.85568e-24
2.99786e-24
-4.13557e-24
1.02881e-23
8.26884e-24
2.13823e-23
1.05412e-23
-1.38309e-24
1.36246e-24
3.65501e-24
-1.7411e-23
1.51404e-24
-1.29053e-23
-2.38167e-23
2.15715e-23
-3.9208e-24
-2.3747e-23
1.39699e-23
-5.93325e-25
-3.07619e-23
-3.85409e-24
1.01885e-23
-3.14573e-23
2.51121e-23
-2.61215e-23
-8.79972e-24
-1.7185e-23
2.36404e-23
-4.42235e-23
-2.14406e-23
-1.47271e-23
-8.45795e-24
-1.99236e-23
-1.52709e-23
-7.07289e-24
-2.85928e-23
-1.75415e-23
-1.80033e-23
-9.19835e-24
-1.20714e-23
-8.83945e-24
-6.97553e-24
-1.05847e-23
-2.59664e-24
-6.74231e-24
-4.58342e-24
-6.30085e-24
-8.19192e-24
-9.68947e-24
-1.31776e-23
-1.43798e-23
5.58474e-24
-7.9396e-24
1.00786e-24
-2.64312e-25
3.10698e-24
9.57322e-24
8.08823e-25
-2.67635e-23
5.58393e-24
1.58089e-23
2.03264e-23
2.24324e-23
1.60004e-23
3.00245e-23
2.26036e-23
1.90649e-23
2.14847e-23
1.85309e-23
-2.0238e-23
-1.12627e-23
3.30645e-23
-2.11886e-23
-1.6398e-24
-2.22424e-23
-8.94803e-24
-2.77112e-23
-8.7226e-24
1.04628e-24
-7.7119e-24
3.2571e-24
-1.69377e-23
-9.49194e-24
-2.06147e-23
-7.45341e-24
-2.94377e-23
-2.43038e-23
-3.65455e-23
-2.43002e-23
-3.51833e-23
-1.87265e-23
-1.16374e-23
2.19892e-23
-1.34308e-23
-2.37168e-23
-2.42918e-23
-1.48962e-23
-3.61327e-25
-1.15834e-23
4.18968e-24
8.26347e-24
1.63227e-23
-2.53856e-24
1.47738e-23
-6.05906e-25
1.85655e-23
3.26228e-23
2.52166e-23
2.28913e-23
3.65726e-23
1.91406e-23
2.54909e-23
1.61802e-23
-1.86235e-23
-8.65256e-24
1.88538e-23
-1.52724e-23
-4.18407e-24
-1.22294e-23
1.95956e-23
-1.75376e-23
1.0619e-23
-1.14773e-23
9.66444e-24
-1.1804e-24
3.00327e-24
-1.69339e-23
-1.45413e-23
-2.32712e-23
-2.50609e-23
-2.69897e-23
-2.9586e-23
-2.47039e-24
-1.09042e-23
-1.52194e-23
-1.00119e-23
-1.35611e-24
-7.92413e-24
-1.12085e-24
-1.8759e-23
-9.97946e-24
-2.83375e-23
1.55136e-24
-5.29199e-24
3.93465e-24
1.13205e-23
4.068e-24
1.72165e-23
6.95789e-24
1.8969e-23
4.55386e-23
2.48186e-23
1.83029e-24
8.94983e-24
8.97896e-24
1.82312e-23
1.32345e-23
-1.30976e-23
-5.21524e-24
7.35124e-24
1.23258e-23
3.57235e-24
-1.52954e-23
-9.65141e-24
-1.24169e-23
-5.74608e-24
-2.22325e-23
1.69002e-23
-1.59774e-23
1.09367e-25
-2.02507e-23
-6.16101e-24
-2.71089e-23
-9.08875e-24
-2.65117e-24
-6.75998e-24
8.82601e-25
-9.48405e-24
-4.71898e-24
-3.19963e-24
-1.20466e-23
-1.6108e-25
-1.64442e-23
-1.33057e-23
1.41258e-23
-2.82436e-23
1.73072e-23
-1.16187e-23
1.12849e-23
-2.66523e-24
1.39569e-24
9.44438e-25
1.55769e-23
1.07239e-23
1.62136e-23
2.61758e-23
1.20853e-23
1.02618e-23
-9.65478e-25
-2.61906e-24
-5.47676e-24
-8.11589e-24
-1.38751e-23
4.0327e-24
-1.09949e-23
-1.23768e-23
-1.99711e-23
-1.02983e-23
-2.12855e-24
-2.07266e-23
-4.12421e-23
-2.31229e-23
-3.0436e-23
-5.63842e-24
-1.92559e-23
-1.25051e-23
-2.14186e-23
-3.05649e-24
-1.8706e-23
1.68474e-24
1.49514e-23
1.82736e-23
-2.32526e-24
1.11995e-23
-1.44864e-23
5.6233e-24
-3.35912e-23
3.88176e-24
4.1126e-23
2.33184e-23
2.76931e-23
2.36825e-23
1.839e-23
1.88832e-23
1.29913e-23
1.65109e-23
2.90649e-23
5.09472e-24
-6.36656e-24
-1.1597e-23
2.86895e-24
-2.3972e-24
-3.0784e-24
2.25252e-24
2.33571e-23
6.88072e-24
1.88982e-24
8.69602e-24
-1.23017e-23
-3.82185e-24
-2.10786e-23
-5.83363e-24
-8.92954e-24
5.96699e-24
-1.62944e-23
-8.33404e-24
-3.73132e-23
-1.9278e-23
-1.33763e-23
4.62038e-24
-1.32481e-23
3.02739e-24
-4.52255e-25
4.64364e-24
7.95513e-24
3.66789e-24
-2.23977e-24
8.23342e-24
-2.15817e-23
1.88511e-23
-1.35975e-23
2.20679e-23
3.96479e-23
5.22833e-23
2.51688e-23
5.09312e-23
1.22146e-23
4.83987e-23
1.08741e-23
2.37726e-23
5.66117e-24
1.76348e-23
-1.37139e-26
6.55493e-24
6.01396e-25
3.45533e-24
1.89565e-23
9.08479e-24
3.3416e-24
-2.36778e-24
9.4842e-24
-6.99916e-24
-6.18023e-24
-4.41584e-24
-1.01545e-23
-2.35541e-24
-2.30972e-23
-1.8146e-23
-2.16741e-23
-1.50499e-23
-1.12431e-23
7.21262e-24
-1.79392e-23
1.62334e-23
-1.42644e-23
3.52366e-23
-1.14979e-23
2.79175e-23
-6.57732e-24
1.24392e-23
1.12966e-23
-1.28376e-23
-1.96269e-23
8.78818e-24
8.19558e-24
6.08055e-23
2.39692e-23
4.66019e-23
3.24638e-23
1.51915e-23
-1.45992e-23
1.83292e-23
5.94638e-24
4.10277e-23
-1.03253e-23
3.94473e-23
-2.22411e-24
4.18966e-23
9.31735e-24
3.85802e-23
1.5963e-23
3.97792e-23
4.43536e-23
-1.80755e-23
-1.78824e-23
-2.95517e-23
-5.58467e-24
8.46586e-24
-1.80639e-23
-2.8809e-23
-2.9549e-23
-1.55087e-23
-5.77343e-24
-3.75715e-24
-8.52564e-24
-1.63633e-23
-8.4134e-25
-3.08872e-23
-2.10527e-23
9.13179e-24
-1.64835e-23
2.67771e-23
-3.06968e-23
-9.94298e-25
2.29044e-23
1.25588e-23
2.16748e-23
1.31397e-23
-1.07433e-23
1.78977e-23
-3.62458e-24
4.31773e-23
3.25152e-23
5.57534e-23
4.6533e-24
4.15791e-23
2.02748e-24
4.6021e-23
-1.65404e-24
4.55507e-23
-4.06661e-24
4.88609e-23
9.80635e-24
5.25312e-23
1.7528e-23
5.87848e-23
5.57532e-23
4.78515e-24
-1.2432e-23
-7.02807e-24
-3.68206e-23
-2.96985e-23
-2.03851e-23
-1.3689e-23
-2.44379e-23
-8.95575e-24
-1.49154e-23
-1.16368e-23
-3.57298e-23
-3.12759e-23
2.68712e-23
-1.96185e-23
-1.2727e-23
-3.06983e-23
-3.80146e-23
-1.85322e-23
-2.27358e-23
2.46156e-23
2.20429e-23
5.43674e-23
3.06809e-23
4.7488e-23
9.09351e-24
4.19463e-23
4.94565e-24
4.34458e-23
2.37918e-23
3.72373e-23
1.41762e-23
5.51191e-23
-1.50227e-24
6.49674e-23
-4.19054e-24
4.89861e-23
-5.46745e-24
5.13807e-23
1.11075e-23
5.46946e-23
1.95257e-23
5.24948e-23
8.05583e-23
-9.99437e-24
-7.71483e-24
7.99866e-24
-2.38973e-23
-1.79985e-23
-2.37311e-23
-1.23823e-23
-1.87476e-23
-8.41968e-24
-2.82613e-23
-3.60431e-25
-2.15173e-23
4.09744e-23
4.64466e-24
3.76449e-23
-5.50738e-24
-1.04546e-23
-9.19437e-24
-7.30163e-24
-4.09511e-26
1.45603e-23
1.53939e-23
2.53675e-23
2.67073e-23
3.98849e-23
7.92601e-24
6.32184e-23
-3.35783e-24
6.25101e-23
2.87424e-23
4.84813e-23
2.62847e-23
2.90693e-23
-1.68298e-23
2.48518e-23
1.69418e-24
2.19325e-23
-5.0492e-25
5.3646e-23
2.7542e-24
5.45683e-23
3.49401e-23
5.78046e-23
6.3974e-23
-1.28715e-23
1.75916e-23
5.17379e-24
-1.68405e-23
1.73367e-23
-2.42683e-23
9.45974e-25
-1.74784e-23
-1.09801e-23
-6.51253e-24
2.47703e-24
-2.20615e-23
-2.49432e-23
-2.23514e-23
-3.3792e-23
9.20578e-25
-2.83763e-23
-1.53029e-24
-5.39106e-24
1.05143e-23
4.60799e-24
1.98235e-23
1.71667e-23
4.01134e-23
2.9263e-23
7.26324e-24
2.4516e-23
-9.72823e-24
8.93268e-24
1.20901e-23
3.24649e-23
2.39386e-23
3.89535e-23
-2.19181e-23
2.67258e-23
1.64319e-23
6.13908e-23
-3.54804e-24
5.41357e-23
6.76733e-24
5.11857e-23
3.28582e-23
6.66706e-23
6.84098e-23
-1.37696e-23
3.65322e-24
1.74282e-23
-1.80957e-23
-1.03222e-24
-3.47695e-23
1.857e-23
-6.17699e-24
4.00973e-23
-3.10747e-23
2.18608e-23
-2.91769e-23
-2.16004e-23
-3.8923e-23
-1.13854e-23
1.33227e-23
-1.88217e-24
6.55263e-24
-3.01116e-24
7.94789e-24
1.50108e-24
2.14643e-23
4.02902e-24
3.18862e-23
2.25644e-25
-3.88965e-24
-1.65098e-23
8.75285e-25
5.26766e-24
1.14336e-23
1.75029e-23
1.44707e-23
2.50591e-23
1.40418e-24
3.38548e-23
9.81305e-24
2.66719e-23
-3.69144e-24
3.11505e-23
1.91397e-23
5.5701e-23
2.77239e-23
7.01064e-23
9.42193e-23
-1.63579e-23
2.11054e-23
8.74802e-24
-1.42281e-23
4.39251e-24
-2.87168e-23
-8.43212e-24
-2.36481e-23
-8.14637e-24
-5.05871e-23
-2.62518e-23
-2.75518e-23
-1.59547e-23
-2.59965e-23
-1.35748e-23
1.22998e-23
3.48614e-23
-1.23658e-25
4.04539e-23
6.59294e-24
3.08708e-23
1.44084e-23
9.87872e-25
1.90288e-23
2.73148e-24
9.27027e-24
-4.50198e-23
7.1024e-24
-1.21408e-24
1.77036e-23
3.47964e-23
1.06204e-23
2.60847e-23
3.09802e-24
1.07809e-23
1.42396e-23
1.36918e-23
1.0208e-23
3.71038e-23
2.34099e-23
5.38542e-23
4.3413e-23
-2.79738e-23
-2.34309e-23
-5.67304e-24
-1.16686e-23
-5.81955e-24
-3.21684e-23
-3.33653e-24
-4.09997e-23
1.96849e-25
-4.38435e-23
-1.23199e-23
-3.39802e-23
-2.66544e-23
-2.62114e-24
1.80824e-23
8.5469e-24
2.25132e-23
1.18717e-24
1.73682e-23
-7.28613e-24
4.25636e-23
1.03087e-23
6.2146e-23
-5.33112e-24
1.90846e-23
2.87672e-23
-5.26652e-24
2.70882e-23
2.20812e-23
1.67968e-23
3.88078e-23
9.312e-24
3.24585e-23
-5.62032e-26
4.80753e-23
2.63631e-23
5.53106e-23
1.46586e-23
5.26904e-23
-2.21691e-23
-9.98453e-24
1.17022e-23
-2.11568e-23
-1.04449e-23
-2.67773e-23
-2.53012e-23
-4.24667e-23
1.79289e-23
-5.13603e-23
3.64684e-23
-8.53648e-24
5.7217e-23
-3.00866e-24
4.68725e-23
-2.86909e-24
2.83291e-23
5.03813e-24
4.31488e-23
-8.81395e-25
5.16895e-23
-7.50155e-24
4.00738e-23
-1.82268e-23
3.05522e-23
4.25929e-23
5.41431e-23
3.29674e-23
5.57904e-23
9.93445e-24
6.0491e-23
1.61949e-23
4.424e-23
-1.62135e-24
2.81197e-23
2.69388e-23
-2.44543e-23
-7.66111e-24
1.98865e-23
-2.55232e-23
-1.64731e-23
-4.65172e-25
-1.79815e-23
-4.26941e-23
-1.81009e-23
-3.2588e-23
1.21996e-24
-8.95972e-24
3.60794e-23
-7.52213e-24
4.83973e-23
4.58581e-24
4.63853e-23
1.17319e-23
6.60479e-23
1.8518e-24
6.83307e-23
-9.51878e-24
9.69238e-23
-8.2573e-24
1.06464e-22
3.72089e-23
8.56868e-23
3.41381e-23
6.17356e-23
3.88802e-24
6.96693e-24
-2.25717e-23
-1.10311e-24
1.49993e-23
-3.34361e-23
-1.38245e-23
-6.14698e-24
-3.3707e-24
-2.99396e-23
-2.22596e-23
-2.75984e-23
-1.42519e-24
-9.17872e-24
2.3104e-23
-2.11139e-23
2.47828e-23
1.39313e-23
3.95533e-23
5.83711e-24
4.70999e-23
1.40125e-23
7.06988e-23
-5.13783e-24
7.9624e-23
-1.28405e-23
6.78527e-23
2.72845e-23
-2.8058e-23
-1.89905e-23
1.06486e-23
-1.54798e-23
-2.44327e-23
-2.17843e-23
4.67467e-24
-1.64504e-23
2.5003e-24
-1.69983e-23
5.33524e-24
-1.46853e-23
2.7647e-23
-4.51588e-24
2.29217e-23
2.87568e-24
3.88582e-23
1.78869e-23
3.10229e-23
1.55537e-23
7.4586e-23
-1.26885e-23
-2.67624e-23
-1.82543e-23
1.66557e-23
-1.07548e-23
-5.67077e-24
-2.13272e-23
1.46175e-23
-1.31062e-23
7.48777e-25
-1.37369e-23
1.79818e-23
-1.81997e-23
3.99578e-23
1.01603e-24
4.08305e-23
-3.24248e-24
5.16154e-23
3.70545e-23
7.90721e-23
-2.4985e-23
-1.4802e-23
1.35872e-23
-1.26002e-24
8.27557e-25
-2.83788e-23
-3.43635e-23
-1.44043e-23
-1.16814e-24
-1.98658e-24
1.96141e-23
-1.73585e-23
7.14281e-23
1.33078e-23
9.66519e-23
3.30984e-24
9.4104e-23
-2.43125e-23
-2.59134e-23
-2.36251e-24
-1.37497e-23
-7.71841e-24
-2.16235e-23
-2.11466e-23
-6.76151e-25
2.3645e-23
1.09511e-23
1.65401e-23
-6.55665e-24
1.28891e-23
8.09066e-24
9.22169e-23
-1.79861e-23
-2.33439e-23
5.77229e-24
-1.58377e-23
-7.3713e-24
-1.10113e-23
-1.68536e-23
-9.29891e-24
3.27027e-23
1.21322e-23
2.45468e-23
1.48832e-23
1.99328e-23
-1.44336e-23
-2.42005e-23
7.78964e-24
-1.72349e-23
-9.33088e-25
5.37131e-25
-2.27784e-24
-1.54575e-23
4.83529e-23
1.58566e-23
3.2183e-23
2.26695e-23
-1.48799e-23
-3.90692e-23
2.66702e-24
-1.40934e-23
-3.70936e-24
2.2866e-24
1.43482e-23
-1.40072e-23
-1.24849e-23
4.3069e-24
2.73286e-23
-1.38749e-23
-6.60691e-24
1.60366e-23
-6.58487e-24
-2.44333e-23
-1.12952e-23
1.74536e-23
-6.63179e-24
2.08522e-23
-9.5214e-24
2.93268e-24
2.9039e-23
-3.05375e-24
-4.09541e-24
-8.82925e-24
-6.22903e-24
2.85005e-23
-1.16289e-23
1.9435e-24
2.91985e-23
-4.9849e-24
4.31394e-24
1.10254e-24
-5.91629e-24
-7.38368e-24
-7.558e-24
1.81704e-23
-6.41155e-24
2.4701e-24
-1.6127e-23
-8.61993e-24
-9.28045e-24
1.39124e-23
-6.85515e-24
3.3055e-24
-1.90729e-23
-7.59137e-24
-9.47902e-24
1.35805e-23
-1.07856e-23
5.24311e-24
-1.5602e-23
1.0314e-25
-3.40171e-23
1.96101e-23
-1.22442e-23
2.22663e-23
8.26512e-24
9.00716e-24
5.03732e-23
3.01437e-23
-1.24196e-23
-3.03005e-23
7.24828e-24
-4.62781e-24
3.89996e-23
1.87804e-23
-7.93148e-24
8.54078e-24
9.17507e-24
-5.80814e-24
3.76748e-23
1.42681e-23
-7.42643e-24
-1.24571e-23
1.06069e-23
-1.52777e-23
4.42307e-23
1.33831e-23
-1.00994e-23
-1.13741e-23
-5.14101e-25
-1.89176e-23
-2.51932e-23
1.05683e-23
-1.06367e-23
-8.15777e-24
2.12029e-23
-2.57047e-23
-3.69533e-23
4.22203e-24
-1.01696e-23
1.33804e-23
1.50398e-23
-2.75184e-23
-4.70434e-23
9.65246e-24
-1.69783e-23
1.56898e-23
1.46048e-23
-2.60549e-23
-2.64474e-23
1.90639e-23
-2.27934e-23
2.04721e-23
3.97663e-23
-2.5643e-23
-9.95861e-24
1.83245e-23
-2.85669e-23
-7.61293e-24
4.08541e-23
-2.46206e-23
1.08895e-23
-2.61611e-23
1.67036e-23
-2.82692e-24
-1.93551e-23
3.53629e-23
1.72461e-24
1.7098e-23
1.50553e-23
2.29451e-23
1.61482e-23
1.54523e-23
1.229e-23
1.12808e-23
2.63521e-24
-5.733e-25
-1.19756e-23
2.74559e-24
-5.81791e-24
1.94302e-23
-1.59994e-23
2.82175e-23
-2.00385e-23
2.57926e-23
9.50933e-24
4.53235e-23
2.19297e-23
2.26247e-23
6.30932e-24
4.04966e-23
1.7462e-23
4.71316e-23
2.00492e-23
3.87148e-23
2.0106e-23
3.45797e-23
2.46692e-23
1.81569e-23
2.42076e-23
2.79994e-23
2.86473e-23
1.31171e-23
2.92474e-23
-8.02358e-24
3.23907e-23
2.97484e-23
3.68181e-23
4.91173e-24
2.45325e-23
-8.75507e-24
2.54869e-23
5.06099e-23
3.93179e-23
4.85179e-23
3.50466e-23
1.80345e-23
1.90332e-23
1.14549e-25
1.02244e-23
7.40393e-24
8.14014e-24
1.07009e-23
1.02526e-23
1.28019e-23
9.73069e-24
3.64448e-23
3.82967e-24
-4.62046e-24
8.18569e-26
7.6012e-24
6.68633e-24
-3.43533e-24
4.19841e-24
-2.84119e-24
1.01966e-23
-2.24375e-23
5.84298e-24
-4.21855e-24
1.74709e-23
2.26911e-23
1.84976e-23
2.91447e-23
1.88019e-23
3.32327e-23
2.44987e-23
2.72179e-23
1.1906e-23
-2.11698e-24
-1.07884e-23
4.09949e-23
2.21564e-23
1.20078e-23
1.27479e-24
1.92148e-23
3.97716e-24
7.98296e-25
-2.48202e-23
6.71975e-24
-8.68422e-24
-1.65654e-24
-1.78603e-25
-1.50777e-23
3.42415e-24
1.29064e-23
2.76122e-23
6.62189e-23
5.3646e-23
4.66092e-23
2.74451e-23
2.00796e-23
2.02919e-23
3.65457e-23
1.93378e-23
3.41263e-23
1.92544e-23
4.04444e-23
1.89261e-23
4.94098e-23
5.95351e-24
4.36598e-23
1.81325e-23
2.70571e-23
2.85459e-23
3.33674e-23
1.44303e-23
1.6149e-23
1.78592e-23
-7.24388e-25
1.60028e-23
8.7681e-24
2.1543e-23
7.53224e-24
2.51998e-23
8.29468e-24
2.90733e-23
1.62163e-23
2.74827e-23
2.48151e-23
2.07023e-23
-1.77801e-23
1.86827e-23
6.25374e-25
1.9605e-23
-4.7133e-24
1.56093e-23
-3.67378e-24
1.32503e-23
5.91873e-24
1.32874e-23
1.00351e-23
8.08144e-24
4.00453e-23
7.90449e-24
1.60349e-23
5.09174e-24
2.61822e-23
4.44952e-24
8.96406e-24
5.03513e-24
8.41332e-24
7.46658e-24
-1.10792e-23
4.53558e-24
-5.70064e-24
9.64773e-24
-6.05357e-24
1.75168e-23
3.60829e-23
2.4755e-23
2.80128e-23
1.99354e-23
-1.60121e-23
-1.1457e-23
2.39239e-23
-2.87753e-24
2.19335e-23
-2.0593e-24
-7.37986e-24
-1.76734e-23
7.24875e-24
-1.19079e-23
4.1768e-24
-1.05341e-23
3.83225e-24
2.51739e-24
7.15279e-24
-1.14948e-24
4.28853e-23
1.59227e-23
3.24225e-23
1.77123e-23
3.72602e-23
1.84517e-23
2.88754e-23
2.25534e-23
1.80767e-23
3.08591e-23
4.73235e-23
2.84078e-23
-2.60756e-24
2.94782e-23
8.04819e-23
4.04833e-23
4.78432e-23
6.06634e-24
3.16659e-23
5.65073e-24
2.15096e-23
2.41665e-23
1.70737e-23
1.53864e-23
1.48616e-23
1.37967e-23
1.3797e-23
2.01245e-23
2.21614e-23
1.2931e-23
1.27818e-23
3.99657e-24
-8.11078e-24
4.33966e-24
-5.72048e-24
9.40311e-24
-1.65053e-23
4.35009e-24
-6.55749e-24
8.62496e-24
4.72674e-24
1.29042e-23
1.9146e-24
1.24245e-23
-6.06605e-24
1.52221e-23
1.06402e-23
1.52554e-23
6.31839e-24
1.3046e-23
7.74247e-24
7.79759e-24
1.26148e-23
4.28763e-24
2.17166e-23
-3.96367e-25
-2.21513e-24
1.95591e-25
-4.77267e-25
1.29237e-24
-5.3695e-24
9.68556e-24
-3.78435e-23
1.17063e-23
1.05521e-23
1.04298e-23
1.05434e-23
2.199e-23
-2.39096e-24
-1.64516e-23
1.74406e-23
2.22662e-25
1.09454e-23
4.86613e-24
-1.68804e-24
-2.38881e-23
3.611e-24
-2.57528e-23
1.19169e-23
-1.8838e-23
-5.70872e-24
-1.15508e-23
3.33471e-23
1.0673e-25
2.80917e-23
1.22226e-23
2.42804e-23
1.06114e-23
2.44562e-23
1.6961e-23
4.8695e-23
1.8131e-24
1.70449e-24
1.87895e-24
3.72147e-23
1.98632e-23
2.08823e-23
2.71691e-23
2.17817e-23
2.92895e-23
3.59672e-23
2.42745e-23
5.64816e-23
1.52077e-23
-6.3018e-25
-3.97727e-24
1.20164e-23
-1.63775e-24
1.96325e-23
-3.59691e-25
-2.33383e-23
-1.60182e-23
-1.89144e-23
-3.37412e-24
-2.66096e-23
-4.68373e-24
-1.32769e-23
-1.80443e-23
-1.73792e-23
-2.41459e-23
3.42731e-24
-1.36963e-23
2.22246e-26
-8.57842e-24
-1.44407e-23
-7.40358e-24
-1.03987e-23
4.94103e-25
2.6409e-24
4.34288e-25
-7.21804e-24
4.76117e-24
-2.58309e-23
-1.15133e-24
-2.28817e-23
3.4678e-25
-2.052e-24
3.82637e-24
1.92958e-23
6.03857e-24
4.78526e-23
7.32711e-24
6.8843e-23
2.19138e-23
7.06187e-23
2.12454e-23
5.62954e-23
2.2046e-23
-7.14881e-25
2.03097e-23
2.43902e-23
2.08591e-23
-2.09925e-23
7.62556e-25
2.40425e-23
-3.74712e-23
-6.38158e-24
-3.04961e-23
6.58037e-24
-3.61486e-24
-2.66541e-24
-1.40674e-23
1.57971e-23
1.45925e-24
1.0924e-23
-2.95236e-24
2.97754e-23
5.49996e-24
2.3333e-23
-2.63531e-23
4.29503e-23
-1.92711e-23
-4.99729e-24
-1.21993e-23
4.4456e-23
-4.41642e-24
1.46736e-23
1.37918e-23
3.35654e-23
2.9622e-23
3.17372e-23
2.95743e-23
-6.16939e-24
3.85669e-23
2.51364e-23
1.57166e-23
2.43141e-23
9.89326e-24
1.20328e-23
1.01182e-24
-2.33982e-24
2.96257e-24
-4.65899e-24
-7.50513e-24
-1.16277e-23
-1.50387e-23
-3.62008e-23
-2.21343e-23
-5.0474e-23
-2.97053e-23
-5.15822e-23
-1.95651e-23
1.12842e-23
-1.09077e-23
-1.8632e-23
-1.98733e-23
-5.58828e-24
-1.99274e-23
2.21646e-24
-1.79666e-23
-1.94162e-23
-1.95406e-23
-6.52265e-24
-1.24406e-23
-2.7013e-23
-6.7717e-24
-2.57622e-23
-2.87195e-24
1.71771e-24
1.97564e-24
-8.19473e-24
6.98423e-24
6.2328e-23
1.38401e-23
5.19165e-23
1.19062e-23
-1.3521e-23
1.05238e-23
-1.05762e-24
1.0042e-23
-5.4929e-24
1.48277e-23
-4.711e-23
1.7387e-23
1.96404e-23
9.90425e-24
5.72037e-24
1.17225e-23
2.06888e-23
-1.80569e-24
1.9286e-23
-2.35891e-23
3.96455e-24
-2.09025e-23
1.1666e-23
-1.23276e-23
1.48861e-23
2.26286e-24
2.66927e-23
3.44916e-24
-8.43262e-24
-3.01756e-24
3.45365e-23
5.80389e-24
6.03271e-23
3.25382e-23
-8.09668e-24
1.37645e-23
5.06829e-23
1.90632e-23
5.05591e-23
1.356e-23
3.67927e-23
6.77631e-24
5.49099e-23
1.69493e-23
-3.96946e-23
7.00734e-24
-1.69195e-23
-1.15822e-24
7.75863e-24
-1.77469e-23
3.54107e-24
-3.6791e-24
-1.65863e-23
5.47843e-24
-4.9574e-23
7.93304e-24
-2.74789e-23
-8.47056e-24
-3.27391e-23
-2.41974e-23
-4.56038e-23
-2.27229e-23
-2.10126e-23
-2.83615e-23
-2.97812e-23
-3.60935e-23
-2.09832e-23
-2.79054e-23
-2.02699e-23
-2.42252e-23
-1.39361e-23
-2.54973e-23
1.62337e-23
-1.45694e-23
-1.22219e-23
-1.18828e-23
-1.14647e-23
-5.93785e-24
7.79271e-24
-4.60913e-25
2.37345e-23
7.90067e-24
1.29843e-23
1.24296e-23
2.68617e-23
8.7331e-24
3.53046e-23
9.49384e-24
1.0125e-23
1.20537e-23
1.47956e-23
1.79392e-23
4.54358e-23
1.75872e-23
1.14284e-23
1.83831e-23
2.63372e-23
-1.37821e-25
1.10847e-25
7.92561e-24
1.44412e-23
-8.56608e-24
2.7982e-23
-3.01455e-23
1.79894e-23
-1.35812e-23
1.53036e-23
-6.37661e-24
1.38609e-23
1.05374e-24
2.075e-23
3.70949e-24
-9.13036e-24
1.17562e-23
5.05797e-23
2.22282e-23
4.22878e-23
-5.51605e-24
-5.67407e-24
-9.7271e-24
4.3265e-23
1.82599e-24
3.83166e-23
1.52861e-23
3.69073e-23
-8.68442e-27
3.52849e-23
-2.01395e-23
-5.3689e-23
-3.07314e-23
-5.04186e-23
-5.60756e-24
2.82506e-23
1.89701e-23
1.50484e-23
-6.42507e-24
-8.29681e-24
-1.54124e-23
-9.52078e-23
-1.97138e-23
-8.69961e-23
-2.15268e-23
-4.77076e-23
-3.46473e-23
-8.18771e-23
-2.61422e-23
-6.08886e-23
-1.72443e-23
-8.93712e-24
-9.63747e-24
-3.05218e-23
-9.52887e-24
-4.70783e-23
-2.77515e-24
1.55382e-23
3.17958e-24
3.73386e-23
1.29115e-24
2.21834e-23
-1.52086e-24
-1.46978e-23
1.61708e-24
5.81612e-23
3.73612e-24
-1.09571e-23
-1.15687e-24
-1.55046e-24
7.74389e-24
8.32104e-24
7.47295e-24
1.29122e-23
7.18251e-24
2.41238e-23
9.33285e-24
6.76375e-24
6.77219e-24
2.38812e-23
4.27041e-24
2.33778e-23
7.7979e-24
8.12717e-24
-1.28125e-23
-1.56695e-23
3.09034e-24
-7.40233e-24
-7.90308e-24
4.41471e-23
-1.56915e-23
2.65647e-23
-7.98067e-24
1.20912e-23
8.11039e-24
1.40047e-23
-8.94431e-24
2.53444e-23
-1.62359e-23
-7.78594e-25
-7.04263e-24
1.11346e-23
-1.07465e-23
1.86303e-23
-9.96892e-24
1.96566e-23
-9.73183e-24
3.03924e-23
-1.07963e-23
1.91023e-23
-1.98097e-23
-5.92424e-25
-2.65215e-23
6.17791e-24
-3.69285e-23
-1.97991e-25
-2.97996e-23
-2.97311e-23
-3.1859e-23
-1.61385e-23
-3.49428e-23
-1.1325e-23
-1.80409e-23
-4.88177e-24
-1.82358e-23
-1.14863e-22
-3.40256e-23
-1.18744e-22
-2.87909e-23
-5.62834e-23
-2.20864e-23
-5.5635e-23
-3.16318e-23
-4.09718e-23
-3.4106e-23
-2.8862e-23
-1.52131e-23
-2.47698e-23
-7.20286e-24
-2.14705e-23
-2.40633e-24
-1.14859e-23
-1.21276e-24
9.6586e-24
1.97184e-24
5.86279e-24
-2.81602e-24
1.31378e-23
-1.94632e-24
2.97004e-23
-2.36459e-24
1.21789e-23
2.05583e-24
1.70801e-23
9.37705e-24
1.63709e-23
1.30529e-23
2.20732e-23
1.3255e-23
8.18887e-24
1.92791e-23
5.24488e-24
2.35795e-23
5.61097e-23
2.6112e-23
3.07962e-23
2.9741e-23
3.2295e-23
-1.53326e-23
-3.77403e-23
6.08688e-24
-1.55743e-23
-6.83397e-24
4.58674e-23
-3.36139e-25
3.7157e-23
-9.45691e-25
2.42449e-24
-3.17763e-23
4.72179e-24
-9.87025e-24
3.06235e-23
-7.2399e-24
-6.88863e-24
-2.61049e-24
5.8996e-24
-2.02986e-23
9.34328e-24
-7.76644e-24
1.76118e-23
-1.60802e-23
6.94442e-24
-2.11766e-23
7.18878e-24
-2.91832e-23
-3.45036e-23
-2.73181e-23
-8.06422e-24
-3.04448e-23
-2.79335e-24
-2.36991e-23
-3.95283e-23
-3.9524e-23
-1.30424e-23
-3.58823e-23
-1.50359e-23
-4.99391e-23
-5.86233e-23
-6.10452e-23
-9.03478e-23
-4.06632e-23
-1.0744e-22
-2.53126e-23
-1.07843e-22
-8.26384e-24
-7.12583e-23
8.92626e-24
6.88615e-24
1.61182e-23
-1.41357e-23
9.84074e-24
-2.35342e-23
4.72942e-24
-6.25046e-24
8.65635e-24
-1.20845e-23
5.08399e-24
-1.00179e-23
5.50363e-24
-1.4213e-23
1.13652e-23
2.00954e-23
1.32504e-23
4.13791e-23
1.80839e-23
2.71279e-23
1.57519e-23
4.68318e-23
1.66651e-23
8.92329e-24
1.5449e-23
-5.89443e-25
2.38363e-23
-1.09251e-23
2.711e-23
6.88354e-24
2.87293e-23
3.76348e-24
2.34689e-23
-5.1345e-24
1.87466e-23
1.94845e-23
-1.86127e-24
-8.52677e-24
6.26999e-24
-1.22052e-23
-1.35409e-24
4.26884e-23
2.16802e-23
1.27782e-23
-6.7446e-24
1.13861e-23
-2.44301e-23
7.18745e-24
-2.6598e-23
2.88299e-23
-2.70583e-23
-1.49668e-23
-3.52948e-23
2.35718e-23
-1.56283e-23
-5.71995e-24
-9.56629e-24
-5.45363e-24
-1.83543e-23
-4.26641e-24
-3.30093e-23
-6.62393e-24
-3.69178e-23
-2.75167e-23
-4.26844e-23
-1.84796e-23
-2.08901e-23
-2.37761e-23
-3.13804e-23
-4.55726e-23
-3.2992e-23
-4.43242e-23
-4.46107e-23
-4.37702e-23
-4.01091e-23
-1.59378e-23
-2.01262e-23
-4.97502e-23
-2.62582e-23
-5.6739e-23
-2.95583e-23
-6.89757e-23
-7.01017e-24
-3.83209e-23
7.27458e-24
-2.95935e-23
1.07611e-23
-2.66264e-23
5.66413e-24
-2.61121e-23
8.0397e-24
-1.87547e-23
5.12029e-24
-1.09832e-23
8.33476e-24
2.07415e-24
6.45936e-24
8.2736e-24
8.0824e-24
6.36013e-24
1.91269e-23
1.44966e-23
1.51998e-23
9.79082e-24
1.51029e-23
1.40087e-23
1.44285e-23
1.54002e-23
1.0794e-23
2.40226e-23
1.51925e-23
-3.04237e-23
8.62231e-24
-8.59196e-23
7.20621e-24
-8.87689e-23
-3.73024e-24
-7.83302e-23
5.86296e-24
1.78456e-23
3.81159e-25
-6.61292e-24
-9.80314e-24
-1.14263e-24
-1.16738e-23
1.65247e-23
-4.82973e-24
-2.81005e-24
-2.1301e-23
1.32873e-23
-3.77855e-23
8.80932e-24
-2.08483e-23
7.61265e-24
-2.4837e-23
3.94864e-24
-3.08631e-23
2.22056e-23
-3.20209e-23
-2.11618e-23
-4.63039e-23
-2.52667e-23
-4.71451e-23
-2.16964e-23
-4.04321e-23
-2.67738e-23
-3.34379e-23
8.73549e-24
-1.28695e-23
-5.12447e-23
-1.35584e-23
-1.17369e-23
-1.39078e-24
-7.92819e-23
-1.03263e-23
-4.0898e-23
-1.04051e-23
-1.24374e-23
-1.20882e-24
-3.0377e-23
-1.64954e-23
-4.84356e-23
-1.3667e-23
2.34729e-24
-4.75041e-24
-3.78535e-23
-1.08338e-23
-3.15718e-23
-1.24754e-23
-7.2266e-23
-1.37056e-23
-2.74401e-23
-2.82661e-24
-3.99046e-23
-3.18323e-25
-3.10154e-23
-3.84237e-24
-1.51425e-23
4.80041e-24
-1.26701e-24
7.9275e-24
2.74019e-23
1.6086e-23
2.70849e-24
1.09183e-23
1.00742e-23
1.15223e-23
-7.68119e-24
1.6098e-23
4.42671e-24
7.97078e-24
3.75323e-23
9.18288e-24
-2.62547e-23
2.99649e-24
-4.9906e-23
5.13574e-24
-6.38427e-23
2.25611e-23
-1.5512e-24
3.45812e-23
5.98619e-23
3.91743e-23
4.04677e-23
-3.32445e-24
-1.22037e-23
-2.61321e-24
-9.88032e-25
-2.25428e-23
6.29655e-24
-3.42841e-23
-1.16846e-23
-2.5726e-23
2.4132e-23
-1.52091e-24
1.23244e-23
-1.65736e-23
2.68549e-24
-1.88947e-23
-1.07646e-23
-4.13154e-23
3.70173e-24
-4.87871e-23
-2.31926e-23
-4.91905e-23
-2.69651e-23
-4.44163e-23
-2.50507e-23
-4.22135e-23
-9.96186e-25
-2.89256e-23
1.66521e-24
-2.54006e-23
-1.19815e-23
-1.60629e-23
-2.81131e-23
1.65037e-24
-7.93346e-23
-2.16056e-25
-3.37234e-23
1.24092e-23
-4.42877e-23
4.6462e-24
-1.68521e-23
-1.76971e-26
-2.4032e-23
-8.00111e-24
-2.65233e-23
-7.60076e-24
-3.68087e-23
-1.52507e-23
-4.46867e-23
-1.32909e-23
-4.76371e-23
-1.37021e-23
-3.76085e-23
-1.65173e-23
-3.81983e-23
-4.03687e-24
-1.47162e-23
5.31258e-24
-8.97637e-24
6.1284e-24
5.73778e-24
-2.00445e-24
-1.23713e-23
-4.26179e-24
-1.44422e-24
-1.40518e-25
2.12335e-23
-2.7962e-25
-6.03997e-23
-3.43085e-24
-1.23826e-23
5.2386e-24
-9.95967e-24
3.81619e-24
1.6444e-23
6.90718e-24
5.35776e-23
1.3076e-23
-5.50024e-24
1.13596e-23
-5.25593e-23
1.3252e-23
-1.0146e-22
1.90663e-23
-1.553e-22
1.54871e-23
1.34751e-23
-5.65409e-24
-1.89337e-23
4.82387e-24
-6.44272e-24
-2.57829e-23
5.81143e-24
-1.838e-23
6.48017e-24
-2.65792e-23
1.92479e-23
-1.80815e-23
9.00169e-24
-1.70287e-23
-2.23761e-23
-2.13595e-23
-2.67095e-23
-2.19674e-23
7.1551e-24
-4.27019e-24
-1.55724e-23
-2.85836e-23
-2.69919e-23
-3.03864e-23
-1.43731e-23
-2.71993e-23
1.3742e-24
-1.28376e-23
1.63028e-23
-9.29713e-24
1.97869e-23
-3.1106e-24
-4.07961e-23
-2.22114e-23
-4.75968e-23
-2.79836e-23
-4.41148e-23
-2.95343e-23
-7.16116e-23
-3.2862e-23
-4.63395e-23
-3.13696e-23
-3.34327e-23
-2.76017e-23
-5.01619e-23
-3.26492e-23
-4.92494e-23
-1.75336e-23
-5.62243e-23
-9.93302e-24
-6.52569e-23
-3.88649e-24
-9.44551e-24
2.84356e-24
-1.74122e-23
1.02279e-24
-4.53332e-23
5.34906e-24
-3.34891e-23
4.47542e-24
-1.88805e-23
1.22559e-23
-2.3601e-23
9.82178e-24
5.96007e-24
1.57567e-23
-7.1312e-25
1.06963e-23
-9.01002e-24
8.88405e-24
-1.08734e-23
1.23817e-23
6.25834e-24
1.36246e-23
1.00651e-23
1.4888e-23
1.87948e-23
1.35685e-23
2.82309e-23
1.21638e-23
-4.16945e-23
8.39362e-24
-1.05254e-22
6.26645e-24
-1.04742e-22
1.33681e-23
-7.91445e-23
2.27435e-23
3.05529e-23
-8.85228e-24
-2.45675e-23
7.71815e-24
-7.53549e-24
-2.882e-23
-7.10536e-24
-2.05962e-23
1.1518e-23
-1.24642e-23
1.99749e-23
-1.64821e-23
5.11623e-24
-4.84161e-23
-3.68273e-23
-6.37546e-23
-1.55396e-23
-4.39819e-23
-2.27937e-23
-2.12522e-23
-1.89164e-23
-3.01926e-23
-2.6746e-23
-2.3778e-23
7.14555e-25
-2.19116e-23
6.27743e-24
-2.02827e-23
1.68217e-23
-1.33672e-23
-1.4831e-23
-4.31634e-23
-5.97176e-23
-5.19257e-23
-3.94453e-23
-5.03513e-23
-6.34883e-23
-3.91598e-23
-7.54404e-23
-2.31062e-23
-3.6955e-23
-6.04622e-24
-6.26296e-23
2.25842e-24
-1.44284e-23
6.51668e-24
-2.09942e-23
-1.16841e-24
-5.09791e-23
-7.03476e-24
-1.85082e-23
-2.59597e-24
-1.92522e-23
2.41627e-24
1.17587e-23
-3.02988e-26
-5.36245e-23
-8.35719e-24
8.31378e-25
-5.60613e-24
-3.55689e-23
-2.39683e-23
-9.34681e-24
-1.35721e-23
-1.00774e-23
-2.21653e-23
-1.8845e-23
-1.92633e-23
-1.04906e-23
-3.29166e-24
-7.90109e-24
6.03457e-24
-1.19811e-23
8.15775e-24
-2.04879e-23
1.26381e-23
-1.44001e-23
1.55928e-23
-1.76261e-23
1.59926e-23
-3.5041e-23
1.68321e-23
-2.23488e-23
2.16081e-23
-2.34676e-23
2.19474e-23
-4.42583e-23
1.7327e-23
1.14558e-23
-1.31293e-23
-3.74306e-24
1.30306e-23
-8.05492e-24
-3.14684e-23
-1.35224e-24
-3.17941e-23
2.38976e-24
-2.98212e-23
-2.25402e-24
-2.42876e-23
-1.20857e-23
-4.33494e-23
-3.10631e-23
-4.43665e-23
6.30454e-24
-4.44437e-23
-3.54452e-23
-5.50227e-23
-1.49909e-23
-5.29648e-23
-2.11695e-23
-5.46072e-23
-4.07688e-24
-3.79529e-23
1.61472e-23
-3.58902e-23
-3.10178e-23
-4.48615e-23
-3.45101e-23
-3.63446e-23
-5.57631e-23
-2.91334e-23
-1.66198e-23
-1.01515e-23
-2.93567e-23
-6.7725e-24
-2.39018e-23
-3.92467e-24
-2.72609e-23
-2.48978e-24
-2.85102e-23
7.48154e-24
-3.12393e-23
1.58913e-23
-4.65145e-23
1.94018e-23
-4.34988e-23
1.99606e-23
-2.49916e-23
1.05259e-23
-3.25989e-23
1.36163e-23
-3.90294e-23
1.32014e-23
-5.44528e-23
1.44719e-23
-1.02353e-22
1.29032e-23
-2.76479e-23
2.44822e-23
-7.18985e-23
2.61472e-23
-4.40402e-25
3.61539e-23
3.55246e-23
2.72967e-23
2.79309e-23
1.47981e-23
2.88109e-23
9.32873e-24
2.39918e-23
1.02935e-23
7.69337e-24
1.36537e-23
-2.05768e-23
1.35185e-23
-3.09803e-23
1.52651e-23
-3.77975e-23
1.45007e-23
-6.17654e-23
1.25262e-23
-9.3631e-23
1.59287e-23
-1.29028e-22
1.01512e-23
-1.65787e-22
3.88856e-24
1.80931e-24
-2.63429e-23
-2.04453e-23
1.63237e-23
-1.21812e-23
-4.52702e-23
-5.05206e-24
-2.91638e-23
-3.98724e-24
-3.60469e-23
-1.08801e-23
-4.70477e-23
-1.07469e-23
-4.47281e-23
-2.21789e-23
-3.7854e-23
-5.55584e-24
-3.36782e-23
-2.79115e-23
-3.57341e-23
-2.84649e-23
-3.63034e-23
-8.43659e-24
-4.28077e-23
-9.1135e-24
-5.37689e-23
3.30052e-24
-3.87686e-23
-9.20574e-24
-2.95334e-23
-3.2783e-23
-1.46241e-23
-1.99319e-23
-9.4534e-24
-1.62531e-23
-1.28352e-23
-1.83045e-23
-1.00009e-23
-1.63661e-23
-1.00134e-23
-2.24213e-23
-3.24681e-24
-1.09253e-23
-3.84193e-24
-3.2743e-23
-3.31328e-24
-6.70441e-23
6.99435e-24
-6.03501e-23
1.32033e-23
-3.49707e-23
2.50515e-23
-3.15896e-23
1.88438e-23
-3.74089e-23
2.26788e-23
-4.20345e-23
2.36574e-23
-4.48518e-23
2.32441e-23
-3.25584e-23
2.01296e-23
-2.19159e-23
1.38378e-23
-7.88865e-23
1.43217e-23
-4.88329e-23
2.14126e-23
-4.65788e-23
2.23943e-23
8.80597e-24
2.55994e-23
-2.18324e-24
2.09414e-23
3.72722e-24
1.83672e-23
-1.71528e-23
2.35592e-23
-3.47158e-23
2.43397e-23
-2.81269e-23
1.91359e-23
8.84157e-24
1.29102e-23
-1.04421e-22
4.25307e-24
-6.53777e-23
-8.66313e-25
-7.05831e-23
-4.3683e-24
-4.20299e-24
-3.87857e-23
-2.60359e-23
2.58392e-23
-4.60962e-24
-4.33411e-24
-1.12999e-23
-2.77346e-23
-1.02249e-23
-3.70166e-23
-4.19866e-24
-3.63336e-23
-1.16213e-23
-3.90037e-23
-2.02458e-23