/*--------------------------------*- C++ -*----------------------------------*\
  =========                 |
  \\      /  F ield         | OpenFOAM: The Open Source CFD Toolbox
   \\    /   O peration     | Website:  https://openfoam.org
    \\  /    A nd           | Version:  7
     \\/     M anipulation  |
\*---------------------------------------------------------------------------*/
FoamFile
{
    version     2.0;
    format      ascii;
    class       volScalarField;
    location    "92000";
    object      strainRate;
}
// * * * * * * * * * * * * * * * * * * * * * * * * * * * * * * * * * * * * * //

dimensions      [0 0 -1 0 0 0 0];

internalField   nonuniform List<scalar> 
4783
(
0.00314051
0.00300882
0.00295745
0.00288782
0.00281079
0.00273116
0.00265094
0.00257117
0.0024925
0.0024154
0.00234033
0.00226769
0.00219789
0.00213133
0.00206841
0.00200954
0.00195512
0.00190552
0.00186115
0.00182234
0.00178944
0.00176273
0.00385982
0.00347277
0.00340519
0.00332226
0.00322915
0.00313139
0.00303257
0.00293482
0.0028394
0.0027471
0.00265847
0.00257392
0.00249381
0.00241845
0.00234814
0.00228317
0.00222381
0.0021703
0.00212288
0.00208179
0.00204721
0.00201933
0.00417868
0.0037246
0.00363002
0.00354145
0.00345112
0.00335813
0.00326377
0.00316964
0.00307703
0.00298692
0.00290004
0.00281692
0.00273803
0.00266375
0.0025944
0.00253029
0.00247172
0.00241894
0.00237219
0.00233169
0.00229763
0.00227019
0.00441959
0.00397636
0.00386444
0.00376408
0.00366912
0.00357605
0.00348377
0.00339243
0.0033027
0.0032153
0.00313088
0.00305
0.00297313
0.00290068
0.00283301
0.00277043
0.00271324
0.0026617
0.00261605
0.00257651
0.00254325
0.00251646
0.00464282
0.00422004
0.00410317
0.00399536
0.00389473
0.00379879
0.00370589
0.00361535
0.00352713
0.00344155
0.00335902
0.00328
0.0032049
0.00313412
0.003068
0.00300686
0.00295098
0.00290062
0.00285603
0.0028174
0.00278492
0.00275875
0.00485905
0.00445611
0.00433897
0.00422827
0.00412401
0.00402522
0.00393073
0.00383976
0.00375195
0.00366729
0.00358598
0.00350831
0.00343459
0.00336517
0.00330036
0.00324045
0.00318572
0.00313641
0.00309275
0.00305494
0.00302316
0.00299755
0.00507155
0.00468671
0.00457053
0.00445926
0.0043534
0.00425278
0.00415686
0.0040651
0.00397714
0.00389282
0.00381218
0.0037354
0.00366269
0.00359432
0.00353056
0.00347167
0.00341791
0.00336949
0.00332664
0.00328955
0.00325837
0.00323326
0.00528187
0.00491344
0.00479837
0.00468746
0.00458119
0.00447971
0.0043829
0.00429048
0.00420221
0.00411794
0.00403765
0.00396142
0.00388942
0.00382183
0.0037589
0.00370083
0.00364786
0.0036002
0.00355804
0.00352155
0.0034909
0.00346622
0.00549085
0.00513736
0.0050233
0.00491301
0.00480689
0.0047052
0.00460798
0.00451517
0.00442666
0.00434235
0.00426224
0.00418637
0.00411486
0.00404787
0.00398557
0.00392816
0.00387584
0.0038288
0.00378721
0.00375124
0.00372103
0.00369672
0.00569903
0.00535916
0.00524596
0.00513632
0.00503059
0.00492901
0.00483171
0.00473876
0.00465014
0.00456583
0.00448584
0.00441022
0.00433907
0.00427252
0.00421071
0.00415382
0.00410203
0.0040555
0.00401439
0.00397885
0.00394903
0.00392502
0.00590677
0.00557935
0.00546687
0.00535784
0.00525254
0.00515122
0.00505404
0.00496112
0.00487251
0.00478824
0.00470837
0.00463295
0.00456208
0.00449587
0.00443445
0.00437798
0.00432661
0.0042805
0.00423979
0.00420461
0.0041751
0.00415136
0.00611432
0.00579832
0.00568644
0.00557793
0.00547306
0.00537204
0.00527507
0.00518227
0.00509374
0.00500957
0.00492983
0.00485458
0.00478394
0.004718
0.0046569
0.00460077
0.00454975
0.00450398
0.00446359
0.00442872
0.00439948
0.00437595
0.00632191
0.00601638
0.00590498
0.00579691
0.00569242
0.00559171
0.00549496
0.00540233
0.00531393
0.00522988
0.00515027
0.00507519
0.00500474
0.00493903
0.00487819
0.00482233
0.0047716
0.00472611
0.004686
0.00465138
0.00462235
0.004599
0.0065297
0.0062338
0.00612277
0.00601506
0.00591088
0.00581044
0.00571391
0.00562145
0.00553321
0.00544929
0.00536981
0.00529488
0.0052246
0.00515908
0.00509845
0.00504282
0.00499231
0.00494706
0.00490717
0.00487274
0.00484389
0.00482069
0.00673783
0.00645079
0.00634005
0.00623261
0.00612869
0.00602847
0.00593213
0.00583983
0.00575172
0.00566793
0.00558857
0.00551376
0.00544363
0.00537827
0.00531781
0.00526236
0.00521205
0.00516698
0.00512727
0.005093
0.00694643
0.00666756
0.00655702
0.00644978
0.00634605
0.006246
0.00614981
0.00605764
0.00596964
0.00588595
0.0058067
0.005732
0.00566198
0.00559675
0.00553642
0.00548112
0.00543096
0.00538604
0.00534647
0.00715564
0.0068843
0.00677388
0.00666676
0.00656315
0.00646322
0.00636713
0.00627506
0.00618714
0.00610353
0.00602435
0.00594973
0.00587979
0.00581465
0.00575443
0.00569925
0.00564921
0.00736556
0.00710117
0.0069908
0.00688374
0.00678019
0.00668031
0.00658428
0.00649225
0.00640438
0.00632081
0.00624168
0.0061671
0.00609722
0.00603214
0.00757632
0.00731835
0.00720795
0.00710088
0.00699732
0.00689744
0.00680141
0.00670939
0.00662152
0.00653796
0.00645883
0.00638427
0.00778801
0.00753598
0.00742549
0.00731833
0.00721471
0.00711477
0.00701869
0.00692663
0.00683872
0.00675511
0.00800074
0.00775419
0.00764355
0.00753626
0.00743251
0.00733246
0.00723628
0.00714411
0.00705611
0.00821461
0.00797314
0.00786228
0.00775478
0.00765085
0.00755064
0.0074543
0.00736199
0.00842973
0.00819295
0.0080818
0.00797405
0.00786988
0.00776945
0.0076729
0.00864619
0.00841375
0.00830227
0.0081942
0.00808974
0.00798903
0.00886411
0.00863567
0.00852379
0.00841536
0.00831055
0.00820951
0.00908357
0.00885883
0.00874651
0.00863765
0.00853243
0.00930468
0.00908334
0.00897052
0.00886119
0.00952755
0.00930934
0.00919596
0.0090861
0.00975227
0.00953695
0.00942296
0.00997895
0.00976627
0.00965162
0.0102077
0.00999742
0.00988207
0.0104386
0.0102305
0.0101144
0.0106717
0.0104657
0.0103488
0.0109073
0.010703
0.0105853
0.0111453
0.0109427
0.0108241
0.0113859
0.0111848
0.0110652
0.0116293
0.0114294
0.0113088
0.0118754
0.0116767
0.011555
0.0121245
0.0119267
0.011804
0.0123766
0.0121797
0.0120558
0.0126319
0.0124357
0.0123106
0.0128905
0.0126949
0.0125685
0.00314049
0.00385981
0.00417868
0.00441959
0.00464282
0.00485906
0.00507157
0.00528188
0.00549087
0.00569905
0.00590679
0.00611435
0.00632194
0.00652973
0.00673786
0.00694647
0.00715568
0.0073656
0.00757636
0.00778805
0.00800078
0.00821465
0.00842977
0.00864623
0.00886414
0.00908361
0.00930472
0.00952759
0.00975231
0.00997898
0.0102077
0.0104386
0.0106718
0.0109073
0.0111453
0.0113859
0.0116293
0.0118754
0.0121245
0.0123766
0.0126319
0.0128905
0.00300883
0.00347278
0.00372461
0.00397637
0.00422005
0.00445612
0.00468673
0.00491346
0.00513738
0.00535918
0.00557938
0.00579835
0.00601641
0.00623382
0.00645081
0.00666758
0.00688433
0.00710121
0.00731839
0.00753601
0.00775423
0.00797317
0.00819298
0.00841378
0.00863569
0.00885885
0.00908337
0.00930937
0.00953697
0.00976629
0.00999743
0.0102305
0.0104657
0.010703
0.0109427
0.0111848
0.0114294
0.0116766
0.0119267
0.0121797
0.0124357
0.0126948
0.00295746
0.00340521
0.00363004
0.00386446
0.00410319
0.004339
0.00457055
0.0047984
0.00502333
0.00524599
0.00546691
0.00568648
0.00590502
0.00612281
0.00634009
0.00655706
0.00677393
0.00699085
0.00720801
0.00742554
0.0076436
0.00786232
0.00808185
0.00830232
0.00852384
0.00874655
0.00897057
0.00919601
0.009423
0.00965166
0.0098821
0.0101144
0.0103488
0.0105853
0.010824
0.0110651
0.0113087
0.011555
0.0118039
0.0120557
0.0123105
0.0125684
0.00288784
0.00332228
0.00354148
0.0037641
0.00399539
0.0042283
0.0044593
0.0046875
0.00491305
0.00513637
0.00535789
0.00557799
0.00579697
0.00601512
0.00623267
0.00644984
0.00666683
0.00688381
0.00710095
0.0073184
0.00753632
0.00775485
0.00797412
0.00819427
0.00841543
0.00863772
0.00886127
0.00908619
0.0093126
0.00954063
0.00977039
0.010002
0.0102356
0.0104713
0.0107091
0.0109493
0.011192
0.0114372
0.0116851
0.0119358
0.0121895
0.0124461
0.00281081
0.00322918
0.00345115
0.00366916
0.00389476
0.00412405
0.00435345
0.00458123
0.00480694
0.00503065
0.00525261
0.00547313
0.00569249
0.00591096
0.00612877
0.00634613
0.00656324
0.00678028
0.00699741
0.0072148
0.00743259
0.00765094
0.00786997
0.00808983
0.00831065
0.00853254
0.00875565
0.00898007
0.00920594
0.00943338
0.0096625
0.00989342
0.0101263
0.0103612
0.0105982
0.0108376
0.0110793
0.0113235
0.0115704
0.0118201
0.0120726
0.0123282
0.00273119
0.00313143
0.00335816
0.0035761
0.00379883
0.00402526
0.00425283
0.00447977
0.00470526
0.00492908
0.0051513
0.00537213
0.0055918
0.00581054
0.00602857
0.0062461
0.00646333
0.00668042
0.00689756
0.00711489
0.00733257
0.00755075
0.00776957
0.00798916
0.00820966
0.00843118
0.00865387
0.00887783
0.00910319
0.00933007
0.00955859
0.00978887
0.010021
0.0102552
0.0104915
0.01073
0.0109708
0.0112142
0.0114601
0.0117087
0.0119602
0.0122146
0.00265098
0.00303262
0.00326382
0.00348381
0.00370594
0.00393078
0.00415692
0.00438297
0.00460805
0.0048318
0.00505413
0.00527516
0.00549506
0.00571402
0.00593225
0.00614993
0.00636726
0.00658441
0.00680155
0.00701884
0.00723642
0.00745445
0.00767307
0.00789241
0.00811261
0.0083338
0.0085561
0.00877962
0.0090045
0.00923086
0.00945882
0.00968849
0.00991999
0.0101534
0.010389
0.0106267
0.0108667
0.0111092
0.0113542
0.0116019
0.0118524
0.0121058
0.00257122
0.00293488
0.00316969
0.00339249
0.00361541
0.00383982
0.00406517
0.00429056
0.00451525
0.00473885
0.00496122
0.00518238
0.00540244
0.00562158
0.00583996
0.00605778
0.0062752
0.00649241
0.00670955
0.0069268
0.0071443
0.00736219
0.00758063
0.00779975
0.00801967
0.00824054
0.00846248
0.0086856
0.00891004
0.0091359
0.00936333
0.00959243
0.00982332
0.0100561
0.010291
0.0105279
0.0107672
0.0110088
0.011253
0.0114998
0.0117493
0.0120017
0.00249255
0.00283946
0.00307709
0.00330277
0.0035272
0.00375202
0.00397722
0.00420229
0.00442675
0.00465024
0.00487262
0.00509386
0.00531406
0.00553334
0.00575187
0.0059698
0.00618731
0.00640456
0.00662171
0.00683893
0.00705635
0.00727413
0.0074924
0.00771131
0.00793099
0.00815156
0.00837316
0.00859591
0.00881994
0.00904535
0.00927228
0.00950084
0.00973115
0.00996334
0.0101975
0.0104338
0.0106723
0.0109132
0.0111566
0.0114025
0.0116512
0.0119026
0.00241546
0.00274717
0.002987
0.00321537
0.00344163
0.00366738
0.00389291
0.00411803
0.00434245
0.00456594
0.00478836
0.0050097
0.00523002
0.00544943
0.00566808
0.00588612
0.00610371
0.00632101
0.00653818
0.00675537
0.00697273
0.0071904
0.00740852
0.00762724
0.00784669
0.008067
0.00828829
0.0085107
0.00873434
0.00895933
0.0091858
0.00941386
0.00964364
0.00987525
0.0101088
0.0103445
0.0105823
0.0108225
0.0110651
0.0113102
0.011558
0.0118086
0.00234039
0.00265855
0.00290012
0.00313096
0.00335911
0.00358608
0.00381228
0.00403775
0.00426235
0.00448596
0.0047085
0.00492997
0.00515042
0.00536996
0.00558874
0.00580688
0.00602455
0.0062419
0.00645909
0.00667626
0.00689356
0.00711114
0.00732914
0.0075477
0.00776693
0.00798699
0.008208
0.0084301
0.00865338
0.00887798
0.00910402
0.00933163
0.00956092
0.009792
0.010025
0.01026
0.0104973
0.0107367
0.0109786
0.011223
0.0114701
0.0117199
0.00226776
0.002574
0.00281702
0.00305009
0.0032801
0.00350841
0.00373551
0.00396153
0.00418649
0.00441035
0.00463309
0.00485473
0.00507535
0.00529504
0.00551395
0.0057322
0.00594996
0.00616736
0.00638457
0.00660173
0.00681899
0.0070365
0.00725438
0.00747279
0.00769184
0.00791168
0.00813244
0.00835423
0.00857719
0.00880143
0.00902708
0.00925427
0.0094831
0.0097137
0.00994617
0.0101807
0.0104173
0.0106561
0.0108974
0.0111411
0.0113874
0.0116365
0.0118884
0.00219797
0.0024939
0.00273813
0.00297323
0.00320501
0.00343471
0.00366281
0.00388954
0.004115
0.00433921
0.00456223
0.0047841
0.00500491
0.00522477
0.00544382
0.0056622
0.00588004
0.00609751
0.00631475
0.00653192
0.00674915
0.00696659
0.00718437
0.00740264
0.00762153
0.00784117
0.0080617
0.00828324
0.0085059
0.00872981
0.0089551
0.0091819
0.00941032
0.00964047
0.00987246
0.0101064
0.0103425
0.0105808
0.0108214
0.0110645
0.0113102
0.0115586
0.0118098
0.0120639
0.00213142
0.00241855
0.00266386
0.00290079
0.00313424
0.0033653
0.00359446
0.00382197
0.00404801
0.00427267
0.00449603
0.00471817
0.00493921
0.00515927
0.00537848
0.00559698
0.00581493
0.00603247
0.00624976
0.00646693
0.00668414
0.00690153
0.00711923
0.00733739
0.00755613
0.0077756
0.00799592
0.00821722
0.00843961
0.00866323
0.0088882
0.00911465
0.00934268
0.00957242
0.00980397
0.0100375
0.0102731
0.0105108
0.0107509
0.0109934
0.0112385
0.0114862
0.0117367
0.0119902
0.00206851
0.00234826
0.00259452
0.00283313
0.00306813
0.0033005
0.00353071
0.00375905
0.00398572
0.00421087
0.00443462
0.00465708
0.00487838
0.00509865
0.00531803
0.00553668
0.00575474
0.00597236
0.00618969
0.00640689
0.0066241
0.00684144
0.00705908
0.00727713
0.00749575
0.00771507
0.00793521
0.0081563
0.00837846
0.00860181
0.00882649
0.00905261
0.00928029
0.00950966
0.00974082
0.0099739
0.010209
0.0104463
0.0106859
0.0109279
0.0111723
0.0114195
0.0116694
0.0119222
0.0121781
0.00200965
0.0022833
0.00253043
0.00277057
0.003007
0.0032406
0.00347183
0.003701
0.00392833
0.004154
0.00437816
0.00460096
0.00482254
0.00504303
0.0052626
0.0054814
0.00569958
0.00591729
0.00613468
0.00635191
0.00656911
0.00678643
0.00700401
0.00722199
0.0074405
0.00765969
0.00787967
0.00810057
0.00832252
0.00854564
0.00877006
0.00899589
0.00922326
0.00945229
0.00968309
0.00991579
0.0101505
0.0103874
0.0106265
0.010868
0.011112
0.0113586
0.011608
0.0118602
0.0121155
0.00195523
0.00222394
0.00247187
0.00271339
0.00295113
0.00318588
0.00341808
0.00364804
0.00387602
0.00410221
0.0043268
0.00454995
0.00477181
0.00499255
0.00521231
0.00543126
0.00564956
0.00586736
0.00608482
0.00630208
0.00651929
0.0067366
0.00695414
0.00717205
0.00739048
0.00760955
0.00782939
0.00805013
0.0082719
0.00849481
0.00871899
0.00894457
0.00917167
0.00940039
0.00963088
0.00986324
0.0100976
0.0103341
0.0105728
0.0108138
0.0110574
0.0113035
0.0115524
0.0118041
0.0120589
0.0123167
0.00190565
0.00217044
0.0024191
0.00266187
0.00290079
0.00313658
0.00336967
0.00360038
0.00382898
0.00405569
0.0042807
0.00450419
0.00472634
0.00494731
0.00516726
0.00538637
0.0056048
0.00582269
0.00604021
0.00625751
0.00647474
0.00669204
0.00690956
0.00712742
0.00734577
0.00756474
0.00778446
0.00800507
0.00822667
0.00844941
0.00867339
0.00889875
0.0091256
0.00935406
0.00958425
0.00981631
0.0100504
0.0102865
0.0105248
0.0107655
0.0110087
0.0112544
0.0115028
0.0117541
0.0120084
0.0122658
0.0125263
0.00186129
0.00212304
0.00237236
0.00261623
0.00285621
0.00309294
0.00332683
0.00355823
0.0037874
0.00401459
0.00423999
0.00446381
0.00468623
0.00490743
0.00512758
0.00534684
0.00556538
0.00578337
0.00600096
0.0062183
0.00643555
0.00665285
0.00687034
0.00708817
0.00730646
0.00752535
0.00774498
0.00796546
0.00818693
0.0084095
0.00863331
0.00885848
0.00908512
0.00931336
0.00954331
0.00977511
0.0100089
0.0102447
0.0104827
0.0107231
0.0109659
0.0112113
0.0114593
0.0117102
0.0119641
0.012221
0.0124811
0.00182249
0.00208195
0.00233187
0.0025767
0.00281759
0.00305514
0.00328975
0.00352175
0.00375144
0.00397906
0.00420483
0.00442895
0.00465162
0.00487303
0.00509335
0.00531275
0.00553141
0.00574949
0.00596714
0.00618453
0.0064018
0.0066191
0.00683658
0.00705438
0.00727262
0.00749145
0.00771099
0.00793137
0.00815272
0.00837517
0.00859884
0.00882384
0.00905031
0.00927836
0.00950811
0.00973969
0.0099732
0.0102088
0.0104465
0.0106866
0.0109291
0.0111742
0.0114219
0.0116725
0.011926
0.0121825
0.0124423
0.0017896
0.00204739
0.00229783
0.00254345
0.00278512
0.00302336
0.00325858
0.00349111
0.00372124
0.00394924
0.00417532
0.00439971
0.00462261
0.0048442
0.00506467
0.00528421
0.00550297
0.00572112
0.00593883
0.00615626
0.00637356
0.00659087
0.00680834
0.00702611
0.00724432
0.00746309
0.00768257
0.00790287
0.00812413
0.00834647
0.00857001
0.00879489
0.00902121
0.0092491
0.00947868
0.00971008
0.0099434
0.0101788
0.0104163
0.0106562
0.0108984
0.0111432
0.0113907
0.011641
0.0118942
0.0121504
0.0124098
0.00176289
0.00201951
0.00227038
0.00251666
0.00275896
0.00299776
0.00323347
0.00346643
0.00369693
0.00392524
0.00415159
0.0043762
0.00459928
0.00482103
0.00504163
0.00526127
0.00548012
0.00569834
0.00591611
0.00613357
0.00635089
0.0065682
0.00678567
0.00700343
0.00722161
0.00744035
0.00765977
0.00788001
0.00810119
0.00832345
0.0085469
0.00877167
0.00899787
0.00922563
0.00945508
0.00968632
0.00991949
0.0101547
0.0103921
0.0106317
0.0108738
0.0111184
0.0113657
0.0116157
0.0118687
0.0121247
0.0123838
0.0126463
0.00174264
0.00199847
0.00224968
0.00249645
0.00273922
0.00297845
0.00321454
0.00344782
0.00367861
0.00390715
0.0041337
0.00435849
0.00458171
0.00480358
0.00502429
0.00524401
0.00546293
0.0056812
0.00589901
0.0061165
0.00633384
0.00655116
0.00676863
0.00698638
0.00720454
0.00742325
0.00764263
0.00786283
0.00808396
0.00830615
0.00852953
0.00875422
0.00898034
0.00920801
0.00943735
0.00966848
0.00990153
0.0101366
0.0103739
0.0106134
0.0108553
0.0110998
0.0113469
0.0115967
0.0118495
0.0121053
0.0123643
0.0126266
0.00172902
0.00198438
0.00223582
0.00248292
0.00272601
0.00296553
0.00320187
0.00343537
0.00366634
0.00389505
0.00412174
0.00434665
0.00456997
0.00479192
0.0050127
0.00523248
0.00545144
0.00566975
0.00588759
0.0061051
0.00632245
0.00653979
0.00675725
0.00697499
0.00719315
0.00741184
0.0076312
0.00785136
0.00807245
0.0082946
0.00851794
0.00874258
0.00896864
0.00919625
0.00942552
0.00965658
0.00988955
0.0101246
0.0103617
0.0106011
0.010843
0.0110873
0.0113343
0.0115841
0.0118367
0.0120925
0.0123513
0.0126135
0.0128791
0.00172217
0.00197731
0.00222887
0.00247614
0.00271939
0.00295905
0.00319551
0.00342913
0.0036602
0.00388899
0.00411575
0.00434071
0.00456409
0.00478608
0.00500689
0.0052267
0.00544569
0.00566402
0.00588187
0.00609939
0.00631675
0.00653409
0.00675156
0.0069693
0.00718744
0.00740612
0.00762547
0.00784562
0.0080667
0.00828883
0.00851215
0.00873676
0.00896279
0.00919037
0.00941961
0.00965063
0.00988356
0.0101185
0.0103556
0.010595
0.0108368
0.0110811
0.011328
0.0115777
0.0118304
0.012086
0.0123448
0.0126069
0.0128725
0.00172217
0.00197731
0.00222886
0.00247613
0.00271938
0.00295904
0.00319551
0.00342913
0.00366019
0.00388898
0.00411574
0.00434071
0.00456408
0.00478608
0.00500689
0.00522669
0.00544568
0.00566402
0.00588187
0.00609939
0.00631675
0.00653409
0.00675156
0.0069693
0.00718744
0.00740613
0.00762548
0.00784564
0.00806672
0.00828885
0.00851216
0.00873678
0.00896281
0.00919038
0.00941962
0.00965064
0.00988357
0.0101185
0.0103556
0.010595
0.0108368
0.0110811
0.011328
0.0115777
0.0118304
0.012086
0.0123448
0.012607
0.0128725
0.0131417
0.00172901
0.00198437
0.00223581
0.00248291
0.002726
0.00296552
0.00320185
0.00343536
0.00366633
0.00389504
0.00412173
0.00434663
0.00456996
0.00479191
0.00501269
0.00523247
0.00545143
0.00566974
0.00588758
0.0061051
0.00632245
0.00653979
0.00675726
0.00697501
0.00719316
0.00741185
0.00763122
0.0078514
0.0080725
0.00829465
0.00851799
0.00874262
0.00896868
0.00919629
0.00942556
0.00965662
0.00988959
0.0101246
0.0103617
0.0106012
0.010843
0.0110873
0.0113343
0.0115841
0.0118368
0.0120925
0.0123514
0.0126136
0.0128792
0.0131484
0.00174262
0.00199845
0.00224966
0.00249643
0.00273921
0.00297843
0.00321452
0.0034478
0.00367858
0.00390713
0.00413368
0.00435847
0.0045817
0.00480357
0.00502427
0.005244
0.00546291
0.00568119
0.005899
0.0061165
0.00633384
0.00655118
0.00676865
0.0069864
0.00720457
0.00742328
0.00764268
0.00786289
0.00808403
0.00830622
0.00852961
0.00875429
0.00898041
0.00920807
0.00943741
0.00966854
0.00990159
0.0101367
0.0103739
0.0106134
0.0108554
0.0110998
0.0113469
0.0115968
0.0118496
0.0121054
0.0123644
0.0126267
0.0128925
0.0131619
0.00176287
0.00201949
0.00227036
0.00251664
0.00275893
0.00299773
0.00323344
0.0034664
0.0036969
0.00392521
0.00415156
0.00437618
0.00459926
0.00482101
0.00504161
0.00526125
0.0054801
0.00569832
0.00591609
0.00613356
0.00635089
0.00656822
0.0067857
0.00700347
0.00722166
0.0074404
0.00765984
0.00788009
0.00810128
0.00832354
0.008547
0.00877176
0.00899797
0.00922573
0.00945516
0.00968641
0.00991958
0.0101548
0.0103922
0.0106318
0.0108739
0.0111185
0.0113657
0.0116158
0.0118687
0.0121248
0.012384
0.0126465
0.0129125
0.013182
0.00178957
0.00204736
0.0022978
0.00254342
0.00278509
0.00302333
0.00325854
0.00349107
0.00372121
0.0039492
0.00417529
0.00439969
0.00462258
0.00484417
0.00506465
0.00528418
0.00550294
0.0057211
0.00593882
0.00615625
0.00637357
0.00659089
0.00680838
0.00702616
0.00724438
0.00746317
0.00768265
0.00790296
0.00812423
0.00834658
0.00857013
0.00879501
0.00902133
0.00924922
0.00947879
0.00971019
0.00994351
0.0101789
0.0104164
0.0106563
0.0108985
0.0111433
0.0113908
0.0116411
0.0118943
0.0121505
0.01241
0.0126728
0.012939
0.0132089
0.00182246
0.00208192
0.00233184
0.00257666
0.00281755
0.0030551
0.0032897
0.00352171
0.0037514
0.00397902
0.00420479
0.00442892
0.00465159
0.004873
0.00509332
0.00531272
0.00553139
0.00574947
0.00596713
0.00618453
0.00640181
0.00661913
0.00683663
0.00705444
0.00727269
0.00749153
0.00771109
0.00793148
0.00815285
0.0083753
0.00859897
0.00882398
0.00905046
0.00927851
0.00950825
0.00973983
0.00997335
0.0102089
0.0104467
0.0106868
0.0109293
0.0111743
0.0114221
0.0116726
0.0119261
0.0121827
0.0124425
0.0127056
0.0129722
0.0132424
0.00186125
0.002123
0.00237232
0.00261619
0.00285616
0.00309289
0.00332678
0.00355818
0.00378736
0.00401455
0.00423995
0.00446378
0.0046862
0.0049074
0.00512755
0.00534681
0.00556536
0.00578336
0.00600096
0.00621831
0.00643557
0.00665289
0.0068704
0.00708823
0.00730654
0.00752545
0.00774509
0.00796559
0.00818707
0.00840965
0.00863347
0.00885865
0.0090853
0.00931354
0.0095435
0.0097753
0.0100091
0.0102449
0.0104829
0.0107233
0.0109661
0.0112114
0.0114595
0.0117104
0.0119642
0.0122212
0.0124813
0.0127449
0.0130119
0.0132825
0.00190561
0.00217039
0.00241905
0.00266182
0.00290074
0.00313653
0.00336962
0.00360033
0.00382893
0.00405564
0.00428065
0.00450415
0.0047263
0.00494728
0.00516724
0.00538635
0.00560479
0.00582269
0.00604022
0.00625753
0.00647477
0.00669208
0.00690961
0.00712749
0.00734586
0.00756485
0.0077846
0.00800522
0.00822683
0.00844958
0.00867357
0.00889894
0.0091258
0.00935428
0.00958448
0.00981654
0.0100506
0.0102867
0.010525
0.0107657
0.0110089
0.0112546
0.011503
0.0117543
0.0120086
0.012266
0.0125266
0.0127906
0.0130581
0.0133292
0.00195518
0.00222389
0.00247181
0.00271334
0.00295108
0.00318583
0.00341802
0.00364798
0.00387597
0.00410217
0.00432676
0.00454991
0.00477178
0.00499252
0.00521229
0.00543125
0.00564956
0.00586737
0.00608483
0.0063021
0.00651932
0.00673665
0.00695421
0.00717214
0.00739058
0.00760967
0.00782954
0.0080503
0.00827208
0.00849501
0.0087192
0.00894479
0.0091719
0.00940063
0.00963112
0.00986348
0.0100978
0.0103343
0.010573
0.010814
0.0110576
0.0113037
0.0115526
0.0118044
0.0120591
0.012317
0.0125781
0.0128426
0.0131107
0.0133824
0.0020096
0.00228324
0.00253037
0.00277051
0.00300694
0.00324055
0.00347177
0.00370094
0.00392828
0.00415395
0.00437812
0.00460093
0.00482251
0.00504301
0.00526259
0.0054814
0.00569958
0.0059173
0.0061347
0.00635193
0.00656914
0.00678648
0.00700409
0.00722209
0.00744062
0.00765983
0.00787983
0.00810076
0.00832272
0.00854586
0.00877029
0.00899613
0.00922351
0.00945255
0.00968335
0.00991605
0.0101508
0.0103876
0.0106267
0.0108682
0.0111122
0.0113588
0.0116082
0.0118605
0.0121157
0.0123742
0.0126359
0.012901
0.0131697
0.0134421
0.00206845
0.0023482
0.00259446
0.00283308
0.00306807
0.00330044
0.00353065
0.003759
0.00398568
0.00421083
0.00443459
0.00465705
0.00487836
0.00509864
0.00531803
0.00553668
0.00575475
0.00597238
0.00618972
0.00640692
0.00662413
0.0068415
0.00705916
0.00727724
0.00749589
0.00771523
0.00793539
0.0081565
0.00837868
0.00860205
0.00882675
0.00905288
0.00928057
0.00950993
0.00974109
0.00997417
0.0102093
0.0104466
0.0106861
0.0109281
0.0111726
0.0114197
0.0116697
0.0119225
0.0121784
0.0124375
0.0126998
0.0129657
0.013235
0.0135082
0.00213136
0.00241849
0.00266379
0.00290074
0.00313418
0.00336524
0.0035944
0.00382192
0.00404797
0.00427263
0.004496
0.00471815
0.0049392
0.00515927
0.00537848
0.005597
0.00581495
0.0060325
0.00624979
0.00646697
0.0066842
0.0069016
0.00711932
0.00733751
0.00755628
0.00777577
0.00799612
0.00821744
0.00843985
0.0086635
0.00888849
0.00911494
0.00934297
0.0095727
0.00980425
0.0100378
0.0102733
0.0105111
0.0107512
0.0109937
0.0112387
0.0114865
0.011737
0.0119905
0.012247
0.0125068
0.0127699
0.0130364
0.0133066
0.0135805
0.0021979
0.00249383
0.00273807
0.00297317
0.00320496
0.00343466
0.00366276
0.0038895
0.00411496
0.00433919
0.00456221
0.00478408
0.00500491
0.00522478
0.00544384
0.00566222
0.00588007
0.00609755
0.0063148
0.00653197
0.00674921
0.00696667
0.00718447
0.00740277
0.00762169
0.00784136
0.00806191
0.00828346
0.00850615
0.00873009
0.0089554
0.00918221
0.00941062
0.00964077
0.00987276
0.0101067
0.0103428
0.0105811
0.0108217
0.0110648
0.0113105
0.0115588
0.0118101
0.0120642
0.0123215
0.012582
0.0128459
0.0131133
0.0133843
0.0136591
0.00226769
0.00257394
0.00281695
0.00305003
0.00328004
0.00350836
0.00373546
0.0039615
0.00418647
0.00441033
0.00463308
0.00485473
0.00507535
0.00529506
0.00551397
0.00573224
0.00595
0.00616741
0.00638463
0.0066018
0.00681907
0.00703659
0.0072545
0.00747292
0.007692
0.00791187
0.00813265
0.00835447
0.00857745
0.00880172
0.00902739
0.00925458
0.00948341
0.00971401
0.00994649
0.010181
0.0104176
0.0106564
0.0108977
0.0111414
0.0113877
0.0116368
0.0118887
0.0121437
0.0124018
0.0126631
0.0129278
0.0131961
0.013468
0.0137438
0.00234033
0.00265848
0.00290005
0.0031309
0.00335906
0.00358603
0.00381225
0.00403772
0.00426233
0.00448595
0.00470849
0.00492997
0.00515044
0.00537
0.00558878
0.00580693
0.00602461
0.00624197
0.00645916
0.00667634
0.00689365
0.00711125
0.00732927
0.00754784
0.0077671
0.00798719
0.00820823
0.00843035
0.00865365
0.00887827
0.00910432
0.00933194
0.00956123
0.00979233
0.0100253
0.0102604
0.0104976
0.0107371
0.0109789
0.0112233
0.0114704
0.0117202
0.011973
0.0122287
0.0124876
0.0127499
0.0130155
0.0132848
0.0135577
0.0138345
0.00241539
0.0027471
0.00298693
0.00321532
0.00344158
0.00366734
0.00389288
0.00411801
0.00434244
0.00456594
0.00478837
0.00500972
0.00523005
0.00544948
0.00566813
0.00588618
0.00610378
0.00632109
0.00653826
0.00675546
0.00697283
0.00719052
0.00740866
0.0076274
0.00784687
0.00806721
0.00828853
0.00851096
0.00873461
0.00895962
0.0091861
0.00941418
0.00964398
0.00987561
0.0101092
0.0103448
0.0105827
0.0108228
0.0110654
0.0113105
0.0115584
0.011809
0.0120626
0.0123192
0.0125791
0.0128423
0.0131089
0.0133792
0.0136532
0.0139311
0.00249248
0.0028394
0.00307704
0.00330272
0.00352716
0.00375199
0.00397719
0.00420228
0.00442674
0.00465025
0.00487263
0.00509389
0.0053141
0.0055334
0.00575193
0.00596987
0.00618738
0.00640464
0.0066218
0.00683903
0.00705646
0.00727426
0.00749255
0.00771148
0.00793118
0.00815177
0.00837339
0.00859617
0.00882021
0.00904564
0.00927258
0.00950116
0.0097315
0.0099637
0.0101979
0.0104342
0.0106727
0.0109136
0.0111569
0.0114028
0.0116515
0.011903
0.0121575
0.0124151
0.0126759
0.0129401
0.0132079
0.0134792
0.0137544
0.0140335
0.00257115
0.00293481
0.00316964
0.00339244
0.00361537
0.00383979
0.00406516
0.00429055
0.00451526
0.00473887
0.00496125
0.00518242
0.0054025
0.00562165
0.00584004
0.00605787
0.00627529
0.0064925
0.00670965
0.00692691
0.00714442
0.00736234
0.0075808
0.00779993
0.00801987
0.00824076
0.00846271
0.00868586
0.00891031
0.0091362
0.00936364
0.00959275
0.00982366
0.0100565
0.0102913
0.0105283
0.0107675
0.0110092
0.0112533
0.0115001
0.0117497
0.0120021
0.0122576
0.0125162
0.0127781
0.0130434
0.0133122
0.0135848
0.0138612
0.0141415
0.00265092
0.00303256
0.00326377
0.00348377
0.00370591
0.00393076
0.00415691
0.00438297
0.00460807
0.00483182
0.00505418
0.00527522
0.00549513
0.00571411
0.00593234
0.00615003
0.00636737
0.00658452
0.00680166
0.00701896
0.00723656
0.00745461
0.00767325
0.0078926
0.00811282
0.00833402
0.00855633
0.00877988
0.00900477
0.00923115
0.00945912
0.00968881
0.00992033
0.0101538
0.0103893
0.0106271
0.0108671
0.0111095
0.0113545
0.0116022
0.0118527
0.0121062
0.0123627
0.0126223
0.0128853
0.0131518
0.0134219
0.0136957
0.0139733
0.014255
0.00273113
0.00313137
0.00335812
0.00357606
0.00379881
0.00402525
0.00425283
0.00447979
0.00470529
0.00492912
0.00515136
0.0053722
0.00559188
0.00581063
0.00602868
0.00624622
0.00646344
0.00668055
0.00689769
0.00711503
0.00733272
0.00755092
0.00776975
0.00798936
0.00820987
0.00843141
0.0086541
0.00887807
0.00910345
0.00933035
0.00955889
0.00978919
0.0100214
0.0102555
0.0104918
0.0107303
0.0109712
0.0112145
0.0114604
0.011709
0.0119606
0.012215
0.0124726
0.0127334
0.0129976
0.0132653
0.0135366
0.0138117
0.0140907
0.0143738
0.00281076
0.00322913
0.00345111
0.00366913
0.00389475
0.00412405
0.00435346
0.00458126
0.00480698
0.0050307
0.00525268
0.00547322
0.00569259
0.00591107
0.00612889
0.00634626
0.00656337
0.00678042
0.00699755
0.00721495
0.00743276
0.00765112
0.00787017
0.00809004
0.00831086
0.00853276
0.00875587
0.0089803
0.00920619
0.00943365
0.0096628
0.00989375
0.0101266
0.0103615
0.0105986
0.0108379
0.0110796
0.0113239
0.0115707
0.0118204
0.0120729
0.0123285
0.0125872
0.0128492
0.0131147
0.0133836
0.0136563
0.0139328
0.0142132
0.0144978
0.00288779
0.00332223
0.00354144
0.00376408
0.00399538
0.00422831
0.00445932
0.00468753
0.0049131
0.00513644
0.00535798
0.00557808
0.00579708
0.00601524
0.0062328
0.00644998
0.00666698
0.00688396
0.00710111
0.00731857
0.00753651
0.00775504
0.00797432
0.00819448
0.00841564
0.00863794
0.00886148
0.00908641
0.00931284
0.0095409
0.00977068
0.0100023
0.0102359
0.0104716
0.0107094
0.0109496
0.0111923
0.0114375
0.0116854
0.0119361
0.0121898
0.0124465
0.0127064
0.0129696
0.0132364
0.0135067
0.0137807
0.0140587
0.0143407
0.0146268
0.00295741
0.00340517
0.00363001
0.00386444
0.00410319
0.00433901
0.00457059
0.00479845
0.0050234
0.00524608
0.00546701
0.00568659
0.00590515
0.00612295
0.00634023
0.00655722
0.00677409
0.00699102
0.00720818
0.00742572
0.00764379
0.00786252
0.00808206
0.00830253
0.00852406
0.00874677
0.00897079
0.00919624
0.00942325
0.00965192
0.00988237
0.0101147
0.0103491
0.0105856
0.0108243
0.0110654
0.011309
0.0115552
0.0118042
0.012056
0.0123108
0.0125687
0.0128299
0.0130945
0.0133625
0.0136343
0.0139098
0.0141892
0.0144728
0.0147605