/*--------------------------------*- C++ -*----------------------------------*\
  =========                 |
  \\      /  F ield         | OpenFOAM: The Open Source CFD Toolbox
   \\    /   O peration     | Website:  https://openfoam.org
    \\  /    A nd           | Version:  7
     \\/     M anipulation  |
\*---------------------------------------------------------------------------*/
FoamFile
{
    version     2.0;
    format      ascii;
    class       volScalarField;
    location    "100000";
    object      k;
}
// * * * * * * * * * * * * * * * * * * * * * * * * * * * * * * * * * * * * * //

dimensions      [0 2 -2 0 0 0 0];

internalField   nonuniform List<scalar> 
4782
(
1.29404e-06
1.28525e-06
1.27582e-06
1.26569e-06
1.25485e-06
1.24324e-06
1.23081e-06
1.21753e-06
1.20332e-06
1.18814e-06
1.32468e-06
1.32871e-06
1.33259e-06
1.33632e-06
1.3399e-06
1.34333e-06
1.3466e-06
1.34971e-06
1.35266e-06
1.35544e-06
1.35805e-06
1.36048e-06
1.36274e-06
1.36481e-06
1.3667e-06
1.36839e-06
1.36988e-06
1.37117e-06
1.37225e-06
1.37312e-06
1.37377e-06
1.3742e-06
1.37439e-06
1.37435e-06
1.37407e-06
1.37353e-06
1.37273e-06
1.37166e-06
1.37031e-06
1.36868e-06
1.36675e-06
1.36451e-06
1.36195e-06
1.35906e-06
1.35581e-06
1.35221e-06
1.34823e-06
1.34386e-06
1.33907e-06
1.33385e-06
1.32818e-06
1.32204e-06
1.3154e-06
1.30823e-06
1.30051e-06
1.29221e-06
1.28329e-06
1.27372e-06
1.26347e-06
1.25249e-06
1.24074e-06
1.22817e-06
1.21473e-06
1.20037e-06
1.18503e-06
1.32651e-06
1.33048e-06
1.33429e-06
1.33796e-06
1.34148e-06
1.34484e-06
1.34805e-06
1.35109e-06
1.35397e-06
1.35669e-06
1.35923e-06
1.3616e-06
1.36378e-06
1.36578e-06
1.3676e-06
1.36921e-06
1.37063e-06
1.37185e-06
1.37286e-06
1.37365e-06
1.37422e-06
1.37457e-06
1.37469e-06
1.37457e-06
1.3742e-06
1.37358e-06
1.3727e-06
1.37155e-06
1.37011e-06
1.36839e-06
1.36638e-06
1.36405e-06
1.36139e-06
1.35841e-06
1.35507e-06
1.35137e-06
1.34729e-06
1.34281e-06
1.33792e-06
1.3326e-06
1.32682e-06
1.32056e-06
1.3138e-06
1.30652e-06
1.29868e-06
1.29025e-06
1.2812e-06
1.2715e-06
1.26111e-06
1.24999e-06
1.23809e-06
1.22537e-06
1.21177e-06
1.19725e-06
1.18175e-06
1.32833e-06
1.33224e-06
1.33599e-06
1.33959e-06
1.34304e-06
1.34634e-06
1.34948e-06
1.35245e-06
1.35526e-06
1.35791e-06
1.36038e-06
1.36267e-06
1.36479e-06
1.36671e-06
1.36845e-06
1.36999e-06
1.37133e-06
1.37247e-06
1.3734e-06
1.37412e-06
1.37461e-06
1.37488e-06
1.37492e-06
1.37471e-06
1.37426e-06
1.37356e-06
1.37259e-06
1.37135e-06
1.36983e-06
1.36802e-06
1.36591e-06
1.36349e-06
1.36074e-06
1.35766e-06
1.35423e-06
1.35042e-06
1.34624e-06
1.34166e-06
1.33666e-06
1.33123e-06
1.32534e-06
1.31896e-06
1.31209e-06
1.30468e-06
1.29671e-06
1.28815e-06
1.27897e-06
1.26914e-06
1.2586e-06
1.24734e-06
1.23529e-06
1.22241e-06
1.20866e-06
1.19397e-06
1.1783e-06
1.33015e-06
1.33398e-06
1.33767e-06
1.3412e-06
1.34458e-06
1.34781e-06
1.35087e-06
1.35378e-06
1.35652e-06
1.35909e-06
1.36148e-06
1.3637e-06
1.36574e-06
1.36759e-06
1.36925e-06
1.37071e-06
1.37197e-06
1.37303e-06
1.37388e-06
1.37452e-06
1.37493e-06
1.37511e-06
1.37506e-06
1.37478e-06
1.37424e-06
1.37345e-06
1.37239e-06
1.37106e-06
1.36945e-06
1.36755e-06
1.36535e-06
1.36283e-06
1.35999e-06
1.3568e-06
1.35327e-06
1.34936e-06
1.34508e-06
1.34039e-06
1.33528e-06
1.32973e-06
1.32372e-06
1.31723e-06
1.31023e-06
1.3027e-06
1.2946e-06
1.28591e-06
1.27659e-06
1.26661e-06
1.25593e-06
1.24452e-06
1.23231e-06
1.21928e-06
1.20536e-06
1.19051e-06
1.17466e-06
1.33015e-06
1.33398e-06
1.33766e-06
1.3412e-06
1.34458e-06
1.3478e-06
1.35087e-06
1.35378e-06
1.35652e-06
1.35909e-06
1.36148e-06
1.3637e-06
1.36574e-06
1.36759e-06
1.36925e-06
1.37071e-06
1.37197e-06
1.37303e-06
1.37388e-06
1.37451e-06
1.37493e-06
1.37511e-06
1.37506e-06
1.37478e-06
1.37424e-06
1.37345e-06
1.37239e-06
1.37106e-06
1.36945e-06
1.36755e-06
1.36535e-06
1.36283e-06
1.35999e-06
1.3568e-06
1.35327e-06
1.34936e-06
1.34507e-06
1.34039e-06
1.33528e-06
1.32973e-06
1.32372e-06
1.31723e-06
1.31023e-06
1.30269e-06
1.2946e-06
1.28591e-06
1.27659e-06
1.26661e-06
1.25593e-06
1.24452e-06
1.23231e-06
1.21928e-06
1.20536e-06
1.19051e-06
1.17466e-06
1.32833e-06
1.33223e-06
1.33599e-06
1.33959e-06
1.34304e-06
1.34633e-06
1.34947e-06
1.35245e-06
1.35526e-06
1.3579e-06
1.36037e-06
1.36267e-06
1.36478e-06
1.36671e-06
1.36844e-06
1.36999e-06
1.37133e-06
1.37247e-06
1.3734e-06
1.37411e-06
1.37461e-06
1.37488e-06
1.37491e-06
1.37471e-06
1.37426e-06
1.37355e-06
1.37259e-06
1.37135e-06
1.36983e-06
1.36802e-06
1.36591e-06
1.36349e-06
1.36074e-06
1.35765e-06
1.35422e-06
1.35042e-06
1.34624e-06
1.34166e-06
1.33666e-06
1.33123e-06
1.32533e-06
1.31896e-06
1.31208e-06
1.30467e-06
1.29671e-06
1.28815e-06
1.27897e-06
1.26913e-06
1.2586e-06
1.24733e-06
1.23529e-06
1.22241e-06
1.20866e-06
1.19397e-06
1.1783e-06
1.16157e-06
1.14373e-06
1.12469e-06
1.10439e-06
1.3265e-06
1.33047e-06
1.33429e-06
1.33796e-06
1.34147e-06
1.34483e-06
1.34804e-06
1.35108e-06
1.35397e-06
1.35668e-06
1.35922e-06
1.36159e-06
1.36378e-06
1.36578e-06
1.36759e-06
1.36921e-06
1.37063e-06
1.37184e-06
1.37285e-06
1.37364e-06
1.37422e-06
1.37457e-06
1.37468e-06
1.37456e-06
1.37419e-06
1.37357e-06
1.37269e-06
1.37154e-06
1.37011e-06
1.36839e-06
1.36637e-06
1.36404e-06
1.36139e-06
1.3584e-06
1.35506e-06
1.35136e-06
1.34729e-06
1.34281e-06
1.33792e-06
1.33259e-06
1.32682e-06
1.32056e-06
1.3138e-06
1.30651e-06
1.29867e-06
1.29024e-06
1.2812e-06
1.2715e-06
1.26111e-06
1.24998e-06
1.23809e-06
1.22537e-06
1.21177e-06
1.19725e-06
1.18175e-06
1.1652e-06
1.14753e-06
1.12868e-06
1.10856e-06
1.08711e-06
1.32467e-06
1.3287e-06
1.33258e-06
1.33632e-06
1.3399e-06
1.34332e-06
1.34659e-06
1.3497e-06
1.35265e-06
1.35543e-06
1.35804e-06
1.36048e-06
1.36273e-06
1.3648e-06
1.36669e-06
1.36838e-06
1.36987e-06
1.37116e-06
1.37224e-06
1.37311e-06
1.37376e-06
1.37419e-06
1.37439e-06
1.37434e-06
1.37406e-06
1.37352e-06
1.37272e-06
1.37165e-06
1.3703e-06
1.36867e-06
1.36674e-06
1.3645e-06
1.36194e-06
1.35905e-06
1.35581e-06
1.35221e-06
1.34823e-06
1.34385e-06
1.33907e-06
1.33385e-06
1.32818e-06
1.32204e-06
1.31539e-06
1.30823e-06
1.30051e-06
1.2922e-06
1.28329e-06
1.27372e-06
1.26347e-06
1.25249e-06
1.24073e-06
1.22816e-06
1.21473e-06
1.20037e-06
1.18503e-06
1.16864e-06
1.15115e-06
1.13247e-06
1.11254e-06
1.09127e-06
1.06858e-06
1.04438e-06
1.01858e-06
9.91087e-07
9.61802e-07
9.30635e-07
8.97496e-07
8.62303e-07
8.24985e-07
7.85484e-07
7.43746e-07
6.99674e-07
6.53262e-07
6.04613e-07
5.53938e-07
5.01583e-07
4.48057e-07
3.94051e-07
3.40439e-07
2.88252e-07
2.38611e-07
1.92623e-07
1.51249e-07
1.1519e-07
8.48022e-08
6.00842e-08
4.07194e-08
2.61586e-08
1.57135e-08
8.63972e-09
4.19784e-09
1.69363e-09
5.01834e-10
8.24875e-11
3.56809e-12
1.32284e-06
1.32693e-06
1.33088e-06
1.33467e-06
1.33832e-06
1.3418e-06
1.34513e-06
1.34831e-06
1.35132e-06
1.35416e-06
1.35684e-06
1.35934e-06
1.36166e-06
1.3638e-06
1.36576e-06
1.36752e-06
1.36908e-06
1.37044e-06
1.3716e-06
1.37254e-06
1.37327e-06
1.37377e-06
1.37404e-06
1.37407e-06
1.37386e-06
1.3734e-06
1.37268e-06
1.3717e-06
1.37043e-06
1.36889e-06
1.36704e-06
1.36489e-06
1.36242e-06
1.35961e-06
1.35647e-06
1.35296e-06
1.34907e-06
1.3448e-06
1.34012e-06
1.335e-06
1.32944e-06
1.3234e-06
1.31687e-06
1.30982e-06
1.30222e-06
1.29404e-06
1.28525e-06
1.27581e-06
1.26569e-06
1.25485e-06
1.24324e-06
1.23081e-06
1.21752e-06
1.20332e-06
1.18813e-06
1.17191e-06
1.15459e-06
1.13608e-06
1.11633e-06
1.09524e-06
1.07273e-06
1.04872e-06
1.02311e-06
9.95797e-07
9.66698e-07
9.35713e-07
9.02749e-07
8.67723e-07
8.30559e-07
7.91197e-07
7.49583e-07
7.05618e-07
6.59282e-07
6.10664e-07
5.59961e-07
5.07508e-07
4.538e-07
3.99518e-07
3.45531e-07
2.92876e-07
2.42687e-07
1.96097e-07
1.54102e-07
1.17439e-07
8.64999e-08
6.13061e-08
4.15536e-08
2.66943e-08
1.60329e-08
8.81266e-09
4.2797e-09
1.72521e-09
5.10429e-10
8.36438e-11
3.59437e-12
1.32103e-06
1.32518e-06
1.32919e-06
1.33304e-06
1.33674e-06
1.34029e-06
1.34368e-06
1.34691e-06
1.34999e-06
1.35289e-06
1.35563e-06
1.3582e-06
1.36059e-06
1.36279e-06
1.36481e-06
1.36664e-06
1.36827e-06
1.3697e-06
1.37093e-06
1.37194e-06
1.37274e-06
1.37331e-06
1.37366e-06
1.37377e-06
1.37363e-06
1.37325e-06
1.37261e-06
1.3717e-06
1.37052e-06
1.36905e-06
1.36729e-06
1.36522e-06
1.36283e-06
1.36012e-06
1.35706e-06
1.35364e-06
1.34985e-06
1.34567e-06
1.34108e-06
1.33607e-06
1.33061e-06
1.32468e-06
1.31825e-06
1.31131e-06
1.30383e-06
1.29576e-06
1.28709e-06
1.27778e-06
1.26778e-06
1.25707e-06
1.2456e-06
1.23331e-06
1.22017e-06
1.20611e-06
1.19108e-06
1.17502e-06
1.15785e-06
1.13952e-06
1.11993e-06
1.09902e-06
1.07669e-06
1.05285e-06
1.02742e-06
1.00029e-06
9.71372e-07
9.40564e-07
9.07773e-07
8.7291e-07
8.35898e-07
7.96673e-07
7.55177e-07
7.11319e-07
6.65062e-07
6.1648e-07
5.6576e-07
5.13221e-07
4.59347e-07
4.04809e-07
3.5047e-07
2.9737e-07
2.46657e-07
1.99487e-07
1.56891e-07
1.19642e-07
8.81643e-08
6.2505e-08
4.23725e-08
2.72205e-08
1.63467e-08
8.98248e-09
4.36003e-09
1.75617e-09
5.18845e-10
8.4772e-11
3.61977e-12
1.31925e-06
1.32346e-06
1.32752e-06
1.33143e-06
1.33519e-06
1.33879e-06
1.34224e-06
1.34553e-06
1.34867e-06
1.35163e-06
1.35443e-06
1.35706e-06
1.35951e-06
1.36178e-06
1.36386e-06
1.36575e-06
1.36745e-06
1.36895e-06
1.37024e-06
1.37132e-06
1.37219e-06
1.37283e-06
1.37325e-06
1.37343e-06
1.37337e-06
1.37306e-06
1.37249e-06
1.37166e-06
1.37055e-06
1.36916e-06
1.36748e-06
1.36549e-06
1.36319e-06
1.36056e-06
1.35759e-06
1.35426e-06
1.35056e-06
1.34647e-06
1.34197e-06
1.33706e-06
1.33169e-06
1.32587e-06
1.31955e-06
1.31271e-06
1.30533e-06
1.29738e-06
1.28883e-06
1.27963e-06
1.26976e-06
1.25918e-06
1.24783e-06
1.23568e-06
1.22267e-06
1.20876e-06
1.19388e-06
1.17796e-06
1.16096e-06
1.14278e-06
1.12336e-06
1.10261e-06
1.08045e-06
1.05679e-06
1.03153e-06
1.00458e-06
9.75833e-07
9.45197e-07
9.12572e-07
8.77869e-07
8.41005e-07
8.01914e-07
7.60536e-07
7.16783e-07
6.70607e-07
6.22067e-07
5.71336e-07
5.18722e-07
4.64697e-07
4.09919e-07
3.5525e-07
3.01728e-07
2.50514e-07
2.02787e-07
1.59611e-07
1.21793e-07
8.97918e-08
6.36785e-08
4.31745e-08
2.77359e-08
1.6654e-08
9.1488e-09
4.43868e-09
1.78647e-09
5.27066e-10
8.58708e-11
3.64434e-12
1.3175e-06
1.32177e-06
1.32588e-06
1.32985e-06
1.33367e-06
1.33733e-06
1.34083e-06
1.34418e-06
1.34737e-06
1.35039e-06
1.35325e-06
1.35593e-06
1.35844e-06
1.36077e-06
1.36292e-06
1.36487e-06
1.36663e-06
1.36819e-06
1.36955e-06
1.3707e-06
1.37163e-06
1.37234e-06
1.37282e-06
1.37307e-06
1.37308e-06
1.37284e-06
1.37235e-06
1.37159e-06
1.37056e-06
1.36924e-06
1.36764e-06
1.36573e-06
1.3635e-06
1.36095e-06
1.35806e-06
1.35482e-06
1.3512e-06
1.3472e-06
1.3428e-06
1.33797e-06
1.33271e-06
1.32697e-06
1.32075e-06
1.31402e-06
1.30675e-06
1.2989e-06
1.29046e-06
1.28138e-06
1.27163e-06
1.26116e-06
1.24994e-06
1.23792e-06
1.22504e-06
1.21127e-06
1.19652e-06
1.18076e-06
1.1639e-06
1.14587e-06
1.12661e-06
1.10602e-06
1.08403e-06
1.06053e-06
1.03544e-06
1.00866e-06
9.80081e-07
9.49611e-07
9.17148e-07
8.82599e-07
8.45881e-07
8.06921e-07
7.65659e-07
7.22012e-07
6.75918e-07
6.27421e-07
5.76686e-07
5.24007e-07
4.69843e-07
4.14845e-07
3.59864e-07
3.05942e-07
2.54251e-07
2.0599e-07
1.62255e-07
1.23887e-07
9.13783e-08
6.48233e-08
4.39574e-08
2.82391e-08
1.69541e-08
9.31119e-09
4.51544e-09
1.81602e-09
5.35075e-10
8.69385e-11
3.66809e-12
1.3158e-06
1.32012e-06
1.32429e-06
1.32831e-06
1.33218e-06
1.33589e-06
1.33945e-06
1.34285e-06
1.3461e-06
1.34917e-06
1.35209e-06
1.35483e-06
1.3574e-06
1.35978e-06
1.36199e-06
1.364e-06
1.36582e-06
1.36745e-06
1.36886e-06
1.37007e-06
1.37107e-06
1.37184e-06
1.37239e-06
1.37271e-06
1.37278e-06
1.37261e-06
1.37218e-06
1.37149e-06
1.37053e-06
1.36929e-06
1.36776e-06
1.36592e-06
1.36378e-06
1.3613e-06
1.35849e-06
1.35533e-06
1.35179e-06
1.34788e-06
1.34356e-06
1.33882e-06
1.33364e-06
1.328e-06
1.32188e-06
1.31524e-06
1.30807e-06
1.30033e-06
1.29199e-06
1.28302e-06
1.27338e-06
1.26303e-06
1.25193e-06
1.24003e-06
1.22728e-06
1.21363e-06
1.19902e-06
1.18339e-06
1.16668e-06
1.1488e-06
1.12968e-06
1.10925e-06
1.08741e-06
1.06407e-06
1.03915e-06
1.01252e-06
9.8411e-07
9.538e-07
9.21493e-07
8.87094e-07
8.50516e-07
8.11684e-07
7.70536e-07
7.26993e-07
6.8098e-07
6.32531e-07
5.81797e-07
5.29062e-07
4.74772e-07
4.19568e-07
3.64297e-07
3.09998e-07
2.57853e-07
2.09084e-07
1.64813e-07
1.25917e-07
9.29171e-08
6.59346e-08
4.47178e-08
2.87281e-08
1.72457e-08
9.46895e-09
4.58999e-09
1.84469e-09
5.42838e-10
8.79709e-11
3.69093e-12
1.31416e-06
1.31853e-06
1.32275e-06
1.32682e-06
1.33074e-06
1.33451e-06
1.33812e-06
1.34157e-06
1.34486e-06
1.34799e-06
1.35096e-06
1.35375e-06
1.35637e-06
1.35882e-06
1.36108e-06
1.36315e-06
1.36503e-06
1.36671e-06
1.36818e-06
1.36945e-06
1.37051e-06
1.37135e-06
1.37196e-06
1.37233e-06
1.37247e-06
1.37237e-06
1.372e-06
1.37138e-06
1.37049e-06
1.36932e-06
1.36785e-06
1.36609e-06
1.36401e-06
1.36161e-06
1.35888e-06
1.35579e-06
1.35234e-06
1.3485e-06
1.34426e-06
1.33961e-06
1.33452e-06
1.32896e-06
1.32293e-06
1.31639e-06
1.30931e-06
1.30166e-06
1.29343e-06
1.28456e-06
1.27502e-06
1.26478e-06
1.2538e-06
1.24201e-06
1.22939e-06
1.21586e-06
1.20138e-06
1.18588e-06
1.1693e-06
1.15156e-06
1.13259e-06
1.1123e-06
1.09061e-06
1.06742e-06
1.04265e-06
1.01618e-06
9.87921e-07
9.57764e-07
9.25606e-07
8.91351e-07
8.54908e-07
8.162e-07
7.75162e-07
7.3172e-07
6.85788e-07
6.37388e-07
5.86659e-07
5.33876e-07
4.79473e-07
4.2408e-07
3.68536e-07
3.13884e-07
2.61311e-07
2.12059e-07
1.67276e-07
1.27873e-07
9.44024e-08
6.70082e-08
4.54528e-08
2.92008e-08
1.75276e-08
9.62147e-09
4.66204e-09
1.87239e-09
5.50328e-10
8.89646e-11
3.71281e-12
1.31259e-06
1.317e-06
1.32127e-06
1.32539e-06
1.32936e-06
1.33317e-06
1.33683e-06
1.34033e-06
1.34367e-06
1.34685e-06
1.34987e-06
1.35271e-06
1.35539e-06
1.35788e-06
1.36019e-06
1.36232e-06
1.36425e-06
1.36599e-06
1.36752e-06
1.36885e-06
1.36996e-06
1.37086e-06
1.37153e-06
1.37196e-06
1.37216e-06
1.37212e-06
1.37182e-06
1.37126e-06
1.37043e-06
1.36932e-06
1.36792e-06
1.36623e-06
1.36422e-06
1.36189e-06
1.35922e-06
1.35621e-06
1.35283e-06
1.34907e-06
1.34491e-06
1.34033e-06
1.33532e-06
1.32985e-06
1.3239e-06
1.31745e-06
1.31046e-06
1.30291e-06
1.29476e-06
1.28599e-06
1.27656e-06
1.26642e-06
1.25554e-06
1.24387e-06
1.23135e-06
1.21795e-06
1.20359e-06
1.18821e-06
1.17176e-06
1.15415e-06
1.13531e-06
1.11516e-06
1.09361e-06
1.07057e-06
1.04594e-06
1.01962e-06
9.91503e-07
9.61491e-07
9.29476e-07
8.95358e-07
8.59044e-07
8.20455e-07
7.79524e-07
7.36181e-07
6.9033e-07
6.41978e-07
5.9126e-07
5.38435e-07
4.8393e-07
4.28364e-07
3.72569e-07
3.17585e-07
2.6461e-07
2.14901e-07
1.69634e-07
1.29748e-07
9.58275e-08
6.80391e-08
4.61589e-08
2.9655e-08
1.77985e-08
9.76802e-09
4.73125e-09
1.89898e-09
5.57511e-10
8.99153e-11
3.73363e-12
1.31108e-06
1.31554e-06
1.31986e-06
1.32402e-06
1.32803e-06
1.33189e-06
1.3356e-06
1.33915e-06
1.34253e-06
1.34576e-06
1.34882e-06
1.35172e-06
1.35444e-06
1.35698e-06
1.35935e-06
1.36152e-06
1.36351e-06
1.36529e-06
1.36688e-06
1.36826e-06
1.36943e-06
1.37038e-06
1.3711e-06
1.37159e-06
1.37185e-06
1.37186e-06
1.37162e-06
1.37112e-06
1.37035e-06
1.3693e-06
1.36797e-06
1.36634e-06
1.36439e-06
1.36213e-06
1.35953e-06
1.35658e-06
1.35327e-06
1.34958e-06
1.3455e-06
1.34099e-06
1.33606e-06
1.33067e-06
1.3248e-06
1.31842e-06
1.31152e-06
1.30406e-06
1.296e-06
1.28732e-06
1.27798e-06
1.26794e-06
1.25716e-06
1.24559e-06
1.23319e-06
1.21989e-06
1.20564e-06
1.19038e-06
1.17405e-06
1.15656e-06
1.13785e-06
1.11783e-06
1.09641e-06
1.07351e-06
1.04901e-06
1.02283e-06
9.94856e-07
9.64981e-07
9.331e-07
8.99113e-07
8.62922e-07
8.24447e-07
7.83619e-07
7.40371e-07
6.94598e-07
6.46297e-07
5.95591e-07
5.42733e-07
4.88136e-07
4.3241e-07
3.76383e-07
3.21092e-07
2.67741e-07
2.17603e-07
1.71878e-07
1.31535e-07
9.71869e-08
6.90232e-08
4.68333e-08
3.0089e-08
1.80574e-08
9.90803e-09
4.79735e-09
1.92437e-09
5.64361e-10
9.08198e-11
3.75336e-12
1.30965e-06
1.31416e-06
1.31851e-06
1.32272e-06
1.32678e-06
1.33068e-06
1.33443e-06
1.33802e-06
1.34145e-06
1.34472e-06
1.34783e-06
1.35076e-06
1.35353e-06
1.35612e-06
1.35853e-06
1.36076e-06
1.36279e-06
1.36463e-06
1.36626e-06
1.36769e-06
1.36891e-06
1.36991e-06
1.37069e-06
1.37123e-06
1.37154e-06
1.37161e-06
1.37142e-06
1.37098e-06
1.37027e-06
1.36928e-06
1.368e-06
1.36643e-06
1.36454e-06
1.36234e-06
1.3598e-06
1.35692e-06
1.35367e-06
1.35005e-06
1.34603e-06
1.3416e-06
1.33673e-06
1.33142e-06
1.32562e-06
1.31932e-06
1.3125e-06
1.30511e-06
1.29714e-06
1.28855e-06
1.2793e-06
1.26935e-06
1.25866e-06
1.24719e-06
1.23488e-06
1.22168e-06
1.20754e-06
1.19239e-06
1.17617e-06
1.1588e-06
1.14021e-06
1.12031e-06
1.09902e-06
1.07624e-06
1.05187e-06
1.02582e-06
9.97974e-07
9.68228e-07
9.36475e-07
9.02609e-07
8.66536e-07
8.28169e-07
7.87438e-07
7.4428e-07
6.98582e-07
6.50331e-07
5.9964e-07
5.46754e-07
4.92076e-07
4.36207e-07
3.79966e-07
3.24391e-07
2.7069e-07
2.20152e-07
1.73997e-07
1.33225e-07
9.84739e-08
6.99555e-08
4.74725e-08
3.05005e-08
1.83028e-08
1.00408e-08
4.85999e-09
1.94841e-09
5.70842e-10
9.16739e-11
3.77188e-12
1.30831e-06
1.31286e-06
1.31725e-06
1.3215e-06
1.32559e-06
1.32954e-06
1.33333e-06
1.33696e-06
1.34043e-06
1.34374e-06
1.34689e-06
1.34987e-06
1.35267e-06
1.35531e-06
1.35776e-06
1.36003e-06
1.36211e-06
1.36399e-06
1.36567e-06
1.36715e-06
1.36841e-06
1.36946e-06
1.37028e-06
1.37088e-06
1.37124e-06
1.37136e-06
1.37122e-06
1.37083e-06
1.37017e-06
1.36923e-06
1.36801e-06
1.36649e-06
1.36466e-06
1.36251e-06
1.36003e-06
1.35721e-06
1.35402e-06
1.35046e-06
1.34651e-06
1.34214e-06
1.33734e-06
1.33209e-06
1.32636e-06
1.32013e-06
1.31338e-06
1.30607e-06
1.29818e-06
1.28966e-06
1.28049e-06
1.27063e-06
1.26003e-06
1.24865e-06
1.23643e-06
1.22333e-06
1.20929e-06
1.19424e-06
1.17812e-06
1.16086e-06
1.14237e-06
1.12259e-06
1.10141e-06
1.07874e-06
1.0545e-06
1.02857e-06
1.00084e-06
9.71216e-07
9.39581e-07
9.05831e-07
8.69866e-07
8.316e-07
7.9096e-07
7.47881e-07
7.02251e-07
6.54049e-07
6.03377e-07
5.50469e-07
4.95721e-07
4.39724e-07
3.83291e-07
3.27457e-07
2.73436e-07
2.22528e-07
1.75977e-07
1.34805e-07
9.96783e-08
7.08287e-08
4.80715e-08
3.08862e-08
1.85329e-08
1.01652e-08
4.91868e-09
1.97092e-09
5.76902e-10
9.247e-11
3.78899e-12
1.30706e-06
1.31164e-06
1.31607e-06
1.32036e-06
1.32449e-06
1.32847e-06
1.33229e-06
1.33596e-06
1.33947e-06
1.34282e-06
1.346e-06
1.34902e-06
1.35187e-06
1.35454e-06
1.35704e-06
1.35935e-06
1.36146e-06
1.36339e-06
1.36511e-06
1.36663e-06
1.36794e-06
1.36903e-06
1.3699e-06
1.37054e-06
1.37095e-06
1.37111e-06
1.37102e-06
1.37068e-06
1.37006e-06
1.36918e-06
1.368e-06
1.36653e-06
1.36476e-06
1.36266e-06
1.36024e-06
1.35747e-06
1.35434e-06
1.35083e-06
1.34693e-06
1.34262e-06
1.33789e-06
1.3327e-06
1.32703e-06
1.32087e-06
1.31418e-06
1.30694e-06
1.29912e-06
1.29068e-06
1.28158e-06
1.2718e-06
1.26128e-06
1.24997e-06
1.23784e-06
1.22483e-06
1.21088e-06
1.19592e-06
1.1799e-06
1.16273e-06
1.14435e-06
1.12467e-06
1.1036e-06
1.08104e-06
1.05691e-06
1.03109e-06
1.00347e-06
9.73959e-07
9.42434e-07
9.0879e-07
8.72928e-07
8.34756e-07
7.94201e-07
7.51195e-07
7.05631e-07
6.57476e-07
6.06824e-07
5.53899e-07
4.99089e-07
4.42976e-07
3.86369e-07
3.30299e-07
2.75984e-07
2.24736e-07
1.77818e-07
1.36277e-07
1.00801e-07
7.16431e-08
4.86303e-08
3.12461e-08
1.87476e-08
1.02813e-08
4.97344e-09
1.99191e-09
5.82549e-10
9.32104e-11
3.80483e-12
1.3059e-06
1.31052e-06
1.31499e-06
1.3193e-06
1.32347e-06
1.32748e-06
1.33134e-06
1.33504e-06
1.33859e-06
1.34197e-06
1.34519e-06
1.34824e-06
1.35113e-06
1.35384e-06
1.35637e-06
1.35871e-06
1.36087e-06
1.36283e-06
1.36459e-06
1.36615e-06
1.3675e-06
1.36863e-06
1.36954e-06
1.37022e-06
1.37067e-06
1.37087e-06
1.37083e-06
1.37053e-06
1.36996e-06
1.36911e-06
1.36799e-06
1.36656e-06
1.36483e-06
1.36279e-06
1.36041e-06
1.35769e-06
1.35461e-06
1.35115e-06
1.34731e-06
1.34305e-06
1.33837e-06
1.33324e-06
1.32763e-06
1.32153e-06
1.3149e-06
1.30773e-06
1.29997e-06
1.29159e-06
1.28257e-06
1.27285e-06
1.2624e-06
1.25117e-06
1.23912e-06
1.22618e-06
1.21231e-06
1.19744e-06
1.18151e-06
1.16443e-06
1.14614e-06
1.12655e-06
1.10558e-06
1.08313e-06
1.05909e-06
1.03337e-06
1.00586e-06
9.76451e-07
9.45027e-07
9.11482e-07
8.75713e-07
8.37629e-07
7.97151e-07
7.54214e-07
7.0871e-07
6.606e-07
6.09968e-07
5.5703e-07
5.02166e-07
4.45951e-07
3.89188e-07
3.32904e-07
2.78323e-07
2.26766e-07
1.79512e-07
1.37632e-07
1.01836e-07
7.23945e-08
4.91461e-08
3.15783e-08
1.89459e-08
1.03884e-08
5.02397e-09
2.01128e-09
5.87753e-10
9.38915e-11
3.81932e-12
1.30485e-06
1.3095e-06
1.31399e-06
1.31834e-06
1.32254e-06
1.32658e-06
1.33047e-06
1.33421e-06
1.33778e-06
1.3412e-06
1.34445e-06
1.34753e-06
1.35045e-06
1.35319e-06
1.35575e-06
1.35813e-06
1.36032e-06
1.36232e-06
1.36412e-06
1.36571e-06
1.36709e-06
1.36826e-06
1.36921e-06
1.36993e-06
1.37041e-06
1.37065e-06
1.37065e-06
1.37038e-06
1.36986e-06
1.36905e-06
1.36796e-06
1.36658e-06
1.3649e-06
1.36289e-06
1.36056e-06
1.35788e-06
1.35485e-06
1.35144e-06
1.34764e-06
1.34344e-06
1.3388e-06
1.33372e-06
1.32817e-06
1.32212e-06
1.31555e-06
1.30843e-06
1.30073e-06
1.29242e-06
1.28345e-06
1.2738e-06
1.26342e-06
1.25226e-06
1.24027e-06
1.22741e-06
1.21361e-06
1.19882e-06
1.18296e-06
1.16597e-06
1.14776e-06
1.12826e-06
1.10737e-06
1.08501e-06
1.06106e-06
1.03544e-06
1.00802e-06
9.78702e-07
9.47369e-07
9.13913e-07
8.78229e-07
8.40224e-07
7.99819e-07
7.56945e-07
7.11498e-07
6.63429e-07
6.12816e-07
5.59868e-07
5.04957e-07
4.48652e-07
3.91749e-07
3.35274e-07
2.80453e-07
2.28616e-07
1.81058e-07
1.3887e-07
1.02782e-07
7.30813e-08
4.96179e-08
3.18823e-08
1.91272e-08
1.04865e-08
5.07019e-09
2.02898e-09
5.92508e-10
9.4513e-11
3.83253e-12
1.3039e-06
1.30858e-06
1.3131e-06
1.31747e-06
1.3217e-06
1.32577e-06
1.32969e-06
1.33345e-06
1.33705e-06
1.3405e-06
1.34377e-06
1.34689e-06
1.34983e-06
1.3526e-06
1.3552e-06
1.3576e-06
1.35983e-06
1.36185e-06
1.36368e-06
1.36531e-06
1.36673e-06
1.36793e-06
1.36891e-06
1.36966e-06
1.37018e-06
1.37045e-06
1.37048e-06
1.37025e-06
1.36976e-06
1.36899e-06
1.36794e-06
1.3666e-06
1.36495e-06
1.36298e-06
1.36069e-06
1.35805e-06
1.35506e-06
1.35169e-06
1.34794e-06
1.34378e-06
1.33919e-06
1.33415e-06
1.32865e-06
1.32265e-06
1.31612e-06
1.30905e-06
1.30141e-06
1.29314e-06
1.28423e-06
1.27464e-06
1.26431e-06
1.25321e-06
1.24129e-06
1.2285e-06
1.21476e-06
1.20004e-06
1.18425e-06
1.16733e-06
1.1492e-06
1.12977e-06
1.10897e-06
1.08668e-06
1.06282e-06
1.03728e-06
1.00994e-06
9.80707e-07
9.49457e-07
9.16081e-07
8.80474e-07
8.42541e-07
8.022e-07
7.59383e-07
7.13987e-07
6.65957e-07
6.15362e-07
5.62406e-07
5.07455e-07
4.51071e-07
3.94044e-07
3.37399e-07
2.82364e-07
2.30277e-07
1.82448e-07
1.39984e-07
1.03633e-07
7.37002e-08
5.0043e-08
3.21562e-08
1.92907e-08
1.05748e-08
5.11185e-09
2.04493e-09
5.9679e-10
9.50721e-11
3.84438e-12
1.30307e-06
1.30776e-06
1.31231e-06
1.31671e-06
1.32096e-06
1.32506e-06
1.329e-06
1.33278e-06
1.33641e-06
1.33988e-06
1.34318e-06
1.34632e-06
1.34929e-06
1.35209e-06
1.3547e-06
1.35714e-06
1.35939e-06
1.36144e-06
1.3633e-06
1.36495e-06
1.3664e-06
1.36763e-06
1.36864e-06
1.36942e-06
1.36997e-06
1.37027e-06
1.37033e-06
1.37013e-06
1.36967e-06
1.36894e-06
1.36792e-06
1.36661e-06
1.36499e-06
1.36306e-06
1.3608e-06
1.3582e-06
1.35524e-06
1.35191e-06
1.34819e-06
1.34407e-06
1.33952e-06
1.33452e-06
1.32906e-06
1.3231e-06
1.31662e-06
1.3096e-06
1.30199e-06
1.29378e-06
1.28492e-06
1.27537e-06
1.2651e-06
1.25405e-06
1.24219e-06
1.22945e-06
1.21577e-06
1.20111e-06
1.18538e-06
1.16852e-06
1.15046e-06
1.1311e-06
1.11036e-06
1.08815e-06
1.06436e-06
1.03888e-06
1.01162e-06
9.82462e-07
9.51283e-07
9.17978e-07
8.82438e-07
8.44568e-07
8.04285e-07
7.61518e-07
7.16168e-07
6.68172e-07
6.17595e-07
5.64634e-07
5.09649e-07
4.53196e-07
3.96063e-07
3.39271e-07
2.84049e-07
2.31744e-07
1.83676e-07
1.40968e-07
1.04386e-07
7.42476e-08
5.04192e-08
3.23987e-08
1.94353e-08
1.0653e-08
5.14871e-09
2.05904e-09
6.00575e-10
9.55657e-11
3.85481e-12
1.30234e-06
1.30706e-06
1.31163e-06
1.31605e-06
1.32032e-06
1.32444e-06
1.3284e-06
1.33221e-06
1.33586e-06
1.33934e-06
1.34267e-06
1.34583e-06
1.34882e-06
1.35164e-06
1.35428e-06
1.35674e-06
1.35901e-06
1.36109e-06
1.36297e-06
1.36464e-06
1.36611e-06
1.36736e-06
1.3684e-06
1.3692e-06
1.36978e-06
1.37011e-06
1.37019e-06
1.37002e-06
1.36959e-06
1.36888e-06
1.36789e-06
1.36661e-06
1.36502e-06
1.36312e-06
1.36089e-06
1.35832e-06
1.35539e-06
1.35209e-06
1.34841e-06
1.34432e-06
1.3398e-06
1.33484e-06
1.32941e-06
1.32349e-06
1.31705e-06
1.31006e-06
1.30249e-06
1.29432e-06
1.2855e-06
1.276e-06
1.26577e-06
1.25477e-06
1.24295e-06
1.23025e-06
1.21663e-06
1.20202e-06
1.18635e-06
1.16954e-06
1.15153e-06
1.13223e-06
1.11155e-06
1.0894e-06
1.06567e-06
1.04026e-06
1.01307e-06
9.83967e-07
9.52851e-07
9.19607e-07
8.84126e-07
8.46311e-07
8.06077e-07
7.63354e-07
7.18043e-07
6.70078e-07
6.19517e-07
5.66552e-07
5.11539e-07
4.55028e-07
3.97804e-07
3.40886e-07
2.85504e-07
2.3301e-07
1.84737e-07
1.41819e-07
1.05038e-07
7.47216e-08
5.0745e-08
3.26087e-08
1.95607e-08
1.07208e-08
5.18063e-09
2.07126e-09
6.03852e-10
9.59925e-11
3.86382e-12
1.30174e-06
1.30647e-06
1.31106e-06
1.31549e-06
1.31978e-06
1.32391e-06
1.3279e-06
1.33172e-06
1.33539e-06
1.33889e-06
1.34223e-06
1.34541e-06
1.34842e-06
1.35126e-06
1.35392e-06
1.35639e-06
1.35868e-06
1.36078e-06
1.36268e-06
1.36438e-06
1.36587e-06
1.36714e-06
1.3682e-06
1.36902e-06
1.36962e-06
1.36997e-06
1.37008e-06
1.36993e-06
1.36952e-06
1.36883e-06
1.36786e-06
1.3666e-06
1.36504e-06
1.36316e-06
1.36096e-06
1.35841e-06
1.35551e-06
1.35224e-06
1.34858e-06
1.34452e-06
1.34003e-06
1.3351e-06
1.3297e-06
1.32381e-06
1.3174e-06
1.31044e-06
1.30291e-06
1.29477e-06
1.28599e-06
1.27652e-06
1.26633e-06
1.25536e-06
1.24358e-06
1.23093e-06
1.21735e-06
1.20278e-06
1.18715e-06
1.1704e-06
1.15243e-06
1.13318e-06
1.11255e-06
1.09045e-06
1.06677e-06
1.04141e-06
1.01427e-06
9.85223e-07
9.54159e-07
9.20966e-07
8.85534e-07
8.47765e-07
8.07574e-07
7.64887e-07
7.1961e-07
6.71671e-07
6.21123e-07
5.68156e-07
5.1312e-07
4.56562e-07
3.99262e-07
3.42239e-07
2.86724e-07
2.34073e-07
1.85628e-07
1.42534e-07
1.05586e-07
7.512e-08
5.1019e-08
3.27853e-08
1.96661e-08
1.07777e-08
5.20748e-09
2.08154e-09
6.06605e-10
9.63509e-11
3.87137e-12
1.30125e-06
1.30599e-06
1.31059e-06
1.31505e-06
1.31935e-06
1.3235e-06
1.32749e-06
1.33133e-06
1.33501e-06
1.33853e-06
1.34189e-06
1.34508e-06
1.3481e-06
1.35095e-06
1.35363e-06
1.35612e-06
1.35843e-06
1.36054e-06
1.36245e-06
1.36417e-06
1.36567e-06
1.36696e-06
1.36803e-06
1.36888e-06
1.36949e-06
1.36986e-06
1.36998e-06
1.36985e-06
1.36946e-06
1.36879e-06
1.36784e-06
1.3666e-06
1.36506e-06
1.3632e-06
1.36101e-06
1.35849e-06
1.35561e-06
1.35236e-06
1.34872e-06
1.34468e-06
1.34021e-06
1.3353e-06
1.32993e-06
1.32406e-06
1.31767e-06
1.31075e-06
1.30324e-06
1.29513e-06
1.28637e-06
1.27693e-06
1.26677e-06
1.25584e-06
1.24409e-06
1.23147e-06
1.21792e-06
1.20339e-06
1.18779e-06
1.17107e-06
1.15315e-06
1.13394e-06
1.11335e-06
1.09128e-06
1.06765e-06
1.04233e-06
1.01523e-06
9.86227e-07
9.55205e-07
9.22053e-07
8.8666e-07
8.48928e-07
8.08771e-07
7.66114e-07
7.20864e-07
6.72946e-07
6.22409e-07
5.6944e-07
5.14386e-07
4.57791e-07
4.00431e-07
3.43324e-07
2.87703e-07
2.34927e-07
1.86343e-07
1.43109e-07
1.06026e-07
7.54406e-08
5.12395e-08
3.29275e-08
1.97509e-08
1.08236e-08
5.22908e-09
2.0898e-09
6.0882e-10
9.66389e-11
3.87742e-12
1.30088e-06
1.30563e-06
1.31024e-06
1.31471e-06
1.31902e-06
1.32318e-06
1.32718e-06
1.33103e-06
1.33473e-06
1.33826e-06
1.34162e-06
1.34483e-06
1.34786e-06
1.35072e-06
1.35341e-06
1.35591e-06
1.35823e-06
1.36036e-06
1.36228e-06
1.36401e-06
1.36553e-06
1.36683e-06
1.36791e-06
1.36877e-06
1.36939e-06
1.36978e-06
1.36991e-06
1.3698e-06
1.36942e-06
1.36876e-06
1.36783e-06
1.3666e-06
1.36507e-06
1.36323e-06
1.36106e-06
1.35855e-06
1.35568e-06
1.35245e-06
1.34883e-06
1.3448e-06
1.34035e-06
1.33546e-06
1.3301e-06
1.32425e-06
1.31789e-06
1.31098e-06
1.30349e-06
1.2954e-06
1.28666e-06
1.27724e-06
1.2671e-06
1.2562e-06
1.24447e-06
1.23187e-06
1.21835e-06
1.20384e-06
1.18828e-06
1.17158e-06
1.15369e-06
1.1345e-06
1.11394e-06
1.09191e-06
1.06831e-06
1.04303e-06
1.01596e-06
9.86983e-07
9.55993e-07
9.22871e-07
8.87509e-07
8.49805e-07
8.09673e-07
7.67039e-07
7.21809e-07
6.73907e-07
6.23379e-07
5.70408e-07
5.15341e-07
4.58717e-07
4.01313e-07
3.44143e-07
2.88442e-07
2.35571e-07
1.86884e-07
1.43544e-07
1.06359e-07
7.56829e-08
5.14061e-08
3.30349e-08
1.9815e-08
1.08582e-08
5.24541e-09
2.09605e-09
6.10494e-10
9.68565e-11
3.882e-12
1.30063e-06
1.30539e-06
1.31001e-06
1.31448e-06
1.3188e-06
1.32297e-06
1.32698e-06
1.33084e-06
1.33453e-06
1.33807e-06
1.34145e-06
1.34466e-06
1.3477e-06
1.35057e-06
1.35326e-06
1.35577e-06
1.3581e-06
1.36023e-06
1.36217e-06
1.3639e-06
1.36543e-06
1.36674e-06
1.36783e-06
1.3687e-06
1.36933e-06
1.36972e-06
1.36987e-06
1.36976e-06
1.36939e-06
1.36874e-06
1.36782e-06
1.3666e-06
1.36508e-06
1.36325e-06
1.36109e-06
1.35859e-06
1.35573e-06
1.35251e-06
1.3489e-06
1.34488e-06
1.34044e-06
1.33556e-06
1.33022e-06
1.32438e-06
1.31803e-06
1.31113e-06
1.30366e-06
1.29558e-06
1.28686e-06
1.27745e-06
1.26733e-06
1.25643e-06
1.24472e-06
1.23214e-06
1.21864e-06
1.20415e-06
1.1886e-06
1.17192e-06
1.15405e-06
1.13488e-06
1.11434e-06
1.09233e-06
1.06875e-06
1.04349e-06
1.01644e-06
9.87486e-07
9.56517e-07
9.23416e-07
8.88073e-07
8.50388e-07
8.10273e-07
7.67654e-07
7.22438e-07
6.74546e-07
6.24024e-07
5.71053e-07
5.15976e-07
4.59335e-07
4.019e-07
3.44689e-07
2.88934e-07
2.36001e-07
1.87245e-07
1.43834e-07
1.06581e-07
7.58447e-08
5.15174e-08
3.31067e-08
1.98579e-08
1.08814e-08
5.25632e-09
2.10022e-09
6.11611e-10
9.70017e-11
3.88505e-12
1.30051e-06
1.30527e-06
1.3099e-06
1.31437e-06
1.31869e-06
1.32286e-06
1.32688e-06
1.33074e-06
1.33444e-06
1.33798e-06
1.34136e-06
1.34457e-06
1.34762e-06
1.35049e-06
1.35319e-06
1.3557e-06
1.35803e-06
1.36017e-06
1.36211e-06
1.36385e-06
1.36538e-06
1.36669e-06
1.36779e-06
1.36866e-06
1.3693e-06
1.36969e-06
1.36984e-06
1.36974e-06
1.36937e-06
1.36873e-06
1.36781e-06
1.3666e-06
1.36508e-06
1.36326e-06
1.3611e-06
1.3586e-06
1.35575e-06
1.35254e-06
1.34893e-06
1.34492e-06
1.34049e-06
1.33562e-06
1.33028e-06
1.32444e-06
1.3181e-06
1.31121e-06
1.30374e-06
1.29567e-06
1.28695e-06
1.27756e-06
1.26744e-06
1.25655e-06
1.24485e-06
1.23228e-06
1.21879e-06
1.2043e-06
1.18876e-06
1.1721e-06
1.15423e-06
1.13508e-06
1.11454e-06
1.09254e-06
1.06897e-06
1.04372e-06