/*--------------------------------*- C++ -*----------------------------------*\
  =========                 |
  \\      /  F ield         | OpenFOAM: The Open Source CFD Toolbox
   \\    /   O peration     | Website:  https://openfoam.org
    \\  /    A nd           | Version:  7
     \\/     M anipulation  |
\*---------------------------------------------------------------------------*/
FoamFile
{
    version     2.0;
    format      ascii;
    class       volScalarField;
    location    "140000";
    object      p;
}
// * * * * * * * * * * * * * * * * * * * * * * * * * * * * * * * * * * * * * //

dimensions      [0 2 -2 0 0 0 0];

internalField   nonuniform List<scalar> 
4825
(
-1.94556e-19
-1.94516e-19
-1.91883e-19
-1.93005e-19
-2.11005e-19
-2.04189e-19
-2.20807e-19
-1.94733e-19
-1.89018e-19
-2.1114e-19
-1.98839e-19
-2.1866e-19
-1.94435e-19
-1.93406e-19
-2.03072e-19
-1.98546e-19
-2.12892e-19
-2.01799e-19
-2.09435e-19
-2.0616e-19
-2.05545e-19
-2.17589e-19
-2.13446e-19
-2.04184e-19
-2.18745e-19
-2.10143e-19
-2.22793e-19
-2.03699e-19
-1.94484e-19
-2.08358e-19
-2.10167e-19
-2.22139e-19
-1.96568e-19
-1.92835e-19
-2.0861e-19
-2.03808e-19
-2.24049e-19
-1.96299e-19
-1.83813e-19
-2.12187e-19
-1.9824e-19
-2.20342e-19
-2.06794e-19
-1.79421e-19
-2.13718e-19
-2.02386e-19
-2.17293e-19
-2.12866e-19
-1.88201e-19
-2.0688e-19
-2.00673e-19
-2.21245e-19
-2.06947e-19
-1.98283e-19
-2.16083e-19
-2.06005e-19
-2.21736e-19
-2.0107e-19
-2.05955e-19
-2.20206e-19
-2.07604e-19
-2.19262e-19
-2.0677e-19
-2.016e-19
-2.19839e-19
-2.05584e-19
-2.01667e-19
-1.99389e-19
-2.17021e-19
-2.06566e-19
-2.05097e-19
-1.91964e-19
-2.17293e-19
-2.01754e-19
-1.97629e-19
-1.96905e-19
-2.12989e-19
-2.02886e-19
-1.99824e-19
-2.19573e-19
-1.94387e-19
-1.99842e-19
-1.97625e-19
-1.99869e-19
-2.00893e-19
-2.02018e-19
-1.99271e-19
-2.05783e-19
-1.88399e-19
-2.00459e-19
-1.99787e-19
-4.32276e-20
-4.28757e-20
-5.23429e-20
-3.51823e-20
-7.18553e-20
-5.09046e-20
-5.71696e-20
-5.16277e-20
-5.00207e-20
-5.11658e-20
-6.15189e-20
-6.64537e-20
-8.16555e-20
-6.23877e-20
-6.89264e-20
-5.36702e-20
-8.32791e-20
-5.9515e-20
-7.78456e-20
-6.03563e-20
-3.58159e-20
-3.39061e-20
-5.26255e-20
-5.00615e-20
-6.22144e-20
-4.76119e-20
-6.13721e-20
-5.21122e-20
-4.40565e-20
-5.2303e-20
-5.80679e-20
-6.481e-20
-7.94038e-20
-5.83793e-20
-7.35902e-20
-6.405e-20
-8.41679e-20
-6.62043e-20
-8.72417e-20
-5.86629e-20
-4.02963e-20
-4.62914e-20
-5.89044e-20
-5.20486e-20
-6.45159e-20
-5.45035e-20
-6.61895e-20
-5.25803e-20
-5.15476e-20
-5.21261e-20
-5.46576e-20
-5.60049e-20
-6.84875e-20
-6.02629e-20
-7.33395e-20
-6.91774e-20
-8.34428e-20
-6.73653e-20
-8.82482e-20
-6.54068e-20
-4.94854e-20
-4.89508e-20
-5.75616e-20
-5.62452e-20
-5.52074e-20
-5.25204e-20
-6.21158e-20
-5.81006e-20
-6.16452e-20
-5.05826e-20
-4.85937e-20
-6.07305e-20
-6.79353e-20
-6.00862e-20
-7.91201e-20
-6.67885e-20
-8.36452e-20
-6.73953e-20
-8.36382e-20
-6.67362e-20
-4.94179e-20
-4.34472e-20
-5.24805e-20
-5.37203e-20
-5.67732e-20
-5.29201e-20
-5.57796e-20
-4.98381e-20
-6.25736e-20
-5.01878e-20
-5.03209e-20
-6.14547e-20
-7.32449e-20
-6.05028e-20
-7.62036e-20
-6.76771e-20
-8.34443e-20
-6.51176e-20
-8.14218e-20
-6.57212e-20
-4.44478e-20
-4.55546e-20
-4.11379e-20
-4.45412e-20
-5.71266e-20
-5.45254e-20
-4.31595e-20
-5.17532e-20
-6.54476e-20
-6.01172e-20
-5.04169e-20
-6.08187e-20
-6.8449e-20
-5.74614e-20
-6.86267e-20
-6.51785e-20
-8.42039e-20
-6.18978e-20
-8.14782e-20
-7.19332e-20
-4.71457e-20
-4.13344e-20
-4.656e-20
-5.72937e-20
-5.5296e-20
-4.33228e-20
-4.71437e-20
-5.34955e-20
-6.08963e-20
-5.68827e-20
-5.26382e-20
-6.15916e-20
-6.94813e-20
-6.44365e-20
-8.00796e-20
-6.47574e-20
-9.00452e-20
-6.95442e-20
-7.83373e-20
-6.94188e-20
-4.09773e-20
-5.72686e-20
-4.41353e-20
-5.35386e-20
-6.14911e-20
-4.21643e-20
-5.22638e-20
-5.39329e-20
-5.92908e-20
-5.23726e-20
-5.96648e-20
-7.28011e-20
-6.43172e-20
-6.81627e-20
-7.78222e-20
-6.59167e-20
-7.60509e-20
-7.10714e-20
-8.75121e-20
-7.02448e-20
-7.69218e-20
-6.99197e-20
-7.91519e-20
-8.0469e-20
-9.19453e-20
-7.71131e-20
-6.97109e-20
-8.4146e-20
-8.12559e-20
-8.86222e-20
-8.48097e-20
-1.00538e-19
-9.63124e-20
-9.28405e-20
-9.67344e-20
-2.80097e-20
-5.09958e-20
-4.00412e-20
-4.98403e-20
-5.55774e-20
-3.77466e-20
-7.14676e-20
-5.5602e-20
-6.31213e-20
-4.62958e-20
-5.87338e-20
-8.05517e-20
-6.79312e-20
-6.39774e-20
-7.35523e-20
-6.90987e-20
-6.90826e-20
-7.07249e-20
-9.22412e-20
-7.30415e-20
-8.06055e-20
-7.7371e-20
-8.49254e-20
-7.40012e-20
-8.49451e-20
-7.37419e-20
-7.59819e-20
-8.25078e-20
-8.33638e-20
-8.42936e-20
-8.9825e-20
-1.01044e-19
-9.95166e-20
-9.42849e-20
-9.33918e-20
-1.00359e-19
-1.06082e-19
-4.11155e-20
-5.17306e-20
-4.29946e-20
-4.75284e-20
-6.01821e-20
-5.71787e-20
-7.40293e-20
-5.42168e-20
-7.87902e-20
-4.5954e-20
-6.01216e-20
-6.62346e-20
-6.74873e-20
-6.33421e-20
-6.71305e-20
-6.70327e-20
-7.74585e-20
-6.98993e-20
-8.13027e-20
-7.51363e-20
-8.57839e-20
-7.80607e-20
-8.85208e-20
-7.60406e-20
-8.37095e-20
-7.90466e-20
-7.82225e-20
-7.84728e-20
-8.28846e-20
-8.8864e-20
-9.08001e-20
-9.54711e-20
-9.894e-20
-8.6683e-20
-9.88229e-20
-1.03942e-19
-1.02043e-19
-1.16465e-19
-4.13675e-20
-5.28877e-20
-4.68775e-20
-4.38101e-20
-7.85486e-20
-4.64023e-20
-6.62736e-20
-4.68969e-20
-7.31663e-20
-4.58011e-20
-7.41512e-20
-6.34636e-20
-7.34104e-20
-6.00424e-20
-5.96356e-20
-5.84579e-20
-7.60807e-20
-7.11623e-20
-7.72209e-20
-7.80586e-20
-8.12389e-20
-7.7044e-20
-9.26162e-20
-7.75712e-20
-8.40498e-20
-7.7873e-20
-7.91448e-20
-7.94443e-20
-8.36396e-20
-9.34726e-20
-9.04324e-20
-8.87401e-20
-9.49707e-20
-9.49562e-20
-9.68142e-20
-1.05128e-19
-1.02688e-19
-1.17505e-19
-1.27483e-19
-1.34595e-19
-3.88168e-20
-5.07268e-20
-5.30661e-20
-4.42105e-20
-7.38115e-20
-4.32647e-20
-6.06627e-20
-3.99148e-20
-7.36289e-20
-5.05587e-20
-6.91893e-20
-6.27347e-20
-8.10084e-20
-5.40425e-20
-5.96788e-20
-6.19592e-20
-7.5225e-20
-7.71241e-20
-7.8285e-20
-7.59129e-20
-7.69231e-20
-8.05654e-20
-8.98882e-20
-7.73375e-20
-8.4679e-20
-7.65437e-20
-8.13247e-20
-7.65756e-20
-8.17651e-20
-8.96061e-20
-9.75036e-20
-9.43421e-20
-8.74757e-20
-9.81153e-20
-8.9725e-20
-1.01598e-19
-1.04175e-19
-1.13698e-19
-1.26174e-19
-1.37112e-19
-1.49418e-19
-1.2834e-19
-4.64845e-20
-4.28381e-20
-5.46029e-20
-4.03371e-20
-6.55605e-20
-3.79868e-20
-6.42848e-20
-5.36009e-20
-6.92277e-20
-4.71156e-20
-7.45247e-20
-5.90625e-20
-7.24382e-20
-5.47258e-20
-6.83286e-20
-7.0069e-20
-7.70795e-20
-7.32219e-20
-7.20545e-20
-7.74015e-20
-7.87455e-20
-8.51425e-20
-8.64556e-20
-7.78919e-20
-8.68765e-20
-7.49441e-20
-8.49193e-20
-7.47537e-20
-8.60023e-20
-8.70197e-20
-9.00021e-20
-9.62729e-20
-9.31708e-20
-9.79732e-20
-8.595e-20
-9.58835e-20
-1.055e-19
-1.17173e-19
-1.237e-19
-1.34737e-19
-1.50883e-19
-1.29315e-19
-1.54258e-19
-1.43757e-19
-1.70292e-19
-4.48011e-20
-4.88349e-20
-5.54277e-20
-4.28709e-20
-6.31692e-20
-3.52476e-20
-6.97128e-20
-6.30473e-20
-6.44989e-20
-3.55482e-20
-6.62936e-20
-5.84476e-20
-7.42118e-20
-7.03726e-20
-6.14619e-20
-7.07253e-20
-7.91442e-20
-6.8107e-20
-7.30228e-20
-8.25859e-20
-8.28588e-20
-8.37061e-20
-8.69207e-20
-7.92733e-20
-9.19244e-20
-8.01747e-20
-8.28348e-20
-7.24954e-20
-8.43419e-20
-8.44256e-20
-8.97988e-20
-9.71721e-20
-9.25787e-20
-9.93972e-20
-9.74361e-20
-9.5067e-20
-1.06766e-19
-1.11103e-19
-1.2476e-19
-1.29905e-19
-1.49513e-19
-1.23384e-19
-1.46237e-19
-1.30115e-19
-1.72254e-19
-1.63516e-19
-1.80248e-19
-4.3059e-20
-4.77806e-20
-5.1954e-20
-4.70924e-20
-6.51984e-20
-4.30581e-20
-5.82964e-20
-6.39973e-20
-6.8659e-20
-4.41804e-20
-5.77407e-20
-6.32667e-20
-7.75311e-20
-6.69392e-20
-6.62089e-20
-6.66294e-20
-7.91963e-20
-6.5114e-20
-8.46224e-20
-8.31149e-20
-8.09276e-20
-8.22389e-20
-9.11962e-20
-8.0213e-20
-9.26254e-20
-7.66536e-20
-8.34447e-20
-7.57903e-20
-8.17528e-20
-7.93668e-20
-8.95582e-20
-8.87573e-20
-9.53385e-20
-9.14562e-20
-9.80727e-20
-9.51595e-20
-1.04603e-19
-1.14406e-19
-1.30703e-19
-1.30743e-19
-1.43165e-19
-1.25987e-19
-1.461e-19
-1.37786e-19
-1.70482e-19
-1.64659e-19
-1.70001e-19
-1.66722e-19
-2.13348e-19
-1.8749e-19
-4.12324e-20
-4.44812e-20
-5.09717e-20
-3.93646e-20
-7.9367e-20
-4.43749e-20
-6.68207e-20
-7.07048e-20
-8.14025e-20
-5.43325e-20
-5.52847e-20
-6.43406e-20
-8.246e-20
-6.45372e-20
-6.03276e-20
-5.53065e-20
-7.97663e-20
-7.20808e-20
-8.2353e-20
-7.77562e-20
-8.60294e-20
-7.82761e-20
-9.22735e-20
-7.23998e-20
-8.79829e-20
-7.15392e-20
-7.84328e-20
-7.64063e-20
-8.05475e-20
-8.3562e-20
-8.36473e-20
-9.32657e-20
-9.47393e-20
-9.2818e-20
-1.05936e-19
-1.04383e-19
-1.08311e-19
-1.18715e-19
-1.35717e-19
-1.40631e-19
-1.3977e-19
-1.23223e-19
-1.33774e-19
-1.29628e-19
-1.71716e-19
-1.58684e-19
-1.66937e-19
-1.66242e-19
-2.10746e-19
-1.88236e-19
-3.81937e-20
-4.11592e-20
-5.36772e-20
-4.66603e-20
-7.19941e-20
-4.5801e-20
-7.10212e-20
-5.78231e-20
-7.40644e-20
-4.89464e-20
-6.41995e-20
-5.94793e-20
-8.56863e-20
-6.65362e-20
-6.0325e-20
-5.97848e-20
-7.39792e-20
-7.74487e-20
-7.69158e-20
-8.03585e-20
-8.90451e-20
-8.09313e-20
-9.16657e-20
-6.98273e-20
-8.63585e-20
-7.53639e-20
-8.53175e-20
-7.4565e-20
-8.28759e-20
-8.42668e-20
-8.46107e-20
-9.43866e-20
-9.65357e-20
-9.85143e-20
-1.03553e-19
-1.02976e-19
-1.13e-19
-1.19389e-19
-1.43192e-19
-1.37858e-19
-1.44721e-19
-1.30282e-19
-1.37822e-19
-1.26451e-19
-1.59132e-19
-1.49032e-19
-1.56207e-19
-1.66136e-19
-2.0482e-19
-1.94108e-19
-3.94149e-20
-3.55156e-20
-5.3312e-20
-4.22229e-20
-6.89356e-20
-4.29726e-20
-6.4613e-20
-6.03667e-20
-6.86664e-20
-4.62954e-20
-6.20257e-20
-5.18696e-20
-7.60361e-20
-6.59949e-20
-6.13576e-20
-6.5074e-20
-8.33376e-20
-7.48032e-20
-7.49154e-20
-8.62681e-20
-8.88896e-20
-8.77928e-20
-9.05297e-20
-7.23157e-20
-8.64253e-20
-8.21933e-20
-8.67517e-20
-7.69888e-20
-8.41556e-20
-8.38348e-20
-9.11232e-20
-9.2196e-20
-9.83119e-20
-9.14944e-20
-9.90208e-20
-1.00255e-19
-1.06307e-19
-1.20881e-19
-1.39737e-19
-1.36036e-19
-1.38692e-19
-1.3236e-19
-1.39894e-19
-1.40474e-19
-1.47398e-19
-1.42618e-19
-1.6564e-19
-1.61107e-19
-2.03099e-19
-1.8875e-19
-3.73142e-20
-3.94666e-20
-4.68507e-20
-4.27385e-20
-6.12563e-20
-4.4922e-20
-6.4237e-20
-6.82048e-20
-7.38754e-20
-4.74847e-20
-7.26017e-20
-6.72859e-20
-6.93609e-20
-5.86183e-20
-6.78497e-20
-6.77791e-20
-8.51507e-20
-7.42985e-20
-7.72614e-20
-8.88591e-20
-8.76702e-20
-8.76908e-20
-8.8656e-20
-7.64507e-20
-8.68258e-20
-8.65022e-20
-8.27561e-20
-7.56708e-20
-8.10212e-20
-8.89362e-20
-8.40768e-20
-9.10753e-20
-9.01275e-20
-8.65709e-20
-9.91706e-20
-9.86089e-20
-1.02928e-19
-1.25641e-19
-1.28876e-19
-1.28551e-19
-1.35131e-19
-1.29738e-19
-1.39854e-19
-1.40925e-19
-1.59177e-19
-1.51299e-19
-1.78663e-19
-1.60825e-19
-1.97886e-19
-1.79929e-19
-4.46596e-20
-5.51615e-20
-4.93236e-20
-4.93943e-20
-6.39955e-20
-4.84665e-20
-5.7572e-20
-5.9483e-20
-7.51491e-20
-4.23198e-20
-6.58967e-20
-6.91273e-20
-6.96371e-20
-6.42989e-20
-5.99822e-20
-6.79241e-20
-8.51998e-20
-7.02172e-20
-7.38457e-20
-8.94037e-20
-9.42691e-20
-8.31e-20
-9.59897e-20
-7.56554e-20
-8.74097e-20
-7.96203e-20
-8.11122e-20
-6.96773e-20
-8.23586e-20
-8.637e-20
-8.1386e-20
-9.12248e-20
-9.10161e-20
-1.00359e-19
-9.1763e-20
-1.04673e-19
-1.03716e-19
-1.26235e-19
-1.28156e-19
-1.35379e-19
-1.34005e-19
-1.25809e-19
-1.45442e-19
-1.44384e-19
-1.60328e-19
-1.47367e-19
-1.73799e-19
-1.63972e-19
-1.83852e-19
-1.79401e-19
-5.60007e-20
-4.75649e-20
-6.12505e-20
-5.57586e-20
-6.82445e-20
-4.51678e-20
-5.97376e-20
-5.17442e-20
-6.95777e-20
-5.04314e-20
-5.85233e-20
-6.33533e-20
-7.87293e-20
-6.55182e-20
-6.62513e-20
-7.55874e-20
-7.91986e-20
-6.91768e-20
-6.91738e-20
-8.57135e-20
-9.22298e-20
-8.58849e-20
-9.71672e-20
-7.98447e-20
-8.94233e-20
-7.70906e-20
-7.86074e-20
-7.54967e-20
-8.93426e-20
-8.50941e-20
-8.39906e-20
-9.59448e-20
-8.95355e-20
-9.88868e-20
-9.17729e-20
-9.77485e-20
-1.07385e-19
-1.17338e-19
-1.34995e-19
-1.42248e-19
-1.30822e-19
-1.29082e-19
-1.53431e-19
-1.37846e-19
-1.67274e-19
-1.4823e-19
-1.73805e-19
-1.54931e-19
-1.9053e-19
-1.78536e-19
-4.58663e-20
-3.76854e-20
-5.12098e-20
-5.54608e-20
-6.76737e-20
-5.82832e-20
-7.17683e-20
-6.18123e-20
-9.02352e-20
-5.58848e-20
-6.95256e-20
-6.60821e-20
-7.63103e-20
-6.32659e-20
-7.22964e-20
-7.35053e-20
-8.43291e-20
-7.34097e-20
-8.05808e-20
-8.33229e-20
-8.93407e-20
-8.61656e-20
-9.66216e-20
-8.35339e-20
-9.39499e-20
-7.87248e-20
-7.40352e-20
-7.33374e-20
-7.91176e-20
-8.596e-20
-9.2868e-20
-9.5472e-20
-9.21578e-20
-9.55343e-20
-9.15716e-20
-9.19402e-20
-1.04533e-19
-1.20281e-19
-1.35466e-19
-1.37516e-19
-1.24312e-19
-1.11646e-19
-1.38502e-19
-1.32855e-19
-1.55805e-19
-1.47386e-19
-1.74453e-19
-1.66253e-19
-1.93609e-19
-1.86376e-19
-3.82483e-20
-3.58946e-20
-5.07436e-20
-4.88114e-20
-6.94632e-20
-6.14874e-20
-7.03744e-20
-6.06908e-20
-8.20879e-20
-4.57963e-20
-6.3716e-20
-7.1748e-20
-7.42831e-20
-5.64518e-20
-7.1987e-20
-7.66359e-20
-8.11814e-20
-7.40914e-20
-8.54764e-20
-8.19843e-20
-9.41461e-20
-8.94462e-20
-9.53839e-20
-8.67983e-20
-9.34513e-20
-8.23185e-20
-7.59087e-20
-7.32535e-20
-7.43832e-20
-8.78865e-20
-9.419e-20
-9.18869e-20
-9.14315e-20
-1.00888e-19
-8.49046e-20
-9.45435e-20
-1.01675e-19
-1.23193e-19
-1.29771e-19
-1.3625e-19
-1.31589e-19
-1.2226e-19
-1.42093e-19
-1.36936e-19
-1.51204e-19
-1.45031e-19
-1.70421e-19
-1.67644e-19
-1.9608e-19
-1.89612e-19
-3.88401e-20
-2.67825e-20
-5.3577e-20
-4.196e-20
-6.5459e-20
-4.58986e-20
-6.51227e-20
-5.60448e-20
-8.10948e-20
-5.27412e-20
-7.16711e-20
-7.42831e-20
-7.57281e-20
-5.13346e-20
-7.28917e-20
-7.55155e-20
-8.45738e-20
-6.92078e-20
-8.94748e-20
-8.67678e-20
-9.80858e-20
-8.61649e-20
-9.75649e-20
-8.44843e-20
-9.00543e-20
-7.83711e-20
-8.29981e-20
-7.62919e-20
-6.95242e-20
-8.77815e-20
-8.92825e-20
-8.93796e-20
-9.47859e-20
-9.70698e-20
-9.37266e-20
-9.50481e-20
-1.09129e-19
-1.24191e-19
-1.32511e-19
-1.38294e-19
-1.30523e-19
-1.32317e-19
-1.49079e-19
-1.41719e-19
-1.61348e-19
-1.49448e-19
-1.6989e-19
-1.66599e-19
-2.05579e-19
-1.87015e-19
-4.9527e-20
-2.28465e-20
-5.48401e-20
-4.68678e-20
-6.10879e-20
-4.31932e-20
-6.64112e-20
-5.81371e-20
-8.08395e-20
-6.09827e-20
-7.0501e-20
-6.7529e-20
-8.26797e-20
-6.21772e-20
-7.09482e-20
-8.05416e-20
-9.13933e-20
-6.49088e-20
-8.75059e-20
-9.0235e-20
-9.70972e-20
-8.36259e-20
-9.48561e-20
-8.40139e-20
-8.80069e-20
-7.42348e-20
-8.17981e-20
-7.61559e-20
-7.6893e-20
-9.0015e-20
-8.55066e-20
-9.20378e-20
-9.71004e-20
-9.02689e-20
-9.71719e-20
-9.74335e-20
-1.11296e-19
-1.18049e-19
-1.4246e-19
-1.29189e-19
-1.33447e-19
-1.27714e-19
-1.48139e-19
-1.47099e-19
-1.66697e-19
-1.51338e-19
-1.70673e-19
-1.67564e-19
-2.07633e-19
-1.77616e-19
-5.51808e-20
-3.21273e-20
-4.76756e-20
-4.64534e-20
-6.41692e-20
-4.89856e-20
-7.41079e-20
-5.77892e-20
-7.91381e-20
-5.35568e-20
-6.03969e-20
-6.97562e-20
-8.28971e-20
-7.04257e-20
-7.20853e-20
-7.62699e-20
-9.04471e-20
-7.12602e-20
-9.20108e-20
-8.74238e-20
-9.74432e-20
-8.48862e-20
-9.55943e-20
-8.33356e-20
-8.62444e-20
-7.60339e-20
-8.1837e-20
-7.28386e-20
-8.29528e-20
-8.73256e-20
-8.67676e-20
-8.95439e-20
-9.64738e-20
-9.15668e-20
-9.96398e-20
-9.65312e-20
-1.09451e-19
-1.13785e-19
-1.3654e-19
-1.45308e-19
-1.38482e-19
-1.29879e-19
-1.41463e-19
-1.46132e-19
-1.67411e-19
-1.42789e-19
-1.73735e-19
-1.74398e-19
-1.95667e-19
-1.74572e-19
-4.92376e-20
-4.22868e-20
-5.69546e-20
-5.12028e-20
-6.41633e-20
-5.66563e-20
-7.1351e-20
-6.29175e-20
-8.20463e-20
-5.47854e-20
-7.03774e-20
-7.19019e-20
-8.04411e-20
-7.33421e-20
-7.2165e-20
-7.59569e-20
-8.08749e-20
-7.8999e-20
-8.97096e-20
-9.35763e-20
-9.60674e-20
-8.37738e-20
-9.7659e-20
-8.95707e-20
-8.36729e-20
-7.45342e-20
-8.10661e-20
-7.6415e-20
-8.29154e-20
-8.67729e-20
-8.79658e-20
-8.70284e-20
-9.2983e-20
-9.46906e-20
-8.91082e-20
-9.64321e-20
-9.76926e-20
-1.15357e-19
-1.28888e-19
-1.36434e-19
-1.36492e-19
-1.32741e-19
-1.37933e-19
-1.4003e-19
-1.57358e-19
-1.48426e-19
-1.71247e-19
-1.65242e-19
-1.89723e-19
-1.75761e-19
-4.32112e-20
-4.96237e-20
-6.10729e-20
-5.23077e-20
-6.34296e-20
-5.90954e-20
-7.08699e-20
-6.03023e-20
-8.1572e-20
-5.54583e-20
-6.66053e-20
-7.98521e-20
-7.52546e-20
-6.82097e-20
-7.61507e-20
-7.56322e-20
-7.94976e-20
-8.24712e-20
-8.95289e-20
-9.26608e-20
-9.59103e-20
-8.83337e-20
-9.39789e-20
-8.8672e-20
-8.61943e-20
-7.48491e-20
-8.44674e-20
-8.07941e-20
-8.19141e-20
-8.22607e-20
-8.91762e-20
-8.84526e-20
-9.65822e-20
-9.08928e-20
-8.94978e-20
-9.34341e-20
-1.01748e-19
-1.20917e-19
-1.22406e-19
-1.36646e-19
-1.36546e-19
-1.28595e-19
-1.43772e-19
-1.43077e-19
-1.60403e-19
-1.51188e-19
-1.71035e-19
-1.60666e-19
-1.8625e-19
-1.77854e-19
-4.95259e-20
-4.5472e-20
-5.96838e-20
-5.03163e-20
-7.05219e-20
-5.22208e-20
-7.49806e-20
-5.68697e-20
-7.63614e-20
-5.37333e-20
-6.38296e-20
-7.81783e-20
-8.3825e-20
-6.78472e-20
-7.82282e-20
-7.81977e-20
-8.0115e-20
-7.89558e-20
-9.2355e-20
-8.68267e-20
-9.88576e-20
-9.06814e-20
-9.34572e-20
-8.77489e-20
-8.68194e-20
-7.9828e-20
-8.89839e-20
-8.011e-20
-8.19257e-20
-8.56212e-20
-9.44123e-20
-9.36817e-20
-1.06212e-19
-8.80771e-20
-8.58909e-20
-9.43394e-20
-1.04632e-19
-1.15892e-19
-1.24616e-19
-1.3509e-19
-1.38145e-19
-1.31479e-19
-1.51159e-19
-1.39626e-19
-1.65628e-19
-1.47369e-19
-1.73545e-19
-1.61437e-19
-1.87932e-19
-1.75339e-19
-4.53523e-20
-4.35332e-20
-5.62333e-20
-5.17765e-20
-6.14876e-20
-5.91311e-20
-6.81408e-20
-6.7285e-20
-8.45648e-20
-5.92817e-20
-7.30038e-20
-6.60841e-20
-7.90768e-20
-7.00585e-20
-7.26831e-20
-7.78024e-20
-8.07609e-20
-8.11268e-20
-9.34354e-20
-8.96025e-20
-1.05909e-19
-9.09105e-20
-1.0279e-19
-8.67779e-20
-8.6538e-20
-7.771e-20
-8.09988e-20
-7.54048e-20
-8.19137e-20
-8.40063e-20
-9.19182e-20
-9.67293e-20
-1.00572e-19
-9.57557e-20
-8.02711e-20
-9.8104e-20
-1.02648e-19
-1.20582e-19
-1.35404e-19
-1.28857e-19
-1.29817e-19
-1.28308e-19
-1.47412e-19
-1.43834e-19
-1.57129e-19
-1.52517e-19
-1.73172e-19
-1.69718e-19
-1.88606e-19
-1.83046e-19
-4.91558e-20
-3.59852e-20
-5.66912e-20
-4.56957e-20
-5.59465e-20
-6.02312e-20
-7.17661e-20
-6.23835e-20
-8.09382e-20
-6.33649e-20
-7.42722e-20
-6.622e-20
-8.64929e-20
-6.40321e-20
-7.38455e-20
-7.83919e-20
-8.61997e-20
-7.92987e-20
-9.46958e-20
-9.20938e-20
-1.06529e-19
-9.27265e-20
-9.79297e-20
-8.85085e-20
-9.21299e-20
-8.50802e-20
-8.47632e-20
-7.73399e-20
-8.38759e-20
-8.42624e-20
-9.33297e-20
-9.49609e-20
-1.00853e-19
-9.19994e-20
-8.3863e-20
-9.43636e-20
-1.03383e-19
-1.15296e-19
-1.33053e-19
-1.30637e-19
-1.27281e-19
-1.33862e-19
-1.47713e-19
-1.4313e-19
-1.56856e-19
-1.62425e-19
-1.78594e-19
-1.67531e-19
-1.95935e-19
-1.78499e-19
-4.19852e-20
-4.13117e-20
-5.24845e-20
-4.99483e-20
-5.78477e-20
-5.98586e-20
-7.3269e-20
-6.32449e-20
-8.05301e-20
-5.64181e-20
-8.26987e-20
-6.88299e-20
-8.49502e-20
-6.75467e-20
-7.59882e-20
-7.70572e-20
-8.6087e-20
-8.00619e-20
-9.70922e-20
-9.15151e-20
-1.03693e-19
-9.52365e-20
-9.42589e-20
-8.81663e-20
-9.20872e-20
-8.65836e-20
-8.57187e-20
-7.719e-20
-8.30457e-20
-9.10275e-20
-9.85873e-20
-8.84539e-20
-1.00359e-19
-8.87584e-20
-8.95344e-20
-9.67876e-20
-1.0314e-19
-1.13755e-19
-1.26772e-19
-1.25436e-19
-1.38571e-19
-1.32784e-19
-1.43599e-19
-1.43621e-19
-1.57596e-19
-1.6067e-19
-1.74208e-19
-1.69512e-19
-1.91861e-19
-1.75381e-19
-4.78094e-20
-4.46726e-20
-5.65048e-20
-6.25438e-20
-6.02452e-20
-6.02753e-20
-7.86118e-20
-6.19957e-20
-8.37538e-20
-5.2688e-20
-7.45006e-20
-7.01584e-20
-7.91984e-20
-6.93426e-20
-7.49488e-20
-8.16667e-20
-8.79984e-20
-8.42654e-20
-9.73857e-20
-8.98109e-20
-1.02067e-19
-9.76249e-20
-1.00025e-19
-8.95794e-20
-9.30865e-20
-8.24137e-20
-8.76818e-20
-7.59456e-20
-8.31355e-20
-8.88516e-20
-1.02576e-19
-8.644e-20
-9.78175e-20
-8.91312e-20
-9.04237e-20
-9.87247e-20
-1.07461e-19
-1.18649e-19
-1.26703e-19
-1.30682e-19
-1.42594e-19
-1.3063e-19
-1.40565e-19
-1.38536e-19
-1.57525e-19
-1.47135e-19
-1.6202e-19
-1.65411e-19
-1.91337e-19
-1.76816e-19
-3.88958e-20
-4.52176e-20
-5.43539e-20
-6.97376e-20
-6.4813e-20
-6.2283e-20
-7.75452e-20
-5.72502e-20
-8.11917e-20
-5.88092e-20
-7.75155e-20
-6.49988e-20
-7.82615e-20
-6.82229e-20
-7.57328e-20
-8.25653e-20
-8.17729e-20
-8.59365e-20
-9.46965e-20
-9.20377e-20
-9.92748e-20
-1.04036e-19
-1.05849e-19
-9.2654e-20
-9.10113e-20
-7.99662e-20
-8.52097e-20
-7.91039e-20
-8.04868e-20
-8.93724e-20
-9.76686e-20
-9.19366e-20
-9.91905e-20
-9.4412e-20
-8.80343e-20
-9.69881e-20
-1.11238e-19
-1.21239e-19
-1.31198e-19
-1.22694e-19
-1.40958e-19
-1.28283e-19
-1.43954e-19
-1.37771e-19
-1.55966e-19
-1.49919e-19
-1.55431e-19
-1.68646e-19
-1.86841e-19
-1.89188e-19
-4.20821e-20
-4.57378e-20
-5.0889e-20
-5.8326e-20
-6.75402e-20
-6.54055e-20
-8.07896e-20
-6.75534e-20
-8.13344e-20
-6.08853e-20
-7.85806e-20
-6.90027e-20
-8.73946e-20
-6.82796e-20
-7.96489e-20
-7.99368e-20
-8.36837e-20
-8.61827e-20
-9.57775e-20
-9.27706e-20
-1.00166e-19
-9.90754e-20
-1.02243e-19
-9.60111e-20
-9.17855e-20
-8.23612e-20
-8.33496e-20
-8.30406e-20
-8.3226e-20
-9.30579e-20
-9.43383e-20
-9.31529e-20
-9.66167e-20
-9.51333e-20
-8.95618e-20
-9.70143e-20
-1.11426e-19
-1.15313e-19
-1.25574e-19
-1.23435e-19
-1.33898e-19
-1.3099e-19
-1.41339e-19
-1.33268e-19
-1.52043e-19
-1.52561e-19
-1.71027e-19
-1.73499e-19
-1.82127e-19
-1.85027e-19
-4.56363e-20
-4.83774e-20
-5.42961e-20
-5.51993e-20
-6.6886e-20
-6.35806e-20
-7.9067e-20
-6.05372e-20
-8.48475e-20
-6.56145e-20
-7.63978e-20
-7.6617e-20
-8.53341e-20
-6.9352e-20
-8.53827e-20
-7.77534e-20
-8.425e-20
-8.54651e-20
-9.91936e-20
-8.98258e-20
-1.04694e-19
-9.6817e-20
-1.00574e-19
-9.34985e-20
-9.43871e-20
-8.32735e-20
-8.10852e-20
-8.15627e-20
-8.40422e-20
-9.09904e-20
-9.33081e-20
-9.07481e-20
-9.67943e-20
-9.58843e-20
-9.18191e-20
-9.56466e-20
-1.09514e-19
-1.17324e-19
-1.22787e-19
-1.26665e-19
-1.30127e-19
-1.32663e-19
-1.52377e-19
-1.37219e-19
-1.51365e-19
-1.52867e-19
-1.70283e-19
-1.73943e-19
-1.81339e-19
-1.80018e-19
-4.46092e-20
-5.26237e-20
-5.77137e-20
-4.86667e-20
-6.67926e-20
-6.54342e-20
-7.38509e-20
-6.56125e-20
-8.6142e-20
-6.14017e-20
-7.99468e-20
-7.58292e-20
-7.66157e-20
-6.87986e-20
-8.69131e-20
-7.93836e-20
-8.74774e-20
-8.4196e-20
-9.62244e-20
-9.10642e-20
-1.04996e-19
-9.84249e-20
-1.01674e-19
-9.18218e-20
-9.17976e-20
-8.36422e-20
-8.45403e-20
-8.18443e-20
-8.52409e-20
-9.03167e-20
-9.76006e-20
-9.04819e-20
-9.96603e-20
-9.53467e-20
-9.00448e-20
-9.28981e-20
-1.07254e-19
-1.23656e-19
-1.2265e-19
-1.22097e-19
-1.41024e-19
-1.32866e-19
-1.49053e-19
-1.42117e-19
-1.5208e-19
-1.53031e-19
-1.77247e-19
-1.69306e-19
-1.78543e-19
-1.77407e-19
-3.33775e-20
-4.77778e-20
-4.88205e-20
-4.69778e-20
-6.51962e-20
-7.05126e-20
-8.05904e-20
-7.16158e-20
-8.48749e-20
-6.15119e-20
-8.78893e-20
-7.20297e-20
-7.45045e-20
-7.10031e-20
-9.2088e-20
-8.12685e-20
-8.90448e-20
-8.53794e-20
-9.38992e-20
-9.72769e-20
-1.05061e-19
-9.99126e-20
-1.02453e-19
-9.0074e-20
-9.49536e-20
-8.39164e-20
-8.62475e-20
-8.46582e-20
-8.68381e-20
-9.17923e-20
-9.42003e-20
-9.52338e-20
-9.87402e-20
-9.48274e-20
-8.95078e-20
-8.83705e-20
-1.05006e-19
-1.26643e-19
-1.24637e-19
-1.19541e-19
-1.41005e-19
-1.32846e-19
-1.50188e-19
-1.36317e-19
-1.47853e-19
-1.55495e-19
-1.77744e-19
-1.72028e-19
-1.85348e-19
-1.87738e-19
-4.4666e-20
-5.12338e-20
-4.08992e-20
-5.77893e-20
-6.00524e-20
-6.80713e-20
-7.83176e-20
-6.49266e-20
-8.06268e-20
-6.61779e-20
-7.72979e-20
-6.43589e-20
-8.50691e-20
-6.45355e-20
-8.52526e-20
-7.99964e-20
-8.60398e-20
-8.51597e-20
-9.46293e-20
-9.61295e-20
-1.06099e-19
-1.03007e-19
-1.02084e-19
-8.81888e-20
-9.35246e-20
-8.44854e-20
-8.62616e-20
-8.48384e-20
-8.7108e-20
-9.49712e-20
-9.63888e-20
-9.60699e-20
-1.00871e-19
-9.51745e-20
-9.48521e-20
-9.68159e-20
-1.14949e-19
-1.13432e-19
-1.31223e-19
-1.31817e-19
-1.37917e-19
-1.33433e-19
-1.44953e-19
-1.39874e-19
-1.51536e-19
-1.6148e-19
-1.69494e-19
-1.81476e-19
-1.86054e-19
-1.81783e-19
-5.10017e-20
-4.72222e-20
-5.24718e-20
-6.37356e-20
-6.22065e-20
-6.96948e-20
-7.54661e-20
-6.42078e-20
-7.95582e-20
-6.80949e-20
-8.39246e-20
-6.84661e-20
-8.92218e-20
-7.3947e-20
-8.16576e-20
-7.90597e-20
-8.23115e-20
-8.69376e-20
-9.50017e-20
-9.49227e-20
-1.08077e-19
-9.84904e-20
-1.0184e-19
-9.16091e-20
-9.4348e-20
-8.49459e-20
-8.71442e-20
-8.66595e-20
-9.27709e-20
-9.2298e-20
-9.98143e-20
-9.60123e-20
-9.88907e-20
-9.71322e-20
-9.75967e-20
-9.66869e-20
-1.14149e-19
-1.0728e-19
-1.32907e-19
-1.27418e-19
-1.38654e-19
-1.33465e-19
-1.40754e-19
-1.42834e-19
-1.54769e-19
-1.58513e-19
-1.65356e-19
-1.71654e-19
-1.88005e-19
-1.7973e-19
-5.0766e-20
-5.45634e-20
-5.98826e-20
-6.25874e-20
-6.78293e-20
-6.33561e-20
-6.68075e-20
-6.12811e-20
-8.67644e-20
-6.89496e-20
-7.57468e-20
-7.1798e-20
-8.3046e-20
-7.69022e-20
-8.67804e-20
-7.6448e-20
-7.86305e-20
-8.57857e-20
-9.79068e-20
-9.44409e-20
-1.10227e-19
-1.00117e-19
-1.06674e-19
-9.23821e-20
-9.69187e-20
-8.52956e-20
-8.76242e-20
-8.50915e-20
-9.42795e-20
-9.20699e-20
-9.83457e-20
-9.2607e-20
-1.0273e-19
-9.8219e-20
-1.00311e-19
-9.31357e-20
-1.152e-19
-1.12332e-19
-1.31582e-19
-1.24567e-19
-1.36289e-19
-1.26562e-19
-1.37064e-19
-1.44075e-19
-1.63182e-19
-1.51205e-19
-1.69973e-19
-1.64666e-19
-1.85417e-19
-1.75977e-19
-4.79385e-20
-5.59922e-20
-5.94724e-20
-5.32843e-20
-7.03141e-20
-6.48907e-20
-7.40697e-20
-5.93412e-20
-8.43118e-20
-7.11798e-20
-7.41526e-20
-7.29585e-20
-8.47121e-20
-7.96794e-20
-8.67627e-20
-7.4176e-20
-8.78756e-20
-7.85471e-20
-9.60438e-20
-9.42066e-20
-1.08915e-19
-1.01169e-19
-1.06331e-19
-9.21666e-20
-9.43038e-20
-8.55188e-20
-8.77326e-20
-8.50731e-20
-9.18029e-20
-9.13673e-20
-9.78135e-20
-9.68085e-20
-1.04613e-19
-8.95501e-20
-1.02255e-19
-9.14092e-20
-1.07616e-19
-1.1472e-19
-1.29298e-19
-1.23599e-19
-1.33339e-19
-1.30285e-19
-1.44102e-19
-1.3931e-19
-1.55648e-19
-1.51583e-19
-1.71203e-19
-1.69196e-19
-1.79237e-19
-4.70745e-20
-4.986e-20
-5.45782e-20
-5.38971e-20
-6.56326e-20
-6.82133e-20
-8.02352e-20
-6.48874e-20
-8.33586e-20
-7.55913e-20
-8.20093e-20
-7.36041e-20
-8.29422e-20
-7.36359e-20
-8.92769e-20
-7.56904e-20
-8.64417e-20
-8.23367e-20
-9.91505e-20
-9.78256e-20
-1.11404e-19
-1.02496e-19
-1.07355e-19
-9.3017e-20
-9.34222e-20
-8.60461e-20
-8.82802e-20
-8.49779e-20
-9.06253e-20
-8.82242e-20
-9.45591e-20
-9.80811e-20
-1.04271e-19
-9.50846e-20
-9.96034e-20
-9.38416e-20
-1.11273e-19
-1.14647e-19
-1.30742e-19
-1.25657e-19
-1.29755e-19
-1.33039e-19
-1.44573e-19
-1.37937e-19
-1.52625e-19
-1.56388e-19
-1.72953e-19
-1.70521e-19
-4.55383e-20
-4.75462e-20
-5.8395e-20
-6.45563e-20
-6.56234e-20
-6.76261e-20
-7.96602e-20
-6.66636e-20
-8.22338e-20
-7.33014e-20
-8.48452e-20
-7.41018e-20
-8.83111e-20
-7.40942e-20
-9.1982e-20
-8.16628e-20
-8.35868e-20
-8.51175e-20
-9.8826e-20
-9.96968e-20
-1.13249e-19
-1.02511e-19
-1.04978e-19
-9.41269e-20
-9.45854e-20
-8.64864e-20
-8.84708e-20
-8.3633e-20
-8.95326e-20
-8.74185e-20
-9.25557e-20
-9.97038e-20
-9.89689e-20
-1.0003e-19
-9.70774e-20
-9.95503e-20
-1.1149e-19
-1.10994e-19
-1.29233e-19
-1.3377e-19
-1.33144e-19
-1.32243e-19
-1.43645e-19
-1.3605e-19
-1.51246e-19
-1.54611e-19
-1.6429e-19
-5.71648e-20
-4.59591e-20
-5.5923e-20
-6.36294e-20
-6.37592e-20
-6.95858e-20
-7.10556e-20
-6.59579e-20
-8.92033e-20
-7.95785e-20
-7.83342e-20
-7.4029e-20
-9.07576e-20
-7.0104e-20
-9.33287e-20
-8.24582e-20
-8.38524e-20
-8.19886e-20
-9.86067e-20
-9.75805e-20
-1.12165e-19
-1.03968e-19
-1.02359e-19
-9.35817e-20
-9.7345e-20
-8.8001e-20
-8.87118e-20
-8.64814e-20
-9.27734e-20
-8.85012e-20
-9.48141e-20
-9.63534e-20
-9.95106e-20
-9.49394e-20
-9.68517e-20
-9.55275e-20
-1.16757e-19
-1.14113e-19
-1.30884e-19
-1.38002e-19
-1.27801e-19
-1.24976e-19
-1.42491e-19
-1.48973e-19
-1.54808e-19
-1.58006e-19
-4.8433e-20
-4.57188e-20
-4.80913e-20
-6.24016e-20
-6.69898e-20
-6.45943e-20
-7.65934e-20
-6.39635e-20
-8.00162e-20
-7.23362e-20
-8.01411e-20
-7.26871e-20
-8.78217e-20
-7.67399e-20
-8.92599e-20
-7.71209e-20
-8.527e-20
-7.76389e-20
-9.9662e-20
-9.8036e-20
-1.09754e-19
-1.08011e-19
-1.00599e-19
-9.29496e-20
-9.63521e-20
-9.05552e-20
-8.97322e-20
-8.69357e-20
-9.338e-20
-8.98657e-20
-9.66934e-20
-9.3426e-20
-1.01614e-19
-9.29069e-20
-1.008e-19
-9.47917e-20
-1.1085e-19
-1.23025e-19
-1.32953e-19
-1.30377e-19
-1.3622e-19
-1.34696e-19
-1.4217e-19
-1.43325e-19
-1.56495e-19
-4.06715e-20
-4.33305e-20
-4.67135e-20
-5.84027e-20
-6.44865e-20
-5.16886e-20
-7.89518e-20
-6.3984e-20
-7.44175e-20
-7.45931e-20
-7.69031e-20
-7.37782e-20
-8.95362e-20
-7.71935e-20
-8.87593e-20
-7.76586e-20
-8.45509e-20
-8.02138e-20
-9.97557e-20
-9.91311e-20
-1.08977e-19
-1.04929e-19
-1.05227e-19
-9.3368e-20
-9.76891e-20
-8.89126e-20
-8.96276e-20
-8.50708e-20
-9.55438e-20
-9.59851e-20
-9.86163e-20
-9.67968e-20
-1.01573e-19
-9.74706e-20
-1.02558e-19
-9.87195e-20
-1.10972e-19
-1.14878e-19
-1.25536e-19
-1.32696e-19
-1.37614e-19
-1.41283e-19
-1.43344e-19
-1.35531e-19
-1.67439e-19
-4.47676e-20
-5.41664e-20
-5.78666e-20
-6.39709e-20
-6.14447e-20
-6.02906e-20
-7.87051e-20
-6.49071e-20
-7.89813e-20
-8.25287e-20
-8.02235e-20
-7.03976e-20
-8.99659e-20
-7.27619e-20
-8.66091e-20
-7.9519e-20
-8.28285e-20
-8.11154e-20
-9.96248e-20
-1.01966e-19
-1.09046e-19
-1.01503e-19
-1.05086e-19
-9.47651e-20
-9.57865e-20
-8.83331e-20
-8.9562e-20
-8.79085e-20
-1.0068e-19
-9.53806e-20
-9.39396e-20
-9.82322e-20
-1.01594e-19
-9.89738e-20
-9.96145e-20
-1.02102e-19
-1.16591e-19
-1.1225e-19
-1.30162e-19
-1.296e-19
-1.2932e-19
-1.36338e-19
-1.44561e-19
-1.36832e-19
-1.59549e-19
-4.53777e-20
-5.3254e-20
-6.12772e-20
-6.84679e-20
-6.36301e-20
-6.3073e-20
-7.51838e-20
-6.91344e-20
-8.73892e-20
-8.0507e-20
-7.6121e-20
-7.99856e-20
-8.88541e-20
-8.03079e-20
-9.07025e-20
-7.51958e-20
-8.65488e-20
-8.36583e-20
-9.8887e-20
-9.78756e-20
-1.0597e-19
-1.05639e-19
-1.0324e-19
-9.71423e-20
-9.50597e-20
-8.91484e-20
-8.98781e-20
-9.20417e-20
-9.93571e-20
-9.65645e-20
-9.65091e-20
-9.42541e-20
-9.84225e-20
-9.79189e-20
-1.02434e-19
-9.96328e-20
-1.1191e-19
-1.14846e-19
-1.30223e-19
-1.32915e-19
-1.26757e-19
-1.28665e-19
-1.41312e-19
-1.41052e-19
-1.58741e-19
-4.53253e-20
-5.06924e-20
-5.4551e-20
-5.97871e-20
-6.77845e-20
-6.4711e-20
-6.84186e-20
-6.62771e-20
-8.65029e-20
-7.81602e-20
-8.3484e-20
-7.82415e-20
-9.3105e-20
-8.06034e-20
-9.24328e-20
-7.46389e-20
-8.64254e-20
-8.32128e-20
-9.79152e-20
-9.55665e-20
-1.05842e-19
-1.04397e-19
-1.00386e-19
-9.48352e-20
-9.54364e-20
-9.23894e-20
-9.01784e-20
-9.11014e-20
-9.59991e-20
-9.34577e-20
-9.72792e-20
-9.27794e-20
-9.67481e-20
-9.68488e-20
-9.99819e-20
-9.92133e-20
-1.12967e-19
-1.15222e-19