/*--------------------------------*- C++ -*----------------------------------*\
  =========                 |
  \\      /  F ield         | OpenFOAM: The Open Source CFD Toolbox
   \\    /   O peration     | Website:  https://openfoam.org
    \\  /    A nd           | Version:  7
     \\/     M anipulation  |
\*---------------------------------------------------------------------------*/
FoamFile
{
    version     2.0;
    format      ascii;
    class       volScalarField;
    location    "212000";
    object      p;
}
// * * * * * * * * * * * * * * * * * * * * * * * * * * * * * * * * * * * * * //

dimensions      [0 2 -2 0 0 0 0];

internalField   nonuniform List<scalar> 
4814
(
-2.20872e-18
-2.20108e-18
-2.19957e-18
-2.19295e-18
-2.2236e-18
-2.2204e-18
-2.21676e-18
-2.21002e-18
-2.20434e-18
-2.19746e-18
-2.20057e-18
-2.19647e-18
-2.19808e-18
-2.19316e-18
-2.20611e-18
-2.19587e-18
-2.20364e-18
-2.19712e-18
-2.21068e-18
-2.19767e-18
-2.20186e-18
-2.19038e-18
-2.19286e-18
-2.18096e-18
-2.19079e-18
-2.18472e-18
-2.1871e-18
-2.18256e-18
-2.18601e-18
-2.17773e-18
-2.1813e-18
-2.17415e-18
-2.17476e-18
-2.17038e-18
-2.16528e-18
-2.16183e-18
-2.17023e-18
-2.16525e-18
-2.22881e-18
-2.21721e-18
-2.21721e-18
-2.20593e-18
-2.20504e-18
-2.20426e-18
-2.19592e-18
-2.19363e-18
-2.19975e-18
-2.19168e-18
-2.20656e-18
-2.19053e-18
-2.20854e-18
-2.19876e-18
-2.21001e-18
-2.19636e-18
-2.20115e-18
-2.19083e-18
-2.19165e-18
-2.18122e-18
-2.19125e-18
-2.18579e-18
-2.18697e-18
-2.18231e-18
-2.18314e-18
-2.17762e-18
-2.18254e-18
-2.1743e-18
-2.17213e-18
-2.16953e-18
-2.16771e-18
-2.16219e-18
-2.16844e-18
-2.16547e-18
-2.16852e-18
-2.16127e-18
-2.16409e-18
-2.1498e-18
-2.15425e-18
-2.15022e-18
-2.15232e-18
-2.22751e-18
-2.21965e-18
-2.2146e-18
-2.20443e-18
-2.20487e-18
-2.20265e-18
-2.1968e-18
-2.19397e-18
-2.19536e-18
-2.19273e-18
-2.2051e-18
-2.19042e-18
-2.21141e-18
-2.1982e-18
-2.20623e-18
-2.19409e-18
-2.19964e-18
-2.18794e-18
-2.19141e-18
-2.18078e-18
-2.19118e-18
-2.1871e-18
-2.18656e-18
-2.18293e-18
-2.18426e-18
-2.17685e-18
-2.18082e-18
-2.17471e-18
-2.17255e-18
-2.16929e-18
-2.16833e-18
-2.16338e-18
-2.16971e-18
-2.16626e-18
-2.16985e-18
-2.16365e-18
-2.16812e-18
-2.14561e-18
-2.15691e-18
-2.1512e-18
-2.1526e-18
-2.15301e-18
-2.16029e-18
-2.15276e-18
-2.22161e-18
-2.22229e-18
-2.21344e-18
-2.20957e-18
-2.20582e-18
-2.19941e-18
-2.20215e-18
-2.19711e-18
-2.19391e-18
-2.19768e-18
-2.20379e-18
-2.19386e-18
-2.20547e-18
-2.19697e-18
-2.2061e-18
-2.1915e-18
-2.19883e-18
-2.18707e-18
-2.18979e-18
-2.18433e-18
-2.19148e-18
-2.18602e-18
-2.18559e-18
-2.18234e-18
-2.1851e-18
-2.17487e-18
-2.18007e-18
-2.17509e-18
-2.17326e-18
-2.1705e-18
-2.16719e-18
-2.16537e-18
-2.17042e-18
-2.16642e-18
-2.17177e-18
-2.16535e-18
-2.16699e-18
-2.15373e-18
-2.15385e-18
-2.15098e-18
-2.15316e-18
-2.15598e-18
-2.1557e-18
-2.14915e-18
-2.22457e-18
-2.219e-18
-2.21606e-18
-2.2089e-18
-2.20785e-18
-2.19345e-18
-2.1997e-18
-2.19244e-18
-2.19663e-18
-2.19582e-18
-2.20425e-18
-2.19601e-18
-2.20255e-18
-2.19767e-18
-2.21088e-18
-2.19254e-18
-2.19642e-18
-2.18957e-18
-2.18996e-18
-2.18403e-18
-2.19125e-18
-2.1878e-18
-2.1861e-18
-2.18174e-18
-2.18427e-18
-2.17602e-18
-2.17938e-18
-2.17516e-18
-2.17224e-18
-2.17112e-18
-2.16722e-18
-2.165e-18
-2.16945e-18
-2.16852e-18
-2.17002e-18
-2.16358e-18
-2.16285e-18
-2.15513e-18
-2.15452e-18
-2.15131e-18
-2.15538e-18
-2.15363e-18
-2.15759e-18
-2.15094e-18
-2.22457e-18
-2.21603e-18
-2.21468e-18
-2.21007e-18
-2.20509e-18
-2.19879e-18
-2.19978e-18
-2.19052e-18
-2.20256e-18
-2.19477e-18
-2.20423e-18
-2.1942e-18
-2.20443e-18
-2.19854e-18
-2.20768e-18
-2.19068e-18
-2.19828e-18
-2.18808e-18
-2.19127e-18
-2.18255e-18
-2.1908e-18
-2.18617e-18
-2.188e-18
-2.18224e-18
-2.18322e-18
-2.17737e-18
-2.17959e-18
-2.1741e-18
-2.1732e-18
-2.17342e-18
-2.16556e-18
-2.16489e-18
-2.17019e-18
-2.16723e-18
-2.17196e-18
-2.16653e-18
-2.16022e-18
-2.15261e-18
-2.1541e-18
-2.14968e-18
-2.15594e-18
-2.14724e-18
-2.15894e-18
-2.15007e-18
-2.22379e-18
-2.22078e-18
-2.21746e-18
-2.21043e-18
-2.2037e-18
-2.199e-18
-2.19911e-18
-2.19277e-18
-2.19836e-18
-2.19474e-18
-2.20509e-18
-2.19502e-18
-2.20956e-18
-2.19473e-18
-2.20466e-18
-2.19066e-18
-2.19582e-18
-2.18575e-18
-2.19097e-18
-2.18295e-18
-2.19179e-18
-2.18565e-18
-2.18688e-18
-2.1827e-18
-2.18223e-18
-2.1781e-18
-2.17901e-18
-2.17277e-18
-2.1733e-18
-2.1716e-18
-2.16664e-18
-2.16612e-18
-2.16987e-18
-2.16838e-18
-2.17172e-18
-2.16888e-18
-2.16467e-18
-2.15388e-18
-2.15344e-18
-2.14698e-18
-2.15309e-18
-2.14939e-18
-2.15744e-18
-2.14929e-18
-2.15106e-18
-2.22236e-18
-2.22142e-18
-2.21918e-18
-2.208e-18
-2.20639e-18
-2.19688e-18
-2.19951e-18
-2.19466e-18
-2.19662e-18
-2.19595e-18
-2.20679e-18
-2.19337e-18
-2.2055e-18
-2.19434e-18
-2.20683e-18
-2.18922e-18
-2.1996e-18
-2.18766e-18
-2.19046e-18
-2.1838e-18
-2.19229e-18
-2.18457e-18
-2.18687e-18
-2.18339e-18
-2.18262e-18
-2.1796e-18
-2.17873e-18
-2.17465e-18
-2.17261e-18
-2.17091e-18
-2.16687e-18
-2.1665e-18
-2.16984e-18
-2.16551e-18
-2.17099e-18
-2.1651e-18
-2.16429e-18
-2.15323e-18
-2.15727e-18
-2.14507e-18
-2.15243e-18
-2.15196e-18
-2.15553e-18
-2.14798e-18
-2.15474e-18
-2.22165e-18
-2.22228e-18
-2.21831e-18
-2.20953e-18
-2.20756e-18
-2.19476e-18
-2.19791e-18
-2.1922e-18
-2.19746e-18
-2.19632e-18
-2.20473e-18
-2.19624e-18
-2.2029e-18
-2.19978e-18
-2.20675e-18
-2.18978e-18
-2.20027e-18
-2.18946e-18
-2.1934e-18
-2.18508e-18
-2.19153e-18
-2.18451e-18
-2.18611e-18
-2.18328e-18
-2.18274e-18
-2.17896e-18
-2.17927e-18
-2.17518e-18
-2.1722e-18
-2.17103e-18
-2.1676e-18
-2.16425e-18
-2.16725e-18
-2.16603e-18
-2.16851e-18
-2.16319e-18
-2.16011e-18
-2.15305e-18
-2.15341e-18
-2.14899e-18
-2.15359e-18
-2.15117e-18
-2.15672e-18
-2.15064e-18
-2.15579e-18
-2.22302e-18
-2.21992e-18
-2.21724e-18
-2.21185e-18
-2.20595e-18
-2.19702e-18
-2.19859e-18
-2.19124e-18
-2.19978e-18
-2.19738e-18
-2.20252e-18
-2.1955e-18
-2.20417e-18
-2.19926e-18
-2.20676e-18
-2.19072e-18
-2.20177e-18
-2.18761e-18
-2.19198e-18
-2.18296e-18
-2.19136e-18
-2.18545e-18
-2.18819e-18
-2.18264e-18
-2.18262e-18
-2.1778e-18
-2.17853e-18
-2.17467e-18
-2.17026e-18
-2.1714e-18
-2.16934e-18
-2.16559e-18
-2.16854e-18
-2.1645e-18
-2.1689e-18
-2.16409e-18
-2.16081e-18
-2.15209e-18
-2.1514e-18
-2.15079e-18
-2.15326e-18
-2.14987e-18
-2.15744e-18
-2.15027e-18
-2.15433e-18
-2.2212e-18
-2.21993e-18
-2.21829e-18
-2.21257e-18
-2.20745e-18
-2.19941e-18
-2.20118e-18
-2.19334e-18
-2.19943e-18
-2.19645e-18
-2.20114e-18
-2.19593e-18
-2.20276e-18
-2.19773e-18
-2.20195e-18
-2.19054e-18
-2.20085e-18
-2.18869e-18
-2.1919e-18
-2.18182e-18
-2.19175e-18
-2.18582e-18
-2.18727e-18
-2.182e-18
-2.18253e-18
-2.17765e-18
-2.17957e-18
-2.17492e-18
-2.17084e-18
-2.17228e-18
-2.16979e-18
-2.16538e-18
-2.1671e-18
-2.16569e-18
-2.17105e-18
-2.16816e-18
-2.16176e-18
-2.15211e-18
-2.15187e-18
-2.14963e-18
-2.15441e-18
-2.15049e-18
-2.1558e-18
-2.1463e-18
-2.22712e-18
-2.22288e-18
-2.21638e-18
-2.21259e-18
-2.20686e-18
-2.19743e-18
-2.20048e-18
-2.19534e-18
-2.1969e-18
-2.19905e-18
-2.20267e-18
-2.19393e-18
-2.20381e-18
-2.19525e-18
-2.20235e-18
-2.19125e-18
-2.19812e-18
-2.18728e-18
-2.19283e-18
-2.18305e-18
-2.19267e-18
-2.18543e-18
-2.18663e-18
-2.18257e-18
-2.18294e-18
-2.1782e-18
-2.17915e-18
-2.17467e-18
-2.17162e-18
-2.17218e-18
-2.16976e-18
-2.16467e-18
-2.16861e-18
-2.16707e-18
-2.17101e-18
-2.16903e-18
-2.1651e-18
-2.15328e-18
-2.15566e-18
-2.14894e-18
-2.15086e-18
-2.15223e-18
-2.1532e-18
-2.15025e-18
-2.22805e-18
-2.22444e-18
-2.21605e-18
-2.20783e-18
-2.20942e-18
-2.19782e-18
-2.20266e-18
-2.19521e-18
-2.19956e-18
-2.19825e-18
-2.20419e-18
-2.19434e-18
-2.20687e-18
-2.19812e-18
-2.20467e-18
-2.1921e-18
-2.19646e-18
-2.18749e-18
-2.19263e-18
-2.18394e-18
-2.19292e-18
-2.18573e-18
-2.18674e-18
-2.18334e-18
-2.18241e-18
-2.17872e-18
-2.1783e-18
-2.17537e-18
-2.17048e-18
-2.17115e-18
-2.16927e-18
-2.16536e-18
-2.16939e-18
-2.16699e-18
-2.17029e-18
-2.16708e-18
-2.16209e-18
-2.15112e-18
-2.15523e-18
-2.14801e-18
-2.1513e-18
-2.14982e-18
-2.15455e-18
-2.14783e-18
-2.22629e-18
-2.22168e-18
-2.21594e-18
-2.21074e-18
-2.20902e-18
-2.20044e-18
-2.20162e-18
-2.19295e-18
-2.20072e-18
-2.19611e-18
-2.20316e-18
-2.19454e-18
-2.20642e-18
-2.19723e-18
-2.20529e-18
-2.1932e-18
-2.19718e-18
-2.19016e-18
-2.19029e-18
-2.18497e-18
-2.19185e-18
-2.18553e-18
-2.18617e-18
-2.18247e-18
-2.1819e-18
-2.17898e-18
-2.17816e-18
-2.17468e-18
-2.17073e-18
-2.17016e-18
-2.16765e-18
-2.16555e-18
-2.1672e-18
-2.16597e-18
-2.16847e-18
-2.16643e-18
-2.16065e-18
-2.15134e-18
-2.15473e-18
-2.14718e-18
-2.15352e-18
-2.15045e-18
-2.15402e-18
-2.14805e-18
-2.22664e-18
-2.219e-18
-2.21772e-18
-2.21134e-18
-2.21033e-18
-2.19976e-18
-2.2e-18
-2.19704e-18
-2.20102e-18
-2.19528e-18
-2.20285e-18
-2.19555e-18
-2.20386e-18
-2.19389e-18
-2.20663e-18
-2.19101e-18
-2.19769e-18
-2.19295e-18
-2.1915e-18
-2.18426e-18
-2.19051e-18
-2.18575e-18
-2.18777e-18
-2.18183e-18
-2.18086e-18
-2.17777e-18
-2.17815e-18
-2.17368e-18
-2.1704e-18
-2.1692e-18
-2.16718e-18
-2.16504e-18
-2.16542e-18
-2.16564e-18
-2.17071e-18
-2.16472e-18
-2.16301e-18
-2.15315e-18
-2.15177e-18
-2.14654e-18
-2.15485e-18
-2.1505e-18
-2.1531e-18
-2.14939e-18
-2.22587e-18
-2.22335e-18
-2.2162e-18
-2.21457e-18
-2.21123e-18
-2.20382e-18
-2.20051e-18
-2.199e-18
-2.20323e-18
-2.19643e-18
-2.20323e-18
-2.19562e-18
-2.20633e-18
-2.19281e-18
-2.2048e-18
-2.19117e-18
-2.19714e-18
-2.19121e-18
-2.19161e-18
-2.1846e-18
-2.19034e-18
-2.18573e-18
-2.18672e-18
-2.18239e-18
-2.18018e-18
-2.17734e-18
-2.17707e-18
-2.17498e-18
-2.17007e-18
-2.17045e-18
-2.16804e-18
-2.16552e-18
-2.16877e-18
-2.16681e-18
-2.16776e-18
-2.16282e-18
-2.16287e-18
-2.15052e-18
-2.15135e-18
-2.14715e-18
-2.1546e-18
-2.14875e-18
-2.15212e-18
-2.15074e-18
-2.22568e-18
-2.22346e-18
-2.21599e-18
-2.21512e-18
-2.20981e-18
-2.20303e-18
-2.20382e-18
-2.19784e-18
-2.20398e-18
-2.19433e-18
-2.20283e-18
-2.19584e-18
-2.20394e-18
-2.19698e-18
-2.20498e-18
-2.19042e-18
-2.19844e-18
-2.18951e-18
-2.19132e-18
-2.18531e-18
-2.19201e-18
-2.18611e-18
-2.18541e-18
-2.18176e-18
-2.18132e-18
-2.17734e-18
-2.17687e-18
-2.17531e-18
-2.17058e-18
-2.1703e-18
-2.16866e-18
-2.16597e-18
-2.16805e-18
-2.16573e-18
-2.17004e-18
-2.16148e-18
-2.15883e-18
-2.15237e-18
-2.15188e-18
-2.15201e-18
-2.15584e-18
-2.14773e-18
-2.15332e-18
-2.14626e-18
-2.22605e-18
-2.22281e-18
-2.21653e-18
-2.21403e-18
-2.21134e-18
-2.20253e-18
-2.20372e-18
-2.19668e-18
-2.2008e-18
-2.19641e-18
-2.20228e-18
-2.195e-18
-2.20478e-18
-2.19704e-18
-2.20523e-18
-2.19186e-18
-2.19852e-18
-2.19149e-18
-2.19086e-18
-2.18607e-18
-2.1911e-18
-2.18543e-18
-2.18723e-18
-2.18063e-18
-2.18162e-18
-2.17733e-18
-2.17771e-18
-2.17399e-18
-2.17075e-18
-2.16954e-18
-2.16855e-18
-2.16659e-18
-2.16604e-18
-2.16558e-18
-2.16884e-18
-2.16331e-18
-2.15814e-18
-2.15284e-18
-2.1542e-18
-2.15084e-18
-2.15379e-18
-2.15026e-18
-2.15422e-18
-2.14626e-18
-2.22656e-18
-2.22229e-18
-2.2188e-18
-2.21139e-18
-2.20927e-18
-2.20381e-18
-2.20422e-18
-2.19762e-18
-2.20062e-18
-2.19917e-18
-2.20188e-18
-2.19423e-18
-2.20653e-18
-2.1952e-18
-2.20474e-18
-2.1926e-18
-2.19884e-18
-2.1923e-18
-2.19132e-18
-2.18488e-18
-2.19114e-18
-2.18486e-18
-2.18732e-18
-2.1805e-18
-2.18153e-18
-2.17731e-18
-2.17704e-18
-2.17371e-18
-2.17091e-18
-2.16871e-18
-2.16894e-18
-2.1667e-18
-2.16765e-18
-2.16493e-18
-2.1678e-18
-2.16282e-18
-2.16021e-18
-2.15181e-18
-2.15423e-18
-2.15085e-18
-2.15193e-18
-2.14953e-18
-2.1538e-18
-2.1479e-18
-2.22599e-18
-2.22222e-18
-2.21859e-18
-2.21224e-18
-2.20592e-18
-2.2022e-18
-2.20361e-18
-2.19813e-18
-2.20277e-18
-2.19977e-18
-2.20376e-18
-2.19615e-18
-2.20375e-18
-2.19353e-18
-2.20301e-18
-2.19278e-18
-2.1989e-18
-2.19239e-18
-2.19159e-18
-2.18494e-18
-2.19113e-18
-2.18494e-18
-2.18735e-18
-2.18142e-18
-2.18126e-18
-2.17727e-18
-2.17669e-18
-2.17373e-18
-2.17126e-18
-2.16915e-18
-2.16789e-18
-2.16621e-18
-2.16702e-18
-2.16419e-18
-2.16691e-18
-2.163e-18
-2.16129e-18
-2.15315e-18
-2.15277e-18
-2.14953e-18
-2.14994e-18
-2.15028e-18
-2.15323e-18
-2.14686e-18
-2.22516e-18
-2.2224e-18
-2.21622e-18
-2.21542e-18
-2.20863e-18
-2.20213e-18
-2.2026e-18
-2.19921e-18
-2.20271e-18
-2.19817e-18
-2.20417e-18
-2.19523e-18
-2.20404e-18
-2.19562e-18
-2.20194e-18
-2.19144e-18
-2.19854e-18
-2.19006e-18
-2.19252e-18
-2.18534e-18
-2.19013e-18
-2.18547e-18
-2.18683e-18
-2.18135e-18
-2.18129e-18
-2.17722e-18
-2.1772e-18
-2.17364e-18
-2.17057e-18
-2.17041e-18
-2.16789e-18
-2.16536e-18
-2.16716e-18
-2.1643e-18
-2.16598e-18
-2.16381e-18
-2.15978e-18
-2.15314e-18
-2.15419e-18
-2.14879e-18
-2.1519e-18
-2.15038e-18
-2.15217e-18
-2.14864e-18
-2.15519e-18
-2.225e-18
-2.22301e-18
-2.21726e-18
-2.21353e-18
-2.21032e-18
-2.20178e-18
-2.20334e-18
-2.19947e-18
-2.20207e-18
-2.19772e-18
-2.20328e-18
-2.19386e-18
-2.20295e-18
-2.19636e-18
-2.20291e-18
-2.19312e-18
-2.19769e-18
-2.19037e-18
-2.19228e-18
-2.18595e-18
-2.1918e-18
-2.18551e-18
-2.1869e-18
-2.18118e-18
-2.18223e-18
-2.17725e-18
-2.17726e-18
-2.17338e-18
-2.16989e-18
-2.16875e-18
-2.16682e-18
-2.16678e-18
-2.16784e-18
-2.16554e-18
-2.16482e-18
-2.16336e-18
-2.15887e-18
-2.15258e-18
-2.15478e-18
-2.14936e-18
-2.15232e-18
-2.15037e-18
-2.15193e-18
-2.14819e-18
-2.15471e-18
-2.22418e-18
-2.22352e-18
-2.21899e-18
-2.21447e-18
-2.20967e-18
-2.20018e-18
-2.20424e-18
-2.19886e-18
-2.20289e-18
-2.19852e-18
-2.20264e-18
-2.19503e-18
-2.20492e-18
-2.19498e-18
-2.20302e-18
-2.19229e-18
-2.19759e-18
-2.19082e-18
-2.19181e-18
-2.18599e-18
-2.19119e-18
-2.18534e-18
-2.18698e-18
-2.18126e-18
-2.18177e-18
-2.17727e-18
-2.17706e-18
-2.17444e-18
-2.17071e-18
-2.16854e-18
-2.16699e-18
-2.16675e-18
-2.16826e-18
-2.1664e-18
-2.16629e-18
-2.16233e-18
-2.15953e-18
-2.15193e-18
-2.15444e-18
-2.15057e-18
-2.15249e-18
-2.14952e-18
-2.15305e-18
-2.14665e-18
-2.15717e-18
-2.22513e-18
-2.22409e-18
-2.21878e-18
-2.21396e-18
-2.21062e-18
-2.20091e-18
-2.20488e-18
-2.19858e-18
-2.20265e-18
-2.19789e-18
-2.20131e-18
-2.19513e-18
-2.20457e-18
-2.19426e-18
-2.2031e-18
-2.19236e-18
-2.19836e-18
-2.19106e-18
-2.19246e-18
-2.18491e-18
-2.19188e-18
-2.18475e-18
-2.18716e-18
-2.18081e-18
-2.18091e-18
-2.17719e-18
-2.17704e-18
-2.17403e-18
-2.17092e-18
-2.16809e-18
-2.16824e-18
-2.16614e-18
-2.16716e-18
-2.16555e-18
-2.16556e-18
-2.16208e-18
-2.15903e-18
-2.15259e-18
-2.1547e-18
-2.15147e-18
-2.15282e-18
-2.14998e-18
-2.15367e-18
-2.14584e-18
-2.1572e-18
-2.22625e-18
-2.22249e-18
-2.21798e-18
-2.21422e-18
-2.20966e-18
-2.20196e-18
-2.20345e-18
-2.1992e-18
-2.20275e-18
-2.19726e-18
-2.20288e-18
-2.19565e-18
-2.20365e-18
-2.19463e-18
-2.20243e-18
-2.19086e-18
-2.19897e-18
-2.19055e-18
-2.19222e-18
-2.1856e-18
-2.19194e-18
-2.1852e-18
-2.18679e-18
-2.18068e-18
-2.18042e-18
-2.17727e-18
-2.17727e-18
-2.17324e-18
-2.1707e-18
-2.16821e-18
-2.16768e-18
-2.16618e-18
-2.1678e-18
-2.16506e-18
-2.1663e-18
-2.16168e-18
-2.1591e-18
-2.15329e-18
-2.15379e-18
-2.14997e-18
-2.15362e-18
-2.15063e-18
-2.15391e-18
-2.14771e-18
-2.22582e-18
-2.22295e-18
-2.21886e-18
-2.21375e-18
-2.20939e-18
-2.20339e-18
-2.20371e-18
-2.19978e-18
-2.20309e-18
-2.19896e-18
-2.20381e-18
-2.19612e-18
-2.20432e-18
-2.19479e-18
-2.20168e-18
-2.19014e-18
-2.19829e-18
-2.18996e-18
-2.19295e-18
-2.18461e-18
-2.19048e-18
-2.18569e-18
-2.18622e-18
-2.18062e-18
-2.18042e-18
-2.17687e-18
-2.17712e-18
-2.17278e-18
-2.17073e-18
-2.16856e-18
-2.16807e-18
-2.16536e-18
-2.16789e-18
-2.16549e-18
-2.16788e-18
-2.16168e-18
-2.15926e-18
-2.15372e-18
-2.15405e-18
-2.14912e-18
-2.15343e-18
-2.15028e-18
-2.15283e-18
-2.14768e-18
-2.226e-18
-2.22182e-18
-2.21847e-18
-2.21273e-18
-2.20928e-18
-2.20404e-18
-2.20525e-18
-2.19882e-18
-2.20228e-18
-2.19689e-18
-2.20155e-18
-2.19755e-18
-2.20515e-18
-2.19593e-18
-2.20217e-18
-2.19125e-18
-2.19827e-18
-2.19084e-18
-2.19292e-18
-2.18399e-18
-2.19082e-18
-2.1851e-18
-2.18667e-18
-2.18048e-18
-2.18028e-18
-2.17714e-18
-2.17698e-18
-2.17293e-18
-2.17114e-18
-2.16836e-18
-2.16831e-18
-2.16553e-18
-2.16724e-18
-2.16553e-18
-2.16683e-18
-2.16151e-18
-2.15811e-18
-2.15207e-18
-2.15388e-18
-2.15052e-18
-2.15218e-18
-2.15071e-18
-2.15308e-18
-2.14688e-18
-2.22565e-18
-2.22125e-18
-2.21862e-18
-2.21415e-18
-2.21059e-18
-2.20356e-18
-2.20429e-18
-2.19849e-18
-2.20221e-18
-2.19841e-18
-2.20238e-18
-2.19764e-18
-2.20424e-18
-2.19431e-18
-2.20262e-18
-2.19198e-18
-2.198e-18
-2.19138e-18
-2.19293e-18
-2.18465e-18
-2.19074e-18
-2.18524e-18
-2.18668e-18
-2.18011e-18
-2.18022e-18
-2.17683e-18
-2.177e-18
-2.17307e-18
-2.17088e-18
-2.16853e-18
-2.16775e-18
-2.1659e-18
-2.1672e-18
-2.16577e-18
-2.16548e-18
-2.16142e-18
-2.1596e-18
-2.15194e-18
-2.15401e-18
-2.15075e-18
-2.151e-18
-2.15015e-18
-2.15308e-18
-2.14743e-18
-2.22567e-18
-2.22285e-18
-2.21864e-18
-2.21404e-18
-2.21132e-18
-2.20315e-18
-2.20507e-18
-2.19972e-18
-2.20256e-18
-2.19851e-18
-2.20339e-18
-2.19783e-18
-2.2044e-18
-2.19366e-18
-2.20241e-18
-2.19176e-18
-2.19784e-18
-2.19195e-18
-2.19344e-18
-2.18531e-18
-2.19056e-18
-2.18549e-18
-2.18705e-18
-2.18049e-18
-2.17997e-18
-2.17686e-18
-2.17669e-18
-2.17286e-18
-2.17098e-18
-2.16882e-18
-2.16729e-18
-2.16583e-18
-2.1675e-18
-2.16526e-18
-2.1657e-18
-2.1616e-18
-2.15977e-18
-2.15213e-18
-2.15428e-18
-2.15102e-18
-2.15165e-18
-2.14961e-18
-2.15276e-18
-2.14673e-18
-2.22609e-18
-2.22251e-18
-2.21872e-18
-2.21484e-18
-2.2113e-18
-2.20268e-18
-2.2049e-18
-2.19901e-18
-2.20258e-18
-2.19879e-18
-2.20369e-18
-2.19715e-18
-2.20453e-18
-2.19486e-18
-2.20141e-18
-2.19165e-18
-2.19823e-18
-2.19176e-18
-2.19309e-18
-2.18578e-18
-2.19054e-18
-2.18486e-18
-2.18709e-18
-2.18039e-18
-2.18039e-18
-2.17688e-18
-2.17699e-18
-2.17258e-18
-2.17127e-18
-2.16877e-18
-2.16686e-18
-2.16589e-18
-2.16722e-18
-2.16508e-18
-2.16597e-18
-2.16157e-18
-2.15854e-18
-2.15172e-18
-2.15524e-18
-2.15077e-18
-2.15145e-18
-2.14946e-18
-2.15366e-18
-2.14682e-18
-2.22731e-18
-2.22235e-18
-2.22006e-18
-2.21438e-18
-2.21123e-18
-2.20391e-18
-2.20463e-18
-2.19956e-18
-2.20256e-18
-2.19921e-18
-2.20326e-18
-2.19575e-18
-2.20372e-18
-2.19468e-18
-2.20191e-18
-2.19156e-18
-2.19801e-18
-2.19162e-18
-2.19316e-18
-2.18564e-18
-2.19073e-18
-2.1848e-18
-2.18716e-18
-2.18046e-18
-2.1803e-18
-2.1769e-18
-2.17722e-18
-2.17275e-18
-2.1713e-18
-2.16835e-18
-2.16694e-18
-2.16582e-18
-2.16757e-18
-2.16528e-18
-2.16625e-18
-2.16093e-18
-2.15871e-18
-2.15172e-18
-2.15461e-18
-2.15118e-18
-2.15199e-18
-2.14925e-18
-2.15336e-18
-2.14722e-18
-2.22709e-18
-2.22304e-18
-2.21898e-18
-2.21386e-18
-2.21123e-18
-2.20408e-18
-2.20531e-18
-2.19913e-18
-2.20346e-18
-2.19874e-18
-2.20328e-18
-2.196e-18
-2.20315e-18
-2.19383e-18
-2.20201e-18
-2.19127e-18
-2.19807e-18
-2.19212e-18
-2.19324e-18
-2.1856e-18
-2.19076e-18
-2.18479e-18
-2.18706e-18
-2.18057e-18
-2.18058e-18
-2.17696e-18
-2.17716e-18
-2.17273e-18
-2.17103e-18
-2.16801e-18
-2.16742e-18
-2.16604e-18
-2.16704e-18
-2.16516e-18
-2.16588e-18
-2.16073e-18
-2.15958e-18
-2.15327e-18
-2.15465e-18
-2.15121e-18
-2.15217e-18
-2.14886e-18
-2.15292e-18
-2.14768e-18
-2.22589e-18
-2.22274e-18
-2.21801e-18
-2.21414e-18
-2.21073e-18
-2.20399e-18
-2.20541e-18
-2.19897e-18
-2.20285e-18
-2.19851e-18
-2.20343e-18
-2.19599e-18
-2.20316e-18
-2.1944e-18
-2.20128e-18
-2.19101e-18
-2.19848e-18
-2.19135e-18
-2.19333e-18
-2.18492e-18
-2.19047e-18
-2.18442e-18
-2.18698e-18
-2.18038e-18
-2.18034e-18
-2.17719e-18
-2.17733e-18
-2.17293e-18
-2.17062e-18
-2.16801e-18
-2.16766e-18
-2.16614e-18
-2.16759e-18
-2.16483e-18
-2.16543e-18
-2.16121e-18
-2.15932e-18
-2.15377e-18
-2.15483e-18
-2.15108e-18
-2.15224e-18
-2.14928e-18
-2.15348e-18
-2.14811e-18
-2.15529e-18
-2.22596e-18
-2.22221e-18
-2.21842e-18
-2.2146e-18
-2.21136e-18
-2.20331e-18
-2.20575e-18
-2.1988e-18
-2.20279e-18
-2.19815e-18
-2.20259e-18
-2.19545e-18
-2.20424e-18
-2.19506e-18
-2.20188e-18
-2.19146e-18
-2.19842e-18
-2.19063e-18
-2.1935e-18
-2.18459e-18
-2.19019e-18
-2.18432e-18
-2.18711e-18
-2.18035e-18
-2.18049e-18
-2.1772e-18
-2.17702e-18
-2.17269e-18
-2.17092e-18
-2.16804e-18
-2.16789e-18
-2.16619e-18
-2.16776e-18
-2.16474e-18
-2.16528e-18
-2.16036e-18
-2.15881e-18
-2.15285e-18
-2.15514e-18
-2.15171e-18
-2.15244e-18
-2.14926e-18
-2.15383e-18
-2.14676e-18
-2.15519e-18
-2.22644e-18
-2.22245e-18
-2.21824e-18
-2.21438e-18
-2.21137e-18
-2.20318e-18
-2.2056e-18
-2.19926e-18
-2.20244e-18
-2.1984e-18
-2.2031e-18
-2.1957e-18
-2.20424e-18
-2.19474e-18
-2.20221e-18
-2.19119e-18
-2.19799e-18
-2.1906e-18
-2.1933e-18
-2.18512e-18
-2.19011e-18
-2.18461e-18
-2.18708e-18
-2.18043e-18
-2.18077e-18
-2.17709e-18
-2.17699e-18
-2.1727e-18
-2.17075e-18
-2.16796e-18
-2.16759e-18
-2.16637e-18
-2.1674e-18
-2.16525e-18
-2.16567e-18
-2.16036e-18
-2.15839e-18
-2.15297e-18
-2.1552e-18
-2.15142e-18
-2.15217e-18
-2.14933e-18
-2.15358e-18
-2.14685e-18
-2.15524e-18
-2.2271e-18
-2.2223e-18
-2.21812e-18
-2.2143e-18
-2.21085e-18
-2.2037e-18
-2.20575e-18
-2.19882e-18
-2.20321e-18
-2.1985e-18
-2.2039e-18
-2.19549e-18
-2.2039e-18
-2.19443e-18
-2.20262e-18
-2.19152e-18
-2.19818e-18
-2.19096e-18
-2.19342e-18
-2.18544e-18
-2.19026e-18
-2.18449e-18
-2.18707e-18
-2.18042e-18
-2.18078e-18
-2.17714e-18
-2.177e-18
-2.17255e-18
-2.17107e-18
-2.16812e-18
-2.16732e-18
-2.16645e-18
-2.16726e-18
-2.16502e-18
-2.16513e-18
-2.16073e-18
-2.15845e-18
-2.15321e-18
-2.15527e-18
-2.1511e-18
-2.15202e-18
-2.14867e-18
-2.15379e-18
-2.14681e-18
-2.15505e-18
-2.14377e-18
-2.22668e-18
-2.22245e-18
-2.21884e-18
-2.2147e-18
-2.21152e-18
-2.20428e-18
-2.2052e-18
-2.19926e-18
-2.20333e-18
-2.19849e-18
-2.20369e-18
-2.19617e-18
-2.20426e-18
-2.1942e-18
-2.20194e-18
-2.19161e-18
-2.19805e-18
-2.19081e-18
-2.19384e-18
-2.18545e-18
-2.19037e-18
-2.1844e-18
-2.18712e-18
-2.18022e-18
-2.18051e-18
-2.177e-18
-2.17703e-18
-2.17265e-18
-2.17132e-18
-2.16799e-18
-2.16734e-18
-2.16635e-18
-2.16747e-18
-2.16508e-18
-2.16466e-18
-2.16103e-18
-2.15855e-18
-2.15279e-18
-2.15415e-18
-2.15098e-18
-2.15187e-18
-2.14904e-18
-2.15326e-18
-2.14754e-18
-2.15453e-18
-2.14369e-18
-2.22655e-18
-2.22306e-18
-2.21898e-18
-2.21476e-18
-2.21121e-18
-2.20445e-18
-2.20515e-18
-2.19964e-18
-2.20281e-18
-2.19851e-18
-2.20369e-18
-2.19605e-18
-2.20421e-18
-2.19466e-18
-2.20156e-18
-2.1912e-18
-2.19805e-18
-2.19077e-18
-2.19373e-18
-2.18557e-18
-2.19021e-18
-2.18471e-18
-2.18718e-18
-2.18038e-18
-2.18046e-18
-2.17686e-18
-2.17682e-18
-2.1725e-18
-2.17098e-18
-2.16781e-18
-2.16753e-18
-2.16611e-18
-2.16742e-18
-2.16502e-18
-2.16525e-18
-2.16051e-18
-2.15871e-18
-2.1529e-18
-2.15407e-18
-2.15111e-18
-2.15156e-18
-2.14954e-18
-2.15282e-18
-2.1477e-18
-2.15446e-18
-2.14387e-18
-2.14645e-18
-2.22657e-18
-2.22276e-18
-2.21895e-18
-2.21459e-18
-2.21114e-18
-2.20389e-18
-2.20542e-18
-2.19945e-18
-2.2028e-18
-2.19877e-18
-2.20355e-18
-2.19579e-18
-2.2042e-18
-2.19464e-18
-2.20203e-18
-2.19142e-18
-2.19828e-18
-2.19076e-18
-2.1937e-18
-2.18534e-18
-2.19011e-18
-2.18464e-18
-2.18698e-18
-2.18043e-18
-2.18053e-18
-2.17696e-18
-2.17685e-18
-2.17257e-18
-2.17084e-18
-2.16781e-18
-2.16757e-18
-2.16612e-18
-2.16751e-18
-2.16476e-18
-2.165e-18
-2.16001e-18
-2.15871e-18
-2.15308e-18
-2.15461e-18
-2.15118e-18
-2.15172e-18
-2.14968e-18
-2.1528e-18
-2.14748e-18
-2.15503e-18
-2.144e-18
-2.14649e-18
-2.22694e-18
-2.22286e-18
-2.21866e-18
-2.21486e-18
-2.21114e-18
-2.20411e-18
-2.20543e-18
-2.1992e-18
-2.20322e-18
-2.19926e-18
-2.20359e-18
-2.19597e-18
-2.20411e-18
-2.19478e-18
-2.20186e-18
-2.19195e-18
-2.19811e-18
-2.19095e-18
-2.19379e-18
-2.18511e-18
-2.19031e-18
-2.1844e-18
-2.18701e-18
-2.1804e-18
-2.18065e-18
-2.17705e-18
-2.17692e-18
-2.1726e-18
-2.17094e-18
-2.1679e-18
-2.16748e-18
-2.16613e-18
-2.16729e-18
-2.16488e-18
-2.16454e-18
-2.16029e-18
-2.15845e-18
-2.15301e-18
-2.1545e-18
-2.15106e-18
-2.15174e-18
-2.14925e-18
-2.15304e-18
-2.14762e-18
-2.15483e-18
-2.14414e-18
-2.14605e-18
-2.22674e-18
-2.22254e-18
-2.21845e-18
-2.21442e-18
-2.21152e-18
-2.20475e-18
-2.20561e-18
-2.19939e-18
-2.20321e-18
-2.19874e-18
-2.20356e-18
-2.1962e-18
-2.20436e-18
-2.19455e-18
-2.2016e-18
-2.19169e-18
-2.19814e-18
-2.19082e-18
-2.19374e-18
-2.18529e-18
-2.19024e-18
-2.18442e-18
-2.18714e-18
-2.18041e-18
-2.18071e-18
-2.17697e-18
-2.17697e-18
-2.1725e-18
-2.17089e-18
-2.16791e-18
-2.16743e-18
-2.1663e-18
-2.16711e-18
-2.16469e-18
-2.16499e-18
-2.16046e-18
-2.15851e-18
-2.15308e-18
-2.15433e-18
-2.15124e-18
-2.15199e-18
-2.14912e-18
-2.15288e-18
-2.14773e-18
-2.15422e-18
-2.14398e-18
-2.14645e-18
-2.22691e-18
-2.22238e-18
-2.21863e-18
-2.21463e-18
-2.21165e-18
-2.20474e-18
-2.20565e-18
-2.19993e-18
-2.20306e-18
-2.19882e-18
-2.20356e-18
-2.19622e-18
-2.20447e-18
-2.19451e-18
-2.20163e-18
-2.19146e-18
-2.19801e-18
-2.19068e-18
-2.19371e-18
-2.1855e-18
-2.19024e-18
-2.18436e-18
-2.1871e-18
-2.18048e-18
-2.18068e-18
-2.17697e-18
-2.1769e-18
-2.17252e-18
-2.17107e-18
-2.16779e-18
-2.1674e-18
-2.16632e-18
-2.16735e-18
-2.16465e-18
-2.16513e-18
-2.16033e-18
-2.15867e-18
-2.15317e-18
-2.15412e-18
-2.1513e-18
-2.15183e-18
-2.14921e-18
-2.15257e-18
-2.14747e-18
-2.15421e-18
-2.14386e-18
-2.14623e-18
-2.2271e-18
-2.22279e-18
-2.21875e-18
-2.21486e-18
-2.21146e-18
-2.20456e-18
-2.20582e-18
-2.19963e-18
-2.20281e-18
-2.19878e-18
-2.20361e-18
-2.19604e-18
-2.20439e-18
-2.19467e-18
-2.20156e-18
-2.19198e-18
-2.19795e-18
-2.19055e-18
-2.19365e-18
-2.18556e-18
-2.19005e-18
-2.18444e-18
-2.18707e-18
-2.18051e-18
-2.1806e-18
-2.17697e-18
-2.17686e-18
-2.17256e-18
-2.17112e-18
-2.16786e-18
-2.16737e-18
-2.16634e-18
-2.16749e-18
-2.16468e-18
-2.16447e-18
-2.1603e-18
-2.15856e-18
-2.15304e-18
-2.15444e-18
-2.15135e-18
-2.15167e-18
-2.14951e-18
-2.15286e-18
-2.14719e-18
-2.15427e-18
-2.14391e-18
-2.14601e-18
-2.13577e-18
-2.22705e-18
-2.2227e-18
-2.21857e-18
-2.2146e-18
-2.21156e-18
-2.20455e-18
-2.20581e-18
-2.1997e-18
-2.20266e-18
-2.19848e-18
-2.20364e-18
-2.19594e-18
-2.20409e-18
-2.19472e-18
-2.20161e-18
-2.19184e-18
-2.19814e-18
-2.19062e-18
-2.19365e-18
-2.18531e-18
-2.19e-18
-2.18444e-18
-2.18712e-18
-2.18047e-18
-2.18061e-18
-2.17697e-18
-2.17685e-18
-2.17251e-18
-2.17103e-18
-2.16799e-18
-2.16764e-18
-2.16633e-18
-2.16746e-18
-2.16449e-18
-2.1644e-18
-2.16012e-18
-2.15847e-18
-2.15322e-18
-2.15446e-18
-2.15119e-18
-2.15189e-18
-2.1498e-18
-2.15278e-18
-2.14721e-18
-2.15437e-18
-2.14351e-18
-2.14626e-18
-2.13599e-18
-2.2268e-18
-2.2227e-18
-2.21875e-18
-2.21443e-18
-2.21136e-18
-2.20437e-18
-2.20572e-18
-2.19969e-18
-2.20299e-18
-2.19871e-18
-2.20347e-18
-2.1959e-18
-2.20403e-18
-2.19472e-18
-2.20177e-18
-2.19178e-18
-2.1981e-18
-2.19059e-18
-2.1937e-18
-2.18535e-18
-2.19012e-18
-2.18448e-18
-2.18716e-18
-2.18037e-18
-2.18067e-18
-2.17697e-18
-2.17687e-18
-2.17245e-18
-2.17095e-18
-2.16791e-18
-2.1676e-18
-2.16629e-18
-2.16749e-18
-2.16467e-18
-2.16458e-18
-2.16014e-18
-2.15839e-18
-2.15315e-18
-2.15443e-18
-2.15129e-18
-2.15166e-18
-2.14947e-18
-2.15282e-18
-2.14732e-18
-2.1546e-18
-2.14381e-18
-2.14634e-18
-2.13566e-18
-2.22723e-18
-2.22287e-18
-2.21853e-18
-2.21442e-18
-2.21147e-18
-2.20436e-18
-2.20565e-18
-2.19955e-18
-2.20314e-18
-2.19873e-18
-2.20364e-18
-2.19597e-18
-2.20414e-18
-2.19472e-18
-2.20164e-18
-2.19178e-18
-2.198e-18
-2.19056e-18
-2.19381e-18
-2.18544e-18
-2.19016e-18
-2.18444e-18
-2.18714e-18
-2.18043e-18
-2.18069e-18
-2.17697e-18
-2.17686e-18
-2.17253e-18
-2.171e-18
-2.16787e-18
-2.16751e-18
-2.16619e-18
-2.16748e-18
-2.16475e-18
-2.16457e-18
-2.16024e-18
-2.15845e-18
-2.15318e-18
-2.15429e-18
-2.15127e-18
-2.15181e-18
-2.14932e-18
-2.15292e-18
-2.14744e-18
-2.15458e-18
-2.14395e-18
-2.14624e-18
-2.13586e-18
-2.2273e-18
-2.2229e-18
-2.21853e-18
-2.21456e-18
-2.2117e-18
-2.20451e-18
-2.2057e-18
-2.19951e-18
-2.20314e-18
-2.19868e-18
-2.20352e-18
-2.19591e-18
-2.20425e-18
-2.19479e-18
-2.20162e-18
-2.19171e-18
-2.19812e-18
-2.19055e-18
-2.19383e-18
-2.18546e-18
-2.19007e-18
-2.18435e-18
-2.18705e-18
-2.18042e-18
-2.1807e-18
-2.17696e-18
-2.17685e-18
-2.17258e-18
-2.17108e-18
-2.16795e-18
-2.16749e-18
-2.16617e-18
-2.16741e-18
-2.16467e-18
-2.16466e-18
-2.16021e-18
-2.15847e-18
-2.15307e-18
-2.15429e-18
-2.15137e-18
-2.15185e-18
-2.14917e-18
-2.15292e-18
-2.14746e-18
-2.15446e-18
-2.14373e-18
-2.14621e-18
-2.13581e-18
-2.22718e-18
-2.22293e-18
-2.2187e-18
-2.21459e-18
-2.21148e-18
-2.20463e-18
-2.2058e-18
-2.19964e-18
-2.20306e-18
-2.19874e-18
-2.2036e-18
-2.19585e-18
-2.20418e-18
-2.19477e-18
-2.20171e-18
-2.1918e-18
-2.19804e-18
-2.19065e-18
-2.19381e-18
-2.18545e-18
-2.19002e-18
-2.18433e-18
-2.18706e-18
-2.18036e-18
-2.18069e-18
-2.17696e-18
-2.17683e-18
-2.17256e-18
-2.17111e-18
-2.16801e-18
-2.1675e-18
-2.16618e-18
-2.16735e-18
-2.16465e-18
-2.16461e-18
-2.16012e-18
-2.15844e-18
-2.15318e-18
-2.1544e-18
-2.15126e-18
-2.15178e-18
-2.14931e-18
-2.15285e-18
-2.14733e-18
-2.15436e-18
-2.14394e-18
-2.14625e-18
-2.13564e-18
-2.22705e-18
-2.2228e-18
-2.21878e-18
-2.21465e-18
-2.2114e-18
-2.20449e-18
-2.2058e-18
-2.19964e-18
-2.20307e-18
-2.19878e-18
-2.20359e-18
-2.19585e-18
-2.2041e-18
-2.19474e-18
-2.20172e-18
-2.19175e-18
-2.19796e-18
-2.19067e-18
-2.1938e-18
-2.18544e-18
-2.19001e-18
-2.18435e-18
-2.18711e-18
-2.18036e-18
-2.18069e-18
-2.17696e-18
-2.17683e-18
-2.17254e-18
-2.17107e-18
-2.16802e-18
-2.16751e-18
-2.1662e-18
-2.16736e-18
-2.16468e-18
-2.16467e-18
-2.16014e-18
-2.15841e-18
-2.15323e-18
-2.1544e-18
-2.15126e-18
-2.15174e-18
-2.14936e-18
-2.15281e-18
-2.14731e-18
-2.15451e-18
-2.14397e-18
-2.14619e-18
-2.13562e-18
-2.22711e-18
-2.2228e-18
-2.21869e-18
-2.21468e-18
-2.21143e-18
-2.2045e-18
-2.20576e-18
-2.19963e-18
-2.20309e-18
-2.19878e-18
-2.20358e-18
-2.19588e-18
-2.20411e-18
-2.19472e-18
-2.20172e-18
-2.19176e-18
-2.1979e-18
-2.1906e-18
-2.19378e-18
-2.18542e-18
-2.19001e-18
-2.18435e-18
-2.18712e-18
-2.18037e-18
-2.18069e-18
-2.17696e-18
-2.17685e-18
-2.17255e-18
-2.17107e-18
-2.168e-18
-2.1675e-18
-2.16622e-18
-2.16741e-18
-2.16473e-18
-2.16465e-18
-2.16013e-18
-2.15843e-18
-2.15318e-18
-2.15435e-18
-2.15125e-18
-2.15173e-18
-2.14935e-18
-2.15282e-18
-2.14737e-18
-2.15451e-18
-2.14395e-18
-2.14615e-18
-2.13575e-18
-2.23689e-18
-2.23185e-18
-2.2333e-18
-2.2388e-18
-2.23569e-18
-2.23555e-18
-2.23618e-18
-2.23758e-18
-2.23851e-18
-2.23745e-18
-2.23945e-18
-2.23359e-18
-2.23281e-18
-2.23471e-18
-2.2345e-18
-2.2353e-18
-2.23551e-18
-2.23516e-18
-2.23457e-18
-2.23497e-18
-2.23572e-18
-2.23588e-18