/*--------------------------------*- C++ -*----------------------------------*\
  =========                 |
  \\      /  F ield         | OpenFOAM: The Open Source CFD Toolbox
   \\    /   O peration     | Website:  https://openfoam.org
    \\  /    A nd           | Version:  7
     \\/     M anipulation  |
\*---------------------------------------------------------------------------*/
FoamFile
{
    version     2.0;
    format      ascii;
    class       volScalarField;
    location    "116000";
    object      nut;
}
// * * * * * * * * * * * * * * * * * * * * * * * * * * * * * * * * * * * * * //

dimensions      [0 2 -1 0 0 0 0];

internalField   nonuniform List<scalar> 
4838
(
2.98369e-05
2.98603e-05
2.98817e-05
2.9901e-05
2.99183e-05
2.99335e-05
2.9947e-05
2.99588e-05
2.99691e-05
2.99779e-05
2.99856e-05
2.99921e-05
2.99976e-05
3.00023e-05
3.00061e-05
3.00093e-05
3.00119e-05
3.0014e-05
3.00156e-05
3.00169e-05
3.00179e-05
3.00187e-05
3.00192e-05
3.00195e-05
3.00197e-05
3.00197e-05
3.00195e-05
3.00192e-05
3.00187e-05
3.00179e-05
3.00169e-05
3.00156e-05
3.0014e-05
3.00119e-05
3.00093e-05
3.00061e-05
3.00023e-05
2.99976e-05
2.99921e-05
2.99856e-05
2.99779e-05
2.9969e-05
2.99588e-05
2.9947e-05
2.99335e-05
2.99183e-05
2.9901e-05
2.98817e-05
2.98603e-05
2.98369e-05
2.97969e-05
2.98211e-05
2.98441e-05
2.98655e-05
2.9885e-05
2.99027e-05
2.99185e-05
2.99326e-05
2.9945e-05
2.99559e-05
2.99655e-05
2.99738e-05
2.99809e-05
2.99871e-05
2.99923e-05
2.99967e-05
3.00004e-05
3.00034e-05
3.00059e-05
3.0008e-05
3.00095e-05
3.00108e-05
3.00116e-05
3.00122e-05
3.00125e-05
3.00125e-05
3.00122e-05
3.00116e-05
3.00108e-05
3.00095e-05
3.0008e-05
3.00059e-05
3.00034e-05
3.00004e-05
2.99967e-05
2.99923e-05
2.9987e-05
2.99809e-05
2.99738e-05
2.99655e-05
2.99559e-05
2.9945e-05
2.99325e-05
2.99185e-05
2.99027e-05
2.9885e-05
2.98655e-05
2.98441e-05
2.98211e-05
2.97969e-05
2.97469e-05
2.97745e-05
2.97999e-05
2.98236e-05
2.98454e-05
2.98655e-05
2.98837e-05
2.99001e-05
2.99148e-05
2.99279e-05
2.99394e-05
2.99497e-05
2.99586e-05
2.99664e-05
2.99731e-05
2.99789e-05
2.99838e-05
2.99879e-05
2.99914e-05
2.99942e-05
2.99965e-05
2.99982e-05
2.99995e-05
3.00003e-05
3.00007e-05
3.00007e-05
3.00003e-05
2.99995e-05
2.99982e-05
2.99965e-05
2.99942e-05
2.99914e-05
2.99879e-05
2.99838e-05
2.99789e-05
2.99731e-05
2.99664e-05
2.99586e-05
2.99496e-05
2.99394e-05
2.99278e-05
2.99148e-05
2.99001e-05
2.98837e-05
2.98655e-05
2.98454e-05
2.98236e-05
2.97999e-05
2.97745e-05
2.97468e-05
2.96902e-05
2.97214e-05
2.97498e-05
2.97761e-05
2.98004e-05
2.98228e-05
2.98434e-05
2.98621e-05
2.98791e-05
2.98943e-05
2.9908e-05
2.99201e-05
2.99309e-05
2.99403e-05
2.99486e-05
2.99558e-05
2.9962e-05
2.99673e-05
2.99717e-05
2.99754e-05
2.99783e-05
2.99806e-05
2.99823e-05
2.99835e-05
2.9984e-05
2.9984e-05
2.99835e-05
2.99823e-05
2.99806e-05
2.99783e-05
2.99754e-05
2.99717e-05
2.99673e-05
2.9962e-05
2.99558e-05
2.99486e-05
2.99403e-05
2.99309e-05
2.99201e-05
2.9908e-05
2.98943e-05
2.9879e-05
2.98621e-05
2.98434e-05
2.98228e-05
2.98004e-05
2.97761e-05
2.97498e-05
2.97213e-05
2.96902e-05
2.96274e-05
2.96618e-05
2.96934e-05
2.97226e-05
2.97496e-05
2.97746e-05
2.97975e-05
2.98186e-05
2.98378e-05
2.98552e-05
2.98709e-05
2.9885e-05
2.98976e-05
2.99088e-05
2.99187e-05
2.99273e-05
2.99348e-05
2.99412e-05
2.99467e-05
2.99512e-05
2.99549e-05
2.99578e-05
2.996e-05
2.99614e-05
2.99621e-05
2.99621e-05
2.99614e-05
2.996e-05
2.99578e-05
2.99549e-05
2.99512e-05
2.99467e-05
2.99412e-05
2.99348e-05
2.99273e-05
2.99187e-05
2.99088e-05
2.98976e-05
2.9885e-05
2.98709e-05
2.98552e-05
2.98378e-05
2.98186e-05
2.97975e-05
2.97745e-05
2.97496e-05
2.97226e-05
2.96934e-05
2.96618e-05
2.96273e-05
2.95585e-05
2.95962e-05
2.96309e-05
2.9663e-05
2.96928e-05
2.97204e-05
2.97459e-05
2.97693e-05
2.97908e-05
2.98104e-05
2.98282e-05
2.98443e-05
2.98587e-05
2.98716e-05
2.98831e-05
2.98932e-05
2.9902e-05
2.99096e-05
2.99161e-05
2.99216e-05
2.9926e-05
2.99295e-05
2.99321e-05
2.99338e-05
2.99346e-05
2.99346e-05
2.99338e-05
2.99321e-05
2.99295e-05
2.9926e-05
2.99216e-05
2.99161e-05
2.99096e-05
2.9902e-05
2.98932e-05
2.98831e-05
2.98716e-05
2.98587e-05
2.98443e-05
2.98282e-05
2.98104e-05
2.97908e-05
2.97693e-05
2.97458e-05
2.97204e-05
2.96928e-05
2.9663e-05
2.96309e-05
2.95961e-05
2.95585e-05
2.94837e-05
2.95245e-05
2.95622e-05
2.95974e-05
2.963e-05
2.96603e-05
2.96883e-05
2.97141e-05
2.97379e-05
2.97597e-05
2.97796e-05
2.97977e-05
2.9814e-05
2.98286e-05
2.98417e-05
2.98533e-05
2.98634e-05
2.98723e-05
2.98798e-05
2.98862e-05
2.98914e-05
2.98955e-05
2.98985e-05
2.99005e-05
2.99015e-05
2.99015e-05
2.99005e-05
2.98985e-05
2.98955e-05
2.98914e-05
2.98862e-05
2.98798e-05
2.98723e-05
2.98634e-05
2.98533e-05
2.98417e-05
2.98286e-05
2.9814e-05
2.97977e-05
2.97796e-05
2.97597e-05
2.97379e-05
2.97141e-05
2.96883e-05
2.96603e-05
2.963e-05
2.95974e-05
2.95622e-05
2.95245e-05
2.94837e-05
2.9403e-05
2.94469e-05
2.94876e-05
2.95257e-05
2.95611e-05
2.95941e-05
2.96247e-05
2.9653e-05
2.96791e-05
2.97032e-05
2.97252e-05
2.97452e-05
2.97634e-05
2.97798e-05
2.97945e-05
2.98075e-05
2.9819e-05
2.98291e-05
2.98377e-05
2.98449e-05
2.98509e-05
2.98556e-05
2.98591e-05
2.98614e-05
2.98626e-05
2.98626e-05
2.98614e-05
2.98591e-05
2.98556e-05
2.98509e-05
2.98449e-05
2.98377e-05
2.98291e-05
2.9819e-05
2.98075e-05
2.97945e-05
2.97798e-05
2.97634e-05
2.97452e-05
2.97251e-05
2.97031e-05
2.96791e-05
2.9653e-05
2.96247e-05
2.95941e-05
2.95611e-05
2.95257e-05
2.94876e-05
2.94468e-05
2.9403e-05
2.93166e-05
2.93634e-05
2.94071e-05
2.94481e-05
2.94863e-05
2.9522e-05
2.95551e-05
2.95859e-05
2.96144e-05
2.96406e-05
2.96647e-05
2.96868e-05
2.97068e-05
2.9725e-05
2.97413e-05
2.97558e-05
2.97687e-05
2.97799e-05
2.97896e-05
2.97977e-05
2.98045e-05
2.98098e-05
2.98138e-05
2.98164e-05
2.98177e-05
2.98177e-05
2.98164e-05
2.98138e-05
2.98098e-05
2.98045e-05
2.97977e-05
2.97896e-05
2.97799e-05
2.97687e-05
2.97558e-05
2.97413e-05
2.9725e-05
2.97068e-05
2.96868e-05
2.96647e-05
2.96406e-05
2.96144e-05
2.95859e-05
2.95551e-05
2.95219e-05
2.94863e-05
2.9448e-05
2.94071e-05
2.93634e-05
2.93166e-05
2.92245e-05
2.92742e-05
2.93208e-05
2.93646e-05
2.94056e-05
2.94439e-05
2.94796e-05
2.95128e-05
2.95437e-05
2.95721e-05
2.95983e-05
2.96224e-05
2.96443e-05
2.96642e-05
2.96821e-05
2.96981e-05
2.97123e-05
2.97247e-05
2.97355e-05
2.97446e-05
2.97521e-05
2.9758e-05
2.97624e-05
2.97654e-05
2.97668e-05
2.97668e-05
2.97654e-05
2.97624e-05
2.9758e-05
2.97521e-05
2.97446e-05
2.97355e-05
2.97247e-05
2.97123e-05
2.96981e-05
2.96821e-05
2.96642e-05
2.96443e-05
2.96224e-05
2.95983e-05
2.95721e-05
2.95436e-05
2.95128e-05
2.94796e-05
2.94439e-05
2.94055e-05
2.93645e-05
2.93208e-05
2.92742e-05
2.92245e-05
2.91268e-05
2.91794e-05
2.92288e-05
2.92753e-05
2.9319e-05
2.936e-05
2.93982e-05
2.94339e-05
2.9467e-05
2.94977e-05
2.9526e-05
2.9552e-05
2.95758e-05
2.95974e-05
2.96169e-05
2.96344e-05
2.96499e-05
2.96636e-05
2.96753e-05
2.96853e-05
2.96936e-05
2.97002e-05
2.9705e-05
2.97083e-05
2.97099e-05
2.97099e-05
2.97083e-05
2.9705e-05
2.97002e-05
2.96936e-05
2.96853e-05
2.96753e-05
2.96636e-05
2.96499e-05
2.96344e-05
2.96169e-05
2.95974e-05
2.95758e-05
2.9552e-05
2.9526e-05
2.94977e-05
2.9467e-05
2.94339e-05
2.93982e-05
2.93599e-05
2.9319e-05
2.92753e-05
2.92288e-05
2.91794e-05
2.91268e-05
2.90236e-05
2.9079e-05
2.91312e-05
2.91804e-05
2.92267e-05
2.92702e-05
2.9311e-05
2.93491e-05
2.93845e-05
2.94173e-05
2.94477e-05
2.94757e-05
2.95013e-05
2.95246e-05
2.95457e-05
2.95647e-05
2.95815e-05
2.95964e-05
2.96092e-05
2.96201e-05
2.96291e-05
2.96363e-05
2.96416e-05
2.96452e-05
2.96469e-05
2.96469e-05
2.96452e-05
2.96416e-05
2.96363e-05
2.96291e-05
2.96201e-05
2.96092e-05
2.95964e-05
2.95815e-05
2.95647e-05
2.95457e-05
2.95246e-05
2.95013e-05
2.94757e-05
2.94477e-05
2.94173e-05
2.93845e-05
2.9349e-05
2.9311e-05
2.92702e-05
2.92267e-05
2.91804e-05
2.91312e-05
2.9079e-05
2.90236e-05
2.89151e-05
2.89732e-05
2.90281e-05
2.90799e-05
2.91289e-05
2.91749e-05
2.92181e-05
2.92585e-05
2.92961e-05
2.93312e-05
2.93636e-05
2.93935e-05
2.94209e-05
2.94459e-05
2.94686e-05
2.9489e-05
2.95072e-05
2.95232e-05
2.9537e-05
2.95488e-05
2.95586e-05
2.95664e-05
2.95722e-05
2.9576e-05
2.95779e-05
2.95779e-05
2.9576e-05
2.95722e-05
2.95664e-05
2.95586e-05
2.95488e-05
2.9537e-05
2.95232e-05
2.95072e-05
2.9489e-05
2.94686e-05
2.94459e-05
2.94209e-05
2.93935e-05
2.93636e-05
2.93312e-05
2.92961e-05
2.92585e-05
2.9218e-05
2.91749e-05
2.91288e-05
2.90799e-05
2.90281e-05
2.89732e-05
2.89151e-05
2.88014e-05
2.88621e-05
2.89196e-05
2.8974e-05
2.90255e-05
2.90739e-05
2.91195e-05
2.91622e-05
2.92021e-05
2.92392e-05
2.92737e-05
2.93055e-05
2.93347e-05
2.93614e-05
2.93856e-05
2.94074e-05
2.94269e-05
2.9444e-05
2.94589e-05
2.94716e-05
2.94821e-05
2.94905e-05
2.94967e-05
2.95009e-05
2.95029e-05
2.95029e-05
2.95009e-05
2.94967e-05
2.94905e-05
2.94821e-05
2.94716e-05
2.94589e-05
2.9444e-05
2.94269e-05
2.94074e-05
2.93856e-05
2.93614e-05
2.93347e-05
2.93055e-05
2.92737e-05
2.92392e-05
2.92021e-05
2.91622e-05
2.91195e-05
2.90739e-05
2.90254e-05
2.8974e-05
2.89196e-05
2.88621e-05
2.88014e-05
2.86826e-05
2.87459e-05
2.88058e-05
2.88628e-05
2.89167e-05
2.89675e-05
2.90154e-05
2.90604e-05
2.91025e-05
2.91417e-05
2.91781e-05
2.92117e-05
2.92427e-05
2.92711e-05
2.92968e-05
2.932e-05
2.93407e-05
2.9359e-05
2.93749e-05
2.93885e-05
2.93997e-05
2.94086e-05
2.94153e-05
2.94197e-05
2.9422e-05
2.9422e-05
2.94197e-05
2.94153e-05
2.94086e-05
2.93997e-05
2.93885e-05
2.93749e-05
2.9359e-05
2.93407e-05
2.932e-05
2.92968e-05
2.9271e-05
2.92427e-05
2.92117e-05
2.91781e-05
2.91417e-05
2.91024e-05
2.90604e-05
2.90154e-05
2.89675e-05
2.89167e-05
2.88628e-05
2.88058e-05
2.87458e-05
2.86825e-05
2.85587e-05
2.86245e-05
2.8687e-05
2.87463e-05
2.88026e-05
2.88558e-05
2.8906e-05
2.89531e-05
2.89973e-05
2.90385e-05
2.90769e-05
2.91124e-05
2.91451e-05
2.9175e-05
2.92022e-05
2.92268e-05
2.92488e-05
2.92682e-05
2.92851e-05
2.92995e-05
2.93114e-05
2.93209e-05
2.9328e-05
2.93328e-05
2.93351e-05
2.93351e-05
2.93328e-05
2.9328e-05
2.93209e-05
2.93114e-05
2.92995e-05
2.92851e-05
2.92682e-05
2.92488e-05
2.92268e-05
2.92022e-05
2.9175e-05
2.9145e-05
2.91124e-05
2.90769e-05
2.90385e-05
2.89973e-05
2.89531e-05
2.8906e-05
2.88558e-05
2.88026e-05
2.87463e-05
2.86869e-05
2.86245e-05
2.85587e-05
2.843e-05
2.84982e-05
2.85631e-05
2.86248e-05
2.86834e-05
2.87389e-05
2.87912e-05
2.88405e-05
2.88867e-05
2.89299e-05
2.89702e-05
2.90074e-05
2.90418e-05
2.90733e-05
2.9102e-05
2.9128e-05
2.91511e-05
2.91716e-05
2.91895e-05
2.92047e-05
2.92173e-05
2.92274e-05
2.92349e-05
2.924e-05
2.92425e-05
2.92425e-05
2.924e-05
2.92349e-05
2.92274e-05
2.92173e-05
2.92047e-05
2.91895e-05
2.91716e-05
2.91511e-05
2.91279e-05
2.9102e-05
2.90733e-05
2.90418e-05
2.90074e-05
2.89702e-05
2.89299e-05
2.88867e-05
2.88405e-05
2.87912e-05
2.87388e-05
2.86834e-05
2.86248e-05
2.8563e-05
2.84982e-05
2.84299e-05
2.82965e-05
2.83671e-05
2.84342e-05
2.84983e-05
2.85591e-05
2.86168e-05
2.86713e-05
2.87227e-05
2.87709e-05
2.8816e-05
2.88581e-05
2.88971e-05
2.89331e-05
2.89662e-05
2.89963e-05
2.90235e-05
2.90479e-05
2.90695e-05
2.90882e-05
2.91043e-05
2.91176e-05
2.91282e-05
2.91362e-05
2.91415e-05
2.91441e-05
2.91441e-05
2.91415e-05
2.91362e-05
2.91282e-05
2.91176e-05
2.91043e-05
2.90882e-05
2.90695e-05
2.90479e-05
2.90235e-05
2.89963e-05
2.89662e-05
2.89331e-05
2.88971e-05
2.88581e-05
2.8816e-05
2.87709e-05
2.87226e-05
2.86713e-05
2.86168e-05
2.85591e-05
2.84982e-05
2.84342e-05
2.8367e-05
2.82965e-05
2.81584e-05
2.82312e-05
2.83006e-05
2.83669e-05
2.84299e-05
2.84897e-05
2.85463e-05
2.85997e-05
2.86499e-05
2.86969e-05
2.87407e-05
2.87814e-05
2.88191e-05
2.88536e-05
2.88851e-05
2.89136e-05
2.89391e-05
2.89618e-05
2.89815e-05
2.89983e-05
2.90123e-05
2.90234e-05
2.90318e-05
2.90373e-05
2.90401e-05
2.90401e-05
2.90373e-05
2.90318e-05
2.90234e-05
2.90123e-05
2.89983e-05
2.89815e-05
2.89617e-05
2.89391e-05
2.89136e-05
2.88851e-05
2.88536e-05
2.8819e-05
2.87814e-05
2.87407e-05
2.86969e-05
2.86499e-05
2.85997e-05
2.85463e-05
2.84897e-05
2.84299e-05
2.83669e-05
2.83006e-05
2.82312e-05
2.81583e-05
2.81624e-05
2.82308e-05
2.82959e-05
2.83578e-05
2.84164e-05
2.84718e-05
2.85238e-05
2.85727e-05
2.86182e-05
2.86606e-05
2.86997e-05
2.87357e-05
2.87686e-05
2.87983e-05
2.8825e-05
2.88486e-05
2.88692e-05
2.88868e-05
2.89015e-05
2.89131e-05
2.89219e-05
2.89277e-05
2.89306e-05
2.89306e-05
2.89277e-05
2.89219e-05
2.89131e-05
2.89015e-05
2.88868e-05
2.88692e-05
2.88486e-05
2.8825e-05
2.87983e-05
2.87686e-05
2.87357e-05
2.86997e-05
2.86606e-05
2.86182e-05
2.85726e-05
2.85238e-05
2.84718e-05
2.84164e-05
2.83578e-05
2.82959e-05
2.82308e-05
2.81624e-05
2.80908e-05
2.80157e-05
2.80901e-05
2.81573e-05
2.82212e-05
2.82817e-05
2.8339e-05
2.83929e-05
2.84434e-05
2.84907e-05
2.85346e-05
2.85753e-05
2.86127e-05
2.86469e-05
2.86778e-05
2.87056e-05
2.87302e-05
2.87517e-05
2.877e-05
2.87853e-05
2.87975e-05
2.88066e-05
2.88127e-05
2.88157e-05
2.88157e-05
2.88127e-05
2.88066e-05
2.87975e-05
2.87853e-05
2.877e-05
2.87517e-05
2.87302e-05
2.87056e-05
2.86778e-05
2.86469e-05
2.86127e-05
2.85753e-05
2.85346e-05
2.84907e-05
2.84434e-05
2.83929e-05
2.8339e-05
2.82817e-05
2.82212e-05
2.81573e-05
2.80901e-05
2.80196e-05
2.79459e-05
2.78687e-05
2.80799e-05
2.81424e-05
2.82014e-05
2.82571e-05
2.83094e-05
2.83583e-05
2.84038e-05
2.84459e-05
2.84847e-05
2.85201e-05
2.85522e-05
2.85811e-05
2.86066e-05
2.86289e-05
2.8648e-05
2.86639e-05
2.86766e-05
2.86861e-05
2.86924e-05
2.86955e-05
2.86955e-05
2.86924e-05
2.86861e-05
2.86766e-05
2.86639e-05
2.8648e-05
2.86289e-05
2.86066e-05
2.85811e-05
2.85522e-05
2.85201e-05
2.84847e-05
2.84459e-05
2.84038e-05
2.83582e-05
2.83094e-05
2.82571e-05
2.82014e-05
2.81423e-05
2.80799e-05
2.80141e-05
2.79449e-05
2.78724e-05
2.77967e-05
2.77174e-05
2.79984e-05
2.80593e-05
2.81167e-05
2.81706e-05
2.8221e-05
2.8268e-05
2.83116e-05
2.83517e-05
2.83884e-05
2.84216e-05
2.84515e-05
2.8478e-05
2.85011e-05
2.85209e-05
2.85374e-05
2.85505e-05
2.85604e-05
2.85669e-05
2.85702e-05
2.85702e-05
2.85669e-05
2.85604e-05
2.85505e-05
2.85373e-05
2.85209e-05
2.85011e-05
2.8478e-05
2.84515e-05
2.84216e-05
2.83883e-05
2.83517e-05
2.83116e-05
2.8268e-05
2.8221e-05
2.81706e-05
2.81166e-05
2.80593e-05
2.79984e-05
2.79341e-05
2.78664e-05
2.77954e-05
2.77209e-05
2.76432e-05
2.7562e-05
2.79126e-05
2.79717e-05
2.80272e-05
2.80792e-05
2.81276e-05
2.81725e-05
2.82139e-05
2.82518e-05
2.82861e-05
2.8317e-05
2.83444e-05
2.83683e-05
2.83888e-05
2.84058e-05
2.84194e-05
2.84296e-05
2.84364e-05
2.84398e-05
2.84398e-05
2.84364e-05
2.84296e-05
2.84194e-05
2.84058e-05
2.83888e-05
2.83683e-05
2.83444e-05
2.8317e-05
2.82861e-05
2.82518e-05
2.82139e-05
2.81725e-05
2.81276e-05
2.80792e-05
2.80272e-05
2.79717e-05
2.79126e-05
2.78501e-05
2.7784e-05
2.77145e-05
2.76416e-05
2.75653e-05
2.74857e-05
2.74026e-05
2.78793e-05
2.79327e-05
2.79826e-05
2.80288e-05
2.80714e-05
2.81105e-05
2.81459e-05
2.81777e-05
2.8206e-05
2.82307e-05
2.82518e-05
2.82694e-05
2.82834e-05
2.8294e-05
2.8301e-05
2.83045e-05
2.83045e-05
2.8301e-05
2.8294e-05
2.82834e-05
2.82694e-05
2.82518e-05
2.82307e-05
2.8206e-05
2.81777e-05
2.81459e-05
2.81105e-05
2.80714e-05
2.80288e-05
2.79826e-05
2.79327e-05
2.78793e-05
2.78222e-05
2.77616e-05
2.76974e-05
2.76297e-05
2.75584e-05
2.74837e-05
2.74056e-05
2.73242e-05
2.72393e-05
2.77819e-05
2.78331e-05
2.78806e-05
2.79244e-05
2.79646e-05
2.8001e-05
2.80338e-05
2.80629e-05
2.80883e-05
2.81101e-05
2.81282e-05
2.81427e-05
2.81536e-05
2.81608e-05
2.81644e-05
2.81644e-05
2.81608e-05
2.81536e-05
2.81427e-05
2.81282e-05
2.81101e-05
2.80883e-05
2.80629e-05
2.80338e-05
2.8001e-05
2.79646e-05
2.79244e-05
2.78806e-05
2.78331e-05
2.77819e-05
2.7727e-05
2.76685e-05
2.76063e-05
2.75405e-05
2.74712e-05
2.73982e-05
2.73218e-05
2.7242e-05
2.71588e-05
2.70721e-05
2.78142e-05
2.78516e-05
2.78853e-05
2.79152e-05
2.79414e-05
2.79637e-05
2.79824e-05
2.79973e-05
2.80085e-05
2.80159e-05
2.80197e-05
2.80197e-05
2.80159e-05
2.80085e-05
2.79973e-05
2.79824e-05
2.79637e-05
2.79414e-05
2.79152e-05
2.78853e-05
2.78516e-05
2.78142e-05
2.7773e-05
2.7728e-05
2.76793e-05
2.76268e-05
2.75706e-05
2.75106e-05
2.74469e-05
2.73796e-05
2.73087e-05
2.72341e-05
2.71561e-05
2.70746e-05
2.69897e-05
2.69013e-05
2.77899e-05
2.78129e-05
2.78321e-05
2.78474e-05
2.78589e-05
2.78665e-05
2.78704e-05
2.78704e-05
2.78665e-05
2.78589e-05
2.78474e-05
2.78321e-05
2.78129e-05
2.77899e-05
2.77631e-05
2.77324e-05
2.76979e-05
2.76595e-05
2.76173e-05
2.75712e-05
2.75213e-05
2.74675e-05
2.741e-05
2.73486e-05
2.72836e-05
2.72148e-05
2.71423e-05
2.70662e-05
2.69866e-05
2.69035e-05
2.6817e-05
2.6727e-05
2.76774e-05
2.76931e-05
2.77049e-05
2.77127e-05
2.77166e-05
2.77166e-05
2.77127e-05
2.77049e-05
2.76931e-05
2.76774e-05
2.76577e-05
2.76342e-05
2.76067e-05
2.75752e-05
2.75399e-05
2.75006e-05
2.74573e-05
2.74102e-05
2.73591e-05
2.73042e-05
2.72454e-05
2.71827e-05
2.71163e-05
2.70461e-05
2.69721e-05
2.68946e-05
2.68134e-05
2.67288e-05
2.66408e-05
2.65492e-05
2.75586e-05
2.75586e-05
2.75546e-05
2.75465e-05
2.75345e-05
2.75184e-05
2.74983e-05
2.74742e-05
2.74461e-05
2.74139e-05
2.73777e-05
2.73376e-05
2.72934e-05
2.72452e-05
2.7193e-05
2.71369e-05
2.70769e-05
2.7013e-05
2.69452e-05
2.68737e-05
2.67983e-05
2.67193e-05
2.66367e-05
2.65506e-05
2.64611e-05
2.63681e-05
2.73553e-05
2.73348e-05
2.73101e-05
2.72814e-05
2.72485e-05
2.72116e-05
2.71706e-05
2.71255e-05
2.70763e-05
2.70231e-05
2.69659e-05
2.69047e-05
2.68396e-05
2.67705e-05
2.66976e-05
2.6621e-05
2.65406e-05
2.64567e-05
2.63691e-05
2.62782e-05
2.61837e-05
2.71127e-05
2.70792e-05
2.70415e-05
2.69997e-05
2.69537e-05
2.69036e-05
2.68494e-05
2.67911e-05
2.67288e-05
2.66625e-05
2.65923e-05
2.65182e-05
2.64402e-05
2.63586e-05
2.62732e-05
2.61844e-05
2.60921e-05
2.59963e-05
2.68677e-05
2.68251e-05
2.67783e-05
2.67273e-05
2.66721e-05
2.66128e-05
2.65494e-05
2.6482e-05
2.64106e-05
2.63353e-05
2.62562e-05
2.61732e-05
2.60867e-05
2.59965e-05
2.59029e-05
2.58058e-05
2.66902e-05
2.66469e-05
2.65992e-05
2.65474e-05
2.64913e-05
2.6431e-05
2.63666e-05
2.62981e-05
2.62256e-05
2.61492e-05
2.60689e-05
2.59848e-05
2.5897e-05
2.58056e-05
2.57108e-05
2.56124e-05
2.65092e-05
2.64651e-05
2.64167e-05
2.6364e-05
2.63071e-05
2.62459e-05
2.61805e-05
2.6111e-05
2.60374e-05
2.59599e-05
2.58785e-05
2.57932e-05
2.57043e-05
2.56118e-05
2.55158e-05
2.54163e-05
2.61774e-05
2.61196e-05
2.60575e-05
2.59912e-05
2.59207e-05
2.58462e-05
2.57676e-05
2.56851e-05
2.55988e-05
2.55087e-05
2.54151e-05
2.5318e-05
2.52174e-05
2.56519e-05
2.55723e-05
2.54888e-05
2.54015e-05
2.53104e-05
2.52157e-05
2.51176e-05
2.50159e-05
2.52015e-05
2.51094e-05
2.50137e-05
2.49146e-05
2.48119e-05
3.00192e-05
3.00195e-05
3.00197e-05
3.00197e-05
3.00195e-05
3.00192e-05
3.00187e-05
3.00179e-05
3.0017e-05
3.00157e-05
3.0014e-05
3.00119e-05
3.00093e-05
3.00061e-05
3.00023e-05
2.99977e-05
2.99921e-05
2.99856e-05
2.9978e-05
2.99691e-05
2.99588e-05
2.9947e-05
2.99335e-05
2.99183e-05
2.99011e-05
2.98817e-05
2.98603e-05
2.98369e-05
3.00117e-05
3.00122e-05
3.00125e-05
3.00125e-05
3.00122e-05
3.00117e-05
3.00108e-05
3.00096e-05
3.0008e-05
3.0006e-05
3.00035e-05
3.00004e-05
2.99967e-05
2.99923e-05
2.99871e-05
2.99809e-05
2.99738e-05
2.99655e-05
2.99559e-05
2.9945e-05
2.99326e-05
2.99185e-05
2.99027e-05
2.9885e-05
2.98655e-05
2.98441e-05
2.98211e-05
2.97969e-05
2.99995e-05
3.00003e-05
3.00007e-05
3.00007e-05
3.00003e-05
2.99995e-05
2.99982e-05
2.99965e-05
2.99942e-05
2.99914e-05
2.99879e-05
2.99838e-05
2.99789e-05
2.99731e-05
2.99664e-05
2.99586e-05
2.99497e-05
2.99395e-05
2.99279e-05
2.99148e-05
2.99001e-05
2.98837e-05
2.98655e-05
2.98455e-05
2.98236e-05
2.97999e-05
2.97745e-05
2.97469e-05
2.99824e-05
2.99835e-05
2.9984e-05
2.9984e-05
2.99835e-05
2.99824e-05
2.99807e-05
2.99784e-05
2.99754e-05
2.99717e-05
2.99673e-05
2.9962e-05
2.99558e-05
2.99486e-05
2.99404e-05
2.99309e-05
2.99201e-05
2.9908e-05
2.98943e-05
2.98791e-05
2.98621e-05
2.98434e-05
2.98228e-05
2.98004e-05
2.97761e-05
2.97498e-05
2.97214e-05
2.96902e-05
2.996e-05
2.99614e-05
2.99621e-05
2.99621e-05
2.99614e-05
2.996e-05
2.99578e-05
2.9955e-05
2.99513e-05
2.99467e-05
2.99413e-05
2.99348e-05
2.99273e-05
2.99187e-05
2.99088e-05
2.98976e-05
2.9885e-05
2.98709e-05
2.98552e-05
2.98378e-05
2.98186e-05
2.97975e-05
2.97746e-05
2.97496e-05
2.97226e-05
2.96934e-05
2.96618e-05
2.96274e-05
2.99321e-05
2.99338e-05
2.99347e-05
2.99347e-05
2.99338e-05
2.99321e-05
2.99295e-05
2.9926e-05
2.99216e-05
2.99161e-05
2.99096e-05
2.9902e-05
2.98932e-05
2.98831e-05
2.98716e-05
2.98587e-05
2.98443e-05
2.98282e-05
2.98104e-05
2.97908e-05
2.97693e-05
2.97459e-05
2.97204e-05
2.96928e-05
2.9663e-05
2.96309e-05
2.95962e-05
2.95585e-05
2.98985e-05
2.99005e-05
2.99015e-05
2.99015e-05
2.99005e-05
2.98985e-05
2.98955e-05
2.98914e-05
2.98862e-05
2.98798e-05
2.98723e-05
2.98635e-05
2.98533e-05
2.98417e-05
2.98287e-05
2.9814e-05
2.97977e-05
2.97796e-05
2.97597e-05
2.97379e-05
2.97141e-05
2.96883e-05
2.96603e-05
2.963e-05
2.95974e-05
2.95622e-05
2.95245e-05
2.94837e-05
2.98591e-05
2.98615e-05
2.98626e-05
2.98626e-05
2.98614e-05
2.98591e-05
2.98556e-05
2.98509e-05
2.98449e-05
2.98377e-05
2.98291e-05
2.98191e-05
2.98075e-05
2.97945e-05
2.97798e-05
2.97634e-05
2.97452e-05
2.97252e-05
2.97032e-05
2.96791e-05
2.9653e-05
2.96247e-05
2.95941e-05
2.95611e-05
2.95257e-05
2.94876e-05
2.94469e-05
2.9403e-05
2.98138e-05
2.98164e-05
2.98177e-05
2.98177e-05
2.98164e-05
2.98138e-05
2.98098e-05
2.98045e-05
2.97978e-05
2.97896e-05
2.97799e-05
2.97687e-05
2.97558e-05
2.97413e-05
2.9725e-05
2.97068e-05
2.96868e-05
2.96647e-05
2.96406e-05
2.96144e-05
2.95859e-05
2.95551e-05
2.9522e-05
2.94863e-05
2.94481e-05
2.94071e-05
2.93634e-05
2.93166e-05
2.97625e-05
2.97654e-05
2.97669e-05
2.97669e-05
2.97654e-05
2.97625e-05
2.9758e-05
2.97521e-05
2.97446e-05
2.97355e-05
2.97248e-05
2.97123e-05
2.96981e-05
2.96821e-05
2.96642e-05
2.96443e-05
2.96224e-05
2.95984e-05
2.95721e-05
2.95437e-05
2.95129e-05
2.94796e-05
2.94439e-05
2.94056e-05
2.93646e-05
2.93208e-05
2.92742e-05
2.92245e-05
2.97051e-05
2.97083e-05
2.97099e-05
2.97099e-05
2.97083e-05
2.97051e-05
2.97002e-05
2.96936e-05
2.96854e-05
2.96754e-05
2.96636e-05
2.96499e-05
2.96344e-05
2.96169e-05
2.95974e-05
2.95758e-05
2.9552e-05
2.9526e-05
2.94977e-05
2.9467e-05
2.94339e-05
2.93982e-05
2.936e-05
2.9319e-05
2.92753e-05
2.92288e-05
2.91794e-05
2.91268e-05
2.96417e-05
2.96452e-05
2.9647e-05
2.9647e-05
2.96452e-05
2.96417e-05
2.96363e-05
2.96291e-05
2.96201e-05
2.96092e-05
2.95964e-05
2.95816e-05
2.95647e-05
2.95458e-05
2.95246e-05
2.95013e-05
2.94757e-05
2.94477e-05
2.94174e-05
2.93845e-05
2.93491e-05
2.9311e-05
2.92703e-05
2.92267e-05
2.91804e-05
2.91312e-05
2.9079e-05
2.90236e-05
2.95722e-05
2.95761e-05
2.9578e-05
2.9578e-05
2.9576e-05
2.95722e-05
2.95664e-05
2.95586e-05
2.95489e-05
2.95371e-05
2.95232e-05
2.95072e-05
2.9489e-05
2.94686e-05
2.9446e-05
2.94209e-05
2.93935e-05
2.93636e-05
2.93312e-05
2.92962e-05
2.92585e-05
2.92181e-05
2.91749e-05
2.91289e-05
2.90799e-05
2.90281e-05
2.89732e-05
2.89151e-05
2.94967e-05
2.95009e-05
2.9503e-05
2.9503e-05
2.95009e-05
2.94967e-05
2.94905e-05
2.94821e-05
2.94716e-05
2.9459e-05
2.94441e-05
2.94269e-05
2.94075e-05
2.93856e-05
2.93614e-05
2.93347e-05
2.93055e-05
2.92737e-05
2.92393e-05
2.92021e-05
2.91622e-05
2.91195e-05
2.90739e-05
2.90255e-05
2.8974e-05
2.89196e-05
2.88621e-05
2.88014e-05
2.93885e-05
2.93749e-05
2.9359e-05
2.93408e-05
2.932e-05
2.92968e-05
2.92711e-05
2.92427e-05
2.92118e-05
2.91781e-05
2.91417e-05
2.91025e-05
2.90604e-05
2.90155e-05
2.89676e-05
2.89167e-05
2.88628e-05
2.88059e-05
2.87459e-05
2.86826e-05
2.90385e-05
2.89973e-05
2.89531e-05
2.8906e-05
2.88558e-05
2.88026e-05
2.87463e-05
2.8687e-05
2.86245e-05
2.85587e-05
2.87389e-05
2.86834e-05
2.86248e-05
2.85631e-05
2.84982e-05
2.843e-05
2.84342e-05
2.83671e-05
2.82965e-05
2.42106e-05
2.39946e-05
2.37765e-05
2.75006e-05
2.73376e-05
2.71706e-05
2.69997e-05
2.68251e-05
2.66469e-05
2.64651e-05
2.628e-05
2.60916e-05
2.59e-05
2.57053e-05
2.55076e-05
2.53071e-05
2.51039e-05
2.4898e-05
2.46895e-05
2.44785e-05
2.42652e-05
2.40497e-05
2.38319e-05
2.8001e-05
2.78517e-05
2.76979e-05
2.75399e-05
2.73778e-05
2.72116e-05
2.70416e-05
2.68677e-05
2.66902e-05
2.65092e-05
2.63247e-05
2.6137e-05
2.5946e-05
2.57519e-05
2.55548e-05
2.53548e-05
2.51521e-05
2.49466e-05
2.47386e-05
2.4528e-05
2.43151e-05
2.40999e-05
2.38825e-05
2.80338e-05
2.78853e-05
2.77324e-05
2.75753e-05
2.74139e-05
2.72485e-05
2.70792e-05
2.69061e-05
2.67293e-05
2.65489e-05
2.63651e-05
2.61779e-05
2.59875e-05
2.57939e-05
2.55973e-05
2.53978e-05
2.51955e-05
2.49905e-05
2.47829e-05
2.45727e-05
2.43602e-05
2.41453e-05
2.39282e-05
2.80629e-05
2.79152e-05
2.77631e-05
2.76067e-05
2.74461e-05
2.72814e-05
2.71127e-05
2.69403e-05
2.67641e-05
2.65843e-05
2.6401e-05
2.62143e-05
2.60244e-05
2.58313e-05
2.56352e-05
2.54361e-05
2.52342e-05
2.50296e-05
2.48223e-05
2.46125e-05
2.44003e-05
2.41857e-05
2.39689e-05
2.80883e-05
2.79414e-05
2.77899e-05
2.76342e-05
2.74742e-05
2.73101e-05
2.71421e-05
2.69702e-05
2.67945e-05
2.66152e-05
2.64324e-05
2.62462e-05
2.60568e-05
2.58641e-05
2.56684e-05
2.54697e-05
2.52682e-05
2.50639e-05
2.48569e-05
2.46474e-05
2.44355e-05
2.42212e-05
2.40046e-05
2.99216e-05
2.98862e-05
2.9845e-05
2.97978e-05
2.97446e-05
2.96854e-05
2.96201e-05
2.95489e-05
2.94716e-05
2.93885e-05
2.92995e-05
2.92047e-05
2.91043e-05
2.89983e-05
2.88869e-05
2.87701e-05
2.8648e-05
2.85209e-05
2.83888e-05
2.82518e-05
2.81101e-05
2.79638e-05
2.78129e-05
2.76578e-05
2.74983e-05
2.73348e-05
2.71672e-05
2.69958e-05
2.68206e-05
2.66418e-05
2.64594e-05
2.62736e-05
2.60846e-05
2.58923e-05
2.56969e-05
2.54985e-05
2.52973e-05
2.50933e-05
2.48867e-05
2.46774e-05
2.44657e-05
2.42516e-05
2.40352e-05
2.9926e-05
2.98914e-05
2.98509e-05
2.98045e-05
2.97521e-05
2.96936e-05
2.96291e-05
2.95586e-05
2.94821e-05
2.93997e-05
2.93114e-05
2.92174e-05
2.91176e-05
2.90123e-05
2.89015e-05
2.87853e-05
2.86639e-05
2.85374e-05
2.84058e-05
2.82694e-05
2.81282e-05
2.79824e-05
2.78321e-05
2.76774e-05
2.75184e-05
2.73553e-05
2.71882e-05
2.70172e-05
2.68424e-05
2.66639e-05
2.64819e-05
2.62965e-05
2.61077e-05
2.59157e-05
2.57207e-05
2.55226e-05
2.53216e-05
2.51179e-05
2.49115e-05
2.47024e-05
2.44909e-05
2.4277e-05
2.40608e-05
2.99295e-05
2.98955e-05
2.98556e-05
2.98098e-05
2.9758e-05
2.97002e-05
2.96363e-05
2.95664e-05
2.94905e-05
2.94086e-05
2.93209e-05
2.92274e-05
2.91282e-05
2.90234e-05
2.89132e-05
2.87975e-05
2.86766e-05
2.85505e-05
2.84194e-05
2.82835e-05
2.81427e-05
2.79973e-05
2.78474e-05
2.76931e-05
2.75345e-05
2.73717e-05
2.7205e-05
2.70343e-05
2.68598e-05
2.66816e-05
2.64999e-05
2.63148e-05
2.61263e-05
2.59345e-05
2.57397e-05
2.55419e-05
2.53411e-05
2.51376e-05
2.49313e-05
2.47225e-05
2.45111e-05
2.42974e-05
2.40813e-05
3.00192e-05
3.00117e-05
2.99995e-05
2.99824e-05
2.996e-05
2.99321e-05
2.98985e-05
2.98591e-05
2.98138e-05
2.97624e-05
2.97051e-05
2.96416e-05
2.95722e-05
2.94967e-05
2.94153e-05
2.9328e-05
2.9235e-05
2.91362e-05
2.90318e-05
2.89219e-05
2.88066e-05
2.86861e-05
2.85604e-05
2.84296e-05
2.8294e-05
2.81536e-05
2.80085e-05
2.78589e-05
2.77048e-05
2.75465e-05
2.73841e-05
2.72175e-05
2.70471e-05
2.68729e-05
2.66949e-05
2.65134e-05
2.63285e-05
2.61402e-05
2.59487e-05
2.5754e-05
2.55563e-05
2.53557e-05
2.51523e-05
2.49462e-05
2.47375e-05
2.45263e-05
2.43127e-05
2.40967e-05
3.00195e-05
3.00122e-05
3.00003e-05
2.99835e-05
2.99614e-05
2.99338e-05
2.99005e-05
2.98614e-05
2.98164e-05
2.97654e-05
2.97083e-05
2.96452e-05
2.9576e-05
2.95009e-05
2.94198e-05
2.93328e-05
2.924e-05
2.91415e-05
2.90373e-05
2.89277e-05
2.88127e-05
2.86924e-05
2.85669e-05
2.84364e-05
2.8301e-05
2.81608e-05
2.80159e-05
2.78665e-05
2.77127e-05
2.75546e-05
2.73923e-05
2.72259e-05
2.70557e-05
2.68816e-05
2.67038e-05
2.65225e-05
2.63376e-05
2.61495e-05
2.59581e-05
2.57635e-05
2.5566e-05
2.53655e-05
2.51622e-05
2.49562e-05
2.47475e-05
2.45364e-05
2.43229e-05
2.4107e-05
3.00197e-05
3.00125e-05
3.00007e-05
2.9984e-05
2.99621e-05
2.99346e-05
2.99015e-05
2.98626e-05
2.98177e-05
2.97668e-05
2.97099e-05
2.9647e-05
2.95779e-05
2.95029e-05
2.9422e-05
2.93351e-05
2.92425e-05
2.91441e-05
2.90401e-05
2.89306e-05
2.88157e-05
2.86955e-05
2.85702e-05
2.84398e-05
2.83045e-05
2.81644e-05
2.80197e-05
2.78703e-05
2.77166e-05
2.75586e-05
2.73964e-05
2.72301e-05
2.70599e-05
2.68859e-05
2.67082e-05
2.6527e-05
2.63422e-05
2.61541e-05
2.59628e-05
2.57683e-05
2.55708e-05
2.53703e-05
2.51671e-05
2.49611e-05
2.47526e-05
2.45415e-05
2.4328e-05
2.41121e-05
3.00197e-05
3.00125e-05
3.00007e-05
2.9984e-05
2.99621e-05
2.99346e-05
2.99015e-05
2.98626e-05
2.98177e-05
2.97668e-05
2.97099e-05
2.9647e-05
2.95779e-05
2.95029e-05
2.9422e-05
2.93351e-05
2.92425e-05
2.91441e-05
2.90401e-05
2.89306e-05
2.88157e-05
2.86955e-05
2.85702e-05
2.84398e-05
2.83045e-05
2.81644e-05
2.80197e-05
2.78703e-05
2.77166e-05
2.75586e-05
2.73964e-05
2.72301e-05
2.70599e-05
2.68859e-05
2.67082e-05
2.6527e-05
2.63422e-05
2.61541e-05
2.59628e-05
2.57683e-05
2.55708e-05
2.53703e-05
2.51671e-05
2.49611e-05
2.47526e-05
2.45415e-05
2.4328e-05
2.41121e-05
3.00195e-05
3.00122e-05
3.00003e-05
2.99835e-05
2.99614e-05
2.99338e-05
2.99005e-05
2.98614e-05
2.98164e-05
2.97654e-05
2.97083e-05
2.96452e-05
2.9576e-05
2.95009e-05
2.94197e-05
2.93328e-05
2.924e-05
2.91415e-05
2.90373e-05
2.89277e-05
2.88127e-05
2.86924e-05
2.85669e-05
2.84364e-05
2.8301e-05
2.81608e-05
2.80159e-05
2.78665e-05
2.77127e-05
2.75546e-05
2.73923e-05
2.72259e-05
2.70557e-05
2.68816e-05
2.67038e-05
2.65224e-05
2.63376e-05
2.61495e-05
2.59581e-05
2.57635e-05
2.5566e-05
2.53655e-05
2.51622e-05
2.49562e-05
2.47475e-05
2.45364e-05
2.43229e-05
2.4107e-05
3.00192e-05
3.00116e-05
2.99995e-05
2.99824e-05
2.996e-05
2.99321e-05
2.98985e-05
2.98591e-05
2.98138e-05
2.97624e-05
2.97051e-05
2.96416e-05
2.95722e-05
2.94967e-05
2.94153e-05
2.9328e-05
2.92349e-05
2.91362e-05
2.90318e-05
2.89219e-05
2.88066e-05
2.86861e-05
2.85603e-05
2.84296e-05
2.8294e-05
2.81536e-05
2.80085e-05
2.78589e-05
2.77048e-05
2.75465e-05
2.73841e-05
2.72175e-05
2.70471e-05
2.68729e-05
2.66949e-05
2.65134e-05
2.63285e-05
2.61402e-05
2.59486e-05
2.5754e-05
2.55563e-05
2.53557e-05
2.51523e-05
2.49462e-05
2.47375e-05
2.45263e-05
2.43127e-05
2.40967e-05
3.00187e-05
3.00108e-05
2.99982e-05
2.99807e-05
2.99578e-05
2.99295e-05