/*--------------------------------*- C++ -*----------------------------------*\
  =========                 |
  \\      /  F ield         | OpenFOAM: The Open Source CFD Toolbox
   \\    /   O peration     | Website:  https://openfoam.org
    \\  /    A nd           | Version:  7
     \\/     M anipulation  |
\*---------------------------------------------------------------------------*/
FoamFile
{
    version     2.0;
    format      ascii;
    class       volScalarField;
    location    "60000";
    object      nu;
}
// * * * * * * * * * * * * * * * * * * * * * * * * * * * * * * * * * * * * * //

dimensions      [0 2 -1 0 0 0 0];

internalField   nonuniform List<scalar> 
4850
(
0.001
0.001
0.001
0.001
0.001
0.001
0.001
0.001
0.001
0.001
0.001
0.001
0.001
0.001
0.001
0.001
0.001
0.001
0.001
0.001
0.001
0.001
0.001
0.001
0.001
0.001
0.001
0.001
0.001
0.001
0.001
0.001
0.001
0.001
0.001
0.001
0.001
0.001
0.001
0.001
0.001
0.001
0.001
0.001
0.001
0.001
0.001
0.001
0.001
0.001
0.001
0.001
0.001
0.001
0.001
0.001
0.001
0.001
0.001
0.001
0.001
0.001
0.001
0.001
0.001
0.001
0.001
0.001
0.001
0.001
0.001
0.001
0.001
0.001
0.001
0.001
0.001
0.001
0.001
0.001
0.001
0.001
0.001
0.001
0.001
0.001
0.001
0.001
0.001
0.001
0.001
0.001
0.001
0.001
0.001
0.001
0.001
0.001
0.001
0.001
0.001
0.001
0.001
0.001
0.001
0.001
0.001
0.001
0.001
0.001
0.001
0.001
0.001
0.001
0.001
0.001
0.001
0.001
0.001
0.001
0.001
0.001
0.001
0.001
0.001
0.001
0.001
0.001
0.001
0.001
0.001
0.001
0.001
0.001
0.001
0.001
0.001
0.001
0.001
0.001
0.001
0.001
0.001
0.001
0.001
0.001
0.001
0.001
0.001
0.001
0.001
0.001
0.001
0.001
0.001
0.001
0.001
0.001
0.001
0.001
0.001
0.001
0.001
0.001
0.001
0.001
0.001
0.001
0.001
0.001
0.001
0.001
0.001
0.001
0.001
0.001
0.001
0.001
0.001
0.001
0.001
0.001
0.001
0.001
0.001
0.001
0.001
0.001
0.001
0.001
0.001
0.001
0.001
0.001
0.001
0.001
0.001
0.001
0.001
0.001
0.001
0.001
0.001
0.001
0.001
0.001
0.001
0.001
0.001
0.001
0.001
0.001
0.001
0.001
0.001
0.001
0.001
0.001
0.001
0.001
0.001
0.001
0.001
0.001
0.001
0.001
0.001
0.001
0.001
0.001
0.001
0.001
0.001
0.001
0.001
0.001
0.001
0.001
0.001
0.001
0.001
0.001
0.001
0.001
0.001
0.001
0.001
0.001
0.001
0.001
0.001
0.001
0.001
0.001
0.001
0.001
0.001
0.001
0.001
0.001
0.001
0.001
0.001
0.001
0.001
0.001
0.001
0.001
0.001
0.001
0.001
0.001
0.001
0.001
0.001
0.001
0.001
0.001
0.001
0.001
0.001
0.001
0.001
0.001
0.001
0.001
0.001
0.001
0.001
0.001
0.001
0.001
0.001
0.001
0.001
0.001
0.001
0.001
0.001
0.001
0.001
0.001
0.001
0.001
0.001
0.001
0.001
0.001
0.001
0.001
0.001
0.001
0.001
0.001
0.001
0.001
0.001
0.001
0.001
0.001
0.001
0.001
0.001
0.001
0.001
0.001
0.001
0.001
0.001
0.001
0.001
0.001
0.001
0.001
0.001
0.001
0.001
0.001
0.001
0.001
0.001
0.001
0.001
0.001
0.001
0.001
0.001
0.001
0.001
0.001
0.001
0.001
0.001
0.001
0.001
0.001
0.001
0.001
0.001
0.001
0.001
0.001
0.001
0.001
0.001
0.001
0.001
0.001
0.001
0.001
0.001
0.001
0.001
0.001
0.001
0.001
0.001
0.001
0.001
0.001
0.001
0.001
0.001
0.001
0.001
0.001
0.001
0.001
0.001
0.001
0.001
0.001
0.001
0.001
0.001
0.001
0.001
0.001
0.001
0.001
0.001
0.001
0.001
0.001
0.001
0.001
0.001
0.001
0.001
0.001
0.001
0.001
0.001
0.001
0.001
0.001
0.001
0.001
0.001
0.001
0.001
0.001
0.001
0.001
0.001
0.001
0.001
0.001
0.001
0.001
0.001
0.001
0.001
0.001
0.001
0.001
0.001
0.001
0.001
0.001
0.001
0.001
0.001
0.001
0.001
0.001
0.001
0.001
0.001
0.001
0.001
0.001
0.001
0.001
0.001
0.001
0.001
0.001
0.001
0.001
0.001
0.001
0.001
0.001
0.001
0.001
0.001
0.001
0.001
0.001
0.001
0.001
0.001
0.001
0.001
0.001
0.001
0.001
0.001
0.001
0.001
0.001
0.001
0.001
0.001
0.000997964
0.001
0.001
0.001
0.001
0.001
0.001
0.001
0.001
0.001
0.001
0.001
0.001
0.001
0.001
0.001
0.001
0.001
0.001
0.001
0.001
0.001
0.001
0.001
0.001
0.001
0.001
0.001
0.001
0.001
0.001
0.001
0.001
0.001
0.001
0.000990414
0.001
0.001
0.001
0.001
0.001
0.001
0.001
0.001
0.001
0.001
0.001
0.001
0.001
0.001
0.001
0.001
0.001
0.001
0.001
0.001
0.001
0.001
0.001
0.001
0.001
0.001
0.001
0.001
0.001
0.001
0.001
0.001
0.001
0.001
0.000979391
0.000991743
0.00099661
0.001
0.001
0.001
0.001
0.001
0.001
0.001
0.001
0.001
0.001
0.001
0.001
0.001
0.001
0.001
0.001
0.001
0.001
0.001
0.001
0.001
0.001
0.001
0.001
0.001
0.001
0.001
0.001
0.001
0.001
0.001
0.001
0.00096588
0.00097872
0.000985948
0.000991559
0.000995649
0.000998852
0.001
0.001
0.001
0.001
0.001
0.001
0.001
0.001
0.001
0.001
0.001
0.001
0.001
0.001
0.001
0.001
0.001
0.001
0.001
0.001
0.001
0.001
0.001
0.001
0.001
0.001
0.001
0.001
0.00095069
0.000963374
0.000971583
0.000978604
0.000984757
0.000989877
0.000993961
0.000997222
0.000999868
0.001
0.001
0.001
0.001
0.001
0.001
0.001
0.001
0.001
0.001
0.001
0.001
0.001
0.001
0.001
0.001
0.001
0.001
0.001
0.001
0.001
0.001
0.001
0.001
0.001
0.000934476
0.000946895
0.00095543
0.000963237
0.000970413
0.000976724
0.000982378
0.000987363
0.000991622
0.000994929
0.000997661
0.000999913
0.001
0.001
0.001
0.001
0.001
0.001
0.001
0.001
0.001
0.001
0.001
0.001
0.001
0.001
0.001
0.001
0.001
0.001
0.001
0.001
0.001
0.001
0.000917712
0.000929871
0.000938464
0.000946639
0.000954317
0.000961335
0.000967825
0.000973748
0.000979044
0.000983907
0.000988127
0.000991749
0.000994549
0.000996868
0.000998834
0.001
0.001
0.001
0.001
0.001
0.001
0.001
0.001
0.001
0.001
0.001
0.001
0.001
0.001
0.001
0.001
0.000998197
0.000993927
0.000995482
0.000900705
0.000912615
0.00092117
0.000929471
0.000937381
0.000944788
0.000951729
0.000958178
0.000964114
0.000969722
0.00097477
0.000979273
0.000983398
0.00098697
0.000990053
0.000992594
0.000994552
0.00099617
0.000997536
0.000998673
0.000999569
0.001
0.001
0.001
0.001
0.001
0.001
0.00099952
0.000998324
0.000996561
0.000993988
0.000990055
0.000985894
0.000883644
0.000895303
0.00090379
0.000912094
0.000920091
0.000927691
0.000934872
0.000941618
0.000947929
0.000953905
0.000959417
0.000964463
0.000969211
0.000973457
0.000977206
0.000980526
0.000983466
0.000985959
0.000988071
0.000989828
0.000991225
0.000992216
0.000992818
0.000993123
0.00099315
0.000992879
0.000992247
0.000991086
0.000989268
0.000986732
0.000983389
0.000979638
0.000977697
0.000866631
0.000878037
0.000886448
0.000894703
0.000902706
0.000910381
0.000917683
0.000924592
0.000931112
0.000937279
0.000943047
0.000948408
0.000953452
0.000958057
0.0009622
0.000965955
0.000969364
0.00097232
0.000974838
0.000976939
0.000978626
0.000979914
0.000980804
0.000981265
0.000981299
0.000980878
0.000979945
0.000978469
0.00097641
0.000973746
0.000970686
0.000968245
0.000849715
0.000860871
0.000869207
0.000877394
0.000885363
0.000893048
0.000900398
0.000907389
0.000914017
0.000920287
0.000926192
0.000931723
0.000936911
0.000941703
0.000946072
0.000950059
0.000953688
0.000956879
0.000959617
0.00096191
0.000963765
0.000965207
0.000966223
0.000966759
0.000966798
0.000966316
0.000965284
0.00096373
0.000961693
0.000959279
0.000956932
0.000955823
0.000832909
0.000843825
0.000852091
0.000860209
0.000868127
0.00087579
0.000883147
0.000890169
0.000896846
0.00090317
0.000909142
0.000914757
0.000920017
0.000924901
0.00092939
0.000933495
0.000937223
0.000940526
0.000943379
0.000945779
0.000947731
0.000949249
0.000950318
0.000950891
0.000950946
0.000950468
0.000949458
0.000947978
0.000946128
0.000944122
0.000942483
0.000942158
0.000816208
0.000826897
0.0008351
0.000843156
0.000851022
0.000858648
0.00086599
0.000873017
0.000879709
0.000886057
0.000892059
0.000897709
0.000903001
0.000907927
0.000912471
0.00091663
0.000920398
0.00092375
0.000926659
0.000929115
0.00093112
0.000932676
0.000933769
0.000934368
0.000934455
0.000934026
0.000933112
0.000931792
0.000930208
0.000928616
0.000927468
0.000927275
0.000799598
0.000810075
0.000818221
0.000826225
0.000834044
0.000841633
0.000848952
0.000855969
0.000862661
0.000869014
0.000875025
0.000880687
0.000885989
0.000890928
0.000895492
0.000899669
0.00090345
0.000906817
0.000909749
0.000912233
0.000914265
0.000915841
0.000916951
0.000917577
0.00091771
0.000917363
0.000916581
0.00091546
0.000914152
0.000912893
0.000911983
0.000911529
0.000783076
0.000793347
0.000801439
0.000809398
0.000817177
0.000824733
0.000832029
0.000839031
0.000845717
0.000852069
0.000858079
0.000863741
0.000869044
0.000873982
0.000878547
0.000882725
0.000886504
0.00088987
0.000892808
0.000895304
0.00089735
0.00089894
0.000900067
0.000900724
0.000900915
0.000900663
0.000900026
0.000899102
0.000898031
0.000896988
0.00089611
0.000895251
0.000766666
0.000776723
0.000784752
0.000792663
0.000800404
0.00080793
0.000815205
0.000822194
0.000828872
0.000835221
0.000841229
0.000846887
0.000852187
0.00085712
0.000861678
0.00086585
0.000869621
0.000872982
0.000875918
0.000878417
0.000880471
0.000882073
0.000883219
0.000883913
0.000884164
0.000884008
0.000883503
0.00088274
0.000881831
0.000880877
0.000879882
0.0008786
0.000750426
0.000760244
0.000768185
0.000776031
0.000783724
0.000791217
0.000798467
0.000805442
0.000812112
0.000818457
0.000824464
0.00083012
0.000835416
0.000840345
0.000844897
0.000849061
0.000852825
0.000856179
0.000859111
0.000861611
0.00086367
0.000865284
0.000866452
0.000867181
0.000867489
0.000867411
0.000867004
0.000866338
0.000865486
0.000864478
0.000863241
0.000861532
0.000734462
0.000743994
0.000751803
0.000759549
0.000767169
0.000774609
0.000781823
0.000788773
0.000795429
0.000801768
0.000807771
0.000813425
0.00081872
0.000823646
0.000828193
0.000832351
0.00083611
0.000839459
0.000842389
0.00084489
0.000846955
0.000848581
0.000849769
0.000850529
0.00085088
0.000850852
0.000850488
0.000849831
0.000848903
0.000847676
0.000846047
0.000843853
0.000718913
0.000728102
0.000735717
0.000743311
0.000750813
0.000758163
0.000765311
0.000772215
0.000778841
0.00078516
0.000791151
0.000796799
0.000802089
0.000807011
0.000811554
0.000815709
0.000819464
0.00082281
0.000825739
0.000828242
0.000830313
0.00083195
0.000833155
0.000833936
0.000834309
0.000834293
0.000833908
0.000833156
0.000832002
0.000830361
0.000828139
0.000825316
0.000703929
0.000712718
0.000720073
0.000727449
0.000734773
0.000741981
0.000749018
0.000755837
0.0007624
0.000768674
0.000774634
0.000780259
0.000785535
0.000790446
0.00079498
0.000799128
0.000802879
0.000806222
0.000809149
0.000811654
0.000813729
0.000815374
0.000816588
0.000817377
0.000817747
0.000817702
0.000817229
0.000816282
0.000814754
0.000812494
0.000809437
0.000805809
0.000689635
0.000697988
0.000705026
0.000712122
0.000719202
0.000726205
0.000733072
0.000739754
0.000746207
0.000752396
0.00075829
0.000763867
0.000769104
0.000773987
0.0007785
0.000782631
0.000786369
0.000789703
0.000792624
0.000795125
0.000797201
0.000798846
0.000800059
0.00080084
0.000801183
0.000801071
0.000800456
0.000799237
0.000797227
0.000794187
0.000790063
0.000785632
0.000676066
0.000683995
0.000690697
0.000697471
0.000704257
0.000710995
0.000717632
0.000724116
0.000730404
0.000736456
0.000742239
0.000747726
0.000752891
0.000757717
0.000762184
0.000766279
0.000769988
0.000773299
0.000776203
0.000778691
0.000780756
0.000782392
0.000783593
0.00078435
0.000784645
0.000784438
0.00078365
0.000782126
0.000779608
0.000775751
0.000770446
0.000765828
0.000663114
0.000670704
0.000677108
0.00068357
0.000690045
0.000696486
0.000702848
0.000709085
0.000715153
0.000721015
0.000726635
0.000731983
0.000737033
0.000741762
0.00074615
0.000750179
0.000753834
0.000757102
0.00075997
0.000762429
0.000764469
0.000766082
0.000767256
0.000767975
0.000768207
0.000767895
0.000766933
0.000765135
0.000762197
0.000757691
0.000751373
0.000748426
0.000650479
0.000657901
0.00066413
0.00067036
0.000676569
0.000682731
0.000688813
0.000694779
0.000700594
0.000706225
0.000711637
0.000716802
0.000721692
0.000726283
0.000730553
0.000734482
0.000738052
0.000741248
0.000744056
0.000746465
0.000748462
0.000750035
0.000751168
0.000751837
0.000752001
0.000751591
0.000750488
0.000748505
0.000745351
0.000740609
0.000734021
0.000733938
0.000637653
0.000645164
0.000651429
0.000657595
0.000663665
0.000669635
0.000675492
0.000681218
0.000686789
0.00069218
0.000697365
0.000702319
0.000707017
0.000711436
0.000715554
0.000719349
0.000722803
0.0007259
0.000728623
0.000730958
0.000732892
0.000734409
0.000735488
0.000736101
0.0007362
0.000735713
0.000734531
0.000732496
0.000729408
0.000725034
0.000719866
0.000623975
0.000631879
0.000638461
0.000644813
0.000650956
0.000656906
0.000662672
0.000668257
0.000673653
0.00067885
0.000683833
0.000688586
0.000693089
0.000697324
0.000701273
0.000704915
0.000708233
0.000711209
0.000713827
0.000716071
0.000717925
0.000719372
0.000720389
0.000720943
0.000720989
0.000720459
0.00071927
0.000717331
0.000714595
0.000711221
0.000708581
0.000608761
0.000617338
0.000624535
0.000631367
0.000637857
0.000644033
0.00064992
0.000655541
0.000660906
0.000666022
0.000670888
0.000675501
0.000679852
0.000683932
0.000687727
0.000691223
0.000694405
0.000697257
0.000699764
0.000701911
0.00070368
0.000705053
0.000706006
0.000706507
0.000706516
0.000705982
0.000704859
0.000703141
0.000700964
0.000698906
0.000591526
0.000600924
0.000608958
0.000616535
0.000623653
0.000630332
0.000636604
0.000642499
0.000648044
0.00065326
0.000658163
0.000662761
0.000667061
0.000671063
0.000674764
0.00067816
0.00068124
0.000683994
0.000686409
0.000688472
0.000690166
0.000691474
0.000692373
0.000692836
0.00069283
0.000692328
0.000691328
0.000689909
0.000688362
0.000687511
0.000572253
0.000582375
0.000591277
0.000599726
0.000607666
0.000615084
0.000621992
0.000628417
0.000634386
0.00063993
0.000645073
0.000649839
0.000654243
0.0006583
0.000662019
0.000665405
0.000668459
0.000671175
0.000673548
0.000675568
0.00067722
0.00067849
0.000679359
0.000679804
0.000679809
0.000679369
0.000678525
0.000677424
0.000676441
0.000676402
0.000551628
0.000562045
0.00057155
0.000580749
0.000589508
0.000597751
0.000605447
0.000612592
0.000619199
0.000625292
0.000630895
0.000636035
0.000640736
0.000645021
0.000648909
0.000652418
0.000655558
0.000658334
0.000660746
0.000662791
0.000664459
0.000665737
0.000666612
0.000667072
0.000667113
0.000666755
0.000666073
0.000665253
0.000664675
0.000664959
0.000531153
0.000541091
0.000550585
0.000560086
0.000569367
0.000578269
0.000586695
0.000594588
0.000601926
0.000608702
0.000614928
0.00062062
0.000625798
0.000630486
0.000634709
0.000638492
0.000641854
0.000644809
0.000647365
0.000649524
0.000651282
0.00065263
0.00065356
0.000654071
0.000654173
0.000653907
0.000653368
0.000652752
0.00065238
0.000652597
0.000513061
0.000521472
0.000530024
0.000539044
0.000548215
0.000557296
0.000566108
0.000574525
0.000582468
0.000589887
0.000596756
0.000603068
0.000608824
0.000614034
0.000618719
0.000622906
0.000626614
0.000629862
0.000632664
0.000635027
0.000636954
0.000638436
0.000639473
0.000640071
0.000640256
0.000640081
0.00063965
0.000639141
0.000638786
0.000638685
0.000500067
0.000505761
0.000512233
0.000519728
0.000527871
0.000536342
0.000544886
0.000553306
0.000561453
0.000569221
0.000576536
0.000583348
0.000589625
0.000595351
0.000600525
0.000605164
0.000609281
0.000612889
0.000616002
0.000618631
0.000620782
0.000622446
0.000623627
0.000624342
0.000624623
0.00062453
0.000624165
0.000623671
0.000623187
0.00062265
0.000495019
0.000496824
0.000500018
0.000504825
0.00051084
0.00051769
0.000525062
0.000532692
0.000540368
0.000547924
0.000555228
0.000562183
0.000568712
0.000574759
0.000580288
0.000585292
0.000589765
0.000593704
0.000597114
0.000600004
0.000602382
0.000604234
0.000605568
0.000606406
0.000606783
0.000606759
0.000606422
0.000605878
0.000605185
0.000604204
0.000500483
0.000497441
0.000496271
0.000497257
0.000500009
0.00050414
0.000509296
0.000515169
0.000521495
0.000528052
0.00053466
0.000541167
0.000547454
0.000553417
0.000558973
0.000564083
0.000568706
0.000572814
0.000576394
0.000579445
0.00058197
0.000583953
0.000585402
0.000586338
0.000586794
0.000586822
0.000586493
0.000585876
0.000584976
0.000583634
0.000518106
0.000509801
0.000503536
0.000499791
0.000498278
0.000498646
0.000500544
0.000503644
0.00050765
0.000512301
0.000517375
0.000522677
0.000528045
0.000533335
0.000538415
0.000543199
0.000547609
0.000551584
0.000555083
0.000558086
0.000560589
0.000562573
0.000564044
0.000565016
0.000565514
0.000565579
0.000565261
0.0005646
0.000563572
0.000562037
0.000547301
0.000534566
0.000523315
0.000514492
0.000508086
0.000503901
0.000501661
0.000501067
0.000501825
0.00050366
0.000506323
0.000509592
0.000513271
0.000517184
0.000521159
0.000525062
0.000528771
0.000532195
0.000535259
0.000537915
0.000540147
0.000541939
0.00054329
0.000544203
0.000544689
0.000544776
0.000544498
0.000543872
0.000542864
0.000541367
0.000582669
0.000568887
0.000554598
0.000541641
0.000530612
0.000521706
0.00051488
0.000509972
0.000506763
0.00050501
0.000504472
0.000504919
0.000506144
0.000507952
0.000510152
0.000512557
0.000515015
0.000517404
0.00051962
0.000521582
0.00052325
0.00052462
0.000525679
0.000526414
0.000526825
0.000526925
0.000526734
0.000526256
0.000525461
0.000524275
0.000610426
0.000603053
0.000591027
0.000577482
0.000564038
0.000551658
0.000540815
0.000531699
0.000524325
0.000518585
0.000514322
0.000511353
0.000509486
0.00050854
0.000508332
0.000508645
0.00050931
0.000510181
0.000511133
0.000512054
0.000512869
0.000513588
0.000514178
0.000514612
0.00051488
0.000514987
0.000514943
0.000514745
0.00051437
0.000513777
0.000607402
0.000617474
0.000617206
0.00061061
0.00060038
0.000588516
0.000576349
0.000564734
0.000554187
0.000544943
0.00053708
0.000530573
0.000525327
0.000521219
0.000518138
0.000515892
0.000514319
0.000513266
0.0005126
0.000512196
0.000511932
0.000511811
0.000511775
0.000511796
0.000511862
0.000511975
0.000512137
0.000512346
0.000512588
0.000512843
0.000550419
0.000586429
0.000608465
0.000619421
0.000621895
0.00061841
0.000611082
0.000601592
0.000591216
0.000580794
0.000570878
0.0005618
0.000553703
0.000546632
0.00054064
0.000535705
0.000531718
0.000528546
0.000526077
0.000524213
0.000522797
0.000521743
0.000520984
0.000520514
0.000520337
0.000520456
0.000520874
0.000521588
0.00052259
0.000523875
0.000437656
0.000495507
0.000542429
0.000578005
0.000602579
0.000617421
0.000624295
0.000625094
0.000621626
0.000615372
0.000607512
0.000598932
0.000590205
0.000581687
0.000573727
0.000566772
0.000560832
0.000555843
0.00055178
0.000548646
0.000546322
0.000544443
0.000542994
0.00054204
0.000541618
0.000541746
0.000542431
0.00054367
0.000545453
0.000547774
0.000300249
0.000362133
0.000421745
0.000476194
0.000523061
0.000560891
0.000589415
0.000609202
0.000621411
0.000627463
0.000628785
0.000626682
0.000622178
0.000616014
0.00060887
0.000602127
0.00059597
0.000590498
0.000585871
0.000582313
0.000579929
0.000577731
0.000575905
0.00057465
0.000574069
0.000574211
0.000575089
0.000576694
0.000579002
0.00058198
0.000180534
0.00022901
0.000282252
0.000338013
0.000393557
0.000445958
0.000492978
0.000533071
0.000565471
0.000590292
0.000608134
0.000619896
0.000626546
0.000628909
0.000627688
0.000625548
0.000622803
0.000619799
0.00061698
0.000614918
0.000614246
0.000612907
0.000611514
0.000610471
0.000609982
0.000610141
0.000610971
0.000612449
0.000614507
0.000617052
9.98963e-05
0.000129896
0.000166105
0.000208142
0.000254994
0.000304754
0.000355366
0.000404608
0.00045033
0.000491137
0.00052611
0.000554814
0.000577288
0.000593717
0.000604097
0.00061197
0.000617518
0.000621262
0.000623888
0.000626294
0.000629874
0.000631303
0.000631763
0.00063187
0.000631939
0.000632114
0.00063243
0.000632837
0.000633206
0.00063335
5.44198e-05
7.03885e-05
9.07537e-05
0.000116034
0.000146515
0.000181853
0.000221414
0.000264042
0.00030802
0.000351822
0.000393874
0.000432702
0.000467265
0.000496755
0.000520082
0.000540191
0.000556833
0.000570376
0.000581431
0.000590893
0.000600551
0.000606599
0.000610448
0.000612774
0.00061394
0.000614121
0.000613357
0.000611578
0.000608611
0.000604208
3.10963e-05
3.90441e-05
4.93771e-05
6.2621e-05
7.92866e-05
9.96822e-05
0.00012403
0.00015225
0.000183748
0.000217877
0.000253646
0.000289762
0.000325023
0.000358262
0.000388165
0.000415602
0.00044005
0.000461431
0.000479903
0.000495882
0.000510276
0.000520948
0.000528471
0.000533311
0.000535742
0.000535908
0.000533844
0.000529496
0.000522731
0.000513368
1.9395e-05
2.33526e-05
2.8462e-05
3.50296e-05
4.33842e-05
5.38461e-05
6.67394e-05
8.23093e-05
0.000100573
0.000121517
0.000144882
0.000170087
0.000196476
0.00022329
0.00024967
0.000275221
0.00029934
0.000321623
0.000341777
0.000359645
0.000375084
0.000387554
0.000396822
0.000402971
0.000406082
0.000406208
0.000403374
0.000397583
0.000388826
0.000377109
1.80077e-05
2.12935e-05
2.54292e-05
3.05981e-05
3.6996e-05
4.48146e-05
5.41941e-05
6.52577e-05
7.80374e-05
9.23986e-05
0.000108143
0.000124979
0.000237799
0.000248363
0.000256479
0.000261977
0.000264778
0.000264855
0.000262222
0.000256931
0.000249084
0.000238837
0.001
0.001
0.001
0.001
0.001
0.001
0.001
0.001
0.001
0.001
0.001
0.001
0.001
0.001
0.001
0.001
0.001
0.001
0.001
0.001
0.001
0.001
0.001
0.001
0.001
0.001
0.001
0.001
0.001
0.001
0.001
0.001
0.001
0.001
0.001
0.001
0.001
0.001
0.001
0.001
0.001
0.001
0.001
0.001
0.001
0.001
0.001
0.001
0.001
0.001
0.001
0.001
0.001
0.001
0.001
0.001
0.001
0.001
0.001
0.001
0.001
0.001
0.001
0.001
0.001
0.001
0.001
0.001
0.001
0.001
0.001
0.001
0.001
0.001
0.001
0.001
0.001
0.001
0.001
0.001
0.001
0.001
0.001
0.001
0.001
0.001
0.001
0.001
0.001
0.001
0.001
0.001
0.001
0.001
0.001
0.001
0.001
0.001
0.001
0.001
0.001
0.001
0.001
0.001
0.001
0.001
0.001
0.001
0.001
0.001
0.001
0.001
0.001
0.001
0.001
0.001
0.001
0.001
0.001
0.001
0.001
0.001
0.001
0.001
0.001
0.001
0.001
0.001
0.001
0.001
0.001
0.001
0.001
0.001
0.001
0.001
0.001
0.001
0.001
0.001
0.001
0.001
0.001
0.001
0.001
0.001
0.001
0.001
0.001
0.001
0.001
0.001
0.001
0.001
0.001
0.001
0.001
0.001
0.001
0.001
0.001
0.001
0.001
0.001
0.001
0.001
0.001
0.001
0.001
0.001
0.001
0.001
0.001
0.001
0.001
0.001
0.001
0.001
0.001
0.001
0.001
0.001
0.001
0.001
0.001
0.001
0.001
0.001
0.001
0.001
0.001
0.001
0.001
0.001
0.001
0.001
0.001
0.001
0.001
0.001
0.001
0.001
0.001
0.001
0.001
0.001
0.001
0.001
0.001
0.001
0.001
0.001
0.001
0.001
0.001
0.001
0.001
0.001
0.001
0.001
0.001
0.001
0.001
0.001
0.001
0.001
0.001
0.001
0.001
0.001
0.001
0.001
0.001
0.001
0.001
0.001
0.001
0.001
0.001
0.001
0.001
0.001
0.001
0.001
0.001
0.001
0.001
0.001
0.001
0.001
0.001
0.001
0.001
0.001
0.001
0.001
0.001
0.001
0.001
0.001
0.001
0.001
0.001
0.001
0.001
0.001
0.001
0.001
0.001
0.001
0.001
0.001
0.001
0.001
0.001
0.001
0.001
0.001
0.001
0.001
0.001
0.001
0.001
0.001
0.001
0.001
0.001
0.001
0.001
0.001
0.001
0.001
0.001
0.001
0.001
0.001
0.001
0.001
0.001
0.001
0.001
0.001
0.001
0.001
0.001
0.001
0.001
0.001
0.001
0.001
0.001
0.001
0.001
0.001
0.001
0.001
0.001
0.001
0.001
0.001
0.001
0.001
0.001
0.001
0.001
0.001
0.001
0.001
0.001
0.001
0.001
0.001
0.001
0.001
0.001
0.001
0.001
0.001
0.001
0.001
0.001
0.001
0.001
0.001
0.001
0.001
0.001
0.001
0.001
0.001
0.001
0.001
0.001
0.001
0.001
0.001
0.001
0.001
0.001
0.001
0.001
0.001
0.001
0.001
0.001
0.001
0.001
0.001
0.001
0.001
0.001
0.001
0.001
0.001
0.001
0.001
0.001
0.001
0.001
0.001
0.001
0.001
0.001
0.001
0.001
0.001
0.001
0.001
0.001
0.001
0.001
0.001
0.001
0.001
0.001
0.001
0.001
0.001
0.001
0.001
0.001
0.001
0.001
0.001
0.001
0.001
0.001
0.001
0.001
0.001
0.001
0.001
0.001
0.001
0.001
0.001
0.001
0.001
0.001
0.001
0.001
0.001
0.001
0.001
0.001
0.001
0.001
0.001
0.001
0.001
0.001
0.001
0.001
0.001
0.001
0.001
0.001
0.001
0.001
0.001
0.001
0.001
0.001
0.001
0.001
0.001
0.001
0.001
0.001
0.001
0.001
0.001
0.001
0.001
0.001
0.001
0.001
0.001
0.001
0.001
0.001
0.001
0.001
0.001
0.001
0.001
0.001
0.001
0.001
0.001
0.001
0.001
0.001
0.001
0.001
0.001
0.001
0.001
0.001
0.001
0.001
0.001
0.001
0.001
0.001
0.001
0.001
0.001
0.001
0.001
0.001
0.001
0.001
0.001
0.001
0.001
0.001
0.001
0.001
0.001
0.001
0.001
0.001
0.001
0.001
0.001
0.001
0.001
0.001
0.001
0.001
0.001
0.001
0.001
0.001
0.001
0.001
0.001
0.001
0.001
0.001
0.001
0.001
0.001
0.001
0.001
0.001
0.001
0.001
0.001
0.001
0.001
0.001
0.001
0.001
0.001
0.001
0.001
0.001
0.001
0.001
0.001
0.001
0.001
0.001
0.001
0.001
0.001
0.001
0.001
0.001
0.001
0.001
0.001
0.001
0.001
0.001
0.001
0.001
0.001
0.001
0.001
0.001
0.001
0.001
0.001
0.001
0.001
0.001
0.001
0.001
0.001
0.001
0.001
0.001
0.001
0.001
0.001
0.001
0.001
0.001
0.001
0.001
0.001
0.001
0.001
0.001
0.001
0.001
0.001
0.001
0.001
0.001
0.001
0.001
0.001
0.001
0.001
0.001
0.001
0.001
0.001
0.001
0.001
0.001
0.001
0.001
0.001
0.001
0.001
0.001
0.001
0.001
0.001
0.001
0.001
0.001
0.001
0.001
0.001
0.001
0.001
0.001
0.001
0.001
0.001
0.001
0.001
0.001
0.001
0.001
0.001
0.001
0.001
0.001
0.001
0.001
0.001
0.001
0.001
0.001
0.001
0.001
0.001
0.001
0.001
0.001
0.001
0.001
0.001
0.001
0.001
0.001
0.001
0.001
0.001
0.001
0.001
0.001
0.001
0.001
0.001
0.001
0.001
0.001
0.001
0.001
0.001
0.001
0.001
0.001
0.001
0.001
0.001
0.001
0.001
0.001
0.001
0.001
0.001
0.001
0.001
0.001
0.001
0.001
0.001
0.001
0.001
0.001
0.001
0.001
0.001
0.001
0.001
0.001
0.001
0.001
0.001
0.001
0.001
0.001
0.001
0.001
0.001
0.001
0.001
0.001
0.001
0.001
0.001
0.001
0.001
0.001
0.001
0.001
0.001
0.001
0.001
0.001
0.001
0.001
0.001
0.001
0.001
0.001
0.001
0.001
0.001
0.001
0.001
0.001
0.001
0.001
0.001
0.001
0.001
0.001
0.001
0.001
0.001
0.001
0.001
0.001
0.001
0.001
0.001
0.001
0.001
0.001
0.001
0.001
0.001
0.001
0.001
0.001
0.001
0.001
0.001
0.001
0.001
0.001
0.001
0.001
0.001
0.001
0.001
0.001
0.001
0.001
0.001
0.001
0.001
0.001
0.001
0.001
0.001
0.001
0.001
0.001
0.001
0.001
0.001
0.001
0.001
0.001
0.001
0.001
0.001
0.001
0.001
0.001
0.001
0.001
0.001
0.001
0.001
0.001
0.001
0.001
0.001
0.001
0.001
0.001
0.001
0.001
0.001
0.001
0.001
0.001
0.001
0.001
0.001
0.001
0.001
0.001
0.001
0.001
0.001
0.001
0.001
0.001
0.001
0.001
0.001
0.001
0.001
0.001
0.001
0.001
0.001
0.001
0.001
0.001
0.001
0.001
0.001
0.001
0.001
0.001
0.001
0.001
0.001
0.001
0.001
0.001
0.001
0.001
0.001
0.001
0.001
0.001
0.001
0.001
0.001
0.001
0.001
0.001
0.001
0.001
0.001
0.001
0.001
0.001
0.001
0.001
0.001
0.001
0.001
0.001
0.001
0.001
0.001
0.001
0.001
0.001
0.001
0.001
0.001
0.001
0.001
0.001
0.001
0.001
0.001
0.001
0.001
0.001
0.001
0.001
0.001
0.001
0.001
0.001
0.001
0.001
0.001
0.001
0.001
0.001
0.001
0.001
0.001
0.001
0.001
0.001
0.001
0.001
0.001
0.001
0.001
0.001
0.001
0.001
0.001
0.001
0.001
0.001
0.001
0.001
0.001
0.001
0.001
0.001
0.001
0.001
0.001
0.001
0.001
0.001
0.001
0.001
0.001
0.001
0.001
0.001
0.001
0.001
0.001
0.001
0.001
0.001
0.001
0.001
0.001
0.001
0.001
0.001
0.001
0.001
0.001
0.001
0.001
0.001
0.001
0.001
0.001
0.001
0.001
0.001
0.001
0.001
0.001
0.001
0.001
0.001
0.001
0.001
0.001
0.001
0.001
0.001
0.001
0.001
0.001
0.001
0.001
0.001
0.001
0.001
0.001
0.001
0.001
0.001
0.001
0.001
0.001
0.001
0.001
0.001
0.001
0.001
0.001
0.001
0.001
0.001
0.001
0.001
0.001
0.001
0.001
0.001
0.001
0.001
0.001
0.001
0.001
0.001
0.001
0.001
0.001
0.001
0.001
0.001
0.001
0.001
0.001
0.001
0.001
0.001
0.001
0.001
0.001
0.001
0.001
0.001
0.001
0.001
0.001
0.001
0.001
0.001
0.001
0.001
0.001
0.001
0.001
0.001
0.001
0.001
0.001
0.001
0.001
0.001
0.001
0.001
0.001
0.001
0.001
0.001
0.001
0.001
0.001
0.001
0.001
0.001
0.001
0.001
0.001
0.001
0.001
0.001
0.001
0.001
0.001
0.001
0.001
0.001
0.001
0.001
0.001
0.001
0.001
0.001
0.001
0.001
0.001
0.001
0.001
0.001
0.001
0.001
0.001
0.001
0.001
0.001
0.001
0.001
0.001
0.001
0.001
0.001
0.001
0.001
0.001
0.001
0.001
0.001
0.001
0.001
0.001
0.001
0.001
0.001
0.001
0.001
0.001
0.001
0.001
0.001
0.001
0.001
0.001
0.001
0.001
0.001
0.001
0.001
0.001
0.001
0.001
0.001
0.001
0.001
0.001
0.001
0.001
0.001
0.001
0.001
0.001
0.001
0.001
0.001
0.001
0.001
0.001
0.001
0.001
0.001
0.001
0.001
0.001
0.001
0.001
0.001
0.001
0.001
0.001
0.001
0.001
0.001
0.001
0.001
0.001
0.001
0.001
0.001
0.001
0.001
0.001
0.001
0.001
0.001
0.001
0.001
0.001
0.001
0.001
0.001
0.001
0.001
0.001
0.001
0.001
0.001
0.001
0.001
0.00099858
0.000983541
0.000993478
0.001
0.001
0.001
0.001
0.001
0.001
0.001
0.001
0.001
0.001
0.001
0.001
0.001
0.001
0.001
0.001
0.001
0.001
0.001
0.001
0.001
0.001
0.001
0.001
0.001
0.001
0.001
0.001
0.001
0.001
0.001
0.001
0.001
0.001
0.001
0.001
0.001
0.001
0.001
0.001
0.001
0.001
0.001
0.001
0.001
0.000991073
0.000974613
0.000981488
0.000992182
0.000999272
0.001
0.001
0.001
0.001
0.001
0.001
0.001
0.001
0.001
0.001
0.001
0.001
0.001
0.001
0.001
0.001
0.001
0.001
0.001
0.001
0.001
0.001
0.001
0.001
0.001
0.001
0.001
0.001
0.001
0.001
0.001
0.001
0.001
0.001
0.001
0.001
0.001
0.001
0.001
0.001
0.000999704
0.000996353
0.000991618
0.000979929
0.000965459
0.000967721
0.00097916
0.000989571
0.000996469
0.001
0.001
0.001
0.001
0.001
0.001
0.001
0.001
0.001
0.001
0.001
0.001
0.001
0.001
0.001
0.001
0.001
0.001
0.001
0.001
0.001
0.001
0.001
0.001
0.001
0.001
0.001
0.001
0.001
0.001
0.001
0.001
0.001
0.001
0.001
0.001
0.001
0.000998392
0.000995171
0.000991085
0.000985582
0.000978526
0.000966303
0.000955193
0.000964139
0.000975678
0.000985476
0.000992544
0.000997204
0.001
0.001
0.001
0.001
0.001
0.001
0.001
0.001
0.001
0.001
0.001
0.001
0.001
0.001
0.001
0.001
0.001
0.001
0.001
0.001
0.001
0.001
0.001
0.001
0.001
0.001
0.001
0.001
0.001
0.001
0.001
0.001
0.000999349
0.000996646
0.000993343
0.000989182
0.000984086
0.000978052
0.000971178
0.000963145
0.000951039
0.000944167
0.000948905
0.000960174
0.000970998
0.000979927
0.00098701
0.000992268
0.000995966
0.000998765
0.001
0.001
0.001
0.001
0.001
0.001
0.001
0.001
0.001
0.001
0.001
0.001
0.001
0.001
0.001
0.001
0.001
0.001
0.001
0.001
0.001
0.001
0.001
0.001
0.001
0.001
0.000999446
0.000997106
0.000994286
0.000990833
0.000986521
0.000981513
0.000975922
0.000969691
0.000962667
0.000955021
0.000946654
0.000934783
0.000934171
0.000944438
0.0009552
0.000964857
0.000973099
0.000979814
0.000985398
0.000989861
0.000993329
0.000995996
0.000998191
0.000999969
0.001
0.001
0.001
0.001
0.001
0.001
0.001
0.001
0.001
0.001
0.001
0.001
0.001
0.001
0.001
0.001
0.001
0.001
0.001
0.00099848
0.000996425
0.000994004
0.000991034
0.000987309
0.000982998
0.000978122
0.000972806
0.000966899
0.000960511
0.000953607
0.000946084
0.000938069
0.000929636
0.000917992
0.000920886
0.000929035
0.000939096
0.000948778
0.000957458
0.000964939