/*--------------------------------*- C++ -*----------------------------------*\
  =========                 |
  \\      /  F ield         | OpenFOAM: The Open Source CFD Toolbox
   \\    /   O peration     | Website:  https://openfoam.org
    \\  /    A nd           | Version:  7
     \\/     M anipulation  |
\*---------------------------------------------------------------------------*/
FoamFile
{
    version     2.0;
    format      ascii;
    class       volScalarField;
    location    "228000";
    object      nu;
}
// * * * * * * * * * * * * * * * * * * * * * * * * * * * * * * * * * * * * * //

dimensions      [0 2 -1 0 0 0 0];

internalField   nonuniform List<scalar> 
4838
(
6.70223e-05
7.07716e-05
7.37079e-05
7.78583e-05
8.30158e-05
8.91765e-05
9.6464e-05
0.000105095
0.000115376
0.000127705
0.000142569
0.000160515
0.000182087
0.000207723
0.000237623
0.000271603
0.000309005
0.00034872
0.000389013
0.000427913
0.000463582
0.000494524
0.000519044
0.000535916
0.000544495
0.000544495
0.000535916
0.000519044
0.000494524
0.000463582
0.000427913
0.000389013
0.00034872
0.000309005
0.000271603
0.000237623
0.000207723
0.000182087
0.000160515
0.000142569
0.000127705
0.000115375
0.000105095
9.64639e-05
8.91764e-05
8.30157e-05
7.78583e-05
7.37078e-05
7.07715e-05
6.70222e-05
5.1644e-05
5.89661e-05
6.15262e-05
6.46247e-05
6.8371e-05
7.27905e-05
7.79187e-05
8.38221e-05
9.0602e-05
9.8394e-05
0.000107364
0.000117701
0.000129592
0.000143197
0.000158596
0.000175744
0.000194419
0.000214194
0.000234428
0.000254293
0.000272868
0.000289231
0.00030246
0.000311751
0.00031654
0.00031654
0.000311751
0.000302459
0.000289231
0.000272868
0.000254292
0.000234428
0.000214194
0.000194419
0.000175744
0.000158596
0.000143197
0.000129592
0.000117701
0.000107364
9.83939e-05
9.0602e-05
8.3822e-05
7.79186e-05
7.27904e-05
6.8371e-05
6.46246e-05
6.15261e-05
5.89661e-05
5.16439e-05
4.50692e-05
5.19671e-05
5.46323e-05
5.73044e-05
6.02054e-05
6.34555e-05
6.71184e-05
7.12365e-05
7.58495e-05
8.10019e-05
8.67451e-05
9.31341e-05
0.000100222
0.000108046
0.000116615
0.000125886
0.000135747
0.000146
0.000156361
0.00016646
0.000175867
0.000184127
0.000190796
0.000195486
0.000197907
0.000197907
0.000195486
0.000190796
0.000184127
0.000175867
0.00016646
0.000156361
0.000146
0.000135747
0.000125886
0.000116615
0.000108046
0.000100222
9.3134e-05
8.6745e-05
8.10019e-05
7.58494e-05
7.12364e-05
6.71183e-05
6.34554e-05
6.02053e-05
5.73043e-05
5.46323e-05
5.19671e-05
4.50691e-05
4.1013e-05
4.65415e-05
4.8944e-05
5.13364e-05
5.37889e-05
5.63852e-05
5.91897e-05
6.22445e-05
6.55772e-05
6.92068e-05
7.31478e-05
7.74105e-05
8.20001e-05
8.69127e-05
9.21292e-05
9.76086e-05
0.00010328
0.000109038
0.000114738
0.000120201
0.000125224
0.000129587
0.000133081
0.000135525
0.000136783
0.000136783
0.000135525
0.000133081
0.000129587
0.000125224
0.000120201
0.000114737
0.000109037
0.00010328
9.76085e-05
9.21291e-05
8.69126e-05
8.20001e-05
7.74104e-05
7.31477e-05
6.92068e-05
6.55772e-05
6.22445e-05
5.91896e-05
5.63852e-05
5.37888e-05
5.13364e-05
4.89439e-05
4.65414e-05
4.10129e-05
3.78826e-05
4.23357e-05
4.43287e-05
4.63795e-05
4.84769e-05
5.06433e-05
5.29114e-05
5.53101e-05
5.78596e-05
6.05714e-05
6.34498e-05
6.64928e-05
6.9692e-05
7.30324e-05
7.64898e-05
8.00293e-05
8.36022e-05
8.71446e-05
9.05768e-05
9.38048e-05
9.67243e-05
9.92274e-05
0.000101212
0.000102589
0.000103295
0.000103295
0.000102589
0.000101212
9.92274e-05
9.67243e-05
9.38048e-05
9.05768e-05
8.71446e-05
8.36021e-05
8.00292e-05
7.64898e-05
7.30323e-05
6.9692e-05
6.64927e-05
6.34498e-05
6.05713e-05
5.78595e-05
5.531e-05
5.29114e-05
5.06433e-05
4.84769e-05
4.63794e-05
4.43286e-05
4.23356e-05
3.78825e-05
3.52916e-05
3.89633e-05
4.06032e-05
4.23193e-05
4.40926e-05
4.5918e-05
4.78027e-05
4.97581e-05
5.17947e-05
5.39185e-05
5.61301e-05
5.84248e-05
6.07924e-05
6.32173e-05
6.56781e-05
6.81471e-05
7.05898e-05
7.29646e-05
7.52231e-05
7.73112e-05
7.91715e-05
8.07465e-05
8.19824e-05
8.28341e-05
8.32685e-05
8.32685e-05
8.2834e-05
8.19824e-05
8.07465e-05
7.91715e-05
7.73112e-05
7.52231e-05
7.29646e-05
7.05898e-05
6.81471e-05
6.56781e-05
6.32172e-05
6.07923e-05
5.84247e-05
5.61301e-05
5.39185e-05
5.17947e-05
4.97581e-05
4.78026e-05
4.5918e-05
4.40925e-05
4.23193e-05
4.06031e-05
3.89633e-05
3.52915e-05
3.30889e-05
3.6172e-05
3.75427e-05
3.89804e-05
4.04739e-05
4.20144e-05
4.35981e-05
4.52256e-05
4.68988e-05
4.86188e-05
5.03835e-05
5.21877e-05
5.4022e-05
5.58731e-05
5.7724e-05
5.95534e-05
6.13363e-05
6.30442e-05
6.46455e-05
6.61064e-05
6.73925e-05
6.84702e-05
6.93089e-05
6.98833e-05
7.01752e-05
7.01752e-05
6.98833e-05
6.93089e-05
6.84702e-05
6.73925e-05
6.61064e-05
6.46454e-05
6.30441e-05
6.13362e-05
5.95533e-05
5.7724e-05
5.58731e-05
5.40219e-05
5.21876e-05
5.03835e-05
4.86187e-05
4.68988e-05
4.52255e-05
4.35981e-05
4.20143e-05
4.04739e-05
3.89803e-05
3.75426e-05
3.6172e-05
3.30888e-05
3.11845e-05
3.38086e-05
3.49748e-05
3.61934e-05
3.74591e-05
3.87651e-05
4.01057e-05
4.1477e-05
4.28764e-05
4.43013e-05
4.57478e-05
4.72103e-05
4.86806e-05
5.01477e-05
5.15981e-05
5.30158e-05
5.43824e-05
5.56775e-05
5.68793e-05
5.79652e-05
5.89128e-05
5.97009e-05
6.03105e-05
6.07261e-05
6.09367e-05
6.09367e-05
6.0726e-05
6.03105e-05
5.97009e-05
5.89128e-05
5.79652e-05
5.68792e-05
5.56775e-05
5.43824e-05
5.30158e-05
5.15981e-05
5.01476e-05
4.86805e-05
4.72103e-05
4.57478e-05
4.43012e-05
4.28764e-05
4.1477e-05
4.01057e-05
3.87651e-05
3.74591e-05
3.61934e-05
3.49748e-05
3.38085e-05
3.11845e-05
2.95166e-05
3.1774e-05
3.27812e-05
3.38283e-05
3.49123e-05
3.6029e-05
3.71731e-05
3.834e-05
3.95253e-05
4.07248e-05
4.19335e-05
4.31458e-05
4.43542e-05
4.55496e-05
4.67214e-05
4.78571e-05
4.89429e-05
4.99638e-05
5.0904e-05
5.17477e-05
5.24794e-05
5.30846e-05
5.35506e-05
5.38674e-05
5.40276e-05
5.40276e-05
5.38674e-05
5.35506e-05
5.30846e-05
5.24794e-05
5.17477e-05
5.0904e-05
4.99638e-05
4.89429e-05
4.78571e-05
4.67214e-05
4.55496e-05
4.43541e-05
4.31458e-05
4.19335e-05
4.07247e-05
3.95253e-05
3.834e-05
3.71731e-05
3.60289e-05
3.49123e-05
3.38282e-05
3.27811e-05
3.1774e-05
2.95165e-05
2.80403e-05
3e-05
3.08802e-05
3.1791e-05
3.27302e-05
3.36946e-05
3.46803e-05
3.56828e-05
3.66976e-05
3.77201e-05
3.8745e-05
3.97669e-05
4.0779e-05
4.17738e-05
4.27425e-05
4.36752e-05
4.45614e-05
4.53895e-05
4.6148e-05
4.68251e-05
4.74095e-05
4.78911e-05
4.82607e-05
4.85113e-05
4.86379e-05
4.86379e-05
4.85113e-05
4.82607e-05
4.7891e-05
4.74095e-05
4.6825e-05
4.6148e-05
4.53895e-05
4.45614e-05
4.36752e-05
4.27425e-05
4.17738e-05
4.0779e-05
3.97669e-05
3.8745e-05
3.772e-05
3.66976e-05
3.56828e-05
3.46803e-05
3.36946e-05
3.27302e-05
3.1791e-05
3.08802e-05
2.99999e-05
2.80403e-05
2.67221e-05
2.84367e-05
2.92137e-05
3.00143e-05
3.08365e-05
3.1678e-05
3.25354e-05
3.34049e-05
3.42824e-05
3.51634e-05
3.6043e-05
3.69161e-05
3.77766e-05
3.86181e-05
3.94333e-05
4.02142e-05
4.09525e-05
4.16392e-05
4.22654e-05
4.28222e-05
4.33011e-05
4.36945e-05
4.39957e-05
4.41996e-05
4.43025e-05
4.43025e-05
4.41996e-05
4.39957e-05
4.36945e-05
4.33011e-05
4.28221e-05
4.22654e-05
4.16392e-05
4.09525e-05
4.02142e-05
3.94332e-05
3.86181e-05
3.77766e-05
3.6916e-05
3.6043e-05
3.51634e-05
3.42824e-05
3.34049e-05
3.25353e-05
3.1678e-05
3.08365e-05
3.00142e-05
2.92137e-05
2.84367e-05
2.67221e-05
2.55362e-05
2.70468e-05
2.77385e-05
2.84485e-05
2.91751e-05
2.99161e-05
3.06689e-05
3.143e-05
3.21958e-05
3.29624e-05
3.37252e-05
3.44796e-05
3.52202e-05
3.59416e-05
3.66376e-05
3.73017e-05
3.79269e-05
3.85064e-05
3.90328e-05
3.94995e-05
3.98997e-05
4.02277e-05
4.04785e-05
4.06479e-05
4.07333e-05
4.07333e-05
4.06479e-05
4.04785e-05
4.02277e-05
3.98997e-05
3.94995e-05
3.90328e-05
3.85063e-05
3.79269e-05
3.73017e-05
3.66376e-05
3.59416e-05
3.52202e-05
3.44795e-05
3.37252e-05
3.29623e-05
3.21958e-05
3.14299e-05
3.06688e-05
2.99161e-05
2.91751e-05
2.84485e-05
2.77385e-05
2.70468e-05
2.55362e-05
2.44624e-05
2.58016e-05
2.64218e-05
2.70564e-05
2.77037e-05
2.83618e-05
2.90282e-05
2.97001e-05
3.03743e-05
3.10472e-05
3.1715e-05
3.23732e-05
3.30175e-05
3.36429e-05
3.42443e-05
3.48162e-05
3.5353e-05
3.58488e-05
3.62981e-05
3.66953e-05
3.70352e-05
3.73132e-05
3.75254e-05
3.76686e-05
3.77408e-05
3.77408e-05
3.76686e-05
3.75254e-05
3.73132e-05
3.70352e-05
3.66953e-05
3.62981e-05
3.58488e-05
3.5353e-05
3.48162e-05
3.42443e-05
3.36429e-05
3.30175e-05
3.23732e-05
3.17149e-05
3.10472e-05
3.03743e-05
2.97001e-05
2.90282e-05
2.83618e-05
2.77037e-05
2.70564e-05
2.64218e-05
2.58015e-05
2.44624e-05
2.34844e-05
2.46783e-05
2.52381e-05
2.58092e-05
2.639e-05
2.69787e-05
2.75732e-05
2.8171e-05
2.87693e-05
2.93648e-05
2.99542e-05
3.05337e-05
3.10993e-05
3.16468e-05
3.21719e-05
3.26697e-05
3.31358e-05
3.35652e-05
3.39534e-05
3.42958e-05
3.45882e-05
3.48271e-05
3.50091e-05
3.51319e-05
3.51937e-05
3.51937e-05
3.51319e-05
3.50091e-05
3.48271e-05
3.45882e-05
3.42958e-05
3.39533e-05
3.35652e-05
3.31358e-05
3.26697e-05
3.21718e-05
3.16468e-05
3.10993e-05
3.05337e-05
2.99542e-05
2.93648e-05
2.87692e-05
2.8171e-05
2.75732e-05
2.69787e-05
2.63899e-05
2.58091e-05
2.52381e-05
2.46783e-05
2.34844e-05
2.25891e-05
2.3659e-05
2.41671e-05
2.46842e-05
2.52086e-05
2.57388e-05
2.62728e-05
2.68084e-05
2.73431e-05
2.7874e-05
2.83982e-05
2.89124e-05
2.9413e-05
2.98965e-05
3.0359e-05
3.07965e-05
3.12051e-05
3.15808e-05
3.19197e-05
3.22182e-05
3.24727e-05
3.26802e-05
3.28382e-05
3.29447e-05
3.29983e-05
3.29983e-05
3.29447e-05
3.28382e-05
3.26802e-05
3.24726e-05
3.22182e-05
3.19197e-05
3.15808e-05
3.12051e-05
3.07965e-05
3.0359e-05
2.98965e-05
2.9413e-05
2.89124e-05
2.83982e-05
2.7874e-05
2.7343e-05
2.68084e-05
2.62728e-05
2.57387e-05
2.52086e-05
2.46841e-05
2.41671e-05
2.3659e-05
2.25891e-05
2.17657e-05
2.2729e-05
2.31926e-05
2.36633e-05
2.41395e-05
2.46198e-05
2.51024e-05
2.55853e-05
2.60663e-05
2.65429e-05
2.70123e-05
2.74718e-05
2.79182e-05
2.83484e-05
2.8759e-05
2.91467e-05
2.9508e-05
2.98396e-05
3.01383e-05
3.04008e-05
3.06244e-05
3.08065e-05
3.09451e-05
3.10384e-05
3.10853e-05
3.10853e-05
3.10384e-05
3.0945e-05
3.08065e-05
3.06244e-05
3.04008e-05
3.01382e-05
2.98396e-05
2.9508e-05
2.91466e-05
2.8759e-05
2.83483e-05
2.79182e-05
2.74717e-05
2.70123e-05
2.65428e-05
2.60663e-05
2.55853e-05
2.51024e-05
2.46198e-05
2.41395e-05
2.36632e-05
2.31926e-05
2.2729e-05
2.17657e-05
2.10052e-05
2.18763e-05
2.23014e-05
2.27319e-05
2.31665e-05
2.3604e-05
2.40425e-05
2.44804e-05
2.49157e-05
2.5346e-05
2.57691e-05
2.61823e-05
2.6583e-05
2.69684e-05
2.73356e-05
2.76816e-05
2.80036e-05
2.82986e-05
2.85638e-05
2.87967e-05
2.89948e-05
2.9156e-05
2.92785e-05
2.9361e-05
2.94025e-05
2.94025e-05
2.9361e-05
2.92785e-05
2.9156e-05
2.89948e-05
2.87967e-05
2.85638e-05
2.82986e-05
2.80035e-05
2.76816e-05
2.73355e-05
2.69684e-05
2.6583e-05
2.61823e-05
2.5769e-05
2.5346e-05
2.49157e-05
2.44804e-05
2.40425e-05
2.36039e-05
2.31665e-05
2.27318e-05
2.23013e-05
2.18763e-05
2.10052e-05
2.03002e-05
2.10911e-05
2.14824e-05
2.18779e-05
2.22765e-05
2.26768e-05
2.30774e-05
2.34766e-05
2.38725e-05
2.42633e-05
2.46467e-05
2.50205e-05
2.53823e-05
2.57297e-05
2.60601e-05
2.63711e-05
2.66599e-05
2.69241e-05
2.71614e-05
2.73695e-05
2.75464e-05
2.76901e-05
2.77993e-05
2.78728e-05
2.79097e-05
2.79097e-05
2.78728e-05
2.77993e-05
2.76901e-05
2.75463e-05
2.73695e-05
2.71614e-05
2.69241e-05
2.66599e-05
2.6371e-05
2.60601e-05
2.57297e-05
2.53823e-05
2.50205e-05
2.46466e-05
2.42632e-05
2.38725e-05
2.34765e-05
2.30774e-05
2.26768e-05
2.22765e-05
2.18779e-05
2.14824e-05
2.1091e-05
2.03001e-05
1.96442e-05
2.0365e-05
2.07267e-05
2.10916e-05
2.14586e-05
2.18266e-05
2.21941e-05
2.25597e-05
2.29216e-05
2.32782e-05
2.36275e-05
2.39675e-05
2.4296e-05
2.46109e-05
2.491e-05
2.5191e-05
2.54517e-05
2.56899e-05
2.59035e-05
2.60907e-05
2.62496e-05
2.63787e-05
2.64766e-05
2.65425e-05
2.65756e-05
2.65756e-05
2.65425e-05
2.64766e-05
2.63786e-05
2.62496e-05
2.60907e-05
2.59035e-05
2.56899e-05
2.54517e-05
2.5191e-05
2.491e-05
2.46109e-05
2.4296e-05
2.39674e-05
2.36275e-05
2.32782e-05
2.29216e-05
2.25597e-05
2.21941e-05
2.18266e-05
2.14586e-05
2.10916e-05
2.07266e-05
2.03649e-05
1.96442e-05
2.00266e-05
2.03645e-05
2.07038e-05
2.10434e-05
2.1382e-05
2.17183e-05
2.20506e-05
2.23775e-05
2.26972e-05
2.30079e-05
2.33077e-05
2.35946e-05
2.38668e-05
2.41221e-05
2.43587e-05
2.45746e-05
2.47681e-05
2.49374e-05
2.5081e-05
2.51976e-05
2.52861e-05
2.53455e-05
2.53754e-05
2.53754e-05
2.53455e-05
2.52861e-05
2.51976e-05
2.5081e-05
2.49374e-05
2.47681e-05
2.45746e-05
2.43587e-05
2.41221e-05
2.38668e-05
2.35946e-05
2.33077e-05
2.30079e-05
2.26972e-05
2.23775e-05
2.20506e-05
2.17183e-05
2.1382e-05
2.10434e-05
2.07038e-05
2.03645e-05
2.00266e-05
1.96911e-05
1.90319e-05
1.96898e-05
2.00046e-05
2.03191e-05
2.06323e-05
2.09428e-05
2.12492e-05
2.15502e-05
2.18441e-05
2.21292e-05
2.2404e-05
2.26667e-05
2.29155e-05
2.31487e-05
2.33645e-05
2.35612e-05
2.37373e-05
2.38913e-05
2.40218e-05
2.41277e-05
2.4208e-05
2.4262e-05
2.42891e-05
2.42891e-05
2.4262e-05
2.4208e-05
2.41277e-05
2.40218e-05
2.38913e-05
2.37373e-05
2.35612e-05
2.33645e-05
2.31487e-05
2.29155e-05
2.26667e-05
2.2404e-05
2.21292e-05
2.1844e-05
2.15502e-05
2.12492e-05
2.09428e-05
2.06323e-05
2.03191e-05
2.00046e-05
1.96897e-05
1.93757e-05
1.90635e-05
1.84588e-05
1.96468e-05
1.99375e-05
2.02252e-05
2.05088e-05
2.07869e-05
2.10582e-05
2.1321e-05
2.1574e-05
2.18155e-05
2.20439e-05
2.22578e-05
2.24555e-05
2.26356e-05
2.27967e-05
2.29374e-05
2.30566e-05
2.31533e-05
2.32266e-05
2.32758e-05
2.33005e-05
2.33005e-05
2.32758e-05
2.32265e-05
2.31533e-05
2.30566e-05
2.29374e-05
2.27967e-05
2.26356e-05
2.24555e-05
2.22578e-05
2.20439e-05
2.18155e-05
2.1574e-05
2.1321e-05
2.10581e-05
2.07869e-05
2.05088e-05
2.02252e-05
1.99374e-05
1.96468e-05
1.93544e-05
1.90614e-05
1.87687e-05
1.84772e-05
1.79207e-05
1.92912e-05
1.95588e-05
1.98222e-05
2.00801e-05
2.03314e-05
2.05746e-05
2.08083e-05
2.10312e-05
2.12418e-05
2.14388e-05
2.16208e-05
2.17863e-05
2.19343e-05
2.20635e-05
2.21728e-05
2.22614e-05
2.23286e-05
2.23737e-05
2.23963e-05
2.23963e-05
2.23737e-05
2.23286e-05
2.22614e-05
2.21728e-05
2.20635e-05
2.19343e-05
2.17863e-05
2.16208e-05
2.14388e-05
2.12418e-05
2.10312e-05
2.08083e-05
2.05745e-05
2.03314e-05
2.00801e-05
1.98222e-05
1.95588e-05
1.92912e-05
1.90206e-05
1.8748e-05
1.84744e-05
1.82007e-05
1.79279e-05
1.74143e-05
1.89378e-05
1.91832e-05
1.94232e-05
1.96568e-05
1.98825e-05
2.00993e-05
2.03058e-05
2.05007e-05
2.06828e-05
2.08509e-05
2.10037e-05
2.11401e-05
2.12592e-05
2.13599e-05
2.14415e-05
2.15033e-05
2.15448e-05
2.15657e-05
2.15657e-05
2.15448e-05
2.15033e-05
2.14415e-05
2.13599e-05
2.12592e-05
2.11401e-05
2.10037e-05
2.08509e-05
2.06828e-05
2.05007e-05
2.03057e-05
2.00993e-05
1.98825e-05
1.96567e-05
1.94232e-05
1.91832e-05
1.89378e-05
1.86882e-05
1.84355e-05
1.81805e-05
1.79244e-05
1.76679e-05
1.74118e-05
1.69365e-05
1.88107e-05
1.90284e-05
1.92387e-05
1.94404e-05
1.96323e-05
1.98133e-05
1.99823e-05
2.01381e-05
2.02796e-05
2.04059e-05
2.05161e-05
2.06092e-05
2.06846e-05
2.07417e-05
2.07801e-05
2.07993e-05
2.07993e-05
2.07801e-05
2.07417e-05
2.06846e-05
2.06092e-05
2.05161e-05
2.04059e-05
2.02796e-05
2.01381e-05
1.99823e-05
1.98133e-05
1.96323e-05
1.94404e-05
1.92387e-05
1.90284e-05
1.88107e-05
1.85867e-05
1.83574e-05
1.81239e-05
1.78872e-05
1.76482e-05
1.74077e-05
1.71666e-05
1.69256e-05
1.64847e-05
1.84414e-05
1.86378e-05
1.8826e-05
1.9005e-05
1.91736e-05
1.93309e-05
1.94758e-05
1.96073e-05
1.97247e-05
1.98269e-05
1.99133e-05
1.99833e-05
2.00362e-05
2.00717e-05
2.00896e-05
2.00896e-05
2.00717e-05
2.00362e-05
1.99833e-05
1.99133e-05
1.98269e-05
1.97247e-05
1.96073e-05
1.94758e-05
1.93309e-05
1.91736e-05
1.9005e-05
1.8826e-05
1.86378e-05
1.84414e-05
1.82378e-05
1.80281e-05
1.78133e-05
1.75943e-05
1.7372e-05
1.71473e-05
1.6921e-05
1.66939e-05
1.64667e-05
1.60566e-05
1.85763e-05
1.87232e-05
1.88584e-05
1.8981e-05
1.90903e-05
1.91856e-05
1.9266e-05
1.93311e-05
1.93803e-05
1.94134e-05
1.943e-05
1.943e-05
1.94134e-05
1.93803e-05
1.93311e-05
1.9266e-05
1.91855e-05
1.90903e-05
1.8981e-05
1.88583e-05
1.87232e-05
1.85763e-05
1.84188e-05
1.82515e-05
1.80753e-05
1.78913e-05
1.77005e-05
1.75037e-05
1.73019e-05
1.70959e-05
1.68867e-05
1.6675e-05
1.64616e-05
1.62471e-05
1.60324e-05
1.56502e-05
1.84979e-05
1.85868e-05
1.86619e-05
1.87227e-05
1.87686e-05
1.87994e-05
1.88149e-05
1.88149e-05
1.87994e-05
1.87686e-05
1.87226e-05
1.86619e-05
1.85868e-05
1.84979e-05
1.83957e-05
1.8281e-05
1.81545e-05
1.80171e-05
1.78695e-05
1.77126e-05
1.75473e-05
1.73745e-05
1.71951e-05
1.701e-05
1.682e-05
1.66258e-05
1.64285e-05
1.62285e-05
1.60268e-05
1.58239e-05
1.56206e-05
1.52635e-05
1.80965e-05
1.81533e-05
1.81963e-05
1.82252e-05
1.82396e-05
1.82396e-05
1.82252e-05
1.81963e-05
1.81533e-05
1.80965e-05
1.80262e-05
1.79429e-05
1.78471e-05
1.77396e-05
1.7621e-05
1.74919e-05
1.73533e-05
1.72058e-05
1.70504e-05
1.68877e-05
1.67187e-05
1.65441e-05
1.63648e-05
1.61814e-05
1.59948e-05
1.58056e-05
1.56146e-05
1.54223e-05
1.52293e-05
1.48951e-05
1.77001e-05
1.77001e-05
1.76865e-05
1.76595e-05
1.76191e-05
1.75658e-05
1.74998e-05
1.74215e-05
1.73316e-05
1.72306e-05
1.7119e-05
1.69976e-05
1.68671e-05
1.67281e-05
1.65816e-05
1.64281e-05
1.62685e-05
1.61035e-05
1.59339e-05
1.57604e-05
1.55836e-05
1.54042e-05
1.5223e-05
1.50403e-05
1.48569e-05
1.45435e-05
1.70664e-05
1.70043e-05
1.69306e-05
1.68459e-05
1.67507e-05
1.66456e-05
1.65311e-05
1.64079e-05
1.62767e-05
1.61383e-05
1.59932e-05
1.58422e-05
1.56859e-05
1.55252e-05
1.53607e-05
1.51929e-05
1.50225e-05
1.48502e-05
1.46765e-05
1.45019e-05
1.42074e-05
1.63873e-05
1.62974e-05
1.61981e-05
1.60899e-05
1.59734e-05
1.58493e-05
1.57182e-05
1.55807e-05
1.54376e-05
1.52894e-05
1.51368e-05
1.49805e-05
1.4821e-05
1.46589e-05
1.44948e-05
1.43293e-05
1.41628e-05
1.38857e-05
1.57742e-05
1.56717e-05
1.55614e-05
1.54437e-05
1.53194e-05
1.51889e-05
1.5053e-05
1.49121e-05
1.4767e-05
1.46182e-05
1.44663e-05
1.43119e-05
1.41554e-05
1.39975e-05
1.38385e-05
1.35772e-05
1.53718e-05
1.52746e-05
1.51699e-05
1.50582e-05
1.494e-05
1.48159e-05
1.46866e-05
1.45525e-05
1.44143e-05
1.42725e-05
1.41276e-05
1.39802e-05
1.38308e-05
1.36799e-05
1.35278e-05
1.32811e-05
1.49892e-05
1.48968e-05
1.47972e-05
1.46909e-05
1.45785e-05
1.44603e-05
1.43371e-05
1.42093e-05
1.40774e-05
1.3942e-05
1.38037e-05
1.36628e-05
1.35199e-05
1.33754e-05
1.32299e-05
1.29965e-05
1.43406e-05
1.42334e-05
1.41207e-05
1.40031e-05
1.3881e-05
1.37551e-05
1.36257e-05
1.34933e-05
1.33585e-05
1.32216e-05
1.30832e-05
1.29437e-05
1.27226e-05
1.34462e-05
1.33223e-05
1.31956e-05
1.30664e-05
1.29352e-05
1.28024e-05
1.26684e-05
1.24587e-05
1.27856e-05
1.26597e-05
1.25322e-05
1.24034e-05
1.22043e-05
0.000519043
0.000535914
0.000544494
0.000544494
0.000535915
0.000519043
0.000494524
0.000463581
0.000427913
0.000389013
0.00034872
0.000309005
0.000271603
0.000237623
0.000207723
0.000182087
0.000160515
0.000142569
0.000127705
0.000115376
0.000105095
9.6464e-05
8.91765e-05
8.30158e-05
7.78583e-05
7.37079e-05
7.07716e-05
6.70223e-05
0.000302459
0.00031175
0.00031654
0.00031654
0.00031175
0.000302459
0.000289231
0.000272867
0.000254292
0.000234428
0.000214194
0.000194419
0.000175744
0.000158596
0.000143197
0.000129592
0.000117701
0.000107364
9.8394e-05
9.06021e-05
8.38221e-05
7.79187e-05
7.27905e-05
6.83711e-05
6.46247e-05
6.15262e-05
5.89661e-05
5.1644e-05
0.000190795
0.000195485
0.000197907
0.000197907
0.000195485
0.000190796
0.000184127
0.000175867
0.00016646
0.000156361
0.000146
0.000135747
0.000125886
0.000116615
0.000108046
0.000100222
9.31341e-05
8.67451e-05
8.10019e-05
7.58495e-05
7.12365e-05
6.71184e-05
6.34555e-05
6.02054e-05
5.73044e-05
5.46323e-05
5.19671e-05
4.50692e-05
0.000133081
0.000135525
0.000136783
0.000136783
0.000135525
0.000133081
0.000129587
0.000125224
0.000120201
0.000114738
0.000109038
0.00010328
9.76086e-05
9.21292e-05
8.69127e-05
8.20001e-05
7.74105e-05
7.31478e-05
6.92069e-05
6.55772e-05
6.22445e-05
5.91897e-05
5.63853e-05
5.37889e-05
5.13364e-05
4.8944e-05
4.65415e-05
4.1013e-05
0.000101212
0.000102589
0.000103295
0.000103295
0.000102589
0.000101212
9.92274e-05
9.67243e-05
9.38048e-05
9.05768e-05
8.71446e-05
8.36022e-05
8.00293e-05
7.64898e-05
7.30324e-05
6.96921e-05
6.64928e-05
6.34498e-05
6.05714e-05
5.78596e-05
5.53101e-05
5.29114e-05
5.06433e-05
4.84769e-05
4.63795e-05
4.43287e-05
4.23357e-05
3.78826e-05
8.19824e-05
8.2834e-05
8.32685e-05
8.32685e-05
8.2834e-05
8.19824e-05
8.07465e-05
7.91716e-05
7.73112e-05
7.52231e-05
7.29647e-05
7.05899e-05
6.81471e-05
6.56781e-05
6.32173e-05
6.07924e-05
5.84248e-05
5.61301e-05
5.39185e-05
5.17948e-05
4.97582e-05
4.78027e-05
4.5918e-05
4.40926e-05
4.23194e-05
4.06032e-05
3.89633e-05
3.52916e-05
6.93088e-05
6.98833e-05
7.01752e-05
7.01752e-05
6.98833e-05
6.93089e-05
6.84702e-05
6.73925e-05
6.61065e-05
6.46455e-05
6.30442e-05
6.13363e-05
5.95534e-05
5.7724e-05
5.58732e-05
5.4022e-05
5.21877e-05
5.03835e-05
4.86188e-05
4.68989e-05
4.52256e-05
4.35981e-05
4.20144e-05
4.04739e-05
3.89804e-05
3.75427e-05
3.6172e-05
3.30889e-05
6.03104e-05
6.0726e-05
6.09367e-05
6.09367e-05
6.07261e-05
6.03105e-05
5.97009e-05
5.89129e-05
5.79652e-05
5.68793e-05
5.56775e-05
5.43824e-05
5.30159e-05
5.15982e-05
5.01477e-05
4.86806e-05
4.72103e-05
4.57478e-05
4.43013e-05
4.28765e-05
4.14771e-05
4.01057e-05
3.87651e-05
3.74591e-05
3.61935e-05
3.49748e-05
3.38086e-05
3.11845e-05
5.35506e-05
5.38674e-05
5.40276e-05
5.40276e-05
5.38674e-05
5.35507e-05
5.30846e-05
5.24794e-05
5.17478e-05
5.09041e-05
4.99638e-05
4.8943e-05
4.78572e-05
4.67215e-05
4.55497e-05
4.43542e-05
4.31458e-05
4.19336e-05
4.07248e-05
3.95254e-05
3.834e-05
3.71731e-05
3.6029e-05
3.49124e-05
3.38283e-05
3.27812e-05
3.1774e-05
2.95166e-05
4.82607e-05
4.85113e-05
4.86379e-05
4.8638e-05
4.85114e-05
4.82607e-05
4.78911e-05
4.74096e-05
4.68251e-05
4.6148e-05
4.53896e-05
4.45614e-05
4.36753e-05
4.27425e-05
4.17739e-05
4.07791e-05
3.97669e-05
3.87451e-05
3.77201e-05
3.66977e-05
3.56828e-05
3.46803e-05
3.36946e-05
3.27302e-05
3.1791e-05
3.08802e-05
3e-05
2.80403e-05
4.39957e-05
4.41996e-05
4.43025e-05
4.43025e-05
4.41997e-05
4.39958e-05
4.36945e-05
4.33011e-05
4.28222e-05
4.22654e-05
4.16393e-05
4.09525e-05
4.02143e-05
3.94333e-05
3.86181e-05
3.77766e-05
3.69161e-05
3.60431e-05
3.51634e-05
3.42824e-05
3.34049e-05
3.25354e-05
3.1678e-05
3.08365e-05
3.00143e-05
2.92137e-05
2.84367e-05
2.67221e-05
4.04785e-05
4.06479e-05
4.07334e-05
4.07334e-05
4.06479e-05
4.04785e-05
4.02278e-05
3.98998e-05
3.94995e-05
3.90329e-05
3.85064e-05
3.7927e-05
3.73017e-05
3.66377e-05
3.59417e-05
3.52203e-05
3.44796e-05
3.37252e-05
3.29624e-05
3.21958e-05
3.143e-05
3.06689e-05
2.99162e-05
2.91751e-05
2.84485e-05
2.77385e-05
2.70468e-05
2.55363e-05
3.75254e-05
3.76686e-05
3.77408e-05
3.77408e-05
3.76686e-05
3.75254e-05
3.73132e-05
3.70352e-05
3.66953e-05
3.62982e-05
3.58489e-05
3.5353e-05
3.48163e-05
3.42444e-05
3.3643e-05
3.30175e-05
3.23733e-05
3.1715e-05
3.10473e-05
3.03744e-05
2.97001e-05
2.90282e-05
2.83618e-05
2.77037e-05
2.70564e-05
2.64218e-05
2.58016e-05
2.44624e-05
3.50091e-05
3.51319e-05
3.51938e-05
3.51938e-05
3.51319e-05
3.50092e-05
3.48271e-05
3.45883e-05
3.42958e-05
3.39534e-05
3.35652e-05
3.31358e-05
3.26698e-05
3.21719e-05
3.16469e-05
3.10993e-05
3.05337e-05
2.99542e-05
2.93648e-05
2.87693e-05
2.8171e-05
2.75732e-05
2.69787e-05
2.639e-05
2.58092e-05
2.52381e-05
2.46783e-05
2.34844e-05
3.22182e-05
3.19198e-05
3.15809e-05
3.12052e-05
3.07966e-05
3.0359e-05
2.98965e-05
2.94131e-05
2.89124e-05
2.83982e-05
2.7874e-05
2.73431e-05
2.68084e-05
2.62728e-05
2.57388e-05
2.52086e-05
2.46842e-05
2.41671e-05
2.3659e-05
2.25891e-05
2.65429e-05
2.60663e-05
2.55853e-05
2.51024e-05
2.46198e-05
2.41395e-05
2.36633e-05
2.31926e-05
2.2729e-05
2.17657e-05
2.3604e-05
2.31665e-05
2.27319e-05
2.23014e-05
2.18763e-05
2.10052e-05
2.14824e-05
2.10911e-05
2.03002e-05
1.15996e-05
1.1369e-05
1.11458e-05
1.74919e-05
1.69976e-05
1.65311e-05
1.60899e-05
1.56717e-05
1.52746e-05
1.48968e-05
1.45367e-05
1.41929e-05
1.38642e-05
1.35495e-05
1.32476e-05
1.29578e-05
1.26791e-05
1.24109e-05
1.21524e-05
1.1903e-05
1.16622e-05
1.14293e-05
1.12041e-05
1.93308e-05
1.87231e-05
1.81545e-05
1.7621e-05
1.7119e-05
1.66456e-05
1.61981e-05
1.57742e-05
1.53718e-05
1.49892e-05
1.46247e-05
1.42768e-05
1.39443e-05
1.3626e-05
1.33209e-05
1.3028e-05
1.27466e-05
1.24757e-05
1.22147e-05
1.1963e-05
1.172e-05
1.14851e-05
1.12579e-05
1.94757e-05
1.88583e-05
1.8281e-05
1.77396e-05
1.72305e-05
1.67507e-05
1.62974e-05
1.58682e-05
1.5461e-05
1.50739e-05
1.47053e-05
1.43536e-05
1.40176e-05
1.36961e-05
1.3388e-05
1.30923e-05
1.28082e-05
1.25349e-05
1.22716e-05
1.20178e-05
1.17728e-05
1.1536e-05
1.13071e-05
1.96073e-05
1.8981e-05
1.83957e-05
1.78471e-05
1.73316e-05
1.68459e-05
1.63873e-05
1.59532e-05
1.55416e-05
1.51504e-05
1.47781e-05
1.4423e-05
1.40838e-05
1.37593e-05
1.34485e-05
1.31503e-05
1.28638e-05
1.25883e-05
1.2323e-05
1.20672e-05
1.18204e-05
1.15819e-05
1.13513e-05
1.97246e-05
1.90903e-05
1.84978e-05
1.79428e-05
1.74215e-05
1.69306e-05
1.64672e-05
1.60288e-05
1.56132e-05
1.52184e-05
1.48427e-05
1.44845e-05
1.41425e-05
1.38154e-05
1.35021e-05
1.32017e-05
1.29131e-05
1.26356e-05
1.23684e-05
1.21109e-05
1.18625e-05
1.16225e-05
1.13905e-05
7.7311e-05
6.61063e-05
5.79651e-05
5.17476e-05
4.6825e-05
4.28221e-05
3.94994e-05
3.66952e-05
3.42957e-05
3.22181e-05
3.04008e-05
2.87967e-05
2.73695e-05
2.60907e-05
2.49374e-05
2.38913e-05
2.29374e-05
2.20634e-05
2.12592e-05
2.05161e-05
1.98269e-05
1.91855e-05
1.85868e-05
1.80261e-05
1.74997e-05
1.70042e-05
1.65367e-05
1.60945e-05
1.56754e-05
1.52774e-05
1.48988e-05
1.45379e-05
1.41935e-05
1.38641e-05
1.35487e-05
1.32462e-05
1.29558e-05
1.26766e-05
1.24078e-05
1.21488e-05
1.1899e-05
1.16576e-05
1.14244e-05
7.91714e-05
6.73924e-05
5.89127e-05
5.24793e-05
4.74095e-05
4.3301e-05
3.98997e-05
3.70351e-05
3.45882e-05
3.24726e-05
3.06243e-05
2.89948e-05
2.75463e-05
2.62495e-05
2.5081e-05
2.40218e-05
2.30566e-05
2.21728e-05
2.13599e-05
2.06092e-05
1.99133e-05
1.9266e-05
1.86619e-05
1.80965e-05
1.75658e-05
1.70663e-05
1.65952e-05
1.61498e-05
1.57278e-05
1.53271e-05
1.49461e-05
1.45829e-05
1.42363e-05
1.3905e-05
1.35878e-05
1.32837e-05
1.29917e-05
1.27111e-05
1.24409e-05
1.21807e-05
1.19296e-05
1.16872e-05
1.14529e-05
8.07463e-05
6.84701e-05
5.97008e-05
5.30845e-05
4.7891e-05
4.36944e-05
4.02277e-05
3.73131e-05
3.4827e-05
3.26802e-05
3.08065e-05
2.9156e-05
2.76901e-05
2.63786e-05
2.51976e-05
2.41277e-05
2.31533e-05
2.22614e-05
2.14415e-05
2.06846e-05
1.99832e-05
1.93311e-05
1.87226e-05
1.81533e-05
1.76191e-05
1.71165e-05
1.66425e-05
1.61945e-05
1.57701e-05
1.53673e-05
1.49842e-05
1.46192e-05
1.42709e-05
1.39381e-05
1.36194e-05
1.33139e-05
1.30207e-05
1.27388e-05
1.24676e-05
1.22063e-05
1.19543e-05
1.1711e-05
1.14758e-05
0.000519042
0.000302458
0.000190795
0.000133081
0.000101211
8.19823e-05
6.93088e-05
6.03104e-05
5.35506e-05
4.82606e-05
4.39957e-05
4.04784e-05
3.75253e-05
3.50091e-05
3.28382e-05
3.0945e-05
2.92785e-05
2.77993e-05
2.64766e-05
2.5286e-05
2.4208e-05
2.32265e-05
2.23286e-05
2.15033e-05
2.07417e-05
2.00362e-05
1.93803e-05
1.87686e-05
1.81963e-05
1.76594e-05
1.71545e-05
1.66783e-05
1.62283e-05
1.58021e-05
1.53976e-05
1.5013e-05
1.46466e-05
1.42971e-05
1.3963e-05
1.36432e-05
1.33367e-05
1.30425e-05
1.27598e-05
1.24878e-05
1.22257e-05
1.1973e-05
1.17289e-05
1.14931e-05
0.000535914
0.00031175
0.000195485
0.000135525
0.000102589
8.28339e-05
6.98832e-05
6.0726e-05
5.38673e-05
4.85113e-05
4.41996e-05
4.06479e-05
3.76686e-05
3.51319e-05
3.29447e-05
3.10383e-05
2.9361e-05
2.78727e-05
2.65425e-05
2.53455e-05
2.4262e-05
2.32757e-05
2.23737e-05
2.15448e-05
2.078e-05
2.00717e-05
1.94133e-05
1.87994e-05
1.82251e-05
1.76865e-05
1.71799e-05
1.67023e-05
1.62509e-05
1.58235e-05
1.54179e-05
1.50323e-05
1.4665e-05
1.43146e-05
1.39797e-05
1.36592e-05
1.3352e-05
1.30572e-05
1.27739e-05
1.25013e-05
1.22387e-05
1.19854e-05
1.1741e-05
1.15047e-05
0.000544493
0.000316539
0.000197907
0.000136783
0.000103295
8.32684e-05
7.01751e-05
6.09366e-05
5.40275e-05
4.86379e-05
4.43025e-05
4.07333e-05
3.77407e-05
3.51937e-05
3.29983e-05
3.10853e-05
2.94025e-05
2.79097e-05
2.65756e-05
2.53754e-05
2.42891e-05
2.33005e-05
2.23963e-05
2.15656e-05
2.07993e-05
2.00895e-05
1.94299e-05
1.88149e-05
1.82396e-05
1.77001e-05
1.71926e-05
1.67143e-05
1.62623e-05
1.58343e-05
1.54281e-05
1.5042e-05
1.46742e-05
1.43233e-05
1.39881e-05
1.36672e-05
1.33596e-05
1.30645e-05
1.27809e-05
1.2508e-05
1.22452e-05
1.19917e-05
1.1747e-05
1.15105e-05
0.000544493
0.000316539
0.000197907
0.000136783
0.000103295
8.32684e-05
7.01751e-05
6.09366e-05
5.40275e-05
4.86379e-05
4.43025e-05
4.07333e-05
3.77407e-05
3.51937e-05
3.29983e-05
3.10853e-05
2.94025e-05
2.79097e-05
2.65756e-05
2.53754e-05
2.42891e-05
2.33005e-05
2.23963e-05
2.15656e-05
2.07993e-05
2.00895e-05
1.94299e-05
1.88149e-05
1.82396e-05
1.77001e-05
1.71926e-05
1.67143e-05
1.62623e-05
1.58343e-05
1.54281e-05
1.5042e-05
1.46742e-05
1.43233e-05
1.39881e-05
1.36672e-05
1.33596e-05
1.30645e-05
1.27809e-05
1.2508e-05
1.22452e-05
1.19917e-05
1.1747e-05
1.15105e-05
0.000535914
0.00031175
0.000195485
0.000135525
0.000102589
8.28339e-05
6.98832e-05
6.0726e-05
5.38673e-05
4.85113e-05
4.41996e-05
4.06479e-05
3.76686e-05
3.51319e-05
3.29447e-05
3.10383e-05
2.9361e-05
2.78728e-05
2.65425e-05
2.53455e-05
2.4262e-05
2.32757e-05
2.23737e-05
2.15448e-05
2.078e-05
2.00717e-05
1.94133e-05
1.87994e-05
1.82251e-05
1.76865e-05
1.71799e-05
1.67023e-05
1.62509e-05
1.58235e-05
1.54179e-05
1.50323e-05
1.4665e-05
1.43146e-05
1.39797e-05
1.36592e-05
1.3352e-05
1.30572e-05
1.27739e-05
1.25013e-05
1.22387e-05
1.19854e-05
1.1741e-05
1.15047e-05
0.000519043
0.000302459
0.000190795
0.000133081
0.000101211
8.19823e-05
6.93088e-05
6.03104e-05
5.35506e-05
4.82607e-05
4.39957e-05
4.04784e-05
3.75253e-05
3.50091e-05
3.28382e-05
3.0945e-05
2.92785e-05
2.77993e-05
2.64766e-05
2.5286e-05
2.4208e-05
2.32265e-05
2.23286e-05
2.15033e-05
2.07417e-05
2.00362e-05
1.93803e-05
1.87686e-05
1.81963e-05
1.76594e-05
1.71545e-05
1.66783e-05
1.62283e-05
1.58021e-05
1.53976e-05
1.5013e-05
1.46466e-05
1.42971e-05
1.3963e-05
1.36432e-05
1.33367e-05
1.30425e-05
1.27598e-05
1.24878e-05
1.22257e-05
1.1973e-05
1.17289e-05
1.14931e-05
0.000494523
0.00028923
0.000184126
0.000129586
9.92273e-05
8.07464e-05
6.84701e-05