/*--------------------------------*- C++ -*----------------------------------*\
  =========                 |
  \\      /  F ield         | OpenFOAM: The Open Source CFD Toolbox
   \\    /   O peration     | Website:  https://openfoam.org
    \\  /    A nd           | Version:  7
     \\/     M anipulation  |
\*---------------------------------------------------------------------------*/
FoamFile
{
    version     2.0;
    format      ascii;
    class       volVectorField;
    location    "228000";
    object      U;
}
// * * * * * * * * * * * * * * * * * * * * * * * * * * * * * * * * * * * * * //

dimensions      [0 1 -1 0 0 0 0];

internalField   nonuniform List<vector> 
4838
(
(2.36541e-18 -8.50022e-19 -0.0158262)
(2.39815e-18 -9.57281e-19 -0.0158324)
(2.49427e-18 -8.68495e-19 -0.0158381)
(2.60479e-18 -7.639e-19 -0.0158434)
(2.62838e-18 -1.08306e-18 -0.0158481)
(2.2354e-18 -1.45558e-18 -0.0158524)
(1.69877e-18 -1.68463e-18 -0.0158561)
(1.46867e-18 -1.55954e-18 -0.0158594)
(1.37901e-18 -1.24057e-18 -0.0158623)
(1.26324e-18 -8.53333e-19 -0.0158648)
(1.38274e-18 -5.3777e-19 -0.015867)
(1.62249e-18 -7.57333e-19 -0.0158688)
(1.52574e-18 -1.02397e-18 -0.0158702)
(1.46952e-18 -1.07835e-18 -0.0158714)
(2.24496e-18 -1.04513e-18 -0.0158724)
(3.22003e-18 -1.76978e-18 -0.0158732)
(3.11559e-18 -2.78218e-18 -0.0158738)
(2.44048e-18 -3.7282e-18 -0.0158743)
(2.04417e-18 -4.25859e-18 -0.0158746)
(1.5338e-18 -4.53404e-18 -0.0158749)
(6.94139e-19 -4.65178e-18 -0.0158752)
(3.84411e-19 -4.6381e-18 -0.0158753)
(3.60054e-19 -4.65685e-18 -0.0158754)
(-5.07682e-20 -4.75773e-18 -0.0158755)
(-5.32867e-19 -4.8518e-18 -0.0158755)
(-1.20073e-18 -4.76524e-18 -0.0158755)
(-1.82372e-18 -4.59448e-18 -0.0158755)
(-2.25684e-18 -4.21155e-18 -0.0158754)
(-2.67523e-18 -3.83046e-18 -0.0158753)
(-2.72147e-18 -3.44978e-18 -0.0158752)
(-3.01869e-18 -2.98047e-18 -0.0158749)
(-3.7057e-18 -2.20654e-18 -0.0158746)
(-3.67055e-18 -1.31286e-18 -0.0158743)
(-3.61672e-18 -3.52006e-19 -0.0158738)
(-3.77659e-18 2.75907e-19 -0.0158732)
(-3.38729e-18 8.67297e-19 -0.0158724)
(-2.70441e-18 1.02863e-18 -0.0158714)
(-2.11112e-18 1.08211e-18 -0.0158702)
(-2.09705e-18 8.13164e-19 -0.0158688)
(-2.35142e-18 6.10819e-19 -0.015867)
(-2.48624e-18 6.71038e-19 -0.0158648)
(-2.65667e-18 9.76958e-19 -0.0158623)
(-2.46929e-18 1.23344e-18 -0.0158594)
(-2.00513e-18 9.38733e-19 -0.0158561)
(-2.34028e-18 9.44719e-19 -0.0158524)
(-2.69595e-18 1.16068e-18 -0.0158481)
(-2.28722e-18 1.1202e-18 -0.0158434)
(-1.81394e-18 7.48071e-19 -0.0158381)
(-1.6081e-18 4.35465e-19 -0.0158324)
(-1.4415e-18 3.75462e-19 -0.0158262)
(1.89382e-18 -8.92332e-19 -0.0158153)
(2.11842e-18 -1.11107e-18 -0.0158217)
(2.32208e-18 -1.18792e-18 -0.0158278)
(2.52017e-18 -1.27825e-18 -0.0158335)
(2.64591e-18 -1.4865e-18 -0.0158388)
(2.46545e-18 -1.7747e-18 -0.0158436)
(2.04117e-18 -1.806e-18 -0.015848)
(1.76866e-18 -1.52761e-18 -0.0158519)
(1.57958e-18 -1.27739e-18 -0.0158554)
(1.37513e-18 -1.18802e-18 -0.0158585)
(1.41019e-18 -1.03446e-18 -0.0158612)
(1.6386e-18 -9.10164e-19 -0.0158635)
(1.55233e-18 -9.17812e-19 -0.0158655)
(1.42523e-18 -9.17749e-19 -0.0158673)
(1.79985e-18 -9.27729e-19 -0.0158687)
(2.41218e-18 -1.6294e-18 -0.0158699)
(2.16475e-18 -2.80196e-18 -0.0158708)
(1.63875e-18 -3.61759e-18 -0.0158716)
(1.7922e-18 -3.97437e-18 -0.0158723)
(1.86183e-18 -4.20923e-18 -0.0158728)
(1.31857e-18 -4.22042e-18 -0.0158731)
(7.54754e-19 -3.90636e-18 -0.0158734)
(2.14121e-19 -3.99449e-18 -0.0158736)
(-5.30142e-19 -4.41236e-18 -0.0158738)
(-8.62219e-19 -4.62043e-18 -0.0158738)
(-1.19309e-18 -4.62921e-18 -0.0158738)
(-1.46043e-18 -4.20859e-18 -0.0158738)
(-1.79622e-18 -3.75713e-18 -0.0158736)
(-2.47361e-18 -3.25149e-18 -0.0158734)
(-2.73362e-18 -2.75455e-18 -0.0158731)
(-3.10392e-18 -2.61272e-18 -0.0158728)
(-3.85683e-18 -2.00295e-18 -0.0158723)
(-4.20782e-18 -1.20672e-18 -0.0158716)
(-3.99624e-18 -9.89399e-19 -0.0158708)
(-3.43528e-18 -4.49322e-19 -0.0158699)
(-2.91059e-18 2.36654e-20 -0.0158687)
(-2.60935e-18 2.79494e-19 -0.0158673)
(-2.31312e-18 2.00851e-20 -0.0158655)
(-2.21091e-18 -1.30391e-19 -0.0158635)
(-2.22197e-18 -1.49357e-19 -0.0158612)
(-2.42506e-18 9.19461e-20 -0.0158585)
(-2.73183e-18 3.76815e-19 -0.0158554)
(-2.60148e-18 8.20534e-19 -0.0158519)
(-2.3936e-18 6.70488e-19 -0.015848)
(-2.63625e-18 7.03052e-19 -0.0158436)
(-2.6547e-18 9.83407e-19 -0.0158388)
(-2.15729e-18 9.97763e-19 -0.0158335)
(-1.72667e-18 7.77914e-19 -0.0158278)
(-1.36817e-18 5.88213e-19 -0.0158217)
(-1.21916e-18 4.12475e-19 -0.0158153)
(1.2762e-18 -6.85795e-19 -0.0158025)
(1.71163e-18 -6.88653e-19 -0.0158096)
(2.01405e-18 -7.46129e-19 -0.0158162)
(2.15571e-18 -1.00567e-18 -0.0158223)
(2.2878e-18 -1.18367e-18 -0.0158281)
(2.3864e-18 -1.63992e-18 -0.0158335)
(2.34619e-18 -1.76737e-18 -0.0158384)
(2.1788e-18 -1.79289e-18 -0.0158429)
(1.79265e-18 -1.92415e-18 -0.015847)
(1.41363e-18 -1.9791e-18 -0.0158506)
(1.46155e-18 -1.61865e-18 -0.0158539)
(1.80329e-18 -1.20436e-18 -0.0158568)
(1.6988e-18 -1.18059e-18 -0.0158593)
(1.32161e-18 -1.16192e-18 -0.0158615)
(1.35756e-18 -1.17267e-18 -0.0158634)
(1.81165e-18 -1.4711e-18 -0.015865)
(1.80109e-18 -2.06717e-18 -0.0158664)
(1.42462e-18 -2.28414e-18 -0.0158675)
(1.67163e-18 -2.42259e-18 -0.0158685)
(1.91135e-18 -2.73412e-18 -0.0158692)
(1.53747e-18 -3.16613e-18 -0.0158698)
(9.99751e-19 -3.38833e-18 -0.0158703)
(-1.03622e-19 -3.66548e-18 -0.0158706)
(-1.07213e-18 -3.69276e-18 -0.0158708)
(-1.0264e-18 -3.51009e-18 -0.0158709)
(-8.48037e-19 -3.70594e-18 -0.0158709)
(-9.81884e-19 -3.59571e-18 -0.0158708)
(-1.64758e-18 -3.63365e-18 -0.0158706)
(-2.34033e-18 -3.28477e-18 -0.0158703)
(-2.75905e-18 -2.83014e-18 -0.0158698)
(-3.30539e-18 -2.57486e-18 -0.0158692)
(-3.76148e-18 -2.06567e-18 -0.0158685)
(-3.9369e-18 -1.10737e-18 -0.0158675)
(-3.7741e-18 -4.33064e-19 -0.0158664)
(-3.33897e-18 4.9612e-20 -0.015865)
(-3.09677e-18 1.67624e-19 -0.0158634)
(-2.97484e-18 1.73861e-19 -0.0158615)
(-2.55216e-18 -1.68937e-19 -0.0158593)
(-2.27747e-18 -3.31859e-19 -0.0158568)
(-2.3692e-18 -3.32858e-19 -0.0158539)
(-2.47594e-18 -2.78705e-19 -0.0158506)
(-2.33351e-18 -4.66999e-20 -0.015847)
(-2.22857e-18 3.70545e-19 -0.0158429)
(-2.36106e-18 4.65786e-19 -0.0158384)
(-2.43833e-18 6.1749e-19 -0.0158335)
(-2.26298e-18 9.57396e-19 -0.0158281)
(-1.81575e-18 9.7389e-19 -0.0158223)
(-1.41961e-18 8.04773e-19 -0.0158162)
(-1.25966e-18 8.57112e-19 -0.0158096)
(-1.48751e-18 7.54944e-19 -0.0158025)
(1.25011e-18 -1.26304e-19 -0.0157883)
(1.35604e-18 -7.7374e-20 -0.0157961)
(1.58758e-18 -2.47455e-20 -0.0158033)
(1.86994e-18 -1.32851e-19 -0.01581)
(1.83515e-18 -4.20191e-19 -0.0158163)
(1.77088e-18 -9.64822e-19 -0.0158221)
(1.87875e-18 -1.36416e-18 -0.0158276)
(1.7803e-18 -1.87359e-18 -0.0158326)
(1.64332e-18 -2.23786e-18 -0.0158372)
(1.69006e-18 -2.07628e-18 -0.0158413)
(1.94141e-18 -1.55512e-18 -0.0158451)
(2.02334e-18 -1.39969e-18 -0.0158485)
(1.84129e-18 -1.69815e-18 -0.0158515)
(1.54503e-18 -1.74217e-18 -0.0158542)
(1.37825e-18 -1.45263e-18 -0.0158566)
(1.65525e-18 -1.27859e-18 -0.0158586)
(1.66477e-18 -1.41186e-18 -0.0158604)
(1.32889e-18 -1.5057e-18 -0.0158619)
(1.63362e-18 -1.51788e-18 -0.0158631)
(1.94032e-18 -1.93364e-18 -0.0158641)
(1.44091e-18 -2.48678e-18 -0.015865)
(7.82603e-19 -3.08774e-18 -0.0158656)
(1.48021e-19 -3.60911e-18 -0.0158661)
(-6.23761e-19 -3.13356e-18 -0.0158664)
(-1.36915e-18 -2.75612e-18 -0.0158665)
(-1.66709e-18 -2.98385e-18 -0.0158665)
(-1.46958e-18 -3.42373e-18 -0.0158664)
(-1.51203e-18 -3.69217e-18 -0.0158661)
(-1.91086e-18 -3.36407e-18 -0.0158656)
(-2.44349e-18 -3.08787e-18 -0.015865)
(-3.0336e-18 -2.74936e-18 -0.0158641)
(-3.30909e-18 -2.148e-18 -0.0158631)
(-3.52918e-18 -1.29142e-18 -0.0158619)
(-3.6097e-18 -5.43475e-19 -0.0158604)
(-3.31272e-18 5.91049e-21 -0.0158586)
(-3.1953e-18 2.60959e-19 -0.0158566)
(-3.15204e-18 5.21234e-19 -0.0158542)
(-2.70893e-18 5.86047e-19 -0.0158515)
(-2.28145e-18 4.75905e-19 -0.0158485)
(-2.21561e-18 5.29628e-19 -0.0158451)
(-2.09766e-18 7.05802e-19 -0.0158413)
(-1.98124e-18 9.06262e-19 -0.0158372)
(-2.21303e-18 8.30934e-19 -0.0158326)
(-2.3886e-18 8.19133e-19 -0.0158276)
(-2.18641e-18 8.78768e-19 -0.0158221)
(-1.9441e-18 9.06248e-19 -0.0158163)
(-1.64875e-18 7.37291e-19 -0.01581)
(-1.24529e-18 4.40814e-19 -0.0158033)
(-1.2025e-18 4.40015e-19 -0.0157961)
(-1.34085e-18 5.34328e-19 -0.0157883)
(1.29971e-18 1.08628e-19 -0.0157729)
(1.44414e-18 2.68058e-19 -0.0157813)
(1.51088e-18 3.16434e-19 -0.0157891)
(1.55092e-18 1.52491e-19 -0.0157964)
(1.49036e-18 -1.20252e-19 -0.0158032)
(1.29761e-18 -4.28711e-19 -0.0158096)
(1.26619e-18 -8.84917e-19 -0.0158155)
(1.22737e-18 -1.17008e-18 -0.015821)
(1.3643e-18 -1.23565e-18 -0.0158261)
(1.68775e-18 -1.13354e-18 -0.0158308)
(1.82789e-18 -1.05798e-18 -0.015835)
(1.64266e-18 -1.42061e-18 -0.0158389)
(1.48483e-18 -1.85574e-18 -0.0158423)
(1.71459e-18 -1.90223e-18 -0.0158454)
(1.86859e-18 -1.48858e-18 -0.0158482)
(2.0097e-18 -1.21957e-18 -0.0158506)
(1.9271e-18 -1.3632e-18 -0.0158527)
(1.5377e-18 -1.42478e-18 -0.0158546)
(1.59457e-18 -1.38132e-18 -0.0158561)
(1.76742e-18 -1.9814e-18 -0.0158574)
(1.17845e-18 -2.65604e-18 -0.0158585)
(2.38168e-19 -3.25892e-18 -0.0158593)
(-1.10806e-19 -3.79665e-18 -0.0158599)
(-4.37259e-19 -3.80043e-18 -0.0158603)
(-1.30097e-18 -3.42049e-18 -0.0158605)
(-1.87013e-18 -2.98064e-18 -0.0158605)
(-1.69057e-18 -2.79665e-18 -0.0158603)
(-1.41049e-18 -2.77828e-18 -0.0158599)
(-1.73014e-18 -2.60428e-18 -0.0158593)
(-2.48172e-18 -2.48081e-18 -0.0158585)
(-2.88201e-18 -2.1945e-18 -0.0158574)
(-2.83186e-18 -1.75848e-18 -0.0158561)
(-2.95798e-18 -1.37475e-18 -0.0158546)
(-2.99998e-18 -6.90077e-19 -0.0158527)
(-2.88261e-18 1.41172e-20 -0.0158506)
(-2.95983e-18 6.47959e-19 -0.0158482)
(-2.81582e-18 1.24634e-18 -0.0158454)
(-2.39215e-18 1.53586e-18 -0.0158423)
(-2.13414e-18 1.38585e-18 -0.0158389)
(-2.02052e-18 1.2717e-18 -0.015835)
(-1.92397e-18 1.38814e-18 -0.0158308)
(-2.25433e-18 1.39919e-18 -0.0158261)
(-2.59633e-18 1.2819e-18 -0.015821)
(-2.32593e-18 1.26195e-18 -0.0158155)
(-2.04768e-18 1.386e-18 -0.0158096)
(-1.9695e-18 1.37926e-18 -0.0158032)
(-1.56774e-18 1.25398e-18 -0.0157964)
(-1.05066e-18 1.01813e-18 -0.0157891)
(-9.30611e-19 6.24522e-19 -0.0157813)
(-1.00371e-18 5.06162e-19 -0.0157729)
(1.15356e-18 1.4652e-19 -0.0157563)
(1.31937e-18 2.90166e-19 -0.0157653)
(1.43048e-18 8.83231e-20 -0.0157737)
(1.54236e-18 -5.78652e-20 -0.0157815)
(1.44959e-18 -2.38802e-19 -0.0157889)
(1.05884e-18 -4.89434e-19 -0.0157958)
(1.03614e-18 -7.42796e-19 -0.0158022)
(1.12237e-18 -6.54088e-19 -0.0158082)
(1.09881e-18 -4.48293e-19 -0.0158138)
(1.37396e-18 -4.53681e-19 -0.0158189)
(1.53767e-18 -5.38721e-19 -0.0158236)
(1.24244e-18 -9.32567e-19 -0.0158279)
(1.15889e-18 -1.2596e-18 -0.0158318)
(1.69953e-18 -1.14635e-18 -0.0158353)
(2.04836e-18 -8.78769e-19 -0.0158384)
(1.97445e-18 -9.14011e-19 -0.0158412)
(1.8718e-18 -1.49966e-18 -0.0158436)
(1.70288e-18 -1.78809e-18 -0.0158458)
(1.4671e-18 -2.01518e-18 -0.0158476)
(1.28591e-18 -2.50083e-18 -0.0158491)
(7.2897e-19 -3.03125e-18 -0.0158504)
(-2.57087e-19 -3.29535e-18 -0.0158514)
(-5.20213e-19 -3.44705e-18 -0.0158521)
(-3.33658e-19 -3.49301e-18 -0.0158526)
(-7.90258e-19 -3.26495e-18 -0.0158528)
(-1.3412e-18 -2.69327e-18 -0.0158528)
(-1.24411e-18 -2.15842e-18 -0.0158526)
(-1.06752e-18 -1.97811e-18 -0.0158521)
(-1.56138e-18 -1.98658e-18 -0.0158514)
(-2.26363e-18 -1.59077e-18 -0.0158504)
(-2.57333e-18 -9.76472e-19 -0.0158491)
(-2.76408e-18 -5.40278e-19 -0.0158476)
(-2.83128e-18 -4.22499e-19 -0.0158458)
(-2.50592e-18 -8.11172e-20 -0.0158436)
(-2.22034e-18 2.56367e-19 -0.0158412)
(-2.20988e-18 8.85104e-19 -0.0158384)
(-2.36588e-18 1.53523e-18 -0.0158353)
(-2.56928e-18 1.89608e-18 -0.0158318)
(-2.59014e-18 1.58161e-18 -0.0158279)
(-2.25513e-18 1.20274e-18 -0.0158236)
(-2.19489e-18 9.38997e-19 -0.0158189)
(-2.56242e-18 9.04416e-19 -0.0158138)
(-2.47639e-18 1.01871e-18 -0.0158082)
(-2.00395e-18 1.06505e-18 -0.0158022)
(-1.84395e-18 1.08536e-18 -0.0157958)
(-1.65614e-18 1.32137e-18 -0.0157889)
(-1.10022e-18 1.4754e-18 -0.0157815)
(-9.1892e-19 1.57657e-18 -0.0157737)
(-1.18337e-18 1.29471e-18 -0.0157653)
(-1.2812e-18 8.07819e-19 -0.0157563)
(1.03773e-18 6.21748e-19 -0.0157386)
(1.08842e-18 6.41155e-19 -0.0157481)
(1.05099e-18 2.90405e-19 -0.0157571)
(1.24317e-18 9.86498e-20 -0.0157655)
(1.38809e-18 -3.01781e-19 -0.0157734)
(9.91835e-19 -6.25112e-19 -0.0157808)
(8.91175e-19 -6.22848e-19 -0.0157878)
(1.26277e-18 -5.80258e-19 -0.0157942)
(1.24137e-18 -5.47134e-19 -0.0158002)
(1.27172e-18 -4.23199e-19 -0.0158058)
(1.33404e-18 -3.08919e-19 -0.0158109)
(9.03821e-19 -4.26436e-19 -0.0158156)
(8.4248e-19 -4.35834e-19 -0.0158199)
(1.69488e-18 -1.28498e-19 -0.0158238)
(2.1343e-18 -7.37874e-20 -0.0158273)
(1.60741e-18 -5.05004e-19 -0.0158304)
(1.30765e-18 -1.33538e-18 -0.0158331)
(1.31946e-18 -1.86589e-18 -0.0158356)
(1.25887e-18 -2.36372e-18 -0.0158376)
(1.22759e-18 -2.71947e-18 -0.0158394)
(7.77283e-19 -3.04072e-18 -0.0158408)
(-1.88904e-19 -2.90537e-18 -0.015842)
(-4.99921e-19 -2.35994e-18 -0.0158428)
(-3.33598e-19 -2.03692e-18 -0.0158434)
(-6.52943e-19 -2.18903e-18 -0.0158437)
(-9.65574e-19 -2.04754e-18 -0.0158437)
(-9.6208e-19 -1.58598e-18 -0.0158434)
(-1.0837e-18 -1.47792e-18 -0.0158428)
(-1.30478e-18 -1.49819e-18 -0.015842)
(-1.58618e-18 -9.26118e-19 -0.0158408)
(-2.03125e-18 -2.72609e-19 -0.0158394)
(-2.52655e-18 1.36179e-19 -0.0158376)
(-2.67275e-18 3.28255e-19 -0.0158356)
(-2.35257e-18 5.0527e-19 -0.0158331)
(-2.00242e-18 5.04225e-19 -0.0158304)
(-1.96953e-18 7.54065e-19 -0.0158273)
(-2.3003e-18 8.16647e-19 -0.0158238)
(-2.80307e-18 1.21768e-18 -0.0158199)
(-2.99268e-18 1.24939e-18 -0.0158156)
(-2.64195e-18 1.26697e-18 -0.0158109)
(-2.50322e-18 8.12273e-19 -0.0158058)
(-2.46575e-18 7.49849e-19 -0.0158002)
(-2.25196e-18 9.12517e-19 -0.0157942)
(-1.95957e-18 8.23189e-19 -0.0157878)
(-1.67711e-18 4.91702e-19 -0.0157808)
(-1.14675e-18 7.77187e-19 -0.0157734)
(-7.65279e-19 9.8841e-19 -0.0157655)
(-1.04222e-18 1.25821e-18 -0.0157571)
(-1.5301e-18 1.2704e-18 -0.0157481)
(-1.42913e-18 7.72201e-19 -0.0157386)
(8.68753e-19 1.05336e-18 -0.0157199)
(8.12015e-19 9.8239e-19 -0.01573)
(7.3776e-19 5.2501e-19 -0.0157394)
(7.22298e-19 1.63037e-19 -0.0157484)
(9.01928e-19 -2.7585e-19 -0.0157568)
(8.8552e-19 -2.68555e-19 -0.0157647)
(6.68927e-19 -1.50711e-19 -0.0157721)
(8.05421e-19 -2.5249e-19 -0.015779)
(1.13306e-18 -4.38312e-19 -0.0157855)
(1.49602e-18 -3.04291e-19 -0.0157915)
(1.66698e-18 -3.75138e-19 -0.015797)
(1.16466e-18 -2.62719e-19 -0.0158021)
(9.19953e-19 1.99999e-19 -0.0158068)
(1.5915e-18 4.17825e-19 -0.015811)
(1.9264e-18 -1.363e-19 -0.0158148)
(1.1334e-18 -6.2777e-19 -0.0158183)
(6.5936e-19 -9.95056e-19 -0.0158213)
(7.48305e-19 -1.31096e-18 -0.015824)
(7.12356e-19 -1.6637e-18 -0.0158263)
(7.9387e-19 -2.01161e-18 -0.0158283)
(7.78821e-19 -2.39804e-18 -0.0158299)
(4.45442e-19 -2.23182e-18 -0.0158312)
(2.49197e-19 -1.71535e-18 -0.0158321)
(-2.13939e-19 -1.37857e-18 -0.0158327)
(-9.18668e-19 -1.48342e-18 -0.0158331)
(-8.36901e-19 -1.49747e-18 -0.0158331)
(-6.10058e-19 -1.13835e-18 -0.0158327)
(-8.28904e-19 -9.51847e-19 -0.0158321)
(-8.9089e-19 -7.80221e-19 -0.0158312)
(-1.073e-18 -3.79665e-19 -0.0158299)
(-1.77718e-18 -1.49553e-20 -0.0158283)
(-2.56266e-18 6.82212e-20 -0.0158263)
(-2.70543e-18 3.22683e-19 -0.015824)
(-2.32323e-18 5.99462e-19 -0.0158213)
(-1.95181e-18 6.22175e-19 -0.0158183)
(-2.14887e-18 6.00331e-19 -0.0158148)
(-2.50497e-18 4.65075e-19 -0.015811)
(-2.7842e-18 6.80309e-19 -0.0158068)
(-2.76525e-18 1.0633e-18 -0.0158021)
(-2.55219e-18 1.40211e-18 -0.015797)
(-2.61886e-18 1.26051e-18 -0.0157915)
(-2.32044e-18 1.35262e-18 -0.0157855)
(-2.05945e-18 1.51908e-18 -0.015779)
(-1.91618e-18 1.39618e-18 -0.0157721)
(-1.3164e-18 8.74198e-19 -0.0157647)
(-6.39053e-19 5.41822e-19 -0.0157568)
(-6.10642e-19 4.70621e-19 -0.0157484)
(-1.2067e-18 7.27007e-19 -0.0157394)
(-1.81448e-18 9.69214e-19 -0.01573)
(-1.57355e-18 8.87648e-19 -0.0157199)
(1.00981e-18 7.06707e-19 -0.0157002)
(6.5309e-19 4.50937e-19 -0.0157108)
(4.27338e-19 -1.50278e-19 -0.0157208)
(4.55143e-19 -2.82888e-19 -0.0157302)
(7.88834e-19 -1.18261e-19 -0.0157391)
(9.82685e-19 -1.15319e-19 -0.0157475)
(7.54219e-19 -4.32961e-19 -0.0157553)
(6.00686e-19 -2.76338e-19 -0.0157627)
(7.24327e-19 -2.92142e-19 -0.0157696)
(1.04891e-18 -5.40921e-19 -0.015776)
(1.57874e-18 -8.10301e-19 -0.0157819)
(1.71646e-18 -5.37217e-19 -0.0157874)
(1.24516e-18 -9.34124e-21 -0.0157924)
(1.15508e-18 -1.27293e-20 -0.015797)
(1.57179e-18 -5.13659e-19 -0.0158012)
(1.28909e-18 -6.65759e-19 -0.0158049)
(6.97642e-19 -4.76783e-19 -0.0158082)
(5.90308e-19 -6.62069e-19 -0.0158111)
(4.97929e-19 -6.82367e-19 -0.0158137)
(4.57554e-19 -6.73027e-19 -0.0158158)
(5.82569e-19 -9.72014e-19 -0.0158176)
(4.5855e-19 -9.89436e-19 -0.015819)
(3.48774e-19 -1.04421e-18 -0.0158201)
(-5.9184e-20 -1.02185e-18 -0.0158208)
(-8.31402e-19 -8.96812e-19 -0.0158211)
(-6.23506e-19 -8.07273e-19 -0.0158211)
(-2.848e-19 -5.95276e-19 -0.0158208)
(-5.66657e-19 -4.0083e-19 -0.0158201)
(-5.70779e-19 -2.86396e-19 -0.015819)
(-8.43895e-19 -3.79394e-19 -0.0158176)
(-1.9408e-18 -2.75024e-19 -0.0158158)
(-2.65053e-18 -1.1556e-20 -0.0158137)
(-2.34797e-18 5.04327e-19 -0.0158111)
(-1.99698e-18 8.45988e-19 -0.0158082)
(-1.98417e-18 9.07317e-19 -0.0158049)
(-2.35311e-18 7.30601e-19 -0.0158012)
(-2.55891e-18 6.98445e-19 -0.015797)
(-2.55146e-18 8.08439e-19 -0.0157924)
(-2.41516e-18 1.22446e-18 -0.0157874)
(-2.51974e-18 1.41996e-18 -0.0157819)
(-2.44092e-18 1.48692e-18 -0.015776)
(-1.85973e-18 1.62481e-18 -0.0157696)
(-1.83647e-18 1.80389e-18 -0.0157627)
(-1.83764e-18 1.84831e-18 -0.0157553)
(-1.30599e-18 1.57387e-18 -0.0157475)
(-8.17443e-19 7.71446e-19 -0.0157391)
(-8.74139e-19 2.02575e-19 -0.0157302)
(-1.52426e-18 1.51793e-19 -0.0157208)
(-1.81273e-18 4.04479e-19 -0.0157108)
(-1.37506e-18 6.42159e-19 -0.0157002)
(1.14819e-18 9.52425e-20 -0.0156796)
(7.09127e-19 -4.36882e-19 -0.0156907)
(3.63635e-19 -5.91614e-19 -0.0157011)
(4.46585e-19 -3.28589e-19 -0.015711)
(5.45769e-19 -1.5182e-19 -0.0157203)
(5.80595e-19 -6.62203e-19 -0.0157292)
(7.43932e-19 -1.04334e-18 -0.0157375)
(8.6371e-19 -7.12504e-19 -0.0157453)
(5.8689e-19 -5.96091e-19 -0.0157526)
(6.25044e-19 -5.81284e-19 -0.0157594)
(1.37713e-18 -3.78101e-19 -0.0157657)
(1.97187e-18 -1.13689e-19 -0.0157716)
(1.60568e-18 -7.07792e-20 -0.0157769)
(1.15221e-18 -1.29793e-19 -0.0157819)
(1.45145e-18 -3.20813e-19 -0.0157863)
(1.44324e-18 -2.9361e-19 -0.0157903)
(7.2245e-19 -7.80075e-20 -0.0157939)
(5.09432e-19 -4.77661e-19 -0.0157971)
(6.59101e-19 -4.78805e-19 -0.0157998)
(4.63226e-19 -4.00656e-19 -0.0158021)
(4.73854e-19 -4.58275e-19 -0.0158041)
(4.1511e-19 -2.0707e-19 -0.0158056)
(3.10492e-19 -9.52275e-20 -0.0158068)
(4.12326e-21 -2.11549e-19 -0.0158075)
(-7.6333e-19 -1.18714e-19 -0.0158079)
(-4.87808e-19 3.03804e-20 -0.0158079)
(-1.17561e-20 2.29955e-20 -0.0158075)
(-3.25772e-19 1.03761e-19 -0.0158068)
(-6.99094e-19 1.87536e-20 -0.0158056)
(-1.14559e-18 -3.49709e-19 -0.0158041)
(-1.79943e-18 -3.68319e-19 -0.0158021)
(-2.0727e-18 4.41602e-19 -0.0157998)
(-1.89827e-18 9.78592e-19 -0.0157971)
(-1.93175e-18 1.13277e-18 -0.0157939)
(-2.17839e-18 1.09821e-18 -0.0157903)
(-2.55241e-18 1.0866e-18 -0.0157863)
(-2.52565e-18 1.18647e-18 -0.0157819)
(-2.29772e-18 1.2857e-18 -0.0157769)
(-2.27313e-18 1.46801e-18 -0.0157716)
(-2.45766e-18 1.349e-18 -0.0157657)
(-2.20609e-18 1.43898e-18 -0.0157594)
(-1.76517e-18 1.43847e-18 -0.0157526)
(-1.86619e-18 1.34765e-18 -0.0157453)
(-1.77455e-18 1.27949e-18 -0.0157375)
(-1.43322e-18 1.02112e-18 -0.0157292)
(-1.21895e-18 5.41767e-19 -0.0157203)
(-1.29861e-18 2.48374e-19 -0.015711)
(-1.61751e-18 1.43681e-19 -0.0157011)
(-1.44485e-18 2.92026e-19 -0.0156907)
(-1.03767e-18 3.01735e-19 -0.0156796)
(8.96403e-19 1.15431e-19 -0.0156581)
(7.36785e-19 -5.06741e-19 -0.0156696)
(4.9279e-19 -4.20415e-19 -0.0156805)
(4.46027e-19 -2.64688e-19 -0.0156908)
(2.61031e-19 -9.01315e-20 -0.0157006)
(5.06999e-20 -3.49169e-19 -0.0157099)
(3.52898e-19 -3.72821e-19 -0.0157186)
(8.77212e-19 -4.88862e-19 -0.0157269)
(7.71718e-19 -3.78141e-19 -0.0157346)
(6.56463e-19 3.99407e-20 -0.0157418)
(1.19431e-18 5.00795e-19 -0.0157484)
(1.76138e-18 6.25386e-19 -0.0157546)
(1.48278e-18 3.10224e-19 -0.0157603)
(9.8199e-19 5.12293e-21 -0.0157656)
(1.37465e-18 -2.0027e-19 -0.0157703)
(1.73143e-18 -3.63537e-19 -0.0157746)
(6.96071e-19 -3.50912e-19 -0.0157784)
(1.79135e-19 -7.42978e-19 -0.0157818)
(5.43e-19 -6.22973e-19 -0.0157848)
(5.14224e-19 -6.41569e-19 -0.0157873)
(8.23016e-19 -4.88064e-19 -0.0157894)
(8.98924e-19 -1.98219e-19 -0.015791)
(4.51847e-19 1.8585e-19 -0.0157922)
(-2.61631e-21 -1.18949e-19 -0.0157931)
(-6.3735e-19 -1.26885e-19 -0.0157935)
(-4.11058e-19 2.59276e-19 -0.0157935)
(7.1257e-21 3.35833e-19 -0.0157931)
(-3.98324e-19 2.60487e-19 -0.0157922)
(-9.28835e-19 -4.15784e-20 -0.015791)
(-1.30297e-18 -4.44917e-19 -0.0157894)
(-1.44259e-18 -4.4999e-19 -0.0157873)
(-1.58564e-18 1.11928e-19 -0.0157848)
(-1.83484e-18 4.59173e-19 -0.0157818)
(-2.07124e-18 7.32287e-19 -0.0157784)
(-2.29349e-18 8.66804e-19 -0.0157746)
(-2.46981e-18 1.00694e-18 -0.0157703)
(-2.30045e-18 1.61473e-18 -0.0157656)
(-2.17316e-18 1.69951e-18 -0.0157603)
(-2.42783e-18 1.6905e-18 -0.0157546)
(-2.62793e-18 1.37122e-18 -0.0157484)
(-2.12798e-18 1.34608e-18 -0.0157418)
(-1.80258e-18 1.22625e-18 -0.0157346)
(-2.01734e-18 1.27653e-18 -0.0157269)
(-1.94139e-18 1.12009e-18 -0.0157186)
(-1.58725e-18 7.46223e-19 -0.0157099)
(-1.21982e-18 2.0776e-19 -0.0157006)
(-1.16422e-18 1.547e-19 -0.0156908)
(-1.34273e-18 3.86032e-19 -0.0156805)
(-1.15971e-18 4.97781e-19 -0.0156696)
(-8.30716e-19 2.4977e-19 -0.0156581)
(4.74219e-19 2.5087e-19 -0.0156358)
(3.24974e-19 -1.35625e-20 -0.0156477)
(3.84603e-19 -1.68348e-19 -0.015659)
(6.20875e-19 -3.31364e-19 -0.0156697)
(5.16593e-19 -2.2479e-19 -0.01568)
(7.50162e-20 -4.9739e-19 -0.0156897)
(-1.11952e-19 -3.961e-19 -0.0156988)
(4.78787e-19 -5.86307e-19 -0.0157074)
(8.893e-19 -3.08308e-19 -0.0157155)
(9.16957e-19 5.93057e-20 -0.0157231)
(1.25877e-18 5.3836e-19 -0.0157301)
(1.66784e-18 6.22004e-19 -0.0157366)
(1.32896e-18 2.49814e-19 -0.0157427)
(7.38785e-19 -2.30817e-19 -0.0157482)
(9.42825e-19 -2.60479e-19 -0.0157532)
(1.5635e-18 -5.38962e-19 -0.0157578)
(7.59914e-19 -8.58595e-19 -0.0157619)
(2.15072e-19 -7.60854e-19 -0.0157655)
(6.12709e-19 -2.37376e-19 -0.0157686)
(5.19429e-19 -2.80613e-19 -0.0157713)
(8.6614e-19 -1.69122e-19 -0.0157735)
(1.17814e-18 -3.67714e-19 -0.0157752)
(5.39329e-19 -1.66113e-19 -0.0157766)
(-2.07986e-19 -4.57809e-19 -0.0157774)
(-4.55251e-19 -5.79312e-19 -0.0157779)
(-4.06941e-21 -1.45685e-19 -0.0157779)
(1.71423e-19 2.51234e-19 -0.0157774)
(-5.72692e-19 1.25058e-19 -0.0157766)
(-1.3611e-18 -9.29309e-20 -0.0157752)
(-1.58652e-18 -3.54012e-19 -0.0157735)
(-1.42838e-18 -6.76134e-19 -0.0157713)
(-1.52391e-18 -8.68408e-19 -0.0157686)
(-1.66218e-18 -5.67336e-19 -0.0157655)
(-1.88593e-18 -6.73037e-20 -0.0157619)
(-2.22873e-18 4.03103e-19 -0.0157578)
(-2.12935e-18 3.65596e-19 -0.0157532)
(-1.95417e-18 1.09318e-18 -0.0157482)
(-2.3384e-18 1.29632e-18 -0.0157427)
(-2.83657e-18 1.13758e-18 -0.0157366)
(-2.75546e-18 1.06605e-18 -0.0157301)
(-2.06756e-18 9.65574e-19 -0.0157231)
(-1.82868e-18 7.80338e-19 -0.0157155)
(-1.91639e-18 1.47319e-18 -0.0157074)
(-1.82335e-18 1.51812e-18 -0.0156988)
(-1.5635e-18 1.08318e-18 -0.0156897)
(-1.20267e-18 5.43833e-19 -0.01568)
(-9.90254e-19 3.07426e-19 -0.0156697)
(-1.06474e-18 5.62168e-19 -0.015659)
(-9.24898e-19 6.59975e-19 -0.0156477)
(-7.69325e-19 4.77459e-19 -0.0156358)
(3.55786e-19 3.40644e-19 -0.0156126)
(1.78603e-19 1.72167e-19 -0.0156249)
(-1.29154e-19 -9.20359e-20 -0.0156366)
(1.7342e-19 -2.43665e-19 -0.0156478)
(3.57208e-19 -5.35704e-19 -0.0156584)
(2.10793e-19 -1.14473e-18 -0.0156685)
(7.43934e-21 -9.41198e-19 -0.015678)
(3.59695e-19 -6.30654e-19 -0.015687)
(9.22311e-19 -2.85714e-19 -0.0156955)
(1.10575e-18 -1.52008e-19 -0.0157034)
(1.42441e-18 9.24108e-20 -0.0157108)
(1.67102e-18 1.8681e-21 -0.0157176)
(1.22017e-18 -4.7979e-19 -0.015724)
(7.15831e-19 -7.30459e-19 -0.0157298)
(8.94213e-19 -3.5917e-19 -0.0157351)
(1.28466e-18 -2.64228e-19 -0.0157399)
(7.57667e-19 -7.17513e-19 -0.0157442)
(5.63141e-19 -3.71557e-19 -0.015748)
(7.79051e-19 8.49729e-21 -0.0157513)
(4.74675e-19 -6.35808e-20 -0.0157541)
(6.94988e-19 1.4248e-19 -0.0157565)
(1.04742e-18 -1.28075e-19 -0.0157584)
(5.5037e-19 -3.96596e-19 -0.0157598)
(-3.30699e-19 -3.81211e-19 -0.0157607)
(-4.08443e-19 -2.62885e-19 -0.0157612)
(3.81347e-19 -1.47818e-19 -0.0157612)
(3.68168e-19 6.79338e-20 -0.0157607)
(-7.01595e-19 -2.48264e-20 -0.0157598)
(-1.44663e-18 -5.16366e-20 -0.0157584)
(-1.84722e-18 2.1618e-19 -0.0157565)
(-1.90576e-18 -1.79099e-19 -0.0157541)
(-1.61366e-18 -6.22107e-19 -0.0157513)
(-1.33766e-18 -6.01452e-19 -0.015748)
(-1.53524e-18 -3.78314e-19 -0.0157442)
(-2.13951e-18 1.56306e-19 -0.0157399)
(-1.99117e-18 2.06978e-19 -0.0157351)
(-1.77483e-18 5.92905e-19 -0.0157298)
(-2.57939e-18 8.44354e-19 -0.015724)
(-3.00838e-18 6.10512e-19 -0.0157176)
(-2.639e-18 8.30938e-19 -0.0157108)
(-2.03865e-18 8.56678e-19 -0.0157034)
(-1.4257e-18 4.2287e-19 -0.0156955)
(-1.40744e-18 1.2099e-18 -0.015687)
(-1.88628e-18 1.55096e-18 -0.015678)
(-1.72692e-18 1.19467e-18 -0.0156685)
(-1.06528e-18 9.60634e-19 -0.0156584)
(-7.07754e-19 6.83817e-19 -0.0156478)
(-7.65897e-19 7.39274e-19 -0.0156366)
(-7.66438e-19 7.46408e-19 -0.0156249)
(-9.45255e-19 5.62973e-19 -0.0156126)
(1.67622e-19 2.86448e-19 -0.0155886)
(1.97208e-19 -1.15065e-20 -0.0156013)
(-8.81577e-20 1.91146e-20 -0.0156134)
(-2.13211e-19 4.73586e-20 -0.015625)
(-2.15839e-19 -5.68627e-19 -0.015636)
(-1.54147e-19 -9.72381e-19 -0.0156465)
(4.9781e-20 -8.29927e-19 -0.0156564)
(2.65675e-19 -1.30423e-19 -0.0156657)
(7.08278e-19 1.61915e-19 -0.0156745)
(9.08258e-19 1.27693e-19 -0.0156828)
(1.25445e-18 -1.26333e-20 -0.0156905)
(1.49459e-18 -4.29689e-19 -0.0156977)
(1.24222e-18 -1.12187e-18 -0.0157043)
(9.16613e-19 -8.22709e-19 -0.0157104)
(1.08277e-18 -1.1183e-19 -0.0157159)
(1.22368e-18 2.10766e-20 -0.015721)
(7.04228e-19 -5.15192e-19 -0.0157255)
(6.45824e-19 -3.08064e-19 -0.0157295)
(8.17716e-19 -1.42177e-19 -0.015733)
(6.08771e-19 -2.07471e-19 -0.015736)
(7.76002e-19 4.38333e-21 -0.0157385)
(8.3125e-19 -1.81009e-19 -0.0157404)
(4.68841e-19 -5.803e-19 -0.0157419)
(-1.04467e-19 -5.13182e-19 -0.0157429)
(-3.0818e-19 -2.36113e-20 -0.0157434)
(3.65576e-19 9.46009e-20 -0.0157434)
(3.58278e-19 -1.8846e-19 -0.0157429)
(-7.61625e-19 -3.57665e-19 -0.0157419)
(-1.35001e-18 -3.92151e-19 -0.0157404)
(-1.83041e-18 1.06343e-19 -0.0157385)
(-2.10772e-18 1.64651e-19 -0.015736)
(-1.72202e-18 8.35296e-20 -0.015733)
(-1.37295e-18 -2.31505e-20 -0.0157295)
(-1.4609e-18 -3.04428e-19 -0.0157255)
(-1.93705e-18 5.15119e-20 -0.015721)
(-1.71214e-18 1.93933e-19 -0.0157159)
(-1.69321e-18 4.29164e-19 -0.0157104)
(-2.82033e-18 6.99649e-19 -0.0157043)
(-2.97455e-18 8.35654e-19 -0.0156977)
(-2.26281e-18 9.5222e-19 -0.0156905)
(-1.7827e-18 1.1948e-18 -0.0156828)
(-1.21539e-18 6.08639e-19 -0.0156745)
(-1.33801e-18 8.04284e-19 -0.0156657)
(-1.91363e-18 1.44011e-18 -0.0156564)
(-1.39785e-18 1.33782e-18 -0.0156465)
(-6.71577e-19 1.19998e-18 -0.015636)
(-5.49033e-19 1.02666e-18 -0.015625)
(-7.40188e-19 8.99175e-19 -0.0156134)
(-9.36124e-19 6.44736e-19 -0.0156013)
(-1.10112e-18 3.86681e-19 -0.0155886)
(8.65641e-20 1.53138e-19 -0.0155639)
(1.04489e-19 -1.94623e-20 -0.015577)
(-3.55345e-20 -3.39803e-20 -0.0155895)
(-3.58163e-19 -1.09045e-19 -0.0156014)
(-5.10948e-19 -6.71603e-19 -0.0156128)
(-4.7194e-19 -6.32827e-19 -0.0156236)
(1.59689e-20 -3.55915e-19 -0.0156338)
(3.88956e-19 2.41862e-19 -0.0156435)
(5.96383e-19 3.43158e-19 -0.0156527)
(5.55803e-19 5.02318e-19 -0.0156613)
(7.06937e-19 3.86511e-19 -0.0156693)
(8.72646e-19 -3.0229e-19 -0.0156767)
(1.0989e-18 -9.04225e-19 -0.0156837)
(1.35727e-18 -2.64522e-19 -0.01569)
(1.29184e-18 4.5015e-19 -0.0156958)
(9.58132e-19 2.50702e-19 -0.0157011)
(4.82212e-19 -2.60665e-19 -0.0157058)
(7.22081e-19 -9.23666e-20 -0.01571)
(8.19926e-19 2.3336e-20 -0.0157137)
(5.8164e-19 -2.68315e-19 -0.0157168)
(7.28204e-19 -1.81583e-19 -0.0157194)
(6.77255e-19 -3.65053e-19 -0.0157215)
(3.6123e-19 -5.21414e-19 -0.015723)
(9.81505e-20 -8.45577e-19 -0.0157241)
(4.54093e-20 -4.76202e-19 -0.0157246)
(3.41377e-19 4.35503e-20 -0.0157246)
(6.01899e-20 -3.22384e-19 -0.0157241)
(-9.93518e-19 -7.74869e-19 -0.015723)
(-1.28174e-18 -6.38026e-19 -0.0157215)
(-1.65267e-18 -3.54621e-19 -0.0157194)
(-2.03639e-18 -1.7253e-19 -0.0157168)
(-1.65502e-18 -5.62142e-20 -0.0157137)
(-1.52323e-18 -5.68759e-20 -0.01571)
(-1.57813e-18 -4.54081e-19 -0.0157058)
(-1.8487e-18 -1.09102e-19 -0.0157011)
(-1.63375e-18 4.3367e-20 -0.0156958)
(-1.77253e-18 -1.82125e-19 -0.01569)
(-2.80534e-18 1.29237e-19 -0.0156837)
(-2.6401e-18 8.35784e-19 -0.0156767)
(-1.85918e-18 1.25595e-18 -0.0156693)
(-1.66876e-18 1.49238e-18 -0.0156613)
(-1.2616e-18 9.06592e-19 -0.0156527)
(-1.14766e-18 4.88014e-19 -0.0156435)
(-1.52369e-18 1.27545e-18 -0.0156338)
(-1.08329e-18 1.60941e-18 -0.0156236)
(-6.01655e-19 1.2066e-18 -0.0156128)
(-6.45399e-19 9.25732e-19 -0.0156014)
(-1.0078e-18 7.30761e-19 -0.0155895)
(-1.19286e-18 3.96433e-19 -0.015577)
(-1.12178e-18 2.23349e-19 -0.0155639)
(-3.75391e-20 9.05141e-20 -0.0155385)
(5.35753e-20 -5.65616e-20 -0.0155519)
(2.27254e-20 -1.83189e-19 -0.0155647)
(-4.54111e-19 -2.8561e-19 -0.015577)
(-7.47152e-19 -4.85582e-19 -0.0155887)
(-6.75323e-19 -9.87135e-20 -0.0155999)
(-2.56756e-19 3.35789e-19 -0.0156105)
(2.71813e-19 2.20005e-19 -0.0156205)
(6.72472e-19 3.70782e-19 -0.01563)
(6.93242e-19 6.4991e-19 -0.0156389)
(3.77564e-19 5.65836e-19 -0.0156472)
(2.69703e-19 7.60417e-20 -0.0156549)
(8.30751e-19 9.16046e-20 -0.0156621)
(1.56874e-18 5.90775e-19 -0.0156687)
(1.39848e-18 7.87319e-19 -0.0156748)
(8.04802e-19 1.8524e-19 -0.0156803)
(3.55631e-19 -9.67005e-20 -0.0156852)
(6.70568e-19 2.75581e-19 -0.0156896)
(6.33944e-19 2.10976e-19 -0.0156934)
(4.20645e-19 -6.96476e-20 -0.0156967)
(6.92636e-19 1.66618e-20 -0.0156994)
(6.10759e-19 2.90718e-20 -0.0157015)
(1.04583e-19 -1.1437e-19 -0.0157032)
(-1.01645e-19 -5.94858e-19 -0.0157043)
(3.67259e-19 -5.95957e-19 -0.0157048)
(5.48977e-19 -1.76114e-19 -0.0157048)