/*--------------------------------*- C++ -*----------------------------------*\
  =========                 |
  \\      /  F ield         | OpenFOAM: The Open Source CFD Toolbox
   \\    /   O peration     | Website:  https://openfoam.org
    \\  /    A nd           | Version:  7
     \\/     M anipulation  |
\*---------------------------------------------------------------------------*/
FoamFile
{
    version     2.0;
    format      ascii;
    class       volScalarField;
    location    "232000";
    object      p;
}
// * * * * * * * * * * * * * * * * * * * * * * * * * * * * * * * * * * * * * //

dimensions      [0 2 -2 0 0 0 0];

internalField   nonuniform List<scalar> 
4825
(
-1.38319e-18
-1.37859e-18
-1.38031e-18
-1.37537e-18
-1.38805e-18
-1.38668e-18
-1.40269e-18
-1.38188e-18
-1.36968e-18
-1.38794e-18
-1.38197e-18
-1.39946e-18
-1.38031e-18
-1.37235e-18
-1.38055e-18
-1.38135e-18
-1.39261e-18
-1.3875e-18
-1.3866e-18
-1.38312e-18
-1.38706e-18
-1.39622e-18
-1.39795e-18
-1.3784e-18
-1.39511e-18
-1.39156e-18
-1.40037e-18
-1.38808e-18
-1.36876e-18
-1.38512e-18
-1.39055e-18
-1.39974e-18
-1.38037e-18
-1.36803e-18
-1.38472e-18
-1.38428e-18
-1.40172e-18
-1.38057e-18
-1.35977e-18
-1.38761e-18
-1.37787e-18
-1.39711e-18
-1.39108e-18
-1.35554e-18
-1.38839e-18
-1.38228e-18
-1.39222e-18
-1.39671e-18
-1.36489e-18
-1.38072e-18
-1.38144e-18
-1.39491e-18
-1.39038e-18
-1.37548e-18
-1.38948e-18
-1.38535e-18
-1.39468e-18
-1.38411e-18
-1.38362e-18
-1.39304e-18
-1.38569e-18
-1.39105e-18
-1.3899e-18
-1.37876e-18
-1.39152e-18
-1.38255e-18
-1.3849e-18
-1.37605e-18
-1.38838e-18
-1.38258e-18
-1.38845e-18
-1.36812e-18
-1.38823e-18
-1.37651e-18
-1.38113e-18
-1.37299e-18
-1.38341e-18
-1.38703e-18
-1.37582e-18
-1.38946e-18
-1.37833e-18
-1.37573e-18
-1.38143e-18
-1.3756e-18
-1.3846e-18
-1.37755e-18
-1.38293e-18
-1.38107e-18
-1.37205e-18
-1.37628e-18
-1.38267e-18
-1.30669e-18
-1.31195e-18
-1.32097e-18
-1.2982e-18
-1.33549e-18
-1.30665e-18
-1.31343e-18
-1.31238e-18
-1.32107e-18
-1.32825e-18
-1.34673e-18
-1.35734e-18
-1.37983e-18
-1.37191e-18
-1.38779e-18
-1.36576e-18
-1.39892e-18
-1.3807e-18
-1.38921e-18
-1.37028e-18
-1.29911e-18
-1.30317e-18
-1.32049e-18
-1.31383e-18
-1.32691e-18
-1.30377e-18
-1.31726e-18
-1.31225e-18
-1.31688e-18
-1.32958e-18
-1.34327e-18
-1.35626e-18
-1.37834e-18
-1.37055e-18
-1.39322e-18
-1.37862e-18
-1.39958e-18
-1.38707e-18
-1.39721e-18
-1.36954e-18
-1.30494e-18
-1.31324e-18
-1.32608e-18
-1.31639e-18
-1.32917e-18
-1.31085e-18
-1.32157e-18
-1.31186e-18
-1.32359e-18
-1.32949e-18
-1.3399e-18
-1.34659e-18
-1.36799e-18
-1.37524e-18
-1.39271e-18
-1.38601e-18
-1.39849e-18
-1.38563e-18
-1.39928e-18
-1.3747e-18
-1.3144e-18
-1.31502e-18
-1.32549e-18
-1.32106e-18
-1.3187e-18
-1.30884e-18
-1.31687e-18
-1.31492e-18
-1.33313e-18
-1.32797e-18
-1.33533e-18
-1.35174e-18
-1.3692e-18
-1.37817e-18
-1.39846e-18
-1.38584e-18
-1.39957e-18
-1.38481e-18
-1.39555e-18
-1.37467e-18
-1.31487e-18
-1.30862e-18
-1.32259e-18
-1.31897e-18
-1.31928e-18
-1.30905e-18
-1.30981e-18
-1.30656e-18
-1.33509e-18
-1.32751e-18
-1.33867e-18
-1.35272e-18
-1.37608e-18
-1.38211e-18
-1.39829e-18
-1.389e-18
-1.40012e-18
-1.3819e-18
-1.39281e-18
-1.37249e-18
-1.31077e-18
-1.31101e-18
-1.31102e-18
-1.31017e-18
-1.3201e-18
-1.31037e-18
-1.29636e-18
-1.30805e-18
-1.33661e-18
-1.33588e-18
-1.33791e-18
-1.35211e-18
-1.37263e-18
-1.38037e-18
-1.39211e-18
-1.38618e-18
-1.40016e-18
-1.37687e-18
-1.39099e-18
-1.37772e-18
-1.31338e-18
-1.30694e-18
-1.31644e-18
-1.32327e-18
-1.31883e-18
-1.29877e-18
-1.30071e-18
-1.30908e-18
-1.32968e-18
-1.33355e-18
-1.33949e-18
-1.35267e-18
-1.37485e-18
-1.38648e-18
-1.40373e-18
-1.38553e-18
-1.40386e-18
-1.38287e-18
-1.38729e-18
-1.37312e-18
-1.30624e-18
-1.32161e-18
-1.31421e-18
-1.31853e-18
-1.32444e-18
-1.29964e-18
-1.3061e-18
-1.30856e-18
-1.32584e-18
-1.32858e-18
-1.34604e-18
-1.36212e-18
-1.3708e-18
-1.38974e-18
-1.40044e-18
-1.38657e-18
-1.39021e-18
-1.38288e-18
-1.39595e-18
-1.3734e-18
-1.37187e-18
-1.36637e-18
-1.3587e-18
-1.36572e-18
-1.37964e-18
-1.36757e-18
-1.36474e-18
-1.38195e-18
-1.3635e-18
-1.36007e-18
-1.3466e-18
-1.35809e-18
-1.35438e-18
-1.35168e-18
-1.36053e-18
-1.29389e-18
-1.31267e-18
-1.31054e-18
-1.31632e-18
-1.31801e-18
-1.29717e-18
-1.32675e-18
-1.31029e-18
-1.32881e-18
-1.32076e-18
-1.34481e-18
-1.37035e-18
-1.37428e-18
-1.38545e-18
-1.39652e-18
-1.38977e-18
-1.38219e-18
-1.38107e-18
-1.39894e-18
-1.37574e-18
-1.37394e-18
-1.37237e-18
-1.36202e-18
-1.35832e-18
-1.37262e-18
-1.36314e-18
-1.37074e-18
-1.38092e-18
-1.36633e-18
-1.35694e-18
-1.35131e-18
-1.35518e-18
-1.35564e-18
-1.35096e-18
-1.35528e-18
-1.36179e-18
-1.36173e-18
-1.30795e-18
-1.3142e-18
-1.31542e-18
-1.31549e-18
-1.32335e-18
-1.31856e-18
-1.33318e-18
-1.30872e-18
-1.3437e-18
-1.31989e-18
-1.34609e-18
-1.3562e-18
-1.37374e-18
-1.38505e-18
-1.39054e-18
-1.38785e-18
-1.39071e-18
-1.37884e-18
-1.38629e-18
-1.37752e-18
-1.37982e-18
-1.36954e-18
-1.36257e-18
-1.35827e-18
-1.37013e-18
-1.36988e-18
-1.37276e-18
-1.37795e-18
-1.36643e-18
-1.36271e-18
-1.35188e-18
-1.34856e-18
-1.35317e-18
-1.34111e-18
-1.35898e-18
-1.36372e-18
-1.3558e-18
-1.36022e-18
-1.30825e-18
-1.31706e-18
-1.31907e-18
-1.31202e-18
-1.34238e-18
-1.30972e-18
-1.32682e-18
-1.30089e-18
-1.33608e-18
-1.31916e-18
-1.3602e-18
-1.35332e-18
-1.38084e-18
-1.38104e-18
-1.3836e-18
-1.37955e-18
-1.38941e-18
-1.37997e-18
-1.3805e-18
-1.38029e-18
-1.37457e-18
-1.36542e-18
-1.36306e-18
-1.35783e-18
-1.36923e-18
-1.3676e-18
-1.37343e-18
-1.37921e-18
-1.36761e-18
-1.36857e-18
-1.35099e-18
-1.34183e-18
-1.34862e-18
-1.34956e-18
-1.35288e-18
-1.36339e-18
-1.35467e-18
-1.3611e-18
-1.35827e-18
-1.35622e-18
-1.30601e-18
-1.31635e-18
-1.32527e-18
-1.31389e-18
-1.33699e-18
-1.3061e-18
-1.32024e-18
-1.29308e-18
-1.33577e-18
-1.3233e-18
-1.35305e-18
-1.35219e-18
-1.38846e-18
-1.37335e-18
-1.38556e-18
-1.38344e-18
-1.38856e-18
-1.3846e-18
-1.38227e-18
-1.37569e-18
-1.36823e-18
-1.36618e-18
-1.35862e-18
-1.35576e-18
-1.36864e-18
-1.36518e-18
-1.37533e-18
-1.37462e-18
-1.36599e-18
-1.36481e-18
-1.35988e-18
-1.34601e-18
-1.34054e-18
-1.35288e-18
-1.34298e-18
-1.3598e-18
-1.35446e-18
-1.35723e-18
-1.3552e-18
-1.35806e-18
-1.35962e-18
-1.34059e-18
-1.31421e-18
-1.30974e-18
-1.32698e-18
-1.31154e-18
-1.32799e-18
-1.30162e-18
-1.32418e-18
-1.30685e-18
-1.33057e-18
-1.31803e-18
-1.35635e-18
-1.34786e-18
-1.38004e-18
-1.37126e-18
-1.39512e-18
-1.39081e-18
-1.39038e-18
-1.37933e-18
-1.37431e-18
-1.37485e-18
-1.36801e-18
-1.36829e-18
-1.35292e-18
-1.35461e-18
-1.36966e-18
-1.36249e-18
-1.37869e-18
-1.37273e-18
-1.36914e-18
-1.36241e-18
-1.35165e-18
-1.34749e-18
-1.34442e-18
-1.35051e-18
-1.33751e-18
-1.35186e-18
-1.35408e-18
-1.35959e-18
-1.35085e-18
-1.35506e-18
-1.36143e-18
-1.34135e-18
-1.35818e-18
-1.34157e-18
-1.35984e-18
-1.31324e-18
-1.3157e-18
-1.33044e-18
-1.31574e-18
-1.32585e-18
-1.29857e-18
-1.32998e-18
-1.3161e-18
-1.32503e-18
-1.30462e-18
-1.34858e-18
-1.34756e-18
-1.38218e-18
-1.38537e-18
-1.38709e-18
-1.39076e-18
-1.39241e-18
-1.37281e-18
-1.37481e-18
-1.37783e-18
-1.36885e-18
-1.36465e-18
-1.35178e-18
-1.35439e-18
-1.37237e-18
-1.36661e-18
-1.37641e-18
-1.3696e-18
-1.36746e-18
-1.36013e-18
-1.35188e-18
-1.34773e-18
-1.34201e-18
-1.35099e-18
-1.34722e-18
-1.34909e-18
-1.35363e-18
-1.35141e-18
-1.34988e-18
-1.34847e-18
-1.36016e-18
-1.33657e-18
-1.35048e-18
-1.32761e-18
-1.36224e-18
-1.35084e-18
-1.3779e-18
-1.31238e-18
-1.31672e-18
-1.32743e-18
-1.31943e-18
-1.32794e-18
-1.30615e-18
-1.319e-18
-1.31774e-18
-1.32838e-18
-1.31255e-18
-1.34061e-18
-1.35245e-18
-1.38491e-18
-1.38152e-18
-1.39102e-18
-1.38601e-18
-1.39247e-18
-1.36952e-18
-1.38604e-18
-1.37385e-18
-1.36361e-18
-1.36124e-18
-1.35513e-18
-1.35386e-18
-1.37074e-18
-1.36317e-18
-1.3769e-18
-1.37119e-18
-1.36472e-18
-1.35551e-18
-1.35082e-18
-1.33963e-18
-1.34291e-18
-1.3422e-18
-1.34597e-18
-1.3463e-18
-1.34976e-18
-1.3528e-18
-1.35365e-18
-1.34759e-18
-1.35489e-18
-1.33935e-18
-1.34945e-18
-1.33498e-18
-1.36198e-18
-1.3533e-18
-1.36866e-18
-1.36094e-18
-1.40091e-18
-1.38024e-18
-1.31157e-18
-1.31422e-18
-1.32707e-18
-1.31129e-18
-1.34201e-18
-1.30844e-18
-1.32574e-18
-1.3249e-18
-1.33913e-18
-1.32189e-18
-1.33656e-18
-1.35338e-18
-1.3883e-18
-1.37983e-18
-1.38347e-18
-1.37405e-18
-1.39312e-18
-1.37608e-18
-1.38002e-18
-1.36636e-18
-1.36654e-18
-1.3544e-18
-1.35597e-18
-1.34589e-18
-1.36608e-18
-1.35934e-18
-1.37187e-18
-1.37042e-18
-1.36325e-18
-1.35911e-18
-1.344e-18
-1.34431e-18
-1.34035e-18
-1.34284e-18
-1.35303e-18
-1.35286e-18
-1.35181e-18
-1.35538e-18
-1.35633e-18
-1.3546e-18
-1.35127e-18
-1.33697e-18
-1.33731e-18
-1.32651e-18
-1.36351e-18
-1.34838e-18
-1.36681e-18
-1.36066e-18
-1.39932e-18
-1.38128e-18
-1.30967e-18
-1.31155e-18
-1.33057e-18
-1.31714e-18
-1.33547e-18
-1.30982e-18
-1.3293e-18
-1.3123e-18
-1.332e-18
-1.31564e-18
-1.34287e-18
-1.3482e-18
-1.39015e-18
-1.3814e-18
-1.38322e-18
-1.37677e-18
-1.38749e-18
-1.37984e-18
-1.37095e-18
-1.36917e-18
-1.36735e-18
-1.35439e-18
-1.3547e-18
-1.34326e-18
-1.36435e-18
-1.36219e-18
-1.37767e-18
-1.36744e-18
-1.3664e-18
-1.35938e-18
-1.34512e-18
-1.34552e-18
-1.34002e-18
-1.34796e-18
-1.34976e-18
-1.3501e-18
-1.35489e-18
-1.35452e-18
-1.36248e-18
-1.35005e-18
-1.35821e-18
-1.34463e-18
-1.34147e-18
-1.32413e-18
-1.35002e-18
-1.34067e-18
-1.35528e-18
-1.36076e-18
-1.39535e-18
-1.38757e-18
-1.31217e-18
-1.30642e-18
-1.33231e-18
-1.31129e-18
-1.33311e-18
-1.30705e-18
-1.32335e-18
-1.31501e-18
-1.32558e-18
-1.31322e-18
-1.34043e-18
-1.33905e-18
-1.37923e-18
-1.37935e-18
-1.38199e-18
-1.3803e-18
-1.39258e-18
-1.37671e-18
-1.3676e-18
-1.37539e-18
-1.36492e-18
-1.35988e-18
-1.35138e-18
-1.34351e-18
-1.36308e-18
-1.36811e-18
-1.37928e-18
-1.37008e-18
-1.36846e-18
-1.35863e-18
-1.35284e-18
-1.34338e-18
-1.33944e-18
-1.3394e-18
-1.34427e-18
-1.34729e-18
-1.34777e-18
-1.35467e-18
-1.35868e-18
-1.34631e-18
-1.35188e-18
-1.34749e-18
-1.34358e-18
-1.34007e-18
-1.33837e-18
-1.33495e-18
-1.36522e-18
-1.35704e-18
-1.39433e-18
-1.38275e-18
-1.31145e-18
-1.31071e-18
-1.32492e-18
-1.31034e-18
-1.32604e-18
-1.30694e-18
-1.3234e-18
-1.32291e-18
-1.32856e-18
-1.31461e-18
-1.35192e-18
-1.35059e-18
-1.3703e-18
-1.36942e-18
-1.3876e-18
-1.37902e-18
-1.39134e-18
-1.37576e-18
-1.36965e-18
-1.37507e-18
-1.36129e-18
-1.35743e-18
-1.34809e-18
-1.34439e-18
-1.36322e-18
-1.37044e-18
-1.37556e-18
-1.368e-18
-1.36612e-18
-1.36349e-18
-1.34693e-18
-1.34117e-18
-1.33201e-18
-1.33312e-18
-1.3434e-18
-1.34569e-18
-1.34401e-18
-1.35822e-18
-1.34736e-18
-1.33897e-18
-1.34915e-18
-1.34475e-18
-1.34344e-18
-1.34137e-18
-1.35118e-18
-1.34421e-18
-1.37893e-18
-1.35696e-18
-1.38859e-18
-1.37353e-18
-1.32028e-18
-1.32659e-18
-1.32781e-18
-1.31759e-18
-1.32831e-18
-1.30846e-18
-1.31717e-18
-1.31418e-18
-1.32742e-18
-1.30965e-18
-1.34514e-18
-1.34948e-18
-1.36847e-18
-1.37371e-18
-1.37806e-18
-1.3763e-18
-1.38837e-18
-1.37133e-18
-1.3659e-18
-1.37174e-18
-1.3676e-18
-1.35175e-18
-1.3537e-18
-1.34151e-18
-1.36245e-18
-1.3627e-18
-1.37435e-18
-1.36137e-18
-1.36717e-18
-1.36069e-18
-1.34315e-18
-1.34016e-18
-1.33343e-18
-1.34681e-18
-1.33712e-18
-1.35195e-18
-1.34446e-18
-1.35771e-18
-1.34609e-18
-1.34796e-18
-1.34889e-18
-1.3409e-18
-1.3499e-18
-1.34575e-18
-1.35319e-18
-1.34183e-18
-1.37381e-18
-1.36032e-18
-1.37391e-18
-1.37277e-18
-1.33216e-18
-1.32005e-18
-1.34042e-18
-1.3234e-18
-1.33103e-18
-1.30524e-18
-1.31984e-18
-1.3064e-18
-1.3192e-18
-1.31801e-18
-1.33896e-18
-1.34162e-18
-1.37563e-18
-1.37359e-18
-1.38299e-18
-1.38107e-18
-1.38045e-18
-1.36896e-18
-1.36202e-18
-1.36643e-18
-1.3652e-18
-1.35357e-18
-1.35396e-18
-1.34362e-18
-1.36315e-18
-1.36039e-18
-1.37247e-18
-1.36665e-18
-1.37393e-18
-1.35923e-18
-1.34578e-18
-1.34364e-18
-1.3312e-18
-1.34422e-18
-1.33709e-18
-1.34426e-18
-1.34675e-18
-1.34887e-18
-1.35225e-18
-1.35682e-18
-1.34659e-18
-1.34443e-18
-1.35754e-18
-1.33803e-18
-1.36082e-18
-1.34524e-18
-1.37584e-18
-1.35044e-18
-1.38088e-18
-1.37079e-18
-1.32264e-18
-1.31001e-18
-1.32919e-18
-1.32455e-18
-1.33102e-18
-1.31734e-18
-1.33139e-18
-1.31643e-18
-1.33905e-18
-1.32273e-18
-1.34817e-18
-1.34518e-18
-1.37034e-18
-1.37006e-18
-1.38695e-18
-1.3771e-18
-1.38365e-18
-1.37199e-18
-1.37213e-18
-1.36236e-18
-1.36193e-18
-1.353e-18
-1.35221e-18
-1.34522e-18
-1.36638e-18
-1.36222e-18
-1.36873e-18
-1.36511e-18
-1.36354e-18
-1.35993e-18
-1.35362e-18
-1.3418e-18
-1.33292e-18
-1.33983e-18
-1.33791e-18
-1.33782e-18
-1.34254e-18
-1.35198e-18
-1.35187e-18
-1.35185e-18
-1.34097e-18
-1.32632e-18
-1.34215e-18
-1.33191e-18
-1.34987e-18
-1.34476e-18
-1.37653e-18
-1.36091e-18
-1.38415e-18
-1.37766e-18
-1.31572e-18
-1.30896e-18
-1.32776e-18
-1.31721e-18
-1.33336e-18
-1.31947e-18
-1.32855e-18
-1.31528e-18
-1.33185e-18
-1.31094e-18
-1.34076e-18
-1.35147e-18
-1.36552e-18
-1.36206e-18
-1.38275e-18
-1.37828e-18
-1.37961e-18
-1.37158e-18
-1.37476e-18
-1.36036e-18
-1.36527e-18
-1.35553e-18
-1.34844e-18
-1.34634e-18
-1.36568e-18
-1.36494e-18
-1.37166e-18
-1.36571e-18
-1.35977e-18
-1.36067e-18
-1.35179e-18
-1.33673e-18
-1.33115e-18
-1.34418e-18
-1.33229e-18
-1.33992e-18
-1.33938e-18
-1.35413e-18
-1.34512e-18
-1.35028e-18
-1.34813e-18
-1.33537e-18
-1.34519e-18
-1.33489e-18
-1.34566e-18
-1.34275e-18
-1.37269e-18
-1.36142e-18
-1.38673e-18
-1.37954e-18
-1.31556e-18
-1.30045e-18
-1.3298e-18
-1.31063e-18
-1.32887e-18
-1.30582e-18
-1.32192e-18
-1.31062e-18
-1.32943e-18
-1.31628e-18
-1.34832e-18
-1.35239e-18
-1.36418e-18
-1.35592e-18
-1.38004e-18
-1.3741e-18
-1.3821e-18
-1.36573e-18
-1.37763e-18
-1.36232e-18
-1.36774e-18
-1.35057e-18
-1.34889e-18
-1.34288e-18
-1.36105e-18
-1.36114e-18
-1.37792e-18
-1.36948e-18
-1.35488e-18
-1.35943e-18
-1.34585e-18
-1.33263e-18
-1.3323e-18
-1.34146e-18
-1.34014e-18
-1.34001e-18
-1.34548e-18
-1.35449e-18
-1.34766e-18
-1.35405e-18
-1.34703e-18
-1.34604e-18
-1.35259e-18
-1.33855e-18
-1.35713e-18
-1.34748e-18
-1.37151e-18
-1.35942e-18
-1.39632e-18
-1.37618e-18
-1.32555e-18
-1.29603e-18
-1.32991e-18
-1.31579e-18
-1.324e-18
-1.30402e-18
-1.32287e-18
-1.31277e-18
-1.32952e-18
-1.32296e-18
-1.34692e-18
-1.34289e-18
-1.37036e-18
-1.36389e-18
-1.37573e-18
-1.37704e-18
-1.38595e-18
-1.36164e-18
-1.37357e-18
-1.36395e-18
-1.36425e-18
-1.3465e-18
-1.3473e-18
-1.3412e-18
-1.35885e-18
-1.35714e-18
-1.37505e-18
-1.3691e-18
-1.36126e-18
-1.36056e-18
-1.34208e-18
-1.3357e-18
-1.33225e-18
-1.3327e-18
-1.3437e-18
-1.34209e-18
-1.34627e-18
-1.34889e-18
-1.35822e-18
-1.34664e-18
-1.34998e-18
-1.34215e-18
-1.35201e-18
-1.34275e-18
-1.36273e-18
-1.34965e-18
-1.3708e-18
-1.36037e-18
-1.39895e-18
-1.36657e-18
-1.33051e-18
-1.30478e-18
-1.32169e-18
-1.31462e-18
-1.32654e-18
-1.30874e-18
-1.3292e-18
-1.31353e-18
-1.32791e-18
-1.31499e-18
-1.33579e-18
-1.34326e-18
-1.3698e-18
-1.37048e-18
-1.3747e-18
-1.37164e-18
-1.38203e-18
-1.3653e-18
-1.37707e-18
-1.36028e-18
-1.36209e-18
-1.34634e-18
-1.34894e-18
-1.3392e-18
-1.358e-18
-1.35807e-18
-1.3736e-18
-1.36566e-18
-1.36643e-18
-1.35782e-18
-1.34332e-18
-1.33251e-18
-1.33009e-18
-1.33211e-18
-1.34535e-18
-1.34099e-18
-1.34401e-18
-1.3453e-18
-1.35266e-18
-1.36346e-18
-1.35403e-18
-1.3431e-18
-1.34564e-18
-1.3405e-18
-1.36265e-18
-1.34088e-18
-1.3725e-18
-1.36662e-18
-1.38607e-18
-1.36334e-18
-1.32436e-18
-1.31485e-18
-1.33001e-18
-1.3196e-18
-1.32694e-18
-1.31538e-18
-1.32502e-18
-1.31787e-18
-1.33065e-18
-1.31567e-18
-1.34397e-18
-1.34437e-18
-1.36759e-18
-1.3699e-18
-1.37278e-18
-1.37019e-18
-1.37145e-18
-1.37055e-18
-1.37281e-18
-1.36452e-18
-1.35818e-18
-1.3439e-18
-1.35072e-18
-1.34497e-18
-1.3564e-18
-1.3547e-18
-1.3725e-18
-1.37028e-18
-1.36555e-18
-1.35722e-18
-1.34348e-18
-1.32926e-18
-1.32587e-18
-1.3344e-18
-1.33409e-18
-1.34081e-18
-1.33275e-18
-1.34569e-18
-1.34513e-18
-1.35432e-18
-1.35106e-18
-1.34386e-18
-1.34243e-18
-1.33496e-18
-1.35178e-18
-1.34731e-18
-1.36924e-18
-1.3573e-18
-1.37972e-18
-1.36439e-18
-1.31811e-18
-1.32253e-18
-1.33324e-18
-1.32046e-18
-1.32611e-18
-1.31681e-18
-1.32258e-18
-1.31409e-18
-1.32979e-18
-1.3158e-18
-1.3386e-18
-1.3511e-18
-1.36172e-18
-1.36336e-18
-1.37494e-18
-1.3687e-18
-1.37003e-18
-1.3727e-18
-1.37176e-18
-1.36267e-18
-1.35544e-18
-1.34622e-18
-1.34664e-18
-1.34441e-18
-1.358e-18
-1.35513e-18
-1.37469e-18
-1.37587e-18
-1.36373e-18
-1.3517e-18
-1.34364e-18
-1.3289e-18
-1.32854e-18
-1.32981e-18
-1.33483e-18
-1.33784e-18
-1.33724e-18
-1.3512e-18
-1.33857e-18
-1.35336e-18
-1.35015e-18
-1.33963e-18
-1.34862e-18
-1.33992e-18
-1.35445e-18
-1.35093e-18
-1.36832e-18
-1.35301e-18
-1.37584e-18
-1.36591e-18
-1.32416e-18
-1.31774e-18
-1.33101e-18
-1.31823e-18
-1.33262e-18
-1.30848e-18
-1.32563e-18
-1.31007e-18
-1.32446e-18
-1.31354e-18
-1.33538e-18
-1.34998e-18
-1.36776e-18
-1.36169e-18
-1.37435e-18
-1.37009e-18
-1.37058e-18
-1.367e-18
-1.37378e-18
-1.35589e-18
-1.35671e-18
-1.34542e-18
-1.34462e-18
-1.34365e-18
-1.35783e-18
-1.36119e-18
-1.37808e-18
-1.37365e-18
-1.36292e-18
-1.35409e-18
-1.34882e-18
-1.33328e-18
-1.33705e-18
-1.32719e-18
-1.33167e-18
-1.33888e-18
-1.34148e-18
-1.34525e-18
-1.34149e-18
-1.35165e-18
-1.3508e-18
-1.34296e-18
-1.35638e-18
-1.33828e-18
-1.36064e-18
-1.3466e-18
-1.37017e-18
-1.35403e-18
-1.3771e-18
-1.36334e-18
-1.31921e-18
-1.31515e-18
-1.32767e-18
-1.31949e-18
-1.32395e-18
-1.31396e-18
-1.31811e-18
-1.32001e-18
-1.33284e-18
-1.31857e-18
-1.34377e-18
-1.3378e-18
-1.36055e-18
-1.36078e-18
-1.36626e-18
-1.3685e-18
-1.36924e-18
-1.36804e-18
-1.37219e-18
-1.35676e-18
-1.36104e-18
-1.34255e-18
-1.35336e-18
-1.34271e-18
-1.35682e-18
-1.35822e-18
-1.36999e-18
-1.36569e-18
-1.3621e-18
-1.35252e-18
-1.34432e-18
-1.33639e-18
-1.33203e-18
-1.33413e-18
-1.32658e-18
-1.34286e-18
-1.3389e-18
-1.3491e-18
-1.35283e-18
-1.34579e-18
-1.34244e-18
-1.33981e-18
-1.35252e-18
-1.34329e-18
-1.35252e-18
-1.35133e-18
-1.36915e-18
-1.36255e-18
-1.37734e-18
-1.37058e-18
-1.32265e-18
-1.30739e-18
-1.32782e-18
-1.31228e-18
-1.31787e-18
-1.31502e-18
-1.321e-18
-1.31425e-18
-1.32921e-18
-1.32167e-18
-1.34392e-18
-1.33729e-18
-1.36602e-18
-1.35175e-18
-1.36499e-18
-1.36791e-18
-1.37368e-18
-1.36517e-18
-1.37087e-18
-1.35738e-18
-1.35982e-18
-1.3432e-18
-1.34782e-18
-1.3434e-18
-1.36174e-18
-1.36381e-18
-1.37278e-18
-1.36648e-18
-1.36328e-18
-1.35382e-18
-1.34372e-18
-1.33462e-18
-1.33274e-18
-1.33057e-18
-1.32986e-18
-1.3394e-18
-1.33903e-18
-1.34301e-18
-1.3509e-18
-1.34798e-18
-1.33937e-18
-1.3445e-18
-1.3527e-18
-1.3429e-18
-1.35301e-18
-1.36089e-18
-1.37486e-18
-1.36106e-18
-1.38467e-18
-1.36559e-18
-1.31506e-18
-1.31339e-18
-1.32335e-18
-1.31543e-18
-1.31835e-18
-1.31412e-18
-1.32168e-18
-1.31433e-18
-1.32818e-18
-1.31374e-18
-1.35136e-18
-1.33919e-18
-1.36349e-18
-1.35331e-18
-1.3648e-18
-1.36635e-18
-1.37257e-18
-1.36408e-18
-1.37169e-18
-1.35497e-18
-1.35602e-18
-1.34454e-18
-1.34437e-18
-1.34192e-18
-1.3611e-18
-1.3645e-18
-1.37192e-18
-1.36533e-18
-1.36262e-18
-1.35984e-18
-1.34784e-18
-1.32713e-18
-1.33345e-18
-1.32799e-18
-1.33532e-18
-1.34174e-18
-1.33912e-18
-1.34116e-18
-1.34539e-18
-1.34277e-18
-1.34964e-18
-1.34262e-18
-1.34846e-18
-1.34367e-18
-1.35443e-18
-1.35929e-18
-1.37075e-18
-1.3633e-18
-1.38056e-18
-1.36161e-18
-1.3204e-18
-1.31697e-18
-1.32759e-18
-1.32693e-18
-1.31935e-18
-1.31358e-18
-1.32613e-18
-1.31238e-18
-1.33112e-18
-1.30993e-18
-1.34229e-18
-1.33975e-18
-1.35633e-18
-1.35323e-18
-1.36242e-18
-1.37126e-18
-1.37305e-18
-1.36653e-18
-1.36998e-18
-1.35192e-18
-1.35288e-18
-1.34574e-18
-1.35033e-18
-1.34301e-18
-1.36159e-18
-1.3586e-18
-1.37217e-18
-1.36321e-18
-1.36244e-18
-1.3561e-18
-1.35154e-18
-1.32502e-18
-1.33148e-18
-1.32762e-18
-1.33561e-18
-1.34322e-18
-1.34284e-18
-1.34577e-18
-1.34645e-18
-1.34806e-18
-1.35305e-18
-1.34016e-18
-1.3453e-18
-1.33885e-18
-1.35498e-18
-1.34639e-18
-1.3584e-18
-1.35991e-18
-1.37997e-18
-1.36309e-18
-1.31177e-18
-1.31816e-18
-1.32482e-18
-1.33303e-18
-1.323e-18
-1.31419e-18
-1.3241e-18
-1.30745e-18
-1.32859e-18
-1.31598e-18
-1.34499e-18
-1.33377e-18
-1.35401e-18
-1.34983e-18
-1.36099e-18
-1.37206e-18
-1.36538e-18
-1.36655e-18
-1.36532e-18
-1.35238e-18
-1.34805e-18
-1.35092e-18
-1.35541e-18
-1.3461e-18
-1.35909e-18
-1.3549e-18
-1.36807e-18
-1.36563e-18
-1.35957e-18
-1.35468e-18
-1.34671e-18
-1.33037e-18
-1.33286e-18
-1.33215e-18
-1.33226e-18
-1.34066e-18
-1.34602e-18
-1.34805e-18
-1.35246e-18
-1.3397e-18
-1.35029e-18
-1.33756e-18
-1.34856e-18
-1.33833e-18
-1.35398e-18
-1.3494e-18
-1.35119e-18
-1.363e-18
-1.37538e-18
-1.37594e-18
-1.31471e-18
-1.31934e-18
-1.32123e-18
-1.32007e-18
-1.32439e-18
-1.31593e-18
-1.32719e-18
-1.31808e-18
-1.32864e-18
-1.31753e-18
-1.34539e-18
-1.33692e-18
-1.36225e-18
-1.34902e-18
-1.36317e-18
-1.36855e-18
-1.36675e-18
-1.36525e-18
-1.36448e-18
-1.35139e-18
-1.34773e-18
-1.34515e-18
-1.35105e-18
-1.34935e-18
-1.35908e-18
-1.35651e-18
-1.36465e-18
-1.3685e-18
-1.3617e-18
-1.35648e-18
-1.34248e-18
-1.33137e-18
-1.3302e-18
-1.3321e-18
-1.33382e-18
-1.34041e-18
-1.34649e-18
-1.34225e-18
-1.34743e-18
-1.33967e-18
-1.34338e-18
-1.33962e-18
-1.34582e-18
-1.33405e-18
-1.35058e-18
-1.35189e-18
-1.36703e-18
-1.36819e-18
-1.37097e-18
-1.37182e-18
-1.31834e-18
-1.32266e-18
-1.32413e-18
-1.31582e-18
-1.32286e-18
-1.31316e-18
-1.32609e-18
-1.31145e-18
-1.33195e-18
-1.32131e-18
-1.34177e-18
-1.34408e-18
-1.35844e-18
-1.34927e-18
-1.36762e-18
-1.36561e-18
-1.36722e-18
-1.36352e-18
-1.36643e-18
-1.34676e-18
-1.35142e-18
-1.34205e-18
-1.34863e-18
-1.34664e-18
-1.36054e-18
-1.35664e-18
-1.36088e-18
-1.36609e-18
-1.362e-18
-1.35344e-18
-1.34052e-18
-1.32825e-18
-1.33021e-18
-1.33205e-18
-1.33574e-18
-1.3384e-18
-1.34486e-18
-1.34479e-18
-1.34434e-18
-1.34259e-18
-1.33969e-18
-1.34068e-18
-1.35716e-18
-1.33821e-18
-1.35081e-18
-1.35207e-18
-1.3665e-18
-1.36901e-18
-1.37043e-18
-1.36602e-18
-1.31604e-18
-1.32678e-18
-1.32709e-18
-1.30855e-18
-1.32192e-18
-1.31404e-18
-1.32144e-18
-1.31655e-18
-1.33293e-18
-1.31657e-18
-1.34484e-18
-1.34237e-18
-1.34798e-18
-1.34753e-18
-1.36828e-18
-1.36661e-18
-1.36992e-18
-1.36175e-18
-1.3629e-18
-1.34677e-18
-1.3508e-18
-1.34279e-18
-1.34896e-18
-1.34468e-18
-1.35732e-18
-1.35624e-18
-1.3633e-18
-1.36512e-18
-1.36234e-18
-1.35181e-18
-1.34427e-18
-1.32723e-18
-1.33284e-18
-1.33068e-18
-1.33372e-18
-1.33421e-18
-1.34288e-18
-1.35119e-18
-1.34348e-18
-1.33816e-18
-1.35063e-18
-1.3403e-18
-1.3537e-18
-1.3433e-18
-1.35284e-18
-1.35214e-18
-1.37323e-18
-1.36393e-18
-1.36661e-18
-1.36303e-18
-1.30423e-18
-1.32104e-18
-1.31818e-18
-1.30652e-18
-1.3195e-18
-1.31896e-18
-1.32827e-18
-1.32266e-18
-1.33124e-18
-1.31616e-18
-1.35197e-18
-1.33764e-18
-1.34457e-18
-1.34775e-18
-1.37258e-18
-1.36797e-18
-1.3714e-18
-1.36207e-18
-1.35959e-18
-1.35177e-18
-1.34988e-18
-1.34294e-18
-1.34896e-18
-1.34302e-18
-1.35991e-18
-1.35578e-18
-1.36445e-18
-1.36681e-18
-1.36275e-18
-1.35233e-18
-1.33986e-18
-1.33117e-18
-1.33163e-18
-1.32928e-18
-1.33305e-18
-1.32872e-18
-1.34093e-18
-1.35466e-18
-1.34559e-18
-1.33532e-18
-1.35061e-18
-1.34013e-18
-1.35514e-18
-1.33765e-18
-1.34908e-18
-1.35494e-18
-1.3739e-18
-1.36626e-18
-1.37319e-18
-1.373e-18
-1.31525e-18
-1.32447e-18
-1.30948e-18
-1.31655e-18
-1.31355e-18
-1.31631e-18
-1.32565e-18
-1.31654e-18
-1.32729e-18
-1.31989e-18
-1.34064e-18
-1.32819e-18
-1.35469e-18
-1.33935e-18
-1.36486e-18
-1.36671e-18
-1.36832e-18
-1.36105e-18
-1.35935e-18
-1.35026e-18
-1.34988e-18
-1.34468e-18
-1.3478e-18
-1.34074e-18
-1.35797e-18
-1.35562e-18
-1.3635e-18
-1.36512e-18
-1.36151e-18
-1.35457e-18
-1.34185e-18
-1.33114e-18
-1.33344e-18
-1.32911e-18
-1.3371e-18
-1.33708e-18
-1.35078e-18
-1.3419e-18
-1.35269e-18
-1.34775e-18
-1.34749e-18
-1.3414e-18
-1.3502e-18
-1.34174e-18
-1.35323e-18
-1.36085e-18
-1.36662e-18
-1.37576e-18
-1.37324e-18
-1.36707e-18
-1.322e-18
-1.32047e-18
-1.32073e-18
-1.32249e-18
-1.31572e-18
-1.31689e-18
-1.32241e-18
-1.31606e-18
-1.32641e-18
-1.32168e-18
-1.34704e-18
-1.33133e-18
-1.35798e-18
-1.34729e-18
-1.36079e-18
-1.36506e-18
-1.36454e-18
-1.36208e-18
-1.35877e-18
-1.3487e-18
-1.35075e-18
-1.33876e-18
-1.34716e-18
-1.34373e-18
-1.35792e-18
-1.35537e-18
-1.36346e-18
-1.3656e-18
-1.36661e-18
-1.35053e-18
-1.34504e-18
-1.32975e-18
-1.3311e-18
-1.33049e-18
-1.33867e-18
-1.33689e-18
-1.3499e-18
-1.3362e-18
-1.35446e-18
-1.3435e-18
-1.34897e-18
-1.34211e-18
-1.34631e-18
-1.34521e-18
-1.35695e-18
-1.35741e-18
-1.36343e-18
-1.36562e-18
-1.37451e-18
-1.36545e-18
-1.32205e-18
-1.32789e-18
-1.32785e-18
-1.31972e-18
-1.32097e-18
-1.30987e-18
-1.31332e-18
-1.31345e-18
-1.33372e-18
-1.32239e-18
-1.33831e-18
-1.33367e-18
-1.35098e-18
-1.34961e-18
-1.36463e-18
-1.36225e-18
-1.36043e-18
-1.36024e-18
-1.36072e-18
-1.34747e-18
-1.35174e-18
-1.33977e-18
-1.3516e-18
-1.34404e-18
-1.35967e-18
-1.35503e-18
-1.36307e-18
-1.3632e-18
-1.36724e-18
-1.34935e-18
-1.34292e-18
-1.32534e-18
-1.33497e-18
-1.33096e-18
-1.34112e-18
-1.3333e-18
-1.3505e-18
-1.3417e-18
-1.3528e-18
-1.34121e-18
-1.34649e-18
-1.33588e-18
-1.34292e-18
-1.34692e-18
-1.36587e-18
-1.34961e-18
-1.36902e-18
-1.35912e-18
-1.37198e-18
-1.36132e-18
-1.31942e-18
-1.32904e-18
-1.32681e-18
-1.30915e-18
-1.32311e-18
-1.31107e-18
-1.32051e-18
-1.3119e-18
-1.33127e-18
-1.32447e-18
-1.33625e-18
-1.33419e-18
-1.35184e-18
-1.35175e-18
-1.36373e-18
-1.35949e-18
-1.36929e-18
-1.35235e-18
-1.3579e-18
-1.34651e-18
-1.3496e-18
-1.34056e-18
-1.35085e-18
-1.34333e-18
-1.35669e-18
-1.35458e-18
-1.36234e-18
-1.36201e-18
-1.36358e-18
-1.34809e-18
-1.34213e-18
-1.32887e-18
-1.33688e-18
-1.32161e-18
-1.34206e-18
-1.33036e-18
-1.34327e-18
-1.34415e-18
-1.35015e-18
-1.34001e-18
-1.34379e-18
-1.3403e-18
-1.34986e-18
-1.3426e-18
-1.35925e-18
-1.35026e-18
-1.37046e-18
-1.36377e-18
-1.36618e-18
-1.31866e-18
-1.32268e-18
-1.3217e-18
-1.30999e-18
-1.31772e-18
-1.31402e-18
-1.32734e-18
-1.31715e-18
-1.33023e-18
-1.32831e-18
-1.34335e-18
-1.33416e-18
-1.3489e-18
-1.34509e-18
-1.36535e-18
-1.36022e-18
-1.36751e-18
-1.35594e-18
-1.36005e-18
-1.34943e-18
-1.35159e-18
-1.34157e-18
-1.35146e-18
-1.34445e-18
-1.35508e-18
-1.35446e-18
-1.36209e-18
-1.36083e-18
-1.36132e-18
-1.34437e-18
-1.33823e-18
-1.32977e-18
-1.33656e-18
-1.32682e-18
-1.3381e-18
-1.33242e-18
-1.34612e-18
-1.34377e-18
-1.3512e-18
-1.34185e-18
-1.3404e-18
-1.34415e-18
-1.34983e-18
-1.34164e-18
-1.356e-18
-1.35567e-18
-1.37131e-18
-1.366e-18
-1.31679e-18
-1.31981e-18
-1.32498e-18
-1.3212e-18
-1.31703e-18
-1.31339e-18
-1.32739e-18
-1.3191e-18
-1.32894e-18
-1.32545e-18
-1.34512e-18
-1.33394e-18
-1.35312e-18
-1.34494e-18
-1.36676e-18
-1.36553e-18
-1.36396e-18
-1.35857e-18
-1.35915e-18
-1.35063e-18
-1.35247e-18
-1.34123e-18
-1.34866e-18
-1.34541e-18
-1.35556e-18
-1.35427e-18
-1.36152e-18
-1.35808e-18
-1.35924e-18
-1.34219e-18
-1.33558e-18
-1.33092e-18
-1.33051e-18
-1.33177e-18
-1.33473e-18
-1.33623e-18
-1.34556e-18
-1.33943e-18
-1.34927e-18
-1.34938e-18
-1.34394e-18
-1.3441e-18
-1.34914e-18
-1.34053e-18
-1.35444e-18
-1.35446e-18
-1.36214e-18
-1.32801e-18
-1.31772e-18
-1.322e-18
-1.32041e-18
-1.31488e-18
-1.31563e-18
-1.31862e-18
-1.31863e-18
-1.33604e-18
-1.33114e-18
-1.33876e-18
-1.33351e-18
-1.35405e-18
-1.34038e-18
-1.36794e-18
-1.36539e-18
-1.36358e-18
-1.35534e-18
-1.35871e-18
-1.34749e-18
-1.35035e-18
-1.34191e-18
-1.34599e-18
-1.34431e-18
-1.35767e-18
-1.35518e-18
-1.36105e-18
-1.36037e-18
-1.3612e-18
-1.34228e-18
-1.33644e-18
-1.32778e-18
-1.33031e-18
-1.32625e-18
-1.33372e-18
-1.33112e-18
-1.35008e-18
-1.34191e-18
-1.3501e-18
-1.35342e-18
-1.33869e-18
-1.33686e-18
-1.34856e-18
-1.35348e-18
-1.35783e-18
-1.35804e-18
-1.32022e-18
-1.31666e-18
-1.31369e-18
-1.31856e-18
-1.31709e-18
-1.3105e-18
-1.32362e-18
-1.31695e-18
-1.32691e-18
-1.32366e-18
-1.34005e-18
-1.33142e-18
-1.35034e-18
-1.34648e-18
-1.36369e-18
-1.35884e-18
-1.36476e-18
-1.35056e-18
-1.35992e-18
-1.34733e-18
-1.3472e-18
-1.34514e-18
-1.34455e-18
-1.3435e-18
-1.35606e-18
-1.35716e-18
-1.36139e-18
-1.36032e-18
-1.36061e-18
-1.34341e-18
-1.33768e-18
-1.32499e-18
-1.33168e-18
-1.32376e-18
-1.33658e-18
-1.32932e-18
-1.34384e-18
-1.35022e-18
-1.35208e-18
-1.3456e-18
-1.34829e-18
-1.34667e-18
-1.34878e-18
-1.34786e-18
-1.35937e-18
-1.31298e-18
-1.31313e-18
-1.31257e-18
-1.31393e-18
-1.31428e-18
-1.29705e-18
-1.32649e-18
-1.31735e-18
-1.32165e-18
-1.32567e-18
-1.33637e-18
-1.33136e-18
-1.35202e-18
-1.34643e-18
-1.36299e-18
-1.35862e-18
-1.36384e-18
-1.35276e-18
-1.36051e-18
-1.34782e-18
-1.346e-18
-1.34157e-18
-1.34912e-18
-1.34372e-18
-1.3568e-18
-1.35458e-18
-1.36065e-18
-1.35802e-18
-1.36166e-18
-1.34817e-18
-1.33894e-18
-1.32769e-18
-1.3309e-18
-1.32785e-18
-1.33693e-18
-1.3322e-18
-1.34366e-18
-1.34185e-18
-1.34454e-18
-1.34847e-18
-1.35046e-18
-1.3541e-18
-1.34973e-18
-1.33972e-18
-1.37016e-18
-1.31754e-18
-1.32286e-18
-1.32298e-18
-1.31885e-18
-1.31129e-18
-1.30545e-18
-1.32672e-18
-1.31838e-18
-1.32614e-18
-1.33369e-18
-1.33861e-18
-1.32754e-18
-1.35168e-18
-1.34114e-18
-1.35955e-18
-1.35981e-18
-1.36233e-18
-1.35369e-18
-1.36015e-18
-1.3508e-18
-1.34556e-18
-1.33798e-18
-1.34819e-18
-1.34491e-18
-1.35433e-18
-1.35272e-18
-1.35998e-18
-1.36049e-18
-1.36576e-18
-1.34657e-18
-1.3336e-18
-1.32877e-18
-1.33017e-18
-1.32887e-18
-1.33228e-18
-1.33456e-18
-1.34903e-18
-1.33939e-18
-1.34902e-18
-1.3459e-18
-1.34325e-18
-1.34967e-18
-1.35035e-18
-1.34068e-18
-1.36176e-18
-1.31924e-18
-1.32186e-18
-1.32569e-18
-1.32337e-18
-1.31352e-18
-1.30832e-18
-1.32365e-18
-1.32314e-18
-1.33511e-18
-1.33137e-18
-1.33349e-18
-1.33701e-18
-1.34944e-18
-1.34824e-18
-1.36236e-18
-1.35452e-18
-1.36595e-18
-1.35629e-18
-1.35917e-18
-1.34684e-18
-1.3419e-18
-1.343e-18
-1.34592e-18
-1.34671e-18
-1.35306e-18
-1.35229e-18
-1.35973e-18
-1.36398e-18
-1.36417e-18
-1.34675e-18
-1.33478e-18
-1.32439e-18
-1.32624e-18
-1.32732e-18
-1.33416e-18
-1.33108e-18
-1.34413e-18
-1.34217e-18
-1.34925e-18
-1.34973e-18
-1.3407e-18
-1.34184e-18
-1.34683e-18
-1.34527e-18
-1.36115e-18
-1.31891e-18
-1.31854e-18
-1.3183e-18
-1.31467e-18
-1.31704e-18
-1.31e-18
-1.31698e-18
-1.31984e-18
-1.33471e-18
-1.32906e-18
-1.34061e-18
-1.33478e-18
-1.35327e-18
-1.34846e-18
-1.3628e-18
-1.35271e-18
-1.36578e-18
-1.35594e-18
-1.3576e-18
-1.34432e-18
-1.34146e-18
-1.34224e-18
-1.34264e-18
-1.34417e-18
-1.35293e-18
-1.35429e-18
-1.3595e-18
-1.36174e-18
-1.36061e-18
-1.34264e-18
-1.33451e-18
-1.32249e-18
-1.32414e-18
-1.32576e-18
-1.33114e-18
-1.33141e-18
-1.345e-18
-1.3424e-18
-1.3464e-18