/*--------------------------------*- C++ -*----------------------------------*\
  =========                 |
  \\      /  F ield         | OpenFOAM: The Open Source CFD Toolbox
   \\    /   O peration     | Website:  https://openfoam.org
    \\  /    A nd           | Version:  7
     \\/     M anipulation  |
\*---------------------------------------------------------------------------*/
FoamFile
{
    version     2.0;
    format      ascii;
    class       volVectorField;
    location    "20000";
    object      U;
}
// * * * * * * * * * * * * * * * * * * * * * * * * * * * * * * * * * * * * * //

dimensions      [0 1 -1 0 0 0 0];

internalField   nonuniform List<vector> 
4825
(
(-1.23144e-18 1.61843e-20 -0.00983128)
(-6.56242e-19 -7.18215e-19 -0.00984747)
(-1.36033e-18 6.5599e-20 -0.00979165)
(-6.51152e-19 -7.30949e-19 -0.00980789)
(-1.52912e-18 -8.10983e-20 -0.00982373)
(-7.19016e-19 -1.34189e-20 -0.00983915)
(-7.67712e-19 -4.04959e-19 -0.00985412)
(-1.49657e-18 1.6845e-19 -0.00975168)
(-7.68031e-19 -6.43323e-19 -0.00976796)
(-1.41617e-18 -2.10954e-19 -0.00978385)
(-8.08675e-19 1.20908e-20 -0.00979932)
(-6.44994e-19 -5.85543e-19 -0.00981432)
(-1.56626e-18 2.40506e-19 -0.00971135)
(-8.73123e-19 -5.90674e-19 -0.00972768)
(-1.39162e-18 -2.40504e-19 -0.00974361)
(-9.67529e-19 1.29086e-19 -0.00975912)
(-6.63709e-19 -5.50471e-19 -0.00977417)
(-1.51969e-18 1.51e-19 -0.00967066)
(-7.68305e-19 -7.97696e-19 -0.00968704)
(-1.39965e-18 -2.00776e-19 -0.00970302)
(-1.06406e-18 1.76769e-19 -0.00971857)
(-6.9473e-19 -5.03614e-19 -0.00973367)
(-1.35632e-18 -1.24882e-19 -0.0096296)
(-6.04625e-19 -1.04702e-18 -0.00964602)
(-1.30002e-18 -2.61834e-19 -0.00966205)
(-1.01792e-18 1.65421e-20 -0.00967765)
(-6.50037e-19 -5.40804e-19 -0.00969279)
(-1.22459e-18 -3.84498e-19 -0.00958816)
(-5.73017e-19 -1.12997e-18 -0.00960462)
(-1.16886e-18 -3.72095e-19 -0.0096207)
(-8.60234e-19 -2.74909e-19 -0.00963635)
(-5.21619e-19 -6.44516e-19 -0.00965153)
(-1.31947e-18 -3.6636e-19 -0.00954632)
(-6.58563e-19 -1.06044e-18 -0.00956283)
(-1.20108e-18 -3.11409e-19 -0.00957896)
(-7.95608e-19 -4.60181e-19 -0.00959466)
(-3.49214e-19 -7.98062e-19 -0.00960989)
(-1.52061e-18 -1.76106e-19 -0.00950408)
(-8.88501e-19 -8.31954e-19 -0.00952064)
(-1.24814e-18 -2.50222e-19 -0.00953681)
(-9.37539e-19 -4.06055e-19 -0.00955256)
(-2.55661e-19 -8.86545e-19 -0.00956784)
(-1.52395e-18 -1.55934e-19 -0.00946142)
(-1.24522e-18 -4.73529e-19 -0.00947803)
(-1.27591e-18 -2.32404e-19 -0.00949425)
(-1.16955e-18 -2.33382e-19 -0.00951005)
(-2.68674e-19 -8.18387e-19 -0.00952538)
(-1.27879e-18 -3.79453e-19 -0.00941833)
(-1.57192e-18 -1.27432e-19 -0.00943499)
(-1.39091e-18 -1.28574e-19 -0.00945126)
(-1.37944e-18 -8.64796e-20 -0.00946712)
(-3.48368e-19 -6.30891e-19 -0.0094825)
(-1.04027e-18 -5.87979e-19 -0.0093748)
(-1.64934e-18 -2.0582e-20 -0.0093915)
(-1.48801e-18 -6.77841e-20 -0.00940784)
(-1.5064e-18 -5.17664e-20 -0.00942374)
(-3.76896e-19 -5.06685e-19 -0.00943917)
(-9.59042e-19 -6.43457e-19 -0.00933081)
(-1.48299e-18 -1.90596e-19 -0.00934757)
(-1.34434e-18 -3.00599e-19 -0.00936395)
(-1.56498e-18 -1.11083e-19 -0.00937991)
(-3.23074e-19 -5.12097e-19 -0.0093954)
(-9.30449e-19 -6.80906e-19 -0.00928635)
(-1.30127e-18 -4.19869e-19 -0.00930316)
(-1.11731e-18 -6.13831e-19 -0.0093196)
(-1.59809e-18 -1.65568e-19 -0.00933562)
(-8.89105e-19 -7.59626e-19 -0.00924141)
(-1.26199e-18 -4.93754e-19 -0.00925827)
(-1.00902e-18 -7.56879e-19 -0.00927477)
(-1.69384e-18 -1.14906e-19 -0.00929084)
(-8.65264e-19 -8.11162e-19 -0.00919596)
(-1.42353e-18 -3.30772e-19 -0.00921288)
(-9.59573e-19 -8.16563e-19 -0.00922944)
(-1.86573e-18 5.78094e-20 -0.00924557)
(-8.46034e-19 -8.34037e-19 -0.00915)
(-1.62516e-18 -1.22498e-19 -0.00916697)
(-9.79102e-19 -7.9676e-19 -0.00918359)
(-7.7876e-19 -9.19859e-19 -0.0091035)
(-1.69709e-18 -5.49128e-20 -0.00912053)
(-9.32893e-19 -8.52695e-19 -0.00913721)
(-7.77869e-19 -9.34455e-19 -0.00905642)
(-1.7249e-18 -4.51099e-20 -0.00907353)
(-8.59115e-19 -8.36146e-19 -0.00900874)
(-1.78668e-18 -2.46908e-20 -0.00902595)
(-8.28338e-19 -8.45938e-19 -0.00896042)
(-1.8141e-18 -5.41713e-20 -0.00897774)
(-8.03926e-19 -8.62675e-19 -0.00891146)
(-1.76733e-18 -1.62225e-19 -0.00892888)
(-1.04067e-18 -6.04625e-19 -0.00886183)
(-1.69503e-18 -3.12419e-19 -0.00887934)
(-1.25519e-18 -3.55562e-19 -0.00881149)
(-9.86566e-20 -3.5203e-19 -0.0103897)
(-4.40667e-19 7.5719e-20 -0.0104053)
(-6.51999e-21 -1.57844e-19 -0.0104205)
(-7.53873e-19 -2.78416e-19 -0.0104352)
(-6.39136e-19 -2.26296e-19 -0.0104495)
(6.00806e-20 -1.09235e-20 -0.0104634)
(-5.40824e-19 2.27399e-19 -0.0104767)
(2.73405e-20 3.19551e-20 -0.0104894)
(-9.42684e-19 -2.57635e-19 -0.0105016)
(-1.51877e-19 2.48967e-19 -0.0105132)
(-4.1957e-19 1.29723e-19 -0.0105242)
(-2.92119e-19 3.47698e-19 -0.0105345)
(-3.29013e-19 -4.65236e-19 -0.0105442)
(-6.41923e-19 -8.28753e-19 -0.0105532)
(-7.79918e-19 -5.48562e-19 -0.0105615)
(-1.10923e-18 2.13129e-19 -0.0105691)
(-1.13367e-18 1.15356e-21 -0.010576)
(-4.76637e-19 4.24403e-19 -0.0105821)
(-4.07776e-19 1.62293e-19 -0.0105875)
(-3.82015e-19 -2.5594e-19 -0.0105921)
(-1.1627e-19 -3.31223e-19 -0.0103544)
(-4.92576e-19 -7.19378e-21 -0.01037)
(7.52508e-20 -5.39727e-20 -0.0103852)
(-8.90532e-19 -3.2697e-19 -0.0104)
(-4.30188e-19 -1.72439e-19 -0.0104144)
(-1.03566e-19 -1.363e-19 -0.0104282)
(-5.36362e-19 2.05508e-19 -0.0104416)
(-5.34471e-20 5.1551e-20 -0.0104544)
(-1.18747e-18 -3.53489e-19 -0.0104666)
(-1.847e-19 1.64356e-19 -0.0104782)
(-3.52381e-19 1.55061e-19 -0.0104892)
(-1.50284e-19 3.85982e-19 -0.0104996)
(1.58827e-19 -2.09504e-19 -0.0105093)
(-6.53485e-19 -7.39404e-19 -0.0105183)
(-1.06574e-18 -6.22887e-19 -0.0105267)
(-1.31725e-18 1.89043e-19 -0.0105343)
(-1.26395e-18 -6.1017e-20 -0.0105412)
(-7.79583e-19 2.88149e-19 -0.0105473)
(-3.4427e-19 1.86931e-19 -0.0105527)
(-4.49273e-19 -2.70924e-19 -0.0105573)
(-1.66028e-19 -2.88571e-19 -0.0103188)
(-5.6064e-19 -1.26269e-19 -0.0103344)
(2.47525e-19 9.76709e-20 -0.0103497)
(-8.0358e-19 -2.30003e-19 -0.0103646)
(-1.80948e-19 -9.51109e-20 -0.0103789)
(-8.26193e-20 -1.35327e-19 -0.0103929)
(-3.48238e-19 3.05135e-19 -0.0104062)
(-1.83707e-19 8.53536e-20 -0.0104191)
(-1.39434e-18 -4.51883e-19 -0.0104313)
(-6.33349e-20 1.14684e-19 -0.010443)
(-3.17114e-19 1.60742e-19 -0.010454)
(-5.45e-20 3.92823e-19 -0.0104644)
(2.64021e-19 -1.05048e-19 -0.0104742)
(-3.95132e-19 -5.1672e-19 -0.0104832)
(-1.02937e-18 -5.52e-19 -0.0104916)
(-1.10356e-18 2.58692e-19 -0.0104992)
(-1.0591e-18 -3.18537e-20 -0.0105061)
(-7.67563e-19 2.27086e-19 -0.0105123)
(-1.19811e-19 1.9076e-19 -0.0105177)
(-3.53393e-19 -2.87883e-19 -0.0105223)
(-1.40607e-19 -1.65739e-19 -0.010283)
(-4.81579e-19 -1.56709e-19 -0.0102987)
(5.03233e-19 2.7413e-19 -0.010314)
(-4.86348e-19 3.35073e-20 -0.0103288)
(-5.88728e-20 -7.66015e-20 -0.0103433)
(7.88629e-20 -5.22294e-20 -0.0103572)
(-2.7712e-19 3.45532e-19 -0.0103706)
(-2.67308e-19 1.88855e-19 -0.0103835)
(-1.50969e-18 -5.16969e-19 -0.0103958)
(5.819e-22 2.6037e-20 -0.0104075)
(-3.12745e-19 1.60386e-19 -0.0104186)
(-1.4757e-20 3.74427e-19 -0.010429)
(8.97497e-20 -1.36101e-19 -0.0104388)
(-2.04586e-19 -3.44749e-19 -0.0104478)
(-9.6024e-19 -5.00038e-19 -0.0104562)
(-6.86604e-19 3.78064e-19 -0.0104638)
(-5.48701e-19 1.00448e-19 -0.0104708)
(-4.3241e-19 2.26339e-19 -0.010477)
(1.15807e-19 2.30905e-19 -0.0104824)
(-4.09808e-19 -2.90651e-19 -0.0104871)
(-3.46724e-21 2.05759e-21 -0.0102469)
(-4.29148e-19 -2.24563e-19 -0.0102626)
(7.13519e-19 3.77576e-19 -0.010278)
(-2.44381e-19 2.79203e-19 -0.0102929)
(-1.12154e-19 -1.54267e-19 -0.0103074)
(2.89317e-19 7.1462e-20 -0.0103213)
(-3.98174e-19 3.05002e-19 -0.0103348)
(-1.33506e-19 4.0703e-19 -0.0103477)
(-1.389e-18 -4.56437e-19 -0.01036)
(7.55476e-21 -1.01697e-19 -0.0103718)
(-3.35571e-19 1.4157e-19 -0.0103829)
(3.67555e-20 3.9766e-19 -0.0103933)
(1.32216e-20 -1.37834e-19 -0.0104031)
(-1.48777e-19 -2.3962e-19 -0.0104122)
(-9.78563e-19 -4.82549e-19 -0.0104206)
(-7.09155e-19 3.03046e-19 -0.0104283)
(-1.72865e-19 1.8641e-19 -0.0104352)
(-2.18399e-19 2.57556e-19 -0.0104414)
(2.01231e-19 2.77137e-19 -0.0104468)
(-4.09631e-19 -3.08664e-19 -0.0104515)
(1.07746e-19 1.38493e-19 -0.0102105)
(-4.73772e-19 -3.5651e-19 -0.0102263)
(7.05704e-19 2.87995e-19 -0.0102417)
(-2.62662e-19 3.69199e-19 -0.0102567)
(-2.69615e-19 -3.04494e-19 -0.0102712)
(3.18277e-19 7.72977e-20 -0.0102852)
(-6.89841e-19 1.39169e-19 -0.0102987)
(-5.35689e-20 5.53135e-19 -0.0103116)
(-1.09924e-18 -2.6548e-19 -0.010324)
(3.70565e-20 -1.74644e-19 -0.0103357)
(-6.15105e-19 1.93505e-22 -0.0103469)
(7.52025e-20 3.88354e-19 -0.0103574)
(-2.95089e-21 -1.16473e-19 -0.0103672)
(-1.66412e-19 -1.52137e-19 -0.0103763)
(-6.78026e-19 -3.38094e-19 -0.0103847)
(-7.30093e-19 2.32223e-19 -0.0103924)
(-1.4434e-20 1.83225e-19 -0.0103994)
(-2.7471e-19 2.22507e-19 -0.0104056)
(1.69687e-19 3.06329e-19 -0.010411)
(-3.2999e-19 -3.07769e-19 -0.0104157)
(2.02948e-19 2.69216e-19 -0.0101739)
(-4.84168e-19 -4.27133e-19 -0.0101897)
(5.51454e-19 8.5881e-20 -0.0102052)
(-2.51491e-19 4.81939e-19 -0.0102202)
(-4.22584e-19 -4.47907e-19 -0.0102347)
(1.98896e-19 1.60529e-20 -0.0102488)
(-1.25443e-18 -1.80175e-19 -0.0102623)
(-1.32873e-19 5.32674e-19 -0.0102753)
(-9.82814e-19 -1.82346e-19 -0.0102877)
(2.24114e-19 -9.68474e-20 -0.0102995)
(-8.84322e-19 -1.30269e-19 -0.0103106)
(-3.11871e-20 2.93652e-19 -0.0103211)
(-1.20852e-19 -1.30251e-19 -0.010331)
(-2.03492e-19 -1.38035e-19 -0.0103401)
(-4.6418e-19 -2.4267e-19 -0.0103486)
(-5.86612e-19 2.34286e-19 -0.0103563)
(6.54959e-20 1.96579e-19 -0.0103633)
(-2.93734e-19 2.32465e-19 -0.0103695)
(-2.80848e-20 2.76706e-19 -0.010375)
(-3.50908e-19 -3.40864e-19 -0.0103797)
(2.25909e-19 3.01169e-19 -0.010137)
(-3.90795e-19 -3.68704e-19 -0.0101529)
(4.2153e-19 -1.21871e-19 -0.0101684)
(-1.8261e-19 6.25861e-19 -0.0101834)
(-4.57466e-19 -4.80381e-19 -0.010198)
(-9.52474e-20 -9.95939e-20 -0.0102121)
(-1.69747e-18 -4.41429e-19 -0.0102256)
(-1.81747e-19 4.66359e-19 -0.0102387)
(-1.01285e-18 -2.07708e-19 -0.0102511)
(4.2062e-19 -9.57966e-21 -0.0102629)
(-9.55351e-19 -1.16792e-19 -0.0102741)
(1.13858e-19 2.96086e-19 -0.0102846)
(-1.37304e-19 -1.26729e-19 -0.0102945)
(-1.44419e-20 -4.11e-20 -0.0103037)
(-2.92473e-19 -1.70077e-19 -0.0103121)
(-4.65848e-19 2.28161e-19 -0.0103199)
(-2.6352e-20 1.56242e-19 -0.0103269)
(-1.15378e-19 2.96316e-19 -0.0103331)
(-2.3378e-19 2.74657e-19 -0.0103386)
(-4.81016e-19 -4.14225e-19 -0.0103433)
(3.96097e-19 1.00119e-19 -0.0103473)
(-1.17062e-19 -1.40391e-19 -0.0103505)
(-5.30451e-19 -3.34494e-19 -0.0103528)
(-6.16602e-19 3.66539e-19 -0.0103544)
(-9.75516e-20 -1.66944e-19 -0.0103552)
(1.14558e-19 -1.06526e-18 -0.0103552)
(-6.80517e-19 -2.25458e-19 -0.0103544)
(-2.20585e-19 -5.68883e-19 -0.0103528)
(-2.94694e-19 -2.57639e-19 -0.0103504)
(-2.20134e-19 -2.81484e-19 -0.0103473)
(-1.81842e-19 -1.54835e-20 -0.0103433)
(1.863e-19 3.79497e-19 -0.0103386)
(-2.24537e-19 -2.6748e-19 -0.0103331)
(-2.56983e-19 -7.95438e-20 -0.0103268)
(-4.23171e-19 2.42195e-19 -0.0103198)
(-5.81291e-20 6.71247e-20 -0.0100999)
(-1.57979e-19 -1.91246e-19 -0.0101158)
(1.766e-19 -4.0261e-19 -0.0101313)
(-1.46132e-19 7.21025e-19 -0.0101464)
(-5.3411e-19 -4.92094e-19 -0.010161)
(-3.56449e-19 -1.66183e-19 -0.0101751)
(-1.53711e-18 -3.73241e-19 -0.0101887)
(-1.78978e-19 4.0691e-19 -0.0102018)
(-9.22223e-19 -1.89562e-19 -0.0102142)
(6.07676e-19 7.50162e-20 -0.0102261)
(-1.00581e-18 -1.31377e-19 -0.0102373)
(3.85072e-19 3.47101e-19 -0.0102479)
(-2.20905e-19 -1.40396e-19 -0.0102578)
(2.90408e-19 5.54922e-20 -0.010267)
(7.78781e-20 -1.31217e-20 -0.0102755)
(-2.19078e-19 3.04036e-19 -0.0102832)
(-2.6579e-19 7.65248e-20 -0.0102902)
(-2.10973e-20 3.49321e-19 -0.0102965)
(-4.9407e-20 3.71333e-19 -0.010302)
(-5.37548e-19 -4.71558e-19 -0.0103067)
(1.51267e-19 2.01449e-20 -0.0103107)
(-4.38193e-20 -3.31317e-20 -0.0103139)
(-7.05668e-19 -3.00001e-19 -0.0103163)
(-3.47274e-19 3.04962e-19 -0.0103178)
(1.85601e-19 -2.07885e-19 -0.0103186)
(-1.6267e-19 -9.91303e-19 -0.0103186)
(-9.54423e-19 -2.22778e-19 -0.0103178)
(-1.24142e-19 -6.34001e-19 -0.0103162)
(-3.39298e-19 -2.36168e-19 -0.0103138)
(-2.87454e-19 -2.9757e-19 -0.0103107)
(-3.01372e-19 -1.56577e-20 -0.0103067)
(2.47844e-19 3.78753e-19 -0.0103019)
(-5.60145e-21 -2.94013e-19 -0.0102964)
(-2.57746e-19 -4.01787e-20 -0.0102901)
(-4.78063e-19 3.1377e-19 -0.0102831)
(-7.26955e-19 4.69271e-19 -0.0102753)
(-2.17107e-19 1.04226e-19 -0.0102668)
(-3.70407e-19 -1.93045e-19 -0.0100624)
(-4.03429e-20 -1.12768e-19 -0.0100784)
(-1.75285e-19 -7.43599e-19 -0.0100939)
(-1.41958e-19 7.62757e-19 -0.010109)
(-7.30983e-19 -5.71729e-19 -0.0101237)
(-2.6702e-19 -8.43069e-20 -0.0101379)
(-1.03507e-18 -1.1498e-19 -0.0101515)
(-1.35993e-19 4.05599e-19 -0.0101646)
(-6.75083e-19 -1.1286e-19 -0.0101771)
(6.5399e-19 1.1639e-19 -0.010189)
(-1.08116e-18 -1.27848e-19 -0.0102002)
(2.66761e-19 2.47099e-19 -0.0102108)
(-5.49275e-19 -2.61095e-19 -0.0102208)
(4.54722e-19 6.13916e-20 -0.01023)
(1.91931e-19 4.97526e-20 -0.0102385)
(-7.33123e-20 4.09134e-19 -0.0102463)
(-5.31076e-19 1.73069e-20 -0.0102533)
(-7.46654e-20 2.91468e-19 -0.0102596)
(2.1735e-19 4.8581e-19 -0.0102651)
(-4.83273e-19 -4.42788e-19 -0.0102699)
(7.59794e-20 -2.50049e-20 -0.0102738)
(-7.96598e-20 1.65426e-20 -0.010277)
(-4.40212e-19 -2.75852e-19 -0.0102794)
(-1.63572e-19 2.60305e-19 -0.010281)
(1.87704e-19 -1.89096e-19 -0.0102818)
(-5.02802e-19 -9.10821e-19 -0.0102818)
(-9.77248e-19 -2.39954e-19 -0.010281)
(-2.70006e-19 -6.92825e-19 -0.0102794)
(-3.646e-19 -2.3631e-19 -0.010277)
(-3.55687e-19 -2.85924e-19 -0.0102738)
(-4.11343e-19 -4.3631e-20 -0.0102698)
(2.9516e-19 3.25487e-19 -0.010265)
(1.89359e-19 -3.03569e-19 -0.0102595)
(-2.76373e-19 3.30541e-20 -0.0102532)
(-4.1816e-19 3.57588e-19 -0.0102462)
(-6.1125e-19 4.09356e-19 -0.0102384)
(-1.68685e-19 6.21469e-20 -0.0102299)
(-2.73029e-19 4.40387e-20 -0.0102206)
(-4.11236e-19 -1.97762e-19 -0.0100247)
(4.93364e-20 -3.4765e-20 -0.0100407)
(-4.70984e-19 -1.04548e-18 -0.0100562)
(-2.10423e-19 7.31445e-19 -0.0100714)
(-6.28692e-19 -4.79107e-19 -0.0100861)
(-3.6351e-20 2.23383e-20 -0.0101003)
(-6.89821e-19 7.86992e-20 -0.010114)
(-3.12452e-19 3.01892e-19 -0.0101271)
(-4.10268e-19 -9.66745e-21 -0.0101397)
(4.57833e-19 7.2585e-20 -0.0101516)
(-9.57526e-19 -2.96164e-20 -0.0101629)
(1.37881e-19 1.8176e-19 -0.0101735)
(-7.35455e-19 -3.60386e-19 -0.0101834)
(4.95728e-19 -1.19418e-20 -0.0101927)
(-5.1958e-21 2.54043e-20 -0.0102012)
(-2.45807e-19 4.30095e-19 -0.010209)
(-4.38077e-19 5.78827e-20 -0.0102161)
(-1.58704e-19 2.17348e-19 -0.0102224)
(3.21849e-19 5.49123e-19 -0.0102279)
(-4.04923e-19 -4.19481e-19 -0.0102327)
(1.79052e-19 -4.65304e-20 -0.0102367)
(-4.10199e-20 6.37957e-20 -0.0102399)
(-2.32183e-19 -2.48968e-19 -0.0102423)
(-1.12116e-19 2.32656e-19 -0.0102439)
(1.50889e-19 -1.50737e-19 -0.0102447)
(-4.97637e-19 -8.37673e-19 -0.0102446)
(-9.27047e-19 -2.84602e-19 -0.0102438)
(-1.18724e-19 -7.61459e-19 -0.0102422)
(-3.83009e-19 -2.27645e-19 -0.0102398)
(-3.79738e-19 -2.95593e-19 -0.0102366)
(-4.39351e-19 -7.85742e-20 -0.0102326)
(2.97697e-20 3.40909e-19 -0.0102279)
(2.2612e-19 -2.73216e-19 -0.0102223)
(-2.71094e-19 9.48552e-20 -0.010216)
(-2.55646e-19 3.42751e-19 -0.0102089)
(-4.14602e-19 3.3412e-19 -0.0102011)
(-2.42484e-19 5.80951e-20 -0.0101926)
(-3.60602e-19 5.7108e-20 -0.0101833)
(2.089e-19 1.48273e-19 -0.0101734)
(-8.99348e-20 8.79749e-19 -0.0101627)
(-3.85606e-19 -1.78709e-19 -0.00998664)
(1.5567e-19 1.06432e-19 -0.0100027)
(-5.84104e-19 -1.17266e-18 -0.0100183)
(-2.75664e-19 6.25503e-19 -0.0100335)
(-2.92013e-19 -2.58235e-19 -0.0100482)
(1.73167e-20 3.41662e-20 -0.0100625)
(-5.33468e-19 2.13278e-19 -0.0100762)
(-7.77288e-19 4.11816e-20 -0.0100894)
(-2.69046e-19 1.1038e-20 -0.0101019)
(3.81387e-19 7.79361e-20 -0.0101139)
(-6.82692e-19 1.20129e-19 -0.0101252)
(1.2148e-19 1.83119e-19 -0.0101359)
(-5.18902e-19 -2.98271e-19 -0.0101458)
(1.97209e-19 -1.69303e-19 -0.0101551)
(-3.55687e-19 -3.11853e-20 -0.0101637)
(-5.24037e-19 3.68455e-19 -0.0101715)
(-3.31114e-19 8.18305e-20 -0.0101786)
(-1.91703e-19 1.62805e-19 -0.0101849)
(2.23766e-19 5.68274e-19 -0.0101904)
(-3.59385e-19 -3.89954e-19 -0.0101952)
(-1.17836e-20 -1.01273e-19 -0.0101992)
(-1.33142e-20 1.0333e-19 -0.0102024)
(-1.23002e-19 -2.36945e-19 -0.0102048)
(-7.08999e-20 2.21188e-19 -0.0102064)
(6.32445e-20 -1.25966e-19 -0.0102072)
(-3.79766e-19 -7.77098e-19 -0.0102072)
(-8.07741e-19 -3.3175e-19 -0.0102064)
(-2.56313e-20 -8.24898e-19 -0.0102048)
(-4.3336e-19 -1.94309e-19 -0.0102024)
(-3.31728e-19 -2.98052e-19 -0.0101992)
(-5.07983e-19 -7.51531e-20 -0.0101952)
(-2.48209e-19 3.42364e-19 -0.0101904)
(-1.00909e-20 -2.2634e-19 -0.0101848)
(-3.91012e-19 1.7154e-19 -0.0101785)
(-2.53579e-19 3.66209e-19 -0.0101714)
(-2.24824e-19 2.86363e-19 -0.0101636)
(-2.81787e-19 9.25093e-20 -0.010155)
(-4.99462e-19 8.54956e-20 -0.0101457)
(1.79006e-19 1.56931e-19 -0.0101357)
(1.79448e-19 8.69983e-19 -0.0101251)
(-7.52218e-19 -6.26033e-20 -0.0101138)
(-4.77636e-19 9.01086e-20 -0.0101018)
(-3.60311e-19 -1.59168e-19 -0.0099483)
(1.53693e-19 1.48166e-19 -0.00996436)
(-5.27472e-19 -1.15527e-18 -0.00998004)
(-3.71347e-19 4.72714e-19 -0.00999528)
(-5.51599e-20 -1.05992e-19 -0.0100101)
(-9.28663e-20 -4.32491e-20 -0.0100244)
(-4.34529e-19 3.62223e-19 -0.0100381)
(-1.12981e-18 -1.45987e-19 -0.0100513)
(-2.52219e-19 -9.03344e-20 -0.0100639)
(3.13676e-19 6.63376e-20 -0.0100759)
(-5.28167e-19 2.22201e-19 -0.0100873)
(4.25587e-20 1.54487e-19 -0.0100979)
(-4.29665e-19 -2.39827e-19 -0.0101079)
(-2.3035e-19 -3.14861e-19 -0.0101172)
(-5.00908e-19 -4.83978e-20 -0.0101258)
(-5.08422e-19 3.70226e-19 -0.0101337)
(-3.97295e-19 4.5666e-20 -0.0101408)
(-1.54983e-19 1.46557e-19 -0.0101471)
(-2.12235e-19 5.16528e-19 -0.0101527)
(-2.99397e-19 -3.54134e-19 -0.0101574)
(-3.77996e-19 -1.81569e-19 -0.0101615)
(-1.33384e-19 8.84029e-20 -0.0101647)
(-3.03832e-19 -2.40408e-19 -0.0101671)
(-6.73258e-20 2.21766e-19 -0.0101687)
(-5.33423e-21 -1.00744e-19 -0.0101695)
(-3.36774e-19 -7.36673e-19 -0.0101695)
(-8.81868e-19 -3.69472e-19 -0.0101687)
(-1.46556e-19 -8.47267e-19 -0.0101671)
(-7.10406e-19 -1.48977e-19 -0.0101646)
(-2.64494e-19 -3.16495e-19 -0.0101614)
(-5.4671e-19 -5.837e-20 -0.0101574)
(-2.65951e-19 3.36279e-19 -0.0101526)
(-2.84422e-19 -1.48966e-19 -0.010147)
(-4.03728e-19 2.0095e-19 -0.0101407)
(-5.33916e-19 4.22934e-19 -0.0101336)
(-1.91969e-19 2.68206e-19 -0.0101257)
(-2.81206e-19 1.11922e-19 -0.0101171)
(-4.24622e-19 3.59063e-20 -0.0101078)
(-6.15698e-20 2.56519e-19 -0.0100978)
(3.88026e-19 8.66585e-19 -0.0100871)
(-4.47063e-19 -1.85086e-19 -0.0100758)
(-3.24129e-19 2.05075e-20 -0.0100638)
(-4.48591e-19 -1.21298e-19 -0.0100512)
(-4.57976e-19 -2.94802e-19 -0.010038)
(-1.05024e-18 -3.80328e-19 -0.0100242)
(-2.68772e-19 -9.1292e-20 -0.00990964)
(2.07843e-19 2.44558e-19 -0.00992575)
(-3.97831e-19 -1.06388e-18 -0.00994147)
(-3.69959e-19 3.74184e-19 -0.00995676)
(-6.4464e-20 -1.25818e-19 -0.00997159)
(-2.38167e-19 -1.39099e-19 -0.00998592)
(-3.77285e-19 4.8658e-19 -0.00999971)
(-1.1091e-18 -1.03024e-19 -0.0100129)
(-4.38852e-19 -2.94231e-19 -0.0100256)
(-7.00869e-20 -1.11647e-19 -0.0100376)
(-4.67857e-19 2.78418e-19 -0.010049)
(-9.15321e-20 1.22263e-19 -0.0100597)
(-4.5015e-19 -2.05891e-19 -0.0100697)
(-3.54979e-19 -3.74359e-19 -0.0100791)
(-4.16889e-19 -4.34937e-20 -0.0100877)
(-2.02936e-19 4.62653e-19 -0.0100955)
(-3.35264e-19 5.58348e-20 -0.0101026)
(-1.5382e-19 1.54179e-19 -0.010109)
(-4.32131e-19 5.09977e-19 -0.0101146)
(-1.71018e-19 -3.20905e-19 -0.0101194)
(-5.36632e-19 -2.05466e-19 -0.0101234)
(-2.31073e-19 8.59714e-20 -0.0101266)
(-7.46232e-19 -2.87301e-19 -0.010129)
(-2.08345e-21 1.95225e-19 -0.0101306)
(-8.8865e-20 -8.24369e-20 -0.0101314)
(-2.75938e-19 -6.76891e-19 -0.0101314)
(-9.36514e-19 -3.8742e-19 -0.0101306)
(-1.17138e-19 -8.75572e-19 -0.010129)
(-8.29435e-19 -1.34897e-19 -0.0101266)
(-3.24886e-19 -3.40557e-19 -0.0101234)
(-5.94802e-19 -4.5219e-20 -0.0101193)
(-1.8044e-19 3.05848e-19 -0.0101145)
(-2.82269e-19 -1.53026e-19 -0.0101089)
(-1.75118e-19 1.90416e-19 -0.0101026)
(-7.62043e-19 5.0054e-19 -0.0100954)
(-3.78563e-19 2.93626e-19 -0.0100876)
(-2.94558e-19 1.26462e-19 -0.0100789)
(-4.65656e-19 6.47346e-20 -0.0100696)
(-4.09607e-19 3.83942e-19 -0.0100596)
(4.60655e-19 8.54431e-19 -0.0100489)
(6.45885e-20 -4.00391e-19 -0.0100375)
(-2.65256e-19 -6.03611e-21 -0.0100254)
(-4.40448e-20 -3.5826e-19 -0.0100128)
(-2.5909e-19 -3.8665e-19 -0.00999957)
(-6.36346e-19 -5.48542e-19 -0.00998577)
(-1.53126e-18 -9.03124e-21 -0.00997144)
(-9.01789e-19 -5.80308e-19 -0.00995662)
(-1.90136e-19 -6.41821e-20 -0.00987067)
(2.80805e-19 3.42027e-19 -0.00988682)
(-2.39788e-19 -9.41812e-19 -0.00990258)
(-3.36513e-19 3.43269e-19 -0.00991791)
(-1.84036e-19 -1.9728e-19 -0.00993278)
(-3.97006e-19 -2.70425e-19 -0.00994715)
(-4.33976e-19 5.12714e-19 -0.00996099)
(-8.86182e-19 9.22577e-20 -0.00997426)
(-6.30203e-19 -4.31463e-19 -0.00998694)
(-4.75702e-19 -3.40316e-19 -0.00999899)
(-4.81064e-19 2.617e-19 -0.0100104)
(-2.24274e-19 8.85896e-20 -0.0100211)
(-3.76048e-19 -1.4967e-19 -0.0100312)
(-2.2423e-19 -3.42586e-19 -0.0100405)
(-4.66952e-19 -1.02893e-19 -0.0100492)
(-8.9329e-20 4.95317e-19 -0.0100571)
(-2.48928e-19 1.05025e-19 -0.0100642)
(-3.61695e-19 1.25144e-19 -0.0100706)
(-2.86254e-19 5.52766e-19 -0.0100762)
(-1.2966e-19 -2.96971e-19 -0.010081)
(-7.35733e-19 -2.31963e-19 -0.010085)
(-1.95178e-19 1.28441e-19 -0.0100882)
(-9.79439e-19 -3.1884e-19 -0.0100907)
(3.64846e-20 1.44751e-19 -0.0100923)
(-1.42499e-19 -5.67944e-20 -0.0100931)
(-2.41502e-19 -6.42881e-19 -0.0100931)
(-7.8862e-19 -4.32582e-19 -0.0100923)
(-4.1268e-20 -9.03645e-19 -0.0100906)
(-8.04582e-19 -1.0657e-19 -0.0100882)
(-5.95361e-19 -3.2534e-19 -0.010085)
(-5.77165e-19 -5.96578e-20 -0.0100809)
(-1.581e-19 2.84388e-19 -0.0100761)
(-2.72066e-19 -1.57952e-19 -0.0100705)
(-2.25942e-19 2.67564e-19 -0.0100641)
(-6.74621e-19 5.15273e-19 -0.010057)
(-5.60419e-19 3.06732e-19 -0.0100491)
(-3.50042e-19 1.41828e-19 -0.0100404)
(-5.74192e-19 1.36828e-19 -0.0100311)
(-5.61618e-19 4.28341e-19 -0.010021)
(3.70874e-19 8.3911e-19 -0.0100103)
(3.28214e-19 -5.01753e-19 -0.00999886)
(-2.48452e-19 8.86806e-21 -0.0099868)
(1.77359e-19 -5.00932e-19 -0.00997412)
(-2.57703e-19 -3.74916e-19 -0.00996085)
(-2.31067e-19 -7.43819e-19 -0.00994701)
(-1.1329e-18 -2.77728e-19 -0.00993265)
(-8.70099e-19 -6.4195e-19 -0.00991778)
(-1.06996e-18 -1.10768e-19 -0.00990246)
(-1.48128e-18 5.03195e-19 -0.00988671)
(-1.82236e-18 -4.73032e-19 -0.00987057)
(-1.87888e-19 -1.09342e-19 -0.00983137)
(2.67052e-19 3.62391e-19 -0.00984757)
(-1.72403e-19 -8.79882e-19 -0.00986337)
(-3.73957e-19 2.72642e-19 -0.00987874)
(2.76074e-20 -3.22387e-20 -0.00989366)
(-3.23361e-19 -2.45479e-19 -0.00990807)
(-3.77197e-19 5.61707e-19 -0.00992194)
(-6.82752e-19 2.72579e-19 -0.00993525)
(-5.54184e-19 -3.80832e-19 -0.00994797)
(-5.02082e-19 -3.80678e-19 -0.00996006)
(-5.98406e-19 1.89861e-19 -0.0099715)
(-2.90931e-19 7.1324e-20 -0.00998227)
(-2.34481e-19 -9.31869e-20 -0.00999235)
(-8.06563e-20 -2.88251e-19 -0.0100017)
(-5.56568e-19 -1.52464e-19 -0.0100104)
(-2.93949e-19 4.20586e-19 -0.0100183)
(-3.40518e-19 1.24804e-19 -0.0100254)
(-5.22072e-19 8.84726e-20 -0.0100318)
(-1.03016e-19 5.88437e-19 -0.0100374)
(-1.93542e-19 -2.44432e-19 -0.0100423)
(-9.12872e-19 -2.59849e-19 -0.0100463)
(-5.06274e-19 1.09591e-19 -0.0100495)
(-9.59832e-19 -3.32046e-19 -0.010052)
(-6.40965e-20 8.44738e-20 -0.0100536)
(-1.2973e-19 -3.62985e-20 -0.0100544)
(-3.40755e-19 -6.12514e-19 -0.0100544)
(-7.69568e-19 -4.62241e-19 -0.0100536)
(-1.32184e-19 -9.05969e-19 -0.010052)
(-8.21163e-19 -5.25962e-20 -0.0100495)
(-8.44798e-19 -3.23655e-19 -0.0100463)
(-6.60813e-19 -8.43042e-20 -0.0100422)
(-2.2679e-19 2.84853e-19 -0.0100374)
(-2.2825e-19 -1.57257e-19 -0.0100318)
(-3.18944e-19 3.29378e-19 -0.0100254)
(-3.25435e-19 4.46558e-19 -0.0100182)
(-4.45689e-19 2.55893e-19 -0.0100103)
(-3.45251e-19 1.40834e-19 -0.0100016)
(-6.6834e-19 1.99383e-19 -0.00999224)
(-4.65329e-19 3.63265e-19 -0.00998215)
(3.52132e-19 7.98677e-19 -0.00997137)
(4.25298e-19 -5.32544e-19 -0.00995992)
(-2.6544e-19 2.18656e-20 -0.00994783)
(1.55992e-19 -4.96946e-19 -0.00993512)
(-4.40094e-19 -2.65216e-19 -0.00992181)
(4.11467e-22 -8.75025e-19 -0.00990793)
(-7.08486e-19 -5.32397e-19 -0.00989352)
(-9.71869e-19 -5.73618e-19 -0.00987862)
(-1.00192e-18 -8.98458e-20 -0.00986325)
(-1.129e-18 2.33002e-19 -0.00984746)
(-1.70255e-18 -6.58843e-19 -0.00983127)
(-2.08989e-19 -1.67793e-19 -0.00979174)
(1.99743e-19 3.25098e-19 -0.00980798)
(-4.51956e-20 -7.6886e-19 -0.00982382)
(-3.75351e-19 1.88095e-19 -0.00983924)
(3.85619e-19 1.98305e-19 -0.0098542)
(-2.03751e-19 -1.69761e-19 -0.00986865)
(-1.77972e-19 7.13166e-19 -0.00988257)
(-6.1472e-19 3.81167e-19 -0.00989591)
(-4.32786e-19 -3.06667e-19 -0.00990866)
(-4.02958e-19 -3.32491e-19 -0.00992079)
(-7.41786e-19 1.21106e-19 -0.00993226)
(-4.83088e-19 -2.7709e-20 -0.00994306)
(4.14735e-20 7.52979e-21 -0.00995318)
(2.23725e-20 -2.31111e-19 -0.00996257)
(-6.48864e-19 -1.73737e-19 -0.00997125)
(-6.80574e-19 3.10048e-19 -0.00997918)
(-3.88525e-19 1.33415e-19 -0.00998635)
(-4.17779e-19 8.87292e-20 -0.00999276)
(-1.11498e-19 5.869e-19 -0.00999839)
(-1.95312e-19 -1.74771e-19 -0.0100032)
(-8.32259e-19 -2.15245e-19 -0.0100073)
(-8.31305e-19 8.69581e-20 -0.0100105)
(-9.16918e-19 -3.73248e-19 -0.010013)
(-2.81499e-19 2.26872e-20 -0.0100146)
(-1.77003e-19 -1.02047e-20 -0.0100154)
(-4.84795e-19 -5.78791e-19 -0.0100154)
(-6.62577e-19 -5.08574e-19 -0.0100146)
(-2.30684e-19 -9.15701e-19 -0.010013)
(-7.97944e-19 -1.67681e-21 -0.0100105)
(-8.72058e-19 -3.32514e-19 -0.0100073)
(-7.55094e-19 -1.07545e-19 -0.0100032)
(-1.00587e-19 2.26552e-19 -0.00999835)
(-1.04283e-19 -1.81318e-19 -0.00999271)
(-2.44813e-19 3.30486e-19 -0.00998629)
(-1.77512e-20 3.6644e-19 -0.0099791)
(-1.42796e-19 1.66422e-19 -0.00997116)
(-2.15559e-19 1.25131e-19 -0.00996247)
(-6.93145e-19 2.22943e-19 -0.00995306)
(-1.73055e-19 2.05644e-19 -0.00994295)
(4.99004e-19 6.7848e-19 -0.00993214)
(5.99614e-19 -5.9041e-19 -0.00992066)
(-1.96832e-19 2.6392e-20 -0.00990853)
(3.7283e-20 -4.19804e-19 -0.00989578)
(-6.67188e-19 -1.59761e-19 -0.00988243)
(-1.77779e-23 -9.23126e-19 -0.00986852)
(-4.95442e-19 -6.13663e-19 -0.00985407)
(-1.21503e-18 -3.6272e-19 -0.00983912)
(-1.00576e-18 -6.66552e-20 -0.00982371)
(-7.81268e-19 -5.98996e-20 -0.00980787)
(-1.4168e-18 -9.39215e-19 -0.00979164)
(-3.16318e-19 -2.75859e-19 -0.00975176)
(1.61239e-20 1.69124e-19 -0.00976804)
(8.97495e-20 -6.58959e-19 -0.00978393)
(-4.14242e-19 7.37472e-20 -0.0097994)
(4.99646e-19 2.65956e-19 -0.00981439)
(-2.55237e-19 -1.98483e-19 -0.00982889)
(-9.64276e-20 7.81832e-19 -0.00984285)
(-5.86644e-19 4.8203e-19 -0.00985623)
(-5.27162e-19 -3.42935e-19 -0.00986902)
(-4.75092e-19 -3.50979e-19 -0.00988118)
(-8.33264e-19 1.10959e-19 -0.00989269)
(-7.93442e-19 -2.11188e-19 -0.00990352)
(1.63135e-19 8.84364e-21 -0.00991366)
(5.45714e-20 -1.61584e-19 -0.00992308)
(-7.42222e-19 -1.51441e-19 -0.00993178)
(-9.32783e-19 2.15513e-19 -0.00993973)
(-2.85196e-19 1.30903e-19 -0.00994693)
(-2.17127e-19 1.26082e-19 -0.00995335)
(-2.29946e-19 5.78669e-19 -0.009959)
(-1.88889e-19 -1.23484e-19 -0.00996386)
(-7.46186e-19 -1.63372e-19 -0.00996792)
(-7.58175e-19 1.13996e-19 -0.00997118)
(-9.58102e-19 -4.06379e-19 -0.00997362)
(-4.98946e-19 -3.17491e-20 -0.00997525)
(-2.56909e-19 2.60668e-22 -0.00997607)
(-4.3477e-19 -5.73206e-19 -0.00997606)
(-3.92555e-19 -5.5834e-19 -0.00997524)
(-3.09247e-19 -9.06579e-19 -0.00997361)
(-8.26407e-19 4.42842e-20 -0.00997115)
(-8.55554e-19 -3.50756e-19 -0.00996789)
(-7.26798e-19 -1.73682e-19 -0.00996383)
(6.06497e-20 1.52354e-19 -0.00995896)
(-3.42093e-20 -1.7706e-19 -0.00995331)
(-2.78811e-19 3.50358e-19 -0.00994687)
(2.02343e-19 2.99955e-19 -0.00993966)
(-3.54785e-20 1.44622e-19 -0.0099317)
(-1.0839e-19 1.38066e-19 -0.00992299)
(-6.85808e-19 2.17262e-19 -0.00991355)
(1.53236e-19 1.17675e-20 -0.0099034)
(5.22188e-19 6.40112e-19 -0.00989256)
(7.12534e-19 -6.11469e-19 -0.00988105)
(6.66003e-20 -5.70504e-20 -0.00986889)
(3.60078e-20 -3.80115e-19 -0.0098561)
(-7.34888e-19 -1.46173e-19 -0.00984272)
(-2.02587e-19 -8.50767e-19 -0.00982876)
(-5.99381e-19 -4.52241e-19 -0.00981427)
(-1.42484e-18 -1.79234e-19 -0.00979928)
(-1.03842e-18 -9.58881e-20 -0.00978382)
(-4.67009e-19 -3.69448e-19 -0.00976794)
(-1.16171e-18 -1.14489e-18 -0.00975167)
(-4.34564e-19 -3.47482e-19 -0.00971143)
(-1.15421e-19 2.53806e-20 -0.00972776)
(7.31321e-20 -6.8284e-19 -0.00974369)
(-5.63398e-19 -1.13158e-19 -0.0097592)
(4.25774e-19 1.95922e-19 -0.00977424)
(-3.28592e-19 -2.44666e-19 -0.00978878)
(-1.84621e-19 7.39539e-19 -0.00980278)
(-3.94769e-19 6.95557e-19 -0.0098162)
(-6.73634e-19 -3.86085e-19 -0.00982903)
(-6.52362e-19 -4.38994e-19 -0.00984122)
(-6.66439e-19 2.25021e-19 -0.00985276)
(-9.18276e-19 -3.10917e-19 -0.00986363)
(-8.03215e-20 -1.47519e-19 -0.0098738)
(-9.29009e-20 -1.64695e-19 -0.00988325)
(-8.33822e-19 -1.26712e-19 -0.00989197)
(-9.94348e-19 1.72005e-19 -0.00989995)
(-1.01444e-19 1.30116e-19 -0.00990716)
(-1.14536e-19 1.54998e-19 -0.0099136)
(-2.71831e-19 5.99134e-19 -0.00991927)
(-8.49539e-20 -6.49482e-20 -0.00992414)
(-7.54071e-19 -1.4043e-19 -0.00992821)
(-5.31869e-19 1.66558e-19 -0.00993148)
(-1.01586e-18 -4.14977e-19 -0.00993393)
(-6.01239e-19 -8.48115e-20 -0.00993556)
(-3.11932e-19 -9.19865e-21 -0.00993638)
(-2.46056e-19 -5.93234e-19 -0.00993638)
(-2.23021e-19 -5.92059e-19 -0.00993556)
(-3.88307e-19 -8.76053e-19 -0.00993391)
(-8.49976e-19 8.73983e-20 -0.00993145)
(-7.82949e-19 -3.82742e-19 -0.00992818)
(-6.97942e-19 -2.39298e-19 -0.00992411)
(-1.42028e-20 1.27517e-19 -0.00991923)
(-1.87582e-19 -1.09755e-19 -0.00991356)
(-5.00104e-19 4.034e-19 -0.0099071)
(3.26826e-19 2.51145e-19 -0.00989988)
(2.45456e-21 1.57039e-19 -0.00989189)
(-1.90592e-19 2.10297e-19 -0.00988316)
(-5.37375e-19 1.34469e-19 -0.00987369)
(2.37375e-19 -6.5529e-20 -0.00986352)
(2.92906e-19 7.27017e-19 -0.00985264)
(7.76153e-19 -6.50324e-19 -0.0098411)
(3.45211e-19 -1.39912e-19 -0.0098289)
(3.6436e-21 -2.99732e-19 -0.00981608)
(-5.92164e-19 -2.35373e-19 -0.00980265)
(-4.21846e-19 -7.44192e-19 -0.00978865)
(-6.71998e-19 -3.24021e-19 -0.00977412)
(-1.3616e-18 -2.1949e-19 -0.00975908)