/*--------------------------------*- C++ -*----------------------------------*\
  =========                 |
  \\      /  F ield         | OpenFOAM: The Open Source CFD Toolbox
   \\    /   O peration     | Website:  https://openfoam.org
    \\  /    A nd           | Version:  7
     \\/     M anipulation  |
\*---------------------------------------------------------------------------*/
FoamFile
{
    version     2.0;
    format      ascii;
    class       volVectorField;
    location    "224000";
    object      vorticity;
}
// * * * * * * * * * * * * * * * * * * * * * * * * * * * * * * * * * * * * * //

dimensions      [0 0 -1 0 0 0 0];

internalField   nonuniform List<vector> 
4764
(
(0.0281329 0.00978541 5.09109e-18)
(0.0283101 0.00885182 -3.60481e-18)
(0.0284688 0.00791861 -3.27664e-18)
(0.0286093 0.0069858 -5.63274e-18)
(0.0287317 0.00605338 -7.77191e-18)
(0.0288363 0.00512134 3.11863e-18)
(0.0261951 0.0185651 5.71793e-18)
(0.0265613 0.017615 -1.15528e-17)
(0.0269053 0.0166633 -1.22223e-17)
(0.0272275 0.0157107 1.06513e-18)
(0.0275284 0.0147573 3.95365e-18)
(0.0278083 0.0138035 -6.1028e-18)
(0.0280677 0.0128496 -6.3849e-18)
(0.028307 0.0118957 3.02638e-18)
(0.0285265 0.0109419 1.30189e-17)
(0.0287265 0.00998849 4.22587e-18)
(0.0289074 0.00903541 -3.76742e-18)
(0.0290694 0.00808275 -2.45706e-18)
(0.0292127 0.00713052 -4.53037e-18)
(0.0293377 0.00617872 -8.46361e-18)
(0.0294444 0.00522735 1.47381e-18)
(0.0295331 0.00427635 1.86519e-18)
(0.0296038 0.00332569 -4.26391e-18)
(0.0296568 0.0023753 3.8749e-18)
(0.0296921 0.0014251 -1.48284e-18)
(0.0297097 0.000475021 -2.14809e-18)
(0.0297097 -0.000475016 1.20026e-17)
(0.0296921 -0.00142509 1.52963e-17)
(0.0296568 -0.00237529 1.40244e-17)
(0.0296038 -0.00332569 2.63157e-18)
(0.0295331 -0.00427635 9.18993e-18)
(0.0294444 -0.00522734 1.2381e-18)
(0.0293377 -0.00617872 -2.83005e-18)
(0.0292127 -0.00713051 1.48556e-18)
(0.0290694 -0.00808274 -9.50532e-18)
(0.0267514 0.0189562 7.02803e-18)
(0.0271255 0.0179856 -1.10563e-17)
(0.0274768 0.0170135 -1.49906e-17)
(0.0278058 0.0160405 -6.65986e-19)
(0.0281131 0.0150668 2.66723e-18)
(0.0283989 0.0140928 -7.02324e-18)
(0.0286638 0.0131186 -4.8347e-18)
(0.0289081 0.0121445 4.64176e-18)
(0.0291321 0.0111706 1.17783e-17)
(0.0293363 0.0101971 2.74703e-18)
(0.0295209 0.00922397 -3.81634e-18)
(0.0296863 0.00825133 -1.67194e-18)
(0.0298325 0.00727916 -4.27749e-18)
(0.02996 0.00630746 -9.69664e-18)
(0.0300689 0.00533622 6.2585e-19)
(0.0301594 0.00436539 8.03868e-19)
(0.0302316 0.00339491 -6.3625e-18)
(0.0302857 0.00242473 2.38666e-18)
(0.0303217 0.00145475 -2.67786e-18)
(0.0303397 0.000484904 -4.11125e-18)
(0.0303397 -0.0004849 1.06232e-17)
(0.0303217 -0.00145475 1.49368e-17)
(0.0302857 -0.00242472 1.22342e-17)
(0.0302316 -0.00339491 5.36189e-20)
(0.0301594 -0.00436538 8.60782e-18)
(0.0300689 -0.00533622 1.39533e-18)
(0.02996 -0.00630746 -2.74344e-18)
(0.0298325 -0.00727916 9.87777e-19)
(0.0296863 -0.00825133 -1.00154e-17)
(0.0295209 -0.00922397 -1.03995e-17)
(0.0293363 -0.0101971 -6.26033e-18)
(0.0291321 -0.0111706 -5.21444e-18)
(0.0289081 -0.0121445 -6.57359e-18)
(0.0273232 0.0193581 6.90388e-18)
(0.0277053 0.0183665 -1.11713e-17)
(0.0280641 0.0173735 -1.76924e-17)
(0.0284002 0.0163795 -2.35714e-18)
(0.0287139 0.0153849 1.67124e-18)
(0.0290058 0.01439 -8.5495e-18)
(0.0292763 0.013395 -4.23067e-18)
(0.0295257 0.0124002 5.65311e-18)
(0.0297544 0.0114056 1.02422e-17)
(0.0299628 0.0104114 9.55723e-19)
(0.0301513 0.00941773 -3.33964e-18)
(0.03032 0.00842455 -8.11471e-19)
(0.0304693 0.00743189 -4.81819e-18)
(0.0305995 0.00643974 -1.09253e-17)
(0.0307106 0.00544808 1.57573e-19)
(0.0308029 0.00445687 5.89035e-19)
(0.0308766 0.00346604 -6.90702e-18)
(0.0309318 0.00247552 2.45341e-18)
(0.0309685 0.00148522 -1.94461e-18)
(0.0309869 0.000495059 -3.85451e-18)
(0.0309869 -0.000495054 1.10758e-17)
(0.0309685 -0.00148521 1.56073e-17)
(0.0309318 -0.00247551 1.1708e-17)
(0.0308766 -0.00346603 -1.47008e-18)
(0.0308029 -0.00445686 8.71409e-18)
(0.0307106 -0.00544808 2.36773e-18)
(0.0305995 -0.00643974 -2.30965e-18)
(0.0304693 -0.00743189 5.03525e-20)
(0.03032 -0.00842455 -9.93065e-18)
(0.0301513 -0.00941773 -1.09989e-17)
(0.0299628 -0.0104114 -7.49121e-18)
(0.0297544 -0.0114056 -6.71137e-18)
(0.0295257 -0.0124002 -6.87543e-18)
(0.0292763 -0.013395 -1.16024e-17)
(0.0290058 -0.01439 -1.94038e-17)
(0.0287139 -0.0153849 -4.27264e-18)
(0.0284002 -0.0163795 -1.17714e-17)
(0.0280641 -0.0173735 -1.0126e-17)
(0.0277053 -0.0183665 -2.80426e-18)
(0.0273232 -0.0193581 9.05695e-18)
(0.0269174 -0.0203479 -8.85107e-19)
(0.0264874 -0.021335 -1.94996e-18)
(0.0260328 -0.0223188 2.8915e-19)
(0.0255533 -0.0232973 1.79504e-18)
(0.0256601 -0.0236503 1.65033e-17)
(0.0279111 0.0197714 6.21074e-18)
(0.0283015 0.0187582 -1.15122e-17)
(0.028668 0.0177435 -1.99032e-17)
(0.0290113 0.016728 -4.09832e-18)
(0.0293317 0.0157119 1.40871e-18)
(0.0296297 0.0146955 -1.00632e-17)
(0.0299059 0.0136792 -4.64613e-18)
(0.0301605 0.012663 6.18123e-18)
(0.0303941 0.0116472 9.21463e-18)
(0.0306069 0.0106318 -5.21696e-19)
(0.0307992 0.0096169 -2.09441e-18)
(0.0309715 0.00860261 6.60235e-19)
(0.0311239 0.00758888 -5.64069e-18)
(0.0312567 0.00657571 -1.20689e-17)
(0.0313701 0.00556306 -3.28283e-19)
(0.0314643 0.0045509 8.40814e-19)
(0.0315395 0.00353914 -6.69313e-18)
(0.0315958 0.00252772 3.19987e-18)
(0.0316333 0.00151653 -3.30612e-19)
(0.031652 0.000505496 -2.23426e-18)
(0.031652 -0.000505491 1.25045e-17)
(0.0316333 -0.00151653 1.63089e-17)
(0.0315958 -0.00252771 1.18067e-17)
(0.0315395 -0.00353914 -2.06837e-18)
(0.0314643 -0.00455089 9.11287e-18)
(0.0313701 -0.00556306 3.88588e-18)
(0.0312567 -0.0065757 -1.32758e-18)
(0.0311239 -0.00758888 -1.03886e-18)
(0.0309715 -0.00860261 -9.62094e-18)
(0.0307992 -0.0096169 -1.06784e-17)
(0.0306068 -0.0106318 -8.65558e-18)
(0.0303941 -0.0116472 -7.51782e-18)
(0.0301605 -0.012663 -6.91905e-18)
(0.0299059 -0.0136792 -1.16359e-17)
(0.0296297 -0.0146955 -1.92009e-17)
(0.0293317 -0.0157119 -3.67852e-18)
(0.0290113 -0.016728 -1.42109e-17)
(0.028668 -0.0177435 -1.07519e-17)
(0.0283015 -0.0187582 -9.72216e-19)
(0.0279111 -0.0197714 1.07044e-17)
(0.0274965 -0.0207828 -2.21731e-18)
(0.0270571 -0.0217917 -2.29139e-18)
(0.0265927 -0.0227972 2.29661e-18)
(0.0261034 -0.0237976 2.98929e-18)
(0.0262034 -0.0241786 1.52197e-17)
(0.0285158 0.0201965 5.29068e-18)
(0.0289147 0.019161 -1.15633e-17)
(0.0292891 0.0181241 -2.18588e-17)
(0.0296397 0.0170864 -6.32538e-18)
(0.029967 0.0160482 1.66916e-18)
(0.0302714 0.0150098 -1.12819e-17)
(0.0305534 0.0139714 -5.73056e-18)
(0.0308134 0.0129333 7.0432e-18)
(0.0310518 0.0118956 8.44899e-18)
(0.0312691 0.0108583 -1.85946e-18)
(0.0314655 0.00982171 -2.1276e-19)
(0.0316413 0.00878571 2.01136e-18)
(0.0317969 0.00775031 -6.84313e-18)
(0.0319324 0.00671551 -1.28516e-17)
(0.0320482 0.00568129 -4.02124e-19)
(0.0321444 0.00464758 8.06929e-19)
(0.0322211 0.00361431 -6.73e-18)
(0.0322786 0.00258139 3.38784e-18)
(0.0323168 0.00154873 7.4391e-19)
(0.0323359 0.000516228 -6.23593e-19)
(0.0323359 -0.000516223 1.36796e-17)
(0.0323168 -0.00154873 1.6171e-17)
(0.0322786 -0.00258139 1.19047e-17)
(0.0322211 -0.0036143 -2.30036e-18)
(0.0321444 -0.00464757 9.01112e-18)
(0.0320482 -0.00568129 5.31277e-18)
(0.0319324 -0.00671551 -8.87397e-20)
(0.0317969 -0.00775031 -1.79627e-18)
(0.0316413 -0.0087857 -9.33546e-18)
(0.0314655 -0.00982171 -9.6713e-18)
(0.0312691 -0.0108583 -9.28037e-18)
(0.0310518 -0.0118956 -7.94219e-18)
(0.0308134 -0.0129333 -6.97054e-18)
(0.0305534 -0.0139714 -1.17396e-17)
(0.0302714 -0.0150098 -1.88937e-17)
(0.029967 -0.0160482 -3.04078e-18)
(0.0296397 -0.0170864 -1.64758e-17)
(0.0292891 -0.0181241 -1.20245e-17)
(0.0289147 -0.019161 -9.96943e-19)
(0.0285158 -0.0201965 9.76902e-18)
(0.0280923 -0.0212303 -3.49506e-18)
(0.0276433 -0.0222615 -2.23314e-18)
(0.0271689 -0.0232896 3.41878e-18)
(0.02667 -0.0243138 4.42003e-18)
(0.0267659 -0.024726 1.56213e-17)
(0.0291382 0.020634 3.94974e-18)
(0.0295456 0.0195755 -1.14362e-17)
(0.0299281 0.0185157 -2.37564e-17)
(0.0302863 0.0174552 -8.01282e-18)
(0.0306206 0.0163942 2.32542e-18)
(0.0309315 0.0153331 -1.24451e-17)
(0.0312195 0.0142721 -6.69201e-18)
(0.031485 0.0132114 8.36089e-18)
(0.0317285 0.0121511 7.82615e-18)
(0.0319503 0.0110914 -2.83224e-18)
(0.0321508 0.0100324 1.55768e-18)
(0.0323303 0.00897406 3.12336e-18)
(0.0324891 0.00791637 -8.25803e-18)
(0.0326275 0.00685933 -1.33588e-17)
(0.0327457 0.00580291 6.67016e-20)
(0.0328438 0.00474703 6.5003e-19)
(0.0329222 0.00369163 -6.69706e-18)
(0.0329808 0.0026366 3.23612e-18)
(0.0330198 0.00158185 1.432e-18)
(0.0330393 0.000527266 7.86367e-19)
(0.0330393 -0.000527262 1.44104e-17)
(0.0330199 -0.00158185 1.56097e-17)
(0.0329808 -0.0026366 1.23972e-17)
(0.0329222 -0.00369162 -2.28786e-18)
(0.0328438 -0.00474703 8.50664e-18)
(0.0327457 -0.0058029 6.92329e-18)
(0.0326275 -0.00685933 9.55956e-19)
(0.0324891 -0.00791636 -2.30522e-18)
(0.0323303 -0.00897405 -9.09703e-18)
(0.0321508 -0.0100324 -8.58728e-18)
(0.0319503 -0.0110914 -8.92419e-18)
(0.0317285 -0.0121511 -8.54569e-18)
(0.031485 -0.0132114 -6.98379e-18)
(0.0312195 -0.0142721 -1.16517e-17)
(0.0309315 -0.015333 -1.87618e-17)
(0.0306206 -0.0163942 -2.56516e-18)
(0.0302863 -0.0174552 -1.78124e-17)
(0.0299281 -0.0185157 -1.34144e-17)
(0.0295456 -0.0195755 -1.85563e-18)
(0.0291382 -0.020634 8.20239e-18)
(0.0287055 -0.0216908 -4.57514e-18)
(0.0282477 -0.0227459 -2.33359e-18)
(0.0277643 -0.0237984 3.40489e-18)
(0.0272568 -0.0248493 6.35922e-18)
(0.0273467 -0.0252918 1.71141e-17)
(0.0297802 0.0210853 2.64306e-18)
(0.0301953 0.0200023 -1.14007e-17)
(0.030586 0.0189189 -2.52195e-17)
(0.0309519 0.0178348 -9.05874e-18)
(0.0312933 0.0167504 2.66164e-18)
(0.0316109 0.0156658 -1.38603e-17)
(0.0319051 0.0145815 -7.33066e-18)
(0.0321763 0.0134976 9.84072e-18)
(0.0324249 0.0124141 7.698e-18)
(0.0326514 0.0113313 -3.33432e-18)
(0.0328561 0.0102492 3.02624e-18)
(0.0330394 0.00916789 4.1082e-18)
(0.0332015 0.00808726 -9.67237e-18)
(0.0333427 0.00700733 -1.36956e-17)
(0.0334634 0.00592806 7.22486e-19)
(0.0335636 0.00484938 4.95476e-19)
(0.0336436 0.0037712 -6.43164e-18)
(0.0337034 0.00269342 2.97013e-18)
(0.0337433 0.00161593 2.01285e-18)
(0.0337632 0.000538626 1.84105e-18)
(0.0337632 -0.000538621 1.4422e-17)
(0.0337433 -0.00161593 1.48244e-17)
(0.0337034 -0.00269341 1.31855e-17)
(0.0336436 -0.00377119 -1.86878e-18)
(0.0335636 -0.00484937 8.21469e-18)
(0.0334634 -0.00592805 8.56253e-18)
(0.0333427 -0.00700732 1.44788e-18)
(0.0332015 -0.00808726 -2.71893e-18)
(0.0330394 -0.00916789 -8.85613e-18)
(0.0328561 -0.0102492 -7.8279e-18)
(0.0326514 -0.0113313 -8.26341e-18)
(0.0324249 -0.0124141 -8.81463e-18)
(0.0321762 -0.0134976 -6.9085e-18)
(0.0319051 -0.0145815 -1.13843e-17)
(0.0316109 -0.0156658 -1.89564e-17)
(0.0312933 -0.0167504 -2.72133e-18)
(0.0309519 -0.0178348 -1.83403e-17)
(0.030586 -0.0189189 -1.40397e-17)
(0.0301953 -0.0200023 -2.43967e-18)
(0.0297802 -0.0210853 7.49918e-18)
(0.0293394 -0.022167 -4.78725e-18)
(0.0288741 -0.0232481 -2.16157e-18)
(0.0283831 -0.0243276 2.5372e-18)
(0.027867 -0.0254065 8.19179e-18)
(0.027946 -0.0258758 1.754e-17)
(0.0304461 0.0215536 1.09143e-18)
(0.0308675 0.020444 -1.19121e-17)
(0.0312653 0.0193352 -2.65665e-17)
(0.0316379 0.0182261 -1.02794e-17)
(0.0319862 0.0171172 2.51612e-18)
(0.0323106 0.0160085 -1.51992e-17)
(0.032611 0.0149001 -7.87993e-18)
(0.0328879 0.0137922 1.0762e-17)
(0.0331418 0.0126849 8.10449e-18)
(0.0333731 0.0115783 -3.4131e-18)
(0.0335822 0.0104725 4.08535e-18)
(0.0337693 0.00936745 4.93876e-18)
(0.0339348 0.00826319 -1.09284e-17)
(0.0340791 0.00715969 -1.39944e-17)
(0.0342022 0.0060569 1.51065e-18)
(0.0343045 0.00495473 7.74523e-19)
(0.0343862 0.00385311 -6.16101e-18)
(0.0344472 0.00275191 2.55065e-18)
(0.0344879 0.00165102 2.74164e-18)
(0.0345082 0.00055032 2.70043e-18)
(0.0345082 -0.000550315 1.38182e-17)
(0.0344879 -0.00165101 1.35093e-17)
(0.0344473 -0.0027519 1.37387e-17)
(0.0343862 -0.0038531 -1.07208e-18)
(0.0343045 -0.00495473 8.48e-18)
(0.0342022 -0.00605689 9.96736e-18)
(0.0340791 -0.00715969 1.50826e-18)
(0.0339348 -0.00826319 -2.86555e-18)
(0.0337693 -0.00936744 -8.68316e-18)
(0.0335822 -0.0104725 -7.81851e-18)
(0.0333731 -0.0115783 -7.3966e-18)
(0.0331418 -0.0126849 -8.679e-18)
(0.0328879 -0.0137922 -7.0782e-18)
(0.032611 -0.0149001 -1.11453e-17)
(0.0323105 -0.0160085 -1.92996e-17)
(0.0319862 -0.0171172 -3.51178e-18)
(0.0316379 -0.0182261 -1.90802e-17)
(0.0312653 -0.0193352 -1.41366e-17)
(0.0308675 -0.020444 -3.27389e-18)
(0.0304461 -0.0215536 7.23474e-18)
(0.0299988 -0.0226625 -4.47585e-18)
(0.0295258 -0.0237708 -1.63619e-18)
(0.0290263 -0.0248778 1.71008e-18)
(0.0284999 -0.0259843 9.63694e-18)
(0.0285643 -0.0264779 1.76165e-17)
(0.0311389 0.022041 -1.0992e-18)
(0.0315672 0.0209039 -1.24692e-17)
(0.0319707 0.0197676 -2.76784e-17)
(0.0323486 0.0186315 -1.1352e-17)
(0.0327027 0.0174965 2.40586e-18)
(0.0330328 0.0163622 -1.62845e-17)
(0.0333387 0.0152286 -8.69449e-18)
(0.0336211 0.0140958 1.10082e-17)
(0.0338804 0.0129639 8.78509e-18)
(0.0341166 0.0118327 -3.17165e-18)
(0.0343301 0.0107024 4.99855e-18)
(0.0345211 0.00957299 5.68694e-18)
(0.0346901 0.0084444 -1.23361e-17)
(0.0348374 0.00731662 -1.39937e-17)
(0.0349631 0.00618959 2.36217e-18)
(0.0350676 0.00506324 1.17187e-18)
(0.0351509 0.00393747 -6.10941e-18)
(0.0352133 0.00281214 2.08671e-18)
(0.0352548 0.00168715 3.26861e-18)
(0.0352755 0.000562363 3.37481e-18)
(0.0352755 -0.000562359 1.32841e-17)
(0.0352548 -0.00168715 1.2271e-17)
(0.0352133 -0.00281214 1.37663e-17)
(0.0351509 -0.00393746 -2.74542e-19)
(0.0350676 -0.00506324 9.21263e-18)
(0.0349631 -0.00618959 1.11739e-17)
(0.0348374 -0.00731661 1.27964e-18)
(0.0346901 -0.00844439 -2.84954e-18)
(0.0345211 -0.00957298 -8.21169e-18)
(0.0343301 -0.0107024 -8.26402e-18)
(0.0341166 -0.0118327 -6.15874e-18)
(0.0338804 -0.0129639 -8.35097e-18)
(0.0336211 -0.0140958 -7.47415e-18)
(0.0333387 -0.0152286 -1.16302e-17)
(0.0330328 -0.0163622 -1.97483e-17)
(0.0327027 -0.0174965 -4.28932e-18)
(0.0323486 -0.0186315 -1.97186e-17)
(0.0319707 -0.0197676 -1.39923e-17)
(0.0315672 -0.0209039 -4.35368e-18)
(0.0311389 -0.022041 6.88631e-18)
(0.0306842 -0.0231777 -4.3732e-18)
(0.0302019 -0.0243133 -1.16229e-18)
(0.029692 -0.0254474 1.48372e-18)
(0.0291536 -0.0265807 1.11663e-17)
(0.029202 -0.0270984 1.73019e-17)
(0.0318578 0.0225469 -3.43306e-18)
(0.0322947 0.0213823 -1.22961e-17)
(0.0327047 0.0202178 -2.85873e-17)
(0.0330886 0.0190539 -1.21446e-17)
(0.0334478 0.0178911 2.22779e-18)
(0.0337825 0.0167295 -1.75848e-17)
(0.0340925 0.0155689 -9.49801e-18)
(0.0343797 0.0144099 1.12107e-17)
(0.0346435 0.0132521 9.53785e-18)
(0.0348838 0.0120952 -2.70757e-18)
(0.0351011 0.0109395 6.18811e-18)
(0.035296 0.00978484 5.88802e-18)
(0.0354685 0.00863115 -1.39474e-17)
(0.0356188 0.00747834 -1.35972e-17)
(0.0357472 0.00632634 3.14131e-18)
(0.0358538 0.00517506 1.38312e-18)
(0.0359389 0.00402439 -6.21261e-18)
(0.0360025 0.00287421 1.6354e-18)
(0.0360449 0.00172438 3.65009e-18)
(0.0360661 0.000574772 3.81224e-18)
(0.0360661 -0.000574768 1.28236e-17)
(0.0360449 -0.00172438 1.13554e-17)
(0.0360025 -0.00287421 1.3716e-17)
(0.0359389 -0.00402439 5.18527e-19)
(0.0358538 -0.00517505 9.93193e-18)
(0.0357472 -0.00632633 1.23392e-17)
(0.0356188 -0.00747833 1.17637e-18)
(0.0354685 -0.00863114 -3.01452e-18)
(0.0352959 -0.00978483 -7.32037e-18)
(0.0351011 -0.0109395 -8.52906e-18)
(0.0348838 -0.0120952 -5.11982e-18)
(0.0346435 -0.0132521 -8.07353e-18)
(0.0343796 -0.0144099 -7.2892e-18)
(0.0340925 -0.0155689 -1.24299e-17)
(0.0337824 -0.0167295 -2.08958e-17)
(0.0334478 -0.0178911 -5.16079e-18)
(0.0330886 -0.0190539 -2.01176e-17)
(0.0327047 -0.0202178 -1.31421e-17)
(0.0322947 -0.0213823 -4.95453e-18)
(0.0318578 -0.0225469 5.98355e-18)
(0.0313936 -0.023711 -4.36729e-18)
(0.0309008 -0.024874 -8.24198e-19)
(0.0303791 -0.0260353 1.93399e-18)
(0.0298275 -0.0271953 1.27517e-17)
(0.0298597 -0.0277378 1.60125e-17)
(0.032601 0.0230698 -5.33927e-18)
(0.0330476 0.0218774 -1.20158e-17)
(0.033466 0.0206848 -2.93399e-17)
(0.0338577 0.0194929 -1.29219e-17)
(0.0342231 0.0183019 1.62042e-18)
(0.0345629 0.0171121 -1.89387e-17)
(0.0348778 0.0159236 -9.7537e-18)
(0.035169 0.0147368 1.14574e-17)
(0.0354363 0.0135516 1.02259e-17)
(0.0356799 0.0123677 -2.47388e-18)
(0.0359001 0.0111852 7.5739e-18)
(0.036098 0.0100041 5.73234e-18)
(0.0362736 0.00882429 -1.53996e-17)
(0.0364265 0.00764548 -1.28042e-17)
(0.0365571 0.00646759 3.76995e-18)
(0.0366656 0.00529051 1.18922e-18)
(0.0367522 0.00411411 -6.28686e-18)
(0.0368169 0.00293826 1.42386e-18)
(0.03686 0.00176279 3.80954e-18)
(0.0368815 0.000587573 3.9305e-18)
(0.0368815 -0.000587569 1.24704e-17)
(0.03686 -0.00176279 1.05277e-17)
(0.0368169 -0.00293825 1.37689e-17)
(0.0367522 -0.00411411 1.46199e-18)
(0.0366656 -0.0052905 1.02989e-17)
(0.0365571 -0.00646758 1.32242e-17)
(0.0364265 -0.00764548 1.22659e-18)
(0.0362736 -0.00882429 -3.07836e-18)
(0.036098 -0.0100041 -5.86328e-18)
(0.0359 -0.0111852 -8.58032e-18)
(0.0356799 -0.0123677 -4.69679e-18)
(0.0354363 -0.0135516 -7.77089e-18)
(0.035169 -0.0147368 -6.90462e-18)
(0.0348778 -0.0159236 -1.21788e-17)
(0.0345629 -0.0171121 -2.24272e-17)
(0.0342231 -0.0183019 -6.42622e-18)
(0.0338577 -0.0194929 -2.09468e-17)
(0.033466 -0.0206848 -1.19586e-17)
(0.0330476 -0.0218774 -4.74256e-18)
(0.032601 -0.0230698 4.56704e-18)
(0.0321261 -0.0242617 -4.45147e-18)
(0.0316217 -0.0254523 2.82764e-19)
(0.0310874 -0.0266412 2.81659e-18)
(0.030522 -0.0278283 1.40166e-17)
(0.0305379 -0.0283968 1.45756e-17)
(0.0333679 0.0236094 -7.32359e-18)
(0.033825 0.0223886 -1.16846e-17)
(0.0342531 0.0211676 -2.99202e-17)
(0.0346535 0.0199472 -1.37601e-17)
(0.0350267 0.0187277 7.24877e-19)
(0.0353734 0.0175094 -2.02035e-17)
(0.0356945 0.0162926 -9.86726e-18)
(0.0359905 0.0150773 1.21541e-17)
(0.036262 0.0138637 1.09739e-17)
(0.0365092 0.0126517 -2.94723e-18)
(0.0367327 0.0114413 8.74693e-18)
(0.0369334 0.0102326 5.80277e-18)
(0.0371113 0.0090253 -1.67732e-17)
(0.0372662 0.00781929 -1.18139e-17)
(0.0373985 0.00661437 4.34454e-18)
(0.0375084 0.0054104 6.46505e-19)
(0.037596 0.00420724 -6.22091e-18)
(0.0376616 0.00300471 1.54092e-18)
(0.0377052 0.00180264 3.73854e-18)
(0.037727 0.000600851 3.63826e-18)
(0.037727 -0.000600847 1.23425e-17)
(0.0377052 -0.00180264 1.01136e-17)
(0.0376616 -0.00300471 1.41274e-17)
(0.037596 -0.00420723 2.26644e-18)
(0.0375084 -0.0054104 1.01079e-17)
(0.0373985 -0.00661436 1.36165e-17)
(0.0372662 -0.00781928 1.11299e-18)
(0.0371113 -0.0090253 -2.86033e-18)
(0.0369334 -0.0102326 -3.92928e-18)
(0.0367327 -0.0114413 -8.4567e-18)
(0.0365092 -0.0126517 -4.96338e-18)
(0.036262 -0.0138637 -7.33272e-18)
(0.0359905 -0.0150773 -6.59089e-18)
(0.0356945 -0.0162926 -1.13165e-17)
(0.0353734 -0.0175094 -2.33008e-17)
(0.0350267 -0.0187277 -7.89965e-18)
(0.0346535 -0.0199472 -2.20765e-17)
(0.0342531 -0.0211676 -1.09529e-17)
(0.033825 -0.0223886 -4.38159e-18)
(0.0333679 -0.0236094 3.03289e-18)
(0.0328816 -0.0248296 -4.60546e-18)
(0.0323649 -0.0260486 1.66703e-18)
(0.0318174 -0.0272657 3.8587e-18)
(0.0312377 -0.0284805 1.54445e-17)
(0.0312376 -0.0290763 1.3609e-17)
(0.0336605 0.0254152 4.62857e-18)
(0.0341588 0.0241658 -9.30155e-18)
(0.034627 0.0229159 -1.08841e-17)
(0.0350654 0.0216659 -3.04785e-17)
(0.0354754 0.0204164 -1.4626e-17)
(0.0358572 0.0191678 -7.51449e-19)
(0.0362118 0.0179204 -2.07431e-17)
(0.0365401 0.0166746 -9.91542e-18)
(0.0368423 0.0154302 1.26859e-17)
(0.0371191 0.0141877 1.21023e-17)
(0.0373713 0.012947 -3.80671e-18)
(0.0375992 0.0117079 9.38243e-18)
(0.0378032 0.0104705 6.08409e-18)
(0.0379837 0.00923475 -1.79297e-17)
(0.038141 0.00800044 -1.09105e-17)
(0.0382752 0.00676738 4.5717e-18)
(0.0383867 0.00553541 -6.03046e-20)
(0.0384756 0.00430436 -5.98844e-18)
(0.0385422 0.00307402 1.85879e-18)
(0.0385865 0.0018442 3.49069e-18)
(0.0386086 0.000614701 2.97429e-18)
(0.0386086 -0.000614697 1.25753e-17)
(0.0385865 -0.0018442 1.02045e-17)
(0.0385422 -0.00307401 1.44595e-17)
(0.0384756 -0.00430435 2.57829e-18)
(0.0383867 -0.00553541 9.66303e-18)
(0.0382752 -0.00676737 1.39001e-17)
(0.038141 -0.00800043 9.06373e-19)
(0.0379837 -0.00923475 -2.64128e-18)
(0.0378032 -0.0104705 -1.73663e-18)
(0.0375992 -0.0117079 -8.28527e-18)
(0.0373713 -0.012947 -5.64103e-18)
(0.0371191 -0.0141877 -6.57009e-18)
(0.0368423 -0.0154302 -6.60383e-18)
(0.0365401 -0.0166746 -1.03239e-17)
(0.0362118 -0.0179204 -2.34352e-17)
(0.0358572 -0.0191678 -9.69314e-18)
(0.0354754 -0.0204164 -2.3225e-17)
(0.0350654 -0.0216659 -1.02639e-17)
(0.034627 -0.0229159 -3.94157e-18)
(0.0341588 -0.0241658 1.25745e-18)
(0.0336605 -0.0254152 -4.81744e-18)
(0.0331312 -0.0266632 2.81021e-18)
(0.0325701 -0.0279093 4.96246e-18)
(0.0319756 -0.0291527 1.71389e-17)
(0.0319596 -0.0297772 1.32623e-17)
(0.0344639 0.0260191 4.02229e-18)
(0.0349746 0.0247397 -1.13243e-17)
(0.0354543 0.0234599 -9.99746e-18)
(0.0359035 0.0221799 -3.10175e-17)
(0.0363235 0.0209006 -1.54531e-17)
(0.0367146 0.0196221 -2.64327e-18)
(0.0370777 0.0183449 -2.07635e-17)
(0.0374137 0.0170692 -9.25311e-18)
(0.0377229 0.0157952 1.28003e-17)
(0.038006 0.014523 1.32671e-17)
(0.0382638 0.0132526 -4.89978e-18)
(0.0384967 0.0119841 9.34324e-18)
(0.0387049 0.0107173 6.19772e-18)
(0.038889 0.00945213 -1.87478e-17)
(0.0390494 0.00818857 -1.01949e-17)
(0.0391863 0.00692639 4.59821e-18)
(0.0393 0.00566539 -7.65026e-19)
(0.0393906 0.00440537 -5.78999e-18)
(0.0394584 0.00314613 2.32013e-18)
(0.0395036 0.00188746 3.13642e-18)
(0.0395261 0.000629115 2.25355e-18)
(0.0395261 -0.000629111 1.32882e-17)
(0.0395036 -0.00188745 1.05695e-17)
(0.0394584 -0.00314613 1.45909e-17)
(0.0393906 -0.00440537 2.56126e-18)
(0.0393 -0.00566538 9.20548e-18)
(0.0391863 -0.00692638 1.44342e-17)
(0.0390494 -0.00818857 9.37168e-19)
(0.038889 -0.00945213 -2.85448e-18)
(0.0387049 -0.0107173 -1.52156e-19)
(0.0384967 -0.0119841 -7.86439e-18)
(0.0382638 -0.0132526 -6.40348e-18)
(0.038006 -0.014523 -6.07668e-18)
(0.0377229 -0.0157952 -6.80339e-18)
(0.0374137 -0.0170692 -9.10256e-18)
(0.0370777 -0.0183449 -2.3028e-17)
(0.0367146 -0.0196221 -1.12135e-17)
(0.0363235 -0.0209006 -2.41054e-17)
(0.0359035 -0.0221799 -9.88981e-18)
(0.0354543 -0.0234599 -3.57515e-18)
(0.0349746 -0.0247397 -7.25403e-19)
(0.034464 -0.0260191 -5.40227e-18)
(0.0339215 -0.0272971 3.49955e-18)
(0.0333464 -0.0285731 5.49335e-18)
(0.032737 -0.0298462 1.89651e-17)
(0.032705 -0.0305006 1.33475e-17)
(0.0352931 0.0266422 2.6555e-18)
(0.0358164 0.0253319 -1.37214e-17)
(0.0363079 0.0240211 -9.11976e-18)
(0.0367684 0.0227103 -3.08406e-17)
(0.0371987 0.0214001 -1.64701e-17)
(0.0375994 0.0200909 -4.60294e-18)
(0.0379714 0.018783 -2.098e-17)
(0.0383156 0.0174767 -8.45169e-18)
(0.0386322 0.016172 1.31283e-17)
(0.0389221 0.0148693 1.45473e-17)
(0.039186 0.0135685 -6.37293e-18)
(0.0394244 0.0122696 9.03335e-18)
(0.0396374 0.0109724 6.5016e-18)
(0.0398256 0.00967702 -1.90235e-17)
(0.0399896 0.00838329 -9.59107e-18)
(0.0401295 0.00709102 4.84136e-18)
(0.0402457 0.00579999 -1.4185e-18)
(0.0403384 0.00451 -5.72971e-18)
(0.0404077 0.00322084 2.80185e-18)
(0.0404538 0.00193227 2.5571e-18)
(0.0404769 0.000644051 1.61784e-18)
(0.0404769 -0.000644046 1.40854e-17)
(0.0404538 -0.00193226 1.0846e-17)
(0.0404077 -0.00322083 1.47168e-17)
(0.0403384 -0.00451 2.47832e-18)
(0.0402457 -0.00579998 8.68702e-18)
(0.0401295 -0.00709101 1.52949e-17)
(0.0399896 -0.00838329 1.08086e-18)
(0.0398256 -0.00967702 -3.31861e-18)
(0.0396374 -0.0109724 8.76186e-19)
(0.0394244 -0.0122696 -7.36671e-18)
(0.039186 -0.0135685 -6.88211e-18)
(0.0389221 -0.0148693 -5.64755e-18)
(0.0386322 -0.016172 -6.68306e-18)
(0.0383156 -0.0174767 -7.94239e-18)
(0.0379714 -0.018783 -2.28154e-17)
(0.0375994 -0.0200909 -1.25772e-17)
(0.0371987 -0.0214001 -2.43758e-17)
(0.0367684 -0.0227103 -9.12471e-18)
(0.0363079 -0.0240211 -3.50342e-18)
(0.0358164 -0.0253319 -2.75726e-18)
(0.0352931 -0.0266422 -6.04078e-18)
(0.0347372 -0.0279513 3.5573e-18)
(0.0341477 -0.0292583 5.08493e-18)
(0.0335232 -0.0305622 2.05995e-17)
(0.0334749 -0.0312476 1.3368e-17)
(0.0355796 0.0286269 3.13056e-17)
(0.0361493 0.0272857 1.19511e-18)
(0.0366856 0.0259433 -1.55827e-17)
(0.0371893 0.0246005 -8.17893e-18)
(0.0376612 0.0232578 -3.06075e-17)
(0.0381021 0.0219158 -1.75032e-17)
(0.0385128 0.0205748 -6.59367e-18)
(0.0388941 0.0192352 -2.11583e-17)
(0.0392466 0.0178973 -7.27901e-18)
(0.0395711 0.0165611 1.36704e-17)
(0.0398681 0.0152268 1.52593e-17)
(0.0401384 0.0138946 -7.90298e-18)
(0.0403825 0.0125644 9.02312e-18)
(0.0406006 0.011236 6.72798e-18)
(0.0407933 0.00990938 -1.92398e-17)
(0.0409611 0.00858451 -8.89072e-18)
(0.0411044 0.00726116 5.30446e-18)
(0.0412233 0.00593912 -2.26123e-18)
(0.0413181 0.00461817 -6.05124e-18)
(0.0413891 0.00329808 3.33411e-18)
(0.0414363 0.0019786 2.05695e-18)
(0.0414599 0.000659493 1.35084e-18)
(0.0414599 -0.000659488 1.49387e-17)
(0.0414363 -0.00197859 1.08145e-17)
(0.0413891 -0.00329807 1.48057e-17)
(0.0413181 -0.00461816 2.48563e-18)
(0.0412233 -0.00593912 8.11289e-18)
(0.0411044 -0.00726116 1.63869e-17)
(0.0409611 -0.00858451 1.25858e-18)
(0.0407933 -0.00990938 -4.09777e-18)
(0.0406006 -0.011236 1.43922e-18)
(0.0403825 -0.0125644 -6.93481e-18)
(0.0401384 -0.0138946 -7.37162e-18)
(0.0398681 -0.0152268 -5.52005e-18)
(0.0395711 -0.0165611 -6.28147e-18)
(0.0392466 -0.0178973 -6.44941e-18)
(0.0388941 -0.0192352 -2.28048e-17)
(0.0385128 -0.0205748 -1.40288e-17)
(0.0381021 -0.0219158 -2.42031e-17)
(0.0376612 -0.0232578 -8.28405e-18)
(0.0371893 -0.0246005 -3.68004e-18)
(0.0366856 -0.0259433 -4.46635e-18)
(0.0361493 -0.0272857 -6.23829e-18)
(0.0355796 -0.0286269 2.61177e-18)
(0.0349755 -0.029966 4.55206e-18)
(0.0343355 -0.0313019 2.21295e-17)
(0.0342708 -0.0320195 1.31734e-17)
(0.0364503 0.0293251 3.17445e-17)
(0.0370341 0.0279506 4.36437e-20)
(0.0375837 0.026575 -1.69775e-17)
(0.0380999 0.0251991 -6.93065e-18)
(0.0385835 0.0238234 -3.0401e-17)
(0.0390354 0.0224484 -1.85969e-17)
(0.0394562 0.0210746 -8.62755e-18)
(0.0398469 0.0197022 -2.11265e-17)
(0.0402082 0.0183316 -6.19198e-18)
(0.0405407 0.0169628 1.39284e-17)
(0.040845 0.0155961 1.51083e-17)
(0.0411219 0.0142314 -9.43032e-18)
(0.041372 0.0128688 9.46287e-18)
(0.0415954 0.0115082 6.96514e-18)
(0.0417929 0.0101494 -1.93409e-17)
(0.0419647 0.00879236 -8.17699e-18)
(0.0421114 0.00743693 5.63037e-18)
(0.0422332 0.00608285 -3.165e-18)
(0.0423303 0.00472992 -6.61886e-18)
(0.042403 0.00337787 3.75148e-18)
(0.0424513 0.00202646 1.85828e-18)
(0.0424755 0.000675447 1.39696e-18)
(0.0424755 -0.000675442 1.57583e-17)
(0.0424513 -0.00202646 1.04095e-17)
(0.042403 -0.00337786 1.47953e-17)
(0.0423303 -0.00472991 2.88876e-18)
(0.0422332 -0.00608285 7.71212e-18)
(0.0421114 -0.00743692 1.69756e-17)
(0.0419647 -0.00879236 1.18899e-18)
(0.0417929 -0.0101494 -4.89882e-18)
(0.0415954 -0.0115082 1.76965e-18)
(0.041372 -0.0128688 -6.12401e-18)
(0.0411219 -0.0142314 -8.12258e-18)
(0.040845 -0.0155961 -6.057e-18)
(0.0405407 -0.0169628 -6.06086e-18)
(0.0402082 -0.0183316 -4.87136e-18)
(0.0398469 -0.0197022 -2.25151e-17)
(0.0394562 -0.0210746 -1.54305e-17)
(0.0390354 -0.0224484 -2.4288e-17)
(0.0385835 -0.0238234 -7.11745e-18)
(0.0380999 -0.0251991 -3.66773e-18)
(0.0375837 -0.026575 -5.86886e-18)
(0.0370341 -0.0279506 -5.84373e-18)
(0.0364503 -0.0293251 1.24932e-18)
(0.0358313 -0.0306975 3.86016e-18)
(0.0351754 -0.0320667 2.36993e-17)
(0.0350939 -0.0328178 1.31721e-17)
(0.0367165 0.0314542 3.10474e-17)
(0.037351 0.0300472 3.11206e-17)
(0.0379492 0.0286382 -1.32882e-18)
(0.0385124 0.0272282 -1.82371e-17)
(0.0390414 0.025818 -5.50183e-18)
(0.039537 0.024408 -3.02824e-17)
(0.0400001 0.022999 -2.00572e-17)
(0.0404313 0.0215911 -1.06733e-17)
(0.0408317 0.0201849 -2.06735e-17)
(0.0412019 0.0187804 -5.30771e-18)
(0.0415426 0.017378 1.3789e-17)
(0.0418544 0.0159776 1.43512e-17)
(0.0421382 0.0145794 -1.08458e-17)
(0.0423943 0.0131834 1.0586e-17)
(0.0426233 0.0117894 7.03293e-18)
(0.0428255 0.0103973 -1.93774e-17)
(0.0430016 0.0090071 -7.68829e-18)
(0.0431519 0.00761852 5.61904e-18)
(0.0432766 0.00623135 -3.92956e-18)
(0.0433761 0.00484536 -6.90252e-18)
(0.0434505 0.00346031 3.89646e-18)
(0.0435 0.00207592 1.81708e-18)
(0.0435247 0.00069193 1.68571e-18)
(0.0435247 -0.000691925 1.66152e-17)
(0.0435 -0.00207591 9.67119e-18)
(0.0434505 -0.0034603 1.44328e-17)
(0.0433761 -0.00484536 3.59286e-18)
(0.0432766 -0.00623134 7.96949e-18)
(0.0431519 -0.00761851 1.69958e-17)
(0.0430016 -0.00900709 5.94655e-19)
(0.0428255 -0.0103973 -5.51968e-18)
(0.0426233 -0.0117894 1.96874e-18)
(0.0423943 -0.0131834 -4.81773e-18)
(0.0421382 -0.0145794 -8.84387e-18)
(0.0418544 -0.0159776 -7.26319e-18)
(0.0415426 -0.017378 -5.84136e-18)
(0.0412019 -0.0187804 -3.29376e-18)
(0.0408317 -0.0201849 -2.17919e-17)
(0.0404313 -0.0215911 -1.69543e-17)
(0.0400001 -0.022999 -2.49971e-17)
(0.039537 -0.024408 -6.00982e-18)
(0.0390414 -0.025818 -3.17045e-18)
(0.0385124 -0.0272282 -7.31119e-18)
(0.0379492 -0.0286382 -5.61874e-18)
(0.037351 -0.0300472 6.86605e-19)
(0.0367165 -0.0314542 3.77891e-18)
(0.0360444 -0.032858 2.53806e-17)
(0.0359459 -0.0336437 1.31579e-17)
(0.037633 0.0322375 3.36408e-17)
(0.0382832 0.0307947 2.97792e-17)
(0.0388963 0.0293499 -2.80874e-18)
(0.0394735 0.0279041 -1.95194e-17)
(0.0400156 0.0264583 -4.48428e-18)
(0.0405235 0.0250129 -3.04371e-17)
(0.040998 0.0235685 -2.15042e-17)
(0.04144 0.0221254 -1.21175e-17)
(0.0418502 0.020684 -2.00599e-17)
(0.0422295 0.0192446 -4.77876e-18)
(0.0425786 0.0178072 1.36759e-17)
(0.0428981 0.0163721 1.32379e-17)
(0.0431888 0.0149392 -1.18088e-17)
(0.0434512 0.0135086 1.19191e-17)
(0.0436858 0.0120801 6.97584e-18)
(0.0438931 0.0106536 -1.92291e-17)
(0.0440734 0.00922907 -7.59756e-18)
(0.0442274 0.00780622 5.17842e-18)
(0.0443552 0.00638484 -4.09554e-18)
(0.044457 0.0049647 -6.52435e-18)
(0.0445333 0.00354552 3.70768e-18)
(0.044584 0.00212703 1.48839e-18)
(0.0446093 0.000708967 1.79335e-18)
(0.0446093 -0.000708962 1.7422e-17)
(0.044584 -0.00212703 8.98198e-18)
(0.0445333 -0.00354551 1.38198e-17)
(0.044457 -0.00496469 4.41613e-18)
(0.0443552 -0.00638484 8.75635e-18)
(0.0442274 -0.00780621 1.68686e-17)
(0.0440734 -0.00922907 -3.95214e-19)
(0.0438931 -0.0106536 -6.08252e-18)
(0.0436858 -0.0120801 2.03296e-18)
(0.0434512 -0.0135086 -3.07121e-18)
(0.0431888 -0.0149392 -9.16762e-18)