/*--------------------------------*- C++ -*----------------------------------*\
  =========                 |
  \\      /  F ield         | OpenFOAM: The Open Source CFD Toolbox
   \\    /   O peration     | Website:  https://openfoam.org
    \\  /    A nd           | Version:  7
     \\/     M anipulation  |
\*---------------------------------------------------------------------------*/
FoamFile
{
    version     2.0;
    format      ascii;
    class       surfaceScalarField;
    location    "248000";
    object      phi;
}
// * * * * * * * * * * * * * * * * * * * * * * * * * * * * * * * * * * * * * //

dimensions      [0 3 -1 0 0 0 0];

internalField   nonuniform List<scalar> 
9490
(
-2.76879e-23
5.92348e-23
3.00946e-23
-5.95412e-23
-2.75154e-23
1.33393e-22
3.11252e-23
-2.46346e-23
-7.57545e-23
-2.92973e-23
2.78777e-23
-2.16246e-23
6.49268e-23
-1.98233e-23
-2.8464e-23
1.29575e-22
2.932e-23
-2.50291e-23
-2.23496e-24
-2.87207e-23
-1.82373e-23
-2.10375e-23
3.22668e-23
-1.89771e-23
-2.85628e-23
1.68287e-22
2.74555e-23
-2.75625e-23
-1.10238e-23
-2.78152e-23
1.10232e-22
-2.14867e-23
8.94404e-23
-1.85917e-23
-2.75265e-23
1.36231e-22
2.61424e-23
-2.79557e-23
-9.59992e-23
-2.73509e-23
1.0259e-22
-2.21186e-23
1.59393e-22
-1.86681e-23
-2.96187e-23
1.01939e-23
2.48912e-23
-2.67291e-23
-1.26718e-22
-2.77772e-23
6.62809e-23
-2.28706e-23
1.16421e-22
-4.73288e-23
-2.92459e-23
1.55408e-23
2.66167e-23
-2.67493e-23
-7.58006e-23
-2.58622e-23
5.9691e-23
-2.41939e-23
1.63535e-23
-4.48211e-23
-2.77261e-23
7.6258e-23
2.82556e-23
-2.68008e-23
-7.22024e-23
-2.49761e-23
5.53646e-23
-2.43525e-23
7.89667e-24
-2.56036e-23
-2.85609e-23
7.81994e-23
2.78603e-23
-2.6246e-23
1.33075e-23
-2.52071e-23
5.67742e-23
-2.39127e-23
-1.09868e-23
-2.25892e-23
-2.89042e-23
8.19683e-23
2.61214e-23
-2.62859e-23
1.36457e-22
-2.59034e-23
6.34509e-23
-2.30226e-23
3.14348e-23
-2.35975e-23
-2.76905e-23
7.69156e-24
2.49605e-23
-2.75378e-23
1.37123e-22
-2.51486e-23
6.69163e-23
-2.30729e-23
9.55266e-23
1.10113e-23
-2.65149e-23
1.55344e-23
2.47875e-23
-2.82196e-23
1.40931e-22
-2.63019e-23
6.53814e-23
-2.2897e-23
9.99491e-23
1.70022e-24
-2.4159e-23
-1.50444e-23
2.49852e-23
-2.89475e-23
8.33423e-23
-2.66434e-23
4.82827e-23
-2.28419e-23
1.02239e-22
-2.40691e-23
-8.69706e-24
2.40812e-23
-2.85413e-23
9.15501e-23
-2.65266e-23
2.58318e-23
9.91577e-23
-2.39243e-23
-5.36977e-24
2.45398e-23
-2.83176e-23
9.74119e-23
-2.72304e-23
1.79573e-23
1.29754e-22
-2.39318e-23
-7.93289e-23
2.40342e-23
-2.73828e-23
1.14407e-22
-2.72382e-23
1.1564e-23
-2.3839e-23
-3.4921e-24
2.42561e-23
-2.73353e-23
1.24517e-22
-3.81888e-23
-2.32398e-23
-6.54105e-23
2.4045e-23
-2.67995e-23
1.39098e-22
-2.27652e-23
-6.73458e-23
2.50075e-23
1.5197e-22
-2.29324e-23
-3.07733e-23
2.45011e-23
1.63845e-22
-2.22492e-23
-6.70183e-23
2.35168e-23
1.34368e-22
-2.22142e-23
-1.9435e-23
2.28425e-23
1.00993e-22
-2.1421e-23
5.45097e-23
2.32138e-23
2.19206e-23
-1.11404e-24
2.69904e-23
5.97975e-24
6.14211e-24
-1.67237e-23
2.68727e-24
-2.03409e-23
2.21041e-23
5.77332e-23
7.23215e-24
-7.62836e-24
1.67389e-23
-3.66709e-23
1.5047e-23
2.3449e-23
1.39332e-23
9.41109e-24
1.8494e-23
8.2013e-23
2.14799e-23
-1.27642e-24
2.38183e-23
2.16995e-23
8.37759e-24
5.24146e-23
5.99833e-25
3.5126e-23
3.13657e-24
5.9822e-23
1.33077e-23
1.79333e-22
2.38089e-23
1.87471e-22
2.37647e-23
6.86626e-23
2.45848e-23
1.03468e-22
7.96793e-24
6.56555e-23
5.61782e-23
-2.91833e-24
5.86327e-23
5.66126e-24
6.72599e-24
9.94651e-23
5.39674e-24
-5.94222e-23
1.79115e-23
4.78001e-23
7.53753e-24
-2.73353e-23
1.44517e-23
-3.31486e-23
1.59544e-23
2.77184e-23
1.43449e-23
-7.44095e-24
1.94738e-23
2.07518e-22
1.94552e-23
-5.11487e-24
2.44284e-23
9.18694e-24
8.91312e-24
1.00197e-23
6.92594e-27
-1.89998e-23
5.63072e-24
8.33091e-23
1.47447e-23
1.6155e-22
2.18031e-23
1.68774e-22
2.33315e-23
6.40762e-23
2.27684e-23
2.86818e-23
6.45946e-24
4.40051e-23
8.83376e-23
-1.14047e-24
1.95655e-23
3.71109e-24
4.5307e-24
5.03999e-23
5.53987e-24
-6.07982e-23
1.66254e-23
3.74478e-23
7.38268e-24
-5.02464e-23
1.32496e-23
-3.68023e-23
1.69964e-23
2.99032e-23
1.60168e-23
-2.59754e-23
1.68705e-23
2.09315e-22
1.88489e-23
-5.31664e-24
2.31771e-23
-1.02534e-24
8.2945e-24
2.63656e-24
2.87872e-24
4.92445e-23
6.64382e-24
6.83779e-23
1.59451e-23
1.38344e-22
1.90551e-23
1.08199e-22
2.44929e-23
7.91382e-23
2.31757e-23
3.93989e-23
6.77735e-24
2.44643e-23
8.03928e-23
-3.07078e-24
1.96889e-23
5.92588e-25
4.26373e-24
5.03858e-23
6.23816e-24
1.5877e-23
1.41633e-23
4.94611e-23
8.62905e-24
8.63365e-24
1.1279e-23
-4.14905e-23
1.98144e-23
-1.91373e-23
1.92284e-23
-7.75384e-23
1.5375e-23
1.80384e-22
1.69084e-23
-9.92371e-24
2.47868e-23
6.32606e-23
8.9721e-24
5.01159e-25
3.22278e-24
3.89676e-23
8.30802e-24
9.32833e-23
1.58712e-23
8.87606e-23
1.98009e-23
9.71132e-23
2.26219e-23
8.18322e-23
2.26299e-23
4.01795e-23
8.08162e-24
2.3542e-23
7.32727e-23
-3.61293e-24
2.53996e-23
-6.6708e-25
2.78794e-24
1.18758e-22
7.02099e-24
-2.30139e-23
1.34399e-23
5.64765e-23
8.5766e-24
1.50171e-23
9.37748e-24
-4.44258e-23
2.03131e-23
4.07335e-23
2.12122e-23
5.16428e-25
1.40464e-23
1.38256e-22
1.6185e-23
1.89718e-23
2.31072e-23
1.29865e-22
1.02086e-23
2.6688e-24
4.35482e-24
6.5725e-24
8.53951e-24
4.15386e-23
1.55948e-23
4.44975e-23
2.09008e-23
5.30553e-23
2.03008e-23
4.72889e-23
2.26254e-23
4.43218e-23
7.75519e-24
2.49156e-23
1.05122e-22
-1.5285e-24
-6.59525e-24
4.94905e-25
4.15771e-25
1.10411e-22
6.49447e-24
-3.26332e-23
1.25054e-23
1.04654e-22
8.70922e-24
2.43143e-23
7.54877e-24
-4.72022e-23
2.33592e-23
1.01362e-22
2.26045e-23
-1.77819e-23
1.43598e-23
9.04096e-23
1.77321e-23
-7.8707e-23
2.12614e-23
1.5855e-22
1.1454e-23
-3.67605e-24
4.59229e-24
4.77353e-23
8.34065e-24
7.73005e-23
1.57248e-23
6.90293e-23
2.09569e-23
4.67172e-23
1.91066e-23
5.31753e-23
2.24601e-23
2.46172e-23
8.66183e-24
-9.95956e-24
3.22099e-23
-1.33736e-24
-3.45899e-23
-2.81301e-25
1.22279e-25
1.44131e-22
8.35157e-24
-5.95481e-24
1.00939e-23
3.46188e-23
7.54807e-24
3.91674e-23
9.1039e-24
-5.92727e-23
2.22061e-23
2.16963e-22
2.19004e-23
-4.2629e-23
1.4744e-23
8.70454e-23
1.90986e-23
-8.36104e-23
1.87276e-23
1.39487e-22
1.13616e-23
7.59776e-23
3.67904e-24
5.56137e-23
9.5736e-24
2.53043e-23
1.35168e-23
7.27362e-24
2.16848e-23
3.64978e-23
1.80914e-23
-2.60273e-23
2.28572e-23
2.06406e-23
8.40291e-24
-1.73455e-23
3.41504e-23
1.59479e-24
-5.75221e-23
1.27426e-24
-2.16847e-24
6.49054e-23
7.51724e-24
1.996e-23
1.03734e-23
-3.23749e-23
7.48748e-24
1.33329e-23
1.34081e-23
-6.07643e-23
2.05179e-23
2.90563e-22
2.01762e-23
-9.75382e-23
1.45706e-23
4.8112e-23
1.99326e-23
-9.96684e-23
1.95777e-23
1.3539e-22
9.60103e-24
-1.98985e-23
4.77891e-24
5.19242e-23
8.14276e-24
-1.41943e-23
1.42638e-23
1.08105e-23
2.24564e-23
2.92584e-23
1.81006e-23
-3.87385e-23
2.35193e-23
1.16629e-23
7.52269e-24
-4.94141e-23
3.41168e-24
4.01927e-23
2.85793e-24
-7.43328e-23
-1.12444e-24
-1.23188e-23
2.21953e-24
-7.99765e-24
9.66922e-24
-1.19538e-22
-1.76278e-23
-1.42177e-22
-1.33474e-23
-6.38825e-23
-5.22345e-24
5.2134e-23
-1.52615e-23
-7.42636e-23
-8.08388e-24
1.15553e-23
-1.2207e-23
-1.71106e-23
-8.45525e-24
4.34146e-23
-2.14471e-23
-6.869e-23
-2.53632e-23
-2.35526e-23
-1.04261e-23
2.2431e-23
1.20314e-23
4.95215e-24
6.3066e-23
3.04714e-24
-2.73302e-24
3.41501e-23
7.27656e-24
5.37895e-23
1.0915e-23
-1.52132e-23
7.77437e-24
1.11062e-22
1.70954e-23
6.01433e-23
1.63474e-23
1.86959e-22
1.93896e-23
-3.85032e-23
1.37416e-23
1.30299e-22
2.21874e-23
-7.45516e-23
2.03823e-23
1.3155e-22
8.33143e-24
-1.08235e-22
3.802e-24
5.89758e-23
7.67478e-24
-1.64517e-23
1.40709e-23
-6.75894e-24
2.09466e-23
1.95472e-23
1.81262e-23
8.08785e-24
2.33342e-23
4.14606e-24
7.91997e-24
-9.05623e-23
2.55994e-24
4.44542e-23
3.42916e-24
-4.00191e-23
-7.84216e-25
-5.16348e-23
3.47841e-25
-6.90514e-24
9.64295e-24
-5.08546e-23
-1.63378e-23
-1.37477e-22
-1.08843e-23
-3.34868e-23
-7.33687e-24
4.00628e-23
-1.40262e-23
-9.73404e-23
-8.57381e-24
1.05199e-23
-1.07736e-23
1.27178e-23
-9.82529e-24
2.43716e-23
-2.05638e-23
-9.1362e-23
-2.3987e-23
-4.73235e-23
-9.51559e-24
1.40444e-23
-1.17153e-23
2.93666e-23
-1.50604e-23
3.13984e-23
-1.60832e-23
3.48272e-24
1.24067e-23
-4.78457e-25
-1.9469e-24
-9.37397e-24
5.48183e-24
1.3951e-22
1.17131e-23
-1.28082e-23
9.91961e-24
1.11249e-22
1.54176e-23
-1.55459e-23
1.39613e-23
1.39457e-22
2.1139e-23
-2.4257e-23
1.2083e-23
9.16771e-23
2.19599e-23
-8.48345e-23
1.88232e-23
1.25389e-22
9.48165e-24
-1.01581e-22
3.395e-24
5.21597e-23
7.37977e-24
-1.70945e-23
1.44546e-23
-2.61465e-23
2.17526e-23
3.42937e-23
1.69973e-23
1.36018e-23
2.3112e-23
2.74869e-23
8.8092e-24
-8.83446e-23
2.51818e-24
4.96074e-23
2.81483e-24
-8.41625e-23
6.59111e-26
-4.73446e-23
8.07266e-27
-4.10808e-24
7.89546e-24
-6.89881e-23
-1.42189e-23
-1.31741e-22
-9.84648e-24
-3.29498e-23
-8.57343e-24
3.09063e-23
-1.33076e-23
-9.38699e-23
-7.77154e-24
8.59084e-24
-1.11185e-23
1.01205e-23
-1.11848e-23
1.06485e-23
-1.98517e-23
-9.22185e-23
-2.30752e-23
-7.81145e-23
-6.86967e-24
4.01383e-23
-1.24149e-23
-3.71706e-23
-1.66295e-23
-1.64554e-24
-1.60941e-23
-2.03849e-23
2.14927e-23
4.20887e-24
1.24816e-23
-1.76249e-24
-1.67406e-24
-4.41515e-23
4.2783e-24
1.77006e-22
1.35666e-23
1.6486e-23
7.42064e-24
8.39739e-23
1.64133e-23
1.41016e-23
1.28431e-23
9.45171e-23
2.13186e-23
2.34465e-23
1.01421e-23
5.22691e-23
2.38218e-23
-9.42203e-23
1.68795e-23
4.77983e-23
9.90659e-24
-9.12757e-23
3.48107e-24
7.03885e-23
5.40463e-24
-1.48727e-23
1.64004e-23
7.81185e-24
2.16572e-23
6.43335e-23
1.70593e-23
2.07031e-23
2.2654e-23
2.12337e-23
9.58184e-24
-3.77071e-23
1.53994e-24
1.87844e-23
2.85821e-24
-8.25957e-23
9.74874e-25
-4.02288e-23
-2.64856e-25
-3.92626e-23
7.00447e-24
-8.37599e-23
-1.23008e-23
-1.22654e-22
-9.61638e-24
-4.15081e-23
-9.4173e-24
2.08878e-23
-1.29498e-23
-1.39296e-22
-6.57902e-24
-4.52627e-24
-1.16556e-23
-2.9144e-23
-1.2255e-23
4.40545e-23
-1.95093e-23
-5.29989e-23
-2.11292e-23
-7.82576e-23
-8.56902e-24
3.17963e-23
-1.14296e-23
-3.32443e-23
-1.56286e-23
1.9687e-26
-1.56136e-23
-1.70329e-23
-7.72189e-24
-3.13284e-23
2.20292e-24
-2.56739e-23
2.04644e-23
4.6979e-24
4.04278e-24
-1.47924e-24
-2.67538e-25
-4.87165e-23
2.26536e-24
2.21474e-22
1.32966e-23
1.31927e-24
7.65349e-24
9.42857e-23
1.56e-23
-1.80653e-24
1.3714e-23
3.97272e-23
2.11375e-23
1.35885e-22
9.24883e-24
4.92625e-23
2.30206e-23
-2.0149e-23
1.7415e-23
4.72396e-23
9.89449e-24
-7.90637e-23
3.87219e-24
4.86036e-23
6.16888e-24
2.90508e-23
1.69002e-23
3.75812e-23
2.02052e-23
8.90604e-23
1.65531e-23
5.94435e-23
2.305e-23
-2.49512e-23
8.96594e-24
-6.76988e-23
1.5915e-24
1.80258e-23
3.74011e-24
-5.46281e-23
6.73602e-25
-3.74746e-23
-1.70925e-25
-3.95904e-23
6.5791e-24
-9.5457e-23
-1.09747e-23
-1.0773e-22
-9.14574e-24
-5.81612e-23
-1.07214e-23
1.16835e-23
-1.20181e-23
-1.46851e-22
-6.89587e-24
2.3089e-23
-1.10116e-23
-3.45169e-23
-1.28013e-23
-2.58428e-23
-2.07096e-23
-5.29235e-23
-1.85035e-23
-3.85554e-24
-9.96392e-24
-9.84165e-24
-9.32868e-24
-3.24099e-23
-1.52297e-23
-2.8169e-23
-1.64442e-23
-1.54854e-23
-6.73607e-24
8.5478e-24
2.86165e-24
-4.20429e-24
-6.40033e-25
-1.71832e-23
-1.9405e-23
2.89725e-23
-2.61962e-23
3.89326e-24
5.68683e-24
-2.76823e-24
1.96388e-24
-8.57862e-23
1.16049e-24
1.48419e-22
1.34027e-23
-1.09712e-24
7.47877e-24
6.49082e-23
1.55859e-23
2.22425e-23
1.60568e-23
1.42866e-23
1.80259e-23
1.10587e-22
7.94598e-24
4.67718e-23
2.29443e-23
-4.11771e-23
1.81718e-23
1.96483e-23
1.0873e-23
-3.14578e-23
3.35792e-24
1.02001e-22
6.83254e-24
1.2062e-22
1.6894e-23
-1.26917e-23
1.93557e-23
3.03915e-23
1.58988e-23
5.86449e-23
2.3014e-23
-4.05698e-23
8.68807e-24
-2.01456e-23
1.11984e-24
2.06112e-23
3.75959e-24
-2.40839e-23
2.77414e-25
-6.72065e-23
-2.82095e-25
3.84141e-26
6.62833e-24
-9.15584e-23
-1.02477e-23
-9.04278e-23
-8.87579e-24
-2.94112e-23
-1.2005e-23
-3.70885e-23
-1.07517e-23
-1.49866e-22
-6.61496e-24
-1.64138e-23
-1.06545e-23
-3.77016e-23
-1.17893e-23
-4.8695e-23
-1.91394e-23
-4.88991e-23
-1.91581e-23
-1.57536e-23
-1.04757e-23
-1.69771e-23
-8.60442e-24
4.42361e-23
-1.56142e-23
-2.08793e-23
-1.45336e-23
-1.30268e-23
-7.36212e-24
-2.21546e-23
2.14098e-24
-2.15223e-23
2.26839e-24
-5.89728e-23
-2.01512e-23
-2.58326e-23
-2.01016e-23
-2.52416e-23
-2.60607e-23
-4.24937e-23
-2.74718e-23
-5.23024e-23
-5.95018e-23
4.87653e-24
1.84918e-23
-2.01665e-24
2.75937e-24
-1.15939e-22
9.48137e-25
1.20621e-22
1.24106e-23
1.04239e-22
6.1949e-24
7.40318e-23
1.7643e-23
5.45825e-23
1.77617e-23
-6.61087e-25
1.53324e-23
1.01779e-22
6.71718e-24
1.23143e-22
2.43937e-23
1.90964e-23
1.8224e-23
2.79018e-23
1.05379e-23
-3.70456e-23
5.77984e-24
2.97194e-23
3.90724e-24
-4.80659e-24
1.84305e-23
1.02857e-22
1.81723e-23
-3.14046e-23
1.49265e-23
1.47531e-23
2.39859e-23
-1.96049e-23
8.30105e-24
-1.031e-23
1.07074e-24
-6.49293e-24
3.1231e-24
-2.17327e-23
8.01126e-25
-7.04228e-23
-5.74065e-25
4.33353e-23
6.49836e-24
-9.12341e-23
-9.12481e-24
-1.05621e-22
-9.79507e-24
-6.58757e-23
-1.23494e-23
-4.45827e-23
-9.96154e-24
-1.10719e-22
-6.37309e-24
-1.39921e-23
-1.14384e-23
-3.54051e-23
-1.06131e-23
-5.67636e-23
-1.78908e-23
-7.68809e-23
-1.94355e-23
-2.11638e-23
-8.52656e-24
-6.33907e-24
-9.21143e-24
7.6128e-24
-1.53676e-23
-1.39618e-23
-1.50794e-23
-6.10879e-24
-6.57551e-24
5.51898e-23
1.34691e-24
1.11584e-23
3.63584e-24
-5.57115e-23
-2.07696e-23
-6.99843e-23
-1.93604e-23
8.77427e-24
-2.6648e-23
-8.57188e-23
-2.56667e-23
-4.34681e-23
-3.48011e-23
-6.10234e-23
-2.90859e-23
1.10414e-22
-1.13516e-22
5.49145e-24
3.20867e-23
-1.36634e-24
2.92779e-24
-7.33027e-23
1.83273e-24
1.24657e-22
1.16379e-23
9.09451e-23
6.2132e-24
7.93474e-23
1.64369e-23
5.65071e-23
2.07478e-23
-2.67013e-23
1.61204e-23
9.99899e-23
5.06615e-24
1.6809e-22
2.3962e-23
1.22582e-22
1.75014e-23
1.13422e-23
1.17975e-23
-1.48791e-23
6.05432e-24
4.05782e-23
4.59679e-24
3.59035e-24
1.64138e-23
5.54136e-23
1.82834e-23
-3.77917e-23
1.37155e-23
1.95059e-23
2.55821e-23
3.65754e-25
7.6227e-24
-7.70338e-23
1.43742e-24
-3.34954e-23
2.69783e-24
6.09847e-23
2.11974e-24
-7.34374e-23
-1.55754e-24
4.68047e-23
6.23799e-24
-1.28175e-22
-8.71669e-24
-1.63613e-22
-9.98279e-24
-6.58642e-23
-1.21893e-23
-9.9394e-23
-1.00104e-23
-1.09136e-22
-6.06384e-24
-1.42381e-23
-1.18276e-23
1.10231e-23
-1.03904e-23
-7.10974e-23
-1.62566e-23
-4.13037e-23
-1.91718e-23
-2.88508e-23
-8.07613e-24
2.37753e-23
-8.43158e-24
4.23721e-24
-1.5452e-23
-1.58557e-23
-1.46504e-23
-3.16347e-25
-7.51909e-24
5.15911e-23
1.34216e-24
1.52758e-23
2.27652e-24
-3.30595e-23
-1.85444e-23
-1.53975e-22
-2.0836e-23
-6.77708e-23
-2.64306e-23
-6.74461e-23
-2.4873e-23
-8.29198e-23
-3.38583e-23
-1.08848e-22
-3.06582e-23
5.00898e-23
-2.29479e-23
-1.25114e-22
-1.67852e-23
5.79715e-23
-2.73192e-23
1.07806e-22
4.63654e-23
5.59764e-24
4.05932e-23
-1.00679e-24
4.33367e-24
-5.91747e-23
1.14668e-24
1.22707e-22
1.295e-23
1.08964e-22
3.1095e-24
-4.02733e-23
1.6484e-23
7.78305e-23
2.08137e-23
-4.80562e-24
1.66391e-23
1.64176e-23
4.78941e-24
8.38848e-23
2.19446e-23
4.98134e-23
1.75697e-23
6.37379e-23
1.13596e-23
4.15683e-24
5.0711e-24
8.12386e-24
5.80239e-24
2.25045e-24
1.45475e-23
2.09021e-23
1.90936e-23
3.94938e-23
1.38976e-23
-6.30766e-24
2.51594e-23
-4.64167e-24
8.28397e-24
-9.12242e-23
2.77027e-24
2.18567e-24
8.92354e-25
6.12917e-23
3.60535e-24
-5.34638e-23
-3.21849e-24
3.91036e-23
5.49366e-24
-9.30563e-23
-7.29345e-24
-1.45437e-22
-1.05808e-23
-2.86794e-23
-1.1493e-23
-1.94248e-23
-9.52154e-24
-1.15531e-22
-4.77121e-24
5.82828e-23
-1.41397e-23
7.48866e-24
-9.07801e-24
-5.29903e-23
-1.64032e-23
-4.75107e-23
-1.82154e-23
-3.74761e-23
-8.40245e-24
8.89122e-24
-7.56535e-24
-2.79096e-23
-1.57094e-23
-3.32773e-23
-1.28779e-23
-3.13083e-24
-7.48368e-24
5.03725e-23
8.34418e-25
1.31234e-23
8.07788e-25
-1.00618e-22
-1.72571e-23
-1.98456e-22
-1.92772e-23
-1.76604e-23
-2.61813e-23
-8.20744e-23
-2.4424e-23
-4.90124e-23
-3.2947e-23
-1.8798e-22
-3.07353e-23
-3.645e-24
-2.07288e-23
-1.12248e-22
-1.64805e-23
4.43688e-23
-2.70504e-23
-1.17906e-23
5.238e-23
5.7704e-24
7.00623e-23
-5.6354e-25
4.78085e-24
-4.51804e-23
6.71244e-25
5.10565e-23
1.02861e-23
9.07227e-23
3.52262e-24
-3.14281e-23
1.5688e-23
7.66738e-23
2.08763e-23
-8.25745e-24
1.89407e-23
2.06776e-23
4.15049e-24
9.76022e-23
2.25266e-23
1.54057e-22
1.6455e-23
-7.16312e-24
1.14996e-23
4.26055e-23
5.18086e-24
-1.69185e-23
5.73377e-24
-5.01563e-23
1.62109e-23
4.24812e-23
1.77593e-23
6.90355e-23
1.45079e-23
4.42211e-23
2.38078e-23
-4.26418e-23
9.0244e-24
-2.20447e-23
3.39373e-24
4.67865e-24
3.85544e-25
6.65626e-23
4.05154e-24
2.05208e-23
-4.27649e-24
2.92371e-23
4.5245e-24
-7.16695e-23
-5.79707e-24
-1.31242e-22
-1.01316e-23
-2.53929e-23
-1.26023e-23
-5.6925e-23
-7.2274e-24
-9.29143e-23
-5.47172e-24
4.55341e-23
-1.54552e-23
-7.70498e-24
-8.27361e-24
-4.67527e-23
-1.53914e-23
-3.33994e-23
-1.74242e-23
-5.1856e-23
-8.51299e-24
1.24757e-24
-8.33997e-24
-6.16106e-23
-1.45659e-23
-8.26888e-23
-1.2301e-23
-4.48274e-23
-7.47764e-24
5.24947e-23
-1.0073e-24
-7.21346e-23
-9.88752e-26
-9.37681e-23
-1.57003e-23
-2.60245e-22
-1.9514e-23
-4.87297e-23
-2.75302e-23
-7.96129e-23
-2.41786e-23
-1.22832e-23
-3.10202e-23
-1.93351e-22
-3.12222e-23
-2.2679e-23
-1.77192e-23
6.02617e-24
-1.7549e-23
2.39755e-23
-2.50682e-23
-2.69631e-24
-6.23719e-23
5.71718e-24
7.73957e-23
-9.04689e-25
4.52998e-24
1.08052e-23
5.94625e-25
2.22186e-23
1.01531e-23
7.5681e-23
2.94926e-24
-3.05609e-23
1.49051e-23
1.13203e-22
2.20126e-23
-1.7702e-24
1.87264e-23
2.56577e-23
5.34943e-24
1.41599e-22
1.98897e-23
1.36091e-22
1.69825e-23
4.13292e-23
1.15677e-23
1.32355e-22
4.85234e-24
-1.41648e-23
6.11976e-24
-1.26156e-22
1.67877e-23
6.78861e-23
1.76277e-23
5.02029e-23
1.23604e-23
-2.38154e-23
2.45402e-23
-3.9809e-23
9.91605e-24
-2.26982e-23
3.37536e-24
-2.91036e-23
1.13781e-24
7.52148e-23
3.33028e-24
6.3441e-24
-4.44733e-24
1.58665e-23
3.54032e-24
-3.28902e-23
-4.30923e-24
-1.21723e-22
-1.06941e-23
-5.16584e-23
-1.29637e-23
-9.08635e-23
-5.78529e-24
-1.12869e-22
-6.00886e-24
1.2456e-23
-1.60752e-23
2.79545e-24
-7.98547e-24
-7.0288e-23
-1.53006e-23
-4.30247e-23
-1.7308e-23
-1.01304e-22
-7.95278e-24
-9.12482e-24
-8.57402e-24
-5.31844e-23
-1.36461e-23
-5.2286e-23
-1.07529e-23
-5.46439e-23
-9.24815e-24
5.91691e-23
-1.80715e-24
-6.93061e-23
-1.11179e-24
-7.435e-23
-1.24087e-23
-2.41264e-22
-1.85382e-23
-1.19979e-22
-2.68523e-23
-6.92888e-23
-2.62305e-23
3.12911e-24
-2.84533e-23
-5.87164e-23
-3.08384e-23
3.96272e-23
-1.959e-23
1.1069e-22
-1.60984e-23
9.34979e-23
-2.55273e-23
-3.79581e-23
-8.83284e-23
6.13069e-24
1.27084e-22
-1.11209e-24
2.81768e-24
2.54162e-23
7.05481e-25
1.12303e-22
8.92495e-24
9.03657e-23
4.98727e-24
-2.60821e-23
1.47419e-23
1.62271e-22
2.29259e-23
8.06256e-24
2.03282e-23
-8.48277e-24
5.75776e-24
1.58061e-22
1.78513e-23
1.20877e-22
1.89724e-23
5.05101e-23
8.79278e-24
1.41075e-22
3.37001e-24
2.38621e-23
8.2867e-24
-1.22201e-24
1.6244e-23
2.24039e-23
1.64395e-23
4.55679e-23
1.17805e-23
-5.47796e-24
2.46825e-23
-3.11679e-23
1.04466e-23
5.90387e-24
3.97494e-24
-6.04643e-23
1.7351e-24
6.44746e-23
2.23626e-24
-3.14163e-23
-4.2691e-24
4.10701e-23
2.20526e-24
-3.7677e-23
-3.44071e-24
-1.12358e-22
-1.13543e-23
-1.24535e-22
-1.30664e-23
-8.87861e-23
-4.31898e-24
-1.27509e-22
-5.6635e-24
8.6935e-24
-1.76411e-23
-4.10144e-23
-6.61831e-24
-2.36796e-23
-1.60471e-23
-5.2901e-23
-1.62609e-23
-7.33887e-23
-6.62565e-24
1.09746e-22
-9.42654e-24
-1.17487e-22
-1.24021e-23
-3.10506e-23
-9.21998e-24
-5.67925e-23
-1.02135e-23
-1.42025e-23
-1.65383e-24
-6.51223e-23
-3.11915e-24
-9.61205e-23
-1.07112e-23
-2.22361e-22
-1.73661e-23
-1.83453e-22
-2.63299e-23
-1.3043e-22
-2.63351e-23
3.96572e-24
-2.91753e-23
-6.09716e-23
-3.0185e-23
3.09037e-23
-2.03089e-23
4.81071e-23
-1.62869e-23
8.90355e-23
-2.5189e-23
-3.33202e-23
-5.29158e-23
7.5561e-24
8.78282e-23
-2.06252e-24
2.38749e-24
-8.79274e-23
3.21909e-25
1.13258e-22
8.13553e-24
1.49707e-22
5.64755e-24
-1.41855e-23
1.32224e-23
1.55326e-22
2.27106e-23
4.732e-23
2.24973e-23
-7.27033e-24
6.01831e-24
1.71887e-22
1.59905e-23
1.48848e-22
2.10117e-23
4.68986e-23
7.53972e-24
7.95392e-23
3.05164e-24
6.51246e-23
8.14031e-24
4.14093e-24
1.69521e-23
1.36006e-22
1.49191e-23
8.67209e-23
1.1586e-23
-3.57456e-23
2.50675e-23
-2.29885e-23
1.03638e-23
6.26023e-23
4.62119e-24
-9.61231e-23
1.74805e-24
3.81433e-23
2.68455e-24
-3.97647e-24
-5.01211e-24
1.36474e-23
1.52998e-24
-6.46695e-24
-4.11517e-24
-1.04624e-22
-1.07209e-23
-1.14993e-22
-1.37286e-23
-8.37634e-23
-2.0614e-24
-1.09679e-23
-6.55373e-24
5.87425e-24
-1.76689e-23
-4.94755e-24
-6.03819e-24
2.09605e-23
-1.62813e-23
-6.23058e-23
-1.37395e-23
-5.52039e-23
-8.80118e-24
1.96722e-23
-8.27334e-24
-7.25976e-23
-1.22572e-23
-1.41805e-22
-9.30992e-24
-2.02564e-23
-1.00334e-23
-8.9259e-23
-2.72962e-24
-6.85359e-23
-4.80754e-24
-8.5605e-23
-9.95615e-24
-2.0977e-22
-1.54163e-23
-1.5971e-22
-2.5318e-23
-1.11743e-22
-2.52308e-23
-2.84681e-23
-2.80803e-23
-6.46532e-23
-3.00607e-23
2.78133e-23
-1.98175e-23
4.37468e-23
-1.91555e-23
9.51163e-23
-2.53327e-23
5.98643e-23
2.34112e-23
5.46174e-24
5.80363e-23
-3.82966e-24
3.89831e-24
-7.00595e-23
-1.1905e-24
7.61243e-23
7.56557e-24
8.04573e-23
4.71624e-24
-2.86088e-23
1.40745e-23
1.62334e-22
2.17196e-23
7.42115e-23
2.40321e-23
-7.63745e-24
6.22483e-24
1.7904e-22
1.29736e-23
1.55134e-22
2.06369e-23
6.04803e-23
8.62452e-24
9.95013e-23
1.87491e-24
7.56292e-23
8.28622e-24
-8.82409e-24
1.6308e-23
1.23013e-22
1.38447e-23
5.32311e-23
1.28006e-23
2.18746e-23
2.48575e-23
1.57953e-23
9.77701e-24
1.18303e-22
4.94067e-24
-8.53003e-23
2.46419e-24
3.97532e-23
2.51611e-24
-3.90129e-23
-4.84088e-24
-1.70595e-23
3.46408e-25
-1.13184e-23
-4.48797e-24
-9.42688e-23
-1.05704e-23
-1.12436e-22
-1.25247e-23
-7.66192e-23
-1.8287e-24
-2.17478e-23
-6.67182e-24
-7.87905e-23
-1.75271e-23
2.75616e-23
-5.96097e-24
7.86965e-23
-1.64077e-23
-1.06708e-22
-1.28582e-23
1.79213e-23
-9.88149e-24
-2.79754e-24
-9.74413e-24
-6.55575e-23
-9.38367e-24
-1.28933e-22
-1.06492e-23
-4.58662e-23
-8.39202e-24
-8.95568e-23
-2.23129e-24
-6.24217e-23
-6.20757e-24
-1.02451e-22
-8.13499e-24
-2.02456e-22
-1.39936e-23
-1.27879e-22
-2.53217e-23
-1.25662e-22
-2.38157e-23
-3.04104e-23
-2.65468e-23
-7.26427e-23
-2.89354e-23
5.60035e-23
-2.00786e-23
5.79933e-23
-1.8731e-23
1.29843e-22
-2.63103e-23
6.74594e-23
1.84096e-23
5.19317e-24
6.31901e-23
-2.40212e-24
3.34907e-24
-4.12297e-23
-4.19238e-25
7.85146e-23
6.83708e-24
3.18407e-23
5.84239e-24
-1.88536e-23
1.27472e-23
1.63586e-22
2.1532e-23
6.89762e-23
2.54042e-23
-4.3885e-24
7.1227e-24
7.59406e-23
1.2862e-23
1.17645e-22
2.08064e-23
1.53015e-23
8.4357e-24
9.84722e-23
1.85677e-24
7.73501e-23
9.7205e-24
-2.44915e-23
1.48611e-23
7.79001e-23
1.39123e-23
6.23701e-23
1.24493e-23
-4.67205e-23
2.57533e-23
1.79002e-23
8.56871e-24
7.36602e-23
4.88268e-24
-7.92476e-23
3.38249e-24
4.87576e-23
2.08444e-24
-4.53095e-23
-4.5082e-24
-5.04544e-23
-6.50868e-25
-1.10458e-23
-4.53763e-24
-6.71161e-23
-1.05303e-23
-1.0565e-22
-1.16142e-23
-3.20959e-23
-2.65425e-24
8.06407e-24
-5.19222e-24
-4.66363e-23
-1.70571e-23
1.56274e-23
-7.34263e-24
6.92323e-23
-1.56216e-23
-1.17183e-22
-1.28329e-23
1.26627e-23
-9.54824e-24
-1.78135e-23
-1.09414e-23
-6.44181e-23
-8.59927e-24
-8.4137e-23
-1.11516e-23
-4.19687e-23
-8.0536e-24
-9.83533e-23
-2.5534e-24
-8.56266e-23
-7.31243e-24
-9.31683e-23
-8.98205e-24
-6.89962e-23
-1.33501e-23
-6.90143e-23
-2.42901e-23
-8.02226e-23
-2.34623e-23
-3.17499e-23
-2.46229e-23
-8.29935e-23
-2.76883e-23
5.80124e-23
-2.06523e-23
5.69689e-23
-1.97026e-23
1.32751e-22
-2.62157e-23
7.50634e-23
-1.68834e-23
5.78293e-24
8.87119e-23
-5.64781e-25
3.06306e-24
-4.26033e-23
7.22435e-26
7.55071e-23
6.57184e-24
1.25941e-23
6.50562e-24
-4.75219e-23
1.3367e-23
7.8711e-23
2.20084e-23
6.72582e-23
2.50717e-23
4.59627e-25
7.82351e-24
5.73026e-23
1.1712e-23
9.53067e-23
2.08638e-23
1.24482e-22
7.84639e-24
5.98272e-23
1.60306e-24
7.89026e-23
9.80513e-24
-4.0794e-23
1.46187e-23
6.85581e-23
1.25639e-23
2.74458e-23
1.37878e-23
-9.4685e-24
2.53677e-23
2.08495e-23
8.39453e-24
1.05607e-22
4.71965e-24
-3.58766e-23
3.55856e-24
4.54933e-23
1.34743e-24
-9.69736e-23
-3.7134e-24
-5.51383e-23
-1.07041e-24
-4.73598e-23
-4.84278e-24
-9.77616e-23
-9.99933e-24
-8.83146e-23
-1.14014e-23
4.76668e-23
-3.4769e-24
4.35909e-23
-4.08201e-24
-5.59508e-23
-1.67357e-23
-3.04575e-23
-8.64084e-24
1.72207e-23
-1.4687e-23
-1.23036e-22
-1.20815e-23
4.2015e-23
-1.03403e-23
-5.11325e-23
-1.07909e-23
1.96723e-23
-7.6979e-24
-7.23998e-23
-1.16018e-23
-3.9601e-23
-8.20306e-24
-1.01065e-22
-2.0119e-24
-4.5315e-23
-5.97324e-24
-7.08368e-23
-8.95312e-24
-9.95745e-23
-1.30503e-23
-2.50121e-23
-2.35989e-23
-5.94063e-23
-2.50235e-23
-2.4273e-23
-2.30806e-23
3.79892e-23
-2.65957e-23
9.2132e-23
-2.11147e-23
4.76229e-23
-2.01229e-23
1.29483e-22
-2.71888e-23
8.32403e-23
-5.91582e-23
4.45856e-24
9.44367e-23
-2.94799e-25
3.40717e-24
4.22964e-23
-6.37273e-25
7.58568e-23
6.34781e-24
3.81528e-23
6.28338e-24
-3.94934e-23
1.31595e-23
1.49319e-22
2.20623e-23
1.00053e-22
2.4144e-23
9.87119e-24
8.3756e-24
4.56571e-23
1.3332e-23
9.29073e-23
2.0135e-23
8.57201e-23
8.42796e-24
3.91221e-23
1.71962e-25
1.17387e-22
1.05466e-23
4.57555e-23
1.392e-23
5.98285e-23
1.18611e-23
1.05907e-22
1.46067e-23
-1.40197e-23
2.58129e-23
5.80965e-23
8.31386e-24
5.62539e-23
3.8727e-24
-2.86674e-23
2.79606e-24
1.20667e-23
1.6467e-24
-1.02855e-22
-3.65369e-24
-3.19127e-23
-1.15745e-24
-3.70027e-23
-4.584e-24
-8.5091e-23
-8.6432e-24
-8.42327e-23
-1.17038e-23
4.76456e-24
-4.42943e-24
4.95891e-23
-3.35043e-24
6.4842e-24
-1.67916e-23
-3.6958e-23
-9.13287e-24
-4.24381e-24
-1.39933e-23
-1.37697e-22
-1.26965e-23
4.22026e-23
-8.94157e-24
-1.03786e-22
-1.18399e-23
-5.47954e-23
-7.03847e-24
-6.65897e-23
-1.22255e-23
-1.1001e-22
-7.33079e-24
-8.34384e-23
-2.23508e-24
-7.4537e-24
-6.38974e-24
-1.13396e-22
-8.35297e-24
-2.73074e-23
-1.15799e-23
-8.63064e-23
-2.35961e-23
-2.2981e-23
-2.3089e-23
-1.72526e-23
-2.30503e-23
-7.22234e-24
-2.59426e-23
9.10497e-23
-2.12069e-23
7.75778e-23
-1.98584e-23
1.25304e-22
-2.75642e-23
3.79806e-25
-6.31475e-23
3.56979e-24
1.027e-22
-1.73425e-24
3.11624e-24
1.39462e-22
-1.25127e-24
7.53351e-23
6.08442e-24
4.41473e-23
7.63428e-24
-3.51638e-23
1.32933e-23
2.21369e-22
2.22963e-23
8.91731e-23
2.42277e-23
1.82289e-23
9.0321e-24
3.28433e-23
1.35452e-23
5.79045e-23
1.99079e-23
7.70624e-23
9.37163e-24
2.42144e-23
-8.16696e-25
1.17949e-22
9.63903e-24
1.10043e-22
1.42592e-23
5.6333e-23
1.0582e-23
7.44792e-23
1.54889e-23
-6.42868e-23
2.4941e-23
7.56991e-23
8.98532e-24
3.66757e-23
2.88854e-24
-5.43931e-23
2.71691e-24
1.07227e-23
2.50337e-24
-6.79244e-23
-3.98207e-24
-3.86549e-23
-1.44406e-24
-2.82698e-23
-4.35459e-24
-5.91999e-23
-7.72882e-24
-4.00041e-23
-1.15037e-23
5.57663e-24
-4.83292e-24
5.13987e-23
-3.89823e-24
-5.4866e-24
-1.72712e-23
-7.1782e-23
-9.45652e-24
6.12472e-23
-1.28257e-23
-1.37576e-22
-1.33128e-23
3.66796e-23
-8.16115e-24
-4.11934e-23
-1.14108e-23
-8.46864e-23
-7.52904e-24
-6.06207e-23
-1.15037e-23
-1.45315e-22
-6.0047e-24
-1.1775e-22
-3.92106e-24
-3.84743e-23
-4.05862e-24
-4.67855e-23
-1.00556e-23
-7.30652e-23
-1.03925e-23
-1.54542e-23
-2.34178e-23
-8.33923e-23
-2.22961e-23
-1.04946e-23
-2.32266e-23
-6.10674e-23
-2.5912e-23
8.70152e-23
-2.06406e-23
5.90848e-23
-2.0339e-23
9.83734e-23
-2.83291e-23
-1.16506e-22
-7.14611e-23
3.85778e-24
1.98717e-23
-2.54532e-24
1.85125e-24
1.44786e-22
-8.35983e-25
7.28127e-23
5.51296e-24
1.21787e-22
7.75106e-24
-2.31185e-23
1.30021e-23
2.16278e-22
2.21458e-23
7.09832e-23
2.38716e-23
5.59904e-23
8.14371e-24
4.34341e-23
1.37834e-23
5.56457e-23
2.01471e-23
1.0255e-22
8.92821e-24
-2.53993e-24
-2.25425e-25
7.93489e-23
8.5114e-24
8.04721e-23
1.41984e-23
5.81875e-23
8.97703e-24
8.24929e-23
1.66928e-23
-6.07096e-23
2.42544e-23
1.11892e-22
8.90049e-24
1.9018e-23
2.25558e-24
-6.73752e-23
2.52925e-24
9.57221e-24
3.02819e-24
-7.79441e-23
-3.92889e-24
-3.56676e-23
-1.52552e-24
4.21228e-24
-3.99528e-24
-3.7159e-23
-7.33149e-24
-3.08167e-23
-1.16439e-23
3.12428e-24
-4.72107e-24
7.83743e-23
-4.67706e-24
-1.95807e-23
-1.65777e-23
-6.97994e-23
-1.09695e-23
4.76252e-23
-1.13274e-23
-1.42117e-22
-1.28204e-23
3.8315e-23
-8.35836e-24
-4.10851e-23
-1.15532e-23
-1.60568e-22
-7.96318e-24
-5.43331e-23
-1.0602e-23
-1.84208e-22
-5.89404e-24
-5.66193e-23
-2.05133e-24
-4.05601e-23
-3.98078e-24
-8.72476e-23
-9.68559e-24
-7.73333e-23
-1.0177e-23
-2.48146e-24
-2.27715e-23
-1.37403e-22
-2.15267e-23
-8.03431e-23
-2.22134e-23
-9.45256e-23
-2.37352e-23
1.24222e-22
-2.16343e-23
-6.94017e-24
-2.21873e-23
9.37513e-23
-2.75774e-23
-7.43035e-23
-3.63243e-23
4.27474e-24
1.66438e-23
-1.91002e-24
1.03111e-24
1.51603e-22
-2.08514e-24
6.86348e-23
4.75432e-24
1.1304e-22
9.29135e-24
-2.66485e-23
1.22459e-23
2.26929e-22
2.15758e-23
1.07927e-22
2.39677e-23
4.88175e-23
7.86101e-24
9.32154e-24
1.49802e-23
4.92738e-23
1.9727e-23
9.82423e-23
8.7535e-24
-9.33517e-25
9.15058e-26
9.68173e-23
7.58047e-24
3.44169e-23
1.41721e-23
5.52502e-23
7.90442e-24
8.44082e-23
1.82879e-23
-5.08246e-23
2.3327e-23
1.14836e-22
8.70447e-24
4.06696e-23
1.99609e-24
-8.56131e-23
2.41657e-24
1.39162e-24
3.88238e-24
-1.91011e-23
-3.70478e-24
-6.07231e-23
-1.72152e-24
-6.80931e-23
-3.70023e-24
-3.68863e-23
-7.15374e-24
7.52771e-24
-1.11603e-23
1.31948e-23
-5.76766e-24
7.40576e-23
-4.89435e-24
-1.88878e-23
-1.6193e-23
-1.04637e-22
-1.20044e-23
3.9197e-23
-1.07765e-23
-1.11387e-22
-1.20635e-23
7.37045e-23
-1.0494e-23
-5.95446e-23
-1.01966e-23
-1.21868e-22
-8.94516e-24
-4.55017e-23
-8.54125e-24
-8.44777e-23
-6.64147e-24
-1.15114e-24
-1.23494e-24
-6.64903e-23
-3.28544e-24
-1.1322e-22
-9.64335e-24
-7.22518e-23
-1.0704e-23
-4.10363e-23
-2.16407e-23
-1.34937e-22
-2.19074e-23
-3.125e-23
-2.04106e-23
-1.24598e-22
-2.36377e-23
1.17495e-22
-2.15516e-23
-1.22039e-23
-2.29624e-23
9.34751e-23
-2.63669e-23
-7.06645e-23
-3.92147e-23
5.87881e-24
-3.704e-24
-1.03361e-24
1.55319e-25
1.16357e-22
-2.61463e-24
2.45135e-23
4.14707e-24
1.06288e-22
9.97358e-24
-3.20507e-23
1.1386e-23
1.75244e-22
2.11272e-23
1.83785e-22
2.36646e-23
5.44973e-23
8.47182e-24
2.21165e-23
1.52928e-23
4.25196e-23
2.00704e-23
9.58827e-23
8.78383e-24
-3.61423e-23
-5.22599e-25
1.32975e-22
7.91691e-24
2.28839e-23
1.38533e-23
4.88344e-23
6.96498e-24
8.84522e-23
1.91403e-23
3.53497e-24
2.2469e-23
3.58621e-23
7.70832e-24
6.25052e-23
1.87223e-24
-1.09267e-22
3.02169e-24
2.90732e-23
3.54683e-24