/*--------------------------------*- C++ -*----------------------------------*\
  =========                 |
  \\      /  F ield         | OpenFOAM: The Open Source CFD Toolbox
   \\    /   O peration     | Website:  https://openfoam.org
    \\  /    A nd           | Version:  7
     \\/     M anipulation  |
\*---------------------------------------------------------------------------*/
FoamFile
{
    version     2.0;
    format      ascii;
    class       volScalarField;
    location    "4000";
    object      p;
}
// * * * * * * * * * * * * * * * * * * * * * * * * * * * * * * * * * * * * * //

dimensions      [0 2 -2 0 0 0 0];

internalField   nonuniform List<scalar> 
4838
(
-2.4878e-18
-2.49613e-18
-2.49891e-18
-2.5143e-18
-2.50569e-18
-2.51821e-18
-2.5018e-18
-2.49263e-18
-2.48233e-18
-2.50408e-18
-2.49457e-18
-2.49692e-18
-2.49956e-18
-2.49084e-18
-2.47471e-18
-2.48419e-18
-2.51265e-18
-2.51183e-18
-2.50292e-18
-2.51104e-18
-2.51097e-18
-2.48871e-18
-2.49576e-18
-2.49947e-18
-2.50138e-18
-2.50996e-18
-2.49709e-18
-2.49674e-18
-2.49425e-18
-2.48759e-18
-2.50494e-18
-2.49866e-18
-2.48825e-18
-2.52168e-18
-2.50031e-18
-2.49581e-18
-2.47626e-18
-2.49711e-18
-2.49232e-18
-2.49468e-18
-2.48175e-18
-2.50402e-18
-2.47288e-18
-2.48814e-18
-2.51033e-18
-2.49141e-18
-2.48159e-18
-2.48494e-18
-2.48145e-18
-2.48179e-18
-2.4945e-18
-2.5085e-18
-2.4874e-18
-2.49686e-18
-2.4953e-18
-2.50996e-18
-2.50177e-18
-2.49884e-18
-2.49349e-18
-2.49207e-18
-2.49603e-18
-2.50497e-18
-2.50381e-18
-2.49913e-18
-2.49604e-18
-2.49677e-18
-2.51084e-18
-2.48935e-18
-2.48125e-18
-2.48583e-18
-2.4979e-18
-2.49916e-18
-2.50412e-18
-2.50806e-18
-2.49028e-18
-2.5006e-18
-2.47801e-18
-2.50666e-18
-2.50073e-18
-2.49655e-18
-2.50119e-18
-2.51064e-18
-2.49555e-18
-2.48162e-18
-2.47483e-18
-2.48757e-18
-2.4865e-18
-2.48279e-18
-2.48734e-18
-2.49103e-18
-2.50609e-18
-2.50512e-18
-2.49024e-18
-2.48919e-18
-2.48823e-18
-2.48051e-18
-2.46781e-18
-2.476e-18
-2.45971e-18
-2.48137e-18
-2.47434e-18
-2.47134e-18
-2.48573e-18
-2.48825e-18
-2.47898e-18
-2.49329e-18
-2.4957e-18
-2.50412e-18
-2.51002e-18
-2.50742e-18
-2.49478e-18
-2.49373e-18
-2.51042e-18
-2.50229e-18
-2.49787e-18
-2.48778e-18
-2.49967e-18
-2.49583e-18
-2.48361e-18
-2.49701e-18
-2.50168e-18
-2.50541e-18
-2.51442e-18
-2.49715e-18
-2.48469e-18
-2.48695e-18
-2.50946e-18
-2.51753e-18
-2.50374e-18
-2.50652e-18
-2.50133e-18
-2.49823e-18
-2.49629e-18
-2.49167e-18
-2.48986e-18
-2.49277e-18
-2.48731e-18
-2.4759e-18
-2.48715e-18
-2.48558e-18
-2.48214e-18
-2.46969e-18
-2.48654e-18
-2.49428e-18
-2.48907e-18
-2.48484e-18
-2.48332e-18
-2.48452e-18
-2.49002e-18
-2.50061e-18
-2.49213e-18
-2.4873e-18
-2.47629e-18
-2.47923e-18
-2.50382e-18
-2.48543e-18
-2.49331e-18
-2.49749e-18
-2.49181e-18
-2.48201e-18
-2.4867e-18
-2.50986e-18
-2.50494e-18
-2.51165e-18
-2.50184e-18
-2.49789e-18
-2.50312e-18
-2.50093e-18
-2.48669e-18
-2.50788e-18
-2.51184e-18
-2.50786e-18
-2.50822e-18
-2.51907e-18
-2.51686e-18
-2.4991e-18
-2.48903e-18
-2.49659e-18
-2.49808e-18
-2.50031e-18
-2.50492e-18
-2.49803e-18
-2.50827e-18
-2.49761e-18
-2.4954e-18
-2.49461e-18
-2.48911e-18
-2.47135e-18
-2.47494e-18
-2.4734e-18
-2.46898e-18
-2.47269e-18
-2.48288e-18
-2.47228e-18
-2.48126e-18
-2.48721e-18
-2.48386e-18
-2.48103e-18
-2.50191e-18
-2.48604e-18
-2.49485e-18
-2.48399e-18
-2.50768e-18
-2.49669e-18
-2.49811e-18
-2.49694e-18
-2.49588e-18
-2.48966e-18
-2.46664e-18
-2.48228e-18
-2.49551e-18
-2.50187e-18
-2.49668e-18
-2.48311e-18
-2.49431e-18
-2.49293e-18
-2.51216e-18
-2.50661e-18
-2.50448e-18
-2.51105e-18
-2.53608e-18
-2.52117e-18
-2.50636e-18
-2.51637e-18
-2.5171e-18
-2.4995e-18
-2.48509e-18
-2.48582e-18
-2.49627e-18
-2.49414e-18
-2.48276e-18
-2.48392e-18
-2.50098e-18
-2.49599e-18
-2.50216e-18
-2.49594e-18
-2.47933e-18
-2.47474e-18
-2.48666e-18
-2.48779e-18
-2.49335e-18
-2.50631e-18
-2.49057e-18
-2.48125e-18
-2.47655e-18
-2.48147e-18
-2.46393e-18
-2.44393e-18
-2.46598e-18
-2.4797e-18
-2.49321e-18
-2.49315e-18
-2.49796e-18
-2.49515e-18
-2.50771e-18
-2.50079e-18
-2.49288e-18
-2.4954e-18
-2.48948e-18
-2.47231e-18
-2.49353e-18
-2.5011e-18
-2.49111e-18
-2.46225e-18
-2.48552e-18
-2.49625e-18
-2.50156e-18
-2.5052e-18
-2.51444e-18
-2.50669e-18
-2.51208e-18
-2.50689e-18
-2.48793e-18
-2.48747e-18
-2.49889e-18
-2.49587e-18
-2.48639e-18
-2.49485e-18
-2.50664e-18
-2.49167e-18
-2.49123e-18
-2.49131e-18
-2.48189e-18
-2.47983e-18
-2.49439e-18
-2.49776e-18
-2.50527e-18
-2.49811e-18
-2.49361e-18
-2.48482e-18
-2.50677e-18
-2.4976e-18
-2.4888e-18
-2.49179e-18
-2.504e-18
-2.48828e-18
-2.48342e-18
-2.49363e-18
-2.48197e-18
-2.47933e-18
-2.47664e-18
-2.49144e-18
-2.49102e-18
-2.48169e-18
-2.49493e-18
-2.50101e-18
-2.47937e-18
-2.49113e-18
-2.5076e-18
-2.49438e-18
-2.49892e-18
-2.49935e-18
-2.4795e-18
-2.46253e-18
-2.49398e-18
-2.50365e-18
-2.4985e-18
-2.49987e-18
-2.50108e-18
-2.50166e-18
-2.51434e-18
-2.51205e-18
-2.49152e-18
-2.48823e-18
-2.4981e-18
-2.49681e-18
-2.49622e-18
-2.49586e-18
-2.48861e-18
-2.49313e-18
-2.49635e-18
-2.49765e-18
-2.4932e-18
-2.49191e-18
-2.49396e-18
-2.49942e-18
-2.5105e-18
-2.51496e-18
-2.50292e-18
-2.49226e-18
-2.48331e-18
-2.4864e-18
-2.48639e-18
-2.48799e-18
-2.48917e-18
-2.48624e-18
-2.48876e-18
-2.48962e-18
-2.47871e-18
-2.46523e-18
-2.49169e-18
-2.493e-18
-2.49549e-18
-2.5011e-18
-2.48816e-18
-2.48045e-18
-2.48753e-18
-2.476e-18
-2.47894e-18
-2.48854e-18
-2.5002e-18
-2.50846e-18
-2.47928e-18
-2.49001e-18
-2.51477e-18
-2.52692e-18
-2.4925e-18
-2.49624e-18
-2.48977e-18
-2.48699e-18
-2.48918e-18
-2.4923e-18
-2.50003e-18
-2.51162e-18
-2.50028e-18
-2.48798e-18
-2.49642e-18
-2.49735e-18
-2.49264e-18
-2.49719e-18
-2.50388e-18
-2.50674e-18
-2.49422e-18
-2.49183e-18
-2.48622e-18
-2.50339e-18
-2.48751e-18
-2.5046e-18
-2.48851e-18
-2.49511e-18
-2.48585e-18
-2.47304e-18
-2.47325e-18
-2.4743e-18
-2.47147e-18
-2.48305e-18
-2.50159e-18
-2.49926e-18
-2.4924e-18
-2.46915e-18
-2.51438e-18
-2.51253e-18
-2.50596e-18
-2.49262e-18
-2.47591e-18
-2.5031e-18
-2.51011e-18
-2.50321e-18
-2.49698e-18
-2.50038e-18
-2.48453e-18
-2.49569e-18
-2.50626e-18
-2.49697e-18
-2.49056e-18
-2.50508e-18
-2.50024e-18
-2.49997e-18
-2.49942e-18
-2.48968e-18
-2.4874e-18
-2.49674e-18
-2.49216e-18
-2.50181e-18
-2.49773e-18
-2.48229e-18
-2.49551e-18
-2.49563e-18
-2.4879e-18
-2.50317e-18
-2.52256e-18
-2.49013e-18
-2.47991e-18
-2.48979e-18
-2.49223e-18
-2.49511e-18
-2.4892e-18
-2.49401e-18
-2.49027e-18
-2.49782e-18
-2.47333e-18
-2.47628e-18
-2.49682e-18
-2.48933e-18
-2.4747e-18
-2.47306e-18
-2.48653e-18
-2.49965e-18
-2.48222e-18
-2.48079e-18
-2.50507e-18
-2.52577e-18
-2.48786e-18
-2.49242e-18
-2.49145e-18
-2.4992e-18
-2.48089e-18
-2.50262e-18
-2.50488e-18
-2.48165e-18
-2.46072e-18
-2.47994e-18
-2.49695e-18
-2.49666e-18
-2.49395e-18
-2.50382e-18
-2.50964e-18
-2.50391e-18
-2.505e-18
-2.51052e-18
-2.50045e-18
-2.50307e-18
-2.49407e-18
-2.50196e-18
-2.49734e-18
-2.47285e-18
-2.49303e-18
-2.49864e-18
-2.5035e-18
-2.49374e-18
-2.49812e-18
-2.4848e-18
-2.49145e-18
-2.49524e-18
-2.49363e-18
-2.49339e-18
-2.47806e-18
-2.48936e-18
-2.48642e-18
-2.49302e-18
-2.48397e-18
-2.48842e-18
-2.49279e-18
-2.49277e-18
-2.50009e-18
-2.4997e-18
-2.48885e-18
-2.48336e-18
-2.46591e-18
-2.48504e-18
-2.49636e-18
-2.49765e-18
-2.49318e-18
-2.49696e-18
-2.4941e-18
-2.48565e-18
-2.46129e-18
-2.49036e-18
-2.49554e-18
-2.49092e-18
-2.47716e-18
-2.49125e-18
-2.49884e-18
-2.49819e-18
-2.48639e-18
-2.5133e-18
-2.53881e-18
-2.507e-18
-2.50121e-18
-2.5014e-18
-2.49459e-18
-2.51333e-18
-2.50795e-18
-2.51258e-18
-2.51091e-18
-2.49399e-18
-2.49756e-18
-2.50261e-18
-2.5096e-18
-2.50258e-18
-2.49853e-18
-2.51849e-18
-2.50947e-18
-2.5058e-18
-2.49596e-18
-2.50333e-18
-2.48558e-18
-2.49571e-18
-2.50724e-18
-2.49464e-18
-2.48336e-18
-2.49518e-18
-2.49021e-18
-2.4717e-18
-2.47855e-18
-2.48192e-18
-2.48875e-18
-2.48468e-18
-2.47663e-18
-2.47169e-18
-2.5058e-18
-2.48455e-18
-2.48798e-18
-2.49158e-18
-2.50773e-18
-2.52594e-18
-2.5032e-18
-2.48955e-18
-2.49299e-18
-2.496e-18
-2.49271e-18
-2.50094e-18
-2.51296e-18
-2.50953e-18
-2.49495e-18
-2.4964e-18
-2.53225e-18
-2.49475e-18
-2.4931e-18
-2.49785e-18
-2.49124e-18
-2.50368e-18
-2.51607e-18
-2.50569e-18
-2.49867e-18
-2.49372e-18
-2.50072e-18
-2.50722e-18
-2.49851e-18
-2.48394e-18
-2.49174e-18
-2.5035e-18
-2.49455e-18
-2.5028e-18
-2.49481e-18
-2.4933e-18
-2.50931e-18
-2.50788e-18
-2.50945e-18
-2.49358e-18
-2.49239e-18
-2.51297e-18
-2.49251e-18
-2.47808e-18
-2.48537e-18
-2.48136e-18
-2.48535e-18
-2.48527e-18
-2.47672e-18
-2.47829e-18
-2.48133e-18
-2.49627e-18
-2.49297e-18
-2.46733e-18
-2.49121e-18
-2.49648e-18
-2.49338e-18
-2.47428e-18
-2.48618e-18
-2.49199e-18
-2.49573e-18
-2.50787e-18
-2.51617e-18
-2.50194e-18
-2.49577e-18
-2.49968e-18
-2.50991e-18
-2.49423e-18
-2.50889e-18
-2.49788e-18
-2.4963e-18
-2.49435e-18
-2.51389e-18
-2.50407e-18
-2.48537e-18
-2.48269e-18
-2.50662e-18
-2.50326e-18
-2.49883e-18
-2.49259e-18
-2.48081e-18
-2.46716e-18
-2.47708e-18
-2.49155e-18
-2.4981e-18
-2.47928e-18
-2.49472e-18
-2.49795e-18
-2.49035e-18
-2.48843e-18
-2.47747e-18
-2.48044e-18
-2.50619e-18
-2.50035e-18
-2.48611e-18
-2.46947e-18
-2.47503e-18
-2.48139e-18
-2.47012e-18
-2.48494e-18
-2.49301e-18
-2.49202e-18
-2.50403e-18
-2.49929e-18
-2.49664e-18
-2.4795e-18
-2.48597e-18
-2.46991e-18
-2.47538e-18
-2.48062e-18
-2.48973e-18
-2.49797e-18
-2.5087e-18
-2.49451e-18
-2.48645e-18
-2.49957e-18
-2.50996e-18
-2.49751e-18
-2.50419e-18
-2.5009e-18
-2.50141e-18
-2.508e-18
-2.50842e-18
-2.5128e-18
-2.50508e-18
-2.48627e-18
-2.50775e-18
-2.50928e-18
-2.5054e-18
-2.50669e-18
-2.49054e-18
-2.48263e-18
-2.47834e-18
-2.48893e-18
-2.49246e-18
-2.48557e-18
-2.50556e-18
-2.50513e-18
-2.47734e-18
-2.48417e-18
-2.48554e-18
-2.47672e-18
-2.50936e-18
-2.48492e-18
-2.46673e-18
-2.48014e-18
-2.48364e-18
-2.48739e-18
-2.48522e-18
-2.49306e-18
-2.50403e-18
-2.49229e-18
-2.48652e-18
-2.4952e-18
-2.49103e-18
-2.48113e-18
-2.47454e-18
-2.48639e-18
-2.49272e-18
-2.48788e-18
-2.48321e-18
-2.49128e-18
-2.47772e-18
-2.48341e-18
-2.49491e-18
-2.50178e-18
-2.49517e-18
-2.4886e-18
-2.50331e-18
-2.49901e-18
-2.50032e-18
-2.50122e-18
-2.50301e-18
-2.50222e-18
-2.50695e-18
-2.49769e-18
-2.50359e-18
-2.50739e-18
-2.48909e-18
-2.50529e-18
-2.49297e-18
-2.48678e-18
-2.49613e-18
-2.48752e-18
-2.4957e-18
-2.47682e-18
-2.51541e-18
-2.50389e-18
-2.48673e-18
-2.48012e-18
-2.49011e-18
-2.4747e-18
-2.49351e-18
-2.49612e-18
-2.48084e-18
-2.48111e-18
-2.48789e-18
-2.50283e-18
-2.49205e-18
-2.4761e-18
-2.49223e-18
-2.49075e-18
-2.51426e-18
-2.49712e-18
-2.47699e-18
-2.45584e-18
-2.45644e-18
-2.48352e-18
-2.47715e-18
-2.48995e-18
-2.49601e-18
-2.48755e-18
-2.46156e-18
-2.48076e-18
-2.50199e-18
-2.51242e-18
-2.5073e-18
-2.49535e-18
-2.51133e-18
-2.49427e-18
-2.49968e-18
-2.49415e-18
-2.50565e-18
-2.48884e-18
-2.48928e-18
-2.50224e-18
-2.5132e-18
-2.4969e-18
-2.49603e-18
-2.50354e-18
-2.48972e-18
-2.4801e-18
-2.4867e-18
-2.47601e-18
-2.48625e-18
-2.47701e-18
-2.49353e-18
-2.4873e-18
-2.48554e-18
-2.49922e-18
-2.50261e-18
-2.47264e-18
-2.48046e-18
-2.48386e-18
-2.48531e-18
-2.4741e-18
-2.48441e-18
-2.49588e-18
-2.46022e-18
-2.47983e-18
-2.48743e-18
-2.48527e-18
-2.48062e-18
-2.50386e-18
-2.47684e-18
-2.47975e-18
-2.48561e-18
-2.4692e-18
-2.47517e-18
-2.48751e-18
-2.48179e-18
-2.48257e-18
-2.47465e-18
-2.49082e-18
-2.51273e-18
-2.50436e-18
-2.4994e-18
-2.50156e-18
-2.50824e-18
-2.50035e-18
-2.50476e-18
-2.51063e-18
-2.5256e-18
-2.49749e-18
-2.49393e-18
-2.50782e-18
-2.52056e-18
-2.48456e-18
-2.50094e-18
-2.51486e-18
-2.48422e-18
-2.49166e-18
-2.48395e-18
-2.47482e-18
-2.48889e-18
-2.49393e-18
-2.48363e-18
-2.47213e-18
-2.47485e-18
-2.48949e-18
-2.49212e-18
-2.47729e-18
-2.4652e-18
-2.47132e-18
-2.48369e-18
-2.49135e-18
-2.471e-18
-2.4721e-18
-2.47718e-18
-2.48576e-18
-2.49553e-18
-2.48647e-18
-2.47379e-18
-2.49664e-18
-2.48832e-18
-2.49077e-18
-2.50995e-18
-2.46108e-18
-2.49177e-18
-2.49275e-18
-2.49796e-18
-2.49763e-18
-2.47979e-18
-2.49022e-18
-2.51064e-18
-2.50019e-18
-2.48737e-18
-2.50454e-18
-2.51459e-18
-2.50002e-18
-2.50881e-18
-2.50838e-18
-2.50732e-18
-2.49368e-18
-2.48976e-18
-2.49008e-18
-2.50075e-18
-2.49193e-18
-2.49093e-18
-2.48656e-18
-2.48633e-18
-2.4863e-18
-2.47812e-18
-2.4852e-18
-2.49595e-18
-2.48377e-18
-2.47141e-18
-2.47372e-18
-2.47501e-18
-2.48134e-18
-2.48555e-18
-2.47514e-18
-2.50569e-18
-2.47553e-18
-2.48059e-18
-2.47238e-18
-2.48597e-18
-2.46898e-18
-2.472e-18
-2.48462e-18
-2.50412e-18
-2.48901e-18
-2.48026e-18
-2.46735e-18
-2.48399e-18
-2.48749e-18
-2.492e-18
-2.47679e-18
-2.47353e-18
-2.49445e-18
-2.50365e-18
-2.49515e-18
-2.47863e-18
-2.48938e-18
-2.50727e-18
-2.49738e-18
-2.49246e-18
-2.51222e-18
-2.51538e-18
-2.48923e-18
-2.49373e-18
-2.50858e-18
-2.50104e-18
-2.50821e-18
-2.50679e-18
-2.50239e-18
-2.49647e-18
-2.49986e-18
-2.52649e-18
-2.49523e-18
-2.48848e-18
-2.48031e-18
-2.46258e-18
-2.49444e-18
-2.48827e-18
-2.47374e-18
-2.47817e-18
-2.48297e-18
-2.49149e-18
-2.47316e-18
-2.48847e-18
-2.50091e-18
-2.4982e-18
-2.48427e-18
-2.48189e-18
-2.48782e-18
-2.51531e-18
-2.48155e-18
-2.47806e-18
-2.48859e-18
-2.48638e-18
-2.48182e-18
-2.48455e-18
-2.48273e-18
-2.46898e-18
-2.4725e-18
-2.4519e-18
-2.49875e-18
-2.49519e-18
-2.50129e-18
-2.49187e-18
-2.51743e-18
-2.50019e-18
-2.49218e-18
-2.48651e-18
-2.50226e-18
-2.51396e-18
-2.49381e-18
-2.49524e-18
-2.49426e-18
-2.49194e-18
-2.50732e-18
-2.50421e-18
-2.52629e-18
-2.4993e-18
-2.50137e-18
-2.50987e-18
-2.50021e-18
-2.49064e-18
-2.47286e-18
-2.47776e-18
-2.4949e-18
-2.48383e-18
-2.47755e-18
-2.47171e-18
-2.48074e-18
-2.47561e-18
-2.48517e-18
-2.49727e-18
-2.52019e-18
-2.51593e-18
-2.48977e-18
-2.48879e-18
-2.49609e-18
-2.49556e-18
-2.48456e-18
-2.49441e-18
-2.48562e-18
-2.48911e-18
-2.48678e-18
-2.48588e-18
-2.45517e-18
-2.45479e-18
-2.45413e-18
-2.48744e-18
-2.49244e-18
-2.49319e-18
-2.48963e-18
-2.50832e-18
-2.49649e-18
-2.48398e-18
-2.49054e-18
-2.49613e-18
-2.51051e-18
-2.48924e-18
-2.49627e-18
-2.48091e-18
-2.49727e-18
-2.52134e-18
-2.50771e-18
-2.5244e-18
-2.49729e-18
-2.50184e-18
-2.50834e-18
-2.49452e-18
-2.49782e-18
-2.47314e-18
-2.48191e-18
-2.48005e-18
-2.4802e-18
-2.48097e-18
-2.46669e-18
-2.48228e-18
-2.47656e-18
-2.49676e-18
-2.49031e-18
-2.49863e-18
-2.49902e-18
-2.49604e-18
-2.49541e-18
-2.48883e-18
-2.4806e-18
-2.48446e-18
-2.49759e-18
-2.50779e-18
-2.49089e-18
-2.48349e-18
-2.47971e-18
-2.47539e-18
-2.48619e-18
-2.49692e-18
-2.48945e-18
-2.48034e-18
-2.51614e-18
-2.49722e-18
-2.4792e-18
-2.4949e-18
-2.4871e-18
-2.50966e-18
-2.49691e-18
-2.50201e-18
-2.52153e-18
-2.49976e-18
-2.51059e-18
-2.51897e-18
-2.50219e-18
-2.48676e-18
-2.50479e-18
-2.46638e-18
-2.49022e-18
-2.49629e-18
-2.48033e-18
-2.48408e-18
-2.47875e-18
-2.47186e-18
-2.4872e-18
-2.48168e-18
-2.48724e-18
-2.46369e-18
-2.48598e-18
-2.48471e-18
-2.47361e-18
-2.48449e-18
-2.48644e-18
-2.49949e-18
-2.48594e-18
-2.47478e-18
-2.48546e-18
-2.50111e-18
-2.47878e-18
-2.49942e-18
-2.49805e-18
-2.47829e-18
-2.48677e-18
-2.48031e-18
-2.48778e-18
-2.48624e-18
-2.49635e-18
-2.49726e-18
-2.48157e-18
-2.50446e-18
-2.48194e-18
-2.50003e-18
-2.49767e-18
-2.50207e-18
-2.51557e-18
-2.49077e-18
-2.51134e-18
-2.50272e-18
-2.49895e-18
-2.46417e-18
-2.46719e-18
-2.46394e-18
-2.49642e-18
-2.4889e-18
-2.48056e-18
-2.48744e-18
-2.47433e-18
-2.47912e-18
-2.4838e-18
-2.49007e-18
-2.46977e-18
-2.45328e-18
-2.48836e-18
-2.48562e-18
-2.47806e-18
-2.48135e-18
-2.48328e-18
-2.48672e-18
-2.49256e-18
-2.47921e-18
-2.48444e-18
-2.49049e-18
-2.47763e-18
-2.48893e-18
-2.50314e-18
-2.49248e-18
-2.4831e-18
-2.48809e-18
-2.48924e-18
-2.48533e-18
-2.50663e-18
-2.49526e-18
-2.50228e-18
-2.47387e-18
-2.49562e-18
-2.49244e-18
-2.50475e-18
-2.47035e-18
-2.46621e-18
-2.47437e-18
-2.50033e-18
-2.51662e-18
-2.4833e-18
-2.48555e-18
-2.50411e-18
-2.49157e-18
-2.48177e-18
-2.47422e-18
-2.48516e-18
-2.45913e-18
-2.48832e-18
-2.4794e-18
-2.48061e-18
-2.473e-18
-2.47125e-18
-2.48733e-18
-2.45729e-18
-2.4782e-18
-2.48213e-18
-2.48617e-18
-2.48093e-18
-2.51437e-18
-2.47771e-18
-2.48792e-18
-2.4873e-18
-2.46832e-18
-2.48516e-18
-2.48125e-18
-2.48761e-18
-2.49192e-18
-2.49924e-18
-2.50507e-18
-2.50347e-18
-2.48827e-18
-2.48006e-18
-2.49447e-18
-2.48359e-18
-2.52297e-18
-2.45997e-18
-2.47624e-18
-2.48717e-18
-2.52106e-18
-2.51175e-18
-2.49072e-18
-2.49843e-18
-2.49642e-18
-2.48693e-18
-2.47203e-18
-2.45242e-18
-2.49558e-18
-2.48432e-18
-2.48869e-18
-2.47991e-18
-2.48136e-18
-2.47393e-18
-2.48065e-18
-2.47068e-18
-2.46974e-18
-2.48433e-18
-2.47966e-18
-2.49672e-18
-2.47371e-18
-2.49283e-18
-2.48539e-18
-2.49475e-18
-2.49645e-18
-2.47287e-18
-2.502e-18
-2.48808e-18
-2.49823e-18
-2.50036e-18
-2.49773e-18
-2.49729e-18
-2.48934e-18
-2.46244e-18
-2.49366e-18
-2.52529e-18
-2.52485e-18
-2.46357e-18
-2.46791e-18
-2.49269e-18
-2.53342e-18
-2.53018e-18
-2.49099e-18
-2.51396e-18
-2.49248e-18
-2.48403e-18
-2.47347e-18
-2.44982e-18
-2.4684e-18
-2.48106e-18
-2.47404e-18
-2.4779e-18
-2.48464e-18
-2.4662e-18
-2.49414e-18
-2.46326e-18
-2.46864e-18
-2.49485e-18
-2.46802e-18
-2.47811e-18
-2.47896e-18
-2.49318e-18
-2.49172e-18
-2.49394e-18
-2.52344e-18
-2.49183e-18
-2.49034e-18
-2.4929e-18
-2.49103e-18
-2.46122e-18
-2.49056e-18
-2.49807e-18
-2.49565e-18
-2.48342e-18
-2.48454e-18
-2.49353e-18
-2.53579e-18
-2.504e-18
-2.4798e-18
-2.49374e-18
-2.48808e-18
-2.48197e-18
-2.47895e-18
-2.46898e-18
-2.48698e-18
-2.48136e-18
-2.45818e-18
-2.47742e-18
-2.47518e-18
-2.47665e-18
-2.50329e-18
-2.46203e-18
-2.47286e-18
-2.49669e-18
-2.46542e-18
-2.46711e-18
-2.48437e-18
-2.50531e-18
-2.50194e-18
-2.49758e-18
-2.49204e-18
-2.48406e-18
-2.49126e-18
-2.47621e-18
-2.46883e-18
-2.47968e-18
-2.48942e-18
-2.49022e-18
-2.5077e-18
-2.49986e-18
-2.48207e-18
-2.47914e-18
-2.48404e-18
-2.47439e-18
-2.4705e-18
-2.45759e-18
-2.4489e-18
-2.48017e-18
-2.46686e-18
-2.47916e-18
-2.46526e-18
-2.4819e-18
-2.475e-18
-2.46101e-18
-2.46656e-18
-2.48241e-18
-2.46668e-18
-2.47698e-18
-2.48831e-18
-2.51815e-18
-2.50003e-18
-2.49113e-18
-2.47943e-18
-2.47701e-18
-2.48496e-18
-2.4683e-18
-2.49494e-18
-2.48745e-18
-2.51454e-18
-2.52172e-18
-2.47875e-18
-2.45488e-18
-2.48232e-18
-2.45742e-18
-2.45386e-18
-2.4765e-18
-2.4485e-18
-2.48669e-18
-2.47837e-18
-2.47729e-18
-2.46908e-18
-2.49074e-18
-2.47627e-18
-2.46419e-18
-2.47027e-18
-2.47496e-18
-2.47331e-18
-2.48648e-18
-2.49337e-18
-2.49617e-18
-2.48886e-18
-2.48919e-18
-2.48332e-18
-2.48354e-18
-2.49539e-18
-2.52175e-18
-2.4645e-18
-2.44775e-18
-2.48433e-18
-2.47409e-18
-2.47335e-18
-2.49868e-18
-2.491e-18
-2.50006e-18
-2.44319e-18
-2.45984e-18
-2.44679e-18
-2.46849e-18
-2.4722e-18
-2.45101e-18
-2.49247e-18
-2.47788e-18
-2.45873e-18
-2.4886e-18
-2.47395e-18
-2.49053e-18
-2.48246e-18
-2.4879e-18
-2.48124e-18
-2.48775e-18
-2.47939e-18
-2.47297e-18
-2.50384e-18
-2.47847e-18
-2.51735e-18
-2.40983e-18
-2.48473e-18
-2.45685e-18
-2.46307e-18
-2.45843e-18
-2.45712e-18
-2.49017e-18
-2.47634e-18
-2.47615e-18
-2.48657e-18
-2.47903e-18
-2.47876e-18
-2.47921e-18
-2.48928e-18
-2.47518e-18
-2.49386e-18
-2.47379e-18
-2.49366e-18
-2.37797e-18
-2.49891e-18
-2.45399e-18
-2.46934e-18
-2.4776e-18
-2.47287e-18
-2.48117e-18
-2.47327e-18
-2.48807e-18
-2.48764e-18
-2.48225e-18
-2.48171e-18
-2.48289e-18
-2.48716e-18
-2.48352e-18
-2.49106e-18
-2.37065e-18
-2.50506e-18
-2.47203e-18
-2.46015e-18
-2.4765e-18
-2.47581e-18
-2.4798e-18
-2.47709e-18
-2.47369e-18
-2.47351e-18
-2.47514e-18
-2.4765e-18
-2.48549e-18
-2.47523e-18
-2.48987e-18
-2.48511e-18
-2.36707e-18
-2.55582e-18
-2.46812e-18
-2.4742e-18
-2.47399e-18
-2.47175e-18
-2.47846e-18
-2.48081e-18
-2.47735e-18
-2.47872e-18
-2.48208e-18
-2.45536e-18
-2.48328e-18
-2.45802e-18
-2.50066e-18
-2.48518e-18
-1.89068e-18
-2.56093e-18
-2.45225e-18
-2.47778e-18
-2.48498e-18
-2.46598e-18
-2.48003e-18
-2.48723e-18
-2.47827e-18
-2.47278e-18
-2.48644e-18
-2.47935e-18
-2.49199e-18
-2.47857e-18
-2.49804e-18
-2.48575e-18
-2.4718e-18
-2.47176e-18
-2.46385e-18
-2.48337e-18
-2.49768e-18
-2.47288e-18
-2.4536e-18
-2.501e-18
-2.49725e-18
-2.47771e-18
-2.49406e-18
-2.47378e-18
-2.48602e-18
-2.47818e-18
-2.44722e-18
-2.49377e-18
-2.48609e-18
-2.48494e-18
-2.50351e-18
-2.47848e-18
-2.4878e-18
-2.48518e-18
-2.48003e-18
-2.48211e-18
-2.49501e-18
-2.48458e-18
-2.49127e-18
-2.49518e-18
-2.49776e-18
-2.50848e-18
-2.49629e-18
-2.49632e-18
-2.49306e-18
-2.48508e-18
-2.50568e-18
-2.50038e-18
-2.49261e-18
-2.52823e-18
-2.50649e-18
-2.50284e-18
-2.48415e-18
-2.50728e-18
-2.49997e-18
-2.50563e-18
-2.49149e-18
-2.51126e-18
-2.48142e-18
-2.49189e-18
-2.51093e-18
-2.49835e-18
-2.49444e-18
-2.49332e-18
-2.4911e-18
-2.4922e-18
-2.49484e-18
-2.49975e-18
-2.48494e-18
-2.4984e-18
-2.47513e-18
-2.50093e-18
-2.49688e-18
-2.494e-18
-2.50049e-18
-2.51068e-18
-2.49696e-18
-2.48427e-18
-2.47882e-18
-2.4916e-18
-2.49104e-18
-2.48869e-18
-2.49412e-18
-2.49997e-18
-2.51751e-18
-2.51695e-18
-2.4979e-18
-2.49502e-18
-2.49479e-18
-2.48833e-18
-2.47502e-18
-2.48548e-18
-2.4727e-18
-2.49502e-18
-2.50418e-18
-2.48599e-18
-2.47748e-18
-2.48188e-18
-2.50394e-18
-2.51197e-18
-2.49864e-18
-2.50316e-18
-2.50101e-18
-2.49966e-18
-2.49915e-18
-2.49535e-18
-2.4945e-18
-2.4972e-18
-2.49062e-18
-2.47882e-18
-2.49206e-18
-2.49232e-18
-2.49009e-18
-2.47882e-18
-2.49533e-18
-2.50289e-18
-2.49664e-18
-2.49245e-18
-2.49187e-18
-2.49557e-18
-2.50251e-18
-2.51611e-18
-2.49808e-18
-2.50986e-18
-2.50672e-18
-2.49127e-18
-2.48044e-18
-2.49059e-18
-2.49392e-18
-2.49845e-18
-2.50706e-18
-2.50119e-18
-2.51328e-18
-2.50174e-18
-2.49804e-18
-2.4963e-18
-2.48953e-18
-2.47147e-18
-2.47373e-18
-2.47493e-18
-2.47422e-18
-2.47875e-18
-2.49005e-18
-2.48061e-18
-2.48928e-18
-2.4929e-18
-2.48989e-18
-2.49017e-18
-2.51459e-18
-2.50073e-18
-2.4945e-18
-2.50781e-18
-2.51083e-18
-2.49331e-18
-2.4801e-18
-2.48039e-18
-2.49236e-18
-2.49144e-18
-2.48403e-18
-2.48744e-18
-2.50386e-18
-2.49729e-18
-2.50202e-18
-2.49574e-18
-2.4805e-18
-2.47764e-18
-2.48924e-18
-2.49042e-18
-2.49542e-18
-2.50973e-18
-2.49679e-18
-2.48726e-18
-2.48331e-18
-2.48585e-18
-2.46676e-18
-2.45165e-18
-2.47692e-18
-2.49493e-18
-2.47451e-18
-2.47722e-18
-2.49216e-18
-2.48981e-18
-2.47997e-18
-2.49089e-18
-2.50324e-18
-2.48798e-18
-2.49035e-18
-2.49167e-18
-2.48023e-18
-2.47849e-18
-2.494e-18
-2.49831e-18
-2.50729e-18
-2.49941e-18
-2.49538e-18
-2.48432e-18
-2.50686e-18
-2.50081e-18
-2.49385e-18
-2.49841e-18
-2.51006e-18
-2.49544e-18
-2.49176e-18
-2.50185e-18
-2.49463e-18
-2.49292e-18
-2.47987e-18
-2.47924e-18
-2.49094e-18
-2.49201e-18
-2.4916e-18
-2.4923e-18
-2.48663e-18
-2.49124e-18
-2.49488e-18
-2.49544e-18
-2.49143e-18
-2.49096e-18
-2.49374e-18
-2.50055e-18
-2.51246e-18
-2.51649e-18
-2.5035e-18
-2.49329e-18
-2.48604e-18
-2.48992e-18
-2.49066e-18
-2.49472e-18
-2.49751e-18
-2.49657e-18
-2.49914e-18
-2.50156e-18
-2.49551e-18
-2.47093e-18
-2.49438e-18
-2.50481e-18
-2.49516e-18
-2.48364e-18
-2.49249e-18
-2.49363e-18
-2.49059e-18
-2.49656e-18
-2.50277e-18
-2.50393e-18
-2.49231e-18
-2.49139e-18
-2.48563e-18
-2.50586e-18
-2.4909e-18
-2.5068e-18
-2.48971e-18
-2.49686e-18
-2.48863e-18
-2.47656e-18
-2.47876e-18
-2.48282e-18
-2.48202e-18
-2.49416e-18
-2.51322e-18
-2.51606e-18
-2.51035e-18
-2.4769e-18
-2.47997e-18
-2.49426e-18
-2.49252e-18
-2.4787e-18
-2.49241e-18
-2.49317e-18
-2.48606e-18
-2.50554e-18
-2.52278e-18
-2.48725e-18
-2.48056e-18
-2.49148e-18
-2.49407e-18
-2.49795e-18
-2.49286e-18
-2.49679e-18
-2.49346e-18
-2.49939e-18
-2.47691e-18
-2.48223e-18
-2.50255e-18
-2.49748e-18
-2.48569e-18
-2.48511e-18
-2.49949e-18
-2.51736e-18
-2.49875e-18
-2.4975e-18
-2.4676e-18
-2.49269e-18
-2.49262e-18
-2.46828e-18
-2.49061e-18
-2.49735e-18
-2.50126e-18
-2.49106e-18
-2.49797e-18
-2.48714e-18
-2.49392e-18
-2.49705e-18
-2.49704e-18
-2.49657e-18
-2.48319e-18
-2.49135e-18
-2.48758e-18
-2.49403e-18
-2.48543e-18
-2.49336e-18
-2.49904e-18
-2.4992e-18
-2.50382e-18
-2.50794e-18
-2.50002e-18
-2.49709e-18
-2.48364e-18
-2.50614e-18
-2.49823e-18
-2.50954e-18
-2.50771e-18
-2.49195e-18
-2.49665e-18
-2.50158e-18
-2.50906e-18
-2.50036e-18
-2.49831e-18
-2.51988e-18
-2.51155e-18
-2.50867e-18
-2.49958e-18
-2.50485e-18
-2.48817e-18
-2.49771e-18
-2.50868e-18
-2.49419e-18
-2.48029e-18
-2.49883e-18
-2.49552e-18
-2.48114e-18
-2.48358e-18
-2.48815e-18
-2.49857e-18
-2.49698e-18
-2.49112e-18
-2.48805e-18
-2.51339e-18
-2.50425e-18
-2.49838e-18
-2.49416e-18
-2.5022e-18
-2.50844e-18
-2.49883e-18
-2.48425e-18
-2.4916e-18
-2.50462e-18
-2.49634e-18
-2.50682e-18
-2.4981e-18
-2.49615e-18
-2.51586e-18
-2.50956e-18
-2.50962e-18
-2.49503e-18
-2.4942e-18
-2.51915e-18
-2.49794e-18
-2.4858e-18
-2.49005e-18
-2.48925e-18
-2.49448e-18
-2.49592e-18
-2.48795e-18
-2.49318e-18
-2.51173e-18
-2.50423e-18
-2.48819e-18
-2.48532e-18
-2.50894e-18
-2.50469e-18
-2.49937e-18
-2.4933e-18
-2.47937e-18
-2.46599e-18
-2.47756e-18
-2.49401e-18
-2.50088e-18
-2.4807e-18
-2.49877e-18
-2.49934e-18
-2.49258e-18
-2.49031e-18
-2.48106e-18
-2.48406e-18
-2.509e-18
-2.50457e-18
-2.48963e-18
-2.47788e-18
-2.48304e-18
-2.49091e-18
-2.48119e-18
-2.49552e-18
-2.50017e-18
-2.51192e-18
-2.50826e-18
-2.4865e-18
-2.509e-18
-2.5109e-18
-2.50553e-18
-2.50931e-18
-2.49079e-18
-2.48287e-18
-2.47962e-18
-2.49106e-18
-2.49595e-18
-2.48746e-18
-2.50823e-18
-2.50439e-18
-2.48025e-18
-2.4876e-18
-2.48904e-18
-2.47843e-18
-2.51562e-18
-2.48884e-18
-2.46855e-18
-2.48772e-18
-2.49199e-18
-2.4957e-18
-2.49425e-18
-2.50381e-18
-2.49576e-18
-2.49226e-18
-2.50036e-18
-2.49118e-18
-2.50162e-18
-2.47764e-18
-2.51934e-18
-2.50604e-18
-2.48995e-18
-2.48313e-18
-2.49456e-18
-2.4779e-18
-2.49745e-18
-2.49939e-18
-2.48379e-18
-2.48845e-18
-2.49681e-18
-2.50896e-18
-2.49849e-18
-2.48308e-18
-2.50705e-18
-2.47559e-18
-2.48292e-18
-2.48716e-18
-2.48928e-18
-2.48247e-18
-2.49342e-18
-2.50255e-18
-2.46391e-18
-2.48474e-18
-2.48976e-18
-2.50244e-18
-2.48107e-18
-2.47699e-18
-2.48096e-18
-2.48867e-18
-2.47306e-18
-2.47622e-18
-2.48983e-18
-2.47562e-18
-2.47557e-18
-2.48219e-18
-2.49006e-18
-2.47209e-18
-2.47068e-18
-2.45143e-18
-2.44914e-18
-2.47337e-18
-2.48246e-18
-2.48647e-18
-2.49104e-18
-2.50723e-18
-2.49132e-18
-2.48597e-18
-2.4994e-18
-2.50485e-18
-2.49951e-18
-2.49977e-18
-2.48753e-18
-2.48132e-18
-2.47541e-18
-2.48453e-18
-2.48124e-18
-2.48519e-18
-2.48611e-18
-2.48513e-18
-2.48438e-18
-2.4893e-18
-2.50437e-18
-2.47363e-18
-2.47004e-18
-2.45781e-18
-2.47059e-18
-2.47913e-18
-2.47949e-18
-2.47787e-18
-2.4727e-18
-2.45968e-18
-2.48955e-18
-2.475e-18
-2.48115e-18
-2.49005e-18
-2.48662e-18
-2.47978e-18
-2.48521e-18
-2.48633e-18
-2.48636e-18
-2.48294e-18
-2.4787e-18
-2.47179e-18
-2.45888e-18
-2.47405e-18
-2.47713e-18
-2.47629e-18
-2.47621e-18
-2.4798e-18
-2.48288e-18
-2.49161e-18
-2.50737e-18
-2.4884e-18
-2.4804e-18
-2.47564e-18
-2.45854e-18
-2.47875e-18
-2.49833e-18
-2.49235e-18
-2.47014e-18
-2.47234e-18
-2.51525e-18
-2.51434e-18
-2.49152e-18
-2.48387e-18
-2.48566e-18
-2.49053e-18
-2.49387e-18
-2.48438e-18
-2.47123e-18
-2.45658e-18
-2.48165e-18
-2.50494e-18
-2.49493e-18
-2.50159e-18
-2.48679e-18
-2.47885e-18
-2.47496e-18
-2.46848e-18
-2.47637e-18
-2.4831e-18
-2.48182e-18
-2.48052e-18
-2.48005e-18
-2.48258e-18
-2.48642e-18
-2.48505e-18
-2.48164e-18
-2.48951e-18
-2.51329e-18
-2.51866e-18
-2.51303e-18
-2.48541e-18
-2.46798e-18
-2.49949e-18
-2.51122e-18
-2.49409e-18
-2.49796e-18
-2.47763e-18
-2.45664e-18
-2.48078e-18
-2.50498e-18
-2.48546e-18
-2.48305e-18
-2.48209e-18
-2.48207e-18
-2.47655e-18
-2.48211e-18
-2.48569e-18
-2.50176e-18
-2.49877e-18
-2.47491e-18
-2.48618e-18
-2.48936e-18
-2.48495e-18
-2.48688e-18
-2.49015e-18
-2.49573e-18
-2.48994e-18
-2.48856e-18
-2.49897e-18
-2.49013e-18
-2.49444e-18
-2.48533e-18
-2.48345e-18
-2.48756e-18
-2.49474e-18
-2.45973e-18
-2.48013e-18
-2.49833e-18
-2.45964e-18
-2.476e-18
-2.48868e-18
-2.45952e-18
-2.47085e-18
-2.47598e-18
-2.4751e-18
-2.47403e-18
-2.46721e-18
-2.44926e-18
-2.46518e-18
-2.47251e-18
-2.47209e-18
-2.47227e-18
-2.46715e-18
-2.45266e-18
-2.45937e-18
-2.44977e-18
-2.46664e-18
-2.47727e-18
-2.4778e-18
-2.47472e-18
-2.5003e-18
-2.50126e-18
-2.48956e-18
-2.4977e-18
-2.5013e-18
-2.49201e-18
-2.48649e-18
-2.48697e-18
-2.48757e-18
-2.4834e-18
-2.48088e-18
-2.49254e-18
-2.48931e-18
-2.487e-18
-2.48015e-18
-2.4801e-18
-2.48309e-18
-2.45526e-18
-2.44815e-18
-2.47853e-18
-2.50535e-18
-2.48843e-18
-2.47973e-18
-2.47722e-18
-2.47279e-18
-2.48e-18
-2.48839e-18
-2.4841e-18
-2.48439e-18
-2.49156e-18
-2.50682e-18
-2.4911e-18
-2.48171e-18
-2.47336e-18
-2.46366e-18
-2.49675e-18
-2.4878e-18
-2.48034e-18
-2.47952e-18
-2.48512e-18
-2.50003e-18
-2.48353e-18
-2.47751e-18
-2.49906e-18
-2.49549e-18
-2.49332e-18
-2.47988e-18
-2.48697e-18
-2.49409e-18
-2.47735e-18
-2.48355e-18
-2.48874e-18
-2.47396e-18
-2.47639e-18
-2.47619e-18
-2.4897e-18
-2.50162e-18
-2.45776e-18
-2.46111e-18
-2.51e-18
-2.52085e-18
-2.51509e-18
-2.49094e-18
-2.49131e-18
-2.49723e-18
-2.45893e-18
-2.47941e-18
-2.50122e-18
-2.47763e-18
-2.45216e-18
-2.45927e-18
-2.45332e-18
-2.47215e-18
-2.48859e-18
-2.50405e-18
-2.48468e-18
-2.48452e-18
-2.50586e-18
-2.5138e-18
-2.5024e-18
-2.45552e-18
-2.44786e-18
-2.46822e-18
-2.47853e-18
-2.48869e-18
-2.48119e-18
-2.47573e-18
-2.48404e-18
-2.48513e-18
-2.50112e-18
-2.49871e-18
-2.491e-18
-2.49982e-18
-2.49863e-18
-2.48243e-18
-2.4724e-18
-2.47264e-18
-2.47768e-18
-2.48164e-18
-2.47786e-18
-2.45851e-18
-2.47696e-18
-2.48388e-18
-2.49298e-18
-2.48476e-18
-2.48005e-18
-2.48749e-18
-2.51119e-18
-2.4995e-18
-2.50156e-18
-2.48693e-18
-2.48072e-18
-2.47217e-18
-2.45512e-18
-2.47356e-18
-2.48246e-18
-2.48606e-18
-2.49229e-18
-2.46715e-18
-2.48755e-18
-2.46733e-18
-2.4941e-18
-2.48629e-18
-2.47986e-18
-2.47912e-18
-2.47983e-18
-2.47982e-18
-2.47867e-18
-2.47548e-18
-2.47458e-18
-2.4766e-18
-2.47878e-18
-2.48665e-18
-2.47267e-18
-2.49289e-18
-2.47613e-18
-2.4769e-18
-2.50561e-18
-2.50018e-18
-2.47593e-18
-2.48716e-18
-2.48758e-18
-2.47452e-18
-2.48075e-18
-2.48167e-18
-2.47546e-18
-2.48923e-18
-2.49606e-18
-2.48703e-18
-2.4931e-18
-2.48262e-18
-2.47696e-18
-2.45871e-18
-2.46805e-18
-2.46642e-18
-2.51313e-18
-2.49359e-18
-2.48395e-18
-2.48142e-18
-2.47967e-18
-2.48154e-18
-2.48824e-18
-2.51096e-18
-2.51071e-18
-2.48785e-18
-2.48217e-18
-2.48676e-18
-2.50795e-18
-2.49862e-18
-2.45936e-18
-2.46859e-18
-2.47395e-18
-2.47374e-18
-2.4709e-18
-2.46647e-18
-2.47189e-18
-2.47446e-18
-2.47404e-18
-2.47172e-18
-2.47561e-18
-2.49761e-18
-2.4855e-18
-2.48899e-18
-2.48848e-18
-2.49026e-18
-2.50225e-18
-2.49114e-18
-2.47869e-18