/*--------------------------------*- C++ -*----------------------------------*\
  =========                 |
  \\      /  F ield         | OpenFOAM: The Open Source CFD Toolbox
   \\    /   O peration     | Website:  https://openfoam.org
    \\  /    A nd           | Version:  7
     \\/     M anipulation  |
\*---------------------------------------------------------------------------*/
FoamFile
{
    version     2.0;
    format      ascii;
    class       volScalarField;
    location    "124000";
    object      k;
}
// * * * * * * * * * * * * * * * * * * * * * * * * * * * * * * * * * * * * * //

dimensions      [0 2 -2 0 0 0 0];

internalField   nonuniform List<scalar> 
4825
(
1.352e-06
1.35046e-06
1.35524e-06
1.35376e-06
1.35226e-06
1.35074e-06
1.34922e-06
1.35832e-06
1.35691e-06
1.35547e-06
1.35402e-06
1.35256e-06
1.36123e-06
1.3599e-06
1.35853e-06
1.35714e-06
1.35574e-06
1.36398e-06
1.36272e-06
1.36142e-06
1.3601e-06
1.35877e-06
1.36657e-06
1.36538e-06
1.36415e-06
1.36289e-06
1.36162e-06
1.36897e-06
1.36786e-06
1.3667e-06
1.36552e-06
1.36431e-06
1.37121e-06
1.37017e-06
1.36908e-06
1.36796e-06
1.36682e-06
1.37326e-06
1.37229e-06
1.37128e-06
1.37023e-06
1.36916e-06
1.37512e-06
1.37424e-06
1.3733e-06
1.37232e-06
1.37131e-06
1.37679e-06
1.37599e-06
1.37512e-06
1.37422e-06
1.37328e-06
1.37827e-06
1.37754e-06
1.37675e-06
1.37592e-06
1.37506e-06
1.37955e-06
1.3789e-06
1.37819e-06
1.37743e-06
1.37663e-06
1.38062e-06
1.38005e-06
1.37942e-06
1.37873e-06
1.38149e-06
1.381e-06
1.38044e-06
1.37983e-06
1.38213e-06
1.38173e-06
1.38125e-06
1.38071e-06
1.38256e-06
1.38224e-06
1.38184e-06
1.38276e-06
1.38252e-06
1.3822e-06
1.38272e-06
1.38257e-06
1.38245e-06
1.38238e-06
1.38193e-06
1.38194e-06
1.38115e-06
1.38125e-06
1.38011e-06
1.3803e-06
1.37879e-06
1.28583e-06
1.28324e-06
1.28067e-06
1.27814e-06
1.27563e-06
1.27317e-06
1.27076e-06
1.26841e-06
1.26614e-06
1.26395e-06
1.26185e-06
1.25985e-06
1.25797e-06
1.2562e-06
1.25455e-06
1.25303e-06
1.25165e-06
1.25041e-06
1.24931e-06
1.24836e-06
1.29122e-06
1.2887e-06
1.2862e-06
1.28372e-06
1.28128e-06
1.27887e-06
1.27652e-06
1.27423e-06
1.27201e-06
1.26986e-06
1.26781e-06
1.26586e-06
1.26401e-06
1.26228e-06
1.26067e-06
1.25918e-06
1.25783e-06
1.25661e-06
1.25554e-06
1.25461e-06
1.29647e-06
1.29402e-06
1.29159e-06
1.28918e-06
1.28679e-06
1.28445e-06
1.28215e-06
1.27991e-06
1.27774e-06
1.27565e-06
1.27364e-06
1.27173e-06
1.26993e-06
1.26823e-06
1.26666e-06
1.2652e-06
1.26388e-06
1.26269e-06
1.26164e-06
1.26073e-06
1.30159e-06
1.29921e-06
1.29684e-06
1.29449e-06
1.29217e-06
1.28989e-06
1.28764e-06
1.28546e-06
1.28334e-06
1.2813e-06
1.27934e-06
1.27747e-06
1.27571e-06
1.27405e-06
1.27251e-06
1.27109e-06
1.2698e-06
1.26864e-06
1.26761e-06
1.26672e-06
1.30658e-06
1.30426e-06
1.30196e-06
1.29968e-06
1.29742e-06
1.29519e-06
1.293e-06
1.29087e-06
1.2888e-06
1.28681e-06
1.2849e-06
1.28308e-06
1.28136e-06
1.27974e-06
1.27823e-06
1.27685e-06
1.27558e-06
1.27444e-06
1.27344e-06
1.27257e-06
1.31142e-06
1.30918e-06
1.30694e-06
1.30472e-06
1.30252e-06
1.30035e-06
1.29822e-06
1.29615e-06
1.29413e-06
1.29219e-06
1.29032e-06
1.28855e-06
1.28687e-06
1.28529e-06
1.28382e-06
1.28246e-06
1.28123e-06
1.28012e-06
1.27914e-06
1.27829e-06
1.31613e-06
1.31395e-06
1.31179e-06
1.30963e-06
1.30749e-06
1.30538e-06
1.30331e-06
1.30128e-06
1.29932e-06
1.29743e-06
1.29561e-06
1.29388e-06
1.29224e-06
1.2907e-06
1.28926e-06
1.28794e-06
1.28674e-06
1.28565e-06
1.2847e-06
1.28387e-06
1.32069e-06
1.31859e-06
1.31649e-06
1.3144e-06
1.31232e-06
1.31027e-06
1.30825e-06
1.30628e-06
1.30437e-06
1.30253e-06
1.30076e-06
1.29907e-06
1.29747e-06
1.29597e-06
1.29457e-06
1.29328e-06
1.29211e-06
1.29105e-06
1.29012e-06
1.28931e-06
1.28864e-06
1.28809e-06
1.28768e-06
1.28741e-06
1.28727e-06
1.28727e-06
1.28741e-06
1.28768e-06
1.28809e-06
1.28864e-06
1.28931e-06
1.29012e-06
1.29105e-06
1.29211e-06
1.29328e-06
1.32512e-06
1.32308e-06
1.32105e-06
1.31902e-06
1.317e-06
1.31501e-06
1.31305e-06
1.31114e-06
1.30928e-06
1.30748e-06
1.30576e-06
1.30412e-06
1.30256e-06
1.3011e-06
1.29974e-06
1.29848e-06
1.29734e-06
1.29631e-06
1.2954e-06
1.29461e-06
1.29395e-06
1.29342e-06
1.29302e-06
1.29276e-06
1.29262e-06
1.29262e-06
1.29276e-06
1.29302e-06
1.29342e-06
1.29395e-06
1.29461e-06
1.2954e-06
1.29631e-06
1.29734e-06
1.29848e-06
1.29974e-06
1.3011e-06
1.3294e-06
1.32743e-06
1.32547e-06
1.3235e-06
1.32155e-06
1.31961e-06
1.31771e-06
1.31585e-06
1.31405e-06
1.3123e-06
1.31063e-06
1.30903e-06
1.30751e-06
1.30609e-06
1.30477e-06
1.30354e-06
1.30243e-06
1.30143e-06
1.30054e-06
1.29978e-06
1.29913e-06
1.29862e-06
1.29823e-06
1.29797e-06
1.29783e-06
1.29783e-06
1.29797e-06
1.29823e-06
1.29862e-06
1.29913e-06
1.29978e-06
1.30054e-06
1.30143e-06
1.30243e-06
1.30354e-06
1.30477e-06
1.30609e-06
1.30751e-06
1.33354e-06
1.33164e-06
1.32974e-06
1.32784e-06
1.32595e-06
1.32407e-06
1.32223e-06
1.32042e-06
1.31867e-06
1.31697e-06
1.31535e-06
1.31379e-06
1.31232e-06
1.31094e-06
1.30965e-06
1.30846e-06
1.30738e-06
1.3064e-06
1.30554e-06
1.30479e-06
1.30417e-06
1.30366e-06
1.30329e-06
1.30303e-06
1.30291e-06
1.30291e-06
1.30303e-06
1.30329e-06
1.30366e-06
1.30417e-06
1.30479e-06
1.30554e-06
1.3064e-06
1.30738e-06
1.30846e-06
1.30965e-06
1.31094e-06
1.31232e-06
1.31379e-06
1.31535e-06
1.33753e-06
1.3357e-06
1.33387e-06
1.33203e-06
1.3302e-06
1.32839e-06
1.3266e-06
1.32485e-06
1.32315e-06
1.3215e-06
1.31992e-06
1.31841e-06
1.31698e-06
1.31564e-06
1.31439e-06
1.31323e-06
1.31218e-06
1.31123e-06
1.31039e-06
1.30967e-06
1.30906e-06
1.30857e-06
1.3082e-06
1.30796e-06
1.30783e-06
1.30783e-06
1.30796e-06
1.3082e-06
1.30857e-06
1.30906e-06
1.30967e-06
1.31039e-06
1.31123e-06
1.31218e-06
1.31323e-06
1.31439e-06
1.31564e-06
1.31698e-06
1.31841e-06
1.31992e-06
1.3215e-06
1.32315e-06
1.34137e-06
1.33962e-06
1.33785e-06
1.33608e-06
1.33431e-06
1.33255e-06
1.33082e-06
1.32913e-06
1.32748e-06
1.32588e-06
1.32435e-06
1.32289e-06
1.3215e-06
1.3202e-06
1.31898e-06
1.31786e-06
1.31684e-06
1.31592e-06
1.3151e-06
1.3144e-06
1.31381e-06
1.31333e-06
1.31297e-06
1.31273e-06
1.31261e-06
1.31261e-06
1.31273e-06
1.31297e-06
1.31333e-06
1.31381e-06
1.3144e-06
1.3151e-06
1.31592e-06
1.31684e-06
1.31786e-06
1.31898e-06
1.3202e-06
1.3215e-06
1.32289e-06
1.32435e-06
1.32588e-06
1.32748e-06
1.32913e-06
1.33082e-06
1.33255e-06
1.34507e-06
1.34338e-06
1.34168e-06
1.33997e-06
1.33826e-06
1.33657e-06
1.33489e-06
1.33326e-06
1.33166e-06
1.33012e-06
1.32863e-06
1.32721e-06
1.32587e-06
1.32461e-06
1.32343e-06
1.32234e-06
1.32135e-06
1.32045e-06
1.31966e-06
1.31898e-06
1.31841e-06
1.31794e-06
1.3176e-06
1.31736e-06
1.31725e-06
1.31725e-06
1.31736e-06
1.3176e-06
1.31794e-06
1.31841e-06
1.31898e-06
1.31966e-06
1.32045e-06
1.32135e-06
1.32234e-06
1.32343e-06
1.32461e-06
1.32587e-06
1.32721e-06
1.32863e-06
1.33012e-06
1.33166e-06
1.33326e-06
1.3349e-06
1.33657e-06
1.33826e-06
1.33997e-06
1.34861e-06
1.347e-06
1.34536e-06
1.34372e-06
1.34207e-06
1.34043e-06
1.33882e-06
1.33723e-06
1.33569e-06
1.3342e-06
1.33276e-06
1.33139e-06
1.33009e-06
1.32887e-06
1.32772e-06
1.32667e-06
1.32571e-06
1.32484e-06
1.32407e-06
1.32341e-06
1.32286e-06
1.32241e-06
1.32207e-06
1.32185e-06
1.32173e-06
1.32173e-06
1.32185e-06
1.32207e-06
1.32241e-06
1.32286e-06
1.32341e-06
1.32407e-06
1.32484e-06
1.32571e-06
1.32667e-06
1.32772e-06
1.32887e-06
1.33009e-06
1.33139e-06
1.33276e-06
1.3342e-06
1.33569e-06
1.33724e-06
1.33882e-06
1.34043e-06
1.34207e-06
1.34372e-06
1.34536e-06
1.347e-06
1.34861e-06
1.352e-06
1.35046e-06
1.34889e-06
1.34731e-06
1.34572e-06
1.34415e-06
1.34259e-06
1.34106e-06
1.33957e-06
1.33813e-06
1.33674e-06
1.33542e-06
1.33416e-06
1.33297e-06
1.33187e-06
1.33085e-06
1.32992e-06
1.32908e-06
1.32834e-06
1.32769e-06
1.32716e-06
1.32672e-06
1.3264e-06
1.32618e-06
1.32607e-06
1.32607e-06
1.32618e-06
1.3264e-06
1.32672e-06
1.32716e-06
1.32769e-06
1.32834e-06
1.32908e-06
1.32992e-06
1.33085e-06
1.33187e-06
1.33297e-06
1.33416e-06
1.33542e-06
1.33674e-06
1.33813e-06
1.33957e-06
1.34106e-06
1.34259e-06
1.34415e-06
1.34572e-06
1.34731e-06
1.34889e-06
1.35046e-06
1.352e-06
1.35524e-06
1.35376e-06
1.35226e-06
1.35074e-06
1.34922e-06
1.3477e-06
1.34621e-06
1.34473e-06
1.3433e-06
1.34191e-06
1.34057e-06
1.33929e-06
1.33807e-06
1.33693e-06
1.33586e-06
1.33487e-06
1.33397e-06
1.33316e-06
1.33244e-06
1.33182e-06
1.3313e-06
1.33088e-06
1.33057e-06
1.33036e-06
1.33025e-06
1.33025e-06
1.33036e-06
1.33057e-06
1.33088e-06
1.3313e-06
1.33182e-06
1.33244e-06
1.33316e-06
1.33397e-06
1.33487e-06
1.33586e-06
1.33693e-06
1.33807e-06
1.33929e-06
1.34057e-06
1.34191e-06
1.3433e-06
1.34473e-06
1.34621e-06
1.3477e-06
1.34922e-06
1.35074e-06
1.35226e-06
1.35376e-06
1.35524e-06
1.35832e-06
1.35691e-06
1.35547e-06
1.35402e-06
1.35256e-06
1.35111e-06
1.34967e-06
1.34825e-06
1.34687e-06
1.34553e-06
1.34424e-06
1.343e-06
1.34183e-06
1.34073e-06
1.3397e-06
1.33874e-06
1.33787e-06
1.33709e-06
1.3364e-06
1.3358e-06
1.3353e-06
1.33489e-06
1.33458e-06
1.33438e-06
1.33428e-06
1.33428e-06
1.33438e-06
1.33458e-06
1.33489e-06
1.3353e-06
1.3358e-06
1.3364e-06
1.33709e-06
1.33787e-06
1.33874e-06
1.3397e-06
1.34073e-06
1.34183e-06
1.343e-06
1.34424e-06
1.34553e-06
1.34687e-06
1.34825e-06
1.34967e-06
1.35111e-06
1.35256e-06
1.35402e-06
1.35547e-06
1.35691e-06
1.35832e-06
1.36123e-06
1.3599e-06
1.35853e-06
1.35714e-06
1.35574e-06
1.35435e-06
1.35297e-06
1.35161e-06
1.35028e-06
1.34899e-06
1.34775e-06
1.34656e-06
1.34543e-06
1.34437e-06
1.34337e-06
1.34246e-06
1.34162e-06
1.34086e-06
1.3402e-06
1.33962e-06
1.33913e-06
1.33874e-06
1.33845e-06
1.33825e-06
1.33815e-06
1.33815e-06
1.33825e-06
1.33845e-06
1.33874e-06
1.33913e-06
1.33962e-06
1.3402e-06
1.34086e-06
1.34162e-06
1.34246e-06
1.34337e-06
1.34437e-06
1.34543e-06
1.34656e-06
1.34775e-06
1.34899e-06
1.35028e-06
1.35161e-06
1.35297e-06
1.35435e-06
1.35575e-06
1.35714e-06
1.35853e-06
1.3599e-06
1.36123e-06
1.36398e-06
1.36272e-06
1.36142e-06
1.3601e-06
1.35877e-06
1.35743e-06
1.35611e-06
1.3548e-06
1.35353e-06
1.35229e-06
1.3511e-06
1.34996e-06
1.34887e-06
1.34785e-06
1.34689e-06
1.34601e-06
1.3452e-06
1.34448e-06
1.34383e-06
1.34328e-06
1.34281e-06
1.34243e-06
1.34215e-06
1.34196e-06
1.34186e-06
1.34186e-06
1.34196e-06
1.34215e-06
1.34243e-06
1.34281e-06
1.34328e-06
1.34383e-06
1.34448e-06
1.3452e-06
1.34601e-06
1.34689e-06
1.34785e-06
1.34887e-06
1.34996e-06
1.3511e-06
1.35229e-06
1.35353e-06
1.3548e-06
1.35611e-06
1.35743e-06
1.35877e-06
1.3601e-06
1.36142e-06
1.36272e-06
1.36398e-06
1.36657e-06
1.36538e-06
1.36415e-06
1.36289e-06
1.36162e-06
1.36035e-06
1.35908e-06
1.35784e-06
1.35662e-06
1.35543e-06
1.35429e-06
1.35319e-06
1.35215e-06
1.35117e-06
1.35025e-06
1.3494e-06
1.34863e-06
1.34793e-06
1.34731e-06
1.34677e-06
1.34632e-06
1.34596e-06
1.34569e-06
1.34551e-06
1.34542e-06
1.34542e-06
1.34551e-06
1.34569e-06
1.34596e-06
1.34632e-06
1.34678e-06
1.34731e-06
1.34793e-06
1.34863e-06
1.3494e-06
1.35025e-06
1.35117e-06
1.35215e-06
1.35319e-06
1.35429e-06
1.35543e-06
1.35662e-06
1.35784e-06
1.35908e-06
1.36035e-06
1.36162e-06
1.36289e-06
1.36415e-06
1.36538e-06
1.36657e-06
1.36897e-06
1.36786e-06
1.3667e-06
1.36552e-06
1.36431e-06
1.3631e-06
1.36189e-06
1.36071e-06
1.35954e-06
1.35841e-06
1.35731e-06
1.35627e-06
1.35527e-06
1.35433e-06
1.35345e-06
1.35263e-06
1.35189e-06
1.35122e-06
1.35062e-06
1.35011e-06
1.34968e-06
1.34933e-06
1.34907e-06
1.34889e-06
1.3488e-06
1.3488e-06
1.34889e-06
1.34907e-06
1.34933e-06
1.34968e-06
1.35011e-06
1.35062e-06
1.35122e-06
1.35189e-06
1.35263e-06
1.35345e-06
1.35433e-06
1.35527e-06
1.35627e-06
1.35731e-06
1.35841e-06
1.35954e-06
1.36071e-06
1.36189e-06
1.3631e-06
1.36431e-06
1.36552e-06
1.3667e-06
1.36786e-06
1.36897e-06
1.37121e-06
1.37017e-06
1.36908e-06
1.36796e-06
1.36682e-06
1.36568e-06
1.36453e-06
1.3634e-06
1.36229e-06
1.36121e-06
1.36017e-06
1.35917e-06
1.35822e-06
1.35732e-06
1.35648e-06
1.3557e-06
1.35498e-06
1.35434e-06
1.35377e-06
1.35328e-06
1.35287e-06
1.35253e-06
1.35228e-06
1.35211e-06
1.35203e-06
1.35203e-06
1.35211e-06
1.35228e-06
1.35253e-06
1.35287e-06
1.35328e-06
1.35377e-06
1.35434e-06
1.35498e-06
1.3557e-06
1.35648e-06
1.35732e-06
1.35822e-06
1.35917e-06
1.36017e-06
1.36121e-06
1.36229e-06
1.3634e-06
1.36453e-06
1.36568e-06
1.36682e-06
1.36796e-06
1.36908e-06
1.37017e-06
1.37121e-06
1.37325e-06
1.37229e-06
1.37128e-06
1.37023e-06
1.36916e-06
1.36808e-06
1.367e-06
1.36592e-06
1.36487e-06
1.36385e-06
1.36285e-06
1.3619e-06
1.36099e-06
1.36014e-06
1.35933e-06
1.35859e-06
1.35791e-06
1.35729e-06
1.35675e-06
1.35628e-06
1.35588e-06
1.35556e-06
1.35532e-06
1.35516e-06
1.35508e-06
1.35508e-06
1.35516e-06
1.35532e-06
1.35556e-06
1.35588e-06
1.35628e-06
1.35675e-06
1.35729e-06
1.35791e-06
1.35859e-06
1.35933e-06
1.36014e-06
1.36099e-06
1.3619e-06
1.36286e-06
1.36385e-06
1.36487e-06
1.36592e-06
1.367e-06
1.36808e-06
1.36916e-06
1.37023e-06
1.37128e-06
1.37229e-06
1.37326e-06
1.37512e-06
1.37423e-06
1.3733e-06
1.37232e-06
1.37131e-06
1.3703e-06
1.36928e-06
1.36827e-06
1.36727e-06
1.3663e-06
1.36536e-06
1.36446e-06
1.3636e-06
1.36278e-06
1.36202e-06
1.36131e-06
1.36066e-06
1.36008e-06
1.35956e-06
1.35911e-06
1.35873e-06
1.35843e-06
1.3582e-06
1.35804e-06
1.35797e-06
1.35797e-06
1.35804e-06
1.3582e-06
1.35843e-06
1.35873e-06
1.35911e-06
1.35956e-06
1.36008e-06
1.36066e-06
1.36131e-06
1.36202e-06
1.36278e-06
1.3636e-06
1.36446e-06
1.36536e-06
1.3663e-06
1.36727e-06
1.36827e-06
1.36928e-06
1.3703e-06
1.37131e-06
1.37232e-06
1.3733e-06
1.37424e-06
1.37512e-06
1.37679e-06
1.37599e-06
1.37512e-06
1.37422e-06
1.37328e-06
1.37233e-06
1.37137e-06
1.37042e-06
1.36949e-06
1.36857e-06
1.36769e-06
1.36683e-06
1.36602e-06
1.36525e-06
1.36452e-06
1.36385e-06
1.36323e-06
1.36268e-06
1.36219e-06
1.36176e-06
1.3614e-06
1.36111e-06
1.36089e-06
1.36075e-06
1.36067e-06
1.36067e-06
1.36075e-06
1.36089e-06
1.36111e-06
1.3614e-06
1.36176e-06
1.36219e-06
1.36268e-06
1.36323e-06
1.36385e-06
1.36452e-06
1.36525e-06
1.36602e-06
1.36683e-06
1.36769e-06
1.36857e-06
1.36949e-06
1.37042e-06
1.37137e-06
1.37233e-06
1.37328e-06
1.37422e-06
1.37512e-06
1.37599e-06
1.37679e-06
1.37827e-06
1.37754e-06
1.37675e-06
1.37592e-06
1.37506e-06
1.37417e-06
1.37328e-06
1.37239e-06
1.37152e-06
1.37066e-06
1.36983e-06
1.36902e-06
1.36825e-06
1.36753e-06
1.36684e-06
1.36621e-06
1.36563e-06
1.3651e-06
1.36463e-06
1.36423e-06
1.36389e-06
1.36362e-06
1.36341e-06
1.36327e-06
1.3632e-06
1.3632e-06
1.36327e-06
1.36341e-06
1.36362e-06
1.36389e-06
1.36423e-06
1.36463e-06
1.3651e-06
1.36563e-06
1.36621e-06
1.36684e-06
1.36753e-06
1.36825e-06
1.36902e-06
1.36983e-06
1.37066e-06
1.37152e-06
1.37239e-06
1.37328e-06
1.37417e-06
1.37506e-06
1.37592e-06
1.37675e-06
1.37754e-06
1.37827e-06
1.37955e-06
1.3789e-06
1.37819e-06
1.37743e-06
1.37663e-06
1.37582e-06
1.37499e-06
1.37417e-06
1.37335e-06
1.37255e-06
1.37177e-06
1.37102e-06
1.3703e-06
1.36962e-06
1.36897e-06
1.36838e-06
1.36783e-06
1.36733e-06
1.36689e-06
1.36651e-06
1.36619e-06
1.36593e-06
1.36574e-06
1.36561e-06
1.36554e-06
1.36554e-06
1.36561e-06
1.36574e-06
1.36593e-06
1.36619e-06
1.36651e-06
1.36689e-06
1.36733e-06
1.36783e-06
1.36838e-06
1.36897e-06
1.36962e-06
1.3703e-06
1.37102e-06
1.37177e-06
1.37255e-06
1.37335e-06
1.37417e-06
1.37499e-06
1.37582e-06
1.37663e-06
1.37743e-06
1.37819e-06
1.3789e-06
1.37955e-06
1.38062e-06
1.38005e-06
1.37942e-06
1.37873e-06
1.37801e-06
1.37726e-06
1.3765e-06
1.37574e-06
1.37499e-06
1.37425e-06
1.37352e-06
1.37282e-06
1.37215e-06
1.37151e-06
1.37091e-06
1.37035e-06
1.36984e-06
1.36937e-06
1.36896e-06
1.3686e-06
1.3683e-06
1.36806e-06
1.36788e-06
1.36775e-06
1.36769e-06
1.36769e-06
1.36775e-06
1.36788e-06
1.36806e-06
1.3683e-06
1.3686e-06
1.36896e-06
1.36937e-06
1.36984e-06
1.37035e-06
1.37091e-06
1.37151e-06
1.37215e-06
1.37282e-06
1.37352e-06
1.37425e-06
1.37499e-06
1.37574e-06
1.3765e-06
1.37726e-06
1.37801e-06
1.37873e-06
1.37942e-06
1.38005e-06
1.38062e-06
1.38149e-06
1.381e-06
1.38044e-06
1.37983e-06
1.37918e-06
1.3785e-06
1.37781e-06
1.37711e-06
1.37642e-06
1.37574e-06
1.37507e-06
1.37442e-06
1.3738e-06
1.37321e-06
1.37265e-06
1.37213e-06
1.37165e-06
1.37122e-06
1.37083e-06
1.3705e-06
1.37022e-06
1.36999e-06
1.36982e-06
1.3697e-06
1.36964e-06
1.36964e-06
1.3697e-06
1.36982e-06
1.36999e-06
1.37022e-06
1.3705e-06
1.37083e-06
1.37122e-06
1.37165e-06
1.37213e-06
1.37265e-06
1.37321e-06
1.3738e-06
1.37442e-06
1.37507e-06
1.37574e-06
1.37642e-06
1.37711e-06
1.37781e-06
1.3785e-06
1.37918e-06
1.37983e-06
1.38044e-06
1.381e-06
1.38149e-06
1.38213e-06
1.38173e-06
1.38125e-06
1.38071e-06
1.38014e-06
1.37953e-06
1.37891e-06
1.37827e-06
1.37764e-06
1.37702e-06
1.37641e-06
1.37582e-06
1.37524e-06
1.3747e-06
1.37418e-06
1.3737e-06
1.37326e-06
1.37286e-06
1.3725e-06
1.37219e-06
1.37193e-06
1.37172e-06
1.37156e-06
1.37145e-06
1.3714e-06
1.3714e-06
1.37145e-06
1.37156e-06
1.37172e-06
1.37193e-06
1.37219e-06
1.3725e-06
1.37286e-06
1.37326e-06
1.3737e-06
1.37418e-06
1.3747e-06
1.37524e-06
1.37582e-06
1.37641e-06
1.37702e-06
1.37764e-06
1.37827e-06
1.37891e-06
1.37953e-06
1.38014e-06
1.38071e-06
1.38125e-06
1.38173e-06
1.38213e-06
1.38256e-06
1.38224e-06
1.38184e-06
1.38138e-06
1.38087e-06
1.38034e-06
1.37978e-06
1.37922e-06
1.37865e-06
1.37809e-06
1.37754e-06
1.377e-06
1.37648e-06
1.37598e-06
1.3755e-06
1.37506e-06
1.37465e-06
1.37429e-06
1.37396e-06
1.37367e-06
1.37343e-06
1.37323e-06
1.37309e-06
1.37299e-06
1.37294e-06
1.37294e-06
1.37299e-06
1.37309e-06
1.37323e-06
1.37343e-06
1.37367e-06
1.37396e-06
1.37429e-06
1.37466e-06
1.37506e-06
1.3755e-06
1.37598e-06
1.37648e-06
1.377e-06
1.37754e-06
1.37809e-06
1.37865e-06
1.37922e-06
1.37979e-06
1.38034e-06
1.38088e-06
1.38138e-06
1.38184e-06
1.38224e-06
1.38256e-06
1.38276e-06
1.38252e-06
1.3822e-06
1.38182e-06
1.38139e-06
1.38093e-06
1.38044e-06
1.37994e-06
1.37944e-06
1.37894e-06
1.37845e-06
1.37796e-06
1.37749e-06
1.37704e-06
1.37661e-06
1.37621e-06
1.37584e-06
1.3755e-06
1.3752e-06
1.37494e-06
1.37472e-06
1.37454e-06
1.3744e-06
1.37431e-06
1.37427e-06
1.37427e-06
1.37431e-06
1.3744e-06
1.37454e-06
1.37472e-06
1.37494e-06
1.3752e-06
1.3755e-06
1.37584e-06
1.37621e-06
1.37661e-06
1.37704e-06
1.37749e-06
1.37796e-06
1.37845e-06
1.37894e-06
1.37944e-06
1.37995e-06
1.38044e-06
1.38093e-06
1.38139e-06
1.38182e-06
1.3822e-06
1.38252e-06
1.38276e-06
1.38272e-06
1.38257e-06
1.38233e-06
1.38203e-06
1.38168e-06
1.38129e-06
1.38087e-06
1.38044e-06
1.38e-06
1.37957e-06
1.37913e-06
1.3787e-06
1.37828e-06
1.37788e-06
1.37749e-06
1.37713e-06
1.3768e-06
1.37649e-06
1.37622e-06
1.37599e-06
1.37578e-06
1.37562e-06
1.3755e-06
1.37542e-06
1.37538e-06
1.37538e-06
1.37542e-06
1.3755e-06
1.37562e-06
1.37578e-06
1.37599e-06
1.37622e-06
1.37649e-06
1.3768e-06
1.37713e-06
1.37749e-06
1.37788e-06
1.37828e-06
1.3787e-06
1.37913e-06
1.37957e-06
1.38e-06
1.38044e-06
1.38087e-06
1.38129e-06
1.38168e-06
1.38203e-06
1.38233e-06
1.38257e-06
1.38272e-06
1.38245e-06
1.38238e-06
1.38222e-06
1.382e-06
1.38172e-06
1.38141e-06
1.38107e-06
1.38071e-06
1.38033e-06
1.37996e-06
1.37958e-06
1.37921e-06
1.37884e-06
1.37849e-06
1.37815e-06
1.37783e-06
1.37753e-06
1.37726e-06
1.37702e-06
1.37681e-06
1.37663e-06
1.37648e-06
1.37637e-06
1.3763e-06
1.37626e-06
1.37626e-06
1.3763e-06
1.37637e-06
1.37648e-06
1.37663e-06
1.37681e-06
1.37702e-06
1.37726e-06
1.37753e-06
1.37783e-06
1.37815e-06
1.37849e-06
1.37884e-06
1.37921e-06
1.37958e-06
1.37996e-06
1.38033e-06
1.38071e-06
1.38107e-06
1.38141e-06
1.38172e-06
1.382e-06
1.38222e-06
1.38238e-06
1.38245e-06
1.38193e-06
1.38194e-06
1.38187e-06
1.38173e-06
1.38153e-06
1.38129e-06
1.38102e-06
1.38073e-06
1.38042e-06
1.38011e-06
1.37979e-06
1.37948e-06
1.37916e-06
1.37886e-06
1.37857e-06
1.37829e-06
1.37803e-06
1.37779e-06
1.37758e-06
1.37739e-06
1.37723e-06
1.37711e-06
1.37701e-06
1.37694e-06
1.37691e-06
1.37691e-06
1.37694e-06
1.37701e-06
1.37711e-06
1.37723e-06
1.37739e-06
1.37758e-06
1.37779e-06
1.37803e-06
1.37829e-06
1.37857e-06
1.37886e-06
1.37916e-06
1.37948e-06
1.37979e-06
1.38011e-06
1.38042e-06
1.38073e-06
1.38102e-06
1.38129e-06
1.38153e-06
1.38173e-06
1.38187e-06
1.38194e-06
1.38193e-06
1.38115e-06
1.38125e-06
1.38126e-06
1.3812e-06
1.38108e-06
1.38092e-06
1.38072e-06
1.3805e-06
1.38027e-06
1.38002e-06
1.37976e-06
1.3795e-06
1.37924e-06
1.37899e-06
1.37874e-06
1.37851e-06
1.37828e-06
1.37808e-06
1.3779e-06
1.37774e-06
1.3776e-06
1.37749e-06
1.37741e-06
1.37735e-06
1.37732e-06
1.37732e-06
1.37735e-06
1.37741e-06
1.37749e-06
1.3776e-06
1.37774e-06
1.3779e-06
1.37808e-06
1.37828e-06
1.37851e-06
1.37874e-06
1.37899e-06
1.37924e-06
1.3795e-06
1.37976e-06
1.38002e-06
1.38027e-06
1.3805e-06
1.38072e-06
1.38092e-06
1.38108e-06
1.3812e-06
1.38126e-06
1.38125e-06
1.38115e-06
1.38011e-06
1.3803e-06
1.38039e-06
1.38042e-06
1.38038e-06
1.38029e-06
1.38017e-06
1.38002e-06
1.37985e-06
1.37967e-06
1.37948e-06
1.37928e-06
1.37907e-06
1.37887e-06
1.37867e-06
1.37847e-06
1.37829e-06
1.37812e-06
1.37797e-06
1.37784e-06
1.37772e-06
1.37763e-06
1.37756e-06
1.37751e-06
1.37749e-06
1.37749e-06
1.37751e-06
1.37756e-06
1.37763e-06
1.37772e-06
1.37784e-06
1.37797e-06
1.37812e-06
1.37829e-06
1.37847e-06
1.37867e-06
1.37887e-06
1.37907e-06
1.37928e-06
1.37948e-06
1.37967e-06
1.37985e-06
1.38002e-06
1.38017e-06
1.38029e-06
1.38038e-06
1.38042e-06
1.38039e-06
1.3803e-06
1.38011e-06
1.37879e-06
1.37907e-06
1.37926e-06
1.37936e-06
1.3794e-06
1.3794e-06
1.37935e-06
1.37928e-06
1.37918e-06
1.37906e-06
1.37893e-06
1.37879e-06
1.37864e-06
1.37849e-06
1.37833e-06
1.37818e-06
1.37804e-06
1.37791e-06
1.37779e-06
1.37768e-06
1.37759e-06
1.37751e-06
1.37745e-06
1.37742e-06
1.3774e-06
1.3774e-06
1.37742e-06
1.37745e-06
1.37751e-06
1.37759e-06
1.37768e-06
1.37779e-06
1.37791e-06
1.37804e-06
1.37819e-06
1.37833e-06
1.37849e-06
1.37864e-06
1.37879e-06
1.37893e-06
1.37906e-06
1.37918e-06
1.37928e-06
1.37935e-06
1.3794e-06
1.3794e-06
1.37936e-06
1.37926e-06
1.37907e-06
1.37879e-06
1.37719e-06
1.37756e-06
1.37784e-06
1.37803e-06
1.37815e-06
1.37823e-06
1.37826e-06
1.37826e-06
1.37823e-06
1.37818e-06
1.37812e-06
1.37803e-06
1.37794e-06
1.37784e-06
1.37774e-06
1.37763e-06
1.37753e-06
1.37743e-06
1.37734e-06
1.37726e-06
1.37719e-06
1.37713e-06
1.37709e-06
1.37706e-06
1.37704e-06
1.37704e-06
1.37706e-06
1.37709e-06
1.37713e-06
1.37719e-06
1.37726e-06
1.37734e-06
1.37743e-06
1.37753e-06
1.37763e-06
1.37774e-06
1.37784e-06
1.37794e-06
1.37803e-06
1.37812e-06
1.37818e-06
1.37823e-06
1.37826e-06
1.37826e-06
1.37823e-06
1.37815e-06
1.37803e-06
1.37784e-06
1.37756e-06
1.37719e-06
1.3753e-06
1.37577e-06
1.37613e-06
1.37641e-06
1.37662e-06
1.37677e-06
1.37688e-06
1.37696e-06
1.377e-06
1.37702e-06
1.37702e-06
1.377e-06
1.37696e-06
1.37692e-06
1.37686e-06
1.3768e-06
1.37674e-06
1.37667e-06
1.37662e-06
1.37656e-06
1.37652e-06
1.37648e-06
1.37645e-06
1.37643e-06
1.37642e-06
1.37642e-06
1.37643e-06
1.37645e-06
1.37648e-06
1.37652e-06
1.37656e-06
1.37662e-06
1.37667e-06
1.37674e-06
1.3768e-06
1.37686e-06
1.37692e-06
1.37696e-06
1.377e-06
1.37702e-06
1.37702e-06
1.377e-06
1.37696e-06
1.37688e-06
1.37677e-06
1.37662e-06
1.37641e-06
1.37613e-06
1.37577e-06
1.3753e-06
1.37311e-06
1.37367e-06
1.37412e-06
1.37449e-06
1.37479e-06
1.37502e-06
1.37521e-06
1.37536e-06
1.37548e-06
1.37557e-06
1.37564e-06
1.37568e-06
1.3757e-06
1.37571e-06
1.3757e-06
1.37568e-06
1.37566e-06
1.37564e-06
1.37561e-06
1.37558e-06
1.37556e-06
1.37554e-06
1.37552e-06
1.37551e-06
1.37551e-06
1.37551e-06
1.37551e-06
1.37552e-06
1.37554e-06
1.37556e-06
1.37558e-06
1.37561e-06
1.37564e-06
1.37566e-06
1.37568e-06
1.3757e-06
1.37571e-06
1.3757e-06
1.37568e-06
1.37564e-06
1.37557e-06
1.37548e-06
1.37536e-06
1.37521e-06
1.37502e-06
1.37479e-06
1.37449e-06
1.37412e-06
1.37367e-06
1.37061e-06
1.37126e-06
1.37181e-06
1.37226e-06
1.37265e-06
1.37297e-06
1.37324e-06
1.37347e-06
1.37366e-06
1.37382e-06
1.37395e-06
1.37406e-06
1.37414e-06
1.3742e-06
1.37424e-06
1.37427e-06
1.37429e-06
1.37431e-06
1.37431e-06
1.37431e-06
1.37431e-06
1.37431e-06
1.37431e-06
1.37431e-06
1.37431e-06
1.37431e-06
1.37431e-06
1.37431e-06
1.37431e-06
1.37431e-06
1.37431e-06
1.37431e-06
1.37431e-06
1.37429e-06
1.37427e-06
1.37424e-06
1.3742e-06
1.37414e-06
1.37406e-06
1.37395e-06
1.37382e-06
1.37366e-06
1.37347e-06
1.37324e-06
1.37297e-06
1.37265e-06
1.37226e-06
1.37181e-06
1.36777e-06
1.36852e-06
1.36917e-06
1.36971e-06
1.37019e-06
1.37059e-06
1.37095e-06
1.37125e-06
1.37152e-06
1.37176e-06
1.37196e-06
1.37213e-06
1.37227e-06
1.37238e-06
1.37248e-06
1.37256e-06
1.37262e-06
1.37267e-06
1.37271e-06
1.37274e-06
1.37276e-06
1.37278e-06
1.37279e-06
1.3728e-06
1.3728e-06
1.3728e-06
1.3728e-06
1.37279e-06
1.37278e-06
1.37276e-06
1.37274e-06
1.37271e-06
1.37267e-06
1.37262e-06
1.37256e-06
1.37248e-06
1.37238e-06
1.37227e-06
1.37213e-06
1.37196e-06
1.37176e-06
1.37152e-06
1.37125e-06
1.37095e-06
1.37059e-06
1.37019e-06
1.36971e-06
1.3646e-06
1.36545e-06
1.36619e-06
1.36683e-06
1.36739e-06
1.36789e-06
1.36833e-06
1.36871e-06
1.36906e-06
1.36937e-06
1.36964e-06
1.36987e-06
1.37008e-06
1.37025e-06
1.3704e-06
1.37052e-06
1.37063e-06
1.37072e-06
1.37079e-06
1.37085e-06
1.3709e-06
1.37093e-06
1.37096e-06
1.37098e-06
1.37099e-06
1.37099e-06
1.37098e-06
1.37096e-06
1.37093e-06
1.3709e-06
1.37085e-06
1.37079e-06
1.37072e-06
1.37063e-06
1.37052e-06
1.3704e-06
1.37025e-06
1.37008e-06
1.36987e-06
1.36964e-06
1.36937e-06
1.36906e-06
1.36871e-06
1.36833e-06
1.36789e-06
1.36739e-06
1.36108e-06
1.36203e-06
1.36287e-06
1.3636e-06
1.36426e-06
1.36484e-06
1.36536e-06
1.36584e-06
1.36626e-06
1.36664e-06
1.36698e-06
1.36729e-06
1.36755e-06
1.36778e-06
1.36798e-06
1.36816e-06
1.36831e-06
1.36843e-06
1.36854e-06
1.36863e-06
1.3687e-06
1.36876e-06
1.3688e-06
1.36883e-06
1.36884e-06
1.36884e-06
1.36883e-06
1.3688e-06
1.36876e-06
1.3687e-06
1.36863e-06
1.36854e-06
1.36843e-06
1.36831e-06
1.36816e-06
1.36798e-06
1.36778e-06
1.36755e-06
1.36729e-06
1.36698e-06
1.36664e-06
1.36626e-06
1.36584e-06
1.36536e-06
1.36484e-06
1.35718e-06
1.35824e-06
1.35918e-06
1.36001e-06
1.36076e-06
1.36143e-06
1.36205e-06
1.3626e-06
1.36311e-06
1.36357e-06
1.36398e-06
1.36435e-06
1.36468e-06
1.36497e-06
1.36522e-06
1.36545e-06
1.36564e-06
1.36581e-06
1.36595e-06
1.36607e-06
1.36617e-06
1.36625e-06
1.3663e-06
1.36634e-06
1.36636e-06
1.36636e-06
1.36634e-06
1.3663e-06
1.36625e-06
1.36617e-06
1.36607e-06
1.36595e-06
1.36581e-06
1.36564e-06
1.36545e-06
1.36522e-06
1.36497e-06
1.36468e-06
1.36435e-06
1.36398e-06
1.36357e-06
1.36311e-06
1.3626e-06
1.36205e-06
1.36143e-06
1.35291e-06
1.35407e-06
1.35511e-06
1.35604e-06
1.35689e-06
1.35765e-06
1.35836e-06
1.359e-06
1.35959e-06
1.36012e-06
1.36061e-06
1.36105e-06
1.36144e-06
1.36179e-06
1.3621e-06
1.36238e-06
1.36262e-06
1.36283e-06
1.363e-06
1.36316e-06
1.36328e-06
1.36338e-06
1.36345e-06
1.3635e-06
1.36352e-06
1.36352e-06
1.3635e-06
1.36345e-06
1.36338e-06
1.36328e-06
1.36316e-06
1.363e-06
1.36283e-06
1.36262e-06
1.36238e-06
1.3621e-06
1.36179e-06
1.36144e-06
1.36105e-06
1.36061e-06
1.36012e-06
1.35959e-06
1.359e-06
1.35836e-06
1.35765e-06
1.34823e-06
1.34949e-06
1.35064e-06
1.35168e-06
1.35262e-06
1.35348e-06
1.35428e-06
1.35501e-06
1.35568e-06
1.3563e-06
1.35686e-06
1.35737e-06
1.35783e-06
1.35824e-06
1.35861e-06
1.35893e-06
1.35922e-06
1.35947e-06
1.35969e-06
1.35987e-06
1.36002e-06
1.36014e-06
1.36023e-06
1.36029e-06
1.36031e-06
1.36031e-06
1.36029e-06
1.36023e-06
1.36014e-06
1.36002e-06
1.35987e-06
1.35969e-06
1.35947e-06
1.35922e-06
1.35893e-06
1.35861e-06
1.35824e-06
1.35783e-06
1.35737e-06
1.35686e-06
1.3563e-06
1.35568e-06
1.35501e-06
1.35428e-06
1.35348e-06
1.34313e-06
1.34451e-06
1.34576e-06
1.3469e-06
1.34795e-06
1.34891e-06
1.34979e-06
1.35061e-06
1.35137e-06
1.35207e-06
1.35271e-06
1.35329e-06
1.35382e-06
1.3543e-06
1.35472e-06
1.3551e-06
1.35543e-06
1.35573e-06
1.35598e-06
1.35619e-06
1.35637e-06
1.35651e-06
1.35662e-06
1.35669e-06
1.35672e-06
1.35672e-06
1.35669e-06
1.35662e-06
1.35651e-06
1.35637e-06
1.35619e-06
1.35598e-06
1.35573e-06
1.35543e-06
1.3551e-06
1.35472e-06
1.3543e-06
1.35382e-06
1.35329e-06
1.35271e-06
1.35207e-06
1.35137e-06
1.35061e-06
1.34979e-06
1.34891e-06
1.33759e-06
1.33908e-06
1.34044e-06
1.34169e-06
1.34284e-06
1.3439e-06
1.34488e-06
1.3458e-06
1.34664e-06
1.34743e-06
1.34815e-06
1.3488e-06
1.3494e-06
1.34994e-06
1.35042e-06
1.35085e-06
1.35124e-06
1.35157e-06
1.35186e-06
1.35211e-06
1.35232e-06
1.35248e-06
1.3526e-06
1.35268e-06
1.35272e-06
1.35272e-06
1.35268e-06
1.3526e-06
1.35248e-06
1.35232e-06
1.35211e-06
1.35186e-06
1.35157e-06
1.35124e-06
1.35085e-06
1.35042e-06
1.34994e-06
1.3494e-06
1.3488e-06
1.34815e-06
1.34743e-06
1.34664e-06
1.3458e-06
1.34488e-06
1.3439e-06
1.33159e-06
1.3332e-06
1.33467e-06
1.33603e-06
1.33729e-06
1.33845e-06
1.33953e-06
1.34054e-06
1.34147e-06
1.34234e-06
1.34314e-06
1.34388e-06
1.34454e-06
1.34515e-06
1.34569e-06
1.34618e-06
1.34661e-06
1.34699e-06
1.34732e-06
1.34761e-06
1.34784e-06
1.34802e-06
1.34816e-06
1.34825e-06
1.3483e-06
1.3483e-06
1.34825e-06
1.34816e-06
1.34802e-06
1.34784e-06
1.34761e-06
1.34732e-06
1.34699e-06
1.34661e-06
1.34618e-06
1.34569e-06
1.34515e-06
1.34454e-06
1.34388e-06
1.34314e-06
1.34234e-06
1.34147e-06
1.34054e-06
1.33953e-06
1.33845e-06
1.3251e-06
1.32683e-06
1.32842e-06
1.3299e-06
1.33126e-06
1.33253e-06
1.33371e-06
1.33481e-06
1.33584e-06
1.3368e-06
1.33768e-06
1.33849e-06
1.33923e-06
1.33991e-06
1.34051e-06
1.34106e-06
1.34154e-06
1.34197e-06
1.34234e-06
1.34265e-06
1.34291e-06
1.34312e-06
1.34328e-06
1.34338e-06
1.34343e-06
1.34343e-06
1.34338e-06
1.34328e-06
1.34312e-06
1.34291e-06
1.34265e-06
1.34234e-06
1.34197e-06
1.34154e-06
1.34106e-06
1.34051e-06
1.33991e-06
1.33923e-06
1.33849e-06
1.33768e-06
1.3368e-06
1.33584e-06
1.33481e-06
1.33371e-06
1.31811e-06
1.31996e-06
1.32167e-06
1.32326e-06
1.32473e-06
1.32611e-06
1.3274e-06
1.3286e-06
1.32973e-06
1.33077e-06
1.33174e-06
1.33263e-06
1.33345e-06
1.33419e-06
1.33486e-06
1.33546e-06
1.33599e-06
1.33647e-06
1.33688e-06
1.33723e-06
1.33752e-06
1.33775e-06
1.33793e-06
1.33804e-06
1.3381e-06
1.3381e-06
1.33804e-06
1.33793e-06
1.33775e-06
1.33752e-06
1.33723e-06
1.33688e-06
1.33647e-06
1.336e-06
1.33546e-06
1.33486e-06
1.33419e-06
1.33345e-06
1.33263e-06
1.33174e-06
1.33077e-06
1.32973e-06
1.3286e-06
1.3274e-06
1.31058e-06
1.31256e-06
1.31439e-06
1.3161e-06
1.31769e-06
1.31918e-06
1.32057e-06
1.32188e-06