/*--------------------------------*- C++ -*----------------------------------*\
  =========                 |
  \\      /  F ield         | OpenFOAM: The Open Source CFD Toolbox
   \\    /   O peration     | Website:  https://openfoam.org
    \\  /    A nd           | Version:  7
     \\/     M anipulation  |
\*---------------------------------------------------------------------------*/
FoamFile
{
    version     2.0;
    format      ascii;
    class       volVectorField;
    location    "148000";
    object      U;
}
// * * * * * * * * * * * * * * * * * * * * * * * * * * * * * * * * * * * * * //

dimensions      [0 1 -1 0 0 0 0];

internalField   nonuniform List<vector> 
4764
(
(-9.13573e-19 3.58814e-20 -0.01276)
(8.76895e-20 -2.75767e-19 -0.0127707)
(-4.44596e-19 2.21258e-19 -0.0127804)
(-4.60999e-19 7.07527e-19 -0.0127891)
(-8.67719e-20 -1.25536e-20 -0.0127967)
(-1.07005e-18 2.08659e-19 -0.0128032)
(-9.45228e-19 2.61454e-20 -0.0125678)
(7.60645e-20 1.75891e-19 -0.0125866)
(-4.08806e-22 3.41136e-20 -0.0126047)
(-1.21846e-18 4.96547e-19 -0.012622)
(-9.09415e-19 -1.88518e-19 -0.0126384)
(-4.87682e-19 3.30648e-19 -0.0126539)
(-6.91249e-19 1.48399e-20 -0.0126686)
(-7.42678e-19 -8.68331e-20 -0.0126823)
(-1.25153e-18 -1.64662e-19 -0.012695)
(-1.06207e-18 4.05206e-19 -0.0127068)
(-9.20739e-20 3.40588e-19 -0.0127175)
(-3.77169e-19 1.81035e-19 -0.0127272)
(-4.15238e-19 4.55285e-19 -0.0127359)
(-6.30565e-20 -8.37073e-20 -0.0127436)
(-1.08411e-18 5.90322e-19 -0.0127501)
(-7.84548e-19 4.62135e-19 -0.0127556)
(-4.07245e-19 -1.13124e-19 -0.01276)
(-8.49419e-19 5.63058e-19 -0.0127633)
(-3.8494e-19 -4.54851e-19 -0.0127655)
(-5.68267e-19 -1.00479e-19 -0.0127666)
(-1.09591e-18 7.38542e-19 -0.0127666)
(-9.08367e-19 4.72849e-19 -0.0127655)
(-1.29747e-18 9.87682e-20 -0.0127633)
(-5.59887e-19 9.05425e-19 -0.01276)
(-9.11841e-19 6.89466e-19 -0.0127556)
(-4.27216e-19 1.13146e-18 -0.0127501)
(-2.95564e-19 4.63503e-19 -0.0127436)
(-8.09052e-19 4.65379e-19 -0.0127359)
(-2.06406e-19 4.33785e-19 -0.0127272)
(-1.00719e-18 8.22057e-20 -0.0125138)
(2.10662e-19 -6.67318e-20 -0.0125327)
(1.97314e-19 -1.1571e-19 -0.0125508)
(-1.12565e-18 3.76232e-19 -0.0125681)
(-8.83437e-19 -2.77641e-19 -0.0125846)
(-4.9321e-19 4.47017e-19 -0.0126002)
(-8.99325e-19 4.2787e-19 -0.0126149)
(-6.58475e-19 -3.68488e-19 -0.0126286)
(-1.0986e-18 -4.22311e-19 -0.0126414)
(-1.14552e-18 7.85705e-19 -0.0126531)
(-2.53232e-19 7.64777e-19 -0.0126639)
(-3.94161e-19 1.66854e-19 -0.0126737)
(-3.70512e-19 2.09693e-19 -0.0126824)
(-3.30605e-20 5.0359e-20 -0.01269)
(-1.02821e-18 4.48639e-19 -0.0126966)
(-8.23833e-19 3.77767e-19 -0.0127021)
(-4.16309e-19 2.07572e-19 -0.0127065)
(-8.90599e-19 7.48993e-19 -0.0127098)
(-4.50436e-19 5.84177e-20 -0.012712)
(-5.04391e-19 3.67333e-20 -0.0127131)
(-1.0856e-18 5.99362e-19 -0.0127131)
(-9.83359e-19 3.56273e-19 -0.012712)
(-1.28291e-18 1.30132e-19 -0.0127098)
(-5.00247e-19 1.01281e-18 -0.0127065)
(-8.77336e-19 8.26971e-19 -0.0127021)
(-3.96539e-19 1.45651e-18 -0.0126966)
(-3.76725e-19 3.60249e-19 -0.01269)
(-8.53543e-19 2.75802e-19 -0.0126824)
(-2.13327e-19 3.57101e-19 -0.0126737)
(1.67253e-19 -3.12788e-20 -0.0126639)
(1.73538e-19 -7.00565e-21 -0.0126531)
(-6.67909e-20 -2.61671e-19 -0.0126414)
(5.8077e-19 7.30863e-19 -0.0126286)
(-1.11414e-18 1.89754e-19 -0.0124594)
(1.7905e-19 -9.03728e-20 -0.0124784)
(3.85872e-19 -2.45954e-19 -0.0124965)
(-1.0626e-18 3.32428e-19 -0.0125139)
(-9.12486e-19 -2.36844e-19 -0.0125304)
(-3.49753e-19 3.09487e-19 -0.012546)
(-1.01653e-18 6.36775e-19 -0.0125607)
(-8.01189e-19 -1.964e-19 -0.0125745)
(-9.89129e-19 -4.9518e-19 -0.0125873)
(-1.08713e-18 8.4178e-19 -0.0125991)
(-3.33864e-19 8.41518e-19 -0.0126099)
(-4.24102e-19 1.20492e-19 -0.0126196)
(-3.37945e-19 9.59679e-20 -0.0126284)
(-4.23658e-20 2.3576e-19 -0.012636)
(-9.15159e-19 -1.01251e-19 -0.0126426)
(-8.23695e-19 4.20294e-19 -0.0126481)
(-3.66425e-19 7.76927e-20 -0.0126526)
(-9.13427e-19 9.43007e-19 -0.0126559)
(-5.20795e-19 3.94409e-19 -0.0126581)
(-4.97355e-19 8.73876e-20 -0.0126592)
(-1.09795e-18 3.87108e-20 -0.0126592)
(-1.033e-18 1.60739e-19 -0.0126581)
(-1.22985e-18 2.80552e-19 -0.0126559)
(-4.38814e-19 1.09812e-18 -0.0126526)
(-8.4313e-19 8.78719e-19 -0.0126481)
(-4.38618e-19 1.40699e-18 -0.0126426)
(-4.80654e-19 3.41455e-19 -0.012636)
(-8.51259e-19 2.39068e-19 -0.0126284)
(-1.31843e-19 6.26813e-19 -0.0126196)
(1.19802e-19 -1.78408e-19 -0.0126099)
(1.73071e-19 -1.93829e-21 -0.0125991)
(2.16286e-20 -2.00271e-19 -0.0125873)
(5.19671e-19 4.90296e-19 -0.0125745)
(9.58813e-20 4.26746e-20 -0.0125607)
(4.14958e-19 2.49629e-19 -0.012546)
(-3.83878e-19 -3.58449e-19 -0.0125304)
(4.19799e-19 -1.2617e-19 -0.0125139)
(3.57899e-19 1.40062e-19 -0.0124965)
(4.49074e-19 1.96141e-19 -0.0124784)
(-2.6096e-19 1.8052e-19 -0.0124594)
(2.52124e-19 9.76444e-20 -0.0124397)
(7.34647e-19 7.93688e-19 -0.0124194)
(2.56471e-20 -2.25586e-19 -0.0123984)
(-4.579e-20 -1.91146e-19 -0.0123768)
(-9.17099e-19 1.21903e-19 -0.0123546)
(-1.23667e-18 3.40679e-19 -0.0124045)
(5.37804e-21 9.59878e-20 -0.0124235)
(5.10926e-19 -2.73092e-19 -0.0124417)
(-1.09612e-18 5.35261e-19 -0.0124591)
(-1.04548e-18 -2.51815e-20 -0.0124757)
(-2.29725e-19 2.14439e-19 -0.0124913)
(-9.35665e-19 4.86307e-19 -0.0125061)
(-9.97393e-19 1.25035e-19 -0.0125199)
(-1.01316e-18 -3.10495e-19 -0.0125327)
(-1.05837e-18 9.60568e-19 -0.0125445)
(-3.66469e-19 7.90015e-19 -0.0125554)
(-4.53633e-19 4.60604e-20 -0.0125652)
(-3.32606e-19 1.70159e-19 -0.0125739)
(-9.91947e-20 5.22659e-19 -0.0125816)
(-8.454e-19 -4.1685e-19 -0.0125882)
(-8.15003e-19 4.27014e-19 -0.0125937)
(-3.04774e-19 -8.12899e-20 -0.0125981)
(-8.77469e-19 9.54468e-19 -0.0126015)
(-5.8989e-19 5.29953e-19 -0.0126037)
(-5.52923e-19 1.72445e-19 -0.0126048)
(-1.12391e-18 -3.55061e-19 -0.0126048)
(-1.01452e-18 3.06085e-20 -0.0126037)
(-1.17043e-18 4.00798e-19 -0.0126015)
(-4.06042e-19 1.02858e-18 -0.0125981)
(-8.4888e-19 8.69007e-19 -0.0125937)
(-4.75803e-19 1.41195e-18 -0.0125882)
(-5.27794e-19 3.97428e-19 -0.0125816)
(-7.79709e-19 3.68503e-19 -0.0125739)
(-5.92549e-20 9.31324e-19 -0.0125652)
(9.868e-20 -1.25678e-19 -0.0125554)
(9.97655e-20 -2.80426e-19 -0.0125445)
(6.26874e-20 -1.88584e-19 -0.0125327)
(4.34206e-19 1.91308e-19 -0.0125199)
(9.72969e-20 -3.10093e-20 -0.0125061)
(5.04913e-19 4.63429e-19 -0.0124913)
(-4.13691e-19 -3.45014e-19 -0.0124757)
(3.80136e-19 -3.90401e-19 -0.0124591)
(3.25552e-19 1.99786e-20 -0.0124417)
(1.64784e-19 -2.35916e-19 -0.0124235)
(-2.20737e-19 2.52335e-19 -0.0124045)
(4.39157e-19 2.98586e-19 -0.0123848)
(5.42222e-19 6.18634e-19 -0.0123643)
(-9.99423e-20 -2.7248e-19 -0.0123433)
(1.4945e-19 8.99341e-20 -0.0123216)
(-1.03583e-18 -3.65692e-20 -0.0122994)
(-1.38775e-18 5.78988e-19 -0.0123491)
(-3.3059e-19 5.12162e-19 -0.0123682)
(5.09966e-19 -7.02247e-20 -0.0123865)
(-1.03047e-18 5.92195e-19 -0.0124039)
(-1.14507e-18 7.40756e-20 -0.0124205)
(-2.60992e-19 3.43589e-19 -0.0124362)
(-8.27146e-19 3.22716e-19 -0.012451)
(-1.07347e-18 2.41437e-19 -0.0124648)
(-9.87831e-19 -2.56576e-19 -0.0124777)
(-1.07376e-18 1.15461e-18 -0.0124895)
(-4.65208e-19 8.56615e-19 -0.0125004)
(-4.49043e-19 -8.32292e-20 -0.0125102)
(-3.193e-19 3.61128e-19 -0.012519)
(-1.8137e-19 8.29928e-19 -0.0125267)
(-8.50524e-19 -4.53439e-19 -0.0125333)
(-7.85872e-19 4.23196e-19 -0.0125388)
(-2.71529e-19 -3.07049e-20 -0.0125433)
(-8.34031e-19 8.01845e-19 -0.0125466)
(-6.40371e-19 6.13354e-19 -0.0125488)
(-6.16145e-19 2.27557e-19 -0.01255)
(-1.15581e-18 -2.84887e-19 -0.01255)
(-9.91387e-19 9.00569e-21 -0.0125488)
(-1.11342e-18 5.52942e-19 -0.0125466)
(-4.15164e-19 6.15768e-19 -0.0125433)
(-8.18326e-19 8.70949e-19 -0.0125388)
(-4.72972e-19 1.6332e-18 -0.0125333)
(-6.1795e-19 3.60317e-19 -0.0125267)
(-6.89311e-19 5.69332e-19 -0.012519)
(-1.17123e-19 7.10702e-19 -0.0125102)
(8.10805e-20 1.20474e-19 -0.0125004)
(4.54335e-21 -5.6824e-19 -0.0124895)
(1.46677e-19 -1.2575e-19 -0.0124777)
(4.28211e-19 1.30254e-19 -0.0124648)
(5.54723e-20 -2.59827e-19 -0.012451)
(5.13613e-19 4.40471e-19 -0.0124362)
(-3.87603e-19 -2.14339e-19 -0.0124205)
(4.04889e-19 -4.60027e-19 -0.0124039)
(1.83277e-19 -2.49337e-19 -0.0123865)
(4.50223e-20 -4.46959e-19 -0.0123682)
(-3.12311e-19 4.15808e-20 -0.0123491)
(5.08454e-19 3.27184e-19 -0.0123293)
(4.03747e-19 5.17863e-19 -0.0123088)
(2.93548e-20 -7.53266e-20 -0.0122877)
(4.69095e-19 5.39612e-19 -0.0122659)
(-1.0204e-18 3.3502e-20 -0.0122436)
(-1.32251e-18 5.89283e-19 -0.0122932)
(-5.30802e-19 7.18861e-19 -0.0123123)
(4.44111e-19 1.21311e-19 -0.0123307)
(-8.94716e-19 4.72643e-19 -0.0123482)
(-1.00729e-18 -2.32593e-19 -0.0123648)
(-2.62258e-19 4.23696e-19 -0.0123806)
(-8.39761e-19 3.99627e-19 -0.0123954)
(-1.09502e-18 1.82624e-19 -0.0124093)
(-9.29316e-19 -2.96597e-19 -0.0124222)
(-9.59947e-19 1.02741e-18 -0.0124341)
(-5.80274e-19 9.44848e-19 -0.0124449)
(-4.87632e-19 -8.25323e-20 -0.0124548)
(-2.61148e-19 4.65279e-19 -0.0124636)
(-2.20661e-19 8.91541e-19 -0.0124713)
(-8.94981e-19 -3.23567e-19 -0.0124779)
(-7.53127e-19 3.40547e-19 -0.0124835)
(-2.35015e-19 -1.26786e-19 -0.0124879)
(-7.70463e-19 5.00736e-19 -0.0124913)
(-6.74654e-19 5.64568e-19 -0.0124935)
(-6.70406e-19 7.48545e-20 -0.0124946)
(-1.1853e-18 -2.00765e-19 -0.0124946)
(-9.46583e-19 2.89971e-19 -0.0124935)
(-1.1114e-18 6.43115e-19 -0.0124913)
(-4.5736e-19 2.60923e-20 -0.0124879)
(-7.41186e-19 8.92214e-19 -0.0124835)
(-5.43587e-19 1.51117e-18 -0.0124779)
(-7.26402e-19 1.17167e-19 -0.0124713)
(-6.28069e-19 7.60067e-19 -0.0124636)
(-2.05577e-19 3.77643e-19 -0.0124548)
(1.12216e-19 3.9411e-19 -0.0124449)
(5.85092e-20 -3.83009e-19 -0.0124341)
(2.59693e-19 4.12874e-21 -0.0124222)
(4.60565e-19 2.57163e-19 -0.0124093)
(5.99517e-20 -3.38663e-19 -0.0123954)
(5.32963e-19 3.94691e-19 -0.0123806)
(-3.23412e-19 7.61498e-21 -0.0123648)
(6.06705e-19 -1.55378e-19 -0.0123482)
(2.68249e-19 -1.18018e-19 -0.0123307)
(1.05603e-19 -3.29928e-19 -0.0123123)
(-3.59832e-19 -9.37598e-20 -0.0122932)
(5.42812e-19 2.895e-19 -0.0122733)
(2.79264e-19 3.9769e-19 -0.0122528)
(2.24015e-19 1.51899e-19 -0.0122315)
(6.08732e-19 7.8948e-19 -0.0122097)
(-1.0577e-18 9.09806e-20 -0.0121873)
(-1.09748e-18 3.68329e-19 -0.0122367)
(-4.6252e-19 5.21028e-19 -0.0122559)
(4.54735e-19 1.98758e-19 -0.0122743)
(-7.6804e-19 2.80561e-19 -0.0122919)
(-9.34721e-19 -4.16249e-19 -0.0123086)
(-1.54912e-19 3.76776e-19 -0.0123244)
(-8.07374e-19 3.80963e-19 -0.0123393)
(-1.16557e-18 2.25212e-19 -0.0123532)
(-9.00962e-19 -2.99682e-19 -0.0123661)
(-8.1644e-19 7.95357e-19 -0.0123781)
(-6.03114e-19 8.19441e-19 -0.012389)
(-5.56818e-19 5.43041e-20 -0.0123988)
(-2.11612e-19 5.36071e-19 -0.0124077)
(-2.24959e-19 8.39592e-19 -0.0124154)
(-9.47477e-19 -1.98099e-19 -0.0124221)
(-7.45349e-19 2.74142e-19 -0.0124276)
(-2.09768e-19 -2.72662e-19 -0.0124321)
(-7.12981e-19 2.50819e-19 -0.0124354)
(-6.96805e-19 4.31136e-19 -0.0124377)
(-7.14011e-19 -1.19212e-19 -0.0124388)
(-1.16105e-18 -3.08782e-20 -0.0124388)
(-9.10434e-19 5.75535e-19 -0.0124377)
(-1.17842e-18 6.84524e-19 -0.0124354)
(-4.37977e-19 -1.92482e-20 -0.0124321)
(-6.63116e-19 8.24018e-19 -0.0124276)
(-6.56669e-19 1.27569e-18 -0.0124221)
(-8.11156e-19 -1.03419e-19 -0.0124154)
(-5.51661e-19 9.53071e-19 -0.0124077)
(-2.59941e-19 1.36193e-19 -0.0123988)
(1.61886e-19 6.27069e-19 -0.012389)
(1.31766e-19 -9.03055e-20 -0.0123781)
(3.2327e-19 3.92158e-20 -0.0123661)
(4.38404e-19 2.40827e-19 -0.0123532)
(1.46664e-19 -1.94044e-19 -0.0123393)
(5.10149e-19 2.29721e-19 -0.0123244)
(-1.96145e-19 2.5698e-19 -0.0123086)
(8.48248e-19 2.18904e-19 -0.0122919)
(3.12205e-19 2.36733e-21 -0.0122743)
(1.95452e-19 -1.24755e-19 -0.0122559)
(-1.36323e-19 2.1505e-19 -0.0122367)
(6.01585e-19 3.08097e-19 -0.0122168)
(1.76151e-19 2.80568e-19 -0.0121962)
(3.22869e-19 2.26836e-19 -0.0121749)
(5.47538e-19 8.40762e-19 -0.012153)
(-1.2675e-18 -4.73474e-20 -0.0121305)
(-8.33486e-19 8.68945e-20 -0.0121797)
(-3.94482e-19 3.71017e-19 -0.012199)
(4.40634e-19 2.9982e-19 -0.0122175)
(-6.01235e-19 4.057e-20 -0.0122351)
(-9.8269e-19 -3.0704e-19 -0.0122518)
(-3.77812e-20 2.52391e-19 -0.0122677)
(-5.90077e-19 -3.80796e-20 -0.0122826)
(-1.32585e-18 5.21393e-19 -0.0122966)
(-9.89379e-19 -5.22009e-20 -0.0123096)
(-7.04275e-19 6.31474e-19 -0.0123215)
(-6.14788e-19 7.29976e-19 -0.0123325)
(-5.91559e-19 1.14867e-19 -0.0123424)
(-1.52908e-19 5.35115e-19 -0.0123512)
(-2.301e-19 7.87743e-19 -0.012359)
(-9.71738e-19 -2.17269e-19 -0.0123657)
(-7.24303e-19 9.52173e-21 -0.0123712)
(-1.97505e-19 -3.71027e-19 -0.0123757)
(-6.69337e-19 2.44621e-19 -0.0123791)
(-7.23966e-19 3.68231e-19 -0.0123813)
(-7.33418e-19 -1.40241e-19 -0.0123824)
(-1.12797e-18 1.78247e-19 -0.0123824)
(-8.93907e-19 5.90759e-19 -0.0123813)
(-1.21761e-18 8.29763e-19 -0.0123791)
(-3.90344e-19 3.93545e-19 -0.0123757)
(-6.23635e-19 7.75371e-19 -0.0123712)
(-7.53338e-19 1.15013e-18 -0.0123657)
(-7.77867e-19 9.37127e-20 -0.012359)
(-4.86304e-19 1.1687e-18 -0.0123512)
(-2.7186e-19 8.41273e-20 -0.0123424)
(2.31206e-19 7.86348e-19 -0.0123325)
(1.75346e-19 1.43479e-19 -0.0123215)
(3.40748e-19 2.58864e-20 -0.0123096)
(3.78992e-19 9.39556e-20 -0.0122966)
(1.98064e-19 -1.10584e-19 -0.0122826)
(4.5674e-19 -1.63076e-22 -0.0122677)
(-3.59959e-20 5.20277e-19 -0.0122518)
(8.94307e-19 2.76267e-19 -0.0122351)
(1.7774e-19 -1.9687e-19 -0.0122175)
(2.27293e-19 -1.1375e-19 -0.012199)
(1.58045e-19 6.45846e-19 -0.0121797)
(6.04212e-19 3.36197e-19 -0.0121597)
(1.35868e-19 2.61345e-19 -0.012139)
(3.72018e-19 2.39191e-19 -0.0121177)
(1.62279e-19 5.32356e-19 -0.0120957)
(-1.45233e-18 -2.18884e-19 -0.0120732)
(-9.23612e-19 3.49309e-19 -0.0121222)
(-3.83538e-19 3.76355e-19 -0.0121415)
(3.63599e-19 5.05856e-19 -0.01216)
(-5.39237e-19 -1.52608e-20 -0.0121777)
(-1.03273e-18 -2.07057e-19 -0.0121945)
(2.61922e-20 1.3322e-19 -0.0122104)
(-3.59076e-19 -3.7414e-19 -0.0122254)
(-1.34572e-18 6.6851e-19 -0.0122394)
(-1.2009e-18 4.26796e-19 -0.0122524)
(-6.74675e-19 6.15938e-19 -0.0122644)
(-6.2191e-19 6.60129e-19 -0.0122754)
(-5.89209e-19 -5.44815e-21 -0.0122853)
(-1.06654e-19 5.68399e-19 -0.0122942)
(-2.15381e-19 6.49625e-19 -0.012302)
(-1.02548e-18 -2.56467e-19 -0.0123087)
(-6.96649e-19 -2.98262e-19 -0.0123143)
(-1.58066e-19 -3.6416e-19 -0.0123188)
(-6.28636e-19 2.82669e-19 -0.0123222)
(-7.57421e-19 4.26666e-19 -0.0123244)
(-7.49027e-19 -4.88968e-20 -0.0123255)
(-1.10144e-18 1.49923e-19 -0.0123255)
(-8.78867e-19 5.43018e-19 -0.0123244)
(-1.23295e-18 9.32556e-19 -0.0123222)
(-3.59534e-19 7.02553e-19 -0.0123188)
(-6.40415e-19 5.34118e-19 -0.0123143)
(-7.9888e-19 1.16044e-18 -0.0123087)
(-7.45349e-19 2.47101e-19 -0.012302)
(-4.69415e-19 1.23678e-18 -0.0122942)
(-2.40794e-19 1.97879e-19 -0.0122853)
(2.0607e-19 6.28427e-19 -0.0122754)
(1.48694e-19 2.01032e-19 -0.0122644)
(2.35956e-19 -2.65106e-19 -0.0122524)
(3.22052e-19 -4.51722e-20 -0.0122394)
(1.31589e-19 -3.07008e-19 -0.0122254)
(5.09139e-19 -5.50193e-20 -0.0122104)
(3.88256e-20 5.87921e-19 -0.0121945)
(8.45213e-19 2.41945e-19 -0.0121777)
(8.37959e-20 -3.09279e-19 -0.01216)
(1.62931e-19 -3.3635e-19 -0.0121415)
(9.06462e-20 5.0695e-19 -0.0121222)
(6.0127e-19 3.81467e-19 -0.0121021)
(1.38009e-19 2.85077e-19 -0.0120814)
(4.28833e-19 3.40837e-19 -0.0120599)
(-4.74608e-19 -5.01503e-20 -0.0120379)
(-1.45424e-18 -2.63213e-19 -0.0120153)
(-1.20043e-18 8.90939e-19 -0.0120641)
(-4.39427e-19 4.20717e-19 -0.0120834)
(3.3726e-19 6.13731e-19 -0.012102)
(-5.39973e-19 4.09945e-20 -0.0121198)
(-1.03774e-18 -2.02877e-19 -0.0121366)
(-1.25504e-20 2.07866e-19 -0.0121526)
(-3.94945e-19 -1.04125e-19 -0.0121676)
(-1.22435e-18 5.35626e-19 -0.0121817)
(-1.25244e-18 5.02569e-19 -0.0121947)
(-7.03417e-19 6.58972e-19 -0.0122068)
(-6.70612e-19 6.55754e-19 -0.0122178)
(-5.38566e-19 -2.44458e-19 -0.0122277)
(-1.27703e-19 9.23185e-19 -0.0122366)
(-2.13576e-19 5.35932e-19 -0.0122445)
(-1.06978e-18 -2.87841e-19 -0.0122512)
(-7.0857e-19 -3.02457e-19 -0.0122568)
(-1.30456e-19 -2.18516e-19 -0.0122613)
(-5.78281e-19 2.75174e-19 -0.0122647)
(-7.78283e-19 3.52735e-19 -0.0122669)
(-7.82897e-19 1.18502e-19 -0.0122681)
(-1.08574e-18 2.68432e-19 -0.0122681)
(-8.47248e-19 4.90864e-19 -0.0122669)
(-1.24268e-18 8.99822e-19 -0.0122647)
(-3.97648e-19 7.03028e-19 -0.0122613)
(-6.6966e-19 2.75436e-19 -0.0122568)
(-8.12305e-19 1.26044e-18 -0.0122512)
(-7.4567e-19 2.29391e-19 -0.0122445)
(-4.28756e-19 1.36196e-18 -0.0122366)
(-1.9586e-19 4.72976e-19 -0.0122277)
(1.02796e-19 2.15993e-19 -0.0122178)
(8.47247e-20 1.63085e-19 -0.0122068)
(2.10993e-19 -3.22761e-19 -0.0121947)
(2.89857e-19 -1.51702e-19 -0.0121817)
(7.45771e-20 -5.20591e-19 -0.0121676)
(5.25544e-19 -2.14385e-19 -0.0121526)
(-1.32067e-20 4.29154e-19 -0.0121366)
(7.47953e-19 8.8668e-20 -0.0121198)
(1.79014e-19 -6.73503e-20 -0.012102)
(1.67265e-19 -3.71815e-19 -0.0120834)
(-1.16697e-19 1.10762e-19 -0.0120641)
(6.84591e-19 4.9179e-19 -0.0120439)
(1.53834e-19 3.27036e-19 -0.0120231)
(3.51606e-19 3.52001e-19 -0.0120016)
(-8.94505e-19 -3.70939e-19 -0.0119795)
(-1.24455e-18 -1.24369e-19 -0.0119568)
(-1.24441e-18 1.07637e-18 -0.0120054)
(-5.36462e-19 4.93999e-19 -0.0120248)
(3.82972e-19 6.02065e-19 -0.0120434)
(-4.54412e-19 -7.97049e-20 -0.0120612)
(-1.0037e-18 -2.66686e-19 -0.0120782)
(-6.50252e-20 4.21502e-19 -0.0120942)
(-4.15796e-19 8.28184e-20 -0.0121092)
(-1.19995e-18 5.09191e-19 -0.0121233)
(-1.12756e-18 1.0286e-19 -0.0121364)
(-6.99613e-19 6.89613e-19 -0.0121485)
(-7.7768e-19 7.98641e-19 -0.0121596)
(-5.72866e-19 -6.06531e-20 -0.0121696)
(-1.13288e-19 1.18453e-18 -0.0121785)
(-2.67019e-19 5.16477e-19 -0.0121863)
(-1.12323e-18 -2.49221e-19 -0.0121931)
(-7.22733e-19 -1.61677e-19 -0.0121987)
(-1.17468e-19 1.88583e-20 -0.0122032)
(-5.57159e-19 2.30091e-19 -0.0122066)
(-7.73388e-19 1.07829e-20 -0.0122089)
(-7.77626e-19 2.92513e-19 -0.01221)
(-1.07867e-18 6.44174e-19 -0.01221)
(-8.43662e-19 5.3285e-19 -0.0122089)
(-1.26851e-18 7.91749e-19 -0.0122066)
(-4.43963e-19 5.5075e-19 -0.0122032)
(-6.67743e-19 1.03652e-19 -0.0121987)
(-8.1015e-19 1.40079e-18 -0.0121931)
(-7.35145e-19 2.47876e-19 -0.0121863)
(-3.77622e-19 1.41983e-18 -0.0121785)
(-2.08945e-19 6.77636e-19 -0.0121696)
(-2.87353e-21 -8.50373e-20 -0.0121596)
(6.75298e-20 1.17011e-19 -0.0121485)
(3.5282e-19 1.04882e-19 -0.0121364)
(1.98803e-19 -3.25975e-19 -0.0121233)
(5.45333e-20 -6.0306e-19 -0.0121092)
(4.4433e-19 -5.77488e-19 -0.0120942)
(-7.87871e-20 2.25168e-19 -0.0120782)
(7.60451e-19 6.5004e-20 -0.0120612)
(3.4099e-19 2.35406e-19 -0.0120434)
(2.6954e-19 -1.70798e-19 -0.0120248)
(-1.40497e-19 1.09903e-21 -0.0120054)
(8.05314e-19 6.17595e-19 -0.0119852)
(1.21372e-19 3.37266e-19 -0.0119643)
(2.55955e-19 3.60651e-19 -0.0119427)
(-9.56671e-19 -3.11979e-19 -0.0119205)
(-1.01893e-18 3.37415e-20 -0.0118978)
(-1.18684e-18 1.13394e-18 -0.0119461)
(-6.73088e-19 6.22957e-19 -0.0119656)
(3.69036e-19 6.32571e-19 -0.0119843)
(-3.47472e-19 -2.32812e-19 -0.0120021)
(-9.78175e-19 -2.32708e-19 -0.0120191)
(-1.35945e-19 6.42988e-19 -0.0120351)
(-3.19653e-19 -3.39272e-20 -0.0120503)
(-1.21723e-18 5.37976e-19 -0.0120644)
(-1.03765e-18 -2.02684e-19 -0.0120775)
(-6.0625e-19 5.7416e-19 -0.0120897)
(-8.55487e-19 9.48728e-19 -0.0121008)
(-6.85027e-19 3.76049e-19 -0.0121108)
(-6.11259e-20 1.12844e-18 -0.0121197)
(-3.05466e-19 4.78289e-19 -0.0121276)
(-1.16021e-18 -2.18244e-19 -0.0121344)
(-7.43892e-19 6.39311e-20 -0.01214)
(-1.21272e-19 2.45066e-19 -0.0121445)
(-5.79254e-19 2.89053e-19 -0.012148)
(-7.66437e-19 -1.16829e-19 -0.0121502)
(-7.27966e-19 4.89903e-19 -0.0121514)
(-1.07483e-18 9.78412e-19 -0.0121514)
(-8.65204e-19 5.13845e-19 -0.0121502)
(-1.29965e-18 7.94798e-19 -0.012148)
(-4.95172e-19 5.09793e-19 -0.0121445)
(-6.51268e-19 -6.2167e-20 -0.01214)
(-8.20636e-19 1.398e-18 -0.0121344)
(-7.5954e-19 1.49526e-19 -0.0121276)
(-3.49212e-19 1.39611e-18 -0.0121197)
(-2.73874e-19 7.13251e-19 -0.0121108)
(-5.04856e-20 -2.07383e-19 -0.0121008)
(1.20089e-19 1.53836e-19 -0.0120897)
(4.20126e-19 3.58149e-19 -0.0120775)
(1.29337e-19 -3.58482e-19 -0.0120644)
(1.86241e-19 -3.19326e-19 -0.0120503)
(4.4369e-19 -7.42516e-19 -0.0120351)
(-1.00288e-19 3.94435e-20 -0.0120191)
(8.22276e-19 7.45471e-20 -0.0120021)
(4.13061e-19 3.84907e-19 -0.0119843)
(3.011e-19 -6.73895e-20 -0.0119656)
(-8.30784e-20 1.59502e-20 -0.0119461)
(8.64489e-19 6.72502e-19 -0.0119258)
(4.6054e-20 3.0104e-19 -0.0119048)
(4.03285e-19 6.52879e-19 -0.0118832)
(-8.84765e-19 -9.89869e-20 -0.011861)
(-8.51579e-19 1.58682e-19 -0.0118382)
(-4.51456e-19 -5.80529e-19 -0.0118658)
(-1.17331e-18 1.27323e-18 -0.0118862)
(-7.49535e-19 6.6422e-19 -0.0119057)
(3.05773e-19 7.33564e-19 -0.0119245)
(-4.04243e-19 -8.76514e-20 -0.0119424)
(-9.96514e-19 -8.47793e-20 -0.0119594)
(-2.32027e-19 9.11437e-19 -0.0119755)
(-2.42991e-19 -1.36122e-19 -0.0119907)
(-1.21899e-18 5.20108e-19 -0.0120049)
(-1.10039e-18 -1.33275e-19 -0.012018)
(-5.16914e-19 5.21103e-19 -0.0120302)
(-8.69179e-19 9.99574e-19 -0.0120413)
(-7.49452e-19 5.70954e-19 -0.0120514)
(-3.11579e-20 1.08442e-18 -0.0120604)
(-3.39396e-19 4.1396e-19 -0.0120683)
(-1.18131e-18 -1.94134e-19 -0.012075)
(-7.5825e-19 3.74565e-19 -0.0120807)
(-1.28518e-19 4.77744e-19 -0.0120853)
(-6.15502e-19 4.67022e-19 -0.0120887)
(-7.6838e-19 5.33875e-20 -0.012091)
(-6.70023e-19 7.18842e-19 -0.0120921)
(-1.09654e-18 1.06879e-18 -0.0120921)
(-9.01529e-19 4.78758e-19 -0.012091)
(-1.3127e-18 9.12869e-19 -0.0120887)
(-5.41451e-19 5.5561e-19 -0.0120853)
(-5.92462e-19 1.58751e-19 -0.0120807)
(-8.77848e-19 1.1443e-18 -0.012075)
(-7.50872e-19 1.63526e-19 -0.0120683)
(-3.50956e-19 1.1624e-18 -0.0120604)
(-3.10523e-19 8.8964e-19 -0.0120514)
(-4.07555e-20 -1.28133e-19 -0.0120413)
(1.962e-19 2.4978e-19 -0.0120302)
(3.73309e-19 2.88752e-19 -0.012018)
(1.17934e-19 -3.4295e-19 -0.0120049)
(3.7918e-19 1.32607e-19 -0.0119907)
(4.1945e-19 -8.52367e-19 -0.0119755)
(-9.46567e-20 -7.001e-20 -0.0119594)
(8.59123e-19 1.20355e-20 -0.0119424)
(3.20733e-19 2.3034e-19 -0.0119245)
(2.86178e-19 -3.32843e-20 -0.0119057)
(-1.30537e-19 -1.30941e-19 -0.0118862)
(9.13122e-19 7.15861e-19 -0.0118658)
(1.09861e-20 2.69605e-19 -0.0118448)
(5.70007e-19 9.44868e-19 -0.0118231)
(-8.0126e-19 1.53206e-19 -0.0118008)
(-6.97518e-19 3.11381e-19 -0.0117779)
(-5.39946e-19 -3.67528e-19 -0.0118052)
(-1.21988e-18 1.48513e-18 -0.0118256)
(-8.20064e-19 6.8646e-19 -0.0118452)
(2.97637e-19 7.73812e-19 -0.0118641)
(-4.01822e-19 -3.70108e-20 -0.011882)
(-9.80624e-19 5.97501e-21 -0.0118991)
(-3.39819e-19 1.14647e-18 -0.0119153)
(-1.85095e-19 -2.49944e-19 -0.0119305)
(-1.16846e-18 4.35974e-19 -0.0119447)
(-1.16054e-18 -4.40974e-20 -0.0119579)
(-4.97622e-19 6.26806e-19 -0.0119701)
(-8.63281e-19 9.69067e-19 -0.0119813)
(-8.13388e-19 7.71652e-19 -0.0119914)
(-1.48628e-20 1.06558e-18 -0.0120004)
(-3.51189e-19 2.77707e-19 -0.0120083)
(-1.18989e-18 -7.99658e-20 -0.0120151)
(-7.28568e-19 4.0881e-19 -0.0120208)
(-1.41532e-19 6.38827e-19 -0.0120253)
(-6.33242e-19 3.74706e-19 -0.0120288)
(-7.67239e-19 1.84886e-19 -0.012031)
(-6.28674e-19 8.78234e-19 -0.0120322)
(-1.12866e-18 1.01952e-18 -0.0120322)
(-9.18842e-19 4.74694e-19 -0.012031)
(-1.32984e-18 9.92512e-19 -0.0120288)
(-5.66873e-19 6.47191e-19 -0.0120253)
(-5.49321e-19 4.48534e-19 -0.0120208)
(-9.60779e-19 8.54423e-19 -0.0120151)
(-7.83719e-19 -4.19914e-21 -0.0120083)
(-3.65837e-19 8.78593e-19 -0.0120004)
(-4.04235e-19 6.91997e-19 -0.0119914)
(3.93921e-20 2.0569e-19 -0.0119813)
(2.13971e-19 2.32807e-19 -0.0119701)
(3.54287e-19 3.33526e-19 -0.0119579)
(1.14902e-19 -3.83e-19 -0.0119447)
(4.17287e-19 2.35445e-19 -0.0119305)
(3.78797e-19 -9.47124e-19 -0.0119153)
(-6.1554e-21 -5.32421e-20 -0.0118991)
(8.5309e-19 -9.10127e-20 -0.011882)
(1.31559e-19 -8.75492e-20 -0.0118641)
(2.66089e-19 -1.99946e-20 -0.0118452)
(-1.7935e-19 -2.95035e-19 -0.0118256)
(9.54353e-19 7.24555e-19 -0.0118052)
(-1.12567e-19 1.24317e-19 -0.0117841)
(5.32018e-19 9.51948e-19 -0.0117623)
(-7.73967e-19 3.3406e-19 -0.01174)
(-6.26139e-19 4.05775e-19 -0.011717)
(-7.16787e-19 -2.96774e-20 -0.011744)
(-1.18284e-18 1.56125e-18 -0.0117644)
(-9.91713e-19 8.4826e-19 -0.0117841)
(3.3352e-19 7.02298e-19 -0.011803)
(-3.43579e-19 -9.6626e-20 -0.011821)
(-8.45133e-19 -9.6521e-20 -0.0118381)
(-3.0382e-19 1.07439e-18 -0.0118544)
(-2.05667e-19 -2.27984e-19 -0.0118696)
(-1.07044e-18 2.31679e-19 -0.0118839)
(-1.18504e-18 -2.7893e-20 -0.0118971)
(-4.79255e-19 7.49952e-19 -0.0119094)
(-8.46327e-19 9.57616e-19 -0.0119206)
(-8.75237e-19 9.58255e-19 -0.0119307)
(-5.00851e-20 1.14834e-18 -0.0119397)
(-3.63673e-19 1.77696e-19 -0.0119477)
(-1.19526e-18 -3.71774e-20 -0.0119545)
(-6.8627e-19 3.48029e-19 -0.0119602)
(-1.55211e-19 7.95222e-19 -0.0119648)
(-6.44889e-19 1.73555e-19 -0.0119682)
(-7.37072e-19 2.6191e-19 -0.0119705)
(-5.85919e-19 7.80808e-19 -0.0119717)
(-1.17325e-18 8.63787e-19 -0.0119717)
(-9.41031e-19 4.39388e-19 -0.0119705)
(-1.34348e-18 9.58886e-19 -0.0119682)
(-5.8822e-19 7.00369e-19 -0.0119648)
(-5.58746e-19 4.84461e-19 -0.0119602)
(-1.03442e-18 8.18098e-19 -0.0119545)
(-8.22753e-19 -2.49776e-19 -0.0119477)
(-3.46517e-19 7.64588e-19 -0.0119397)
(-4.78118e-19 4.61463e-19 -0.0119307)
(1.42784e-19 5.25686e-19 -0.0119206)
(2.00024e-19 1.55613e-19 -0.0119094)
(3.92515e-19 5.12792e-19 -0.0118971)
(1.76774e-19 -2.05357e-19 -0.0118839)
(3.93302e-19 2.00287e-19 -0.0118696)
(4.52357e-19 -8.25518e-19 -0.0118544)
(1.7496e-19 1.8362e-19 -0.0118381)
(8.01448e-19 -2.27856e-19 -0.011821)
(2.66735e-20 -2.82599e-19 -0.011803)
(1.99832e-19 -1.10742e-19 -0.0117841)
(-1.15996e-19 -2.88467e-19 -0.0117644)
(7.61916e-19 4.25016e-19 -0.011744)
(-3.52334e-19 -1.71341e-19 -0.0117228)
(5.05005e-19 9.40604e-19 -0.0117009)
(-8.33794e-19 3.96589e-19 -0.0116785)
(-6.29714e-19 4.28821e-19 -0.0116555)
(-2.19992e-18 3.5563e-19 -0.0116608)
(-9.76043e-19 3.89194e-19 -0.011682)
(-1.09811e-18 1.55043e-18 -0.0117026)
(-1.15789e-18 9.99697e-19 -0.0117223)
(3.18831e-19 6.88621e-19 -0.0117413)
(-3.32099e-19 -7.7756e-20 -0.0117593)
(-7.93553e-19 -6.93777e-20 -0.0117765)
(-2.01913e-19 8.98403e-19 -0.0117928)
(-2.17255e-19 -2.23923e-19 -0.0118081)
(-9.60008e-19 -9.15754e-21 -0.0118224)
(-1.20537e-18 5.05613e-20 -0.0118357)
(-4.91552e-19 9.48461e-19 -0.011848)
(-8.34334e-19 9.39198e-19 -0.0118592)
(-8.52631e-19 8.65589e-19 -0.0118694)
(-9.16626e-20 1.24708e-18 -0.0118784)
(-4.04396e-19 1.59985e-19 -0.0118864)
(-1.192e-18 2.13967e-20 -0.0118932)
(-6.47778e-19 4.20893e-19 -0.011899)
(-1.80188e-19 9.26743e-19 -0.0119035)
(-6.82226e-19 2.15583e-19 -0.011907)
(-7.24012e-19 4.09979e-19 -0.0119093)
(-5.64318e-19 6.06157e-19 -0.0119104)
(-1.20625e-18 4.02997e-19 -0.0119104)
(-9.51199e-19 3.0799e-19 -0.0119093)
(-1.35473e-18 9.81247e-19 -0.011907)
(-6.13788e-19 7.18872e-19 -0.0119035)
(-5.86589e-19 3.20559e-19 -0.011899)
(-1.11913e-18 7.093e-19 -0.0118932)
(-7.87168e-19 -3.56508e-20 -0.0118864)
(-3.16934e-19 6.76054e-19 -0.0118784)
(-4.47484e-19 5.61236e-19 -0.0118694)
(1.6896e-19 6.09019e-19 -0.0118592)
(1.79558e-19 7.02912e-20 -0.011848)
(4.31902e-19 6.35117e-19 -0.0118357)
(2.4368e-19 3.98371e-22 -0.0118224)
(4.12408e-19 2.76897e-19 -0.0118081)
(5.52873e-19 -6.96145e-19 -0.0117928)
(3.04418e-19 3.45065e-19 -0.0117765)
(7.61545e-19 -2.82325e-19 -0.0117593)
(1.19953e-20 -3.0114e-19 -0.0117413)
(1.11953e-19 -2.6023e-19 -0.0117223)
(-5.33305e-20 -2.45768e-19 -0.0117026)
(4.64223e-19 2.28579e-20 -0.011682)
(-5.61272e-19 -4.86536e-19 -0.0116608)
(5.83397e-19 1.02967e-18 -0.0116389)
(-9.83167e-19 3.62838e-19 -0.0116163)
(-4.61254e-19 6.35388e-19 -0.0115932)
(-2.11503e-18 2.84887e-19 -0.0115981)
(-1.13613e-18 6.4443e-19 -0.0116194)
(-1.05457e-18 1.57026e-18 -0.01164)
(-1.23645e-18 1.01862e-18 -0.0116598)
(2.74701e-19 7.12543e-19 -0.0116788)
(-2.5566e-19 -1.68037e-19 -0.011697)
(-8.59215e-19 1.9014e-19 -0.0117142)
(-1.34545e-19 7.60141e-19 -0.0117305)
(-1.89012e-19 -3.38928e-19 -0.0117459)
(-9.11935e-19 -6.79473e-20 -0.0117602)
(-1.17926e-18 6.6421e-20 -0.0117736)
(-4.98937e-19 1.12398e-18 -0.0117859)
(-8.2921e-19 8.55834e-19 -0.0117972)
(-8.16024e-19 7.23781e-19 -0.0118074)
(-9.09271e-20 1.21964e-18 -0.0118164)
(-4.2517e-19 7.04018e-20 -0.0118244)
(-1.2036e-18 1.46341e-19 -0.0118313)
(-6.03219e-19 4.18962e-19 -0.011837)
(-1.77933e-19 9.10673e-19 -0.0118416)
(-7.05544e-19 1.80018e-19 -0.0118451)
(-7.23804e-19 6.46887e-19 -0.0118474)
(-5.86467e-19 4.8271e-19 -0.0118486)
(-1.24815e-18 1.97261e-19 -0.0118486)
(-9.29018e-19 9.57254e-20 -0.0118474)
(-1.34699e-18 1.0177e-18 -0.0118451)
(-6.55231e-19 7.761e-19 -0.0118416)
(-6.33686e-19 1.74615e-19 -0.011837)
(-1.20388e-18 3.53837e-19 -0.0118313)
(-6.98221e-19 3.52449e-19 -0.0118244)
(-2.91854e-19 6.39683e-19 -0.0118164)
(-4.02177e-19 7.237e-19 -0.0118074)
(1.50508e-19 5.86384e-19 -0.0117972)
(1.51328e-19 -7.10967e-20 -0.0117859)
(4.80508e-19 7.44223e-19 -0.0117736)
(2.41396e-19 3.01163e-20 -0.0117602)
(4.56945e-19 4.2721e-19 -0.0117459)
(5.56702e-19 -7.54734e-19 -0.0117305)
(2.44571e-19 1.44982e-19 -0.0117142)
(7.6191e-19 -2.71877e-19 -0.011697)
(5.23175e-20 -2.17354e-19 -0.0116788)
(9.50264e-20 -2.90893e-19 -0.0116598)
(-3.78252e-20 -2.586e-19 -0.01164)
(4.46872e-19 5.00253e-20 -0.0116194)
(-4.70475e-19 -4.46554e-19 -0.0115981)
(6.4049e-19 1.07996e-18 -0.0115761)
(-1.21289e-18 2.03412e-19 -0.0115535)
(-2.36523e-19 9.22234e-19 -0.0115303)
(-9.20621e-19 -1.3503e-18 -0.0115126)
(-1.74362e-18 -1.37194e-19 -0.0115347)
(-1.12157e-18 6.91327e-19 -0.0115561)
(-9.96052e-19 1.55861e-18 -0.0115768)
(-1.19499e-18 8.39993e-19 -0.0115967)
(1.61649e-19 8.33256e-19 -0.0116157)
(-1.68099e-19 -2.38202e-19 -0.0116339)
(-9.24788e-19 4.49455e-19 -0.0116512)
(-1.23059e-19 6.86408e-19 -0.0116676)
(-2.01268e-19 -3.16695e-19 -0.011683)
(-9.33844e-19 6.14074e-20 -0.0116974)
(-1.16278e-18 1.18243e-19 -0.0117108)
(-4.97705e-19 1.25741e-18 -0.0117231)
(-7.80457e-19 5.85151e-19 -0.0117344)
(-8.28274e-19 7.84931e-19 -0.0117446)
(-5.28729e-20 1.00372e-18 -0.0117538)
(-4.44754e-19 2.41122e-20 -0.0117618)
(-1.20834e-18 2.96403e-19 -0.0117687)
(-5.99022e-19 6.44001e-19 -0.0117744)
(-1.71449e-19 7.29594e-19 -0.011779)
(-6.97761e-19 -2.72695e-20 -0.0117825)
(-7.18118e-19 7.60606e-19 -0.0117848)
(-6.13928e-19 4.37939e-19 -0.011786)
(-1.2824e-18 3.9791e-19 -0.011786)
(-9.12666e-19 -4.45002e-20 -0.0117848)
(-1.33175e-18 1.00886e-18 -0.0117825)
(-7.0347e-19 7.79354e-19 -0.011779)
(-6.77532e-19 2.14615e-19 -0.0117744)