/*--------------------------------*- C++ -*----------------------------------*\
  =========                 |
  \\      /  F ield         | OpenFOAM: The Open Source CFD Toolbox
   \\    /   O peration     | Website:  https://openfoam.org
    \\  /    A nd           | Version:  7
     \\/     M anipulation  |
\*---------------------------------------------------------------------------*/
FoamFile
{
    version     2.0;
    format      ascii;
    class       volVectorField;
    location    "148000";
    object      vorticity;
}
// * * * * * * * * * * * * * * * * * * * * * * * * * * * * * * * * * * * * * //

dimensions      [0 0 -1 0 0 0 0];

internalField   nonuniform List<vector> 
4764
(
(0.02831 0.00984557 4.07667e-18)
(0.028488 0.00890618 -5.48783e-18)
(0.0286475 0.00796719 -3.7059e-18)
(0.0287886 0.00702862 -8.28486e-18)
(0.0289116 0.00609049 -9.04196e-18)
(0.0290166 0.00515274 4.86052e-18)
(0.0263647 0.0186831 -4.39184e-19)
(0.0267327 0.0177263 -1.67987e-17)
(0.0270785 0.0167683 -1.74654e-17)
(0.0274023 0.0158092 -2.84159e-18)
(0.0277048 0.0148496 -1.34425e-18)
(0.0279862 0.0138897 -1.00566e-17)
(0.0282469 0.0129296 -8.74453e-18)
(0.0284874 0.0119696 4.41424e-19)
(0.028708 0.0110099 1.07127e-17)
(0.0289089 0.0100504 3.67551e-18)
(0.0290906 0.00909137 -3.9118e-18)
(0.0292533 0.00813275 -2.32278e-18)
(0.0293973 0.00717459 -7.02875e-18)
(0.0295228 0.00621692 -8.93197e-18)
(0.0296299 0.00525966 3.58661e-18)
(0.029719 0.00430278 1.13081e-20)
(0.02979 0.00334623 -2.83699e-18)
(0.0298432 0.00238996 4.96896e-18)
(0.0298786 0.00143389 -7.45304e-19)
(0.0298963 0.000477951 8.36452e-19)
(0.0298963 -0.000477948 1.11173e-17)
(0.0298786 -0.00143389 1.29536e-17)
(0.0298432 -0.00238996 1.34545e-17)
(0.02979 -0.00334623 2.96657e-18)
(0.029719 -0.00430277 7.59017e-18)
(0.0296299 -0.00525966 2.3382e-18)
(0.0295228 -0.00621691 -1.28599e-18)
(0.0293973 -0.00717459 1.23441e-18)
(0.0292533 -0.00813274 -8.84954e-18)
(0.0269293 0.0190801 3.67436e-19)
(0.0273038 0.0181014 -1.72723e-17)
(0.0276557 0.017122 -1.93161e-17)
(0.0279862 0.0161422 -3.5943e-18)
(0.028295 0.015162 -9.72661e-19)
(0.0285823 0.0141816 -1.01986e-17)
(0.0288484 0.0132011 -8.3918e-18)
(0.0290939 0.0122207 -5.10547e-19)
(0.0293191 0.0112406 8.38126e-18)
(0.0295242 0.0102609 2.56088e-18)
(0.0297096 0.00928164 -4.04598e-18)
(0.0298756 0.00830284 -1.99005e-18)
(0.0300226 0.00732456 -6.59968e-18)
(0.0301507 0.00634681 -9.82019e-18)
(0.03026 0.0053695 1.92525e-18)
(0.0303508 0.0043926 3.0191e-19)
(0.0304233 0.00341606 -3.08209e-18)
(0.0304776 0.00243983 5.06639e-18)
(0.0305138 0.00146381 -2.51555e-19)
(0.0305318 0.000487921 8.96517e-20)
(0.0305318 -0.000487918 1.01384e-17)
(0.0305138 -0.0014638 1.28464e-17)
(0.0304776 -0.00243982 1.16455e-17)
(0.0304233 -0.00341606 -1.00116e-18)
(0.0303508 -0.0043926 5.48581e-18)
(0.03026 -0.0053695 1.09504e-18)
(0.0301507 -0.0063468 -2.88267e-18)
(0.0300226 -0.00732456 -4.42079e-19)
(0.0298756 -0.00830284 -8.91167e-18)
(0.0297096 -0.00928164 -9.29102e-18)
(0.0295242 -0.0102609 -5.00413e-18)
(0.0293191 -0.0112406 -4.97078e-18)
(0.0290939 -0.0122207 -5.46846e-18)
(0.0275166 0.0194931 4.01861e-19)
(0.027896 0.0184906 -1.76752e-17)
(0.0282526 0.0174878 -2.1825e-17)
(0.0285886 0.0164857 -5.66424e-18)
(0.0289027 0.0154836 -2.06306e-18)
(0.0291951 0.0144817 -1.16122e-17)
(0.0294668 0.0134801 -7.74591e-18)
(0.0297174 0.0124787 3.58078e-19)
(0.0299472 0.0114778 7.17924e-18)
(0.0301565 0.0104773 1.49782e-18)
(0.0303458 0.00947719 -4.48524e-18)
(0.0305152 0.00847766 -1.99774e-18)
(0.0306652 0.00747869 -7.05743e-18)
(0.0307959 0.0064803 -1.09169e-17)
(0.0309075 0.00548239 3.11058e-19)
(0.0310002 0.00448492 -2.41873e-19)
(0.0310742 0.00348784 -3.69931e-18)
(0.0311295 0.00249107 4.81124e-18)
(0.0311664 0.00149455 5.08602e-19)
(0.0311848 0.000498167 -1.25799e-19)
(0.0311848 -0.000498165 9.93421e-18)
(0.0311664 -0.00149455 1.36091e-17)
(0.0311295 -0.00249107 1.13886e-17)
(0.0310742 -0.00348783 -2.79963e-18)
(0.0310002 -0.00448491 5.64409e-18)
(0.0309075 -0.00548239 2.40917e-18)
(0.0307959 -0.00648029 -2.35858e-18)
(0.0306652 -0.00747868 -9.99959e-19)
(0.0305152 -0.00847765 -8.65346e-18)
(0.0303458 -0.00947719 -8.47618e-18)
(0.0301565 -0.0104773 -5.6743e-18)
(0.0299472 -0.0114778 -6.40922e-18)
(0.0297174 -0.0124787 -7.07168e-18)
(0.0294668 -0.0134801 -1.08638e-17)
(0.0291951 -0.0144817 -2.05594e-17)
(0.0289027 -0.0154836 -6.68507e-18)
(0.0285886 -0.0164857 -1.17946e-17)
(0.0282526 -0.0174878 -7.77382e-18)
(0.027896 -0.0184906 1.42776e-18)
(0.0275166 -0.0194931 1.42443e-17)
(0.0271148 -0.0204954 4.47852e-18)
(0.0266896 -0.0214967 3.63314e-18)
(0.0262403 -0.0224965 1.71391e-18)
(0.0257669 -0.023496 5.20637e-18)
(0.0258959 -0.0238708 2.12535e-17)
(0.0281266 0.0199223 -6.62845e-20)
(0.0285119 0.0188956 -1.7715e-17)
(0.0288739 0.0178687 -2.45441e-17)
(0.0292142 0.0168426 -8.40846e-18)
(0.0295322 0.0158169 -3.23212e-18)
(0.0298285 0.0147919 -1.34263e-17)
(0.0301047 0.013768 -7.64977e-18)
(0.0303595 0.0127445 1.75026e-18)
(0.0305932 0.0117218 7.42735e-18)
(0.0308067 0.0106997 7.10134e-19)
(0.0309999 0.00967827 -4.33397e-18)
(0.0311728 0.0086574 -1.1088e-18)
(0.0313259 0.00763715 -7.54914e-18)
(0.0314593 0.00661754 -1.19021e-17)
(0.0315731 0.00559845 -6.75924e-19)
(0.0316677 0.00457983 -9.88897e-19)
(0.0317432 0.00356162 -4.53987e-18)
(0.0317997 0.00254376 4.40608e-18)
(0.0318373 0.00152615 1.48012e-18)
(0.0318561 0.000508701 2.08229e-19)
(0.0318561 -0.000508699 1.02179e-17)
(0.0318373 -0.00152615 1.4556e-17)
(0.0317997 -0.00254376 1.2158e-17)
(0.0317432 -0.00356162 -2.84799e-18)
(0.0316677 -0.00457982 6.99332e-18)
(0.0315731 -0.00559845 4.69217e-18)
(0.0314593 -0.00661754 -9.09707e-19)
(0.0313259 -0.00763715 -1.06686e-18)
(0.0311728 -0.0086574 -8.15967e-18)
(0.0309999 -0.00967827 -7.6566e-18)
(0.0308067 -0.0106997 -5.98643e-18)
(0.0305932 -0.0117218 -6.45638e-18)
(0.0303595 -0.0127445 -7.1456e-18)
(0.0301047 -0.013768 -1.31203e-17)
(0.0298285 -0.0147919 -2.29868e-17)
(0.0295322 -0.0158169 -1.05461e-17)
(0.0292142 -0.0168426 -1.81301e-17)
(0.0288739 -0.0178687 -1.09482e-17)
(0.0285119 -0.0188956 7.72494e-20)
(0.0281266 -0.0199223 1.35622e-17)
(0.0277171 -0.0209482 2.89112e-18)
(0.0272832 -0.021973 2.88714e-18)
(0.026824 -0.022996 2.74627e-18)
(0.0263393 -0.0240183 4.48757e-18)
(0.0264533 -0.0244139 1.88911e-17)
(0.0287566 0.0203656 -7.20123e-19)
(0.0291498 0.0193151 -1.74945e-17)
(0.029519 0.0182644 -2.68143e-17)
(0.0298646 0.0172139 -1.06758e-17)
(0.0301873 0.016164 -3.45029e-18)
(0.0304878 0.0151149 -1.47987e-17)
(0.0307673 0.0140671 -8.02619e-18)
(0.031025 0.0130202 3.1425e-18)
(0.0312615 0.0119742 7.90182e-18)
(0.0314784 0.0109295 -5.86963e-20)
(0.0316747 0.00988569 -3.47059e-18)
(0.0318505 0.00884262 -8.43174e-21)
(0.032006 0.00780029 -8.35558e-18)
(0.0321416 0.00675872 -1.25825e-17)
(0.0322578 0.00571784 -8.36832e-19)
(0.0323543 0.00467745 -1.61092e-18)
(0.0324313 0.00363752 -5.11464e-18)
(0.032489 0.00259795 4.09559e-18)
(0.0325274 0.00155866 2.25176e-18)
(0.0325466 0.000519536 9.00401e-19)
(0.0325466 -0.000519534 1.06563e-17)
(0.0325274 -0.00155866 1.50605e-17)
(0.032489 -0.00259795 1.30687e-17)
(0.0324313 -0.00363751 -2.69292e-18)
(0.0323543 -0.00467744 7.63974e-18)
(0.0322578 -0.00571784 6.61762e-18)
(0.0321416 -0.00675872 6.7089e-19)
(0.032006 -0.00780029 -1.0287e-18)
(0.0318505 -0.00884262 -7.83024e-18)
(0.0316747 -0.00988569 -6.77187e-18)
(0.0314784 -0.0109295 -5.79517e-18)
(0.0312615 -0.0119742 -6.27023e-18)
(0.031025 -0.0130202 -6.43174e-18)
(0.0307673 -0.0140671 -1.33859e-17)
(0.0304878 -0.0151149 -2.24807e-17)
(0.0301873 -0.016164 -9.08808e-18)
(0.0298646 -0.0172139 -1.95225e-17)
(0.029519 -0.0182644 -1.19397e-17)
(0.0291498 -0.0193151 -3.77185e-19)
(0.0287566 -0.0203656 1.28883e-17)
(0.0283382 -0.0214151 1.81035e-18)
(0.0278944 -0.0224633 2.64624e-18)
(0.0274244 -0.0235097 3.83529e-18)
(0.0269275 -0.0245548 6.03246e-18)
(0.0270266 -0.0249721 1.95873e-17)
(0.0294053 0.020822 -1.39895e-18)
(0.0298075 0.0197476 -1.6978e-17)
(0.0301849 0.0186729 -2.86513e-17)
(0.0305377 0.0175981 -1.22548e-17)
(0.0308668 0.0165241 -3.15587e-18)
(0.0311729 0.0154507 -1.61104e-17)
(0.0314564 0.0143784 -8.4943e-18)
(0.0317178 0.0133073 4.97375e-18)
(0.0319576 0.0122372 8.18295e-18)
(0.032177 0.0111686 -7.1613e-19)
(0.0323755 0.0101012 -2.45593e-18)
(0.0325532 0.00903479 1.02492e-18)
(0.0327104 0.00796935 -9.54583e-18)
(0.0328475 0.00690481 -1.31071e-17)
(0.0329655 0.00584123 -2.76839e-19)
(0.0330636 0.00477829 -1.90286e-18)
(0.0331419 0.00371588 -5.33559e-18)
(0.0332005 0.00265389 3.63756e-18)
(0.0332395 0.00159221 2.89262e-18)
(0.033259 0.000530715 1.7633e-18)
(0.033259 -0.000530713 1.09776e-17)
(0.0332395 -0.0015922 1.51509e-17)
(0.0332005 -0.00265388 1.43371e-17)
(0.0331419 -0.00371587 -2.51955e-18)
(0.0330636 -0.00477828 7.60904e-18)
(0.0329655 -0.00584123 8.37498e-18)
(0.0328475 -0.00690481 1.90853e-18)
(0.0327104 -0.00796934 -9.69045e-19)
(0.0325532 -0.00903478 -7.73109e-18)
(0.0323755 -0.0101012 -6.2751e-18)
(0.032177 -0.0111686 -5.15396e-18)
(0.0319576 -0.0122372 -6.16302e-18)
(0.0317178 -0.0133073 -5.73823e-18)
(0.0314564 -0.0143784 -1.21101e-17)
(0.0311729 -0.0154507 -2.07161e-17)
(0.0308668 -0.016524 -5.57651e-18)
(0.0305377 -0.0175981 -1.7755e-17)
(0.0301849 -0.0186729 -1.14529e-17)
(0.0298075 -0.0197476 -8.57435e-20)
(0.0294053 -0.020822 1.26532e-17)
(0.0289771 -0.0218955 1.05896e-18)
(0.0285227 -0.0229674 2.42416e-18)
(0.0280413 -0.0240375 4.65209e-18)
(0.0275319 -0.0251057 8.66225e-18)
(0.0276163 -0.0255459 2.10076e-17)
(0.0300724 0.0212914 -2.10318e-18)
(0.0304842 0.0201926 -1.65205e-17)
(0.0308705 0.0190934 -3.0194e-17)
(0.0312314 0.0179942 -1.33606e-17)
(0.031568 0.0168956 -2.92195e-18)
(0.0318808 0.0157977 -1.74715e-17)
(0.03217 0.0147007 -9.13506e-18)
(0.0324365 0.0136051 6.57652e-18)
(0.0326809 0.0125106 8.63902e-18)
(0.0329035 0.0114174 -1.30494e-18)
(0.0331047 0.0103256 -1.48054e-18)
(0.0332849 0.00923499 2.19641e-18)
(0.0334442 0.00814554 -1.09942e-17)
(0.0335831 0.00705711 -1.36771e-17)
(0.0337024 0.00596973 6.0168e-19)
(0.0338015 0.00488322 -1.73514e-18)
(0.0338806 0.00379737 -5.19263e-18)
(0.0339399 0.00271203 3.22987e-18)
(0.0339793 0.00162707 3.56232e-18)
(0.033999 0.000542331 2.56682e-18)
(0.033999 -0.000542329 1.08093e-17)
(0.0339793 -0.00162707 1.47823e-17)
(0.0339399 -0.00271203 1.5751e-17)
(0.0338806 -0.00379737 -2.12496e-18)
(0.0338015 -0.00488322 7.54919e-18)
(0.0337024 -0.00596973 9.97996e-18)
(0.0335831 -0.0070571 2.69326e-18)
(0.0334442 -0.00814554 -1.21637e-18)
(0.0332849 -0.00923499 -7.97294e-18)
(0.0331047 -0.0103256 -6.12209e-18)
(0.0329035 -0.0114174 -4.25674e-18)
(0.0326809 -0.0125106 -5.7737e-18)
(0.0324365 -0.0136051 -5.35926e-18)
(0.03217 -0.0147007 -1.14237e-17)
(0.0318808 -0.0157977 -2.00778e-17)
(0.031568 -0.0168956 -3.78945e-18)
(0.0312314 -0.0179942 -1.67015e-17)
(0.0308705 -0.0190934 -1.09998e-17)
(0.0304842 -0.0201926 -6.00963e-20)
(0.0300724 -0.0212914 1.2687e-17)
(0.029634 -0.0223892 8.61179e-19)
(0.0291685 -0.0234855 2.67924e-18)
(0.0286753 -0.0245798 4.52579e-18)
(0.028153 -0.0256718 1.08398e-17)
(0.028223 -0.0261358 2.15542e-17)
(0.0307583 0.021774 -3.1983e-18)
(0.0311801 0.0206501 -1.6513e-17)
(0.0315757 0.0195259 -3.14234e-17)
(0.0319453 0.0184017 -1.46974e-17)
(0.0322898 0.017278 -2.88012e-18)
(0.0326099 0.0161551 -1.82688e-17)
(0.0329057 0.0150332 -9.69655e-18)
(0.0331783 0.0139125 7.71137e-18)
(0.0334281 0.012793 9.33864e-18)
(0.0336552 0.0116748 -1.55758e-18)
(0.0338603 0.0105581 -7.16891e-19)
(0.034044 0.0094427 3.36435e-18)
(0.0342064 0.00832855 -1.25023e-17)
(0.0343479 0.00721549 -1.42217e-17)
(0.0344688 0.00610348 1.48552e-18)
(0.0345693 0.00499247 -1.03756e-18)
(0.0346494 0.00388223 -4.90459e-18)
(0.0347094 0.00277259 2.83514e-18)
(0.0347494 0.00166338 4.29998e-18)
(0.0347693 0.000554431 3.28654e-18)
(0.0347693 -0.000554429 1.02917e-17)
(0.0347494 -0.00166338 1.39211e-17)
(0.0347094 -0.00277259 1.69133e-17)
(0.0346494 -0.00388223 -1.52231e-18)
(0.0345693 -0.00499247 7.82516e-18)
(0.0344688 -0.00610347 1.14642e-17)
(0.0343479 -0.00721548 3.13447e-18)
(0.0342064 -0.00832855 -1.46214e-18)
(0.034044 -0.0094427 -8.40598e-18)
(0.0338603 -0.0105581 -6.36947e-18)
(0.0336552 -0.0116748 -3.27919e-18)
(0.0334281 -0.012793 -5.21514e-18)
(0.0331783 -0.0139125 -5.09174e-18)
(0.0329057 -0.0150332 -1.15096e-17)
(0.0326099 -0.0161551 -2.00328e-17)
(0.0322898 -0.017278 -2.99374e-18)
(0.0319453 -0.0184017 -1.6348e-17)
(0.0315757 -0.0195259 -1.09094e-17)
(0.0311801 -0.0206501 -6.23845e-19)
(0.0307583 -0.021774 1.25294e-17)
(0.0303092 -0.0228968 1.09242e-18)
(0.0298324 -0.0240181 3.05327e-18)
(0.0293271 -0.0251372 4.02497e-18)
(0.0287918 -0.0262537 1.2592e-17)
(0.0288473 -0.0267427 2.17523e-17)
(0.0314636 0.0222702 -4.98556e-18)
(0.0318958 0.0211207 -1.66254e-17)
(0.032301 0.0199707 -3.23837e-17)
(0.0326796 0.0188208 -1.59135e-17)
(0.0330325 0.0176715 -2.53768e-18)
(0.0333602 0.0165229 -1.8841e-17)
(0.0336632 0.0153753 -1.06538e-17)
(0.0339422 0.014229 7.91191e-18)
(0.0341978 0.013084 1.01101e-17)
(0.0344301 0.0119402 -1.43131e-18)
(0.0346399 0.010798 2.58798e-20)
(0.0348276 0.00965712 4.21618e-18)
(0.0349936 0.00851757 -1.39979e-17)
(0.0351382 0.00737917 -1.43805e-17)
(0.0352615 0.00624184 2.30111e-18)
(0.0353639 0.00510557 -1.64892e-19)
(0.0354456 0.00397013 -4.78073e-18)
(0.0355068 0.00283534 2.40641e-18)
(0.0355475 0.00170102 4.91158e-18)
(0.0355678 0.000566974 3.85835e-18)
(0.0355678 -0.000566972 9.75386e-18)
(0.0355475 -0.00170101 1.28785e-17)
(0.0355068 -0.00283534 1.74485e-17)
(0.0354456 -0.00397013 -9.4121e-19)
(0.0353639 -0.00510557 8.46248e-18)
(0.0352615 -0.00624184 1.27534e-17)
(0.0351382 -0.00737916 3.23314e-18)
(0.0349936 -0.00851756 -1.7046e-18)
(0.0348276 -0.00965712 -8.67694e-18)
(0.0346399 -0.010798 -6.85237e-18)
(0.0344301 -0.0119402 -2.27103e-18)
(0.0341978 -0.013084 -4.71141e-18)
(0.0339422 -0.014229 -4.7229e-18)
(0.0336632 -0.0153753 -1.20845e-17)
(0.0333602 -0.0165229 -2.04538e-17)
(0.0330325 -0.0176715 -3.05587e-18)
(0.0326796 -0.0188208 -1.62363e-17)
(0.032301 -0.0199707 -1.09043e-17)
(0.0318958 -0.0211207 -1.50245e-18)
(0.0314636 -0.0222702 1.18484e-17)
(0.0310037 -0.0234188 1.33357e-18)
(0.0305153 -0.0245658 3.35264e-18)
(0.0299975 -0.0257105 4.25232e-18)
(0.029449 -0.0268524 1.41006e-17)
(0.0294901 -0.0273673 2.10814e-17)
(0.0321894 0.0227808 -7.0501e-18)
(0.0326321 0.0216047 -1.62834e-17)
(0.0330471 0.0204283 -3.30095e-17)
(0.033435 0.019252 -1.67297e-17)
(0.0337964 0.0180762 -2.20271e-18)
(0.0341322 0.0169013 -1.99934e-17)
(0.0344425 0.0157274 -1.16185e-17)
(0.0347283 0.0145547 7.88601e-18)
(0.03499 0.0133835 1.07588e-17)
(0.0352279 0.0122135 -1.18657e-18)
(0.0354427 0.011045 1.31979e-18)
(0.0356348 0.00987799 4.40306e-18)
(0.0358047 0.00871232 -1.57622e-17)
(0.0359527 0.00754785 -1.40162e-17)
(0.0360788 0.0063845 2.95398e-18)
(0.0361835 0.00522222 4.7636e-19)
(0.036267 0.00406081 -4.77223e-18)
(0.0363295 0.00290009 2.00413e-18)
(0.0363711 0.00173986 5.38666e-18)
(0.0363919 0.00057992 4.18429e-18)
(0.0363919 -0.000579918 9.3378e-18)
(0.0363711 -0.00173985 1.18202e-17)
(0.0363295 -0.00290009 1.77783e-17)
(0.036267 -0.00406081 -7.66705e-20)
(0.0361835 -0.00522222 9.04157e-18)
(0.0360788 -0.00638449 1.40015e-17)
(0.0359527 -0.00754785 3.1735e-18)
(0.0358047 -0.00871231 -2.09513e-18)
(0.0356348 -0.00987799 -8.37305e-18)
(0.0354427 -0.011045 -7.41463e-18)
(0.0352279 -0.0122135 -1.33784e-18)
(0.03499 -0.0133835 -4.38458e-18)
(0.0347283 -0.0145547 -4.37826e-18)
(0.0344425 -0.0157274 -1.28679e-17)
(0.0341322 -0.0169013 -2.15312e-17)
(0.0337965 -0.0180762 -3.29856e-18)
(0.033435 -0.019252 -1.64938e-17)
(0.0330471 -0.0204283 -1.02782e-17)
(0.0326321 -0.0216047 -2.14849e-18)
(0.0321894 -0.0227808 1.063e-17)
(0.0317183 -0.0239559 1.10029e-18)
(0.031218 -0.0251294 3.5765e-18)
(0.0306877 -0.0263006 4.99886e-18)
(0.0301258 -0.0274687 1.59029e-17)
(0.0301522 -0.0280105 1.97691e-17)
(0.0329367 0.0233064 -9.08602e-18)
(0.0333901 0.022103 -1.54896e-17)
(0.0338152 0.0208993 -3.3692e-17)
(0.0342125 0.0196958 -1.73035e-17)
(0.0345828 0.0184928 -2.23878e-18)
(0.0349266 0.0172907 -2.12637e-17)
(0.0352446 0.0160897 -1.21809e-17)
(0.0355373 0.01489 8.203e-18)
(0.0358053 0.0136916 1.13567e-17)
(0.036049 0.0124947 -1.39083e-18)
(0.036269 0.0112993 2.90808e-18)
(0.0364658 0.0101053 4.20388e-18)
(0.0366398 0.0089128 -1.75281e-17)
(0.0367913 0.00772152 -1.31985e-17)
(0.0369203 0.0065314 3.53409e-18)
(0.0370275 0.00534236 7.0651e-19)
(0.037113 0.00415422 -4.885e-18)
(0.037177 0.00296679 1.6547e-18)
(0.0372196 0.00177987 5.65719e-18)
(0.0372409 0.000593256 4.20674e-18)
(0.0372409 -0.000593254 9.09e-18)
(0.0372196 -0.00177987 1.09169e-17)
(0.037177 -0.00296679 1.81649e-17)
(0.037113 -0.00415422 9.0956e-19)
(0.0370275 -0.00534235 9.26696e-18)
(0.0369204 -0.00653139 1.5046e-17)
(0.0367913 -0.00772152 3.1068e-18)
(0.0366398 -0.0089128 -2.4652e-18)
(0.0364658 -0.0101053 -7.11027e-18)
(0.036269 -0.0112993 -7.86463e-18)
(0.036049 -0.0124947 -1.00204e-18)
(0.0358053 -0.0136916 -4.13904e-18)
(0.0355373 -0.01489 -4.09964e-18)
(0.0352446 -0.0160897 -1.28868e-17)
(0.0349266 -0.0172907 -2.29358e-17)
(0.0345828 -0.0184928 -3.86478e-18)
(0.0342125 -0.0196958 -1.71791e-17)
(0.0338152 -0.0208993 -9.44982e-18)
(0.0333901 -0.022103 -2.30609e-18)
(0.0329367 -0.0233064 8.99901e-18)
(0.0324541 -0.0245089 4.49655e-19)
(0.0319418 -0.0257098 4.4886e-18)
(0.0313985 -0.0269083 5.80733e-18)
(0.030823 -0.0281036 1.75404e-17)
(0.0308346 -0.0286732 1.81937e-17)
(0.0337066 0.0238479 -1.13261e-17)
(0.0341709 0.0226163 -1.46126e-17)
(0.0346063 0.0213844 -3.43859e-17)
(0.0350132 0.0201528 -1.78289e-17)
(0.0353925 0.0189217 -2.81956e-18)
(0.0357447 0.0176916 -2.22882e-17)
(0.0360704 0.0164627 -1.24236e-17)
(0.0363702 0.0152351 8.70426e-18)
(0.0366447 0.0140089 1.18313e-17)
(0.0368944 0.0127842 -2.0977e-18)
(0.0371197 0.011561 4.22594e-18)
(0.0373213 0.0103394 4.08003e-18)
(0.0374994 0.0091192 -1.89658e-17)
(0.0376546 0.00790032 -1.21667e-17)
(0.0377868 0.00668263 3.903e-18)
(0.0378966 0.00546605 3.20057e-19)
(0.0379841 0.00425039 -4.73062e-18)
(0.0380497 0.00303547 1.64126e-18)
(0.0380933 0.00182107 5.6001e-18)
(0.0381151 0.000606988 3.76951e-18)
(0.0381151 -0.000606986 8.98629e-18)
(0.0380933 -0.00182107 1.04031e-17)
(0.0380497 -0.00303546 1.86944e-17)
(0.0379841 -0.00425039 1.89875e-18)
(0.0378966 -0.00546604 9.12896e-18)
(0.0377868 -0.00668262 1.57183e-17)
(0.0376546 -0.00790031 2.87385e-18)
(0.0374994 -0.0091192 -2.58244e-18)
(0.0373213 -0.0103394 -5.31879e-18)
(0.0371197 -0.011561 -8.16666e-18)
(0.0368944 -0.0127842 -1.48715e-18)
(0.0366447 -0.0140089 -4.00811e-18)
(0.0363702 -0.0152351 -3.75751e-18)
(0.0360704 -0.0164627 -1.23233e-17)
(0.0357447 -0.0176916 -2.39437e-17)
(0.0353925 -0.0189217 -4.85957e-18)
(0.0350132 -0.0201528 -1.8335e-17)
(0.0346063 -0.0213844 -8.93609e-18)
(0.0341709 -0.0226163 -2.10478e-18)
(0.0337066 -0.0238479 7.25279e-18)
(0.0332124 -0.0250787 -7.77737e-20)
(0.0326876 -0.0263079 5.81098e-18)
(0.0321312 -0.0275347 6.88845e-18)
(0.0315418 -0.0287582 1.90692e-17)
(0.0315383 -0.0293565 1.70883e-17)
(0.0339942 0.0256662 -4.02803e-20)
(0.0345003 0.0244062 -1.3568e-17)
(0.0349759 0.0231454 -1.3832e-17)
(0.0354217 0.0218844 -3.47971e-17)
(0.0358385 0.0206237 -1.85439e-17)
(0.0362269 0.0193637 -4.24216e-18)
(0.0365876 0.0181047 -2.30099e-17)
(0.0369212 0.0168469 -1.23399e-17)
(0.0372283 0.0155906 9.02609e-18)
(0.0375094 0.0143357 1.2848e-17)
(0.0377651 0.0130824 -3.05965e-18)
(0.0379959 0.0118306 4.86808e-18)
(0.0382024 0.0105805 4.27319e-18)
(0.0383848 0.00933177 -2.00454e-17)
(0.0385437 0.00808445 -1.11911e-17)
(0.0386792 0.00683837 4.03236e-18)
(0.0387916 0.00559343 -4.97941e-19)
(0.0388813 0.00434943 -4.49861e-18)
(0.0389484 0.00310619 1.80827e-18)
(0.038993 0.0018635 5.42647e-18)
(0.0390153 0.00062113 3.10501e-18)
(0.0390153 -0.000621127 9.18289e-18)
(0.038993 -0.00186349 1.04654e-17)
(0.0389484 -0.00310619 1.91656e-17)
(0.0388813 -0.00434943 2.56502e-18)
(0.0387916 -0.00559342 8.92202e-18)
(0.0386792 -0.00683837 1.61536e-17)
(0.0385437 -0.00808445 2.36997e-18)
(0.0383848 -0.00933177 -2.62609e-18)
(0.0382024 -0.0105805 -3.22544e-18)
(0.0379959 -0.0118306 -8.29803e-18)
(0.0377651 -0.0130824 -2.25399e-18)
(0.0375094 -0.0143357 -3.68899e-18)
(0.0372283 -0.0155906 -3.87443e-18)
(0.0369212 -0.0168469 -1.1417e-17)
(0.0365876 -0.0181047 -2.40296e-17)
(0.0362269 -0.0193637 -5.93212e-18)
(0.0358385 -0.0206237 -1.97292e-17)
(0.0354217 -0.0218844 -8.66452e-18)
(0.0349759 -0.0231454 -1.61992e-18)
(0.0345003 -0.0244062 5.00927e-18)
(0.0339942 -0.0256662 -6.34854e-19)
(0.0334567 -0.0269246 6.67852e-18)
(0.0328869 -0.0281806 7.29188e-18)
(0.0322833 -0.0294333 2.08739e-17)
(0.0322644 -0.0300613 1.66058e-17)
(0.0348008 0.0262723 -1.8359e-18)
(0.0353191 0.0249821 -1.55558e-17)
(0.0358062 0.0236911 -1.29904e-17)
(0.0362628 0.0224001 -3.51785e-17)
(0.0366896 0.0211094 -1.91836e-17)
(0.0370874 0.0198195 -6.06277e-18)
(0.0374568 0.0185306 -2.29995e-17)
(0.0377984 0.0172431 -1.16069e-17)
(0.0381129 0.015957 8.99994e-18)
(0.0384008 0.0146726 1.4015e-17)
(0.0386627 0.0133897 -4.25264e-18)
(0.038899 0.0121085 4.99791e-18)
(0.0391104 0.0108289 4.54423e-18)
(0.0392973 0.00955082 -2.0786e-17)
(0.0394599 0.00827419 -1.03787e-17)
(0.0395987 0.00699885 3.89668e-18)
(0.0397138 0.00572468 -1.32479e-18)
(0.0398057 0.00445148 -4.35441e-18)
(0.0398744 0.00317907 2.15721e-18)
(0.0399201 0.00190721 5.19145e-18)
(0.039943 0.000635701 2.43108e-18)
(0.039943 -0.000635698 9.80791e-18)
(0.0399201 -0.00190721 1.08332e-17)
(0.0398744 -0.00317906 1.92651e-17)
(0.0398057 -0.00445148 3.01423e-18)
(0.0397138 -0.00572467 8.75597e-18)
(0.0395987 -0.00699885 1.64791e-17)
(0.0394599 -0.00827419 1.9837e-18)
(0.0392973 -0.00955082 -2.84425e-18)
(0.0391104 -0.0108289 -1.57316e-18)
(0.038899 -0.0121085 -8.25725e-18)
(0.0386627 -0.0133897 -2.96926e-18)
(0.0384008 -0.0146726 -3.32137e-18)
(0.0381129 -0.015957 -4.16568e-18)
(0.0377984 -0.0172431 -1.04578e-17)
(0.0374568 -0.0185306 -2.3542e-17)
(0.0370874 -0.0198195 -7.28009e-18)
(0.0366896 -0.0211094 -2.11462e-17)
(0.0362628 -0.0224001 -8.52442e-18)
(0.0358062 -0.0236911 -1.25318e-18)
(0.0353191 -0.0249821 2.51887e-18)
(0.0348008 -0.0262723 -1.6463e-18)
(0.0342504 -0.0275609 6.97235e-18)
(0.0336668 -0.0288472 7.42824e-18)
(0.0330486 -0.0301301 2.26365e-17)
(0.033014 -0.0307887 1.6428e-17)
(0.0356335 0.026898 -3.50379e-18)
(0.0361644 0.0255765 -1.74367e-17)
(0.0366632 0.0242544 -1.20196e-17)
(0.0371308 0.0229323 -3.49374e-17)
(0.0375679 0.0216106 -1.96897e-17)
(0.0379753 0.0202897 -8.06956e-18)
(0.0383536 0.0189701 -2.27773e-17)
(0.0387034 0.0176518 -1.07834e-17)
(0.0390254 0.0163351 9.09852e-18)
(0.0393202 0.01502 1.48888e-17)
(0.0395884 0.0137067 -5.82335e-18)
(0.0398304 0.012395 4.92441e-18)
(0.0400469 0.0110851 4.92325e-18)
(0.0402382 0.00977672 -2.1144e-17)
(0.0404048 0.00846985 -9.63071e-18)
(0.0405468 0.00716433 3.96648e-18)
(0.0406648 0.00586001 -2.25538e-18)
(0.0407588 0.0045567 -4.25501e-18)
(0.0408292 0.0032542 2.68094e-18)
(0.040876 0.00195229 4.49504e-18)
(0.0408994 0.000650724 1.75282e-18)
(0.0408994 -0.000650721 1.06458e-17)
(0.040876 -0.00195228 1.11716e-17)
(0.0408292 -0.0032542 1.92502e-17)
(0.0407588 -0.0045567 3.43199e-18)
(0.0406648 -0.00586 8.47976e-18)
(0.0405468 -0.00716432 1.70869e-17)
(0.0404048 -0.00846984 1.91094e-18)
(0.0402382 -0.00977671 -3.23158e-18)
(0.0400469 -0.0110851 -6.32312e-19)
(0.0398304 -0.012395 -8.15689e-18)
(0.0395884 -0.0137067 -3.62129e-18)
(0.0393202 -0.01502 -3.14568e-18)
(0.0390254 -0.0163351 -4.01177e-18)
(0.0387034 -0.0176518 -9.54063e-18)
(0.0383536 -0.0189701 -2.32668e-17)
(0.0379753 -0.0202897 -8.80812e-18)
(0.0375679 -0.0216106 -2.19228e-17)
(0.0371308 -0.0229323 -8.10666e-18)
(0.0366632 -0.0242544 -1.25693e-18)
(0.0361644 -0.0255765 2.68404e-19)
(0.0356335 -0.026898 -2.64862e-18)
(0.0350698 -0.0282179 6.90209e-18)
(0.0344721 -0.0295355 7.49389e-18)
(0.033839 -0.0308497 2.3996e-17)
(0.0337883 -0.0315399 1.62955e-17)
(0.0359164 0.0288966 2.78121e-17)
(0.0364938 0.0275443 -4.69938e-18)
(0.0370375 0.0261906 -1.90211e-17)
(0.0375484 0.0248362 -1.09671e-17)
(0.0380273 0.0234819 -3.43985e-17)
(0.0384749 0.0221281 -2.02457e-17)
(0.0388921 0.0207753 -1.02467e-17)
(0.0392795 0.0194238 -2.27201e-17)
(0.0396377 0.0180737 -9.82913e-18)
(0.0399674 0.0167253 9.32794e-18)
(0.0402693 0.0153787 1.50688e-17)
(0.0405439 0.0140338 -7.33624e-18)
(0.0407917 0.0126908 5.13383e-18)
(0.0410133 0.0113495 5.1697e-18)
(0.0412092 0.0100098 -2.14138e-17)
(0.0413797 0.00867174 -8.8298e-18)
(0.0415252 0.00733507 4.22118e-18)
(0.041646 0.00599964 -3.35552e-18)
(0.0417423 0.00466526 -4.37492e-18)
(0.0418143 0.00333172 3.28486e-18)
(0.0418623 0.00199879 3.87031e-18)
(0.0418862 0.000666224 1.3759e-18)
(0.0418862 -0.000666221 1.14905e-17)
(0.0418623 -0.00199879 1.115e-17)
(0.0418143 -0.00333172 1.92176e-17)
(0.0417423 -0.00466526 3.89488e-18)
(0.041646 -0.00599964 8.12087e-18)
(0.0415252 -0.00733507 1.76855e-17)
(0.0413797 -0.00867174 2.09365e-18)
(0.0412092 -0.0100098 -3.90792e-18)
(0.0410133 -0.0113495 -2.66117e-19)
(0.0407917 -0.0126908 -7.81545e-18)
(0.0405439 -0.0140338 -4.42581e-18)
(0.0402693 -0.0153787 -3.37807e-18)
(0.0399674 -0.0167253 -3.62329e-18)
(0.0396377 -0.0180737 -8.06841e-18)
(0.0392795 -0.0194238 -2.31865e-17)
(0.0388921 -0.0207753 -1.03608e-17)
(0.0384749 -0.0221281 -2.18746e-17)
(0.0380273 -0.0234819 -7.28383e-18)
(0.0375484 -0.0248362 -1.59252e-18)
(0.0370375 -0.0261906 -1.60106e-18)
(0.0364938 -0.0275443 -3.07828e-18)
(0.0359164 -0.0288966 6.13672e-18)
(0.0353041 -0.0302466 6.80536e-18)
(0.0346557 -0.0315933 2.51977e-17)
(0.0345885 -0.0323162 1.59606e-17)
(0.0367915 0.0295983 2.57027e-17)
(0.037383 0.0282124 -5.31446e-18)
(0.0379399 0.0268252 -2.03304e-17)
(0.0384632 0.0254374 -9.52209e-18)
(0.0389537 0.0240498 -3.37934e-17)
(0.0394122 0.0226629 -2.14562e-17)
(0.0398394 0.021277 -1.20482e-17)
(0.0402361 0.0198925 -2.25432e-17)
(0.0406029 0.0185096 -9.03795e-18)
(0.0409406 0.0171285 9.44361e-18)
(0.0412496 0.0157492 1.4546e-17)
(0.0415308 0.0143717 -8.64936e-18)
(0.0417845 0.0129962 5.9837e-18)
(0.0420114 0.0116225 5.48249e-18)
(0.042212 0.0102506 -2.15799e-17)
(0.0423865 0.00888023 -8.0475e-18)
(0.0425355 0.00751138 4.35771e-18)
(0.0426591 0.00614382 -4.35393e-18)
(0.0427577 0.00477736 -4.75756e-18)
(0.0428315 0.00341177 3.72507e-18)
(0.0428805 0.00204681 3.48227e-18)
(0.0429051 0.000682227 1.40461e-18)
(0.0429051 -0.000682224 1.24256e-17)
(0.0428805 -0.0020468 1.06711e-17)
(0.0428315 -0.00341176 1.89395e-17)
(0.0427577 -0.00477736 4.6895e-18)
(0.0426591 -0.00614382 8.02007e-18)
(0.0425355 -0.00751137 1.77544e-17)
(0.0423865 -0.00888023 1.93084e-18)
(0.042212 -0.0102506 -4.58106e-18)
(0.0420114 -0.0116225 -7.77617e-20)
(0.0417845 -0.0129962 -6.98609e-18)
(0.0415308 -0.0143717 -5.36366e-18)
(0.0412496 -0.0157492 -4.31782e-18)
(0.0409406 -0.0171285 -3.18107e-18)
(0.0406029 -0.0185096 -6.41055e-18)
(0.0402361 -0.0198925 -2.29533e-17)
(0.0398394 -0.021277 -1.17605e-17)
(0.0394122 -0.0226629 -2.20532e-17)
(0.0389537 -0.0240498 -6.23153e-18)
(0.0384632 -0.0254374 -1.7133e-18)
(0.0379399 -0.0268252 -3.14251e-18)
(0.037383 -0.0282124 -3.08123e-18)
(0.0367915 -0.0295983 4.92455e-18)
(0.0361644 -0.0309818 6.05331e-18)
(0.0355001 -0.032362 2.65023e-17)
(0.035416 -0.0331187 1.59606e-17)
(0.0370542 0.0317423 2.68054e-17)
(0.0376967 0.0303239 2.49016e-17)
(0.0383027 0.0289033 -5.90592e-18)
(0.0388732 0.0274815 -2.13173e-17)
(0.0394092 0.0260592 -8.02378e-18)
(0.0399116 0.0246371 -3.3439e-17)
(0.0403813 0.0232158 -2.28763e-17)
(0.0408188 0.0217957 -1.36824e-17)
(0.0412251 0.0203771 -2.18714e-17)
(0.0416007 0.0189602 -8.55059e-18)
(0.0419465 0.0175452 9.24406e-18)
(0.0422629 0.0161321 1.36754e-17)
(0.0425508 0.014721 -9.88598e-18)
(0.0428106 0.0133119 7.4592e-18)
(0.0430429 0.0119047 5.66683e-18)
(0.0432482 0.0104993 -2.15451e-17)
(0.0434269 0.00909567 -7.61899e-18)
(0.0435794 0.00769356 4.22661e-18)
(0.043706 0.0062928 -5.06576e-18)
(0.0438069 0.00489318 -4.99292e-18)
(0.0438824 0.00349447 3.98477e-18)
(0.0439327 0.00209642 3.28199e-18)
(0.0439578 0.000698762 1.47038e-18)
(0.0439578 -0.000698759 1.33716e-17)
(0.0439327 -0.00209641 1.00086e-17)
(0.0438824 -0.00349447 1.83956e-17)
(0.0438069 -0.00489318 5.7766e-18)
(0.043706 -0.00629279 8.42752e-18)
(0.0435794 -0.00769355 1.74807e-17)
(0.0434269 -0.00909567 1.40028e-18)
(0.0432482 -0.0104993 -5.19304e-18)
(0.0430429 -0.0119047 -5.91034e-20)
(0.0428106 -0.0133119 -5.62575e-18)
(0.0425508 -0.014721 -6.24431e-18)
(0.0422629 -0.0161321 -5.77033e-18)
(0.0419465 -0.0175452 -2.96925e-18)
(0.0416007 -0.0189602 -4.77171e-18)
(0.0412251 -0.0203771 -2.22367e-17)
(0.0408188 -0.0217957 -1.30732e-17)
(0.0403813 -0.0232158 -2.28618e-17)
(0.0399117 -0.0246371 -5.23253e-18)
(0.0394092 -0.0260592 -1.31989e-18)
(0.0388732 -0.0274815 -4.55667e-18)
(0.0383027 -0.0289033 -3.34271e-18)
(0.0376967 -0.030324 4.05111e-18)
(0.0370542 -0.0317423 6.11228e-18)
(0.0363737 -0.0331573 2.81029e-17)
(0.0362723 -0.0339489 1.56858e-17)
(0.0379752 0.0325294 2.60828e-17)
(0.0386336 0.031075 2.4602e-17)
(0.0392545 0.0296184 -7.23585e-18)
(0.039839 0.0281606 -2.20893e-17)
(0.0403882 0.0267025 -7.05916e-18)
(0.0409028 0.0252447 -3.33762e-17)
(0.0413839 0.0237878 -2.39825e-17)
(0.0418321 0.0223323 -1.49788e-17)
(0.0422482 0.0208784 -2.12137e-17)
(0.0426329 0.0194263 -8.33413e-18)
(0.0429869 0.0179762 9.22006e-18)
(0.043311 0.0165281 1.25435e-17)
(0.0436057 0.0150822 -1.07464e-17)
(0.0438717 0.0136383 9.11909e-18)
(0.0441096 0.0121965 5.6904e-18)
(0.0443198 0.0107566 -2.12474e-17)
(0.0445027 0.00931845 -7.67357e-18)
(0.0446588 0.00788193 3.76599e-18)
(0.0447884 0.00644684 -5.20755e-18)
(0.0448917 0.00501294 -4.66516e-18)
(0.044969 0.00357998 3.94392e-18)
(0.0450205 0.00214771 2.82381e-18)
(0.0450462 0.000715858 1.28809e-18)
(0.0450462 -0.000715855 1.43331e-17)
(0.0450205 -0.00214771 9.48015e-18)
(0.044969 -0.00357998 1.76206e-17)
(0.0448917 -0.00501293 6.92292e-18)
(0.0447884 -0.00644684 9.19315e-18)
(0.0446588 -0.00788193 1.69921e-17)
(0.0445027 -0.00931845 6.94306e-19)
(0.0443198 -0.0107566 -5.65734e-18)
(0.0441096 -0.0121965 -2.07778e-19)
(0.0438717 -0.0136383 -4.02418e-18)
(0.0436057 -0.0150822 -6.77515e-18)