/*--------------------------------*- C++ -*----------------------------------*\
  =========                 |
  \\      /  F ield         | OpenFOAM: The Open Source CFD Toolbox
   \\    /   O peration     | Website:  https://openfoam.org
    \\  /    A nd           | Version:  7
     \\/     M anipulation  |
\*---------------------------------------------------------------------------*/
FoamFile
{
    version     2.0;
    format      ascii;
    class       volScalarField;
    location    "152000";
    object      strainRate;
}
// * * * * * * * * * * * * * * * * * * * * * * * * * * * * * * * * * * * * * //

dimensions      [0 0 -1 0 0 0 0];

internalField   nonuniform List<scalar> 
4838
(
0.0019702
0.0018639
0.00178815
0.00169103
0.00158408
0.00147272
0.00135955
0.00124602
0.00113316
0.001022
0.000913798
0.000810131
0.000712845
0.000623781
0.000544437
0.000475696
0.000417681
0.00036982
0.000331356
0.00030116
0.000277953
0.000260522
0.00024824
0.000240455
0.000236683
0.000236683
0.000240455
0.00024824
0.000260521
0.000277952
0.000301159
0.000331355
0.000369818
0.000417679
0.000475693
0.000544434
0.000623777
0.000712841
0.000810128
0.000913794
0.001022
0.00113316
0.00124602
0.00135955
0.00147272
0.00158407
0.00169103
0.00178814
0.0018639
0.00197019
0.00256939
0.00224434
0.00214894
0.00204379
0.00192959
0.00181021
0.00168889
0.00156782
0.00144845
0.00133179
0.00121866
0.0011099
0.00100645
0.000909397
0.000819843
0.000738788
0.000666958
0.000604694
0.000551972
0.000508455
0.000473544
0.000446527
0.000426854
0.000414052
0.000407752
0.000407752
0.000414052
0.000426854
0.000446526
0.000473543
0.000508453
0.000551969
0.000604692
0.000666955
0.000738785
0.000819839
0.000909394
0.00100645
0.0011099
0.00121865
0.00133178
0.00144844
0.00156781
0.00168888
0.00181021
0.00192959
0.00204378
0.00214894
0.00224433
0.00256938
0.00295377
0.00255353
0.00242619
0.00231059
0.0021969
0.00208208
0.00196621
0.00185036
0.00173572
0.00162329
0.00151389
0.00140821
0.00130691
0.00121066
0.00112023
0.00103641
0.000959965
0.000891547
0.000831629
0.000780481
0.00073818
0.000704641
0.000679701
0.000663194
0.000654982
0.000654982
0.000663194
0.0006797
0.00070464
0.000738179
0.00078048
0.000831627
0.000891545
0.000959962
0.00103641
0.00112023
0.00121066
0.0013069
0.00140821
0.00151389
0.00162329
0.00173571
0.00185035
0.0019662
0.00208208
0.0021969
0.00231059
0.00242618
0.00255353
0.00295377
0.0032541
0.00285865
0.00271499
0.00258553
0.00246499
0.00234901
0.00223535
0.00212338
0.00201331
0.00190565
0.00180102
0.00169998
0.00160307
0.00151081
0.00142372
0.00134238
0.00126738
0.00119931
0.00113872
0.0010861
0.00104183
0.00100619
0.000979344
0.000961402
0.000952419
0.000952419
0.000961402
0.000979343
0.00100619
0.00104183
0.0010861
0.00113872
0.00119931
0.00126738
0.00134238
0.00142372
0.00151081
0.00160307
0.00169998
0.00180101
0.00190565
0.0020133
0.00212338
0.00223534
0.002349
0.00246499
0.00258553
0.00271499
0.00285864
0.0032541
0.00353105
0.00315029
0.00300502
0.00286885
0.00274173
0.0026217
0.00250676
0.00239564
0.00228782
0.00218324
0.00208217
0.00198498
0.00189206
0.00180385
0.00172075
0.0016432
0.00157166
0.00150658
0.00144844
0.00139768
0.00135473
0.00131993
0.00129359
0.00127591
0.00126703
0.00126703
0.00127591
0.00129359
0.00131993
0.00135473
0.00139768
0.00144844
0.00150658
0.00157166
0.0016432
0.00172075
0.00180384
0.00189206
0.00198497
0.00208217
0.00218324
0.00228781
0.00239564
0.00250676
0.00262169
0.00274173
0.00286884
0.00300502
0.00315028
0.00353105
0.0037985
0.0034308
0.00328843
0.00315152
0.0030215
0.00289837
0.00278131
0.00266942
0.00256203
0.00245885
0.00235984
0.00226517
0.0021751
0.00208995
0.00201005
0.00193576
0.00186745
0.00180547
0.0017502
0.00170201
0.00166124
0.00162821
0.00160319
0.00158639
0.00157795
0.00157795
0.00158639
0.00160319
0.00162821
0.00166124
0.00170201
0.0017502
0.00180547
0.00186744
0.00193576
0.00201005
0.00208994
0.0021751
0.00226517
0.00235984
0.00245885
0.00256203
0.00266941
0.00278131
0.00289837
0.0030215
0.00315152
0.00328843
0.0034308
0.0037985
0.00405983
0.00370367
0.00356447
0.00342926
0.00329921
0.00317499
0.00305664
0.00294385
0.00283622
0.00273347
0.00263547
0.00254227
0.00245401
0.00237091
0.00229324
0.00222129
0.00215536
0.00209575
0.00204277
0.00199669
0.00195781
0.00192637
0.00190258
0.00188663
0.00187862
0.00187862
0.00188662
0.00190258
0.00192637
0.00195781
0.00199669
0.00204276
0.00209575
0.00215536
0.00222129
0.00229324
0.00237091
0.002454
0.00254227
0.00263547
0.00273347
0.00283622
0.00294385
0.00305664
0.00317499
0.00329921
0.00342925
0.00356447
0.00370367
0.00405983
0.00431648
0.003971
0.00383444
0.00370141
0.00357265
0.00344883
0.00333033
0.00321723
0.00310944
0.00300685
0.00290938
0.00281703
0.0027299
0.00264814
0.00257197
0.00250162
0.00243735
0.00237939
0.00232801
0.00228345
0.00224592
0.00221564
0.00219276
0.00217743
0.00216974
0.00216974
0.00217743
0.00219276
0.00221564
0.00224592
0.00228345
0.00232801
0.00237939
0.00243735
0.00250162
0.00257197
0.00264814
0.00272989
0.00281703
0.00290938
0.00300685
0.00310944
0.00321723
0.00333033
0.00344883
0.00357265
0.00370141
0.00383444
0.003971
0.00431648
0.00456941
0.004234
0.0040996
0.00396861
0.00384151
0.00371882
0.00360095
0.00348817
0.00338061
0.00327829
0.00318124
0.0030895
0.00300316
0.00292234
0.00284723
0.002778
0.00271489
0.0026581
0.00260785
0.00256434
0.00252776
0.00249828
0.00247604
0.00246115
0.00245369
0.00245369
0.00246115
0.00247604
0.00249828
0.00252776
0.00256434
0.00260785
0.0026581
0.00271489
0.002778
0.00284722
0.00292234
0.00300316
0.0030895
0.00318124
0.00327829
0.00338061
0.00348817
0.00360095
0.00371882
0.00384151
0.00396861
0.0040996
0.004234
0.00456941
0.0048193
0.00449343
0.00436086
0.00423166
0.00410619
0.00398486
0.00386802
0.003756
0.003649
0.00354719
0.00345065
0.00335948
0.0032738
0.00319372
0.00311942
0.00305105
0.00298882
0.0029329
0.00288348
0.00284075
0.00280486
0.00277597
0.00275419
0.00273961
0.00273231
0.00273231
0.00273961
0.00275419
0.00277597
0.00280486
0.00284075
0.00288348
0.0029329
0.00298882
0.00305105
0.00311942
0.00319372
0.00327379
0.00335948
0.00345065
0.00354719
0.003649
0.003756
0.00386802
0.00398486
0.00410619
0.00423166
0.00436086
0.00449343
0.0048193
0.00506664
0.00474984
0.00461885
0.00449122
0.00436725
0.00424727
0.00413161
0.00402055
0.00391435
0.00381321
0.0037173
0.00362676
0.00354171
0.00346231
0.0033887
0.00332105
0.00325954
0.00320432
0.00315557
0.00311345
0.0030781
0.00304966
0.00302824
0.0030139
0.00300672
0.00300672
0.0030139
0.00302824
0.00304966
0.0030781
0.00311345
0.00315557
0.00320432
0.00325954
0.00332105
0.0033887
0.00346231
0.00354171
0.00362676
0.0037173
0.00381321
0.00391435
0.00402055
0.00413161
0.00424727
0.00436725
0.00449122
0.00461885
0.00474984
0.00506665
0.00531187
0.00500364
0.00487404
0.00474779
0.00462518
0.00450648
0.00439197
0.00428194
0.00417665
0.00407631
0.00398111
0.00389124
0.00380686
0.0037281
0.00365514
0.00358814
0.00352725
0.00347264
0.00342446
0.00338285
0.00334796
0.0033199
0.00329876
0.00328463
0.00327755
0.00327755
0.00328463
0.00329876
0.0033199
0.00334796
0.00338285
0.00342446
0.00347264
0.00352725
0.00358814
0.00365514
0.0037281
0.00380686
0.00389125
0.00398112
0.00407631
0.00417665
0.00428195
0.00439197
0.00450648
0.00462518
0.00474779
0.00487404
0.00500364
0.00531187
0.00555529
0.00525518
0.00512682
0.0050018
0.0048804
0.00476286
0.00464946
0.00454045
0.00443608
0.00433657
0.00424214
0.00415298
0.00406927
0.00399116
0.00391882
0.00385242
0.00379211
0.00373804
0.00369037
0.00364922
0.00361473
0.00358699
0.00356611
0.00355215
0.00354516
0.00354516
0.00355215
0.00356611
0.00358699
0.00361473
0.00364922
0.00369037
0.00373804
0.00379211
0.00385242
0.00391882
0.00399116
0.00406927
0.00415299
0.00424215
0.00433657
0.00443608
0.00454045
0.00464946
0.00476287
0.0048804
0.0050018
0.00512682
0.00525519
0.0055553
0.00579722
0.00550477
0.00537749
0.00525357
0.00513326
0.00501678
0.0049044
0.00479635
0.00469287
0.0045942
0.00450054
0.0044121
0.00432906
0.00425159
0.00417986
0.00411403
0.00405426
0.0040007
0.00395349
0.00391275
0.00387862
0.00385118
0.00383052
0.00381672
0.0038098
0.0038098
0.00381672
0.00383052
0.00385118
0.00387862
0.00391275
0.00395349
0.0040007
0.00405426
0.00411403
0.00417986
0.00425159
0.00432906
0.0044121
0.00450055
0.0045942
0.00469288
0.00479635
0.0049044
0.00501678
0.00513326
0.00525358
0.0053775
0.00550477
0.00579722
0.00603789
0.00575267
0.00562636
0.00550341
0.00538406
0.00526854
0.00515709
0.00504993
0.0049473
0.00484943
0.00475652
0.00466878
0.00458639
0.00450954
0.00443839
0.00437311
0.00431386
0.00426077
0.00421399
0.00417364
0.00413983
0.00411266
0.00409221
0.00407855
0.0040717
0.0040717
0.00407855
0.00409221
0.00411266
0.00413983
0.00417364
0.00421399
0.00426077
0.00431386
0.00437311
0.00443839
0.00450954
0.00458639
0.00466878
0.00475652
0.00484943
0.0049473
0.00504993
0.00515709
0.00526855
0.00538407
0.00550342
0.00562637
0.00575267
0.0060379
0.00627755
0.00599913
0.00587368
0.00575159
0.0056331
0.00551843
0.00540781
0.00530147
0.00519962
0.00510249
0.00501029
0.00492322
0.00484146
0.0047652
0.00469461
0.00462986
0.00457108
0.00451844
0.00447206
0.00443207
0.00439856
0.00437164
0.00435138
0.00433784
0.00433107
0.00433107
0.00433784
0.00435138
0.00437164
0.00439856
0.00443207
0.00447206
0.00451844
0.00457109
0.00462986
0.00469461
0.0047652
0.00484146
0.00492322
0.00501029
0.0051025
0.00519962
0.00530147
0.00540781
0.00551843
0.0056331
0.00575159
0.00587368
0.00599914
0.00627756
0.00651641
0.00624439
0.00611968
0.00599834
0.00588061
0.0057667
0.00565682
0.00555121
0.00545008
0.00535364
0.00526209
0.00517564
0.00509448
0.00501878
0.00494871
0.00488445
0.00482613
0.0047739
0.00472789
0.00468823
0.004655
0.00462831
0.00460823
0.00459481
0.00458809
0.00458809
0.00459481
0.00460823
0.00462831
0.00465501
0.00468823
0.0047279
0.0047739
0.00482613
0.00488445
0.00494871
0.00501878
0.00509448
0.00517564
0.00526209
0.00535364
0.00545008
0.00555122
0.00565683
0.0057667
0.00588061
0.00599834
0.00611968
0.00624439
0.00651641
0.00675466
0.00648866
0.00636459
0.0062439
0.00612683
0.00601358
0.00590437
0.00579941
0.00569892
0.0056031
0.00551215
0.00542627
0.00534566
0.00527047
0.0052009
0.00513709
0.00507919
0.00502735
0.00498169
0.00494232
0.00490936
0.00488288
0.00486296
0.00484965
0.00484298
0.00484298
0.00484965
0.00486296
0.00488288
0.00490936
0.00494233
0.00498169
0.00502735
0.00507919
0.00513709
0.0052009
0.00527048
0.00534566
0.00542628
0.00551215
0.0056031
0.00569892
0.00579942
0.00590437
0.00601358
0.00612683
0.00624391
0.00636459
0.00648866
0.00675466
0.00699249
0.00673214
0.00660862
0.00648849
0.00637198
0.00625931
0.00615067
0.00604629
0.00594636
0.0058511
0.00576069
0.00567533
0.00559521
0.0055205
0.00545137
0.00538798
0.00533047
0.00527898
0.00523364
0.00519456
0.00516183
0.00513554
0.00511577
0.00510255
0.00509594
0.00509594
0.00510255
0.00511577
0.00513554
0.00516183
0.00519456
0.00523364
0.00527898
0.00533047
0.00538798
0.00545138
0.00552051
0.00559522
0.00567534
0.00576069
0.0058511
0.00594637
0.00604629
0.00615068
0.00625931
0.00637199
0.00648849
0.00660862
0.00673215
0.0069925
0.00685196
0.0067323
0.00661627
0.00650409
0.00639595
0.00629207
0.00619263
0.00609786
0.00600793
0.00592303
0.00584336
0.00576908
0.00570035
0.00563733
0.00558018
0.00552901
0.00548396
0.00544513
0.00541261
0.0053865
0.00536686
0.00535374
0.00534717
0.00534717
0.00535374
0.00536686
0.00538651
0.00541262
0.00544513
0.00548396
0.00552901
0.00558018
0.00563734
0.00570035
0.00576908
0.00584336
0.00592304
0.00600793
0.00609786
0.00619264
0.00629207
0.00639596
0.00650409
0.00661628
0.00673231
0.00685197
0.00697505
0.00723009
0.00697553
0.0068599
0.00674813
0.00664041
0.00653694
0.00643794
0.00634358
0.00625407
0.00616958
0.0060903
0.00601639
0.00594803
0.00588535
0.00582851
0.00577763
0.00573284
0.00569423
0.00566192
0.00563597
0.00561644
0.0056034
0.00559687
0.00559687
0.0056034
0.00561645
0.00563597
0.00566192
0.00569424
0.00573284
0.00577763
0.00582851
0.00588536
0.00594803
0.0060164
0.0060903
0.00616958
0.00625407
0.00634358
0.00643794
0.00653695
0.00664041
0.00674813
0.00685991
0.00697555
0.00709483
0.00721755
0.00746762
0.00699162
0.00688424
0.00678112
0.00668247
0.00658847
0.00649931
0.00641518
0.00633624
0.00626266
0.00619461
0.00613223
0.00607567
0.00602504
0.00598048
0.00594208
0.00590994
0.00588413
0.00586471
0.00585174
0.00584525
0.00584525
0.00585174
0.00586471
0.00588413
0.00590994
0.00594208
0.00598048
0.00602505
0.00607567
0.00613224
0.00619461
0.00626266
0.00633624
0.00641518
0.00649932
0.00658848
0.00668248
0.00678113
0.00688424
0.00699163
0.00710307
0.00721839
0.00733738
0.00745982
0.00770524
0.00712763
0.00702479
0.00692643
0.00683272
0.00674386
0.00666001
0.00658136
0.00650807
0.00644029
0.00637817
0.00632185
0.00627145
0.00622708
0.00618886
0.00615687
0.00613118
0.00611186
0.00609896
0.0060925
0.0060925
0.00609896
0.00611186
0.00613118
0.00615687
0.00618886
0.00622709
0.00627145
0.00632185
0.00637817
0.00644029
0.00650807
0.00658137
0.00666002
0.00674386
0.00683273
0.00692644
0.0070248
0.00712764
0.00723475
0.00734595
0.00746103
0.0075798
0.00770205
0.00794311
0.00726814
0.00716999
0.00707652
0.00698789
0.00690429
0.00682587
0.00675281
0.00668526
0.00662335
0.00656724
0.00651703
0.00647283
0.00643476
0.0064029
0.00637732
0.00635808
0.00634523
0.0063388
0.0063388
0.00634524
0.00635809
0.00637733
0.00640291
0.00643477
0.00647284
0.00651703
0.00656724
0.00662336
0.00668526
0.00675282
0.00682588
0.00690429
0.0069879
0.00707653
0.00717
0.00726815
0.00737077
0.00747769
0.00758871
0.00770363
0.00782227
0.0079444
0.00818138
0.00732004
0.00723159
0.00714817
0.00706994
0.00699707
0.0069297
0.00686797
0.00681202
0.00676197
0.00671792
0.00667998
0.00664823
0.00662274
0.00660357
0.00659077
0.00658436
0.00658436
0.00659077
0.00660357
0.00662274
0.00664823
0.00667999
0.00671793
0.00676198
0.00681203
0.00686798
0.00692971
0.00699708
0.00706995
0.00714818
0.0072316
0.00732005
0.00741336
0.00751135
0.00761383
0.00772062
0.00783153
0.00794637
0.00806494
0.00818702
0.00842021
0.00747514
0.00739185
0.00731376
0.00724103
0.0071738
0.00711221
0.00705639
0.00700646
0.00696253
0.00692469
0.00689303
0.00686761
0.0068485
0.00683574
0.00682935
0.00682935
0.00683574
0.0068485
0.00686762
0.00689303
0.0069247
0.00696254
0.00700647
0.0070564
0.00711222
0.0071738
0.00724104
0.00731377
0.00739186
0.00747515
0.00756348
0.00765668
0.00775457
0.00785697
0.0079637
0.00807457
0.00818939
0.00830797
0.00843009
0.00865974
0.00741772
0.00735623
0.00730051
0.00725068
0.00720684
0.00716908
0.00713748
0.00711213
0.00709306
0.00708032
0.00707395
0.00707395
0.00708032
0.00709306
0.00711213
0.00713749
0.00716908
0.00720684
0.00725069
0.00730052
0.00735624
0.00741773
0.00748487
0.00755751
0.00763551
0.00771872
0.00780698
0.00790013
0.00799798
0.00810037
0.0082071
0.008318
0.00843287
0.00855153
0.00867376
0.0089001
0.00745101
0.00741331
0.00738177
0.00735645
0.00733741
0.0073247
0.00731834
0.00731834
0.0073247
0.00733742
0.00735645
0.00738177
0.00741332
0.00745102
0.0074948
0.00754458
0.00760023
0.00766166
0.00772874
0.00780133
0.00787929
0.00796247
0.00805072
0.00814387
0.00824175
0.00834418
0.00845098
0.00856197
0.00867696
0.00879577
0.00891817
0.00914144
0.00762605
0.00760076
0.00758174
0.00756904
0.00756269
0.00756269
0.00756905
0.00758175
0.00760076
0.00762605
0.00765757
0.00769524
0.00773899
0.00778873
0.00784436
0.00790576
0.00797282
0.0080454
0.00812337
0.00820658
0.00829486
0.00838807
0.00848602
0.00858856
0.00869549
0.00880664
0.00892181
0.00904083
0.00916347
0.0093839
0.00780717
0.00780717
0.00781352
0.00782621
0.00784522
0.0078705
0.00790201
0.00793967
0.00798341
0.00803314
0.00808877
0.00815019
0.00821727
0.00828989
0.00836791
0.00845118
0.00853956
0.00863287
0.00873097
0.00883366
0.00894078
0.00905215
0.00916757
0.00928686
0.00940982
0.00962761
0.00811528
0.00814679
0.00818446
0.00822822
0.00827798
0.00833365
0.00839511
0.00846225
0.00853495
0.00861306
0.00869645
0.00878497
0.00887845
0.00897673
0.00907964
0.00918701
0.00929865
0.00941439
0.00953402
0.00965734
0.0098727
0.00847359
0.0085234
0.00857914
0.00864068
0.00870792
0.00878073
0.00885899
0.00894254
0.00903124
0.00912493
0.00922346
0.00932664
0.00943432
0.0095463
0.0096624
0.00978244
0.0099062
0.0101193
0.00882539
0.00888705
0.00895443
0.0090274
0.00910583
0.00918959
0.00927852
0.00937248
0.0094713
0.00957482
0.00968285
0.00979522
0.00991176
0.0100323
0.0101565
0.0103676
0.00907257
0.00913437
0.00920192
0.00927509
0.00935374
0.00943775
0.00952697
0.00962124
0.00972041
0.0098243
0.00993275
0.0100456
0.0101626
0.0102836
0.0104084
0.0106176
0.00932082
0.0093828
0.00945055
0.00952395
0.00960287
0.00968718
0.00977672
0.00987136
0.00997092
0.0100752
0.0101842
0.0102975
0.0104151
0.0105367
0.0106621
0.0108696
0.00977414
0.00985337
0.00993801
0.0100279
0.010123
0.010223
0.0103278
0.0104372
0.0105511
0.0106693
0.0107916
0.0109177
0.0111236
0.0104767
0.0105821
0.0106921
0.0108066
0.0109254
0.0110484
0.0111753
0.0113798
0.0110641
0.0111836
0.0113073
0.011435
0.0116383
0.000248244
0.000240458
0.000236687
0.000236687
0.000240458
0.000248243
0.000260524
0.000277955
0.000301163
0.000331359
0.000369822
0.000417684
0.000475699
0.00054444
0.000623784
0.000712848
0.000810135
0.000913801
0.00102201
0.00113317
0.00124603
0.00135956
0.00147272
0.00158408
0.00169103
0.00178815
0.0018639
0.0019702
0.00042686
0.000414059
0.000407758
0.000407758
0.000414058
0.00042686
0.000446533
0.00047355
0.00050846
0.000551977
0.000604699
0.000666963
0.000738793
0.000819847
0.000909401
0.00100646
0.0011099
0.00121866
0.00133179
0.00144845
0.00156782
0.00168889
0.00181022
0.00192959
0.00204379
0.00214894
0.00224434
0.00256939
0.000679709
0.000663203
0.00065499
0.00065499
0.000663202
0.000679708
0.000704648
0.000738187
0.000780488
0.000831635
0.000891554
0.000959971
0.00103642
0.00112024
0.00121067
0.00130691
0.00140822
0.0015139
0.00162329
0.00173572
0.00185036
0.00196621
0.00208208
0.0021969
0.00231059
0.00242619
0.00255353
0.00295378
0.000979353
0.000961411
0.000952428
0.000952428
0.000961411
0.000979352
0.0010062
0.00104184
0.00108611
0.00113873
0.00119932
0.00126739
0.00134239
0.00142373
0.00151081
0.00160307
0.00169998
0.00180102
0.00190565
0.00201331
0.00212338
0.00223535
0.00234901
0.002465
0.00258553
0.00271499
0.00285865
0.0032541
0.0012936
0.00127592
0.00126704
0.00126704
0.00127592
0.0012936
0.00131994
0.00135474
0.00139769
0.00144845
0.00150659
0.00157167
0.00164321
0.00172075
0.00180385
0.00189207
0.00198498
0.00208218
0.00218325
0.00228782
0.00239565
0.00250676
0.0026217
0.00274173
0.00286885
0.00300502
0.00315029
0.00353105
0.0016032
0.0015864
0.00157796
0.00157796
0.0015864
0.0016032
0.00162822
0.00166125
0.00170201
0.00175021
0.00180547
0.00186745
0.00193577
0.00201005
0.00208995
0.0021751
0.00226518
0.00235985
0.00245885
0.00256203
0.00266942
0.00278131
0.00289837
0.0030215
0.00315152
0.00328843
0.0034308
0.00379851
0.00190259
0.00188663
0.00187862
0.00187862
0.00188663
0.00190259
0.00192637
0.00195782
0.0019967
0.00204277
0.00209576
0.00215537
0.00222129
0.00229324
0.00237091
0.00245401
0.00254227
0.00263548
0.00273347
0.00283622
0.00294385
0.00305665
0.00317499
0.00329921
0.00342926
0.00356447
0.00370367
0.00405983
0.00219277
0.00217744
0.00216975
0.00216975
0.00217744
0.00219277
0.00221564
0.00224593
0.00228345
0.00232802
0.0023794
0.00243735
0.00250163
0.00257198
0.00264815
0.0027299
0.00281703
0.00290938
0.00300685
0.00310944
0.00321723
0.00333033
0.00344883
0.00357265
0.00370141
0.00383444
0.003971
0.00431648
0.00247605
0.00246116
0.00245369
0.00245369
0.00246116
0.00247605
0.00249829
0.00252777
0.00256434
0.00260785
0.0026581
0.00271489
0.00277801
0.00284723
0.00292235
0.00300316
0.0030895
0.00318124
0.00327829
0.00338061
0.00348817
0.00360095
0.00371882
0.00384151
0.00396861
0.0040996
0.004234
0.00456941
0.00275419
0.00273962
0.00273231
0.00273231
0.00273962
0.00275419
0.00277598
0.00280487
0.00284075
0.00288349
0.0029329
0.00298882
0.00305106
0.00311942
0.00319373
0.0032738
0.00335948
0.00345065
0.00354719
0.00364901
0.003756
0.00386802
0.00398486
0.00410619
0.00423166
0.00436086
0.00449343
0.0048193
0.00302824
0.00301391
0.00300673
0.00300673
0.00301391
0.00302824
0.00304967
0.00307811
0.00311345
0.00315557
0.00320432
0.00325954
0.00332106
0.0033887
0.00346231
0.00354171
0.00362676
0.0037173
0.00381321
0.00391435
0.00402055
0.00413161
0.00424727
0.00436725
0.00449122
0.00461885
0.00474984
0.00506665
0.00329877
0.00328463
0.00327755
0.00327755
0.00328463
0.00329877
0.0033199
0.00334796
0.00338286
0.00342446
0.00347264
0.00352725
0.00358814
0.00365515
0.0037281
0.00380686
0.00389125
0.00398112
0.00407631
0.00417665
0.00428194
0.00439197
0.00450648
0.00462518
0.00474779
0.00487404
0.00500364
0.00531187
0.00356611
0.00355215
0.00354516
0.00354516
0.00355215
0.00356611
0.00358699
0.00361473
0.00364922
0.00369037
0.00373804
0.00379211
0.00385242
0.00391882
0.00399116
0.00406927
0.00415298
0.00424214
0.00433657
0.00443608
0.00454045
0.00464946
0.00476286
0.0048804
0.0050018
0.00512681
0.00525518
0.00555529
0.00383052
0.00381672
0.0038098
0.0038098
0.00381671
0.00383052
0.00385118
0.00387862
0.00391275
0.00395349
0.0040007
0.00405426
0.00411403
0.00417985
0.00425158
0.00432906
0.0044121
0.00450054
0.0045942
0.00469287
0.00479635
0.0049044
0.00501678
0.00513325
0.00525357
0.00537749
0.00550477
0.00579722
0.00417363
0.00421399
0.00426077
0.00431385
0.00437311
0.00443839
0.00450953
0.00458638
0.00466877
0.00475652
0.00484943
0.0049473
0.00504993
0.00515709
0.00526854
0.00538406
0.00550341
0.00562636
0.00575267
0.00603789
0.00510249
0.00519962
0.00530146
0.00540781
0.00551843
0.00563309
0.00575158
0.00587368
0.00599913
0.00627755
0.00576669
0.0058806
0.00599834
0.00611968
0.00624439
0.0065164
0.00636458
0.00648865
0.00675465
0.0123024
0.0125761
0.0128528
0.00790576
0.00815019
0.00839511
0.00864068
0.00888706
0.00913438
0.00938281
0.00963249
0.00988357
0.0101362
0.0103905
0.0106467
0.0109048
0.011165
0.0114276
0.0116925
0.01196
0.0122302
0.0125032
0.0127793
0.00711222
0.00735624
0.00760023
0.00784436
0.00808878
0.00833365
0.00857914
0.0088254
0.00907258
0.00932083
0.0095703
0.00982113
0.0100735
0.0103275
0.0105833
0.0108411
0.0111009
0.011363
0.0116275
0.0118945
0.0121642
0.0124367
0.0127122
0.0070564
0.00730052
0.00754458
0.00778873
0.00803315
0.00827799
0.00852341
0.00876957
0.00901662
0.00926472
0.009514
0.00976463
0.0100167
0.0102705
0.010526
0.0107834
0.0110429
0.0113047
0.0115687
0.0118353
0.0121046
0.0123766
0.0126516
0.00700647
0.00725069
0.0074948
0.00773899
0.00798341
0.00822823
0.0084736
0.00871968
0.00896662
0.00921458
0.00946371
0.00971415
0.00996605
0.0102196
0.0104748
0.010732
0.0109912
0.0112526
0.0115163
0.0117825
0.0120513
0.012323
0.0125975
0.00696254
0.00720684
0.00745102
0.00769524
0.00793967
0.00818447
0.0084298
0.00867581
0.00892267
0.00917052
0.00941951
0.00966979
0.00992151
0.0101748
0.0104299
0.0106868
0.0109457
0.0112068
0.0114702
0.0117361
0.0120046
0.0122759
0.01255
0.00170201
0.00199669
0.00228345
0.00256434
0.00284075
0.00311345
0.00338285
0.00364922
0.00391276
0.00417364
0.00443207
0.00468823
0.00494233
0.00519456
0.00544513
0.00569424
0.00594209
0.00618887
0.00643477
0.00667999
0.0069247
0.00716908
0.00741332
0.00765757
0.00790201
0.0081468
0.0083921
0.00863806
0.00888484
0.00913259
0.00938147
0.00963162
0.00988319
0.0101363
0.0103912
0.0106479
0.0109066
0.0111675
0.0114306
0.0116962
0.0119644
0.0122354
0.0125092
0.00166124
0.00195781
0.00224592
0.00252776
0.00280486
0.0030781
0.00334796
0.00361473
0.00387862
0.00413983
0.00439856
0.00465501
0.00490936
0.00516183
0.00541262
0.00566192
0.00590994
0.00615687
0.00640291
0.00664823
0.00689304
0.00713749
0.00738178
0.00762606
0.00787051
0.00811529
0.00836056
0.00860648
0.00885321
0.00910089
0.00934967
0.00959971
0.00985116
0.0101042
0.0103588
0.0106154
0.0108739
0.0111346
0.0113975
0.0116629
0.0119308
0.0122015
0.0124751
0.00162821
0.00192636
0.00221563
0.00249828
0.00277597
0.00304966
0.0033199
0.00358699
0.00385118
0.00411266
0.00437164
0.00462832
0.00488288
0.00513555
0.00538651
0.00563597
0.00588413
0.00613119
0.00637733
0.00662274
0.00686762
0.00711213
0.00735646
0.00760077
0.00784523
0.00809001
0.00833526
0.00858115
0.00882783
0.00907545
0.00932416
0.00957412
0.00982547
0.0100784
0.0103329
0.0105893
0.0108477
0.0111082
0.011371
0.0116362
0.0119039
0.0121744
0.0124478
0.000248244
0.000426859
0.000679705
0.000979347
0.00129359
0.00160319
0.00190258
0.00219276
0.00247604
0.00275419
0.00302824
0.00329876
0.00356611
0.00383052
0.00409222
0.00435138
0.00460823
0.00486296
0.00511577
0.00536687
0.00561645
0.00586472
0.00611187
0.00635809
0.00660358
0.00684851
0.00709306
0.00733742
0.00758175
0.00782623
0.008071
0.00831624
0.00856211
0.00880875
0.00905633
0.00930499
0.00955488
0.00980616
0.010059
0.0103134
0.0105697
0.010828
0.0110884
0.011351
0.0116161
0.0118837
0.012154
0.0124272
0.000240459
0.000414057
0.000663198
0.000961405
0.00127591
0.00158639
0.00188662
0.00217743
0.00246115
0.00273961
0.0030139
0.00328463
0.00355215
0.00381672
0.00407855
0.00433785
0.00459481
0.00484965
0.00510256
0.00535374
0.00560341
0.00585175
0.00609896
0.00634524
0.00659077
0.00683574
0.00708033
0.00732471
0.00756906
0.00781353
0.00805831
0.00830354
0.00854939
0.00879602
0.00904356
0.00929219
0.00954204
0.00979327
0.010046
0.0103004
0.0105567
0.0108149
0.0110752
0.0113377
0.0116027
0.0118702
0.0121404
0.0124135
0.000236687
0.000407756
0.000654986
0.000952421
0.00126703
0.00157795
0.00187861
0.00216974
0.00245369
0.00273231
0.00300672
0.00327755
0.00354516
0.0038098
0.0040717
0.00433107
0.00458809
0.00484298
0.00509594
0.00534717
0.00559688
0.00584525
0.0060925
0.00633881
0.00658436
0.00682935
0.00707395
0.00731835
0.0075627
0.00780718
0.00805196
0.00829719
0.00854303
0.00878964
0.00903718
0.00928578
0.00953562
0.00978682
0.0100395
0.0102939
0.0105501
0.0108083
0.0110686
0.0113311
0.011596
0.0118635
0.0121336
0.0124067
0.000236687
0.000407756
0.000654985
0.000952421
0.00126703
0.00157795
0.00187862
0.00216974
0.00245369
0.00273231
0.00300672
0.00327755
0.00354516
0.0038098
0.0040717
0.00433107
0.00458809
0.00484298
0.00509594
0.00534717
0.00559688
0.00584525
0.0060925
0.00633881
0.00658436
0.00682935
0.00707395
0.00731835
0.0075627
0.00780718
0.00805196
0.00829719
0.00854303
0.00878964
0.00903718
0.00928578
0.00953562
0.00978682
0.0100395
0.0102939
0.0105501
0.0108083
0.0110686
0.0113311
0.011596
0.0118635
0.0121336
0.0124067
0.000240458
0.000414056
0.000663197
0.000961403
0.00127591
0.00158639
0.00188662
0.00217743
0.00246115
0.00273961
0.0030139
0.00328463
0.00355215
0.00381672
0.00407855
0.00433785
0.00459481
0.00484965
0.00510256
0.00535374
0.00560341
0.00585175
0.00609896
0.00634524
0.00659077
0.00683574
0.00708033
0.00732471
0.00756906
0.00781353
0.00805831
0.00830354
0.00854939
0.00879602
0.00904357
0.00929219
0.00954204
0.00979327
0.010046
0.0103004
0.0105567
0.0108149
0.0110752
0.0113377
0.0116027
0.0118702
0.0121404
0.0124135
0.000248243
0.000426857
0.000679702
0.000979345
0.00129359
0.00160319
0.00190258
0.00219276
0.00247604
0.00275419
0.00302824
0.00329876
0.00356611
0.00383052
0.00409221
0.00435138
0.00460823
0.00486296
0.00511577
0.00536687
0.00561645
0.00586472
0.00611187
0.00635809
0.00660358
0.00684851
0.00709307
0.00733742
0.00758176
0.00782623
0.008071
0.00831625
0.00856211
0.00880875
0.00905633
0.00930499
0.00955488
0.00980616
0.010059
0.0103134
0.0105697
0.010828
0.0110884
0.011351
0.0116161
0.0118837
0.012154
0.0124272
0.000260524
0.00044653
0.000704642
0.00100619
0.00131993
0.00162821
0.00192636
0.00221563
0.00249828
0.00277597
0.00304966
0.0033199
0.00358699
0.00385118
0.00411266
0.00437164
0.00462831
0.00488288
0.00513555
0.00538651
0.00563597
0.00588413
0.00613119
0.00637733
0.00662275
0.00686762
0.00711214
0.00735646
0.00760077
0.00784523
0.00809001
0.00833526
0.00858115
0.00882783
0.00907545
0.00932416
0.00957412
0.00982547
0.0100784
0.0103329
0.0105893
0.0108477
0.0111082
0.011371
0.0116362
0.0119039
0.0121744
0.0124478
0.000277955
0.000473546
0.000738181
0.00104183
0.00135473
0.00166124
0.00195781
0.00224592
0.00252776
0.00280486
0.0030781
0.00334796
0.00361472
0.00387862
0.00413983
0.00439856
0.00465501
0.00490936
0.00516183
0.00541262
0.00566192
0.00590994
0.00615687
0.00640291
0.00664824
0.00689304
0.00713749
0.00738178
0.00762606
0.00787051
0.00811529
0.00836057
0.00860649
0.00885321
0.00910089
0.00934967
0.00959971
0.00985116
0.0101042
0.0103588
0.0106154
0.0108739
0.0111346
0.0113975
0.0116629
0.0119309
0.0122015
0.0124751
0.000301162
0.000508456
0.000780481
0.0010861
0.00139768
0.00170201
0.00199669
0.00228345
0.00256434
0.00284075
0.00311345
0.00338285
0.00364922
0.00391275
0.00417364
0.00443207
0.00468823
0.00494233
0.00519456
0.00544513
0.00569424
0.00594209
0.00618887
0.00643477
0.00667999
0.0069247
0.00716909
0.00741332
0.00765758
0.00790201
0.0081468
0.0083921
0.00863806
0.00888484
0.0091326
0.00938147
0.00963162
0.00988319
0.0101363
0.0103912
0.0106479
0.0109066
0.0111675
0.0114306
0.0116962
0.0119644
0.0122354
0.0125092
0.000331357
0.000551972
0.000831628
0.00113872
0.00144844
0.0017502
0.00204276
0.00232801
0.00260785
0.00288348
0.00315557
0.00342445
0.00369037
0.00395349
0.00421399
0.00447206
0.0047279
0.00498169
0.00523364
0.00548396
0.00573284
0.00598049
0.00622709
0.00647284
0.00671793
0.00696254
0.00720685
0.00745103
0.00769525
0.00793967
0.00818447
0.0084298
0.00867582
0.00892267
0.00917052
0.00941951
0.00966979
0.00992151
0.0101748
0.0104299
0.0106868
0.0109457
0.0112068
0.0114702
0.0117361
0.0120046
0.0122759
0.01255
0.00036982
0.000604694
0.000891546
0.00119931
0.00150658
0.00180546
0.00209575
0.00237939
0.0026581
0.0029329
0.00320432
0.00347264
0.00373804
0.0040007
0.00426077
0.00451844
0.0047739
0.00502735
0.00527899
0.00552901
0.00577764
0.00602505
0.00627145
0.00651703
0.00676198
0.00700647
0.00725069
0.00749481
0.007739
0.00798342
0.00822823
0.0084736
0.00871968
0.00896663
0.00921459
0.00946371
0.00971415
0.00996605
0.0102196
0.0104748
0.010732
0.0109912
0.0112526
0.0115163
0.0117825
0.0120513
0.012323
0.0125975