/*--------------------------------*- C++ -*----------------------------------*\
  =========                 |
  \\      /  F ield         | OpenFOAM: The Open Source CFD Toolbox
   \\    /   O peration     | Website:  https://openfoam.org
    \\  /    A nd           | Version:  7
     \\/     M anipulation  |
\*---------------------------------------------------------------------------*/
FoamFile
{
    version     2.0;
    format      ascii;
    class       volVectorField;
    location    "96000";
    object      vorticity;
}
// * * * * * * * * * * * * * * * * * * * * * * * * * * * * * * * * * * * * * //

dimensions      [0 0 -1 0 0 0 0];

internalField   nonuniform List<vector> 
4783
(
(-2.75803e-05 6.13184e-05 -1.58979e-17)
(-5.21752e-05 3.78806e-05 -9.50226e-18)
(-5.02659e-05 3.92485e-05 1.28282e-17)
(-4.83957e-05 3.97938e-05 1.46913e-17)
(-4.64404e-05 4.00353e-05 -1.44064e-19)
(-4.44353e-05 4.0107e-05 -5.12877e-18)
(-4.23821e-05 4.00834e-05 -6.62689e-18)
(-4.02822e-05 4.00028e-05 -5.58245e-18)
(-3.81386e-05 3.98868e-05 9.82114e-19)
(-3.59552e-05 3.9749e-05 7.63709e-18)
(-3.37359e-05 3.95981e-05 8.4428e-18)
(-3.14848e-05 3.94406e-05 4.32457e-18)
(-2.92055e-05 3.92813e-05 1.11751e-18)
(-2.69017e-05 3.91239e-05 3.72507e-18)
(-2.45771e-05 3.89713e-05 5.70174e-18)
(-2.22355e-05 3.88257e-05 2.99014e-18)
(-1.9881e-05 3.8689e-05 -8.45593e-20)
(-1.75185e-05 3.85626e-05 -3.06264e-18)
(-1.51531e-05 3.84481e-05 -7.14024e-18)
(-1.27907e-05 3.83469e-05 -8.67836e-18)
(-1.04871e-05 3.82558e-05 -6.59921e-18)
(-8.2825e-06 3.81665e-05 -4.95081e-18)
(-2.89281e-05 7.34059e-05 1.28662e-18)
(-5.21505e-05 4.99931e-05 1.29986e-18)
(-5.15217e-05 4.95674e-05 2.63975e-18)
(-5.02455e-05 4.91036e-05 2.11682e-18)
(-4.8559e-05 4.85962e-05 3.83076e-18)
(-4.66573e-05 4.8039e-05 3.06828e-18)
(-4.46239e-05 4.74604e-05 3.10087e-18)
(-4.24979e-05 4.68842e-05 4.45871e-18)
(-4.02998e-05 4.63256e-05 4.17965e-18)
(-3.80424e-05 4.57936e-05 3.60422e-18)
(-3.57344e-05 4.52927e-05 2.66856e-18)
(-3.33828e-05 4.48255e-05 2.21358e-18)
(-3.09934e-05 4.43931e-05 2.328e-18)
(-2.85712e-05 4.39957e-05 2.89693e-18)
(-2.61212e-05 4.36331e-05 3.72084e-18)
(-2.3648e-05 4.3305e-05 1.5155e-18)
(-2.11567e-05 4.30107e-05 -3.19267e-19)
(-1.86524e-05 4.27496e-05 -1.8963e-18)
(-1.61414e-05 4.25211e-05 -3.69054e-18)
(-1.36303e-05 4.23246e-05 -3.90421e-18)
(-1.11697e-05 4.21544e-05 -2.45929e-18)
(-8.81331e-06 4.20139e-05 -6.57879e-19)
(-3.1435e-05 7.61428e-05 5.48708e-18)
(-5.34326e-05 5.22826e-05 2.81811e-18)
(-5.27741e-05 5.14694e-05 1.49889e-18)
(-5.17613e-05 5.08641e-05 2.73708e-18)
(-5.03072e-05 5.04081e-05 2.30226e-18)
(-4.85484e-05 4.99974e-05 2.65663e-18)
(-4.65816e-05 4.96007e-05 2.69706e-18)
(-4.44686e-05 4.92133e-05 3.43961e-18)
(-4.22468e-05 4.88385e-05 3.62771e-18)
(-3.99399e-05 4.84807e-05 3.55498e-18)
(-3.75635e-05 4.81431e-05 3.53335e-18)
(-3.5129e-05 4.78276e-05 2.53218e-18)
(-3.2645e-05 4.75353e-05 1.93643e-18)
(-3.01188e-05 4.72666e-05 1.3305e-18)
(-2.75566e-05 4.70214e-05 5.01063e-19)
(-2.49644e-05 4.67994e-05 -3.75202e-19)
(-2.23481e-05 4.66e-05 1.22969e-19)
(-1.9714e-05 4.64227e-05 -5.37766e-20)
(-1.70689e-05 4.62667e-05 -1.05204e-18)
(-1.44205e-05 4.61313e-05 -1.21795e-18)
(-1.18163e-05 4.60116e-05 -7.15038e-19)
(-9.3123e-06 4.5909e-05 -1.1364e-19)
(-3.42568e-05 7.86462e-05 6.07148e-18)
(-5.53778e-05 5.51196e-05 3.24653e-18)
(-5.44422e-05 5.40706e-05 2.68304e-18)
(-5.33766e-05 5.33048e-05 3.21649e-18)
(-5.19811e-05 5.27971e-05 3.86735e-18)
(-5.02951e-05 5.24264e-05 4.0518e-18)
(-4.83767e-05 5.21267e-05 4.71309e-18)
(-4.62792e-05 5.18657e-05 4.09152e-18)
(-4.40436e-05 5.16294e-05 3.21891e-18)
(-4.16989e-05 5.1412e-05 3.3523e-18)
(-3.92658e-05 5.12115e-05 1.98799e-18)
(-3.67595e-05 5.10272e-05 1.55615e-18)
(-3.41915e-05 5.08584e-05 1.15888e-18)
(-3.15712e-05 5.07046e-05 -1.69083e-19)
(-2.89065e-05 5.05653e-05 -9.8207e-19)
(-2.62045e-05 5.04397e-05 -1.02092e-18)
(-2.34724e-05 5.03272e-05 -4.54416e-20)
(-2.07173e-05 5.02269e-05 2.42874e-19)
(-1.79469e-05 5.0138e-05 -5.82844e-19)
(-1.51697e-05 5.00599e-05 -1.0119e-18)
(-1.24305e-05 4.9988e-05 -9.1466e-19)
(-9.78738e-06 4.99233e-05 -1.0973e-18)
(-3.71746e-05 8.11227e-05 3.62476e-18)
(-5.76229e-05 5.80559e-05 4.45631e-18)
(-5.64219e-05 5.69674e-05 5.36997e-18)
(-5.51906e-05 5.61306e-05 5.38856e-18)
(-5.3729e-05 5.55783e-05 5.50645e-18)
(-5.20288e-05 5.52132e-05 6.45506e-18)
(-5.01097e-05 5.4965e-05 6.05681e-18)
(-4.80049e-05 5.47877e-05 4.18596e-18)
(-4.5747e-05 5.4654e-05 3.21588e-18)
(-4.33637e-05 5.45485e-05 2.84615e-18)
(-4.08771e-05 5.44623e-05 1.82073e-18)
(-3.8304e-05 5.43906e-05 1.48667e-18)
(-3.5658e-05 5.43302e-05 1.54631e-18)
(-3.295e-05 5.42788e-05 -1.44887e-19)
(-3.01894e-05 5.42348e-05 -1.98978e-18)
(-2.73845e-05 5.41968e-05 -2.00325e-18)
(-2.45433e-05 5.41636e-05 -1.301e-18)
(-2.16739e-05 5.41341e-05 -1.59569e-18)
(-1.87849e-05 5.41073e-05 -2.07756e-18)
(-1.58853e-05 5.40824e-05 -2.27279e-18)
(-1.30177e-05 5.40551e-05 -1.51122e-18)
(-1.02421e-05 5.40261e-05 -1.21933e-18)
(-4.0129e-05 8.36344e-05 6.51111e-18)
(-6.00143e-05 6.10274e-05 8.65168e-18)
(-5.85903e-05 5.99904e-05 8.2926e-18)
(-5.71729e-05 5.91622e-05 7.30134e-18)
(-5.55873e-05 5.86058e-05 6.45153e-18)
(-5.38118e-05 5.82522e-05 6.0148e-18)
(-5.1845e-05 5.80409e-05 5.00709e-18)
(-4.97016e-05 5.79246e-05 3.86221e-18)
(-4.74034e-05 5.78698e-05 4.108e-18)
(-4.49724e-05 5.78542e-05 3.22577e-18)
(-4.24285e-05 5.78636e-05 1.1438e-18)
(-3.97885e-05 5.78884e-05 1.71814e-18)
(-3.70664e-05 5.79227e-05 1.50256e-18)
(-3.42739e-05 5.79621e-05 -4.76659e-19)
(-3.14213e-05 5.80037e-05 -1.85391e-18)
(-2.85178e-05 5.8045e-05 -1.62557e-18)
(-2.55723e-05 5.80842e-05 -1.65514e-18)
(-2.25935e-05 5.81196e-05 -2.14821e-18)
(-1.95908e-05 5.81499e-05 -2.20734e-18)
(-1.6574e-05 5.81741e-05 -1.82353e-18)
(-1.35833e-05 5.8188e-05 -1.32403e-18)
(-1.06805e-05 5.8192e-05 -1.14245e-18)
(-4.3099e-05 8.61837e-05 1.53244e-17)
(-6.24849e-05 6.40175e-05 1.34137e-17)
(-6.087e-05 6.30693e-05 1.19747e-17)
(-5.92732e-05 6.2298e-05 9.42522e-18)
(-5.75435e-05 6.17757e-05 7.16507e-18)
(-5.56597e-05 6.14531e-05 6.14094e-18)
(-5.36114e-05 6.12822e-05 4.36936e-18)
(-5.14022e-05 6.12198e-05 2.7477e-18)
(-4.9044e-05 6.12317e-05 3.08547e-18)
(-4.65526e-05 6.12924e-05 1.72055e-18)
(-4.39441e-05 6.13835e-05 -1.71601e-19)
(-4.12335e-05 6.14924e-05 1.33625e-18)
(-3.84341e-05 6.16102e-05 1.87235e-18)
(-3.55578e-05 6.17307e-05 -8.61922e-20)
(-3.2615e-05 6.18492e-05 -1.09465e-18)
(-2.96155e-05 6.19623e-05 -1.50019e-18)
(-2.65688e-05 6.20674e-05 -2.26769e-18)
(-2.34841e-05 6.21622e-05 -2.9496e-18)
(-2.03714e-05 6.2245e-05 -3.00365e-18)
(-1.72412e-05 6.23144e-05 -2.91727e-18)
(-1.41316e-05 6.23664e-05 -2.63531e-18)
(-1.1106e-05 6.24008e-05 -2.0972e-18)
(-4.60745e-05 8.87575e-05 2.15874e-17)
(-6.50011e-05 6.70127e-05 1.86561e-17)
(-6.3216e-05 6.61692e-05 1.56789e-17)
(-6.14508e-05 6.54809e-05 1.22913e-17)
(-5.95733e-05 6.502e-05 9.87801e-18)
(-5.75657e-05 6.47484e-05 7.44102e-18)
(-5.54155e-05 6.46281e-05 4.41869e-18)
(-5.31203e-05 6.46215e-05 2.04857e-18)
(-5.06855e-05 6.46963e-05 1.86444e-18)
(-4.81214e-05 6.48261e-05 7.12435e-19)
(-4.54399e-05 6.49906e-05 -1.88587e-19)
(-4.26536e-05 6.51748e-05 6.30171e-19)
(-3.97744e-05 6.53677e-05 3.31974e-19)
(-3.68133e-05 6.55611e-05 -1.91422e-18)
(-3.37807e-05 6.57493e-05 -2.71267e-18)
(-3.06865e-05 6.59278e-05 -2.77058e-18)
(-2.75403e-05 6.60931e-05 -2.7801e-18)
(-2.43521e-05 6.62424e-05 -3.22612e-18)
(-2.11322e-05 6.63735e-05 -3.26514e-18)
(-1.78915e-05 6.64845e-05 -3.52404e-18)
(-1.46665e-05 6.65714e-05 -3.52018e-18)
(-1.15216e-05 6.66333e-05 -3.17131e-18)
(-4.90498e-05 9.13424e-05 2.63276e-17)
(-6.75439e-05 6.9999e-05 2.37946e-17)
(-6.56011e-05 6.92671e-05 1.89602e-17)
(-6.3677e-05 6.86759e-05 1.56389e-17)
(-6.16533e-05 6.82944e-05 1.12601e-17)
(-5.95158e-05 6.80899e-05 7.99047e-18)
(-5.72524e-05 6.80314e-05 4.55736e-18)
(-5.48582e-05 6.80864e-05 3.52808e-18)
(-5.23345e-05 6.82253e-05 2.911e-18)
(-4.96874e-05 6.8422e-05 1.01608e-18)
(-4.69254e-05 6.86556e-05 -1.41378e-18)
(-4.40583e-05 6.89096e-05 -2.09608e-18)
(-4.1096e-05 6.91715e-05 -2.18231e-18)
(-3.80486e-05 6.94319e-05 -2.91983e-18)
(-3.49258e-05 6.96838e-05 -3.3861e-18)
(-3.17372e-05 6.99221e-05 -4.06912e-18)
(-2.84927e-05 7.01426e-05 -4.13193e-18)
(-2.52025e-05 7.0342e-05 -4.20109e-18)
(-2.18773e-05 7.05175e-05 -4.17327e-18)
(-1.85285e-05 7.06668e-05 -4.28485e-18)
(-1.51909e-05 7.07854e-05 -4.07792e-18)
(-1.19299e-05 7.08719e-05 -3.98514e-18)
(-5.20241e-05 9.39298e-05 2.92998e-17)
(-7.01028e-05 7.29608e-05 2.54264e-17)
(-6.80081e-05 7.2345e-05 2.12284e-17)
(-6.59314e-05 7.18585e-05 1.82186e-17)
(-6.37646e-05 7.15688e-05 1.39491e-17)
(-6.14956e-05 7.1443e-05 9.56347e-18)
(-5.91133e-05 7.14566e-05 6.1157e-18)
(-5.6612e-05 7.15801e-05 3.14829e-18)
(-5.39909e-05 7.17866e-05 9.7644e-19)
(-5.12533e-05 7.20512e-05 -2.02598e-19)
(-4.84047e-05 7.23525e-05 -1.88383e-18)
(-4.54524e-05 7.26733e-05 -2.75811e-18)
(-4.24044e-05 7.30002e-05 -2.99695e-18)
(-3.92692e-05 7.33229e-05 -4.04993e-18)
(-3.60555e-05 7.36338e-05 -4.97122e-18)
(-3.27725e-05 7.39271e-05 -5.81213e-18)
(-2.94301e-05 7.41983e-05 -5.58341e-18)
(-2.60389e-05 7.44439e-05 -5.39154e-18)
(-2.261e-05 7.46604e-05 -5.82654e-18)
(-1.91552e-05 7.48449e-05 -5.61055e-18)
(-1.57078e-05 7.49919e-05 -4.85332e-18)
(-1.23335e-05 7.50994e-05 -4.82296e-18)
(-5.50058e-05 9.65196e-05 2.42831e-17)
(-7.26731e-05 7.58766e-05 2.26977e-17)
(-7.04249e-05 7.53877e-05 2.24529e-17)
(-6.81984e-05 7.50086e-05 2.04062e-17)
(-6.58919e-05 7.48222e-05 1.66042e-17)
(-6.34918e-05 7.47827e-05 1.13933e-17)
(-6.0988e-05 7.48773e-05 6.57171e-18)
(-5.83749e-05 7.50755e-05 2.23082e-18)
(-5.56509e-05 7.53544e-05 -4.14892e-19)
(-5.28176e-05 7.56893e-05 -9.91351e-19)
(-4.98783e-05 7.60588e-05 -2.45501e-18)
(-4.68379e-05 7.64454e-05 -3.60739e-18)
(-4.37023e-05 7.68348e-05 -4.58517e-18)
(-4.04781e-05 7.72164e-05 -5.35165e-18)
(-3.71732e-05 7.75822e-05 -6.33933e-18)
(-3.37958e-05 7.79261e-05 -7.60795e-18)
(-3.03558e-05 7.82439e-05 -6.83579e-18)
(-2.6864e-05 7.85319e-05 -6.57569e-18)
(-2.33325e-05 7.87863e-05 -7.48878e-18)
(-1.97738e-05 7.90034e-05 -7.04445e-18)
(-1.62198e-05 7.91759e-05 -6.54875e-18)
(-1.27349e-05 7.92987e-05 -6.42135e-18)
(-5.80261e-05 9.91317e-05 1.34602e-17)
(-7.52558e-05 7.87058e-05 1.9289e-17)
(-7.28419e-05 7.83843e-05 2.34306e-17)
(-7.04644e-05 7.8106e-05 2.2538e-17)
(-6.80225e-05 7.80411e-05 1.76295e-17)
(-6.54931e-05 7.80891e-05 1.2982e-17)
(-6.28668e-05 7.82734e-05 8.12124e-18)
(-6.01396e-05 7.8551e-05 3.52409e-18)
(-5.7309e-05 7.89075e-05 -5.2422e-19)
(-5.43769e-05 7.93164e-05 -2.91441e-18)
(-5.13444e-05 7.97557e-05 -4.53292e-18)
(-4.82144e-05 8.02082e-05 -5.16124e-18)
(-4.49904e-05 8.06584e-05 -6.23527e-18)
(-4.16772e-05 8.10961e-05 -6.49044e-18)
(-3.82812e-05 8.15132e-05 -7.30989e-18)
(-3.48097e-05 8.19034e-05 -9.04889e-18)
(-3.12719e-05 8.22636e-05 -8.19246e-18)
(-2.76798e-05 8.25905e-05 -7.99226e-18)
(-2.40459e-05 8.28794e-05 -9.01709e-18)
(-2.03853e-05 8.3128e-05 -8.46691e-18)
(-1.67302e-05 8.33242e-05 -8.15848e-18)
(-1.31374e-05 8.34516e-05 -7.72731e-18)
(-6.19242e-05 0.000103929 1.00891e-17)
(-7.79664e-05 8.16727e-05 1.7295e-17)
(-7.5266e-05 8.139e-05 2.61561e-17)
(-7.27156e-05 8.11274e-05 2.79188e-17)
(-7.01458e-05 8.12245e-05 2.33938e-17)
(-6.74896e-05 8.13436e-05 1.71161e-17)
(-6.47411e-05 8.16316e-05 9.81285e-18)
(-6.18986e-05 8.1989e-05 2.57397e-18)
(-5.89587e-05 8.24286e-05 -3.08304e-18)
(-5.59265e-05 8.29159e-05 -5.95668e-18)
(-5.27997e-05 8.34269e-05 -6.55543e-18)
(-4.95801e-05 8.39467e-05 -7.24274e-18)
(-4.62683e-05 8.44563e-05 -8.37198e-18)
(-4.28666e-05 8.49474e-05 -8.35811e-18)
(-3.93808e-05 8.5413e-05 -8.87352e-18)
(-3.58159e-05 8.58447e-05 -1.00041e-17)
(-3.21803e-05 8.62424e-05 -9.24604e-18)
(-2.84878e-05 8.66046e-05 -9.63856e-18)
(-2.47507e-05 8.69231e-05 -1.07238e-17)
(-2.09889e-05 8.72056e-05 -1.09123e-17)
(-1.72408e-05 8.73781e-05 -1.07879e-17)
(-1.35443e-05 8.74929e-05 -9.96816e-18)
(-7.21777e-05 0.000121192 1.70137e-17)
(-8.40017e-05 8.89617e-05 1.711e-17)
(-7.82008e-05 8.52476e-05 3.06893e-17)
(-7.49938e-05 8.40961e-05 3.73631e-17)
(-7.22618e-05 8.44119e-05 3.37193e-17)
(-6.94745e-05 8.452e-05 2.3227e-17)
(-6.66034e-05 8.49472e-05 1.16981e-17)
(-6.36464e-05 8.53729e-05 1.02247e-18)
(-6.05929e-05 8.59029e-05 -6.22261e-18)
(-5.7461e-05 8.64748e-05 -8.28858e-18)
(-5.42397e-05 8.70578e-05 -8.65911e-18)
(-5.09322e-05 8.76484e-05 -9.89072e-18)
(-4.75351e-05 8.82152e-05 -1.03888e-17)
(-4.4046e-05 8.87565e-05 -1.03922e-17)
(-4.04728e-05 8.92691e-05 -1.05318e-17)
(-3.68164e-05 8.97359e-05 -1.08421e-17)
(-3.30823e-05 9.01652e-05 -1.0748e-17)
(-2.92905e-05 9.05609e-05 -1.17418e-17)
(-2.54457e-05 9.09004e-05 -1.29986e-17)
(-2.1611e-05 9.11327e-05 -1.34125e-17)
(-1.77899e-05 9.12672e-05 -1.28971e-17)
(-1.39632e-05 9.13571e-05 -1.17824e-17)
(-0.000102281 0.000172163 2.12084e-17)
(-0.000105932 0.000112556 1.32263e-17)
(-8.84542e-05 9.7574e-05 3.77675e-17)
(-7.94055e-05 9.10796e-05 5.63124e-17)
(-7.46138e-05 8.82041e-05 5.02913e-17)
(-7.14678e-05 8.76034e-05 3.28174e-17)
(-6.84493e-05 8.82422e-05 1.57881e-17)
(-6.53804e-05 8.86826e-05 5.1601e-19)
(-6.22028e-05 8.93165e-05 -1.01127e-17)
(-5.89757e-05 8.99844e-05 -1.16838e-17)
(-5.5659e-05 9.0633e-05 -1.08183e-17)
(-5.22672e-05 9.13041e-05 -1.08589e-17)
(-4.87901e-05 9.19235e-05 -1.12357e-17)
(-4.52135e-05 9.25088e-05 -1.28073e-17)
(-4.15576e-05 9.30719e-05 -1.25864e-17)
(-3.78139e-05 9.3564e-05 -1.13422e-17)
(-3.39782e-05 9.40173e-05 -1.15179e-17)
(-3.00851e-05 9.4399e-05 -1.3272e-17)
(-2.61871e-05 9.4702e-05 -1.47297e-17)
(-2.22829e-05 9.48934e-05 -1.44262e-17)
(-0.000172602 0.000286691 3.04624e-17)
(-0.000165046 0.000175145 2.02293e-17)
(-0.000123203 0.000137906 4.76831e-17)
(-9.77658e-05 0.000114586 8.5879e-17)
(-8.33071e-05 0.00010063 7.25676e-17)
(-7.53096e-05 9.4924e-05 4.16754e-17)
(-7.05651e-05 9.24307e-05 2.05469e-17)
(-6.71329e-05 9.19558e-05 -6.98274e-19)
(-6.37765e-05 9.26609e-05 -1.64524e-17)
(-6.0469e-05 9.34471e-05 -1.73273e-17)
(-5.70509e-05 9.41301e-05 -1.35545e-17)
(-5.35802e-05 9.49105e-05 -1.2629e-17)
(-5.00351e-05 9.55711e-05 -1.43282e-17)
(-4.63653e-05 9.61869e-05 -1.55049e-17)
(-4.2625e-05 9.67617e-05 -1.36978e-17)
(-3.88055e-05 9.72702e-05 -1.1873e-17)
(-3.48915e-05 9.76951e-05 -1.27409e-17)
(-3.0927e-05 9.80496e-05 -1.43384e-17)
(-2.69333e-05 9.83395e-05 -1.47684e-17)
(-0.000308512 0.000501923 4.37512e-17)
(-0.000288667 0.000308502 4.97756e-17)
(-0.000207075 0.000233544 6.53449e-17)
(-0.000151359 0.000179047 1.06906e-16)
(-0.000114889 0.000142745 8.54474e-17)
(-9.23313e-05 0.000120171 3.40793e-17)
(-7.90833e-05 0.000106455 1.84058e-17)
(-7.11285e-05 0.000100421 -7.97147e-18)
(-6.58596e-05 9.77914e-05 -2.90862e-17)
(-6.19904e-05 9.70332e-05 -2.70467e-17)
(-5.8408e-05 9.75107e-05 -1.65242e-17)
(-5.48631e-05 9.84832e-05 -1.38391e-17)
(-5.12667e-05 9.90944e-05 -1.76214e-17)
(-4.75151e-05 9.96685e-05 -1.86347e-17)
(-4.36937e-05 0.000100278 -1.45663e-17)
(-3.981e-05 0.000100795 -1.21145e-17)
(-3.58177e-05 0.000101191 -1.39336e-17)
(-0.000532596 0.000843971 6.16665e-17)
(-0.000507051 0.000543618 7.58838e-17)
(-0.00036969 0.000418406 8.27783e-17)
(-0.000266962 0.000318687 1.1837e-16)
(-0.000193535 0.000243973 8.72111e-17)
(-0.000143218 0.000189772 2.51733e-17)
(-0.000109917 0.000153244 2.20622e-17)
(-8.86118e-05 0.000130025 -1.26532e-17)
(-7.53827e-05 0.000115429 -5.32125e-17)
(-6.67693e-05 0.00010775 -4.6412e-17)
(-6.07402e-05 0.000104362 -1.76621e-17)
(-5.63136e-05 0.000102811 -1.02222e-17)
(-5.25655e-05 0.000102466 -2.05696e-17)
(-4.86438e-05 0.000102914 -2.28256e-17)
(-0.000843943 0.00130175 6.76813e-17)
(-0.000831511 0.000892159 9.29847e-17)
(-0.000634861 0.000718592 8.75185e-17)
(-0.000474117 0.000566915 8.99138e-17)
(-0.000348242 0.000440956 7.70547e-17)
(-0.000254082 0.000340792 4.51641e-17)
(-0.000186522 0.000265218 5.5117e-17)
(-0.0001396 0.000209712 1.7584e-17)
(-0.000107852 0.000171123 -7.6885e-17)
(-8.64626e-05 0.00014545 -6.30574e-17)
(-7.23541e-05 0.000128558 -9.04492e-18)
(-6.27665e-05 0.000117726 3.05975e-18)
(-0.0012128 0.00182622 5.20051e-17)
(-0.00123732 0.00132938 8.27417e-17)
(-0.000995734 0.00112764 7.84449e-17)
(-0.000782968 0.000935978 6.48422e-17)
(-0.000601617 0.000761444 5.47017e-17)
(-0.000453309 0.000609139 6.00758e-17)
(-0.000337076 0.000481985 7.66834e-17)
(-0.000249502 0.000379841 3.48022e-17)
(-0.00018578 0.000301268 -8.25184e-17)
(-0.000140466 0.000242283 -7.32915e-17)
(-0.00159924 0.00235936 2.34357e-17)
(-0.00167723 0.00180599 3.64606e-17)
(-0.00141289 0.00160371 4.48434e-17)
(-0.00116782 0.00139832 4.37235e-17)
(-0.000945092 0.00119675 3.41541e-17)
(-0.000748761 0.00100576 5.34646e-17)
(-0.000581624 0.000831259 6.72616e-17)
(-0.000444541 0.000677843 2.29503e-17)
(-0.000336175 0.000548069 -8.32902e-17)
(-0.00197499 0.00286377 1.56218e-17)
(-0.00211013 0.00227765 1.89166e-17)
(-0.0018399 0.00209481 1.03067e-17)
(-0.00158233 0.00190073 9.62942e-18)
(-0.00133885 0.00170017 6.90727e-18)
(-0.00111297 0.00149775 3.01336e-17)
(-0.000908416 0.00129896 3.82916e-17)
(-0.000728316 0.00110996 3.8775e-18)
(-0.00232959 0.00332771 8.4069e-18)
(-0.00251643 0.00272156 1.75017e-17)
(-0.00224731 0.00256591 6.25415e-18)
(-0.00198798 0.00239656 -4.54153e-18)
(-0.00173846 0.0022162 -1.5381e-17)
(-0.00150066 0.00202681 -4.37542e-18)
(-0.00127712 0.00183168 9.38344e-18)
(-0.00266304 0.00375363 6.42227e-18)
(-0.00289311 0.00313345 1.36783e-17)
(-0.00262598 0.00300477 2.9721e-18)
(-0.00236764 0.00286273 -6.77581e-18)
(-0.00211754 0.0027092 -1.80611e-17)
(-0.00187667 0.00254488 -2.5947e-17)
(-0.00297862 0.00414791 7.33229e-18)
(-0.00324381 0.00351699 9.28901e-18)
(-0.00297745 0.00341238 1.16279e-18)
(-0.00271939 0.00329542 -6.72242e-18)
(-0.00246896 0.00316789 -1.81599e-17)
(-0.00222689 0.0030302 -3.69801e-17)
(-0.00327958 0.00451635 5.04264e-18)
(-0.00357309 0.00387719 2.02632e-18)
(-0.00330612 0.00379364 -1.74552e-18)
(-0.00304696 0.00369867 -6.3588e-18)
(-0.00279496 0.0035941 -1.84933e-17)
(-0.00356836 0.00486333 -2.77861e-18)
(-0.0038847 0.00421816 -6.21853e-18)
(-0.00361601 0.00415328 -3.87624e-18)
(-0.00335464 0.00407766 -4.86787e-18)
(-0.00384673 0.00519203 -5.99716e-18)
(-0.00418138 0.00454295 -9.99836e-18)
(-0.00391021 0.0044949 -4.43032e-18)
(-0.00364581 0.00443661 -4.12452e-18)
(-0.00411602 0.00550495 -4.74844e-18)
(-0.00446521 0.00485383 -1.0208e-17)
(-0.004191 0.00482117 -4.06726e-18)
(-0.00437731 0.0058041 -3.41447e-18)
(-0.00473783 0.00515257 -8.46444e-18)
(-0.00446014 0.00513412 -3.20045e-18)
(-0.00463152 0.00609118 -5.71477e-18)
(-0.00500061 0.00544063 -7.70168e-18)
(-0.00471908 0.00543542 -2.20628e-18)
(-0.00487949 0.0063677 -1.05116e-17)
(-0.00525475 0.00571933 -8.01606e-18)
(-0.00496903 0.00572647 -2.24395e-18)
(-0.005122 0.00663503 -1.28251e-17)
(-0.00550134 0.00598984 -8.42056e-18)
(-0.00521112 0.00600854 -2.82713e-18)
(-0.00535977 0.00689438 -1.06329e-17)
(-0.00574136 0.00625322 -6.69086e-18)
(-0.00544634 0.00628277 -3.33846e-18)
(-0.00559347 0.00714688 -6.91874e-18)
(-0.00597571 0.00651044 -4.31894e-18)
(-0.00567563 0.00655022 -4.16585e-18)
(-0.00582374 0.00739352 -2.8084e-18)
(-0.00620522 0.0067624 -1.6384e-18)
(-0.0058998 0.00681182 -4.49213e-18)
(-0.00605119 0.00763527 2.82689e-18)
(-0.00643064 0.00700991 1.59051e-18)
(-0.00611964 0.00706846 -4.09911e-18)
(-0.00627642 0.00787303 7.80007e-18)
(-0.00665273 0.0072538 3.81696e-18)
(-0.00633588 0.00732098 -2.98736e-18)
(-0.00649999 0.00810763 8.2696e-18)
(-0.00687219 0.00749482 4.8118e-18)
(-0.00654923 0.0075702 -7.60245e-19)
(-0.00672239 0.00833983 5.31375e-18)
(-0.00708966 0.0077337 4.64434e-18)
(-0.00676034 0.00781687 7.54906e-19)
(-0.00694411 0.00857029 2.68149e-18)
(-0.0073057 0.00797101 4.61625e-18)
(-0.0069698 0.00806168 1.66623e-18)
(-0.00716558 0.00879962 1.66662e-18)
(-0.00752082 0.00820734 4.6878e-18)
(-0.00717815 0.00830523 1.80755e-18)
(-5.99218e-05 2.87025e-05 -1.03064e-17)
(-7.23201e-05 3.0038e-05 -3.89317e-18)
(-7.50285e-05 3.25482e-05 8.44032e-19)
(-7.75285e-05 3.53737e-05 7.16801e-18)
(-8.00031e-05 3.82943e-05 9.25891e-18)
(-8.25142e-05 4.12503e-05 1.26882e-17)
(-8.50644e-05 4.42208e-05 1.6456e-17)
(-8.76411e-05 4.71953e-05 1.71375e-17)
(-9.02317e-05 5.0168e-05 1.89884e-17)
(-9.28289e-05 5.31379e-05 2.29394e-17)
(-9.54369e-05 5.61135e-05 2.22986e-17)
(-9.80872e-05 5.91267e-05 1.83588e-17)
(-0.000102901 6.29944e-05 1.54146e-17)
(-0.000120093 7.32129e-05 1.82324e-17)
(-0.000170976 0.000103341 2.65406e-17)
(-0.000285466 0.000173715 3.78961e-17)
(-0.000500655 0.00030968 4.5918e-17)
(-0.000842643 0.000533828 5.55878e-17)
(-0.00130036 0.000845249 5.7768e-17)
(-0.00182478 0.00121418 5.06998e-17)
(-0.00235791 0.00160067 4.55945e-17)
(-0.00286231 0.00197645 2.86613e-17)
(-0.00332626 0.00233105 1.69985e-17)
(-0.0037522 0.0026645 9.2227e-18)
(-0.00414651 0.00298006 6.10122e-18)
(-0.00451498 0.003281 9.39838e-19)
(-0.004862 0.00356976 -6.46962e-18)
(-0.00519077 0.00384809 -1.07337e-17)
(-0.00550376 0.00411734 -9.2939e-18)
(-0.00580295 0.00437858 -6.57181e-18)
(-0.00609007 0.00463274 -6.63972e-18)
(-0.00636663 0.00488066 -9.46875e-18)
(-0.00663401 0.00512312 -1.04118e-17)
(-0.00689343 0.00536084 -7.59618e-18)
(-0.007146 0.0055945 -3.46158e-18)
(-0.00739276 0.00582474 -4.51091e-19)
(-0.00763464 0.00605213 3.23676e-18)
(-0.00787252 0.00627726 7.18715e-18)
(-0.00810721 0.0065007 7.03313e-18)
(-0.00833947 0.00672298 4.35771e-18)
(-0.00856999 0.00694459 1.97609e-18)
(-0.00879937 0.00716597 1.10624e-18)
(-3.65517e-05 5.32438e-05 -1.08896e-18)
(-4.8875e-05 5.32535e-05 5.61732e-19)
(-5.1162e-05 5.45439e-05 2.45681e-18)
(-5.39946e-05 5.64947e-05 5.47493e-18)
(-5.69284e-05 5.87444e-05 6.47201e-18)
(-5.98991e-05 6.11394e-05 8.47523e-18)
(-6.28899e-05 6.36127e-05 1.28456e-17)
(-6.58879e-05 6.61306e-05 1.65931e-17)
(-6.88791e-05 6.86743e-05 1.79778e-17)
(-7.18483e-05 7.12332e-05 2.12832e-17)
(-7.47739e-05 7.38035e-05 2.40862e-17)
(-7.76142e-05 7.63883e-05 2.52425e-17)
(-8.05758e-05 7.91047e-05 2.70095e-17)
(-8.78335e-05 8.51114e-05 2.79605e-17)
(-0.000111396 0.00010699 2.94875e-17)
(-0.000173948 0.000166086 3.28409e-17)
(-0.000307237 0.000289711 4.47694e-17)
(-0.000542255 0.000508125 4.85104e-17)
(-0.000890705 0.000832654 5.29468e-17)
(-0.00132787 0.00123856 4.68903e-17)
(-0.00180449 0.00167857 4.71214e-17)
(-0.00227617 0.00211154 3.10293e-17)
(-0.00272012 0.00251788 2.39589e-17)
(-0.00313204 0.00289458 1.72654e-17)
(-0.00351562 0.00324528 1.28179e-17)
(-0.00387588 0.00357456 7.35405e-18)
(-0.00421692 0.00388616 3.19867e-18)
(-0.00454179 0.00418281 7.2934e-20)
(-0.00485272 0.00446661 -1.05896e-18)
(-0.00515149 0.00473918 -1.78876e-18)
(-0.00543962 0.00500193 -2.92217e-18)
(-0.00571838 0.00525604 -4.85226e-18)
(-0.00598896 0.00550259 -6.16658e-18)
(-0.0062524 0.00574257 -6.12915e-18)
(-0.00650971 0.00597688 -4.63927e-18)
(-0.00676178 0.00620637 -1.97113e-18)
(-0.00700945 0.00643179 2.01676e-18)
(-0.00725349 0.00665387 4.843e-18)
(-0.00749463 0.00687324 6.01836e-18)
(-0.00773356 0.00709058 5.90502e-18)
(-0.00797096 0.00730649 5.38511e-18)
(-0.00820741 0.00752151 4.67468e-18)
(-3.79183e-05 5.13469e-05 8.35708e-18)
(-4.84529e-05 5.26093e-05 2.3934e-18)
(-5.0352e-05 5.38708e-05 2.92787e-18)
(-5.29506e-05 5.55459e-05 5.08623e-18)
(-5.58452e-05 5.75312e-05 5.36815e-18)
(-5.8867e-05 5.97047e-05 6.11957e-18)
(-6.19464e-05 6.19889e-05 9.54316e-18)
(-6.50485e-05 6.43389e-05 1.40104e-17)
(-6.81507e-05 6.67276e-05 1.6742e-17)
(-7.12353e-05 6.91376e-05 2.07159e-17)
(-7.4287e-05 7.1557e-05 2.43832e-17)
(-7.72948e-05 7.39765e-05 2.6985e-17)
(-8.03111e-05 7.64026e-05 3.13601e-17)
(-8.41597e-05 7.93236e-05 3.50731e-17)
(-9.64536e-05 8.95229e-05 3.79723e-17)
(-0.000136719 0.000124224 3.47551e-17)
(-0.000232256 0.000208064 3.11944e-17)
(-0.00041698 0.000370669 2.71118e-17)
(-0.000717033 0.000635879 2.0938e-17)
(-0.00112602 0.000996852 1.15869e-17)
(-0.0016021 0.00141414 1.38017e-17)
(-0.00209327 0.00184127 1.02548e-17)
(-0.00256444 0.00224875 2.412e-18)
(-0.00300337 0.00262746 7.77886e-19)
(-0.00341104 0.00297895 3.15871e-20)
(-0.00379238 0.00330762 -5.91937e-19)
(-0.00415211 0.00361752 -1.63145e-18)
(-0.00449383 0.00391172 -1.73498e-18)
(-0.00482018 0.00419247 -1.78799e-18)
(-0.00513318 0.00446156 -1.4948e-18)
(-0.00543451 0.00472044 -1.29013e-18)
(-0.00572561 0.00497037 -1.97372e-18)
(-0.00600775 0.00521245 -2.93695e-18)
(-0.00628207 0.00544766 -3.9381e-18)
(-0.0065496 0.00567693 -4.13098e-18)
(-0.00681132 0.00590109 -3.84145e-18)
(-0.00706811 0.00612095 -2.98188e-18)
(-0.00732082 0.00633722 -2.40378e-18)
(-0.00757022 0.00655056 -6.49446e-19)
(-0.00781702 0.00676161 1.35164e-18)
(-0.00806194 0.00697097 2.40634e-18)
(-0.00830559 0.00717919 2.13329e-18)
(-3.84906e-05 4.94646e-05 1.2904e-17)
(-4.79929e-05 5.13192e-05 2.52327e-18)
(-4.97505e-05 5.28424e-05 4.32993e-18)
(-5.21883e-05 5.44653e-05 5.22915e-18)
(-5.50112e-05 5.62866e-05 5.3955e-18)
(-5.80406e-05 5.82759e-05 4.70487e-18)
(-6.11756e-05 6.03829e-05 6.52459e-18)
(-6.43594e-05 6.25671e-05 1.05781e-17)
(-6.75574e-05 6.47998e-05 1.31804e-17)
(-7.07453e-05 6.70605e-05 1.79298e-17)
(-7.39033e-05 6.93336e-05 2.14042e-17)
(-7.70109e-05 7.16052e-05 2.55816e-17)
(-8.00446e-05 7.38614e-05 3.31489e-17)
(-8.30252e-05 7.61417e-05 4.21352e-17)
(-8.99832e-05 8.05218e-05 5.51089e-17)
(-0.000113415 9.88107e-05 6.41844e-17)
(-0.000177752 0.000152331 5.80537e-17)
(-0.000317203 0.000267886 4.77465e-17)
(-0.000565241 0.000475039 1.84001e-17)
(-0.000934199 0.00078397 -2.39038e-19)
(-0.00139656 0.00116897 -7.95147e-18)
(-0.00189908 0.00158364 -3.41494e-18)
(-0.00239503 0.00198941 -1.28834e-17)
(-0.00286132 0.00236913 -1.65798e-17)
(-0.00329412 0.00272091 -1.70609e-17)
(-0.00369747 0.00304849 -1.38536e-17)
(-0.00407659 0.00335617 -9.95577e-18)
(-0.00443566 0.00364735 -7.62886e-18)
(-0.00477779 0.00392453 -6.61622e-18)
(-0.00510532 0.00418962 -5.92958e-18)
(-0.0054201 0.00444415 -5.45944e-18)
(-0.00572373 0.00468943 -5.38832e-18)
(-0.00601758 0.00492661 -5.39047e-18)
(-0.00630289 0.00515668 -5.11014e-18)
(-0.00658076 0.00538057 -4.43997e-18)
(-0.00685218 0.00559911 -3.22525e-18)
(-0.00711814 0.00581309 -1.88531e-18)
(-0.00737953 0.00602328 -3.04357e-19)
(-0.00763718 0.00623034 1.34547e-18)
(-0.00789184 0.00643489 2.33325e-18)
(-0.00814423 0.00663752 1.97929e-18)
(-0.00839502 0.00683878 1.98704e-18)
(-3.87493e-05 4.75063e-05 8.29564e-18)
(-4.7484e-05 4.9628e-05 3.61438e-18)
(-4.92922e-05 5.13816e-05 3.2114e-18)
(-5.16779e-05 5.30623e-05 4.52894e-18)
(-5.44558e-05 5.48175e-05 4.35373e-18)
(-5.74804e-05 5.66833e-05 3.16464e-18)
(-6.06484e-05 5.86474e-05 4.86922e-18)
(-6.38923e-05 6.06854e-05 7.81291e-18)
(-6.71682e-05 6.27742e-05 8.66919e-18)
(-7.04466e-05 6.48946e-05 1.31882e-17)
(-7.37066e-05 6.70311e-05 1.67325e-17)
(-7.6935e-05 6.91708e-05 2.12061e-17)
(-8.01309e-05 7.13024e-05 2.82501e-17)
(-8.33325e-05 7.34246e-05 3.81724e-17)
(-8.71251e-05 7.57728e-05 5.24463e-17)
(-9.95046e-05 8.44055e-05 6.50004e-17)
(-0.000141454 0.000115896 6.24099e-17)
(-0.000242435 0.00019445 5.58448e-17)
(-0.000439171 0.000349102 4.54005e-17)
(-0.000759498 0.000602516 2.23025e-17)
(-0.00119481 0.000946142 -2.53098e-18)
(-0.00169837 0.00134009 -1.3044e-17)
(-0.00221461 0.00173988 -2.11441e-17)
(-0.0027078 0.00211903 -2.7783e-17)
(-0.00316666 0.00247048 -2.75343e-17)
(-0.00359303 0.00279648 -2.3661e-17)
(-0.00399224 0.0031014 -2.01445e-17)
(-0.00436917 0.00338899 -1.71004e-17)
(-0.00472743 0.00366203 -1.4271e-17)
(-0.00506973 0.00392258 -1.2214e-17)
(-0.00539814 0.00417226 -1.05872e-17)
(-0.00571443 0.00441244 -9.89775e-18)
(-0.00602009 0.00464427 -8.58351e-18)
(-0.00631645 0.0048688 -6.23993e-18)
(-0.00660467 0.00508695 -3.89613e-18)
(-0.00688585 0.00529956 -1.13568e-18)
(-0.00716098 0.0055074 8.54303e-19)
(-0.00743102 0.00571124 2.1064e-18)
(-0.00769685 0.00591175 2.35143e-18)
(-0.00795927 0.00610957 2.68024e-18)
(-0.00821905 0.00630528 2.99557e-18)
(-0.00847691 0.00649944 3.65098e-18)
(-3.88375e-05 4.54966e-05 7.45689e-19)
(-4.69264e-05 4.77212e-05 2.96464e-18)
(-4.88799e-05 4.96165e-05 2.57685e-18)
(-5.13047e-05 5.13691e-05 3.72146e-18)
(-5.40873e-05 5.31096e-05 4.07548e-18)
(-5.71222e-05 5.49003e-05 2.64969e-18)
(-6.03198e-05 5.67567e-05 3.75331e-18)
(-6.3613e-05 5.86721e-05 4.62605e-18)
(-6.69541e-05 6.06327e-05 5.71078e-18)
(-7.03091e-05 6.2624e-05 9.32993e-18)
(-7.36535e-05 6.46327e-05 1.28218e-17)
(-7.69681e-05 6.66472e-05 1.71564e-17)
(-8.02351e-05 6.8657e-05 2.01373e-17)
(-8.3429e-05 7.06541e-05 2.66099e-17)
(-8.65342e-05 7.26552e-05 3.45674e-17)
(-9.38067e-05 7.64606e-05 3.93186e-17)
(-0.000118879 9.33919e-05 2.47072e-17)
(-0.00018822 0.000144164 1.84574e-17)
(-0.000338935 0.000254926 4.13352e-17)
(-0.000607033 0.000454134 5.52551e-17)
(-0.0010036 0.00074971 3.09532e-17)
(-0.00149578 0.00111414 1.88189e-18)
(-0.00202516 0.00150204 -1.91228e-17)
(-0.00254357 0.00187815 -4.07067e-17)
(-0.00302915 0.00222838 -4.60833e-17)
(-0.00347957 0.00255229 -4.12604e-17)
(-0.00389968 0.00285391 -3.55623e-17)
(-0.00429495 0.00313731 -2.98928e-17)
(-0.00466967 0.00340559 -2.36147e-17)
(-0.00502694 0.00366103 -1.73997e-17)
(-0.00536915 0.00390533 -1.23725e-17)
(-0.00569821 0.0041399 -8.84166e-18)
(-0.00601573 0.00436593 -5.6895e-18)
(-0.00632315 0.00458449 -2.70327e-18)
(-0.00662173 0.00479652 -8.0995e-19)
(-0.00691264 0.00500285 6.48109e-19)
(-0.00719692 0.00520427 1.26854e-18)
(-0.00747557 0.00540149 1.70376e-18)
(-0.00774951 0.0055952 2.1173e-18)
(-0.00801962 0.00578605 2.09332e-18)
(-0.00828671 0.00597462 1.92787e-18)
(-0.00855152 0.00616146 1.88537e-18)
(-3.88294e-05 4.34382e-05 -5.42131e-18)
(-4.6348e-05 4.56823e-05 1.26401e-18)
(-4.84823e-05 4.76435e-05 2.28049e-18)
(-5.1003e-05 4.94434e-05 3.57749e-18)
(-5.38359e-05 5.11827e-05 3.18127e-18)
(-5.69063e-05 5.29253e-05 2.68728e-18)
(-6.01426e-05 5.47003e-05 2.50212e-18)
(-6.34843e-05 5.65143e-05 1.90491e-18)
(-6.68848e-05 5.83628e-05 4.16726e-18)
(-7.0309e-05 6.02369e-05 5.79212e-18)
(-7.37313e-05 6.21267e-05 7.96146e-18)
(-7.71326e-05 6.40226e-05 1.10716e-17)
(-8.05008e-05 6.59159e-05 1.12446e-17)
(-8.38333e-05 6.77988e-05 1.41093e-17)
(-8.71556e-05 6.96667e-05 1.74152e-17)
(-9.13134e-05 7.17823e-05 1.94563e-17)
(-0.000105189 8.02027e-05 1.86543e-17)