/*--------------------------------*- C++ -*----------------------------------*\
  =========                 |
  \\      /  F ield         | OpenFOAM: The Open Source CFD Toolbox
   \\    /   O peration     | Website:  https://openfoam.org
    \\  /    A nd           | Version:  7
     \\/     M anipulation  |
\*---------------------------------------------------------------------------*/
FoamFile
{
    version     2.0;
    format      ascii;
    class       surfaceScalarField;
    location    "52000";
    object      phi;
}
// * * * * * * * * * * * * * * * * * * * * * * * * * * * * * * * * * * * * * //

dimensions      [0 3 -1 0 0 0 0];

internalField   nonuniform List<scalar> 
9414
(
4.57158e-23
1.1777e-24
4.23983e-23
1.0049e-24
3.95721e-23
9.54668e-25
3.69596e-23
1.01796e-24
-5.80262e-24
9.04418e-25
6.28058e-24
9.55894e-25
6.94249e-24
9.13876e-25
8.70699e-24
7.61332e-25
1.93951e-23
6.70936e-25
7.39836e-25
-1.75223e-24
5.63683e-24
1.63425e-23
6.25385e-24
2.49689e-23
5.48168e-24
3.43496e-23
5.69794e-24
2.34284e-23
6.10031e-24
-3.57188e-23
5.31501e-24
-7.72574e-23
6.47997e-24
-1.4452e-23
7.46408e-24
2.30099e-23
7.64505e-24
3.91275e-23
7.93864e-24
3.97943e-23
8.05275e-24
3.63393e-23
8.03026e-24
6.89072e-24
7.81897e-24
3.26812e-23
7.2565e-24
4.71231e-23
7.49978e-24
4.88921e-23
7.48883e-24
4.74568e-23
7.90177e-24
4.51799e-23
8.46922e-24
6.68883e-23
7.48524e-24
1.15203e-22
7.56214e-24
1.12257e-22
6.90046e-24
1.13135e-22
6.04284e-24
6.37995e-23
5.46243e-24
6.18653e-23
5.40932e-24
5.70676e-23
5.51746e-24
9.88844e-23
5.6338e-24
1.49554e-22
5.02319e-24
1.47855e-22
4.19641e-24
1.21936e-22
3.7746e-24
1.25627e-22
3.73388e-24
1.53021e-22
3.49777e-24
1.50646e-22
3.14166e-24
1.40337e-22
2.81451e-24
1.14544e-22
2.28863e-24
1.08662e-22
1.90911e-24
1.13385e-22
1.90413e-24
1.08945e-22
1.56138e-24
1.05976e-22
1.30627e-24
1.04006e-22
1.02295e-24
1.01756e-22
7.00106e-25
8.994e-23
1.11843e-25
8.11198e-23
2.17077e-25
8.1609e-23
-6.2047e-26
6.57544e-23
-3.55658e-25
2.18489e-23
-4.96046e-25
2.84055e-23
-3.30268e-25
3.60589e-23
-1.37739e-25
5.86534e-23
-3.08199e-25
4.88609e-23
-4.7477e-25
4.05483e-23
-5.02188e-25
1.65174e-23
-5.4381e-25
2.00451e-23
-3.57241e-25
2.11709e-23
-3.91973e-25
4.82378e-23
-5.0851e-25
-6.21506e-25
-6.95067e-23
3.60517e-24
-1.10814e-22
2.64023e-24
-7.30345e-23
3.64693e-24
-7.70243e-23
3.27196e-24
-8.26855e-23
2.79792e-24
-1.08346e-22
2.52159e-24
-1.33126e-22
1.42585e-24
-1.34993e-22
5.98175e-25
-1.34196e-22
1.57379e-24
-1.57034e-22
6.34003e-25
-1.50331e-22
4.53311e-25
-1.42192e-22
-6.01099e-26
-1.32456e-22
-9.32357e-25
-1.01655e-22
-1.07264e-24
-8.95193e-23
-9.76551e-26
-7.70749e-23
2.45384e-25
-1.08684e-22
7.17122e-25
-1.62694e-22
1.3753e-24
-1.26925e-22
2.56781e-24
-1.13031e-22
2.88315e-24
-1.24244e-22
3.55826e-24
-1.02515e-22
3.89892e-24
-1.01384e-22
4.72156e-24
-9.72764e-23
5.42941e-24
-7.63058e-23
5.93487e-24
-7.44337e-23
5.77469e-24
-7.49208e-23
5.75662e-24
-6.76882e-24
5.83865e-24
-1.06042e-23
5.38527e-24
-1.61218e-23
5.10654e-24
-1.17372e-23
5.38209e-24
-1.9439e-23
4.93603e-24
-3.17363e-23
4.73978e-24
5.51509e-24
4.46709e-24
1.71903e-24
4.26325e-24
1.88256e-23
4.18011e-24
1.3085e-23
4.05969e-24
-3.07755e-23
4.05207e-24
-1.88249e-23
4.04398e-24
-5.61397e-24
3.78505e-24
-1.09688e-23
3.67269e-24
-1.31883e-23
3.50188e-24
-8.03644e-24
3.1115e-24
9.06465e-24
3.05151e-24
4.75378e-23
2.96482e-24
3.22579e-23
2.8877e-24
2.01315e-23
2.72291e-24
1.23222e-23
2.46886e-24
2.57099e-23
2.48822e-24
2.3792e-23
2.03654e-24
3.35609e-24
1.8475e-24
-1.3389e-23
1.79156e-24
-1.5131e-23
1.81959e-24
-1.85073e-23
1.91324e-24
1.81728e-24
-1.38715e-22
-1.10139e-25
-1.22701e-22
1.32849e-24
-1.25975e-22
1.33401e-24
-8.20731e-23
1.39469e-24
-3.81498e-23
2.05998e-24
-1.91698e-23
2.20818e-24
3.8399e-26
2.97501e-24
8.45536e-25
3.12135e-24
-4.11186e-23
3.15678e-24
-3.83222e-23
3.49455e-24
-3.68688e-23
2.85418e-24
-3.88085e-23
2.99662e-24
2.16351e-23
2.94176e-24
1.06973e-22
3.24982e-24
7.08961e-23
2.53859e-24
6.52759e-23
1.72967e-24
5.50706e-23
1.98033e-24
4.25509e-23
2.72972e-24
3.24201e-23
2.69052e-24
4.83902e-23
3.81115e-24
4.57804e-23
3.78505e-24
6.71688e-23
4.54339e-24
7.07316e-23
4.16635e-24
3.33844e-23
4.30689e-24
-5.10777e-25
5.30143e-24
-1.13643e-23
5.85218e-24
1.43444e-23
6.44218e-24
1.35943e-23
6.86332e-24
3.0698e-23
7.33581e-24
4.89256e-23
7.37334e-24
-4.97928e-24
7.47164e-24
3.05566e-23
7.39945e-24
1.82983e-23
7.49329e-24
5.63132e-23
7.69003e-24
4.82257e-23
7.44488e-24
7.13949e-23
7.17647e-24
4.80398e-23
7.03951e-24
4.52406e-23
7.06591e-24
4.15096e-23
6.83506e-24
3.79853e-23
6.76699e-24
3.59005e-23
6.84649e-24
3.7719e-23
6.53157e-24
3.31934e-23
6.39914e-24
2.67489e-23
6.34311e-24
5.18245e-23
6.31221e-24
5.19067e-23
6.11234e-24
4.5898e-23
6.1741e-24
3.7851e-23
5.89261e-24
1.48808e-23
5.63903e-24
1.2474e-23
5.70864e-24
3.97892e-23
5.68183e-24
3.64725e-23
5.47228e-24
4.63559e-23
5.2766e-24
4.76754e-23
5.10391e-24
5.0027e-24
-7.1988e-23
-8.32382e-26
-6.3215e-23
-7.5893e-25
-7.91173e-23
-5.14043e-25
-5.75434e-23
1.01398e-26
-6.87054e-23
3.22568e-25
-2.27839e-23
1.03533e-24
1.94887e-23
9.99822e-25
3.06149e-24
3.6205e-25
-2.8645e-23
-1.99763e-25
-3.72799e-23
-1.05766e-24
-3.48511e-26
-2.65705e-25
3.19624e-23
5.25208e-25
4.22497e-23
3.49084e-25
4.24357e-23
-6.89947e-25
1.86846e-23
-1.15883e-24
3.00532e-23
-1.062e-24
-1.85601e-23
-7.15253e-25
-2.19481e-23
-1.02032e-24
-2.7488e-23
-3.98108e-25
-5.49904e-23
-3.61224e-25
-7.47506e-23
1.6397e-25
-8.4679e-23
3.51387e-25
-7.80014e-23
1.10567e-24
-5.86477e-23
1.02732e-24
-6.19609e-23
8.24083e-25
-5.3031e-23
7.42959e-25
-3.35847e-23
1.0929e-24
-2.36952e-23
5.95854e-25
-5.82161e-24
1.71661e-25
-5.18586e-23
2.52267e-25
-1.04181e-22
5.463e-25
-7.35592e-23
1.00269e-24
-4.63096e-23
1.4685e-24
-7.81034e-23
1.23648e-24
-7.47803e-23
1.82302e-24
-3.93252e-23
2.40521e-24
-2.95833e-23
2.28927e-24
-7.60772e-23
2.11427e-24
-9.71786e-23
2.15776e-24
-1.11111e-22
2.27186e-24
-1.0212e-22
2.4694e-24
-7.23289e-23
2.62619e-24
-5.33619e-23
2.70874e-24
-3.19843e-23
2.74446e-24
-2.24878e-23
2.52113e-24
-3.17231e-23
2.47438e-24
-5.57943e-23
2.21913e-24
-6.37183e-23
2.2348e-24
-4.70681e-23
2.47168e-24
-4.5398e-23
2.33449e-24
-4.45362e-23
2.2585e-24
-3.98558e-23
2.28268e-24
-2.80884e-23
2.2446e-24
-3.11385e-23
2.18e-24
2.00307e-24
-1.14616e-22
-1.14992e-24
-1.20879e-22
-3.3808e-25
-1.22522e-22
-5.25069e-25
-1.18226e-22
-6.23113e-25
-1.12143e-22
-2.9895e-25
-1.31282e-22
2.96188e-26
-1.30918e-22
7.64031e-25
-1.49339e-22
1.45349e-24
-1.2097e-22
9.83143e-25
-7.08756e-23
2.22875e-24
-6.64396e-23
2.7305e-24
-8.32942e-23
2.20392e-24
-8.10457e-23
2.99213e-24
-7.42817e-23
3.64111e-24
-2.64106e-23
3.39244e-24
-1.90153e-23
3.23404e-24
1.29423e-24
2.33767e-24
4.91305e-24
2.66135e-24
8.47784e-24
2.95826e-24
6.2427e-23
3.40144e-24
2.48578e-23
3.59513e-24
5.07135e-23
3.4186e-24
5.19341e-23
3.38537e-24
3.33591e-23
3.7267e-24
5.64895e-23
3.41126e-24
2.60832e-23
3.60069e-24
-1.84632e-23
3.35423e-24
-1.78185e-23
3.84872e-24
-1.68764e-23
4.23415e-24
1.92508e-23
4.22629e-24
9.12322e-24
3.929e-24
3.33877e-23
4.01501e-24
1.74061e-23
3.89916e-24
5.03924e-23
4.32325e-24
4.61169e-23
3.93507e-24
1.27098e-23
3.52838e-24
4.95211e-24
3.34753e-24
2.34039e-23
3.23115e-24
5.30854e-23
3.31041e-24
2.9105e-23
3.23545e-24
3.10005e-23
2.82127e-24
3.55033e-23
2.84298e-24
3.81527e-23
2.58899e-24
3.33266e-24
2.34862e-24
5.91021e-24
2.14516e-24
-8.90286e-24
1.79239e-24
-6.11609e-25
1.81627e-24
1.22624e-23
1.81175e-24
1.71066e-23
1.50596e-24
2.20031e-23
1.58491e-24
2.54716e-23
1.55195e-24
2.78099e-23
1.38135e-24
2.17286e-23
1.29941e-24
1.35186e-23
1.18608e-24
1.18056e-24
-5.93457e-23
1.78058e-24
-4.17961e-23
1.09607e-24
-2.33738e-23
8.30307e-25
-4.22489e-23
1.13893e-24
-3.51421e-23
8.28216e-25
-3.152e-23
1.04868e-24
-4.84104e-23
1.20111e-24
-4.94394e-23
1.96927e-24
-5.67668e-24
2.09748e-24
2.49555e-23
1.28359e-24
-1.22578e-23
1.11238e-24
-5.28814e-24
1.10307e-24
-4.3814e-23
6.44729e-25
-1.14013e-22
6.01638e-25
-1.1338e-22
1.47787e-24
-1.11489e-22
2.09535e-24
-9.45934e-23
2.89517e-24
-9.83385e-23
3.13659e-24
-9.80873e-23
3.66634e-24
-1.21896e-22
3.72608e-24
-1.25569e-22
4.41916e-24
-1.27966e-22
4.79299e-24
-1.3267e-22
5.46851e-24
-1.40583e-22
6.01256e-24
-1.04302e-22
6.41377e-24
-7.69707e-23
6.96448e-24
-1.03757e-22
7.36179e-24
-5.0225e-23
7.73845e-24
-8.1048e-23
7.24982e-24
-4.69592e-23
7.08561e-24
-1.19114e-23
6.85667e-24
-9.00015e-24
6.88725e-24
-1.65847e-23
6.60621e-24
-6.2778e-23
6.38065e-24
-6.73904e-23
6.62323e-24
-9.11927e-23
6.2169e-24
-6.21799e-23
5.88377e-24
-4.48194e-23
5.47519e-24
-4.94052e-23
5.32126e-24
-5.24108e-23
5.21091e-24
-5.5718e-23
5.07529e-24
-6.1079e-23
4.76984e-24
-4.64665e-23
5.02544e-24
-5.67172e-23
4.75592e-24
-6.79251e-23
4.79434e-24
-3.98452e-23
4.88116e-24
-7.01966e-23
4.54247e-24
-4.24206e-23
4.48613e-24
-2.65758e-23
4.31612e-24
-1.39649e-23
4.06136e-24
-3.50702e-23
3.73311e-24
-1.65712e-23
3.55901e-24
-1.91586e-23
3.29784e-24
-1.42848e-23
3.1053e-24
-2.33446e-23
3.02869e-24
-1.84379e-23
2.9223e-24
-1.47845e-23
2.90819e-24
-1.59914e-23
2.86999e-24
2.82311e-24
-1.86343e-22
-2.79514e-24
-1.6573e-22
-2.97689e-24
-1.44398e-22
-3.03885e-24
-1.3981e-22
-3.10287e-24
-1.32173e-22
-2.62157e-24
-1.07199e-22
-2.47116e-24
-8.12929e-23
-2.475e-24
-1.19936e-22
-2.46978e-24
-1.10476e-22
-2.49404e-24
-7.68632e-23
-1.58856e-24
-7.0607e-23
-2.21894e-24
-6.59387e-23
-2.39675e-24
-6.06246e-23
-1.98101e-24
-5.58818e-23
-1.50281e-24
-5.14487e-23
-1.80588e-24
-4.53936e-23
-6.76224e-25
-4.75815e-23
2.32076e-26
-2.11532e-23
6.7042e-25
-1.61424e-23
1.6917e-24
-1.4501e-23
2.3566e-24
1.2256e-23
2.3717e-24
-4.25875e-24
2.76538e-24
5.54426e-25
2.81849e-24
4.20908e-24
3.31432e-24
3.06714e-24
3.39257e-24
2.54144e-23
3.58712e-24
2.4692e-24
3.86329e-24
-6.35429e-23
3.19044e-24
-6.63702e-23
3.67585e-24
-7.01919e-23
4.09057e-24
-3.87624e-23
4.24363e-24
-4.11058e-23
4.03895e-24
-1.22758e-23
3.59948e-24
-4.87378e-23
3.56774e-24
-7.4245e-23
3.25425e-24
-1.14921e-22
3.03536e-24
-1.14542e-22
3.20529e-24
-7.44331e-23
3.09779e-24
-1.0437e-22
3.00259e-24
-9.55614e-23
2.89245e-24
-6.33123e-23
2.70647e-24
-7.22137e-23
2.52326e-24
-5.50643e-23
2.29668e-24
-7.18766e-23
2.04606e-24
-8.08458e-23
1.85366e-24
-7.55389e-23
1.88586e-24
-6.54331e-23
1.77424e-24
-6.38423e-23
1.76791e-24
-7.91202e-23
1.45776e-24
-5.8546e-23
1.41708e-24
-5.5035e-23
1.39283e-24
-5.32319e-23
1.23142e-24
-3.0681e-23
1.31716e-24
6.05679e-24
1.26251e-24
6.4264e-24
1.06943e-24
1.3144e-23
1.00253e-24
7.60855e-24
8.28838e-25
9.45872e-24
8.46811e-25
1.53454e-24
7.03453e-25
6.28561e-25
-1.05835e-22
-6.30908e-24
-9.93469e-23
-5.89882e-24
-1.15869e-22
-4.9575e-24
-1.21737e-22
-4.87957e-24
-1.35576e-22
-5.9595e-24
-1.39682e-22
-5.33265e-24
-1.38561e-22
-5.86978e-24
-1.58818e-22
-5.25162e-24
-1.79564e-22
-4.61667e-24
-1.56467e-22
-4.14633e-24
-1.05908e-22
-3.76213e-24
-1.06998e-22
-4.20519e-24
-1.20024e-22
-4.54782e-24
-1.41964e-22
-4.80389e-24
-1.69135e-22
-4.58091e-24
-1.69277e-22
-4.61211e-24
-1.65188e-22
-4.63021e-24
-1.56078e-22
-5.36481e-24
-1.67901e-22
-4.36239e-24
-2.27379e-22
-4.16255e-24
-2.15212e-22
-3.2243e-24
-2.05484e-22
-2.80816e-24
-1.54156e-22
-2.20714e-24
-1.49829e-22
-2.13906e-24
-1.4822e-22
-1.72489e-24
-1.59912e-22
-1.47945e-24
-2.27085e-22
-1.30084e-24
-2.21016e-22
-3.21558e-25
-1.9416e-22
5.271e-26
-1.90707e-22
-1.60702e-25
-2.21346e-22
1.15751e-25
-2.16795e-22
3.93291e-25
-1.89379e-22
6.95875e-25
-1.68252e-22
1.00181e-24
-1.69604e-22
6.52053e-25
-1.70718e-22
6.96269e-25
-1.52774e-22
1.27107e-24
-1.34917e-22
1.13429e-24
-1.36898e-22
8.89802e-25
-1.37181e-22
6.24727e-25
-1.1674e-22
1.12269e-24
-1.14882e-22
7.06186e-25
-1.14557e-22
6.4594e-25
-1.15992e-22
9.32608e-25
-6.9171e-23
9.46937e-25
-9.97442e-23
7.94789e-25
-9.69315e-23
7.88037e-25
-1.15594e-22
6.85507e-25
-1.09299e-22
7.79969e-25
-1.03674e-22
8.06984e-25
-1.01325e-22
8.83976e-25
-9.83847e-23
9.58278e-25
-9.46985e-23
8.85778e-25
-7.2697e-23
8.66303e-25
-7.21916e-23
9.60681e-25
-7.88325e-23
8.33316e-25
-5.0062e-23
7.65361e-25
-6.1545e-23
6.36288e-25
-6.03486e-23
5.62441e-25
-5.89103e-23
4.75214e-25
-4.71203e-23
4.76819e-25
-3.01788e-23
4.5237e-25
-1.66265e-23
3.73287e-25
-1.37583e-23
3.28905e-25
-2.6208e-23
3.87661e-25
-1.22442e-23
3.31123e-25
-1.50064e-23
2.31817e-25
7.03164e-24
1.89942e-25
5.06684e-24
1.04764e-25
1.28042e-23
4.43381e-26
1.07595e-23
-4.48524e-26
5.29621e-24
-1.09746e-25
1.63568e-23
-2.48074e-25
8.56694e-24
-3.28816e-25
1.7512e-23
-4.11825e-25
1.64977e-23
-4.78101e-25
9.59106e-24
-5.60477e-25
6.33574e-24
-6.28724e-25
7.62737e-24
-6.96664e-25
5.71344e-24
-7.56532e-25
6.34983e-24
-8.09011e-25
8.33188e-24
-8.4478e-25
5.94248e-24
-8.72279e-25
5.41682e-24
-8.89578e-25
4.69722e-24
-8.77289e-25
4.35465e-24
-8.67848e-25
1.66029e-24
-8.20115e-25
6.13592e-24
-7.33432e-25
4.97848e-24
-6.20048e-25
2.408e-24
-4.64436e-25
-2.65895e-25
-2.68442e-25
4.16887e-27
-4.1611e-26
-7.61558e-25
2.15492e-25
-2.90838e-25
5.08762e-25
-2.01892e-25
-7.19959e-23
-2.88487e-24
-5.55469e-23
-2.74167e-24
-6.17266e-23
-2.40087e-24
-6.06126e-23
-2.88345e-24
-2.24235e-23
-1.41595e-24
-2.28971e-23
-1.17341e-24
7.81354e-24
-4.67417e-26
8.50602e-25
1.4956e-25
-1.32554e-23
9.68508e-25
1.84165e-25
1.59383e-24
-1.00674e-23
8.75596e-25
1.0692e-23
2.23176e-25
6.11453e-24
-3.15877e-27
-6.17361e-25
-1.29325e-24
-2.73127e-23
-1.88133e-24
-3.38786e-23
-2.68495e-24
-4.00934e-23
-3.32748e-24
-4.93629e-24
-3.12576e-24
-9.08858e-24
-4.31147e-24
-6.70853e-23
-5.07617e-24
-7.07391e-23
-5.95283e-24
-8.8488e-23
-6.09607e-24
-8.64841e-23
-6.68474e-24
-7.94949e-23
-7.15686e-24
-7.05663e-23
-7.54116e-24
-5.76901e-23
-8.21624e-24
-6.28014e-23
-8.59226e-24
-1.12386e-22
-9.06239e-24
-1.33945e-22
-8.93127e-24
-1.21411e-22
-8.38909e-24
-1.05103e-22
-7.92982e-24
-1.29805e-22
-8.05835e-24
-1.21068e-22
-7.66311e-24
-1.7875e-22
-7.10187e-24
-1.44532e-22
-6.51486e-24
-1.66984e-22
-5.73823e-24
-2.03935e-22
-5.6854e-24
-2.11097e-22
-5.0747e-24
-2.05349e-22
-4.73444e-24
-2.03893e-22
-4.10904e-24
-1.90962e-22
-3.82474e-24
-1.7714e-22
-3.96839e-24
-1.5516e-22
-3.5013e-24
-1.34817e-22
-3.76049e-24
-1.30337e-22
-3.66514e-24
-1.44687e-22
-3.69553e-24
-1.42415e-22
-3.88304e-24
-1.37254e-22
-3.72156e-24
-1.32658e-22
-3.42737e-24
-8.97327e-23
-3.08664e-24
-9.28226e-23
-2.97078e-24
-9.18969e-23
-2.75372e-24
-8.49343e-23
-2.45648e-24
-9.23252e-23
-2.22828e-24
-9.2327e-23
-2.13484e-24
-7.7147e-23
-2.02418e-24
-8.8998e-23
-1.86788e-24
-6.97403e-23
-1.72322e-24
-6.61619e-23
-1.79967e-24
-4.99077e-23
-1.65992e-24
-3.55451e-23
-1.60574e-24
-2.79381e-23
-1.6208e-24
-1.62841e-23
-1.61933e-24
-1.10132e-23
-1.55227e-24
-3.5824e-23
-1.57685e-24
-3.43657e-23
-1.54539e-24
-3.37067e-23
-1.41713e-24
-3.23884e-23
-1.41222e-24
-1.94436e-23
-1.31813e-24
-2.75741e-23
-1.37898e-24
-2.84637e-23
-1.35768e-24
-3.92878e-23
-1.39179e-24
-3.07169e-23
-1.36923e-24
-2.19999e-23
-1.35134e-24
-1.71703e-23
-1.35504e-24
-1.68559e-23
-1.40865e-24
-1.5255e-23
-1.42753e-24
-1.00585e-23
-1.45916e-24
-1.53949e-23
-1.46103e-24
-8.90886e-24
-1.45107e-24
-1.38592e-23
-1.47246e-24
-1.0229e-23
-1.45879e-24
-8.89782e-24
-1.44563e-24
-8.96377e-24
-1.4056e-24
-1.21879e-23
-1.36779e-24
-1.07959e-23
-1.2891e-24
-8.21277e-24
-1.19753e-24
-6.10793e-24
-1.07224e-24
-3.02918e-24
-9.04583e-25
-2.58884e-24
-7.04576e-25
-9.19441e-25
-4.50546e-25
9.73523e-25
-1.48579e-25
1.19919e-25
1.95791e-25
1.38703e-25
6.09262e-25
-1.95852e-25
-6.2876e-23
-4.62334e-24
-1.08235e-22
-4.27735e-24
-1.24006e-22
-5.33965e-24
-1.28131e-22
-4.92612e-24
-1.45117e-22
-5.63292e-24
-1.44748e-22
-5.39266e-24
-1.60947e-22
-5.06061e-24
-1.78548e-22
-5.29786e-24
-2.00299e-22
-4.27707e-24
-2.0055e-22
-4.34336e-24
-1.97917e-22
-4.88291e-24
-1.43684e-22
-6.25137e-24
-1.86269e-22
-7.01752e-24
-2.30095e-22
-8.01357e-24
-2.25423e-22
-8.95128e-24
-2.23438e-22
-8.25469e-24
-1.95321e-22
-8.79116e-24
-2.42118e-22
-9.54373e-24
-2.21386e-22
-9.18051e-24
-2.18814e-22
-9.41904e-24
-2.14636e-22
-9.58306e-24
-2.08365e-22
-9.77192e-24
-2.03949e-22
-9.75486e-24
-1.83963e-22
-9.76439e-24
-1.83738e-22
-9.62991e-24
-1.64106e-22
-9.55593e-24
-1.65661e-22
-9.83823e-24
-1.46131e-22
-9.68728e-24
-1.18295e-22
-9.52675e-24
-1.23638e-22
-9.55315e-24
-1.27795e-22
-9.80826e-24
-9.54775e-23
-9.84704e-24
-1.03638e-22
-1.0009e-23
-5.7401e-23
-9.97765e-24
-5.34046e-23
-1.05703e-23
-1.09212e-22
-1.09559e-23
-1.428e-22
-1.06806e-23
-1.32866e-22
-1.0288e-23
-1.31662e-22
-1.02568e-23
-1.73604e-22
-1.03426e-23
-1.5065e-22
-9.98116e-24
-1.691e-22
-9.70712e-24
-1.57988e-22
-9.32889e-24
-1.71549e-22
-9.08908e-24
-1.62287e-22
-8.86873e-24
-1.55927e-22
-8.46237e-24
-1.07028e-22
-8.02877e-24
-7.60268e-23
-7.84703e-24
-5.23485e-23
-8.00193e-24
-6.5165e-23
-8.06284e-24
-5.42675e-23
-7.89572e-24
-5.15858e-23
-7.73128e-24
-5.57355e-23
-7.69851e-24
-7.43614e-23
-7.68441e-24
-8.94362e-23
-7.58077e-24
-7.64251e-23
-7.48472e-24
-9.1709e-23
-7.34154e-24
-1.05401e-22
-7.30468e-24
-9.98562e-23
-7.08487e-24
-9.12233e-23
-6.94764e-24
-6.90226e-23
-6.75612e-24
-5.18816e-23
-6.78771e-24
-4.58393e-23
-6.73533e-24
-3.9743e-23
-6.65505e-24
-2.93956e-23
-6.60239e-24
-2.30907e-23
-6.46887e-24
-2.70929e-23
-6.33835e-24
-3.63396e-23
-6.32594e-24
-3.08074e-23
-6.16208e-24
-3.36781e-23
-5.98621e-24
-2.67254e-23
-5.8291e-24
-2.20903e-23
-5.6874e-24
-1.80616e-23
-5.56024e-24
-2.50312e-23
-5.40798e-24
-2.06229e-23
-5.2595e-24
-2.28303e-23
-5.08011e-24
-1.29853e-23
-4.94401e-24
-1.13681e-23
-4.77902e-24
-1.02037e-23
-4.63693e-24
-1.79526e-23
-4.47634e-24
-2.0058e-23
-4.29417e-24
-1.73646e-23
-4.1162e-24
-1.49167e-23
-3.91613e-24
-1.80513e-23
-3.73552e-24
-1.60222e-23
-3.51247e-24
-1.08306e-23
-3.25806e-24
-7.89177e-24
-3.002e-24
-6.32452e-24
-2.70045e-24
-5.10665e-24
-2.36011e-24
-4.97674e-24
-1.97546e-24
-4.10372e-24
-1.53688e-24
-2.95688e-24
-1.04466e-24
-4.01562e-25
-5.00718e-25
-2.3328e-25
1.14699e-25
-4.07266e-25
-2.52943e-23
-1.27175e-24
-2.38054e-23
-2.56101e-24
-2.78158e-23
-3.50506e-24
-4.67927e-23
-5.08225e-24
-3.08854e-23
-5.40827e-24
-3.8975e-23
-5.56006e-24
-3.47602e-23
-6.06651e-24
-3.14468e-23
-6.57001e-24
-4.85322e-23
-6.69255e-24
-8.64059e-23
-7.2371e-24
-7.66258e-23
-7.56416e-24
-7.03045e-23
-8.98285e-24
-9.02853e-23
-1.01416e-23
-8.13217e-23
-1.12962e-23
-7.75623e-23
-1.20751e-23
-9.73407e-23
-1.27091e-23
-1.41112e-22
-1.33053e-23
-9.70847e-23
-1.32376e-23
-1.43724e-22
-1.38974e-23
-1.44772e-22
-1.36767e-23
-1.44041e-22
-1.35314e-23
-1.40079e-22
-1.30831e-23
-1.36952e-22
-1.28171e-23
-1.17141e-22
-1.30681e-23
-1.33678e-22
-1.28689e-23
-1.32389e-22
-1.31988e-23
-8.35488e-23
-1.31016e-23
-7.91947e-23
-1.25423e-23
-7.50388e-23
-1.26848e-23
-1.18286e-22
-1.25252e-23
-9.24802e-23
-1.21611e-23
-8.8916e-23
-1.24432e-23
-7.51074e-23
-1.22632e-23
-6.91997e-23
-1.24389e-23
-5.71192e-23
-1.23513e-23
-4.95521e-23
-1.22863e-23
-3.18317e-23
-1.23473e-23
-1.50931e-23
-1.27041e-23
-4.58405e-23
-1.28316e-23
-1.54125e-23
-1.27612e-23
-1.52172e-23
-1.29767e-23
-4.33485e-23
-1.30237e-23
-6.01299e-23
-1.26432e-23
-5.48055e-23
-1.25282e-23
-7.09332e-23
-1.24409e-23
-6.42998e-23
-1.21987e-23
-8.9321e-23
-1.19345e-23
-1.00972e-22
-1.16074e-23
-9.34682e-23
-1.13391e-23
-9.177e-23
-1.09719e-23
-7.54871e-23
-1.0745e-23
-6.148e-23
-1.06402e-23
-6.6027e-23
-1.05218e-23
-6.07503e-23
-1.0254e-23
-5.57351e-23
-1.00124e-23
-5.14202e-23
-9.68365e-24
-6.10238e-23
-9.5236e-24
-4.44559e-23
-9.21541e-24
-5.28388e-23
-8.97015e-24
-6.15333e-23
-8.84799e-24
-5.24994e-23
-8.60726e-24
-4.35395e-23
-8.35775e-24
-4.06295e-23
-8.07888e-24
-3.86335e-23
-7.91065e-24
-2.13238e-23
-7.69211e-24
-3.01432e-23
-7.53721e-24
-2.55484e-23
-7.40086e-24
-2.51657e-23
-7.13702e-24
-1.95752e-23
-6.99028e-24
-1.79568e-23
-6.82955e-24
-1.58508e-23
-6.64818e-24
-1.39461e-23
-6.456e-24
-4.83208e-24
-6.25227e-24
-3.52862e-24
-6.06065e-24
-2.11401e-24
-5.88404e-24
-7.22709e-24
-5.71471e-24
-3.64063e-25
-5.49879e-24
3.82209e-25
-5.3183e-24
-3.71029e-25
-5.10006e-24
2.23174e-24
-4.92572e-24
2.25866e-24
-4.71161e-24
-1.27864e-24
-4.50382e-24
-7.57375e-25
-4.27772e-24
-3.88452e-25
-4.02547e-24
-3.8183e-24
-3.74217e-24
-2.20562e-24
-3.45094e-24
-3.01442e-24
-3.14983e-24
-2.7857e-24
-2.79991e-24
-1.61469e-24
-2.42217e-24
1.15209e-24
-2.00325e-24
1.26072e-24
-1.53572e-24
1.64307e-25
-1.01775e-24
-6.44249e-25
-4.58875e-25
9.42203e-26
1.68727e-25
-3.04123e-25
-1.01413e-22
-4.78676e-24
-1.10851e-22
-3.26387e-24
-1.15415e-22
-2.18942e-24
-1.13174e-22
-2.43141e-24
-6.73066e-23
-1.73461e-24
-6.42861e-23
-2.07831e-24
-6.11859e-23
-1.03136e-24
-4.41627e-23
-6.85943e-25
-4.17366e-23
-1.24474e-24
-4.51854e-23
-1.02501e-24
-4.35637e-23
-2.81236e-24
-4.11961e-23
-4.05085e-24
-4.02303e-23
-5.28136e-24
-3.8725e-23
-7.20566e-24
-8.25441e-23
-8.66307e-24
-7.75441e-23
-9.95606e-24
-7.78814e-23
-1.08417e-23
-8.14754e-23
-1.21085e-23
-8.76935e-23
-1.27647e-23
-9.21766e-23
-1.34496e-23
-8.49233e-23
-1.39182e-23
-1.0651e-22
-1.44448e-23
-1.50068e-22
-1.51925e-23
-1.24846e-22
-1.56981e-23
-1.22378e-22
-1.6309e-23
-1.4526e-22
-1.66137e-23
-7.93251e-23
-1.60559e-23
-9.75857e-23
-1.65063e-23
-9.56832e-23
-1.6875e-23
-1.26022e-22
-1.72319e-23
-1.35818e-22
-1.75838e-23
-1.56614e-22
-1.73315e-23
-1.17183e-22
-1.76581e-23
-1.0794e-22
-1.78085e-23
-1.56106e-22
-1.75905e-23
-1.48513e-22
-1.72345e-23
-1.73323e-22
-1.69872e-23
-1.59258e-22
-1.70664e-23
-1.57304e-22
-1.67419e-23
-1.95518e-22
-1.62093e-23
-1.58657e-22
-1.56254e-23
-1.37125e-22
-1.526e-23
-1.16211e-22
-1.5183e-23
-1.1124e-22
-1.49062e-23
-1.04e-22
-1.45534e-23
-7.23215e-23
-1.42972e-23
-8.94318e-23
-1.40322e-23
-8.41367e-23
-1.36239e-23
-6.74875e-23
-1.32822e-23
-6.87307e-23
-1.31493e-23
-7.61504e-23
-1.30187e-23
-7.1834e-23
-1.26646e-23
-7.99899e-23
-1.23113e-23
-7.66542e-23
-1.22357e-23
-7.8435e-23
-1.20443e-23
-8.54678e-23
-1.18259e-23
-8.53654e-23
-1.1463e-23
-9.17424e-23
-1.13135e-23
-1.0924e-22
-1.11732e-23
-1.064e-22
-1.08875e-23
-9.22368e-23
-1.05808e-23
-8.22939e-23
-1.036e-23
-8.41053e-23
-1.01123e-23
-7.67722e-23
-9.89044e-24
-7.50255e-23
-9.63405e-24
-6.54717e-23
-9.39339e-24
-5.6679e-23
-9.13458e-24
-4.84986e-23
-8.88277e-24
-4.36902e-23
-8.65474e-24
-3.79717e-23
-8.33008e-24
-2.20142e-23
-8.09904e-24
-1.90945e-23
-7.83562e-24
-2.44144e-23
-7.5813e-24
-1.44992e-23
-7.31187e-24
-1.25572e-23
-7.07461e-24
-7.91971e-25
-6.82477e-24
-2.47854e-24
-6.58745e-24
-5.44278e-25
-6.31484e-24
-3.93863e-24
-6.07712e-24
-2.18056e-24
-5.8012e-24
-1.03941e-23
-5.55384e-24
-9.04815e-24
-5.27303e-24
-3.43646e-24
-4.96931e-24
-2.64221e-24
-4.68564e-24
-7.37928e-24
-4.38035e-24
-7.06897e-24
-4.04361e-24
-3.90527e-24
-3.66972e-24
-3.49612e-24
-3.27699e-24
-3.2059e-26
-2.85181e-24
1.32852e-24
-2.39911e-24
1.68045e-24
-1.90584e-24
-3.25182e-25
-1.36567e-24
-8.46835e-25
-7.90517e-25
-2.91129e-25
-1.64127e-25
-3.91442e-25
-4.92862e-23
-3.63845e-24
-4.24384e-23
-4.19543e-24
-5.66815e-23
-4.2444e-24
-6.95158e-23
-4.11744e-24
-2.17921e-23
-3.90441e-24
-2.14886e-23
-2.93577e-24
-3.97669e-23
-3.08825e-24
-3.61444e-23
-2.58759e-24
-4.18535e-23
-1.75655e-24
-7.1479e-23
-1.28786e-24
-3.89977e-23
-1.16045e-24
-2.59935e-23
-1.04537e-24
-9.84587e-24
-2.20739e-24
5.18643e-24
-3.2639e-24
-4.68066e-24
-3.98095e-24
8.50447e-24
-4.58477e-24
-9.56199e-25
-5.64032e-24
8.79843e-24
-6.31466e-24
-1.88481e-24
-6.95574e-24
1.26191e-23
-7.86301e-24
-1.4635e-24
-8.22031e-24
1.04409e-23
-8.60252e-24
-5.71819e-24
-9.28194e-24
-1.85293e-23
-9.84998e-24
3.95046e-23
-1.01235e-23
4.41702e-23
-1.04282e-23
7.85695e-23
-1.09689e-23
6.4644e-23
-1.22185e-23
5.27261e-23
-1.29051e-23
4.39309e-23
-1.31594e-23
7.32236e-23
-1.3993e-23
6.84056e-23
-1.45059e-23
3.57039e-23
-1.47606e-23
9.08115e-23
-1.51457e-23
8.82776e-23
-1.54258e-23
4.7068e-23
-1.5498e-23
2.38726e-23
-1.59631e-23
4.29214e-23
-1.57668e-23
5.7868e-23
-1.57491e-23
5.61247e-23
-1.58886e-23
5.43633e-23
-1.59355e-23
3.2482e-23
-1.58997e-23
2.87216e-23
-1.58895e-23
5.72556e-23
-1.57609e-23
3.73747e-23
-1.58703e-23
2.74505e-23
-1.59835e-23
2.70893e-23
-1.5936e-23
1.58342e-24
-1.58783e-23
-7.0723e-24
-1.5849e-23
-2.85491e-23
-1.56711e-23
1.27443e-23
-1.536e-23
-1.4274e-23
-1.53315e-23
-2.58117e-23
-1.51255e-23
-3.68811e-23
-1.48109e-23
-3.39879e-23
-1.45149e-23
-3.21575e-23
-1.4339e-23
-5.99117e-23
-1.40663e-23
-5.94383e-23
-1.36992e-23
-6.00481e-23
-1.33007e-23
-5.3422e-23
-1.28808e-23
-5.20042e-23
-1.25748e-23
-3.92817e-23
-1.22093e-23
-5.34308e-23
-1.19605e-23
-4.95714e-23
-1.17361e-23
-4.18907e-23
-1.13577e-23
-3.52442e-23
-1.09685e-23
-2.7576e-23
-1.06462e-23
-2.49957e-23
-1.02538e-23
-2.19223e-23
-9.91548e-24
-1.92039e-23
-9.55364e-24
-1.70073e-23
-9.249e-24
-1.09117e-23
-8.97231e-24
-1.37945e-23
-8.69092e-24
-1.99421e-23
-8.40839e-24
-1.08656e-23
-8.12847e-24
-1.5799e-23
-7.83001e-24
-1.61249e-24
-7.53189e-24
-9.31807e-26
-7.24529e-24
-7.51127e-24
-6.94991e-24
-5.88525e-24
-6.66019e-24
-4.03462e-24
-6.33302e-24
-2.23455e-24
-6.03694e-24
-4.69776e-25
-5.72119e-24
1.0132e-24
-5.37543e-24
-9.93608e-25
-5.0247e-24
2.02606e-24
-4.63206e-24
3.22382e-24
-4.21907e-24
1.56004e-24
-3.77047e-24
-6.00524e-25
-3.29214e-24
-1.77757e-24
-2.75588e-24
1.29427e-25
-2.17856e-24
2.2689e-25
-1.55203e-24
-1.8188e-25
-8.96807e-25
1.65891e-26
-1.92619e-25
-3.33521e-25
-1.13327e-22
-1.24749e-23
-1.06046e-22
-1.15625e-23
-1.19826e-22
-1.07542e-23
-1.58537e-22
-1.00119e-23
-1.34734e-22
-9.16797e-24
-1.71068e-22
-9.85411e-24
-1.62503e-22
-9.61342e-24
-1.60066e-22
-9.80606e-24
-1.98703e-22
-9.85373e-24
-1.97334e-22
-8.64719e-24
-1.68032e-22
-9.489e-24
-1.84541e-22
-9.40681e-24
-1.7895e-22
-1.077e-23
-1.49529e-22
-1.18925e-23
-1.44752e-22
-1.27213e-23
-1.40998e-22
-1.41459e-23
-1.35555e-22
-1.49747e-23
-1.54266e-22
-1.54882e-23
-1.53565e-22
-1.66865e-23
-1.48836e-22
-1.69238e-23
-1.44648e-22
-1.82123e-23
-1.89789e-22
-1.83277e-23
-1.86654e-22
-1.8361e-23
-1.80166e-22
-1.81432e-23
-1.73462e-22
-1.78354e-23
-1.88046e-22
-1.7952e-23
-1.87149e-22
-1.80426e-23
-2.07332e-22
-1.74242e-23
-2.10052e-22
-1.70157e-23
-2.06919e-22
-1.65189e-23
-2.05266e-22
-1.59206e-23
-1.57698e-22
-1.60424e-23
-1.53519e-22
-1.58345e-23
-1.2521e-22
-1.55638e-23
-9.53386e-23
-1.52926e-23
-1.207e-22
-1.5386e-23
-7.70239e-23
-1.53375e-23
-4.06119e-23
-1.52147e-23
-3.6951e-23
-1.53772e-23
-2.69079e-23
-1.55275e-23
-7.23988e-23
-1.54481e-23
-6.68364e-23
-1.51412e-23
-4.53523e-23
-1.49266e-23
-3.9259e-23
-1.47523e-23
-7.18675e-23
-1.48675e-23
-7.07503e-23
-1.47005e-23
-4.77686e-23
-1.46127e-23
-6.94802e-23
-1.44383e-23
-7.0031e-23
-1.41269e-23
-6.57155e-23
-1.39567e-23
-4.07928e-23
-1.39032e-23
-6.99781e-23
-1.37296e-23
-6.31131e-23
-1.35084e-23
-6.22068e-23
-1.3176e-23
-5.28106e-23
-1.28398e-23
-6.01033e-23
-1.24791e-23
-3.78735e-23
-1.21309e-23
-3.93521e-23
-1.18274e-23
-4.19619e-23
-1.14597e-23
-4.44808e-23
-1.12152e-23
-4.63975e-23
-1.07694e-23
-5.8749e-23
-1.03662e-23
-6.12925e-23
-9.99507e-24
-4.19232e-23
-9.53919e-24
-2.76272e-23
-9.2445e-24
-1.27476e-23
-8.94737e-24
-1.31246e-23
-8.68524e-24
-1.38911e-23
-8.31764e-24
-9.99679e-24
-8.04832e-24
-8.04603e-24
-7.79732e-24
1.64914e-24
-7.55779e-24
-1.12363e-23
-7.29187e-24
-8.46435e-24
-7.02895e-24
-9.78986e-24
-6.80662e-24
-7.21696e-24
-6.54358e-24
2.389e-24
-6.2899e-24
1.51593e-24
-6.07013e-24
2.09602e-24
-5.83702e-24
1.39117e-24
-5.60511e-24
-4.56089e-24
-5.3453e-24
-5.30116e-24
-5.11891e-24
-6.13061e-24
-4.86836e-24
-6.93045e-24
-4.59357e-24
-7.8233e-24
-4.32662e-24
4.28947e-25
-4.03389e-24
3.12599e-24
-3.72566e-24
5.25707e-24
-3.4066e-24
4.86631e-24
-3.03616e-24
1.27375e-24
-2.64016e-24
-5.22329e-25
-2.18411e-24
3.86252e-25
-1.68679e-24
-8.15157e-25
-1.14366e-24
-4.31664e-25
-5.74437e-25
-7.50951e-26
3.87161e-26
-3.86691e-25
-2.67466e-23
-7.2632e-24
1.3668e-23
-7.9678e-24
1.44387e-23
-8.59132e-24
1.87494e-23
-9.12048e-24
-2.39944e-23
-9.89727e-24
-5.85966e-24
-9.34702e-24
-4.86656e-23
-9.27732e-24
-2.837e-23
-9.47402e-24
-3.07524e-23
-9.68919e-24
-5.38857e-23
-9.75758e-24
-9.83599e-24
-1.0111e-23
-6.26331e-23
-1.07905e-23
-4.05077e-23
-1.16733e-23
-4.88574e-23
-1.23585e-23
-8.05657e-23
-1.3626e-23
-8.90662e-23
-1.41305e-23
-9.28138e-23
-1.53558e-23
-1.44789e-22
-1.61874e-23
-1.4789e-22
-1.52631e-23
-1.36373e-22
-1.52497e-23
-1.11932e-22
-1.4976e-23
-1.13187e-22
-1.54008e-23
-8.911e-23
-1.48778e-23
-5.79469e-23
-1.46828e-23
-5.37603e-23
-1.4928e-23
-2.77407e-23
-1.45967e-23
2.65315e-23
-1.42738e-23
2.90752e-23
-1.41152e-23
5.24014e-23
-1.41287e-23
5.40583e-23
-1.4323e-23
2.18538e-23
-1.39285e-23
2.92299e-23
-1.3623e-23
5.49808e-23
-1.33241e-23
6.51958e-23
-1.3215e-23
4.21975e-23
-1.30155e-23
3.09502e-23
-1.34553e-23
3.01519e-23
-1.28587e-23
-9.76087e-24
-1.30104e-23
-8.97579e-24
-1.29892e-23
2.04101e-23
-1.27428e-23
4.17593e-23
-1.27105e-23
7.86669e-24
-1.25377e-23
6.0129e-24
-1.22588e-23
-1.28443e-23
-1.21144e-23
-1.53389e-23
-1.18731e-23
1.16312e-23
-1.16628e-23
2.83951e-23
-1.11917e-23
2.32683e-23
-1.09657e-23
2.52365e-23
-1.08132e-23
2.10876e-23
-1.06586e-23
1.13479e-23
-1.03247e-23
1.57204e-23
-9.91133e-24
2.72817e-23
-9.42719e-24
4.52557e-23
-9.20338e-24
4.30704e-23
-8.85665e-24
4.13477e-23
-8.51557e-24
2.59974e-23
-8.2278e-24
3.64722e-23
-7.86597e-24
3.41177e-23
-7.65519e-24
4.28402e-23
-7.40363e-24
4.19575e-23
-7.13907e-24
3.82387e-23
-6.95963e-24
3.3811e-23
-6.58631e-24
2.88131e-23
-6.23486e-24
2.35363e-23
-6.01316e-24
3.53314e-23
-5.70281e-24
2.65144e-23
-5.51382e-24
2.18954e-23
-5.36202e-24
1.04905e-23
-5.18389e-24
7.61354e-24
-5.00916e-24
1.34416e-23
-4.83231e-24
-9.66228e-25
-4.74144e-24
-3.18346e-24
-4.5666e-24
6.14494e-24
-4.41455e-24
4.90231e-24
-4.23475e-24
4.09365e-24
-4.07468e-24
3.18044e-24
-3.92142e-24
2.18031e-24
-3.77474e-24
1.26585e-24
-3.63055e-24
-1.3775e-24
-3.49387e-24
2.70855e-24
-3.3348e-24
6.97623e-24
-3.18349e-24
5.6658e-24
-3.04225e-24
4.60545e-24
-2.86298e-24
5.31947e-24
-2.68613e-24
4.34447e-24
-2.48064e-24
3.45688e-24
-2.25104e-24
2.72171e-24
-1.97952e-24
4.32549e-24
-1.6685e-24
2.09411e-24
-1.31988e-24
1.84147e-24
-9.22729e-25
1.22082e-24
-4.79866e-25
6.77724e-25
-1.41359e-26
1.64211e-25
4.8948e-25
-2.03332e-25
1.80107e-23
-5.35421e-24
4.74556e-26
-6.20319e-24
-2.00608e-23
-6.28482e-24
-2.17113e-23
-7.36186e-24
-2.18106e-23
-7.38066e-24
-4.38869e-23
-8.00475e-24
-9.20816e-23
-8.35097e-24
-1.05036e-22
-7.03025e-24
-1.1858e-22
-6.5341e-24
-1.25893e-22