/*--------------------------------*- C++ -*----------------------------------*\
  =========                 |
  \\      /  F ield         | OpenFOAM: The Open Source CFD Toolbox
   \\    /   O peration     | Website:  https://openfoam.org
    \\  /    A nd           | Version:  7
     \\/     M anipulation  |
\*---------------------------------------------------------------------------*/
FoamFile
{
    version     2.0;
    format      ascii;
    class       volScalarField;
    location    "104000";
    object      k;
}
// * * * * * * * * * * * * * * * * * * * * * * * * * * * * * * * * * * * * * //

dimensions      [0 2 -2 0 0 0 0];

internalField   nonuniform List<scalar> 
4838
(
3.58947e-07
3.58765e-07
3.58594e-07
3.58432e-07
3.58279e-07
3.58132e-07
3.57994e-07
3.57863e-07
3.57739e-07
3.57623e-07
3.57514e-07
3.57412e-07
3.57318e-07
3.57231e-07
3.57151e-07
3.57079e-07
3.57014e-07
3.56956e-07
3.56905e-07
3.56861e-07
3.56825e-07
3.56796e-07
3.56774e-07
3.5676e-07
3.56752e-07
3.56752e-07
3.5676e-07
3.56774e-07
3.56796e-07
3.56825e-07
3.56861e-07
3.56904e-07
3.56955e-07
3.57013e-07
3.57078e-07
3.57151e-07
3.5723e-07
3.57317e-07
3.57412e-07
3.57513e-07
3.57622e-07
3.57738e-07
3.57862e-07
3.57993e-07
3.58132e-07
3.58278e-07
3.58432e-07
3.58594e-07
3.58765e-07
3.58946e-07
3.5926e-07
3.59083e-07
3.58912e-07
3.58748e-07
3.58592e-07
3.58442e-07
3.58301e-07
3.58167e-07
3.5804e-07
3.57921e-07
3.57809e-07
3.57705e-07
3.57608e-07
3.57519e-07
3.57437e-07
3.57362e-07
3.57295e-07
3.57235e-07
3.57183e-07
3.57138e-07
3.57101e-07
3.57071e-07
3.57048e-07
3.57033e-07
3.57026e-07
3.57026e-07
3.57033e-07
3.57048e-07
3.5707e-07
3.571e-07
3.57138e-07
3.57182e-07
3.57234e-07
3.57294e-07
3.57361e-07
3.57436e-07
3.57518e-07
3.57607e-07
3.57704e-07
3.57808e-07
3.5792e-07
3.58039e-07
3.58166e-07
3.583e-07
3.58442e-07
3.58591e-07
3.58747e-07
3.58911e-07
3.59082e-07
3.59259e-07
3.59588e-07
3.59406e-07
3.59234e-07
3.59069e-07
3.58911e-07
3.58759e-07
3.58615e-07
3.58479e-07
3.58349e-07
3.58228e-07
3.58113e-07
3.58006e-07
3.57907e-07
3.57815e-07
3.57731e-07
3.57655e-07
3.57586e-07
3.57524e-07
3.5747e-07
3.57424e-07
3.57386e-07
3.57355e-07
3.57332e-07
3.57317e-07
3.57309e-07
3.57309e-07
3.57317e-07
3.57332e-07
3.57355e-07
3.57386e-07
3.57424e-07
3.5747e-07
3.57524e-07
3.57585e-07
3.57654e-07
3.5773e-07
3.57814e-07
3.57906e-07
3.58005e-07
3.58112e-07
3.58227e-07
3.58348e-07
3.58478e-07
3.58614e-07
3.58758e-07
3.5891e-07
3.59068e-07
3.59234e-07
3.59406e-07
3.59587e-07
3.59959e-07
3.59748e-07
3.59566e-07
3.59397e-07
3.59237e-07
3.59083e-07
3.58937e-07
3.58798e-07
3.58666e-07
3.58542e-07
3.58425e-07
3.58316e-07
3.58215e-07
3.58121e-07
3.58034e-07
3.57956e-07
3.57885e-07
3.57822e-07
3.57767e-07
3.5772e-07
3.57681e-07
3.57649e-07
3.57625e-07
3.57609e-07
3.57601e-07
3.57601e-07
3.57609e-07
3.57625e-07
3.57649e-07
3.5768e-07
3.57719e-07
3.57767e-07
3.57822e-07
3.57884e-07
3.57955e-07
3.58034e-07
3.5812e-07
3.58213e-07
3.58315e-07
3.58424e-07
3.58541e-07
3.58665e-07
3.58797e-07
3.58936e-07
3.59082e-07
3.59236e-07
3.59396e-07
3.59565e-07
3.59747e-07
3.59958e-07
3.60456e-07
3.60159e-07
3.5993e-07
3.59739e-07
3.59571e-07
3.59414e-07
3.59266e-07
3.59125e-07
3.58991e-07
3.58864e-07
3.58745e-07
3.58634e-07
3.5853e-07
3.58434e-07
3.58346e-07
3.58266e-07
3.58194e-07
3.58129e-07
3.58073e-07
3.58024e-07
3.57984e-07
3.57952e-07
3.57927e-07
3.57911e-07
3.57903e-07
3.57903e-07
3.57911e-07
3.57927e-07
3.57951e-07
3.57983e-07
3.58024e-07
3.58072e-07
3.58128e-07
3.58193e-07
3.58265e-07
3.58345e-07
3.58433e-07
3.58529e-07
3.58633e-07
3.58744e-07
3.58863e-07
3.58989e-07
3.59123e-07
3.59265e-07
3.59413e-07
3.59569e-07
3.59738e-07
3.59929e-07
3.60157e-07
3.60455e-07
3.61221e-07
3.60752e-07
3.60404e-07
3.6014e-07
3.59932e-07
3.59757e-07
3.59602e-07
3.59459e-07
3.59322e-07
3.59194e-07
3.59073e-07
3.58959e-07
3.58853e-07
3.58756e-07
3.58666e-07
3.58584e-07
3.5851e-07
3.58444e-07
3.58386e-07
3.58337e-07
3.58296e-07
3.58263e-07
3.58238e-07
3.58221e-07
3.58213e-07
3.58213e-07
3.58221e-07
3.58237e-07
3.58262e-07
3.58295e-07
3.58336e-07
3.58386e-07
3.58443e-07
3.58509e-07
3.58583e-07
3.58665e-07
3.58754e-07
3.58852e-07
3.58958e-07
3.59071e-07
3.59192e-07
3.59321e-07
3.59457e-07
3.59601e-07
3.59756e-07
3.59931e-07
3.60139e-07
3.60402e-07
3.6075e-07
3.61218e-07
3.62455e-07
3.61703e-07
3.61138e-07
3.60715e-07
3.60398e-07
3.60157e-07
3.59965e-07
3.59804e-07
3.59661e-07
3.59531e-07
3.59407e-07
3.59292e-07
3.59184e-07
3.59084e-07
3.58993e-07
3.58909e-07
3.58834e-07
3.58767e-07
3.58708e-07
3.58657e-07
3.58615e-07
3.58581e-07
3.58556e-07
3.58539e-07
3.5853e-07
3.5853e-07
3.58539e-07
3.58556e-07
3.58581e-07
3.58615e-07
3.58657e-07
3.58707e-07
3.58766e-07
3.58833e-07
3.58908e-07
3.58991e-07
3.59083e-07
3.59183e-07
3.5929e-07
3.59405e-07
3.59529e-07
3.5966e-07
3.59802e-07
3.59964e-07
3.60155e-07
3.60396e-07
3.60713e-07
3.61135e-07
3.617e-07
3.62452e-07
3.64395e-07
3.63241e-07
3.62339e-07
3.61645e-07
3.61121e-07
3.60729e-07
3.60434e-07
3.60208e-07
3.6003e-07
3.5988e-07
3.59749e-07
3.59631e-07
3.59522e-07
3.5942e-07
3.59327e-07
3.59242e-07
3.59165e-07
3.59097e-07
3.59037e-07
3.58985e-07
3.58942e-07
3.58908e-07
3.58882e-07
3.58864e-07
3.58856e-07
3.58856e-07
3.58864e-07
3.58881e-07
3.58907e-07
3.58942e-07
3.58984e-07
3.59036e-07
3.59095e-07
3.59164e-07
3.59241e-07
3.59325e-07
3.59418e-07
3.5952e-07
3.59629e-07
3.59747e-07
3.59878e-07
3.60028e-07
3.60206e-07
3.60432e-07
3.60727e-07
3.61119e-07
3.61642e-07
3.62335e-07
3.63236e-07
3.6439e-07
3.67238e-07
3.65592e-07
3.64248e-07
3.63167e-07
3.62319e-07
3.61666e-07
3.61171e-07
3.60798e-07
3.60517e-07
3.603e-07
3.6013e-07
3.5999e-07
3.59869e-07
3.59762e-07
3.59668e-07
3.59582e-07
3.59503e-07
3.59433e-07
3.59372e-07
3.5932e-07
3.59277e-07
3.59242e-07
3.59215e-07
3.59197e-07
3.59188e-07
3.59188e-07
3.59197e-07
3.59214e-07
3.59241e-07
3.59276e-07
3.59319e-07
3.59371e-07
3.59432e-07
3.59502e-07
3.59581e-07
3.59666e-07
3.59761e-07
3.59867e-07
3.59988e-07
3.60128e-07
3.60297e-07
3.60514e-07
3.60796e-07
3.61168e-07
3.61662e-07
3.62315e-07
3.63163e-07
3.64243e-07
3.65586e-07
3.67231e-07
3.71074e-07
3.68907e-07
3.67063e-07
3.65514e-07
3.64239e-07
3.63212e-07
3.62403e-07
3.61776e-07
3.61297e-07
3.60933e-07
3.60657e-07
3.60443e-07
3.60275e-07
3.60141e-07
3.60028e-07
3.59932e-07
3.59848e-07
3.59776e-07
3.59714e-07
3.59662e-07
3.59618e-07
3.59582e-07
3.59555e-07
3.59536e-07
3.59527e-07
3.59527e-07
3.59536e-07
3.59554e-07
3.59581e-07
3.59617e-07
3.59661e-07
3.59713e-07
3.59775e-07
3.59847e-07
3.5993e-07
3.60026e-07
3.60139e-07
3.60273e-07
3.6044e-07
3.60654e-07
3.6093e-07
3.61294e-07
3.61772e-07
3.62398e-07
3.63207e-07
3.64234e-07
3.65508e-07
3.67057e-07
3.689e-07
3.71066e-07
3.75885e-07
3.73219e-07
3.70876e-07
3.68835e-07
3.67083e-07
3.65607e-07
3.64388e-07
3.63399e-07
3.62613e-07
3.61998e-07
3.61522e-07
3.61156e-07
3.60875e-07
3.60657e-07
3.60485e-07
3.60348e-07
3.60241e-07
3.60152e-07
3.60078e-07
3.60018e-07
3.59968e-07
3.59929e-07
3.59901e-07
3.59882e-07
3.59872e-07
3.59872e-07
3.59881e-07
3.599e-07
3.59929e-07
3.59967e-07
3.60016e-07
3.60077e-07
3.6015e-07
3.60239e-07
3.60346e-07
3.60483e-07
3.60654e-07
3.60872e-07
3.61153e-07
3.61518e-07
3.61994e-07
3.62608e-07
3.63394e-07
3.64381e-07
3.656e-07
3.67076e-07
3.68827e-07
3.70868e-07
3.73211e-07
3.75876e-07
3.81582e-07
3.78469e-07
3.75667e-07
3.73157e-07
3.70936e-07
3.68994e-07
3.67323e-07
3.65908e-07
3.64729e-07
3.63765e-07
3.62988e-07
3.62371e-07
3.61887e-07
3.61508e-07
3.61212e-07
3.60981e-07
3.60801e-07
3.60659e-07
3.60546e-07
3.60457e-07
3.60387e-07
3.60336e-07
3.603e-07
3.60277e-07
3.60265e-07
3.60265e-07
3.60276e-07
3.603e-07
3.60335e-07
3.60386e-07
3.60455e-07
3.60545e-07
3.60657e-07
3.60799e-07
3.60978e-07
3.61209e-07
3.61504e-07
3.61882e-07
3.62367e-07
3.62983e-07
3.63759e-07
3.64722e-07
3.659e-07
3.67315e-07
3.68986e-07
3.70927e-07
3.73148e-07
3.75658e-07
3.7846e-07
3.81572e-07
3.88056e-07
3.84553e-07
3.81346e-07
3.78418e-07
3.75768e-07
3.7339e-07
3.71281e-07
3.69432e-07
3.67831e-07
3.66466e-07
3.65319e-07
3.64368e-07
3.63591e-07
3.62962e-07
3.62459e-07
3.6206e-07
3.61744e-07
3.61495e-07
3.613e-07
3.61147e-07
3.6103e-07
3.60945e-07
3.60884e-07
3.60846e-07
3.60827e-07
3.60827e-07
3.60845e-07
3.60884e-07
3.60944e-07
3.61029e-07
3.61145e-07
3.61297e-07
3.61492e-07
3.61741e-07
3.62056e-07
3.62455e-07
3.62957e-07
3.63585e-07
3.64361e-07
3.65311e-07
3.66458e-07
3.67822e-07
3.69421e-07
3.7127e-07
3.7338e-07
3.75757e-07
3.78408e-07
3.81337e-07
3.84544e-07
3.88045e-07
3.95203e-07
3.91363e-07
3.87805e-07
3.84513e-07
3.81486e-07
3.78722e-07
3.76218e-07
3.73968e-07
3.71967e-07
3.70206e-07
3.68673e-07
3.67355e-07
3.66236e-07
3.65296e-07
3.64517e-07
3.63876e-07
3.63356e-07
3.62937e-07
3.62602e-07
3.62339e-07
3.62136e-07
3.61984e-07
3.61877e-07
3.61808e-07
3.61774e-07
3.61774e-07
3.61807e-07
3.61876e-07
3.61983e-07
3.62134e-07
3.62337e-07
3.626e-07
3.62933e-07
3.63352e-07
3.63871e-07
3.64511e-07
3.65289e-07
3.66228e-07
3.67346e-07
3.68663e-07
3.70194e-07
3.71954e-07
3.73955e-07
3.76204e-07
3.78709e-07
3.81474e-07
3.84502e-07
3.87796e-07
3.91354e-07
3.95192e-07
4.02934e-07
3.98804e-07
3.94942e-07
3.91334e-07
3.8798e-07
3.8488e-07
3.82031e-07
3.79431e-07
3.77074e-07
3.74953e-07
3.73064e-07
3.71395e-07
3.69936e-07
3.68672e-07
3.67591e-07
3.66674e-07
3.65907e-07
3.65271e-07
3.64751e-07
3.64334e-07
3.64005e-07
3.63756e-07
3.63576e-07
3.6346e-07
3.63402e-07
3.63402e-07
3.63459e-07
3.63575e-07
3.63754e-07
3.64003e-07
3.64331e-07
3.64747e-07
3.65266e-07
3.65901e-07
3.66667e-07
3.67583e-07
3.68663e-07
3.69925e-07
3.71383e-07
3.7305e-07
3.74938e-07
3.77057e-07
3.79414e-07
3.82016e-07
3.84865e-07
3.87967e-07
3.91322e-07
3.94932e-07
3.98795e-07
4.02922e-07
4.11175e-07
4.06791e-07
4.02667e-07
3.98785e-07
3.95149e-07
3.91758e-07
3.88611e-07
3.85706e-07
3.83041e-07
3.80609e-07
3.78406e-07
3.76426e-07
3.7466e-07
3.73099e-07
3.71731e-07
3.70545e-07
3.69527e-07
3.68665e-07
3.67945e-07
3.67354e-07
3.66881e-07
3.66516e-07
3.66249e-07
3.66075e-07
3.65989e-07
3.65989e-07
3.66074e-07
3.66247e-07
3.66513e-07
3.66878e-07
3.6735e-07
3.67939e-07
3.68658e-07
3.69519e-07
3.70535e-07
3.7172e-07
3.73086e-07
3.74646e-07
3.7641e-07
3.78388e-07
3.80589e-07
3.83021e-07
3.85686e-07
3.88592e-07
3.9174e-07
3.95134e-07
3.98772e-07
4.02657e-07
4.06782e-07
4.11161e-07
4.19859e-07
4.15256e-07
4.10904e-07
4.06786e-07
4.02903e-07
3.99257e-07
3.95853e-07
3.92688e-07
3.89755e-07
3.87055e-07
3.84583e-07
3.82334e-07
3.80303e-07
3.78482e-07
3.76863e-07
3.75437e-07
3.74194e-07
3.73123e-07
3.72215e-07
3.71459e-07
3.70845e-07
3.70365e-07
3.70011e-07
3.69779e-07
3.69663e-07
3.69663e-07
3.69777e-07
3.70009e-07
3.70361e-07
3.7084e-07
3.71453e-07
3.72208e-07
3.73115e-07
3.74183e-07
3.75425e-07
3.76849e-07
3.78467e-07
3.80285e-07
3.82315e-07
3.84561e-07
3.87031e-07
3.89731e-07
3.92664e-07
3.95833e-07
3.99238e-07
4.02886e-07
4.0677e-07
4.10892e-07
4.15246e-07
4.19845e-07
4.28927e-07
4.24138e-07
4.19585e-07
4.15262e-07
4.11165e-07
4.073e-07
4.03672e-07
4.00279e-07
3.97116e-07
3.94184e-07
3.9148e-07
3.89e-07
3.86743e-07
3.84699e-07
3.82865e-07
3.81233e-07
3.79795e-07
3.78545e-07
3.77472e-07
3.76571e-07
3.75832e-07
3.75251e-07
3.74819e-07
3.74535e-07
3.74392e-07
3.74392e-07
3.74533e-07
3.74817e-07
3.75247e-07
3.75827e-07
3.76563e-07
3.77464e-07
3.78534e-07
3.79782e-07
3.81218e-07
3.82848e-07
3.84681e-07
3.86722e-07
3.88978e-07
3.91455e-07
3.94156e-07
3.97088e-07
4.00251e-07
4.03649e-07
4.07279e-07
4.11145e-07
4.15244e-07
4.19572e-07
4.24125e-07
4.28916e-07
4.3833e-07
4.33377e-07
4.28655e-07
4.24154e-07
4.19874e-07
4.15818e-07
4.11995e-07
4.08404e-07
4.05042e-07
4.01909e-07
3.99003e-07
3.96323e-07
3.93871e-07
3.91636e-07
3.89617e-07
3.87809e-07
3.86205e-07
3.84801e-07
3.83589e-07
3.82565e-07
3.8172e-07
3.81052e-07
3.80553e-07
3.80223e-07
3.80058e-07
3.80058e-07
3.80221e-07
3.8055e-07
3.81046e-07
3.81712e-07
3.82555e-07
3.8358e-07
3.84789e-07
3.86189e-07
3.87791e-07
3.89597e-07
3.91614e-07
3.93846e-07
3.96299e-07
3.98974e-07
4.01876e-07
4.05007e-07
4.08372e-07
4.11968e-07
4.15794e-07
4.19851e-07
4.24135e-07
4.28645e-07
4.33367e-07
4.38319e-07
4.38062e-07
4.33407e-07
4.2897e-07
4.24749e-07
4.20759e-07
4.16993e-07
4.13458e-07
4.1015e-07
4.07068e-07
4.04216e-07
4.01594e-07
3.99195e-07
3.97016e-07
3.95057e-07
3.93311e-07
3.91776e-07
3.90444e-07
3.89315e-07
3.88379e-07
3.87638e-07
3.87083e-07
3.86715e-07
3.86531e-07
3.8653e-07
3.86713e-07
3.87079e-07
3.87631e-07
3.88371e-07
3.89303e-07
3.90433e-07
3.91761e-07
3.93292e-07
3.95034e-07
3.96992e-07
3.99168e-07
4.01565e-07
4.04187e-07
4.07035e-07
4.10111e-07
4.13419e-07
4.16961e-07
4.20728e-07
4.24725e-07
4.28946e-07
4.33391e-07
4.38052e-07
4.42917e-07
4.48004e-07
4.42973e-07
4.38399e-07
4.3404e-07
4.29904e-07
4.2599e-07
4.22304e-07
4.18843e-07
4.15611e-07
4.12608e-07
4.09835e-07
4.07294e-07
4.04977e-07
4.02887e-07
4.01019e-07
3.9937e-07
3.97936e-07
3.96716e-07
3.95703e-07
3.94899e-07
3.94296e-07
3.93896e-07
3.93695e-07
3.93693e-07
3.93893e-07
3.94291e-07
3.94892e-07
3.95694e-07
3.96703e-07
3.97922e-07
3.99351e-07
4.00996e-07
4.02861e-07
4.04949e-07
4.07264e-07
4.09806e-07
4.12572e-07
4.15573e-07
4.188e-07
4.22262e-07
4.25955e-07
4.29873e-07
4.34017e-07
4.38379e-07
4.4296e-07
4.47747e-07
4.52734e-07
4.57937e-07
4.4364e-07
4.3938e-07
4.35341e-07
4.31524e-07
4.27933e-07
4.24567e-07
4.21432e-07
4.18532e-07
4.15866e-07
4.13429e-07
4.11227e-07
4.09252e-07
4.07504e-07
4.0598e-07
4.0468e-07
4.03601e-07
4.02745e-07
4.021e-07
4.01674e-07
4.01457e-07
4.01454e-07
4.01667e-07
4.02094e-07
4.02738e-07
4.03595e-07
4.04668e-07
4.05963e-07
4.07482e-07
4.09225e-07
4.11198e-07
4.13399e-07
4.15832e-07
4.18499e-07
4.21393e-07
4.24526e-07
4.27884e-07
4.31481e-07
4.35304e-07
4.39348e-07
4.43617e-07
4.48101e-07
4.52794e-07
4.57688e-07
4.6278e-07
4.6808e-07
4.49141e-07
4.44994e-07
4.41069e-07
4.37365e-07
4.33887e-07
4.30638e-07
4.27627e-07
4.24854e-07
4.22312e-07
4.20008e-07
4.17942e-07
4.16107e-07
4.14508e-07
4.13138e-07
4.12002e-07
4.11097e-07
4.10419e-07
4.09969e-07
4.0974e-07
4.09736e-07
4.0996e-07
4.10412e-07
4.11093e-07
4.11994e-07
4.13127e-07
4.14488e-07
4.16085e-07
4.17913e-07
4.19976e-07
4.22275e-07
4.24814e-07
4.27589e-07
4.30594e-07
4.33839e-07
4.37311e-07
4.41021e-07
4.44956e-07
4.49107e-07
4.5348e-07
4.58066e-07
4.62855e-07
4.67842e-07
4.73024e-07
4.78402e-07
4.5491e-07
4.5089e-07
4.4709e-07
4.43517e-07
4.40172e-07
4.37068e-07
4.34201e-07
4.3157e-07
4.29178e-07
4.27034e-07
4.25123e-07
4.23457e-07
4.22027e-07
4.20841e-07
4.19897e-07
4.19189e-07
4.18716e-07
4.18476e-07
4.18472e-07
4.18708e-07
4.1918e-07
4.19891e-07
4.20834e-07
4.22018e-07
4.23436e-07
4.25097e-07
4.26998e-07
4.29143e-07
4.31525e-07
4.34153e-07
4.37021e-07
4.40123e-07
4.43462e-07
4.47031e-07
4.50836e-07
4.54867e-07
4.5911e-07
4.63572e-07
4.68245e-07
4.73114e-07
4.78178e-07
4.83431e-07
4.88877e-07
4.57065e-07
4.53411e-07
4.49987e-07
4.468e-07
4.43855e-07
4.41148e-07
4.38684e-07
4.36471e-07
4.34498e-07
4.32769e-07
4.3129e-07
4.30062e-07
4.29082e-07
4.28349e-07
4.27855e-07
4.27609e-07
4.27604e-07
4.27852e-07
4.28341e-07
4.29076e-07
4.30055e-07
4.31282e-07
4.32752e-07
4.34468e-07
4.36431e-07
4.38642e-07
4.41098e-07
4.43802e-07
4.46746e-07
4.4993e-07
4.53349e-07
4.57003e-07
4.60891e-07
4.64999e-07
4.69324e-07
4.73861e-07
4.78604e-07
4.83544e-07
4.8867e-07
4.93984e-07
4.99485e-07
4.63532e-07
4.6004e-07
4.56789e-07
4.53772e-07
4.50999e-07
4.48478e-07
4.46206e-07
4.44178e-07
4.42399e-07
4.40878e-07
4.39614e-07
4.38602e-07
4.37846e-07
4.37339e-07
4.37084e-07
4.3708e-07
4.37336e-07
4.37844e-07
4.38599e-07
4.39609e-07
4.40873e-07
4.42385e-07
4.44149e-07
4.46165e-07
4.48432e-07
4.5095e-07
4.5372e-07
4.56727e-07
4.5998e-07
4.63467e-07
4.67194e-07
4.71147e-07
4.7532e-07
4.79712e-07
4.84314e-07
4.8912e-07
4.94114e-07
4.99295e-07
5.0466e-07
5.10207e-07
4.61088e-07
4.58515e-07
4.56194e-07
4.54118e-07
4.52301e-07
4.50744e-07
4.49446e-07
4.4841e-07
4.47631e-07
4.47112e-07
4.46851e-07
4.46852e-07
4.47116e-07
4.47636e-07
4.48411e-07
4.49447e-07
4.5074e-07
4.52286e-07
4.54091e-07
4.56155e-07
4.5847e-07
4.6104e-07
4.63862e-07
4.66927e-07
4.70239e-07
4.73782e-07
4.77565e-07
4.81574e-07
4.85806e-07
4.90257e-07
4.9491e-07
4.99767e-07
5.04808e-07
5.10033e-07
5.1544e-07
5.21019e-07
4.62436e-07
4.60849e-07
4.59523e-07
4.58466e-07
4.57669e-07
4.57141e-07
4.56872e-07
4.56877e-07
4.57146e-07
4.57676e-07
4.58471e-07
4.59526e-07
4.60847e-07
4.62421e-07
4.6426e-07
4.66361e-07
4.68722e-07
4.71334e-07
4.74203e-07
4.77314e-07
4.80673e-07
4.84264e-07
4.88098e-07
4.92153e-07
4.96434e-07
5.00929e-07
5.0563e-07
5.10529e-07
5.15607e-07
5.20863e-07
5.26302e-07
5.31904e-07
4.69808e-07
4.68731e-07
4.67921e-07
4.67382e-07
4.6711e-07
4.67115e-07
4.6739e-07
4.67931e-07
4.68739e-07
4.69814e-07
4.71156e-07
4.72757e-07
4.74623e-07
4.76757e-07
4.7915e-07
4.81803e-07
4.84708e-07
4.87859e-07
4.91256e-07
4.9489e-07
4.98762e-07
5.02859e-07
5.07182e-07
5.11713e-07
5.16452e-07
5.21381e-07
5.26485e-07
5.31768e-07
5.37228e-07
5.42847e-07
4.77535e-07
4.77542e-07
4.77821e-07
4.78366e-07
4.79192e-07
4.80282e-07
4.81637e-07
4.83264e-07
4.85154e-07
4.87314e-07
4.89736e-07
4.92422e-07
4.95359e-07
4.98542e-07
5.0197e-07
5.05639e-07
5.09543e-07
5.13672e-07
5.18026e-07
5.2259e-07
5.27354e-07
5.32307e-07
5.37433e-07
5.42732e-07
5.48204e-07
5.53837e-07
4.909e-07
4.9227e-07
4.93915e-07
4.95828e-07
4.98011e-07
5.00455e-07
5.0317e-07
5.06132e-07
5.0934e-07
5.12794e-07
5.1649e-07
5.20421e-07
5.24575e-07
5.28952e-07
5.33536e-07
5.3832e-07
5.43289e-07
5.48428e-07
5.53742e-07
5.59219e-07
5.64855e-07
5.06622e-07
5.08819e-07
5.11284e-07
5.1402e-07
5.17003e-07
5.20236e-07
5.23708e-07
5.27427e-07
5.31379e-07
5.35548e-07
5.39946e-07
5.44543e-07
5.4934e-07
5.54315e-07
5.59462e-07
5.64783e-07
5.70261e-07
5.75893e-07
5.22206e-07
5.24956e-07
5.27957e-07
5.31206e-07
5.34694e-07
5.38427e-07
5.42394e-07
5.46577e-07
5.50985e-07
5.55593e-07
5.60394e-07
5.65374e-07
5.70522e-07
5.75845e-07
5.81316e-07
5.86937e-07
5.33199e-07
5.35958e-07
5.38973e-07
5.42235e-07
5.45739e-07
5.4948e-07
5.53453e-07
5.57647e-07
5.6206e-07
5.66668e-07
5.71468e-07
5.76446e-07
5.81593e-07
5.86907e-07
5.92372e-07
5.97976e-07
5.44246e-07
5.47019e-07
5.50045e-07
5.53312e-07
5.56822e-07
5.6057e-07
5.64545e-07
5.68744e-07
5.73153e-07
5.77762e-07
5.82555e-07
5.87526e-07
5.92664e-07
5.97965e-07
6.03412e-07
6.08998e-07
5.64418e-07
5.67936e-07
5.71686e-07
5.75656e-07
5.7985e-07
5.84258e-07
5.88861e-07
5.93643e-07
5.98601e-07
6.03724e-07
6.09007e-07
6.14432e-07
6.19988e-07
5.95354e-07
5.99948e-07
6.04712e-07
6.09654e-07
6.14757e-07
6.20016e-07
6.25415e-07
6.30941e-07
6.2068e-07
6.25757e-07
6.30989e-07
6.36354e-07
6.41849e-07
3.56768e-07
3.56753e-07
3.56746e-07
3.56746e-07
3.56754e-07
3.56768e-07
3.5679e-07
3.5682e-07
3.56856e-07
3.569e-07
3.56951e-07
3.57009e-07
3.57074e-07
3.57147e-07
3.57227e-07
3.57314e-07
3.57409e-07
3.57511e-07
3.5762e-07
3.57737e-07
3.57861e-07
3.57992e-07
3.58131e-07
3.58277e-07
3.58431e-07
3.58594e-07
3.58765e-07
3.58947e-07
3.57041e-07
3.57026e-07
3.57019e-07
3.57019e-07
3.57027e-07
3.57042e-07
3.57065e-07
3.57095e-07
3.57132e-07
3.57177e-07
3.5723e-07
3.5729e-07
3.57357e-07
3.57432e-07
3.57514e-07
3.57604e-07
3.57701e-07
3.57806e-07
3.57918e-07
3.58037e-07
3.58164e-07
3.58299e-07
3.58441e-07
3.5859e-07
3.58747e-07
3.58911e-07
3.59082e-07
3.59259e-07
3.57325e-07
3.57309e-07
3.57302e-07
3.57302e-07
3.5731e-07
3.57325e-07
3.57349e-07
3.5738e-07
3.57418e-07
3.57465e-07
3.57519e-07
3.5758e-07
3.57649e-07
3.57726e-07
3.57811e-07
3.57903e-07
3.58002e-07
3.58109e-07
3.58224e-07
3.58346e-07
3.58476e-07
3.58613e-07
3.58757e-07
3.58909e-07
3.59068e-07
3.59233e-07
3.59406e-07
3.59587e-07
3.57617e-07
3.57602e-07
3.57594e-07
3.57594e-07
3.57602e-07
3.57618e-07
3.57642e-07
3.57674e-07
3.57714e-07
3.57761e-07
3.57816e-07
3.5788e-07
3.5795e-07
3.58029e-07
3.58116e-07
3.5821e-07
3.58312e-07
3.58421e-07
3.58538e-07
3.58663e-07
3.58795e-07
3.58934e-07
3.59081e-07
3.59235e-07
3.59396e-07
3.59564e-07
3.59747e-07
3.59959e-07
3.57919e-07
3.57903e-07
3.57895e-07
3.57895e-07
3.57903e-07
3.5792e-07
3.57944e-07
3.57977e-07
3.58017e-07
3.58066e-07
3.58123e-07
3.58187e-07
3.5826e-07
3.5834e-07
3.58429e-07
3.58525e-07
3.58629e-07
3.58741e-07
3.5886e-07
3.58987e-07
3.59121e-07
3.59263e-07
3.59412e-07
3.59568e-07
3.59737e-07
3.59928e-07
3.60158e-07
3.60456e-07
3.58229e-07
3.58212e-07
3.58204e-07
3.58204e-07
3.58213e-07
3.5823e-07
3.58255e-07
3.58288e-07
3.5833e-07
3.58379e-07
3.58437e-07
3.58503e-07
3.58577e-07
3.5866e-07
3.5875e-07
3.58848e-07
3.58954e-07
3.59068e-07
3.59189e-07
3.59318e-07
3.59455e-07
3.59599e-07
3.59754e-07
3.5993e-07
3.60138e-07
3.60403e-07
3.60751e-07
3.6122e-07
3.58547e-07
3.5853e-07
3.58522e-07
3.58522e-07
3.5853e-07
3.58548e-07
3.58573e-07
3.58607e-07
3.5865e-07
3.587e-07
3.58759e-07
3.58827e-07
3.58902e-07
3.58986e-07
3.59078e-07
3.59178e-07
3.59286e-07
3.59402e-07
3.59526e-07
3.59657e-07
3.598e-07
3.59962e-07
3.60154e-07
3.60395e-07
3.60713e-07
3.61137e-07
3.61703e-07
3.62455e-07
3.58872e-07
3.58855e-07
3.58846e-07
3.58847e-07
3.58856e-07
3.58873e-07
3.58899e-07
3.58934e-07
3.58977e-07
3.59029e-07
3.59089e-07
3.59158e-07
3.59235e-07
3.5932e-07
3.59413e-07
3.59515e-07
3.59625e-07
3.59743e-07
3.59875e-07
3.60025e-07
3.60204e-07
3.60431e-07
3.60726e-07
3.61119e-07
3.61644e-07
3.62338e-07
3.6324e-07
3.64395e-07
3.59205e-07
3.59187e-07
3.59178e-07
3.59179e-07
3.59188e-07
3.59206e-07
3.59232e-07
3.59268e-07
3.59311e-07
3.59364e-07
3.59425e-07
3.59495e-07
3.59574e-07
3.5966e-07
3.59755e-07
3.59862e-07
3.59983e-07
3.60125e-07
3.60294e-07
3.60512e-07
3.60794e-07
3.61167e-07
3.61663e-07
3.62317e-07
3.63166e-07
3.64247e-07
3.65591e-07
3.67237e-07
3.59544e-07
3.59526e-07
3.59517e-07
3.59517e-07
3.59526e-07
3.59545e-07
3.59573e-07
3.59609e-07
3.59653e-07
3.59705e-07
3.59767e-07
3.5984e-07
3.59924e-07
3.6002e-07
3.60133e-07
3.60268e-07
3.60437e-07
3.60651e-07
3.60928e-07
3.61293e-07
3.61772e-07
3.62399e-07
3.6321e-07
3.64237e-07
3.65512e-07
3.67062e-07
3.68906e-07
3.71074e-07
3.5989e-07
3.59871e-07
3.59862e-07
3.59862e-07
3.59871e-07
3.59891e-07
3.5992e-07
3.59959e-07
3.60008e-07
3.60069e-07
3.60143e-07
3.60232e-07
3.6034e-07
3.60478e-07
3.6065e-07
3.60869e-07
3.61151e-07
3.61517e-07
3.61993e-07
3.62609e-07
3.63395e-07
3.64384e-07
3.65604e-07
3.67081e-07
3.68833e-07
3.70875e-07
3.73219e-07
3.75885e-07
3.6029e-07
3.60267e-07
3.60255e-07
3.60255e-07
3.60267e-07
3.60291e-07
3.60327e-07
3.60378e-07
3.60448e-07
3.60538e-07
3.60651e-07
3.60794e-07
3.60974e-07
3.61205e-07
3.61502e-07
3.61881e-07
3.62366e-07
3.62984e-07
3.63761e-07
3.64725e-07
3.65904e-07
3.67319e-07
3.68991e-07
3.70933e-07
3.73155e-07
3.75665e-07
3.78468e-07
3.81582e-07
3.60876e-07
3.60838e-07
3.60819e-07
3.60819e-07
3.60838e-07
3.60877e-07
3.60937e-07
3.61023e-07
3.6114e-07
3.61293e-07
3.61489e-07
3.61738e-07
3.62054e-07
3.62454e-07
3.62958e-07
3.63586e-07
3.64364e-07
3.65314e-07
3.66462e-07
3.67826e-07
3.69426e-07
3.71276e-07
3.73386e-07
3.75764e-07
3.78415e-07
3.81344e-07
3.84553e-07
3.88055e-07
3.61873e-07
3.61804e-07
3.6177e-07
3.6177e-07
3.61804e-07
3.61873e-07
3.6198e-07
3.62132e-07
3.62336e-07
3.62599e-07
3.62933e-07
3.63353e-07
3.63873e-07
3.64513e-07
3.65293e-07
3.66232e-07
3.67351e-07
3.68667e-07
3.70199e-07
3.7196e-07
3.7396e-07
3.7621e-07
3.78715e-07
3.8148e-07
3.84509e-07
3.87804e-07
3.91363e-07
3.95202e-07
3.64333e-07
3.64751e-07
3.6527e-07
3.65905e-07
3.66672e-07
3.67588e-07
3.68668e-07
3.6993e-07
3.71388e-07
3.73055e-07
3.74944e-07
3.77063e-07
3.7942e-07
3.82021e-07
3.8487e-07
3.87972e-07
3.91328e-07
3.94939e-07
3.98804e-07
4.02934e-07
3.80595e-07
3.83025e-07
3.85691e-07
3.88597e-07
3.91744e-07
3.95137e-07
3.98777e-07
4.02664e-07
4.06791e-07
4.11173e-07
3.99241e-07
4.02887e-07
4.06774e-07
4.10898e-07
4.15255e-07
4.19857e-07
4.19578e-07
4.24133e-07
4.28927e-07
6.71486e-07
6.82245e-07
6.92931e-07
4.81834e-07
4.92446e-07
5.03187e-07
5.1403e-07
5.24963e-07
5.35968e-07
5.4703e-07
5.58128e-07
5.69249e-07
5.8038e-07
5.91513e-07
6.02636e-07
6.1374e-07
6.24807e-07
6.35829e-07
6.46802e-07
6.5772e-07
6.68569e-07
6.7935e-07
6.90057e-07
4.48458e-07
4.58497e-07
4.68744e-07
4.79174e-07
4.89759e-07
5.00472e-07
5.11297e-07
5.22216e-07
5.33205e-07
5.44255e-07
5.55348e-07
5.66466e-07
5.776e-07
5.88738e-07
5.99868e-07
6.10981e-07
6.22058e-07
6.33097e-07
6.44089e-07
6.55027e-07
6.65898e-07
6.76698e-07
6.87426e-07
4.46184e-07
4.56174e-07
4.66383e-07
4.76775e-07
4.87329e-07
4.98021e-07
5.08825e-07
5.19728e-07
5.30704e-07
5.41744e-07
5.52832e-07
5.63952e-07
5.75086e-07
5.86227e-07
5.97363e-07
6.08484e-07
6.19572e-07
6.30624e-07
6.41631e-07
6.52579e-07
6.63467e-07
6.74291e-07
6.85044e-07
4.44164e-07
4.5411e-07
4.64279e-07
4.74639e-07
4.85167e-07
4.95833e-07
5.06619e-07
5.17506e-07
5.28476e-07
5.39507e-07
5.50591e-07
5.61707e-07
5.72839e-07
5.83982e-07
5.95121e-07
6.06246e-07
6.17346e-07
6.28411e-07
6.39427e-07
6.50387e-07
6.6129e-07
6.72129e-07
6.82898e-07
4.42395e-07
4.52295e-07
4.62428e-07
4.72762e-07
4.83269e-07
4.93917e-07
5.04688e-07
5.15561e-07
5.26518e-07
5.37542e-07
5.48618e-07
5.59732e-07
5.70869e-07
5.82015e-07
5.93159e-07
6.04287e-07
6.15388e-07
6.26458e-07
6.37481e-07
6.48455e-07
6.59372e-07
6.70225e-07
6.81009e-07
3.58328e-07
3.58648e-07
3.58976e-07
3.59311e-07
3.59652e-07
3.60008e-07
3.60447e-07
3.61137e-07
3.6233e-07
3.64324e-07
3.67344e-07
3.71448e-07
3.76561e-07
3.82553e-07
3.89303e-07
3.96704e-07
4.04671e-07
4.13132e-07
4.22022e-07
4.31286e-07
4.40875e-07
4.50741e-07
4.60842e-07
4.71151e-07
4.81631e-07
4.92257e-07
5.03013e-07
5.1387e-07
5.24818e-07
5.35831e-07
5.469e-07
5.58011e-07
5.69149e-07
5.80301e-07
5.91449e-07
6.02585e-07
6.13694e-07
6.24771e-07
6.35806e-07
6.46793e-07
6.57724e-07
6.68587e-07
6.79382e-07
3.58287e-07
3.58606e-07
3.58933e-07
3.59268e-07
3.59609e-07
3.59959e-07
3.60378e-07
3.61021e-07
3.62127e-07
3.63996e-07
3.66872e-07
3.70835e-07
3.75823e-07
3.8171e-07
3.88369e-07
3.95692e-07
4.03593e-07
4.11992e-07
4.20831e-07
4.30053e-07
4.39602e-07
4.49436e-07
4.59515e-07
4.69799e-07
4.80257e-07
4.90868e-07
5.01611e-07
5.12457e-07
5.23396e-07
5.34402e-07
5.45467e-07
5.56575e-07
5.67712e-07
5.78865e-07
5.9002e-07
6.01162e-07
6.12279e-07
6.23368e-07
6.34412e-07
6.45405e-07
6.56345e-07
6.67219e-07
6.78021e-07
3.58254e-07
3.58573e-07
3.58899e-07
3.59233e-07
3.59573e-07
3.5992e-07
3.60327e-07
3.60935e-07
3.61975e-07
3.63747e-07
3.66507e-07
3.70356e-07
3.75241e-07
3.81041e-07
3.87626e-07
3.94886e-07
4.02731e-07
4.11085e-07
4.1988e-07
4.29066e-07
4.38584e-07
4.48391e-07
4.58446e-07
4.68714e-07
4.79157e-07
4.89756e-07
5.00487e-07
5.11324e-07
5.22253e-07
5.33257e-07
5.44319e-07
5.55425e-07
5.66559e-07
5.7771e-07
5.88864e-07
6.00009e-07
6.11134e-07
6.22226e-07
6.33279e-07
6.4428e-07
6.55226e-07
6.66111e-07
6.76925e-07
3.56767e-07
3.57041e-07
3.57324e-07
3.57617e-07
3.57919e-07
3.58229e-07
3.58548e-07
3.58873e-07
3.59206e-07
3.59546e-07
3.59892e-07
3.60291e-07
3.60875e-07
3.61868e-07
3.63567e-07
3.66241e-07
3.70003e-07
3.74811e-07
3.80545e-07
3.87073e-07
3.94285e-07
4.02089e-07
4.10405e-07
4.19167e-07
4.28323e-07
4.3782e-07
4.4761e-07
4.57647e-07
4.679e-07
4.78333e-07
4.88925e-07
4.99647e-07
5.10479e-07
5.21403e-07
5.324e-07
5.43462e-07
5.54565e-07
5.65697e-07
5.76842e-07
5.87995e-07
5.99136e-07
6.10259e-07
6.21353e-07
6.32409e-07
6.43416e-07
6.54369e-07
6.6526e-07
6.76083e-07
3.56753e-07
3.57026e-07
3.57309e-07
3.57602e-07
3.57903e-07
3.58213e-07
3.58531e-07
3.58856e-07
3.59189e-07
3.59528e-07
3.59873e-07
3.60268e-07
3.60837e-07
3.61799e-07
3.63451e-07
3.66067e-07
3.69771e-07
3.74527e-07
3.80216e-07
3.86708e-07
3.93887e-07
4.01659e-07
4.0995e-07
4.18694e-07
4.2783e-07
4.37309e-07
4.47084e-07
4.57111e-07
4.67355e-07
4.7778e-07
4.8836e-07
4.99076e-07
5.09901e-07
5.2082e-07
5.31817e-07
5.42874e-07
5.53977e-07
5.65106e-07
5.76253e-07
5.87405e-07
5.9855e-07
6.09676e-07
6.20773e-07
6.31832e-07
6.42845e-07
6.53805e-07
6.64698e-07
6.75526e-07
3.56746e-07
3.57019e-07
3.57302e-07
3.57594e-07
3.57895e-07
3.58205e-07
3.58523e-07
3.58848e-07
3.5918e-07
3.59519e-07
3.59864e-07
3.60257e-07
3.60819e-07
3.61766e-07
3.63394e-07
3.65981e-07
3.69656e-07
3.74385e-07
3.80052e-07
3.86524e-07
3.93686e-07
4.01447e-07
4.09726e-07
4.18456e-07
4.27583e-07
4.37054e-07
4.46822e-07
4.56843e-07
4.67077e-07
4.77498e-07
4.88073e-07
4.98785e-07
5.0961e-07
5.20532e-07
5.31526e-07
5.42582e-07
5.5368e-07
5.6481e-07
5.75958e-07
5.87113e-07
5.98262e-07
6.09387e-07
6.20484e-07
6.31543e-07
6.42556e-07
6.53515e-07
6.64413e-07
6.75245e-07
3.56746e-07
3.57019e-07
3.57302e-07
3.57594e-07
3.57896e-07
3.58205e-07
3.58523e-07
3.58848e-07
3.5918e-07
3.59519e-07
3.59864e-07
3.60257e-07
3.60819e-07
3.61766e-07
3.63395e-07
3.65981e-07
3.69656e-07
3.74385e-07
3.80052e-07
3.86524e-07
3.93688e-07
4.01446e-07
4.09726e-07
4.18456e-07
4.27586e-07
4.37058e-07
4.46823e-07
4.56839e-07
4.67074e-07
4.77492e-07
4.88069e-07
4.98782e-07
5.0961e-07
5.20527e-07
5.31521e-07
5.42575e-07
5.53675e-07
5.64807e-07
5.75956e-07
5.87112e-07
5.98261e-07
6.09387e-07
6.20484e-07
6.31545e-07
6.4256e-07
6.53518e-07
6.64416e-07
6.75242e-07
3.56754e-07
3.57027e-07
3.5731e-07
3.57603e-07
3.57904e-07
3.58214e-07
3.58532e-07
3.58857e-07
3.59189e-07
3.59528e-07
3.59874e-07
3.60269e-07
3.60838e-07
3.618e-07
3.63452e-07
3.66067e-07
3.69771e-07
3.74526e-07
3.80215e-07
3.86706e-07
3.93886e-07
4.0166e-07
4.0995e-07
4.1869e-07
4.27827e-07
4.37306e-07
4.47076e-07
4.57099e-07
4.67338e-07
4.77763e-07
4.88347e-07
4.99067e-07
5.09895e-07
5.20818e-07
5.31815e-07
5.42868e-07
5.53967e-07
5.65098e-07
5.76248e-07
5.87404e-07
5.98549e-07
6.09676e-07
6.2077e-07
6.31827e-07
6.42839e-07
6.53795e-07
6.6469e-07
6.75519e-07
3.56768e-07
3.57042e-07
3.57326e-07
3.57619e-07
3.5792e-07
3.58231e-07
3.58549e-07
3.58875e-07
3.59207e-07
3.59547e-07
3.59893e-07
3.60292e-07
3.60876e-07
3.61868e-07
3.63568e-07
3.66241e-07
3.70002e-07
3.7481e-07
3.80543e-07
3.87073e-07
3.94283e-07
4.02085e-07
4.104e-07
4.19162e-07
4.28316e-07
4.37807e-07
4.47591e-07
4.57627e-07
4.67879e-07
4.78316e-07
4.88908e-07
4.99631e-07
5.10464e-07
5.21389e-07
5.32386e-07
5.43444e-07
5.54544e-07
5.65677e-07
5.76824e-07
5.87975e-07
5.99119e-07
6.10244e-07
6.2134e-07
6.32398e-07
6.43411e-07
6.54365e-07
6.65255e-07
6.7608e-07
3.5679e-07
3.57065e-07
3.57349e-07
3.57643e-07
3.57945e-07
3.58256e-07