/*--------------------------------*- C++ -*----------------------------------*\
  =========                 |
  \\      /  F ield         | OpenFOAM: The Open Source CFD Toolbox
   \\    /   O peration     | Website:  https://openfoam.org
    \\  /    A nd           | Version:  7
     \\/     M anipulation  |
\*---------------------------------------------------------------------------*/
FoamFile
{
    version     2.0;
    format      ascii;
    class       volScalarField;
    location    "104000";
    object      omega;
}
// * * * * * * * * * * * * * * * * * * * * * * * * * * * * * * * * * * * * * //

dimensions      [0 0 -1 0 0 0 0];

internalField   nonuniform List<scalar> 
4838
(
0.0236984
0.0236935
0.0236889
0.0236845
0.0236802
0.0236762
0.0236724
0.0236687
0.0236653
0.023662
0.023659
0.0236561
0.0236535
0.023651
0.0236488
0.0236467
0.0236449
0.0236432
0.0236418
0.0236405
0.0236395
0.0236387
0.0236381
0.0236377
0.0236374
0.0236374
0.0236377
0.0236381
0.0236387
0.0236395
0.0236405
0.0236418
0.0236432
0.0236448
0.0236467
0.0236487
0.023651
0.0236534
0.0236561
0.0236589
0.023662
0.0236652
0.0236687
0.0236723
0.0236761
0.0236802
0.0236844
0.0236888
0.0236934
0.0236983
0.0237066
0.0237018
0.0236972
0.0236926
0.0236883
0.0236841
0.0236801
0.0236763
0.0236728
0.0236694
0.0236662
0.0236632
0.0236604
0.0236578
0.0236554
0.0236533
0.0236513
0.0236496
0.0236481
0.0236468
0.0236457
0.0236448
0.0236442
0.0236437
0.0236435
0.0236435
0.0236437
0.0236442
0.0236448
0.0236457
0.0236468
0.0236481
0.0236496
0.0236513
0.0236533
0.0236554
0.0236578
0.0236604
0.0236631
0.0236661
0.0236693
0.0236727
0.0236763
0.0236801
0.023684
0.0236882
0.0236925
0.023697
0.0237017
0.0237064
0.0237151
0.0237102
0.0237055
0.0237009
0.0236965
0.0236922
0.0236881
0.0236842
0.0236804
0.0236769
0.0236736
0.0236705
0.0236676
0.0236649
0.0236624
0.0236601
0.0236581
0.0236563
0.0236547
0.0236533
0.0236522
0.0236513
0.0236506
0.0236501
0.0236499
0.0236499
0.0236501
0.0236506
0.0236513
0.0236522
0.0236533
0.0236547
0.0236563
0.0236581
0.0236601
0.0236624
0.0236648
0.0236675
0.0236704
0.0236735
0.0236768
0.0236804
0.0236841
0.023688
0.0236921
0.0236963
0.0237008
0.0237053
0.02371
0.0237149
0.0237249
0.0237191
0.0237141
0.0237094
0.0237048
0.0237004
0.0236962
0.0236922
0.0236884
0.0236847
0.0236813
0.0236781
0.023675
0.0236723
0.0236697
0.0236673
0.0236652
0.0236633
0.0236617
0.0236602
0.023659
0.0236581
0.0236574
0.0236569
0.0236567
0.0236566
0.0236569
0.0236574
0.0236581
0.023659
0.0236602
0.0236616
0.0236633
0.0236652
0.0236673
0.0236696
0.0236722
0.023675
0.023678
0.0236812
0.0236846
0.0236883
0.0236921
0.0236961
0.0237003
0.0237047
0.0237092
0.0237139
0.0237189
0.0237247
0.0237382
0.0237299
0.0237236
0.0237182
0.0237134
0.0237089
0.0237046
0.0237005
0.0236965
0.0236928
0.0236893
0.0236859
0.0236828
0.0236799
0.0236773
0.0236748
0.0236726
0.0236707
0.0236689
0.0236675
0.0236662
0.0236652
0.0236645
0.023664
0.0236637
0.0236637
0.023664
0.0236645
0.0236652
0.0236662
0.0236674
0.0236689
0.0236706
0.0236726
0.0236748
0.0236772
0.0236799
0.0236828
0.0236859
0.0236892
0.0236927
0.0236965
0.0237004
0.0237045
0.0237088
0.0237133
0.0237181
0.0237234
0.0237297
0.0237379
0.0237592
0.0237459
0.0237361
0.0237287
0.0237228
0.0237178
0.0237133
0.023709
0.023705
0.0237011
0.0236975
0.0236941
0.0236909
0.0236879
0.0236851
0.0236826
0.0236804
0.0236783
0.0236766
0.023675
0.0236737
0.0236727
0.0236719
0.0236714
0.0236712
0.0236712
0.0236714
0.0236719
0.0236727
0.0236737
0.023675
0.0236765
0.0236783
0.0236803
0.0236826
0.0236851
0.0236878
0.0236908
0.023694
0.0236974
0.0237011
0.0237049
0.0237089
0.0237131
0.0237177
0.0237227
0.0237285
0.0237359
0.0237457
0.0237589
0.0237946
0.0237725
0.0237562
0.0237441
0.0237351
0.0237282
0.0237227
0.0237179
0.0237137
0.0237098
0.023706
0.0237025
0.0236992
0.0236962
0.0236933
0.0236907
0.0236884
0.0236863
0.0236845
0.0236829
0.0236816
0.0236805
0.0236797
0.0236792
0.0236789
0.0236789
0.0236792
0.0236797
0.0236805
0.0236816
0.0236829
0.0236845
0.0236863
0.0236884
0.0236907
0.0236933
0.0236961
0.0236992
0.0237024
0.0237059
0.0237097
0.0237136
0.0237178
0.0237226
0.0237281
0.0237349
0.0237439
0.0237559
0.0237722
0.0237942
0.0238526
0.0238173
0.0237904
0.02377
0.0237548
0.0237435
0.0237351
0.0237285
0.0237232
0.0237188
0.0237148
0.0237112
0.0237078
0.0237047
0.0237018
0.0236992
0.0236967
0.0236946
0.0236927
0.0236911
0.0236897
0.0236887
0.0236878
0.0236873
0.023687
0.023687
0.0236873
0.0236878
0.0236886
0.0236897
0.0236911
0.0236927
0.0236946
0.0236967
0.0236991
0.0237018
0.0237046
0.0237078
0.0237111
0.0237147
0.0237187
0.0237231
0.0237284
0.0237349
0.0237434
0.0237546
0.0237697
0.02379
0.0238169
0.0238522
0.0239417
0.0238891
0.0238472
0.0238142
0.0237888
0.0237696
0.0237551
0.0237443
0.0237361
0.0237298
0.0237247
0.0237205
0.0237168
0.0237135
0.0237105
0.0237079
0.0237054
0.0237032
0.0237012
0.0236996
0.0236982
0.0236971
0.0236962
0.0236957
0.0236954
0.0236954
0.0236957
0.0236962
0.0236971
0.0236982
0.0236996
0.0237012
0.0237031
0.0237053
0.0237078
0.0237105
0.0237135
0.0237167
0.0237204
0.0237247
0.0237297
0.023736
0.0237442
0.0237549
0.0237693
0.0237885
0.0238138
0.0238467
0.0238886
0.0239412
0.0240675
0.0239951
0.023935
0.0238856
0.0238458
0.0238145
0.0237901
0.0237716
0.0237575
0.0237469
0.0237388
0.0237325
0.0237274
0.0237234
0.0237199
0.0237169
0.0237143
0.023712
0.02371
0.0237084
0.023707
0.0237058
0.0237049
0.0237044
0.0237041
0.0237041
0.0237044
0.0237049
0.0237058
0.023707
0.0237084
0.02371
0.023712
0.0237143
0.0237169
0.0237199
0.0237233
0.0237274
0.0237324
0.0237387
0.0237467
0.0237573
0.0237714
0.0237899
0.0238142
0.0238455
0.0238852
0.0239345
0.0239945
0.0240669
0.0242323
0.0241394
0.0240596
0.0239916
0.0239345
0.0238874
0.0238492
0.0238189
0.0237951
0.0237767
0.0237627
0.0237519
0.0237436
0.0237371
0.023732
0.0237279
0.0237246
0.0237218
0.0237195
0.0237176
0.0237161
0.0237149
0.0237139
0.0237133
0.023713
0.023713
0.0237133
0.0237139
0.0237148
0.0237161
0.0237176
0.0237195
0.0237218
0.0237245
0.0237278
0.0237319
0.0237371
0.0237435
0.0237518
0.0237625
0.0237766
0.0237949
0.0238186
0.0238489
0.023887
0.023934
0.0239911
0.024059
0.0241388
0.0242316
0.0244357
0.0243229
0.0242234
0.0241361
0.0240604
0.0239957
0.023941
0.0238956
0.0238586
0.0238287
0.023805
0.0237864
0.0237719
0.0237606
0.0237518
0.023745
0.0237396
0.0237354
0.023732
0.0237293
0.0237272
0.0237256
0.0237245
0.0237237
0.0237234
0.0237234
0.0237237
0.0237245
0.0237256
0.0237271
0.0237293
0.023732
0.0237354
0.0237396
0.0237449
0.0237518
0.0237605
0.0237718
0.0237862
0.0238048
0.0238284
0.0238583
0.0238953
0.0239406
0.0239952
0.0240599
0.0241355
0.0242227
0.0243222
0.0244349
0.0246757
0.024544
0.0244257
0.0243198
0.0242257
0.0241429
0.0240708
0.0240089
0.0239562
0.0239121
0.0238756
0.0238459
0.0238218
0.0238026
0.0237874
0.0237754
0.0237659
0.0237585
0.0237527
0.0237481
0.0237446
0.0237421
0.0237403
0.0237391
0.0237385
0.0237385
0.0237391
0.0237402
0.0237421
0.0237446
0.0237481
0.0237526
0.0237585
0.0237659
0.0237753
0.0237873
0.0238025
0.0238216
0.0238456
0.0238754
0.0239118
0.0239558
0.0240084
0.0240703
0.0241423
0.024225
0.0243191
0.024425
0.0245433
0.0246749
0.0249501
0.0248008
0.0246648
0.0245412
0.0244295
0.0243294
0.0242402
0.0241616
0.0240928
0.0240334
0.0239825
0.0239394
0.0239033
0.0238734
0.0238489
0.023829
0.023813
0.0238002
0.02379
0.023782
0.0237759
0.0237713
0.0237681
0.023766
0.023765
0.023765
0.023766
0.0237681
0.0237713
0.0237759
0.023782
0.02379
0.0238001
0.0238129
0.0238289
0.0238488
0.0238732
0.023903
0.0239391
0.0239821
0.0240329
0.0240924
0.024161
0.0242396
0.0243287
0.0244288
0.0245404
0.024664
0.0247999
0.0249492
0.0252566
0.0250909
0.0249384
0.0247982
0.0246701
0.0245535
0.0244482
0.0243536
0.0242693
0.0241946
0.0241291
0.0240721
0.024023
0.0239811
0.0239456
0.0239159
0.0238913
0.023871
0.0238547
0.0238416
0.0238314
0.0238236
0.023818
0.0238145
0.0238127
0.0238127
0.0238144
0.023818
0.0238236
0.0238313
0.0238415
0.0238546
0.0238709
0.0238911
0.0239157
0.0239454
0.0239808
0.0240227
0.0240717
0.0241287
0.0241941
0.0242687
0.024353
0.0244475
0.0245528
0.0246692
0.0247974
0.0249375
0.0250899
0.0252556
0.0255933
0.0254121
0.0252442
0.0250886
0.024945
0.0248131
0.0246926
0.0245831
0.024484
0.024395
0.0243156
0.0242452
0.0241832
0.0241291
0.0240823
0.0240421
0.024008
0.0239794
0.0239557
0.0239364
0.023921
0.0239092
0.0239007
0.0238951
0.0238923
0.0238923
0.0238951
0.0239006
0.0239092
0.023921
0.0239363
0.0239556
0.0239793
0.0240079
0.0240419
0.024082
0.0241288
0.0241828
0.0242447
0.0243151
0.0243944
0.0244834
0.0245823
0.0246918
0.0248123
0.0249441
0.0250876
0.0252432
0.0254111
0.0255922
0.0259584
0.0257627
0.0255803
0.0254102
0.0252521
0.0251059
0.0249713
0.0248477
0.024735
0.0246326
0.0245401
0.024457
0.0243829
0.0243173
0.0242596
0.0242093
0.0241658
0.0241288
0.0240975
0.0240717
0.0240509
0.0240348
0.0240229
0.0240151
0.0240112
0.0240112
0.0240151
0.0240229
0.0240347
0.0240509
0.0240717
0.0240974
0.0241286
0.0241656
0.024209
0.0242592
0.0243169
0.0243824
0.0244565
0.0245394
0.0246319
0.0247342
0.0248469
0.0249703
0.025105
0.0252511
0.0254091
0.0255792
0.0257616
0.0259572
0.0263499
0.0261407
0.0259447
0.0257611
0.0255895
0.0254299
0.0252819
0.0251453
0.0250197
0.0249048
0.0248001
0.0247053
0.02462
0.0245436
0.0244757
0.0244159
0.0243637
0.0243186
0.0242803
0.0242482
0.0242222
0.0242017
0.0241866
0.0241767
0.0241717
0.0241717
0.0241766
0.0241866
0.0242017
0.0242221
0.0242481
0.0242801
0.0243184
0.0243634
0.0244156
0.0244753
0.0245431
0.0246194
0.0247047
0.0247994
0.024904
0.0250188
0.0251443
0.0252809
0.0254288
0.0255884
0.0257599
0.0259436
0.0261395
0.0263486
0.0267658
0.0265443
0.0263358
0.0261395
0.0259553
0.0257831
0.0256227
0.0254738
0.0253362
0.0252096
0.0250935
0.0249878
0.0248919
0.0248055
0.0247282
0.0246596
0.0245992
0.0245467
0.0245018
0.024464
0.024433
0.0244086
0.0243905
0.0243785
0.0243725
0.0243725
0.0243785
0.0243904
0.0244085
0.0244329
0.0244639
0.0245016
0.0245465
0.0245989
0.0246592
0.0247277
0.0248049
0.0248912
0.024987
0.0250927
0.0252086
0.0253352
0.0254727
0.0256215
0.0257819
0.0259541
0.0261383
0.0263345
0.026543
0.0267645
0.0267514
0.0265436
0.0263477
0.0261638
0.0259918
0.0258314
0.0256825
0.0255449
0.0254182
0.0253022
0.0251965
0.0251007
0.0250146
0.0249378
0.0248699
0.0248106
0.0247595
0.0247163
0.0246808
0.0246527
0.0246318
0.024618
0.0246111
0.0246111
0.024618
0.0246318
0.0246527
0.0246808
0.0247162
0.0247593
0.0248103
0.0248696
0.0249374
0.0250141
0.0251001
0.0251957
0.0253013
0.0254172
0.0255438
0.0256814
0.0258302
0.0259905
0.0261625
0.0263464
0.0265423
0.0267501
0.02697
0.0272027
0.0269713
0.0267648
0.0265701
0.0263873
0.0262163
0.0260569
0.025909
0.0257723
0.0256466
0.0255317
0.0254272
0.0253329
0.0252484
0.0251734
0.0251077
0.0250509
0.0250028
0.0249631
0.0249316
0.0249082
0.0248926
0.0248848
0.0248848
0.0248926
0.0249082
0.0249316
0.0249631
0.0250027
0.0250508
0.0251075
0.0251731
0.025248
0.0253323
0.0254265
0.0255309
0.0256456
0.0257712
0.0259078
0.0260556
0.026215
0.0263859
0.0265687
0.0267634
0.02697
0.0271884
0.0274188
0.0276617
0.0270001
0.0268074
0.0266266
0.0264574
0.0263
0.026154
0.0260193
0.0258958
0.0257831
0.0256811
0.0255894
0.0255078
0.0254361
0.025374
0.0253212
0.0252776
0.025243
0.0252171
0.0252
0.0251914
0.0251914
0.0252
0.0252172
0.025243
0.0252777
0.0253212
0.0253739
0.0254359
0.0255075
0.0255889
0.0256804
0.0257823
0.0258948
0.0260182
0.0261528
0.0262986
0.0264561
0.0266252
0.026806
0.0269986
0.0272032
0.0274196
0.0276478
0.0278878
0.0281402
0.0272502
0.0270603
0.0268823
0.0267161
0.0265615
0.0264185
0.0262869
0.0261666
0.0260574
0.025959
0.0258712
0.0257939
0.0257268
0.0256697
0.0256224
0.0255848
0.0255567
0.0255381
0.0255287
0.0255288
0.0255381
0.0255568
0.0255849
0.0256225
0.0256697
0.0257267
0.0257937
0.0258709
0.0259585
0.0260567
0.0261658
0.0262859
0.0264173
0.0265601
0.0267146
0.0268808
0.0270588
0.0272487
0.0274504
0.027664
0.0278895
0.0281268
0.0283759
0.0286372
0.0275158
0.0273296
0.0271553
0.0269928
0.0268422
0.0267033
0.0265759
0.0264599
0.0263553
0.0262619
0.0261793
0.0261076
0.0260464
0.0259957
0.0259553
0.0259252
0.0259051
0.025895
0.0258951
0.0259051
0.0259252
0.0259555
0.0259958
0.0260465
0.0261075
0.0261791
0.0262615
0.0263548
0.0264592
0.026575
0.0267021
0.0268409
0.0269913
0.0271537
0.027328
0.0275142
0.0277124
0.0279225
0.0281446
0.0283787
0.0286246
0.0288822
0.0291521
0.0276159
0.0274462
0.0272885
0.0271428
0.027009
0.0268869
0.0267766
0.0266779
0.0265905
0.0265144
0.0264495
0.0263956
0.0263527
0.0263206
0.0262992
0.0262885
0.0262885
0.0262993
0.0263207
0.0263529
0.0263959
0.0264497
0.0265144
0.0265903
0.0266775
0.026776
0.0268862
0.027008
0.0271415
0.0272871
0.0274446
0.0276142
0.0277959
0.0279898
0.0281958
0.0284139
0.028644
0.0288862
0.0291402
0.0294061
0.0296842
0.02792
0.0277559
0.0276039
0.0274641
0.0273364
0.0272209
0.0271173
0.0270255
0.0269454
0.0268771
0.0268203
0.0267751
0.0267411
0.0267186
0.0267073
0.0267073
0.0267187
0.0267413
0.0267753
0.0268206
0.0268774
0.0269455
0.0270254
0.0271169
0.0272203
0.0273357
0.027463
0.0276025
0.0277543
0.0279183
0.0280947
0.0282835
0.0284846
0.028698
0.0289236
0.0291614
0.0294113
0.0296734
0.0299472
0.0302334
0.0278068
0.0276865
0.0275784
0.0274825
0.0273988
0.0273273
0.0272679
0.0272204
0.0271849
0.0271613
0.0271494
0.0271495
0.0271614
0.0271852
0.0272208
0.0272683
0.0273277
0.027399
0.0274824
0.0275781
0.0276859
0.0278061
0.0279386
0.0280837
0.0282413
0.0284115
0.0285943
0.0287897
0.0289977
0.0292181
0.029451
0.0296963
0.0299538
0.0302235
0.0305051
0.0307992
0.027873
0.0277986
0.0277366
0.0276872
0.0276502
0.0276255
0.0276132
0.0276133
0.0276258
0.0276505
0.0276877
0.0277371
0.027799
0.0278733
0.0279601
0.0280595
0.0281714
0.0282961
0.0284336
0.028584
0.0287471
0.0289232
0.0291121
0.0293139
0.0295285
0.0297558
0.0299957
0.0302482
0.0305131
0.0307904
0.0310797
0.0313814
0.0282253
0.0281741
0.0281357
0.0281101
0.0280972
0.0280973
0.0281103
0.0281361
0.0281747
0.028226
0.0282902
0.0283673
0.0284572
0.0285601
0.028676
0.028805
0.0289472
0.0291025
0.0292711
0.0294528
0.0296476
0.0298556
0.0300767
0.0303106
0.0305574
0.030817
0.0310891
0.0313738
0.0316706
0.0319798
0.0286005
0.0286007
0.0286141
0.0286408
0.0286808
0.0287338
0.0288003
0.02888
0.028973
0.0290793
0.0291989
0.029332
0.0294787
0.0296389
0.0298127
0.0299998
0.0302004
0.0304145
0.0306418
0.0308822
0.0311358
0.0314023
0.0316816
0.0319735
0.0322776
0.0325943
0.02926
0.0293287
0.0294109
0.0295067
0.0296163
0.0297395
0.0298767
0.0300278
0.0301927
0.0303714
0.0305639
0.0307703
0.0309901
0.0312236
0.0314705
0.0317306
0.032004
0.0322902
0.0325892
0.0329006
0.0332246
0.030058
0.0301709
0.0302974
0.0304386
0.030594
0.0307635
0.0309472
0.031145
0.0313568
0.0315824
0.0318219
0.032075
0.0323417
0.0326217
0.0329148
0.0332208
0.0335393
0.0338705
0.0308724
0.0310175
0.0311772
0.0313512
0.0315397
0.0317426
0.0319598
0.0321911
0.0324365
0.0326958
0.0329688
0.0332554
0.0335552
0.033868
0.0341934
0.0345317
0.0314642
0.0316132
0.031777
0.0319555
0.0321487
0.0323566
0.0325791
0.032816
0.0330672
0.0333325
0.0336117
0.0339046
0.034211
0.0345305
0.0348627
0.0352079
0.0320726
0.0322255
0.0323934
0.0325761
0.0327739
0.0329868
0.0332145
0.0334568
0.0337136
0.0339848
0.0342701
0.0345692
0.0348819
0.0352079
0.0355467
0.0358987
0.0332128
0.0334153
0.033633
0.0338657
0.0341133
0.0343756
0.0346526
0.0349437
0.0352489
0.0355678
0.0359001
0.0362453
0.0366039
0.0350528
0.0353353
0.0356321
0.0359432
0.0362681
0.0366065
0.0369581
0.037323
0.0366519
0.0369827
0.0373271
0.0376848
0.038056
0.0236401
0.0236396
0.0236393
0.0236392
0.0236392
0.0236395
0.0236401
0.0236408
0.0236417
0.0236429
0.0236442
0.0236458
0.0236475
0.0236495
0.0236517
0.0236541
0.0236567
0.0236594
0.0236624
0.0236656
0.023669
0.0236726
0.0236764
0.0236804
0.0236846
0.023689
0.0236936
0.0236985
0.0236463
0.0236457
0.0236454
0.0236453
0.0236454
0.0236457
0.0236463
0.023647
0.023648
0.0236492
0.0236506
0.0236523
0.0236542
0.0236562
0.0236585
0.023661
0.0236637
0.0236667
0.0236698
0.0236731
0.0236767
0.0236804
0.0236843
0.0236885
0.0236928
0.0236973
0.0237019
0.0237066
0.0236528
0.0236522
0.0236519
0.0236517
0.0236518
0.0236522
0.0236528
0.0236536
0.0236546
0.0236559
0.0236574
0.0236591
0.0236611
0.0236632
0.0236656
0.0236682
0.0236711
0.0236741
0.0236774
0.0236808
0.0236845
0.0236884
0.0236924
0.0236966
0.0237011
0.0237056
0.0237103
0.0237152
0.0236596
0.023659
0.0236586
0.0236585
0.0236586
0.023659
0.0236596
0.0236605
0.0236616
0.0236629
0.0236644
0.0236662
0.0236683
0.0236705
0.023673
0.0236757
0.0236787
0.0236818
0.0236852
0.0236888
0.0236926
0.0236965
0.0237007
0.023705
0.0237095
0.0237142
0.0237192
0.0237249
0.0236668
0.0236661
0.0236658
0.0236657
0.0236658
0.0236662
0.0236668
0.0236677
0.0236688
0.0236702
0.0236718
0.0236737
0.0236758
0.0236781
0.0236807
0.0236835
0.0236866
0.0236898
0.0236933
0.023697
0.0237009
0.0237049
0.0237092
0.0237137
0.0237184
0.0237237
0.02373
0.0237382
0.0236742
0.0236736
0.0236732
0.0236731
0.0236733
0.0236737
0.0236743
0.0236752
0.0236764
0.0236778
0.0236795
0.0236815
0.0236836
0.0236861
0.0236887
0.0236916
0.0236947
0.0236981
0.0237017
0.0237054
0.0237094
0.0237136
0.0237181
0.0237231
0.0237289
0.0237363
0.023746
0.0237593
0.0236821
0.0236814
0.023681
0.0236809
0.0236811
0.0236815
0.0236822
0.0236831
0.0236843
0.0236858
0.0236875
0.0236895
0.0236918
0.0236943
0.023697
0.0237
0.0237032
0.0237066
0.0237103
0.0237142
0.0237183
0.023723
0.0237285
0.0237353
0.0237443
0.0237563
0.0237726
0.0237946
0.0236902
0.0236895
0.0236891
0.023689
0.0236892
0.0236896
0.0236903
0.0236913
0.0236925
0.023694
0.0236958
0.0236979
0.0237002
0.0237027
0.0237055
0.0237086
0.0237119
0.0237154
0.0237193
0.0237237
0.0237289
0.0237354
0.0237438
0.023755
0.0237702
0.0237905
0.0238174
0.0238527
0.0236986
0.0236979
0.0236975
0.0236974
0.0236976
0.023698
0.0236988
0.0236998
0.0237011
0.0237026
0.0237044
0.0237065
0.0237089
0.0237115
0.0237144
0.0237176
0.0237212
0.0237254
0.0237303
0.0237366
0.0237447
0.0237555
0.0237698
0.023789
0.0238143
0.0238472
0.0238891
0.0239417
0.0237073
0.0237066
0.0237062
0.0237061
0.0237063
0.0237068
0.0237075
0.0237086
0.0237099
0.0237114
0.0237133
0.0237155
0.023718
0.0237209
0.0237242
0.0237282
0.0237332
0.0237394
0.0237474
0.023758
0.023772
0.0237905
0.0238147
0.023846
0.0238857
0.023935
0.0239951
0.0240675
0.0237163
0.0237156
0.0237152
0.0237151
0.0237153
0.0237158
0.0237166
0.0237177
0.0237191
0.0237209
0.0237231
0.0237258
0.023729
0.023733
0.023738
0.0237444
0.0237526
0.0237633
0.0237773
0.0237956
0.0238193
0.0238495
0.0238876
0.0239346
0.0239916
0.0240596
0.0241394
0.0242323
0.0237269
0.0237261
0.0237256
0.0237255
0.0237257
0.0237264
0.0237274
0.0237288
0.0237308
0.0237334
0.0237367
0.0237409
0.0237461
0.0237529
0.0237616
0.0237727
0.0237871
0.0238056
0.0238292
0.023859
0.023896
0.0239413
0.0239958
0.0240605
0.0241361
0.0242233
0.0243228
0.0244357
0.0237428
0.0237415
0.0237408
0.0237407
0.0237412
0.0237423
0.023744
0.0237464
0.0237498
0.0237542
0.0237599
0.0237672
0.0237766
0.0237885
0.0238036
0.0238227
0.0238466
0.0238763
0.0239126
0.0239566
0.0240092
0.024071
0.024143
0.0242257
0.0243197
0.0244256
0.024544
0.0246757
0.0237708
0.0237686
0.0237675
0.0237674
0.0237683
0.0237703
0.0237734
0.0237779
0.0237838
0.0237917
0.0238017
0.0238144
0.0238303
0.0238501
0.0238744
0.0239042
0.0239401
0.0239831
0.0240338
0.0240932
0.0241618
0.0242403
0.0243293
0.0244294
0.024541
0.0246647
0.0248007
0.02495
0.0238436
0.0238565
0.0238727
0.0238927
0.0239172
0.0239468
0.0239821
0.0240239
0.0240728
0.0241296
0.024195
0.0242694
0.0243536
0.0244481
0.0245533
0.0246698
0.0247979
0.0249381
0.0250907
0.0252565
0.0243952
0.024484
0.0245829
0.0246923
0.0248128
0.0249446
0.0250881
0.0252438
0.0254119
0.0255932
0.0251053
0.0252515
0.0254096
0.0255798
0.0257624
0.0259582
0.0259441
0.0261403
0.0263497
0.040173
0.040968
0.0417775
0.0288017
0.029328
0.0298721
0.0304335
0.0310119
0.031607
0.0322188
0.0328469
0.033491
0.0341509
0.0348264
0.035517
0.0362225
0.0369426
0.0376771
0.0384259
0.0391889
0.0399662
0.0407578
0.0415639
0.0272179
0.027683
0.028168
0.0286721
0.0291944
0.0297344
0.0302919
0.0308664
0.0314578
0.0320658
0.0326903
0.0333308
0.0339873
0.0346593
0.0353467
0.036049
0.0367659
0.0374974
0.0382432
0.0390033
0.0397776
0.0405662
0.0413693
0.0271143
0.0275748
0.0280556
0.0285557
0.0290742
0.0296106
0.0301644
0.0307355
0.0313235
0.0319281
0.0325493
0.0331866
0.0338399
0.0345089
0.0351932
0.0358926
0.0366067
0.0373353
0.0380784
0.0388357
0.0396073
0.0403933
0.0411937
0.0270225
0.0274789
0.0279559
0.0284524
0.0289675
0.0295006
0.0300512
0.0306191
0.031204
0.0318056
0.0324238
0.0330582
0.0337087
0.0343749
0.0350565
0.0357533
0.0364649
0.0371911
0.0379316
0.0386865
0.0394557
0.0402392
0.0410372
0.0269424
0.0273952
0.0278689
0.0283621
0.0288742
0.0294043
0.0299522
0.0305173
0.0310994
0.0316983
0.0323139
0.0329458
0.0335937
0.0342575
0.0349368
0.0356312
0.0363405
0.0370645
0.0378029
0.0385556
0.0393227
0.0401041
0.0409
0.0236776
0.0236854
0.0236935
0.023702
0.0237107
0.02372
0.0237315
0.0237503
0.0237841
0.0238435
0.0239381
0.0240731
0.0242492
0.0244645
0.0247163
0.0250023
0.0253202
0.0256682
0.0260443
0.0264469
0.0268739
0.0273236
0.0277943
0.0282848
0.0287942
0.0293218
0.0298672
0.0304299
0.0310097
0.0316063
0.0322196
0.0328492
0.033495
0.0341567
0.034834
0.0355264
0.0362338
0.0369559
0.0376924
0.0384433
0.0392086
0.0399882
0.0407823
0.0236763
0.023684
0.0236921
0.0237005
0.0237092
0.0237183
0.0237293
0.0237468
0.0237779
0.0238332
0.0239227
0.0240523
0.0242231
0.0244335
0.0246808
0.0249626
0.0252766
0.0256209
0.0259936
0.0263929
0.0268171
0.027264
0.0277322
0.0282204
0.0287275
0.029253
0.0297963
0.030357
0.0309349
0.0315296
0.0321409
0.0327687
0.0334127
0.0340726
0.0347482
0.035439
0.0361447
0.0368652
0.0376002
0.0383496
0.0391133
0.0398914
0.0406839
0.0236752
0.0236829
0.0236909
0.0236993
0.023708
0.023717
0.0237277
0.0237441
0.0237733
0.0238254
0.0239108
0.024036
0.0242026
0.024409
0.0246527
0.0249311
0.0252419
0.0255832
0.0259531
0.0263499
0.0267716
0.0272164
0.0276826
0.0281689
0.0286742
0.029198
0.0297396
0.0302987
0.0308749
0.031468
0.0320779
0.0327042
0.0333468
0.0340053
0.0346794
0.0353689
0.0360733
0.0367926
0.0375263
0.0382744
0.0390369
0.0398139
0.0406052
0.0236405
0.0236466
0.0236531
0.0236599
0.023667
0.0236743
0.023682
0.02369
0.0236984
0.023707
0.023716
0.0237265
0.0237422
0.02377
0.0238198
0.0239022
0.0240241
0.0241875
0.0243909
0.0246318
0.0249076
0.025216
0.0255551
0.0259229
0.0263177
0.0267376
0.0271808
0.0276455
0.0281303
0.0286343
0.0291568
0.0296972
0.030255
0.03083
0.031422
0.0320307
0.0326558
0.0332973
0.0339546
0.0346277
0.0353162
0.0360197
0.0367379
0.0374707
0.0382179
0.0389795
0.0397555
0.0405459
0.0236399
0.023646
0.0236524
0.0236592
0.0236663
0.0236737
0.0236813
0.0236894
0.0236977
0.0237064
0.0237153
0.0237256
0.0237409
0.0237678
0.0238161
0.0238965
0.0240162
0.0241775
0.0243789
0.0246179
0.024892
0.0251988
0.0255363
0.0259027
0.0262962
0.026715
0.027157
0.0276206
0.0281045
0.0286077
0.0291292
0.0296688
0.0302258
0.0308
0.0313912
0.0319991
0.0326235
0.0332642
0.0339209
0.0345933
0.0352811
0.0359839
0.0367015
0.0374338
0.0381804
0.0389414
0.0397167
0.0405065
0.0236396
0.0236456
0.0236521
0.0236588
0.0236659
0.0236732
0.023681
0.023689
0.0236973
0.023706
0.0237149
0.0237252
0.0237403
0.0237667
0.0238143
0.0238937
0.0240123
0.0241724
0.0243728
0.024611
0.0248842
0.0251902
0.025527
0.0258927
0.0262855
0.0267036
0.0271451
0.0276082
0.0280916
0.0285943
0.0291154
0.0296545
0.0302111
0.030785
0.0313758
0.0319833
0.0326073
0.0332476
0.033904
0.0345761
0.0352636
0.0359661
0.0366834
0.0374152
0.0381615
0.0389222
0.0396973
0.0404868
0.0236394
0.0236455
0.0236519
0.0236586
0.0236657
0.0236731
0.0236808
0.0236889
0.0236972
0.0237058
0.0237148
0.0237251
0.0237402
0.0237666
0.0238142
0.0238936
0.0240122
0.0241724
0.0243728
0.0246109
0.0248841
0.0251901
0.0255269
0.0258926
0.0262855
0.0267036
0.027145
0.0276081
0.0280916
0.0285942
0.0291154
0.0296545
0.0302111
0.030785
0.0313758
0.0319833
0.0326073
0.0332476
0.0339039
0.034576
0.0352635
0.035966
0.0366833
0.0374152
0.0381616
0.0389222
0.0396973
0.0404867
0.0236395
0.0236456
0.023652
0.0236587
0.0236658
0.0236732
0.023681
0.023689
0.0236974
0.023706
0.023715
0.0237253
0.0237406
0.0237675
0.0238158
0.0238962
0.024016
0.0241772
0.0243786
0.0246177
0.0248918
0.0251986
0.0255362
0.0259026
0.0262961
0.0267148
0.0271569
0.0276205
0.0281044
0.0286075
0.0291291
0.0296686
0.0302256
0.0307999
0.0313911
0.031999
0.0326234
0.0332641
0.0339208
0.0345932
0.0352809
0.0359838
0.0367014
0.0374336
0.0381803
0.0389412
0.0397166
0.0405065
0.0236398
0.0236459
0.0236523
0.0236591
0.0236662
0.0236736
0.0236814
0.0236895
0.0236978
0.0237065
0.0237155
0.023726
0.0237417
0.0237695
0.0238193
0.0239017
0.0240237
0.0241871
0.0243905
0.0246315
0.0249073
0.0252157
0.0255548
0.0259226
0.0263175
0.0267374
0.0271805
0.0276452
0.0281301
0.0286341
0.0291566
0.0296969
0.0302548
0.0308298
0.0314217
0.0320305
0.0326556
0.0332971
0.0339545
0.0346275
0.035316
0.0360195
0.0367377
0.0374706
0.0382179
0.0389796
0.0397555
0.040546
0.0236403
0.0236464
0.0236529
0.0236597
0.0236668
0.0236743
0.0236821
0.0236902
0.0236986
0.0237073
0.0237163
0.023727
0.0237434
0.0237726
0.0238248
0.0239102
0.0240354
0.0242021
0.0244085
0.0246523
0.0249307
0.0252415
0.0255828
0.0259528
0.0263496
0.0267713
0.0272161
0.0276823
0.0281686
0.028674
0.0291977
0.0297393
0.0302984
0.0308746
0.0314678
0.0320776
0.0327039
0.0333464
0.034005
0.0346791
0.0353686
0.0360731
0.0367923
0.0375261
0.0382742
0.0390368
0.0398137
0.040605
0.023641
0.0236472
0.0236537
0.0236605
0.0236677
0.0236752
0.023683
0.0236911
0.0236996
0.0237083
0.0237174
0.0237285
0.0237459
0.0237771
0.0238324
0.0239219
0.0240515
0.0242224
0.0244328
0.0246802
0.0249621
0.0252761
0.0256204
0.0259931
0.0263925
0.0268166
0.0272635
0.0277318
0.0282199
0.0287271
0.0292525
0.0297958
0.0303565
0.0309343
0.031529
0.0321404
0.0327683
0.0334123
0.0340722
0.0347478
0.0354386
0.0361444
0.0368649
0.0376
0.0383494
0.0391132
0.0398913
0.0406838
0.0236419
0.0236481
0.0236547
0.0236616
0.0236688
0.0236764
0.0236842
0.0236924
0.0237009
0.0237096
0.0237189
0.0237305
0.0237493
0.0237831
0.0238425
0.0239371
0.0240722
0.0242484
0.0244637
0.0247156
0.0250017
0.0253196
0.0256676
0.0260437
0.0264463
0.0268733
0.027323
0.0277937
0.0282842
0.0287936
0.0293213
0.0298666
0.0304294
0.0310091
0.0316058
0.0322191
0.0328488
0.0334946
0.0341563
0.0348336
0.0355261
0.0362335
0.0369556
0.0376922
0.0384432
0.0392084
0.0399881
0.0407822
0.023643
0.0236493
0.023656
0.0236629
0.0236702
0.0236778
0.0236857
0.0236939
0.0237024
0.0237112
0.0237207
0.0237331
0.0237537
0.023791
0.0238555
0.0239563
0.0240979
0.0242803
0.0245014
0.0247587
0.0250497
0.0253723
0.0257246
0.0261049
0.0265112
0.0269417
0.0273945
0.0278682
0.0283615
0.0288736
0.0294038
0.0299516
0.0305168
0.0310989
0.0316979
0.0323135
0.0329454
0.0335934
0.0342572
0.0349364
0.0356309
0.0363403
0.0370643
0.0378028
0.0385556
0.0393227
0.0401041
0.0409
0.0236444
0.0236508
0.0236574
0.0236645
0.0236718
0.0236795
0.0236874
0.0236957
0.0237042
0.0237131
0.0237229
0.0237364
0.0237594
0.023801
0.0238717
0.0239799
0.0241289
0.0243185
0.0245462
0.0248097
0.0251064
0.0254343
0.0257916
0.0261766
0.0265872
0.0270217
0.0274782
0.0279553
0.0284518
0.0289669
0.0295
0.0300507
0.0306187
0.0312037
0.0318053
0.0324235
0.033058
0.0337085
0.0343748
0.0350564
0.0357532
0.0364648
0.037191
0.0379316
0.0386866
0.0394557
0.0402393
0.0410373
0.0236459
0.0236524
0.0236592
0.0236663
0.0236737
0.0236814
0.0236894
0.0236977
0.0237064
0.0237153
0.0237255
0.0237405
0.0237668
0.0238137
0.0238918
0.0240084
0.0241659
0.0243634
0.0245986
0.0248689
0.025172
0.025506
0.0258689
0.026259
0.0266745
0.0271134
0.027574
0.0280549
0.028555
0.0290736
0.0296101
0.030164
0.0307352
0.0313232
0.031928
0.0325491
0.0331865
0.0338399
0.0345089
0.0351933
0.0358926
0.0366068
0.0373355
0.0380786
0.038836
0.0396076
0.0403936
0.041194
0.0236477
0.0236542
0.0236611
0.0236683
0.0236758
0.0236836
0.0236917
0.0237001
0.0237087
0.0237178
0.0237287
0.0237458
0.0237761
0.0238296
0.0239163
0.0240423
0.0242092
0.0244155
0.0246588
0.0249367
0.0252469
0.0255874
0.0259566
0.0263525
0.0267733
0.027217
0.0276821
0.0281672
0.0286713
0.0291937
0.0297339
0.0302915
0.0308661
0.0314576
0.0320658
0.0326903
0.033331
0.0339875
0.0346596
0.035347
0.0360493
0.0367664
0.0374979
0.0382436
0.0390037
0.0397779
0.0405666
0.0413696
0.0236496
0.0236563
0.0236633
0.0236705
0.0236781
0.023686
0.0236942
0.0237026
0.0237113
0.0237207
0.0237328
0.0237526
0.023788
0.0238494
0.0239459
0.0240823
0.0242593
0.0244752
0.0247273
0.0250134
0.0253312
0.025679
0.0260549
0.026457
0.0268836
0.0273326
0.0278026
0.0282923
0.0288007
0.0293273
0.0298716
0.0304331
0.0310116
0.031607
0.0322189
0.032847
0.0334913
0.0341513
0.0348268
0.0355175
0.0362231
0.0369433
0.0376778
0.0384266
0.0391896
0.0399669
0.0407585
0.0415645
0.0236518
0.0236586
0.0236657
0.023673
0.0236807
0.0236886
0.0236969
0.0237054
0.0237142
0.0237241
0.0237378
0.0237612
0.0238031
0.0238738
0.0239812
0.024129
0.0243169
0.0245429
0.0248045
0.0250993
0.0254254
0.0257809
0.026164
0.0265728
0.0270055
0.0274602
0.0279354
0.02843
0.0289432
0.0294744
0.0300231
0.0305889
0.0311717
0.0317711
0.032387
0.0330192
0.0336673
0.0343312
0.0350104
0.0357047
0.0364137
0.0371373
0.0378752
0.0386273
0.0393936
0.0401742
0.040969
0.0417783
0.0236542
0.0236611
0.0236683
0.0236757
0.0236835
0.0236915
0.0236999
0.0237085
0.0237174
0.0237281
0.0237442
0.0237724
0.0238222
0.0239035
0.024023
0.024183
0.0243824
0.0246191
0.0248907
0.0251949
0.0255298
0.0258935
0.0262842
0.0267001
0.0271392
0.0275999
0.0280807
0.0285807
0.0290989
0.029635
0.0301884
0.0307589
0.0313462
0.0319501
0.0325704
0.0332068
0.0338591
0.034527
0.0352102
0.0359084
0.0366212
0.0373484
0.0380899
0.0388456
0.0396153
0.0403994
0.0411978
0.0420107
0.0236567
0.0236638
0.0236711
0.0236787
0.0236865
0.0236947
0.0237031
0.0237118
0.0237211
0.023733
0.0237524
0.0237868
0.0238461
0.0239394
0.024072
0.0242448
0.0244564
0.0247044
0.0249865
0.0253005
0.0256446
0.0260169
0.0264157
0.0268389