/*--------------------------------*- C++ -*----------------------------------*\
  =========                 |
  \\      /  F ield         | OpenFOAM: The Open Source CFD Toolbox
   \\    /   O peration     | Website:  https://openfoam.org
    \\  /    A nd           | Version:  7
     \\/     M anipulation  |
\*---------------------------------------------------------------------------*/
FoamFile
{
    version     2.0;
    format      ascii;
    class       volScalarField;
    location    "104000";
    object      strainRate;
}
// * * * * * * * * * * * * * * * * * * * * * * * * * * * * * * * * * * * * * //

dimensions      [0 0 -1 0 0 0 0];

internalField   nonuniform List<scalar> 
4838
(
9.85759e-05
9.47321e-05
9.37185e-05
9.23984e-05
9.09037e-05
8.93245e-05
8.76997e-05
8.60536e-05
8.44039e-05
8.2766e-05
8.1154e-05
7.95809e-05
7.80591e-05
7.66005e-05
7.52161e-05
7.39168e-05
7.27131e-05
7.16147e-05
7.06309e-05
6.977e-05
6.90399e-05
6.84471e-05
6.79973e-05
6.76949e-05
6.75429e-05
6.75427e-05
6.76945e-05
6.79966e-05
6.84461e-05
6.90385e-05
6.97683e-05
7.06286e-05
7.1612e-05
7.27098e-05
7.39129e-05
7.52113e-05
7.65948e-05
7.80524e-05
7.95728e-05
8.11443e-05
8.27544e-05
8.43899e-05
8.60368e-05
8.76794e-05
8.92999e-05
9.08739e-05
9.23621e-05
9.36766e-05
9.46857e-05
9.85083e-05
0.000116778
0.000106481
0.00010528
0.000103678
0.000101764
9.96947e-05
9.75552e-05
9.53999e-05
9.32594e-05
9.11563e-05
8.91069e-05
8.71257e-05
8.52251e-05
8.34164e-05
8.17107e-05
8.01184e-05
7.86498e-05
7.73148e-05
7.61229e-05
7.50827e-05
7.42021e-05
7.34883e-05
7.29471e-05
7.25835e-05
7.24008e-05
7.24008e-05
7.25834e-05
7.29468e-05
7.34878e-05
7.42015e-05
7.50818e-05
7.61217e-05
7.73132e-05
7.86477e-05
8.01157e-05
8.17073e-05
8.34121e-05
8.52197e-05
8.71189e-05
8.90984e-05
9.11458e-05
9.32464e-05
9.53838e-05
9.75354e-05
9.96706e-05
0.000101735
0.000103644
0.000105241
0.000106437
0.000116727
0.000129221
0.000111814
0.000108782
0.00010698
0.000105212
0.000103371
0.000101427
9.94384e-05
9.74326e-05
9.54427e-05
9.34889e-05
9.15917e-05
8.97659e-05
8.80244e-05
8.63795e-05
8.48422e-05
8.34232e-05
8.21328e-05
8.09806e-05
7.99752e-05
7.91239e-05
7.84335e-05
7.79098e-05
7.75578e-05
7.73808e-05
7.73808e-05
7.75577e-05
7.79097e-05
7.84333e-05
7.91236e-05
7.99747e-05
8.09799e-05
8.21317e-05
8.34217e-05
8.48402e-05
8.63769e-05
8.8021e-05
8.97615e-05
9.1586e-05
9.34817e-05
9.54337e-05
9.74213e-05
9.94244e-05
0.00010141
0.000103351
0.000105189
0.000106952
0.000108752
0.000111776
0.000129156
0.000164273
0.000128806
0.000117495
0.000111995
0.000109243
0.00010732
0.000105445
0.000103585
0.00010169
9.98046e-05
9.79366e-05
9.6118e-05
9.43642e-05
9.26878e-05
9.11028e-05
8.962e-05
8.82497e-05
8.70033e-05
8.58911e-05
8.4921e-05
8.40993e-05
8.34322e-05
8.29255e-05
8.25844e-05
8.24128e-05
8.24128e-05
8.25844e-05
8.29256e-05
8.34323e-05
8.40994e-05
8.49209e-05
8.58909e-05
8.70029e-05
8.82489e-05
8.96189e-05
9.11011e-05
9.26854e-05
9.4361e-05
9.61138e-05
9.79311e-05
9.97976e-05
0.000101681
0.000103574
0.000105431
0.000107305
0.000109225
0.00011197
0.000117455
0.000128738
0.000164143
0.000245138
0.000176758
0.000144918
0.000126537
0.00011709
0.000112314
0.000109751
0.000107893
0.000106037
0.000104252
0.000102447
0.000100696
9.90112e-05
9.73944e-05
9.58677e-05
9.44387e-05
9.31141e-05
9.19093e-05
9.08363e-05
8.99021e-05
8.91106e-05
8.8466e-05
8.79746e-05
8.76428e-05
8.74756e-05
8.74757e-05
8.7643e-05
8.79749e-05
8.84664e-05
8.9111e-05
8.99025e-05
9.08367e-05
9.19095e-05
9.31141e-05
9.44384e-05
9.5867e-05
9.73932e-05
9.90093e-05
0.000100694
0.000102443
0.000104247
0.00010603
0.000107885
0.000109741
0.000112298
0.000117062
0.000126484
0.000144821
0.000176601
0.000244892
0.000400052
0.000281736
0.00021571
0.000170865
0.00014248
0.000126109
0.000117526
0.000113031
0.000110543
0.000108834
0.000107019
0.000105317
0.000103704
0.000102133
0.000100662
9.92901e-05
9.80042e-05
9.68345e-05
9.57994e-05
9.49033e-05
9.41437e-05
9.35203e-05
9.30409e-05
9.27153e-05
9.25507e-05
9.25508e-05
9.27156e-05
9.30414e-05
9.35209e-05
9.41445e-05
9.49042e-05
9.58003e-05
9.68354e-05
9.80049e-05
9.92906e-05
0.000100663
0.000102133
0.000103703
0.000105316
0.000107017
0.000108832
0.000110538
0.000113021
0.000117505
0.000126067
0.000142398
0.00017073
0.000215505
0.000281451
0.000399671
0.000654617
0.000471374
0.000358599
0.000273206
0.000211622
0.000169869
0.000143206
0.000127436
0.000118963
0.000114362
0.000111739
0.000109957
0.000108458
0.000106886
0.000105469
0.000104177
0.000102912
0.000101762
0.000100762
9.99119e-05
9.91911e-05
9.85858e-05
9.81118e-05
9.77868e-05
9.76219e-05
9.76221e-05
9.77872e-05
9.81124e-05
9.85867e-05
9.91923e-05
9.99133e-05
0.000100764
0.000101763
0.000102913
0.000104178
0.00010547
0.000106886
0.000108458
0.000109957
0.000111737
0.000114354
0.000118945
0.0001274
0.000143135
0.00016975
0.00021144
0.000272949
0.000358266
0.000470965
0.000654127
0.00101488
0.000764522
0.000598786
0.000462608
0.000355078
0.000273623
0.000214633
0.000174106
0.000147596
0.000131076
0.000122062
0.000116777
0.000113638
0.000111646
0.000110239
0.000109136
0.000107831
0.000106664
0.0001057
0.000104916
0.000104255
0.000103659
0.000103176
0.000102842
0.000102673
0.000102673
0.000102842
0.000103176
0.00010366
0.000104256
0.000104917
0.000105702
0.000106665
0.000107833
0.000109137
0.00011024
0.000111646
0.000113636
0.000116769
0.000122043
0.000131037
0.000147529
0.000173997
0.000214468
0.00027339
0.000354774
0.000462232
0.000598347
0.000764034
0.00101436
0.00145761
0.00115471
0.000943909
0.000757961
0.000599081
0.000468097
0.000364207
0.000284857
0.000226441
0.000185252
0.000157529
0.000139342
0.000127995
0.000121404
0.000117194
0.000114534
0.000112777
0.000111492
0.000110569
0.000109899
0.00010936
0.00010874
0.000108218
0.000107863
0.000107687
0.000107687
0.000107864
0.000108219
0.000108741
0.000109362
0.000109901
0.000110571
0.000111493
0.000112777
0.000114533
0.00011719
0.000121394
0.000127975
0.000139301
0.00015746
0.000185146
0.000226286
0.000284642
0.000363926
0.00046775
0.000598676
0.000757511
0.000943433
0.00115422
0.00145714
0.0019411
0.0016089
0.00137219
0.0011515
0.00095038
0.000772052
0.00061885
0.000491609
0.000389548
0.000310426
0.000250541
0.000207054
0.000176289
0.000155036
0.000140376
0.000130494
0.000124759
0.000120893
0.000118126
0.000116139
0.000114769
0.000113839
0.000113213
0.000112829
0.000112646
0.000112646
0.000112829
0.000113213
0.000113839
0.000114769
0.000116138
0.000118123
0.000120888
0.00012475
0.000130479
0.000140347
0.000154989
0.000176218
0.000206947
0.00025039
0.000310224
0.000389288
0.000491287
0.000618475
0.000771636
0.000949942
0.00115106
0.00137176
0.0016085
0.00194076
0.00242691
0.00208591
0.00184306
0.00160825
0.0013844
0.00117481
0.000982866
0.000811639
0.000663276
0.00053855
0.000436626
0.000355888
0.000293305
0.000245694
0.000210406
0.00018456
0.000166158
0.000152912
0.000143186
0.000136065
0.000131083
0.000128187
0.000126423
0.00012537
0.000124872
0.000124871
0.000125369
0.00012642
0.000128182
0.000131074
0.000136051
0.000143167
0.000152884
0.000166118
0.000184503
0.000210325
0.000245581
0.000293151
0.00035569
0.000436378
0.000538251
0.000662929
0.000811257
0.000982463
0.0011744
0.00138401
0.00160789
0.00184274
0.00208564
0.00242673
0.00289276
0.00255521
0.00231907
0.00208621
0.0018584
0.00163782
0.00142707
0.00122906
0.00104681
0.000882963
0.000739324
0.00061665
0.000514428
0.000431181
0.000364918
0.000312907
0.000272174
0.000241132
0.000217665
0.000200072
0.000187154
0.000178154
0.000172123
0.000168393
0.000166604
0.000166602
0.000168386
0.000172111
0.000178135
0.000187126
0.000200033
0.000217612
0.000241062
0.00027208
0.000312784
0.000364762
0.000430985
0.000514189
0.000616369
0.000739004
0.000882613
0.00104645
0.00122869
0.00142671
0.00163749
0.00185811
0.00208597
0.00231888
0.00255507
0.00289271
0.00333173
0.00300253
0.00277826
0.00255539
0.00233491
0.00211795
0.00190594
0.00170071
0.00150449
0.00131967
0.00114873
0.000993775
0.000856307
0.000736997
0.000635626
0.000551067
0.000481518
0.000425528
0.000381247
0.000346759
0.000320353
0.000300495
0.0002865
0.000277626
0.000273323
0.000273317
0.000277609
0.00028647
0.000300451
0.000320294
0.000346681
0.000381146
0.000425401
0.000481359
0.000550874
0.000635399
0.000736735
0.000856013
0.000993458
0.0011484
0.00131934
0.00150416
0.00170041
0.00190568
0.00211773
0.00233473
0.00255527
0.00277818
0.0030025
0.00333179
0.00374534
0.0034254
0.00321328
0.00300236
0.0027932
0.00258641
0.00238269
0.00218297
0.00198846
0.00180064
0.00162131
0.00145235
0.00129563
0.00115277
0.0010249
0.000912566
0.000815671
0.000733722
0.000665833
0.000610752
0.000567081
0.000533481
0.000509151
0.000493393
0.000485657
0.000485647
0.000493364
0.000509102
0.00053341
0.000566986
0.000610632
0.000665685
0.000733545
0.000815464
0.00091233
0.00102464
0.00115249
0.00129534
0.00145206
0.00162102
0.00180037
0.00198822
0.00218277
0.00238253
0.00258629
0.00279313
0.00300233
0.00321331
0.00342547
0.0037455
0.00413757
0.00382643
0.00362503
0.00342509
0.00322711
0.00303154
0.00283884
0.00264951
0.00246413
0.00228354
0.00210874
0.00194094
0.0017815
0.00163189
0.00149344
0.00136732
0.00125443
0.00115524
0.00106991
0.000998217
0.000939665
0.000893651
0.000859662
0.000837281
0.000826178
0.000826165
0.000837243
0.000859598
0.00089356
0.000939548
0.000998073
0.00106974
0.00115505
0.00125421
0.00136709
0.00149319
0.00163164
0.00178126
0.00194071
0.00210853
0.00228335
0.00246397
0.00264939
0.00283877
0.00303151
0.00322712
0.00342515
0.00362513
0.00382658
0.0041378
0.00451216
0.00420917
0.00401682
0.00382627
0.00363801
0.00345247
0.00327008
0.00309126
0.00291644
0.00274613
0.00258088
0.00242144
0.00226868
0.00212357
0.00198718
0.00186058
0.00174479
0.00164072
0.001549
0.00147011
0.0014043
0.0013517
0.00131229
0.00128604
0.00127293
0.00127291
0.001286
0.00131222
0.00135161
0.00140419
0.00146997
0.00154884
0.00164054
0.0017446
0.00186038
0.00198699
0.00212338
0.0022685
0.00242128
0.00258075
0.00274602
0.00291637
0.00309123
0.00327009
0.00345251
0.0036381
0.0038264
0.00401699
0.00420938
0.00451246
0.00487202
0.00457663
0.00439194
0.00420935
0.00402931
0.00385226
0.00367864
0.0035089
0.00334346
0.00318275
0.00302723
0.00287744
0.00273396
0.00259743
0.00246862
0.00234837
0.00223752
0.00213688
0.00204721
0.00196919
0.00190339
0.00185027
0.00181015
0.00178327
0.00176979
0.00176978
0.00178324
0.0018101
0.00185019
0.00190329
0.00196907
0.00204708
0.00213673
0.00223737
0.00234822
0.00246848
0.0025973
0.00273384
0.00287734
0.00302716
0.00318271
0.00334345
0.00350894
0.00367872
0.00385237
0.00402946
0.00420954
0.00439217
0.0045769
0.00487237
0.00521933
0.00493111
0.00475302
0.00457723
0.00440419
0.00423433
0.00406811
0.00390595
0.00374832
0.00359565
0.00344839
0.00330702
0.00317202
0.00304393
0.00292334
0.00281087
0.00270717
0.00261287
0.00252865
0.00245516
0.00239298
0.00234263
0.00230449
0.00227888
0.00226602
0.00226601
0.00227886
0.00230445
0.00234257
0.00239291
0.00245507
0.00252855
0.00261276
0.00270706
0.00281077
0.00292324
0.00304385
0.00317196
0.00330697
0.00344838
0.00359567
0.00374837
0.00390605
0.00406824
0.0042345
0.0044044
0.00457748
0.0047533
0.00493143
0.00521974
0.00555578
0.00527436
0.00510202
0.00493215
0.00476517
0.0046015
0.00444158
0.00428584
0.00413475
0.00398873
0.00384825
0.00371376
0.00358573
0.00346464
0.00335099
0.00324531
0.00314812
0.00305995
0.00298135
0.00291284
0.00285493
0.00280804
0.00277254
0.00274871
0.00273674
0.00273673
0.00274869
0.00277251
0.002808
0.00285488
0.00291279
0.00298128
0.00305988
0.00314806
0.00324525
0.00335094
0.0034646
0.00358571
0.00371377
0.00384829
0.0039888
0.00413485
0.00428599
0.00444176
0.00460172
0.00476543
0.00493245
0.00510235
0.00527474
0.00555625
0.00544051
0.00527585
0.00511417
0.00495591
0.00480145
0.00465125
0.00450574
0.00436535
0.00423053
0.00410172
0.00397937
0.00386393
0.00375587
0.00365564
0.00356372
0.00348054
0.00340658
0.00334225
0.00328797
0.00324408
0.0032109
0.00318864
0.00317747
0.00317747
0.00318863
0.00321089
0.00324407
0.00328795
0.00334223
0.00340655
0.00348051
0.00356369
0.00365562
0.00375586
0.00386394
0.00397939
0.00410177
0.00423061
0.00436547
0.0045059
0.00465145
0.00480168
0.00495617
0.00511448
0.00527619
0.00544091
0.00560824
0.00588326
0.0056097
0.00545272
0.00529922
0.00514958
0.00500422
0.00486357
0.00472804
0.00459806
0.00447406
0.00435647
0.00424571
0.00414222
0.00404641
0.00395871
0.00387951
0.00380922
0.0037482
0.00369679
0.00365528
0.00362393
0.00360292
0.00359238
0.00359238
0.00360292
0.00362393
0.00365529
0.0036968
0.00374821
0.00380923
0.00387952
0.00395872
0.00404643
0.00414224
0.00424576
0.00435654
0.00447416
0.00459819
0.00472821
0.00486377
0.00500446
0.00514985
0.00529953
0.00545308
0.0056101
0.00577023
0.00593309
0.00620193
0.00563279
0.00548742
0.00534635
0.00520998
0.00507871
0.00495296
0.00483313
0.00471963
0.00461286
0.00451322
0.0044211
0.00433689
0.00426095
0.00419364
0.00413529
0.00408617
0.00404656
0.00401666
0.00399663
0.0039866
0.0039866
0.00399665
0.00401668
0.00404659
0.00408621
0.00413533
0.00419369
0.004261
0.00433694
0.00442115
0.00451328
0.00461295
0.00471974
0.00483328
0.00495314
0.00507893
0.00521022
0.00534663
0.00548774
0.00563316
0.00578249
0.00593536
0.00609141
0.00625027
0.00651324
0.00581619
0.00567892
0.00554635
0.00541886
0.00529685
0.0051807
0.00507078
0.00496747
0.00487116
0.00478222
0.00470099
0.00462781
0.004563
0.00450687
0.00445966
0.00442161
0.00439291
0.00437369
0.00436407
0.00436408
0.00437373
0.00439296
0.00442167
0.00445973
0.00450695
0.00456309
0.00462789
0.00470107
0.00478232
0.00487128
0.00496761
0.00507094
0.00518089
0.00529708
0.00541914
0.00554666
0.00567926
0.00581658
0.00595821
0.00610378
0.00625296
0.00640538
0.0065607
0.00681813
0.00600306
0.00587387
0.00574975
0.00563106
0.00551816
0.00541141
0.00531117
0.00521779
0.00513162
0.00505299
0.0049822
0.00491956
0.00486533
0.00481975
0.00478303
0.00475534
0.00473682
0.00472754
0.00472756
0.00473687
0.00475542
0.00478312
0.00481985
0.00486544
0.00491968
0.00498232
0.00505312
0.00513177
0.00521797
0.00531137
0.00541164
0.00551842
0.00563136
0.0057501
0.00587426
0.00600347
0.0061374
0.00627566
0.0064179
0.0065638
0.00671301
0.00686521
0.00711742
0.00607245
0.00595671
0.00584672
0.00574279
0.00564527
0.00555448
0.00547077
0.00539442
0.00532574
0.005265
0.00521244
0.00516828
0.00513272
0.00510591
0.00508799
0.00507901
0.00507904
0.00508805
0.00510601
0.00513284
0.00516841
0.00521257
0.00526514
0.0053259
0.00539461
0.00547098
0.00555472
0.00564553
0.00574309
0.00584705
0.00595709
0.00607287
0.00619403
0.00632024
0.00645115
0.00658642
0.00672571
0.0068687
0.00701509
0.00716455
0.00741188
0.00627481
0.00616739
0.00606597
0.00597088
0.00588241
0.00580088
0.00572656
0.00565974
0.00560069
0.0055496
0.0055067
0.00547216
0.00544613
0.00542873
0.00542002
0.00542004
0.00542879
0.00544623
0.00547229
0.00550684
0.00554976
0.00560085
0.00565994
0.00572679
0.00580113
0.0058827
0.0059712
0.00606634
0.00616779
0.00627526
0.0063884
0.0065069
0.00663046
0.0067587
0.00689132
0.00702801
0.00716845
0.00731236
0.00745943
0.00770221
0.00620258
0.00612298
0.00605047
0.00598532
0.00592775
0.00587798
0.0058362
0.00580257
0.00577724
0.00576029
0.00575181
0.00575183
0.00576034
0.00577732
0.0058027
0.00583635
0.00587816
0.00592795
0.00598555
0.00605074
0.00612328
0.00620291
0.00628936
0.00638234
0.00648156
0.00658674
0.00669757
0.00681373
0.00693492
0.00706081
0.00719112
0.00732552
0.00746374
0.00760551
0.00775053
0.00798909
0.00624718
0.00619858
0.0061578
0.00612498
0.00610027
0.00608373
0.00607546
0.00607547
0.00608378
0.00610035
0.00612512
0.00615797
0.00619879
0.00624743
0.00630371
0.00636742
0.00643835
0.00651626
0.00660089
0.00669197
0.00678922
0.00689239
0.00700117
0.00711527
0.00723439
0.00735824
0.00748651
0.00761894
0.00775527
0.00789521
0.00803848
0.00827314
0.00647241
0.00644032
0.00641615
0.00639999
0.00639191
0.00639192
0.00640005
0.00641626
0.00644048
0.00647263
0.00651257
0.00656019
0.0066153
0.00667771
0.00674721
0.0068236
0.00690661
0.00699602
0.00709156
0.00719296
0.00729995
0.00741225
0.00752958
0.00765165
0.00777818
0.00790894
0.00804365
0.00818206
0.00832386
0.00855491
0.00670202
0.00670203
0.00671
0.0067259
0.00674964
0.00678117
0.00682036
0.00686706
0.00692114
0.00698239
0.00705065
0.00712568
0.0072073
0.00729525
0.00738929
0.00748917
0.00759461
0.00770535
0.00782114
0.00794169
0.00806676
0.00819611
0.00832948
0.00846661
0.00860719
0.0088349
0.00708438
0.00712291
0.00716882
0.00722198
0.00728223
0.0073494
0.00742326
0.00750366
0.00759035
0.00768311
0.00778166
0.00788578
0.00799521
0.00810969
0.00822898
0.00835283
0.00848101
0.00861327
0.00874934
0.00888894
0.00911359
0.00751853
0.00757793
0.00764415
0.00771702
0.00779638
0.007882
0.00797366
0.00807108
0.00817407
0.0082824
0.0083958
0.00851405
0.0086369
0.00876414
0.00889549
0.0090307
0.00916952
0.00939137
0.00793558
0.00800762
0.0080861
0.00817081
0.00826153
0.00835801
0.00846007
0.00856748
0.00867999
0.0087974
0.00891946
0.00904593
0.00917657
0.00931111
0.00944933
0.00966862
0.00822428
0.00829564
0.00837338
0.00845732
0.00854725
0.00864298
0.00874428
0.00885094
0.00896275
0.0090795
0.00920092
0.0093268
0.00945689
0.00959094
0.00972872
0.00994565
0.00851082
0.0085816
0.00865872
0.00874202
0.00883133
0.00892643
0.00902714
0.00913322
0.0092445
0.00936073
0.00948167
0.00960711
0.0097368
0.00987052
0.010008
0.0102228
0.00902539
0.0091142
0.00920882
0.00930907
0.00941473
0.0095256
0.00964143
0.00976203
0.00988718
0.0100166
0.0101501
0.0102875
0.0105003
0.00980639
0.00992197
0.0100424
0.0101673
0.0102966
0.0104301
0.0105674
0.0107784
0.0104478
0.0105771
0.0107106
0.0108479
0.0110573
6.81934e-05
6.78948e-05
6.77356e-05
6.77258e-05
6.78666e-05
6.81572e-05
6.85952e-05
6.91763e-05
6.98953e-05
7.07455e-05
7.17193e-05
7.28083e-05
7.40032e-05
7.52943e-05
7.66712e-05
7.81231e-05
7.96386e-05
8.12059e-05
8.28128e-05
8.44459e-05
8.60912e-05
8.77331e-05
8.93536e-05
9.09283e-05
9.24175e-05
9.37329e-05
9.4733e-05
9.87085e-05
7.31417e-05
7.27811e-05
7.25907e-05
7.25805e-05
7.27516e-05
7.31032e-05
7.36322e-05
7.43342e-05
7.52033e-05
7.62327e-05
7.74145e-05
7.87401e-05
8.02001e-05
8.17845e-05
8.34831e-05
8.52854e-05
8.71803e-05
8.91564e-05
9.12014e-05
9.33006e-05
9.54376e-05
9.75896e-05
9.97258e-05
0.000101791
0.0001037
0.000105295
0.000106482
0.000116884
7.80917e-05
7.77416e-05
7.75598e-05
7.75517e-05
7.77189e-05
7.80604e-05
7.85733e-05
7.92529e-05
8.00937e-05
8.10891e-05
8.22318e-05
8.35133e-05
8.49242e-05
8.64539e-05
8.80919e-05
8.9827e-05
9.16471e-05
9.35391e-05
9.54882e-05
9.7474e-05
9.9476e-05
0.000101461
0.000103401
0.000105237
0.000106999
0.000108794
0.000111818
0.000129318
8.30949e-05
8.27565e-05
8.25815e-05
8.25749e-05
8.2738e-05
8.30697e-05
8.35666e-05
8.42237e-05
8.50354e-05
8.59962e-05
8.70995e-05
8.83375e-05
8.97e-05
9.11756e-05
9.27537e-05
9.44239e-05
9.61718e-05
9.79851e-05
9.98482e-05
0.000101729
0.000103621
0.000105476
0.000107348
0.000109265
0.000112016
0.000117515
0.00012882
0.000164391
8.81337e-05
8.7805e-05
8.76352e-05
8.76295e-05
8.77893e-05
8.81124e-05
8.85945e-05
8.92294e-05
9.00115e-05
9.09369e-05
9.20015e-05
9.31984e-05
9.45155e-05
9.59374e-05
9.74576e-05
9.90681e-05
0.000100747
0.000102492
0.000104292
0.000106073
0.000107927
0.00010978
0.000112342
0.000117122
0.000126572
0.000144955
0.000176783
0.000245266
9.31915e-05
9.28691e-05
9.27025e-05
9.26976e-05
9.28554e-05
9.31729e-05
9.36431e-05
9.42567e-05
9.5007e-05
9.58946e-05
9.69221e-05
9.80844e-05
9.93629e-05
0.000100728
0.000102192
0.000103758
0.000105364
0.00010706
0.000108868
0.000110576
0.000113067
0.000117569
0.00012616
0.000142543
0.000170929
0.000215765
0.000281773
0.000400183
9.82555e-05
9.79339e-05
9.77674e-05
9.7763e-05
9.79217e-05
9.82388e-05
9.87033e-05
9.92975e-05
0.000100009
0.000100852
0.000101844
0.000102987
0.000104245
0.000105529
0.000106941
0.000108508
0.000109998
0.000111778
0.00011441
0.000119024
0.000127508
0.000143301
0.000169978
0.000211734
0.00027331
0.000358685
0.000471432
0.000654759
0.000103314
0.000102984
0.000102813
0.000102809
0.000102972
0.000103299
0.000103771
0.000104352
0.000105004
0.000105782
0.000106741
0.000107904
0.000109197
0.000110292
0.000111698
0.000113694
0.000116844
0.000122149
0.000131197
0.000147743
0.000174274
0.000214819
0.000273815
0.000355261
0.00046277
0.000598917
0.000764609
0.00101504
0.000108354
0.000108
0.000107821
0.000107817
0.000107989
0.000108339
0.000108851
0.000109443
0.000109974
0.000110642
0.000111565
0.00011285
0.000114614
0.000117286
0.000121511
0.000128123
0.000139523
0.000157753
0.000185514
0.00022673
0.000285169
0.000364519
0.000468398
0.000599354
0.000758193
0.000944087
0.00115482
0.00145779
0.000113346
0.000112958
0.000112771
0.000112768
0.000112948
0.000113333
0.000113961
0.0001149
0.000116282
0.000118276
0.000121049
0.000124927
0.000130699
0.000140633
0.000155335
0.000176636
0.000207456
0.000250988
0.000310899
0.000390036
0.000492094
0.000619309
0.000772467
0.000950735
0.00115179
0.00137239
0.00160902
0.00194129
0.000126694
0.000125629
0.000125125
0.000125121
0.000125619
0.000126678
0.000128466
0.000131447
0.000136466
0.000143609
0.000153357
0.000166634
0.000185082
0.000210986
0.000246331
0.000293997
0.000356609
0.000437364
0.000539281
0.000663977
0.000812287
0.000983441
0.00117529
0.0013848
0.00160854
0.00184326
0.00208603
0.00242711
0.00017292
0.000169164
0.000167362
0.000167356
0.000169147
0.000172891
0.000178954
0.000188007
0.000200948
0.000218567
0.000242069
0.000273153
0.000313923
0.000365964
0.000432257
0.000515516
0.000617718
0.000740344
0.000883905
0.00104766
0.00122979
0.00142767
0.00163831
0.00185877
0.00208648
0.00231925
0.0025553
0.00289295
0.000288088
0.00027919
0.000274871
0.000274863
0.000279167
0.000288054
0.000302067
0.000321903
0.000348299
0.000382779
0.000427069
0.000483067
0.00055261
0.000637141
0.000738465
0.0008577
0.000995065
0.00114989
0.00132067
0.00150533
0.0017014
0.00190649
0.00211837
0.00233522
0.00255561
0.00277839
0.00300259
0.0033319
0.000511318
0.000495563
0.000487832
0.00048783
0.000495558
0.000511311
0.00053563
0.000569192
0.000612827
0.000667858
0.000735691
0.000817572
0.000914376
0.0010266
0.00115433
0.00129703
0.00145359
0.00162238
0.00180152
0.00198917
0.00218354
0.00238313
0.00258673
0.00279343
0.0030025
0.00321337
0.00342544
0.0037455
0.00100024
0.00107186
0.00115708
0.00125614
0.00136889
0.00149484
0.00163312
0.00178257
0.00194185
0.0021095
0.00228415
0.00246462
0.00264989
0.00283913
0.00303175
0.00322725
0.00342518
0.00362507
0.00382645
0.00413772
0.0027464
0.00291666
0.00309142
0.0032702
0.00345255
0.00363806
0.0038263
0.00401682
0.00420916
0.00451229
0.0038522
0.00402925
0.0042093
0.0043919
0.00457659
0.00487213
0.00475292
0.00493104
0.00521942
0.0117771
0.0120664
0.0123576
0.00682323
0.0071252
0.00742269
0.00771637
0.00800688
0.00829477
0.00858059
0.00886486
0.00914803
0.00943049
0.00971257
0.00999458
0.0102768
0.0105596
0.0108431
0.0111276
0.0114134
0.0117007
0.0119897
0.0122806
0.00580113
0.00612313
0.00643807
0.0067468
0.00705011
0.00734876
0.00764344
0.00793477
0.00822338
0.00850979
0.00879453
0.00907807
0.0093608
0.00964307
0.00992521
0.0102075
0.0104903
0.0107737
0.0110581
0.0113437
0.0116308
0.0119195
0.0122102
0.00572677
0.00605057
0.0063671
0.00667726
0.00698182
0.00728156
0.00757716
0.00786929
0.00815857
0.00844556
0.00873074
0.00901462
0.00929761
0.00958007
0.00986234
0.0101447
0.0104275
0.0107109
0.0109952
0.0112807
0.0115676
0.0118561
0.0121464
0.00565991
0.00598536
0.00630337
0.00661482
0.00692053
0.00722127
0.00751774
0.00781062
0.00810051
0.00838801
0.00867362
0.00895782
0.00924107
0.00952372
0.00980612
0.0100886
0.0103714
0.0106548
0.010939
0.0112244
0.0115111
0.0117994
0.0120895
0.00560081
0.00592776
0.0062471
0.00655972
0.00686645
0.00716808
0.00746533
0.00775888
0.00804936
0.00833735
0.00862335
0.00890786
0.00919131
0.00947411
0.00975663
0.0100392
0.010322
0.0106054
0.0108896
0.0111749
0.0114615
0.0117496
0.0120395
9.49831e-05
9.99324e-05
0.000104921
0.000109904
0.000116149
0.000136094
0.000200137
0.000346881
0.000610954
0.000998506
0.00147047
0.00196959
0.00245559
0.00291328
0.00334269
0.00374863
0.00413569
0.00450722
0.00486562
0.00521264
0.0055497
0.00587796
0.00619846
0.0065121
0.00681974
0.00712217
0.00742012
0.00771426
0.00800525
0.00829367
0.00858003
0.00886482
0.00914848
0.00943143
0.00971405
0.00999664
0.0102795
0.0105629
0.0108471
0.0111323
0.0114188
0.0117068
0.0119965
9.41688e-05
9.91749e-05
0.00010424
0.000109354
0.000114771
0.000131101
0.000187204
0.000320461
0.000567272
0.00093995
0.00140467
0.0019038
0.00239342
0.00285537
0.0032884
0.0036972
0.00408655
0.00446
0.00482002
0.00516847
0.00550679
0.00583616
0.00615764
0.00647216
0.00678058
0.00708369
0.00738222
0.00767688
0.0079683
0.00825708
0.00854374
0.00882878
0.00911265
0.00939575
0.00967845
0.0099611
0.010244
0.0105274
0.0108115
0.0110966
0.011383
0.0116709
0.0119605
9.35044e-05
9.85444e-05
0.000103629
0.000108726
0.000113834
0.000128194
0.00017819
0.000300589
0.000533663
0.000893933
0.00135207
0.00185069
0.00234307
0.00280848
0.00324452
0.00365569
0.00404692
0.00442193
0.00478329
0.0051329
0.00547223
0.00580252
0.0061248
0.00644004
0.00674909
0.00705275
0.00735176
0.00764684
0.00793861
0.00822768
0.00851457
0.00879982
0.00908386
0.00936709
0.0096499
0.00993261
0.0102155
0.0104989
0.010783
0.0110681
0.0113544
0.0116422
0.0119317
6.81949e-05
7.3126e-05
7.80618e-05
8.30338e-05
8.80107e-05
9.30136e-05
9.80717e-05
0.000103147
0.000108201
0.000113205
0.000126425
0.000172151
0.000286584
0.000509325
0.000859942
0.00131266
0.00181058
0.00230494
0.00277298
0.00321132
0.00362432
0.00401701
0.0043932
0.00475558
0.00510608
0.00544619
0.00577717
0.00610007
0.00641585
0.00672537
0.00702945
0.00732883
0.00762422
0.00791626
0.00820555
0.00849263
0.00877802
0.00906219
0.00934553
0.00962841
0.00991118
0.0101941
0.0104775
0.0107616
0.0110467
0.0113329
0.0116207
0.01191
6.78808e-05
7.27465e-05
7.76862e-05
8.26696e-05
8.76717e-05
9.27029e-05
9.77641e-05
0.000102821
0.000107848
0.00011282
0.00012537
0.000168417
0.000277704
0.000493562
0.00083756
0.00128642
0.00178371
0.00227934
0.00274915
0.00318906
0.00360329
0.00399696
0.00437397
0.00473703
0.00508813
0.00542877
0.00576021
0.00608352
0.00639966
0.00670951
0.00701388
0.00731351
0.00760912
0.00790134
0.00819078
0.00847798
0.00876347
0.00904772
0.00933114
0.00961408
0.00989689
0.0101799
0.0104633
0.0107473
0.0110324
0.0113186
0.0116063
0.0118956
6.77112e-05
7.25418e-05
7.74886e-05
8.24834e-05
8.75072e-05
9.25534e-05
9.76119e-05
0.00010266
0.000107676
0.000112639
0.000124873
0.000166629
0.000273401
0.000485825
0.000826457
0.0012733
0.00177022
0.00226648
0.00273718
0.00317788
0.00359274
0.00398691
0.00436432
0.00472773
0.00507912
0.00542003
0.00575171
0.00607523
0.00639156
0.00670158
0.0070061
0.00730586
0.00760156
0.00789386
0.00818338
0.00847066
0.00875622
0.00904052
0.00932396
0.00960691
0.00988972
0.0101727
0.0104561
0.0107402
0.0110252
0.0113114
0.0115991
0.0118884
6.76923e-05
7.25216e-05
7.74718e-05
8.24732e-05
8.75073e-05
9.2561e-05
9.76205e-05
0.000102667
0.00010768
0.000112641
0.000124874
0.000166629
0.000273398
0.000485819
0.000826448
0.00127329
0.00177022
0.00226647
0.00273718
0.00317787
0.00359273
0.0039869
0.00436431
0.00472772
0.00507911
0.00542002
0.0057517
0.00607524
0.00639158
0.00670161
0.00700612
0.00730587
0.00760156
0.00789387
0.0081834
0.00847069
0.00875625
0.00904055
0.00932399
0.00960693
0.00988973
0.0101727
0.0104561
0.0107402
0.0110252
0.0113114
0.0115991
0.0118884
6.78262e-05
7.26863e-05
7.76349e-05
8.26368e-05
8.76734e-05
9.27294e-05
9.77908e-05
0.000102841
0.000107861
0.000112826
0.000125373
0.000168418
0.000277696
0.000493542
0.000837531
0.00128639
0.00178368
0.00227931
0.00274913
0.00318903
0.00360326
0.00399693
0.00437393
0.004737
0.0050881
0.00542875
0.00576021
0.00608355
0.00639971
0.00670957
0.00701393
0.00731355
0.00760914
0.00790136
0.0081908
0.00847804
0.00876357
0.00904783
0.00933123
0.00961415
0.00989694
0.0101799
0.0104633
0.0107474
0.0110324
0.0113187
0.0116063
0.0118956
6.81119e-05
7.30342e-05
7.79753e-05
8.29711e-05
8.80032e-05
9.30566e-05
9.81191e-05
0.000103178
0.000108218
0.000113212
0.000126428
0.000172148
0.000286566
0.000509288
0.000859893
0.00131261
0.00181054
0.0023049
0.00277294
0.00321127
0.00362427
0.00401695
0.00439315
0.00475553
0.00510604
0.00544618
0.00577719
0.00610011
0.0064159
0.00672543
0.0070295
0.00732888
0.00762427
0.00791631
0.00820561
0.00849273
0.00877815
0.00906233
0.00934568
0.00962856
0.00991132
0.0101943
0.0104777
0.0107617
0.0110468
0.011333
0.0116207
0.0119101
6.85466e-05
7.35614e-05
7.84888e-05
8.34716e-05
8.8492e-05
9.35362e-05
9.85948e-05
0.000103663
0.000108743
0.00011384
0.000128193
0.000178178
0.000300555
0.000533606
0.000893864
0.001352
0.00185063
0.00234301
0.00280842
0.00324445
0.00365561
0.00404685
0.00442186
0.00478323
0.00513286
0.00547222
0.00580253
0.00612483
0.00644008
0.00674914
0.00705281
0.00735184
0.00764692
0.0079387
0.00822777
0.0085147
0.00879997
0.00908402
0.00936728
0.00965011
0.00993283
0.0102157
0.0104991
0.0107832
0.0110683
0.0113546
0.0116424
0.0119318
6.91258e-05
7.42631e-05
7.91702e-05
8.41329e-05
8.91337e-05
9.41588e-05
9.92006e-05
0.00010426
0.000109364
0.000114772
0.000131091
0.000187176
0.000320406
0.000567193
0.000939859
0.00140458
0.00190373
0.00239335
0.00285529
0.00328832
0.00369711
0.00408646
0.00445991
0.00481996
0.00516842
0.00550676
0.00583616
0.00615765
0.00647219
0.00678063
0.00708376
0.00738232
0.007677
0.00796843
0.00825721
0.00854389
0.00882895
0.00911286
0.00939601
0.00967876
0.00996143
0.0102443
0.0105277
0.0108118
0.0110969
0.0113833
0.0116712
0.0119607
6.98439e-05
7.51328e-05
8.00134e-05
8.4949e-05
8.9922e-05
9.49169e-05
9.99211e-05
0.000104922
0.000109903
0.000116145
0.000136074
0.000200089
0.000346803
0.00061085
0.000998393
0.00147036
0.0019695
0.0024555
0.00291319
0.00334259
0.00374852
0.00413558
0.00450712
0.00486553
0.00521257
0.00554965
0.00587794
0.00619846
0.00651213
0.0068198
0.00712225
0.00742022
0.00771441
0.00800543
0.00829385
0.00858022
0.00886506
0.00914879
0.0094318
0.00971444
0.00999703
0.0102799
0.0105632
0.0108474