/*--------------------------------*- C++ -*----------------------------------*\
  =========                 |
  \\      /  F ield         | OpenFOAM: The Open Source CFD Toolbox
   \\    /   O peration     | Website:  https://openfoam.org
    \\  /    A nd           | Version:  7
     \\/     M anipulation  |
\*---------------------------------------------------------------------------*/
FoamFile
{
    version     2.0;
    format      ascii;
    class       volScalarField;
    location    "44000";
    object      nu;
}
// * * * * * * * * * * * * * * * * * * * * * * * * * * * * * * * * * * * * * //

dimensions      [0 2 -1 0 0 0 0];

internalField   nonuniform List<scalar> 
1745
(
1.15798e-05
1.16236e-05
1.16457e-05
1.16457e-05
1.16236e-05
1.15798e-05
1.15152e-05
1.14309e-05
9.47069e-06
9.73695e-06
9.90236e-06
1.00649e-05
1.02229e-05
1.03746e-05
1.05182e-05
1.06519e-05
1.07739e-05
1.08824e-05
1.09758e-05
1.10525e-05
1.11113e-05
1.11511e-05
1.11712e-05
1.11712e-05
1.11511e-05
1.11113e-05
1.10525e-05
1.09758e-05
1.08824e-05
9.17633e-06
9.41825e-06
9.57153e-06
9.72193e-06
9.86784e-06
1.00077e-05
1.01399e-05
1.02629e-05
1.03749e-05
1.04745e-05
1.056e-05
1.06303e-05
1.0684e-05
1.07204e-05
1.07387e-05
1.07387e-05
1.07204e-05
1.0684e-05
1.06303e-05
1.056e-05
1.04745e-05
8.90052e-06
9.12134e-06
9.26394e-06
9.40363e-06
9.53895e-06
9.66849e-06
9.79077e-06
9.90432e-06
1.00077e-05
1.00994e-05
1.01781e-05
1.02427e-05
1.02921e-05
1.03255e-05
1.03424e-05
1.03424e-05
1.03255e-05
1.02921e-05
1.02427e-05
1.01781e-05
1.00994e-05
8.64126e-06
8.8437e-06
8.97682e-06
9.10705e-06
9.23302e-06
9.35345e-06
9.46699e-06
9.57229e-06
9.66801e-06
9.75287e-06
9.82567e-06
9.88532e-06
9.93091e-06
9.96173e-06
9.97726e-06
9.97726e-06
9.96173e-06
9.93091e-06
9.88532e-06
9.82567e-06
9.75287e-06
8.39684e-06
8.58317e-06
8.70785e-06
8.82966e-06
8.94734e-06
9.0597e-06
9.1655e-06
9.26351e-06
9.35251e-06
9.43133e-06
9.49888e-06
9.5542e-06
9.59645e-06
9.62499e-06
9.63937e-06
9.63937e-06
9.62499e-06
9.59645e-06
9.5542e-06
9.49888e-06
9.43133e-06
8.16578e-06
8.33791e-06
8.45504e-06
8.56933e-06
8.67962e-06
8.78479e-06
8.88371e-06
8.97525e-06
9.05828e-06
9.13175e-06
9.19466e-06
9.24614e-06
9.28544e-06
9.31197e-06
9.32534e-06
9.32534e-06
9.31197e-06
9.28544e-06
9.24614e-06
9.19466e-06
9.13175e-06
7.94678e-06
8.10636e-06
8.21669e-06
8.32423e-06
8.42789e-06
8.52663e-06
8.6194e-06
8.70516e-06
8.78288e-06
8.85158e-06
8.91037e-06
8.95844e-06
8.99511e-06
9.01987e-06
9.03234e-06
9.03234e-06
9.01987e-06
8.99511e-06
8.95844e-06
8.91037e-06
8.85159e-06
8.78288e-06
7.73872e-06
7.88713e-06
7.99133e-06
8.09279e-06
8.19048e-06
8.28344e-06
8.3707e-06
8.45128e-06
8.52423e-06
8.58867e-06
8.64377e-06
8.68879e-06
8.72313e-06
8.74629e-06
8.75796e-06
8.75796e-06
8.74629e-06
8.72313e-06
8.68879e-06
8.64377e-06
8.58867e-06
8.52423e-06
7.54062e-06
7.67906e-06
7.7777e-06
7.87365e-06
7.96595e-06
8.05369e-06
8.13597e-06
8.21188e-06
8.28056e-06
8.34117e-06
8.39295e-06
8.43524e-06
8.46747e-06
8.48921e-06
8.50016e-06
8.50016e-06
8.48921e-06
8.46747e-06
8.43524e-06
8.39295e-06
8.34117e-06
8.28056e-06
8.21189e-06
8.13597e-06
8.05369e-06
7.96595e-06
7.87365e-06
7.7777e-06
7.67906e-06
7.54062e-06
7.3516e-06
7.4811e-06
7.57468e-06
7.66563e-06
7.75303e-06
7.83605e-06
7.91382e-06
7.98552e-06
8.05032e-06
8.10747e-06
8.15627e-06
8.19609e-06
8.22643e-06
8.24689e-06
8.25719e-06
8.25719e-06
8.24689e-06
8.22643e-06
8.19609e-06
8.15627e-06
8.10747e-06
8.05032e-06
7.98552e-06
7.91383e-06
7.83605e-06
7.75303e-06
7.66563e-06
7.57468e-06
7.4811e-06
7.3516e-06
7.17089e-06
7.29236e-06
7.38131e-06
7.4677e-06
7.55065e-06
7.62936e-06
7.70304e-06
7.77091e-06
7.8322e-06
7.88621e-06
7.9323e-06
7.9699e-06
7.99853e-06
8.01783e-06
8.02754e-06
8.02754e-06
8.01783e-06
7.99853e-06
7.9699e-06
7.9323e-06
7.88621e-06
7.8322e-06
7.77091e-06
7.70304e-06
7.62936e-06
7.55065e-06
7.4677e-06
7.38131e-06
7.29236e-06
7.17089e-06
6.99782e-06
7.11202e-06
7.19675e-06
7.27895e-06
7.35783e-06
7.43262e-06
7.50256e-06
7.56694e-06
7.62503e-06
7.67619e-06
7.71982e-06
7.75539e-06
7.78247e-06
7.80071e-06
7.8099e-06
7.8099e-06
7.80071e-06
7.78247e-06
7.75539e-06
7.71982e-06
7.6762e-06
7.62503e-06
7.56694e-06
7.50256e-06
7.43262e-06
7.35783e-06
7.27895e-06
7.19675e-06
7.11202e-06
6.99782e-06
6.83177e-06
6.93939e-06
7.02023e-06
7.0986e-06
7.17374e-06
7.24493e-06
7.31146e-06
7.37264e-06
7.42782e-06
7.47637e-06
7.51775e-06
7.55148e-06
7.57714e-06
7.59442e-06
7.60312e-06
7.60312e-06
7.59442e-06
7.57714e-06
7.55148e-06
7.51775e-06
7.47637e-06
7.42782e-06
7.37264e-06
7.31146e-06
7.24493e-06
7.17374e-06
7.0986e-06
7.02023e-06
6.93939e-06
6.83177e-06
6.67221e-06
6.77385e-06
6.8511e-06
6.92594e-06
6.99764e-06
7.06552e-06
7.12891e-06
7.18716e-06
7.23966e-06
7.28583e-06
7.32516e-06
7.35719e-06
7.38155e-06
7.39796e-06
7.40622e-06
7.40622e-06
7.39796e-06
7.38155e-06
7.35719e-06
7.32516e-06
7.28583e-06
7.23966e-06
7.18716e-06
7.12891e-06
7.06552e-06
6.99764e-06
6.92594e-06
6.8511e-06
6.77385e-06
6.67221e-06
6.51864e-06
6.61483e-06
6.68876e-06
6.76034e-06
6.82887e-06
6.8937e-06
6.9542e-06
7.00975e-06
7.05979e-06
7.10376e-06
7.1412e-06
7.17168e-06
7.19486e-06
7.21046e-06
7.21831e-06
7.21831e-06
7.21046e-06
7.19486e-06
7.17168e-06
7.1412e-06
7.10376e-06
7.05979e-06
7.00975e-06
6.9542e-06
6.8937e-06
6.82887e-06
6.76034e-06
6.68876e-06
6.61483e-06
6.51864e-06
6.37065e-06
6.46185e-06
6.5327e-06
6.60125e-06
6.66685e-06
6.72886e-06
6.78668e-06
6.83975e-06
6.8875e-06
6.92946e-06
6.96516e-06
6.99421e-06
7.01629e-06
7.03115e-06
7.03862e-06
7.03862e-06
7.03115e-06
7.01629e-06
6.99421e-06
6.96516e-06
6.92946e-06
6.8875e-06
6.83975e-06
6.78668e-06
6.72886e-06
6.66685e-06
6.60125e-06
6.5327e-06
6.46185e-06
6.37065e-06
6.22783e-06
6.31444e-06
6.38244e-06
6.44819e-06
6.51105e-06
6.57044e-06
6.62579e-06
6.67655e-06
6.7222e-06
6.76228e-06
6.79637e-06
6.8241e-06
6.84517e-06
6.85935e-06
6.86648e-06
6.86648e-06
6.85935e-06
6.84517e-06
6.8241e-06
6.79637e-06
6.76228e-06
6.7222e-06
6.67655e-06
6.62579e-06
6.57044e-06
6.51105e-06
6.44818e-06
6.38244e-06
6.31444e-06
6.22783e-06
6.08982e-06
6.17223e-06
6.23755e-06
6.30069e-06
6.36102e-06
6.41797e-06
6.47102e-06
6.51963e-06
6.56333e-06
6.60168e-06
6.63428e-06
6.66078e-06
6.68092e-06
6.69446e-06
6.70127e-06
6.70127e-06
6.69446e-06
6.68092e-06
6.66078e-06
6.63428e-06
6.60168e-06
6.56333e-06
6.51963e-06
6.47102e-06
6.41797e-06
6.36102e-06
6.30069e-06
6.23756e-06
6.17223e-06
6.08982e-06
5.95632e-06
6.03485e-06
6.09768e-06
6.15837e-06
6.21633e-06
6.27101e-06
6.32191e-06
6.36853e-06
6.41041e-06
6.44715e-06
6.47836e-06
6.50373e-06
6.52299e-06
6.53595e-06
6.54246e-06
6.54246e-06
6.53595e-06
6.52299e-06
6.50373e-06
6.47836e-06
6.44715e-06
6.41041e-06
6.36853e-06
6.32191e-06
6.27101e-06
6.21633e-06
6.15837e-06
6.09768e-06
6.03485e-06
5.95632e-06
5.82704e-06
5.90197e-06
5.96246e-06
6.02086e-06
6.07661e-06
6.12917e-06
6.17806e-06
6.22282e-06
6.263e-06
6.29823e-06
6.32815e-06
6.35246e-06
6.37091e-06
6.38333e-06
6.38956e-06
6.38956e-06
6.38333e-06
6.37091e-06
6.35246e-06
6.32815e-06
6.29823e-06
6.263e-06
6.22282e-06
6.17806e-06
6.12917e-06
6.07661e-06
6.02086e-06
5.96246e-06
5.90197e-06
5.82704e-06
5.7017e-06
5.7733e-06
5.8316e-06
5.88785e-06
5.94152e-06
5.99209e-06
6.0391e-06
6.08211e-06
6.12071e-06
6.15453e-06
6.18325e-06
6.20657e-06
6.22427e-06
6.23617e-06
6.24215e-06
6.24215e-06
6.23617e-06
6.22427e-06
6.20657e-06
6.18325e-06
6.15453e-06
6.12071e-06
6.08211e-06
6.0391e-06
5.99209e-06
5.94152e-06
5.88785e-06
5.8316e-06
5.7733e-06
5.7017e-06
5.58007e-06
5.64858e-06
5.70481e-06
5.75905e-06
5.81075e-06
5.85946e-06
5.9047e-06
5.94608e-06
5.98319e-06
6.01569e-06
6.04327e-06
6.06567e-06
6.08266e-06
6.09409e-06
6.09983e-06
6.09983e-06
6.09409e-06
6.08266e-06
6.06567e-06
6.04327e-06
6.01569e-06
5.98319e-06
5.94608e-06
5.9047e-06
5.85946e-06
5.81075e-06
5.75905e-06
5.70481e-06
5.64858e-06
5.58007e-06
5.46194e-06
5.52756e-06
5.58184e-06
5.63417e-06
5.68404e-06
5.73098e-06
5.77457e-06
5.8144e-06
5.85011e-06
5.88138e-06
5.9079e-06
5.92943e-06
5.94576e-06
5.95673e-06
5.96225e-06
5.96225e-06
5.95673e-06
5.94576e-06
5.92943e-06
5.9079e-06
5.88138e-06
5.85011e-06
5.8144e-06
5.77457e-06
5.73098e-06
5.68404e-06
5.63417e-06
5.58184e-06
5.52756e-06
5.46194e-06
5.3471e-06
5.41003e-06
5.46247e-06
5.513e-06
5.56112e-06
5.6064e-06
5.64842e-06
5.6868e-06
5.7212e-06
5.7513e-06
5.77682e-06
5.79754e-06
5.81324e-06
5.8238e-06
5.8291e-06
5.8291e-06
5.8238e-06
5.81324e-06
5.79754e-06
5.77682e-06
5.7513e-06
5.7212e-06
5.6868e-06
5.64842e-06
5.6064e-06
5.56112e-06
5.513e-06
5.46247e-06
5.41003e-06
5.3471e-06
5.23537e-06
5.29577e-06
5.34647e-06
5.3953e-06
5.44177e-06
5.48548e-06
5.52602e-06
5.56303e-06
5.59618e-06
5.62518e-06
5.64977e-06
5.66971e-06
5.68483e-06
5.69499e-06
5.7001e-06
5.7001e-06
5.69499e-06
5.68483e-06
5.66971e-06
5.64977e-06
5.62518e-06
5.59618e-06
5.56303e-06
5.52602e-06
5.48548e-06
5.44177e-06
5.3953e-06
5.34647e-06
5.29577e-06
5.23537e-06
5.12658e-06
5.18462e-06
5.23366e-06
5.28087e-06
5.32578e-06
5.368e-06
5.40714e-06
5.44285e-06
5.47483e-06
5.50279e-06
5.52649e-06
5.5457e-06
5.56027e-06
5.57006e-06
5.57498e-06
5.57498e-06
5.57006e-06
5.56027e-06
5.5457e-06
5.52649e-06
5.50279e-06
5.47483e-06
5.44285e-06
5.40714e-06
5.368e-06
5.32578e-06
5.28087e-06
5.23366e-06
5.18462e-06
5.12658e-06
5.02058e-06
5.0764e-06
5.12386e-06
5.16953e-06
5.21296e-06
5.25376e-06
5.29157e-06
5.32605e-06
5.35692e-06
5.3839e-06
5.40675e-06
5.42528e-06
5.43933e-06
5.44876e-06
5.4535e-06
5.4535e-06
5.44876e-06
5.43933e-06
5.42529e-06
5.40675e-06
5.3839e-06
5.35692e-06
5.32605e-06
5.29157e-06
5.25376e-06
5.21296e-06
5.16953e-06
5.12386e-06
5.0764e-06
5.02058e-06
4.91722e-06
4.97096e-06
5.01692e-06
5.06112e-06
5.10314e-06
5.14259e-06
5.17913e-06
5.21245e-06
5.24226e-06
5.2683e-06
5.29036e-06
5.30824e-06
5.32179e-06
5.33089e-06
5.33546e-06
5.33546e-06
5.33089e-06
5.32179e-06
5.30824e-06
5.29036e-06
5.2683e-06
5.24226e-06
5.21245e-06
5.17913e-06
5.14259e-06
5.10314e-06
5.06112e-06
5.01692e-06
4.97096e-06
4.91722e-06
4.81638e-06
4.86814e-06
4.91267e-06
4.95548e-06
4.99615e-06
5.03432e-06
5.06965e-06
5.10186e-06
5.13066e-06
5.15582e-06
5.17712e-06
5.19439e-06
5.20747e-06
5.21625e-06
5.22066e-06
5.22066e-06
5.21625e-06
5.20747e-06
5.19439e-06
5.17712e-06
5.15582e-06
5.13066e-06
5.10186e-06
5.06965e-06
5.03432e-06
4.99615e-06
4.95548e-06
4.91267e-06
4.86814e-06
4.81638e-06
4.71794e-06
4.76783e-06
4.81099e-06
4.85246e-06
4.89185e-06
4.92879e-06
4.96297e-06
4.99412e-06
5.02196e-06
5.04628e-06
5.06686e-06
5.08354e-06
5.09617e-06
5.10466e-06
5.10891e-06
5.10892e-06
5.10466e-06
5.09617e-06
5.08354e-06
5.06686e-06
5.04628e-06
5.02196e-06
4.99412e-06
4.96297e-06
4.92879e-06
4.89185e-06
4.85246e-06
4.81099e-06
4.76783e-06
4.71794e-06
4.62178e-06
4.66991e-06
4.71175e-06
4.75194e-06
4.79009e-06
4.82586e-06
4.85895e-06
4.88908e-06
4.91601e-06
4.93952e-06
4.95942e-06
4.97554e-06
4.98775e-06
4.99595e-06
5.00006e-06
5.00006e-06
4.99595e-06
4.98775e-06
4.97554e-06
4.95942e-06
4.93952e-06
4.91601e-06
4.88908e-06
4.85895e-06
4.82586e-06
4.79009e-06
4.75194e-06
4.71175e-06
4.66991e-06
4.62178e-06
4.52779e-06
4.57425e-06
4.61483e-06
4.6538e-06
4.69077e-06
4.72541e-06
4.75745e-06
4.78661e-06
4.81267e-06
4.83542e-06
4.85466e-06
4.87024e-06
4.88205e-06
4.88997e-06
4.89395e-06
4.89395e-06
4.88997e-06
4.88205e-06
4.87024e-06
4.85466e-06
4.83542e-06
4.81267e-06
4.78661e-06
4.75745e-06
4.72541e-06
4.69077e-06
4.6538e-06
4.61483e-06
4.57425e-06
4.52779e-06
4.43589e-06
4.48075e-06
4.52013e-06
4.55792e-06
4.59375e-06
4.62732e-06
4.65835e-06
4.68659e-06
4.71181e-06
4.73382e-06
4.75243e-06
4.76751e-06
4.77893e-06
4.78659e-06
4.79044e-06
4.79044e-06
4.78659e-06
4.77893e-06
4.76751e-06
4.75244e-06
4.73382e-06
4.71181e-06
4.68659e-06
4.65835e-06
4.62732e-06
4.59375e-06
4.55792e-06
4.52013e-06
4.48075e-06
4.43589e-06
4.34598e-06
4.38933e-06
4.42754e-06
4.46419e-06
4.49894e-06
4.53147e-06
4.56153e-06
4.58888e-06
4.61331e-06
4.63461e-06
4.65263e-06
4.66722e-06
4.67827e-06
4.68568e-06
4.6894e-06
4.6894e-06
4.68568e-06
4.67827e-06
4.66722e-06
4.65263e-06
4.63461e-06
4.61331e-06
4.25798e-06
4.29988e-06
4.33697e-06
4.37253e-06
4.40623e-06
4.43777e-06
4.4669e-06
4.49339e-06
4.51705e-06
4.53768e-06
4.55513e-06
4.56925e-06
4.57994e-06
4.58712e-06
4.59072e-06
4.59072e-06
4.58712e-06
4.57994e-06
4.56925e-06
4.55513e-06
4.53768e-06
4.51705e-06
4.17181e-06
4.21233e-06
4.24834e-06
4.28285e-06
4.31553e-06
4.34611e-06
4.37435e-06
4.40002e-06
4.42294e-06
4.44292e-06
4.45982e-06
4.47349e-06
4.48385e-06
4.49079e-06
4.49428e-06
4.0874e-06
4.12659e-06
4.16156e-06
4.19505e-06
4.22676e-06
4.25641e-06
4.28379e-06
4.30867e-06
4.33088e-06
4.35024e-06
4.36661e-06
4.37985e-06
1.05182e-05
1.03746e-05
1.02229e-05
1.00649e-05
9.90236e-06
9.73695e-06
9.47069e-06
1.04745e-05
1.03749e-05
1.02629e-05
1.01399e-05
1.00077e-05
9.86784e-06
9.72193e-06
9.57153e-06
9.41825e-06
9.17633e-06
1.00994e-05
1.00077e-05
9.90433e-06
9.79077e-06
9.66849e-06
9.53895e-06
9.40363e-06
9.26394e-06
9.12134e-06
8.90052e-06
9.75287e-06
9.66802e-06
9.57229e-06
9.46699e-06
9.35345e-06
9.23302e-06
9.10705e-06
8.97682e-06
8.8437e-06
8.64126e-06
9.43133e-06
9.35251e-06
9.26351e-06
9.1655e-06
9.0597e-06
8.94734e-06
8.82966e-06
8.70785e-06
8.58317e-06
8.39684e-06
9.13175e-06
9.05828e-06
8.97525e-06
8.88371e-06
8.78479e-06
8.67962e-06
8.56933e-06
8.45504e-06
8.33791e-06
8.16578e-06
8.85159e-06
8.78288e-06
8.70516e-06
8.6194e-06
8.52663e-06
8.42789e-06
8.32423e-06
8.21669e-06
8.10636e-06
7.94678e-06
8.58867e-06
8.52423e-06
8.45128e-06
8.3707e-06
8.28344e-06
8.19048e-06
8.09279e-06
7.99133e-06
7.88713e-06
7.73872e-06
8.34117e-06
8.28056e-06
8.21189e-06
8.13597e-06
8.05369e-06
7.96595e-06
7.87365e-06
7.7777e-06
7.67906e-06
7.54062e-06
8.10747e-06
8.05032e-06
7.98552e-06
7.91383e-06
7.83605e-06
7.75303e-06
7.66563e-06
7.57468e-06
7.4811e-06
7.3516e-06
7.88621e-06
7.8322e-06
7.77091e-06
7.70304e-06
7.62936e-06
7.55065e-06
7.4677e-06
7.38131e-06
7.29236e-06
7.17089e-06
7.67619e-06
7.62503e-06
7.56694e-06
7.50256e-06
7.43262e-06
7.35783e-06
7.27895e-06
7.19675e-06
7.11202e-06
6.99782e-06
7.47637e-06
7.42782e-06
7.37264e-06
7.31146e-06
7.24493e-06
7.17374e-06
7.0986e-06
7.02023e-06
6.93939e-06
6.83177e-06
7.28583e-06
7.23966e-06
7.18716e-06
7.12891e-06
7.06552e-06
6.99764e-06
6.92594e-06
6.8511e-06
6.77385e-06
6.67221e-06
7.10376e-06
7.05979e-06
7.00975e-06
6.9542e-06
6.8937e-06
6.82887e-06
6.76034e-06
6.68876e-06
6.61483e-06
6.51864e-06
6.92946e-06
6.8875e-06
6.83975e-06
6.78668e-06
6.72886e-06
6.66685e-06
6.60125e-06
6.5327e-06
6.46185e-06
6.37065e-06
6.76228e-06
6.7222e-06
6.67655e-06
6.62579e-06
6.57044e-06
6.51105e-06
6.44818e-06
6.38244e-06
6.31444e-06
6.22783e-06
6.60168e-06
6.56333e-06
6.51963e-06
6.47102e-06
6.41797e-06
6.36102e-06
6.30069e-06
6.23755e-06
6.17223e-06
6.08982e-06
6.44714e-06
6.41041e-06
6.36853e-06
6.32191e-06
6.27101e-06
6.21633e-06
6.15837e-06
6.09768e-06
6.03485e-06
5.95632e-06
6.29823e-06
6.263e-06
6.22282e-06
6.17806e-06
6.12917e-06
6.0766e-06
6.02086e-06
5.96246e-06
5.90197e-06
5.82704e-06
6.15453e-06
6.12071e-06
6.08211e-06
6.0391e-06
5.99209e-06
5.94152e-06
5.88785e-06
5.8316e-06
5.7733e-06
5.7017e-06
6.01569e-06
5.98319e-06
5.94608e-06
5.9047e-06
5.85945e-06
5.81075e-06
5.75905e-06
5.70481e-06
5.64858e-06
5.58007e-06
5.88138e-06
5.85011e-06
5.8144e-06
5.77457e-06
5.73098e-06
5.68404e-06
5.63417e-06
5.58184e-06
5.52756e-06
5.46194e-06
5.7513e-06
5.7212e-06
5.6868e-06
5.64842e-06
5.6064e-06
5.56112e-06
5.513e-06
5.46247e-06
5.41003e-06
5.3471e-06
5.62518e-06
5.59618e-06
5.56303e-06
5.52602e-06
5.48548e-06
5.44177e-06
5.3953e-06
5.34647e-06
5.29577e-06
5.23537e-06
5.50279e-06
5.47483e-06
5.44285e-06
5.40714e-06
5.368e-06
5.32578e-06
5.28087e-06
5.23366e-06
5.18462e-06
5.12658e-06
5.3839e-06
5.35692e-06
5.32605e-06
5.29157e-06
5.25376e-06
5.21296e-06
5.16953e-06
5.12386e-06
5.0764e-06
5.02058e-06
5.2683e-06
5.24226e-06
5.21245e-06
5.17913e-06
5.14259e-06
5.10314e-06
5.06112e-06
5.01692e-06
4.97096e-06
4.91722e-06
5.15582e-06
5.13066e-06
5.10186e-06
5.06965e-06
5.03432e-06
4.99615e-06
4.95548e-06
4.91267e-06
4.86814e-06
4.81638e-06
5.04628e-06
5.02196e-06
4.99412e-06
4.96297e-06
4.92879e-06
4.89185e-06
4.85246e-06
4.81099e-06
4.76783e-06
4.71794e-06
4.93952e-06
4.91601e-06
4.88908e-06
4.85895e-06
4.82586e-06
4.79009e-06
4.75194e-06
4.71175e-06
4.66991e-06
4.62178e-06
4.83542e-06
4.81267e-06
4.78661e-06
4.75745e-06
4.72541e-06
4.69077e-06
4.6538e-06
4.61483e-06
4.57425e-06
4.52779e-06
4.73382e-06
4.71181e-06
4.68659e-06
4.65835e-06
4.62732e-06
4.59375e-06
4.55792e-06
4.52013e-06
4.48075e-06
4.43589e-06
4.63461e-06
4.61331e-06
4.58888e-06
4.56153e-06
4.53147e-06
4.49894e-06
4.46419e-06
4.42754e-06
4.38933e-06
4.34598e-06
4.53768e-06
4.51705e-06
4.49339e-06
4.4669e-06
4.43777e-06
4.40623e-06
4.37253e-06
4.33697e-06
4.29988e-06
4.25798e-06
4.44292e-06
4.42294e-06
4.40002e-06
4.37435e-06
4.34611e-06
4.31553e-06
4.28285e-06
4.24834e-06
4.21233e-06
4.17181e-06
4.35024e-06
4.33088e-06
4.30867e-06
4.28379e-06
4.25641e-06
4.22675e-06
4.19505e-06
4.16156e-06
4.12659e-06
4.0874e-06
7.60312e-06
7.40622e-06
7.21831e-06
7.03862e-06
6.86648e-06
6.70127e-06
6.54246e-06
6.38956e-06
6.24215e-06
6.09983e-06
5.96225e-06
5.8291e-06
5.7001e-06
5.57498e-06
5.4535e-06
5.33546e-06
5.22066e-06
5.10892e-06
5.00006e-06
4.89395e-06
4.79044e-06
7.60312e-06
7.40622e-06
7.21831e-06
7.03862e-06
6.86648e-06
6.70127e-06
6.54246e-06
6.38956e-06
6.24215e-06
6.09983e-06
5.96225e-06
5.8291e-06
5.7001e-06
5.57498e-06
5.4535e-06
5.33546e-06
5.22066e-06
5.10891e-06
5.00006e-06
4.89395e-06
4.79044e-06
7.59442e-06
7.39796e-06
7.21046e-06
7.03115e-06
6.85935e-06
6.69446e-06
6.53595e-06
6.38333e-06
6.23617e-06
6.09409e-06
5.95673e-06
5.8238e-06
5.69499e-06
5.57006e-06
5.44876e-06
5.33089e-06
5.21625e-06
5.10466e-06
4.99595e-06
4.88997e-06
4.78659e-06
7.57714e-06
7.38155e-06
7.19486e-06
7.01629e-06
6.84517e-06
6.68092e-06
6.52299e-06
6.37092e-06
6.22427e-06
6.08266e-06
5.94576e-06
5.81324e-06
5.68483e-06
5.56027e-06
5.43933e-06
5.32179e-06
5.20747e-06
5.09617e-06
4.98775e-06
4.88205e-06
4.77893e-06
7.55148e-06
7.35719e-06
7.17168e-06
6.99421e-06
6.8241e-06
6.66078e-06
6.50373e-06
6.35246e-06
6.20657e-06
6.06567e-06
5.92943e-06
5.79754e-06
5.66971e-06
5.5457e-06
5.42528e-06
5.30824e-06
5.19439e-06
5.08354e-06
4.97554e-06
4.87024e-06
4.76751e-06
8.15627e-06
7.9323e-06
7.71982e-06
7.51775e-06
7.32516e-06
7.1412e-06
6.96516e-06
6.79637e-06
6.63428e-06
6.47836e-06
6.32815e-06
6.18325e-06
6.04327e-06
5.9079e-06
5.77682e-06
5.64977e-06
5.52649e-06
5.40675e-06
5.29036e-06
5.17712e-06
5.06686e-06
4.95942e-06
4.85466e-06
4.75244e-06
8.34117e-06
8.10747e-06
7.88621e-06
7.67619e-06
7.47637e-06
7.28583e-06
7.10376e-06
6.92946e-06
6.76228e-06
6.60168e-06
6.44715e-06
6.29823e-06
6.15453e-06
6.01569e-06
5.88138e-06
5.7513e-06
5.62518e-06
5.50279e-06
5.3839e-06
5.2683e-06
5.15582e-06
5.04628e-06
4.93952e-06
4.83542e-06
4.73382e-06
8.28056e-06
8.05032e-06
7.8322e-06
7.62503e-06
7.42782e-06
7.23966e-06
7.05979e-06
6.88751e-06
6.7222e-06
6.56333e-06
6.41041e-06
6.263e-06
6.12071e-06
5.98319e-06
5.85011e-06
5.7212e-06
5.59618e-06
5.47483e-06
5.35692e-06
5.24226e-06
5.13066e-06
5.02196e-06
4.91601e-06
4.81267e-06
4.71181e-06
8.21188e-06
7.98552e-06
7.77091e-06
7.56694e-06
7.37264e-06
7.18716e-06
7.00975e-06
6.83975e-06
6.67655e-06
6.51963e-06
6.36853e-06
6.22282e-06
6.08211e-06
5.94608e-06
5.8144e-06
5.6868e-06
5.56303e-06
5.44285e-06
5.32605e-06
5.21245e-06
5.10186e-06
4.99412e-06
4.88908e-06
4.78661e-06
4.68659e-06
8.13597e-06
7.91382e-06
7.70304e-06
7.50256e-06
7.31146e-06
7.12891e-06
6.9542e-06
6.78668e-06
6.62579e-06
6.47102e-06
6.32191e-06
6.17806e-06
6.0391e-06
5.9047e-06
5.77457e-06
5.64842e-06
5.52602e-06
5.40714e-06
5.29157e-06
5.17913e-06
5.06965e-06
4.96297e-06
4.85895e-06
4.75745e-06
4.65835e-06
8.05369e-06
7.83605e-06
7.62936e-06
7.43262e-06
7.24493e-06
7.06552e-06
6.8937e-06
6.72886e-06
6.57044e-06
6.41797e-06
6.27101e-06
6.12917e-06
5.99209e-06
5.85946e-06
5.73098e-06
5.6064e-06
5.48548e-06
5.368e-06
5.25376e-06
5.14259e-06
5.03432e-06
4.92879e-06
4.82586e-06
4.72541e-06
4.62732e-06
7.96595e-06
7.75303e-06
7.55065e-06
7.35783e-06
7.17374e-06
6.99764e-06
6.82887e-06
6.66685e-06
6.51105e-06
6.36102e-06
6.21633e-06
6.07661e-06
5.94152e-06
5.81075e-06
5.68404e-06
5.56112e-06
5.44177e-06
5.32578e-06
5.21296e-06
5.10314e-06
4.99615e-06
4.89185e-06
4.79009e-06
4.69077e-06
4.59375e-06
7.87365e-06
7.66563e-06
7.4677e-06
7.27895e-06
7.0986e-06
6.92594e-06
6.76034e-06
6.60125e-06
6.44818e-06
6.30069e-06
6.15837e-06
6.02086e-06
5.88785e-06
5.75905e-06
5.63417e-06
5.513e-06
5.3953e-06
5.28087e-06
5.16953e-06
5.06112e-06
4.95548e-06
4.85246e-06
4.75194e-06
4.6538e-06
4.55792e-06
7.7777e-06
7.57468e-06
7.38131e-06
7.19675e-06
7.02023e-06
6.8511e-06
6.68876e-06
6.5327e-06
6.38244e-06
6.23755e-06
6.09768e-06
5.96246e-06
5.8316e-06
5.70481e-06
5.58184e-06
5.46247e-06
5.34647e-06
5.23366e-06
5.12386e-06
5.01692e-06
4.91267e-06
4.81099e-06
4.71175e-06
4.61483e-06
4.52013e-06
7.67906e-06
7.4811e-06
7.29236e-06
7.11202e-06
6.93939e-06
6.77385e-06
6.61483e-06
6.46184e-06
6.31444e-06
6.17223e-06
6.03485e-06
5.90197e-06
5.7733e-06
5.64858e-06
5.52756e-06
5.41003e-06
5.29578e-06
5.18462e-06
5.0764e-06
4.97096e-06
4.86814e-06
4.76783e-06
4.66991e-06
4.57425e-06
4.48075e-06
7.54062e-06
7.3516e-06
7.17089e-06
6.99782e-06
6.83177e-06
6.67221e-06
6.51864e-06
6.37065e-06
6.22783e-06
6.08982e-06
5.95632e-06
5.82704e-06
5.7017e-06
5.58007e-06
5.46194e-06
5.3471e-06
5.23537e-06
5.12658e-06
5.02058e-06
4.91722e-06
4.81638e-06
4.71794e-06
4.62178e-06
4.52779e-06
4.43589e-06
)
;

boundaryField
{
    inlet
    {
        type            cyclic;
    }
    outlet
    {
        type            cyclic;
    }
    wall
    {
        type            calculated;
        value           nonuniform 0();
    }
    procBoundary5to1
    {
        type            processor;
        value           nonuniform List<scalar> 10(4.6894e-06 4.6894e-06 4.68568e-06 4.67827e-06 4.66722e-06 4.65263e-06 4.63461e-06 4.61331e-06 4.58888e-06 4.56153e-06);
    }
    procBoundary5to2
    {
        type            processor;
        value           nonuniform List<scalar> 
28
(
4.58888e-06
4.56153e-06
4.53147e-06
4.49894e-06
4.46419e-06
4.42754e-06
4.38933e-06
4.34598e-06
4.58888e-06
4.49428e-06
4.49079e-06
4.48385e-06
4.47349e-06
4.45982e-06
4.44292e-06
4.49339e-06
4.42294e-06
4.38988e-06
4.39661e-06
4.49428e-06
4.39998e-06
4.38988e-06
4.53147e-06
4.49894e-06
4.46419e-06
4.42754e-06
4.38933e-06
4.34598e-06
)
;
    }
    procBoundary5to3
    {
        type            processor;
        value           nonuniform List<scalar> 
22
(
4.00467e-06
4.0426e-06
4.07655e-06
4.10906e-06
4.13983e-06
4.16859e-06
4.19514e-06
4.21926e-06
4.24078e-06
4.25954e-06
4.2754e-06
4.28824e-06
4.25955e-06
4.24078e-06
4.21926e-06
4.19514e-06
4.16859e-06
4.13983e-06
4.10906e-06
4.07655e-06
4.0426e-06
4.00467e-06
)
;
    }
    procBoundary5to4
    {
        type            processor;
        value           nonuniform List<scalar> 
55
(
1.056e-05
1.01781e-05
9.82567e-06
9.49888e-06
9.19466e-06
8.91037e-06
8.64377e-06
8.39295e-06
8.15627e-06
7.9323e-06
7.71982e-06
7.51775e-06
7.32516e-06
7.1412e-06
6.96515e-06
6.79637e-06
6.63428e-06
6.47836e-06
6.32815e-06
6.18325e-06
6.04327e-06
5.9079e-06
5.77682e-06
5.64977e-06
5.52649e-06
5.40675e-06
5.29036e-06
5.17712e-06
5.06686e-06
4.95942e-06
4.85466e-06
4.75244e-06
4.65263e-06
4.55513e-06
4.45982e-06
4.36661e-06
7.21046e-06
7.03115e-06
6.85935e-06
6.69446e-06
6.53595e-06
6.38333e-06
6.23617e-06
6.09409e-06
5.95673e-06
5.8238e-06
5.69499e-06
5.57006e-06
5.44876e-06
5.33089e-06
5.21625e-06
5.10466e-06
4.99595e-06
4.88997e-06
4.78659e-06
)
;
    }
    procBoundary5to6
    {
        type            processor;
        value           nonuniform List<scalar> 
31
(
1.20966e-05
1.21451e-05
1.21695e-05
1.21695e-05
1.21451e-05
1.20966e-05
1.20252e-05
9.78592e-06
1.00805e-05
1.02597e-05
1.04362e-05
1.0608e-05
1.07732e-05
1.09299e-05
1.1076e-05
1.12095e-05
1.13284e-05
1.14309e-05
1.15152e-05
1.15152e-05
1.09299e-05
1.07732e-05
1.0608e-05
1.04362e-05
1.02597e-05
1.00805e-05
9.78592e-06
1.08824e-05
1.07739e-05
1.06519e-05
1.06519e-05
)
;
    }
    procBoundary5to7
    {
        type            processor;
        value           nonuniform List<scalar> 
42
(
1.1932e-05
1.13284e-05
1.13284e-05
1.07739e-05
1.03749e-05
1.00077e-05
9.66801e-06
9.35251e-06
9.05828e-06
9.05828e-06
8.70516e-06
8.45128e-06
8.45128e-06
8.3707e-06
8.28344e-06
8.19048e-06
8.09279e-06
7.99133e-06
7.88713e-06
7.73872e-06
7.59442e-06
7.39796e-06
7.8099e-06
7.8099e-06
7.80071e-06
7.78247e-06
8.19609e-06
7.9699e-06
7.75539e-06
7.75539e-06
8.39295e-06
8.39295e-06
8.58867e-06
8.52423e-06
8.45128e-06
8.3707e-06
8.28344e-06
8.19048e-06
8.09279e-06
7.99133e-06
7.88713e-06
7.73872e-06
)
;
    }
}


// ************************************************************************* //
