/*--------------------------------*- C++ -*----------------------------------*\
  =========                 |
  \\      /  F ield         | OpenFOAM: The Open Source CFD Toolbox
   \\    /   O peration     | Website:  https://openfoam.org
    \\  /    A nd           | Version:  7
     \\/     M anipulation  |
\*---------------------------------------------------------------------------*/
FoamFile
{
    version     2.0;
    format      ascii;
    class       volScalarField;
    location    "56000";
    object      p;
}
// * * * * * * * * * * * * * * * * * * * * * * * * * * * * * * * * * * * * * //

dimensions      [0 2 -2 0 0 0 0];

internalField   nonuniform List<scalar> 
4850
(
-3.95492e-17
-3.93568e-17
-3.95466e-17
-3.92369e-17
-3.94709e-17
-3.97195e-17
-3.94743e-17
-3.94381e-17
-3.93681e-17
-3.93636e-17
-3.95657e-17
-3.94428e-17
-3.94367e-17
-3.9475e-17
-3.92893e-17
-3.93452e-17
-3.95725e-17
-3.94792e-17
-3.91925e-17
-3.94908e-17
-3.92196e-17
-3.93225e-17
-3.92543e-17
-3.97157e-17
-3.95376e-17
-3.92721e-17
-3.95408e-17
-3.93841e-17
-3.9159e-17
-3.93903e-17
-3.94123e-17
-3.96704e-17
-3.93521e-17
-3.94374e-17
-3.94511e-17
-3.92748e-17
-3.9325e-17
-3.92123e-17
-3.94176e-17
-3.96619e-17
-3.93756e-17
-3.91859e-17
-3.92092e-17
-3.9451e-17
-3.9653e-17
-3.93944e-17
-3.92381e-17
-3.93144e-17
-3.93567e-17
-3.93974e-17
-3.9309e-17
-3.92103e-17
-3.93976e-17
-3.91428e-17
-3.91089e-17
-3.93618e-17
-3.92822e-17
-3.95521e-17
-3.95248e-17
-3.952e-17
-3.93235e-17
-3.94227e-17
-3.94619e-17
-3.93377e-17
-3.93669e-17
-3.92165e-17
-3.92471e-17
-3.92659e-17
-3.89632e-17
-3.89655e-17
-3.89542e-17
-3.89607e-17
-3.89178e-17
-3.8798e-17
-3.94839e-17
-3.95472e-17
-3.94298e-17
-3.93334e-17
-3.93543e-17
-3.94753e-17
-3.98061e-17
-3.93671e-17
-3.93067e-17
-3.91851e-17
-3.91797e-17
-3.91466e-17
-3.91133e-17
-3.91486e-17
-3.89058e-17
-3.89642e-17
-3.8987e-17
-3.88824e-17
-3.88619e-17
-3.9032e-17
-3.95155e-17
-3.95713e-17
-3.94495e-17
-3.94268e-17
-3.92944e-17
-3.96045e-17
-3.9678e-17
-3.95069e-17
-3.92688e-17
-3.91773e-17
-3.92026e-17
-3.90696e-17
-3.93097e-17
-3.92463e-17
-3.91976e-17
-3.89528e-17
-3.90595e-17
-3.88732e-17
-3.87576e-17
-3.879e-17
-3.87329e-17
-3.88619e-17
-3.88893e-17
-3.82873e-17
-3.94962e-17
-3.95495e-17
-3.94166e-17
-3.9406e-17
-3.93359e-17
-3.93745e-17
-3.92824e-17
-3.93771e-17
-3.93287e-17
-3.92173e-17
-3.93181e-17
-3.89612e-17
-3.92414e-17
-3.90592e-17
-3.92296e-17
-3.89133e-17
-3.91981e-17
-3.88081e-17
-3.84043e-17
-3.8516e-17
-3.86971e-17
-3.86097e-17
-3.86316e-17
-3.79375e-17
-3.8293e-17
-3.84657e-17
-3.78502e-17
-3.72852e-17
-3.77116e-17
-3.9296e-17
-3.96473e-17
-3.92547e-17
-3.93879e-17
-3.93332e-17
-3.94136e-17
-3.90106e-17
-3.93018e-17
-3.94449e-17
-3.92195e-17
-3.91009e-17
-3.90434e-17
-3.93057e-17
-3.88919e-17
-3.94861e-17
-3.87502e-17
-3.90176e-17
-3.85814e-17
-3.83259e-17
-3.89273e-17
-3.87014e-17
-3.83139e-17
-3.85318e-17
-3.7961e-17
-3.84574e-17
-3.87979e-17
-3.79733e-17
-3.72737e-17
-3.76846e-17
-3.74819e-17
-3.68396e-17
-3.66798e-17
-3.90966e-17
-3.98961e-17
-3.94191e-17
-3.92693e-17
-3.94214e-17
-3.96253e-17
-3.93894e-17
-3.94097e-17
-3.94566e-17
-3.92086e-17
-3.91471e-17
-3.90325e-17
-3.91915e-17
-3.88827e-17
-3.95136e-17
-3.92897e-17
-3.90129e-17
-3.88225e-17
-3.8451e-17
-3.89072e-17
-3.8742e-17
-3.86823e-17
-3.85003e-17
-3.83312e-17
-3.87241e-17
-3.85377e-17
-3.7974e-17
-3.73403e-17
-3.769e-17
-3.75113e-17
-3.70049e-17
-3.65412e-17
-3.60052e-17
-3.71156e-17
-3.93689e-17
-3.95057e-17
-3.94308e-17
-3.95151e-17
-3.96009e-17
-3.96091e-17
-3.91784e-17
-3.94938e-17
-3.93793e-17
-3.92109e-17
-3.90849e-17
-3.88006e-17
-3.91612e-17
-3.90105e-17
-3.91932e-17
-3.92294e-17
-3.90157e-17
-3.90892e-17
-3.89882e-17
-3.88963e-17
-3.87798e-17
-3.90726e-17
-3.84208e-17
-3.84219e-17
-3.85158e-17
-3.88006e-17
-3.79191e-17
-3.76836e-17
-3.77511e-17
-3.76062e-17
-3.70437e-17
-3.69289e-17
-3.54885e-17
-3.77383e-17
-3.948e-17
-3.95479e-17
-3.94155e-17
-3.95981e-17
-3.94978e-17
-3.94957e-17
-3.93149e-17
-3.94035e-17
-3.93867e-17
-3.92265e-17
-3.92214e-17
-3.91602e-17
-3.92231e-17
-3.90842e-17
-3.90961e-17
-3.93521e-17
-3.9031e-17
-3.93544e-17
-3.91716e-17
-3.89198e-17
-3.87629e-17
-3.88881e-17
-3.88264e-17
-3.83326e-17
-3.85291e-17
-3.90005e-17
-3.76281e-17
-3.81791e-17
-3.79195e-17
-3.78459e-17
-3.6839e-17
-3.73247e-17
-3.56907e-17
-3.81031e-17
-3.94665e-17
-3.94977e-17
-3.93698e-17
-3.96762e-17
-3.9518e-17
-3.9406e-17
-3.93037e-17
-3.93421e-17
-3.9143e-17
-3.92282e-17
-3.93593e-17
-3.916e-17
-3.93245e-17
-3.91131e-17
-3.90305e-17
-3.91724e-17
-3.90035e-17
-3.89864e-17
-3.85492e-17
-3.89232e-17
-3.87202e-17
-3.88763e-17
-3.84982e-17
-3.79822e-17
-3.87235e-17
-3.84895e-17
-3.76207e-17
-3.80558e-17
-3.81442e-17
-3.7552e-17
-3.70479e-17
-3.72805e-17
-3.57814e-17
-3.74199e-17
-3.95422e-17
-3.94832e-17
-3.92247e-17
-3.97735e-17
-3.93338e-17
-3.94611e-17
-3.93216e-17
-3.93228e-17
-3.92717e-17
-3.91016e-17
-3.91141e-17
-3.91932e-17
-3.92494e-17
-3.91234e-17
-3.89331e-17
-3.90442e-17
-3.90013e-17
-3.86761e-17
-3.83652e-17
-3.90185e-17
-3.86412e-17
-3.87709e-17
-3.88371e-17
-3.81074e-17
-3.85103e-17
-3.83646e-17
-3.80791e-17
-3.79907e-17
-3.79297e-17
-3.72013e-17
-3.71793e-17
-3.704e-17
-3.57403e-17
-3.79007e-17
-3.96873e-17
-3.92796e-17
-3.93272e-17
-3.98991e-17
-3.91687e-17
-3.95724e-17
-3.925e-17
-3.93075e-17
-3.92808e-17
-3.88122e-17
-3.91124e-17
-3.9298e-17
-3.92291e-17
-3.91235e-17
-3.86973e-17
-3.90547e-17
-3.88818e-17
-3.89387e-17
-3.86203e-17
-3.92811e-17
-3.84163e-17
-3.86066e-17
-3.84357e-17
-3.87302e-17
-3.85238e-17
-3.84455e-17
-3.84573e-17
-3.8032e-17
-3.79371e-17
-3.73796e-17
-3.72134e-17
-3.70301e-17
-3.57692e-17
-3.77129e-17
-3.96465e-17
-3.94683e-17
-3.93584e-17
-3.95964e-17
-3.92547e-17
-3.94715e-17
-3.92245e-17
-3.92343e-17
-3.91181e-17
-3.89057e-17
-3.92941e-17
-3.89265e-17
-3.92093e-17
-3.91709e-17
-3.89463e-17
-3.90805e-17
-3.86368e-17
-3.8682e-17
-3.84962e-17
-3.90954e-17
-3.86445e-17
-3.84094e-17
-3.85716e-17
-3.86592e-17
-3.86307e-17
-3.84218e-17
-3.8179e-17
-3.80223e-17
-3.80383e-17
-3.73155e-17
-3.72946e-17
-3.71136e-17
-3.57336e-17
-3.73392e-17
-3.93603e-17
-3.95371e-17
-3.93388e-17
-3.94213e-17
-3.92058e-17
-3.94374e-17
-3.92294e-17
-3.9462e-17
-3.92753e-17
-3.90433e-17
-3.97328e-17
-3.87131e-17
-3.90169e-17
-3.92367e-17
-3.90507e-17
-3.91475e-17
-3.89158e-17
-3.8912e-17
-3.88703e-17
-3.9063e-17
-3.88158e-17
-3.8717e-17
-3.8696e-17
-3.8606e-17
-3.85841e-17
-3.84254e-17
-3.82029e-17
-3.79657e-17
-3.80235e-17
-3.7622e-17
-3.74203e-17
-3.72137e-17
-3.63671e-17
-3.73333e-17
-3.93717e-17
-3.96438e-17
-3.94195e-17
-3.93104e-17
-3.92171e-17
-3.92482e-17
-3.91903e-17
-3.94594e-17
-3.92968e-17
-3.92383e-17
-3.95532e-17
-3.89249e-17
-3.8996e-17
-3.92862e-17
-3.88877e-17
-3.93446e-17
-3.90476e-17
-3.9053e-17
-3.92344e-17
-3.90497e-17
-3.89637e-17
-3.87451e-17
-3.87188e-17
-3.86549e-17
-3.87571e-17
-3.84823e-17
-3.82728e-17
-3.78459e-17
-3.81415e-17
-3.77203e-17
-3.74994e-17
-3.73173e-17
-3.69616e-17
-3.70974e-17
-3.95366e-17
-3.94646e-17
-3.92337e-17
-3.9462e-17
-3.93125e-17
-3.93624e-17
-3.90167e-17
-3.93674e-17
-3.93433e-17
-3.9414e-17
-3.93197e-17
-3.89454e-17
-3.9241e-17
-3.91405e-17
-3.88178e-17
-3.89228e-17
-3.9134e-17
-3.91705e-17
-3.88921e-17
-3.90442e-17
-3.91284e-17
-3.84398e-17
-3.87233e-17
-3.87245e-17
-3.92205e-17
-3.86619e-17
-3.83709e-17
-3.82706e-17
-3.84184e-17
-3.76796e-17
-3.75953e-17
-3.75318e-17
-3.69461e-17
-3.70834e-17
-3.55797e-17
-3.93909e-17
-3.95841e-17
-3.92846e-17
-3.95801e-17
-3.9267e-17
-3.93572e-17
-3.92394e-17
-3.90602e-17
-3.96235e-17
-3.92137e-17
-3.92747e-17
-3.91389e-17
-3.94506e-17
-3.89643e-17
-3.8913e-17
-3.91453e-17
-3.94107e-17
-3.93764e-17
-3.8503e-17
-3.91315e-17
-3.86523e-17
-3.83407e-17
-3.87405e-17
-3.87737e-17
-3.88141e-17
-3.8935e-17
-3.84874e-17
-3.8657e-17
-3.8282e-17
-3.82715e-17
-3.77306e-17
-3.80208e-17
-3.707e-17
-3.70855e-17
-3.621e-17
-3.90819e-17
-3.94939e-17
-3.92958e-17
-3.9425e-17
-3.93211e-17
-3.93416e-17
-3.9523e-17
-3.90693e-17
-3.94445e-17
-3.90496e-17
-3.9311e-17
-3.9212e-17
-3.93669e-17
-3.88252e-17
-3.89473e-17
-3.91038e-17
-3.91413e-17
-3.91891e-17
-3.86645e-17
-3.93725e-17
-3.88042e-17
-3.85612e-17
-3.87803e-17
-3.88435e-17
-3.85322e-17
-3.87404e-17
-3.84638e-17
-3.85064e-17
-3.82117e-17
-3.83449e-17
-3.78476e-17
-3.81412e-17
-3.72427e-17
-3.77026e-17
-3.69076e-17
-3.92199e-17
-3.93657e-17
-3.92204e-17
-3.95138e-17
-3.92408e-17
-3.93053e-17
-3.93574e-17
-3.88779e-17
-3.93011e-17
-3.91487e-17
-3.93866e-17
-3.91959e-17
-3.90945e-17
-3.92173e-17
-3.91551e-17
-3.89742e-17
-3.88502e-17
-3.90625e-17
-3.88722e-17
-3.92721e-17
-3.8936e-17
-3.9256e-17
-3.884e-17
-3.87667e-17
-3.82556e-17
-3.86671e-17
-3.84664e-17
-3.84591e-17
-3.81359e-17
-3.85748e-17
-3.79323e-17
-3.79826e-17
-3.7572e-17
-3.78371e-17
-3.93181e-17
-3.96174e-17
-3.90784e-17
-3.95353e-17
-3.92749e-17
-3.92024e-17
-3.92645e-17
-3.93133e-17
-3.94516e-17
-3.92092e-17
-3.9169e-17
-3.91934e-17
-3.91928e-17
-3.92753e-17
-3.92296e-17
-3.90151e-17
-3.89524e-17
-3.90837e-17
-3.90154e-17
-3.9403e-17
-3.89716e-17
-3.93779e-17
-3.88637e-17
-3.87388e-17
-3.8425e-17
-3.88098e-17
-3.85317e-17
-3.86354e-17
-3.79751e-17
-3.85082e-17
-3.80219e-17
-3.80637e-17
-3.79725e-17
-3.77769e-17
-3.93637e-17
-3.96606e-17
-3.91806e-17
-3.93641e-17
-3.92707e-17
-3.89212e-17
-3.935e-17
-3.91796e-17
-3.92738e-17
-3.92058e-17
-3.91961e-17
-3.92361e-17
-3.91482e-17
-3.92792e-17
-3.93216e-17
-3.91489e-17
-3.93429e-17
-3.91057e-17
-3.91561e-17
-3.91919e-17
-3.89187e-17
-3.90618e-17
-3.88672e-17
-3.87092e-17
-3.83505e-17
-3.90677e-17
-3.85998e-17
-3.8938e-17
-3.82562e-17
-3.85496e-17
-3.81621e-17
-3.81185e-17
-3.79891e-17
-3.78655e-17
-3.93176e-17
-3.94224e-17
-3.90696e-17
-3.93009e-17
-3.92664e-17
-3.90132e-17
-3.92577e-17
-3.92374e-17
-3.89035e-17
-3.91897e-17
-3.92168e-17
-3.93385e-17
-3.90626e-17
-3.9135e-17
-3.91454e-17
-3.90222e-17
-3.94043e-17
-3.91001e-17
-3.92352e-17
-3.90776e-17
-3.86496e-17
-3.8928e-17
-3.88879e-17
-3.88077e-17
-3.86188e-17
-3.8867e-17
-3.87373e-17
-3.87677e-17
-3.84423e-17
-3.88111e-17
-3.83552e-17
-3.82249e-17
-3.8135e-17
-3.80932e-17
-3.93184e-17
-3.93335e-17
-3.93216e-17
-3.94131e-17
-3.93239e-17
-3.9304e-17
-3.91341e-17
-3.96011e-17
-3.9346e-17
-3.91972e-17
-3.92963e-17
-3.92754e-17
-3.92151e-17
-3.91332e-17
-3.90495e-17
-3.88699e-17
-3.90022e-17
-3.90518e-17
-3.89495e-17
-3.9097e-17
-3.90508e-17
-3.89768e-17
-3.8912e-17
-3.88735e-17
-3.87589e-17
-3.87673e-17
-3.91408e-17
-3.86953e-17
-3.84544e-17
-3.85915e-17
-3.85636e-17
-3.85672e-17
-3.82117e-17
-3.93364e-17
-3.93187e-17
-3.93069e-17
-3.93577e-17
-3.92938e-17
-3.92523e-17
-3.93643e-17
-3.94314e-17
-3.94307e-17
-3.92304e-17
-3.92541e-17
-3.92593e-17
-3.93445e-17
-3.91555e-17
-3.92062e-17
-3.90449e-17
-3.90042e-17
-3.89078e-17
-3.88799e-17
-3.91527e-17
-3.92154e-17
-3.90477e-17
-3.89338e-17
-3.89029e-17
-3.88445e-17
-3.87418e-17
-3.91234e-17
-3.87546e-17
-3.84307e-17
-3.84957e-17
-3.8533e-17
-3.88782e-17
-3.85196e-17
-3.93374e-17
-3.93124e-17
-3.93066e-17
-3.93145e-17
-3.9281e-17
-3.93307e-17
-3.93042e-17
-3.92327e-17
-3.93494e-17
-3.93191e-17
-3.9222e-17
-3.92575e-17
-3.92621e-17
-3.91571e-17
-3.90744e-17
-3.9055e-17
-3.90122e-17
-3.90188e-17
-3.90876e-17
-3.92272e-17
-3.91401e-17
-3.91572e-17
-3.897e-17
-3.89347e-17
-3.89339e-17
-3.8673e-17
-3.86763e-17
-3.88322e-17
-3.86321e-17
-3.88354e-17
-3.86485e-17
-3.87511e-17
-3.93323e-17
-3.93249e-17
-3.93079e-17
-3.92914e-17
-3.92741e-17
-3.92822e-17
-3.92744e-17
-3.92605e-17
-3.92907e-17
-3.93095e-17
-3.91943e-17
-3.92059e-17
-3.91307e-17
-3.91557e-17
-3.91407e-17
-3.9026e-17
-3.92136e-17
-3.90162e-17
-3.90939e-17
-3.91502e-17
-3.92058e-17
-3.9112e-17
-3.89929e-17
-3.89631e-17
-3.9065e-17
-3.88587e-17
-3.87544e-17
-3.89391e-17
-3.87749e-17
-3.89453e-17
-3.88192e-17
-3.87086e-17
-3.93272e-17
-3.93232e-17
-3.93078e-17
-3.93077e-17
-3.92864e-17
-3.92743e-17
-3.92539e-17
-3.92639e-17
-3.92475e-17
-3.92442e-17
-3.92195e-17
-3.91323e-17
-3.91979e-17
-3.9188e-17
-3.91779e-17
-3.92175e-17
-3.91963e-17
-3.91415e-17
-3.90326e-17
-3.91386e-17
-3.90723e-17
-3.89805e-17
-3.90632e-17
-3.89787e-17
-3.90149e-17
-3.90377e-17
-3.88596e-17
-3.87769e-17
-3.88389e-17
-3.88784e-17
-3.86949e-17
-3.88429e-17
-3.93263e-17
-3.93149e-17
-3.93091e-17
-3.93122e-17
-3.92905e-17
-3.92773e-17
-3.92665e-17
-3.92566e-17
-3.92367e-17
-3.92305e-17
-3.92335e-17
-3.91813e-17
-3.92126e-17
-3.91938e-17
-3.91883e-17
-3.91691e-17
-3.92138e-17
-3.91614e-17
-3.91337e-17
-3.91298e-17
-3.90076e-17
-3.90603e-17
-3.91236e-17
-3.90242e-17
-3.90629e-17
-3.89994e-17
-3.89162e-17
-3.88679e-17
-3.88848e-17
-3.87464e-17
-3.87467e-17
-3.88103e-17
-3.9325e-17
-3.93192e-17
-3.93054e-17
-3.93127e-17
-3.92825e-17
-3.92799e-17
-3.92677e-17
-3.92611e-17
-3.9237e-17
-3.92405e-17
-3.92317e-17
-3.92164e-17
-3.92043e-17
-3.91837e-17
-3.9179e-17
-3.91715e-17
-3.91811e-17
-3.91745e-17
-3.91344e-17
-3.9137e-17
-3.91034e-17
-3.90677e-17
-3.90459e-17
-3.90656e-17
-3.90481e-17
-3.89946e-17
-3.89461e-17
-3.89297e-17
-3.89104e-17
-3.88807e-17
-3.88427e-17
-3.88366e-17
-3.93226e-17
-3.93311e-17
-3.93078e-17
-3.93044e-17
-3.92783e-17
-3.92858e-17
-3.92687e-17
-3.92568e-17
-3.92424e-17
-3.92426e-17
-3.92278e-17
-3.92189e-17
-3.92049e-17
-3.91869e-17
-3.91905e-17
-3.91773e-17
-3.91742e-17
-3.9173e-17
-3.91176e-17
-3.91389e-17
-3.91079e-17
-3.90773e-17
-3.9046e-17
-3.90431e-17
-3.90204e-17
-3.89699e-17
-3.89588e-17
-3.89555e-17
-3.88998e-17
-3.88978e-17
-3.88662e-17
-3.88547e-17
-3.93265e-17
-3.93264e-17
-3.93077e-17
-3.93031e-17
-3.92861e-17
-3.92834e-17
-3.9272e-17
-3.92639e-17
-3.92454e-17
-3.92318e-17
-3.92289e-17
-3.92219e-17
-3.92001e-17
-3.91938e-17
-3.91984e-17
-3.91703e-17
-3.91705e-17
-3.91604e-17
-3.91384e-17
-3.91331e-17
-3.91119e-17
-3.90839e-17
-3.90637e-17
-3.90366e-17
-3.90226e-17
-3.8981e-17
-3.89646e-17
-3.89465e-17
-3.89036e-17
-3.88938e-17
-3.88706e-17
-3.88479e-17
-3.93308e-17
-3.93258e-17
-3.93054e-17
-3.93039e-17
-3.92832e-17
-3.92802e-17
-3.92654e-17
-3.92562e-17
-3.92441e-17
-3.92302e-17
-3.92274e-17
-3.92161e-17
-3.92053e-17
-3.9193e-17
-3.91961e-17
-3.9167e-17
-3.91731e-17
-3.91522e-17
-3.91527e-17
-3.91375e-17
-3.91089e-17
-3.90885e-17
-3.90672e-17
-3.90336e-17
-3.90168e-17
-3.89837e-17
-3.89691e-17
-3.89425e-17
-3.89258e-17
-3.89035e-17
-3.88756e-17
-3.88484e-17
-3.93264e-17
-3.93247e-17
-3.93034e-17
-3.93017e-17
-3.92822e-17
-3.92805e-17
-3.92613e-17
-3.92528e-17
-3.92414e-17
-3.92306e-17
-3.92237e-17
-3.92158e-17
-3.92038e-17
-3.919e-17
-3.91904e-17
-3.91709e-17
-3.91787e-17
-3.91563e-17
-3.91489e-17
-3.9136e-17
-3.91106e-17
-3.90932e-17
-3.90675e-17
-3.90308e-17
-3.90134e-17
-3.89894e-17
-3.89731e-17
-3.89514e-17
-3.89351e-17
-3.89095e-17
-3.88846e-17
-3.88644e-17
-3.9333e-17
-3.93193e-17
-3.93083e-17
-3.92992e-17
-3.92855e-17
-3.92805e-17
-3.92661e-17
-3.92496e-17
-3.92374e-17
-3.92308e-17
-3.92243e-17
-3.92102e-17
-3.92051e-17
-3.91862e-17
-3.919e-17
-3.91705e-17
-3.91793e-17
-3.91608e-17
-3.91509e-17
-3.91394e-17
-3.91106e-17
-3.90984e-17
-3.90699e-17
-3.90403e-17
-3.90184e-17
-3.89905e-17
-3.8976e-17
-3.89586e-17
-3.8941e-17
-3.89141e-17
-3.88906e-17
-3.8873e-17
-3.93305e-17
-3.93244e-17
-3.93065e-17
-3.92982e-17
-3.92897e-17
-3.92756e-17
-3.92684e-17
-3.92464e-17
-3.92344e-17
-3.92283e-17
-3.92239e-17
-3.92083e-17
-3.92031e-17
-3.91825e-17
-3.91936e-17
-3.91711e-17
-3.9176e-17
-3.91607e-17
-3.9153e-17
-3.91396e-17
-3.91095e-17
-3.90964e-17
-3.90749e-17
-3.90412e-17
-3.90225e-17
-3.89963e-17
-3.89791e-17
-3.89591e-17
-3.89433e-17
-3.89171e-17
-3.88922e-17
-3.88756e-17
-3.93314e-17
-3.93247e-17
-3.93044e-17
-3.9296e-17
-3.9281e-17
-3.92755e-17
-3.92648e-17
-3.92415e-17
-3.92298e-17
-3.92217e-17
-3.92201e-17
-3.92085e-17
-3.91954e-17
-3.91864e-17
-3.91949e-17
-3.91742e-17
-3.91766e-17
-3.91602e-17
-3.91501e-17
-3.91368e-17
-3.91169e-17
-3.90962e-17
-3.90753e-17
-3.90414e-17
-3.90216e-17
-3.90014e-17
-3.89836e-17
-3.89606e-17
-3.89434e-17
-3.89201e-17
-3.8896e-17
-3.88789e-17
-3.9333e-17
-3.93232e-17
-3.93041e-17
-3.9298e-17
-3.92784e-17
-3.92731e-17
-3.92592e-17
-3.92451e-17
-3.92355e-17
-3.9224e-17
-3.92208e-17
-3.92074e-17
-3.9198e-17
-3.91881e-17
-3.91938e-17
-3.91748e-17
-3.91729e-17
-3.9162e-17
-3.91513e-17
-3.91383e-17
-3.91176e-17
-3.90973e-17
-3.90725e-17
-3.9042e-17
-3.90208e-17
-3.90011e-17
-3.89884e-17
-3.89631e-17
-3.89465e-17
-3.89257e-17
-3.89019e-17
-3.88879e-17
-3.93331e-17
-3.93272e-17
-3.93095e-17
-3.93006e-17
-3.92877e-17
-3.92775e-17
-3.92601e-17
-3.92458e-17
-3.92374e-17
-3.92272e-17
-3.92233e-17
-3.9205e-17
-3.9198e-17
-3.91876e-17
-3.91928e-17
-3.91758e-17
-3.91736e-17
-3.91598e-17
-3.915e-17
-3.9135e-17
-3.9117e-17
-3.91013e-17
-3.90712e-17
-3.90435e-17
-3.90238e-17
-3.90018e-17
-3.89834e-17
-3.89639e-17
-3.89537e-17
-3.893e-17
-3.89099e-17
-3.8896e-17
-3.93352e-17
-3.9323e-17
-3.93059e-17
-3.92971e-17
-3.92856e-17
-3.9276e-17
-3.92596e-17
-3.92437e-17
-3.92368e-17
-3.92275e-17
-3.92214e-17
-3.92046e-17
-3.91982e-17
-3.91864e-17
-3.91902e-17
-3.91798e-17
-3.91774e-17
-3.91574e-17
-3.9154e-17
-3.91344e-17
-3.91175e-17
-3.91008e-17
-3.90724e-17
-3.9042e-17
-3.90256e-17
-3.90035e-17
-3.899e-17
-3.89692e-17
-3.89525e-17
-3.89328e-17
-3.89149e-17
-3.89006e-17
-3.9337e-17
-3.9324e-17
-3.93056e-17
-3.9295e-17
-3.92858e-17
-3.92686e-17
-3.92591e-17
-3.92462e-17
-3.92364e-17
-3.92239e-17
-3.92175e-17
-3.92036e-17
-3.91999e-17
-3.91882e-17
-3.91896e-17
-3.91759e-17
-3.91733e-17
-3.91556e-17
-3.9155e-17
-3.91324e-17
-3.91205e-17
-3.90997e-17
-3.90725e-17
-3.90449e-17
-3.90264e-17
-3.9006e-17
-3.89918e-17
-3.89705e-17
-3.89578e-17
-3.89393e-17
-3.89196e-17
-3.93387e-17
-3.93252e-17
-3.93014e-17
-3.92963e-17
-3.92863e-17
-3.92671e-17
-3.92563e-17
-3.92449e-17
-3.92336e-17
-3.92238e-17
-3.92177e-17
-3.91999e-17
-3.91983e-17
-3.9187e-17
-3.91848e-17
-3.9174e-17
-3.91711e-17
-3.91591e-17
-3.91533e-17
-3.913e-17
-3.91201e-17
-3.90988e-17
-3.9075e-17
-3.90474e-17
-3.90273e-17
-3.90107e-17
-3.89926e-17
-3.89726e-17
-3.89595e-17
-3.89432e-17
-3.89233e-17
-3.9338e-17
-3.93246e-17
-3.93071e-17
-3.92955e-17
-3.92836e-17
-3.92687e-17
-3.92594e-17
-3.92436e-17
-3.92344e-17
-3.92224e-17
-3.9216e-17
-3.92026e-17
-3.91935e-17
-3.91842e-17
-3.91853e-17
-3.91718e-17
-3.91681e-17
-3.91575e-17
-3.91524e-17
-3.91306e-17
-3.9119e-17
-3.90981e-17
-3.90788e-17
-3.90482e-17
-3.9028e-17
-3.90106e-17
-3.89948e-17
-3.8978e-17
-3.89662e-17
-3.89484e-17
-3.93411e-17
-3.93183e-17
-3.93124e-17
-3.92937e-17
-3.92823e-17
-3.92701e-17
-3.9257e-17
-3.92444e-17
-3.92342e-17
-3.9223e-17
-3.92135e-17
-3.91993e-17
-3.91935e-17
-3.91846e-17
-3.91852e-17
-3.91717e-17
-3.91678e-17
-3.91556e-17
-3.91546e-17
-3.91308e-17
-3.91196e-17
-3.90984e-17
-3.90795e-17
-3.90486e-17
-3.90322e-17
-3.90103e-17
-3.89981e-17
-3.89831e-17
-3.89671e-17
-3.89493e-17
-3.93381e-17
-3.93172e-17
-3.93068e-17
-3.92916e-17
-3.92786e-17
-3.9268e-17
-3.92558e-17
-3.92451e-17
-3.92316e-17
-3.92202e-17
-3.92134e-17
-3.91969e-17
-3.91913e-17
-3.91812e-17
-3.91821e-17
-3.91734e-17
-3.91679e-17
-3.91568e-17
-3.91541e-17
-3.91293e-17
-3.91205e-17
-3.90975e-17
-3.90819e-17
-3.9052e-17
-3.90342e-17
-3.90121e-17
-3.89992e-17
-3.89799e-17
-3.89668e-17
-3.89493e-17
-3.93354e-17
-3.93223e-17
-3.93027e-17
-3.92927e-17
-3.92805e-17
-3.92672e-17
-3.92534e-17
-3.92414e-17
-3.92313e-17
-3.92194e-17
-3.92104e-17
-3.91976e-17
-3.91938e-17
-3.91796e-17
-3.91818e-17
-3.9175e-17
-3.91681e-17
-3.91577e-17
-3.91557e-17
-3.91307e-17
-3.91196e-17
-3.90998e-17
-3.90836e-17
-3.90548e-17
-3.90375e-17
-3.90145e-17
-3.90004e-17
-3.89835e-17
-3.89713e-17
-3.89531e-17
-3.9335e-17
-3.93201e-17
-3.93026e-17
-3.92917e-17
-3.92824e-17
-3.92665e-17
-3.92521e-17
-3.92432e-17
-3.92289e-17
-3.92208e-17
-3.92053e-17
-3.91956e-17
-3.91967e-17
-3.91798e-17
-3.91795e-17
-3.9172e-17
-3.91663e-17
-3.91571e-17
-3.91536e-17
-3.91315e-17
-3.91202e-17
-3.90996e-17
-3.90846e-17
-3.90571e-17
-3.90421e-17
-3.90166e-17
-3.90029e-17
-3.89868e-17
-3.8976e-17
-3.89571e-17
-3.93325e-17
-3.932e-17
-3.93055e-17
-3.92928e-17
-3.92813e-17
-3.92646e-17
-3.92528e-17
-3.92429e-17
-3.92295e-17
-3.92214e-17
-3.92088e-17
-3.91921e-17
-3.91881e-17
-3.91815e-17
-3.91765e-17
-3.91713e-17
-3.91701e-17
-3.91574e-17
-3.91544e-17
-3.9133e-17
-3.91212e-17
-3.91026e-17
-3.9085e-17
-3.90589e-17
-3.90448e-17
-3.90183e-17
-3.90054e-17
-3.89876e-17
-3.89764e-17
-3.89646e-17
-3.93381e-17
-3.932e-17
-3.93062e-17
-3.92896e-17
-3.92824e-17
-3.92626e-17
-3.92523e-17
-3.92439e-17
-3.92288e-17
-3.92178e-17
-3.92081e-17
-3.91948e-17
-3.91895e-17
-3.91799e-17
-3.91768e-17
-3.91704e-17
-3.91688e-17
-3.91563e-17
-3.91536e-17
-3.9133e-17
-3.91223e-17
-3.91055e-17
-3.90878e-17
-3.90613e-17
-3.90446e-17
-3.90194e-17
-3.90037e-17
-3.89893e-17
-3.89769e-17
-3.89679e-17
-3.93328e-17
-3.9321e-17
-3.93019e-17
-3.92873e-17
-3.92829e-17
-3.92666e-17
-3.92538e-17
-3.92429e-17
-3.92291e-17
-3.92174e-17
-3.92075e-17
-3.91972e-17
-3.91942e-17
-3.91803e-17
-3.91761e-17
-3.91683e-17
-3.91689e-17
-3.91549e-17
-3.91513e-17
-3.91316e-17
-3.91237e-17
-3.91051e-17
-3.90899e-17
-3.90645e-17
-3.90458e-17
-3.90201e-17
-3.90052e-17
-3.89909e-17
-3.89772e-17
-3.89685e-17
-3.93325e-17
-3.93171e-17
-3.93045e-17
-3.92927e-17
-3.92816e-17
-3.92653e-17
-3.92553e-17
-3.9241e-17
-3.92263e-17
-3.92169e-17
-3.92059e-17
-3.91962e-17
-3.91928e-17
-3.91793e-17
-3.91787e-17
-3.91712e-17
-3.91695e-17
-3.91573e-17
-3.91538e-17
-3.9132e-17
-3.91253e-17
-3.91046e-17
-3.9088e-17
-3.90642e-17
-3.90471e-17
-3.90237e-17
-3.90098e-17
-3.89924e-17
-3.89815e-17
-3.89738e-17
-3.93352e-17
-3.9321e-17
-3.93071e-17
-3.92935e-17
-3.92836e-17
-3.92678e-17
-3.92569e-17
-3.92402e-17
-3.92284e-17
-3.92165e-17
-3.92043e-17
-3.91919e-17
-3.91878e-17
-3.9181e-17
-3.91794e-17
-3.91738e-17
-3.91705e-17
-3.91564e-17
-3.91537e-17
-3.91339e-17
-3.91253e-17
-3.91051e-17
-3.90874e-17
-3.90679e-17
-3.90487e-17
-3.90259e-17
-3.90124e-17
-3.89958e-17
-3.89847e-17
-3.89742e-17
-3.93373e-17
-3.93215e-17
-3.93062e-17
-3.92948e-17
-3.92792e-17
-3.92677e-17
-3.92557e-17
-3.92412e-17
-3.92314e-17
-3.92151e-17
-3.92018e-17
-3.91935e-17
-3.91889e-17
-3.91795e-17
-3.91812e-17
-3.91724e-17
-3.91707e-17
-3.91561e-17
-3.91511e-17
-3.91345e-17
-3.91236e-17
-3.91065e-17
-3.90899e-17
-3.90674e-17
-3.90493e-17
-3.90288e-17
-3.9014e-17
-3.9e-17
-3.89857e-17
-3.89769e-17
-3.93371e-17
-3.93187e-17
-3.93057e-17
-3.92942e-17
-3.92797e-17
-3.92672e-17
-3.92536e-17
-3.92381e-17
-3.92326e-17
-3.92147e-17
-3.9203e-17
-3.9194e-17
-3.91911e-17
-3.91787e-17
-3.91793e-17
-3.91717e-17
-3.91703e-17
-3.91545e-17
-3.91498e-17
-3.91349e-17
-3.91241e-17
-3.91078e-17
-3.90915e-17
-3.90698e-17
-3.9051e-17
-3.90274e-17
-3.90156e-17
-3.90021e-17
-3.89895e-17
-3.89799e-17
-3.93362e-17
-3.932e-17
-3.93015e-17
-3.92918e-17
-3.92796e-17
-3.92671e-17
-3.92487e-17
-3.92391e-17
-3.92332e-17
-3.92189e-17
-3.92032e-17
-3.91933e-17
-3.91896e-17
-3.91766e-17
-3.91766e-17
-3.91699e-17
-3.91693e-17
-3.91527e-17
-3.91499e-17
-3.91381e-17
-3.91247e-17
-3.91101e-17
-3.90923e-17
-3.90681e-17
-3.90547e-17
-3.90307e-17
-3.90161e-17
-3.90031e-17
-3.89922e-17
-3.8981e-17
-3.93364e-17
-3.93186e-17
-3.9303e-17
-3.9296e-17
-3.92791e-17
-3.92626e-17
-3.92502e-17
-3.924e-17
-3.92311e-17
-3.92183e-17
-3.92033e-17
-3.91925e-17
-3.91894e-17
-3.9178e-17
-3.918e-17
-3.91689e-17
-3.91707e-17
-3.91543e-17
-3.91482e-17
-3.91364e-17
-3.91244e-17
-3.91095e-17
-3.90933e-17
-3.9071e-17
-3.90587e-17
-3.90337e-17
-3.90157e-17
-3.90051e-17
-3.8991e-17
-3.89823e-17
-3.93331e-17
-3.93248e-17
-3.93021e-17
-3.92944e-17
-3.92809e-17
-3.92626e-17
-3.92521e-17
-3.92404e-17
-3.92305e-17
-3.92168e-17
-3.92056e-17
-3.91952e-17
-3.91866e-17
-3.918e-17
-3.9178e-17
-3.91685e-17
-3.91659e-17
-3.91538e-17
-3.91515e-17
-3.91357e-17
-3.91251e-17
-3.9108e-17
-3.90934e-17
-3.90737e-17
-3.90582e-17
-3.90326e-17
-3.90169e-17
-3.9009e-17
-3.89944e-17
-3.89856e-17
-3.93298e-17
-3.93228e-17
-3.93005e-17
-3.9293e-17
-3.92778e-17
-3.92611e-17
-3.92598e-17
-3.92408e-17
-3.92319e-17
-3.9214e-17
-3.9205e-17
-3.91983e-17
-3.91879e-17
-3.91781e-17
-3.91761e-17
-3.91689e-17
-3.91624e-17
-3.9153e-17
-3.91522e-17
-3.91358e-17
-3.9126e-17
-3.91103e-17
-3.90956e-17
-3.90724e-17
-3.9058e-17
-3.90321e-17
-3.90208e-17
-3.90111e-17
-3.89967e-17
-3.89871e-17
-3.93354e-17
-3.93234e-17
-3.93024e-17
-3.92922e-17
-3.92792e-17
-3.92689e-17
-3.9262e-17
-3.92405e-17
-3.92379e-17
-3.92141e-17
-3.92053e-17
-3.91929e-17
-3.91874e-17
-3.91779e-17
-3.91736e-17
-3.91675e-17
-3.91654e-17
-3.91512e-17
-3.91478e-17
-3.91358e-17
-3.91289e-17
-3.91106e-17
-3.90979e-17
-3.90736e-17
-3.9058e-17
-3.9036e-17
-3.90236e-17
-3.90124e-17
-3.89979e-17
-3.89916e-17
-3.93357e-17
-3.93241e-17
-3.93037e-17
-3.9291e-17
-3.92857e-17
-3.92653e-17
-3.92602e-17
-3.92376e-17
-3.92359e-17
-3.92147e-17
-3.92106e-17
-3.91932e-17
-3.91901e-17
-3.91766e-17
-3.91702e-17
-3.91641e-17
-3.91655e-17
-3.91508e-17
-3.91455e-17
-3.91365e-17
-3.91274e-17
-3.91098e-17
-3.91004e-17
-3.90747e-17
-3.90591e-17
-3.90368e-17
-3.90263e-17
-3.90155e-17
-3.90016e-17
-3.89962e-17
-3.93347e-17
-3.93233e-17
-3.93057e-17
-3.92918e-17
-3.92843e-17
-3.92644e-17
-3.92584e-17
-3.92355e-17
-3.92361e-17
-3.92168e-17
-3.92086e-17
-3.91936e-17
-3.91925e-17
-3.9174e-17
-3.91704e-17
-3.91651e-17
-3.91628e-17
-3.91525e-17
-3.91464e-17
-3.91346e-17
-3.91253e-17
-3.91103e-17
-3.90989e-17
-3.90755e-17
-3.90603e-17
-3.90374e-17
-3.9029e-17
-3.90169e-17
-3.90037e-17
-3.89965e-17
-3.93374e-17
-3.93214e-17
-3.93075e-17
-3.92908e-17
-3.92819e-17
-3.92624e-17
-3.92585e-17
-3.92403e-17
-3.92345e-17
-3.92164e-17
-3.92111e-17
-3.91919e-17
-3.91892e-17
-3.91736e-17
-3.91745e-17
-3.91677e-17
-3.9163e-17
-3.91511e-17
-3.91435e-17
-3.91339e-17
-3.91251e-17
-3.91115e-17
-3.90967e-17
-3.90761e-17
-3.90621e-17
-3.90381e-17
-3.90327e-17
-3.90182e-17
-3.90074e-17
-3.89974e-17
-3.93373e-17
-3.93236e-17
-3.93094e-17
-3.92922e-17
-3.92814e-17
-3.92613e-17
-3.92598e-17
-3.9243e-17
-3.92329e-17
-3.92128e-17
-3.92092e-17
-3.91921e-17
-3.91905e-17
-3.91793e-17
-3.91727e-17
-3.91669e-17
-3.91633e-17
-3.91487e-17
-3.91442e-17
-3.9135e-17
-3.91258e-17
-3.91106e-17
-3.90969e-17
-3.90774e-17
-3.9065e-17
-3.90426e-17
-3.90334e-17
-3.90186e-17
-3.90084e-17
-3.89984e-17
-3.93373e-17
-3.93229e-17
-3.93081e-17
-3.92927e-17
-3.92823e-17
-3.92636e-17
-3.92557e-17
-3.92435e-17
-3.92343e-17
-3.92163e-17
-3.92076e-17
-3.9194e-17
-3.9192e-17
-3.91777e-17
-3.91731e-17
-3.91643e-17
-3.9163e-17
-3.9147e-17
-3.91487e-17
-3.91334e-17
-3.91237e-17
-3.91096e-17
-3.90989e-17
-3.90785e-17
-3.90659e-17
-3.90426e-17
-3.90351e-17
-3.90211e-17
-3.90089e-17
-3.89983e-17
-3.93076e-17
-3.92895e-17
-3.92877e-17
-3.92632e-17
-3.92588e-17
-3.92468e-17
-3.92387e-17
-3.92209e-17
-3.92058e-17
-3.91941e-17
-3.91936e-17
-3.91767e-17
-3.91255e-17
-3.91073e-17
-3.90998e-17
-3.90761e-17
-3.90649e-17
-3.90418e-17
-3.90344e-17
-3.90222e-17
-3.90099e-17
-3.90015e-17
-3.99468e-17
-3.99109e-17
-3.99123e-17
-3.99464e-17
-4.00929e-17
-3.99096e-17
-4.00144e-17
-4.0106e-17
-3.97959e-17
-4.00956e-17
-3.97586e-17
-3.98996e-17
-3.98087e-17
-3.99924e-17
-3.97761e-17
-3.98101e-17
-3.99622e-17
-4.01552e-17
-3.99552e-17
-3.99146e-17
-4.00361e-17
-3.98608e-17
-3.97999e-17
-3.98965e-17
-3.96889e-17
-3.98909e-17
-3.97264e-17
-3.99666e-17
-3.98676e-17
-3.98237e-17
-4.00102e-17
-3.99338e-17
-3.99682e-17
-3.98761e-17
-3.99729e-17
-4.0082e-17
-4.02874e-17
-3.98743e-17
-3.98312e-17
-4.00258e-17
-4.0303e-17
-3.98217e-17
-4.00482e-17
-4.02259e-17
-3.97915e-17
-3.99758e-17
-3.98597e-17
-3.96771e-17
-3.99399e-17
-4.00211e-17
-3.98469e-17
-3.96672e-17
-3.96256e-17
-3.98753e-17
-3.9894e-17
-3.96418e-17
-3.94652e-17
-3.95176e-17
-4.01431e-17
-3.98869e-17
-3.9763e-17
-3.99553e-17
-4.00909e-17
-3.98929e-17
-4.0037e-17
-4.00161e-17
-3.99976e-17
-3.97853e-17
-3.97333e-17
-3.97291e-17
-3.99708e-17
-3.98785e-17
-3.98505e-17
-3.98243e-17
-3.98385e-17
-3.98766e-17
-3.97642e-17
-3.98785e-17
-4.00769e-17
-3.98862e-17
-3.96814e-17
-3.97087e-17
-3.96549e-17
-3.97856e-17
-3.98183e-17
-3.96438e-17
-4.01159e-17
-3.95858e-17
-3.96854e-17
-3.95064e-17
-3.96357e-17
-3.97023e-17
-3.98409e-17
-4.00548e-17
-3.98648e-17
-3.98169e-17
-4.00561e-17
-4.01238e-17
-3.97576e-17
-3.98031e-17
-4.0015e-17
-3.98967e-17
-3.99894e-17
-4.00162e-17
-3.99384e-17
-3.98973e-17
-3.99717e-17
-4.02372e-17
-3.99392e-17
-3.98753e-17
-3.97747e-17
-3.94906e-17
-4.0049e-17
-3.99518e-17
-3.97255e-17
-3.97896e-17
-3.98713e-17
-3.99651e-17
-3.969e-17
-3.98784e-17
-4.00307e-17
-4.00078e-17
-3.97322e-17
-3.9686e-17
-3.97037e-17
-4.00831e-17
-3.95257e-17
-3.93651e-17
-3.96553e-17
-4.00218e-17
-4.00582e-17
-3.99042e-17
-4.02489e-17
-3.99236e-17
-3.98057e-17
-3.97122e-17
-3.99245e-17
-4.00744e-17
-3.98117e-17
-3.98346e-17
-3.97978e-17
-3.97615e-17
-4.00053e-17
-3.99793e-17
-4.03362e-17
-3.99526e-17
-4.00422e-17
-4.0113e-17
-4.00664e-17
-3.99169e-17
-3.96616e-17
-3.97496e-17
-4.0037e-17
-3.99073e-17
-3.98205e-17
-3.96799e-17
-3.984e-17
-3.97272e-17
-3.98544e-17
-4.00586e-17
-4.03505e-17
-4.03068e-17
-3.98392e-17
-3.98006e-17
-3.98512e-17
-3.98001e-17
-3.95848e-17
-3.96277e-17
-3.95179e-17
-3.99661e-17
-3.99769e-17
-3.99464e-17
-3.98566e-17
-4.01157e-17
-3.98808e-17
-3.96717e-17
-3.98116e-17
-3.98817e-17
-4.00728e-17
-3.97454e-17
-3.98379e-17
-3.95865e-17
-3.98579e-17
-4.02778e-17
-4.00486e-17
-4.03302e-17
-3.99274e-17
-4.00599e-17
-4.0186e-17
-3.99723e-17
-4.00275e-17
-3.96807e-17
-3.98273e-17
-3.97949e-17
-3.98619e-17
-3.9904e-17
-3.96866e-17
-3.98861e-17
-3.97832e-17
-3.99968e-17
-3.99323e-17
-4.007e-17
-4.00486e-17
-3.99822e-17
-3.99258e-17
-3.97418e-17
-3.95899e-17
-3.95849e-17
-3.97154e-17
-3.98657e-17
-3.9764e-17
-3.99152e-17
-4.0035e-17
-3.98977e-17
-3.9761e-17
-4.0257e-17
-3.9894e-17
-3.96338e-17
-3.99058e-17
-3.97689e-17
-4.00929e-17
-3.98618e-17
-3.99122e-17
-4.01776e-17
-3.98977e-17
-4.01116e-17
-4.02327e-17
-3.99905e-17
-3.97828e-17
-4.0133e-17
-3.95566e-17
-3.9901e-17
-4.00384e-17
-3.97984e-17
-3.98755e-17
-3.98016e-17
-3.97534e-17
-4.00102e-17
-3.98861e-17
-3.99443e-17
-3.96564e-17
-3.99029e-17
-3.98759e-17
-3.97132e-17
-3.98219e-17
-3.98167e-17
-3.99563e-17
-3.96823e-17
-3.95084e-17
-3.9605e-17
-3.9782e-17
-3.94209e-17
-4.00596e-17
-3.98116e-17
-3.99078e-17
-3.97995e-17
-3.9873e-17
-3.98242e-17