/*--------------------------------*- C++ -*----------------------------------*\
  =========                 |
  \\      /  F ield         | OpenFOAM: The Open Source CFD Toolbox
   \\    /   O peration     | Website:  https://openfoam.org
    \\  /    A nd           | Version:  7
     \\/     M anipulation  |
\*---------------------------------------------------------------------------*/
FoamFile
{
    version     2.0;
    format      ascii;
    class       volScalarField;
    location    "268000";
    object      strainRate;
}
// * * * * * * * * * * * * * * * * * * * * * * * * * * * * * * * * * * * * * //

dimensions      [0 0 -1 0 0 0 0];

internalField   nonuniform List<scalar> 
4783
(
0.00197568
0.00186955
0.00179408
0.00169724
0.00159056
0.00147949
0.00136661
0.00125336
0.00114077
0.00102984
0.000921777
0.000818142
0.000720743
0.000631415
0.000551669
0.000482425
0.000423862
0.000375463
0.000336478
0.000305818
0.000282236
0.000264541
0.00257553
0.00225023
0.0021551
0.00205018
0.00193622
0.00181707
0.00169598
0.00157515
0.00145602
0.00133959
0.00122668
0.00111809
0.00101476
0.000917734
0.000828114
0.000746897
0.000674823
0.00061226
0.000559213
0.000515374
0.000480175
0.000452926
0.0029597
0.00255917
0.00243203
0.00231665
0.00220317
0.00208856
0.0019729
0.00185727
0.00174285
0.00163065
0.00152149
0.00141604
0.00131494
0.00121888
0.0011286
0.00104487
0.000968453
0.000900014
0.000840029
0.000788787
0.000746377
0.000712733
0.00325966
0.00286398
0.0027205
0.00259123
0.00247088
0.00235509
0.00224162
0.00212985
0.00201997
0.00191252
0.00180809
0.00170727
0.00161058
0.00151853
0.00143165
0.0013505
0.00127566
0.00120772
0.00114723
0.00109468
0.00105045
0.00101483
0.00353626
0.00315533
0.00301022
0.00287421
0.00274726
0.0026274
0.00251264
0.0024017
0.00229404
0.00218965
0.00208876
0.00199174
0.00189902
0.00181099
0.00172809
0.00165073
0.00157936
0.00151445
0.00145646
0.00140583
0.00136298
0.00132826
0.00380339
0.00343556
0.00329333
0.00315657
0.00302671
0.00290373
0.00278683
0.00267509
0.00256786
0.00246484
0.00236599
0.00227147
0.00218156
0.00209656
0.00201682
0.00194269
0.00187453
0.0018127
0.00175757
0.0017095
0.00166884
0.0016359
0.00406443
0.00370817
0.0035691
0.00343402
0.00330411
0.00318004
0.00306184
0.00294919
0.0028417
0.00273908
0.00264123
0.00254816
0.00246003
0.00237706
0.00229953
0.00222771
0.0021619
0.00210241
0.00204954
0.00200356
0.00196477
0.0019334
0.00432081
0.00397525
0.00383881
0.00370591
0.00357728
0.00345359
0.00333522
0.00322225
0.00311459
0.00301213
0.00291478
0.00282255
0.00273554
0.0026539
0.00257784
0.0025076
0.00244343
0.00238557
0.00233428
0.0022898
0.00225234
0.00222211
0.0045735
0.00423803
0.00410374
0.00397286
0.00384588
0.00372331
0.00360556
0.0034929
0.00338545
0.00328326
0.00318632
0.00309469
0.00300845
0.00292774
0.00285272
0.0027836
0.00272057
0.00266386
0.00261369
0.00257024
0.00253372
0.00250429
0.00482315
0.00449725
0.00436478
0.00423568
0.00411033
0.0039891
0.00387238
0.00376046
0.00365358
0.00355186
0.00345543
0.00336436
0.00327878
0.0031988
0.00312458
0.0030563
0.00299414
0.0029383
0.00288895
0.00284627
0.00281044
0.00278158
0.00507029
0.00475346
0.00462256
0.00449503
0.00437117
0.00425129
0.00413572
0.00402476
0.00391866
0.00381763
0.00372181
0.00363136
0.0035464
0.00346709
0.00339356
0.00332599
0.00326454
0.00320939
0.0031607
0.00311863
0.00308333
0.00305492
0.00531532
0.00500707
0.00487756
0.00475141
0.00462889
0.00451028
0.00439587
0.00428593
0.00418073
0.00408048
0.00398537
0.00389559
0.00381128
0.00373261
0.00365972
0.00359279
0.00353197
0.00347741
0.00342928
0.00338773
0.00335287
0.00332484
0.00555857
0.00525844
0.00513016
0.00500523
0.00488391
0.00476647
0.00465315
0.00454422
0.00443994
0.00434052
0.00424617
0.00415709
0.00407345
0.00399541
0.00392315
0.00385681
0.00379656
0.00374254
0.00369492
0.00365381
0.00361935
0.00359165
0.00580032
0.00550787
0.00538067
0.00525683
0.00513659
0.0050202
0.0049079
0.00479993
0.00469653
0.00459794
0.00450435
0.00441598
0.00433301
0.0042556
0.00418394
0.00411817
0.00405846
0.00400495
0.00395778
0.00391708
0.00388298
0.00385557
0.00604084
0.00575562
0.00562939
0.00550651
0.00538724
0.00527179
0.00516041
0.00505333
0.00495077
0.00485297
0.00476013
0.00467245
0.00459013
0.00451334
0.00444225
0.00437703
0.00431783
0.00426478
0.00421804
0.00417773
0.00628036
0.00600194
0.00587656
0.00575454
0.00563611
0.00552152
0.00541097
0.00530469
0.00520291
0.00510585
0.00501371
0.0049267
0.004845
0.0047688
0.00469827
0.00463356
0.00457484
0.00452224
0.0044759
0.00651908
0.00624707
0.00612242
0.00600115
0.00588348
0.00576963
0.00565983
0.00555428
0.00545321
0.00535683
0.00526534
0.00517895
0.00509784
0.00502219
0.00495218
0.00488796
0.00482968
0.00675721
0.00649122
0.00636721
0.00624658
0.00612957
0.00601638
0.00590723
0.00580233
0.00570189
0.00560613
0.00551524
0.00542941
0.00534885
0.00527371
0.00699493
0.00673459
0.00661112
0.00649104
0.00637459
0.00626197
0.0061534
0.00604907
0.0059492
0.00585398
0.00576363
0.00567832
0.00723241
0.00697738
0.00685435
0.00673474
0.00661877
0.00650663
0.00639855
0.00629471
0.00619533
0.0061006
0.00746984
0.00721977
0.00709711
0.00697787
0.00686229
0.00675056
0.00664289
0.00653947
0.00644051
0.00770736
0.00746195
0.00733956
0.00722062
0.00710535
0.00699394
0.00688661
0.00678354
0.00794514
0.00770409
0.00758189
0.00746316
0.00734812
0.00723697
0.0071299
0.00818333
0.00794636
0.00782427
0.00770568
0.00759079
0.00747981
0.00842208
0.00818891
0.00806686
0.00794833
0.00783353
0.00772265
0.00866153
0.0084319
0.00830982
0.00819127
0.00807649
0.00890183
0.0086755
0.00855331
0.00843468
0.0091431
0.00891984
0.00879747
0.0086787
0.0093855
0.00916509
0.00904247
0.00962915
0.00941137
0.00928845
0.00987419
0.00965885
0.00953555
0.0101208
0.00990765
0.00978392
0.010369
0.0101579
0.0100337
0.010619
0.0104098
0.010285
0.0108709
0.0106634
0.010538
0.0111249
0.010919
0.0107929
0.011381
0.0111765
0.0110497
0.0116395
0.0114362
0.0113086
0.0119005
0.0116982
0.0115697
0.012164
0.0119627
0.0118333
0.0124302
0.0122297
0.0120993
0.0126993
0.0124995
0.0123681
0.00197568
0.00257553
0.0029597
0.00325966
0.00353626
0.00380339
0.00406443
0.00432081
0.0045735
0.00482315
0.00507029
0.00531532
0.00555857
0.00580032
0.00604085
0.00628036
0.00651908
0.00675721
0.00699493
0.00723241
0.00746984
0.00770736
0.00794514
0.00818333
0.00842208
0.00866153
0.00890183
0.0091431
0.0093855
0.00962915
0.0098742
0.0101208
0.010369
0.010619
0.0108709
0.0111249
0.011381
0.0116395
0.0119005
0.012164
0.0124302
0.0126993
0.00186955
0.00225023
0.00255917
0.00286398
0.00315533
0.00343556
0.00370817
0.00397525
0.00423803
0.00449725
0.00475346
0.00500707
0.00525844
0.00550787
0.00575562
0.00600194
0.00624707
0.00649122
0.00673459
0.00697738
0.00721977
0.00746196
0.00770409
0.00794636
0.00818891
0.0084319
0.0086755
0.00891984
0.00916509
0.00941137
0.00965885
0.00990765
0.0101579
0.0104098
0.0106634
0.010919
0.0111765
0.0114362
0.0116982
0.0119627
0.0122297
0.0124995
0.00179408
0.0021551
0.00243203
0.0027205
0.00301022
0.00329333
0.0035691
0.00383881
0.00410374
0.00436478
0.00462256
0.00487756
0.00513016
0.00538068
0.00562939
0.00587656
0.00612242
0.00636721
0.00661112
0.00685435
0.00709711
0.00733956
0.00758189
0.00782427
0.00806686
0.00830982
0.00855331
0.00879747
0.00904247
0.00928845
0.00953555
0.00978392
0.0100337
0.010285
0.010538
0.0107929
0.0110497
0.0113086
0.0115697
0.0118333
0.0120993
0.0123681
0.00169724
0.00205018
0.00231665
0.00259123
0.00287421
0.00315657
0.00343402
0.00370591
0.00397286
0.00423568
0.00449503
0.00475141
0.00500523
0.00525683
0.00550651
0.00575454
0.00600115
0.00624658
0.00649104
0.00673474
0.00697787
0.00722062
0.00746316
0.00770568
0.00794833
0.00819128
0.00843468
0.0086787
0.00892349
0.00916918
0.00941594
0.0096639
0.00991321
0.010164
0.0104164
0.0106706
0.0109267
0.0111849
0.0114452
0.0117079
0.011973
0.0122408
0.00159056
0.00193622
0.00220317
0.00247088
0.00274726
0.00302671
0.00330412
0.00357728
0.00384588
0.00411033
0.00437117
0.00462889
0.00488392
0.0051366
0.00538724
0.00563612
0.00588348
0.00612957
0.00637459
0.00661877
0.00686229
0.00710535
0.00734812
0.00759079
0.00783353
0.00807649
0.00831984
0.00856374
0.00880834
0.00905379
0.00930023
0.00954782
0.0097967
0.010047
0.0102989
0.0105525
0.0108079
0.0110653
0.0113249
0.0115868
0.011851
0.0121178
0.00147949
0.00181707
0.00208856
0.00235509
0.00262741
0.00290373
0.00318004
0.00345359
0.00372331
0.0039891
0.00425129
0.00451028
0.00476647
0.0050202
0.00527179
0.00552152
0.00576963
0.00601638
0.00626198
0.00650664
0.00675056
0.00699394
0.00723697
0.00747982
0.00772266
0.00796565
0.00820898
0.00845278
0.00869722
0.00894245
0.00918862
0.00943587
0.00968435
0.0099342
0.0101856
0.0104386
0.0106934
0.0109502
0.011209
0.0114701
0.0117335
0.0119994
0.00136661
0.00169598
0.0019729
0.00224162
0.00251264
0.00278683
0.00306184
0.00333522
0.00360556
0.00387238
0.00413572
0.00439587
0.00465315
0.0049079
0.00516041
0.00541097
0.00565983
0.00590723
0.0061534
0.00639855
0.00664289
0.00688661
0.0071299
0.00737294
0.0076159
0.00785896
0.00810228
0.00834601
0.00859032
0.00883536
0.00908128
0.00932822
0.00957634
0.00982577
0.0100767
0.0103292
0.0105834
0.0108395
0.0110977
0.011358
0.0116207
0.0118858
0.00125336
0.00157515
0.00185727
0.00212985
0.0024017
0.00267509
0.00294919
0.00322225
0.0034929
0.00376046
0.00402476
0.00428593
0.00454423
0.00479993
0.00505333
0.00530469
0.00555428
0.00580233
0.00604907
0.00629472
0.00653947
0.00678354
0.00702711
0.00727035
0.00751346
0.00775659
0.00799992
0.00824361
0.00848781
0.00873269
0.00897839
0.00922506
0.00947285
0.0097219
0.00997236
0.0102244
0.0104781
0.0107336
0.0109911
0.0112508
0.0115127
0.011777
0.00114077
0.00145602
0.00174285
0.00201997
0.00229404
0.00256787
0.0028417
0.00311459
0.00338546
0.00365358
0.00391867
0.00418073
0.00443994
0.00469653
0.00495077
0.00520292
0.00545321
0.0057019
0.0059492
0.00619534
0.00644051
0.00668493
0.00692878
0.00717225
0.00741551
0.00765874
0.0079021
0.00814576
0.00838989
0.00863463
0.00888013
0.00912656
0.00937405
0.00962275
0.00987282
0.0101244
0.0103776
0.0106326
0.0108895
0.0111485
0.0114097
0.0116733
0.00102984
0.00133959
0.00163066
0.00191252
0.00218965
0.00246484
0.00273909
0.00301213
0.00328326
0.00355187
0.00381763
0.00408048
0.00434052
0.00459794
0.00485297
0.00510585
0.00535683
0.00560613
0.00585399
0.00610061
0.0063462
0.00659098
0.00683511
0.00707881
0.00732224
0.00756557
0.00780899
0.00805265
0.00829671
0.00854133
0.00878668
0.00903289
0.00928011
0.0095285
0.0097782
0.0100294
0.0102821
0.0105366
0.010793
0.0110514
0.011312
0.0115749
0.000921777
0.00122668
0.00152149
0.00180809
0.00208876
0.00236599
0.00264123
0.00291478
0.00318632
0.00345543
0.00372181
0.00398538
0.00424617
0.00450436
0.00476013
0.00501372
0.00526535
0.00551524
0.00576363
0.00601073
0.00625674
0.00650186
0.00674629
0.00699022
0.00723382
0.00747728
0.00772076
0.00796443
0.00820845
0.00845298
0.00869819
0.00894421
0.0091912
0.00943931
0.00968868
0.00993946
0.0101918
0.0104458
0.0107017
0.0109596
0.0112195
0.0114818
0.000818143
0.00111809
0.00141604
0.00170727
0.00199174
0.00227147
0.00254816
0.00282255
0.00309469
0.00336437
0.00363136
0.00389559
0.00415709
0.00441599
0.00467246
0.00492671
0.00517895
0.00542942
0.00567833
0.00592588
0.00617229
0.00641776
0.00666248
0.00690665
0.00715043
0.00739402
0.00763757
0.00788127
0.00812527
0.00836974
0.00861482
0.00886068
0.00910746
0.00935532
0.00960439
0.00985484
0.0101068
0.0103604
0.0106158
0.0108732
0.0111326
0.0113943
0.0116583
0.000720744
0.00101476
0.00131494
0.00161058
0.00189902
0.00218156
0.00246003
0.00273554
0.00300846
0.00327878
0.00354641
0.00381129
0.00407345
0.00433301
0.00459014
0.00484501
0.00509784
0.00534885
0.00559825
0.00584625
0.00609305
0.00633886
0.00658387
0.00682827
0.00707224
0.00731596
0.0075596
0.00780333
0.00804733
0.00829174
0.00853673
0.00878244
0.00902904
0.00927668
0.00952549
0.00977563
0.0100272
0.0102805
0.0105355
0.0107924
0.0110513
0.0113124
0.0115759
0.0118419
0.000631416
0.000917736
0.00121889
0.00151853
0.00181099
0.00209656
0.00237707
0.0026539
0.00292774
0.0031988
0.00346709
0.00373261
0.00399542
0.00425561
0.00451335
0.00476881
0.0050222
0.00527372
0.00552359
0.00577201
0.00601919
0.00626533
0.00651061
0.00675524
0.00699939
0.00724325
0.00748699
0.00773077
0.00797477
0.00821914
0.00846405
0.00870965
0.00895609
0.00920353
0.00945211
0.00970198
0.00995328
0.0102062
0.0104608
0.0107173
0.0109757
0.0112364
0.0114994
0.0117648
0.00055167
0.000828115
0.0011286
0.00143165
0.00172809
0.00201683
0.00229953
0.00257784
0.00285273
0.00312459
0.00339357
0.00365973
0.00392315
0.00418394
0.00444226
0.00469828
0.00495219
0.00520419
0.0054545
0.00570333
0.00595086
0.00619731
0.00644286
0.00668772
0.00693205
0.00717605
0.00741988
0.00766372
0.00790773
0.00815208
0.00839693
0.00864243
0.00888874
0.009136
0.00938437
0.009634
0.00988503
0.0101376
0.0103919
0.010648
0.0109061
0.0111663
0.0114288
0.0116937
0.0119611
0.000482426
0.000746899
0.00104487
0.0013505
0.00165073
0.0019427
0.00222771
0.0025076
0.0027836
0.00305631
0.00332599
0.00359279
0.00385681
0.00411818
0.00437704
0.00463357
0.00488797
0.00514043
0.00539115
0.00564035
0.00588822
0.00613496
0.00638078
0.00662584
0.00687035
0.00711448
0.00735841
0.00760231
0.00784635
0.00809069
0.00833549
0.0085809
0.00882709
0.00907421
0.0093224
0.00957182
0.0098226
0.0100749
0.0103289
0.0105846
0.0108424
0.0111022
0.0113642
0.0116287
0.0118957
0.000423863
0.000674824
0.000968455
0.00127566
0.00157936
0.00187453
0.0021619
0.00244343
0.00272057
0.00299415
0.00326455
0.00353197
0.00379656
0.00405846
0.00431783
0.00457485
0.00482969
0.00508257
0.00533368
0.00558323
0.00583141
0.00607843
0.00632448
0.00656975
0.00681443
0.00705869
0.00730271
0.00754668
0.00779074
0.00803508
0.00827984
0.00852519
0.00877128
0.00901827
0.00926631
0.00951553
0.00976611
0.0100182
0.0102719
0.0105273
0.0107847
0.0110442
0.0113059
0.0115699
0.0118365
0.0121057
0.000375464
0.000612262
0.000900015
0.00120772
0.00151445
0.0018127
0.00210242
0.00238557
0.00266387
0.0029383
0.00320939
0.00347742
0.00374255
0.00400495
0.00426479
0.00452225
0.00477751
0.00503076
0.00528223
0.00553209
0.00578056
0.00602784
0.00627411
0.00651956
0.00676439
0.00700878
0.0072529
0.00749692
0.00774102
0.00798536
0.00823009
0.00847539
0.0087214
0.00896828
0.00921618
0.00946525
0.00971564
0.00996749
0.0102209
0.0104762
0.0107333
0.0109924
0.0112538
0.0115175
0.0117837
0.0120525
0.0123241
0.000336479
0.000559215
0.000840031
0.00114723
0.00145646
0.00175757
0.00204954
0.00233428
0.00261369
0.00288895
0.0031607
0.00342929
0.00369492
0.00395779
0.00421805
0.00447591
0.00473153
0.00498514
0.00523692
0.00548707
0.0057358
0.0059833
0.00622977
0.00647539
0.00672037
0.00696487
0.00720907
0.00745316
0.00769729
0.00794163
0.00818635
0.0084316
0.00867755
0.00892434
0.00917213
0.00942106
0.00967129
0.00992296
0.0101762
0.0104312
0.0106881
0.010947
0.011208
0.0114714
0.0117373
0.0120057
0.012277
0.000305819
0.000515376
0.000788788
0.00109468
0.00140583
0.0017095
0.00200357
0.0022898
0.00257025
0.00284628
0.00311863
0.00338773
0.00365382
0.00391709
0.00417774
0.00443594
0.0046919
0.0049458
0.00519786
0.00544826
0.00569722
0.00594492
0.00619156
0.00643734
0.00668244
0.00692705
0.00717133
0.00741547
0.00765963
0.00790398
0.00814869
0.00839391
0.00863981
0.00888652
0.00913421
0.00938303
0.00963313
0.00988465
0.0101377
0.0103925
0.0106492
0.0109079
0.0111687
0.0114318
0.0116974
0.0119656
0.0122365
0.000282237
0.000480177
0.000746379
0.00105045
0.00136298
0.00166884
0.00196477
0.00225234
0.00253373
0.00281044
0.00308333
0.00335288
0.00361936
0.00388299
0.00414396
0.00440247
0.0046587
0.00491286
0.00516515
0.00541577
0.00566492
0.00591279
0.00615959
0.0064055
0.00665071
0.0068954
0.00713975
0.00738394
0.00762813
0.00787249
0.00811719
0.00836239
0.00860824
0.0088549
0.00910251
0.00935124
0.00960123
0.00985262
0.0101056
0.0103602
0.0106167
0.0108752
0.0111358
0.0113987
0.0116641
0.011932
0.0122027
0.000264542
0.000452927
0.000712735
0.00101483
0.00132827
0.0016359
0.0019334
0.00222211
0.0025043
0.00278159
0.00305493
0.00332485
0.00359166
0.00385558
0.00411682
0.00437557
0.00463203
0.0048864
0.00513889
0.00538968
0.00563898
0.005887
0.00613392
0.00637993
0.00662523
0.00686999
0.0071144
0.00735863
0.00760285
0.00784722
0.00809192
0.0083371
0.00858292
0.00882953
0.00907708
0.00932574
0.00957564
0.00982693
0.0100798
0.0103343
0.0105907
0.010849
0.0111095
0.0113722
0.0116374
0.0119051
0.0121755
0.0124489
0.000252017
0.000433058
0.000687705
0.000987998
0.00130198
0.00161095
0.00190968
0.00219929
0.00248209
0.00275983
0.00303353
0.00330374
0.0035708
0.00383494
0.00409639
0.00435533
0.00461197
0.0048665
0.00511912
0.00537005
0.00561947
0.00586759
0.00611461
0.0063607
0.00660607
0.00685089
0.00709534
0.0073396
0.00758384
0.00782822
0.00807292
0.00831808
0.00856388
0.00881046
0.00905797
0.00930657
0.00955641
0.00980763
0.0100604
0.0103148
0.0105711
0.0108293
0.0110897
0.0113523
0.0116173
0.0118849
0.0121552
0.0124283
0.000244064
0.000420112
0.000671131
0.000970061
0.00128434
0.00159419
0.00189376
0.00218399
0.00246723
0.00274528
0.00301922
0.00328962
0.00355685
0.00382115
0.00408273
0.0043418
0.00459855
0.00485319
0.00510592
0.00535694
0.00560644
0.00585463
0.00610171
0.00634786
0.00659327
0.00683813
0.00708261
0.00732689
0.00757114
0.00781554
0.00806023
0.00830539
0.00855117
0.00879772
0.00904521
0.00929377
0.00954357
0.00979474
0.0100474
0.0103018
0.010558
0.0108162
0.0110764
0.011339
0.0116039
0.0118714
0.0121416
0.0124146
0.0126907
0.00024021
0.000413737
0.000662882
0.000961079
0.00127549
0.00158578
0.00188577
0.00217631
0.00245977
0.00273799
0.00301204
0.00328255
0.00354986
0.00381424
0.0040759
0.00433503
0.00459184
0.00484653
0.00509931
0.00535037
0.00559991
0.00584814
0.00609525
0.00634143
0.00658686
0.00683174
0.00707624
0.00732053
0.00756479
0.00780919
0.00805388
0.00829903
0.0085448
0.00879135
0.00903882
0.00928737
0.00953714
0.00978829
0.010041
0.0102953
0.0105515
0.0108096
0.0110698
0.0113323
0.0115972
0.0118646
0.0121348
0.0124078
0.0126838
0.00024021
0.000413737
0.000662882
0.000961079
0.00127549
0.00158578
0.00188577
0.00217631
0.00245977
0.00273799
0.00301204
0.00328255
0.00354986
0.00381424
0.0040759
0.00433503
0.00459184
0.00484653
0.00509931
0.00535037
0.00559991
0.00584814
0.00609525
0.00634143
0.00658686
0.00683174
0.00707624
0.00732053
0.00756479
0.00780919
0.00805388
0.00829903
0.00854481
0.00879135
0.00903882
0.00928737
0.00953714
0.0097883
0.010041
0.0102953
0.0105515
0.0108096
0.0110698
0.0113323
0.0115972
0.0118646
0.0121348
0.0124078
0.0126838
0.0129629
0.000244064
0.000420112
0.000671131
0.000970061
0.00128434
0.00159419
0.00189376
0.00218399
0.00246723
0.00274528
0.00301921
0.00328962
0.00355685
0.00382115
0.00408273
0.0043418
0.00459855
0.00485319
0.00510592
0.00535694
0.00560644
0.00585463
0.00610171
0.00634786
0.00659327
0.00683813
0.00708261
0.00732689
0.00757114
0.00781554
0.00806023
0.00830539
0.00855117
0.00879772
0.00904521
0.00929377
0.00954357
0.00979474
0.0100474
0.0103018
0.010558
0.0108162
0.0110764
0.011339
0.0116039
0.0118714
0.0121416
0.0124146
0.0126907
0.0129699
0.000252016
0.000433058
0.000687705
0.000987998
0.00130198
0.00161095
0.00190967
0.00219928
0.00248209
0.00275983
0.00303353
0.00330374
0.00357079
0.00383494
0.00409639
0.00435533
0.00461196
0.0048665
0.00511912
0.00537005
0.00561947
0.0058676
0.00611461
0.0063607
0.00660607
0.00685089
0.00709534
0.0073396
0.00758384
0.00782822
0.00807292
0.00831809
0.00856388
0.00881046
0.00905797
0.00930657
0.00955641
0.00980763
0.0100604
0.0103148
0.0105711
0.0108293
0.0110897
0.0113523
0.0116173
0.0118849
0.0121552
0.0124283
0.0127045
0.0129838
0.000264542
0.000452927
0.000712735
0.00101483
0.00132827
0.0016359
0.0019334
0.00222211
0.0025043
0.00278158
0.00305493
0.00332485
0.00359165
0.00385558
0.00411682
0.00437557
0.00463203
0.0048864
0.00513889
0.00538968
0.00563898
0.005887
0.00613392
0.00637993
0.00662523
0.00686999
0.0071144
0.00735863
0.00760285
0.00784722
0.00809192
0.0083371
0.00858292
0.00882953
0.00907708
0.00932574
0.00957564
0.00982694
0.0100798
0.0103343
0.0105907
0.010849
0.0111095
0.0113722
0.0116374
0.0119051
0.0121755
0.0124489
0.0127252
0.0130047
0.000282237
0.000480176
0.000746379
0.00105045
0.00136298
0.00166884
0.00196477
0.00225234
0.00253373
0.00281044
0.00308333
0.00335288
0.00361936
0.00388299
0.00414396
0.00440247
0.0046587
0.00491286
0.00516515
0.00541577
0.00566492
0.00591279
0.00615959
0.0064055
0.00665071
0.0068954
0.00713975
0.00738394
0.00762813
0.0078725
0.0081172
0.00836239
0.00860824
0.0088549
0.00910251
0.00935124
0.00960123
0.00985262
0.0101056
0.0103602
0.0106167
0.0108752
0.0111358
0.0113987
0.0116641
0.011932
0.0122027
0.0124762
0.0127528
0.0130325
0.000305819
0.000515375
0.000788788
0.00109468
0.00140583
0.0017095
0.00200357
0.0022898
0.00257025
0.00284627
0.00311863
0.00338773
0.00365382
0.00391709
0.00417774
0.00443594
0.0046919
0.0049458
0.00519786
0.00544826
0.00569722
0.00594492
0.00619157
0.00643735
0.00668245
0.00692705
0.00717133
0.00741547
0.00765963
0.00790399
0.00814869
0.00839392
0.00863981
0.00888652
0.00913422
0.00938304
0.00963313
0.00988465
0.0101377
0.0103925
0.0106492
0.0109079
0.0111687
0.0114318
0.0116974
0.0119656
0.0122365
0.0125103
0.0127872
0.0130672
0.000336478
0.000559214
0.00084003
0.00114723
0.00145646
0.00175757
0.00204954
0.00233428
0.00261369
0.00288895
0.0031607
0.00342929
0.00369492
0.00395779
0.00421805
0.00447591
0.00473153
0.00498514
0.00523692
0.00548707
0.0057358
0.0059833
0.00622977
0.0064754
0.00672037
0.00696487
0.00720908
0.00745316
0.00769729
0.00794163
0.00818635
0.00843161
0.00867755
0.00892434
0.00917213
0.00942106
0.00967129
0.00992296
0.0101762
0.0104312
0.0106881
0.010947
0.011208
0.0114714
0.0117373
0.0120057
0.012277
0.0125511
0.0128283
0.0131088
0.000375463
0.000612261
0.000900014
0.00120772
0.00151445
0.0018127
0.00210241
0.00238557
0.00266386
0.0029383
0.00320939
0.00347742
0.00374255
0.00400495
0.00426479
0.00452225
0.00477751
0.00503076
0.00528223
0.00553209
0.00578056
0.00602784
0.00627411
0.00651957
0.0067644
0.00700878
0.0072529
0.00749693
0.00774102
0.00798536
0.0082301
0.00847539
0.00872141
0.00896829
0.00921619
0.00946526
0.00971564
0.00996749
0.010221
0.0104762
0.0107333
0.0109924
0.0112538
0.0115175
0.0117837
0.0120525
0.0123241
0.0125986
0.0128762
0.0131571
0.000423862
0.000674823
0.000968454
0.00127566
0.00157936
0.00187453
0.0021619
0.00244343
0.00272057
0.00299415
0.00326455
0.00353197
0.00379656
0.00405846
0.00431783
0.00457485
0.00482969
0.00508257
0.00533368
0.00558323
0.00583141
0.00607843
0.00632448
0.00656975
0.00681443
0.00705869
0.00730272
0.00754668
0.00779074
0.00803508
0.00827984
0.00852519
0.00877129
0.00901827
0.00926631
0.00951554
0.00976611
0.0100182
0.0102719
0.0105273
0.0107847
0.0110442
0.0113059
0.0115699
0.0118365
0.0121057
0.0123777
0.0126527
0.0129308
0.0132121
0.000482426
0.000746898
0.00104487
0.0013505
0.00165073
0.0019427
0.00222771
0.0025076
0.0027836
0.0030563
0.00332599
0.00359279
0.00385681
0.00411818
0.00437704
0.00463357
0.00488797
0.00514043
0.00539115
0.00564035
0.00588822
0.00613497
0.00638078
0.00662584
0.00687035
0.00711449
0.00735842
0.00760232
0.00784635
0.00809069
0.00833549
0.00858091
0.0088271
0.00907421
0.0093224
0.00957182
0.00982261
0.0100749
0.0103289
0.0105846
0.0108424
0.0111022
0.0113642
0.0116287
0.0118957
0.0121653
0.0124378
0.0127133
0.0129919
0.0132739
0.00055167
0.000828114
0.0011286
0.00143165
0.00172809
0.00201682
0.00229953
0.00257784
0.00285272
0.00312458
0.00339356
0.00365973
0.00392315
0.00418394
0.00444226
0.00469827
0.00495218
0.00520419
0.0054545
0.00570333
0.00595086
0.00619731
0.00644287
0.00668772
0.00693205
0.00717605
0.00741988
0.00766372
0.00790774
0.00815209
0.00839693
0.00864243
0.00888874
0.009136
0.00938438
0.009634
0.00988503
0.0101376
0.0103919
0.010648
0.0109061
0.0111663
0.0114288
0.0116937
0.0119611
0.0122313
0.0125043
0.0127804
0.0130596
0.0133422
0.000631415
0.000917734
0.00121888
0.00151853
0.00181099
0.00209656
0.00237706
0.0026539
0.00292774
0.0031988
0.00346709
0.00373261
0.00399542
0.00425561
0.00451335
0.00476881
0.0050222
0.00527372
0.00552359
0.00577201
0.00601919
0.00626533
0.00651061
0.00675524
0.0069994
0.00724325
0.00748699
0.00773077
0.00797477
0.00821915
0.00846406
0.00870965
0.0089561
0.00920353
0.00945211
0.00970198
0.00995329
0.0102062
0.0104608
0.0107173
0.0109758
0.0112364
0.0114994
0.0117648
0.0120328
0.0123035
0.0125771
0.0128538
0.0131337
0.0134169
0.000720743
0.00101476
0.00131494
0.00161058
0.00189902
0.00218156
0.00246003
0.00273554
0.00300845
0.00327878
0.00354641
0.00381128
0.00407345
0.00433301
0.00459013
0.00484501
0.00509784
0.00534886
0.00559825
0.00584625
0.00609306
0.00633886
0.00658387
0.00682827
0.00707224
0.00731596
0.0075596
0.00780334
0.00804733
0.00829174
0.00853673
0.00878245
0.00902905
0.00927668
0.0095255
0.00977564
0.0100272
0.0102805
0.0105355
0.0107924
0.0110513
0.0113124
0.0115759
0.0118419
0.0121105
0.0123818
0.0126561
0.0129335
0.0132141
0.0134981
0.000818142
0.00111809
0.00141604
0.00170727
0.00199174
0.00227147
0.00254816
0.00282255
0.00309469
0.00336436
0.00363136
0.00389559
0.00415709
0.00441599
0.00467246
0.00492671
0.00517895
0.00542942
0.00567833
0.00592588
0.00617229
0.00641776
0.00666249
0.00690665
0.00715043
0.00739402
0.00763758
0.00788127
0.00812528
0.00836974
0.00861482
0.00886068
0.00910746
0.00935532
0.0096044
0.00985484
0.0101068
0.0103604
0.0106158
0.0108732
0.0111326
0.0113943
0.0116583
0.0119249
0.0121941
0.0124662
0.0127412
0.0130193
0.0133007
0.0135856
0.000921776
0.00122668
0.00152149
0.00180809
0.00208876
0.00236599
0.00264123
0.00291478
0.00318632
0.00345543
0.00372181
0.00398537
0.00424617
0.00450436
0.00476013
0.00501372
0.00526535
0.00551524
0.00576363
0.00601073
0.00625674
0.00650186
0.00674629
0.00699022
0.00723382
0.00747728
0.00772076
0.00796443
0.00820845
0.00845299
0.00869819
0.00894421
0.0091912
0.00943931
0.00968868
0.00993947
0.0101918
0.0104458
0.0107017
0.0109596
0.0112196
0.0114818
0.0117465
0.0120137
0.0122836
0.0125564
0.0128322
0.0131112
0.0133934
0.0136792
0.00102983
0.00133959
0.00163065
0.00191252
0.00218965
0.00246484
0.00273908
0.00301213
0.00328326
0.00355186
0.00381763
0.00408048
0.00434052
0.00459794
0.00485297
0.00510585
0.00535683
0.00560613
0.00585399
0.00610061
0.00634621
0.00659098
0.00683512
0.00707881
0.00732224
0.00756558
0.00780899
0.00805265
0.00829671
0.00854134
0.00878668
0.00903289
0.00928012
0.00952851
0.00977821
0.0100294
0.0102821
0.0105366
0.010793
0.0110514
0.011312
0.0115749
0.0118402
0.0121082
0.0123788
0.0126524
0.0129291
0.0132089
0.0134921
0.0137788
0.00114077
0.00145602
0.00174285
0.00201997
0.00229404
0.00256786
0.0028417
0.00311459
0.00338545
0.00365358
0.00391866
0.00418073
0.00443994
0.00469653
0.00495077
0.00520292
0.00545321
0.0057019
0.0059492
0.00619534
0.00644052
0.00668493
0.00692878
0.00717225
0.00741551
0.00765874
0.0079021
0.00814577
0.00838989
0.00863463
0.00888014
0.00912656
0.00937405
0.00962276
0.00987282
0.0101244
0.0103776
0.0106326
0.0108895
0.0111485
0.0114097
0.0116733
0.0119394
0.0122081
0.0124796
0.0127541
0.0130316
0.0133124
0.0135966
0.0138843
0.00125336
0.00157514
0.00185727
0.00212984
0.0024017
0.00267509
0.00294919
0.00322225
0.0034929
0.00376046
0.00402476
0.00428593
0.00454423
0.00479993
0.00505333
0.00530469
0.00555428
0.00580233
0.00604907
0.00629472
0.00653948
0.00678354
0.00702711
0.00727036
0.00751346
0.0077566
0.00799993
0.00824361
0.00848782
0.00873269
0.00897839
0.00922506
0.00947285
0.0097219
0.00997237
0.0102244
0.0104781
0.0107336
0.0109912
0.0112508
0.0115127
0.011777
0.0120439
0.0123134
0.0125858
0.0128612
0.0131397
0.0134215
0.0137067
0.0139956
0.00136661
0.00169598
0.0019729
0.00224162
0.00251264
0.00278683
0.00306184
0.00333522
0.00360556
0.00387238
0.00413572
0.00439587
0.00465315
0.0049079
0.00516041
0.00541097
0.00565983
0.00590723
0.0061534
0.00639855
0.00664289
0.00688661
0.0071299
0.00737294
0.00761591
0.00785896
0.00810228
0.00834601
0.00859032
0.00883536
0.00908128
0.00932822
0.00957634
0.00982578
0.0100767
0.0103292
0.0105834
0.0108395
0.0110977
0.011358
0.0116207
0.0118858
0.0121535
0.0124239
0.0126972
0.0129736
0.0132531
0.013536
0.0138224
0.0141124
0.00147949
0.00181707
0.00208856
0.00235508
0.0026274
0.00290373
0.00318004
0.00345359
0.00372331
0.0039891
0.00425129
0.00451028
0.00476647
0.0050202
0.00527179
0.00552152
0.00576964
0.00601638
0.00626198
0.00650664
0.00675056
0.00699395
0.00723697
0.00747982
0.00772266
0.00796566
0.00820898
0.00845279
0.00869723
0.00894246
0.00918862
0.00943587
0.00968435
0.00993421
0.0101856
0.0104386
0.0106934
0.0109502
0.011209
0.0114701
0.0117335
0.0119994
0.012268
0.0125394
0.0128137
0.0130911
0.0133717
0.0136558
0.0139434
0.0142346
0.00159056
0.00193622
0.00220317
0.00247088
0.00274726
0.00302671
0.00330411
0.00357728
0.00384588
0.00411033
0.00437117
0.00462889
0.00488392
0.0051366
0.00538724
0.00563612
0.00588348
0.00612957
0.0063746
0.00661877
0.00686229
0.00710535
0.00734813
0.0075908
0.00783353
0.00807649
0.00831985
0.00856375
0.00880834
0.00905379
0.00930024
0.00954783
0.00979671
0.010047
0.0102989
0.0105525
0.0108079
0.0110654
0.0113249
0.0115868
0.011851
0.0121178
0.0123874
0.0126597
0.0129351
0.0132136
0.0134954
0.0137806
0.0140695
0.0143621
0.00169724
0.00205018
0.00231664
0.00259123
0.00287421
0.00315657
0.00343402
0.00370591
0.00397286
0.00423568
0.00449503
0.00475141
0.00500523
0.00525683
0.00550651
0.00575454
0.00600115
0.00624658
0.00649104
0.00673474
0.00697787
0.00722062
0.00746317
0.00770568
0.00794833
0.00819128
0.00843469
0.00867871
0.00892349
0.00916919
0.00941595
0.00966391
0.00991321
0.010164
0.0104164
0.0106706
0.0109267
0.0111849
0.0114452
0.0117079
0.011973
0.0122408
0.0125113
0.0127847
0.0130612
0.0133408
0.0136238
0.0139103
0.0142005
0.0144945
0.00179408
0.00215509
0.00243203
0.0027205
0.00301022
0.00329333
0.0035691
0.00383881
0.00410374
0.00436478
0.00462256
0.00487756
0.00513016
0.00538068
0.00562939
0.00587656
0.00612243
0.00636721
0.00661112
0.00685436
0.00709711
0.00733956
0.0075819
0.00782427
0.00806686
0.00830982