/*--------------------------------*- C++ -*----------------------------------*\
  =========                 |
  \\      /  F ield         | OpenFOAM: The Open Source CFD Toolbox
   \\    /   O peration     | Website:  https://openfoam.org
    \\  /    A nd           | Version:  7
     \\/     M anipulation  |
\*---------------------------------------------------------------------------*/
FoamFile
{
    version     2.0;
    format      ascii;
    class       volScalarField;
    location    "0";
    object      omega;
}
// * * * * * * * * * * * * * * * * * * * * * * * * * * * * * * * * * * * * * //

dimensions      [0 0 -1 0 0 0 0];

internalField   nonuniform List<scalar> 
1777
(
0.110037
0.108464
0.106995
0.105631
0.104373
0.103223
0.102184
0.101258
0.100445
0.0997466
0.113921
0.112286
0.110761
0.109345
0.10804
0.106848
0.105771
0.104811
0.103969
0.103246
0.117993
0.116293
0.11471
0.113239
0.111885
0.110647
0.10953
0.108535
0.107661
0.106911
0.122264
0.120499
0.118854
0.117327
0.11592
0.114635
0.113475
0.112441
0.111535
0.110757
0.12675
0.124916
0.123206
0.121619
0.120158
0.118823
0.117618
0.116545
0.115603
0.114795
0.131464
0.129557
0.127781
0.126132
0.124613
0.123226
0.121974
0.120858
0.11988
0.11904
0.136423
0.13444
0.132593
0.130879
0.1293
0.127858
0.126557
0.125397
0.12438
0.123508
0.141645
0.139582
0.13766
0.135877
0.134235
0.132736
0.131383
0.130177
0.12912
0.128212
0.147149
0.145001
0.143001
0.141146
0.139437
0.137877
0.136469
0.135215
0.134115
0.133171
0.152958
0.15072
0.148637
0.146705
0.144926
0.143302
0.141837
0.140531
0.139386
0.138403
0.159095
0.156762
0.154591
0.152578
0.150725
0.149033
0.147506
0.146146
0.144954
0.14393
0.165587
0.163152
0.160889
0.15879
0.156857
0.155094
0.153503
0.152085
0.150842
0.149775
0.172463
0.169921
0.167559
0.165369
0.163352
0.161513
0.159852
0.158373
0.157077
0.155964
0.179757
0.1771
0.174633
0.172345
0.17024
0.168319
0.166586
0.165041
0.163688
0.162526
0.187504
0.184725
0.182146
0.179755
0.177555
0.175547
0.173736
0.172122
0.170708
0.169493
0.195746
0.192836
0.190137
0.187636
0.185334
0.183235
0.18134
0.179652
0.178172
0.176903
0.204527
0.201478
0.198651
0.196032
0.193622
0.191423
0.189439
0.187672
0.186123
0.184794
0.213898
0.2107
0.207736
0.204991
0.202465
0.20016
0.198081
0.196229
0.194606
0.193212
0.223916
0.220558
0.217448
0.214567
0.211917
0.209499
0.207317
0.205374
0.203671
0.202209
0.234644
0.231115
0.227848
0.224822
0.222038
0.219498
0.217207
0.215165
0.213376
0.211841
0.246156
0.242442
0.239006
0.235825
0.232897
0.230226
0.227816
0.225669
0.223788
0.222174
0.258533
0.254621
0.251003
0.247653
0.24457
0.241759
0.239221
0.23696
0.234979
0.23328
0.271867
0.267741
0.263927
0.260396
0.257146
0.254182
0.251506
0.249123
0.247035
0.245242
0.286264
0.110037
0.113921
0.117993
0.122264
0.12675
0.131464
0.136423
0.141645
0.147149
0.152958
0.159095
0.165587
0.172463
0.179757
0.187504
0.195746
0.204527
0.213898
0.223916
0.234644
0.246156
0.258533
0.271867
0.286264
0.108464
0.112286
0.116293
0.120499
0.124916
0.129557
0.13444
0.139582
0.145001
0.15072
0.156762
0.163152
0.169921
0.1771
0.184725
0.192836
0.201478
0.2107
0.220558
0.231115
0.242442
0.254621
0.267741
0.281907
0.106995
0.110761
0.11471
0.118854
0.123206
0.127781
0.132593
0.13766
0.143001
0.148637
0.154591
0.160889
0.167559
0.174633
0.182146
0.190137
0.198651
0.207736
0.217447
0.227848
0.239006
0.251003
0.263927
0.277882
0.105631
0.109345
0.113239
0.117327
0.121619
0.126132
0.130879
0.135877
0.141146
0.146705
0.152578
0.15879
0.165369
0.172345
0.179755
0.187636
0.196032
0.204991
0.214567
0.224822
0.235824
0.247653
0.260396
0.274155
0.104373
0.10804
0.111884
0.115919
0.120158
0.124613
0.1293
0.134235
0.139437
0.144926
0.150725
0.156857
0.163352
0.17024
0.177554
0.185334
0.193622
0.202464
0.211916
0.222038
0.232897
0.24457
0.257146
0.270724
0.103223
0.106848
0.110647
0.114635
0.118823
0.123226
0.127858
0.132736
0.137877
0.143302
0.149033
0.155094
0.161513
0.168319
0.175547
0.183235
0.191423
0.20016
0.209499
0.219498
0.230226
0.241758
0.254182
0.267595
0.102184
0.105771
0.10953
0.113475
0.117618
0.121974
0.126557
0.131383
0.136469
0.141837
0.147506
0.153503
0.159852
0.166586
0.173736
0.18134
0.189439
0.198081
0.207317
0.217207
0.227816
0.239221
0.251506
0.26477
0.101258
0.104811
0.108535
0.112441
0.116544
0.120858
0.125397
0.130177
0.135215
0.140531
0.146146
0.152085
0.158373
0.165041
0.172122
0.179652
0.187672
0.196229
0.205374
0.215165
0.225669
0.23696
0.249123
0.262254
0.100445
0.103969
0.107661
0.111535
0.115603
0.11988
0.12438
0.129119
0.134115
0.139386
0.144954
0.150842
0.157077
0.163688
0.170707
0.178172
0.186123
0.194605
0.203671
0.213376
0.223788
0.234979
0.247035
0.260049
0.0997466
0.103246
0.106911
0.110757
0.114795
0.11904
0.123508
0.128212
0.133171
0.138403
0.14393
0.149775
0.155964
0.162526
0.169493
0.176903
0.184794
0.193212
0.202209
0.211841
0.222173
0.233279
0.245242
0.258157
0.0991637
0.102642
0.106286
0.110107
0.114121
0.11834
0.122779
0.127455
0.132383
0.137583
0.143076
0.148884
0.155035
0.161556
0.16848
0.175843
0.183684
0.19205
0.200989
0.21056
0.220826
0.231861
0.243747
0.256578
0.0986967
0.102158
0.105784
0.109587
0.113581
0.117779
0.122196
0.126848
0.131752
0.136926
0.142391
0.148171
0.154291
0.16078
0.167669
0.174994
0.182796
0.191118
0.200012
0.209534
0.219747
0.230725
0.242549
0.255314
0.098346
0.101795
0.105408
0.109197
0.113175
0.117357
0.121758
0.126393
0.131278
0.136433
0.141878
0.147636
0.153733
0.160197
0.16706
0.174357
0.182129
0.19042
0.199279
0.208764
0.218938
0.229873
0.241651
0.254366
0.0981121
0.101553
0.105157
0.108936
0.112905
0.117076
0.121466
0.126089
0.130962
0.136104
0.141535
0.147279
0.15336
0.159808
0.166654
0.173933
0.181685
0.189954
0.198791
0.208251
0.218398
0.229305
0.241052
0.253734
0.0979951
0.101432
0.105031
0.108806
0.112769
0.116936
0.12132
0.125937
0.130804
0.135939
0.141364
0.1471
0.153174
0.159614
0.16645
0.17372
0.181462
0.189721
0.198546
0.207994
0.218128
0.229021
0.240753
0.253418
0.097995
0.101431
0.105031
0.108806
0.112769
0.116936
0.12132
0.125937
0.130804
0.135939
0.141364
0.1471
0.153174
0.159614
0.16645
0.17372
0.181462
0.189721
0.198546
0.207994
0.218128
0.229021
0.240753
0.253418
0.0981121
0.101553
0.105157
0.108936
0.112905
0.117076
0.121466
0.126089
0.130962
0.136104
0.141535
0.147279
0.15336
0.159808
0.166654
0.173933
0.181685
0.189954
0.198791
0.208251
0.218398
0.229305
0.241052
0.253734
0.098346
0.101795
0.105408
0.109197
0.113175
0.117357
0.121758
0.126393
0.131278
0.136433
0.141878
0.147636
0.153733
0.160197
0.16706
0.174357
0.182129
0.19042
0.199279
0.208764
0.218938
0.229873
0.241651
0.254366
0.0986966
0.102158
0.105784
0.109587
0.113581
0.117779
0.122196
0.126848
0.131752
0.136926
0.142391
0.148171
0.154291
0.16078
0.167669
0.174994
0.182796
0.191118
0.200012
0.209534
0.219747
0.230725
0.242549
0.255315
0.0786621
0.0812349
0.0839145
0.0867075
0.089621
0.0926626
0.0958405
0.0991637
0.102642
0.106286
0.110107
0.114121
0.11834
0.122779
0.127455
0.132383
0.137583
0.143076
0.148884
0.155035
0.161556
0.16848
0.175843
0.183684
0.19205
0.200989
0.21056
0.220826
0.231861
0.243747
0.256578
0.0791247
0.0817123
0.0844074
0.0872167
0.0901473
0.0932068
0.0964036
0.0997466
0.103246
0.106911
0.110757
0.114795
0.11904
0.123508
0.128212
0.133171
0.138403
0.14393
0.149775
0.155964
0.162526
0.169493
0.176903
0.184794
0.193212
0.202209
0.211841
0.222173
0.233279
0.245242
0.258157
0.0796785
0.0822838
0.0849976
0.0878265
0.0907776
0.0938586
0.097078
0.100445
0.103969
0.107661
0.111535
0.115603
0.11988
0.12438
0.12912
0.134115
0.139386
0.144954
0.150842
0.157077
0.163688
0.170707
0.178172
0.186123
0.194605
0.203671
0.213376
0.223788
0.234979
0.247034
0.260049
0.0803227
0.0829488
0.0856843
0.088536
0.091511
0.0946172
0.097863
0.101258
0.104811
0.108535
0.112441
0.116544
0.120858
0.125397
0.130177
0.135215
0.140531
0.146146
0.152085
0.158373
0.165041
0.172122
0.179652
0.187672
0.196229
0.205374
0.215165
0.225669
0.23696
0.249123
0.262254
0.0810563
0.0837062
0.0864666
0.0893444
0.0923468
0.0954817
0.0987577
0.102184
0.105771
0.10953
0.113475
0.117618
0.121974
0.126557
0.131383
0.136469
0.141837
0.147506
0.153503
0.159852
0.166586
0.173736
0.18134
0.189439
0.198081
0.207317
0.217207
0.227816
0.239221
0.251506
0.26477
0.0818779
0.0845546
0.0873431
0.0902502
0.0932834
0.0964508
0.0997608
0.103223
0.106848
0.110647
0.114635
0.118823
0.123226
0.127858
0.132736
0.137877
0.143302
0.149033
0.155094
0.161513
0.168319
0.175547
0.183235
0.191423
0.20016
0.209499
0.219498
0.230226
0.241758
0.254182
0.267595
0.0827859
0.0854923
0.088312
0.0912518
0.0943193
0.0975226
0.100871
0.104373
0.10804
0.111885
0.115919
0.120158
0.124613
0.1293
0.134235
0.139437
0.144926
0.150725
0.156857
0.163352
0.17024
0.177555
0.185334
0.193622
0.202465
0.211917
0.222038
0.232897
0.24457
0.257146
0.270724
0.0837781
0.0865172
0.0893712
0.092347
0.0954522
0.0986952
0.102085
0.105631
0.109345
0.113239
0.117327
0.121619
0.126132
0.130879
0.135877
0.141146
0.146705
0.152578
0.15879
0.165369
0.172345
0.179755
0.187636
0.196032
0.204991
0.214567
0.224822
0.235825
0.247653
0.260396
0.274155
0.0848518
0.0876266
0.090518
0.0935331
0.0966795
0.0999658
0.103401
0.106995
0.110761
0.11471
0.118854
0.123206
0.127781
0.132593
0.13766
0.143001
0.148637
0.154591
0.160889
0.167559
0.174633
0.182146
0.190137
0.198651
0.207736
0.217448
0.227848
0.239006
0.251003
0.263927
0.277882
0.0860041
0.0888175
0.0917493
0.0948069
0.0979981
0.101331
0.104816
0.108464
0.112286
0.116293
0.120499
0.124916
0.129557
0.13444
0.139582
0.145001
0.15072
0.156762
0.163152
0.169921
0.1771
0.184725
0.192836
0.201478
0.2107
0.220558
0.231115
0.242442
0.254621
0.267741
0.281907
0.0872329
0.0900872
0.0930621
0.0961648
0.099404
0.102789
0.10633
0.110037
0.113921
0.117993
0.122264
0.12675
0.131464
0.136423
0.141645
0.147149
0.152958
0.159095
0.165587
0.172463
0.179757
0.187504
0.195746
0.204527
0.213898
0.223916
0.234644
0.246156
0.258533
0.271867
0.286264
0.0872329
0.0900873
0.0930621
0.0961648
0.099404
0.102789
0.10633
0.110037
0.113921
0.117993
0.122264
0.12675
0.131464
0.136423
0.141645
0.147149
0.152958
0.159095
0.165587
0.172463
0.179757
0.187504
0.195746
0.204527
0.213898
0.223916
0.234644
0.246156
0.258533
0.271867
0.286264
0.0860041
0.0888175
0.0917493
0.0948069
0.0979981
0.101331
0.104816
0.108464
0.112286
0.116293
0.120499
0.124916
0.129557
0.13444
0.139582
0.145001
0.15072
0.156762
0.163152
0.169921
0.1771
0.184725
0.192836
0.201478
0.2107
0.220558
0.231115
0.242442
0.254621
0.267741
0.281907
0.0848519
0.0876267
0.090518
0.0935331
0.0966795
0.0999658
0.103401
0.106995
0.110761
0.11471
0.118854
0.123206
0.127781
0.132593
0.13766
0.143001
0.148637
0.154591
0.160889
0.167559
0.174633
0.182146
0.190137
0.198651
0.207736
0.217447
0.227848
0.239006
0.251003
0.263927
0.277882
0.0837781
0.0865173
0.0893712
0.092347
0.0954523
0.0986952
0.102085
0.105631
0.109345
0.113239
0.117327
0.121619
0.126132
0.130879
0.135877
0.141146
0.146705
0.152578
0.15879
0.165369
0.172345
0.179755
0.187636
0.196032
0.204991
0.214567
0.224822
0.235824
0.247653
0.260396
0.274155
0.0827859
0.0854923
0.088312
0.0912518
0.0943193
0.0975226
0.100871
0.104373
0.10804
0.111885
0.115919
0.120158
0.124613
0.1293
0.134235
0.139437
0.144926
0.150725
0.156857
0.163352
0.17024
0.177554
0.185334
0.193622
0.202464
0.211916
0.222038
0.232897
0.24457
0.257146
0.270724
0.0818779
0.0845546
0.0873431
0.0902502
0.0932835
0.0964508
0.0997608
0.103223
0.106848
0.110647
0.114635
0.118823
0.123226
0.127858
0.132736
0.137877
0.143302
0.149033
0.155094
0.161513
0.168319
0.175547
0.183235
0.191423
0.20016
0.209499
0.219498
0.230226
0.241758
0.254182
0.267595
0.0810563
0.0837062
0.0864666
0.0893444
0.0923468
0.0954817
0.0987577
0.102184
0.105771
0.10953
0.113475
0.117618
0.121974
0.126557
0.131383
0.136469
0.141837
0.147506
0.153503
0.159852
0.166586
0.173736
0.18134
0.189439
0.198081
0.207317
0.217207
0.227816
0.239221
0.251506
0.26477
0.0803227
0.0829488
0.0856844
0.088536
0.091511
0.0946172
0.097863
0.101258
0.104811
0.108535
0.112441
0.116544
0.120858
0.125397
0.130177
0.135215
0.140531
0.146146
0.152085
0.158373
0.165041
0.172122
0.179652
0.187672
0.196229
0.205374
0.215165
0.225669
0.23696
0.249123
0.262254
0.0796785
0.0822838
0.0849976
0.0878265
0.0907776
0.0938586
0.097078
0.100445
0.103969
0.107661
0.111535
0.115603
0.11988
0.12438
0.12912
0.134115
0.139386
0.144954
0.150842
0.157077
0.163688
0.170707
0.178172
0.186123
0.194605
0.203671
0.213376
0.223788
0.234979
0.247035
0.260049
0.0791247
0.0817123
0.0844074
0.0872167
0.0901473
0.0932068
0.0964036
0.0997466
0.103246
0.106912
0.110757
0.114795
0.11904
0.123508
0.128212
0.133171
0.138403
0.14393
0.149775
0.155964
0.162526
0.169493
0.176903
0.184794
0.193212
0.202209
0.211841
0.222173
0.233279
0.245242
0.258157
0.0786621
0.0812349
0.0839145
0.0867075
0.089621
0.0926626
0.0958405
0.0991637
0.102642
0.106286
0.110107
0.114121
0.11834
0.122779
0.127455
0.132383
0.137583
0.143076
0.148884
0.155035
0.161556
0.16848
0.175843
0.183684
0.19205
0.200989
0.21056
0.220826
0.231861
0.243747
0.256578
0.0782914
0.0808522
0.0835194
0.0862994
0.0891993
0.0922265
0.0953893
0.0986967
0.102158
0.105784
0.109587
0.113581
0.117779
0.122196
0.126848
0.131752
0.136926
0.142391
0.148171
0.154291
0.16078
0.167669
0.174994
0.182796
0.191118
0.200012
0.209534
0.219747
0.230725
0.242549
0.255314
0.0780129
0.0805649
0.0832228
0.085993
0.0888826
0.0918991
0.0950506
0.098346
0.101795
0.105408
0.109197
0.113175
0.117357
0.121758
0.126393
0.131278
0.136433
0.141878
0.147636
0.153733
0.160197
0.16706
0.174357
0.182129
0.19042
0.199279
0.208764
0.218938
0.229873
0.241651
0.254366
0.0778271
0.0803731
0.0830248
0.0857886
0.0886713
0.0916806
0.0948246
0.0981121
0.101553
0.105157
0.108936
0.112905
0.117076
0.121466
0.126089
0.130962
0.136104
0.141535
0.147279
0.15336
0.159808
0.166654
0.173933
0.181685
0.189954
0.198791
0.208251
0.218398
0.229305
0.241052
0.253734
0.0777341
0.0802772
0.0829258
0.0856863
0.0885656
0.0915713
0.0947115
0.0979951
0.101432
0.105031
0.108806
0.112769
0.116936
0.12132
0.125937
0.130804
0.13594
0.141364
0.1471
0.153174
0.159614
0.166451
0.17372
0.181462
0.189721
0.198546
0.207994
0.218128
0.229021
0.240753
0.253418
0.0777341
0.0802772
0.0829258
0.0856862
0.0885656
0.0915713
0.0947115
0.0979951
0.101432
0.105031
0.108806
0.112769
0.116936
0.12132
0.125937
0.130804
0.135939
0.141364
0.1471
0.153174
0.159614
0.166451
0.17372
0.181462
0.189721
0.198546
0.207994
0.218128
0.229021
0.240753
0.253418
0.0778271
0.0803731
0.0830248
0.0857886
0.0886713
0.0916806
0.0948246
0.0981121
0.101553
0.105157
0.108936
0.112905
0.117076
0.121466
0.126089
0.130962
0.136104
0.141535
0.147279
0.15336
0.159808
0.166654
0.173933
0.181685
0.189954
0.198791
0.208251
0.218398
0.229305
0.241052
0.253734
0.0780129
0.0805649
0.0832228
0.085993
0.0888826
0.0918991
0.0950506
0.098346
0.101795
0.105408
0.109197
0.113175
0.117357
0.121758
0.126393
0.131278
0.136433
0.141878
0.147636
0.153733
0.160197
0.16706
0.174357
0.182129
0.19042
0.199279
0.208764
0.218938
0.229873
0.241651
0.254366
0.268125
0.0782914
0.0808522
0.0835194
0.0862995
0.0891993
0.0922265
0.0953893
0.0986967
0.102158
0.105784
0.109587
0.113581
0.117779
0.122196
0.126848
0.131752
0.136926
0.142391
0.148171
0.154291
0.16078
0.167669
0.174994
0.182796
0.191118
0.200012
0.209534
0.219747
0.230725
0.242549
0.255315
0.269128
0.0786621
0.0812349
0.0839145
0.0867075
0.089621
0.0926626
0.0958405
0.0991637
0.102642
0.106286
0.110107
0.114121
0.11834
0.122779
0.127455
0.132383
0.137583
0.143076
0.148884
0.155035
0.161556
0.16848
0.175843
0.183684
0.19205
0.200989
0.21056
0.220826
0.231861
0.243747
0.256579
0.270464
0.0791247
0.0817123
0.0844074
0.0872167
0.0901473
0.0932068
0.0964036
0.0997466
0.103246
0.106912
0.110757
0.114795
0.11904
0.123508
0.128212
0.133171
0.138403
0.14393
0.149775
0.155964
0.162526
0.169493
0.176903
0.184794
0.193212
0.202209
0.211841
0.222173
0.233279
0.245242
0.258157
0.272133
0.0796785
0.0822838
0.0849976
0.0878265
0.0907776
0.0938586
0.097078
0.100445
0.103969
0.107661
0.111535
0.115603
0.11988
0.12438
0.12912
0.134115
0.139386
0.144954
0.150842
0.157077
0.163688
0.170707
0.178172
0.186123
0.194605
0.203671
0.213376
0.223788
0.234979
0.247034
0.260049
0.274133
0.0803227
0.0829488
0.0856844
0.088536
0.091511
0.0946172
0.097863
0.101258
0.104811
0.108535
0.112441
0.116545
0.120858
0.125397
0.130177
0.135215
0.140531
0.146146
0.152085
0.158373
0.165041
0.172122
0.179652
0.187672
0.196229
0.205374
0.215165
0.225669
0.23696
0.249123
0.262254
0.276465
0.0810563
0.0837062
0.0864666
0.0893444
0.0923468
0.0954817
0.0987577
0.102184
0.105771
0.10953
0.113475
0.117618
0.121974
0.126557
0.131383
0.136469
0.141837
0.147506
0.153503
0.159852
0.166586
0.173736
0.18134
0.189439
0.198081
0.207317
0.217207
0.227816
0.239221
0.251506
)
;

boundaryField
{
    inlet
    {
        type            cyclic;
    }
    outlet
    {
        type            cyclic;
    }
    wall
    {
        type            fixedValue;
        value           nonuniform 0();
    }
    procBoundary1to0
    {
        type            processor;
        value           nonuniform List<scalar> 
59
(
0.281908
0.277882
0.274155
0.270724
0.267595
0.26477
0.262254
0.260049
0.258157
0.281908
0.301845
0.301845
0.297239
0.292985
0.289045
0.285419
0.282111
0.279125
0.276465
0.274133
0.272133
0.270464
0.269128
0.268125
0.267457
0.267123
0.267123
0.267457
0.268125
0.269128
0.270464
0.272133
0.274133
0.276465
0.279125
0.282111
0.285419
0.289045
0.292985
0.297239
0.301845
0.301845
0.297239
0.292985
0.289045
0.285419
0.282111
0.279125
0.276465
0.274133
0.272133
0.270464
0.269128
0.268125
0.267457
0.267123
0.267123
0.267457
0.267457
)
;
    }
    procBoundary1to2
    {
        type            processor;
        value           nonuniform List<scalar> 
39
(
0.283052
0.284113
0.285528
0.287295
0.289413
0.26477
0.291881
0.279125
0.0818779
0.0845546
0.0873431
0.0902502
0.0932834
0.0964508
0.0997608
0.103223
0.106848
0.110647
0.114635
0.118823
0.123226
0.127858
0.132736
0.137877
0.143302
0.149033
0.155094
0.161513
0.168319
0.175547
0.183235
0.191423
0.20016
0.209499
0.219498
0.230226
0.241759
0.26477
0.254182
)
;
    }
    procBoundary1to3
    {
        type            processor;
        value           nonuniform List<scalar> 
23
(
0.0991637
0.102642
0.106286
0.110107
0.114121
0.11834
0.122779
0.127455
0.132383
0.137583
0.143076
0.148884
0.155035
0.161556
0.16848
0.175843
0.183684
0.19205
0.200989
0.21056
0.220826
0.231861
0.243747
)
;
    }
    procBoundary1to4
    {
        type            processor;
        value           nonuniform List<scalar> 
61
(
0.10633
0.104816
0.103401
0.102085
0.100871
0.0997608
0.0987578
0.097863
0.097078
0.0964036
0.10633
0.104816
0.103401
0.102085
0.100871
0.0997608
0.0987577
0.097863
0.097078
0.0964036
0.0958405
0.0953893
0.0950506
0.0948246
0.0947115
0.0947115
0.0948246
0.0950506
0.0782914
0.0808522
0.0835194
0.0862994
0.0891993
0.0922265
0.0953893
0.0953893
0.0761902
0.0766386
0.0771754
0.0777997
0.0785106
0.0793067
0.0801863
0.0811473
0.082187
0.0833025
0.0844922
0.0844922
0.0833025
0.082187
0.0811473
0.0801863
0.0793067
0.0785106
0.0777998
0.0771754
0.0766386
0.0761902
0.0758308
0.0755608
0.0753806
)
;
    }
    procBoundary1to5
    {
        type            processor;
        value           nonuniform List<scalar> 10(0.0752905 0.0752905 0.0753806 0.0755608 0.0758308 0.0761902 0.0766386 0.0771754 0.0777997 0.0785106);
    }
}


// ************************************************************************* //
