/*--------------------------------*- C++ -*----------------------------------*\
  =========                 |
  \\      /  F ield         | OpenFOAM: The Open Source CFD Toolbox
   \\    /   O peration     | Website:  https://openfoam.org
    \\  /    A nd           | Version:  7
     \\/     M anipulation  |
\*---------------------------------------------------------------------------*/
FoamFile
{
    version     2.0;
    format      ascii;
    class       volScalarField;
    location    "164000";
    object      p;
}
// * * * * * * * * * * * * * * * * * * * * * * * * * * * * * * * * * * * * * //

dimensions      [0 2 -2 0 0 0 0];

internalField   nonuniform List<scalar> 
4844
(
-3.24408e-19
-1.50316e-18
-1.42119e-18
-1.16889e-18
-1.5432e-18
-1.42049e-18
-1.41502e-18
-1.41917e-18
-1.39551e-18
-1.39821e-18
-1.38921e-18
-1.40612e-18
-1.53623e-18
-1.42906e-18
-1.42255e-18
-1.41589e-18
-1.3904e-18
-1.40424e-18
-1.38914e-18
-1.37497e-18
-1.36165e-18
-1.36629e-18
-1.42206e-18
-1.48361e-18
-1.43332e-18
-1.42479e-18
-1.42538e-18
-1.39726e-18
-1.40447e-18
-1.3991e-18
-1.38635e-18
-1.38599e-18
-1.35966e-18
-1.3569e-18
-1.35338e-18
-1.33483e-18
-1.3633e-18
-1.35059e-18
-1.41268e-18
-1.46734e-18
-1.42483e-18
-1.42075e-18
-1.41641e-18
-1.38687e-18
-1.41638e-18
-1.38759e-18
-1.38409e-18
-1.38846e-18
-1.36417e-18
-1.36322e-18
-1.34752e-18
-1.35082e-18
-1.35812e-18
-1.35065e-18
-1.40657e-18
-1.44989e-18
-1.41889e-18
-1.42873e-18
-1.40346e-18
-1.38849e-18
-1.40164e-18
-1.38027e-18
-1.3859e-18
-1.37778e-18
-1.36589e-18
-1.36357e-18
-1.33995e-18
-1.36128e-18
-1.3537e-18
-1.33644e-18
-1.4544e-18
-1.42687e-18
-1.41699e-18
-1.40619e-18
-1.39111e-18
-1.396e-18
-1.37489e-18
-1.38918e-18
-1.36527e-18
-1.36458e-18
-1.36641e-18
-1.34176e-18
-1.3678e-18
-1.34744e-18
-1.34215e-18
-1.45238e-18
-1.42996e-18
-1.41478e-18
-1.4073e-18
-1.39814e-18
-1.39801e-18
-1.37245e-18
-1.38761e-18
-1.37373e-18
-1.37251e-18
-1.36566e-18
-1.36345e-18
-1.36455e-18
-1.33724e-18
-1.33952e-18
-1.44226e-18
-1.42063e-18
-1.40714e-18
-1.40642e-18
-1.39707e-18
-1.39823e-18
-1.37689e-18
-1.3917e-18
-1.36921e-18
-1.37154e-18
-1.36014e-18
-1.36364e-18
-1.3589e-18
-1.32674e-18
-1.34982e-18
-1.42084e-18
-1.43247e-18
-1.41058e-18
-1.40286e-18
-1.40422e-18
-1.39033e-18
-1.39895e-18
-1.38862e-18
-1.39044e-18
-1.37111e-18
-1.37426e-18
-1.35944e-18
-1.34179e-18
-1.34316e-18
-1.3362e-18
-1.34707e-18
-1.42263e-18
-1.43085e-18
-1.41253e-18
-1.39779e-18
-1.41259e-18
-1.39446e-18
-1.39082e-18
-1.39645e-18
-1.37114e-18
-1.37319e-18
-1.36971e-18
-1.35203e-18
-1.34251e-18
-1.33803e-18
-1.33498e-18
-1.33237e-18
-1.41204e-18
-1.42111e-18
-1.40757e-18
-1.39855e-18
-1.40672e-18
-1.39482e-18
-1.39925e-18
-1.38509e-18
-1.37131e-18
-1.36942e-18
-1.36665e-18
-1.35739e-18
-1.35353e-18
-1.33684e-18
-1.32922e-18
-1.33082e-18
-1.41111e-18
-1.41591e-18
-1.40024e-18
-1.40408e-18
-1.40274e-18
-1.39171e-18
-1.40918e-18
-1.38445e-18
-1.377e-18
-1.37646e-18
-1.37083e-18
-1.36219e-18
-1.34397e-18
-1.33891e-18
-1.32488e-18
-1.33109e-18
-1.41365e-18
-1.4096e-18
-1.40842e-18
-1.39137e-18
-1.40795e-18
-1.40165e-18
-1.38813e-18
-1.39954e-18
-1.37817e-18
-1.38231e-18
-1.38783e-18
-1.36031e-18
-1.36359e-18
-1.35025e-18
-1.34187e-18
-1.33154e-18
-1.33587e-18
-1.40881e-18
-1.40579e-18
-1.40047e-18
-1.40265e-18
-1.40542e-18
-1.40115e-18
-1.38854e-18
-1.40122e-18
-1.38229e-18
-1.37502e-18
-1.37916e-18
-1.37839e-18
-1.36224e-18
-1.35e-18
-1.34934e-18
-1.34502e-18
-1.3348e-18
-1.41002e-18
-1.40406e-18
-1.40434e-18
-1.4004e-18
-1.41163e-18
-1.39516e-18
-1.40153e-18
-1.39696e-18
-1.39527e-18
-1.38741e-18
-1.37676e-18
-1.36732e-18
-1.38331e-18
-1.35423e-18
-1.35512e-18
-1.34293e-18
-1.34439e-18
-1.33093e-18
-1.402e-18
-1.40298e-18
-1.40126e-18
-1.39317e-18
-1.41466e-18
-1.39307e-18
-1.3908e-18
-1.39077e-18
-1.37582e-18
-1.38295e-18
-1.38014e-18
-1.35749e-18
-1.36776e-18
-1.35443e-18
-1.36726e-18
-1.34524e-18
-1.3388e-18
-1.32416e-18
-1.41233e-18
-1.40013e-18
-1.39476e-18
-1.39166e-18
-1.40122e-18
-1.3895e-18
-1.39189e-18
-1.38384e-18
-1.3867e-18
-1.38542e-18
-1.38487e-18
-1.35684e-18
-1.36403e-18
-1.3412e-18
-1.36033e-18
-1.34221e-18
-1.3338e-18
-1.32514e-18
-1.40456e-18
-1.389e-18
-1.40003e-18
-1.39689e-18
-1.3876e-18
-1.39097e-18
-1.39377e-18
-1.39194e-18
-1.39771e-18
-1.38176e-18
-1.38176e-18
-1.35173e-18
-1.37026e-18
-1.34828e-18
-1.35216e-18
-1.33109e-18
-1.34475e-18
-1.33601e-18
-1.40086e-18
-1.38964e-18
-1.39675e-18
-1.40439e-18
-1.39822e-18
-1.39824e-18
-1.38829e-18
-1.39371e-18
-1.39271e-18
-1.38072e-18
-1.37319e-18
-1.35691e-18
-1.37357e-18
-1.35143e-18
-1.35323e-18
-1.33531e-18
-1.35343e-18
-1.33306e-18
-1.39907e-18
-1.3985e-18
-1.39722e-18
-1.38813e-18
-1.38746e-18
-1.38713e-18
-1.38376e-18
-1.3902e-18
-1.38661e-18
-1.37561e-18
-1.36926e-18
-1.36187e-18
-1.37564e-18
-1.35671e-18
-1.35175e-18
-1.33344e-18
-1.34745e-18
-1.3292e-18
-1.40415e-18
-1.39797e-18
-1.39997e-18
-1.38451e-18
-1.37872e-18
-1.38388e-18
-1.37312e-18
-1.3874e-18
-1.37731e-18
-1.37037e-18
-1.36929e-18
-1.36179e-18
-1.37782e-18
-1.34806e-18
-1.3493e-18
-1.33139e-18
-1.34346e-18
-1.3244e-18
-1.4073e-18
-1.39507e-18
-1.39835e-18
-1.39499e-18
-1.38223e-18
-1.38721e-18
-1.38486e-18
-1.38611e-18
-1.3771e-18
-1.37219e-18
-1.36796e-18
-1.36573e-18
-1.3699e-18
-1.34686e-18
-1.35361e-18
-1.33468e-18
-1.33219e-18
-1.32359e-18
-1.40003e-18
-1.39491e-18
-1.40266e-18
-1.39505e-18
-1.37916e-18
-1.38924e-18
-1.39434e-18
-1.37816e-18
-1.37856e-18
-1.37932e-18
-1.36828e-18
-1.36384e-18
-1.36905e-18
-1.34583e-18
-1.34512e-18
-1.33702e-18
-1.33921e-18
-1.32525e-18
-1.39818e-18
-1.3976e-18
-1.40247e-18
-1.39383e-18
-1.38888e-18
-1.39327e-18
-1.38178e-18
-1.38184e-18
-1.38183e-18
-1.37996e-18
-1.37695e-18
-1.35772e-18
-1.35217e-18
-1.33659e-18
-1.34075e-18
-1.32864e-18
-1.35753e-18
-1.31858e-18
-1.38725e-18
-1.39646e-18
-1.39602e-18
-1.38899e-18
-1.39447e-18
-1.38923e-18
-1.3758e-18
-1.38388e-18
-1.38508e-18
-1.37197e-18
-1.37935e-18
-1.34725e-18
-1.34665e-18
-1.34402e-18
-1.34414e-18
-1.32363e-18
-1.35325e-18
-1.32308e-18
-1.38779e-18
-1.39588e-18
-1.39346e-18
-1.38532e-18
-1.39366e-18
-1.38914e-18
-1.38435e-18
-1.3915e-18
-1.39245e-18
-1.38532e-18
-1.3786e-18
-1.35765e-18
-1.36036e-18
-1.36149e-18
-1.3501e-18
-1.33465e-18
-1.33488e-18
-1.31919e-18
-1.39609e-18
-1.39754e-18
-1.38953e-18
-1.38424e-18
-1.38674e-18
-1.38402e-18
-1.3837e-18
-1.38405e-18
-1.39172e-18
-1.38486e-18
-1.37523e-18
-1.36012e-18
-1.3605e-18
-1.3607e-18
-1.34266e-18
-1.33279e-18
-1.32913e-18
-1.31774e-18
-1.39377e-18
-1.39125e-18
-1.39059e-18
-1.3878e-18
-1.38017e-18
-1.39067e-18
-1.38968e-18
-1.37794e-18
-1.37677e-18
-1.38792e-18
-1.37217e-18
-1.35517e-18
-1.35555e-18
-1.33916e-18
-1.33833e-18
-1.31922e-18
-1.33548e-18
-1.31532e-18
-1.39626e-18
-1.39823e-18
-1.3868e-18
-1.39155e-18
-1.37943e-18
-1.38298e-18
-1.39612e-18
-1.39276e-18
-1.38111e-18
-1.37254e-18
-1.37416e-18
-1.34956e-18
-1.36443e-18
-1.33512e-18
-1.33496e-18
-1.31916e-18
-1.3451e-18
-1.32099e-18
-1.39998e-18
-1.38849e-18
-1.40088e-18
-1.397e-18
-1.39767e-18
-1.38442e-18
-1.37336e-18
-1.39682e-18
-1.38339e-18
-1.38515e-18
-1.36666e-18
-1.38224e-18
-1.35362e-18
-1.36705e-18
-1.33466e-18
-1.34192e-18
-1.31084e-18
-1.33118e-18
-1.32085e-18
-1.39263e-18
-1.38782e-18
-1.39943e-18
-1.39398e-18
-1.39309e-18
-1.39405e-18
-1.37356e-18
-1.3959e-18
-1.37188e-18
-1.38052e-18
-1.37221e-18
-1.38101e-18
-1.35737e-18
-1.3572e-18
-1.33425e-18
-1.34245e-18
-1.31609e-18
-1.31864e-18
-1.30982e-18
-1.38041e-18
-1.39152e-18
-1.39282e-18
-1.39715e-18
-1.38764e-18
-1.39014e-18
-1.39502e-18
-1.38297e-18
-1.39058e-18
-1.37494e-18
-1.37829e-18
-1.36914e-18
-1.38269e-18
-1.35069e-18
-1.36092e-18
-1.32952e-18
-1.33968e-18
-1.30916e-18
-1.32056e-18
-1.29833e-18
-1.38944e-18
-1.38458e-18
-1.3898e-18
-1.39078e-18
-1.38403e-18
-1.39027e-18
-1.38734e-18
-1.37743e-18
-1.39098e-18
-1.37719e-18
-1.37656e-18
-1.36833e-18
-1.37685e-18
-1.34867e-18
-1.36009e-18
-1.33558e-18
-1.34299e-18
-1.29473e-18
-1.33454e-18
-1.30318e-18
-1.39787e-18
-1.3835e-18
-1.39009e-18
-1.38792e-18
-1.38615e-18
-1.39075e-18
-1.38772e-18
-1.37263e-18
-1.39555e-18
-1.37277e-18
-1.38436e-18
-1.36988e-18
-1.37093e-18
-1.34221e-18
-1.36074e-18
-1.34347e-18
-1.34823e-18
-1.3107e-18
-1.34034e-18
-1.30429e-18
-1.38793e-18
-1.38924e-18
-1.38005e-18
-1.38358e-18
-1.38039e-18
-1.38393e-18
-1.38399e-18
-1.35889e-18
-1.39123e-18
-1.37169e-18
-1.38551e-18
-1.3693e-18
-1.37373e-18
-1.3522e-18
-1.36411e-18
-1.32504e-18
-1.34768e-18
-1.32546e-18
-1.31834e-18
-1.30079e-18
-1.3881e-18
-1.3923e-18
-1.38169e-18
-1.39008e-18
-1.37744e-18
-1.37584e-18
-1.38573e-18
-1.35671e-18
-1.39787e-18
-1.3724e-18
-1.38624e-18
-1.36652e-18
-1.37448e-18
-1.34903e-18
-1.36322e-18
-1.33276e-18
-1.3414e-18
-1.31593e-18
-1.32189e-18
-1.29929e-18
-1.38765e-18
-1.39736e-18
-1.37966e-18
-1.38244e-18
-1.37561e-18
-1.37487e-18
-1.38888e-18
-1.37273e-18
-1.39201e-18
-1.37026e-18
-1.37787e-18
-1.37021e-18
-1.37922e-18
-1.33724e-18
-1.35959e-18
-1.33752e-18
-1.31868e-18
-1.2941e-18
-1.31785e-18
-1.30524e-18
-1.3893e-18
-1.39162e-18
-1.38572e-18
-1.38839e-18
-1.37653e-18
-1.37925e-18
-1.39161e-18
-1.38149e-18
-1.39194e-18
-1.37298e-18
-1.38608e-18
-1.37911e-18
-1.38118e-18
-1.34511e-18
-1.36317e-18
-1.3249e-18
-1.33935e-18
-1.2939e-18
-1.30929e-18
-1.27828e-18
-1.38601e-18
-1.39203e-18
-1.39287e-18
-1.38465e-18
-1.36545e-18
-1.37896e-18
-1.385e-18
-1.37225e-18
-1.38567e-18
-1.36467e-18
-1.38912e-18
-1.36619e-18
-1.3716e-18
-1.35545e-18
-1.35418e-18
-1.33359e-18
-1.3405e-18
-1.31002e-18
-1.30206e-18
-1.29168e-18
-1.38774e-18
-1.38549e-18
-1.38031e-18
-1.37849e-18
-1.37336e-18
-1.37608e-18
-1.38331e-18
-1.36797e-18
-1.37637e-18
-1.37203e-18
-1.38511e-18
-1.36379e-18
-1.3727e-18
-1.34984e-18
-1.36545e-18
-1.33015e-18
-1.32889e-18
-1.3087e-18
-1.31442e-18
-1.29705e-18
-1.38197e-18
-1.39317e-18
-1.37905e-18
-1.37955e-18
-1.37533e-18
-1.37868e-18
-1.38376e-18
-1.37419e-18
-1.38851e-18
-1.37737e-18
-1.38355e-18
-1.36613e-18
-1.38021e-18
-1.34179e-18
-1.35599e-18
-1.32162e-18
-1.33031e-18
-1.29307e-18
-1.30557e-18
-1.30844e-18
-1.37677e-18
-1.39184e-18
-1.37459e-18
-1.37245e-18
-1.37154e-18
-1.3881e-18
-1.3805e-18
-1.37692e-18
-1.38888e-18
-1.38212e-18
-1.38267e-18
-1.36345e-18
-1.37819e-18
-1.35141e-18
-1.35475e-18
-1.32157e-18
-1.33026e-18
-1.29653e-18
-1.30116e-18
-1.29081e-18
-1.38016e-18
-1.38738e-18
-1.37794e-18
-1.36543e-18
-1.37414e-18
-1.38177e-18
-1.38262e-18
-1.38324e-18
-1.38435e-18
-1.37579e-18
-1.37967e-18
-1.37069e-18
-1.38542e-18
-1.34798e-18
-1.35583e-18
-1.3271e-18
-1.32867e-18
-1.30027e-18
-1.30105e-18
-1.28623e-18
-1.38141e-18
-1.38751e-18
-1.38e-18
-1.36868e-18
-1.3754e-18
-1.37706e-18
-1.38342e-18
-1.38143e-18
-1.38147e-18
-1.37721e-18
-1.37308e-18
-1.36527e-18
-1.37934e-18
-1.35538e-18
-1.36975e-18
-1.33043e-18
-1.33444e-18
-1.30585e-18
-1.29607e-18
-1.29265e-18
-1.3793e-18
-1.38802e-18
-1.38214e-18
-1.36343e-18
-1.37677e-18
-1.36832e-18
-1.38047e-18
-1.37696e-18
-1.37877e-18
-1.37205e-18
-1.37587e-18
-1.36592e-18
-1.37696e-18
-1.35655e-18
-1.36655e-18
-1.33133e-18
-1.33054e-18
-1.30056e-18
-1.30266e-18
-1.28465e-18
-1.37782e-18
-1.38892e-18
-1.38066e-18
-1.37053e-18
-1.37477e-18
-1.37616e-18
-1.37798e-18
-1.38545e-18
-1.38021e-18
-1.37191e-18
-1.38158e-18
-1.36989e-18
-1.36893e-18
-1.35567e-18
-1.35416e-18
-1.31991e-18
-1.33636e-18
-1.30735e-18
-1.29304e-18
-1.28493e-18
-1.3795e-18
-1.38771e-18
-1.38314e-18
-1.37201e-18
-1.37288e-18
-1.38002e-18
-1.37668e-18
-1.38645e-18
-1.37915e-18
-1.37394e-18
-1.39157e-18
-1.36586e-18
-1.37019e-18
-1.35201e-18
-1.36803e-18
-1.32268e-18
-1.33436e-18
-1.30743e-18
-1.30608e-18
-1.29843e-18
-1.37924e-18
-1.38302e-18
-1.38193e-18
-1.36427e-18
-1.37852e-18
-1.38154e-18
-1.37509e-18
-1.38279e-18
-1.37934e-18
-1.37795e-18
-1.38979e-18
-1.35492e-18
-1.38202e-18
-1.34509e-18
-1.35312e-18
-1.3279e-18
-1.33564e-18
-1.29707e-18
-1.30552e-18
-1.28466e-18
-1.37718e-18
-1.37724e-18
-1.37736e-18
-1.37224e-18
-1.37682e-18
-1.38202e-18
-1.37695e-18
-1.38319e-18
-1.3745e-18
-1.3679e-18
-1.38287e-18
-1.36016e-18
-1.38024e-18
-1.3496e-18
-1.35514e-18
-1.31148e-18
-1.34036e-18
-1.30421e-18
-1.30065e-18
-1.28149e-18
-1.38088e-18
-1.38274e-18
-1.36926e-18
-1.37494e-18
-1.37017e-18
-1.37903e-18
-1.37732e-18
-1.37775e-18
-1.37214e-18
-1.37351e-18
-1.37685e-18
-1.3522e-18
-1.38204e-18
-1.35697e-18
-1.36297e-18
-1.31803e-18
-1.33305e-18
-1.29852e-18
-1.30457e-18
-1.28013e-18
-1.37671e-18
-1.38606e-18
-1.37434e-18
-1.37538e-18
-1.36698e-18
-1.37143e-18
-1.37765e-18
-1.37861e-18
-1.36969e-18
-1.37173e-18
-1.38482e-18
-1.36254e-18
-1.37531e-18
-1.35402e-18
-1.36577e-18
-1.33883e-18
-1.33865e-18
-1.29695e-18
-1.3197e-18
-1.27216e-18
-1.37927e-18
-1.3898e-18
-1.37303e-18
-1.37723e-18
-1.37926e-18
-1.36993e-18
-1.3781e-18
-1.37007e-18
-1.36945e-18
-1.365e-18
-1.38505e-18
-1.3613e-18
-1.37526e-18
-1.34457e-18
-1.37054e-18
-1.34111e-18
-1.32842e-18
-1.30127e-18
-1.31248e-18
-1.27227e-18
-1.38003e-18
-1.3845e-18
-1.3749e-18
-1.36958e-18
-1.3797e-18
-1.3681e-18
-1.37531e-18
-1.37098e-18
-1.37167e-18
-1.36495e-18
-1.37555e-18
-1.36408e-18
-1.37841e-18
-1.35407e-18
-1.36929e-18
-1.34184e-18
-1.32673e-18
-1.30254e-18
-1.31437e-18
-1.27924e-18
-1.37448e-18
-1.39016e-18
-1.37314e-18
-1.36996e-18
-1.3888e-18
-1.37649e-18
-1.37865e-18
-1.37297e-18
-1.374e-18
-1.37272e-18
-1.3724e-18
-1.35938e-18
-1.36489e-18
-1.34427e-18
-1.36996e-18
-1.33546e-18
-1.32981e-18
-1.30204e-18
-1.31821e-18
-1.28001e-18
-1.38679e-18
-1.3764e-18
-1.38556e-18
-1.37252e-18
-1.37981e-18
-1.36544e-18
-1.37756e-18
-1.36585e-18
-1.36684e-18
-1.34061e-18
-1.35691e-18
-1.32754e-18
-1.31744e-18
-1.30081e-18
-1.31394e-18
-1.28598e-18
-1.37684e-18
-1.35892e-18
-1.37065e-18
-1.36751e-18
-1.36812e-18
-1.3553e-18
-1.34252e-18
-1.31833e-18
-1.3243e-18
-1.30023e-18
-1.31261e-18
-1.27956e-18
-1.29238e-18
-1.29449e-18
-1.27726e-18
-1.29806e-18
-1.28265e-18
-1.29384e-18
-1.28732e-18
-1.30604e-18
-1.28224e-18
-1.28941e-18
-1.31133e-18
-1.28796e-18
-1.28543e-18
-1.30143e-18
-1.27759e-18
-1.29708e-18
-1.28641e-18
-1.29488e-18
-1.29472e-18
-1.30935e-18
-1.29275e-18
-1.2911e-18
-1.28724e-18
-1.30783e-18
-1.29391e-18
-1.2857e-18
-1.2881e-18
-1.30117e-18
-1.29842e-18
-1.2886e-18
-1.29546e-18
-1.2885e-18
-1.29003e-18
-1.29479e-18
-1.27908e-18
-1.29014e-18
-1.28642e-18
-1.30048e-18
-1.29906e-18
-1.2724e-18
-1.27412e-18
-1.2884e-18
-1.3079e-18
-1.30294e-18
-1.26799e-18
-1.28022e-18
-1.28215e-18
-1.31118e-18
-1.29264e-18
-1.2602e-18
-1.30735e-18
-1.28424e-18
-1.29698e-18
-1.28981e-18
-1.26289e-18
-1.30328e-18
-1.28458e-18
-1.29711e-18
-1.30044e-18
-1.31351e-18
-1.26958e-18
-1.30824e-18
-1.28482e-18
-1.30146e-18
-1.29049e-18
-1.30744e-18
-1.25824e-18
-1.30412e-18
-1.2792e-18
-1.30025e-18
-1.28812e-18
-1.30769e-18
-1.28092e-18
-1.27573e-18
-1.28987e-18
-1.28681e-18
-1.30087e-18
-1.29458e-18
-1.30693e-18
-1.29707e-18
-1.30082e-18
-1.26939e-18
-1.29757e-18
-1.28295e-18
-1.30242e-18
-1.30525e-18
-1.29687e-18
-1.30877e-18
-1.29331e-18
-1.28681e-18
-1.26911e-18
-1.29709e-18
-1.2759e-18
-1.29451e-18
-1.28558e-18
-1.29607e-18
-1.30464e-18
-1.28388e-18
-1.27587e-18
-1.28601e-18
-1.26993e-18
-1.28896e-18
-1.27541e-18
-1.29998e-18
-1.27704e-18
-1.2936e-18
-1.29522e-18
-1.29583e-18
-1.28959e-18
-1.29309e-18
-1.26739e-18
-1.29553e-18
-1.2896e-18
-1.30758e-18
-1.29833e-18
-1.30529e-18
-1.3009e-18
-1.30111e-18
-1.29764e-18
-1.3012e-18
-1.27228e-18
-1.28395e-18
-1.28299e-18
-1.29662e-18
-1.29396e-18
-1.30592e-18
-1.3047e-18
-1.29826e-18
-1.30026e-18
-1.3053e-18
-1.27604e-18
-1.28604e-18
-1.28555e-18
-1.29129e-18
-1.29705e-18
-1.29093e-18
-1.30695e-18
-1.30316e-18
-1.30271e-18
-1.29904e-18
-1.28222e-18
-1.28871e-18
-1.2768e-18
-1.29542e-18
-1.29907e-18
-1.29115e-18
-1.30193e-18
-1.30145e-18
-1.29731e-18
-1.29977e-18
-1.28213e-18
-1.28586e-18
-1.29188e-18
-1.2939e-18
-1.29211e-18
-1.29682e-18
-1.31161e-18
-1.29838e-18
-1.29956e-18
-1.29803e-18
-1.29144e-18
-1.26902e-18
-1.30681e-18
-1.28971e-18
-1.29104e-18
-1.30193e-18
-1.30685e-18
-1.29943e-18
-1.29874e-18
-1.30313e-18
-1.28282e-18
-1.2699e-18
-1.29168e-18
-1.28648e-18
-1.28197e-18
-1.29803e-18
-1.3026e-18
-1.30171e-18
-1.29317e-18
-1.2968e-18
-1.27501e-18
-1.28303e-18
-1.28078e-18
-1.29209e-18
-1.29028e-18
-1.29612e-18
-1.29558e-18
-1.29519e-18
-1.29173e-18
-1.29744e-18
-1.27558e-18
-1.27726e-18
-1.28136e-18
-1.29202e-18
-1.29826e-18
-1.29457e-18
-1.29161e-18
-1.29774e-18
-1.28696e-18
-1.30205e-18
-1.26862e-18
-1.27717e-18
-1.29037e-18
-1.29504e-18
-1.29339e-18
-1.28866e-18
-1.29319e-18
-1.29642e-18
-1.29307e-18
-1.30504e-18
-1.29051e-18
-1.27551e-18
-1.29669e-18
-1.28682e-18
-1.30161e-18
-1.28397e-18
-1.2933e-18
-1.29965e-18
-1.28993e-18
-1.29616e-18
-1.28765e-18
-1.30241e-18
-1.29469e-18
-1.2893e-18
-1.28868e-18
-1.29005e-18
-1.28847e-18
-1.28139e-18
-1.28134e-18
-1.28767e-18
-1.2922e-18
-1.29948e-18
-1.30397e-18
-1.30993e-18
-1.30525e-18
-1.29623e-18
-1.30127e-18
-1.2823e-18
-1.29191e-18
-1.29005e-18
-1.28859e-18
-1.29387e-18
-1.28533e-18
-1.27949e-18
-1.27423e-18
-1.27515e-18
-1.26662e-18
-1.27603e-18
-1.28312e-18
-1.28621e-18
-1.29394e-18
-1.27431e-18
-1.28203e-18
-1.27692e-18
-1.28842e-18
-1.27166e-18
-1.26393e-18
-1.27446e-18
-1.28099e-18
-1.2844e-18
-1.28929e-18
-1.2809e-18
-1.28331e-18
-1.30409e-18
-1.29179e-18
-1.26398e-18
-1.26942e-18
-1.26444e-18
-1.26535e-18
-1.27668e-18
-1.26791e-18
-1.26733e-18
-1.26779e-18
-1.2615e-18
-1.2745e-18
-1.27364e-18
-1.27062e-18
-1.27296e-18
-1.28889e-18
-1.28968e-18
-1.27637e-18
-1.28307e-18
-1.28368e-18
-1.28398e-18
-1.28165e-18
-1.29066e-18
-1.28908e-18
-1.2921e-18
-1.29705e-18
-1.29705e-18
-1.30566e-18
-1.28622e-18
-1.29169e-18
-1.28876e-18
-1.29195e-18
-1.29167e-18
-1.28944e-18
-1.29521e-18
-1.28705e-18
-1.28375e-18
-1.28504e-18
-1.29316e-18
-1.2876e-18
-1.2884e-18
-1.29235e-18
-1.29115e-18
-1.27503e-18
-1.2808e-18
-1.27865e-18
-1.28906e-18
-1.27848e-18
-1.26346e-18
-1.27856e-18
-1.29086e-18
-1.29015e-18
-1.28237e-18
-1.28152e-18
-1.29558e-18
-1.28901e-18
-1.27984e-18
-1.28135e-18
-1.28414e-18
-1.2999e-18
-1.27076e-18
-1.27966e-18
-1.27563e-18
-1.27552e-18
-1.28337e-18
-1.27711e-18
-1.27212e-18
-1.27543e-18
-1.28278e-18
-1.29507e-18
-1.282e-18
-1.27402e-18
-1.27036e-18
-1.28614e-18
-1.28445e-18
-1.27933e-18
-1.28239e-18
-1.27908e-18
-1.27693e-18
-1.28297e-18
-1.27953e-18
-1.2781e-18
-1.28352e-18
-1.28588e-18
-1.28248e-18
-1.28513e-18
-1.29069e-18
-1.29558e-18
-1.29204e-18
-1.29314e-18
-1.2902e-18
-1.29614e-18
-1.29862e-18
-1.28502e-18
-1.28413e-18
-1.28096e-18
-1.28439e-18
-1.29445e-18
-1.29271e-18
-1.28549e-18
-1.28842e-18
-1.28618e-18
-1.28473e-18
-1.28187e-18
-1.28013e-18
-1.28339e-18
-1.28729e-18
-1.29289e-18
-1.28694e-18
-1.28102e-18
-1.29039e-18
-1.29416e-18
-1.28325e-18
-1.28902e-18
-1.29205e-18
-1.28554e-18
-1.2728e-18
-1.29013e-18
-1.29618e-18
-1.27531e-18
-1.28095e-18
-1.28023e-18
-1.28053e-18
-1.28845e-18
-1.29051e-18
-1.29913e-18
-1.29184e-18
-1.28487e-18
-1.28783e-18
-1.28485e-18
-1.28145e-18
-1.27334e-18
-1.26989e-18
-1.28333e-18
-1.28323e-18
-1.28302e-18
-1.28294e-18
-1.2825e-18
-1.28426e-18
-1.28762e-18
-1.29972e-18
-1.29947e-18
-1.28049e-18
-1.28549e-18
-1.27285e-18
-1.28288e-18
-1.28816e-18
-1.28725e-18
-1.28333e-18
-1.27349e-18
-1.27667e-18
-1.28092e-18
-1.28241e-18
-1.27927e-18
-1.28629e-18
-1.28276e-18
-1.28429e-18
-1.27335e-18
-1.27355e-18
-1.28623e-18
-1.28357e-18
-1.2829e-18
-1.27803e-18
-1.28209e-18
-1.28396e-18
-1.28536e-18
-1.28952e-18
-1.29086e-18
-1.28117e-18
-1.29255e-18
-1.28408e-18
-1.28463e-18
-1.28681e-18
-1.28916e-18
-1.2941e-18
-1.29247e-18
-1.28016e-18
-1.28453e-18
-1.28752e-18
-1.28288e-18
-1.28743e-18
-1.2953e-18
-1.28168e-18
-1.28064e-18
-1.27989e-18
-1.29114e-18
-1.28374e-18
-1.28388e-18
-1.28255e-18
-1.28008e-18
-1.28779e-18
-1.29269e-18
-1.27937e-18
-1.2711e-18
-1.27815e-18
-1.2871e-18
-1.28101e-18
-1.27681e-18
-1.27407e-18
-1.27856e-18
-1.26841e-18
-1.27255e-18
-1.28051e-18
-1.28523e-18
-1.2883e-18
-1.2872e-18
-1.28609e-18
-1.28068e-18
-1.27661e-18
-1.27193e-18
-1.27475e-18
-1.27983e-18
-1.29369e-18
-1.28808e-18
-1.28795e-18
-1.29059e-18
-1.2995e-18
-1.28e-18
-1.28409e-18
-1.28345e-18
-1.26828e-18
-1.27273e-18
-1.28397e-18
-1.27774e-18
-1.28121e-18
-1.2833e-18
-1.2766e-18
-1.28104e-18
-1.26786e-18
-1.27839e-18
-1.27882e-18
-1.2849e-18
-1.29208e-18
-1.30146e-18
-1.28954e-18
-1.28418e-18
-1.2868e-18
-1.28172e-18
-1.28324e-18
-1.28614e-18
-1.28493e-18
-1.28255e-18
-1.28889e-18
-1.28466e-18
-1.28572e-18
-1.28216e-18
-1.28377e-18
-1.28366e-18
-1.28462e-18
-1.27888e-18
-1.288e-18
-1.28676e-18
-1.28289e-18
-1.27372e-18
-1.28125e-18
-1.28811e-18
-1.27987e-18
-1.28593e-18
-1.30254e-18
-1.28358e-18
-1.27817e-18
-1.27698e-18
-1.27919e-18
-1.28738e-18
-1.29572e-18
-1.30115e-18
-1.29404e-18
-1.2902e-18
-1.28724e-18
-1.28793e-18
-1.29603e-18
-1.29956e-18
-1.31035e-18
-1.29939e-18
-1.29387e-18
-1.28718e-18
-1.28512e-18
-1.29067e-18
-1.28841e-18
-1.28906e-18
-1.29433e-18
-1.29533e-18
-1.29952e-18
-1.29277e-18
-1.2951e-18
-1.29483e-18
-1.3004e-18
-1.29398e-18
-1.28502e-18
-1.28399e-18
-1.28108e-18
-1.28695e-18
-1.29404e-18
-1.29929e-18
-1.29247e-18
-1.28943e-18
-1.28934e-18
-1.28978e-18
-1.28889e-18
-1.28614e-18
-1.27941e-18
-1.27773e-18
-1.28819e-18
-1.29244e-18
-1.28709e-18
-1.28436e-18
-1.29713e-18
-1.29778e-18
-1.29204e-18
-1.29348e-18
-1.29821e-18
-1.30974e-18
-1.30235e-18
-1.29533e-18
-1.29373e-18
-1.29734e-18
-1.29513e-18
-1.2967e-18
-1.29147e-18
-1.2973e-18
-1.29587e-18
-1.28998e-18
-1.28911e-18
-1.29812e-18
-1.29863e-18
-1.29809e-18
-1.29896e-18
-1.30132e-18
-1.30266e-18
-1.29251e-18
-1.29438e-18
-1.28631e-18
-1.28456e-18
-1.28217e-18
-1.29063e-18
-1.29006e-18
-1.29156e-18
-1.28905e-18
-1.29177e-18
-1.29432e-18
-1.29964e-18
-1.29443e-18
-1.29028e-18
-1.29049e-18
-1.29234e-18
-1.28911e-18
-1.29298e-18
-1.29648e-18
-1.29511e-18
-1.29699e-18
-1.31042e-18
-1.30016e-18
-1.28797e-18
-1.29124e-18
-1.29554e-18
-1.28671e-18
-1.28011e-18
-1.28635e-18
-1.29003e-18
-1.29579e-18
-1.30717e-18
-1.294e-18
-1.29508e-18
-1.29144e-18
-1.29441e-18
-1.29709e-18
-1.3034e-18
-1.30148e-18
-1.30204e-18
-1.29869e-18
-1.2971e-18
-1.29499e-18
-1.29348e-18
-1.29202e-18
-1.29004e-18
-1.29958e-18
-1.29798e-18
-1.29774e-18
-1.30209e-18
-1.31436e-18
-1.30969e-18
-1.29786e-18
-1.29414e-18
-1.28658e-18
-1.29235e-18
-1.2905e-18
-1.30038e-18
-1.30553e-18
-1.30628e-18
-1.30473e-18
-1.30498e-18
-1.30112e-18
-1.29951e-18
-1.30317e-18
-1.29354e-18
-1.30439e-18
-1.30678e-18
-1.30238e-18
-1.3061e-18
-1.31182e-18
-1.30659e-18
-1.30059e-18
-1.29819e-18
-1.31006e-18
-1.3072e-18
-1.30735e-18
-1.3093e-18
-1.30768e-18
-1.30221e-18
-1.29691e-18
-1.29877e-18
-1.30148e-18
-1.29459e-18
-1.28886e-18
-1.29362e-18
-1.30328e-18
-1.29709e-18
-1.29528e-18
-1.2996e-18
-1.29769e-18
-1.30656e-18
-1.2984e-18
-1.29756e-18
-1.29317e-18
-1.29781e-18
-1.31281e-18
-1.30587e-18
-1.30392e-18
-1.2999e-18
-1.29355e-18
-1.29441e-18
-1.30366e-18
-1.30025e-18
-1.30247e-18
-1.29482e-18
-1.2877e-18
-1.30563e-18
-1.30116e-18
-1.28761e-18
-1.29143e-18
-1.30402e-18
-1.30226e-18
-1.29615e-18
-1.3002e-18
-1.30104e-18
-1.29407e-18
-1.29478e-18
-1.29527e-18
-1.30185e-18
-1.30169e-18
-1.3015e-18
-1.3025e-18
-1.30395e-18
-1.30146e-18
-1.30104e-18
-1.30657e-18
-1.30664e-18
-1.30385e-18
-1.30496e-18
-1.3046e-18
-1.31312e-18
-1.32114e-18
-1.31241e-18
-1.30973e-18
-1.31112e-18
-1.31488e-18
-1.30815e-18
-1.31045e-18
-1.31502e-18
-1.31097e-18
-1.31686e-18
-1.31612e-18
-1.31511e-18
-1.30942e-18
-1.31107e-18
-1.31159e-18
-1.31583e-18
-1.31288e-18
-1.3079e-18
-1.30763e-18
-1.31068e-18
-1.30763e-18
-1.29484e-18
-1.29514e-18
-1.30383e-18
-1.30814e-18
-1.30025e-18
-1.30633e-18
-1.30441e-18
-1.30404e-18
-1.3039e-18
-1.30936e-18
-1.30382e-18
-1.29813e-18
-1.30418e-18
-1.31106e-18
-1.30912e-18
-1.30302e-18
-1.29685e-18
-1.29906e-18
-1.30157e-18
-1.3082e-18
-1.30155e-18
-1.31018e-18
-1.30732e-18
-1.30523e-18
-1.30387e-18
-1.30293e-18
-1.30863e-18
-1.31366e-18
-1.30991e-18
-1.30744e-18
-1.30034e-18
-1.29963e-18
-1.29297e-18
-1.29523e-18
-1.30103e-18
-1.2866e-18
-1.30073e-18
-1.29728e-18
-1.3055e-18
-1.31032e-18
-1.30491e-18
-1.30792e-18
-1.31097e-18
-1.30328e-18
-1.30925e-18
-1.30657e-18
-1.30381e-18
-1.31018e-18
-1.31734e-18
-1.31509e-18
-1.31751e-18
-1.31939e-18
-1.31747e-18
-1.31544e-18
-1.30934e-18
-1.30391e-18
-1.31357e-18
-1.31609e-18
-1.31923e-18
-1.32006e-18
-1.3204e-18
-1.31281e-18
-1.31805e-18
-1.31665e-18
-1.31467e-18
-1.31632e-18
-1.30758e-18
-1.30105e-18
-1.3018e-18
-1.299e-18
-1.30199e-18
-1.30395e-18
-1.29233e-18
-1.29669e-18
-1.30844e-18
-1.30776e-18
-1.30901e-18
-1.30232e-18
-1.30423e-18
-1.30023e-18
-1.30507e-18
-1.30639e-18
-1.3084e-18
-1.30657e-18
-1.30134e-18
-1.30313e-18
-1.30868e-18
-1.30801e-18
-1.31324e-18
-1.30656e-18
-1.29276e-18
-1.30189e-18
-1.30633e-18
-1.31009e-18
-1.30831e-18
-1.30552e-18
-1.30324e-18
-1.30475e-18
-1.29506e-18
-1.29725e-18
-1.29394e-18
-1.29209e-18
-1.29208e-18
-1.29126e-18
-1.28962e-18
-1.28981e-18
-1.28502e-18
-1.29906e-18
-1.30275e-18
-1.3116e-18
-1.30839e-18
-1.31152e-18
-1.30564e-18
-1.30315e-18
-1.29851e-18
-1.29804e-18
-1.30823e-18
-1.3211e-18
-1.32083e-18
-1.31485e-18
-1.31503e-18
-1.31581e-18
-1.31184e-18
-1.31448e-18
-1.31906e-18
-1.3206e-18
-1.31085e-18
-1.31922e-18
-1.32224e-18
-1.31733e-18
-1.31354e-18
-1.31379e-18
-1.31328e-18
-1.31381e-18
-1.31528e-18
-1.3077e-18
-1.30943e-18
-1.30928e-18
-1.31127e-18
-1.31412e-18
-1.30997e-18
-1.29858e-18
-1.30823e-18
-1.31098e-18
-1.30481e-18
-1.30762e-18
-1.31476e-18
-1.30983e-18
-1.31377e-18
-1.32531e-18
-1.32148e-18
-1.31054e-18
-1.31607e-18
-1.31296e-18
-1.31025e-18
-1.31624e-18
-1.31382e-18
-1.31511e-18
-1.30492e-18
-1.30361e-18
-1.30417e-18
-1.30373e-18
-1.30204e-18
-1.302e-18
-1.29754e-18
-1.30233e-18
-1.30175e-18
-1.30176e-18
-1.30803e-18
-1.29786e-18
-1.29659e-18
-1.29998e-18
-1.3014e-18
-1.30083e-18
-1.30235e-18
-1.29578e-18
-1.29684e-18
-1.29475e-18
-1.29129e-18
-1.29823e-18
-1.3005e-18
-1.30132e-18
-1.30085e-18
-1.30144e-18
-1.30412e-18
-1.30033e-18
-1.30469e-18
-1.30456e-18
-1.30527e-18
-1.31188e-18
-1.30979e-18
-1.31252e-18
-1.31337e-18
-1.31609e-18
-1.31971e-18
-1.31811e-18
-1.31754e-18
-1.32114e-18
-1.317e-18
-1.31405e-18
-1.31482e-18
-1.31783e-18
-1.32187e-18
-1.32126e-18
-1.31362e-18
-1.30973e-18
-1.31309e-18
-1.30872e-18
-1.31252e-18
-1.31687e-18
-1.29799e-18
-1.29415e-18
-1.29851e-18
-1.29614e-18
-1.30388e-18
-1.3099e-18
-1.30006e-18
-1.30177e-18
-1.29985e-18
-1.30503e-18
-1.30708e-18
-1.31146e-18
-1.31871e-18
-1.30864e-18
-1.31077e-18
-1.31319e-18
-1.31619e-18
-1.30822e-18
-1.30797e-18
-1.30859e-18
-1.30684e-18
-1.30269e-18
-1.30637e-18
-1.30622e-18
-1.30535e-18
-1.30242e-18
-1.30174e-18
-1.30014e-18
-1.30173e-18
-1.30676e-18
-1.31012e-18
-1.31201e-18
-1.31543e-18
-1.29747e-18
-1.29435e-18
-1.28892e-18
-1.29212e-18
-1.30239e-18
-1.29709e-18
-1.29875e-18
-1.29975e-18
-1.30005e-18
-1.30023e-18
-1.30013e-18
-1.29785e-18
-1.29853e-18
-1.30359e-18
-1.30529e-18
-1.3017e-18
-1.3072e-18
-1.31052e-18
-1.31223e-18
-1.31737e-18
-1.31719e-18
-1.31949e-18
-1.31538e-18
-1.31812e-18
-1.31289e-18
-1.30682e-18
-1.30978e-18
-1.31175e-18
-1.31273e-18
-1.31115e-18
-1.3097e-18
-1.30681e-18
-1.30752e-18
-1.2987e-18
-1.29787e-18
-1.29766e-18
-1.2984e-18
-1.29785e-18
-1.29507e-18
-1.30559e-18
-1.30779e-18
-1.30184e-18
-1.29994e-18
-1.29955e-18
-1.29467e-18
-1.2928e-18
-1.2953e-18
-1.3037e-18
-1.30859e-18
-1.30749e-18
-1.31129e-18
-1.31043e-18
-1.30174e-18
-1.30483e-18
-1.30402e-18
-1.30396e-18
-1.30326e-18
-1.30465e-18
-1.30259e-18
-1.30311e-18
-1.30897e-18
-1.31597e-18
-1.31214e-18
-1.31251e-18
-1.31716e-18
-1.31554e-18
-1.29429e-18
-1.29495e-18
-1.29593e-18
-1.29676e-18
-1.29607e-18
-1.29363e-18
-1.29754e-18
-1.29916e-18
-1.30447e-18
-1.31381e-18
-1.3015e-18
-1.30227e-18
-1.30369e-18
-1.30221e-18
-1.30045e-18
-1.30828e-18
-1.30682e-18
-1.30547e-18
-1.30716e-18
-1.31056e-18
-1.30818e-18
-1.30923e-18
-1.3122e-18
-1.3099e-18
-1.30824e-18
-1.30703e-18
-1.31182e-18
-1.30717e-18
-1.31109e-18
-1.307e-18
-1.31097e-18
-1.30684e-18
-1.28426e-18
-1.28819e-18
-1.29473e-18
-1.28981e-18
-1.29448e-18
-1.29959e-18
-1.29223e-18
-1.29579e-18
-1.30105e-18
-1.29917e-18
-1.29847e-18
-1.29945e-18
-1.30193e-18
-1.30612e-18
-1.30052e-18
-1.29526e-18
-1.29978e-18
-1.30408e-18
-1.30824e-18
-1.30488e-18
-1.30328e-18
-1.30317e-18
-1.30138e-18
-1.29771e-18
-1.30089e-18
-1.30245e-18
-1.29965e-18
-1.2922e-18
-1.30078e-18
-1.30483e-18
-1.30629e-18
-1.3078e-18
-1.29742e-18
-1.28623e-18
-1.28625e-18
-1.28588e-18
-1.29241e-18
-1.29286e-18
-1.29355e-18
-1.29423e-18
-1.2946e-18
-1.29659e-18
-1.30039e-18
-1.29932e-18
-1.30198e-18
-1.2951e-18
-1.28448e-18
-1.29601e-18
-1.30405e-18
-1.29961e-18
-1.29505e-18
-1.29964e-18
-1.30124e-18
-1.30142e-18
-1.30033e-18
-1.29663e-18
-1.29984e-18
-1.30127e-18
-1.30129e-18
-1.3002e-18
-1.29642e-18
-1.29909e-18
-1.3001e-18
-1.2892e-18
-1.2887e-18
-1.28734e-18
-1.28799e-18
-1.28887e-18
-1.28973e-18
-1.29086e-18
-1.29187e-18
-1.29249e-18
-1.29306e-18
-1.29384e-18
-1.2909e-18
-1.28568e-18
-1.29944e-18
-1.29321e-18
-1.29377e-18
-1.2954e-18
-1.29455e-18
-1.28994e-18
-1.29255e-18
-1.29578e-18
-1.29555e-18
-1.29363e-18
-1.3032e-18
-1.30601e-18
-1.30237e-18
-1.30073e-18
-1.29813e-18
-1.30003e-18
-1.30249e-18
-1.30811e-18
-1.27886e-18
-1.27721e-18
-1.28787e-18
-1.28663e-18
-1.28485e-18
-1.28233e-18
-1.28941e-18
-1.29525e-18
-1.29036e-18
-1.28553e-18
-1.29112e-18
-1.29353e-18
-1.29474e-18
-1.30036e-18
-1.29871e-18
-1.30251e-18
-1.30577e-18
-1.3039e-18
-1.29881e-18
-1.30683e-18
-1.3005e-18
-1.29483e-18
-1.29403e-18
-1.29198e-18
-1.28953e-18
-1.28631e-18
-1.28662e-18
-1.28361e-18
-1.28273e-18
-1.28659e-18
-1.28594e-18
-1.28884e-18
-1.28581e-18
-1.28805e-18
-1.29244e-18
-1.29133e-18
-1.29896e-18
-1.30487e-18
-1.29421e-18
-1.28773e-18
-1.28131e-18
-1.28147e-18
-1.28586e-18
-1.28266e-18
-1.27866e-18
-1.29319e-18
-1.28621e-18
-1.28681e-18
-1.27869e-18
-1.29146e-18
-1.29464e-18
-1.28971e-18
-1.28427e-18
-1.28858e-18
-1.29273e-18
-1.2973e-18
-1.29254e-18
-1.28999e-18
-1.29064e-18
-1.28906e-18
-1.28664e-18
-1.29497e-18
-1.27519e-18
-1.27871e-18
-1.28538e-18
-1.29325e-18
-1.28165e-18
-1.28405e-18
-1.29043e-18
-1.28644e-18
-1.28552e-18
-1.28625e-18
-1.28902e-18
-1.29029e-18
-1.28652e-18
-1.28596e-18
-1.28741e-18
-1.28202e-18
-1.2844e-18
-1.28172e-18
-1.28669e-18
-1.29298e-18
-1.29361e-18