/*--------------------------------*- C++ -*----------------------------------*\
  =========                 |
  \\      /  F ield         | OpenFOAM: The Open Source CFD Toolbox
   \\    /   O peration     | Website:  https://openfoam.org
    \\  /    A nd           | Version:  7
     \\/     M anipulation  |
\*---------------------------------------------------------------------------*/
FoamFile
{
    version     2.0;
    format      ascii;
    class       surfaceScalarField;
    location    "60000";
    object      phi;
}
// * * * * * * * * * * * * * * * * * * * * * * * * * * * * * * * * * * * * * //

dimensions      [0 3 -1 0 0 0 0];

internalField   nonuniform List<scalar> 
9414
(
6.04572e-24
6.6192e-24
6.74714e-24
6.39659e-24
8.0655e-24
6.27445e-24
7.64732e-24
6.28934e-24
-2.58011e-23
6.11873e-24
-8.00766e-24
6.07068e-24
-6.94592e-24
5.95656e-24
-6.44988e-24
5.72216e-24
3.75806e-24
5.57997e-24
5.54171e-24
-2.42636e-23
7.11674e-24
3.16677e-23
7.8256e-24
3.14339e-23
6.1856e-24
3.34678e-23
4.96848e-24
4.13338e-23
4.51311e-24
-1.00362e-23
2.76394e-24
-6.54242e-23
3.51625e-24
-9.07353e-24
4.11412e-24
1.70047e-23
3.89068e-24
3.68007e-23
4.2286e-24
3.02607e-23
4.22868e-24
2.13994e-23
4.47407e-24
-9.90156e-24
4.70869e-24
1.96543e-23
4.46559e-24
4.9918e-23
5.22983e-24
4.69912e-23
5.45378e-24
3.9284e-23
6.10311e-24
3.75492e-23
7.17153e-24
7.10196e-23
6.71382e-24
1.33485e-22
7.31811e-24
1.38822e-22
7.00779e-24
1.44731e-22
6.32032e-24
3.95317e-23
5.95449e-24
3.84691e-23
6.58572e-24
3.08961e-23
7.23892e-24
7.22073e-23
7.92616e-24
1.21701e-22
7.74112e-24
1.17845e-22
7.38174e-24
8.29964e-23
7.35052e-24
1.03999e-22
7.77094e-24
1.29156e-22
7.83841e-24
1.27684e-22
7.93369e-24
1.03458e-22
8.04102e-24
7.72928e-23
7.85474e-24
7.48752e-23
7.87005e-24
7.05656e-23
8.25286e-24
6.74253e-23
8.30323e-24
6.43404e-23
8.41746e-24
6.21667e-23
8.47248e-24
5.81563e-23
8.3654e-24
4.99887e-23
7.83765e-24
3.91202e-23
8.05466e-24
3.3729e-23
7.83673e-24
1.57078e-23
7.55172e-24
-4.4558e-24
7.44922e-24
-5.65067e-24
7.49419e-24
3.98514e-26
7.59875e-24
3.27159e-23
7.34419e-24
2.55853e-23
7.0912e-24
1.16101e-23
6.92928e-24
-2.24078e-24
6.74389e-24
1.82519e-24
6.77254e-24
5.75095e-24
6.56537e-24
2.88626e-23
6.27345e-24
5.99556e-24
-1.61377e-22
1.86926e-24
-1.93978e-22
5.73469e-25
-1.87154e-22
4.52882e-25
-1.74323e-22
-6.67976e-25
-1.56512e-22
-2.36813e-24
-1.69657e-22
-3.73699e-24
-1.82704e-22
-4.92839e-24
-1.65451e-22
-4.96429e-24
-1.56264e-22
-2.96209e-24
-1.87227e-22
-2.87647e-24
-1.81851e-22
-1.68235e-24
-1.81077e-22
-9.35407e-25
-1.81609e-22
-5.73093e-25
-1.45526e-22
1.22928e-25
-1.43997e-22
1.92848e-24
-1.39229e-22
2.92706e-24
-1.55261e-22
4.0166e-24
-2.00437e-22
4.99315e-24
-1.67189e-22
6.40312e-24
-1.58512e-22
6.94001e-24
-1.81499e-22
7.76666e-24
-1.52646e-22
8.28634e-24
-1.52792e-22
9.29714e-24
-1.54702e-22
1.02188e-23
-1.23123e-22
1.11871e-23
-1.22595e-22
1.15702e-23
-1.19779e-22
1.2141e-23
-5.52222e-23
1.25408e-23
-5.73665e-23
1.2391e-23
-5.83298e-23
1.24506e-23
-3.49709e-23
1.30866e-23
-3.88475e-23
1.28345e-23
-6.66154e-23
1.27973e-23
-1.32038e-23
1.26315e-23
-1.60233e-23
1.23898e-23
6.03699e-24
1.23149e-23
5.72622e-24
1.20889e-23
-3.50054e-23
1.19844e-23
-3.10237e-23
1.18513e-23
-2.88664e-23
1.15424e-23
-2.53713e-23
1.15167e-23
-2.58794e-23
1.14045e-23
-3.08516e-23
1.10766e-23
-6.68086e-24
1.11572e-23
2.9768e-23
1.11649e-23
1.87526e-23
1.11955e-23
9.02048e-24
1.10488e-23
9.01091e-24
1.07403e-23
1.74335e-23
1.06502e-23
1.24292e-23
1.01116e-23
-7.63113e-24
9.83777e-24
-2.51939e-23
9.61982e-24
-2.79029e-23
9.48561e-24
-3.18164e-23
9.3574e-24
9.01214e-24
-1.90896e-22
-7.94114e-24
-1.57899e-22
-7.12043e-24
-1.56509e-22
-7.75207e-24
-1.0879e-22
-7.64408e-24
-4.48282e-23
-5.65898e-24
1.37308e-23
-4.14916e-24
4.47802e-23
-2.49887e-24
3.92181e-23
-1.36191e-24
-7.56806e-24
-1.39426e-25
-1.48544e-23
1.8408e-24
-2.11592e-23
2.80619e-24
-2.66831e-23
4.78723e-24
1.04261e-23
6.21066e-24
1.16981e-22
8.0648e-24
7.69603e-23
8.51082e-24
7.24768e-23
8.71812e-24
7.12141e-23
9.86997e-24
7.78629e-23
1.12887e-23
8.44023e-23
1.16324e-23
9.36329e-23
1.31877e-23
9.80352e-23
1.35772e-23
1.23964e-22
1.47372e-23
1.22097e-22
1.44841e-23
9.62203e-23
1.47894e-23
7.02409e-23
1.58824e-23
5.06741e-23
1.61808e-23
3.86812e-23
1.65031e-23
3.66127e-23
1.70098e-23
5.80806e-23
1.75505e-23
8.23508e-23
1.74509e-23
3.3143e-23
1.75288e-23
7.14191e-23
1.73954e-23
3.91555e-23
1.74565e-23
7.46142e-23
1.7775e-23
7.52786e-23
1.75763e-23
8.79157e-23
1.73317e-23
6.26784e-23
1.72169e-23
6.08924e-23
1.72689e-23
5.80575e-23
1.70539e-23
5.62091e-23
1.69958e-23
5.32873e-23
1.70534e-23
5.93966e-23
1.66656e-23
5.7735e-23
1.63939e-23
5.20949e-23
1.62128e-23
7.80344e-23
1.60524e-23
7.30705e-23
1.56971e-23
6.28592e-23
1.5608e-23
4.68593e-23
1.51594e-23
3.23173e-23
1.4747e-23
2.45862e-23
1.46054e-23
3.32815e-23
1.43834e-23
2.72792e-23
1.40331e-23
1.83501e-23
1.36873e-23
2.39522e-23
1.34692e-23
1.33004e-23
-6.87759e-23
-5.27174e-24
-7.50528e-23
-5.80846e-24
-1.15782e-22
-5.18711e-24
-6.54161e-23
-3.67871e-24
-7.61469e-23
-2.58192e-24
-2.67486e-23
-1.03574e-24
-2.73616e-24
-6.15983e-26
-4.83899e-23
5.67869e-25
-6.91922e-23
2.04812e-24
-7.65111e-23
2.83674e-24
-1.98446e-23
5.29955e-24
1.41634e-23
7.15277e-24
2.05331e-23
7.70323e-24
2.53226e-23
7.35797e-24
3.52642e-24
7.46576e-24
7.60236e-24
7.86279e-24
-4.69953e-23
8.51411e-24
-4.14588e-23
8.495e-24
-3.59674e-23
9.44698e-24
-6.60481e-23
9.61829e-24
-9.51556e-23
1.0145e-23
-1.19916e-22
1.0212e-23
-1.12678e-22
1.10147e-23
-8.32975e-23
1.09933e-23
-9.89449e-23
1.08219e-23
-8.75319e-23
1.0874e-23
-4.95059e-23
1.15371e-23
-4.12787e-23
1.10308e-23
-3.89155e-23
1.0593e-23
-7.44619e-23
1.08223e-23
-1.23847e-22
1.12632e-23
-9.20366e-23
1.18559e-23
-6.22066e-23
1.24222e-23
-1.10412e-22
1.21095e-23
-1.01339e-22
1.28136e-23
-7.13993e-23
1.34669e-23
-5.41114e-23
1.34268e-23
-9.44352e-23
1.32967e-23
-1.12759e-22
1.33716e-23
-1.17169e-22
1.34052e-23
-9.79446e-23
1.36064e-23
-6.97417e-23
1.37795e-23
-3.90432e-23
1.38391e-23
-1.56068e-23
1.37156e-23
-1.04854e-23
1.32353e-23
-2.68519e-23
1.29682e-23
-4.86334e-23
1.25504e-23
-6.20114e-23
1.23938e-23
-5.22338e-23
1.24254e-23
-4.71554e-23
1.2069e-23
-5.0845e-23
1.17432e-23
-5.33412e-23
1.15169e-23
-3.17121e-23
1.12506e-23
-3.49502e-23
1.09203e-23
1.04496e-23
-1.46376e-22
-3.92478e-24
-1.48314e-22
-3.05537e-24
-1.51057e-22
-3.18526e-24
-1.54253e-22
-3.46605e-24
-1.58236e-22
-3.21742e-24
-1.73792e-22
-2.79435e-24
-1.79197e-22
-1.97867e-24
-1.95608e-22
-1.13903e-24
-1.75968e-22
-1.25418e-24
-1.30641e-22
1.03266e-24
-1.36427e-22
2.50172e-24
-1.65683e-22
2.7165e-24
-1.55338e-22
4.44404e-24
-1.41096e-22
5.73476e-24
-9.19225e-23
5.88807e-24
-8.26471e-23
6.27674e-24
-4.03934e-23
5.78207e-24
-2.64637e-23
6.59786e-24
-1.43654e-23
7.25019e-24
2.85452e-23
7.98667e-24
-2.45958e-23
8.53154e-24
4.47385e-24
8.84681e-24
1.36505e-23
9.35856e-24
-5.98608e-24
1.02055e-23
1.64565e-23
1.0323e-23
-4.02498e-24
1.08685e-23
-5.7598e-23
1.08093e-23
-5.65352e-23
1.16423e-23
-4.74762e-23
1.22722e-23
9.58697e-24
1.25687e-23
1.10274e-23
1.24309e-23
3.94259e-23
1.26668e-23
1.02946e-23
1.26456e-23
5.9057e-23
1.33553e-23
6.07482e-23
1.31265e-23
2.90278e-23
1.2871e-23
1.8477e-23
1.28863e-23
3.89745e-23
1.28862e-23
6.04281e-23
1.29773e-23
5.20174e-23
1.29648e-23
5.72265e-23
1.2464e-23
5.08248e-23
1.24263e-23
3.66549e-23
1.20899e-23
-7.57194e-24
1.18672e-23
-1.6212e-24
1.16647e-23
-5.79706e-24
1.13457e-23
2.97219e-24
1.13021e-23
1.61065e-24
1.12248e-23
4.25189e-24
1.08339e-23
5.63269e-24
1.07662e-23
4.34493e-24
1.06044e-23
3.20275e-24
1.03175e-23
-7.18893e-24
1.00935e-23
-1.56813e-23
9.8544e-24
9.72169e-24
-7.08015e-23
-1.18146e-24
-4.22758e-23
-1.95819e-24
-1.43062e-23
-2.59998e-24
-4.93901e-23
-2.54604e-24
-5.11503e-23
-3.04413e-24
-5.13647e-23
-2.68712e-24
-8.05243e-23
-1.97963e-24
-7.86399e-23
9.07383e-26
-1.12271e-23
1.37954e-24
2.6899e-23
1.60873e-24
-3.01506e-23
2.40842e-24
-2.21773e-23
3.48071e-24
-7.70097e-23
4.00507e-24
-1.58659e-22
4.8608e-24
-1.50234e-22
6.49878e-24
-1.46958e-22
7.55867e-24
-1.11306e-22
8.63466e-24
-1.10508e-22
9.28884e-24
-1.03788e-22
1.03522e-23
-1.34464e-22
1.0725e-23
-1.27684e-22
1.17915e-23
-1.20755e-22
1.23372e-23
-1.15466e-22
1.30623e-23
-1.13265e-22
1.35796e-23
-8.67504e-23
1.38503e-23
-5.81144e-23
1.44392e-23
-8.53951e-23
1.49894e-23
-3.82864e-23
1.54756e-23
-5.81606e-23
1.51021e-23
-2.05595e-23
1.50124e-23
1.69204e-23
1.49457e-23
1.79343e-23
1.50053e-23
1.7898e-23
1.47254e-23
-2.68633e-23
1.45271e-23
-2.6756e-23
1.47663e-23
-3.8137e-23
1.4283e-23
-1.57439e-23
1.37674e-23
-1.97777e-23
1.32167e-23
-2.0467e-23
1.31164e-23
-2.13236e-23
1.29624e-23
-2.17785e-23
1.27783e-23
-3.9732e-23
1.23602e-23
-2.26802e-23
1.26696e-23
-4.5087e-23
1.23366e-23
-4.53485e-23
1.23788e-23
-2.96411e-23
1.23174e-23
-5.87187e-23
1.18425e-23
-3.70157e-23
1.17335e-23
-3.74868e-23
1.15176e-23
-1.52528e-23
1.13207e-23
-2.81972e-23
1.09982e-23
-1.42919e-23
1.0803e-23
-1.1236e-23
1.05778e-23
-2.20901e-24
1.04186e-23
-1.07324e-23
1.03417e-23
-3.65278e-24
1.02111e-23
8.79685e-24
1.01672e-23
5.65178e-24
1.00594e-23
9.93438e-24
-2.86098e-22
-1.0422e-23
-2.41251e-22
-1.08587e-23
-2.0025e-22
-1.13938e-23
-1.89197e-22
-1.18244e-23
-1.75924e-22
-1.07143e-23
-1.38863e-22
-9.73969e-24
-9.86113e-23
-8.60614e-24
-1.5312e-22
-7.61156e-24
-1.45599e-22
-6.23417e-24
-1.23934e-22
-3.48394e-24
-1.14849e-22
-2.31554e-24
-1.03986e-22
-6.84913e-25
-9.66965e-23
1.45847e-24
-9.19961e-23
3.27738e-24
-8.84522e-23
3.99081e-24
-8.76675e-23
6.15322e-24
-5.13553e-23
7.76321e-24
-1.03219e-24
8.81936e-24
-2.31504e-25
9.73686e-24
-3.41365e-24
1.02682e-23
1.82714e-23
1.03118e-23
-1.83039e-23
1.08146e-23
-2.41153e-23
1.09686e-23
-3.02818e-23
1.16452e-23
-3.94038e-23
1.18471e-23
5.71754e-25
1.22275e-23
-2.58339e-23
1.22966e-23
-9.7198e-23
1.15786e-23
-9.28158e-23
1.20829e-23
-7.04543e-23
1.24689e-23
-4.99733e-23
1.25025e-23
-4.38959e-23
1.2427e-23
2.77722e-24
1.2047e-23
-3.86335e-23
1.19932e-23
-6.02177e-23
1.16543e-23
-1.07031e-22
1.14e-23
-1.06472e-22
1.16103e-23
-4.83029e-23
1.1571e-23
-9.08924e-23
1.1477e-23
-7.90138e-23
1.14346e-23
-4.50071e-23
1.12839e-23
-4.01827e-23
1.10671e-23
-2.66376e-23
1.07342e-23
-4.32982e-23
1.03879e-23
-7.3697e-23
1.01254e-23
-7.3633e-23
1.01236e-23
-4.27364e-23
1.00428e-23
-4.68723e-23
9.96268e-24
-5.67465e-23
9.6036e-24
-3.9764e-23
9.49293e-24
-3.92922e-23
9.34844e-24
-3.1661e-23
9.08929e-24
-2.88138e-24
9.04017e-24
3.19076e-23
8.7869e-24
3.20859e-23
8.36082e-24
4.24407e-23
8.05304e-24
4.00591e-23
7.62412e-24
4.5476e-23
7.41453e-24
3.6201e-23
7.03418e-24
6.75999e-24
-1.21766e-22
-1.42874e-23
-1.17588e-22
-1.39545e-23
-1.50834e-22
-1.29994e-23
-1.47282e-22
-1.24726e-23
-1.76324e-22
-1.32994e-23
-1.78667e-22
-1.18511e-23
-1.87432e-22
-1.14359e-23
-2.04172e-22
-9.98795e-24
-2.1695e-22
-8.63019e-24
-1.89443e-22
-7.30138e-24
-1.34942e-22
-5.89776e-24
-1.36766e-22
-5.17568e-24
-1.66679e-22
-3.94509e-24
-1.87955e-22
-2.6149e-24
-2.082e-22
-9.42442e-25
-1.92661e-22
1.92514e-25
-1.73268e-22
1.09997e-24
-1.77858e-22
9.84575e-25
-1.91728e-22
2.73213e-24
-2.38373e-22
3.22397e-24
-2.28641e-22
4.37008e-24
-2.2709e-22
5.00229e-24
-1.68006e-22
5.57095e-24
-1.62539e-22
5.55724e-24
-1.56809e-22
5.96349e-24
-2.00359e-22
6.1437e-24
-2.45083e-22
6.47331e-24
-2.46647e-22
7.60766e-24
-2.22609e-22
8.43946e-24
-2.15519e-22
8.67978e-24
-2.28049e-22
9.3824e-24
-2.25269e-22
9.77373e-24
-1.97911e-22
1.02611e-23
-1.74314e-22
1.07188e-23
-1.69738e-22
1.04281e-23
-1.65127e-22
1.04721e-23
-1.39085e-22
1.11613e-23
-1.13251e-22
1.10288e-23
-1.0737e-22
1.07316e-23
-1.03406e-22
1.03418e-23
-9.42701e-23
1.07648e-23
-9.08064e-23
1.0311e-23
-8.74153e-23
1.02249e-23
-8.25251e-23
1.04127e-23
-4.15738e-23
1.03326e-23
-5.4415e-23
1.01032e-23
-5.11586e-23
1.00013e-23
-5.92665e-23
9.84561e-24
-4.98623e-23
9.83962e-24
-5.63725e-23
9.75492e-24
-3.77303e-23
9.78396e-24
-4.16402e-23
9.70828e-24
-4.52361e-23
9.51136e-24
-3.36574e-23
9.39916e-24
-3.81408e-23
9.42539e-24
-4.93615e-23
9.21518e-24
-1.75387e-23
9.06145e-24
-3.04795e-23
8.80784e-24
-2.96951e-23
8.62643e-24
-3.48858e-23
8.4167e-24
-2.6562e-23
8.29253e-24
-1.25742e-23
8.14578e-24
1.82559e-24
7.93825e-24
2.76479e-24
7.76492e-24
-6.02038e-24
7.68882e-24
6.8275e-24
7.47496e-24
5.90327e-24
7.21074e-24
2.5574e-23
7.00511e-24
2.55649e-23
6.77295e-24
3.656e-23
6.54864e-24
2.9312e-23
6.30559e-24
2.52829e-23
6.08468e-24
3.64547e-23
5.77837e-24
2.86318e-23
5.52906e-24
3.67446e-23
5.27156e-24
3.36419e-23
5.03421e-24
2.6239e-23
4.77766e-24
2.23665e-23
4.52711e-24
2.44295e-23
4.27572e-24
1.82563e-23
4.02801e-24
1.60368e-23
3.78444e-24
1.78743e-23
3.5438e-24
1.51698e-23
3.29525e-24
1.44119e-23
3.02941e-24
1.35873e-23
2.76839e-24
1.2685e-23
2.46878e-24
1.02888e-23
2.17327e-24
1.32541e-23
1.87257e-24
9.80112e-24
1.55221e-24
6.50179e-24
1.22738e-24
2.34614e-24
8.88806e-25
1.59936e-24
5.29569e-25
-8.79307e-26
1.70297e-25
-6.86711e-26
-2.19345e-25
1.62466e-25
-5.06823e-23
-9.11649e-24
-4.01813e-23
-9.40971e-24
-3.6707e-23
-8.89272e-24
-3.70107e-23
-9.74759e-24
-2.43859e-24
-7.25723e-24
-5.0444e-24
-6.17708e-24
-5.57505e-24
-4.01008e-24
-8.65207e-24
-2.97491e-24
-1.23851e-23
-1.34252e-24
1.59007e-23
3.09366e-25
8.55103e-24
5.76746e-25
5.24652e-23
1.1093e-24
3.6841e-23
1.82209e-24
2.37276e-23
1.29278e-24
-1.73213e-23
1.41902e-24
-2.19628e-23
1.29393e-24
-2.20526e-23
8.00507e-25
8.37432e-24
1.10047e-24
-1.32886e-23
8.94224e-26
-5.99791e-23
1.27862e-25
-5.11097e-23
-1.02779e-25
-1.02682e-22
3.35486e-25
-1.00213e-22
4.87899e-25
-9.53624e-23
7.14918e-25
-9.07892e-23
1.10001e-24
-8.25706e-23
1.13562e-24
-6.94865e-23
1.50126e-24
-8.49508e-23
1.55832e-24
-9.79579e-23
1.94221e-24
-8.82346e-23
2.63767e-24
-8.62027e-23
3.23754e-24
-1.06718e-22
3.31451e-24
-1.01666e-22
3.75523e-24
-1.68276e-22
4.42742e-24
-1.38524e-22
5.116e-24
-1.46552e-22
6.05979e-24
-1.86777e-22
6.11245e-24
-1.92582e-22
6.79291e-24
-1.93429e-22
7.09338e-24
-1.94201e-22
7.77304e-24
-1.73848e-22
8.10721e-24
-1.57222e-22
7.92112e-24
-1.52383e-22
8.41443e-24
-1.197e-22
8.19468e-24
-1.21673e-22
8.32915e-24
-1.28966e-22
8.32687e-24
-1.15914e-22
8.094e-24
-1.10971e-22
8.12804e-24
-1.04428e-22
8.25385e-24
-5.61645e-23
8.35383e-24
-6.72498e-23
8.20949e-24
-5.98493e-23
8.21405e-24
-4.65939e-23
8.30968e-24
-5.69823e-23
8.34766e-24
-5.36222e-23
8.2362e-24
-3.65521e-23
8.14131e-24
-5.28904e-23
8.09262e-24
-2.57337e-23
8.04427e-24
-2.62675e-23
7.74007e-24
-1.42038e-23
7.68136e-24
-3.28124e-24
7.52651e-24
2.0439e-24
7.3102e-24
1.35337e-23
7.12722e-24
1.75097e-23
7.01459e-24
-6.74868e-24
6.79531e-24
-6.96087e-24
6.6301e-24
-6.7667e-24
6.56806e-24
-5.93502e-24
6.38719e-24
6.09891e-24
6.30692e-24
1.48046e-24
6.05742e-24
-6.23186e-24
5.88925e-24
-1.91932e-23
5.67035e-24
-1.46759e-23
5.52117e-24
-7.37704e-24
5.37899e-24
-4.43563e-24
5.2275e-24
-5.80316e-24
5.01861e-24
-7.41504e-24
4.84129e-24
2.02314e-25
4.64977e-24
-3.77471e-24
4.47539e-24
2.68374e-24
4.29671e-24
-3.54531e-24
4.06624e-24
3.09834e-24
3.85659e-24
2.6848e-24
3.61952e-24
2.14794e-24
3.38827e-24
-2.39861e-24
3.13137e-24
6.4305e-26
2.88462e-24
8.66253e-26
2.60786e-24
-2.00263e-25
2.32645e-24
2.57145e-24
2.03996e-24
1.77422e-24
1.72552e-24
2.51357e-24
1.39802e-24
3.07795e-24
1.04693e-24
1.28278e-24
6.81477e-25
3.15689e-25
2.86077e-25
2.62409e-25
-8.0733e-23
-8.81971e-24
-1.2354e-22
-7.87723e-24
-1.57797e-22
-9.22625e-24
-1.55046e-22
-9.23204e-24
-2.08759e-22
-1.05814e-23
-1.99805e-22
-9.85148e-24
-2.28163e-22
-8.9434e-24
-2.51646e-22
-8.46769e-24
-2.74425e-22
-6.70556e-24
-2.67731e-22
-5.73947e-24
-2.60531e-22
-5.26165e-24
-1.8909e-22
-5.77984e-24
-2.40336e-22
-5.80152e-24
-2.9718e-22
-6.18902e-24
-2.91362e-22
-6.63416e-24
-3.21864e-22
-5.35438e-24
-2.86557e-22
-5.267e-24
-3.28987e-22
-5.59321e-24
-2.66944e-22
-4.7579e-24
-2.59795e-22
-5.02243e-24
-2.52128e-22
-5.22631e-24
-2.483e-22
-5.4414e-24
-2.39292e-22
-5.39667e-24
-2.04293e-22
-5.41479e-24
-2.00676e-22
-5.02643e-24
-1.76255e-22
-4.72866e-24
-1.77186e-22
-4.77989e-24
-1.54783e-22
-4.31714e-24
-1.32385e-22
-3.87275e-24
-1.35006e-22
-3.60057e-24
-1.36935e-22
-3.76311e-24
-1.16707e-22
-3.73629e-24
-1.19382e-22
-3.82025e-24
-6.78857e-23
-3.59857e-24
-5.59423e-23
-4.13175e-24
-1.08482e-22
-4.34025e-24
-1.38298e-22
-3.90831e-24
-1.35109e-22
-3.37554e-24
-1.21347e-22
-3.14666e-24
-1.62878e-22
-3.15102e-24
-1.44429e-22
-2.7317e-24
-1.57594e-22
-2.33963e-24
-1.51056e-22
-1.93886e-24
-1.584e-22
-1.68686e-24
-1.51726e-22
-1.55419e-24
-1.459e-22
-1.16674e-24
-1.03034e-22
-8.05644e-25
-7.67673e-23
-5.85992e-25
-6.32353e-23
-6.61243e-25
-7.35857e-23
-6.18769e-25
-5.78183e-23
-3.22672e-25
-4.55105e-23
-6.60185e-26
-4.06721e-23
-1.41164e-26
-6.17683e-23
3.12382e-26
-7.37426e-23
1.67107e-25
-5.72841e-23
2.61371e-25
-7.10084e-23
4.00222e-25
-8.40284e-23
4.28516e-25
-7.75779e-23
6.45965e-25
-7.23932e-23
7.73404e-25
-4.88162e-23
9.55606e-25
-2.64322e-23
8.92111e-25
-2.16167e-23
9.01617e-25
-1.83152e-23
9.35836e-25
-1.05503e-23
9.28164e-25
-7.34547e-24
9.90959e-25
-7.83567e-24
1.0437e-24
-1.94015e-23
9.25675e-25
-1.63202e-23
9.67862e-25
-1.81471e-23
1.02499e-24
-1.49408e-23
1.05012e-24
-9.88311e-24
1.06256e-24
-7.5694e-24
1.05064e-24
-9.65827e-24
1.05605e-24
-6.83105e-24
1.04734e-24
-1.15858e-23
1.07298e-24
-2.38411e-24
1.0502e-24
-2.69632e-24
1.0583e-24
-2.63409e-24
1.03407e-24
-1.46794e-23
1.02633e-24
-1.72446e-23
1.03928e-24
-1.49346e-23
1.03218e-24
-1.32464e-23
1.02718e-24
-1.39362e-23
9.74365e-25
-1.22741e-23
9.30605e-25
-7.18011e-24
8.85843e-25
-2.92965e-24
8.02586e-25
-1.61687e-24
7.18464e-25
-6.02695e-25
6.18164e-25
-2.53009e-24
5.03329e-25
-1.85888e-24
3.74521e-25
-1.30784e-24
2.25231e-25
3.34512e-25
6.64008e-26
-1.20064e-25
-1.16938e-25
5.0746e-26
-3.82951e-23
-7.72017e-24
-3.99834e-23
-7.82421e-24
-4.87748e-23
-7.72686e-24
-6.70234e-23
-8.3205e-24
-4.67232e-23
-8.09959e-24
-6.11564e-23
-7.72747e-24
-4.9205e-23
-7.97495e-24
-5.91033e-23
-8.68413e-24
-9.22888e-23
-8.93291e-24
-1.56207e-22
-9.29754e-24
-1.53441e-22
-8.85397e-24
-1.46369e-22
-9.34043e-24
-1.72018e-22
-9.67179e-24
-1.6167e-22
-1.00134e-23
-1.48656e-22
-9.99423e-24
-1.66348e-22
-1.01144e-23
-2.12204e-22
-1.03977e-23
-1.46887e-22
-9.91184e-24
-1.9175e-22
-1.03685e-23
-1.8512e-22
-9.81227e-24
-1.75399e-22
-9.39161e-24
-1.68769e-22
-8.68586e-24
-1.61142e-22
-8.11498e-24
-1.00998e-22
-8.08787e-24
-1.16694e-22
-7.77883e-24
-1.09792e-22
-8.1832e-24
-4.68217e-23
-8.04679e-24
-3.93559e-23
-7.55723e-24
-3.3457e-23
-7.79128e-24
-9.47516e-23
-7.6454e-24
-7.22729e-23
-6.99994e-24
-7.33492e-23
-7.13859e-24
-4.18291e-23
-6.64399e-24
-4.457e-23
-6.53588e-24
-1.64733e-23
-6.12539e-24
-2.03686e-23
-5.76341e-24
5.28388e-25
-5.52917e-24
2.18442e-23
-5.69844e-24
-1.54925e-23
-5.57112e-24
1.05598e-23
-5.31047e-24
2.50682e-23
-5.40958e-24
-5.07261e-24
-5.36573e-24
-2.36549e-23
-4.89731e-24
-2.10127e-23
-4.64485e-24
-2.62064e-23
-4.45303e-24
-2.67125e-23
-4.1629e-24
-3.55324e-23
-3.77951e-24
-4.22912e-23
-3.31091e-24
-4.32542e-23
-3.01935e-24
-4.0584e-23
-2.59583e-24
-3.16792e-23
-2.35674e-24
-2.75734e-23
-2.24662e-24
-2.82399e-23
-2.17429e-24
-3.26139e-23
-2.00587e-24
-3.56151e-23
-1.88245e-24
-3.13978e-23
-1.72432e-24
-4.10363e-23
-1.75444e-24
-2.66358e-23
-1.63354e-24
-3.51238e-23
-1.56504e-24
-4.90979e-23
-1.64118e-24
-4.18945e-23
-1.58221e-24
-3.35574e-23
-1.49796e-24
-3.04517e-23
-1.38879e-24
-2.78806e-23
-1.40251e-24
-1.38573e-23
-1.36484e-24
-2.12442e-23
-1.37126e-24
-2.7254e-23
-1.37378e-24
-2.5195e-23
-1.17725e-24
-1.8323e-23
-1.10276e-24
-1.59961e-23
-1.02299e-24
-1.44678e-23
-9.08936e-25
-1.31233e-23
-7.83939e-25
-7.85871e-24
-6.4745e-25
-7.29473e-24
-5.19285e-25
-6.61678e-24
-4.03362e-25
-1.28167e-23
-3.01819e-25
-5.53835e-24
-1.63786e-25
-5.83397e-24
-7.06192e-26
-3.76652e-24
5.06938e-26
2.18493e-24
1.11196e-25
4.90174e-24
1.90685e-25
4.44725e-25
2.37185e-25
4.75806e-25
2.7845e-25
7.26456e-25
3.18782e-25
-2.73024e-24
3.56507e-25
-6.20838e-25
3.67076e-25
-2.85878e-26
3.41187e-25
-2.39634e-25
3.10962e-25
7.81537e-25
2.50052e-25
2.84827e-24
1.66674e-25
2.73072e-24
5.94259e-26
1.27285e-24
-6.86413e-26
3.16224e-26
-2.0442e-25
1.4342e-25
-3.52717e-25
1.18768e-25
-1.3268e-22
-9.96626e-24
-1.37753e-22
-8.29475e-24
-1.46872e-22
-6.85787e-24
-1.52974e-22
-7.3379e-24
-9.4956e-23
-7.13289e-24
-1.02396e-22
-7.92564e-24
-1.1344e-22
-6.99075e-24
-9.12311e-23
-6.98926e-24
-1.00135e-22
-8.32967e-24
-1.05145e-22
-8.28598e-24
-1.05818e-22
-9.85226e-24
-1.05958e-22
-9.82989e-24
-1.06608e-22
-9.68923e-24
-1.04757e-22
-1.02058e-23
-1.59557e-22
-1.03682e-23
-1.55048e-22
-1.05477e-23
-1.48242e-22
-1.0355e-23
-1.39441e-22
-1.08318e-23
-1.34598e-22
-1.08421e-23
-1.27332e-22
-1.10372e-23
-1.15404e-22
-1.10973e-23
-1.3314e-22
-1.11871e-23
-1.76853e-22
-1.15775e-23
-1.36264e-22
-1.16231e-23
-1.43847e-22
-1.18143e-23
-1.55759e-22
-1.16687e-23
-9.34314e-23
-1.07919e-23
-1.14457e-22
-1.10622e-23
-1.1098e-22
-1.11403e-23
-1.31546e-22
-1.11343e-23
-1.61601e-22
-1.11814e-23
-1.8319e-22
-1.0596e-23
-1.23019e-22
-1.06326e-23
-1.19918e-22
-1.05409e-23
-1.50529e-22
-1.01433e-23
-1.4317e-22
-9.78245e-24
-1.68673e-22
-9.45584e-24
-1.35864e-22
-9.50846e-24
-1.36718e-22
-9.24563e-24
-1.84797e-22
-8.74586e-24
-1.35216e-22
-8.12554e-24
-1.19256e-22
-7.77571e-24
-8.67623e-23
-7.62218e-24
-8.81294e-23
-7.30518e-24
-9.07864e-23
-6.90047e-24
-5.06371e-23
-6.50803e-24
-4.4497e-23
-6.16074e-24
-5.0421e-23
-5.79992e-24
-2.53712e-23
-5.45684e-24
-2.17138e-23
-5.36346e-24
-2.59564e-23
-5.30851e-24
-3.13178e-23
-5.00993e-24
-3.95645e-23
-4.64529e-24
-3.49753e-23
-4.57776e-24
-5.2227e-23
-4.40895e-24
-5.56184e-23
-4.14054e-24
-5.13879e-23
-3.74947e-24
-5.34865e-23
-3.65358e-24
-7.06224e-23
-3.57089e-24
-6.80505e-23
-3.33561e-24
-4.98522e-23
-3.07204e-24
-4.41219e-23
-2.92097e-24
-5.05709e-23
-2.74073e-24
-4.50594e-23
-2.56987e-24
-4.70296e-23
-2.36889e-24
-3.25975e-23
-2.16137e-24
-1.85177e-23
-1.96681e-24
-9.02503e-24
-1.80206e-24
-1.10365e-23
-1.67777e-24
-2.97284e-24
-1.44096e-24
1.08786e-23
-1.3235e-24
1.02166e-23
-1.17223e-24
3.91341e-24
-1.02813e-24
1.43418e-23
-8.7395e-25
1.39893e-23
-7.4749e-25
2.29148e-23
-6.04097e-25
1.92711e-23
-4.79344e-25
1.89252e-23
-3.2193e-25
1.60374e-23
-2.08046e-25
1.56086e-23
-6.95244e-26
4.37463e-24
2.26618e-26
3.54477e-24
1.32122e-25
7.47941e-24
2.408e-25
6.44935e-24
2.99746e-25
3.08954e-24
3.4599e-25
1.88397e-24
3.78639e-25
3.79952e-24
4.01469e-25
2.91135e-24
3.88472e-25
5.15546e-24
3.4746e-25
5.23693e-24
2.67194e-25
4.45092e-24
1.51067e-25
1.78291e-24
1.04537e-26
2.81293e-25
-1.40995e-25
-1.48823e-25
-3.08524e-25
4.83866e-26
-7.04168e-23
-9.33939e-24
-6.65782e-23
-1.00534e-23
-1.02694e-22
-1.03293e-23
-1.38977e-22
-1.03845e-23
-7.08875e-23
-1.01247e-23
-6.67683e-23
-8.62741e-24
-1.00199e-22
-8.4736e-24
-1.06155e-22
-7.33636e-24
-1.18206e-22
-5.6307e-24
-1.58336e-22
-4.40119e-24
-8.22336e-23
-2.61136e-24
-5.86638e-23
-1.2113e-24
-2.75193e-23
-1.22853e-24
-2.96114e-24
-1.1914e-24
-1.05327e-23
-4.55188e-25
1.18117e-23
2.43956e-26
-1.82023e-25
-2.67976e-25
1.03658e-23
-3.12104e-25
-3.71584e-24
-5.69875e-25
1.23968e-23
-1.22953e-24
4.39407e-24
-1.41135e-24
2.408e-23
-1.72941e-24
2.21943e-23
-2.44144e-24
2.33595e-23
-3.08539e-24
7.48191e-23
-3.5082e-24
7.13925e-23
-3.7478e-24
9.53315e-23
-4.18399e-24
9.6452e-23
-5.17909e-24
1.00751e-22
-5.63693e-24
9.84497e-23
-5.66053e-24
1.2412e-22
-6.39214e-24
1.26961e-22
-6.70951e-24
1.13767e-22
-6.85338e-24
1.59879e-22
-7.31489e-24
1.53195e-22
-7.53357e-24
1.13117e-22
-7.52108e-24
8.55963e-23
-7.98046e-24
9.93945e-23
-7.66897e-24
1.06432e-22
-7.52746e-24
1.0203e-22
-7.6005e-24
1.0045e-22
-7.50509e-24
9.22707e-23
-7.27886e-24
8.88312e-23
-7.2706e-24
1.19103e-22
-7.08906e-24
1.07843e-22
-7.14523e-24
9.79427e-23
-7.30857e-24
9.32901e-23
-7.28714e-24
6.42365e-23
-7.32772e-24
5.36811e-23
-7.37119e-24
2.64374e-23
-7.2774e-24
6.93383e-23
-7.06813e-24
4.02947e-23
-7.09516e-24
2.26718e-23
-6.8938e-24
-1.21051e-24
-6.59954e-24
4.90625e-24
-6.31872e-24
3.35053e-24
-6.18244e-24
-3.61361e-23
-5.9367e-24
-3.18961e-23
-5.55659e-24
-2.80208e-23
-5.16361e-24
-1.81561e-23
-4.76395e-24
-1.70567e-23
-4.49837e-24
-5.24606e-24
-4.16996e-24
-1.74626e-23
-3.97038e-24
-1.77236e-23
-3.81576e-24
-1.62752e-24
-3.51239e-24
2.54922e-24
-3.24532e-24
1.21783e-23
-3.01974e-24
1.187e-23
-2.73497e-24
1.14178e-23
-2.50172e-24
1.10713e-23
-2.25902e-24
1.02123e-23
-2.07239e-24
1.38662e-23
-1.92499e-24
9.64534e-24
-1.76469e-24
4.73682e-24
-1.60433e-24
1.5507e-23
-1.45126e-24
4.4113e-24
-1.28776e-24
1.83574e-23
-1.11781e-24
1.8927e-23
-9.67896e-25
1.08462e-23
-8.11445e-25
1.10893e-23
-6.76783e-25
1.10122e-23
-5.15754e-25
1.10445e-23
-4.08081e-25
1.10127e-23
-3.04363e-25
1.11733e-23
-1.98885e-25
7.83091e-24
-1.26948e-25
9.6262e-24
-5.51345e-26
9.41354e-24
-1.37419e-26
6.76037e-24
5.01645e-27
4.33879e-24
-1.44999e-26
1.67663e-24
-4.97668e-26
3.26046e-24
-1.2219e-25
2.00164e-24
-2.17918e-25
5.04049e-25
-3.26059e-25
1.14036e-25
-4.40336e-25
1.05557e-25
-1.58857e-22
-1.55998e-23
-1.60891e-22
-1.59624e-23
-1.91692e-22
-1.57827e-23
-2.45675e-22
-1.55478e-23
-2.02757e-22
-1.48044e-23
-2.57098e-22
-1.62238e-23
-2.49227e-22
-1.54527e-23
-2.36556e-22
-1.49743e-23
-2.83298e-22
-1.40849e-23
-2.73081e-22
-1.152e-23
-2.34885e-22
-1.09801e-23
-2.61955e-22
-9.00385e-24
-2.52737e-22
-8.51305e-24
-1.80236e-22
-7.63981e-24
-1.76504e-22
-7.18266e-24
-1.65322e-22
-7.31383e-24
-1.5267e-22
-7.10332e-24
-1.75565e-22
-6.86749e-24
-1.65643e-22
-7.50555e-24
-1.62074e-22
-7.20743e-24
-1.55241e-22
-8.27031e-24
-2.07683e-22
-8.03492e-24
-2.03323e-22
-7.62465e-24
-1.95935e-22
-7.0965e-24
-1.86316e-22
-6.68627e-24
-2.05347e-22
-6.88781e-24
-1.97284e-22
-7.1295e-24
-2.10937e-22
-6.62066e-24
-2.01657e-22
-6.36368e-24
-2.0006e-22
-6.01496e-24
-1.99458e-22
-5.49536e-24
-1.55267e-22
-5.4241e-24
-1.57773e-22
-4.87984e-24
-1.29216e-22
-4.26054e-24
-1.01573e-22
-3.74922e-24
-1.30674e-22
-3.66185e-24
-7.92009e-23
-3.56938e-24
-3.93611e-23
-3.43258e-24
-4.86925e-23
-3.69795e-24
-2.06426e-23
-3.85319e-24
-6.1405e-23
-3.92708e-24
-6.83579e-23
-3.90503e-24
-2.65843e-23
-3.77925e-24
-9.32846e-24
-3.74977e-24
-4.46157e-23
-4.04322e-24
-3.33975e-23
-3.99149e-24
-2.14296e-23
-4.13848e-24
-3.20304e-23
-4.11876e-24
-3.70867e-23
-3.93747e-24
-4.10002e-23
-3.89936e-24
-8.18429e-25
-3.90054e-24
-2.21631e-23
-3.76237e-24
-1.92832e-23
-3.68371e-24
-2.55123e-23
-3.48109e-24
-1.64631e-23
-3.29712e-24
-3.06875e-23
-3.11244e-24
-6.64308e-24
-2.93403e-24
-9.2732e-24
-2.82022e-24
-1.21901e-23
-2.63884e-24
-1.56158e-23
-2.59355e-24
-1.90317e-23
-2.32094e-24
-3.44291e-23
-2.1234e-24
-3.70664e-23
-1.95505e-24
-2.18022e-23
-1.68817e-24
-1.36054e-23
-1.56982e-24
6.58566e-24
-1.42441e-24
5.07753e-24
-1.34558e-24
5.0272e-24
-1.16807e-24
3.37323e-24
-1.05993e-24
7.21367e-24
-9.47112e-25
1.07006e-23
-8.46363e-25
-1.30677e-24
-6.75614e-25
1.07219e-24
-5.06195e-25
-6.50826e-25
-3.79804e-25
1.7279e-24
-2.1316e-25
1.09596e-23
-5.86093e-26
8.67453e-24
5.69878e-26
1.13181e-23
1.84099e-25
9.43487e-24
2.93538e-25
2.40822e-24
4.19168e-25
6.2674e-25
4.90135e-25
-1.19333e-24
5.61718e-25
-2.98858e-24
6.31501e-25
-4.86471e-24
6.62806e-25
4.1351e-24
6.81222e-25
6.1861e-24
6.64861e-25
8.29238e-24
6.04827e-25
7.17597e-24
5.33504e-25
3.11774e-24
4.16806e-25
8.94567e-25
2.82854e-25
1.4982e-24
1.082e-25
-1.08134e-25
-9.7528e-26
-2.92912e-25
-3.16096e-25
3.41111e-26
-5.4311e-25
5.71654e-26
-8.6533e-23
-9.47733e-24
-1.64199e-24
-9.1921e-24
-2.07586e-24
-9.78284e-24
-6.11144e-24
-1.02844e-23
-7.23899e-23
-1.10211e-23
-1.4132e-23
-9.93278e-24
-7.67774e-23
-9.41255e-24
-5.07653e-23
-8.61358e-24
-4.7478e-23
-7.76051e-24
-7.14033e-23
-6.9997e-24
-1.01756e-23
-6.65005e-24
-7.28606e-23
-6.63832e-24
-4.10648e-23
-6.09398e-24
-4.70847e-23
-5.82944e-24
-6.20597e-23
-6.68341e-24
-7.05743e-23
-6.95225e-24
-7.96093e-23
-8.26603e-24
-1.40463e-22
-9.12601e-24
-1.39688e-22
-8.13412e-24
-1.39826e-22
-8.28663e-24
-1.08326e-22
-8.09046e-24
-9.46048e-23
-8.66785e-24
-7.41742e-23
-8.18247e-24
-5.61139e-23
-7.9512e-24
-6.30469e-23
-7.94957e-24
-4.5638e-23
-7.3009e-24
1.21619e-23
-6.63866e-24
1.71731e-23
-6.29315e-24
4.42853e-23
-6.1025e-24
4.52974e-23
-6.36757e-24
4.66958e-23
-6.02375e-24
6.04662e-23
-6.04522e-24
8.02412e-23
-6.09165e-24
8.15826e-23
-6.23464e-24
5.33723e-23
-6.13626e-24
2.33988e-23
-6.67527e-24
3.04852e-23
-6.06486e-24
-1.93743e-23
-6.1699e-24
-1.35447e-23
-6.00592e-24
1.21151e-23
-5.62191e-24
2.4576e-23
-5.3733e-24
8.63425e-24
-4.90813e-24
1.30161e-23
-4.45676e-24
-4.5018e-24
-4.22779e-24
-2.24696e-24
-3.91758e-24
8.9861e-24
-3.68957e-24
2.47449e-23
-3.04486e-24
3.23011e-23
-2.61943e-24
3.06317e-23
-2.39987e-24
4.23595e-23
-2.18301e-24
5.17367e-23
-1.90581e-24
4.42358e-23
-1.71785e-24
5.62938e-23
-1.38157e-24
6.21274e-23
-1.31754e-24
5.86023e-23
-1.07477e-24
5.60824e-23
-8.40413e-25
3.89478e-23
-6.62546e-25
5.18757e-23
-4.04164e-25
4.9962e-23
-3.12342e-25
6.14881e-23
-1.57416e-25
4.97755e-23
-4.40239e-27
4.47628e-23
8.54188e-26
3.96435e-23
3.78582e-25
3.47178e-23
6.45942e-25
2.98021e-23
7.73227e-25
3.69602e-23
9.95526e-25
2.28673e-23
1.08448e-24
2.95026e-23
1.17027e-24
2.18983e-23
1.26743e-24
1.77156e-23
1.35855e-24
3.1345e-23
1.44684e-24
1.53504e-23
1.4301e-24
1.2781e-23
1.5171e-24
2.22047e-23
1.57358e-24
1.96536e-23
1.6533e-24
1.69548e-23
1.70562e-24
1.46994e-23
1.75091e-24
1.2666e-23
1.78864e-24
1.10585e-23
1.81755e-24
6.966e-24
1.83007e-24
8.04867e-24
1.85264e-24
1.07556e-23
1.84597e-24
9.68168e-24
1.80383e-24
8.70856e-24
1.77075e-24
9.43495e-24
1.69197e-24
8.13153e-24
1.59333e-24
6.59211e-24
1.46006e-24
5.32239e-24
1.3011e-24
6.44577e-24
1.10703e-24
3.98064e-24
8.68832e-25
2.8426e-24
5.9256e-25
1.82242e-24
2.8232e-25
9.82419e-25
-4.07899e-26
2.47925e-25
-3.80424e-25
2.36176e-25
-4.91997e-24
-6.71789e-24
-6.8367e-23
-7.27359e-24
-1.09865e-22
-6.71396e-24
-1.24508e-22
-7.18905e-24
-1.37117e-22
-6.97746e-24
-1.59338e-22
-7.32272e-24
-2.05972e-22
-7.42387e-24
-2.14557e-22
-6.01345e-24
-2.25811e-22
-5.38206e-24
-2.30928e-22
-5.19729e-24
-2.34601e-22
-4.29229e-24
-1.76373e-22
-3.05751e-24
-1.39221e-22
-3.22598e-24
-1.4162e-22
-4.5283e-24
-1.16145e-22
-4.2204e-24
-1.15055e-22
-4.40816e-24
-9.10652e-23
-4.37584e-24
-5.95378e-23
-4.56338e-24
-5.5241e-23
-5.07879e-24
-5.41204e-23
-5.00908e-24