/*--------------------------------*- C++ -*----------------------------------*\
  =========                 |
  \\      /  F ield         | OpenFOAM: The Open Source CFD Toolbox
   \\    /   O peration     | Website:  https://openfoam.org
    \\  /    A nd           | Version:  7
     \\/     M anipulation  |
\*---------------------------------------------------------------------------*/
FoamFile
{
    version     2.0;
    format      ascii;
    class       volScalarField;
    location    "236000";
    object      p;
}
// * * * * * * * * * * * * * * * * * * * * * * * * * * * * * * * * * * * * * //

dimensions      [0 2 -2 0 0 0 0];

internalField   nonuniform List<scalar> 
4783
(
-1.25515e-18
-1.26346e-18
-1.26588e-18
-1.29391e-18
-1.27667e-18
-1.29467e-18
-1.26827e-18
-1.25454e-18
-1.24043e-18
-1.28451e-18
-1.27006e-18
-1.26555e-18
-1.26426e-18
-1.25614e-18
-1.23871e-18
-1.24763e-18
-1.3008e-18
-1.30521e-18
-1.28584e-18
-1.30572e-18
-1.30414e-18
-1.26008e-18
-1.2627e-18
-1.27763e-18
-1.24436e-18
-1.26186e-18
-1.26409e-18
-1.29217e-18
-1.27097e-18
-1.26694e-18
-1.26688e-18
-1.27126e-18
-1.26173e-18
-1.26462e-18
-1.27015e-18
-1.26512e-18
-1.2608e-18
-1.26506e-18
-1.29217e-18
-1.24711e-18
-1.2344e-18
-1.24347e-18
-1.26845e-18
-1.2709e-18
-1.23928e-18
-1.23563e-18
-1.25049e-18
-1.2531e-18
-1.24066e-18
-1.25969e-18
-1.25991e-18
-1.27609e-18
-1.29672e-18
-1.29042e-18
-1.26029e-18
-1.25209e-18
-1.28666e-18
-1.27222e-18
-1.26379e-18
-1.24588e-18
-1.26762e-18
-1.26002e-18
-1.24012e-18
-1.26159e-18
-1.26772e-18
-1.27286e-18
-1.26054e-18
-1.25627e-18
-1.23768e-18
-1.23948e-18
-1.27453e-18
-1.24136e-18
-1.25599e-18
-1.26254e-18
-1.25828e-18
-1.24081e-18
-1.24433e-18
-1.2828e-18
-1.27672e-18
-1.2902e-18
-1.27204e-18
-1.26148e-18
-1.27145e-18
-1.26741e-18
-1.2432e-18
-1.26887e-18
-1.27709e-18
-1.27235e-18
-1.25983e-18
-1.25041e-18
-1.28173e-18
-1.26538e-18
-1.269e-18
-1.26369e-18
-1.26206e-18
-1.25523e-18
-1.22368e-18
-1.2485e-18
-1.26243e-18
-1.27093e-18
-1.26237e-18
-1.241e-18
-1.26439e-18
-1.25262e-18
-1.28691e-18
-1.27577e-18
-1.26836e-18
-1.27339e-18
-1.31058e-18
-1.2906e-18
-1.26132e-18
-1.25962e-18
-1.26945e-18
-1.26673e-18
-1.28541e-18
-1.27554e-18
-1.26218e-18
-1.26585e-18
-1.2618e-18
-1.24645e-18
-1.26482e-18
-1.26888e-18
-1.25438e-18
-1.21833e-18
-1.25896e-18
-1.2663e-18
-1.27111e-18
-1.27491e-18
-1.28999e-18
-1.27122e-18
-1.27951e-18
-1.2714e-18
-1.24905e-18
-1.25908e-18
-1.26005e-18
-1.24621e-18
-1.26796e-18
-1.28189e-18
-1.24596e-18
-1.26253e-18
-1.2848e-18
-1.26608e-18
-1.26843e-18
-1.26838e-18
-1.23765e-18
-1.22025e-18
-1.26763e-18
-1.27901e-18
-1.26665e-18
-1.26533e-18
-1.26601e-18
-1.26861e-18
-1.29216e-18
-1.28676e-18
-1.26852e-18
-1.26871e-18
-1.27091e-18
-1.27952e-18
-1.26072e-18
-1.25141e-18
-1.25911e-18
-1.244e-18
-1.24534e-18
-1.24813e-18
-1.27246e-18
-1.28383e-18
-1.25086e-18
-1.26045e-18
-1.29119e-18
-1.30383e-18
-1.2553e-18
-1.26164e-18
-1.24734e-18
-1.24286e-18
-1.24846e-18
-1.25629e-18
-1.28691e-18
-1.29643e-18
-1.28479e-18
-1.26657e-18
-1.24884e-18
-1.28463e-18
-1.28972e-18
-1.28286e-18
-1.26947e-18
-1.2764e-18
-1.26218e-18
-1.26716e-18
-1.28415e-18
-1.26909e-18
-1.25391e-18
-1.2694e-18
-1.26239e-18
-1.2667e-18
-1.26524e-18
-1.24889e-18
-1.24809e-18
-1.26206e-18
-1.27216e-18
-1.30145e-18
-1.25427e-18
-1.26073e-18
-1.26467e-18
-1.27984e-18
-1.24926e-18
-1.26685e-18
-1.26812e-18
-1.24543e-18
-1.22415e-18
-1.24314e-18
-1.26942e-18
-1.26679e-18
-1.25877e-18
-1.26791e-18
-1.27214e-18
-1.26562e-18
-1.27264e-18
-1.28388e-18
-1.26763e-18
-1.26912e-18
-1.26469e-18
-1.26588e-18
-1.26157e-18
-1.26537e-18
-1.26599e-18
-1.25093e-18
-1.2276e-18
-1.26111e-18
-1.26465e-18
-1.25799e-18
-1.24185e-18
-1.26021e-18
-1.26773e-18
-1.26794e-18
-1.24827e-18
-1.28224e-18
-1.30693e-18
-1.2665e-18
-1.26502e-18
-1.26853e-18
-1.25143e-18
-1.28217e-18
-1.2773e-18
-1.251e-18
-1.25821e-18
-1.26415e-18
-1.28651e-18
-1.29875e-18
-1.27914e-18
-1.26183e-18
-1.26554e-18
-1.26744e-18
-1.2627e-18
-1.27209e-18
-1.28775e-18
-1.28569e-18
-1.2598e-18
-1.25633e-18
-1.30087e-18
-1.25023e-18
-1.25392e-18
-1.26445e-18
-1.24789e-18
-1.26916e-18
-1.25221e-18
-1.27505e-18
-1.26657e-18
-1.23784e-18
-1.26752e-18
-1.26848e-18
-1.26856e-18
-1.24398e-18
-1.26008e-18
-1.26352e-18
-1.26652e-18
-1.28428e-18
-1.29229e-18
-1.27217e-18
-1.26182e-18
-1.26299e-18
-1.27517e-18
-1.25129e-18
-1.28081e-18
-1.27041e-18
-1.2615e-18
-1.26076e-18
-1.26534e-18
-1.26918e-18
-1.2832e-18
-1.27963e-18
-1.28043e-18
-1.25069e-18
-1.26086e-18
-1.24287e-18
-1.24858e-18
-1.24926e-18
-1.25924e-18
-1.26963e-18
-1.28379e-18
-1.26249e-18
-1.24926e-18
-1.26734e-18
-1.28319e-18
-1.2621e-18
-1.27298e-18
-1.27062e-18
-1.26931e-18
-1.27937e-18
-1.27955e-18
-1.26747e-18
-1.2581e-18
-1.27074e-18
-1.26599e-18
-1.25775e-18
-1.24811e-18
-1.26514e-18
-1.27439e-18
-1.26425e-18
-1.25368e-18
-1.2647e-18
-1.24711e-18
-1.24961e-18
-1.26156e-18
-1.26923e-18
-1.25974e-18
-1.24837e-18
-1.26904e-18
-1.26509e-18
-1.26695e-18
-1.26833e-18
-1.28938e-18
-1.27206e-18
-1.24606e-18
-1.23324e-18
-1.23501e-18
-1.26152e-18
-1.25273e-18
-1.26906e-18
-1.27797e-18
-1.26353e-18
-1.2314e-18
-1.24913e-18
-1.27001e-18
-1.2822e-18
-1.27848e-18
-1.2559e-18
-1.27522e-18
-1.26312e-18
-1.26549e-18
-1.26018e-18
-1.2797e-18
-1.25092e-18
-1.25867e-18
-1.26733e-18
-1.24578e-18
-1.25113e-18
-1.26668e-18
-1.25901e-18
-1.2551e-18
-1.24402e-18
-1.2627e-18
-1.2836e-18
-1.26987e-18
-1.26766e-18
-1.26934e-18
-1.2663e-18
-1.25723e-18
-1.27498e-18
-1.26816e-18
-1.27124e-18
-1.29351e-18
-1.24144e-18
-1.27601e-18
-1.27285e-18
-1.28367e-18
-1.27852e-18
-1.25036e-18
-1.25854e-18
-1.27173e-18
-1.26665e-18
-1.26174e-18
-1.25167e-18
-1.26493e-18
-1.26729e-18
-1.27513e-18
-1.25897e-18
-1.25701e-18
-1.27516e-18
-1.28612e-18
-1.27259e-18
-1.26487e-18
-1.25737e-18
-1.26845e-18
-1.26398e-18
-1.26597e-18
-1.26423e-18
-1.25365e-18
-1.25795e-18
-1.23838e-18
-1.28236e-18
-1.26684e-18
-1.25467e-18
-1.27438e-18
-1.27034e-18
-1.26967e-18
-1.27128e-18
-1.24359e-18
-1.24243e-18
-1.2399e-18
-1.27896e-18
-1.2679e-18
-1.2676e-18
-1.26024e-18
-1.26745e-18
-1.27672e-18
-1.26909e-18
-1.26472e-18
-1.27207e-18
-1.26707e-18
-1.26802e-18
-1.2709e-18
-1.26443e-18
-1.2739e-18
-1.28325e-18
-1.27411e-18
-1.2683e-18
-1.25614e-18
-1.27332e-18
-1.26139e-18
-1.26743e-18
-1.28401e-18
-1.27274e-18
-1.2598e-18
-1.27658e-18
-1.27175e-18
-1.25495e-18
-1.26344e-18
-1.26576e-18
-1.26882e-18
-1.26264e-18
-1.26845e-18
-1.25585e-18
-1.26551e-18
-1.27996e-18
-1.2702e-18
-1.25854e-18
-1.26987e-18
-1.27374e-18
-1.27853e-18
-1.26704e-18
-1.27095e-18
-1.26785e-18
-1.26876e-18
-1.27433e-18
-1.27071e-18
-1.2682e-18
-1.2736e-18
-1.26913e-18
-1.25996e-18
-1.27789e-18
-1.26025e-18
-1.25303e-18
-1.28813e-18
-1.27106e-18
-1.26457e-18
-1.27083e-18
-1.27196e-18
-1.26998e-18
-1.272e-18
-1.27136e-18
-1.27145e-18
-1.27131e-18
-1.26935e-18
-1.2783e-18
-1.2716e-18
-1.26252e-18
-1.28841e-18
-1.26e-18
-1.26795e-18
-1.28695e-18
-1.27155e-18
-1.26831e-18
-1.27238e-18
-1.27584e-18
-1.26834e-18
-1.27293e-18
-1.28096e-18
-1.27215e-18
-1.28011e-18
-1.27408e-18
-1.26457e-18
-1.27267e-18
-1.26482e-18
-1.29076e-18
-1.26544e-18
-1.26661e-18
-1.27065e-18
-1.28099e-18
-1.26053e-18
-1.24024e-18
-1.25433e-18
-1.26144e-18
-1.24925e-18
-1.27463e-18
-1.2614e-18
-1.24906e-18
-1.262e-18
-1.26563e-18
-1.25859e-18
-1.25434e-18
-1.26511e-18
-1.26549e-18
-1.25451e-18
-1.2619e-18
-1.26035e-18
-1.25032e-18
-1.27336e-18
-1.28374e-18
-1.28453e-18
-1.27472e-18
-1.2726e-18
-1.27302e-18
-1.28122e-18
-1.28813e-18
-1.27648e-18
-1.27317e-18
-1.26879e-18
-1.26047e-18
-1.25087e-18
-1.25201e-18
-1.26869e-18
-1.26797e-18
-1.26064e-18
-1.26077e-18
-1.24591e-18
-1.29179e-18
-1.27049e-18
-1.27649e-18
-1.26481e-18
-1.27331e-18
-1.26197e-18
-1.22956e-18
-1.22411e-18
-1.25823e-18
-1.27438e-18
-1.25054e-18
-1.25998e-18
-1.26296e-18
-1.26116e-18
-1.26381e-18
-1.26321e-18
-1.26356e-18
-1.27496e-18
-1.27989e-18
-1.26739e-18
-1.26659e-18
-1.26715e-18
-1.26432e-18
-1.26968e-18
-1.27088e-18
-1.26629e-18
-1.26608e-18
-1.26493e-18
-1.26667e-18
-1.26282e-18
-1.25262e-18
-1.27206e-18
-1.27079e-18
-1.26069e-18
-1.26806e-18
-1.28459e-18
-1.26894e-18
-1.26344e-18
-1.25927e-18
-1.26672e-18
-1.25656e-18
-1.27818e-18
-1.27262e-18
-1.28266e-18
-1.24258e-18
-1.25596e-18
-1.26467e-18
-1.25733e-18
-1.24158e-18
-1.27166e-18
-1.26397e-18
-1.26756e-18
-1.25968e-18
-1.24421e-18
-1.2703e-18
-1.23934e-18
-1.26878e-18
-1.27225e-18
-1.26885e-18
-1.26442e-18
-1.26641e-18
-1.26757e-18
-1.26584e-18
-1.27914e-18
-1.27907e-18
-1.26958e-18
-1.25931e-18
-1.26469e-18
-1.27085e-18
-1.271e-18
-1.27292e-18
-1.28141e-18
-1.27303e-18
-1.27095e-18
-1.27109e-18
-1.27253e-18
-1.27782e-18
-1.27353e-18
-1.272e-18
-1.27162e-18
-1.27015e-18
-1.27775e-18
-1.22745e-18
-1.25999e-18
-1.26858e-18
-1.285e-18
-1.25723e-18
-1.2615e-18
-1.28105e-18
-1.24509e-18
-1.25718e-18
-1.26461e-18
-1.26054e-18
-1.2619e-18
-1.28871e-18
-1.24731e-18
-1.25673e-18
-1.25577e-18
-1.2484e-18
-1.25341e-18
-1.27704e-18
-1.26492e-18
-1.26182e-18
-1.27246e-18
-1.26446e-18
-1.26491e-18
-1.26624e-18
-1.27477e-18
-1.2661e-18
-1.25704e-18
-1.27161e-18
-1.26883e-18
-1.27346e-18
-1.27825e-18
-1.27994e-18
-1.26525e-18
-1.26205e-18
-1.25971e-18
-1.25516e-18
-1.2428e-18
-1.25694e-18
-1.26462e-18
-1.26777e-18
-1.25638e-18
-1.24635e-18
-1.25771e-18
-1.28196e-18
-1.24779e-18
-1.25182e-18
-1.23914e-18
-1.25789e-18
-1.26537e-18
-1.27553e-18
-1.26067e-18
-1.26072e-18
-1.23941e-18
-1.25967e-18
-1.24633e-18
-1.261e-18
-1.28117e-18
-1.27654e-18
-1.25948e-18
-1.26286e-18
-1.26278e-18
-1.26093e-18
-1.26501e-18
-1.27096e-18
-1.275e-18
-1.2641e-18
-1.26376e-18
-1.2719e-18
-1.27252e-18
-1.26757e-18
-1.27318e-18
-1.27423e-18
-1.27663e-18
-1.27003e-18
-1.25903e-18
-1.26402e-18
-1.26215e-18
-1.26592e-18
-1.27488e-18
-1.26977e-18
-1.27274e-18
-1.26976e-18
-1.26573e-18
-1.22889e-18
-1.22917e-18
-1.26012e-18
-1.2799e-18
-1.25691e-18
-1.24768e-18
-1.24276e-18
-1.27202e-18
-1.23718e-18
-1.24496e-18
-1.27307e-18
-1.22448e-18
-1.25433e-18
-1.27419e-18
-1.26831e-18
-1.29333e-18
-1.26848e-18
-1.25649e-18
-1.25809e-18
-1.26206e-18
-1.25784e-18
-1.25252e-18
-1.25723e-18
-1.26294e-18
-1.27325e-18
-1.27106e-18
-1.26697e-18
-1.26127e-18
-1.26135e-18
-1.2554e-18
-1.26755e-18
-1.26561e-18
-1.25409e-18
-1.25254e-18
-1.2551e-18
-1.26075e-18
-1.25828e-18
-1.24722e-18
-1.2457e-18
-1.25094e-18
-1.25925e-18
-1.25377e-18
-1.25142e-18
-1.24938e-18
-1.26007e-18
-1.26494e-18
-1.26083e-18
-1.26213e-18
-1.2752e-18
-1.26212e-18
-1.23019e-18
-1.27317e-18
-1.29425e-18
-1.24113e-18
-1.25297e-18
-1.26266e-18
-1.27787e-18
-1.29063e-18
-1.2596e-18
-1.23218e-18
-1.24958e-18
-1.27355e-18
-1.29082e-18
-1.26272e-18
-1.25196e-18
-1.26689e-18
-1.25549e-18
-1.2504e-18
-1.25737e-18
-1.25458e-18
-1.24286e-18
-1.24808e-18
-1.26635e-18
-1.27467e-18
-1.25904e-18
-1.26804e-18
-1.26151e-18
-1.26082e-18
-1.25895e-18
-1.26063e-18
-1.26283e-18
-1.26155e-18
-1.25976e-18
-1.26752e-18
-1.26834e-18
-1.25298e-18
-1.2432e-18
-1.25729e-18
-1.26556e-18
-1.25337e-18
-1.25776e-18
-1.27614e-18
-1.23663e-18
-1.2571e-18
-1.26039e-18
-1.25872e-18
-1.2753e-18
-1.27841e-18
-1.25822e-18
-1.26034e-18
-1.27718e-18
-1.281e-18
-1.26517e-18
-1.26804e-18
-1.28326e-18
-1.26262e-18
-1.24772e-18
-1.25587e-18
-1.25498e-18
-1.24465e-18
-1.25602e-18
-1.25755e-18
-1.25818e-18
-1.25045e-18
-1.25532e-18
-1.25658e-18
-1.25312e-18
-1.24697e-18
-1.25059e-18
-1.25242e-18
-1.25177e-18
-1.25043e-18
-1.25277e-18
-1.243e-18
-1.24223e-18
-1.24256e-18
-1.27997e-18
-1.25167e-18
-1.2211e-18
-1.26134e-18
-1.29216e-18
-1.25967e-18
-1.23556e-18
-1.27421e-18
-1.24996e-18
-1.25323e-18
-1.25428e-18
-1.25551e-18
-1.26011e-18
-1.2712e-18
-1.24492e-18
-1.2684e-18
-1.27082e-18
-1.24653e-18
-1.26629e-18
-1.28395e-18
-1.28224e-18
-1.26446e-18
-1.26437e-18
-1.24512e-18
-1.23658e-18
-1.25344e-18
-1.25585e-18
-1.24897e-18
-1.25431e-18
-1.25476e-18
-1.25279e-18
-1.24776e-18
-1.24573e-18
-1.24918e-18
-1.24742e-18
-1.25856e-18
-1.25081e-18
-1.24974e-18
-1.25858e-18
-1.25052e-18
-1.25531e-18
-1.2511e-18
-1.2352e-18
-1.24469e-18
-1.22852e-18
-1.27806e-18
-1.27047e-18
-1.27187e-18
-1.25431e-18
-1.27052e-18
-1.24147e-18
-1.27275e-18
-1.25871e-18
-1.2503e-18
-1.25681e-18
-1.27009e-18
-1.25462e-18
-1.25265e-18
-1.25476e-18
-1.24875e-18
-1.25107e-18
-1.24441e-18
-1.25233e-18
-1.25252e-18
-1.25317e-18
-1.24654e-18
-1.2555e-18
-1.25384e-18
-1.25613e-18
-1.25504e-18
-1.25648e-18
-1.25656e-18
-1.25257e-18
-1.25283e-18
-1.2532e-18
-1.24965e-18
-1.24874e-18
-1.24912e-18
-1.25515e-18
-1.26787e-18
-1.26061e-18
-1.25441e-18
-1.24633e-18
-1.23766e-18
-1.24666e-18
-1.25602e-18
-1.25709e-18
-1.27309e-18
-1.25507e-18
-1.25433e-18
-1.25012e-18
-1.24476e-18
-1.25336e-18
-1.29274e-18
-1.27569e-18
-1.25657e-18
-1.25213e-18
-1.2585e-18
-1.26658e-18
-1.24226e-18
-1.26124e-18
-1.23632e-18
-1.23346e-18
-1.24534e-18
-1.24939e-18
-1.24542e-18
-1.25896e-18
-1.25946e-18
-1.26727e-18
-1.24665e-18
-1.24364e-18
-1.24942e-18
-1.25189e-18
-1.2507e-18
-1.24478e-18
-1.25507e-18
-1.25214e-18
-1.2521e-18
-1.24573e-18
-1.23754e-18
-1.24614e-18
-1.24956e-18
-1.24223e-18
-1.22017e-18
-1.22204e-18
-1.23598e-18
-1.25277e-18
-1.25558e-18
-1.26438e-18
-1.23345e-18
-1.24378e-18
-1.24757e-18
-1.24926e-18
-1.23241e-18
-1.24881e-18
-1.27307e-18
-1.25653e-18
-1.24544e-18
-1.23344e-18
-1.2481e-18
-1.25366e-18
-1.25532e-18
-1.26436e-18
-1.24097e-18
-1.24583e-18
-1.23645e-18
-1.24696e-18
-1.25034e-18
-1.24925e-18
-1.24919e-18
-1.25065e-18
-1.24894e-18
-1.2475e-18
-1.24391e-18
-1.24894e-18
-1.25119e-18
-1.25713e-18
-1.25187e-18
-1.2496e-18
-1.25963e-18
-1.24098e-18
-1.23815e-18
-1.23892e-18
-1.23379e-18
-1.2536e-18
-1.2637e-18
-1.25242e-18
-1.25126e-18
-1.24496e-18
-1.25487e-18
-1.24712e-18
-1.23129e-18
-1.23965e-18
-1.25253e-18
-1.26024e-18
-1.27594e-18
-1.2627e-18
-1.23151e-18
-1.24608e-18
-1.24807e-18
-1.22896e-18
-1.22454e-18
-1.2331e-18
-1.26994e-18
-1.28545e-18
-1.27504e-18
-1.27057e-18
-1.26756e-18
-1.24917e-18
-1.25168e-18
-1.25878e-18
-1.25035e-18
-1.24679e-18
-1.24425e-18
-1.23536e-18
-1.24545e-18
-1.25531e-18
-1.24706e-18
-1.23483e-18
-1.23939e-18
-1.2352e-18
-1.24062e-18
-1.24189e-18
-1.23947e-18
-1.23364e-18
-1.23713e-18
-1.23763e-18
-1.23883e-18
-1.24391e-18
-1.2455e-18
-1.23592e-18
-1.22657e-18
-1.22899e-18
-1.26152e-18
-1.25237e-18
-1.24362e-18
-1.22578e-18
-1.27333e-18
-1.29555e-18
-1.29397e-18
-1.25365e-18
-1.24878e-18
-1.24806e-18
-1.24608e-18
-1.2312e-18
-1.24404e-18
-1.25348e-18
-1.26667e-18
-1.26908e-18
-1.25646e-18
-1.26087e-18
-1.24712e-18
-1.22212e-18
-1.23529e-18
-1.22822e-18
-1.24501e-18
-1.25314e-18
-1.23855e-18
-1.23718e-18
-1.22948e-18
-1.25008e-18
-1.2394e-18
-1.23812e-18
-1.24658e-18
-1.25464e-18
-1.25455e-18
-1.24487e-18
-1.24077e-18
-1.2374e-18
-1.23695e-18
-1.23837e-18
-1.23546e-18
-1.23164e-18
-1.23038e-18
-1.23709e-18
-1.24502e-18
-1.25093e-18
-1.28423e-18
-1.25835e-18
-1.25367e-18
-1.24439e-18
-1.25372e-18
-1.25376e-18
-1.24714e-18
-1.22529e-18
-1.26234e-18
-1.25318e-18
-1.26559e-18
-1.25526e-18
-1.2533e-18
-1.26517e-18
-1.25125e-18
-1.24354e-18
-1.22914e-18
-1.22799e-18
-1.23162e-18
-1.24056e-18
-1.24284e-18
-1.2425e-18
-1.24298e-18
-1.23327e-18
-1.23293e-18
-1.23752e-18
-1.24155e-18
-1.24313e-18
-1.24413e-18
-1.2256e-18
-1.22839e-18
-1.21601e-18
-1.21552e-18
-1.23125e-18
-1.23673e-18
-1.23913e-18
-1.2406e-18
-1.25108e-18
-1.24071e-18
-1.23728e-18
-1.24492e-18
-1.245e-18
-1.2398e-18
-1.24018e-18
-1.23096e-18
-1.27307e-18
-1.25466e-18
-1.2732e-18
-1.25371e-18
-1.26456e-18
-1.24963e-18
-1.23657e-18
-1.21167e-18
-1.244e-18
-1.24582e-18
-1.23243e-18
-1.25873e-18
-1.25212e-18
-1.24733e-18
-1.24429e-18
-1.23024e-18
-1.24056e-18
-1.24445e-18
-1.24488e-18
-1.24535e-18
-1.2471e-18
-1.25484e-18
-1.25401e-18
-1.24012e-18
-1.23187e-18
-1.23788e-18
-1.23955e-18
-1.23915e-18
-1.23942e-18
-1.23997e-18
-1.24072e-18
-1.24913e-18
-1.22464e-18
-1.22635e-18
-1.21819e-18
-1.22856e-18
-1.23589e-18
-1.2325e-18
-1.2328e-18
-1.23392e-18
-1.22425e-18
-1.23954e-18
-1.2289e-18
-1.23192e-18
-1.23825e-18
-1.21865e-18
-1.22762e-18
-1.25103e-18
-1.24332e-18
-1.23128e-18
-1.2471e-18
-1.24999e-18
-1.26164e-18
-1.25132e-18
-1.24216e-18
-1.20939e-18
-1.21485e-18
-1.24061e-18
-1.23285e-18
-1.25457e-18
-1.23488e-18
-1.24418e-18
-1.25916e-18
-1.25029e-18
-1.25762e-18
-1.2469e-18
-1.24157e-18
-1.23113e-18
-1.22857e-18
-1.2399e-18
-1.23129e-18
-1.23359e-18
-1.23285e-18
-1.23253e-18
-1.22711e-18
-1.21642e-18
-1.2301e-18
-1.23233e-18
-1.2319e-18
-1.23347e-18
-1.23552e-18
-1.23366e-18
-1.23911e-18
-1.25266e-18
-1.23962e-18
-1.23535e-18
-1.23306e-18
-1.22119e-18
-1.23166e-18
-1.24451e-18
-1.24323e-18
-1.21765e-18
-1.27386e-18
-1.25993e-18
-1.25136e-18
-1.24137e-18
-1.24173e-18
-1.25066e-18
-1.25447e-18
-1.24923e-18
-1.24771e-18
-1.24827e-18
-1.26522e-18
-1.26501e-18
-1.25125e-18
-1.26516e-18
-1.25913e-18
-1.24693e-18
-1.23963e-18
-1.22814e-18
-1.23816e-18
-1.24263e-18
-1.25237e-18
-1.25677e-18
-1.25882e-18
-1.24658e-18
-1.25627e-18
-1.25211e-18
-1.23858e-18
-1.23446e-18
-1.23761e-18
-1.2428e-18
-1.25096e-18
-1.23883e-18
-1.22772e-18
-1.21495e-18
-1.23295e-18
-1.25066e-18
-1.24175e-18
-1.24858e-18
-1.23708e-18
-1.2327e-18
-1.22919e-18
-1.22147e-18
-1.22879e-18
-1.23472e-18
-1.23464e-18
-1.23729e-18
-1.23462e-18
-1.28721e-18
-1.28115e-18
-1.27564e-18
-1.24744e-18
-1.22521e-18
-1.24853e-18
-1.26802e-18
-1.24957e-18
-1.24143e-18
-1.24923e-18
-1.26088e-18
-1.23483e-18
-1.24032e-18
-1.24171e-18
-1.231e-18
-1.23448e-18
-1.22225e-18
-1.21995e-18
-1.22196e-18
-1.22298e-18
-1.22548e-18
-1.23554e-18
-1.23757e-18
-1.23728e-18
-1.237e-18
-1.23495e-18
-1.23319e-18
-1.23143e-18
-1.23651e-18
-1.25387e-18
-1.25921e-18
-1.25718e-18
-1.23579e-18
-1.22145e-18
-1.24402e-18
-1.25441e-18
-1.24363e-18
-1.25027e-18
-1.23779e-18
-1.22361e-18
-1.23832e-18
-1.25197e-18
-1.23916e-18
-1.23901e-18
-1.2407e-18
-1.2429e-18
-1.21503e-18
-1.27538e-18
-1.25778e-18
-1.25081e-18
-1.23952e-18
-1.24235e-18
-1.24832e-18
-1.27334e-18
-1.26504e-18
-1.22985e-18
-1.24491e-18
-1.24947e-18
-1.24216e-18
-1.24291e-18
-1.24676e-18
-1.25554e-18
-1.24459e-18
-1.24273e-18
-1.25539e-18
-1.24642e-18
-1.24944e-18
-1.22902e-18
-1.23686e-18
-1.24346e-18
-1.251e-18
-1.22498e-18
-1.23817e-18
-1.25213e-18
-1.22653e-18
-1.23354e-18
-1.23929e-18
-1.21946e-18
-1.22928e-18
-1.23607e-18
-1.23422e-18
-1.23302e-18
-1.2288e-18
-1.21545e-18
-1.22738e-18
-1.2336e-18
-1.23348e-18
-1.2346e-18
-1.23148e-18
-1.22121e-18
-1.22671e-18
-1.22038e-18
-1.23184e-18
-1.21775e-18
-1.25077e-18
-1.24993e-18
-1.23911e-18
-1.20344e-18
-1.23499e-18
-1.22531e-18
-1.27023e-18
-1.26889e-18
-1.24617e-18
-1.26032e-18
-1.2677e-18
-1.25181e-18
-1.24124e-18
-1.24235e-18
-1.2448e-18
-1.23726e-18
-1.2308e-18
-1.24974e-18
-1.24279e-18
-1.24101e-18
-1.23609e-18
-1.24141e-18
-1.24702e-18
-1.22166e-18
-1.21428e-18
-1.23557e-18
-1.25328e-18
-1.24136e-18
-1.23681e-18
-1.23564e-18
-1.23207e-18
-1.24292e-18
-1.25097e-18
-1.24419e-18
-1.24166e-18
-1.24403e-18
-1.25594e-18
-1.24284e-18
-1.2384e-18
-1.23449e-18
-1.22739e-18
-1.25113e-18
-1.24563e-18
-1.24023e-18
-1.24079e-18
-1.24811e-18
-1.26823e-18
-1.2486e-18
-1.24332e-18
-1.24102e-18
-1.21738e-18
-1.24186e-18
-1.22734e-18
-1.26201e-18
-1.25387e-18
-1.24382e-18
-1.22681e-18
-1.24281e-18
-1.25431e-18
-1.22905e-18
-1.24281e-18
-1.25308e-18
-1.22834e-18
-1.23396e-18
-1.23065e-18
-1.24409e-18
-1.26035e-18
-1.21612e-18
-1.22312e-18
-1.26017e-18
-1.26636e-18
-1.2641e-18
-1.24628e-18
-1.24614e-18
-1.25182e-18
-1.22655e-18
-1.24145e-18
-1.25809e-18
-1.2429e-18
-1.22739e-18
-1.23103e-18
-1.22122e-18
-1.2304e-18
-1.24194e-18
-1.25238e-18
-1.24047e-18
-1.24162e-18
-1.25623e-18
-1.26005e-18
-1.25123e-18
-1.22166e-18
-1.21752e-18
-1.23261e-18
-1.2405e-18
-1.25264e-18
-1.23646e-18
-1.22573e-18
-1.23751e-18
-1.24143e-18
-1.27143e-18
-1.26625e-18
-1.24755e-18
-1.26342e-18
-1.26302e-18
-1.23683e-18
-1.22372e-18
-1.22631e-18
-1.23437e-18
-1.24108e-18
-1.23959e-18
-1.21718e-18
-1.23834e-18
-1.24466e-18
-1.25603e-18
-1.24411e-18
-1.23668e-18
-1.23959e-18
-1.25928e-18
-1.24933e-18
-1.25499e-18
-1.24191e-18
-1.24088e-18
-1.23834e-18
-1.22537e-18
-1.23733e-18
-1.24274e-18
-1.24629e-18
-1.25035e-18
-1.2327e-18
-1.24572e-18
-1.23371e-18
-1.25016e-18
-1.24288e-18
-1.2379e-18
-1.23733e-18
-1.23827e-18
-1.23927e-18
-1.2405e-18
-1.24042e-18
-1.24202e-18
-1.24379e-18
-1.24455e-18
-1.24863e-18
-1.22062e-18
-1.25887e-18
-1.22111e-18
-1.22446e-18
-1.27369e-18
-1.26605e-18
-1.22213e-18
-1.24242e-18
-1.24501e-18
-1.22448e-18
-1.23736e-18
-1.23902e-18
-1.22649e-18
-1.24574e-18
-1.25697e-18
-1.2434e-18
-1.24795e-18
-1.22962e-18
-1.23269e-18
-1.21641e-18
-1.22811e-18
-1.22774e-18
-1.26453e-18
-1.24828e-18
-1.24206e-18
-1.24077e-18
-1.24169e-18
-1.24232e-18
-1.24621e-18
-1.26255e-18
-1.26398e-18
-1.24639e-18
-1.24191e-18
-1.24498e-18
-1.26069e-18
-1.25537e-18
-1.22982e-18
-1.23546e-18
-1.23909e-18
-1.24009e-18
-1.23896e-18
-1.23542e-18
-1.24025e-18
-1.24321e-18
-1.24401e-18
-1.24364e-18
-1.24791e-18
-1.25144e-18
-1.2788e-18
-1.24459e-18
-1.24919e-18
-1.24537e-18
-1.24447e-18
-1.26794e-18
-1.24662e-18
-1.22243e-18
-1.24028e-18
-1.25438e-18
-1.2269e-18
-1.24555e-18
-1.25918e-18
-1.24816e-18
-1.27106e-18
-1.26462e-18
-1.24274e-18
-1.22966e-18
-1.23809e-18
-1.23778e-18
-1.23203e-18
-1.21228e-18
-1.23064e-18
-1.24045e-18
-1.2374e-18
-1.2351e-18
-1.23159e-18
-1.2191e-18
-1.23242e-18
-1.23842e-18
-1.24747e-18
-1.26656e-18
-1.23878e-18
-1.25202e-18
-1.24637e-18
-1.2423e-18
-1.24254e-18
-1.24107e-18
-1.24095e-18
-1.24118e-18
-1.24071e-18
-1.24025e-18
-1.23953e-18
-1.23596e-18
-1.22463e-18
-1.23601e-18
-1.24049e-18
-1.23623e-18
-1.22573e-18
-1.28159e-18
-1.25909e-18
-1.24487e-18
-1.27197e-18
-1.25074e-18
-1.24943e-18
-1.24607e-18
-1.25903e-18
-1.24205e-18
-1.22687e-18
-1.24112e-18
-1.26021e-18
-1.24588e-18
-1.23731e-18
-1.23252e-18
-1.25382e-18
-1.24205e-18
-1.24304e-18
-1.24823e-18
-1.21915e-18
-1.22678e-18
-1.21189e-18
-1.23691e-18
-1.25572e-18
-1.2461e-18
-1.25524e-18
-1.25572e-18
-1.24295e-18
-1.25153e-18
-1.24293e-18
-1.23921e-18
-1.2449e-18
-1.25314e-18
-1.2443e-18
-1.23957e-18
-1.23021e-18
-1.24016e-18
-1.24353e-18
-1.24408e-18
-1.24838e-18
-1.25941e-18
-1.24367e-18
-1.22907e-18
-1.24036e-18
-1.2451e-18
-1.24998e-18
-1.25917e-18
-1.24584e-18
-1.24496e-18
-1.24763e-18
-1.25679e-18
-1.28137e-18
-1.22272e-18
-1.26852e-18
-1.25634e-18
-1.26318e-18
-1.24643e-18
-1.24718e-18
-1.24219e-18
-1.2385e-18
-1.24223e-18
-1.24012e-18
-1.22434e-18
-1.22074e-18
-1.23252e-18
-1.22452e-18
-1.21665e-18
-1.23911e-18
-1.24731e-18
-1.24208e-18
-1.2411e-18
-1.24153e-18
-1.25974e-18
-1.25145e-18
-1.23772e-18
-1.2366e-18
-1.23453e-18
-1.23329e-18
-1.24029e-18
-1.25283e-18
-1.24156e-18
-1.2381e-18
-1.23955e-18
-1.24497e-18
-1.25948e-18
-1.26094e-18
-1.24519e-18
-1.23093e-18
-1.23849e-18
-1.2418e-18
-1.24321e-18
-1.24024e-18
-1.23629e-18
-1.2409e-18
-1.2433e-18
-1.24311e-18
-1.24239e-18
-1.23878e-18
-1.22581e-18
-1.22618e-18
-1.24327e-18
-1.22438e-18
-1.21268e-18
-1.25126e-18
-1.26689e-18
-1.24578e-18
-1.24681e-18
-1.24686e-18
-1.24722e-18
-1.24123e-18
-1.2373e-18
-1.2257e-18
-1.23439e-18
-1.22334e-18
-1.22856e-18
-1.2432e-18
-1.25484e-18
-1.24707e-18
-1.24115e-18
-1.23664e-18
-1.23261e-18
-1.22253e-18
-1.25596e-18
-1.2429e-18
-1.23257e-18
-1.22125e-18
-1.2344e-18
-1.2406e-18
-1.25623e-18
-1.26162e-18
-1.26272e-18
-1.26301e-18
-1.26263e-18
-1.2549e-18
-1.23e-18
-1.23726e-18
-1.24261e-18
-1.24334e-18
-1.244e-18
-1.24856e-18
-1.25991e-18
-1.24495e-18
-1.23059e-18
-1.24019e-18
-1.24434e-18
-1.24103e-18
-1.23298e-18
-1.2416e-18
-1.24564e-18
-1.2448e-18
-1.2499e-18
-1.23789e-18
-1.23185e-18
-1.24467e-18
-1.24732e-18
-1.22576e-18
-1.25991e-18
-1.25194e-18
-1.25923e-18
-1.24075e-18
-1.22303e-18
-1.23797e-18
-1.239e-18
-1.22951e-18
-1.25397e-18
-1.24282e-18
-1.23226e-18
-1.25064e-18
-1.22264e-18
-1.2304e-18
-1.22175e-18
-1.26355e-18
-1.26154e-18
-1.22653e-18
-1.2319e-18
-1.23551e-18
-1.2354e-18
-1.23494e-18
-1.23732e-18
-1.23651e-18
-1.23413e-18
-1.23593e-18
-1.23743e-18
-1.23945e-18
-1.23367e-18
-1.22438e-18
-1.23689e-18
-1.23955e-18
-1.23959e-18
-1.24097e-18
-1.23787e-18
-1.22843e-18
-1.23981e-18
-1.24597e-18
-1.25189e-18
-1.2637e-18
-1.25217e-18
-1.24667e-18
-1.25005e-18
-1.25698e-18
-1.27002e-18
-1.24737e-18
-1.22009e-18
-1.23512e-18
-1.24707e-18
-1.24089e-18
-1.24716e-18
-1.24079e-18
-1.22282e-18
-1.23427e-18
-1.22634e-18
-1.25651e-18
-1.24433e-18
-1.22443e-18
-1.22569e-18
-1.23295e-18
-1.21881e-18
-1.25067e-18
-1.23931e-18
-1.22679e-18
-1.23503e-18
-1.24343e-18
-1.23965e-18
-1.23678e-18
-1.23734e-18
-1.23962e-18
-1.23731e-18
-1.24258e-18
-1.25598e-18
-1.24371e-18
-1.24003e-18
-1.23782e-18
-1.23816e-18
-1.23674e-18
-1.22792e-18
-1.24026e-18
-1.25914e-18
-1.25267e-18
-1.25985e-18
-1.24726e-18
-1.24622e-18
-1.25389e-18
-1.23271e-18
-1.23269e-18
-1.22529e-18
-1.23531e-18
-1.23445e-18
-1.22643e-18
-1.23845e-18
-1.24502e-18
-1.22533e-18
-1.23632e-18
-1.23318e-18
-1.2238e-18
-1.26774e-18
-1.249e-18
-1.24427e-18
-1.23433e-18
-1.20829e-18
-1.24139e-18
-1.239e-18
-1.24607e-18
-1.26201e-18
-1.24293e-18
-1.24007e-18
-1.24837e-18
-1.25415e-18
-1.24696e-18
-1.24183e-18
-1.23751e-18
-1.22688e-18
-1.23546e-18
-1.23744e-18
-1.23765e-18
-1.23674e-18
-1.23654e-18
-1.23534e-18
-1.24304e-18
-1.25328e-18
-1.24021e-18
-1.24007e-18
-1.25549e-18
-1.24726e-18
-1.24494e-18
-1.25619e-18
-1.24671e-18
-1.24297e-18
-1.24358e-18
-1.24374e-18
-1.24245e-18
-1.24372e-18
-1.24529e-18
-1.24457e-18
-1.24363e-18
-1.24442e-18
-1.24624e-18
-1.24544e-18
-1.24204e-18
-1.23828e-18
-1.24343e-18
-1.23914e-18
-1.2192e-18
-1.23911e-18
-1.23985e-18
-1.26851e-18
-1.24898e-18
-1.23955e-18
-1.22348e-18
-1.24377e-18
-1.25719e-18
-1.2106e-18
-1.22538e-18
-1.27156e-18
-1.24986e-18
-1.24249e-18
-1.25196e-18
-1.23093e-18
-1.23896e-18
-1.2448e-18
-1.25536e-18
-1.25461e-18
-1.24428e-18
-1.24058e-18
-1.24292e-18
-1.2567e-18
-1.25944e-18
-1.24754e-18
-1.25636e-18
-1.24391e-18
-1.23331e-18
-1.22327e-18
-1.24919e-18
-1.25518e-18
-1.23804e-18
-1.21675e-18
-1.21939e-18
-1.23265e-18
-1.23756e-18
-1.23789e-18
-1.23747e-18
-1.2384e-18
-1.23563e-18
-1.22007e-18
-1.22053e-18
-1.23427e-18
-1.23986e-18
-1.23957e-18
-1.23947e-18
-1.23144e-18
-1.22689e-18
-1.26196e-18
-1.24872e-18
-1.2427e-18
-1.22005e-18
-1.24926e-18
-1.26789e-18
-1.24597e-18
-1.24173e-18
-1.26246e-18
-1.24687e-18
-1.21965e-18
-1.23506e-18
-1.24935e-18
-1.25653e-18
-1.22987e-18
-1.24054e-18
-1.24209e-18
-1.24602e-18
-1.26392e-18
-1.24393e-18
-1.23944e-18
-1.23403e-18
-1.22611e-18
-1.23372e-18
-1.22422e-18
-1.24233e-18
-1.23161e-18
-1.25465e-18
-1.25167e-18
-1.22428e-18
-1.22961e-18
-1.22616e-18
-1.23949e-18
-1.25492e-18
-1.24137e-18
-1.23924e-18
-1.24119e-18
-1.24504e-18
-1.25412e-18
-1.239e-18
-1.22418e-18
-1.23505e-18
-1.23818e-18
-1.24009e-18
-1.2344e-18
-1.22556e-18
-1.23227e-18
-1.23122e-18
-1.23328e-18
-1.22484e-18
-1.20445e-18
-1.27373e-18
-1.2484e-18
-1.23653e-18
-1.24966e-18
-1.27157e-18
-1.24708e-18
-1.24555e-18
-1.24653e-18
-1.23899e-18
-1.2206e-18
-1.22233e-18
-1.23692e-18
-1.23914e-18
-1.2387e-18
-1.25587e-18
-1.25625e-18
-1.23687e-18
-1.2236e-18
-1.22474e-18
-1.24818e-18
-1.24142e-18
-1.24001e-18
-1.25452e-18
-1.23176e-18
-1.23405e-18
-1.23373e-18
-1.2309e-18
-1.23566e-18
-1.23171e-18
-1.22195e-18
-1.2465e-18
-1.24043e-18
-1.23576e-18
-1.23393e-18
-1.23416e-18
-1.23638e-18
-1.23346e-18
-1.2292e-18
-1.22295e-18
-1.23665e-18
-1.23984e-18
-1.24656e-18
-1.22421e-18
-1.2226e-18
-1.23242e-18
-1.23686e-18
-1.23507e-18
-1.23596e-18
-1.23541e-18
-1.23186e-18
-1.27998e-18
-1.24948e-18
-1.24374e-18
-1.24409e-18
-1.24721e-18
-1.24117e-18
-1.25731e-18
-1.24426e-18
-1.24101e-18
-1.23566e-18
-1.23607e-18
-1.22688e-18
-1.23488e-18
-1.22569e-18
-1.23751e-18
-1.23356e-18
-1.2225e-18
-1.23317e-18
-1.23716e-18
-1.23907e-18
-1.24527e-18
-1.23699e-18
-1.22892e-18
-1.22444e-18
-1.23588e-18
-1.24443e-18
-1.23574e-18
-1.21894e-18
-1.22826e-18
-1.23243e-18
-1.23168e-18
-1.23274e-18
-1.23116e-18
-1.23134e-18
-1.23283e-18
-1.2304e-18
-1.22936e-18
-1.21873e-18
-1.22578e-18
-1.23793e-18
-1.25318e-18
-1.24355e-18
-1.22855e-18
-1.23001e-18
-1.22674e-18
-1.23802e-18
-1.23273e-18
-1.23174e-18
-1.23426e-18
-1.22656e-18
-1.25176e-18
-1.24206e-18
-1.24239e-18
-1.24788e-18
-1.24058e-18
-1.23783e-18
-1.22993e-18
-1.23911e-18
-1.24045e-18
-1.22488e-18
-1.23745e-18
-1.25439e-18
-1.24336e-18
-1.25285e-18
-1.25229e-18
-1.22561e-18
-1.23636e-18
-1.25009e-18
-1.24172e-18
-1.23547e-18
-1.22926e-18
-1.23345e-18
-1.23642e-18
-1.23305e-18
-1.23554e-18
-1.23556e-18
-1.23634e-18
-1.23613e-18
-1.24793e-18
-1.23607e-18
-1.23637e-18
-1.25482e-18
-1.24711e-18
-1.2511e-18
-1.23705e-18
-1.23115e-18
-1.22316e-18
-1.24481e-18
-1.24347e-18
-1.24872e-18
-1.23508e-18
-1.22951e-18
-1.23248e-18
-1.23862e-18
-1.22799e-18
-1.23023e-18
-1.23113e-18
-1.23557e-18
-1.24159e-18
-1.26243e-18
-1.24955e-18
-1.25045e-18
-1.24945e-18
-1.26897e-18
-1.22507e-18
-1.21925e-18
-1.25129e-18
-1.24535e-18
-1.26211e-18
-1.25174e-18
-1.21031e-18
-1.23174e-18
-1.21605e-18
-1.20541e-18
-1.23042e-18
-1.23913e-18
-1.25238e-18
-1.24334e-18
-1.25095e-18
-1.24909e-18
-1.23282e-18
-1.22433e-18
-1.23314e-18
-1.23263e-18
-1.2308e-18
-1.23708e-18
-1.24384e-18
-1.24278e-18
-1.25039e-18
-1.23687e-18
-1.23468e-18
-1.22018e-18
-1.21514e-18
-1.22023e-18
-1.22616e-18
-1.22934e-18
-1.22332e-18
-1.2208e-18
-1.23049e-18
-1.23554e-18
-1.22823e-18
-1.22417e-18
-1.22988e-18
-1.23634e-18
-1.23306e-18
-1.23583e-18
-1.23813e-18
-1.24356e-18
-1.23044e-18
-1.22126e-18
-1.24353e-18
-1.26988e-18
-1.27484e-18
-1.27026e-18
-1.23566e-18
-1.21473e-18
-1.22688e-18
-1.23968e-18
-1.24793e-18
-1.2373e-18
-1.21526e-18
-1.22885e-18
-1.2172e-18
-1.21351e-18
-1.23745e-18
-1.25351e-18
-1.24126e-18
-1.23383e-18
-1.23746e-18
-1.23255e-18
-1.22673e-18
-1.23801e-18
-1.23662e-18
-1.23729e-18
-1.24332e-18
-1.23489e-18
-1.23112e-18
-1.22566e-18
-1.24138e-18
-1.24127e-18
-1.23522e-18
-1.23863e-18
-1.23336e-18
-1.23179e-18
-1.23371e-18
-1.2376e-18
-1.2329e-18
-1.23156e-18
-1.23149e-18
-1.22549e-18
-1.23667e-18
-1.23514e-18
-1.2396e-18
-1.24134e-18
-1.24456e-18
-1.2445e-18
-1.23192e-18
-1.22346e-18
-1.22328e-18
-1.23511e-18
-1.24205e-18
-1.2462e-18
-1.27108e-18
-1.24888e-18
-1.24027e-18
-1.23954e-18
-1.2571e-18
-1.24306e-18
-1.25295e-18
-1.22009e-18
-1.21669e-18
-1.23937e-18
-1.25408e-18
-1.23967e-18
-1.24006e-18
-1.25592e-18
-1.25123e-18
-1.22587e-18
-1.24601e-18
-1.24074e-18