/*--------------------------------*- C++ -*----------------------------------*\
  =========                 |
  \\      /  F ield         | OpenFOAM: The Open Source CFD Toolbox
   \\    /   O peration     | Website:  https://openfoam.org
    \\  /    A nd           | Version:  7
     \\/     M anipulation  |
\*---------------------------------------------------------------------------*/
FoamFile
{
    version     2.0;
    format      ascii;
    class       volScalarField;
    location    "236000";
    object      strainRate;
}
// * * * * * * * * * * * * * * * * * * * * * * * * * * * * * * * * * * * * * //

dimensions      [0 0 -1 0 0 0 0];

internalField   nonuniform List<scalar> 
4783
(
0.00332984
0.00319976
0.00315752
0.00309708
0.0030294
0.00295932
0.00288883
0.00281891
0.00275017
0.00268303
0.00261788
0.00255507
0.00249493
0.00243777
0.00238394
0.00233373
0.00228746
0.00224542
0.00220791
0.00217518
0.00214749
0.00212506
0.00406561
0.00367128
0.00361231
0.00353738
0.00345206
0.00336206
0.00327104
0.00318114
0.00309359
0.00300914
0.00292829
0.0028514
0.00277878
0.00271068
0.00264734
0.00258898
0.0025358
0.002488
0.00244574
0.0024092
0.00237851
0.00235381
0.00437297
0.00391077
0.00382367
0.00374248
0.00365938
0.00357353
0.0034863
0.00339928
0.00331379
0.00323076
0.00315087
0.00307464
0.00300246
0.00293465
0.00287151
0.00281328
0.0027602
0.00271246
0.00267026
0.00263376
0.00260311
0.00257844
0.00460257
0.00415207
0.00404637
0.00395251
0.00386409
0.00377752
0.00369169
0.00360679
0.00352347
0.00344242
0.00336428
0.00328957
0.00321871
0.00315206
0.00308994
0.00303262
0.00298032
0.00293329
0.00289169
0.00285571
0.00282549
0.00280116
0.00481518
0.0043863
0.00427474
0.00417259
0.00407778
0.0039877
0.00390066
0.00381594
0.00373351
0.00365365
0.00357677
0.00350328
0.00343357
0.00336798
0.00330683
0.00325039
0.00319889
0.00315255
0.00311158
0.00307613
0.00304636
0.0030224
0.00502154
0.00461362
0.00450115
0.0043954
0.00429631
0.00420276
0.00411356
0.00402786
0.00394529
0.0038658
0.00378958
0.00371689
0.00364802
0.00358327
0.00352291
0.00346721
0.0034164
0.00337069
0.00333028
0.00329532
0.00326596
0.00324232
0.00522497
0.00483612
0.00472411
0.00461724
0.00451596
0.00442003
0.00432887
0.00424187
0.00415864
0.004079
0.00400297
0.00393068
0.00386233
0.00379817
0.00373842
0.00368332
0.00363307
0.00358789
0.00354795
0.00351341
0.0034844
0.00346106
0.00542701
0.00505536
0.00494406
0.00483708
0.0047349
0.00463763
0.00454509
0.00445696
0.00437297
0.00429293
0.0042168
0.00414464
0.00407658
0.00401279
0.00395347
0.00389881
0.00384902
0.00380426
0.00376471
0.00373052
0.00370182
0.00367872
0.00562845
0.00527236
0.00516173
0.00505499
0.00495255
0.00485462
0.00476124
0.0046723
0.00458766
0.00450718
0.00443084
0.00435865
0.00429071
0.00422714
0.0041681
0.00411377
0.00406431
0.00401989
0.00398066
0.00394675
0.00391831
0.00389542
0.00582977
0.0054878
0.00537773
0.00527131
0.00516889
0.0050707
0.00497687
0.0048874
0.00480227
0.00472142
0.00464485
0.00457256
0.00450464
0.00444119
0.00438234
0.00432823
0.00427902
0.00423485
0.00419587
0.0041622
0.00413396
0.00411124
0.00603126
0.00570214
0.00559252
0.00548642
0.00538412
0.00528587
0.00519181
0.00510203
0.00501657
0.00493544
0.00485866
0.00478626
0.00471831
0.00465491
0.00459617
0.00454222
0.00449319
0.00444922
0.00441043
0.00437694
0.00434887
0.00432629
0.00623313
0.00591574
0.00580647
0.00570063
0.00559848
0.00550025
0.0054061
0.00531614
0.00523047
0.00514914
0.00507219
0.00499968
0.00493169
0.0048683
0.00480963
0.00475578
0.00470688
0.00466305
0.00462441
0.00459107
0.00456312
0.00454066
0.00643554
0.00612887
0.00601985
0.00591422
0.00581221
0.00571402
0.00561983
0.00552978
0.00544397
0.00536249
0.00528541
0.00521281
0.00514477
0.00508138
0.00502274
0.00496896
0.00492015
0.00487642
0.00483789
0.00480466
0.00477682
0.00475444
0.00663861
0.00634177
0.00623292
0.00612743
0.00602551
0.00592737
0.00583317
0.00574305
0.00565714
0.00557556
0.00549838
0.0054257
0.0053576
0.00529419
0.00523556
0.00518181
0.00513306
0.00508941
0.00505097
0.00501781
0.00499005
0.00496774
0.00684244
0.00655461
0.00644586
0.00634045
0.00623859
0.00614047
0.00604624
0.00595607
0.00587009
0.00578841
0.00571115
0.00563839
0.00557024
0.0055068
0.00544816
0.00539443
0.00534571
0.00530211
0.00526372
0.00523063
0.00704713
0.00676759
0.00665887
0.00655348
0.00645163
0.00635348
0.00625922
0.00616899
0.00608293
0.00600117
0.00592381
0.00585098
0.00578277
0.00571928
0.00566062
0.00560689
0.00555819
0.00551461
0.00547625
0.00725277
0.00698086
0.0068721
0.00676667
0.00666477
0.00656658
0.00647225
0.00638193
0.00629578
0.00621393
0.00613648
0.00606356
0.00599528
0.00593174
0.00587304
0.00581929
0.00577058
0.00745944
0.00719457
0.0070857
0.00698018
0.00687819
0.00677989
0.00668546
0.00659504
0.00650878
0.00642682
0.00634927
0.00627625
0.00620789
0.00614428
0.00766723
0.00740884
0.00729982
0.00719414
0.00709201
0.00699357
0.006899
0.00680845
0.00672206
0.00663996
0.00656228
0.00648916
0.00787623
0.00762382
0.00751458
0.0074087
0.00730637
0.00720775
0.00711301
0.00702228
0.00693572
0.00685347
0.00808651
0.00783962
0.00773011
0.00762398
0.00752141
0.00742256
0.0073276
0.00723666
0.00714991
0.00829817
0.00805637
0.00794654
0.0078401
0.00773724
0.00763812
0.0075429
0.00745172
0.00851128
0.00827418
0.00816397
0.00805718
0.00795398
0.00785455
0.00775903
0.00872593
0.00849318
0.00838254
0.00827534
0.00817176
0.00807197
0.00894221
0.00871346
0.00860235
0.0084947
0.00839069
0.00829049
0.0091602
0.00893515
0.00882351
0.00871536
0.00861088
0.00938001
0.00915836
0.00904614
0.00893745
0.00960171
0.00938319
0.00927035
0.00916106
0.0098254
0.00960976
0.00949625
0.0100512
0.00983817
0.00972394
0.0102791
0.0100685
0.00995354
0.0105094
0.010301
0.0101852
0.010742
0.0105356
0.0104189
0.0109771
0.0107725
0.0106549
0.0112148
0.0110118
0.0108933
0.0114552
0.0112536
0.0111341
0.0116983
0.011498
0.0113775
0.0119444
0.0117452
0.0116236
0.0121935
0.0119953
0.0118725
0.0124458
0.0122484
0.0121244
0.0127013
0.0125045
0.0123793
0.0129602
0.0127639
0.0126374
0.00332984
0.00406561
0.00437297
0.00460257
0.00481518
0.00502154
0.00522497
0.00542701
0.00562845
0.00582977
0.00603126
0.00623313
0.00643554
0.00663861
0.00684244
0.00704713
0.00725277
0.00745944
0.00766723
0.00787623
0.00808651
0.00829817
0.00851128
0.00872593
0.00894221
0.0091602
0.00938001
0.00960171
0.0098254
0.0100512
0.0102791
0.0105094
0.010742
0.0109771
0.0112148
0.0114552
0.0116983
0.0119444
0.0121935
0.0124458
0.0127013
0.0129602
0.00319976
0.00367128
0.00391077
0.00415207
0.0043863
0.00461362
0.00483612
0.00505536
0.00527236
0.0054878
0.00570214
0.00591574
0.00612887
0.00634177
0.00655461
0.00676759
0.00698086
0.00719457
0.00740884
0.00762382
0.00783962
0.00805637
0.00827418
0.00849318
0.00871346
0.00893516
0.00915836
0.00938319
0.00960976
0.00983817
0.0100685
0.010301
0.0105356
0.0107725
0.0110118
0.0112536
0.011498
0.0117452
0.0119953
0.0122484
0.0125045
0.0127639
0.00315752
0.00361231
0.00382367
0.00404638
0.00427474
0.00450115
0.00472411
0.00494406
0.00516173
0.00537773
0.00559252
0.00580647
0.00601985
0.00623292
0.00644587
0.00665887
0.0068721
0.0070857
0.00729982
0.00751458
0.00773011
0.00794654
0.00816397
0.00838254
0.00860235
0.00882351
0.00904614
0.00927035
0.00949625
0.00972394
0.00995354
0.0101852
0.0104189
0.0106549
0.0108932
0.0111341
0.0113775
0.0116236
0.0118725
0.0121244
0.0123793
0.0126374
0.00309708
0.00353738
0.00374248
0.00395251
0.00417259
0.0043954
0.00461724
0.00483708
0.00505499
0.00527131
0.00548642
0.00570063
0.00591422
0.00612743
0.00634045
0.00655348
0.00676667
0.00698018
0.00719414
0.0074087
0.00762398
0.0078401
0.00805718
0.00827534
0.0084947
0.00871536
0.00893745
0.00916106
0.00938632
0.00961333
0.0098422
0.010073
0.010306
0.0105411
0.0107785
0.0110184
0.0112608
0.0115058
0.0117537
0.0120044
0.0122581
0.012515
0.0030294
0.00345206
0.00365938
0.00386409
0.00407778
0.00429631
0.00451596
0.0047349
0.00495255
0.00516889
0.00538412
0.00559848
0.00581221
0.00602551
0.00623859
0.00645163
0.00666477
0.00687819
0.00709201
0.00730637
0.00752141
0.00773724
0.00795398
0.00817176
0.00839069
0.00861088
0.00883245
0.0090555
0.00928015
0.00950651
0.00973469
0.00996479
0.0101969
0.0104312
0.0106678
0.0109067
0.0111482
0.0113922
0.011639
0.0118887
0.0121413
0.012397
0.00295932
0.00336206
0.00357353
0.00377752
0.0039877
0.00420277
0.00442003
0.00463763
0.00485462
0.0050707
0.00528587
0.00550025
0.00571402
0.00592737
0.00614047
0.00635349
0.00656658
0.00677989
0.00699358
0.00720776
0.00742256
0.00763812
0.00785455
0.00807197
0.00829049
0.00851024
0.00873131
0.00895383
0.00917791
0.00940365
0.00963117
0.00986057
0.010092
0.0103255
0.0105612
0.0107993
0.0110398
0.0112829
0.0115287
0.0117773
0.0120288
0.0122834
0.00288883
0.00327104
0.0034863
0.00369169
0.00390066
0.00411356
0.00432887
0.00454509
0.00476124
0.00497687
0.00519181
0.0054061
0.00561984
0.00583317
0.00604625
0.00625922
0.00647225
0.00668546
0.00689901
0.00711301
0.0073276
0.0075429
0.00775903
0.00797611
0.00819425
0.00841358
0.00863419
0.00885621
0.00907974
0.0093049
0.0095318
0.00976054
0.00999124
0.010224
0.010459
0.0106962
0.0109359
0.0111781
0.0114229
0.0116705
0.011921
0.0121745
0.00281891
0.00318114
0.00339929
0.00360679
0.00381594
0.00402786
0.00424188
0.00445696
0.00467231
0.00488741
0.00510204
0.00531614
0.00552978
0.00574305
0.00595608
0.00616899
0.00638194
0.00659505
0.00680845
0.00702228
0.00723667
0.00745172
0.00766757
0.00788434
0.00810212
0.00832105
0.00854123
0.00876278
0.0089858
0.00921041
0.00943672
0.00966484
0.00989488
0.0101269
0.0103612
0.0105976
0.0108365
0.0110778
0.0113217
0.0115684
0.0118179
0.0120704
0.00275017
0.00309359
0.00331379
0.00352347
0.00373351
0.00394529
0.00415864
0.00437297
0.00458766
0.00480227
0.00501658
0.00523047
0.00544397
0.00565715
0.00587009
0.00608293
0.00629579
0.00650879
0.00672206
0.00693573
0.00714991
0.00736474
0.00758033
0.00779679
0.00801425
0.00823281
0.00845259
0.00867369
0.00889624
0.00912033
0.00934609
0.00957362
0.00980303
0.0100344
0.010268
0.0105037
0.0107418
0.0109823
0.0112254
0.0114712
0.0117198
0.0119713
0.00268303
0.00300914
0.00323076
0.00344242
0.00365365
0.00386581
0.004079
0.00429293
0.00450718
0.00472143
0.00493544
0.00514914
0.00536249
0.00557556
0.00578842
0.00600117
0.00621393
0.00642682
0.00663996
0.00685347
0.00706748
0.00728209
0.00749743
0.00771362
0.00793077
0.00814898
0.00836838
0.00858908
0.00881118
0.00903479
0.00926004
0.00948702
0.00971585
0.00994664
0.0101795
0.0104146
0.0106519
0.0108917
0.011134
0.0113789
0.0116267
0.0118773
0.00261788
0.00292829
0.00315087
0.00336428
0.00357677
0.00378959
0.00400297
0.0042168
0.00443084
0.00464485
0.00485866
0.00507219
0.00528542
0.00549838
0.00571115
0.00592382
0.00613649
0.00634927
0.00656229
0.00677565
0.00698949
0.0072039
0.00741902
0.00763495
0.00785181
0.0080697
0.00828875
0.00850907
0.00873075
0.00895393
0.00917869
0.00940516
0.00963345
0.00986367
0.0100959
0.0103303
0.010567
0.0108061
0.0110476
0.0112918
0.0115387
0.0117885
0.00255507
0.0028514
0.00307464
0.00328957
0.00350328
0.00371689
0.00393068
0.00414464
0.00435865
0.00457256
0.00478626
0.00499968
0.00521282
0.0054257
0.00563839
0.00585098
0.00606357
0.00627626
0.00648916
0.00670239
0.00691607
0.0071303
0.00734521
0.0075609
0.0077775
0.0079951
0.00821383
0.00843379
0.0086551
0.00887786
0.00910218
0.00932818
0.00955597
0.00978565
0.0100173
0.0102512
0.0104872
0.0107256
0.0109665
0.01121
0.0114561
0.0117051
0.0119571
0.00249493
0.00277878
0.00300246
0.00321871
0.00343357
0.00364802
0.00386234
0.00407658
0.00429071
0.00450464
0.00471831
0.00493169
0.00514477
0.0053576
0.00557024
0.00578277
0.00599529
0.00620789
0.00642069
0.0066338
0.00684734
0.00706141
0.00727613
0.0074916
0.00770796
0.00792529
0.00814372
0.00836336
0.00858432
0.0088067
0.00903062
0.00925619
0.00948351
0.0097127
0.00994388
0.0101771
0.0104126
0.0106504
0.0108907
0.0111335
0.0113789
0.0116272
0.0118784
0.0121326
0.00243778
0.00271068
0.00293465
0.00315206
0.00336799
0.00358327
0.00379817
0.00401279
0.00422714
0.00444119
0.00465491
0.0048683
0.00508138
0.00529419
0.0055068
0.00571929
0.00593175
0.00614428
0.006357
0.00657
0.00678341
0.00699733
0.00721188
0.00742716
0.0076433
0.00786039
0.00807855
0.0082979
0.00851853
0.00874057
0.00896412
0.00918929
0.00941619
0.00964493
0.00987563
0.0101084
0.0103433
0.0105806
0.0108202
0.0110624
0.0113073
0.0115549
0.0118054
0.0120589
0.00238394
0.00264734
0.00287151
0.00308994
0.00330683
0.00352291
0.00373842
0.00395347
0.00416811
0.00438234
0.00459617
0.00480963
0.00502274
0.00523556
0.00544816
0.00566063
0.00587305
0.00608553
0.00629817
0.00651109
0.00672439
0.00693818
0.00715257
0.00736769
0.00758362
0.0078005
0.00801842
0.0082375
0.00845785
0.00867957
0.00890278
0.00912759
0.00935411
0.00958244
0.00981271
0.010045
0.0102795
0.0105162
0.0107553
0.010997
0.0112412
0.0114882
0.0117381
0.011991
0.012247
0.00233373
0.00258898
0.00281329
0.00303262
0.00325039
0.00346721
0.00368332
0.00389882
0.00411378
0.00432823
0.00454222
0.00475578
0.00496896
0.00518182
0.00539443
0.0056069
0.0058193
0.00603174
0.00624433
0.00645717
0.00667037
0.00688405
0.00709831
0.00731327
0.00752904
0.00774572
0.00796342
0.00818227
0.00840235
0.0086238
0.00884671
0.00907119
0.00929736
0.00952533
0.00975521
0.0099871
0.0102211
0.0104574
0.0106961
0.0109372
0.0111809
0.0114274
0.0116767
0.0119289
0.0121843
0.00228746
0.0025358
0.0027602
0.00298033
0.00319889
0.00341641
0.00363308
0.00384902
0.00406432
0.00427902
0.0044932
0.00470688
0.00492015
0.00513307
0.00534572
0.00555819
0.00577059
0.00598301
0.00619555
0.00640833
0.00662146
0.00683504
0.00704919
0.00726402
0.00747963
0.00769614
0.00791365
0.00813228
0.00835214
0.00857334
0.00879598
0.00902017
0.00924604
0.00947367
0.0097032
0.00993473
0.0101684
0.0104042
0.0106425
0.0108831
0.0111264
0.0113724
0.0116211
0.0118729
0.0121277
0.0123857
0.00224542
0.002488
0.00271246
0.00293329
0.00315256
0.0033707
0.00358789
0.00380426
0.00401989
0.00423486
0.00444922
0.00466305
0.00487643
0.00508942
0.00530212
0.00551462
0.00572702
0.00593942
0.00615194
0.00636468
0.00657774
0.00679124
0.00700529
0.00722
0.00743548
0.00765184
0.00786919
0.00808764
0.0083073
0.00852827
0.00875068
0.00897462
0.00920021
0.00942756
0.00965678
0.00988798
0.0101213
0.0103568
0.0105946
0.0108349
0.0110777
0.0113233
0.0115716
0.0118229
0.0120772
0.0123347
0.0125955
0.00220791
0.00244574
0.00267026
0.00289169
0.00311158
0.00333028
0.00354795
0.00376471
0.00398066
0.00419588
0.00441043
0.00462441
0.0048379
0.00505097
0.00526373
0.00547626
0.00568868
0.00590108
0.00611358
0.00632628
0.00653929
0.00675273
0.0069667
0.00718131
0.00739668
0.00761291
0.00783012
0.00804841
0.00826789
0.00848868
0.00871088
0.0089346
0.00915995
0.00938705
0.009616
0.00984692
0.0100799
0.0103151
0.0105526
0.0107926
0.011035
0.0112802
0.0115281
0.011779
0.0120329
0.0122899
0.0125503
0.00217518
0.0024092
0.00263376
0.00285571
0.00307614
0.00329532
0.00351341
0.00373052
0.00394676
0.00416221
0.00437695
0.00459107
0.00480467
0.00501782
0.00523063
0.00544321
0.00565565
0.00586805
0.00608054
0.00629321
0.00650619
0.00671957
0.00693347
0.00714801
0.00736328
0.00757941
0.00779649
0.00801465
0.00823399
0.00845461
0.00867664
0.00890017
0.00912533
0.00935221
0.00958093
0.00981161
0.0100444
0.0102793
0.0105165
0.0107561
0.0109983
0.0112431
0.0114907
0.0117412
0.0119948
0.0122515
0.0125114
0.00214749
0.00237851
0.00260311
0.00282549
0.00304637
0.00326596
0.00348441
0.00370182
0.00391831
0.00413396
0.00434887
0.00456313
0.00477682
0.00499005
0.00520292
0.00541554
0.005628
0.00584042
0.0060529
0.00626555
0.0064785
0.00669184
0.00690569
0.00712016
0.00733536
0.0075514
0.00776838
0.00798643
0.00820565
0.00842614
0.00864802
0.0088714
0.00909639
0.0093231
0.00955163
0.00978211
0.0100146
0.0102493
0.0104863
0.0107257
0.0109676
0.0112122
0.0114595
0.0117097
0.011963
0.0122193
0.012479
0.00212506
0.00235381
0.00257844
0.00280116
0.0030224
0.00324232
0.00346106
0.00367873
0.00389542
0.00411125
0.00432629
0.00454066
0.00475444
0.00496775
0.00518067
0.00539332
0.0056058
0.00581823
0.00603071
0.00624336
0.00645628
0.00666959
0.0068834
0.00709782
0.00731296
0.00752893
0.00774584
0.0079638
0.00818292
0.0084033
0.00862507
0.00884833
0.00907318
0.00929975
0.00952814
0.00975846
0.00999082
0.0102253
0.0104622
0.0107014
0.0109431
0.0111874
0.0114345
0.0116845
0.0119375
0.0121936
0.0124529
0.0127157
0.00210807
0.00233519
0.00255984
0.00278283
0.00300433
0.00322451
0.00344347
0.00366132
0.00387818
0.00409414
0.00430929
0.00452375
0.0047376
0.00495096
0.00516392
0.0053766
0.0055891
0.00580154
0.00601402
0.00622666
0.00643957
0.00665286
0.00686664
0.00708102
0.00729612
0.00751204
0.00772889
0.00794678
0.00816583
0.00838614
0.00860783
0.00883099
0.00905575
0.00928221
0.00951048
0.00974068
0.00997292
0.0102073
0.010444
0.010683
0.0109246
0.0111688
0.0114157
0.0116655
0.0119183
0.0121742
0.0124334
0.012696
0.00209665
0.00232273
0.0025474
0.00277056
0.00299225
0.00321259
0.0034317
0.00364968
0.00386665
0.0040827
0.00429793
0.00451244
0.00472635
0.00493974
0.00515273
0.00536543
0.00557795
0.00579039
0.00600288
0.00621551
0.00642841
0.00664169
0.00685545
0.00706981
0.00728487
0.00750076
0.00771757
0.00793543
0.00815443
0.00837469
0.00859631
0.00881942
0.00904411
0.0092705
0.0094987
0.00972882
0.00996098
0.0101953
0.0104319
0.0106708
0.0109123
0.0111563
0.0114032
0.0116528
0.0119055
0.0121613
0.0124204
0.0126828
0.0129488
0.00209092
0.00231648
0.00254117
0.00276441
0.00298619
0.00320662
0.0034258
0.00364385
0.00386087
0.00407697
0.00429224
0.00450678
0.00472071
0.00493412
0.00514713
0.00535984
0.00557237
0.00578481
0.0059973
0.00620993
0.00642283
0.0066361
0.00684985
0.00706419
0.00727925
0.00749511
0.00771191
0.00792974
0.00814872
0.00836895
0.00859055
0.00881362
0.00903828
0.00926464
0.0094928
0.00972288
0.009955
0.0101893
0.0104258
0.0106647
0.0109061
0.0111501
0.0113969
0.0116465
0.0118991
0.0121549
0.0124139
0.0126762
0.0129421
0.00209092
0.00231648
0.00254117
0.00276441
0.00298619
0.00320662
0.0034258
0.00364385
0.00386087
0.00407697
0.00429224
0.00450678
0.00472071
0.00493412
0.00514713
0.00535984
0.00557237
0.00578481
0.0059973
0.00620993
0.00642283
0.0066361
0.00684985
0.00706419
0.00727925
0.00749511
0.00771191
0.00792974
0.00814872
0.00836895
0.00859055
0.00881362
0.00903828
0.00926464
0.0094928
0.00972288
0.009955
0.0101893
0.0104258
0.0106647
0.0109061
0.0111501
0.0113969
0.0116465
0.0118991
0.0121549
0.0124139
0.0126762
0.0129421
0.0132117
0.00209665
0.00232273
0.0025474
0.00277056
0.00299225
0.00321259
0.0034317
0.00364968
0.00386665
0.0040827
0.00429793
0.00451244
0.00472635
0.00493974
0.00515273
0.00536543
0.00557795
0.00579039
0.00600288
0.00621551
0.00642841
0.00664169
0.00685545
0.00706981
0.00728487
0.00750076
0.00771757
0.00793543
0.00815443
0.00837469
0.00859631
0.00881942
0.00904411
0.0092705
0.0094987
0.00972882
0.00996098
0.0101953
0.0104319
0.0106708
0.0109123
0.0111563
0.0114032
0.0116528
0.0119055
0.0121613
0.0124204
0.0126828
0.0129488
0.0132184
0.00210807
0.00233519
0.00255984
0.00278283
0.00300433
0.00322451
0.00344347
0.00366132
0.00387818
0.00409414
0.00430929
0.00452375
0.0047376
0.00495096
0.00516392
0.0053766
0.0055891
0.00580154
0.00601402
0.00622666
0.00643957
0.00665286
0.00686664
0.00708102
0.00729612
0.00751204
0.00772889
0.00794678
0.00816583
0.00838614
0.00860783
0.00883099
0.00905575
0.00928221
0.00951048
0.00974068
0.00997292
0.0102073
0.010444
0.010683
0.0109246
0.0111688
0.0114157
0.0116655
0.0119183
0.0121742
0.0124334
0.012696
0.0129621
0.0132319
0.00212506
0.00235381
0.00257844
0.00280116
0.0030224
0.00324232
0.00346106
0.00367873
0.00389542
0.00411125
0.00432629
0.00454066
0.00475444
0.00496775
0.00518067
0.00539332
0.0056058
0.00581823
0.00603071
0.00624336
0.00645628
0.00666959
0.0068834
0.00709782
0.00731296
0.00752893
0.00774584
0.0079638
0.00818292
0.0084033
0.00862507
0.00884833
0.00907318
0.00929975
0.00952814
0.00975846
0.00999082
0.0102253
0.0104622
0.0107014
0.0109431
0.0111874
0.0114345
0.0116845
0.0119375
0.0121936
0.0124529
0.0127157
0.012982
0.013252
0.00214749
0.00237851
0.00260311
0.00282549
0.00304637
0.00326596
0.0034844
0.00370182
0.00391831
0.00413396
0.00434887
0.00456313
0.00477682
0.00499005
0.00520292
0.00541554
0.005628
0.00584042
0.0060529
0.00626556
0.0064785
0.00669184
0.00690569
0.00712016
0.00733536
0.0075514
0.00776839
0.00798643
0.00820565
0.00842614
0.00864802
0.0088714
0.00909639
0.0093231
0.00955163
0.00978211
0.0100146
0.0102494
0.0104863
0.0107257
0.0109676
0.0112122
0.0114595
0.0117097
0.011963
0.0122193
0.012479
0.012742
0.0130086
0.0132789
0.00217518
0.0024092
0.00263376
0.00285571
0.00307613
0.00329532
0.00351341
0.00373052
0.00394676
0.0041622
0.00437695
0.00459107
0.00480467
0.00501782
0.00523063
0.00544321
0.00565565
0.00586805
0.00608054
0.00629322
0.00650619
0.00671957
0.00693348
0.00714801
0.00736328
0.00757941
0.0077965
0.00801465
0.00823399
0.00845461
0.00867664
0.00890017
0.00912533
0.00935221
0.00958094
0.00981161
0.0100444
0.0102793
0.0105165
0.0107561
0.0109983
0.0112431
0.0114907
0.0117412
0.0119948
0.0122515
0.0125114
0.0127748
0.0130418
0.0133124
0.00220791
0.00244574
0.00267026
0.00289169
0.00311158
0.00333028
0.00354795
0.00376471
0.00398066
0.00419587
0.00441043
0.00462441
0.0048379
0.00505097
0.00526373
0.00547626
0.00568868
0.00590108
0.00611358
0.00632628
0.00653929
0.00675273
0.0069667
0.00718131
0.00739668
0.00761291
0.00783012
0.00804841
0.00826789
0.00848868
0.00871088
0.0089346
0.00915995
0.00938705
0.009616
0.00984692
0.0100799
0.0103151
0.0105526
0.0107926
0.011035
0.0112802
0.0115281
0.011779
0.0120329
0.0122899
0.0125503
0.0128141
0.0130815
0.0133526
0.00224542
0.002488
0.00271246
0.00293329
0.00315256
0.0033707
0.00358789
0.00380426
0.00401989
0.00423486
0.00444922
0.00466305
0.00487643
0.00508942
0.00530212
0.00551462
0.00572702
0.00593943
0.00615194
0.00636468
0.00657774
0.00679124
0.00700529
0.00722
0.00743548
0.00765184
0.00786919
0.00808764
0.0083073
0.00852827
0.00875068
0.00897462
0.00920021
0.00942756
0.00965678
0.00988798
0.0101213
0.0103568
0.0105946
0.0108349
0.0110777
0.0113233
0.0115716
0.0118229
0.0120772
0.0123347
0.0125955
0.0128598
0.0131277
0.0133993
0.00228746
0.0025358
0.0027602
0.00298033
0.00319889
0.0034164
0.00363307
0.00384902
0.00406432
0.00427902
0.00449319
0.00470688
0.00492015
0.00513307
0.00534572
0.00555819
0.00577059
0.00598301
0.00619555
0.00640833
0.00662146
0.00683504
0.00704919
0.00726402
0.00747963
0.00769614
0.00791365
0.00813229
0.00835214
0.00857334
0.00879598
0.00902018
0.00924604
0.00947368
0.0097032
0.00993473
0.0101684
0.0104042
0.0106425
0.0108831
0.0111264
0.0113724
0.0116211
0.0118729
0.0121277
0.0123857
0.0126471
0.0129119
0.0131803
0.0134525
0.00233373
0.00258898
0.00281328
0.00303262
0.00325039
0.00346721
0.00368332
0.00389882
0.00411377
0.00432823
0.00454222
0.00475578
0.00496896
0.00518182
0.00539443
0.0056069
0.0058193
0.00603174
0.00624433
0.00645717
0.00667037
0.00688405
0.00709832
0.00731327
0.00752904
0.00774572
0.00796342
0.00818227
0.00840236
0.0086238
0.00884671
0.00907119
0.00929736
0.00952533
0.00975521
0.0099871
0.0102211
0.0104574
0.0106961
0.0109372
0.0111809
0.0114274
0.0116767
0.0119289
0.0121843
0.0124429
0.0127049
0.0129703
0.0132394
0.0135123
0.00238394
0.00264734
0.00287151
0.00308994
0.00330683
0.00352291
0.00373842
0.00395347
0.00416811
0.00438234
0.00459617
0.00480963
0.00502274
0.00523556
0.00544816
0.00566063
0.00587305
0.00608553
0.00629817
0.00651109
0.00672439
0.00693818
0.00715258
0.00736769
0.00758362
0.0078005
0.00801842
0.0082375
0.00845785
0.00867957
0.00890279
0.00912759
0.00935411
0.00958245
0.00981271
0.010045
0.0102795
0.0105162
0.0107554
0.010997
0.0112412
0.0114882
0.0117381
0.011991
0.012247
0.0125062
0.0127688
0.013035
0.0133048
0.0135784
0.00243777
0.00271068
0.00293465
0.00315206
0.00336799
0.00358327
0.00379817
0.00401279
0.00422714
0.00444119
0.00465491
0.0048683
0.00508138
0.00529419
0.0055068
0.00571929
0.00593175
0.00614428
0.006357
0.00657
0.00678341
0.00699733
0.00721188
0.00742716
0.0076433
0.00786039
0.00807856
0.0082979
0.00851854
0.00874057
0.00896412
0.00918929
0.00941619
0.00964494
0.00987563
0.0101084
0.0103433
0.0105806
0.0108202
0.0110624
0.0113073
0.0115549
0.0118054
0.0120589
0.0123156
0.0125755
0.0128389
0.0131058
0.0133764
0.0136508
0.00249493
0.00277878
0.00300246
0.00321871
0.00343357
0.00364802
0.00386234
0.00407658
0.00429071
0.00450464
0.00471831
0.00493169
0.00514477
0.0053576
0.00557024
0.00578277
0.00599529
0.00620789
0.00642069
0.00663381
0.00684734
0.00706141
0.00727613
0.00749161
0.00770796
0.00792529
0.00814373
0.00836337
0.00858432
0.0088067
0.00903062
0.00925619
0.00948351
0.00971271
0.00994388
0.0101771
0.0104126
0.0106504
0.0108907
0.0111335
0.0113789
0.0116272
0.0118784
0.0121326
0.0123901
0.0126508
0.012915
0.0131827
0.0134542
0.0137295
0.00255507
0.0028514
0.00307464
0.00328957
0.00350328
0.00371689
0.00393068
0.00414464
0.00435865
0.00457256
0.00478626
0.00499968
0.00521282
0.0054257
0.00563839
0.00585098
0.00606357
0.00627626
0.00648916
0.00670239
0.00691607
0.0071303
0.00734521
0.00756091
0.0077775
0.0079951
0.00821383
0.00843379
0.0086551
0.00887786
0.00910218
0.00932818
0.00955597
0.00978565
0.0100173
0.0102512
0.0104872
0.0107256
0.0109665
0.01121
0.0114561
0.0117051
0.0119571
0.0122121
0.0124703
0.0127319
0.012997
0.0132656
0.013538
0.0138143
0.00261788
0.00292829
0.00315087
0.00336428
0.00357677
0.00378958
0.00400297
0.0042168
0.00443084
0.00464485
0.00485866
0.00507219
0.00528542
0.00549838
0.00571115
0.00592382
0.00613649
0.00634927
0.00656229
0.00677566
0.00698949
0.0072039
0.00741902
0.00763495
0.00785181
0.00806971
0.00828876
0.00850907
0.00873076
0.00895393
0.00917869
0.00940517
0.00963346
0.00986367
0.0100959
0.0103303
0.010567
0.0108061
0.0110476
0.0112918
0.0115387
0.0117885
0.0120413
0.0122972
0.0125563
0.0128188
0.0130848
0.0133544
0.0136278
0.0139052
0.00268303
0.00300914
0.00323076
0.00344242
0.00365365
0.00386581
0.004079
0.00429293
0.00450718
0.00472143
0.00493544
0.00514914
0.00536249
0.00557556
0.00578842
0.00600117
0.00621393
0.00642682
0.00663996
0.00685347
0.00706748
0.00728209
0.00749744
0.00771362
0.00793077
0.00814898
0.00836838
0.00858908
0.00881118
0.00903479
0.00926004
0.00948702
0.00971585
0.00994664
0.0101795
0.0104146
0.0106519
0.0108917
0.011134
0.0113789
0.0116267
0.0118773
0.0121309
0.0123877
0.0126478
0.0129113
0.0131783
0.013449
0.0137235
0.014002
0.00275017
0.00309359
0.00331379
0.00352347
0.00373351
0.00394529
0.00415864
0.00437297
0.00458766
0.00480227
0.00501658
0.00523047
0.00544397
0.00565715
0.00587009
0.00608293
0.00629579
0.00650879
0.00672206
0.00693573
0.00714991
0.00736474
0.00758033
0.0077968
0.00801425
0.00823281
0.00845259
0.00867369
0.00889624
0.00912034
0.00934609
0.00957362
0.00980304
0.0100344
0.010268
0.0105037
0.0107418
0.0109823
0.0112254
0.0114712
0.0117198
0.0119713
0.0122259
0.0124836
0.0127447
0.0130092
0.0132773
0.0135492
0.0138249
0.0141046
0.00281891
0.00318114
0.00339928
0.00360679
0.00381594
0.00402786
0.00424188
0.00445696
0.0046723
0.0048874
0.00510204
0.00531614
0.00552978
0.00574305
0.00595608
0.00616899
0.00638194
0.00659505
0.00680845
0.00702228
0.00723667
0.00745172
0.00766758
0.00788434
0.00810213
0.00832105
0.00854124
0.00876278
0.00898581
0.00921042
0.00943673
0.00966484
0.00989488
0.0101269
0.0103612
0.0105976
0.0108365
0.0110778
0.0113217
0.0115684
0.0118179
0.0120704
0.012326
0.0125848
0.0128469
0.0131126
0.0133818
0.0136549
0.0139318
0.0142128
0.00288883
0.00327104
0.0034863
0.00369169
0.00390066
0.00411356
0.00432887
0.00454509
0.00476124
0.00497687
0.00519181
0.0054061
0.00561984
0.00583317
0.00604625
0.00625922
0.00647225
0.00668546
0.00689901
0.00711301
0.0073276
0.0075429
0.00775903
0.00797611
0.00819425
0.00841358
0.00863419
0.00885621
0.00907975
0.0093049
0.0095318
0.00976054
0.00999124
0.010224
0.010459
0.0106962
0.0109359
0.0111781
0.0114229
0.0116705
0.011921
0.0121745
0.0124311
0.012691
0.0129543
0.0132211
0.0134916
0.0137659
0.0140442
0.0143265
0.00295932
0.00336206
0.00357353
0.00377752
0.0039877
0.00420276
0.00442003
0.00463763
0.00485462
0.0050707
0.00528587
0.00550025
0.00571402
0.00592737
0.00614047
0.00635349
0.00656658
0.0067799
0.00699358
0.00720776
0.00742256
0.00763812
0.00785455
0.00807197
0.00829049
0.00851024
0.00873132
0.00895384
0.00917791
0.00940365
0.00963117
0.00986057
0.010092
0.0103255
0.0105612
0.0107993
0.0110398
0.0112829
0.0115287
0.0117773
0.0120288
0.0122834
0.0125411
0.0128022
0.0130667
0.0133348
0.0136066
0.0138822
0.0141618
0.0144456
0.0030294
0.00345206
0.00365938
0.00386409
0.00407778
0.00429631
0.00451596
0.0047349
0.00495255
0.00516889
0.00538412
0.00559848
0.00581221
0.00602552
0.0062386
0.00645163
0.00666478
0.00687819
0.00709201
0.00730637
0.00752141
0.00773724
0.00795398
0.00817176
0.00839069
0.00861088
0.00883245
0.0090555
0.00928015
0.00950651
0.00973469
0.00996479
0.0101969
0.0104312
0.0106678
0.0109067
0.0111482
0.0113922
0.011639
0.0118887
0.0121413
0.012397
0.0126559
0.0129182
0.0131839
0.0134533
0.0137265
0.0140035
0.0142846
0.0145699
0.00309708
0.00353738
0.00374248
0.00395251
0.00417259
0.0043954
0.00461724
0.00483708
0.00505499
0.00527131
0.00548642
0.00570063
0.00591422
0.00612743
0.00634045
0.00655348
0.00676667
0.00698018
0.00719415
0.0074087
0.00762398
0.0078401
0.00805718
0.00827534
0.0084947
0.00871536
0.00893745
0.00916106
0.00938632
0.00961333
0.0098422
0.010073
0.010306
0.0105411
0.0107785
0.0110184
0.0112608
0.0115058
0.0117537
0.0120044
0.0122581
0.012515
0.0127752
0.0130388
0.0133058
0.0135766
0.0138512
0.0141297
0.0144123
0.0146992
0.00315752
0.00361231
0.00382367
0.00404637
0.00427474
0.00450115
0.00472411
0.00494406
0.00516173
0.00537773
0.00559252
0.00580647
0.00601986
0.00623292
0.00644587
0.00665887
0.0068721
0.00708571
0.00729982
0.00751458
0.00773011
0.00794654
0.00816397
0.00838254
0.00860235
0.00882351
0.00904615
0.00927035
0.00949625
0.00972394
0.00995354
0.0101852
0.0104189
0.0106549
0.0108933
0.0111341
0.0113775
0.0116236
0.0118725
0.0121244
0.0123793
0.0126374
0.0128989
0.0131638
0.0134322
0.0137044
0.0139805