/*--------------------------------*- C++ -*----------------------------------*\
  =========                 |
  \\      /  F ield         | OpenFOAM: The Open Source CFD Toolbox
   \\    /   O peration     | Website:  https://openfoam.org
    \\  /    A nd           | Version:  7
     \\/     M anipulation  |
\*---------------------------------------------------------------------------*/
FoamFile
{
    version     2.0;
    format      ascii;
    class       volVectorField;
    location    "236000";
    object      U;
}
// * * * * * * * * * * * * * * * * * * * * * * * * * * * * * * * * * * * * * //

dimensions      [0 1 -1 0 0 0 0];

internalField   nonuniform List<vector> 
4783
(
(8.1063e-19 -1.14325e-18 -0.0159652)
(5.38792e-19 -6.36599e-19 -0.0159757)
(7.00629e-19 -2.80969e-19 -0.0159855)
(1.02677e-18 -4.28007e-19 -0.0159949)
(7.2775e-19 -8.52537e-19 -0.0160036)
(4.03539e-19 -1.17517e-18 -0.0160118)
(3.5425e-19 -1.33785e-18 -0.0160195)
(2.25525e-19 -1.05983e-18 -0.0160268)
(1.26621e-19 -5.46501e-19 -0.0160335)
(3.65473e-19 -4.35166e-19 -0.0160397)
(7.38735e-19 -7.97763e-19 -0.0160455)
(5.16352e-19 -1.03582e-18 -0.0160508)
(3.52336e-19 -1.11992e-18 -0.0160557)
(4.55293e-19 -1.01288e-18 -0.0160601)
(4.23303e-19 -6.82656e-19 -0.0160641)
(1.45483e-20 -2.98664e-19 -0.0160678)
(-3.31831e-19 -3.88885e-19 -0.016071)
(-2.74784e-19 -7.19396e-19 -0.0160738)
(-3.82084e-19 -5.19751e-19 -0.0160763)
(-6.75542e-19 -3.10073e-19 -0.0160784)
(-8.66323e-19 -4.6243e-19 -0.0160801)
(-1.07668e-18 -1.78228e-19 -0.0160815)
(9.55845e-19 -1.34125e-18 -0.0159473)
(1.00493e-18 -1.03106e-18 -0.0159575)
(1.09183e-18 -7.22316e-19 -0.0159675)
(1.21288e-18 -4.47771e-19 -0.0159771)
(1.11847e-18 -3.91437e-19 -0.0159862)
(1.03178e-18 -6.20926e-19 -0.0159948)
(7.92178e-19 -9.28197e-19 -0.0160029)
(3.36005e-19 -9.15949e-19 -0.0160105)
(9.93358e-20 -7.99131e-19 -0.0160176)
(3.47635e-19 -7.94956e-19 -0.0160242)
(5.06091e-19 -7.96288e-19 -0.0160303)
(3.01427e-19 -7.39295e-19 -0.016036)
(5.32767e-20 -9.11016e-19 -0.0160412)
(-4.62609e-20 -1.0247e-18 -0.0160459)
(-9.14841e-20 -8.25298e-19 -0.0160502)
(-5.24461e-20 -5.08286e-19 -0.0160541)
(9.11589e-20 -7.72771e-19 -0.0160576)
(1.67207e-19 -1.02132e-18 -0.0160606)
(-2.45775e-20 -3.77359e-19 -0.0160633)
(-2.62365e-19 1.32878e-19 -0.0160655)
(-4.96389e-19 1.75414e-19 -0.0160674)
(-8.34453e-19 3.01921e-19 -0.0160689)
(1.07083e-18 -1.6273e-18 -0.0159278)
(8.74039e-19 -1.25524e-18 -0.0159384)
(7.55958e-19 -9.32579e-19 -0.0159487)
(8.41266e-19 -7.16476e-19 -0.0159585)
(8.13465e-19 -5.62882e-19 -0.0159679)
(1.07579e-18 -4.64786e-19 -0.0159768)
(9.23947e-19 -4.15627e-19 -0.0159853)
(7.26716e-19 -3.95683e-19 -0.0159932)
(7.45243e-19 -6.27017e-19 -0.0160007)
(8.9142e-19 -9.13433e-19 -0.0160076)
(6.39543e-19 -8.29745e-19 -0.0160141)
(2.15659e-19 -5.14365e-19 -0.0160201)
(1.09152e-19 -6.44717e-19 -0.0160256)
(-2.4311e-20 -9.76594e-19 -0.0160306)
(-1.79126e-19 -9.95209e-19 -0.0160352)
(-2.68083e-19 -6.54972e-19 -0.0160394)
(-3.28015e-19 -6.20624e-19 -0.0160431)
(-5.56569e-19 -8.14394e-19 -0.0160463)
(-7.54885e-19 -3.16887e-19 -0.0160492)
(-9.05474e-19 2.1844e-19 -0.0160516)
(-9.83719e-19 3.16508e-19 -0.0160536)
(-9.41739e-19 3.61723e-19 -0.0160552)
(6.49752e-19 -1.33647e-18 -0.0159072)
(4.30356e-19 -1.35636e-18 -0.0159184)
(1.50516e-19 -1.18689e-18 -0.0159289)
(5.02639e-20 -8.64389e-19 -0.0159391)
(1.40389e-19 -8.81846e-19 -0.0159488)
(4.78939e-19 -8.9505e-19 -0.0159581)
(5.85756e-19 -6.59146e-19 -0.0159668)
(8.37433e-19 -6.00973e-19 -0.0159751)
(9.88529e-19 -6.66918e-19 -0.0159829)
(9.51202e-19 -5.82067e-19 -0.0159902)
(4.24071e-19 -2.99839e-19 -0.015997)
(2.75468e-19 -2.75729e-19 -0.0160033)
(5.45799e-19 -4.65362e-19 -0.0160091)
(5.81299e-19 -5.95863e-19 -0.0160144)
(-1.38432e-20 -7.32446e-19 -0.0160193)
(-4.4457e-19 -5.17874e-19 -0.0160236)
(-7.10195e-19 -4.59528e-19 -0.0160276)
(-9.11332e-19 -6.89576e-19 -0.016031)
(-1.1633e-18 -2.31753e-19 -0.0160341)
(-1.21058e-18 3.43203e-19 -0.0160366)
(-1.25134e-18 2.6529e-19 -0.0160388)
(-9.92196e-19 2.96931e-19 -0.0160405)
(5.56455e-19 -1.13086e-18 -0.0158858)
(2.19941e-19 -1.02929e-18 -0.0158974)
(-6.31124e-20 -1.05802e-18 -0.0159083)
(-1.08005e-19 -1.04065e-18 -0.0159189)
(-8.19908e-20 -1.05777e-18 -0.0159289)
(-1.67994e-20 -1.17704e-18 -0.0159385)
(2.13117e-19 -1.05764e-18 -0.0159475)
(2.40032e-19 -8.86163e-19 -0.0159561)
(3.19975e-19 -8.33818e-19 -0.0159642)
(2.70634e-19 -5.89182e-19 -0.0159718)
(5.55131e-20 -3.23223e-19 -0.0159789)
(3.56504e-19 -5.71968e-19 -0.0159855)
(7.46312e-19 -8.30189e-19 -0.0159916)
(6.61114e-19 -2.59865e-19 -0.0159972)
(-9.01337e-20 8.65417e-20 -0.0160023)
(-5.3693e-19 1.26569e-20 -0.0160069)
(-6.34484e-19 -6.97171e-20 -0.0160111)
(-7.98844e-19 -3.84832e-19 -0.0160147)
(-1.11121e-18 -1.84755e-19 -0.0160179)
(-9.17457e-19 3.24188e-19 -0.0160207)
(-7.50555e-19 1.72304e-19 -0.0160229)
(-4.76735e-19 -1.00791e-19 -0.0160247)
(5.14845e-19 -1.05065e-18 -0.0158636)
(2.81779e-19 -9.53841e-19 -0.0158755)
(2.78154e-19 -8.97974e-19 -0.0158869)
(2.02409e-19 -8.41513e-19 -0.0158978)
(1.42328e-19 -9.08502e-19 -0.0159081)
(1.85582e-19 -1.24911e-18 -0.015918)
(2.82987e-19 -1.14961e-18 -0.0159274)
(6.57586e-20 -9.61617e-19 -0.0159363)
(-6.30798e-20 -1.00667e-18 -0.0159448)
(-2.44743e-19 -7.11365e-19 -0.0159526)
(-2.76933e-19 -4.75881e-19 -0.01596)
(2.85557e-21 -8.22045e-19 -0.0159669)
(2.23987e-19 -9.74494e-19 -0.0159733)
(-2.53216e-19 -1.32324e-19 -0.0159791)
(-7.01092e-19 4.29612e-19 -0.0159845)
(-8.38501e-19 1.32924e-19 -0.0159893)
(-4.43965e-19 -2.35649e-20 -0.0159937)
(-3.80021e-19 -9.11095e-20 -0.0159975)
(-4.19035e-19 -1.71283e-19 -0.0160009)
(-3.39139e-19 -5.49665e-21 -0.0160037)
(-2.04566e-19 -5.989e-20 -0.0160061)
(-1.43175e-19 -3.61041e-19 -0.016008)
(2.47448e-19 -8.73791e-19 -0.0158405)
(7.71823e-20 -1.006e-18 -0.0158529)
(2.09741e-19 -1.05121e-18 -0.0158646)
(1.68888e-19 -9.06222e-19 -0.0158759)
(3.37916e-19 -7.63401e-19 -0.0158866)
(4.7824e-19 -1.14173e-18 -0.0158968)
(3.16991e-19 -1.16463e-18 -0.0159065)
(1.73358e-19 -7.18312e-19 -0.0159157)
(8.6624e-20 -7.36876e-19 -0.0159244)
(-1.55273e-19 -6.96843e-19 -0.0159326)
(-3.76992e-19 -5.62882e-19 -0.0159403)
(-3.92545e-19 -9.59828e-19 -0.0159474)
(-5.57081e-19 -9.91544e-19 -0.015954)
(-1.21556e-18 2.90705e-20 -0.0159601)
(-1.33194e-18 5.55723e-19 -0.0159657)
(-1.05735e-18 -1.04801e-19 -0.0159708)
(-4.52124e-19 -4.45089e-19 -0.0159753)
(-2.13687e-19 -3.20039e-19 -0.0159793)
(2.53867e-20 -1.52684e-19 -0.0159829)
(5.40057e-20 1.76369e-19 -0.0159859)
(1.32084e-19 9.17358e-20 -0.0159884)
(-1.32861e-19 -2.47373e-19 -0.0159904)
(-1.88548e-19 -4.25514e-19 -0.0158168)
(-2.08071e-19 -9.41612e-19 -0.0158295)
(5.46602e-20 -1.12098e-18 -0.0158416)
(1.96767e-19 -1.17207e-18 -0.0158532)
(3.97882e-19 -1.02507e-18 -0.0158642)
(2.10489e-19 -1.05421e-18 -0.0158748)
(-6.35294e-20 -1.23103e-18 -0.0158848)
(-8.73205e-20 -1.0556e-18 -0.0158943)
(1.71417e-21 -7.37742e-19 -0.0159033)
(-2.1291e-19 -3.71563e-19 -0.0159118)
(-2.60698e-19 -1.465e-19 -0.0159197)
(-4.56599e-19 -5.57671e-19 -0.0159271)
(-1.11198e-18 -7.14633e-19 -0.015934)
(-1.47801e-18 8.82576e-21 -0.0159403)
(-9.89806e-19 3.74715e-19 -0.0159461)
(-6.52001e-19 -3.85814e-19 -0.0159514)
(-5.57431e-19 -7.99706e-19 -0.0159561)
(-5.4786e-19 -6.28168e-19 -0.0159603)
(-4.58179e-19 -5.0652e-19 -0.015964)
(-2.85746e-19 -9.76639e-20 -0.0159671)
(-6.34955e-20 2.56579e-19 -0.0159697)
(-3.36906e-19 4.3099e-19 -0.0159718)
(-1.52221e-19 -4.43046e-21 -0.0157923)
(1.50279e-19 -7.62899e-19 -0.0158054)
(6.50489e-19 -1.17951e-18 -0.0158178)
(5.91707e-19 -1.20752e-18 -0.0158297)
(2.32849e-19 -9.21109e-19 -0.0158411)
(1.04806e-19 -7.85843e-19 -0.015852)
(2.93331e-19 -9.82353e-19 -0.0158623)
(-1.7511e-20 -1.10082e-18 -0.0158721)
(-1.05671e-19 -1.00379e-18 -0.0158814)
(3.13118e-20 -6.93996e-19 -0.0158902)
(1.91803e-19 -1.65362e-19 -0.0158984)
(-2.17758e-19 7.47815e-20 -0.015906)
(-8.77606e-19 -2.72147e-19 -0.0159131)
(-9.42574e-19 -3.6259e-19 -0.0159197)
(-5.47589e-19 4.93196e-20 -0.0159257)
(-5.59025e-19 -1.10835e-19 -0.0159311)
(-9.47887e-19 -5.25411e-19 -0.015936)
(-8.97245e-19 -5.29002e-19 -0.0159404)
(-1.07378e-18 -5.60137e-19 -0.0159442)
(-1.19606e-18 -3.54707e-19 -0.0159475)
(-1.00582e-18 1.02241e-19 -0.0159502)
(-1.06055e-18 3.44215e-19 -0.0159523)
(2.77129e-19 -9.76235e-20 -0.0157672)
(8.67375e-19 -5.86602e-19 -0.0157806)
(9.81938e-19 -1.04874e-18 -0.0157933)
(5.58116e-19 -1.01116e-18 -0.0158056)
(2.47225e-19 -9.77483e-19 -0.0158173)
(6.76919e-19 -1.02195e-18 -0.0158285)
(8.97169e-19 -8.37803e-19 -0.0158391)
(3.85466e-19 -6.80394e-19 -0.0158492)
(1.54756e-19 -9.79807e-19 -0.0158588)
(5.42525e-20 -9.65528e-19 -0.0158678)
(-2.7584e-19 -2.35871e-19 -0.0158762)
(-7.33296e-19 4.02288e-19 -0.0158841)
(-8.43107e-19 1.39755e-19 -0.0158914)
(-8.47572e-19 -2.80456e-19 -0.0158982)
(-7.52119e-19 3.38859e-20 -0.0159044)
(-9.79739e-19 1.49441e-19 -0.0159101)
(-1.32656e-18 -4.31687e-19 -0.0159151)
(-9.10312e-19 -5.13313e-19 -0.0159196)
(-9.84725e-19 -2.66314e-19 -0.0159236)
(-1.17008e-18 -2.69689e-19 -0.015927)
(-1.11943e-18 5.89876e-20 -0.0159298)
(-1.38442e-18 2.37938e-19 -0.015932)
(4.30332e-19 -4.81448e-19 -0.0157414)
(9.5889e-19 -5.55064e-19 -0.0157551)
(7.62788e-19 -7.95873e-19 -0.0157682)
(4.86391e-19 -8.37e-19 -0.0157807)
(2.12597e-19 -1.08805e-18 -0.0157928)
(3.6629e-19 -1.37082e-18 -0.0158042)
(1.8453e-19 -1.02152e-18 -0.0158152)
(1.24482e-19 -4.79765e-19 -0.0158255)
(-8.4606e-20 -6.60309e-19 -0.0158354)
(-5.64286e-19 -7.89302e-19 -0.0158446)
(-1.17397e-18 -2.53284e-19 -0.0158533)
(-1.46574e-18 2.79707e-19 -0.0158614)
(-1.26318e-18 5.27878e-20 -0.015869)
(-1.026e-18 -3.7552e-19 -0.015876)
(-8.92513e-19 6.25147e-20 -0.0158824)
(-8.96874e-19 5.45286e-19 -0.0158882)
(-9.99864e-19 -3.99699e-19 -0.0158934)
(-5.95558e-19 -8.10235e-19 -0.0158981)
(-7.21734e-19 -2.99428e-19 -0.0159022)
(-7.87116e-19 -1.99777e-19 -0.0159057)
(-8.93905e-19 3.09976e-19 -0.0159086)
(-1.18985e-18 8.51995e-19 -0.0159109)
(4.30099e-19 -6.40228e-19 -0.015715)
(5.58662e-19 -8.07772e-19 -0.015729)
(4.5412e-19 -8.148e-19 -0.0157424)
(5.03124e-19 -5.67123e-19 -0.0157552)
(3.35629e-19 -6.73008e-19 -0.0157676)
(4.47321e-19 -1.16727e-18 -0.0157793)
(1.44894e-19 -1.31243e-18 -0.0157905)
(1.94742e-19 -7.12179e-19 -0.0158012)
(-1.28656e-19 -3.88191e-19 -0.0158113)
(-6.02706e-19 -3.94256e-19 -0.0158208)
(-1.23175e-18 -4.79949e-20 -0.0158297)
(-1.45272e-18 3.16211e-19 -0.0158381)
(-1.2124e-18 -1.11422e-20 -0.0158458)
(-7.69593e-19 -5.39609e-19 -0.015853)
(-8.17601e-19 -2.66965e-19 -0.0158596)
(-6.83169e-19 4.70072e-19 -0.0158656)
(-4.16731e-19 -2.52111e-19 -0.015871)
(-5.25606e-19 -7.17059e-19 -0.0158758)
(-1.03123e-18 -1.72909e-19 -0.01588)
(-1.01836e-18 -1.39362e-19 -0.0158836)
(-1.1491e-18 3.76827e-19 -0.0158866)
(-1.0774e-18 1.1349e-18 -0.015889)
(3.19328e-19 -6.42657e-19 -0.015688)
(1.88119e-19 -7.81657e-19 -0.0157023)
(2.41372e-19 -1.13012e-18 -0.015716)
(3.19484e-19 -9.4554e-19 -0.0157291)
(6.09668e-19 -7.03356e-19 -0.0157417)
(1.02383e-18 -8.3454e-19 -0.0157537)
(6.28761e-19 -1.01407e-18 -0.0157652)
(2.73814e-19 -6.89218e-19 -0.0157761)
(-1.3859e-19 -2.16884e-19 -0.0157865)
(-4.60459e-19 -4.90723e-20 -0.0157962)
(-8.60505e-19 2.50826e-19 -0.0158054)
(-8.55296e-19 4.27989e-19 -0.0158139)
(-4.68106e-19 -4.35052e-20 -0.0158219)
(-2.35383e-19 -4.76408e-19 -0.0158293)
(-6.6604e-19 -1.92412e-19 -0.0158361)
(-8.69288e-19 2.87656e-19 -0.0158422)
(-4.63755e-19 -1.74366e-19 -0.0158478)
(-7.90514e-19 -3.03843e-19 -0.0158527)
(-1.15239e-18 3.09283e-20 -0.0158571)
(-1.10779e-18 -1.29244e-19 -0.0158608)
(-1.35482e-18 2.92772e-19 -0.0158639)
(-1.15885e-18 1.00632e-18 -0.0158663)
(6.77284e-20 -5.93393e-19 -0.0156604)
(2.15698e-19 -6.51719e-19 -0.015675)
(3.07789e-19 -9.34154e-19 -0.0156889)
(2.46303e-19 -1.18441e-18 -0.0157024)
(8.07498e-19 -1.14081e-18 -0.0157152)
(9.33512e-19 -9.81315e-19 -0.0157275)
(5.88165e-19 -8.07676e-19 -0.0157393)
(-2.01527e-19 -6.31877e-19 -0.0157504)
(-6.68647e-19 -2.3776e-19 -0.015761)
(-8.49383e-19 -7.28852e-20 -0.015771)
(-8.38417e-19 2.04125e-19 -0.0157804)
(-4.6852e-19 3.53726e-19 -0.0157892)
(1.81013e-19 6.35641e-20 -0.0157973)
(-1.69279e-19 -2.27181e-19 -0.0158049)
(-8.90163e-19 7.51861e-20 -0.0158118)
(-1.06229e-18 3.28263e-19 -0.0158182)
(-5.56018e-19 -1.53193e-19 -0.0158239)
(-7.47822e-19 -1.72571e-19 -0.0158289)
(-8.69583e-19 1.36844e-19 -0.0158334)
(-8.50849e-19 7.76877e-20 -0.0158372)
(-1.14226e-18 3.90894e-19 -0.0158404)
(-9.7652e-19 8.24649e-19 -0.0158429)
(2.04783e-19 -5.13996e-19 -0.0156323)
(3.70951e-19 -7.12172e-19 -0.0156471)
(3.83048e-19 -8.85879e-19 -0.0156613)
(4.94931e-19 -1.18427e-18 -0.015675)
(9.80119e-19 -1.22584e-18 -0.0156881)
(6.76231e-19 -1.02619e-18 -0.0157007)
(2.06339e-19 -5.75898e-19 -0.0157127)
(-5.76068e-19 -2.9394e-19 -0.0157241)
(-9.20224e-19 -1.56575e-19 -0.0157349)
(-1.27357e-18 -2.41578e-19 -0.0157451)
(-1.24082e-18 -2.03105e-19 -0.0157547)
(-6.04666e-19 -1.77923e-19 -0.0157637)
(2.34863e-20 2.80301e-20 -0.0157721)
(-7.14832e-19 2.80387e-19 -0.0157798)
(-1.41896e-18 2.99356e-19 -0.0157869)
(-1.23067e-18 1.13548e-19 -0.0157934)
(-7.51091e-19 -2.87813e-19 -0.0157993)
(-9.65087e-19 -7.07664e-20 -0.0158045)
(-9.17847e-19 1.69641e-19 -0.015809)
(-7.41076e-19 1.58284e-19 -0.0158129)
(4.15232e-19 -5.1027e-19 -0.0156036)
(3.74147e-19 -5.56674e-19 -0.0156187)
(4.14976e-19 -7.97801e-19 -0.0156331)
(5.44195e-19 -1.373e-18 -0.0156471)
(6.15845e-19 -1.47845e-18 -0.0156605)
(-2.782e-20 -1.13145e-18 -0.0156733)
(-6.1451e-19 -6.73304e-19 -0.0156855)
(-5.39713e-19 -1.34153e-19 -0.0156971)
(-9.92771e-19 1.53e-19 -0.0157082)
(-1.4513e-18 5.18086e-20 -0.0157186)
(-1.40354e-18 -3.76995e-19 -0.0157284)
(-9.36544e-19 -6.75849e-19 -0.0157376)
(-8.72643e-19 -1.43756e-19 -0.0157462)
(-1.48983e-18 5.82069e-19 -0.0157541)
(-1.75649e-18 4.37443e-19 -0.0157614)
(-1.18064e-18 1.90402e-20 -0.015768)
(-8.81765e-19 -2.92422e-19 -0.015774)
(-1.24878e-18 -1.1235e-19 -0.0157793)
(-1.08392e-18 -9.48807e-21 -0.015784)
(3.93592e-19 -6.2195e-19 -0.0155744)
(4.31915e-19 -5.92642e-19 -0.0155897)
(5.29655e-19 -5.96986e-19 -0.0156044)
(4.36143e-19 -1.0975e-18 -0.0156186)
(-8.41991e-20 -1.42939e-18 -0.0156322)
(-8.33779e-19 -1.13732e-18 -0.0156453)
(-1.15243e-18 -1.07746e-18 -0.0156577)
(-7.49325e-19 -4.00945e-19 -0.0156696)
(-1.4708e-18 2.71064e-19 -0.0156809)
(-1.66065e-18 1.66302e-19 -0.0156915)
(-1.6446e-18 -3.81832e-19 -0.0157015)
(-1.48665e-18 -7.75353e-19 -0.0157109)
(-1.5828e-18 -1.9483e-19 -0.0157196)
(-1.92305e-18 6.23283e-19 -0.0157277)
(-1.65265e-18 2.68896e-19 -0.0157351)
(-8.3031e-19 -2.22604e-19 -0.0157419)
(-6.32795e-19 -1.3695e-19 -0.015748)
(4.09724e-19 -5.75536e-19 -0.0155446)
(3.69753e-19 -6.97075e-19 -0.0155602)
(3.44006e-19 -6.48461e-19 -0.0155752)
(3.459e-19 -7.79156e-19 -0.0155896)
(-2.6211e-19 -1.07325e-18 -0.0156035)
(-7.51488e-19 -9.08581e-19 -0.0156167)
(-7.52687e-19 -1.07551e-18 -0.0156294)
(-9.76316e-19 -5.51797e-19 -0.0156415)
(-1.46578e-18 4.59251e-19 -0.0156529)
(-1.77745e-18 3.56189e-19 -0.0156638)
(-1.77992e-18 -2.50669e-19 -0.015674)
(-1.60896e-18 -8.78475e-19 -0.0156836)
(-1.8569e-18 -3.52524e-19 -0.0156925)
(-2.06369e-18 4.98169e-19 -0.0157007)
(3.03633e-19 -6.44955e-19 -0.0155144)
(2.49738e-19 -6.54778e-19 -0.0155302)
(7.59325e-20 -7.80701e-19 -0.0155454)
(9.67902e-20 -7.50911e-19 -0.0155601)
(-2.85275e-19 -8.61386e-19 -0.0155741)
(-5.10479e-19 -7.74004e-19 -0.0155876)
(-2.37018e-19 -8.08956e-19 -0.0156005)
(-9.15403e-19 -5.54891e-19 -0.0156128)
(-1.06248e-18 6.39211e-19 -0.0156245)
(-1.60946e-18 6.78898e-19 -0.0156355)
(-1.35068e-18 -3.26109e-21 -0.0156459)
(-1.30032e-18 -6.22201e-19 -0.0156556)
(7.38069e-20 -8.03067e-19 -0.0154837)
(1.8544e-19 -6.52797e-19 -0.0154998)
(-1.29008e-19 -7.67163e-19 -0.0155152)
(-2.77475e-19 -8.3948e-19 -0.01553)
(-5.35162e-19 -8.64708e-19 -0.0155443)
(-6.88553e-19 -9.6414e-19 -0.015558)
(-4.17694e-19 -8.32649e-19 -0.0155711)
(-9.97489e-19 -5.59692e-19 -0.0155836)
(-1.26338e-18 5.96622e-19 -0.0155955)
(-1.38148e-18 9.17416e-19 -0.0156067)
(6.70571e-21 -7.98989e-19 -0.0154526)
(1.57708e-21 -7.36427e-19 -0.0154688)
(-1.78252e-19 -6.1325e-19 -0.0154844)
(-4.18794e-19 -7.45761e-19 -0.0154995)
(-6.74418e-19 -7.6958e-19 -0.015514)
(-9.20018e-19 -1.02169e-18 -0.0155279)
(-1.19564e-18 -1.11907e-18 -0.0155412)
(-1.60941e-18 -7.52486e-19 -0.0155539)
(-1.79058e-18 2.44555e-19 -0.0155659)
(-3.97901e-20 -6.19621e-19 -0.015421)
(-6.54018e-20 -8.10914e-19 -0.0154374)
(-1.55391e-19 -6.05064e-19 -0.0154532)
(-5.09049e-19 -6.50965e-19 -0.0154685)
(-8.17507e-19 -6.27984e-19 -0.0154832)
(-1.03314e-18 -6.97105e-19 -0.0154973)
(-1.75366e-18 -1.01581e-18 -0.0155108)
(-2.0479e-18 -9.94541e-19 -0.0155237)
(2.32239e-20 -4.91967e-19 -0.0153889)
(-3.41111e-20 -7.60275e-19 -0.0154056)
(-1.38836e-19 -4.90634e-19 -0.0154216)
(-6.66604e-19 -5.43103e-19 -0.0154371)
(-6.88475e-19 -4.96737e-19 -0.0154519)
(-8.79751e-19 -3.63577e-19 -0.0154662)
(-1.52147e-18 -5.78295e-19 -0.0154799)
(6.15167e-20 -3.81691e-19 -0.0153565)
(-4.24762e-20 -7.86638e-19 -0.0153733)
(-1.90337e-19 -4.47778e-19 -0.0153895)
(-6.45464e-19 -4.68068e-19 -0.0154051)
(-5.82018e-19 -4.92133e-19 -0.0154202)
(-8.08067e-19 -1.34693e-19 -0.0154347)
(2.20273e-19 -2.52648e-19 -0.0153236)
(1.8888e-20 -6.5921e-19 -0.0153406)
(-5.35843e-19 -5.63117e-19 -0.015357)
(-5.64665e-19 -3.2569e-19 -0.0153728)
(-6.8528e-19 -5.33214e-19 -0.015388)
(-1.05321e-18 -7.97347e-20 -0.0154027)
(3.97285e-19 -2.74072e-19 -0.0152903)
(-1.25094e-19 -4.26165e-19 -0.0153074)
(-7.36937e-19 -6.03382e-19 -0.015324)
(-5.1911e-19 -3.73736e-19 -0.01534)
(-7.23249e-19 -4.00017e-19 -0.0153554)
(2.75394e-19 -3.74758e-19 -0.0152566)
(-3.161e-19 -2.45178e-19 -0.0152739)
(-5.2603e-19 -4.2465e-19 -0.0152907)
(-5.92339e-19 -4.34049e-19 -0.0153068)
(3.95827e-20 -4.49661e-19 -0.0152225)
(-3.19713e-19 -1.75692e-19 -0.01524)
(-2.62465e-19 -1.91482e-19 -0.0152569)
(-5.66519e-19 -3.073e-19 -0.0152733)
(-6.58942e-20 -3.54838e-19 -0.0151881)
(-3.82711e-19 -2.4357e-19 -0.0152057)
(-2.6768e-19 -1.47033e-19 -0.0152228)
(-4.44601e-20 -1.81533e-19 -0.0151533)
(-4.12198e-19 -2.08168e-19 -0.0151711)
(-3.46435e-19 -1.364e-19 -0.0151883)
(6.78352e-20 -4.00127e-20 -0.0151181)
(-4.13809e-19 -1.43575e-19 -0.015136)
(-3.12011e-19 -7.497e-20 -0.0151534)
(-8.14875e-21 -5.24369e-20 -0.0150826)
(-3.99316e-19 -2.76889e-20 -0.0151007)
(-4.48016e-19 -1.167e-19 -0.0151181)
(-2.25994e-19 -1.39108e-19 -0.0150467)
(-2.06814e-19 1.8196e-19 -0.0150649)
(-5.56278e-19 -8.53035e-20 -0.0150825)
(-3.94065e-19 -1.55947e-19 -0.0150105)
(4.21625e-20 3.53229e-19 -0.0150289)
(-5.23746e-19 1.61163e-19 -0.0150466)
(-4.6751e-19 -1.81633e-19 -0.014974)
(-1.29022e-19 1.84083e-19 -0.0149924)
(-5.11702e-19 4.16036e-19 -0.0150103)
(-6.08168e-19 -8.53504e-20 -0.0149371)
(-3.48123e-19 -5.19763e-20 -0.0149557)
(-4.55332e-19 5.21239e-19 -0.0149737)
(-7.52901e-19 -5.398e-20 -0.0149)
(-2.05893e-19 -1.11758e-19 -0.0149186)
(-4.79893e-19 5.55599e-19 -0.0149368)
(-5.89425e-19 1.14514e-19 -0.0148625)
(-1.94739e-19 -2.59264e-19 -0.0148813)
(-5.0553e-19 4.9899e-19 -0.0148995)
(-2.96332e-19 3.28498e-19 -0.0148247)
(-3.24936e-19 -3.64813e-19 -0.0148436)
(-4.69898e-19 3.32672e-19 -0.0148619)
(-2.73668e-19 3.21024e-19 -0.0147866)
(-3.55277e-19 -3.48534e-19 -0.0148056)
(-3.32891e-19 1.94831e-19 -0.014824)
(-3.50444e-19 2.75914e-19 -0.0147482)
(-2.84668e-19 -3.30357e-19 -0.0147673)
(-3.1095e-19 8.39654e-20 -0.0147858)
(-1.75874e-19 3.99526e-19 -0.0147095)
(-2.34946e-19 -2.80125e-19 -0.0147287)
(-2.39851e-19 9.62803e-20 -0.0147473)
(5.46586e-19 -1.1532e-18 -0.0159652)
(7.56667e-19 -1.35785e-18 -0.0159473)
(1.04907e-18 -1.43318e-18 -0.0159278)
(7.95196e-19 -9.76917e-19 -0.0159072)
(5.71658e-19 -9.38812e-19 -0.0158858)
(5.08948e-19 -7.95613e-19 -0.0158636)
(5.18972e-19 -4.10322e-19 -0.0158405)
(1.87108e-19 1.31074e-19 -0.0158168)
(-2.07897e-19 1.12012e-19 -0.0157923)
(-1.3053e-19 -3.84305e-19 -0.0157672)
(2.09304e-19 -6.14125e-19 -0.0157414)
(3.36626e-19 -6.88892e-19 -0.015715)
(3.26105e-19 -6.22363e-19 -0.015688)
(2.91391e-19 -4.1992e-19 -0.0156604)
(2.25347e-19 -5.37386e-19 -0.0156323)
(2.48528e-19 -6.92564e-19 -0.0156036)
(3.98868e-19 -6.3363e-19 -0.0155744)
(4.18264e-19 -6.22464e-19 -0.0155446)
(4.34652e-19 -8.80662e-19 -0.0155144)
(4.3708e-19 -8.44557e-19 -0.0154837)
(4.86327e-19 -5.97332e-19 -0.0154526)
(3.51208e-19 -4.20837e-19 -0.015421)
(2.41446e-19 -4.22093e-19 -0.0153889)
(1.48058e-19 -4.43772e-19 -0.0153565)
(5.63191e-21 -6.21403e-19 -0.0153236)
(-2.79194e-20 -8.16691e-19 -0.0152903)
(5.33163e-20 -6.59609e-19 -0.0152566)
(1.67058e-19 -2.95134e-19 -0.0152225)
(1.48694e-19 -9.67376e-20 -0.0151881)
(2.98867e-20 -1.1738e-19 -0.0151533)
(-9.65233e-20 -2.5597e-19 -0.0151181)
(-1.19289e-19 -2.30195e-19 -0.0150826)
(2.33083e-20 1.68332e-19 -0.0150467)
(1.37954e-19 4.55762e-19 -0.0150105)
(9.54977e-20 5.38175e-19 -0.014974)
(-1.73548e-21 5.90775e-19 -0.0149371)
(-1.07726e-19 5.41801e-19 -0.0149)
(-2.84319e-19 3.59925e-19 -0.0148625)
(-5.16185e-19 7.09354e-20 -0.0148247)
(-5.82475e-19 -3.38407e-21 -0.0147866)
(-5.34505e-19 8.26752e-20 -0.0147482)
(-5.33841e-19 7.32649e-20 -0.0147095)
(9.39801e-20 -1.09901e-18 -0.0159757)
(4.56085e-19 -1.48248e-18 -0.0159575)
(6.34923e-19 -1.20303e-18 -0.0159384)
(7.79953e-19 -7.60742e-19 -0.0159184)
(4.98529e-19 -5.96907e-19 -0.0158974)
(4.25431e-19 -6.70517e-19 -0.0158755)
(5.63575e-19 -3.776e-19 -0.0158529)
(6.7452e-19 8.51593e-20 -0.0158295)
(5.92365e-19 -2.5327e-19 -0.0158054)
(4.50558e-19 -1.05546e-18 -0.0157806)
(4.10966e-19 -1.24523e-18 -0.0157551)
(6.32476e-19 -9.41546e-19 -0.015729)
(5.78363e-19 -6.5687e-19 -0.0157023)
(4.44754e-19 -7.18598e-19 -0.015675)
(5.2652e-19 -7.97767e-19 -0.0156471)
(3.92626e-19 -7.54753e-19 -0.0156187)
(4.4005e-19 -8.4619e-19 -0.0155897)
(5.63098e-19 -8.96391e-19 -0.0155602)
(5.53313e-19 -9.79647e-19 -0.0155302)
(4.72611e-19 -9.02284e-19 -0.0154998)
(5.86558e-19 -6.12289e-19 -0.0154688)
(6.9826e-19 -4.40405e-19 -0.0154374)
(6.47457e-19 -4.55874e-19 -0.0154056)
(6.70128e-19 -4.54041e-19 -0.0153733)
(5.52277e-19 -4.39178e-19 -0.0153406)
(3.49571e-19 -2.77399e-19 -0.0153074)
(1.55889e-19 -4.48178e-20 -0.0152739)
(6.07912e-20 1.98046e-21 -0.01524)
(1.13698e-19 9.66449e-21 -0.0152057)
(1.19837e-19 2.9098e-21 -0.0151711)
(1.16523e-19 4.99814e-20 -0.015136)
(4.26561e-20 1.12387e-19 -0.0151007)
(-1.3843e-19 3.06172e-20 -0.0150649)
(-1.8027e-19 -5.3539e-20 -0.0150289)
(-6.09328e-20 4.05266e-20 -0.0149924)
(5.2091e-21 -2.09854e-20 -0.0149557)
(-1.2365e-20 -2.18877e-19 -0.0149186)
(1.58913e-19 -8.32755e-20 -0.0148813)
(2.9688e-19 1.40526e-19 -0.0148436)
(1.85196e-19 9.5677e-20 -0.0148056)
(1.00742e-19 -5.87264e-20 -0.0147673)
(1.12258e-19 1.09711e-20 -0.0147287)
(-1.55572e-19 -1.23569e-18 -0.0159855)
(1.3736e-19 -1.47308e-18 -0.0159675)
(3.15526e-19 -1.08966e-18 -0.0159487)
(6.29401e-19 -5.86438e-19 -0.0159289)
(5.27623e-19 -4.37018e-19 -0.0159083)
(4.6305e-19 -7.71867e-19 -0.0158869)
(6.09371e-19 -5.85442e-19 -0.0158646)
(7.58918e-19 -3.20212e-19 -0.0158416)
(9.50333e-19 -8.80602e-19 -0.0158178)
(9.13967e-19 -1.27609e-18 -0.0157933)
(7.15681e-19 -1.14034e-18 -0.0157682)
(7.32076e-19 -9.04009e-19 -0.0157424)
(1.03181e-18 -7.50423e-19 -0.015716)
(7.96234e-19 -8.12133e-19 -0.0156889)
(7.36473e-19 -8.41656e-19 -0.0156613)
(6.5524e-19 -8.47116e-19 -0.0156331)
(4.44299e-19 -9.85818e-19 -0.0156044)
(4.60154e-19 -8.65339e-19 -0.0155752)
(5.36292e-19 -6.68827e-19 -0.0155454)
(4.63904e-19 -4.86303e-19 -0.0155152)
(3.61156e-19 -3.92127e-19 -0.0154844)
(4.47142e-19 -3.41749e-19 -0.0154532)
(4.14786e-19 -3.76737e-19 -0.0154216)
(4.27278e-19 -3.06555e-19 -0.0153895)
(5.40879e-19 -4.07664e-20 -0.015357)
(5.53229e-19 1.37093e-19 -0.015324)
(4.166e-19 7.25336e-20 -0.0152907)
(1.90922e-19 -1.55053e-19 -0.0152569)
(1.51029e-19 -2.71065e-19 -0.0152228)
(2.10701e-19 -2.65406e-19 -0.0151883)
(2.7451e-19 -2.64802e-19 -0.0151534)
(4.19097e-19 -1.08964e-19 -0.0151181)
(4.31173e-19 9.06675e-20 -0.0150825)
(1.73265e-19 1.72914e-19 -0.0150466)
(6.40223e-21 1.14457e-19 -0.0150103)
(-1.14254e-19 1.05647e-19 -0.0149737)
(-2.78759e-19 1.91059e-19 -0.0149368)
(-3.81681e-19 2.77917e-19 -0.0148995)
(-2.88383e-19 2.38995e-19 -0.0148619)
(-2.46497e-19 2.51323e-20 -0.014824)
(-2.1897e-19 -1.29483e-20 -0.0147858)
(-1.81799e-19 9.3468e-20 -0.0147473)
(2.61973e-20 -1.3409e-18 -0.0159949)
(-3.26463e-20 -1.60827e-18 -0.0159771)
(2.07056e-19 -1.32237e-18 -0.0159585)
(3.85003e-19 -6.04328e-19 -0.0159391)
(5.45647e-19 -4.81003e-19 -0.0159189)
(3.9603e-19 -7.79073e-19 -0.0158978)
(5.28063e-19 -5.92598e-19 -0.0158759)
(8.30155e-19 -5.21307e-19 -0.0158532)
(9.34815e-19 -9.43553e-19 -0.0158297)
(8.24414e-19 -9.70867e-19 -0.0158056)
(7.22946e-19 -9.34837e-19 -0.0157807)
(4.77337e-19 -9.87493e-19 -0.0157552)
(8.74591e-19 -8.37018e-19 -0.0157291)
(1.10894e-18 -7.48301e-19 -0.0157024)
(1.09876e-18 -9.58452e-19 -0.015675)
(1.27635e-18 -9.77776e-19 -0.0156471)
(9.90452e-19 -8.69237e-19 -0.0156186)
(6.3138e-19 -7.86854e-19 -0.0155896)
(5.35273e-19 -5.69402e-19 -0.0155601)
(5.38256e-19 -2.95017e-19 -0.01553)
(4.12528e-19 -2.1374e-19 -0.0154995)
(3.78058e-19 -1.5825e-19 -0.0154685)
(4.0408e-19 -6.49504e-20 -0.0154371)
(3.08972e-19 2.27571e-20 -0.0154051)
(2.54556e-19 8.72326e-20 -0.0153728)
(3.81031e-19 1.67437e-19 -0.01534)
(3.93469e-19 2.88916e-19 -0.0153068)
(2.25473e-19 9.00636e-20 -0.0152733)
(2.81604e-20 -1.02426e-19 -0.0152393)
(-3.70244e-20 -1.71805e-19 -0.0152049)
(-3.04022e-20 -1.56745e-19 -0.0151702)
(6.19829e-20 1.60651e-19 -0.0151351)
(2.91721e-19 6.88536e-19 -0.0150996)
(2.23332e-19 7.29094e-19 -0.0150638)
(8.38219e-20 5.52083e-19 -0.0150276)
(1.69405e-19 7.2858e-19 -0.0149911)
(1.4105e-19 6.84485e-19 -0.0149543)
(-8.02343e-20 2.04082e-19 -0.0149172)
(-2.86392e-19 -2.31663e-19 -0.0148797)
(-2.27934e-19 -2.03707e-19 -0.0148419)
(-9.22644e-20 8.95359e-20 -0.0148038)
(-5.08317e-20 7.58579e-20 -0.0147654)
(4.35781e-19 -1.13021e-18 -0.0160036)
(-4.59359e-21 -1.56422e-18 -0.0159862)
(1.31655e-19 -1.33321e-18 -0.0159679)
(4.19778e-19 -7.1164e-19 -0.0159488)
(6.02332e-19 -5.54241e-19 -0.0159289)
(4.31867e-19 -7.46506e-19 -0.0159081)
(3.37533e-19 -8.315e-19 -0.0158866)
(6.59838e-19 -8.05175e-19 -0.0158642)
(6.08476e-19 -6.48393e-19 -0.0158411)
(7.28649e-19 -7.11455e-19 -0.0158173)
(8.75529e-19 -6.56227e-19 -0.0157928)
(4.78232e-19 -7.92025e-19 -0.0157676)
(5.33231e-19 -1.08873e-18 -0.0157417)
(1.02434e-18 -1.27537e-18 -0.0157152)
(1.13391e-18 -1.41329e-18 -0.0156881)
(1.3407e-18 -1.00453e-18 -0.0156605)
(1.35448e-18 -3.49892e-19 -0.0156322)
(9.96775e-19 -1.78394e-19 -0.0156035)
(7.24662e-19 -2.06556e-19 -0.0155741)
(6.68128e-19 -7.00063e-20 -0.0155443)
(5.04731e-19 -2.13233e-20 -0.015514)
(2.72664e-19 -1.14272e-21 -0.0154832)
(2.00365e-19 1.48008e-19 -0.0154519)
(2.33934e-19 3.41434e-19 -0.0154202)
(1.70034e-19 2.72555e-19 -0.015388)
(1.23012e-19 4.05301e-19 -0.0153554)
(1.5978e-19 5.56054e-19 -0.0153224)
(1.87049e-20 4.03714e-19 -0.015289)
(-1.45254e-19 2.86661e-19 -0.0152552)
(-2.72831e-19 1.8575e-19 -0.015221)
(-2.56764e-19 3.14569e-19 -0.0151864)
(-1.50338e-19 6.0358e-19 -0.0151514)
(-4.38434e-20 7.8484e-19 -0.0151161)
(-1.72229e-20 6.45597e-19 -0.0150804)
(-1.51634e-19 3.54397e-19 -0.0150443)
(-1.32107e-19 1.35665e-19 -0.015008)
(-1.09056e-19 -7.14696e-20 -0.0149712)
(-1.23022e-19 -1.63538e-19 -0.0149342)
(-1.65006e-19 -9.02095e-20 -0.0148968)
(-1.45407e-19 -7.7492e-20 -0.0148592)
(-1.41878e-19 -1.34995e-19 -0.0148212)
(-1.35658e-19 -2.07524e-19 -0.0147829)
(7.12381e-19 -8.60901e-19 -0.0160118)
(2.1842e-19 -1.49186e-18 -0.0159948)
(7.217e-20 -1.61118e-18 -0.0159768)
(4.91058e-19 -1.10589e-18 -0.0159581)
(7.98466e-19 -6.78766e-19 -0.0159385)
(8.45323e-19 -8.3378e-19 -0.015918)
(7.15902e-19 -9.89774e-19 -0.0158968)
(6.53962e-19 -6.43264e-19 -0.0158748)
(4.14573e-19 -5.74439e-19 -0.015852)
(7.01926e-19 -1.14972e-18 -0.0158285)
(1.07438e-18 -7.66319e-19 -0.0158042)
(8.80594e-19 -8.69376e-19 -0.0157793)
(5.77084e-19 -1.52372e-18 -0.0157537)
(7.95602e-19 -1.44984e-18 -0.0157275)
(9.44998e-19 -1.06367e-18 -0.0157007)
(1.05325e-18 -4.42032e-19 -0.0156733)
(1.05482e-18 2.61872e-19 -0.0156453)
(8.6769e-19 3.06721e-19 -0.0156167)
(7.16016e-19 2.71019e-20 -0.0155876)
(8.73308e-19 5.81194e-20 -0.015558)
(9.44779e-19 2.48124e-19 -0.0155279)
(5.79476e-19 4.47986e-19 -0.0154973)
(1.95786e-19 4.65068e-19 -0.0154662)
(3.53494e-21 4.19585e-19 -0.0154347)
(-5.02719e-20 6.0805e-19 -0.0154027)
(-1.80549e-19 8.64686e-19 -0.0153703)
(-1.62156e-19 9.17408e-19 -0.0153374)
(-2.44032e-19 8.34025e-19 -0.0153041)
(-3.66924e-19 6.04394e-19 -0.0152705)
(-4.00077e-19 3.65345e-19 -0.0152364)
(-3.60239e-19 2.51267e-19 -0.0152019)
(-1.84038e-19 3.5441e-19 -0.0151671)
(2.65765e-21 5.76752e-19 -0.0151319)
(1.12955e-19 5.16109e-19 -0.0150963)
(2.24569e-20 2.1629e-19 -0.0150604)
(2.4516e-21 1.55574e-19 -0.0150242)
(7.01752e-20 3.08091e-19 -0.0149876)
(2.82675e-20 2.98222e-19 -0.0149506)
(-1.88062e-19 -7.52983e-20 -0.0149134)
(-2.8629e-19 -2.75017e-19 -0.0148758)
(-1.96054e-19 -5.04437e-20 -0.0148379)
(-2.28466e-19 1.29895e-20 -0.0147997)
(8.74023e-19 -8.62531e-19 -0.0160195)
(4.95003e-19 -1.29785e-18 -0.0160029)
(2.02875e-20 -1.49939e-18 -0.0159853)
(2.72211e-19 -1.26405e-18 -0.0159668)
(7.24028e-19 -9.56709e-19 -0.0159475)
(7.8075e-19 -9.0321e-19 -0.0159274)
(7.79012e-19 -8.31243e-19 -0.0159065)
(8.57973e-19 -4.27033e-19 -0.0158848)
(6.29454e-19 -8.18825e-19 -0.0158623)
(5.28375e-19 -1.41552e-18 -0.0158391)
(7.47228e-19 -6.29802e-19 -0.0158152)
(1.0624e-18 -6.62836e-19 -0.0157905)
(7.95047e-19 -1.25806e-18 -0.0157652)
(5.70545e-19 -1.19104e-18 -0.0157393)
(4.08291e-19 -7.37422e-19 -0.0157127)
(6.04877e-19 8.82411e-20 -0.0156855)
(9.90368e-19 6.84348e-19 -0.0156577)
(1.00593e-18 3.20426e-19 -0.0156294)
(7.44485e-19 -3.18753e-19 -0.0156005)
(7.1369e-19 -3.05242e-19 -0.0155711)
(9.8205e-19 5.30083e-19 -0.0155412)
(9.19573e-19 1.17038e-18 -0.0155108)
(5.1303e-19 1.04147e-18 -0.0154799)
(2.01442e-19 9.63696e-19 -0.0154485)
(2.91423e-20 1.10463e-18 -0.0154167)
(-1.0462e-19 1.01962e-18 -0.0153844)
(-1.34073e-19 8.1592e-19 -0.0153518)
(-1.29062e-19 6.04877e-19 -0.0153186)
(-2.75466e-19 1.99499e-19 -0.0152851)
(-4.448e-19 -1.43194e-19 -0.0152512)