/*--------------------------------*- C++ -*----------------------------------*\
  =========                 |
  \\      /  F ield         | OpenFOAM: The Open Source CFD Toolbox
   \\    /   O peration     | Website:  https://openfoam.org
    \\  /    A nd           | Version:  7
     \\/     M anipulation  |
\*---------------------------------------------------------------------------*/
FoamFile
{
    version     2.0;
    format      ascii;
    class       surfaceScalarField;
    location    "96000";
    object      phi;
}
// * * * * * * * * * * * * * * * * * * * * * * * * * * * * * * * * * * * * * //

dimensions      [0 3 -1 0 0 0 0];

internalField   nonuniform List<scalar> 
9492
(
1.6731e-21
6.03703e-21
6.4085e-22
7.06406e-22
2.52305e-22
8.15888e-22
4.25679e-21
5.42967e-22
9.11799e-22
3.1812e-22
4.65418e-22
2.4796e-22
3.13484e-22
1.88359e-22
1.87987e-22
1.67881e-22
1.41825e-22
1.34187e-22
1.49464e-22
8.88611e-23
4.46743e-22
3.25203e-21
4.0777e-22
8.32365e-22
2.76956e-22
5.8472e-22
2.25108e-22
3.56493e-22
1.77233e-22
2.33652e-22
1.67646e-22
1.86652e-22
1.22628e-22
1.40395e-22
1.00018e-22
1.07975e-22
7.5929e-23
1.6136e-22
7.89821e-23
2.16067e-22
7.62852e-23
2.78808e-22
2.46173e-21
3.16746e-22
8.90917e-22
2.32884e-22
6.098e-22
2.07802e-22
3.64811e-22
1.70039e-22
2.23465e-22
1.59486e-22
1.93122e-22
1.20848e-22
1.68863e-22
9.91429e-23
9.62725e-23
8.34303e-23
1.38517e-22
6.61175e-23
1.52701e-22
5.38062e-23
8.14714e-23
5.25086e-23
1.02118e-22
6.10161e-23
2.27333e-23
6.93033e-23
8.96461e-23
3.22229e-23
-1.48152e-23
-7.35934e-24
1.74066e-23
1.88274e-22
1.97898e-21
2.39437e-22
8.30297e-22
2.0264e-22
6.32187e-22
1.82299e-22
4.22382e-22
1.56204e-22
2.45757e-22
1.50642e-22
1.82003e-22
1.08874e-22
1.18259e-22
1.00701e-22
1.10806e-22
8.57864e-23
1.65103e-22
5.43983e-23
1.09179e-22
5.61859e-23
1.20518e-22
4.2819e-23
1.13992e-22
6.51795e-23
6.4329e-23
5.26829e-23
4.31125e-23
4.06923e-23
5.70772e-24
-2.80501e-23
1.68688e-23
1.30458e-22
1.83339e-22
8.71359e-22
1.73485e-22
6.7965e-22
1.51348e-22
3.79195e-22
1.48577e-22
2.81002e-22
1.42343e-22
2.18719e-22
1.04182e-22
1.50094e-22
1.02846e-22
1.44475e-22
7.58488e-23
1.18922e-22
5.76706e-23
5.64415e-23
5.49719e-23
1.31305e-22
4.04432e-23
8.88906e-23
6.17355e-23
8.14784e-23
4.68888e-23
4.96088e-23
3.7414e-23
-3.32992e-23
1.84382e-23
2.82862e-23
1.41359e-22
8.31794e-22
1.38842e-22
6.6819e-22
1.3626e-22
4.21167e-22
1.35344e-22
3.27245e-22
1.2784e-22
2.6592e-22
1.03524e-22
1.73638e-22
1.00423e-22
1.3235e-22
6.06794e-23
8.10158e-23
6.39534e-23
1.08078e-22
5.01103e-23
1.46265e-22
3.92586e-23
1.01488e-22
6.36431e-23
9.06218e-23
4.03298e-23
-4.90049e-24
3.773e-23
-3.19235e-23
-9.33659e-25
2.83647e-23
1.0586e-22
7.4723e-22
1.14524e-22
6.01512e-22
1.20079e-22
4.10971e-22
1.25962e-22
3.69523e-22
1.20619e-22
2.81151e-22
9.70836e-23
1.92495e-22
9.42914e-23
1.9272e-22
6.42291e-23
1.14865e-22
6.79742e-23
1.16908e-22
4.37448e-23
9.12252e-23
4.34747e-23
5.60431e-23
4.88799e-23
4.14896e-23
3.7566e-23
-3.61667e-23
4.15081e-23
-4.0451e-23
8.97764e-24
3.24057e-23
7.86168e-23
7.08965e-22
9.51195e-23
5.75275e-22
1.10486e-22
4.43669e-22
1.16021e-22
3.7351e-22
1.11261e-22
2.90123e-22
8.89567e-23
2.12537e-22
8.38668e-23
1.9969e-22
6.06809e-23
1.04615e-22
6.3335e-23
1.19059e-22
4.09636e-23
1.14911e-22
4.3618e-23
4.45398e-23
4.38515e-23
-5.02435e-24
3.5022e-23
-6.94547e-23
5.35444e-23
1.87159e-23
-1.87241e-23
2.99235e-23
2.10754e-23
9.4779e-22
5.75484e-23
6.72917e-22
8.07706e-23
5.91763e-22
1.00038e-22
4.76342e-22
1.05676e-22
4.16387e-22
1.01636e-22
2.90649e-22
8.34059e-23
1.83568e-22
7.32585e-23
2.14176e-22
5.98576e-23
7.71358e-23
6.27141e-23
1.15924e-22
3.75361e-23
6.13647e-23
2.92954e-23
4.00701e-23
4.13153e-23
6.12757e-23
4.50372e-23
-3.78855e-23
4.39214e-23
-1.03471e-26
-5.1813e-23
3.65362e-23
1.0797e-23
8.18867e-22
3.97055e-23
6.04441e-22
6.74602e-23
5.65682e-22
9.28207e-23
5.02849e-22
9.31032e-23
3.8571e-22
9.00916e-23
2.96356e-22
8.95127e-23
2.26724e-22
6.18755e-23
1.50331e-22
6.06943e-23
1.2216e-22
5.30597e-23
1.35406e-22
3.5977e-23
8.6405e-23
2.92605e-23
7.74002e-23
2.82121e-23
9.20105e-23
4.52125e-23
2.017e-23
4.09775e-23
-5.09991e-24
-2.31138e-23
4.72737e-23
8.22873e-24
7.51477e-22
3.19496e-23
5.79287e-22
6.08056e-23
5.77477e-22
8.02853e-23
5.29436e-22
8.33416e-23
3.91336e-22
8.29835e-23
2.97249e-22
7.59211e-23
2.58629e-22
6.03637e-23
1.60779e-22
5.94588e-23
1.21337e-22
5.30301e-23
1.38703e-22
3.49089e-23
1.07858e-22
3.18265e-23
7.57964e-23
2.62001e-23
5.67686e-23
4.01543e-23
7.97131e-23
3.76095e-23
2.8677e-23
4.0062e-23
5.0236e-23
1.54447e-24
6.98263e-22
2.45624e-23
5.54301e-22
5.5991e-23
5.46363e-22
6.8214e-23
5.18819e-22
7.25426e-23
3.90026e-22
7.97621e-23
3.23747e-22
6.96413e-23
2.26132e-22
5.89369e-23
1.63549e-22
5.69423e-23
1.59933e-22
5.20013e-23
1.3449e-22
3.28306e-23
1.16487e-22
2.29224e-23
3.75075e-23
3.1621e-23
1.25691e-22
3.11055e-23
1.08389e-22
4.41944e-23
9.25071e-23
5.22991e-23
4.45828e-23
-5.11147e-23
5.05016e-22
-1.52355e-24
6.46649e-22
1.97225e-23
5.3355e-22
5.43908e-23
6.01076e-22
5.65872e-23
4.76983e-22
6.52401e-23
3.79604e-22
7.50358e-23
3.12218e-22
6.03995e-23
2.31709e-22
5.85814e-23
2.01926e-22
5.72596e-23
1.20109e-22
4.47164e-23
5.76613e-23
3.1865e-23
1.53066e-22
2.46987e-23
3.82248e-23
2.99158e-23
1.02985e-22
3.09864e-23
1.02381e-22
4.22202e-23
1.09008e-22
3.2223e-23
3.86752e-23
-4.46188e-23
4.75057e-22
-1.33735e-24
5.95253e-22
2.16824e-23
5.37684e-22
4.63682e-23
5.65947e-22
5.05325e-23
4.28405e-22
5.7652e-23
3.70012e-22
6.78587e-23
3.45411e-22
5.55677e-23
1.99593e-22
5.17774e-23
2.08128e-22
5.54548e-23
1.53688e-22
4.73825e-23
2.9588e-23
2.8538e-23
1.16043e-22
2.79577e-23
-2.03809e-24
2.99979e-23
9.327e-23
3.16629e-23
5.2683e-23
3.59478e-23
6.10649e-23
2.34896e-23
3.66754e-23
-7.18239e-23
3.88578e-22
-3.87812e-23
4.69022e-22
-2.26334e-24
5.55184e-22
2.20444e-23
5.07847e-22
3.47995e-23
4.98859e-22
4.36998e-23
4.16358e-22
5.52288e-23
3.2105e-22
5.98963e-23
3.02449e-22
5.36587e-23
1.63556e-22
4.51158e-23
1.82347e-22
4.63435e-23
1.4921e-22
5.06439e-23
2.13367e-23
2.31659e-23
5.01015e-23
3.45769e-23
1.88824e-23
3.00803e-23
1.31662e-22
3.19208e-23
4.4254e-23
3.22852e-23
6.48742e-23
1.55023e-23
3.34865e-23
-6.2333e-23
4.44298e-22
-3.47609e-23
4.49413e-22
-1.10307e-24
5.17737e-22
1.90797e-23
5.2474e-22
3.0914e-23
4.53168e-22
3.38101e-23
3.96865e-22
5.12237e-23
3.38976e-22
5.11823e-23
2.98419e-22
5.05722e-23
2.46646e-22
4.01137e-23
1.83524e-22
3.8562e-23
1.48775e-22
4.67783e-23
4.81508e-23
2.5998e-23
5.72022e-23
4.03495e-23
2.14142e-23
2.53827e-23
6.47401e-23
2.94472e-23
3.93574e-23
3.26592e-23
6.06576e-23
1.68244e-24
3.22653e-23
-5.80899e-23
3.2769e-22
-3.04869e-23
4.24718e-22
-1.47297e-24
5.27108e-22
1.48361e-23
4.8879e-22
2.48103e-23
3.95101e-22
3.23815e-23
3.85275e-22
4.54381e-23
3.24986e-22
5.07333e-23
3.26905e-22
4.31093e-23
2.48197e-22
4.0587e-23
1.893e-22
3.47879e-23
1.18144e-22
4.57199e-23
8.00419e-23
2.38592e-23
6.95812e-23
4.13521e-23
1.32277e-22
2.71227e-23
7.21452e-23
2.91091e-23
3.33645e-23
2.99901e-23
8.16871e-23
4.15722e-23
2.87225e-23
-5.13738e-23
3.43907e-22
-2.45747e-23
4.35236e-22
-2.44665e-24
5.02655e-22
1.02276e-23
4.77196e-22
2.1918e-23
3.83149e-22
3.21154e-23
3.77347e-22
4.52418e-23
3.10736e-22
4.83705e-23
3.19651e-22
3.66419e-23
2.14783e-22
3.21191e-23
1.56709e-22
2.85021e-23
1.28305e-22
4.37452e-23
9.8675e-23
2.47734e-23
8.29713e-23
3.41192e-23
1.1998e-22
2.60111e-23
7.89301e-23
3.25315e-23
6.69114e-23
2.8635e-23
1.32633e-22
5.47121e-24
2.24572e-23
-4.18503e-23
3.55709e-22
-2.07428e-23
4.55396e-22
-2.76271e-24
4.84395e-22
7.31073e-24
3.80401e-22
1.90755e-23
2.998e-22
2.50674e-23
3.3224e-22
4.51215e-23
2.85955e-22
4.39615e-23
2.83013e-22
3.27703e-23
2.25453e-22
2.73719e-23
1.60058e-22
3.02525e-23
1.26173e-22
4.17257e-23
1.19616e-22
3.02312e-23
8.80458e-23
2.95965e-23
1.13563e-22
2.33118e-23
8.91359e-23
3.17687e-23
6.09047e-23
2.2785e-23
4.95784e-23
5.57353e-25
2.2457e-23
-3.30736e-23
3.60147e-22
-1.87112e-23
4.05037e-22
-8.8715e-24
4.77406e-22
4.86944e-24
4.13117e-22
1.93633e-23
3.43122e-22
2.16289e-23
3.24185e-22
4.17738e-23
2.57261e-22
3.90474e-23
2.87009e-22
3.13694e-23
1.96392e-22
2.30733e-23
1.58067e-22
2.96715e-23
1.64491e-22
3.64338e-23
1.12517e-22
3.26562e-23
1.04827e-22
2.63766e-23
1.17875e-22
2.37538e-23
9.06963e-23
2.91546e-23
7.90253e-23
2.16945e-23
3.25583e-23
-1.66393e-24
2.24589e-23
-2.95954e-23
3.09908e-22
-1.46077e-23
3.89789e-22
-1.31187e-23
3.96656e-22
1.17672e-25
4.57021e-22
1.83821e-23
3.91832e-22
1.93923e-23
3.56773e-22
4.30292e-23
3.62244e-22
3.35857e-23
2.89529e-22
2.81521e-23
2.37149e-22
2.16346e-23
2.00934e-22
2.65761e-23
1.61146e-22
3.8381e-23
1.00325e-22
3.08868e-23
1.26512e-22
2.62738e-23
1.24141e-22
2.1999e-23
1.28135e-22
2.56432e-23
9.99871e-23
2.1435e-23
6.92974e-23
-1.78894e-24
2.31018e-23
-2.58964e-23
2.67246e-22
-1.35353e-23
3.73137e-22
-8.88978e-24
3.92975e-22
-4.63738e-24
4.22592e-22
1.4582e-23
3.8941e-22
1.80517e-23
3.50194e-22
3.93413e-23
3.37986e-22
3.07038e-23
2.97603e-22
2.59077e-23
2.682e-22
1.8756e-23
2.09063e-22
2.42188e-23
1.95684e-22
3.78743e-23
8.55957e-23
2.98622e-23
9.12154e-23
2.63701e-23
1.32877e-22
2.05718e-23
8.83328e-23
2.12112e-23
9.70086e-23
1.9086e-23
1.19889e-22
4.18454e-23
2.08783e-23
-2.03043e-23
2.675e-22
-1.11496e-23
3.63194e-22
-4.50743e-24
3.54441e-22
-7.02263e-24
3.47378e-22
1.44875e-23
4.0873e-22
1.66778e-23
3.51573e-22
3.36882e-23
3.33345e-22
3.04962e-23
2.81361e-22
2.51119e-23
2.65229e-22
1.42523e-23
2.24692e-22
1.94114e-23
2.23126e-22
3.97299e-23
6.22216e-23
2.94794e-23
9.1733e-23
2.42341e-23
1.40602e-22
1.99093e-23
9.01162e-23
2.0607e-23
5.51451e-23
1.53155e-23
1.32852e-22
5.0547e-23
1.79858e-23
-1.64802e-23
2.21197e-22
-9.3762e-24
3.20895e-22
-6.20739e-24
3.06959e-22
-2.86923e-24
3.34849e-22
1.0267e-23
3.90239e-22
1.30831e-23
3.09533e-22
3.09835e-23
3.09437e-22
2.74081e-23
2.75268e-22
2.27259e-23
2.60946e-22
1.37897e-23
1.90245e-22
1.25157e-23
1.88887e-22
4.04216e-23
1.07856e-22
3.04077e-23
8.15233e-23
2.33323e-23
1.66615e-22
1.83567e-23
1.34512e-22
2.526e-23
5.0345e-23
9.47395e-24
6.33739e-23
4.77013e-23
1.78073e-23
-1.29013e-23
2.85269e-22
-9.337e-24
3.22424e-22
-6.68925e-24
3.01853e-22
-3.67653e-25
3.26716e-22
9.78529e-24
3.38807e-22
1.17267e-23
2.96682e-22
3.12752e-23
3.66037e-22
2.63664e-23
2.71666e-22
1.92886e-23
2.57838e-22
1.32862e-23
2.3101e-22
7.17876e-24
1.93451e-22
3.83715e-23
1.6585e-22
3.1449e-23
1.71784e-22
2.10922e-23
1.75266e-22
1.4874e-23
1.48554e-22
2.501e-23
8.7208e-23
9.53568e-24
-7.62265e-24
4.05058e-23
1.53007e-23
-1.42299e-23
3.09138e-22
-8.92728e-24
3.30407e-22
-5.42555e-24
2.94171e-22
2.5451e-24
2.92792e-22
7.7209e-24
2.8525e-22
1.03991e-23
2.47775e-22
2.83154e-23
3.72163e-22
2.62171e-23
2.27589e-22
1.94442e-23
2.28165e-22
8.45094e-24
2.02485e-22
8.06837e-24
1.90802e-22
3.68688e-23
1.3235e-22
3.60675e-23
1.67522e-22
1.75028e-23
7.13387e-23
1.33034e-23
1.16492e-22
1.84004e-23
1.07472e-24
1.43789e-23
3.04705e-23
2.89805e-23
1.47499e-23
-1.45336e-23
2.50429e-22
-9.30911e-24
2.85182e-22
-5.23234e-24
2.73256e-22
8.45764e-25
3.22155e-22
8.93355e-24
2.71138e-22
1.53161e-23
2.5296e-22
2.3623e-23
3.92173e-22
2.41904e-23
2.14316e-22
1.65177e-23
1.46878e-22
6.23258e-24
1.7663e-22
8.35069e-24
1.85072e-22
3.55775e-23
1.0211e-22
3.53149e-23
1.62631e-22
1.81427e-23
-4.14579e-23
1.16434e-23
1.03104e-22
1.98012e-23
7.85564e-24
1.54054e-23
3.41216e-23
1.68153e-23
1.44952e-23
-1.36354e-23
2.70531e-22
-1.02065e-23
3.2395e-22
-2.61488e-24
2.9075e-22
-2.14949e-24
3.11361e-22
1.25058e-23
2.94449e-22
1.77925e-23
1.99008e-22
1.83465e-23
3.45287e-22
2.31863e-23
2.04142e-22
1.78471e-23
1.81815e-22
3.34104e-24
5.9711e-23
7.21987e-24
1.77968e-22
3.73381e-23
6.28311e-23
2.7207e-23
1.58278e-22
2.09895e-23
5.58681e-24
9.08939e-24
1.13995e-22
1.94601e-23
3.39307e-23
1.4302e-23
3.79799e-23
3.30861e-23
1.4666e-23
-1.26474e-23
1.90158e-22
-1.0854e-23
2.9097e-22
-9.85948e-25
2.74773e-22
-3.3079e-24
3.09049e-22
1.06015e-23
3.22814e-22
2.14711e-23
1.80516e-22
1.5399e-23
2.80865e-22
1.70531e-23
1.12426e-22
1.53994e-23
1.75584e-22
7.8258e-24
6.49548e-23
4.30969e-24
1.78092e-22
3.64534e-23
1.55637e-22
2.40459e-23
1.26163e-22
2.35827e-23
4.21412e-23
6.06272e-24
1.23417e-22
2.00372e-23
1.92839e-23
1.62954e-23
-5.23493e-23
-5.85065e-24
1.2826e-23
-1.65772e-23
2.08586e-22
-7.97625e-24
2.31381e-22
-9.51829e-24
2.55702e-22
-2.5938e-25
2.1937e-22
-4.05868e-24
2.29166e-22
6.69894e-24
3.16655e-22
2.25619e-23
1.98627e-22
1.22907e-23
2.45465e-22
1.60371e-23
1.07482e-22
1.20871e-23
1.78885e-22
1.05032e-23
1.07488e-22
6.15775e-24
1.76576e-22
3.34183e-23
1.12199e-22
2.02153e-23
1.39202e-22
2.26224e-23
3.35609e-23
6.65185e-24
1.31208e-22
1.39736e-23
-1.00997e-23
1.88287e-23
1.87156e-23
-4.9045e-24
1.20884e-23
-1.56016e-23
2.06793e-22
-6.04472e-24
2.19499e-22
-1.04254e-23
2.20859e-22
2.60773e-25
2.34468e-22
-2.57878e-24
2.31019e-22
3.42816e-24
2.74074e-22
1.93858e-23
1.77238e-22
1.07215e-23
2.26292e-22
1.61803e-23
9.51332e-23
1.26652e-23
1.77919e-22
9.72247e-24
1.07222e-22
5.42645e-24
1.97496e-22
2.80514e-23
7.8913e-23
1.96457e-23
1.44121e-22
2.15362e-23
2.55803e-23
4.1785e-24
9.79049e-23
1.27269e-23
-3.56245e-23
2.049e-23
8.23345e-23
-3.5441e-24
1.53906e-23
-1.62715e-23
2.50359e-22
-1.55175e-23
2.11631e-22
-5.50513e-24
2.24048e-22
-8.60399e-24
2.41145e-22
4.98468e-25
2.16613e-22
-1.27391e-24
2.39795e-22
3.99617e-24
2.65683e-22
1.79261e-23
1.61731e-22
9.01066e-24
2.28932e-22
1.66073e-23
8.72056e-23
1.26459e-23
1.55613e-22
1.21343e-23
9.60147e-23
4.14351e-24
1.57638e-22
3.0693e-23
1.27321e-22
1.814e-23
1.57409e-22
2.1295e-23
1.00961e-22
2.78591e-24
1.05526e-22
1.54276e-23
-5.51533e-23
1.62742e-23
8.27372e-23
3.37132e-23
1.80547e-23
-1.70396e-23
2.37296e-22
-1.43319e-23
2.01548e-22
-4.68244e-24
2.18811e-22
-9.54712e-24
1.68627e-22
2.96768e-25
1.98748e-22
-2.17144e-24
2.06063e-22
4.11794e-24
2.54157e-22
1.76711e-23
1.50143e-22
7.67525e-24
2.29295e-22
1.44415e-23
7.84858e-23
1.14331e-23
1.51638e-22
1.285e-23
8.99506e-23
4.39238e-24
1.57008e-22
3.08985e-23
9.57371e-23
1.70745e-23
1.64253e-22
1.77741e-23
9.0055e-23
-1.74055e-24
1.14215e-22
1.91165e-23
5.07445e-23
1.12864e-23
1.37062e-23
-8.29402e-24
1.84517e-23
-1.84745e-23
2.07043e-22
-1.34339e-23
2.36691e-22
-5.02557e-24
1.65191e-22
-8.43306e-24
1.69333e-22
2.4129e-26
1.86061e-22
-2.14045e-24
1.9855e-22
2.12319e-24
2.507e-22
1.76638e-23
1.32454e-22
5.60958e-24
1.97016e-22
1.58075e-23
1.4438e-22
1.17481e-23
1.48995e-22
1.20602e-23
1.22614e-22
3.50873e-24
1.47149e-22
2.91492e-23
1.99724e-22
1.47336e-23
1.6901e-22
1.76031e-23
-1.1565e-23
1.13379e-24
2.22974e-23
1.51185e-23
2.63933e-23
8.80969e-24
-5.12135e-23
-3.36381e-24
1.6281e-23
-1.71016e-23
2.32871e-22
-1.5261e-23
2.43579e-22
-5.80008e-24
2.03017e-22
-8.85569e-24
2.10793e-22
1.28974e-24
1.80529e-22
-2.74123e-24
2.04938e-22
1.45226e-24
2.52796e-22
1.8263e-23
1.98478e-22
4.78204e-24
2.01862e-22
1.48386e-23
1.37737e-22
1.01783e-23
1.57163e-22
1.29325e-23
1.15594e-22
6.39975e-24
1.5456e-22
2.81731e-23
1.77995e-22
1.16015e-23
1.26718e-22
2.01683e-23
5.67274e-23
2.59579e-24
-1.27111e-23
1.0205e-23
-3.54788e-23
1.49936e-23
-1.39779e-23
4.06588e-24
1.45431e-23
-1.68477e-23
2.2005e-22
-1.61648e-23
2.53431e-22
-3.84741e-24
1.96428e-22
-9.09078e-24
1.70067e-22
1.74996e-24
2.10061e-22
-1.17321e-24
2.4277e-22
3.1402e-25
2.58809e-22
1.6809e-23
2.20561e-22
3.52407e-24
1.30514e-22
1.41221e-23
1.7952e-22
9.76048e-24
1.28732e-22
1.34241e-23
1.88345e-22
7.05367e-24
1.63973e-22
2.39072e-23
1.66848e-22
1.0112e-23
8.26851e-23
1.6001e-23
4.29438e-23
3.89911e-24
-5.66885e-23
9.90185e-24
-9.07883e-23
1.28165e-23
-1.29786e-23
9.34189e-24
1.50136e-23
-1.66687e-23
2.081e-22
-1.77765e-23
2.18248e-22
-5.50877e-24
2.3089e-22
-7.82009e-24
1.73966e-22
3.60076e-24
2.39071e-22
-1.78432e-24
2.28322e-22
4.85168e-25
2.24169e-22
1.36093e-23
2.17221e-22
3.88002e-24
1.38222e-22
1.20837e-23
1.78301e-22
1.17324e-23
1.77393e-22
1.30395e-23
1.80406e-22
4.27786e-24
1.77375e-22
2.23274e-23
1.82859e-22
1.18216e-23
1.29531e-22
9.15413e-24
-4.24057e-23
2.12503e-24
1.06172e-22
1.32145e-23
-2.33765e-23
1.6972e-23
-1.77056e-23
-2.61723e-23
1.23442e-23
-1.76882e-23
1.49698e-22
-1.55155e-23
2.17935e-22
-5.24917e-24
2.30334e-22
-6.24762e-24
9.88298e-23
2.44683e-24
2.38304e-22
-1.82413e-25
2.26688e-22
6.52794e-25
1.96289e-22
1.18671e-23
2.28155e-22
5.35332e-24
1.0893e-22
1.19835e-23
1.74853e-22
1.20345e-23
1.79774e-22
1.19773e-23
8.74806e-23
5.70873e-24
1.44452e-22
1.83857e-23
2.11804e-22
8.0792e-24
5.67025e-23
1.25726e-23
-1.88711e-23
-2.67409e-24
2.95164e-23
1.08409e-23
3.60825e-23
1.59507e-23
-6.3281e-23
2.74799e-24
1.69558e-23
-1.77673e-23
1.33894e-22
-1.44797e-23
1.69681e-22
-8.84949e-24
1.42963e-22
-3.9516e-24
1.05387e-22
4.65394e-24
2.61906e-22
-5.27127e-25
2.23152e-22
-1.34048e-25
2.02432e-22
1.14074e-23
2.58605e-22
5.37513e-24
1.16814e-22
1.27895e-23
2.56295e-22
9.87994e-24
1.51663e-22
1.19174e-23
1.09335e-22
8.29213e-24
1.83587e-22
1.18727e-23
1.72551e-22
6.59342e-24
1.32093e-22
1.29316e-23
5.21418e-23
-3.90734e-25
2.57417e-23
5.55171e-24
1.40985e-23
1.80859e-23
5.3535e-23
7.0276e-24
1.3477e-23
-1.75068e-23
9.19326e-23
-1.42847e-23
2.07139e-22
-7.82125e-24
1.84462e-22
-1.4217e-24
1.08646e-22
3.27938e-24
2.46374e-22
8.24753e-26
2.15943e-22
8.39516e-25
1.9548e-22
8.33199e-24
2.50011e-22
7.74723e-24
1.59019e-22
1.11302e-23
2.53802e-22
9.16847e-24
1.53728e-22
1.19831e-23
9.61946e-23
7.47469e-24
1.81714e-22
1.38691e-23
1.5991e-22
3.79262e-24
1.27364e-22
1.11045e-23
4.04948e-23
6.59706e-25
2.01756e-23
6.687e-24
-1.56793e-23
1.71952e-23
-7.71053e-25
5.59745e-23
1.15942e-23
-1.54114e-23
8.85026e-23
-1.56231e-23
1.90207e-22
-8.98584e-24
1.78783e-22
7.72853e-25
1.10452e-22
4.07738e-24
2.38314e-22
-2.7285e-25
2.58923e-22
7.13211e-25
1.8819e-22
8.68564e-24
2.54729e-22
8.21775e-24
1.58195e-22
8.85885e-24
2.55967e-22
9.15038e-24
1.53867e-22
1.39297e-23
8.43241e-23
6.08724e-24
1.447e-22
1.25407e-23
1.64617e-22
2.19378e-24
1.16181e-22
9.92683e-24
2.51583e-23
-1.29526e-24
1.77193e-23
8.85044e-24
4.71468e-23
1.70407e-23
6.8965e-23
-2.35946e-23
8.83589e-24
-1.36754e-23
1.29826e-22
-1.61904e-23
1.6912e-22
-9.67323e-24
2.14839e-22
2.50278e-24
1.05388e-22
5.30078e-24
2.66112e-22
-1.6084e-24
1.76516e-22
2.10485e-24
1.43939e-22
7.91053e-24
2.95092e-22
8.00976e-24
1.22484e-22
7.36606e-24
2.17706e-22
7.23231e-24
1.5858e-22
1.36403e-23
1.52219e-22
6.45187e-24
1.47368e-22
1.00375e-23
1.45394e-22
6.02213e-25
1.04847e-22
8.53383e-24
3.8159e-23
-6.62578e-25
2.09618e-23
7.36978e-24
-6.028e-24
1.43436e-23
9.89401e-23
-1.49046e-23
1.20965e-23
-1.21335e-23
1.30255e-22
-1.47817e-23
1.84006e-22
-1.06494e-23
2.19986e-22
4.51076e-24
1.93518e-22
4.66897e-24
2.60018e-22
-7.96059e-25
1.86302e-22
1.66421e-24
1.45241e-22
6.51469e-24
2.12389e-22
8.04578e-24
1.21724e-22
7.66234e-24
2.20983e-22
7.48955e-24
1.58582e-22
1.47581e-23
1.20317e-22
6.60082e-24
6.22697e-23
9.61189e-24
1.19733e-22
-1.04458e-24
1.42621e-22
6.21111e-24
2.07412e-23
-6.20872e-25
1.61572e-23
7.9039e-24
2.17167e-23
1.16333e-23
1.04298e-22
-3.86253e-26
1.35854e-23
-1.03536e-23
1.31895e-22
-1.42219e-23
2.02299e-22
-1.04942e-23
2.25421e-22
5.74797e-24
1.86184e-22
3.33165e-24
2.56387e-22
-3.49014e-25
1.86338e-22
9.51122e-25
1.57976e-22
6.53344e-24
1.28156e-22
8.90648e-24
1.23437e-22
5.20396e-24
1.90028e-22
7.16231e-24
2.46723e-22
1.20015e-23
1.12278e-22
7.76915e-24
6.37726e-23
9.58244e-24
1.93544e-22
-3.53325e-24
5.49507e-23
6.17401e-24
2.26421e-24
1.51916e-24
2.05333e-23
7.4792e-24
6.02068e-23
1.0763e-23
9.72143e-23
2.06822e-23
1.10814e-23
-8.38144e-24
1.29665e-22
-1.3271e-23
1.84313e-22
-1.08261e-23
1.9652e-22
7.82386e-24
2.55601e-22
1.80104e-24
2.63913e-22
9.50588e-25
2.27556e-22
-1.68086e-24
1.40003e-22
9.45962e-24
1.56104e-22
8.7454e-24
1.21473e-22
6.49125e-24
1.91319e-22
5.55289e-24
2.39501e-22
1.02067e-23
9.99267e-23
1.03838e-23
8.42802e-23
8.26867e-24
9.71849e-23
-3.61857e-24
-1.21637e-23
6.11353e-24
-4.75224e-24
1.28897e-24
1.94657e-23
8.14146e-24
5.7674e-23
8.4067e-24
1.0716e-22
8.6835e-23
1.11454e-23
-5.72994e-24
1.57919e-22
-1.38844e-23
1.13993e-22
-9.59394e-24
1.99413e-22
6.0955e-24
2.43224e-22
2.07119e-24
1.96029e-22
-1.00351e-24
2.31457e-22
-2.81716e-24
1.434e-22
1.11529e-23
1.68552e-22
9.4009e-24
1.1083e-22
7.47773e-24
1.84433e-22
4.10787e-24
2.44324e-22
9.28283e-24
8.12964e-23
1.00343e-23
1.2281e-22
5.35049e-24
7.01488e-23
-5.54712e-24
7.47459e-23
7.56343e-24
7.09828e-23
3.0892e-24
2.58825e-23
7.13581e-24
3.22708e-23
8.6189e-24
1.42558e-22
1.09757e-22
8.48445e-24
-5.58288e-24
1.48016e-22
-1.15366e-23
8.63565e-23
-8.83482e-24
1.29625e-22
6.38933e-24
2.28151e-22
2.6924e-24
2.05218e-22
-1.70104e-24
1.95101e-22
-2.64782e-24
1.4836e-22
1.12703e-23
1.73265e-22
1.13607e-23
7.44751e-23
6.66183e-24
1.84912e-22
1.22165e-24
2.15331e-22
1.05447e-23
-2.98113e-23
8.36926e-24
1.2461e-22
5.41408e-24
3.90827e-23
-6.92369e-24
-1.07881e-23
7.57526e-24
5.70871e-23
3.28887e-24
3.46605e-23
7.19966e-24
3.57841e-23
8.96794e-24
1.59463e-22
1.7333e-24
4.31824e-24
-5.50678e-24
1.27018e-22
-1.05652e-23
1.00764e-22
-7.5116e-24
1.5215e-22
8.25866e-24
2.44056e-22
1.25099e-24
1.76832e-22
-3.18002e-24
1.51829e-22
-2.89526e-24
1.46105e-22
1.09761e-23
1.53342e-22
1.32959e-23
6.1154e-23
8.35643e-24
1.41441e-22
-3.06635e-24
1.8991e-22
1.25386e-23
7.69688e-23
6.82436e-24
8.96805e-23
3.6106e-24
7.80738e-23
-5.81483e-24
7.63058e-23
7.20743e-24
3.00975e-23
4.25084e-24
4.10473e-23
7.88749e-24
2.6494e-23
7.63022e-24
1.7268e-22
7.20565e-24
3.82225e-24
-4.80802e-24
1.84451e-22
-9.1559e-24
1.43079e-22
-6.46523e-24
1.48837e-22
6.83581e-24
2.17042e-22
3.85512e-25
1.84188e-22
-1.81873e-24
1.51145e-22
-3.44966e-24
1.51679e-22
1.04514e-23
1.45378e-22
1.42056e-23
3.80783e-23
8.37986e-24
1.39505e-22
-2.87763e-24
1.952e-22
1.16029e-23
6.92661e-23
6.90288e-24
9.44977e-23
2.93658e-24
8.29038e-23
-8.40669e-24
5.44642e-23
8.96132e-24
1.30436e-22
3.60192e-24
2.0364e-23
8.08482e-24
-5.61143e-23
6.71245e-24
1.67307e-22
2.63348e-23
2.0568e-24
-4.23859e-24
1.81661e-22
-9.55631e-24
1.44025e-22
-5.00686e-24
1.77537e-22
5.98065e-24
1.58134e-22
6.58868e-25
1.91365e-22
-1.13311e-24
1.16026e-22
-4.22241e-24
1.52682e-22
8.99988e-24
1.96123e-22
1.60498e-23
9.33591e-23
8.61109e-24
1.04556e-22
-4.3888e-24
1.1896e-22
1.17973e-23
1.29779e-22
6.0673e-24
5.45197e-23
4.38327e-24
5.01402e-23
-1.02803e-23
6.89536e-23
7.48844e-24
1.87646e-22
3.73265e-24
3.6571e-23
9.12679e-24
-3.79763e-23
5.80225e-24
1.7098e-22
1.28498e-23
-8.33564e-25
-3.56081e-24
2.36583e-22
-8.24667e-24
1.48487e-22
-5.86995e-24
1.69634e-22
6.18662e-24
1.39033e-22
-5.95949e-25
2.28519e-22
-1.24592e-24
1.09239e-22
-1.81995e-24
1.50185e-22
6.65557e-24
1.42408e-22
1.55458e-23
1.04017e-22
1.05859e-23
6.06216e-23
-4.07536e-24
8.38157e-23
9.08372e-24
1.23295e-22
6.48749e-24
4.44048e-23
6.06429e-24
5.1667e-23
-9.11268e-24
1.618e-24
4.31172e-24
1.31814e-22
1.91653e-24
-2.89688e-23
1.11402e-23
6.39941e-23
2.60546e-24
1.91522e-22
1.18996e-23
-1.04448e-24
-4.28489e-24
2.08322e-22
-7.51254e-24
1.17116e-22
-6.58024e-24
1.70587e-22
7.90864e-24
1.46513e-22
-2.44129e-24
1.60401e-22
-6.28571e-25
1.07323e-22
-2.41566e-24
1.48268e-22
6.73716e-24
2.1941e-22
1.44914e-23
1.67732e-22
1.21151e-23
5.0896e-23
-4.58505e-24
6.20182e-23
8.35017e-24
1.31913e-22
5.47511e-24
6.31899e-23
7.28373e-24
5.18219e-23
-9.0533e-24
-1.55689e-23
2.67235e-24
8.29993e-23
3.68763e-24
-7.04472e-24
1.02455e-23
8.07363e-23
1.12133e-24
1.92261e-22
8.81456e-23
-2.86716e-24
-5.43532e-24
1.75587e-22
-6.2149e-24
1.65442e-22
-6.7943e-24
1.75509e-22
7.36302e-24
1.70049e-22
-2.4314e-24
1.73006e-22
-3.07303e-25
1.43292e-22
-1.90736e-24
1.37903e-22
5.71725e-24
2.07889e-22
1.31073e-23
1.58307e-22
1.14159e-23
1.10839e-22
-2.96721e-24
-1.24114e-23
7.33312e-24
8.5356e-23
3.94508e-24
2.88457e-23
7.01993e-24
6.09926e-23
-9.43298e-24
-7.81621e-23
2.22364e-24
9.26982e-23
4.58421e-24
1.33525e-23
1.02801e-23
4.94508e-23
7.21973e-25
1.19821e-22
4.46605e-23
-4.87504e-24
-6.60259e-24
-6.55876e-24
6.58756e-24
-2.04858e-24
8.69667e-23
-1.08331e-24
1.03477e-22
-3.68769e-25
1.25114e-22
5.65649e-24
1.99898e-22
1.23854e-23
1.43556e-22
1.0076e-23
2.44837e-23
-2.17647e-24
-3.75145e-23
7.5322e-24
1.18481e-22
4.77782e-24
6.36438e-23
5.24927e-24
3.56216e-23
-8.10817e-24
-1.29914e-22
2.67003e-24
-9.56956e-25
3.88793e-24
-1.19365e-23
1.07031e-23
5.81398e-23
-5.16598e-25
4.4173e-23
4.23802e-23
-2.67864e-24
5.97341e-27
2.7983e-26
5.4714e-24
1.00409e-23
5.30024e-23
1.00739e-23
1.44468e-23
-1.83084e-24
-7.99833e-23
7.1135e-24
7.86822e-23
2.18284e-24
7.57072e-23
4.65515e-24
1.04387e-22
-6.72037e-24
-1.13724e-22
2.5609e-24
-1.62788e-23
5.52764e-24
9.24993e-23
1.01434e-23
1.03699e-22
-5.28582e-25
1.01732e-23
-3.88654e-23
8.71539e-24
1.06079e-23
-3.41918e-25
8.26449e-24
2.33481e-24
1.39074e-24
-5.05109e-24
3.09256e-24
3.82045e-24
1.03096e-23
-1.17324e-24
1.65793e-23
-1.48261e-23
-1.0456e-23
1.36536e-23
1.93261e-23
3.91093e-23
1.11239e-24
2.23234e-23
1.7617e-23
2.14471e-23
-5.0212e-24
2.64236e-23
1.85107e-23
-1.63193e-24
-8.10233e-24
-1.10089e-23
8.1243e-24
2.24021e-23
2.08331e-23
9.1985e-24
-7.37877e-24
-8.8038e-24
-4.98445e-23
-8.48384e-24
1.33194e-23
6.12082e-24
-7.59159e-24
-6.51723e-24
-3.32097e-23
1.26086e-23
5.76913e-23
5.78997e-23
6.50039e-24
1.52726e-24
-6.31539e-24
1.68951e-24
-2.7873e-23
1.32683e-23
-3.88567e-26
8.47913e-24
4.00362e-24
-3.8866e-23
-6.04017e-24
3.68494e-24
-2.34289e-23
1.57111e-23
2.24863e-23
4.00465e-24
3.10192e-24
-7.92295e-23
-2.79053e-24
6.6788e-24
1.24137e-23
9.51329e-24
1.56825e-23
9.54917e-24
-4.05531e-23
3.29343e-24
4.62038e-24
-8.0885e-23
4.83182e-24
6.60695e-24
1.33651e-23
1.00499e-23
1.54443e-23
1.5488e-23
8.31852e-23
4.77536e-23
6.17829e-24
-9.32181e-23
1.1697e-23
7.48097e-24
1.97677e-23
1.35746e-23
1.40942e-23
1.53572e-23
4.12275e-23
6.26506e-23
5.57482e-24
-6.20779e-23
1.45735e-23
1.34208e-23
4.26148e-23
1.49083e-23
1.27501e-23
1.57705e-23
4.03495e-23
-7.24597e-24
9.97948e-24
-5.02781e-23
1.49482e-23
1.60305e-23
1.2911e-22
1.69356e-23
4.31543e-23
1.32949e-23
7.87765e-24
-1.00718e-23
1.67939e-23
-4.54663e-23
1.51039e-23
1.40892e-23
5.12571e-23
1.33446e-23
4.07196e-23
1.11887e-23
4.37362e-23
-9.2509e-24
1.64455e-23
2.81667e-23
1.17601e-23
1.65384e-23
1.0273e-23
1.18582e-23
4.8133e-23
9.90723e-24
4.84698e-23
9.80121e-24
-4.32927e-23
-2.95345e-24
1.82299e-23
-4.25389e-23
7.77304e-24
1.80097e-23
-2.91809e-23
1.28476e-23
-1.88634e-23
4.33281e-24
2.58473e-23
1.32727e-23
-2.29568e-24
4.08267e-23
2.03478e-23
7.8664e-23
1.1459e-23
1.73464e-23
-6.5741e-23
1.71158e-23
1.85958e-23
1.54234e-24
4.52993e-23
1.54606e-23
-3.88067e-24
7.39372e-24
1.01652e-23
1.39021e-22
1.19393e-23
2.7341e-23
3.0061e-24
2.22206e-23
-3.84721e-23
1.62418e-23
-1.37675e-23
1.1404e-24
-1.75601e-23
1.54742e-23
3.09587e-23
1.13942e-23
-2.38529e-23
1.18194e-23
9.54769e-23
-2.3593e-23
1.33241e-23
5.94223e-23
4.09704e-24
2.11851e-23
-2.60304e-23
1.67769e-23
-1.48228e-23
2.14073e-24
-4.31624e-23
1.53365e-23
-8.64084e-24
1.60079e-23
2.66251e-23
5.12288e-24
5.66947e-23
1.33863e-24
-3.06226e-23
1.18213e-23
1.11778e-23
9.4896e-23
3.43221e-24
2.05192e-23
-2.56263e-23
1.74483e-23
2.80025e-23
7.33345e-25
-4.05939e-23
1.59851e-23
1.56774e-23
1.45813e-23
-9.04019e-24
4.15314e-24
1.69053e-23
1.49497e-24
5.75938e-23
2.0443e-23
1.24999e-22
1.00672e-22
1.01835e-23
9.11661e-23
2.17022e-24
1.61901e-23
-3.54709e-25
1.82132e-23
6.28031e-23
-1.73898e-24
-3.63422e-23
1.8644e-23
1.19651e-22
1.25371e-23
4.32202e-23
8.41576e-24
9.86384e-23
3.72459e-24
5.97206e-23
2.09262e-23
1.48835e-22
1.34055e-22
1.07698e-23
1.23202e-22
3.92231e-24
1.63072e-23
-4.11579e-23
1.60006e-23
2.60389e-23
4.34191e-24
-1.12352e-22
1.8114e-23
1.3178e-23
1.25708e-23
1.95759e-23
8.40133e-24
9.63466e-23
5.87024e-24
5.8213e-23
2.00572e-23
1.29969e-22
9.37594e-23
1.00782e-23
1.16187e-22
1.54192e-24
1.33671e-23
-7.82411e-24
1.42847e-23
7.87124e-23
4.93857e-24
-1.07195e-22
1.6676e-23
3.69717e-24
1.58363e-23
-1.28655e-23
7.38859e-24
7.39277e-23
8.18401e-24
9.45573e-23
1.7769e-23
1.17639e-22
9.24786e-23
1.18107e-23
1.1918e-22
1.47153e-24
1.3233e-23
-7.97119e-23
9.69079e-24
9.06867e-24
9.13295e-24
-1.13367e-22
1.59842e-23
9.27373e-25
1.99624e-23
-1.91511e-23
5.28826e-24
5.38412e-23
9.04405e-24
9.12151e-24
1.77856e-23
7.05726e-23
7.93534e-23
7.96961e-24
7.32077e-23
-3.14943e-25
8.57972e-24
-6.8932e-23
1.2502e-23
5.73666e-23
8.76795e-24
-1.08609e-22
1.69038e-23
-2.81969e-23
2.27348e-23
1.4088e-23
8.51443e-24
7.8311e-23
9.16252e-24
1.32182e-23
1.94777e-23
5.70956e-23
7.61082e-23
4.77162e-24
6.8033e-23
8.67886e-25
9.6865e-24
-7.0436e-23
8.13528e-24
6.70179e-23
8.82672e-24
-9.81366e-23
1.76124e-23
1.81064e-23
2.32484e-23
1.48938e-23
4.32045e-24
-3.27631e-23
1.12597e-23
8.2063e-24
1.82017e-23
4.56093e-23
6.66395e-23
-1.46555e-24
3.39862e-23
-7.86504e-25
1.44973e-23
-5.15633e-23
4.38502e-24
-5.14107e-24
1.20031e-23
-9.53274e-23
2.00486e-23
2.03381e-23
2.01424e-23
-1.95719e-23
5.54114e-24
-9.3131e-23
1.17042e-23
5.86181e-24
2.1151e-23
3.81896e-23
6.49061e-23
-5.6144e-25
3.40348e-23
2.25693e-24
1.31039e-23
-2.11358e-23
5.16719e-24
8.65493e-24
1.11714e-23
-6.16913e-23
2.0829e-23
9.70003e-23
1.9205e-23
-1.90229e-23
7.76819e-24
-7.12025e-23
1.34048e-23
-3.18512e-23
2.0215e-23
3.81993e-23
6.57954e-23
-2.19567e-24
1.04289e-23
6.02046e-24
7.32495e-24
-3.67847e-23
8.48054e-24
2.38688e-24
1.32425e-23
-5.90466e-23
1.66044e-23
1.9817e-22
1.60092e-23
-2.35023e-23
9.1009e-24
-5.33975e-23
1.39002e-23
-7.20561e-25
2.22201e-23
3.50802e-23
6.48446e-23
8.52528e-26
3.56619e-23
7.69727e-24
9.02414e-24
-5.11904e-23
6.79031e-24
3.66868e-23
1.7633e-23
-5.69994e-23
1.40013e-23
1.2531e-22
1.60231e-23
-3.25163e-23
1.0756e-23
-5.29702e-24
1.42123e-23
2.05518e-24
2.40076e-23
6.89433e-23
3.17232e-23
-4.87151e-25
5.77347e-23
9.70732e-24
6.53762e-24
-7.4541e-23
8.15814e-24
3.58355e-23
2.01326e-23
-1.70901e-23
1.06226e-23
1.74162e-22
1.43811e-23
-4.88008e-23
1.20648e-23
-1.44377e-23
1.60666e-23
1.77158e-24
2.25564e-23
6.78955e-23
3.09739e-24
-3.81498e-24
5.62056e-24
9.16028e-24
7.07322e-24
2.35964e-23
7.21626e-24
1.4214e-23
1.25541e-23
1.61272e-23
2.15273e-23
4.41157e-23
-1.00167e-23
6.5838e-24
-1.24022e-23
-1.95307e-24
-5.76601e-24
-1.06695e-23
-1.30218e-23
-2.45784e-24
-1.88445e-23
5.12539e-25
-1.37488e-23
2.73393e-25
-7.92901e-24