/*--------------------------------*- C++ -*----------------------------------*\
  =========                 |
  \\      /  F ield         | OpenFOAM: The Open Source CFD Toolbox
   \\    /   O peration     | Website:  https://openfoam.org
    \\  /    A nd           | Version:  7
     \\/     M anipulation  |
\*---------------------------------------------------------------------------*/
FoamFile
{
    version     2.0;
    format      ascii;
    class       volScalarField;
    location    "164000";
    object      omega;
}
// * * * * * * * * * * * * * * * * * * * * * * * * * * * * * * * * * * * * * //

dimensions      [0 0 -1 0 0 0 0];

internalField   nonuniform List<scalar> 
4782
(
0.290691
0.300403
0.310617
0.321371
0.332703
0.344659
0.357286
0.370637
0.384771
0.399751
0.0955891
0.0975407
0.0995448
0.101604
0.103719
0.105893
0.108129
0.11043
0.112798
0.115236
0.117748
0.120335
0.123001
0.125749
0.128582
0.131503
0.134518
0.137629
0.140841
0.144159
0.147588
0.151132
0.154797
0.15859
0.162516
0.166583
0.170796
0.175165
0.179696
0.1844
0.189284
0.194359
0.199635
0.205125
0.210839
0.216792
0.222997
0.229469
0.236225
0.243283
0.250661
0.25838
0.266462
0.274931
0.283815
0.29314
0.302938
0.313244
0.324093
0.335526
0.347588
0.360327
0.373796
0.388054
0.403167
0.0963667
0.0983348
0.100356
0.102432
0.104566
0.106759
0.109015
0.111336
0.113725
0.116185
0.118719
0.121329
0.124018
0.12679
0.129648
0.132595
0.135636
0.138775
0.142015
0.145362
0.148821
0.152397
0.156095
0.159921
0.163882
0.167985
0.172236
0.176644
0.181216
0.185962
0.19089
0.196011
0.201335
0.206874
0.212641
0.218648
0.224909
0.231441
0.238259
0.245381
0.252827
0.260616
0.268773
0.27732
0.286285
0.295696
0.305585
0.315985
0.326933
0.338472
0.350644
0.363499
0.377092
0.391481
0.406732
0.0971739
0.0991593
0.101198
0.103293
0.105445
0.107658
0.109935
0.112278
0.114689
0.117172
0.119728
0.122362
0.125076
0.127873
0.130757
0.133731
0.136799
0.139966
0.143236
0.146614
0.150104
0.153712
0.157444
0.161306
0.165303
0.169444
0.173734
0.178183
0.182798
0.187588
0.192562
0.197731
0.203105
0.208697
0.214517
0.220581
0.226902
0.233495
0.240378
0.247567
0.255084
0.262947
0.271181
0.27981
0.28886
0.298361
0.308343
0.318842
0.329895
0.341543
0.35383
0.366807
0.380528
0.395053
0.410447
0.0980096
0.100012
0.10207
0.104184
0.106357
0.108592
0.11089
0.113256
0.11569
0.118196
0.120777
0.123436
0.126175
0.128998
0.131908
0.13491
0.138007
0.141204
0.144505
0.147914
0.151437
0.15508
0.158847
0.162746
0.166781
0.170962
0.175293
0.179785
0.184444
0.189281
0.194303
0.199522
0.204949
0.210595
0.216473
0.222596
0.228979
0.235637
0.242588
0.249848
0.257439
0.265381
0.273696
0.28241
0.29155
0.301145
0.311226
0.321829
0.332991
0.344754
0.357163
0.370268
0.384124
0.398791
0.414336
0.0980096
0.100012
0.10207
0.104184
0.106357
0.108592
0.11089
0.113256
0.11569
0.118196
0.120777
0.123436
0.126175
0.128998
0.131908
0.13491
0.138007
0.141204
0.144505
0.147914
0.151437
0.15508
0.158847
0.162746
0.166781
0.170962
0.175293
0.179785
0.184444
0.189281
0.194303
0.199522
0.204949
0.210595
0.216473
0.222596
0.228979
0.235637
0.242588
0.249848
0.257439
0.265381
0.273696
0.28241
0.29155
0.301145
0.311226
0.321829
0.332991
0.344754
0.357163
0.370268
0.384124
0.398791
0.414336
0.0971739
0.0991593
0.101198
0.103293
0.105445
0.107658
0.109935
0.112278
0.114689
0.117172
0.119728
0.122362
0.125076
0.127873
0.130757
0.133731
0.136799
0.139966
0.143236
0.146614
0.150104
0.153712
0.157444
0.161306
0.165303
0.169444
0.173734
0.178183
0.182798
0.187588
0.192562
0.197731
0.203105
0.208697
0.214517
0.220581
0.226902
0.233495
0.240378
0.247567
0.255084
0.262947
0.271181
0.27981
0.28886
0.298361
0.308343
0.318842
0.329895
0.341543
0.35383
0.366807
0.380528
0.395053
0.410447
0.426785
0.444148
0.462626
0.482322
0.0963667
0.0983348
0.100356
0.102432
0.104566
0.106759
0.109015
0.111336
0.113725
0.116185
0.118719
0.121329
0.124018
0.12679
0.129648
0.132595
0.135636
0.138775
0.142015
0.145362
0.148821
0.152397
0.156095
0.159921
0.163882
0.167985
0.172236
0.176644
0.181216
0.185962
0.19089
0.196011
0.201335
0.206874
0.212641
0.218648
0.224909
0.231441
0.238259
0.245381
0.252827
0.260616
0.268773
0.27732
0.286285
0.295696
0.305585
0.315985
0.326933
0.338472
0.350644
0.363499
0.377092
0.391481
0.406732
0.422917
0.440119
0.458426
0.477939
0.498772
0.0955891
0.0975407
0.0995448
0.101604
0.103719
0.105893
0.108129
0.11043
0.112798
0.115236
0.117748
0.120335
0.123001
0.125749
0.128582
0.131503
0.134518
0.137629
0.140841
0.144159
0.147588
0.151132
0.154797
0.15859
0.162516
0.166583
0.170796
0.175165
0.179696
0.1844
0.189284
0.194359
0.199635
0.205125
0.210839
0.216792
0.222997
0.229469
0.236225
0.243283
0.250661
0.25838
0.266462
0.274931
0.283815
0.29314
0.302938
0.313244
0.324093
0.335526
0.347588
0.360327
0.373796
0.388054
0.403167
0.419207
0.436254
0.454396
0.473735
0.494381
0.516461
0.540119
0.565516
0.592839
0.622301
0.654153
0.688686
0.726243
0.767237
0.812168
0.861656
0.916504
0.977685
1.04634
1.12394
1.21238
1.31416
1.43269
1.57264
1.74053
1.94559
2.20109
2.52637
2.95017
3.51625
4.29351
5.39521
7.01799
9.52747
13.6656
21.1196
36.3736
74.338
205.223
1028.82
0.0948422
0.096778
0.0987659
0.100808
0.102906
0.105062
0.10728
0.109561
0.111909
0.114326
0.116816
0.119382
0.122025
0.12475
0.127559
0.130456
0.133445
0.13653
0.139715
0.143005
0.146405
0.149919
0.153553
0.157314
0.161207
0.165238
0.169416
0.173747
0.178239
0.182902
0.187744
0.192775
0.198006
0.203448
0.209112
0.215013
0.221164
0.22758
0.234277
0.241272
0.248585
0.256236
0.264248
0.272643
0.281448
0.290691
0.300403
0.310617
0.321371
0.332704
0.344659
0.357286
0.370637
0.384771
0.399751
0.415651
0.432549
0.450534
0.469704
0.490171
0.512061
0.535514
0.560692
0.587779
0.616987
0.648563
0.682794
0.720022
0.760653
0.80518
0.854212
0.908537
0.969117
1.03709
1.11389
1.2014
1.30207
1.41926
1.55755
1.72335
1.92576
2.17784
2.49868
2.91662
3.4749
4.24158
5.32856
6.93018
9.40783
13.4951
20.861
35.944
73.5176
203.259
1022.15
0.094127
0.0960477
0.09802
0.100046
0.102127
0.104267
0.106466
0.108729
0.111058
0.113456
0.115925
0.11847
0.121091
0.123794
0.12658
0.129454
0.132419
0.135479
0.138638
0.141901
0.145273
0.148759
0.152363
0.156093
0.159954
0.163952
0.168096
0.172391
0.176846
0.18147
0.186272
0.191261
0.196448
0.201844
0.207462
0.213313
0.219412
0.225774
0.232414
0.23935
0.246602
0.254188
0.262131
0.270455
0.279185
0.28835
0.297979
0.308107
0.318769
0.330006
0.34186
0.35438
0.367618
0.381632
0.396486
0.412252
0.429007
0.446841
0.465851
0.486147
0.507854
0.531111
0.556079
0.58294
0.611905
0.643217
0.677161
0.714074
0.754358
0.798498
0.847096
0.900922
0.960928
1.02825
1.1043
1.19091
1.29053
1.40644
1.54315
1.70698
1.90687
2.15571
2.47231
2.88469
3.43554
4.19213
5.2651
6.84654
9.29384
13.3326
20.6144
35.5341
72.7341
201.38
1015.75
0.0934441
0.0953505
0.097308
0.0993186
0.101384
0.103508
0.10569
0.107936
0.110246
0.112625
0.115075
0.1176
0.120201
0.122882
0.125647
0.128498
0.13144
0.134476
0.137611
0.140848
0.144194
0.147652
0.151229
0.154929
0.158759
0.162726
0.166837
0.171098
0.175518
0.180105
0.184869
0.189818
0.194964
0.200316
0.205888
0.211692
0.217742
0.224052
0.230639
0.237519
0.244711
0.252236
0.260114
0.26837
0.277029
0.286119
0.29567
0.305715
0.31629
0.327435
0.339192
0.35161
0.36474
0.37864
0.393374
0.409011
0.425631
0.443321
0.462177
0.48231
0.503842
0.526913
0.55168
0.578326
0.607058
0.638118
0.671788
0.708401
0.748354
0.792126
0.840311
0.893662
0.953123
1.01982
1.09515
1.18093
1.27955
1.39425
1.52946
1.69142
1.88892
2.13469
2.44729
2.85439
3.39818
4.1452
5.20484
6.76711
9.18555
13.1782
20.38
35.1443
71.9882
199.589
1009.62
0.0927944
0.0946872
0.0966307
0.0986268
0.100678
0.102786
0.104952
0.107181
0.109474
0.111835
0.114267
0.116772
0.119354
0.122015
0.124759
0.127589
0.130509
0.133523
0.136634
0.139848
0.143168
0.146601
0.15015
0.153823
0.157624
0.161561
0.165641
0.16987
0.174256
0.178808
0.183535
0.188447
0.193553
0.198865
0.204394
0.210153
0.216156
0.222417
0.228953
0.235779
0.242916
0.250382
0.258198
0.26639
0.274981
0.284
0.293476
0.303443
0.313935
0.324992
0.336658
0.348978
0.362006
0.375797
0.390416
0.405932
0.422423
0.439975
0.458686
0.478663
0.500029
0.522922
0.547499
0.57394
0.602451
0.633271
0.666681
0.703008
0.742646
0.78607
0.833862
0.886763
0.945708
1.01182
1.08647
1.17145
1.26913
1.38268
1.51649
1.67668
1.87193
2.1148
2.42361
2.82571
3.36284
4.10079
5.1478
6.6919
9.08299
13.0319
20.1578
34.7746
71.2804
197.887
1003.79
0.0921784
0.0940583
0.0959886
0.097971
0.100008
0.102101
0.104253
0.106466
0.108743
0.111087
0.113501
0.115989
0.118552
0.121194
0.123919
0.126729
0.129628
0.13262
0.135709
0.1389
0.142197
0.145605
0.149129
0.152775
0.156549
0.160458
0.164508
0.168706
0.173061
0.17758
0.182273
0.187148
0.192217
0.19749
0.202979
0.208695
0.214654
0.220869
0.227356
0.234132
0.241216
0.248626
0.256385
0.264515
0.273042
0.281994
0.291399
0.301291
0.311705
0.32268
0.334258
0.346487
0.359417
0.373106
0.387616
0.403016
0.419385
0.436807
0.455379
0.475209
0.496418
0.519142
0.543539
0.569786
0.598087
0.62868
0.661842
0.697899
0.73724
0.780333
0.827754
0.88023
0.938688
1.00424
1.07826
1.16249
1.25928
1.37175
1.50424
1.66276
1.8559
2.09603
2.40128
2.79868
3.32952
4.05891
5.094
6.62094
8.9862
12.8938
19.948
34.4253
70.6111
196.276
998.244
0.0915967
0.0934645
0.0953822
0.0973518
0.0993754
0.101455
0.103593
0.105791
0.108053
0.110381
0.112779
0.115249
0.117795
0.120419
0.123125
0.125916
0.128796
0.131768
0.134836
0.138005
0.14128
0.144665
0.148165
0.151787
0.155535
0.159417
0.163439
0.167609
0.171934
0.176422
0.181082
0.185924
0.190957
0.196194
0.201644
0.207321
0.213238
0.219409
0.225851
0.232579
0.239612
0.24697
0.254674
0.262747
0.271214
0.280102
0.28944
0.299262
0.309602
0.320499
0.331995
0.344137
0.356975
0.370567
0.384974
0.400266
0.416519
0.433818
0.45226
0.47195
0.49301
0.515576
0.539802
0.565865
0.593969
0.624348
0.657277
0.693079
0.732139
0.774921
0.821992
0.874068
0.932067
0.9971
1.07051
1.15405
1.25
1.36147
1.4927
1.64967
1.84083
2.0784
2.3803
2.77328
3.29821
4.01956
5.04344
6.55425
8.8952
12.7639
19.7506
34.0965
69.9807
194.756
993.004
0.0910498
0.0929062
0.0948122
0.0967697
0.0987808
0.100847
0.102972
0.105157
0.107404
0.109718
0.1121
0.114554
0.117084
0.119691
0.12238
0.125153
0.128014
0.130967
0.134016
0.137165
0.140419
0.143782
0.14726
0.150858
0.154582
0.158439
0.162436
0.166578
0.170875
0.175334
0.179964
0.184774
0.189774
0.194976
0.20039
0.20603
0.211907
0.218038
0.224437
0.23112
0.238107
0.245415
0.253068
0.261087
0.269497
0.278325
0.287601
0.297356
0.307627
0.31845
0.329869
0.341929
0.354682
0.368182
0.382493
0.397683
0.413827
0.431011
0.44933
0.468889
0.48981
0.512226
0.536292
0.562182
0.5901
0.620278
0.652988
0.688551
0.727347
0.769836
0.816579
0.868281
0.92585
0.990394
1.06325
1.14612
1.24129
1.35182
1.4819
1.63741
1.82672
2.0619
2.36068
2.74953
3.26892
3.98274
4.99613
6.49181
8.80999
12.6422
19.5657
33.7883
69.3894
193.329
988.07
0.0905379
0.0923837
0.0942788
0.096225
0.0982245
0.100279
0.102391
0.104563
0.106798
0.109097
0.111465
0.113905
0.116419
0.119011
0.121683
0.124439
0.127283
0.130219
0.133249
0.136379
0.139613
0.142956
0.146413
0.14999
0.153692
0.157525
0.161497
0.165614
0.169885
0.174316
0.178918
0.183698
0.188668
0.193838
0.199218
0.204823
0.210664
0.216756
0.223115
0.229756
0.236699
0.243962
0.251566
0.259534
0.267891
0.276664
0.285881
0.295575
0.305781
0.316536
0.327882
0.339866
0.352538
0.365953
0.380174
0.395268
0.411311
0.428387
0.446591
0.466028
0.486818
0.509094
0.53301
0.55874
0.586484
0.616473
0.648978
0.684318
0.722868
0.765084
0.811521
0.862873
0.920042
0.98413
1.05646
1.13872
1.23317
1.34282
1.47182
1.62598
1.81356
2.04652
2.34239
2.7274
3.24165
3.94845
4.95205
6.43364
8.73058
12.5288
19.3932
33.5009
68.8374
191.995
983.449
0.0900615
0.0918975
0.0937824
0.0957182
0.0977068
0.0997504
0.101851
0.104011
0.106233
0.10852
0.110875
0.1133
0.1158
0.118377
0.121035
0.123775
0.126603
0.129522
0.132536
0.135648
0.138864
0.142188
0.145626
0.149182
0.152863
0.156675
0.160624
0.164718
0.168964
0.17337
0.177945
0.182698
0.187639
0.192779
0.198128
0.2037
0.209507
0.215564
0.221885
0.228488
0.23539
0.24261
0.25017
0.258091
0.266399
0.275119
0.284282
0.293919
0.304064
0.314755
0.326035
0.337948
0.350545
0.363881
0.378017
0.393022
0.408971
0.425947
0.444044
0.463367
0.484036
0.506182
0.529959
0.555539
0.583121
0.612936
0.645252
0.680384
0.718706
0.76067
0.806824
0.857855
0.914655
0.97832
1.05016
1.13186
1.22563
1.33447
1.46247
1.61538
1.80137
2.03227
2.32546
2.7069
3.21638
3.91668
4.91121
6.37973
8.65697
12.4237
19.2333
33.2341
68.325
190.755
979.144
0.0896209
0.0914478
0.0933233
0.0952494
0.0972281
0.0992614
0.101352
0.103501
0.105712
0.107987
0.110329
0.112742
0.115228
0.117792
0.120435
0.123162
0.125975
0.128879
0.131876
0.134973
0.138172
0.141478
0.144898
0.148436
0.152097
0.155889
0.159817
0.16389
0.168113
0.172496
0.177046
0.181774
0.186688
0.1918
0.197121
0.202663
0.208438
0.214462
0.220749
0.227316
0.23418
0.241361
0.248879
0.256757
0.265019
0.273692
0.282804
0.292388
0.302477
0.31311
0.324327
0.336175
0.348702
0.361965
0.376024
0.390947
0.406808
0.423691
0.44169
0.460909
0.481465
0.503491
0.527139
0.552581
0.580015
0.609669
0.641809
0.67675
0.714863
0.756594
0.802489
0.853226
0.909688
0.972961
1.04435
1.12552
1.21868
1.32677
1.45385
1.60561
1.79014
2.01915
2.30986
2.68803
3.19311
3.88742
4.8736
6.33006
8.58914
12.3268
19.0858
32.9881
67.8521
189.61
975.159
0.0892163
0.0910348
0.0929018
0.094819
0.0967885
0.0988124
0.100893
0.103032
0.105233
0.107497
0.109828
0.112229
0.114704
0.117255
0.119885
0.122599
0.125398
0.128288
0.131271
0.134352
0.137536
0.140827
0.14423
0.147751
0.151394
0.155168
0.159077
0.163129
0.167332
0.171693
0.176222
0.180926
0.185816
0.190903
0.196197
0.201711
0.207458
0.213451
0.219707
0.226241
0.23307
0.240215
0.247695
0.255533
0.263753
0.272382
0.281448
0.290983
0.301021
0.3116
0.32276
0.334548
0.347012
0.360208
0.374196
0.389043
0.404824
0.421623
0.439531
0.458653
0.479106
0.501023
0.524553
0.549868
0.577165
0.606671
0.638651
0.673417
0.711337
0.752855
0.798512
0.848981
0.905132
0.968047
1.03902
1.11972
1.21231
1.31971
1.44596
1.59667
1.77986
2.00714
2.29559
2.67076
3.17183
3.86066
4.83918
6.28462
8.52707
12.238
18.9508
32.7628
67.4187
188.559
971.497
0.0888479
0.0906589
0.092518
0.0944272
0.0963884
0.0984037
0.100475
0.102605
0.104796
0.107051
0.109372
0.111762
0.114226
0.116766
0.119385
0.122086
0.124873
0.12775
0.13072
0.133788
0.136958
0.140234
0.143622
0.147127
0.150755
0.154511
0.158403
0.162438
0.166622
0.170963
0.175471
0.180154
0.185022
0.190086
0.195356
0.200845
0.206565
0.212532
0.218759
0.225262
0.232061
0.239172
0.246618
0.25442
0.262602
0.271191
0.280215
0.289706
0.299697
0.310227
0.321335
0.333068
0.345475
0.358609
0.372533
0.387311
0.40302
0.419741
0.437567
0.456601
0.476961
0.498777
0.5222
0.5474
0.574573
0.603944
0.635778
0.670384
0.708129
0.749454
0.794895
0.845119
0.900989
0.963578
1.03418
1.11444
1.20651
1.3133
1.43879
1.58854
1.77053
1.99625
2.28264
2.6551
3.15252
3.83638
4.80796
6.24338
8.47073
12.1575
18.8282
32.5582
67.025
187.604
968.161
0.088516
0.0903201
0.0921722
0.0940741
0.0960279
0.0980355
0.100099
0.102221
0.104404
0.106649
0.108961
0.111342
0.113796
0.116325
0.118934
0.121624
0.1244
0.127266
0.130224
0.13328
0.136437
0.1397
0.143075
0.146566
0.150179
0.15392
0.157797
0.161815
0.165982
0.170306
0.174795
0.179459
0.184307
0.18935
0.194599
0.200065
0.205762
0.211704
0.217905
0.224381
0.231151
0.238233
0.245648
0.253417
0.261565
0.270118
0.279104
0.288555
0.298505
0.30899
0.320052
0.331736
0.34409
0.35717
0.371035
0.385752
0.401395
0.418046
0.435798
0.454753
0.475029
0.496755
0.520081
0.545177
0.572238
0.601488
0.633191
0.667653
0.70524
0.746391
0.791637
0.841642
0.897259
0.959555
1.02982
1.10969
1.2013
1.30753
1.43234
1.58124
1.76214
1.98646
2.27102
2.64104
3.13518
3.81457
4.77991
6.20633
8.4201
12.0851
18.718
32.3742
66.6707
186.744
965.153
0.0882206
0.0900186
0.0918645
0.09376
0.0957071
0.0977079
0.0997644
0.101879
0.104054
0.106292
0.108596
0.110968
0.113413
0.115934
0.118533
0.121214
0.12398
0.126835
0.129783
0.132828
0.135974
0.139225
0.142588
0.146066
0.149667
0.153395
0.157257
0.16126
0.165412
0.169721
0.174194
0.178841
0.183672
0.188696
0.193925
0.199371
0.205047
0.210967
0.217145
0.223598
0.230343
0.237399
0.244785
0.252526
0.260643
0.269164
0.278117
0.287532
0.297445
0.307891
0.318911
0.330551
0.342859
0.35589
0.369703
0.384365
0.39995
0.416539
0.434225
0.45311
0.47331
0.494956
0.518197
0.5432
0.570161
0.599304
0.630889
0.665224
0.702671
0.743667
0.788741
0.83855
0.893942
0.955979
1.02595
1.10547
1.19667
1.30241
1.42661
1.57476
1.7547
1.97777
2.2607
2.62856
3.1198
3.79522
4.75502
6.17345
8.37516
12.0209
18.6202
32.2108
66.356
185.979
962.474
0.0879619
0.0897546
0.091595
0.0934849
0.0954262
0.097421
0.0994714
0.10158
0.103748
0.105979
0.108276
0.110641
0.113078
0.115591
0.118182
0.120854
0.123612
0.126458
0.129397
0.132432
0.135568
0.138809
0.142161
0.145629
0.149218
0.152934
0.156785
0.160775
0.164914
0.169209
0.173668
0.1783
0.183115
0.188123
0.193336
0.198764
0.204422
0.210323
0.216481
0.222912
0.229635
0.236668
0.24403
0.251745
0.259836
0.268329
0.277252
0.286637
0.296517
0.306928
0.317913
0.329514
0.341782
0.35477
0.368537
0.383151
0.398685
0.41522
0.432848
0.451672
0.471806
0.493382
0.516547
0.54147
0.568343
0.597392
0.628875
0.663098
0.700422
0.741282
0.786205
0.835844
0.891039
0.952849
1.02256
1.10178
1.19262
1.29793
1.4216
1.5691
1.74819
1.97018
2.25168
2.61766
3.10636
3.77832
4.73328
6.14472
8.3359
11.9648
18.5346
32.0679
66.0807
185.31
960.127
0.08774
0.0895282
0.0913639
0.0932489
0.0951853
0.0971749
0.09922
0.101323
0.103486
0.105711
0.108001
0.11036
0.112791
0.115297
0.117881
0.120546
0.123296
0.126135
0.129066
0.132093
0.13522
0.138453
0.141796
0.145254
0.148833
0.15254
0.15638
0.16036
0.164487
0.16877
0.173217
0.177836
0.182638
0.187632
0.19283
0.198244
0.203886
0.20977
0.215911
0.222325
0.229029
0.236041
0.243383
0.251076
0.259144
0.267613
0.276511
0.285869
0.295721
0.306103
0.317057
0.328625
0.340858
0.353809
0.367538
0.382111
0.3976
0.414089
0.431668
0.450439
0.470517
0.492032
0.515133
0.539986
0.566785
0.595752
0.627148
0.661275
0.698494
0.739238
0.784031
0.833524
0.88855
0.950166
1.01965
1.09862
1.18915
1.2941
1.41732
1.56424
1.74262
1.96368
2.24397
2.60833
3.09486
3.76386
4.71467
6.12013
8.30229
11.9167
18.4614
31.9455
65.8449
184.736
958.112
0.087555
0.0893394
0.0911712
0.0930522
0.0949844
0.0969698
0.0990104
0.101109
0.103267
0.105487
0.107773
0.110126
0.112551
0.115051
0.11763
0.120289
0.123033
0.125865
0.128789
0.13181
0.13493
0.138156
0.141491
0.144942
0.148513
0.152211
0.156042
0.160013
0.164131
0.168404
0.172841
0.17745
0.18224
0.187223
0.192409
0.19781
0.203439
0.209309
0.215436
0.221835
0.228523
0.235519
0.242844
0.250519
0.258568
0.267017
0.275894
0.28523
0.295058
0.305416
0.316343
0.327884
0.340088
0.353009
0.366705
0.381243
0.396697
0.413146
0.430684
0.449411
0.469442
0.490907
0.513954
0.538749
0.565486
0.594386
0.625708
0.659755
0.696887
0.737534
0.782219
0.83159
0.886476
0.94793
1.01723
1.09598
1.18626
1.2909
1.41374
1.5602
1.73799
1.95827
2.23755
2.60057
3.08529
3.75182
4.69919
6.09966
8.2743
11.8767
18.4004
31.8436
65.6485
184.258
956.432
0.0874069
0.0891882
0.0910169
0.0928948
0.0948236
0.0968056
0.0988427
0.100937
0.103092
0.105308
0.10759
0.109939
0.11236
0.114855
0.117429
0.120083
0.122822
0.12565
0.128569
0.131583
0.134698
0.137918
0.141247
0.144692
0.148256
0.151948
0.155772
0.159735
0.163846
0.168111
0.17254
0.17714
0.181922
0.186896
0.192072
0.197463
0.203081
0.208941
0.215056
0.221443
0.228118
0.235101
0.242412
0.250073
0.258106
0.266539
0.2754
0.284718
0.294527
0.304865
0.315772
0.327291
0.339472
0.352368
0.366039
0.380549
0.395973
0.412392
0.429896
0.448588
0.468582
0.490007
0.51301
0.537759
0.564446
0.593292
0.624556
0.658539
0.695601
0.73617
0.780769
0.830043
0.884817
0.946142
1.0153
1.09387
1.18395
1.28834
1.41089
1.55697
1.73428
1.95395
2.23242
2.59436
3.07765
3.7422
4.68681
6.08331
8.25194
11.8447
18.3517
31.7621
65.4914
183.875
955.087
0.0872958
0.0890749
0.0909012
0.0927766
0.094703
0.0966824
0.0987169
0.100809
0.10296
0.105174
0.107452
0.109799
0.112216
0.114708
0.117278
0.119929
0.122664
0.125488
0.128403
0.131414
0.134524
0.13774
0.141065
0.144504
0.148064
0.15175
0.155569
0.159527
0.163632
0.167892
0.172314
0.176908
0.181683
0.18665
0.191819
0.197203
0.202813
0.208664
0.214771
0.221149
0.227815
0.234788
0.242089
0.249738
0.25776
0.266181
0.275029
0.284334
0.29413
0.304453
0.315344
0.326847
0.33901
0.351888
0.365539
0.380029
0.395431
0.411826
0.429306
0.447971
0.467937
0.489332
0.512303
0.537017
0.563666
0.592472
0.623691
0.657627
0.694636
0.735147
0.779681
0.828882
0.883572
0.9448
1.01384
1.09229
1.18222
1.28643
1.40875
1.55455
1.7315
1.95071
2.22858
2.58971
3.07192
3.73499
4.67753
6.07105
8.23518
11.8207
18.3151
31.7011
65.3736
183.588
954.078
0.0872217
0.0889993
0.090824
0.0926979
0.0946226
0.0966003
0.098633
0.100723
0.102873
0.105084
0.107361
0.109705
0.11212
0.11461
0.117178
0.119826
0.122559
0.12538
0.128292
0.1313
0.134408
0.137621
0.140943
0.144379
0.147936
0.151619
0.155434
0.159389
0.16349
0.167746
0.172164
0.176753
0.181524
0.186486
0.191651
0.197029
0.202634
0.20848
0.214581
0.220953
0.227612
0.234579
0.241873
0.249515
0.25753
0.265943
0.274782
0.284078
0.293864
0.304178
0.315058
0.32655
0.338702
0.351567
0.365205
0.379682
0.395069
0.411449
0.428912
0.44756
0.467507
0.488881
0.511831
0.536522
0.563146
0.591925
0.623115
0.657019
0.693993
0.734466
0.778956
0.828108
0.882743
0.943906
1.01288
1.09123
1.18106
1.28515
1.40732
1.55294
1.72965
1.94855
2.22601
2.58662
3.0681
3.73019
4.67135
6.06288
8.22401
11.8047
18.2908
31.6603
65.2951
183.397
953.404
0.0871846
0.0889614
0.0907855
0.0926585
0.0945824
0.0965592
0.098591
0.10068
0.102829
0.10504
0.107315
0.109658
0.112072
0.114561
0.117128
0.119775
0.122507
0.125326
0.128237
0.131244
0.13435
0.137561
0.140882
0.144317
0.147872
0.151553
0.155366
0.159319
0.163419
0.167672
0.172088
0.176676
0.181445
0.186405
0.191567
0.196942
0.202545
0.208388
0.214486
0.220855
0.227511
0.234475
0.241765
0.249404
0.257414
0.265823
0.274658
0.28395
0.293732
0.30404
0.314916
0.326402
0.338548
0.351407
0.365039
0.379508
0.394888
0.411261
0.428715
0.447354
0.467291
0.488656
0.511595
0.536274
0.562886
0.591652
0.622827
0.656715
0.693671
0.734125
0.778594
0.827721
0.882328
0.943459
1.01239
1.09071
1.18048
1.28451
1.40661
1.55213
1.72873
1.94747
2.22473
2.58507
3.06619
3.72779
4.66826
6.0588
8.21843
11.7967
18.2786
31.64
65.2558
183.302
953.067
0.0871846
0.0889614
0.0907855
0.0926585
0.0945824
0.0965592
0.098591
0.10068
0.102829
0.10504
0.107315
0.109658
0.112072
0.114561
0.117128
0.119775
0.122507
0.125326
0.128237
0.131244
0.13435
0.137561
0.140882
0.144317
0.147872
0.151553
0.155366
0.159319
0.163419
0.167672
0.172088
0.176676
0.181445
0.186405
0.191567
0.196942
0.202545
0.208388
0.214486
0.220855
0.227511
0.234475
0.241765
0.249404
0.257414
0.265823
0.274658
0.28395
0.293732
0.30404
0.314916
0.326402
0.338548
0.351407
0.365039
0.379508
0.394888
0.411261
0.428715
0.447354
0.467291
0.488656
0.511595
0.536274
0.562886
0.591652
0.622827
0.656715
0.693671
0.734125
0.778594
0.827722
0.882328
0.943459
1.01239
1.09071
1.18048
1.28451
1.40661
1.55213
1.72873
1.94747
2.22473
2.58507
3.06619
3.72779
4.66826
6.0588
8.21843
11.7967
18.2786
31.64
65.2558
183.302
953.067
0.0872217
0.0889993
0.090824
0.0926978
0.0946226
0.0966003
0.098633
0.100723
0.102873
0.105084
0.107361
0.109705
0.11212
0.11461
0.117178
0.119826
0.122559
0.12538
0.128292
0.1313
0.134408
0.137621
0.140943
0.144379
0.147936
0.151619
0.155434
0.159389
0.16349
0.167746
0.172164
0.176753
0.181524
0.186486
0.191651
0.197029
0.202634
0.20848
0.214581
0.220953
0.227612
0.234579
0.241873
0.249515
0.25753
0.265943
0.274782
0.284078
0.293864
0.304178
0.315058
0.32655
0.338702
0.351567
0.365205
0.379682
0.395069
0.411449
0.428912
0.44756
0.467507
0.488881
0.511831
0.536522
0.563146
0.591925
0.623115
0.657019
0.693993
0.734466
0.778956
0.828108
0.882743
0.943906
1.01288
1.09123
1.18106
1.28515
1.40732
1.55294
1.72965
1.94855
2.22601
2.58662
3.0681
3.73019
4.67135
6.06288
8.22401
11.8047
18.2908
31.6603
65.2951
183.397
953.404
0.0872957
0.0890749
0.0909012
0.0927766
0.094703
0.0966824
0.0987169
0.100809
0.10296
0.105174
0.107452
0.109799
0.112216
0.114708
0.117278
0.119929
0.122664
0.125488
0.128403
0.131414
0.134524
0.13774
0.141065
0.144504
0.148064
0.15175
0.155569
0.159527
0.163632
0.167892
0.172314
0.176908
0.181683
0.18665
0.191819
0.197203
0.202813
0.208664
0.214771
0.221149
0.227815
0.234788
0.242089
0.249738
0.25776
0.266181
0.275029
0.284334
0.29413
0.304453
0.315344
0.326847
0.33901
0.351888
0.365539
0.380029
0.395431
0.411826
0.429306
0.447971
0.467937
0.489332
0.512303
0.537017
0.563666
0.592472
0.623691
0.657627
0.694636
0.735147
0.779681
0.828882
0.883572
0.9448
1.01384
1.09229
1.18222
1.28643
1.40875
1.55455
1.7315
1.95071
2.22858
2.58971
3.07192
3.73499
4.67753
6.07105
8.23518
11.8207
18.3151
31.7011
65.3736
183.588
954.078
0.0874069
0.0891882
0.0910169
0.0928947
0.0948236
0.0968056
0.0988427
0.100937
0.103092
0.105308
0.10759
0.109939
0.11236
0.114855
0.117429
0.120083
0.122822
0.12565
0.128569
0.131583
0.134698
0.137918
0.141247
0.144692
0.148256
0.151948
0.155772
0.159735
0.163846
0.168111
0.17254
0.17714
0.181922
0.186896
0.192072
0.197463
0.203081
0.208941
0.215056
0.221443
0.228118
0.235101
0.242412
0.250073
0.258106
0.266539
0.2754
0.284718
0.294527
0.304865
0.315772
0.327291
0.339472
0.352368
0.366039
0.380549
0.395973
0.412392
0.429896
0.448588
0.468582
0.490007
0.51301
0.537759
0.564446
0.593292
0.624556
0.658539
0.695601
0.73617
0.780769
0.830043
0.884817
0.946142
1.0153
1.09387
1.18395
1.28834
1.41089
1.55697
1.73428
1.95395
2.23242
2.59436
3.07765
3.7422
4.68681
6.08331
8.25194
11.8447
18.3517
31.7621
65.4914
183.875
955.087
0.087555
0.0893394
0.0911712
0.0930522
0.0949844
0.0969698
0.0990104
0.101109
0.103267
0.105487
0.107773
0.110126
0.112551
0.115051
0.11763
0.120289
0.123033
0.125865
0.128789
0.13181
0.13493
0.138156
0.141491
0.144942
0.148513
0.152211
0.156042
0.160013
0.164131
0.168404
0.172841
0.17745
0.18224
0.187223
0.192409
0.19781
0.203439
0.209309
0.215436
0.221835
0.228523
0.235519
0.242844
0.250519
0.258568
0.267017
0.275894
0.28523
0.295058
0.305416
0.316343
0.327884
0.340088
0.353009
0.366705
0.381243
0.396697
0.413146
0.430684
0.449411
0.469442
0.490907
0.513954
0.538749
0.565486
0.594386
0.625708
0.659755
0.696887
0.737534
0.782219
0.83159
0.886476
0.947931
1.01723
1.09598
1.18626
1.2909
1.41374
1.5602
1.73799
1.95827
2.23755
2.60057
3.08529
3.75182
4.69919
6.09966
8.2743
11.8767
18.4004
31.8436
65.6485
184.258
956.432
0.08774
0.0895282
0.0913639
0.093249
0.0951853
0.0971749
0.09922
0.101323
0.103486
0.105711
0.108001
0.11036
0.112791
0.115297
0.117881
0.120546
0.123296
0.126135
0.129066
0.132093
0.13522
0.138453
0.141796
0.145254
0.148833
0.15254
0.15638
0.160359
0.164487
0.16877
0.173217
0.177836
0.182638
0.187632
0.19283
0.198244
0.203886
0.20977
0.215911
0.222325
0.229029
0.236041
0.243383
0.251076
0.259144
0.267613
0.276511
0.285869
0.295721
0.306103
0.317057
0.328625
0.340858
0.353809
0.367538
0.382111
0.3976
0.414089
0.431668
0.450439
0.470517
0.492032
0.515133
0.539986
0.566785
0.595752
0.627148
0.661275
0.698494
0.739238
0.784031
0.833524
0.88855
0.950166
1.01965
1.09862
1.18915
1.2941
1.41732
1.56424
1.74262
1.96368
2.24397
2.60833
3.09486
3.76386
4.71467
6.12013
8.30229
11.9167
18.4614
31.9455
65.8449
184.736
958.112
0.0879619
0.0897546
0.091595
0.0934849
0.0954262
0.097421
0.0994714
0.10158
0.103748
0.105979
0.108276
0.110641
0.113078
0.115591
0.118182
0.120854
0.123612
0.126458
0.129397
0.132432
0.135568
0.138809
0.142161
0.145629
0.149218
0.152934
0.156785
0.160775
0.164914
0.169209
0.173668
0.1783
0.183115
0.188123
0.193336
0.198764
0.204422
0.210323
0.216481
0.222912
0.229635
0.236668
0.24403
0.251745
0.259836
0.268329
0.277252
0.286637
0.296517
0.306928
0.317913
0.329514
0.341782
0.35477
0.368537
0.383151
0.398685
0.41522
0.432848
0.451672
0.471806
0.493382
0.516547
0.54147
0.568343
0.597392
0.628875
0.663098
0.700422
0.741282
0.786205
0.835844
0.891039
0.952849
1.02256
1.10178
1.19262
1.29793
1.4216
1.5691
1.74819
1.97018
2.25168
2.61766
3.10636
3.77832
4.73328
6.14472
8.3359
11.9648
18.5346
32.0679
66.0807
185.31
960.127
0.0882206
0.0900186
0.0918645
0.09376
0.0957071
0.0977079
0.0997645
0.101879
0.104054
0.106292
0.108596
0.110968
0.113413
0.115934
0.118533
0.121214
0.12398
0.126835
0.129783
0.132828
0.135974
0.139225
0.142588
0.146066
0.149667
0.153395
0.157257
0.16126
0.165412
0.169721
0.174194
0.178841
0.183672
0.188696
0.193925
0.199371
0.205047
0.210967
0.217145
0.223598
0.230343
0.237399
0.244785
0.252526
0.260643
0.269164
0.278117
0.287532
0.297445
0.307891
0.318911
0.330551
0.342859
0.35589
0.369703
0.384365
0.39995
0.416539
0.434225
0.45311
0.47331
0.494956
0.518197
0.5432
0.570161
0.599304
0.630889
0.665224
0.702671
0.743667
0.788741
0.83855
0.893942
0.955979
1.02595
1.10547
1.19667
1.30241
1.42661
1.57476
1.7547
1.97777
2.2607
2.62856
3.1198
3.79522
4.75502
6.17345
8.37516
12.0209
18.6202
32.2108
66.356
185.979
962.474
0.088516
0.0903201
0.0921722
0.0940742
0.0960279
0.0980355
0.100099
0.102221
0.104404
0.106649
0.108961
0.111342
0.113796
0.116325
0.118934
0.121624
0.124401
0.127266
0.130224
0.13328
0.136437
0.1397
0.143075
0.146566
0.150179
0.15392
0.157797
0.161815
0.165982
0.170306
0.174795
0.179459
0.184307
0.18935
0.194599
0.200065
0.205762
0.211704
0.217905
0.224381
0.231151
0.238233
0.245648
0.253417
0.261565
0.270118
0.279104
0.288555
0.298505
0.30899
0.320052
0.331736
0.34409
0.35717
0.371035
0.385752
0.401395
0.418046
0.435798
0.454753
0.475029
0.496755
0.520081
0.545177
0.572238
0.601488
0.633191
0.667653
0.70524
0.746391
0.791637
0.841642
0.897259
0.959555
1.02982
1.10969
1.2013
1.30753
1.43234
1.58124
1.76214
1.98646
2.27102
2.64104
3.13518
3.81457
4.77991
6.20633
8.4201
12.0851
18.718
32.3742
66.6707
186.744
965.153
0.0888479
0.0906589
0.092518
0.0944272