/*--------------------------------*- C++ -*----------------------------------*\
  =========                 |
  \\      /  F ield         | OpenFOAM: The Open Source CFD Toolbox
   \\    /   O peration     | Website:  https://openfoam.org
    \\  /    A nd           | Version:  7
     \\/     M anipulation  |
\*---------------------------------------------------------------------------*/
FoamFile
{
    version     2.0;
    format      ascii;
    class       surfaceScalarField;
    location    "192000";
    object      phi;
}
// * * * * * * * * * * * * * * * * * * * * * * * * * * * * * * * * * * * * * //

dimensions      [0 3 -1 0 0 0 0];

internalField   nonuniform List<scalar> 
9375
(
-1.86032e-23
1.10136e-22
-7.86417e-24
1.377e-22
-1.27321e-23
1.05373e-22
-6.43079e-24
8.42619e-23
-1.53159e-23
-1.20753e-23
9.75474e-23
-1.08137e-23
1.36186e-23
-4.32604e-24
-5.66602e-23
-1.08135e-23
-3.67854e-23
-1.5072e-23
3.25621e-23
-9.06798e-24
1.07258e-22
-1.17682e-23
8.1538e-23
-8.66765e-24
4.55504e-23
-2.07638e-23
1.68135e-23
-9.62994e-24
7.34606e-24
-1.59551e-23
1.52888e-22
-9.05901e-24
1.64679e-22
-1.21946e-23
1.72207e-22
-7.76342e-24
5.94917e-23
-1.39082e-23
4.24578e-23
-1.86356e-23
1.26148e-22
-1.35813e-23
1.16448e-22
-8.94861e-24
8.82444e-23
-1.25003e-23
1.18054e-22
-3.99766e-24
5.51309e-23
-1.67109e-23
3.03379e-23
-2.62484e-23
1.80851e-22
-3.13656e-23
5.34711e-23
-2.21138e-23
4.0859e-23
-1.78421e-23
1.05172e-22
-1.64341e-23
1.47468e-22
-1.87871e-23
1.42355e-22
-1.87514e-23
4.61803e-23
-1.34401e-23
1.17836e-22
1.27749e-22
-1.13213e-23
3.60017e-23
-3.25772e-24
-6.35163e-23
-1.04577e-23
-4.03236e-23
-1.35636e-23
7.39722e-23
-9.22787e-24
8.52371e-23
-1.21631e-23
1.64815e-22
-7.95932e-24
1.28589e-22
-2.07097e-23
4.4059e-23
-8.13481e-24
-3.26512e-23
-1.49549e-23
1.44956e-22
-8.81504e-24
2.05821e-22
-1.46698e-23
1.00742e-22
-7.25502e-24
6.67874e-23
-1.19683e-23
3.84535e-23
-1.93787e-23
6.52982e-23
-1.28092e-23
1.23638e-22
-8.92813e-24
5.61688e-23
-1.25746e-23
1.23674e-22
-4.40687e-24
9.55451e-23
-1.43609e-23
4.56023e-23
-2.77897e-23
1.15896e-22
-3.15064e-23
3.49974e-23
-2.18455e-23
2.72392e-23
-1.65761e-23
1.21656e-22
-1.64175e-23
1.70511e-22
-2.02462e-23
7.03003e-23
-1.76024e-23
5.62368e-23
-1.33308e-23
4.2104e-23
6.55514e-25
1.34105e-22
-1.49156e-24
5.40968e-23
2.43134e-24
8.99436e-23
-3.85189e-25
1.487e-23
1.26535e-22
-1.13117e-23
5.07497e-23
-2.29069e-24
-7.58233e-23
-8.38088e-24
-6.22739e-23
-1.25442e-23
8.44785e-23
-8.34337e-24
7.45516e-23
-1.16568e-23
1.27111e-22
-9.775e-24
1.24678e-22
-2.17195e-23
3.4784e-23
-6.09403e-24
8.05799e-23
-1.36056e-23
1.15121e-22
-1.0494e-23
2.15306e-22
-1.55046e-23
1.2499e-22
-7.25052e-24
7.00606e-23
-1.10699e-23
6.48558e-23
-1.87015e-23
1.36602e-24
-1.27976e-23
1.08506e-22
-8.5131e-24
7.71137e-23
-1.24478e-23
1.81348e-22
-5.22054e-24
1.02021e-22
-1.35613e-23
6.38753e-23
-2.83811e-23
7.64506e-24
-3.14923e-23
4.32922e-23
-2.05237e-23
1.59222e-23
-1.51806e-23
1.03475e-22
-1.862e-23
1.30814e-22
-1.92144e-23
1.2415e-22
-1.81548e-23
5.6886e-23
-1.1775e-23
6.75308e-23
7.25283e-25
1.6465e-22
-1.26342e-24
2.25922e-23
1.62531e-24
7.03972e-23
1.5235e-24
-2.93761e-24
2.89352e-24
8.2738e-23
8.27761e-24
5.39985e-23
1.45732e-25
7.10699e-23
-1.85588e-24
-9.33349e-23
-2.13814e-24
1.2447e-23
-4.43138e-24
5.98122e-23
-1.24058e-23
8.43696e-23
-1.59779e-23
4.15291e-23
-2.35267e-24
1.02381e-22
-5.53593e-24
7.08373e-23
-3.42001e-24
-7.63036e-24
-1.87615e-23
1.46755e-24
-9.0217e-24
-1.24563e-23
8.94502e-23
-1.9052e-24
-4.21338e-23
-6.2089e-24
-5.41364e-23
-1.1325e-23
9.63203e-23
-8.28588e-24
1.40858e-22
-1.0299e-23
1.28322e-22
-1.07285e-23
1.50578e-22
-2.09541e-23
8.41973e-23
-5.79211e-24
9.08839e-23
-1.11769e-23
1.52943e-22
-1.25328e-23
2.21102e-22
-1.60444e-23
5.77558e-23
-6.9952e-24
7.75912e-23
-1.13105e-23
7.04607e-23
-1.73683e-23
-6.37056e-23
-1.22786e-23
8.26803e-23
-7.30932e-24
6.23418e-23
-1.33825e-23
1.54188e-22
-5.43892e-24
1.26319e-22
-1.49676e-23
8.02254e-23
-2.69273e-23
1.86509e-23
-3.21823e-23
5.38946e-23
-1.87439e-23
1.33192e-22
-1.48592e-23
8.69915e-23
-1.91968e-23
1.26544e-22
-1.8767e-23
1.64738e-22
-1.83953e-23
5.53796e-23
-1.04878e-23
1.2496e-22
-2.62385e-25
9.08587e-23
-2.57402e-25
6.40897e-23
1.18834e-25
3.88565e-23
2.67824e-24
7.10841e-23
3.50041e-24
4.64028e-23
7.50051e-24
4.22641e-23
-1.27017e-24
8.05073e-23
-1.09243e-24
-8.68229e-23
-3.54153e-25
-8.47539e-24
-4.86059e-24
6.62272e-23
-1.08878e-23
5.23727e-23
-1.57472e-23
4.94552e-23
-3.49497e-24
8.77981e-23
-5.85106e-24
4.62459e-23
-5.19075e-24
2.59842e-24
-1.79915e-23
4.90032e-23
-1.96679e-23
-1.19586e-23
9.16519e-23
-2.11068e-24
4.11378e-23
-4.70589e-24
-4.55342e-23
-9.46192e-24
1.80586e-22
-1.01525e-23
1.32379e-22
-1.0075e-23
1.57188e-22
-1.0482e-23
1.79108e-22
-2.10434e-23
9.71214e-23
-6.40142e-24
8.37259e-23
-9.44331e-24
1.5336e-22
-1.40923e-23
1.55721e-22
-1.45108e-23
9.46289e-23
-8.27647e-24
1.17749e-22
-1.16712e-23
1.77713e-22
-1.58259e-23
-3.5704e-23
-1.17509e-23
8.81043e-23
-5.96821e-24
7.62261e-23
-1.34384e-23
1.3088e-22
-6.02118e-24
1.14889e-22
-1.62014e-23
9.5481e-23
-2.59116e-23
2.75494e-23
-3.11265e-23
6.77718e-23
-1.90386e-23
1.22767e-22
-1.44244e-23
4.75102e-23
-1.89725e-23
1.2772e-22
-1.85031e-23
1.99388e-22
-1.77099e-23
1.61129e-23
-1.14594e-23
1.46873e-22
-4.41192e-25
8.5066e-23
-5.8385e-25
6.92293e-23
7.91715e-25
3.22405e-23
2.20877e-24
2.76432e-23
4.73565e-24
3.6119e-23
8.29622e-24
5.13686e-23
-2.12494e-24
2.06943e-23
1.39403e-25
-9.36288e-23
1.50347e-24
-3.48063e-23
-6.0295e-24
3.72068e-23
-8.90148e-24
4.83248e-23
-1.5178e-23
5.55186e-23
-3.96197e-24
1.07126e-22
-6.49041e-24
1.62732e-23
-4.66373e-24
4.92963e-23
-1.85625e-23
6.6693e-23
-2.44293e-23
-1.27524e-23
9.72297e-23
-2.23135e-24
5.52265e-23
-2.34559e-24
-3.61281e-23
-8.33027e-24
1.5036e-22
-8.78455e-24
8.25558e-23
-9.2403e-24
1.18958e-22
-1.14269e-23
1.93834e-22
-2.01535e-23
1.12285e-22
-5.57047e-24
7.25449e-23
-9.41493e-24
1.25286e-22
-1.41331e-23
1.75609e-22
-1.41673e-23
6.34916e-23
-7.53247e-24
1.22302e-22
-1.3223e-23
1.6896e-22
-1.48193e-23
-2.11322e-23
-1.04167e-23
1.10777e-22
-5.77961e-24
7.0389e-23
-1.35107e-23
1.0548e-22
-6.15123e-24
9.9303e-23
-1.70089e-23
3.01474e-23
-2.50073e-23
4.15948e-23
-3.04442e-23
7.91098e-23
-1.95769e-23
1.55565e-22
-1.37257e-23
8.03689e-23
-1.81934e-23
1.23752e-22
-1.93429e-23
1.64876e-22
-1.70024e-23
1.04093e-23
-1.22721e-23
1.38303e-22
6.78554e-25
7.24107e-23
-1.08337e-24
7.97634e-23
-4.73534e-25
6.35191e-23
2.66604e-24
7.61685e-24
5.06121e-24
2.4096e-23
7.38383e-24
3.50702e-23
-2.2091e-24
1.91548e-23
-2.16481e-24
2.83069e-23
3.28796e-24
6.47129e-23
-5.95785e-24
2.41906e-23
-7.78465e-24
4.11033e-23
-1.4443e-23
6.05884e-23
-4.74603e-24
8.97929e-23
-6.52393e-24
1.41679e-23
-5.73035e-24
5.92285e-23
-1.81052e-23
8.07391e-23
-6.94189e-23
-1.14218e-23
1.21095e-23
-1.84599e-24
6.59858e-23
-6.38886e-25
-3.31546e-23
-8.57958e-24
1.081e-22
-8.20815e-24
1.11014e-22
-8.39199e-24
1.70024e-22
-1.27399e-23
1.66154e-22
-1.96924e-23
1.25475e-22
-5.81759e-24
5.49088e-23
-8.48188e-24
1.30234e-22
-1.50111e-23
1.08434e-22
-1.29258e-23
1.03513e-22
-7.33553e-24
1.24445e-22
-1.41766e-23
1.9483e-22
-1.38626e-23
1.6792e-23
-9.9518e-24
1.04279e-22
-5.78258e-24
2.58454e-23
-1.33877e-23
1.04292e-22
-7.11384e-24
4.78575e-23
-1.64242e-23
-1.18031e-24
-2.43652e-23
-2.92881e-23
-2.96923e-23
1.30893e-22
-2.01876e-23
1.8007e-22
-1.32813e-23
6.52755e-23
-1.80541e-23
1.27958e-22
-1.97074e-23
1.69911e-22
-1.60619e-23
-5.09236e-26
-1.2392e-23
1.79959e-22
6.74951e-25
6.55179e-23
-4.84848e-25
1.21764e-22
-1.70706e-24
5.69673e-23
3.40295e-24
7.57213e-23
4.99346e-24
1.43572e-23
7.15417e-24
2.49127e-23
-7.63602e-26
2.67834e-23
-2.62546e-24
8.59328e-25
3.31981e-24
1.30743e-22
-5.45707e-24
3.50159e-23
-8.46168e-24
3.85787e-23
-1.44911e-23
1.4904e-22
-5.23542e-24
1.56828e-22
-6.42908e-24
6.49149e-24
-6.22124e-24
7.01693e-23
-1.8909e-23
9.03116e-23
-8.58575e-23
-1.08154e-23
8.64567e-23
-2.18056e-24
1.02855e-22
2.14909e-25
-3.66184e-23
-8.08214e-24
6.22515e-23
-6.42971e-24
9.41666e-23
-7.53241e-24
1.1318e-22
-1.27046e-23
5.28989e-23
-2.05503e-23
1.80937e-22
-5.12398e-24
1.6907e-22
-8.68861e-24
1.39134e-22
-1.45332e-23
1.57893e-22
-1.23403e-23
1.04896e-22
-6.48429e-24
1.62483e-22
-1.49654e-23
1.71688e-22
-1.35683e-23
2.47917e-23
-1.02276e-23
1.21999e-22
-4.92669e-24
9.73289e-24
-1.41012e-23
5.74153e-23
-7.51377e-24
4.07385e-23
-1.65757e-23
3.0317e-25
-2.20923e-23
-2.2481e-23
-2.90668e-23
5.97513e-23
-2.10883e-23
1.79638e-22
-1.23008e-23
1.68178e-22
-1.81184e-23
1.13439e-22
-2.02559e-23
1.66151e-22
-1.51066e-23
2.48997e-23
-1.35216e-23
1.74986e-22
1.62888e-24
4.9416e-23
-6.05835e-25
8.66811e-23
-1.86085e-24
5.4228e-23
2.79477e-24
7.9597e-23
5.10987e-24
-3.00551e-23
6.97321e-24
7.71073e-23
2.27517e-25
3.78703e-23
-1.9002e-24
4.3272e-23
3.85815e-24
9.27355e-23
-5.63387e-24
4.13743e-23
-6.1393e-24
2.87411e-23
-1.49778e-23
9.14389e-23
-6.57785e-24
1.45852e-22
-5.98694e-24
8.14356e-23
-5.99027e-24
6.80793e-23
-1.87862e-23
1.52521e-23
-8.08861e-23
-9.84229e-24
2.0091e-22
-2.40375e-24
1.10813e-22
1.80045e-24
-4.28734e-23
-7.26878e-24
2.41119e-23
-5.88865e-24
5.11359e-23
-7.53319e-24
1.03619e-22
-1.05785e-23
5.52963e-23
-2.07088e-23
1.96931e-22
-6.34651e-24
1.77091e-22
-8.64385e-24
1.42763e-22
-1.42272e-23
1.30456e-22
-1.16487e-23
5.43181e-23
-6.64642e-24
1.9475e-22
-1.52056e-23
1.49415e-22
-1.28372e-23
4.77934e-23
-1.06894e-23
1.17716e-22
-4.44087e-24
6.98439e-23
-1.4326e-23
5.76318e-23
-7.9609e-24
3.87661e-23
-1.66623e-23
-4.16197e-24
-2.08428e-23
-3.9611e-23
-2.74719e-23
7.05034e-23
-2.07613e-23
1.73315e-22
-1.32484e-23
1.51816e-22
-1.837e-23
4.24859e-23
-2.02157e-23
1.94791e-22
-1.4394e-23
4.92134e-24
-1.39579e-23
1.72217e-22
1.89705e-24
1.00545e-22
1.40541e-25
5.85618e-23
-2.02896e-24
5.34457e-23
1.64399e-24
1.55172e-23
6.70316e-24
-1.90758e-23
6.10617e-24
3.69259e-24
1.73865e-24
7.97439e-23
-2.55745e-24
-3.16318e-23
3.32618e-24
1.20753e-22
-5.29245e-24
6.00609e-24
-5.08562e-24
2.02903e-23
-1.54144e-23
2.37264e-23
-7.79962e-24
1.41228e-22
-5.53953e-24
6.1843e-23
-6.42614e-24
1.39407e-23
-1.90926e-23
-6.56098e-23
-7.56816e-23
-9.64865e-24
1.98134e-22
-3.3298e-24
1.12295e-22
2.64072e-24
7.51504e-23
-7.77084e-24
2.27127e-23
-5.10415e-24
4.06365e-23
-6.9359e-24
8.59692e-23
-9.94998e-24
-4.38132e-24
-2.02391e-23
1.73015e-22
-6.93266e-24
1.83194e-22
-8.85121e-24
1.4134e-22
-1.42805e-23
1.27299e-22
-1.04925e-23
1.33759e-23
-6.82182e-24
2.26364e-22
-1.54852e-23
1.28835e-22
-1.25585e-23
8.98009e-23
-1.07604e-23
1.14741e-22
-4.67227e-24
5.10966e-23
-1.44471e-23
5.83108e-23
-8.26217e-24
6.71097e-23
-1.71976e-23
-4.23464e-24
-1.90686e-23
-3.71075e-23
-2.64026e-23
7.97975e-23
-2.01035e-23
1.90502e-22
-1.46294e-23
1.71775e-22
-1.75774e-23
6.49939e-23
-2.09885e-23
1.88091e-22
-1.30394e-23
-1.9961e-23
-1.34872e-23
1.71365e-22
1.42701e-24
9.75044e-23
1.03606e-25
-3.21121e-23
-2.45999e-24
5.47739e-23
1.89506e-24
-3.15614e-23
5.68778e-24
2.04452e-23
8.90687e-24
-3.47791e-26
9.9001e-25
1.40201e-23
-1.14159e-24
-1.54034e-23
2.63274e-24
1.23035e-22
-5.01888e-24
-3.32641e-23
-4.31467e-24
-1.47159e-23
-1.42907e-23
-8.17941e-24
-6.93294e-24
1.79216e-22
-6.93589e-24
3.95647e-23
-7.38667e-24
6.29311e-24
-1.81612e-23
-3.85537e-23
-5.70902e-23
-9.72643e-24
2.41228e-22
-3.68281e-24
1.32986e-22
2.6467e-24
9.82639e-23
-7.52943e-24
4.99316e-23
-3.84077e-24
2.63586e-23
-6.99225e-24
8.38841e-23
-8.42452e-24
1.33209e-23
-1.95363e-23
1.08159e-22
-8.01273e-24
1.4299e-22
-9.18766e-24
1.35918e-22
-1.43595e-23
1.17292e-22
-8.41086e-24
4.70114e-23
-7.13526e-24
2.08132e-22
-1.51223e-23
1.34534e-22
-1.26236e-23
4.97296e-23
-1.08558e-23
1.06135e-22
-4.36858e-24
1.20256e-22
-1.45259e-23
3.07285e-23
-8.75935e-24
3.61776e-23
-1.76919e-23
3.68199e-23
-1.73896e-23
4.15361e-23
-2.48175e-23
9.30383e-23
-2.02034e-23
1.76514e-22
-1.53889e-23
1.56351e-22
-1.75702e-23
-2.99847e-24
-2.16124e-23
1.79575e-22
-1.25414e-23
4.50549e-23
-1.2839e-23
2.15981e-22
-9.6523e-25
8.36424e-23
1.7313e-24
4.38326e-23
-3.42031e-24
6.04481e-23
3.20616e-24
3.68372e-23
4.23015e-24
5.75276e-23
1.02692e-23
2.57035e-23
1.33009e-24
-4.84208e-23
-4.21395e-25
2.56574e-25
1.56279e-24
8.20441e-23
-3.95477e-24
-1.65616e-23
-5.31605e-24
2.90766e-23
-1.23409e-23
-3.14233e-23
-7.52147e-24
1.78411e-22
-7.88705e-24
3.85748e-23
-7.4886e-24
2.11998e-24
-1.69127e-23
-3.04054e-23
-5.48414e-23
-1.05312e-23
2.16788e-22
-3.24143e-24
2.11481e-22
2.49001e-24
1.02431e-22
-7.15075e-24
5.71009e-23
-3.35403e-24
1.97294e-23
-6.15173e-24
8.71222e-23
-7.98082e-24
2.95418e-23
-1.86461e-23
1.54955e-22
-7.91808e-24
1.28615e-22
-9.76809e-24
1.32031e-22
-1.41221e-23
1.04779e-22
-7.36311e-24
9.74717e-23
-7.57309e-24
1.5719e-22
-1.55435e-23
1.44758e-22
-1.23214e-23
4.74613e-23
-1.01414e-23
1.34964e-22
-5.37555e-24
1.07462e-22
-1.46847e-23
3.93163e-23
-8.26545e-24
3.69449e-23
-1.78451e-23
4.42604e-23
-1.6422e-23
1.7645e-23
-2.37309e-23
1.06239e-22
-2.04859e-23
1.26605e-22
-1.63979e-23
1.37272e-22
-1.64095e-23
6.83281e-23
-2.12225e-23
2.08489e-22
-1.16279e-23
6.53093e-23
-1.36245e-23
2.60467e-22
-1.27711e-24
7.65736e-23
1.69054e-24
4.18741e-23
-3.15874e-24
6.65012e-23
3.77331e-24
8.3721e-23
2.17875e-24
-2.00081e-23
1.08983e-23
1.31937e-22
2.25793e-24
-4.22041e-23
-2.41966e-25
1.2882e-23
2.62209e-24
7.85949e-23
-4.83341e-24
1.53998e-24
-4.51344e-24
-5.94034e-23
-1.13033e-23
2.85883e-24
-7.84151e-24
2.07557e-22
-9.41909e-24
3.67863e-23
-7.5545e-24
6.40297e-23
-1.70722e-23
-2.60578e-23
3.30501e-23
-1.63344e-23
-4.23332e-23
-9.76111e-24
3.0067e-22
-3.73791e-24
1.25381e-22
2.96547e-24
1.03839e-22
-7.16555e-24
4.36036e-23
-2.95693e-24
7.92985e-23
-5.59746e-24
1.73424e-22
-7.19081e-24
8.4123e-24
-1.81887e-23
1.43457e-22
-8.01107e-24
7.12268e-23
-9.39641e-24
9.72945e-23
-1.37131e-23
9.43081e-23
-7.09224e-24
9.76371e-23
-7.00602e-24
1.65847e-22
-1.57116e-23
1.16712e-22
-1.16394e-23
7.12804e-23
-1.0011e-23
1.57611e-22
-5.76589e-24
1.02804e-22
-1.49193e-23
8.13012e-23
-7.89509e-24
2.76548e-23
-1.84385e-23
4.82969e-23
-1.49709e-23
-2.38281e-23
-2.3601e-23
-1.57995e-23
-2.03622e-23
9.61058e-23
-1.64824e-23
1.19589e-22
-1.60935e-23
1.02142e-23
-2.11372e-23
1.57433e-22
-1.0548e-23
4.67457e-23
-1.47191e-23
1.3518e-22
-1.77483e-24
1.84137e-22
1.84862e-24
4.23572e-23
-2.63675e-24
7.36873e-23
2.41728e-24
9.5321e-23
2.82271e-24
-9.71516e-24
9.72165e-24
1.21223e-22
3.3417e-24
-7.60098e-23
8.57883e-25
-3.94547e-23
2.77975e-24
9.20133e-23
-5.60615e-24
-1.4563e-24
-3.70358e-24
1.30258e-23
-1.08033e-23
-6.17827e-23
-8.24519e-24
2.08537e-22
-1.10363e-23
3.84701e-23
-7.75498e-24
1.49644e-22
-1.76647e-23
-2.08866e-23
3.46505e-23
-1.40033e-23
5.35394e-24
-1.06748e-23
2.56583e-22
-2.79433e-24
2.00038e-22
2.61457e-24
8.76281e-23
-6.72927e-24
4.83469e-23
-1.56088e-24
7.63978e-23
-7.07239e-24
1.86567e-22
-6.23857e-24
3.51288e-25
-1.7692e-23
1.63423e-22
-8.56118e-24
4.89346e-23
-9.18671e-24
8.56241e-23
-1.33693e-23
8.9341e-23
-6.73658e-24
1.21578e-22
-7.14892e-24
1.47403e-22
-1.52301e-23
1.09086e-22
-1.10762e-23
5.76354e-23
-1.0283e-23
1.1262e-22
-5.4498e-24
1.32217e-22
-1.59325e-23
-2.95118e-23
-7.10615e-24
5.14582e-23
-1.93058e-23
3.89005e-23
-1.45777e-23
4.89112e-23
-2.23294e-23
3.34295e-23
-2.00981e-23
7.71789e-23
-1.69955e-23
1.03084e-22
-1.59363e-23
-1.60746e-23
-2.0415e-23
1.67686e-22
-1.10553e-23
4.08732e-23
-1.26714e-23
1.45852e-22
-3.60648e-24
1.41516e-22
3.20739e-24
1.17344e-22
-3.511e-24
8.00715e-23
2.89231e-24
9.75421e-23
3.018e-24
7.54854e-25
8.88673e-24
1.07858e-22
3.4222e-24
-6.90593e-23
1.87103e-24
1.19093e-23
2.73794e-24
2.81483e-23
-5.18067e-24
-8.5281e-23
-4.08001e-24
-5.33714e-24
-8.94985e-24
-1.81679e-23
-8.25865e-24
2.13752e-22
-1.01929e-23
2.28746e-23
-8.67087e-24
1.28507e-22
-1.69124e-23
-1.17472e-23
3.53113e-23
-1.30908e-23
7.1764e-23
-1.03751e-23
2.59815e-22
-3.29525e-24
1.94824e-22
2.57802e-24
7.18575e-23
-5.9967e-24
2.01665e-23
-1.42676e-24
7.47465e-23
-7.00499e-24
1.99903e-22
-5.96775e-24
-3.29337e-24
-1.80678e-23
9.15159e-23
-8.53613e-24
6.96364e-23
-9.1755e-24
1.09313e-22
-1.28663e-23
6.67294e-23
-6.47522e-24
1.15391e-22
-7.13404e-24
1.32967e-22
-1.45842e-23
5.58959e-23
-1.08354e-23
4.88377e-23
-9.9263e-24
7.4325e-23
-6.78882e-24
1.28502e-22
-1.52596e-23
-1.16319e-23
-7.01066e-24
3.62682e-23
-1.9296e-23
3.787e-24
-1.4462e-23
4.5409e-23
-2.18744e-23
5.45865e-24
-1.95637e-23
7.53602e-23
-1.72068e-23
9.27854e-23
-1.5653e-23
4.91217e-23
-1.97656e-23
1.55141e-22
-1.10711e-23
3.61755e-23
-1.23575e-23
1.54834e-22
-3.44593e-24
1.42314e-22
2.89828e-24
1.53023e-22
-2.84061e-24
8.54868e-23
2.36125e-24
1.48836e-22
3.4304e-24
4.90453e-23
8.20224e-24
1.01807e-22
3.76179e-24
-6.41828e-23
2.86271e-24
6.22839e-23
2.54184e-24
2.84881e-23
-4.86826e-24
-8.23199e-23
-3.85654e-24
-7.56349e-24
-7.23731e-24
-1.38438e-23
-8.59148e-24
1.34351e-22
-1.09572e-23
-5.7465e-23
-8.43309e-24
1.25572e-22
-1.80486e-23
-6.13617e-23
7.23951e-23
-2.45874e-23
2.08718e-22
-1.17042e-23
6.10697e-23
-1.01872e-23
2.63759e-22
-3.71563e-24
1.90097e-22
2.47944e-24
5.70569e-23
-5.36177e-24
2.88886e-23
7.667e-25
7.65664e-23
-7.55273e-24
1.47661e-22
-6.04127e-24
-6.71184e-24
-1.74218e-23
1.01681e-22
-8.62878e-24
4.9519e-23
-8.51008e-24
1.66686e-22
-1.19279e-23
1.27143e-22
-5.82888e-24
1.0631e-22
-7.35712e-24
1.22691e-22
-1.41612e-23
3.85923e-23
-1.07366e-23
3.6802e-23
-9.16343e-24
6.63843e-23
-7.9621e-24
1.29534e-22
-1.49814e-23
3.66923e-23
-7.0563e-24
9.30081e-23
-1.88183e-23
1.38537e-23
-1.44553e-23
4.42454e-23
-2.14098e-23
1.14985e-23
-1.93316e-23
7.73798e-23
-1.67724e-23
8.55335e-23
-1.55236e-23
1.79008e-23
-1.96281e-23
1.4763e-22
-1.08609e-23
7.55965e-23
-1.20685e-23
1.63584e-22
-4.06052e-24
1.57427e-22
2.49117e-24
1.40851e-22
-2.50554e-24
2.75263e-23
1.95255e-24
1.99102e-22
3.05239e-24
5.39636e-23
7.6963e-24
1.12774e-22
4.42233e-24
-6.20902e-23
1.88977e-24
6.4685e-23
2.42736e-24
2.78192e-23
-4.43803e-24
-7.48395e-23
-3.47332e-24
-6.66418e-24
-7.33177e-24
-5.37897e-24
-7.8942e-24
9.02945e-23
-1.05048e-23
-6.24657e-23
-9.07558e-24
2.11262e-22
-1.73698e-23
-5.39661e-23
1.11766e-22
-2.41559e-23
2.07629e-22
-1.13254e-23
1.34239e-22
-1.02829e-23
2.70618e-22
-4.4763e-24
1.83238e-22
2.48075e-24
8.44089e-23
-4.79329e-24
2.25256e-23
9.19041e-25
1.58911e-22
-6.80912e-24
1.6675e-22
-6.46774e-24
-5.73738e-24
-1.6156e-23
1.11325e-22
-8.50005e-24
3.39467e-23
-7.96331e-24
2.26965e-22
-1.27114e-23
1.02497e-22
-5.51544e-24
8.83535e-23
-7.99349e-24
1.21139e-22
-1.38608e-23
1.69269e-23
-1.04403e-23
6.55239e-23
-8.43459e-24
5.82153e-23
-8.19333e-24
1.28561e-22
-1.48011e-23
3.46902e-23
-7.47892e-24
7.62751e-23
-1.85459e-23
-1.01341e-23
-1.44367e-23
5.19683e-23
-2.09632e-23
-2.50142e-23
-1.89765e-23
1.11463e-22
-1.68683e-23
7.71273e-23
-1.50491e-23
2.07752e-23
-1.92848e-23
6.13469e-23
-1.05975e-23
1.15578e-22
-1.10864e-23
1.69982e-22
-4.11226e-24
1.463e-22
2.4174e-24
1.29161e-22
-1.61976e-24
-1.7964e-23
1.35077e-24
1.87822e-22
2.19975e-24
5.46058e-23
7.45411e-24
1.08212e-22
4.73656e-24
-7.53486e-23
1.6909e-24
2.22056e-23
2.71412e-24
2.59202e-23
-4.39105e-24
-7.25597e-23
-2.40816e-24
-7.57828e-24
-7.31899e-24
2.95339e-24
-7.9641e-24
1.24743e-22
-9.12929e-24
-6.63378e-23
-9.60562e-24
1.8088e-22
-1.78314e-23
-7.20476e-23
1.46785e-22
-2.71417e-23
-5.49994e-23
-2.39425e-23
1.11737e-22
-1.0512e-23
1.26931e-22
-1.0146e-23
2.80727e-22
-4.92373e-24
2.16333e-22
3.09098e-24
1.48355e-22
-3.83691e-24
3.22629e-23
1.0054e-24
1.64189e-22
-8.08427e-24
1.20255e-22
-6.24681e-24
-5.44973e-24
-1.60685e-23
1.21758e-22
-7.66122e-24
8.50739e-23
-8.11979e-24
2.35535e-22
-1.33589e-23
5.26133e-23
-4.54268e-24
1.10512e-22
-8.69452e-24
6.51867e-23
-1.33177e-23
2.86852e-23
-1.01657e-23
5.18098e-23
-7.82446e-24
7.0104e-23
-8.55922e-24
4.83609e-23
-1.46527e-23
-1.99245e-23
-7.94507e-24
6.7311e-23
-1.78496e-23
3.12632e-24
-1.49993e-23
5.76111e-23
-1.98932e-23
-2.88226e-23
-1.9233e-23
1.09824e-22
-1.62743e-23
1.07718e-22
-1.57225e-23
3.17135e-23
-1.79913e-23
6.03319e-23
-1.04412e-23
9.50793e-23
-1.03724e-23
1.74029e-22
-5.19423e-24
1.29794e-22
2.64075e-24
1.62862e-22
-6.03026e-25
-3.88935e-24
1.384e-24
1.41671e-22
2.3174e-24
5.64768e-23
7.17311e-24
1.04993e-22
5.18067e-24
1.61769e-24
1.7197e-24
1.17285e-23
2.71787e-24
8.86853e-23
-4.46756e-24
-6.71778e-23
-2.35761e-24
-9.00226e-24
-6.70266e-24
8.38266e-24
-7.98853e-24
1.22657e-22
-8.27514e-24
7.83546e-23
-1.07082e-23
1.85689e-22
-1.65643e-23
-7.58217e-23
1.06203e-22
-2.72127e-23
-6.25533e-23
-2.19333e-23
1.11535e-22
-9.74062e-24
1.08824e-22
-9.93505e-24
2.23178e-22
-4.94996e-24
1.38206e-22
3.32944e-24
1.26874e-22
-2.89613e-24
3.6222e-23
5.94568e-25
1.67199e-22
-8.01489e-24
1.01272e-22
-5.59316e-24
-7.96377e-24
-1.55432e-23
5.48523e-23
-6.53343e-24
7.04733e-23
-8.75558e-24
2.29598e-22
-1.42017e-23
3.04064e-23
-4.38014e-24
1.13494e-22
-8.36613e-24
6.65823e-23
-1.31926e-23
4.36209e-23
-9.72997e-24
4.19173e-23
-7.79145e-24
1.12612e-22
-8.81486e-24
4.57177e-23
-1.40629e-23
-9.75599e-24
-8.30699e-24
4.00014e-23
-1.7207e-23
1.29693e-23
-1.56859e-23
5.09023e-23
-1.88056e-23
-3.28791e-23
-1.92665e-23
7.54496e-23
-1.59473e-23
9.25382e-23
-1.63538e-23
-1.49466e-23
-1.69567e-23
5.62705e-23
-1.00005e-23
7.67809e-23
-1.00098e-23
1.74981e-22
-4.96787e-24
1.37128e-22
2.24423e-24
2.207e-22
-8.20307e-26
-9.96985e-25
9.1741e-25
1.41133e-22
1.9975e-24
9.66671e-23
6.87286e-24
1.65949e-22
5.19859e-24
2.98009e-23
2.61019e-24
5.29206e-23
2.02511e-24
9.09457e-23
-4.29117e-24
3.83117e-24
-2.33998e-24
6.23722e-23
-6.24671e-24
2.73887e-23
-7.50756e-24
1.18619e-22
-8.81506e-24
7.45828e-23
-1.16226e-23
1.88963e-22
-1.65471e-23
-3.06704e-23
9.26363e-23
-2.69224e-23
-7.03968e-23
-2.11455e-23
1.14338e-22
-9.38709e-24
1.0666e-22
-9.77342e-24
2.31621e-22
-5.08822e-24
1.77465e-22
3.62685e-24
1.19732e-22
-2.25918e-24
-3.20119e-23
1.91548e-25
1.69574e-22
-7.88985e-24
9.62713e-23
-5.42104e-24
-8.1516e-23
-1.46448e-23
6.22737e-23
-5.80158e-24
6.18514e-23
-9.22385e-24
1.79141e-22
-1.37974e-23
2.33165e-23
-4.49387e-24
1.60484e-22
-7.53176e-24
4.94587e-23
-1.35122e-23
4.10919e-23
-8.743e-24
9.6583e-23
-8.23888e-24
1.15407e-22
-9.03436e-24
4.48834e-23
-1.36616e-23
-5.14871e-24
-8.20336e-24
3.62576e-23
-1.68638e-23
-4.22953e-23
-1.61175e-23
4.70158e-23
-1.80413e-23
2.95545e-23
-1.91237e-23
8.34511e-23
-1.59513e-23
8.83113e-23
-1.63749e-23
-2.32183e-23
-1.66066e-23
8.68384e-23
-9.20205e-24
7.76432e-23
-9.71026e-24
1.73849e-22
-5.74643e-24
1.08436e-22
1.55198e-24
2.0792e-22
4.76765e-25
6.76332e-24
1.32462e-24
1.39431e-22
1.44781e-24
6.32305e-23
6.72853e-24
2.01017e-22
4.96093e-24
2.87749e-23
3.08068e-24
4.67108e-23
2.88099e-24
9.21462e-23
-4.90946e-24
-3.07525e-23
-1.93986e-24
5.67593e-23
-5.38339e-24
7.09911e-23
-6.69645e-24
1.14928e-22
-9.20075e-24
7.00182e-23
-1.24932e-23
1.37543e-22
-1.7673e-23
-1.09802e-23
1.10693e-22
-2.65491e-23
-9.3053e-23
-2.00749e-23
1.56885e-22
-8.65963e-24
1.04484e-22
-9.83149e-24
1.73072e-22
-5.04245e-24
1.84619e-22
3.95311e-24
1.76886e-22
-1.82019e-24
-2.54557e-23
6.7484e-26
1.83087e-22
-8.57192e-24
5.08771e-23
-5.28736e-24
-9.91969e-23
-1.37032e-23
7.27649e-23
-5.72164e-24
7.06905e-23
-9.00069e-24
1.76799e-22
-1.42501e-23
1.79019e-23
-4.61052e-24
1.25713e-22
-7.08859e-24
5.04658e-23
-1.30209e-23
3.71393e-23
-8.57856e-24
1.53999e-22
-8.22442e-24
1.15884e-22
-9.42883e-24
4.46116e-23
-1.34744e-23
-2.63205e-24
-8.45535e-24
3.57782e-23
-1.60901e-23
-4.35715e-25
-1.59532e-23
4.35166e-23
-1.78278e-23
2.48967e-23
-1.92324e-23
9.10838e-23
-1.59864e-23
9.76984e-23
-1.6015e-23
-3.35918e-23
-1.63825e-23
4.33489e-23
-8.0225e-24
1.17269e-22
-9.65393e-24
1.70874e-22
-5.87625e-24
1.01692e-22
7.8801e-25
1.93801e-22
1.21177e-24
1.36305e-23
2.42589e-24
1.37649e-22
1.29358e-24
6.83527e-23
5.92978e-24
2.38408e-22
6.05161e-24
9.90746e-23
2.74867e-24
3.91906e-24
2.60773e-24
7.62965e-23
-3.92325e-24
-6.01591e-23
-1.89141e-24
5.23153e-23
-5.3081e-24
1.0894e-22
-5.98038e-24
1.08444e-22
-9.95889e-24
-1.68117e-24
-1.25283e-23
1.41133e-22
-1.77042e-23
3.28964e-23
1.11394e-22
-2.62334e-23
-3.56487e-23
-1.91625e-23
2.65664e-22
-8.18619e-24
1.02328e-22
-9.10552e-24
1.78281e-22
-4.59552e-24
9.94168e-23
3.08806e-24
9.45068e-23
-1.59231e-24
-6.23845e-23
2.64316e-25
1.87179e-22
-9.04407e-24
-1.30139e-23
-4.18659e-24
-1.28746e-22
-1.3146e-23
9.82215e-23
-4.94312e-24
6.39799e-23
-9.53084e-24
1.06652e-22
-1.42335e-23
-3.06367e-23
-5.02205e-24
9.033e-23
-6.52837e-24
5.08026e-23
-1.20399e-23
3.00808e-23
-8.7345e-24
1.33208e-22
-8.33241e-24
1.16013e-22
-9.79058e-24
4.40621e-23
-1.32952e-23
5.3222e-25
-8.31183e-24
3.77479e-23
-1.57966e-23
-3.64651e-23
-1.57246e-23
4.25448e-23
-1.74719e-23
1.90767e-23
-1.93674e-23
3.28532e-23
-1.58979e-23
8.33443e-23
-1.62639e-23
-3.82763e-23
-1.5188e-23
5.56906e-23
-7.83367e-24
1.10508e-22
-9.05921e-24
1.66184e-22
-6.0963e-24
1.10601e-22
7.41342e-25
2.41814e-22
1.23497e-24
9.29515e-23
2.93611e-24
2.01796e-22
1.33157e-24
-5.88918e-25
4.97219e-24
2.515e-22
5.9805e-24
1.58177e-22
3.20578e-24
-5.20207e-24
3.18834e-24
1.14359e-22
-3.98937e-24
-1.2253e-22
-1.64598e-24
1.17143e-22
-5.16716e-24
1.05914e-22
-6.27138e-24
1.02118e-22
-9.445e-24
-7.5534e-23
-1.27164e-23
1.45523e-22
-1.78566e-23
-2.57009e-23
4.69673e-23
-3.2139e-23
7.02259e-23
-2.45965e-23
9.8139e-23
-1.97479e-23
2.63709e-22
-7.60926e-24
1.71941e-22
-9.09522e-24
1.19769e-22
-4.99167e-24
9.34511e-23
3.59517e-24
1.49539e-22
-1.74836e-25
-6.08034e-23
-4.73632e-25
2.10248e-22
-9.35522e-24
-2.80888e-24
-3.0084e-24
-7.37272e-23
-1.35145e-23
1.07455e-22
-4.6707e-24
1.36761e-22
-9.62629e-24
1.15584e-22
-1.43475e-23
-7.17586e-23
-4.83547e-24
7.44267e-23
-5.98104e-24
1.43598e-23
-1.11073e-23
2.85519e-23
-9.08604e-24
1.31176e-22
-8.3726e-24
1.18767e-22
-1.01865e-23
7.29801e-24
-1.30315e-23
3.14092e-24
-8.4038e-24
7.70123e-23
-1.53835e-23
-3.13086e-23
-1.56544e-23
3.98301e-23
-1.73507e-23
1.72997e-23
-1.92655e-23
4.04603e-23
-1.59129e-23
1.13789e-22
-1.59047e-23
-5.5318e-23
-1.46494e-23
5.3771e-23
-6.99991e-24
1.02533e-22
-8.95297e-24
1.62605e-22
-5.92348e-24
9.70694e-23
6.15716e-25
2.22838e-22
1.75812e-24
2.74188e-23
1.76459e-24
1.3657e-22
2.86224e-24
7.10122e-24
5.46668e-24
2.52835e-22
4.25883e-24
1.55093e-22
3.60758e-24
-5.65452e-23
2.49446e-24
1.15249e-22
-2.71796e-24
-1.06898e-22
-9.41969e-25
1.12202e-22
-5.59002e-24
1.3775e-22
-6.70216e-24
2.52278e-23
-8.56089e-24
-7.29019e-23
-1.33255e-23
5.11882e-24
-1.79507e-23
-2.47804e-23
4.87176e-23
-2.04655e-23
6.66302e-23
-3.08213e-23
1.18661e-22
-2.47622e-23
9.74637e-23
-1.95644e-23
2.38588e-22
-8.06362e-24
2.0421e-22
-8.925e-24
1.04951e-22
-4.12794e-24
8.57441e-23
3.69857e-24
1.42914e-22
2.94361e-25
-5.74701e-23
-5.57961e-25
2.1744e-22
-9.35243e-24
-6.00647e-23
-2.47922e-24
-1.53101e-23
-1.29683e-23
3.78605e-23
-5.23404e-24
9.47363e-23
-9.71181e-24
1.39025e-22
-1.42146e-23
-7.15805e-23
-4.45278e-24
6.42628e-23
-5.0706e-24
1.00528e-23
-1.04911e-23
2.94668e-23
-8.809e-24
1.34615e-22
-8.89129e-24
1.2226e-22
-1.01373e-23
4.69151e-23
-1.26089e-23
4.50774e-23
-8.72231e-24
7.6313e-23
-1.50937e-23
-2.62222e-23
-1.55147e-23
3.607e-23
-1.73334e-23
1.69553e-23
-1.87188e-23
6.01645e-24
-1.64723e-23
6.69833e-23
-1.57282e-23
-5.51972e-23
-1.40371e-23
5.12315e-24
-6.7239e-24
9.28603e-23
-8.42161e-24
1.56058e-22
-6.21427e-24
9.04328e-23
1.15233e-25
1.9302e-22
1.99391e-24
2.19415e-23
2.00919e-24
1.32658e-22
3.54083e-24
9.13676e-23
5.10726e-24
1.84148e-22
3.6523e-24
1.51538e-22
3.88378e-24
-1.00277e-22
2.3649e-24
1.1173e-22
-1.98693e-24
-9.55105e-23
-4.85602e-25
7.24097e-23
-6.34752e-24
1.35128e-22
-6.75444e-24
6.39671e-24
-8.84129e-24
-3.58809e-23
-1.27501e-23
-1.06862e-23
-1.81995e-23
-6.55301e-23
-1.04358e-23
-2.06346e-23
-8.79939e-24
-3.00819e-23
5.25713e-23
-2.53819e-23
9.86349e-23
-1.85921e-23
2.35836e-22
-8.89092e-24
1.94966e-22
-8.47134e-24
1.0091e-22
-3.76473e-24
1.53591e-22
3.89211e-24
2.10806e-22
1.81094e-25
-5.02153e-23
-1.27988e-24
2.24532e-22
-8.3229e-24
-5.49381e-23
-2.76858e-24
-1.46334e-23
-1.19139e-23
4.29992e-23
-5.63573e-24
5.64224e-23
-1.04097e-23
8.36017e-23
-1.42628e-23
-6.81866e-23
-4.27844e-24
1.24294e-22
-4.41372e-24
-1.02363e-23
-9.65597e-24
3.14483e-23
-8.76722e-24
1.37377e-22
-9.24519e-24
8.57319e-23
-9.98268e-24
5.23251e-23
-1.2592e-23
4.79957e-24
-8.71994e-24
7.77607e-23
-1.50125e-23
-5.88512e-23
-1.53682e-23
3.27224e-23
-1.7442e-23
1.85725e-23
-1.83824e-23
8.28717e-24
-1.65651e-23
1.77666e-23
-1.5741e-23
-5.5319e-23
-1.36407e-23
-5.21644e-24
-5.65691e-24
1.25935e-22
-8.34471e-24
1.08113e-22
-5.93635e-24
4.20491e-23
-5.82501e-25
1.49952e-22
2.71386e-24
3.32337e-23
2.70022e-24
7.25148e-23
3.41121e-24
1.0731e-22
4.9976e-24
1.68929e-22
2.9374e-24
1.86519e-22
4.4139e-24
-1.08508e-22
2.97679e-24
1.08085e-22
-1.09163e-24
-1.51414e-23
-6.80146e-26
7.21277e-23
-7.49016e-24
6.13527e-23
-6.66005e-24
3.82381e-23
-9.26015e-24
-4.74139e-23
-1.22981e-23
-1.29078e-23
-1.80211e-23
-8.00948e-23
6.21347e-23
-2.02855e-23
-8.21485e-24
1.80809e-23
-2.95006e-23
-2.04862e-23
-2.55664e-23
5.54073e-23
-1.78251e-23
3.0737e-22
-9.68421e-24
1.45929e-22
-8.15881e-24
9.38283e-23
-3.59467e-24
1.30736e-22
4.21095e-24
2.38535e-22
1.07594e-24
-8.06844e-23
-2.10401e-24
2.34561e-22
-7.89804e-24
-1.59009e-23
-2.55651e-24
-1.38731e-23
-1.10065e-23
4.88084e-23
-5.29414e-24
5.38309e-23
-1.08457e-23
9.28561e-23
-1.32831e-23
-6.54694e-23
-4.77887e-24
9.47275e-23
-3.61664e-24
7.24209e-23
-8.7574e-24
2.93694e-23
-8.83186e-24
1.41823e-22
-9.29606e-24
9.20768e-23
-1.00725e-23
5.57441e-23
-1.23439e-23
1.99142e-24
-9.01438e-24
9.6624e-23
-1.47751e-23
-5.1e-23
-1.52135e-23
3.06263e-23
-1.74948e-23
1.72196e-23
-1.84845e-23
1.04087e-23
-1.64076e-23
6.43919e-24
-1.59802e-23
-5.61346e-23
-1.25239e-23
-1.88713e-23
-5.29246e-24
1.19167e-22
-8.63497e-24
5.21826e-23
-5.70743e-24
1.10439e-22
-9.65075e-25
1.28593e-22
2.03041e-24
6.48294e-23
3.3784e-24
7.98732e-23
3.5712e-24
1.17615e-22
4.65957e-24
1.69739e-22
2.48706e-24
1.87405e-22
4.84116e-24
-1.21104e-22
3.07976e-24
1.39089e-22
-1.10164e-24
-5.07887e-23
4.90114e-25
1.04231e-22
-7.28215e-24
5.91872e-23
-6.78857e-24
9.62378e-23
-9.38787e-24
-8.33508e-23
-1.23904e-23
-2.39292e-23
-1.81716e-23
1.39713e-24
1.0772e-22
-2.05272e-23
-3.79626e-23
1.85974e-23
-2.87263e-23
-1.98331e-23
-2.48319e-23
5.30873e-23
-1.82971e-23
3.07484e-22
-9.35168e-24
1.7694e-22
-7.52292e-24