/*--------------------------------*- C++ -*----------------------------------*\
  =========                 |
  \\      /  F ield         | OpenFOAM: The Open Source CFD Toolbox
   \\    /   O peration     | Website:  https://openfoam.org
    \\  /    A nd           | Version:  7
     \\/     M anipulation  |
\*---------------------------------------------------------------------------*/
FoamFile
{
    version     2.0;
    format      ascii;
    class       volVectorField;
    location    "124000";
    object      vorticity;
}
// * * * * * * * * * * * * * * * * * * * * * * * * * * * * * * * * * * * * * //

dimensions      [0 0 -1 0 0 0 0];

internalField   nonuniform List<vector> 
4764
(
(0.0280917 0.00977165 6.57461e-18)
(0.0282686 0.00883939 -4.32219e-18)
(0.0284271 0.0079075 -3.8661e-18)
(0.0285673 0.006976 -4.70979e-18)
(0.0286896 0.0060449 -7.25807e-18)
(0.028794 0.00511418 4.25508e-18)
(0.0261572 0.0185387 3.90401e-18)
(0.0265228 0.01759 -1.40589e-17)
(0.0268662 0.0166397 -1.44603e-17)
(0.027188 0.0156885 -2.81754e-19)
(0.0274883 0.0147365 2.01418e-18)
(0.0277678 0.0137841 -5.43667e-18)
(0.0280269 0.0128315 -5.17787e-18)
(0.0282658 0.011879 -1.05155e-19)
(0.0284849 0.0109266 1.09504e-17)
(0.0286846 0.00997448 7.24077e-18)
(0.0288652 0.00902275 -4.41266e-18)
(0.0290269 0.00807143 -3.27162e-18)
(0.0291701 0.00712055 -3.04635e-18)
(0.0292948 0.00617009 -6.42779e-18)
(0.0294014 0.00522005 4.57227e-18)
(0.02949 0.00427039 2.55823e-18)
(0.0295606 0.00332106 -5.06133e-18)
(0.0296135 0.00237198 2.75312e-18)
(0.0296487 0.00142309 2.44031e-19)
(0.0296663 0.000474321 -7.73023e-19)
(0.0296663 -0.000474397 8.39385e-18)
(0.0296487 -0.00142316 1.27142e-17)
(0.0296135 -0.00237203 1.46727e-17)
(0.0295606 -0.00332109 4.4658e-18)
(0.0294899 -0.00427042 1.05054e-17)
(0.0294014 -0.00522007 2.74606e-18)
(0.0292948 -0.00617011 -2.17023e-18)
(0.0291701 -0.00712057 6.33243e-19)
(0.029027 -0.00807146 -9.5766e-18)
(0.0267128 0.0189293 3.26449e-18)
(0.0270863 0.0179601 -1.43327e-17)
(0.027437 0.0169895 -1.53333e-17)
(0.0277656 0.0160179 -5.34759e-19)
(0.0280723 0.0150456 1.9437e-18)
(0.0283577 0.0140729 -6.77685e-18)
(0.0286222 0.0131002 -5.22893e-18)
(0.028866 0.0121275 1.29765e-18)
(0.0290898 0.011155 1.1784e-17)
(0.0292936 0.0101828 6.40521e-18)
(0.029478 0.00921109 -4.63932e-18)
(0.029643 0.00823981 -2.54401e-18)
(0.0297891 0.00726901 -2.82257e-18)
(0.0299164 0.00629868 -7.59683e-18)
(0.0300252 0.00532878 4.0547e-18)
(0.0301156 0.00435931 3.62566e-18)
(0.0301877 0.0033902 -5.75359e-18)
(0.0302417 0.00242135 2.6822e-18)
(0.0302776 0.0014527 8.16147e-19)
(0.0302955 0.000484192 -1.6846e-18)
(0.0302955 -0.000484268 8.40826e-18)
(0.0302776 -0.00145277 1.38597e-17)
(0.0302416 -0.0024214 1.40199e-17)
(0.0301876 -0.00339023 3.1286e-18)
(0.0301155 -0.00435934 1.07745e-17)
(0.0300252 -0.00532881 4.69635e-18)
(0.0299164 -0.00629869 2.65825e-19)
(0.0297891 -0.00726902 1.54402e-18)
(0.029643 -0.00823983 -8.74586e-18)
(0.029478 -0.00921111 -9.61216e-18)
(0.0292937 -0.0101828 -4.59253e-18)
(0.0290898 -0.011155 -4.16659e-18)
(0.0288661 -0.0121274 -5.60064e-18)
(0.0272838 0.0193307 3.43755e-18)
(0.0276654 0.0183405 -1.42845e-17)
(0.0280236 0.0173489 -1.7229e-17)
(0.0283592 0.0163564 -2.31341e-18)
(0.0286724 0.0153632 1.42684e-18)
(0.0289638 0.0143698 -8.12872e-18)
(0.0292339 0.0133762 -4.94082e-18)
(0.0294829 0.0123828 2.55259e-18)
(0.0297113 0.0113896 1.12086e-17)
(0.0299194 0.0103969 4.84297e-18)
(0.0301076 0.00940461 -4.46239e-18)
(0.030276 0.00841281 -1.60161e-18)
(0.0304251 0.00742155 -3.63074e-18)
(0.030555 0.00643079 -9.49096e-18)
(0.030666 0.00544051 2.89958e-18)
(0.0307583 0.00445068 3.52109e-18)
(0.0308319 0.00346123 -6.71556e-18)
(0.030887 0.00247208 2.55641e-18)
(0.0309236 0.00148313 1.63017e-18)
(0.0309419 0.000494334 -1.90415e-18)
(0.0309419 -0.000494409 8.85049e-18)
(0.0309236 -0.0014832 1.48326e-17)
(0.0308869 -0.00247212 1.33107e-17)
(0.0308318 -0.00346126 1.84239e-18)
(0.0307582 -0.00445071 1.1019e-17)
(0.030666 -0.00544054 6.31154e-18)
(0.0305551 -0.0064308 1.66829e-18)
(0.0304251 -0.00742156 1.01262e-18)
(0.030276 -0.00841284 -9.17799e-18)
(0.0301076 -0.00940463 -7.61466e-18)
(0.0299195 -0.0103969 -2.6982e-18)
(0.0297113 -0.0113896 -2.82444e-18)
(0.029483 -0.0123828 -3.46118e-18)
(0.029234 -0.0133762 -1.15211e-17)
(0.0289639 -0.0143697 -2.04901e-17)
(0.0286725 -0.0153632 -5.38168e-18)
(0.0283592 -0.0163564 -1.1159e-17)
(0.0280236 -0.0173489 -9.97285e-18)
(0.0276654 -0.0183405 -5.17198e-18)
(0.0272838 -0.0193307 7.64665e-18)
(0.0268787 -0.020319 1.68794e-18)
(0.0264495 -0.0213049 -5.37749e-19)
(0.0259959 -0.0222875 -1.22357e-18)
(0.025519 -0.0232662 4.64133e-18)
(0.0256399 -0.0236313 1.99123e-17)
(0.0278711 0.0197435 3.8129e-18)
(0.0282608 0.0187317 -1.37798e-17)
(0.0286267 0.0177185 -1.95952e-17)
(0.0289695 0.0167045 -4.898e-18)
(0.0292893 0.0156898 1.30178e-18)
(0.029587 0.0146749 -9.23921e-18)
(0.0298627 0.01366 -4.71687e-18)
(0.0301169 0.0126453 3.51387e-18)
(0.0303501 0.0116309 1.01198e-17)
(0.0305626 0.010617 3.2e-18)
(0.0307547 0.00960353 -3.78163e-18)
(0.0309266 0.00859065 -2.12663e-19)
(0.0310788 0.00757834 -4.89976e-18)
(0.0312114 0.00656658 -1.10423e-17)
(0.0313247 0.00555534 2.17397e-18)
(0.0314189 0.00454458 2.74339e-18)
(0.031494 0.00353424 -7.77445e-18)
(0.0315502 0.00252421 2.30761e-18)
(0.0315876 0.00151441 2.57969e-18)
(0.0316063 0.000504759 -1.37449e-18)
(0.0316063 -0.000504832 9.4927e-18)
(0.0315876 -0.00151447 1.52735e-17)
(0.0315501 -0.00252426 1.28294e-17)
(0.0314939 -0.00353427 8.9973e-19)
(0.0314188 -0.00454462 1.08869e-17)
(0.0313247 -0.00555537 7.08766e-18)
(0.0312114 -0.0065666 2.35737e-18)
(0.0310788 -0.00757835 -3.94047e-19)
(0.0309266 -0.00859067 -1.02195e-17)
(0.0307547 -0.00960355 -6.9715e-18)
(0.0305627 -0.010617 -3.01776e-18)
(0.0303502 -0.0116309 -3.45764e-18)
(0.030117 -0.0126453 -3.20754e-18)
(0.0298628 -0.01366 -1.04374e-17)
(0.029587 -0.0146749 -2.03585e-17)
(0.0292894 -0.0156898 -5.51023e-18)
(0.0289695 -0.0167044 -1.32407e-17)
(0.0286267 -0.0177184 -1.11239e-17)
(0.0282608 -0.0187317 -6.10492e-18)
(0.0278711 -0.0197435 6.93243e-18)
(0.0274573 -0.0207536 9.60065e-19)
(0.0270195 -0.0217618 1.01756e-18)
(0.0265574 -0.0227674 1.90349e-18)
(0.0260724 -0.0237713 6.94621e-18)
(0.0261878 -0.0241655 2.05402e-17)
(0.0284762 0.0201689 3.52583e-18)
(0.0288734 0.0191341 -1.31304e-17)
(0.0292471 0.0180987 -2.19442e-17)
(0.0295971 0.0170625 -7.50481e-18)
(0.0299238 0.0160257 1.71515e-18)
(0.0302278 0.0149887 -1.03801e-17)
(0.0305094 0.0139519 -5.03668e-18)
(0.030769 0.0129153 4.73457e-18)
(0.0310071 0.011879 9.35336e-18)
(0.031224 0.0108432 1.44641e-18)
(0.0314201 0.00980808 -2.47303e-18)
(0.0315956 0.00877351 1.01649e-18)
(0.031751 0.00773956 -6.50026e-18)
(0.0318863 0.00670621 -1.20124e-17)
(0.032002 0.00567342 2.05918e-18)
(0.032098 0.00464114 1.72627e-18)
(0.0321747 0.00360932 -8.73786e-18)
(0.0322321 0.00257782 1.92164e-18)
(0.0322703 0.00154657 3.1917e-18)
(0.0322893 0.000515479 -5.49455e-19)
(0.0322893 -0.000515549 1.01891e-17)
(0.0322702 -0.00154663 1.52045e-17)
(0.032232 -0.00257786 1.2686e-17)
(0.0321746 -0.00360934 2.20865e-19)
(0.032098 -0.00464118 1.03264e-17)
(0.0320019 -0.00567345 7.7397e-18)
(0.0318863 -0.00670623 2.93156e-18)
(0.031751 -0.00773957 -1.42997e-18)
(0.0315956 -0.00877354 -1.09036e-17)
(0.0314201 -0.00980811 -7.11541e-18)
(0.031224 -0.0108433 -4.34575e-18)
(0.0310071 -0.011879 -5.20234e-18)
(0.030769 -0.0129152 -4.00539e-18)
(0.0305095 -0.0139519 -1.07931e-17)
(0.0302279 -0.0149887 -2.02541e-17)
(0.0299239 -0.0160256 -4.61498e-18)
(0.0295972 -0.0170624 -1.47658e-17)
(0.0292471 -0.0180986 -1.20585e-17)
(0.0288734 -0.0191341 -6.48651e-18)
(0.0284762 -0.0201688 5.98439e-18)
(0.0280548 -0.0212024 -3.41861e-19)
(0.0276098 -0.022235 1.27904e-18)
(0.0271407 -0.0232662 2.51712e-18)
(0.0266478 -0.0242968 7.96084e-18)
(0.0267528 -0.0247164 2.14243e-17)
(0.0291032 0.0206098 2.77642e-18)
(0.0295065 0.0195501 -1.24778e-17)
(0.0298869 0.0184907 -2.4172e-17)
(0.0302433 0.017431 -9.60251e-18)
(0.0305768 0.0163714 2.47709e-18)
(0.0308871 0.0153117 -1.16834e-17)
(0.0311747 0.0142522 -5.47028e-18)
(0.0314397 0.013193 6.28962e-18)
(0.0316829 0.0121342 8.79336e-18)
(0.0319044 0.011076 4.34553e-20)
(0.0321046 0.0100185 -1.00371e-18)
(0.0322838 0.00896162 1.98155e-18)
(0.0324424 0.00790541 -8.4251e-18)
(0.0325805 0.00684984 -1.27631e-17)
(0.0326986 0.00579488 2.42985e-18)
(0.0327966 0.00474047 7.14841e-19)
(0.0328749 0.00368654 -9.22862e-18)
(0.0329334 0.00263297 1.4832e-18)
(0.0329724 0.00157965 3.43981e-18)
(0.0329919 0.000526506 3.70421e-19)
(0.0329919 -0.000526573 1.077e-17)
(0.0329724 -0.00157971 1.48833e-17)
(0.0329334 -0.002633 1.32572e-17)
(0.0328748 -0.00368656 -1.76043e-19)
(0.0327966 -0.0047405 9.2667e-18)
(0.0326985 -0.00579491 8.65139e-18)
(0.0325805 -0.00684986 3.4561e-18)
(0.0324423 -0.00790542 -2.35038e-18)
(0.0322838 -0.00896165 -1.12032e-17)
(0.0321046 -0.0100185 -7.14985e-18)
(0.0319044 -0.011076 -5.09868e-18)
(0.0316829 -0.0121342 -6.76572e-18)
(0.0314398 -0.013193 -4.64279e-18)
(0.0311748 -0.0142521 -1.15817e-17)
(0.0308872 -0.0153116 -2.03416e-17)
(0.0305768 -0.0163713 -3.63567e-18)
(0.0302433 -0.0174309 -1.54295e-17)
(0.0298869 -0.0184907 -1.24872e-17)
(0.0295065 -0.0195501 -6.3789e-18)
(0.0291032 -0.0206097 5.23186e-18)
(0.0286757 -0.0216689 -1.84077e-18)
(0.0282236 -0.0227274 6.73226e-19)
(0.0277467 -0.0237847 1.85801e-18)
(0.0272443 -0.0248415 8.37281e-18)
(0.0273352 -0.025284 2.16753e-17)
(0.0297553 0.0210686 1.55831e-18)
(0.0301648 0.0199828 -1.20703e-17)
(0.0305504 0.0188975 -2.5795e-17)
(0.0309117 0.0178123 -1.10783e-17)
(0.031251 0.0167283 2.94692e-18)
(0.0315669 0.0156445 -1.31667e-17)
(0.0318597 0.0145614 -6.10507e-18)
(0.0321302 0.0134789 7.71957e-18)
(0.0323785 0.0123969 8.524e-18)
(0.0326046 0.0113156 -1.00502e-18)
(0.032809 0.0102351 2.27456e-19)
(0.0329919 0.00915521 2.97853e-18)
(0.0331538 0.00807609 -1.06305e-17)
(0.0332949 0.00699765 -1.34342e-17)
(0.0334154 0.00591986 3.2677e-18)
(0.0335155 0.00484268 3.80363e-20)
(0.0335954 0.003766 -9.23485e-18)
(0.0336551 0.00268971 1.15821e-18)
(0.0336949 0.00161369 3.64252e-18)
(0.0337148 0.000537853 1.26218e-18)
(0.0337147 -0.000537916 1.08129e-17)
(0.0336949 -0.00161374 1.4244e-17)
(0.0336551 -0.00268974 1.4169e-17)
(0.0335953 -0.00376603 -1.34304e-19)
(0.0335154 -0.00484271 8.45662e-18)
(0.0334153 -0.0059199 9.67221e-18)
(0.0332949 -0.00699767 3.66438e-18)
(0.0331538 -0.00807609 -3.18243e-18)
(0.0329919 -0.00915524 -1.10745e-17)
(0.032809 -0.0102351 -6.97868e-18)
(0.0326046 -0.0113156 -5.49322e-18)
(0.0323785 -0.0123969 -7.66217e-18)
(0.0321303 -0.0134789 -5.07302e-18)
(0.0318597 -0.0145613 -1.20512e-17)
(0.0315669 -0.0156445 -2.07456e-17)
(0.0312511 -0.0167282 -3.26027e-18)
(0.0309118 -0.0178122 -1.57954e-17)
(0.0305505 -0.0188974 -1.21865e-17)
(0.0301648 -0.0199828 -6.21937e-18)
(0.0297553 -0.0210686 5.16098e-18)
(0.0293209 -0.022154 -2.42891e-18)
(0.0288605 -0.0232384 7.22862e-20)
(0.0283737 -0.0243213 1.03816e-18)
(0.02786 -0.0254034 9.47296e-18)
(0.0279354 -0.0258685 2.18058e-17)
(0.0304318 0.0215447 2.50999e-19)
(0.030849 0.0204327 -1.24782e-17)
(0.0312407 0.0193209 -2.72678e-17)
(0.0316076 0.0182094 -1.22404e-17)
(0.0319514 0.0170991 2.87269e-18)
(0.0322714 0.0159897 -1.43885e-17)
(0.0325682 0.0148812 -6.73199e-18)
(0.0328435 0.0137741 8.68361e-18)
(0.033096 0.0126679 8.4761e-18)
(0.0333261 0.0115625 -1.58239e-18)
(0.0335344 0.0104581 1.2547e-18)
(0.0337211 0.00935457 3.98944e-18)
(0.0338864 0.00825183 -1.25177e-17)
(0.0340304 0.00714984 -1.39648e-17)
(0.0341534 0.00604855 4.00183e-18)
(0.0342555 0.0049479 -2.77316e-20)
(0.034337 0.00384781 -8.96949e-18)
(0.034398 0.00274813 7.84843e-19)
(0.0344386 0.00164874 3.88521e-18)
(0.0344589 0.000549534 2.08327e-18)
(0.0344589 -0.000549594 1.0508e-17)
(0.0344386 -0.00164878 1.32725e-17)
(0.034398 -0.00274816 1.4976e-17)
(0.034337 -0.00384784 2.38099e-19)
(0.0342554 -0.00494794 8.26339e-18)
(0.0341533 -0.00604859 1.07891e-17)
(0.0340303 -0.00714986 3.51017e-18)
(0.0338864 -0.00825183 -3.70422e-18)
(0.0337211 -0.00935458 -1.09314e-17)
(0.0335344 -0.0104581 -7.18392e-18)
(0.0333261 -0.0115625 -5.39124e-18)
(0.0330961 -0.0126679 -8.10317e-18)
(0.0328436 -0.0137741 -5.52464e-18)
(0.0325683 -0.0148812 -1.23252e-17)
(0.0322714 -0.0159896 -2.1127e-17)
(0.0319514 -0.017099 -3.6136e-18)
(0.0316076 -0.0182093 -1.64543e-17)
(0.0312407 -0.0193208 -1.1766e-17)
(0.0308491 -0.0204327 -6.30228e-18)
(0.0304319 -0.0215446 5.09061e-18)
(0.0299886 -0.022656 -2.47507e-18)
(0.0295182 -0.0237662 -2.17775e-19)
(0.0290203 -0.0248746 4.01164e-19)
(0.0284941 -0.0259818 1.09466e-17)
(0.0285538 -0.0264701 2.15954e-17)
(0.0311307 0.0220365 -1.435e-18)
(0.031557 0.0208983 -1.29395e-17)
(0.0319566 0.0197601 -2.85509e-17)
(0.0323307 0.0186223 -1.30836e-17)
(0.0326799 0.0174852 2.88764e-18)
(0.0330046 0.0163492 -1.54266e-17)
(0.0333059 0.0152143 -7.78935e-18)
(0.0335846 0.0140811 8.92963e-18)
(0.0338403 0.0129491 8.94676e-18)
(0.0340733 0.0118183 -1.43214e-18)
(0.0342848 0.0106888 2.29093e-18)
(0.0344748 0.00956057 4.68756e-18)
(0.0346428 0.00843328 -1.42655e-17)
(0.0347892 0.00730687 -1.43058e-17)
(0.0349143 0.00618125 4.48938e-18)
(0.0350182 0.00505636 2.65919e-19)
(0.0351011 0.00393209 -8.76924e-18)
(0.0351634 0.00280831 3.66489e-19)
(0.0352048 0.00168484 4.16544e-18)
(0.0352255 0.000561569 2.7889e-18)
(0.0352255 -0.000561623 1.01009e-17)
(0.0352047 -0.00168488 1.21831e-17)
(0.0351633 -0.00280834 1.53802e-17)
(0.035101 -0.00393212 7.90021e-19)
(0.0350181 -0.00505639 8.54879e-18)
(0.0349142 -0.00618129 1.17914e-17)
(0.0347892 -0.00730688 3.20201e-18)
(0.0346428 -0.00843328 -4.03603e-18)
(0.0344747 -0.00956059 -1.03371e-17)
(0.0342848 -0.0106889 -7.75863e-18)
(0.0340734 -0.0118183 -5.13781e-18)
(0.0338404 -0.0129491 -8.07665e-18)
(0.0335847 -0.0140811 -6.15281e-18)
(0.033306 -0.0152143 -1.30652e-17)
(0.0330047 -0.0163491 -2.15776e-17)
(0.0326799 -0.0174851 -4.07868e-18)
(0.0323307 -0.0186222 -1.71291e-17)
(0.0319566 -0.01976 -1.14236e-17)
(0.031557 -0.0208983 -6.46395e-18)
(0.0311308 -0.0220365 4.53514e-18)
(0.0306774 -0.023174 -2.57118e-18)
(0.0301962 -0.0243101 -5.57018e-20)
(0.0296863 -0.0254444 2.49793e-19)
(0.0291468 -0.0265768 1.26514e-17)
(0.0291909 -0.0270896 2.0859e-17)
(0.0318513 0.0225436 -3.72077e-18)
(0.0322875 0.0213788 -1.27102e-17)
(0.0326962 0.0202138 -2.9416e-17)
(0.0330786 0.0190493 -1.35568e-17)
(0.0334349 0.0178853 2.75095e-18)
(0.0337661 0.0167225 -1.69888e-17)
(0.0340729 0.0155609 -9.1289e-18)
(0.0343558 0.0144007 8.9289e-18)
(0.0346152 0.013242 9.7074e-18)
(0.0348517 0.0120848 -1.01774e-18)
(0.035066 0.0109291 3.5403e-18)
(0.0352583 0.00977482 4.77885e-18)
(0.0354284 0.0086218 -1.60111e-17)
(0.0355766 0.00746986 -1.41189e-17)
(0.0357033 0.00631889 4.9599e-18)
(0.0358084 0.00516878 5.60848e-19)
(0.0358924 0.0040194 -8.59321e-18)
(0.0359557 0.0028706 7.57564e-20)
(0.0359978 0.0017222 4.52664e-18)
(0.0360188 0.000574022 3.19107e-18)
(0.0360188 -0.000574071 9.65048e-18)
(0.0359977 -0.00172223 1.12542e-17)
(0.0359555 -0.00287063 1.55089e-17)
(0.0358923 -0.00401942 1.45311e-18)
(0.0358083 -0.00516881 8.96058e-18)
(0.0357031 -0.00631892 1.27621e-17)
(0.0355766 -0.00746988 3.00596e-18)
(0.0354284 -0.00862181 -4.47781e-18)
(0.0352582 -0.00977484 -9.17381e-18)
(0.035066 -0.0109291 -8.03256e-18)
(0.0348518 -0.0120848 -5.22045e-18)
(0.0346154 -0.0132421 -7.81316e-18)
(0.034356 -0.0144007 -6.18215e-18)
(0.034073 -0.0155608 -1.37065e-17)
(0.0337662 -0.0167224 -2.25794e-17)
(0.0334349 -0.0178852 -4.5185e-18)
(0.0330786 -0.0190492 -1.77721e-17)
(0.0326962 -0.0202137 -1.07214e-17)
(0.0322875 -0.0213788 -6.57842e-18)
(0.0318513 -0.0225435 3.52113e-18)
(0.0313872 -0.0237076 -2.83514e-18)
(0.0308943 -0.0248703 5.01486e-19)
(0.0303719 -0.0260309 8.20128e-19)
(0.0298187 -0.0271892 1.41687e-17)
(0.0298475 -0.0277276 1.96312e-17)
(0.0325936 0.0230659 -5.83792e-18)
(0.0330404 0.0218739 -1.20758e-17)
(0.0334589 0.0206817 -2.99436e-17)
(0.0338503 0.0194898 -1.38436e-17)
(0.0342148 0.0182986 1.96055e-18)
(0.0345534 0.0171085 -1.84635e-17)
(0.0348668 0.0159196 -9.97165e-18)
(0.0351554 0.014732 9.04928e-18)
(0.0354199 0.0135462 1.0567e-17)
(0.0356609 0.0123619 -9.45007e-19)
(0.0358788 0.0111792 5.15573e-18)
(0.0360738 0.00999795 4.64864e-18)
(0.0362464 0.00881821 -1.77895e-17)
(0.0363968 0.00763972 -1.37076e-17)
(0.0365252 0.00646235 5.4161e-18)
(0.0366319 0.00528598 8.34685e-19)
(0.0367171 0.00411041 -8.37324e-18)
(0.0367811 0.00293552 -2.31082e-19)
(0.0368238 0.00176112 4.70049e-18)
(0.036845 0.000586996 3.41066e-18)
(0.036845 -0.000587034 9.33247e-18)
(0.0368236 -0.00176115 1.03362e-17)
(0.0367809 -0.00293554 1.56239e-17)
(0.0367169 -0.00411042 2.32457e-18)
(0.0366317 -0.005286 9.36186e-18)
(0.0365251 -0.00646239 1.34113e-17)
(0.0363967 -0.00763973 2.79615e-18)
(0.0362464 -0.00881821 -4.95086e-18)
(0.0360738 -0.00999799 -7.49236e-18)
(0.0358788 -0.0111792 -8.12087e-18)
(0.035661 -0.012362 -5.46643e-18)
(0.03542 -0.0135463 -7.55036e-18)
(0.0351555 -0.0147321 -6.08e-18)
(0.0348669 -0.0159195 -1.35774e-17)
(0.0345534 -0.0171084 -2.35458e-17)
(0.0342148 -0.0182984 -5.45938e-18)
(0.0338503 -0.0194897 -1.87474e-17)
(0.0334589 -0.0206816 -9.78242e-18)
(0.0330404 -0.0218739 -6.20915e-18)
(0.0325937 -0.0230659 2.12004e-18)
(0.0321182 -0.0242572 -3.63869e-18)
(0.0316133 -0.025447 1.5748e-18)
(0.0310779 -0.0266347 1.83933e-18)
(0.0305108 -0.0278197 1.52847e-17)
(0.0305242 -0.0283849 1.83795e-17)
(0.0333584 0.023604 -7.72885e-18)
(0.0338161 0.022384 -1.13078e-17)
(0.0342449 0.0211638 -3.04351e-17)
(0.0346458 0.019944 -1.43422e-17)
(0.0350191 0.0187248 9.1518e-19)
(0.0353657 0.0175067 -1.96726e-17)
(0.0356865 0.0162899 -1.04482e-17)
(0.0359816 0.0150745 9.61062e-18)
(0.036252 0.0138608 1.13666e-17)
(0.0364984 0.0126488 -1.42082e-18)
(0.0367207 0.0114382 6.47115e-18)
(0.0369196 0.0102294 4.37382e-18)
(0.0370956 0.0090221 -1.91437e-17)
(0.0372489 0.00781618 -1.30523e-17)
(0.0373798 0.0066115 5.72061e-18)
(0.0374884 0.00540788 5.56286e-19)
(0.0375753 0.00420514 -8.09359e-18)
(0.0376403 0.00300312 -8.71925e-20)
(0.0376835 0.00180166 4.61627e-18)
(0.037705 0.000600511 3.19118e-18)
(0.037705 -0.000600533 9.21665e-18)
(0.0376833 -0.00180167 9.69781e-18)
(0.03764 -0.00300313 1.58705e-17)
(0.037575 -0.00420515 3.25339e-18)
(0.0374882 -0.0054079 9.62833e-18)
(0.0373795 -0.00661153 1.37603e-17)
(0.0372487 -0.00781619 2.32196e-18)
(0.0370955 -0.00902209 -5.10734e-18)
(0.0369196 -0.0102294 -5.37284e-18)
(0.0367207 -0.0114383 -7.97532e-18)
(0.0364984 -0.0126488 -6.16574e-18)
(0.0362521 -0.0138608 -7.38186e-18)
(0.0359817 -0.0150745 -5.84268e-18)
(0.0356865 -0.0162898 -1.28697e-17)
(0.0353658 -0.0175066 -2.40267e-17)
(0.035019 -0.0187246 -6.72586e-18)
(0.0346458 -0.0199439 -2.02041e-17)
(0.0342449 -0.0211637 -9.05546e-18)
(0.0338161 -0.022384 -5.35258e-18)
(0.0333585 -0.023604 7.5548e-19)
(0.0328713 -0.0248233 -4.0448e-18)
(0.0323539 -0.0260412 2.60832e-18)
(0.0318053 -0.0272568 2.978e-18)
(0.031224 -0.0284693 1.63599e-17)
(0.0312222 -0.0290626 1.74423e-17)
(0.0336475 0.0254068 3.43324e-18)
(0.0341467 0.0241586 -9.8783e-18)
(0.0346156 0.0229097 -1.07382e-17)
(0.035055 0.0216607 -3.09146e-17)
(0.0354657 0.020412 -1.49281e-17)
(0.0358482 0.0191641 -3.20997e-19)
(0.0362033 0.0179173 -2.03617e-17)
(0.0365318 0.0166718 -1.06258e-17)
(0.036834 0.0154278 1.00934e-17)
(0.0371109 0.0141854 1.23086e-17)
(0.0373629 0.0129449 -2.21403e-18)
(0.0375904 0.0117059 7.29921e-18)
(0.0377938 0.0104686 4.3792e-18)
(0.0379736 0.00923294 -2.01023e-17)
(0.0381303 0.00799874 -1.2391e-17)
(0.0382641 0.00676584 5.66131e-18)
(0.0383752 0.00553407 3.3753e-20)
(0.0384639 0.00430323 -7.65463e-18)
(0.0385302 0.00307315 3.0607e-19)
(0.0385743 0.00184367 4.43928e-18)
(0.0385962 0.00061452 2.67629e-18)
(0.0385961 -0.000614524 9.37398e-18)
(0.0385741 -0.00184367 9.52441e-18)
(0.0385299 -0.00307316 1.59961e-17)
(0.0384636 -0.00430324 3.65911e-18)
(0.0383749 -0.00553409 9.62167e-18)
(0.0382638 -0.00676587 1.42371e-17)
(0.0381301 -0.00799874 1.8861e-18)
(0.0379735 -0.00923293 -5.25507e-18)
(0.0377937 -0.0104686 -3.28017e-18)
(0.0375904 -0.0117059 -7.70305e-18)
(0.0373629 -0.0129449 -7.05683e-18)
(0.0371109 -0.0141855 -7.08719e-18)
(0.0368341 -0.0154277 -5.95601e-18)
(0.0365318 -0.0166717 -1.18208e-17)
(0.0362033 -0.0179172 -2.38601e-17)
(0.0358481 -0.019164 -8.10458e-18)
(0.0354657 -0.0204119 -2.16951e-17)
(0.035055 -0.0216606 -8.70294e-18)
(0.0346157 -0.0229097 -4.54357e-18)
(0.0341468 -0.0241586 -7.39006e-19)
(0.0336476 -0.0254068 -4.30337e-18)
(0.0331174 -0.0266535 3.22975e-18)
(0.0325552 -0.027898 4.01564e-18)
(0.0319596 -0.0291393 1.75992e-17)
(0.0319423 -0.0297616 1.69021e-17)
(0.0344481 0.0260085 1.98949e-18)
(0.0349596 0.0247305 -1.20992e-17)
(0.0354401 0.0234517 -1.01443e-17)
(0.0358904 0.0221729 -3.14482e-17)
(0.0363112 0.0208946 -1.55771e-17)
(0.0367031 0.019617 -1.99876e-18)
(0.0370669 0.0183406 -2.03229e-17)
(0.0374035 0.0170656 -1.01178e-17)
(0.0377131 0.0157921 1.03735e-17)
(0.0379967 0.0145203 1.31821e-17)
(0.0382548 0.0132503 -3.27389e-18)
(0.0384878 0.011982 7.63401e-18)
(0.038696 0.0107155 4.55363e-18)
(0.0388801 0.00945059 -2.06885e-17)
(0.0390405 0.00818724 -1.18609e-17)
(0.0391774 0.00692524 5.43218e-18)
(0.0392911 0.00566441 -5.57263e-19)
(0.0393818 0.00440456 -7.26629e-18)
(0.0394496 0.00314551 8.58951e-19)
(0.0394947 0.00188708 4.1166e-18)
(0.0395171 0.000628995 2.07598e-18)
(0.039517 -0.000628983 1.00018e-17)
(0.0394945 -0.00188707 9.69799e-18)
(0.0394493 -0.00314551 1.58909e-17)
(0.0393815 -0.00440457 3.75398e-18)
(0.0392908 -0.00566443 9.63378e-18)
(0.0391771 -0.00692525 1.49417e-17)
(0.0390402 -0.00818723 1.60575e-18)
(0.0388799 -0.00945058 -5.66677e-18)
(0.0386958 -0.0107155 -1.77026e-18)
(0.0384876 -0.011982 -7.50845e-18)
(0.0382548 -0.0132503 -7.78454e-18)
(0.0379967 -0.0145203 -7.05587e-18)
(0.0377131 -0.015792 -6.30524e-18)
(0.0374034 -0.0170655 -1.06563e-17)
(0.0370669 -0.0183405 -2.34346e-17)
(0.036703 -0.0196169 -9.42597e-18)
(0.0363111 -0.0208945 -2.26326e-17)
(0.0358903 -0.0221729 -8.63484e-18)
(0.0354401 -0.0234517 -4.09647e-18)
(0.0349597 -0.0247304 -2.50776e-18)
(0.0344483 -0.0260085 -5.08449e-18)
(0.0339051 -0.0272852 3.5154e-18)
(0.033329 -0.0285596 4.54237e-18)
(0.0327187 -0.0298306 1.92096e-17)
(0.0326858 -0.0304831 1.65873e-17)
(0.0352745 0.0266296 7.19606e-19)
(0.0357986 0.0253206 -1.41851e-17)
(0.0362909 0.024011 -9.27685e-18)
(0.0367522 0.0227015 -3.17634e-17)
(0.0371834 0.0213924 -1.64983e-17)
(0.0375849 0.0200842 -3.95064e-18)
(0.0379578 0.0187773 -2.01016e-17)
(0.0383026 0.0174717 -9.3114e-18)
(0.0386199 0.0161678 1.07179e-17)
(0.0389104 0.0148657 1.36764e-17)
(0.0391748 0.0135654 -4.66121e-18)
(0.0394135 0.0122669 7.70843e-18)
(0.0396268 0.0109701 4.7221e-18)
(0.0398154 0.00967515 -2.08843e-17)
(0.0399796 0.00838172 -1.12118e-17)
(0.0401198 0.00708971 5.40059e-18)
(0.0402362 0.00579891 -1.37889e-18)
(0.0403291 0.00450913 -7.01099e-18)
(0.0403985 0.00322019 1.5722e-18)
(0.0404446 0.00193189 3.51978e-18)
(0.0404676 0.000643935 1.56073e-18)
(0.0404676 -0.000643909 1.07668e-17)
(0.0404444 -0.00193186 9.82606e-18)
(0.0403982 -0.00322018 1.58005e-17)
(0.0403288 -0.00450914 3.69512e-18)
(0.0402359 -0.00579893 9.5892e-18)
(0.0401195 -0.00708972 1.59912e-17)
(0.0399793 -0.00838171 1.59374e-18)
(0.0398151 -0.00967512 -5.98483e-18)
(0.0396266 -0.0109701 -9.42983e-19)
(0.0394133 -0.0122669 -7.37583e-18)
(0.0391747 -0.0135654 -8.18628e-18)
(0.0389104 -0.0148656 -7.11005e-18)
(0.0386198 -0.0161677 -6.23491e-18)
(0.0383025 -0.0174716 -9.56602e-18)
(0.0379577 -0.0187771 -2.32726e-17)
(0.0375849 -0.0200841 -1.0557e-17)
(0.0371833 -0.0213923 -2.30886e-17)
(0.0367522 -0.0227014 -8.14678e-18)
(0.0362909 -0.024011 -3.88071e-18)
(0.0357986 -0.0253206 -4.37785e-18)
(0.0352747 -0.0266296 -6.19224e-18)
(0.0347182 -0.0279373 3.39723e-18)
(0.034128 -0.0292426 4.31653e-18)
(0.0335028 -0.0305446 2.09153e-17)
(0.0334539 -0.0312284 1.64209e-17)
(0.0355581 0.0286109 3.16234e-17)
(0.0361282 0.0272711 -4.3009e-20)
(0.0366651 0.0259301 -1.60235e-17)
(0.0371695 0.0245886 -8.1976e-18)
(0.0376421 0.0232472 -3.18242e-17)
(0.0380838 0.0219063 -1.73437e-17)
(0.0384953 0.0205665 -6.02028e-18)
(0.0388773 0.0192279 -1.99499e-17)
(0.0392305 0.0178909 -8.13534e-18)
(0.0395557 0.0165556 1.10086e-17)
(0.0398534 0.0152221 1.34558e-17)
(0.0401242 0.0138905 -5.92587e-18)
(0.0403687 0.0125608 8.17474e-18)
(0.0405873 0.0112329 4.81648e-18)
(0.0407805 0.00990686 -2.10615e-17)
(0.0409487 0.00858241 -1.0186e-17)
(0.0410923 0.00725943 5.78722e-18)
(0.0412115 0.0059377 -2.51467e-18)
(0.0413066 0.00461703 -7.23808e-18)
(0.0413777 0.00329725 2.21132e-18)
(0.041425 0.00197813 3.00367e-18)
(0.0414485 0.000659351 1.4063e-18)
(0.0414485 -0.000659312 1.15546e-17)
(0.0414248 -0.00197808 9.73156e-18)
(0.0413774 -0.00329724 1.57534e-17)
(0.0413063 -0.00461705 3.67407e-18)
(0.0412112 -0.00593771 9.23453e-18)
(0.0410919 -0.00725943 1.68665e-17)
(0.0409483 -0.00858239 1.83718e-18)
(0.0407801 -0.00990683 -6.40166e-18)
(0.040587 -0.0112329 -6.30567e-19)
(0.0403685 -0.0125608 -7.25637e-18)
(0.0401241 -0.0138905 -8.44379e-18)
(0.0398533 -0.015222 -7.32188e-18)
(0.0395556 -0.0165554 -5.72201e-18)
(0.0392304 -0.0178907 -8.0898e-18)
(0.0388772 -0.0192278 -2.34846e-17)
(0.0384952 -0.0205663 -1.17066e-17)
(0.0380838 -0.0219062 -2.31735e-17)
(0.0376421 -0.0232471 -7.33125e-18)
(0.0371695 -0.0245885 -3.82955e-18)
(0.0366651 -0.0259301 -5.85967e-18)
(0.0361284 -0.0272711 -6.83999e-18)
(0.0355582 -0.0286109 2.56218e-18)
(0.0349536 -0.0299483 3.94579e-18)
(0.0343131 -0.0312824 2.24125e-17)
(0.034248 -0.0319986 1.66795e-17)
(0.0364266 0.0293073 3.12452e-17)
(0.0370107 0.0279342 -2.17151e-19)
(0.0375608 0.02656 -1.76535e-17)
(0.0380775 0.0251854 -6.92994e-18)
(0.0385617 0.023811 -3.16621e-17)
(0.0390142 0.0224373 -1.8217e-17)
(0.0394357 0.0210646 -7.44307e-18)
(0.0398271 0.0196934 -1.96073e-17)
(0.040189 0.0183238 -7.0102e-18)
(0.0405221 0.016956 1.10652e-17)
(0.0408271 0.0155901 1.28286e-17)
(0.0411045 0.0142262 -7.19919e-18)
(0.041355 0.0128642 9.13761e-18)
(0.041579 0.0115043 4.83486e-18)
(0.0417769 0.0101461 -2.11597e-17)
(0.0419492 0.0087896 -9.16709e-18)
(0.0420962 0.00743463 6.06293e-18)
(0.0422183 0.00608097 -3.59951e-18)
(0.0423157 0.00472843 -7.62571e-18)
(0.0423886 0.0033768 2.69171e-18)
(0.042437 0.00202585 2.59315e-18)
(0.0424611 0.000675263 1.56967e-18)
(0.042461 -0.000675212 1.24741e-17)
(0.0424368 -0.00202579 9.24837e-18)
(0.0423882 -0.00337678 1.56408e-17)
(0.0423154 -0.00472844 4.07462e-18)
(0.042218 -0.00608099 9.03622e-18)
(0.0420958 -0.00743462 1.72285e-17)
(0.0419487 -0.00878956 1.96161e-18)
(0.0417764 -0.010146 -6.74327e-18)
(0.0415786 -0.0115042 -4.52168e-19)
(0.0413547 -0.0128642 -6.77515e-18)
(0.0411044 -0.0142262 -8.9397e-18)
(0.0408269 -0.01559 -7.98577e-18)
(0.040522 -0.0169559 -5.2441e-18)
(0.0401888 -0.0183236 -6.48944e-18)
(0.039827 -0.0196932 -2.34666e-17)
(0.0394357 -0.0210645 -1.29e-17)
(0.0390141 -0.0224372 -2.33796e-17)
(0.0385616 -0.0238109 -6.11787e-18)
(0.0380774 -0.0251853 -3.63213e-18)
(0.0375607 -0.02656 -7.10602e-18)
(0.0370108 -0.0279342 -6.64978e-18)
(0.0364267 -0.0293072 1.61548e-18)
(0.0358073 -0.030678 3.58261e-18)
(0.0351512 -0.0320455 2.36046e-17)
(0.0350695 -0.0327952 1.69815e-17)
(0.0366907 0.0314332 3.14824e-17)
(0.0373251 0.0300277 3.09968e-17)
(0.0379236 0.0286202 -7.49879e-19)
(0.0384871 0.0272115 -1.89819e-17)
(0.0390165 0.0258026 -5.79206e-18)
(0.0395126 0.024394 -3.17413e-17)
(0.0399762 0.0229863 -1.96479e-17)
(0.040408 0.0215796 -8.86801e-18)
(0.0408089 0.0201746 -1.8995e-17)
(0.0411796 0.0187712 -6.1911e-18)
(0.0415209 0.0173698 1.08268e-17)
(0.0418333 0.0159704 1.19655e-17)
(0.0421175 0.014573 -8.37888e-18)
(0.0423741 0.0131778 1.03897e-17)
(0.0426035 0.0117846 4.84088e-18)
(0.0428062 0.0103932 -2.11949e-17)
(0.0429827 0.00900363 -8.38697e-18)
(0.0431333 0.00761562 6.00955e-18)
(0.0432583 0.00622897 -4.48402e-18)
(0.0433581 0.00484349 -7.78895e-18)
(0.0434327 0.00345897 2.94814e-18)
(0.0434823 0.00207515 2.197e-18)
(0.043507 0.000691697 1.82662e-18)
(0.043507 -0.000691635 1.35548e-17)
(0.0434821 -0.00207508 8.53244e-18)
(0.0434324 -0.00345894 1.53307e-17)
(0.0433578 -0.0048435 4.88038e-18)
(0.043258 -0.00622898 9.38366e-18)
(0.0431329 -0.0076156 1.71212e-17)
(0.0429822 -0.00900357 1.49314e-18)
(0.0428057 -0.0103931 -6.90188e-18)
(0.0426031 -0.0117845 -3.29286e-19)
(0.0423737 -0.0131778 -5.62421e-18)
(0.0421173 -0.014573 -9.33256e-18)
(0.0418332 -0.0159703 -9.11153e-18)
(0.0415208 -0.0173697 -4.9475e-18)
(0.0411795 -0.018771 -4.78183e-18)
(0.0408088 -0.0201744 -2.28372e-17)
(0.0404079 -0.0215795 -1.42058e-17)
(0.0399761 -0.0229861 -2.38975e-17)
(0.0395125 -0.024394 -4.93765e-18)
(0.0390164 -0.0258026 -2.97056e-18)
(0.0384871 -0.0272115 -8.51381e-18)
(0.0379237 -0.0286202 -6.63989e-18)
(0.0373252 -0.0300277 1.26185e-18)
(0.0366907 -0.0314331 3.7577e-18)
(0.0360185 -0.0328351 2.4673e-17)
(0.0359198 -0.0336196 1.61625e-17)
(0.0376053 0.0322149 3.26887e-17)
(0.0382554 0.0307736 3.02136e-17)
(0.0388687 0.0293303 -2.28894e-18)
(0.0394461 0.0278859 -1.99872e-17)
(0.0399884 0.0264414 -4.78102e-18)
(0.0404967 0.0249974 -3.19019e-17)
(0.0409716 0.0235543 -2.10981e-17)
(0.0414139 0.0221125 -1.02438e-17)
(0.0418247 0.0206723 -1.82423e-17)
(0.0422044 0.0192341 -5.77166e-18)
(0.042554 0.0177978 1.05152e-17)
(0.0428739 0.0163637 1.08483e-17)
(0.0431651 0.0149317 -8.98898e-18)
(0.0434279 0.013502 1.1859e-17)
(0.0436629 0.0120744 4.91185e-18)
(0.0438705 0.0106487 -2.10581e-17)
(0.0440513 0.0092249 -8.15141e-18)
(0.0442054 0.00780273 5.58901e-18)
(0.0443335 0.00638197 -4.8749e-18)
(0.0444357 0.00496244 -7.36754e-18)
(0.044512 0.00354391 2.89493e-18)
(0.0445628 0.0021261 1.55669e-18)
(0.0445882 0.000708683 1.88958e-18)
(0.0445882 -0.00070861 1.46923e-17)
(0.0445627 -0.00212602 7.88972e-18)
(0.0445118 -0.00354387 1.48149e-17)
(0.0444353 -0.00496245 5.94514e-18)
(0.0443332 -0.00638198 1.01363e-17)
(0.044205 -0.00780269 1.67513e-17)
(0.0440507 -0.00922483 5.52839e-19)
(0.0438699 -0.0106486 -6.88085e-18)
(0.0436624 -0.0120743 -4.96573e-19)
(0.0434275 -0.013502 -4.11175e-18)
(0.0431648 -0.0149317 -9.29258e-18)
(0.0428738 -0.0163636 -1.06689e-17)