/*--------------------------------*- C++ -*----------------------------------*\
  =========                 |
  \\      /  F ield         | OpenFOAM: The Open Source CFD Toolbox
   \\    /   O peration     | Website:  https://openfoam.org
    \\  /    A nd           | Version:  7
     \\/     M anipulation  |
\*---------------------------------------------------------------------------*/
FoamFile
{
    version     2.0;
    format      ascii;
    class       volScalarField;
    location    "12000";
    object      nu;
}
// * * * * * * * * * * * * * * * * * * * * * * * * * * * * * * * * * * * * * //

dimensions      [0 2 -1 0 0 0 0];

internalField   nonuniform List<scalar> 
1776
(
2.30871e-06
2.32365e-06
2.33784e-06
2.35122e-06
2.36369e-06
2.37518e-06
2.38559e-06
2.39486e-06
2.40293e-06
2.23945e-06
2.2548e-06
2.26917e-06
2.28284e-06
2.29572e-06
2.30772e-06
2.31878e-06
2.32881e-06
2.33774e-06
2.3455e-06
2.18684e-06
2.20159e-06
2.21542e-06
2.22856e-06
2.24095e-06
2.2525e-06
2.26314e-06
2.27278e-06
2.28137e-06
2.28884e-06
2.13492e-06
2.14907e-06
2.16236e-06
2.17499e-06
2.18689e-06
2.19799e-06
2.20821e-06
2.21749e-06
2.22574e-06
2.23292e-06
2.08366e-06
2.09723e-06
2.10998e-06
2.1221e-06
2.13353e-06
2.14419e-06
2.154e-06
2.1629e-06
2.17082e-06
2.17772e-06
2.03306e-06
2.04605e-06
2.05827e-06
2.06989e-06
2.08085e-06
2.09107e-06
2.10047e-06
2.10901e-06
2.11661e-06
2.12322e-06
1.9831e-06
1.99552e-06
2.00722e-06
2.01834e-06
2.02883e-06
2.03861e-06
2.04762e-06
2.05579e-06
2.06307e-06
2.0694e-06
1.93377e-06
1.94563e-06
1.9568e-06
1.96744e-06
1.97747e-06
1.98682e-06
1.99543e-06
2.00324e-06
2.0102e-06
2.01625e-06
1.88507e-06
1.89637e-06
1.90703e-06
1.91717e-06
1.92674e-06
1.93567e-06
1.94389e-06
1.95134e-06
1.95798e-06
1.96376e-06
1.837e-06
1.84774e-06
1.85789e-06
1.86755e-06
1.87666e-06
1.88516e-06
1.89299e-06
1.90009e-06
1.90642e-06
1.91192e-06
1.78957e-06
1.79976e-06
1.8094e-06
1.81857e-06
1.82723e-06
1.8353e-06
1.84274e-06
1.84949e-06
1.8555e-06
1.86074e-06
1.74281e-06
1.75244e-06
1.76156e-06
1.77025e-06
1.77846e-06
1.78611e-06
1.79316e-06
1.79955e-06
1.80525e-06
1.81021e-06
1.69676e-06
1.70583e-06
1.71443e-06
1.72263e-06
1.73037e-06
1.7376e-06
1.74425e-06
1.7503e-06
1.75568e-06
1.76036e-06
1.65147e-06
1.65997e-06
1.66806e-06
1.67576e-06
1.68304e-06
1.68983e-06
1.69609e-06
1.70177e-06
1.70683e-06
1.71124e-06
1.60705e-06
1.61498e-06
1.62252e-06
1.62972e-06
1.63652e-06
1.64287e-06
1.64873e-06
1.65405e-06
1.65879e-06
1.66291e-06
1.56365e-06
1.57098e-06
1.57797e-06
1.58465e-06
1.59096e-06
1.59686e-06
1.6023e-06
1.60724e-06
1.61165e-06
1.61549e-06
1.52147e-06
1.52819e-06
1.5346e-06
1.54074e-06
1.54654e-06
1.55197e-06
1.55698e-06
1.56153e-06
1.56559e-06
1.56913e-06
1.48084e-06
1.4869e-06
1.49272e-06
1.49828e-06
1.50355e-06
1.50848e-06
1.51304e-06
1.51718e-06
1.52089e-06
1.52411e-06
1.44219e-06
1.44756e-06
1.45273e-06
1.45769e-06
1.46239e-06
1.4668e-06
1.47088e-06
1.47459e-06
1.4779e-06
1.4808e-06
1.40609e-06
1.41074e-06
1.41523e-06
1.41954e-06
1.42363e-06
1.42748e-06
1.43104e-06
1.43429e-06
1.4372e-06
1.43974e-06
1.37329e-06
1.37717e-06
1.38093e-06
1.38456e-06
1.38801e-06
1.39126e-06
1.39428e-06
1.39704e-06
1.39951e-06
1.40167e-06
1.34457e-06
1.34767e-06
1.35069e-06
1.35361e-06
1.3564e-06
1.35904e-06
1.36149e-06
1.36373e-06
1.36574e-06
1.36751e-06
1.32067e-06
1.32302e-06
1.32531e-06
1.32754e-06
1.32968e-06
1.3317e-06
1.33359e-06
1.33532e-06
1.33688e-06
1.33824e-06
1.30202e-06
1.30369e-06
1.30533e-06
1.30694e-06
1.30848e-06
1.30994e-06
1.3113e-06
1.31256e-06
1.31369e-06
1.31468e-06
1.28852e-06
1.28964e-06
1.29075e-06
1.29185e-06
1.29289e-06
1.29389e-06
1.29482e-06
1.29568e-06
1.29645e-06
1.29713e-06
1.27948e-06
1.28021e-06
1.28095e-06
1.28168e-06
1.28237e-06
1.28303e-06
1.28364e-06
1.2842e-06
1.28471e-06
1.28516e-06
1.27383e-06
1.27431e-06
1.27482e-06
1.27532e-06
1.27579e-06
1.27623e-06
1.27664e-06
1.27702e-06
1.27736e-06
1.27765e-06
1.27037e-06
1.27073e-06
1.27111e-06
1.27148e-06
1.27183e-06
1.27215e-06
1.27246e-06
1.27273e-06
1.27298e-06
1.27319e-06
1.26815e-06
1.26843e-06
1.26875e-06
1.26906e-06
1.26935e-06
1.26962e-06
1.26987e-06
1.27009e-06
1.27029e-06
1.27047e-06
1.26653e-06
1.26678e-06
1.26706e-06
1.26734e-06
1.26759e-06
1.26784e-06
1.26806e-06
1.26826e-06
1.26844e-06
1.26859e-06
1.26522e-06
1.26544e-06
1.26571e-06
1.26596e-06
1.2662e-06
1.26643e-06
1.26663e-06
1.26682e-06
1.26698e-06
1.26713e-06
1.26412e-06
1.26433e-06
1.26458e-06
1.26482e-06
1.26504e-06
1.26526e-06
1.26545e-06
1.26562e-06
1.26578e-06
1.26592e-06
2.23945e-06
2.18684e-06
2.13492e-06
2.08366e-06
2.03306e-06
1.9831e-06
1.93377e-06
1.88507e-06
1.837e-06
1.78957e-06
1.74281e-06
1.69676e-06
1.65147e-06
1.60705e-06
1.56365e-06
1.52147e-06
1.48084e-06
1.44219e-06
1.40609e-06
1.37329e-06
1.34457e-06
1.32067e-06
1.30202e-06
1.28852e-06
1.27948e-06
1.27383e-06
1.27037e-06
1.26815e-06
1.26653e-06
1.26522e-06
1.26412e-06
2.2548e-06
2.20159e-06
2.14907e-06
2.09723e-06
2.04605e-06
1.99552e-06
1.94563e-06
1.89637e-06
1.84774e-06
1.79976e-06
1.75244e-06
1.70583e-06
1.65997e-06
1.61498e-06
1.57098e-06
1.52819e-06
1.48691e-06
1.44756e-06
1.41074e-06
1.37717e-06
1.34767e-06
1.32302e-06
1.30369e-06
1.28963e-06
1.28021e-06
1.27431e-06
1.27073e-06
1.26843e-06
1.26677e-06
1.26544e-06
1.26432e-06
2.26918e-06
2.21542e-06
2.16236e-06
2.10998e-06
2.05827e-06
2.00722e-06
1.95681e-06
1.90703e-06
1.85789e-06
1.8094e-06
1.76157e-06
1.71444e-06
1.66806e-06
1.62253e-06
1.57797e-06
1.53461e-06
1.49272e-06
1.45273e-06
1.41523e-06
1.38093e-06
1.35069e-06
1.32531e-06
1.30533e-06
1.29075e-06
1.28095e-06
1.27482e-06
1.27111e-06
1.26875e-06
1.26706e-06
1.26571e-06
1.26457e-06
2.28284e-06
2.22857e-06
2.17499e-06
2.12211e-06
2.0699e-06
2.01835e-06
1.96744e-06
1.91718e-06
1.86755e-06
1.81857e-06
1.77026e-06
1.72264e-06
1.67576e-06
1.62972e-06
1.58465e-06
1.54074e-06
1.49828e-06
1.45769e-06
1.41954e-06
1.38456e-06
1.35361e-06
1.32754e-06
1.30693e-06
1.29184e-06
1.28167e-06
1.27531e-06
1.27147e-06
1.26906e-06
1.26733e-06
1.26596e-06
1.26481e-06
2.29572e-06
2.24095e-06
2.1869e-06
2.13354e-06
2.08085e-06
2.02883e-06
1.97747e-06
1.92674e-06
1.87666e-06
1.82723e-06
1.77846e-06
1.73037e-06
1.68304e-06
1.63652e-06
1.59096e-06
1.54654e-06
1.50355e-06
1.46239e-06
1.42363e-06
1.38801e-06
1.3564e-06
1.32968e-06
1.30847e-06
1.29289e-06
1.28237e-06
1.27579e-06
1.27182e-06
1.26935e-06
1.26759e-06
1.2662e-06
1.26504e-06
2.30773e-06
2.2525e-06
2.198e-06
2.14419e-06
2.09107e-06
2.03862e-06
1.98682e-06
1.93567e-06
1.88516e-06
1.83531e-06
1.78611e-06
1.7376e-06
1.68983e-06
1.64287e-06
1.59686e-06
1.55197e-06
1.50848e-06
1.4668e-06
1.42748e-06
1.39126e-06
1.35904e-06
1.3317e-06
1.30993e-06
1.29389e-06
1.28303e-06
1.27623e-06
1.27215e-06
1.26962e-06
1.26783e-06
1.26643e-06
1.26525e-06
2.31878e-06
2.26314e-06
2.20822e-06
2.154e-06
2.10048e-06
2.04762e-06
1.99543e-06
1.94389e-06
1.89299e-06
1.84274e-06
1.79316e-06
1.74426e-06
1.69609e-06
1.64873e-06
1.6023e-06
1.55698e-06
1.51304e-06
1.47088e-06
1.43104e-06
1.39428e-06
1.36149e-06
1.33359e-06
1.3113e-06
1.29482e-06
1.28364e-06
1.27664e-06
1.27245e-06
1.26986e-06
1.26806e-06
1.26663e-06
1.26545e-06
2.32881e-06
2.27278e-06
2.21748e-06
2.1629e-06
2.10901e-06
2.05579e-06
2.00324e-06
1.95135e-06
1.9001e-06
1.84949e-06
1.79955e-06
1.7503e-06
1.70177e-06
1.65405e-06
1.60724e-06
1.56153e-06
1.51719e-06
1.47459e-06
1.43429e-06
1.39704e-06
1.36373e-06
1.33532e-06
1.31255e-06
1.29568e-06
1.2842e-06
1.27702e-06
1.27273e-06
1.27009e-06
1.26826e-06
1.26682e-06
1.26562e-06
2.33774e-06
2.28137e-06
2.22574e-06
2.17083e-06
2.11661e-06
2.06307e-06
2.0102e-06
1.95799e-06
1.90642e-06
1.85551e-06
1.80525e-06
1.75568e-06
1.70683e-06
1.65879e-06
1.61165e-06
1.5656e-06
1.52089e-06
1.4779e-06
1.4372e-06
1.39951e-06
1.36574e-06
1.33688e-06
1.31369e-06
1.29645e-06
1.28471e-06
1.27736e-06
1.27298e-06
1.27029e-06
1.26844e-06
1.26698e-06
1.26578e-06
2.34551e-06
2.28885e-06
2.23293e-06
2.17772e-06
2.12322e-06
2.06941e-06
2.01626e-06
1.96377e-06
1.91193e-06
1.86074e-06
1.81021e-06
1.76037e-06
1.71124e-06
1.66291e-06
1.61549e-06
1.56914e-06
1.52411e-06
1.4808e-06
1.43974e-06
1.40167e-06
1.36751e-06
1.33824e-06
1.31468e-06
1.29713e-06
1.28515e-06
1.27765e-06
1.27319e-06
1.27046e-06
1.26859e-06
1.26713e-06
1.26591e-06
2.35207e-06
2.29516e-06
2.23899e-06
2.18354e-06
2.1288e-06
2.07475e-06
2.02137e-06
1.96864e-06
1.91657e-06
1.86515e-06
1.8144e-06
1.76432e-06
1.71496e-06
1.6664e-06
1.61873e-06
1.57213e-06
1.52684e-06
1.48325e-06
1.44189e-06
1.4035e-06
1.36901e-06
1.3394e-06
1.31553e-06
1.2977e-06
1.28553e-06
1.2779e-06
1.27337e-06
1.27061e-06
1.26872e-06
1.26725e-06
1.26603e-06
2.35737e-06
2.30025e-06
2.24389e-06
2.18824e-06
2.13331e-06
2.07907e-06
2.02549e-06
1.97258e-06
1.92033e-06
1.86872e-06
1.81778e-06
1.76752e-06
1.71797e-06
1.66922e-06
1.62135e-06
1.57455e-06
1.52905e-06
1.48523e-06
1.44363e-06
1.40499e-06
1.37023e-06
1.34035e-06
1.31621e-06
1.29818e-06
1.28584e-06
1.27811e-06
1.27352e-06
1.27073e-06
1.26883e-06
1.26734e-06
1.26612e-06
2.36137e-06
2.3041e-06
2.24759e-06
2.1918e-06
2.13672e-06
2.08233e-06
2.02862e-06
1.97556e-06
1.92317e-06
1.87142e-06
1.82034e-06
1.76994e-06
1.72025e-06
1.67135e-06
1.62334e-06
1.57638e-06
1.53072e-06
1.48673e-06
1.44495e-06
1.40612e-06
1.37115e-06
1.34107e-06
1.31674e-06
1.29853e-06
1.28608e-06
1.27826e-06
1.27363e-06
1.27082e-06
1.26891e-06
1.26742e-06
1.26619e-06
2.36405e-06
2.30669e-06
2.25007e-06
2.19418e-06
2.13901e-06
2.08452e-06
2.03071e-06
1.97756e-06
1.92507e-06
1.87323e-06
1.82205e-06
1.77156e-06
1.72177e-06
1.67278e-06
1.62467e-06
1.5776e-06
1.53184e-06
1.48774e-06
1.44584e-06
1.40687e-06
1.37177e-06
1.34155e-06
1.31709e-06
1.29878e-06
1.28624e-06
1.27837e-06
1.2737e-06
1.27088e-06
1.26896e-06
1.26747e-06
1.26624e-06
2.3654e-06
2.30798e-06
2.25132e-06
2.19538e-06
2.14015e-06
2.08562e-06
2.03176e-06
1.97856e-06
1.92602e-06
1.87414e-06
1.82291e-06
1.77237e-06
1.72254e-06
1.67349e-06
1.62533e-06
1.57822e-06
1.5324e-06
1.48824e-06
1.44628e-06
1.40725e-06
1.37208e-06
1.34179e-06
1.31727e-06
1.2989e-06
1.28632e-06
1.27842e-06
1.27374e-06
1.27091e-06
1.26899e-06
1.26749e-06
1.26626e-06
2.3654e-06
2.30798e-06
2.25132e-06
2.19538e-06
2.14015e-06
2.08562e-06
2.03176e-06
1.97856e-06
1.92602e-06
1.87414e-06
1.82291e-06
1.77237e-06
1.72254e-06
1.67349e-06
1.62533e-06
1.57822e-06
1.5324e-06
1.48824e-06
1.44628e-06
1.40725e-06
1.37208e-06
1.34179e-06
1.31727e-06
1.2989e-06
1.28632e-06
1.27842e-06
1.27374e-06
1.27091e-06
1.26899e-06
1.26749e-06
1.26626e-06
2.36406e-06
2.30669e-06
2.25007e-06
2.19418e-06
2.139e-06
2.08452e-06
2.03071e-06
1.97756e-06
1.92507e-06
1.87323e-06
1.82205e-06
1.77155e-06
1.72177e-06
1.67278e-06
1.62467e-06
1.5776e-06
1.53184e-06
1.48774e-06
1.44584e-06
1.40687e-06
1.37177e-06
1.34155e-06
1.31709e-06
1.29878e-06
1.28624e-06
1.27837e-06
1.2737e-06
1.27088e-06
1.26896e-06
1.26747e-06
1.26624e-06
2.36137e-06
2.3041e-06
2.24759e-06
2.1918e-06
2.13672e-06
2.08233e-06
2.02861e-06
1.97556e-06
1.92316e-06
1.87142e-06
1.82034e-06
1.76993e-06
1.72025e-06
1.67135e-06
1.62333e-06
1.57637e-06
1.53072e-06
1.48673e-06
1.44495e-06
1.40612e-06
1.37115e-06
1.34107e-06
1.31674e-06
1.29854e-06
1.28608e-06
1.27826e-06
1.27363e-06
1.27082e-06
1.26891e-06
1.26742e-06
1.26619e-06
2.35736e-06
2.30025e-06
2.24388e-06
2.18824e-06
2.13331e-06
2.07906e-06
2.02549e-06
1.97258e-06
1.92033e-06
1.86872e-06
1.81778e-06
1.76752e-06
1.71797e-06
1.66922e-06
1.62135e-06
1.57454e-06
1.52905e-06
1.48523e-06
1.44363e-06
1.40499e-06
1.37022e-06
1.34035e-06
1.31621e-06
1.29818e-06
1.28584e-06
1.27811e-06
1.27352e-06
1.27073e-06
1.26883e-06
1.26734e-06
1.26612e-06
2.35207e-06
2.29515e-06
2.23898e-06
2.18354e-06
2.1288e-06
2.07475e-06
2.02136e-06
1.96864e-06
1.91657e-06
1.86515e-06
1.81439e-06
1.76432e-06
1.71496e-06
1.6664e-06
1.61873e-06
1.57212e-06
1.52684e-06
1.48325e-06
1.44189e-06
1.4035e-06
1.36901e-06
1.3394e-06
1.31553e-06
1.2977e-06
1.28553e-06
1.2779e-06
1.27337e-06
1.27061e-06
1.26872e-06
1.26725e-06
1.26603e-06
2.34551e-06
2.28885e-06
2.23292e-06
2.17772e-06
2.12322e-06
2.0694e-06
2.01626e-06
1.96376e-06
1.91193e-06
1.86074e-06
1.81021e-06
1.76036e-06
1.71124e-06
1.66291e-06
1.61549e-06
1.56913e-06
1.52411e-06
1.4808e-06
1.43974e-06
1.40167e-06
1.36751e-06
1.33824e-06
1.31468e-06
1.29713e-06
1.28515e-06
1.27765e-06
1.27319e-06
1.27046e-06
1.26859e-06
1.26713e-06
1.26591e-06
2.33774e-06
2.28137e-06
2.22574e-06
2.17083e-06
2.11661e-06
2.06307e-06
2.0102e-06
1.95799e-06
1.90642e-06
1.85551e-06
1.80525e-06
1.75568e-06
1.70683e-06
1.65879e-06
1.61165e-06
1.56559e-06
1.52089e-06
1.4779e-06
1.4372e-06
1.39951e-06
1.36574e-06
1.33688e-06
1.31368e-06
1.29645e-06
1.28471e-06
1.27736e-06
1.27297e-06
1.27029e-06
1.26843e-06
1.26698e-06
1.26578e-06
2.32881e-06
2.27278e-06
2.21749e-06
2.1629e-06
2.10901e-06
2.0558e-06
2.00324e-06
1.95135e-06
1.9001e-06
1.84949e-06
1.79955e-06
1.7503e-06
1.70177e-06
1.65405e-06
1.60724e-06
1.56153e-06
1.51718e-06
1.47459e-06
1.43429e-06
1.39704e-06
1.36373e-06
1.33532e-06
1.31255e-06
1.29567e-06
1.2842e-06
1.27702e-06
1.27273e-06
1.27009e-06
1.26826e-06
1.26682e-06
1.26562e-06
2.31879e-06
2.26314e-06
2.20822e-06
2.154e-06
2.10048e-06
2.04763e-06
1.99543e-06
1.94389e-06
1.89299e-06
1.84274e-06
1.79316e-06
1.74426e-06
1.69609e-06
1.64873e-06
1.6023e-06
1.55698e-06
1.51304e-06
1.47088e-06
1.43104e-06
1.39428e-06
1.36149e-06
1.33359e-06
1.3113e-06
1.29482e-06
1.28364e-06
1.27664e-06
1.27245e-06
1.26986e-06
1.26806e-06
1.26663e-06
1.26545e-06
2.30773e-06
2.2525e-06
2.19799e-06
2.14419e-06
2.09107e-06
2.03862e-06
1.98682e-06
1.93567e-06
1.88516e-06
1.83531e-06
1.78611e-06
1.7376e-06
1.68983e-06
1.64287e-06
1.59686e-06
1.55197e-06
1.50848e-06
1.4668e-06
1.42748e-06
1.39126e-06
1.35904e-06
1.3317e-06
1.30993e-06
1.29389e-06
1.28303e-06
1.27623e-06
1.27215e-06
1.26962e-06
1.26783e-06
1.26643e-06
1.26525e-06
2.29572e-06
2.24095e-06
2.18689e-06
2.13353e-06
2.08085e-06
2.02883e-06
1.97747e-06
1.92674e-06
1.87666e-06
1.82723e-06
1.77846e-06
1.73038e-06
1.68304e-06
1.63652e-06
1.59096e-06
1.54654e-06
1.50355e-06
1.46239e-06
1.42363e-06
1.38801e-06
1.3564e-06
1.32968e-06
1.30847e-06
1.29289e-06
1.28237e-06
1.27579e-06
1.27182e-06
1.26935e-06
1.26759e-06
1.2662e-06
1.26504e-06
2.28284e-06
2.22856e-06
2.17499e-06
2.12211e-06
2.0699e-06
2.01835e-06
1.96744e-06
1.91718e-06
1.86755e-06
1.81857e-06
1.77026e-06
1.72263e-06
1.67576e-06
1.62972e-06
1.58465e-06
1.54074e-06
1.49828e-06
1.45769e-06
1.41953e-06
1.38456e-06
1.35361e-06
1.32754e-06
1.30694e-06
1.29184e-06
1.28168e-06
1.27531e-06
1.27148e-06
1.26906e-06
1.26733e-06
1.26596e-06
1.26482e-06
2.26917e-06
2.21542e-06
2.16236e-06
2.10998e-06
2.05827e-06
2.00722e-06
1.9568e-06
1.90703e-06
1.85789e-06
1.8094e-06
1.76156e-06
1.71443e-06
1.66806e-06
1.62252e-06
1.57797e-06
1.53461e-06
1.49272e-06
1.45273e-06
1.41523e-06
1.38093e-06
1.35069e-06
1.32531e-06
1.30533e-06
1.29075e-06
1.28095e-06
1.27482e-06
1.27111e-06
1.26875e-06
1.26706e-06
1.26571e-06
1.26457e-06
2.2548e-06
2.20159e-06
2.14907e-06
2.09723e-06
2.04605e-06
1.99552e-06
1.94563e-06
1.89637e-06
1.84774e-06
1.79976e-06
1.75244e-06
1.70583e-06
1.65997e-06
1.61498e-06
1.57098e-06
1.52819e-06
1.4869e-06
1.44756e-06
1.41074e-06
1.37717e-06
1.34767e-06
1.32302e-06
1.30369e-06
1.28963e-06
1.28021e-06
1.27431e-06
1.27073e-06
1.26843e-06
1.26677e-06
1.26544e-06
1.26432e-06
2.23945e-06
2.18685e-06
2.13492e-06
2.08367e-06
2.03306e-06
1.9831e-06
1.93377e-06
1.88507e-06
1.837e-06
1.78957e-06
1.74281e-06
1.69676e-06
1.65147e-06
1.60705e-06
1.56365e-06
1.52147e-06
1.48084e-06
1.44219e-06
1.40609e-06
1.37329e-06
1.34457e-06
1.32067e-06
1.30202e-06
1.28852e-06
1.27948e-06
1.27383e-06
1.27037e-06
1.26815e-06
1.26653e-06
1.26522e-06
1.26412e-06
2.23945e-06
2.18684e-06
2.13492e-06
2.08366e-06
2.03306e-06
1.9831e-06
1.93377e-06
1.88507e-06
1.837e-06
1.78957e-06
1.74281e-06
1.69676e-06
1.65147e-06
1.60705e-06
1.56365e-06
1.52147e-06
1.48084e-06
1.44219e-06
1.40609e-06
1.37329e-06
1.34457e-06
1.32067e-06
1.30202e-06
1.28852e-06
1.27948e-06
1.27383e-06
1.27037e-06
1.26815e-06
1.26653e-06
1.26522e-06
1.26412e-06
2.2548e-06
2.20159e-06
2.14907e-06
2.09723e-06
2.04605e-06
1.99552e-06
1.94563e-06
1.89637e-06
1.84774e-06
1.79976e-06
1.75244e-06
1.70583e-06
1.65997e-06
1.61498e-06
1.57098e-06
1.52819e-06
1.48691e-06
1.44756e-06
1.41074e-06
1.37717e-06
1.34767e-06
1.32302e-06
1.30369e-06
1.28963e-06
1.28021e-06
1.27431e-06
1.27073e-06
1.26843e-06
1.26677e-06
1.26544e-06
1.26432e-06
2.26918e-06
2.21542e-06
2.16236e-06
2.10998e-06
2.05827e-06
2.00722e-06
1.95681e-06
1.90703e-06
1.85789e-06
1.8094e-06
1.76157e-06
1.71444e-06
1.66806e-06
1.62253e-06
1.57797e-06
1.53461e-06
1.49272e-06
1.45273e-06
1.41523e-06
1.38093e-06
1.35069e-06
1.32531e-06
1.30533e-06
1.29075e-06
1.28095e-06
1.27482e-06
1.27111e-06
1.26875e-06
1.26706e-06
1.2657e-06
1.26457e-06
2.28284e-06
2.22857e-06
2.17499e-06
2.12211e-06
2.0699e-06
2.01835e-06
1.96744e-06
1.91718e-06
1.86755e-06
1.81857e-06
1.77026e-06
1.72264e-06
1.67576e-06
1.62972e-06
1.58465e-06
1.54074e-06
1.49828e-06
1.45769e-06
1.41954e-06
1.38456e-06
1.35361e-06
1.32754e-06
1.30693e-06
1.29184e-06
1.28167e-06
1.27531e-06
1.27147e-06
1.26906e-06
1.26733e-06
1.26596e-06
1.26481e-06
2.29572e-06
2.24095e-06
2.1869e-06
2.13354e-06
2.08085e-06
2.02883e-06
1.97747e-06
1.92674e-06
1.87666e-06
1.82723e-06
1.77846e-06
1.73037e-06
1.68304e-06
1.63652e-06
1.59096e-06
1.54654e-06
1.50355e-06
1.46239e-06
1.42363e-06
1.38801e-06
1.3564e-06
1.32968e-06
1.30847e-06
1.29289e-06
1.28237e-06
1.27579e-06
1.27182e-06
1.26935e-06
1.26759e-06
1.2662e-06
1.26504e-06
2.30773e-06
2.2525e-06
2.198e-06
2.14419e-06
2.09107e-06
2.03862e-06
1.98682e-06
1.93567e-06
1.88516e-06
1.83531e-06
1.78611e-06
1.7376e-06
1.68983e-06
1.64287e-06
1.59686e-06
1.55197e-06
1.50848e-06
1.4668e-06
1.42748e-06
1.39126e-06
1.35904e-06
1.3317e-06
1.30993e-06
1.29389e-06
1.28303e-06
1.27623e-06
1.27215e-06
1.26962e-06
1.26783e-06
1.26643e-06
1.26525e-06
2.31878e-06
2.26314e-06
2.20822e-06
2.154e-06
2.10048e-06
2.04762e-06
1.99543e-06
1.94389e-06
1.89299e-06
1.84274e-06
1.79316e-06
1.74426e-06
1.69609e-06
1.64873e-06
1.6023e-06
1.55698e-06
1.51304e-06
1.47088e-06
1.43104e-06
1.39428e-06
1.36149e-06
1.33359e-06
1.3113e-06
1.29482e-06
1.28364e-06
1.27664e-06
1.27245e-06
1.26986e-06
1.26806e-06
1.26663e-06
1.26545e-06
2.32881e-06
2.27278e-06
2.21748e-06
2.1629e-06
2.10901e-06
2.05579e-06
2.00324e-06
1.95135e-06
1.90009e-06
1.84949e-06
1.79955e-06
1.7503e-06
1.70177e-06
1.65405e-06
1.60724e-06
1.56153e-06
1.51719e-06
1.47459e-06
1.43429e-06
1.39704e-06
1.36373e-06
1.33532e-06
1.31255e-06
1.29567e-06
1.2842e-06
1.27702e-06
1.27273e-06
1.27009e-06
1.26826e-06
1.26682e-06
1.26562e-06
2.33774e-06
2.28137e-06
2.22574e-06
2.17083e-06
2.11661e-06
2.06307e-06
2.0102e-06
1.95799e-06
1.90642e-06
1.85551e-06
1.80525e-06
1.75568e-06
1.70683e-06
1.65879e-06
1.61165e-06
1.5656e-06
1.52089e-06
1.4779e-06
1.4372e-06
1.39951e-06
1.36574e-06
1.33688e-06
1.31369e-06
1.29645e-06
1.28471e-06
1.27736e-06
1.27297e-06
1.27029e-06
1.26843e-06
1.26698e-06
1.26578e-06
2.34551e-06
2.28885e-06
2.23293e-06
2.17772e-06
2.12322e-06
2.06941e-06
2.01626e-06
1.96377e-06
1.91193e-06
1.86074e-06
1.81021e-06
1.76037e-06
1.71124e-06
1.66291e-06
1.61549e-06
1.56914e-06
1.52411e-06
1.4808e-06
1.43974e-06
1.40167e-06
1.36751e-06
1.33824e-06
1.31468e-06
1.29713e-06
1.28515e-06
1.27765e-06
1.27319e-06
1.27046e-06
1.26859e-06
1.26713e-06
1.26591e-06
2.35207e-06
2.29516e-06
2.23899e-06
2.18354e-06
2.1288e-06
2.07475e-06
2.02137e-06
1.96864e-06
1.91657e-06
1.86515e-06
1.8144e-06
1.76432e-06
1.71496e-06
1.6664e-06
1.61873e-06
1.57213e-06
1.52684e-06
1.48325e-06
1.44189e-06
1.4035e-06
1.36901e-06
1.3394e-06
1.31553e-06
1.2977e-06
1.28553e-06
1.2779e-06
1.27337e-06
1.27061e-06
1.26872e-06
1.26725e-06
1.26603e-06
2.35737e-06
2.30025e-06
2.24389e-06
2.18825e-06
2.13331e-06
2.07907e-06
2.02549e-06
1.97258e-06
1.92033e-06
1.86872e-06
1.81778e-06
1.76752e-06
1.71797e-06
1.66922e-06
1.62135e-06
1.57455e-06
1.52905e-06
1.48523e-06
1.44363e-06
1.40499e-06
1.37023e-06
1.34035e-06
1.31621e-06
1.29818e-06
1.28584e-06
1.27811e-06
1.27352e-06
1.27073e-06
1.26882e-06
1.26734e-06
1.26612e-06
2.36137e-06
2.3041e-06
2.24759e-06
2.1918e-06
2.13672e-06
2.08233e-06
2.02862e-06
1.97556e-06
1.92317e-06
1.87142e-06
1.82034e-06
1.76993e-06
1.72025e-06
1.67135e-06
1.62334e-06
1.57638e-06
1.53072e-06
1.48673e-06
1.44495e-06
1.40612e-06
1.37115e-06
1.34107e-06
1.31674e-06
1.29853e-06
1.28608e-06
1.27826e-06
1.27363e-06
1.27082e-06
1.2689e-06
1.26742e-06
1.26619e-06
2.36405e-06
2.30669e-06
2.25007e-06
2.19418e-06
2.13901e-06
2.08452e-06
2.03071e-06
1.97756e-06
1.92507e-06
1.87323e-06
1.82205e-06
1.77155e-06
1.72177e-06
1.67278e-06
1.62467e-06
1.5776e-06
1.53184e-06
1.48774e-06
1.44584e-06
1.40687e-06
1.37177e-06
1.34155e-06
1.31709e-06
1.29878e-06
1.28624e-06
1.27837e-06
1.2737e-06
1.27088e-06
1.26896e-06
1.26747e-06
1.26624e-06
2.3654e-06
2.30798e-06
2.25132e-06
2.19538e-06
2.14015e-06
2.08562e-06
2.03176e-06
1.97856e-06
1.92602e-06
1.87414e-06
1.82291e-06
1.77237e-06
1.72254e-06
1.67349e-06
1.62533e-06
1.57822e-06
1.5324e-06
1.48824e-06
1.44628e-06
1.40725e-06
1.37208e-06
1.34179e-06
1.31727e-06
1.2989e-06
1.28632e-06
1.27842e-06
1.27374e-06
1.27091e-06
1.26899e-06
1.26749e-06
1.26626e-06
2.3654e-06
2.30798e-06
2.25132e-06
2.19538e-06
2.14015e-06
2.08562e-06
2.03176e-06
1.97856e-06
1.92602e-06
1.87414e-06
1.82291e-06
1.77237e-06
1.72254e-06
1.67349e-06
1.62533e-06
1.57822e-06
1.5324e-06
1.48824e-06
1.44628e-06
1.40725e-06
1.37208e-06
1.34179e-06
1.31727e-06
1.2989e-06
1.28632e-06
1.27842e-06
1.27374e-06
1.27091e-06
1.26899e-06
1.26749e-06
1.26626e-06
2.36406e-06
2.30669e-06
2.25007e-06
2.19418e-06
2.13901e-06
2.08452e-06
2.03071e-06
1.97756e-06
1.92507e-06
1.87323e-06
1.82205e-06
1.77155e-06
1.72177e-06
1.67278e-06
1.62467e-06
1.5776e-06
1.53184e-06
1.48774e-06
1.44584e-06
1.40687e-06
1.37177e-06
1.34155e-06
1.31709e-06
1.29878e-06
1.28624e-06
1.27837e-06
1.2737e-06
1.27088e-06
1.26896e-06
1.26747e-06
1.26624e-06
)
;

boundaryField
{
    inlet
    {
        type            cyclic;
    }
    outlet
    {
        type            cyclic;
    }
    wall
    {
        type            calculated;
        value           nonuniform List<scalar> 
57
(
1.26362e-06
1.26382e-06
1.26406e-06
1.2643e-06
1.26452e-06
1.26472e-06
1.26491e-06
1.26508e-06
1.26523e-06
1.26536e-06
1.26362e-06
1.26382e-06
1.26406e-06
1.26429e-06
1.26452e-06
1.26472e-06
1.26491e-06
1.26508e-06
1.26523e-06
1.26536e-06
1.26547e-06
1.26556e-06
1.26563e-06
1.26568e-06
1.2657e-06
1.2657e-06
1.26568e-06
1.26563e-06
1.26556e-06
1.26547e-06
1.26536e-06
1.26523e-06
1.26508e-06
1.26491e-06
1.26472e-06
1.26452e-06
1.2643e-06
1.26406e-06
1.26382e-06
1.26362e-06
1.26362e-06
1.26382e-06
1.26406e-06
1.26429e-06
1.26452e-06
1.26472e-06
1.26491e-06
1.26508e-06
1.26523e-06
1.26536e-06
1.26547e-06
1.26556e-06
1.26563e-06
1.26567e-06
1.2657e-06
1.2657e-06
1.26567e-06
)
;
    }
    procBoundary0to1
    {
        type            processor;
        value           nonuniform List<scalar> 
59
(
2.36336e-06
2.37886e-06
2.3936e-06
2.40748e-06
2.42042e-06
2.43234e-06
2.44315e-06
2.45277e-06
2.46114e-06
2.29276e-06
2.29276e-06
2.29276e-06
2.30872e-06
2.32365e-06
2.33785e-06
2.35123e-06
2.3637e-06
2.37518e-06
2.38559e-06
2.39486e-06
2.40294e-06
2.40975e-06
2.41525e-06
2.41941e-06
2.4222e-06
2.4236e-06
2.4236e-06
2.4222e-06
2.41941e-06
2.41525e-06
2.40974e-06
2.40294e-06
2.39487e-06
2.38559e-06
2.37518e-06
2.36369e-06
2.35122e-06
2.33785e-06
2.32365e-06
2.30872e-06
2.29276e-06
2.29276e-06
2.30871e-06
2.32365e-06
2.33785e-06
2.35123e-06
2.3637e-06
2.37518e-06
2.38559e-06
2.39486e-06
2.40294e-06
2.40975e-06
2.41525e-06
2.41941e-06
2.4222e-06
2.4236e-06
2.4236e-06
2.4222e-06
2.36137e-06
)
;
    }
    procBoundary0to2
    {
        type            processor;
        value           nonuniform List<scalar> 
30
(
2.30411e-06
2.24759e-06
2.1918e-06
2.13672e-06
2.08233e-06
2.02862e-06
1.97556e-06
1.92316e-06
1.87142e-06
1.82034e-06
1.76993e-06
1.72025e-06
1.67135e-06
1.62333e-06
1.57637e-06
1.53072e-06
1.48673e-06
1.44495e-06
1.40612e-06
1.37115e-06
1.34107e-06
1.31674e-06
1.29853e-06
1.28608e-06
1.27826e-06
1.27363e-06
1.27082e-06
1.2689e-06
1.26742e-06
1.26619e-06
)
;
    }
    procBoundary0to3
    {
        type            processor;
        value           nonuniform List<scalar> 
32
(
2.40974e-06
2.35206e-06
2.29515e-06
2.23898e-06
2.18354e-06
2.1288e-06
2.07474e-06
2.02136e-06
1.96864e-06
1.91657e-06
1.86515e-06
1.81439e-06
1.76432e-06
1.71496e-06
1.6664e-06
1.61873e-06
1.57212e-06
1.52684e-06
1.48325e-06
1.44189e-06
1.4035e-06
1.36901e-06
1.33941e-06
1.31553e-06
1.29771e-06
1.28553e-06
1.27791e-06
1.27337e-06
1.27061e-06
1.26872e-06
1.26725e-06
1.26603e-06
)
;
    }
}


// ************************************************************************* //
