/*--------------------------------*- C++ -*----------------------------------*\
  =========                 |
  \\      /  F ield         | OpenFOAM: The Open Source CFD Toolbox
   \\    /   O peration     | Website:  https://openfoam.org
    \\  /    A nd           | Version:  7
     \\/     M anipulation  |
\*---------------------------------------------------------------------------*/
FoamFile
{
    version     2.0;
    format      ascii;
    class       surfaceScalarField;
    location    "140000";
    object      phi;
}
// * * * * * * * * * * * * * * * * * * * * * * * * * * * * * * * * * * * * * //

dimensions      [0 3 -1 0 0 0 0];

internalField   nonuniform List<scalar> 
9375
(
-9.9054e-24
8.20448e-23
-1.44586e-23
1.12914e-22
-1.55277e-23
1.11446e-22
-4.43493e-24
9.44909e-23
-7.24895e-24
-5.47498e-23
7.8298e-23
-8.49308e-24
2.17381e-22
-9.16772e-24
6.8314e-23
-7.79363e-24
8.76424e-23
-1.45838e-23
1.50381e-22
-1.33826e-23
1.09059e-22
-3.68379e-24
1.32067e-22
-6.54727e-24
8.12754e-23
-1.90385e-23
-5.84821e-24
-1.50837e-23
3.50688e-23
-8.05432e-24
1.44239e-22
-1.49886e-23
1.5506e-22
-1.46569e-23
1.59134e-22
-6.96674e-24
6.25944e-23
-5.18877e-24
6.28942e-24
-1.74705e-23
1.00638e-22
-1.12392e-23
9.7268e-23
-5.47959e-24
5.99395e-23
-1.72898e-23
1.3246e-22
-1.07306e-23
6.31016e-23
-1.32641e-23
2.07598e-23
-2.25122e-23
6.47027e-23
-2.0493e-23
2.85437e-25
-1.47853e-23
-4.75739e-23
-2.06127e-23
9.94615e-23
-1.70333e-23
3.70925e-23
-1.30294e-23
1.56826e-22
-7.86036e-24
-1.23031e-23
-1.09601e-23
6.80073e-23
4.28485e-23
-9.82995e-24
2.00807e-22
-7.83117e-24
8.13858e-23
-7.75614e-24
7.78146e-23
-1.48726e-23
2.01194e-22
-1.23212e-23
9.40255e-23
-4.20585e-24
2.14466e-22
-7.32373e-24
1.66043e-22
-1.7574e-23
-5.80865e-24
-1.35274e-23
-6.46212e-24
-7.90534e-24
1.73107e-22
-1.45361e-23
1.4072e-22
-1.6677e-23
1.19105e-22
-7.48687e-24
6.70594e-23
-2.64203e-24
7.01708e-23
-1.80321e-23
5.10816e-23
-1.07075e-23
8.4636e-23
-5.1767e-24
5.52368e-23
-1.69655e-23
1.3437e-22
-1.10985e-23
8.81014e-23
-1.33402e-23
1.20054e-23
-2.35061e-23
1.29866e-23
-2.08247e-23
-3.27746e-23
-1.33075e-23
-5.51651e-23
-2.11552e-23
3.52774e-23
-1.57276e-23
1.078e-22
-1.52981e-23
1.14405e-22
-7.22076e-24
2.99186e-24
-1.10571e-23
-2.36263e-24
-1.10347e-24
3.30194e-23
-1.19269e-25
-4.65439e-24
-7.92905e-24
-7.08641e-24
1.56875e-24
-4.52522e-24
3.87857e-23
-9.85138e-24
1.83982e-22
-6.87861e-24
8.98629e-23
-5.79012e-24
9.06071e-23
-1.54652e-23
2.12117e-22
-1.02916e-23
7.96333e-23
-3.87487e-24
1.73735e-22
-1.06975e-23
1.85312e-22
-1.68893e-23
7.8112e-23
-1.06929e-23
9.7838e-23
-8.99915e-24
1.30947e-22
-1.45097e-23
1.40762e-22
-1.7498e-23
1.27517e-22
-7.41261e-24
7.11621e-23
-2.09517e-24
8.21766e-23
-1.77077e-23
7.13541e-26
-1.01072e-23
6.04686e-23
-5.06543e-24
6.7883e-23
-1.67095e-23
1.59559e-22
-1.1856e-23
7.52874e-23
-1.40462e-23
9.06829e-24
-2.42111e-23
-6.36935e-23
-2.08069e-23
-3.02366e-23
-1.2541e-23
-5.65674e-23
-1.91766e-23
5.11935e-23
-1.68273e-23
7.26526e-23
-1.56181e-23
1.58073e-22
-8.29676e-24
2.22217e-23
-9.82225e-24
5.19184e-23
-9.26085e-25
1.09278e-22
-3.13577e-25
-4.49521e-23
-7.08516e-24
-7.41432e-24
1.69622e-24
8.34777e-24
1.23952e-24
6.39203e-23
4.67025e-24
-8.46793e-23
-1.04169e-25
-1.71456e-23
-5.59889e-24
-9.32569e-23
1.45999e-24
4.62614e-23
-5.27904e-24
4.92942e-23
-1.50511e-23
5.10156e-23
-1.3338e-23
2.6197e-23
-1.08511e-23
9.43158e-23
-8.38132e-24
1.34554e-22
-8.64635e-24
4.01714e-23
-1.3418e-23
-2.42765e-23
-8.95726e-24
-1.04138e-23
1.60856e-22
-6.10885e-24
6.80482e-23
-4.38348e-24
8.34134e-23
-1.58184e-23
2.29682e-22
-9.29834e-24
2.03878e-22
-2.34815e-24
1.66944e-22
-1.18018e-23
1.89065e-22
-1.63497e-23
1.5828e-22
-9.85067e-24
8.42733e-23
-8.76008e-24
2.01515e-22
-1.52125e-23
2.23753e-22
-1.7691e-23
9.22769e-23
-7.30415e-24
7.14819e-23
-2.25815e-24
1.17349e-22
-1.69924e-23
-6.13419e-23
-9.11642e-24
7.20123e-23
-4.45121e-24
1.36911e-22
-1.73691e-23
1.65399e-22
-1.21815e-23
1.4048e-22
-1.59572e-23
6.32717e-24
-2.35379e-23
-6.144e-23
-2.11393e-23
-3.23059e-23
-1.07814e-23
3.58331e-23
-1.85652e-23
7.34733e-23
-1.65226e-23
7.28778e-23
-1.63065e-23
2.00574e-22
-8.74769e-24
3.09573e-23
-8.3865e-24
3.26671e-23
-2.88891e-24
3.03782e-23
6.1621e-25
3.08843e-23
-6.65761e-24
-3.65179e-23
1.53658e-24
5.87965e-23
3.45362e-25
2.81931e-23
4.54601e-24
-6.01851e-23
-2.5305e-25
-1.11955e-23
-4.29728e-24
-8.78735e-23
2.61757e-24
1.98901e-23
-6.07159e-24
5.43915e-23
-1.34276e-23
2.68908e-23
-1.31709e-23
3.6748e-23
-1.05108e-23
8.83976e-23
-8.99641e-24
8.37421e-23
-1.13755e-23
4.47305e-23
-1.22946e-23
1.04527e-22
-2.28498e-23
-9.43295e-24
1.57996e-22
-5.29776e-24
1.41145e-22
-3.41865e-24
7.81366e-23
-1.45727e-23
2.72485e-22
-1.13293e-23
1.96224e-22
-2.36051e-24
2.00002e-22
-1.09611e-23
1.80853e-22
-1.76241e-23
1.57991e-22
-9.17495e-24
5.44232e-23
-8.23211e-24
1.90701e-22
-1.62079e-23
1.53371e-22
-1.65027e-23
1.28285e-22
-8.06336e-24
1.01237e-22
-3.17109e-24
1.99961e-22
-1.53691e-23
-4.28666e-23
-7.45947e-24
7.47699e-23
-4.62445e-24
8.54937e-23
-1.70586e-23
1.18605e-22
-1.37825e-23
1.23521e-22
-1.74076e-23
2.94404e-24
-2.32802e-23
-6.41859e-23
-1.99554e-23
-3.4539e-23
-1.00981e-23
4.04703e-23
-1.83721e-23
-3.56304e-23
-1.54176e-23
7.18745e-23
-1.70127e-23
1.79519e-22
-9.85765e-24
-5.01708e-23
-7.8469e-24
7.86684e-23
-3.34898e-24
2.69632e-23
-3.26041e-25
2.24634e-23
-4.4178e-24
-3.70246e-23
2.67392e-26
-2.76384e-24
9.08962e-25
2.28147e-23
5.28237e-24
-5.65339e-23
-1.3985e-25
1.87245e-23
-2.24994e-24
-9.22131e-23
3.51826e-24
-4.5719e-24
-7.32687e-24
3.11263e-23
-1.13903e-23
2.95228e-23
-1.25856e-23
5.05181e-23
-1.00718e-23
1.18828e-22
-9.7117e-24
4.47596e-23
-1.04756e-23
8.26026e-23
-1.38618e-23
1.04189e-22
-1.63628e-23
-9.82541e-24
1.52235e-22
-4.4507e-24
1.46309e-22
-1.96875e-24
7.86752e-23
-1.3484e-23
1.96641e-22
-1.0204e-23
1.51497e-22
-2.43791e-24
1.11156e-22
-1.09004e-23
1.97671e-22
-1.78468e-23
1.56163e-22
-7.04003e-24
2.56369e-23
-9.1897e-24
1.58462e-22
-1.58151e-23
1.65363e-22
-1.66259e-23
9.9447e-23
-7.04977e-24
9.44996e-23
-4.99934e-24
1.79041e-22
-1.43118e-23
-3.41295e-23
-5.91209e-24
1.04246e-22
-5.03648e-24
7.21704e-23
-1.66032e-23
7.73258e-23
-1.51367e-23
1.11553e-22
-1.84115e-23
-2.76232e-23
-2.30753e-23
-6.30611e-23
-1.88409e-23
-5.66187e-24
-1.10212e-23
7.97415e-23
-1.67167e-23
-4.04771e-23
-1.45954e-23
7.31485e-23
-1.85808e-23
1.05901e-22
-9.94994e-24
-4.45742e-23
-7.30453e-24
7.89097e-23
-2.83372e-24
2.60743e-23
-1.1887e-24
1.87102e-23
-4.33173e-24
5.83716e-25
-2.75571e-25
-2.69241e-23
5.67305e-25
2.24432e-23
5.76701e-24
-7.36182e-23
-7.53923e-25
2.71055e-23
-3.27111e-24
-1.69384e-23
4.07351e-24
6.28236e-23
-7.20133e-24
2.31095e-23
-1.04298e-23
2.85553e-23
-1.17204e-23
5.39039e-23
-1.02485e-23
1.10363e-22
-9.75553e-24
3.73122e-23
-1.12656e-23
8.34814e-23
-1.40773e-23
1.07163e-22
-4.61703e-23
-8.14082e-24
1.15857e-22
-3.16987e-24
1.58538e-22
-1.75978e-24
8.10297e-23
-1.29017e-23
1.73123e-22
-1.06799e-23
1.9105e-22
-1.66512e-24
2.13603e-22
-1.16294e-23
2.2416e-22
-1.84352e-23
1.59832e-22
-6.06859e-24
9.23813e-23
-9.01258e-24
1.58704e-22
-1.63001e-23
1.33758e-22
-1.57966e-23
1.25218e-22
-6.70423e-24
8.72417e-23
-6.08186e-24
1.82059e-22
-1.33975e-23
2.05345e-23
-5.38416e-24
1.10929e-22
-5.72882e-24
1.8776e-23
-1.57945e-23
6.10058e-23
-1.66314e-23
6.68987e-23
-1.88401e-23
-2.62219e-23
-2.24025e-23
-5.12265e-23
-1.81539e-23
6.75856e-23
-1.2579e-23
1.15491e-22
-1.47814e-23
-2.89212e-23
-1.49732e-23
4.4162e-23
-1.8902e-23
3.68431e-23
-9.71487e-24
-3.79261e-23
-6.14857e-24
1.09758e-22
-3.69114e-24
-8.49808e-24
-7.66381e-25
9.03764e-23
-4.28649e-24
7.44407e-24
-5.7258e-26
-1.84781e-24
-1.11549e-25
1.97655e-23
6.90295e-24
-3.59149e-23
2.50327e-27
8.50114e-24
-2.2078e-24
-3.32362e-23
3.30907e-24
8.71564e-23
-6.5007e-24
2.21942e-23
-1.13259e-23
3.35256e-23
-1.14449e-23
1.2919e-22
-1.04043e-23
1.36303e-22
-9.69512e-24
2.69901e-23
-1.15664e-23
7.95702e-23
-1.5131e-23
1.05239e-22
-1.01655e-22
-7.91123e-24
1.66347e-22
-2.46445e-24
1.93956e-22
-2.09578e-24
8.81593e-23
-1.16678e-23
1.42361e-22
-9.40109e-24
1.95369e-22
-9.07058e-25
1.9391e-22
-1.20049e-23
1.48152e-22
-1.88993e-23
1.98346e-22
-5.62791e-24
2.05352e-22
-9.2752e-24
1.62163e-22
-1.63499e-23
1.79856e-22
-1.54107e-23
1.25659e-22
-5.84538e-24
5.94453e-23
-6.44477e-24
1.90279e-22
-1.32331e-23
3.50957e-23
-5.89984e-24
8.5409e-23
-5.53952e-24
6.11056e-24
-1.5655e-23
6.20135e-23
-1.71228e-23
5.19689e-23
-1.93202e-23
-3.31877e-23
-2.09653e-23
-6.38582e-23
-1.78334e-23
8.13965e-23
-1.39897e-23
1.23466e-22
-1.32617e-23
6.63292e-23
-1.60538e-23
5.18053e-23
-1.83111e-23
5.15578e-23
-9.67528e-24
4.64501e-24
-6.6505e-24
9.76297e-23
-2.29393e-24
6.87582e-24
-1.42165e-24
4.03097e-23
-3.98686e-24
1.20947e-23
-5.81183e-25
9.82156e-24
2.47533e-25
-2.71725e-23
6.87694e-24
-1.11169e-23
-2.97341e-25
-1.50918e-23
-9.20812e-25
8.7726e-24
3.72884e-24
4.9489e-23
-6.35504e-24
2.61086e-23
-9.33408e-24
3.58787e-23
-1.20043e-23
5.37845e-23
-1.08241e-23
1.26986e-22
-9.4563e-24
1.04433e-22
-1.11857e-23
8.18182e-23
-1.56633e-23
1.83802e-23
-8.8679e-23
-7.11506e-24
2.33304e-22
-1.70581e-24
1.93718e-22
-1.6438e-24
9.58008e-23
-1.01816e-23
1.51137e-22
-8.96922e-24
1.22436e-22
-9.38234e-25
1.71278e-22
-1.10385e-23
1.29381e-22
-1.84616e-23
1.97427e-22
-7.18842e-24
1.91638e-22
-9.23605e-24
1.6274e-22
-1.64908e-23
1.55228e-22
-1.59226e-23
7.81157e-23
-4.48754e-24
1.66599e-22
-6.90087e-24
1.49928e-22
-1.32799e-23
1.42263e-23
-5.84615e-24
9.17856e-23
-4.95878e-24
3.29304e-23
-1.59241e-23
5.02599e-23
-1.77714e-23
4.00894e-23
-1.9651e-23
-3.30242e-23
-1.8958e-23
2.82578e-24
-1.77485e-23
8.23516e-23
-1.45103e-23
1.36285e-22
-1.31702e-23
8.17273e-23
-1.73082e-23
-1.8341e-23
-1.73094e-23
9.23601e-23
-9.86292e-24
5.39099e-24
-6.27376e-24
8.17331e-23
-1.9954e-24
5.29314e-23
-1.13571e-24
-1.5607e-23
-3.52926e-24
1.70403e-23
-1.87334e-24
-3.3218e-23
1.87681e-24
-9.64032e-24
5.80541e-24
-4.42247e-23
1.34829e-24
4.95967e-23
-1.07471e-24
-2.60531e-23
3.21923e-24
8.97446e-23
-5.74019e-24
-8.15117e-24
-8.89938e-24
3.81756e-23
-1.23388e-23
2.80003e-23
-1.1172e-23
1.1848e-22
-9.17302e-24
3.79402e-23
-1.15981e-23
3.21235e-23
-1.63561e-23
-7.22925e-23
-7.95364e-23
-6.59854e-24
2.26129e-22
-1.3583e-24
1.85483e-22
-1.27425e-24
1.33093e-22
-1.12538e-23
1.53671e-22
-8.0007e-24
1.26268e-22
-4.5375e-25
1.92437e-22
-1.16306e-23
9.92629e-23
-1.73659e-23
1.51669e-22
-7.8704e-24
1.90132e-22
-9.42748e-24
1.63739e-22
-1.69825e-23
1.61486e-22
-1.47365e-23
1.94789e-23
-4.53967e-24
2.34582e-22
-7.74555e-24
1.08635e-22
-1.31156e-23
6.51356e-23
-6.00421e-24
1.05106e-22
-4.82959e-24
1.86076e-23
-1.59274e-23
4.2462e-23
-1.82685e-23
1.62421e-23
-1.90871e-23
-3.82136e-23
-1.7956e-23
-1.31789e-23
-1.76532e-23
8.42369e-23
-1.44399e-23
1.82796e-22
-1.41862e-23
2.55596e-23
-1.71385e-23
-2.80482e-24
-1.71301e-23
1.05301e-22
-9.66884e-24
1.16954e-23
-5.36232e-24
6.93465e-23
-2.34633e-24
2.96764e-23
-1.27672e-24
-5.45315e-23
-3.15664e-24
2.19961e-23
-1.92503e-24
-8.00304e-23
1.46364e-24
-3.03826e-23
8.14104e-24
-4.05217e-23
9.73615e-25
-5.17343e-23
2.86221e-25
-2.75928e-23
2.58817e-24
9.11601e-23
-5.037e-24
-4.22452e-23
-8.32535e-24
-4.02514e-23
-1.16175e-23
-5.6952e-24
-9.99968e-24
1.4563e-22
-1.01011e-23
2.16904e-23
-1.26772e-23
2.42119e-23
-1.57026e-23
-8.17649e-24
-6.36179e-23
-6.49164e-24
2.41595e-22
-1.62055e-24
1.90635e-22
-4.30137e-25
1.2832e-22
-1.15159e-23
1.19039e-22
-6.22113e-24
1.26289e-22
-5.5983e-25
1.86555e-22
-1.20761e-23
9.72207e-23
-1.59267e-23
1.67862e-22
-8.9207e-24
1.45649e-22
-9.60638e-24
1.68445e-22
-1.78027e-23
1.62404e-22
-1.1897e-23
8.22617e-23
-5.56903e-24
2.27072e-22
-7.47179e-24
1.02982e-22
-1.33598e-23
5.14476e-23
-6.18167e-24
1.10784e-22
-4.44102e-24
7.97636e-23
-1.63566e-23
-3.31345e-25
-1.84292e-23
3.2474e-23
-1.86171e-23
-3.02275e-24
-1.68789e-23
1.70271e-23
-1.66928e-23
8.28749e-23
-1.63071e-23
1.99582e-22
-1.38276e-23
3.71626e-23
-1.70739e-23
-1.85086e-23
-1.70419e-23
1.12678e-22
-1.04024e-23
4.22687e-23
-4.70652e-24
1.42367e-22
-3.4716e-24
2.92121e-23
-5.30509e-25
-2.69691e-23
-3.49925e-24
2.92642e-23
-1.525e-24
-7.64637e-24
1.3061e-24
-4.97934e-24
8.44704e-24
4.77783e-24
2.17776e-24
-5.71483e-23
1.08321e-24
-2.80579e-23
1.62473e-24
5.42152e-23
-4.17501e-24
-4.20945e-23
-8.96167e-24
-1.6575e-23
-1.00181e-23
-4.59723e-23
-1.02958e-23
1.40927e-22
-1.06429e-23
2.08691e-23
-1.23372e-23
3.84977e-23
-1.51126e-23
-1.39654e-23
-6.08439e-23
-6.87787e-24
2.11193e-22
-1.44652e-24
2.57374e-22
-2.78897e-26
1.31898e-22
-1.0895e-23
1.25635e-22
-5.44636e-24
1.19472e-22
1.53385e-25
1.79539e-22
-1.23218e-23
5.83486e-23
-1.54042e-23
1.93353e-22
-8.65414e-24
1.30426e-22
-1.01056e-23
1.74329e-22
-1.78621e-23
1.65079e-22
-1.06305e-23
1.24966e-22
-6.67293e-24
1.47517e-22
-7.65587e-24
9.96288e-23
-1.3356e-23
-1.63811e-23
-5.65412e-24
1.4547e-22
-5.46008e-24
6.15267e-23
-1.60872e-23
-4.83622e-24
-1.84731e-23
2.38111e-23
-1.83271e-23
-2.1328e-24
-1.59232e-23
8.99612e-23
-1.57388e-23
8.16078e-23
-1.81958e-23
1.23104e-22
-1.36883e-23
4.66149e-23
-1.61371e-23
3.65329e-23
-1.67573e-23
1.52527e-22
-9.69368e-24
7.87064e-23
-5.91588e-24
1.66007e-22
-3.25769e-24
2.12881e-23
-6.96103e-25
-3.15075e-23
-2.65554e-24
3.61851e-23
-1.89376e-24
2.43473e-24
7.54451e-25
1.1046e-24
8.48406e-24
3.55738e-23
3.15674e-24
-4.9429e-23
1.33467e-24
-3.04275e-23
2.63416e-24
5.40751e-23
-5.20079e-24
-3.43125e-23
-7.82741e-24
-8.31706e-23
-9.10071e-24
-2.85032e-23
-1.03635e-23
1.31436e-22
-1.14433e-23
1.33482e-23
-1.24338e-23
9.50678e-23
-1.56942e-23
-1.79791e-23
2.03513e-23
-8.48513e-24
4.70826e-23
-5.74458e-24
2.85684e-22
-2.24381e-24
1.42352e-22
1.17815e-24
1.28964e-22
-1.07758e-23
1.13227e-22
-4.86887e-24
1.78748e-22
1.24957e-25
2.58031e-22
-1.17457e-23
2.34897e-23
-1.50802e-23
1.92923e-22
-8.49552e-24
7.47536e-23
-9.5606e-24
1.00522e-22
-1.77659e-23
1.72483e-22
-1.07692e-23
1.22037e-22
-6.24939e-24
1.79781e-22
-8.54323e-24
1.19065e-22
-1.20105e-23
2.2878e-23
-5.89536e-24
1.65417e-22
-6.00426e-24
4.4218e-23
-1.57078e-23
2.66386e-23
-1.86326e-23
1.55708e-23
-1.71543e-23
-1.09421e-23
-1.58366e-23
3.7062e-23
-1.60067e-23
-5.02734e-24
-1.89172e-23
9.95286e-23
-1.32742e-23
5.15963e-23
-1.57361e-23
2.39202e-23
-1.66168e-23
7.66359e-23
-9.25076e-24
6.4832e-23
-7.19907e-24
1.17681e-22
-3.36084e-24
1.19571e-22
-5.83894e-25
-4.20357e-23
-2.05779e-24
4.44962e-23
-2.59911e-24
4.38955e-23
7.759e-25
-1.43968e-23
7.77029e-24
3.94477e-23
4.24528e-24
-1.04543e-22
2.60114e-24
-7.66899e-23
2.62499e-24
1.02619e-22
-5.81145e-24
-2.07022e-23
-7.04117e-24
-1.18779e-23
-8.96152e-24
-1.09356e-22
-1.02569e-23
1.24023e-22
-1.23454e-23
6.81794e-24
-1.2751e-23
1.78769e-22
-1.66187e-23
-1.46803e-23
2.23524e-23
-6.94383e-24
9.27296e-23
-6.5474e-24
2.60113e-22
-1.42207e-24
2.17026e-22
1.75153e-24
1.26574e-22
-1.02729e-23
1.24389e-22
-3.40626e-24
1.67532e-22
-2.03426e-24
2.56901e-22
-1.05925e-23
2.10591e-23
-1.50231e-23
2.00757e-22
-9.26704e-24
5.64494e-23
-8.56433e-24
1.07789e-22
-1.78866e-23
1.847e-22
-1.06184e-23
1.89504e-22
-5.9695e-24
1.77489e-22
-9.32974e-24
1.24199e-22
-1.09716e-23
2.64136e-23
-6.59839e-24
1.33439e-22
-5.75758e-24
1.18042e-22
-1.6024e-23
-6.30754e-23
-1.85187e-23
4.86445e-23
-1.63309e-23
6.081e-23
-1.61504e-23
9.71128e-23
-1.55325e-23
2.20436e-23
-1.91322e-23
8.09714e-23
-1.30866e-23
5.76e-23
-1.62905e-23
3.75302e-23
-1.55453e-23
1.17351e-22
-9.4039e-24
2.16967e-23
-6.42801e-24
1.04033e-22
-4.74068e-24
7.83261e-23
7.97004e-25
8.21847e-23
-2.66661e-24
5.19969e-23
-1.90425e-24
5.10271e-23
5.50749e-25
-1.94059e-23
7.14381e-24
4.53172e-23
4.72748e-24
-1.00487e-22
3.94367e-24
-3.98889e-23
2.27246e-24
4.18758e-23
-5.49866e-24
-9.03486e-23
-7.54092e-24
-7.06045e-23
-7.40618e-24
-9.05826e-23
-9.75885e-24
1.20167e-22
-1.07516e-23
-4.39052e-23
-1.37989e-23
1.55204e-22
-1.61928e-23
-1.05112e-23
2.98187e-23
-6.49696e-24
1.58349e-22
-6.32771e-24
2.58585e-22
-2.01642e-24
2.12315e-22
2.5693e-24
1.2049e-22
-9.60119e-24
7.1494e-23
-3.30185e-24
1.53285e-22
-2.47151e-24
2.54545e-22
-1.01182e-23
2.01221e-23
-1.57706e-23
1.34709e-22
-9.25019e-24
1.05884e-22
-7.76409e-24
1.57305e-22
-1.73799e-23
1.28871e-22
-1.10428e-23
1.69999e-22
-5.59805e-24
1.79283e-22
-9.88906e-24
1.00524e-22
-1.02898e-23
2.88542e-23
-6.2574e-24
9.0075e-23
-7.36326e-24
1.0893e-22
-1.5065e-23
-6.86707e-23
-1.82212e-23
4.97899e-23
-1.57354e-23
7.9017e-23
-1.67252e-23
5.61985e-23
-1.55893e-23
3.61544e-23
-1.88039e-23
8.4227e-23
-1.25349e-23
5.84644e-23
-1.67235e-23
7.85032e-23
-1.53984e-23
1.30908e-22
-8.77386e-24
1.39301e-23
-7.29547e-24
9.67038e-23
-3.54476e-24
7.08167e-23
3.81949e-26
1.19025e-22
-1.80591e-24
5.71704e-23
-2.11264e-24
9.75817e-23
5.9594e-25
4.3206e-23
6.51894e-24
4.61555e-23
5.34734e-24
-9.46113e-23
5.32892e-24
-4.09422e-24
2.02345e-24
3.77601e-23
-5.90792e-24
-7.87146e-23
-7.23335e-24
-6.28797e-23
-5.79147e-24
-9.10372e-23
-9.90896e-24
4.01202e-23
-1.04493e-23
-1.13513e-22
-1.36563e-23
1.46542e-22
-1.74685e-23
-3.88282e-23
7.60653e-23
-1.83422e-23
2.90611e-22
-5.54662e-24
1.44799e-22
-6.15887e-24
2.61262e-22
-2.48249e-24
2.08017e-22
2.94847e-24
1.12661e-22
-8.83508e-24
8.40109e-23
-1.23187e-24
1.39314e-22
-3.32246e-24
2.21617e-22
-9.84111e-24
2.00887e-23
-1.53076e-23
1.30528e-22
-9.48615e-24
9.48188e-23
-6.9819e-24
2.03192e-22
-1.61196e-23
1.79717e-22
-1.08312e-23
1.5275e-22
-5.22801e-24
1.77018e-22
-1.07823e-23
7.19937e-23
-1.00115e-23
2.79397e-23
-5.53594e-24
7.28619e-23
-8.92429e-24
1.08688e-22
-1.41209e-23
8.10613e-24
-1.75353e-23
7.67057e-23
-1.57725e-23
7.93298e-23
-1.6552e-23
2.80566e-23
-1.59876e-23
3.14971e-23
-1.87576e-23
8.39964e-23
-1.17565e-23
5.53218e-23
-1.67651e-23
8.77492e-24
-1.59791e-23
1.28634e-22
-8.10613e-24
5.10193e-23
-7.92032e-24
9.56152e-23
-3.15072e-24
1.24399e-22
-7.85376e-25
1.21347e-22
-1.56315e-24
2.79564e-23
-1.79827e-24
1.37608e-22
-3.56952e-25
4.21634e-23
6.10668e-24
1.05774e-22
6.18102e-24
-9.19906e-23
4.76092e-24
-4.89977e-24
1.9462e-24
2.81916e-23
-6.1036e-24
-6.9836e-23
-6.91148e-24
-5.58318e-23
-5.96344e-24
-8.98592e-23
-8.94049e-24
2.92211e-23
-9.202e-24
-1.05361e-22
-1.41885e-23
1.80394e-22
-1.70074e-23
-3.08768e-23
1.23948e-22
-1.83007e-23
2.8238e-22
-5.54113e-24
2.13293e-22
-6.2611e-24
2.63321e-22
-3.24306e-24
2.01175e-22
3.38608e-24
1.71832e-22
-8.29239e-24
3.07774e-23
-8.96993e-25
2.0163e-22
-3.04298e-24
2.23215e-22
-1.0041e-23
2.61727e-23
-1.4035e-23
1.31287e-22
-9.71245e-24
8.6134e-23
-6.29744e-24
2.47177e-22
-1.64462e-23
1.26377e-22
-1.09422e-23
1.42343e-22
-5.47932e-24
1.75174e-22
-1.14808e-23
4.06e-23
-9.73549e-24
8.84334e-23
-4.74753e-24
7.57192e-23
-9.08084e-24
1.03696e-22
-1.40982e-23
1.23421e-23
-1.69718e-23
7.56851e-23
-1.6242e-23
3.02788e-23
-1.60823e-23
3.20853e-23
-1.63229e-23
-1.6186e-23
-1.84935e-23
1.01516e-22
-1.20151e-23
4.85504e-23
-1.60875e-23
1.81448e-23
-1.6208e-23
5.72373e-23
-7.62746e-24
1.04671e-22
-7.23033e-24
9.33339e-23
-2.67012e-24
1.16197e-22
-9.47499e-25
1.25338e-22
-1.20317e-24
-3.49871e-23
-1.59915e-24
1.40381e-22
-1.22981e-24
4.88644e-23
5.44751e-24
1.03164e-22
6.57706e-24
-1.01541e-22
4.95737e-24
-4.57808e-23
2.28931e-24
2.07378e-23
-6.56857e-24
-5.82865e-23
-6.02027e-24
-5.22188e-23
-5.65734e-24
-8.63936e-23
-8.84011e-24
7.17879e-23
-7.71784e-24
-9.47558e-23
-1.41746e-23
1.67726e-22
-1.75813e-23
-5.83307e-23
1.47649e-22
-2.47509e-23
1.77086e-23
-1.84555e-23
1.75898e-22
-5.07453e-24
2.05379e-22
-6.08898e-24
2.66727e-22
-3.41396e-24
2.42423e-22
3.63828e-24
2.43945e-22
-7.02099e-24
3.90232e-23
-6.38749e-25
1.87981e-22
-4.53505e-24
1.86432e-22
-9.69345e-24
3.41966e-23
-1.38278e-23
1.36113e-22
-9.46526e-24
1.17435e-22
-6.52431e-24
2.63107e-22
-1.61662e-23
7.50164e-23
-1.04797e-23
1.51568e-22
-5.94759e-24
1.42715e-22
-1.14165e-23
4.85173e-23
-9.64742e-24
7.92925e-23
-4.29662e-24
1.26926e-22
-9.20015e-24
4.00145e-23
-1.41653e-23
-5.37909e-23
-1.67439e-23
7.90655e-23
-1.6212e-23
2.65914e-23
-1.61357e-23
4.09592e-23
-1.61036e-23
-2.29079e-23
-1.85684e-23
1.0635e-22
-1.16035e-23
1.02244e-22
-1.64902e-23
2.42169e-23
-1.53532e-23
5.64491e-23
-7.59108e-24
9.7828e-23
-6.61395e-24
9.46991e-23
-3.15072e-24
1.08888e-22
-1.14368e-24
1.43948e-22
-3.52918e-25
-8.56923e-24
-9.35537e-25
9.5621e-23
-1.17056e-24
5.60857e-23
4.77551e-24
1.03318e-22
7.09483e-24
-2.47704e-23
5.31971e-24
-6.37554e-23
2.43644e-24
5.12422e-23
-7.13844e-24
-4.41728e-23
-6.24461e-24
-4.9826e-23
-4.69476e-24
-8.41155e-23
-8.57908e-24
7.26016e-23
-6.72642e-24
3.87076e-23
-1.5093e-23
1.64819e-22
-1.64282e-23
-4.96535e-23
1.1821e-22
-2.47557e-23
1.393e-23
-1.67219e-23
1.6531e-22
-4.64775e-24
2.06326e-22
-5.73096e-24
2.32627e-22
-3.19663e-24
1.60528e-22
3.45214e-24
1.75501e-22
-5.8807e-24
4.73725e-23
-6.49865e-25
1.79844e-22
-4.73912e-24
1.45215e-22
-9.03435e-24
3.73974e-23
-1.33278e-23
6.38083e-23
-8.60719e-24
1.08168e-22
-7.26185e-24
2.59951e-22
-1.62779e-23
4.67138e-23
-1.03739e-23
1.44182e-22
-5.84335e-24
1.4654e-22
-1.15402e-23
5.88238e-23
-9.02275e-24
6.54725e-23
-4.759e-24
1.53322e-22
-9.41903e-24
3.62953e-23
-1.36661e-23
-5.41829e-23
-1.65424e-23
1.85408e-23
-1.61688e-23
2.24312e-23
-1.63111e-23
3.33011e-23
-1.57581e-23
-3.0969e-23
-1.82253e-23
7.22149e-23
-1.18155e-23
9.26639e-23
-1.68063e-23
-1.29852e-23
-1.44904e-23
5.65633e-23
-7.52956e-24
9.2157e-23
-6.20039e-24
9.53824e-23
-2.57378e-24
9.79864e-23
-1.66435e-24
1.57341e-22
-5.50347e-26
-1.17755e-23
-8.13051e-25
9.38483e-23
-1.56879e-24
7.81714e-23
4.04637e-24
1.27243e-22
7.12865e-24
1.43279e-23
6.28902e-24
-2.96431e-23
2.25777e-24
4.34183e-23
-7.46782e-24
3.09573e-23
-6.58659e-24
2.51984e-23
-3.85153e-24
-2.20124e-23
-7.94347e-24
7.20927e-23
-7.05942e-24
3.14395e-23
-1.57319e-23
1.70065e-22
-1.64201e-23
-2.56246e-23
6.14628e-23
-2.44901e-23
1.04177e-23
-1.59833e-23
1.54894e-22
-4.56146e-24
1.96808e-22
-5.723e-24
2.42146e-22
-3.48739e-24
2.00463e-22
3.8203e-24
1.67795e-22
-5.1478e-24
-1.88112e-23
-7.68242e-25
1.77486e-22
-4.6335e-24
1.41547e-22
-8.94267e-24
-3.76042e-23
-1.23352e-23
7.45952e-23
-8.20231e-24
1.01479e-22
-7.92598e-24
2.36493e-22
-1.52255e-23
4.69112e-23
-1.02927e-23
1.72278e-22
-5.40971e-24
1.04908e-22
-1.19911e-23
2.75614e-23
-8.03361e-24
8.5774e-23
-5.53923e-24
1.4207e-22
-9.63402e-24
3.28744e-23
-1.37158e-23
-5.04432e-23
-1.56409e-23
2.24576e-23
-1.62541e-23
-1.64325e-23
-1.62632e-23
2.85297e-23
-1.5651e-23
-2.59543e-25
-1.76459e-23
7.67689e-23
-1.23428e-23
9.62386e-23
-1.6638e-23
-6.51492e-24
-1.40788e-23
1.02087e-22
-7.30513e-24
8.53785e-23
-6.06217e-24
9.59045e-23
-3.27817e-24
7.60674e-23
-2.0939e-24
1.59595e-22
3.47907e-25
-1.52376e-23
-3.128e-26
8.72402e-23
-2.36639e-24
2.44213e-23
4.00114e-24
1.46175e-22
6.73918e-24
9.45425e-24
6.81977e-24
-3.25451e-23
3.68985e-24
3.70975e-23
-8.53949e-24
-2.22798e-23
-6.18491e-24
2.32002e-23
-2.97986e-24
1.93178e-23
-7.05974e-24
7.14804e-23
-7.2002e-24
2.86057e-23
-1.66808e-23
1.07997e-22
-1.76757e-23
2.53797e-23
7.30065e-23
-2.42941e-23
-5.36127e-23
-1.49189e-23
2.21265e-22
-4.01122e-24
1.82496e-22
-5.89371e-24
2.17238e-22
-3.60367e-24
1.85633e-22
4.22382e-24
1.9816e-22
-4.70025e-24
-1.03695e-23
-5.37256e-25
2.17389e-22
-5.39589e-24
8.10641e-23
-8.87467e-24
-5.42397e-23
-1.12821e-23
8.48293e-23
-8.18903e-24
1.14783e-22
-8.11592e-24
2.32075e-22
-1.5277e-23
5.01e-23
-1.03152e-23
1.24768e-22
-5.47779e-24
1.03365e-22
-1.15927e-23
3.8068e-23
-7.61087e-24
1.4003e-22
-5.74822e-24
1.32593e-22
-9.99978e-24
2.95776e-23
-1.38229e-23
-4.35623e-23
-1.5065e-23
2.26537e-23
-1.60433e-23
2.97952e-23
-1.60127e-23
2.42822e-23
-1.5764e-23
-6.29993e-24
-1.72534e-23
7.51195e-23
-1.27472e-23
8.99294e-23
-1.61422e-23
4.64739e-24
-1.39206e-23
3.38694e-23
-6.6794e-24
1.17764e-22
-6.09612e-24
9.58341e-23
-3.2524e-24
8.55753e-23
-2.81269e-24
1.59079e-22
1.00683e-24
-1.72686e-23
1.24556e-24
8.33791e-23
-2.68587e-24
3.37414e-23
3.42452e-24
1.84617e-22
7.67878e-24
7.6483e-23
6.46986e-24
-7.80258e-23
3.8255e-24
2.4905e-23
-7.7799e-24
-7.50155e-23
-6.20516e-24
2.18827e-23
-2.81911e-24
6.39007e-23
-6.29465e-24
6.74114e-23
-7.8126e-24
-3.91854e-23
-1.64282e-23
1.1956e-22
-1.80612e-23
6.49845e-23
7.07762e-23
-2.36367e-23
-1.81107e-23
-1.42273e-23
3.0453e-22
-3.41608e-24
1.67709e-22
-5.72497e-24
2.08629e-22
-3.38771e-24
1.10775e-22
3.68279e-24
1.1629e-22
-4.19875e-24
-6.38836e-23
-3.45427e-25
2.14503e-22
-5.82731e-24
9.17733e-24
-7.8708e-24
-9.05818e-23
-1.05191e-23
1.08809e-22
-7.52869e-24
1.15419e-22
-8.98563e-24
1.58456e-22
-1.5053e-23
1.43245e-23
-1.04774e-23
7.46351e-23
-5.31401e-24
1.04369e-22
-1.08202e-23
5.32741e-23
-7.6075e-24
1.18473e-22
-6.04801e-24
1.25806e-22
-1.02841e-23
3.21396e-23
-1.39387e-23
-3.95184e-23
-1.41451e-23
2.26032e-23
-1.62695e-23
-1.00348e-23
-1.57441e-23
2.34713e-23
-1.5704e-23
-9.45874e-24
-1.70364e-23
2.70028e-23
-1.26214e-23
8.38631e-23
-1.67118e-23
1.44631e-23
-1.25703e-23
8.96878e-23
-7.0109e-24
1.12698e-22
-5.45507e-24
9.50209e-23
-3.38257e-24
8.13711e-23
-2.92405e-24
1.97922e-22
9.91638e-25
5.37912e-23
1.88975e-24
1.44579e-22
-2.83302e-24
-5.35987e-23
2.62327e-24
2.42227e-22
7.50812e-24
1.12283e-22
7.03864e-24
-7.693e-23
4.59156e-24
7.019e-23
-7.85265e-24
-1.36944e-22
-6.05704e-24
9.35291e-23
-2.58573e-24
6.31626e-23
-6.55053e-24
6.38047e-23
-7.14356e-24
-1.11599e-22
-1.64629e-23
1.2716e-22
-1.85105e-23
2.94152e-23
5.0172e-23
-2.49527e-23
8.69506e-23
-2.17722e-23
9.20657e-23
-1.4827e-23
2.96927e-22
-2.84462e-24
2.23983e-22
-5.97474e-24
1.86757e-22
-4.02531e-24
1.13192e-22
4.29685e-24
1.51537e-22
-2.43343e-24
-5.58483e-23
-1.07611e-24
2.51504e-22
-6.13371e-24
9.79246e-24
-6.76299e-24
-5.29309e-23
-1.06086e-23
1.17294e-22
-7.44623e-24
1.84496e-22
-9.27285e-24
1.5707e-22
-1.52344e-23
6.51624e-24
-9.86352e-24
6.43226e-23
-5.03521e-24
4.30684e-23
-1.01872e-23
6.49779e-23
-7.87205e-24
1.09073e-22
-6.21646e-24
1.22797e-22
-1.06564e-23
-2.95999e-23
-1.39365e-23
-2.91365e-23
-1.35417e-23
6.40423e-23
-1.62715e-23
-6.22247e-24
-1.5668e-23
2.1751e-23
-1.56734e-23
-1.09068e-23
-1.67139e-23
2.00849e-23
-1.25388e-23
1.34289e-22
-1.64008e-23
-4.11997e-23
-1.22661e-23
8.38176e-23
-6.65335e-24
1.05365e-22
-5.44684e-24
9.68948e-23
-3.13213e-24
7.68924e-23
-2.99961e-24
1.95239e-22
1.49493e-24
4.96359e-24
6.9646e-25
1.02436e-22
-8.37071e-25
-5.07992e-23
2.66089e-24
2.32403e-22
5.90674e-24
1.10815e-22
7.47224e-24
-1.12955e-22
4.05225e-24
7.52566e-23
-6.51038e-24
-1.25451e-22
-5.54651e-24
9.21716e-23
-2.85989e-24
1.26661e-22
-6.99413e-24
-1.11286e-23
-6.07984e-24
-1.09502e-22
-1.67365e-23
-5.21193e-24
-1.87003e-23
3.27082e-23
4.18426e-23
-1.60211e-23
8.47846e-23
-2.40838e-23
1.15347e-22
-2.16366e-23
8.8781e-23
-1.46727e-23
2.95949e-22
-2.99856e-24
2.53043e-22
-6.25286e-24
1.41432e-22
-3.62835e-24
1.16004e-22
4.66766e-24
1.41621e-22
-1.48074e-24
-4.71811e-23
-1.36249e-24
2.52958e-22
-6.19924e-24
-6.59225e-24
-6.09666e-24
-1.66808e-23
-9.82181e-24
5.09823e-23
-8.27815e-24
1.18315e-22
-9.20219e-24
2.20702e-22
-1.53637e-23
4.51885e-24
-9.33548e-24
5.35949e-23
-4.09299e-24
4.36759e-23
-9.9906e-24
7.53731e-23
-7.51474e-24
1.03232e-22
-7.00731e-24
1.19856e-22
-1.03303e-23
1.53929e-23
-1.3748e-23
-7.87091e-24
-1.32843e-23
6.2172e-23
-1.63328e-23
-1.7268e-24
-1.55831e-23
1.96042e-23
-1.58229e-23
-1.10601e-23
-1.57955e-23
4.40568e-24
-1.34301e-23
7.44059e-23
-1.58964e-23
-3.49277e-23
-1.18197e-23
1.72152e-23
-6.84144e-24
9.68506e-23
-4.95224e-24
9.76869e-23
-3.30186e-24
7.38958e-23
-3.40913e-24
1.79068e-22
1.71731e-24
-1.19317e-24
6.49873e-25
1.1125e-22
2.6695e-25
3.05875e-23
1.94625e-24
1.49088e-22
5.53673e-24
1.03159e-22
7.71012e-24
-1.52234e-22
4.03297e-24
7.83298e-23
-5.69352e-24
-1.11823e-22
-5.08984e-24
2.86033e-23
-3.6341e-24
1.22796e-22
-7.12233e-24
-7.21101e-23
-6.13472e-24
-9.04211e-23
-1.59511e-23
-5.96085e-23
-1.90703e-23
-1.13476e-24
-2.90075e-24
-1.60949e-23
1.06941e-23
-2.35993e-23
3.39772e-23
-2.17727e-23
8.46768e-23
-1.38992e-23
2.87461e-22
-3.77838e-24
2.44989e-22
-5.87187e-24
1.31108e-22
-3.78737e-24
1.86237e-22
5.1276e-24
2.01556e-22
-1.20018e-24
-3.74323e-23
-1.91824e-24
2.62735e-22
-5.79517e-24
-6.10637e-24
-6.09843e-24
-1.61816e-23
-8.71225e-24
5.47287e-23
-8.36659e-24
7.3033e-23
-1.00898e-23
2.00399e-22
-1.55908e-23
3.12508e-24
-9.02673e-24
1.17517e-22
-3.37295e-24
-3.93272e-24
-9.65174e-24
8.49771e-23
-7.43857e-24
9.84924e-23
-7.48527e-24
1.02793e-22
-1.01999e-23
1.57761e-23
-1.36976e-23
-3.15559e-23
-1.27812e-23
6.07064e-23
-1.65249e-23
-3.42487e-23
-1.55107e-23
1.84756e-23
-1.58003e-23
-9.60638e-24
-1.54595e-23
-2.42773e-24
-1.3617e-23
3.9685e-23
-1.59072e-23
-2.5109e-23
-1.13727e-23
1.07348e-23
-6.23701e-24
1.03622e-22
-4.93023e-24
5.69685e-23
-2.84809e-24
5.82969e-23
-4.11422e-24
1.15671e-22
2.51082e-24
-1.36677e-23
9.47981e-25
8.35125e-23
5.01507e-25
7.8706e-23
1.55697e-24
1.08853e-22
5.08002e-24
1.58634e-22
8.25104e-24
-1.48395e-22
4.78444e-24
8.31193e-23
-4.94844e-24
-2.03372e-23
-4.50514e-24
2.85623e-23
-5.11166e-24
4.71499e-23
-6.9106e-24
-5.4034e-23
-6.45855e-24
-1.22746e-22
-1.50475e-23
-4.63228e-23
-1.88739e-23
-2.87108e-23
5.99653e-23
-1.58325e-23
9.4844e-24
1.63945e-23
-2.30845e-23
-4.45428e-23
-2.15461e-23
2.3489e-23
-1.32979e-23
3.52885e-22
-4.64101e-24
1.72541e-22
-5.50238e-24
1.41978e-22
-4.19168e-24
1.46512e-22
5.78761e-24
2.51637e-22
6.70414e-26
-7.03654e-23
-2.67218e-24
2.71417e-22
-5.87653e-24
2.75771e-23
-5.63176e-24
-1.35086e-23
-7.72367e-24
5.63814e-23
-7.40358e-24
7.17159e-23
-1.11165e-23
1.96256e-22
-1.475e-23
-4.38432e-24
-9.64806e-24
7.02977e-23
-2.20671e-24
6.33036e-23
-9.31061e-24
9.55633e-23
-7.23541e-24
9.56037e-23
-7.86471e-24
9.96246e-23
-1.02191e-23
1.34236e-23
-1.34913e-23
-2.1093e-23
-1.26117e-23
5.30123e-23
-1.64989e-23
-2.6201e-23
-1.54787e-23
1.96258e-23
-1.57802e-23
-1.0969e-23
-1.54676e-23
-1.02318e-23
-1.34872e-23
4.15871e-23
-1.6205e-23
-1.25033e-23
-1.03865e-23
1.73561e-24
-6.10171e-24
9.4267e-23
-5.02104e-24
2.30979e-23
-2.87145e-24
1.03017e-22
-4.46857e-24
7.17421e-23
2.32305e-24
9.577e-24
1.23687e-24
3.02785e-23
5.31174e-25
8.7528e-23
1.3171e-24
1.05293e-22
4.74375e-24
1.52256e-22
8.69342e-24
-1.41736e-22
5.05151e-24
1.22148e-22
-5.21071e-24
-6.36784e-23
-3.81052e-24
6.89531e-23
-5.34441e-24
8.47044e-23
-6.97208e-24
-1.09358e-23
-6.23164e-24
-1.57498e-22
-1.48777e-23
-7.40068e-23
-1.89516e-23
4.91216e-23
1.25956e-22
-1.63014e-23
-4.87122e-24
1.66109e-23