/*--------------------------------*- C++ -*----------------------------------*\
  =========                 |
  \\      /  F ield         | OpenFOAM: The Open Source CFD Toolbox
   \\    /   O peration     | Website:  https://openfoam.org
    \\  /    A nd           | Version:  7
     \\/     M anipulation  |
\*---------------------------------------------------------------------------*/
FoamFile
{
    version     2.0;
    format      ascii;
    class       volScalarField;
    location    "24000";
    object      p;
}
// * * * * * * * * * * * * * * * * * * * * * * * * * * * * * * * * * * * * * //

dimensions      [0 2 -2 0 0 0 0];

internalField   nonuniform List<scalar> 
4825
(
-1.03928e-17
-1.03737e-17
-1.03775e-17
-1.03594e-17
-1.04032e-17
-1.03522e-17
-1.04182e-17
-1.03866e-17
-1.03344e-17
-1.0402e-17
-1.03234e-17
-1.04012e-17
-1.03793e-17
-1.03588e-17
-1.03619e-17
-1.03216e-17
-1.0365e-17
-1.04198e-17
-1.04466e-17
-1.03805e-17
-1.03568e-17
-1.03817e-17
-1.04875e-17
-1.04132e-17
-1.04495e-17
-1.03837e-17
-1.04046e-17
-1.04321e-17
-1.03584e-17
-1.03925e-17
-1.03812e-17
-1.03986e-17
-1.03863e-17
-1.035e-17
-1.03865e-17
-1.03425e-17
-1.04029e-17
-1.03878e-17
-1.03056e-17
-1.03971e-17
-1.03053e-17
-1.03804e-17
-1.04451e-17
-1.02767e-17
-1.03967e-17
-1.03293e-17
-1.03604e-17
-1.04751e-17
-1.03233e-17
-1.03576e-17
-1.03153e-17
-1.0378e-17
-1.0441e-17
-1.03818e-17
-1.04044e-17
-1.03409e-17
-1.03737e-17
-1.04004e-17
-1.04269e-17
-1.04244e-17
-1.03485e-17
-1.03552e-17
-1.04458e-17
-1.04029e-17
-1.04183e-17
-1.03349e-17
-1.04169e-17
-1.03873e-17
-1.0401e-17
-1.03397e-17
-1.04361e-17
-1.0334e-17
-1.03988e-17
-1.02965e-17
-1.03872e-17
-1.03623e-17
-1.0367e-17
-1.04184e-17
-1.03791e-17
-1.0413e-17
-1.03781e-17
-1.03814e-17
-1.03927e-17
-1.03824e-17
-1.03982e-17
-1.03879e-17
-1.03969e-17
-1.03964e-17
-1.03815e-17
-1.0387e-17
-1.03938e-17
-1.04236e-17
-1.0396e-17
-1.04243e-17
-1.02967e-17
-1.05111e-17
-1.03595e-17
-1.03729e-17
-1.03643e-17
-1.03592e-17
-1.0396e-17
-1.04095e-17
-1.0462e-17
-1.04919e-17
-1.03764e-17
-1.03734e-17
-1.02984e-17
-1.04828e-17
-1.03651e-17
-1.04534e-17
-1.03699e-17
-1.0379e-17
-1.03512e-17
-1.04101e-17
-1.03807e-17
-1.04553e-17
-1.03396e-17
-1.03962e-17
-1.03688e-17
-1.03315e-17
-1.03963e-17
-1.0397e-17
-1.04516e-17
-1.04664e-17
-1.03683e-17
-1.0399e-17
-1.03758e-17
-1.04838e-17
-1.04064e-17
-1.05075e-17
-1.03648e-17
-1.04009e-17
-1.04194e-17
-1.0443e-17
-1.0394e-17
-1.04603e-17
-1.03824e-17
-1.04217e-17
-1.03769e-17
-1.03727e-17
-1.03953e-17
-1.03799e-17
-1.0387e-17
-1.03886e-17
-1.03987e-17
-1.04095e-17
-1.04288e-17
-1.04841e-17
-1.04052e-17
-1.05123e-17
-1.03944e-17
-1.04522e-17
-1.04331e-17
-1.04398e-17
-1.04107e-17
-1.0396e-17
-1.03798e-17
-1.03982e-17
-1.04028e-17
-1.04288e-17
-1.03861e-17
-1.03494e-17
-1.04042e-17
-1.03891e-17
-1.0393e-17
-1.0449e-17
-1.04215e-17
-1.05016e-17
-1.04017e-17
-1.04846e-17
-1.03968e-17
-1.04553e-17
-1.03965e-17
-1.04185e-17
-1.03987e-17
-1.03985e-17
-1.03668e-17
-1.03658e-17
-1.03513e-17
-1.04385e-17
-1.03834e-17
-1.03645e-17
-1.04038e-17
-1.04179e-17
-1.03986e-17
-1.04261e-17
-1.04273e-17
-1.04886e-17
-1.03833e-17
-1.04687e-17
-1.03898e-17
-1.04283e-17
-1.04141e-17
-1.03525e-17
-1.0352e-17
-1.03986e-17
-1.03628e-17
-1.02844e-17
-1.03539e-17
-1.04515e-17
-1.04363e-17
-1.03591e-17
-1.03915e-17
-1.0384e-17
-1.0384e-17
-1.03915e-17
-1.0409e-17
-1.04805e-17
-1.03566e-17
-1.04641e-17
-1.04184e-17
-1.04388e-17
-1.03932e-17
-1.03892e-17
-1.04205e-17
-1.03887e-17
-1.02896e-17
-1.03109e-17
-1.03556e-17
-1.04147e-17
-1.04156e-17
-1.03697e-17
-1.03868e-17
-1.03877e-17
-1.04286e-17
-1.04667e-17
-1.04021e-17
-1.0506e-17
-1.03962e-17
-1.04512e-17
-1.03925e-17
-1.03946e-17
-1.04935e-17
-1.03708e-17
-1.03934e-17
-1.04201e-17
-1.029e-17
-1.03453e-17
-1.03512e-17
-1.03951e-17
-1.03871e-17
-1.04028e-17
-1.04408e-17
-1.03565e-17
-1.04695e-17
-1.04511e-17
-1.04065e-17
-1.04285e-17
-1.0403e-17
-1.04999e-17
-1.0396e-17
-1.03914e-17
-1.03989e-17
-1.04139e-17
-1.04294e-17
-1.0512e-17
-1.04231e-17
-1.03819e-17
-1.04988e-17
-1.04e-17
-1.04274e-17
-1.03717e-17
-1.04779e-17
-1.04504e-17
-1.0419e-17
-1.04822e-17
-1.03248e-17
-1.04504e-17
-1.03381e-17
-1.03783e-17
-1.03864e-17
-1.02767e-17
-1.04665e-17
-1.03641e-17
-1.04131e-17
-1.03494e-17
-1.03955e-17
-1.04911e-17
-1.03755e-17
-1.04282e-17
-1.04333e-17
-1.04183e-17
-1.03809e-17
-1.03973e-17
-1.05227e-17
-1.0409e-17
-1.04073e-17
-1.04322e-17
-1.04284e-17
-1.03884e-17
-1.04754e-17
-1.04018e-17
-1.04161e-17
-1.0493e-17
-1.04133e-17
-1.041e-17
-1.03993e-17
-1.04757e-17
-1.04642e-17
-1.04254e-17
-1.04577e-17
-1.04638e-17
-1.04733e-17
-1.04018e-17
-1.04505e-17
-1.03661e-17
-1.03699e-17
-1.04108e-17
-1.04026e-17
-1.04961e-17
-1.03501e-17
-1.05012e-17
-1.03424e-17
-1.0405e-17
-1.0394e-17
-1.03724e-17
-1.04155e-17
-1.04013e-17
-1.04035e-17
-1.04403e-17
-1.03862e-17
-1.04556e-17
-1.04221e-17
-1.04433e-17
-1.04274e-17
-1.04377e-17
-1.03977e-17
-1.04549e-17
-1.04376e-17
-1.04308e-17
-1.04764e-17
-1.04069e-17
-1.044e-17
-1.04069e-17
-1.04433e-17
-1.0452e-17
-1.03801e-17
-1.04809e-17
-1.04769e-17
-1.04386e-17
-1.04649e-17
-1.04079e-17
-1.04564e-17
-1.03892e-17
-1.0352e-17
-1.05128e-17
-1.03494e-17
-1.04471e-17
-1.02949e-17
-1.04527e-17
-1.03421e-17
-1.04889e-17
-1.03805e-17
-1.04116e-17
-1.03898e-17
-1.03607e-17
-1.03617e-17
-1.0445e-17
-1.03988e-17
-1.04301e-17
-1.04395e-17
-1.0415e-17
-1.04132e-17
-1.04511e-17
-1.04046e-17
-1.04481e-17
-1.04259e-17
-1.04383e-17
-1.04831e-17
-1.04245e-17
-1.04714e-17
-1.04069e-17
-1.04089e-17
-1.04303e-17
-1.043e-17
-1.046e-17
-1.0482e-17
-1.044e-17
-1.04675e-17
-1.04339e-17
-1.04798e-17
-1.03932e-17
-1.04419e-17
-1.04197e-17
-1.03557e-17
-1.04763e-17
-1.03288e-17
-1.04013e-17
-1.02453e-17
-1.04475e-17
-1.03676e-17
-1.04509e-17
-1.03758e-17
-1.04544e-17
-1.03504e-17
-1.03691e-17
-1.0388e-17
-1.04293e-17
-1.04327e-17
-1.04402e-17
-1.04256e-17
-1.03836e-17
-1.04243e-17
-1.04287e-17
-1.04036e-17
-1.04487e-17
-1.04137e-17
-1.04507e-17
-1.04604e-17
-1.04249e-17
-1.0453e-17
-1.04544e-17
-1.04349e-17
-1.03892e-17
-1.04499e-17
-1.04108e-17
-1.04686e-17
-1.04456e-17
-1.04377e-17
-1.04207e-17
-1.04954e-17
-1.05605e-17
-1.04248e-17
-1.04292e-17
-1.03931e-17
-1.04283e-17
-1.03395e-17
-1.04181e-17
-1.02956e-17
-1.04165e-17
-1.03263e-17
-1.04146e-17
-1.03359e-17
-1.04705e-17
-1.03508e-17
-1.04011e-17
-1.03514e-17
-1.04199e-17
-1.04363e-17
-1.04404e-17
-1.04117e-17
-1.0405e-17
-1.04296e-17
-1.03795e-17
-1.04448e-17
-1.03986e-17
-1.04038e-17
-1.04568e-17
-1.04056e-17
-1.04693e-17
-1.04447e-17
-1.04496e-17
-1.04441e-17
-1.04135e-17
-1.04499e-17
-1.04144e-17
-1.04518e-17
-1.03828e-17
-1.04346e-17
-1.04507e-17
-1.04473e-17
-1.04058e-17
-1.04837e-17
-1.05674e-17
-1.04336e-17
-1.05326e-17
-1.04252e-17
-1.04934e-17
-1.04225e-17
-1.0425e-17
-1.04498e-17
-1.03642e-17
-1.0403e-17
-1.02772e-17
-1.04408e-17
-1.03835e-17
-1.03831e-17
-1.02614e-17
-1.04198e-17
-1.03506e-17
-1.04121e-17
-1.04422e-17
-1.03816e-17
-1.04364e-17
-1.04549e-17
-1.03851e-17
-1.04202e-17
-1.04521e-17
-1.0387e-17
-1.04278e-17
-1.0396e-17
-1.04115e-17
-1.04783e-17
-1.04374e-17
-1.04614e-17
-1.04257e-17
-1.04404e-17
-1.04329e-17
-1.04166e-17
-1.04605e-17
-1.04125e-17
-1.04616e-17
-1.04528e-17
-1.04296e-17
-1.04534e-17
-1.04108e-17
-1.04104e-17
-1.04501e-17
-1.0557e-17
-1.04054e-17
-1.04772e-17
-1.03529e-17
-1.05098e-17
-1.04345e-17
-1.04715e-17
-1.04161e-17
-1.04213e-17
-1.04356e-17
-1.03836e-17
-1.04153e-17
-1.03184e-17
-1.03659e-17
-1.03952e-17
-1.04007e-17
-1.03165e-17
-1.03716e-17
-1.03779e-17
-1.04317e-17
-1.04234e-17
-1.04104e-17
-1.04042e-17
-1.04516e-17
-1.03677e-17
-1.04906e-17
-1.04402e-17
-1.03645e-17
-1.04097e-17
-1.04203e-17
-1.0418e-17
-1.04795e-17
-1.04175e-17
-1.04632e-17
-1.04365e-17
-1.04235e-17
-1.0411e-17
-1.04157e-17
-1.04176e-17
-1.0428e-17
-1.04146e-17
-1.04563e-17
-1.04264e-17
-1.04383e-17
-1.04283e-17
-1.04386e-17
-1.04478e-17
-1.05169e-17
-1.04211e-17
-1.04791e-17
-1.04025e-17
-1.04964e-17
-1.04437e-17
-1.04166e-17
-1.03658e-17
-1.05291e-17
-1.03838e-17
-1.04073e-17
-1.04096e-17
-1.04359e-17
-1.03403e-17
-1.04932e-17
-1.03275e-17
-1.04018e-17
-1.04337e-17
-1.04626e-17
-1.03736e-17
-1.03493e-17
-1.03822e-17
-1.04577e-17
-1.04131e-17
-1.03708e-17
-1.03333e-17
-1.04509e-17
-1.04064e-17
-1.04626e-17
-1.04071e-17
-1.03946e-17
-1.03762e-17
-1.04308e-17
-1.03792e-17
-1.04557e-17
-1.03901e-17
-1.04363e-17
-1.04331e-17
-1.04151e-17
-1.04328e-17
-1.03821e-17
-1.04378e-17
-1.04247e-17
-1.04242e-17
-1.0499e-17
-1.04738e-17
-1.04562e-17
-1.04507e-17
-1.04665e-17
-1.05057e-17
-1.04988e-17
-1.04073e-17
-1.04097e-17
-1.03544e-17
-1.04935e-17
-1.0411e-17
-1.04062e-17
-1.03659e-17
-1.05151e-17
-1.0391e-17
-1.0391e-17
-1.0395e-17
-1.04537e-17
-1.03739e-17
-1.04529e-17
-1.03322e-17
-1.0417e-17
-1.03612e-17
-1.04201e-17
-1.03414e-17
-1.03927e-17
-1.03537e-17
-1.04748e-17
-1.0427e-17
-1.03745e-17
-1.03569e-17
-1.04184e-17
-1.04373e-17
-1.04209e-17
-1.04222e-17
-1.04083e-17
-1.03904e-17
-1.04324e-17
-1.03655e-17
-1.04458e-17
-1.04204e-17
-1.04702e-17
-1.04166e-17
-1.0433e-17
-1.04367e-17
-1.039e-17
-1.04457e-17
-1.04319e-17
-1.04537e-17
-1.04736e-17
-1.04671e-17
-1.0479e-17
-1.04565e-17
-1.05068e-17
-1.04768e-17
-1.05323e-17
-1.04468e-17
-1.04305e-17
-1.03423e-17
-1.04224e-17
-1.03618e-17
-1.03434e-17
-1.03628e-17
-1.04784e-17
-1.04236e-17
-1.03971e-17
-1.03696e-17
-1.04479e-17
-1.03433e-17
-1.04319e-17
-1.03153e-17
-1.0375e-17
-1.03759e-17
-1.03857e-17
-1.03255e-17
-1.03718e-17
-1.03123e-17
-1.04185e-17
-1.04224e-17
-1.03828e-17
-1.03893e-17
-1.04639e-17
-1.0426e-17
-1.0406e-17
-1.04506e-17
-1.04005e-17
-1.04246e-17
-1.04254e-17
-1.03733e-17
-1.04435e-17
-1.04676e-17
-1.04789e-17
-1.04283e-17
-1.04483e-17
-1.04363e-17
-1.04305e-17
-1.04361e-17
-1.04384e-17
-1.04088e-17
-1.04437e-17
-1.04548e-17
-1.04443e-17
-1.04635e-17
-1.04827e-17
-1.04493e-17
-1.04954e-17
-1.04639e-17
-1.04446e-17
-1.04267e-17
-1.03569e-17
-1.0328e-17
-1.03988e-17
-1.0343e-17
-1.04672e-17
-1.03967e-17
-1.03908e-17
-1.03927e-17
-1.0403e-17
-1.03402e-17
-1.03921e-17
-1.03161e-17
-1.03651e-17
-1.04208e-17
-1.04068e-17
-1.03337e-17
-1.04352e-17
-1.03952e-17
-1.03752e-17
-1.03744e-17
-1.04187e-17
-1.03992e-17
-1.04638e-17
-1.04224e-17
-1.04163e-17
-1.04593e-17
-1.03889e-17
-1.04219e-17
-1.04167e-17
-1.03866e-17
-1.04446e-17
-1.04907e-17
-1.0457e-17
-1.04175e-17
-1.04403e-17
-1.04619e-17
-1.03915e-17
-1.04268e-17
-1.03931e-17
-1.0379e-17
-1.04407e-17
-1.04509e-17
-1.04303e-17
-1.04884e-17
-1.04187e-17
-1.03978e-17
-1.04732e-17
-1.04502e-17
-1.04434e-17
-1.04303e-17
-1.04241e-17
-1.03803e-17
-1.04774e-17
-1.03425e-17
-1.04371e-17
-1.03526e-17
-1.04317e-17
-1.04779e-17
-1.0421e-17
-1.03768e-17
-1.04091e-17
-1.03297e-17
-1.03255e-17
-1.0371e-17
-1.04109e-17
-1.03112e-17
-1.03937e-17
-1.04003e-17
-1.03807e-17
-1.04081e-17
-1.03682e-17
-1.03999e-17
-1.04527e-17
-1.03977e-17
-1.03947e-17
-1.04519e-17
-1.04248e-17
-1.03915e-17
-1.04554e-17
-1.03774e-17
-1.04459e-17
-1.04448e-17
-1.04459e-17
-1.03825e-17
-1.04506e-17
-1.04448e-17
-1.03745e-17
-1.04239e-17
-1.03996e-17
-1.04638e-17
-1.04079e-17
-1.0491e-17
-1.04407e-17
-1.04872e-17
-1.04131e-17
-1.04463e-17
-1.04655e-17
-1.04215e-17
-1.04696e-17
-1.04535e-17
-1.04343e-17
-1.03685e-17
-1.0454e-17
-1.03598e-17
-1.03577e-17
-1.03555e-17
-1.04945e-17
-1.04403e-17
-1.04903e-17
-1.04068e-17
-1.04322e-17
-1.03106e-17
-1.0337e-17
-1.03248e-17
-1.03753e-17
-1.03627e-17
-1.03543e-17
-1.03659e-17
-1.04278e-17
-1.04197e-17
-1.04028e-17
-1.04354e-17
-1.04183e-17
-1.03877e-17
-1.03648e-17
-1.04256e-17
-1.04092e-17
-1.03981e-17
-1.04652e-17
-1.03991e-17
-1.04535e-17
-1.04252e-17
-1.04336e-17
-1.04146e-17
-1.04925e-17
-1.04368e-17
-1.03964e-17
-1.04477e-17
-1.03919e-17
-1.04584e-17
-1.04111e-17
-1.04524e-17
-1.04643e-17
-1.0443e-17
-1.04506e-17
-1.04942e-17
-1.04466e-17
-1.04336e-17
-1.05036e-17
-1.0411e-17
-1.04713e-17
-1.03855e-17
-1.04597e-17
-1.03119e-17
-1.03991e-17
-1.03507e-17
-1.04383e-17
-1.03839e-17
-1.04282e-17
-1.04043e-17
-1.04242e-17
-1.03814e-17
-1.04057e-17
-1.03765e-17
-1.049e-17
-1.03962e-17
-1.04075e-17
-1.03874e-17
-1.04065e-17
-1.04092e-17
-1.04335e-17
-1.04192e-17
-1.04393e-17
-1.04075e-17
-1.04262e-17
-1.04061e-17
-1.03889e-17
-1.03983e-17
-1.04594e-17
-1.04184e-17
-1.04748e-17
-1.04304e-17
-1.04119e-17
-1.04045e-17
-1.04307e-17
-1.04411e-17
-1.04464e-17
-1.04404e-17
-1.04047e-17
-1.044e-17
-1.04177e-17
-1.04198e-17
-1.04463e-17
-1.04628e-17
-1.04528e-17
-1.04601e-17
-1.04155e-17
-1.03271e-17
-1.04157e-17
-1.03767e-17
-1.04067e-17
-1.03812e-17
-1.04638e-17
-1.0372e-17
-1.04233e-17
-1.03887e-17
-1.03919e-17
-1.0372e-17
-1.04201e-17
-1.03649e-17
-1.04262e-17
-1.03967e-17
-1.03974e-17
-1.0369e-17
-1.04414e-17
-1.03286e-17
-1.037e-17
-1.04245e-17
-1.03883e-17
-1.03722e-17
-1.04232e-17
-1.04246e-17
-1.04195e-17
-1.04091e-17
-1.04455e-17
-1.03967e-17
-1.04127e-17
-1.04174e-17
-1.04456e-17
-1.04334e-17
-1.04728e-17
-1.04449e-17
-1.04248e-17
-1.04039e-17
-1.04024e-17
-1.04454e-17
-1.04417e-17
-1.04142e-17
-1.03991e-17
-1.04739e-17
-1.03876e-17
-1.04309e-17
-1.04312e-17
-1.04778e-17
-1.0419e-17
-1.04466e-17
-1.04491e-17
-1.03767e-17
-1.04338e-17
-1.03929e-17
-1.03788e-17
-1.03688e-17
-1.04411e-17
-1.03774e-17
-1.04414e-17
-1.04024e-17
-1.03968e-17
-1.03241e-17
-1.04313e-17
-1.03271e-17
-1.04026e-17
-1.03128e-17
-1.03671e-17
-1.03468e-17
-1.04285e-17
-1.03613e-17
-1.04093e-17
-1.04388e-17
-1.03914e-17
-1.03444e-17
-1.04185e-17
-1.04087e-17
-1.0438e-17
-1.03815e-17
-1.04609e-17
-1.04104e-17
-1.04313e-17
-1.03948e-17
-1.04519e-17
-1.04135e-17
-1.04526e-17
-1.04252e-17
-1.04591e-17
-1.04246e-17
-1.0374e-17
-1.04383e-17
-1.04136e-17
-1.03956e-17
-1.04113e-17
-1.04596e-17
-1.04411e-17
-1.04377e-17
-1.0465e-17
-1.048e-17
-1.04311e-17
-1.04683e-17
-1.04349e-17
-1.04256e-17
-1.04731e-17
-1.04105e-17
-1.04407e-17
-1.03911e-17
-1.04339e-17
-1.03702e-17
-1.04937e-17
-1.03933e-17
-1.04553e-17
-1.02962e-17
-1.04318e-17
-1.0353e-17
-1.03817e-17
-1.02921e-17
-1.03715e-17
-1.03569e-17
-1.04267e-17
-1.04006e-17
-1.03985e-17
-1.03928e-17
-1.04261e-17
-1.04e-17
-1.04014e-17
-1.04386e-17
-1.04643e-17
-1.03525e-17
-1.04406e-17
-1.04203e-17
-1.04153e-17
-1.03761e-17
-1.0436e-17
-1.04071e-17
-1.04455e-17
-1.04028e-17
-1.0449e-17
-1.0424e-17
-1.041e-17
-1.04444e-17
-1.03932e-17
-1.04118e-17
-1.04157e-17
-1.04144e-17
-1.04655e-17
-1.04553e-17
-1.0473e-17
-1.04535e-17
-1.04868e-17
-1.0423e-17
-1.04476e-17
-1.04059e-17
-1.04666e-17
-1.04332e-17
-1.04718e-17
-1.04006e-17
-1.04325e-17
-1.03783e-17
-1.05112e-17
-1.03479e-17
-1.04862e-17
-1.0344e-17
-1.03913e-17
-1.03361e-17
-1.03994e-17
-1.03238e-17
-1.04074e-17
-1.03592e-17
-1.04197e-17
-1.03554e-17
-1.03329e-17
-1.03981e-17
-1.04253e-17
-1.04451e-17
-1.04022e-17
-1.04141e-17
-1.04513e-17
-1.0378e-17
-1.04564e-17
-1.04071e-17
-1.0407e-17
-1.03793e-17
-1.04401e-17
-1.03998e-17
-1.04399e-17
-1.04095e-17
-1.04448e-17
-1.04072e-17
-1.04377e-17
-1.04357e-17
-1.03972e-17
-1.0396e-17
-1.04066e-17
-1.04168e-17
-1.04813e-17
-1.04565e-17
-1.04634e-17
-1.04403e-17
-1.04543e-17
-1.05139e-17
-1.04719e-17
-1.04201e-17
-1.04266e-17
-1.04243e-17
-1.04693e-17
-1.03567e-17
-1.04475e-17
-1.04145e-17
-1.04464e-17
-1.03368e-17
-1.04553e-17
-1.04039e-17
-1.04404e-17
-1.03616e-17
-1.03949e-17
-1.03688e-17
-1.03821e-17
-1.03839e-17
-1.04361e-17
-1.03558e-17
-1.03799e-17
-1.0406e-17
-1.04137e-17
-1.04529e-17
-1.04021e-17
-1.04095e-17
-1.03983e-17
-1.0414e-17
-1.04359e-17
-1.04335e-17
-1.03904e-17
-1.03723e-17
-1.04522e-17
-1.04251e-17
-1.04286e-17
-1.03994e-17
-1.04416e-17
-1.04301e-17
-1.04339e-17
-1.04365e-17
-1.03984e-17
-1.03805e-17
-1.03866e-17
-1.04316e-17
-1.04209e-17
-1.04572e-17
-1.03955e-17
-1.04442e-17
-1.04087e-17
-1.0466e-17
-1.0457e-17
-1.04333e-17
-1.04064e-17
-1.03931e-17
-1.041e-17
-1.03843e-17
-1.04356e-17
-1.03616e-17
-1.0409e-17
-1.03453e-17
-1.04182e-17
-1.04505e-17
-1.04603e-17
-1.03684e-17
-1.03909e-17
-1.03765e-17
-1.03742e-17
-1.03645e-17
-1.04282e-17
-1.0357e-17
-1.03575e-17
-1.04444e-17
-1.0391e-17
-1.04208e-17
-1.0423e-17
-1.04053e-17
-1.03847e-17
-1.04298e-17
-1.04313e-17
-1.04229e-17
-1.03824e-17
-1.03881e-17
-1.04349e-17
-1.04123e-17
-1.04377e-17
-1.04061e-17
-1.0459e-17
-1.04588e-17
-1.04237e-17
-1.04052e-17
-1.04015e-17
-1.03802e-17
-1.04034e-17
-1.04079e-17
-1.04215e-17
-1.04419e-17
-1.04155e-17
-1.04686e-17
-1.03752e-17
-1.04689e-17
-1.04531e-17
-1.04141e-17
-1.04404e-17
-1.04072e-17
-1.04343e-17
-1.03982e-17
-1.04338e-17
-1.03376e-17
-1.03835e-17
-1.03618e-17
-1.04649e-17
-1.04271e-17
-1.04516e-17
-1.03577e-17
-1.04355e-17
-1.0332e-17
-1.03909e-17
-1.03439e-17
-1.03974e-17
-1.03486e-17
-1.03448e-17
-1.04369e-17
-1.04365e-17
-1.04128e-17
-1.04289e-17
-1.04184e-17
-1.03963e-17
-1.04073e-17
-1.04442e-17
-1.03891e-17
-1.03913e-17
-1.03902e-17
-1.04316e-17
-1.04011e-17
-1.04345e-17
-1.04289e-17
-1.04812e-17
-1.04509e-17
-1.04199e-17
-1.04128e-17
-1.04263e-17
-1.0403e-17
-1.04548e-17
-1.0395e-17
-1.03983e-17
-1.04467e-17
-1.04324e-17
-1.04363e-17
-1.03869e-17
-1.046e-17
-1.04561e-17
-1.04357e-17
-1.04802e-17
-1.03918e-17
-1.04668e-17
-1.03749e-17
-1.0445e-17
-1.03346e-17
-1.03937e-17
-1.03392e-17
-1.04342e-17
-1.04122e-17
-1.04315e-17
-1.03689e-17
-1.03789e-17
-1.03711e-17
-1.03513e-17
-1.04064e-17
-1.04443e-17
-1.03732e-17
-1.03954e-17
-1.03748e-17
-1.0406e-17
-1.0424e-17
-1.03806e-17
-1.04143e-17
-1.03967e-17
-1.04168e-17
-1.04431e-17
-1.0402e-17
-1.04283e-17
-1.0381e-17
-1.04747e-17
-1.03892e-17
-1.04253e-17
-1.04142e-17
-1.04331e-17
-1.0415e-17
-1.04158e-17
-1.04007e-17
-1.04041e-17
-1.04184e-17
-1.04255e-17
-1.044e-17
-1.03677e-17
-1.04698e-17
-1.04097e-17
-1.04571e-17
-1.04528e-17
-1.04251e-17
-1.04098e-17
-1.0405e-17
-1.04494e-17
-1.0418e-17
-1.04177e-17
-1.04084e-17
-1.04394e-17
-1.03835e-17
-1.04006e-17
-1.03867e-17
-1.04546e-17
-1.03564e-17
-1.04293e-17
-1.03225e-17
-1.03354e-17
-1.038e-17
-1.0372e-17
-1.03736e-17
-1.04139e-17
-1.03907e-17
-1.04043e-17
-1.03789e-17
-1.04474e-17
-1.03888e-17
-1.0375e-17
-1.04108e-17
-1.04255e-17
-1.04043e-17
-1.04428e-17
-1.04122e-17
-1.04273e-17
-1.03875e-17
-1.04373e-17
-1.03974e-17
-1.04516e-17
-1.04405e-17
-1.04418e-17
-1.04221e-17
-1.04206e-17
-1.04014e-17
-1.04078e-17
-1.041e-17
-1.04265e-17
-1.04181e-17
-1.03878e-17
-1.04528e-17
-1.04077e-17
-1.04224e-17
-1.04433e-17
-1.04351e-17
-1.03897e-17
-1.04339e-17
-1.04494e-17
-1.04207e-17
-1.04134e-17
-1.04699e-17
-1.04843e-17
-1.03752e-17
-1.04531e-17
-1.03637e-17
-1.04062e-17
-1.03837e-17
-1.03942e-17
-1.03496e-17
-1.03484e-17
-1.03797e-17
-1.03809e-17
-1.03788e-17
-1.04101e-17
-1.03428e-17
-1.04597e-17
-1.03964e-17
-1.04399e-17
-1.04009e-17
-1.03778e-17
-1.0405e-17
-1.04258e-17
-1.04044e-17
-1.04502e-17
-1.04039e-17
-1.04088e-17
-1.03998e-17
-1.04135e-17
-1.03913e-17
-1.04502e-17
-1.04449e-17
-1.04397e-17
-1.04179e-17
-1.04144e-17
-1.0438e-17
-1.04389e-17
-1.03693e-17
-1.04255e-17
-1.04002e-17
-1.04167e-17
-1.04621e-17
-1.04049e-17
-1.04098e-17
-1.04099e-17
-1.03977e-17
-1.04551e-17
-1.0425e-17
-1.04226e-17
-1.04258e-17
-1.04183e-17
-1.04527e-17
-1.04582e-17
-1.03923e-17
-1.04324e-17
-1.03472e-17
-1.04383e-17
-1.04017e-17
-1.04316e-17
-1.04375e-17
-1.03682e-17
-1.03821e-17
-1.04198e-17
-1.03687e-17
-1.04273e-17
-1.03166e-17
-1.04072e-17
-1.04034e-17
-1.03987e-17
-1.04061e-17
-1.03682e-17
-1.0428e-17
-1.04387e-17
-1.04252e-17
-1.044e-17
-1.03901e-17
-1.03944e-17
-1.04123e-17
-1.0443e-17
-1.03956e-17
-1.04565e-17
-1.04144e-17
-1.04447e-17
-1.04087e-17
-1.04124e-17
-1.04175e-17
-1.04602e-17
-1.03491e-17
-1.04111e-17
-1.03932e-17
-1.04153e-17
-1.04657e-17
-1.04281e-17
-1.04385e-17
-1.041e-17
-1.04354e-17
-1.04759e-17
-1.04105e-17
-1.04004e-17
-1.03886e-17
-1.04201e-17
-1.03652e-17
-1.03717e-17
-1.03679e-17
-1.0428e-17
-1.03613e-17
-1.03978e-17
-1.04031e-17
-1.04113e-17
-1.04784e-17
-1.04014e-17
-1.03935e-17
-1.04125e-17
-1.03287e-17
-1.0409e-17
-1.03554e-17
-1.04253e-17
-1.03655e-17
-1.03891e-17
-1.03994e-17
-1.03696e-17
-1.04373e-17
-1.03977e-17
-1.04291e-17
-1.04178e-17
-1.03946e-17
-1.0372e-17
-1.04496e-17
-1.04722e-17
-1.0416e-17
-1.04399e-17
-1.03915e-17
-1.04264e-17
-1.0423e-17
-1.03932e-17
-1.04104e-17
-1.04277e-17
-1.03902e-17
-1.04194e-17
-1.04226e-17
-1.0396e-17
-1.04454e-17
-1.04464e-17
-1.04557e-17
-1.0447e-17
-1.03832e-17
-1.04605e-17
-1.03933e-17
-1.04178e-17
-1.0386e-17
-1.04134e-17
-1.0383e-17
-1.03285e-17
-1.0393e-17
-1.04083e-17
-1.04268e-17
-1.04142e-17
-1.04041e-17
-1.03912e-17
-1.04042e-17
-1.04158e-17
-1.04093e-17
-1.04304e-17
-1.03972e-17
-1.04046e-17
-1.03699e-17
-1.04343e-17
-1.03911e-17
-1.04512e-17
-1.03956e-17
-1.03925e-17
-1.04228e-17
-1.04056e-17
-1.04335e-17
-1.04154e-17
-1.03943e-17
-1.0373e-17
-1.04158e-17
-1.04354e-17
-1.04385e-17
-1.04361e-17
-1.04072e-17
-1.04104e-17
-1.0443e-17
-1.0403e-17
-1.04233e-17
-1.04026e-17
-1.04037e-17
-1.04004e-17
-1.04276e-17
-1.04059e-17
-1.04455e-17
-1.0447e-17
-1.04162e-17
-1.04154e-17
-1.03917e-17
-1.04191e-17
-1.04062e-17
-1.03986e-17
-1.03618e-17
-1.03959e-17
-1.04003e-17
-1.04167e-17
-1.04202e-17
-1.03943e-17
-1.04044e-17
-1.0421e-17
-1.04103e-17
-1.04044e-17
-1.03872e-17
-1.0409e-17
-1.03989e-17
-1.04245e-17
-1.03703e-17
-1.04191e-17
-1.04005e-17
-1.04132e-17
-1.04403e-17
-1.04345e-17
-1.04032e-17
-1.04258e-17
-1.04094e-17
-1.04105e-17
-1.0431e-17
-1.04279e-17
-1.03741e-17
-1.03982e-17
-1.03974e-17
-1.04139e-17
-1.0426e-17
-1.04401e-17
-1.04125e-17
-1.03892e-17
-1.04288e-17
-1.04047e-17
-1.0409e-17
-1.03924e-17
-1.03899e-17
-1.04012e-17
-1.04305e-17
-1.04148e-17
-1.04342e-17
-1.04316e-17
-1.04227e-17
-1.04001e-17
-1.04096e-17
-1.03911e-17
-1.04113e-17
-1.0454e-17
-1.0387e-17
-1.04e-17
-1.04033e-17
-1.04147e-17
-1.04185e-17
-1.0399e-17
-1.03906e-17
-1.04197e-17
-1.04199e-17
-1.04154e-17
-1.03748e-17
-1.04054e-17
-1.04006e-17
-1.03965e-17
-1.03981e-17
-1.04217e-17
-1.03812e-17
-1.04225e-17
-1.04238e-17
-1.0379e-17
-1.03992e-17
-1.04283e-17
-1.04144e-17
-1.04257e-17
-1.04176e-17
-1.04102e-17
-1.03846e-17
-1.03987e-17
-1.04034e-17
-1.04148e-17
-1.04166e-17
-1.04182e-17
-1.04127e-17
-1.0404e-17
-1.0423e-17
-1.04061e-17
-1.04029e-17
-1.04152e-17
-1.03908e-17
-1.04175e-17
-1.04225e-17
-1.04052e-17
-1.04138e-17
-1.04162e-17
-1.04598e-17
-1.0402e-17
-1.03908e-17
-1.0444e-17
-1.04121e-17
-1.04308e-17
-1.04122e-17
-1.04091e-17
-1.04043e-17
-1.04297e-17
-1.04022e-17
-1.0394e-17
-1.03864e-17
-1.04042e-17
-1.04117e-17
-1.0403e-17
-1.03791e-17
-1.0401e-17
-1.04119e-17
-1.04145e-17
-1.04148e-17
-1.04125e-17
-1.038e-17
-1.04502e-17
-1.04011e-17
-1.03704e-17
-1.04057e-17
-1.04462e-17
-1.04184e-17
-1.04313e-17
-1.04158e-17
-1.03972e-17
-1.04153e-17
-1.03993e-17
-1.04065e-17
-1.04137e-17
-1.04083e-17
-1.04304e-17
-1.04108e-17
-1.04126e-17
-1.04327e-17
-1.04091e-17
-1.04096e-17
-1.04012e-17
-1.04125e-17
-1.04143e-17
-1.04178e-17
-1.04042e-17
-1.03886e-17
-1.0405e-17
-1.04698e-17
-1.04148e-17
-1.03854e-17
-1.04401e-17
-1.0418e-17
-1.04301e-17
-1.03988e-17
-1.03996e-17
-1.04093e-17
-1.04258e-17
-1.04042e-17
-1.04046e-17
-1.04019e-17
-1.0416e-17
-1.04144e-17
-1.03949e-17
-1.03981e-17
-1.03947e-17
-1.04033e-17
-1.04082e-17
-1.03971e-17
-1.04002e-17
-1.03933e-17
-1.04074e-17
-1.03785e-17
-1.04088e-17
-1.03791e-17
-1.04151e-17
-1.04102e-17
-1.04158e-17
-1.04084e-17
-1.0402e-17
-1.04098e-17
-1.04044e-17
-1.04172e-17
-1.04078e-17
-1.03996e-17
-1.04219e-17
-1.04109e-17
-1.0411e-17
-1.04243e-17
-1.04032e-17
-1.04215e-17
-1.04089e-17
-1.04128e-17
-1.04252e-17
-1.04172e-17
-1.04197e-17
-1.04222e-17
-1.04388e-17
-1.04204e-17
-1.04342e-17
-1.04251e-17
-1.04248e-17
-1.04179e-17
-1.0418e-17
-1.04066e-17
-1.04099e-17
-1.04164e-17
-1.04119e-17
-1.04141e-17
-1.04057e-17
-1.03954e-17
-1.04206e-17
-1.04111e-17
-1.04066e-17
-1.0405e-17
-1.03993e-17
-1.04035e-17
-1.04029e-17
-1.03942e-17
-1.03973e-17
-1.03956e-17
-1.04136e-17
-1.03917e-17
-1.04177e-17
-1.0401e-17
-1.04018e-17
-1.04063e-17
-1.0404e-17
-1.04127e-17
-1.04043e-17
-1.0406e-17
-1.04104e-17
-1.04023e-17
-1.04048e-17
-1.0408e-17
-1.04184e-17
-1.04108e-17
-1.04122e-17
-1.04232e-17
-1.04215e-17
-1.04103e-17
-1.04179e-17
-1.04096e-17
-1.04162e-17
-1.04197e-17
-1.0424e-17
-1.04222e-17
-1.04331e-17
-1.04073e-17
-1.0434e-17
-1.0417e-17
-1.0424e-17
-1.04173e-17
-1.04128e-17
-1.04113e-17
-1.04133e-17
-1.04108e-17
-1.04071e-17
-1.04043e-17
-1.04065e-17
-1.03939e-17
-1.04197e-17
-1.04145e-17
-1.04118e-17
-1.0404e-17
-1.04039e-17
-1.03982e-17
-1.03945e-17
-1.03922e-17
-1.04046e-17
-1.03955e-17
-1.0402e-17
-1.03963e-17
-1.04041e-17
-1.0406e-17
-1.0409e-17
-1.04012e-17
-1.0396e-17
-1.04086e-17
-1.04117e-17
-1.04041e-17
-1.04145e-17
-1.04044e-17
-1.04145e-17
-1.04085e-17
-1.04196e-17
-1.04106e-17
-1.04121e-17
-1.04158e-17
-1.04217e-17
-1.04082e-17
-1.04131e-17
-1.04006e-17
-1.04208e-17
-1.04201e-17
-1.04256e-17
-1.04151e-17
-1.04313e-17
-1.04195e-17
-1.04282e-17
-1.04137e-17
-1.04209e-17
-1.04096e-17
-1.04107e-17
-1.04132e-17
-1.04197e-17
-1.0405e-17
-1.04103e-17
-1.03998e-17
-1.04046e-17
-1.03927e-17
-1.04181e-17
-1.04146e-17
-1.04108e-17
-1.03993e-17
-1.04052e-17
-1.03994e-17
-1.03996e-17
-1.0392e-17
-1.04014e-17
-1.03968e-17
-1.04005e-17
-1.03965e-17
-1.04049e-17
-1.04083e-17
-1.04079e-17
-1.03995e-17
-1.04087e-17
-1.03976e-17
-1.04079e-17
-1.04033e-17
-1.0411e-17
-1.04062e-17
-1.04132e-17
-1.04076e-17
-1.04143e-17
-1.04105e-17
-1.04114e-17
-1.04126e-17
-1.04138e-17
-1.04072e-17
-1.04117e-17
-1.04087e-17
-1.04212e-17
-1.04075e-17
-1.04242e-17
-1.04133e-17
-1.0421e-17
-1.04227e-17
-1.04242e-17
-1.04138e-17
-1.04185e-17
-1.04137e-17
-1.04161e-17
-1.041e-17
-1.04148e-17
-1.04054e-17
-1.04106e-17
-1.04025e-17
-1.04018e-17
-1.04178e-17
-1.0412e-17
-1.04086e-17
-1.04002e-17
-1.04031e-17
-1.04011e-17
-1.04034e-17
-1.03956e-17
-1.04009e-17
-1.03989e-17
-1.04052e-17
-1.03966e-17
-1.04032e-17
-1.04016e-17
-1.04086e-17
-1.04013e-17
-1.04079e-17
-1.04025e-17
-1.04096e-17
-1.04066e-17
-1.0412e-17
-1.04073e-17
-1.04135e-17
-1.04088e-17
-1.04124e-17
-1.04104e-17
-1.04114e-17
-1.04112e-17
-1.04105e-17
-1.04048e-17
-1.04085e-17
-1.0411e-17
-1.04198e-17
-1.04132e-17
-1.042e-17
-1.04156e-17
-1.0423e-17
-1.04223e-17
-1.04241e-17
-1.04159e-17
-1.04163e-17
-1.04153e-17
-1.04165e-17
-1.04091e-17
-1.04125e-17
-1.04079e-17
-1.04108e-17
-1.04036e-17
-1.04172e-17
-1.04112e-17
-1.04096e-17
-1.04045e-17
-1.0403e-17
-1.0401e-17
-1.0403e-17
-1.03967e-17
-1.04002e-17
-1.03971e-17
-1.0406e-17
-1.0397e-17
-1.04059e-17
-1.04012e-17
-1.04086e-17
-1.04043e-17
-1.04061e-17
-1.04049e-17
-1.04087e-17
-1.04071e-17
-1.04119e-17
-1.0407e-17
-1.04117e-17
-1.04095e-17
-1.04126e-17
-1.04103e-17
-1.04113e-17
-1.04094e-17
-1.0409e-17
-1.04052e-17
-1.04079e-17
-1.04119e-17
-1.04144e-17
-1.04164e-17
-1.04177e-17
-1.04187e-17
-1.04222e-17
-1.04193e-17
-1.04225e-17
-1.04198e-17
-1.04181e-17
-1.0415e-17
-1.04161e-17
-1.04085e-17
-1.04119e-17
-1.04075e-17
-1.04076e-17
-1.04202e-17
-1.04108e-17
-1.04089e-17
-1.04044e-17
-1.04023e-17
-1.04015e-17
-1.03998e-17
-1.03966e-17
-1.04025e-17
-1.03989e-17
-1.04028e-17
-1.03971e-17
-1.04065e-17
-1.03993e-17
-1.04085e-17
-1.04046e-17
-1.04062e-17
-1.04037e-17
-1.04085e-17
-1.04056e-17
-1.041e-17
-1.04073e-17
-1.04104e-17
-1.04087e-17
-1.04133e-17
-1.04105e-17
-1.04113e-17
-1.04106e-17
-1.04105e-17
-1.04067e-17
-1.04091e-17
-1.04105e-17
-1.04136e-17
-1.04138e-17
-1.0417e-17
-1.04168e-17
-1.0424e-17
-1.04203e-17
-1.04226e-17
-1.04212e-17
-1.04163e-17
-1.04124e-17
-1.04157e-17
-1.04128e-17
-1.04131e-17
-1.04087e-17
-1.0418e-17
-1.04108e-17
-1.04068e-17
-1.04042e-17
-1.04031e-17
-1.04001e-17
-1.04013e-17
-1.03962e-17
-1.03995e-17
-1.03964e-17
-1.04027e-17
-1.03967e-17
-1.04049e-17
-1.04016e-17
-1.04065e-17
-1.04027e-17
-1.04067e-17
-1.04023e-17
-1.04087e-17
-1.04053e-17
-1.04087e-17
-1.04084e-17
-1.04099e-17
-1.04081e-17
-1.04123e-17
-1.04111e-17
-1.04115e-17
-1.04106e-17
-1.04105e-17
-1.04079e-17
-1.04101e-17
-1.04095e-17
-1.04139e-17
-1.0413e-17
-1.04179e-17
-1.0416e-17
-1.04213e-17
-1.04231e-17
-1.04231e-17
-1.04182e-17
-1.0419e-17
-1.04155e-17
-1.04155e-17
-1.04112e-17
-1.04134e-17
-1.04164e-17
-1.04102e-17
-1.04066e-17
-1.04036e-17
-1.04027e-17
-1.03968e-17
-1.04022e-17
-1.03963e-17
-1.03979e-17
-1.0397e-17
-1.04014e-17
-1.03969e-17
-1.04051e-17
-1.04015e-17
-1.04059e-17
-1.04028e-17
-1.04065e-17
-1.04032e-17
-1.04087e-17
-1.04052e-17
-1.04083e-17
-1.04073e-17
-1.04112e-17
-1.04082e-17
-1.04122e-17
-1.04103e-17
-1.04113e-17
-1.04098e-17
-1.04109e-17
-1.04097e-17
-1.04111e-17
-1.04103e-17
-1.04138e-17
-1.04142e-17
-1.04178e-17
-1.04167e-17
-1.04211e-17
-1.04204e-17
-1.04207e-17
-1.04187e-17
-1.04192e-17
-1.04172e-17
-1.04156e-17
-1.04089e-17
-1.04161e-17
-1.04174e-17
-1.04125e-17
-1.04094e-17
-1.04051e-17
-1.04021e-17
-1.03989e-17
-1.04021e-17
-1.03965e-17
-1.03992e-17
-1.03989e-17
-1.04019e-17
-1.03958e-17
-1.04049e-17
-1.04001e-17
-1.0405e-17
-1.04032e-17
-1.04062e-17
-1.04035e-17
-1.04083e-17
-1.0406e-17
-1.04082e-17
-1.04062e-17
-1.0411e-17
-1.04086e-17
-1.04116e-17
-1.041e-17
-1.04111e-17
-1.04104e-17
-1.04122e-17
-1.04095e-17
-1.04097e-17
-1.04105e-17
-1.04137e-17
-1.04145e-17
-1.04167e-17
-1.04173e-17
-1.04226e-17
-1.04194e-17
-1.04218e-17
-1.04178e-17
-1.0417e-17
-1.04157e-17
-1.04157e-17
-1.04092e-17
-1.0414e-17
-1.04175e-17
-1.04125e-17
-1.04102e-17
-1.04059e-17
-1.04027e-17
-1.03997e-17
-1.04012e-17
-1.03974e-17
-1.04012e-17
-1.03981e-17
-1.04007e-17
-1.0398e-17
-1.04043e-17
-1.04019e-17
-1.04059e-17
-1.04021e-17
-1.04071e-17
-1.04042e-17
-1.0408e-17
-1.0405e-17
-1.04073e-17
-1.04073e-17
-1.04104e-17
-1.04091e-17
-1.04113e-17
-1.041e-17
-1.04111e-17
-1.04114e-17
-1.04118e-17
-1.04098e-17
-1.04103e-17
-1.04097e-17
-1.04129e-17
-1.04141e-17
-1.04172e-17
-1.04165e-17
-1.04213e-17
-1.042e-17
-1.04219e-17
-1.04185e-17
-1.04163e-17
-1.04138e-17
-1.04147e-17
-1.04104e-17
-1.04137e-17
-1.04174e-17
-1.0412e-17
-1.04089e-17
-1.04041e-17
-1.04037e-17
-1.04e-17
-1.03998e-17
-1.03966e-17
-1.0401e-17
-1.03974e-17
-1.04021e-17
-1.03976e-17
-1.04048e-17
-1.04018e-17
-1.04061e-17
-1.04018e-17
-1.04071e-17
-1.04041e-17
-1.04076e-17
-1.04044e-17
-1.04074e-17
-1.04071e-17
-1.04097e-17
-1.04085e-17
-1.04112e-17
-1.04106e-17
-1.04112e-17
-1.0411e-17
-1.0411e-17
-1.04091e-17
-1.04106e-17
-1.04094e-17
-1.04125e-17
-1.04137e-17
-1.04165e-17
-1.04164e-17
-1.04214e-17
-1.042e-17
-1.04209e-17
-1.04173e-17