/*--------------------------------*- C++ -*----------------------------------*\
  =========                 |
  \\      /  F ield         | OpenFOAM: The Open Source CFD Toolbox
   \\    /   O peration     | Website:  https://openfoam.org
    \\  /    A nd           | Version:  7
     \\/     M anipulation  |
\*---------------------------------------------------------------------------*/
FoamFile
{
    version     2.0;
    format      ascii;
    class       volScalarField;
    location    "24000";
    object      strainRate;
}
// * * * * * * * * * * * * * * * * * * * * * * * * * * * * * * * * * * * * * //

dimensions      [0 0 -1 0 0 0 0];

internalField   nonuniform List<scalar> 
4825
(
0.000371429
0.00036873
0.000377452
0.00037461
0.000372373
0.000368419
0.000364074
0.000385373
0.00038198
0.000378668
0.000374484
0.000369884
0.000395457
0.000391334
0.000386872
0.000382297
0.00037736
0.000407238
0.000402447
0.000397259
0.000392278
0.000387014
0.000419989
0.000414837
0.000409342
0.000404135
0.000398701
0.00043259
0.000427622
0.000422336
0.000417296
0.000412052
0.000443516
0.000439468
0.00043505
0.000430775
0.000426278
0.000450982
0.000448671
0.000445895
0.000443121
0.000440009
0.000453316
0.00045345
0.000453081
0.000452534
0.000451239
0.000449545
0.000452456
0.000455035
0.000457195
0.000457493
0.000440029
0.000445418
0.000451009
0.000455801
0.000456335
0.000426958
0.000433728
0.0004417
0.00044818
0.000447432
0.000414497
0.000420753
0.000429659
0.000435786
0.000408691
0.000411818
0.000419358
0.000421859
0.000417554
0.00041418
0.000417024
0.000412654
0.000452091
0.0004376
0.000430749
0.00052913
0.000496412
0.000472966
0.000676803
0.000613983
0.000942857
0.000830111
0.00140337
0.00121019
0.00216342
0.00184999
0.00333595
0.00286469
0.00499574
0.000261414
0.000258573
0.000255928
0.000253192
0.000250443
0.000247745
0.000245153
0.000242708
0.000240434
0.000238344
0.000236543
0.00023497
0.000233449
0.000231946
0.000230429
0.000228878
0.00022729
0.000225672
0.000224052
0.000222494
0.000264907
0.000261885
0.00025917
0.000256402
0.000253628
0.000250903
0.000248276
0.000245783
0.000243445
0.000241272
0.000239387
0.000237763
0.000236193
0.000234653
0.000233123
0.000231594
0.000230084
0.000228648
0.000227416
0.000226672
0.000269141
0.000265866
0.000263033
0.000260204
0.000257389
0.000254625
0.000251954
0.00024941
0.000247011
0.000244773
0.000242809
0.000241108
0.000239485
0.000237909
0.000236371
0.000234874
0.000233462
0.000232238
0.000231429
0.000231494
0.00027424
0.000270695
0.000267709
0.000264792
0.000261915
0.000259098
0.000256374
0.000253772
0.000251313
0.000249018
0.000246976
0.000245184
0.000243501
0.00024189
0.000240345
0.000238887
0.000237579
0.000236568
0.000236148
0.000236893
0.000279945
0.000276158
0.000273002
0.000269975
0.000267021
0.000264139
0.000261353
0.000258689
0.000256167
0.000253814
0.000251696
0.000249812
0.000248066
0.000246417
0.000244866
0.000243446
0.000242237
0.00024141
0.000241287
0.000242469
0.000286073
0.000282106
0.000278783
0.000275636
0.000272591
0.000269634
0.000266781
0.00026405
0.000261464
0.00025905
0.000256855
0.000254883
0.000253071
0.000251383
0.000249825
0.000248436
0.000247308
0.000246615
0.000246661
0.000247955
0.000292495
0.00028842
0.000284952
0.000281684
0.000278543
0.000275507
0.000272581
0.000269782
0.000267131
0.000264653
0.000262383
0.000260328
0.000258449
0.00025672
0.00025515
0.000253781
0.000252708
0.000252089
0.000252164
0.000253248
0.000299118
0.000295005
0.000291425
0.000288046
0.000284812
0.000281696
0.000278698
0.00027583
0.000273113
0.000270571
0.000268229
0.000266097
0.000264153
0.000262381
0.000260792
0.000259431
0.000258382
0.000257774
0.000257759
0.0002584
0.000259455
0.000260667
0.000261345
0.000261577
0.000261593
0.000261578
0.000261646
0.000261856
0.000262228
0.000262767
0.000263465
0.000264315
0.000265327
0.000266561
0.000268253
0.000305872
0.000301779
0.000298126
0.000294654
0.000291334
0.000288143
0.000285076
0.000282145
0.000279365
0.00027676
0.000274351
0.000272148
0.000270143
0.000268327
0.000266714
0.000265345
0.000264291
0.000263641
0.000263451
0.000263567
0.00026318
0.000263883
0.000264473
0.00026476
0.000264857
0.000264908
0.000265021
0.000265259
0.000265652
0.000266208
0.000266928
0.000267815
0.000268894
0.000270254
0.00027213
0.000275173
0.000277837
0.00031271
0.000308677
0.000304984
0.000301443
0.00029805
0.000294792
0.000291664
0.000288674
0.000285839
0.000283176
0.000280707
0.000278441
0.00027638
0.000274521
0.000272879
0.000271489
0.000270404
0.000269671
0.000269263
0.000268895
0.000267646
0.000267839
0.000268261
0.000268546
0.000268694
0.000268799
0.000268956
0.000269225
0.000269641
0.00027022
0.000270968
0.000271899
0.00027305
0.000274515
0.000276467
0.000279038
0.000281917
0.000286023
0.000319614
0.000315655
0.000311948
0.000308355
0.000304903
0.000301587
0.000298406
0.000295367
0.000292484
0.000289772
0.000287251
0.000284932
0.000282821
0.000280921
0.000279247
0.000277827
0.000276692
0.000275852
0.000275218
0.000274459
0.000272911
0.000272676
0.000272895
0.000273134
0.000273304
0.000273451
0.000273647
0.000273948
0.00027439
0.000274995
0.000275776
0.000276754
0.000277972
0.000279515
0.000281474
0.000283588
0.000286486
0.000290131
0.000294593
0.000298262
0.000326603
0.000322703
0.000318991
0.000315356
0.000311851
0.000308484
0.000305257
0.000302175
0.00029925
0.000296498
0.000293934
0.000291571
0.000289418
0.000287481
0.000285775
0.000284316
0.000283121
0.000282165
0.000281324
0.000280286
0.00027869
0.000278139
0.000278154
0.000278318
0.000278488
0.000278662
0.000278891
0.000279222
0.000279692
0.000280325
0.00028114
0.000282163
0.000283439
0.000285032
0.000286958
0.000288914
0.000291716
0.000294792
0.000298603
0.000302421
0.000307136
0.000311105
0.000333748
0.000329865
0.000326129
0.000322445
0.000318882
0.000315461
0.000312186
0.000309062
0.000306099
0.000303311
0.000300711
0.000298312
0.000296123
0.000294154
0.000292415
0.000290915
0.000289654
0.000288585
0.00028757
0.000286352
0.000284802
0.00028404
0.000283871
0.000283947
0.000284098
0.000284287
0.000284542
0.000284901
0.000285397
0.000286058
0.000286907
0.000287971
0.000289293
0.000290911
0.000292797
0.000294728
0.000297381
0.000300135
0.000303283
0.00030703
0.000311173
0.000315286
0.000320281
0.000324202
0.000328159
0.000341183
0.000337243
0.000333438
0.000329674
0.000326029
0.000322534
0.000319196
0.000316021
0.000313014
0.000310187
0.000307551
0.000305118
0.000302897
0.000300897
0.000299124
0.000297582
0.000296254
0.000295082
0.00029393
0.000292608
0.000291126
0.000290236
0.000289916
0.000289901
0.00029002
0.000290214
0.000290488
0.00029087
0.000291392
0.00029208
0.000292959
0.000294059
0.000295414
0.000297043
0.000298895
0.000300844
0.000303348
0.00030591
0.000308723
0.00031229
0.000315838
0.000319894
0.000324257
0.000328296
0.000332536
0.000338031
0.000342834
0.000349106
0.000345011
0.000341063
0.00033716
0.000333386
0.000329777
0.000326344
0.00032309
0.000320019
0.000317138
0.000314456
0.000311982
0.000309724
0.000307688
0.000305878
0.000304289
0.000302895
0.000301631
0.000300376
0.000299
0.000297583
0.000296623
0.000296185
0.000296085
0.000296165
0.000296354
0.000296641
0.000297044
0.000297588
0.000298301
0.000299208
0.000300338
0.000301718
0.000303351
0.000305182
0.000307156
0.000309539
0.00031199
0.000314652
0.000318014
0.000321287
0.000325194
0.000328955
0.00033304
0.000337436
0.000342415
0.000347465
0.000353622
0.000358555
0.000363504
0.000357766
0.000353403
0.000349216
0.000345093
0.000341118
0.000337333
0.00033375
0.00033037
0.000327195
0.000324228
0.000321474
0.000318939
0.000316627
0.000314543
0.000312684
0.000311039
0.000309576
0.000308229
0.000306896
0.000305496
0.000304128
0.000303135
0.000302608
0.000302432
0.000302471
0.000302649
0.000302943
0.000303363
0.000303929
0.000304666
0.000305601
0.00030676
0.00030816
0.000309798
0.000311625
0.000313626
0.000315929
0.000318331
0.000320948
0.000324146
0.000327326
0.000331085
0.00033463
0.000338758
0.000343251
0.000347771
0.000352936
0.000358555
0.000363716
0.000368929
0.000367427
0.000362685
0.000358155
0.000353716
0.000349453
0.00034541
0.000341601
0.00033803
0.000334692
0.000331589
0.000328719
0.000326086
0.000323689
0.000321529
0.000319599
0.000317882
0.000316341
0.000314912
0.000313513
0.000312098
0.000310765
0.000309755
0.000309162
0.000308919
0.000308916
0.000309079
0.000309378
0.000309813
0.000310401
0.000311166
0.000312132
0.000313321
0.000314749
0.000316403
0.000318248
0.000320284
0.000322561
0.00032497
0.000327614
0.000330728
0.00033393
0.000337612
0.000341184
0.000345404
0.000350003
0.000354482
0.000359739
0.00036491
0.00037029
0.000375762
0.000378301
0.000373104
0.000368144
0.000363299
0.000358656
0.000354266
0.000350147
0.000346302
0.000342727
0.000339419
0.000336374
0.000333589
0.000331061
0.000328785
0.000326749
0.000324931
0.000323291
0.000321771
0.000320306
0.000318872
0.000317554
0.00031653
0.000315885
0.000315583
0.000315539
0.000315684
0.000315985
0.000316437
0.000317052
0.000317851
0.000318856
0.000320087
0.000321556
0.000323249
0.000325141
0.000327236
0.000329547
0.000332024
0.000334758
0.00033789
0.000341203
0.000344921
0.000348682
0.000353075
0.000357844
0.000362538
0.00036794
0.000373117
0.000378752
0.000384509
0.000390459
0.000384801
0.000379376
0.000374068
0.000368978
0.000364164
0.000359653
0.000355454
0.000351562
0.000347974
0.000344682
0.00034168
0.000338962
0.000336516
0.000334328
0.00033237
0.000330601
0.00032897
0.000327424
0.000325952
0.000324626
0.000323582
0.000322889
0.000322531
0.000322447
0.000322574
0.000322878
0.000323351
0.000324
0.000324844
0.000325903
0.000327196
0.000328729
0.000330494
0.000332472
0.000334666
0.000337075
0.000339688
0.00034258
0.000345833
0.000349343
0.000353221
0.000357283
0.000361939
0.000366966
0.000372022
0.000377648
0.000383088
0.000389005
0.000395038
0.000403717
0.000397708
0.000391873
0.000386121
0.000380572
0.0003753
0.000370349
0.000365735
0.00036146
0.000357522
0.000353915
0.000350629
0.000347657
0.000344983
0.000342589
0.000340444
0.000338509
0.000336735
0.000335083
0.000333548
0.000332186
0.000331104
0.00033036
0.000329949
0.000329824
0.000329933
0.000330244
0.000330744
0.000331438
0.000332343
0.000333478
0.000334857
0.000336488
0.000338363
0.000340473
0.000342816
0.000345392
0.000348208
0.000351327
0.000354799
0.000358583
0.000362728
0.000367168
0.000372158
0.000377512
0.000382986
0.000388884
0.000394666
0.000400822
0.000407041
0.000417516
0.000411422
0.000405371
0.000399309
0.000393386
0.000387705
0.000382329
0.000377292
0.000372608
0.000368282
0.000364312
0.000360692
0.000357412
0.000354458
0.000351808
0.000349431
0.00034729
0.00034534
0.00034355
0.00034192
0.000340493
0.000339355
0.00033855
0.000338082
0.000337916
0.000338009
0.00033833
0.000338866
0.00033962
0.000340605
0.000341838
0.000343333
0.000345097
0.000347125
0.000349412
0.000351956
0.000354758
0.000357835
0.000361239
0.000365001
0.000369113
0.000373594
0.000378437
0.000383781
0.000389467
0.000395313
0.000401438
0.000407472
0.000413699
0.000419878
0.000430835
0.000425101
0.000419196
0.000413114
0.000407042
0.000401119
0.000395438
0.000390058
0.000385013
0.000380322
0.000375993
0.000372028
0.00036842
0.000365157
0.00036222
0.00035958
0.000357202
0.000355048
0.000353094
0.00035134
0.000349822
0.000348607
0.000347732
0.000347203
0.000346995
0.000347074
0.00034741
0.00034799
0.000348816
0.000349899
0.000351253
0.00035289
0.000354817
0.000357032
0.000359531
0.000362312
0.000365379
0.000368749
0.000372464
0.000376542
0.000380986
0.000385799
0.000390992
0.00039662
0.000402535
0.000408581
0.000414745
0.000420761
0.00042673
0.000432474
0.0004422
0.000437426
0.000432198
0.000426553
0.00042072
0.000414876
0.000409149
0.000403631
0.000398382
0.000393443
0.00038884
0.000384587
0.000380688
0.000377138
0.000373924
0.000371023
0.000368404
0.000366039
0.000363908
0.000362016
0.00036039
0.000359086
0.000358135
0.000357543
0.000357294
0.00035736
0.000357715
0.000358345
0.000359251
0.000360441
0.000361927
0.00036372
0.000365824
0.000368237
0.000370957
0.000373978
0.000377306
0.000380952
0.000384943
0.000389289
0.000393985
0.000399025
0.000404407
0.000410122
0.00041602
0.000421944
0.000427789
0.000433337
0.000438552
0.000443318
0.000449851
0.000446702
0.000442789
0.000438175
0.000433118
0.000427826
0.000422465
0.000417158
0.000411999
0.000407053
0.000402372
0.000397987
0.00039392
0.00039018
0.000386762
0.000383655
0.000380838
0.000378292
0.000376005
0.000373985
0.000372257
0.000370867
0.000369844
0.000369194
0.000368908
0.000368962
0.000369335
0.000370014
0.000370997
0.000372289
0.000373898
0.000375834
0.000378096
0.000380681
0.000383583
0.000386793
0.000390311
0.000394139
0.000398286
0.000402749
0.000407509
0.00041254
0.000417816
0.000423274
0.000428753
0.000434079
0.00043909
0.000443586
0.000447448
0.000450631
0.00045214
0.000451166
0.000449173
0.000446212
0.00044254
0.00043838
0.000433918
0.000429305
0.00042466
0.000420081
0.000415642
0.000411399
0.000407395
0.000403655
0.000400194
0.000397013
0.000394105
0.000391463
0.000389087
0.00038699
0.000385197
0.00038375
0.000382676
0.000381984
0.000381669
0.000381714
0.0003821
0.000382814
0.000383851
0.000385215
0.000386908
0.000388933
0.000391288
0.000393962
0.000396942
0.000400214
0.000403765
0.000407584
0.000411659
0.00041597
0.000420474
0.000425127
0.000429868
0.000434593
0.000439126
0.00044328
0.000446866
0.000449699
0.000451644
0.000452747
0.000448119
0.000449521
0.000449805
0.000448962
0.000447204
0.000444733
0.000441729
0.00043835
0.000434732
0.00043099
0.000427219
0.0004235
0.000419895
0.000416451
0.0004132
0.000410162
0.000407347
0.000404764
0.000402426
0.000400352
0.000398574
0.000397131
0.000396052
0.00039535
0.000395023
0.00039506
0.000395444
0.000396163
0.00039721
0.000398582
0.000400277
0.00040229
0.00040461
0.00040722
0.000410098
0.000413215
0.000416547
0.000420064
0.000423733
0.000427511
0.000431337
0.000435142
0.000438835
0.00044229
0.000445325
0.000447756
0.000449407
0.000450131
0.000449841
0.00044871
0.000438191
0.00044159
0.000444025
0.000445378
0.000445767
0.000445328
0.0004442
0.000442517
0.000440403
0.000437974
0.000435334
0.000432573
0.000429769
0.000426987
0.000424276
0.000421673
0.000419208
0.000416904
0.000414789
0.000412893
0.000411253
0.000409912
0.0004089
0.000408236
0.000407922
0.000407952
0.000408312
0.000408989
0.000409973
0.000411255
0.000412825
0.000414671
0.000416771
0.000419099
0.00042162
0.000424292
0.000427076
0.000429925
0.000432785
0.000435598
0.000438285
0.000440765
0.000442934
0.000444662
0.000445791
0.000446166
0.000445667
0.000444227
0.000441862
0.000438908
0.000424587
0.000428893
0.000432697
0.000435733
0.00043799
0.000439498
0.000440314
0.000440513
0.000440176
0.00043939
0.000438242
0.000436817
0.000435192
0.000433437
0.000431611
0.000429764
0.000427938
0.000426172
0.000424503
0.000422975
0.00042163
0.000420515
0.000419665
0.000419102
0.000418834
0.000418858
0.000419164
0.000419736
0.000420562
0.000421628
0.000422915
0.000424402
0.000426059
0.000427848
0.000429722
0.000431631
0.000433522
0.000435337
0.000437012
0.000438482
0.000439668
0.000440495
0.000440869
0.000440692
0.000439855
0.000438276
0.000435927
0.000432857
0.000429228
0.00042556
0.000411508
0.000414916
0.000418603
0.00042213
0.000425332
0.000428108
0.000430407
0.00043221
0.000433527
0.000434385
0.000434826
0.000434902
0.000434669
0.000434184
0.000433499
0.000432665
0.000431727
0.000430731
0.000429721
0.000428747
0.000427855
0.000427094
0.000426502
0.000426106
0.000425918
0.000425938
0.000426156
0.000426559
0.00042713
0.000427849
0.000428695
0.000429636
0.000430637
0.000431653
0.000432632
0.000433521
0.000434264
0.000434802
0.000435079
0.000435042
0.000434633
0.000433807
0.000432515
0.000430717
0.00042839
0.000425552
0.000422296
0.000418811
0.000415427
0.000412851
0.000404994
0.000405057
0.000406492
0.000408661
0.00041123
0.000413958
0.000416664
0.00041922
0.00042154
0.000423565
0.000425269
0.000426645
0.000427704
0.000428466
0.00042896
0.000429217
0.000429273
0.000429165
0.000428937
0.000428632
0.000428299
0.000427983
0.000427721
0.000427542
0.000427458
0.000427474
0.00042758
0.000427765
0.000428009
0.000428291
0.000428587
0.000428864
0.000429086
0.00042921
0.000429191
0.000428981
0.000428538
0.000427822
0.000426802
0.00042546
0.000423784
0.000421785
0.000419484
0.000416929
0.000414201
0.00041144
0.000408874
0.000406842
0.000405852
0.000406826
0.000413002
0.00040654
0.000402942
0.000401292
0.000401054
0.000401821
0.000403271
0.000405153
0.000407264
0.000409449
0.00041159
0.000413604
0.000415436
0.00041705
0.000418429
0.000419568
0.000420475
0.000421166
0.000421667
0.000422008
0.000422226
0.000422357
0.000422433
0.000422479
0.000422506
0.000422517
0.000422508
0.000422465
0.000422374
0.000422215
0.000421966
0.000421603
0.000421097
0.000420421
0.000419544
0.000418445
0.00041711
0.000415536
0.000413739
0.000411756
0.000409642
0.000407483
0.00040539
0.000403519
0.000402068
0.000401313
0.000401632
0.000403537
0.000407746
0.000415475
0.000446408
0.000428993
0.000416614
0.000407898
0.000402009
0.000398309
0.000396288
0.000395536
0.000395715
0.000396552
0.000397821
0.000399347
0.000400993
0.000402653
0.000404246
0.000405715
0.000407024
0.000408154
0.000409098
0.000409863
0.000410463
0.000410918
0.000411245
0.00041146
0.000411572
0.00041158
0.000411482
0.000411267
0.000410926
0.000410448
0.000409822
0.000409039
0.00040809
0.000406972
0.000405688
0.000404253
0.000402698
0.000401075
0.000399461
0.000397966
0.000396726
0.00039592
0.000395769
0.00039655
0.000398609
0.000402389
0.000408461
0.000417578
0.000430778
0.000449756
0.000521824
0.000486516
0.000459695
0.000439208
0.000423699
0.000412137
0.000403707
0.000397754
0.000393746
0.000391242
0.000389882
0.000389372
0.000389473
0.000389991
0.000390769
0.000391683
0.00039264
0.000393572
0.000394431
0.000395187
0.000395823
0.000396334
0.000396719
0.000396979
0.000397113
0.000397118
0.000396993
0.000396732
0.000396334
0.000395803
0.000395144
0.000394373
0.00039351
0.000392587
0.00039165
0.000390766
0.000390022
0.000389538
0.00038947
0.000390014
0.00039141
0.000393955
0.00039801
0.000404024
0.000412551
0.000424289
0.000440124
0.000461214
0.000489146
0.000526437
0.000667078
0.000602159
0.000551469
0.000511568
0.000480194
0.00045562
0.000436487
0.000421711
0.000410421
0.00040191
0.000395603
0.000391031
0.000387811
0.000385629
0.000384227
0.000383396
0.000382971
0.000382821
0.000382843
0.000382964
0.000383127
0.000383296
0.000383445
0.000383556
0.000383617
0.000383621
0.000383564
0.00038345
0.000383289
0.000383102
0.000382919
0.000382784
0.000382757
0.000382914
0.000383357
0.000384214
0.000385648
0.000387865
0.000391122
0.000395734
0.000402089
0.000410658
0.000422025
0.000436913
0.000456231
0.000481129
0.000513038
0.00055384
0.000606073
0.00067359
0.000929589
0.000815415
0.000724791
0.000652411
0.000594566
0.000548359
0.000511493
0.000482123
0.000458776
0.000440271
0.000425661
0.000414175
0.000405194
0.000398213
0.00039282
0.000388682
0.000385529
0.000383142
0.000381351
0.000380019
0.000379043
0.000378347
0.000377872
0.000377579
0.000377441
0.000377443
0.000377582
0.000377871
0.000378334
0.000379013
0.000379971
0.000381289
0.000383076
0.000385467
0.000388637
0.000392801
0.000398226
0.000405246
0.000414272
0.00042581
0.000440486
0.000459077
0.000482547
0.000512108
0.000549299
0.000596062
0.000654771
0.000728507
0.00082131
0.000938939
0.00138531
0.00119168
0.00103531
0.000908806
0.000806544
0.000723945
0.000657268
0.000603429
0.000559936
0.000524796
0.000496405
0.000473464
0.000454931
0.000439973
0.000427916
0.000418214
0.000410427
0.000404201
0.000399253
0.000395361
0.000392351
0.000390089
0.000388477
0.000387441
0.000386935
0.000386936
0.000387441
0.000388471
0.000390072
0.000392317
0.00039531
0.000399188
0.000404131
0.000410362
0.000418166
0.000427895
0.00043999
0.000454995
0.000473585
0.000496597
0.000525082
0.000560353
0.000604042
0.0006582
0.000725425
0.000808958
0.000912592
0.00104113
0.00120055
0.00139867
0.00213993
0.00182776
0.0015696
0.00135689
0.00118231
0.0010395
0.00092297
0.000827937
0.000750423
0.000687178
0.000635545
0.000593335
0.000558789
0.0005305
0.000507337
0.000488384
0.000472902
0.0004603
0.000450107
0.000441955
0.000435553
0.000430678
0.00042716
0.000424881
0.000423761
0.000423761
0.000424879
0.000427152
0.000430657
0.000435517
0.000441902
0.000450041
0.000460227
0.000472835
0.000488335
0.00050732
0.000530531
0.000558882
0.000593507
0.00063582
0.000687592
0.00075104
0.000828866
0.000924418
0.00104185
0.00118618
0.00136287
0.0015785
0.00184072
0.00215828
0.00330845
0.0028406
0.00244147
0.00210385
0.00182043
0.00158405
0.00138803
0.00122596
0.0010922
0.000981969
0.000891186
0.000816364
0.000754654
0.00070374
0.000661746
0.000627134
0.000598652
0.000575299
0.000556281
0.000540972
0.00052888
0.000519624
0.000512918
0.000508558
0.00050641
0.00050641
0.000508555
0.000512909
0.000519603
0.000528842
0.000540918
0.000556213
0.000575224
0.000598584
0.000627089
0.000661743
0.000703803
0.000754803
0.000816627
0.0008916
0.000982594
0.00109314
0.00122738
0.00139027
0.0015877
0.00182644
0.0021129
0.00245438
0.00285841
0.00333184
0.00496798
0.00432811
0.00376239
0.00326808
0.00284059
0.0024744
0.00216348
0.00190103
0.00168052
0.00149599
0.00134206
0.00121378
0.00110699
0.00101818
0.000944422
0.000883279
0.0008327
0.000791039
0.000756976
0.000729461
0.000707665
0.00069094
0.000678799
0.000670893
0.000666996
0.000666996
0.000670891
0.000678791
0.00069092
0.000707629
0.000729408
0.000756907
0.000790963
0.000832633
0.000883243
0.000944446
0.00101829
0.00110724
0.0012142
0.00134269
0.00149694
0.00168193
0.00190316
0.00216681
0.00247978
0.00284937
0.00328081
0.00377965
0.00435038
0.00499467
0.00710754
0.00631452
0.00558809
0.00493096
0.0043434
0.00382395
0.00336978
0.00297591
0.0026368
0.00234675
0.00210016
0.0018912
0.00171471
0.00156612
0.00144144
0.00133717
0.00125029
0.00117829
0.00111912
0.00107113
0.00103299
0.00100365
0.000982311
0.000968395
0.000961531
0.000961532
0.000968397
0.000982308
0.00100364
0.00103296
0.00107109
0.00111906
0.00117822
0.00125023
0.00133716
0.00144151
0.00156633
0.0017151
0.00189183
0.0021011
0.00234814
0.00263882
0.00297892
0.00337439
0.00383125
0.00435514
0.00494719
0.00560881
0.00633921
0.00713376
0.00961772
0.00872146
0.00787506
0.00708416
0.00635383
0.00568716
0.00508573
0.00454827
0.00407221
0.00365412
0.00328997
0.00297453
0.0027028
0.00246999
0.00227165
0.00210361
0.00196198
0.00184347
0.0017453
0.00166515
0.00160111
0.00155164
0.00151554
0.00149196
0.0014803
0.00148031
0.00149196
0.00151555
0.00155164
0.0016011
0.00166512
0.00174525
0.00184341
0.00196194
0.00210363
0.00227179
0.00247032
0.00270339
0.00297544
0.00329129
0.00365601
0.00407489
0.00455217
0.00509154
0.0056961
0.00636797
0.00710266
0.00789702
0.008745
0.00963919
0.0123366
0.0113963
0.0104882
0.00961735
0.00879122
0.00801567
0.00729536
0.00663284
0.00602916
0.00548424
0.00499701
0.00456441
0.00418314
0.00384955
0.00355992
0.00331034
0.00309681
0.00291579
0.00276415
0.00263917
0.00253854
0.00246031
0.00240296
0.00236536
0.00234675
0.00234675
0.00236538
0.00240299
0.00246034
0.00253856
0.00263919
0.00276414
0.00291577
0.00309681
0.00331041
0.00356016
0.00385004
0.00418396
0.00456562
0.00499871
0.00548659
0.00603239
0.00663739
0.00730195
0.00802551
0.00880652
0.00963606
0.0105083
0.0114151
0.0151156
0.014178
0.0132603
0.0123648
0.0114988
0.0106686
0.00987939
0.009136
0.00844196
0.00779985
0.00721126
0.00667612
0.00619361
0.00576224
0.0053801
0.00504463
0.00475275
0.00450158
0.00428839
0.00411069
0.00396624
0.00385308
0.00376963
0.00371468
0.00368742
0.00368743
0.00371472
0.00376969
0.00385316
0.00396632
0.00411077
0.00428845
0.00450161
0.0047528
0.00504477
0.00538043
0.00576289
0.00619463
0.00667757
0.00721324
0.00780249
0.00844549
0.00914083
0.00988617
0.0106784
0.0115137
0.0123812
0.0132757
0.0178588
0.0169498
0.016055
0.0151739
0.0143122
0.0134749
0.0126669
0.0118929
0.0111572
0.0104636
0.0098148
0.00921321
0.00866008
0.00815606
0.0077012
0.00729473
0.00693532
0.00662147
0.00635153
0.00612395
0.00593711
0.00578957
0.00568007
0.00560764
0.00557161
0.00557163
0.0056077
0.00568017
0.0057897
0.00593726
0.0061241
0.00635168
0.00662157
0.00693544
0.00729493
0.00770161
0.00815683
0.00866124
0.0092148
0.0098169
0.0104663
0.0111608
0.0118976
0.0126733
0.013484
0.0143248
0.015186
0.0205235
0.019652
0.0187938
0.017946
0.0171128
0.0162981
0.0155055
0.0147389
0.0140024
0.0132993
0.0126329
0.0120062
0.0114217
0.0108814
0.0103865
0.0099379
0.00953588
0.00918043
0.00887123
0.00860791
0.00838984
0.00821638
0.00808691
0.00800091
0.00795802
0.00795805
0.00800099
0.00808704
0.00821656
0.00839007
0.00860815
0.00887146
0.0091806
0.00953606
0.00993814
0.010387
0.0108822
0.0114229
0.0120078
0.012635
0.013302
0.0140057
0.0147433
0.0155113
0.0163059
0.0171221
0.0231022
0.0222677
0.0214476
0.0206376
0.0198411
0.0190609
0.0182997
0.0175607
0.016847
0.0161616
0.0155071
0.0148868
0.0143032
0.0137587
0.0132553
0.0127944
0.0123775
0.0120056
0.0116793
0.0113994
0.0111661
0.0109794
0.0108395
0.0107462
0.0106996
0.0106997
0.0107463
0.0108396
0.0109797
0.0111664
0.0113997
0.0116796
0.0120058
0.0123777
0.0127946
0.0132557
0.0137596
0.0143044
0.0148884
0.0155091
0.016164
0.01685
0.0175646
0.0183047
0.0190674
0.0256034
0.0248016
0.024016
0.0232415
0.0224807
0.021736
0.0210097
0.0203042
0.0196221
0.0189658
0.0183375
0.01774
0.0171757
0.0166468
0.0161554
0.0157031
0.0152918
0.014923
0.0145978
0.0143175
0.0140829
0.0138945
0.0137529
0.0136583
0.013611
0.013611
0.0136584
0.013753
0.0138948
0.0140832
0.0143179
0.0145982
0.0149232
0.0152921
0.0157034
0.0161559
0.0166477
0.0171769
0.0177415
0.0183394
0.018968
0.0196248
0.0203076
0.021014
0.0217414
0.0280394
0.0272658
0.0265101
0.0257664
0.0250371
0.0243245
0.0236303
0.0229569
0.0223063
0.0216806
0.0210817
0.0205119
0.0199733
0.0194678
0.0189975
0.0185637
0.0181684
0.0178131
0.0174991
0.0172279
0.0170005
0.0168175
0.0166798
0.0165877
0.0165416
0.0165416
0.0165878
0.01668
0.0168178
0.0170008
0.0172283
0.0174995
0.0178134
0.0181687
0.018564
0.0189979
0.0194687
0.0199744
0.0205133
0.0210834
0.0216827
0.0223088
0.0229599
0.0236341
0.0243289
0.0304211
0.0296722
0.0289423
0.0282252
0.0275231
0.0268381
0.0261719
0.0255265
0.024904
0.024306
0.0237343
0.0231908
0.0226774
0.022196
0.021748
0.0213349
0.0209583
0.0206198
0.0203205
0.0200618
0.0198447
0.0196701
0.0195385
0.0194505
0.0194064
0.0194065
0.0194506
0.0195387
0.0196704
0.0198451
0.0200623
0.0203209
0.0206201
0.0209587
0.0213352
0.0217485
0.0221968
0.0226786
0.0231921
0.0237359
0.0243079
0.0249062
0.0255292
0.0261751
0.0268418
0.0327565
0.0320298
0.0313228
0.0306291
0.0299507
0.0292896
0.0286475
0.0280263
0.0274278
0.0268537
0.0263056
0.0257851
0.0252941
0.024834
0.0244064
0.0240124
0.0236535
0.023331
0.0230459
0.0227997
0.0225932
0.022427
0.0223018
0.022218
0.0221761
0.0221762
0.0222182
0.022302
0.0224273
0.0225935
0.0228002
0.0230464
0.0233314
0.0236539
0.0240127
0.0244069
0.0248349
0.0252952
0.0257865
0.0263071
0.0268555
0.0274299
0.0280287
0.0286503
0.0292927
0.0350513
0.034345
0.033659
0.0329864
0.0323292
0.0316893
0.0310684
0.0304683
0.0298907
0.0293372
0.0288093
0.0283087
0.0278368
0.0273951
0.0269851
0.0266075
0.0262639
0.0259554
0.0256829
0.0254477
0.0252505
0.0250919
0.0249724
0.0248926
0.0248526
0.0248526
0.0248927
0.0249726
0.0250922
0.0252509
0.0254482
0.0256835
0.0259558
0.0262644
0.0266079
0.0269856
0.0273961
0.0278379
0.02831
0.0288109
0.029339
0.0298926
0.0304706
0.0310709
0.0316916
0.0373089
0.0366219
0.0359555
0.0353026
0.034665
0.0340444
0.0334427
0.0328616
0.0323026
0.0317673
0.0312573
0.0307739
0.0303186
0.0298928
0.0294978
0.0291343
0.0288039
0.0285074
0.0282457
0.02802
0.0278307
0.0276786
0.027564
0.0274875
0.0274491
0.0274492
0.0274876
0.0275642
0.0276789
0.0278311
0.0280205
0.0282463
0.0285079
0.0288045
0.0291349
0.0294984
0.0298938
0.0303198
0.0307752
0.0312588
0.0317691
0.0323045
0.0328637
0.033445
0.0340458
0.0395317
0.0388633
0.0382156
0.0375813
0.0369621
0.0363598
0.0357759
0.0352123
0.0346704
0.0341517
0.0336578
0.0331899
0.0327494
0.0323377
0.0319558
0.0316048
0.0312858
0.0309998
0.0307475
0.0305299
0.0303476
0.030201
0.0300907
0.030017
0.0299801
0.0299801
0.0300171
0.0300909
0.0302013
0.030348
0.0305304
0.0307481
0.0310005
0.0312866
0.0316056
0.0319567
0.0323388
0.0327507
0.0331913
0.0336593
0.0341535
0.0346723
0.0352144
0.035778
0.0417214
0.041071
0.0404414
0.0398249
0.0392234
0.0386384
0.0380715
0.0375244
0.0369985
0.0364954
0.0360164
0.0355628
0.035136
0.0347371
0.0343669
0.0340271
0.0337184
0.0334418
0.0331982
0.0329879
0.0328116
0.03267
0.0325634
0.0324922
0.0324566
0.0324566
0.0324923
0.0325636
0.0326703
0.032812
0.0329884
0.0331989
0.0334429
0.0337197
0.0340285
0.0343684
0.0347384
0.0351374
0.0355643
0.0360181
0.0364973
0.0370005
0.0375266
0.0380736
0.043879
0.0432462
0.0426341
0.042035
0.0414505
0.0408822
0.0403316
0.0398003
0.0392898
0.0388015
0.0383366
0.0378966
0.0374826
0.0370957
0.0367365
0.0364071
0.036108
0.03584
0.0356043
0.0354007
0.03523
0.0350929
0.0349897
0.0349208
0.0348863
0.0348863
0.0349209
0.0349899
0.0350932
0.0352304
0.0354012
0.0356051
0.0358414
0.0361097
0.0364092
0.0367387
0.0370974
0.0374843
0.0378985
0.0383387
0.0388037
0.0392922
0.0398029
0.0403341
0.0460054
0.0453898
0.0447948
0.0442127
0.0436448
0.0430927
0.042558
0.0420421
0.0415464
0.0410723
0.0406211
0.040194
0.0397922
0.0394168
0.0379704
0.037773
0.0376075
0.0374746
0.0373747
0.0373078
0.0372744
0.0372745
0.037308
0.0373749
0.037475
0.037608
0.0377735
0.0379711
0.0382003
0.0384605
0.0387512
0.0390709
0.0394188
0.0397943
0.0401961
0.0406234
0.0410748
0.0415493
0.0420452
0.042561
0.0410571
0.0413672
0.0417049
0.0420692
0.0424592
0.0428739
0.0433121
0.043773
0.0442545
0.0447554
0.0459645
0.0464319
0.0469183
0.000261668
0.000265666
0.000270263
0.000275591
0.00028138
0.000287463
0.000293741
0.000300159
0.000306687
0.000313308
0.000320024
0.000326861
0.000333891
0.000341244
0.000349113
0.000357738
0.000367379
0.000378242
0.000390397
0.000403655
0.000417456
0.000430781
0.000442151
0.000449809
0.000452103
0.000448086
0.000438159
0.000424556
0.000411476
0.00040496