/*--------------------------------*- C++ -*----------------------------------*\
  =========                 |
  \\      /  F ield         | OpenFOAM: The Open Source CFD Toolbox
   \\    /   O peration     | Website:  https://openfoam.org
    \\  /    A nd           | Version:  7
     \\/     M anipulation  |
\*---------------------------------------------------------------------------*/
FoamFile
{
    version     2.0;
    format      ascii;
    class       volVectorField;
    location    "120000";
    object      U;
}
// * * * * * * * * * * * * * * * * * * * * * * * * * * * * * * * * * * * * * //

dimensions      [0 1 -1 0 0 0 0];

internalField   nonuniform List<vector> 
4782
(
(1.31964e-18 7.66664e-19 -0.00977061)
(1.42015e-18 5.82838e-19 -0.00967931)
(1.49192e-18 4.88478e-19 -0.00958601)
(1.50299e-18 5.15919e-19 -0.0094906)
(1.45305e-18 6.33816e-19 -0.00939298)
(1.36703e-18 7.59131e-19 -0.00929301)
(1.37816e-18 7.41973e-19 -0.00919059)
(1.43696e-18 6.63311e-19 -0.00908556)
(1.40032e-18 7.32387e-19 -0.00897778)
(1.3606e-18 8.17542e-19 -0.0088671)
(1.6014e-19 1.15975e-18 -0.0127076)
(5.0693e-19 8.69248e-19 -0.0126561)
(6.33476e-19 8.96376e-19 -0.0126042)
(6.11007e-19 1.04768e-18 -0.0125519)
(5.42611e-19 1.21133e-18 -0.0124991)
(4.70976e-19 1.33267e-18 -0.012446)
(2.48203e-19 1.67041e-18 -0.0123924)
(2.37105e-19 1.70763e-18 -0.0123384)
(5.85967e-19 1.24033e-18 -0.0122839)
(7.61804e-19 9.69763e-19 -0.012229)
(8.08628e-19 8.19619e-19 -0.0121735)
(8.39387e-19 6.99876e-19 -0.0121175)
(8.0619e-19 7.03064e-19 -0.012061)
(7.38187e-19 7.58871e-19 -0.0120039)
(6.82849e-19 8.34219e-19 -0.0119463)
(6.96281e-19 8.49266e-19 -0.0118881)
(7.81196e-19 7.94941e-19 -0.0118293)
(8.44269e-19 7.29943e-19 -0.0117698)
(1.01544e-18 5.09307e-19 -0.0117098)
(1.25689e-18 2.09031e-19 -0.0116491)
(1.48113e-18 -1.07525e-19 -0.0115877)
(1.42379e-18 -9.64234e-20 -0.0115257)
(9.35891e-19 4.84312e-19 -0.011463)
(5.74411e-19 9.07418e-19 -0.0113995)
(6.01214e-19 8.31341e-19 -0.0113353)
(8.32913e-19 5.1363e-19 -0.0112702)
(1.09878e-18 1.51521e-19 -0.0112044)
(1.20884e-18 8.16714e-21 -0.0111378)
(1.19142e-18 3.96778e-20 -0.0110702)
(1.11481e-18 1.58426e-19 -0.0110018)
(1.16459e-18 1.02392e-19 -0.0109324)
(1.38772e-18 -1.48495e-19 -0.010862)
(1.4711e-18 -2.19265e-19 -0.0107907)
(1.37615e-18 -7.64476e-20 -0.0107182)
(1.24474e-18 1.01716e-19 -0.0106447)
(1.26302e-18 8.93401e-20 -0.01057)
(1.30787e-18 6.75264e-20 -0.0104941)
(1.22309e-18 2.0065e-19 -0.0104169)
(1.15555e-18 2.56022e-19 -0.0103385)
(1.14515e-18 2.30616e-19 -0.0102586)
(1.0497e-18 3.24319e-19 -0.0101773)
(9.58434e-19 4.16148e-19 -0.0100946)
(9.31448e-19 4.17225e-19 -0.0100102)
(7.80512e-19 5.93867e-19 -0.00992423)
(5.57512e-19 8.86927e-19 -0.0098365)
(4.83258e-19 9.98802e-19 -0.00974696)
(6.10599e-19 8.36212e-19 -0.0096555)
(7.92602e-19 5.71623e-19 -0.00956204)
(8.17836e-19 5.00751e-19 -0.00946647)
(6.57002e-19 6.62868e-19 -0.00936867)
(4.54602e-19 8.94956e-19 -0.00926853)
(3.34995e-19 1.01929e-18 -0.00916592)
(3.95965e-19 8.83605e-19 -0.0090607)
(5.983e-19 5.5738e-19 -0.00895273)
(6.12366e-19 4.87188e-19 -0.00884186)
(5.77226e-19 9.94937e-19 -0.0126871)
(5.35477e-19 9.04698e-19 -0.0126356)
(4.8074e-19 8.41645e-19 -0.0125836)
(4.27839e-19 8.38042e-19 -0.0125312)
(4.36393e-19 7.58944e-19 -0.0124785)
(4.32296e-19 7.7036e-19 -0.0124253)
(3.36528e-19 9.19498e-19 -0.0123717)
(2.76849e-19 1.14154e-18 -0.0123176)
(1.76356e-19 1.34811e-18 -0.0122631)
(-1.54458e-21 1.54965e-18 -0.0122081)
(-1.60376e-19 1.68164e-18 -0.0121525)
(-2.0606e-19 1.65055e-18 -0.0120965)
(-1.80379e-19 1.53421e-18 -0.0120399)
(-1.02852e-19 1.41839e-18 -0.0119827)
(9.00402e-20 1.22234e-18 -0.011925)
(2.26526e-19 1.13146e-18 -0.0118667)
(1.21075e-19 1.31914e-18 -0.0118078)
(-1.03785e-19 1.63255e-18 -0.0117483)
(-1.50794e-19 1.69496e-18 -0.0116882)
(-9.66896e-20 1.59418e-18 -0.0116274)
(-1.45123e-19 1.60071e-18 -0.011566)
(-3.15564e-19 1.74946e-18 -0.0115039)
(-4.39739e-19 1.89848e-18 -0.0114411)
(-3.48724e-19 1.85918e-18 -0.0113775)
(-1.11128e-19 1.64398e-18 -0.0113132)
(1.56548e-20 1.52527e-18 -0.0112481)
(8.56151e-20 1.43391e-18 -0.0111822)
(3.62811e-19 1.05057e-18 -0.0111155)
(6.18131e-19 7.10125e-19 -0.0110479)
(5.89934e-19 7.43786e-19 -0.0109793)
(5.73732e-19 7.65653e-19 -0.0109098)
(6.4088e-19 6.44344e-19 -0.0108394)
(6.11575e-19 6.24809e-19 -0.0107679)
(5.01972e-19 6.98575e-19 -0.0106954)
(5.29786e-19 6.2737e-19 -0.0106217)
(7.40041e-19 3.61367e-19 -0.0105469)
(7.87742e-19 2.82629e-19 -0.0104709)
(5.49323e-19 5.51401e-19 -0.0103936)
(3.15876e-19 8.14379e-19 -0.010315)
(3.16202e-19 7.84656e-19 -0.0102351)
(3.90679e-19 6.62077e-19 -0.0101536)
(4.41901e-19 5.78666e-19 -0.0100707)
(4.70922e-19 5.17229e-19 -0.00998624)
(5.51913e-19 3.95689e-19 -0.0099001)
(7.19394e-19 2.09403e-19 -0.00981222)
(8.18335e-19 1.25077e-19 -0.00972252)
(7.18057e-19 2.672e-19 -0.0096309)
(5.83044e-19 4.28461e-19 -0.00953727)
(4.9802e-19 5.1129e-19 -0.00944152)
(4.90048e-19 5.00337e-19 -0.00934355)
(5.16037e-19 4.64704e-19 -0.00924322)
(3.89352e-19 6.34254e-19 -0.00914042)
(2.68773e-19 8.01771e-19 -0.009035)
(2.91942e-19 7.73841e-19 -0.00892683)
(3.80557e-19 6.4588e-19 -0.00881574)
(-1.31726e-18 1.72149e-18 -0.0126661)
(-1.1538e-18 1.5437e-18 -0.0126145)
(-9.00066e-19 1.21094e-18 -0.0125625)
(-7.89253e-19 1.05134e-18 -0.0125101)
(-6.68716e-19 8.72332e-19 -0.0124573)
(-4.64185e-19 6.47738e-19 -0.012404)
(-2.73615e-19 4.75156e-19 -0.0123503)
(-1.10965e-19 3.6884e-19 -0.0122962)
(-2.39524e-19 6.50972e-19 -0.0122416)
(-4.81164e-19 1.03779e-18 -0.0121865)
(-5.38177e-19 1.22959e-18 -0.0121309)
(-4.31163e-19 1.24184e-18 -0.0120748)
(-1.04291e-19 1.02274e-18 -0.0120181)
(3.90309e-19 6.05639e-19 -0.0119609)
(7.52509e-19 3.19576e-19 -0.0119031)
(8.18424e-19 3.48657e-19 -0.0118447)
(7.21691e-19 5.46482e-19 -0.0117858)
(6.27226e-19 7.58724e-19 -0.0117262)
(6.17373e-19 8.86421e-19 -0.011666)
(6.9679e-19 9.03279e-19 -0.0116052)
(8.67453e-19 7.9601e-19 -0.0115437)
(1.07542e-18 6.30744e-19 -0.0114815)
(1.19882e-18 5.79602e-19 -0.0114186)
(1.24414e-18 6.47522e-19 -0.011355)
(1.19519e-18 8.34728e-19 -0.0112906)
(1.11208e-18 1.0134e-18 -0.0112254)
(1.10467e-18 1.10708e-18 -0.0111594)
(1.20179e-18 1.07364e-18 -0.0110926)
(1.40776e-18 8.82994e-19 -0.0110249)
(1.46835e-18 8.29956e-19 -0.0109562)
(1.35872e-18 9.76988e-19 -0.0108867)
(1.31118e-18 1.02206e-18 -0.0108161)
(1.28943e-18 1.04093e-18 -0.0107445)
(1.29063e-18 1.03433e-18 -0.0106719)
(1.43353e-18 8.45984e-19 -0.0105981)
(1.53564e-18 6.80604e-19 -0.0105232)
(1.47651e-18 6.96883e-19 -0.010447)
(1.36362e-18 7.89475e-19 -0.0103696)
(1.29989e-18 8.61742e-19 -0.0102909)
(1.28902e-18 8.73441e-19 -0.0102108)
(1.27435e-18 8.62654e-19 -0.0101293)
(1.24627e-18 8.61013e-19 -0.0100462)
(1.24912e-18 8.40794e-19 -0.00996157)
(1.38348e-18 6.98043e-19 -0.00987527)
(1.50994e-18 5.66695e-19 -0.00978723)
(1.45112e-18 6.40485e-19 -0.00969737)
(1.35888e-18 7.38636e-19 -0.00960558)
(1.32126e-18 7.70457e-19 -0.00951177)
(1.27862e-18 8.01875e-19 -0.00941584)
(1.26933e-18 8.06161e-19 -0.00931767)
(1.33851e-18 7.15485e-19 -0.00921715)
(1.41342e-18 6.16344e-19 -0.00911414)
(1.39737e-18 6.34676e-19 -0.00900852)
(1.36166e-18 6.84267e-19 -0.00890013)
(1.36581e-18 6.82262e-19 -0.00878882)
(4.08997e-19 1.07507e-18 -0.0126445)
(4.88626e-19 1.11559e-18 -0.0125929)
(4.16986e-19 1.29973e-18 -0.0125408)
(4.10853e-19 1.37966e-18 -0.0124884)
(6.7107e-19 1.16934e-18 -0.0124356)
(9.91163e-19 8.41445e-19 -0.0123823)
(1.10578e-18 7.20875e-19 -0.0123285)
(1.1773e-18 6.12408e-19 -0.0122743)
(9.91954e-19 7.49832e-19 -0.0122196)
(7.87684e-19 9.93099e-19 -0.0121645)
(8.24372e-19 1.01313e-18 -0.0121088)
(1.02903e-18 8.72086e-19 -0.0120526)
(1.23817e-18 6.87962e-19 -0.0119958)
(1.2111e-18 7.04456e-19 -0.0119385)
(1.09247e-18 7.82125e-19 -0.0118807)
(9.2285e-19 9.48311e-19 -0.0118222)
(7.42716e-19 1.15461e-18 -0.0117632)
(6.24497e-19 1.31972e-18 -0.0117036)
(6.3152e-19 1.36931e-18 -0.0116433)
(6.28792e-19 1.44122e-18 -0.0115824)
(4.84752e-19 1.66907e-18 -0.0115208)
(3.45042e-19 1.87395e-18 -0.0114586)
(4.03097e-19 1.83197e-18 -0.0113956)
(6.28063e-19 1.5919e-18 -0.0113319)
(6.45034e-19 1.57425e-18 -0.0112674)
(5.46687e-19 1.71235e-18 -0.0112021)
(6.15462e-19 1.6487e-18 -0.0111361)
(7.47627e-19 1.48753e-18 -0.0110691)
(7.11282e-19 1.49396e-18 -0.0110013)
(5.32755e-19 1.67584e-18 -0.0109326)
(3.81501e-19 1.83552e-18 -0.0108629)
(3.69916e-19 1.86746e-18 -0.0107923)
(4.14128e-19 1.8337e-18 -0.0107206)
(2.44705e-19 2.03663e-18 -0.0106478)
(8.84253e-20 2.25219e-18 -0.0105739)
(1.97128e-19 2.17366e-18 -0.0104989)
(3.46842e-19 2.03446e-18 -0.0104226)
(4.19057e-19 1.97882e-18 -0.0103451)
(4.19375e-19 2.00836e-18 -0.0102662)
(3.02119e-19 2.16941e-18 -0.010186)
(2.34062e-19 2.28281e-18 -0.0101043)
(4.11568e-19 2.1364e-18 -0.0100211)
(7.76554e-19 1.79599e-18 -0.0099363)
(1.08546e-18 1.49069e-18 -0.00984984)
(1.22253e-18 1.33888e-18 -0.00976163)
(1.16691e-18 1.38745e-18 -0.00967159)
(9.20334e-19 1.64631e-18 -0.00957962)
(7.16063e-19 1.87118e-18 -0.00948563)
(6.98335e-19 1.91386e-18 -0.0093895)
(7.6152e-19 1.86534e-18 -0.00929114)
(7.65223e-19 1.87713e-18 -0.00919041)
(7.38756e-19 1.91391e-18 -0.00908719)
(7.83476e-19 1.87049e-18 -0.00898135)
(8.4177e-19 1.80992e-18 -0.00887273)
(9.11008e-19 1.7305e-18 -0.0087612)
(-7.87726e-19 1.32374e-18 -0.0126445)
(-6.47071e-19 1.27245e-18 -0.0125929)
(-5.15537e-19 1.26266e-18 -0.0125408)
(-3.74855e-19 1.25041e-18 -0.0124884)
(-2.91731e-19 1.29662e-18 -0.0124356)
(-3.27113e-19 1.39463e-18 -0.0123823)
(-3.68582e-19 1.46169e-18 -0.0123285)
(-5.56946e-19 1.61031e-18 -0.0122743)
(-6.21991e-19 1.63288e-18 -0.0122196)
(-3.69223e-19 1.47116e-18 -0.0121645)
(-1.25942e-19 1.35215e-18 -0.0121088)
(-8.2006e-20 1.39801e-18 -0.0120526)
(-2.40379e-19 1.55861e-18 -0.0119958)
(-2.49041e-19 1.52948e-18 -0.0119385)
(2.04692e-20 1.21048e-18 -0.0118807)
(2.76724e-19 8.7802e-19 -0.0118222)
(3.56041e-19 7.29118e-19 -0.0117632)
(4.32113e-19 6.36552e-19 -0.0117036)
(5.30969e-19 5.49951e-19 -0.0116433)
(6.0541e-19 4.71476e-19 -0.0115824)
(6.48412e-19 4.22424e-19 -0.0115208)
(6.11535e-19 4.48977e-19 -0.0114586)
(4.97032e-19 5.54178e-19 -0.0113956)
(3.65401e-19 6.52632e-19 -0.0113319)
(3.24009e-19 6.42062e-19 -0.0112674)
(2.33407e-19 7.04674e-19 -0.0112021)
(-8.48299e-20 9.75447e-19 -0.0111361)
(-2.81963e-19 1.13113e-18 -0.0110691)
(-7.93782e-20 9.12979e-19 -0.0110013)
(1.23258e-19 7.07058e-19 -0.0109326)
(1.84164e-19 6.59693e-19 -0.0108629)
(2.74559e-19 6.24764e-19 -0.0107923)
(2.62992e-19 6.8061e-19 -0.0107206)
(4.73943e-19 5.23797e-19 -0.0106478)
(7.99091e-19 2.81885e-19 -0.0105739)
(8.06674e-19 3.16091e-19 -0.0104989)
(6.57743e-19 4.64776e-19 -0.0104226)
(5.8941e-19 5.38974e-19 -0.0103451)
(5.9374e-19 5.42591e-19 -0.0102662)
(6.41065e-19 5.1128e-19 -0.010186)
(7.01051e-19 4.77224e-19 -0.0101043)
(7.70523e-19 4.27445e-19 -0.0100211)
(6.50425e-19 5.36197e-19 -0.00993629)
(3.81479e-19 7.61684e-19 -0.00984983)
(2.34999e-19 8.40722e-19 -0.00976163)
(1.53299e-19 8.48355e-19 -0.00967159)
(1.74517e-19 7.74833e-19 -0.00957962)
(3.46634e-19 5.81486e-19 -0.00948562)
(3.93112e-19 5.04191e-19 -0.0093895)
(3.22071e-19 5.4253e-19 -0.00929113)
(3.21044e-19 5.05021e-19 -0.0091904)
(3.25338e-19 4.60866e-19 -0.00908719)
(2.63461e-19 4.79264e-19 -0.00898134)
(1.43749e-19 5.52061e-19 -0.00887273)
(2.23721e-20 6.22893e-19 -0.00876119)
(5.27154e-19 6.46869e-19 -0.0126661)
(6.54995e-19 5.4812e-19 -0.0126145)
(6.78763e-19 5.13077e-19 -0.0125625)
(6.697e-19 4.8722e-19 -0.0125101)
(7.14423e-19 4.39466e-19 -0.0124573)
(6.61735e-19 4.84575e-19 -0.012404)
(4.1633e-19 7.10115e-19 -0.0123503)
(2.32339e-19 9.00933e-19 -0.0122962)
(4.63663e-19 7.71955e-19 -0.0122416)
(8.64191e-19 4.784e-19 -0.0121865)
(1.01337e-18 4.20004e-19 -0.0121309)
(8.48004e-19 6.15097e-19 -0.0120748)
(4.89159e-19 9.83981e-19 -0.0120181)
(1.85147e-20 1.46776e-18 -0.0119609)
(-3.76503e-19 1.87299e-18 -0.0119031)
(-5.15649e-19 2.0072e-18 -0.0118447)
(-2.6654e-19 1.80003e-18 -0.0117858)
(5.3747e-20 1.54777e-18 -0.0117262)
(1.33515e-19 1.49809e-18 -0.011666)
(5.56648e-20 1.57929e-18 -0.0116052)
(-8.12823e-20 1.70958e-18 -0.0115437)
(-1.51652e-19 1.78928e-18 -0.0114815)
(-1.25366e-19 1.80351e-18 -0.0114186)
(-1.09527e-19 1.83257e-18 -0.011355)
(-2.68752e-20 1.802e-18 -0.0112906)
(7.47121e-20 1.74784e-18 -0.0112254)
(1.88159e-19 1.72812e-18 -0.0111594)
(3.1955e-19 1.68732e-18 -0.0110926)
(3.54519e-19 1.68188e-18 -0.0110249)
(4.49832e-19 1.58042e-18 -0.0109562)
(7.5461e-19 1.32019e-18 -0.0108867)
(9.82967e-19 1.13205e-18 -0.0108161)
(9.57294e-19 1.16054e-18 -0.0107445)
(8.52049e-19 1.27157e-18 -0.0106719)
(6.80747e-19 1.41617e-18 -0.0105981)
(4.45169e-19 1.57049e-18 -0.0105232)
(3.81825e-19 1.56025e-18 -0.010447)
(4.21855e-19 1.47412e-18 -0.0103696)
(4.18821e-19 1.44017e-18 -0.0102909)
(3.79486e-19 1.439e-18 -0.0102108)
(2.95236e-19 1.47321e-18 -0.0101293)
(2.77621e-19 1.45862e-18 -0.0100462)
(3.48825e-19 1.35792e-18 -0.00996157)
(2.83071e-19 1.40163e-18 -0.00987527)
(1.54104e-19 1.51199e-18 -0.00978723)
(1.98497e-19 1.46285e-18 -0.00969736)
(2.88299e-19 1.37481e-18 -0.00960557)
(2.69731e-19 1.37188e-18 -0.00951176)
(3.02693e-19 1.31073e-18 -0.00941583)
(3.52953e-19 1.23179e-18 -0.00931766)
(2.80406e-19 1.2603e-18 -0.00921714)
(2.80293e-19 1.21799e-18 -0.00911413)
(3.81251e-19 1.09184e-18 -0.00900851)
(4.65254e-19 9.96446e-19 -0.00890012)
(4.68793e-19 9.86981e-19 -0.00878882)
(4.25294e-19 1.02957e-18 -0.00867443)
(4.56851e-19 1.00987e-18 -0.00855678)
(6.10146e-19 8.69906e-19 -0.00843568)
(7.4581e-19 7.28607e-19 -0.00831093)
(-7.73936e-19 1.81417e-18 -0.0126871)
(-8.06821e-19 1.83418e-18 -0.0126356)
(-9.11133e-19 1.87143e-18 -0.0125836)
(-8.21872e-19 1.7741e-18 -0.0125313)
(-6.72182e-19 1.6151e-18 -0.0124785)
(-5.98217e-19 1.5516e-18 -0.0124253)
(-5.03948e-19 1.47066e-18 -0.0123717)
(-5.13647e-19 1.5047e-18 -0.0123176)
(-5.85291e-19 1.57288e-18 -0.0122631)
(-3.70647e-19 1.37337e-18 -0.0122081)
(-1.01117e-19 1.12364e-18 -0.0121525)
(-8.70653e-20 1.0993e-18 -0.0120965)
(-8.39578e-20 1.10372e-18 -0.0120399)
(-2.85047e-20 1.10237e-18 -0.0119827)
(-7.37499e-20 1.19375e-18 -0.011925)
(-9.18085e-20 1.30227e-18 -0.0118667)
(8.14586e-20 1.24932e-18 -0.0118078)
(2.92322e-19 1.13513e-18 -0.0117483)
(4.09758e-19 1.07938e-18 -0.0116882)
(4.91322e-19 1.0444e-18 -0.0116274)
(5.76982e-19 9.90495e-19 -0.011566)
(6.88076e-19 9.14873e-19 -0.0115039)
(7.30982e-19 9.1633e-19 -0.0114411)
(6.59991e-19 1.04275e-18 -0.0113775)
(6.14164e-19 1.15336e-18 -0.0113132)
(7.97327e-19 1.0604e-18 -0.0112481)
(7.32709e-19 1.13661e-18 -0.0111822)
(1.66026e-19 1.57413e-18 -0.0111155)
(-2.38511e-19 1.86716e-18 -0.0110479)
(-1.69317e-19 1.80149e-18 -0.0109793)
(7.96438e-20 1.57711e-18 -0.0109098)
(1.55817e-19 1.44816e-18 -0.0108394)
(1.75247e-19 1.34607e-18 -0.0107679)
(2.76623e-19 1.19177e-18 -0.0106954)
(7.07062e-20 1.31364e-18 -0.0106217)
(-3.78853e-19 1.65226e-18 -0.0105469)
(-5.1984e-19 1.74489e-18 -0.0104709)
(-3.33738e-19 1.58055e-18 -0.0103936)
(-1.62165e-19 1.4503e-18 -0.010315)
(-1.02205e-19 1.40918e-18 -0.010235)
(3.04249e-20 1.30798e-18 -0.0101536)
(1.50094e-19 1.22388e-18 -0.0100707)
(1.99693e-19 1.1911e-18 -0.00998624)
(2.57952e-19 1.13946e-18 -0.00990009)
(1.95207e-19 1.21621e-18 -0.00981221)
(1.19904e-19 1.31838e-18 -0.00972251)
(1.18354e-19 1.3472e-18 -0.00963089)
(1.35767e-19 1.33494e-18 -0.00953726)
(8.75111e-20 1.37364e-18 -0.00944151)
(2.29746e-20 1.41662e-18 -0.00934354)
(1.78966e-20 1.42306e-18 -0.00924321)
(7.38723e-20 1.38598e-18 -0.00914041)
(2.69611e-19 1.2302e-18 -0.00903499)
(4.79737e-19 1.0514e-18 -0.00892682)
(6.24955e-19 9.22396e-19 -0.00881573)
(7.62324e-19 8.06147e-19 -0.00870157)
(8.16411e-19 7.71338e-19 -0.00858415)
(7.40765e-19 8.40214e-19 -0.00846328)
(6.40401e-19 9.11289e-19 -0.00833877)
(6.40166e-19 8.85288e-19 -0.00821041)
(-5.49867e-19 -8.77326e-20 -0.0127076)
(-6.65865e-19 8.84297e-20 -0.0126561)
(-7.00915e-19 2.14049e-19 -0.0126042)
(-6.7899e-19 2.77015e-19 -0.0125519)
(-5.03607e-19 2.12318e-19 -0.0124992)
(-3.57963e-19 1.87209e-19 -0.012446)
(-4.19799e-19 3.42766e-19 -0.0123924)
(-4.90625e-19 4.95789e-19 -0.0123384)
(-5.30015e-19 6.44133e-19 -0.012284)
(-3.43992e-19 6.2382e-19 -0.012229)
(-8.04726e-20 5.10444e-19 -0.0121735)
(-2.60417e-22 5.26464e-19 -0.0121175)
(-6.06739e-20 6.67153e-19 -0.012061)
(-2.85375e-19 9.23665e-19 -0.0120039)
(-4.08168e-19 1.10161e-18 -0.0119463)
(-3.73956e-19 1.16244e-18 -0.0118881)
(-3.37099e-19 1.22086e-18 -0.0118293)
(-2.71501e-19 1.24199e-18 -0.0117698)
(-3.1252e-19 1.34506e-18 -0.0117098)
(-5.28354e-19 1.56457e-18 -0.0116491)
(-7.82706e-19 1.77803e-18 -0.0115877)
(-7.43848e-19 1.72981e-18 -0.0115257)
(-4.03331e-19 1.44097e-18 -0.011463)
(-2.10301e-19 1.26044e-18 -0.0113995)
(-2.82426e-19 1.29617e-18 -0.0113353)
(-5.53842e-19 1.48464e-18 -0.0112702)
(-9.9237e-19 1.78691e-18 -0.0112044)
(-1.27169e-18 2.01142e-18 -0.0111378)
(-1.14406e-18 1.9497e-18 -0.0110702)
(-9.39918e-19 1.81648e-18 -0.0110018)
(-1.01392e-18 1.88708e-18 -0.0109324)
(-1.20523e-18 2.02896e-18 -0.010862)
(-1.22181e-18 2.04688e-18 -0.0107907)
(-1.00221e-18 1.8633e-18 -0.0107182)
(-8.13151e-19 1.68608e-18 -0.0106447)
(-8.17159e-19 1.67234e-18 -0.01057)
(-6.94104e-19 1.58276e-18 -0.0104941)
(-3.59828e-19 1.30945e-18 -0.0104169)
(-1.91757e-19 1.13509e-18 -0.0103384)
(-2.41294e-19 1.12212e-18 -0.0102586)
(-2.66446e-19 1.09787e-18 -0.0101773)
(-2.86692e-19 1.06784e-18 -0.0100946)
(-3.59974e-19 1.08027e-18 -0.0100102)
(-2.80306e-19 9.75454e-19 -0.00992422)
(-5.41366e-20 7.58633e-19 -0.00983649)
(-1.45499e-20 6.94954e-19 -0.00974695)
(-2.81602e-19 8.77844e-19 -0.00965549)
(-5.66346e-19 1.07774e-18 -0.00956203)
(-6.34295e-19 1.10596e-18 -0.00946646)
(-5.21185e-19 1.00502e-18 -0.00936866)
(-3.71427e-19 8.83922e-19 -0.00926853)
(-3.00041e-19 8.26867e-19 -0.00916591)
(-3.12373e-19 8.24391e-19 -0.0090607)
(-3.69608e-19 8.44457e-19 -0.00895273)
(-3.35466e-19 7.88324e-19 -0.00884185)
(-2.00203e-19 6.45605e-19 -0.0087279)
(-9.74868e-20 5.16124e-19 -0.0086107)
(-1.73089e-19 5.22156e-19 -0.00849006)
(-3.4042e-19 6.04753e-19 -0.00836578)
(-4.10476e-19 6.16671e-19 -0.00823764)
(-3.17012e-19 5.02089e-19 -0.00810542)
(-1.03305e-19 2.95994e-19 -0.00796887)
(7.7322e-20 1.27781e-19 -0.00782774)
(7.0566e-20 1.16657e-19 -0.00768177)
(-9.61139e-21 1.56223e-19 -0.00753066)
(3.51315e-20 8.36727e-20 -0.00737413)
(1.65376e-19 -5.70848e-20 -0.00721186)
(2.78007e-19 -1.80872e-19 -0.00704355)
(3.65619e-19 -2.91303e-19 -0.00686888)
(4.28543e-19 -3.83148e-19 -0.00668752)
(4.22676e-19 -4.20826e-19 -0.00649914)
(3.12368e-19 -3.85385e-19 -0.00630338)
(1.96528e-19 -3.51892e-19 -0.00609959)
(1.93135e-19 -4.07762e-19 -0.00588693)
(2.32842e-19 -4.95761e-19 -0.00566484)
(2.35902e-19 -5.5491e-19 -0.00543299)
(1.98975e-19 -5.86119e-19 -0.00519124)
(9.09991e-20 -5.661e-19 -0.00493965)
(-1.68609e-20 -5.39562e-19 -0.00467857)
(-8.44145e-20 -5.37332e-19 -0.00440868)
(-1.42983e-19 -5.34572e-19 -0.00413099)
(-1.89442e-19 -5.28891e-19 -0.00384684)
(-2.04727e-19 -5.37409e-19 -0.00355777)
(-2.11734e-19 -5.41956e-19 -0.00326545)
(-2.03593e-19 -5.45513e-19 -0.0029715)
(-2.0998e-19 -5.23455e-19 -0.00267734)
(-2.08021e-19 -4.89812e-19 -0.00238415)
(-1.78518e-19 -4.59257e-19 -0.00209282)
(-1.40493e-19 -4.17679e-19 -0.00180395)
(-1.2384e-19 -3.45574e-19 -0.00151792)
(-1.23053e-19 -2.48943e-19 -0.00123494)
(-1.04098e-19 -1.6102e-19 -0.000955092)
(-6.75495e-20 -8.49214e-20 -0.00067841)
(-2.89028e-20 -1.2192e-20 -0.000404883)
(-1.42361e-20 -2.81861e-20 -0.000134484)
(-2.38556e-19 1.13329e-18 -0.0127275)
(1.64279e-20 1.0723e-18 -0.012676)
(-9.63199e-20 1.24331e-18 -0.0126242)
(-1.47642e-19 1.33237e-18 -0.0125719)
(6.11338e-20 1.2205e-18 -0.0125192)
(3.83114e-19 9.89717e-19 -0.0124661)
(5.88538e-19 8.48924e-19 -0.0124126)
(6.0333e-19 8.38189e-19 -0.0123586)
(5.78975e-19 8.46897e-19 -0.0123042)
(5.61333e-19 8.23233e-19 -0.0122493)
(5.8138e-19 7.31734e-19 -0.0121939)
(6.41363e-19 6.15459e-19 -0.012138)
(6.94004e-19 5.44487e-19 -0.0120815)
(6.44434e-19 5.30604e-19 -0.0120245)
(5.03157e-19 5.70281e-19 -0.0119669)
(3.75211e-19 5.92964e-19 -0.0119088)
(3.61061e-19 5.41598e-19 -0.01185)
(4.22614e-19 4.2694e-19 -0.0117907)
(3.95459e-19 3.54699e-19 -0.0117307)
(1.04449e-19 4.78733e-19 -0.0116701)
(-3.31438e-19 7.37418e-19 -0.0116088)
(-6.03549e-19 8.99159e-19 -0.0115468)
(-7.10787e-19 9.23542e-19 -0.0114842)
(-7.52624e-19 8.79634e-19 -0.0114208)
(-7.32465e-19 7.87463e-19 -0.0113566)
(-6.53033e-19 6.71333e-19 -0.0112917)
(-5.11459e-19 5.54058e-19 -0.0112259)
(-6.0766e-19 6.58498e-19 -0.0111594)
(-9.25861e-19 9.44008e-19 -0.0110919)
(-9.81983e-19 1.05076e-18 -0.0110236)
(-8.90903e-19 1.04652e-18 -0.0109543)
(-8.1543e-19 1.06785e-18 -0.010884)
(-8.06398e-19 1.15604e-18 -0.0108127)
(-9.20093e-19 1.33266e-18 -0.0107404)
(-1.0646e-18 1.52707e-18 -0.0106669)
(-1.16422e-18 1.68499e-18 -0.0105923)
(-1.27103e-18 1.82942e-18 -0.0105165)
(-1.46972e-18 1.99604e-18 -0.0104395)
(-1.55575e-18 2.06185e-18 -0.0103612)
(-1.4516e-18 1.9927e-18 -0.0102814)
(-1.24144e-18 1.84168e-18 -0.0102003)
(-1.10568e-18 1.73819e-18 -0.0101176)
(-1.00922e-18 1.66742e-18 -0.0100334)
(-9.03497e-19 1.59111e-18 -0.00994758)
(-8.62925e-19 1.55023e-18 -0.00985999)
(-7.72183e-19 1.4596e-18 -0.0097706)
(-6.57691e-19 1.36223e-18 -0.0096793)
(-6.11174e-19 1.34984e-18 -0.009586)
(-5.35763e-19 1.34761e-18 -0.0094906)
(-3.6909e-19 1.28264e-18 -0.00939297)
(-2.36813e-19 1.22741e-18 -0.00929301)
(-2.27517e-19 1.26261e-18 -0.00919058)
(-2.18162e-19 1.30211e-18 -0.00908555)
(-1.07273e-19 1.27518e-18 -0.00897778)
(-5.46811e-21 1.24616e-18 -0.0088671)
(-6.66442e-23 1.27852e-18 -0.00875335)
(-3.95357e-20 1.33456e-18 -0.00863636)
(-1.56553e-20 1.33622e-18 -0.00851593)
(9.47564e-20 1.27614e-18 -0.00839187)
(2.74093e-19 1.16924e-18 -0.00826395)
(4.54727e-19 1.06027e-18 -0.00813195)
(6.20527e-19 9.61991e-19 -0.00799563)
(8.01067e-19 8.48034e-19 -0.00785473)
(8.78931e-19 8.10358e-19 -0.00770897)
(7.15624e-19 9.60286e-19 -0.00755807)
(5.15867e-19 1.14174e-18 -0.00740174)
(4.92978e-19 1.18574e-18 -0.00723967)
(5.4071e-19 1.16852e-18 -0.00707153)
(6.02027e-19 1.12748e-18 -0.006897)
(6.50841e-19 1.07797e-18 -0.00671576)
(5.89849e-19 1.10014e-18 -0.00652747)
(4.55617e-19 1.17663e-18 -0.00633176)
(4.04526e-19 1.19411e-18 -0.00612804)
(4.58785e-19 1.12927e-18 -0.00591546)
(5.36861e-19 1.03437e-18 -0.00569337)
(5.75035e-19 9.55514e-19 -0.00546144)
(5.53259e-19 9.11713e-19 -0.00521948)
(5.17698e-19 8.73751e-19 -0.00496755)
(5.33473e-19 7.88583e-19 -0.00470595)
(5.24344e-19 7.15859e-19 -0.00443534)
(4.74267e-19 6.63783e-19 -0.00415672)
(4.32527e-19 6.01623e-19 -0.0038714)
(3.78035e-19 5.48662e-19 -0.00358097)
(3.05254e-19 5.11317e-19 -0.00328709)
(2.10957e-19 4.93359e-19 -0.00299143)
(1.57676e-19 4.51763e-19 -0.00269545)
(1.50863e-19 3.88471e-19 -0.00240038)
(1.60288e-19 3.28085e-19 -0.00210712)
(1.69961e-19 2.81686e-19 -0.00181631)
(1.60526e-19 2.61353e-19 -0.00152833)
(1.54856e-19 2.49125e-19 -0.00124342)
(1.68249e-19 2.28173e-19 -0.000961657)
(1.68662e-19 2.15698e-19 -0.000683077)
(1.62464e-19 2.01285e-19 -0.00040767)
(1.64042e-20 2.15582e-20 -0.000135411)
(6.5386e-19 -9.65947e-20 -0.0127467)
(5.44747e-19 4.63062e-20 -0.0126953)
(2.20975e-19 3.42107e-19 -0.0126434)
(-4.8827e-20 6.31169e-19 -0.0125912)
(-1.81315e-19 8.19659e-19 -0.0125386)
(-2.11232e-19 8.91192e-19 -0.0124855)
(-2.64971e-19 9.63906e-19 -0.0124321)
(-4.2456e-19 1.10703e-18 -0.0123781)
(-7.2204e-19 1.31777e-18 -0.0123238)
(-9.95204e-19 1.47931e-18 -0.0122689)
(-1.00056e-18 1.43706e-18 -0.0122136)
(-7.12235e-19 1.19864e-18 -0.0121577)
(-6.87331e-19 1.12614e-18 -0.0121013)
(-1.14e-18 1.34591e-18 -0.0120444)
(-1.45113e-18 1.46957e-18 -0.0119869)
(-1.49953e-18 1.42761e-18 -0.0119288)
(-1.56323e-18 1.39188e-18 -0.0118701)
(-1.76064e-18 1.43237e-18 -0.0118108)
(-1.93275e-18 1.44073e-18 -0.0117509)
(-1.93915e-18 1.32785e-18 -0.0116904)
(-1.92495e-18 1.21375e-18 -0.0116292)
(-1.94028e-18 1.13952e-18 -0.0115673)
(-1.89985e-18 1.04204e-18 -0.0115047)
(-1.88024e-18 9.75466e-19 -0.0114413)
(-1.86643e-18 9.12497e-19 -0.0113772)
(-1.72104e-18 7.61737e-19 -0.0113124)
(-1.49652e-18 5.43724e-19 -0.0112467)
(-1.27296e-18 3.27634e-19 -0.0111802)
(-9.6697e-19 9.81577e-20 -0.0111129)
(-8.08055e-19 -1.5818e-20 -0.0110446)
(-8.88198e-19 1.3745e-22 -0.0109754)
(-8.73817e-19 -4.56873e-20 -0.0109052)
(-8.01519e-19 -1.2195e-19 -0.010834)
(-6.56291e-19 -2.20473e-19 -0.0107618)
(-5.74174e-19 -2.74681e-19 -0.0106884)
(-8.1805e-19 -9.18729e-20 -0.0106139)
(-1.26648e-18 2.49844e-19 -0.0105382)
(-1.46395e-18 4.54801e-19 -0.0104613)
(-1.39583e-18 4.92623e-19 -0.0103831)
(-1.43634e-18 5.97398e-19 -0.0103035)
(-1.52673e-18 7.3365e-19 -0.0102224)
(-1.51678e-18 7.92417e-19 -0.0101399)
(-1.49962e-18 8.39397e-19 -0.0100558)
(-1.48114e-18 8.72368e-19 -0.00997011)
(-1.43949e-18 8.86068e-19 -0.00988266)
(-1.36402e-18 8.86075e-19 -0.00979341)
(-1.14106e-18 7.68994e-19 -0.00970226)
(-7.58342e-19 5.33478e-19 -0.00960911)
(-4.89818e-19 3.78262e-19 -0.00951386)
(-5.19396e-19 4.27154e-19 -0.0094164)
(-5.45252e-19 4.6794e-19 -0.00931661)
(-4.54471e-19 4.33633e-19 -0.00921435)
(-3.62138e-19 3.97439e-19 -0.0091095)
(-4.47719e-19 4.77484e-19 -0.00900191)
(-6.20652e-19 6.0798e-19 -0.00889143)
(-6.66151e-19 6.49316e-19 -0.00877788)
(-7.0482e-19 6.92047e-19 -0.00866108)
(-8.03876e-19 7.79492e-19 -0.00854086)
(-8.72813e-19 8.41927e-19 -0.00841701)
(-8.66256e-19 8.48565e-19 -0.0082893)
(-7.51498e-19 7.65223e-19 -0.00815751)
(-5.62812e-19 6.19779e-19 -0.00802141)
(-3.9082e-19 4.84209e-19 -0.00788071)
(-2.3144e-19 3.53534e-19 -0.00773517)
(-9.57029e-20 2.4116e-19 -0.00758448)
(-2.35161e-20 1.83511e-19 -0.00742834)
(-2.80692e-20 1.81921e-19 -0.00726645)
(-1.31389e-19 2.43466e-19 -0.00709848)
(-2.91317e-19 3.43401e-19 -0.00692411)
(-4.04155e-19 4.08203e-19 -0.00674299)
(-3.79071e-19 3.73705e-19 -0.00655479)
(-2.51682e-19 2.69946e-19 -0.00635913)
(-1.3414e-19 1.75005e-19 -0.00615548)
(-1.00039e-19 1.35266e-19 -0.00594298)
(-1.49158e-19 1.48709e-19 -0.00572091)
(-1.79448e-19 1.44565e-19 -0.00548891)
(-1.34543e-19 8.29934e-20 -0.00524678)
(-9.68168e-20 2.31852e-20 -0.00499453)
(-1.36554e-19 1.53261e-20 -0.00473244)
(-2.30459e-19 4.55396e-20 -0.00446115)
(-3.22684e-19 7.85553e-20 -0.00418164)
(-3.37148e-19 6.22675e-20 -0.00389522)
(-3.03775e-19 1.62765e-20 -0.00360347)
(-3.15299e-19 6.51189e-21 -0.00330809)
(-3.45374e-19 2.07744e-20 -0.00301078)
(-3.14364e-19 5.8193e-21 -0.00271304)
(-2.19777e-19 -4.0819e-20 -0.00241614)
(-1.34608e-19 -6.84539e-20 -0.00212101)
(-8.4983e-20 -5.94411e-20 -0.00182831)
(-5.77243e-20 -2.62013e-20 -0.00153845)
(-4.07811e-20 1.88085e-20 -0.00125166)
(-1.36277e-20 5.56714e-20 -0.000968035)
(3.2633e-20 7.18077e-20 -0.000687611)
(5.43871e-20 8.92581e-20 -0.000410378)
(7.57667e-21 5.58756e-22 -0.000136311)
(1.83587e-20 -1.52119e-20 -0.0127652)
(1.23861e-19 -2.21707e-19 -0.0127138)
(1.38812e-19 -3.84509e-19 -0.012662)
(9.20957e-20 -4.74457e-19 -0.0126098)
(-8.52861e-20 -4.46793e-19 -0.0125573)
(-1.08646e-19 -4.45032e-19 -0.0125042)
(3.65971e-20 -5.32359e-19 -0.0124508)
(-4.876e-20 -4.67153e-19 -0.0123969)
(-3.66375e-19 -2.2533e-19 -0.0123426)
(-7.04242e-19 5.54118e-20 -0.0122878)
(-8.16065e-19 1.93851e-19 -0.0122325)
(-7.46851e-19 2.00608e-19 -0.0121767)
(-7.93675e-19 2.44879e-19 -0.0121204)
(-9.27703e-19 3.56816e-19 -0.0120635)
(-9.87686e-19 4.47872e-19 -0.0120061)
(-1.03353e-18 5.35423e-19 -0.0119481)
(-1.07268e-18 6.23758e-19 -0.0118895)
(-1.09351e-18 7.0087e-19 -0.0118302)
(-1.1985e-18 8.3821e-19 -0.0117704)
(-1.38834e-18 1.03249e-18 -0.0117099)
(-1.52163e-18 1.19407e-18 -0.0116487)
(-1.48585e-18 1.2528e-18 -0.0115869)
(-1.2958e-18 1.20879e-18 -0.0115244)
(-1.1406e-18 1.16154e-18 -0.0114611)
(-1.05646e-18 1.14851e-18 -0.0113971)
(-1.03814e-18 1.16564e-18 -0.0113323)
(-9.69752e-19 1.13965e-18 -0.0112667)
(-7.43169e-19 1.0122e-18 -0.0112003)
(-6.34636e-19 9.46393e-19 -0.011133)
(-8.36151e-19 1.03545e-18 -0.0110648)
(-1.00344e-18 1.08982e-18 -0.0109957)
(-8.9523e-19 9.67204e-19 -0.0109256)
(-6.68889e-19 7.50379e-19 -0.0108545)
(-6.20612e-19 6.51794e-19 -0.0107823)
(-6.77277e-19 6.03653e-19 -0.0107091)
(-5.25601e-19 4.18873e-19 -0.0106347)
(-2.59447e-19 1.7523e-19 -0.0105591)
(-1.47727e-19 6.30161e-20 -0.0104823)
(-2.5263e-19 9.12654e-20 -0.0104041)
(-2.76994e-19 6.12187e-20 -0.0103246)
(-2.23435e-19 -1.00455e-20 -0.0102437)
(-2.91323e-19 1.52038e-20 -0.0101613)
(-4.31712e-19 1.06852e-19 -0.0100774)
(-5.23404e-19 1.67916e-19 -0.00999177)
(-4.54475e-19 1.21802e-19 -0.00990445)
(-4.5465e-19 1.24536e-19 -0.00981533)
(-6.19747e-19 2.36777e-19 -0.00972432)
(-6.79961e-19 2.65263e-19 -0.00963132)
(-6.12727e-19 1.95074e-19 -0.00953622)
(-5.29641e-19 1.22434e-19 -0.00943891)
(-4.36577e-19 4.8175e-20 -0.00933928)
(-4.33853e-19 1.56367e-20 -0.00923719)
(-5.39926e-19 5.04958e-20 -0.00913251)
(-6.43678e-19 8.79758e-20 -0.0090251)
(-7.05978e-19 1.04642e-19 -0.00891479)
(-6.83566e-19 6.17999e-20 -0.00880143)
(-6.54024e-19 1.21973e-20 -0.00868483)
(-6.76826e-19 5.2215e-21 -0.0085648)
(-6.87156e-19 -7.25789e-21 -0.00844114)
(-7.44304e-19 8.66825e-22 -0.00831364)
(-8.708e-19 5.34606e-20 -0.00818206)
(-8.44196e-19 8.1456e-21 -0.00804616)
(-7.01744e-19 -1.16198e-19 -0.00790567)
(-6.11348e-19 -2.13684e-19 -0.00776033)
(-5.79207e-19 -2.81651e-19 -0.00760984)
(-5.73734e-19 -3.33007e-19 -0.0074539)
(-6.13657e-19 -3.55064e-19 -0.00729219)
(-6.23264e-19 -3.91561e-19 -0.00712438)
(-5.71487e-19 -4.61854e-19 -0.00695015)
(-5.57322e-19 -5.02049e-19 -0.00676915)
(-5.60921e-19 -5.25182e-19 -0.00658104)
(-5.58124e-19 -5.52589e-19 -0.00638545)
(-5.75591e-19 -5.714e-19 -0.00618187)
(-5.93935e-19 -5.91093e-19 -0.00596945)
(-5.9106e-19 -6.21516e-19 -0.00574741)
(-5.95986e-19 -6.40425e-19 -0.00551536)
(-6.24984e-19 -6.41087e-19 -0.00527306)
(-6.22922e-19 -6.60052e-19 -0.00502052)
(-5.5458e-19 -7.2009e-19 -0.00475798)
(-4.62876e-19 -7.89031e-19 -0.00448605)
(-3.90101e-19 -8.37046e-19 -0.0042057)
(-3.93082e-19 -8.25057e-19 -0.00391822)
(-4.41359e-19 -7.75359e-19 -0.00362521)
(-4.8094e-19 -7.18597e-19 -0.0033284)
(-4.82472e-19 -6.71801e-19 -0.00302949)
(-4.50884e-19 -6.30448e-19 -0.00273006)
(-4.0506e-19 -5.82795e-19 -0.00243139)
(-3.4148e-19 -5.32198e-19 -0.00213445)