/*--------------------------------*- C++ -*----------------------------------*\
  =========                 |
  \\      /  F ield         | OpenFOAM: The Open Source CFD Toolbox
   \\    /   O peration     | Website:  https://openfoam.org
    \\  /    A nd           | Version:  7
     \\/     M anipulation  |
\*---------------------------------------------------------------------------*/
FoamFile
{
    version     2.0;
    format      ascii;
    class       volScalarField;
    location    "152000";
    object      strainRate;
}
// * * * * * * * * * * * * * * * * * * * * * * * * * * * * * * * * * * * * * //

dimensions      [0 0 -1 0 0 0 0];

internalField   nonuniform List<scalar> 
4782
(
0.0918409
0.0949793
0.0982831
0.101764
0.105435
0.10931
0.113405
0.117735
0.122318
0.127174
0.0296017
0.0302122
0.0308388
0.0314821
0.0321429
0.0328249
0.0335337
0.0342702
0.0350312
0.0358148
0.0366203
0.0374483
0.0382994
0.0391747
0.0400756
0.0410033
0.0419593
0.0429452
0.0439624
0.0450127
0.0460977
0.0472194
0.0483796
0.0495804
0.0508238
0.0521122
0.0534481
0.0548339
0.0562723
0.0577664
0.0593193
0.0609341
0.0626146
0.0643646
0.0661881
0.0680895
0.0700735
0.0721453
0.0743103
0.0765744
0.0789439
0.0814256
0.0840271
0.0867562
0.0896217
0.0926328
0.0957998
0.0991335
0.102646
0.10635
0.11026
0.114391
0.118759
0.123383
0.128282
0.0298447
0.0304603
0.0310922
0.0317411
0.0324085
0.0330994
0.0338183
0.0345636
0.035332
0.0361221
0.036934
0.0377683
0.0386259
0.039508
0.040416
0.0413513
0.0423152
0.0433093
0.0443352
0.0453946
0.0464892
0.0476207
0.0487913
0.0500028
0.0512575
0.0525577
0.0539058
0.0553043
0.0567561
0.058264
0.0598313
0.0614613
0.0631575
0.0649239
0.0667645
0.0686839
0.0706867
0.0727781
0.0749636
0.0772491
0.0796411
0.0821464
0.0847725
0.0875275
0.0904201
0.0934597
0.0966565
0.100022
0.103567
0.107306
0.111252
0.115421
0.119829
0.124494
0.129437
0.0300957
0.0307169
0.0313547
0.0320098
0.0326857
0.0333882
0.0341178
0.0348711
0.035646
0.0364421
0.0372599
0.0381003
0.0389644
0.0398534
0.0407688
0.0417118
0.042684
0.0436867
0.0447218
0.0457906
0.0468951
0.0480371
0.0492185
0.0504413
0.0517078
0.0530202
0.0543811
0.055793
0.0572586
0.0587811
0.0603635
0.0620093
0.063722
0.0655056
0.0673642
0.0693024
0.0713248
0.0734368
0.0756437
0.0779518
0.0803673
0.0828973
0.0855492
0.0883313
0.0912522
0.0943215
0.0975496
0.100947
0.104527
0.108302
0.112286
0.116494
0.120944
0.125653
0.130641
0.030375
0.0310012
0.0316488
0.0323198
0.033013
0.0337274
0.0344629
0.0352195
0.0359974
0.0367974
0.0376199
0.0384658
0.0393363
0.0402323
0.0411552
0.0421062
0.0430868
0.0440984
0.0451427
0.0462214
0.047336
0.0484886
0.0496811
0.0509155
0.0521941
0.0535192
0.0548932
0.0563188
0.0577988
0.0593362
0.0609343
0.0625964
0.0643262
0.0661276
0.0680049
0.0699626
0.0720054
0.0741388
0.0763681
0.0786996
0.0811397
0.0836954
0.0863743
0.0891847
0.0921353
0.0952358
0.0984965
0.101929
0.105544
0.109357
0.11338
0.11763
0.122124
0.126878
0.131914
0.030375
0.0310012
0.0316488
0.0323198
0.033013
0.0337274
0.0344629
0.0352195
0.0359974
0.0367974
0.0376199
0.0384658
0.0393363
0.0402323
0.0411552
0.0421062
0.0430868
0.0440984
0.0451427
0.0462214
0.047336
0.0484886
0.0496811
0.0509155
0.0521941
0.0535192
0.0548932
0.0563188
0.0577988
0.0593362
0.0609343
0.0625964
0.0643262
0.0661276
0.0680049
0.0699626
0.0720054
0.0741388
0.0763681
0.0786996
0.0811397
0.0836954
0.0863743
0.0891847
0.0921353
0.0952358
0.0984965
0.101929
0.105544
0.109357
0.11338
0.11763
0.122124
0.126878
0.131914
0.0300957
0.0307169
0.0313547
0.0320098
0.0326857
0.0333882
0.0341178
0.0348711
0.035646
0.0364421
0.0372599
0.0381003
0.0389644
0.0398534
0.0407688
0.0417118
0.042684
0.0436867
0.0447218
0.0457906
0.0468951
0.0480371
0.0492185
0.0504413
0.0517078
0.0530202
0.0543811
0.055793
0.0572586
0.0587811
0.0603635
0.0620093
0.063722
0.0655056
0.0673642
0.0693024
0.0713248
0.0734368
0.0756437
0.0779518
0.0803673
0.0828973
0.0855492
0.0883313
0.0912522
0.0943215
0.0975496
0.100947
0.104527
0.108302
0.112286
0.116494
0.120944
0.125653
0.130641
0.135929
0.14154
0.147498
0.15383
0.0298447
0.0304603
0.0310922
0.0317411
0.0324085
0.0330994
0.0338183
0.0345636
0.035332
0.0361221
0.036934
0.0377683
0.0386259
0.039508
0.040416
0.0413513
0.0423152
0.0433093
0.0443352
0.0453946
0.0464892
0.0476207
0.0487913
0.0500028
0.0512575
0.0525577
0.0539058
0.0553043
0.0567561
0.058264
0.0598313
0.0614613
0.0631575
0.0649239
0.0667645
0.0686839
0.0706867
0.0727781
0.0749636
0.0772491
0.0796411
0.0821464
0.0847726
0.0875275
0.0904201
0.0934597
0.0966565
0.100022
0.103567
0.107306
0.111252
0.115421
0.119829
0.124494
0.129437
0.134677
0.140238
0.146144
0.152422
0.159101
0.0296017
0.0302122
0.0308388
0.0314821
0.0321429
0.0328249
0.0335337
0.0342702
0.0350312
0.0358148
0.0366203
0.0374483
0.0382994
0.0391747
0.0400756
0.0410033
0.0419593
0.0429452
0.0439624
0.0450127
0.0460977
0.0472194
0.0483796
0.0495804
0.0508238
0.0521122
0.0534481
0.0548339
0.0562723
0.0577664
0.0593193
0.0609341
0.0626146
0.0643646
0.0661881
0.0680895
0.0700735
0.0721453
0.0743103
0.0765744
0.0789439
0.0814256
0.0840271
0.0867562
0.0896217
0.0926328
0.0957998
0.0991336
0.102646
0.10635
0.11026
0.114391
0.118759
0.123383
0.128282
0.133476
0.138989
0.144845
0.151071
0.157695
0.164748
0.172262
0.180271
0.188811
0.19792
0.207636
0.217996
0.229042
0.240818
0.253411
0.267117
0.282237
0.298671
0.316224
0.334828
0.354349
0.374558
0.395112
0.415544
0.435285
0.45371
0.470225
0.484371
0.495906
0.504844
0.511437
0.516089
0.519271
0.521427
0.522929
0.52405
0.524972
0.525799
0.526587
0.527357
0.0293679
0.0299735
0.0305951
0.0312333
0.0318887
0.0325633
0.0332622
0.0339893
0.0347429
0.0355199
0.0363192
0.0371409
0.0379857
0.0388544
0.0397484
0.0406689
0.0416173
0.0425953
0.0436042
0.0446458
0.0457218
0.0468341
0.0479844
0.0491748
0.0504076
0.0516848
0.053009
0.0543826
0.0558084
0.0572893
0.0588283
0.0604288
0.0620943
0.0638286
0.0656356
0.0675199
0.0694861
0.0715392
0.0736845
0.0759281
0.0782761
0.0807354
0.0833132
0.0860176
0.0888571
0.0918409
0.0949793
0.0982831
0.101764
0.105435
0.10931
0.113405
0.117735
0.122318
0.127174
0.132325
0.137791
0.143599
0.149775
0.156346
0.163344
0.170802
0.178753
0.187234
0.196282
0.205937
0.216237
0.227223
0.238941
0.25147
0.265078
0.280069
0.296403
0.313903
0.332477
0.352
0.372251
0.392896
0.413472
0.43341
0.452077
0.468862
0.483283
0.495073
0.504229
0.510991
0.515765
0.519027
0.521233
0.522763
0.523901
0.524832
0.525667
0.52646
0.527236
0.0291437
0.0297448
0.0303617
0.0309949
0.0316452
0.0323134
0.0330036
0.0337215
0.0344674
0.0352378
0.0360309
0.0368466
0.0376852
0.0385477
0.039435
0.0403486
0.0412899
0.0422603
0.0432613
0.0442947
0.0453621
0.0464653
0.0476063
0.048787
0.0500095
0.0512761
0.0525892
0.0539512
0.055365
0.0568333
0.0583592
0.059946
0.0615971
0.0633165
0.0651079
0.0669759
0.068925
0.0709602
0.0730869
0.0753109
0.0776384
0.0800761
0.0826315
0.0853122
0.0881269
0.0910847
0.0941958
0.0974708
0.100922
0.104561
0.108403
0.112462
0.116756
0.121301
0.126116
0.131224
0.136646
0.142408
0.148535
0.155056
0.162002
0.169405
0.1773
0.185724
0.194714
0.20431
0.214551
0.225479
0.23714
0.249608
0.263121
0.277986
0.294224
0.311669
0.330212
0.349733
0.37002
0.390747
0.411458
0.431582
0.45048
0.467525
0.482212
0.494251
0.503621
0.510551
0.515445
0.518787
0.521041
0.5226
0.523753
0.524694
0.525535
0.526335
0.527116
0.0289295
0.0295262
0.0301386
0.0307672
0.0314127
0.0320759
0.0327591
0.0334677
0.0342048
0.0349683
0.0357555
0.0365654
0.0373982
0.0382547
0.0391359
0.040043
0.0409775
0.0419407
0.0429343
0.0439598
0.0450191
0.0461138
0.0472458
0.0484172
0.0496301
0.0508866
0.0521891
0.0535402
0.0549425
0.0563989
0.0579123
0.0594861
0.0611237
0.0628288
0.0646054
0.0664578
0.0683907
0.0704089
0.0725178
0.0747232
0.0770312
0.0794485
0.0819823
0.0846406
0.0874316
0.0903647
0.0934496
0.0966973
0.100119
0.103729
0.107539
0.111565
0.115823
0.120331
0.125108
0.130175
0.135555
0.141272
0.147353
0.153826
0.160721
0.168072
0.175914
0.184282
0.193216
0.202755
0.21294
0.223812
0.235416
0.247825
0.261247
0.275991
0.292135
0.309526
0.328036
0.347551
0.367869
0.388671
0.409507
0.429807
0.448924
0.466219
0.481164
0.493446
0.503025
0.510119
0.515132
0.518552
0.520855
0.522441
0.52361
0.52456
0.525408
0.526213
0.527
0.0287257
0.0293182
0.0299263
0.0305506
0.0311916
0.03185
0.032527
0.033227
0.0339558
0.0347126
0.0354938
0.0362981
0.0371253
0.0379761
0.0388514
0.0397523
0.0406803
0.0416368
0.0426234
0.0436416
0.0446931
0.0457797
0.0469034
0.048066
0.0492697
0.0505166
0.0518092
0.0531499
0.0545414
0.0559864
0.057488
0.0590495
0.0606741
0.0623658
0.0641284
0.0659661
0.0678835
0.0698856
0.0719777
0.0741653
0.0764548
0.0788527
0.0813661
0.084003
0.0867716
0.089681
0.0927412
0.0959629
0.0993576
0.102938
0.106718
0.110712
0.114937
0.11941
0.12415
0.129179
0.134518
0.140193
0.146229
0.152656
0.159503
0.166804
0.174594
0.18291
0.19179
0.201275
0.211405
0.222222
0.233772
0.246123
0.259458
0.274087
0.290141
0.307477
0.325953
0.345459
0.365803
0.386673
0.407625
0.42809
0.447417
0.46495
0.480143
0.492661
0.502444
0.509699
0.514828
0.518325
0.520675
0.522289
0.523473
0.524432
0.525286
0.526097
0.526888
0.0285323
0.0291209
0.029725
0.0303451
0.0309818
0.0316358
0.0323079
0.0330013
0.0337215
0.0344705
0.0352455
0.0360443
0.0368663
0.0377118
0.0385816
0.0394768
0.0403988
0.041349
0.0423289
0.0433401
0.0443844
0.0454635
0.0465792
0.0477335
0.0489286
0.0501665
0.0514497
0.0527806
0.0541618
0.0555961
0.0570866
0.0586363
0.0602489
0.0619278
0.063677
0.0655008
0.0674037
0.0693906
0.0714667
0.0736376
0.0759095
0.078289
0.0807832
0.0833998
0.0861471
0.0890342
0.092071
0.095268
0.0986368
0.10219
0.105941
0.109905
0.114098
0.118538
0.123244
0.128236
0.133536
0.139171
0.145165
0.151547
0.158349
0.165602
0.173343
0.181608
0.190437
0.199869
0.209947
0.220712
0.23221
0.244505
0.257757
0.272276
0.288243
0.305526
0.323967
0.343463
0.363828
0.384759
0.405818
0.426438
0.445962
0.463723
0.479154
0.491899
0.50188
0.509291
0.514534
0.518106
0.520503
0.522143
0.523342
0.52431
0.525171
0.525986
0.526782
0.0283496
0.0289346
0.0295349
0.030151
0.0307837
0.0314335
0.0321013
0.0327888
0.0335011
0.0342425
0.0350115
0.035805
0.0366219
0.0374623
0.0383269
0.0392167
0.0401331
0.0410773
0.042051
0.0430557
0.0440932
0.0451651
0.0462734
0.04742
0.0486069
0.0498364
0.0511107
0.0524323
0.0538039
0.0552282
0.0567081
0.0582469
0.059848
0.0615149
0.0632516
0.0650623
0.0669515
0.068924
0.070985
0.0731402
0.0753955
0.0777577
0.0802337
0.0828312
0.0855584
0.0884245
0.0914391
0.0946128
0.0979572
0.101485
0.105209
0.109144
0.113308
0.117716
0.122388
0.127345
0.13261
0.138206
0.14416
0.150501
0.157259
0.164468
0.172162
0.180379
0.189159
0.198541
0.208569
0.219284
0.230732
0.242973
0.256146
0.270561
0.286445
0.303676
0.322082
0.341565
0.361948
0.382934
0.404091
0.424855
0.444566
0.462542
0.478201
0.491165
0.501335
0.508898
0.514251
0.517897
0.520338
0.522004
0.523217
0.524194
0.525061
0.525881
0.526682
0.0281778
0.0287594
0.0293561
0.0299686
0.0305975
0.0312434
0.0319072
0.0325895
0.0332948
0.0340289
0.0347919
0.0355802
0.0363922
0.0372278
0.0380875
0.0389723
0.0398833
0.040822
0.0417899
0.0427886
0.0438196
0.0448849
0.0459862
0.0471255
0.0483048
0.0495263
0.0507924
0.0521054
0.0534679
0.0548827
0.0563528
0.0578813
0.0594716
0.0611273
0.0628523
0.0646507
0.066527
0.068486
0.0705328
0.0726732
0.0749131
0.0772589
0.0797178
0.0822974
0.0850058
0.0878521
0.0908459
0.0939978
0.0973191
0.100822
0.104521
0.10843
0.112565
0.116944
0.121585
0.12651
0.13174
0.1373
0.143216
0.149518
0.156235
0.163401
0.171051
0.179223
0.187956
0.197291
0.207271
0.217939
0.22934
0.24153
0.254627
0.268945
0.28475
0.301931
0.320301
0.33977
0.360167
0.381202
0.402449
0.423348
0.443232
0.461413
0.477288
0.490459
0.500812
0.508521
0.51398
0.517697
0.520181
0.521872
0.5231
0.524085
0.524957
0.525782
0.526588
0.028017
0.0285953
0.0291887
0.0297978
0.0304231
0.0310655
0.0317254
0.0324038
0.0331037
0.0338306
0.0345868
0.0353697
0.0361771
0.0370082
0.0378634
0.0387435
0.0396496
0.0405832
0.0415457
0.0425387
0.0435638
0.0446229
0.0457177
0.0468502
0.0480224
0.0492365
0.0504948
0.0517997
0.0531538
0.0545599
0.0560208
0.0575397
0.0591199
0.0607651
0.062479
0.0642659
0.0661302
0.0680766
0.0701103
0.0722368
0.0744622
0.0767928
0.0792358
0.0817985
0.0844894
0.0873172
0.0902915
0.093423
0.0967228
0.100203
0.103878
0.107762
0.111871
0.116222
0.120834
0.125728
0.130926
0.136453
0.142334
0.148599
0.155277
0.162403
0.170012
0.178141
0.186831
0.196122
0.206057
0.21668
0.228036
0.240177
0.253204
0.26743
0.283161
0.300293
0.318629
0.338082
0.358489
0.379568
0.400898
0.42192
0.441966
0.460338
0.476417
0.489786
0.500313
0.508161
0.513722
0.517506
0.520033
0.521748
0.522988
0.523981
0.524859
0.525689
0.526498
0.0278673
0.0284426
0.029033
0.0296389
0.0302609
0.0308999
0.0315563
0.0322311
0.032926
0.0336464
0.0343963
0.0351742
0.0359772
0.036804
0.0376549
0.0385306
0.0394322
0.040361
0.0413185
0.0423063
0.0433259
0.0443792
0.045468
0.0465942
0.0477598
0.048967
0.0502182
0.0515156
0.0528618
0.0542597
0.055712
0.0572219
0.0587928
0.0604283
0.062132
0.0639082
0.0657613
0.067696
0.0697174
0.071831
0.0740429
0.0763594
0.0787875
0.0813347
0.0840091
0.0868197
0.089776
0.0928884
0.0961682
0.0996279
0.103281
0.107141
0.111226
0.115551
0.120136
0.125001
0.130169
0.135664
0.141513
0.147743
0.154386
0.161475
0.169045
0.177134
0.185782
0.195031
0.204924
0.215505
0.226819
0.238918
0.251892
0.266043
0.281693
0.298766
0.317067
0.336505
0.356919
0.378035
0.39944
0.420575
0.440771
0.459321
0.47559
0.489145
0.499836
0.507816
0.513474
0.517323
0.519889
0.521627
0.522881
0.523881
0.524763
0.525598
0.526411
0.0277288
0.0283014
0.0288889
0.0294919
0.030111
0.0307468
0.0314
0.0320714
0.032762
0.0334763
0.0342204
0.0349937
0.0357924
0.0366153
0.0374622
0.0383338
0.0392312
0.0401556
0.0411085
0.0420914
0.0431059
0.0441539
0.0452372
0.0463575
0.0475171
0.048718
0.0499624
0.0512529
0.0525919
0.0539822
0.0554266
0.0569283
0.0584906
0.060117
0.0618113
0.0635776
0.0654204
0.0673442
0.0693543
0.0714561
0.0736555
0.0759589
0.0783732
0.080906
0.0835653
0.08636
0.0892995
0.0923943
0.0956557
0.0990958
0.102728
0.106567
0.110629
0.11493
0.11949
0.124329
0.12947
0.134935
0.140753
0.146952
0.153561
0.160615
0.16815
0.176202
0.184812
0.194022
0.203876
0.214418
0.225693
0.237754
0.250687
0.264775
0.280342
0.297352
0.315619
0.33504
0.355459
0.376608
0.398079
0.419317
0.439651
0.458365
0.474812
0.48854
0.499385
0.50749
0.513239
0.517149
0.519753
0.521512
0.522778
0.523785
0.524672
0.52551
0.526327
0.0276016
0.0281717
0.0287566
0.0293569
0.0299732
0.0306061
0.0312564
0.0319247
0.032612
0.0333218
0.0340602
0.0348281
0.0356227
0.0364418
0.037285
0.038153
0.0390465
0.0399669
0.0409156
0.0418941
0.042904
0.0439472
0.0450253
0.0461403
0.0472943
0.0484894
0.0497278
0.0510119
0.0523443
0.0537276
0.0551648
0.0566589
0.0582133
0.0598314
0.0615171
0.0632743
0.0651076
0.0670215
0.0690212
0.071112
0.0733
0.0755914
0.0779932
0.0805128
0.0831582
0.0859383
0.0888625
0.0919411
0.0951855
0.0986078
0.102221
0.106041
0.110081
0.114361
0.118898
0.123713
0.128828
0.134267
0.140057
0.146226
0.152805
0.159827
0.167328
0.175346
0.183921
0.193096
0.202913
0.213419
0.224658
0.236683
0.249579
0.26361
0.2791
0.296052
0.314286
0.33369
0.354112
0.37529
0.396821
0.418152
0.438612
0.457476
0.474087
0.487976
0.498964
0.507185
0.513019
0.516987
0.519626
0.521405
0.522682
0.523696
0.524588
0.525429
0.52625
0.0274858
0.0280536
0.0286361
0.029234
0.0298477
0.0304781
0.0311257
0.0317912
0.0324756
0.0331815
0.0339147
0.0346777
0.0354682
0.0362839
0.0371238
0.0379883
0.0388784
0.0397952
0.04074
0.0417145
0.0427203
0.043759
0.0448325
0.0459427
0.0470916
0.0482814
0.0495143
0.0507926
0.052119
0.053496
0.0549266
0.0564139
0.057961
0.0595716
0.0612494
0.0629985
0.0648231
0.066728
0.0687182
0.0707992
0.0729767
0.0752572
0.0776476
0.0801551
0.0827879
0.0855547
0.088465
0.091529
0.0947579
0.098164
0.10176
0.105562
0.109584
0.113843
0.118359
0.123152
0.128244
0.133658
0.139423
0.145565
0.152116
0.159109
0.16658
0.174567
0.18311
0.192252
0.202036
0.212509
0.223715
0.235708
0.248568
0.262547
0.277967
0.294865
0.313069
0.332456
0.35288
0.374083
0.395666
0.417082
0.437655
0.456658
0.473418
0.487455
0.498576
0.506904
0.512817
0.516838
0.519509
0.521308
0.522595
0.523614
0.52451
0.525356
0.526179
0.0273814
0.0279471
0.0285275
0.0291232
0.0297347
0.0303627
0.0310079
0.031671
0.0323527
0.0330552
0.0337837
0.0345423
0.0353293
0.0361417
0.0369786
0.0378401
0.038727
0.0396405
0.0405819
0.0415528
0.0425547
0.0435895
0.0446589
0.0457647
0.0469091
0.0480941
0.049322
0.0505952
0.0519161
0.0532875
0.0547122
0.0561932
0.0577339
0.0593377
0.0610084
0.0627501
0.064567
0.0664637
0.0684455
0.0705175
0.0726857
0.0749564
0.0773364
0.0798332
0.0824546
0.0852095
0.0881072
0.091158
0.094373
0.0977645
0.101346
0.105131
0.109135
0.113377
0.117874
0.122647
0.127718
0.133111
0.138852
0.14497
0.151496
0.158463
0.165907
0.173865
0.182379
0.191491
0.201246
0.211688
0.222865
0.234827
0.247656
0.261587
0.276944
0.293793
0.31197
0.331341
0.351765
0.372989
0.39462
0.41611
0.436786
0.455912
0.472808
0.486979
0.498221
0.506647
0.512633
0.516702
0.519404
0.521219
0.522516
0.523541
0.524441
0.525289
0.526116
0.0272885
0.0278524
0.028431
0.0290247
0.0296342
0.0302601
0.0309032
0.031564
0.0322434
0.0329429
0.0336673
0.0344219
0.0352057
0.0360153
0.0368495
0.0377082
0.0385923
0.0395029
0.0404413
0.0414089
0.0424075
0.0434388
0.0445044
0.0456064
0.0467468
0.0479276
0.0491511
0.0504196
0.0517357
0.053102
0.0545215
0.055997
0.057532
0.0591298
0.0607942
0.0625293
0.0643392
0.0662288
0.068203
0.0702671
0.072427
0.074689
0.0770598
0.0795469
0.0821583
0.0849025
0.0877891
0.0908281
0.0940308
0.0974092
0.100977
0.104747
0.108737
0.112962
0.117443
0.122198
0.12725
0.132624
0.138344
0.144441
0.150945
0.157888
0.165307
0.173241
0.181729
0.190814
0.200542
0.210957
0.222107
0.234043
0.246844
0.260732
0.276033
0.292838
0.310989
0.330346
0.350769
0.372012
0.393683
0.415239
0.436006
0.455243
0.47226
0.486552
0.497902
0.506416
0.512467
0.516581
0.51931
0.521141
0.522446
0.523476
0.524379
0.52523
0.526059
0.0272072
0.0277695
0.0283464
0.0289384
0.0295461
0.0301703
0.0308114
0.0314704
0.0321478
0.0328446
0.0335654
0.0343166
0.0350976
0.0359047
0.0367364
0.0375928
0.0384744
0.0393824
0.0403181
0.041283
0.0422786
0.0433068
0.0443692
0.0454679
0.0466047
0.0477818
0.0490014
0.0502659
0.0515778
0.0529397
0.0543546
0.0558253
0.0573552
0.0589478
0.0606067
0.062336
0.06414
0.0660232
0.0679908
0.0700479
0.0722006
0.0744549
0.0768178
0.0792965
0.081899
0.0846339
0.0875107
0.0905395
0.0937313
0.0970984
0.100654
0.104412
0.108388
0.1126
0.117065
0.121805
0.126841
0.132197
0.1379
0.143978
0.150462
0.157385
0.164782
0.172694
0.181159
0.190221
0.199925
0.210317
0.221443
0.233356
0.246131
0.259982
0.275233
0.292
0.310128
0.329472
0.349894
0.371152
0.392858
0.414472
0.435318
0.454651
0.471775
0.486174
0.49762
0.506212
0.512321
0.516473
0.519227
0.521072
0.522384
0.523419
0.524325
0.525178
0.52601
0.0271374
0.0276983
0.0282738
0.0288643
0.0294706
0.0300931
0.0307327
0.03139
0.0320656
0.0327606
0.0334791
0.034227
0.035005
0.0358097
0.0366393
0.0374936
0.0383732
0.039279
0.0402124
0.0411749
0.0421681
0.0431936
0.0442533
0.0453491
0.0464829
0.0476568
0.0488731
0.0501342
0.0514425
0.0528006
0.0542115
0.0556781
0.0572037
0.0587918
0.060446
0.0621704
0.0639692
0.065847
0.0678089
0.0698601
0.0720065
0.0742543
0.0766103
0.0790818
0.0816767
0.0844037
0.0872721
0.090292
0.0934746
0.0968319
0.100377
0.104124
0.108089
0.112289
0.116742
0.121468
0.12649
0.131831
0.137519
0.143581
0.150047
0.156953
0.164332
0.172225
0.18067
0.189713
0.199396
0.209767
0.220873
0.232765
0.245519
0.259337
0.274547
0.29128
0.309389
0.32872
0.349142
0.370412
0.392148
0.413811
0.434724
0.45414
0.471356
0.485846
0.497375
0.506035
0.512195
0.516381
0.519155
0.521012
0.522332
0.52337
0.524278
0.525134
0.525967
0.0270792
0.027639
0.0282132
0.0288026
0.0294076
0.0300288
0.0306671
0.0313229
0.0319972
0.0326907
0.0334071
0.0341525
0.0349279
0.0357306
0.0365584
0.037411
0.0382888
0.0391928
0.0401243
0.0410848
0.0420759
0.0430993
0.0441567
0.04525
0.0463813
0.0475526
0.0487662
0.0500244
0.0513296
0.0526847
0.0540923
0.0555555
0.0570775
0.0586618
0.0603121
0.0620323
0.0638268
0.0657001
0.0676573
0.0697036
0.0718448
0.0740871
0.0764374
0.0789029
0.0814915
0.0842118
0.0870732
0.0900858
0.0932607
0.0966098
0.100146
0.103884
0.10784
0.112029
0.116472
0.121187
0.126197
0.131527
0.137201
0.143249
0.149702
0.156593
0.163957
0.171833
0.180263
0.189288
0.198955
0.209309
0.220398
0.232273
0.245009
0.2588
0.273974
0.290679
0.308771
0.328093
0.348513
0.369793
0.391554
0.413257
0.434226
0.453712
0.471005
0.485571
0.49717
0.505887
0.512089
0.516304
0.519096
0.520963
0.522287
0.523329
0.524239
0.525097
0.525932
0.0270326
0.0275915
0.0281648
0.0287532
0.0293571
0.0299774
0.0306145
0.0312693
0.0319424
0.0326347
0.0333496
0.0340928
0.0348662
0.0356673
0.0364936
0.0373448
0.0382212
0.0391238
0.0400538
0.0410127
0.0420022
0.0430238
0.0440793
0.0451708
0.0463001
0.0474693
0.0486806
0.0499365
0.0512394
0.0525919
0.0539969
0.0554573
0.0569765
0.0585578
0.0602049
0.0619219
0.0637129
0.0655827
0.067536
0.0695783
0.0717154
0.0739534
0.0762991
0.0787597
0.0813433
0.0840583
0.0869141
0.0899208
0.0930895
0.0964321
0.0999618
0.103693
0.10764
0.111822
0.116256
0.120962
0.125963
0.131283
0.136947
0.142984
0.149426
0.156305
0.163657
0.17152
0.179937
0.188949
0.198602
0.208942
0.220017
0.231878
0.2446
0.258369
0.273515
0.290198
0.308276
0.32759
0.348009
0.369297
0.391077
0.412812
0.433826
0.453367
0.470721
0.48535
0.497005
0.505768
0.512003
0.516242
0.519048
0.520923
0.522252
0.523296
0.524208
0.525067
0.525903
0.0269976
0.0275558
0.0281285
0.0287161
0.0293193
0.0299388
0.0305751
0.0312291
0.0319013
0.0325927
0.0333064
0.0340481
0.03482
0.0356198
0.0364451
0.0372952
0.0381706
0.039072
0.0400009
0.0409587
0.0419468
0.0429671
0.0440213
0.0451113
0.0462391
0.0474067
0.0486165
0.0498706
0.0511717
0.0525223
0.0539253
0.0553837
0.0569007
0.0584798
0.0601246
0.0618391
0.0636275
0.0654945
0.0674451
0.0694844
0.0716183
0.0738531
0.0761953
0.0786524
0.0812321
0.0839432
0.0867948
0.0897971
0.0929611
0.0962989
0.0998234
0.103549
0.107491
0.111667
0.116094
0.120794
0.125788
0.1311
0.136756
0.142786
0.149219
0.156088
0.163431
0.171285
0.179692
0.188694
0.198336
0.208666
0.219731
0.231582
0.244293
0.258046
0.273171
0.289837
0.307905
0.327212
0.34763
0.368924
0.390718
0.412477
0.433524
0.453108
0.470508
0.485183
0.49688
0.505678
0.511939
0.516195
0.519012
0.520893
0.522226
0.523271
0.524185
0.525045
0.525882
0.0269743
0.0275321
0.0281042
0.0286914
0.0292941
0.029913
0.0305489
0.0312022
0.0318739
0.0325647
0.0332776
0.0340182
0.0347892
0.0355882
0.0364127
0.0372621
0.0381368
0.0390375
0.0399657
0.0409226
0.04191
0.0429294
0.0439827
0.0450717
0.0461985
0.0473651
0.0485737
0.0498267
0.0511265
0.0524759
0.0538776
0.0553346
0.0568502
0.0584278
0.060071
0.0617838
0.0635706
0.0654358
0.0673844
0.0694218
0.0715537
0.0737862
0.0761262
0.0785808
0.081158
0.0838664
0.0867152
0.0897146
0.0928756
0.09621
0.0997311
0.103453
0.107391
0.111563
0.115986
0.120681
0.125671
0.130978
0.136629
0.142653
0.14908
0.155944
0.163281
0.171129
0.179528
0.188524
0.19816
0.208483
0.21954
0.231385
0.244088
0.25783
0.272941
0.289596
0.307657
0.32696
0.347377
0.368675
0.390478
0.412253
0.433323
0.452934
0.470365
0.485072
0.496797
0.505618
0.511896
0.516164
0.518987
0.520873
0.522208
0.523255
0.52417
0.52503
0.525868
0.0269627
0.0275202
0.0280921
0.028679
0.0292815
0.0299002
0.0305357
0.0311888
0.0318602
0.0325507
0.0332632
0.0340033
0.0347738
0.0355723
0.0363965
0.0372456
0.0381199
0.0390203
0.0399481
0.0409046
0.0418915
0.0429105
0.0439633
0.0450519
0.0461782
0.0473442
0.0485523
0.0498047
0.051104
0.0524527
0.0538538
0.0553101
0.056825
0.0584018
0.0600442
0.0617562
0.0635421
0.0654064
0.0673541
0.0693905
0.0715213
0.0737528
0.0760916
0.078545
0.081121
0.083828
0.0866755
0.0896734
0.0928328
0.0961656
0.099685
0.103405
0.107341
0.111511
0.115932
0.120625
0.125612
0.130917
0.136566
0.142587
0.149011
0.155872
0.163206
0.17105
0.179447
0.188439
0.198071
0.208391
0.219445
0.231286
0.243985
0.257722
0.272826
0.289475
0.307533
0.326833
0.34725
0.36855
0.390358
0.412141
0.433222
0.452847
0.470294
0.485016
0.496755
0.505587
0.511875
0.516148
0.518975
0.520863
0.522199
0.523247
0.524162
0.525022
0.525861
0.0269627
0.0275202
0.0280921
0.028679
0.0292815
0.0299002
0.0305357
0.0311888
0.0318602
0.0325507
0.0332632
0.0340033
0.0347738
0.0355723
0.0363965
0.0372456
0.0381199
0.0390203
0.0399481
0.0409046
0.0418915
0.0429105
0.0439633
0.0450519
0.0461782
0.0473442
0.0485523
0.0498047
0.051104
0.0524527
0.0538538
0.0553101
0.056825
0.0584018
0.0600442
0.0617562
0.0635421
0.0654064
0.0673541
0.0693905
0.0715213
0.0737528
0.0760916
0.078545
0.081121
0.083828
0.0866755
0.0896734
0.0928328
0.0961656
0.099685
0.103405
0.107341
0.111511
0.115932
0.120625
0.125612
0.130917
0.136566
0.142587
0.149011
0.155872
0.163206
0.17105
0.179447
0.188439
0.198071
0.208391
0.219445
0.231286
0.243985
0.257722
0.272826
0.289475
0.307533
0.326833
0.34725
0.36855
0.390358
0.412141
0.433222
0.452847
0.470294
0.485016
0.496755
0.505587
0.511875
0.516148
0.518975
0.520863
0.522199
0.523247
0.524162
0.525022
0.525861
0.0269743
0.0275321
0.0281042
0.0286914
0.0292941
0.029913
0.0305489
0.0312022
0.0318739
0.0325647
0.0332776
0.0340182
0.0347892
0.0355882
0.0364127
0.0372621
0.0381368
0.0390376
0.0399657
0.0409226
0.04191
0.0429294
0.0439827
0.0450717
0.0461985
0.0473651
0.0485737
0.0498267
0.0511265
0.0524759
0.0538776
0.0553346
0.0568502
0.0584278
0.060071
0.0617838
0.0635706
0.0654358
0.0673844
0.0694218
0.0715536
0.0737862
0.0761262
0.0785808
0.081158
0.0838664
0.0867152
0.0897146
0.0928756
0.09621
0.0997311
0.103453
0.107391
0.111563
0.115986
0.120681
0.125671
0.130978
0.136629
0.142653
0.14908
0.155944
0.163281
0.171129
0.179528
0.188524
0.19816
0.208483
0.21954
0.231385
0.244088
0.25783
0.272941
0.289596
0.307657
0.32696
0.347377
0.368675
0.390478
0.412253
0.433323
0.452934
0.470365
0.485072
0.496797
0.505618
0.511896
0.516164
0.518987
0.520873
0.522208
0.523255
0.52417
0.52503
0.525868
0.0269976
0.0275558
0.0281285
0.0287161
0.0293193
0.0299388
0.0305751
0.0312291
0.0319013
0.0325927
0.0333064
0.0340481
0.03482
0.0356198
0.0364451
0.0372952
0.0381706
0.039072
0.0400009
0.0409587
0.0419468
0.0429671
0.0440213
0.0451113
0.0462391
0.0474067
0.0486165
0.0498706
0.0511717
0.0525223
0.0539253
0.0553837
0.0569007
0.0584798
0.0601246
0.0618391
0.0636275
0.0654945
0.0674451
0.0694844
0.0716183
0.0738531
0.0761953
0.0786524
0.0812321
0.0839432
0.0867948
0.0897971
0.0929611
0.0962989
0.0998234
0.103549
0.107491
0.111667
0.116094
0.120794
0.125788
0.1311
0.136756
0.142786
0.149219
0.156088
0.163431
0.171285
0.179692
0.188694
0.198336
0.208666
0.219731
0.231582
0.244293
0.258046
0.273171
0.289837
0.307905
0.327212
0.34763
0.368924
0.390718
0.412477
0.433524
0.453108
0.470508
0.485183
0.49688
0.505678
0.511939
0.516195
0.519012
0.520893
0.522226
0.523271
0.524185
0.525045
0.525882
0.0270326
0.0275915
0.0281648
0.0287532
0.0293571
0.0299774
0.0306145
0.0312693
0.0319424
0.0326347
0.0333496
0.0340928
0.0348662
0.0356673
0.0364936
0.0373448
0.0382212
0.0391238
0.0400538
0.0410127
0.0420022
0.0430238
0.0440793
0.0451708
0.0463001
0.0474693
0.0486806
0.0499365
0.0512394
0.0525919
0.0539969
0.0554573
0.0569765
0.0585578
0.0602049
0.0619219
0.0637129
0.0655827
0.067536
0.0695783
0.0717154
0.0739534
0.0762991
0.0787597
0.0813433
0.0840583
0.0869141
0.0899208
0.0930895
0.0964321
0.0999618
0.103693
0.10764
0.111822
0.116256
0.120962
0.125963
0.131283
0.136947
0.142984
0.149426
0.156305
0.163657
0.17152
0.179937
0.188949
0.198602
0.208942
0.220017
0.231878
0.2446
0.258369
0.273515
0.290198
0.308276
0.32759
0.348009
0.369297
0.391077
0.412812
0.433826
0.453367
0.470721
0.48535
0.497005
0.505768
0.512003
0.516242
0.519048
0.520923
0.522252
0.523296
0.524208
0.525067
0.525903
0.0270792
0.027639
0.0282132
0.0288026
0.0294076
0.0300288
0.0306671
0.0313229
0.0319972
0.0326907
0.0334071
0.0341525
0.0349279
0.0357306
0.0365584
0.037411
0.0382888
0.0391928
0.0401243
0.0410848
0.0420759
0.0430993
0.0441567
0.04525
0.0463813
0.0475526
0.0487662
0.0500244
0.0513296
0.0526847
0.0540923
0.0555555
0.0570775
0.0586618
0.0603121
0.0620323
0.0638268
0.0657001
0.0676573
0.0697036
0.0718448
0.0740871
0.0764374
0.0789029
0.0814915
0.0842118
0.0870732
0.0900858
0.0932607
0.0966098
0.100146
0.103884
0.10784
0.112029
0.116472
0.121187
0.126197
0.131527
0.137201
0.143249
0.149702
0.156593
0.163957
0.171833
0.180263
0.189288
0.198955
0.209309
0.220398
0.232273
0.245009
0.2588
0.273974
0.290679
0.308771
0.328093
0.348513
0.369793
0.391554
0.413257
0.434226
0.453712
0.471005
0.485571
0.49717
0.505887
0.512089
0.516304
0.519096
0.520963
0.522287
0.523329
0.524239
0.525097
0.525932
0.0271374
0.0276983
0.0282738
0.0288643
0.0294706
0.0300931
0.0307327
0.03139
0.0320656
0.0327606
0.0334791
0.034227
0.035005
0.0358097
0.0366393
0.0374936
0.0383732
0.039279
0.0402124
0.0411749
0.0421681
0.0431936
0.0442533
0.0453491
0.0464829
0.0476568
0.0488731
0.0501342
0.0514425
0.0528006
0.0542115
0.0556781
0.0572037
0.0587918
0.060446
0.0621704
0.0639692
0.065847
0.0678089
0.0698601
0.0720065
0.0742543
0.0766103
0.0790818
0.0816767
0.0844037
0.0872721
0.090292
0.0934746
0.0968319
0.100377
0.104124
0.108089
0.112289
0.116742
0.121468
0.12649
0.131831
0.137519
0.143581
0.150047
0.156953
0.164332
0.172225
0.18067
0.189713
0.199396
0.209767
0.220873
0.232765
0.245519
0.259337
0.274547
0.29128
0.309389
0.32872
0.349142
0.370412
0.392148
0.413811
0.434724
0.45414
0.471356
0.485846
0.497375
0.506035
0.512195
0.516381
0.519155
0.521012
0.522332
0.52337
0.524278
0.525134
0.525967
0.0272072
0.0277695
0.0283464
0.0289384
0.0295461
0.0301703
0.0308115
0.0314704
0.0321478
0.0328446
0.0335654
0.0343166
0.0350976
0.0359047
0.0367364
0.0375928
0.0384744
0.0393824
0.0403181
0.041283
0.0422786
0.0433068
0.0443692
0.0454679
0.0466047
0.0477818
0.0490014
0.0502659
0.0515778
0.0529397
0.0543546
0.0558253
0.0573552