/*--------------------------------*- C++ -*----------------------------------*\
  =========                 |
  \\      /  F ield         | OpenFOAM: The Open Source CFD Toolbox
   \\    /   O peration     | Website:  https://openfoam.org
    \\  /    A nd           | Version:  7
     \\/     M anipulation  |
\*---------------------------------------------------------------------------*/
FoamFile
{
    version     2.0;
    format      ascii;
    class       volScalarField;
    location    "68000";
    object      nut;
}
// * * * * * * * * * * * * * * * * * * * * * * * * * * * * * * * * * * * * * //

dimensions      [0 2 -1 0 0 0 0];

internalField   nonuniform List<scalar> 
4764
(
8.11317e-06
8.13423e-06
8.15314e-06
8.16995e-06
8.1848e-06
8.19642e-06
7.70962e-06
7.74885e-06
7.7859e-06
7.82223e-06
7.8563e-06
7.88864e-06
7.91895e-06
7.94771e-06
7.97406e-06
7.99845e-06
8.01974e-06
8.03886e-06
8.05597e-06
8.07087e-06
8.08274e-06
8.09166e-06
8.09971e-06
8.10499e-06
8.10923e-06
8.1123e-06
8.11275e-06
8.11122e-06
8.108e-06
8.10248e-06
8.09474e-06
8.08328e-06
8.06991e-06
8.05473e-06
8.03791e-06
7.59228e-06
7.63169e-06
7.66881e-06
7.70526e-06
7.73936e-06
7.7718e-06
7.80242e-06
7.83129e-06
7.85774e-06
7.88225e-06
7.90367e-06
7.92313e-06
7.94037e-06
7.95532e-06
7.96747e-06
7.97655e-06
7.98459e-06
7.98966e-06
7.99389e-06
7.997e-06
7.9976e-06
7.99614e-06
7.99307e-06
7.98739e-06
7.97958e-06
7.96805e-06
7.95454e-06
7.93916e-06
7.92223e-06
7.90256e-06
7.88027e-06
7.85646e-06
7.83104e-06
7.47373e-06
7.51333e-06
7.55054e-06
7.58704e-06
7.6211e-06
7.65374e-06
7.68448e-06
7.71358e-06
7.74012e-06
7.76476e-06
7.78619e-06
7.80592e-06
7.82324e-06
7.83826e-06
7.85063e-06
7.86002e-06
7.86791e-06
7.87289e-06
7.87714e-06
7.88032e-06
7.88091e-06
7.87949e-06
7.87669e-06
7.87077e-06
7.86286e-06
7.8513e-06
7.83778e-06
7.82222e-06
7.8051e-06
7.78533e-06
7.76288e-06
7.73894e-06
7.71343e-06
7.68595e-06
7.65548e-06
7.62336e-06
7.58913e-06
7.55288e-06
7.5151e-06
7.47559e-06
7.43374e-06
7.38956e-06
7.34395e-06
7.29725e-06
7.24505e-06
7.35403e-06
7.3939e-06
7.43117e-06
7.4676e-06
7.5017e-06
7.53457e-06
7.56534e-06
7.59454e-06
7.62116e-06
7.64593e-06
7.66744e-06
7.68742e-06
7.70478e-06
7.71989e-06
7.73229e-06
7.7421e-06
7.74976e-06
7.75477e-06
7.75904e-06
7.76234e-06
7.76288e-06
7.76146e-06
7.75883e-06
7.75279e-06
7.74468e-06
7.73322e-06
7.71973e-06
7.70398e-06
7.68666e-06
7.66685e-06
7.64425e-06
7.62021e-06
7.59445e-06
7.5669e-06
7.53635e-06
7.50422e-06
7.46984e-06
7.43341e-06
7.39544e-06
7.35578e-06
7.31379e-06
7.26938e-06
7.22381e-06
7.17711e-06
7.12513e-06
7.23325e-06
7.27338e-06
7.31072e-06
7.34711e-06
7.38125e-06
7.41433e-06
7.4451e-06
7.47425e-06
7.50094e-06
7.52582e-06
7.54752e-06
7.56761e-06
7.58499e-06
7.6002e-06
7.61256e-06
7.62275e-06
7.6303e-06
7.63535e-06
7.63965e-06
7.64312e-06
7.64358e-06
7.64213e-06
7.63953e-06
7.6335e-06
7.62514e-06
7.61391e-06
7.60042e-06
7.58448e-06
7.56694e-06
7.54706e-06
7.52445e-06
7.50031e-06
7.47432e-06
7.44674e-06
7.41611e-06
7.38393e-06
7.34941e-06
7.31291e-06
7.27476e-06
7.2349e-06
7.19279e-06
7.14829e-06
7.1028e-06
7.05603e-06
7.0043e-06
7.1115e-06
7.15181e-06
7.18919e-06
7.22557e-06
7.2598e-06
7.29296e-06
7.32381e-06
7.35288e-06
7.37963e-06
7.40451e-06
7.42649e-06
7.44665e-06
7.46406e-06
7.47935e-06
7.49164e-06
7.50202e-06
7.50955e-06
7.51472e-06
7.51904e-06
7.52257e-06
7.52307e-06
7.5216e-06
7.51886e-06
7.51284e-06
7.50444e-06
7.4934e-06
7.4798e-06
7.46368e-06
7.44595e-06
7.42598e-06
7.40354e-06
7.37922e-06
7.35313e-06
7.32543e-06
7.29486e-06
7.26261e-06
7.22797e-06
7.19142e-06
7.15315e-06
7.11311e-06
7.07085e-06
7.0264e-06
6.98092e-06
6.93417e-06
6.88266e-06
6.98896e-06
7.02927e-06
7.06675e-06
7.1031e-06
7.1374e-06
7.17051e-06
7.20144e-06
7.23043e-06
7.25735e-06
7.28215e-06
7.3044e-06
7.3245e-06
7.34204e-06
7.35728e-06
7.36959e-06
7.38005e-06
7.38764e-06
7.39294e-06
7.39727e-06
7.40075e-06
7.4013e-06
7.39992e-06
7.39692e-06
7.39088e-06
7.38263e-06
7.37164e-06
7.35792e-06
7.34174e-06
7.32386e-06
7.30372e-06
7.28158e-06
7.25709e-06
7.23098e-06
7.20308e-06
7.17262e-06
7.14025e-06
7.10553e-06
7.06893e-06
7.03057e-06
6.9904e-06
6.94814e-06
6.90379e-06
6.85835e-06
6.8116e-06
6.76035e-06
6.86569e-06
6.90583e-06
6.94345e-06
6.97968e-06
7.01403e-06
7.04705e-06
7.0781e-06
7.10702e-06
7.13413e-06
7.15874e-06
7.18118e-06
7.2012e-06
7.21888e-06
7.23404e-06
7.24639e-06
7.25702e-06
7.26459e-06
7.27008e-06
7.27441e-06
7.27775e-06
7.27846e-06
7.27715e-06
7.27382e-06
7.26771e-06
7.25967e-06
7.24866e-06
7.23495e-06
7.21875e-06
7.20075e-06
7.18045e-06
7.15856e-06
7.13403e-06
7.10791e-06
7.07985e-06
7.04939e-06
7.01697e-06
6.9822e-06
6.9455e-06
6.9071e-06
6.86685e-06
6.82467e-06
6.78051e-06
6.73513e-06
6.68842e-06
6.63748e-06
6.74166e-06
6.78157e-06
6.81932e-06
6.85538e-06
6.88984e-06
6.92278e-06
6.95379e-06
6.98266e-06
7.00994e-06
7.03443e-06
7.05688e-06
7.07685e-06
7.09465e-06
7.1097e-06
7.12219e-06
7.13291e-06
7.14053e-06
7.14616e-06
7.15053e-06
7.15376e-06
7.15459e-06
7.15326e-06
7.14974e-06
7.14353e-06
7.13562e-06
7.12454e-06
7.1109e-06
7.0947e-06
7.0766e-06
7.05627e-06
7.0346e-06
7.01008e-06
6.98396e-06
6.95582e-06
6.92529e-06
6.89277e-06
6.85801e-06
6.82132e-06
6.78291e-06
6.74262e-06
6.70057e-06
6.65661e-06
6.61133e-06
6.56467e-06
6.5141e-06
6.61692e-06
6.65658e-06
6.69449e-06
6.73038e-06
6.76491e-06
6.79776e-06
6.8286e-06
6.85751e-06
6.88485e-06
6.90921e-06
6.93159e-06
6.95163e-06
6.96942e-06
6.98435e-06
6.99705e-06
7.00781e-06
7.01555e-06
7.02131e-06
7.0257e-06
7.02887e-06
7.02968e-06
7.02838e-06
7.02475e-06
7.01846e-06
7.01063e-06
6.99945e-06
6.98584e-06
6.96975e-06
6.95149e-06
6.93125e-06
6.90969e-06
6.88528e-06
6.85909e-06
6.83103e-06
6.80034e-06
6.76774e-06
6.73309e-06
6.69645e-06
6.65808e-06
6.61779e-06
6.5759e-06
6.53206e-06
6.48692e-06
6.44041e-06
6.39016e-06
6.49151e-06
6.53102e-06
6.56898e-06
6.60476e-06
6.63923e-06
6.67199e-06
6.70269e-06
6.73164e-06
6.75899e-06
6.78324e-06
6.80541e-06
6.82562e-06
6.8433e-06
6.85818e-06
6.87097e-06
6.88187e-06
6.88963e-06
6.89559e-06
6.89997e-06
6.90312e-06
6.90386e-06
6.90249e-06
6.8988e-06
6.89253e-06
6.88469e-06
6.87352e-06
6.85995e-06
6.84397e-06
6.82559e-06
6.80545e-06
6.78389e-06
6.75959e-06
6.73337e-06
6.70543e-06
6.67466e-06
6.64203e-06
6.60744e-06
6.57096e-06
6.53265e-06
6.49239e-06
6.45061e-06
6.40694e-06
6.36202e-06
6.31569e-06
6.2657e-06
6.36557e-06
6.40495e-06
6.44291e-06
6.47858e-06
6.51295e-06
6.54559e-06
6.57615e-06
6.60507e-06
6.63236e-06
6.65661e-06
6.67852e-06
6.6988e-06
6.71641e-06
6.73124e-06
6.74409e-06
6.75508e-06
6.76291e-06
6.76904e-06
6.77339e-06
6.77649e-06
6.77715e-06
6.77566e-06
6.77197e-06
6.7658e-06
6.75787e-06
6.74682e-06
6.73331e-06
6.71734e-06
6.69897e-06
6.67894e-06
6.65728e-06
6.63309e-06
6.60694e-06
6.57907e-06
6.54826e-06
6.51573e-06
6.48119e-06
6.44481e-06
6.4066e-06
6.36644e-06
6.32477e-06
6.28129e-06
6.23662e-06
6.19054e-06
6.14081e-06
6.19788e-06
6.23911e-06
6.27843e-06
6.31628e-06
6.35187e-06
6.38613e-06
6.41857e-06
6.44906e-06
6.47786e-06
6.50502e-06
6.52936e-06
6.55099e-06
6.57124e-06
6.58879e-06
6.60355e-06
6.6165e-06
6.6275e-06
6.63547e-06
6.64162e-06
6.64595e-06
6.64903e-06
6.64964e-06
6.64798e-06
6.64441e-06
6.63826e-06
6.63023e-06
6.61936e-06
6.60593e-06
6.5899e-06
6.5717e-06
6.55178e-06
6.53002e-06
6.50595e-06
6.47988e-06
6.45202e-06
6.42129e-06
6.38882e-06
6.35435e-06
6.31807e-06
6.27999e-06
6.24004e-06
6.19849e-06
6.15525e-06
6.11084e-06
6.06497e-06
6.01561e-06
6.07129e-06
6.11219e-06
6.15148e-06
6.18914e-06
6.22461e-06
6.25878e-06
6.29106e-06
6.32146e-06
6.35008e-06
6.37706e-06
6.40146e-06
6.4229e-06
6.44309e-06
6.4605e-06
6.47519e-06
6.48822e-06
6.4992e-06
6.50736e-06
6.51346e-06
6.51781e-06
6.52086e-06
6.52141e-06
6.51963e-06
6.51621e-06
6.51002e-06
6.50186e-06
6.49118e-06
6.47781e-06
6.46175e-06
6.44384e-06
6.42402e-06
6.40211e-06
6.37823e-06
6.35219e-06
6.32437e-06
6.2938e-06
6.2614e-06
6.22704e-06
6.19087e-06
6.15294e-06
6.11327e-06
6.07181e-06
6.02888e-06
5.98469e-06
5.93907e-06
5.89011e-06
5.94431e-06
5.98492e-06
6.02411e-06
6.06162e-06
6.09693e-06
6.13101e-06
6.16311e-06
6.19333e-06
6.22175e-06
6.24861e-06
6.27296e-06
6.29429e-06
6.31435e-06
6.33167e-06
6.34629e-06
6.35938e-06
6.37034e-06
6.37855e-06
6.38466e-06
6.38905e-06
6.392e-06
6.39252e-06
6.39071e-06
6.38734e-06
6.38111e-06
6.37291e-06
6.36236e-06
6.34904e-06
6.33304e-06
6.31541e-06
6.29568e-06
6.2737e-06
6.24991e-06
6.22397e-06
6.19625e-06
6.16579e-06
6.13347e-06
6.09928e-06
6.06323e-06
6.02555e-06
5.98615e-06
5.94484e-06
5.90218e-06
5.85826e-06
5.81288e-06
5.76441e-06
5.77438e-06
5.81702e-06
5.85739e-06
5.89642e-06
5.93373e-06
5.96882e-06
6.0029e-06
6.03473e-06
6.06478e-06
6.093e-06
6.11969e-06
6.14394e-06
6.16521e-06
6.18515e-06
6.20233e-06
6.21692e-06
6.23007e-06
6.24096e-06
6.24913e-06
6.25533e-06
6.25977e-06
6.26253e-06
6.26309e-06
6.26128e-06
6.25788e-06
6.25169e-06
6.24338e-06
6.23295e-06
6.21977e-06
6.20385e-06
6.18639e-06
6.16678e-06
6.14485e-06
6.12106e-06
6.09529e-06
6.06767e-06
6.03739e-06
6.00512e-06
5.97118e-06
5.93529e-06
5.89791e-06
5.85875e-06
5.81764e-06
5.77526e-06
5.73158e-06
5.68651e-06
5.63851e-06
5.64727e-06
5.68947e-06
5.72967e-06
5.76845e-06
5.80552e-06
5.84043e-06
5.87441e-06
5.90601e-06
5.93583e-06
5.96391e-06
5.99043e-06
6.01445e-06
6.03564e-06
6.0555e-06
6.0726e-06
6.08713e-06
6.10032e-06
6.11108e-06
6.11924e-06
6.12556e-06
6.12997e-06
6.13258e-06
6.13318e-06
6.13142e-06
6.12795e-06
6.12183e-06
6.11342e-06
6.10312e-06
6.09001e-06
6.07425e-06
6.05684e-06
6.03745e-06
6.01562e-06
5.99176e-06
5.96617e-06
5.93872e-06
5.90862e-06
5.87646e-06
5.84282e-06
5.8071e-06
5.77004e-06
5.7311e-06
5.69027e-06
5.64818e-06
5.60474e-06
5.56004e-06
5.51246e-06
5.47669e-06
5.52005e-06
5.56176e-06
5.60182e-06
5.6403e-06
5.67713e-06
5.71181e-06
5.74561e-06
5.77698e-06
5.80657e-06
5.83453e-06
5.86088e-06
5.88456e-06
5.9057e-06
5.92552e-06
5.94255e-06
5.95698e-06
5.97014e-06
5.98078e-06
5.98897e-06
5.99541e-06
5.99978e-06
6.00226e-06
6.0028e-06
6.00113e-06
5.99755e-06
5.99158e-06
5.98309e-06
5.97292e-06
5.95984e-06
5.94427e-06
5.92684e-06
5.90768e-06
5.88598e-06
5.86216e-06
5.83676e-06
5.80943e-06
5.77958e-06
5.74758e-06
5.71417e-06
5.67864e-06
5.64193e-06
5.60329e-06
5.56271e-06
5.52094e-06
5.47778e-06
5.43349e-06
5.38634e-06
5.34984e-06
5.39281e-06
5.434e-06
5.47384e-06
5.51199e-06
5.54856e-06
5.58302e-06
5.61654e-06
5.64775e-06
5.67705e-06
5.70486e-06
5.73103e-06
5.75435e-06
5.77549e-06
5.79522e-06
5.81222e-06
5.82652e-06
5.83963e-06
5.85013e-06
5.85835e-06
5.86493e-06
5.86924e-06
5.87161e-06
5.87207e-06
5.8705e-06
5.86674e-06
5.86093e-06
5.85245e-06
5.84238e-06
5.8294e-06
5.81391e-06
5.79653e-06
5.77754e-06
5.75604e-06
5.73233e-06
5.70711e-06
5.67992e-06
5.65028e-06
5.61852e-06
5.58528e-06
5.55003e-06
5.51362e-06
5.47533e-06
5.43506e-06
5.39358e-06
5.3508e-06
5.30693e-06
5.26026e-06
5.22298e-06
5.26554e-06
5.30627e-06
5.34581e-06
5.38361e-06
5.41992e-06
5.45407e-06
5.4873e-06
5.51837e-06
5.54737e-06
5.57501e-06
5.60094e-06
5.62396e-06
5.64506e-06
5.6647e-06
5.68159e-06
5.69581e-06
5.70878e-06
5.71915e-06
5.72748e-06
5.73412e-06
5.7384e-06
5.74069e-06
5.74107e-06
5.73952e-06
5.73568e-06
5.72993e-06
5.72154e-06
5.7116e-06
5.69873e-06
5.68323e-06
5.66601e-06
5.64711e-06
5.62583e-06
5.60232e-06
5.57724e-06
5.5502e-06
5.52079e-06
5.48929e-06
5.45621e-06
5.42128e-06
5.38518e-06
5.34727e-06
5.30735e-06
5.26623e-06
5.22389e-06
5.1804e-06
5.13427e-06
5.0962e-06
5.13834e-06
5.17862e-06
5.21776e-06
5.25524e-06
5.29122e-06
5.32507e-06
5.35799e-06
5.38887e-06
5.41761e-06
5.44505e-06
5.47065e-06
5.49346e-06
5.5145e-06
5.53399e-06
5.55078e-06
5.56492e-06
5.57767e-06
5.58797e-06
5.59641e-06
5.60307e-06
5.60729e-06
5.60955e-06
5.60988e-06
5.60825e-06
5.60442e-06
5.59867e-06
5.59044e-06
5.58061e-06
5.56781e-06
5.55237e-06
5.53532e-06
5.51645e-06
5.49547e-06
5.47212e-06
5.44719e-06
5.42031e-06
5.39122e-06
5.35995e-06
5.32704e-06
5.2925e-06
5.25668e-06
5.21918e-06
5.17966e-06
5.1389e-06
5.09707e-06
5.05396e-06
5.00843e-06
4.96956e-06
5.01122e-06
5.05109e-06
5.08973e-06
5.12688e-06
5.16251e-06
5.1961e-06
5.22863e-06
5.25929e-06
5.28782e-06
5.31497e-06
5.34025e-06
5.36293e-06
5.38387e-06
5.40321e-06
5.41987e-06
5.43391e-06
5.44641e-06
5.45666e-06
5.46519e-06
5.4718e-06
5.47601e-06
5.4782e-06
5.47855e-06
5.47683e-06
5.47304e-06
5.46727e-06
5.45922e-06
5.44949e-06
5.43672e-06
5.42141e-06
5.40451e-06
5.3857e-06
5.36498e-06
5.34184e-06
5.31711e-06
5.29033e-06
5.2616e-06
5.23061e-06
5.1979e-06
5.16371e-06
5.12823e-06
5.09117e-06
5.05203e-06
5.01171e-06
4.97035e-06
4.92765e-06
4.88275e-06
4.80074e-06
4.84307e-06
4.88423e-06
4.92372e-06
4.96185e-06
4.99864e-06
5.0339e-06
5.06722e-06
5.09929e-06
5.12976e-06
5.15804e-06
5.18484e-06
5.20986e-06
5.23239e-06
5.25322e-06
5.2724e-06
5.28894e-06
5.30283e-06
5.31508e-06
5.3253e-06
5.33383e-06
5.34038e-06
5.34464e-06
5.34673e-06
5.34714e-06
5.34532e-06
5.34157e-06
5.33581e-06
5.32794e-06
5.31826e-06
5.30556e-06
5.29041e-06
5.27361e-06
5.25488e-06
5.23444e-06
5.21151e-06
5.18705e-06
5.16032e-06
5.13198e-06
5.10134e-06
5.06887e-06
5.03503e-06
4.99988e-06
4.96326e-06
4.92458e-06
4.88472e-06
4.84379e-06
4.80156e-06
4.75731e-06
4.63045e-06
4.67505e-06
4.71678e-06
4.75742e-06
4.79652e-06
4.83417e-06
4.87053e-06
4.90543e-06
4.93848e-06
4.97008e-06
5.00029e-06
5.02831e-06
5.05479e-06
5.0795e-06
5.1019e-06
5.12263e-06
5.14157e-06
5.15804e-06
5.17168e-06
5.18376e-06
5.19394e-06
5.20243e-06
5.20892e-06
5.21317e-06
5.21524e-06
5.21565e-06
5.21373e-06
5.21003e-06
5.20432e-06
5.19666e-06
5.18698e-06
5.17436e-06
5.15942e-06
5.14274e-06
5.12409e-06
5.10396e-06
5.08124e-06
5.05701e-06
5.0304e-06
5.00247e-06
4.97216e-06
4.94e-06
4.90652e-06
4.87171e-06
4.83552e-06
4.79735e-06
4.75797e-06
4.71748e-06
4.67576e-06
4.63212e-06
4.50566e-06
4.54965e-06
4.59081e-06
4.63092e-06
4.66955e-06
4.70676e-06
4.74265e-06
4.77716e-06
4.80989e-06
4.84107e-06
4.87099e-06
4.8987e-06
4.92487e-06
4.94928e-06
4.97147e-06
4.99213e-06
5.01083e-06
5.02717e-06
5.04059e-06
5.05253e-06
5.06263e-06
5.07102e-06
5.07745e-06
5.08168e-06
5.08378e-06
5.08418e-06
5.08218e-06
5.07853e-06
5.07288e-06
5.06543e-06
5.05575e-06
5.04322e-06
5.02846e-06
5.01196e-06
4.99342e-06
4.9736e-06
4.95111e-06
4.92706e-06
4.90064e-06
4.87309e-06
4.84315e-06
4.81132e-06
4.77823e-06
4.74381e-06
4.708e-06
4.67041e-06
4.63148e-06
4.59147e-06
4.5503e-06
4.50728e-06
4.38129e-06
4.42465e-06
4.46523e-06
4.50478e-06
4.5429e-06
4.57962e-06
4.61502e-06
4.64913e-06
4.68156e-06
4.71232e-06
4.74188e-06
4.76926e-06
4.7951e-06
4.81926e-06
4.84121e-06
4.86173e-06
4.88019e-06
4.8964e-06
4.90963e-06
4.92143e-06
4.93143e-06
4.93973e-06
4.9461e-06
4.95028e-06
4.95241e-06
4.95277e-06
4.95073e-06
4.94714e-06
4.94157e-06
4.93426e-06
4.92462e-06
4.91217e-06
4.89763e-06
4.88132e-06
4.8629e-06
4.84338e-06
4.82115e-06
4.79728e-06
4.77109e-06
4.74387e-06
4.71433e-06
4.68285e-06
4.65019e-06
4.6162e-06
4.58079e-06
4.54375e-06
4.50535e-06
4.46579e-06
4.42522e-06
4.3828e-06
4.25739e-06
4.30009e-06
4.34007e-06
4.379e-06
4.41665e-06
4.45286e-06
4.48774e-06
4.52139e-06
4.5535e-06
4.58388e-06
4.61301e-06
4.64008e-06
4.66557e-06
4.68949e-06
4.71117e-06
4.73154e-06
4.74977e-06
4.76578e-06
4.77886e-06
4.79054e-06
4.80041e-06
4.80861e-06
4.81494e-06
4.81904e-06
4.82116e-06
4.82153e-06
4.81946e-06
4.81593e-06
4.81042e-06
4.80325e-06
4.79366e-06
4.78132e-06
4.76702e-06
4.75083e-06
4.7326e-06
4.71335e-06
4.69139e-06
4.66775e-06
4.64182e-06
4.6149e-06
4.58575e-06
4.55465e-06
4.52246e-06
4.48892e-06
4.45392e-06
4.41743e-06
4.37963e-06
4.34054e-06
4.30055e-06
4.25874e-06
4.134e-06
4.17601e-06
4.21536e-06
4.25365e-06
4.29081e-06
4.32653e-06
4.36088e-06
4.39405e-06
4.42581e-06
4.4558e-06
4.48446e-06
4.51125e-06
4.53631e-06
4.55998e-06
4.58143e-06
4.60158e-06
4.61963e-06
4.63544e-06
4.64835e-06
4.65989e-06
4.66963e-06
4.67775e-06
4.68402e-06
4.68802e-06
4.69011e-06
4.6905e-06
4.68841e-06
4.68494e-06
4.6795e-06
4.6724e-06
4.66289e-06
4.65074e-06
4.63665e-06
4.62056e-06
4.60259e-06
4.58359e-06
4.56192e-06
4.53853e-06
4.51289e-06
4.48624e-06
4.4575e-06
4.42682e-06
4.39509e-06
4.36204e-06
4.32747e-06
4.29156e-06
4.25436e-06
4.21578e-06
4.17637e-06
4.1352e-06
4.01115e-06
4.05243e-06
4.09118e-06
4.12882e-06
4.16547e-06
4.20066e-06
4.23449e-06
4.26717e-06
4.29852e-06
4.32809e-06
4.35633e-06
4.3828e-06
4.40743e-06
4.43084e-06
4.45205e-06
4.47196e-06
4.48982e-06
4.50539e-06
4.51814e-06
4.52955e-06
4.53915e-06
4.54719e-06
4.55339e-06
4.55728e-06
4.55935e-06
4.55972e-06
4.55766e-06
4.55419e-06
4.54882e-06
4.54179e-06
4.53238e-06
4.52048e-06
4.50656e-06
4.49062e-06
4.47292e-06
4.45418e-06
4.43276e-06
4.40964e-06
4.38434e-06
4.358e-06
4.32966e-06
4.29942e-06
4.26813e-06
4.2356e-06
4.20147e-06
4.16615e-06
4.12958e-06
4.09152e-06
4.0527e-06
4.01224e-06
3.88892e-06
3.92943e-06
3.96758e-06
4.00457e-06
4.04065e-06
4.07532e-06
4.10859e-06
4.14081e-06
4.17172e-06
4.20084e-06
4.22864e-06
4.25476e-06
4.27899e-06
4.30209e-06
4.32308e-06
4.34275e-06
4.36036e-06
4.37571e-06
4.3883e-06
4.39957e-06
4.40903e-06
4.41698e-06
4.42306e-06
4.42687e-06
4.42893e-06
4.42923e-06
4.42725e-06
4.42378e-06
4.41848e-06
4.41147e-06
4.40219e-06
4.3906e-06
4.37679e-06
4.36106e-06
4.34365e-06
4.32515e-06
4.30401e-06
4.28115e-06
4.25625e-06
4.23024e-06
4.20228e-06
4.17248e-06
4.14168e-06
4.10968e-06
4.07602e-06
4.0413e-06
4.00535e-06
3.96785e-06
3.92965e-06
3.88988e-06
3.76737e-06
3.8071e-06
3.84458e-06
3.88096e-06
3.91644e-06
3.95059e-06
3.98327e-06
4.01498e-06
4.04543e-06
4.07407e-06
4.10145e-06
4.12719e-06
4.15105e-06
4.17383e-06
4.19458e-06
4.21396e-06
4.23129e-06
4.24643e-06
4.25889e-06
4.26996e-06
4.27933e-06
4.28717e-06
4.29309e-06
4.29687e-06
4.29887e-06
4.29915e-06
4.29725e-06
4.29378e-06
4.28854e-06
4.28153e-06
4.27243e-06
4.26109e-06
4.24746e-06
4.23191e-06
4.21483e-06
4.19656e-06
4.1757e-06
4.15314e-06
4.12866e-06
4.10298e-06
4.07545e-06
4.04609e-06
4.0158e-06
3.9843e-06
3.95113e-06
3.91703e-06
3.88171e-06
3.84485e-06
3.80726e-06
3.76821e-06
3.64653e-06
3.68547e-06
3.72226e-06
3.75802e-06
3.79286e-06
3.82648e-06
3.8586e-06
3.88977e-06
3.91971e-06
3.94786e-06
3.97482e-06
4.00017e-06
4.02367e-06
4.04611e-06
4.06659e-06
4.08569e-06
4.10272e-06
4.11761e-06
4.12996e-06
4.14081e-06
4.15011e-06
4.15777e-06
4.16358e-06
4.1673e-06
4.16928e-06
4.16955e-06
4.16772e-06
4.16421e-06
4.15905e-06
4.15208e-06
4.14316e-06
4.13203e-06
4.11863e-06
4.10329e-06
4.08653e-06
4.06846e-06
4.04789e-06
4.02566e-06
4.00158e-06
3.97631e-06
3.94923e-06
3.92032e-06
3.89052e-06
3.85952e-06
3.8269e-06
3.79341e-06
3.75877e-06
3.72257e-06
3.6856e-06
3.64728e-06
3.52645e-06
3.56462e-06
3.60069e-06
3.63582e-06
3.66997e-06
3.70304e-06
3.73464e-06
3.76521e-06
3.79463e-06
3.82231e-06
3.84883e-06
3.87376e-06
3.8969e-06
3.91897e-06
3.93916e-06
3.958e-06
3.97468e-06
3.98932e-06
4.00155e-06
4.0122e-06
4.02142e-06
4.02886e-06
4.03457e-06
4.03825e-06
4.04022e-06
4.04044e-06
4.03872e-06
4.03518e-06
4.0301e-06
4.02318e-06
4.01441e-06
4.00346e-06
3.99032e-06
3.97524e-06
3.95877e-06
3.94096e-06
3.92068e-06
3.89876e-06
3.87508e-06
3.85026e-06
3.82363e-06
3.79521e-06
3.76592e-06
3.7354e-06
3.7034e-06
3.67053e-06
3.63654e-06
3.60105e-06
3.5647e-06
3.52716e-06
3.40719e-06
3.44459e-06
3.47996e-06
3.51442e-06
3.54784e-06
3.58034e-06
3.61144e-06
3.64141e-06
3.67029e-06
3.69748e-06
3.72351e-06
3.74803e-06
3.77079e-06
3.7925e-06
3.81238e-06
3.83092e-06
3.84727e-06
3.86166e-06
3.87375e-06
3.88419e-06
3.89328e-06
3.90053e-06
3.90614e-06
3.90982e-06
3.91176e-06
3.91194e-06
3.91026e-06
3.90674e-06
3.90174e-06
3.89489e-06
3.88624e-06
3.87546e-06
3.86259e-06
3.84783e-06
3.83163e-06
3.81408e-06
3.79412e-06
3.77254e-06
3.74925e-06
3.72491e-06
3.69872e-06
3.67081e-06
3.64204e-06
3.61201e-06
3.58069e-06
3.54845e-06
3.5151e-06
3.48034e-06
3.44462e-06
3.40789e-06
3.28883e-06
3.32546e-06
3.36008e-06
3.39386e-06
3.42656e-06
3.45847e-06
3.48904e-06
3.51841e-06
3.54676e-06
3.57343e-06
3.59896e-06
3.62303e-06
3.64541e-06
3.66675e-06
3.6863e-06
3.70449e-06
3.72052e-06
3.73469e-06
3.74659e-06
3.75682e-06
3.76576e-06
3.77283e-06
3.77835e-06
3.78204e-06
3.78392e-06
3.78411e-06
3.78242e-06
3.77898e-06
3.77403e-06
3.76724e-06
3.75873e-06
3.7481e-06
3.7355e-06
3.72112e-06
3.70516e-06
3.68791e-06
3.6683e-06
3.64708e-06
3.62415e-06
3.6003e-06
3.57456e-06
3.54719e-06
3.51898e-06
3.48945e-06
3.45883e-06
3.42723e-06
3.39454e-06
3.36051e-06
3.32545e-06
3.2895e-06
3.17142e-06
3.20726e-06
3.24114e-06
3.2742e-06
3.3062e-06
3.33747e-06
3.3675e-06
3.39625e-06
3.42409e-06
3.45022e-06
3.47522e-06
3.49884e-06
3.52083e-06
3.54176e-06
3.56098e-06
3.57879e-06
3.59452e-06
3.60844e-06
3.62016e-06
3.63017e-06
3.63898e-06
3.64586e-06
3.65128e-06
3.65499e-06
3.65681e-06
3.65701e-06
3.6553e-06
3.65195e-06
3.64705e-06
3.6403e-06
3.63193e-06
3.62145e-06
3.60917e-06
3.59514e-06
3.57944e-06
3.56251e-06
3.54328e-06
3.52239e-06
3.49985e-06
3.47649e-06
3.45124e-06
3.42444e-06
3.39678e-06
3.36779e-06
3.33786e-06
3.3069e-06
3.2749e-06
3.24163e-06
3.20723e-06
3.17205e-06
3.05502e-06
3.09004e-06
3.12321e-06
3.15551e-06
3.18682e-06
3.21743e-06
3.24689e-06
3.27502e-06
3.30231e-06
3.32789e-06
3.35234e-06
3.37552e-06
3.39708e-06
3.41759e-06
3.43649e-06
3.45388e-06
3.46933e-06
3.48297e-06
3.4945e-06
3.50433e-06
3.51298e-06
3.51969e-06
3.52502e-06
3.52868e-06
3.53048e-06
3.5307e-06
3.52898e-06
3.5257e-06
3.52086e-06
3.51417e-06
3.50589e-06
3.49563e-06
3.48364e-06
3.46994e-06
3.45456e-06
3.43794e-06
3.4191e-06
3.39858e-06
3.37645e-06
3.35357e-06
3.32885e-06
3.30261e-06
3.27548e-06
3.24708e-06
3.21782e-06
3.18754e-06
3.15624e-06
3.12375e-06
3.09003e-06
3.05563e-06
2.9397e-06
2.97388e-06
3.00631e-06
3.03788e-06
3.06847e-06
3.09839e-06
3.12728e-06
3.15479e-06
3.18148e-06
3.20652e-06
3.23042e-06
3.25311e-06
3.27426e-06
3.29434e-06
3.31288e-06
3.32984e-06
3.34501e-06
3.35835e-06
3.36966e-06
3.37937e-06
3.38782e-06
3.39438e-06
3.39963e-06
3.40319e-06
3.40501e-06
3.40522e-06
3.40351e-06
3.40027e-06
3.39552e-06
3.38887e-06
3.38071e-06
3.37069e-06
3.359e-06
3.34563e-06
3.33058e-06
3.31424e-06
3.29583e-06
3.27567e-06
3.25399e-06
3.23159e-06
3.20743e-06
3.18175e-06
3.15514e-06
3.1274e-06
3.09877e-06
3.06922e-06
3.03859e-06
3.00691e-06
2.97391e-06
2.9403e-06
2.82555e-06
2.85885e-06
2.8905e-06
2.92134e-06
2.95123e-06
2.98043e-06
3.00871e-06
3.03562e-06
3.06167e-06
3.08618e-06
3.10952e-06
3.13171e-06
3.15244e-06
3.17208e-06
3.19024e-06
3.20678e-06
3.22164e-06
3.23465e-06
3.24574e-06
3.25534e-06
3.26356e-06
3.27001e-06
3.27517e-06
3.27858e-06
3.28044e-06
3.28062e-06
3.27893e-06
3.27573e-06
3.27111e-06
3.2645e-06
3.25647e-06
3.24669e-06
3.23532e-06
3.22225e-06
3.20754e-06
3.19149e-06
3.17352e-06
3.15378e-06
3.13254e-06
3.1106e-06
3.08702e-06
3.0619e-06
3.03584e-06
3.00879e-06
2.98081e-06
2.95196e-06
2.92205e-06
2.89116e-06
2.85892e-06
2.82613e-06
2.71259e-06
2.74502e-06
2.77589e-06
2.80596e-06
2.83512e-06
2.8636e-06
2.89126e-06
2.91756e-06
2.94298e-06
2.9669e-06
2.98967e-06
3.01138e-06
3.03168e-06
3.05084e-06
3.06861e-06
3.08477e-06
3.09928e-06
3.11197e-06
3.12284e-06
3.13232e-06
3.1403e-06
3.14663e-06
3.1517e-06
3.15496e-06
3.15686e-06
3.15702e-06
3.15535e-06
3.15219e-06
3.14771e-06
3.14115e-06
3.13326e-06
3.1237e-06
3.11264e-06
3.09986e-06
3.08552e-06
3.06976e-06
3.05224e-06
3.03295e-06
3.01217e-06
2.99071e-06
2.96768e-06
2.94314e-06
2.91765e-06
2.89132e-06
2.864e-06
2.83584e-06
2.80665e-06
2.77657e-06
2.74512e-06
2.71317e-06
2.6009e-06
2.63245e-06
2.66253e-06
2.6918e-06
2.72023e-06
2.74799e-06
2.775e-06
2.80067e-06
2.82546e-06
2.84876e-06
2.87094e-06
2.89218e-06
2.91203e-06
2.93072e-06
2.94806e-06
2.96387e-06
2.97801e-06
2.9904e-06
3.00102e-06
3.01034e-06
3.01807e-06
3.02433e-06
3.02927e-06
3.03241e-06
3.03433e-06
3.03447e-06
3.03283e-06
3.02971e-06
3.02536e-06
3.01889e-06
3.01114e-06
3.00182e-06
2.99102e-06
2.97858e-06
2.96459e-06
2.94915e-06
2.93209e-06
2.91327e-06
2.89295e-06
2.87198e-06
2.84951e-06
2.82555e-06
2.80067e-06
2.77506e-06
2.74841e-06
2.72091e-06
2.69248e-06
2.6632e-06
2.63259e-06
2.60147e-06
2.49053e-06
2.52122e-06
2.55046e-06
2.57893e-06
2.60661e-06
2.63366e-06
2.65999e-06
2.68504e-06
2.70918e-06
2.73185e-06
2.75344e-06
2.77418e-06
2.79358e-06
2.81176e-06
2.8287e-06
2.84416e-06
2.85789e-06
2.86997e-06
2.88037e-06
2.88948e-06
2.89696e-06
2.90313e-06
2.90795e-06
2.91101e-06
2.91292e-06
2.91305e-06
2.91142e-06
2.90838e-06
2.90416e-06
2.89777e-06
2.89015e-06
2.88109e-06
2.87056e-06
2.85844e-06
2.8448e-06
2.82971e-06
2.8131e-06
2.79476e-06
2.77492e-06
2.75445e-06
2.73254e-06
2.70921e-06
2.68494e-06
2.66003e-06
2.63411e-06
2.60729e-06
2.57961e-06
2.55113e-06
2.52136e-06
2.4911e-06
2.38157e-06
2.41137e-06
2.43979e-06
2.46743e-06
2.49435e-06
2.52068e-06
2.54633e-06
2.57073e-06
2.59421e-06
2.61623e-06
2.63724e-06
2.65744e-06
2.67641e-06
2.69407e-06
2.71056e-06
2.72566e-06
2.73898e-06
2.75078e-06
2.76095e-06
2.76983e-06
2.77706e-06
2.78314e-06
2.78784e-06
2.79082e-06
2.79267e-06
2.79282e-06
2.79122e-06
2.78827e-06
2.78414e-06
2.77787e-06
2.77039e-06
2.76157e-06
2.75132e-06
2.73954e-06
2.72626e-06
2.71154e-06
2.69536e-06
2.6775e-06
2.65818e-06
2.63819e-06
2.61686e-06
2.59417e-06
2.57055e-06
2.54632e-06
2.52114e-06
2.49502e-06
2.46812e-06
2.44042e-06
2.41151e-06
2.38211e-06
2.27406e-06
2.30297e-06
2.33056e-06
2.35738e-06
2.38352e-06
2.40913e-06
2.43405e-06
2.45779e-06
2.48061e-06
2.50198e-06
2.5224e-06
2.54204e-06
2.56058e-06
2.57768e-06
2.59372e-06
2.60847e-06
2.62139e-06
2.63291e-06
2.64283e-06
2.65146e-06
2.65846e-06
2.66444e-06
2.66902e-06
2.67191e-06
2.67369e-06
2.67385e-06
2.67231e-06
2.66943e-06
2.66539e-06
2.65924e-06
2.65193e-06
2.64332e-06
2.63338e-06
2.62193e-06
2.60902e-06
2.59469e-06
2.57893e-06
2.56156e-06
2.54279e-06
2.5233e-06
2.50253e-06
2.48051e-06
2.45757e-06
2.43402e-06
2.40957e-06
2.3842e-06
2.35807e-06
2.33115e-06
2.30313e-06
2.27459e-06
2.16808e-06
2.19609e-06
2.22285e-06
2.24885e-06
2.27419e-06
2.29907e-06
2.32325e-06
2.34632e-06
2.36844e-06
2.38917e-06
2.40901e-06
2.42807e-06
2.44615e-06
2.46268e-06
2.47826e-06
2.49264e-06
2.50519e-06
2.51643e-06
2.52607e-06
2.53447e-06
2.54123e-06
2.54709e-06
2.55153e-06
2.55437e-06
2.55606e-06
2.55621e-06
2.55476e-06
2.55193e-06
2.54797e-06
2.54198e-06
2.53486e-06
2.52646e-06
2.51681e-06
2.5057e-06
2.49319e-06
2.47924e-06
2.46392e-06
2.44704e-06
2.42883e-06
2.40984e-06
2.38966e-06
2.36832e-06
2.34605e-06
2.3232e-06
2.29947e-06
2.27487e-06
2.24952e-06
2.22341e-06
2.19628e-06
2.1686e-06
2.06371e-06
2.09081e-06
2.11672e-06
2.1419e-06
2.16644e-06
2.19057e-06
2.21399e-06
2.23637e-06
2.25779e-06
2.27788e-06
2.29713e-06
2.3156e-06
2.3332e-06
2.34917e-06
2.36429e-06
2.37826e-06
2.39044e-06
2.40142e-06
2.41076e-06
2.41893e-06
2.42546e-06
2.43117e-06
2.43546e-06
2.43824e-06
2.43985e-06
2.43998e-06
2.43863e-06
2.43588e-06
2.43198e-06
2.42617e-06
2.41925e-06
2.41107e-06
2.40169e-06
2.39094e-06
2.37881e-06
2.36524e-06
2.35039e-06
2.334e-06
2.31638e-06
2.29789e-06
2.27833e-06
2.25766e-06
2.23608e-06
2.21393e-06
2.19093e-06
2.1671e-06
2.14255e-06
2.11726e-06
2.09104e-06
2.06422e-06
1.96102e-06
1.98719e-06
2.01224e-06
2.03662e-06
2.06034e-06
2.0837e-06
2.10636e-06
2.12801e-06
2.14875e-06
2.16818e-06
2.18682e-06
2.20473e-06
2.22179e-06
2.23723e-06
2.25188e-06
2.26543e-06
2.27724e-06
2.28793e-06
2.29697e-06
2.30491e-06
2.31121e-06
2.31676e-06
2.32092e-06
2.32363e-06
2.32517e-06
2.32525e-06
2.32401e-06
2.32134e-06
2.3175e-06
2.3119e-06
2.30518e-06
2.29722e-06
2.28811e-06
2.27771e-06
2.26599e-06
2.25281e-06
2.23844e-06
2.22252e-06
2.20549e-06
2.18755e-06
2.1686e-06
2.1486e-06
2.12773e-06
2.10629e-06
2.084e-06
2.06096e-06
2.03721e-06
2.01277e-06
1.98747e-06
1.96151e-06
1.8601e-06
1.88531e-06
1.9095e-06
1.93306e-06
1.95596e-06
1.97854e-06
2.00042e-06
2.02133e-06
2.04138e-06
2.06014e-06
2.07819e-06
2.09551e-06
2.11203e-06
2.12695e-06
2.1411e-06
2.15423e-06
2.16565e-06
2.17604e-06
2.18479e-06
2.19248e-06
2.19857e-06
2.20395e-06
2.20796e-06
2.2106e-06
2.21207e-06
2.21213e-06
2.21098e-06
2.20839e-06
2.20463e-06
2.19923e-06
2.19272e-06
2.185e-06
2.17616e-06
2.16611e-06
2.15479e-06
2.14199e-06
2.12811e-06
2.1127e-06
2.09625e-06
2.07888e-06
2.06057e-06
2.04123e-06
2.02107e-06
2.00036e-06
1.97878e-06
1.95654e-06
1.9336e-06
1.91002e-06
1.88562e-06
1.86057e-06
1.76099e-06
1.78526e-06
1.80857e-06
1.8313e-06
1.85338e-06
1.87515e-06
1.89624e-06
1.91642e-06
1.93576e-06
1.95384e-06
1.97131e-06
1.98803e-06
2.00398e-06
2.0184e-06
2.03205e-06
2.04474e-06
2.05577e-06
2.06584e-06
2.0743e-06
2.08176e-06
2.08763e-06
2.09282e-06
2.09669e-06
2.09924e-06
2.10066e-06
2.1007e-06
2.09961e-06
2.09714e-06
2.09344e-06
2.08825e-06
2.08194e-06
2.07448e-06
2.06593e-06
2.05621e-06
2.04529e-06
2.03289e-06
2.0195e-06
2.00462e-06
1.98874e-06
1.97195e-06
1.9543e-06
1.93563e-06
1.91619e-06
1.89619e-06
1.87535e-06
1.85392e-06
1.83179e-06
1.80908e-06
1.78558e-06
1.76145e-06
1.66378e-06
1.68711e-06
1.70953e-06
1.73143e-06
1.75266e-06
1.77362e-06
1.79393e-06
1.81336e-06
1.83198e-06
1.84938e-06
1.86627e-06
1.88237e-06
1.89775e-06
1.91167e-06
1.92479e-06
1.93704e-06
1.9477e-06
1.95742e-06
1.9656e-06
1.97282e-06
1.97847e-06
1.98345e-06
1.98719e-06
1.98965e-06
1.99101e-06
1.99106e-06
1.99002e-06
1.98766e-06
1.98404e-06
1.97904e-06
1.97296e-06
1.96576e-06
1.9575e-06
1.94811e-06
1.93758e-06
1.92558e-06
1.9127e-06
1.89837e-06
1.88305e-06
1.86685e-06
1.84987e-06
1.83188e-06
1.81315e-06
1.79388e-06
1.7738e-06
1.75319e-06
1.73187e-06
1.71001e-06
1.68743e-06
1.66423e-06
1.56855e-06
1.59094e-06
1.61247e-06
1.63352e-06
1.6539e-06
1.67403e-06
1.69356e-06
1.71222e-06
1.73012e-06
1.74686e-06
1.76315e-06
1.77861e-06
1.79343e-06
1.80684e-06
1.81943e-06
1.83125e-06
1.84153e-06
1.85087e-06
1.85877e-06
1.86575e-06
1.87118e-06
1.87595e-06
1.87956e-06
1.88194e-06
1.88324e-06
1.88329e-06
1.88229e-06
1.88003e-06
1.87649e-06
1.87172e-06
1.86585e-06
1.8589e-06
1.85094e-06
1.8419e-06
1.83175e-06
1.82017e-06
1.80779e-06
1.79402e-06
1.77925e-06
1.76367e-06
1.74736e-06
1.73005e-06
1.71204e-06
1.69351e-06
1.6742e-06
1.65441e-06
1.63392e-06
1.61293e-06
1.59126e-06
1.569e-06
1.47537e-06
1.49683e-06
1.51747e-06
1.53766e-06
1.55719e-06
1.57646e-06
1.59521e-06
1.6131e-06
1.63028e-06
1.64636e-06
1.66202e-06
1.67686e-06
1.6911e-06
1.70401e-06
1.71607e-06
1.72743e-06
1.73733e-06
1.7463e-06
1.75391e-06
1.76063e-06
1.76586e-06
1.77042e-06
1.77389e-06
1.7762e-06