/*--------------------------------*- C++ -*----------------------------------*\
  =========                 |
  \\      /  F ield         | OpenFOAM: The Open Source CFD Toolbox
   \\    /   O peration     | Website:  https://openfoam.org
    \\  /    A nd           | Version:  7
     \\/     M anipulation  |
\*---------------------------------------------------------------------------*/
FoamFile
{
    version     2.0;
    format      ascii;
    class       volScalarField;
    location    "96000";
    object      nu;
}
// * * * * * * * * * * * * * * * * * * * * * * * * * * * * * * * * * * * * * //

dimensions      [0 2 -1 0 0 0 0];

internalField   nonuniform List<scalar> 
4838
(
2.36256e-05
2.4507e-05
2.48335e-05
2.53063e-05
2.5857e-05
2.64553e-05
2.70887e-05
2.77514e-05
2.84394e-05
2.9149e-05
2.98766e-05
3.06175e-05
3.13664e-05
3.21168e-05
3.28611e-05
3.35905e-05
3.42953e-05
3.49646e-05
3.55867e-05
3.61496e-05
3.66414e-05
3.70508e-05
3.73677e-05
3.75838e-05
3.76934e-05
3.76935e-05
3.75839e-05
3.73678e-05
3.70509e-05
3.66415e-05
3.61497e-05
3.55868e-05
3.49647e-05
3.42955e-05
3.35907e-05
3.28613e-05
3.2117e-05
3.13666e-05
3.06177e-05
2.98768e-05
2.91493e-05
2.84396e-05
2.77517e-05
2.7089e-05
2.64555e-05
2.58573e-05
2.53066e-05
2.48337e-05
2.45072e-05
2.36258e-05
1.97527e-05
2.16382e-05
2.19764e-05
2.24169e-05
2.29399e-05
2.35206e-05
2.41418e-05
2.47925e-05
2.54651e-05
2.61538e-05
2.68535e-05
2.7559e-05
2.82644e-05
2.89636e-05
2.96495e-05
3.03142e-05
3.09495e-05
3.15464e-05
3.20956e-05
3.2588e-05
3.30146e-05
3.33671e-05
3.36383e-05
3.38225e-05
3.39157e-05
3.39157e-05
3.38226e-05
3.36384e-05
3.33671e-05
3.30146e-05
3.25881e-05
3.20958e-05
3.15465e-05
3.09497e-05
3.03144e-05
2.96496e-05
2.89638e-05
2.82646e-05
2.75592e-05
2.68537e-05
2.6154e-05
2.54653e-05
2.47927e-05
2.4142e-05
2.35208e-05
2.29401e-05
2.24171e-05
2.19766e-05
2.16384e-05
1.97528e-05
1.84929e-05
2.04167e-05
2.08486e-05
2.12707e-05
2.17223e-05
2.22112e-05
2.27333e-05
2.3282e-05
2.38509e-05
2.4434e-05
2.5026e-05
2.56218e-05
2.6216e-05
2.6803e-05
2.73767e-05
2.79306e-05
2.84578e-05
2.89512e-05
2.94035e-05
2.98075e-05
3.01564e-05
3.04439e-05
3.06647e-05
3.08144e-05
3.089e-05
3.089e-05
3.08144e-05
3.06647e-05
3.0444e-05
3.01565e-05
2.98076e-05
2.94036e-05
2.89513e-05
2.84579e-05
2.79307e-05
2.73768e-05
2.68031e-05
2.62162e-05
2.5622e-05
2.50262e-05
2.44341e-05
2.3851e-05
2.32822e-05
2.27335e-05
2.22113e-05
2.17225e-05
2.12709e-05
2.08487e-05
2.04169e-05
1.84929e-05
1.76597e-05
1.9335e-05
1.97955e-05
2.02274e-05
2.06547e-05
2.10934e-05
2.15495e-05
2.20228e-05
2.25107e-05
2.30091e-05
2.35137e-05
2.40201e-05
2.45236e-05
2.50193e-05
2.5502e-05
2.59664e-05
2.64068e-05
2.68175e-05
2.71928e-05
2.7527e-05
2.78148e-05
2.80515e-05
2.82328e-05
2.83556e-05
2.84176e-05
2.84176e-05
2.83556e-05
2.82329e-05
2.80515e-05
2.78149e-05
2.75271e-05
2.71929e-05
2.68176e-05
2.64069e-05
2.59665e-05
2.55021e-05
2.50194e-05
2.45237e-05
2.40203e-05
2.35139e-05
2.30092e-05
2.25108e-05
2.2023e-05
2.15496e-05
2.10936e-05
2.06549e-05
2.02275e-05
1.97956e-05
1.93351e-05
1.76597e-05
1.696e-05
1.84017e-05
1.88345e-05
1.92528e-05
1.96612e-05
2.00682e-05
2.04803e-05
2.09002e-05
2.1328e-05
2.17617e-05
2.21985e-05
2.2635e-05
2.30673e-05
2.34915e-05
2.39031e-05
2.42978e-05
2.46708e-05
2.50177e-05
2.53336e-05
2.56143e-05
2.58554e-05
2.60532e-05
2.62046e-05
2.6307e-05
2.63587e-05
2.63587e-05
2.6307e-05
2.62047e-05
2.60533e-05
2.58554e-05
2.56143e-05
2.53337e-05
2.50177e-05
2.46709e-05
2.42978e-05
2.39032e-05
2.34916e-05
2.30674e-05
2.26351e-05
2.21986e-05
2.17618e-05
2.13281e-05
2.09003e-05
2.04804e-05
2.00683e-05
1.96612e-05
1.92528e-05
1.88345e-05
1.84017e-05
1.696e-05
1.63389e-05
1.75882e-05
1.79808e-05
1.83692e-05
1.87517e-05
1.91302e-05
1.95081e-05
1.98876e-05
2.02696e-05
2.06534e-05
2.10373e-05
2.14189e-05
2.17952e-05
2.21629e-05
2.25185e-05
2.28583e-05
2.31786e-05
2.34755e-05
2.37453e-05
2.39843e-05
2.41893e-05
2.43572e-05
2.44855e-05
2.45722e-05
2.46159e-05
2.46159e-05
2.45722e-05
2.44855e-05
2.43572e-05
2.41893e-05
2.39843e-05
2.37453e-05
2.34755e-05
2.31786e-05
2.28583e-05
2.25185e-05
2.21629e-05
2.17952e-05
2.14189e-05
2.10374e-05
2.06534e-05
2.02696e-05
1.98877e-05
1.95081e-05
1.91303e-05
1.87517e-05
1.83692e-05
1.79808e-05
1.75882e-05
1.63389e-05
1.57758e-05
1.68675e-05
1.72219e-05
1.75767e-05
1.79293e-05
1.82789e-05
1.86262e-05
1.89721e-05
1.93173e-05
1.96613e-05
2.00031e-05
2.03408e-05
2.06724e-05
2.0995e-05
2.13059e-05
2.16021e-05
2.18804e-05
2.21377e-05
2.2371e-05
2.25772e-05
2.27537e-05
2.28981e-05
2.30083e-05
2.30827e-05
2.31201e-05
2.31201e-05
2.30827e-05
2.30083e-05
2.28981e-05
2.27538e-05
2.25772e-05
2.2371e-05
2.21377e-05
2.18804e-05
2.16021e-05
2.13059e-05
2.0995e-05
2.06724e-05
2.03409e-05
2.00031e-05
1.96613e-05
1.93173e-05
1.89722e-05
1.86262e-05
1.82789e-05
1.79293e-05
1.75767e-05
1.72219e-05
1.68675e-05
1.57758e-05
1.52596e-05
1.62205e-05
1.65417e-05
1.68648e-05
1.71877e-05
1.75088e-05
1.78275e-05
1.8144e-05
1.84579e-05
1.87689e-05
1.90762e-05
1.93783e-05
1.96735e-05
1.99596e-05
2.02343e-05
2.04953e-05
2.07397e-05
2.09652e-05
2.11691e-05
2.13491e-05
2.15029e-05
2.16285e-05
2.17242e-05
2.17888e-05
2.18213e-05
2.18213e-05
2.17888e-05
2.17242e-05
2.16285e-05
2.15029e-05
2.13491e-05
2.11691e-05
2.09652e-05
2.07397e-05
2.04953e-05
2.02343e-05
1.99596e-05
1.96735e-05
1.93783e-05
1.90762e-05
1.8769e-05
1.84579e-05
1.8144e-05
1.78275e-05
1.75087e-05
1.71876e-05
1.68648e-05
1.65416e-05
1.62204e-05
1.52595e-05
1.47827e-05
1.56339e-05
1.59266e-05
1.62215e-05
1.65169e-05
1.68114e-05
1.71038e-05
1.73936e-05
1.76803e-05
1.79632e-05
1.82415e-05
1.85138e-05
1.87789e-05
1.90349e-05
1.928e-05
1.9512e-05
1.97288e-05
1.99283e-05
2.01084e-05
2.0267e-05
2.04024e-05
2.05127e-05
2.05968e-05
2.06534e-05
2.0682e-05
2.0682e-05
2.06534e-05
2.05968e-05
2.05127e-05
2.04023e-05
2.0267e-05
2.01084e-05
1.99283e-05
1.97288e-05
1.9512e-05
1.928e-05
1.90349e-05
1.87789e-05
1.85138e-05
1.82414e-05
1.79632e-05
1.76803e-05
1.73936e-05
1.71038e-05
1.68113e-05
1.65169e-05
1.62215e-05
1.59266e-05
1.56338e-05
1.47826e-05
1.43397e-05
1.50981e-05
1.53663e-05
1.56365e-05
1.59074e-05
1.61776e-05
1.64461e-05
1.6712e-05
1.69746e-05
1.7233e-05
1.74863e-05
1.77335e-05
1.79732e-05
1.8204e-05
1.84243e-05
1.86323e-05
1.88262e-05
1.90043e-05
1.91647e-05
1.93057e-05
1.94259e-05
1.95238e-05
1.95982e-05
1.96484e-05
1.96737e-05
1.96737e-05
1.96484e-05
1.95982e-05
1.95238e-05
1.94259e-05
1.93057e-05
1.91646e-05
1.90043e-05
1.88262e-05
1.86323e-05
1.84243e-05
1.8204e-05
1.79732e-05
1.77334e-05
1.74863e-05
1.72329e-05
1.69745e-05
1.6712e-05
1.64461e-05
1.61775e-05
1.59073e-05
1.56365e-05
1.53663e-05
1.5098e-05
1.43397e-05
1.39266e-05
1.46057e-05
1.48527e-05
1.51013e-05
1.53504e-05
1.5599e-05
1.5846e-05
1.60905e-05
1.63317e-05
1.65685e-05
1.68002e-05
1.70257e-05
1.72437e-05
1.74532e-05
1.76525e-05
1.78403e-05
1.8015e-05
1.81751e-05
1.8319e-05
1.84454e-05
1.8553e-05
1.86405e-05
1.8707e-05
1.87518e-05
1.87743e-05
1.87743e-05
1.87518e-05
1.8707e-05
1.86405e-05
1.8553e-05
1.84454e-05
1.8319e-05
1.81751e-05
1.8015e-05
1.78403e-05
1.76525e-05
1.74531e-05
1.72437e-05
1.70256e-05
1.68001e-05
1.65685e-05
1.63316e-05
1.60905e-05
1.5846e-05
1.5599e-05
1.53504e-05
1.51012e-05
1.48526e-05
1.46057e-05
1.39265e-05
1.35399e-05
1.4151e-05
1.43793e-05
1.46089e-05
1.48389e-05
1.50683e-05
1.52962e-05
1.55216e-05
1.57437e-05
1.59615e-05
1.61742e-05
1.63808e-05
1.65801e-05
1.67712e-05
1.69526e-05
1.71232e-05
1.72816e-05
1.74264e-05
1.75565e-05
1.76706e-05
1.77675e-05
1.78463e-05
1.79062e-05
1.79465e-05
1.79667e-05
1.79667e-05
1.79464e-05
1.79062e-05
1.78463e-05
1.77675e-05
1.76706e-05
1.75565e-05
1.74264e-05
1.72815e-05
1.71231e-05
1.69526e-05
1.67711e-05
1.65801e-05
1.63807e-05
1.61741e-05
1.59614e-05
1.57436e-05
1.55215e-05
1.52961e-05
1.50683e-05
1.48389e-05
1.46089e-05
1.43792e-05
1.41509e-05
1.35398e-05
1.31769e-05
1.37291e-05
1.3941e-05
1.41539e-05
1.4367e-05
1.45794e-05
1.47902e-05
1.49986e-05
1.52037e-05
1.54047e-05
1.56006e-05
1.57906e-05
1.59737e-05
1.61488e-05
1.63148e-05
1.64705e-05
1.66149e-05
1.67468e-05
1.6865e-05
1.69686e-05
1.70565e-05
1.71279e-05
1.71821e-05
1.72185e-05
1.72368e-05
1.72368e-05
1.72185e-05
1.71821e-05
1.71279e-05
1.70564e-05
1.69685e-05
1.6865e-05
1.67467e-05
1.66149e-05
1.64705e-05
1.63147e-05
1.61487e-05
1.59736e-05
1.57906e-05
1.56006e-05
1.54046e-05
1.52036e-05
1.49985e-05
1.47901e-05
1.45793e-05
1.43669e-05
1.41539e-05
1.3941e-05
1.3729e-05
1.31768e-05
1.28352e-05
1.33362e-05
1.35336e-05
1.37317e-05
1.39297e-05
1.41269e-05
1.43226e-05
1.45158e-05
1.47059e-05
1.48919e-05
1.5073e-05
1.52484e-05
1.54172e-05
1.55783e-05
1.57308e-05
1.58737e-05
1.6006e-05
1.61266e-05
1.62347e-05
1.63292e-05
1.64093e-05
1.64744e-05
1.65238e-05
1.65569e-05
1.65736e-05
1.65736e-05
1.65569e-05
1.65237e-05
1.64744e-05
1.64093e-05
1.63291e-05
1.62346e-05
1.61266e-05
1.60059e-05
1.58736e-05
1.57307e-05
1.55782e-05
1.54171e-05
1.52484e-05
1.5073e-05
1.48918e-05
1.47058e-05
1.45158e-05
1.43225e-05
1.41269e-05
1.39297e-05
1.37316e-05
1.35335e-05
1.33361e-05
1.28351e-05
1.25127e-05
1.2969e-05
1.31535e-05
1.33384e-05
1.3523e-05
1.37068e-05
1.38888e-05
1.40686e-05
1.42452e-05
1.44178e-05
1.45858e-05
1.47483e-05
1.49044e-05
1.50532e-05
1.51939e-05
1.53256e-05
1.54473e-05
1.55582e-05
1.56573e-05
1.5744e-05
1.58175e-05
1.58771e-05
1.59222e-05
1.59526e-05
1.59678e-05
1.59678e-05
1.59526e-05
1.59222e-05
1.5877e-05
1.58174e-05
1.5744e-05
1.56573e-05
1.55581e-05
1.54472e-05
1.53255e-05
1.51938e-05
1.50531e-05
1.49043e-05
1.47482e-05
1.45857e-05
1.44178e-05
1.42451e-05
1.40685e-05
1.38888e-05
1.37067e-05
1.3523e-05
1.33383e-05
1.31534e-05
1.29689e-05
1.25127e-05
1.22079e-05
1.26248e-05
1.27977e-05
1.29708e-05
1.31434e-05
1.33151e-05
1.34851e-05
1.36527e-05
1.38173e-05
1.3978e-05
1.41343e-05
1.42852e-05
1.44301e-05
1.4568e-05
1.46983e-05
1.48201e-05
1.49325e-05
1.50348e-05
1.51263e-05
1.52061e-05
1.52737e-05
1.53285e-05
1.53701e-05
1.5398e-05
1.5412e-05
1.5412e-05
1.53979e-05
1.537e-05
1.53285e-05
1.52737e-05
1.52061e-05
1.51262e-05
1.50348e-05
1.49325e-05
1.482e-05
1.46982e-05
1.4568e-05
1.443e-05
1.42851e-05
1.41342e-05
1.39779e-05
1.38172e-05
1.36526e-05
1.3485e-05
1.3315e-05
1.31434e-05
1.29707e-05
1.27976e-05
1.26247e-05
1.22078e-05
1.19189e-05
1.23012e-05
1.24637e-05
1.26261e-05
1.2788e-05
1.29489e-05
1.3108e-05
1.32647e-05
1.34185e-05
1.35686e-05
1.37143e-05
1.3855e-05
1.39898e-05
1.41182e-05
1.42392e-05
1.43522e-05
1.44564e-05
1.45512e-05
1.46358e-05
1.47097e-05
1.47721e-05
1.48227e-05
1.48611e-05
1.48868e-05
1.48997e-05
1.48997e-05
1.48868e-05
1.48611e-05
1.48227e-05
1.47721e-05
1.47096e-05
1.46358e-05
1.45511e-05
1.44564e-05
1.43521e-05
1.42391e-05
1.41181e-05
1.39897e-05
1.38549e-05
1.37143e-05
1.35685e-05
1.34184e-05
1.32647e-05
1.31079e-05
1.29488e-05
1.2788e-05
1.26261e-05
1.24636e-05
1.23011e-05
1.19188e-05
1.16447e-05
1.19962e-05
1.21492e-05
1.23021e-05
1.24543e-05
1.26054e-05
1.27547e-05
1.29017e-05
1.30458e-05
1.31863e-05
1.33226e-05
1.3454e-05
1.35799e-05
1.36996e-05
1.38123e-05
1.39176e-05
1.40145e-05
1.41026e-05
1.41812e-05
1.42497e-05
1.43077e-05
1.43546e-05
1.43901e-05
1.44139e-05
1.44259e-05
1.44259e-05
1.44139e-05
1.43901e-05
1.43545e-05
1.43076e-05
1.42496e-05
1.41811e-05
1.41025e-05
1.40144e-05
1.39175e-05
1.38123e-05
1.36995e-05
1.35798e-05
1.34539e-05
1.33225e-05
1.31862e-05
1.30457e-05
1.29016e-05
1.27546e-05
1.26053e-05
1.24543e-05
1.2302e-05
1.21492e-05
1.19961e-05
1.16445e-05
1.13838e-05
1.17081e-05
1.18525e-05
1.19967e-05
1.21402e-05
1.22824e-05
1.24228e-05
1.2561e-05
1.26963e-05
1.28282e-05
1.2956e-05
1.30791e-05
1.3197e-05
1.33089e-05
1.34143e-05
1.35125e-05
1.3603e-05
1.36851e-05
1.37583e-05
1.38221e-05
1.3876e-05
1.39197e-05
1.39527e-05
1.39749e-05
1.3986e-05
1.3986e-05
1.39749e-05
1.39527e-05
1.39196e-05
1.3876e-05
1.38221e-05
1.37582e-05
1.3685e-05
1.36029e-05
1.35124e-05
1.34142e-05
1.33088e-05
1.31969e-05
1.3079e-05
1.29559e-05
1.28281e-05
1.26962e-05
1.25609e-05
1.24228e-05
1.22823e-05
1.21401e-05
1.19966e-05
1.18524e-05
1.17079e-05
1.13837e-05
1.15719e-05
1.17082e-05
1.18436e-05
1.19778e-05
1.21103e-05
1.22404e-05
1.23678e-05
1.24918e-05
1.2612e-05
1.27276e-05
1.28382e-05
1.29432e-05
1.30419e-05
1.31339e-05
1.32186e-05
1.32953e-05
1.33638e-05
1.34233e-05
1.34737e-05
1.35144e-05
1.35452e-05
1.35659e-05
1.35762e-05
1.35762e-05
1.35658e-05
1.35452e-05
1.35143e-05
1.34736e-05
1.34233e-05
1.33637e-05
1.32953e-05
1.32185e-05
1.31338e-05
1.30418e-05
1.29431e-05
1.28381e-05
1.27275e-05
1.26119e-05
1.24918e-05
1.23677e-05
1.22404e-05
1.21102e-05
1.19777e-05
1.18435e-05
1.1708e-05
1.15717e-05
1.1435e-05
1.11351e-05
1.14349e-05
1.15631e-05
1.169e-05
1.18152e-05
1.19381e-05
1.20582e-05
1.21752e-05
1.22883e-05
1.23972e-05
1.25012e-05
1.25999e-05
1.26927e-05
1.2779e-05
1.28584e-05
1.29304e-05
1.29945e-05
1.30503e-05
1.30974e-05
1.31355e-05
1.31643e-05
1.31837e-05
1.31933e-05
1.31933e-05
1.31836e-05
1.31643e-05
1.31355e-05
1.30973e-05
1.30502e-05
1.29944e-05
1.29303e-05
1.28583e-05
1.27789e-05
1.26926e-05
1.25998e-05
1.25011e-05
1.23971e-05
1.22882e-05
1.21751e-05
1.20581e-05
1.1938e-05
1.18151e-05
1.16899e-05
1.1563e-05
1.14348e-05
1.13057e-05
1.11761e-05
1.0898e-05
1.14174e-05
1.15359e-05
1.16522e-05
1.17658e-05
1.18763e-05
1.19831e-05
1.20858e-05
1.21839e-05
1.22768e-05
1.23642e-05
1.24454e-05
1.25201e-05
1.25878e-05
1.2648e-05
1.27004e-05
1.27446e-05
1.27803e-05
1.28074e-05
1.28255e-05
1.28346e-05
1.28346e-05
1.28255e-05
1.28073e-05
1.27803e-05
1.27445e-05
1.27003e-05
1.26479e-05
1.25877e-05
1.252e-05
1.24453e-05
1.23641e-05
1.22768e-05
1.21838e-05
1.20857e-05
1.1983e-05
1.18762e-05
1.17657e-05
1.16521e-05
1.15358e-05
1.14173e-05
1.12971e-05
1.11754e-05
1.10529e-05
1.09298e-05
1.06714e-05
1.12711e-05
1.13813e-05
1.14889e-05
1.15935e-05
1.16946e-05
1.17917e-05
1.18843e-05
1.19721e-05
1.20545e-05
1.21311e-05
1.22015e-05
1.22653e-05
1.23219e-05
1.23713e-05
1.24129e-05
1.24465e-05
1.24719e-05
1.24889e-05
1.24975e-05
1.24975e-05
1.24889e-05
1.24719e-05
1.24464e-05
1.24128e-05
1.23712e-05
1.23219e-05
1.22652e-05
1.22014e-05
1.21311e-05
1.20544e-05
1.1972e-05
1.18842e-05
1.17916e-05
1.16945e-05
1.15934e-05
1.14888e-05
1.13812e-05
1.1271e-05
1.11586e-05
1.10444e-05
1.09289e-05
1.08124e-05
1.06953e-05
1.04545e-05
1.11242e-05
1.12263e-05
1.13255e-05
1.14213e-05
1.15132e-05
1.16009e-05
1.1684e-05
1.17619e-05
1.18343e-05
1.19008e-05
1.1961e-05
1.20145e-05
1.2061e-05
1.21002e-05
1.21319e-05
1.21559e-05
1.21719e-05
1.218e-05
1.218e-05
1.21719e-05
1.21558e-05
1.21318e-05
1.21001e-05
1.20609e-05
1.20144e-05
1.19609e-05
1.19007e-05
1.18342e-05
1.17618e-05
1.16839e-05
1.16009e-05
1.15131e-05
1.14212e-05
1.13254e-05
1.12262e-05
1.1124e-05
1.10194e-05
1.09125e-05
1.0804e-05
1.0694e-05
1.05831e-05
1.04715e-05
1.02467e-05
1.10709e-05
1.11618e-05
1.12491e-05
1.13323e-05
1.1411e-05
1.14848e-05
1.15534e-05
1.16163e-05
1.16732e-05
1.17238e-05
1.17678e-05
1.18049e-05
1.18348e-05
1.18574e-05
1.18726e-05
1.18802e-05
1.18802e-05
1.18726e-05
1.18574e-05
1.18347e-05
1.18048e-05
1.17677e-05
1.17237e-05
1.16731e-05
1.16162e-05
1.15533e-05
1.14847e-05
1.14109e-05
1.13322e-05
1.1249e-05
1.11617e-05
1.10708e-05
1.09765e-05
1.08794e-05
1.07798e-05
1.06781e-05
1.05747e-05
1.04699e-05
1.03641e-05
1.02576e-05
1.00472e-05
1.09151e-05
1.09981e-05
1.10771e-05
1.11519e-05
1.12219e-05
1.1287e-05
1.13466e-05
1.14006e-05
1.14485e-05
1.14901e-05
1.15252e-05
1.15536e-05
1.1575e-05
1.15894e-05
1.15965e-05
1.15965e-05
1.15893e-05
1.1575e-05
1.15535e-05
1.15252e-05
1.14901e-05
1.14484e-05
1.14005e-05
1.13465e-05
1.12869e-05
1.12218e-05
1.11518e-05
1.1077e-05
1.0998e-05
1.0915e-05
1.08285e-05
1.07388e-05
1.06463e-05
1.05514e-05
1.04545e-05
1.03558e-05
1.02558e-05
1.01547e-05
1.00529e-05
9.85566e-06
1.0972e-05
1.10338e-05
1.10905e-05
1.11417e-05
1.11872e-05
1.12267e-05
1.126e-05
1.12869e-05
1.13072e-05
1.13208e-05
1.13276e-05
1.13276e-05
1.13208e-05
1.13071e-05
1.12868e-05
1.12599e-05
1.12266e-05
1.11871e-05
1.11416e-05
1.10904e-05
1.10337e-05
1.09719e-05
1.09053e-05
1.08342e-05
1.07589e-05
1.06799e-05
1.05975e-05
1.0512e-05
1.04238e-05
1.03333e-05
1.02407e-05
1.01464e-05
1.00508e-05
9.95407e-06
9.85662e-06
9.6714e-06
1.09387e-05
1.09763e-05
1.10079e-05
1.10334e-05
1.10527e-05
1.10656e-05
1.10721e-05
1.10721e-05
1.10656e-05
1.10527e-05
1.10334e-05
1.10078e-05
1.09762e-05
1.09386e-05
1.08953e-05
1.08466e-05
1.07927e-05
1.07339e-05
1.06704e-05
1.06027e-05
1.0531e-05
1.04556e-05
1.0377e-05
1.02954e-05
1.02111e-05
1.01246e-05
1.0036e-05
9.94584e-06
9.85428e-06
9.76165e-06
9.66825e-06
9.49397e-06
1.07679e-05
1.07922e-05
1.08105e-05
1.08228e-05
1.0829e-05
1.0829e-05
1.08228e-05
1.08105e-05
1.07921e-05
1.07678e-05
1.07377e-05
1.07019e-05
1.06607e-05
1.06143e-05
1.05629e-05
1.05068e-05
1.04463e-05
1.03816e-05
1.03132e-05
1.02412e-05
1.01661e-05
1.0088e-05
1.00075e-05
9.92462e-06
9.83985e-06
9.75344e-06
9.66568e-06
9.57684e-06
9.48721e-06
9.32293e-06
1.05972e-05
1.05972e-05
1.05913e-05
1.05795e-05
1.0562e-05
1.05388e-05
1.05101e-05
1.0476e-05
1.04367e-05
1.03924e-05
1.03433e-05
1.02898e-05
1.0232e-05
1.01702e-05
1.01048e-05
1.0036e-05
9.96405e-06
9.88936e-06
9.81218e-06
9.7328e-06
9.65153e-06
9.56865e-06
9.48442e-06
9.39912e-06
9.31301e-06
9.1579e-06
1.03201e-05
1.02927e-05
1.02601e-05
1.02226e-05
1.01802e-05
1.01333e-05
1.00821e-05
1.00269e-05
9.96775e-06
9.90511e-06
9.8392e-06
9.77031e-06
9.69871e-06
9.62469e-06
9.54854e-06
9.47053e-06
9.39093e-06
9.31e-06
9.22799e-06
9.14517e-06
8.9985e-06
1.00176e-05
9.97705e-06
9.93216e-06
9.88314e-06
9.83019e-06
9.77357e-06
9.71352e-06
9.65032e-06
9.58424e-06
9.51552e-06
9.44446e-06
9.37131e-06
9.29634e-06
9.21981e-06
9.14196e-06
9.06305e-06
8.98331e-06
8.84439e-06
9.73916e-06
9.69216e-06
9.64139e-06
9.58707e-06
9.52945e-06
9.46878e-06
9.40531e-06
9.33929e-06
9.27099e-06
9.20065e-06
9.12852e-06
9.05486e-06
8.9799e-06
8.90388e-06
8.82703e-06
8.69527e-06
9.55377e-06
9.50866e-06
9.45991e-06
9.40775e-06
9.35239e-06
9.29408e-06
9.23305e-06
9.16955e-06
9.10383e-06
9.03611e-06
8.96665e-06
8.89568e-06
8.82343e-06
8.75013e-06
8.67599e-06
8.55085e-06
9.37546e-06
9.33212e-06
9.28527e-06
9.23511e-06
9.18187e-06
9.12577e-06
9.06703e-06
9.00589e-06
8.94258e-06
8.87732e-06
8.81036e-06
8.74192e-06
8.67222e-06
8.60146e-06
8.52988e-06
8.41087e-06
9.06872e-06
9.01747e-06
8.96344e-06
8.90684e-06
8.84791e-06
8.78686e-06
8.72393e-06
8.65931e-06
8.59325e-06
8.52593e-06
8.45759e-06
8.38841e-06
8.27508e-06
8.63635e-06
8.57559e-06
8.51319e-06
8.44936e-06
8.3843e-06
8.31822e-06
8.25131e-06
8.14326e-06
8.30997e-06
8.24705e-06
8.1831e-06
8.11834e-06
8.0152e-06
3.73659e-05
3.7582e-05
3.76915e-05
3.76915e-05
3.7582e-05
3.73659e-05
3.70491e-05
3.66399e-05
3.61482e-05
3.55853e-05
3.49634e-05
3.42942e-05
3.35896e-05
3.28602e-05
3.2116e-05
3.13657e-05
3.06169e-05
2.98761e-05
2.91486e-05
2.8439e-05
2.77511e-05
2.70885e-05
2.64551e-05
2.58569e-05
2.53062e-05
2.48335e-05
2.4507e-05
2.36251e-05
3.36368e-05
3.3821e-05
3.39142e-05
3.39142e-05
3.38211e-05
3.36369e-05
3.33657e-05
3.30133e-05
3.25868e-05
3.20946e-05
3.15454e-05
3.09487e-05
3.03135e-05
2.96488e-05
2.8963e-05
2.82639e-05
2.75585e-05
2.68531e-05
2.61535e-05
2.54648e-05
2.47923e-05
2.41417e-05
2.35205e-05
2.29398e-05
2.24168e-05
2.19764e-05
2.16382e-05
1.97524e-05
3.06635e-05
3.08132e-05
3.08888e-05
3.08888e-05
3.08132e-05
3.06636e-05
3.04429e-05
3.01554e-05
2.98066e-05
2.94026e-05
2.89504e-05
2.84571e-05
2.79299e-05
2.73761e-05
2.68025e-05
2.62156e-05
2.56214e-05
2.50257e-05
2.44337e-05
2.38506e-05
2.32819e-05
2.27332e-05
2.22111e-05
2.17222e-05
2.12706e-05
2.08486e-05
2.04167e-05
1.84926e-05
2.82319e-05
2.83547e-05
2.84166e-05
2.84167e-05
2.83547e-05
2.82319e-05
2.80506e-05
2.7814e-05
2.75263e-05
2.71921e-05
2.68169e-05
2.64062e-05
2.59659e-05
2.55015e-05
2.50189e-05
2.45233e-05
2.40198e-05
2.35135e-05
2.30089e-05
2.25105e-05
2.20227e-05
2.15493e-05
2.10933e-05
2.06547e-05
2.02273e-05
1.97955e-05
1.9335e-05
1.76595e-05
2.62039e-05
2.63063e-05
2.63579e-05
2.63579e-05
2.63063e-05
2.62039e-05
2.60526e-05
2.58547e-05
2.56136e-05
2.53331e-05
2.50171e-05
2.46704e-05
2.42973e-05
2.39027e-05
2.34911e-05
2.3067e-05
2.26347e-05
2.21983e-05
2.17615e-05
2.13278e-05
2.09001e-05
2.04802e-05
2.00681e-05
1.96611e-05
1.92527e-05
1.88345e-05
1.84016e-05
1.69598e-05
2.44849e-05
2.45715e-05
2.46152e-05
2.46152e-05
2.45715e-05
2.44849e-05
2.43566e-05
2.41887e-05
2.39838e-05
2.37448e-05
2.3475e-05
2.31782e-05
2.28579e-05
2.25181e-05
2.21626e-05
2.17949e-05
2.14186e-05
2.10371e-05
2.06532e-05
2.02694e-05
1.98875e-05
1.9508e-05
1.91302e-05
1.87516e-05
1.83692e-05
1.79807e-05
1.75882e-05
1.63387e-05
2.30078e-05
2.30821e-05
2.31196e-05
2.31196e-05
2.30821e-05
2.30078e-05
2.28976e-05
2.27533e-05
2.25768e-05
2.23706e-05
2.21373e-05
2.18801e-05
2.16018e-05
2.13056e-05
2.09947e-05
2.06721e-05
2.03406e-05
2.00029e-05
1.96611e-05
1.93172e-05
1.8972e-05
1.86261e-05
1.82788e-05
1.79292e-05
1.75767e-05
1.72218e-05
1.68675e-05
1.57757e-05
2.17237e-05
2.17883e-05
2.18208e-05
2.18209e-05
2.17883e-05
2.17238e-05
2.16281e-05
2.15025e-05
2.13487e-05
2.11688e-05
2.09649e-05
2.07394e-05
2.0495e-05
2.02341e-05
1.99594e-05
1.96733e-05
1.93781e-05
1.90761e-05
1.87688e-05
1.84578e-05
1.81439e-05
1.78275e-05
1.75087e-05
1.71876e-05
1.68648e-05
1.65416e-05
1.62204e-05
1.52595e-05
2.05964e-05
2.0653e-05
2.06816e-05
2.06816e-05
2.06531e-05
2.05964e-05
2.05124e-05
2.0402e-05
2.02667e-05
2.01081e-05
1.99281e-05
1.97286e-05
1.95118e-05
1.92798e-05
1.90347e-05
1.87787e-05
1.85137e-05
1.82413e-05
1.79631e-05
1.76802e-05
1.73936e-05
1.71037e-05
1.68113e-05
1.65169e-05
1.62215e-05
1.59266e-05
1.56339e-05
1.47826e-05
1.95979e-05
1.96481e-05
1.96733e-05
1.96733e-05
1.96481e-05
1.95979e-05
1.95235e-05
1.94256e-05
1.93054e-05
1.91644e-05
1.9004e-05
1.8826e-05
1.86321e-05
1.84241e-05
1.82039e-05
1.7973e-05
1.77333e-05
1.74862e-05
1.72328e-05
1.69745e-05
1.67119e-05
1.6446e-05
1.61775e-05
1.59073e-05
1.56365e-05
1.53663e-05
1.50981e-05
1.43397e-05
1.87067e-05
1.87515e-05
1.87741e-05
1.87741e-05
1.87516e-05
1.87068e-05
1.86403e-05
1.85527e-05
1.84452e-05
1.83188e-05
1.81749e-05
1.80148e-05
1.78401e-05
1.76523e-05
1.7453e-05
1.72436e-05
1.70255e-05
1.68001e-05
1.65684e-05
1.63316e-05
1.60905e-05
1.5846e-05
1.5599e-05
1.53504e-05
1.51012e-05
1.48527e-05
1.46057e-05
1.39265e-05
1.79059e-05
1.79462e-05
1.79665e-05
1.79665e-05
1.79462e-05
1.7906e-05
1.78461e-05
1.77673e-05
1.76704e-05
1.75564e-05
1.74263e-05
1.72814e-05
1.7123e-05
1.69525e-05
1.6771e-05
1.658e-05
1.63806e-05
1.61741e-05
1.59614e-05
1.57436e-05
1.55215e-05
1.52961e-05
1.50683e-05
1.48389e-05
1.46089e-05
1.43793e-05
1.41509e-05
1.35398e-05
1.71819e-05
1.72184e-05
1.72367e-05
1.72367e-05
1.72184e-05
1.7182e-05
1.71277e-05
1.70563e-05
1.69684e-05
1.68649e-05
1.67467e-05
1.66148e-05
1.64704e-05
1.63147e-05
1.61487e-05
1.59736e-05
1.57905e-05
1.56005e-05
1.54046e-05
1.52036e-05
1.49985e-05
1.47901e-05
1.45793e-05
1.4367e-05
1.41539e-05
1.3941e-05
1.37291e-05
1.31768e-05
1.65237e-05
1.65569e-05
1.65736e-05
1.65736e-05
1.65569e-05
1.65237e-05
1.64744e-05
1.64093e-05
1.63291e-05
1.62346e-05
1.61266e-05
1.60059e-05
1.58736e-05
1.57307e-05
1.55782e-05
1.54171e-05
1.52484e-05
1.5073e-05
1.48918e-05
1.47058e-05
1.45158e-05
1.43225e-05
1.41269e-05
1.39297e-05
1.37317e-05
1.35336e-05
1.33362e-05
1.28351e-05
1.57441e-05
1.56574e-05
1.55582e-05
1.54473e-05
1.53256e-05
1.51939e-05
1.50532e-05
1.49044e-05
1.47483e-05
1.45858e-05
1.44178e-05
1.42451e-05
1.40685e-05
1.38888e-05
1.37067e-05
1.3523e-05
1.33384e-05
1.31535e-05
1.2969e-05
1.25127e-05
1.39781e-05
1.38173e-05
1.36527e-05
1.34851e-05
1.33151e-05
1.31435e-05
1.29708e-05
1.27977e-05
1.26248e-05
1.22078e-05
1.29489e-05
1.27881e-05
1.26262e-05
1.24637e-05
1.23012e-05
1.19189e-05
1.21493e-05
1.19963e-05
1.16447e-05
7.70905e-06
7.58999e-06
7.47407e-06
1.05067e-05
1.02898e-05
1.00821e-05
9.8831e-06
9.69212e-06
9.50861e-06
9.33206e-06
9.162e-06
8.99801e-06
8.83971e-06
8.68675e-06
8.53879e-06
8.39555e-06
8.25676e-06
8.12215e-06
7.99149e-06
7.86459e-06
7.74122e-06
7.62121e-06
7.50439e-06
1.12868e-05
1.10337e-05
1.07927e-05
1.05628e-05
1.03433e-05
1.01333e-05
9.93213e-06
9.73912e-06
9.55372e-06
9.3754e-06
9.20369e-06
9.03815e-06
8.87839e-06
8.72406e-06
8.57482e-06
8.43037e-06
8.29043e-06
8.15474e-06
8.02306e-06
7.89518e-06
7.77089e-06
7.65001e-06
7.53236e-06
1.13465e-05
1.10903e-05
1.08466e-05
1.06142e-05
1.03924e-05
1.01802e-05
9.97699e-06
9.78212e-06
9.59497e-06
9.41502e-06
9.24179e-06
9.07483e-06
8.91374e-06
8.75815e-06
8.60773e-06
8.46216e-06
8.32117e-06
8.18448e-06
8.05187e-06
7.92309e-06
7.79795e-06
7.67627e-06
7.55786e-06
1.14004e-05
1.11416e-05
1.08953e-05
1.06606e-05
1.04366e-05
1.02225e-05
1.00175e-05
9.8209e-06
9.63218e-06
9.45075e-06
9.27614e-06
9.10788e-06
8.94558e-06
8.78885e-06
8.63736e-06
8.49078e-06
8.34884e-06
8.21125e-06
8.07778e-06
7.9482e-06
7.8223e-06
7.69989e-06
7.58079e-06
1.14484e-05
1.11871e-05
1.09386e-05
1.07018e-05
1.04759e-05
1.026e-05
1.00534e-05
9.85529e-06
9.66515e-06
9.48241e-06
9.30657e-06
9.13716e-06
8.97378e-06
8.81604e-06
8.66359e-06
8.51612e-06
8.37332e-06
8.23493e-06
8.10071e-06
7.97041e-06
7.84383e-06
7.72077e-06
7.60106e-06
2.39839e-05
2.2577e-05
2.13489e-05
2.02668e-05
1.93055e-05
1.84452e-05
1.76703e-05
1.69683e-05
1.63289e-05
1.57438e-05
1.52059e-05
1.47094e-05
1.42495e-05
1.38219e-05
1.34231e-05
1.30501e-05
1.27002e-05
1.23711e-05
1.20608e-05
1.17676e-05
1.149e-05
1.12266e-05
1.09761e-05
1.07376e-05
1.051e-05
1.02926e-05
1.00845e-05
9.88511e-06
9.69374e-06
9.50985e-06
9.33293e-06
9.16252e-06
8.9982e-06
8.83958e-06
8.6863e-06
8.53805e-06
8.39451e-06
8.25543e-06
8.12055e-06
7.98963e-06
7.86246e-06
7.73884e-06
7.61859e-06
2.4189e-05
2.27536e-05
2.15027e-05
2.04021e-05
1.94256e-05
1.85528e-05
1.77673e-05
1.70562e-05
1.64091e-05
1.58173e-05
1.52735e-05
1.47719e-05
1.43075e-05
1.38758e-05
1.34735e-05
1.30972e-05
1.27444e-05
1.24127e-05
1.21001e-05
1.18047e-05
1.15251e-05
1.12599e-05
1.10078e-05
1.07677e-05
1.05387e-05
1.032e-05
1.01107e-05
9.9102e-06
9.71779e-06
9.53293e-06
9.35511e-06
9.18385e-06
9.01873e-06
8.85937e-06
8.70539e-06
8.55648e-06
8.41232e-06
8.27265e-06
8.13721e-06
8.00577e-06
7.8781e-06
7.75401e-06
7.63331e-06
2.4357e-05
2.2898e-05
2.16283e-05
2.05126e-05
1.95236e-05
1.86403e-05
1.78461e-05
1.71277e-05
1.64742e-05
1.58768e-05
1.53283e-05
1.48226e-05
1.43544e-05
1.39195e-05
1.35142e-05
1.31354e-05
1.27802e-05
1.24463e-05
1.21318e-05
1.18347e-05
1.15535e-05
1.12867e-05
1.10333e-05
1.0792e-05
1.05619e-05
1.03421e-05
1.01319e-05
9.93043e-06
9.73718e-06
9.55154e-06
9.37298e-06
9.20104e-06
9.03528e-06
8.87531e-06
8.72077e-06
8.57132e-06
8.42666e-06
8.28652e-06
8.15063e-06
8.01876e-06
7.89069e-06
7.76622e-06
7.64516e-06
3.73666e-05
3.36375e-05
3.06641e-05
2.82324e-05
2.62044e-05
2.44854e-05
2.30082e-05
2.17241e-05
2.05966e-05
1.95981e-05
1.87069e-05
1.7906e-05
1.71819e-05
1.65236e-05
1.5922e-05
1.53699e-05
1.48609e-05
1.43899e-05
1.39526e-05
1.3545e-05
1.31642e-05
1.28072e-05
1.24718e-05
1.21557e-05
1.18573e-05
1.15749e-05
1.13071e-05
1.10526e-05
1.08104e-05
1.05794e-05
1.03588e-05
1.01478e-05
9.9457e-06
9.75181e-06
9.56557e-06
9.38647e-06
9.21401e-06
9.04776e-06
8.88734e-06
8.73236e-06
8.58251e-06
8.43747e-06
8.29697e-06
8.16075e-06
8.02856e-06
7.90018e-06
7.77542e-06
7.65409e-06
3.75827e-05
3.38217e-05
3.08138e-05
2.83553e-05
2.63068e-05
2.4572e-05
2.30826e-05
2.17887e-05
2.06533e-05
1.96483e-05
1.87517e-05
1.79463e-05
1.72184e-05
1.65568e-05
1.59524e-05
1.53978e-05
1.48867e-05
1.44138e-05
1.39747e-05
1.35657e-05
1.31835e-05
1.28254e-05
1.24888e-05
1.21718e-05
1.18725e-05
1.15892e-05
1.13207e-05
1.10655e-05
1.08227e-05
1.05911e-05
1.037e-05
1.01585e-05
9.95592e-06
9.7616e-06
9.57497e-06
9.39549e-06
9.22269e-06
9.05612e-06
8.89539e-06
8.74013e-06
8.59e-06
8.44471e-06
8.30397e-06
8.16751e-06
8.03511e-06
7.90653e-06
7.78158e-06
7.66006e-06
3.76923e-05
3.39149e-05
3.08895e-05
2.84173e-05
2.63585e-05
2.46157e-05
2.312e-05
2.18212e-05
2.06818e-05
1.96735e-05
1.87742e-05
1.79665e-05
1.72367e-05
1.65734e-05
1.59677e-05
1.54118e-05
1.48996e-05
1.44258e-05
1.39859e-05
1.35761e-05
1.31932e-05
1.28345e-05
1.24974e-05
1.21799e-05
1.18801e-05
1.15964e-05
1.13275e-05
1.1072e-05
1.08288e-05
1.0597e-05
1.03756e-05
1.01639e-05
9.96104e-06
9.76651e-06
9.57968e-06
9.40002e-06
9.22704e-06
9.06031e-06
8.89942e-06
8.74402e-06
8.59376e-06
8.44834e-06
8.30747e-06
8.17091e-06
8.03839e-06
7.90971e-06
7.78466e-06
7.66305e-06
3.76924e-05
3.3915e-05
3.08895e-05
2.84173e-05
2.63585e-05
2.46157e-05
2.312e-05
2.18212e-05
2.06818e-05
1.96735e-05
1.87742e-05
1.79666e-05
1.72367e-05
1.65735e-05
1.59677e-05
1.54118e-05
1.48996e-05
1.44258e-05
1.39859e-05
1.35761e-05
1.31933e-05
1.28345e-05
1.24974e-05
1.21799e-05
1.18801e-05
1.15964e-05
1.13275e-05
1.1072e-05
1.08288e-05
1.0597e-05
1.03756e-05
1.01638e-05
9.96104e-06
9.76651e-06
9.57968e-06
9.40001e-06
9.22703e-06
9.0603e-06
8.89942e-06
8.74401e-06
8.59376e-06
8.44834e-06
8.30747e-06
8.1709e-06
8.03839e-06
7.90971e-06
7.78466e-06
7.66305e-06
3.75828e-05
3.38219e-05
3.08139e-05
2.83553e-05
2.63068e-05
2.4572e-05
2.30825e-05
2.17887e-05
2.06533e-05
1.96483e-05
1.87517e-05
1.79463e-05
1.72184e-05
1.65568e-05
1.59524e-05
1.53978e-05
1.48867e-05
1.44138e-05
1.39748e-05
1.35658e-05
1.31836e-05
1.28254e-05
1.24888e-05
1.21718e-05
1.18725e-05
1.15892e-05
1.13206e-05
1.10655e-05
1.08226e-05
1.05911e-05
1.037e-05
1.01585e-05
9.95591e-06
9.76159e-06
9.57496e-06
9.39548e-06
9.22268e-06
9.05611e-06
8.89538e-06
8.74012e-06
8.59e-06
8.44471e-06
8.30396e-06
8.16751e-06
8.0351e-06
7.90653e-06
7.78157e-06
7.66006e-06
3.73668e-05
3.36377e-05
3.06643e-05
2.82326e-05
2.62045e-05
2.44853e-05
2.30082e-05
2.17241e-05
2.05967e-05
1.95981e-05
1.87069e-05
1.79061e-05
1.7182e-05
1.65236e-05
1.59221e-05
1.53699e-05
1.4861e-05
1.439e-05
1.39526e-05
1.35451e-05
1.31642e-05
1.28072e-05
1.24718e-05
1.21557e-05
1.18573e-05
1.15749e-05
1.1307e-05
1.10526e-05
1.08103e-05
1.05794e-05
1.03588e-05
1.01478e-05
9.94567e-06
9.75179e-06
9.56556e-06
9.38645e-06
9.21399e-06
9.04775e-06
8.88732e-06
8.73235e-06
8.5825e-06
8.43746e-06
8.29696e-06
8.16074e-06
8.02855e-06
7.90018e-06
7.77542e-06
7.65408e-06
3.705e-05
3.33666e-05
3.04436e-05
2.80512e-05
2.60531e-05
2.43571e-05
2.2898e-05