/*--------------------------------*- C++ -*----------------------------------*\
  =========                 |
  \\      /  F ield         | OpenFOAM: The Open Source CFD Toolbox
   \\    /   O peration     | Website:  https://openfoam.org
    \\  /    A nd           | Version:  7
     \\/     M anipulation  |
\*---------------------------------------------------------------------------*/
FoamFile
{
    version     2.0;
    format      ascii;
    class       volVectorField;
    location    "96000";
    object      vorticity;
}
// * * * * * * * * * * * * * * * * * * * * * * * * * * * * * * * * * * * * * //

dimensions      [0 0 -1 0 0 0 0];

internalField   nonuniform List<vector> 
4838
(
(0.00295857 0.00134537 3.9048e-17)
(0.00187867 0.0024907 1.99044e-17)
(0.00198552 0.00234684 2.842e-21)
(0.00204705 0.00220703 -1.28136e-18)
(0.00208616 0.00207026 1.26847e-17)
(0.00211071 0.00193793 1.74812e-17)
(0.0021252 0.00180973 1.63637e-17)
(0.00213218 0.0016853 1.6433e-17)
(0.00213325 0.00156441 2.06304e-17)
(0.00212955 0.00144694 1.42239e-17)
(0.00212196 0.00133283 4.10487e-18)
(0.00211125 0.00122205 1.64302e-18)
(0.00209808 0.00111459 1.70521e-18)
(0.00208307 0.0010104 -4.61687e-18)
(0.00206682 0.000909429 -1.33111e-17)
(0.00204989 0.000811605 -1.80214e-17)
(0.00203281 0.000716808 -1.16376e-17)
(0.00201611 0.00062488 -4.3644e-18)
(0.00200027 0.000535623 -5.21476e-18)
(0.00198575 0.000448795 -5.80878e-18)
(0.00197296 0.000364109 -3.31777e-18)
(0.00196226 0.000281239 2.21647e-18)
(0.00195396 0.000199824 1.02499e-17)
(0.00194829 0.00011947 1.79489e-17)
(0.00194542 3.97617e-05 2.11246e-17)
(0.00194542 -3.97294e-05 2.14093e-17)
(0.00194829 -0.000119437 2.20067e-17)
(0.00195396 -0.000199792 2.66959e-17)
(0.00196226 -0.000281208 3.40703e-17)
(0.00197296 -0.000364077 3.85483e-17)
(0.00198575 -0.000448764 4.26305e-17)
(0.00200027 -0.000535593 5.13331e-17)
(0.00201611 -0.00062485 5.81625e-17)
(0.00203281 -0.000716778 5.13514e-17)
(0.00204988 -0.000811576 3.75785e-17)
(0.00206682 -0.000909399 2.90487e-17)
(0.00208307 -0.00101037 2.56223e-17)
(0.00209807 -0.00111456 1.52779e-17)
(0.00211124 -0.00122202 -1.46771e-18)
(0.00212196 -0.0013328 -1.26635e-17)
(0.00212954 -0.00144691 -8.90848e-18)
(0.00213324 -0.00156438 -2.56943e-18)
(0.00213217 -0.00168527 3.67667e-18)
(0.00212519 -0.0018097 1.42409e-18)
(0.0021107 -0.00193789 -1.66525e-17)
(0.00208615 -0.00207022 -1.79641e-17)
(0.00204703 -0.00220699 4.42496e-18)
(0.00198551 -0.00234681 9.46345e-18)
(0.00187865 -0.00249067 -1.01415e-17)
(0.00295854 -0.00134535 -2.23108e-17)
(0.00371002 0.00143585 3.25939e-17)
(0.00255444 0.00251884 1.07997e-17)
(0.00255803 0.00242566 6.78033e-18)
(0.0025573 0.0023118 2.99095e-18)
(0.00255091 0.00218561 9.53863e-19)
(0.00253818 0.00205588 3.48388e-18)
(0.00252061 0.00192645 9.758e-18)
(0.00249973 0.00179894 1.32617e-17)
(0.00247669 0.00167399 1.42419e-17)
(0.00245227 0.00155189 1.51275e-17)
(0.00242707 0.00143275 1.08338e-17)
(0.00240152 0.00131662 2.19435e-18)
(0.00237602 0.00120352 1.37721e-18)
(0.00235089 0.00109345 4.70437e-18)
(0.00232645 0.000986342 -3.57745e-19)
(0.00230301 0.000882136 -1.1896e-17)
(0.00228087 0.000780717 -1.2179e-17)
(0.00226032 0.000681933 -5.10036e-18)
(0.00224162 0.000585598 -7.40278e-18)
(0.00222505 0.000491482 -1.05932e-17)
(0.00221085 0.000399319 -5.35095e-18)
(0.00219921 0.000308808 9.38747e-20)
(0.00219032 0.000219616 6.48955e-18)
(0.00218432 0.000131386 1.38578e-17)
(0.00218129 4.37409e-05 1.65648e-17)
(0.00218129 -4.37082e-05 1.67747e-17)
(0.00218432 -0.000131354 1.81966e-17)
(0.00219032 -0.000219584 2.38025e-17)
(0.00219921 -0.000308776 2.91495e-17)
(0.00221085 -0.000399287 3.15853e-17)
(0.00222505 -0.00049145 3.77209e-17)
(0.00224162 -0.000585566 4.46566e-17)
(0.00226031 -0.000681902 4.32294e-17)
(0.00228087 -0.000780686 3.61462e-17)
(0.00230301 -0.000882106 2.75282e-17)
(0.00232645 -0.000986312 1.97142e-17)
(0.00235088 -0.00109342 1.06676e-17)
(0.00237601 -0.00120349 -1.21337e-18)
(0.00240152 -0.00131659 -7.99556e-18)
(0.00242706 -0.00143272 -8.39353e-18)
(0.00245226 -0.00155186 -7.4596e-18)
(0.00247667 -0.00167396 -7.89503e-18)
(0.00249972 -0.00179891 -1.1723e-17)
(0.0025206 -0.00192642 -1.40228e-17)
(0.00253817 -0.00205584 -1.10718e-17)
(0.0025509 -0.00218558 -1.02562e-17)
(0.00255729 -0.00231176 -1.65119e-17)
(0.00255802 -0.00242562 -2.47231e-17)
(0.00255443 -0.00251881 -3.05565e-17)
(0.00371 -0.00143583 -4.00362e-17)
(0.00397782 0.00160541 1.61927e-17)
(0.00277486 0.00264184 6.02146e-18)
(0.00275955 0.00252654 5.66702e-18)
(0.00274705 0.00241481 4.31642e-18)
(0.00273742 0.00229436 3.83068e-18)
(0.0027263 0.0021681 4.68597e-18)
(0.00271233 0.00203932 6.26677e-18)
(0.0026956 0.0019103 8.84736e-18)
(0.00267663 0.00178237 1.10806e-17)
(0.00265605 0.00165632 1.13504e-17)
(0.0026344 0.00153256 8.16281e-18)
(0.00261216 0.00141131 4.79516e-18)
(0.00258972 0.0012927 4.89626e-18)
(0.00256745 0.00117676 5.36116e-18)
(0.00254569 0.0010635 1.52169e-18)
(0.00252474 0.000952864 -7.17529e-18)
(0.0025049 0.000844757 -6.88982e-18)
(0.00248645 0.000739051 -1.70481e-18)
(0.00246966 0.000635576 -6.07988e-18)
(0.00245476 0.000534126 -1.11197e-17)
(0.00244199 0.000434457 -6.28624e-18)
(0.00243152 0.000336294 7.83557e-19)
(0.00242353 0.000239335 5.95215e-18)
(0.00241812 0.000143252 1.23393e-17)
(0.0024154 4.7702e-05 1.74184e-17)
(0.0024154 -4.76691e-05 1.85208e-17)
(0.00241812 -0.000143219 1.59926e-17)
(0.00242352 -0.000239302 1.71768e-17)
(0.00243152 -0.000336262 2.28863e-17)
(0.00244199 -0.000434424 2.67551e-17)
(0.00245476 -0.000534094 3.05693e-17)
(0.00246966 -0.000635544 3.39771e-17)
(0.00248645 -0.000739019 3.42346e-17)
(0.0025049 -0.000844726 2.94772e-17)
(0.00252474 -0.000952833 2.0393e-17)
(0.00254569 -0.00106347 1.45748e-17)
(0.00256745 -0.00117673 1.03498e-17)
(0.00258971 -0.00129267 2.32593e-18)
(0.00261215 -0.00141128 -4.9051e-18)
(0.0026344 -0.00153253 -8.18868e-18)
(0.00265604 -0.00165629 -1.05081e-17)
(0.00267662 -0.00178234 -1.09902e-17)
(0.00269559 -0.00191026 -1.17745e-17)
(0.00271233 -0.00203929 -1.34816e-17)
(0.00272629 -0.00216807 -1.43908e-17)
(0.00273741 -0.00229432 -1.64009e-17)
(0.00274704 -0.00241477 -2.19656e-17)
(0.00275954 -0.00252651 -2.89271e-17)
(0.00277485 -0.00264181 -3.40259e-17)
(0.0039778 -0.00160539 -4.74234e-17)
(0.00415802 0.00178068 1.17979e-17)
(0.00297169 0.00279029 1.09565e-18)
(0.00295026 0.00265404 3.1347e-18)
(0.00293084 0.00253051 5.00088e-18)
(0.00291712 0.00240593 4.93938e-18)
(0.00290548 0.00227847 5.72191e-18)
(0.00289357 0.0021487 6.72071e-18)
(0.00288035 0.0020179 7.54125e-18)
(0.00286556 0.00188724 8.56612e-18)
(0.00284936 0.00175761 7.54711e-18)
(0.00283205 0.00162957 5.82905e-18)
(0.00281398 0.0015035 4.43722e-18)
(0.00279552 0.00137962 5.1315e-18)
(0.002777 0.00125804 3.72691e-18)
(0.00275873 0.00113881 3.85083e-19)
(0.00274101 0.00102192 -4.16528e-18)
(0.00272414 0.000907289 -4.57717e-18)
(0.00270837 0.000794824 -1.38871e-18)
(0.00269397 0.000684374 -5.16657e-18)
(0.00268115 0.000575757 -9.85305e-18)
(0.00267013 0.000468756 -5.09322e-18)
(0.00266108 0.00036312 2.54904e-18)
(0.00265416 0.000258577 7.59438e-18)
(0.00264949 0.00015483 1.29147e-17)
(0.00264713 5.1567e-05 1.74706e-17)
(0.00264713 -5.15339e-05 1.82696e-17)
(0.00264949 -0.000154797 1.53642e-17)
(0.00265416 -0.000258544 1.47017e-17)
(0.00266108 -0.000363088 1.76716e-17)
(0.00267013 -0.000468723 2.24899e-17)
(0.00268115 -0.000575725 2.59231e-17)
(0.00269396 -0.000684342 2.60644e-17)
(0.00270837 -0.000794791 2.58346e-17)
(0.00272414 -0.000907257 2.26726e-17)
(0.00274101 -0.00102189 1.65827e-17)
(0.00275872 -0.00113878 1.41258e-17)
(0.00277699 -0.00125801 1.19215e-17)
(0.00279552 -0.00137959 4.78344e-18)
(0.00281398 -0.00150347 -1.73406e-18)
(0.00283204 -0.00162954 -5.53597e-18)
(0.00284935 -0.00175757 -1.01173e-17)
(0.00286556 -0.00188721 -1.19422e-17)
(0.00288035 -0.00201787 -1.26169e-17)
(0.00289357 -0.00214867 -1.40356e-17)
(0.00290548 -0.00227844 -1.58122e-17)
(0.00291712 -0.0024059 -1.86951e-17)
(0.00293084 -0.00253048 -2.39827e-17)
(0.00295026 -0.00265401 -3.01577e-17)
(0.00297169 -0.00279026 -3.46733e-17)
(0.00415802 -0.00178067 -3.99471e-17)
(0.00431853 0.00195348 1.4391e-17)
(0.00315428 0.00294295 4.37547e-19)
(0.00313648 0.00279401 1.45153e-18)
(0.00311661 0.00265819 1.96911e-18)
(0.00310135 0.00252506 4.58941e-18)
(0.00308907 0.00239221 7.80577e-18)
(0.00307804 0.00225868 7.90975e-18)
(0.00306699 0.00212459 7.69814e-18)
(0.00305524 0.00199048 8.23946e-18)
(0.00304256 0.00185698 6.23299e-18)
(0.00302898 0.0017246 3.71452e-18)
(0.00301467 0.00159375 4.77751e-18)
(0.00299989 0.00146468 5.89537e-18)
(0.00298489 0.00133756 1.48816e-18)
(0.00296996 0.00121247 -2.95151e-18)
(0.00295536 0.00108943 -4.34275e-18)
(0.00294136 0.000968404 -3.94476e-18)
(0.00292821 0.000849313 -2.1909e-18)
(0.00291613 0.000732033 -4.23894e-18)
(0.00290534 0.000616404 -7.22131e-18)
(0.00289603 0.000502234 -1.73702e-18)
(0.00288838 0.000389299 6.83351e-18)
(0.00288251 0.000277352 9.79756e-18)
(0.00287854 0.000166125 1.1088e-17)
(0.00287654 5.53372e-05 1.6052e-17)
(0.00287654 -5.53039e-05 1.96975e-17)
(0.00287854 -0.000166092 1.61723e-17)
(0.00288251 -0.000277319 1.27333e-17)
(0.00288838 -0.000389266 1.47314e-17)
(0.00289603 -0.000502201 1.89305e-17)
(0.00290534 -0.000616372 2.14801e-17)
(0.00291613 -0.000732001 2.13293e-17)
(0.00292821 -0.000849281 2.0377e-17)
(0.00294136 -0.000968371 1.72969e-17)
(0.00295537 -0.0010894 1.29396e-17)
(0.00296996 -0.00121243 1.10274e-17)
(0.00298489 -0.00133752 1.00881e-17)
(0.00299989 -0.00146465 5.97714e-18)
(0.00301467 -0.00159372 6.45037e-19)
(0.00302898 -0.00172457 -4.80096e-18)
(0.00304256 -0.00185694 -8.4921e-18)
(0.00305524 -0.00199045 -8.6539e-18)
(0.00306699 -0.00212455 -8.86093e-18)
(0.00307804 -0.00225865 -1.17911e-17)
(0.00308907 -0.00239218 -1.48495e-17)
(0.00310135 -0.00252503 -1.80166e-17)
(0.00311662 -0.00265816 -2.29559e-17)
(0.00313648 -0.00279399 -2.75779e-17)
(0.00315429 -0.00294293 -2.84193e-17)
(0.00431853 -0.00195347 -2.67053e-17)
(0.00447117 0.00212362 2.8396e-17)
(0.00332804 0.0030946 3.9093e-18)
(0.00331631 0.00293763 3.34002e-18)
(0.00329998 0.00279215 3.28974e-18)
(0.00328624 0.00265022 4.36045e-18)
(0.00327485 0.00251024 8.34243e-18)
(0.00326499 0.00237104 9.44751e-18)
(0.00325575 0.00223215 8.83847e-18)
(0.00324643 0.00209357 7.61772e-18)
(0.00323665 0.00195559 4.53408e-18)
(0.00322624 0.00181854 2.19312e-18)
(0.00321524 0.00168273 4.94992e-18)
(0.00320375 0.0015484 6.49306e-18)
(0.00319198 0.00141573 -1.04974e-18)
(0.00318014 0.00128481 -6.14521e-18)
(0.00316844 0.00115569 -4.03945e-18)
(0.00315714 0.00102834 -2.05703e-18)
(0.00314644 0.000902725 -6.22855e-19)
(0.00313655 0.000778726 -1.17292e-18)
(0.00312768 0.00065621 -2.85198e-18)
(0.00312 0.000535006 2.0418e-18)
(0.00311367 0.000414917 9.65707e-18)
(0.0031088 0.00029572 9.51877e-18)
(0.0031055 0.000177174 8.05426e-18)
(0.00310383 5.90249e-05 1.25385e-17)
(0.00310383 -5.89919e-05 1.59672e-17)
(0.0031055 -0.000177141 1.33596e-17)
(0.0031088 -0.000295687 1.03729e-17)
(0.00311367 -0.000414885 1.12167e-17)
(0.00312001 -0.000534974 1.5256e-17)
(0.00312769 -0.000656178 1.85381e-17)
(0.00313656 -0.000778694 1.88543e-17)
(0.00314644 -0.000902693 1.78657e-17)
(0.00315714 -0.00102831 1.4026e-17)
(0.00316845 -0.00115565 9.66078e-18)
(0.00318014 -0.00128478 8.09881e-18)
(0.00319199 -0.00141569 7.4783e-18)
(0.00320376 -0.00154837 5.70056e-18)
(0.00321524 -0.0016827 2.80292e-18)
(0.00322625 -0.00181851 -2.18014e-18)
(0.00323665 -0.00195556 -5.92022e-18)
(0.00324644 -0.00209354 -7.08078e-18)
(0.00325575 -0.00223212 -7.82869e-18)
(0.00326499 -0.00237101 -1.20514e-17)
(0.00327486 -0.00251021 -1.60488e-17)
(0.00328625 -0.00265019 -1.92032e-17)
(0.0033 -0.00279213 -2.17202e-17)
(0.00331632 -0.00293761 -2.14038e-17)
(0.00332805 -0.00309459 -1.7171e-17)
(0.00447118 -0.00212361 -9.51575e-18)
(0.00461956 0.00229159 4.32702e-17)
(0.00349657 0.00324448 1.20381e-17)
(0.00349094 0.00308149 8.67056e-18)
(0.00347964 0.00292843 7.13149e-18)
(0.00346935 0.00277869 6.32962e-18)
(0.00346041 0.00263144 8.02149e-18)
(0.0034526 0.00248579 8.53858e-18)
(0.00344547 0.00234115 7.67788e-18)
(0.00343851 0.00219729 6.16474e-18)
(0.00343136 0.00205421 3.81398e-18)
(0.0034238 0.00191205 2.72643e-18)
(0.00341576 0.001771 5.70726e-18)
(0.00340727 0.00163125 5.91721e-18)
(0.00339845 0.00149294 -2.50708e-18)
(0.00338946 0.00135617 -7.5652e-18)
(0.00338047 0.00122097 -2.81827e-18)
(0.00337168 0.00108735 2.16585e-19)
(0.00336328 0.000955263 9.69782e-20)
(0.00335547 0.000824625 4.34906e-19)
(0.0033484 0.000695318 -1.82154e-19)
(0.00334225 0.000567191 2.40718e-18)
(0.00333716 0.000440067 8.22426e-18)
(0.00333323 0.000313748 8.52819e-18)
(0.00333057 0.000188016 7.23924e-18)
(0.00332922 6.26427e-05 1.08442e-17)
(0.00332922 -6.26106e-05 1.25661e-17)
(0.00333057 -0.000187984 1.0047e-17)
(0.00333324 -0.000313716 8.55446e-18)
(0.00333716 -0.000440035 8.90207e-18)
(0.00334226 -0.000567159 1.08581e-17)
(0.00334841 -0.000695287 1.42927e-17)
(0.00335547 -0.000824594 1.71142e-17)
(0.00336329 -0.000955232 1.6125e-17)
(0.00337169 -0.00108732 1.12501e-17)
(0.00338048 -0.00122094 7.12037e-18)
(0.00338947 -0.00135613 6.16209e-18)
(0.00339846 -0.00149291 6.09379e-18)
(0.00340728 -0.00163122 6.1969e-18)
(0.00341577 -0.00177097 4.27472e-18)
(0.00342381 -0.00191202 -7.31037e-19)
(0.00343137 -0.00205418 -3.80024e-18)
(0.00343852 -0.00219726 -5.66902e-18)
(0.00344548 -0.00234113 -7.94964e-18)
(0.00345261 -0.00248576 -1.12327e-17)
(0.00346042 -0.00263141 -1.48924e-17)
(0.00346937 -0.00277867 -1.8976e-17)
(0.00347965 -0.00292841 -2.06427e-17)
(0.00349096 -0.00308147 -1.57037e-17)
(0.00349658 -0.00324447 -7.34042e-18)
(0.00461958 -0.00229159 4.57564e-18)
(0.00476539 0.00245786 3.05492e-17)
(0.00366184 0.00339278 2.08908e-17)
(0.00366191 0.00322459 1.5678e-17)
(0.00365595 0.00306514 1.17291e-17)
(0.00365002 0.00290854 8.83478e-18)
(0.00364455 0.00275442 9.37409e-18)
(0.00363962 0.00260222 9.9584e-18)
(0.00363511 0.00245145 7.96359e-18)
(0.00363072 0.00230181 6.01134e-18)
(0.00362621 0.00215316 3.54143e-18)
(0.00362137 0.00200551 1.22931e-18)
(0.00361611 0.00185895 2.38396e-18)
(0.00361042 0.00171359 2.6158e-18)
(0.00360435 0.00156952 -2.47726e-18)
(0.00359801 0.00142681 -6.07723e-18)
(0.00359155 0.00128552 -1.12009e-18)
(0.00358513 0.00114563 3.06512e-18)
(0.00357889 0.00100711 2.93314e-18)
(0.00357302 0.000869885 2.72413e-18)
(0.00356766 0.000733857 1.74111e-18)
(0.00356296 0.000598891 1.72193e-18)
(0.00355904 0.000464828 4.62675e-18)
(0.003556 0.000331492 5.00175e-18)
(0.00355393 0.000198685 5.44108e-18)
(0.00355288 6.62025e-05 9.82267e-18)
(0.00355288 -6.61717e-05 9.53899e-18)
(0.00355393 -0.000198655 6.28085e-18)
(0.00355601 -0.000331461 6.68201e-18)
(0.00355904 -0.000464798 6.53255e-18)
(0.00356297 -0.00059886 7.06351e-18)
(0.00356767 -0.000733827 1.24278e-17)
(0.00357303 -0.000869854 1.66831e-17)
(0.0035789 -0.00100708 1.48225e-17)
(0.00358514 -0.0011456 1.0317e-17)
(0.00359156 -0.00128549 7.04768e-18)
(0.00359803 -0.00142678 5.78882e-18)
(0.00360436 -0.00156948 5.35736e-18)
(0.00361043 -0.00171356 5.17861e-18)
(0.00361612 -0.00185892 3.85508e-18)
(0.00362139 -0.00200548 1.09523e-18)
(0.00362622 -0.00215313 -1.69754e-18)
(0.00363074 -0.00230178 -5.52893e-18)
(0.00363512 -0.00245142 -7.68545e-18)
(0.00363964 -0.00260219 -1.01527e-17)
(0.00364457 -0.0027544 -1.47219e-17)
(0.00365005 -0.00290852 -1.91938e-17)
(0.00365597 -0.00306512 -1.89601e-17)
(0.00366193 -0.00322457 -1.07361e-17)
(0.00366186 -0.00339278 -1.90395e-18)
(0.00476542 -0.00245785 7.79192e-18)
(0.0049096 0.00262273 -1.13431e-18)
(0.00382495 0.00353984 2.1208e-17)
(0.00383036 0.00336676 1.88807e-17)
(0.00382968 0.00320152 1.44747e-17)
(0.00382841 0.00303871 1.0625e-17)
(0.00382694 0.00287818 9.43962e-18)
(0.00382546 0.00271959 9.88718e-18)
(0.00382402 0.00256262 8.56201e-18)
(0.00382249 0.00240697 7.87362e-18)
(0.00382075 0.00225247 6.07475e-18)
(0.00381864 0.00209907 2.29441e-18)
(0.0038161 0.00194677 1.52003e-19)
(0.00381308 0.00179562 4.49318e-19)
(0.00380963 0.00164566 -7.39612e-19)
(0.00380582 0.00149696 -3.76723e-18)
(0.00380175 0.00134952 -1.50537e-18)
(0.00379756 0.00120334 2.48959e-18)
(0.00379338 0.0010584 3.15021e-18)
(0.00378934 0.000914632 2.75139e-18)
(0.0037856 0.000771935 2.45904e-18)
(0.00378227 0.000630195 1.67428e-18)
(0.00377946 0.000489271 2.27503e-18)
(0.00377727 0.000349002 2.47993e-18)
(0.00377576 0.000209212 4.57854e-18)
(0.003775 6.97145e-05 9.6643e-18)
(0.003775 -6.9685e-05 7.47477e-18)
(0.00377576 -0.000209183 3.14351e-18)
(0.00377727 -0.000348973 4.12088e-18)
(0.00377946 -0.000489243 4.7914e-18)
(0.00378227 -0.000630167 6.12957e-18)
(0.00378561 -0.000771906 1.15403e-17)
(0.00378935 -0.000914603 1.53331e-17)
(0.00379339 -0.00105837 1.32192e-17)
(0.00379757 -0.00120332 9.41028e-18)
(0.00380177 -0.00134949 6.75012e-18)
(0.00380584 -0.00149693 6.34071e-18)
(0.00380965 -0.00164563 5.28238e-18)
(0.0038131 -0.00179559 3.71328e-18)
(0.00381611 -0.00194675 2.994e-18)
(0.00381866 -0.00209905 1.74306e-18)
(0.00382077 -0.00225245 -1.12522e-18)
(0.00382251 -0.00240694 -5.16386e-18)
(0.00382404 -0.00256259 -6.36342e-18)
(0.00382549 -0.00271957 -8.07143e-18)
(0.00382696 -0.00287816 -1.30169e-17)
(0.00382844 -0.0030387 -1.76671e-17)
(0.0038297 -0.00320151 -1.63348e-17)
(0.00383039 -0.00336675 -9.29292e-18)
(0.00382498 -0.00353983 -5.16988e-18)
(0.00490963 -0.00262272 -8.21181e-18)
(0.00505279 0.00278646 -9.35846e-18)
(0.00398655 0.00368594 1.30868e-17)
(0.00399704 0.00350809 1.7229e-17)
(0.00400148 0.00333737 1.53256e-17)
(0.00400492 0.00316874 1.2568e-17)
(0.00400768 0.00300213 1.1861e-17)
(0.00400998 0.00283738 1.13482e-17)
(0.00401192 0.00267426 9.21189e-18)
(0.00401351 0.00251254 8.52154e-18)
(0.00401469 0.00235207 6.84331e-18)
(0.00401539 0.00219276 1.5954e-18)
(0.00401556 0.00203456 -3.42546e-18)
(0.00401518 0.00187747 -2.35039e-18)
(0.00401427 0.00172153 1.74636e-19)
(0.00401289 0.00156674 -2.25529e-18)
(0.00401112 0.00141311 -2.98849e-18)
(0.00400906 0.00126063 1.73938e-18)
(0.00400683 0.00110927 3.24024e-18)
(0.00400455 0.000958972 1.99709e-18)
(0.00400234 0.000809643 2.30754e-18)
(0.00400032 0.00066118 1.14257e-18)
(0.00399856 0.000513454 7.60644e-19)
(0.00399718 0.000366321 1.88663e-18)
(0.00399621 0.000219622 4.51768e-18)
(0.00399572 7.31873e-05 9.02486e-18)
(0.00399572 -7.3159e-05 6.20405e-18)
(0.00399622 -0.000219594 1.50525e-18)
(0.00399718 -0.000366294 3.19709e-18)
(0.00399857 -0.000513427 5.61373e-18)
(0.00400032 -0.000661153 7.28951e-18)
(0.00400235 -0.000809616 1.04346e-17)
(0.00400456 -0.000958944 1.25303e-17)
(0.00400684 -0.00110925 1.06798e-17)
(0.00400907 -0.0012606 8.4535e-18)
(0.00401113 -0.00141308 7.45898e-18)
(0.00401291 -0.00156671 7.39148e-18)
(0.00401429 -0.0017215 5.48896e-18)
(0.0040152 -0.00187745 3.1461e-18)
(0.00401558 -0.00203453 2.55204e-18)
(0.00401541 -0.00219273 1.90131e-18)
(0.00401471 -0.00235205 -2.52788e-18)
(0.00401353 -0.00251252 -6.13268e-18)
(0.00401195 -0.00267424 -5.53373e-18)
(0.00401001 -0.00283736 -6.93827e-18)
(0.00400771 -0.00300212 -1.16394e-17)
(0.00400495 -0.00316873 -1.54369e-17)
(0.00400151 -0.00333737 -1.43975e-17)
(0.00399708 -0.00350809 -1.05572e-17)
(0.00398658 -0.00368594 -1.07287e-17)
(0.00505282 -0.00278646 -2.38247e-17)
(0.00519535 0.00294926 5.8874e-18)
(0.00414708 0.00383131 6.82837e-18)
(0.00416247 0.00364873 1.27789e-17)
(0.00417187 0.00347269 1.26592e-17)
(0.00417998 0.00329844 1.24587e-17)
(0.00418704 0.003126 1.33884e-17)
(0.00419326 0.00295526 1.19077e-17)
(0.00419878 0.00278609 7.80748e-18)
(0.00420366 0.00261832 6.29532e-18)
(0.0042079 0.00245183 5.25219e-18)
(0.00421149 0.00228651 5.28279e-19)
(0.00421441 0.00212231 -4.50828e-18)
(0.00421665 0.0019592 -2.69377e-18)
(0.00421825 0.00179718 1.03954e-18)
(0.00421923 0.00163625 -1.34191e-18)
(0.00421968 0.00147639 -3.98175e-18)
(0.00421969 0.00131759 1.56106e-18)
(0.00421934 0.00115981 4.45494e-18)
(0.00421875 0.00100299 2.05272e-18)
(0.00421801 0.000847054 1.90004e-18)
(0.00421723 0.000691905 -1.2466e-19)
(0.0042165 0.000537426 -1.66387e-18)
(0.00421588 0.000383484 6.91723e-19)
(0.00421543 0.000229936 4.51756e-18)
(0.0042152 7.66275e-05 7.97645e-18)
(0.0042152 -7.66007e-05 4.90249e-18)
(0.00421543 -0.00022991 8.64143e-19)
(0.00421588 -0.000383459 3.00731e-18)
(0.0042165 -0.0005374 6.64303e-18)
(0.00421724 -0.00069188 8.43447e-18)
(0.00421802 -0.000847028 9.15565e-18)
(0.00421876 -0.00100296 9.59429e-18)
(0.00421935 -0.00115978 8.54138e-18)
(0.0042197 -0.00131756 7.90664e-18)
(0.0042197 -0.00147636 7.78973e-18)
(0.00421925 -0.00163622 6.63101e-18)
(0.00421827 -0.00179716 4.39186e-18)
(0.00421668 -0.00195918 3.49908e-18)
(0.00421444 -0.00212229 4.26515e-18)
(0.00421152 -0.00228649 3.28028e-18)
(0.00420793 -0.00245181 -2.7203e-18)
(0.00420369 -0.0026183 -5.90377e-18)
(0.00419881 -0.00278607 -4.25763e-18)
(0.0041933 -0.00295525 -5.34623e-18)
(0.00418707 -0.00312598 -9.92989e-18)
(0.00418001 -0.00329843 -1.39214e-17)
(0.0041719 -0.00347268 -1.44246e-17)
(0.00416251 -0.00364873 -1.27139e-17)
(0.00414712 -0.00383132 -1.43952e-17)
(0.00519539 -0.00294926 -2.53434e-17)
(0.00533756 0.0031113 1.24827e-17)
(0.00430685 0.00397616 5.76712e-18)
(0.004327 0.00378884 9.53587e-18)
(0.00434123 0.00360754 9.6943e-18)
(0.00435393 0.0034278 1.05178e-17)
(0.00436529 0.00324966 1.33575e-17)
(0.00437549 0.00307307 1.29809e-17)
(0.00438469 0.00289794 8.96202e-18)
(0.00439296 0.00272417 5.82375e-18)
(0.00440036 0.00255165 3.92745e-18)
(0.00440691 0.00238029 -6.8145e-19)
(0.00441262 0.00221003 -4.31319e-18)
(0.00441749 0.00204084 -1.40531e-18)
(0.00442157 0.00187268 2.82779e-18)
(0.00442488 0.00170555 2.71405e-19)
(0.00442751 0.00153943 -3.11964e-18)
(0.00442952 0.00137428 1.95708e-18)
(0.004431 0.00121007 4.23793e-18)
(0.00443204 0.00104675 1.30761e-18)
(0.00443273 0.000884225 1.28911e-18)
(0.00443315 0.000722421 -7.96263e-19)
(0.00443339 0.000561225 -2.68198e-18)
(0.00443351 0.000400518 5.18782e-19)
(0.00443356 0.00024017 5.20485e-18)
(0.00443357 8.00407e-05 6.87991e-18)
(0.00443357 -8.0016e-05 2.79117e-18)
(0.00443356 -0.000240147 2.19342e-19)
(0.00443351 -0.000400495 3.79147e-18)
(0.0044334 -0.000561202 8.18828e-18)
(0.00443316 -0.000722397 9.95499e-18)
(0.00443274 -0.000884201 8.88082e-18)
(0.00443205 -0.00104672 7.40464e-18)
(0.00443102 -0.00121005 6.10357e-18)
(0.00442954 -0.00137426 5.75086e-18)
(0.00442753 -0.0015394 5.95789e-18)
(0.00442491 -0.00170553 3.71183e-18)
(0.00442159 -0.00187266 1.83092e-18)
(0.00441752 -0.00204081 3.68528e-18)
(0.00441265 -0.00221001 5.16547e-18)
(0.00440694 -0.00238027 3.19563e-18)
(0.0044004 -0.00255163 -3.18052e-18)
(0.004393 -0.00272415 -6.73737e-18)
(0.00438472 -0.00289793 -4.51444e-18)
(0.00437553 -0.00307306 -4.21985e-18)
(0.00436532 -0.00324965 -8.35661e-18)
(0.00435397 -0.0034278 -1.23962e-17)
(0.00434127 -0.00360754 -1.35842e-17)
(0.00432704 -0.00378884 -1.31514e-17)
(0.00430689 -0.00397617 -1.53409e-17)
(0.00533761 -0.0031113 -2.27917e-17)
(0.00547967 0.00327273 7.31465e-18)
(0.00446611 0.00412064 6.36237e-18)
(0.00449092 0.00392855 9.15982e-18)
(0.00450986 0.00374202 1.00333e-17)
(0.00452706 0.00355685 1.07132e-17)
(0.00454268 0.0033731 1.26658e-17)
(0.00455688 0.00319074 1.23406e-17)
(0.00456979 0.00300973 8.36743e-18)
(0.00458152 0.00282999 4.47173e-18)
(0.00459214 0.00265145 2.4016e-18)
(0.00460169 0.00247404 -1.04911e-18)
(0.00461021 0.0022977 -2.89989e-18)
(0.00461773 0.00212238 1.45998e-19)
(0.00462428 0.00194805 3.13721e-18)
(0.0046299 0.0017747 4.13444e-19)
(0.00463467 0.00160228 -2.53558e-18)
(0.00463864 0.00143077 1.66593e-18)
(0.0046419 0.00126013 2.79544e-18)
(0.00464453 0.0010903 2.22694e-19)
(0.0046466 0.000921205 9.57797e-19)
(0.00464819 0.000752767 -4.44958e-19)
(0.00464937 0.000584885 -2.30121e-18)
(0.0046502 0.00041745 9.28116e-19)
(0.00465073 0.000250342 5.63809e-18)
(0.00465099 8.34324e-05 5.99798e-18)
(0.00465099 -8.34101e-05 1.09282e-18)
(0.00465074 -0.00025032 -4.97763e-19)
(0.00465021 -0.000417429 4.63609e-18)
(0.00464938 -0.000584864 9.38801e-18)
(0.0046482 -0.000752745 1.13635e-17)
(0.00464661 -0.000921183 1.04647e-17)
(0.00464455 -0.00109028 7.60103e-18)
(0.00464192 -0.00126011 4.63714e-18)
(0.00463867 -0.00143075 4.12372e-18)
(0.0046347 -0.00160226 5.07239e-18)
(0.00462993 -0.00177467 2.0649e-18)
(0.00462431 -0.00194803 3.58947e-19)
(0.00461776 -0.00212236 4.25766e-18)
(0.00461025 -0.00229768 5.18293e-18)
(0.00460173 -0.00247403 2.02666e-18)
(0.00459218 -0.00265144 -3.7762e-18)
(0.00458156 -0.00282998 -8.50256e-18)
(0.00456983 -0.00300972 -6.71163e-18)
(0.00455692 -0.00319073 -3.89522e-18)
(0.00454272 -0.00337309 -6.72904e-18)
(0.00452711 -0.00355685 -1.13554e-17)
(0.0045099 -0.00374202 -1.38348e-17)
(0.00449096 -0.00392856 -1.40116e-17)
(0.00446615 -0.00412065 -1.57778e-17)
(0.00547971 -0.00327273 -2.2342e-17)
(0.00562183 0.00343369 4.96126e-18)
(0.00462504 0.0042649 5.92386e-18)
(0.00465443 0.004068 8.20579e-18)
(0.004678 0.00387624 9.92789e-18)
(0.00469963 0.00368567 1.16166e-17)
(0.00471945 0.00349635 1.22864e-17)
(0.00473762 0.00330827 1.09708e-17)
(0.00475426 0.00312143 6.9939e-18)
(0.00476946 0.00293576 3.63018e-18)
(0.00478333 0.00275122 1.7326e-18)
(0.00479592 0.00256776 -7.56469e-19)
(0.00480727 0.00238531 -1.33212e-18)
(0.00481743 0.00220384 1.04856e-18)
(0.00482644 0.00202332 1.53226e-18)
(0.00483436 0.00184371 -1.07582e-18)
(0.00484124 0.00166498 -1.98228e-18)
(0.00484715 0.0014871 1.84261e-18)
(0.00485216 0.00131002 1.68355e-18)
(0.00485633 0.00113369 -2.60138e-19)
(0.00485975 0.000958032 5.07469e-19)
(0.00486248 0.000782979 -5.26332e-19)
(0.00486458 0.000608435 -1.58474e-18)
(0.0048661 0.000434299 1.18684e-18)
(0.0048671 0.000260462 4.97088e-18)
(0.00486759 8.68066e-05 4.72271e-18)
(0.00486759 -8.67875e-05 2.76478e-19)
(0.0048671 -0.000260443 -1.11878e-19)
(0.00486611 -0.00043428 5.53174e-18)
(0.00486459 -0.000608416 9.05053e-18)
(0.00486249 -0.000782959 1.13185e-17)
(0.00485977 -0.000958013 1.19157e-17)
(0.00485635 -0.00113367 8.62423e-18)
(0.00485218 -0.00131 5.13898e-18)
(0.00484718 -0.00148708 3.76153e-18)
(0.00484127 -0.00166496 4.00061e-18)
(0.0048344 -0.00184369 6.41854e-19)
(0.00482648 -0.0020233 -1.35453e-19)
(0.00481747 -0.00220383 5.20656e-18)
(0.00480731 -0.0023853 5.00133e-18)
(0.00479596 -0.00256774 3.41306e-19)
(0.00478338 -0.00275121 -3.44223e-18)
(0.00476951 -0.00293575 -8.04902e-18)
(0.0047543 -0.00312142 -7.86731e-18)
(0.00473767 -0.00330827 -3.99557e-18)
(0.0047195 -0.00349634 -6.55411e-18)
(0.00469967 -0.00368567 -1.14888e-17)
(0.00467804 -0.00387625 -1.37989e-17)
(0.00465447 -0.00406801 -1.32303e-17)
(0.00462508 -0.00426492 -1.46007e-17)
(0.00562188 -0.0034337 -1.74574e-17)
(0.0057642 0.00359431 9.15366e-18)
(0.00478381 0.00440907 6.10942e-18)
(0.00481771 0.0042073 7.43037e-18)
(0.00484583 0.0040103 9.94209e-18)
(0.00487182 0.00381434 1.19114e-17)
(0.0048958 0.00361946 1.11082e-17)
(0.0049179 0.0034257 8.4743e-18)
(0.00493825 0.00323304 5.00179e-18)
(0.00495694 0.00304147 2.85593e-18)
(0.00497406 0.00285095 1.75477e-18)
(0.00498969 0.00266143 8.72309e-19)
(0.00500388 0.00247287 1.17904e-18)
(0.00501668 0.00228525 1.17107e-18)
(0.00502816 0.00209851 -1.29641e-18)
(0.00503835 0.00191263 -2.71966e-18)
(0.00504733 0.00172757 -7.61592e-19)
(0.00505514 0.0015433 2.46051e-18)
(0.00506187 0.00135978 9.22363e-19)
(0.00506756 0.00117695 -5.5743e-19)
(0.0050723 0.000994739 6.61283e-19)
(0.00507614 0.000813084 -2.45463e-19)
(0.00507913 0.000631896 -7.26424e-19)
(0.00508134 0.000451082 1.48381e-18)
(0.00508278 0.000270541 3.82306e-18)
(0.0050835 9.01665e-05 2.83467e-18)
(0.00508351 -9.01518e-05 -7.34255e-20)
(0.00508279 -0.000270525 1.57782e-18)
(0.00508135 -0.000451066 6.78314e-18)
(0.00507915 -0.000631879 8.48182e-18)
(0.00507616 -0.000813067 1.06187e-17)
(0.00507232 -0.000994722 1.15798e-17)
(0.00506759 -0.00117693 8.30599e-18)
(0.0050619 -0.00135976 5.67409e-18)
(0.00505518 -0.00154329 3.80372e-18)
(0.00504736 -0.00172756 3.17237e-18)
(0.00503839 -0.00191261 2.25989e-19)
(0.0050282 -0.00209849 -1.3636e-19)
(0.00501673 -0.00228523 4.67316e-18)
(0.00500392 -0.00247286 3.50226e-18)
(0.00498973 -0.00266142 -1.2121e-18)
(0.00497411 -0.00285094 -3.11993e-18)
(0.00495699 -0.00304147 -7.04632e-18)
(0.0049383 -0.00323304 -8.67054e-18)
(0.00491796 -0.00342569 -5.54475e-18)
(0.00489585 -0.00361946 -7.32625e-18)
(0.00487187 -0.00381434 -1.14882e-17)
(0.00484588 -0.00401031 -1.30133e-17)
(0.00481776 -0.00420731 -1.1752e-17)
(0.00478385 -0.00440908 -1.2278e-17)
(0.00576425 -0.00359433 -1.01848e-17)
(0.0059069 0.00375471 1.40146e-17)
(0.00494256 0.00455325 5.46374e-18)
(0.00498093 0.00434657 6.92978e-18)
(0.00501352 0.00414431 9.93992e-18)
(0.00504381 0.00394293 1.20812e-17)
(0.0050719 0.00374251 1.01302e-17)
(0.0050979 0.00354307 6.80366e-18)
(0.00512193 0.00334462 3.94341e-18)
(0.00514408 0.00314715 1.20746e-18)
(0.00516446 0.00295065 4.62849e-19)
(0.00518312 0.00275508 1.40902e-18)
(0.00520015 0.00256041 2.94351e-18)
(0.0052156 0.0023666 7.14464e-19)
(0.00522952 0.00217364 -3.82905e-18)
(0.00524198 0.00198147 -3.95912e-18)
(0.00525303 0.00179008 9.79266e-20)
(0.00526273 0.00159942 2.63184e-18)
(0.00527115 0.00140945 8.39646e-19)
(0.00527834 0.00122011 4.00881e-19)
(0.00528437 0.00103136 1.43659e-18)
(0.0052893 0.000843107 -1.80697e-20)
(0.00529317 0.000655288 -2.21551e-19)
(0.00529604 0.000467814 2.43073e-18)
(0.00529793 0.000280589 3.7021e-18)
(0.00529887 9.35159e-05 1.14931e-18)
(0.00529887 -9.3505e-05 -6.90294e-19)
(0.00529794 -0.000280577 2.7968e-18)
(0.00529605 -0.000467801 7.31652e-18)
(0.00529319 -0.000655275 8.30953e-18)
(0.00528932 -0.000843093 1.10043e-17)
(0.0052844 -0.00103134 1.17556e-17)
(0.00527837 -0.0012201 8.73326e-18)
(0.00527118 -0.00140943 6.62438e-18)
(0.00526277 -0.0015994 3.71851e-18)
(0.00525307 -0.00179007 2.19692e-18)
(0.00524202 -0.00198146 7.7149e-19)
(0.00522957 -0.00217363 4.72019e-19)
(0.00521565 -0.00236659 3.02647e-18)
(0.0052002 -0.0025604 3.66787e-19)
(0.00518318 -0.00275507 -3.50471e-18)
(0.00516451 -0.00295064 -3.51368e-18)
(0.00514414 -0.00314715 -5.64448e-18)
(0.00512198 -0.00334461 -7.79311e-18)
(0.00509796 -0.00354306 -6.93061e-18)
(0.00507195 -0.00374251 -8.62693e-18)