/*--------------------------------*- C++ -*----------------------------------*\
  =========                 |
  \\      /  F ield         | OpenFOAM: The Open Source CFD Toolbox
   \\    /   O peration     | Website:  https://openfoam.org
    \\  /    A nd           | Version:  7
     \\/     M anipulation  |
\*---------------------------------------------------------------------------*/
FoamFile
{
    version     2.0;
    format      ascii;
    class       volVectorField;
    location    "36000";
    object      U;
}
// * * * * * * * * * * * * * * * * * * * * * * * * * * * * * * * * * * * * * //

dimensions      [0 1 -1 0 0 0 0];

internalField   nonuniform List<vector> 
1762
(
(-1.30634e-18 8.20722e-19 -0.0168413)
(-1.63366e-18 8.52019e-19 -0.0168366)
(-1.71439e-18 9.77391e-19 -0.0168308)
(-1.70168e-18 8.23473e-19 -0.0168239)
(-1.14173e-18 2.2526e-19 -0.0168157)
(-7.68998e-19 -1.45105e-19 -0.0168063)
(-1.11368e-18 -5.07078e-19 -0.0167956)
(-1.01615e-18 -6.27815e-19 -0.0167834)
(-1.1022e-18 -3.85349e-19 -0.0167698)
(-9.8813e-19 2.50742e-20 -0.0167547)
(-5.99012e-19 1.73967e-19 -0.0167375)
(-1.05686e-18 -5.0249e-19 -0.0168202)
(-1.64584e-18 -4.63241e-19 -0.0168148)
(-1.65311e-18 -1.80901e-19 -0.0168083)
(-1.83399e-18 3.82902e-20 -0.0168005)
(-1.27374e-18 5.15972e-21 -0.0167914)
(-9.63872e-19 -1.35032e-19 -0.0167809)
(-1.13231e-18 1.07664e-19 -0.0167691)
(-9.90884e-19 2.43126e-19 -0.0167559)
(-8.6012e-19 -8.95118e-20 -0.0167412)
(-3.11892e-19 -3.93786e-19 -0.0167254)
(6.37278e-20 -4.73773e-19 -0.016708)
(-1.21647e-18 -5.35801e-19 -0.0167961)
(-1.47433e-18 2.81714e-19 -0.0167901)
(-1.22676e-18 2.00272e-19 -0.0167828)
(-1.30037e-18 -2.64957e-19 -0.0167741)
(-7.43422e-19 -2.59819e-19 -0.0167641)
(-3.05106e-19 1.33477e-19 -0.0167527)
(-4.89653e-19 5.28415e-19 -0.0167399)
(-8.17412e-19 9.28387e-19 -0.0167257)
(-1.02586e-18 8.75455e-19 -0.0167102)
(-4.18097e-19 3.49364e-19 -0.0166934)
(-1.14752e-19 -2.85732e-19 -0.0166747)
(-9.4323e-20 -2.97974e-19 -0.0167691)
(-8.044e-19 5.42336e-19 -0.0167625)
(-2.14264e-18 9.54323e-19 -0.0167545)
(-1.9984e-18 7.32049e-19 -0.016745)
(-1.60798e-19 3.20434e-19 -0.0167342)
(2.13237e-19 4.21471e-19 -0.0167219)
(-4.91348e-19 5.20688e-19 -0.0167082)
(-8.91207e-19 6.50599e-19 -0.016693)
(-9.48242e-19 6.53123e-19 -0.0166765)
(-4.23036e-19 2.61452e-19 -0.0166586)
(-4.00886e-19 -7.57654e-20 -0.0166387)
(-2.9342e-19 -6.45176e-19 -0.0167393)
(-8.61658e-19 -4.25748e-19 -0.0167321)
(-1.60089e-18 -9.45159e-20 -0.0167235)
(-1.14435e-18 6.07838e-19 -0.0167133)
(8.27398e-20 2.20003e-19 -0.0167017)
(-1.5249e-19 -2.59668e-19 -0.0166886)
(-8.05247e-19 3.19604e-20 -0.0166739)
(-9.83363e-19 2.39906e-19 -0.0166578)
(-1.00563e-18 6.0903e-19 -0.0166403)
(-4.32625e-19 5.39061e-19 -0.0166213)
(-5.73877e-19 2.14658e-19 -0.0166002)
(1.17656e-20 -3.52145e-19 -0.0167068)
(-6.16773e-19 2.57705e-19 -0.0166991)
(-1.44605e-18 1.7407e-19 -0.0166899)
(-1.21094e-18 1.61997e-19 -0.0166791)
(-4.45869e-19 -1.51616e-19 -0.0166667)
(-4.06319e-19 -1.21717e-18 -0.0166528)
(-5.88671e-19 -8.45029e-19 -0.0166373)
(-6.2202e-19 -1.79158e-19 -0.0166203)
(-3.38446e-19 5.27811e-19 -0.0166017)
(-6.75837e-20 1.21701e-18 -0.0165817)
(-9.80692e-19 8.34886e-19 -0.0165595)
(4.27222e-19 1.24796e-20 -0.0166719)
(-6.35101e-19 4.17739e-19 -0.0166637)
(-1.89866e-18 5.50236e-19 -0.0166539)
(-1.13905e-18 6.17768e-19 -0.0166424)
(-6.06635e-19 5.26798e-19 -0.0166293)
(-5.87014e-19 -2.4773e-19 -0.0166146)
(-1.41587e-20 -5.69619e-19 -0.0165983)
(3.26675e-19 1.08421e-19 -0.0165804)
(4.0652e-19 5.89776e-19 -0.0165609)
(-3.80896e-19 9.22705e-19 -0.0165398)
(-1.62273e-18 1.3261e-18 -0.0165166)
(4.21769e-19 -1.18586e-19 -0.0166345)
(-8.24815e-19 -6.63395e-19 -0.0166259)
(-1.55237e-18 2.43071e-19 -0.0166155)
(-8.16543e-19 8.49622e-19 -0.0166035)
(-8.0299e-19 4.0805e-19 -0.0165897)
(-4.84672e-19 6.62156e-19 -0.0165742)
(5.24294e-19 2.05124e-19 -0.0165571)
(8.19981e-19 4.7961e-19 -0.0165384)
(-5.91476e-20 3.06918e-19 -0.016518)
(-9.0509e-19 3.09861e-19 -0.016496)
(-1.61436e-18 1.41027e-18 -0.0164718)
(-4.42856e-19 -1.36159e-19 -0.0165949)
(-9.72197e-19 -1.26246e-18 -0.0165858)
(-8.97697e-19 -1.62281e-20 -0.016575)
(-8.80104e-19 6.17807e-19 -0.0165623)
(-6.13268e-19 6.06351e-19 -0.0165479)
(1.12043e-20 3.06346e-19 -0.0165318)
(5.47631e-19 -7.93005e-19 -0.0165139)
(2.94895e-19 -1.39015e-19 -0.0164943)
(-7.06945e-19 -4.26117e-19 -0.0164731)
(-7.86661e-19 -6.01155e-20 -0.0164502)
(-1.55245e-18 1.76922e-18 -0.0164252)
(-1.23676e-18 1.3576e-19 -0.0165531)
(-8.09927e-19 -5.15281e-19 -0.0165437)
(-2.75119e-19 -1.36783e-19 -0.0165323)
(-4.31513e-19 4.02455e-19 -0.0165191)
(-3.92156e-19 1.88422e-18 -0.0165041)
(-8.76491e-19 4.8856e-19 -0.0164873)
(2.54096e-19 -1.13065e-18 -0.0164687)
(1.79921e-19 -1.4657e-18 -0.0164484)
(-7.27856e-19 -9.0225e-19 -0.0164264)
(-2.13985e-19 -4.3821e-19 -0.0164027)
(-1.52942e-18 1.50345e-18 -0.0163768)
(-1.46341e-18 3.48038e-19 -0.0165094)
(-6.24333e-19 1.18194e-18 -0.0164995)
(-2.04752e-19 -3.5785e-20 -0.0164877)
(1.63962e-19 -6.48321e-19 -0.016474)
(-7.71567e-19 3.23529e-19 -0.0164584)
(-1.55114e-18 4.32137e-19 -0.016441)
(3.74592e-19 6.70737e-19 -0.0164217)
(-2.86253e-20 -1.18286e-18 -0.0164006)
(-1.64001e-19 -9.01792e-19 -0.0163779)
(2.33036e-19 -5.30981e-19 -0.0163534)
(-1.71565e-18 7.37172e-19 -0.0163268)
(-9.00333e-19 -1.91806e-19 -0.0164636)
(-5.69626e-19 1.27018e-18 -0.0164534)
(-1.24606e-18 1.14592e-19 -0.0164412)
(-6.7253e-19 -1.25876e-18 -0.016427)
(-1.08231e-18 -1.85515e-18 -0.0164109)
(-4.12974e-19 -3.88779e-19 -0.0163928)
(6.66663e-19 1.10195e-18 -0.0163729)
(-3.19725e-19 -2.18556e-19 -0.0163512)
(7.69705e-20 -8.50309e-19 -0.0163277)
(-8.18036e-22 -1.07073e-18 -0.0163026)
(-1.71408e-18 9.92782e-20 -0.0162753)
(-5.9106e-19 -1.10524e-18 -0.0164161)
(-7.93034e-19 -6.16026e-19 -0.0164055)
(-2.03077e-18 -9.05163e-19 -0.0163929)
(-1.1293e-18 -1.10696e-18 -0.0163782)
(-6.57956e-19 -1.80488e-18 -0.0163616)
(6.13082e-19 -6.45879e-19 -0.016343)
(3.2658e-19 -5.74742e-19 -0.0163225)
(-6.68586e-19 1.22583e-19 -0.0163002)
(6.32784e-20 -2.21194e-19 -0.0162761)
(-1.80258e-19 -1.48e-18 -0.0162502)
(-1.20249e-18 2.57073e-20 -0.0162222)
(-7.66242e-19 -1.08709e-18 -0.0163668)
(-1.16474e-18 -1.72085e-18 -0.0163559)
(-2.03079e-18 -1.69385e-18 -0.0163429)
(-7.80169e-19 -6.67479e-19 -0.0163278)
(-8.59604e-20 -1.04921e-18 -0.0163107)
(7.34129e-19 -5.65222e-19 -0.0162916)
(-4.71629e-20 -1.81253e-18 -0.0162705)
(3.98261e-20 -1.58021e-21 -0.0162476)
(3.33236e-19 7.9242e-19 -0.0162229)
(-2.20497e-19 -1.17342e-18 -0.0161964)
(-7.60044e-19 2.20947e-19 -0.0161678)
(-1.31249e-18 -6.43493e-19 -0.0163047)
(-1.36632e-18 -6.76246e-19 -0.0162914)
(7.54359e-21 4.48399e-19 -0.0162759)
(3.78657e-19 1.48502e-19 -0.0162583)
(4.45538e-19 -5.9365e-19 -0.0162387)
(3.9642e-19 -1.3477e-18 -0.0162171)
(1.0545e-18 2.63172e-19 -0.0161936)
(1.0041e-19 1.01019e-18 -0.0161683)
(-2.53121e-19 -4.87722e-19 -0.0161412)
(-7.88696e-19 -1.39811e-19 -0.016112)
(-6.78316e-19 9.64008e-19 -0.0162383)
(5.78637e-19 1.60044e-18 -0.0162224)
(2.17675e-19 1.33201e-18 -0.0162044)
(4.18227e-19 1.90485e-19 -0.0161843)
(1.38974e-18 -1.70363e-19 -0.0161622)
(1.46051e-18 3.8385e-19 -0.0161382)
(-5.27311e-19 3.38799e-19 -0.0161124)
(-4.20123e-19 -3.55852e-20 -0.0160848)
(-9.84316e-19 -5.86109e-19 -0.016055)
(-1.26216e-19 2.177e-18 -0.0161837)
(7.56587e-19 2.00037e-18 -0.0161675)
(1.45397e-19 1.79965e-18 -0.0161491)
(8.51504e-19 1.48605e-18 -0.0161286)
(1.71486e-18 5.49313e-19 -0.016106)
(8.57231e-19 1.27433e-19 -0.0160815)
(-1.11038e-18 -1.32179e-19 -0.0160552)
(-5.98539e-19 -1.74873e-19 -0.016027)
(-9.94523e-19 -6.68959e-19 -0.0159968)
(1.83263e-19 2.48873e-18 -0.0161278)
(6.0518e-19 2.18761e-18 -0.0161112)
(2.73032e-20 1.37449e-18 -0.0160924)
(8.12955e-19 1.58218e-18 -0.0160715)
(1.16995e-18 3.48841e-19 -0.0160485)
(3.59217e-19 1.03569e-19 -0.0160236)
(-1.00505e-18 4.42935e-19 -0.0159967)
(-7.44895e-19 -4.09337e-19 -0.0159681)
(-9.76034e-19 -5.59962e-19 -0.0159374)
(4.41309e-19 2.36767e-18 -0.0160706)
(2.63435e-19 2.15417e-18 -0.0160536)
(-3.12897e-19 9.60281e-19 -0.0160345)
(5.07805e-19 7.71489e-19 -0.0160132)
(7.82943e-19 -2.9039e-19 -0.0159898)
(2.99426e-19 -6.62194e-20 -0.0159644)
(-8.12739e-19 1.58798e-18 -0.0159371)
(-9.96297e-19 -2.48753e-19 -0.0159081)
(-1.01307e-18 -4.75164e-19 -0.0158768)
(3.92195e-19 2.21598e-18 -0.0160121)
(-2.78105e-19 1.66696e-18 -0.0159948)
(-4.82773e-19 1.39081e-18 -0.0159754)
(1.876e-19 3.71574e-19 -0.0159537)
(4.62761e-19 -8.11546e-19 -0.0159299)
(1.98095e-19 -1.20355e-18 -0.0159041)
(-9.1879e-19 1.60246e-18 -0.0158764)
(-1.1389e-18 4.73846e-19 -0.0158469)
(-9.27068e-19 1.69593e-20 -0.0158152)
(2.28096e-19 1.77901e-18 -0.0159523)
(-7.03638e-19 4.71439e-19 -0.0159349)
(-5.58259e-19 1.53035e-18 -0.0159151)
(-3.22033e-19 1.95289e-19 -0.015893)
(-4.05075e-21 -1.05661e-18 -0.0158689)
(1.53167e-19 -1.93048e-18 -0.0158427)
(-1.07597e-18 5.94929e-19 -0.0158146)
(-1.00926e-18 9.02443e-19 -0.0157847)
(-9.16618e-19 4.48666e-19 -0.0157526)
(-1.07244e-18 -4.02758e-19 -0.0158737)
(-5.83126e-19 1.12691e-18 -0.0158536)
(-6.68955e-19 3.57331e-19 -0.0158313)
(-1.19167e-19 -8.06101e-19 -0.0158068)
(5.9888e-19 -1.37694e-18 -0.0157802)
(-8.33466e-19 3.17508e-19 -0.0157517)
(-9.54962e-19 8.79505e-19 -0.0157214)
(-1.1528e-18 4.77182e-19 -0.015689)
(-1.28831e-18 -4.25339e-19 -0.0158115)
(-3.24387e-19 1.01941e-18 -0.0157911)
(-8.91434e-19 3.09105e-19 -0.0157684)
(-3.18385e-20 -5.0983e-19 -0.0157436)
(1.02237e-18 -8.49412e-19 -0.0157167)
(-7.36913e-19 4.31581e-19 -0.0156879)
(-1.204e-18 6.53414e-19 -0.0156572)
(-1.57576e-18 1.01608e-19 -0.0156245)
(9.64954e-19 -1.06615e-18 -0.0161221)
(5.19095e-19 -1.49709e-18 -0.0160646)
(8.07689e-20 -5.46668e-19 -0.0160058)
(-2.60039e-19 8.97818e-20 -0.0159458)
(-4.44986e-19 -2.73807e-19 -0.0158846)
(-6.13574e-19 2.17989e-19 -0.0158223)
(-5.84133e-19 9.51541e-19 -0.0157589)
(-8.4156e-19 1.1179e-18 -0.0156945)
(-1.0608e-18 1.21398e-18 -0.0156291)
(-1.31358e-18 1.3403e-18 -0.0155627)
(-1.54879e-18 1.51712e-18 -0.0154953)
(1.29455e-18 -1.00984e-19 -0.0166112)
(1.46008e-18 -9.32913e-19 -0.0165702)
(1.21697e-18 -1.4753e-18 -0.0165272)
(5.24656e-19 -2.51624e-18 -0.0164821)
(2.6843e-19 -3.57053e-18 -0.0164352)
(7.6945e-20 -2.63854e-18 -0.0163865)
(2.82736e-19 -1.28449e-18 -0.0163362)
(-2.64156e-19 -1.24345e-18 -0.0162843)
(-8.24994e-19 -1.40673e-18 -0.0162308)
(-1.02409e-18 -5.61624e-19 -0.0161759)
(-1.02931e-18 -1.04392e-20 -0.0161196)
(-1.11454e-18 -3.0625e-19 -0.016062)
(-1.39848e-18 -2.30696e-19 -0.0160032)
(-1.3693e-18 8.61238e-20 -0.0159432)
(-1.44747e-18 3.32142e-19 -0.0158819)
(-1.56938e-18 6.96117e-19 -0.0158196)
(-1.50017e-18 1.3681e-18 -0.0157562)
(-1.56647e-18 1.49173e-18 -0.0156918)
(-1.79291e-18 1.12318e-18 -0.0156263)
(-1.94086e-18 8.7721e-19 -0.0155599)
(-1.84874e-18 7.64719e-20 -0.0154925)
(-1.48476e-19 -1.24546e-18 -0.0167783)
(-1.21042e-20 -8.65122e-19 -0.0167493)
(4.62203e-19 -6.04663e-19 -0.0167176)
(2.42832e-19 -8.50231e-19 -0.0166833)
(-1.51523e-19 -4.36603e-19 -0.0166466)
(-1.93302e-19 -8.01711e-21 -0.0166076)
(-3.09792e-19 -1.0592e-18 -0.0165664)
(-7.30324e-19 -1.02416e-18 -0.0165232)
(-8.84031e-19 -9.3106e-19 -0.016478)
(-1.05489e-18 -1.5278e-18 -0.016431)
(-1.27994e-18 -1.86454e-18 -0.0163821)
(-9.58298e-19 -1.8501e-18 -0.0163317)
(-9.09088e-19 -1.40614e-18 -0.0162796)
(-1.24764e-18 -1.63475e-18 -0.016226)
(-1.41963e-18 -1.39561e-18 -0.016171)
(-1.21303e-18 -1.0414e-18 -0.0161147)
(-1.03781e-18 -7.20214e-19 -0.016057)
(-1.30071e-18 -1.10535e-19 -0.0159981)
(-1.69235e-18 4.07243e-20 -0.0159379)
(-1.99951e-18 4.55178e-20 -0.0158766)
(-2.16104e-18 8.45013e-20 -0.0158142)
(-2.27817e-18 7.43162e-19 -0.0157508)
(-2.41888e-18 1.93984e-18 -0.0156862)
(-2.53728e-18 2.35117e-18 -0.0156207)
(-2.26097e-18 1.63107e-18 -0.0155542)
(-2.09247e-18 8.18252e-19 -0.0154868)
(-8.71906e-19 -1.62011e-18 -0.0167743)
(-8.14923e-19 -1.10161e-18 -0.016745)
(-7.69246e-19 -5.35451e-19 -0.016713)
(-1.09759e-18 -1.87178e-19 -0.0166784)
(-1.46778e-18 -3.27477e-19 -0.0166414)
(-1.12625e-18 -9.64518e-20 -0.0166022)
(-8.79248e-19 -3.00059e-19 -0.0165607)
(-1.07546e-18 -8.70558e-19 -0.0165173)
(-6.09727e-19 -2.02113e-18 -0.0164718)
(-2.76025e-19 -2.77045e-18 -0.0164246)
(1.96747e-19 -2.61759e-18 -0.0163756)
(6.42621e-20 -1.8433e-18 -0.0163249)
(-2.14586e-19 -5.22278e-19 -0.0162727)
(-5.49118e-19 -2.29535e-19 -0.0162189)
(-4.7108e-19 -5.53807e-19 -0.0161638)
(-5.55154e-19 -7.73177e-19 -0.0161073)
(-1.07277e-18 -1.57387e-19 -0.0160494)
(-1.67764e-18 1.19819e-18 -0.0159904)
(-2.07467e-18 1.7105e-18 -0.0159301)
(-2.01949e-18 1.42972e-18 -0.0158687)
(-2.00253e-18 1.14243e-18 -0.0158062)
(-2.1881e-18 1.40534e-18 -0.0157426)
(-2.11327e-18 1.62149e-18 -0.015678)
(-1.45701e-18 6.76918e-19 -0.0156124)
(-9.87789e-19 1.28761e-20 -0.0155458)
(-9.10255e-19 3.18414e-19 -0.0154782)
(-1.45858e-18 -6.32803e-19 -0.0168413)
(-9.28113e-19 -2.51074e-18 -0.0168202)
(-5.90169e-19 -2.68992e-18 -0.0167961)
(-1.78251e-18 -1.58562e-18 -0.0167691)
(-1.57964e-18 -1.26584e-18 -0.0167393)
(-1.87968e-18 -7.60126e-19 -0.0167068)
(-1.98327e-18 -4.87734e-19 -0.0166719)
(-1.89378e-18 -8.04558e-19 -0.0166345)
(-1.0878e-18 -9.72702e-19 -0.0165949)
(-5.76278e-19 -1.01954e-18 -0.0165531)
(-5.21999e-19 -1.0733e-18 -0.0165094)
(-8.61205e-19 -1.75434e-18 -0.0164636)
(-1.28983e-18 -2.69369e-18 -0.0164161)
(-1.376e-18 -2.49691e-18 -0.0163668)
(-1.49514e-18 -1.46381e-18 -0.0163159)
(-1.7606e-18 -5.65555e-19 -0.0162634)
(-1.80646e-18 -1.10034e-18 -0.0162095)
(-1.98545e-18 -1.2418e-18 -0.0161541)
(-2.35898e-18 6.53507e-20 -0.0160974)
(-2.81056e-18 9.93618e-19 -0.0160394)
(-2.70055e-18 1.4519e-18 -0.0159802)
(-2.09019e-18 6.98296e-19 -0.0159197)
(-1.62935e-18 7.33562e-20 -0.0158582)
(-1.49379e-18 5.92281e-19 -0.0157955)
(-1.41694e-18 9.07717e-19 -0.0157318)
(-1.06246e-18 2.69215e-19 -0.015667)
(-8.20302e-19 -4.1206e-20 -0.0156013)
(-1.03255e-18 3.27943e-19 -0.0155346)
(-1.0992e-18 8.37532e-19 -0.0154669)
(-6.47984e-19 -1.17308e-18 -0.0168366)
(-1.59183e-19 -2.68119e-18 -0.0168148)
(-6.94888e-19 -1.82625e-18 -0.0167901)
(-1.5633e-18 -8.89891e-19 -0.0167625)
(-1.36962e-18 -1.22334e-18 -0.0167321)
(-1.37676e-18 -3.56359e-19 -0.0166991)
(-1.13446e-18 -2.11177e-19 -0.0166637)
(-8.44706e-19 -1.2883e-18 -0.0166259)
(-6.89996e-19 -1.64257e-18 -0.0165858)
(-8.63965e-19 -9.50158e-19 -0.0165437)
(-9.68674e-19 -1.51543e-19 -0.0164995)
(-9.30595e-19 -4.38088e-19 -0.0164534)
(-8.78096e-19 -1.84922e-18 -0.0164055)
(-9.34288e-19 -2.77691e-18 -0.0163559)
(-9.11945e-19 -1.82344e-18 -0.0163047)
(-1.22122e-18 -2.11011e-19 -0.016252)
(-1.48253e-18 2.30267e-19 -0.0161977)
(-2.1788e-18 -2.42423e-19 -0.0161421)
(-2.38075e-18 -2.53987e-19 -0.0160852)
(-2.32529e-18 -3.36871e-19 -0.0160269)
(-1.92761e-18 -5.79617e-19 -0.0159675)
(-1.78573e-18 -3.78639e-19 -0.0159068)
(-1.97362e-18 -1.21782e-19 -0.0158451)
(-1.87863e-18 1.69793e-19 -0.0157822)
(-1.76253e-18 4.42601e-19 -0.0157183)
(-1.62005e-18 5.2522e-19 -0.0156534)
(-1.65665e-18 5.88913e-19 -0.0155875)
(-1.63715e-18 2.75441e-19 -0.0155207)
(-1.50423e-18 -5.85882e-19 -0.0154529)
(-4.17768e-20 -1.27862e-18 -0.0168308)
(-2.64434e-19 -2.14029e-18 -0.0168083)
(-1.06552e-18 -1.55337e-18 -0.0167828)
(-6.26866e-19 -5.48874e-19 -0.0167545)
(-7.0278e-19 -1.19541e-18 -0.0167235)
(-5.62207e-19 -7.14469e-19 -0.0166899)
(1.11114e-19 -2.95136e-19 -0.0166539)
(-7.74629e-20 -5.61264e-19 -0.0166155)
(-6.18301e-19 -7.72972e-19 -0.016575)
(-9.57472e-19 -9.21717e-19 -0.0165323)
(-8.51859e-19 -1.0652e-18 -0.0164877)
(-9.70493e-20 -1.13729e-18 -0.0164412)
(4.017e-19 -1.50282e-18 -0.0163929)
(1.37999e-19 -2.02595e-18 -0.0163429)
(-5.38072e-19 -1.49997e-18 -0.0162914)
(-1.21896e-18 -2.66819e-20 -0.0162383)
(-1.62472e-18 9.45922e-19 -0.0161837)
(-1.85247e-18 8.28702e-19 -0.0161278)
(-2.03968e-18 4.32892e-19 -0.0160706)
(-2.04503e-18 1.80586e-19 -0.0160121)
(-2.04596e-18 2.55671e-19 -0.0159523)
(-1.92073e-18 5.62676e-19 -0.0158915)
(-1.37228e-18 7.89625e-21 -0.0158295)
(-9.57649e-19 -1.85486e-19 -0.0157664)
(-8.96895e-19 1.10891e-19 -0.0157023)
(-7.20962e-19 2.66989e-20 -0.0156372)
(-8.02621e-19 2.77549e-19 -0.0155712)
(-9.15207e-19 8.16873e-19 -0.0155041)
(-8.82949e-19 8.27914e-19 -0.0154362)
(-2.81288e-19 -1.44649e-18 -0.0168239)
(-4.55801e-19 -1.68507e-18 -0.0168005)
(-1.26546e-18 -1.52394e-18 -0.0167741)
(-4.2829e-19 -6.17542e-19 -0.016745)
(-9.91126e-19 -8.78694e-19 -0.0167133)
(-7.57873e-19 -9.45921e-19 -0.0166791)
(-7.08675e-19 -4.14536e-19 -0.0166424)
(-9.26143e-19 -9.31509e-20 -0.0166035)
(-9.05207e-19 -3.11209e-19 -0.0165623)
(-1.26374e-18 -6.07012e-19 -0.0165191)
(-1.66801e-18 -1.61643e-18 -0.016474)
(-1.10124e-18 -2.26763e-18 -0.016427)
(-8.32489e-19 -1.79179e-18 -0.0163782)
(-9.64357e-19 -1.02835e-18 -0.0163278)
(-1.65246e-18 -2.98715e-19 -0.0162759)
(-2.05971e-18 6.08938e-19 -0.0162224)
(-2.34311e-18 8.71078e-19 -0.0161675)
(-2.39654e-18 7.91797e-19 -0.0161112)
(-2.28397e-18 4.73875e-19 -0.0160536)
(-1.98192e-18 -1.97785e-19 -0.0159948)
(-1.78371e-18 -1.16167e-18 -0.0159348)
(-1.51452e-18 -1.89851e-18 -0.0158737)
(-1.4234e-18 -2.00653e-18 -0.0158115)
(-1.85351e-18 -1.189e-18 -0.0157482)
(-2.05788e-18 -4.57376e-19 -0.0156839)
(-2.05773e-18 4.7418e-20 -0.0156185)
(-2.30967e-18 3.76286e-19 -0.0155523)
(-2.29044e-18 -9.24622e-20 -0.015485)
(-2.01778e-18 -5.24307e-19 -0.0154169)
(-1.1494e-18 -1.75458e-18 -0.0168157)
(-1.27843e-18 -1.43635e-18 -0.0167914)
(-1.7693e-18 -1.70987e-18 -0.0167641)
(-1.78546e-18 -1.07261e-18 -0.0167342)
(-2.23291e-18 -1.20623e-18 -0.0167017)
(-1.71967e-18 -1.37825e-18 -0.0166667)
(-1.60609e-18 -7.12273e-19 -0.0166293)
(-1.50928e-18 -7.10706e-19 -0.0165897)
(-1.8057e-18 -5.33874e-19 -0.0165479)
(-1.94639e-18 2.44199e-19 -0.0165041)
(-1.50559e-18 -1.06546e-18 -0.0164584)
(-1.15276e-18 -2.85363e-18 -0.0164109)
(-1.40891e-18 -2.91636e-18 -0.0163616)
(-1.7379e-18 -1.87246e-18 -0.0163107)
(-2.10016e-18 -8.14215e-19 -0.0162583)
(-2.11979e-18 4.1436e-19 -0.0162044)
(-2.36229e-18 1.24296e-18 -0.0161491)
(-2.4255e-18 6.77837e-19 -0.0160924)
(-2.24925e-18 -1.97644e-21 -0.0160345)
(-2.21665e-18 1.62395e-20 -0.0159754)
(-2.40581e-18 1.19436e-19 -0.0159151)
(-2.63304e-18 -6.11551e-20 -0.0158536)
(-2.99465e-18 -3.38187e-19 -0.0157911)
(-3.27561e-18 -7.03858e-19 -0.0157275)
(-3.12109e-18 -1.31056e-18 -0.0156629)
(-3.03284e-18 -8.69083e-19 -0.0155974)
(-3.19919e-18 2.32904e-19 -0.0155309)
(-2.95181e-18 2.01987e-20 -0.0154634)
(-2.71068e-18 -5.12367e-19 -0.0153951)
(-1.85027e-18 -1.9708e-18 -0.0168063)
(-1.67597e-18 -1.51082e-18 -0.0167809)
(-2.09662e-18 -1.40482e-18 -0.0167527)
(-2.51241e-18 -1.03584e-18 -0.0167219)
(-2.35442e-18 -1.57739e-18 -0.0166886)
(-2.2591e-18 -2.49226e-18 -0.0166528)
(-2.20395e-18 -1.48981e-18 -0.0166146)
(-2.43394e-18 -5.31388e-19 -0.0165742)
(-2.94327e-18 -9.36814e-19 -0.0165318)
(-2.2449e-18 -1.35715e-18 -0.0164873)
(-1.35816e-18 -1.63634e-18 -0.016441)
(-2.1515e-18 -2.29023e-18 -0.0163928)
(-3.06523e-18 -2.45441e-18 -0.016343)
(-3.17744e-18 -1.99469e-18 -0.0162916)
(-2.83256e-18 -1.50523e-18 -0.0162387)
(-3.05134e-18 -5.945e-19 -0.0161843)
(-3.42098e-18 8.12695e-19 -0.0161286)
(-3.29064e-18 9.05583e-19 -0.0160715)
(-2.93403e-18 9.15483e-20 -0.0160132)
(-2.64913e-18 -2.80298e-19 -0.0159537)
(-2.34641e-18 -3.90619e-19 -0.015893)
(-2.15949e-18 -3.55108e-19 -0.0158313)
(-2.25783e-18 -1.99823e-19 -0.0157684)
(-2.32699e-18 -2.99881e-19 -0.0157046)
(-2.03444e-18 -1.18751e-18 -0.0156397)
(-1.88134e-18 -1.4346e-18 -0.0155739)
(-1.93354e-18 -7.6292e-19 -0.0155071)
(-1.83558e-18 -5.94152e-19 -0.0154395)
(-1.68455e-18 -7.86653e-19 -0.0153709)
(-1.92236e-18 -1.78198e-18 -0.0167956)
(-1.51621e-18 -1.18436e-18 -0.0167691)
(-1.95576e-18 -9.61161e-19 -0.0167399)
(-2.13453e-18 -9.19525e-19 -0.0167082)
(-2.17512e-18 -1.32916e-18 -0.0166739)
(-2.51801e-18 -2.14813e-18 -0.0166373)
(-3.20045e-18 -1.98586e-18 -0.0165983)
(-3.81194e-18 -1.24436e-18 -0.0165571)
(-3.80652e-18 -1.81812e-18 -0.0165139)
(-3.1504e-18 -2.77741e-18 -0.0164687)
(-2.837e-18 -1.66035e-18 -0.0164217)
(-3.12695e-18 -8.72498e-19 -0.0163729)
(-2.74571e-18 -2.34543e-18 -0.0163225)
(-2.26186e-18 -3.54472e-18 -0.0162705)
(-2.63109e-18 -2.59946e-18 -0.0162171)
(-3.58398e-18 -1.06414e-18 -0.0161622)
(-3.78532e-18 -3.46912e-19 -0.016106)
(-3.30282e-18 -5.32241e-19 -0.0160485)
(-2.96631e-18 -1.11868e-18 -0.0159898)
(-2.80806e-18 -1.50835e-18 -0.0159299)
(-2.64325e-18 -1.34273e-18 -0.0158689)
(-2.82787e-18 -7.16206e-19 -0.0158068)
(-3.15712e-18 -1.60191e-19 -0.0157436)
(-3.19838e-18 -3.52456e-19 -0.0156794)
(-2.73066e-18 -1.26413e-18 -0.0156143)
(-2.65114e-18 -1.69456e-18 -0.0155482)
(-2.8931e-18 -9.80455e-19 -0.0154812)
(-2.72575e-18 -7.46591e-19 -0.0154132)
(-2.08069e-18 -1.35179e-18 -0.0153444)
(-2.02651e-18 -2.26671e-18 -0.0167834)
(-1.48541e-18 -1.2203e-18 -0.0167559)
(-1.67869e-18 -4.27846e-19 -0.0167257)
(-1.84591e-18 -2.65123e-19 -0.016693)
(-2.05225e-18 -7.39086e-19 -0.0166578)
(-2.61162e-18 -1.39405e-18 -0.0166203)
(-3.66098e-18 -1.11644e-18 -0.0165804)
(-4.14967e-18 -1.0457e-18 -0.0165384)
(-3.32791e-18 -1.93814e-18 -0.0164943)
(-2.56416e-18 -3.56074e-18 -0.0164484)
(-2.29504e-18 -3.48047e-18 -0.0164006)
(-1.98998e-18 -2.30721e-18 -0.0163512)
(-1.32883e-18 -1.77535e-18 -0.0163002)
(-1.82885e-18 -1.68955e-18 -0.0162476)
(-2.82653e-18 -1.03595e-18 -0.0161936)
(-3.27934e-18 -4.90783e-19 -0.0161382)
(-2.86692e-18 -3.3626e-19 -0.0160815)
(-2.39232e-18 -1.14838e-19 -0.0160236)
(-2.43267e-18 -2.57211e-19 -0.0159644)
(-2.53677e-18 -1.21714e-18 -0.0159041)
(-2.65584e-18 -1.76112e-18 -0.0158427)
(-3.01506e-18 -1.1783e-18 -0.0157802)
(-3.3058e-18 -5.50169e-19 -0.0157167)
(-3.03739e-18 -8.94261e-19 -0.0156522)
(-2.41748e-18 -1.59399e-18 -0.0155868)
(-2.24222e-18 -1.93192e-18 -0.0155204)
(-1.97418e-18 -2.27262e-18 -0.0154531)
(-1.42013e-18 -2.74387e-18 -0.0153849)
(-1.44105e-18 -2.42171e-18 -0.0153158)
(-1.59085e-18 -2.27017e-18 -0.0167698)
(-1.506e-18 -1.51629e-18 -0.0167412)
(-1.5111e-18 -3.14933e-19 -0.0167102)
(-1.84887e-18 -2.06722e-19 -0.0166765)
(-1.93508e-18 -1.51843e-20 -0.0166403)
(-2.8199e-18 -3.66602e-19 -0.0166017)
(-3.24122e-18 -2.69161e-19 -0.0165609)
(-2.69753e-18 -9.8637e-19 -0.016518)
(-1.78395e-18 -2.11968e-18 -0.0164731)
(-1.48757e-18 -2.92991e-18 -0.0164264)
(-2.01193e-18 -3.16162e-18 -0.0163779)
(-2.13165e-18 -3.33208e-18 -0.0163277)
(-1.89554e-18 -2.73785e-18 -0.016276)
(-2.12753e-18 -1.37045e-18 -0.0162229)
(-2.06899e-18 -5.64995e-19 -0.0161683)
(-1.60343e-18 -6.66355e-19 -0.0161124)
(-9.06407e-19 -1.1181e-18 -0.0160552)
(-8.20283e-19 -2.26554e-19 -0.0159967)
(-1.16728e-18 1.36565e-18 -0.0159371)
(-1.11972e-18 1.56758e-18 -0.0158764)
(-9.17814e-19 6.2172e-19 -0.0158146)
(-1.01034e-18 3.21766e-19 -0.0157517)
(-1.09594e-18 5.30015e-19 -0.0156879)
(-5.63718e-19 -7.48308e-20 -0.015623)
(-1.7287e-19 -7.33945e-19 -0.0155573)
(-2.08702e-19 -7.36938e-19 -0.0154906)
(-1.6595e-19 -8.46929e-19 -0.015423)
(-2.47336e-19 -9.59414e-19 -0.0153545)
(-7.00752e-19 -6.03147e-19 -0.0152852)
(-1.26039e-18 -2.13952e-18 -0.0167547)
(-2.00066e-18 -1.76385e-18 -0.0167254)
(-2.08954e-18 -4.93538e-19 -0.0166934)
(-2.31073e-18 -2.21112e-19 -0.0166586)
(-2.39101e-18 1.77162e-19 -0.0166213)
(-2.71799e-18 8.18879e-20 -0.0165817)
(-2.27077e-18 -2.85531e-19 -0.0165398)
(-1.57332e-18 -7.92328e-19 -0.016496)
(-1.4837e-18 -1.80821e-18 -0.0164502)
(-1.94831e-18 -2.47161e-18 -0.0164027)
(-2.58083e-18 -2.72749e-18 -0.0163534)
(-2.22691e-18 -3.44816e-18 -0.0163026)
(-1.81581e-18 -4.01625e-18 -0.0162502)
(-1.71696e-18 -3.39305e-18 -0.0161964)
(-1.76219e-18 -2.26891e-18 -0.0161412)
(-1.52802e-18 -1.45129e-18 -0.0160848)
(-1.15385e-18 -1.54017e-18 -0.016027)
(-1.11839e-18 -1.48522e-18 -0.0159681)
(-1.14849e-18 -7.36615e-19 -0.0159081)
(-1.16657e-18 1.32488e-19 -0.0158469)
(-1.20111e-18 6.57742e-19 -0.0157847)
(-1.2184e-18 6.60054e-19 -0.0157214)
(-9.645e-19 3.98867e-19 -0.0156572)
(-5.29761e-19 1.62612e-19 -0.0155921)
(-2.07341e-19 -7.51402e-21 -0.015526)
(2.2894e-20 -1.38442e-19 -0.015459)
(1.99294e-19 -1.87812e-19 -0.0153911)
(2.06142e-19 -2.80836e-19 -0.0153224)
(-4.15149e-20 -4.0934e-19 -0.0152528)
(-1.44543e-18 -1.47668e-18 -0.0167375)
(-2.15924e-18 -1.17603e-18 -0.016708)
(-2.15498e-18 -7.13641e-19 -0.0166747)
(-2.1501e-18 -4.17588e-19 -0.0166387)
(-2.33719e-18 -8.80406e-20 -0.0166002)
(-1.952e-18 1.26491e-19 -0.0165595)
(-1.4288e-18 -2.30517e-19 -0.0165166)
(-1.28833e-18 -3.89318e-19 -0.0164718)
(-1.49966e-18 -5.60751e-19 -0.0164252)
(-1.71716e-18 -1.02325e-18 -0.0163768)
(-1.36972e-18 -1.88516e-18 -0.0163268)
(-3.61587e-19 -2.68536e-18 -0.0162753)
(-1.80098e-19 -2.74226e-18 -0.0162222)
(-4.98029e-19 -2.13053e-18 -0.0161678)
(-5.24855e-19 -2.00394e-18 -0.016112)
(-3.6414e-19 -2.04207e-18 -0.016055)
(-4.14098e-19 -1.8002e-18 -0.0159968)
(-6.41969e-19 -1.24789e-18 -0.0159374)
(-9.41476e-19 -5.81107e-19 -0.0158768)
(-9.73321e-19 -1.69949e-19 -0.0158152)
(-6.93097e-19 2.12908e-19 -0.0157526)
(-4.01173e-19 6.13588e-19 -0.015689)
(1.62903e-19 4.00457e-19 -0.0156244)
(7.34433e-19 -5.48469e-19 -0.0155589)
(6.91534e-19 -1.11601e-18 -0.0154925)
(3.24681e-19 -1.11044e-18 -0.0154252)
(-1.85975e-19 -9.26267e-19 -0.0153571)
(-1.08462e-18 -8.61937e-21 -0.0152881)
(-1.96847e-18 1.14767e-18 -0.0152183)
(-1.10721e-18 -8.31301e-19 -0.0167375)
(-1.17953e-18 -2.94737e-19 -0.016708)
(-1.27772e-18 -7.7369e-20 -0.0166747)
(-1.92733e-18 -2.38058e-19 -0.0166387)
(-2.10982e-18 -2.38691e-19 -0.0166002)
(-1.44748e-18 5.90764e-20 -0.0165595)
(-9.84646e-19 4.12214e-19 -0.0165166)
(-1.35076e-18 -3.79075e-21 -0.0164718)
(-1.43468e-18 -4.18826e-19 -0.0164252)
(-1.05193e-18 -5.78346e-19 -0.0163768)
(2.46877e-20 -1.05921e-18 -0.0163268)
(1.13139e-18 -1.6905e-18 -0.0162753)
(1.01008e-18 -1.96119e-18 -0.0162222)
(6.45411e-19 -1.75478e-18 -0.0161678)
(2.51762e-19 -1.31031e-18 -0.016112)
(-1.95311e-19 -1.09856e-18 -0.016055)
(-1.13028e-19 -1.21507e-18 -0.0159968)
(-9.21867e-20 -1.21292e-18 -0.0159374)
(-3.15719e-19 -9.61949e-19 -0.0158768)
(1.02075e-19 -7.27915e-19 -0.0158152)
(5.92538e-19 -6.24236e-19 -0.0157526)
(7.69188e-19 -3.9549e-19 -0.015689)
(1.13662e-19 4.37135e-20 -0.0156244)
(-1.32731e-18 7.21331e-19 -0.0155589)
(-2.0667e-18 8.19713e-19 -0.0154925)
(-2.10969e-18 6.27685e-19 -0.0154252)
(-2.00772e-18 4.59766e-19 -0.0153571)
(-1.29395e-18 1.35708e-19 -0.0152881)
(-8.12325e-19 6.35194e-20 -0.0152183)
(-4.28165e-19 -4.78813e-19 -0.0167547)
(-7.05768e-19 -1.10438e-19 -0.0167254)
(-1.70079e-18 2.18659e-20 -0.0166934)
(-2.58834e-18 -4.67827e-19 -0.0166586)
(-2.05404e-18 -6.76026e-19 -0.0166213)
(-1.23146e-18 -9.52109e-19 -0.0165817)
(-1.70311e-18 -5.83721e-19 -0.0165398)
(-2.90333e-18 -4.35369e-19 -0.016496)
(-2.12082e-18 -5.77206e-19 -0.0164502)
(-1.03119e-18 -9.45771e-19 -0.0164027)
(-2.65849e-19 -1.30675e-18 -0.0163534)
(1.57802e-19 -1.71257e-18 -0.0163026)
(-9.88106e-20 -2.18422e-18 -0.0162502)
(-4.84706e-21 -2.31067e-18 -0.0161964)
(-5.79852e-20 -2.21144e-18 -0.0161412)
(-3.76878e-19 -1.91375e-18 -0.0160848)
(-5.20592e-19 -1.64888e-18 -0.016027)
(-6.74683e-19 -1.42536e-18 -0.0159681)
(-2.60794e-19 -1.37792e-18 -0.0159081)
(1.24437e-19 -1.46992e-18 -0.0158469)
(-1.41791e-19 -1.36563e-18 -0.0157847)
(-9.38706e-19 -1.02383e-18 -0.0157214)
(-1.68695e-18 -8.15759e-19 -0.0156572)
(-1.669e-18 -9.02005e-19 -0.0155921)
(-1.40754e-18 -9.958e-19 -0.015526)
(-1.07539e-18 -9.64835e-19 -0.015459)
(-5.72552e-19 -9.43662e-19 -0.0153911)
(-6.88762e-19 -5.08458e-19 -0.0153224)
(-1.66643e-18 2.62894e-19 -0.0152528)
(-5.72332e-19 -2.83637e-19 -0.0167698)
(-8.76354e-19 -2.02365e-19 -0.0167412)
(-1.84762e-18 1.29428e-19 -0.0167102)
(-2.10302e-18 6.30691e-19 -0.0166765)
(-1.86134e-18 1.9839e-19 -0.0166403)
(-1.87212e-18 -8.54499e-19 -0.0166017)
(-2.24178e-18 -1.15937e-18 -0.0165609)
(-2.10085e-18 -6.98513e-19 -0.016518)
(-1.26711e-18 -3.87921e-19 -0.0164731)
(-1.18168e-18 -6.12584e-19 -0.0164264)
(-3.1672e-19 -8.66086e-19 -0.0163779)
(2.07913e-19 -1.08122e-18 -0.0163277)
(3.87001e-19 -1.41565e-18 -0.0162761)
(7.85908e-19 -1.84608e-18 -0.0162229)
(2.0959e-19 -2.20572e-18 -0.0161683)
(-3.25166e-19 -2.4157e-18 -0.0161124)
(-4.05311e-19 -2.71271e-18 -0.0160552)
(-3.90938e-19 -2.95907e-18 -0.0159967)
(-6.54929e-19 -2.66558e-18 -0.0159371)
(-9.03661e-19 -2.24563e-18 -0.0158764)
(-9.17661e-19 -2.04997e-18 -0.0158146)
(-1.29552e-18 -1.92712e-18 -0.0157517)
(-1.86763e-18 -1.55286e-18 -0.0156879)
(-2.49813e-18 -9.66606e-19 -0.015623)
(-2.34854e-18 -9.82327e-19 -0.0155573)
(-1.70344e-18 -1.33701e-18 -0.0154906)
(-1.23425e-18 -1.50984e-18 -0.015423)
(-1.00984e-18 -1.57536e-18 -0.0153545)
(-9.77646e-19 -1.52289e-18 -0.0152852)
(-6.95748e-19 -3.78489e-19 -0.0167834)
(-8.18679e-19 -3.07185e-19 -0.0167559)
(-1.22435e-18 -2.39793e-19 -0.0167257)
(-1.67216e-18 6.87105e-19 -0.016693)
(-2.71047e-18 8.30696e-19 -0.0166578)
(-2.24339e-18 2.42371e-19 -0.0166203)
(-1.29811e-18 -3.28613e-19 -0.0165804)
(-1.09496e-18 -2.07046e-19 -0.0165384)
(-1.13277e-18 1.86538e-20 -0.0164943)
(-5.33256e-19 7.66305e-20 -0.0164484)
(6.92064e-19 -4.58222e-20 -0.0164006)
(7.4678e-19 -2.19051e-19 -0.0163512)
(4.76581e-19 -1.23396e-19 -0.0163002)
(-3.49712e-19 -5.68501e-19 -0.0162476)
(-1.24042e-18 -1.11871e-18 -0.0161936)
(-1.61159e-18 -1.63756e-18 -0.0161382)
(-1.82045e-18 -2.0166e-18 -0.0160815)
(-1.48988e-18 -2.73042e-18 -0.0160236)
(-4.86579e-19 -3.66192e-18 -0.0159644)
(-2.12134e-19 -4.02153e-18 -0.0159041)
(-1.1863e-18 -3.60081e-18 -0.0158427)
(-2.08086e-18 -3.06781e-18 -0.0157802)
(-1.81805e-18 -2.81273e-18 -0.0157167)
(-1.37685e-18 -2.27441e-18 -0.0156522)
(-1.23832e-18 -1.4378e-18 -0.0155868)
(-7.791e-19 -1.28136e-18 -0.0155204)
(-2.31918e-19 -1.38613e-18 -0.0154531)
(-5.62996e-19 -1.11106e-18 -0.0153849)
(-9.54224e-19 -9.85699e-19 -0.0153158)
(-1.10859e-18 -5.10023e-19 -0.0167956)
(-1.18238e-18 -3.10013e-19 -0.0167691)
(-1.369e-18 -2.7837e-19 -0.0167399)
(-1.77428e-18 -2.53755e-20 -0.0167082)
(-2.44987e-18 4.79766e-19 -0.0166739)
(-1.67156e-18 1.3045e-18 -0.0166373)
(-1.06336e-18 1.02903e-18 -0.0165983)
(-5.50623e-19 9.01636e-19 -0.0165571)
(-1.98034e-19 3.21325e-19 -0.0165139)
(-2.68573e-20 4.98548e-20 -0.0164687)
(-8.10268e-21 -4.9186e-19 -0.0164217)
(-2.7451e-20 -8.73842e-19 -0.0163729)
(-7.2781e-19 -8.72905e-19 -0.0163225)