/*--------------------------------*- C++ -*----------------------------------*\
  =========                 |
  \\      /  F ield         | OpenFOAM: The Open Source CFD Toolbox
   \\    /   O peration     | Website:  https://openfoam.org
    \\  /    A nd           | Version:  7
     \\/     M anipulation  |
\*---------------------------------------------------------------------------*/
FoamFile
{
    version     2.0;
    format      ascii;
    class       volScalarField;
    location    "236000";
    object      nut;
}
// * * * * * * * * * * * * * * * * * * * * * * * * * * * * * * * * * * * * * //

dimensions      [0 2 -1 0 0 0 0];

internalField   nonuniform List<scalar> 
4782
(
4.39489e-06
4.22099e-06
4.04935e-06
3.88001e-06
3.71303e-06
3.54848e-06
3.3864e-06
3.22686e-06
3.06993e-06
2.91567e-06
1.39361e-05
1.36988e-05
1.34621e-05
1.32262e-05
1.29911e-05
1.27568e-05
1.25182e-05
1.22774e-05
1.20369e-05
1.17977e-05
1.15604e-05
1.13251e-05
1.10918e-05
1.08604e-05
1.0631e-05
1.04033e-05
1.01774e-05
9.95322e-06
9.73065e-06
9.50969e-06
9.29032e-06
9.07253e-06
8.85631e-06
8.64165e-06
8.42856e-06
8.21704e-06
8.00711e-06
7.79879e-06
7.59209e-06
7.38703e-06
7.18364e-06
6.98192e-06
6.78192e-06
6.58365e-06
6.38715e-06
6.19243e-06
5.99954e-06
5.8085e-06
5.61935e-06
5.43211e-06
5.24684e-06
5.06356e-06
4.88231e-06
4.70314e-06
4.52609e-06
4.3512e-06
4.17852e-06
4.00809e-06
3.83998e-06
3.67423e-06
3.51089e-06
3.35004e-06
3.19173e-06
3.03603e-06
2.88301e-06
1.38428e-05
1.36062e-05
1.33703e-05
1.31352e-05
1.2901e-05
1.26659e-05
1.24262e-05
1.21856e-05
1.1946e-05
1.17081e-05
1.14722e-05
1.12383e-05
1.10064e-05
1.07765e-05
1.05484e-05
1.0322e-05
1.00974e-05
9.87445e-06
9.6531e-06
9.43334e-06
9.21517e-06
8.99856e-06
8.78351e-06
8.57002e-06
8.3581e-06
8.14776e-06
7.93901e-06
7.73186e-06
7.52634e-06
7.32247e-06
7.12026e-06
6.91974e-06
6.72093e-06
6.52387e-06
6.32857e-06
6.13507e-06
5.9434e-06
5.75358e-06
5.56565e-06
5.37966e-06
5.19562e-06
5.01358e-06
4.83358e-06
4.65566e-06
4.47985e-06
4.30622e-06
4.1348e-06
3.96563e-06
3.79878e-06
3.6343e-06
3.47224e-06
3.31265e-06
3.15562e-06
3.00119e-06
2.84944e-06
1.37466e-05
1.35109e-05
1.32759e-05
1.30416e-05
1.28082e-05
1.25703e-05
1.23302e-05
1.20903e-05
1.18521e-05
1.16157e-05
1.13815e-05
1.11492e-05
1.09189e-05
1.06904e-05
1.04637e-05
1.02387e-05
1.00153e-05
9.79363e-06
9.57352e-06
9.35499e-06
9.13802e-06
8.92261e-06
8.70876e-06
8.49647e-06
8.28574e-06
8.0766e-06
7.86905e-06
7.66311e-06
7.4588e-06
7.25613e-06
7.05514e-06
6.85585e-06
6.65827e-06
6.46244e-06
6.26838e-06
6.07612e-06
5.8857e-06
5.69714e-06
5.51047e-06
5.32574e-06
5.14297e-06
4.96221e-06
4.78349e-06
4.60685e-06
4.43234e-06
4.26e-06
4.08987e-06
3.92201e-06
3.75646e-06
3.59328e-06
3.43253e-06
3.27426e-06
3.11854e-06
2.96542e-06
2.81499e-06
1.3648e-05
1.34131e-05
1.3176e-05
1.29365e-05
1.26967e-05
1.24575e-05
1.22193e-05
1.19825e-05
1.17472e-05
1.15136e-05
1.12817e-05
1.10516e-05
1.08232e-05
1.05965e-05
1.03715e-05
1.01481e-05
9.92637e-06
9.7062e-06
9.48759e-06
9.27054e-06
9.05503e-06
8.84106e-06
8.62864e-06
8.41777e-06
8.20846e-06
8.00072e-06
7.79457e-06
7.59002e-06
7.3871e-06
7.18583e-06
6.98622e-06
6.78831e-06
6.59212e-06
6.39767e-06
6.20499e-06
6.01411e-06
5.82507e-06
5.63789e-06
5.4526e-06
5.26925e-06
5.08787e-06
4.90849e-06
4.73115e-06
4.55589e-06
4.38277e-06
4.21181e-06
4.04307e-06
3.87659e-06
3.71243e-06
3.55064e-06
3.39127e-06
3.23438e-06
3.08005e-06
2.92832e-06
2.77927e-06
1.3648e-05
1.34131e-05
1.3176e-05
1.29365e-05
1.26967e-05
1.24575e-05
1.22193e-05
1.19825e-05
1.17472e-05
1.15136e-05
1.12817e-05
1.10516e-05
1.08232e-05
1.05965e-05
1.03715e-05
1.01481e-05
9.92637e-06
9.7062e-06
9.48759e-06
9.27054e-06
9.05503e-06
8.84106e-06
8.62864e-06
8.41777e-06
8.20846e-06
8.00072e-06
7.79457e-06
7.59002e-06
7.3871e-06
7.18583e-06
6.98622e-06
6.78831e-06
6.59212e-06
6.39767e-06
6.20499e-06
6.01411e-06
5.82507e-06
5.63789e-06
5.4526e-06
5.26925e-06
5.08787e-06
4.90849e-06
4.73115e-06
4.55589e-06
4.38277e-06
4.21181e-06
4.04307e-06
3.87659e-06
3.71243e-06
3.55064e-06
3.39127e-06
3.23438e-06
3.08005e-06
2.92832e-06
2.77927e-06
1.37466e-05
1.35109e-05
1.32759e-05
1.30416e-05
1.28082e-05
1.25703e-05
1.23301e-05
1.20903e-05
1.18521e-05
1.16157e-05
1.13815e-05
1.11492e-05
1.09189e-05
1.06904e-05
1.04637e-05
1.02387e-05
1.00153e-05
9.79363e-06
9.57352e-06
9.35499e-06
9.13802e-06
8.92261e-06
8.70876e-06
8.49647e-06
8.28574e-06
8.0766e-06
7.86905e-06
7.66311e-06
7.4588e-06
7.25613e-06
7.05514e-06
6.85585e-06
6.65827e-06
6.46244e-06
6.26838e-06
6.07612e-06
5.8857e-06
5.69714e-06
5.51047e-06
5.32574e-06
5.14297e-06
4.96221e-06
4.78349e-06
4.60685e-06
4.43234e-06
4.26e-06
4.08987e-06
3.92201e-06
3.75646e-06
3.59328e-06
3.43253e-06
3.27426e-06
3.11854e-06
2.96542e-06
2.81499e-06
2.66731e-06
2.52246e-06
2.38052e-06
2.24158e-06
1.38428e-05
1.36062e-05
1.33703e-05
1.31352e-05
1.2901e-05
1.26659e-05
1.24262e-05
1.21856e-05
1.1946e-05
1.17081e-05
1.14722e-05
1.12383e-05
1.10064e-05
1.07765e-05
1.05484e-05
1.0322e-05
1.00974e-05
9.87444e-06
9.6531e-06
9.43334e-06
9.21517e-06
8.99855e-06
8.78351e-06
8.57002e-06
8.3581e-06
8.14776e-06
7.939e-06
7.73186e-06
7.52634e-06
7.32247e-06
7.12026e-06
6.91974e-06
6.72093e-06
6.52387e-06
6.32857e-06
6.13507e-06
5.94339e-06
5.75358e-06
5.56565e-06
5.37965e-06
5.19562e-06
5.01358e-06
4.83358e-06
4.65565e-06
4.47985e-06
4.30622e-06
4.1348e-06
3.96563e-06
3.79878e-06
3.6343e-06
3.47224e-06
3.31265e-06
3.15562e-06
3.00119e-06
2.84944e-06
2.70045e-06
2.55428e-06
2.41103e-06
2.27078e-06
2.13361e-06
1.39361e-05
1.36988e-05
1.34621e-05
1.32262e-05
1.29911e-05
1.27568e-05
1.25182e-05
1.22774e-05
1.20369e-05
1.17977e-05
1.15604e-05
1.13251e-05
1.10918e-05
1.08604e-05
1.0631e-05
1.04033e-05
1.01774e-05
9.95322e-06
9.73065e-06
9.50969e-06
9.29032e-06
9.07253e-06
8.85631e-06
8.64165e-06
8.42855e-06
8.21704e-06
8.00711e-06
7.79879e-06
7.59209e-06
7.38703e-06
7.18364e-06
6.98192e-06
6.78192e-06
6.58365e-06
6.38714e-06
6.19243e-06
5.99954e-06
5.8085e-06
5.61935e-06
5.43211e-06
5.24684e-06
5.06356e-06
4.88231e-06
4.70314e-06
4.52609e-06
4.3512e-06
4.17852e-06
4.00809e-06
3.83998e-06
3.67422e-06
3.51089e-06
3.35004e-06
3.19173e-06
3.03603e-06
2.88301e-06
2.73274e-06
2.5853e-06
2.44078e-06
2.29925e-06
2.16081e-06
2.02556e-06
1.8936e-06
1.76503e-06
1.63998e-06
1.51854e-06
1.40085e-06
1.28703e-06
1.1772e-06
1.07145e-06
9.69721e-07
8.71355e-07
7.70947e-07
6.75024e-07
5.84008e-07
4.98352e-07
4.18548e-07
3.45113e-07
2.78564e-07
2.19376e-07
1.6793e-07
1.2443e-07
8.88352e-08
6.08014e-08
3.96692e-08
2.45101e-08
1.42253e-08
7.67305e-09
3.78977e-09
1.67695e-09
6.42828e-10
2.02089e-10
4.73365e-11
6.86187e-12
4.08424e-13
3.52155e-15
1.40266e-05
1.37884e-05
1.3551e-05
1.33143e-05
1.30783e-05
1.28432e-05
1.26068e-05
1.23661e-05
1.21249e-05
1.18846e-05
1.16459e-05
1.14093e-05
1.11746e-05
1.09419e-05
1.07112e-05
1.04823e-05
1.02551e-05
1.00297e-05
9.80595e-06
9.58382e-06
9.36329e-06
9.14434e-06
8.92697e-06
8.71117e-06
8.49693e-06
8.28428e-06
8.07321e-06
7.86374e-06
7.6559e-06
7.44969e-06
7.24514e-06
7.04226e-06
6.8411e-06
6.64166e-06
6.44399e-06
6.2481e-06
6.05402e-06
5.8618e-06
5.67146e-06
5.48304e-06
5.29657e-06
5.11209e-06
4.92964e-06
4.74926e-06
4.57099e-06
4.39489e-06
4.22099e-06
4.04935e-06
3.88001e-06
3.71303e-06
3.54847e-06
3.3864e-06
3.22686e-06
3.06993e-06
2.91567e-06
2.76417e-06
2.6155e-06
2.46974e-06
2.32698e-06
2.18731e-06
2.05084e-06
1.91765e-06
1.78786e-06
1.66159e-06
1.53894e-06
1.42005e-06
1.30503e-06
1.19402e-06
1.08711e-06
9.84256e-07
8.84886e-07
7.84254e-07
6.87212e-07
5.95065e-07
5.0827e-07
4.27323e-07
3.52749e-07
2.85075e-07
2.24796e-07
1.7231e-07
1.27848e-07
9.13959e-08
6.26305e-08
4.09066e-08
2.52969e-08
1.46915e-08
7.92783e-09
3.91622e-09
1.73273e-09
6.63953e-10
2.08576e-10
4.87936e-11
7.05703e-12
4.18136e-13
3.57053e-15
1.41139e-05
1.3875e-05
1.36368e-05
1.33993e-05
1.31626e-05
1.29266e-05
1.26915e-05
1.24515e-05
1.22098e-05
1.19685e-05
1.17287e-05
1.14908e-05
1.12548e-05
1.10208e-05
1.07888e-05
1.05587e-05
1.03303e-05
1.01037e-05
9.87881e-06
9.65554e-06
9.43388e-06
9.21381e-06
8.99533e-06
8.77842e-06
8.56308e-06
8.34932e-06
8.13715e-06
7.92658e-06
7.71762e-06
7.5103e-06
7.30463e-06
7.10065e-06
6.89836e-06
6.6978e-06
6.49899e-06
6.30197e-06
6.10676e-06
5.9134e-06
5.72191e-06
5.53234e-06
5.34472e-06
5.15908e-06
4.97547e-06
4.79393e-06
4.6145e-06
4.43722e-06
4.26215e-06
4.08933e-06
3.91882e-06
3.75066e-06
3.58492e-06
3.42166e-06
3.26093e-06
3.10281e-06
2.94737e-06
2.79468e-06
2.64482e-06
2.49787e-06
2.35392e-06
2.21307e-06
2.0754e-06
1.94103e-06
1.81006e-06
1.6826e-06
1.55879e-06
1.43873e-06
1.32256e-06
1.2104e-06
1.10236e-06
9.98419e-07
8.98078e-07
7.97233e-07
6.99107e-07
6.05865e-07
5.17966e-07
4.35911e-07
3.6023e-07
2.91464e-07
2.30122e-07
1.76622e-07
1.3122e-07
9.39263e-08
6.44414e-08
4.21337e-08
2.60784e-08
1.51552e-08
8.18141e-09
4.04215e-09
1.78829e-09
6.8499e-10
2.15031e-10
5.0242e-11
7.2506e-12
4.27726e-13
3.6184e-15
1.41979e-05
1.39583e-05
1.37194e-05
1.34811e-05
1.32436e-05
1.30069e-05
1.2771e-05
1.25331e-05
1.22915e-05
1.20495e-05
1.18086e-05
1.15694e-05
1.13322e-05
1.1097e-05
1.08637e-05
1.06324e-05
1.04029e-05
1.01751e-05
9.94907e-06
9.72469e-06
9.50194e-06
9.2808e-06
9.06124e-06
8.84326e-06
8.62686e-06
8.41203e-06
8.1988e-06
7.98716e-06
7.77714e-06
7.56875e-06
7.36202e-06
7.15695e-06
6.95359e-06
6.75195e-06
6.55206e-06
6.35395e-06
6.15765e-06
5.96319e-06
5.77061e-06
5.57993e-06
5.3912e-06
5.20446e-06
5.01973e-06
4.83708e-06
4.65652e-06
4.47813e-06
4.30193e-06
4.12798e-06
3.95634e-06
3.78704e-06
3.62017e-06
3.45576e-06
3.2939e-06
3.13464e-06
2.97805e-06
2.82422e-06
2.67321e-06
2.52511e-06
2.38002e-06
2.23801e-06
2.0992e-06
1.96369e-06
1.83158e-06
1.70299e-06
1.57804e-06
1.45686e-06
1.33957e-06
1.22631e-06
1.11718e-06
1.01218e-06
9.10904e-07
8.09851e-07
7.10679e-07
6.16379e-07
5.27413e-07
4.44285e-07
3.67535e-07
2.97711e-07
2.35336e-07
1.80851e-07
1.34533e-07
9.64172e-08
6.62272e-08
4.33459e-08
2.68515e-08
1.56145e-08
8.43277e-09
4.16704e-09
1.8434e-09
7.05852e-10
2.21429e-10
5.16759e-11
7.44185e-12
4.3716e-13
3.66508e-15
1.42784e-05
1.40382e-05
1.37986e-05
1.35597e-05
1.33214e-05
1.3084e-05
1.28473e-05
1.26112e-05
1.23697e-05
1.21272e-05
1.18853e-05
1.1645e-05
1.14066e-05
1.11701e-05
1.09357e-05
1.07032e-05
1.04726e-05
1.02437e-05
1.00166e-05
9.79114e-06
9.56733e-06
9.34515e-06
9.12456e-06
8.90555e-06
8.68813e-06
8.47229e-06
8.25803e-06
8.04538e-06
7.83433e-06
7.62492e-06
7.41716e-06
7.21107e-06
7.00668e-06
6.80401e-06
6.60308e-06
6.40393e-06
6.20659e-06
6.01108e-06
5.81745e-06
5.62572e-06
5.43593e-06
5.24812e-06
5.06233e-06
4.87861e-06
4.69699e-06
4.51751e-06
4.34024e-06
4.16521e-06
3.99248e-06
3.8221e-06
3.65413e-06
3.48864e-06
3.32568e-06
3.16532e-06
3.00764e-06
2.8527e-06
2.7006e-06
2.5514e-06
2.4052e-06
2.2621e-06
2.12219e-06
1.98558e-06
1.85237e-06
1.72269e-06
1.59665e-06
1.47439e-06
1.35602e-06
1.2417e-06
1.13151e-06
1.02551e-06
9.23328e-07
8.22071e-07
7.2189e-07
6.26573e-07
5.36579e-07
4.52419e-07
3.74636e-07
3.03791e-07
2.4042e-07
1.8498e-07
1.37773e-07
9.88578e-08
6.79801e-08
4.45377e-08
2.76127e-08
1.60672e-08
8.68076e-09
4.29032e-09
1.8978e-09
7.26445e-10
2.27742e-10
5.30891e-11
7.62995e-12
4.46403e-13
3.71041e-15
1.43554e-05
1.41145e-05
1.38743e-05
1.36347e-05
1.33958e-05
1.31576e-05
1.29203e-05
1.26837e-05
1.24439e-05
1.22014e-05
1.19588e-05
1.17174e-05
1.14778e-05
1.12402e-05
1.10047e-05
1.0771e-05
1.05393e-05
1.03094e-05
1.00812e-05
9.85472e-06
9.62992e-06
9.40673e-06
9.18516e-06
8.96517e-06
8.74677e-06
8.52996e-06
8.31473e-06
8.1011e-06
7.88909e-06
7.6787e-06
7.46996e-06
7.2629e-06
7.05752e-06
6.85386e-06
6.65195e-06
6.45181e-06
6.25347e-06
6.05697e-06
5.86233e-06
5.6696e-06
5.4788e-06
5.28998e-06
5.10318e-06
4.91843e-06
4.73579e-06
4.55529e-06
4.37699e-06
4.20093e-06
4.02716e-06
3.85575e-06
3.68674e-06
3.5202e-06
3.3562e-06
3.19479e-06
3.03606e-06
2.88007e-06
2.72691e-06
2.57667e-06
2.42942e-06
2.28526e-06
2.1443e-06
2.00663e-06
1.87238e-06
1.74165e-06
1.61457e-06
1.49126e-06
1.37187e-06
1.25652e-06
1.14533e-06
1.03835e-06
9.35308e-07
8.33853e-07
7.32706e-07
6.36412e-07
5.45433e-07
4.60282e-07
3.81509e-07
3.09683e-07
2.45352e-07
1.88992e-07
1.40926e-07
1.01237e-07
6.9692e-08
4.57035e-08
2.83583e-08
1.65111e-08
8.92414e-09
4.41137e-09
1.95123e-09
7.46667e-10
2.33937e-10
5.44747e-11
7.81403e-12
4.55413e-13
3.75424e-15
1.44286e-05
1.41871e-05
1.39463e-05
1.37061e-05
1.34665e-05
1.32277e-05
1.29897e-05
1.27525e-05
1.25144e-05
1.22719e-05
1.20287e-05
1.17864e-05
1.15458e-05
1.13071e-05
1.10704e-05
1.08357e-05
1.06029e-05
1.03719e-05
1.01428e-05
9.91533e-06
9.68956e-06
9.46542e-06
9.2429e-06
9.02199e-06
8.80266e-06
8.58492e-06
8.36877e-06
8.15422e-06
7.94128e-06
7.72997e-06
7.52031e-06
7.31231e-06
7.106e-06
6.90141e-06
6.69856e-06
6.49748e-06
6.2982e-06
6.10075e-06
5.90516e-06
5.71147e-06
5.51972e-06
5.32994e-06
5.14217e-06
4.95646e-06
4.77284e-06
4.59137e-06
4.41209e-06
4.23504e-06
4.0603e-06
3.88789e-06
3.7179e-06
3.55037e-06
3.38537e-06
3.22297e-06
3.06324e-06
2.90625e-06
2.75209e-06
2.60084e-06
2.45258e-06
2.30743e-06
2.16546e-06
2.02679e-06
1.89154e-06
1.75981e-06
1.63173e-06
1.50744e-06
1.38706e-06
1.27073e-06
1.15858e-06
1.05067e-06
9.46806e-07
8.45158e-07
7.4309e-07
6.45864e-07
5.53944e-07
4.67847e-07
3.88128e-07
3.15362e-07
2.50113e-07
1.92871e-07
1.43979e-07
1.03545e-07
7.13548e-08
4.68375e-08
2.90846e-08
1.6944e-08
9.16167e-09
4.52956e-09
2.00341e-09
7.66412e-10
2.39983e-10
5.58257e-11
7.9932e-12
4.6415e-13
3.79642e-15
1.44979e-05
1.42559e-05
1.40145e-05
1.37737e-05
1.35335e-05
1.32941e-05
1.30555e-05
1.28176e-05
1.25806e-05
1.23385e-05
1.20948e-05
1.18518e-05
1.16102e-05
1.13705e-05
1.11327e-05
1.0897e-05
1.06632e-05
1.04313e-05
1.02012e-05
9.97282e-06
9.74613e-06
9.52109e-06
9.29769e-06
9.07588e-06
8.85568e-06
8.63706e-06
8.42004e-06
8.20461e-06
7.9908e-06
7.77862e-06
7.56808e-06
7.3592e-06
7.15202e-06
6.94654e-06
6.74281e-06
6.54084e-06
6.34066e-06
6.14232e-06
5.94583e-06
5.75124e-06
5.55858e-06
5.36789e-06
5.17921e-06
4.99258e-06
4.80805e-06
4.62565e-06
4.44544e-06
4.26747e-06
4.09179e-06
3.91846e-06
3.74753e-06
3.57906e-06
3.41312e-06
3.24977e-06
3.08909e-06
2.93116e-06
2.77605e-06
2.62385e-06
2.47464e-06
2.32853e-06
2.18561e-06
2.04599e-06
1.90979e-06
1.77711e-06
1.64809e-06
1.52285e-06
1.40154e-06
1.28429e-06
1.17122e-06
1.06243e-06
9.57782e-07
8.55949e-07
7.53006e-07
6.54895e-07
5.62081e-07
4.75085e-07
3.94465e-07
3.20807e-07
2.54682e-07
1.96598e-07
1.46918e-07
1.05769e-07
7.29603e-08
4.79341e-08
2.97878e-08
1.73636e-08
9.39206e-09
4.64426e-09
2.05406e-09
7.85574e-10
2.45848e-10
5.71351e-11
8.16655e-12
4.72574e-13
3.83678e-15
1.45632e-05
1.43207e-05
1.40787e-05
1.38374e-05
1.35967e-05
1.33567e-05
1.31174e-05
1.2879e-05
1.26414e-05
1.24008e-05
1.21572e-05
1.19135e-05
1.16711e-05
1.14304e-05
1.11916e-05
1.09549e-05
1.07202e-05
1.04873e-05
1.02563e-05
1.00271e-05
9.79952e-06
9.57363e-06
9.34938e-06
9.12674e-06
8.90571e-06
8.68627e-06
8.46842e-06
8.25218e-06
8.03754e-06
7.82454e-06
7.61317e-06
7.40347e-06
7.19546e-06
6.98916e-06
6.78459e-06
6.58178e-06
6.38077e-06
6.18158e-06
5.98425e-06
5.78881e-06
5.59529e-06
5.40375e-06
5.21421e-06
5.02672e-06
4.84132e-06
4.65806e-06
4.47698e-06
4.29813e-06
4.12157e-06
3.94736e-06
3.77554e-06
3.60619e-06
3.43936e-06
3.27512e-06
3.11355e-06
2.95472e-06
2.79872e-06
2.64562e-06
2.49551e-06
2.3485e-06
2.20469e-06
2.06417e-06
1.92707e-06
1.7935e-06
1.66359e-06
1.53746e-06
1.41526e-06
1.29714e-06
1.18321e-06
1.07358e-06
9.68194e-07
8.66187e-07
7.62416e-07
6.6347e-07
5.69813e-07
4.81967e-07
4.00497e-07
3.25993e-07
2.5904e-07
2.00158e-07
1.49728e-07
1.079e-07
7.45001e-08
4.89873e-08
3.04639e-08
1.77675e-08
9.61399e-09
4.75479e-09
2.10287e-09
8.04042e-10
2.51498e-10
5.83953e-11
8.33313e-12
4.80643e-13
3.87516e-15
1.46244e-05
1.43814e-05
1.41389e-05
1.38971e-05
1.36558e-05
1.34153e-05
1.31755e-05
1.29365e-05
1.26983e-05
1.24591e-05
1.22155e-05
1.19713e-05
1.17281e-05
1.14865e-05
1.12469e-05
1.10093e-05
1.07736e-05
1.05399e-05
1.03081e-05
1.0078e-05
9.8496e-06
9.62291e-06
9.39787e-06
9.17446e-06
8.95264e-06
8.73243e-06
8.51382e-06
8.29681e-06
8.0814e-06
7.86763e-06
7.65549e-06
7.44502e-06
7.23623e-06
7.02915e-06
6.8238e-06
6.62021e-06
6.41842e-06
6.21844e-06
6.02032e-06
5.82408e-06
5.62977e-06
5.43743e-06
5.24708e-06
5.05878e-06
4.87257e-06
4.6885e-06
4.5066e-06
4.32694e-06
4.14955e-06
3.97451e-06
3.80187e-06
3.63168e-06
3.46402e-06
3.29895e-06
3.13654e-06
2.97688e-06
2.82003e-06
2.66609e-06
2.51514e-06
2.36729e-06
2.22263e-06
2.08127e-06
1.94333e-06
1.80892e-06
1.67817e-06
1.55121e-06
1.42818e-06
1.30923e-06
1.19449e-06
1.08407e-06
9.77937e-07
8.75449e-07
7.7126e-07
6.71534e-07
5.7709e-07
4.8845e-07
4.06184e-07
3.30889e-07
2.63159e-07
2.03527e-07
1.52392e-07
1.09922e-07
7.59637e-08
4.99897e-08
3.11083e-08
1.81527e-08
9.82584e-09
4.86035e-09
2.1495e-09
8.21679e-10
2.56892e-10
5.95973e-11
8.49174e-12
4.88298e-13
3.91127e-15
1.46813e-05
1.44378e-05
1.41949e-05
1.39526e-05
1.37109e-05
1.34699e-05
1.32296e-05
1.299e-05
1.27513e-05
1.25133e-05
1.22698e-05
1.20251e-05
1.17812e-05
1.15388e-05
1.12984e-05
1.10599e-05
1.08234e-05
1.05889e-05
1.03563e-05
1.01254e-05
9.89627e-06
9.66884e-06
9.44307e-06
9.21892e-06
8.99639e-06
8.77546e-06
8.55613e-06
8.3384e-06
8.12228e-06
7.90779e-06
7.69494e-06
7.48375e-06
7.27424e-06
7.06644e-06
6.86037e-06
6.65605e-06
6.45352e-06
6.25281e-06
6.05395e-06
5.85698e-06
5.66193e-06
5.46884e-06
5.27775e-06
5.0887e-06
4.90173e-06
4.7169e-06
4.53424e-06
4.35381e-06
4.17566e-06
3.99985e-06
3.82644e-06
3.65548e-06
3.48704e-06
3.32119e-06
3.15801e-06
2.99756e-06
2.83993e-06
2.6852e-06
2.53348e-06
2.38484e-06
2.23939e-06
2.09725e-06
1.95852e-06
1.82333e-06
1.69179e-06
1.56406e-06
1.44026e-06
1.32054e-06
1.20503e-06
1.09386e-06
9.87007e-07
8.83869e-07
7.7952e-07
6.79071e-07
5.83895e-07
4.94518e-07
4.11512e-07
3.3548e-07
2.67025e-07
2.06692e-07
1.54898e-07
1.11827e-07
7.73446e-08
5.09367e-08
3.17177e-08
1.85174e-08
1.00265e-08
4.96039e-09
2.19369e-09
8.38395e-10
2.62002e-10
6.07351e-11
8.64166e-12
4.95512e-13
3.94504e-15
1.47338e-05
1.449e-05
1.42466e-05
1.40039e-05
1.37617e-05
1.35203e-05
1.32795e-05
1.30395e-05
1.28003e-05
1.25619e-05
1.23195e-05
1.20748e-05
1.18304e-05
1.15873e-05
1.1346e-05
1.11068e-05
1.08695e-05
1.06342e-05
1.04008e-05
1.01693e-05
9.93943e-06
9.71131e-06
9.48485e-06
9.26003e-06
9.03683e-06
8.81524e-06
8.59525e-06
8.37686e-06
8.16009e-06
7.94494e-06
7.73143e-06
7.51957e-06
7.3094e-06
7.10093e-06
6.89419e-06
6.6892e-06
6.486e-06
6.28461e-06
6.08508e-06
5.88742e-06
5.69168e-06
5.49791e-06
5.30612e-06
5.11638e-06
4.92872e-06
4.74318e-06
4.55982e-06
4.37869e-06
4.19984e-06
4.02332e-06
3.84919e-06
3.67752e-06
3.50836e-06
3.34179e-06
3.17789e-06
3.01672e-06
2.85836e-06
2.70291e-06
2.55046e-06
2.40109e-06
2.25492e-06
2.11205e-06
1.9726e-06
1.83668e-06
1.70443e-06
1.57597e-06
1.45146e-06
1.33103e-06
1.21482e-06
1.10295e-06
9.95426e-07
8.91688e-07
7.8719e-07
6.86072e-07
5.9022e-07
5.00161e-07
4.1647e-07
3.39756e-07
2.70628e-07
2.09647e-07
1.57239e-07
1.13609e-07
7.86378e-08
5.18245e-08
3.22897e-08
1.886e-08
1.02151e-08
5.05446e-09
2.23525e-09
8.54113e-10
2.66805e-10
6.18039e-11
8.7823e-12
5.0226e-13
3.97646e-15
1.47819e-05
1.45377e-05
1.4294e-05
1.40508e-05
1.38083e-05
1.35664e-05
1.33252e-05
1.30848e-05
1.28451e-05
1.26063e-05
1.23649e-05
1.21202e-05
1.18754e-05
1.16317e-05
1.13897e-05
1.11497e-05
1.09118e-05
1.06758e-05
1.04417e-05
1.02095e-05
9.97898e-06
9.75023e-06
9.52315e-06
9.29771e-06
9.0739e-06
8.8517e-06
8.6311e-06
8.41211e-06
8.19473e-06
7.97898e-06
7.76486e-06
7.55241e-06
7.34163e-06
7.13255e-06
6.92519e-06
6.71959e-06
6.51578e-06
6.31377e-06
6.11361e-06
5.91533e-06
5.71897e-06
5.52456e-06
5.33214e-06
5.14177e-06
4.95347e-06
4.76729e-06
4.58329e-06
4.40151e-06
4.22201e-06
4.04484e-06
3.87006e-06
3.69773e-06
3.52792e-06
3.3607e-06
3.19613e-06
3.0343e-06
2.87529e-06
2.71917e-06
2.56605e-06
2.41602e-06
2.26919e-06
2.12565e-06
1.98553e-06
1.84895e-06
1.71604e-06
1.58692e-06
1.46175e-06
1.34067e-06
1.22382e-06
1.11132e-06
1.00317e-06
8.98882e-07
7.94248e-07
6.92517e-07
5.96044e-07
5.05359e-07
4.2104e-07
3.437e-07
2.73956e-07
2.12377e-07
1.59405e-07
1.15259e-07
7.98368e-08
5.26486e-08
3.28211e-08
1.91785e-08
1.03906e-08
5.142e-09
2.27394e-09
8.68743e-10
2.71274e-10
6.27978e-11
8.91293e-12
5.08513e-13
4.00541e-15
1.48255e-05
1.45809e-05
1.43368e-05
1.40933e-05
1.38504e-05
1.36082e-05
1.33666e-05
1.31258e-05
1.28857e-05
1.26465e-05
1.2406e-05
1.21613e-05
1.19161e-05
1.16718e-05
1.14293e-05
1.11886e-05
1.095e-05
1.07134e-05
1.04787e-05
1.02459e-05
1.00148e-05
9.7855e-06
9.55785e-06
9.33186e-06
9.10749e-06
8.88474e-06
8.6636e-06
8.44406e-06
8.22614e-06
8.00984e-06
7.79518e-06
7.58217e-06
7.37084e-06
7.16121e-06
6.95331e-06
6.74715e-06
6.54277e-06
6.34021e-06
6.13949e-06
5.94064e-06
5.74371e-06
5.54874e-06
5.35575e-06
5.16479e-06
4.97592e-06
4.78916e-06
4.60458e-06
4.42222e-06
4.24213e-06
4.06437e-06
3.889e-06
3.71609e-06
3.54568e-06
3.37786e-06
3.2127e-06
3.05027e-06
2.89065e-06
2.73394e-06
2.58022e-06
2.42958e-06
2.28214e-06
2.13801e-06
1.99729e-06
1.8601e-06
1.72659e-06
1.59688e-06
1.47111e-06
1.34943e-06
1.232e-06
1.11892e-06
1.01022e-06
9.05428e-07
8.00669e-07
6.98382e-07
6.01348e-07
5.10095e-07
4.25206e-07
3.47297e-07
2.76993e-07
2.14871e-07
1.61386e-07
1.1677e-07
8.09353e-08
5.34043e-08
3.33088e-08
1.9471e-08
1.05519e-08
5.22248e-09
2.30951e-09
8.82194e-10
2.75382e-10
6.37108e-11
9.0328e-12
5.14239e-13
4.0318e-15
1.48643e-05
1.46195e-05
1.43751e-05
1.41313e-05
1.38881e-05
1.36455e-05
1.34036e-05
1.31624e-05
1.2922e-05
1.26824e-05
1.24427e-05
1.21981e-05
1.19525e-05
1.17078e-05
1.14646e-05
1.12235e-05
1.09843e-05
1.07471e-05
1.05119e-05
1.02785e-05
1.00469e-05
9.81705e-06
9.5889e-06
9.36241e-06
9.13754e-06
8.9143e-06
8.69267e-06
8.47265e-06
8.25423e-06
8.03745e-06
7.8223e-06
7.6088e-06
7.39698e-06
7.18686e-06
6.97846e-06
6.77181e-06
6.56694e-06
6.36387e-06
6.16265e-06
5.9633e-06
5.76586e-06
5.57038e-06
5.37688e-06
5.18541e-06
4.99602e-06
4.80875e-06
4.62365e-06
4.44076e-06
4.26015e-06
4.08187e-06
3.90597e-06
3.73252e-06
3.56159e-06
3.39323e-06
3.22754e-06
3.06457e-06
2.90442e-06
2.74717e-06
2.59291e-06
2.44174e-06
2.29376e-06
2.14908e-06
2.00782e-06
1.8701e-06
1.73605e-06
1.6058e-06
1.4795e-06
1.3573e-06
1.23934e-06
1.12574e-06
1.01654e-06
9.11305e-07
8.06434e-07
7.03649e-07
6.06111e-07
5.14351e-07
4.28951e-07
3.50533e-07
2.79727e-07
2.17117e-07
1.63171e-07
1.18133e-07
8.19275e-08
5.40875e-08
3.37501e-08
1.97359e-08
1.0698e-08
5.29539e-09
2.34174e-09
8.94381e-10
2.79103e-10
6.45374e-11
9.14123e-12
5.19407e-13
4.05552e-15
1.48985e-05
1.46534e-05
1.44088e-05
1.41647e-05
1.39212e-05
1.36783e-05
1.34361e-05
1.31946e-05
1.29539e-05
1.2714e-05
1.2475e-05
1.22303e-05
1.19845e-05
1.17394e-05
1.14958e-05
1.12541e-05
1.10144e-05
1.07767e-05
1.0541e-05
1.03072e-05
1.00751e-05
9.84482e-06
9.61622e-06
9.38928e-06
9.16399e-06
8.94031e-06
8.71825e-06
8.4978e-06
8.27896e-06
8.06174e-06
7.84616e-06
7.63224e-06
7.41999e-06
7.20944e-06
7.0006e-06
6.79352e-06
6.5882e-06
6.3847e-06
6.18304e-06
5.98324e-06
5.78536e-06
5.58943e-06
5.39548e-06
5.20356e-06
5.01372e-06
4.82599e-06
4.64043e-06
4.45709e-06
4.27602e-06
4.09728e-06
3.92091e-06
3.747e-06
3.5756e-06
3.40678e-06
3.24061e-06
3.07717e-06
2.91655e-06
2.75883e-06
2.60409e-06
2.45245e-06
2.304e-06
2.15885e-06
2.01711e-06
1.87892e-06
1.74439e-06
1.61368e-06
1.48691e-06
1.36424e-06
1.24581e-06
1.13176e-06
1.02212e-06
9.16493e-07
8.11521e-07
7.08298e-07
6.10318e-07
5.1811e-07
4.32261e-07
3.53394e-07
2.82145e-07
2.19106e-07
1.64753e-07
1.19342e-07
8.28079e-08
5.46942e-08
3.41422e-08
1.99714e-08
1.08279e-08
5.36028e-09
2.37042e-09
9.05227e-10
2.82414e-10
6.52725e-11
9.23757e-12
5.23991e-13
4.07648e-15
1.4928e-05
1.46826e-05
1.44378e-05
1.41934e-05
1.39497e-05
1.37066e-05
1.34641e-05
1.32224e-05
1.29814e-05
1.27412e-05
1.25019e-05
1.22579e-05
1.20121e-05
1.17666e-05
1.15226e-05
1.12805e-05
1.10404e-05
1.08023e-05
1.05661e-05
1.03319e-05
1.00994e-05
9.86873e-06
9.63975e-06
9.41244e-06
9.18677e-06
8.96272e-06
8.74029e-06
8.51947e-06
8.30026e-06
8.08267e-06
7.86672e-06
7.65243e-06
7.43981e-06
7.22888e-06
7.01968e-06
6.81221e-06
6.60653e-06
6.40265e-06
6.2006e-06
6.00043e-06
5.80217e-06
5.60585e-06
5.41151e-06
5.21921e-06
5.02897e-06
4.84086e-06
4.6549e-06
4.47117e-06
4.2897e-06
4.11056e-06
3.9338e-06
3.75948e-06
3.58768e-06
3.41846e-06
3.25188e-06
3.08804e-06
2.92701e-06
2.76888e-06
2.61374e-06
2.46169e-06
2.31283e-06
2.16727e-06
2.02513e-06
1.88652e-06
1.75159e-06
1.62047e-06
1.4933e-06
1.37023e-06
1.2514e-06
1.13696e-06
1.02694e-06
9.20972e-07
8.15915e-07
7.12314e-07
6.13952e-07
5.21359e-07
4.35122e-07
3.55869e-07
2.84238e-07
2.20828e-07
1.66124e-07
1.20389e-07
8.35718e-08
5.5221e-08
3.44829e-08
2.01761e-08
1.09409e-08
5.41671e-09
2.39537e-09
9.14661e-10
2.85293e-10
6.59116e-11
9.32126e-12
5.27968e-13
4.09461e-15
1.49526e-05
1.4707e-05
1.4462e-05
1.42175e-05
1.39735e-05
1.37302e-05
1.34875e-05
1.32456e-05
1.30044e-05
1.2764e-05
1.25244e-05
1.22809e-05
1.20351e-05
1.17894e-05
1.15451e-05
1.13026e-05
1.10621e-05
1.08237e-05
1.05872e-05
1.03525e-05
1.01198e-05
9.88875e-06
9.65944e-06
9.43181e-06
9.20583e-06
8.98147e-06
8.75872e-06
8.53759e-06
8.31808e-06
8.10018e-06
7.88393e-06
7.66933e-06
7.4564e-06
7.24516e-06
7.03564e-06
6.82787e-06
6.62186e-06
6.41767e-06
6.21531e-06
6.01481e-06
5.81623e-06
5.61959e-06
5.42493e-06
5.23231e-06
5.04175e-06
4.8533e-06
4.66702e-06
4.48295e-06
4.30116e-06
4.12168e-06
3.94459e-06
3.76994e-06
3.5978e-06
3.42824e-06
3.26133e-06
3.09715e-06
2.93578e-06
2.77731e-06
2.62182e-06
2.46943e-06
2.32023e-06
2.17433e-06
2.03184e-06
1.8929e-06
1.75763e-06
1.62616e-06
1.49865e-06
1.37525e-06
1.25609e-06
1.14132e-06
1.03098e-06
9.2473e-07
8.19599e-07
7.15683e-07
6.17001e-07
5.24085e-07
4.37524e-07
3.57947e-07
2.85996e-07
2.22276e-07
1.67276e-07
1.21271e-07
8.4215e-08
5.56647e-08
3.477e-08
2.03487e-08
1.10362e-08
5.46432e-09
2.41643e-09
9.22621e-10
2.87722e-10
6.64505e-11
9.39179e-12
5.31315e-13
4.10982e-15
1.49723e-05
1.47266e-05
1.44814e-05
1.42368e-05
1.39926e-05
1.37492e-05
1.35063e-05
1.32642e-05
1.30228e-05
1.27822e-05
1.25425e-05
1.22994e-05
1.20535e-05
1.18077e-05
1.15631e-05
1.13203e-05
1.10796e-05
1.08408e-05
1.0604e-05
1.03691e-05
1.01361e-05
9.90481e-06
9.67525e-06
9.44736e-06
9.22112e-06
8.99652e-06
8.77353e-06
8.55215e-06
8.33238e-06
8.11424e-06
7.89774e-06
7.68289e-06
7.46971e-06
7.25822e-06
7.04846e-06
6.84043e-06
6.63418e-06
6.42973e-06
6.22711e-06
6.02636e-06
5.82752e-06
5.63063e-06
5.43571e-06
5.24282e-06
5.052e-06
4.86329e-06
4.67675e-06
4.49242e-06
4.31036e-06
4.13061e-06
3.95325e-06
3.77833e-06
3.60592e-06
3.43609e-06
3.26891e-06
3.10446e-06
2.94282e-06
2.78407e-06
2.62832e-06
2.47565e-06
2.32617e-06
2.18e-06
2.03724e-06
1.89802e-06
1.76248e-06
1.63074e-06
1.50296e-06
1.37928e-06
1.25986e-06
1.14482e-06
1.03423e-06
9.27751e-07
8.22561e-07
7.18392e-07
6.19453e-07
5.26278e-07
4.39456e-07
3.59619e-07
2.87411e-07
2.23442e-07
1.68205e-07
1.21982e-07
8.47338e-08
5.60229e-08
3.50019e-08
2.04881e-08
1.11132e-08
5.5028e-09
2.43344e-09
9.29054e-10
2.89685e-10
6.68859e-11
9.44874e-12
5.34014e-13
4.12206e-15
1.49871e-05
1.47413e-05
1.4496e-05
1.42512e-05
1.4007e-05
1.37634e-05
1.35204e-05
1.32782e-05
1.30367e-05
1.2796e-05
1.25561e-05
1.23132e-05
1.20674e-05
1.18214e-05
1.15767e-05
1.13337e-05
1.10927e-05
1.08537e-05
1.06167e-05
1.03816e-05
1.01484e-05
9.91689e-06
9.68713e-06
9.45906e-06
9.23263e-06
9.00783e-06
8.78465e-06
8.56309e-06
8.34314e-06
8.12482e-06
7.90813e-06
7.69309e-06
7.47972e-06
7.26805e-06
7.05809e-06
6.84988e-06
6.64344e-06
6.4388e-06
6.23599e-06
6.03505e-06
5.83602e-06
5.63893e-06
5.44382e-06
5.25073e-06
5.05972e-06
4.87081e-06
4.68407e-06
4.49954e-06
4.31728e-06
4.13733e-06
3.95977e-06
3.78465e-06
3.61204e-06
3.442e-06
3.27462e-06
3.10996e-06
2.94812e-06
2.78917e-06
2.63321e-06
2.48033e-06
2.33065e-06
2.18427e-06
2.0413e-06
1.90188e-06
1.76613e-06
1.63419e-06
1.5062e-06
1.38232e-06
1.2627e-06
1.14746e-06
1.03667e-06
9.30026e-07
8.24792e-07
7.20432e-07
6.213e-07
5.2793e-07
4.40913e-07
3.6088e-07
2.88479e-07
2.24321e-07
1.68906e-07
1.22519e-07
8.51255e-08
5.62934e-08
3.51771e-08
2.05935e-08
1.11714e-08
5.53189e-09
2.4463e-09
9.33917e-10
2.91169e-10
6.7215e-11
9.49177e-12
5.36052e-13
4.13129e-15
1.4997e-05
1.47512e-05
1.45058e-05
1.42609e-05
1.40166e-05
1.37729e-05
1.35299e-05
1.32875e-05
1.30459e-05
1.28051e-05
1.25651e-05
1.23225e-05
1.20766e-05
1.18306e-05
1.15857e-05
1.13426e-05
1.11015e-05
1.08623e-05
1.06252e-05
1.039e-05
1.01566e-05
9.92496e-06
9.69507e-06
9.46687e-06
9.24031e-06
9.01539e-06
8.79209e-06
8.5704e-06
8.35033e-06
8.13188e-06
7.91506e-06
7.6999e-06
7.48641e-06
7.27461e-06
7.06453e-06
6.85619e-06
6.64962e-06
6.44486e-06
6.24192e-06
6.04086e-06
5.84169e-06
5.64447e-06
5.44923e-06
5.25602e-06
5.06487e-06
4.87583e-06
4.68896e-06
4.5043e-06
4.3219e-06
4.14182e-06
3.96413e-06
3.78887e-06
3.61613e-06
3.44595e-06
3.27843e-06
3.11364e-06
2.95166e-06
2.79257e-06
2.63647e-06
2.48346e-06
2.33364e-06
2.18712e-06
2.04402e-06
1.90446e-06
1.76857e-06
1.63649e-06
1.50837e-06
1.38435e-06
1.26459e-06
1.14923e-06
1.03831e-06
9.31547e-07
8.26283e-07
7.21796e-07
6.22535e-07
5.29035e-07
4.41887e-07
3.61723e-07
2.89193e-07
2.24909e-07
1.69375e-07
1.22878e-07
8.53879e-08
5.64746e-08
3.52944e-08
2.06641e-08
1.12104e-08
5.55139e-09
2.45493e-09
9.37178e-10
2.92164e-10
6.74355e-11
9.5206e-12
5.37417e-13
4.13746e-15
1.5002e-05
1.47561e-05
1.45107e-05
1.42658e-05
1.40214e-05
1.37777e-05
1.35346e-05
1.32922e-05
1.30506e-05
1.28097e-05
1.25697e-05
1.23271e-05
1.20813e-05
1.18352e-05
1.15902e-05
1.1347e-05
1.11058e-05
1.08666e-05
1.06294e-05
1.03941e-05
1.01607e-05
9.929e-06
9.69905e-06
9.47078e-06
9.24416e-06
9.01917e-06
8.79581e-06
8.57406e-06
8.35392e-06
8.13541e-06
7.91854e-06
7.70331e-06
7.48976e-06
7.2779e-06
7.06775e-06
6.85935e-06
6.65272e-06
6.44789e-06
6.24489e-06
6.04376e-06
5.84453e-06
5.64725e-06
5.45194e-06
5.25866e-06
5.06745e-06
4.87835e-06
4.69141e-06
4.50668e-06
4.32422e-06
4.14407e-06
3.96631e-06
3.79099e-06
3.61817e-06
3.44793e-06
3.28034e-06
3.11548e-06
2.95343e-06
2.79427e-06
2.63811e-06
2.48503e-06
2.33514e-06
2.18855e-06
2.04538e-06
1.90575e-06
1.76979e-06