/*--------------------------------*- C++ -*----------------------------------*\
  =========                 |
  \\      /  F ield         | OpenFOAM: The Open Source CFD Toolbox
   \\    /   O peration     | Website:  https://openfoam.org
    \\  /    A nd           | Version:  7
     \\/     M anipulation  |
\*---------------------------------------------------------------------------*/
FoamFile
{
    version     2.0;
    format      ascii;
    class       volScalarField;
    location    "132000";
    object      k;
}
// * * * * * * * * * * * * * * * * * * * * * * * * * * * * * * * * * * * * * //

dimensions      [0 2 -2 0 0 0 0];

internalField   nonuniform List<scalar> 
4825
(
1.2109e-06
1.20888e-06
1.21531e-06
1.21336e-06
1.2114e-06
1.20943e-06
1.20748e-06
1.21959e-06
1.21771e-06
1.2158e-06
1.2139e-06
1.212e-06
1.22373e-06
1.22191e-06
1.22007e-06
1.21823e-06
1.21639e-06
1.22774e-06
1.22598e-06
1.2242e-06
1.22242e-06
1.22063e-06
1.2316e-06
1.2299e-06
1.22819e-06
1.22646e-06
1.22474e-06
1.23531e-06
1.23368e-06
1.23203e-06
1.23036e-06
1.22869e-06
1.23888e-06
1.23731e-06
1.23572e-06
1.23411e-06
1.23251e-06
1.24229e-06
1.24079e-06
1.23926e-06
1.23772e-06
1.23617e-06
1.24555e-06
1.24412e-06
1.24266e-06
1.24117e-06
1.23968e-06
1.24865e-06
1.24729e-06
1.24589e-06
1.24447e-06
1.24304e-06
1.25158e-06
1.25029e-06
1.24896e-06
1.2476e-06
1.24624e-06
1.25435e-06
1.25313e-06
1.25187e-06
1.25057e-06
1.24927e-06
1.25694e-06
1.2558e-06
1.2546e-06
1.25338e-06
1.25936e-06
1.25829e-06
1.25716e-06
1.256e-06
1.26159e-06
1.26059e-06
1.25954e-06
1.25845e-06
1.26364e-06
1.26271e-06
1.26173e-06
1.26549e-06
1.26464e-06
1.26373e-06
1.26714e-06
1.26637e-06
1.26859e-06
1.26789e-06
1.26982e-06
1.2692e-06
1.27083e-06
1.2703e-06
1.27162e-06
1.27116e-06
1.27217e-06
1.12913e-06
1.12615e-06
1.1232e-06
1.12029e-06
1.11742e-06
1.11462e-06
1.11187e-06
1.10921e-06
1.10663e-06
1.10416e-06
1.10179e-06
1.09954e-06
1.09742e-06
1.09543e-06
1.09358e-06
1.09188e-06
1.09033e-06
1.08894e-06
1.08772e-06
1.08666e-06
1.13545e-06
1.13253e-06
1.12964e-06
1.12679e-06
1.12398e-06
1.12122e-06
1.11853e-06
1.11592e-06
1.11339e-06
1.11096e-06
1.10863e-06
1.10642e-06
1.10434e-06
1.10238e-06
1.10057e-06
1.0989e-06
1.09738e-06
1.09601e-06
1.09481e-06
1.09377e-06
1.14164e-06
1.13878e-06
1.13596e-06
1.13316e-06
1.13041e-06
1.12771e-06
1.12507e-06
1.12251e-06
1.12003e-06
1.11764e-06
1.11536e-06
1.11319e-06
1.11114e-06
1.10922e-06
1.10744e-06
1.1058e-06
1.10431e-06
1.10297e-06
1.10178e-06
1.10076e-06
1.14772e-06
1.14492e-06
1.14216e-06
1.13942e-06
1.13673e-06
1.13408e-06
1.13149e-06
1.12898e-06
1.12655e-06
1.1242e-06
1.12197e-06
1.11984e-06
1.11783e-06
1.11594e-06
1.11419e-06
1.11258e-06
1.11112e-06
1.1098e-06
1.10864e-06
1.10764e-06
1.15367e-06
1.15094e-06
1.14824e-06
1.14556e-06
1.14292e-06
1.14033e-06
1.1378e-06
1.13533e-06
1.13294e-06
1.13065e-06
1.12845e-06
1.12636e-06
1.12439e-06
1.12254e-06
1.12083e-06
1.11925e-06
1.11781e-06
1.11652e-06
1.11538e-06
1.1144e-06
1.15951e-06
1.15684e-06
1.1542e-06
1.15158e-06
1.149e-06
1.14646e-06
1.14398e-06
1.14156e-06
1.13922e-06
1.13697e-06
1.13482e-06
1.13277e-06
1.13084e-06
1.12903e-06
1.12734e-06
1.12579e-06
1.12438e-06
1.12312e-06
1.122e-06
1.12103e-06
1.16522e-06
1.16261e-06
1.16003e-06
1.15747e-06
1.15495e-06
1.15246e-06
1.15003e-06
1.14767e-06
1.14538e-06
1.14317e-06
1.14106e-06
1.13906e-06
1.13716e-06
1.13539e-06
1.13374e-06
1.13222e-06
1.13083e-06
1.12959e-06
1.1285e-06
1.12755e-06
1.1708e-06
1.16826e-06
1.16574e-06
1.16325e-06
1.16078e-06
1.15835e-06
1.15597e-06
1.15365e-06
1.15141e-06
1.14925e-06
1.14719e-06
1.14522e-06
1.14336e-06
1.14162e-06
1.14001e-06
1.13852e-06
1.13716e-06
1.13595e-06
1.13487e-06
1.13395e-06
1.13317e-06
1.13254e-06
1.13207e-06
1.13176e-06
1.1316e-06
1.1316e-06
1.13176e-06
1.13208e-06
1.13255e-06
1.13317e-06
1.13395e-06
1.13488e-06
1.13595e-06
1.13716e-06
1.13852e-06
1.17626e-06
1.17379e-06
1.17133e-06
1.16889e-06
1.16648e-06
1.1641e-06
1.16178e-06
1.15951e-06
1.15732e-06
1.15521e-06
1.15318e-06
1.15126e-06
1.14944e-06
1.14774e-06
1.14615e-06
1.1447e-06
1.14337e-06
1.14218e-06
1.14113e-06
1.14022e-06
1.13946e-06
1.13885e-06
1.13838e-06
1.13808e-06
1.13792e-06
1.13792e-06
1.13808e-06
1.13839e-06
1.13885e-06
1.13946e-06
1.14022e-06
1.14113e-06
1.14218e-06
1.14337e-06
1.1447e-06
1.14615e-06
1.14774e-06
1.1816e-06
1.17919e-06
1.17679e-06
1.17441e-06
1.17206e-06
1.16974e-06
1.16746e-06
1.16525e-06
1.1631e-06
1.16104e-06
1.15906e-06
1.15717e-06
1.1554e-06
1.15373e-06
1.15218e-06
1.15075e-06
1.14945e-06
1.14829e-06
1.14726e-06
1.14637e-06
1.14562e-06
1.14502e-06
1.14457e-06
1.14427e-06
1.14412e-06
1.14412e-06
1.14427e-06
1.14457e-06
1.14503e-06
1.14563e-06
1.14637e-06
1.14726e-06
1.14829e-06
1.14945e-06
1.15075e-06
1.15218e-06
1.15373e-06
1.1554e-06
1.18681e-06
1.18446e-06
1.18213e-06
1.17981e-06
1.17751e-06
1.17524e-06
1.17302e-06
1.17086e-06
1.16876e-06
1.16674e-06
1.16481e-06
1.16296e-06
1.16122e-06
1.15959e-06
1.15808e-06
1.15668e-06
1.15541e-06
1.15427e-06
1.15326e-06
1.15239e-06
1.15166e-06
1.15107e-06
1.15063e-06
1.15034e-06
1.15019e-06
1.15019e-06
1.15034e-06
1.15064e-06
1.15108e-06
1.15167e-06
1.15239e-06
1.15326e-06
1.15427e-06
1.15541e-06
1.15668e-06
1.15808e-06
1.15959e-06
1.16122e-06
1.16296e-06
1.1648e-06
1.19189e-06
1.18961e-06
1.18733e-06
1.18507e-06
1.18283e-06
1.18062e-06
1.17845e-06
1.17634e-06
1.17429e-06
1.17232e-06
1.17043e-06
1.16862e-06
1.16692e-06
1.16533e-06
1.16385e-06
1.16248e-06
1.16124e-06
1.16012e-06
1.15914e-06
1.15829e-06
1.15757e-06
1.157e-06
1.15657e-06
1.15628e-06
1.15614e-06
1.15614e-06
1.15628e-06
1.15657e-06
1.157e-06
1.15758e-06
1.15829e-06
1.15914e-06
1.16012e-06
1.16124e-06
1.16248e-06
1.16385e-06
1.16533e-06
1.16692e-06
1.16862e-06
1.17042e-06
1.17232e-06
1.17429e-06
1.19684e-06
1.19462e-06
1.19241e-06
1.19021e-06
1.18802e-06
1.18587e-06
1.18375e-06
1.18169e-06
1.17969e-06
1.17776e-06
1.17592e-06
1.17416e-06
1.1725e-06
1.17094e-06
1.16949e-06
1.16816e-06
1.16694e-06
1.16585e-06
1.16489e-06
1.16406e-06
1.16336e-06
1.1628e-06
1.16238e-06
1.16209e-06
1.16195e-06
1.16195e-06
1.1621e-06
1.16238e-06
1.1628e-06
1.16336e-06
1.16406e-06
1.16489e-06
1.16585e-06
1.16694e-06
1.16816e-06
1.16949e-06
1.17094e-06
1.1725e-06
1.17416e-06
1.17592e-06
1.17776e-06
1.17969e-06
1.18169e-06
1.18375e-06
1.18587e-06
1.20166e-06
1.19951e-06
1.19736e-06
1.19522e-06
1.19309e-06
1.19099e-06
1.18893e-06
1.18691e-06
1.18496e-06
1.18308e-06
1.18128e-06
1.17956e-06
1.17794e-06
1.17642e-06
1.175e-06
1.1737e-06
1.17251e-06
1.17145e-06
1.17051e-06
1.1697e-06
1.16902e-06
1.16847e-06
1.16806e-06
1.16778e-06
1.16764e-06
1.16764e-06
1.16778e-06
1.16806e-06
1.16847e-06
1.16902e-06
1.1697e-06
1.17051e-06
1.17145e-06
1.17251e-06
1.1737e-06
1.175e-06
1.17642e-06
1.17794e-06
1.17956e-06
1.18128e-06
1.18308e-06
1.18496e-06
1.18691e-06
1.18892e-06
1.19098e-06
1.19308e-06
1.19521e-06
1.20634e-06
1.20426e-06
1.20217e-06
1.20009e-06
1.19802e-06
1.19597e-06
1.19397e-06
1.192e-06
1.1901e-06
1.18827e-06
1.18651e-06
1.18483e-06
1.18325e-06
1.18177e-06
1.18039e-06
1.17911e-06
1.17796e-06
1.17692e-06
1.176e-06
1.17521e-06
1.17454e-06
1.17401e-06
1.1736e-06
1.17334e-06
1.1732e-06
1.1732e-06
1.17334e-06
1.17361e-06
1.17401e-06
1.17455e-06
1.17521e-06
1.176e-06
1.17692e-06
1.17796e-06
1.17911e-06
1.18039e-06
1.18177e-06
1.18325e-06
1.18483e-06
1.18651e-06
1.18827e-06
1.1901e-06
1.192e-06
1.19396e-06
1.19597e-06
1.19802e-06
1.20009e-06
1.20217e-06
1.20426e-06
1.20634e-06
1.2109e-06
1.20888e-06
1.20685e-06
1.20483e-06
1.20281e-06
1.20083e-06
1.19887e-06
1.19696e-06
1.19511e-06
1.19332e-06
1.19161e-06
1.18997e-06
1.18843e-06
1.18698e-06
1.18564e-06
1.1844e-06
1.18327e-06
1.18225e-06
1.18136e-06
1.18058e-06
1.17994e-06
1.17941e-06
1.17902e-06
1.17876e-06
1.17863e-06
1.17863e-06
1.17876e-06
1.17903e-06
1.17942e-06
1.17994e-06
1.18059e-06
1.18136e-06
1.18225e-06
1.18327e-06
1.1844e-06
1.18564e-06
1.18698e-06
1.18843e-06
1.18997e-06
1.1916e-06
1.19332e-06
1.19511e-06
1.19696e-06
1.19887e-06
1.20082e-06
1.20281e-06
1.20483e-06
1.20685e-06
1.20888e-06
1.2109e-06
1.21531e-06
1.21336e-06
1.2114e-06
1.20943e-06
1.20748e-06
1.20554e-06
1.20364e-06
1.20178e-06
1.19998e-06
1.19824e-06
1.19657e-06
1.19498e-06
1.19348e-06
1.19206e-06
1.19075e-06
1.18954e-06
1.18844e-06
1.18746e-06
1.18658e-06
1.18583e-06
1.1852e-06
1.18469e-06
1.18431e-06
1.18405e-06
1.18392e-06
1.18392e-06
1.18405e-06
1.18431e-06
1.18469e-06
1.1852e-06
1.18583e-06
1.18659e-06
1.18746e-06
1.18845e-06
1.18955e-06
1.19075e-06
1.19206e-06
1.19347e-06
1.19498e-06
1.19657e-06
1.19824e-06
1.19998e-06
1.20178e-06
1.20364e-06
1.20554e-06
1.20747e-06
1.20943e-06
1.2114e-06
1.21336e-06
1.21531e-06
1.21959e-06
1.21771e-06
1.21581e-06
1.2139e-06
1.212e-06
1.21012e-06
1.20828e-06
1.20647e-06
1.20471e-06
1.20302e-06
1.2014e-06
1.19985e-06
1.19838e-06
1.19701e-06
1.19573e-06
1.19456e-06
1.19349e-06
1.19252e-06
1.19167e-06
1.19094e-06
1.19032e-06
1.18983e-06
1.18946e-06
1.18921e-06
1.18908e-06
1.18908e-06
1.18921e-06
1.18946e-06
1.18983e-06
1.19033e-06
1.19094e-06
1.19168e-06
1.19253e-06
1.19349e-06
1.19456e-06
1.19573e-06
1.19701e-06
1.19838e-06
1.19985e-06
1.2014e-06
1.20302e-06
1.20471e-06
1.20647e-06
1.20827e-06
1.21012e-06
1.212e-06
1.2139e-06
1.2158e-06
1.2177e-06
1.21959e-06
1.22374e-06
1.22191e-06
1.22007e-06
1.21823e-06
1.21639e-06
1.21457e-06
1.21277e-06
1.21102e-06
1.20931e-06
1.20767e-06
1.20609e-06
1.20458e-06
1.20316e-06
1.20182e-06
1.20058e-06
1.19943e-06
1.19839e-06
1.19746e-06
1.19663e-06
1.19591e-06
1.19531e-06
1.19483e-06
1.19447e-06
1.19423e-06
1.19411e-06
1.19411e-06
1.19423e-06
1.19447e-06
1.19484e-06
1.19532e-06
1.19592e-06
1.19663e-06
1.19746e-06
1.19839e-06
1.19943e-06
1.20058e-06
1.20182e-06
1.20316e-06
1.20458e-06
1.20608e-06
1.20766e-06
1.20931e-06
1.21101e-06
1.21277e-06
1.21456e-06
1.21639e-06
1.21823e-06
1.22007e-06
1.22191e-06
1.22373e-06
1.22774e-06
1.22598e-06
1.2242e-06
1.22242e-06
1.22063e-06
1.21887e-06
1.21713e-06
1.21542e-06
1.21377e-06
1.21217e-06
1.21064e-06
1.20917e-06
1.20779e-06
1.20649e-06
1.20528e-06
1.20417e-06
1.20316e-06
1.20225e-06
1.20144e-06
1.20075e-06
1.20017e-06
1.1997e-06
1.19934e-06
1.19911e-06
1.19899e-06
1.19899e-06
1.19911e-06
1.19935e-06
1.1997e-06
1.20017e-06
1.20075e-06
1.20145e-06
1.20225e-06
1.20316e-06
1.20417e-06
1.20528e-06
1.20649e-06
1.20779e-06
1.20917e-06
1.21064e-06
1.21217e-06
1.21377e-06
1.21542e-06
1.21712e-06
1.21886e-06
1.22063e-06
1.22241e-06
1.2242e-06
1.22598e-06
1.22774e-06
1.2316e-06
1.2299e-06
1.22819e-06
1.22646e-06
1.22474e-06
1.22303e-06
1.22134e-06
1.21969e-06
1.21808e-06
1.21653e-06
1.21504e-06
1.21363e-06
1.21228e-06
1.21102e-06
1.20985e-06
1.20877e-06
1.20778e-06
1.2069e-06
1.20612e-06
1.20545e-06
1.20488e-06
1.20442e-06
1.20408e-06
1.20385e-06
1.20374e-06
1.20374e-06
1.20385e-06
1.20408e-06
1.20443e-06
1.20488e-06
1.20545e-06
1.20612e-06
1.2069e-06
1.20779e-06
1.20877e-06
1.20985e-06
1.21102e-06
1.21228e-06
1.21363e-06
1.21504e-06
1.21653e-06
1.21808e-06
1.21969e-06
1.22134e-06
1.22302e-06
1.22473e-06
1.22646e-06
1.22819e-06
1.2299e-06
1.2316e-06
1.23531e-06
1.23368e-06
1.23203e-06
1.23036e-06
1.22869e-06
1.22704e-06
1.22541e-06
1.22381e-06
1.22226e-06
1.22075e-06
1.21931e-06
1.21793e-06
1.21663e-06
1.21541e-06
1.21427e-06
1.21322e-06
1.21227e-06
1.21141e-06
1.21065e-06
1.21e-06
1.20945e-06
1.20901e-06
1.20867e-06
1.20845e-06
1.20834e-06
1.20834e-06
1.20846e-06
1.20868e-06
1.20901e-06
1.20945e-06
1.21e-06
1.21066e-06
1.21141e-06
1.21227e-06
1.21323e-06
1.21427e-06
1.21541e-06
1.21663e-06
1.21793e-06
1.21931e-06
1.22075e-06
1.22226e-06
1.22381e-06
1.22541e-06
1.22704e-06
1.22869e-06
1.23036e-06
1.23203e-06
1.23368e-06
1.23531e-06
1.23888e-06
1.23731e-06
1.23572e-06
1.23411e-06
1.23251e-06
1.23091e-06
1.22933e-06
1.22779e-06
1.22628e-06
1.22483e-06
1.22343e-06
1.2221e-06
1.22084e-06
1.21965e-06
1.21855e-06
1.21753e-06
1.21661e-06
1.21578e-06
1.21504e-06
1.21441e-06
1.21388e-06
1.21345e-06
1.21312e-06
1.21291e-06
1.2128e-06
1.2128e-06
1.21291e-06
1.21313e-06
1.21345e-06
1.21388e-06
1.21441e-06
1.21505e-06
1.21578e-06
1.21661e-06
1.21754e-06
1.21855e-06
1.21965e-06
1.22084e-06
1.2221e-06
1.22343e-06
1.22483e-06
1.22628e-06
1.22779e-06
1.22933e-06
1.23091e-06
1.2325e-06
1.23411e-06
1.23572e-06
1.23731e-06
1.23888e-06
1.24229e-06
1.24079e-06
1.23927e-06
1.23772e-06
1.23617e-06
1.23463e-06
1.23311e-06
1.23161e-06
1.23016e-06
1.22875e-06
1.2274e-06
1.22611e-06
1.22489e-06
1.22375e-06
1.22268e-06
1.2217e-06
1.2208e-06
1.22e-06
1.21929e-06
1.21867e-06
1.21816e-06
1.21774e-06
1.21743e-06
1.21722e-06
1.21712e-06
1.21712e-06
1.21722e-06
1.21743e-06
1.21775e-06
1.21816e-06
1.21868e-06
1.21929e-06
1.22e-06
1.2208e-06
1.2217e-06
1.22268e-06
1.22375e-06
1.22489e-06
1.22611e-06
1.2274e-06
1.22875e-06
1.23016e-06
1.23161e-06
1.2331e-06
1.23463e-06
1.23617e-06
1.23772e-06
1.23926e-06
1.24079e-06
1.24229e-06
1.24555e-06
1.24412e-06
1.24266e-06
1.24117e-06
1.23968e-06
1.2382e-06
1.23673e-06
1.23529e-06
1.23389e-06
1.23253e-06
1.23123e-06
1.22998e-06
1.2288e-06
1.22769e-06
1.22666e-06
1.22571e-06
1.22485e-06
1.22407e-06
1.22338e-06
1.22279e-06
1.22229e-06
1.22189e-06
1.22158e-06
1.22138e-06
1.22128e-06
1.22128e-06
1.22139e-06
1.22159e-06
1.22189e-06
1.22229e-06
1.22279e-06
1.22338e-06
1.22407e-06
1.22485e-06
1.22571e-06
1.22666e-06
1.22769e-06
1.2288e-06
1.22998e-06
1.23123e-06
1.23253e-06
1.23389e-06
1.23529e-06
1.23673e-06
1.2382e-06
1.23968e-06
1.24117e-06
1.24265e-06
1.24412e-06
1.24555e-06
1.24865e-06
1.24729e-06
1.24589e-06
1.24447e-06
1.24304e-06
1.24161e-06
1.2402e-06
1.23882e-06
1.23746e-06
1.23616e-06
1.2349e-06
1.2337e-06
1.23256e-06
1.23149e-06
1.23049e-06
1.22958e-06
1.22874e-06
1.22799e-06
1.22732e-06
1.22675e-06
1.22627e-06
1.22588e-06
1.22559e-06
1.22539e-06
1.2253e-06
1.2253e-06
1.2254e-06
1.22559e-06
1.22589e-06
1.22627e-06
1.22676e-06
1.22733e-06
1.22799e-06
1.22874e-06
1.22958e-06
1.2305e-06
1.23149e-06
1.23256e-06
1.2337e-06
1.2349e-06
1.23616e-06
1.23746e-06
1.23881e-06
1.2402e-06
1.24161e-06
1.24304e-06
1.24447e-06
1.24589e-06
1.24729e-06
1.24865e-06
1.25159e-06
1.25029e-06
1.24896e-06
1.2476e-06
1.24624e-06
1.24487e-06
1.24351e-06
1.24218e-06
1.24088e-06
1.23962e-06
1.23841e-06
1.23726e-06
1.23616e-06
1.23513e-06
1.23417e-06
1.23329e-06
1.23248e-06
1.23176e-06
1.23111e-06
1.23056e-06
1.2301e-06
1.22972e-06
1.22944e-06
1.22925e-06
1.22916e-06
1.22916e-06
1.22926e-06
1.22945e-06
1.22973e-06
1.2301e-06
1.23057e-06
1.23112e-06
1.23176e-06
1.23248e-06
1.23329e-06
1.23417e-06
1.23513e-06
1.23616e-06
1.23726e-06
1.23841e-06
1.23962e-06
1.24088e-06
1.24218e-06
1.24351e-06
1.24487e-06
1.24623e-06
1.2476e-06
1.24896e-06
1.25029e-06
1.25158e-06
1.25435e-06
1.25313e-06
1.25187e-06
1.25058e-06
1.24927e-06
1.24796e-06
1.24667e-06
1.24539e-06
1.24414e-06
1.24293e-06
1.24177e-06
1.24066e-06
1.2396e-06
1.23861e-06
1.23769e-06
1.23684e-06
1.23606e-06
1.23537e-06
1.23475e-06
1.23422e-06
1.23377e-06
1.23341e-06
1.23314e-06
1.23296e-06
1.23287e-06
1.23287e-06
1.23296e-06
1.23314e-06
1.23341e-06
1.23377e-06
1.23422e-06
1.23475e-06
1.23537e-06
1.23606e-06
1.23684e-06
1.23769e-06
1.23861e-06
1.2396e-06
1.24066e-06
1.24177e-06
1.24293e-06
1.24414e-06
1.24539e-06
1.24666e-06
1.24796e-06
1.24927e-06
1.25057e-06
1.25187e-06
1.25313e-06
1.25435e-06
1.25695e-06
1.2558e-06
1.2546e-06
1.25338e-06
1.25213e-06
1.25089e-06
1.24965e-06
1.24843e-06
1.24724e-06
1.24608e-06
1.24496e-06
1.2439e-06
1.24289e-06
1.24194e-06
1.24105e-06
1.24023e-06
1.23949e-06
1.23882e-06
1.23822e-06
1.23771e-06
1.23728e-06
1.23694e-06
1.23668e-06
1.2365e-06
1.23642e-06
1.23642e-06
1.2365e-06
1.23668e-06
1.23694e-06
1.23729e-06
1.23772e-06
1.23823e-06
1.23882e-06
1.23949e-06
1.24023e-06
1.24105e-06
1.24194e-06
1.24289e-06
1.2439e-06
1.24496e-06
1.24608e-06
1.24724e-06
1.24843e-06
1.24965e-06
1.25089e-06
1.25213e-06
1.25337e-06
1.2546e-06
1.2558e-06
1.25694e-06
1.25936e-06
1.25829e-06
1.25716e-06
1.256e-06
1.25482e-06
1.25364e-06
1.25246e-06
1.2513e-06
1.25016e-06
1.24906e-06
1.24799e-06
1.24697e-06
1.246e-06
1.24509e-06
1.24424e-06
1.24346e-06
1.24275e-06
1.2421e-06
1.24154e-06
1.24104e-06
1.24063e-06
1.2403e-06
1.24005e-06
1.23988e-06
1.2398e-06
1.2398e-06
1.23989e-06
1.24005e-06
1.2403e-06
1.24064e-06
1.24105e-06
1.24154e-06
1.24211e-06
1.24275e-06
1.24346e-06
1.24425e-06
1.24509e-06
1.246e-06
1.24697e-06
1.24799e-06
1.24906e-06
1.25016e-06
1.2513e-06
1.25246e-06
1.25364e-06
1.25482e-06
1.256e-06
1.25716e-06
1.25829e-06
1.25936e-06
1.26159e-06
1.2606e-06
1.25954e-06
1.25845e-06
1.25733e-06
1.25621e-06
1.2551e-06
1.254e-06
1.25291e-06
1.25186e-06
1.25084e-06
1.24987e-06
1.24895e-06
1.24808e-06
1.24727e-06
1.24652e-06
1.24584e-06
1.24522e-06
1.24468e-06
1.24421e-06
1.24382e-06
1.2435e-06
1.24326e-06
1.2431e-06
1.24302e-06
1.24302e-06
1.2431e-06
1.24326e-06
1.2435e-06
1.24382e-06
1.24422e-06
1.24468e-06
1.24523e-06
1.24584e-06
1.24652e-06
1.24727e-06
1.24808e-06
1.24895e-06
1.24987e-06
1.25085e-06
1.25186e-06
1.25291e-06
1.25399e-06
1.2551e-06
1.25621e-06
1.25733e-06
1.25845e-06
1.25954e-06
1.26059e-06
1.26159e-06
1.26364e-06
1.26271e-06
1.26173e-06
1.26071e-06
1.25966e-06
1.25861e-06
1.25755e-06
1.25651e-06
1.25548e-06
1.25448e-06
1.25352e-06
1.25259e-06
1.25172e-06
1.25089e-06
1.25012e-06
1.2494e-06
1.24875e-06
1.24817e-06
1.24765e-06
1.2472e-06
1.24683e-06
1.24652e-06
1.2463e-06
1.24614e-06
1.24607e-06
1.24607e-06
1.24615e-06
1.2463e-06
1.24653e-06
1.24683e-06
1.24721e-06
1.24766e-06
1.24817e-06
1.24876e-06
1.24941e-06
1.25012e-06
1.25089e-06
1.25172e-06
1.2526e-06
1.25352e-06
1.25448e-06
1.25548e-06
1.25651e-06
1.25755e-06
1.2586e-06
1.25966e-06
1.26071e-06
1.26173e-06
1.26271e-06
1.26364e-06
1.26549e-06
1.26464e-06
1.26373e-06
1.26278e-06
1.2618e-06
1.26081e-06
1.25982e-06
1.25884e-06
1.25787e-06
1.25692e-06
1.25601e-06
1.25513e-06
1.2543e-06
1.25352e-06
1.25279e-06
1.25211e-06
1.25149e-06
1.25094e-06
1.25044e-06
1.25002e-06
1.24966e-06
1.24937e-06
1.24915e-06
1.24901e-06
1.24894e-06
1.24894e-06
1.24901e-06
1.24916e-06
1.24938e-06
1.24966e-06
1.25002e-06
1.25045e-06
1.25094e-06
1.25149e-06
1.25211e-06
1.25279e-06
1.25352e-06
1.2543e-06
1.25514e-06
1.25601e-06
1.25692e-06
1.25787e-06
1.25883e-06
1.25982e-06
1.26081e-06
1.2618e-06
1.26278e-06
1.26373e-06
1.26464e-06
1.26549e-06
1.26714e-06
1.26637e-06
1.26553e-06
1.26465e-06
1.26374e-06
1.26282e-06
1.26189e-06
1.26097e-06
1.26006e-06
1.25917e-06
1.25831e-06
1.25749e-06
1.2567e-06
1.25596e-06
1.25527e-06
1.25463e-06
1.25404e-06
1.25352e-06
1.25305e-06
1.25265e-06
1.25231e-06
1.25204e-06
1.25183e-06
1.25169e-06
1.25162e-06
1.25162e-06
1.25169e-06
1.25183e-06
1.25204e-06
1.25231e-06
1.25265e-06
1.25306e-06
1.25352e-06
1.25405e-06
1.25463e-06
1.25527e-06
1.25596e-06
1.2567e-06
1.25749e-06
1.25831e-06
1.25917e-06
1.26006e-06
1.26097e-06
1.26189e-06
1.26282e-06
1.26374e-06
1.26465e-06
1.26553e-06
1.26637e-06
1.26714e-06
1.26859e-06
1.26789e-06
1.26713e-06
1.26632e-06
1.26548e-06
1.26462e-06
1.26376e-06
1.2629e-06
1.26205e-06
1.26122e-06
1.26042e-06
1.25964e-06
1.2589e-06
1.25821e-06
1.25756e-06
1.25695e-06
1.2564e-06
1.25591e-06
1.25547e-06
1.25509e-06
1.25477e-06
1.25451e-06
1.25432e-06
1.25419e-06
1.25412e-06
1.25412e-06
1.25419e-06
1.25432e-06
1.25451e-06
1.25477e-06
1.25509e-06
1.25547e-06
1.25591e-06
1.25641e-06
1.25696e-06
1.25756e-06
1.25821e-06
1.25891e-06
1.25964e-06
1.26042e-06
1.26122e-06
1.26205e-06
1.2629e-06
1.26376e-06
1.26462e-06
1.26548e-06
1.26632e-06
1.26713e-06
1.26789e-06
1.26859e-06
1.26982e-06
1.2692e-06
1.26852e-06
1.26778e-06
1.26701e-06
1.26622e-06
1.26543e-06
1.26464e-06
1.26385e-06
1.26307e-06
1.26232e-06
1.2616e-06
1.26091e-06
1.26026e-06
1.25965e-06
1.25908e-06
1.25857e-06
1.2581e-06
1.25769e-06
1.25733e-06
1.25703e-06
1.25679e-06
1.25661e-06
1.25648e-06
1.25642e-06
1.25642e-06
1.25649e-06
1.25661e-06
1.25679e-06
1.25703e-06
1.25734e-06
1.25769e-06
1.2581e-06
1.25857e-06
1.25909e-06
1.25965e-06
1.26026e-06
1.26091e-06
1.2616e-06
1.26232e-06
1.26307e-06
1.26385e-06
1.26463e-06
1.26543e-06
1.26622e-06
1.26701e-06
1.26778e-06
1.26852e-06
1.2692e-06
1.26982e-06
1.27083e-06
1.2703e-06
1.26969e-06
1.26903e-06
1.26833e-06
1.26761e-06
1.26688e-06
1.26615e-06
1.26543e-06
1.26471e-06
1.26402e-06
1.26335e-06
1.26271e-06
1.2621e-06
1.26153e-06
1.26101e-06
1.26052e-06
1.26009e-06
1.2597e-06
1.25937e-06
1.25909e-06
1.25886e-06
1.25869e-06
1.25858e-06
1.25852e-06
1.25852e-06
1.25858e-06
1.2587e-06
1.25887e-06
1.25909e-06
1.25938e-06
1.25971e-06
1.26009e-06
1.26053e-06
1.26101e-06
1.26153e-06
1.2621e-06
1.26271e-06
1.26335e-06
1.26402e-06
1.26471e-06
1.26543e-06
1.26615e-06
1.26688e-06
1.26761e-06
1.26833e-06
1.26902e-06
1.26969e-06
1.2703e-06
1.27083e-06
1.27162e-06
1.27117e-06
1.27063e-06
1.27005e-06
1.26942e-06
1.26878e-06
1.26812e-06
1.26746e-06
1.26679e-06
1.26614e-06
1.2655e-06
1.26488e-06
1.26429e-06
1.26373e-06
1.2632e-06
1.26272e-06
1.26227e-06
1.26187e-06
1.26151e-06
1.2612e-06
1.26094e-06
1.26073e-06
1.26057e-06
1.26047e-06
1.26041e-06
1.26041e-06
1.26047e-06
1.26057e-06
1.26073e-06
1.26094e-06
1.26121e-06
1.26152e-06
1.26187e-06
1.26227e-06
1.26272e-06
1.26321e-06
1.26373e-06
1.26429e-06
1.26488e-06
1.2655e-06
1.26614e-06
1.26679e-06
1.26745e-06
1.26812e-06
1.26878e-06
1.26942e-06
1.27005e-06
1.27063e-06
1.27116e-06
1.27162e-06
1.27217e-06
1.2718e-06
1.27135e-06
1.27084e-06
1.27029e-06
1.26972e-06
1.26913e-06
1.26853e-06
1.26793e-06
1.26734e-06
1.26675e-06
1.26619e-06
1.26565e-06
1.26514e-06
1.26466e-06
1.26421e-06
1.2638e-06
1.26343e-06
1.2631e-06
1.26281e-06
1.26257e-06
1.26238e-06
1.26223e-06
1.26214e-06
1.26209e-06
1.26209e-06
1.26214e-06
1.26224e-06
1.26238e-06
1.26258e-06
1.26282e-06
1.2631e-06
1.26343e-06
1.2638e-06
1.26421e-06
1.26466e-06
1.26514e-06
1.26565e-06
1.26619e-06
1.26675e-06
1.26734e-06
1.26793e-06
1.26853e-06
1.26912e-06
1.26971e-06
1.27029e-06
1.27084e-06
1.27135e-06
1.2718e-06
1.27217e-06
1.27248e-06
1.27219e-06
1.27182e-06
1.27139e-06
1.27092e-06
1.27042e-06
1.2699e-06
1.26937e-06
1.26883e-06
1.2683e-06
1.26778e-06
1.26727e-06
1.26678e-06
1.26632e-06
1.26588e-06
1.26547e-06
1.2651e-06
1.26476e-06
1.26446e-06
1.2642e-06
1.26398e-06
1.26381e-06
1.26367e-06
1.26358e-06
1.26354e-06
1.26354e-06
1.26358e-06
1.26367e-06
1.26381e-06
1.26399e-06
1.26421e-06
1.26447e-06
1.26477e-06
1.2651e-06
1.26548e-06
1.26588e-06
1.26632e-06
1.26678e-06
1.26727e-06
1.26778e-06
1.2683e-06
1.26883e-06
1.26937e-06
1.2699e-06
1.27041e-06
1.27091e-06
1.27139e-06
1.27182e-06
1.27219e-06
1.27248e-06
1.27253e-06
1.27233e-06
1.27204e-06
1.27169e-06
1.27129e-06
1.27087e-06
1.27042e-06
1.26997e-06
1.2695e-06
1.26903e-06
1.26857e-06
1.26811e-06
1.26768e-06
1.26726e-06
1.26687e-06
1.2665e-06
1.26617e-06
1.26586e-06
1.26559e-06
1.26536e-06
1.26516e-06
1.265e-06
1.26488e-06
1.2648e-06
1.26476e-06
1.26476e-06
1.2648e-06
1.26488e-06
1.265e-06
1.26516e-06
1.26536e-06
1.2656e-06
1.26587e-06
1.26617e-06
1.26651e-06
1.26687e-06
1.26726e-06
1.26768e-06
1.26811e-06
1.26857e-06
1.26903e-06
1.2695e-06
1.26996e-06
1.27042e-06
1.27087e-06
1.27129e-06
1.27169e-06
1.27204e-06
1.27233e-06
1.27253e-06
1.27232e-06
1.27221e-06
1.272e-06
1.27173e-06
1.27142e-06
1.27107e-06
1.2707e-06
1.27031e-06
1.26991e-06
1.26951e-06
1.2691e-06
1.26871e-06
1.26832e-06
1.26796e-06
1.26761e-06
1.26729e-06
1.26699e-06
1.26672e-06
1.26648e-06
1.26627e-06
1.26609e-06
1.26595e-06
1.26584e-06
1.26577e-06
1.26573e-06
1.26573e-06
1.26577e-06
1.26584e-06
1.26595e-06
1.2661e-06
1.26627e-06
1.26648e-06
1.26672e-06
1.26699e-06
1.26729e-06
1.26762e-06
1.26796e-06
1.26833e-06
1.26871e-06
1.2691e-06
1.2695e-06
1.26991e-06
1.27031e-06
1.2707e-06
1.27107e-06
1.27142e-06
1.27173e-06
1.272e-06
1.2722e-06
1.27184e-06
1.27181e-06
1.27169e-06
1.27151e-06
1.27127e-06
1.271e-06
1.27071e-06
1.27039e-06
1.27006e-06
1.26972e-06
1.26938e-06
1.26904e-06
1.26872e-06
1.2684e-06
1.2681e-06
1.26782e-06
1.26756e-06
1.26733e-06
1.26712e-06
1.26693e-06
1.26678e-06
1.26665e-06
1.26656e-06
1.26649e-06
1.26646e-06
1.26646e-06
1.26649e-06
1.26656e-06
1.26665e-06
1.26678e-06
1.26694e-06
1.26712e-06
1.26733e-06
1.26756e-06
1.26782e-06
1.2681e-06
1.2684e-06
1.26872e-06
1.26904e-06
1.26938e-06
1.26972e-06
1.27006e-06
1.27039e-06
1.27071e-06
1.271e-06
1.27127e-06
1.2715e-06
1.27169e-06
1.27107e-06
1.27113e-06
1.2711e-06
1.271e-06
1.27085e-06
1.27066e-06
1.27044e-06
1.2702e-06
1.26994e-06
1.26967e-06
1.26939e-06
1.26911e-06
1.26884e-06
1.26858e-06
1.26832e-06
1.26809e-06
1.26787e-06
1.26767e-06
1.26749e-06
1.26733e-06
1.2672e-06
1.26709e-06
1.26701e-06
1.26696e-06
1.26693e-06
1.26693e-06
1.26696e-06
1.26701e-06
1.26709e-06
1.2672e-06
1.26734e-06
1.26749e-06
1.26767e-06
1.26787e-06
1.26809e-06
1.26833e-06
1.26858e-06
1.26884e-06
1.26911e-06
1.26939e-06
1.26967e-06
1.26994e-06
1.2702e-06
1.27044e-06
1.27066e-06
1.27085e-06
1.271e-06
1.27e-06
1.27015e-06
1.27021e-06
1.2702e-06
1.27013e-06
1.27003e-06
1.26989e-06
1.26972e-06
1.26954e-06
1.26933e-06
1.26912e-06
1.2689e-06
1.26869e-06
1.26848e-06
1.26827e-06
1.26808e-06
1.2679e-06
1.26774e-06
1.26759e-06
1.26746e-06
1.26735e-06
1.26726e-06
1.26719e-06
1.26715e-06
1.26712e-06
1.26712e-06
1.26715e-06
1.26719e-06
1.26726e-06
1.26735e-06
1.26746e-06
1.26759e-06
1.26774e-06
1.2679e-06
1.26808e-06
1.26828e-06
1.26848e-06
1.26869e-06
1.2689e-06
1.26912e-06
1.26933e-06
1.26953e-06
1.26972e-06
1.26989e-06
1.27003e-06
1.27013e-06
1.26862e-06
1.26887e-06
1.26902e-06
1.2691e-06
1.26912e-06
1.26909e-06
1.26904e-06
1.26895e-06
1.26883e-06
1.2687e-06
1.26855e-06
1.2684e-06
1.26824e-06
1.26809e-06
1.26793e-06
1.26779e-06
1.26765e-06
1.26752e-06
1.26741e-06
1.2673e-06
1.26722e-06
1.26715e-06
1.26709e-06
1.26705e-06
1.26704e-06
1.26704e-06
1.26706e-06
1.26709e-06
1.26715e-06
1.26722e-06
1.26731e-06
1.26741e-06
1.26752e-06
1.26765e-06
1.26779e-06
1.26794e-06
1.26809e-06
1.26824e-06
1.2684e-06
1.26855e-06
1.2687e-06
1.26883e-06
1.26895e-06
1.26903e-06
1.26909e-06
1.26691e-06
1.26726e-06
1.2675e-06
1.26767e-06
1.26778e-06
1.26784e-06
1.26787e-06
1.26786e-06
1.26782e-06
1.26776e-06
1.26768e-06
1.26759e-06
1.26749e-06
1.26739e-06
1.26729e-06
1.26719e-06
1.2671e-06
1.26701e-06
1.26692e-06
1.26685e-06
1.26679e-06
1.26673e-06
1.26669e-06
1.26667e-06
1.26665e-06
1.26666e-06
1.26667e-06
1.2667e-06
1.26674e-06
1.26679e-06
1.26685e-06
1.26693e-06
1.26701e-06
1.2671e-06
1.2672e-06
1.2673e-06
1.2674e-06
1.2675e-06
1.26759e-06
1.26768e-06
1.26776e-06
1.26782e-06
1.26786e-06
1.26787e-06
1.26784e-06
1.26486e-06
1.2653e-06
1.26565e-06
1.26591e-06
1.26611e-06
1.26627e-06
1.26638e-06
1.26645e-06
1.26649e-06
1.2665e-06
1.26649e-06
1.26647e-06
1.26643e-06
1.26638e-06
1.26634e-06
1.26628e-06
1.26623e-06
1.26618e-06
1.26613e-06
1.26609e-06
1.26605e-06
1.26601e-06
1.26599e-06
1.26597e-06
1.26596e-06
1.26596e-06
1.26597e-06
1.26599e-06
1.26602e-06
1.26605e-06
1.26609e-06
1.26613e-06
1.26618e-06
1.26623e-06
1.26629e-06
1.26634e-06
1.26639e-06
1.26643e-06
1.26647e-06
1.26649e-06
1.2665e-06
1.26649e-06
1.26645e-06
1.26637e-06
1.26626e-06
1.26245e-06
1.263e-06
1.26344e-06
1.2638e-06
1.2641e-06
1.26434e-06
1.26454e-06
1.2647e-06
1.26482e-06
1.2649e-06
1.26496e-06
1.265e-06
1.26503e-06
1.26504e-06
1.26505e-06
1.26505e-06
1.26504e-06
1.26503e-06
1.26501e-06
1.265e-06
1.26498e-06
1.26497e-06
1.26496e-06
1.26495e-06
1.26495e-06
1.26495e-06
1.26495e-06
1.26496e-06
1.26497e-06
1.26499e-06
1.265e-06
1.26502e-06
1.26503e-06
1.26504e-06
1.26505e-06
1.26505e-06
1.26505e-06
1.26503e-06
1.26501e-06
1.26496e-06
1.2649e-06
1.26481e-06
1.26469e-06
1.26454e-06
1.26434e-06
1.25966e-06
1.26031e-06
1.26086e-06
1.26132e-06
1.26171e-06
1.26205e-06
1.26234e-06
1.26258e-06
1.26278e-06
1.26295e-06
1.26308e-06
1.26319e-06
1.26328e-06
1.26336e-06
1.26342e-06
1.26346e-06
1.2635e-06
1.26353e-06
1.26355e-06
1.26356e-06
1.26358e-06
1.26358e-06
1.26359e-06
1.26359e-06
1.26359e-06
1.26359e-06
1.26359e-06
1.26359e-06
1.26359e-06
1.26358e-06
1.26357e-06
1.26355e-06
1.26353e-06
1.2635e-06
1.26347e-06
1.26342e-06
1.26336e-06
1.26329e-06
1.26319e-06
1.26308e-06
1.26295e-06
1.26278e-06
1.26258e-06
1.26234e-06
1.26205e-06
1.25647e-06
1.25723e-06
1.25789e-06
1.25845e-06
1.25894e-06
1.25938e-06
1.25976e-06
1.26009e-06
1.26038e-06
1.26062e-06
1.26083e-06
1.26101e-06
1.26117e-06
1.2613e-06
1.26142e-06
1.26152e-06
1.2616e-06
1.26167e-06
1.26173e-06
1.26177e-06
1.26181e-06
1.26184e-06
1.26186e-06
1.26188e-06
1.26188e-06
1.26188e-06
1.26188e-06
1.26186e-06
1.26184e-06
1.26182e-06
1.26178e-06
1.26173e-06
1.26167e-06
1.2616e-06
1.26152e-06
1.26142e-06
1.26131e-06
1.26117e-06
1.26101e-06
1.26083e-06
1.26062e-06
1.26037e-06
1.26009e-06
1.25976e-06
1.25937e-06
1.25286e-06
1.25374e-06
1.2545e-06
1.25517e-06
1.25576e-06
1.2563e-06
1.25678e-06
1.2572e-06
1.25757e-06
1.2579e-06
1.25819e-06
1.25844e-06
1.25866e-06
1.25886e-06
1.25904e-06
1.25919e-06
1.25932e-06
1.25943e-06
1.25953e-06
1.25961e-06
1.25967e-06
1.25972e-06
1.25976e-06
1.25978e-06
1.2598e-06
1.2598e-06
1.25978e-06
1.25976e-06
1.25972e-06
1.25967e-06
1.25961e-06
1.25953e-06
1.25944e-06
1.25932e-06
1.25919e-06
1.25904e-06
1.25887e-06
1.25867e-06
1.25844e-06
1.25819e-06
1.2579e-06
1.25757e-06
1.2572e-06
1.25677e-06
1.2563e-06
1.24881e-06
1.24981e-06
1.25068e-06
1.25146e-06
1.25216e-06
1.2528e-06
1.25337e-06
1.25389e-06
1.25435e-06
1.25476e-06
1.25513e-06
1.25546e-06
1.25575e-06
1.25602e-06
1.25625e-06
1.25646e-06
1.25664e-06
1.2568e-06
1.25693e-06
1.25704e-06
1.25713e-06
1.2572e-06
1.25726e-06
1.25729e-06
1.25731e-06
1.25731e-06
1.2573e-06
1.25726e-06
1.25721e-06
1.25714e-06
1.25704e-06
1.25693e-06
1.2568e-06
1.25664e-06
1.25646e-06
1.25625e-06
1.25602e-06
1.25576e-06
1.25546e-06
1.25513e-06
1.25476e-06
1.25435e-06
1.25389e-06
1.25337e-06
1.24429e-06
1.24541e-06
1.2464e-06
1.24729e-06
1.2481e-06
1.24884e-06
1.24952e-06
1.25014e-06
1.25069e-06
1.25119e-06
1.25164e-06
1.25204e-06
1.25241e-06
1.25274e-06
1.25304e-06
1.2533e-06
1.25353e-06
1.25373e-06
1.25391e-06
1.25405e-06
1.25417e-06
1.25427e-06
1.25434e-06
1.25439e-06
1.25441e-06
1.25441e-06
1.25439e-06
1.25434e-06
1.25427e-06
1.25418e-06
1.25406e-06
1.25391e-06
1.25374e-06
1.25353e-06
1.2533e-06
1.25304e-06
1.25274e-06
1.25241e-06
1.25204e-06
1.25164e-06
1.25119e-06
1.25069e-06
1.25013e-06
1.24952e-06
1.23928e-06
1.24052e-06
1.24163e-06
1.24263e-06
1.24356e-06
1.24441e-06
1.2452e-06
1.24591e-06
1.24656e-06
1.24715e-06
1.24768e-06