/*--------------------------------*- C++ -*----------------------------------*\
  =========                 |
  \\      /  F ield         | OpenFOAM: The Open Source CFD Toolbox
   \\    /   O peration     | Website:  https://openfoam.org
    \\  /    A nd           | Version:  7
     \\/     M anipulation  |
\*---------------------------------------------------------------------------*/
FoamFile
{
    version     2.0;
    format      ascii;
    class       volVectorField;
    location    "132000";
    object      vorticity;
}
// * * * * * * * * * * * * * * * * * * * * * * * * * * * * * * * * * * * * * //

dimensions      [0 0 -1 0 0 0 0];

internalField   nonuniform List<vector> 
4825
(
(0.0241234 0.0221545 2.16878e-17)
(0.0239808 0.0218676 1.94468e-17)
(0.0246165 0.0226349 2.40404e-17)
(0.0244868 0.0223275 2.11048e-17)
(0.0249465 0.0213908 2.66966e-17)
(0.0253819 0.0204491 1.21893e-17)
(0.0257937 0.019504 1.02428e-17)
(0.025125 0.0231297 2.37677e-17)
(0.0250069 0.0228002 2.11472e-17)
(0.025476 0.0218431 2.89611e-17)
(0.0259207 0.020881 1.60118e-17)
(0.0263414 0.0199153 1.23363e-17)
(0.0256516 0.023642 2.22195e-17)
(0.0255416 0.0232863 2.10238e-17)
(0.0260202 0.0223082 2.92905e-17)
(0.0264746 0.0213249 1.77131e-17)
(0.0269043 0.0203381 1.23434e-17)
(0.0261971 0.0241728 2.08332e-17)
(0.0260913 0.0237869 2.20452e-17)
(0.02658 0.0227865 2.81472e-17)
(0.0270442 0.0217814 1.87651e-17)
(0.0274832 0.0207729 1.14766e-17)
(0.0267606 0.0247218 2.14432e-17)
(0.0266593 0.0243049 2.35916e-17)
(0.0271572 0.0232797 2.69071e-17)
(0.0276303 0.0222512 1.97709e-17)
(0.0280787 0.0212202 1.03504e-17)
(0.0273421 0.0252885 2.31523e-17)
(0.02725 0.0248443 2.43294e-17)
(0.0277557 0.0237913 2.56259e-17)
(0.0282363 0.022737 2.06372e-17)
(0.0286932 0.0216816 8.79723e-18)
(0.0279418 0.0258729 2.37914e-17)
(0.0278635 0.0254044 2.47709e-17)
(0.028378 0.0243238 2.49171e-17)
(0.0288668 0.0232426 2.18311e-17)
(0.0293306 0.0221605 7.06328e-18)
(0.0285603 0.026475 2.37371e-17)
(0.0284976 0.0259831 2.5134e-17)
(0.0290233 0.0248759 2.46517e-17)
(0.0295219 0.0237681 2.27843e-17)
(0.0299935 0.0226589 5.50015e-18)
(0.029198 0.0270953 2.28199e-17)
(0.0291513 0.0265794 2.54625e-17)
(0.0296896 0.025446 2.48345e-17)
(0.0301995 0.0243117 2.3504e-17)
(0.0306809 0.0231756 3.89126e-18)
(0.0298554 0.0277343 2.09962e-17)
(0.0298247 0.0271934 2.5462e-17)
(0.0303765 0.0260337 2.55539e-17)
(0.0308985 0.0248726 2.45892e-17)
(0.0313909 0.0237095 1.92358e-18)
(0.0305333 0.0283928 1.88175e-17)
(0.0305184 0.0278256 2.5107e-17)
(0.0310843 0.0266391 2.66764e-17)
(0.0316189 0.0254506 2.5666e-17)
(0.0321232 0.02426 1.38704e-18)
(0.0312324 0.0290717 1.67915e-17)
(0.0312332 0.0284769 2.51439e-17)
(0.0318135 0.0272628 2.80518e-17)
(0.0323614 0.0260462 2.68328e-17)
(0.032878 0.0248274 2.05516e-18)
(0.0319538 0.029772 1.51938e-17)
(0.0319703 0.0291484 2.54738e-17)
(0.0325652 0.0279056 2.88954e-17)
(0.0331267 0.0266601 2.77137e-17)
(0.0326986 0.0304948 1.41769e-17)
(0.032731 0.0298411 2.54195e-17)
(0.0333407 0.0285687 2.87895e-17)
(0.0339161 0.0272932 2.96777e-17)
(0.0334679 0.0312412 1.33032e-17)
(0.0335164 0.0305564 2.48641e-17)
(0.0341412 0.0292531 2.78585e-17)
(0.0347308 0.0279466 3.21523e-17)
(0.0342632 0.0320125 1.19793e-17)
(0.034328 0.0312954 2.39414e-17)
(0.0349682 0.0299601 2.8162e-17)
(0.0350857 0.0328102 1.05956e-17)
(0.0351672 0.0320596 2.32526e-17)
(0.0358232 0.030691 2.98521e-17)
(0.0359371 0.0336356 8.84389e-18)
(0.0360357 0.0328503 2.28418e-17)
(0.0368188 0.0344903 6.18606e-18)
(0.0369349 0.033669 2.27509e-17)
(0.0377326 0.0353759 3.43465e-18)
(0.0378666 0.0345173 2.25143e-17)
(0.0386803 0.0362941 6.48952e-19)
(0.0388327 0.0353969 2.44406e-17)
(0.0396636 0.0372467 1.59431e-19)
(0.039835 0.0363094 2.80015e-17)
(0.0406847 0.0382358 6.77777e-19)
(-0.0162201 0.0180608 8.73128e-18)
(-0.0162025 0.0177516 1.60296e-18)
(-0.0155264 0.0180797 5.27299e-18)
(-0.0148474 0.0183903 -3.00775e-18)
(-0.0141657 0.0186841 -5.33038e-19)
(-0.0134816 0.0189617 8.33733e-19)
(-0.0127955 0.0192232 -8.36564e-18)
(-0.0121078 0.0194692 -8.55087e-18)
(-0.0114188 0.0196998 -8.0569e-18)
(-0.0107288 0.0199153 -8.95321e-18)
(-0.010038 0.0201161 -8.66773e-18)
(-0.0093465 0.0203024 -7.28109e-18)
(-0.0086546 0.0204743 2.52143e-18)
(-0.00796238 0.0206322 1.21044e-18)
(-0.00726997 0.0207762 -3.97204e-18)
(-0.00657745 0.0209064 -1.16743e-17)
(-0.00588488 0.0210232 -1.56947e-17)
(-0.00519232 0.0211266 -1.38182e-17)
(-0.00449981 0.0212168 -7.48857e-18)
(-0.00380736 0.0212939 -7.0022e-18)
(-0.0165544 0.0184006 9.28337e-18)
(-0.0165209 0.0181015 3.77157e-18)
(-0.0158313 0.0184367 6.98675e-18)
(-0.0151388 0.018754 -2.12348e-18)
(-0.0144435 0.0190542 1.84195e-18)
(-0.0137458 0.0193377 2.27958e-18)
(-0.0130461 0.0196049 -7.07714e-18)
(-0.0123448 0.0198561 -7.94413e-18)
(-0.0116421 0.0200916 -7.59333e-18)
(-0.0109385 0.0203117 -8.03837e-18)
(-0.010234 0.0205168 -8.17072e-18)
(-0.00952894 0.0207069 -7.3225e-18)
(-0.00882345 0.0208825 2.15696e-18)
(-0.00811765 0.0210437 1.307e-19)
(-0.00741167 0.0211907 -4.57285e-18)
(-0.00670559 0.0213238 -1.13056e-17)
(-0.00599949 0.021443 -1.42574e-17)
(-0.0052934 0.0215486 -1.25312e-17)
(-0.00458738 0.0216406 -6.71758e-18)
(-0.00388144 0.0217193 -6.0843e-18)
(-0.0168961 0.0187482 7.54377e-18)
(-0.0168464 0.0184593 4.6762e-18)
(-0.016143 0.0188018 7.81859e-18)
(-0.0154367 0.0191259 -1.94097e-18)
(-0.0147275 0.0194325 3.31644e-18)
(-0.0140158 0.0197221 2.59922e-18)
(-0.0133022 0.0199949 -6.77613e-18)
(-0.0125869 0.0202515 -8.88132e-18)
(-0.0118704 0.020492 -7.95501e-18)
(-0.0111528 0.0207168 -6.99032e-18)
(-0.0104344 0.0209262 -7.84115e-18)
(-0.00971539 0.0211204 -7.46792e-18)
(-0.00899599 0.0212997 1.26618e-18)
(-0.00827631 0.0214642 -1.29324e-18)
(-0.00755646 0.0216143 -5.44381e-18)
(-0.00683653 0.0217502 -1.09818e-17)
(-0.00611659 0.0218719 -1.35262e-17)
(-0.00539669 0.0219797 -1.20737e-17)
(-0.00467686 0.0220736 -6.70716e-18)
(-0.00395712 0.022154 -5.3221e-18)
(-0.0172455 0.0191039 5.62717e-18)
(-0.0171793 0.0188253 5.08936e-18)
(-0.0164618 0.0191751 8.21313e-18)
(-0.0157413 0.0195062 -2.09391e-18)
(-0.0150179 0.0198194 3.74765e-18)
(-0.014292 0.0201151 2.24831e-18)
(-0.0135641 0.0203938 -7.16634e-18)
(-0.0128346 0.0206558 -1.08685e-17)
(-0.0121037 0.0209014 -8.72539e-18)
(-0.0113719 0.0211309 -6.06332e-18)
(-0.0106392 0.0213447 -7.94184e-18)
(-0.00990599 0.021543 -7.64981e-18)
(-0.00917237 0.021726 3.03728e-19)
(-0.00843849 0.0218941 -2.79265e-18)
(-0.00770445 0.0220473 -5.99325e-18)
(-0.00697036 0.022186 -1.07992e-17)
(-0.00623628 0.0223102 -1.29627e-17)
(-0.00550225 0.0224202 -1.18319e-17)
(-0.00476831 0.0225162 -7.37083e-18)
(-0.00403448 0.0225981 -4.72601e-18)
(-0.0176028 0.0194679 5.02869e-18)
(-0.0175199 0.0191997 5.73748e-18)
(-0.016788 0.0195571 8.83602e-18)
(-0.016053 0.0198953 -3.01487e-18)
(-0.015315 0.0202151 3.93574e-18)
(-0.0145745 0.0205171 2.21426e-18)
(-0.013832 0.0208017 -7.55935e-18)
(-0.0130878 0.0210692 -1.28233e-17)
(-0.0123424 0.02132 -9.56281e-18)
(-0.0115959 0.0215544 -5.44949e-18)
(-0.0108487 0.0217727 -8.18209e-18)
(-0.0101009 0.0219751 -7.69584e-18)
(-0.00935273 0.022162 -4.78046e-19)
(-0.00860432 0.0223335 -3.74833e-18)
(-0.00785578 0.02249 -6.29813e-18)
(-0.0071072 0.0226315 -1.04535e-17)
(-0.00635865 0.0227583 -1.22493e-17)
(-0.00561017 0.0228706 -1.19185e-17)
(-0.00486181 0.0229686 -8.3519e-18)
(-0.00411356 0.0230522 -4.01609e-18)
(-0.0179684 0.0198406 4.46696e-18)
(-0.0178685 0.0195829 6.13225e-18)
(-0.0171218 0.019948 9.73321e-18)
(-0.0163719 0.0202934 -4.21204e-18)
(-0.015619 0.02062 4.44246e-18)
(-0.0148635 0.0209285 2.24528e-18)
(-0.0141061 0.0212191 -8.4447e-18)
(-0.013347 0.0214923 -1.42212e-17)
(-0.0125866 0.0217483 -1.02669e-17)
(-0.0118251 0.0219877 -5.12146e-18)
(-0.011063 0.0222105 -8.71185e-18)
(-0.0103003 0.0224172 -7.51388e-18)
(-0.00953722 0.0226079 -1.15812e-18)
(-0.00877395 0.0227831 -4.48132e-18)
(-0.00801056 0.0229427 -6.3584e-18)
(-0.00724716 0.0230872 -9.91404e-18)
(-0.00648381 0.0232166 -1.16067e-17)
(-0.00572056 0.0233313 -1.21914e-17)
(-0.00495743 0.0234312 -9.43427e-18)
(-0.00419444 0.0235166 -3.3078e-18)
(-0.0183426 0.0202223 3.40289e-18)
(-0.0182254 0.0199752 6.47556e-18)
(-0.0174635 0.0203482 1.04881e-17)
(-0.0166984 0.0207009 -5.0583e-18)
(-0.0159302 0.0210345 5.11712e-18)
(-0.0151594 0.0213495 1.70819e-18)
(-0.0143866 0.0216462 -9.36277e-18)
(-0.0136122 0.0219252 -1.4535e-17)
(-0.0128364 0.0221867 -1.06566e-17)
(-0.0120597 0.022431 -5.11897e-18)
(-0.0112823 0.0226585 -9.58915e-18)
(-0.0105043 0.0228695 -7.26821e-18)
(-0.00972601 0.0230642 -1.73669e-18)
(-0.00894751 0.023243 -4.88867e-18)
(-0.00816893 0.0234059 -6.04674e-18)
(-0.00739036 0.0235534 -9.21928e-18)
(-0.00661187 0.0236855 -1.1118e-17)
(-0.00583349 0.0238025 -1.27046e-17)
(-0.00505526 0.0239045 -1.02582e-17)
(-0.00427719 0.0239917 -2.59824e-18)
(-0.0187256 0.0206133 2.53234e-18)
(-0.0185909 0.020377 7.00038e-18)
(-0.0178135 0.020758 1.16481e-17)
(-0.0170327 0.0211182 -6.04227e-18)
(-0.0162488 0.0214589 5.16979e-18)
(-0.0154623 0.0217805 5.40989e-19)
(-0.0146738 0.0220836 -9.9754e-18)
(-0.0138837 0.0223684 -1.43022e-17)
(-0.0130923 0.0226354 -1.0647e-17)
(-0.0122999 0.0228848 -5.24975e-18)
(-0.0115068 0.0231171 -1.08286e-17)
(-0.0107132 0.0233325 -6.70306e-18)
(-0.00991924 0.0235313 -2.03811e-18)
(-0.00912516 0.0237137 -4.67252e-18)
(-0.00833103 0.02388 -5.44495e-18)
(-0.00753693 0.0240305 -8.61913e-18)
(-0.00674293 0.0241654 -1.0675e-17)
(-0.00594908 0.0242848 -1.34556e-17)
(-0.00515539 0.0243888 -1.11608e-17)
(-0.00436188 0.0244778 -2.10925e-18)
(-0.00356853 0.0245517 -6.71507e-18)
(-0.00277535 0.0246107 -6.24912e-18)
(-0.00198229 0.0246549 -4.09663e-18)
(-0.00118933 0.0246843 -1.11698e-17)
(-0.000396425 0.024699 -4.52804e-18)
(0.000396456 0.024699 7.90696e-18)
(0.00118936 0.0246843 1.37953e-18)
(0.00198232 0.0246549 4.67495e-18)
(0.00277537 0.0246107 3.47743e-18)
(0.00356856 0.0245517 2.78826e-18)
(0.00436189 0.0244778 -1.13793e-18)
(0.0051554 0.0243889 -3.64096e-18)
(0.00594909 0.0242848 6.82428e-18)
(0.00674295 0.0241654 1.10856e-19)
(0.00753695 0.0240306 -5.37555e-18)
(-0.019118 0.021014 1.94415e-18)
(-0.0189653 0.0207887 7.4541e-18)
(-0.018172 0.0211778 1.23283e-17)
(-0.0173752 0.0215457 -6.84356e-18)
(-0.0165752 0.0218936 4.62366e-18)
(-0.0157726 0.022222 -7.36459e-19)
(-0.014968 0.0225315 -9.93099e-18)
(-0.0141617 0.0228223 -1.37117e-17)
(-0.0133542 0.0230949 -1.02886e-17)
(-0.0125458 0.0233496 -5.34821e-18)
(-0.0117366 0.0235867 -1.2164e-17)
(-0.010927 0.0238065 -6.27412e-18)
(-0.0101171 0.0240094 -2.28701e-18)
(-0.00930707 0.0241957 -3.69765e-18)
(-0.008497 0.0243654 -5.05154e-18)
(-0.007687 0.024519 -8.53678e-18)
(-0.00687712 0.0246566 -1.04068e-17)
(-0.00606741 0.0247785 -1.37696e-17)
(-0.00525789 0.0248847 -1.21859e-17)
(-0.00444857 0.0249754 -2.19293e-18)
(-0.00363944 0.0250509 -5.68605e-18)
(-0.00283048 0.0251111 -6.14073e-18)
(-0.00202166 0.0251562 -3.19215e-18)
(-0.00121295 0.0251862 -1.03239e-17)
(-0.000404298 0.0252012 -4.59565e-18)
(0.000404329 0.0252012 7.5327e-18)
(0.00121298 0.0251862 2.39852e-18)
(0.00202169 0.0251562 6.00252e-18)
(0.00283051 0.0251111 3.90872e-18)
(0.00363947 0.0250509 2.92634e-18)
(0.00444859 0.0249755 -5.2058e-19)
(0.00525791 0.0248847 -2.63036e-18)
(0.00606742 0.0247785 6.93165e-18)
(0.00687713 0.0246567 2.25612e-20)
(0.00768701 0.0245191 -4.7148e-18)
(0.00849701 0.0243655 -3.53066e-18)
(0.00930707 0.0241957 -1.29741e-18)
(-0.0195199 0.0214247 1.40903e-18)
(-0.019349 0.0212106 7.82909e-18)
(-0.0185394 0.0216079 1.3244e-17)
(-0.0177261 0.0219837 -7.29858e-18)
(-0.0169096 0.022339 4.01543e-18)
(-0.0160905 0.0226744 -8.21704e-19)
(-0.0152694 0.0229904 -9.10586e-18)
(-0.0144466 0.0232873 -1.35839e-17)
(-0.0136226 0.0235656 -9.59508e-18)
(-0.0127977 0.0238256 -5.63932e-18)
(-0.0119721 0.0240677 -1.30378e-17)
(-0.0111461 0.0242921 -6.26467e-18)
(-0.0103198 0.0244992 -2.80177e-18)
(-0.00949338 0.0246893 -2.12747e-18)
(-0.00866699 0.0248626 -4.77259e-18)
(-0.00784069 0.0250193 -9.21014e-18)
(-0.00701455 0.0251597 -1.0345e-17)
(-0.0061886 0.0252841 -1.32156e-17)
(-0.00536287 0.0253925 -1.30592e-17)
(-0.00453737 0.0254851 -2.71213e-18)
(-0.00371206 0.025562 -5.05198e-18)
(-0.00288695 0.0256235 -6.42554e-18)
(-0.00206199 0.0256695 -2.7932e-18)
(-0.00123714 0.0257001 -9.85281e-18)
(-0.00041236 0.0257154 -5.02629e-18)
(0.000412392 0.0257154 6.67363e-18)
(0.00123717 0.0257001 3.23995e-18)
(0.00206201 0.0256695 6.94381e-18)
(0.00288697 0.0256235 3.49317e-18)
(0.00371209 0.025562 2.86767e-18)
(0.00453738 0.0254851 8.99184e-20)
(0.00536289 0.0253925 -2.10925e-18)
(0.00618862 0.0252841 5.82563e-18)
(0.00701456 0.0251598 -1.04513e-18)
(0.00784071 0.0250193 -5.16805e-18)
(0.008667 0.0248626 -2.13755e-18)
(0.00949339 0.0246893 1.27685e-19)
(0.0103198 0.0244993 -8.28879e-20)
(-0.0199317 0.0218459 1.95078e-18)
(-0.0197424 0.0216431 7.79312e-18)
(-0.018916 0.0220489 1.42407e-17)
(-0.0180858 0.0224326 -7.35014e-18)
(-0.0172524 0.0227955 4.49775e-18)
(-0.0164164 0.023138 2.26617e-19)
(-0.0155783 0.0234606 -8.98322e-18)
(-0.0147386 0.0237638 -1.37856e-17)
(-0.0138977 0.024048 -8.56695e-18)
(-0.0130558 0.0243134 -6.42792e-18)
(-0.0122134 0.0245605 -1.39487e-17)
(-0.0113705 0.0247896 -6.66654e-18)
(-0.0105274 0.025001 -2.83662e-18)
(-0.00968428 0.025195 -3.87553e-19)
(-0.00884116 0.0253719 -4.78793e-18)
(-0.00799816 0.0255318 -1.00234e-17)
(-0.00715535 0.0256752 -1.03828e-17)
(-0.00631277 0.025802 -1.27495e-17)
(-0.00547043 0.0259126 -1.39623e-17)
(-0.00462833 0.0260071 -2.76636e-18)
(-0.00378646 0.0260857 -4.74941e-18)
(-0.00294479 0.0261483 -7.01427e-18)
(-0.00210329 0.0261953 -2.57662e-18)
(-0.00126192 0.0262265 -9.82546e-18)
(-0.000420619 0.0262421 -5.56923e-18)
(0.000420652 0.0262421 5.84741e-18)
(0.00126195 0.0262265 3.8931e-18)
(0.00210332 0.0261953 7.54649e-18)
(0.00294482 0.0261484 2.69853e-18)
(0.00378648 0.0260857 2.73114e-18)
(0.00462835 0.0260071 6.69396e-19)
(0.00547044 0.0259126 -1.79592e-18)
(0.00631278 0.025802 4.00343e-18)
(0.00715537 0.0256752 -2.35016e-18)
(0.00799818 0.0255319 -5.56081e-18)
(0.00884117 0.0253719 -1.91085e-18)
(0.00968429 0.0251951 5.4231e-19)
(0.0105275 0.0250011 9.1533e-19)
(0.0113705 0.0247897 -7.5536e-18)
(0.0122134 0.0245606 -1.70039e-17)
(-0.0203539 0.022278 2.89037e-18)
(-0.0201457 0.0220867 7.10119e-18)
(-0.0193021 0.0225011 1.48753e-17)
(-0.0184547 0.022893 -6.71361e-18)
(-0.0176039 0.0232635 5.5953e-18)
(-0.0167504 0.0236133 1.29004e-18)
(-0.015895 0.0239427 -1.02135e-17)
(-0.0150379 0.0242523 -1.46388e-17)
(-0.0141796 0.0245425 -7.34785e-18)
(-0.0133205 0.0248135 -6.89056e-18)
(-0.0124607 0.0250657 -1.48615e-17)
(-0.0116006 0.0252996 -7.22631e-18)
(-0.0107403 0.0255154 -2.51781e-18)
(-0.00987995 0.0257134 8.14497e-19)
(-0.00901968 0.0258939 -4.85841e-18)
(-0.00815956 0.0260571 -1.05468e-17)
(-0.00729966 0.0262034 -1.02585e-17)
(-0.00644002 0.0263328 -1.21275e-17)
(-0.00558065 0.0264457 -1.45422e-17)
(-0.00472155 0.0265421 -2.73456e-18)
(-0.00386271 0.0266223 -4.6718e-18)
(-0.00300408 0.0266862 -7.29425e-18)
(-0.00214563 0.0267341 -2.14272e-18)
(-0.00128731 0.026766 -9.97978e-18)
(-0.000429083 0.0267819 -5.98739e-18)
(0.000429117 0.0267819 5.30168e-18)
(0.00128735 0.026766 4.72615e-18)
(0.00214566 0.0267341 8.12307e-18)
(0.0030041 0.0266862 1.976e-18)
(0.00386273 0.0266223 2.7554e-18)
(0.00472157 0.0265421 1.07174e-18)
(0.00558067 0.0264457 -1.4415e-18)
(0.00644003 0.0263329 2.78238e-18)
(0.00729968 0.0262034 -3.28266e-18)
(0.00815957 0.0260571 -5.72252e-18)
(0.00901969 0.0258939 -2.69402e-18)
(0.00987996 0.0257134 3.74609e-19)
(0.0107403 0.0255154 1.12155e-18)
(0.0116006 0.0252996 -7.53172e-18)
(0.0124607 0.0250658 -1.80932e-17)
(0.0133205 0.0248135 4.73882e-18)
(0.0141796 0.0245425 4.90708e-18)
(-0.0207869 0.0227213 3.72043e-18)
(-0.0205595 0.0225417 6.34657e-18)
(-0.0196983 0.0229649 1.49931e-17)
(-0.018833 0.0233651 -5.5634e-18)
(-0.0179643 0.0237435 6.59811e-18)
(-0.0170931 0.0241007 1.60851e-18)
(-0.0162197 0.0244372 -1.24894e-17)
(-0.0153448 0.0247533 -1.5448e-17)
(-0.0144688 0.0250495 -5.46847e-18)
(-0.0135918 0.0253262 -7.01851e-18)
(-0.0127144 0.0255838 -1.58521e-17)
(-0.0118365 0.0258225 -8.07023e-18)
(-0.0109586 0.0260427 -2.52278e-18)
(-0.0100806 0.0262448 1.46031e-18)
(-0.00920271 0.026429 -4.31081e-18)
(-0.00832503 0.0265956 -1.07641e-17)
(-0.00744761 0.0267449 -1.00646e-17)
(-0.00657048 0.026877 -1.17333e-17)
(-0.00569366 0.0269922 -1.53197e-17)
(-0.00481713 0.0270906 -2.84101e-18)
(-0.00394087 0.0271723 -4.47319e-18)
(-0.00306485 0.0272376 -7.32111e-18)
(-0.00218903 0.0272864 -1.79161e-18)
(-0.00131335 0.027319 -1.00791e-17)
(-0.00043776 0.0273352 -6.38593e-18)
(0.000437794 0.0273352 5.05634e-18)
(0.00131338 0.027319 5.71912e-18)
(0.00218906 0.0272864 8.75952e-18)
(0.00306487 0.0272376 1.41031e-18)
(0.00394089 0.0271723 3.29118e-18)
(0.00481714 0.0270906 1.31833e-18)
(0.00569367 0.0269922 -1.76615e-18)
(0.0065705 0.026877 1.84433e-18)
(0.00744763 0.0267449 -4.18296e-18)
(0.00832505 0.0265957 -5.56208e-18)
(0.00920272 0.0264291 -3.10198e-18)
(0.0100806 0.0262449 1.21722e-20)
(0.0109586 0.0260428 8.62079e-19)
(0.0118365 0.0258225 -8.17936e-18)
(0.0127144 0.0255838 -1.93726e-17)
(0.0135918 0.0253263 5.06686e-18)
(0.0144688 0.0250496 5.74534e-18)
(0.0153448 0.0247534 4.22488e-18)
(0.0162197 0.0244372 8.94438e-18)
(0.0170931 0.0241008 1.57462e-17)
(-0.021231 0.0231763 4.7354e-18)
(-0.0209841 0.0230088 5.9879e-18)
(-0.0201048 0.0234409 1.52195e-17)
(-0.0192212 0.0238496 -4.16941e-18)
(-0.0183342 0.0242361 7.23677e-18)
(-0.0174446 0.0246009 1.98784e-18)
(-0.0165529 0.0249444 -1.47662e-17)
(-0.0156597 0.0252673 -1.61854e-17)
(-0.0147654 0.0255697 -3.81382e-18)
(-0.0138702 0.0258522 -6.95003e-18)
(-0.0129745 0.0261151 -1.68001e-17)
(-0.0120785 0.0263588 -9.14692e-18)
(-0.0111824 0.0265836 -3.0107e-18)
(-0.0102864 0.0267899 2.40784e-18)
(-0.00939044 0.0269779 -3.31704e-18)
(-0.00849475 0.0271479 -1.09268e-17)
(-0.00759936 0.0273003 -1.01906e-17)
(-0.00670429 0.0274351 -1.18195e-17)
(-0.00580955 0.0275526 -1.60809e-17)
(-0.00491514 0.027653 -2.77139e-18)
(-0.00402103 0.0277364 -4.12988e-18)
(-0.00312718 0.027803 -7.37471e-18)
(-0.00223353 0.0278528 -1.61781e-18)
(-0.00134005 0.027886 -9.86676e-18)
(-0.000446659 0.0279026 -6.8447e-18)
(0.000446694 0.0279026 5.03941e-18)
(0.00134008 0.027886 6.81556e-18)
(0.00223356 0.0278528 9.31667e-18)
(0.0031272 0.027803 8.97422e-19)
(0.00402105 0.0277364 3.91868e-18)
(0.00491516 0.027653 1.68635e-18)
(0.00580957 0.0275526 -1.95341e-18)
(0.0067043 0.0274351 1.38361e-18)
(0.00759938 0.0273003 -5.47046e-18)
(0.00849477 0.027148 -5.82025e-18)
(0.00939045 0.0269779 -2.90763e-18)
(0.0102864 0.0267899 -3.69042e-21)
(0.0111824 0.0265837 4.52949e-19)
(0.0120785 0.0263588 -9.18357e-18)
(0.0129745 0.0261151 -2.02065e-17)
(0.0138702 0.0258522 4.81805e-18)
(0.0147654 0.0255697 5.29803e-18)
(0.0156597 0.0252673 4.65159e-18)
(0.0165529 0.0249445 8.95856e-18)
(0.0174446 0.0246009 1.57439e-17)
(0.0183342 0.0242361 1.77358e-17)
(0.0192212 0.0238496 2.11806e-17)
(-0.0216867 0.0236435 5.83267e-18)
(-0.02142 0.0234883 6.23622e-18)
(-0.0205221 0.0239295 1.54206e-17)
(-0.0196197 0.0243469 -3.01164e-18)
(-0.0187138 0.0247416 7.6006e-18)
(-0.0178054 0.0251142 2.58201e-18)
(-0.0168949 0.025465 -1.68595e-17)
(-0.0159829 0.0257947 -1.73093e-17)
(-0.0150698 0.0261035 -2.86512e-18)
(-0.0141559 0.0263919 -6.22627e-18)
(-0.0132415 0.0266603 -1.74299e-17)
(-0.0123269 0.0269091 -1.0147e-17)
(-0.0114121 0.0271386 -3.07152e-18)
(-0.0104975 0.0273491 3.64994e-18)
(-0.00958306 0.027541 -2.41475e-18)
(-0.00866889 0.0277146 -1.11049e-17)
(-0.00775504 0.02787 -1.06259e-17)
(-0.00684157 0.0280076 -1.20521e-17)
(-0.00592846 0.0281275 -1.63923e-17)
(-0.0050157 0.02823 -2.82973e-18)
(-0.00410327 0.0283151 -3.79809e-18)
(-0.00319112 0.028383 -7.38373e-18)
(-0.00227919 0.0284339 -1.32563e-18)
(-0.00136744 0.0284677 -9.2603e-18)
(-0.000455788 0.0284847 -7.40938e-18)
(0.000455823 0.0284847 4.97846e-18)
(0.00136747 0.0284677 7.88331e-18)
(0.00227922 0.0284339 9.88689e-18)
(0.00319114 0.028383 3.66052e-19)
(0.00410329 0.0283151 4.43965e-18)
(0.00501572 0.02823 2.27937e-18)
(0.00592847 0.0281275 -2.10042e-18)
(0.00684158 0.0280076 1.22987e-18)
(0.00775506 0.02787 -6.56656e-18)
(0.0086689 0.0277146 -6.49622e-18)
(0.00958307 0.0275411 -2.52598e-18)
(0.0104975 0.0273492 -1.20179e-19)
(0.0114121 0.0271386 -1.57081e-19)
(0.0123269 0.0269091 -9.69688e-18)
(0.0132415 0.0266604 -2.00077e-17)
(0.0141559 0.026392 4.32643e-18)
(0.0150698 0.0261035 4.09058e-18)
(0.0159829 0.0257947 3.93316e-18)
(0.0168949 0.0254651 8.0041e-18)
(0.0178054 0.0251142 1.4911e-17)
(0.0187138 0.0247416 1.82122e-17)
(0.0196197 0.0243469 2.12141e-17)
(0.0205221 0.0239295 1.18642e-17)
(0.02142 0.0234883 6.86025e-18)
(0.0216867 0.0236435 3.1706e-17)
(-0.0221545 0.0241234 6.72647e-18)
(-0.0218676 0.0239808 6.47704e-18)
(-0.0209506 0.0244311 1.55543e-17)
(-0.0200289 0.0248574 -1.828e-18)
(-0.0191036 0.0252606 8.23006e-18)
(-0.0181758 0.0256411 2.91362e-18)
(-0.017246 0.0259995 -1.82095e-17)
(-0.0163147 0.0263361 -1.83897e-17)
(-0.0153823 0.0266515 -2.38475e-18)
(-0.0144491 0.026946 -5.30118e-18)
(-0.0135156 0.02722 -1.77677e-17)
(-0.0125818 0.027474 -1.08218e-17)
(-0.0116479 0.0277082 -2.95717e-18)
(-0.0107142 0.0279232 4.64806e-18)
(-0.00978076 0.028119 -1.66824e-18)
(-0.00884761 0.0282961 -1.14033e-17)
(-0.00791483 0.0284548 -1.12663e-17)
(-0.00698246 0.0285952 -1.21964e-17)
(-0.00605049 0.0287175 -1.62472e-17)
(-0.00511891 0.0288221 -3.31141e-18)
(-0.00418767 0.0289089 -3.51152e-18)
(-0.00325674 0.0289782 -7.45624e-18)
(-0.00232606 0.0290301 -8.38082e-19)
(-0.00139555 0.0290647 -8.34953e-18)
(-0.000465157 0.0290819 -8.17454e-18)
(0.000465193 0.029082 4.78018e-18)
(0.00139558 0.0290647 9.03499e-18)
(0.00232608 0.0290301 1.03078e-17)
(0.00325676 0.0289782 -5.07763e-19)
(0.0041877 0.0289089 5.10322e-18)
(0.00511893 0.0288221 3.18258e-18)
(0.0060505 0.0287175 -1.94259e-18)
(0.00698248 0.0285952 1.19746e-18)
(0.00791485 0.0284548 -7.5722e-18)
(0.00884763 0.0282961 -7.58497e-18)
(0.00978077 0.028119 -2.48626e-18)
(0.0107142 0.0279232 -3.95354e-19)
(0.0116479 0.0277083 -4.54923e-19)
(0.0125818 0.027474 -9.71979e-18)
(0.0135156 0.0272201 -1.94649e-17)
(0.0144491 0.026946 3.6061e-18)
(0.0153823 0.0266515 2.84935e-18)
(0.0163147 0.0263362 3.01741e-18)
(0.017246 0.0259995 6.82876e-18)
(0.0181758 0.0256412 1.40361e-17)
(0.0191036 0.0252606 1.75933e-17)
(0.0200289 0.0248575 2.09617e-17)
(0.0209506 0.0244312 1.10859e-17)
(0.0218676 0.0239808 7.90691e-18)
(0.0221544 0.0241234 3.36098e-17)
(-0.0226349 0.0246165 7.64088e-18)
(-0.0223275 0.0244868 6.5746e-18)
(-0.0213908 0.0249464 1.60212e-17)
(-0.0204491 0.0253819 -3.39886e-19)
(-0.019504 0.0257937 8.95556e-18)
(-0.0185562 0.0261824 3.00566e-18)
(-0.0176065 0.0265484 -1.86388e-17)
(-0.0166554 0.0268922 -1.9777e-17)
(-0.0157032 0.0272142 -2.5011e-18)
(-0.0147503 0.0275149 -4.97558e-18)
(-0.013797 0.0277947 -1.79049e-17)
(-0.0128435 0.028054 -1.10546e-17)
(-0.01189 0.0282931 -2.79358e-18)
(-0.0109368 0.0285125 5.01209e-18)
(-0.00998376 0.0287124 -1.40255e-18)
(-0.00903112 0.0288932 -1.14907e-17)
(-0.0080789 0.0290551 -1.14489e-17)
(-0.00712712 0.0291984 -1.19839e-17)
(-0.00617578 0.0293233 -1.64049e-17)
(-0.00522487 0.02943 -4.03702e-18)
(-0.00427433 0.0295186 -3.32959e-18)
(-0.00332412 0.0295893 -7.5629e-18)
(-0.00237417 0.0296423 -1.87387e-19)
(-0.00142441 0.0296775 -7.269e-18)
(-0.000474777 0.0296951 -9.01652e-18)
(0.000474812 0.0296951 4.4216e-18)
(0.00142444 0.0296775 1.04404e-17)
(0.00237419 0.0296423 1.08035e-17)
(0.00332414 0.0295893 -1.54945e-18)
(0.00427435 0.0295186 5.53436e-18)
(0.00522489 0.02943 4.18908e-18)
(0.0061758 0.0293233 -1.48802e-18)
(0.00712714 0.0291984 1.20934e-18)
(0.00807892 0.0290551 -7.96255e-18)
(0.00903114 0.0288932 -8.23013e-18)
(0.00998377 0.0287125 -2.93767e-18)
(0.0109368 0.0285126 -1.06697e-18)
(0.01189 0.0282932 -6.11736e-19)
(0.0128435 0.028054 -9.41777e-18)
(0.013797 0.0277948 -1.89745e-17)
(0.0147503 0.0275149 2.64318e-18)
(0.0157032 0.0272142 1.1775e-18)
(0.0166554 0.0268922 2.35261e-18)
(0.0176065 0.0265484 6.81878e-18)
(0.0185563 0.0261824 1.44584e-17)
(0.019504 0.0257937 1.63233e-17)
(0.0204491 0.0253819 2.04928e-17)
(0.0213908 0.0249465 1.03568e-17)
(0.0223275 0.0244868 7.31638e-18)
(0.0226348 0.0246165 3.31373e-17)
(-0.0231297 0.025125 8.16704e-18)
(-0.0228002 0.0250069 7.46633e-18)
(-0.0218431 0.025476 1.63982e-17)
(-0.020881 0.0259207 1.39886e-18)
(-0.0199153 0.0263414 9.24206e-18)
(-0.0189471 0.0267384 2.99405e-18)
(-0.017977 0.0271123 -1.90148e-17)
(-0.0170054 0.0274634 -2.16589e-17)
(-0.0160329 0.0277923 -3.02479e-18)
(-0.0150596 0.0280993 -4.82439e-18)
(-0.0140861 0.0283851 -1.80537e-17)
(-0.0131124 0.0286498 -1.09979e-17)
(-0.0121387 0.0288939 -2.3951e-18)
(-0.0111653 0.0291179 4.70732e-18)
(-0.0101923 0.029322 -1.58024e-18)
(-0.00921961 0.0295065 -1.13783e-17)
(-0.00824741 0.0296717 -1.08964e-17)
(-0.0072757 0.0298179 -1.16746e-17)
(-0.00630447 0.0299454 -1.67588e-17)
(-0.00533369 0.0300543 -4.44824e-18)
(-0.00436333 0.0301447 -3.41271e-18)
(-0.00339331 0.0302169 -7.83438e-18)
(-0.00242358 0.0302709 4.18762e-19)
(-0.00145405 0.0303069 -6.18023e-18)
(-0.000484656 0.0303248 -9.60369e-18)
(0.000484691 0.0303248 4.19008e-18)
(0.00145408 0.0303069 1.18606e-17)
(0.0024236 0.0302709 1.12137e-17)
(0.00339333 0.0302169 -2.56635e-18)
(0.00436335 0.0301447 5.90332e-18)
(0.00533371 0.0300542 5.28698e-18)
(0.00630448 0.0299454 -8.56218e-19)
(0.00727571 0.0298179 1.33338e-18)
(0.00824743 0.0296717 -7.99297e-18)
(0.00921963 0.0295065 -8.86439e-18)
(0.0101923 0.029322 -3.38497e-18)
(0.0111653 0.0291179 -1.53536e-18)
(0.0121387 0.028894 -5.22008e-19)
(0.0131124 0.0286498 -9.06357e-18)
(0.0140861 0.0283851 -1.84692e-17)
(0.0150596 0.0280994 1.9338e-18)
(0.0160329 0.0277923 -1.06414e-18)
(0.0170054 0.0274635 1.33269e-18)
(0.017977 0.0271123 6.91805e-18)
(0.0189471 0.0267385 1.54152e-17)
(0.0199153 0.0263414 1.48792e-17)
(0.020881 0.0259208 2.00562e-17)
(0.0218431 0.025476 1.04198e-17)
(0.0228002 0.025007 6.4451e-18)
(0.0231297 0.025125 3.14345e-17)
(-0.023642 0.0256516 8.0229e-18)
(-0.0232863 0.0255416 8.77574e-18)
(-0.0223082 0.0260202 1.64382e-17)
(-0.0213249 0.0264746 3.15943e-18)
(-0.0203381 0.0269043 9.33418e-18)
(-0.0193489 0.02731 3.04748e-18)
(-0.0183577 0.0276918 -1.93049e-17)
(-0.0173652 0.0280505 -2.35894e-17)
(-0.0163717 0.0283864 -3.95994e-18)
(-0.0153776 0.0287 -4.76697e-18)
(-0.0143832 0.0289917 -1.85392e-17)
(-0.0133887 0.029262 -1.05353e-17)
(-0.0123943 0.0295113 -1.36533e-18)
(-0.0114002 0.0297399 4.322e-18)
(-0.0104065 0.0299482 -2.06921e-18)
(-0.00941329 0.0301366 -1.08366e-17)
(-0.00842056 0.0303052 -9.7132e-18)
(-0.00742836 0.0304545 -1.15875e-17)
(-0.00643669 0.0305845 -1.73189e-17)
(-0.00544551 0.0306956 -4.5781e-18)
(-0.00445477 0.0307879 -3.62138e-18)
(-0.00346441 0.0308616 -8.31365e-18)
(-0.00247434 0.0309167 7.95728e-19)
(-0.0014845 0.0309534 -5.02128e-18)
(-0.000494806 0.0309718 -9.55409e-18)
(0.000494841 0.0309718 4.39039e-18)
(0.00148454 0.0309534 1.29816e-17)
(0.00247437 0.0309167 1.14717e-17)
(0.00346443 0.0308616 -3.57793e-18)
(0.00445479 0.0307879 6.23607e-18)
(0.00544553 0.0306956 6.36004e-18)
(0.0064367 0.0305846 -2.26003e-19)
(0.00742838 0.0304545 1.15006e-18)
(0.00842058 0.0303052 -7.75299e-18)
(0.00941331 0.0301366 -8.84044e-18)
(0.0104065 0.0299483 -3.84292e-18)
(0.0114002 0.0297399 -1.95506e-18)
(0.0123943 0.0295113 -4.12326e-19)
(0.0133887 0.029262 -8.63324e-18)
(0.0143832 0.0289918 -1.77326e-17)
(0.0153776 0.0287 1.95546e-18)
(0.0163717 0.0283864 -3.68328e-18)
(0.0173652 0.0280505 -1.2662e-19)
(0.0183577 0.0276919 6.74675e-18)
(0.0193489 0.02731 1.60931e-17)
(0.0203381 0.0269044 1.34932e-17)
(0.0213249 0.0264747 1.9623e-17)
(0.0223081 0.0260203 1.16169e-17)
(0.0232863 0.0255416 6.59795e-18)
(0.023642 0.0256516 2.99053e-17)
(-0.0241728 0.0261971 7.77434e-18)
(-0.0237869 0.0260913 1.03998e-17)
(-0.0227865 0.02658 1.65931e-17)
(-0.0217814 0.0270442 4.69829e-18)
(-0.0207729 0.0274832 9.5775e-18)
(-0.019762 0.0278977 2.97469e-18)
(-0.0187492 0.0282877 -1.90713e-17)
(-0.0177351 0.0286541 -2.55171e-17)
(-0.01672 0.0289972 -5.64182e-18)
(-0.0157044 0.0293174 -4.24923e-18)
(-0.0146886 0.0296154 -1.88748e-17)
(-0.0136727 0.0298913 -1.04422e-17)
(-0.012657 0.0301459 -4.95443e-19)
(-0.0116417 0.0303793 4.13082e-18)
(-0.0106268 0.030592 -2.57168e-18)
(-0.00961238 0.0307842 -9.8817e-18)
(-0.00859854 0.0309564 -8.25923e-18)
(-0.00758528 0.0311087 -1.18966e-17)
(-0.00657259 0.0312415 -1.79072e-17)
(-0.00556044 0.0313549 -4.64836e-18)
(-0.00454876 0.0314491 -3.93858e-18)
(-0.00353748 0.0315242 -9.00502e-18)
(-0.00252652 0.0315805 7.77886e-19)
(-0.0015158 0.0316179 -3.82229e-18)
(-0.000505239 0.0316367 -8.80492e-18)
(0.000505274 0.0316367 4.84688e-18)
(0.00151584 0.0316179 1.34928e-17)
(0.00252655 0.0315805 1.17361e-17)
(0.0035375 0.0315242 -4.33689e-18)
(0.00454878 0.031449 6.33674e-18)
(0.00556046 0.0313549 7.40901e-18)
(0.00657261 0.0312415 4.23523e-19)
(0.0075853 0.0311087 5.46861e-19)
(0.00859856 0.0309564 -7.31175e-18)
(0.0096124 0.0307842 -8.1849e-18)
(0.0106268 0.030592 -4.48973e-18)
(0.0116417 0.0303793 -2.3667e-18)
(0.012657 0.0301459 -5.27346e-19)
(0.0136727 0.0298914 -8.69416e-18)
(0.0146886 0.0296154 -1.69913e-17)
(0.0157044 0.0293175 2.79544e-18)
(0.01672 0.0289972 -5.74653e-18)
(0.0177351 0.0286542 -1.50074e-18)
(0.0187492 0.0282878 6.59001e-18)
(0.019762 0.0278977 1.61714e-17)
(0.0207729 0.0274832 1.25723e-17)
(0.0217814 0.0270442 1.90091e-17)
(0.0227865 0.02658 1.27858e-17)
(0.0237869 0.0260914 8.0546e-18)
(0.0241728 0.0261971 2.90394e-17)
(-0.0247217 0.0267606 8.34014e-18)
(-0.0243049 0.0266593 1.23492e-17)
(-0.0232797 0.0271572 1.62824e-17)
(-0.0222512 0.0276303 6.19399e-18)
(-0.0212202 0.0280787 9.54729e-18)
(-0.020187 0.0285022 2.61168e-18)
(-0.0191519 0.0289006 -1.86814e-17)
(-0.0181155 0.0292749 -2.74856e-17)
(-0.0170783 0.0296253 -7.59181e-18)
(-0.0160406 0.0299524 -3.27497e-18)
(-0.0150027 0.0302568 -1.92551e-17)
(-0.0139648 0.0305385 -1.10535e-17)
(-0.0129272 0.0307984 5.11223e-19)
(-0.01189 0.0310368 4.13761e-18)
(-0.0108533 0.0312539 -3.13077e-18)
(-0.0098171 0.0314502 -8.25617e-18)