/*--------------------------------*- C++ -*----------------------------------*\
  =========                 |
  \\      /  F ield         | OpenFOAM: The Open Source CFD Toolbox
   \\    /   O peration     | Website:  https://openfoam.org
    \\  /    A nd           | Version:  7
     \\/     M anipulation  |
\*---------------------------------------------------------------------------*/
FoamFile
{
    version     2.0;
    format      ascii;
    class       volVectorField;
    location    "240000";
    object      U;
}
// * * * * * * * * * * * * * * * * * * * * * * * * * * * * * * * * * * * * * //

dimensions      [0 1 -1 0 0 0 0];

internalField   nonuniform List<vector> 
4850
(
(-1.68148e-18 -8.19794e-19 -0.01543)
(-1.61377e-18 -8.04047e-19 -0.0154447)
(-1.73621e-18 -6.33556e-19 -0.0154013)
(-1.80041e-18 -4.55927e-19 -0.0154163)
(-1.4207e-18 -2.31801e-19 -0.0154306)
(-1.47027e-18 -5.32542e-19 -0.015372)
(-1.82667e-18 -4.50249e-19 -0.0153873)
(-1.56353e-18 -2.95119e-19 -0.0154019)
(-1.50957e-18 -2.17266e-19 -0.015416)
(-1.24813e-18 -2.24023e-19 -0.0154295)
(-1.36535e-18 -5.7644e-19 -0.0153422)
(-1.74565e-18 -4.97378e-19 -0.0153577)
(-1.50791e-18 -3.40922e-19 -0.0153726)
(-1.64678e-18 -7.41759e-20 -0.0153869)
(-1.34613e-18 2.08589e-20 -0.0154007)
(-1.05743e-18 3.27457e-19 -0.0154139)
(-1.27395e-18 -5.97467e-19 -0.0153118)
(-1.78838e-18 -4.45874e-19 -0.0153275)
(-1.52918e-18 -2.73893e-19 -0.0153427)
(-1.5821e-18 -8.11277e-21 -0.0153573)
(-1.5148e-18 1.91642e-19 -0.0153713)
(-1.06408e-18 2.40865e-19 -0.0153848)
(-1.1388e-18 5.9117e-19 -0.0153976)
(-1.31167e-18 -6.92273e-19 -0.0152809)
(-1.66113e-18 -4.4827e-19 -0.0152969)
(-1.63057e-18 -7.2096e-20 -0.0153123)
(-1.47092e-18 -1.92729e-19 -0.0153271)
(-1.52973e-18 1.15298e-19 -0.0153414)
(-1.10924e-18 4.75284e-19 -0.015355)
(-1.10803e-18 8.80943e-19 -0.0153681)
(-1.29007e-18 8.24873e-19 -0.0153805)
(-1.63509e-18 5.43805e-19 -0.0153923)
(-1.34272e-18 -7.99545e-19 -0.0152495)
(-1.58254e-18 -3.44305e-19 -0.0152657)
(-1.73708e-18 1.34633e-20 -0.0152813)
(-1.52446e-18 -2.33448e-19 -0.0152964)
(-1.38994e-18 1.70344e-19 -0.0153109)
(-1.05302e-18 6.62547e-19 -0.0153248)
(-1.03271e-18 8.20614e-19 -0.015338)
(-1.30586e-18 5.3786e-19 -0.0153507)
(-1.63121e-18 1.38779e-19 -0.0153627)
(-1.53287e-18 3.43887e-19 -0.015374)
(-1.42148e-18 -5.70703e-19 -0.0152176)
(-1.51256e-18 -1.263e-20 -0.015234)
(-1.72713e-18 -3.85132e-20 -0.0152498)
(-1.71524e-18 2.58192e-20 -0.0152651)
(-1.381e-18 2.17312e-19 -0.0152798)
(-1.04455e-18 6.99865e-19 -0.0152939)
(-1.01736e-18 6.12118e-19 -0.0153074)
(-1.2723e-18 1.79307e-19 -0.0153203)
(-1.5815e-18 5.10801e-20 -0.0153325)
(-1.45626e-18 3.70374e-19 -0.015344)
(-1.39808e-18 4.52742e-19 -0.0153549)
(-1.52429e-18 4.2273e-19 -0.015365)
(-1.24049e-18 1.80376e-19 -0.0153745)
(-1.63328e-18 3.59839e-20 -0.0153833)
(-1.64337e-18 -1.6159e-19 -0.0151852)
(-1.47139e-18 -9.22474e-20 -0.0152018)
(-1.60794e-18 -2.41352e-19 -0.0152179)
(-1.69785e-18 -5.62528e-20 -0.0152334)
(-1.37904e-18 2.08046e-19 -0.0152483)
(-1.00969e-18 6.48241e-19 -0.0152626)
(-1.08862e-18 4.28163e-19 -0.0152763)
(-1.29154e-18 3.18549e-20 -0.0152893)
(-1.5461e-18 6.43843e-20 -0.0153017)
(-1.41706e-18 2.33745e-19 -0.0153134)
(-1.30225e-18 1.7444e-19 -0.0153245)
(-1.52458e-18 2.48125e-19 -0.0153348)
(-1.45793e-18 2.92081e-19 -0.0153445)
(-1.63158e-18 -6.43216e-20 -0.0153534)
(-2.11978e-18 1.94525e-19 -0.0153616)
(-2.25622e-18 1.95992e-19 -0.0153691)
(-2.43035e-18 5.619e-19 -0.0153759)
(-2.0988e-18 8.15333e-19 -0.0153819)
(-1.67108e-18 -1.28965e-19 -0.0151523)
(-1.53264e-18 -2.15169e-19 -0.0151692)
(-1.58126e-18 -2.96342e-19 -0.0151854)
(-1.5857e-18 -1.68011e-19 -0.0152011)
(-1.36242e-18 2.56919e-19 -0.0152162)
(-9.76102e-19 4.89254e-19 -0.0152307)
(-1.08701e-18 1.87547e-19 -0.0152446)
(-1.3126e-18 -1.35203e-20 -0.0152578)
(-1.51179e-18 -1.71482e-20 -0.0152704)
(-1.44563e-18 9.69388e-20 -0.0152823)
(-1.31158e-18 3.54142e-20 -0.0152935)
(-1.37801e-18 -3.25129e-20 -0.015304)
(-1.49838e-18 4.10822e-19 -0.0153138)
(-1.63954e-18 1.03296e-19 -0.0153229)
(-2.13383e-18 5.4106e-19 -0.0153313)
(-2.21915e-18 2.62384e-19 -0.0153389)
(-2.40328e-18 6.15739e-19 -0.0153458)
(-2.2598e-18 4.7728e-19 -0.0153519)
(-1.58042e-18 9.8518e-20 -0.0153573)
(-1.4941e-18 3.24193e-19 -0.0153619)
(-1.58749e-18 -2.92751e-19 -0.015119)
(-1.6019e-18 -1.75586e-19 -0.0151361)
(-1.62835e-18 -2.76635e-19 -0.0151525)
(-1.57863e-18 -1.21583e-19 -0.0151684)
(-1.35534e-18 2.50498e-19 -0.0151837)
(-1.01557e-18 3.253e-19 -0.0151984)
(-9.45966e-19 -3.38831e-19 -0.0152124)
(-1.28649e-18 -1.08463e-19 -0.0152259)
(-1.49746e-18 -6.75399e-20 -0.0152386)
(-1.47007e-18 8.23836e-20 -0.0152507)
(-1.39439e-18 -1.21988e-20 -0.0152621)
(-1.27735e-18 -1.11095e-19 -0.0152727)
(-1.40936e-18 3.0535e-19 -0.0152827)
(-1.52743e-18 -1.74318e-20 -0.0152919)
(-2.12591e-18 6.45485e-19 -0.0153004)
(-2.26313e-18 2.13025e-19 -0.0153081)
(-2.36543e-18 3.38972e-19 -0.0153151)
(-2.41609e-18 2.40104e-19 -0.0153213)
(-1.63764e-18 -5.96802e-21 -0.0153268)
(-1.43529e-18 3.02636e-19 -0.0153315)
(-1.42891e-18 2.93659e-19 -0.0153354)
(-1.22058e-18 3.27656e-19 -0.0153385)
(-2.01075e-18 3.79585e-20 -0.0153409)
(-1.95657e-18 -5.36057e-19 -0.0153424)
(-1.4537e-18 -5.0377e-19 -0.0150853)
(-1.63859e-18 -1.09324e-19 -0.0151025)
(-1.65596e-18 -2.62729e-19 -0.0151191)
(-1.60293e-18 -1.13084e-20 -0.0151352)
(-1.41031e-18 2.92552e-19 -0.0151507)
(-1.25099e-18 1.86845e-19 -0.0151656)
(-9.79301e-19 -4.6577e-19 -0.0151798)
(-1.0991e-18 -7.84264e-20 -0.0151934)
(-1.4575e-18 -4.40128e-20 -0.0152063)
(-1.49021e-18 -1.30461e-20 -0.0152185)
(-1.45801e-18 -1.43762e-19 -0.0152301)
(-1.27536e-18 -9.44554e-20 -0.0152409)
(-1.38412e-18 1.16692e-19 -0.015251)
(-1.34752e-18 -1.63833e-19 -0.0152603)
(-1.9824e-18 5.34741e-19 -0.015269)
(-2.4035e-18 2.4879e-19 -0.0152768)
(-2.38457e-18 2.2018e-19 -0.0152839)
(-2.53316e-18 1.96268e-19 -0.0152902)
(-1.677e-18 1.13744e-19 -0.0152958)
(-1.42668e-18 7.02958e-19 -0.0153005)
(-1.50815e-18 2.39921e-19 -0.0153045)
(-1.30039e-18 8.74437e-22 -0.0153077)
(-2.08102e-18 -3.1667e-19 -0.0153101)
(-2.06126e-18 -1.36819e-19 -0.0153117)
(-1.84391e-18 -2.03663e-19 -0.0153125)
(-4.14821e-18 1.27427e-19 -0.0153125)
(-5.80742e-18 2.65652e-19 -0.0153117)
(-4.62149e-18 1.03559e-19 -0.0153101)
(-4.12592e-18 -1.75846e-19 -0.0153077)
(-1.42665e-18 -4.56892e-19 -0.0150511)
(-1.60406e-18 1.02001e-20 -0.0150685)
(-1.76389e-18 -9.96386e-20 -0.0150853)
(-1.65584e-18 1.91757e-19 -0.0151016)
(-1.51864e-18 4.37226e-19 -0.0151172)
(-1.50967e-18 3.34323e-19 -0.0151323)
(-1.3019e-18 1.30259e-20 -0.0151467)
(-1.13638e-18 1.08114e-19 -0.0151604)
(-1.44177e-18 -1.04648e-19 -0.0151735)
(-1.50751e-18 -1.78337e-19 -0.0151859)
(-1.48833e-18 -2.11577e-19 -0.0151976)
(-1.24156e-18 -9.66515e-20 -0.0152086)
(-1.40986e-18 4.92316e-20 -0.0152188)
(-1.27768e-18 -5.26502e-20 -0.0152283)
(-1.75089e-18 2.46402e-19 -0.015237)
(-2.48036e-18 4.57887e-19 -0.015245)
(-2.44572e-18 2.60043e-19 -0.0152522)
(-2.65774e-18 4.62531e-19 -0.0152586)
(-1.6318e-18 6.09325e-19 -0.0152642)
(-1.43625e-18 6.16268e-19 -0.015269)
(-1.762e-18 2.45551e-19 -0.0152731)
(-1.46431e-18 2.7053e-19 -0.0152763)
(-2.06262e-18 -2.8684e-19 -0.0152787)
(-1.95662e-18 2.27664e-19 -0.0152803)
(-1.81726e-18 1.86692e-19 -0.0152811)
(-4.16652e-18 1.36831e-19 -0.0152811)
(-5.83091e-18 3.89548e-19 -0.0152803)
(-4.64742e-18 8.50121e-19 -0.0152787)
(-4.21666e-18 5.35733e-19 -0.0152763)
(-5.56622e-18 4.53282e-19 -0.0152731)
(-6.12236e-18 -2.31287e-19 -0.015269)
(-6.92609e-18 -1.35494e-18 -0.0152642)
(-1.54921e-18 -1.43651e-19 -0.0150165)
(-1.4696e-18 -5.46093e-20 -0.0150341)
(-1.7921e-18 3.45212e-20 -0.0150511)
(-1.79323e-18 5.07125e-19 -0.0150675)
(-1.56892e-18 5.47441e-19 -0.0150833)
(-1.60892e-18 3.38174e-19 -0.0150985)
(-1.52952e-18 2.49156e-19 -0.0151131)
(-1.2462e-18 1.0757e-19 -0.015127)
(-1.4988e-18 -2.29024e-19 -0.0151403)
(-1.52776e-18 -2.51761e-19 -0.0151528)
(-1.55257e-18 -1.44733e-19 -0.0151646)
(-1.21538e-18 -1.55126e-19 -0.0151757)
(-1.3821e-18 1.67757e-20 -0.0151861)
(-1.32259e-18 1.33312e-19 -0.0151957)
(-1.45961e-18 -2.08256e-19 -0.0152045)
(-2.42991e-18 4.83801e-19 -0.0152126)
(-2.43891e-18 1.69169e-19 -0.0152199)
(-2.65371e-18 8.81589e-19 -0.0152264)
(-1.89881e-18 1.13562e-18 -0.0152321)
(-1.542e-18 3.18954e-19 -0.015237)
(-1.68604e-18 3.47873e-19 -0.0152411)
(-1.60307e-18 6.49504e-19 -0.0152444)
(-2.12968e-18 -7.45208e-20 -0.0152468)
(-1.88375e-18 3.45124e-19 -0.0152485)
(-1.89438e-18 1.32546e-19 -0.0152493)
(-4.19774e-18 1.24149e-19 -0.0152493)
(-5.66588e-18 4.4867e-19 -0.0152485)
(-4.54972e-18 1.49936e-18 -0.0152468)
(-4.34891e-18 1.06494e-18 -0.0152444)
(-5.7227e-18 1.02414e-18 -0.0152411)
(-6.4186e-18 7.79062e-19 -0.015237)
(-7.72502e-18 3.43692e-19 -0.0152321)
(-9.68163e-18 -2.7597e-18 -0.0152264)
(-1.31481e-17 -5.68544e-18 -0.0152199)
(-1.74949e-18 4.10781e-20 -0.0149815)
(-1.41852e-18 -1.35785e-19 -0.0149993)
(-1.59917e-18 6.85479e-20 -0.0150164)
(-1.86154e-18 7.33076e-19 -0.015033)
(-1.61013e-18 2.97759e-19 -0.015049)
(-1.57578e-18 7.35573e-20 -0.0150644)
(-1.51098e-18 -5.32812e-20 -0.0150791)
(-1.2851e-18 -1.59622e-19 -0.0150932)
(-1.513e-18 -3.46666e-19 -0.0151066)
(-1.51528e-18 -2.65517e-19 -0.0151192)
(-1.63317e-18 -5.50171e-20 -0.0151312)
(-1.32828e-18 1.24391e-19 -0.0151424)
(-1.3379e-18 1.13456e-19 -0.0151529)
(-1.47654e-18 2.52907e-19 -0.0151627)
(-1.30866e-18 -4.97382e-19 -0.0151716)
(-2.21394e-18 2.2712e-19 -0.0151798)
(-2.29835e-18 8.29047e-20 -0.0151872)
(-2.42243e-18 7.91992e-19 -0.0151937)
(-2.05715e-18 8.98053e-19 -0.0151995)
(-1.78832e-18 4.61104e-19 -0.0152045)
(-1.63054e-18 3.40675e-19 -0.0152086)
(-1.67695e-18 5.49595e-19 -0.0152119)
(-2.23741e-18 2.88622e-20 -0.0152144)
(-1.88129e-18 1.86201e-19 -0.0152161)
(-1.92183e-18 1.31421e-19 -0.0152169)
(-4.16092e-18 2.0931e-19 -0.0152169)
(-5.38739e-18 6.03295e-19 -0.0152161)
(-4.39565e-18 1.86643e-18 -0.0152144)
(-4.5019e-18 1.56397e-18 -0.0152119)
(-5.84383e-18 1.44141e-18 -0.0152086)
(-6.49944e-18 1.38407e-18 -0.0152045)
(-8.39708e-18 1.84882e-18 -0.0151995)
(-1.11461e-17 -7.112e-19 -0.0151937)
(-1.77668e-17 -4.11759e-18 -0.0151872)
(-1.82463e-18 2.95124e-20 -0.0149462)
(-1.38258e-18 -3.51443e-19 -0.0149641)
(-1.39558e-18 5.68149e-20 -0.0149814)
(-1.72053e-18 4.52146e-19 -0.0149981)
(-1.59475e-18 -1.501e-19 -0.0150143)
(-1.57251e-18 -2.25514e-19 -0.0150298)
(-1.47218e-18 -3.81877e-19 -0.0150447)
(-1.23638e-18 -3.4967e-19 -0.0150589)
(-1.43852e-18 -5.73416e-19 -0.0150724)
(-1.43653e-18 -3.31591e-19 -0.0150852)
(-1.55666e-18 2.44292e-20 -0.0150973)
(-1.40879e-18 3.45913e-19 -0.0151087)
(-1.3847e-18 1.30667e-19 -0.0151193)
(-1.63039e-18 1.84167e-19 -0.0151291)
(-1.33652e-18 -4.99337e-19 -0.0151382)
(-1.99438e-18 -1.21428e-19 -0.0151465)
(-2.20299e-18 -7.25967e-20 -0.0151539)
(-2.2709e-18 1.29268e-19 -0.0151606)
(-1.97824e-18 8.28299e-20 -0.0151664)
(-1.84961e-18 4.97068e-19 -0.0151715)
(-1.65998e-18 2.6967e-19 -0.0151757)
(-1.70289e-18 2.38903e-19 -0.015179)
(-2.32064e-18 9.12822e-20 -0.0151815)
(-1.84524e-18 -2.32852e-21 -0.0151832)
(-1.8903e-18 1.77778e-19 -0.0151841)
(-4.11768e-18 -7.27438e-20 -0.0151841)
(-5.08579e-18 8.55666e-19 -0.0151832)
(-4.19642e-18 1.85846e-18 -0.0151815)
(-4.64371e-18 1.79539e-18 -0.015179)
(-5.9949e-18 1.53934e-18 -0.0151757)
(-6.4108e-18 1.97646e-18 -0.0151715)
(-8.80386e-18 2.60652e-18 -0.0151664)
(-1.25346e-17 1.75589e-18 -0.0151606)
(-2.5132e-17 -1.72268e-19 -0.0151539)
(-1.79403e-18 -7.95208e-20 -0.0149104)
(-1.37805e-18 -5.10707e-19 -0.0149284)
(-1.24571e-18 5.17722e-20 -0.0149459)
(-1.5943e-18 1.13886e-19 -0.0149628)
(-1.5589e-18 -4.87989e-19 -0.0149791)
(-1.58067e-18 -3.23896e-19 -0.0149948)
(-1.54153e-18 -4.14094e-19 -0.0150098)
(-1.31883e-18 -4.37196e-19 -0.0150241)
(-1.44743e-18 -5.87264e-19 -0.0150378)
(-1.26566e-18 -4.40353e-19 -0.0150508)
(-1.442e-18 -2.67283e-20 -0.015063)
(-1.36147e-18 1.08658e-19 -0.0150745)
(-1.38129e-18 -9.27221e-21 -0.0150852)
(-1.72309e-18 3.64404e-20 -0.0150952)
(-1.43121e-18 -4.58912e-19 -0.0151043)
(-1.86256e-18 -3.61281e-19 -0.0151127)
(-2.18771e-18 -1.5929e-19 -0.0151202)
(-2.26561e-18 -2.6114e-19 -0.015127)
(-1.82379e-18 -1.25124e-19 -0.0151329)
(-1.77035e-18 6.16121e-19 -0.015138)
(-1.75991e-18 2.85077e-19 -0.0151422)
(-1.70966e-18 6.98212e-20 -0.0151456)
(-2.37117e-18 2.25225e-19 -0.0151482)
(-1.87305e-18 5.81654e-19 -0.0151499)
(-1.95562e-18 1.6187e-19 -0.0151507)
(-3.99054e-18 -2.81109e-19 -0.0151507)
(-4.67878e-18 1.26222e-18 -0.0151499)
(-4.09466e-18 1.67727e-18 -0.0151482)
(-4.80959e-18 1.70114e-18 -0.0151456)
(-5.99183e-18 1.51537e-18 -0.0151422)
(-6.22438e-18 2.59806e-18 -0.015138)
(-8.93675e-18 3.08294e-18 -0.0151329)
(-1.32084e-17 4.41128e-18 -0.015127)
(-3.45382e-17 1.02693e-17 -0.0151202)
(-1.77857e-18 -1.341e-19 -0.0148743)
(-1.5057e-18 -4.60386e-19 -0.0148925)
(-1.04239e-18 -1.43194e-19 -0.0149101)
(-1.5339e-18 -1.67372e-19 -0.0149271)
(-1.54618e-18 -6.87815e-19 -0.0149435)
(-1.57937e-18 -3.22405e-19 -0.0149594)
(-1.57116e-18 -5.3834e-19 -0.0149745)
(-1.40905e-18 -3.2139e-19 -0.014989)
(-1.60143e-18 -3.86399e-19 -0.0150028)
(-1.24573e-18 -4.47354e-19 -0.0150159)
(-1.39354e-18 4.58328e-20 -0.0150282)
(-1.31237e-18 -1.29471e-19 -0.0150398)
(-1.33398e-18 -1.20048e-19 -0.0150507)
(-1.79253e-18 -2.39087e-20 -0.0150607)
(-1.55103e-18 -3.5814e-19 -0.01507)
(-1.83153e-18 -1.59143e-19 -0.0150784)
(-2.17201e-18 -1.62622e-19 -0.0150861)
(-2.32994e-18 -1.77476e-20 -0.0150929)
(-1.7335e-18 3.73398e-19 -0.0150989)
(-1.73411e-18 7.45586e-19 -0.015104)
(-1.92273e-18 3.89599e-19 -0.0151083)
(-1.70437e-18 -3.8083e-20 -0.0151117)
(-2.14715e-18 4.4147e-19 -0.0151143)
(-1.92546e-18 1.25727e-18 -0.0151161)
(-2.25183e-18 2.16395e-19 -0.0151169)
(-3.75822e-18 5.08522e-20 -0.0151169)
(-4.36501e-18 1.49911e-18 -0.0151161)
(-4.12478e-18 1.59149e-18 -0.0151143)
(-4.90886e-18 1.67364e-18 -0.0151117)
(-5.80049e-18 1.86137e-18 -0.0151083)
(-5.9592e-18 3.03296e-18 -0.015104)
(-8.60439e-18 3.68811e-18 -0.0150989)
(-1.15899e-17 6.45086e-18 -0.0150929)
(-2.18314e-17 1.5105e-17 -0.0150861)
(-1.62585e-18 -3.5071e-19 -0.0148378)
(-1.72974e-18 -4.2046e-19 -0.0148561)
(-9.72208e-19 -3.03906e-19 -0.0148738)
(-1.33319e-18 -5.47669e-19 -0.014891)
(-1.54658e-18 -7.3425e-19 -0.0149076)
(-1.54836e-18 -4.20609e-19 -0.0149235)
(-1.61209e-18 -4.98135e-19 -0.0149388)
(-1.46687e-18 -1.18739e-19 -0.0149535)
(-1.71171e-18 -3.16695e-19 -0.0149674)
(-1.31877e-18 -1.48736e-19 -0.0149806)
(-1.50322e-18 3.63452e-19 -0.0149931)
(-1.31441e-18 -4.23239e-19 -0.0150048)
(-1.27325e-18 -1.59115e-19 -0.0150157)
(-1.83359e-18 3.2993e-20 -0.0150259)
(-1.61981e-18 -5.92246e-20 -0.0150352)
(-1.88014e-18 1.59289e-19 -0.0150438)
(-2.17618e-18 -1.11728e-20 -0.0150515)
(-2.28089e-18 4.7206e-19 -0.0150584)
(-1.74643e-18 9.36797e-19 -0.0150644)
(-1.79825e-18 8.69464e-19 -0.0150696)
(-2.15298e-18 7.32533e-19 -0.0150739)
(-1.70408e-18 9.98316e-20 -0.0150774)
(-1.88333e-18 7.00545e-19 -0.01508)
(-1.98133e-18 1.11708e-18 -0.0150818)
(-2.45515e-18 3.35119e-19 -0.0150826)
(-3.54814e-18 3.7292e-19 -0.0150826)
(-4.15899e-18 1.23258e-18 -0.0150818)
(-4.13218e-18 1.63655e-18 -0.01508)
(-4.87401e-18 1.78896e-18 -0.0150774)
(-5.53258e-18 2.42568e-18 -0.0150739)
(-5.68224e-18 3.46397e-18 -0.0150696)
(-7.90743e-18 4.63604e-18 -0.0150644)
(-9.51399e-18 7.76018e-18 -0.0150584)
(-1.38628e-17 1.54175e-17 -0.0150515)
(-1.37373e-18 -6.69646e-19 -0.0148009)
(-1.86202e-18 -3.01251e-19 -0.0148194)
(-1.15146e-18 -2.9159e-19 -0.0148373)
(-1.22875e-18 -8.06839e-19 -0.0148546)
(-1.54167e-18 -6.53364e-19 -0.0148713)
(-1.48727e-18 -4.6519e-19 -0.0148874)
(-1.65922e-18 -3.0838e-19 -0.0149028)
(-1.57535e-18 1.01462e-19 -0.0149175)
(-1.8441e-18 -7.18397e-20 -0.0149316)
(-1.40439e-18 3.67213e-19 -0.0149449)
(-1.7903e-18 7.25023e-19 -0.0149575)
(-1.48399e-18 -4.85402e-19 -0.0149693)
(-1.13647e-18 -1.15369e-19 -0.0149803)
(-1.7982e-18 1.29778e-19 -0.0149906)
(-1.67868e-18 2.10994e-19 -0.015)
(-1.91437e-18 3.67788e-19 -0.0150087)
(-2.21347e-18 5.41672e-19 -0.0150165)
(-2.21737e-18 9.24437e-19 -0.0150234)
(-1.78034e-18 1.37001e-18 -0.0150295)
(-1.82887e-18 9.20465e-19 -0.0150348)
(-2.34786e-18 1.1447e-18 -0.0150391)
(-1.79733e-18 5.76842e-19 -0.0150427)
(-1.77113e-18 9.36019e-19 -0.0150453)
(-2.04198e-18 8.49506e-19 -0.0150471)
(-2.56341e-18 6.82974e-19 -0.0150479)
(-3.46911e-18 6.32691e-19 -0.0150479)
(-3.97455e-18 1.16217e-18 -0.0150471)
(-4.01282e-18 1.65127e-18 -0.0150453)
(-4.72235e-18 2.17871e-18 -0.0150427)
(-5.17518e-18 3.12311e-18 -0.0150391)
(-5.24204e-18 3.93847e-18 -0.0150348)
(-7.06805e-18 5.47287e-18 -0.0150295)
(-7.68366e-18 8.72443e-18 -0.0150234)
(-9.36861e-18 1.42295e-17 -0.0150165)
(-1.28753e-18 -6.95812e-19 -0.0147637)
(-1.83888e-18 -2.78901e-19 -0.0147823)
(-1.26493e-18 -4.62811e-19 -0.0148003)
(-1.31139e-18 -7.3072e-19 -0.0148177)
(-1.55374e-18 -5.22298e-19 -0.0148346)
(-1.53908e-18 -3.01755e-19 -0.0148508)
(-1.63932e-18 -1.23993e-19 -0.0148663)
(-1.56165e-18 2.25912e-19 -0.0148812)
(-1.9245e-18 1.84136e-19 -0.0148954)
(-1.43254e-18 7.2947e-19 -0.0149088)
(-1.93709e-18 5.93623e-19 -0.0149215)
(-1.89327e-18 -9.13299e-20 -0.0149334)
(-1.12361e-18 9.81799e-20 -0.0149446)
(-1.68513e-18 3.67532e-20 -0.0149549)
(-1.6129e-18 1.70839e-19 -0.0149644)
(-1.81348e-18 4.88611e-19 -0.0149732)
(-2.19381e-18 9.97723e-19 -0.014981)
(-2.1841e-18 1.24575e-18 -0.014988)
(-1.8833e-18 1.58321e-18 -0.0149942)
(-1.89924e-18 1.10172e-18 -0.0149995)
(-2.39509e-18 1.33483e-18 -0.0150039)
(-1.88904e-18 8.55959e-19 -0.0150075)
(-1.79042e-18 1.04555e-18 -0.0150101)
(-2.05085e-18 8.21689e-19 -0.0150119)
(-2.56382e-18 1.13164e-18 -0.0150128)
(-3.42288e-18 1.01077e-18 -0.0150128)
(-3.84717e-18 1.45067e-18 -0.0150119)
(-3.83708e-18 1.82215e-18 -0.0150101)
(-4.39558e-18 2.5594e-18 -0.0150075)
(-4.87322e-18 3.61618e-18 -0.0150039)
(-4.90508e-18 4.24429e-18 -0.0149995)
(-6.18817e-18 5.86378e-18 -0.0149942)
(-6.2731e-18 9.08497e-18 -0.014988)
(-6.75023e-18 1.2607e-17 -0.014981)
(-1.26048e-18 -5.20504e-19 -0.0147262)
(-1.82817e-18 -3.61848e-19 -0.0147449)
(-1.32429e-18 -5.7212e-19 -0.014763)
(-1.45672e-18 -4.24137e-19 -0.0147806)
(-1.50909e-18 -4.80971e-19 -0.0147975)
(-1.49327e-18 -2.95179e-19 -0.0148138)
(-1.68456e-18 2.64312e-21 -0.0148295)
(-1.46668e-18 9.82874e-20 -0.0148445)
(-1.92277e-18 3.38934e-19 -0.0148588)
(-1.44688e-18 7.31273e-19 -0.0148723)
(-1.82217e-18 4.55535e-20 -0.0148851)
(-2.10904e-18 2.82114e-19 -0.0148972)
(-1.3391e-18 4.66472e-19 -0.0149084)
(-1.68101e-18 -1.02381e-19 -0.0149188)
(-1.51079e-18 1.1742e-19 -0.0149284)
(-1.56657e-18 3.04833e-19 -0.0149372)
(-2.04804e-18 1.06504e-18 -0.0149452)
(-2.13237e-18 1.30741e-18 -0.0149522)
(-1.84555e-18 1.25036e-18 -0.0149585)
(-1.96916e-18 1.34924e-18 -0.0149638)
(-2.49342e-18 1.22891e-18 -0.0149683)
(-1.97223e-18 8.57312e-19 -0.0149719)
(-1.7821e-18 1.01749e-18 -0.0149745)
(-1.996e-18 9.21354e-19 -0.0149763)
(-2.51384e-18 1.24072e-18 -0.0149772)
(-3.4045e-18 1.31629e-18 -0.0149772)
(-3.73773e-18 1.55785e-18 -0.0149763)
(-3.65294e-18 2.29143e-18 -0.0149745)
(-4.14691e-18 2.62001e-18 -0.0149719)
(-4.62117e-18 3.64927e-18 -0.0149683)
(-4.53101e-18 4.35405e-18 -0.0149638)
(-5.36026e-18 6.17126e-18 -0.0149585)
(-5.35056e-18 8.59614e-18 -0.0149522)
(-5.15521e-18 1.11817e-17 -0.0149452)
(-1.13876e-18 -5.36468e-19 -0.0146883)
(-1.85103e-18 -3.67113e-19 -0.0147071)
(-1.48201e-18 -3.96024e-19 -0.0147253)
(-1.56915e-18 -2.54767e-19 -0.014743)
(-1.7196e-18 -2.4879e-19 -0.0147601)
(-1.339e-18 -4.46578e-19 -0.0147766)
(-1.6301e-18 -1.17423e-20 -0.0147923)
(-1.30717e-18 -1.02488e-19 -0.0148074)
(-1.83895e-18 3.65656e-19 -0.0148218)
(-1.48319e-18 4.37986e-19 -0.0148355)
(-1.76474e-18 -1.95249e-19 -0.0148484)
(-2.11046e-18 5.68681e-19 -0.0148605)
(-1.53579e-18 6.6384e-19 -0.0148718)
(-1.7808e-18 -1.20545e-19 -0.0148823)
(-1.53487e-18 2.55541e-19 -0.014892)
(-1.3658e-18 1.69369e-19 -0.0149009)
(-1.81776e-18 1.02325e-18 -0.0149089)
(-2.14518e-18 1.1361e-18 -0.0149161)
(-1.77488e-18 8.33987e-19 -0.0149223)
(-1.93866e-18 1.44329e-18 -0.0149277)
(-2.58295e-18 9.85129e-19 -0.0149322)
(-2.0549e-18 1.31952e-18 -0.0149358)
(-1.76204e-18 1.0417e-18 -0.0149385)
(-1.95592e-18 9.25493e-19 -0.0149404)
(-2.42593e-18 6.61379e-19 -0.0149413)
(-3.36384e-18 1.3315e-18 -0.0149413)
(-3.56554e-18 1.50535e-18 -0.0149404)
(-3.48877e-18 2.58914e-18 -0.0149385)
(-4.02645e-18 2.48212e-18 -0.0149358)
(-4.30982e-18 4.0523e-18 -0.0149322)
(-4.10288e-18 4.4241e-18 -0.0149277)
(-4.72212e-18 6.34462e-18 -0.0149223)
(-4.72526e-18 7.99299e-18 -0.0149161)
(-3.94531e-18 1.01837e-17 -0.0149089)
(2.0107e-18 1.35915e-17 -0.0149009)
(-9.64603e-19 -6.34541e-19 -0.01465)
(-1.74895e-18 -3.78682e-19 -0.014669)
(-1.55003e-18 -3.62936e-19 -0.0146874)
(-1.53518e-18 -2.11851e-19 -0.0147051)
(-1.86649e-18 -1.5998e-19 -0.0147223)
(-1.39847e-18 -5.01865e-19 -0.0147389)
(-1.64448e-18 1.20541e-20 -0.0147548)
(-1.19495e-18 -2.41524e-19 -0.01477)
(-1.66355e-18 1.26671e-19 -0.0147845)
(-1.49112e-18 1.98378e-19 -0.0147983)
(-1.69463e-18 -9.44669e-20 -0.0148112)
(-2.08005e-18 7.69574e-19 -0.0148235)
(-1.67367e-18 4.95657e-19 -0.0148349)
(-1.8902e-18 -5.79915e-21 -0.0148455)
(-1.56451e-18 4.18269e-19 -0.0148553)
(-1.28158e-18 2.94444e-19 -0.0148642)
(-1.59216e-18 7.37398e-19 -0.0148723)
(-2.14389e-18 8.14917e-19 -0.0148795)
(-1.71887e-18 9.41815e-19 -0.0148858)
(-1.90853e-18 1.48086e-18 -0.0148912)
(-2.55679e-18 1.00576e-18 -0.0148958)
(-2.10201e-18 1.98976e-18 -0.0148994)
(-1.92015e-18 1.09351e-18 -0.0149021)
(-2.10965e-18 8.16877e-19 -0.014904)
(-2.36378e-18 -3.39218e-20 -0.0149049)
(-3.16341e-18 1.08045e-18 -0.0149049)
(-3.35884e-18 1.56256e-18 -0.014904)
(-3.38471e-18 2.37431e-18 -0.0149021)
(-3.7745e-18 2.17776e-18 -0.0148994)
(-3.9519e-18 4.30851e-18 -0.0148958)
(-3.82138e-18 4.39806e-18 -0.0148912)
(-4.23527e-18 6.10236e-18 -0.0148858)
(-4.17167e-18 7.72305e-18 -0.0148795)
(-2.97426e-18 9.54376e-18 -0.0148723)
(1.8103e-18 1.20938e-17 -0.0148642)
(-9.58373e-19 -5.67742e-19 -0.0146115)
(-1.62098e-18 -4.48944e-19 -0.0146305)
(-1.4188e-18 -5.97931e-19 -0.014649)
(-1.50066e-18 -2.3457e-19 -0.0146669)
(-1.83045e-18 -3.93598e-19 -0.0146842)
(-1.35503e-18 -5.34363e-19 -0.0147009)
(-1.60626e-18 -9.83514e-20 -0.0147169)
(-1.33397e-18 -4.92435e-20 -0.0147322)
(-1.46996e-18 -1.36881e-19 -0.0147468)
(-1.5182e-18 2.13286e-19 -0.0147607)
(-1.59373e-18 -5.98562e-20 -0.0147738)
(-2.0105e-18 6.6184e-19 -0.0147861)
(-1.76633e-18 3.30771e-19 -0.0147976)
(-2.01605e-18 4.19439e-19 -0.0148082)
(-1.65918e-18 7.671e-19 -0.0148181)
(-1.31038e-18 3.68751e-19 -0.0148271)
(-1.44678e-18 3.85273e-19 -0.0148352)
(-1.97932e-18 4.90628e-19 -0.0148425)
(-1.64519e-18 1.25944e-18 -0.0148489)
(-1.87066e-18 1.31566e-18 -0.0148543)
(-2.47614e-18 1.27808e-18 -0.0148589)
(-2.14899e-18 2.262e-18 -0.0148626)
(-2.1687e-18 1.1258e-18 -0.0148653)
(-2.34386e-18 9.37605e-19 -0.0148672)
(-2.33845e-18 2.12608e-20 -0.0148681)
(-2.8591e-18 9.13339e-19 -0.0148681)
(-3.17398e-18 1.64185e-18 -0.0148672)
(-3.38374e-18 2.09904e-18 -0.0148653)
(-3.49253e-18 1.94976e-18 -0.0148626)
(-3.63742e-18 3.90417e-18 -0.0148589)
(-3.60834e-18 4.19732e-18 -0.0148543)
(-3.83764e-18 5.34394e-18 -0.0148489)
(-3.59346e-18 7.58069e-18 -0.0148425)
(-2.22551e-18 8.98265e-18 -0.0148352)
(1.52612e-18 1.07642e-17 -0.0148271)
(-1.02991e-18 -3.19533e-19 -0.0145726)
(-1.67692e-18 -4.01256e-19 -0.0145918)
(-1.30714e-18 -7.91217e-19 -0.0146104)
(-1.39219e-18 -2.87505e-19 -0.0146284)
(-1.9155e-18 -4.21683e-19 -0.0146458)
(-1.36024e-18 -6.08239e-19 -0.0146626)
(-1.41012e-18 -2.8784e-19 -0.0146787)
(-1.52281e-18 2.96785e-19 -0.0146941)
(-1.46523e-18 -1.5754e-19 -0.0147088)
(-1.5484e-18 3.15525e-19 -0.0147227)
(-1.50241e-18 -1.63172e-19 -0.0147359)
(-1.91945e-18 5.54359e-19 -0.0147483)
(-1.72001e-18 2.21441e-19 -0.0147599)
(-1.99664e-18 6.89224e-19 -0.0147706)
(-1.80736e-18 8.99785e-19 -0.0147806)
(-1.47101e-18 4.27195e-19 -0.0147896)
(-1.48655e-18 6.28637e-19 -0.0147978)
(-1.79642e-18 4.58613e-19 -0.0148051)
(-1.51852e-18 1.31188e-18 -0.0148116)
(-1.80609e-18 9.91227e-19 -0.0148171)
(-2.29569e-18 1.28252e-18 -0.0148217)
(-2.18775e-18 2.01487e-18 -0.0148254)
(-2.36686e-18 1.06543e-18 -0.0148282)
(-2.50487e-18 1.07138e-18 -0.01483)
(-2.39228e-18 5.29576e-19 -0.014831)
(-2.64694e-18 1.05049e-18 -0.014831)
(-3.01452e-18 1.67788e-18 -0.01483)
(-3.36983e-18 2.1308e-18 -0.0148282)
(-3.25724e-18 1.94878e-18 -0.0148254)
(-3.35116e-18 3.51813e-18 -0.0148217)
(-3.46934e-18 4.00952e-18 -0.0148171)
(-3.38059e-18 4.77797e-18 -0.0148116)
(-2.99093e-18 7.20546e-18 -0.0148051)
(-1.82719e-18 8.091e-18 -0.0147978)
(-9.47112e-19 -1.79504e-19 -0.0145334)
(-1.67891e-18 -5.29234e-19 -0.0145527)
(-1.45205e-18 -6.92068e-19 -0.0145714)
(-1.26992e-18 -3.05942e-19 -0.0145895)
(-2.00911e-18 -3.82732e-19 -0.014607)
(-1.44103e-18 -6.00535e-19 -0.0146239)
(-1.30158e-18 -2.09465e-19 -0.0146401)
(-1.48355e-18 2.93031e-19 -0.0146556)
(-1.47181e-18 -1.94688e-19 -0.0146704)
(-1.60962e-18 3.23104e-19 -0.0146844)
(-1.55703e-18 5.12798e-20 -0.0146977)
(-1.89127e-18 5.68111e-19 -0.0147102)
(-1.70115e-18 1.386e-19 -0.0147218)
(-1.84248e-18 5.04641e-19 -0.0147327)
(-1.78144e-18 5.92581e-19 -0.0147427)
(-1.5141e-18 6.46915e-19 -0.0147518)
(-1.59152e-18 1.16963e-18 -0.0147601)
(-1.77798e-18 5.26433e-19 -0.0147674)
(-1.43612e-18 1.02656e-18 -0.0147739)
(-1.75045e-18 5.81191e-19 -0.0147794)
(-2.11783e-18 9.81989e-19 -0.0147841)
(-2.15548e-18 1.2912e-18 -0.0147878)
(-2.47914e-18 9.52679e-19 -0.0147906)
(-2.54799e-18 1.05456e-18 -0.0147925)
(-2.37334e-18 1.0436e-18 -0.0147934)
(-2.50322e-18 1.11431e-18 -0.0147934)
(-2.87187e-18 1.80191e-18 -0.0147925)
(-3.36089e-18 2.16453e-18 -0.0147906)
(-3.07777e-18 2.15847e-18 -0.0147878)
(-3.11624e-18 3.08454e-18 -0.0147841)
(-3.2944e-18 3.92801e-18 -0.0147794)
(-2.92659e-18 4.67443e-18 -0.0147739)
(-2.62501e-18 6.63938e-18 -0.0147674)
(-1.59795e-18 7.14061e-18 -0.0147601)
(-7.94001e-19 -3.12597e-19 -0.014494)
(-1.40986e-18 -8.97019e-19 -0.0145133)
(-1.51936e-18 -6.01739e-19 -0.0145321)
(-1.26584e-18 -2.36961e-19 -0.0145503)
(-2.11969e-18 -2.69541e-19 -0.0145679)
(-1.62759e-18 -3.77097e-19 -0.0145849)
(-1.21624e-18 -2.20418e-19 -0.0146012)
(-1.47697e-18 1.91682e-19 -0.0146168)
(-1.41427e-18 -2.94291e-19 -0.0146317)
(-1.52549e-18 3.46801e-19 -0.0146458)
(-1.61304e-18 3.00401e-19 -0.0146592)
(-1.91997e-18 5.13087e-19 -0.0146717)
(-1.80765e-18 2.6975e-19 -0.0146835)
(-1.77467e-18 3.4991e-19 -0.0146944)
(-1.71785e-18 4.92421e-19 -0.0147044)
(-1.40248e-18 7.52899e-19 -0.0147136)
(-1.6587e-18 1.29624e-18 -0.0147219)
(-1.85912e-18 4.10383e-19 -0.0147293)
(-1.40226e-18 6.74862e-19 -0.0147358)
(-1.70078e-18 3.05262e-19 -0.0147414)
(-2.01675e-18 7.98199e-19 -0.0147461)
(-2.0998e-18 7.90649e-19 -0.0147499)
(-2.45103e-18 9.24241e-19 -0.0147527)
(-2.50234e-18 1.03675e-18 -0.0147546)
(-2.39237e-18 1.25155e-18 -0.0147555)
(-2.42295e-18 1.05117e-18 -0.0147555)
(-2.72914e-18 1.88034e-18 -0.0147546)
(-3.34042e-18 1.87862e-18 -0.0147527)
(-2.97663e-18 2.36799e-18 -0.0147499)
(-2.92398e-18 2.78679e-18 -0.0147461)
(-3.02019e-18 3.88043e-18 -0.0147414)
(-2.54499e-18 4.64494e-18 -0.0147358)
(-2.35641e-18 6.15459e-18 -0.0147293)
(-1.40583e-18 6.64897e-18 -0.0147219)
(-7.27896e-19 -4.67913e-19 -0.0144542)
(-1.15142e-18 -1.24239e-18 -0.0144736)
(-1.59565e-18 -3.27889e-19 -0.0144925)
(-1.27843e-18 -1.39291e-20 -0.0145108)
(-2.0109e-18 -4.3314e-19 -0.0145285)
(-1.90322e-18 -1.2788e-19 -0.0145456)
(-1.16331e-18 -2.87005e-19 -0.014562)
(-1.56067e-18 3.9746e-19 -0.0145777)
(-1.55345e-18 2.25701e-20 -0.0145926)
(-1.48491e-18 4.08995e-19 -0.0146068)
(-1.5833e-18 2.68168e-19 -0.0146203)
(-1.86503e-18 3.71386e-19 -0.0146329)
(-1.92023e-18 4.61699e-19 -0.0146447)
(-1.74618e-18 2.7309e-19 -0.0146557)
(-1.71868e-18 5.73206e-19 -0.0146658)
(-1.31428e-18 7.6242e-19 -0.0146751)
(-1.58165e-18 7.45014e-19 -0.0146834)
(-1.95209e-18 2.43595e-19 -0.0146909)
(-1.37635e-18 3.71798e-19 -0.0146975)
(-1.65667e-18 3.54148e-19 -0.0147031)
(-1.97053e-18 1.02736e-18 -0.0147078)
(-2.08119e-18 8.26919e-19 -0.0147116)
(-2.41866e-18 9.56898e-19 -0.0147144)
(-2.46953e-18 9.9225e-19 -0.0147163)
(-2.38167e-18 1.35285e-18 -0.0147173)
(-2.32435e-18 9.30047e-19 -0.0147173)
(-2.66989e-18 1.83053e-18 -0.0147163)
(-3.31599e-18 1.55175e-18 -0.0147144)
(-2.82837e-18 2.28206e-18 -0.0147116)
(-2.7584e-18 2.4816e-18 -0.0147078)
(-2.75972e-18 3.75695e-18 -0.0147031)
(-2.21494e-18 4.71592e-18 -0.0146975)
(-2.11692e-18 5.85123e-18 -0.0146909)
(-1.23646e-18 6.27965e-18 -0.0146834)
(-7.6187e-19 -5.8576e-19 -0.0144141)
(-9.70863e-19 -1.27211e-18 -0.0144336)
(-1.56484e-18 -5.5696e-20 -0.0144526)
(-1.35245e-18 -7.24282e-20 -0.014471)
(-1.86976e-18 -6.43864e-19 -0.0144888)
(-2.0165e-18 3.88831e-20 -0.0145059)
(-1.36094e-18 1.65243e-19 -0.0145224)
(-1.38956e-18 2.52601e-19 -0.0145382)
(-1.70499e-18 2.58005e-19 -0.0145532)
(-1.52932e-18 4.26244e-19 -0.0145675)
(-1.54846e-18 1.12291e-19 -0.0145811)
(-1.75877e-18 1.87167e-19 -0.0145938)
(-1.97573e-18 5.09422e-19 -0.0146056)
(-1.76958e-18 2.60924e-19 -0.0146167)
(-1.66948e-18 5.90474e-19 -0.0146269)
(-1.36233e-18 6.925e-19 -0.0146362)
(-1.56985e-18 3.36797e-19 -0.0146446)
(-1.96037e-18 1.76753e-19 -0.0146521)
(-1.32914e-18 2.97969e-19 -0.0146587)
(-1.51228e-18 5.87459e-19 -0.0146644)
(-1.91609e-18 1.23658e-18 -0.0146691)
(-2.14139e-18 9.65212e-19 -0.0146729)
(-2.41737e-18 9.2535e-19 -0.0146758)
(-2.40395e-18 9.93112e-19 -0.0146777)
(-2.42481e-18 1.49409e-18 -0.0146786)
(-2.2942e-18 7.62691e-19 -0.0146786)
(-2.61489e-18 1.42496e-18 -0.0146777)
(-3.29482e-18 1.47976e-18 -0.0146758)
(-2.75008e-18 2.12414e-18 -0.0146729)
(-2.57885e-18 2.20527e-18 -0.0146691)
(-2.43231e-18 3.26339e-18 -0.0146644)
(-1.90623e-18 4.658e-18 -0.0146587)
(-1.93952e-18 5.72484e-18 -0.0146521)
(-7.07493e-19 -7.76003e-19 -0.0143737)
(-9.9078e-19 -1.08907e-18 -0.0143933)
(-1.3287e-18 -1.90729e-19 -0.0144124)
(-1.20073e-18 -3.69182e-19 -0.0144309)
(-1.79999e-18 -6.13802e-19 -0.0144487)
(-1.99753e-18 2.08157e-19 -0.014466)
(-1.56908e-18 3.49517e-19 -0.0144826)
(-1.21342e-18 -2.24125e-19 -0.0144984)
(-1.51963e-18 2.10019e-20 -0.0145135)
(-1.56149e-18 3.14403e-19 -0.0145279)
(-1.51684e-18 -1.31318e-19 -0.0145415)
(-1.62802e-18 3.60972e-20 -0.0145543)