/*--------------------------------*- C++ -*----------------------------------*\
  =========                 |
  \\      /  F ield         | OpenFOAM: The Open Source CFD Toolbox
   \\    /   O peration     | Website:  https://openfoam.org
    \\  /    A nd           | Version:  7
     \\/     M anipulation  |
\*---------------------------------------------------------------------------*/
FoamFile
{
    version     2.0;
    format      ascii;
    class       volVectorField;
    location    "240000";
    object      vorticity;
}
// * * * * * * * * * * * * * * * * * * * * * * * * * * * * * * * * * * * * * //

dimensions      [0 0 -1 0 0 0 0];

internalField   nonuniform List<vector> 
4850
(
(0.00598642 0.00405816 5.85646e-18)
(0.00513432 0.00472449 1.4056e-17)
(0.00615603 0.00423083 6.9909e-18)
(0.00531359 0.00488766 1.39597e-17)
(0.00535381 0.00465875 1.2678e-17)
(0.0063253 0.00440366 1.20122e-17)
(0.0054927 0.00505067 1.50701e-17)
(0.00553802 0.0048164 1.38373e-17)
(0.0055773 0.00458577 1.23551e-17)
(0.00561303 0.00435639 1.02652e-17)
(0.00649441 0.0045767 1.80779e-17)
(0.0056718 0.00521365 1.65182e-17)
(0.00572217 0.00497395 1.41628e-17)
(0.00576644 0.00473764 1.18667e-17)
(0.00580699 0.00450244 1.01524e-17)
(0.00584397 0.00426849 8.38199e-18)
(0.0066635 0.00475006 1.90194e-17)
(0.00585099 0.0053767 1.8255e-17)
(0.00590637 0.0051315 1.44131e-17)
(0.00595558 0.00488946 1.17479e-17)
(0.00600091 0.00464839 1.01672e-17)
(0.00604249 0.00440843 7.25098e-18)
(0.00608047 0.00416969 5.26934e-18)
(0.00683272 0.0049238 1.77601e-17)
(0.0060304 0.00553994 1.85477e-17)
(0.00609075 0.00528917 1.37916e-17)
(0.00614485 0.00504134 1.18428e-17)
(0.00619491 0.00479433 9.51043e-18)
(0.00624104 0.00454831 5.56222e-18)
(0.0062834 0.00430338 3.88855e-18)
(0.00632214 0.00405965 6.07632e-18)
(0.00635743 0.00381721 9.25778e-18)
(0.00700221 0.005098 1.79738e-17)
(0.00621014 0.00570347 1.6432e-17)
(0.00627543 0.00544707 1.31209e-17)
(0.00633438 0.00519337 1.14562e-17)
(0.00638911 0.00494038 8.09534e-18)
(0.00643976 0.00468824 3.88739e-18)
(0.00648645 0.00443707 3.49122e-18)
(0.00652934 0.00418698 7.16112e-18)
(0.00656858 0.00393805 1.04467e-17)
(0.00660435 0.00369036 8.53757e-18)
(0.00717211 0.00527275 1.74696e-17)
(0.00639034 0.0058674 1.22336e-17)
(0.00646052 0.00560528 1.13091e-17)
(0.00652429 0.00534566 1.08175e-17)
(0.00658366 0.00508662 7.2364e-18)
(0.00663876 0.00482831 3.19235e-18)
(0.00668974 0.00457085 4.18101e-18)
(0.00673673 0.00431434 8.26998e-18)
(0.00677989 0.00405889 1.05249e-17)
(0.00681938 0.00380455 8.66994e-18)
(0.00685536 0.0035514 8.7167e-18)
(0.00688799 0.00329945 8.80803e-18)
(0.00691743 0.00304875 6.65386e-18)
(0.00694386 0.00279928 6.40492e-18)
(0.00734253 0.00544814 1.48505e-17)
(0.00657109 0.00603183 1.00019e-17)
(0.00664615 0.00576392 1.03623e-17)
(0.00671469 0.00549831 1.04417e-17)
(0.00677866 0.00523316 6.70287e-18)
(0.00683819 0.00496862 3.35043e-18)
(0.00689341 0.00470481 5.12061e-18)
(0.00694446 0.00444185 8.86101e-18)
(0.00699149 0.00417982 1.05741e-17)
(0.00703466 0.0039188 9.31265e-18)
(0.00707412 0.00365885 9.04018e-18)
(0.00711003 0.00340002 9.31036e-18)
(0.00714256 0.00314232 7.53215e-18)
(0.00717185 0.00288576 6.94689e-18)
(0.00719807 0.00263032 9.41352e-18)
(0.00722136 0.00237599 1.02705e-17)
(0.00724186 0.00212271 1.10683e-17)
(0.00725972 0.00187042 6.90814e-18)
(0.0075136 0.00562423 1.08957e-17)
(0.0067525 0.00619686 9.1577e-18)
(0.00683242 0.00592309 9.83877e-18)
(0.0069057 0.00565141 9.68591e-18)
(0.00697424 0.00538009 6.14574e-18)
(0.00703816 0.00510926 3.82703e-18)
(0.00709758 0.00483905 5.82486e-18)
(0.00715265 0.00456958 8.86733e-18)
(0.00720352 0.00430093 1.06953e-17)
(0.00725032 0.00403319 1.02687e-17)
(0.00729323 0.00376641 9.51732e-18)
(0.00733238 0.00350065 9.08758e-18)
(0.00736794 0.00323592 7.25288e-18)
(0.00740006 0.00297225 6.75227e-18)
(0.0074289 0.00270961 9.10211e-18)
(0.00745458 0.00244799 9.99425e-18)
(0.00747726 0.00218735 1.09958e-17)
(0.00749705 0.00192763 8.83855e-18)
(0.0075141 0.00166876 2.00246e-18)
(0.00752849 0.00141065 1.51675e-18)
(0.00768545 0.00580113 6.92017e-18)
(0.0069347 0.00636259 8.34855e-18)
(0.00701944 0.00608287 9.24191e-18)
(0.00709745 0.00580507 8.9179e-18)
(0.00717052 0.0055275 5.83473e-18)
(0.00723879 0.00525032 4.74796e-18)
(0.00730239 0.00497365 6.81916e-18)
(0.00736144 0.00469761 8.84816e-18)
(0.0074161 0.0044223 1.09153e-17)
(0.00746651 0.00414778 1.07095e-17)
(0.00751281 0.00387414 9.78912e-18)
(0.00755517 0.00360141 8.18841e-18)
(0.00759374 0.00332963 6.80693e-18)
(0.00762865 0.00305881 6.34617e-18)
(0.00766006 0.00278895 8.66909e-18)
(0.0076881 0.00252003 9.97096e-18)
(0.00771292 0.00225201 1.09033e-17)
(0.00773463 0.00198485 1.05177e-17)
(0.00775336 0.00171848 3.82605e-18)
(0.0077692 0.00145282 1.62547e-18)
(0.00778226 0.00118778 7.62088e-19)
(0.0077926 0.000923265 -5.76205e-19)
(0.0078003 0.00065917 2.7308e-18)
(0.00780541 0.000395378 1.2825e-18)
(0.00785818 0.00597892 5.50321e-18)
(0.00711777 0.00652912 7.23011e-18)
(0.00720733 0.00624338 8.93828e-18)
(0.00729003 0.00595937 8.29462e-18)
(0.00736762 0.00567549 6.0687e-18)
(0.00744021 0.0053919 6.4856e-18)
(0.00750794 0.00510871 7.06858e-18)
(0.00757095 0.00482604 7.76937e-18)
(0.00762937 0.004544 1.04487e-17)
(0.00768334 0.00426267 1.10366e-17)
(0.00773302 0.00398211 1.03383e-17)
(0.00777855 0.00370238 7.7429e-18)
(0.00782008 0.00342351 6.81136e-18)
(0.00785775 0.00314552 5.45979e-18)
(0.0078917 0.00286841 7.51798e-18)
(0.00792208 0.00259216 1.00446e-17)
(0.00794901 0.00231674 1.09977e-17)
(0.00797261 0.00204212 1.14785e-17)
(0.00799299 0.00176823 4.88972e-18)
(0.00801027 0.001495 9.01866e-19)
(0.00802452 0.00122236 8.21228e-19)
(0.00803583 0.000950197 1.11417e-18)
(0.00804425 0.000678428 4.60861e-18)
(0.00804984 0.000406941 2.90082e-18)
(0.00805262 0.000135626 5.82312e-19)
(0.00805262 -0.000135632 1.50819e-17)
(0.00804984 -0.000406947 2.48387e-17)
(0.00804425 -0.000678433 1.4117e-17)
(0.00803582 -0.000950203 8.65299e-18)
(0.00803191 0.00615768 6.98495e-18)
(0.00730183 0.00669653 5.87002e-18)
(0.00739619 0.00640469 8.32721e-18)
(0.00748356 0.00611441 7.54427e-18)
(0.00756564 0.00582415 5.95889e-18)
(0.00764253 0.00553407 7.4163e-18)
(0.00771438 0.00524429 7.05157e-18)
(0.00778131 0.00495495 7.07035e-18)
(0.00784346 0.00466613 1.03299e-17)
(0.00790097 0.00437792 1.1344e-17)
(0.00795399 0.00409041 1.02564e-17)
(0.00800265 0.00380363 7.16024e-18)
(0.00804711 0.00351763 6.80538e-18)
(0.00808751 0.00323242 4.77271e-18)
(0.00812398 0.00294802 6.17442e-18)
(0.00815666 0.00266442 9.90414e-18)
(0.00818567 0.00238159 1.11765e-17)
(0.00821113 0.00209948 1.15532e-17)
(0.00823316 0.00181806 4.64661e-18)
(0.00825184 0.00153725 5.34657e-19)
(0.00826727 0.00125698 1.65107e-18)
(0.00827953 0.000977161 2.30367e-18)
(0.00828866 0.000697707 5.04132e-18)
(0.00829473 0.000418517 2.43804e-18)
(0.00829775 0.000139486 6.06232e-19)
(0.00829775 -0.000139491 1.57692e-17)
(0.00829473 -0.000418522 2.59506e-17)
(0.00828866 -0.000697712 1.56918e-17)
(0.00827953 -0.000977166 1.08426e-17)
(0.00826727 -0.00125698 1.55945e-17)
(0.00825184 -0.00153725 1.29973e-17)
(0.00823316 -0.00181806 7.63508e-18)
(0.00820675 0.00633749 9.53238e-18)
(0.00748698 0.00686494 5.67059e-18)
(0.00758613 0.00656691 7.56871e-18)
(0.00767816 0.00627028 6.727e-18)
(0.0077647 0.00597356 5.53214e-18)
(0.00784588 0.00567693 8.02671e-18)
(0.00792181 0.0053805 7.44365e-18)
(0.00799264 0.00508441 7.17471e-18)
(0.00805849 0.00478875 1.08046e-17)
(0.00811951 0.00449362 1.12217e-17)
(0.00817584 0.00419909 9.79239e-18)
(0.00822761 0.00390521 6.97762e-18)
(0.00827498 0.00361204 6.73177e-18)
(0.00831808 0.00331958 4.40293e-18)
(0.00835704 0.00302786 4.97024e-18)
(0.00839199 0.00273687 9.67203e-18)
(0.00842306 0.00244659 1.11962e-17)
(0.00845036 0.00215698 1.1219e-17)
(0.00847401 0.00186799 4.99091e-18)
(0.00849408 0.00157958 8.28038e-19)
(0.00851068 0.00129167 1.48442e-18)
(0.00852387 0.00100418 2.5115e-18)
(0.00853371 0.000717022 4.96273e-18)
(0.00854024 0.000430113 1.68077e-18)
(0.0085435 0.000143352 8.51464e-19)
(0.0085435 -0.000143358 1.54466e-17)
(0.00854024 -0.000430118 2.4509e-17)
(0.00853371 -0.000717027 1.53736e-17)
(0.00852387 -0.00100418 1.20109e-17)
(0.00851068 -0.00129167 1.75797e-17)
(0.00849408 -0.00157958 1.64329e-17)
(0.008474 -0.001868 1.30606e-17)
(0.00845036 -0.00215698 1.28071e-17)
(0.00842306 -0.00244659 5.20267e-18)
(0.00838281 0.00651845 1.06676e-17)
(0.00767332 0.00703442 6.54771e-18)
(0.00777725 0.00673013 6.32274e-18)
(0.00787392 0.00642706 5.86446e-18)
(0.00796492 0.00612382 6.08731e-18)
(0.00805036 0.00582055 9.1839e-18)
(0.00813036 0.00551741 8.09677e-18)
(0.00820506 0.0052145 8.05107e-18)
(0.00827459 0.00491194 1.11849e-17)
(0.00833909 0.00460982 1.06185e-17)
(0.0083987 0.00430823 9.55827e-18)
(0.00845357 0.0040072 6.8469e-18)
(0.00850381 0.00370681 6.43037e-18)
(0.00854958 0.00340706 4.68091e-18)
(0.00859101 0.00310798 4.47033e-18)
(0.00862821 0.00280956 8.84224e-18)
(0.00866132 0.00251179 1.02071e-17)
(0.00869045 0.00221464 1.00699e-17)
(0.00871569 0.00191807 4.97344e-18)
(0.00873714 0.00162203 1.82529e-18)
(0.00875489 0.00132645 1.84639e-18)
(0.008769 0.00103126 2.72098e-18)
(0.00877953 0.000736385 4.93794e-18)
(0.00878653 0.000441737 1.17618e-18)
(0.00879002 0.000147229 7.19764e-19)
(0.00879002 -0.000147234 1.43923e-17)
(0.00878653 -0.000441742 2.17719e-17)
(0.00877953 -0.000736389 1.40575e-17)
(0.008769 -0.00103126 1.28597e-17)
(0.00875489 -0.00132645 1.83574e-17)
(0.00873714 -0.00162203 1.70548e-17)
(0.00871568 -0.00191807 1.62371e-17)
(0.00869044 -0.00221464 1.99012e-17)
(0.00866132 -0.00251179 7.30199e-18)
(0.00856019 0.00670065 9.43207e-18)
(0.00786096 0.00720508 7.8605e-18)
(0.00796966 0.00689444 5.81694e-18)
(0.00807097 0.00658486 5.82903e-18)
(0.0081664 0.006275 7.52268e-18)
(0.00825609 0.00596503 1.00008e-17)
(0.00834014 0.00565509 8.70889e-18)
(0.00841869 0.0053453 8.87728e-18)
(0.00849189 0.00503578 1.0967e-17)
(0.00855985 0.00472662 9.87541e-18)
(0.00862272 0.00441789 8.88805e-18)
(0.00868064 0.00410967 6.76468e-18)
(0.00873375 0.00380199 6.51452e-18)
(0.00878217 0.0034949 5.63972e-18)
(0.00882604 0.00318841 4.46801e-18)
(0.00886547 0.00288253 8.10652e-18)
(0.0089006 0.00257724 9.78145e-18)
(0.00893153 0.00227251 9.60751e-18)
(0.00895835 0.00196832 4.88284e-18)
(0.00898116 0.00166462 2.35015e-18)
(0.00900005 0.00136134 2.39423e-18)
(0.00901507 0.00105843 2.76885e-18)
(0.00902629 0.00075581 4.3002e-18)
(0.00903374 0.000453399 5.47505e-19)
(0.00903746 0.000151117 7.09059e-19)
(0.00903746 -0.000151122 1.33656e-17)
(0.00903374 -0.000453404 1.90407e-17)
(0.00902629 -0.000755814 1.25718e-17)
(0.00901507 -0.00105844 1.36861e-17)
(0.00900005 -0.00136135 1.85953e-17)
(0.00898116 -0.00166462 1.63071e-17)
(0.00895835 -0.00196833 1.70507e-17)
(0.00893152 -0.00227252 2.67112e-17)
(0.0089006 -0.00257724 -1.51976e-18)
(0.00873901 0.00688417 8.23932e-18)
(0.00804999 0.00737701 9.08158e-18)
(0.00816347 0.00705992 5.26079e-18)
(0.0082694 0.00674375 5.79891e-18)
(0.00836927 0.0064272 9.07083e-18)
(0.00846318 0.00611045 1.00966e-17)
(0.00855127 0.00579364 9.19799e-18)
(0.00863366 0.0054769 9.58272e-18)
(0.0087105 0.00516034 1.07391e-17)
(0.0087819 0.00484406 9.13125e-18)
(0.00884802 0.00452815 8.31911e-18)
(0.00890898 0.00421266 7.03266e-18)
(0.00896492 0.00389766 6.65688e-18)
(0.00901597 0.00358318 6.63411e-18)
(0.00906226 0.00326923 4.87464e-18)
(0.00910391 0.00295583 7.4967e-18)
(0.00914104 0.00264297 9.61754e-18)
(0.00917375 0.00233063 9.34202e-18)
(0.00920214 0.00201878 3.86924e-18)
(0.0092263 0.00170738 2.15672e-18)
(0.00924631 0.00139638 3.26614e-18)
(0.00926224 0.00108571 2.8712e-18)
(0.00927413 0.00077531 3.65011e-18)
(0.00928204 0.000465105 -3.92348e-20)
(0.00928599 0.00015502 1.17274e-18)
(0.00928599 -0.000155025 1.19578e-17)
(0.00928204 -0.00046511 1.60439e-17)
(0.00927413 -0.000775314 1.15777e-17)
(0.00926223 -0.00108571 1.45328e-17)
(0.00924631 -0.00139638 1.83949e-17)
(0.0092263 -0.00170739 1.54886e-17)
(0.00920213 -0.00201879 1.88028e-17)
(0.00917374 -0.00233064 4.41241e-17)
(0.00914103 -0.00264297 3.04084e-17)
(0.00891937 0.0070691 8.08092e-18)
(0.00824052 0.0075503 1.02705e-17)
(0.00835877 0.00722668 4.74084e-18)
(0.00846933 0.00690382 6.65719e-18)
(0.00857362 0.0065805 1.02183e-17)
(0.00867176 0.00625689 9.91571e-18)
(0.00876387 0.00593313 9.85822e-18)
(0.00885009 0.00560936 9.46796e-18)
(0.00893055 0.00528569 1.07929e-17)
(0.00900538 0.00496223 8.90732e-18)
(0.00907472 0.00463906 7.80211e-18)
(0.0091387 0.00431626 7.3147e-18)
(0.00919746 0.00399386 6.51922e-18)
(0.00925113 0.00367193 7.11001e-18)
(0.00929982 0.00335047 5.31414e-18)
(0.00934367 0.00302951 6.68533e-18)
(0.00938278 0.00270903 9.2418e-18)
(0.00941725 0.00238904 8.81934e-18)
(0.0094472 0.00206949 2.37481e-18)
(0.00947269 0.00175035 1.87105e-18)
(0.00949382 0.00143158 4.69102e-18)
(0.00951064 0.00111311 2.59969e-18)
(0.00952321 0.000794897 2.15649e-18)
(0.00953157 0.000476864 -3.26635e-19)
(0.00953574 0.000158941 2.08503e-18)
(0.00953574 -0.000158945 1.04225e-17)
(0.00953156 -0.000476868 1.38337e-17)
(0.00952321 -0.000794901 1.1641e-17)
(0.00951064 -0.00111312 1.52165e-17)
(0.00949382 -0.00143158 1.78228e-17)
(0.00947269 -0.00175035 1.42212e-17)
(0.00944719 -0.00206949 1.75407e-17)
(0.00941725 -0.00238904 2.59374e-17)
(0.00938277 -0.00270904 9.0932e-18)
(0.00910136 0.00725554 8.95454e-18)
(0.00843266 0.00772505 1.1354e-17)
(0.00855568 0.0073948 4.78486e-18)
(0.00867086 0.00706517 7.81114e-18)
(0.00877957 0.00673499 1.06906e-17)
(0.00888192 0.00640443 1.02057e-17)
(0.00897805 0.00607364 9.98003e-18)
(0.00906809 0.00574277 8.88101e-18)
(0.00915216 0.00541192 1.08518e-17)
(0.0092304 0.0050812 7.89628e-18)
(0.00930295 0.00475071 7.46973e-18)
(0.00936994 0.00442051 8.22767e-18)
(0.00943151 0.00409066 6.26023e-18)
(0.00948777 0.00376121 7.12371e-18)
(0.00953885 0.00343219 5.1739e-18)
(0.00958488 0.00310361 6.06925e-18)
(0.00962595 0.00277547 8.62477e-18)
(0.00966219 0.00244776 7.59511e-18)
(0.00969367 0.00212046 1.24829e-18)
(0.00972049 0.00179354 2.31454e-18)
(0.00974272 0.00146696 6.1627e-18)
(0.00976043 0.00114066 2.40476e-18)
(0.00977367 0.000814585 5.59309e-19)
(0.00978247 0.000488682 -7.34386e-19)
(0.00978686 0.000162881 2.60601e-18)
(0.00978686 -0.000162885 9.14035e-18)
(0.00978247 -0.000488686 1.24647e-17)
(0.00977367 -0.000814589 1.18511e-17)
(0.00976043 -0.00114066 1.51326e-17)
(0.00974272 -0.00146696 1.73404e-17)
(0.00972049 -0.00179354 1.37347e-17)
(0.00969367 -0.00212046 1.66427e-17)
(0.00966218 -0.00244776 1.86975e-17)
(0.00962595 -0.00277547 1.48289e-17)
(0.0092851 0.00744358 8.92382e-18)
(0.0086265 0.00790135 1.10888e-17)
(0.00875431 0.00756437 5.75015e-18)
(0.00887411 0.00722788 8.67755e-18)
(0.00898723 0.00689075 1.05011e-17)
(0.0090938 0.00655316 1.04539e-17)
(0.00919394 0.00621526 9.69859e-18)
(0.00928778 0.00587719 8.33383e-18)
(0.00937545 0.00553908 1.02791e-17)
(0.0094571 0.00520103 6.74684e-18)
(0.00953285 0.00486314 7.97519e-18)
(0.00960283 0.00452548 9.21591e-18)
(0.00966719 0.00418811 5.40282e-18)
(0.00972603 0.00385109 6.65028e-18)
(0.00977949 0.00351444 5.06275e-18)
(0.00982768 0.00317818 5.49814e-18)
(0.00987071 0.00284231 7.56609e-18)
(0.00990869 0.00250684 6.35283e-18)
(0.0099417 0.00217174 6.14031e-19)
(0.00996984 0.00183699 2.63738e-18)
(0.00999317 0.00150254 7.09522e-18)
(0.0100118 0.00116836 2.56671e-18)
(0.0100257 0.000834385 -3.52957e-19)
(0.0100349 0.000500567 -8.24577e-19)
(0.0100395 0.000166844 3.00529e-18)
(0.0100395 -0.000166848 8.70904e-18)
(0.0100349 -0.000500571 1.1562e-17)
(0.0100257 -0.000834389 1.14604e-17)
(0.0100118 -0.00116836 1.45767e-17)
(0.00999317 -0.00150254 1.64939e-17)
(0.00996984 -0.00183699 1.31186e-17)
(0.0099417 -0.00217174 1.576e-17)
(0.00990869 -0.00250684 1.48887e-17)
(0.00987071 -0.00284231 1.29431e-17)
(0.0094707 0.0076333 8.39399e-18)
(0.00882214 0.00807929 1.03086e-17)
(0.00895475 0.00773549 6.96704e-18)
(0.00907918 0.00739204 9.02379e-18)
(0.00919672 0.00704787 1.02494e-17)
(0.0093075 0.00670315 1.0206e-17)
(0.00941164 0.00635805 9.09201e-18)
(0.00950928 0.00601271 7.52069e-18)
(0.00960056 0.00566725 9.1779e-18)
(0.00968559 0.00532179 5.89298e-18)
(0.00976453 0.00497643 9.02341e-18)
(0.0098375 0.00463123 1.04322e-17)
(0.00990463 0.00428627 4.93876e-18)
(0.00996605 0.0039416 6.11305e-18)
(0.0100219 0.00359726 4.91592e-18)
(0.0100722 0.00325326 4.26021e-18)
(0.0101172 0.00290961 6.07798e-18)
(0.0101569 0.00256632 5.57711e-18)
(0.0101914 0.00222336 1.03821e-18)
(0.0102209 0.00188072 2.98689e-18)
(0.0102453 0.00153835 7.31301e-18)
(0.0102648 0.00119624 2.73041e-18)
(0.0102793 0.00085431 -6.64792e-19)
(0.010289 0.000512527 -8.10442e-19)
(0.0102938 0.000170831 2.86794e-18)
(0.0102938 -0.000170835 8.51629e-18)
(0.010289 -0.000512531 1.11418e-17)
(0.0102793 -0.000854313 1.08357e-17)
(0.0102648 -0.00119624 1.3343e-17)
(0.0102453 -0.00153836 1.56244e-17)
(0.0102209 -0.00188072 1.31465e-17)
(0.0101914 -0.00222336 1.46612e-17)
(0.0101569 -0.00256632 1.2502e-17)
(0.0101172 -0.00290961 1.15667e-17)
(0.00965824 0.00782482 7.98043e-18)
(0.0090197 0.00825897 1.01875e-17)
(0.00915711 0.00790825 7.90614e-18)
(0.00928617 0.00755774 8.46151e-18)
(0.00940814 0.00720643 9.96291e-18)
(0.00952313 0.00685449 1.00489e-17)
(0.00963128 0.0065021 9.04794e-18)
(0.00973272 0.0061494 7.12754e-18)
(0.00982759 0.00579651 7.87467e-18)
(0.00991601 0.00544356 5.89776e-18)
(0.00999813 0.00509063 9.81316e-18)
(0.0100741 0.00473783 1.06731e-17)
(0.010144 0.0043852 5.22616e-18)
(0.010208 0.00403282 6.33723e-18)
(0.0102661 0.0036807 4.54409e-18)
(0.0103186 0.00332889 2.86825e-18)
(0.0103655 0.0029774 4.61383e-18)
(0.010407 0.00262622 5.02495e-18)
(0.010443 0.00227534 1.6085e-18)
(0.0104738 0.00192475 3.16885e-18)
(0.0104993 0.00157442 7.72166e-18)
(0.0105196 0.00122431 3.11486e-18)
(0.0105348 0.000874372 -9.6906e-19)
(0.0105449 0.000524569 -9.83661e-19)
(0.01055 0.000174846 2.56139e-18)
(0.01055 -0.000174849 8.38797e-18)
(0.0105449 -0.000524572 1.09137e-17)
(0.0105348 -0.000874375 1.0555e-17)
(0.0105196 -0.00122431 1.23241e-17)
(0.0104993 -0.00157442 1.46274e-17)
(0.0104738 -0.00192475 1.27207e-17)
(0.010443 -0.00227534 1.35631e-17)
(0.010407 -0.00262622 1.17262e-17)
(0.0103655 -0.0029774 1.14382e-17)
(0.00984785 0.00801821 7.04038e-18)
(0.00921928 0.00844049 9.81513e-18)
(0.00936151 0.00808274 8.27185e-18)
(0.00949522 0.00772507 8.24327e-18)
(0.00962161 0.00736652 1.00899e-17)
(0.00974082 0.00700727 9.82102e-18)
(0.00985297 0.00664749 8.9477e-18)
(0.00995821 0.00628733 6.39248e-18)
(0.0100567 0.00592692 6.66354e-18)
(0.0101485 0.00556639 7.05397e-18)
(0.0102338 0.00520583 9.98346e-18)
(0.0103127 0.00484533 9.97749e-18)
(0.0103853 0.00448496 5.7955e-18)
(0.0104519 0.00412478 6.64529e-18)
(0.0105124 0.00376482 4.22054e-18)
(0.010567 0.00340513 1.8934e-18)
(0.0106159 0.00304572 3.25362e-18)
(0.010659 0.00268658 5.21677e-18)
(0.0106966 0.00232772 2.08106e-18)
(0.0107286 0.00196912 2.76411e-18)
(0.0107552 0.00161075 8.12257e-18)
(0.0107764 0.00125259 3.2228e-18)
(0.0107922 0.000894582 -1.54681e-18)
(0.0108028 0.0005367 -1.10379e-18)
(0.010808 0.000178891 2.32813e-18)
(0.010808 -0.000178894 8.02597e-18)
(0.0108028 -0.000536703 1.0321e-17)
(0.0107922 -0.000894585 1.05262e-17)
(0.0107764 -0.00125259 1.18975e-17)
(0.0107552 -0.00161075 1.37315e-17)
(0.0107286 -0.00196912 1.19912e-17)
(0.0106966 -0.00232772 1.29632e-17)
(0.010659 -0.00268658 1.18272e-17)
(0.0106159 -0.00304572 1.11752e-17)
(0.010567 -0.00340513 1.40284e-18)
(0.0100396 0.00821359 4.02203e-18)
(0.00942098 0.00862395 8.81608e-18)
(0.00956805 0.00825905 8.27526e-18)
(0.00970641 0.00789412 7.93403e-18)
(0.00983724 0.00752823 1.05198e-17)
(0.00996068 0.00716157 9.7258e-18)
(0.0100768 0.0067943 8.92778e-18)
(0.0101859 0.00642659 5.96133e-18)
(0.0102879 0.00605857 6.33924e-18)
(0.0103831 0.00569036 7.82498e-18)
(0.0104716 0.00532207 8.92965e-18)
(0.0105535 0.00495379 9.48768e-18)
(0.0106289 0.00458559 6.90768e-18)
(0.010698 0.00421753 6.56285e-18)
(0.0107608 0.00384967 3.66267e-18)
(0.0108176 0.00348202 1.25839e-18)
(0.0108684 0.00311461 2.48703e-18)
(0.0109132 0.00274745 5.58288e-18)
(0.0109523 0.00238053 2.01325e-18)
(0.0109856 0.00201385 2.35653e-18)
(0.0110132 0.00164738 7.92291e-18)
(0.0110353 0.00128109 2.90139e-18)
(0.0110518 0.000914954 -1.1515e-18)
(0.0110628 0.000548927 2.02247e-19)
(0.0110683 0.000182967 2.3114e-18)
(0.0110683 -0.00018297 6.68928e-18)
(0.0110628 -0.00054893 9.41647e-18)
(0.0110518 -0.000914957 1.03381e-17)
(0.0110353 -0.00128109 1.0976e-17)
(0.0110132 -0.00164738 1.24964e-17)
(0.0109856 -0.00201385 1.15107e-17)
(0.0109523 -0.00238053 1.2509e-17)
(0.0109132 -0.00274745 1.1986e-17)
(0.0108683 -0.00311461 1.0695e-17)
(0.0108176 -0.00348201 2.15805e-18)
(0.0102337 0.00841104 8.93408e-19)
(0.00962491 0.00880943 8.11173e-18)
(0.00977684 0.00843728 8.40831e-18)
(0.00991987 0.00806498 7.9092e-18)
(0.0100552 0.00769165 1.0918e-17)
(0.0101828 0.00731746 8.91619e-18)
(0.010303 0.00694261 8.82582e-18)
(0.0104159 0.00656725 5.85478e-18)
(0.0105215 0.00619152 6.16697e-18)
(0.0106201 0.00581554 7.82751e-18)
(0.0107117 0.00543943 8.09497e-18)
(0.0107965 0.00506328 9.8187e-18)
(0.0108747 0.00468717 7.77817e-18)
(0.0109463 0.00431115 5.84491e-18)
(0.0110115 0.00393528 3.5433e-18)
(0.0110704 0.00355959 1.46247e-18)
(0.0111231 0.00318411 2.12802e-18)
(0.0111697 0.00280885 4.92251e-18)
(0.0112102 0.0024338 1.21861e-18)
(0.0112448 0.00205896 2.17878e-18)
(0.0112736 0.00168432 7.15858e-18)
(0.0112965 0.00130984 2.83861e-18)
(0.0113136 0.000935499 2.40634e-19)
(0.011325 0.000561258 1.83208e-18)
(0.0113307 0.000187078 2.16454e-18)
(0.0113307 -0.000187081 5.14341e-18)
(0.011325 -0.00056126 8.73163e-18)
(0.0113136 -0.000935501 1.04085e-17)
(0.0112965 -0.00130984 1.02863e-17)
(0.0112736 -0.00168432 1.09601e-17)
(0.0112448 -0.00205896 1.07362e-17)
(0.0112102 -0.0024338 1.16549e-17)
(0.0111697 -0.00280885 1.1405e-17)
(0.0111231 -0.00318411 9.95097e-18)
(0.0110704 -0.00355959 3.21647e-18)
(0.0104301 0.00861067 -4.39937e-19)
(0.00983118 0.00899704 7.57962e-18)
(0.00998799 0.00861753 8.48592e-18)
(0.0101357 0.00823775 7.79832e-18)
(0.0102755 0.00785686 1.1033e-17)
(0.0104074 0.00747505 8.49351e-18)
(0.0105316 0.00709251 8.41929e-18)
(0.0106482 0.00670939 5.67894e-18)
(0.0107575 0.00632585 5.9348e-18)
(0.0108594 0.00594201 7.50765e-18)
(0.0109543 0.00555798 7.91049e-18)
(0.0110421 0.00517386 1.00233e-17)
(0.011123 0.00478974 7.45736e-18)
(0.0111972 0.00440567 4.9988e-18)
(0.0112647 0.00402171 4.30674e-18)
(0.0113257 0.0036379 2.49584e-18)
(0.0113803 0.00325426 1.9695e-18)
(0.0114286 0.00287082 3.79071e-18)
(0.0114706 0.00248756 3.34247e-19)
(0.0115065 0.00210449 1.8995e-18)
(0.0115363 0.0017216 5.4069e-18)
(0.01156 0.00133885 2.85025e-18)
(0.0115778 0.000956229 2.27609e-18)
(0.0115897 0.000573699 3.36243e-18)
(0.0115956 0.000191226 2.10921e-18)
(0.0115956 -0.000191228 4.09731e-18)
(0.0115897 -0.000573702 8.29835e-18)
(0.0115778 -0.000956231 1.05578e-17)
(0.01156 -0.00133885 9.89911e-18)
(0.0115363 -0.0017216 9.72637e-18)
(0.0115065 -0.00210449 1.00958e-17)
(0.0114706 -0.00248756 1.0274e-17)
(0.0114286 -0.00287081 1.03548e-17)
(0.0113803 -0.00325426 9.35798e-18)
(0.010629 0.00881258 4.32651e-19)
(0.0100399 0.00918688 7.8894e-18)
(0.0102016 0.00879989 8.8093e-18)
(0.0103541 0.00841252 7.47396e-18)
(0.0104983 0.00802395 1.0992e-17)
(0.0106345 0.00763441 8.09945e-18)
(0.0107627 0.00724406 6.93975e-18)
(0.0108832 0.00685309 5.50774e-18)
(0.010996 0.00646163 6.23e-18)
(0.0111014 0.00606982 7.66328e-18)
(0.0111994 0.00567777 7.86627e-18)
(0.0112901 0.00528559 9.60304e-18)
(0.0113738 0.00489336 7.19923e-18)
(0.0114505 0.00450115 4.88214e-18)
(0.0115204 0.00410901 4.82705e-18)
(0.0115835 0.00371699 2.73194e-18)
(0.01164 0.00332511 1.61177e-18)
(0.01169 0.00293339 3.11308e-18)
(0.0117335 0.00254184 1.64852e-20)
(0.0117707 0.00215046 1.72858e-18)
(0.0118016 0.00175923 3.97645e-18)
(0.0118262 0.00136814 3.02244e-18)
(0.0118446 0.000977156 3.97722e-18)
(0.0118569 0.000586259 4.26778e-18)
(0.011863 0.000195413 1.46719e-18)
(0.011863 -0.000195415 3.1704e-18)
(0.0118569 -0.000586261 8.09458e-18)
(0.0118446 -0.000977158 1.09194e-17)
(0.0118262 -0.00136814 9.71258e-18)
(0.0118016 -0.00175923 8.67933e-18)
(0.0117707 -0.00215046 9.31776e-18)
(0.0117335 -0.00254184 9.20191e-18)
(0.01169 -0.00293339 9.79564e-18)
(0.01164 -0.00332511 8.68299e-18)
(0.0108305 0.00901689 1.74791e-18)
(0.0102512 0.00937906 8.76265e-18)
(0.0104178 0.00898447 8.89466e-18)
(0.010575 0.00858938 7.32676e-18)
(0.0107237 0.00819303 1.07097e-17)
(0.0108642 0.00779563 7.25668e-18)
(0.0109965 0.00739737 5.67438e-18)
(0.0111208 0.00699842 5.79737e-18)
(0.0112373 0.00659893 6.43828e-18)
(0.011346 0.00619905 7.25416e-18)
(0.0114472 0.00579888 7.67834e-18)
(0.0115409 0.00539854 9.28313e-18)
(0.0116274 0.0049981 7.31838e-18)
(0.0117066 0.00459765 4.96476e-18)
(0.0117788 0.00419723 5.00431e-18)
(0.0118441 0.0037969 2.51954e-18)
(0.0119025 0.00339669 1.58697e-18)
(0.0119542 0.00299661 3.00534e-18)
(0.0119992 0.00259668 1.15059e-19)
(0.0120376 0.00219689 1.36515e-18)
(0.0120695 0.00179724 3.02214e-18)
(0.012095 0.00139772 3.07813e-18)
(0.0121141 0.000998292 4.50278e-18)
(0.0121267 0.000598944 4.49677e-18)
(0.0121331 0.000199642 1.23073e-18)
(0.0121331 -0.000199644 2.56515e-18)
(0.0121267 -0.000598946 7.86141e-18)
(0.0121141 -0.000998294 1.12088e-17)
(0.012095 -0.00139772 9.79119e-18)
(0.0120695 -0.00179724 8.10539e-18)
(0.0120376 -0.00219689 8.29895e-18)
(0.0119992 -0.00259668 8.26542e-18)
(0.0119542 -0.00299661 9.26688e-18)
(0.0119025 -0.00339669 8.85748e-18)
(0.0110348 0.00922368 1.96259e-18)
(0.0104652 0.00957368 9.94053e-18)
(0.0106368 0.00917135 8.09929e-18)
(0.0107987 0.00876843 6.29388e-18)
(0.010952 0.00836417 1.00385e-17)
(0.0110967 0.0079588 6.70515e-18)
(0.0112331 0.00755251 5.26339e-18)
(0.0113612 0.00714547 5.74971e-18)
(0.0114813 0.00673784 6.21072e-18)
(0.0115935 0.00632977 7.24899e-18)
(0.0116978 0.00592137 7.71198e-18)
(0.0117946 0.00551276 8.81015e-18)
(0.0118838 0.00510401 7.4037e-18)
(0.0119656 0.00469521 5.40427e-18)
(0.0120401 0.00428642 5.21638e-18)
(0.0121075 0.00387769 2.09786e-18)
(0.0121678 0.00346904 1.62378e-18)
(0.0122212 0.00306051 3.35366e-18)
(0.0122677 0.0026521 1.53373e-19)
(0.0123074 0.00224382 6.8895e-19)
(0.0123404 0.00183566 2.23721e-18)
(0.0123667 0.00142761 2.96187e-18)
(0.0123864 0.00101965 4.55099e-18)
(0.0123995 0.000611762 4.27679e-18)
(0.0124061 0.000203915 1.55612e-18)
(0.0124061 -0.000203917 2.24545e-18)
(0.0123995 -0.000611763 7.65685e-18)
(0.0123864 -0.00101965 1.14822e-17)
(0.0123667 -0.00142761 9.31471e-18)
(0.0123404 -0.00183566 7.72948e-18)
(0.0123074 -0.00224382 7.52359e-18)
(0.0122677 -0.0026521 7.42272e-18)
(0.0122212 -0.0030605 8.85129e-18)
(0.0121678 -0.00346904 9.16412e-18)
(0.0112418 0.00943308 2.91287e-18)
(0.0106819 0.00977084 1.00297e-17)
(0.0108585 0.00936065 6.94444e-18)
(0.0110252 0.00894976 6.15591e-18)
(0.011183 0.00853747 9.3338e-18)
(0.0113321 0.00812401 6.21535e-18)
(0.0114726 0.00770956 4.47704e-18)
(0.0116046 0.00729432 5.25324e-18)
(0.0117283 0.00687844 6.33151e-18)
(0.0118439 0.00646206 7.88031e-18)
(0.0119515 0.00604532 7.95834e-18)
(0.0120512 0.00562832 8.33243e-18)
(0.0121431 0.00521116 7.53095e-18)
(0.0122275 0.00479391 6.04308e-18)
(0.0123044 0.00437663 5.34545e-18)
(0.0123739 0.00395939 2.0593e-18)
(0.0124361 0.00354221 1.81579e-18)
(0.0124912 0.00312512 3.56043e-18)
(0.0125392 0.00270813 -5.28488e-19)
(0.0125802 0.00229126 -9.20304e-19)
(0.0126142 0.0018745 1.48998e-18)
(0.0126414 0.00145783 3.29887e-18)
(0.0126617 0.00104124 4.64838e-18)
(0.0126753 0.000624719 3.82879e-18)
(0.012682 0.000208235 2.22254e-18)
(0.012682 -0.000208236 2.42319e-18)
(0.0126753 -0.000624721 7.46271e-18)
(0.0126617 -0.00104124 1.19149e-17)
(0.0126414 -0.00145783 9.00001e-18)
(0.0126142 -0.0018745 7.12917e-18)
(0.0125802 -0.00229126 6.31467e-18)
(0.0125392 -0.00270813 6.59694e-18)
(0.0124912 -0.00312512 9.31655e-18)
(0.0114518 0.0096452 5.38957e-18)
(0.0109016 0.00997065 1.03731e-17)
(0.0110832 0.00955247 6.16743e-18)
(0.0112548 0.00913349 5.83568e-18)
(0.0114172 0.00871304 7.7484e-18)
(0.0115706 0.00829135 5.54417e-18)
(0.0117151 0.00786863 4.766e-18)
(0.011851 0.00744505 5.46377e-18)
(0.0119784 0.00702079 6.39266e-18)
(0.0120974 0.00659599 8.2644e-18)
(0.0122082 0.00617079 8.38285e-18)
(0.0123109 0.00574529 7.86281e-18)
(0.0124057 0.00531959 7.32807e-18)
(0.0124926 0.00489378 6.342e-18)
(0.0125718 0.00446791 5.17074e-18)
(0.0126434 0.00404205 1.73754e-18)
(0.0127076 0.00361623 2.08231e-18)
(0.0127644 0.00319048 3.72258e-18)
(0.0128138 0.00276482 -1.41794e-18)
(0.0128561 0.00233925 -2.11051e-18)
(0.0128912 0.00191378 1.10222e-18)
(0.0129192 0.00148839 3.62869e-18)
(0.0129402 0.00106308 4.77318e-18)
(0.0129542 0.000637825 3.31312e-18)
(0.0129611 0.000212604 2.73923e-18)
(0.0129611 -0.000212605 3.19435e-18)
(0.0129542 -0.000637826 7.28949e-18)
(0.0129402 -0.00106308 1.17851e-17)
(0.0129192 -0.00148839 8.77822e-18)
(0.0128912 -0.00191378 6.86547e-18)
(0.0128561 -0.00233925 5.2634e-18)
(0.0128138 -0.00276482 5.3571e-18)
(0.0127644 -0.00319048 9.93733e-18)
(0.0116649 0.00986014 8.05339e-18)
(0.0111243 0.0101732 9.63489e-18)
(0.011311 0.00974692 5.09783e-18)
(0.0114874 0.00931971 5.48883e-18)
(0.0116544 0.00889096 6.27439e-18)
(0.0118122 0.00846092 5.32569e-18)
(0.0119609 0.00802978 5.96414e-18)
(0.0121007 0.00759775 5.47796e-18)
(0.0122317 0.00716498 6.44687e-18)
(0.0123542 0.00673164 8.28317e-18)
(0.0124682 0.00629785 8.66823e-18)
(0.0125739 0.00586373 7.751e-18)
(0.0126714 0.00542938 7.03843e-18)
(0.0127609 0.00499489 6.4045e-18)
(0.0128425 0.00456032 4.90408e-18)
(0.0129163 0.00412573 1.34508e-18)
(0.0129824 0.00369116 2.03226e-18)
(0.0130408 0.00325664 3.66024e-18)
(0.0130918 0.00282219 -1.80026e-18)
(0.0131354 0.00238782 -2.57972e-18)
(0.0131715 0.00195353 7.94625e-19)
(0.0132004 0.00151932 3.74984e-18)
(0.013222 0.00108518 4.81375e-18)
(0.0132364 0.000651086 2.76745e-18)
(0.0132436 0.000217025 3.33663e-18)
(0.0132436 -0.000217026 4.63876e-18)
(0.0132364 -0.000651087 7.02943e-18)
(0.013222 -0.00108518 1.08532e-17)
(0.0132004 -0.00151932 8.43268e-18)
(0.0131715 -0.00195353 6.84474e-18)