/*--------------------------------*- C++ -*----------------------------------*\
  =========                 |
  \\      /  F ield         | OpenFOAM: The Open Source CFD Toolbox
   \\    /   O peration     | Website:  https://openfoam.org
    \\  /    A nd           | Version:  7
     \\/     M anipulation  |
\*---------------------------------------------------------------------------*/
FoamFile
{
    version     2.0;
    format      ascii;
    class       volScalarField;
    location    "184000";
    object      strainRate;
}
// * * * * * * * * * * * * * * * * * * * * * * * * * * * * * * * * * * * * * //

dimensions      [0 0 -1 0 0 0 0];

internalField   nonuniform List<scalar> 
4838
(
0.00197463
0.00186847
0.00179296
0.00169607
0.00158934
0.00147821
0.00136528
0.00125198
0.00113935
0.00102837
0.000920288
0.00081665
0.000719273
0.000629995
0.000550325
0.000481175
0.000422713
0.000374414
0.000335526
0.000304953
0.000281441
0.000263795
0.000251315
0.000243394
0.000239555
0.000239555
0.000243394
0.000251315
0.000263795
0.000281441
0.000304953
0.000335526
0.000374415
0.000422714
0.000481175
0.000550325
0.000629995
0.000719274
0.00081665
0.000920289
0.00102837
0.00113935
0.00125198
0.00136528
0.00147821
0.00158934
0.00169607
0.00179296
0.00186847
0.00197464
0.00257435
0.00224911
0.00215392
0.00204897
0.00193496
0.00181577
0.00169464
0.00157376
0.00145459
0.00133813
0.00122518
0.00111656
0.00101321
0.00091618
0.000826573
0.000745388
0.00067336
0.000610854
0.000557867
0.000514089
0.000478943
0.000451737
0.000431905
0.000418986
0.000412624
0.000412624
0.000418986
0.000431905
0.000451737
0.000478944
0.000514089
0.000557868
0.000610854
0.00067336
0.000745389
0.000826574
0.000916181
0.00101321
0.00111656
0.00122518
0.00133813
0.00145459
0.00157376
0.00169464
0.00181577
0.00193496
0.00204897
0.00215392
0.00224911
0.00257436
0.00295856
0.00255808
0.00243091
0.00231549
0.00220198
0.00208733
0.00197163
0.00185596
0.0017415
0.00162927
0.00152006
0.00141457
0.00131344
0.00121735
0.00112704
0.00104329
0.000966871
0.000898436
0.000838465
0.000787241
0.000744853
0.000711229
0.000686216
0.000669655
0.000661413
0.000661413
0.000669655
0.000686216
0.000711229
0.000744853
0.000787242
0.000838466
0.000898437
0.000966871
0.00104329
0.00112704
0.00121735
0.00131344
0.00141457
0.00152006
0.00162927
0.0017415
0.00185596
0.00197163
0.00208733
0.00220198
0.00231549
0.00243091
0.00255808
0.00295856
0.00325858
0.00286295
0.00271944
0.00259014
0.00246975
0.00235392
0.00224042
0.00212861
0.0020187
0.00191121
0.00180675
0.00170589
0.00160916
0.00151708
0.00143016
0.00134898
0.00127411
0.00120614
0.00114564
0.00109308
0.00104884
0.00101322
0.000986384
0.000968447
0.000959465
0.000959465
0.000968447
0.000986385
0.00101322
0.00104884
0.00109308
0.00114564
0.00120615
0.00127411
0.00134898
0.00143016
0.00151708
0.00160916
0.00170589
0.00180675
0.00191122
0.0020187
0.00212862
0.00224042
0.00235392
0.00246976
0.00259014
0.00271944
0.00286296
0.00325858
0.00353525
0.00315435
0.00300921
0.00287317
0.0027462
0.00262631
0.00251151
0.00240054
0.00229285
0.00218843
0.0020875
0.00199046
0.0018977
0.00180964
0.0017267
0.00164931
0.00157791
0.00151297
0.00145495
0.0014043
0.00136143
0.00132671
0.00130041
0.00128276
0.0012739
0.0012739
0.00128276
0.00130041
0.00132671
0.00136143
0.0014043
0.00145495
0.00151297
0.00157791
0.00164931
0.0017267
0.00180964
0.0018977
0.00199046
0.00208751
0.00218843
0.00229286
0.00240054
0.00251151
0.00262631
0.0027462
0.00287318
0.00300921
0.00315435
0.00353525
0.00380244
0.00343464
0.00329238
0.00315559
0.0030257
0.0029027
0.00278577
0.002674
0.00256674
0.00246369
0.00236481
0.00227027
0.00218033
0.0020953
0.00201554
0.00194138
0.00187319
0.00181133
0.00175618
0.00170809
0.00166741
0.00163445
0.00160949
0.00159272
0.0015843
0.0015843
0.00159272
0.00160949
0.00163445
0.00166741
0.00170809
0.00175618
0.00181133
0.00187319
0.00194138
0.00201554
0.00209531
0.00218033
0.00227027
0.00236481
0.00246369
0.00256675
0.002674
0.00278577
0.0029027
0.0030257
0.00315559
0.00329238
0.00343464
0.00380244
0.00406353
0.00370729
0.0035682
0.00343309
0.00330316
0.00317906
0.00306083
0.00294816
0.00284064
0.002738
0.00264012
0.00254703
0.00245888
0.00237589
0.00229833
0.00222649
0.00216066
0.00210115
0.00204825
0.00200226
0.00196345
0.00193207
0.00190833
0.00189241
0.00188442
0.00188442
0.00189241
0.00190833
0.00193207
0.00196345
0.00200226
0.00204825
0.00210115
0.00216066
0.00222649
0.00229833
0.00237589
0.00245888
0.00254703
0.00264012
0.00273801
0.00284064
0.00294816
0.00306083
0.00317906
0.00330316
0.0034331
0.0035682
0.00370729
0.00406353
0.00431997
0.00397442
0.00383796
0.00370503
0.00357638
0.00345267
0.00333427
0.00322127
0.00311359
0.00301111
0.00291373
0.00282149
0.00273445
0.00265279
0.00257672
0.00250646
0.00244226
0.00238439
0.00233308
0.00228859
0.00225112
0.00222088
0.00219804
0.00218274
0.00217506
0.00217506
0.00218274
0.00219804
0.00222088
0.00225112
0.00228859
0.00233308
0.00238439
0.00244226
0.00250646
0.00257672
0.00265279
0.00273445
0.00282149
0.00291374
0.00301111
0.0031136
0.00322128
0.00333427
0.00345267
0.00357638
0.00370503
0.00383796
0.00397442
0.00431997
0.0045727
0.00423724
0.00410293
0.00397203
0.00384503
0.00372243
0.00360466
0.00349198
0.00338451
0.00328229
0.00318534
0.00309369
0.00300743
0.0029267
0.00285166
0.00278252
0.00271948
0.00266276
0.00261257
0.00256911
0.00253258
0.00250314
0.00248093
0.00246606
0.00245861
0.00245861
0.00246606
0.00248093
0.00250314
0.00253258
0.00256911
0.00261257
0.00266276
0.00271948
0.00278252
0.00285167
0.0029267
0.00300743
0.00309369
0.00318534
0.00328229
0.00338452
0.00349198
0.00360466
0.00372243
0.00384503
0.00397203
0.00410293
0.00423724
0.0045727
0.0048224
0.0044965
0.00436401
0.0042349
0.00410952
0.00398827
0.00387153
0.00375959
0.00365269
0.00355095
0.0034545
0.00336342
0.00327781
0.00319782
0.00312358
0.00305529
0.00299312
0.00293726
0.0028879
0.00284521
0.00280937
0.0027805
0.00275875
0.00274419
0.00273689
0.00273689
0.00274419
0.00275875
0.0027805
0.00280937
0.00284521
0.0028879
0.00293726
0.00299312
0.00305529
0.00312359
0.00319782
0.00327781
0.00336342
0.0034545
0.00355096
0.00365269
0.00375959
0.00387153
0.00398827
0.00410952
0.0042349
0.00436401
0.0044965
0.0048224
0.00506958
0.00475275
0.00462183
0.00449428
0.0043704
0.0042505
0.00413492
0.00402394
0.00391782
0.00381677
0.00372093
0.00363046
0.00354549
0.00346616
0.00339262
0.00332504
0.00326357
0.00320841
0.00315971
0.00311763
0.00308232
0.00305391
0.00303251
0.00301819
0.00301102
0.00301102
0.00301819
0.00303251
0.00305391
0.00308232
0.00311763
0.00315971
0.00320841
0.00326358
0.00332504
0.00339262
0.00346616
0.00354549
0.00363047
0.00372094
0.00381677
0.00391782
0.00402394
0.00413492
0.00425051
0.0043704
0.00449429
0.00462184
0.00475275
0.00506958
0.00531464
0.0050064
0.00487687
0.0047507
0.00462816
0.00450953
0.00439511
0.00428515
0.00417993
0.00407966
0.00398454
0.00389474
0.00381042
0.00373173
0.00365884
0.00359189
0.00353105
0.00347649
0.00342835
0.00338678
0.00335192
0.00332389
0.00330277
0.00328865
0.00328158
0.00328158
0.00328865
0.00330277
0.00332389
0.00335193
0.00338678
0.00342835
0.00347649
0.00353105
0.00359189
0.00365884
0.00373174
0.00381042
0.00389474
0.00398455
0.00407966
0.00417993
0.00428515
0.00439511
0.00450954
0.00462817
0.0047507
0.00487688
0.00500641
0.00531465
0.00555792
0.0052578
0.0051295
0.00500456
0.00488322
0.00476576
0.00465243
0.00454348
0.00443918
0.00433974
0.00424538
0.00415629
0.00407263
0.00399458
0.00392231
0.00385596
0.00379569
0.00374167
0.00369403
0.00365292
0.00361846
0.00359075
0.00356988
0.00355594
0.00354895
0.00354895
0.00355594
0.00356988
0.00359075
0.00361846
0.00365292
0.00369404
0.00374167
0.0037957
0.00385596
0.00392231
0.00399459
0.00407264
0.00415629
0.00424539
0.00433975
0.00443918
0.00454349
0.00465243
0.00476577
0.00488323
0.00500456
0.00512951
0.00525781
0.00555793
0.00579971
0.00550726
0.00538005
0.00525619
0.00513594
0.00501953
0.00490721
0.00479923
0.00469581
0.0045972
0.00450361
0.00441522
0.00433224
0.00425482
0.00418314
0.00411737
0.00405764
0.00400412
0.00395695
0.00391624
0.00388214
0.00385472
0.00383408
0.00382029
0.00381338
0.00381338
0.00382029
0.00383408
0.00385472
0.00388214
0.00391625
0.00395695
0.00400412
0.00405764
0.00411737
0.00418315
0.00425482
0.00433224
0.00441523
0.00450361
0.00459721
0.00469582
0.00479923
0.00490722
0.00501954
0.00513594
0.0052562
0.00538005
0.00550726
0.00579972
0.00604026
0.00575504
0.00562879
0.0055059
0.00538661
0.00527115
0.00515976
0.00505266
0.00495009
0.00485227
0.00475942
0.00467173
0.0045894
0.0045126
0.0044415
0.00437627
0.00431705
0.00426401
0.00421726
0.00417694
0.00414315
0.00411601
0.00409557
0.00408192
0.00407508
0.00407508
0.00408192
0.00409557
0.00411601
0.00414315
0.00417694
0.00421726
0.00426401
0.00431706
0.00437627
0.0044415
0.0045126
0.0045894
0.00467174
0.00475942
0.00485228
0.0049501
0.00505266
0.00515976
0.00527116
0.00538662
0.00550591
0.0056288
0.00575504
0.00604027
0.00627981
0.00600139
0.00587599
0.00575396
0.00563552
0.00552091
0.00541035
0.00530406
0.00520227
0.00510519
0.00501304
0.00492602
0.00484431
0.0047681
0.00469756
0.00463284
0.00457411
0.0045215
0.00447515
0.00443518
0.0044017
0.0043748
0.00435456
0.00434103
0.00433425
0.00433425
0.00434103
0.00435456
0.0043748
0.0044017
0.00443518
0.00447515
0.0045215
0.00457411
0.00463284
0.00469756
0.0047681
0.00484432
0.00492602
0.00501305
0.0051052
0.00520227
0.00530406
0.00541035
0.00552092
0.00563553
0.00575396
0.005876
0.0060014
0.00627981
0.00651856
0.00624654
0.00612188
0.0060006
0.00588292
0.00576906
0.00565924
0.00555368
0.0054526
0.0053562
0.00526471
0.0051783
0.00509718
0.00502153
0.0049515
0.00488727
0.00482899
0.0047768
0.00473082
0.00469118
0.00465798
0.0046313
0.00461123
0.00459782
0.00459111
0.00459111
0.00459782
0.00461123
0.0046313
0.00465798
0.00469118
0.00473082
0.0047768
0.00482899
0.00488728
0.00495151
0.00502153
0.00509719
0.00517831
0.00526471
0.00535621
0.0054526
0.00555368
0.00565924
0.00576906
0.00588292
0.0060006
0.00612189
0.00624655
0.00651856
0.00675671
0.00649071
0.00636669
0.00624605
0.00612903
0.00601583
0.00590667
0.00580176
0.00570131
0.00560554
0.00551463
0.0054288
0.00534823
0.00527308
0.00520354
0.00513977
0.00508191
0.00503009
0.00498446
0.00494512
0.00491218
0.00488571
0.0048658
0.0048525
0.00484584
0.00484584
0.0048525
0.0048658
0.00488571
0.00491218
0.00494512
0.00498446
0.0050301
0.00508191
0.00513977
0.00520355
0.00527309
0.00534823
0.00542881
0.00551464
0.00560554
0.00570132
0.00580176
0.00590667
0.00601583
0.00612903
0.00624606
0.0063667
0.00649072
0.00675672
0.00699445
0.00673411
0.00661063
0.00649054
0.00637408
0.00626145
0.00615286
0.00604852
0.00594864
0.00585342
0.00576305
0.00567774
0.00559766
0.00552298
0.00545389
0.00539053
0.00533305
0.00528159
0.00523627
0.00519721
0.0051645
0.00513823
0.00511846
0.00510526
0.00509865
0.00509865
0.00510526
0.00511846
0.00513823
0.0051645
0.00519721
0.00523627
0.00528159
0.00533305
0.00539053
0.00545389
0.00552299
0.00559766
0.00567774
0.00576306
0.00585342
0.00594865
0.00604853
0.00615287
0.00626146
0.00637409
0.00649055
0.00661063
0.00673412
0.00699446
0.00685389
0.00673426
0.00661828
0.00650614
0.00639804
0.0062942
0.00619481
0.00610007
0.00601018
0.00592532
0.00584568
0.00577143
0.00570274
0.00563976
0.00558263
0.00553149
0.00548646
0.00544764
0.00541515
0.00538905
0.00536942
0.00535631
0.00534974
0.00534974
0.00535631
0.00536942
0.00538906
0.00541515
0.00544765
0.00548646
0.00553149
0.00558263
0.00563976
0.00570274
0.00577144
0.00584569
0.00592533
0.00601018
0.00610007
0.00619481
0.0062942
0.00639805
0.00650614
0.00661829
0.00673427
0.00685389
0.00697693
0.00723197
0.00697742
0.00686182
0.00675008
0.0066424
0.00653898
0.00644001
0.00634569
0.00625621
0.00617176
0.00609251
0.00601864
0.0059503
0.00588766
0.00583084
0.00577999
0.00573521
0.00569663
0.00566433
0.00563839
0.00561888
0.00560584
0.00559932
0.00559932
0.00560584
0.00561888
0.00563839
0.00566433
0.00569663
0.00573522
0.00577999
0.00583084
0.00588766
0.00595031
0.00601864
0.00609252
0.00617176
0.00625622
0.00634569
0.00644001
0.00653898
0.00664241
0.00675009
0.00686183
0.00697742
0.00709667
0.00721935
0.00746941
0.00699349
0.00688614
0.00678307
0.00668445
0.00659048
0.00650136
0.00641725
0.00633835
0.0062648
0.00619678
0.00613443
0.00607789
0.00602729
0.00598274
0.00594436
0.00591223
0.00588643
0.00586703
0.00585406
0.00584757
0.00584757
0.00585406
0.00586703
0.00588643
0.00591223
0.00594436
0.00598275
0.00602729
0.00607789
0.00613443
0.00619678
0.00626481
0.00633835
0.00641726
0.00650136
0.00659049
0.00668445
0.00678307
0.00688615
0.0069935
0.00710491
0.00722019
0.00733914
0.00746155
0.00770695
0.00712945
0.00702665
0.00692832
0.00683465
0.00674581
0.006662
0.00658338
0.00651011
0.00644236
0.00638026
0.00632396
0.00627358
0.00622924
0.00619103
0.00615905
0.00613338
0.00611407
0.00610117
0.00609471
0.00609471
0.00610117
0.00611407
0.00613338
0.00615906
0.00619103
0.00622924
0.00627359
0.00632397
0.00638027
0.00644236
0.00651012
0.00658338
0.006662
0.00674582
0.00683465
0.00692833
0.00702666
0.00712946
0.00723654
0.00734771
0.00746275
0.00758149
0.0077037
0.00794475
0.00726992
0.00717181
0.00707836
0.00698976
0.00690618
0.0068278
0.00675476
0.00668723
0.00662535
0.00656925
0.00651906
0.00647489
0.00643684
0.00640499
0.00637942
0.00636019
0.00634734
0.00634091
0.00634091
0.00634734
0.00636019
0.00637942
0.00640499
0.00643684
0.00647489
0.00651907
0.00656926
0.00662536
0.00668724
0.00675477
0.0068278
0.00690619
0.00698977
0.00707837
0.00717181
0.00726993
0.00737252
0.00747941
0.00759039
0.00770529
0.00782389
0.00794598
0.00818296
0.00732181
0.00723338
0.00714999
0.00707179
0.00699894
0.00693159
0.00686988
0.00681395
0.00676392
0.00671989
0.00668196
0.00665022
0.00662474
0.00660558
0.00659278
0.00658637
0.00658637
0.00659278
0.00660558
0.00662474
0.00665022
0.00668196
0.00671989
0.00676392
0.00681396
0.00686989
0.00693159
0.00699894
0.00707179
0.00715
0.00723339
0.00732181
0.00741509
0.00751305
0.0076155
0.00772227
0.00783315
0.00794795
0.00806649
0.00818855
0.00842173
0.00747686
0.00739359
0.00731553
0.00724281
0.0071756
0.00711404
0.00705824
0.00700832
0.00696441
0.00692658
0.00689493
0.00686952
0.00685042
0.00683766
0.00683127
0.00683127
0.00683766
0.00685042
0.00686952
0.00689493
0.00692659
0.00696441
0.00700833
0.00705824
0.00711404
0.00717561
0.00724282
0.00731553
0.0073936
0.00747687
0.00756517
0.00765834
0.0077562
0.00785858
0.00796528
0.00807612
0.00819092
0.00830947
0.00843156
0.00866119
0.00741946
0.00735798
0.00730228
0.00725246
0.00720863
0.00717088
0.0071393
0.00711395
0.00709489
0.00708216
0.00707579
0.00707579
0.00708216
0.00709489
0.00711395
0.0071393
0.00717089
0.00720864
0.00725247
0.00730229
0.00735799
0.00741946
0.00748657
0.00755919
0.00763717
0.00772036
0.0078086
0.00790172
0.00799955
0.00810191
0.00820862
0.00831949
0.00843434
0.00855297
0.00867517
0.0089015
0.00745273
0.00741504
0.00738351
0.0073582
0.00733917
0.00732646
0.0073201
0.0073201
0.00732646
0.00733917
0.0073582
0.00738351
0.00741505
0.00745274
0.00749651
0.00754627
0.00760191
0.00766332
0.00773038
0.00780295
0.00788089
0.00796405
0.00805228
0.0081454
0.00824325
0.00834566
0.00845244
0.00856341
0.00867837
0.00879715
0.00891953
0.00914279
0.00762772
0.00760243
0.00758342
0.00757073
0.00756438
0.00756438
0.00757073
0.00758343
0.00760244
0.00762772
0.00765923
0.00769689
0.00774062
0.00779035
0.00784596
0.00790735
0.00797439
0.00804696
0.00812491
0.00820809
0.00829636
0.00838954
0.00848747
0.00858998
0.00869689
0.00880802
0.00892317
0.00904216
0.00916478
0.0093852
0.00780879
0.00780879
0.00781514
0.00782783
0.00784683
0.0078721
0.0079036
0.00794125
0.00798498
0.0080347
0.00809032
0.00815172
0.00821878
0.00829138
0.00836938
0.00845264
0.00854099
0.00863429
0.00873236
0.00883504
0.00894214
0.00905348
0.00916888
0.00928815
0.00941108
0.00962886
0.00811682
0.00814832
0.00818598
0.00822973
0.00827948
0.00833513
0.00839658
0.0084637
0.00853638
0.00861448
0.00869785
0.00878635
0.00887981
0.00897807
0.00908097
0.00918831
0.00929994
0.00941565
0.00953526
0.00965857
0.00987392
0.00847504
0.00852484
0.00858056
0.00864209
0.00870932
0.00878212
0.00886035
0.00894389
0.00903257
0.00912625
0.00922476
0.00932792
0.00943558
0.00954754
0.00966362
0.00978364
0.00990738
0.0101205
0.00882677
0.00888841
0.00895577
0.00902873
0.00910715
0.00919089
0.00927981
0.00937375
0.00947256
0.00957605
0.00968407
0.00979643
0.00991294
0.0100334
0.0101577
0.0103687
0.00907389
0.00913569
0.00920322
0.00927637
0.00935502
0.00943901
0.00952821
0.00962247
0.00972162
0.0098255
0.00993393
0.0100467
0.0101637
0.0102848
0.0104096
0.0106187
0.0093221
0.00938407
0.00945181
0.0095252
0.0096041
0.00968839
0.00977792
0.00987254
0.00997209
0.0100764
0.0101853
0.0102986
0.0104162
0.0105378
0.0106632
0.0108707
0.00977535
0.00985456
0.00993919
0.0100291
0.0101241
0.0102241
0.0103289
0.0104383
0.0105522
0.0106704
0.0107926
0.0109187
0.0111247
0.0104778
0.0105832
0.0106932
0.0108077
0.0109265
0.0110494
0.0111763
0.0113808
0.0110651
0.0111847
0.0113083
0.011436
0.0116393
0.000251316
0.000243395
0.000239555
0.000239555
0.000243394
0.000251316
0.000263795
0.000281441
0.000304954
0.000335527
0.000374415
0.000422714
0.000481175
0.000550325
0.000629995
0.000719274
0.00081665
0.000920288
0.00102837
0.00113935
0.00125198
0.00136528
0.00147821
0.00158934
0.00169607
0.00179296
0.00186847
0.00197463
0.000431906
0.000418988
0.000412626
0.000412626
0.000418987
0.000431906
0.000451738
0.000478944
0.00051409
0.000557868
0.000610854
0.000673361
0.000745389
0.000826574
0.00091618
0.00101321
0.00111656
0.00122518
0.00133813
0.00145459
0.00157376
0.00169464
0.00181577
0.00193496
0.00204897
0.00215392
0.00224911
0.00257435
0.000686218
0.000669657
0.000661414
0.000661414
0.000669656
0.000686217
0.00071123
0.000744854
0.000787242
0.000838466
0.000898437
0.000966871
0.00104329
0.00112704
0.00121735
0.00131344
0.00141457
0.00152006
0.00162927
0.0017415
0.00185596
0.00197163
0.00208733
0.00220197
0.00231549
0.00243091
0.00255808
0.00295855
0.000986387
0.000968449
0.000959467
0.000959467
0.000968448
0.000986386
0.00101322
0.00104884
0.00109308
0.00114564
0.00120615
0.00127411
0.00134898
0.00143016
0.00151708
0.00160916
0.00170589
0.00180675
0.00191121
0.0020187
0.00212861
0.00224042
0.00235392
0.00246975
0.00259014
0.00271944
0.00286295
0.00325858
0.00130041
0.00128277
0.00127391
0.00127391
0.00128276
0.00130041
0.00132671
0.00136143
0.0014043
0.00145495
0.00151297
0.00157791
0.00164931
0.0017267
0.00180964
0.0018977
0.00199046
0.0020875
0.00218843
0.00229285
0.00240054
0.00251151
0.00262631
0.0027462
0.00287317
0.00300921
0.00315435
0.00353525
0.00160949
0.00159272
0.00158431
0.00158431
0.00159272
0.00160949
0.00163445
0.00166741
0.00170809
0.00175618
0.00181133
0.00187319
0.00194138
0.00201554
0.0020953
0.00218033
0.00227027
0.00236481
0.00246369
0.00256674
0.002674
0.00278577
0.0029027
0.0030257
0.00315559
0.00329238
0.00343463
0.00380244
0.00190833
0.00189241
0.00188442
0.00188442
0.00189241
0.00190833
0.00193207
0.00196345
0.00200226
0.00204825
0.00210115
0.00216066
0.00222648
0.00229833
0.00237589
0.00245888
0.00254703
0.00264012
0.002738
0.00284064
0.00294816
0.00306083
0.00317906
0.00330316
0.00343309
0.0035682
0.00370729
0.00406353
0.00219804
0.00218274
0.00217506
0.00217506
0.00218274
0.00219804
0.00222088
0.00225112
0.00228859
0.00233308
0.00238439
0.00244226
0.00250646
0.00257671
0.00265279
0.00273445
0.00282148
0.00291373
0.00301111
0.00311359
0.00322127
0.00333427
0.00345266
0.00357638
0.00370503
0.00383796
0.00397442
0.00431997
0.00248093
0.00246606
0.00245861
0.00245861
0.00246606
0.00248093
0.00250314
0.00253258
0.00256911
0.00261257
0.00266276
0.00271948
0.00278252
0.00285166
0.0029267
0.00300743
0.00309369
0.00318533
0.00328229
0.00338451
0.00349198
0.00360466
0.00372243
0.00384503
0.00397203
0.00410293
0.00423724
0.0045727
0.00275875
0.00274419
0.00273689
0.00273689
0.00274419
0.00275875
0.0027805
0.00280936
0.00284521
0.00288789
0.00293725
0.00299312
0.00305529
0.00312358
0.00319781
0.00327781
0.00336341
0.0034545
0.00355095
0.00365268
0.00375959
0.00387152
0.00398827
0.00410952
0.00423489
0.00436401
0.0044965
0.00482239
0.00303251
0.00301819
0.00301101
0.00301101
0.00301819
0.0030325
0.00305391
0.00308232
0.00311763
0.00315971
0.00320841
0.00326357
0.00332503
0.00339262
0.00346616
0.00354549
0.00363046
0.00372093
0.00381676
0.00391782
0.00402394
0.00413491
0.0042505
0.0043704
0.00449428
0.00462183
0.00475275
0.00506958
0.00330277
0.00328865
0.00328158
0.00328158
0.00328865
0.00330277
0.00332389
0.00335192
0.00338678
0.00342835
0.00347648
0.00353105
0.00359188
0.00365883
0.00373173
0.00381042
0.00389474
0.00398454
0.00407966
0.00417993
0.00428515
0.0043951
0.00450953
0.00462816
0.0047507
0.00487687
0.0050064
0.00531464
0.00356988
0.00355593
0.00354895
0.00354895
0.00355593
0.00356988
0.00359074
0.00361845
0.00365292
0.00369403
0.00374167
0.00379569
0.00385595
0.0039223
0.00399458
0.00407263
0.00415628
0.00424538
0.00433974
0.00443918
0.00454348
0.00465243
0.00476576
0.00488322
0.00500455
0.0051295
0.0052578
0.00555792
0.00383408
0.00382028
0.00381337
0.00381337
0.00382028
0.00383408
0.00385471
0.00388213
0.00391624
0.00395694
0.00400412
0.00405764
0.00411736
0.00418314
0.00425482
0.00433223
0.00441522
0.00450361
0.0045972
0.00469581
0.00479922
0.00490721
0.00501953
0.00513594
0.00525619
0.00538005
0.00550726
0.00579971
0.00417693
0.00421725
0.004264
0.00431705
0.00437626
0.0044415
0.00451259
0.0045894
0.00467173
0.00475942
0.00485227
0.00495009
0.00505266
0.00515976
0.00527115
0.00538661
0.0055059
0.00562879
0.00575504
0.00604026
0.00510519
0.00520226
0.00530406
0.00541034
0.00552091
0.00563552
0.00575395
0.00587599
0.00600139
0.00627981
0.00576905
0.00588291
0.0060006
0.00612188
0.00624654
0.00651856
0.00636669
0.00649071
0.00675671
0.0123033
0.0125769
0.0128536
0.00790736
0.00815172
0.00839659
0.0086421
0.00888842
0.0091357
0.00938408
0.00963372
0.00988476
0.0101373
0.0103916
0.0106477
0.0109058
0.0111661
0.0114285
0.0116935
0.0119609
0.0122311
0.0125041
0.0127802
0.00711404
0.00735799
0.00760191
0.00784597
0.00809032
0.00833514
0.00858057
0.00882678
0.0090739
0.00932211
0.00957153
0.00982233
0.0100746
0.0103286
0.0105844
0.0108421
0.011102
0.011364
0.0116285
0.0118955
0.0121651
0.0124376
0.0127131
0.00705825
0.00730229
0.00754627
0.00779036
0.00803471
0.00827949
0.00852485
0.00877096
0.00901796
0.00926601
0.00951525
0.00976583
0.0100179
0.0102716
0.0105271
0.0107845
0.011044
0.0113057
0.0115697
0.0118363
0.0121055
0.0123775
0.0126525
0.00700833
0.00725247
0.00749652
0.00774063
0.00798499
0.00822974
0.00847505
0.00872108
0.00896797
0.00921588
0.00946497
0.00971536
0.00996722
0.0102207
0.0104759
0.010733
0.0109922
0.0112536
0.0115173
0.0117835
0.0120523
0.0123239
0.0125984
0.00696442
0.00720864
0.00745275
0.00769689
0.00794126
0.00818599
0.00843126
0.00867722
0.00892403
0.00917183
0.00942077
0.00967101
0.00992269
0.010176
0.010431
0.0106878
0.0109467
0.0112078
0.0114712
0.0117371
0.0120055
0.0122768
0.0125509
0.00170809
0.00200227
0.00228859
0.00256912
0.00284522
0.00311764
0.00338679
0.00365293
0.00391625
0.00417694
0.00443519
0.00469118
0.00494513
0.00519721
0.00544765
0.00569664
0.00594437
0.00619104
0.00643684
0.00668197
0.00692659
0.0071709
0.00741505
0.00765924
0.00790361
0.00814833
0.00839357
0.00863947
0.0088862
0.00913391
0.00938274
0.00963285
0.00988438
0.0101375
0.0103923
0.010649
0.0109076
0.0111685
0.0114316
0.0116972
0.0119654
0.0122363
0.0125101
0.00166741
0.00196346
0.00225112
0.00253259
0.00280937
0.00308233
0.00335193
0.00361846
0.00388214
0.00414316
0.00440171
0.00465798
0.00491218
0.00516451
0.00541516
0.00566433
0.00591224
0.00615906
0.00640499
0.00665023
0.00689494
0.00713931
0.00738352
0.00762773
0.00787211
0.00811683
0.00836204
0.00860791
0.00885458
0.00910221
0.00935095
0.00960094
0.00985235
0.0101053
0.01036
0.0106165
0.010875
0.0111356
0.0113985
0.0116639
0.0119318
0.0122025
0.012476
0.00163445
0.00193207
0.00222088
0.00250315
0.00278051
0.00305392
0.00332389
0.00359075
0.00385472
0.00411601
0.00437481
0.00463131
0.00488572
0.00513823
0.00538906
0.0056384
0.00588644
0.00613338
0.00637942
0.00662475
0.00686953
0.00711396
0.00735821
0.00760245
0.00784684
0.00809155
0.00833675
0.00858258
0.00882921
0.00907678
0.00932544
0.00957535
0.00982666
0.0100795
0.010334
0.0105904
0.0108488
0.0111092
0.011372
0.0116371
0.0119049
0.0121753
0.0124487
0.000251316
0.000431907
0.000686219
0.000986388
0.00130042
0.00160949
0.00190834
0.00219805
0.00248094
0.00275875
0.00303251
0.00330278
0.00356989
0.00383409
0.00409558
0.00435456
0.00461124
0.00486581
0.00511847
0.00536943
0.00561888
0.00586703
0.00611407
0.00636019
0.00660558
0.00685043
0.0070949
0.00733918
0.00758344
0.00782784
0.00807255
0.00831773
0.00856354
0.00881013
0.00905766
0.00930627
0.00955612
0.00980736
0.0100601
0.0103146
0.0105708
0.0108291
0.0110894
0.011352
0.0116171
0.0118847
0.012155
0.0124281
0.000243395
0.000418988
0.000669657
0.00096845
0.00128277
0.00159273
0.00189241
0.00218274
0.00246607
0.00274419
0.00301819
0.00328866
0.00355594
0.00382029
0.00408192
0.00434103
0.00459783
0.0048525
0.00510526
0.00535631
0.00560585
0.00585407
0.00610117
0.00634735
0.00659278
0.00683767
0.00708217
0.00732647
0.00757074
0.00781515
0.00805986
0.00830504
0.00855083
0.0087974
0.0090449
0.00929348
0.00954328
0.00979447
0.0100472
0.0103016
0.0105578
0.0108159
0.0110762
0.0113387
0.0116037
0.0118712
0.0121414
0.0124144
0.000239556
0.000412626
0.000661415
0.000959468
0.00127391
0.00158431
0.00188442
0.00217507
0.00245861
0.0027369
0.00301102
0.00328158
0.00354895
0.00381338
0.00407508
0.00433426
0.00459111
0.00484584
0.00509865
0.00534975
0.00559932
0.00584758
0.00609472
0.00634092
0.00658638
0.00683128
0.0070758
0.00732011
0.00756439
0.0078088
0.00805351
0.00829868
0.00854447
0.00879103
0.00903851
0.00928707
0.00953686
0.00978802
0.0100407
0.0102951
0.0105512
0.0108094
0.0110696
0.0113321
0.011597
0.0118644
0.0121346
0.0124076
0.000239556
0.000412626
0.000661415
0.000959468
0.00127391
0.00158431
0.00188442
0.00217507
0.00245861
0.0027369
0.00301102
0.00328158
0.00354895
0.00381338
0.00407508
0.00433426
0.00459111
0.00484584
0.00509865
0.00534975
0.00559932
0.00584758
0.00609472
0.00634092
0.00658638
0.00683128
0.0070758
0.00732011
0.00756439
0.0078088
0.00805351
0.00829868
0.00854447
0.00879103
0.00903851
0.00928707
0.00953686
0.00978802
0.0100407
0.0102951
0.0105512
0.0108094
0.0110696
0.0113321
0.011597
0.0118644
0.0121346
0.0124076
0.000243394
0.000418987
0.000669657
0.000968449
0.00128277
0.00159273
0.00189241
0.00218274
0.00246607
0.00274419
0.00301819
0.00328866
0.00355594
0.00382029
0.00408192
0.00434103
0.00459782
0.0048525
0.00510526
0.00535631
0.00560585
0.00585407
0.00610117
0.00634735
0.00659279
0.00683767
0.00708217
0.00732647
0.00757074
0.00781515
0.00805986
0.00830504
0.00855083
0.0087974
0.0090449
0.00929348
0.00954328
0.00979447
0.0100472
0.0103016
0.0105578
0.0108159
0.0110762
0.0113387
0.0116037
0.0118712
0.0121414
0.0124144
0.000251316
0.000431906
0.000686218
0.000986387
0.00130041
0.00160949
0.00190833
0.00219805
0.00248094
0.00275875
0.00303251
0.00330278
0.00356989
0.00383408
0.00409558
0.00435456
0.00461124
0.00486581
0.00511847
0.00536943
0.00561888
0.00586703
0.00611407
0.0063602
0.00660559
0.00685043
0.0070949
0.00733918
0.00758344
0.00782784
0.00807255
0.00831773
0.00856354
0.00881013
0.00905766
0.00930627
0.00955612
0.00980736
0.0100601
0.0103146
0.0105708
0.0108291
0.0110894
0.011352
0.0116171
0.0118847
0.012155
0.0124281
0.000263795
0.000451739
0.000711231
0.00101322
0.00132671
0.00163445
0.00193207
0.00222088
0.00250315
0.00278051
0.00305392
0.00332389
0.00359075
0.00385472
0.00411601
0.0043748
0.00463131
0.00488572
0.00513823
0.00538906
0.0056384
0.00588644
0.00613339
0.00637943
0.00662475
0.00686953
0.00711396
0.00735821
0.00760245
0.00784684
0.00809156
0.00833675
0.00858258
0.00882921
0.00907678
0.00932544
0.00957536
0.00982666
0.0100795
0.010334
0.0105904
0.0108488
0.0111092
0.011372
0.0116371
0.0119049
0.0121753
0.0124487
0.000281441
0.000478945
0.000744855
0.00104884
0.00136143
0.00166741
0.00196345
0.00225112
0.00253259
0.00280937
0.00308233
0.00335193
0.00361846
0.00388214
0.00414316
0.00440171
0.00465798
0.00491218
0.00516451
0.00541516
0.00566434
0.00591224
0.00615906
0.006405
0.00665023
0.00689494
0.00713931
0.00738352
0.00762773
0.00787212
0.00811683
0.00836204
0.00860791
0.00885458
0.00910221
0.00935095
0.00960095
0.00985235
0.0101053
0.01036
0.0106165
0.010875
0.0111356
0.0113985
0.0116639
0.0119318
0.0122025
0.012476
0.000304954
0.00051409
0.000787243
0.00109308
0.0014043
0.00170809
0.00200226
0.00228859
0.00256912
0.00284521
0.00311763
0.00338679
0.00365293
0.00391625
0.00417694
0.00443519
0.00469118
0.00494512
0.00519721
0.00544765
0.00569664
0.00594437
0.00619104
0.00643685
0.00668197
0.00692659
0.0071709
0.00741506
0.00765924
0.00790361
0.00814833
0.00839357
0.00863948
0.0088862
0.00913391
0.00938274
0.00963285
0.00988438
0.0101375
0.0103923
0.010649
0.0109076
0.0111685
0.0114316
0.0116972
0.0119654
0.0122363
0.0125101
0.000335527
0.000557869
0.000838467
0.00114564
0.00145495
0.00175618
0.00204825
0.00233309
0.00261257
0.0028879
0.00315971
0.00342835
0.00369404
0.00395695
0.00421726
0.00447516
0.00473082
0.00498446
0.00523628
0.00548646
0.00573522
0.00598275
0.00622925
0.0064749
0.0067199
0.00696442
0.00720865
0.00745275
0.0076969
0.00794126
0.00818599
0.00843126
0.00867722
0.00892403
0.00917183
0.00942077
0.00967101
0.00992269
0.010176
0.010431
0.0106878
0.0109467
0.0112078
0.0114712
0.0117371
0.0120055
0.0122768
0.0125509
0.000374415
0.000610855
0.000898438
0.00120615
0.00151298
0.00181134
0.00210115
0.00238439
0.00266276
0.00293726
0.00320841
0.00347649
0.00374167
0.00400413
0.00426401
0.0045215
0.0047768
0.0050301
0.00528159
0.00553149
0.00577999
0.00602729
0.00627359
0.00651907
0.00676393
0.00700834
0.00725248
0.00749652
0.00774063
0.00798499
0.00822974
0.00847505
0.00872108
0.00896797
0.00921589
0.00946497
0.00971536
0.00996722
0.0102207
0.0104759
0.010733
0.0109922