/*--------------------------------*- C++ -*----------------------------------*\
  =========                 |
  \\      /  F ield         | OpenFOAM: The Open Source CFD Toolbox
   \\    /   O peration     | Website:  https://openfoam.org
    \\  /    A nd           | Version:  7
     \\/     M anipulation  |
\*---------------------------------------------------------------------------*/
FoamFile
{
    version     2.0;
    format      ascii;
    class       surfaceScalarField;
    location    "60000";
    object      phi;
}
// * * * * * * * * * * * * * * * * * * * * * * * * * * * * * * * * * * * * * //

dimensions      [0 3 -1 0 0 0 0];

internalField   nonuniform List<scalar> 
9540
(
-5.31862e-23
-2.14646e-23
4.7902e-23
-1.92251e-23
-4.83772e-23
-3.43984e-23
5.33548e-23
-3.13028e-23
-6.80471e-24
-1.60832e-23
-4.22732e-23
-1.22511e-23
3.61911e-23
-3.59676e-23
-8.55151e-24
-2.16227e-23
-2.60706e-23
-2.96195e-23
-1.69471e-23
-2.56737e-23
-4.01203e-23
-1.36277e-23
3.49017e-23
-3.78753e-23
-4.29394e-24
-2.28422e-23
-3.60798e-23
-3.562e-23
-5.02245e-24
-4.98757e-24
2.05613e-23
1.22699e-23
-3.8418e-23
-4.65546e-24
3.21799e-23
-4.57536e-23
5.97e-24
-1.58562e-23
1.12853e-23
-2.95518e-23
5.14863e-24
-7.00942e-25
3.22511e-23
2.01064e-24
6.36631e-24
3.38011e-23
-3.92645e-23
-4.58585e-23
3.12302e-23
-4.05973e-23
7.47394e-24
-2.72607e-23
2.74845e-23
-1.59968e-23
1.44004e-23
-1.43572e-23
3.09877e-23
4.92105e-24
1.07849e-23
-1.28265e-23
1.07073e-23
-1.60154e-24
2.8399e-23
-2.95867e-24
-3.08332e-23
-2.57173e-23
4.07182e-23
-3.10821e-23
-8.55836e-25
-3.48959e-23
2.79541e-23
-1.61783e-23
2.36907e-23
-1.77173e-23
2.26208e-23
6.75941e-25
2.22281e-23
-9.97321e-24
2.25939e-26
-1.62949e-23
-1.30406e-24
-2.44875e-23
-1.51072e-23
2.56601e-24
-1.71394e-23
1.45253e-23
5.19914e-23
-2.96557e-23
4.00709e-23
-3.39756e-23
-9.9235e-26
-1.88845e-23
4.19064e-24
-1.83851e-23
5.5964e-25
-5.70475e-24
6.97728e-24
-1.53797e-23
1.22316e-23
-2.20903e-23
-8.91127e-25
-1.73416e-23
-2.91165e-23
-3.71983e-24
-1.40422e-23
-3.33006e-23
-3.65918e-23
-2.41574e-23
-1.46904e-23
1.06226e-24
-2.92275e-23
-6.8791e-23
-1.13421e-23
4.25203e-23
4.61651e-23
-3.93687e-23
-1.09182e-23
-3.00625e-23
-6.97308e-24
-2.73712e-23
-2.06178e-23
-1.553e-23
-1.33941e-23
-6.81831e-24
2.61058e-24
-2.4188e-23
3.38371e-23
-2.80977e-23
1.56913e-24
-1.75347e-23
-1.87045e-23
-1.06145e-23
-2.44748e-23
-2.21746e-23
-3.61729e-23
-3.30849e-23
-3.98897e-23
-7.80801e-24
1.54229e-23
-3.96662e-23
-7.42824e-24
-4.24911e-23
-1.46247e-23
-4.24879e-23
-3.219e-23
-3.42722e-23
-2.56083e-23
-2.27081e-23
-1.92518e-23
1.74131e-23
3.51522e-23
-3.59105e-23
3.67847e-24
-3.3773e-23
-1.34796e-23
-2.72125e-23
3.95848e-24
-1.37804e-23
-2.91648e-23
-2.31374e-24
-9.23106e-24
-3.04453e-23
-5.7836e-23
-2.87609e-23
5.71232e-25
-2.08928e-23
-1.79726e-23
-1.88759e-23
-3.01912e-23
-2.66551e-23
-3.84301e-23
-2.5592e-23
-4.63809e-23
-1.23439e-23
-2.27092e-24
-4.10155e-23
-5.30483e-23
-4.01161e-23
1.93796e-23
-4.27817e-23
-2.32879e-23
-3.64683e-23
-2.13329e-23
-2.29322e-23
-2.07452e-23
-1.19138e-24
-4.22916e-23
-4.55663e-23
-2.62059e-23
3.3019e-25
3.22229e-23
-3.54498e-23
6.85319e-24
-3.06728e-23
-1.78633e-23
-3.63044e-23
5.72913e-24
-9.58638e-24
2.27346e-23
-1.84466e-23
-2.94895e-23
-1.90529e-23
-7.1655e-23
-3.16721e-23
-5.52217e-23
-2.33499e-23
-2.21456e-23
-1.85535e-23
-4.32604e-23
-2.88727e-23
-3.54157e-23
-1.2158e-23
-6.22235e-23
-2.62585e-23
-6.53722e-23
-2.64385e-23
-7.23763e-23
-4.65752e-23
-3.43378e-23
-4.21702e-23
-2.59644e-23
-3.96161e-23
-1.80151e-23
-2.6841e-23
-2.19948e-23
-6.90878e-24
-4.69406e-23
-7.59407e-24
-3.17004e-23
-4.07793e-24
-4.84185e-23
-9.80674e-24
-5.77548e-23
-3.38899e-23
-8.31083e-23
-8.54901e-23
-2.69433e-23
-1.00203e-23
3.23919e-23
-3.93859e-23
8.09337e-24
-3.2207e-23
-2.4873e-23
-3.33889e-23
1.97559e-24
-1.871e-23
-1.1432e-24
-2.33357e-23
2.6906e-24
-1.57124e-23
-7.19319e-23
-2.47461e-23
-3.82274e-23
-3.01326e-23
-1.74845e-23
-1.99133e-23
-4.708e-23
-3.9257e-23
-9.47726e-23
-1.35988e-23
-5.18516e-23
-3.07556e-23
-4.68656e-23
-2.23654e-23
-7.94669e-23
-4.42614e-23
-7.78747e-24
-4.38168e-23
-2.07425e-23
-3.93365e-23
-1.81338e-23
-3.05754e-23
-1.73634e-23
-9.24732e-24
-3.49231e-23
-1.0794e-23
1.64113e-24
-1.14796e-23
-2.98098e-23
-1.67934e-23
-3.68491e-23
-3.72413e-23
-5.81698e-23
-1.64489e-24
-3.90884e-23
-3.24535e-23
-1.26496e-23
-7.66326e-23
3.71343e-23
-8.25819e-23
-5.16413e-24
-3.6029e-23
-1.26023e-23
1.68456e-23
-2.06732e-23
-2.54571e-23
3.1276e-23
-4.29877e-23
2.51132e-23
-2.53274e-23
2.9916e-23
-3.807e-23
1.55114e-23
-2.23526e-23
4.58347e-23
-3.73914e-23
1.42494e-23
-1.24925e-23
3.44477e-23
-2.39876e-23
-2.50673e-23
-3.26627e-23
-4.157e-23
-3.37458e-23
-3.97023e-23
-3.13056e-23
-5.65348e-23
-1.52507e-23
-5.7359e-23
-3.95795e-23
-4.74853e-23
-8.31691e-24
-3.48786e-23
-4.65812e-23
-8.75062e-24
-3.9613e-23
5.64178e-23
-4.44027e-23
-1.32462e-23
-3.43152e-23
1.72032e-24
-4.0966e-24
-3.21095e-23
-1.63453e-23
-3.7725e-23
-1.54533e-23
-2.11271e-23
-1.96098e-23
7.25944e-24
-3.6355e-23
-3.22172e-23
9.71219e-25
2.74652e-24
-2.88496e-23
1.37836e-23
-8.68344e-23
-3.88695e-23
-8.85134e-23
-3.73803e-24
-3.5761e-23
6.38562e-23
-5.31864e-23
4.60863e-23
-6.38526e-23
6.2144e-23
-3.74601e-23
7.79161e-23
6.34317e-23
-1.3067e-23
-4.77444e-24
2.77457e-23
-3.95067e-23
-2.65134e-23
-2.74351e-23
1.37169e-23
-2.83294e-23
3.75894e-23
-3.00647e-23
3.95738e-23
-3.66543e-23
-1.14461e-24
-2.0607e-23
-1.91147e-23
-2.5027e-23
-1.85837e-23
-3.77621e-23
-5.33354e-23
-3.25176e-23
-3.62467e-23
-3.06592e-23
-4.82054e-23
-1.79804e-23
-6.06195e-23
-3.43082e-23
-2.62281e-23
-3.84006e-24
6.17977e-24
-3.91455e-23
-6.1253e-23
-5.03222e-23
-2.02354e-24
-4.41943e-23
-1.16052e-23
-3.86437e-23
4.15321e-24
-6.66868e-24
2.96065e-23
-1.72262e-23
-1.29052e-23
-1.35023e-23
-1.96337e-23
-2.92964e-23
3.23725e-23
-3.26901e-23
-1.47617e-23
7.91477e-25
-2.15605e-23
-4.11389e-23
-5.79628e-23
-8.17852e-23
-2.50782e-24
-8.27239e-23
-2.96281e-24
-4.27266e-23
9.9242e-23
-5.74071e-23
7.0757e-23
-6.41583e-23
6.70946e-23
-5.12947e-23
6.48737e-23
-6.93281e-23
1.09474e-22
-1.02417e-22
-2.21182e-23
5.01973e-23
-1.44302e-23
-1.09117e-23
2.31005e-23
-3.39495e-23
-2.68832e-23
-2.79255e-23
-3.76426e-24
-2.62894e-23
2.49394e-23
-3.68973e-23
-2.46339e-23
-3.65135e-23
-2.17381e-23
-2.11282e-23
-6.8229e-24
-3.14921e-23
-3.82548e-23
-3.71154e-23
-4.14256e-23
-3.35921e-23
-3.46866e-23
-3.36395e-23
-1.56842e-23
-1.14286e-23
-5.64495e-24
-2.87733e-23
-1.26546e-23
-1.81095e-23
-1.53033e-23
-3.11582e-23
-5.66851e-23
-4.95632e-23
5.97225e-24
-4.68609e-23
-1.7852e-23
-3.44733e-23
-7.03533e-26
-2.21317e-23
-1.67907e-24
-1.69906e-23
-6.94246e-24
-6.71004e-24
-2.62139e-23
-3.81653e-23
-5.11694e-23
-3.55336e-23
1.78292e-23
-1.28665e-23
-3.07038e-23
-3.22732e-23
-3.59625e-23
-8.74352e-23
-2.42154e-23
-6.86539e-23
-1.48122e-23
-5.37195e-23
9.35372e-23
-6.21992e-23
7.76972e-23
-7.06832e-23
7.02916e-23
-5.08355e-23
4.42079e-23
-9.82147e-23
1.49508e-22
-1.35758e-22
5.64829e-23
6.61618e-23
-1.38366e-23
-2.22004e-23
2.24179e-23
-2.97632e-23
-5.03951e-23
-2.53795e-23
-1.97071e-23
-3.25057e-23
-1.38125e-24
-3.86926e-23
-2.10428e-23
-3.97384e-23
-1.48316e-23
-3.25359e-23
-1.13248e-23
-3.47002e-23
-3.48344e-23
-3.78051e-23
-6.57574e-23
-3.26664e-23
-3.46682e-23
-3.21515e-23
-1.7535e-23
-1.20618e-23
-1.18807e-23
-3.09441e-23
3.7778e-24
-2.57776e-23
-1.05673e-23
-2.71199e-23
-6.43232e-23
-5.18652e-23
-5.54866e-23
-4.51318e-23
-3.22324e-23
-3.61818e-23
-4.37834e-23
-2.40008e-23
-8.78508e-23
-1.94187e-23
-5.35953e-24
-1.67728e-23
-3.28574e-23
-2.64216e-23
-4.34114e-23
-4.83605e-23
-8.67216e-23
-1.61046e-23
-5.2472e-23
-3.02646e-23
-2.62541e-23
-9.38625e-23
-9.74275e-23
-5.39681e-23
2.95503e-23
-6.30844e-23
2.91652e-23
-6.4426e-23
7.44771e-23
-8.46425e-23
8.19036e-24
-4.43532e-23
1.34175e-22
-1.23838e-22
1.31108e-22
-1.9877e-22
1.31756e-22
1.17073e-22
-2.05706e-23
-2.56069e-23
2.16103e-23
-3.12368e-23
-4.84194e-23
-2.1335e-23
-3.66265e-23
-3.82666e-23
-2.01502e-23
-4.13136e-23
-5.44221e-23
-3.58483e-23
-2.87818e-23
-3.22704e-23
-1.5414e-23
-3.69944e-23
-2.31274e-23
-3.4775e-23
-2.86992e-23
-2.91678e-23
-3.24144e-23
-3.14085e-23
-3.94425e-23
-9.20086e-24
-1.74567e-23
-3.40897e-23
-4.90647e-23
-2.92023e-23
-1.5918e-23
-2.8631e-23
-7.0176e-23
-4.5076e-23
-4.60078e-23
-4.91073e-23
-3.86118e-23
-4.67892e-23
-4.89483e-23
-1.2949e-23
-3.88723e-23
-2.46125e-23
3.84662e-24
-2.04601e-23
-4.21449e-23
-3.35376e-23
-8.60892e-23
-4.84769e-23
-2.5569e-23
-1.20802e-23
-6.70941e-24
-4.42555e-23
-7.2725e-23
-7.70441e-23
-6.36188e-23
-6.15751e-23
4.11911e-23
-6.09944e-23
2.8041e-23
-8.12995e-23
1.4842e-23
-7.26302e-23
8.4009e-24
-5.69491e-23
1.21609e-22
-1.2842e-22
1.16889e-22
-2.18235e-22
2.03703e-22
3.9898e-22
-1.73957e-23
-7.13873e-24
2.02939e-23
-2.99665e-23
-3.67855e-23
-2.03705e-23
-1.92019e-23
-3.91629e-23
-2.5921e-23
-3.91652e-23
-5.43817e-23
-3.53994e-23
-3.53722e-23
-3.14345e-23
-1.20837e-23
-3.61627e-23
-1.72128e-23
-4.00454e-23
-1.68601e-23
-3.18288e-23
-2.90742e-23
-2.6742e-23
-1.26127e-23
-1.64736e-23
-2.55827e-23
-3.07648e-23
-3.59517e-23
-3.31414e-23
-5.60913e-24
-3.01652e-23
-6.38689e-23
-3.9668e-23
-4.5918e-23
-4.84465e-23
-2.71636e-23
-4.686e-23
3.38287e-23
-7.58381e-24
4.795e-23
-3.05132e-23
1.57409e-23
-3.08852e-23
-3.68291e-23
-2.89581e-23
-8.88343e-23
-4.55182e-23
-1.26818e-22
-2.25451e-23
5.70794e-23
-4.50786e-23
-4.96034e-23
-6.71875e-23
-4.63667e-23
-7.00667e-23
4.59771e-23
-6.65817e-23
1.85687e-23
-8.83735e-23
3.38878e-23
-6.4088e-23
7.60556e-23
-6.67931e-23
1.35157e-22
-1.16934e-22
1.65885e-22
-2.13141e-22
2.9357e-22
4.49515e-22
-2.32437e-23
-3.48253e-23
1.12054e-23
-2.82292e-23
-5.10478e-23
-2.09451e-23
-2.11342e-23
-4.61476e-23
-7.71712e-23
-3.97212e-23
-2.17718e-23
-3.46938e-23
-1.79513e-23
-3.11706e-23
-2.1222e-23
-4.0452e-23
-3.25465e-24
-3.89078e-23
-6.65143e-24
-3.48412e-23
-3.21981e-24
-2.6442e-23
5.70278e-23
-2.43355e-23
-4.68117e-23
-2.81889e-23
-2.83504e-23
-3.7996e-23
-5.23056e-24
-2.64722e-23
3.23322e-24
-4.14136e-23
-1.9558e-23
-3.86101e-23
-2.2274e-23
-4.3915e-23
-3.52298e-23
-1.20476e-23
1.47921e-23
-3.91337e-23
7.10254e-24
-3.67202e-23
-7.01667e-24
-3.85536e-23
-7.89682e-23
-1.91186e-23
-1.39566e-23
-4.28492e-23
-4.61794e-23
-4.48487e-23
-5.29286e-23
-6.18871e-23
-5.69519e-23
-7.71703e-23
-6.43672e-23
-7.27444e-23
5.87788e-24
-8.76398e-23
4.06474e-23
-6.58229e-23
6.84997e-23
-6.82399e-23
1.49771e-22
-1.03806e-22
2.03315e-22
-1.56216e-22
3.5296e-22
4.63334e-22
-2.59734e-23
-9.56217e-23
1.01428e-23
-2.90879e-23
-3.60069e-23
-2.78164e-23
-1.7369e-23
-4.01301e-23
-7.34143e-23
-3.77119e-23
-2.52752e-23
-3.70891e-23
-2.18972e-23
-2.92003e-23
1.59725e-25
-4.19035e-23
-1.10359e-23
-3.80366e-23
1.91826e-23
-2.9708e-23
1.87955e-23
-4.37715e-23
5.80462e-23
-2.50468e-23
-2.78342e-23
-2.64627e-23
-2.49389e-23
-3.50728e-23
-1.72252e-24
-2.99021e-23
6.77016e-24
-3.88002e-23
2.40362e-24
-4.14915e-23
7.7511e-24
-3.65139e-23
3.85424e-23
-1.51975e-23
6.94317e-23
-4.4002e-23
2.6511e-23
-4.57431e-23
5.63363e-24
-3.14812e-23
-1.59007e-23
-2.57958e-23
-1.84899e-23
-4.20945e-23
-3.18395e-23
-4.6273e-23
-2.62873e-23
-7.1825e-23
-4.05758e-23
-6.98937e-23
9.32713e-24
-7.63972e-23
1.6218e-23
-9.21321e-23
7.74442e-23
-6.41781e-23
1.66776e-22
-6.86037e-23
1.63789e-22
-9.28979e-23
2.2807e-22
-1.14667e-22
4.14683e-22
4.86016e-22
-2.30425e-23
-8.78462e-23
1.37432e-23
-2.78135e-23
-1.8378e-23
-2.90239e-23
1.28889e-23
-3.84253e-23
-7.6566e-23
-4.14111e-23
-3.40836e-23
-3.43787e-23
-2.05636e-23
-3.02786e-23
-6.61376e-24
-3.31122e-23
1.31458e-23
-3.94151e-23
3.25861e-23
-1.73976e-23
6.99826e-23
-5.67716e-23
-2.73796e-23
-2.3749e-23
2.58933e-23
-2.53905e-23
1.36479e-23
-3.47061e-23
1.16914e-23
-2.81204e-23
4.84755e-24
-3.544e-23
1.10924e-23
-3.80731e-23
1.87846e-23
-3.16619e-23
3.1222e-23
-2.08379e-23
5.4466e-23
-4.8788e-23
-2.46283e-23
-4.60463e-23
2.38751e-24
-3.51457e-23
-3.13507e-23
-3.01529e-23
-1.99507e-23
-4.0191e-23
-2.4504e-23
-5.12001e-23
-2.32955e-23
-7.14919e-23
-3.35899e-23
-7.32098e-23
3.2727e-24
-7.44026e-23
2.78942e-23
-8.87251e-23
8.82115e-23
-7.33504e-23
1.58704e-22
-7.03669e-23
1.742e-22
-8.18305e-23
2.47183e-22
-9.67645e-23
4.15112e-22
4.059e-22
-2.04979e-23
-6.78388e-23
4.96207e-24
-3.057e-23
-7.7904e-23
-3.32585e-23
-2.11893e-23
-3.60266e-23
4.83518e-24
-4.01855e-23
3.81997e-23
-3.55298e-23
4.46857e-24
-2.71155e-23
-6.93061e-24
-3.18387e-23
2.3419e-23
-3.30035e-23
3.33203e-23
-3.38505e-23
7.06287e-23
-5.07151e-23
-9.18031e-24
-2.85703e-23
3.91216e-23
-2.44746e-23
4.12164e-23
-3.74714e-23
-9.42524e-24
-2.36291e-23
1.97128e-23
-3.21096e-23
-5.19243e-23
-3.79508e-23
2.1922e-23
-2.73643e-23
1.77642e-23
-3.22136e-23
-1.59521e-23
-4.78318e-23
-2.00177e-23
-4.999e-23
-3.15833e-24
-3.5618e-23
-5.3752e-23
-3.12209e-23
-1.7177e-23
-3.80968e-23
-2.5201e-23
-5.57779e-23
-6.62174e-24
-7.04182e-23
-3.22674e-23
-7.68275e-23
5.11016e-24
-7.13832e-23
5.60465e-23
-9.19773e-23
1.09151e-22
-7.89587e-23
1.55019e-22
-7.19297e-23
1.82194e-22
-7.46489e-23
2.61176e-22
-9.36182e-23
3.42708e-22
4.03273e-22
-1.71498e-23
-1.17524e-22
-7.20872e-24
-2.88579e-23
-5.34639e-23
-3.86237e-23
-2.91936e-23
-3.73482e-23
1.79098e-25
-3.58417e-23
-5.28056e-24
-4.06805e-23
1.70198e-23
-1.91154e-23
1.03504e-22
-2.65031e-23
3.23133e-24
-3.17138e-23
1.82917e-23
-3.94869e-23
-2.52533e-25
-5.06881e-23
4.39163e-25
-2.71267e-23
9.19135e-23
-3.25543e-23
5.1523e-23
-3.51726e-23
-1.0566e-23
-2.85921e-23
4.43729e-23
-2.49616e-23
2.40701e-23
-3.55441e-23
2.58198e-23
-3.31138e-23
4.2963e-24
-3.08027e-23
-2.15014e-23
-4.80793e-23
-1.65609e-23
-5.60593e-23
-3.13031e-23
-3.05893e-23
-1.01843e-23
-3.33533e-23
-8.43002e-24
-3.42998e-23
-3.57223e-23
-6.03734e-23
-1.13489e-22
-6.91826e-23
-3.33511e-23
-7.77977e-23
1.0123e-23
-6.88901e-23
4.49667e-23
-9.89361e-23
1.00565e-23
-8.31589e-23
2.15143e-22
-7.54883e-23
1.86282e-22
-8.02687e-23
2.72544e-22
-8.81801e-23
3.46832e-22
-6.45548e-23
3.97223e-22
8.1297e-22
-9.50734e-24
-9.62177e-23
-2.10797e-24
-3.03674e-23
-1.07289e-22
-3.48881e-23
-8.42117e-24
-4.00299e-23
-3.1097e-23
-3.05882e-23
6.27148e-23
-3.66839e-23
2.85723e-23
-2.61114e-23
9.73171e-23
-1.44244e-23
3.3456e-23
-3.98406e-23
-8.39136e-23
-3.82215e-23
-4.52243e-24
-4.678e-23
-4.61118e-24
-2.97529e-23
7.98762e-23
-4.13579e-23
3.48976e-23
-2.92607e-23
1.18792e-23
-2.94894e-23
2.99278e-23
-2.28558e-23
-1.03811e-23
-3.75066e-23
-3.28405e-23
-3.88594e-23
-2.27036e-23
-2.49918e-23
3.11748e-23
-5.24332e-23
7.01032e-24
-5.57402e-23
2.1295e-24
-2.99568e-23
9.59426e-23
-3.41717e-23
4.26273e-24
-4.24879e-23
-3.7047e-23
-5.27962e-23
-1.11017e-22
-6.93591e-23
-8.99945e-23
-7.93974e-23
-5.35182e-23
-7.83382e-23
1.4609e-23
-8.5188e-23
1.19391e-23
-9.5783e-23
1.00187e-22
-7.44697e-23
1.74641e-22
-8.5552e-23
2.0239e-22
-8.33737e-23
3.43306e-22
-5.39615e-23
4.76584e-22
7.93515e-22
-7.93284e-24
-5.17775e-23
6.14816e-24
-2.01914e-23
-8.1537e-23
-3.07844e-23
-2.34253e-23
-3.6468e-23
-2.26972e-23
-2.60559e-23
4.09816e-23
-1.96685e-23
2.64411e-23
-2.62919e-23
3.13298e-23
-7.59378e-24
2.30447e-23
-3.42478e-23
-5.26053e-23
-3.43325e-23
2.7091e-23
-4.4502e-23
-7.54966e-24
-3.35444e-23
7.88255e-23
-4.48832e-23
1.06607e-23
-2.8806e-23
7.23113e-23
-2.64989e-23
5.99633e-23
-2.23344e-23
-1.47464e-23
-3.37636e-23
-3.13048e-23
-3.68879e-23
-2.92818e-23
-2.55099e-23
-1.46408e-24
-5.37585e-23
-8.31497e-23
-4.58209e-23
2.26187e-24
-3.81681e-23
1.22054e-22
-3.76691e-23
8.75177e-24
-4.87998e-23
-4.46734e-23
-4.93619e-23
-1.20742e-22
-6.76257e-23
-8.36173e-23
-7.95065e-23
-4.50613e-23
-8.25752e-23
8.43916e-24
-8.56272e-23
1.33001e-23
-9.60138e-23
1.21044e-22
-8.11812e-23
1.70944e-22
-8.81871e-23
1.77996e-22
-7.5668e-23
3.32197e-22
-5.48612e-23
3.61955e-22
-4.89888e-24
-4.02723e-23
-5.53902e-25
-1.43635e-23
-5.92945e-23
-1.93094e-23
-2.91778e-24
-3.00491e-23
-1.61448e-23
-2.32943e-23
3.6194e-23
-1.5279e-23
2.68626e-23
-2.19479e-23
4.96275e-23
1.23183e-24
1.29715e-22
-2.25487e-23
-3.13922e-23
-3.0575e-23
3.32525e-23
-4.12763e-23
-3.5149e-23
-3.58165e-23
7.68902e-23
-3.90134e-23
4.31597e-23
-3.05076e-23
7.96584e-23
-2.82252e-23
5.82508e-23
-2.25685e-23
5.77111e-23
-3.07405e-23
-9.51844e-24
-3.53664e-23
-3.65015e-23
-2.80614e-23
5.35879e-24
-4.84251e-23
-6.44957e-23
-3.49365e-23
8.84497e-24
-4.67637e-23
4.2724e-24
-4.08175e-23
1.08961e-24
-5.45808e-23
-3.31134e-23
-4.48923e-23
-1.11257e-24
-6.67872e-23
-7.39171e-23
-8.01074e-23
-4.26614e-23
-8.76475e-23
1.04989e-23
-8.5336e-23
1.38946e-23
-9.89976e-23
7.07454e-23
-8.51853e-23
1.67393e-22
-8.78994e-23
1.78139e-22
-7.77548e-23
3.21175e-22
3.17997e-22
-2.22678e-24
-3.31422e-23
-5.40004e-24
-1.37796e-23
-3.26014e-23
-1.05579e-23
-1.93267e-23
-2.64152e-23
-3.67186e-23
-2.46082e-23
4.10256e-23
-1.55641e-23
2.90992e-23
-1.14055e-23
5.45201e-23
-4.09854e-24
8.77444e-23
-1.50401e-23
5.23486e-24
-2.7338e-23
4.45179e-23
-3.41124e-23
-1.48315e-24
-2.96824e-23
7.51099e-23
-3.39831e-23
3.60866e-23
-2.90548e-23
6.17836e-23
-2.30778e-23
5.60701e-23
-2.12648e-23
5.12812e-23
-2.49412e-23
6.05344e-23
-3.21564e-23
-2.79472e-23
-2.41882e-23
7.65159e-24
-4.52796e-23
-1.20653e-22
-3.28591e-23
5.58715e-25
-4.7352e-23
-7.42624e-23
-4.46915e-23
-1.07551e-23
-5.08627e-23
-3.2145e-23
-4.5599e-23
-5.99273e-24
-6.58328e-23
-6.86406e-23
-7.83627e-23
-4.02845e-23
-9.36813e-23
1.75668e-23
-8.2389e-23
8.30531e-23
-1.02611e-22
2.33624e-23
-8.86199e-23
1.63198e-22
-9.22313e-23
1.02995e-22
-8.32001e-23
2.75822e-22
3.01726e-22
2.66502e-24
-5.92852e-23
-5.70591e-24
-1.61255e-23
-1.04379e-22
-9.99936e-24
-3.71899e-23
-2.32641e-23
-2.9125e-23
-2.78269e-23
5.35081e-23
-1.33352e-23
1.00795e-22
-1.62017e-23
5.93014e-23
-7.57718e-24
1.23853e-22
-1.38367e-23
2.16628e-23
-2.36347e-23
5.41815e-23
-2.74209e-23
8.14056e-24
-2.10065e-23
7.13119e-23
-2.62753e-23
4.48843e-23
-3.08673e-23
-1.26361e-23
-1.28205e-23
6.17556e-23
-8.82342e-24
4.71728e-23
-2.28353e-23
4.2919e-23
-2.27935e-23
-3.05613e-23
-1.97796e-23
-1.97716e-23
-3.54774e-23
-1.08218e-22
-3.32239e-23
-2.90198e-23
-4.23898e-23
-8.56095e-23
-4.95304e-23
-1.89446e-23
-5.02571e-23
3.7483e-23
-3.95128e-23
1.07515e-22
-6.42696e-23
-7.31361e-23
-7.05434e-23
-3.40604e-23
-9.73231e-23
-8.53527e-23
-8.32841e-23
8.38152e-23
-1.02985e-22
3.86705e-23
-9.28116e-23
1.65267e-22
-9.53771e-23
1.10532e-22
-8.22456e-23
2.57739e-22
2.42108e-22
-1.29419e-24
-5.98271e-23
-2.2212e-24
-1.58757e-23
-9.05879e-23
-4.52352e-24
1.76635e-23
-1.60065e-23
-2.28365e-23
-2.71119e-23
3.8854e-23
-1.70248e-23
1.25123e-22
-1.44747e-23
6.51848e-23
-1.35935e-23
1.4113e-22
-1.48576e-23
1.14356e-22
-2.30438e-23
6.65406e-23
-2.2606e-23
8.10143e-24
-1.86903e-23
3.84001e-23
-2.55815e-23
3.71605e-23
-2.55796e-23
3.11235e-23
-2.64281e-24
4.27106e-23
8.92307e-24
3.82868e-23
-1.63106e-23
-5.07528e-23
-1.74473e-23
-3.67349e-23
-3.96266e-24
-1.48094e-23
-2.61589e-23
-7.66827e-23
-2.72957e-23
4.81854e-23
-3.80942e-23
-8.19088e-23
-4.98631e-23
-2.45936e-23
-4.67808e-23
3.81432e-23
-3.64295e-23
1.01772e-22
-5.51326e-23
-6.60761e-23
-6.241e-23
-2.0301e-23
-8.75764e-23
-7.35933e-23
-7.59498e-23
9.10103e-23
-1.03027e-22
-2.17369e-24
-9.73609e-23
1.6401e-22
-9.2737e-23
1.11015e-22
-7.87139e-23
2.19073e-22
-4.73245e-24
-6.42069e-23
8.93617e-25
-9.34432e-24
-8.16764e-23
-2.34094e-24
-3.11968e-23
-1.61751e-23
-4.6376e-23
-1.847e-23
6.52568e-24
-1.99277e-23
8.27712e-23
-9.43841e-24
1.19291e-22
-1.53834e-23
7.24288e-23
-2.09593e-23
1.00149e-22
-2.3064e-23
8.17764e-23
-2.507e-23
1.49931e-23
-1.61845e-23
3.64974e-23
-2.70987e-23
5.89482e-23
-2.42943e-23
4.40565e-23
-8.07478e-25
7.32569e-23
7.73619e-24
7.71196e-23
-9.23603e-24
4.02518e-24
-1.49391e-23
-4.10772e-23
8.84308e-24
3.42072e-23
-1.17814e-23
-4.73193e-23
-2.38695e-23
-4.73514e-24
-3.23623e-23
-7.78776e-23
-4.67984e-23
-1.89399e-23
-4.30951e-23
3.79341e-23
-3.22801e-23
9.72086e-23
-4.0833e-23
-5.75197e-23
-4.89224e-23
-4.12582e-23
-7.21358e-23
-5.40117e-23
-6.38611e-23
9.08984e-23
-9.54883e-23
4.19042e-23
-9.06695e-23
1.25583e-22
-8.46859e-23
6.90942e-23
2.08911e-22
-4.59172e-24
-5.09807e-23
4.93613e-24
-7.74375e-24
-7.3626e-23
1.5914e-24
-3.67487e-24
-1.45763e-23
-3.77837e-23
-1.74513e-23
-1.67093e-24
-1.25585e-23
9.93782e-23
-1.76612e-23
4.83814e-23
-1.17061e-23
4.01187e-23
-2.73895e-23
4.69514e-23
-2.66031e-23
9.44564e-23
-2.50091e-23
2.33882e-23
-1.47829e-23
3.40824e-23
-3.07118e-23
1.82895e-24
-2.3891e-23
3.8339e-23
-1.19577e-24
7.54413e-23
5.62319e-24
8.53565e-23
-7.34612e-24
1.13666e-23
-9.1147e-24
3.90762e-23
1.15944e-23
8.36918e-23
-1.17442e-23
-2.37138e-23
-1.71626e-23
-2.00703e-24
-2.87709e-23
-7.26933e-23
-4.12104e-23
-9.30633e-24
-4.13685e-23
4.076e-23
-3.45547e-23
9.70465e-23
-4.19702e-23
-4.77106e-23
-5.66859e-23
-6.33625e-23
-7.64634e-23
-3.797e-23
-6.0645e-23
1.14133e-22
-8.77076e-23
6.54349e-23
-7.84137e-23
1.17439e-22
-7.1052e-23
5.00161e-23
-6.92148e-24
-8.61976e-23
5.98915e-24
-4.31706e-24
-3.4736e-23
-1.98224e-24
-5.32884e-24
-1.12359e-23
-6.01427e-23
-8.82393e-24
-1.11349e-23
-1.65076e-23
-1.83385e-23
-1.74136e-23
5.84925e-23
-9.42109e-24
6.93005e-23
-2.69574e-23
1.92167e-25
-3.40386e-23
5.1007e-23
-2.54124e-23
2.84186e-23
-1.69192e-23
3.78818e-23
-2.53793e-23
2.47922e-23
-2.36302e-23
4.12422e-23
-9.26797e-25
1.01418e-22
2.16047e-24
9.8252e-23
-5.35943e-24
9.02104e-23
-3.7758e-24
2.98376e-23
1.00622e-23
5.56546e-23
-1.21479e-23
-3.74704e-23
-1.37233e-23
5.88167e-24
-2.74344e-23
-5.1526e-23
-3.81139e-23
-5.95435e-24
-4.07031e-23
4.20141e-23
-3.88899e-23
9.55631e-23
-4.56742e-23
3.29416e-23
-5.65829e-23
1.25056e-23
-7.71377e-23
-2.36957e-23
-5.59929e-23
1.01215e-22
-8.24452e-23
2.01846e-23
-7.05945e-23
1.08305e-22
4.95124e-23
-6.9581e-24
-8.69457e-23
8.00363e-24
-2.96065e-24
-3.64315e-23
-3.98146e-25
-3.11778e-24
-6.87429e-24
3.65954e-23
-1.11001e-23
1.3738e-23
-1.20802e-23
1.39785e-23
-1.65294e-23
2.8619e-23
-1.26742e-23
2.88617e-23
-2.39087e-23
-5.45872e-23
-3.58345e-23
3.34298e-24
-2.35369e-23
5.62365e-23
-1.82844e-23
3.67672e-23
-2.14893e-23
3.95865e-23
-2.03838e-23
3.84557e-23
-4.2282e-24
9.43602e-23
4.34415e-24
9.16648e-23
-1.03391e-23
2.76025e-23
-2.1446e-24
5.65382e-23
6.84985e-24
4.46733e-23
-1.22203e-23
-2.76599e-23
-1.21267e-23
9.15791e-24
-2.85873e-23
-8.13305e-23
-3.57583e-23
-1.09586e-23
-4.03371e-23
4.22679e-23
-3.98668e-23
1.06072e-22
-4.92183e-23
4.16339e-23
-6.12946e-23
1.6229e-23
-7.5342e-23
-5.18102e-23
-5.47984e-23
9.77644e-23
-7.37785e-23
-1.60874e-23
-6.3237e-23
2.48228e-23
3.2879e-23
-7.09552e-24
-8.54124e-23
1.14461e-23
-8.87733e-25
-5.128e-23
2.79258e-24
1.02437e-23
-7.00838e-24
5.88568e-23
-1.07717e-23
1.09857e-23
-1.06229e-23
5.27456e-23
-1.56581e-23
1.14285e-23
-2.15503e-23
2.74982e-23
-2.47546e-23
-4.39785e-23
-2.98912e-23
3.37106e-23
-2.56734e-23
5.96266e-23
-1.48528e-23
6.79661e-23
-2.12226e-23
4.78913e-23
-2.00827e-23
2.96118e-23
-2.72345e-24
7.60656e-23
2.38509e-25
7.31611e-23
-8.02892e-24
4.9535e-23
-3.43198e-24
4.9136e-23
6.15772e-24
6.47415e-23
-1.27217e-23
-1.49174e-23
-1.60047e-23
2.8293e-24
-2.84367e-23
-6.10846e-23
-3.33031e-23
-2.28633e-23
-3.83491e-23
2.98516e-23
-4.28327e-23
1.13405e-22
-5.16323e-23
3.79286e-24
-6.79223e-23
1.66083e-23
-7.01996e-23
2.92824e-23
-5.56945e-23
9.51952e-23
-6.86389e-23
-2.28601e-23
-5.17087e-23
4.75205e-23
-9.83478e-24
-1.06352e-23
-3.50537e-23
1.68436e-23
7.47265e-24
3.30046e-23
6.66662e-24
2.36787e-23
-1.11607e-23
8.79247e-23
-9.63842e-24
-1.14848e-24
-7.91633e-24
5.27129e-23
-1.2858e-23
1.82168e-23
-2.29623e-23
3.06438e-23
-2.15925e-23
-6.41906e-24
-2.61486e-23
5.81677e-23
-2.71319e-23
3.80001e-23
-1.61142e-23
1.00392e-22
-2.12112e-23
4.04461e-23
-1.82953e-23
1.83464e-23
-5.91773e-24
6.79709e-23
8.90979e-25
8.29968e-23
-8.0792e-24
4.73372e-23
-2.42027e-24
3.86812e-23
1.96641e-24
6.64137e-23
-1.50118e-23
-7.38598e-25
-1.80391e-23
2.79284e-23
-2.97259e-23
-4.95841e-23
-3.02165e-23
-6.78942e-23
-3.41297e-23
1.99693e-23
-4.87859e-23
4.86487e-23
-5.14897e-23
1.50216e-25
-6.71729e-23
2.56016e-23
-6.9571e-23
2.44782e-23
-5.62417e-23
7.87893e-23
-6.085e-23
2.73086e-23
-4.42143e-23
7.61816e-23
-1.22605e-23
-7.13551e-24
5.13109e-24
1.87301e-23
9.43916e-24
1.44349e-22
1.16986e-23
7.047e-23
-1.55211e-23
-6.03653e-24
-9.66134e-24
2.55424e-23
-9.29437e-24
5.58858e-23
-1.18368e-23
1.93439e-23
-2.84372e-23
2.886e-23
-1.43472e-23
2.01808e-23
-2.57671e-23
3.39896e-24
-2.39515e-23
5.55268e-23
-1.9617e-23
8.90209e-23
-2.11626e-23
2.0702e-23
-1.60122e-23
1.16833e-23
-3.60082e-24
1.10126e-22
-3.67484e-24
9.38729e-23
-9.17735e-24
6.63338e-23
-2.68228e-24
1.22396e-23
-7.40368e-25
6.2671e-23
-1.40681e-23
1.46556e-23
-2.18365e-23
-2.70705e-24
-3.46136e-23
-3.47443e-23
-2.37425e-23
-1.54311e-23
-3.44987e-23
-2.57861e-23
-4.99822e-23
-1.45974e-23
-4.99384e-23
-4.12295e-23
-6.45856e-23
3.23467e-23
-6.88003e-23
2.88621e-23
-5.33479e-23
5.37824e-23
-5.52728e-23
4.616e-23
-3.74439e-23
6.73564e-23
-1.61273e-23
-3.74624e-25
3.42295e-23
1.89966e-23
5.60037e-24
1.02407e-22
6.57272e-24
7.54143e-23
-1.26937e-23
5.03988e-23
-6.27085e-24
8.48127e-23
-9.95873e-24
2.09147e-23
-1.02739e-23
3.50759e-23
-2.79478e-23
3.05516e-23
-1.567e-23
1.08748e-23
-2.26742e-23
-6.63546e-23
-2.23711e-23
6.80138e-23
-2.10054e-23
8.05082e-23
-2.17874e-23
1.95405e-24
-1.2087e-23
4.47407e-24
-3.41323e-24
1.14277e-22
-6.95819e-24
2.24135e-23
-1.03789e-23
8.53288e-23
-2.04757e-24
2.50795e-23
-1.6283e-24
1.01126e-22
-1.62855e-23
-4.22664e-23
-2.28491e-23
5.06338e-24
-3.53642e-23
-1.18249e-23
-2.30404e-23
3.96332e-23
-3.55875e-23
-2.16688e-23
-4.92174e-23
-1.22365e-24
-4.54418e-23
2.86134e-23
-6.22808e-23
4.7966e-23
-6.87257e-23
5.41307e-23
-4.58236e-23
1.0028e-22
-5.04431e-23
4.98212e-23
-3.27316e-23
1.05088e-22
-6.90667e-23
8.60994e-25
1.20976e-22
1.79e-23
4.13364e-24
7.21675e-23
4.77126e-24
7.82094e-23
-7.59829e-24
6.32329e-23
-1.29938e-23
5.85924e-23
-9.65234e-24
3.34621e-23
-9.88351e-24
2.8617e-23
-2.86126e-23
-7.31982e-23
-2.1344e-23
-8.56402e-24
-1.40388e-23
-3.63742e-23
-2.40183e-23
8.292e-24
-2.73349e-23
5.14377e-24
-1.65178e-23
5.24924e-23
-9.21795e-24
3.11238e-24
-7.81937e-24
4.40363e-23
-5.44739e-24
3.77839e-23
-1.1757e-23
9.52055e-23
-2.88334e-25
1.51173e-23
-7.24644e-24
4.18202e-23
-1.27106e-23
-2.51726e-23
-2.35534e-23
-1.11664e-23
-3.34385e-23
8.03016e-24
-2.58374e-23
3.29624e-23
-3.60421e-23
-1.61749e-23
-4.46075e-23
2.04225e-23
-4.37445e-23
1.94943e-23
-5.80042e-23
6.11767e-23
-6.60753e-23
6.58132e-23
-4.28038e-23
1.75955e-22
-4.49515e-23
8.31482e-23
-3.33915e-23
1.20322e-22
-4.35714e-23
2.26895e-24
8.96439e-23
1.59248e-23
1.82096e-24
5.88043e-23
5.51341e-24
5.3155e-23
-7.2953e-24
2.59244e-23
-1.36301e-23
5.35682e-23
-1.27984e-23
9.34387e-23
-1.40058e-23
2.4869e-23
-2.60526e-23
-7.72564e-23
-2.31712e-23
-2.37669e-23
-1.08327e-23
-5.61274e-23
-2.58948e-23
-5.13603e-23
-2.22693e-23
5.07036e-24
-1.75944e-23
4.84172e-23
-1.0244e-23
-1.82166e-23
-5.90104e-24
3.644e-23
-4.06369e-24
2.6109e-23
-1.46752e-23
1.13673e-22
-1.28235e-24
3.05891e-23
-7.3418e-24
1.72156e-23
-1.21366e-23
4.11342e-24
-2.23449e-23
-7.42764e-25
-3.32008e-23
2.31578e-23
-2.79889e-23
4.65045e-23
-3.45359e-23
-3.98405e-24
-4.2569e-23
2.13939e-23
-4.07795e-23
9.43204e-23
-5.37634e-23
7.97518e-23
-5.9609e-23
5.56636e-23
-4.18722e-23
1.50526e-22
-4.13567e-23
8.36649e-23
-3.38239e-23
9.77251e-23
5.86455e-23
3.33353e-24
1.36263e-22
1.72766e-23
-1.24464e-24
-2.31678e-24
6.52964e-24
7.97981e-23
-6.77426e-24
3.06433e-23
-1.05378e-23
5.75692e-23
-1.7707e-23
5.00267e-23
-1.70885e-23
9.0597e-23
-2.60715e-23
-8.0245e-23
-2.18987e-23
-7.50793e-23
-1.22372e-23
8.45751e-24
-2.27032e-23
8.11411e-24
-1.89916e-23
-2.84545e-23
-2.16385e-23
2.83647e-23
-1.10096e-23
-2.19217e-23
-5.23162e-24
8.78373e-23
-1.50506e-24
1.73e-23
-1.55583e-23
9.91622e-23
-5.7403e-24
5.71803e-23
-4.71739e-24
6.99532e-23
-1.37159e-23
1.36985e-23
-2.08534e-23
1.39207e-23
-3.30615e-23
5.02974e-23
-2.91932e-23
5.64301e-23
-3.35751e-23
1.01012e-22
-3.74219e-23
9.52688e-23
-4.10851e-23
9.99913e-23
-5.12533e-23
9.60152e-23
-5.37056e-23
6.27298e-23
-3.99047e-23
1.34701e-22
-3.89628e-23
8.07549e-23
-2.7325e-23
8.85091e-23
5.60366e-23
-2.20071e-24
1.1152e-22
1.54472e-23
1.46796e-24
4.31464e-23
3.43096e-24
3.33717e-23
-4.25264e-24
-5.54831e-24
-1.01598e-23
8.57477e-23
-1.86025e-23
1.50533e-23
-2.26991e-23
9.23931e-23
-2.87787e-23
-3.0229e-24
-1.7234e-23
-2.11358e-23
-1.13343e-23
-2.36252e-24
-2.20276e-23
1.46506e-23
-1.62115e-23
2.20332e-24
-2.34473e-23
-1.99115e-23
-7.66494e-24
-3.70687e-23
-5.15849e-24
1.01183e-22
1.08823e-24
4.01097e-23
-1.54379e-23
7.29387e-23
-9.83757e-24
4.93666e-23
-4.89174e-24
8.04852e-23
-1.35345e-23
-2.60564e-23
-1.70827e-23
1.42359e-23
-3.39251e-23
-1.05427e-23
-2.55705e-23
6.55084e-23
-3.30822e-23
3.96867e-23
-3.6605e-23
9.62503e-23
-4.05966e-23
1.3059e-22
-4.94377e-23
1.03323e-22
-5.01269e-23
3.55535e-23
-3.82233e-23
1.43093e-22
-3.7515e-23
7.94979e-23
-2.19104e-23
8.17929e-23
6.57058e-23
-3.78996e-25
1.38121e-22
1.77356e-23
-2.39545e-24
2.96041e-23
3.18091e-24
1.16591e-23
-1.80921e-24
-5.44689e-23
-9.99313e-24
-1.45343e-24
-1.63562e-23
5.35969e-23
-2.71531e-23
7.43402e-23
-3.0491e-23
-1.09864e-23
-1.5803e-23
3.08076e-23
-1.0498e-23
-6.51545e-24
-2.37443e-23
3.1148e-23
-1.58935e-23
-2.16355e-24
-2.4282e-23
-5.05586e-23
-2.08282e-24
5.87576e-23
-6.78787e-24
7.28646e-23
8.53665e-25
6.20233e-23
-1.45597e-23
7.60203e-23
-9.78701e-24
3.98811e-23
-6.48836e-24
8.53136e-23
-1.28955e-23
-2.61177e-24
-1.77317e-23
1.00401e-22
-3.05079e-23
1.31062e-23
-2.73706e-23
4.66777e-23
-2.88785e-23
5.24847e-23
-3.52035e-23
7.30306e-23
-4.09994e-23
1.29282e-22
-4.9467e-23
1.11117e-22
-4.34723e-23
4.29002e-23
-3.73178e-23
1.41397e-22
-3.58228e-23
8.22104e-23
-1.71601e-23
1.03444e-22
1.04712e-22
-2.88264e-24
1.73879e-22
1.82893e-23
-5.11106e-24
-3.51322e-24
2.66917e-24
8.13669e-23
-2.62615e-24
-2.91783e-23
-6.80333e-24
2.84444e-23
-1.79708e-23
2.99063e-23
-2.78896e-23
5.0872e-23
-2.95922e-23
4.7732e-23
-1.64585e-23
7.42545e-23
-1.07257e-23
1.14795e-22
-2.17057e-23
8.46025e-23
-1.68961e-23
6.46732e-23
-1.75686e-23
3.89071e-23
-4.92481e-24
3.93649e-23
-7.69567e-24
5.37618e-23
2.20145e-25
5.34837e-23
-1.39755e-23
5.91662e-23
-1.0966e-23
4.07482e-23
-6.51371e-24
1.29421e-22
-1.14108e-23
8.00478e-24
-2.0695e-23
7.12891e-23
-2.81256e-23
1.97387e-23
-2.77501e-23
5.75921e-24