/*--------------------------------*- C++ -*----------------------------------*\
  =========                 |
  \\      /  F ield         | OpenFOAM: The Open Source CFD Toolbox
   \\    /   O peration     | Website:  https://openfoam.org
    \\  /    A nd           | Version:  7
     \\/     M anipulation  |
\*---------------------------------------------------------------------------*/
FoamFile
{
    version     2.0;
    format      ascii;
    class       volScalarField;
    location    "60000";
    object      p;
}
// * * * * * * * * * * * * * * * * * * * * * * * * * * * * * * * * * * * * * //

dimensions      [0 2 -2 0 0 0 0];

internalField   nonuniform List<scalar> 
4783
(
-2.84403e-17
-2.85623e-17
-2.86201e-17
-2.89194e-17
-2.86933e-17
-2.88482e-17
-2.85591e-17
-2.84152e-17
-2.82533e-17
-2.86765e-17
-2.85546e-17
-2.85259e-17
-2.85227e-17
-2.84508e-17
-2.83079e-17
-2.83609e-17
-2.87526e-17
-2.88088e-17
-2.8647e-17
-2.88094e-17
-2.88175e-17
-2.84605e-17
-2.85443e-17
-2.8765e-17
-2.84734e-17
-2.85801e-17
-2.8515e-17
-2.86709e-17
-2.85643e-17
-2.85454e-17
-2.85007e-17
-2.8456e-17
-2.8464e-17
-2.85928e-17
-2.85942e-17
-2.85206e-17
-2.84935e-17
-2.85284e-17
-2.87581e-17
-2.84061e-17
-2.82961e-17
-2.83929e-17
-2.85734e-17
-2.85784e-17
-2.82461e-17
-2.82162e-17
-2.84338e-17
-2.84709e-17
-2.82861e-17
-2.84742e-17
-2.84994e-17
-2.8626e-17
-2.87363e-17
-2.86992e-17
-2.84463e-17
-2.84182e-17
-2.87315e-17
-2.85876e-17
-2.85169e-17
-2.83494e-17
-2.85579e-17
-2.85042e-17
-2.83241e-17
-2.85539e-17
-2.86043e-17
-2.86388e-17
-2.85171e-17
-2.84518e-17
-2.83051e-17
-2.84154e-17
-2.8705e-17
-2.83312e-17
-2.84918e-17
-2.85394e-17
-2.84334e-17
-2.82831e-17
-2.83325e-17
-2.86715e-17
-2.86237e-17
-2.87337e-17
-2.85862e-17
-2.85106e-17
-2.86067e-17
-2.85701e-17
-2.83676e-17
-2.87071e-17
-2.87398e-17
-2.86435e-17
-2.85666e-17
-2.83997e-17
-2.87792e-17
-2.86191e-17
-2.86306e-17
-2.85652e-17
-2.85277e-17
-2.84291e-17
-2.80639e-17
-2.83183e-17
-2.8488e-17
-2.85815e-17
-2.85104e-17
-2.83162e-17
-2.85014e-17
-2.84611e-17
-2.87662e-17
-2.86726e-17
-2.86288e-17
-2.87206e-17
-2.91016e-17
-2.88789e-17
-2.85776e-17
-2.85448e-17
-2.86312e-17
-2.8599e-17
-2.88303e-17
-2.86801e-17
-2.85303e-17
-2.8531e-17
-2.8459e-17
-2.81822e-17
-2.848e-17
-2.85756e-17
-2.84288e-17
-2.79313e-17
-2.83073e-17
-2.85214e-17
-2.86105e-17
-2.86677e-17
-2.88299e-17
-2.86804e-17
-2.87518e-17
-2.86606e-17
-2.83891e-17
-2.85096e-17
-2.8526e-17
-2.83674e-17
-2.86029e-17
-2.87068e-17
-2.83329e-17
-2.84885e-17
-2.86905e-17
-2.8532e-17
-2.85636e-17
-2.85606e-17
-2.82497e-17
-2.79566e-17
-2.85011e-17
-2.86859e-17
-2.85833e-17
-2.85816e-17
-2.85912e-17
-2.8613e-17
-2.88153e-17
-2.87625e-17
-2.8639e-17
-2.86177e-17
-2.86523e-17
-2.87297e-17
-2.85315e-17
-2.84294e-17
-2.8498e-17
-2.83072e-17
-2.83311e-17
-2.84656e-17
-2.86501e-17
-2.87049e-17
-2.82755e-17
-2.8452e-17
-2.88508e-17
-2.90548e-17
-2.85099e-17
-2.85593e-17
-2.84144e-17
-2.83537e-17
-2.84017e-17
-2.84561e-17
-2.89291e-17
-2.8979e-17
-2.88622e-17
-2.86146e-17
-2.84099e-17
-2.88246e-17
-2.88689e-17
-2.87483e-17
-2.86536e-17
-2.8716e-17
-2.84312e-17
-2.85854e-17
-2.87679e-17
-2.86215e-17
-2.85266e-17
-2.8703e-17
-2.86195e-17
-2.86325e-17
-2.85981e-17
-2.8439e-17
-2.84165e-17
-2.8563e-17
-2.87386e-17
-2.91367e-17
-2.85302e-17
-2.85455e-17
-2.8591e-17
-2.87862e-17
-2.84152e-17
-2.87184e-17
-2.87976e-17
-2.84082e-17
-2.80649e-17
-2.83766e-17
-2.86442e-17
-2.86257e-17
-2.85701e-17
-2.86883e-17
-2.87373e-17
-2.86528e-17
-2.86896e-17
-2.87973e-17
-2.86409e-17
-2.86422e-17
-2.86124e-17
-2.86387e-17
-2.85746e-17
-2.86174e-17
-2.86084e-17
-2.85041e-17
-2.80796e-17
-2.85611e-17
-2.8667e-17
-2.85851e-17
-2.83748e-17
-2.85653e-17
-2.86633e-17
-2.86559e-17
-2.84615e-17
-2.88563e-17
-2.91787e-17
-2.86888e-17
-2.86267e-17
-2.86439e-17
-2.85164e-17
-2.88203e-17
-2.87532e-17
-2.83827e-17
-2.84973e-17
-2.85888e-17
-2.884e-17
-2.90851e-17
-2.88027e-17
-2.85829e-17
-2.86296e-17
-2.86804e-17
-2.86189e-17
-2.8717e-17
-2.8896e-17
-2.88466e-17
-2.85949e-17
-2.85973e-17
-2.91276e-17
-2.85113e-17
-2.8508e-17
-2.85669e-17
-2.84569e-17
-2.86647e-17
-2.84368e-17
-2.86138e-17
-2.85866e-17
-2.82346e-17
-2.86269e-17
-2.87122e-17
-2.86963e-17
-2.84291e-17
-2.85685e-17
-2.86415e-17
-2.8678e-17
-2.8847e-17
-2.89401e-17
-2.8709e-17
-2.86045e-17
-2.86328e-17
-2.87928e-17
-2.85766e-17
-2.87697e-17
-2.85395e-17
-2.8561e-17
-2.85436e-17
-2.857e-17
-2.86198e-17
-2.88087e-17
-2.87302e-17
-2.87118e-17
-2.85065e-17
-2.86263e-17
-2.8388e-17
-2.8433e-17
-2.84892e-17
-2.86298e-17
-2.87185e-17
-2.8829e-17
-2.86109e-17
-2.84658e-17
-2.86638e-17
-2.88247e-17
-2.86439e-17
-2.87129e-17
-2.86411e-17
-2.86865e-17
-2.87861e-17
-2.87515e-17
-2.86001e-17
-2.85355e-17
-2.86777e-17
-2.86216e-17
-2.85429e-17
-2.84546e-17
-2.86406e-17
-2.87359e-17
-2.86537e-17
-2.86328e-17
-2.86573e-17
-2.84066e-17
-2.84684e-17
-2.86099e-17
-2.86898e-17
-2.8569e-17
-2.84791e-17
-2.87027e-17
-2.86267e-17
-2.85841e-17
-2.86025e-17
-2.89589e-17
-2.87125e-17
-2.83946e-17
-2.81468e-17
-2.81586e-17
-2.85807e-17
-2.84987e-17
-2.86975e-17
-2.88185e-17
-2.86032e-17
-2.8146e-17
-2.8435e-17
-2.87265e-17
-2.88463e-17
-2.87299e-17
-2.85799e-17
-2.88321e-17
-2.85252e-17
-2.85307e-17
-2.84503e-17
-2.88379e-17
-2.84264e-17
-2.85186e-17
-2.86333e-17
-2.8356e-17
-2.84537e-17
-2.86557e-17
-2.85571e-17
-2.85044e-17
-2.83428e-17
-2.85832e-17
-2.89353e-17
-2.86989e-17
-2.86296e-17
-2.8602e-17
-2.85355e-17
-2.83596e-17
-2.87392e-17
-2.8637e-17
-2.87043e-17
-2.90114e-17
-2.82598e-17
-2.87089e-17
-2.87056e-17
-2.88116e-17
-2.87497e-17
-2.83417e-17
-2.85075e-17
-2.86099e-17
-2.85303e-17
-2.84487e-17
-2.82395e-17
-2.85566e-17
-2.86408e-17
-2.8727e-17
-2.8513e-17
-2.84301e-17
-2.87429e-17
-2.88995e-17
-2.86787e-17
-2.84858e-17
-2.83198e-17
-2.85579e-17
-2.84881e-17
-2.85634e-17
-2.85567e-17
-2.83514e-17
-2.84382e-17
-2.80941e-17
-2.88071e-17
-2.8515e-17
-2.82397e-17
-2.86573e-17
-2.85855e-17
-2.85964e-17
-2.86341e-17
-2.81223e-17
-2.81346e-17
-2.80835e-17
-2.87242e-17
-2.85021e-17
-2.85558e-17
-2.84206e-17
-2.85654e-17
-2.87383e-17
-2.85597e-17
-2.85365e-17
-2.85667e-17
-2.84819e-17
-2.85418e-17
-2.85755e-17
-2.8489e-17
-2.86623e-17
-2.87674e-17
-2.85976e-17
-2.85196e-17
-2.83341e-17
-2.86077e-17
-2.83539e-17
-2.85398e-17
-2.87091e-17
-2.85785e-17
-2.83935e-17
-2.86667e-17
-2.85072e-17
-2.82526e-17
-2.83497e-17
-2.84684e-17
-2.85126e-17
-2.83768e-17
-2.84544e-17
-2.82219e-17
-2.84793e-17
-2.86819e-17
-2.84689e-17
-2.82728e-17
-2.8583e-17
-2.85692e-17
-2.85746e-17
-2.84384e-17
-2.85549e-17
-2.84643e-17
-2.84532e-17
-2.85598e-17
-2.84844e-17
-2.84114e-17
-2.85192e-17
-2.84308e-17
-2.82018e-17
-2.8601e-17
-2.82524e-17
-2.80023e-17
-2.88339e-17
-2.84088e-17
-2.82772e-17
-2.83943e-17
-2.84007e-17
-2.8391e-17
-2.84232e-17
-2.83761e-17
-2.8413e-17
-2.83929e-17
-2.83157e-17
-2.85354e-17
-2.83835e-17
-2.81833e-17
-2.86556e-17
-2.81628e-17
-2.82929e-17
-2.85711e-17
-2.83458e-17
-2.83208e-17
-2.83923e-17
-2.83817e-17
-2.83342e-17
-2.83793e-17
-2.83984e-17
-2.83721e-17
-2.83887e-17
-2.83701e-17
-2.83498e-17
-2.86493e-17
-2.86027e-17
-2.8927e-17
-2.86544e-17
-2.86534e-17
-2.8697e-17
-2.88024e-17
-2.85641e-17
-2.83254e-17
-2.84991e-17
-2.86147e-17
-2.85025e-17
-2.87296e-17
-2.8399e-17
-2.83171e-17
-2.85114e-17
-2.85553e-17
-2.84298e-17
-2.82946e-17
-2.84667e-17
-2.8472e-17
-2.82699e-17
-2.83999e-17
-2.83193e-17
-2.80486e-17
-2.85963e-17
-2.88027e-17
-2.87459e-17
-2.85318e-17
-2.84751e-17
-2.84772e-17
-2.8646e-17
-2.88278e-17
-2.86109e-17
-2.85319e-17
-2.84078e-17
-2.82482e-17
-2.81077e-17
-2.8199e-17
-2.83629e-17
-2.83704e-17
-2.83572e-17
-2.85612e-17
-2.84267e-17
-2.89616e-17
-2.87185e-17
-2.87832e-17
-2.86192e-17
-2.87301e-17
-2.85833e-17
-2.81825e-17
-2.80411e-17
-2.85446e-17
-2.87211e-17
-2.84285e-17
-2.84787e-17
-2.84977e-17
-2.84793e-17
-2.85289e-17
-2.85045e-17
-2.84848e-17
-2.86699e-17
-2.87213e-17
-2.85014e-17
-2.84662e-17
-2.84444e-17
-2.83795e-17
-2.85186e-17
-2.85237e-17
-2.83757e-17
-2.83869e-17
-2.83622e-17
-2.83801e-17
-2.82763e-17
-2.80264e-17
-2.84602e-17
-2.84065e-17
-2.81902e-17
-2.83873e-17
-2.87118e-17
-2.84309e-17
-2.83596e-17
-2.83345e-17
-2.83696e-17
-2.85426e-17
-2.8798e-17
-2.87374e-17
-2.88879e-17
-2.83916e-17
-2.85397e-17
-2.86396e-17
-2.8529e-17
-2.83443e-17
-2.86561e-17
-2.86203e-17
-2.86433e-17
-2.85158e-17
-2.82826e-17
-2.85233e-17
-2.80598e-17
-2.85711e-17
-2.86753e-17
-2.85839e-17
-2.84745e-17
-2.84611e-17
-2.84782e-17
-2.84614e-17
-2.86872e-17
-2.86605e-17
-2.84346e-17
-2.82142e-17
-2.83239e-17
-2.84369e-17
-2.84275e-17
-2.84679e-17
-2.86264e-17
-2.8443e-17
-2.841e-17
-2.84179e-17
-2.8434e-17
-2.85667e-17
-2.8468e-17
-2.84508e-17
-2.84459e-17
-2.83804e-17
-2.83965e-17
-2.83416e-17
-2.86223e-17
-2.87153e-17
-2.89104e-17
-2.85761e-17
-2.8603e-17
-2.88109e-17
-2.83495e-17
-2.85403e-17
-2.8609e-17
-2.85796e-17
-2.8594e-17
-2.89741e-17
-2.8362e-17
-2.84341e-17
-2.83845e-17
-2.82794e-17
-2.83322e-17
-2.88066e-17
-2.85381e-17
-2.84291e-17
-2.85832e-17
-2.84213e-17
-2.84008e-17
-2.84484e-17
-2.86102e-17
-2.83993e-17
-2.82036e-17
-2.8476e-17
-2.83951e-17
-2.84639e-17
-2.85321e-17
-2.85786e-17
-2.82918e-17
-2.81959e-17
-2.8127e-17
-2.80689e-17
-2.7829e-17
-2.82041e-17
-2.83771e-17
-2.84444e-17
-2.8356e-17
-2.84277e-17
-2.86714e-17
-2.88875e-17
-2.8502e-17
-2.8534e-17
-2.83456e-17
-2.85762e-17
-2.85732e-17
-2.87622e-17
-2.85809e-17
-2.86493e-17
-2.83636e-17
-2.86562e-17
-2.83989e-17
-2.8506e-17
-2.87839e-17
-2.8724e-17
-2.84469e-17
-2.84969e-17
-2.84625e-17
-2.83988e-17
-2.84461e-17
-2.85435e-17
-2.85734e-17
-2.83605e-17
-2.83032e-17
-2.84854e-17
-2.84594e-17
-2.83683e-17
-2.84229e-17
-2.8472e-17
-2.85561e-17
-2.84047e-17
-2.81701e-17
-2.82719e-17
-2.82533e-17
-2.83898e-17
-2.86143e-17
-2.84876e-17
-2.84902e-17
-2.8446e-17
-2.8374e-17
-2.82128e-17
-2.82844e-17
-2.86078e-17
-2.88323e-17
-2.85819e-17
-2.84876e-17
-2.85242e-17
-2.87319e-17
-2.83438e-17
-2.83763e-17
-2.86339e-17
-2.8064e-17
-2.84809e-17
-2.8711e-17
-2.86274e-17
-2.89882e-17
-2.86027e-17
-2.83945e-17
-2.84179e-17
-2.84745e-17
-2.83889e-17
-2.82632e-17
-2.83215e-17
-2.84059e-17
-2.85829e-17
-2.85213e-17
-2.84388e-17
-2.83382e-17
-2.83007e-17
-2.81961e-17
-2.84303e-17
-2.83709e-17
-2.81287e-17
-2.81196e-17
-2.82257e-17
-2.8324e-17
-2.82739e-17
-2.80745e-17
-2.8097e-17
-2.82285e-17
-2.84224e-17
-2.83539e-17
-2.85147e-17
-2.8477e-17
-2.85552e-17
-2.86343e-17
-2.85939e-17
-2.85995e-17
-2.87254e-17
-2.86243e-17
-2.82801e-17
-2.86496e-17
-2.88355e-17
-2.83302e-17
-2.84663e-17
-2.85705e-17
-2.87744e-17
-2.89877e-17
-2.85317e-17
-2.81479e-17
-2.83176e-17
-2.87043e-17
-2.89703e-17
-2.84446e-17
-2.82226e-17
-2.84722e-17
-2.82253e-17
-2.81056e-17
-2.82562e-17
-2.82288e-17
-2.79596e-17
-2.80791e-17
-2.8448e-17
-2.85918e-17
-2.83567e-17
-2.85415e-17
-2.84149e-17
-2.84007e-17
-2.83862e-17
-2.84123e-17
-2.8463e-17
-2.84276e-17
-2.84156e-17
-2.85071e-17
-2.87492e-17
-2.8504e-17
-2.82711e-17
-2.85329e-17
-2.86559e-17
-2.85411e-17
-2.85852e-17
-2.87953e-17
-2.83688e-17
-2.85128e-17
-2.85113e-17
-2.85505e-17
-2.87091e-17
-2.87181e-17
-2.85004e-17
-2.85251e-17
-2.87556e-17
-2.88254e-17
-2.85412e-17
-2.85847e-17
-2.88566e-17
-2.84337e-17
-2.81314e-17
-2.82589e-17
-2.82049e-17
-2.80243e-17
-2.82421e-17
-2.8295e-17
-2.82816e-17
-2.81781e-17
-2.82754e-17
-2.83122e-17
-2.82549e-17
-2.81541e-17
-2.82514e-17
-2.832e-17
-2.83458e-17
-2.83659e-17
-2.84491e-17
-2.82015e-17
-2.81874e-17
-2.82154e-17
-2.87979e-17
-2.85097e-17
-2.81764e-17
-2.85979e-17
-2.89475e-17
-2.86206e-17
-2.84165e-17
-2.87691e-17
-2.84966e-17
-2.84803e-17
-2.85246e-17
-2.86362e-17
-2.85796e-17
-2.86722e-17
-2.84207e-17
-2.86329e-17
-2.86189e-17
-2.83706e-17
-2.86268e-17
-2.89162e-17
-2.8863e-17
-2.8482e-17
-2.84492e-17
-2.80673e-17
-2.78638e-17
-2.81844e-17
-2.82438e-17
-2.81373e-17
-2.82537e-17
-2.82934e-17
-2.82506e-17
-2.81306e-17
-2.81017e-17
-2.82083e-17
-2.81899e-17
-2.84724e-17
-2.83612e-17
-2.83712e-17
-2.85609e-17
-2.83979e-17
-2.84587e-17
-2.8381e-17
-2.83356e-17
-2.84465e-17
-2.82621e-17
-2.87812e-17
-2.87263e-17
-2.8716e-17
-2.85945e-17
-2.87384e-17
-2.84095e-17
-2.87156e-17
-2.85491e-17
-2.84628e-17
-2.84781e-17
-2.86004e-17
-2.83828e-17
-2.83801e-17
-2.83857e-17
-2.83311e-17
-2.83709e-17
-2.81681e-17
-2.83044e-17
-2.8305e-17
-2.83041e-17
-2.81738e-17
-2.82988e-17
-2.82734e-17
-2.82928e-17
-2.82858e-17
-2.82994e-17
-2.83141e-17
-2.82573e-17
-2.82594e-17
-2.8276e-17
-2.82612e-17
-2.82653e-17
-2.83056e-17
-2.84787e-17
-2.87848e-17
-2.86386e-17
-2.85255e-17
-2.83319e-17
-2.81903e-17
-2.84476e-17
-2.85511e-17
-2.85323e-17
-2.87122e-17
-2.85487e-17
-2.85687e-17
-2.85536e-17
-2.84741e-17
-2.85666e-17
-2.90476e-17
-2.8751e-17
-2.85035e-17
-2.8416e-17
-2.84118e-17
-2.85661e-17
-2.82882e-17
-2.84634e-17
-2.81453e-17
-2.80789e-17
-2.82417e-17
-2.8285e-17
-2.82168e-17
-2.84549e-17
-2.84553e-17
-2.86137e-17
-2.82298e-17
-2.81276e-17
-2.82286e-17
-2.82533e-17
-2.82137e-17
-2.80776e-17
-2.82699e-17
-2.82347e-17
-2.82314e-17
-2.81905e-17
-2.80798e-17
-2.8294e-17
-2.83947e-17
-2.82399e-17
-2.77313e-17
-2.78349e-17
-2.82312e-17
-2.84756e-17
-2.85167e-17
-2.85505e-17
-2.83261e-17
-2.83415e-17
-2.85044e-17
-2.85475e-17
-2.83772e-17
-2.85323e-17
-2.87851e-17
-2.85748e-17
-2.84185e-17
-2.82594e-17
-2.83598e-17
-2.84326e-17
-2.8468e-17
-2.85247e-17
-2.82511e-17
-2.82839e-17
-2.82011e-17
-2.8317e-17
-2.83509e-17
-2.83359e-17
-2.83244e-17
-2.83287e-17
-2.82857e-17
-2.82335e-17
-2.81547e-17
-2.8244e-17
-2.82953e-17
-2.83809e-17
-2.82935e-17
-2.8269e-17
-2.84222e-17
-2.81456e-17
-2.81116e-17
-2.81239e-17
-2.80915e-17
-2.85666e-17
-2.88158e-17
-2.8566e-17
-2.85354e-17
-2.83883e-17
-2.84752e-17
-2.84288e-17
-2.83031e-17
-2.84087e-17
-2.85372e-17
-2.8699e-17
-2.88391e-17
-2.86787e-17
-2.83715e-17
-2.84957e-17
-2.84693e-17
-2.82334e-17
-2.81239e-17
-2.81806e-17
-2.86384e-17
-2.89114e-17
-2.8734e-17
-2.86039e-17
-2.8506e-17
-2.83233e-17
-2.83762e-17
-2.84793e-17
-2.83496e-17
-2.82741e-17
-2.82064e-17
-2.80254e-17
-2.81968e-17
-2.83689e-17
-2.8216e-17
-2.79901e-17
-2.80756e-17
-2.80237e-17
-2.81285e-17
-2.81518e-17
-2.81015e-17
-2.80193e-17
-2.81098e-17
-2.81616e-17
-2.82245e-17
-2.83498e-17
-2.8396e-17
-2.82268e-17
-2.8093e-17
-2.81844e-17
-2.85177e-17
-2.84617e-17
-2.84096e-17
-2.82588e-17
-2.87534e-17
-2.91715e-17
-2.91621e-17
-2.86417e-17
-2.86349e-17
-2.85181e-17
-2.84659e-17
-2.82561e-17
-2.83609e-17
-2.843e-17
-2.85748e-17
-2.85934e-17
-2.84433e-17
-2.84632e-17
-2.82585e-17
-2.78964e-17
-2.80768e-17
-2.79325e-17
-2.8238e-17
-2.83897e-17
-2.8132e-17
-2.80663e-17
-2.79094e-17
-2.8289e-17
-2.81053e-17
-2.81116e-17
-2.82578e-17
-2.84167e-17
-2.84378e-17
-2.82958e-17
-2.82236e-17
-2.81832e-17
-2.81869e-17
-2.8204e-17
-2.8176e-17
-2.81292e-17
-2.80868e-17
-2.82281e-17
-2.83693e-17
-2.84695e-17
-2.86979e-17
-2.84968e-17
-2.84969e-17
-2.8442e-17
-2.85503e-17
-2.86414e-17
-2.85925e-17
-2.82833e-17
-2.86557e-17
-2.85852e-17
-2.86543e-17
-2.85016e-17
-2.84605e-17
-2.85552e-17
-2.84028e-17
-2.8313e-17
-2.81402e-17
-2.80893e-17
-2.81259e-17
-2.82204e-17
-2.82466e-17
-2.82373e-17
-2.82254e-17
-2.80424e-17
-2.80336e-17
-2.81324e-17
-2.82065e-17
-2.82622e-17
-2.82767e-17
-2.7857e-17
-2.79268e-17
-2.76966e-17
-2.76887e-17
-2.80249e-17
-2.81371e-17
-2.82108e-17
-2.83091e-17
-2.8557e-17
-2.83109e-17
-2.82218e-17
-2.84372e-17
-2.85124e-17
-2.84377e-17
-2.84135e-17
-2.82685e-17
-2.85335e-17
-2.84421e-17
-2.86365e-17
-2.85016e-17
-2.85914e-17
-2.85316e-17
-2.84197e-17
-2.80662e-17
-2.84787e-17
-2.85926e-17
-2.82999e-17
-2.85144e-17
-2.84421e-17
-2.83971e-17
-2.83533e-17
-2.81872e-17
-2.83011e-17
-2.83364e-17
-2.83036e-17
-2.83136e-17
-2.83417e-17
-2.84724e-17
-2.8454e-17
-2.82208e-17
-2.80935e-17
-2.81577e-17
-2.81951e-17
-2.82098e-17
-2.82299e-17
-2.82334e-17
-2.82981e-17
-2.85722e-17
-2.80694e-17
-2.80443e-17
-2.78482e-17
-2.80526e-17
-2.82092e-17
-2.81852e-17
-2.81615e-17
-2.81088e-17
-2.79226e-17
-2.83819e-17
-2.81598e-17
-2.82376e-17
-2.83341e-17
-2.80863e-17
-2.82095e-17
-2.84342e-17
-2.84122e-17
-2.83923e-17
-2.85065e-17
-2.85367e-17
-2.86065e-17
-2.85158e-17
-2.8418e-17
-2.79192e-17
-2.79837e-17
-2.8307e-17
-2.82783e-17
-2.84992e-17
-2.82908e-17
-2.83759e-17
-2.85202e-17
-2.84024e-17
-2.84515e-17
-2.8338e-17
-2.82611e-17
-2.80824e-17
-2.80524e-17
-2.82393e-17
-2.81064e-17
-2.81778e-17
-2.81468e-17
-2.81231e-17
-2.80097e-17
-2.77966e-17
-2.80797e-17
-2.81433e-17
-2.81251e-17
-2.81198e-17
-2.81777e-17
-2.82285e-17
-2.8389e-17
-2.86662e-17
-2.8346e-17
-2.82253e-17
-2.81535e-17
-2.78806e-17
-2.81775e-17
-2.84129e-17
-2.8359e-17
-2.8059e-17
-2.85256e-17
-2.84875e-17
-2.84592e-17
-2.84113e-17
-2.84319e-17
-2.85521e-17
-2.86796e-17
-2.85298e-17
-2.84753e-17
-2.84102e-17
-2.85695e-17
-2.8579e-17
-2.84518e-17
-2.85765e-17
-2.84942e-17
-2.83565e-17
-2.82615e-17
-2.81245e-17
-2.82447e-17
-2.8317e-17
-2.84864e-17
-2.85646e-17
-2.86375e-17
-2.84453e-17
-2.87194e-17
-2.86668e-17
-2.8294e-17
-2.81885e-17
-2.82253e-17
-2.83085e-17
-2.83952e-17
-2.82521e-17
-2.80266e-17
-2.77587e-17
-2.81769e-17
-2.85681e-17
-2.84208e-17
-2.85644e-17
-2.83045e-17
-2.81889e-17
-2.81421e-17
-2.80196e-17
-2.81648e-17
-2.82686e-17
-2.82767e-17
-2.82779e-17
-2.82551e-17
-2.86048e-17
-2.86781e-17
-2.86675e-17
-2.84162e-17
-2.82332e-17
-2.84849e-17
-2.86933e-17
-2.85006e-17
-2.84026e-17
-2.84575e-17
-2.85796e-17
-2.83081e-17
-2.83468e-17
-2.83536e-17
-2.82423e-17
-2.8223e-17
-2.8047e-17
-2.80278e-17
-2.80737e-17
-2.80285e-17
-2.80653e-17
-2.82157e-17
-2.82731e-17
-2.82725e-17
-2.82577e-17
-2.82485e-17
-2.82096e-17
-2.81744e-17
-2.82937e-17
-2.86612e-17
-2.8788e-17
-2.87036e-17
-2.8213e-17
-2.78907e-17
-2.842e-17
-2.86757e-17
-2.83905e-17
-2.84282e-17
-2.82084e-17
-2.79578e-17
-2.83211e-17
-2.86562e-17
-2.83239e-17
-2.83036e-17
-2.82976e-17
-2.82958e-17
-2.81709e-17
-2.85481e-17
-2.84527e-17
-2.83991e-17
-2.82906e-17
-2.83527e-17
-2.84447e-17
-2.87152e-17
-2.8636e-17
-2.82572e-17
-2.84089e-17
-2.84488e-17
-2.83651e-17
-2.83484e-17
-2.83921e-17
-2.84993e-17
-2.834e-17
-2.82918e-17
-2.84013e-17
-2.84247e-17
-2.83845e-17
-2.8132e-17
-2.82116e-17
-2.83199e-17
-2.84383e-17
-2.78971e-17
-2.81734e-17
-2.83976e-17
-2.78454e-17
-2.81148e-17
-2.83367e-17
-2.78814e-17
-2.80471e-17
-2.81205e-17
-2.81095e-17
-2.81151e-17
-2.80262e-17
-2.77506e-17
-2.80115e-17
-2.81551e-17
-2.81615e-17
-2.81761e-17
-2.81067e-17
-2.7898e-17
-2.81051e-17
-2.81258e-17
-2.8251e-17
-2.81967e-17
-2.83934e-17
-2.83837e-17
-2.82727e-17
-2.78795e-17
-2.82503e-17
-2.81915e-17
-2.86315e-17
-2.86609e-17
-2.84561e-17
-2.85545e-17
-2.85954e-17
-2.84378e-17
-2.83199e-17
-2.83124e-17
-2.83193e-17
-2.82402e-17
-2.81884e-17
-2.83406e-17
-2.8287e-17
-2.8254e-17
-2.81604e-17
-2.82043e-17
-2.82662e-17
-2.78312e-17
-2.7695e-17
-2.81421e-17
-2.85436e-17
-2.82773e-17
-2.81598e-17
-2.81349e-17
-2.80488e-17
-2.81779e-17
-2.83115e-17
-2.8246e-17
-2.82626e-17
-2.83839e-17
-2.86519e-17
-2.83975e-17
-2.82661e-17
-2.81485e-17
-2.80063e-17
-2.85545e-17
-2.84002e-17
-2.82837e-17
-2.82755e-17
-2.83076e-17
-2.85163e-17
-2.8374e-17
-2.83331e-17
-2.83143e-17
-2.81152e-17
-2.83273e-17
-2.82189e-17
-2.85638e-17
-2.85344e-17
-2.85522e-17
-2.82668e-17
-2.83656e-17
-2.84612e-17
-2.81847e-17
-2.82699e-17
-2.8307e-17
-2.80899e-17
-2.81209e-17
-2.80525e-17
-2.82981e-17
-2.85097e-17
-2.78326e-17
-2.78804e-17
-2.86425e-17
-2.87657e-17
-2.86384e-17
-2.82889e-17
-2.83129e-17
-2.84205e-17
-2.78379e-17
-2.8181e-17
-2.8554e-17
-2.81932e-17
-2.78199e-17
-2.79237e-17
-2.77824e-17
-2.80768e-17
-2.83493e-17
-2.85837e-17
-2.82966e-17
-2.83131e-17
-2.86714e-17
-2.87896e-17
-2.85624e-17
-2.79409e-17
-2.79939e-17
-2.82123e-17
-2.827e-17
-2.83905e-17
-2.8272e-17
-2.81798e-17
-2.82917e-17
-2.83304e-17
-2.85866e-17
-2.85341e-17
-2.84043e-17
-2.85898e-17
-2.8567e-17
-2.82909e-17
-2.81381e-17
-2.8146e-17
-2.82126e-17
-2.82502e-17
-2.81644e-17
-2.78352e-17
-2.81244e-17
-2.82145e-17
-2.83756e-17
-2.82416e-17
-2.81622e-17
-2.8259e-17
-2.86123e-17
-2.84247e-17
-2.84846e-17
-2.82411e-17
-2.81574e-17
-2.80371e-17
-2.77625e-17
-2.80586e-17
-2.82058e-17
-2.82905e-17
-2.84247e-17
-2.80617e-17
-2.84013e-17
-2.80449e-17
-2.84261e-17
-2.83244e-17
-2.8239e-17
-2.82403e-17
-2.8263e-17
-2.8274e-17
-2.82707e-17
-2.82446e-17
-2.82516e-17
-2.82663e-17
-2.8278e-17
-2.83403e-17
-2.81526e-17
-2.84425e-17
-2.81459e-17
-2.81853e-17
-2.86018e-17
-2.84788e-17
-2.81284e-17
-2.83274e-17
-2.83349e-17
-2.81144e-17
-2.82303e-17
-2.82382e-17
-2.81076e-17
-2.83235e-17
-2.84171e-17
-2.82659e-17
-2.83422e-17
-2.81508e-17
-2.81129e-17
-2.78318e-17
-2.79946e-17
-2.79727e-17
-2.85926e-17
-2.8326e-17
-2.82061e-17
-2.81731e-17
-2.81522e-17
-2.81782e-17
-2.82775e-17
-2.86112e-17
-2.8617e-17
-2.82442e-17
-2.8185e-17
-2.82864e-17
-2.86468e-17
-2.85562e-17
-2.7973e-17
-2.81066e-17
-2.81945e-17
-2.81819e-17
-2.81315e-17
-2.80544e-17
-2.81753e-17
-2.82407e-17
-2.82533e-17
-2.82482e-17
-2.8277e-17
-2.82899e-17
-2.8543e-17
-2.83351e-17
-2.83633e-17
-2.83295e-17
-2.83551e-17
-2.85306e-17
-2.83244e-17
-2.81104e-17
-2.82692e-17
-2.83739e-17
-2.81766e-17
-2.83033e-17
-2.84304e-17
-2.83592e-17
-2.86561e-17
-2.85084e-17
-2.82544e-17
-2.80821e-17
-2.81609e-17
-2.81612e-17
-2.80612e-17
-2.77905e-17
-2.80498e-17
-2.82187e-17
-2.81902e-17
-2.81695e-17
-2.80623e-17
-2.77692e-17
-2.80083e-17
-2.80875e-17
-2.82303e-17
-2.84518e-17
-2.79416e-17
-2.83293e-17
-2.8222e-17
-2.81606e-17
-2.81804e-17
-2.81692e-17
-2.81936e-17
-2.82262e-17
-2.82411e-17
-2.82118e-17
-2.81881e-17
-2.81308e-17
-2.79734e-17
-2.81949e-17
-2.82715e-17
-2.82673e-17
-2.82555e-17
-2.86026e-17
-2.84707e-17
-2.83235e-17
-2.85118e-17
-2.84523e-17
-2.83812e-17
-2.83214e-17
-2.84275e-17
-2.82664e-17
-2.81202e-17
-2.82383e-17
-2.83708e-17
-2.82549e-17
-2.81886e-17
-2.81577e-17
-2.83165e-17
-2.82199e-17
-2.82154e-17
-2.82775e-17
-2.78845e-17
-2.79998e-17
-2.78311e-17
-2.82208e-17
-2.8531e-17
-2.8373e-17
-2.86118e-17
-2.86402e-17
-2.83465e-17
-2.8484e-17
-2.82537e-17
-2.81453e-17
-2.82469e-17
-2.84752e-17
-2.82391e-17
-2.8038e-17
-2.77401e-17
-2.79919e-17
-2.81315e-17
-2.82246e-17
-2.83833e-17
-2.86312e-17
-2.82493e-17
-2.78812e-17
-2.81274e-17
-2.82449e-17
-2.83242e-17
-2.83803e-17
-2.82923e-17
-2.82838e-17
-2.829e-17
-2.84266e-17
-2.87028e-17
-2.81517e-17
-2.85245e-17
-2.84291e-17
-2.84487e-17
-2.83026e-17
-2.83055e-17
-2.82537e-17
-2.82061e-17
-2.82244e-17
-2.81926e-17
-2.80088e-17
-2.79644e-17
-2.80981e-17
-2.80441e-17
-2.80084e-17
-2.81431e-17
-2.81978e-17
-2.80956e-17
-2.8005e-17
-2.81894e-17
-2.86048e-17
-2.84507e-17
-2.82093e-17
-2.8159e-17
-2.8161e-17
-2.81404e-17
-2.82372e-17
-2.84297e-17
-2.82025e-17
-2.81151e-17
-2.81333e-17
-2.82242e-17
-2.85367e-17
-2.85441e-17
-2.82026e-17
-2.79508e-17
-2.81124e-17
-2.82157e-17
-2.82503e-17
-2.81885e-17
-2.81158e-17
-2.82087e-17
-2.8269e-17
-2.82835e-17
-2.8289e-17
-2.82779e-17
-2.82551e-17
-2.8265e-17
-2.83008e-17
-2.81734e-17
-2.80732e-17
-2.84797e-17
-2.84931e-17
-2.82981e-17
-2.82872e-17
-2.82879e-17
-2.82901e-17
-2.82138e-17
-2.81668e-17
-2.80691e-17
-2.81142e-17
-2.79665e-17
-2.80069e-17
-2.81735e-17
-2.82837e-17
-2.80985e-17
-2.80649e-17
-2.80019e-17
-2.79677e-17
-2.79096e-17
-2.84738e-17
-2.8226e-17
-2.80278e-17
-2.77939e-17
-2.80548e-17
-2.82677e-17
-2.8613e-17
-2.87312e-17
-2.87315e-17
-2.87366e-17
-2.87305e-17
-2.85083e-17
-2.78813e-17
-2.80335e-17
-2.81509e-17
-2.81732e-17
-2.8239e-17
-2.83774e-17
-2.85912e-17
-2.82119e-17
-2.78873e-17
-2.81511e-17
-2.82992e-17
-2.82769e-17
-2.82348e-17
-2.82742e-17
-2.82874e-17
-2.82876e-17
-2.83459e-17
-2.82579e-17
-2.82213e-17
-2.83548e-17
-2.83208e-17
-2.80901e-17
-2.83633e-17
-2.83187e-17
-2.84131e-17
-2.81807e-17
-2.80234e-17
-2.81873e-17
-2.81808e-17
-2.80717e-17
-2.82858e-17
-2.81489e-17
-2.79992e-17
-2.81925e-17
-2.77891e-17
-2.79165e-17
-2.77837e-17
-2.84614e-17
-2.8508e-17
-2.78559e-17
-2.7985e-17
-2.80624e-17
-2.81148e-17
-2.81624e-17
-2.81743e-17
-2.81648e-17
-2.81441e-17
-2.81526e-17
-2.81512e-17
-2.80856e-17
-2.79282e-17
-2.7728e-17
-2.79975e-17
-2.81178e-17
-2.8171e-17
-2.81485e-17
-2.80394e-17
-2.7818e-17
-2.80588e-17
-2.82147e-17
-2.83421e-17
-2.84694e-17
-2.83334e-17
-2.82886e-17
-2.82907e-17
-2.8297e-17
-2.84905e-17
-2.83093e-17
-2.80778e-17
-2.82539e-17
-2.83107e-17
-2.82266e-17
-2.82644e-17
-2.8199e-17
-2.8012e-17
-2.80242e-17
-2.80587e-17
-2.83854e-17
-2.82274e-17
-2.79949e-17
-2.79737e-17
-2.80178e-17
-2.78104e-17
-2.82476e-17
-2.81023e-17
-2.79582e-17
-2.80367e-17
-2.8164e-17
-2.81691e-17
-2.81065e-17
-2.81185e-17
-2.81457e-17
-2.81809e-17
-2.82863e-17
-2.85217e-17
-2.82695e-17
-2.81932e-17
-2.81884e-17
-2.8139e-17
-2.80445e-17
-2.78499e-17
-2.81984e-17
-2.86231e-17
-2.84931e-17
-2.86111e-17
-2.83652e-17
-2.83425e-17
-2.85041e-17
-2.79835e-17
-2.80169e-17
-2.79621e-17
-2.82059e-17
-2.82537e-17
-2.82459e-17
-2.82777e-17
-2.82892e-17
-2.81684e-17
-2.82411e-17
-2.82215e-17
-2.81958e-17
-2.84702e-17
-2.82941e-17
-2.8244e-17
-2.81365e-17
-2.77944e-17
-2.8126e-17
-2.81335e-17
-2.82343e-17
-2.83987e-17
-2.8203e-17
-2.81405e-17
-2.81877e-17
-2.82595e-17
-2.8203e-17
-2.81529e-17
-2.81026e-17
-2.79901e-17
-2.80973e-17
-2.81339e-17
-2.81518e-17
-2.81952e-17
-2.81933e-17
-2.81751e-17
-2.8302e-17
-2.85152e-17
-2.82517e-17
-2.82627e-17
-2.85585e-17
-2.83514e-17
-2.83071e-17
-2.85231e-17
-2.83289e-17
-2.82671e-17
-2.82867e-17
-2.8299e-17
-2.82779e-17
-2.82754e-17
-2.82707e-17
-2.82522e-17
-2.82543e-17
-2.82863e-17
-2.83064e-17
-2.82989e-17
-2.829e-17
-2.82842e-17
-2.82906e-17
-2.82418e-17
-2.81187e-17
-2.8253e-17
-2.82666e-17
-2.84463e-17
-2.82957e-17
-2.82263e-17
-2.81437e-17
-2.82414e-17
-2.83243e-17
-2.77885e-17
-2.80266e-17
-2.86414e-17
-2.83061e-17
-2.81748e-17
-2.82484e-17
-2.80485e-17
-2.81443e-17
-2.82316e-17
-2.8339e-17
-2.8333e-17
-2.82049e-17
-2.81559e-17
-2.82227e-17
-2.85269e-17
-2.86499e-17
-2.8378e-17
-2.85451e-17
-2.82855e-17
-2.80063e-17
-2.78304e-17
-2.84888e-17
-2.85797e-17
-2.81518e-17
-2.76681e-17
-2.7665e-17
-2.79853e-17
-2.81393e-17
-2.82241e-17
-2.82297e-17
-2.82156e-17
-2.81427e-17
-2.78067e-17
-2.78461e-17
-2.81837e-17
-2.82905e-17
-2.82924e-17
-2.82921e-17
-2.82811e-17
-2.82805e-17
-2.83792e-17
-2.82974e-17
-2.82569e-17
-2.80694e-17
-2.82964e-17
-2.84759e-17
-2.82675e-17
-2.82514e-17
-2.84548e-17
-2.82461e-17
-2.79692e-17
-2.81488e-17
-2.82897e-17
-2.83256e-17
-2.80262e-17
-2.81355e-17
-2.81653e-17
-2.82649e-17
-2.85442e-17
-2.82557e-17
-2.81589e-17
-2.8078e-17
-2.79177e-17
-2.80566e-17
-2.79671e-17
-2.8392e-17
-2.81163e-17
-2.85749e-17
-2.85212e-17
-2.78404e-17
-2.79168e-17
-2.78898e-17
-2.82249e-17
-2.85647e-17
-2.83163e-17
-2.82525e-17
-2.83123e-17
-2.84563e-17
-2.86842e-17
-2.82857e-17
-2.79181e-17
-2.81785e-17
-2.83042e-17
-2.83484e-17
-2.82693e-17
-2.81994e-17
-2.82692e-17
-2.82844e-17
-2.82899e-17
-2.8283e-17
-2.78175e-17
-2.84906e-17
-2.82807e-17
-2.81817e-17
-2.82827e-17
-2.84455e-17
-2.82248e-17
-2.82306e-17
-2.82536e-17
-2.81695e-17
-2.79955e-17
-2.79926e-17
-2.81401e-17
-2.81685e-17
-2.81614e-17
-2.83159e-17
-2.83312e-17
-2.81655e-17
-2.8098e-17
-2.80878e-17
-2.82672e-17
-2.81835e-17
-2.8213e-17
-2.84754e-17
-2.80375e-17
-2.81024e-17
-2.8119e-17
-2.81098e-17
-2.81741e-17
-2.80766e-17
-2.79082e-17
-2.84425e-17
-2.83266e-17
-2.82354e-17
-2.82256e-17
-2.8227e-17
-2.82256e-17
-2.81956e-17
-2.81125e-17
-2.79818e-17
-2.83508e-17
-2.84205e-17
-2.85288e-17
-2.80339e-17
-2.81078e-17
-2.82648e-17
-2.83018e-17
-2.82969e-17
-2.82974e-17
-2.82973e-17
-2.81084e-17
-2.85264e-17
-2.82783e-17
-2.82345e-17
-2.82246e-17
-2.82212e-17
-2.8093e-17
-2.82836e-17
-2.82119e-17
-2.81863e-17
-2.81289e-17
-2.81384e-17
-2.8036e-17
-2.8151e-17
-2.80925e-17
-2.81781e-17
-2.81177e-17
-2.79684e-17
-2.81008e-17
-2.815e-17
-2.81639e-17
-2.8234e-17
-2.81314e-17
-2.79744e-17
-2.787e-17
-2.80942e-17
-2.83072e-17
-2.8189e-17
-2.78059e-17
-2.80472e-17
-2.81795e-17
-2.82314e-17
-2.82618e-17
-2.82298e-17
-2.82244e-17
-2.82132e-17
-2.81499e-17
-2.80921e-17
-2.78803e-17
-2.80821e-17
-2.83509e-17
-2.86899e-17
-2.84532e-17
-2.81464e-17
-2.82322e-17
-2.82491e-17
-2.83043e-17
-2.82956e-17
-2.82946e-17
-2.82991e-17
-2.8122e-17
-2.83047e-17
-2.82165e-17
-2.82255e-17
-2.82711e-17
-2.81933e-17
-2.81524e-17
-2.81049e-17
-2.81858e-17
-2.81983e-17
-2.80291e-17
-2.8197e-17
-2.85132e-17
-2.82733e-17
-2.83181e-17
-2.83408e-17
-2.80883e-17
-2.817e-17
-2.82996e-17
-2.81927e-17
-2.81133e-17
-2.79651e-17
-2.80405e-17
-2.81077e-17
-2.8079e-17
-2.81166e-17
-2.81753e-17
-2.8211e-17
-2.825e-17
-2.85132e-17
-2.83227e-17
-2.83663e-17
-2.88006e-17
-2.85938e-17
-2.86383e-17
-2.83319e-17
-2.81622e-17
-2.79746e-17
-2.84978e-17
-2.85093e-17
-2.86214e-17
-2.83041e-17
-2.81585e-17
-2.82398e-17
-2.83158e-17
-2.82613e-17
-2.82839e-17
-2.82954e-17
-2.83024e-17
-2.83073e-17
-2.83995e-17
-2.83018e-17
-2.83062e-17
-2.83075e-17
-2.84885e-17
-2.80991e-17
-2.80393e-17
-2.83023e-17
-2.8258e-17
-2.84456e-17
-2.82963e-17
-2.77952e-17
-2.80979e-17
-2.78884e-17
-2.76659e-17
-2.80478e-17
-2.8177e-17
-2.83424e-17
-2.82354e-17
-2.83314e-17
-2.83704e-17
-2.80819e-17
-2.79081e-17
-2.80585e-17
-2.80576e-17
-2.80334e-17
-2.81442e-17
-2.82832e-17
-2.83207e-17
-2.85002e-17
-2.82633e-17
-2.8227e-17
-2.79768e-17
-2.78631e-17
-2.79592e-17
-2.80888e-17
-2.81567e-17
-2.80762e-17
-2.80216e-17
-2.81847e-17
-2.82949e-17
-2.81858e-17
-2.81199e-17
-2.8256e-17
-2.83398e-17
-2.8307e-17
-2.83071e-17
-2.83113e-17
-2.83179e-17
-2.8309e-17
-2.81306e-17
-2.82767e-17
-2.84945e-17
-2.85771e-17
-2.85112e-17
-2.82176e-17
-2.80541e-17
-2.81222e-17
-2.82514e-17
-2.84197e-17
-2.82181e-17
-2.79549e-17
-2.80909e-17
-2.79594e-17
-2.79077e-17
-2.81576e-17
-2.83441e-17
-2.82165e-17
-2.81331e-17
-2.81728e-17
-2.80935e-17
-2.79923e-17
-2.81646e-17
-2.8118e-17
-2.81246e-17
-2.82167e-17
-2.80707e-17
-2.80091e-17
-2.78968e-17
-2.8242e-17
-2.83365e-17
-2.82456e-17
-2.83195e-17
-2.82264e-17
-2.82049e-17
-2.82735e-17
-2.83798e-17
-2.82756e-17
-2.8235e-17
-2.82153e-17
-2.80958e-17
-2.83533e-17
-2.83353e-17
-2.83834e-17
-2.83495e-17
-2.83395e-17
-2.83321e-17
-2.83132e-17
-2.83064e-17
-2.83076e-17
-2.82142e-17
-2.82688e-17
-2.82961e-17
-2.85607e-17
-2.83233e-17
-2.82328e-17
-2.82497e-17
-2.84135e-17
-2.82747e-17
-2.83767e-17
-2.80427e-17
-2.80043e-17
-2.82307e-17
-2.83845e-17
-2.82096e-17
-2.82064e-17
-2.83758e-17
-2.83037e-17
-2.80405e-17
-2.83127e-17
-2.82279e-17