/*--------------------------------*- C++ -*----------------------------------*\
  =========                 |
  \\      /  F ield         | OpenFOAM: The Open Source CFD Toolbox
   \\    /   O peration     | Website:  https://openfoam.org
    \\  /    A nd           | Version:  7
     \\/     M anipulation  |
\*---------------------------------------------------------------------------*/
FoamFile
{
    version     2.0;
    format      ascii;
    class       volVectorField;
    location    "24000";
    object      U;
}
// * * * * * * * * * * * * * * * * * * * * * * * * * * * * * * * * * * * * * //

dimensions      [0 1 -1 0 0 0 0];

internalField   nonuniform List<vector> 
4825
(
(-1.19403e-18 2.84438e-19 -0.0098336)
(-6.49409e-19 -5.98634e-19 -0.0098498)
(-1.28927e-18 3.13193e-19 -0.00979397)
(-6.96405e-19 -5.31431e-19 -0.00981021)
(-1.74684e-18 8.96672e-20 -0.00982605)
(-9.49782e-19 3.16417e-19 -0.00984148)
(-8.08136e-19 -6.51371e-20 -0.00985644)
(-1.38209e-18 3.71725e-19 -0.00975399)
(-8.50039e-19 -3.91876e-19 -0.00977027)
(-1.55414e-18 -1.30808e-19 -0.00978616)
(-1.02176e-18 3.30115e-19 -0.00980163)
(-7.23559e-19 -2.39496e-19 -0.00981664)
(-1.47874e-18 4.87968e-19 -0.00971366)
(-9.8641e-19 -2.96832e-19 -0.00972998)
(-1.58563e-18 -8.21443e-20 -0.00974592)
(-1.13135e-18 3.96665e-19 -0.00976144)
(-7.57524e-19 -2.36993e-19 -0.00977649)
(-1.52737e-18 5.50892e-19 -0.00967296)
(-8.94824e-19 -4.72448e-19 -0.00968934)
(-1.66264e-18 3.41411e-20 -0.00970532)
(-1.20454e-18 4.00496e-19 -0.00972088)
(-7.78202e-19 -2.23839e-19 -0.00973597)
(-1.31102e-18 2.53439e-19 -0.00963189)
(-6.91353e-19 -7.78119e-19 -0.00964831)
(-1.53952e-18 -6.55067e-20 -0.00966434)
(-1.14549e-18 2.13008e-19 -0.00967995)
(-7.68325e-19 -2.35609e-19 -0.00969509)
(-1.07446e-18 -1.05709e-19 -0.00959044)
(-6.56585e-19 -8.47978e-19 -0.00960691)
(-1.38365e-18 -2.09984e-19 -0.00962299)
(-9.86803e-19 -7.25079e-20 -0.00963864)
(-6.66008e-19 -3.16452e-19 -0.00965383)
(-1.16495e-18 -6.1374e-20 -0.0095486)
(-7.70939e-19 -7.33258e-19 -0.00956511)
(-1.38825e-18 -1.91061e-19 -0.00958124)
(-9.4964e-19 -2.14443e-19 -0.00959694)
(-5.14526e-19 -4.71086e-19 -0.00961218)
(-1.35701e-18 1.38496e-19 -0.00950635)
(-1.04475e-18 -4.47804e-19 -0.00952291)
(-1.40013e-18 -1.7587e-19 -0.00953909)
(-1.10136e-18 -1.26911e-19 -0.00955484)
(-4.36849e-19 -5.48566e-19 -0.00957012)
(-1.3365e-18 1.65783e-19 -0.00946368)
(-1.4489e-18 -3.34104e-20 -0.00948029)
(-1.399e-18 -2.05958e-19 -0.00949652)
(-1.33516e-18 6.9723e-20 -0.00951232)
(-4.39513e-19 -5.21711e-19 -0.00952765)
(-1.08372e-18 -3.84552e-20 -0.00942059)
(-1.7381e-18 2.63229e-19 -0.00943725)
(-1.49285e-18 -1.36939e-19 -0.00945353)
(-1.47572e-18 1.46861e-19 -0.00946938)
(-4.53766e-19 -4.38137e-19 -0.00948476)
(-8.48987e-19 -2.19628e-19 -0.00937705)
(-1.78411e-18 3.23188e-19 -0.00939376)
(-1.58377e-18 -9.89115e-20 -0.00941009)
(-1.57055e-18 1.46054e-19 -0.009426)
(-4.24816e-19 -4.00432e-19 -0.00944143)
(-7.02405e-19 -3.32383e-19 -0.00933305)
(-1.62331e-18 1.48405e-19 -0.00934981)
(-1.50289e-18 -2.56265e-19 -0.0093662)
(-1.6727e-18 1.54284e-19 -0.00938217)
(-4.00658e-19 -3.76581e-19 -0.00939765)
(-6.13344e-19 -4.22008e-19 -0.00928859)
(-1.43315e-18 -7.0961e-20 -0.0093054)
(-1.34171e-18 -4.86016e-19 -0.00932185)
(-1.77629e-18 1.93048e-19 -0.00933786)
(-5.88403e-19 -4.73534e-19 -0.00924364)
(-1.35837e-18 -1.69089e-19 -0.0092605)
(-1.23498e-18 -6.11419e-19 -0.00927701)
(-1.8765e-18 2.61387e-19 -0.00929308)
(-5.82607e-19 -5.00876e-19 -0.00919819)
(-1.46741e-18 -5.23815e-20 -0.0092151)
(-1.20357e-18 -6.36324e-19 -0.00923167)
(-1.97144e-18 3.46595e-19 -0.0092478)
(-5.89091e-19 -4.89235e-19 -0.00915222)
(-1.62294e-18 1.19046e-19 -0.00916919)
(-1.21478e-18 -6.15954e-19 -0.00918581)
(-6.21714e-19 -4.65197e-19 -0.00910571)
(-1.69155e-18 1.90305e-19 -0.00912274)
(-1.10103e-18 -7.56175e-19 -0.00913943)
(-7.21268e-19 -3.73019e-19 -0.00905862)
(-1.73321e-18 1.95021e-19 -0.00907574)
(-7.85016e-19 -3.02059e-19 -0.00901093)
(-1.80103e-18 2.04843e-19 -0.00902814)
(-7.35243e-19 -3.3523e-19 -0.00896262)
(-1.8112e-18 1.50134e-19 -0.00897993)
(-7.78253e-19 -2.8404e-19 -0.00891365)
(-1.73504e-18 2.98009e-21 -0.00893106)
(-9.93097e-19 -5.83728e-20 -0.008864)
(-1.7072e-18 -1.14835e-19 -0.00888152)
(-1.12786e-18 9.92463e-20 -0.00881366)
(-7.00075e-20 -9.6864e-20 -0.0103921)
(-2.7214e-19 3.11629e-19 -0.0104077)
(-1.92557e-19 3.74421e-19 -0.0104229)
(-8.03015e-19 4.85074e-19 -0.0104376)
(-9.76795e-19 -2.25016e-19 -0.010452)
(-2.60783e-19 -1.54944e-19 -0.0104658)
(-6.25795e-19 6.6204e-21 -0.0104791)
(5.22599e-20 1.74103e-19 -0.0104919)
(-9.2689e-19 3.84696e-20 -0.0105041)
(5.76577e-20 3.85832e-19 -0.0105157)
(-5.61125e-19 2.84489e-19 -0.0105266)
(-6.88943e-19 4.21459e-19 -0.010537)
(-5.25749e-19 1.10931e-20 -0.0105466)
(-6.62916e-19 2.01345e-19 -0.0105556)
(-1.06849e-18 1.88151e-19 -0.0105639)
(-1.42341e-18 8.18298e-19 -0.0105715)
(-9.25278e-19 7.35866e-19 -0.0105784)
(-2.70328e-19 9.53284e-19 -0.0105845)
(-9.70148e-21 5.4788e-19 -0.0105899)
(-1.8375e-19 -2.39095e-21 -0.0105946)
(-2.00648e-19 -1.99243e-19 -0.0103568)
(-6.03663e-19 2.70449e-20 -0.0103724)
(-2.10656e-19 3.55479e-19 -0.0103876)
(-9.10849e-19 4.61068e-19 -0.0104024)
(-4.74879e-19 8.9521e-20 -0.0104168)
(-1.65956e-19 -1.00929e-19 -0.0104306)
(-5.86807e-19 -1.38597e-20 -0.010444)
(2.45347e-20 1.91498e-19 -0.0104568)
(-9.92908e-19 1.27274e-20 -0.010469)
(1.03112e-19 3.63847e-19 -0.0104807)
(-4.64238e-19 3.81466e-19 -0.0104917)
(-3.88751e-19 5.35419e-19 -0.010502)
(-3.20206e-19 9.60256e-20 -0.0105117)
(-7.17057e-19 2.2019e-19 -0.0105208)
(-1.07501e-18 2.50554e-19 -0.0105291)
(-1.64111e-18 7.57566e-19 -0.0105367)
(-7.11467e-19 6.80538e-19 -0.0105436)
(-5.14124e-19 8.51867e-19 -0.0105497)
(-6.18705e-20 5.39975e-19 -0.0105551)
(-5.6016e-20 4.44328e-21 -0.0105598)
(-3.53843e-19 -2.66143e-19 -0.0103212)
(-6.04679e-19 -5.5192e-20 -0.0103368)
(-7.47733e-20 4.24836e-19 -0.0103521)
(-8.41868e-19 5.34461e-19 -0.010367)
(-1.75777e-19 2.44181e-19 -0.0103814)
(-5.6173e-20 -4.13173e-21 -0.0103953)
(-4.38342e-19 5.41922e-20 -0.0104087)
(2.55691e-21 2.31351e-19 -0.0104215)
(-1.10723e-18 -5.43491e-20 -0.0104338)
(2.49463e-19 3.7352e-19 -0.0104454)
(-3.19895e-19 4.77577e-19 -0.0104565)
(-2.59098e-19 6.11088e-19 -0.0104668)
(-5.32678e-19 7.62032e-20 -0.0104766)
(-9.09913e-19 2.17026e-19 -0.0104856)
(-1.14208e-18 2.87279e-19 -0.010494)
(-1.54135e-18 7.26889e-19 -0.0105016)
(-5.60552e-19 6.47732e-19 -0.0105085)
(-6.48342e-19 7.88007e-19 -0.0105147)
(-1.18859e-20 4.97518e-19 -0.0105201)
(-9.98318e-20 1.73319e-20 -0.0105248)
(-2.92077e-19 -1.78152e-19 -0.0102853)
(-4.24242e-19 -3.53385e-21 -0.0103011)
(6.58386e-20 4.91205e-19 -0.0103164)
(-6.49436e-19 6.82548e-19 -0.0103313)
(-1.72945e-19 2.16395e-19 -0.0103457)
(1.01947e-19 1.18736e-19 -0.0103596)
(-2.16064e-19 1.69753e-19 -0.0103731)
(-1.42366e-19 2.43268e-19 -0.0103859)
(-1.10709e-18 -7.40404e-20 -0.0103982)
(3.47592e-19 3.17358e-19 -0.0104099)
(-4.18547e-19 4.83658e-19 -0.010421)
(-3.51937e-19 6.34154e-19 -0.0104314)
(-7.18684e-19 7.80651e-20 -0.0104412)
(-9.65567e-19 2.09145e-19 -0.0104502)
(-8.11162e-19 4.03843e-19 -0.0104586)
(-1.28105e-18 7.6383e-19 -0.0104663)
(-5.34442e-19 5.90253e-19 -0.0104732)
(-4.72169e-19 7.95843e-19 -0.0104794)
(-3.05509e-21 4.84208e-19 -0.0104848)
(-2.76742e-19 -4.4262e-20 -0.0104895)
(-1.05101e-19 -2.45695e-20 -0.0102493)
(-3.592e-19 -4.81222e-20 -0.010265)
(1.9832e-19 5.38617e-19 -0.0102804)
(-5.31063e-19 8.17943e-19 -0.0102953)
(-2.61757e-19 1.16664e-19 -0.0103098)
(3.021e-19 2.14996e-19 -0.0103237)
(-3.18988e-19 1.50943e-19 -0.0103372)
(-4.19974e-19 1.92192e-19 -0.0103501)
(-1.0234e-18 -7.85081e-20 -0.0103624)
(1.67444e-19 1.81e-19 -0.0103742)
(-6.82785e-19 4.21408e-19 -0.0103853)
(-4.35011e-19 6.33223e-19 -0.0103957)
(-7.15486e-19 1.30005e-19 -0.0104055)
(-1.04545e-18 1.50324e-19 -0.0104146)
(-8.52623e-19 3.91708e-19 -0.010423)
(-1.16347e-18 8.00922e-19 -0.0104307)
(-7.00085e-19 4.97492e-19 -0.0104376)
(-3.52001e-19 7.90788e-19 -0.0104438)
(-1.57266e-20 4.99509e-19 -0.0104493)
(-5.27718e-19 -1.07674e-19 -0.0104539)
(5.38423e-20 8.45084e-20 -0.0102129)
(-4.40669e-19 -1.86652e-19 -0.0102287)
(1.50574e-19 4.28916e-19 -0.0102441)
(-6.04642e-19 8.26881e-19 -0.010259)
(-3.36211e-19 2.37349e-20 -0.0102736)
(3.14667e-19 2.36616e-19 -0.0102876)
(-8.7911e-19 -9.87894e-20 -0.0103011)
(-5.81768e-19 1.64116e-19 -0.010314)
(-1.00217e-18 -9.65917e-20 -0.0103264)
(-2.95094e-20 4.45397e-20 -0.0103381)
(-1.02113e-18 2.93747e-19 -0.0103493)
(-5.90936e-19 5.73825e-19 -0.0103598)
(-9.14146e-19 1.26602e-19 -0.0103696)
(-1.35353e-18 6.9031e-20 -0.0103787)
(-1.22583e-18 2.53498e-19 -0.0103871)
(-1.12275e-18 8.02178e-19 -0.0103948)
(-7.35915e-19 4.27817e-19 -0.0104018)
(-5.92887e-19 6.81767e-19 -0.010408)
(-7.96792e-20 5.40875e-19 -0.0104134)
(-5.05436e-19 -1.23672e-19 -0.0104181)
(1.12203e-19 1.23621e-19 -0.0101763)
(-5.43659e-19 -3.08662e-19 -0.0101921)
(1.03372e-19 3.18328e-19 -0.0102075)
(-6.19907e-19 8.68201e-19 -0.0102225)
(-4.10027e-19 -8.36772e-20 -0.0102371)
(8.12019e-20 1.52268e-19 -0.0102512)
(-1.30395e-18 -2.73134e-19 -0.0102647)
(-6.09636e-19 1.38448e-19 -0.0102777)
(-9.0705e-19 -7.907e-20 -0.0102901)
(9.02746e-20 1.14237e-19 -0.0103019)
(-1.45419e-18 1.43457e-19 -0.010313)
(-7.58529e-19 5.04574e-19 -0.0103235)
(-1.11746e-18 1.26555e-19 -0.0103334)
(-1.37925e-18 6.84589e-20 -0.0103425)
(-1.12984e-18 2.22332e-19 -0.010351)
(-1.01883e-18 7.75979e-19 -0.0103587)
(-3.83222e-19 5.14653e-19 -0.0103657)
(-7.61575e-19 6.18192e-19 -0.0103719)
(-1.9293e-19 4.94084e-19 -0.0103774)
(-1.6606e-19 -8.34285e-20 -0.0103821)
(6.12128e-20 7.67447e-20 -0.0101394)
(-4.72382e-19 -2.90724e-19 -0.0101553)
(6.63655e-20 1.8054e-19 -0.0101707)
(-4.64863e-19 1.04091e-18 -0.0101858)
(-4.90589e-19 -1.36437e-19 -0.0102004)
(-3.04137e-19 -1.53178e-20 -0.0102145)
(-1.59956e-18 -4.05422e-19 -0.010228)
(-5.07842e-19 1.57249e-19 -0.0102411)
(-1.14655e-18 -2.62317e-19 -0.0102535)
(1.98257e-19 2.17878e-19 -0.0102653)
(-1.6446e-18 1.38772e-19 -0.0102765)
(-6.70697e-19 4.97011e-19 -0.010287)
(-1.11797e-18 1.68673e-19 -0.0102969)
(-1.2292e-18 9.82345e-20 -0.0103061)
(-9.27636e-19 2.42102e-19 -0.0103145)
(-9.14939e-19 7.47703e-19 -0.0103223)
(-6.72978e-20 5.79246e-19 -0.0103293)
(-5.55913e-19 6.90648e-19 -0.0103355)
(-1.56476e-19 4.70176e-19 -0.010341)
(-1.53576e-19 -1.05407e-19 -0.0103457)
(-1.66796e-19 4.53266e-19 -0.0103497)
(-3.76555e-19 2.66609e-19 -0.0103529)
(-3.1011e-19 3.86798e-20 -0.0103552)
(-1.21069e-19 4.78906e-19 -0.0103568)
(-1.7934e-19 1.64851e-19 -0.0103576)
(-3.40304e-19 -4.83244e-19 -0.0103576)
(-4.19117e-19 4.34342e-19 -0.0103568)
(-2.42167e-19 4.9365e-21 -0.0103552)
(-5.26873e-19 1.52376e-19 -0.0103528)
(1.84621e-19 -7.91187e-20 -0.0103497)
(6.59251e-20 2.04025e-19 -0.0103457)
(3.65437e-19 3.9949e-19 -0.010341)
(-1.01735e-19 -2.09113e-19 -0.0103355)
(-4.51778e-19 4.58743e-19 -0.0103292)
(-4.83523e-19 4.3965e-19 -0.0103222)
(-1.10687e-19 -6.76249e-20 -0.0101022)
(-2.74986e-19 -1.61605e-19 -0.0101181)
(-1.09724e-19 -6.30685e-20 -0.0101336)
(-4.09482e-19 1.12771e-18 -0.0101487)
(-6.87397e-19 -2.10665e-19 -0.0101634)
(-5.56964e-19 -7.14975e-20 -0.0101775)
(-1.58381e-18 -4.12263e-19 -0.0101911)
(-4.02495e-19 1.99542e-19 -0.0102042)
(-1.32777e-18 -3.9512e-19 -0.0102166)
(1.16326e-19 1.71097e-19 -0.0102285)
(-1.68308e-18 1.77382e-19 -0.0102397)
(-5.22008e-19 5.22214e-19 -0.0102503)
(-1.223e-18 1.90489e-19 -0.0102602)
(-1.00778e-18 1.50491e-19 -0.0102694)
(-7.36911e-19 2.52314e-19 -0.0102778)
(-6.75151e-19 7.41119e-19 -0.0102856)
(-1.89833e-19 5.29267e-19 -0.0102926)
(-4.04702e-19 7.4832e-19 -0.0102989)
(3.1239e-20 5.17824e-19 -0.0103044)
(-3.53013e-19 -1.18974e-19 -0.0103091)
(-2.84846e-19 4.55428e-19 -0.0103131)
(-2.88329e-19 2.92238e-19 -0.0103163)
(-3.84214e-19 -7.25037e-21 -0.0103187)
(9.04139e-20 4.63742e-19 -0.0103202)
(1.93788e-19 2.01946e-19 -0.010321)
(-2.96447e-19 -4.61916e-19 -0.010321)
(-5.40592e-19 4.0191e-19 -0.0103202)
(7.11518e-20 -1.97745e-20 -0.0103186)
(-5.15217e-19 1.3093e-19 -0.0103162)
(-7.90969e-20 -9.86413e-20 -0.0103131)
(-1.72638e-20 2.14388e-19 -0.0103091)
(3.16752e-19 4.1139e-19 -0.0103043)
(-2.87582e-20 -1.68571e-19 -0.0102988)
(-4.54669e-19 4.95417e-19 -0.0102925)
(-1.96641e-19 4.07621e-19 -0.0102855)
(-7.21867e-19 6.74007e-19 -0.0102777)
(2.73314e-19 1.69084e-19 -0.0102692)
(-2.77198e-19 -1.72577e-19 -0.0100648)
(-1.12532e-19 -5.66988e-20 -0.0100807)
(-4.05923e-19 -3.75323e-19 -0.0100963)
(-4.70879e-19 1.1287e-18 -0.0101114)
(-9.37492e-19 -3.17153e-19 -0.0101261)
(-4.20882e-19 5.28874e-20 -0.0101402)
(-1.13951e-18 -1.7187e-19 -0.0101539)
(-4.25574e-19 1.88482e-19 -0.010167)
(-1.08038e-18 -2.92905e-19 -0.0101795)
(-7.14619e-20 9.93364e-20 -0.0101914)
(-1.75603e-18 1.86942e-19 -0.0102026)
(-4.16831e-19 5.33107e-19 -0.0102132)
(-1.43117e-18 1.40985e-19 -0.0102231)
(-6.37283e-19 2.0924e-19 -0.0102324)
(-5.19326e-19 2.79247e-19 -0.0102409)
(-3.90398e-19 8.17322e-19 -0.0102486)
(-4.11578e-19 4.72362e-19 -0.0102557)
(-5.48541e-19 6.94189e-19 -0.010262)
(8.67212e-20 5.5886e-19 -0.0102675)
(-3.96741e-19 -1.0042e-19 -0.0102722)
(-9.74278e-20 4.50986e-19 -0.0102762)
(-4.68442e-20 3.35694e-19 -0.0102794)
(-3.32336e-19 -2.28098e-20 -0.0102818)
(1.27705e-19 4.19775e-19 -0.0102834)
(2.90529e-19 2.28548e-19 -0.0102842)
(-6.61076e-20 -4.14124e-19 -0.0102842)
(-6.24272e-19 3.76644e-19 -0.0102834)
(2.19566e-19 -5.21935e-20 -0.0102818)
(-4.23642e-19 1.53702e-19 -0.0102794)
(-2.82825e-19 -1.07981e-19 -0.0102762)
(6.68353e-21 1.68586e-19 -0.0102722)
(3.83686e-19 3.9684e-19 -0.0102674)
(1.69493e-19 -1.59194e-19 -0.0102619)
(-4.07675e-19 5.12015e-19 -0.0102556)
(-1.75256e-19 4.29071e-19 -0.0102485)
(-5.54484e-19 5.82315e-19 -0.0102408)
(3.21106e-19 1.196e-19 -0.0102322)
(-1.33533e-19 1.48275e-19 -0.010223)
(-3.11604e-19 -1.60743e-19 -0.010027)
(2.7873e-20 6.96235e-20 -0.010043)
(-7.09055e-19 -6.7524e-19 -0.0100586)
(-6.6152e-19 1.00956e-18 -0.0100738)
(-7.72875e-19 -1.888e-19 -0.0100885)
(-8.9549e-20 2.30241e-19 -0.0101027)
(-7.30931e-19 8.79002e-20 -0.0101164)
(-6.89068e-19 6.7654e-20 -0.0101295)
(-8.4506e-19 -1.83095e-19 -0.010142)
(-2.76724e-19 4.9529e-20 -0.010154)
(-1.62967e-18 2.50971e-19 -0.0101653)
(-3.93095e-19 5.32028e-19 -0.0101759)
(-1.51018e-18 1.28561e-19 -0.0101858)
(-4.40195e-19 1.81808e-19 -0.0101951)
(-5.7882e-19 2.26453e-19 -0.0102036)
(-5.92795e-19 7.62906e-19 -0.0102114)
(-6.08425e-19 4.74154e-19 -0.0102185)
(-7.0454e-19 6.37303e-19 -0.0102248)
(1.10811e-19 5.614e-19 -0.0102303)
(-4.75367e-19 -1.13472e-19 -0.0102351)
(-1.01882e-20 4.32166e-19 -0.010239)
(-8.86447e-20 3.69667e-19 -0.0102422)
(-2.56714e-19 -2.4979e-20 -0.0102446)
(7.88966e-20 3.84807e-19 -0.0102462)
(1.86927e-19 2.29913e-19 -0.010247)
(7.20331e-21 -3.62742e-19 -0.010247)
(-7.21638e-19 3.54904e-19 -0.0102462)
(4.8747e-19 -1.01375e-19 -0.0102446)
(-3.57826e-19 1.84816e-19 -0.0102422)
(-1.61869e-19 -1.63878e-19 -0.010239)
(6.77823e-20 1.13766e-19 -0.010235)
(2.91365e-19 3.91952e-19 -0.0102302)
(2.73378e-19 -1.19426e-19 -0.0102247)
(-3.78823e-19 5.71281e-19 -0.0102184)
(-8.58682e-20 4.30459e-19 -0.0102113)
(-4.27566e-19 5.07354e-19 -0.0102035)
(1.65735e-19 1.342e-19 -0.0101949)
(-9.82308e-20 1.31219e-19 -0.0101857)
(4.19793e-19 2.54336e-19 -0.0101757)
(-1.6777e-19 1.06865e-18 -0.0101651)
(-3.40022e-19 -1.78901e-19 -0.00998899)
(1.60561e-19 2.25309e-19 -0.010005)
(-8.3664e-19 -7.88069e-19 -0.0100206)
(-8.13638e-19 8.32882e-19 -0.0100359)
(-3.80844e-19 3.13171e-20 -0.0100506)
(-9.36105e-21 2.69607e-19 -0.0100649)
(-5.97556e-19 2.58381e-19 -0.0100786)
(-1.09059e-18 -1.13447e-19 -0.0100917)
(-6.66323e-19 -1.30843e-19 -0.0101043)
(-3.34493e-19 6.10177e-20 -0.0101163)
(-1.34546e-18 3.82723e-19 -0.0101276)
(-5.23566e-19 4.83006e-19 -0.0101382)
(-1.35318e-18 1.92326e-19 -0.0101482)
(-5.37686e-19 7.72049e-20 -0.0101575)
(-8.27712e-19 1.71374e-19 -0.010166)
(-9.24782e-19 6.87542e-19 -0.0101739)
(-7.78619e-19 4.23431e-19 -0.0101809)
(-5.33169e-19 6.185e-19 -0.0101873)
(7.04353e-20 5.7398e-19 -0.0101928)
(-5.8787e-19 -1.15279e-19 -0.0101976)
(-2.2008e-19 3.70153e-19 -0.0102016)
(-1.18356e-19 3.89038e-19 -0.0102048)
(-2.35481e-19 -4.01738e-20 -0.0102072)
(6.8001e-20 3.67034e-19 -0.0102088)
(3.94078e-20 2.36426e-19 -0.0102096)
(-9.01483e-20 -3.09869e-19 -0.0102096)
(-8.0982e-19 2.96404e-19 -0.0102088)
(7.04109e-19 -1.66037e-19 -0.0102072)
(-3.08155e-19 2.33728e-19 -0.0102048)
(2.28719e-20 -2.2318e-19 -0.0102016)
(-5.60671e-20 1.25363e-19 -0.0101975)
(1.36878e-19 4.14925e-19 -0.0101928)
(9.58319e-20 -4.0887e-20 -0.0101872)
(-3.86973e-19 6.04217e-19 -0.0101809)
(-7.1992e-20 4.33271e-19 -0.0101738)
(-2.57941e-19 4.53757e-19 -0.0101659)
(5.6975e-20 1.55243e-19 -0.0101574)
(-2.52264e-20 8.84553e-20 -0.0101481)
(3.40619e-19 3.30487e-19 -0.0101381)
(1.92735e-19 1.05075e-18 -0.0101274)
(-8.9889e-19 -2.99381e-20 -0.0101161)
(-4.34113e-19 -1.33186e-21 -0.0101042)
(-3.47822e-19 -1.90013e-19 -0.00995064)
(1.60764e-19 2.62871e-19 -0.00996671)
(-8.30664e-19 -7.78344e-19 -0.00998238)
(-8.88272e-19 6.8761e-19 -0.00999763)
(-2.66757e-19 6.94214e-20 -0.0100124)
(-2.20852e-19 1.43427e-19 -0.0100267)
(-5.38369e-19 4.02845e-19 -0.0100405)
(-1.35943e-18 -2.32394e-19 -0.0100537)
(-5.61176e-19 -1.53525e-19 -0.0100663)
(-3.71953e-19 7.09206e-20 -0.0100783)
(-1.06211e-18 5.32345e-19 -0.0100896)
(-6.55303e-19 4.43314e-19 -0.0101003)
(-1.21861e-18 2.59745e-19 -0.0101103)
(-6.93566e-19 -6.02321e-21 -0.0101196)
(-8.24211e-19 1.73575e-19 -0.0101282)
(-7.86888e-19 7.19144e-19 -0.010136)
(-8.21896e-19 3.85207e-19 -0.0101431)
(-3.00619e-19 6.24091e-19 -0.0101495)
(7.77614e-20 6.1765e-19 -0.010155)
(-6.47194e-19 -9.80747e-20 -0.0101598)
(-2.56884e-19 3.23654e-19 -0.0101638)
(-7.81612e-20 3.97015e-19 -0.010167)
(-2.9297e-19 -5.43196e-20 -0.0101694)
(4.30473e-20 3.59481e-19 -0.0101711)
(-8.34095e-20 2.52895e-19 -0.0101719)
(-3.4459e-19 -2.6223e-19 -0.0101719)
(-7.83454e-19 2.18053e-19 -0.010171)
(6.7968e-19 -2.16543e-19 -0.0101694)
(-2.94921e-19 2.74322e-19 -0.010167)
(1.5395e-19 -2.53894e-19 -0.0101638)
(-2.63028e-19 1.67003e-19 -0.0101598)
(1.72288e-19 3.95566e-19 -0.010155)
(-4.00271e-20 3.08782e-20 -0.0101494)
(-2.82925e-19 6.12225e-19 -0.010143)
(-2.73282e-19 4.84878e-19 -0.0101359)
(-2.06087e-19 4.22699e-19 -0.0101281)
(1.47207e-20 1.45912e-19 -0.0101195)
(2.19492e-20 6.67903e-20 -0.0101102)
(2.10401e-19 4.07565e-19 -0.0101002)
(5.53203e-19 9.80139e-19 -0.0100895)
(-3.69255e-19 -2.6663e-19 -0.0100781)
(-2.77243e-19 -9.28891e-20 -0.0100661)
(-3.9992e-19 -2.57626e-19 -0.0100535)
(-5.90062e-19 -4.32016e-19 -0.0100403)
(-8.86196e-19 -4.57511e-19 -0.0100266)
(-2.83763e-19 -1.42732e-19 -0.00991198)
(1.30069e-19 2.81689e-19 -0.00992809)
(-7.45275e-19 -7.00293e-19 -0.00994381)
(-8.92192e-19 5.9876e-19 -0.0099591)
(-3.78955e-19 -3.50672e-20 -0.00997393)
(-4.35854e-19 -7.42148e-21 -0.00998826)
(-4.68972e-19 5.47337e-19 -0.0100021)
(-1.40712e-18 -2.09354e-19 -0.0100153)
(-6.80911e-19 -3.00068e-19 -0.0100279)
(-6.31028e-19 -5.22857e-20 -0.01004)
(-8.6627e-19 6.43007e-19 -0.0100513)
(-8.31072e-19 4.04207e-19 -0.0100621)
(-1.21379e-18 2.74371e-19 -0.0100721)
(-7.4269e-19 -7.06191e-20 -0.0100814)
(-6.87823e-19 1.89848e-19 -0.01009)
(-5.56131e-19 8.10389e-19 -0.0100979)
(-7.50328e-19 3.81795e-19 -0.010105)
(-2.99899e-19 5.57925e-19 -0.0101113)
(1.0383e-19 6.86999e-19 -0.0101169)
(-6.37569e-19 -7.21379e-20 -0.0101217)
(-3.1507e-19 2.67847e-19 -0.0101258)
(-3.42425e-20 4.26913e-19 -0.010129)
(-3.91057e-19 -6.79121e-20 -0.0101314)
(7.92373e-20 3.54271e-19 -0.010133)
(-3.3878e-20 2.97804e-19 -0.0101338)
(-4.26024e-19 -2.31855e-19 -0.0101338)
(-7.15762e-19 1.16258e-19 -0.010133)
(4.3055e-19 -2.46531e-19 -0.0101314)
(-2.16608e-19 2.96498e-19 -0.0101289)
(1.37863e-19 -2.54722e-19 -0.0101257)
(-3.64199e-19 1.8943e-19 -0.0101217)
(2.66643e-19 3.62296e-19 -0.0101169)
(-6.37911e-20 6.71734e-20 -0.0101113)
(-1.22655e-19 6.11429e-19 -0.0101049)
(-4.39658e-19 5.42113e-19 -0.0100978)
(-2.6071e-19 4.12709e-19 -0.0100899)
(-1.76735e-20 1.4122e-19 -0.0100813)
(-1.72036e-19 1.43139e-19 -0.010072)
(6.06992e-20 4.66531e-19 -0.0100619)
(6.51366e-19 9.65697e-19 -0.0100512)
(1.63442e-19 -4.91302e-19 -0.0100398)
(-1.68965e-19 -1.30772e-19 -0.0100278)
(-5.44068e-20 -4.49531e-19 -0.0100152)
(-4.33328e-19 -4.99733e-19 -0.0100019)
(-6.22744e-19 -5.36568e-19 -0.00998812)
(-1.48911e-18 -1.47153e-19 -0.00997379)
(-6.45265e-19 -7.41826e-19 -0.00995896)
(-2.3651e-19 -1.29471e-19 -0.009873)
(9.82196e-20 2.87058e-19 -0.00988916)
(-6.45028e-19 -6.11645e-19 -0.00990492)
(-8.57028e-19 5.76851e-19 -0.00992025)
(-4.94819e-19 -1.19141e-19 -0.00993512)
(-6.03095e-19 -1.54654e-19 -0.00994949)
(-5.39973e-19 5.80399e-19 -0.00996333)
(-1.22569e-18 -2.64361e-20 -0.00997661)
(-8.53458e-19 -4.27521e-19 -0.00998929)
(-9.29911e-19 -2.31438e-19 -0.0100013)
(-1.02577e-18 5.78884e-19 -0.0100128)
(-9.94574e-19 3.87244e-19 -0.0100235)
(-1.21544e-18 2.75679e-19 -0.0100336)
(-6.90147e-19 -1.01696e-19 -0.0100429)
(-6.81375e-19 1.43677e-19 -0.0100515)
(-5.26297e-19 8.223e-19 -0.0100594)
(-6.0537e-19 4.30136e-19 -0.0100666)
(-5.23776e-19 4.68139e-19 -0.0100729)
(7.51743e-20 7.20907e-19 -0.0100785)
(-5.08633e-19 -1.05375e-20 -0.0100833)
(-5.62811e-19 1.89424e-19 -0.0100874)
(-4.35226e-20 4.35972e-19 -0.0100906)
(-4.87651e-19 -8.26638e-20 -0.010093)
(1.71678e-19 3.30609e-19 -0.0100946)
(1.28828e-19 3.36863e-19 -0.0100954)
(-3.48858e-19 -1.92731e-19 -0.0100954)
(-5.95542e-19 5.57624e-20 -0.0100946)
(1.89971e-19 -2.83558e-19 -0.010093)
(-2.4624e-19 3.07609e-19 -0.0100906)
(-1.32225e-19 -2.08679e-19 -0.0100873)
(-3.56342e-19 1.79458e-19 -0.0100833)
(1.91257e-19 3.5486e-19 -0.0100785)
(-4.24396e-20 9.57256e-20 -0.0100729)
(-9.48463e-20 6.59396e-19 -0.0100665)
(-4.12873e-19 5.58912e-19 -0.0100593)
(-3.43806e-19 4.00932e-19 -0.0100514)
(-7.3859e-20 1.59921e-19 -0.0100428)
(-4.18709e-19 2.52285e-19 -0.0100334)
(-8.8109e-20 5.04885e-19 -0.0100234)
(5.70678e-19 9.76012e-19 -0.0100126)
(4.48496e-19 -6.12127e-19 -0.0100012)
(-1.10932e-19 -1.40603e-19 -0.00998914)
(2.58551e-19 -6.14433e-19 -0.00997647)
(-3.69075e-19 -5.02989e-19 -0.00996319)
(-3.11456e-19 -6.85421e-19 -0.00994935)
(-9.87774e-19 -5.1788e-19 -0.00993498)
(-5.33525e-19 -8.52674e-19 -0.00992012)
(-8.58967e-19 -4.36877e-21 -0.00990479)
(-1.16799e-18 5.55269e-19 -0.00988904)
(-1.61278e-18 -3.50374e-19 -0.0098729)
(-2.60359e-19 -1.73591e-19 -0.0098337)
(5.43117e-20 2.78723e-19 -0.00984989)
(-6.47127e-19 -6.07718e-19 -0.0098657)
(-8.33012e-19 5.53973e-19 -0.00988107)
(-3.42097e-19 -4.55129e-21 -0.00989599)
(-6.58151e-19 -2.22443e-19 -0.0099104)
(-6.14329e-19 5.67426e-19 -0.00992428)
(-9.7031e-19 1.95264e-19 -0.00993759)
(-8.95001e-19 -4.41012e-19 -0.00995031)
(-9.16188e-19 -2.30779e-19 -0.0099624)
(-1.23658e-18 4.79514e-19 -0.00997384)
(-1.01745e-18 3.89318e-19 -0.00998462)
(-1.09672e-18 3.05095e-19 -0.0099947)
(-6.24627e-19 -1.26599e-19 -0.0100041)
(-7.22439e-19 1.03367e-19 -0.0100127)
(-6.87534e-19 7.78648e-19 -0.0100206)
(-6.96876e-19 4.26825e-19 -0.0100278)
(-6.23311e-19 4.07293e-19 -0.0100342)
(1.56045e-19 7.4585e-19 -0.0100398)
(-3.98357e-19 6.46821e-20 -0.0100446)
(-6.45066e-19 1.51652e-19 -0.0100487)
(-2.16452e-19 4.21739e-19 -0.0100519)
(-5.54132e-19 -1.07952e-19 -0.0100543)
(1.50669e-19 2.84781e-19 -0.010056)
(1.71209e-19 3.84156e-19 -0.0100568)
(-4.10729e-19 -1.56588e-19 -0.0100568)
(-5.17336e-19 -2.27923e-21 -0.0100559)
(1.31723e-19 -3.07326e-19 -0.0100543)
(-4.84994e-19 3.67208e-19 -0.0100519)
(-4.25578e-19 -1.81057e-19 -0.0100486)
(-4.10518e-19 1.64055e-19 -0.0100446)
(4.36384e-20 3.68591e-19 -0.0100398)
(2.24835e-20 9.92438e-20 -0.0100341)
(-8.27802e-20 6.9418e-19 -0.0100277)
(-1.6841e-19 5.13387e-19 -0.0100206)
(-2.02688e-19 3.39807e-19 -0.0100126)
(-4.58386e-20 1.61926e-19 -0.010004)
(-5.3602e-19 3.12961e-19 -0.00999459)
(-5.49036e-20 4.58971e-19 -0.00998449)
(5.6306e-19 9.36983e-19 -0.00997371)
(6.19975e-19 -6.83802e-19 -0.00996226)
(-1.37565e-19 -1.15635e-19 -0.00995017)
(3.19219e-19 -6.47442e-19 -0.00993745)
(-4.22353e-19 -4.4126e-19 -0.00992414)
(1.16555e-20 -8.90876e-19 -0.00991026)
(-6.04928e-19 -7.82446e-19 -0.00989585)
(-6.75078e-19 -7.29582e-19 -0.00988095)
(-7.69722e-19 1.36151e-20 -0.00986558)
(-7.37432e-19 2.22144e-19 -0.00984978)
(-1.4996e-18 -4.87525e-19 -0.0098336)
(-3.91689e-19 -3.10652e-19 -0.00979406)
(2.66011e-20 2.78692e-19 -0.0098103)
(-5.10983e-19 -4.98541e-19 -0.00982615)
(-7.78883e-19 5.15776e-19 -0.00984157)
(-6.40068e-20 1.94013e-19 -0.00985652)
(-6.69396e-19 -2.31252e-19 -0.00987098)
(-5.46806e-19 6.2133e-19 -0.0098849)
(-8.49819e-19 3.4196e-19 -0.00989825)
(-8.4385e-19 -4.0337e-19 -0.009911)
(-7.34029e-19 -1.49399e-19 -0.00992312)
(-1.3036e-18 4.62493e-19 -0.0099346)
(-1.01673e-18 3.8985e-19 -0.0099454)
(-8.9482e-19 3.72951e-19 -0.00995552)
(-5.4885e-19 -1.25557e-19 -0.00996492)
(-1.04728e-18 -1.59049e-20 -0.00997359)
(-1.02865e-18 6.91269e-19 -0.00998152)
(-7.97594e-19 4.06594e-19 -0.0099887)
(-4.5226e-19 3.81427e-19 -0.00999511)
(1.14116e-19 7.43842e-19 -0.0100007)
(-4.77424e-19 1.17215e-19 -0.0100056)
(-6.37829e-19 1.48379e-19 -0.0100096)
(-3.76927e-19 4.13269e-19 -0.0100129)
(-5.9771e-19 -1.40447e-19 -0.0100153)
(-7.2134e-20 2.30269e-19 -0.0100169)
(8.60476e-20 4.26476e-19 -0.0100178)
(-4.81673e-19 -1.20341e-19 -0.0100178)
(-4.89857e-19 -6.15339e-20 -0.0100169)
(6.29035e-20 -3.12403e-19 -0.0100153)
(-6.87283e-19 4.30339e-19 -0.0100129)
(-5.34853e-19 -1.8596e-19 -0.0100096)
(-5.76998e-19 1.59195e-19 -0.0100055)
(1.03268e-19 3.20363e-19 -0.0100007)
(1.69052e-19 7.82515e-20 -0.00999505)
(3.16929e-20 6.93202e-19 -0.00998863)
(1.29389e-19 4.31975e-19 -0.00998145)
(4.50647e-20 2.55692e-19 -0.0099735)
(7.74264e-20 1.58167e-19 -0.00996482)
(-5.69352e-19 3.37376e-19 -0.0099554)
(1.99286e-19 3.09056e-19 -0.00994529)
(7.20653e-19 8.18233e-19 -0.00993447)
(8.39496e-19 -7.67387e-19 -0.00992299)
(-7.39362e-20 -1.10401e-19 -0.00991086)
(1.40932e-19 -5.33388e-19 -0.00989811)
(-7.10982e-19 -2.83396e-19 -0.00988476)
(1.19095e-19 -9.96327e-19 -0.00987084)
(-5.10716e-19 -7.81232e-19 -0.00985639)
(-1.03615e-18 -4.31009e-19 -0.00984144)
(-6.70696e-19 -5.34303e-20 -0.00982603)
(-4.25578e-19 -3.5412e-20 -0.00981019)
(-1.29563e-18 -6.52426e-19 -0.00979396)
(-5.88746e-19 -4.85329e-19 -0.00975407)
(-1.05564e-19 1.37309e-19 -0.00977036)
(-2.5973e-19 -3.04758e-19 -0.00978625)
(-7.94944e-19 4.36201e-19 -0.00980171)
(2.18919e-20 2.66359e-19 -0.00981671)
(-6.93321e-19 -2.41241e-19 -0.00983121)
(-4.79697e-19 6.65906e-19 -0.00984517)
(-8.45408e-19 4.28964e-19 -0.00985856)
(-9.04065e-19 -4.29656e-19 -0.00987135)
(-7.43567e-19 -1.40798e-19 -0.00988351)
(-1.40341e-18 4.43499e-19 -0.00989502)
(-1.23616e-18 2.70282e-19 -0.00990585)
(-7.41077e-19 4.0512e-19 -0.00991599)
(-4.33434e-19 -5.25705e-20 -0.00992542)
(-1.37411e-18 -8.63514e-20 -0.00993412)
(-1.33456e-18 5.72158e-19 -0.00994207)
(-6.47007e-19 3.92762e-19 -0.00994927)
(-1.88841e-19 3.92626e-19 -0.00995569)
(-1.56934e-19 7.34194e-19 -0.00996134)
(-4.28751e-19 1.77029e-19 -0.0099662)
(-6.7686e-19 1.28778e-19 -0.00997026)
(-3.26094e-19 4.29575e-19 -0.00997352)
(-7.17092e-19 -1.61306e-19 -0.00997596)
(-3.30268e-19 1.77904e-19 -0.00997759)
(-2.93252e-20 4.51571e-19 -0.00997841)
(-3.97885e-19 -1.01779e-19 -0.0099784)
(-3.74307e-19 -1.24097e-19 -0.00997758)
(2.64066e-20 -3.0627e-19 -0.00997595)
(-5.85505e-19 4.61456e-19 -0.00997349)
(-5.87178e-19 -1.97852e-19 -0.00997023)
(-6.42633e-19 1.18879e-19 -0.00996617)
(1.94843e-19 2.44702e-19 -0.0099613)
(1.82888e-19 8.74282e-20 -0.00995565)
(7.21084e-20 6.977e-19 -0.00994921)
(3.85412e-19 3.62327e-19 -0.009942)
(1.45373e-19 2.35039e-19 -0.00993403)
(1.83891e-19 1.75461e-19 -0.00992532)
(-5.64204e-19 3.257e-19 -0.00991589)
(4.77941e-19 1.26687e-19 -0.00990574)
(6.86949e-19 7.98456e-19 -0.0098949)
(9.85742e-19 -8.05828e-19 -0.00988338)
(1.96497e-19 -1.7298e-19 -0.00987122)
(5.1707e-21 -3.99426e-19 -0.00985843)
(-8.02795e-19 -2.57716e-19 -0.00984504)
(-1.74694e-19 -8.72294e-19 -0.00983108)
(-5.63218e-19 -6.50137e-19 -0.00981659)
(-1.3523e-18 -1.90139e-19 -0.00980159)
(-7.21542e-19 -7.038e-20 -0.00978614)
(-2.30627e-19 -1.9948e-19 -0.00977025)
(-1.09257e-18 -7.8545e-19 -0.00975398)
(-7.33374e-19 -5.72275e-19 -0.00971373)
(-1.94054e-19 -7.27662e-21 -0.00973006)
(-2.36226e-19 -3.03302e-19 -0.009746)
(-9.93572e-19 2.4443e-19 -0.00976151)
(-8.67302e-20 1.92625e-19 -0.00977656)
(-7.89006e-19 -3.01192e-19 -0.0097911)
(-5.40162e-19 6.33361e-19 -0.0098051)
(-7.83227e-19 5.67719e-19 -0.00981852)
(-1.04583e-18 -4.84877e-19 -0.00983135)
(-8.66809e-19 -2.02009e-19 -0.00984354)
(-1.31444e-18 5.33828e-19 -0.00985509)
(-1.42882e-18 1.5415e-19 -0.00986595)
(-8.55047e-19 2.96538e-19 -0.00987612)
(-5.04693e-19 -3.21774e-20 -0.00988558)
(-1.42944e-18 -5.4586e-20 -0.0098943)
(-1.47696e-18 4.73733e-19 -0.00990228)
(-3.84888e-19 3.81473e-19 -0.00990949)
(-7.23869e-20 4.1156e-19 -0.00991594)
(-2.86782e-19 7.44828e-19 -0.0099216)
(-2.29871e-20 2.78201e-19 -0.00992647)
(-7.5511e-19 1.14147e-19 -0.00993055)
(-1.46322e-19 4.66918e-19 -0.00993381)
(-8.57149e-19 -1.58736e-19 -0.00993626)
(-5.35139e-19 1.22024e-19 -0.0099379)
(-1.333e-19 4.47537e-19 -0.00993872)
(-7.79446e-20 -1.0345e-19 -0.00993871)
(-2.41961e-19 -1.73543e-19 -0.00993789)
(5.10109e-21 -3.12438e-19 -0.00993625)
(-4.51018e-19 4.92839e-19 -0.00993379)
(-5.29193e-19 -2.05049e-19 -0.00993052)
(-6.1032e-19 5.81294e-20 -0.00992644)
(1.42089e-19 2.07546e-19 -0.00992156)
(4.09023e-20 1.40537e-19 -0.00991589)
(-2.02506e-19 7.5935e-19 -0.00990944)
(4.31029e-19 3.44431e-19 -0.00990221)
(2.27231e-19 2.27641e-19 -0.00989422)
(1.54303e-19 2.37809e-19 -0.00988548)
(-4.08129e-19 2.4391e-19 -0.00987602)
(4.77314e-19 8.60375e-20 -0.00986584)
(3.75939e-19 9.16271e-19 -0.00985497)
(9.52631e-19 -8.0805e-19 -0.00984342)
(4.24169e-19 -2.01862e-19 -0.00983122)
(-1.55654e-20 -3.20177e-19 -0.0098184)
(-5.37661e-19 -4.18396e-19 -0.00980497)
(-4.76199e-19 -7.14769e-19 -0.00979097)
(-5.96319e-19 -5.47824e-19 -0.00977643)
(-1.35202e-18 -1.69918e-19 -0.0097614)
(-9.2395e-19 -1.288e-20 -0.00974589)
(-2.00326e-19 -2.71462e-19 -0.00972997)
(-9.67614e-19 -8.20799e-19 -0.00971365)
(-7.35315e-19 -5.27293e-19 -0.00967303)
(-2.44977e-22 9.05572e-20 -0.00968941)