/*--------------------------------*- C++ -*----------------------------------*\
  =========                 |
  \\      /  F ield         | OpenFOAM: The Open Source CFD Toolbox
   \\    /   O peration     | Website:  https://openfoam.org
    \\  /    A nd           | Version:  7
     \\/     M anipulation  |
\*---------------------------------------------------------------------------*/
FoamFile
{
    version     2.0;
    format      ascii;
    class       volScalarField;
    location    "164000";
    object      k;
}
// * * * * * * * * * * * * * * * * * * * * * * * * * * * * * * * * * * * * * //

dimensions      [0 2 -2 0 0 0 0];

internalField   nonuniform List<scalar> 
4783
(
5.06938e-07
5.04624e-07
5.02484e-07
5.00533e-07
4.98773e-07
4.97198e-07
4.95802e-07
4.94573e-07
4.93504e-07
4.92584e-07
4.91802e-07
4.91147e-07
4.90606e-07
4.90165e-07
4.89812e-07
4.89531e-07
4.8931e-07
4.89136e-07
4.89001e-07
4.88897e-07
4.88817e-07
4.88758e-07
5.10963e-07
5.08591e-07
5.06329e-07
5.04203e-07
5.02239e-07
5.00446e-07
4.98823e-07
4.97367e-07
4.96072e-07
4.94928e-07
4.93928e-07
4.93063e-07
4.92322e-07
4.91694e-07
4.91169e-07
4.90735e-07
4.9038e-07
4.90094e-07
4.89865e-07
4.89685e-07
4.89545e-07
4.89441e-07
5.1573e-07
5.13099e-07
5.10651e-07
5.08348e-07
5.06196e-07
5.04202e-07
5.02371e-07
5.00703e-07
4.99193e-07
4.97837e-07
4.96629e-07
4.9556e-07
4.94622e-07
4.93807e-07
4.93106e-07
4.92508e-07
4.92005e-07
4.91586e-07
4.91242e-07
4.90965e-07
4.90747e-07
4.9058e-07
5.21025e-07
5.18133e-07
5.15456e-07
5.1295e-07
5.10606e-07
5.08422e-07
5.06397e-07
5.04533e-07
5.02826e-07
5.01274e-07
4.99872e-07
4.98614e-07
4.97493e-07
4.96502e-07
4.95632e-07
4.94877e-07
4.94227e-07
4.93676e-07
4.93213e-07
4.92834e-07
4.92529e-07
4.92293e-07
5.26772e-07
5.23645e-07
5.20739e-07
5.1802e-07
5.15476e-07
5.131e-07
5.10888e-07
5.08837e-07
5.06946e-07
5.05212e-07
5.03631e-07
5.02198e-07
5.00907e-07
4.99752e-07
4.98728e-07
4.97826e-07
4.9704e-07
4.96364e-07
4.95789e-07
4.95311e-07
4.94922e-07
4.94618e-07
5.32932e-07
5.29593e-07
5.26472e-07
5.23544e-07
5.208e-07
5.18232e-07
5.15835e-07
5.13604e-07
5.11537e-07
5.0963e-07
5.07881e-07
5.06284e-07
5.04835e-07
5.0353e-07
5.02361e-07
5.01325e-07
5.00413e-07
4.99622e-07
4.98944e-07
4.98375e-07
4.9791e-07
4.97543e-07
5.39472e-07
5.35938e-07
5.32621e-07
5.29496e-07
5.26558e-07
5.23803e-07
5.21225e-07
5.18819e-07
5.16582e-07
5.14511e-07
5.12602e-07
5.10851e-07
5.09254e-07
5.07806e-07
5.06504e-07
5.05342e-07
5.04315e-07
5.03417e-07
5.02645e-07
5.01992e-07
5.01456e-07
5.01032e-07
5.46366e-07
5.42653e-07
5.39153e-07
5.35844e-07
5.32725e-07
5.29791e-07
5.27039e-07
5.24465e-07
5.22065e-07
5.19836e-07
5.17774e-07
5.15876e-07
5.14139e-07
5.12558e-07
5.1113e-07
5.0985e-07
5.08714e-07
5.07718e-07
5.06857e-07
5.06128e-07
5.05526e-07
5.05049e-07
5.53588e-07
5.49709e-07
5.46041e-07
5.42562e-07
5.39273e-07
5.36172e-07
5.33255e-07
5.3052e-07
5.27964e-07
5.25583e-07
5.23376e-07
5.21339e-07
5.19469e-07
5.17762e-07
5.16215e-07
5.14825e-07
5.13587e-07
5.12498e-07
5.11555e-07
5.10753e-07
5.1009e-07
5.09564e-07
5.61114e-07
5.57082e-07
5.53258e-07
5.49623e-07
5.46176e-07
5.42918e-07
5.39846e-07
5.36959e-07
5.34255e-07
5.31732e-07
5.29387e-07
5.27218e-07
5.25221e-07
5.23395e-07
5.21736e-07
5.20241e-07
5.18907e-07
5.17731e-07
5.1671e-07
5.15841e-07
5.15121e-07
5.14548e-07
5.6892e-07
5.64749e-07
5.60781e-07
5.57001e-07
5.53408e-07
5.50004e-07
5.46788e-07
5.43759e-07
5.40917e-07
5.38259e-07
5.35783e-07
5.33489e-07
5.31373e-07
5.29434e-07
5.27669e-07
5.26076e-07
5.24651e-07
5.23393e-07
5.22299e-07
5.21366e-07
5.20592e-07
5.19976e-07
5.76987e-07
5.72686e-07
5.68587e-07
5.64673e-07
5.60946e-07
5.57407e-07
5.54057e-07
5.50896e-07
5.47923e-07
5.45139e-07
5.42542e-07
5.4013e-07
5.37902e-07
5.35856e-07
5.33992e-07
5.32305e-07
5.30795e-07
5.2946e-07
5.28297e-07
5.27304e-07
5.2648e-07
5.25823e-07
5.85292e-07
5.80874e-07
5.76654e-07
5.72617e-07
5.68766e-07
5.65103e-07
5.61629e-07
5.58345e-07
5.55252e-07
5.5235e-07
5.49638e-07
5.47116e-07
5.44783e-07
5.42638e-07
5.4068e-07
5.38906e-07
5.37316e-07
5.35909e-07
5.34681e-07
5.33632e-07
5.32761e-07
5.32065e-07
5.93816e-07
5.89291e-07
5.84962e-07
5.80813e-07
5.76848e-07
5.7307e-07
5.69481e-07
5.66084e-07
5.6288e-07
5.59868e-07
5.5705e-07
5.54426e-07
5.51995e-07
5.49757e-07
5.47711e-07
5.45856e-07
5.44191e-07
5.42715e-07
5.41427e-07
5.40326e-07
5.3941e-07
5.38678e-07
6.02541e-07
5.97919e-07
5.9349e-07
5.89238e-07
5.85169e-07
5.81287e-07
5.77594e-07
5.74092e-07
5.70784e-07
5.67672e-07
5.64756e-07
5.62036e-07
5.59514e-07
5.5719e-07
5.55062e-07
5.53131e-07
5.51396e-07
5.49857e-07
5.48513e-07
5.47362e-07
6.11448e-07
6.0674e-07
6.02219e-07
5.97875e-07
5.93712e-07
5.89734e-07
5.85945e-07
5.82348e-07
5.78945e-07
5.7574e-07
5.72733e-07
5.69926e-07
5.67319e-07
5.64914e-07
5.62711e-07
5.6071e-07
5.5891e-07
5.57312e-07
5.55915e-07
6.20522e-07
6.15735e-07
6.11133e-07
6.06705e-07
6.02456e-07
5.98391e-07
5.94515e-07
5.90831e-07
5.87342e-07
5.84051e-07
5.80961e-07
5.78073e-07
5.75389e-07
5.7291e-07
5.70637e-07
5.6857e-07
5.6671e-07
6.29745e-07
6.24889e-07
6.20214e-07
6.15711e-07
6.11385e-07
6.07242e-07
6.03286e-07
5.99522e-07
5.95955e-07
5.92586e-07
5.8942e-07
5.86458e-07
5.83702e-07
5.81155e-07
6.39102e-07
6.34185e-07
6.29445e-07
6.24875e-07
6.2048e-07
6.16267e-07
6.1224e-07
6.08405e-07
6.04765e-07
6.01326e-07
5.9809e-07
5.95061e-07
6.48579e-07
6.43608e-07
6.38812e-07
6.34183e-07
6.29726e-07
6.2545e-07
6.21359e-07
6.1746e-07
6.13756e-07
6.10253e-07
6.58161e-07
6.53145e-07
6.48299e-07
6.43618e-07
6.39108e-07
6.34776e-07
6.30629e-07
6.26672e-07
6.22911e-07
6.67836e-07
6.62781e-07
6.57893e-07
6.53167e-07
6.4861e-07
6.44229e-07
6.40032e-07
6.36024e-07
6.77592e-07
6.72504e-07
6.67581e-07
6.62816e-07
6.58219e-07
6.53796e-07
6.49555e-07
6.87415e-07
6.82302e-07
6.77349e-07
6.72553e-07
6.67921e-07
6.63462e-07
6.97296e-07
6.92162e-07
6.87186e-07
6.82364e-07
6.77704e-07
6.73215e-07
7.07224e-07
7.02075e-07
6.97081e-07
6.92238e-07
6.87556e-07
7.17188e-07
7.1203e-07
7.07023e-07
7.02165e-07
7.27179e-07
7.22017e-07
7.17003e-07
7.12135e-07
7.37188e-07
7.32026e-07
7.27009e-07
7.47208e-07
7.4205e-07
7.37035e-07
7.57229e-07
7.5208e-07
7.47071e-07
7.67244e-07
7.62108e-07
7.57108e-07
7.77247e-07
7.72127e-07
7.67141e-07
7.8723e-07
7.8213e-07
7.7716e-07
7.97188e-07
7.92111e-07
7.87161e-07
8.07114e-07
8.02063e-07
7.97136e-07
8.17003e-07
8.11981e-07
8.0708e-07
8.2685e-07
8.21859e-07
8.16987e-07
8.36649e-07
8.31693e-07
8.26852e-07
8.46398e-07
8.41477e-07
8.36669e-07
8.56089e-07
8.51207e-07
8.46435e-07
8.65721e-07
8.60879e-07
8.56145e-07
5.06938e-07
5.10963e-07
5.1573e-07
5.21025e-07
5.26772e-07
5.32932e-07
5.39472e-07
5.46366e-07
5.53588e-07
5.61114e-07
5.6892e-07
5.76987e-07
5.85292e-07
5.93816e-07
6.02541e-07
6.11448e-07
6.20522e-07
6.29745e-07
6.39102e-07
6.48579e-07
6.58161e-07
6.67836e-07
6.77592e-07
6.87415e-07
6.97296e-07
7.07224e-07
7.17188e-07
7.27179e-07
7.37188e-07
7.47208e-07
7.57229e-07
7.67244e-07
7.77247e-07
7.8723e-07
7.97188e-07
8.07114e-07
8.17003e-07
8.2685e-07
8.36649e-07
8.46397e-07
8.56089e-07
8.65721e-07
5.04624e-07
5.08591e-07
5.13099e-07
5.18133e-07
5.23645e-07
5.29593e-07
5.35938e-07
5.42653e-07
5.49709e-07
5.57082e-07
5.64749e-07
5.72686e-07
5.80874e-07
5.89291e-07
5.97919e-07
6.0674e-07
6.15735e-07
6.24889e-07
6.34185e-07
6.43608e-07
6.53145e-07
6.62781e-07
6.72504e-07
6.82302e-07
6.92162e-07
7.02075e-07
7.1203e-07
7.22017e-07
7.32026e-07
7.4205e-07
7.5208e-07
7.62108e-07
7.72127e-07
7.8213e-07
7.92111e-07
8.02063e-07
8.11981e-07
8.21859e-07
8.31693e-07
8.41477e-07
8.51207e-07
8.60879e-07
5.02484e-07
5.06329e-07
5.10651e-07
5.15456e-07
5.20739e-07
5.26472e-07
5.32621e-07
5.39153e-07
5.46041e-07
5.53258e-07
5.60781e-07
5.68587e-07
5.76654e-07
5.84962e-07
5.9349e-07
6.02219e-07
6.11133e-07
6.20214e-07
6.29446e-07
6.38812e-07
6.48299e-07
6.57893e-07
6.67581e-07
6.77349e-07
6.87186e-07
6.97081e-07
7.07023e-07
7.17003e-07
7.2701e-07
7.37035e-07
7.47071e-07
7.57108e-07
7.67141e-07
7.7716e-07
7.87161e-07
7.97136e-07
8.0708e-07
8.16987e-07
8.26852e-07
8.36669e-07
8.46435e-07
8.56145e-07
5.00533e-07
5.04203e-07
5.08348e-07
5.1295e-07
5.1802e-07
5.23544e-07
5.29496e-07
5.35844e-07
5.42562e-07
5.49623e-07
5.57001e-07
5.64673e-07
5.72617e-07
5.80813e-07
5.89238e-07
5.97875e-07
6.06705e-07
6.15711e-07
6.24875e-07
6.34183e-07
6.43618e-07
6.53167e-07
6.62816e-07
6.72553e-07
6.82364e-07
6.92238e-07
7.02165e-07
7.12135e-07
7.22136e-07
7.32161e-07
7.42199e-07
7.52244e-07
7.62287e-07
7.72321e-07
7.8234e-07
7.92336e-07
8.02303e-07
8.12236e-07
8.22129e-07
8.31978e-07
8.41777e-07
8.51522e-07
4.98773e-07
5.02239e-07
5.06196e-07
5.10606e-07
5.15476e-07
5.208e-07
5.26558e-07
5.32725e-07
5.39273e-07
5.46176e-07
5.53408e-07
5.60946e-07
5.68766e-07
5.76848e-07
5.85169e-07
5.93712e-07
6.02456e-07
6.11385e-07
6.2048e-07
6.29727e-07
6.39108e-07
6.4861e-07
6.58219e-07
6.67921e-07
6.77704e-07
6.87556e-07
6.97466e-07
7.07422e-07
7.17416e-07
7.27437e-07
7.37477e-07
7.47526e-07
7.57578e-07
7.67624e-07
7.77657e-07
7.87671e-07
7.9766e-07
8.07617e-07
8.17536e-07
8.27413e-07
8.37243e-07
8.47021e-07
4.97198e-07
5.00446e-07
5.04202e-07
5.08422e-07
5.131e-07
5.18232e-07
5.23803e-07
5.29791e-07
5.36172e-07
5.42918e-07
5.50004e-07
5.57407e-07
5.65103e-07
5.7307e-07
5.81287e-07
5.89734e-07
5.98392e-07
6.07242e-07
6.16267e-07
6.2545e-07
6.34776e-07
6.44229e-07
6.53796e-07
6.63462e-07
6.73215e-07
6.83042e-07
6.92933e-07
7.02875e-07
7.12859e-07
7.22874e-07
7.32913e-07
7.42965e-07
7.53023e-07
7.63079e-07
7.73125e-07
7.83155e-07
7.93162e-07
8.0314e-07
8.13084e-07
8.22987e-07
8.32845e-07
8.42654e-07
4.95802e-07
4.98823e-07
5.02371e-07
5.06397e-07
5.10888e-07
5.15835e-07
5.21225e-07
5.27039e-07
5.33255e-07
5.39846e-07
5.46788e-07
5.54057e-07
5.61629e-07
5.69481e-07
5.77594e-07
5.85945e-07
5.94515e-07
6.03286e-07
6.1224e-07
6.21359e-07
6.30629e-07
6.40032e-07
6.49555e-07
6.59184e-07
6.68905e-07
6.78706e-07
6.88575e-07
6.98501e-07
7.08473e-07
7.18482e-07
7.28517e-07
7.3857e-07
7.48632e-07
7.58695e-07
7.68752e-07
7.78796e-07
7.8882e-07
7.98817e-07
8.08782e-07
8.1871e-07
8.28594e-07
8.38431e-07
4.94573e-07
4.97367e-07
5.00703e-07
5.04533e-07
5.08837e-07
5.13604e-07
5.18819e-07
5.24465e-07
5.3052e-07
5.36959e-07
5.43759e-07
5.50896e-07
5.58345e-07
5.66084e-07
5.74092e-07
5.82348e-07
5.90831e-07
5.99522e-07
6.08405e-07
6.1746e-07
6.26672e-07
6.36024e-07
6.45503e-07
6.55093e-07
6.64781e-07
6.74555e-07
6.84401e-07
6.9431e-07
7.04269e-07
7.14268e-07
7.24298e-07
7.3435e-07
7.44414e-07
7.54483e-07
7.64549e-07
7.74605e-07
7.84643e-07
7.94658e-07
8.04643e-07
8.14592e-07
8.245e-07
8.34363e-07
4.93504e-07
4.96072e-07
4.99193e-07
5.02826e-07
5.06946e-07
5.11537e-07
5.16582e-07
5.22065e-07
5.27964e-07
5.34255e-07
5.40917e-07
5.47923e-07
5.55252e-07
5.6288e-07
5.70784e-07
5.78945e-07
5.87342e-07
5.95955e-07
6.04765e-07
6.13756e-07
6.22911e-07
6.32212e-07
6.41646e-07
6.51197e-07
6.60851e-07
6.70596e-07
6.80419e-07
6.90308e-07
7.00253e-07
7.10242e-07
7.20266e-07
7.30315e-07
7.4038e-07
7.50453e-07
7.60526e-07
7.70591e-07
7.80642e-07
7.90672e-07
8.00674e-07
8.10644e-07
8.20574e-07
8.3046e-07
4.92584e-07
4.94928e-07
4.97837e-07
5.01274e-07
5.05212e-07
5.0963e-07
5.14511e-07
5.19836e-07
5.25583e-07
5.31732e-07
5.38259e-07
5.45139e-07
5.5235e-07
5.59868e-07
5.67672e-07
5.7574e-07
5.84051e-07
5.92586e-07
6.01326e-07
6.10253e-07
6.1935e-07
6.28601e-07
6.37989e-07
6.47501e-07
6.57121e-07
6.66837e-07
6.76635e-07
6.86505e-07
6.96434e-07
7.06411e-07
7.16427e-07
7.26472e-07
7.36537e-07
7.46612e-07
7.56691e-07
7.66764e-07
7.76826e-07
7.86869e-07
7.96888e-07
8.06875e-07
8.16825e-07
8.26733e-07
4.91802e-07
4.93928e-07
4.96629e-07
4.99872e-07
5.03631e-07
5.07881e-07
5.12602e-07
5.17774e-07
5.23376e-07
5.29387e-07
5.35783e-07
5.42542e-07
5.49638e-07
5.5705e-07
5.64756e-07
5.72733e-07
5.80961e-07
5.8942e-07
5.98091e-07
6.06955e-07
6.15995e-07
6.25195e-07
6.34539e-07
6.44011e-07
6.53597e-07
6.63283e-07
6.73057e-07
6.82906e-07
6.92819e-07
7.02784e-07
7.12791e-07
7.22831e-07
7.32893e-07
7.4297e-07
7.53052e-07
7.63133e-07
7.73204e-07
7.83259e-07
7.93291e-07
8.03294e-07
8.13262e-07
8.2319e-07
4.91147e-07
4.93063e-07
4.9556e-07
4.98614e-07
5.02198e-07
5.06284e-07
5.10851e-07
5.15876e-07
5.21339e-07
5.27218e-07
5.33489e-07
5.4013e-07
5.47116e-07
5.54426e-07
5.62036e-07
5.69926e-07
5.78073e-07
5.86458e-07
5.95061e-07
6.03864e-07
6.1285e-07
6.22e-07
6.31299e-07
6.40732e-07
6.50284e-07
6.59942e-07
6.69691e-07
6.79519e-07
6.89415e-07
6.99367e-07
7.09365e-07
7.19398e-07
7.29458e-07
7.39534e-07
7.49619e-07
7.59705e-07
7.69784e-07
7.79849e-07
7.89894e-07
7.99911e-07
8.09896e-07
8.19842e-07
8.29744e-07
4.90606e-07
4.92322e-07
4.94622e-07
4.97493e-07
5.00907e-07
5.04835e-07
5.09254e-07
5.14139e-07
5.19469e-07
5.25221e-07
5.31373e-07
5.37902e-07
5.44783e-07
5.51995e-07
5.59514e-07
5.67319e-07
5.75389e-07
5.83703e-07
5.92241e-07
6.00985e-07
6.09916e-07
6.19019e-07
6.28275e-07
6.3767e-07
6.47189e-07
6.56817e-07
6.66541e-07
6.76349e-07
6.86228e-07
6.96167e-07
7.06155e-07
7.16181e-07
7.26237e-07
7.36313e-07
7.46399e-07
7.56489e-07
7.66575e-07
7.76649e-07
7.86704e-07
7.96734e-07
8.06733e-07
8.16695e-07
8.26615e-07
8.36489e-07
4.90165e-07
4.91694e-07
4.93807e-07
4.96502e-07
4.99752e-07
5.0353e-07
5.07806e-07
5.12558e-07
5.17762e-07
5.23395e-07
5.29434e-07
5.35856e-07
5.42638e-07
5.49757e-07
5.5719e-07
5.64914e-07
5.7291e-07
5.81156e-07
5.89631e-07
5.98319e-07
6.07199e-07
6.16255e-07
6.2547e-07
6.34829e-07
6.44315e-07
6.53915e-07
6.63615e-07
6.73402e-07
6.83264e-07
6.9319e-07
7.03167e-07
7.13187e-07
7.23238e-07
7.33312e-07
7.43399e-07
7.53493e-07
7.63583e-07
7.73665e-07
7.83729e-07
7.9377e-07
8.03783e-07
8.13759e-07
8.23696e-07
8.33586e-07
4.89812e-07
4.91169e-07
4.93106e-07
4.95632e-07
4.98728e-07
5.02361e-07
5.06504e-07
5.1113e-07
5.16215e-07
5.21736e-07
5.27669e-07
5.33992e-07
5.4068e-07
5.47711e-07
5.55062e-07
5.62711e-07
5.70637e-07
5.78818e-07
5.87235e-07
5.95869e-07
6.047e-07
6.13712e-07
6.22888e-07
6.32211e-07
6.41667e-07
6.5124e-07
6.60916e-07
6.70684e-07
6.80529e-07
6.90441e-07
7.00409e-07
7.1042e-07
7.20467e-07
7.30538e-07
7.40626e-07
7.50721e-07
7.60817e-07
7.70904e-07
7.80977e-07
7.91028e-07
8.01052e-07
8.11042e-07
8.20992e-07
8.30899e-07
8.40756e-07
4.89531e-07
4.90735e-07
4.92508e-07
4.94877e-07
4.97826e-07
5.01325e-07
5.05342e-07
5.0985e-07
5.14825e-07
5.20241e-07
5.26076e-07
5.32305e-07
5.38906e-07
5.45856e-07
5.53131e-07
5.6071e-07
5.6857e-07
5.76691e-07
5.85053e-07
5.93637e-07
6.02422e-07
6.11393e-07
6.20532e-07
6.29822e-07
6.39248e-07
6.48795e-07
6.5845e-07
6.68198e-07
6.78028e-07
6.87927e-07
6.97884e-07
7.07888e-07
7.17929e-07
7.27998e-07
7.38085e-07
7.48182e-07
7.58281e-07
7.68374e-07
7.78453e-07
7.88513e-07
7.98547e-07
8.08549e-07
8.18512e-07
8.28433e-07
8.38305e-07
4.8931e-07
4.9038e-07
4.92005e-07
4.94227e-07
4.9704e-07
5.00413e-07
5.04315e-07
5.08715e-07
5.13587e-07
5.18907e-07
5.24651e-07
5.30795e-07
5.37317e-07
5.44191e-07
5.51397e-07
5.5891e-07
5.66711e-07
5.74776e-07
5.83087e-07
5.91624e-07
6.00368e-07
6.093e-07
6.18404e-07
6.27663e-07
6.37062e-07
6.46585e-07
6.56219e-07
6.65949e-07
6.75764e-07
6.85651e-07
6.95598e-07
7.05595e-07
7.15631e-07
7.25697e-07
7.35783e-07
7.45881e-07
7.55982e-07
7.66079e-07
7.76165e-07
7.86232e-07
7.96275e-07
8.06287e-07
8.16262e-07
8.26195e-07
8.36081e-07
8.45915e-07
4.89136e-07
4.90094e-07
4.91586e-07
4.93676e-07
4.96364e-07
4.99622e-07
5.03417e-07
5.07718e-07
5.12498e-07
5.17731e-07
5.23393e-07
5.2946e-07
5.35909e-07
5.42715e-07
5.49857e-07
5.57312e-07
5.65058e-07
5.73073e-07
5.81338e-07
5.89832e-07
5.98537e-07
6.07435e-07
6.16507e-07
6.25738e-07
6.35112e-07
6.44613e-07
6.54227e-07
6.63941e-07
6.73742e-07
6.83617e-07
6.93555e-07
7.03545e-07
7.13576e-07
7.23639e-07
7.33724e-07
7.43822e-07
7.53926e-07
7.64026e-07
7.74117e-07
7.84191e-07
7.94241e-07
8.04262e-07
8.14247e-07
8.24191e-07
8.34089e-07
8.43936e-07
8.53728e-07
4.89001e-07
4.89865e-07
4.91242e-07
4.93214e-07
4.95789e-07
4.98944e-07
5.02645e-07
5.06858e-07
5.11555e-07
5.1671e-07
5.22299e-07
5.28297e-07
5.34681e-07
5.41427e-07
5.48513e-07
5.55915e-07
5.63612e-07
5.71583e-07
5.79806e-07
5.88263e-07
5.96933e-07
6.05799e-07
6.14843e-07
6.24049e-07
6.334e-07
6.42881e-07
6.52478e-07
6.62177e-07
6.71966e-07
6.8183e-07
6.9176e-07
7.01743e-07
7.11769e-07
7.21829e-07
7.31913e-07
7.42011e-07
7.52116e-07
7.6222e-07
7.72315e-07
7.82394e-07
7.9245e-07
8.02479e-07
8.12472e-07
8.22426e-07
8.32334e-07
8.42193e-07
8.51997e-07
4.88897e-07
4.89685e-07
4.90965e-07
4.92834e-07
4.95311e-07
4.98375e-07
5.01992e-07
5.06128e-07
5.10753e-07
5.15841e-07
5.21366e-07
5.27304e-07
5.33632e-07
5.40326e-07
5.47362e-07
5.54719e-07
5.62374e-07
5.70305e-07
5.78492e-07
5.86916e-07
5.95556e-07
6.04394e-07
6.13414e-07
6.22597e-07
6.31929e-07
6.41393e-07
6.50974e-07
6.6066e-07
6.70437e-07
6.80293e-07
6.90215e-07
7.00192e-07
7.10214e-07
7.20271e-07
7.30353e-07
7.40451e-07
7.50557e-07
7.60663e-07
7.70762e-07
7.80845e-07
7.90907e-07
8.00942e-07
8.10943e-07
8.20905e-07
8.30822e-07
8.4069e-07
8.50504e-07
4.88817e-07
4.89545e-07
4.90747e-07
4.92529e-07
4.94922e-07
4.9791e-07
5.01456e-07
5.05526e-07
5.1009e-07
5.15121e-07
5.20592e-07
5.2648e-07
5.32761e-07
5.3941e-07
5.46405e-07
5.53723e-07
5.61342e-07
5.6924e-07
5.77397e-07
5.85792e-07
5.94407e-07
6.03222e-07
6.12221e-07
6.21386e-07
6.307e-07
6.40149e-07
6.49718e-07
6.59393e-07
6.6916e-07
6.79007e-07
6.88923e-07
6.98895e-07
7.08913e-07
7.18967e-07
7.29048e-07
7.39146e-07
7.49253e-07
7.59361e-07
7.69462e-07
7.79549e-07
7.89616e-07
7.99656e-07
8.09662e-07
8.19631e-07
8.29555e-07
8.39431e-07
8.49254e-07
4.88758e-07
4.89441e-07
4.9058e-07
4.92293e-07
4.94618e-07
4.97543e-07
5.01032e-07
5.05049e-07
5.09564e-07
5.14548e-07
5.19976e-07
5.25823e-07
5.32065e-07
5.38679e-07
5.4564e-07
5.52927e-07
5.60517e-07
5.68388e-07
5.7652e-07
5.84893e-07
5.93487e-07
6.02284e-07
6.11265e-07
6.20414e-07
6.29715e-07
6.39152e-07
6.4871e-07
6.58376e-07
6.68135e-07
6.77976e-07
6.87886e-07
6.97854e-07
7.07869e-07
7.17921e-07
7.28001e-07
7.38099e-07
7.48206e-07
7.58315e-07
7.68419e-07
7.78509e-07
7.88579e-07
7.98623e-07
8.08634e-07
8.18608e-07
8.28538e-07
8.3842e-07
8.4825e-07
8.58022e-07
4.88717e-07
4.89367e-07
4.9046e-07
4.9212e-07
4.94395e-07
4.97271e-07
5.00717e-07
5.04694e-07
5.09171e-07
5.1412e-07
5.19515e-07
5.25332e-07
5.31545e-07
5.38131e-07
5.45067e-07
5.5233e-07
5.59898e-07
5.67749e-07
5.75863e-07
5.84218e-07
5.92797e-07
6.01579e-07
6.10548e-07
6.19685e-07
6.28976e-07
6.38403e-07
6.47954e-07
6.57612e-07
6.67366e-07
6.77201e-07
6.87107e-07
6.97072e-07
7.07084e-07
7.17135e-07
7.27213e-07
7.37311e-07
7.47419e-07
7.57529e-07
7.67634e-07
7.77726e-07
7.87799e-07
7.97846e-07
8.07861e-07
8.17838e-07
8.27773e-07
8.3766e-07
8.47494e-07
8.57272e-07
4.8869e-07
4.89319e-07
4.90382e-07
4.92008e-07
4.94247e-07
4.97092e-07
5.00508e-07
5.04458e-07
5.0891e-07
5.13836e-07
5.19209e-07
5.25004e-07
5.31198e-07
5.37766e-07
5.44685e-07
5.51932e-07
5.59486e-07
5.67323e-07
5.75424e-07
5.83768e-07
5.92336e-07
6.01109e-07
6.10069e-07
6.19199e-07
6.28482e-07
6.37904e-07
6.47448e-07
6.57102e-07
6.66852e-07
6.76684e-07
6.86587e-07
6.96549e-07
7.0656e-07
7.1661e-07
7.26688e-07
7.36785e-07
7.46893e-07
7.57004e-07
7.6711e-07
7.77203e-07
7.87278e-07
7.97327e-07
8.07344e-07
8.17324e-07
8.27262e-07
8.37152e-07
8.4699e-07
8.56771e-07
8.66491e-07
4.88677e-07
4.89296e-07
4.90344e-07
4.91952e-07
4.94174e-07
4.97003e-07
5.00404e-07
5.04341e-07
5.0878e-07
5.13694e-07
5.19056e-07
5.24841e-07
5.31025e-07
5.37584e-07
5.44494e-07
5.51734e-07
5.5928e-07
5.6711e-07
5.75205e-07
5.83543e-07
5.92106e-07
6.00874e-07
6.09829e-07
6.18955e-07
6.28235e-07
6.37654e-07
6.47196e-07
6.56847e-07
6.66594e-07
6.76425e-07
6.86327e-07
6.96288e-07
7.06298e-07
7.16347e-07
7.26424e-07
7.36522e-07
7.4663e-07
7.56741e-07
7.66847e-07
7.76942e-07
7.87017e-07
7.97067e-07
8.07085e-07
8.17067e-07
8.27006e-07
8.36897e-07
8.46737e-07
8.5652e-07
8.66242e-07
4.88677e-07
4.89296e-07
4.90344e-07
4.91952e-07
4.94174e-07
4.97003e-07
5.00404e-07
5.04341e-07
5.0878e-07
5.13694e-07
5.19056e-07
5.24841e-07
5.31025e-07
5.37584e-07
5.44494e-07
5.51734e-07
5.5928e-07
5.6711e-07
5.75205e-07
5.83543e-07
5.92106e-07
6.00874e-07
6.09829e-07
6.18955e-07
6.28235e-07
6.37654e-07
6.47196e-07
6.56847e-07
6.66594e-07
6.76425e-07
6.86327e-07
6.96288e-07
7.06298e-07
7.16347e-07
7.26424e-07
7.36522e-07
7.4663e-07
7.56741e-07
7.66847e-07
7.76942e-07
7.87017e-07
7.97067e-07
8.07085e-07
8.17067e-07
8.27006e-07
8.36897e-07
8.46737e-07
8.5652e-07
8.66242e-07
8.75899e-07
4.8869e-07
4.89319e-07
4.90382e-07
4.92008e-07
4.94247e-07
4.97092e-07
5.00508e-07
5.04458e-07
5.0891e-07
5.13836e-07
5.19209e-07
5.25004e-07
5.31198e-07
5.37766e-07
5.44685e-07
5.51932e-07
5.59486e-07
5.67323e-07
5.75424e-07
5.83768e-07
5.92336e-07
6.01109e-07
6.10069e-07
6.19199e-07
6.28482e-07
6.37904e-07
6.47448e-07
6.57102e-07
6.66852e-07
6.76684e-07
6.86587e-07
6.96549e-07
7.0656e-07
7.1661e-07
7.26688e-07
7.36785e-07
7.46893e-07
7.57004e-07
7.6711e-07
7.77203e-07
7.87278e-07
7.97327e-07
8.07344e-07
8.17324e-07
8.27262e-07
8.37152e-07
8.4699e-07
8.56771e-07
8.66491e-07
8.76146e-07
4.88717e-07
4.89367e-07
4.9046e-07
4.9212e-07
4.94395e-07
4.97271e-07
5.00717e-07
5.04694e-07
5.09171e-07
5.1412e-07
5.19515e-07
5.25331e-07
5.31545e-07
5.38131e-07
5.45067e-07
5.5233e-07
5.59898e-07
5.67749e-07
5.75863e-07
5.84218e-07
5.92797e-07
6.01579e-07
6.10547e-07
6.19685e-07
6.28976e-07
6.38403e-07
6.47954e-07
6.57612e-07
6.67365e-07
6.77201e-07
6.87107e-07
6.97072e-07
7.07084e-07
7.17135e-07
7.27213e-07
7.37311e-07
7.47419e-07
7.57529e-07
7.67634e-07
7.77726e-07
7.87799e-07
7.97846e-07
8.07861e-07
8.17838e-07
8.27773e-07
8.3766e-07
8.47494e-07
8.57272e-07
8.66988e-07
8.76639e-07
4.88758e-07
4.89441e-07
4.9058e-07
4.92293e-07
4.94618e-07
4.97543e-07
5.01032e-07
5.05049e-07
5.09564e-07
5.14548e-07
5.19976e-07
5.25823e-07
5.32065e-07
5.38679e-07
5.4564e-07
5.52927e-07
5.60517e-07
5.68388e-07
5.7652e-07
5.84893e-07
5.93487e-07
6.02284e-07
6.11265e-07
6.20414e-07
6.29715e-07
6.39152e-07
6.4871e-07
6.58376e-07
6.68135e-07
6.77976e-07
6.87886e-07
6.97854e-07
7.07869e-07
7.17921e-07
7.28001e-07
7.38099e-07
7.48206e-07
7.58315e-07
7.68419e-07
7.78509e-07
7.88579e-07
7.98623e-07
8.08634e-07
8.18608e-07
8.28538e-07
8.3842e-07
8.4825e-07
8.58022e-07
8.67732e-07
8.77378e-07
4.88817e-07
4.89545e-07
4.90747e-07
4.92529e-07
4.94922e-07
4.9791e-07
5.01456e-07
5.05526e-07
5.1009e-07
5.15121e-07
5.20592e-07
5.2648e-07
5.32761e-07
5.3941e-07
5.46405e-07
5.53723e-07
5.61342e-07
5.6924e-07
5.77397e-07
5.85792e-07
5.94407e-07
6.03222e-07
6.12221e-07
6.21385e-07
6.307e-07
6.40149e-07
6.49718e-07
6.59392e-07
6.6916e-07
6.79007e-07
6.88922e-07
6.98895e-07
7.08913e-07
7.18967e-07
7.29048e-07
7.39146e-07
7.49253e-07
7.59361e-07
7.69462e-07
7.79549e-07
7.89616e-07
7.99656e-07
8.09662e-07
8.19631e-07
8.29555e-07
8.39431e-07
8.49254e-07
8.59019e-07
8.68722e-07
8.78359e-07
4.88897e-07
4.89685e-07
4.90965e-07
4.92834e-07
4.95311e-07
4.98375e-07
5.01992e-07
5.06128e-07
5.10753e-07
5.15841e-07
5.21366e-07
5.27304e-07
5.33632e-07
5.40326e-07
5.47362e-07
5.54719e-07
5.62373e-07
5.70305e-07
5.78492e-07
5.86916e-07
5.95556e-07
6.04394e-07
6.13414e-07
6.22597e-07
6.31929e-07
6.41392e-07
6.50974e-07
6.6066e-07
6.70437e-07
6.80293e-07
6.90214e-07
7.00192e-07
7.10214e-07
7.20271e-07
7.30353e-07
7.40451e-07
7.50557e-07
7.60663e-07
7.70762e-07
7.80845e-07
7.90907e-07
8.00942e-07
8.10943e-07
8.20904e-07
8.30822e-07
8.4069e-07
8.50504e-07
8.6026e-07
8.69953e-07
8.79581e-07
4.89001e-07
4.89865e-07
4.91242e-07
4.93213e-07
4.95789e-07
4.98944e-07
5.02645e-07
5.06857e-07
5.11555e-07
5.1671e-07
5.22299e-07
5.28297e-07
5.34681e-07
5.41427e-07
5.48513e-07
5.55915e-07
5.63612e-07
5.71583e-07
5.79806e-07
5.88262e-07
5.96933e-07
6.05799e-07
6.14843e-07
6.24049e-07
6.334e-07
6.42881e-07
6.52478e-07
6.62177e-07
6.71965e-07
6.8183e-07
6.9176e-07
7.01743e-07
7.11769e-07
7.21829e-07
7.31912e-07
7.42011e-07
7.52116e-07
7.6222e-07
7.72315e-07
7.82394e-07
7.9245e-07
8.02479e-07
8.12472e-07
8.22426e-07
8.32334e-07
8.42193e-07
8.51997e-07
8.61742e-07
8.71424e-07
8.8104e-07
4.89136e-07
4.90094e-07
4.91586e-07
4.93676e-07
4.96364e-07
4.99622e-07
5.03417e-07
5.07718e-07
5.12498e-07
5.17731e-07
5.23393e-07
5.2946e-07
5.35909e-07
5.42715e-07
5.49857e-07
5.57312e-07
5.65058e-07
5.73073e-07
5.81338e-07
5.89832e-07
5.98537e-07
6.07434e-07
6.16507e-07
6.25738e-07
6.35111e-07
6.44613e-07
6.54227e-07
6.63941e-07
6.73742e-07
6.83617e-07
6.93555e-07
7.03545e-07
7.13576e-07
7.23639e-07
7.33724e-07
7.43822e-07
7.53926e-07
7.64026e-07
7.74117e-07
7.84191e-07
7.94241e-07
8.04262e-07
8.14247e-07
8.24191e-07
8.34089e-07
8.43936e-07
8.53728e-07
8.63461e-07
8.73129e-07
8.82731e-07
4.8931e-07
4.9038e-07
4.92005e-07
4.94227e-07
4.9704e-07
5.00413e-07
5.04315e-07
5.08714e-07
5.13587e-07
5.18907e-07
5.24651e-07
5.30795e-07
5.37316e-07
5.44191e-07
5.51396e-07
5.5891e-07
5.6671e-07
5.74776e-07
5.83087e-07
5.91624e-07
6.00367e-07
6.093e-07
6.18404e-07
6.27663e-07
6.37062e-07
6.46585e-07
6.56219e-07
6.65949e-07
6.75764e-07
6.85651e-07
6.95598e-07
7.05595e-07
7.15631e-07
7.25697e-07
7.35783e-07
7.45881e-07
7.55982e-07
7.66079e-07
7.76165e-07
7.86232e-07
7.96275e-07
8.06287e-07
8.16262e-07
8.26195e-07
8.36081e-07
8.45915e-07
8.55694e-07
8.65411e-07
8.75065e-07
8.8465e-07
4.89531e-07
4.90735e-07
4.92508e-07
4.94877e-07
4.97826e-07
5.01325e-07
5.05342e-07
5.0985e-07
5.14825e-07
5.20241e-07
5.26076e-07
5.32305e-07
5.38906e-07
5.45856e-07
5.53131e-07
5.6071e-07
5.6857e-07
5.76691e-07
5.85053e-07
5.93636e-07
6.02422e-07
6.11393e-07
6.20531e-07
6.29821e-07
6.39248e-07
6.48795e-07
6.58449e-07
6.68198e-07
6.78028e-07
6.87927e-07
6.97884e-07
7.07888e-07
7.17929e-07
7.27998e-07
7.38085e-07
7.48182e-07
7.58281e-07
7.68374e-07
7.78453e-07
7.88513e-07
7.98547e-07
8.08548e-07
8.18512e-07
8.28433e-07
8.38305e-07
8.48125e-07
8.57888e-07
8.67589e-07
8.77225e-07
8.86793e-07
4.89812e-07
4.91169e-07
4.93106e-07
4.95632e-07
4.98728e-07
5.02361e-07
5.06504e-07
5.1113e-07
5.16215e-07
5.21736e-07
5.27669e-07
5.33991e-07
5.4068e-07
5.47711e-07
5.55062e-07
5.62711e-07
5.70637e-07
5.78818e-07
5.87235e-07
5.95869e-07
6.047e-07
6.13712e-07
6.22888e-07
6.32211e-07
6.41666e-07
6.51239e-07
6.60916e-07
6.70684e-07
6.80529e-07
6.90441e-07
7.00408e-07
7.1042e-07
7.20467e-07
7.30538e-07
7.40626e-07
7.50721e-07
7.60816e-07
7.70904e-07
7.80977e-07
7.91028e-07
8.01051e-07
8.11041e-07
8.20992e-07
8.30899e-07
8.40756e-07
8.50559e-07
8.60304e-07
8.69987e-07
8.79604e-07
8.89152e-07
4.90165e-07
4.91694e-07
4.93807e-07
4.96502e-07
4.99752e-07
5.0353e-07
5.07806e-07
5.12558e-07
5.17762e-07
5.23395e-07
5.29434e-07
5.35856e-07
5.42638e-07
5.49757e-07
5.57189e-07
5.64914e-07
5.7291e-07
5.81155e-07
5.89631e-07
5.98319e-07
6.07199e-07
6.16255e-07
6.2547e-07
6.34828e-07
6.44315e-07
6.53915e-07
6.63615e-07
6.73402e-07
6.83264e-07
6.9319e-07
7.03167e-07
7.13186e-07
7.23238e-07
7.33312e-07
7.43399e-07
7.53492e-07
7.63583e-07
7.73664e-07
7.83729e-07
7.9377e-07
8.03782e-07
8.13759e-07
8.23696e-07
8.33586e-07
8.43426e-07
8.53212e-07
8.62937e-07
8.726e-07
8.82196e-07
8.91721e-07
4.90606e-07
4.92322e-07
4.94622e-07
4.97493e-07
5.00907e-07
5.04835e-07
5.09254e-07
5.14139e-07
5.19469e-07
5.25221e-07
5.31373e-07
5.37902e-07
5.44783e-07
5.51995e-07
5.59514e-07
5.67319e-07
5.75389e-07
5.83702e-07
5.92241e-07
6.00984e-07
6.09916e-07
6.19019e-07
6.28275e-07
6.3767e-07
6.47189e-07
6.56817e-07
6.66541e-07
6.76349e-07
6.86228e-07
6.96167e-07
7.06154e-07
7.16181e-07
7.26237e-07
7.36312e-07
7.46399e-07
7.56489e-07
7.66575e-07
7.76649e-07
7.86704e-07
7.96734e-07
8.06733e-07
8.16695e-07
8.26615e-07
8.36488e-07
8.4631e-07
8.56075e-07
8.65779e-07
8.75419e-07
8.84992e-07
8.94492e-07
4.91147e-07
4.93063e-07
4.9556e-07
4.98614e-07
5.02198e-07
5.06284e-07
5.1085e-07
5.15876e-07
5.21339e-07
5.27218e-07
5.33489e-07
5.4013e-07
5.47116e-07
5.54426e-07
5.62036e-07
5.69925e-07
5.78073e-07
5.86458e-07
5.95061e-07
6.03864e-07
6.12849e-07
6.22e-07
6.31299e-07
6.40732e-07
6.50284e-07
6.59941e-07
6.6969e-07
6.79519e-07
6.89415e-07
6.99367e-07
7.09365e-07
7.19398e-07
7.29457e-07
7.39534e-07
7.49619e-07
7.59705e-07
7.69784e-07
7.79849e-07
7.89894e-07
7.99911e-07
8.09895e-07
8.19841e-07
8.29744e-07
8.39597e-07
8.49398e-07
8.59141e-07
8.68822e-07
8.78438e-07
8.87985e-07
8.97459e-07
4.91802e-07
4.93928e-07
4.96629e-07
4.99872e-07
5.03631e-07
5.07881e-07
5.12602e-07
5.17774e-07
5.23376e-07
5.29387e-07
5.35783e-07
5.42541e-07
5.49638e-07
5.5705e-07
5.64755e-07
5.72733e-07
5.8096e-07
5.89419e-07
5.9809e-07
6.06955e-07
6.15995e-07
6.25195e-07
6.34539e-07
6.44011e-07
6.53597e-07
6.63283e-07
6.73057e-07
6.82906e-07
6.92819e-07
7.02784e-07
7.12791e-07
7.22831e-07
7.32893e-07
7.4297e-07
7.53052e-07
7.63133e-07
7.73204e-07
7.83259e-07
7.93291e-07
8.03294e-07
8.13262e-07
8.2319e-07
8.33073e-07
8.42905e-07
8.52683e-07
8.62402e-07
8.72058e-07
8.81647e-07
8.91166e-07
9.00612e-07
4.92584e-07
4.94928e-07
4.97837e-07
5.01274e-07
5.05212e-07
5.0963e-07
5.14511e-07
5.19835e-07
5.25583e-07
5.31732e-07
5.38259e-07
5.45139e-07
5.5235e-07
5.59868e-07
5.67672e-07
5.75739e-07
5.84051e-07
5.92586e-07
6.01326e-07
6.10253e-07
6.1935e-07
6.28601e-07
6.37989e-07
6.475e-07
6.57121e-07
6.66836e-07
6.76635e-07
6.86505e-07
6.96434e-07
7.06411e-07
7.16427e-07
7.26472e-07
7.36536e-07
7.46612e-07
7.5669e-07
7.66764e-07
7.76826e-07
7.86869e-07
7.96887e-07
8.06874e-07
8.16825e-07
8.26733e-07
8.36594e-07
8.46403e-07
8.56156e-07
8.65849e-07
8.75477e-07
8.85038e-07
8.94527e-07
9.03942e-07
4.93504e-07
4.96072e-07
4.99193e-07
5.02826e-07
5.06946e-07
5.11537e-07
5.16582e-07
5.22065e-07
5.27963e-07
5.34255e-07
5.40917e-07
5.47923e-07
5.55252e-07
5.62879e-07
5.70784e-07
5.78945e-07
5.87342e-07
5.95954e-07
6.04765e-07
6.13756e-07
6.2291e-07
6.32212e-07
6.41645e-07
6.51196e-07
6.60851e-07
6.70596e-07
6.80419e-07
6.90308e-07
7.00253e-07
7.10242e-07
7.20265e-07
7.30314e-07
7.40379e-07
7.50453e-07
7.60526e-07
7.70591e-07
7.80642e-07
7.90672e-07
8.00674e-07
8.10643e-07
8.20574e-07
8.3046e-07
8.40297e-07
8.50081e-07
8.59808e-07
8.69472e-07
8.79071e-07
8.88601e-07
8.98058e-07
9.07439e-07
4.94573e-07
4.97367e-07
5.00703e-07
5.04533e-07
5.08837e-07
5.13604e-07
5.18819e-07
5.24465e-07
5.3052e-07
5.36959e-07
5.43759e-07
5.50896e-07