/*--------------------------------*- C++ -*----------------------------------*\
  =========                 |
  \\      /  F ield         | OpenFOAM: The Open Source CFD Toolbox
   \\    /   O peration     | Website:  https://openfoam.org
    \\  /    A nd           | Version:  7
     \\/     M anipulation  |
\*---------------------------------------------------------------------------*/
FoamFile
{
    version     2.0;
    format      ascii;
    class       volScalarField;
    location    "52000";
    object      nut;
}
// * * * * * * * * * * * * * * * * * * * * * * * * * * * * * * * * * * * * * //

dimensions      [0 2 -1 0 0 0 0];

internalField   nonuniform List<scalar> 
4838
(
9.4918e-14
9.47887e-14
9.46685e-14
9.4555e-14
9.44476e-14
9.43461e-14
9.42503e-14
9.41599e-14
9.40748e-14
9.3995e-14
9.39204e-14
9.38509e-14
9.37865e-14
9.37271e-14
9.36726e-14
9.36232e-14
9.35787e-14
9.3539e-14
9.35043e-14
9.34744e-14
9.34493e-14
9.34292e-14
9.34138e-14
9.34033e-14
9.33976e-14
9.33967e-14
9.34006e-14
9.34093e-14
9.34229e-14
9.34413e-14
9.34645e-14
9.34927e-14
9.35256e-14
9.35635e-14
9.36063e-14
9.3654e-14
9.37067e-14
9.37644e-14
9.38272e-14
9.3895e-14
9.39679e-14
9.4046e-14
9.41295e-14
9.42182e-14
9.43125e-14
9.44124e-14
9.45183e-14
9.46304e-14
9.47492e-14
9.48763e-14
9.51439e-14
9.50191e-14
9.48999e-14
9.47863e-14
9.46785e-14
9.45764e-14
9.448e-14
9.43891e-14
9.43036e-14
9.42235e-14
9.41485e-14
9.40787e-14
9.4014e-14
9.39544e-14
9.38998e-14
9.38502e-14
9.38054e-14
9.37657e-14
9.37308e-14
9.37008e-14
9.36756e-14
9.36553e-14
9.36399e-14
9.36293e-14
9.36235e-14
9.36226e-14
9.36265e-14
9.36352e-14
9.36488e-14
9.36672e-14
9.36905e-14
9.37187e-14
9.37517e-14
9.37897e-14
9.38326e-14
9.38804e-14
9.39333e-14
9.39911e-14
9.40541e-14
9.41221e-14
9.41953e-14
9.42738e-14
9.43577e-14
9.44469e-14
9.45417e-14
9.46422e-14
9.47486e-14
9.48608e-14
9.49786e-14
9.51015e-14
9.53802e-14
9.52545e-14
9.51356e-14
9.5022e-14
9.4914e-14
9.48116e-14
9.47148e-14
9.46234e-14
9.45376e-14
9.4457e-14
9.43818e-14
9.43117e-14
9.42468e-14
9.41869e-14
9.41321e-14
9.40822e-14
9.40373e-14
9.39974e-14
9.39624e-14
9.39322e-14
9.3907e-14
9.38866e-14
9.3871e-14
9.38604e-14
9.38545e-14
9.38536e-14
9.38574e-14
9.38662e-14
9.38797e-14
9.38982e-14
9.39215e-14
9.39497e-14
9.39828e-14
9.40209e-14
9.40639e-14
9.41119e-14
9.41649e-14
9.42229e-14
9.42861e-14
9.43544e-14
9.44279e-14
9.45068e-14
9.45909e-14
9.46806e-14
9.47758e-14
9.48767e-14
9.49833e-14
9.50954e-14
9.52129e-14
9.53366e-14
9.5623e-14
9.54956e-14
9.5376e-14
9.5262e-14
9.51536e-14
9.50508e-14
9.49536e-14
9.4862e-14
9.47757e-14
9.46948e-14
9.46192e-14
9.45488e-14
9.44836e-14
9.44235e-14
9.43684e-14
9.43184e-14
9.42733e-14
9.42332e-14
9.4198e-14
9.41677e-14
9.41423e-14
9.41218e-14
9.41062e-14
9.40955e-14
9.40896e-14
9.40886e-14
9.40924e-14
9.41011e-14
9.41147e-14
9.41332e-14
9.41565e-14
9.41848e-14
9.4218e-14
9.42562e-14
9.42993e-14
9.43474e-14
9.44006e-14
9.44588e-14
9.45222e-14
9.45908e-14
9.46647e-14
9.47438e-14
9.48284e-14
9.49184e-14
9.5014e-14
9.51152e-14
9.52221e-14
9.53346e-14
9.54529e-14
9.55782e-14
9.58704e-14
9.57415e-14
9.56207e-14
9.55059e-14
9.5397e-14
9.52938e-14
9.51962e-14
9.51041e-14
9.50175e-14
9.49362e-14
9.48603e-14
9.47896e-14
9.4724e-14
9.46636e-14
9.46083e-14
9.45581e-14
9.45128e-14
9.44725e-14
9.44372e-14
9.44068e-14
9.43812e-14
9.43606e-14
9.43449e-14
9.43341e-14
9.43281e-14
9.43271e-14
9.43309e-14
9.43396e-14
9.43532e-14
9.43716e-14
9.43951e-14
9.44234e-14
9.44567e-14
9.4495e-14
9.45382e-14
9.45865e-14
9.46399e-14
9.46983e-14
9.4762e-14
9.48308e-14
9.4905e-14
9.49845e-14
9.50694e-14
9.51598e-14
9.52558e-14
9.53574e-14
9.54648e-14
9.5578e-14
9.56974e-14
9.58241e-14
9.6121e-14
9.5991e-14
9.5869e-14
9.57534e-14
9.56438e-14
9.554e-14
9.54419e-14
9.53494e-14
9.52624e-14
9.51808e-14
9.51045e-14
9.50334e-14
9.49676e-14
9.49069e-14
9.48514e-14
9.48009e-14
9.47554e-14
9.47149e-14
9.46794e-14
9.46488e-14
9.46232e-14
9.46025e-14
9.45866e-14
9.45757e-14
9.45697e-14
9.45686e-14
9.45724e-14
9.45811e-14
9.45946e-14
9.46132e-14
9.46366e-14
9.4665e-14
9.46984e-14
9.47368e-14
9.47802e-14
9.48287e-14
9.48822e-14
9.49409e-14
9.50048e-14
9.5074e-14
9.51484e-14
9.52282e-14
9.53135e-14
9.54043e-14
9.55008e-14
9.56029e-14
9.5711e-14
9.5825e-14
9.59454e-14
9.60733e-14
9.63742e-14
9.62432e-14
9.61203e-14
9.60038e-14
9.58935e-14
9.57891e-14
9.56905e-14
9.55975e-14
9.55101e-14
9.5428e-14
9.53514e-14
9.528e-14
9.52139e-14
9.5153e-14
9.50971e-14
9.50464e-14
9.50007e-14
9.496e-14
9.49243e-14
9.48936e-14
9.48678e-14
9.48469e-14
9.4831e-14
9.482e-14
9.48139e-14
9.48128e-14
9.48165e-14
9.48252e-14
9.48388e-14
9.48573e-14
9.48808e-14
9.49093e-14
9.49428e-14
9.49813e-14
9.50249e-14
9.50735e-14
9.51273e-14
9.51862e-14
9.52504e-14
9.53198e-14
9.53946e-14
9.54748e-14
9.55604e-14
9.56517e-14
9.57486e-14
9.58513e-14
9.596e-14
9.60749e-14
9.61962e-14
9.63249e-14
9.66292e-14
9.64975e-14
9.63738e-14
9.62566e-14
9.61456e-14
9.60406e-14
9.59415e-14
9.5848e-14
9.57601e-14
9.56777e-14
9.56007e-14
9.5529e-14
9.54626e-14
9.54013e-14
9.53452e-14
9.52942e-14
9.52483e-14
9.52074e-14
9.51715e-14
9.51406e-14
9.51147e-14
9.50937e-14
9.50777e-14
9.50666e-14
9.50604e-14
9.50592e-14
9.50629e-14
9.50716e-14
9.50852e-14
9.51038e-14
9.51273e-14
9.51559e-14
9.51895e-14
9.52281e-14
9.52718e-14
9.53207e-14
9.53746e-14
9.54338e-14
9.54982e-14
9.5568e-14
9.56431e-14
9.57236e-14
9.58097e-14
9.59013e-14
9.59987e-14
9.6102e-14
9.62114e-14
9.63269e-14
9.6449e-14
9.65784e-14
9.68858e-14
9.67535e-14
9.66291e-14
9.65112e-14
9.63996e-14
9.62941e-14
9.61944e-14
9.61005e-14
9.60122e-14
9.59294e-14
9.5852e-14
9.578e-14
9.57133e-14
9.56517e-14
9.55954e-14
9.55441e-14
9.54979e-14
9.54568e-14
9.54208e-14
9.53897e-14
9.53636e-14
9.53425e-14
9.53263e-14
9.53152e-14
9.53089e-14
9.53076e-14
9.53113e-14
9.532e-14
9.53336e-14
9.53522e-14
9.53758e-14
9.54045e-14
9.54382e-14
9.54769e-14
9.55208e-14
9.55698e-14
9.5624e-14
9.56834e-14
9.57481e-14
9.58181e-14
9.58936e-14
9.59745e-14
9.60609e-14
9.6153e-14
9.62509e-14
9.63547e-14
9.64646e-14
9.65808e-14
9.67034e-14
9.68334e-14
9.71435e-14
9.70108e-14
9.68859e-14
9.67675e-14
9.66553e-14
9.65493e-14
9.64491e-14
9.63548e-14
9.62661e-14
9.61829e-14
9.61051e-14
9.60328e-14
9.59657e-14
9.59039e-14
9.58473e-14
9.57958e-14
9.57493e-14
9.5708e-14
9.56717e-14
9.56405e-14
9.56143e-14
9.5593e-14
9.55767e-14
9.55654e-14
9.55591e-14
9.55578e-14
9.55614e-14
9.55701e-14
9.55837e-14
9.56023e-14
9.5626e-14
9.56547e-14
9.56885e-14
9.57275e-14
9.57715e-14
9.58207e-14
9.58751e-14
9.59347e-14
9.59997e-14
9.607e-14
9.61458e-14
9.6227e-14
9.63138e-14
9.64064e-14
9.65047e-14
9.6609e-14
9.67194e-14
9.6836e-14
9.69591e-14
9.70895e-14
9.74021e-14
9.72691e-14
9.71438e-14
9.70249e-14
9.69123e-14
9.68058e-14
9.67052e-14
9.66105e-14
9.65213e-14
9.64378e-14
9.63597e-14
9.6287e-14
9.62197e-14
9.61576e-14
9.61006e-14
9.60489e-14
9.60023e-14
9.59607e-14
9.59242e-14
9.58928e-14
9.58664e-14
9.5845e-14
9.58286e-14
9.58172e-14
9.58108e-14
9.58095e-14
9.58131e-14
9.58217e-14
9.58353e-14
9.5854e-14
9.58777e-14
9.59065e-14
9.59404e-14
9.59795e-14
9.60237e-14
9.6073e-14
9.61276e-14
9.61875e-14
9.62528e-14
9.63234e-14
9.63994e-14
9.6481e-14
9.65682e-14
9.66611e-14
9.67598e-14
9.68645e-14
9.69753e-14
9.70924e-14
9.72158e-14
9.73464e-14
9.76615e-14
9.75282e-14
9.74026e-14
9.72833e-14
9.71703e-14
9.70634e-14
9.69625e-14
9.68673e-14
9.67779e-14
9.6694e-14
9.66156e-14
9.65426e-14
9.64749e-14
9.64125e-14
9.63554e-14
9.63033e-14
9.62565e-14
9.62147e-14
9.6178e-14
9.61464e-14
9.61199e-14
9.60983e-14
9.60818e-14
9.60703e-14
9.60638e-14
9.60624e-14
9.60659e-14
9.60745e-14
9.60882e-14
9.61069e-14
9.61307e-14
9.61595e-14
9.61936e-14
9.62327e-14
9.62771e-14
9.63267e-14
9.63815e-14
9.64416e-14
9.65071e-14
9.6578e-14
9.66543e-14
9.67362e-14
9.68237e-14
9.6917e-14
9.70161e-14
9.71211e-14
9.72323e-14
9.73497e-14
9.74734e-14
9.76041e-14
9.79214e-14
9.7788e-14
9.76621e-14
9.75425e-14
9.74292e-14
9.7322e-14
9.72207e-14
9.71252e-14
9.70354e-14
9.69512e-14
9.68725e-14
9.67992e-14
9.67313e-14
9.66686e-14
9.66112e-14
9.65589e-14
9.65118e-14
9.64699e-14
9.6433e-14
9.64012e-14
9.63745e-14
9.63528e-14
9.63361e-14
9.63245e-14
9.6318e-14
9.63164e-14
9.63199e-14
9.63285e-14
9.63422e-14
9.63609e-14
9.63847e-14
9.64137e-14
9.64478e-14
9.64871e-14
9.65316e-14
9.65814e-14
9.66364e-14
9.66967e-14
9.67625e-14
9.68336e-14
9.69102e-14
9.69924e-14
9.70802e-14
9.71738e-14
9.72732e-14
9.73786e-14
9.749e-14
9.76076e-14
9.77315e-14
9.78624e-14
9.81818e-14
9.80482e-14
9.79221e-14
9.78023e-14
9.76887e-14
9.75812e-14
9.74797e-14
9.73839e-14
9.72938e-14
9.72094e-14
9.71304e-14
9.70568e-14
9.69886e-14
9.69257e-14
9.6868e-14
9.68155e-14
9.67682e-14
9.6726e-14
9.66889e-14
9.66569e-14
9.663e-14
9.66082e-14
9.65914e-14
9.65797e-14
9.65731e-14
9.65715e-14
9.65749e-14
9.65835e-14
9.65971e-14
9.66159e-14
9.66398e-14
9.66688e-14
9.6703e-14
9.67424e-14
9.67871e-14
9.6837e-14
9.68922e-14
9.69528e-14
9.70187e-14
9.70901e-14
9.7167e-14
9.72495e-14
9.73376e-14
9.74314e-14
9.75311e-14
9.76367e-14
9.77484e-14
9.78661e-14
9.79902e-14
9.81211e-14
9.84426e-14
9.83089e-14
9.81825e-14
9.80626e-14
9.79488e-14
9.78411e-14
9.77393e-14
9.76433e-14
9.75529e-14
9.74682e-14
9.7389e-14
9.73151e-14
9.72467e-14
9.71835e-14
9.71256e-14
9.70729e-14
9.70253e-14
9.69829e-14
9.69457e-14
9.69136e-14
9.68865e-14
9.68645e-14
9.68476e-14
9.68358e-14
9.6829e-14
9.68274e-14
9.68308e-14
9.68393e-14
9.68529e-14
9.68716e-14
9.68956e-14
9.69247e-14
9.6959e-14
9.69985e-14
9.70433e-14
9.70934e-14
9.71488e-14
9.72096e-14
9.72758e-14
9.73474e-14
9.74245e-14
9.75072e-14
9.75956e-14
9.76897e-14
9.77896e-14
9.78954e-14
9.80072e-14
9.81251e-14
9.82492e-14
9.83801e-14
9.87037e-14
9.85698e-14
9.84433e-14
9.83232e-14
9.82092e-14
9.81014e-14
9.79994e-14
9.79032e-14
9.78126e-14
9.77277e-14
9.76482e-14
9.75742e-14
9.75054e-14
9.7442e-14
9.73839e-14
9.7331e-14
9.72832e-14
9.72406e-14
9.72032e-14
9.71709e-14
9.71437e-14
9.71215e-14
9.71045e-14
9.70926e-14
9.70857e-14
9.70839e-14
9.70873e-14
9.70958e-14
9.71094e-14
9.71281e-14
9.71521e-14
9.71813e-14
9.72156e-14
9.72553e-14
9.73002e-14
9.73505e-14
9.74061e-14
9.7467e-14
9.75334e-14
9.76053e-14
9.76826e-14
9.77656e-14
9.78542e-14
9.79485e-14
9.80486e-14
9.81545e-14
9.82665e-14
9.83844e-14
9.85086e-14
9.86394e-14
9.89651e-14
9.88309e-14
9.87043e-14
9.85841e-14
9.847e-14
9.8362e-14
9.82599e-14
9.81635e-14
9.80728e-14
9.79877e-14
9.7908e-14
9.78337e-14
9.77648e-14
9.77012e-14
9.76428e-14
9.75897e-14
9.75417e-14
9.74989e-14
9.74613e-14
9.74288e-14
9.74015e-14
9.73792e-14
9.7362e-14
9.735e-14
9.7343e-14
9.73412e-14
9.73444e-14
9.73529e-14
9.73664e-14
9.73852e-14
9.74092e-14
9.74384e-14
9.74729e-14
9.75126e-14
9.75577e-14
9.76081e-14
9.76639e-14
9.7725e-14
9.77916e-14
9.78637e-14
9.79413e-14
9.80244e-14
9.81132e-14
9.82077e-14
9.83079e-14
9.8414e-14
9.8526e-14
9.86441e-14
9.87682e-14
9.88989e-14
9.92269e-14
9.90923e-14
9.89656e-14
9.88452e-14
9.8731e-14
9.86229e-14
9.85207e-14
9.84242e-14
9.83334e-14
9.82481e-14
9.81683e-14
9.80938e-14
9.80247e-14
9.79608e-14
9.79023e-14
9.78489e-14
9.78007e-14
9.77578e-14
9.772e-14
9.76873e-14
9.76598e-14
9.76374e-14
9.76201e-14
9.76079e-14
9.76009e-14
9.75989e-14
9.76021e-14
9.76105e-14
9.76241e-14
9.76428e-14
9.76668e-14
9.76961e-14
9.77306e-14
9.77705e-14
9.78157e-14
9.78662e-14
9.79221e-14
9.79835e-14
9.80503e-14
9.81225e-14
9.82003e-14
9.82836e-14
9.83726e-14
9.84672e-14
9.85676e-14
9.86738e-14
9.87859e-14
9.89039e-14
9.90279e-14
9.91585e-14
9.94894e-14
9.93538e-14
9.92271e-14
9.91067e-14
9.89922e-14
9.8884e-14
9.87818e-14
9.86852e-14
9.85943e-14
9.85089e-14
9.84289e-14
9.83542e-14
9.82849e-14
9.82209e-14
9.81621e-14
9.81086e-14
9.80602e-14
9.80171e-14
9.79791e-14
9.79463e-14
9.79187e-14
9.78961e-14
9.78787e-14
9.78664e-14
9.78592e-14
9.78572e-14
9.78603e-14
9.78686e-14
9.78821e-14
9.79009e-14
9.79249e-14
9.79542e-14
9.79888e-14
9.80287e-14
9.8074e-14
9.81247e-14
9.81808e-14
9.82423e-14
9.83093e-14
9.83817e-14
9.84597e-14
9.85431e-14
9.86323e-14
9.8727e-14
9.88275e-14
9.89338e-14
9.90459e-14
9.91639e-14
9.92878e-14
9.94182e-14
9.94888e-14
9.93685e-14
9.92536e-14
9.91454e-14
9.90431e-14
9.89465e-14
9.88555e-14
9.877e-14
9.86899e-14
9.86151e-14
9.85455e-14
9.84813e-14
9.84224e-14
9.83686e-14
9.83201e-14
9.82768e-14
9.82386e-14
9.82057e-14
9.81779e-14
9.81552e-14
9.81377e-14
9.81252e-14
9.81179e-14
9.81158e-14
9.81188e-14
9.81271e-14
9.81405e-14
9.81592e-14
9.81833e-14
9.82126e-14
9.82472e-14
9.82873e-14
9.83327e-14
9.83835e-14
9.84398e-14
9.85014e-14
9.85686e-14
9.86412e-14
9.87193e-14
9.8803e-14
9.88922e-14
9.89871e-14
9.90877e-14
9.9194e-14
9.93061e-14
9.9424e-14
9.95478e-14
9.96781e-14
9.96309e-14
9.95151e-14
9.9407e-14
9.93047e-14
9.92081e-14
9.91169e-14
9.90314e-14
9.89511e-14
9.88762e-14
9.88065e-14
9.87421e-14
9.86829e-14
9.8629e-14
9.85803e-14
9.85368e-14
9.84985e-14
9.84654e-14
9.84375e-14
9.84147e-14
9.8397e-14
9.83844e-14
9.8377e-14
9.83748e-14
9.83777e-14
9.83859e-14
9.83992e-14
9.84179e-14
9.84419e-14
9.84713e-14
9.8506e-14
9.85461e-14
9.85916e-14
9.86426e-14
9.8699e-14
9.87608e-14
9.88281e-14
9.89009e-14
9.89792e-14
9.9063e-14
9.91524e-14
9.92473e-14
9.9348e-14
9.94543e-14
9.95663e-14
9.96842e-14
9.98079e-14
9.99379e-14
9.96687e-14
9.95667e-14
9.947e-14
9.93786e-14
9.9293e-14
9.92127e-14
9.91376e-14
9.90677e-14
9.9003e-14
9.89438e-14
9.88896e-14
9.88407e-14
9.87971e-14
9.87587e-14
9.87255e-14
9.86974e-14
9.86744e-14
9.86566e-14
9.86439e-14
9.86364e-14
9.8634e-14
9.86368e-14
9.86449e-14
9.86582e-14
9.86769e-14
9.87009e-14
9.87302e-14
9.8765e-14
9.88052e-14
9.88508e-14
9.89019e-14
9.89585e-14
9.90205e-14
9.90879e-14
9.91609e-14
9.92393e-14
9.93232e-14
9.94127e-14
9.95077e-14
9.96084e-14
9.97147e-14
9.98267e-14
9.99445e-14
1.00068e-13
1.00198e-13
9.98289e-14
9.97324e-14
9.96405e-14
9.95549e-14
9.94746e-14
9.93993e-14
9.93291e-14
9.92643e-14
9.92049e-14
9.91506e-14
9.91014e-14
9.90576e-14
9.90191e-14
9.89857e-14
9.89576e-14
9.89344e-14
9.89165e-14
9.89036e-14
9.8896e-14
9.88935e-14
9.88962e-14
9.89042e-14
9.89174e-14
9.8936e-14
9.896e-14
9.89893e-14
9.90241e-14
9.90644e-14
9.91102e-14
9.91614e-14
9.92181e-14
9.92803e-14
9.93479e-14
9.9421e-14
9.94995e-14
9.95836e-14
9.96732e-14
9.97683e-14
9.98689e-14
9.99752e-14
1.00087e-13
1.00205e-13
1.00328e-13
1.00458e-13
9.99953e-14
9.99026e-14
9.98171e-14
9.97368e-14
9.96613e-14
9.95908e-14
9.95257e-14
9.94662e-14
9.94117e-14
9.93624e-14
9.93183e-14
9.92797e-14
9.92462e-14
9.9218e-14
9.91947e-14
9.91766e-14
9.91636e-14
9.91559e-14
9.91533e-14
9.91559e-14
9.91637e-14
9.91768e-14
9.91954e-14
9.92192e-14
9.92486e-14
9.92834e-14
9.93237e-14
9.93696e-14
9.94211e-14
9.9478e-14
9.95403e-14
9.9608e-14
9.96813e-14
9.976e-14
9.98441e-14
9.99337e-14
1.00029e-13
1.0013e-13
1.00236e-13
1.00348e-13
1.00465e-13
1.00588e-13
1.00718e-13
1.0008e-13
9.99995e-14
9.99236e-14
9.98528e-14
9.97873e-14
9.97279e-14
9.96732e-14
9.96236e-14
9.95793e-14
9.95406e-14
9.9507e-14
9.94786e-14
9.94553e-14
9.9437e-14
9.94238e-14
9.94159e-14
9.94132e-14
9.94157e-14
9.94233e-14
9.94364e-14
9.94548e-14
9.94786e-14
9.95079e-14
9.95428e-14
9.95832e-14
9.96292e-14
9.96808e-14
9.97379e-14
9.98004e-14
9.98683e-14
9.99417e-14
1.0002e-13
1.00105e-13
1.00194e-13
1.0029e-13
1.0039e-13
1.00496e-13
1.00608e-13
1.00726e-13
1.00849e-13
1.00978e-13
1.00263e-13
1.00187e-13
1.00115e-13
1.00049e-13
9.999e-14
9.9935e-14
9.9885e-14
9.98404e-14
9.98017e-14
9.9768e-14
9.97396e-14
9.9716e-14
9.96975e-14
9.96842e-14
9.96762e-14
9.96734e-14
9.96756e-14
9.96831e-14
9.9696e-14
9.97144e-14
9.97381e-14
9.97673e-14
9.98022e-14
9.98427e-14
9.98889e-14
9.99407e-14
9.99979e-14
1.00061e-13
1.00129e-13
1.00202e-13
1.00281e-13
1.00365e-13
1.00455e-13
1.0055e-13
1.00651e-13
1.00757e-13
1.00869e-13
1.00986e-13
1.01109e-13
1.01238e-13
1.00253e-13
1.00197e-13
1.00147e-13
1.00102e-13
1.00063e-13
1.00029e-13
1.00001e-13
9.99771e-14
9.99583e-14
9.99448e-14
9.99368e-14
9.99337e-14
9.99358e-14
9.99431e-14
9.99558e-14
9.9974e-14
9.99977e-14
1.00027e-13
1.00062e-13
1.00102e-13
1.00149e-13
1.00201e-13
1.00258e-13
1.00321e-13
1.00389e-13
1.00463e-13
1.00542e-13
1.00626e-13
1.00716e-13
1.00811e-13
1.00912e-13
1.01018e-13
1.01129e-13
1.01247e-13
1.01369e-13
1.01497e-13
1.00325e-13
1.00291e-13
1.00263e-13
1.00238e-13
1.00219e-13
1.00206e-13
1.00198e-13
1.00194e-13
1.00196e-13
1.00203e-13
1.00216e-13
1.00234e-13
1.00257e-13
1.00286e-13
1.00321e-13
1.00362e-13
1.00408e-13
1.00461e-13
1.00518e-13
1.00581e-13
1.0065e-13
1.00723e-13
1.00803e-13
1.00887e-13
1.00977e-13
1.01072e-13
1.01173e-13
1.01279e-13
1.0139e-13
1.01507e-13
1.01629e-13
1.01757e-13
1.00525e-13
1.005e-13
1.00481e-13
1.00466e-13
1.00459e-13
1.00455e-13
1.00457e-13
1.00464e-13
1.00476e-13
1.00494e-13
1.00517e-13
1.00546e-13
1.00581e-13
1.00622e-13
1.00668e-13
1.00721e-13
1.00778e-13
1.00842e-13
1.0091e-13
1.00984e-13
1.01063e-13
1.01148e-13
1.01238e-13
1.01333e-13
1.01434e-13
1.01539e-13
1.01651e-13
1.01767e-13
1.0189e-13
1.02017e-13
1.00721e-13
1.00717e-13
1.00718e-13
1.00724e-13
1.00736e-13
1.00754e-13
1.00777e-13
1.00806e-13
1.00841e-13
1.00881e-13
1.00928e-13
1.00981e-13
1.01039e-13
1.01102e-13
1.01171e-13
1.01245e-13
1.01324e-13
1.01409e-13
1.01499e-13
1.01594e-13
1.01695e-13
1.018e-13
1.01912e-13
1.02028e-13
1.0215e-13
1.02277e-13
1.01015e-13
1.01038e-13
1.01065e-13
1.011e-13
1.01141e-13
1.01188e-13
1.01241e-13
1.01299e-13
1.01363e-13
1.01432e-13
1.01506e-13
1.01585e-13
1.0167e-13
1.0176e-13
1.01855e-13
1.01956e-13
1.02061e-13
1.02172e-13
1.02289e-13
1.0241e-13
1.02537e-13
1.0136e-13
1.014e-13
1.01449e-13
1.01501e-13
1.0156e-13
1.01624e-13
1.01693e-13
1.01767e-13
1.01846e-13
1.01931e-13
1.02021e-13
1.02116e-13
1.02217e-13
1.02322e-13
1.02433e-13
1.02549e-13
1.0267e-13
1.02797e-13
1.01709e-13
1.01762e-13
1.0182e-13
1.01885e-13
1.01954e-13
1.02028e-13
1.02108e-13
1.02192e-13
1.02282e-13
1.02377e-13
1.02478e-13
1.02583e-13
1.02694e-13
1.0281e-13
1.02931e-13
1.03057e-13
1.0197e-13
1.02023e-13
1.02081e-13
1.02146e-13
1.02215e-13
1.02289e-13
1.02369e-13
1.02453e-13
1.02544e-13
1.02639e-13
1.02739e-13
1.02844e-13
1.02955e-13
1.0307e-13
1.03191e-13
1.03317e-13
1.02232e-13
1.02284e-13
1.02342e-13
1.02407e-13
1.02477e-13
1.02551e-13
1.0263e-13
1.02715e-13
1.02805e-13
1.029e-13
1.03e-13
1.03106e-13
1.03216e-13
1.03331e-13
1.03452e-13
1.03578e-13
1.02669e-13
1.02739e-13
1.02813e-13
1.02892e-13
1.02976e-13
1.03067e-13
1.03162e-13
1.03261e-13
1.03367e-13
1.03477e-13
1.03592e-13
1.03712e-13
1.03838e-13
1.03329e-13
1.03424e-13
1.03523e-13
1.03629e-13
1.03739e-13
1.03853e-13
1.03973e-13
1.04099e-13
1.03891e-13
1.04e-13
1.04115e-13
1.04234e-13
1.0436e-13
9.3361e-14
9.33552e-14
9.33543e-14
9.33582e-14
9.33668e-14
9.33802e-14
9.33982e-14
9.3421e-14
9.34484e-14
9.34806e-14
9.35176e-14
9.35593e-14
9.36059e-14
9.36572e-14
9.37134e-14
9.37745e-14
9.38405e-14
9.39115e-14
9.39874e-14
9.40685e-14
9.41547e-14
9.42461e-14
9.43429e-14
9.44452e-14
9.45532e-14
9.46674e-14
9.4788e-14
9.49166e-14
9.35856e-14
9.358e-14
9.35792e-14
9.35832e-14
9.3592e-14
9.36055e-14
9.36237e-14
9.36466e-14
9.36742e-14
9.37066e-14
9.37438e-14
9.37857e-14
9.38324e-14
9.3884e-14
9.39404e-14
9.40017e-14
9.4068e-14
9.41393e-14
9.42156e-14
9.4297e-14
9.43836e-14
9.44756e-14
9.45729e-14
9.46758e-14
9.47843e-14
9.48985e-14
9.50182e-14
9.51429e-14
9.38156e-14
9.38101e-14
9.38094e-14
9.38135e-14
9.38224e-14
9.38361e-14
9.38544e-14
9.38775e-14
9.39053e-14
9.39378e-14
9.39751e-14
9.40173e-14
9.40642e-14
9.4116e-14
9.41726e-14
9.42342e-14
9.43007e-14
9.43723e-14
9.4449e-14
9.45307e-14
9.46178e-14
9.47101e-14
9.48078e-14
9.49111e-14
9.50198e-14
9.51341e-14
9.52535e-14
9.53792e-14
9.405e-14
9.40445e-14
9.40439e-14
9.40481e-14
9.40571e-14
9.40709e-14
9.40893e-14
9.41126e-14
9.41405e-14
9.41733e-14
9.42108e-14
9.42531e-14
9.43002e-14
9.43522e-14
9.44091e-14
9.44709e-14
9.45377e-14
9.46096e-14
9.46866e-14
9.47687e-14
9.48561e-14
9.49488e-14
9.5047e-14
9.51506e-14
9.52597e-14
9.53744e-14
9.54947e-14
9.5622e-14
9.42881e-14
9.42826e-14
9.42821e-14
9.42864e-14
9.42956e-14
9.43094e-14
9.4328e-14
9.43513e-14
9.43795e-14
9.44123e-14
9.445e-14
9.44925e-14
9.45399e-14
9.45921e-14
9.46492e-14
9.47113e-14
9.47784e-14
9.48506e-14
9.49279e-14
9.50104e-14
9.50982e-14
9.51913e-14
9.52899e-14
9.5394e-14
9.55036e-14
9.56191e-14
9.57406e-14
9.58694e-14
9.45294e-14
9.4524e-14
9.45236e-14
9.4528e-14
9.45372e-14
9.45512e-14
9.45699e-14
9.45934e-14
9.46216e-14
9.46547e-14
9.46925e-14
9.47352e-14
9.47828e-14
9.48352e-14
9.48926e-14
9.4955e-14
9.50224e-14
9.50949e-14
9.51725e-14
9.52554e-14
9.53435e-14
9.54371e-14
9.55361e-14
9.56408e-14
9.57511e-14
9.58675e-14
9.59901e-14
9.61201e-14
9.47736e-14
9.47682e-14
9.47678e-14
9.47724e-14
9.47816e-14
9.47957e-14
9.48146e-14
9.48382e-14
9.48666e-14
9.48998e-14
9.49379e-14
9.49808e-14
9.50285e-14
9.50812e-14
9.51388e-14
9.52014e-14
9.52691e-14
9.53419e-14
9.54199e-14
9.55031e-14
9.55917e-14
9.56857e-14
9.57853e-14
9.58905e-14
9.60016e-14
9.61188e-14
9.62423e-14
9.63733e-14
9.50202e-14
9.50149e-14
9.50146e-14
9.50192e-14
9.50286e-14
9.50428e-14
9.50617e-14
9.50855e-14
9.5114e-14
9.51474e-14
9.51857e-14
9.52287e-14
9.52767e-14
9.53296e-14
9.53874e-14
9.54503e-14
9.55183e-14
9.55914e-14
9.56697e-14
9.57533e-14
9.58423e-14
9.59368e-14
9.60369e-14
9.61427e-14
9.62544e-14
9.63724e-14
9.64967e-14
9.66284e-14
9.5269e-14
9.52638e-14
9.52636e-14
9.52682e-14
9.52777e-14
9.52919e-14
9.5311e-14
9.53349e-14
9.53636e-14
9.53971e-14
9.54356e-14
9.54788e-14
9.5527e-14
9.55801e-14
9.56382e-14
9.57013e-14
9.57695e-14
9.58429e-14
9.59216e-14
9.60056e-14
9.6095e-14
9.61899e-14
9.62905e-14
9.63969e-14
9.65093e-14
9.66278e-14
9.67528e-14
9.6885e-14
9.55196e-14
9.55145e-14
9.55144e-14
9.55191e-14
9.55286e-14
9.5543e-14
9.55621e-14
9.55861e-14
9.5615e-14
9.56487e-14
9.56873e-14
9.57308e-14
9.57792e-14
9.58325e-14
9.58908e-14
9.59541e-14
9.60226e-14
9.60963e-14
9.61753e-14
9.62596e-14
9.63494e-14
9.64448e-14
9.65458e-14
9.66527e-14
9.67656e-14
9.68847e-14
9.70101e-14
9.71428e-14
9.5772e-14
9.5767e-14
9.57669e-14
9.57717e-14
9.57813e-14
9.57957e-14
9.58149e-14
9.5839e-14
9.58681e-14
9.5902e-14
9.59408e-14
9.59844e-14
9.60329e-14
9.60864e-14
9.61449e-14
9.62085e-14
9.62772e-14
9.63512e-14
9.64305e-14
9.65152e-14
9.66054e-14
9.67011e-14
9.68026e-14
9.69099e-14
9.70233e-14
9.71428e-14
9.72686e-14
9.74015e-14
9.60259e-14
9.6021e-14
9.6021e-14
9.60258e-14
9.60354e-14
9.60498e-14
9.60691e-14
9.60933e-14
9.61226e-14
9.61567e-14
9.61957e-14
9.62395e-14
9.62882e-14
9.63418e-14
9.64005e-14
9.64642e-14
9.65332e-14
9.66074e-14
9.6687e-14
9.6772e-14
9.68625e-14
9.69586e-14
9.70605e-14
9.71682e-14
9.72819e-14
9.74017e-14
9.75278e-14
9.7661e-14
9.62813e-14
9.62765e-14
9.62766e-14
9.62814e-14
9.6291e-14
9.63054e-14
9.63246e-14
9.63489e-14
9.63785e-14
9.64128e-14
9.64519e-14
9.64958e-14
9.65446e-14
9.65984e-14
9.66572e-14
9.67211e-14
9.67902e-14
9.68646e-14
9.69446e-14
9.70299e-14
9.71207e-14
9.72171e-14
9.73193e-14
9.74274e-14
9.75414e-14
9.76615e-14
9.77878e-14
9.7921e-14
9.65382e-14
9.65335e-14
9.65336e-14
9.65383e-14
9.65479e-14
9.65622e-14
9.65814e-14
9.66055e-14
9.66358e-14
9.66702e-14
9.67094e-14
9.67534e-14
9.68023e-14
9.68562e-14
9.69151e-14
9.69791e-14
9.70483e-14
9.71229e-14
9.72032e-14
9.72888e-14
9.73798e-14
9.74764e-14
9.7579e-14
9.76873e-14
9.78015e-14
9.79218e-14
9.80483e-14
9.81815e-14
9.68943e-14
9.69289e-14
9.69681e-14
9.70122e-14
9.70612e-14
9.71151e-14
9.71741e-14
9.72381e-14
9.73074e-14
9.73819e-14
9.7463e-14
9.75486e-14
9.76397e-14
9.77365e-14
9.78393e-14
9.79479e-14
9.80622e-14
9.81827e-14
9.83092e-14
9.84424e-14
9.77235e-14
9.78094e-14
9.79004e-14
9.7997e-14
9.81006e-14
9.8209e-14
9.83233e-14
9.84441e-14
9.85706e-14
9.87036e-14
9.83623e-14
9.84708e-14
9.85849e-14
9.87061e-14
9.88325e-14
9.89653e-14
9.89685e-14
9.90948e-14
9.92273e-14
1.05098e-13
1.05367e-13
1.05639e-13
1.00594e-13
1.00856e-13
1.01118e-13
1.0138e-13
1.01642e-13
1.01903e-13
1.02164e-13
1.02426e-13
1.02687e-13
1.02949e-13
1.0321e-13
1.03471e-13
1.03733e-13
1.03994e-13
1.04256e-13
1.04518e-13
1.0478e-13
1.05045e-13
1.05312e-13
1.05582e-13
9.97596e-14
1.00021e-13
1.00282e-13
1.00544e-13
1.00806e-13
1.01067e-13
1.01329e-13
1.01591e-13
1.01853e-13
1.02114e-13
1.02376e-13
1.02637e-13
1.02899e-13
1.03161e-13
1.03422e-13
1.03684e-13
1.03946e-13
1.04208e-13
1.0447e-13
1.04732e-13
1.04996e-13
1.05262e-13
1.05532e-13
9.9713e-14
9.99749e-14
1.00237e-13
1.00499e-13
1.00761e-13
1.01023e-13
1.01285e-13
1.01546e-13
1.01808e-13
1.0207e-13
1.02331e-13
1.02593e-13
1.02855e-13
1.03117e-13
1.03378e-13
1.0364e-13
1.03902e-13
1.04164e-13
1.04426e-13
1.04689e-13
1.04952e-13
1.05218e-13
1.05486e-13
9.96732e-14
9.99355e-14
1.00198e-13
1.0046e-13
1.00722e-13
1.00984e-13
1.01246e-13
1.01507e-13
1.01769e-13
1.02031e-13
1.02293e-13
1.02554e-13
1.02816e-13
1.03078e-13
1.0334e-13
1.03602e-13
1.03864e-13
1.04126e-13
1.04388e-13
1.0465e-13
1.04913e-13
1.05178e-13
1.05446e-13
9.96403e-14
9.99027e-14
1.00165e-13
1.00427e-13
1.00689e-13
1.00951e-13
1.01213e-13
1.01474e-13
1.01736e-13
1.01998e-13
1.02259e-13
1.02521e-13
1.02783e-13
1.03045e-13
1.03306e-13
1.03568e-13
1.0383e-13
1.04092e-13
1.04354e-13
1.04617e-13
1.04879e-13
1.05144e-13
1.05411e-13
9.45295e-14
9.47725e-14
9.50179e-14
9.52652e-14
9.55142e-14
9.57648e-14
9.60166e-14
9.62695e-14
9.65235e-14
9.67783e-14
9.70338e-14
9.72899e-14
9.75465e-14
9.78037e-14
9.80612e-14
9.83191e-14
9.85774e-14
9.88361e-14
9.90952e-14
9.9355e-14
9.96158e-14
9.98771e-14
1.00139e-13
1.004e-13
1.00662e-13
1.00923e-13
1.01185e-13
1.01447e-13
1.01708e-13
1.0197e-13
1.02232e-13
1.02493e-13
1.02755e-13
1.03017e-13
1.03279e-13
1.0354e-13
1.03802e-13
1.04064e-13
1.04326e-13
1.04588e-13
1.04851e-13
1.05115e-13
1.05381e-13
9.45062e-14
9.475e-14
9.49957e-14
9.52432e-14
9.54923e-14
9.57429e-14
9.59948e-14
9.62478e-14
9.65018e-14
9.67566e-14
9.70122e-14
9.72685e-14
9.75253e-14
9.77826e-14
9.80404e-14
9.82986e-14
9.85572e-14
9.88162e-14
9.90757e-14
9.93356e-14
9.95961e-14
9.98569e-14
1.00118e-13
1.00379e-13
1.0064e-13
1.00902e-13
1.01163e-13
1.01425e-13
1.01686e-13
1.01948e-13
1.02209e-13
1.02471e-13
1.02733e-13
1.02994e-13
1.03256e-13
1.03518e-13
1.03779e-13
1.04041e-13
1.04303e-13
1.04566e-13
1.04828e-13
1.05092e-13
1.05357e-13
9.44888e-14
9.4733e-14
9.49789e-14
9.52265e-14
9.54758e-14
9.57264e-14
9.59784e-14
9.62314e-14
9.64855e-14
9.67404e-14
9.69961e-14
9.72524e-14
9.75094e-14
9.77668e-14
9.80248e-14
9.82831e-14
9.85419e-14
9.88011e-14
9.90607e-14
9.93206e-14
9.95809e-14
9.98415e-14
1.00102e-13
1.00363e-13
1.00624e-13
1.00885e-13
1.01147e-13
1.01408e-13
1.01669e-13
1.01931e-13
1.02192e-13
1.02454e-13
1.02715e-13
1.02977e-13
1.03239e-13
1.035e-13
1.03762e-13
1.04024e-13
1.04286e-13
1.04548e-13
1.0481e-13
1.05074e-13
1.05339e-13
9.33169e-14
9.35395e-14
9.37676e-14
9.40001e-14
9.42367e-14
9.44779e-14
9.47217e-14
9.49675e-14
9.52151e-14
9.54644e-14
9.57151e-14
9.59671e-14
9.62202e-14
9.64743e-14
9.67293e-14
9.69851e-14
9.72415e-14
9.74985e-14
9.77561e-14
9.80142e-14
9.82726e-14
9.85315e-14
9.87908e-14
9.90504e-14
9.93103e-14
9.95705e-14
9.98309e-14
1.00092e-13
1.00352e-13
1.00613e-13
1.00874e-13
1.01135e-13
1.01397e-13
1.01658e-13
1.01919e-13
1.02181e-13
1.02442e-13
1.02704e-13
1.02965e-13
1.03227e-13
1.03488e-13
1.0375e-13
1.04012e-13
1.04274e-13
1.04536e-13
1.04798e-13
1.05061e-13
1.05327e-13
9.33109e-14
9.35338e-14
9.37621e-14
9.39949e-14
9.42317e-14
9.44723e-14
9.47157e-14
9.49614e-14
9.52089e-14
9.54582e-14
9.57089e-14
9.59609e-14
9.62141e-14
9.64683e-14
9.67233e-14
9.69791e-14
9.72357e-14
9.74928e-14
9.77504e-14
9.80085e-14
9.82671e-14
9.8526e-14
9.87853e-14
9.90449e-14
9.93048e-14
9.9565e-14
9.98253e-14
1.00086e-13
1.00347e-13
1.00607e-13
1.00868e-13
1.01129e-13
1.01391e-13
1.01652e-13
1.01913e-13
1.02174e-13
1.02436e-13
1.02697e-13
1.02959e-13
1.0322e-13
1.03482e-13
1.03743e-13
1.04005e-13
1.04267e-13
1.04529e-13
1.04791e-13
1.05054e-13
1.0532e-13
9.331e-14
9.35331e-14
9.37615e-14
9.39944e-14
9.42313e-14
9.44716e-14
9.47148e-14
9.49603e-14
9.52078e-14
9.5457e-14
9.57078e-14
9.59598e-14
9.6213e-14
9.64672e-14
9.67223e-14
9.69782e-14
9.72348e-14
9.7492e-14
9.77497e-14
9.80079e-14
9.82665e-14
9.85255e-14
9.87848e-14
9.90444e-14
9.93043e-14
9.95644e-14
9.98247e-14
1.00085e-13
1.00346e-13
1.00607e-13
1.00867e-13
1.01128e-13
1.0139e-13
1.01651e-13
1.01912e-13
1.02173e-13
1.02435e-13
1.02696e-13
1.02957e-13
1.03219e-13
1.0348e-13
1.03742e-13
1.04004e-13
1.04266e-13
1.04528e-13
1.0479e-13
1.05053e-13
1.05318e-13
9.33138e-14
9.3537e-14
9.37657e-14
9.39987e-14
9.42356e-14
9.44758e-14
9.47188e-14
9.49642e-14
9.52117e-14
9.54609e-14
9.57116e-14
9.59637e-14
9.6217e-14
9.64712e-14
9.67264e-14
9.69824e-14
9.7239e-14
9.74963e-14
9.7754e-14
9.80123e-14
9.82709e-14
9.85299e-14
9.87893e-14
9.90489e-14
9.93088e-14
9.95689e-14
9.98292e-14
1.0009e-13
1.0035e-13
1.00611e-13
1.00872e-13
1.01133e-13
1.01394e-13
1.01655e-13
1.01916e-13
1.02177e-13
1.02439e-13
1.027e-13
1.02961e-13
1.03223e-13
1.03484e-13
1.03746e-13
1.04008e-13
1.0427e-13
1.04532e-13
1.04794e-13
1.05057e-13
1.05322e-13
9.33223e-14
9.35457e-14
9.37745e-14
9.40076e-14
9.42445e-14
9.44847e-14
9.47276e-14
9.4973e-14
9.52205e-14
9.54697e-14
9.57205e-14
9.59726e-14
9.62259e-14
9.64802e-14
9.67355e-14
9.69915e-14
9.72482e-14
9.75055e-14
9.77633e-14
9.80216e-14
9.82803e-14
9.85394e-14
9.87988e-14
9.90584e-14
9.93183e-14
9.95784e-14
9.98387e-14
1.00099e-13
1.0036e-13
1.0062e-13
1.00881e-13
1.01142e-13
1.01403e-13
1.01664e-13
1.01925e-13
1.02187e-13
1.02448e-13
1.02709e-13
1.02971e-13
1.03232e-13
1.03494e-13
1.03755e-13
1.04017e-13
1.04279e-13
1.04541e-13
1.04803e-13
1.05066e-13
1.05331e-13
9.33356e-14
9.35591e-14
9.3788e-14
9.40212e-14
9.42582e-14
9.44983e-14
9.47413e-14
9.49867e-14
9.52342e-14
9.54834e-14
9.57343e-14
9.59864e-14
9.62398e-14
9.64942e-14
9.67495e-14
9.70056e-14
9.72624e-14
9.75197e-14
9.77776e-14
9.8036e-14
9.82948e-14
9.85539e-14
9.88133e-14
9.9073e-14
9.93329e-14
9.9593e-14
9.98533e-14
1.00114e-13
1.00374e-13
1.00635e-13
1.00896e-13
1.01157e-13
1.01418e-13
1.01679e-13
1.0194e-13
1.02201e-13
1.02462e-13
1.02724e-13
1.02985e-13
1.03247e-13
1.03508e-13
1.0377e-13
1.04031e-13
1.04293e-13
1.04555e-13
1.04817e-13
1.05081e-13
1.05346e-13
9.33535e-14
9.35772e-14
9.38063e-14
9.40396e-14
9.42766e-14
9.45168e-14
9.47598e-14
9.50052e-14