/*--------------------------------*- C++ -*----------------------------------*\
  =========                 |
  \\      /  F ield         | OpenFOAM: The Open Source CFD Toolbox
   \\    /   O peration     | Website:  https://openfoam.org
    \\  /    A nd           | Version:  7
     \\/     M anipulation  |
\*---------------------------------------------------------------------------*/
FoamFile
{
    version     2.0;
    format      ascii;
    class       volVectorField;
    location    "20000";
    object      vorticity;
}
// * * * * * * * * * * * * * * * * * * * * * * * * * * * * * * * * * * * * * //

dimensions      [0 0 -1 0 0 0 0];

internalField   nonuniform List<vector> 
1768
(
(0.000695616 0.00817846 6.2976e-18)
(0.00115978 0.00816074 4.8225e-18)
(0.00162454 0.00813399 5.2516e-18)
(0.0020901 0.00809801 -2.11563e-18)
(-0.00121094 0.00855088 3.79548e-18)
(-0.000726352 0.00857052 -1.59585e-18)
(-0.000242084 0.00858031 -5.04819e-19)
(0.000242076 0.00858031 9.47149e-18)
(0.000726344 0.00857052 9.40061e-18)
(0.00121093 0.00855088 5.37172e-18)
(0.00169603 0.00852126 4.67997e-18)
(0.0021818 0.00848147 -2.69109e-18)
(-0.00430553 0.00857694 -1.1879e-18)
(-0.00379674 0.00866788 -9.52317e-18)
(-0.00328856 0.00874645 -1.34527e-19)
(-0.00278106 0.00881303 6.74444e-18)
(-0.00227425 0.00886797 6.81853e-18)
(-0.00176809 0.00891155 4.17753e-18)
(-0.00126249 0.00894401 1.82292e-18)
(-0.000757315 0.00896555 -2.33971e-18)
(-0.00025241 0.00897629 -1.29458e-18)
(0.000252402 0.00897629 8.46782e-18)
(0.000757307 0.00896555 9.86088e-18)
(0.00126248 0.00894401 6.41203e-18)
(0.00176808 0.00891155 4.70966e-18)
(0.00227424 0.00886797 -2.55832e-18)
(-0.00447951 0.00894266 -2.05389e-18)
(-0.00395087 0.00904108 -1.05197e-17)
(-0.0034226 0.00912621 2.8021e-18)
(-0.00289481 0.00919842 9.80019e-18)
(-0.00236755 0.00925805 6.39753e-18)
(-0.0018408 0.00930538 1.93963e-18)
(-0.0013145 0.00934067 -7.94673e-19)
(-0.000788555 0.00936409 -4.05245e-18)
(-0.000262829 0.00937577 -2.61468e-18)
(0.000262821 0.00937577 8.02801e-18)
(0.000788547 0.00936409 1.12951e-17)
(0.0013145 0.00934067 7.32421e-18)
(0.00184079 0.00930538 3.24065e-18)
(0.00236754 0.00925805 -3.86118e-18)
(-0.00465552 0.00931263 -3.26657e-18)
(-0.00410674 0.0094185 -8.70393e-18)
(-0.00355812 0.00951015 6.1117e-18)
(-0.0030098 0.00958795 1.15363e-17)
(-0.00246185 0.00965225 5.15049e-18)
(-0.00191428 0.00970332 -4.97899e-19)
(-0.00136706 0.00974141 -2.51781e-18)
(-0.000820116 0.00976671 -3.75628e-18)
(-0.000273354 0.00977932 -3.53979e-18)
(0.000273346 0.00977932 5.7954e-18)
(0.000820108 0.00976671 1.04594e-17)
(0.00136705 0.00974141 6.0024e-18)
(0.00191427 0.00970332 2.43681e-18)
(0.00246184 0.00965225 -2.30642e-18)
(-0.00736499 0.00952748 3.00211e-19)
(-0.00768045 0.00886656 -3.4389e-18)
(-0.00710387 0.00907397 -6.64143e-18)
(-0.00653835 0.0092522 -1.99738e-17)
(-0.00597107 0.00941359 -1.53055e-17)
(-0.00540276 0.00955848 7.30731e-19)
(-0.00483382 0.00968736 -2.92726e-18)
(-0.0042646 0.00980065 -6.91098e-18)
(-0.00369533 0.0098988 7.07232e-18)
(-0.00312618 0.00998218 1.22782e-17)
(-0.00255727 0.0100511 4.77868e-18)
(-0.00198861 0.0101059 -2.24264e-18)
(-0.00142022 0.0101468 -2.50343e-18)
(-0.000852041 0.010174 -2.75992e-18)
(-0.000284 0.0101875 -6.42822e-18)
(0.000283992 0.0101875 3.00392e-18)
(0.000852033 0.0101739 1.02733e-17)
(0.00142021 0.0101468 3.12304e-18)
(0.00198861 0.0101059 9.90446e-19)
(0.00255726 0.0100511 1.55142e-20)
(-0.00767533 0.0098326 -3.5042e-18)
(-0.00796093 0.0091957 -4.84197e-18)
(-0.00736539 0.0094149 -8.72682e-18)
(-0.00678012 0.00960434 -1.91303e-17)
(-0.0061928 0.00977597 -1.44509e-17)
(-0.00560416 0.00993015 -3.03115e-18)
(-0.00501465 0.0100674 -2.01213e-18)
(-0.00442464 0.0101881 -5.41305e-18)
(-0.0038344 0.0102927 6.52311e-18)
(-0.00324413 0.0103816 1.05213e-17)
(-0.00265394 0.0104552 3.96648e-18)
(-0.00206392 0.0105137 -2.25843e-18)
(-0.00147407 0.0105574 -5.46478e-19)
(-0.000884375 0.0105864 -9.42355e-19)
(-0.000294782 0.0106009 -8.83878e-18)
(0.000294773 0.0106009 5.91147e-19)
(0.000884366 0.0105864 1.03608e-17)
(0.00147406 0.0105574 1.30737e-18)
(0.00206391 0.0105137 3.25885e-19)
(0.00265394 0.0104552 1.16412e-18)
(-0.00799066 0.0101437 -3.85198e-18)
(-0.0082463 0.00953052 -5.21058e-18)
(-0.00763133 0.00976159 -9.45103e-18)
(-0.00702588 0.00996226 -1.54131e-17)
(-0.0064181 0.0101441 -1.47015e-17)
(-0.00580873 0.0103076 -6.34138e-18)
(-0.00519826 0.0104532 -1.78673e-18)
(-0.0045871 0.0105813 -5.13591e-18)
(-0.00397553 0.0106924 6.21817e-18)
(-0.00336379 0.0107869 9.55823e-18)
(-0.00275201 0.0108651 4.30765e-18)
(-0.0021403 0.0109273 -1.5264e-18)
(-0.00152868 0.0109738 1.30635e-18)
(-0.000917163 0.0110046 1.06875e-18)
(-0.000305715 0.01102 -1.09542e-17)
(0.000305706 0.01102 -2.74688e-18)
(0.000917154 0.0110046 9.75246e-18)
(0.00152867 0.0109738 4.57997e-19)
(0.00214029 0.0109273 -4.90085e-19)
(0.00275201 0.0108651 1.86622e-18)
(-0.00831142 0.0104612 1.71726e-19)
(-0.00853696 0.00987147 -4.03929e-18)
(-0.00790206 0.0101145 -9.00909e-18)
(-0.00727598 0.0103265 -1.13298e-17)
(-0.00664728 0.0105186 -1.50907e-17)
(-0.00601676 0.0106914 -9.98493e-18)
(-0.00538493 0.0108454 -2.38692e-18)
(-0.00475221 0.0109809 -3.61788e-18)
(-0.00411893 0.0110985 5.39491e-18)
(-0.00348534 0.0111986 6.88962e-18)
(-0.00285162 0.0112814 5.40213e-18)
(-0.00221786 0.0113473 4.43029e-20)
(-0.00158413 0.0113965 1.2796e-18)
(-0.000950451 0.0114292 2.64292e-18)
(-0.000316815 0.0114455 -1.11622e-17)
(0.000316806 0.0114455 -5.0827e-18)
(0.000950443 0.0114292 8.81465e-18)
(0.00158412 0.0113965 4.44457e-19)
(0.00221785 0.0113473 -1.50174e-18)
(0.00285161 0.0112814 7.98415e-19)
(-0.00863803 0.0107855 5.04958e-18)
(-0.00883332 0.010219 -1.25918e-18)
(-0.00817797 0.0104741 -8.62219e-18)
(-0.00753077 0.0106974 -8.67136e-18)
(-0.00688068 0.0109 -1.6766e-17)
(-0.00622854 0.0110821 -1.31168e-17)
(-0.0055749 0.0112445 -1.48263e-18)
(-0.0049202 0.0113875 -1.3425e-18)
(-0.0042648 0.0115116 5.57095e-18)
(-0.00360896 0.0116172 5.04551e-18)
(-0.00295289 0.0117046 7.64907e-18)
(-0.00229671 0.0117742 1.41463e-18)
(-0.00164049 0.0118262 -4.98508e-19)
(-0.000984288 0.0118607 3.47626e-18)
(-0.000328097 0.011878 -1.17182e-17)
(0.000328088 0.011878 -8.04012e-18)
(0.00098428 0.0118607 7.16793e-18)
(0.00164049 0.0118262 1.01922e-18)
(0.0022967 0.0117742 -1.02078e-18)
(0.00295289 0.0117046 -2.17829e-19)
(-0.00897096 0.0111172 1.04029e-17)
(-0.0091358 0.0105737 2.41418e-18)
(-0.00845944 0.010841 -7.15512e-18)
(-0.0077906 0.0110757 -8.42713e-18)
(-0.00711863 0.0112887 -1.89937e-17)
(-0.00644438 0.0114803 -1.46989e-17)
(-0.00576845 0.011651 4.49484e-19)
(-0.00509131 0.0118015 4.01964e-21)
(-0.00441334 0.0119321 6.26144e-18)
(-0.00373483 0.0120433 4.02908e-18)
(-0.00305598 0.0121354 7.80771e-18)
(-0.00237696 0.0122087 1.07568e-18)
(-0.00169786 0.0122635 -1.88806e-18)
(-0.00101872 0.0122999 4.17221e-18)
(-0.000339577 0.0123181 -1.12202e-17)
(0.000339568 0.0123181 -8.93316e-18)
(0.00101871 0.0122999 4.69281e-18)
(0.00169785 0.0122635 5.31965e-19)
(0.00237696 0.0122087 8.5989e-19)
(0.00305598 0.0121354 -2.9007e-19)
(-0.00931068 0.0114567 1.5169e-17)
(-0.00944483 0.010936 4.57035e-18)
(-0.00874688 0.0112156 -5.89559e-18)
(-0.00805585 0.0114619 -9.23149e-18)
(-0.00736146 0.0116853 -2.09596e-17)
(-0.00666459 0.0118864 -1.55273e-17)
(-0.00596587 0.0120657 3.13648e-18)
(-0.00526579 0.0122237 1.21275e-18)
(-0.00456477 0.0123609 6.40808e-18)
(-0.00386311 0.0124776 3.05022e-18)
(-0.00316105 0.0125744 5.9991e-18)
(-0.00245874 0.0126514 3.64674e-19)
(-0.0017563 0.012709 -1.62303e-18)
(-0.0010538 0.0127472 3.2269e-18)
(-0.000351272 0.0127663 -1.13037e-17)
(0.000351263 0.0127663 -8.09293e-18)
(0.00105379 0.0127472 3.33208e-18)
(0.0017563 0.012709 5.78964e-19)
(0.00245874 0.0126514 1.66535e-18)
(0.00316104 0.0125744 -1.47957e-18)
(-0.00965767 0.0118045 1.58412e-17)
(-0.00976086 0.0113064 4.85703e-18)
(-0.00904071 0.0115985 -5.13006e-18)
(-0.00832691 0.0118565 -1.00826e-17)
(-0.00760953 0.0120905 -2.22486e-17)
(-0.00688949 0.0123011 -1.55662e-17)
(-0.00616743 0.012489 6.5341e-18)
(-0.0054439 0.0126545 2.57868e-18)
(-0.00471931 0.0127983 5.61604e-18)
(-0.003994 0.0129208 1.61554e-18)
(-0.00326823 0.0130222 3.23093e-18)
(-0.00254215 0.013103 5.5875e-19)
(-0.00181591 0.0131633 7.87975e-19)
(-0.00108958 0.0132035 2.7358e-18)
(-0.0003632 0.0132235 -1.08932e-17)
(0.000363191 0.0132235 -7.35708e-18)
(0.00108957 0.0132035 1.62691e-18)
(0.00181591 0.0131633 -8.76089e-19)
(0.00254215 0.013103 1.72096e-18)
(0.00326823 0.0130222 -1.33084e-18)
(-0.0100124 0.012161 1.33027e-17)
(-0.0100843 0.0116855 6.03205e-18)
(-0.00934136 0.0119903 -4.37868e-18)
(-0.00860418 0.01226 -1.15946e-17)
(-0.00786321 0.0125048 -2.27521e-17)
(-0.0071194 0.0127251 -1.42529e-17)
(-0.00637344 0.0129216 9.93437e-18)
(-0.00562588 0.0130948 2.69487e-18)
(-0.00487719 0.0132452 4.4809e-18)
(-0.0041277 0.0133733 1.78166e-18)
(-0.00337769 0.0134795 1.1502e-18)
(-0.00262733 0.0135641 1.04132e-18)
(-0.00187678 0.0136272 2.30299e-18)
(-0.00112611 0.0136693 2.51323e-18)
(-0.000375377 0.0136902 -1.03355e-17)
(0.000375368 0.0136902 -6.60895e-18)
(0.0011261 0.0136692 3.85075e-20)
(0.00187677 0.0136272 -3.62671e-18)
(0.00262733 0.0135641 8.71104e-19)
(0.00337769 0.0134795 2.12659e-19)
(-0.0103755 0.012527 1.10467e-17)
(-0.0104158 0.0120739 5.79316e-18)
(-0.00964927 0.0123915 -4.16494e-18)
(-0.00888807 0.0126732 -1.2773e-17)
(-0.00812287 0.0129288 -2.19585e-17)
(-0.00735467 0.0131589 -1.2264e-17)
(-0.0065842 0.0133641 1.25192e-17)
(-0.00581203 0.013545 2.36866e-18)
(-0.00503865 0.0137022 3.15292e-18)
(-0.00426441 0.0138361 2.13208e-18)
(-0.00348959 0.013947 -5.48919e-19)
(-0.00271441 0.0140353 1.75537e-18)
(-0.00193899 0.0141014 2.768e-18)
(-0.00116344 0.0141453 2.32596e-18)
(-0.000387823 0.0141672 -1.0487e-17)
(0.000387814 0.0141672 -6.77117e-18)
(0.00116343 0.0141453 -1.46108e-18)
(0.00193898 0.0141014 -5.66237e-18)
(0.0027144 0.0140353 6.38838e-19)
(0.00348959 0.013947 2.28943e-18)
(-0.0107474 0.0129028 9.22318e-18)
(-0.0107556 0.0124721 4.85349e-18)
(-0.00996492 0.0128028 -3.23246e-18)
(-0.009179 0.0130965 -1.41821e-17)
(-0.00838891 0.0133631 -1.90626e-17)
(-0.00759567 0.0136031 -1.0146e-17)
(-0.00680003 0.0138172 1.31248e-17)
(-0.00600262 0.014006 1.46618e-18)
(-0.00520392 0.0141699 2.54164e-18)
(-0.00440432 0.0143096 1.82352e-18)
(-0.00360411 0.0144254 -1.65991e-18)
(-0.0028035 0.0145175 1.52627e-18)
(-0.00200264 0.0145864 2.40202e-18)
(-0.00120164 0.0146322 2.3935e-18)
(-0.000400556 0.0146551 -1.10224e-17)
(0.000400547 0.0146551 -6.70663e-18)
(0.00120163 0.0146322 -2.5355e-18)
(0.00200264 0.0145864 -6.6892e-18)
(0.0028035 0.0145175 1.66327e-19)
(0.00360411 0.0144254 2.71834e-18)
(-0.0111287 0.0132891 7.18181e-18)
(-0.0111045 0.0128807 3.87293e-18)
(-0.0102888 0.0132247 -2.70367e-18)
(-0.00947744 0.0135308 -1.39125e-17)
(-0.00866173 0.0138085 -1.4464e-17)
(-0.00784275 0.0140586 -9.59551e-18)
(-0.00702127 0.0142816 1.1844e-17)
(-0.00619794 0.0144783 3.39755e-19)
(-0.00537327 0.0146492 1.30098e-18)
(-0.00454767 0.0147947 1.15016e-18)
(-0.00372142 0.0149153 -1.91349e-18)
(-0.00289476 0.0150114 1.30907e-18)
(-0.00206783 0.0150832 1.82098e-18)
(-0.00124075 0.0151309 1.92983e-18)
(-0.000413596 0.0151548 -1.07985e-17)
(0.000413587 0.0151548 -6.66678e-18)
(0.00124075 0.0151309 -4.36608e-18)
(0.00206783 0.0150832 -6.74249e-18)
(0.00289476 0.0150114 8.55555e-19)
(0.00372142 0.0149153 2.71465e-18)
(-0.0115201 0.0136866 4.98786e-18)
(-0.0114628 0.0133004 2.50888e-18)
(-0.0106214 0.013658 -3.26001e-18)
(-0.00978384 0.0139766 -1.28871e-17)
(-0.00894178 0.0142657 -1.06355e-17)
(-0.00809631 0.0145259 -9.65731e-18)
(-0.00724826 0.0147581 9.73013e-18)
(-0.0063983 0.0149628 -7.62929e-19)
(-0.00554697 0.0151406 1.31279e-18)
(-0.00469467 0.0152921 1.33256e-18)
(-0.00384171 0.0154177 -2.26146e-18)
(-0.00298832 0.0155177 8.73183e-19)
(-0.00213467 0.0155924 8.85161e-19)
(-0.00128086 0.0156421 1.24951e-18)
(-0.000426963 0.0156669 -1.00337e-17)
(0.000426954 0.0156669 -6.49136e-18)
(0.00128085 0.0156421 -6.10358e-18)
(0.00213466 0.0155924 -6.41551e-18)
(0.00298832 0.0155177 2.5103e-18)
(0.00384171 0.0154177 2.45828e-18)
(-0.0119221 0.0140958 1.90741e-18)
(-0.0118313 0.0137319 7.02386e-19)
(-0.0109632 0.0141033 -4.13123e-18)
(-0.0100987 0.0144346 -1.01657e-17)
(-0.00922948 0.0147353 -6.94815e-18)
(-0.00835675 0.0150059 -1.00146e-17)
(-0.00748137 0.0152473 7.62959e-18)
(-0.00660403 0.0154602 -6.34104e-19)
(-0.00572528 0.0156451 1.73608e-18)
(-0.00484555 0.0158027 4.34116e-19)
(-0.00396516 0.0159332 -3.67515e-18)
(-0.00308434 0.0160372 5.67824e-19)
(-0.00220325 0.0161149 8.28455e-19)
(-0.001322 0.0161666 8.72393e-19)
(-0.00044068 0.0161924 -1.00279e-17)
(0.00044067 0.0161924 -6.49475e-18)
(0.001322 0.0161666 -7.07824e-18)
(0.00220325 0.0161149 -6.17582e-18)
(0.00308434 0.0160372 3.88963e-18)
(0.00396516 0.0159332 2.00834e-18)
(-0.0123353 0.0145174 2.39816e-20)
(-0.0122104 0.0141759 4.14094e-19)
(-0.0113149 0.0145613 -3.91403e-18)
(-0.0104225 0.0149057 -5.75326e-18)
(-0.00952531 0.0152181 -4.16532e-18)
(-0.0086245 0.0154993 -1.04891e-17)
(-0.00772097 0.0157502 5.46747e-18)
(-0.00681545 0.0159713 -7.06676e-19)
(-0.0059085 0.0161635 8.22583e-19)
(-0.00500057 0.0163272 -1.34559e-18)
(-0.00409198 0.0164628 -4.84423e-18)
(-0.00318297 0.0165709 1.21231e-18)
(-0.00227369 0.0166516 9.50063e-19)
(-0.00136427 0.0167053 8.41915e-19)
(-0.000454767 0.0167321 -9.67534e-18)
(0.000454758 0.0167321 -6.83152e-18)
(0.00136426 0.0167053 -8.25796e-18)
(0.00227369 0.0166516 -5.92847e-18)
(0.00318297 0.0165709 4.66321e-18)
(0.00409199 0.0164628 1.44201e-18)
(-0.0127606 0.0149521 5.09509e-19)
(-0.0126009 0.0146331 2.77518e-19)
(-0.011677 0.015033 -2.71181e-18)
(-0.0107559 0.0153906 -2.22149e-18)
(-0.00982978 0.015715 -3.11548e-18)
(-0.0089 0.016007 -1.17484e-17)
(-0.00796746 0.0162674 3.12745e-18)
(-0.00703292 0.0164971 -6.23236e-19)
(-0.00609694 0.0166966 3.6904e-19)
(-0.00515999 0.0168665 -2.9644e-18)
(-0.00422239 0.0170073 -5.75536e-18)
(-0.00328438 0.0171195 2.37102e-18)
(-0.00234612 0.0172033 1.03422e-18)
(-0.00140772 0.017259 8.94849e-19)
(-0.000469249 0.0172868 -9.42712e-18)
(0.00046924 0.0172868 -7.97443e-18)
(0.00140771 0.017259 -9.19225e-18)
(0.00234611 0.0172033 -4.79564e-18)
(0.00328438 0.0171195 5.72911e-18)
(0.00422239 0.0170073 4.73877e-19)
(-0.0131985 0.0154008 2.03718e-18)
(-0.0130033 0.0151043 -9.53497e-19)
(-0.0120501 0.0155189 -9.533e-19)
(-0.0110993 0.0158901 2.69005e-19)
(-0.0101434 0.0162267 -2.69837e-18)
(-0.00918372 0.0165297 -1.36742e-17)
(-0.00822127 0.0168 1.05308e-18)
(-0.0072568 0.0170383 -4.6417e-19)
(-0.00629092 0.0172453 3.75473e-19)
(-0.00532407 0.0174215 -4.60956e-18)
(-0.0043566 0.0175676 -6.14528e-18)
(-0.00338873 0.017684 3.63287e-18)
(-0.00242064 0.0177709 1.04312e-18)
(-0.00145243 0.0178287 7.80514e-19)
(-0.000484151 0.0178576 -9.45953e-18)
(0.000484141 0.0178576 -8.82791e-18)
(0.00145242 0.0178287 -9.44731e-18)
(0.00242064 0.0177709 -4.3236e-18)
(0.00338873 0.017684 6.28964e-18)
(0.0043566 0.0175676 1.11584e-18)
(-0.0136499 0.0158641 1.89195e-18)
(-0.0134185 0.0155903 -1.57073e-18)
(-0.0124349 0.01602 1.77156e-18)
(-0.0114534 0.0164051 1.80834e-18)
(-0.0104667 0.0167542 -2.80562e-18)
(-0.00947616 0.0170685 -1.59321e-17)
(-0.00848284 0.0173488 -4.85296e-19)
(-0.0074875 0.0175959 3.88333e-19)
(-0.00649077 0.0178105 3.19082e-19)
(-0.0054931 0.0179933 -6.30318e-18)
(-0.00449484 0.0181447 -6.08366e-18)
(-0.00349622 0.0182654 4.86739e-18)
(-0.0024974 0.0183555 5.71509e-19)
(-0.00149847 0.0184154 4.82843e-19)
(-0.000499498 0.0184454 -9.46598e-18)
(0.000499488 0.0184454 -9.33624e-18)
(0.00149846 0.0184154 -9.1815e-18)
(0.00249739 0.0183555 -3.86135e-18)
(0.00349622 0.0182654 5.90602e-18)
(0.00449484 0.0181447 1.67868e-18)
(-0.0141155 0.0163429 1.92626e-18)
(-0.013847 0.0160919 -1.41152e-18)
(-0.0128321 0.0165372 2.30037e-18)
(-0.0118188 0.0169365 1.61817e-18)
(-0.0108002 0.0172985 -2.95322e-18)
(-0.00977784 0.0176243 -1.71653e-17)
(-0.00875262 0.0179148 -2.22434e-18)
(-0.00772542 0.018171 1.9277e-18)
(-0.00669685 0.0183934 5.19477e-19)
(-0.00566738 0.0185828 -7.48684e-18)
(-0.00463737 0.0187397 -5.09608e-18)
(-0.00360703 0.0188647 5.57247e-18)
(-0.00257652 0.0189581 -1.82302e-20)
(-0.00154593 0.0190202 9.09209e-19)
(-0.000515317 0.0190512 -9.93989e-18)
(0.000515308 0.0190512 -1.00601e-17)
(0.00154593 0.0190202 -8.01545e-18)
(0.00257652 0.0189581 -2.67668e-18)
(0.00360703 0.0188647 4.63624e-18)
(0.00463736 0.0187397 1.14782e-18)
(-0.0145963 0.0168382 1.17416e-18)
(-0.0142899 0.0166103 -2.05009e-18)
(-0.0132423 0.0170714 2.18854e-18)
(-0.0121962 0.0174853 1.08342e-18)
(-0.0111447 0.0178605 -3.04798e-18)
(-0.0100893 0.0181981 -1.85153e-17)
(-0.00903112 0.0184991 -3.6741e-18)
(-0.00797099 0.0187645 3.96195e-18)
(-0.00690953 0.0189949 1.45984e-18)
(-0.00584724 0.019191 -7.52661e-18)
(-0.00478444 0.0193536 -4.14332e-18)
(-0.00372136 0.019483 4.96438e-18)
(-0.00265816 0.0195797 -5.19796e-19)
(-0.0015949 0.019644 2.24829e-18)
(-0.000531638 0.0196761 -9.95554e-18)
(0.000531629 0.0196761 -1.0924e-17)
(0.0015949 0.019644 -7.48269e-18)
(0.00265815 0.0195797 -1.13962e-18)
(0.00372136 0.019483 3.39435e-18)
(0.00478443 0.0193536 6.28428e-20)
(-0.0150931 0.0173508 4.19514e-19)
(-0.0147477 0.0171462 -2.20257e-18)
(-0.0136664 0.0176237 1.97549e-18)
(-0.0125862 0.0180525 -1.29432e-18)
(-0.0115006 0.0184412 -3.20553e-18)
(-0.0104111 0.018791 -1.85622e-17)
(-0.00931886 0.0191028 -4.15823e-18)
(-0.00822467 0.0193775 5.04565e-18)
(-0.00712922 0.0196161 2.41069e-18)
(-0.00603299 0.0198192 -6.9026e-18)
(-0.00493632 0.0199875 -3.66205e-18)
(-0.00383943 0.0201215 3.6701e-18)
(-0.00274246 0.0202216 -8.61896e-19)
(-0.00164547 0.0202881 3.4715e-18)
(-0.000548491 0.0203214 -1.04157e-17)
(0.000548483 0.0203214 -1.19488e-17)
(0.00164547 0.0202882 -7.07848e-18)
(0.00274246 0.0202216 5.3665e-19)
(0.00383943 0.0201215 1.84434e-18)
(0.00493632 0.0199875 -5.62864e-19)
(-0.0156069 0.0178817 -2.00719e-20)
(-0.0152216 0.0177007 -2.57708e-18)
(-0.0141052 0.0181951 1.9337e-18)
(-0.0129897 0.0186393 -3.33014e-18)
(-0.0118688 0.0190419 -3.61563e-18)
(-0.010744 0.0194041 -1.75953e-17)
(-0.00961639 0.0197269 -4.9466e-18)
(-0.00848696 0.0200114 4.55704e-18)
(-0.00735634 0.0202583 3.85737e-18)
(-0.00622502 0.0204686 -4.67816e-18)
(-0.00509332 0.0206427 -4.33219e-18)
(-0.00396147 0.0207814 1.36669e-18)
(-0.00282959 0.0208849 -5.54816e-19)
(-0.00169773 0.0209538 4.99981e-18)
(-0.000565908 0.0209882 -1.03614e-17)
(0.000565901 0.0209882 -1.30232e-17)
(0.00169773 0.0209538 -7.49451e-18)
(0.00282958 0.0208849 2.609e-18)
(0.00396147 0.0207814 3.13204e-19)
(0.00509332 0.0206427 -1.63017e-18)
(-0.0161386 0.0184321 -8.08694e-21)
(-0.0157123 0.018275 -3.80212e-18)
(-0.0145596 0.0187867 1.31643e-18)
(-0.0134075 0.0192467 -5.03996e-18)
(-0.0122499 0.0196636 -3.90014e-18)
(-0.0110884 0.0200386 -1.5566e-17)
(-0.00992429 0.0203728 -5.44343e-18)
(-0.00875837 0.0206672 3.46e-18)
(-0.00759133 0.0209228 6.41805e-18)
(-0.00642368 0.0211403 -1.89523e-18)
(-0.00525574 0.0213205 -7.6471e-18)
(-0.00408771 0.0214639 -1.73382e-18)
(-0.00291972 0.0215711 7.42171e-19)
(-0.00175179 0.0216423 7.01736e-18)
(-0.000583924 0.0216778 -1.0014e-17)
(0.000583918 0.0216778 -1.35961e-17)
(0.00175179 0.0216423 -8.07458e-18)
(0.00291971 0.0215711 5.10934e-18)
(0.00408771 0.0214639 1.39423e-19)
(0.00525574 0.0213205 -3.60966e-18)
(-0.0166895 0.019003 3.39015e-19)
(-0.0162209 0.0188701 -5.62392e-18)
(-0.0150304 0.0193998 1.18501e-18)
(-0.0138403 0.0198761 -6.28163e-18)
(-0.0126447 0.0203077 -4.08975e-18)
(-0.0114453 0.0206959 -1.28169e-17)
(-0.0102432 0.0210417 -5.87329e-18)
(-0.00903944 0.0213464 1.50401e-18)
(-0.00783468 0.0216108 9.59421e-18)
(-0.00662939 0.0218358 2.9979e-19)
(-0.00542391 0.0220222 -1.27233e-17)
(-0.00421842 0.0221705 -4.91573e-18)
(-0.00301303 0.0222813 3.16595e-18)
(-0.00180775 0.022355 9.33565e-18)
(-0.000602575 0.0223918 -9.60022e-18)
(0.000602571 0.0223918 -1.33772e-17)
(0.00180775 0.022355 -8.3445e-18)
(0.00301302 0.0222813 7.82441e-18)
(0.00421841 0.0221705 1.25226e-18)
(0.0054239 0.0220222 -5.53946e-18)
(-0.0172606 0.0195956 6.15099e-19)
(-0.0167485 0.0194875 -8.14373e-18)
(-0.0155187 0.0200356 1.67782e-18)
(-0.0142892 0.0205287 -7.36835e-18)
(-0.0130541 0.0209755 -4.80822e-18)
(-0.0118152 0.0213772 -9.71463e-18)
(-0.0105738 0.0217351 -6.21118e-18)
(-0.00933078 0.0220503 -6.84537e-19)
(-0.00808688 0.0223239 1.16443e-17)
(-0.00684258 0.0225566 1.96413e-18)
(-0.00559817 0.0227493 -1.7398e-17)
(-0.00435386 0.0229027 -6.84838e-18)
(-0.00310971 0.0230172 6.36619e-18)
(-0.00186574 0.0230934 1.14492e-17)
(-0.0006219 0.0231314 -9.19709e-18)
(0.000621897 0.0231314 -1.25561e-17)
(0.00186574 0.0230934 -8.43444e-18)
(0.00310971 0.0230173 9.72794e-18)
(0.00435385 0.0229027 3.03858e-18)
(0.00559817 0.0227493 -6.26915e-18)
(-0.0178531 0.0202114 8.73214e-20)
(-0.0172962 0.0201284 -9.24717e-18)
(-0.0160256 0.0206955 2.56106e-18)
(-0.014755 0.021206 -9.49955e-18)
(-0.0134789 0.0216685 -5.58042e-18)
(-0.012199 0.0220842 -6.05681e-18)
(-0.0109167 0.0224545 -6.63594e-18)
(-0.009633 0.0227806 -3.44773e-18)
(-0.00834849 0.0230635 1.26085e-17)
(-0.00706369 0.0233041 3.80987e-18)
(-0.00577891 0.0235034 -2.0462e-17)
(-0.00449432 0.0236619 -7.7846e-18)
(-0.00320998 0.0237804 8.84969e-18)
(-0.00192588 0.0238591 1.26656e-17)
(-0.000641941 0.0238984 -8.94725e-18)
(0.000641939 0.0238984 -1.15426e-17)
(0.00192588 0.0238591 -8.87334e-18)
(0.00320998 0.0237804 1.00871e-17)
(0.00449432 0.0236619 4.54669e-18)
(0.00577891 0.0235034 -4.93475e-18)
(-0.0184685 0.0208515 -5.5923e-20)
(-0.0178652 0.0207942 -8.89575e-18)
(-0.0165521 0.021381 3.07957e-18)
(-0.0152388 0.0219095 -1.20715e-17)
(-0.01392 0.0223881 -5.23274e-18)
(-0.0125976 0.0228183 -2.90923e-18)
(-0.0112729 0.0232014 -7.47001e-18)
(-0.00994678 0.0235387 -6.66232e-18)
(-0.00862008 0.0238312 1.33838e-17)
(-0.00729323 0.02408 5.79114e-18)
(-0.00596653 0.024286 -2.2395e-17)
(-0.00464012 0.02445 -8.03939e-18)
(-0.00331406 0.0245724 1.12614e-17)
(-0.0019883 0.0246537 1.33305e-17)
(-0.000662742 0.0246943 -8.90506e-18)
(0.000662741 0.0246943 -1.08812e-17)
(0.0019883 0.0246537 -9.2676e-18)
(0.00331406 0.0245724 1.04536e-17)
(0.00464012 0.02445 5.13518e-18)
(0.00596652 0.0242861 -3.74153e-18)
(-0.0191081 0.0215176 -3.88085e-19)
(-0.0184569 0.0214864 -8.83536e-18)
(-0.0170994 0.0220937 3.66565e-18)
(-0.0157417 0.0226408 -1.40566e-17)
(-0.0143785 0.0231361 -4.42078e-18)
(-0.0130118 0.0235812 -4.62123e-19)
(-0.0116429 0.0239775 -7.78706e-18)
(-0.0102728 0.0243264 -9.13713e-18)
(-0.00890227 0.0246289 1.32879e-17)
(-0.00753172 0.0248862 6.55334e-18)
(-0.00616144 0.0250991 -2.39697e-17)
(-0.00479159 0.0252685 -7.82369e-18)
(-0.00342217 0.025395 1.44222e-17)
(-0.00205314 0.0254791 1.43687e-17)
(-0.000684351 0.0255211 -9.00694e-18)
(0.00068435 0.0255211 -1.07689e-17)
(0.00205314 0.0254791 -9.67742e-18)
(0.00342218 0.0253951 1.06776e-17)
(0.00479158 0.0252685 5.34158e-18)
(0.00616144 0.0250991 -2.46212e-18)
(-0.0197734 0.0222113 -1.53514e-18)
(-0.0190726 0.0222068 -8.90754e-18)
(-0.017669 0.0228353 4.93858e-18)
(-0.0162649 0.0234016 -1.56036e-17)
(-0.0148555 0.0239142 -3.78033e-18)
(-0.0134427 0.0243748 1.52266e-18)
(-0.0120278 0.0247848 -7.22274e-18)
(-0.0106119 0.0251456 -1.11243e-17)
(-0.00919573 0.0254584 1.28053e-17)
(-0.00777971 0.0257244 6.5392e-18)
(-0.00636412 0.0259445 -2.57531e-17)
(-0.00494908 0.0261196 -7.78447e-18)
(-0.00353459 0.0262503 1.79947e-17)
(-0.00212055 0.0263372 1.58654e-17)
(-0.000706817 0.0263806 -9.22985e-18)
(0.000706818 0.0263806 -1.11305e-17)
(0.00212056 0.0263372 -1.0062e-17)
(0.00353459 0.0262503 1.05557e-17)
(0.00494907 0.0261196 4.91952e-18)
(0.00636411 0.0259445 -2.25597e-18)
(-0.020466 0.0229341 -3.50096e-18)
(-0.0197139 0.0229571 -8.05346e-18)
(-0.0182621 0.0236075 7.02254e-18)
(-0.0168098 0.0241938 -1.80587e-17)
(-0.0153521 0.0247243 -4.73501e-18)
(-0.0138912 0.0252009 4.19738e-18)
(-0.0124285 0.0256251 -6.09734e-18)
(-0.0109649 0.0259982 -1.26826e-17)
(-0.00950116 0.0263217 1.21843e-17)
(-0.0080378 0.0265967 5.74719e-18)
(-0.00657504 0.0268242 -2.76782e-17)
(-0.00511298 0.0270052 -7.86749e-18)
(-0.00365157 0.0271403 2.14909e-17)
(-0.00219071 0.0272301 1.7315e-17)
(-0.000730195 0.0272749 -9.80258e-18)
(0.000730197 0.0272749 -1.13422e-17)
(0.00219071 0.0272301 -1.04266e-17)
(0.00365157 0.0271403 1.02996e-17)
(0.00511297 0.0270052 5.00172e-18)
(0.00657504 0.0268242 -1.36248e-18)
(-0.0211878 0.0236881 -5.35565e-18)
(-0.0203823 0.0237392 -6.46117e-18)
(-0.0188802 0.0244124 8.98896e-18)
(-0.0173775 0.0250193 -2.13532e-17)
(-0.0158696 0.0255685 -5.8e-18)
(-0.0143586 0.0260617 7.21295e-18)
(-0.0128459 0.0265005 -5.14901e-18)
(-0.0113326 0.0268865 -1.35704e-17)
(-0.00981934 0.027221 1.05442e-17)
(-0.00830666 0.0275053 3.67624e-18)
(-0.00679475 0.0277405 -2.99205e-17)
(-0.00528369 0.0279276 -7.84582e-18)
(-0.00377341 0.0280672 2.45081e-17)
(-0.00226378 0.0281599 1.88095e-17)
(-0.000754544 0.0282062 -1.03928e-17)
(0.000754548 0.0282062 -1.09799e-17)
(0.00226378 0.02816 -1.04789e-17)
(0.00377341 0.0280672 1.03066e-17)
(0.00528368 0.0279276 5.57201e-18)
(0.00679474 0.0277405 4.11321e-19)
(-0.0219405 0.0244751 -5.97606e-18)
(-0.0210797 0.0245551 -4.26736e-18)
(-0.019525 0.025252 1.1059e-17)
(-0.0179697 0.0258804 -2.5385e-17)
(-0.0164093 0.0264489 -7.90033e-18)
(-0.014846 0.0269594 8.61521e-18)
(-0.0132812 0.0274134 -4.85212e-18)
(-0.011716 0.0278127 -1.45327e-17)
(-0.0101511 0.0281586 7.77e-18)
(-0.00858696 0.0284526 7.56264e-19)
(-0.0070238 0.0286957 -3.19542e-17)
(-0.00546165 0.0288891 -7.94681e-18)
(-0.00390043 0.0290333 2.63733e-17)
(-0.0227263 0.0252973 -8.81614e-18)
(-0.0218079 0.0254071 -6.01928e-18)
(-0.0201982 0.0261286 1.12161e-17)
(-0.0185879 0.0267794 -2.69554e-17)
(-0.0169727 0.027368 -5.50092e-18)
(-0.0153547 0.0278963 1.09724e-17)
(-0.0137355 0.0283662 -4.08693e-18)
(-0.0121161 0.0287792 -1.47202e-17)
(-0.0104973 0.029137 7.19714e-18)
(-0.00887947 0.029441 6.23355e-20)
(-0.00726281 0.0296924 -3.2124e-17)
(-0.00564736 0.0298922 -8.25892e-18)
(-0.00403297 0.0300414 2.72751e-17)
(-0.0235472 0.026157 -1.38445e-17)
(-0.0225689 0.0262974 -1.16372e-17)
(-0.0209017 0.0270447 9.55827e-18)
(-0.0192339 0.0277187 -2.58434e-17)
(-0.0175613 0.0283283 1.31267e-18)
(-0.0158862 0.0288752 1.46039e-17)
(-0.0142101 0.0293615 -3.80442e-18)
(-0.0125341 0.0297888 -1.37541e-17)
(-0.0108589 0.030159 9.16981e-18)
(-0.00918498 0.0304733 1.40929e-18)
(-0.00751245 0.0307333 -3.07948e-17)
(-0.0058413 0.0309399 -9.28379e-18)
(-0.00417139 0.0310941 2.80288e-17)
(-0.0095275 0.00736498 -7.40974e-19)
(-0.00983261 0.00767532 -4.19764e-18)
(-0.0101437 0.00799065 -5.77469e-18)
(-0.0104612 0.0083114 -2.81429e-18)
(-0.0107855 0.00863801 2.12887e-18)
(-0.0111172 0.00897094 6.36344e-18)
(-0.0114567 0.00931066 9.85551e-18)
(-0.0118045 0.00965765 1.00544e-17)
(-0.0121611 0.0100124 7.37267e-18)
(-0.012527 0.0103755 5.31608e-18)
(-0.0129028 0.0107474 3.47027e-18)
(-0.0132892 0.0111287 1.07165e-18)
(-0.0136866 0.0115201 -7.60568e-19)
(-0.0140958 0.0119221 -2.50783e-18)
(-0.0145174 0.0123353 -3.66738e-18)
(-0.0149521 0.0127605 -2.08943e-18)
(-0.0154008 0.0131985 -1.37526e-19)
(-0.0158641 0.0136499 -1.24686e-19)
(-0.0163429 0.0141155 -3.34647e-19)
(-0.0168382 0.0145963 -5.23932e-19)
(-0.0173508 0.0150931 -6.74762e-19)
(-0.0178817 0.0156069 -7.75785e-19)
(-0.0184321 0.0161386 -3.75667e-19)
(-0.019003 0.0166895 8.49441e-19)
(-0.0195956 0.0172606 1.83288e-18)
(-0.0202114 0.0178531 2.10209e-18)
(-0.0208515 0.0184685 2.732e-18)
(-0.0215177 0.0191081 2.81698e-18)
(-0.0222113 0.0197734 2.3159e-18)
(-0.0229341 0.020466 1.27257e-18)
(-0.0236881 0.0211878 5.5245e-19)
(-0.0244751 0.0219405 2.16674e-18)
(-0.0252973 0.0227263 2.90514e-19)
(-0.026157 0.0235472 -4.27867e-18)
(-0.00886657 0.00768044 -7.98062e-18)
(-0.00919572 0.00796091 -1.03762e-17)
(-0.00953053 0.00824628 -1.02226e-17)
(-0.00987149 0.00853694 -9.32402e-18)
(-0.0102191 0.00883331 -6.92008e-18)
(-0.0105737 0.00913578 -3.61906e-18)
(-0.010936 0.00944481 -4.83433e-19)
(-0.0113064 0.00976084 4.83524e-19)
(-0.0116855 0.0100843 1.61447e-18)
(-0.0120739 0.0104158 2.02887e-18)
(-0.0124721 0.0107556 1.97439e-18)
(-0.0128807 0.0111045 1.98205e-18)
(-0.0133005 0.0114628 1.23139e-18)
(-0.0137319 0.0118313 -2.97782e-19)
(-0.0141759 0.0122104 -1.01474e-18)
(-0.0146331 0.0126009 -1.53955e-18)
(-0.0151043 0.0130033 -3.07535e-18)
(-0.0155903 0.0134184 -3.42194e-18)
(-0.0160919 0.013847 -3.1722e-18)
(-0.0166103 0.0142898 -3.9501e-18)
(-0.0171462 0.0147477 -4.18152e-18)
(-0.0177007 0.0152216 -4.4775e-18)
(-0.018275 0.0157123 -5.47593e-18)
(-0.0188701 0.0162209 -7.23819e-18)
(-0.0194875 0.0167485 -9.41704e-18)
(-0.0201284 0.0172962 -1.03846e-17)
(-0.0207942 0.0178652 -1.08382e-17)
(-0.0214865 0.0184569 -1.14239e-17)
(-0.0222068 0.0190726 -1.18201e-17)
(-0.0229571 0.0197139 -1.07436e-17)
(-0.0237392 0.0203823 -8.10957e-18)
(-0.0245551 0.0210797 -4.36839e-18)
(-0.0254071 0.0218079 -6.12358e-18)
(-0.0262974 0.0225689 -1.23588e-17)
(-0.00907399 0.00710386 -8.10151e-18)
(-0.00941492 0.00736538 -9.31078e-18)
(-0.0097616 0.00763131 -9.13925e-18)
(-0.0101145 0.00790205 -8.97713e-18)
(-0.0104741 0.00817795 -8.84259e-18)
(-0.010841 0.00845942 -7.95677e-18)
(-0.0112156 0.00874686 -6.5529e-18)
(-0.0115985 0.00904069 -5.69081e-18)
(-0.0119903 0.00934134 -4.40685e-18)
(-0.0123915 0.00964925 -3.03177e-18)
(-0.0128028 0.0099649 -1.11163e-18)
(-0.0132247 0.0102888 2.54809e-19)
(-0.013658 0.0106214 9.93143e-20)
(-0.0141033 0.0109632 -5.33526e-19)
(-0.0145613 0.0113149 -7.40436e-19)
(-0.0150329 0.011677 6.30375e-20)
(-0.0155189 0.0120501 1.96504e-18)
(-0.01602 0.0124349 3.20659e-18)
(-0.0165372 0.012832 2.73268e-18)
(-0.0170714 0.0132423 2.0083e-18)
(-0.0176237 0.0136664 1.79205e-18)
(-0.0181951 0.0141052 1.64789e-18)
(-0.0187867 0.0145596 8.83151e-19)
(-0.0193998 0.0150304 4.84866e-19)
(-0.0200356 0.0155187 1.28463e-18)
(-0.0206955 0.0160256 2.3102e-18)
(-0.0213811 0.0165521 2.62129e-18)
(-0.0220937 0.0170994 3.55519e-18)
(-0.0228353 0.017669 4.29923e-18)
(-0.0236075 0.0182621 5.45507e-18)
(-0.0244124 0.0188802 7.55198e-18)
(-0.025252 0.019525 1.02854e-17)
(-0.0261286 0.0201982 9.54925e-18)
(-0.0270447 0.0209017 6.37924e-18)