/*--------------------------------*- C++ -*----------------------------------*\
  =========                 |
  \\      /  F ield         | OpenFOAM: The Open Source CFD Toolbox
   \\    /   O peration     | Website:  https://openfoam.org
    \\  /    A nd           | Version:  7
     \\/     M anipulation  |
\*---------------------------------------------------------------------------*/
FoamFile
{
    version     2.0;
    format      ascii;
    class       volScalarField;
    location    "28000";
    object      nu;
}
// * * * * * * * * * * * * * * * * * * * * * * * * * * * * * * * * * * * * * //

dimensions      [0 2 -1 0 0 0 0];

internalField   nonuniform List<scalar> 
4844
(
0.001
0.001
0.001
0.001
0.001
0.001
0.001
0.001
0.001
0.001
0.000998038
0.001
0.001
0.001
0.001
0.001
0.001
0.001
0.000996004
0.000987121
0.000979264
0.00097013
0.001
0.001
0.001
0.001
0.001
0.000999495
0.000995586
0.000989738
0.000982973
0.0009751
0.000965605
0.00095342
0.00094325
0.00093383
0.000925495
0.000913584
0.000993771
0.00099529
0.00099601
0.000995831
0.000993918
0.000990531
0.000985272
0.000979101
0.000973854
0.000966331
0.000957613
0.000948486
0.000939324
0.000930682
0.000923362
0.000912482
0.00098304
0.00098437
0.000985346
0.000984795
0.000982157
0.000977803
0.000972252
0.000966321
0.000960887
0.000953744
0.000945889
0.000939174
0.000931191
0.00092347
0.000916824
0.000905946
0.000971849
0.000972205
0.000971031
0.000967958
0.000963347
0.000957868
0.000952146
0.000946371
0.000939572
0.000932522
0.000926284
0.000919144
0.00091213
0.000905719
0.000894374
0.00095887
0.000958231
0.000956225
0.000952752
0.000948073
0.000942718
0.000937088
0.000931146
0.00092464
0.000918106
0.000911911
0.000905257
0.000898629
0.000892123
0.000880306
0.00094583
0.000943867
0.000940985
0.000937124
0.00093239
0.000927109
0.000921506
0.000915538
0.000909261
0.000903
0.000896809
0.000890389
0.000883883
0.000877122
0.000865014
0.000933451
0.00093234
0.000929091
0.000925497
0.000921303
0.00091649
0.000911227
0.000905627
0.000899701
0.000893583
0.000887454
0.000881273
0.000874933
0.000868382
0.000861335
0.000849136
0.000919685
0.000917706
0.00091386
0.000909828
0.00090538
0.000900478
0.000895196
0.000889595
0.000883723
0.000877706
0.000871635
0.000865458
0.000859103
0.00085243
0.000845136
0.000833001
0.000904041
0.00090215
0.000898319
0.000894047
0.000889412
0.000884419
0.000879101
0.000873499
0.000867672
0.000861711
0.000855658
0.000849465
0.000843047
0.000836232
0.000828755
0.000816789
0.000888222
0.000886533
0.000882675
0.000878227
0.000873443
0.000868362
0.000863004
0.000857398
0.000851598
0.000845664
0.000839607
0.000833377
0.000826877
0.000819933
0.000812339
0.000800607
0.000870264
0.000873854
0.000871202
0.00086707
0.000862431
0.00085751
0.000852346
0.000846947
0.000841334
0.000835547
0.000829619
0.000823543
0.000817266
0.000810682
0.000803638
0.000795983
0.000784523
0.000861502
0.000860047
0.000856095
0.000851546
0.000846692
0.000841641
0.0008364
0.000830962
0.000825339
0.000819554
0.000813619
0.000807517
0.000801188
0.000794531
0.000787418
0.000779748
0.00076858
0.000845515
0.000850483
0.000845915
0.000841042
0.000836087
0.000831026
0.000825855
0.000820545
0.000815073
0.000809438
0.000803647
0.000797699
0.000791568
0.000785192
0.000778478
0.000771327
0.000763675
0.000752807
0.000836825
0.000836716
0.000831281
0.000825916
0.000820664
0.000815435
0.000810165
0.000804798
0.000799297
0.000793649
0.000787851
0.000781888
0.000775729
0.000769313
0.000762561
0.000755398
0.000747791
0.000737223
0.000824252
0.000821562
0.00081619
0.000810673
0.000805261
0.00079992
0.000794579
0.00078917
0.000783648
0.00077799
0.000772183
0.000766207
0.000760024
0.00075358
0.000746808
0.000739655
0.000732111
0.000721841
0.000808854
0.000805829
0.000800794
0.000795334
0.00078988
0.000784487
0.000779105
0.00077367
0.000768135
0.000762472
0.00075666
0.000750674
0.000744475
0.000738014
0.000731238
0.000724114
0.000716647
0.000706668
0.000792814
0.000789944
0.000785258
0.000779953
0.000774539
0.000769144
0.00076375
0.000758307
0.000752769
0.000747106
0.000741293
0.000735302
0.000729095
0.00072263
0.000715867
0.000708787
0.000701408
0.000691712
0.000776896
0.000774123
0.000769704
0.000764581
0.000759256
0.0007539
0.000748522
0.000743087
0.000737557
0.000731901
0.000726092
0.000720103
0.000713898
0.000707442
0.000700705
0.000693681
0.000686399
0.000676979
0.00076125
0.000758429
0.000754193
0.000749254
0.000744052
0.000738765
0.000733426
0.000728016
0.000722504
0.000716863
0.000711067
0.000705087
0.000698894
0.000692459
0.000685761
0.000678806
0.000671628
0.000662476
0.000745727
0.000742805
0.000738731
0.000733991
0.00072894
0.00072375
0.000718472
0.000713101
0.000707619
0.000702001
0.000696225
0.000690265
0.000684095
0.000677692
0.000671046
0.000664168
0.000657101
0.00064821
0.00073003
0.000727141
0.000723301
0.000718801
0.000713933
0.000708865
0.000703667
0.000698351
0.000692909
0.000687325
0.000681578
0.000675647
0.00066951
0.000663151
0.000656568
0.000649777
0.000642824
0.000634185
0.00071386
0.000711354
0.000707898
0.0007037
0.000699046
0.000694123
0.000689023
0.000683776
0.000678386
0.000672844
0.000667136
0.000661243
0.00065515
0.000648846
0.000642332
0.000635633
0.000628796
0.000620398
0.000697125
0.000695467
0.000692554
0.000688714
0.000684301
0.000679542
0.000674554
0.000669387
0.00066406
0.00065857
0.000652909
0.000647064
0.000641022
0.000634779
0.000628341
0.000621735
0.00061501
0.000606838
0.000680121
0.000679642
0.000677347
0.000673885
0.000669725
0.000665139
0.000660273
0.000655197
0.00064994
0.00064451
0.000638903
0.000633111
0.000627126
0.000620948
0.000614585
0.000608069
0.000601448
0.000593484
0.000663534
0.000664137
0.000662382
0.000659266
0.000655347
0.000650934
0.000646194
0.000641214
0.000636033
0.000630667
0.000625118
0.000619381
0.000613454
0.000607337
0.000601046
0.000594612
0.000588086
0.000580313
0.00064813
0.000649195
0.000647757
0.000644902
0.000641192
0.00063694
0.000632324
0.000627439
0.000622335
0.000617033
0.000611541
0.000605858
0.000599984
0.000593926
0.000587699
0.000581338
0.000574899
0.000567307
0.000634278
0.000634945
0.000633533
0.000630825
0.000627274
0.000623161
0.000618658
0.000613864
0.000608833
0.000603592
0.000598153
0.000592519
0.000586694
0.000580688
0.000574521
0.000568232
0.000561881
0.000554471
0.000620131
0.000621751
0.000621355
0.000619718
0.000617041
0.000613593
0.00060959
0.000605184
0.000600471
0.000595506
0.000590321
0.00058493
0.000579342
0.000573564
0.000567611
0.000561509
0.000555302
0.000549056
0.000541847
0.000611818
0.000609875
0.000608282
0.000606272
0.000603533
0.000600133
0.00059621
0.000591883
0.00058724
0.000582335
0.000577202
0.000571859
0.00056632
0.000560597
0.000554711
0.000548693
0.000542595
0.000536489
0.00052952
0.000598806
0.000602157
0.00059811
0.000595554
0.00059313
0.000590268
0.000586873
0.000583002
0.00057874
0.00057416
0.000569314
0.000564238
0.000558954
0.00055348
0.000547835
0.000542046
0.00053615
0.000530206
0.00052429
0.000517605
0.000591245
0.000590831
0.000586234
0.000583022
0.000580224
0.000577216
0.0005738
0.000569965
0.000565762
0.000561248
0.000556472
0.00055147
0.000546269
0.000540893
0.000535365
0.000529718
0.000523995
0.000518256
0.000512577
0.000506207
0.000581167
0.000578712
0.000574179
0.000570599
0.000567511
0.000564371
0.00056093
0.00055713
0.000552992
0.00054856
0.000543878
0.000538983
0.000533905
0.00052867
0.000523308
0.000517853
0.000512349
0.000506852
0.000501428
0.000495359
0.000569018
0.000566242
0.000561991
0.00055827
0.000554999
0.000551765
0.000548318
0.00054457
0.00054052
0.000536199
0.000531647
0.0005269
0.000521987
0.000516938
0.00051178
0.000506548
0.000501278
0.000496014
0.000490802
0.000484946
0.000556245
0.000553687
0.000549791
0.000546093
0.000542749
0.000539481
0.000536063
0.000532397
0.000528465
0.00052429
0.000519903
0.000515337
0.000510619
0.000505774
0.000500826
0.000495798
0.000490715
0.000485598
0.000480469
0.000474648
0.00054353
0.000541273
0.000537745
0.000534184
0.000530865
0.000527625
0.000524278
0.000520724
0.000516938
0.00051293
0.000508724
0.000504343
0.000499808
0.000495135
0.000490336
0.000485419
0.000480388
0.000475242
0.000469978
0.000463944
0.000531204
0.000529203
0.000526025
0.000522668
0.000519449
0.000516289
0.000513039
0.00050961
0.00050597
0.000502118
0.000498062
0.000493815
0.000489385
0.000484776
0.000479983
0.000474997
0.000469802
0.000464382
0.000458725
0.000452235
0.00051943
0.000517617
0.000514752
0.000511619
0.000508536
0.00050547
0.000502309
0.000498977
0.000495438
0.000491671
0.00048767
0.000483433
0.000478956
0.000474226
0.000469227
0.000463935
0.000458329
0.000452396
0.000446151
0.000439095
0.000508229
0.000506537
0.000503918
0.00050098
0.000498011
0.000494998
0.000491863
0.000488543
0.000484996
0.000481181
0.000477073
0.000472661
0.000467929
0.000462858
0.000457429
0.000451622
0.000445433
0.000438889
0.000432072
0.000424622
0.000497442
0.000495794
0.000493322
0.000490491
0.000487548
0.000484485
0.000481254
0.000477806
0.000474093
0.000470049
0.000465641
0.000460856
0.00045568
0.000450103
0.00044412
0.000437746
0.000431026
0.000424061
0.000417036
0.000409752
0.000486693
0.000484994
0.000482541
0.000479681
0.000476623
0.000473362
0.000469882
0.000466146
0.0004621
0.000457661
0.000452808
0.00044754
0.000441863
0.000435795
0.000429375
0.000422677
0.000415824
0.000409015
0.000402546
0.00039636
0.000475414
0.000473563
0.000470994
0.00046796
0.000464634
0.000461039
0.000457191
0.000453057
0.000448589
0.000443708
0.000438425
0.00043277
0.000426788
0.000420546
0.000414147
0.000407739
0.000401533
0.00039582
0.000390985
0.000387043
0.00046299
0.000460919
0.000458144
0.000454849
0.000451173
0.000447213
0.000443003
0.000438511
0.000433712
0.000428564
0.000423132
0.000417487
0.000411722
0.000405965
0.000400387
0.000395207
0.000390709
0.000387242
0.000385216
0.000384602
0.000449051
0.000446775
0.000443819
0.000440318
0.000436386
0.000432231
0.000427877
0.000423304
0.00041852
0.000413572
0.000408572
0.000403635
0.000398903
0.000394557
0.000390822
0.000387964
0.000386294
0.00038616
0.000387887
0.000391201
0.000433833
0.000431499
0.000428553
0.000425114
0.000421285
0.00041736
0.000413332
0.000409211
0.000405056
0.000401034
0.000397285
0.000393953
0.000391215
0.000389287
0.00038841
0.000388846
0.000390857
0.000394661
0.000400299
0.000406898
0.000418465
0.000416367
0.000413798
0.000410906
0.00040782
0.000404778
0.000401746
0.000398807
0.000396086
0.000393859
0.00039225
0.000391416
0.000391546
0.000392838
0.000395478
0.000399614
0.000405301
0.000412381
0.000420242
0.000426864
0.000404999
0.000403537
0.000401827
0.000400101
0.000398615
0.000397214
0.000395921
0.000394948
0.000394509
0.000394877
0.000396118
0.000398369
0.000401764
0.000406382
0.000412193
0.000419009
0.000426377
0.000433375
0.000438307
0.000437651
0.000396094
0.000395677
0.000395303
0.000395344
0.000396361
0.000397261
0.000398314
0.000399918
0.000402407
0.000405755
0.000409929
0.000414974
0.000420818
0.000427211
0.000433627
0.00043922
0.000442709
0.000442223
0.00043518
0.000417593
0.000394377
0.000395285
0.000396541
0.000398688
0.00040283
0.000406275
0.000409795
0.000413985
0.000419349
0.000424954
0.000430658
0.00043626
0.000441255
0.000444802
0.000445676
0.00044234
0.000433012
0.000415826
0.000389119
0.000351251
0.000401432
0.000403596
0.000406319
0.000410266
0.000417191
0.000422427
0.000427392
0.000432758
0.000439248
0.000444119
0.000447234
0.000448036
0.000445525
0.00043842
0.000425326
0.000405057
0.000376933
0.000341133
0.000298816
0.000251746
0.000416056
0.000418684
0.000421791
0.000425973
0.000433102
0.00043753
0.000440849
0.000443547
0.000446543
0.000444753
0.000438489
0.00042719
0.000410045
0.000386417
0.000356216
0.000320131
0.000279693
0.0002372
0.000195158
0.000155746
0.000431301
0.000432403
0.000433389
0.000434449
0.000435685
0.000434581
0.00043109
0.000425328
0.000418221
0.000403803
0.000383412
0.000357392
0.000326215
0.000290832
0.000252852
0.000214234
0.00017701
0.000143021
0.000113417
8.86754e-05
0.000428379
0.000424969
0.000420313
0.000414069
0.000404571
0.000393518
0.000379312
0.000361907
0.000341773
0.000315908
0.000285983
0.0002534
0.000219596
0.000186086
0.000154447
0.000125868
0.000101089
8.04473e-05
6.37614e-05
5.06064e-05
0.000328341
0.000308695
0.000286746
0.000262703
0.000236979
0.000209587
0.000181732
0.000154675
0.000129414
0.00010667
8.69689e-05
7.04205e-05
5.68728e-05
4.60538e-05
3.75383e-05
3.09097e-05
0.000142481
0.000122463
0.000103804
8.69987e-05
7.22973e-05
5.97483e-05
4.93209e-05
4.08084e-05
3.39477e-05
2.84904e-05
2.41722e-05
2.07593e-05
0.000848528
0.00085797
0.00084437
0.00085105
0.000836404
0.000842733
0.000824902
0.000832374
0.000832275
0.000811735
0.000820587
0.000823965
0.000797702
0.000807427
0.000813387
0.000808498
0.000783154
0.000793373
0.000800137
0.000800316
0.000768274
0.000778671
0.000785661
0.000789474
0.000753182
0.000763528
0.00077061
0.000776061
0.000774774
0.000737977
0.00074811
0.000755108
0.000761048
0.000763594
0.000722748
0.000732566
0.000739327
0.000744918
0.000748351
0.000707573
0.00071703
0.000723489
0.000728513
0.000730818
0.000692516
0.000701616
0.000707805
0.000712409
0.000713857
0.000677621
0.000686399
0.000692415
0.000696919
0.000698507
0.000662913
0.000671418
0.00067737
0.000682059
0.000684664
0.000682457
0.000648403
0.000656682
0.000662655
0.000667688
0.00067151
0.00067323
0.000634104
0.000642194
0.000648236
0.000653655
0.00065846
0.000662962
0.000657501
0.000620043
0.000627968
0.000634093
0.000639861
0.000645411
0.000651141
0.000651457
0.000646026
0.000606272
0.000614047
0.000620246
0.00062629
0.000632349
0.000638647
0.00064289
0.000641207
0.000637992
0.000592861
0.000600499
0.000606751
0.00061299
0.000619369
0.00062598
0.000631772
0.000633858
0.000633122
0.000632617
0.000579875
0.000587389
0.000593675
0.000600036
0.000606595
0.000613362
0.000619735
0.000623757
0.000625785
0.000626099
0.000567326
0.000574731
0.000581033
0.000587461
0.000594103
0.000600921
0.000607472
0.000612471
0.000615802
0.000617528
0.000555107
0.000562417
0.00056872
0.000575173
0.000581834
0.000588633
0.000595194
0.000600649
0.000604625
0.000606942
0.000542946
0.000550164
0.000556449
0.000562889
0.000569518
0.000576251
0.000582751
0.000588388
0.000592697
0.000595374
0.000530398
0.000537506
0.000543738
0.000550118
0.000556668
0.000563293
0.000569689
0.000575364
0.000579854
0.000582835
0.000516937
0.000523884
0.000530004
0.000536263
0.000542672
0.000549136
0.000555383
0.000561007
0.000565586
0.000568831
0.000502158
0.000508863
0.000514795
0.000520854
0.000527047
0.00053328
0.000539316
0.000544811
0.000549397
0.000552831
0.000486083
0.000492449
0.000498117
0.000503905
0.000509806
0.000515735
0.000521487
0.000526772
0.000531276
0.000534795
0.000469438
0.000475402
0.000480778
0.000486264
0.000491833
0.000497408
0.00050282
0.000507828
0.000512173
0.000515675
0.000453779
0.000459376
0.000464524
0.000469766
0.000475042
0.000480285
0.000485361
0.000490077
0.000494227
0.000497666
0.000441323
0.00044674
0.000451853
0.00045703
0.000462173
0.000467217
0.000472061
0.000476561
0.00048057
0.000483996
0.00043187
0.000437444
0.000442794
0.000448171
0.000453429
0.0004585
0.000463307
0.000467752
0.000471746
0.000475259
0.000850534
0.000846961
0.000839152
0.000827332
0.000813662
0.000799141
0.000784209
0.000769072
0.000753837
0.000738577
0.000723354
0.000708219
0.000693214
0.000678368
0.000663698
0.000649212
0.000634919
0.000620838
0.000607005
0.00059348
0.000580328
0.000567588
0.000555216
0.000543035
0.000530698
0.00051773
0.000503669
0.00048834
0.000472194
0.000456554
0.000443594
0.000433297
0.000859158
0.000854936
0.000847168
0.000835668
0.000822265
0.000807856
0.000792917
0.000777709
0.000762387
0.000747044
0.000731747
0.000716544
0.000701471
0.000686556
0.000671815
0.000657258
0.000642888
0.000628711
0.000614741
0.000601009
0.000587558
0.000574437
0.000561672
0.000549231
0.000536984
0.000524681
0.000511977
0.000498521
0.000484138
0.000469065
0.000454181
0.000441138
0.000429537
0.000866429
0.000861595
0.000853469
0.000841874
0.000828539
0.000814255
0.00079943
0.000784303
0.00076903
0.000753714
0.00073843
0.000723231
0.000708157
0.000693236
0.00067849
0.000663932
0.000649567
0.000635397
0.000621422
0.000607648
0.000594086
0.000580759
0.000567694
0.000554914
0.000542428
0.000530212
0.0005182
0.000506287
0.000494323
0.000482107
0.000469369
0.000455748
0.000440867
0.000424485
0.000407102
0.000390587
0.000378267
0.000372616
0.000873882
0.000868721
0.000860261
0.000848417
0.000834949
0.000820621
0.000805806
0.000790711
0.000775471
0.000760181
0.000744913
0.000729719
0.00071464
0.000699708
0.000684947
0.000670374
0.000656002
0.000641833
0.000627864
0.000614086
0.000600488
0.000587064
0.00057382
0.00056079
0.000548035
0.000535644
0.000523709
0.00051227
0.000501241
0.000490316
0.000478909
0.000466199
0.000451368
0.000434063
0.000414964
0.000396201
0.000381308
0.000372747
0.000880915
0.000875701
0.000867094
0.000855081
0.00084147
0.000827044
0.000812173
0.000797054
0.000781808
0.00076652
0.000751254
0.000736057
0.000720969
0.000706021
0.000691237
0.000676639
0.000662242
0.000648055
0.000634075
0.000620291
0.00060668
0.000593218
0.000579892
0.00056672
0.000553767
0.000541154
0.000529039
0.000517552
0.000506701
0.000496246
0.000485598
0.000473832
0.000459906
0.000443154
0.000423949
0.000404221
0.000387487
0.000376263
0.000887374
0.000882234
0.000873627
0.000861567
0.000847894
0.00083341
0.000818492
0.000803338
0.000788069
0.000772766
0.000757488
0.000742279
0.000727175
0.000712205
0.000697393
0.000682762
0.000668329
0.000654106
0.000640096
0.000626288
0.000612659
0.000599178
0.000585818
0.000572579
0.000559511
0.000546727
0.000534393
0.000522679
0.000511668
0.000501232
0.000490918
0.000479913
0.000467175
0.000451804
0.000433608
0.00041366
0.000394529
0.000380048
0.0003727
0.000893316
0.000888248
0.000879699
0.000867679
0.000854033
0.000839564
0.00082465
0.000809495
0.00079422
0.000778908
0.000763616
0.000748391
0.000733267
0.000718271
0.000703428
0.000688759
0.000674283
0.000660014
0.000645959
0.000632111
0.00061845
0.000604942
0.000591557
0.000578281
0.000565147
0.000552248
0.00053974
0.000527805
0.000516566
0.000505974
0.000495683
0.000484982
0.000472865
0.000458332
0.000440921
0.000421325
0.000401772
0.000385916
0.000376272
0.000898777
0.000893717
0.000885237
0.000873314
0.000859773
0.000845398
0.000830558
0.000815454
0.000800209
0.000784909
0.000769617
0.000754381
0.000739238
0.000724215
0.000709339
0.00069463
0.000680108
0.000665788
0.000651679
0.000637779
0.000624071
0.000610525
0.000597107
0.000583798
0.000570616
0.000557638
0.000545004
0.000532892
0.000521442
0.000510649
0.000500242
0.000489595
0.000477763
0.00046374
0.000446941
0.000427822
0.000408326
0.000391861
0.000380744
0.000903625
0.000898508
0.000890133
0.000878399
0.000865066
0.000850877
0.000836186
0.000821187
0.000806011
0.000790749
0.000775473
0.000760234
0.000745075
0.000730026
0.000715116
0.000700365
0.000685794
0.00067142
0.000657254
0.000643295
0.000629531
0.000615934
0.000602473
0.000589124
0.000575898
0.000562857
0.000550129
0.000537878
0.00052625
0.000515265
0.000504699
0.000493995
0.000482277
0.000468565
0.000452224
0.000433556
0.000414274
0.000397539
0.000385424
0.000907443
0.000902268
0.00089418
0.000882858
0.000869917
0.000856041
0.000841575
0.000826726
0.000811644
0.000796434
0.000781179
0.000765941
0.000750767
0.000735691
0.000720744
0.000705949
0.000691327
0.000676897
0.00066267
0.000648649
0.000634823
0.000621169
0.000607655
0.000594259
0.000580985
0.000567887
0.000555079
0.000542716
0.000530939
0.000519781
0.000509053
0.000498248
0.000486553
0.00047303
0.000457031
0.000438759
0.000419746
0.000402934
0.000390139
0.00090904
0.000904004
0.00089712
0.000886724
0.000874479
0.000861046
0.000846841
0.000832143
0.000817144
0.000801977
0.000786737
0.000771494
0.0007563
0.000741193
0.000726205
0.000711363
0.000696688
0.000682199
0.000667909
0.000653823
0.000639932
0.000626215
0.000612644
0.000599194
0.000585868
0.000572713
0.000559834
0.000547374
0.00053547
0.00052416
0.000513276
0.000502354
0.000490631
0.000477217
0.000461471
0.000443539
0.000424814
0.000408052
0.000394818
0.000900784
0.000897241
0.000890279
0.00087916
0.000866129
0.000852077
0.000837449
0.00082249
0.000807344
0.00079211
0.000776858
0.000761641
0.000746501
0.000731471
0.000716578
0.000701848
0.000687298
0.000672945
0.000658793
0.000644836
0.000631054
0.00061742
0.000603913
0.000590532
0.00057732
0.000564373
0.000551828
0.000539813
0.00052837
0.000517342
0.000506296
0.000494515
0.000481151
0.000465588
0.000447941
0.000429506
0.00041288
0.000399395
0.000893159
0.000889851
0.000882086
0.000870307
0.000856737
0.000842323
0.000827478
0.000812399
0.0007972
0.000781958
0.000766731
0.000751565
0.000736496
0.000721557
0.000706772
0.000692163
0.000677747
0.000663529
0.000649506
0.000635659
0.000621963
0.000608396
0.000594957
0.000581688
0.000568678
0.000556056
0.000543945
0.000532383
0.000521224
0.000510056
0.000498196
0.00048484
0.000469401
0.000451987
0.000433828
0.000417394
0.000403804
0.00089148
0.000888072
0.00088207
0.000871991
0.000859711
0.000846115
0.000831745
0.000816931
0.000801875
0.000786702
0.000771499
0.000756327
0.000741233
0.000726254
0.00071142
0.000696756
0.00068228
0.000668
0.000653913
0.000640002
0.000626245
0.000612618
0.000599123
0.000585797
0.000572727
0.000560036
0.00054784
0.000536176
0.000524899
0.000513613
0.000501663
0.000488283
0.000472921
0.000455691
0.000437783
0.000421572
0.000407986
0.000884523
0.000881015
0.000873569
0.000862347
0.000849346
0.000835405
0.000820909
0.000806068
0.000791027
0.00077589
0.000760739
0.000745636
0.000730628
0.000715753
0.00070104
0.000686509
0.000672172
0.000658026
0.000644056
0.00063024
0.000616556
0.000603006
0.000589626
0.0005765
0.000563746
0.000551478
0.000539724
0.000528343
0.000516947
0.000504903
0.000491478
0.000476152
0.000459061
0.000441376
0.000425398
0.000411894
0.000882993
0.000878956
0.000872942
0.000863263
0.000851521
0.000838416
0.000824418
0.000809857
0.000794964
0.000779899
0.000764774
0.000749668
0.000734639
0.000719731
0.000704977
0.000690401
0.000676013
0.000661815
0.000647792
0.000633922
0.000620186
0.000606585
0.000593154
0.000579976
0.000567168
0.000554836
0.000543007
0.000531536
0.00052004
0.000507903
0.000494417
0.000479099
0.000462108
0.000444612
0.000428864
0.000415491
0.000874014
0.000870963
0.000864614
0.000854114
0.000841546
0.000827796
0.000813359
0.000798532
0.000783503
0.000768393
0.000753287
0.000738246
0.000723316
0.000708532
0.00069392
0.000679494
0.000665253
0.000651185
0.000637269
0.000623487
0.000609839
0.000596363
0.000583139
0.000570283
0.000557898
0.000546005
0.000534458
0.000522874
0.000510647
0.000497094
0.000481761
0.000464838
0.0004475
0.000431967
0.000418751
0.000866427
0.000863476
0.000855979
0.000844334
0.000830806
0.000816412
0.000801605
0.000786601
0.000771517
0.000756431
0.000741399
0.000726467
0.000711672
0.00069704
0.000682587
0.000668316
0.000654214
0.000640262
0.000626441
0.000612754
0.000599238
0.000585975
0.000573078
0.000560648
0.000548703
0.000537092
0.000525432
0.000513123
0.000499501
0.000484139
0.000467257
0.000450047
0.000434708
0.000421661
0.000866207
0.000862761
0.000855836
0.000845042
0.000832228
0.000818326
0.000803834
0.000789026
0.000774065
0.000759055
0.00074407
0.000729164
0.000714379
0.000699746
0.000685283
0.000670994
0.000656869
0.00064289
0.000629039
0.00061532
0.000601771
0.000588474
0.000575542
0.000563075
0.000551088
0.000539425
0.0005277
0.000515319
0.000501629
0.00048623
0.000469371
0.00045226
0.000437093
0.000424212
0.000867818
0.000863298
0.000856027
0.000845403
0.000832986
0.000819511
0.000805379
0.000790841
0.000776069
0.000761186
0.000746283
0.000731428
0.000716671
0.00070205
0.000687588
0.000673292
0.000659153
0.000645154
0.00063128
0.000617534
0.000603957
0.000590631
0.000577671
0.000565174
0.000553152
0.000541447
0.000529669
0.000517225
0.000503473
0.000488034
0.000471182
0.000454148
0.000439125
0.000426399
0.000868397
0.000863211
0.000856162
0.000845832
0.00083377
0.000820596
0.000806701
0.000792347
0.000777717
0.000762941
0.000748115
0.000733312
0.000718587
0.000703983
0.000689526
0.000675225
0.000661076
0.000647061
0.000633167
0.000619398
0.000605796
0.000592446
0.000579461
0.000566939
0.00055489
0.000543151
0.000531329
0.000518832
0.000505025
0.000489546
0.000472692
0.000455716
0.000440812
0.000428221
0.000859437
0.000854874
0.00084671
0.000835077
0.000821909
0.000808
0.000793682
0.000779116
0.000764407
0.000749635
0.00073487
0.000720169
0.000705575
0.000691118
0.00067681
0.000662648
0.000648617
0.000634703
0.000620914
0.00060729
0.000593917
0.00058091
0.000568367
0.000556296
0.00054453
0.000532674
0.000520134
0.00050628
0.000490764
0.000473904
0.000456968
0.000442157
0.000429679
0.000856733
0.000851956
0.000844918
0.000834403
0.000822094
0.000808704
0.000794663
0.000780239
0.000765603
0.000750871
0.000736125
0.000721431
0.000706835
0.00069237
0.000678049
0.000663871
0.000649821
0.000635888
0.000622078
0.000608433
0.000595041
0.000582015
0.000569454
0.000557365
0.000545577
0.000533695
0.000521122
0.000507232
0.000491686
0.000474817
0.000457908
0.000443165
0.000430774
0.00084614
0.000841795
0.000833816
0.000822317
0.000809219
0.000795336
0.000781023
0.000766463
0.000751774
0.000737048
0.000722354
0.000707749
0.000693268
0.000678929
0.000664732
0.000650663
0.000636711
0.000622882
0.000609219
0.000595809
0.000582768
0.000570193
0.00055809
0.000546288
0.000534387
0.000521791
0.000507875
0.000492307
0.00047543
0.000458537
0.000443838
0.000431505
0.000842118
0.000837683
0.000830966
0.000820757
0.000808661
0.000795383
0.000781377
0.000766951
0.000752308
0.00073759
0.000722888
0.000708269
0.000693773
0.000679418
0.000665205
0.00065112
0.000637153
0.00062331
0.000609634
0.000596213
0.000583161
0.000570577
0.000558465
0.000546653
0.000534742
0.000522134
0.000508204
0.000492624
0.000475742
0.000458856
0.000444178
0.000431874
0.00083142
0.00082764
0.00081999
0.000808592
0.000795435
0.000781428
0.000766996
0.000752359
0.000737648
0.000722953
0.000708336
0.000693838
0.000679479
0.00066526
0.00065117
0.000637197
0.000623348
0.000609667
0.00059624
0.000583185
0.000570597
0.000558482
0.000546669
0.000534756
0.000522146
0.000508216
0.000492635
0.000475751
0.000458863
0.000444185
0.000431879
0.000828602
0.000824847
0.000817785
0.000807023
0.000794331
0.000780613
0.000766349
0.00075181
0.000737159
0.000722503
0.000707911
0.000693432
0.000679086
0.000664876
0.000650794
0.000636827
0.000622983
0.000609307
0.000595885
0.000582833
0.00057025
0.000558139
0.000546331
0.000534426
0.000521827
0.000507908
0.000492337
0.000475456
0.000458559
0.000443857
0.000431521
0.000827169
0.000823023
0.000815882
0.000805241
0.000792743
0.000779217
0.000765113
0.000750695
0.000736133
0.000721542
0.000706999
0.000692556
0.000678239
0.000664054
0.000649992
0.000636043
0.000622216
0.000608554
0.000595146
0.000582107
0.000569534
0.000557435
0.000545641
0.000533753
0.000521176
0.000507282
0.000491731
0.000474856
0.000457942
0.000443194
0.000430798
0.000826022
0.000821555
0.000814212
0.000803489
0.000790997
0.000777526
0.000763497
0.000749156
0.000734664
0.000720134
0.000705643
0.000691243
0.000676964
0.000662812
0.000648779
0.000634857
0.000621055
0.000607417
0.00059403
0.00058101
0.000568456
0.000556375
0.000544602
0.000532742
0.000520198
0.000506341
0.00049082
0.000473953
0.000457011
0.000442194
0.00042971
0.000824655
0.00081999
0.000812476
0.00080164
0.000789091
0.000775605
0.00076159
0.000747281
0.000732829
0.000718341
0.000703893
0.000689534
0.000675293
0.000661176
0.000647176
0.000633286
0.000619515
0.000605906
0.000592547
0.000579552
0.000567022
0.000554967
0.000543223
0.0005314
0.000518901
0.000505091
0.000489607
0.000472748
0.000455764
0.000440853
0.000428256
0.000822886
0.000818103
0.00081047
0.000799543
0.000786933
0.000773416
0.000759392
0.000745091
0.00073066
0.0007162
0.000701783
0.000687458
0.000673252
0.00065917
0.000645206
0.000631351
0.000617613
0.000604038
0.00059071
0.000577746
0.000565245
0.00055322
0.000541514
0.000529737
0.000517294
0.000503541
0.000488099
0.000471241
0.0004542
0.00043917
0.000426436
0.000820668
0.000815812
0.000808097
0.000797104
0.000784449
0.000770905
0.000756871
0.000742573
0.000728156
0.000713717
0.000699327
0.000685033
0.000670859
0.000656812
0.000642883
0.000629065
0.000615364
0.000601825
0.000588532
0.000575601
0.000563134
0.000551147
0.000539486
0.000527766
0.000515388
0.0005017
0.0004863
0.000469435
0.000452317
0.000437141
0.000424251
0.000818008
0.000813097
0.00080532
0.000794282
0.000781598
0.000768039
0.000754003
0.000739712
0.000725309
0.000710892
0.000696529
0.000682265
0.000668125
0.000654113
0.000640222
0.000626441
0.000612779
0.000599278
0.000586022
0.000573129
0.000560701
0.000548759
0.000537153
0.000525499
0.000513196
0.000499577
0.000484214
0.000467327
0.000450108
0.00043476
0.000421702
0.000814931
0.000809972
0.000802143
0.000791071
0.00077837
0.000764807
0.000750776
0.000736499
0.000722116
0.000707725
0.000693391
0.000679161
0.000665056
0.000651083
0.00063723
0.00062349
0.000609869
0.000596408
0.000583193
0.00057034
0.000557958
0.000546068
0.000534526
0.000522949
0.000510729
0.00049718
0.000481846
0.000464917
0.000447569
0.000432025
0.000418796
0.000811467
0.000806459
0.000798581
0.000787482
0.000774771
0.000761212
0.000747193
0.000732937
0.00071858
0.000704219
0.000689919
0.000675726
0.000661661
0.000647728
0.000633918
0.000620221
0.000606643
0.000593224
0.000580052
0.000567245
0.000554914
0.000543086
0.00053162
0.00052013
0.000507999
0.000494517
0.000479197
0.000462199
0.000444691
0.000428928
0.000415538
0.000807646
0.000802586
0.000794658
0.000783535
0.000770819
0.000757268
0.000743268
0.000729036
0.00071471
0.000700384
0.000686122
0.00067197
0.000657948
0.00064406
0.000630296
0.000616644
0.00060311
0.000589736
0.00057661
0.000563853
0.000551581
0.000539826
0.000528447
0.000517056
0.000505017
0.000491595
0.000476266
0.000459166
0.000441465
0.000425469
0.000411944
0.000803495
0.000798378
0.0007904
0.000779254
0.000766536
0.000752996
0.000739017
0.000724814
0.000710522