/*--------------------------------*- C++ -*----------------------------------*\
  =========                 |
  \\      /  F ield         | OpenFOAM: The Open Source CFD Toolbox
   \\    /   O peration     | Website:  https://openfoam.org
    \\  /    A nd           | Version:  7
     \\/     M anipulation  |
\*---------------------------------------------------------------------------*/
FoamFile
{
    version     2.0;
    format      ascii;
    class       volScalarField;
    location    "28000";
    object      omega;
}
// * * * * * * * * * * * * * * * * * * * * * * * * * * * * * * * * * * * * * //

dimensions      [0 0 -1 0 0 0 0];

internalField   nonuniform List<scalar> 
4844
(
0.0336647
0.0336712
0.0336783
0.0336882
0.0336947
0.0337017
0.0337093
0.0337173
0.0337257
0.0337345
0.0337439
0.0337118
0.0337182
0.0337251
0.0337326
0.0337405
0.0337489
0.0337577
0.0337671
0.0337772
0.0337875
0.0337982
0.0337355
0.0337418
0.0337486
0.033756
0.0337638
0.0337722
0.033781
0.0337904
0.0338006
0.033811
0.0338219
0.0338335
0.0338452
0.0338572
0.0338695
0.0338822
0.0337593
0.0337654
0.033772
0.0337794
0.0337872
0.0337955
0.0338044
0.0338139
0.0338241
0.0338347
0.0338458
0.0338574
0.0338693
0.0338815
0.033894
0.0339067
0.0337834
0.0337891
0.0337957
0.0338029
0.0338107
0.0338191
0.0338281
0.0338377
0.0338479
0.0338586
0.0338698
0.0338815
0.0338936
0.0339059
0.0339185
0.0339313
0.0338132
0.0338196
0.0338267
0.0338345
0.033843
0.033852
0.0338617
0.033872
0.0338828
0.0338941
0.0339059
0.0339181
0.0339305
0.0339433
0.0339562
0.0338374
0.0338437
0.0338509
0.0338587
0.0338672
0.0338763
0.033886
0.0338964
0.0339073
0.0339187
0.0339306
0.0339429
0.0339555
0.0339683
0.0339814
0.0338619
0.0338682
0.0338754
0.0338832
0.0338917
0.0339009
0.0339107
0.0339212
0.0339321
0.0339437
0.0339557
0.033968
0.0339808
0.0339937
0.0340069
0.0338811
0.0338867
0.033893
0.0339002
0.0339081
0.0339166
0.0339259
0.0339358
0.0339463
0.0339574
0.033969
0.0339811
0.0339936
0.0340064
0.0340195
0.0340329
0.033906
0.0339117
0.0339182
0.0339254
0.0339333
0.0339419
0.0339513
0.0339612
0.0339718
0.033983
0.0339947
0.0340069
0.0340195
0.0340325
0.0340458
0.0340593
0.0339314
0.0339372
0.0339437
0.0339509
0.0339589
0.0339676
0.033977
0.0339871
0.0339977
0.034009
0.0340208
0.0340331
0.0340459
0.034059
0.0340724
0.0340862
0.0339572
0.033963
0.0339695
0.0339769
0.0339849
0.0339937
0.0340032
0.0340133
0.0340241
0.0340355
0.0340474
0.0340598
0.0340727
0.0340859
0.0340995
0.0341135
0.0339782
0.0339833
0.0339892
0.0339958
0.0340032
0.0340113
0.0340202
0.0340297
0.03404
0.0340508
0.0340623
0.0340743
0.0340869
0.0340999
0.0341133
0.0341271
0.0341413
0.0340046
0.0340098
0.0340158
0.0340225
0.03403
0.0340382
0.0340471
0.0340567
0.0340671
0.034078
0.0340896
0.0341018
0.0341144
0.0341276
0.0341411
0.0341551
0.0341695
0.0340259
0.0340313
0.0340367
0.0340428
0.0340496
0.0340571
0.0340654
0.0340745
0.0340842
0.0340946
0.0341057
0.0341174
0.0341296
0.0341424
0.0341557
0.0341695
0.0341837
0.0341983
0.034053
0.0340584
0.034064
0.0340702
0.0340771
0.0340847
0.0340931
0.0341022
0.0341121
0.0341226
0.0341338
0.0341456
0.034158
0.0341709
0.0341844
0.0341983
0.0342127
0.0342276
0.0340804
0.0340859
0.0340917
0.034098
0.034105
0.0341128
0.0341213
0.0341305
0.0341404
0.034151
0.0341623
0.0341743
0.0341868
0.0341999
0.0342135
0.0342276
0.0342422
0.0342573
0.0341083
0.0341139
0.0341198
0.0341263
0.0341334
0.0341413
0.0341499
0.0341592
0.0341692
0.03418
0.0341914
0.0342034
0.0342161
0.0342293
0.0342431
0.0342575
0.0342723
0.0342876
0.0341368
0.0341424
0.0341484
0.034155
0.0341623
0.0341703
0.034179
0.0341884
0.0341985
0.0342094
0.0342209
0.0342331
0.0342459
0.0342593
0.0342733
0.0342878
0.0343028
0.0343184
0.0341657
0.0341714
0.0341775
0.0341843
0.0341916
0.0341997
0.0342085
0.034218
0.0342283
0.0342393
0.0342509
0.0342632
0.0342762
0.0342898
0.0343039
0.0343187
0.0343339
0.0343497
0.0341952
0.0342009
0.0342071
0.034214
0.0342215
0.0342296
0.0342386
0.0342482
0.0342586
0.0342697
0.0342815
0.0342939
0.034307
0.0343208
0.0343351
0.0343501
0.0343656
0.0343816
0.0342252
0.0342309
0.0342373
0.0342442
0.0342518
0.0342601
0.0342691
0.0342789
0.0342894
0.0343006
0.0343125
0.0343251
0.0343384
0.0343523
0.0343669
0.034382
0.0343978
0.034414
0.0342557
0.0342615
0.0342679
0.0342749
0.0342826
0.034291
0.0343002
0.0343101
0.0343207
0.034332
0.0343441
0.0343569
0.0343703
0.0343844
0.0343992
0.0344146
0.0344305
0.034447
0.0342868
0.0342926
0.0342991
0.0343062
0.034314
0.0343225
0.0343318
0.0343418
0.0343525
0.034364
0.0343762
0.0343892
0.0344028
0.0344171
0.0344321
0.0344476
0.0344638
0.0344806
0.0343185
0.0343243
0.0343308
0.034338
0.0343459
0.0343546
0.0343639
0.034374
0.0343849
0.0343965
0.0344089
0.034422
0.0344358
0.0344503
0.0344655
0.0344813
0.0344977
0.0345147
0.0343508
0.0343566
0.0343631
0.0343704
0.0343784
0.0343871
0.0343966
0.0344069
0.0344179
0.0344296
0.0344422
0.0344554
0.0344694
0.0344841
0.0344995
0.0345155
0.0345322
0.0345495
0.0343838
0.0343895
0.0343961
0.0344034
0.0344114
0.0344203
0.0344299
0.0344402
0.0344514
0.0344633
0.034476
0.0344894
0.0345036
0.0345185
0.0345341
0.0345504
0.0345673
0.0345848
0.0344175
0.0344231
0.0344296
0.0344369
0.0344451
0.034454
0.0344637
0.0344742
0.0344855
0.0344975
0.0345104
0.034524
0.0345384
0.0345535
0.0345693
0.0345858
0.034603
0.0346208
0.0344518
0.0344572
0.0344637
0.034471
0.0344793
0.0344883
0.0344981
0.0345087
0.0345201
0.0345324
0.0345454
0.0345592
0.0345738
0.0345891
0.0346051
0.0346219
0.0346393
0.0346574
0.0344827
0.0344866
0.0344919
0.0344984
0.0345058
0.0345141
0.0345232
0.0345331
0.0345439
0.0345554
0.0345678
0.034581
0.034595
0.0346098
0.0346253
0.0346416
0.0346586
0.0346763
0.0346947
0.0345178
0.0345218
0.0345272
0.0345337
0.0345411
0.0345495
0.0345587
0.0345687
0.0345796
0.0345913
0.0346039
0.0346172
0.0346314
0.0346464
0.0346622
0.0346787
0.034696
0.034714
0.0347326
0.0345487
0.0345533
0.0345576
0.0345631
0.0345696
0.0345771
0.0345855
0.0345948
0.034605
0.034616
0.0346278
0.0346405
0.0346541
0.0346685
0.0346837
0.0346997
0.0347165
0.034734
0.0347523
0.0347712
0.0345846
0.0345893
0.0345939
0.0345995
0.0346061
0.0346137
0.0346222
0.0346316
0.0346418
0.034653
0.034665
0.0346779
0.0346916
0.0347062
0.0347216
0.0347379
0.0347549
0.0347727
0.0347912
0.0348104
0.0346211
0.0346259
0.0346308
0.0346365
0.0346432
0.0346509
0.0346595
0.034669
0.0346794
0.0346906
0.0347028
0.0347159
0.0347298
0.0347446
0.0347603
0.0347767
0.034794
0.0348121
0.0348309
0.0348503
0.0346581
0.0346631
0.0346683
0.0346742
0.034681
0.0346887
0.0346974
0.034707
0.0347176
0.034729
0.0347413
0.0347545
0.0347687
0.0347837
0.0347995
0.0348162
0.0348338
0.0348521
0.0348711
0.0348909
0.0346959
0.034701
0.0347064
0.0347125
0.0347194
0.0347273
0.034736
0.0347458
0.0347564
0.034768
0.0347805
0.0347939
0.0348082
0.0348234
0.0348395
0.0348564
0.0348742
0.0348927
0.034912
0.034932
0.0347343
0.0347396
0.0347452
0.0347514
0.0347585
0.0347664
0.0347753
0.0347852
0.0347959
0.0348076
0.0348203
0.0348338
0.0348483
0.0348637
0.03488
0.0348972
0.0349152
0.034934
0.0349536
0.0349738
0.0347735
0.0347788
0.0347846
0.034791
0.0347982
0.0348063
0.0348153
0.0348252
0.0348361
0.0348479
0.0348607
0.0348744
0.0348891
0.0349047
0.0349212
0.0349386
0.0349568
0.0349759
0.0349958
0.0350164
0.0348133
0.0348188
0.0348247
0.0348312
0.0348385
0.0348467
0.0348558
0.0348659
0.0348769
0.0348888
0.0349018
0.0349157
0.0349305
0.0349463
0.0349631
0.0349807
0.0349992
0.0350187
0.0350389
0.03506
0.0348539
0.0348594
0.0348654
0.0348721
0.0348795
0.0348878
0.034897
0.0349072
0.0349183
0.0349304
0.0349435
0.0349575
0.0349726
0.0349887
0.0350057
0.0350236
0.0350425
0.0350623
0.035083
0.0351046
0.0348951
0.0349006
0.0349068
0.0349136
0.0349211
0.0349296
0.0349389
0.0349491
0.0349604
0.0349726
0.0349859
0.0350002
0.0350155
0.0350319
0.0350492
0.0350675
0.0350869
0.0351072
0.0351284
0.0351505
0.034937
0.0349426
0.0349488
0.0349558
0.0349634
0.034972
0.0349814
0.0349918
0.0350032
0.0350157
0.0350292
0.0350437
0.0350594
0.0350761
0.0350938
0.0351126
0.0351325
0.0351533
0.0351751
0.0351978
0.0349796
0.0349852
0.0349916
0.0349987
0.0350065
0.0350152
0.0350248
0.0350354
0.035047
0.0350597
0.0350735
0.0350884
0.0351044
0.0351216
0.0351398
0.0351591
0.0351795
0.0352008
0.0352231
0.0352461
0.035023
0.0350287
0.0350353
0.0350425
0.0350505
0.0350594
0.0350693
0.0350801
0.035092
0.0351049
0.0351191
0.0351344
0.0351508
0.0351684
0.0351871
0.0352069
0.0352276
0.0352493
0.0352718
0.0352948
0.0350674
0.0350733
0.03508
0.0350874
0.0350957
0.0351048
0.0351149
0.035126
0.0351382
0.0351515
0.035166
0.0351817
0.0351985
0.0352165
0.0352355
0.0352555
0.0352764
0.0352981
0.0353204
0.035343
0.035113
0.035119
0.0351259
0.0351336
0.0351421
0.0351515
0.0351619
0.0351733
0.0351857
0.0351994
0.0352142
0.0352301
0.0352472
0.0352653
0.0352844
0.0353043
0.0353249
0.0353461
0.0353677
0.0353895
0.0351599
0.0351661
0.0351732
0.0351811
0.0351899
0.0351995
0.0352101
0.0352217
0.0352343
0.0352481
0.035263
0.035279
0.035296
0.0353139
0.0353326
0.035352
0.0353719
0.0353923
0.0354129
0.0354337
0.0352082
0.0352146
0.0352218
0.0352298
0.0352387
0.0352484
0.0352591
0.0352707
0.0352833
0.0352969
0.0353116
0.0353273
0.0353438
0.0353611
0.0353791
0.0353976
0.0354166
0.035436
0.0354557
0.035476
0.0352576
0.035264
0.0352712
0.0352792
0.0352879
0.0352975
0.0353079
0.0353193
0.0353315
0.0353447
0.0353588
0.0353738
0.0353896
0.0354061
0.0354232
0.0354408
0.035459
0.0354779
0.0354975
0.0355184
0.0353073
0.0353136
0.0353206
0.0353283
0.0353365
0.0353456
0.0353556
0.0353664
0.0353779
0.0353904
0.0354038
0.035418
0.035433
0.0354487
0.0354652
0.0354825
0.0355008
0.0355202
0.0355413
0.0355652
0.0353564
0.0353624
0.035369
0.0353762
0.0353836
0.035392
0.0354013
0.0354114
0.0354221
0.0354338
0.0354465
0.0354601
0.0354748
0.0354905
0.0355073
0.0355256
0.0355456
0.0355679
0.0355935
0.0356244
0.0354039
0.0354095
0.0354157
0.0354222
0.0354287
0.0354364
0.0354451
0.0354545
0.0354645
0.0354758
0.0354884
0.0355024
0.0355178
0.0355348
0.0355539
0.0355755
0.0356004
0.0356298
0.0356657
0.0357115
0.0354493
0.0354546
0.0354605
0.0354667
0.0354724
0.0354798
0.0354883
0.0354977
0.0355076
0.0355195
0.0355333
0.0355491
0.0355674
0.0355884
0.0356132
0.0356428
0.0356788
0.0357236
0.0357808
0.0358562
0.0354938
0.0354991
0.035505
0.0355114
0.0355173
0.0355252
0.0355345
0.035545
0.0355562
0.0355706
0.035588
0.0356088
0.0356338
0.0356641
0.0357015
0.0357481
0.0358071
0.0358827
0.0359807
0.0361094
0.0355683
0.0355782
0.0355902
0.0356042
0.0356196
0.0356401
0.0356658
0.0356976
0.0357373
0.035787
0.03585
0.0359301
0.0360324
0.0361631
0.0363298
0.0365412
0.0357159
0.0357497
0.0357928
0.0358472
0.0359159
0.0360027
0.0361125
0.0362506
0.0364237
0.0366383
0.0369018
0.0372215
0.0339867
0.0339731
0.0340132
0.0339996
0.0340398
0.0340263
0.0340667
0.0340532
0.0340401
0.0340939
0.0340804
0.0340672
0.0341215
0.0341079
0.0340945
0.0340809
0.0341496
0.0341358
0.0341222
0.0341087
0.0341781
0.0341641
0.0341504
0.0341368
0.034207
0.0341929
0.0341789
0.0341652
0.0341516
0.0342365
0.0342221
0.034208
0.0341941
0.0341804
0.0342664
0.0342519
0.0342376
0.0342236
0.0342097
0.0342969
0.0342821
0.0342677
0.0342536
0.0342397
0.0343279
0.0343129
0.0342984
0.0342841
0.0342702
0.0343594
0.0343443
0.0343296
0.0343152
0.0343014
0.0343916
0.0343762
0.0343613
0.0343469
0.034333
0.03432
0.0344242
0.0344087
0.0343936
0.0343791
0.0343652
0.034352
0.0344575
0.0344418
0.0344265
0.0344118
0.0343978
0.0343844
0.034371
0.0344914
0.0344754
0.03446
0.0344451
0.0344309
0.0344173
0.0344039
0.0343897
0.0345258
0.0345097
0.034494
0.0344789
0.0344645
0.0344506
0.0344371
0.0344231
0.0344084
0.0345609
0.0345445
0.0345287
0.0345134
0.0344986
0.0344845
0.0344707
0.0344567
0.0344422
0.0344272
0.0345966
0.03458
0.0345639
0.0345483
0.0345334
0.0345189
0.0345048
0.0344907
0.0344763
0.0344613
0.0346329
0.0346161
0.0345997
0.0345839
0.0345686
0.0345539
0.0345395
0.0345252
0.0345107
0.0344958
0.0346698
0.0346527
0.0346361
0.03462
0.0346045
0.0345894
0.0345748
0.0345602
0.0345456
0.0345307
0.0347073
0.03469
0.0346731
0.0346568
0.0346409
0.0346256
0.0346106
0.0345958
0.034581
0.0345661
0.0347455
0.0347279
0.0347108
0.0346941
0.034678
0.0346623
0.0346471
0.034632
0.0346171
0.0346021
0.0347845
0.0347666
0.0347491
0.0347322
0.0347158
0.0346998
0.0346842
0.0346689
0.0346538
0.0346388
0.0348243
0.0348061
0.0347884
0.0347711
0.0347544
0.0347381
0.0347223
0.0347067
0.0346914
0.0346763
0.0348651
0.0348466
0.0348286
0.0348111
0.034794
0.0347774
0.0347613
0.0347455
0.03473
0.0347147
0.034907
0.0348883
0.03487
0.0348522
0.0348349
0.034818
0.0348015
0.0347855
0.0347698
0.0347544
0.0349502
0.0349312
0.0349127
0.0348946
0.0348769
0.0348597
0.034843
0.0348267
0.0348108
0.0347953
0.0349945
0.0349753
0.0349564
0.034938
0.0349201
0.0349026
0.0348856
0.0348691
0.034853
0.0348373
0.0350397
0.0350202
0.035001
0.0349823
0.034964
0.0349463
0.034929
0.0349123
0.0348959
0.0348801
0.0339868
0.0340133
0.0340398
0.0340666
0.0340938
0.0341214
0.0341495
0.034178
0.0342069
0.0342364
0.0342663
0.0342968
0.0343278
0.0343593
0.0343914
0.0344241
0.0344574
0.0344912
0.0345257
0.0345607
0.0345964
0.0346327
0.0346696
0.0347072
0.0347454
0.0347843
0.034824
0.0348647
0.0349065
0.0349495
0.0349936
0.0350387
0.0339736
0.0339999
0.0340264
0.0340531
0.0340801
0.0341076
0.0341355
0.0341638
0.0341926
0.0342218
0.0342516
0.0342819
0.0343127
0.034344
0.0343759
0.0344083
0.0344413
0.0344749
0.0345091
0.034544
0.0345794
0.0346155
0.0346522
0.0346895
0.0347275
0.0347661
0.0348055
0.0348457
0.0348868
0.0349289
0.0349721
0.0350164
0.0350618
0.0339606
0.0339868
0.0340131
0.0340397
0.0340667
0.034094
0.0341217
0.0341499
0.0341785
0.0342076
0.0342372
0.0342672
0.0342979
0.034329
0.0343607
0.0343929
0.0344257
0.0344591
0.0344931
0.0345276
0.0345628
0.0345987
0.0346351
0.0346722
0.03471
0.0347484
0.0347875
0.0348273
0.0348678
0.0349091
0.0349512
0.0349942
0.0350383
0.0350836
0.0351305
0.035179
0.0352291
0.03528
0.0339479
0.033974
0.0340002
0.0340267
0.0340535
0.0340806
0.0341082
0.0341362
0.0341647
0.0341937
0.0342231
0.034253
0.0342834
0.0343144
0.0343459
0.0343779
0.0344105
0.0344437
0.0344775
0.0345118
0.0345468
0.0345823
0.0346185
0.0346554
0.0346929
0.0347311
0.03477
0.0348095
0.0348497
0.0348905
0.034932
0.0349744
0.0350177
0.0350623
0.0351086
0.0351566
0.0352065
0.0352577
0.0339356
0.0339616
0.0339876
0.034014
0.0340406
0.0340677
0.0340951
0.034123
0.0341513
0.0341801
0.0342094
0.0342392
0.0342694
0.0343002
0.0343315
0.0343634
0.0343958
0.0344288
0.0344623
0.0344965
0.0345312
0.0345665
0.0346025
0.0346391
0.0346764
0.0347144
0.034753
0.0347923
0.0348322
0.0348728
0.034914
0.0349559
0.0349987
0.0350427
0.0350882
0.0351356
0.0351849
0.0352357
0.0339237
0.0339495
0.0339755
0.0340017
0.0340282
0.0340551
0.0340824
0.0341102
0.0341384
0.034167
0.0341961
0.0342258
0.0342559
0.0342865
0.0343176
0.0343493
0.0343815
0.0344143
0.0344477
0.0344816
0.0345162
0.0345513
0.0345871
0.0346234
0.0346605
0.0346982
0.0347366
0.0347757
0.0348154
0.0348557
0.0348967
0.0349383
0.0349806
0.0350241
0.0350689
0.0351154
0.0351639
0.0352142
0.0352656
0.0339122
0.0339379
0.0339637
0.0339898
0.0340162
0.034043
0.0340702
0.0340978
0.0341259
0.0341544
0.0341834
0.0342129
0.0342428
0.0342733
0.0343043
0.0343358
0.0343678
0.0344004
0.0344336
0.0344674
0.0345017
0.0345366
0.0345722
0.0346084
0.0346452
0.0346827
0.0347209
0.0347597
0.0347992
0.0348393
0.03488
0.0349214
0.0349635
0.0350065
0.0350508
0.0350967
0.0351446
0.0351943
0.0352454
0.0339011
0.0339267
0.0339524
0.0339784
0.0340048
0.0340314
0.0340585
0.034086
0.034114
0.0341423
0.0341712
0.0342005
0.0342303
0.0342606
0.0342914
0.0343228
0.0343547
0.0343871
0.0344201
0.0344537
0.0344879
0.0345226
0.0345579
0.0345939
0.0346305
0.0346678
0.0347058
0.0347444
0.0347836
0.0348235
0.0348641
0.0349052
0.034947
0.0349898
0.0350337
0.0350792
0.0351265
0.0351756
0.0352263
0.0338905
0.033916
0.0339417
0.0339676
0.0339938
0.0340204
0.0340474
0.0340748
0.0341026
0.0341308
0.0341595
0.0341887
0.0342184
0.0342486
0.0342792
0.0343104
0.0343422
0.0343744
0.0344073
0.0344407
0.0344746
0.0345092
0.0345444
0.0345801
0.0346166
0.0346536
0.0346914
0.0347298
0.0347688
0.0348085
0.0348488
0.0348897
0.0349314
0.0349739
0.0350175
0.0350626
0.0351094
0.0351581
0.0352082
0.0338803
0.0339058
0.0339314
0.0339573
0.0339834
0.0340099
0.0340368
0.0340641
0.0340918
0.0341199
0.0341485
0.0341776
0.0342071
0.0342371
0.0342677
0.0342987
0.0343303
0.0343624
0.0343951
0.0344283
0.0344621
0.0344965
0.0345315
0.0345671
0.0346033
0.0346402
0.0346777
0.0347159
0.0347547
0.0347942
0.0348343
0.0348751
0.0349165
0.0349588
0.0350021
0.0350469
0.0350933
0.0351415
0.0351912
0.0338706
0.0338961
0.0339218
0.0339476
0.0339737
0.0340001
0.0340269
0.0340541
0.0340817
0.0341097
0.0341381
0.0341671
0.0341965
0.0342264
0.0342568
0.0342877
0.0343191
0.0343511
0.0343836
0.0344166
0.0344503
0.0344845
0.0345193
0.0345547
0.0345908
0.0346275
0.0346648
0.0347028
0.0347415
0.0347807
0.0348207
0.0348612
0.0349024
0.0349445
0.0349876
0.0350321
0.0350781
0.0351259
0.0351752
0.0338872
0.0339129
0.0339387
0.0339647
0.033991
0.0340177
0.0340447
0.0340722
0.0341001
0.0341284
0.0341572
0.0341865
0.0342163
0.0342465
0.0342773
0.0343086
0.0343404
0.0343728
0.0344057
0.0344392
0.0344732
0.0345079
0.0345431
0.034579
0.0346155
0.0346527
0.0346905
0.034729
0.0347681
0.0348078
0.0348482
0.0348892
0.0349311
0.034974
0.0350182
0.0350639
0.0351113
0.0351602
0.0339045
0.0339303
0.0339563
0.0339825
0.0340091
0.034036
0.0340634
0.0340912
0.0341194
0.0341481
0.0341772
0.0342069
0.034237
0.0342676
0.0342988
0.0343305
0.0343627
0.0343955
0.0344288
0.0344628
0.0344972
0.0345323
0.0345681
0.0346044
0.0346414
0.0346791
0.0347173
0.0347563
0.0347958
0.034836
0.0348769
0.0349186
0.0349613
0.0350053
0.0350507
0.0350978
0.0351463
0.0338962
0.0339222
0.0339483
0.0339745
0.0340011
0.034028
0.0340553
0.0340829
0.0341111
0.0341396
0.0341687
0.0341982
0.0342282
0.0342587
0.0342898
0.0343213
0.0343534
0.0343861
0.0344193
0.034453
0.0344874
0.0345223
0.0345579
0.0345941
0.034631
0.0346684
0.0347066
0.0347453
0.0347847
0.0348248
0.0348655
0.034907
0.0349495
0.0349933
0.0350385
0.0350853
0.0351334
0.0339148
0.0339409
0.0339672
0.0339937
0.0340206
0.0340478
0.0340754
0.0341034
0.0341319
0.0341608
0.0341902
0.0342201
0.0342505
0.0342814
0.0343129
0.0343449
0.0343774
0.0344105
0.0344441
0.0344783
0.0345132
0.0345486
0.0345846
0.0346213
0.0346587
0.0346967
0.0347353
0.0347745
0.0348144
0.034855
0.0348964
0.0349387
0.0349823
0.0350273
0.0350738
0.0351217
0.0339077
0.0339339
0.0339603
0.0339869
0.0340138
0.0340409
0.0340685
0.0340964
0.0341248
0.0341537
0.034183
0.0342128
0.0342431
0.0342739
0.0343052
0.0343371
0.0343695
0.0344025
0.034436
0.0344701
0.0345048
0.0345401
0.034576
0.0346126
0.0346498
0.0346877
0.0347261
0.0347652
0.034805
0.0348454
0.0348867
0.0349289
0.0349723
0.0350171
0.0350634
0.0351109
0.0339278
0.0339543
0.0339809
0.0340077
0.0340348
0.0340623
0.0340901
0.0341184
0.0341472
0.0341764
0.0342061
0.0342364
0.0342671
0.0342983
0.0343301
0.0343624
0.0343953
0.0344287
0.0344627
0.0344973
0.0345325
0.0345683
0.0346047
0.0346418
0.0346795
0.0347179
0.0347569
0.0347965
0.0348368
0.0348779
0.03492
0.0349633
0.0350079
0.035054
0.0351013
0.0339488
0.0339754
0.0340022
0.0340293
0.0340567
0.0340845
0.0341128
0.0341414
0.0341706
0.0342002
0.0342304
0.034261
0.0342922
0.0343239
0.0343561
0.0343888
0.0344222
0.0344561
0.0344906
0.0345257
0.0345614
0.0345977
0.0346347
0.0346723
0.0347106
0.0347494
0.0347889
0.0348291
0.0348701
0.0349121
0.0349553
0.0349997
0.0350456
0.0350928
0.0339436
0.0339703
0.0339972
0.0340243
0.0340517
0.0340795
0.0341077
0.0341364
0.0341655
0.0341951
0.0342251
0.0342557
0.0342868
0.0343184
0.0343506
0.0343833
0.0344165
0.0344503
0.0344847
0.0345197
0.0345554
0.0345916
0.0346285
0.034666
0.0347042
0.0347429
0.0347824
0.0348224
0.0348633
0.0349052
0.0349482
0.0349926
0.0350384
0.0350853
0.0339391
0.0339659
0.0339928
0.0340199
0.0340474
0.0340752
0.0341034
0.034132
0.0341611
0.0341906
0.0342207
0.0342512
0.0342822
0.0343138
0.0343459
0.0343785
0.0344117
0.0344454
0.0344798
0.0345147
0.0345502
0.0345864
0.0346232
0.0346607
0.0346987
0.0347374
0.0347767
0.0348167
0.0348575
0.0348993
0.0349423
0.0349865
0.0350321
0.0350789
0.0339353
0.0339621
0.0339891
0.0340163
0.0340438
0.0340716
0.0340998
0.0341284
0.0341575
0.034187
0.034217
0.0342474
0.0342784
0.0343099
0.034342
0.0343745
0.0344077
0.0344414
0.0344756
0.0345105
0.034546
0.0345821
0.0346188
0.0346562
0.0346942
0.0347328
0.034772
0.034812
0.0348527
0.0348944
0.0349373
0.0349815
0.035027
0.0350737
0.0339594
0.0339864
0.0340136
0.034041
0.0340688
0.034097
0.0341256
0.0341546
0.0341841
0.0342141
0.0342445
0.0342754
0.0343069
0.0343389
0.0343714
0.0344045
0.0344381
0.0344724
0.0345072
0.0345426
0.0345787
0.0346154
0.0346527
0.0346906
0.0347292
0.0347683
0.0348082
0.0348489
0.0348906
0.0349334
0.0349775
0.0350229
0.0350695
0.033957
0.0339842
0.0340115
0.034039
0.0340668
0.034095
0.0341236
0.0341526
0.034182
0.0342119
0.0342424
0.0342733
0.0343047
0.0343366
0.0343691
0.0344022
0.0344358
0.03447
0.0345048
0.0345401
0.0345762
0.0346128
0.0346501
0.034688
0.0347265
0.0347656
0.0348055
0.0348461
0.0348877
0.0349305
0.0349745
0.0350199
0.0350664
0.0339829
0.0340102
0.0340378
0.0340656
0.0340938
0.0341223
0.0341513
0.0341807
0.0342106
0.034241
0.0342719
0.0343033
0.0343352
0.0343677
0.0344007
0.0344343
0.0344685
0.0345032
0.0345386
0.0345746
0.0346112
0.0346484
0.0346863
0.0347248
0.0347639
0.0348037
0.0348443
0.0348859
0.0349286
0.0349726
0.0350179
0.0350644
0.0339819
0.0340095
0.0340372
0.0340651
0.0340933
0.0341219
0.0341508
0.0341802
0.0342101
0.0342405
0.0342714
0.0343027
0.0343346
0.0343671
0.0344001
0.0344337
0.0344678
0.0345025
0.0345379
0.0345739
0.0346105
0.0346477
0.0346855
0.034724
0.0347631
0.0348029
0.0348435
0.034885
0.0349277
0.0349717
0.035017
0.0350635
0.0340097
0.0340375
0.0340654
0.0340936
0.0341221
0.0341511
0.0341805
0.0342104
0.0342407
0.0342716
0.034303
0.0343349
0.0343673
0.0344003
0.0344339
0.034468
0.0345028
0.0345381
0.0345741
0.0346107
0.0346479
0.0346857
0.0347242
0.0347633
0.0348031
0.0348437
0.0348852
0.0349279
0.0349719
0.0350172
0.0350637
0.0340103
0.0340382
0.0340662
0.0340945
0.0341231
0.0341521
0.0341815
0.0342114
0.0342417
0.0342726
0.034304
0.0343359
0.0343684
0.0344014
0.0344349
0.0344691
0.0345038
0.0345392
0.0345752
0.0346118
0.034649
0.0346869
0.0347254
0.0347645
0.0348043
0.0348449
0.0348864
0.0349292
0.0349732
0.0350185
0.0350649
0.0340117
0.0340397
0.0340677
0.034096
0.0341247
0.0341537
0.0341832
0.0342131
0.0342435
0.0342744
0.0343058
0.0343378
0.0343702
0.0344033
0.0344369
0.0344711
0.0345058
0.0345412
0.0345772
0.0346138
0.0346511
0.034689
0.0347275
0.0347666
0.0348065
0.0348471
0.0348887
0.0349314
0.0349755
0.0350208
0.0350673
0.0340139
0.0340419
0.03407
0.0340983
0.034127
0.0341561
0.0341856
0.0342156
0.0342461
0.034277
0.0343085
0.0343404
0.0343729
0.034406
0.0344396
0.0344739
0.0345087
0.0345441
0.0345801
0.0346168
0.0346541
0.034692
0.0347306
0.0347698
0.0348096
0.0348503
0.0348919
0.0349347
0.0349788
0.0350243
0.0350708
0.0340168
0.0340448
0.034073
0.0341014
0.0341302
0.0341593
0.0341889
0.0342189
0.0342494
0.0342804
0.0343119
0.0343439
0.0343765
0.0344096
0.0344433
0.0344775
0.0345124
0.0345479
0.034584
0.0346207
0.0346581
0.034696
0.0347346
0.0347739
0.0348138
0.0348545
0.0348962
0.0349391
0.0349833
0.0350287
0.0350754
0.0340205
0.0340486
0.0340768
0.0341052
0.034134
0.0341632
0.0341928
0.0342229
0.0342535
0.0342845
0.0343161
0.0343482
0.0343808
0.034414
0.0344477
0.0344821
0.034517
0.0345525
0.0345887
0.0346255
0.0346629
0.034701
0.0347396
0.034779
0.034819
0.0348598
0.0349015
0.0349445
0.0349887
0.0350343
0.0350811
0.034025
0.0340531
0.0340813
0.0341098
0.0341387
0.0341679
0.0341976
0.0342278
0.0342584
0.0342895
0.0343211
0.0343533
0.034386
0.0344192
0.0344531
0.0344875
0.0345225
0.0345581
0.0345943
0.0346312
0.0346687
0.0347068
0.0347456
0.034785
0.0348251
0.034866
0.0349078
0.0349509
0.0349952
0.0350409
0.0350879
0.0340301
0.0340583
0.0340866
0.0341152
0.0341441
0.0341734
0.0342032
0.0342334
0.0342641
0.0342953
0.034327
0.0343592
0.034392
0.0344253
0.0344592
0.0344937
0.0345288
0.0345645
0.0346008
0.0346378
0.0346754
0.0347137
0.0347525
0.034792
0.0348322
0.0348732
0.0349151
0.0349583
0.0350028
0.0350486
0.0350957
0.034036
0.0340643
0.0340926
0.0341213
0.0341503
0.0341797
0.0342095
0.0342398
0.0342705
0.0343018
0.0343336
0.0343659
0.0343988
0.0344322
0.0344662
0.0345008
0.034536
0.0345718
0.0346082
0.0346453
0.034683
0.0347214
0.0347604
0.0348
0.0348403
0.0348814
0.0349234
0.0349667
0.0350113
0.0350574
0.0351047
0.0340426
0.0340709
0.0340994
0.0341281
0.0341572
0.0341866
0.0342166
0.0342469
0.0342778
0.0343092
0.0343411
0.0343735
0.0344064
0.03444
0.0344741
0.0345088
0.0345441
0.03458
0.0346165
0.0346537
0.0346916
0.03473
0.0347691
0.0348089
0.0348493
0.0348905
0.0349327
0.0349761
0.0350209
0.0350672
0.0351147
0.0340499
0.0340783
0.0341068
0.0341356
0.0341648
0.0341944
0.0342244
0.0342548
0.0342858
0.0343173
0.0343493
0.0343818
0.0344149
0.0344485
0.0344827
0.0345175
0.034553
0.034589
0.0346257
0.034663
0.034701
0.0347396
0.0347788
0.0348187
0.0348592
0.0349006
0.034943
0.0349865
0.0350315
0.035078
0.0351258
0.0340579
0.0340864
0.034115
0.0341439
0.0341731
0.0342028
0.0342329
0.0342635
0.0342946
0.0343261
0.0343583
0.0343909
0.0344241
0.0344579
0.0344922
0.0345271
0.0345627
0.0345989
0.0346357
0.0346732
0.0347113
0.03475
0.0347894
0.0348294
0.0348701
0.0349116
0.0349542
0.0349979
0.0350431
0.0350899
0.035138
0.0340666
0.0340951
0.0341238
0.0341528
0.0341822
0.034212
0.0342422
0.0342729
0.0343041
0.0343358
0.034368
0.0344008
0.0344341
0.034468
0.0345025
0.0345376
0.0345733
0.0346096
0.0346466
0.0346842
0.0347225
0.0347614
0.0348009
0.0348411
0.034882
0.0349236
0.0349663
0.0350103
0.0350557
0.0351028
0.0351513
0.0340759
0.0341045
0.0341333
0.0341624
0.0341919
0.0342218
0.0342521
0.034283
0.0343143
0.0343461
0.0343785
0.0344114
0.0344449
0.0344789
0.0345135
0.0345488
0.0345846
0.0346211
0.0346582
0.034696
0.0347345
0.0347736
0.0348133
0.0348536
0.0348947
0.0349365
0.0349794
0.0350236
0.0350693
0.0351167
0.0351656
0.0340858
0.0341145
0.0341435
0.0341727
0.0342023
0.0342323
0.0342628
0.0342937
0.0343252
0.0343572
0.0343897
0.0344227
0.0344564
0.0344906
0.0345254
0.0345607
0.0345968
0.0346334
0.0346708
0.0347087
0.0347474
0.0347866
0.0348265
0.0348671
0.0349083
0.0349503
0.0349934
0.0350379
0.0350839
0.0351317
0.0351809
0.0340963
0.0341252
0.0341543
0.0341836
0.0342133
0.0342435
0.0342741
0.0343052
0.0343368
0.0343689
0.0344016
0.0344348
0.0344686
0.034503
0.0345379
0.0345735
0.0346097
0.0346466
0.0346841
0.0347222
0.0347611
0.0348005
0.0348406
0.0348813
0.0349227
0.034965
0.0350083
0.0350531
0.0350995
0.0351476
0.0351973
0.0341074
0.0341364
0.0341656
0.0341951
0.034225
0.0342553
0.034286
0.0343173
0.0343491
0.0343813
0.0344142
0.0344476
0.0344815
0.0345161
0.0345512
0.034587
0.0346234
0.0346604
0.0346982
0.0347365
0.0347756
0.0348153
0.0348555
0.0348965
0.0349381
0.0349805
0.0350241
0.0350692
0.035116
0.0351646
0.0352147
0.0341191
0.0341482
0.0341776
0.0342072
0.0342372
0.0342677
0.0342986
0.03433
0.034362
0.0343944
0.0344274
0.034461
0.0344952
0.0345299
0.0345653
0.0346012
0.0346378
0.0346751
0.034713
0.0347516
0.0347909
0.0348308
0.0348713
0.0349124
0.0349542
0.034997
0.0350409
0.0350863
0.0351335
0.0351826
0.0352331
0.0341312
0.0341606
0.0341901
0.0342199
0.0342501
0.0342807
0.0343118
0.0343434
0.0343755
0.0344082
0.0344414
0.0344751
0.0345095
0.0345444
0.03458
0.0346161
0.034653
0.0346905
0.0347286
0.0347674
0.0348069
0.034847
0.0348878
0.0349291
0.0349712
0.0350142
0.0350584
0.0351043
0.035152
0.0352015
0.0352524
0.0341439
0.0341734
0.0342031
0.0342331
0.0342634
0.0342943
0.0343256
0.0343573
0.0343896
0.0344225
0.0344559
0.0344899
0.0345244
0.0345596
0.0345953
0.0346317
0.0346688
0.0347065
0.0347449
0.034784
0.0348237
0.034864
0.034905
0.0349466
0.0349889
0.0350323
0.0350769
0.0351231
0.0351713
0.0352212
0.0352723
0.0341571
0.0341868
0.0342167
0.0342468
0.0342774
0.0343084
0.0343399
0.0343719
0.0344044
0.0344374
0.034471
0.0345052
0.0345399
0.0345753
0.0346113
0.0346479
0.0346852
0.0347232
0.0347618
0.0348011
0.0348411
0.0348817
0.0349229
0.0349648
0.0350074
0.0350511
0.035096
0.0351426
0.035191
0.0352412
0.0352923
0.0341708
0.0342007
0.0342308
0.0342611
0.0342919
0.0343231
0.0343547
0.0343869
0.0344196
0.0344528
0.0344867
0.034521
0.034556
0.0345916
0.0346278
0.0346647
0.0347022
0.0347404
0.0347793
0.0348188
0.034859
0.0348999
0.0349414
0.0349836
0.0350265
0.0350705
0.0351156
0.0351622
0.0352104
0.03526
0.0353106
0.0353614
0.035411
0.0354585
0.0355036
0.034185
0.0342151
0.0342454
0.0342759
0.0343068
0.0343382
0.0343701
0.0344024
0.0344353
0.0344687
0.0345027
0.0345373
0.0345725
0.0346083
0.0346448
0.0346819
0.0347196
0.0347581
0.0347972
0.034837
0.0348775
0.0349186
0.0349604
0.0350029
0.0350461
0.0350904
0.0351359
0.0351827
0.0352311
0.0352808
0.0353312
0.0353815
0.0354306
0.0354775
0.0355226
0.0341997
0.03423
0.0342604
0.0342911
0.0343222
0.0343538
0.0343858
0.0344183
0.0344514
0.034485
0.0345192
0.034554
0.0345894
0.0346255
0.0346621
0.0346995
0.0347375
0.0347762
0.0348156
0.0348557
0.0348964
0.0349378
0.0349798
0.0350226
0.0350662
0.0351108
0.0351567
0.035204
0.0352526
0.0353024
0.0353525
0.0354022
0.0354502
0.0354964
0.0355415
0.0342149
0.0342453
0.0342758
0.0343066
0.0343379
0.0343695
0.0344017
0.0344344
0.0344677
0.0345016
0.034536
0.034571
0.0346066
0.0346429
0.0346798
0.0347174
0.0347557
0.0347947
0.0348343
0.0348746
0.0349156
0.0349572
0.0349995
0.0350426
0.0350865
0.0351316
0.0351779
0.0352257
0.0352746
0.0353244
0.0353741
0.0354228
0.0354699
0.0355154
0.035561
0.0342152
0.0342456
0.0342762
0.034307
0.0343382
0.0343699
0.0344021
0.0344348
0.034468
0.0345019
0.0345363
0.0345713
0.034607
0.0346432
0.0346802
0.0347177
0.034756
0.034795
0.0348346
0.0348749
0.0349159
0.0349575
0.0349998
0.0350429
0.0350868
0.0351319
0.0351782
0.0352259
0.0352748
0.0353245
0.0353742
0.0354229
0.0354699
0.0355154
0.035561
0.0342007
0.034231
0.0342614
0.0342921
0.0343232
0.0343547
0.0343867
0.0344193
0.0344523