/*--------------------------------*- C++ -*----------------------------------*\
  =========                 |
  \\      /  F ield         | OpenFOAM: The Open Source CFD Toolbox
   \\    /   O peration     | Website:  https://openfoam.org
    \\  /    A nd           | Version:  7
     \\/     M anipulation  |
\*---------------------------------------------------------------------------*/
FoamFile
{
    version     2.0;
    format      ascii;
    class       volVectorField;
    location    "28000";
    object      U;
}
// * * * * * * * * * * * * * * * * * * * * * * * * * * * * * * * * * * * * * //

dimensions      [0 1 -1 0 0 0 0];

internalField   nonuniform List<vector> 
4844
(
(-2.13726e-19 7.73346e-19 -0.00535273)
(1.60185e-17 -3.52144e-18 -0.00535263)
(4.52125e-18 -1.00562e-18 -0.00535252)
(4.99881e-18 2.31564e-17 -0.0053525)
(1.20029e-17 8.24127e-19 -0.0053524)
(4.14392e-18 3.79437e-19 -0.00535229)
(3.52333e-18 -6.67667e-20 -0.00535217)
(2.55468e-18 -8.88514e-20 -0.00535204)
(2.30788e-18 -2.5697e-19 -0.00535192)
(1.99941e-18 -1.33797e-19 -0.00535178)
(1.52752e-18 2.23243e-20 -0.00535165)
(3.85574e-18 1.79756e-17 -0.00535227)
(8.18276e-18 1.88852e-18 -0.00535217)
(3.68091e-18 1.28054e-18 -0.00535206)
(3.38556e-18 3.20322e-19 -0.00535194)
(2.49275e-18 2.22722e-19 -0.00535182)
(2.27211e-18 -1.14713e-19 -0.00535169)
(2.04864e-18 -2.04509e-20 -0.00535156)
(1.59052e-18 7.94504e-20 -0.00535143)
(1.45951e-18 2.78109e-19 -0.00535129)
(1.40715e-18 4.94021e-19 -0.00535115)
(9.68611e-19 -1.17329e-19 -0.00535102)
(2.49887e-18 1.24464e-17 -0.00535205)
(5.90268e-18 2.27556e-18 -0.00535194)
(3.29661e-18 1.71298e-18 -0.00535183)
(3.14394e-18 5.73955e-19 -0.00535171)
(2.37207e-18 3.37503e-19 -0.00535159)
(2.24589e-18 1.93992e-21 -0.00535147)
(2.04878e-18 6.93706e-20 -0.00535134)
(1.53045e-18 -1.42268e-20 -0.0053512)
(1.45319e-18 1.54158e-19 -0.00535107)
(1.21202e-18 2.90965e-19 -0.00535093)
(8.83235e-19 -3.84544e-20 -0.0053508)
(1.01233e-18 7.94097e-20 -0.00535066)
(9.8929e-19 -5.67323e-20 -0.00535053)
(1.04701e-18 -1.08235e-19 -0.0053504)
(8.54161e-19 -1.59224e-19 -0.00535028)
(4.50128e-19 -1.33603e-19 -0.00535017)
(1.75436e-18 9.46114e-18 -0.00535182)
(4.49826e-18 2.72438e-18 -0.00535172)
(2.94044e-18 2.05193e-18 -0.00535161)
(2.89443e-18 7.63491e-19 -0.00535149)
(2.23626e-18 4.14763e-19 -0.00535137)
(2.25076e-18 1.67811e-19 -0.00535124)
(1.97831e-18 4.68394e-20 -0.00535111)
(1.47577e-18 -7.25075e-20 -0.00535098)
(1.45649e-18 1.21206e-19 -0.00535084)
(1.00636e-18 -5.61834e-21 -0.00535071)
(9.70398e-19 7.49217e-20 -0.00535057)
(1.11729e-18 2.15137e-19 -0.00535044)
(1.00899e-18 4.61376e-21 -0.0053503)
(1.08162e-18 4.44442e-20 -0.00535018)
(6.59031e-19 -2.61896e-19 -0.00535006)
(4.00814e-19 -1.95628e-19 -0.00534994)
(1.34979e-18 7.75765e-18 -0.00535159)
(3.60396e-18 3.08588e-18 -0.00535149)
(2.5966e-18 2.28767e-18 -0.00535138)
(2.62672e-18 1.01096e-18 -0.00535127)
(2.20219e-18 6.21425e-19 -0.00535115)
(2.27218e-18 4.10605e-19 -0.00535102)
(1.88557e-18 7.78912e-20 -0.00535089)
(1.53805e-18 7.00252e-20 -0.00535076)
(1.40224e-18 1.17405e-19 -0.00535062)
(9.58668e-19 -6.17118e-20 -0.00535049)
(1.1028e-18 1.43603e-19 -0.00535035)
(1.07662e-18 1.8083e-19 -0.00535021)
(1.01784e-18 5.52568e-20 -0.00535008)
(9.55491e-19 -1.90304e-20 -0.00534995)
(5.18525e-19 -3.10274e-19 -0.00534983)
(4.87263e-19 -1.12294e-19 -0.00534972)
(2.89835e-18 3.24573e-18 -0.00535127)
(2.24584e-18 2.39716e-18 -0.00535116)
(2.46026e-18 1.26963e-18 -0.00535105)
(2.18024e-18 8.66615e-19 -0.00535093)
(2.2139e-18 5.51516e-19 -0.0053508)
(1.86911e-18 2.34622e-19 -0.00535067)
(1.59914e-18 2.78111e-19 -0.00535054)
(1.36852e-18 1.73192e-19 -0.0053504)
(1.03545e-18 8.21277e-20 -0.00535026)
(1.15622e-18 1.62162e-19 -0.00535012)
(1.0287e-18 8.68053e-20 -0.00534999)
(9.85536e-19 6.58602e-20 -0.00534986)
(8.03504e-19 -7.26948e-20 -0.00534973)
(4.64076e-19 -3.70843e-19 -0.00534961)
(5.24739e-19 -9.13554e-20 -0.00534949)
(2.35036e-18 3.23698e-18 -0.00535104)
(1.96978e-18 2.45853e-18 -0.00535094)
(2.26721e-18 1.40291e-18 -0.00535082)
(2.12537e-18 1.05985e-18 -0.0053507)
(2.15811e-18 6.40834e-19 -0.00535058)
(1.8732e-18 3.86088e-19 -0.00535045)
(1.59819e-18 3.46266e-19 -0.00535031)
(1.34377e-18 2.58927e-19 -0.00535018)
(1.07163e-18 1.8065e-19 -0.00535004)
(1.16956e-18 1.97842e-19 -0.0053499)
(9.41133e-19 -5.01464e-21 -0.00534976)
(8.66873e-19 -9.28416e-20 -0.00534963)
(5.96204e-19 -2.33969e-19 -0.0053495)
(4.40751e-19 -3.63926e-19 -0.00534938)
(5.27342e-19 -1.64899e-19 -0.00534927)
(1.86107e-18 3.13568e-18 -0.00535082)
(1.66711e-18 2.38248e-18 -0.00535071)
(2.12897e-18 1.48814e-18 -0.0053506)
(2.09932e-18 1.26071e-18 -0.00535048)
(2.0734e-18 7.06204e-19 -0.00535035)
(1.84757e-18 4.99511e-19 -0.00535022)
(1.57924e-18 4.19769e-19 -0.00535009)
(1.25475e-18 1.49866e-19 -0.00534995)
(1.09982e-18 2.39181e-19 -0.00534981)
(1.13534e-18 2.1208e-19 -0.00534968)
(8.41219e-19 -3.53325e-20 -0.00534954)
(6.9106e-19 -2.50274e-19 -0.00534941)
(3.91388e-19 -4.95374e-19 -0.00534928)
(5.36403e-19 -3.23455e-19 -0.00534916)
(5.38801e-19 -2.02994e-19 -0.00534904)
(6.27467e-19 4.49642e-18 -0.00535069)
(1.48183e-18 2.9542e-18 -0.00535059)
(1.49858e-18 2.43912e-18 -0.00535049)
(2.07356e-18 1.63714e-18 -0.00535037)
(2.00475e-18 1.32042e-18 -0.00535025)
(1.97611e-18 7.48633e-19 -0.00535013)
(1.81503e-18 5.15358e-19 -0.00535)
(1.49133e-18 4.70636e-19 -0.00534986)
(1.11843e-18 -1.82652e-20 -0.00534973)
(1.13961e-18 2.42087e-19 -0.00534959)
(1.0324e-18 1.27181e-19 -0.00534945)
(7.50199e-19 1.3145e-20 -0.00534931)
(6.30134e-19 -1.56226e-19 -0.00534918)
(3.89084e-19 -5.27897e-19 -0.00534905)
(6.08593e-19 -3.58392e-19 -0.00534893)
(4.95292e-19 -3.69942e-19 -0.00534882)
(5.11116e-19 3.93109e-18 -0.00535046)
(1.22072e-18 2.74073e-18 -0.00535037)
(1.38307e-18 2.48973e-18 -0.00535026)
(1.96422e-18 1.76397e-18 -0.00535015)
(1.84873e-18 1.25075e-18 -0.00535003)
(1.87633e-18 7.75533e-19 -0.0053499)
(1.711e-18 4.16024e-19 -0.00534977)
(1.30817e-18 3.32907e-19 -0.00534964)
(1.09227e-18 -5.40121e-21 -0.0053495)
(1.15116e-18 2.02047e-19 -0.00534936)
(9.44075e-19 6.19343e-20 -0.00534922)
(7.24554e-19 4.69244e-21 -0.00534909)
(6.78867e-19 6.74412e-20 -0.00534895)
(4.73591e-19 -3.18503e-19 -0.00534882)
(6.36906e-19 -3.45709e-19 -0.0053487)
(4.92998e-19 -4.79976e-19 -0.00534859)
(4.09638e-19 3.47503e-18 -0.00535024)
(1.02718e-18 2.51203e-18 -0.00535014)
(1.28742e-18 2.36296e-18 -0.00535003)
(1.84214e-18 1.82491e-18 -0.00534992)
(1.68514e-18 1.18904e-18 -0.0053498)
(1.76829e-18 7.8314e-19 -0.00534968)
(1.64043e-18 4.90622e-19 -0.00534955)
(1.20516e-18 2.36302e-19 -0.00534941)
(1.18749e-18 1.87148e-19 -0.00534927)
(1.16704e-18 2.28382e-19 -0.00534913)
(9.17596e-19 1.14191e-19 -0.005349)
(7.08593e-19 -1.39099e-20 -0.00534886)
(6.41333e-19 5.19417e-20 -0.00534872)
(5.83645e-19 -7.08859e-20 -0.00534859)
(6.76671e-19 -2.5833e-19 -0.00534847)
(6.93026e-19 -2.97417e-19 -0.00534836)
(3.39853e-19 3.18613e-18 -0.00535001)
(8.83847e-19 2.35699e-18 -0.00534991)
(1.23901e-18 2.30606e-18 -0.00534981)
(1.68565e-18 1.75212e-18 -0.00534969)
(1.54694e-18 1.20038e-18 -0.00534957)
(1.72776e-18 8.14096e-19 -0.00534945)
(1.54131e-18 4.75976e-19 -0.00534932)
(1.14975e-18 2.46048e-19 -0.00534918)
(1.18253e-18 1.25717e-19 -0.00534904)
(1.14487e-18 2.49312e-19 -0.00534891)
(8.95041e-19 2.0341e-19 -0.00534877)
(6.70548e-19 -2.04486e-21 -0.00534863)
(6.20298e-19 -1.00408e-20 -0.00534849)
(7.1636e-19 1.34929e-19 -0.00534836)
(8.3783e-19 -5.26613e-20 -0.00534824)
(8.60247e-19 -1.06624e-19 -0.00534812)
(-6.64605e-19 2.4628e-18 -0.00534987)
(2.90772e-19 2.90526e-18 -0.00534978)
(7.90344e-19 2.23265e-18 -0.00534968)
(1.2094e-18 2.32367e-18 -0.00534958)
(1.54802e-18 1.72276e-18 -0.00534946)
(1.46047e-18 1.21798e-18 -0.00534934)
(1.65706e-18 9.14192e-19 -0.00534922)
(1.37951e-18 3.43052e-19 -0.00534909)
(1.15183e-18 3.80956e-19 -0.00534895)
(1.16737e-18 6.80537e-20 -0.00534881)
(1.07603e-18 3.3289e-20 -0.00534867)
(8.68291e-19 2.61779e-19 -0.00534853)
(5.7092e-19 -9.04432e-20 -0.0053484)
(6.86941e-19 3.83061e-21 -0.00534826)
(8.37502e-19 2.17208e-19 -0.00534813)
(9.46821e-19 1.28793e-19 -0.00534801)
(7.99e-19 -1.41681e-19 -0.00534789)
(-6.25363e-19 2.25946e-18 -0.00534964)
(2.77081e-19 2.66685e-18 -0.00534955)
(7.75486e-19 2.21581e-18 -0.00534945)
(1.1787e-18 2.25386e-18 -0.00534935)
(1.40637e-18 1.70706e-18 -0.00534923)
(1.35717e-18 1.19053e-18 -0.00534911)
(1.57495e-18 9.73036e-19 -0.00534899)
(1.31616e-18 3.61667e-19 -0.00534886)
(1.18832e-18 4.9348e-19 -0.00534872)
(1.17291e-18 2.60284e-19 -0.00534858)
(9.45598e-19 -2.18265e-19 -0.00534844)
(8.18587e-19 2.3888e-19 -0.0053483)
(5.32111e-19 -9.31264e-20 -0.00534816)
(8.05611e-19 2.50442e-20 -0.00534803)
(8.12245e-19 9.51547e-20 -0.0053479)
(9.06795e-19 1.45932e-19 -0.00534777)
(7.33566e-19 -1.98535e-19 -0.00534766)
(-8.40775e-19 2.01734e-18 -0.00534949)
(-5.37433e-19 2.24449e-18 -0.00534941)
(2.96799e-19 2.49103e-18 -0.00534932)
(7.63031e-19 2.20746e-18 -0.00534922)
(1.10141e-18 2.15986e-18 -0.00534911)
(1.24938e-18 1.60304e-18 -0.005349)
(1.27639e-18 1.13981e-18 -0.00534888)
(1.47996e-18 9.58417e-19 -0.00534875)
(1.2436e-18 3.6172e-19 -0.00534862)
(1.17818e-18 4.67856e-19 -0.00534849)
(1.10394e-18 3.57842e-19 -0.00534835)
(8.75077e-19 -2.97756e-19 -0.00534821)
(7.049e-19 -1.82194e-20 -0.00534807)
(5.3727e-19 -8.05857e-20 -0.00534793)
(8.78916e-19 9.83168e-20 -0.00534779)
(7.58903e-19 -3.2367e-20 -0.00534766)
(8.53805e-19 8.00022e-20 -0.00534754)
(7.35147e-19 -1.57558e-19 -0.00534742)
(-7.58508e-19 1.8716e-18 -0.00534926)
(-4.26631e-19 2.23391e-18 -0.00534917)
(3.00614e-19 2.381e-18 -0.00534908)
(7.61898e-19 2.18396e-18 -0.00534899)
(1.00458e-18 2.01544e-18 -0.00534888)
(1.1246e-18 1.59803e-18 -0.00534877)
(1.23694e-18 1.19037e-18 -0.00534865)
(1.37146e-18 9.07197e-19 -0.00534852)
(1.22682e-18 4.66105e-19 -0.00534839)
(1.16227e-18 4.05821e-19 -0.00534825)
(1.00259e-18 3.76101e-19 -0.00534811)
(8.37149e-19 -1.71956e-19 -0.00534797)
(6.22073e-19 -1.73014e-19 -0.00534783)
(6.09001e-19 -1.06069e-19 -0.00534769)
(8.99409e-19 4.18036e-20 -0.00534755)
(7.27909e-19 -6.33777e-20 -0.00534742)
(8.14688e-19 2.12434e-20 -0.0053473)
(7.13131e-19 -1.83497e-19 -0.00534718)
(-6.38286e-19 1.88494e-18 -0.00534903)
(-3.61581e-19 2.14205e-18 -0.00534894)
(3.55812e-19 2.41728e-18 -0.00534885)
(7.51581e-19 2.24822e-18 -0.00534875)
(9.18988e-19 1.91621e-18 -0.00534865)
(1.06468e-18 1.60223e-18 -0.00534853)
(1.18338e-18 1.23847e-18 -0.00534841)
(1.32436e-18 9.65321e-19 -0.00534828)
(1.23955e-18 6.40554e-19 -0.00534815)
(1.07554e-18 2.93984e-19 -0.00534802)
(9.09869e-19 3.30848e-19 -0.00534788)
(8.24978e-19 -5.79238e-20 -0.00534773)
(7.08293e-19 -3.14809e-20 -0.00534759)
(7.42192e-19 4.32989e-20 -0.00534745)
(8.43177e-19 -6.12626e-20 -0.00534732)
(7.02001e-19 -1.26537e-19 -0.00534718)
(9.38401e-19 2.04779e-19 -0.00534706)
(7.11143e-19 -1.10314e-19 -0.00534694)
(-5.38689e-19 1.81173e-18 -0.00534879)
(-2.69427e-19 2.0788e-18 -0.00534871)
(4.22658e-19 2.42041e-18 -0.00534862)
(6.90651e-19 2.19544e-18 -0.00534852)
(8.52746e-19 1.93651e-18 -0.00534841)
(9.66122e-19 1.53846e-18 -0.0053483)
(1.10481e-18 1.13496e-18 -0.00534817)
(1.28907e-18 9.86408e-19 -0.00534805)
(1.13923e-18 6.63526e-19 -0.00534791)
(1.03148e-18 3.34891e-19 -0.00534778)
(8.35681e-19 2.62652e-19 -0.00534764)
(8.39356e-19 1.52549e-20 -0.0053475)
(8.01622e-19 7.14161e-20 -0.00534735)
(8.13805e-19 1.6816e-19 -0.00534721)
(8.26611e-19 -4.448e-20 -0.00534707)
(7.73513e-19 -1.6239e-19 -0.00534694)
(9.8914e-19 2.23678e-19 -0.00534681)
(6.00655e-19 -8.45682e-20 -0.00534669)
(-4.3288e-19 1.73262e-18 -0.00534856)
(-1.55312e-19 2.13861e-18 -0.00534847)
(4.31774e-19 2.3154e-18 -0.00534838)
(6.12689e-19 2.05036e-18 -0.00534828)
(7.37781e-19 1.76299e-18 -0.00534817)
(8.66519e-19 1.519e-18 -0.00534806)
(1.02428e-18 1.02675e-18 -0.00534794)
(1.23205e-18 9.34337e-19 -0.00534781)
(1.02157e-18 5.224e-19 -0.00534767)
(9.98817e-19 3.891e-19 -0.00534754)
(7.99098e-19 2.97996e-19 -0.0053474)
(8.6427e-19 6.21847e-20 -0.00534725)
(8.29276e-19 6.79026e-20 -0.00534711)
(8.34298e-19 1.97947e-19 -0.00534697)
(8.33282e-19 1.2974e-20 -0.00534683)
(8.17371e-19 -1.41194e-19 -0.0053467)
(7.97796e-19 -2.11828e-21 -0.00534657)
(4.22135e-19 -1.80806e-19 -0.00534645)
(-2.81585e-19 1.70214e-18 -0.00534832)
(-4.46516e-20 2.22264e-18 -0.00534823)
(4.05413e-19 2.23048e-18 -0.00534814)
(5.05606e-19 1.93719e-18 -0.00534804)
(6.62552e-19 1.65078e-18 -0.00534793)
(8.11546e-19 1.51446e-18 -0.00534782)
(9.74678e-19 1.01281e-18 -0.0053477)
(1.17373e-18 9.22275e-19 -0.00534757)
(9.25538e-19 4.79006e-19 -0.00534743)
(9.54852e-19 3.1358e-19 -0.0053473)
(7.65271e-19 2.99889e-19 -0.00534715)
(8.50495e-19 7.96991e-20 -0.00534701)
(8.24134e-19 5.74516e-21 -0.00534687)
(8.28945e-19 1.73911e-19 -0.00534673)
(8.2764e-19 4.14838e-20 -0.00534659)
(8.24457e-19 -1.11462e-19 -0.00534645)
(6.59463e-19 -1.41066e-19 -0.00534632)
(4.08318e-19 -1.43526e-19 -0.0053462)
(-1.43966e-19 1.56343e-18 -0.00534808)
(1.56514e-20 2.15799e-18 -0.00534799)
(3.26013e-19 2.05132e-18 -0.0053479)
(4.3558e-19 1.86774e-18 -0.0053478)
(6.46095e-19 1.68526e-18 -0.00534769)
(7.68434e-19 1.56581e-18 -0.00534758)
(1.00956e-18 1.22008e-18 -0.00534745)
(1.11767e-18 9.03293e-19 -0.00534732)
(9.10752e-19 6.05697e-19 -0.00534719)
(9.53668e-19 3.93495e-19 -0.00534705)
(7.42838e-19 3.06766e-19 -0.00534691)
(8.57827e-19 1.14298e-19 -0.00534677)
(7.78564e-19 -1.08529e-19 -0.00534662)
(8.44254e-19 1.57389e-19 -0.00534648)
(8.50287e-19 9.74837e-20 -0.00534634)
(9.09432e-19 6.52494e-20 -0.0053462)
(7.09561e-19 -2.37308e-20 -0.00534607)
(4.71988e-19 -3.98035e-20 -0.00534595)
(-5.54675e-20 1.39375e-18 -0.00534784)
(6.22998e-20 2.06309e-18 -0.00534775)
(2.63117e-19 1.86514e-18 -0.00534766)
(4.2152e-19 1.88e-18 -0.00534756)
(6.41449e-19 1.69737e-18 -0.00534745)
(7.80278e-19 1.60771e-18 -0.00534733)
(1.00275e-18 1.36942e-18 -0.00534721)
(1.04233e-18 9.12052e-19 -0.00534708)
(9.34825e-19 7.6327e-19 -0.00534694)
(9.69224e-19 5.12648e-19 -0.0053468)
(7.64359e-19 4.38628e-19 -0.00534666)
(8.0484e-19 1.18032e-19 -0.00534652)
(7.70347e-19 -1.55128e-19 -0.00534637)
(8.90999e-19 1.33329e-19 -0.00534623)
(8.85903e-19 1.00426e-19 -0.00534609)
(9.84765e-19 1.68534e-19 -0.00534595)
(7.87499e-19 1.68404e-19 -0.00534582)
(3.94592e-19 -3.57338e-20 -0.0053457)
(7.63549e-21 1.34674e-18 -0.0053476)
(1.19019e-19 2.03435e-18 -0.00534751)
(2.41965e-19 1.8174e-18 -0.00534742)
(4.22583e-19 1.87418e-18 -0.00534731)
(6.33504e-19 1.73066e-18 -0.0053472)
(7.28682e-19 1.52944e-18 -0.00534709)
(9.19485e-19 1.30502e-18 -0.00534696)
(9.95819e-19 9.0683e-19 -0.00534683)
(9.44428e-19 8.54696e-19 -0.0053467)
(9.14176e-19 4.9093e-19 -0.00534656)
(7.64789e-19 5.67594e-19 -0.00534641)
(7.43455e-19 1.13844e-19 -0.00534627)
(8.23061e-19 -1.14486e-19 -0.00534612)
(9.28783e-19 1.20055e-19 -0.00534598)
(8.88559e-19 7.08539e-20 -0.00534584)
(9.04356e-19 3.16644e-20 -0.0053457)
(7.87347e-19 2.89221e-19 -0.00534557)
(2.62796e-19 -7.33933e-20 -0.00534544)
(8.06911e-20 1.35335e-18 -0.00534735)
(1.58973e-19 1.92747e-18 -0.00534726)
(2.16403e-19 1.76197e-18 -0.00534717)
(3.97006e-19 1.77546e-18 -0.00534707)
(5.94104e-19 1.70242e-18 -0.00534696)
(6.57685e-19 1.41879e-18 -0.00534684)
(8.57963e-19 1.25638e-18 -0.00534671)
(9.79699e-19 9.45091e-19 -0.00534658)
(9.08806e-19 8.81797e-19 -0.00534645)
(9.00444e-19 5.2884e-19 -0.00534631)
(7.72742e-19 6.70342e-19 -0.00534616)
(6.95775e-19 1.54916e-19 -0.00534602)
(9.0249e-19 -3.43363e-20 -0.00534587)
(9.68555e-19 1.21977e-19 -0.00534573)
(8.62818e-19 5.23199e-20 -0.00534558)
(8.46915e-19 -1.03173e-19 -0.00534544)
(6.69611e-19 1.98026e-19 -0.00534531)
(2.06249e-19 -2.95541e-21 -0.00534519)
(1.46356e-19 1.44049e-18 -0.0053471)
(1.82059e-19 1.83652e-18 -0.00534702)
(1.82719e-19 1.66714e-18 -0.00534692)
(3.70809e-19 1.65437e-18 -0.00534682)
(5.59549e-19 1.66932e-18 -0.00534671)
(5.7491e-19 1.27065e-18 -0.00534659)
(8.55866e-19 1.29456e-18 -0.00534646)
(9.72632e-19 9.86443e-19 -0.00534633)
(8.60959e-19 8.41218e-19 -0.00534619)
(9.55519e-19 6.87845e-19 -0.00534605)
(7.01799e-19 6.699e-19 -0.00534591)
(6.93734e-19 2.55385e-19 -0.00534576)
(9.95279e-19 6.49126e-20 -0.00534562)
(1.00117e-18 1.61705e-19 -0.00534547)
(8.20655e-19 2.54238e-20 -0.00534533)
(8.60082e-19 -5.8517e-20 -0.00534519)
(4.23372e-19 -7.59545e-20 -0.00534505)
(1.68218e-19 9.0979e-21 -0.00534493)
(2.0737e-19 1.5696e-18 -0.00534685)
(2.05807e-19 1.86447e-18 -0.00534677)
(1.55102e-19 1.63575e-18 -0.00534667)
(4.09953e-19 1.7244e-18 -0.00534657)
(4.88455e-19 1.56912e-18 -0.00534646)
(5.40749e-19 1.2087e-18 -0.00534634)
(9.59305e-19 1.53962e-18 -0.00534621)
(9.03006e-19 9.46983e-19 -0.00534608)
(8.09981e-19 7.56792e-19 -0.00534594)
(9.32664e-19 6.91471e-19 -0.0053458)
(5.91653e-19 5.85256e-19 -0.00534565)
(7.23925e-19 3.6011e-19 -0.00534551)
(1.03533e-18 8.89301e-20 -0.00534536)
(8.63479e-19 -4.36635e-20 -0.00534521)
(7.53436e-19 -4.94829e-20 -0.00534507)
(8.38365e-19 -1.47697e-20 -0.00534493)
(2.54717e-19 -2.14501e-19 -0.00534479)
(1.70311e-19 1.90241e-20 -0.00534467)
(2.53888e-19 1.63352e-18 -0.0053466)
(2.0475e-19 1.84832e-18 -0.00534651)
(1.49135e-19 1.60144e-18 -0.00534642)
(4.21608e-19 1.79551e-18 -0.00534631)
(3.99262e-19 1.47195e-18 -0.0053462)
(6.02563e-19 1.20489e-18 -0.00534608)
(9.70137e-19 1.60229e-18 -0.00534596)
(7.72986e-19 9.03457e-19 -0.00534582)
(7.66382e-19 6.91221e-19 -0.00534568)
(8.23563e-19 5.20088e-19 -0.00534554)
(5.23396e-19 5.33934e-19 -0.0053454)
(7.09468e-19 3.56598e-19 -0.00534525)
(9.8774e-19 9.83444e-20 -0.0053451)
(6.51291e-19 -3.3732e-19 -0.00534495)
(7.53677e-19 -1.14841e-19 -0.00534481)
(7.25435e-19 -1.05131e-19 -0.00534466)
(2.5526e-19 -1.52937e-19 -0.00534453)
(2.00556e-19 5.30187e-20 -0.0053444)
(2.4559e-19 1.53418e-18 -0.00534634)
(1.69485e-19 1.72797e-18 -0.00534626)
(1.37229e-19 1.54577e-18 -0.00534616)
(4.04054e-19 1.74148e-18 -0.00534606)
(3.79652e-19 1.56663e-18 -0.00534595)
(6.29145e-19 1.18471e-18 -0.00534583)
(8.98996e-19 1.45802e-18 -0.0053457)
(6.77776e-19 8.82402e-19 -0.00534556)
(7.01279e-19 6.32113e-19 -0.00534543)
(6.99404e-19 3.09635e-19 -0.00534528)
(5.18457e-19 5.58928e-19 -0.00534514)
(7.03332e-19 3.6461e-19 -0.00534499)
(9.8564e-19 1.9832e-19 -0.00534484)
(6.38461e-19 -3.29182e-19 -0.00534469)
(8.03012e-19 -9.76728e-20 -0.00534454)
(6.23887e-19 -2.11137e-19 -0.0053444)
(3.1605e-19 -5.43342e-20 -0.00534426)
(2.12576e-19 1.19793e-19 -0.00534413)
(2.23315e-19 1.32932e-18 -0.00534608)
(1.40619e-19 1.5525e-18 -0.005346)
(1.44364e-19 1.49851e-18 -0.0053459)
(4.05073e-19 1.6663e-18 -0.0053458)
(3.34414e-19 1.57013e-18 -0.00534569)
(6.13186e-19 1.11735e-18 -0.00534557)
(8.2171e-19 1.31678e-18 -0.00534544)
(5.47088e-19 7.8928e-19 -0.0053453)
(6.38487e-19 6.20545e-19 -0.00534516)
(6.35389e-19 1.78043e-19 -0.00534502)
(5.531e-19 5.88514e-19 -0.00534487)
(7.00198e-19 3.52001e-19 -0.00534472)
(9.48028e-19 2.23911e-19 -0.00534457)
(6.87432e-19 -1.90179e-19 -0.00534442)
(8.66659e-19 -8.11771e-21 -0.00534427)
(5.44263e-19 -2.78974e-19 -0.00534413)
(3.45593e-19 -3.06871e-20 -0.00534399)
(2.01388e-19 1.1906e-19 -0.00534386)
(-3.37247e-20 1.34767e-18 -0.00534589)
(2.07147e-19 1.21436e-18 -0.00534582)
(1.24417e-19 1.36192e-18 -0.00534574)
(1.35415e-19 1.36343e-18 -0.00534564)
(3.52208e-19 1.46613e-18 -0.00534554)
(2.59098e-19 1.4928e-18 -0.00534543)
(6.08362e-19 1.09958e-18 -0.0053453)
(7.32484e-19 1.16265e-18 -0.00534518)
(4.36331e-19 6.62624e-19 -0.00534504)
(5.90896e-19 6.01752e-19 -0.0053449)
(6.7989e-19 2.71252e-19 -0.00534476)
(5.58023e-19 5.67983e-19 -0.00534461)
(6.66622e-19 3.27258e-19 -0.00534446)
(8.76959e-19 1.44409e-19 -0.0053443)
(7.40891e-19 -1.16568e-19 -0.00534415)
(8.93623e-19 7.10976e-20 -0.005344)
(4.72674e-19 -3.12659e-19 -0.00534386)
(3.14323e-19 -9.25117e-20 -0.00534372)
(1.41341e-19 3.79804e-20 -0.00534359)
(-6.42884e-20 1.21359e-18 -0.00534563)
(2.2596e-19 1.21774e-18 -0.00534556)
(1.12121e-19 1.27536e-18 -0.00534547)
(1.071e-19 1.19998e-18 -0.00534538)
(3.1428e-19 1.23244e-18 -0.00534528)
(2.65872e-19 1.53036e-18 -0.00534516)
(6.09655e-19 1.12713e-18 -0.00534504)
(6.39919e-19 1.05899e-18 -0.00534491)
(3.86666e-19 6.83773e-19 -0.00534478)
(5.7875e-19 5.65338e-19 -0.00534463)
(7.22404e-19 3.44228e-19 -0.00534449)
(5.11386e-19 5.01716e-19 -0.00534434)
(6.25188e-19 2.82778e-19 -0.00534419)
(8.47148e-19 1.31598e-19 -0.00534403)
(7.68494e-19 -7.98939e-20 -0.00534388)
(8.16924e-19 1.46992e-20 -0.00534373)
(3.9781e-19 -3.16811e-19 -0.00534359)
(2.93975e-19 -1.2708e-19 -0.00534345)
(1.39541e-19 -2.7474e-20 -0.00534331)
(-2.80413e-19 1.37303e-18 -0.00534543)
(-5.37827e-20 1.20064e-18 -0.00534536)
(2.55291e-19 1.28131e-18 -0.00534529)
(7.86863e-20 1.17522e-18 -0.00534521)
(8.13476e-20 1.12399e-18 -0.00534511)
(3.23358e-19 1.08813e-18 -0.00534501)
(2.60883e-19 1.49444e-18 -0.0053449)
(5.56041e-19 1.07532e-18 -0.00534477)
(5.79184e-19 9.89768e-19 -0.00534464)
(3.92571e-19 7.82218e-19 -0.00534451)
(6.08835e-19 6.71617e-19 -0.00534437)
(6.93349e-19 3.03152e-19 -0.00534422)
(4.69487e-19 4.50652e-19 -0.00534407)
(5.91468e-19 2.32262e-19 -0.00534392)
(8.44034e-19 1.26078e-19 -0.00534376)
(7.81974e-19 -4.1326e-20 -0.00534361)
(7.62704e-19 1.09856e-20 -0.00534346)
(3.91766e-19 -2.72476e-19 -0.00534331)
(4.13781e-19 1.09047e-20 -0.00534317)
(1.36648e-19 -6.85667e-20 -0.00534304)
(-2.53336e-19 1.39514e-18 -0.00534516)
(-4.00787e-20 1.2748e-18 -0.0053451)
(2.50973e-19 1.28393e-18 -0.00534502)
(-2.51389e-22 9.47373e-19 -0.00534494)
(7.95695e-20 1.08617e-18 -0.00534485)
(3.54152e-19 1.04982e-18 -0.00534474)
(2.34616e-19 1.38807e-18 -0.00534463)
(5.18636e-19 1.0232e-18 -0.00534451)
(5.61689e-19 9.84228e-19 -0.00534437)
(3.9404e-19 8.19247e-19 -0.00534424)
(6.29865e-19 7.7494e-19 -0.00534409)
(6.86177e-19 3.52289e-19 -0.00534395)
(4.52043e-19 4.40297e-19 -0.0053438)
(6.18489e-19 2.81432e-19 -0.00534364)
(8.61131e-19 1.52853e-19 -0.00534349)
(7.84012e-19 -2.97736e-20 -0.00534333)
(7.60058e-19 7.11424e-20 -0.00534318)
(4.92792e-19 -1.03701e-19 -0.00534303)
(4.10988e-19 2.15137e-20 -0.00534289)
(8.35727e-20 -7.69512e-20 -0.00534275)
(-2.33717e-19 1.20117e-18 -0.0053449)
(-1.01417e-21 1.47875e-18 -0.00534483)
(1.71546e-19 1.15093e-18 -0.00534475)
(-4.47692e-20 8.36309e-19 -0.00534467)
(9.32021e-20 9.9452e-19 -0.00534458)
(3.45347e-19 8.96817e-19 -0.00534447)
(2.10019e-19 1.31589e-18 -0.00534436)
(5.03779e-19 1.01527e-18 -0.00534423)
(5.41872e-19 9.62534e-19 -0.0053441)
(3.35145e-19 7.04619e-19 -0.00534396)
(6.10836e-19 7.66587e-19 -0.00534382)
(7.1262e-19 4.76342e-19 -0.00534367)
(4.89544e-19 5.30611e-19 -0.00534352)
(6.76223e-19 3.70255e-19 -0.00534336)
(8.69783e-19 1.8463e-19 -0.00534321)
(7.33207e-19 -9.22815e-20 -0.00534305)
(6.77935e-19 -3.17223e-20 -0.0053429)
(5.48255e-19 4.034e-20 -0.00534275)
(1.89994e-19 -2.09544e-19 -0.00534261)
(8.50291e-20 -3.04645e-20 -0.00534247)
(-1.84101e-19 1.16444e-18 -0.00534463)
(2.28789e-20 1.59223e-18 -0.00534456)
(8.03587e-20 1.06371e-18 -0.00534448)
(-3.62811e-20 9.17304e-19 -0.0053444)
(7.04596e-20 9.0415e-19 -0.0053443)
(3.46877e-19 7.5577e-19 -0.0053442)
(2.38419e-19 1.29263e-18 -0.00534408)
(5.05763e-19 1.03889e-18 -0.00534396)
(4.89385e-19 9.25225e-19 -0.00534383)
(3.27523e-19 7.11303e-19 -0.00534369)
(6.10343e-19 7.01281e-19 -0.00534354)
(7.57141e-19 5.79353e-19 -0.00534339)
(5.38413e-19 6.51457e-19 -0.00534324)
(6.7697e-19 3.95672e-19 -0.00534308)
(8.03909e-19 1.4356e-19 -0.00534293)
(6.33358e-19 -1.77289e-19 -0.00534277)
(5.48743e-19 -2.28979e-19 -0.00534261)
(3.69212e-19 -1.15719e-19 -0.00534246)
(1.88715e-20 -3.83519e-19 -0.00534232)
(1.57396e-19 3.23064e-20 -0.00534218)
(-1.32789e-19 1.20137e-18 -0.00534436)
(2.06286e-22 1.56102e-18 -0.00534429)
(2.94716e-20 1.10261e-18 -0.00534421)
(-4.72159e-20 9.35486e-19 -0.00534412)
(6.90171e-20 9.21374e-19 -0.00534403)
(3.89656e-19 7.20915e-19 -0.00534392)
(2.79078e-19 1.32254e-18 -0.00534381)
(5.15779e-19 1.11948e-18 -0.00534368)
(4.67392e-19 9.04405e-19 -0.00534355)
(3.76036e-19 8.46346e-19 -0.00534341)
(6.15976e-19 6.92025e-19 -0.00534326)
(8.08058e-19 6.69604e-19 -0.00534311)
(5.38991e-19 7.08117e-19 -0.00534296)
(6.24865e-19 3.65001e-19 -0.0053428)
(7.04454e-19 5.22283e-20 -0.00534264)
(5.61982e-19 -2.09448e-19 -0.00534248)
(4.32409e-19 -3.43088e-19 -0.00534233)
(2.17192e-19 -2.54682e-19 -0.00534218)
(7.26844e-20 -3.58899e-19 -0.00534203)
(1.91906e-19 3.88997e-20 -0.0053419)
(-1.39072e-19 1.08342e-18 -0.00534408)
(-3.62336e-20 1.37959e-18 -0.00534401)
(-2.83144e-20 1.12602e-18 -0.00534393)
(-8.20248e-20 8.47466e-19 -0.00534385)
(7.82591e-20 9.74176e-19 -0.00534375)
(4.47585e-19 7.51289e-19 -0.00534364)
(3.04236e-19 1.23575e-18 -0.00534353)
(5.21767e-19 1.1919e-18 -0.0053434)
(4.26524e-19 8.57289e-19 -0.00534327)
(3.92807e-19 8.94086e-19 -0.00534313)
(6.56109e-19 7.31696e-19 -0.00534298)
(8.18714e-19 6.78445e-19 -0.00534283)
(4.91323e-19 7.09251e-19 -0.00534267)
(6.41073e-19 4.82867e-19 -0.00534251)
(6.57626e-19 4.81186e-20 -0.00534236)
(4.9395e-19 -2.30625e-19 -0.0053422)
(3.42957e-19 -4.32842e-19 -0.00534204)
(2.50914e-19 -1.85505e-19 -0.00534189)
(1.52212e-19 -2.80798e-19 -0.00534174)
(1.34422e-19 -6.41417e-20 -0.0053416)
(-1.57856e-19 9.76469e-19 -0.0053438)
(-6.38366e-20 1.19452e-18 -0.00534373)
(-7.97657e-20 1.07936e-18 -0.00534365)
(-8.0733e-20 8.84784e-19 -0.00534357)
(1.02247e-19 9.81171e-19 -0.00534347)
(5.03698e-19 8.41364e-19 -0.00534336)
(2.51438e-19 9.76134e-19 -0.00534324)
(4.83646e-19 1.13394e-18 -0.00534312)
(3.43783e-19 6.89786e-19 -0.00534298)
(4.34933e-19 9.52697e-19 -0.00534284)
(6.53964e-19 7.20804e-19 -0.00534269)
(7.45084e-19 5.47132e-19 -0.00534254)
(4.04929e-19 5.6581e-19 -0.00534239)
(6.75472e-19 6.05279e-19 -0.00534223)
(6.39564e-19 1.48623e-19 -0.00534207)
(4.22998e-19 -2.29215e-19 -0.00534191)
(3.38028e-19 -4.24145e-19 -0.00534175)
(3.29171e-19 -7.98616e-20 -0.00534159)
(1.31733e-19 -2.99049e-19 -0.00534145)
(1.37172e-19 -8.63841e-20 -0.00534131)
(-1.77241e-19 8.60239e-19 -0.00534352)
(-7.51802e-20 1.09818e-18 -0.00534345)
(-1.18604e-19 9.9391e-19 -0.00534337)
(-8.13343e-20 8.86624e-19 -0.00534328)
(1.3611e-19 1.07039e-18 -0.00534318)
(5.00765e-19 8.4236e-19 -0.00534308)
(2.21555e-19 8.30541e-19 -0.00534296)
(4.70083e-19 1.11359e-18 -0.00534283)
(3.11886e-19 5.93285e-19 -0.0053427)
(4.76414e-19 9.67652e-19 -0.00534256)
(5.79491e-19 6.08804e-19 -0.00534241)
(6.60803e-19 4.25608e-19 -0.00534225)
(4.04619e-19 5.47545e-19 -0.0053421)
(6.62375e-19 5.84196e-19 -0.00534194)
(5.85655e-19 1.90396e-19 -0.00534178)
(3.8032e-19 -1.89549e-19 -0.00534161)
(3.68969e-19 -3.93199e-19 -0.00534145)
(3.76401e-19 1.76715e-20 -0.0053413)
(1.57058e-19 -2.52157e-19 -0.00534115)
(2.59426e-19 4.71261e-20 -0.00534101)
(-1.85389e-19 8.27277e-19 -0.00534324)
(-8.6287e-20 9.77229e-19 -0.00534317)
(-1.4266e-19 9.93541e-19 -0.00534309)
(-7.82374e-20 7.911e-19 -0.005343)
(1.89448e-19 1.17878e-18 -0.0053429)
(4.95903e-19 8.78816e-19 -0.00534279)
(2.6648e-19 8.84553e-19 -0.00534267)
(4.87033e-19 1.18334e-18 -0.00534254)
(3.28994e-19 6.43111e-19 -0.00534241)
(5.03169e-19 9.95701e-19 -0.00534227)
(4.9815e-19 5.03036e-19 -0.00534212)
(6.68395e-19 4.07708e-19 -0.00534196)
(4.77448e-19 6.49817e-19 -0.0053418)
(6.18427e-19 5.59676e-19 -0.00534164)
(4.96662e-19 1.64865e-19 -0.00534148)
(3.5521e-19 -1.32566e-19 -0.00534132)
(3.77207e-19 -3.98551e-19 -0.00534116)
(3.8306e-19 2.3706e-20 -0.005341)
(2.30102e-19 -1.7496e-19 -0.00534085)
(2.46632e-19 6.49917e-20 -0.0053407)
(-1.92795e-19 8.44616e-19 -0.00534295)
(-7.2462e-20 9.87138e-19 -0.00534288)
(-1.49656e-19 1.04107e-18 -0.0053428)
(-9.49064e-20 6.32851e-19 -0.00534271)
(2.21184e-19 1.16545e-18 -0.00534261)
(5.07306e-19 9.56302e-19 -0.0053425)
(3.05687e-19 9.31117e-19 -0.00534238)
(5.03824e-19 1.25583e-18 -0.00534225)
(3.56003e-19 7.03838e-19 -0.00534212)
(5.06598e-19 9.96351e-19 -0.00534197)
(4.56006e-19 4.80755e-19 -0.00534182)
(7.09262e-19 4.32848e-19 -0.00534167)
(4.38687e-19 5.67004e-19 -0.00534151)
(5.97818e-19 5.90142e-19 -0.00534135)
(4.27786e-19 1.57425e-19 -0.00534118)
(3.69227e-19 -3.15104e-20 -0.00534102)
(4.2664e-19 -3.395e-19 -0.00534085)
(4.08651e-19 5.86008e-20 -0.00534069)
(1.63277e-19 -2.48944e-19 -0.00534054)
(1.4703e-19 -2.76592e-20 -0.00534039)
(-1.78236e-19 8.13802e-19 -0.00534266)
(-5.07002e-20 1.01153e-18 -0.00534259)
(-1.88493e-19 1.12404e-18 -0.00534251)
(-1.05206e-19 5.16772e-19 -0.00534242)
(2.70454e-19 1.09427e-18 -0.00534232)
(4.92759e-19 9.22618e-19 -0.00534221)
(2.97253e-19 8.34734e-19 -0.00534209)
(4.63144e-19 1.1686e-18 -0.00534196)
(3.30292e-19 6.7373e-19 -0.00534182)
(4.6435e-19 9.03621e-19 -0.00534168)
(4.44683e-19 5.10065e-19 -0.00534153)
(7.27604e-19 4.52171e-19 -0.00534137)
(3.63856e-19 4.00218e-19 -0.00534121)
(5.99061e-19 6.24023e-19 -0.00534104)
(3.95743e-19 2.00796e-19 -0.00534088)
(4.36131e-19 1.26894e-19 -0.00534071)
(4.86099e-19 -2.60725e-19 -0.00534054)
(4.23879e-19 1.22673e-19 -0.00534038)
(5.83312e-20 -3.55623e-19 -0.00534022)
(1.2723e-19 -9.2844e-20 -0.00534007)
(-1.57893e-19 8.38228e-19 -0.00534237)
(-3.77093e-20 9.15909e-19 -0.0053423)
(-2.17004e-19 1.20306e-18 -0.00534222)
(-8.10659e-20 6.11848e-19 -0.00534213)
(3.09753e-19 1.04701e-18 -0.00534203)
(4.3796e-19 8.04046e-19 -0.00534191)
(2.67389e-19 7.0984e-19 -0.00534179)
(3.78744e-19 9.44135e-19 -0.00534166)
(3.03158e-19 5.98237e-19 -0.00534152)
(4.44006e-19 8.16944e-19 -0.00534138)
(4.54549e-19 5.50241e-19 -0.00534123)
(6.97125e-19 4.08559e-19 -0.00534107)
(3.57742e-19 3.68403e-19 -0.0053409)
(5.58691e-19 5.49542e-19 -0.00534073)
(3.45529e-19 1.83855e-19 -0.00534056)
(4.70743e-19 2.37227e-19 -0.00534039)
(4.97983e-19 -2.22077e-19 -0.00534022)
(3.92745e-19 1.50745e-19 -0.00534006)
(4.50179e-20 -3.36319e-19 -0.0053399)
(1.81415e-19 -9.52273e-20 -0.00533975)
(-1.38123e-19 8.81173e-19 -0.00534208)
(-3.30543e-20 7.99569e-19 -0.00534201)
(-2.53004e-19 1.15856e-18 -0.00534192)
(-4.57622e-20 7.50813e-19 -0.00534183)
(3.2809e-19 1.00063e-18 -0.00534173)
(4.12282e-19 7.86427e-19 -0.00534161)
(2.39831e-19 6.12734e-19 -0.00534149)
(3.20655e-19 7.9186e-19 -0.00534136)
(3.19499e-19 5.99404e-19 -0.00534122)
(4.47609e-19 7.69095e-19 -0.00534107)