/*--------------------------------*- C++ -*----------------------------------*\
  =========                 |
  \\      /  F ield         | OpenFOAM: The Open Source CFD Toolbox
   \\    /   O peration     | Website:  https://openfoam.org
    \\  /    A nd           | Version:  7
     \\/     M anipulation  |
\*---------------------------------------------------------------------------*/
FoamFile
{
    version     2.0;
    format      ascii;
    class       volScalarField;
    location    "44000";
    object      p;
}
// * * * * * * * * * * * * * * * * * * * * * * * * * * * * * * * * * * * * * //

dimensions      [0 2 -2 0 0 0 0];

internalField   nonuniform List<scalar> 
4850
(
-2.76814e-17
-2.74308e-17
-2.77057e-17
-2.73337e-17
-2.75796e-17
-2.7863e-17
-2.75553e-17
-2.75433e-17
-2.75152e-17
-2.7559e-17
-2.77115e-17
-2.75607e-17
-2.75359e-17
-2.75778e-17
-2.73818e-17
-2.7579e-17
-2.77328e-17
-2.75799e-17
-2.73151e-17
-2.75754e-17
-2.73418e-17
-2.75232e-17
-2.75104e-17
-2.79223e-17
-2.76314e-17
-2.73446e-17
-2.7565e-17
-2.75179e-17
-2.73614e-17
-2.77102e-17
-2.76798e-17
-2.79325e-17
-2.74948e-17
-2.75564e-17
-2.75549e-17
-2.73856e-17
-2.74689e-17
-2.7395e-17
-2.78098e-17
-2.78747e-17
-2.76661e-17
-2.75499e-17
-2.73206e-17
-2.75358e-17
-2.77857e-17
-2.75679e-17
-2.73989e-17
-2.749e-17
-2.76589e-17
-2.76376e-17
-2.75993e-17
-2.75512e-17
-2.77363e-17
-2.75998e-17
-2.76353e-17
-2.78533e-17
-2.73212e-17
-2.76785e-17
-2.76819e-17
-2.77553e-17
-2.74852e-17
-2.75851e-17
-2.76661e-17
-2.75666e-17
-2.76589e-17
-2.75477e-17
-2.76084e-17
-2.77222e-17
-2.74755e-17
-2.75322e-17
-2.75888e-17
-2.76579e-17
-2.76997e-17
-2.76675e-17
-2.75107e-17
-2.76374e-17
-2.75737e-17
-2.74715e-17
-2.74825e-17
-2.76356e-17
-2.78906e-17
-2.75672e-17
-2.75794e-17
-2.75077e-17
-2.75468e-17
-2.75882e-17
-2.76096e-17
-2.7682e-17
-2.7501e-17
-2.76558e-17
-2.77717e-17
-2.77099e-17
-2.77925e-17
-2.80246e-17
-2.7574e-17
-2.76465e-17
-2.75569e-17
-2.75115e-17
-2.73876e-17
-2.77322e-17
-2.78172e-17
-2.76873e-17
-2.75271e-17
-2.74907e-17
-2.75682e-17
-2.75029e-17
-2.77701e-17
-2.77412e-17
-2.77432e-17
-2.76383e-17
-2.78604e-17
-2.76715e-17
-2.76454e-17
-2.78046e-17
-2.78341e-17
-2.80849e-17
-2.82559e-17
-2.78078e-17
-2.75783e-17
-2.7641e-17
-2.75023e-17
-2.74866e-17
-2.73893e-17
-2.74569e-17
-2.74281e-17
-2.75602e-17
-2.75772e-17
-2.7521e-17
-2.76781e-17
-2.73974e-17
-2.76657e-17
-2.75625e-17
-2.77814e-17
-2.75714e-17
-2.80425e-17
-2.75825e-17
-2.7314e-17
-2.75869e-17
-2.78055e-17
-2.78096e-17
-2.79737e-17
-2.7483e-17
-2.8006e-17
-2.83145e-17
-2.80062e-17
-2.77501e-17
-2.82843e-17
-2.74276e-17
-2.77068e-17
-2.73454e-17
-2.74845e-17
-2.73507e-17
-2.75321e-17
-2.71678e-17
-2.74828e-17
-2.76855e-17
-2.75135e-17
-2.74521e-17
-2.74518e-17
-2.76741e-17
-2.73842e-17
-2.79834e-17
-2.73631e-17
-2.77903e-17
-2.73604e-17
-2.7225e-17
-2.80553e-17
-2.78065e-17
-2.75044e-17
-2.78364e-17
-2.74657e-17
-2.81294e-17
-2.8682e-17
-2.80686e-17
-2.77174e-17
-2.82566e-17
-2.83247e-17
-2.81176e-17
-2.831e-17
-2.72411e-17
-2.78926e-17
-2.75002e-17
-2.7383e-17
-2.75255e-17
-2.77688e-17
-2.74845e-17
-2.75806e-17
-2.76905e-17
-2.7492e-17
-2.74889e-17
-2.74327e-17
-2.75944e-17
-2.73882e-17
-2.80097e-17
-2.78714e-17
-2.77451e-17
-2.75806e-17
-2.73168e-17
-2.79067e-17
-2.78211e-17
-2.78321e-17
-2.77742e-17
-2.77538e-17
-2.83224e-17
-2.83879e-17
-2.80283e-17
-2.77132e-17
-2.82562e-17
-2.83744e-17
-2.82862e-17
-2.82973e-17
-2.8382e-17
-2.96189e-17
-2.74495e-17
-2.75036e-17
-2.75239e-17
-2.7596e-17
-2.77407e-17
-2.77613e-17
-2.7321e-17
-2.76568e-17
-2.76087e-17
-2.74814e-17
-2.74158e-17
-2.72509e-17
-2.75799e-17
-2.75015e-17
-2.77433e-17
-2.78425e-17
-2.77324e-17
-2.78117e-17
-2.77446e-17
-2.78493e-17
-2.78341e-17
-2.81714e-17
-2.76835e-17
-2.78288e-17
-2.81213e-17
-2.85555e-17
-2.79332e-17
-2.78693e-17
-2.8316e-17
-2.84653e-17
-2.83174e-17
-2.86636e-17
-2.80901e-17
-3.02076e-17
-2.75691e-17
-2.75244e-17
-2.75136e-17
-2.76473e-17
-2.76407e-17
-2.76483e-17
-2.74727e-17
-2.75768e-17
-2.76165e-17
-2.74815e-17
-2.75288e-17
-2.75876e-17
-2.76395e-17
-2.75622e-17
-2.76502e-17
-2.79661e-17
-2.77276e-17
-2.80377e-17
-2.79311e-17
-2.78435e-17
-2.78024e-17
-2.80789e-17
-2.8057e-17
-2.77605e-17
-2.81273e-17
-2.87107e-17
-2.76657e-17
-2.84187e-17
-2.84759e-17
-2.8655e-17
-2.81198e-17
-2.90107e-17
-2.82904e-17
-3.04921e-17
-2.76348e-17
-2.75616e-17
-2.74738e-17
-2.78122e-17
-2.76804e-17
-2.75601e-17
-2.74735e-17
-2.75186e-17
-2.73808e-17
-2.74648e-17
-2.76316e-17
-2.75633e-17
-2.77256e-17
-2.75755e-17
-2.75671e-17
-2.77847e-17
-2.76739e-17
-2.76861e-17
-2.73681e-17
-2.78271e-17
-2.77375e-17
-2.81549e-17
-2.77176e-17
-2.74594e-17
-2.82783e-17
-2.82577e-17
-2.76334e-17
-2.8284e-17
-2.86565e-17
-2.83671e-17
-2.8323e-17
-2.90155e-17
-2.83849e-17
-2.98214e-17
-2.77865e-17
-2.75495e-17
-2.73461e-17
-2.79336e-17
-2.75003e-17
-2.7613e-17
-2.7479e-17
-2.7494e-17
-2.74784e-17
-2.73376e-17
-2.73861e-17
-2.75229e-17
-2.76244e-17
-2.75681e-17
-2.74515e-17
-2.76581e-17
-2.76268e-17
-2.73752e-17
-2.72249e-17
-2.78993e-17
-2.76116e-17
-2.7917e-17
-2.79898e-17
-2.75708e-17
-2.8069e-17
-2.80932e-17
-2.80247e-17
-2.81961e-17
-2.83966e-17
-2.79962e-17
-2.84036e-17
-2.88036e-17
-2.83427e-17
-3.03822e-17
-2.79787e-17
-2.73417e-17
-2.74324e-17
-2.80008e-17
-2.73157e-17
-2.77318e-17
-2.73939e-17
-2.74702e-17
-2.74814e-17
-2.70703e-17
-2.73351e-17
-2.75564e-17
-2.75727e-17
-2.75498e-17
-2.72174e-17
-2.76374e-17
-2.74772e-17
-2.75066e-17
-2.74267e-17
-2.81284e-17
-2.73725e-17
-2.7694e-17
-2.7611e-17
-2.80999e-17
-2.80062e-17
-2.80814e-17
-2.83522e-17
-2.81689e-17
-2.83024e-17
-2.80913e-17
-2.83935e-17
-2.87074e-17
-2.8323e-17
-3.02719e-17
-2.79276e-17
-2.75499e-17
-2.74559e-17
-2.77189e-17
-2.73883e-17
-2.76395e-17
-2.73505e-17
-2.73846e-17
-2.73088e-17
-2.71519e-17
-2.75287e-17
-2.72013e-17
-2.7522e-17
-2.75772e-17
-2.74254e-17
-2.76394e-17
-2.72541e-17
-2.73535e-17
-2.73034e-17
-2.79012e-17
-2.75591e-17
-2.74678e-17
-2.77068e-17
-2.79729e-17
-2.79857e-17
-2.80397e-17
-2.81178e-17
-2.80926e-17
-2.82845e-17
-2.79497e-17
-2.83813e-17
-2.86724e-17
-2.81972e-17
-2.988e-17
-2.76025e-17
-2.76545e-17
-2.74412e-17
-2.75463e-17
-2.73477e-17
-2.76236e-17
-2.73772e-17
-2.76005e-17
-2.74559e-17
-2.7264e-17
-2.79717e-17
-2.7026e-17
-2.73615e-17
-2.76276e-17
-2.75111e-17
-2.7685e-17
-2.75072e-17
-2.7561e-17
-2.7608e-17
-2.78116e-17
-2.76842e-17
-2.76878e-17
-2.77762e-17
-2.78842e-17
-2.79591e-17
-2.80168e-17
-2.80561e-17
-2.79632e-17
-2.82327e-17
-2.8146e-17
-2.83893e-17
-2.8638e-17
-2.848e-17
-2.96718e-17
-2.76e-17
-2.77777e-17
-2.7531e-17
-2.74317e-17
-2.73273e-17
-2.74399e-17
-2.73557e-17
-2.76484e-17
-2.74674e-17
-2.74584e-17
-2.79427e-17
-2.72395e-17
-2.73714e-17
-2.76601e-17
-2.73733e-17
-2.78646e-17
-2.76358e-17
-2.76993e-17
-2.79147e-17
-2.77933e-17
-2.77891e-17
-2.7673e-17
-2.77767e-17
-2.78671e-17
-2.80903e-17
-2.8041e-17
-2.80347e-17
-2.77619e-17
-2.82995e-17
-2.81391e-17
-2.83505e-17
-2.85973e-17
-2.87282e-17
-2.92386e-17
-2.77412e-17
-2.76656e-17
-2.73338e-17
-2.7591e-17
-2.75025e-17
-2.75327e-17
-2.71947e-17
-2.7591e-17
-2.74968e-17
-2.76154e-17
-2.76378e-17
-2.72451e-17
-2.75449e-17
-2.75016e-17
-2.72939e-17
-2.74613e-17
-2.77209e-17
-2.7818e-17
-2.7599e-17
-2.77807e-17
-2.79092e-17
-2.73868e-17
-2.77562e-17
-2.7876e-17
-2.84557e-17
-2.81475e-17
-2.8049e-17
-2.8117e-17
-2.85019e-17
-2.79933e-17
-2.83307e-17
-2.864e-17
-2.85202e-17
-2.89318e-17
-2.77827e-17
-2.75543e-17
-2.77911e-17
-2.74159e-17
-2.77473e-17
-2.7441e-17
-2.75116e-17
-2.73825e-17
-2.73209e-17
-2.77839e-17
-2.74592e-17
-2.75418e-17
-2.74217e-17
-2.76968e-17
-2.73256e-17
-2.73443e-17
-2.76657e-17
-2.79526e-17
-2.80035e-17
-2.72385e-17
-2.78388e-17
-2.7412e-17
-2.72739e-17
-2.77446e-17
-2.78702e-17
-2.80568e-17
-2.83139e-17
-2.80648e-17
-2.84285e-17
-2.829e-17
-2.84632e-17
-2.83366e-17
-2.8887e-17
-2.84177e-17
-2.86559e-17
-2.79959e-17
-2.72852e-17
-2.77237e-17
-2.74305e-17
-2.76206e-17
-2.74939e-17
-2.75052e-17
-2.76073e-17
-2.72862e-17
-2.7589e-17
-2.73268e-17
-2.75726e-17
-2.75034e-17
-2.76674e-17
-2.72155e-17
-2.7354e-17
-2.76124e-17
-2.7692e-17
-2.78099e-17
-2.74085e-17
-2.80417e-17
-2.75342e-17
-2.7454e-17
-2.77534e-17
-2.78794e-17
-2.77625e-17
-2.81091e-17
-2.80066e-17
-2.82363e-17
-2.8131e-17
-2.84478e-17
-2.83248e-17
-2.88441e-17
-2.83601e-17
-2.89442e-17
-2.83286e-17
-2.74307e-17
-2.76566e-17
-2.7371e-17
-2.76904e-17
-2.74445e-17
-2.74873e-17
-2.74909e-17
-2.71277e-17
-2.74576e-17
-2.74118e-17
-2.7636e-17
-2.7498e-17
-2.74511e-17
-2.75452e-17
-2.75014e-17
-2.75012e-17
-2.74119e-17
-2.76739e-17
-2.75185e-17
-2.79281e-17
-2.76242e-17
-2.80741e-17
-2.7784e-17
-2.78115e-17
-2.74833e-17
-2.80018e-17
-2.79745e-17
-2.81488e-17
-2.79694e-17
-2.85472e-17
-2.82798e-17
-2.85187e-17
-2.84366e-17
-2.88449e-17
-2.75032e-17
-2.79143e-17
-2.72535e-17
-2.77704e-17
-2.74654e-17
-2.74347e-17
-2.74308e-17
-2.7503e-17
-2.75986e-17
-2.74686e-17
-2.74472e-17
-2.75036e-17
-2.75314e-17
-2.75895e-17
-2.75622e-17
-2.75294e-17
-2.74935e-17
-2.76459e-17
-2.75641e-17
-2.80194e-17
-2.76068e-17
-2.81423e-17
-2.77807e-17
-2.77841e-17
-2.75927e-17
-2.80809e-17
-2.7983e-17
-2.8246e-17
-2.77274e-17
-2.83459e-17
-2.822e-17
-2.83804e-17
-2.85608e-17
-2.85719e-17
-2.75351e-17
-2.79931e-17
-2.73326e-17
-2.76391e-17
-2.74525e-17
-2.72477e-17
-2.74993e-17
-2.74191e-17
-2.74566e-17
-2.74748e-17
-2.74784e-17
-2.75502e-17
-2.75052e-17
-2.76002e-17
-2.76219e-17
-2.76171e-17
-2.77379e-17
-2.76239e-17
-2.75531e-17
-2.77941e-17
-2.74908e-17
-2.78356e-17
-2.7759e-17
-2.77574e-17
-2.75065e-17
-2.82406e-17
-2.79739e-17
-2.84436e-17
-2.79169e-17
-2.8348e-17
-2.82121e-17
-2.83234e-17
-2.83998e-17
-2.84269e-17
-2.75288e-17
-2.77708e-17
-2.71917e-17
-2.76156e-17
-2.74316e-17
-2.72728e-17
-2.73857e-17
-2.74705e-17
-2.71791e-17
-2.74768e-17
-2.75009e-17
-2.76482e-17
-2.74482e-17
-2.74783e-17
-2.75034e-17
-2.74902e-17
-2.76624e-17
-2.75987e-17
-2.75923e-17
-2.76687e-17
-2.72924e-17
-2.76959e-17
-2.77494e-17
-2.7796e-17
-2.76814e-17
-2.80399e-17
-2.80103e-17
-2.82011e-17
-2.8007e-17
-2.8505e-17
-2.8238e-17
-2.82896e-17
-2.83442e-17
-2.84034e-17
-2.75775e-17
-2.76311e-17
-2.75362e-17
-2.78339e-17
-2.75647e-17
-2.75241e-17
-2.72179e-17
-2.77649e-17
-2.7541e-17
-2.75037e-17
-2.75702e-17
-2.75817e-17
-2.75671e-17
-2.7478e-17
-2.74305e-17
-2.73683e-17
-2.74731e-17
-2.75681e-17
-2.73497e-17
-2.76465e-17
-2.75893e-17
-2.76904e-17
-2.77403e-17
-2.781e-17
-2.77686e-17
-2.79391e-17
-2.82393e-17
-2.80586e-17
-2.79516e-17
-2.82475e-17
-2.82724e-17
-2.84088e-17
-2.82695e-17
-2.77261e-17
-2.75261e-17
-2.73926e-17
-2.77421e-17
-2.75121e-17
-2.74559e-17
-2.7593e-17
-2.76857e-17
-2.76706e-17
-2.75644e-17
-2.75301e-17
-2.75552e-17
-2.76704e-17
-2.74944e-17
-2.75513e-17
-2.75024e-17
-2.75185e-17
-2.74715e-17
-2.7313e-17
-2.76739e-17
-2.76746e-17
-2.77099e-17
-2.77296e-17
-2.77957e-17
-2.78154e-17
-2.79049e-17
-2.82022e-17
-2.80261e-17
-2.78597e-17
-2.80771e-17
-2.81465e-17
-2.84387e-17
-2.83695e-17
-2.77489e-17
-2.74138e-17
-2.74297e-17
-2.76144e-17
-2.74406e-17
-2.77329e-17
-2.7577e-17
-2.74418e-17
-2.76683e-17
-2.77136e-17
-2.7488e-17
-2.75392e-17
-2.76089e-17
-2.74908e-17
-2.74347e-17
-2.74969e-17
-2.75318e-17
-2.74988e-17
-2.74749e-17
-2.77328e-17
-2.75865e-17
-2.77679e-17
-2.7734e-17
-2.77857e-17
-2.78552e-17
-2.78529e-17
-2.78327e-17
-2.80127e-17
-2.79412e-17
-2.82205e-17
-2.81331e-17
-2.83524e-17
-2.76177e-17
-2.75964e-17
-2.7451e-17
-2.73642e-17
-2.73282e-17
-2.75415e-17
-2.75441e-17
-2.75595e-17
-2.76314e-17
-2.77538e-17
-2.74271e-17
-2.74493e-17
-2.74716e-17
-2.74813e-17
-2.74761e-17
-2.74556e-17
-2.7679e-17
-2.7433e-17
-2.74631e-17
-2.76413e-17
-2.76011e-17
-2.77324e-17
-2.77311e-17
-2.77743e-17
-2.79187e-17
-2.78952e-17
-2.78393e-17
-2.80214e-17
-2.79734e-17
-2.81546e-17
-2.81662e-17
-2.8223e-17
-2.74447e-17
-2.75093e-17
-2.74423e-17
-2.76097e-17
-2.7473e-17
-2.74453e-17
-2.73174e-17
-2.758e-17
-2.74773e-17
-2.75742e-17
-2.75215e-17
-2.72359e-17
-2.75872e-17
-2.75266e-17
-2.75172e-17
-2.76475e-17
-2.7663e-17
-2.75457e-17
-2.73679e-17
-2.76231e-17
-2.75296e-17
-2.76178e-17
-2.77606e-17
-2.77549e-17
-2.78682e-17
-2.79574e-17
-2.78624e-17
-2.78327e-17
-2.79505e-17
-2.80313e-17
-2.79448e-17
-2.82171e-17
-2.73177e-17
-2.72084e-17
-2.74593e-17
-2.77451e-17
-2.75864e-17
-2.74591e-17
-2.74449e-17
-2.75581e-17
-2.73226e-17
-2.75018e-17
-2.76303e-17
-2.73494e-17
-2.76422e-17
-2.75326e-17
-2.75291e-17
-2.75443e-17
-2.77101e-17
-2.7608e-17
-2.74719e-17
-2.76147e-17
-2.74807e-17
-2.77488e-17
-2.78011e-17
-2.77799e-17
-2.79269e-17
-2.7909e-17
-2.78622e-17
-2.78654e-17
-2.79307e-17
-2.78876e-17
-2.79108e-17
-2.81182e-17
-2.72601e-17
-2.73533e-17
-2.73483e-17
-2.78039e-17
-2.73949e-17
-2.75488e-17
-2.74665e-17
-2.76767e-17
-2.72371e-17
-2.76473e-17
-2.76261e-17
-2.75763e-17
-2.75722e-17
-2.74446e-17
-2.74529e-17
-2.75531e-17
-2.7619e-17
-2.7706e-17
-2.74149e-17
-2.76443e-17
-2.76286e-17
-2.77026e-17
-2.76379e-17
-2.78438e-17
-2.79272e-17
-2.78984e-17
-2.78584e-17
-2.79276e-17
-2.7902e-17
-2.81042e-17
-2.79671e-17
-2.813e-17
-2.71833e-17
-2.78283e-17
-2.74235e-17
-2.75233e-17
-2.73675e-17
-2.77507e-17
-2.74795e-17
-2.75742e-17
-2.73819e-17
-2.77266e-17
-2.75982e-17
-2.76437e-17
-2.75481e-17
-2.74667e-17
-2.75748e-17
-2.76158e-17
-2.7579e-17
-2.77101e-17
-2.72201e-17
-2.76898e-17
-2.76314e-17
-2.76847e-17
-2.75947e-17
-2.77619e-17
-2.78505e-17
-2.77355e-17
-2.78471e-17
-2.79782e-17
-2.7739e-17
-2.80533e-17
-2.79161e-17
-2.81764e-17
-2.72702e-17
-2.77872e-17
-2.74825e-17
-2.75941e-17
-2.75346e-17
-2.76769e-17
-2.75107e-17
-2.77961e-17
-2.75329e-17
-2.74805e-17
-2.7665e-17
-2.777e-17
-2.74577e-17
-2.75407e-17
-2.76995e-17
-2.75173e-17
-2.75286e-17
-2.75558e-17
-2.73309e-17
-2.76365e-17
-2.76767e-17
-2.7677e-17
-2.76853e-17
-2.77204e-17
-2.78894e-17
-2.77272e-17
-2.78347e-17
-2.78363e-17
-2.76077e-17
-2.79345e-17
-2.78723e-17
-2.79445e-17
-2.74151e-17
-2.7845e-17
-2.7522e-17
-2.77238e-17
-2.73187e-17
-2.7551e-17
-2.73579e-17
-2.75989e-17
-2.75725e-17
-2.74939e-17
-2.76038e-17
-2.76672e-17
-2.76536e-17
-2.75271e-17
-2.75998e-17
-2.74246e-17
-2.75605e-17
-2.73544e-17
-2.75188e-17
-2.77007e-17
-2.75927e-17
-2.76687e-17
-2.77069e-17
-2.76382e-17
-2.77854e-17
-2.76685e-17
-2.78294e-17
-2.77121e-17
-2.7786e-17
-2.7974e-17
-2.79017e-17
-2.77741e-17
-2.72846e-17
-2.77552e-17
-2.73876e-17
-2.76731e-17
-2.73017e-17
-2.76111e-17
-2.72401e-17
-2.75222e-17
-2.7548e-17
-2.75924e-17
-2.74999e-17
-2.7681e-17
-2.76607e-17
-2.74717e-17
-2.7469e-17
-2.74573e-17
-2.76617e-17
-2.73586e-17
-2.74445e-17
-2.76376e-17
-2.75631e-17
-2.76949e-17
-2.77029e-17
-2.75117e-17
-2.76999e-17
-2.7706e-17
-2.78257e-17
-2.78034e-17
-2.78899e-17
-2.79647e-17
-2.79018e-17
-2.78897e-17
-2.75463e-17
-2.74962e-17
-2.75201e-17
-2.76659e-17
-2.74175e-17
-2.76218e-17
-2.75255e-17
-2.7464e-17
-2.73887e-17
-2.75868e-17
-2.754e-17
-2.7494e-17
-2.77479e-17
-2.73836e-17
-2.74979e-17
-2.73815e-17
-2.76805e-17
-2.74816e-17
-2.75231e-17
-2.77023e-17
-2.74898e-17
-2.77596e-17
-2.77269e-17
-2.77438e-17
-2.7785e-17
-2.76571e-17
-2.78308e-17
-2.78866e-17
-2.79768e-17
-2.7932e-17
-2.78674e-17
-2.78139e-17
-2.74266e-17
-2.76659e-17
-2.74525e-17
-2.76618e-17
-2.76382e-17
-2.74566e-17
-2.77046e-17
-2.73665e-17
-2.73163e-17
-2.75091e-17
-2.75188e-17
-2.74474e-17
-2.76757e-17
-2.73159e-17
-2.76008e-17
-2.73613e-17
-2.76033e-17
-2.74953e-17
-2.75924e-17
-2.77117e-17
-2.73746e-17
-2.76699e-17
-2.78403e-17
-2.77377e-17
-2.78785e-17
-2.77463e-17
-2.78581e-17
-2.78116e-17
-2.7946e-17
-2.78698e-17
-2.77093e-17
-2.77528e-17
-2.74161e-17
-2.76832e-17
-2.73383e-17
-2.75341e-17
-2.72934e-17
-2.75031e-17
-2.76192e-17
-2.72353e-17
-2.71648e-17
-2.73296e-17
-2.73056e-17
-2.74538e-17
-2.74174e-17
-2.7424e-17
-2.76924e-17
-2.7452e-17
-2.76227e-17
-2.75126e-17
-2.74774e-17
-2.7594e-17
-2.76215e-17
-2.76345e-17
-2.78452e-17
-2.77029e-17
-2.78031e-17
-2.78356e-17
-2.79241e-17
-2.77732e-17
-2.78668e-17
-2.78135e-17
-2.76796e-17
-2.7772e-17
-2.74409e-17
-2.75473e-17
-2.73322e-17
-2.75944e-17
-2.71751e-17
-2.74561e-17
-2.74266e-17
-2.74502e-17
-2.73592e-17
-2.74589e-17
-2.74565e-17
-2.74923e-17
-2.75019e-17
-2.7471e-17
-2.76905e-17
-2.7468e-17
-2.74854e-17
-2.76148e-17
-2.75057e-17
-2.7617e-17
-2.76408e-17
-2.76641e-17
-2.77048e-17
-2.77005e-17
-2.77625e-17
-2.77709e-17
-2.80018e-17
-2.77522e-17
-2.79012e-17
-2.78519e-17
-2.76831e-17
-2.78702e-17
-2.73874e-17
-2.76768e-17
-2.75905e-17
-2.76638e-17
-2.7517e-17
-2.76944e-17
-2.75384e-17
-2.75631e-17
-2.74906e-17
-2.7642e-17
-2.76335e-17
-2.74887e-17
-2.75433e-17
-2.74397e-17
-2.7667e-17
-2.74936e-17
-2.75935e-17
-2.753e-17
-2.74859e-17
-2.75268e-17
-2.75862e-17
-2.77512e-17
-2.76132e-17
-2.77239e-17
-2.77548e-17
-2.77252e-17
-2.76927e-17
-2.76671e-17
-2.79601e-17
-2.78375e-17
-2.7784e-17
-2.7984e-17
-2.74793e-17
-2.74988e-17
-2.74927e-17
-2.75577e-17
-2.7475e-17
-2.76958e-17
-2.76264e-17
-2.75362e-17
-2.75374e-17
-2.76797e-17
-2.76214e-17
-2.75976e-17
-2.7621e-17
-2.73865e-17
-2.75477e-17
-2.76481e-17
-2.77877e-17
-2.74314e-17
-2.76853e-17
-2.75097e-17
-2.75415e-17
-2.765e-17
-2.76551e-17
-2.75923e-17
-2.77503e-17
-2.77237e-17
-2.7835e-17
-2.76971e-17
-2.77229e-17
-2.77847e-17
-2.77998e-17
-2.79383e-17
-2.75554e-17
-2.75775e-17
-2.75578e-17
-2.75018e-17
-2.75176e-17
-2.74605e-17
-2.76628e-17
-2.76453e-17
-2.75846e-17
-2.75723e-17
-2.7544e-17
-2.761e-17
-2.77237e-17
-2.74929e-17
-2.76523e-17
-2.74941e-17
-2.76415e-17
-2.73831e-17
-2.77389e-17
-2.74618e-17
-2.77211e-17
-2.75909e-17
-2.75789e-17
-2.76367e-17
-2.77333e-17
-2.77865e-17
-2.78169e-17
-2.76125e-17
-2.78476e-17
-2.79033e-17
-2.78093e-17
-2.76038e-17
-2.76056e-17
-2.73814e-17
-2.75423e-17
-2.75503e-17
-2.7423e-17
-2.75574e-17
-2.75973e-17
-2.74931e-17
-2.7591e-17
-2.76703e-17
-2.75099e-17
-2.76732e-17
-2.74765e-17
-2.74439e-17
-2.74195e-17
-2.75432e-17
-2.75652e-17
-2.76883e-17
-2.73759e-17
-2.76991e-17
-2.75414e-17
-2.76263e-17
-2.76646e-17
-2.76907e-17
-2.79471e-17
-2.77889e-17
-2.75718e-17
-2.77637e-17
-2.78683e-17
-2.77698e-17
-2.75653e-17
-2.75527e-17
-2.75947e-17
-2.75185e-17
-2.74008e-17
-2.75243e-17
-2.76817e-17
-2.75505e-17
-2.75211e-17
-2.75688e-17
-2.77763e-17
-2.76823e-17
-2.7545e-17
-2.74399e-17
-2.74639e-17
-2.73332e-17
-2.74439e-17
-2.74725e-17
-2.76512e-17
-2.74213e-17
-2.76782e-17
-2.74681e-17
-2.77986e-17
-2.7624e-17
-2.76248e-17
-2.78764e-17
-2.7812e-17
-2.76435e-17
-2.78418e-17
-2.78971e-17
-2.76966e-17
-2.72993e-17
-2.77959e-17
-2.74506e-17
-2.7363e-17
-2.76136e-17
-2.76375e-17
-2.75776e-17
-2.75195e-17
-2.76055e-17
-2.76771e-17
-2.75777e-17
-2.75571e-17
-2.74975e-17
-2.75033e-17
-2.73256e-17
-2.74506e-17
-2.7362e-17
-2.77255e-17
-2.74317e-17
-2.77113e-17
-2.74877e-17
-2.77803e-17
-2.75364e-17
-2.76978e-17
-2.77397e-17
-2.78728e-17
-2.77719e-17
-2.76839e-17
-2.77865e-17
-2.75511e-17
-2.72856e-17
-2.75787e-17
-2.73804e-17
-2.72189e-17
-2.75553e-17
-2.75665e-17
-2.76162e-17
-2.74507e-17
-2.75482e-17
-2.76194e-17
-2.7511e-17
-2.74936e-17
-2.73973e-17
-2.74524e-17
-2.73899e-17
-2.755e-17
-2.74249e-17
-2.77396e-17
-2.73729e-17
-2.7777e-17
-2.74398e-17
-2.7804e-17
-2.7592e-17
-2.77213e-17
-2.77011e-17
-2.7791e-17
-2.75827e-17
-2.76261e-17
-2.7655e-17
-2.7407e-17
-2.75121e-17
-2.74043e-17
-2.74528e-17
-2.73451e-17
-2.75278e-17
-2.74511e-17
-2.74905e-17
-2.74219e-17
-2.7591e-17
-2.75211e-17
-2.75465e-17
-2.7614e-17
-2.73627e-17
-2.74567e-17
-2.74746e-17
-2.75382e-17
-2.74752e-17
-2.78178e-17
-2.74379e-17
-2.77046e-17
-2.74867e-17
-2.77796e-17
-2.76135e-17
-2.77627e-17
-2.76912e-17
-2.77551e-17
-2.76558e-17
-2.77288e-17
-2.76269e-17
-2.73897e-17
-2.74548e-17
-2.73763e-17
-2.74366e-17
-2.75074e-17
-2.75108e-17
-2.73855e-17
-2.75341e-17
-2.73589e-17
-2.77097e-17
-2.73603e-17
-2.74821e-17
-2.77315e-17
-2.74135e-17
-2.74033e-17
-2.7349e-17
-2.74583e-17
-2.74781e-17
-2.77064e-17
-2.74704e-17
-2.76959e-17
-2.74451e-17
-2.77857e-17
-2.76285e-17
-2.78482e-17
-2.76826e-17
-2.77758e-17
-2.77201e-17
-2.7841e-17
-2.76364e-17
-2.72938e-17
-2.7459e-17
-2.75128e-17
-2.74482e-17
-2.74079e-17
-2.74224e-17
-2.73994e-17
-2.75324e-17
-2.74589e-17
-2.77379e-17
-2.75315e-17
-2.73887e-17
-2.74462e-17
-2.75309e-17
-2.73525e-17
-2.73566e-17
-2.75859e-17
-2.74915e-17
-2.77041e-17
-2.74972e-17
-2.77108e-17
-2.75508e-17
-2.77559e-17
-2.76232e-17
-2.78315e-17
-2.76648e-17
-2.78014e-17
-2.77165e-17
-2.7753e-17
-2.77676e-17
-2.75584e-17
-2.74522e-17
-2.75491e-17
-2.73418e-17
-2.74794e-17
-2.7359e-17
-2.73796e-17
-2.76064e-17
-2.74053e-17
-2.75736e-17
-2.75536e-17
-2.75635e-17
-2.7518e-17
-2.75064e-17
-2.74161e-17
-2.73923e-17
-2.75818e-17
-2.74644e-17
-2.77048e-17
-2.74672e-17
-2.77684e-17
-2.76481e-17
-2.78036e-17
-2.76414e-17
-2.77281e-17
-2.76305e-17
-2.76222e-17
-2.77263e-17
-2.76729e-17
-2.78487e-17
-2.74379e-17
-2.75393e-17
-2.73866e-17
-2.73348e-17
-2.76125e-17
-2.75543e-17
-2.74627e-17
-2.75967e-17
-2.74156e-17
-2.75514e-17
-2.76365e-17
-2.77238e-17
-2.77909e-17
-2.74903e-17
-2.74105e-17
-2.73719e-17
-2.76377e-17
-2.74242e-17
-2.75943e-17
-2.73815e-17
-2.77692e-17
-2.75991e-17
-2.77972e-17
-2.76869e-17
-2.76956e-17
-2.75689e-17
-2.75802e-17
-2.77476e-17
-2.75836e-17
-2.77968e-17
-2.74634e-17
-2.74626e-17
-2.75004e-17
-2.753e-17
-2.75893e-17
-2.75011e-17
-2.75216e-17
-2.75473e-17
-2.7344e-17
-2.75443e-17
-2.75718e-17
-2.77161e-17
-2.7779e-17
-2.74386e-17
-2.75451e-17
-2.75268e-17
-2.76607e-17
-2.75699e-17
-2.77477e-17
-2.736e-17
-2.77953e-17
-2.75606e-17
-2.76637e-17
-2.75684e-17
-2.77224e-17
-2.75932e-17
-2.76741e-17
-2.77937e-17
-2.76466e-17
-2.79185e-17
-2.75141e-17
-2.75281e-17
-2.75411e-17
-2.75418e-17
-2.75982e-17
-2.75569e-17
-2.75748e-17
-2.75354e-17
-2.74581e-17
-2.7536e-17
-2.74913e-17
-2.75177e-17
-2.75486e-17
-2.75138e-17
-2.75834e-17
-2.76651e-17
-2.76786e-17
-2.75573e-17
-2.77656e-17
-2.74731e-17
-2.77577e-17
-2.75485e-17
-2.75344e-17
-2.76528e-17
-2.77802e-17
-2.75856e-17
-2.77333e-17
-2.77719e-17
-2.768e-17
-2.78262e-17
-2.75242e-17
-2.75287e-17
-2.75215e-17
-2.75438e-17
-2.75059e-17
-2.75313e-17
-2.75442e-17
-2.75933e-17
-2.75822e-17
-2.75109e-17
-2.73965e-17
-2.75515e-17
-2.75096e-17
-2.75274e-17
-2.77051e-17
-2.76215e-17
-2.76868e-17
-2.75415e-17
-2.7671e-17
-2.74883e-17
-2.76626e-17
-2.75791e-17
-2.7605e-17
-2.75589e-17
-2.7683e-17
-2.77003e-17
-2.78065e-17
-2.78163e-17
-2.76583e-17
-2.78671e-17
-2.75182e-17
-2.75114e-17
-2.75177e-17
-2.75259e-17
-2.75097e-17
-2.75244e-17
-2.75092e-17
-2.75156e-17
-2.75729e-17
-2.75025e-17
-2.74607e-17
-2.75478e-17
-2.75834e-17
-2.75803e-17
-2.76595e-17
-2.76357e-17
-2.76869e-17
-2.74924e-17
-2.76166e-17
-2.74654e-17
-2.76045e-17
-2.76132e-17
-2.76001e-17
-2.76502e-17
-2.76592e-17
-2.7559e-17
-2.77208e-17
-2.77952e-17
-2.77033e-17
-2.78561e-17
-2.75128e-17
-2.75126e-17
-2.75063e-17
-2.75089e-17
-2.75163e-17
-2.75241e-17
-2.74885e-17
-2.75194e-17
-2.75596e-17
-2.75608e-17
-2.74938e-17
-2.75346e-17
-2.75283e-17
-2.75249e-17
-2.75293e-17
-2.75736e-17
-2.7627e-17
-2.74455e-17
-2.76066e-17
-2.75953e-17
-2.75761e-17
-2.76615e-17
-2.75388e-17
-2.75516e-17
-2.7747e-17
-2.7633e-17
-2.76411e-17
-2.77009e-17
-2.77361e-17
-2.77181e-17
-2.75125e-17
-2.75103e-17
-2.75109e-17
-2.75205e-17
-2.75168e-17
-2.75111e-17
-2.75081e-17
-2.75237e-17
-2.75337e-17
-2.75468e-17
-2.75174e-17
-2.75318e-17
-2.75401e-17
-2.75628e-17
-2.75959e-17
-2.75556e-17
-2.76289e-17
-2.7545e-17
-2.75579e-17
-2.75448e-17
-2.75451e-17
-2.76046e-17
-2.7581e-17
-2.76077e-17
-2.7759e-17
-2.76943e-17
-2.7572e-17
-2.76641e-17
-2.76116e-17
-2.76188e-17
-2.75088e-17
-2.75176e-17
-2.7511e-17
-2.75184e-17
-2.7521e-17
-2.75144e-17
-2.75182e-17
-2.75239e-17
-2.7528e-17
-2.75341e-17
-2.75366e-17
-2.75505e-17
-2.75311e-17
-2.75659e-17
-2.75751e-17
-2.75565e-17
-2.75551e-17
-2.75652e-17
-2.76085e-17
-2.7562e-17
-2.75657e-17
-2.75616e-17
-2.7581e-17
-2.76339e-17
-2.76745e-17
-2.76396e-17
-2.75983e-17
-2.76827e-17
-2.76411e-17
-2.76396e-17
-2.75052e-17
-2.75149e-17
-2.751e-17
-2.75161e-17
-2.75176e-17
-2.7514e-17
-2.7531e-17
-2.75236e-17
-2.75295e-17
-2.7526e-17
-2.75354e-17
-2.75526e-17
-2.75396e-17
-2.75523e-17
-2.75594e-17
-2.75598e-17
-2.75469e-17
-2.75639e-17
-2.76095e-17
-2.75749e-17
-2.75778e-17
-2.75992e-17
-2.76048e-17
-2.75992e-17
-2.76264e-17
-2.76153e-17
-2.76322e-17
-2.76631e-17
-2.76476e-17
-2.7641e-17
-2.75099e-17
-2.7515e-17
-2.75119e-17
-2.75153e-17
-2.75195e-17
-2.75226e-17
-2.7532e-17
-2.75227e-17
-2.7537e-17
-2.75269e-17
-2.75343e-17
-2.75378e-17
-2.75406e-17
-2.75488e-17
-2.7551e-17
-2.75564e-17
-2.75657e-17
-2.75614e-17
-2.75838e-17
-2.75786e-17
-2.75946e-17
-2.75976e-17
-2.761e-17
-2.76051e-17
-2.76202e-17
-2.76314e-17
-2.76372e-17
-2.76456e-17
-2.76458e-17
-2.76534e-17
-2.751e-17
-2.75148e-17
-2.75133e-17
-2.75144e-17
-2.75256e-17
-2.75194e-17
-2.75291e-17
-2.75201e-17
-2.75333e-17
-2.75281e-17
-2.754e-17
-2.75354e-17
-2.75443e-17
-2.75458e-17
-2.75459e-17
-2.75498e-17
-2.75664e-17
-2.75645e-17
-2.75773e-17
-2.75809e-17
-2.75899e-17
-2.75932e-17
-2.76108e-17
-2.76087e-17
-2.76212e-17
-2.7628e-17
-2.76354e-17
-2.76439e-17
-2.76454e-17
-2.76573e-17
-2.75091e-17
-2.75137e-17
-2.75149e-17
-2.75152e-17
-2.75238e-17
-2.7519e-17
-2.75267e-17
-2.75183e-17
-2.75325e-17
-2.753e-17
-2.75367e-17
-2.75356e-17
-2.75471e-17
-2.75426e-17
-2.75476e-17
-2.75535e-17
-2.75658e-17
-2.75692e-17
-2.75794e-17
-2.7578e-17
-2.75858e-17
-2.75939e-17
-2.76057e-17
-2.76088e-17
-2.76213e-17
-2.76245e-17
-2.76347e-17
-2.76395e-17
-2.7643e-17
-2.76516e-17
-2.75106e-17
-2.7512e-17
-2.75158e-17
-2.75147e-17
-2.75215e-17
-2.7518e-17
-2.75268e-17
-2.75227e-17
-2.75309e-17
-2.75291e-17
-2.75382e-17
-2.75344e-17
-2.75429e-17
-2.75429e-17
-2.75532e-17
-2.7558e-17
-2.75666e-17
-2.7567e-17
-2.75764e-17
-2.75779e-17
-2.75861e-17
-2.75957e-17
-2.7602e-17
-2.76087e-17
-2.76212e-17
-2.76228e-17
-2.76354e-17
-2.76376e-17
-2.76452e-17
-2.76489e-17
-2.75103e-17
-2.75133e-17
-2.75168e-17
-2.75155e-17
-2.75208e-17
-2.75178e-17
-2.7528e-17
-2.7525e-17
-2.75292e-17
-2.75258e-17
-2.75366e-17
-2.75344e-17
-2.75434e-17
-2.75482e-17
-2.75519e-17
-2.75581e-17
-2.75671e-17
-2.75644e-17
-2.75768e-17
-2.75796e-17
-2.75875e-17
-2.7594e-17
-2.7602e-17
-2.76089e-17
-2.76221e-17
-2.76253e-17
-2.76336e-17
-2.7636e-17
-2.76435e-17
-2.76471e-17
-2.751e-17
-2.75129e-17
-2.75161e-17
-2.75162e-17
-2.75214e-17
-2.75198e-17
-2.75251e-17
-2.7525e-17
-2.75299e-17
-2.75283e-17
-2.75353e-17
-2.7536e-17
-2.75443e-17
-2.75469e-17
-2.75528e-17
-2.75563e-17
-2.75664e-17
-2.75633e-17
-2.758e-17
-2.75782e-17
-2.75863e-17
-2.75926e-17
-2.76035e-17
-2.76093e-17
-2.76213e-17
-2.76239e-17
-2.76331e-17
-2.76366e-17
-2.76416e-17
-2.76446e-17
-2.75158e-17
-2.75145e-17
-2.75245e-17
-2.752e-17
-2.75272e-17
-2.75266e-17
-2.75327e-17
-2.75313e-17
-2.75342e-17
-2.75364e-17
-2.75453e-17
-2.75462e-17
-2.75874e-17
-2.75906e-17
-2.76037e-17
-2.76063e-17
-2.76189e-17
-2.76219e-17
-2.76308e-17
-2.7636e-17
-2.76405e-17
-2.76451e-17
-2.75689e-17
-2.75868e-17
-2.75835e-17
-2.75923e-17
-2.7701e-17
-2.75761e-17
-2.76436e-17
-2.77335e-17
-2.74581e-17
-2.77076e-17
-2.74409e-17
-2.7557e-17
-2.75181e-17
-2.76661e-17
-2.74441e-17
-2.74913e-17
-2.76329e-17
-2.77476e-17
-2.758e-17
-2.75553e-17
-2.76967e-17
-2.75878e-17
-2.75445e-17
-2.76523e-17
-2.74647e-17
-2.76578e-17
-2.7555e-17
-2.77297e-17
-2.7675e-17
-2.76606e-17
-2.78467e-17
-2.75894e-17
-2.76322e-17
-2.75414e-17
-2.76239e-17
-2.77718e-17
-2.79473e-17
-2.75519e-17
-2.753e-17
-2.77038e-17
-2.78987e-17
-2.74523e-17
-2.76672e-17
-2.79107e-17
-2.75186e-17
-2.77227e-17
-2.76182e-17
-2.74486e-17
-2.76749e-17
-2.77589e-17
-2.76362e-17
-2.74787e-17
-2.74294e-17
-2.77057e-17
-2.77607e-17
-2.75706e-17
-2.74571e-17
-2.7442e-17
-2.7897e-17
-2.76632e-17
-2.75343e-17
-2.7661e-17
-2.77543e-17
-2.75513e-17
-2.76547e-17
-2.7689e-17
-2.76852e-17
-2.74702e-17
-2.74699e-17
-2.74774e-17
-2.76395e-17
-2.75362e-17
-2.7538e-17
-2.75774e-17
-2.7574e-17
-2.76307e-17
-2.75239e-17
-2.76013e-17
-2.77598e-17
-2.76487e-17
-2.74857e-17
-2.76017e-17
-2.74864e-17
-2.7625e-17
-2.7687e-17
-2.75567e-17
-2.79435e-17
-2.74757e-17
-2.76369e-17
-2.75749e-17
-2.76844e-17
-2.74667e-17
-2.76966e-17
-2.78217e-17
-2.76624e-17
-2.75964e-17
-2.78031e-17
-2.77723e-17
-2.74243e-17
-2.74686e-17
-2.76906e-17
-2.75879e-17
-2.76858e-17
-2.76843e-17
-2.76435e-17
-2.75741e-17
-2.7636e-17
-2.79111e-17
-2.76403e-17
-2.76021e-17
-2.75434e-17
-2.72682e-17
-2.77252e-17
-2.76624e-17
-2.75307e-17
-2.75827e-17
-2.76859e-17
-2.77411e-17
-2.7529e-17
-2.77572e-17
-2.79422e-17
-2.78835e-17
-2.7667e-17
-2.76636e-17
-2.77431e-17
-2.80387e-17
-2.75812e-17
-2.74884e-17
-2.77298e-17
-2.77383e-17
-2.77239e-17
-2.763e-17
-2.79614e-17
-2.77051e-17
-2.76454e-17
-2.75077e-17
-2.76508e-17
-2.77488e-17
-2.74929e-17
-2.7511e-17
-2.75055e-17
-2.74607e-17
-2.76982e-17
-2.76723e-17
-2.79673e-17
-2.76307e-17
-2.77025e-17
-2.77655e-17
-2.77171e-17
-2.76316e-17
-2.746e-17
-2.74975e-17
-2.77031e-17
-2.76213e-17
-2.75878e-17
-2.74729e-17
-2.76339e-17
-2.7537e-17
-2.76861e-17
-2.7913e-17
-2.81603e-17
-2.81324e-17
-2.7777e-17
-2.77722e-17
-2.78664e-17
-2.77983e-17
-2.76387e-17
-2.77802e-17
-2.76012e-17
-2.7696e-17
-2.76912e-17
-2.76469e-17
-2.7579e-17
-2.78351e-17
-2.76698e-17
-2.75964e-17
-2.75788e-17
-2.758e-17
-2.77477e-17
-2.74459e-17
-2.75387e-17
-2.73416e-17
-2.75641e-17
-2.79059e-17
-2.77322e-17
-2.79912e-17
-2.76334e-17
-2.77405e-17
-2.7814e-17
-2.76355e-17
-2.77226e-17
-2.74152e-17
-2.75599e-17
-2.74603e-17
-2.75753e-17
-2.76436e-17
-2.74297e-17
-2.7686e-17
-2.75907e-17
-2.78338e-17
-2.77899e-17
-2.79366e-17
-2.79815e-17
-2.7917e-17
-2.79027e-17
-2.7748e-17
-2.7604e-17
-2.76308e-17
-2.78086e-17
-2.792e-17
-2.75276e-17
-2.76462e-17
-2.77471e-17
-2.76181e-17
-2.74911e-17
-2.79561e-17
-2.76651e-17
-2.74632e-17
-2.76415e-17
-2.74501e-17
-2.77493e-17
-2.7561e-17
-2.76444e-17
-2.7931e-17
-2.76222e-17
-2.77971e-17
-2.79079e-17
-2.77129e-17
-2.75144e-17
-2.78155e-17
-2.72429e-17
-2.75469e-17
-2.7653e-17
-2.7516e-17
-2.76214e-17
-2.75093e-17
-2.74728e-17
-2.77295e-17
-2.76496e-17
-2.77693e-17
-2.74533e-17
-2.77795e-17
-2.77424e-17
-2.75902e-17
-2.77555e-17
-2.7774e-17
-2.79424e-17
-2.76875e-17
-2.7481e-17
-2.76514e-17
-2.78521e-17
-2.74887e-17
-2.7815e-17
-2.75222e-17
-2.76685e-17
-2.75595e-17
-2.76135e-17
-2.75756e-17
-2.76822e-17
-2.76558e-17
-2.7474e-17