/*--------------------------------*- C++ -*----------------------------------*\
  =========                 |
  \\      /  F ield         | OpenFOAM: The Open Source CFD Toolbox
   \\    /   O peration     | Website:  https://openfoam.org
    \\  /    A nd           | Version:  7
     \\/     M anipulation  |
\*---------------------------------------------------------------------------*/
FoamFile
{
    version     2.0;
    format      ascii;
    class       volVectorField;
    location    "4000";
    object      U;
}
// * * * * * * * * * * * * * * * * * * * * * * * * * * * * * * * * * * * * * //

dimensions      [0 1 -1 0 0 0 0];

internalField   nonuniform List<vector> 
4825
(
(-2.07916e-18 -3.26255e-19 -0.0126741)
(-1.3552e-18 -1.09248e-18 -0.0126977)
(-2.18853e-18 -2.32004e-19 -0.0126171)
(-1.4871e-18 -9.58045e-19 -0.0126407)
(-2.26985e-18 -4.21237e-19 -0.0126635)
(-1.37695e-18 -2.0003e-19 -0.0126857)
(-1.34255e-18 -5.71107e-19 -0.0127072)
(-2.32695e-18 -4.49966e-20 -0.0125596)
(-1.6873e-18 -8.02707e-19 -0.0125832)
(-2.09006e-18 -6.71501e-19 -0.0126061)
(-1.43472e-18 -2.34812e-19 -0.0126284)
(-1.11483e-18 -8.83881e-19 -0.01265)
(-2.27643e-18 -1.43119e-20 -0.0125016)
(-1.82737e-18 -7.66085e-19 -0.0125253)
(-2.16062e-18 -6.22634e-19 -0.0125482)
(-1.68024e-18 2.67124e-21 -0.0125706)
(-1.08329e-18 -9.09931e-19 -0.0125922)
(-2.10805e-18 -1.46072e-19 -0.0124431)
(-1.69361e-18 -9.9532e-19 -0.0124669)
(-2.2358e-18 -5.01902e-19 -0.0124899)
(-1.77573e-18 -1.03059e-20 -0.0125122)
(-1.11425e-18 -9.35268e-19 -0.0125339)
(-1.78781e-18 -5.37775e-19 -0.0123841)
(-1.45176e-18 -1.35432e-18 -0.0124079)
(-2.21067e-18 -5.11348e-19 -0.012431)
(-1.60499e-18 -3.7374e-19 -0.0124534)
(-1.06548e-18 -1.0321e-18 -0.0124752)
(-1.4824e-18 -9.49801e-19 -0.0123245)
(-1.2226e-18 -1.61371e-18 -0.0123484)
(-2.14384e-18 -5.64168e-19 -0.0123715)
(-1.39475e-18 -8.22621e-19 -0.012394)
(-9.15889e-19 -1.21337e-18 -0.0124158)
(-1.53804e-18 -9.71998e-19 -0.0122644)
(-1.16931e-18 -1.66947e-18 -0.0122884)
(-2.08905e-18 -6.36944e-19 -0.0123116)
(-1.31183e-18 -1.0993e-18 -0.0123341)
(-8.66289e-19 -1.18983e-18 -0.012356)
(-1.71438e-18 -8.01567e-19 -0.0122037)
(-1.40595e-18 -1.3908e-18 -0.0122278)
(-2.08257e-18 -6.48602e-19 -0.012251)
(-1.51602e-18 -9.73179e-19 -0.0122737)
(-9.11626e-19 -1.08885e-18 -0.0122956)
(-1.7245e-18 -7.50743e-19 -0.0121425)
(-1.87059e-18 -8.73358e-19 -0.0121666)
(-2.06952e-18 -6.92978e-19 -0.0121899)
(-1.81754e-18 -7.09296e-19 -0.0122126)
(-9.0011e-19 -1.03201e-18 -0.0122346)
(-1.41979e-18 -9.90792e-19 -0.0120806)
(-2.27217e-18 -4.1595e-19 -0.0121048)
(-2.15734e-18 -6.40776e-19 -0.0121282)
(-2.09164e-18 -4.78838e-19 -0.012151)
(-9.35385e-19 -9.28201e-19 -0.012173)
(-1.10415e-18 -1.25256e-18 -0.0120182)
(-2.32028e-18 -3.16534e-19 -0.0120425)
(-2.22129e-18 -6.3612e-19 -0.0120659)
(-2.23348e-18 -4.35068e-19 -0.0120887)
(-9.53173e-19 -8.48074e-19 -0.0121108)
(-9.92558e-19 -1.30949e-18 -0.0119551)
(-2.1087e-18 -5.13901e-19 -0.0119794)
(-2.11055e-18 -8.36847e-19 -0.012003)
(-2.29972e-18 -4.8572e-19 -0.0120258)
(-9.34819e-19 -8.16986e-19 -0.012048)
(-9.50742e-19 -1.32832e-18 -0.0118914)
(-1.84943e-18 -7.96718e-19 -0.0119158)
(-1.88322e-18 -1.15582e-18 -0.0119394)
(-2.36728e-18 -5.03429e-19 -0.0119623)
(-8.85349e-19 -1.40914e-18 -0.011827)
(-1.74776e-18 -9.1993e-19 -0.0118515)
(-1.70708e-18 -1.37155e-18 -0.0118751)
(-2.43564e-18 -4.77508e-19 -0.0118981)
(-8.64105e-19 -1.43461e-18 -0.0117619)
(-1.89e-18 -7.55405e-19 -0.0117864)
(-1.67044e-18 -1.41172e-18 -0.0118102)
(-2.57965e-18 -3.24008e-19 -0.0118333)
(-9.12696e-19 -1.34949e-18 -0.0116961)
(-2.07901e-18 -5.38209e-19 -0.0117207)
(-1.7065e-18 -1.35952e-18 -0.0117445)
(-9.09461e-19 -1.33995e-18 -0.0116295)
(-2.15158e-18 -4.59974e-19 -0.0116542)
(-1.60122e-18 -1.49253e-18 -0.0116781)
(-9.9147e-19 -1.25709e-18 -0.0115622)
(-2.17678e-18 -4.61212e-19 -0.011587)
(-1.08949e-18 -1.13707e-18 -0.0114941)
(-2.25513e-18 -4.4945e-19 -0.011519)
(-1.05104e-18 -1.13074e-18 -0.0114252)
(-2.26682e-18 -5.06214e-19 -0.0114502)
(-1.05685e-18 -1.08453e-18 -0.0113555)
(-2.19219e-18 -6.61002e-19 -0.0113805)
(-1.26431e-18 -8.324e-19 -0.0112849)
(-2.12373e-18 -8.35141e-19 -0.01131)
(-1.4975e-18 -5.5987e-19 -0.0112133)
(-2.37466e-19 -2.71519e-19 -0.0134786)
(-2.65341e-19 3.72443e-19 -0.0135013)
(-3.0969e-20 6.77574e-20 -0.0135232)
(-1.01855e-18 2.8551e-19 -0.0135445)
(-1.18329e-18 1.27116e-19 -0.0135652)
(-2.85878e-19 5.34898e-19 -0.0135851)
(-8.59539e-19 6.09069e-19 -0.0136043)
(-1.35614e-19 5.58325e-19 -0.0136227)
(-1.22214e-18 1.52827e-19 -0.0136403)
(-5.09485e-20 7.22035e-19 -0.013657)
(-5.39378e-19 8.37497e-19 -0.0136728)
(-8.05381e-19 7.32982e-19 -0.0136877)
(-6.61841e-19 2.9921e-20 -0.0137017)
(-9.2297e-19 3.79279e-19 -0.0137146)
(-1.51677e-18 3.57705e-19 -0.0137266)
(-1.49042e-18 1.12744e-18 -0.0137375)
(-1.52245e-18 1.10409e-18 -0.0137474)
(-6.28857e-19 1.06824e-18 -0.0137563)
(-2.29008e-19 6.63133e-19 -0.013764)
(-1.72328e-19 3.33689e-19 -0.0137707)
(-2.55431e-19 -2.82677e-19 -0.0134277)
(-4.18019e-19 2.17843e-19 -0.0134504)
(-8.41367e-20 9.6605e-20 -0.0134724)
(-1.19178e-18 2.29524e-19 -0.0134938)
(-7.42872e-19 3.14274e-19 -0.0135145)
(-2.14211e-19 5.57905e-19 -0.0135345)
(-8.83058e-19 6.02237e-19 -0.0135537)
(-2.88115e-19 5.38673e-19 -0.0135722)
(-1.28116e-18 1.2183e-19 -0.0135898)
(-4.75078e-20 6.37656e-19 -0.0136066)
(-5.48997e-19 8.91059e-19 -0.0136224)
(-5.06536e-19 8.81368e-19 -0.0136374)
(-2.38346e-19 2.24837e-19 -0.0136513)
(-1.06864e-18 4.26804e-19 -0.0136643)
(-1.68375e-18 3.67218e-19 -0.0136763)
(-1.87301e-18 1.00871e-18 -0.0136873)
(-1.2611e-18 1.1015e-18 -0.0136972)
(-7.42932e-19 9.96314e-19 -0.0137061)
(-4.42848e-19 6.20151e-19 -0.0137139)
(-4.96229e-19 2.43362e-19 -0.0137206)
(-3.43656e-19 -2.60947e-19 -0.0133764)
(-6.51139e-19 -3.60008e-20 -0.0133992)
(-3.23379e-22 1.81295e-19 -0.0134212)
(-1.06187e-18 3.40473e-19 -0.0134426)
(-4.55223e-19 3.93242e-19 -0.0134634)
(-1.3839e-19 6.08115e-19 -0.0134834)
(-6.75253e-19 7.50036e-19 -0.0135027)
(-4.17363e-19 5.43571e-19 -0.0135212)
(-1.36661e-18 6.07126e-20 -0.0135389)
(2.41017e-20 5.91377e-19 -0.0135557)
(-5.56748e-19 9.17988e-19 -0.0135716)
(-3.777e-19 9.21336e-19 -0.0135866)
(-1.00518e-19 3.55335e-19 -0.0136006)
(-1.17028e-18 5.30726e-19 -0.0136137)
(-1.61231e-18 4.51027e-19 -0.0136257)
(-1.73499e-18 1.00592e-18 -0.0136367)
(-1.03858e-18 1.08032e-18 -0.0136466)
(-6.52271e-19 9.85703e-19 -0.0136555)
(-3.09932e-19 6.64087e-19 -0.0136633)
(-5.45795e-19 1.87467e-19 -0.01367)
(-2.39346e-19 -7.98305e-20 -0.0133247)
(-6.38253e-19 -1.00675e-19 -0.0133476)
(2.47434e-19 3.23133e-19 -0.0133697)
(-8.07406e-19 5.47623e-19 -0.0133911)
(-1.9987e-19 4.74707e-19 -0.0134119)
(-1.03767e-20 6.71127e-19 -0.013432)
(-4.35875e-19 9.33857e-19 -0.0134514)
(-3.17454e-19 7.34559e-19 -0.01347)
(-1.42406e-18 4.23056e-21 -0.0134877)
(1.56576e-20 4.79948e-19 -0.0135045)
(-6.57603e-19 9.14898e-19 -0.0135205)
(-4.1901e-19 9.00464e-19 -0.0135355)
(-3.26357e-19 3.4521e-19 -0.0135495)
(-1.09694e-18 6.68416e-19 -0.0135626)
(-1.32442e-18 5.65723e-19 -0.0135747)
(-1.35054e-18 1.07564e-18 -0.0135857)
(-7.81413e-19 1.08243e-18 -0.0135957)
(-5.184e-19 9.80135e-19 -0.0136046)
(-2.58358e-19 6.98049e-19 -0.0136124)
(-4.18056e-19 1.66728e-19 -0.0136192)
(-1.1511e-19 8.25754e-20 -0.0132727)
(-4.90888e-19 -7.61708e-20 -0.0132956)
(4.80732e-19 4.40933e-19 -0.0133178)
(-6.67791e-19 6.67187e-19 -0.0133393)
(-8.50098e-20 4.74736e-19 -0.0133601)
(1.24951e-19 7.46123e-19 -0.0133803)
(-3.66715e-19 9.91822e-19 -0.0133997)
(-6.93205e-20 1.02243e-18 -0.0134183)
(-1.29625e-18 9.6657e-20 -0.0134361)
(-6.72072e-21 3.90033e-19 -0.013453)
(-9.79748e-19 8.02127e-19 -0.013469)
(-4.34284e-19 9.02459e-19 -0.013484)
(-4.32391e-19 3.53656e-19 -0.0134981)
(-1.05617e-18 7.25317e-19 -0.0135112)
(-9.92381e-19 6.79089e-19 -0.0135233)
(-1.18741e-18 1.08721e-18 -0.0135344)
(-4.86369e-19 1.12135e-18 -0.0135444)
(-5.221e-19 9.8129e-19 -0.0135533)
(-3.11125e-19 7.09583e-19 -0.0135611)
(-5.37228e-19 9.17485e-20 -0.0135679)
(-4.89651e-20 1.67978e-19 -0.0132203)
(-5.46678e-19 -2.10033e-19 -0.0132433)
(4.82927e-19 3.82795e-19 -0.0132655)
(-6.92547e-19 7.07034e-19 -0.013287)
(-2.15767e-19 3.06057e-19 -0.013308)
(1.5782e-19 7.46596e-19 -0.0133282)
(-6.80061e-19 8.14567e-19 -0.0133476)
(-1.50839e-19 1.10595e-18 -0.0133663)
(-1.13426e-18 2.27843e-19 -0.0133841)
(6.33204e-20 4.05807e-19 -0.013401)
(-1.28962e-18 6.9866e-19 -0.0134171)
(-5.08998e-19 8.23235e-19 -0.0134322)
(-4.41802e-19 4.08973e-19 -0.0134463)
(-9.66349e-19 7.87919e-19 -0.0134594)
(-9.22826e-19 7.07489e-19 -0.0134715)
(-1.12988e-18 1.07349e-18 -0.0134826)
(-1.95249e-19 1.15715e-18 -0.0134927)
(-6.79598e-19 9.71839e-19 -0.0135016)
(-5.32027e-19 7.15155e-19 -0.0135095)
(-6.6209e-19 7.01933e-21 -0.0135163)
(-3.35021e-20 2.27408e-19 -0.0131675)
(-6.54227e-19 -3.60827e-19 -0.0131906)
(3.69877e-19 2.09938e-19 -0.0132128)
(-7.48256e-19 7.21175e-19 -0.0132344)
(-3.11758e-19 1.60786e-19 -0.0132554)
(4.44852e-20 6.91237e-19 -0.0132757)
(-1.32802e-18 4.66619e-19 -0.0132952)
(-4.26961e-19 1.00646e-18 -0.0133139)
(-1.05416e-18 2.76681e-19 -0.0133317)
(2.79557e-19 5.23773e-19 -0.0133487)
(-1.56659e-18 6.35504e-19 -0.0133648)
(-5.55482e-19 7.51496e-19 -0.0133799)
(-5.91639e-19 3.63481e-19 -0.0133941)
(-9.94262e-19 8.10191e-19 -0.0134073)
(-9.69896e-19 7.1149e-19 -0.0134194)
(-9.50672e-19 1.05071e-18 -0.0134305)
(1.54169e-19 1.24192e-18 -0.0134406)
(-7.15033e-19 1.05098e-18 -0.0134496)
(-5.08028e-19 7.391e-19 -0.0134575)
(-5.62516e-19 -5.8108e-20 -0.0134642)
(-1.08916e-19 1.96221e-19 -0.0131144)
(-4.66464e-19 -2.50279e-19 -0.0131375)
(3.18039e-19 8.0018e-20 -0.0131598)
(-5.66941e-19 9.00818e-19 -0.0131814)
(-4.12383e-19 2.66007e-20 -0.0132025)
(-3.44355e-19 5.31777e-19 -0.0132228)
(-1.93342e-18 1.51251e-19 -0.0132423)
(-3.82595e-19 1.00921e-18 -0.0132611)
(-1.24944e-18 1.28913e-19 -0.013279)
(4.48352e-19 6.51983e-19 -0.013296)
(-1.72573e-18 6.55254e-19 -0.0133121)
(-2.9544e-19 7.86493e-19 -0.0133273)
(-9.01708e-19 2.95175e-19 -0.0133415)
(-1.0587e-18 8.01289e-19 -0.0133547)
(-8.17282e-19 7.32611e-19 -0.0133669)
(-8.13538e-19 9.89181e-19 -0.013378)
(1.16579e-19 1.2263e-18 -0.0133881)
(-5.61606e-19 1.16457e-18 -0.0133971)
(-1.97419e-19 8.25937e-19 -0.013405)
(-6.41697e-19 -1.00124e-19 -0.0134118)
(-4.80355e-20 7.54074e-19 -0.0134175)
(-3.39457e-19 3.80242e-19 -0.0134221)
(-1.9956e-20 1.6595e-19 -0.0134255)
(2.44206e-19 1.0925e-18 -0.0134278)
(5.30965e-19 5.23213e-19 -0.0134289)
(1.72339e-19 -4.61309e-19 -0.0134289)
(-9.66347e-20 1.47619e-19 -0.0134278)
(1.3537e-19 -2.84668e-19 -0.0134255)
(2.46948e-19 1.44093e-19 -0.0134221)
(5.63797e-19 -5.42305e-19 -0.0134175)
(3.53447e-19 -2.98945e-19 -0.0134118)
(5.93346e-19 1.08049e-19 -0.013405)
(2.54059e-19 -6.84181e-19 -0.0133971)
(4.75364e-19 -6.65664e-20 -0.0133881)
(1.8009e-19 2.51541e-20 -0.013378)
(-2.35761e-19 1.08433e-19 -0.0130608)
(-1.14102e-19 -2.17904e-20 -0.013084)
(9.84883e-20 -1.85674e-19 -0.0131063)
(-3.89015e-19 1.08829e-18 -0.013128)
(-7.61587e-19 -1.67851e-19 -0.0131491)
(-7.44283e-19 3.91287e-19 -0.0131695)
(-1.87898e-18 1.37438e-19 -0.0131891)
(-2.4152e-19 1.0589e-18 -0.0132079)
(-1.24823e-18 1.06159e-19 -0.0132258)
(3.96467e-19 6.2591e-19 -0.0132429)
(-1.69112e-18 7.25091e-19 -0.0132591)
(4.66595e-20 9.01688e-19 -0.0132743)
(-1.24734e-18 2.2854e-19 -0.0132885)
(-8.28718e-19 8.3168e-19 -0.0133018)
(-4.89295e-19 8.20673e-19 -0.013314)
(-6.03768e-19 1.00597e-18 -0.0133252)
(-2.91352e-19 1.11279e-18 -0.0133353)
(-4.31526e-19 1.22208e-18 -0.0133443)
(1.3822e-19 9.50859e-19 -0.0133522)
(-7.66241e-19 -1.06742e-19 -0.013359)
(-1.4066e-19 7.0286e-19 -0.0133647)
(-1.23784e-19 4.21646e-19 -0.0133693)
(-1.95404e-19 1.16497e-19 -0.0133727)
(3.9059e-19 1.04107e-18 -0.013375)
(7.28611e-19 5.43835e-19 -0.0133762)
(2.09728e-19 -3.83172e-19 -0.0133762)
(-3.78218e-19 1.65999e-19 -0.013375)
(2.16201e-19 -3.43282e-19 -0.0133727)
(1.6558e-19 1.03252e-19 -0.0133693)
(2.92229e-19 -5.44097e-19 -0.0133647)
(3.13915e-19 -2.68819e-19 -0.013359)
(6.36914e-19 1.03839e-19 -0.0133522)
(3.39783e-19 -7.19036e-19 -0.0133442)
(4.14952e-19 -2.13461e-20 -0.0133352)
(2.57628e-19 5.07422e-20 -0.0133251)
(2.06124e-19 -3.22859e-19 -0.0133139)
(5.65499e-19 -8.75383e-19 -0.0133017)
(-3.72471e-19 -1.50967e-20 -0.0130068)
(1.10473e-19 1.56778e-19 -0.0130301)
(-4.01511e-19 -6.30871e-19 -0.0130525)
(-4.18093e-19 1.12857e-18 -0.0130743)
(-1.02543e-18 -2.91814e-19 -0.0130954)
(-5.25065e-19 5.38535e-19 -0.0131158)
(-1.49776e-18 3.03728e-19 -0.0131355)
(-2.76159e-19 1.02431e-18 -0.0131543)
(-8.64138e-19 2.90198e-19 -0.0131723)
(1.3588e-19 5.36647e-19 -0.0131894)
(-1.64848e-18 7.66075e-19 -0.0132056)
(2.30817e-19 9.73408e-19 -0.0132209)
(-1.50872e-18 1.99112e-19 -0.0132352)
(-6.17551e-19 8.0075e-19 -0.0132484)
(-3.21505e-19 8.497e-19 -0.0132607)
(-4.29292e-19 1.07908e-18 -0.0132719)
(-5.28545e-19 1.05817e-18 -0.013282)
(-5.94513e-19 1.14322e-18 -0.013291)
(3.40036e-19 1.06037e-18 -0.013299)
(-7.54598e-19 -6.41066e-20 -0.0133058)
(-2.23178e-20 6.74581e-19 -0.0133116)
(-3.27097e-20 4.60559e-19 -0.0133161)
(-1.21138e-19 9.05498e-20 -0.0133196)
(3.41899e-19 9.83464e-19 -0.0133219)
(6.70511e-19 5.68726e-19 -0.013323)
(2.64906e-19 -3.1516e-19 -0.013323)
(-2.63532e-19 1.4746e-19 -0.0133219)
(3.87672e-19 -4.06179e-19 -0.0133196)
(2.50828e-19 1.09154e-19 -0.0133161)
(3.68671e-20 -5.32085e-19 -0.0133115)
(2.11265e-19 -3.1334e-19 -0.0133058)
(8.45681e-19 5.47418e-20 -0.013299)
(4.40482e-19 -7.20746e-19 -0.013291)
(2.9632e-19 3.91167e-20 -0.013282)
(4.3907e-19 1.65684e-20 -0.0132718)
(3.24246e-19 -4.00678e-19 -0.0132606)
(5.99793e-19 -8.91179e-19 -0.0132484)
(3.11437e-19 -8.79064e-19 -0.0132351)
(-5.17787e-19 -1.54418e-19 -0.0129525)
(6.2159e-20 1.54117e-19 -0.0129757)
(-8.42608e-19 -1.01679e-18 -0.0129982)
(-6.04178e-19 9.8753e-19 -0.0130201)
(-7.84835e-19 -1.37165e-19 -0.0130412)
(-1.519e-19 7.61123e-19 -0.0130617)
(-1.28825e-18 4.32005e-19 -0.0130814)
(-5.64377e-19 8.35201e-19 -0.0131003)
(-7.03134e-19 3.86439e-19 -0.0131184)
(-7.17567e-20 4.97344e-19 -0.0131355)
(-1.35554e-18 8.73529e-19 -0.0131518)
(2.52502e-19 1.00823e-18 -0.0131671)
(-1.63468e-18 2.15948e-19 -0.0131814)
(-5.51476e-19 7.03625e-19 -0.0131947)
(-6.2064e-19 7.42819e-19 -0.0132069)
(-6.37184e-19 1.04615e-18 -0.0132182)
(-6.46645e-19 1.07443e-18 -0.0132283)
(-7.87971e-19 1.05644e-18 -0.0132374)
(2.74948e-19 1.07957e-18 -0.0132454)
(-7.10091e-19 -2.83234e-20 -0.0132522)
(3.44042e-20 6.3045e-19 -0.013258)
(-1.54083e-20 4.8938e-19 -0.0132626)
(1.13909e-20 8.64703e-20 -0.013266)
(3.19793e-19 9.45251e-19 -0.0132683)
(5.8386e-19 5.67458e-19 -0.0132695)
(4.63101e-19 -2.69454e-19 -0.0132695)
(-1.97803e-19 1.26673e-19 -0.0132683)
(6.04654e-19 -4.72569e-19 -0.013266)
(3.99872e-19 1.13753e-19 -0.0132625)
(2.5579e-19 -5.6947e-19 -0.0132579)
(2.20749e-19 -3.67541e-19 -0.0132522)
(6.32248e-19 6.8736e-20 -0.0132453)
(5.12955e-19 -6.9443e-19 -0.0132374)
(2.24035e-19 7.38906e-20 -0.0132283)
(7.30611e-19 -6.10453e-20 -0.0132181)
(4.61657e-19 -4.53163e-19 -0.0132069)
(5.41972e-19 -8.90086e-19 -0.0131946)
(3.28685e-19 -8.4847e-19 -0.0131813)
(1.72551e-19 -7.04349e-19 -0.013167)
(-3.31143e-19 2.02919e-19 -0.0131517)
(-6.01687e-19 -2.19967e-19 -0.0128977)
(-1.20992e-19 7.13952e-20 -0.012921)
(-8.97146e-19 -1.09059e-18 -0.0129435)
(-7.60534e-19 7.82023e-19 -0.0129654)
(-3.33357e-19 1.02142e-19 -0.0129867)
(-9.38139e-20 8.11761e-19 -0.0130072)
(-1.16726e-18 5.76441e-19 -0.013027)
(-1.07641e-18 5.47375e-19 -0.0130459)
(-6.74782e-19 3.62514e-19 -0.013064)
(-1.21476e-19 4.90156e-19 -0.0130812)
(-1.0125e-18 1.00879e-18 -0.0130975)
(1.00544e-19 1.01075e-18 -0.0131128)
(-1.50802e-18 3.32406e-19 -0.0131272)
(-8.32016e-19 5.33408e-19 -0.0131405)
(-8.55236e-19 6.84985e-19 -0.0131528)
(-8.60967e-19 9.76592e-19 -0.0131641)
(-7.54776e-19 1.05246e-18 -0.0131742)
(-5.95096e-19 1.04873e-18 -0.0131833)
(1.90829e-19 1.09536e-18 -0.0131913)
(-6.93816e-19 -3.84923e-21 -0.0131982)
(1.38139e-19 6.02456e-19 -0.0132039)
(-2.61988e-20 5.04245e-19 -0.0132085)
(6.7964e-20 6.43318e-20 -0.013212)
(3.91558e-19 9.24043e-19 -0.0132143)
(5.1608e-19 5.53659e-19 -0.0132155)
(5.15256e-19 -2.30347e-19 -0.0132155)
(-1.6054e-19 1.00937e-19 -0.0132143)
(8.01681e-19 -5.53842e-19 -0.013212)
(3.31137e-19 1.34944e-19 -0.0132085)
(5.07902e-19 -6.02762e-19 -0.0132039)
(4.6148e-20 -3.3276e-19 -0.0131982)
(3.80415e-19 9.92448e-20 -0.0131913)
(5.40034e-19 -6.98236e-19 -0.0131833)
(3.18078e-19 4.31338e-20 -0.0131742)
(7.12632e-19 -7.74526e-20 -0.013164)
(7.26943e-19 -5.21405e-19 -0.0131527)
(5.31807e-19 -8.71815e-19 -0.0131404)
(3.49433e-19 -8.20329e-19 -0.0131271)
(2.02999e-19 -6.27067e-19 -0.0131127)
(-2.19635e-20 1.47651e-19 -0.0130974)
(-5.36298e-19 -1.16136e-18 -0.0130811)
(-2.66102e-19 -8.72137e-19 -0.0130639)
(-6.4872e-19 -2.44337e-19 -0.0128425)
(-7.46759e-20 1.41748e-19 -0.0128659)
(-6.40104e-19 -9.33224e-19 -0.0128884)
(-7.43521e-19 6.81451e-19 -0.0129104)
(-1.48956e-19 1.62265e-19 -0.0129317)
(-4.52229e-19 6.24612e-19 -0.0129523)
(-1.05525e-18 7.60985e-19 -0.0129721)
(-1.38646e-18 3.75821e-19 -0.0129911)
(-6.33632e-19 3.0593e-19 -0.0130092)
(-2.58748e-19 4.26723e-19 -0.0130265)
(-7.62064e-19 1.11282e-18 -0.0130428)
(-1.8276e-19 9.55293e-19 -0.0130581)
(-1.36252e-18 4.79454e-19 -0.0130725)
(-1.18485e-18 3.52758e-19 -0.0130859)
(-7.2055e-19 7.03163e-19 -0.0130982)
(-7.78967e-19 1.0052e-18 -0.0131095)
(-7.76516e-19 1.02674e-18 -0.0131197)
(-3.18202e-19 1.06104e-18 -0.0131288)
(-7.29997e-21 1.11527e-18 -0.0131369)
(-7.21206e-19 -7.98914e-21 -0.0131437)
(5.58008e-20 5.43725e-19 -0.0131495)
(8.94164e-20 5.48554e-19 -0.0131541)
(-3.58097e-20 3.00795e-20 -0.0131576)
(4.96339e-19 9.09656e-19 -0.0131599)
(5.32811e-19 5.54351e-19 -0.0131611)
(4.66564e-19 -2.00248e-19 -0.0131611)
(-8.32587e-21 4.88271e-20 -0.0131599)
(8.93021e-19 -5.97981e-19 -0.0131576)
(2.31794e-19 1.57702e-19 -0.0131541)
(6.61288e-19 -6.14912e-19 -0.0131495)
(-1.49584e-19 -2.75359e-19 -0.0131437)
(4.03333e-19 3.80957e-20 -0.0131368)
(5.40054e-19 -7.07757e-19 -0.0131288)
(5.43686e-19 9.98401e-21 -0.0131197)
(3.76642e-19 -7.74423e-21 -0.0131095)
(7.47175e-19 -5.36797e-19 -0.0130982)
(5.28876e-19 -8.50646e-19 -0.0130858)
(3.8338e-19 -8.00317e-19 -0.0130725)
(2.46928e-19 -5.81554e-19 -0.0130581)
(3.66269e-19 3.72295e-20 -0.0130427)
(-1.24758e-19 -1.37503e-18 -0.0130264)
(-1.29381e-19 -9.52711e-19 -0.0130091)
(-1.36156e-20 -1.14906e-18 -0.012991)
(-5.97557e-19 -8.90086e-19 -0.012972)
(-1.53714e-18 -1.12038e-18 -0.0129522)
(-5.97581e-19 -2.14739e-19 -0.0127868)
(5.65651e-20 2.51685e-19 -0.0128103)
(-5.15053e-19 -8.4654e-19 -0.0128329)
(-6.97293e-19 6.39049e-19 -0.0128549)
(-3.45667e-19 2.35849e-20 -0.0128763)
(-8.61023e-19 3.75292e-19 -0.0128969)
(-8.6203e-19 9.46265e-19 -0.0129168)
(-1.38462e-18 4.0409e-19 -0.0129358)
(-8.08325e-19 1.41314e-19 -0.012954)
(-6.17565e-19 2.29413e-19 -0.0129713)
(-6.74434e-19 1.15625e-18 -0.0129876)
(-5.26283e-19 8.92574e-19 -0.013003)
(-1.48707e-18 5.18044e-19 -0.0130175)
(-1.03911e-18 3.38386e-19 -0.0130309)
(-5.43599e-19 7.02227e-19 -0.0130432)
(-5.20478e-19 1.09561e-18 -0.0130546)
(-7.84176e-19 1.00015e-18 -0.0130648)
(-3.24089e-19 1.03375e-18 -0.0130739)
(-2.93606e-19 1.13865e-18 -0.013082)
(-5.43131e-19 2.706e-20 -0.0130889)
(-1.98995e-19 4.46623e-19 -0.0130946)
(2.36097e-19 5.81287e-19 -0.0130993)
(-2.68255e-19 -1.07266e-20 -0.0131027)
(6.61351e-19 8.75449e-19 -0.0131051)
(6.73789e-19 5.65954e-19 -0.0131062)
(4.54943e-19 -1.82449e-19 -0.0131062)
(1.9144e-19 -8.98978e-21 -0.013105)
(8.09969e-19 -6.23107e-19 -0.0131027)
(4.40737e-19 1.4351e-19 -0.0130992)
(6.88369e-19 -6.04451e-19 -0.0130946)
(-9.26707e-20 -2.60152e-19 -0.0130888)
(5.6717e-19 -3.93767e-20 -0.0130819)
(4.20064e-19 -7.05062e-19 -0.0130739)
(6.59819e-19 2.72963e-20 -0.0130647)
(2.81906e-19 2.69098e-20 -0.0130545)
(6.12205e-19 -5.31484e-19 -0.0130432)
(5.51626e-19 -8.44747e-19 -0.0130308)
(1.35193e-19 -6.77216e-19 -0.0130174)
(1.42665e-19 -5.08415e-19 -0.013003)
(4.59853e-19 1.11228e-20 -0.0129876)
(2.56119e-19 -1.55352e-18 -0.0129712)
(-5.36606e-21 -1.02678e-18 -0.0129539)
(3.50856e-19 -1.33067e-18 -0.0129357)
(-3.60907e-19 -9.30283e-19 -0.0129167)
(-1.10776e-18 -1.27998e-18 -0.0128968)
(-2.03504e-18 -7.28106e-19 -0.0128762)
(-8.82268e-19 -1.5696e-18 -0.0128548)
(-5.47278e-19 -2.05085e-19 -0.0127307)
(2.30916e-19 4.10561e-19 -0.0127542)
(-5.05714e-19 -8.518e-19 -0.0127769)
(-6.62155e-19 6.1691e-19 -0.012799)
(-4.83088e-19 -5.23814e-20 -0.0128204)
(-9.45628e-19 2.77912e-19 -0.0128411)
(-7.30983e-19 1.06642e-18 -0.012861)
(-1.13908e-18 6.20537e-19 -0.0128801)
(-1.08365e-18 -1.48624e-20 -0.0128983)
(-1.03114e-18 -1.99015e-20 -0.0129157)
(-9.62667e-19 1.01125e-18 -0.0129321)
(-7.45158e-19 8.97548e-19 -0.0129475)
(-1.50201e-18 5.34083e-19 -0.012962)
(-7.33644e-19 3.44565e-19 -0.0129754)
(-6.56752e-19 6.2003e-19 -0.0129878)
(-2.64862e-19 1.20038e-18 -0.0129991)
(-6.85494e-19 1.04618e-18 -0.0130094)
(-5.44827e-19 9.75351e-19 -0.0130186)
(-2.28643e-19 1.18143e-18 -0.0130266)
(-2.71499e-19 6.93421e-20 -0.0130335)
(-3.78152e-19 3.78838e-19 -0.0130393)
(3.15838e-19 6.17163e-19 -0.013044)
(-4.54252e-19 -5.24901e-20 -0.0130474)
(8.1192e-19 8.09411e-19 -0.0130498)
(7.42308e-19 5.93971e-19 -0.0130509)
(4.39442e-19 -1.6353e-19 -0.0130509)
(2.68728e-19 -5.10301e-20 -0.0130498)
(7.4722e-19 -6.5846e-19 -0.0130474)
(6.06053e-19 1.25791e-19 -0.0130439)
(3.62602e-19 -5.32189e-19 -0.0130393)
(-3.0469e-20 -2.67929e-19 -0.0130335)
(5.83265e-19 -7.18747e-20 -0.0130266)
(3.88936e-19 -6.95565e-19 -0.0130185)
(6.33377e-19 5.81789e-20 -0.0130093)
(5.03398e-19 -2.43867e-20 -0.0129991)
(5.20998e-19 -5.32694e-19 -0.0129877)
(4.75985e-19 -7.77981e-19 -0.0129753)
(-2.71901e-19 -4.68135e-19 -0.0129619)
(-2.30708e-20 -4.32851e-19 -0.0129474)
(3.7039e-19 3.16307e-20 -0.012932)
(2.73694e-19 -1.58225e-18 -0.0129156)
(-1.82209e-19 -9.41056e-19 -0.0128982)
(4.52599e-19 -1.36895e-18 -0.01288)
(-4.0021e-19 -8.40836e-19 -0.0128609)
(-5.90256e-19 -1.55085e-18 -0.012841)
(-1.47988e-18 -1.16849e-18 -0.0128203)
(-7.07663e-19 -1.7468e-18 -0.0127989)
(-1.54133e-18 -9.39713e-19 -0.0127768)
(-1.6763e-18 4.6595e-20 -0.0127541)
(-1.96899e-18 -1.22845e-18 -0.0127307)
(-5.75217e-19 -2.96962e-19 -0.0126742)
(3.57811e-19 5.25187e-19 -0.0126977)
(-5.22835e-19 -8.39434e-19 -0.0127205)
(-6.87588e-19 5.49547e-19 -0.0127426)
(-4.3441e-19 -2.05236e-21 -0.0127641)
(-1.12716e-18 1.16138e-19 -0.0127848)
(-8.13533e-19 1.01904e-18 -0.0128048)
(-9.71708e-19 8.1902e-19 -0.0128239)
(-1.05998e-18 4.7665e-20 -0.0128422)
(-1.05585e-18 -5.61888e-20 -0.0128596)
(-1.1607e-18 8.87298e-19 -0.012876)
(-8.04746e-19 9.0903e-19 -0.0128915)
(-1.25378e-18 6.40692e-19 -0.012906)
(-7.30818e-19 2.97572e-19 -0.0129195)
(-9.69795e-19 4.66681e-19 -0.0129319)
(-4.88663e-19 1.11996e-18 -0.0129433)
(-5.77432e-19 1.12248e-18 -0.0129536)
(-6.13925e-19 9.39752e-19 -0.0129627)
(-7.57618e-20 1.21519e-18 -0.0129708)
(-2.57247e-19 1.14252e-19 -0.0129777)
(-5.55282e-19 3.18757e-19 -0.0129835)
(-1.78916e-20 6.02198e-19 -0.0129882)
(-5.05214e-19 -8.93097e-20 -0.0129917)
(7.75416e-19 7.29981e-19 -0.012994)
(7.24681e-19 6.28742e-19 -0.0129952)
(3.37306e-19 -1.46668e-19 -0.0129952)
(2.8097e-19 -9.6418e-20 -0.012994)
(8.07462e-19 -7.0716e-19 -0.0129917)
(4.38478e-19 1.90188e-19 -0.0129882)
(5.17758e-20 -4.64233e-19 -0.0129835)
(-1.26124e-19 -2.81839e-19 -0.0129777)
(4.82167e-19 -8.29334e-20 -0.0129708)
(4.13182e-19 -7.14402e-19 -0.0129627)
(6.07899e-19 7.61517e-20 -0.0129535)
(7.37597e-19 -7.30069e-20 -0.0129432)
(4.48745e-19 -5.01988e-19 -0.0129318)
(4.12094e-19 -6.88698e-19 -0.0129194)
(-4.79981e-19 -3.45819e-19 -0.0129059)
(1.07182e-20 -4.70999e-19 -0.0128914)
(4.94889e-19 -4.18468e-20 -0.0128759)
(3.66632e-19 -1.60291e-18 -0.0128595)
(-4.21197e-19 -8.32351e-19 -0.0128421)
(3.60462e-19 -1.31242e-18 -0.0128238)
(-6.4861e-19 -6.66749e-19 -0.0128047)
(-9.31847e-20 -1.88097e-18 -0.0127847)
(-1.14645e-18 -1.42383e-18 -0.012764)
(-8.02836e-19 -1.69449e-18 -0.0127425)
(-1.35782e-18 -9.52683e-19 -0.0127204)
(-1.23178e-18 -3.3448e-19 -0.0126977)
(-1.72467e-18 -1.50056e-18 -0.0126741)
(-4.95539e-19 -2.77618e-19 -0.0126172)
(3.02478e-19 4.83317e-19 -0.0126408)
(-3.11694e-19 -6.52741e-19 -0.0126636)
(-7.53872e-19 4.42745e-19 -0.0126858)
(-2.46697e-19 1.70877e-19 -0.0127073)
(-1.30811e-18 -1.94581e-20 -0.0127281)
(-7.42499e-19 1.03032e-18 -0.0127481)
(-9.60965e-19 8.83287e-19 -0.0127673)
(-9.06374e-19 1.57796e-19 -0.0127856)
(-8.02427e-19 5.92481e-20 -0.012803)
(-1.21461e-18 8.52102e-19 -0.0128195)
(-9.87743e-19 8.55562e-19 -0.012835)
(-9.16651e-19 7.84584e-19 -0.0128496)
(-9.37823e-19 2.14996e-19 -0.0128631)
(-1.15649e-18 3.9301e-19 -0.0128755)
(-1.08124e-18 9.18073e-19 -0.0128869)
(-5.82723e-19 1.12012e-18 -0.0128973)
(-4.54606e-19 9.59338e-19 -0.0129065)
(-2.08067e-19 1.20557e-18 -0.0129145)
(-3.66505e-19 1.44886e-19 -0.0129215)
(-5.78658e-19 3.20309e-19 -0.0129273)
(-4.11977e-19 5.72242e-19 -0.012932)
(-4.83765e-19 -1.57079e-19 -0.0129355)
(5.15145e-19 6.40887e-19 -0.0129378)
(7.1102e-19 6.671e-19 -0.012939)
(2.48674e-19 -1.31419e-19 -0.012939)
(3.05225e-19 -1.61633e-19 -0.0129378)
(6.96875e-19 -7.12715e-19 -0.0129355)
(3.20134e-19 2.57126e-19 -0.012932)
(7.70899e-20 -4.52174e-19 -0.0129273)
(-2.94121e-19 -2.86263e-19 -0.0129215)
(4.28338e-19 -1.18171e-19 -0.0129145)
(4.30519e-19 -7.24449e-19 -0.0129064)
(5.86784e-19 7.84244e-20 -0.0128972)
(7.89706e-19 -6.68538e-20 -0.0128869)
(2.59257e-19 -4.25334e-19 -0.0128755)
(5.66155e-19 -6.79594e-19 -0.012863)
(-5.30264e-19 -2.91441e-19 -0.0128495)
(3.14776e-19 -6.46122e-19 -0.012835)
(6.5598e-19 -1.42085e-19 -0.0128194)
(6.55083e-19 -1.70026e-18 -0.0128029)
(-4.43167e-19 -7.90495e-19 -0.0127855)
(9.34385e-20 -1.13501e-18 -0.0127672)
(-1.02978e-18 -4.79947e-19 -0.012748)
(9.22971e-20 -2.04839e-18 -0.012728)
(-1.0055e-18 -1.46454e-18 -0.0127072)
(-1.25081e-18 -1.37426e-18 -0.0126857)
(-1.23944e-18 -1.02315e-18 -0.0126635)
(-7.29224e-19 -7.8526e-19 -0.0126407)
(-1.38704e-18 -1.77692e-18 -0.0126171)
(-4.86257e-19 -2.99349e-19 -0.0125597)
(1.23027e-19 3.1063e-19 -0.0125833)
(-9.67229e-20 -4.55701e-19 -0.0126062)
(-9.18041e-19 2.7682e-19 -0.0126285)
(-9.20464e-20 3.08933e-19 -0.01265)
(-1.37552e-18 -8.08267e-20 -0.0126709)
(-4.51269e-19 1.16661e-18 -0.0126909)
(-9.87384e-19 9.56296e-19 -0.0127102)
(-8.73633e-19 1.9069e-19 -0.0127285)
(-7.84842e-19 8.04335e-20 -0.012746)
(-1.46897e-18 7.73433e-19 -0.0127625)
(-1.30433e-18 6.97371e-19 -0.0127781)
(-7.13015e-19 8.77522e-19 -0.0127927)
(-8.92436e-19 2.63406e-19 -0.0128062)
(-1.37446e-18 3.28595e-19 -0.0128187)
(-1.49489e-18 7.57386e-19 -0.0128301)
(-4.86041e-19 1.08286e-18 -0.0128405)
(-2.24583e-19 1.00609e-18 -0.0128497)
(-3.00313e-19 1.229e-18 -0.0128578)
(-2.15496e-19 1.98738e-19 -0.0128648)
(-5.90102e-19 3.21592e-19 -0.0128706)
(-3.1596e-19 5.96482e-19 -0.0128753)
(-5.24884e-19 -2.11373e-19 -0.0128788)
(2.17893e-19 5.54036e-19 -0.0128811)
(6.62857e-19 6.80393e-19 -0.0128823)
(4.47901e-19 -1.24537e-19 -0.0128823)
(5.46262e-19 -2.17019e-19 -0.0128811)
(5.7208e-19 -7.26298e-19 -0.0128788)
(2.41054e-19 2.95882e-19 -0.0128753)
(-3.67019e-20 -4.06973e-19 -0.0128706)
(-2.48802e-19 -3.16366e-19 -0.0128647)
(4.07459e-19 -1.70725e-19 -0.0128578)
(4.23301e-19 -7.38241e-19 -0.0128497)
(4.11942e-19 1.31443e-19 -0.0128404)
(8.27509e-19 -3.28645e-20 -0.0128301)
(1.95585e-19 -4.107e-19 -0.0128186)
(6.57867e-19 -6.64151e-19 -0.0128061)
(-5.10895e-19 -2.84527e-19 -0.0127926)
(6.5398e-19 -8.48591e-19 -0.012778)
(6.44853e-19 -1.49308e-19 -0.0127625)
(9.26155e-19 -1.77302e-18 -0.0127459)
(-1.43972e-19 -8.63082e-19 -0.0127285)
(-7.89505e-20 -9.73498e-19 -0.0127101)
(-1.19425e-18 -4.43044e-19 -0.0126908)
(-2.20609e-19 -1.94362e-18 -0.0126708)
(-1.1421e-18 -1.26034e-18 -0.0126499)
(-1.7521e-18 -1.01561e-18 -0.0126284)
(-1.30665e-18 -1.04133e-18 -0.0126061)
(-4.62189e-19 -1.06815e-18 -0.0125832)
(-1.06055e-18 -1.98241e-18 -0.0125596)
(-6.98089e-19 -4.6759e-19 -0.0125017)
(5.26577e-20 2.05099e-19 -0.0125254)
(-2.29625e-19 -5.40083e-19 -0.0125483)
(-9.84496e-19 1.79761e-19 -0.0125706)
(-1.59781e-19 2.82896e-19 -0.0125923)
(-1.48917e-18 -1.92119e-19 -0.0126132)
(-3.71585e-19 1.16795e-18 -0.0126333)
(-9.31507e-19 1.09117e-18 -0.0126526)
(-8.58554e-19 2.3047e-19 -0.012671)
(-1.01955e-18 3.08778e-21 -0.0126885)
(-1.58941e-18 7.65245e-19 -0.0127051)
(-1.43494e-18 5.95218e-19 -0.0127207)
(-8.95008e-19 7.61908e-19 -0.0127353)
(-5.60839e-19 4.33205e-19 -0.0127489)
(-1.32916e-18 4.0086e-19 -0.0127614)
(-1.5846e-18 6.5608e-19 -0.0127728)
(-1.31738e-19 1.07766e-18 -0.0127832)
(-3.41288e-20 1.05393e-18 -0.0127925)
(-3.13999e-19 1.25374e-18 -0.0128006)
(1.16093e-19 2.91664e-19 -0.0128076)
(-6.98932e-19 3.18015e-19 -0.0128134)
(-8.40508e-21 6.44048e-19 -0.0128181)
(-6.94287e-19 -2.37997e-19 -0.0128216)
(1.53736e-20 4.68022e-19 -0.012824)
(5.99423e-19 6.5267e-19 -0.0128251)
(6.7227e-19 -1.53571e-19 -0.0128251)
(7.86964e-19 -2.50451e-19 -0.012824)
(5.29921e-19 -6.93075e-19 -0.0128216)
(1.06587e-19 3.65458e-19 -0.0128181)
(-6.25942e-20 -4.07166e-19 -0.0128134)
(-1.62707e-19 -3.79786e-19 -0.0128075)
(3.96574e-19 -2.08243e-19 -0.0128005)
(1.83983e-19 -6.66052e-19 -0.0127924)
(-2.99707e-20 2.37179e-19 -0.0127832)
(6.74136e-19 1.58536e-20 -0.0127728)
(2.70903e-19 -4.25108e-19 -0.0127613)
(5.21668e-19 -5.64393e-19 -0.0127488)
(-2.78774e-19 -3.82093e-19 -0.0127352)
(6.42436e-19 -8.90003e-19 -0.0127206)
(4.3908e-19 -6.9166e-20 -0.012705)
(1.03007e-18 -1.82464e-18 -0.0126884)
(2.96721e-19 -9.82624e-19 -0.0126709)
(-2.89974e-19 -7.56122e-19 -0.0126525)
(-8.30755e-19 -6.90917e-19 -0.0126332)
(-5.62575e-19 -1.76186e-18 -0.0126131)
(-1.27998e-18 -1.05402e-18 -0.0125922)
(-1.66202e-18 -1.11017e-18 -0.0125705)
(-1.43934e-18 -1.07278e-18 -0.0125482)
(-4.43374e-19 -1.18327e-18 -0.0125253)
(-9.91801e-19 -1.91414e-18 -0.0125016)
(-7.67564e-19 -4.79173e-19 -0.0124432)
(3.68959e-19 4.20579e-19 -0.012467)
(-3.23595e-19 -5.86182e-19 -0.0124899)
(-9.49108e-19 1.43054e-19 -0.0125123)
(-2.57808e-19 2.51908e-19 -0.012534)
(-1.51036e-18 -2.4382e-19 -0.012555)
(-6.52543e-19 9.20887e-19 -0.0125751)
(-8.98939e-19 1.20747e-18 -0.0125945)
(-9.94859e-19 2.31627e-19 -0.0126129)
(-1.17598e-18 -4.19795e-20 -0.0126305)