/*--------------------------------*- C++ -*----------------------------------*\
  =========                 |
  \\      /  F ield         | OpenFOAM: The Open Source CFD Toolbox
   \\    /   O peration     | Website:  https://openfoam.org
    \\  /    A nd           | Version:  7
     \\/     M anipulation  |
\*---------------------------------------------------------------------------*/
FoamFile
{
    version     2.0;
    format      ascii;
    class       volVectorField;
    location    "4000";
    object      vorticity;
}
// * * * * * * * * * * * * * * * * * * * * * * * * * * * * * * * * * * * * * //

dimensions      [0 0 -1 0 0 0 0];

internalField   nonuniform List<vector> 
4825
(
(0.0257605 0.023674 2.28901e-17)
(0.0255978 0.0233607 1.70423e-17)
(0.0262967 0.0241965 2.5721e-17)
(0.0261466 0.0238601 1.91282e-17)
(0.0266409 0.0228478 2.07524e-17)
(0.0271028 0.0218386 5.17485e-18)
(0.0275395 0.0208263 9.28457e-18)
(0.0268482 0.0247336 2.52017e-17)
(0.0267108 0.0243737 1.96791e-17)
(0.0272159 0.0233391 2.28548e-17)
(0.027688 0.0223075 8.05445e-18)
(0.0281343 0.021273 1.05426e-17)
(0.0274154 0.0252859 2.29055e-17)
(0.027291 0.0249018 1.99014e-17)
(0.0278071 0.0238443 2.32667e-17)
(0.0282897 0.0227898 9.52192e-18)
(0.0287458 0.0217323 1.05059e-17)
(0.0279992 0.025854 2.11893e-17)
(0.027888 0.0254452 2.09254e-17)
(0.0284155 0.024364 2.2625e-17)
(0.0289088 0.0232859 1.07228e-17)
(0.029375 0.0222048 1.00359e-17)
(0.0286001 0.0264386 2.11111e-17)
(0.0285024 0.0260044 2.24644e-17)
(0.0290415 0.0248989 2.20861e-17)
(0.0295459 0.0237965 1.22816e-17)
(0.0300224 0.0226911 9.23671e-18)
(0.0292189 0.0270404 2.21066e-17)
(0.0291349 0.0265801 2.32449e-17)
(0.0296861 0.0254496 2.17527e-17)
(0.0302017 0.0243222 1.40195e-17)
(0.0306889 0.0231916 7.94325e-18)
(0.0298563 0.0276602 2.26977e-17)
(0.0297864 0.0271731 2.33721e-17)
(0.0303499 0.0260168 2.15841e-17)
(0.0308772 0.0248635 1.59862e-17)
(0.0313753 0.0237071 6.81665e-18)
(0.0305133 0.0282986 2.25543e-17)
(0.0304577 0.0277841 2.35388e-17)
(0.0310338 0.0266012 2.14894e-17)
(0.0315731 0.0254212 1.78084e-17)
(0.0320824 0.0242382 5.91928e-18)
(0.0311905 0.0289567 2.17201e-17)
(0.0311496 0.0284138 2.38823e-17)
(0.0317388 0.0272035 2.19849e-17)
(0.0322903 0.025996 1.97104e-17)
(0.0328112 0.0247856 4.6922e-18)
(0.031889 0.0296351 1.99551e-17)
(0.031863 0.0290632 2.40412e-17)
(0.0324656 0.0278245 2.29403e-17)
(0.0330298 0.0265886 2.17257e-17)
(0.0335626 0.0253499 3.21939e-18)
(0.0326097 0.0303349 1.79846e-17)
(0.032599 0.0297331 2.36639e-17)
(0.0332154 0.0284652 2.4316e-17)
(0.0337926 0.0272 2.3938e-17)
(0.0343377 0.025932 2.49162e-18)
(0.0333535 0.031057 1.60232e-17)
(0.0333585 0.0304244 2.31541e-17)
(0.0339892 0.0291263 2.59705e-17)
(0.0345797 0.0278308 2.57794e-17)
(0.0351374 0.0265326 2.421e-18)
(0.0341215 0.0318024 1.46233e-17)
(0.0341426 0.0311381 2.29981e-17)
(0.034788 0.0298087 2.68475e-17)
(0.0353923 0.0284821 2.66184e-17)
(0.0349149 0.0325722 1.40861e-17)
(0.0349524 0.0318753 2.30324e-17)
(0.0356129 0.0305136 2.67281e-17)
(0.0362315 0.0291547 2.80495e-17)
(0.0357348 0.0333676 1.3361e-17)
(0.0357892 0.0326369 2.29216e-17)
(0.0364654 0.0312419 2.61807e-17)
(0.0370986 0.0298496 2.97052e-17)
(0.0365825 0.0341898 1.23161e-17)
(0.0366543 0.0334243 2.25073e-17)
(0.0373465 0.0319948 2.67265e-17)
(0.0374594 0.03504 1.14809e-17)
(0.0375489 0.0342386 2.21765e-17)
(0.0382577 0.0327733 2.81015e-17)
(0.0383667 0.0359197 1.02044e-17)
(0.0384746 0.0350812 2.19939e-17)
(0.0393062 0.0368302 7.75399e-18)
(0.0394329 0.0359535 2.21158e-17)
(0.0402792 0.0377733 5.04264e-18)
(0.0404254 0.0368568 2.23928e-17)
(0.0412876 0.0387503 2.2753e-18)
(0.0414537 0.0377928 2.40449e-17)
(0.0423331 0.0397632 1.21452e-18)
(0.0425199 0.0387632 2.63114e-17)
(0.0434176 0.0408137 8.71746e-19)
(-0.0172495 0.0191921 1.20412e-17)
(-0.0172289 0.0188604 4.10462e-18)
(-0.0165013 0.019213 6.89282e-18)
(-0.0157781 0.0195406 -1.20742e-18)
(-0.015052 0.0198507 1.91631e-18)
(-0.0143237 0.0201437 2.7255e-18)
(-0.0135935 0.0204198 -4.43939e-18)
(-0.0128618 0.0206795 -3.28399e-18)
(-0.0121289 0.0209231 -6.23006e-18)
(-0.0113951 0.0211507 -5.26681e-18)
(-0.0106607 0.0213628 -5.08606e-18)
(-0.00992569 0.0215595 -4.30031e-18)
(-0.00919042 0.0217412 3.45687e-18)
(-0.00845494 0.0219079 3.98779e-18)
(-0.00771938 0.02206 -9.91585e-19)
(-0.00698379 0.0221976 -1.30185e-17)
(-0.00624825 0.022321 -1.35873e-17)
(-0.00551279 0.0224302 -1.10624e-17)
(-0.00477745 0.0225255 -7.08192e-18)
(-0.00404219 0.022607 -6.11946e-18)
(-0.0176097 0.0195587 1.13824e-17)
(-0.017572 0.0192375 4.22836e-18)
(-0.0168298 0.0195976 7.37343e-18)
(-0.0160919 0.0199323 -1.94468e-18)
(-0.0153511 0.0202491 2.72033e-18)
(-0.0146081 0.0205484 2.21238e-18)
(-0.0138632 0.0208305 -4.89403e-18)
(-0.0131167 0.0210958 -4.53533e-18)
(-0.0123691 0.0213445 -6.94407e-18)
(-0.0116206 0.0215771 -5.09476e-18)
(-0.0108715 0.0217937 -6.58054e-18)
(-0.0101218 0.0219946 -5.14583e-18)
(-0.00937192 0.0221801 2.93836e-18)
(-0.00862182 0.0223504 1.74323e-18)
(-0.00787166 0.0225057 -2.87087e-18)
(-0.00712149 0.0226462 -1.34258e-17)
(-0.00637138 0.0227721 -1.30911e-17)
(-0.00562138 0.0228836 -1.12017e-17)
(-0.00487151 0.022981 -7.7468e-18)
(-0.00412175 0.0230641 -6.18417e-18)
(-0.017978 0.0199339 1.00393e-17)
(-0.017923 0.0196233 5.56653e-18)
(-0.0171659 0.019991 8.30397e-18)
(-0.016413 0.020333 -1.46002e-18)
(-0.0156571 0.0206567 3.8661e-18)
(-0.014899 0.0209624 2.36875e-18)
(-0.014139 0.0212506 -4.89957e-18)
(-0.0133775 0.0215215 -6.41863e-18)
(-0.0126148 0.0217756 -7.44242e-18)
(-0.0118513 0.0220131 -4.02482e-18)
(-0.0110871 0.0222343 -6.97401e-18)
(-0.0103224 0.0224395 -5.03047e-18)
(-0.00955751 0.0226289 2.7044e-18)
(-0.00879246 0.0228028 3.12552e-19)
(-0.00802736 0.0229613 -3.61869e-18)
(-0.00726228 0.0231048 -1.27826e-17)
(-0.00649728 0.0232334 -1.16912e-17)
(-0.0057324 0.0233472 -1.0781e-17)
(-0.00496768 0.0234465 -8.20789e-18)
(-0.00420308 0.0235314 -5.59361e-18)
(-0.0183549 0.020318 9.2665e-18)
(-0.0182822 0.0200181 7.37199e-18)
(-0.0175098 0.0203936 9.6968e-18)
(-0.0167415 0.020743 -6.50376e-19)
(-0.0159702 0.0210736 5.20481e-18)
(-0.0151966 0.021386 3.17496e-18)
(-0.0144212 0.0216803 -4.72384e-18)
(-0.0136443 0.0219571 -8.78404e-18)
(-0.0128661 0.0222166 -7.51103e-18)
(-0.0120872 0.0224592 -2.73112e-18)
(-0.0113076 0.022685 -7.15423e-18)
(-0.0105276 0.0228945 -4.53436e-18)
(-0.00974735 0.0230879 2.56587e-18)
(-0.00896699 0.0232654 -4.73471e-19)
(-0.00818661 0.0234273 -3.59333e-18)
(-0.00740628 0.0235738 -1.15419e-17)
(-0.00662604 0.023705 -1.01108e-17)
(-0.00584595 0.0238212 -1.00733e-17)
(-0.00506604 0.0239226 -8.54253e-18)
(-0.00428626 0.0240092 -4.68222e-18)
(-0.0187407 0.0207115 9.17845e-18)
(-0.01865 0.0204222 8.84262e-18)
(-0.0178619 0.0208057 1.12906e-17)
(-0.0170777 0.0211626 -2.39392e-19)
(-0.0162907 0.0215004 6.02395e-18)
(-0.0155013 0.0218195 4.31462e-18)
(-0.01471 0.0221202 -4.88454e-18)
(-0.0139173 0.0224028 -1.07491e-17)
(-0.0131233 0.0226679 -7.30638e-18)
(-0.0123286 0.0229156 -2.0016e-18)
(-0.0115333 0.0231462 -7.4604e-18)
(-0.0107376 0.0233601 -4.15395e-18)
(-0.00994159 0.0235575 2.37788e-18)
(-0.00914556 0.0237388 -7.64253e-19)
(-0.00834954 0.0239041 -3.37613e-18)
(-0.00755359 0.0240536 -1.04464e-17)
(-0.00675777 0.0241876 -8.76483e-18)
(-0.00596212 0.0243062 -9.78775e-18)
(-0.00516666 0.0244096 -8.94287e-18)
(-0.00437136 0.024498 -3.71428e-18)
(-0.0191356 0.0211145 9.42301e-18)
(-0.0190266 0.0208361 9.59441e-18)
(-0.0182224 0.0212276 1.27545e-17)
(-0.017422 0.0215923 -4.09753e-19)
(-0.0166188 0.0219374 6.85795e-18)
(-0.0158132 0.0222633 5.38028e-18)
(-0.0150057 0.0225704 -5.88014e-18)
(-0.0141967 0.0228591 -1.21905e-17)
(-0.0133866 0.0231298 -7.09353e-18)
(-0.0125757 0.0233827 -1.64201e-18)
(-0.0117643 0.0236182 -7.8782e-18)
(-0.0109524 0.0238367 -3.55341e-18)
(-0.0101404 0.0240382 2.37662e-18)
(-0.00932833 0.0242233 -1.08126e-18)
(-0.0085163 0.024392 -2.98399e-18)
(-0.00770437 0.0245446 -9.47615e-18)
(-0.00689259 0.0246813 -7.67244e-18)
(-0.00608101 0.0248024 -9.77645e-18)
(-0.00526965 0.024908 -9.42527e-18)
(-0.00445846 0.0249982 -2.61099e-18)
(-0.0195399 0.0215274 9.22036e-18)
(-0.0194124 0.02126 9.97856e-18)
(-0.0185916 0.0216598 1.3936e-17)
(-0.0177747 0.0220324 -7.89038e-19)
(-0.0169548 0.0223849 7.83311e-18)
(-0.0161326 0.0227178 5.42948e-18)
(-0.0153085 0.0230315 -7.2077e-18)
(-0.0144829 0.0233264 -1.25548e-17)
(-0.0136562 0.0236028 -6.81042e-18)
(-0.0128288 0.0238611 -1.68966e-18)
(-0.0120008 0.0241015 -8.87986e-18)
(-0.0111725 0.0243246 -2.85221e-18)
(-0.010344 0.0245303 2.45906e-18)
(-0.00951546 0.0247192 -1.38195e-18)
(-0.00868702 0.0248914 -2.50622e-18)
(-0.00785873 0.0250473 -8.35643e-18)
(-0.0070306 0.0251868 -7.17738e-18)
(-0.00620272 0.0253104 -1.03016e-17)
(-0.00537508 0.0254181 -9.50966e-18)
(-0.00454763 0.0255102 -1.47018e-18)
(-0.0199542 0.0219507 8.29143e-18)
(-0.0198076 0.0216943 1.02921e-17)
(-0.0189699 0.0221027 1.54944e-17)
(-0.018136 0.0224833 -1.15896e-18)
(-0.0172991 0.0228434 8.31535e-18)
(-0.0164598 0.0231835 4.59504e-18)
(-0.0156187 0.0235038 -8.18621e-18)
(-0.0147761 0.023805 -1.20752e-17)
(-0.0139324 0.0240873 -6.29954e-18)
(-0.013088 0.024351 -2.1897e-18)
(-0.0122431 0.0245966 -1.02822e-17)
(-0.0113978 0.0248242 -2.03162e-18)
(-0.0105524 0.0250343 2.34412e-18)
(-0.0097071 0.0252272 -9.11097e-19)
(-0.00886186 0.0254029 -1.81565e-18)
(-0.00801681 0.025562 -7.40094e-18)
(-0.00717195 0.0257044 -6.92825e-18)
(-0.00632737 0.0258306 -1.13226e-17)
(-0.00548305 0.0259405 -9.77778e-18)
(-0.00463895 0.0260344 -5.86158e-19)
(-0.00379508 0.0261124 -7.50702e-18)
(-0.00295147 0.0261747 -6.47959e-18)
(-0.00210801 0.0262214 -3.4006e-18)
(-0.0012647 0.0262525 -8.62579e-18)
(-0.000421441 0.0262681 -1.75055e-18)
(0.000421837 0.0262681 9.15964e-18)
(0.00126515 0.0262525 1.58767e-18)
(0.00210851 0.0262215 4.60543e-18)
(0.00295197 0.0261748 4.20264e-18)
(0.0037956 0.0261125 6.55577e-18)
(0.00463942 0.0260345 -9.76757e-19)
(0.00548348 0.0259406 -3.63369e-18)
(0.00632782 0.0258308 8.89498e-18)
(0.00717243 0.0257048 -3.42928e-18)
(0.00801732 0.0255624 -1.03427e-17)
(-0.0203787 0.0223848 7.61386e-18)
(-0.0202128 0.0221396 1.01939e-17)
(-0.0193577 0.0225566 1.69882e-17)
(-0.0185063 0.0229454 -1.42056e-18)
(-0.0176519 0.0233133 8.1474e-18)
(-0.0167952 0.0236606 3.35201e-18)
(-0.0159366 0.0239879 -7.97005e-18)
(-0.0150765 0.0242954 -1.1222e-17)
(-0.0142154 0.0245837 -5.78572e-18)
(-0.0133536 0.024853 -2.39507e-18)
(-0.0124913 0.0251037 -1.14324e-17)
(-0.0116287 0.0253362 -1.45684e-18)
(-0.0107661 0.0255506 1.9909e-18)
(-0.00990345 0.0257475 2.95101e-19)
(-0.00904099 0.0259269 -1.41072e-18)
(-0.00817875 0.0260893 -6.8157e-18)
(-0.00731675 0.0262347 -6.879e-18)
(-0.00645505 0.0263634 -1.20548e-17)
(-0.00559365 0.0264756 -1.03628e-17)
(-0.0047325 0.0265714 -8.29122e-20)
(-0.00387159 0.026651 -7.9814e-18)
(-0.00301094 0.0267146 -7.929e-18)
(-0.00215048 0.0267622 -4.44475e-18)
(-0.00129017 0.0267939 -9.87489e-18)
(-0.000429927 0.0268099 -3.20337e-18)
(0.000430329 0.0268099 7.62086e-18)
(0.00129063 0.026794 1.12062e-18)
(0.00215099 0.0267623 4.76615e-18)
(0.00301145 0.0267147 4.11227e-18)
(0.00387209 0.0266511 7.29253e-18)
(0.00473296 0.0265714 1.11312e-19)
(0.00559408 0.0264756 -3.76898e-18)
(0.00645551 0.0263636 7.41026e-18)
(0.00731724 0.026235 -4.7644e-18)
(0.00817927 0.0260897 -1.12986e-17)
(0.00904152 0.0259275 -5.05386e-18)
(0.00990395 0.0257481 -7.43376e-19)
(-0.0208139 0.0228299 7.13837e-18)
(-0.0206283 0.0225961 1.01983e-17)
(-0.0197553 0.0230219 1.79523e-17)
(-0.018886 0.0234192 -1.75864e-18)
(-0.0180136 0.023795 7.75996e-18)
(-0.0171389 0.0241498 3.30208e-18)
(-0.0162625 0.0244841 -6.75538e-18)
(-0.0153845 0.0247981 -1.10457e-17)
(-0.0145055 0.0250925 -5.2602e-18)
(-0.0136258 0.0253675 -2.6285e-18)
(-0.0127458 0.0256235 -1.17961e-17)
(-0.0118654 0.0258608 -1.26738e-18)
(-0.010985 0.0260798 1.40011e-18)
(-0.0101047 0.0262807 1.83435e-18)
(-0.00922457 0.0264639 -1.21208e-18)
(-0.00834471 0.0266296 -6.97362e-18)
(-0.00746513 0.026778 -6.92531e-18)
(-0.0065859 0.0269094 -1.19276e-17)
(-0.00570699 0.0270239 -1.09613e-17)
(-0.00482836 0.0271217 -6.08628e-20)
(-0.00394999 0.0272029 -7.45976e-18)
(-0.0030719 0.0272678 -8.30571e-18)
(-0.002194 0.0273164 -4.24155e-18)
(-0.00131627 0.0273487 -9.36355e-18)
(-0.000438621 0.027365 -2.97981e-18)
(0.000439032 0.027365 7.69183e-18)
(0.00131674 0.0273488 2.4945e-18)
(0.00219451 0.0273165 5.98126e-18)
(0.00307239 0.0272678 3.97505e-18)
(0.00395048 0.0272029 7.52583e-18)
(0.00482881 0.0271217 9.67112e-19)
(0.00570742 0.0270239 -3.67416e-18)
(0.00658636 0.0269095 6.31699e-18)
(0.00746564 0.0267783 -5.02265e-18)
(0.00834525 0.0266299 -1.14045e-17)
(0.00922509 0.0264644 -4.58103e-18)
(0.0101052 0.0262813 -8.84668e-20)
(0.0109855 0.0260804 -1.6065e-18)
(-0.0212602 0.0232867 7.08628e-18)
(-0.0210544 0.0230643 1.04398e-17)
(-0.0201631 0.0234992 1.85581e-17)
(-0.0192753 0.0239051 -1.69182e-18)
(-0.0183846 0.024289 8.21423e-18)
(-0.0174915 0.0246514 3.79447e-18)
(-0.0165966 0.0249928 -6.4316e-18)
(-0.0157003 0.0253136 -1.13232e-17)
(-0.014803 0.0256143 -4.61763e-18)
(-0.013905 0.025895 -3.38515e-18)
(-0.0130066 0.0261564 -1.15278e-17)
(-0.012108 0.0263987 -1.6036e-18)
(-0.0112094 0.0266223 9.43115e-19)
(-0.010311 0.0268274 3.51191e-18)
(-0.00941276 0.0270143 -1.31833e-18)
(-0.00851485 0.0271834 -7.51346e-18)
(-0.00761725 0.027335 -7.19143e-18)
(-0.00672003 0.0274691 -1.17147e-17)
(-0.00582317 0.0275859 -1.14917e-17)
(-0.00492662 0.0276857 8.55586e-20)
(-0.00403036 0.0277686 -6.38874e-18)
(-0.00313438 0.0278348 -8.16191e-18)
(-0.00223861 0.0278843 -3.50662e-18)
(-0.00134302 0.0279174 -8.2777e-18)
(-0.000447533 0.027934 -1.87719e-18)
(0.000447953 0.027934 8.5031e-18)
(0.0013435 0.0279175 4.44184e-18)
(0.00223912 0.0278844 7.54839e-18)
(0.00313486 0.0278348 3.87857e-18)
(0.00403083 0.0277686 7.44494e-18)
(0.00492706 0.0276856 1.20677e-18)
(0.0058236 0.0275858 -3.42266e-18)
(0.00672051 0.0274691 5.43484e-18)
(0.00761777 0.0273352 -4.88383e-18)
(0.00851539 0.0271838 -1.07431e-17)
(0.00941328 0.0270148 -4.22067e-18)
(0.0103115 0.0268279 8.55995e-19)
(0.0112099 0.0266229 -1.78359e-18)
(0.0121085 0.0263994 -9.10523e-18)
(0.0130071 0.0261572 -1.8477e-17)
(-0.0217179 0.0237554 7.52202e-18)
(-0.0214916 0.0235446 1.01786e-17)
(-0.0205815 0.0239889 1.8739e-17)
(-0.0196748 0.0244035 -8.44094e-19)
(-0.0187651 0.0247957 8.99271e-18)
(-0.0178531 0.0251659 4.14221e-18)
(-0.0169394 0.0255147 -7.51989e-18)
(-0.0160242 0.0258423 -1.19928e-17)
(-0.015108 0.0261494 -3.5694e-18)
(-0.0141912 0.0264361 -3.62205e-18)
(-0.0132741 0.026703 -1.13938e-17)
(-0.0123569 0.0269504 -2.65163e-18)
(-0.0114396 0.0271786 4.98768e-19)
(-0.0105225 0.0273879 4.7751e-18)
(-0.00960577 0.0275788 -1.94672e-18)
(-0.00868932 0.0277514 -7.73153e-18)
(-0.00777324 0.0279061 -6.97449e-18)
(-0.00685758 0.0280429 -1.13135e-17)
(-0.00594232 0.0281621 -1.20068e-17)
(-0.00502738 0.028264 2.36193e-19)
(-0.00411277 0.0283486 -5.65274e-18)
(-0.00319845 0.0284161 -8.05248e-18)
(-0.00228436 0.0284667 -3.00977e-18)
(-0.00137045 0.0285004 -7.86965e-18)
(-0.000456671 0.0285173 -1.22644e-18)
(0.000457099 0.0285174 8.8882e-18)
(0.00137094 0.0285005 5.97961e-18)
(0.00228486 0.0284668 8.85391e-18)
(0.00319891 0.0284161 3.50979e-18)
(0.00411323 0.0283485 7.27458e-18)
(0.00502781 0.0282639 9.77659e-19)
(0.00594275 0.0281621 -3.27723e-18)
(0.00685807 0.0280429 4.67592e-18)
(0.00777378 0.0279062 -5.14091e-18)
(0.00868986 0.0277517 -1.0067e-17)
(0.00960628 0.0275792 -4.19752e-18)
(0.0105231 0.0273885 1.45187e-18)
(0.0114401 0.0271791 -1.64529e-18)
(0.0123573 0.026951 -9.58312e-18)
(0.0132746 0.0267037 -1.97013e-17)
(0.0141918 0.0264369 3.12471e-18)
(0.0151085 0.0261501 3.53653e-18)
(-0.0221876 0.0242366 8.31062e-18)
(-0.0219402 0.0240376 1.00637e-17)
(-0.0210108 0.0244914 1.89079e-17)
(-0.0200847 0.024915 4.3877e-19)
(-0.0191556 0.0253157 9.37612e-18)
(-0.0182242 0.0256939 4.27769e-18)
(-0.0172911 0.0260501 -9.45036e-18)
(-0.0163565 0.0263848 -1.2477e-17)
(-0.015421 0.0266984 -2.29459e-18)
(-0.014485 0.0269912 -3.77051e-18)
(-0.0135486 0.0272637 -1.14948e-17)
(-0.0126122 0.0275163 -3.73708e-18)
(-0.0116758 0.0277493 -2.17402e-19)
(-0.0107396 0.027963 5.2721e-18)
(-0.00980376 0.0281578 -2.09126e-18)
(-0.00886831 0.028334 -7.60672e-18)
(-0.00793327 0.0284919 -6.42938e-18)
(-0.00699869 0.0286316 -1.07124e-17)
(-0.00606453 0.0287532 -1.27407e-17)
(-0.00513074 0.0288572 1.63145e-19)
(-0.0041973 0.0289435 -5.06948e-18)
(-0.00326417 0.0290124 -8.0045e-18)
(-0.00233128 0.029064 -2.7343e-18)
(-0.00139859 0.0290984 -7.82295e-18)
(-0.000466045 0.0291157 -1.10803e-18)
(0.000466481 0.0291157 9.04425e-18)
(0.00139909 0.0290985 7.31416e-18)
(0.00233177 0.0290641 9.88679e-18)
(0.00326461 0.0290124 2.96979e-18)
(0.00419774 0.0289434 7.32945e-18)
(0.00513117 0.028857 9.5896e-19)
(0.00606496 0.0287531 -3.36677e-18)
(0.00699918 0.0286315 3.95687e-18)
(0.00793381 0.028492 -5.71443e-18)
(0.00886885 0.0283343 -9.50249e-18)
(0.00980429 0.0281582 -3.89019e-18)
(0.0107401 0.0279635 1.52553e-18)
(0.0116763 0.0277498 -1.53266e-18)
(0.0126126 0.0275169 -9.90233e-18)
(0.0135491 0.0272644 -2.09272e-17)
(0.0144855 0.026992 3.60983e-18)
(0.0154216 0.0266991 4.97443e-18)
(0.0163571 0.0263856 3.44671e-18)
(0.0172917 0.026051 8.42237e-18)
(0.0182249 0.0256948 1.73366e-17)
(-0.0226698 0.0247308 9.29226e-18)
(-0.0224009 0.0245437 9.84586e-18)
(-0.0214516 0.0250073 1.92448e-17)
(-0.0205055 0.0254401 1.37652e-18)
(-0.0195565 0.0258495 9.35651e-18)
(-0.0186051 0.0262359 4.42313e-18)
(-0.0176521 0.0265998 -1.10538e-17)
(-0.0166977 0.0269416 -1.27227e-17)
(-0.0157423 0.0272619 -1.23189e-18)
(-0.0147865 0.0275609 -3.4556e-18)
(-0.0138304 0.0278392 -1.196e-17)
(-0.0128742 0.0280971 -5.48827e-18)
(-0.0119181 0.028335 -1.3316e-18)
(-0.0109624 0.0285532 5.99241e-18)
(-0.010007 0.028752 -1.30931e-18)
(-0.00905199 0.0289319 -7.61086e-18)
(-0.00809748 0.029093 -6.09364e-18)
(-0.00714349 0.0292356 -1.04017e-17)
(-0.00618995 0.0293597 -1.35643e-17)
(-0.0052368 0.0294658 1.62496e-19)
(-0.00428404 0.0295539 -4.29961e-18)
(-0.00333162 0.0296243 -8.10938e-18)
(-0.00237943 0.0296769 -2.58519e-18)
(-0.00142747 0.029712 -7.67317e-18)
(-0.000475664 0.0297296 -1.47861e-18)
(0.000476108 0.0297296 9.26801e-18)
(0.00142797 0.0297121 8.60932e-18)
(0.00237991 0.0296769 1.06141e-17)
(0.00333203 0.0296241 2.35314e-18)
(0.00428446 0.0295537 7.42804e-18)
(0.00523722 0.0294656 1.26562e-18)
(0.00619038 0.0293596 -3.45323e-18)
(0.00714399 0.0292355 3.45659e-18)
(0.00809803 0.0290931 -6.85837e-18)
(0.00905253 0.0289321 -9.55232e-18)
(0.0100075 0.0287523 -2.94321e-18)
(0.0109629 0.0285536 1.68005e-18)
(0.0119186 0.0283355 -1.85058e-18)
(0.0128747 0.0280977 -1.03931e-17)
(0.0138308 0.0278399 -2.16386e-17)
(0.014787 0.0275616 2.94508e-18)
(0.0157428 0.0272626 4.71278e-18)
(0.0166982 0.0269424 4.1278e-18)
(0.0176527 0.0266005 8.46951e-18)
(0.0186058 0.0262367 1.78975e-17)
(0.0195572 0.0258504 1.95041e-17)
(0.0205062 0.0254409 1.97258e-17)
(-0.0231649 0.0252385 1.00868e-17)
(-0.022874 0.0250635 9.57542e-18)
(-0.0219043 0.0255371 1.97263e-17)
(-0.0209377 0.0259794 1.83618e-18)
(-0.0199682 0.0263977 9.30503e-18)
(-0.0189963 0.0267924 5.30764e-18)
(-0.0180227 0.0271641 -1.20386e-17)
(-0.0170479 0.0275133 -1.33656e-17)
(-0.0160722 0.0278404 -9.74193e-19)
(-0.015096 0.0281458 -2.92035e-18)
(-0.0141196 0.02843 -1.27587e-17)
(-0.0131432 0.0286933 -7.3356e-18)
(-0.012167 0.0289363 -1.73974e-18)
(-0.011191 0.029159 7.11465e-18)
(-0.0102155 0.029362 -6.12523e-19)
(-0.00924054 0.0295456 -7.82597e-18)
(-0.00826605 0.0297101 -6.21212e-18)
(-0.00729212 0.0298555 -1.03393e-17)
(-0.00631869 0.0299823 -1.38576e-17)
(-0.00534568 0.0300905 3.21767e-19)
(-0.00437308 0.0301805 -3.5839e-18)
(-0.00340084 0.0302522 -8.48861e-18)
(-0.00242886 0.0303059 -2.29766e-18)
(-0.00145711 0.0303418 -7.15177e-18)
(-0.000485539 0.0303597 -2.21961e-18)
(0.000485991 0.0303597 9.27642e-18)
(0.00145761 0.0303418 9.62074e-18)
(0.00242931 0.0303059 1.11585e-17)
(0.00340123 0.030252 1.83601e-18)
(0.00437348 0.0301802 7.69176e-18)
(0.00534609 0.0300903 1.88977e-18)
(0.00631912 0.0299821 -3.62062e-18)
(0.00729263 0.0298554 3.00715e-18)
(0.00826661 0.02971 -7.94773e-18)
(0.0092411 0.0295458 -1.01829e-17)
(0.0102161 0.0293623 -2.10795e-18)
(0.0111915 0.0291594 1.68343e-18)
(0.0121674 0.0289367 -2.42996e-18)
(0.0131437 0.028694 -1.06737e-17)
(0.0141201 0.0284307 -2.11978e-17)
(0.0150965 0.0281465 2.14833e-18)
(0.0160727 0.0278411 3.30451e-18)
(0.0170485 0.027514 3.42932e-18)
(0.0180233 0.0271649 7.81706e-18)
(0.018997 0.0267932 1.69719e-17)
(0.0199688 0.0263985 2.17331e-17)
(0.0209383 0.0259801 2.3612e-17)
(0.0219047 0.0255378 1.02537e-17)
(0.0228745 0.0250642 6.89756e-18)
(0.0231653 0.0252391 3.15395e-17)
(-0.0236734 0.0257602 1.05053e-17)
(-0.02336 0.0255976 9.40959e-18)
(-0.0223693 0.0260814 2.01894e-17)
(-0.0213817 0.0265334 2.01818e-18)
(-0.020391 0.0269608 9.4352e-18)
(-0.0193981 0.027364 6.12015e-18)
(-0.0184035 0.0277438 -1.27842e-17)
(-0.0174077 0.0281006 -1.43428e-17)
(-0.016411 0.0284347 -1.05204e-18)
(-0.0154139 0.0287466 -2.37296e-18)
(-0.0144167 0.0290368 -1.33901e-17)
(-0.0134195 0.0293057 -8.3007e-18)
(-0.0124225 0.0295537 -1.65138e-18)
(-0.0114259 0.0297811 7.91122e-18)
(-0.0104298 0.0299883 -3.45684e-20)
(-0.00943417 0.0301758 -8.23564e-18)
(-0.00843916 0.0303437 -6.62058e-18)
(-0.00744476 0.0304922 -9.81374e-18)
(-0.00645088 0.0306215 -1.37737e-17)
(-0.00545747 0.030732 -2.66579e-19)
(-0.00446451 0.0308238 -2.9635e-18)
(-0.00347193 0.030897 -8.88683e-18)
(-0.00247962 0.0309518 -1.8987e-18)
(-0.00148754 0.0309884 -6.33332e-18)
(-0.00049568 0.0310067 -3.26658e-18)
(0.00049614 0.0310067 9.15837e-18)
(0.00148804 0.0309884 1.06752e-17)
(0.00248004 0.0309518 1.14824e-17)
(0.00347228 0.0308968 1.04539e-18)
(0.0044649 0.0308234 8.12838e-18)
(0.00545788 0.0307316 2.71842e-18)
(0.00645132 0.0306212 -3.48107e-18)
(0.00744527 0.0304919 2.78172e-18)
(0.00843972 0.0303436 -8.84946e-18)
(0.00943475 0.0301759 -1.10135e-17)
(0.0104303 0.0299886 -1.78236e-18)
(0.0114264 0.0297814 1.4416e-18)
(0.012423 0.0295541 -3.07952e-18)
(0.01342 0.0293063 -1.06767e-17)
(0.0144171 0.0290374 -2.05636e-17)
(0.0154144 0.0287472 1.63219e-18)
(0.0164115 0.0284353 1.70713e-18)
(0.0174082 0.0281012 2.4445e-18)
(0.0184041 0.0277445 7.06908e-18)
(0.0193988 0.0273649 1.50394e-17)
(0.0203916 0.0269615 2.03154e-17)
(0.0213822 0.0265341 2.34043e-17)
(0.0223697 0.026082 1.20645e-17)
(0.0233605 0.0255983 8.21909e-18)
(0.0236738 0.0257608 3.4985e-17)
(-0.0241959 0.0262964 1.06142e-17)
(-0.0238595 0.0261464 9.546e-18)
(-0.0228472 0.0266407 2.06794e-17)
(-0.0218379 0.0271026 2.84953e-18)
(-0.0208256 0.0275394 9.7351e-18)
(-0.0198109 0.0279514 6.69759e-18)
(-0.0187947 0.0283395 -1.26731e-17)
(-0.0177774 0.0287039 -1.55206e-17)
(-0.0167592 0.0290452 -1.68087e-18)
(-0.0157406 0.0293638 -2.1559e-18)
(-0.0147219 0.0296601 -1.38747e-17)
(-0.0137033 0.0299347 -8.442e-18)
(-0.012685 0.030188 -1.23949e-18)
(-0.0116672 0.0304202 8.24145e-18)
(-0.0106498 0.0306318 -1.79108e-19)
(-0.00963309 0.0308231 -8.37591e-18)
(-0.00861699 0.0309945 -6.62613e-18)
(-0.00760155 0.0311461 -9.12882e-18)
(-0.00658668 0.0312781 -1.38755e-17)
(-0.0055723 0.0313909 -1.24098e-18)
(-0.00455842 0.0314846 -2.49245e-18)
(-0.00354495 0.0315593 -9.22193e-18)
(-0.00253176 0.0316153 -1.3816e-18)
(-0.00151882 0.0316525 -5.45835e-18)
(-0.000506095 0.0316712 -4.41338e-18)
(0.000506565 0.0316712 9.00399e-18)
(0.0015193 0.0316526 1.19428e-17)
(0.00253215 0.0316151 1.1621e-17)
(0.00354527 0.031559 6.78742e-20)
(0.0045588 0.0314841 8.50894e-18)
(0.00557272 0.0313904 3.89859e-18)
(0.00658712 0.0312778 -2.9096e-18)
(0.00760206 0.0311458 2.48822e-18)
(0.00861756 0.0309944 -9.27617e-18)
(0.00963368 0.0308232 -1.15546e-17)
(0.0106504 0.030632 -1.82994e-18)
(0.0116677 0.0304205 7.57665e-19)
(0.0126855 0.0301884 -3.64469e-18)
(0.0137038 0.0299353 -1.02476e-17)
(0.0147223 0.0296608 -1.98822e-17)
(0.015741 0.0293644 9.56656e-19)
(0.0167596 0.0290458 -3.01745e-19)
(0.0177779 0.0287045 1.75836e-18)
(0.0187953 0.0283401 7.33026e-18)
(0.0198116 0.0279522 1.44215e-17)
(0.0208261 0.0275401 1.6611e-17)
(0.0218384 0.0271033 2.1051e-17)
(0.0228476 0.0266414 1.1476e-17)
(0.02386 0.0261471 7.55795e-18)
(0.0241963 0.0262971 3.44182e-17)
(-0.024733 0.0268479 1.03136e-17)
(-0.0243731 0.0267106 1.01285e-17)
(-0.0233385 0.0272157 2.09877e-17)
(-0.0223069 0.0276878 4.03893e-18)
(-0.0212723 0.0281342 1.00927e-17)
(-0.0202353 0.0285552 7.18389e-18)
(-0.0191969 0.0289517 -1.23492e-17)
(-0.0181573 0.0293241 -1.7325e-17)
(-0.017117 0.0296727 -2.95395e-18)
(-0.0160763 0.0299981 -2.17241e-18)
(-0.0150356 0.0303008 -1.46206e-17)
(-0.013995 0.0305813 -8.30088e-18)
(-0.0129548 0.0308399 -4.18026e-19)
(-0.0119151 0.0310769 7.81355e-18)
(-0.010876 0.031293 -9.43829e-19)
(-0.00983751 0.0314884 -8.22199e-18)
(-0.00879974 0.0316633 -6.11657e-18)
(-0.00776268 0.031818 -8.32829e-18)
(-0.00672623 0.0319527 -1.43881e-17)
(-0.00569031 0.0320679 -2.04483e-18)
(-0.00465493 0.0321636 -2.01757e-18)
(-0.00361998 0.0322398 -9.60077e-18)
(-0.00258534 0.0322969 -1.03189e-18)
(-0.00155095 0.0323349 -4.65292e-18)
(-0.000516798 0.032354 -5.2628e-18)
(0.000517275 0.032354 9.00604e-18)
(0.00155142 0.0323349 1.31596e-17)
(0.0025857 0.0322967 1.17814e-17)
(0.00362028 0.0322395 -9.32715e-19)
(0.00465529 0.032163 8.61294e-18)
(0.00569072 0.0320674 5.13973e-18)
(0.00672667 0.0319524 -1.99556e-18)
(0.00776319 0.0318177 2.12047e-18)
(0.00880032 0.0316631 -9.50726e-18)
(0.00983811 0.0314884 -1.18453e-17)
(0.0108765 0.0312932 -2.04847e-18)
(0.0119156 0.0310772 -7.02361e-20)
(0.0129553 0.0308402 -3.83298e-18)
(0.0139955 0.0305818 -9.59876e-18)
(0.015036 0.0303014 -1.90594e-17)
(0.0160767 0.0299987 3.72102e-19)
(0.0171174 0.0296733 -2.80672e-18)
(0.0181578 0.0293247 4.9587e-19)
(0.0191975 0.0289524 7.83858e-18)
(0.020236 0.028556 1.49703e-17)
(0.0212728 0.0281349 1.32707e-17)
(0.0223074 0.0276885 1.9548e-17)
(0.0233389 0.0272164 1.06245e-17)
(0.0243735 0.0267113 6.43887e-18)
(0.0247334 0.0268485 3.17173e-17)
(-0.0252853 0.0274152 9.60454e-18)
(-0.0249012 0.0272909 1.10954e-17)
(-0.0238437 0.027807 2.11292e-17)
(-0.0227892 0.0282896 5.20785e-18)
(-0.0217316 0.0287458 1.04846e-17)
(-0.0206717 0.029176 7.18347e-18)
(-0.0196104 0.0295812 -1.22276e-17)
(-0.018548 0.0299617 -1.94259e-17)
(-0.0174849 0.0303178 -4.62245e-18)
(-0.0164215 0.0306503 -1.89222e-18)
(-0.0153581 0.0309595 -1.54251e-17)
(-0.0142949 0.0312459 -7.98043e-18)
(-0.0132322 0.03151 7.24803e-19)
(-0.01217 0.0317521 6.72211e-18)
(-0.0111085 0.0319727 -1.9908e-18)
(-0.0100477 0.0321722 -7.41467e-18)
(-0.00898761 0.0323508 -5.04714e-18)
(-0.00792832 0.0325087 -7.88384e-18)
(-0.00686967 0.0326462 -1.4982e-17)
(-0.00581162 0.0327638 -2.59509e-18)
(-0.00475413 0.0328614 -1.70664e-18)
(-0.00369711 0.0329393 -1.00625e-17)
(-0.00264041 0.0329976 -9.78306e-19)
(-0.00158399 0.0330364 -3.87732e-18)
(-0.000527803 0.0330558 -5.42791e-18)
(0.000528282 0.0330558 9.26048e-18)
(0.00158443 0.0330363 1.39953e-17)
(0.00264074 0.0329973 1.18555e-17)
(0.00369739 0.0329389 -1.93184e-18)
(0.00475448 0.0328609 8.76903e-18)
(0.00581203 0.0327632 6.37094e-18)
(0.00687013 0.0326459 -1.12236e-18)
(0.00792882 0.0325083 1.48334e-18)
(0.0089882 0.0323505 -9.49205e-18)
(0.0100483 0.0321721 -1.14348e-17)
(0.011109 0.0319729 -2.41222e-18)
(0.0121705 0.0317523 -9.43387e-19)
(0.0132327 0.0315104 -3.83551e-18)
(0.0142954 0.0312464 -8.94619e-18)
(0.0153585 0.0309601 -1.82622e-17)
(0.0164219 0.0306509 5.7196e-19)
(0.0174853 0.0303184 -5.40772e-18)
(0.0185485 0.0299623 -9.28909e-19)
(0.019611 0.0295819 7.80125e-18)
(0.0206724 0.0291769 1.51677e-17)
(0.0217321 0.0287465 1.04867e-17)
(0.0227897 0.0282903 1.82717e-17)
(0.0238441 0.0278077 1.14301e-17)
(0.0249017 0.0272915 6.4015e-18)
(0.0252856 0.0274158 2.93065e-17)
(-0.0258535 0.027999 9.44473e-18)
(-0.0254446 0.0278878 1.25394e-17)
(-0.0243634 0.0284153 2.08966e-17)
(-0.0232853 0.0289087 6.58453e-18)
(-0.0222041 0.0293749 1.0862e-17)
(-0.0211207 0.0298147 7.06909e-18)
(-0.0200357 0.0302287 -1.16263e-17)
(-0.0189499 0.0306176 -2.14783e-17)
(-0.0178633 0.0309814 -6.75447e-18)
(-0.0167765 0.0313211 -1.20517e-18)
(-0.0156898 0.0316369 -1.62308e-17)
(-0.0146034 0.0319295 -8.11777e-18)
(-0.0135175 0.0321992 1.93401e-18)
(-0.0124322 0.0324464 6.15902e-18)
(-0.0113476 0.0326718 -2.91133e-18)
(-0.0102638 0.0328754 -6.28923e-18)
(-0.00918081 0.0330577 -3.66527e-18)
(-0.00809865 0.0332189 -8.15443e-18)
(-0.00701719 0.0333594 -1.55292e-17)
(-0.00593636 0.0334794 -2.93372e-18)
(-0.00485615 0.033579 -1.64315e-18)
(-0.00377642 0.0336585 -1.05921e-17)
(-0.00269704 0.0337181 -1.112e-18)
(-0.00161796 0.0337577 -3.01508e-18)
(-0.000539124 0.0337774 -4.91738e-18)
(0.000539596 0.0337774 9.64709e-18)
(0.00161838 0.0337575 1.42658e-17)
(0.00269735 0.0337177 1.21139e-17)
(0.00377668 0.0336581 -2.51972e-18)
(0.00485648 0.0335785 8.66863e-18)
(0.00593678 0.0334788 7.25659e-18)
(0.00701766 0.033359 -4.57007e-19)
(0.00809916 0.0332185 4.1772e-19)
(0.00918141 0.0330574 -9.24909e-18)
(0.0102644 0.0328753 -1.03352e-17)
(0.0113482 0.0326718 -2.8293e-18)
(0.0124327 0.0324467 -1.5841e-18)
(0.013518 0.0321995 -3.4989e-18)
(0.0146039 0.0319299 -8.85931e-18)
(0.0156902 0.0316375 -1.75432e-17)
(0.0167769 0.0313216 1.39718e-18)
(0.0178637 0.030982 -7.87271e-18)
(0.0189504 0.0306181 -2.2471e-18)
(0.0200364 0.0302295 7.57694e-18)
(0.0211213 0.0298155 1.52283e-17)
(0.0222046 0.0293757 8.26936e-18)
(0.0232858 0.0289094 1.6811e-17)
(0.0243639 0.0284161 1.21326e-17)
(0.025445 0.0278885 7.33157e-18)
(0.0258537 0.0279996 2.73269e-17)
(-0.0264381 0.0285999 1.02844e-17)
(-0.0260038 0.0285022 1.4112e-17)
(-0.0248984 0.0290414 1.9995e-17)
(-0.0237959 0.0295458 8.13138e-18)
(-0.0226904 0.0300224 1.09835e-17)
(-0.0215826 0.0304719 6.41857e-18)
(-0.0204734 0.0308951 -1.07016e-17)
(-0.0193633 0.0312924 -2.36301e-17)
(-0.0182527 0.0316642 -9.09158e-18)
(-0.0171418 0.0320113 -2.90551e-19)
(-0.0160311 0.0323339 -1.68734e-17)
(-0.0149208 0.0326328 -8.54561e-18)
(-0.013811 0.0329082 3.13959e-18)
(-0.0127019 0.0331608 6.00101e-18)
(-0.0115936 0.0333909 -3.59203e-18)
(-0.0104861 0.0335988 -4.6046e-18)
(-0.00937957 0.033785 -2.52588e-18)