/*--------------------------------*- C++ -*----------------------------------*\
  =========                 |
  \\      /  F ield         | OpenFOAM: The Open Source CFD Toolbox
   \\    /   O peration     | Website:  https://openfoam.org
    \\  /    A nd           | Version:  7
     \\/     M anipulation  |
\*---------------------------------------------------------------------------*/
FoamFile
{
    version     2.0;
    format      ascii;
    class       volVectorField;
    location    "24000";
    object      U;
}
// * * * * * * * * * * * * * * * * * * * * * * * * * * * * * * * * * * * * * //

dimensions      [0 1 -1 0 0 0 0];

internalField   nonuniform List<vector> 
1762
(
(-1.14499e-18 4.86218e-19 -0.0132922)
(-1.00597e-18 1.42783e-18 -0.013331)
(-1.14222e-18 4.23078e-19 -0.0133677)
(1.12865e-19 1.70622e-18 -0.0134025)
(-7.7356e-19 1.78077e-18 -0.0134351)
(-4.53979e-19 5.47331e-19 -0.0134654)
(1.42096e-19 7.21429e-19 -0.0134932)
(8.71263e-19 1.60567e-19 -0.0135182)
(2.30582e-19 -2.39044e-19 -0.0135403)
(-8.92673e-19 9.09614e-19 -0.0135596)
(9.11018e-19 1.62248e-18 -0.0135757)
(-2.52454e-19 2.30614e-19 -0.0135887)
(-7.68784e-19 4.22367e-19 -0.0132002)
(-8.92137e-19 1.35984e-18 -0.0132391)
(-1.51975e-18 9.71193e-19 -0.0132759)
(-2.67969e-19 2.50045e-18 -0.0133109)
(-7.02473e-19 1.52155e-18 -0.0133437)
(-5.78169e-19 5.92823e-19 -0.0133741)
(-8.87892e-20 1.12438e-18 -0.013402)
(3.54768e-19 1.2851e-18 -0.0134271)
(2.34776e-19 -8.96325e-20 -0.0134493)
(-7.68253e-19 8.51384e-19 -0.0134686)
(1.05829e-18 1.04834e-18 -0.0134849)
(-1.83902e-19 -2.29053e-19 -0.0134979)
(-5.11819e-19 4.1253e-19 -0.0131069)
(-8.73098e-19 1.51866e-18 -0.0131459)
(-1.60875e-18 1.26843e-18 -0.013183)
(-7.26559e-19 3.28517e-18 -0.0132181)
(-5.76433e-19 1.0518e-18 -0.013251)
(-6.93131e-19 7.17939e-19 -0.0132816)
(7.21288e-20 9.33264e-19 -0.0133095)
(-1.71539e-19 2.45817e-18 -0.0133348)
(1.85273e-19 -2.1579e-19 -0.0133571)
(-7.65517e-19 9.89765e-19 -0.0133765)
(1.20354e-18 3.80952e-19 -0.0133928)
(-9.10979e-21 -7.32131e-19 -0.0134059)
(-2.90071e-19 4.95745e-19 -0.0130123)
(-8.68063e-19 1.69385e-18 -0.0130516)
(-1.43068e-18 1.20233e-18 -0.0130888)
(-6.76832e-19 3.20447e-18 -0.013124)
(-6.21887e-19 7.75259e-19 -0.0131571)
(-7.93073e-19 7.69976e-19 -0.0131878)
(2.95144e-19 6.79154e-19 -0.0132159)
(-2.92609e-19 2.58906e-18 -0.0132412)
(1.20071e-19 -3.54497e-19 -0.0132637)
(-7.46971e-19 1.02015e-18 -0.0132831)
(1.15254e-18 3.02212e-19 -0.0132995)
(1.6275e-19 -1.13266e-18 -0.0133127)
(-8.66435e-20 5.85987e-19 -0.0129164)
(-6.0224e-19 1.51788e-18 -0.0129559)
(-1.24592e-18 1.06054e-18 -0.0129932)
(-1.40714e-19 2.38286e-18 -0.0130287)
(-7.19384e-19 7.0917e-19 -0.0130619)
(-7.84658e-19 5.89515e-19 -0.0130927)
(4.77337e-19 4.51519e-19 -0.0131209)
(-2.61788e-19 2.35701e-18 -0.0131464)
(2.12878e-20 -3.92963e-19 -0.0131689)
(-6.87201e-19 9.64324e-19 -0.0131885)
(1.03612e-18 5.28549e-19 -0.0132049)
(1.36926e-19 -7.62822e-19 -0.0132181)
(4.03016e-20 7.54015e-19 -0.0128192)
(-2.30542e-19 1.19253e-18 -0.0128588)
(-1.24866e-18 1.11312e-18 -0.0128963)
(3.63278e-19 1.6239e-18 -0.0129319)
(-8.57169e-19 7.76625e-19 -0.0129653)
(-7.5784e-19 2.9467e-19 -0.0129963)
(4.96265e-19 6.34329e-19 -0.0130246)
(-2.53776e-19 2.24089e-18 -0.0130502)
(-6.10021e-20 -4.14852e-19 -0.0130728)
(-7.2804e-19 1.32388e-18 -0.0130925)
(1.01663e-18 5.74958e-19 -0.013109)
(4.73675e-21 -5.3051e-20 -0.0131222)
(4.45935e-19 5.50254e-19 -0.0127205)
(-2.63292e-20 1.10468e-18 -0.0127603)
(-1.12752e-18 9.75096e-19 -0.012798)
(5.98018e-19 1.29557e-18 -0.0128338)
(-1.01841e-18 9.60723e-19 -0.0128673)
(-8.17789e-19 2.37881e-19 -0.0128984)
(4.98599e-19 8.67569e-19 -0.0129269)
(-4.06956e-19 2.43422e-18 -0.0129526)
(-1.96234e-19 -1.54845e-19 -0.0129753)
(-8.43851e-19 1.91719e-18 -0.012995)
(1.00362e-18 5.66498e-19 -0.0130116)
(-3.73553e-20 1.24888e-19 -0.0130249)
(9.33648e-19 2.19077e-19 -0.0126204)
(2.48119e-19 9.56495e-19 -0.0126603)
(-8.57156e-19 5.96327e-19 -0.0126982)
(7.27767e-19 1.2232e-18 -0.0127342)
(-1.04503e-18 9.14069e-19 -0.0127679)
(-9.05225e-19 1.47199e-19 -0.0127991)
(5.91987e-19 9.60195e-19 -0.0128277)
(-4.89378e-19 2.57514e-18 -0.0128535)
(-3.90739e-19 3.14658e-19 -0.0128763)
(-8.52611e-19 2.02574e-18 -0.0128961)
(9.34162e-19 6.05824e-19 -0.0129128)
(1.23723e-18 -6.33918e-20 -0.0125186)
(9.03004e-19 3.24555e-19 -0.0125588)
(-8.88172e-19 6.93997e-19 -0.0125969)
(8.62079e-19 1.1532e-18 -0.012633)
(-7.55313e-19 3.24457e-19 -0.0126668)
(-1.09591e-18 3.48585e-19 -0.0126982)
(6.81359e-19 1.05667e-18 -0.012727)
(-3.78923e-19 2.2423e-18 -0.0127529)
(-5.39354e-19 6.0548e-19 -0.0127758)
(-7.38541e-19 1.59921e-18 -0.0127957)
(9.07016e-19 4.61786e-19 -0.0128124)
(1.22337e-18 -1.6139e-19 -0.0124152)
(1.30279e-18 1.20818e-19 -0.0124556)
(-1.11888e-18 1.16472e-18 -0.0124939)
(6.95392e-19 1.39174e-18 -0.0125301)
(-4.1524e-19 -2.73146e-19 -0.0125642)
(-1.49506e-18 1.03831e-18 -0.0125957)
(9.20434e-19 6.51184e-19 -0.0126246)
(-6.94251e-20 1.46842e-18 -0.0126506)
(-5.66826e-19 5.46309e-19 -0.0126737)
(-7.0207e-19 1.35188e-18 -0.0126936)
(9.61879e-19 6.11804e-20 -0.0127104)
(8.99033e-19 1.51796e-20 -0.0123101)
(1.38424e-18 3.3354e-19 -0.0123507)
(-1.1385e-18 1.381e-18 -0.0123891)
(5.3248e-19 1.54262e-18 -0.0124256)
(-2.50692e-19 -5.24382e-19 -0.0124598)
(-1.76608e-18 1.43799e-18 -0.0124915)
(8.93471e-19 5.59149e-19 -0.0125205)
(2.43289e-19 7.58367e-19 -0.0125467)
(-4.51311e-19 2.52761e-19 -0.0125698)
(-7.97365e-19 1.52495e-18 -0.0125899)
(9.89008e-19 -1.52315e-19 -0.0126067)
(1.78133e-19 6.63305e-19 -0.0122031)
(1.46558e-18 5.25329e-19 -0.0122439)
(-9.43434e-19 1.27753e-18 -0.0122826)
(4.49324e-19 1.54829e-18 -0.0123193)
(-2.83809e-19 -3.9743e-19 -0.0123536)
(-1.84282e-18 1.52993e-18 -0.0123855)
(6.39428e-19 9.09765e-19 -0.0124146)
(3.05472e-19 5.66007e-19 -0.0124409)
(-2.20518e-19 -2.40914e-19 -0.0124642)
(-8.22175e-19 1.53566e-18 -0.0124844)
(9.30544e-19 -1.09197e-19 -0.0125013)
(-4.3715e-19 1.21487e-18 -0.0120943)
(1.36104e-18 8.04712e-19 -0.0121353)
(-7.05156e-19 1.12749e-18 -0.0121742)
(1.90365e-19 1.90407e-18 -0.012211)
(-4.02876e-19 -1.22155e-19 -0.0122456)
(-1.96515e-18 1.6915e-18 -0.0122776)
(2.69412e-19 1.49346e-18 -0.0123069)
(2.86098e-19 4.38237e-19 -0.0123333)
(-1.49165e-19 -3.21707e-19 -0.0123567)
(-7.47751e-19 1.33925e-18 -0.012377)
(8.77222e-19 5.63236e-21 -0.012394)
(-4.04854e-19 1.08673e-18 -0.0119834)
(9.58642e-19 1.4473e-18 -0.0120246)
(-5.86821e-19 1.15814e-18 -0.0120638)
(-1.73485e-19 2.45302e-18 -0.0121008)
(-4.71566e-19 2.99324e-20 -0.0121356)
(-1.85016e-18 1.48264e-18 -0.0121677)
(7.02739e-20 1.63147e-18 -0.0121972)
(3.26871e-19 7.53249e-20 -0.0122237)
(-1.89537e-19 -1.87768e-20 -0.0122472)
(-7.22063e-19 1.26373e-18 -0.0122676)
(7.93694e-19 2.28031e-19 -0.0122847)
(-3.77059e-20 6.55395e-19 -0.0118704)
(6.96691e-19 1.9442e-18 -0.0119119)
(-5.62004e-19 1.2927e-18 -0.0119512)
(-3.01496e-19 2.65021e-18 -0.0119885)
(-4.23812e-19 -1.52516e-19 -0.0120234)
(-1.66776e-18 1.05089e-18 -0.0120558)
(2.07061e-19 1.03902e-18 -0.0120854)
(3.7124e-19 -2.03143e-19 -0.012112)
(-6.79401e-20 -1.30596e-19 -0.0121357)
(-7.14477e-19 1.29459e-18 -0.0121561)
(7.13663e-19 4.98278e-19 -0.0121733)
(2.69091e-19 3.0468e-19 -0.0117551)
(8.37768e-19 2.01147e-18 -0.0117969)
(-3.64648e-19 1.16502e-18 -0.0118364)
(1.09224e-19 1.95976e-18 -0.0118739)
(-3.67382e-19 -3.55266e-19 -0.011909)
(-1.68288e-18 9.94801e-19 -0.0119416)
(3.44357e-19 4.55043e-19 -0.0119713)
(2.81644e-19 -1.14845e-19 -0.0119982)
(8.83246e-20 -2.8583e-19 -0.0120219)
(-8.05094e-19 1.8045e-18 -0.0120425)
(6.80977e-19 6.22441e-19 -0.0120598)
(3.06268e-19 2.2448e-19 -0.0116375)
(9.54876e-19 2.08201e-18 -0.0116795)
(8.55003e-20 5.91236e-19 -0.0117193)
(4.41566e-19 1.44982e-18 -0.011757)
(-4.29238e-19 -2.14045e-19 -0.0117923)
(-1.80395e-18 1.0611e-18 -0.0118251)
(3.46291e-19 1.82908e-19 -0.011855)
(9.15235e-20 3.09386e-19 -0.011882)
(1.54523e-19 -8.25567e-20 -0.0119058)
(-8.84811e-19 2.27858e-18 -0.0119265)
(6.15865e-19 5.65157e-19 -0.0119439)
(4.48541e-19 2.66759e-20 -0.0115173)
(8.41985e-19 2.38825e-18 -0.0115596)
(2.85707e-19 3.658e-19 -0.0115996)
(3.36509e-19 1.69975e-18 -0.0116376)
(-3.41973e-19 -3.35942e-19 -0.0116731)
(-1.8266e-18 9.21989e-19 -0.011706)
(7.50882e-20 5.69763e-19 -0.0117361)
(-1.18756e-19 8.15037e-19 -0.0117633)
(1.83478e-19 1.75348e-19 -0.0117873)
(-8.08994e-19 2.1403e-18 -0.0118081)
(5.26047e-19 5.29328e-19 -0.0118256)
(4.83396e-19 4.03319e-21 -0.0113944)
(7.02135e-19 2.77934e-18 -0.011437)
(1.18218e-19 6.31496e-19 -0.0114773)
(1.95955e-19 1.94511e-18 -0.0115155)
(-2.98991e-19 -4.39959e-19 -0.0115513)
(-1.74372e-18 6.95473e-19 -0.0115844)
(-2.47088e-19 1.15267e-18 -0.0116147)
(-2.90226e-19 1.13973e-18 -0.011642)
(2.29976e-19 2.65009e-19 -0.0116661)
(-6.52448e-19 1.71042e-18 -0.0116871)
(4.38459e-19 5.21777e-19 -0.0117046)
(4.37327e-19 1.23368e-19 -0.0112687)
(6.96412e-19 3.00905e-18 -0.0113116)
(2.26042e-19 5.08917e-19 -0.0113522)
(2.57394e-19 1.87825e-18 -0.0113907)
(-3.18458e-19 -4.74358e-19 -0.0114267)
(-1.73431e-18 6.3465e-19 -0.01146)
(-3.7243e-19 1.34832e-18 -0.0114904)
(-2.98994e-19 9.87715e-19 -0.0115179)
(2.25581e-19 4.20534e-19 -0.0115422)
(-6.25377e-19 1.73895e-18 -0.0115632)
(3.62399e-19 5.62864e-19 -0.0115809)
(6.85067e-19 -4.80727e-20 -0.01114)
(1.10576e-18 2.69426e-18 -0.0111832)
(7.26341e-19 -1.91361e-19 -0.0112241)
(4.82859e-19 1.59132e-18 -0.0112628)
(1.41789e-20 -1.07482e-18 -0.011299)
(-1.75355e-18 6.46173e-19 -0.0113326)
(-2.15117e-19 8.60589e-19 -0.0113632)
(-2.91005e-19 8.33614e-19 -0.0113909)
(2.67436e-19 5.94058e-19 -0.0114153)
(-6.73953e-19 2.01477e-18 -0.0114365)
(2.84518e-19 5.34979e-19 -0.0114543)
(1.09931e-18 -4.94103e-19 -0.0110081)
(1.70271e-18 2.11465e-18 -0.0110516)
(1.29572e-18 -9.36721e-19 -0.0110928)
(5.18838e-19 1.59174e-18 -0.0111317)
(1.87619e-19 -1.38699e-18 -0.0111682)
(-1.6378e-18 4.10072e-19 -0.011202)
(-9.15853e-20 4.77832e-19 -0.0112329)
(-2.83115e-19 7.86919e-19 -0.0112607)
(3.60925e-19 6.0329e-19 -0.0112853)
(-6.25314e-19 1.92457e-18 -0.0113066)
(2.18064e-19 5.08831e-19 -0.0113245)
(1.34256e-18 -8.4308e-19 -0.0108727)
(1.9039e-18 2.01617e-18 -0.0109165)
(1.70839e-18 -1.41103e-18 -0.010958)
(4.38945e-19 1.85405e-18 -0.0109973)
(1.74106e-20 -1.18314e-18 -0.011034)
(-1.45154e-18 2.15354e-20 -0.011068)
(-2.77874e-19 7.8611e-19 -0.0110991)
(-3.18623e-19 8.26764e-19 -0.0111271)
(5.32812e-19 4.11332e-19 -0.0111519)
(-5.52332e-19 1.78355e-18 -0.0111733)
(1.37234e-19 5.91377e-19 -0.0111914)
(1.1428e-18 -6.9855e-19 -0.0107336)
(1.71212e-18 2.38691e-18 -0.0107778)
(1.87992e-18 -1.55695e-18 -0.0108196)
(5.10235e-19 1.92692e-18 -0.0108592)
(-1.35538e-20 -1.27198e-18 -0.0108962)
(-1.31543e-18 -2.29241e-19 -0.0109304)
(-4.79439e-19 1.2147e-18 -0.0109617)
(-4.79711e-19 1.07266e-18 -0.0109899)
(7.29489e-19 9.44637e-20 -0.0110149)
(-4.50523e-19 1.61694e-18 -0.0110365)
(7.65168e-20 5.13188e-19 -0.0110546)
(8.67202e-19 -4.08082e-19 -0.0105906)
(1.4531e-18 2.80711e-18 -0.0106351)
(1.81278e-18 -1.43486e-18 -0.0106773)
(5.40247e-19 2.04861e-18 -0.0107172)
(2.3785e-20 -1.48604e-18 -0.0107545)
(-1.3532e-18 -8.58132e-20 -0.010789)
(-3.99675e-19 1.06973e-18 -0.0108205)
(-6.18372e-19 1.18226e-18 -0.0108489)
(7.98184e-19 1.09717e-19 -0.0108741)
(-2.89493e-19 1.27395e-18 -0.0108958)
(6.58546e-19 -1.83108e-19 -0.0104433)
(1.48618e-18 2.88016e-18 -0.0104883)
(1.59781e-18 -1.11449e-18 -0.0105308)
(3.31541e-19 2.50587e-18 -0.010571)
(5.77723e-20 -1.6968e-18 -0.0106086)
(-1.48233e-18 1.90778e-19 -0.0106433)
(-1.26506e-19 4.92747e-19 -0.0106751)
(-7.22638e-19 1.29665e-18 -0.0107037)
(7.0642e-19 5.23885e-19 -0.0107291)
(-1.16582e-19 9.14249e-19 -0.010751)
(2.7729e-19 2.3066e-19 -0.0102915)
(1.72699e-18 2.70382e-18 -0.0103369)
(1.45478e-18 -8.34381e-19 -0.0103797)
(1.65156e-19 2.85509e-18 -0.0104203)
(1.06626e-19 -1.98204e-18 -0.0104582)
(-1.47096e-18 1.82916e-19 -0.0104932)
(5.14781e-20 1.31525e-19 -0.0105253)
(-7.98157e-19 1.44804e-18 -0.0105541)
(6.07333e-19 9.06294e-19 -0.0105797)
(-1.20354e-19 1.09126e-18 -0.0106018)
(-3.18097e-19 8.76702e-19 -0.0101348)
(1.93347e-18 2.53718e-18 -0.0101806)
(1.2738e-18 -4.78409e-19 -0.0102238)
(3.10146e-19 2.70598e-18 -0.0102647)
(-9.04146e-20 -1.88283e-18 -0.0103029)
(-1.36625e-18 8.99987e-21 -0.0103383)
(1.21791e-19 4.81079e-20 -0.0103706)
(-6.95551e-19 1.20086e-18 -0.0103997)
(5.61141e-19 1.18397e-18 -0.0104254)
(-2.33439e-19 1.57683e-18 -0.0104477)
(-7.16351e-19 1.29875e-18 -0.00997278)
(2.13674e-18 2.3516e-18 -0.010019)
(1.05581e-18 -8.52698e-20 -0.0100627)
(7.46251e-19 2.1162e-18 -0.0101039)
(-5.54152e-19 -1.33138e-18 -0.0101425)
(-1.25592e-18 -2.12934e-19 -0.0101782)
(6.45874e-20 2.08041e-19 -0.0102108)
(-4.8093e-19 7.13272e-19 -0.0102401)
(5.73889e-19 1.41031e-18 -0.0102661)
(-1.98554e-19 1.47752e-18 -0.0102885)
(-6.61616e-19 1.22429e-18 -0.00980505)
(2.28031e-18 2.23863e-18 -0.00985174)
(1.0201e-18 2.7172e-20 -0.00989583)
(1.13426e-18 1.62626e-18 -0.00993747)
(-8.46034e-19 -1.02751e-18 -0.00997639)
(-1.16309e-18 -4.31525e-19 -0.0100124)
(-7.08385e-20 5.43853e-19 -0.0100453)
(-4.21434e-19 5.98175e-19 -0.0100749)
(6.50403e-19 1.43384e-18 -0.0101011)
(-4.63814e-20 9.52016e-19 -0.0101237)
(-5.52077e-19 1.07082e-18 -0.00963112)
(2.14566e-18 2.46896e-18 -0.0096783)
(1.10195e-18 -3.43834e-20 -0.00972282)
(1.26318e-18 1.52797e-18 -0.00976486)
(-7.87177e-19 -1.32033e-18 -0.00980416)
(-1.0944e-18 -5.77989e-19 -0.00984049)
(-1.35671e-19 7.60997e-19 -0.00987369)
(-4.42362e-19 6.44333e-19 -0.00990358)
(8.45478e-19 1.05334e-18 -0.00993002)
(1.03341e-19 3.92652e-19 -0.0099529)
(-6.22643e-19 1.13099e-18 -0.00945044)
(1.8973e-18 2.82585e-18 -0.00949813)
(1.0311e-18 7.05318e-20 -0.00954311)
(1.4571e-18 1.303e-18 -0.00958557)
(-7.04164e-19 -1.66184e-18 -0.00962526)
(-1.06255e-18 -6.02596e-19 -0.00966196)
(-7.71644e-20 7.38596e-19 -0.00969548)
(-3.93507e-19 4.52063e-19 -0.00972566)
(1.01309e-18 6.83954e-19 -0.00975235)
(1.85765e-19 9.21321e-20 -0.00977545)
(-4.32223e-19 9.33649e-19 -0.00926243)
(1.78244e-18 3.02136e-18 -0.00931064)
(9.01465e-19 2.01242e-19 -0.00935611)
(1.79673e-18 8.34335e-19 -0.00939901)
(-8.99562e-19 -1.51428e-18 -0.0094391)
(-1.15171e-18 -3.99328e-19 -0.00947617)
(4.71381e-21 6.39132e-19 -0.00951003)
(-2.90842e-19 1.32793e-19 -0.00954052)
(1.06798e-18 6.79725e-19 -0.00956749)
(1.79313e-19 7.53178e-20 -0.00959081)
(-3.95799e-20 5.23405e-19 -0.00906642)
(1.86099e-18 3.01097e-18 -0.00911517)
(8.02828e-19 2.40155e-19 -0.00916113)
(2.05798e-18 5.04164e-19 -0.00920449)
(-1.14214e-18 -1.22529e-18 -0.00924501)
(-1.31534e-18 -8.92615e-20 -0.00928247)
(3.48463e-20 6.14187e-19 -0.00931669)
(-2.83492e-19 6.0178e-20 -0.0093475)
(1.1247e-18 6.96796e-19 -0.00937474)
(1.81225e-19 2.69595e-20 -0.00939831)
(1.87941e-19 2.9163e-19 -0.00886164)
(2.11408e-18 2.81126e-18 -0.00891095)
(6.81499e-19 2.93955e-19 -0.00895743)
(2.03982e-18 5.89334e-19 -0.00900127)
(-1.1654e-18 -1.27002e-18 -0.00904223)
(-1.47952e-18 2.15306e-19 -0.0090801)
(7.81745e-20 5.48994e-19 -0.00911469)
(-2.96408e-19 3.0594e-20 -0.00914583)
(1.15161e-18 7.84231e-19 -0.00917337)
(1.84534e-19 2.13826e-20 -0.00919719)
(3.2488e-19 1.35611e-19 -0.00864725)
(2.50087e-18 2.4606e-18 -0.00869714)
(7.14034e-19 1.62035e-19 -0.00874415)
(1.8652e-18 8.82293e-19 -0.00878848)
(-1.16296e-18 -1.35231e-18 -0.00882991)
(-1.5826e-18 4.15533e-19 -0.0088682)
(1.49044e-19 3.85244e-19 -0.00890318)
(-2.51576e-19 -1.13111e-19 -0.00893466)
(1.13048e-18 1.03356e-18 -0.00896251)
(1.81784e-19 5.41087e-20 -0.0089866)
(3.12016e-19 1.13461e-19 -0.0084223)
(3.0259e-18 1.93215e-18 -0.00847279)
(9.29931e-19 -1.83181e-19 -0.00852034)
(1.82218e-18 9.95676e-19 -0.00856518)
(-1.2835e-18 -1.23597e-18 -0.00860708)
(-1.57144e-18 3.8609e-19 -0.00864582)
(2.18223e-19 2.06648e-19 -0.00868119)
(-2.90794e-19 -6.22874e-21 -0.00871304)
(1.23216e-18 9.49162e-19 -0.0087412)
(1.98088e-19 -2.8048e-20 -0.00876556)
(9.85839e-20 2.94162e-19 -0.00818573)
(3.47513e-18 1.46111e-18 -0.00823682)
(9.92478e-19 -2.99044e-19 -0.00828492)
(1.89691e-18 9.6457e-19 -0.00833029)
(-1.4595e-18 -1.02536e-18 -0.00837267)
(-1.48749e-18 2.00495e-19 -0.00841185)
(2.29705e-19 1.81202e-19 -0.00844764)
(-4.63653e-19 4.08103e-19 -0.00847985)
(1.38967e-18 6.6242e-19 -0.00850834)
(2.42595e-19 -1.83345e-19 -0.00853299)
(-1.62857e-19 5.25612e-19 -0.00793634)
(3.61929e-18 1.33217e-18 -0.00798803)
(1.07814e-18 -4.31029e-19 -0.00803669)
(1.88235e-18 1.07136e-18 -0.00808257)
(-1.6016e-18 -8.71407e-19 -0.00812544)
(-1.44834e-18 8.59867e-20 -0.00816508)
(2.59204e-19 1.7477e-19 -0.00820128)
(-6.39849e-19 8.22947e-19 -0.00823386)
(1.39575e-18 7.52498e-19 -0.00826269)
(2.87135e-19 -2.95085e-19 -0.00828762)
(-1.74581e-19 4.76182e-19 -0.0076728)
(3.50826e-18 1.46294e-18 -0.00772506)
(1.21965e-18 -6.33803e-19 -0.00777427)
(1.91372e-18 1.12713e-18 -0.00782066)
(-1.61243e-18 -9.3574e-19 -0.00786402)
(-1.46008e-18 6.18819e-20 -0.0079041)
(3.20213e-19 1.28772e-19 -0.00794072)
(-6.50063e-19 8.64494e-19 -0.00797368)
(1.34597e-18 9.66113e-19 -0.00800284)
(2.78205e-19 -2.30765e-19 -0.00802806)
(-6.18689e-20 2.83196e-19 -0.00739362)
(3.25581e-18 1.75619e-18 -0.00744643)
(1.05559e-18 -4.49679e-19 -0.00749615)
(2.03907e-18 1.03266e-18 -0.00754304)
(-1.55711e-18 -1.10009e-18 -0.00758686)
(-1.45313e-18 1.52491e-20 -0.00762738)
(3.00675e-19 2.48348e-19 -0.00766439)
(-5.34091e-19 6.27074e-19 -0.00769772)
(1.35978e-18 1.03041e-18 -0.0077272)
(2.79139e-19 -1.92545e-19 -0.00775271)
(-5.02352e-20 2.1263e-19 -0.00709721)
(3.06607e-18 1.98262e-18 -0.00715051)
(8.59502e-19 -2.52773e-19 -0.00720069)
(2.14507e-18 9.25281e-19 -0.00724802)
(-1.52232e-18 -1.20877e-18 -0.00729226)
(-1.47311e-18 5.17269e-20 -0.00733318)
(3.10221e-19 3.06831e-19 -0.00737056)
(-4.65501e-19 5.06446e-19 -0.00740423)
(1.42442e-18 9.58442e-19 -0.00743402)
(3.30466e-19 -3.44e-19 -0.00745979)
(-9.99781e-20 2.08563e-19 -0.00678188)
(3.10805e-18 1.91473e-18 -0.00683555)
(7.86678e-19 -2.30561e-19 -0.00688609)
(2.13417e-18 9.71006e-19 -0.00693378)
(-1.47257e-18 -1.31131e-18 -0.00697837)
(-1.49607e-18 1.12627e-19 -0.00701962)
(4.14514e-19 1.685e-19 -0.00705732)
(-4.4152e-19 5.19809e-19 -0.00709128)
(1.52031e-18 7.9007e-19 -0.00712133)
(3.69911e-19 -4.60351e-19 -0.00714733)
(-2.31461e-19 2.71872e-19 -0.00644592)
(3.24099e-18 1.72457e-18 -0.00649978)
(7.04486e-19 -1.80977e-19 -0.00655053)
(2.06819e-18 1.07526e-18 -0.00659844)
(-1.43623e-18 -1.37715e-18 -0.00664326)
(-1.52323e-18 2.01494e-19 -0.00668473)
(4.90035e-19 1.10665e-19 -0.00672265)
(-4.06531e-19 5.3741e-19 -0.00675682)
(1.59531e-18 6.80392e-19 -0.00678706)
(3.95876e-19 -4.93145e-19 -0.00681324)
(-4.55935e-19 4.43332e-19 -0.00608776)
(3.20653e-18 1.7051e-18 -0.00614156)
(7.21536e-19 -2.48004e-19 -0.00619228)
(2.07445e-18 1.05276e-18 -0.00624019)
(-1.45575e-18 -1.31576e-18 -0.00628504)
(-1.54844e-18 3.24701e-19 -0.00632657)
(5.33977e-19 1.41345e-19 -0.00636455)
(-3.16921e-19 4.68066e-19 -0.00639879)
(1.59348e-18 8.05723e-19 -0.00642911)
(4.16395e-19 -4.50532e-19 -0.00645537)
(-5.76768e-19 5.23445e-19 -0.00570622)
(3.08953e-18 1.74838e-18 -0.00575957)
(7.52601e-19 -3.33972e-19 -0.00580992)
(1.97166e-18 1.18659e-18 -0.00585751)
(-1.47093e-18 -1.20756e-18 -0.0059021)
(-1.4387e-18 2.35995e-19 -0.00594342)
(6.1352e-19 1.12063e-19 -0.00598123)
(-2.18219e-19 4.49176e-19 -0.00601534)
(1.58107e-18 9.99916e-19 -0.00604556)
(4.15886e-19 -2.97233e-19 -0.00607174)
(-5.54425e-19 4.66387e-19 -0.00530089)
(2.99891e-18 1.73433e-18 -0.00535326)
(7.04829e-19 -2.8755e-19 -0.00540273)
(1.80207e-18 1.40039e-18 -0.00544955)
(-1.45689e-18 -1.11895e-18 -0.00549346)
(-1.25925e-18 6.5659e-20 -0.00553418)
(6.516e-19 2.31527e-19 -0.00557149)
(-1.03735e-19 4.81839e-19 -0.00560516)
(1.63302e-18 1.05201e-18 -0.00563502)
(4.28234e-19 -1.46878e-19 -0.0056609)
(-4.36192e-19 3.21883e-19 -0.00487259)
(2.90313e-18 1.70995e-18 -0.00492327)
(6.29864e-19 -1.69393e-19 -0.00497121)
(1.7743e-18 1.39007e-18 -0.00501664)
(-1.40872e-18 -1.03958e-18 -0.0050593)
(-1.12313e-18 5.83823e-20 -0.00509891)
(6.84076e-19 4.23231e-19 -0.00513523)
(2.06436e-20 5.6449e-19 -0.00516805)
(1.73538e-18 1.01806e-18 -0.00519718)
(5.01928e-19 -1.39262e-19 -0.00522243)
(-2.97863e-19 1.72174e-19 -0.00442382)
(2.70393e-18 1.78947e-18 -0.00447196)
(5.25724e-19 1.15604e-20 -0.00451757)
(1.80066e-18 1.28444e-18 -0.00456085)
(-1.34594e-18 -8.97961e-19 -0.00460154)
(-9.68968e-19 1.02981e-19 -0.00463938)
(8.16641e-19 4.70587e-19 -0.00467412)
(1.75005e-19 6.64427e-19 -0.00470554)
(1.8417e-18 1.00299e-18 -0.00473345)
(6.15889e-19 -1.89127e-19 -0.00475768)
(-2.30401e-19 1.09956e-19 -0.00395887)
(2.47981e-18 1.87278e-18 -0.00400356)
(4.8197e-19 1.25459e-19 -0.00404596)
(1.74377e-18 1.28231e-18 -0.00408626)
(-1.2504e-18 -7.30032e-19 -0.0041242)
(-7.28713e-19 5.75465e-20 -0.00415953)
(1.01278e-18 4.40945e-19 -0.004192)
(4.22037e-19 6.27158e-19 -0.0042214)
(1.9595e-18 9.8638e-19 -0.00424754)
(7.22931e-19 -1.46593e-19 -0.00427025)
(-2.21651e-19 1.1166e-19 -0.00348339)
(2.30681e-18 1.83198e-18 -0.0035238)
(4.98147e-19 1.62391e-19 -0.00356218)
(1.72072e-18 1.19787e-18 -0.0035987)
(-1.09334e-18 -5.96997e-19 -0.00363313)
(-4.43826e-19 4.82776e-21 -0.00366522)
(1.18399e-18 4.98938e-19 -0.00369474)
(7.03568e-19 5.5162e-19 -0.0037215)
(2.09508e-18 9.2651e-19 -0.00374532)
(8.14731e-19 -1.27732e-20 -0.00376603)
(-2.00693e-19 8.008e-20 -0.00300339)
(2.13341e-18 1.7039e-18 -0.00303887)
(4.93715e-19 1.98612e-19 -0.00307259)
(1.69026e-18 1.06682e-18 -0.00310471)
(-9.10351e-19 -4.49291e-19 -0.00313501)
(-1.71716e-19 1.67606e-20 -0.00316328)
(1.34652e-18 5.63386e-19 -0.00318931)
(9.41925e-19 5.51738e-19 -0.00321292)
(2.20318e-18 8.86172e-19 -0.00323394)
(9.11404e-19 9.9413e-20 -0.00325224)
(-2.12344e-19 2.94674e-20 -0.00252405)
(1.87694e-18 1.55337e-18 -0.0025542)
(4.69211e-19 1.88004e-19 -0.00258287)
(1.55921e-18 9.91362e-19 -0.00261018)
(-7.13466e-19 -3.0255e-19 -0.00263597)
(5.96212e-20 1.08126e-19 -0.00266003)
(1.47017e-18 6.27281e-19 -0.00268221)
(1.12346e-18 5.78521e-19 -0.00270233)
(2.25087e-18 8.63159e-19 -0.00272026)
(1.00651e-18 1.42355e-19 -0.00273586)
(-2.59517e-19 -6.46533e-20 -0.00204905)
(1.54891e-18 1.32918e-18 -0.00207368)
(3.87325e-19 1.3125e-19 -0.00209711)
(1.32682e-18 9.24894e-19 -0.00211943)
(-5.04347e-19 -1.98633e-19 -0.00214052)
(2.27157e-19 2.58069e-19 -0.0021602)
(1.54112e-18 6.46405e-19 -0.00217834)
(1.2262e-18 6.22274e-19 -0.0021948)
(2.22675e-18 8.11722e-19 -0.00220947)
(1.05656e-18 1.95828e-19 -0.00222224)
(-3.4897e-19 -2.11448e-19 -0.00158051)
(1.15593e-18 9.98468e-19 -0.00159958)
(1.97209e-19 6.136e-20 -0.00161772)
(1.03835e-18 7.47001e-19 -0.00163501)
(-3.14949e-19 -1.26076e-19 -0.00165134)
(3.83638e-19 3.21939e-19 -0.00166659)
(1.51455e-18 6.52294e-19 -0.00168064)
(1.25856e-18 5.99352e-19 -0.0016934)
(2.13372e-18 7.42444e-19 -0.00170476)
(1.06593e-18 2.46117e-19 -0.00171466)
(-4.88661e-19 -4.00632e-19 -0.00111941)
(6.72672e-19 5.9267e-19 -0.00113296)
(-7.92337e-20 -8.16555e-20 -0.00114584)
(6.49273e-19 4.81019e-19 -0.00115812)
(-1.76337e-19 -8.44814e-20 -0.00116971)
(4.86843e-19 3.57452e-19 -0.00118054)
(1.38118e-18 6.4028e-19 -0.00119053)
(1.23385e-18 5.29049e-19 -0.00119959)
(1.99539e-18 6.8072e-19 -0.00120766)
(1.06687e-18 2.81493e-19 -0.0012147)
(-6.70657e-19 -6.0018e-19 -0.000666139)
(1.1033e-19 1.13251e-19 -0.000674218)
(-4.37496e-19 -3.29457e-19 -0.000681899)
(1.39916e-19 9.88111e-20 -0.000689221)
(-1.14329e-19 -7.86446e-20 -0.000696137)
(5.43972e-19 3.30126e-19 -0.000702596)
(1.17179e-18 5.82271e-19 -0.00070855)
(1.18861e-18 4.60368e-19 -0.000713955)
(1.89654e-18 6.38078e-19 -0.000718773)
(1.12771e-18 3.01853e-19 -0.000722967)
(-9.12053e-22 1.3338e-20 -0.000220849)
(2.47081e-19 2.31382e-19 -0.000223535)
(1.17271e-19 1.14903e-19 -0.000226087)
(2.76774e-19 1.94128e-19 -0.000228521)
(2.52467e-20 1.51225e-20 -0.000230819)
(1.18289e-19 7.21676e-20 -0.000232966)
(2.96166e-19 1.38008e-19 -0.000234945)
(2.206e-19 8.22959e-20 -0.000236742)
(2.93462e-19 1.09289e-19 -0.000238343)
(1.2051e-19 5.18788e-20 -0.000239737)
(4.18827e-19 -1.48082e-19 -0.0136051)
(-1.51409e-18 1.55579e-18 -0.0136084)
(3.11195e-19 1.09257e-18 -0.0136084)
(-1.77626e-20 1.16451e-18 -0.0136051)
(1.06425e-18 -3.65662e-19 -0.0135985)
(-5.99404e-19 4.76978e-19 -0.0135887)
(1.32058e-18 1.87813e-19 -0.0135757)
(6.34679e-19 -9.06456e-19 -0.0135596)
(-9.21193e-19 8.79328e-19 -0.0135403)
(-9.26446e-19 1.45623e-18 -0.0135182)
(5.03287e-19 8.61912e-19 -0.0134932)
(-2.36783e-18 -9.71414e-20 -0.0134654)
(1.10689e-19 4.45781e-19 -0.0134351)
(9.11147e-20 9.90087e-19 -0.0134025)
(1.04042e-18 -6.18149e-19 -0.0133677)
(1.69325e-18 -3.71421e-20 -0.013331)
(1.26041e-18 -1.33703e-18 -0.0132922)
(-1.72742e-20 -1.90325e-19 -0.0135144)
(-1.38833e-18 1.56154e-18 -0.0135177)
(1.75041e-19 1.00453e-18 -0.0135177)
(3.28245e-19 1.0944e-18 -0.0135144)
(1.05334e-18 -3.46539e-19 -0.0135078)
(-4.47184e-19 4.37351e-19 -0.0134979)
(1.25455e-18 1.08276e-19 -0.0134849)
(7.91027e-20 -6.3497e-19 -0.0134686)
(-5.56288e-19 9.10404e-19 -0.0134493)
(-1.17351e-18 1.45759e-18 -0.0134271)
(9.27481e-19 7.39894e-19 -0.013402)
(-1.89499e-18 -3.36388e-19 -0.0133741)
(2.11758e-19 2.94477e-19 -0.0133437)
(4.0028e-19 7.23006e-19 -0.0133109)
(1.14651e-18 -8.68095e-19 -0.0132759)
(1.71213e-18 -6.47486e-20 -0.0132391)
(1.27242e-18 -1.152e-18 -0.0132002)
(-1.34941e-19 -2.70223e-19 -0.0134224)
(-8.01192e-19 1.5831e-18 -0.0134258)
(1.08691e-19 9.15866e-19 -0.0134258)
(6.29863e-19 1.02715e-18 -0.0134224)
(7.48579e-19 -2.81227e-19 -0.0134158)
(-1.52849e-19 3.58655e-19 -0.0134059)
(1.18735e-18 9.91556e-20 -0.0133928)
(3.14247e-20 -5.12153e-19 -0.0133765)
(-4.89069e-19 1.01115e-18 -0.0133571)
(-1.17497e-18 1.37019e-18 -0.0133348)
(9.58218e-19 7.40122e-19 -0.0133095)
(-1.29553e-18 -6.34288e-19 -0.0132816)
(2.94794e-20 2.9855e-19 -0.013251)
(6.72451e-19 4.88148e-19 -0.0132181)
(9.51321e-19 -8.60635e-19 -0.013183)
(1.57277e-18 7.97523e-20 -0.0131459)
(1.11475e-18 -8.68837e-19 -0.0131069)
(-8.27119e-19 3.41526e-18 -0.0132995)
(1.16314e-18 2.28677e-18 -0.0133127)
(-6.1571e-19 -2.11877e-19 -0.0133226)
(-5.5281e-19 -4.13445e-19 -0.0133293)
(-2.62731e-19 1.59603e-18 -0.0133326)
(4.32271e-19 8.54649e-19 -0.0133326)
(1.01496e-18 9.89493e-19 -0.0133293)
(5.83073e-19 -2.38429e-19 -0.0133226)
(-1.59186e-19 3.12237e-19 -0.0133127)
(9.58001e-19 1.11881e-19 -0.0132995)
(2.42403e-19 -4.62819e-19 -0.0132831)
(-4.40536e-19 1.1248e-18 -0.0132637)
(-8.61926e-19 1.15298e-18 -0.0132412)
(6.86564e-19 8.33567e-19 -0.0132159)
(-8.17285e-19 -8.48053e-19 -0.0131878)
(-2.08115e-19 3.75287e-19 -0.0131571)
(5.43759e-19 4.93103e-19 -0.013124)
(4.48879e-19 -6.0539e-19 -0.0130888)
(1.39451e-18 2.27029e-19 -0.0130516)
(1.20504e-18 -8.14501e-19 -0.0130123)
(-7.11844e-19 3.35164e-18 -0.0132049)
(9.8584e-19 2.30396e-18 -0.0132181)
(2.37609e-20 -4.07814e-20 -0.0132281)
(-1.35196e-18 -5.72704e-19 -0.0132348)
(-1.12432e-19 1.50825e-18 -0.0132381)
(8.92288e-19 7.74448e-19 -0.0132381)
(1.34707e-18 9.87284e-19 -0.0132348)
(6.00921e-19 -1.62586e-19 -0.0132281)
(-5.41873e-19 3.5146e-19 -0.0132181)
(8.39873e-19 8.20771e-20 -0.0132049)
(1.6263e-19 -3.68683e-19 -0.0131885)
(-2.98697e-19 1.16779e-18 -0.0131689)
(-3.78818e-19 9.04706e-19 -0.0131464)
(3.2911e-19 9.79153e-19 -0.0131209)
(-7.29703e-19 -9.01888e-19 -0.0130927)
(3.96452e-20 2.20192e-19 -0.0130619)
(-8.77317e-20 8.66364e-19 -0.0130287)
(2.20033e-19 -5.60423e-19 -0.0129932)
(1.46566e-18 1.10963e-19 -0.0129559)
(1.37625e-18 -8.6209e-19 -0.0129164)
(-7.64028e-19 3.29253e-18 -0.013109)
(6.14995e-19 2.23815e-18 -0.0131222)
(8.71636e-19 1.77272e-19 -0.0131323)
(-1.58998e-18 -6.44701e-19 -0.013139)
(-2.50835e-19 1.33576e-18 -0.0131423)
(1.01521e-18 6.90527e-19 -0.0131423)
(1.34776e-18 1.03831e-18 -0.013139)
(5.96777e-19 -4.43643e-20 -0.0131323)
(-6.88722e-19 3.40766e-19 -0.0131222)
(9.93736e-19 -3.45507e-20 -0.013109)
(-1.27357e-19 -2.17122e-19 -0.0130925)
(-5.27045e-19 1.27992e-18 -0.0130728)
(-8.68335e-20 7.54195e-19 -0.0130502)
(3.69578e-19 9.98673e-19 -0.0130246)
(-7.9449e-19 -9.47807e-19 -0.0129963)
(4.8533e-19 2.59517e-20 -0.0129653)
(-6.40972e-19 1.20612e-18 -0.0129319)
(8.56535e-20 -6.91315e-19 -0.0128963)
(1.6701e-18 -1.02771e-19 -0.0128588)
(1.54377e-18 -8.63359e-19 -0.0128192)
(-9.3397e-19 3.19393e-18 -0.0130116)
(4.88792e-19 2.14815e-18 -0.0130249)
(1.46815e-18 3.25709e-19 -0.013035)
(-1.42591e-18 -6.11143e-19 -0.0130417)
(-4.34329e-19 1.18767e-18 -0.0130451)
(9.43903e-19 6.01361e-19 -0.0130451)
(1.29445e-18 1.08668e-18 -0.0130417)
(5.90203e-19 5.37454e-20 -0.013035)
(-5.4671e-19 2.60678e-19 -0.0130249)
(1.23583e-18 -1.27401e-19 -0.0130116)
(-3.87008e-19 -1.7777e-20 -0.012995)
(-8.83085e-19 1.39694e-18 -0.0129753)
(-2.92457e-20 6.26129e-19 -0.0129526)
(3.659e-19 1.04539e-18 -0.0129269)
(-8.17622e-19 -1.01808e-18 -0.0128984)
(4.74925e-19 1.05672e-19 -0.0128673)
(-6.80957e-19 1.27441e-18 -0.0128338)
(-7.42286e-19 -3.69736e-19 -0.012798)
(1.30133e-18 9.8104e-20 -0.0127603)
(1.40468e-18 -5.87521e-19 -0.0127205)
(-1.22257e-18 3.04901e-18 -0.0129128)
(3.98726e-19 2.02817e-18 -0.0129262)
(1.48728e-18 3.97272e-19 -0.0129363)
(-9.1102e-19 -5.32538e-19 -0.012943)
(-4.11391e-19 1.04591e-18 -0.0129464)
(9.49935e-19 5.00638e-19 -0.0129464)
(9.21713e-19 1.16251e-18 -0.012943)
(7.06262e-19 1.30777e-19 -0.0129363)
(-6.88414e-19 2.1115e-19 -0.0129262)
(1.42968e-18 -1.95839e-19 -0.0129128)
(-5.76995e-19 1.87448e-19 -0.0128961)
(-8.86724e-19 1.3806e-18 -0.0128763)
(1.80272e-19 4.52652e-19 -0.0128535)
(1.62489e-19 1.19432e-18 -0.0128277)
(-6.32735e-19 -1.19372e-18 -0.0127991)
(2.10476e-19 3.31499e-19 -0.0127679)
(-8.21633e-19 1.46741e-18 -0.0127342)
(-1.70386e-18 1.13756e-19 -0.0126982)
(4.04749e-19 6.59758e-19 -0.0126603)
(7.72805e-19 -2.03363e-20 -0.0126204)
(-1.15433e-18 3.0252e-18 -0.0128124)
(2.02077e-19 1.8812e-18 -0.0128259)
(1.33723e-18 3.73813e-19 -0.012836)
(-1.53693e-19 -4.58329e-19 -0.0128428)
(-1.84124e-19 9.6861e-19 -0.0128462)
(1.16759e-18 4.49231e-19 -0.0128462)
(4.43001e-19 1.23319e-18 -0.0128428)
(5.58593e-19 2.15773e-19 -0.012836)
(-8.88341e-19 1.75458e-19 -0.0128259)
(1.40865e-18 -2.14964e-19 -0.0128124)
(-7.98879e-19 4.02254e-19 -0.0127957)
(-8.51097e-19 1.30518e-18 -0.0127758)
(5.16164e-19 2.44711e-19 -0.0127529)
(3.2323e-20 1.31048e-18 -0.012727)