/*--------------------------------*- C++ -*----------------------------------*\
  =========                 |
  \\      /  F ield         | OpenFOAM: The Open Source CFD Toolbox
   \\    /   O peration     | Website:  https://openfoam.org
    \\  /    A nd           | Version:  7
     \\/     M anipulation  |
\*---------------------------------------------------------------------------*/
FoamFile
{
    version     2.0;
    format      ascii;
    class       volVectorField;
    location    "24000";
    object      vorticity;
}
// * * * * * * * * * * * * * * * * * * * * * * * * * * * * * * * * * * * * * //

dimensions      [0 0 -1 0 0 0 0];

internalField   nonuniform List<vector> 
1762
(
(0.024477 0.0219422 3.69432e-18)
(0.024557 0.0210813 -8.4437e-18)
(0.025254 0.0195265 -1.92398e-18)
(0.0258824 0.0179711 -2.0113e-17)
(0.026451 0.0164106 -2.39333e-18)
(0.0269614 0.0148471 9.18782e-18)
(0.0274155 0.0132822 2.7237e-18)
(0.0278148 0.0117169 -2.09516e-18)
(0.0281608 0.0101519 7.82151e-18)
(0.0284548 0.00858761 6.09258e-19)
(0.0286979 0.00702433 -3.13285e-17)
(0.0288913 0.00546207 -7.75227e-18)
(0.0252992 0.022728 9.86953e-20)
(0.025409 0.0218096 -8.62477e-18)
(0.0261306 0.0201998 -3.01519e-18)
(0.0267815 0.0185893 -2.32746e-17)
(0.0273701 0.016974 -2.89469e-18)
(0.0278985 0.0153559 9.56349e-18)
(0.0283683 0.0137365 1.98325e-18)
(0.0287814 0.012117 -2.98459e-18)
(0.0291392 0.0104981 5.08095e-18)
(0.0294433 0.00888013 -1.95218e-18)
(0.0296947 0.00726336 -3.26974e-17)
(0.0298945 0.00564778 -7.95151e-18)
(0.026159 0.023549 -3.15024e-18)
(0.0262994 0.0225707 -9.84836e-18)
(0.0270467 0.0209033 -4.15721e-18)
(0.0277209 0.0192354 -2.44764e-17)
(0.0283304 0.0175626 6.35631e-19)
(0.0288774 0.0158874 1.13247e-17)
(0.0293637 0.0142111 1.60544e-18)
(0.0297911 0.012535 -2.20375e-18)
(0.0301613 0.0108597 4.97761e-18)
(0.0304757 0.00918567 -2.76022e-18)
(0.0307356 0.00751301 -3.30197e-17)
(0.0309423 0.00584175 -9.62969e-18)
(0.0270587 0.0244077 -6.45993e-18)
(0.0272309 0.0233668 -1.10943e-17)
(0.028005 0.0216392 -5.6338e-18)
(0.0287034 0.019911 -2.39418e-17)
(0.0293347 0.0181782 6.22601e-18)
(0.0299011 0.0164432 1.4008e-17)
(0.0304045 0.0147074 1.84732e-18)
(0.0308468 0.0129721 -2.61057e-19)
(0.0312298 0.0112378 6.18313e-18)
(0.031555 0.0095051 -2.67684e-18)
(0.0318238 0.007774 -3.21808e-17)
(0.0320375 0.00604451 -1.14432e-17)
(0.0280013 0.0253064 -9.43348e-18)
(0.0282062 0.0242004 -1.25241e-17)
(0.0290082 0.0224096 -7.18478e-18)
(0.0297319 0.0206183 -2.27617e-17)
(0.030386 0.0188226 1.0449e-17)
(0.0309726 0.0170249 1.61569e-17)
(0.0314938 0.0152268 1.42682e-18)
(0.0319516 0.0134295 9.48858e-19)
(0.0323479 0.0116335 7.28519e-18)
(0.0326844 0.00983937 -2.50746e-18)
(0.0329624 0.00804711 -3.16392e-17)
(0.0331834 0.00625669 -1.25216e-17)
(0.0289895 0.0262482 -1.27008e-17)
(0.0292283 0.025074 -1.44515e-17)
(0.0300596 0.0232169 -7.90829e-18)
(0.0308097 0.0213594 -2.18907e-17)
(0.0314875 0.0194977 1.33116e-17)
(0.0320952 0.0176344 1.88495e-17)
(0.0326349 0.015771 3.06989e-19)
(0.0331089 0.0139087 1.64583e-18)
(0.0335191 0.012048 8.18772e-18)
(0.0338673 0.0101895 -2.54718e-18)
(0.034155 0.00833318 -3.16609e-17)
(0.0343836 0.00647892 -1.32214e-17)
(0.0300265 0.0272359 -1.51675e-17)
(0.0303006 0.0259905 -1.63942e-17)
(0.0311624 0.0240637 -7.78156e-18)
(0.0319403 0.0221367 -2.20404e-17)
(0.0326428 0.0202058 1.48808e-17)
(0.0332725 0.0182736 2.13864e-17)
(0.0338316 0.0163417 -9.09592e-19)
(0.0343225 0.0144111 2.30601e-18)
(0.0347472 0.0124827 8.37427e-18)
(0.0351076 0.0105567 -3.14566e-18)
(0.0354053 0.00863312 -3.14689e-17)
(0.0356419 0.00671192 -1.32783e-17)
(0.031116 0.028273 -1.57612e-17)
(0.0314266 0.0269528 -1.88029e-17)
(0.0323205 0.0249529 -6.79592e-18)
(0.0331273 0.0229528 -2.2987e-17)
(0.0338557 0.0209492 1.55318e-17)
(0.0345085 0.0189446 2.3919e-17)
(0.0350879 0.0169407 -2.21073e-18)
(0.0355964 0.0149386 2.44117e-18)
(0.0360362 0.0129389 8.08441e-18)
(0.0364094 0.010942 -4.10962e-18)
(0.0367176 0.00894793 -3.10315e-17)
(0.0322616 0.0293629 -1.44921e-17)
(0.0326103 0.0279645 -2.19192e-17)
(0.0335378 0.0258875 -6.8447e-18)
(0.0343749 0.0238106 -2.36103e-17)
(0.0351305 0.0217305 1.58441e-17)
(0.0358073 0.0196498 2.58034e-17)
(0.036408 0.0175702 -3.46676e-18)
(0.0369349 0.0154928 1.90165e-18)
(0.0373906 0.0134182 7.83934e-18)
(0.0377771 0.0113469 -4.30511e-18)
(0.0380962 0.00927869 -3.07421e-17)
(0.0334676 0.0305097 -1.14265e-17)
(0.0338559 0.0290291 -2.59278e-17)
(0.0348187 0.0268709 -8.41909e-18)
(0.0356876 0.0247132 -2.36386e-17)
(0.0364718 0.0225525 1.55971e-17)
(0.0371738 0.0203917 2.7398e-17)
(0.0377967 0.0182324 -3.63672e-18)
(0.038343 0.0160758 1.093e-18)
(0.0388152 0.0139225 7.9825e-18)
(0.0392156 0.0117728 -3.79815e-18)
(0.0395463 0.00962659 -3.09042e-17)
(0.0347384 0.0317177 -7.65048e-18)
(0.0351682 0.0301506 -3.08988e-17)
(0.0361681 0.0279069 -1.02233e-17)
(0.0370705 0.0256638 -2.24013e-17)
(0.0378845 0.0234183 1.39509e-17)
(0.0386131 0.0211731 2.91144e-17)
(0.0392592 0.0189298 -2.34702e-18)
(0.0398258 0.0166898 -8.79061e-20)
(0.0403154 0.0144535 7.71789e-18)
(0.0407304 0.0122212 -3.25407e-18)
(0.0410731 0.00999293 -3.14651e-17)
(0.0360792 0.0329915 -4.50784e-18)
(0.0365523 0.0313334 -3.58456e-17)
(0.0375912 0.0289994 -1.18072e-17)
(0.0385288 0.0266663 -2.11675e-17)
(0.0393742 0.0243313 1.16154e-17)
(0.0401307 0.021997 3.08877e-17)
(0.0408013 0.0196652 -9.01336e-19)
(0.0413891 0.0173371 -8.22215e-19)
(0.0418969 0.0150133 6.98435e-18)
(0.0423274 0.012694 -3.00561e-18)
(0.0426826 0.0103791 -3.18944e-17)
(0.0374953 0.0343365 -1.44557e-18)
(0.0380139 0.0325824 -3.98051e-17)
(0.0390939 0.0301529 -1.3028e-17)
(0.0400685 0.0277248 -2.1308e-17)
(0.040947 0.0252952 9.84972e-18)
(0.0417328 0.0228668 3.22096e-17)
(0.0424291 0.0204415 1.33352e-18)
(0.0430393 0.0180204 1.25297e-19)
(0.0435663 0.0156043 5.08876e-18)
(0.0440129 0.0131931 -3.31544e-18)
(0.0443814 0.0107868 -3.20303e-17)
(0.0389928 0.0357582 1.13746e-18)
(0.0395591 0.0339028 -4.27377e-17)
(0.0406825 0.0313724 -1.46675e-17)
(0.0416962 0.0288437 -2.20965e-17)
(0.0426096 0.026314 8.82499e-18)
(0.0434262 0.0237861 3.33299e-17)
(0.0441497 0.021262 4.77994e-18)
(0.0447834 0.0187427 2.19207e-18)
(0.0453306 0.0162288 2.22658e-18)
(0.0457942 0.0137205 -4.25489e-18)
(0.0461766 0.0112176 -3.20526e-17)
(0.0405783 0.0372631 2.07298e-18)
(0.0411949 0.0353005 -4.52536e-17)
(0.0423641 0.0326631 -1.61677e-17)
(0.0434191 0.0300279 -2.2467e-17)
(0.0443693 0.0273923 9.47279e-18)
(0.0452185 0.0247591 3.48358e-17)
(0.0459705 0.0221303 8.5157e-18)
(0.0466291 0.019507 3.37307e-18)
(0.0471976 0.0168897 -1.03515e-18)
(0.047679 0.0142786 -5.52846e-18)
(0.0480761 0.0116734 -3.22063e-17)
(0.0422593 0.038858 3.26312e-18)
(0.0429288 0.0367821 -4.8533e-17)
(0.0441466 0.0340312 -1.69186e-17)
(0.0452451 0.0312831 -2.2067e-17)
(0.0462342 0.0285351 1.06165e-17)
(0.0471179 0.0257903 3.67745e-17)
(0.0479001 0.0230505 1.15761e-17)
(0.0485849 0.0203168 3.52583e-18)
(0.0491758 0.01759 -4.3878e-18)
(0.0496761 0.01487 -7.12767e-18)
(0.0500887 0.0121564 -3.19926e-17)
(0.0440439 0.0405508 4.55073e-18)
(0.0447693 0.0383546 -5.25005e-17)
(0.0460385 0.0354832 -1.68803e-17)
(0.0471832 0.0326152 -2.19925e-17)
(0.0482135 0.0297479 1.05794e-17)
(0.0491335 0.0268845 3.93017e-17)
(0.0499477 0.0240269 1.38485e-17)
(0.0506602 0.0211763 3.41725e-18)
(0.0512749 0.0183331 -8.07242e-18)
(0.0517952 0.0154975 -8.72348e-18)
(0.0522241 0.0126689 -3.02014e-17)
(0.0459411 0.0423499 5.24965e-18)
(0.0467256 0.040026 -5.59252e-17)
(0.0480494 0.0370265 -1.63413e-17)
(0.0492431 0.034031 -2.28031e-17)
(0.0503171 0.0310369 1.02783e-17)
(0.0512757 0.0280475 4.19926e-17)
(0.0521237 0.0250646 1.51269e-17)
(0.0528656 0.0220895 3.2303e-18)
(0.0535054 0.0191228 -1.16078e-17)
(0.0540468 0.0161643 -1.02407e-17)
(0.0544931 0.0132135 -2.73002e-17)
(0.047961 0.044265 4.53827e-18)
(0.0488082 0.0418052 -5.90609e-17)
(0.05019 0.0386693 -1.52888e-17)
(0.0514358 0.0355379 -2.38598e-17)
(0.0525561 0.0324089 1.11326e-17)
(0.0535557 0.0292852 4.34615e-17)
(0.0544396 0.026169 1.56808e-17)
(0.0552127 0.0230615 4.09756e-18)
(0.0558792 0.0199632 -1.48164e-17)
(0.056443 0.0168739 -1.15198e-17)
(0.0569077 0.013793 -2.39151e-17)
(0.0501149 0.0463066 2.00526e-18)
(0.0510287 0.0437021 -6.21453e-17)
(0.0524722 0.0404206 -1.33033e-17)
(0.0537735 0.0371445 -2.47367e-17)
(0.0549431 0.0338714 1.23027e-17)
(0.0559862 0.0306047 4.42518e-17)
(0.0569084 0.0273463 1.66396e-17)
(0.0577145 0.0240976 5.36268e-18)
(0.0584093 0.0208589 -1.79889e-17)
(0.058997 0.0176302 -1.27272e-17)
(0.0594812 0.0144107 -2.07197e-17)
(0.0524152 0.0484866 -8.91375e-20)
(0.0533999 0.0457277 -6.42608e-17)
(0.0549094 0.0422908 -1.15079e-17)
(0.0562697 0.0388599 -2.53356e-17)
(0.0574918 0.0354331 1.41095e-17)
(0.0585814 0.0320135 4.45814e-17)
(0.0595442 0.0286033 1.73123e-17)
(0.0603856 0.0252038 6.25078e-18)
(0.0611107 0.0218153 -2.12514e-17)
(0.0617237 0.0184377 -1.35799e-17)
(0.0622287 0.0150701 -1.73709e-17)
(0.054876 0.0508183 1.38642e-18)
(0.0559364 0.0478944 -6.55633e-17)
(0.0575164 0.0442911 -1.11359e-17)
(0.0589398 0.0406948 -2.61156e-17)
(0.060218 0.0371034 1.63956e-17)
(0.0613572 0.0335203 4.44096e-17)
(0.0623634 0.0299477 1.76768e-17)
(0.0632424 0.0263868 6.62236e-18)
(0.0639997 0.0228381 -2.49983e-17)
(0.0646398 0.0193013 -1.44119e-17)
(0.0651669 0.0157754 -1.41907e-17)
(0.0575132 0.0533168 4.29484e-18)
(0.0586545 0.0502161 -6.80185e-17)
(0.0603099 0.0464345 -1.08205e-17)
(0.0618008 0.0426609 -2.71487e-17)
(0.0631392 0.0388932 1.92547e-17)
(0.0643313 0.0351348 4.35082e-17)
(0.065384 0.0313882 1.67758e-17)
(0.0663033 0.0276544 7.2205e-18)
(0.0670949 0.023934 -2.84429e-17)
(0.067764 0.0202265 -1.56099e-17)
(0.0683148 0.016531 -1.23434e-17)
(0.0603444 0.0559987 6.53944e-18)
(0.0615726 0.0527085 -7.08577e-17)
(0.0633089 0.0487355 -1.00706e-17)
(0.0648723 0.0447715 -2.90807e-17)
(0.066275 0.0408144 2.27167e-17)
(0.067524 0.0368679 4.15667e-17)
(0.0686264 0.0329344 1.47137e-17)
(0.0695888 0.0290151 9.05626e-18)
(0.0704174 0.0251103 -3.13105e-17)
(0.0711174 0.0212197 -1.7576e-17)
(0.0716936 0.017342 -1.16125e-17)
(0.0633898 0.0588832 8.36924e-18)
(0.0647113 0.0553892 -7.32384e-17)
(0.0665347 0.0512104 -9.20243e-18)
(0.0681759 0.0470415 -3.14651e-17)
(0.0696478 0.0428808 2.6737e-17)
(0.0709579 0.038732 3.93719e-17)
(0.0721138 0.0345975 1.18893e-17)
(0.0731226 0.0304785 1.19924e-17)
(0.0739908 0.0263755 -3.33104e-17)
(0.0747241 0.0222878 -2.03695e-17)
(0.0666721 0.0619918 9.44921e-18)
(0.0680941 0.0582782 -7.48549e-17)
(0.0700114 0.0538777 -9.88717e-18)
(0.0717366 0.0494881 -3.37659e-17)
(0.073283 0.045108 3.16812e-17)
(0.0746589 0.040741 3.72978e-17)
(0.0758723 0.0363898 8.91595e-18)
(0.076931 0.0320557 1.39736e-17)
(0.0778419 0.027739 -3.41962e-17)
(0.0786111 0.023439 -2.27677e-17)
(0.0702171 0.0653488 8.95064e-18)
(0.0717478 0.0613984 -7.51977e-17)
(0.0737665 0.0567584 -1.13739e-17)
(0.0755823 0.0521305 -3.47613e-17)
(0.0772092 0.0475133 3.69071e-17)
(0.0786562 0.0429109 3.49259e-17)
(0.0799318 0.0383257 6.01146e-18)
(0.0810444 0.0337592 1.44388e-17)
(0.0820014 0.0292117 -3.44682e-17)
(0.0828092 0.0246824 -2.47431e-17)
(0.074054 0.0689821 9.06041e-18)
(0.0757025 0.0647756 -7.48625e-17)
(0.0778311 0.0598765 -1.35824e-17)
(0.0797451 0.0549908 -3.41208e-17)
(0.0814593 0.0501171 4.26397e-17)
(0.0829832 0.0452597 3.2472e-17)
(0.0843262 0.0404212 2.8939e-18)
(0.0854972 0.0356032 1.32928e-17)
(0.086504 0.0308059 -3.54255e-17)
(0.0873538 0.0260283 -2.53465e-17)
(0.0782164 0.0729234 9.96653e-18)
(0.079993 0.0684393 -7.33768e-17)
(0.0822411 0.0632593 -1.53272e-17)
(0.0842617 0.058094 -3.30323e-17)
(0.0860706 0.0529421 4.69278e-17)
(0.0876781 0.0478082 3.09732e-17)
(0.0890944 0.042695 -2.85884e-19)
(0.0903287 0.0376041 1.12571e-17)
(0.0913898 0.0325357 -3.74557e-17)
(0.0922851 0.0274888 -2.51727e-17)
(0.0827425 0.0772089 1.0788e-17)
(0.0846589 0.0724233 -7.10165e-17)
(0.0870371 0.0669382 -1.55977e-17)
(0.089174 0.061469 -3.25384e-17)
(0.0910862 0.0560147 5.07816e-17)
(0.0927848 0.0505801 3.06993e-17)
(0.0942808 0.0451682 -3.81382e-18)
(0.0955843 0.0397806 9.44563e-18)
(0.0967044 0.0344174 -3.94168e-17)
(0.0976493 0.0290775 -2.41395e-17)
(0.0876761 0.0818802 1.2193e-17)
(0.0897455 0.0767665 -6.89515e-17)
(0.092266 0.0709491 -1.39047e-17)
(0.0945301 0.0651488 -3.21012e-17)
(0.0965552 0.0593651 5.4695e-17)
(0.0983535 0.0536028 2.95216e-17)
(0.0999368 0.0478653 -7.87022e-18)
(0.101316 0.0421542 8.30572e-18)
(0.102501 0.0364695 -4.007e-17)
(0.1035 0.0308102 -2.25958e-17)
(0.0930677 0.0869852 1.33279e-17)
(0.0953052 0.0815134 -6.65406e-17)
(0.097982 0.0753334 -1.06433e-17)
(0.100386 0.0691717 -3.176e-17)
(0.102535 0.063028 5.90536e-17)
(0.104442 0.0569078 2.75499e-17)
(0.106121 0.0508145 -1.15404e-17)
(0.107584 0.0447497 8.26812e-18)
(0.108839 0.0387137 -4.00675e-17)
(0.109898 0.0327051 -2.16663e-17)
(0.0989753 0.0925786 1.33913e-17)
(0.101398 0.0867154 -6.37744e-17)
(0.104247 0.0801387 -5.63238e-18)
(0.106804 0.0735814 -3.01615e-17)
(0.10909 0.0670437 6.19006e-17)
(0.111118 0.0605314 2.5433e-17)
(0.112903 0.0540483 -1.45512e-17)
(0.114457 0.047596 8.67089e-18)
(0.115791 0.0411748 -4.11316e-17)
(0.116915 0.0347833 -2.06317e-17)
(0.105465 0.0987239 1.2248e-17)
(0.108094 0.0924316 -6.1776e-17)
(0.111133 0.0854201 1.40906e-18)
(0.11386 0.0784288 -2.84203e-17)
(0.116297 0.0714587 6.17376e-17)
(0.118459 0.0645159 2.32237e-17)
(0.120361 0.0576044 -1.65191e-17)
(0.122016 0.0507264 9.19597e-18)
(0.123437 0.0438818 -4.25976e-17)
(0.124634 0.0370693 -1.94492e-17)
(0.112615 0.105494 1.09631e-17)
(0.115472 0.0987304 -6.05206e-17)
(0.118722 0.091241 9.43762e-18)
(0.121639 0.0837727 -2.64958e-17)
(0.124244 0.0763267 6.10031e-17)
(0.126555 0.0689099 2.1309e-17)
(0.128587 0.0615268 -1.65297e-17)
(0.130355 0.0541795 9.81599e-18)
(0.131872 0.0468683 -4.40518e-17)
(0.133151 0.0395915 -1.85847e-17)
(0.120512 0.112972 1.11428e-17)
(0.123625 0.10569 -5.89631e-17)
(0.127111 0.097675 1.66342e-17)
(0.130239 0.0896808 -2.41756e-17)
(0.133032 0.08171 5.94834e-17)
(0.135509 0.0737701 1.97854e-17)
(0.137687 0.065866 -1.53963e-17)
(0.139582 0.0580003 9.1107e-18)
(0.141207 0.0501732 -4.6223e-17)
(0.142577 0.0423831 -1.80865e-17)
(0.129258 0.121255 1.26077e-17)
(0.132658 0.113402 -5.6562e-17)
(0.13641 0.104806 2.21427e-17)
(0.139775 0.0962314 -2.28237e-17)
(0.142779 0.0876805 5.78014e-17)
(0.145443 0.0791619 1.85819e-17)
(0.147785 0.0706812 -1.4035e-17)
(0.149823 0.062241 7.71837e-18)
(0.15157 0.0538419 -4.85215e-17)
(0.153043 0.0454824 -1.65408e-17)
(0.138967 0.13045 1.4556e-17)
(0.142692 0.121967 -5.13387e-17)
(0.146743 0.112731 2.51501e-17)
(0.150376 0.103514 -2.2891e-17)
(0.15362 0.0943209 5.52486e-17)
(0.156496 0.0851608 1.84568e-17)
(0.159024 0.07604 -1.44386e-17)
(0.161223 0.0669618 5.57392e-18)
(0.16311 0.057927 -4.97259e-17)
(0.164699 0.0489341 -1.54849e-17)
(0.149767 0.140681 1.75279e-17)
(0.153862 0.131502 -4.45953e-17)
(0.158253 0.121558 2.69998e-17)
(0.162192 0.111631 -2.13809e-17)
(0.165709 0.101725 5.15953e-17)
(0.168826 0.0918528 1.75022e-17)
(0.171567 0.0820203 -1.66948e-17)
(0.173951 0.072232 3.78082e-18)
(0.175996 0.0624888 -5.02932e-17)
(0.177718 0.0527896 -1.58049e-17)
(0.161798 0.152079 2.05674e-17)
(0.166317 0.142134 -3.60431e-17)
(0.171097 0.131409 2.80071e-17)
(0.175386 0.120694 -1.96458e-17)
(0.179216 0.109999 4.94561e-17)
(0.182612 0.0993346 1.61235e-17)
(0.185598 0.0887099 -1.9509e-17)
(0.188195 0.0781297 2.01646e-19)
(0.190423 0.0675958 -4.99454e-17)
(0.192299 0.0571072 -1.67054e-17)
(0.175208 0.164785 2.36661e-17)
(0.180216 0.153997 -2.73356e-17)
(0.185444 0.142411 2.93092e-17)
(0.190137 0.130827 -1.68591e-17)
(0.19433 0.119256 4.57174e-17)
(0.198048 0.107712 1.3689e-17)
(0.201318 0.0962051 -2.36668e-17)
(0.204163 0.0847416 -5.70288e-18)
(0.206604 0.0733241 -4.97852e-17)
(0.208661 0.0619522 -1.80545e-17)
(0.190135 0.178933 2.57665e-17)
(0.195712 0.167224 -1.76612e-17)
(0.20146 0.154694 3.12039e-17)
(0.206625 0.142153 -1.11407e-17)
(0.211241 0.129614 3.89457e-17)
(0.215337 0.117095 7.17188e-18)
(0.218941 0.104607 -2.87277e-17)
(0.222077 0.0921587 -1.26527e-17)
(0.22477 0.0797541 -5.10627e-17)
(0.227038 0.0673937 -1.95183e-17)
(0.206693 0.194631 2.93168e-17)
(0.212935 0.181925 -7.71029e-18)
(0.219293 0.168369 3.34131e-17)
(0.22501 0.154781 -5.05288e-18)
(0.230125 0.14118 2.99321e-17)
(0.234668 0.127585 -1.67248e-18)
(0.238667 0.114011 -3.47122e-17)
(0.242149 0.100469 -2.21336e-17)
(0.245141 0.0869648 -5.30598e-17)
(0.247662 0.0735003 -2.21602e-17)
(0.224926 0.211922 3.09464e-17)
(0.231949 0.198155 3.88339e-18)
(0.239023 0.1835 3.34398e-17)
(0.245395 0.168783 1.85917e-18)
(0.251102 0.154027 1.84588e-17)
(0.256176 0.139257 -1.37786e-17)
(0.260648 0.12449 -4.4447e-17)
(0.264546 0.109742 -3.58421e-17)
(0.267897 0.0950194 -5.64775e-17)
(0.270724 0.0803282 -2.71822e-17)
(0.244743 0.230724 2.94656e-17)
(0.252686 0.215855 1.61449e-17)
(0.260605 0.20005 2.98122e-17)
(0.267752 0.18414 1.03617e-17)
(0.274165 0.168153 1.02042e-18)
(0.279876 0.152118 -3.11343e-17)
(0.284917 0.13606 -5.63847e-17)
(0.289318 0.119997 -5.37254e-17)
(0.293104 0.103941 -6.21443e-17)
(0.296302 0.0879011 -3.59427e-17)
(0.265832 0.250743 2.45512e-17)
(0.27485 0.234775 3.08157e-17)
(0.28376 0.217807 2.38334e-17)
(0.291823 0.200674 1.98128e-17)
(0.299076 0.183409 -2.44211e-17)
(0.30555 0.166049 -5.33534e-17)
(0.311276 0.148625 -7.03288e-17)
(0.316284 0.13116 -7.69266e-17)
(0.3206 0.113672 -7.04669e-17)
(0.324251 0.0961751 -4.90442e-17)
(0.287557 0.271383 1.79548e-17)
(0.297809 0.254373 4.75476e-17)
(0.30786 0.236289 1.05671e-17)
(0.316988 0.217959 2.88057e-17)
(0.325226 0.199424 -5.3223e-17)
(0.332602 0.180728 -8.20003e-17)
(0.339143 0.161908 -9.0568e-17)
(0.344878 0.142996 -1.07598e-16)
(0.349832 0.124017 -8.30187e-17)
(0.354029 0.10499 -6.54416e-17)
(0.308908 0.291687 8.07439e-18)
(0.320523 0.273762 6.64413e-17)
(0.331842 0.254681 -7.43417e-18)
(0.342165 0.235251 3.57126e-17)
(0.35152 0.215525 -8.83277e-17)
(0.359926 0.195553 -1.18185e-16)
(0.367408 0.17538 -1.15504e-16)
(0.373988 0.155045 -1.4289e-16)
(0.379688 0.134582 -9.8372e-17)
(0.384529 0.114018 -8.47338e-17)
(0.328584 0.310429 -1.30417e-18)
(0.341617 0.291769 9.03403e-17)
(0.354259 0.271871 -2.4258e-17)
(0.365845 0.251515 4.33573e-17)
(0.376392 0.230755 -1.30075e-16)
(0.385912 0.20965 -1.57459e-16)
(0.394418 0.188251 -1.41555e-16)
(0.401926 0.166607 -1.78208e-16)
(0.408451 0.144758 -1.1179e-16)
(0.41401 0.122742 -1.05439e-16)
(0.345295 0.326383 -4.97684e-18)
(0.35968 0.307189 1.25695e-16)
(0.373585 0.286691 -3.24841e-17)
(0.386391 0.265624 5.79257e-17)
(0.398104 0.244047 -1.7351e-16)
(0.408722 0.222022 -1.98108e-16)
(0.418249 0.199606 -1.63062e-16)
(0.426691 0.176853 -2.05122e-16)
(0.434055 0.153813 -1.17184e-16)
(0.440347 0.130533 -1.21838e-16)
(0.358196 0.338747 1.8232e-18)
(0.373738 0.319191 1.79274e-16)
(0.388718 0.298295 -2.77687e-17)
(0.402575 0.276735 8.47864e-17)
(0.4153 0.254572 -2.11586e-16)
(0.426884 0.231869 -2.30605e-16)
(0.437317 0.208686 -1.71559e-16)
(0.446593 0.185083 -2.14356e-16)
(0.454711 0.161115 -1.05951e-16)
(0.461667 0.136837 -1.27128e-16)
(0.36721 0.347443 2.86364e-17)
(0.383636 0.327641 2.55091e-16)
(0.399418 0.306499 1.36072e-18)
(0.414066 0.284622 1.2945e-16)
(0.42756 0.262072 -2.37539e-16)
(0.439882 0.238912 -2.47294e-16)
(0.451012 0.215204 -1.54973e-16)
(0.460937 0.19101 -1.94208e-16)
(0.469643 0.166389 -7.03808e-17)
(0.47712 0.141403 -1.17727e-16)
(0.372991 0.353083 8.02677e-17)
(0.390024 0.333097 3.57626e-16)
(0.406333 0.3118 6.30722e-17)
(0.4215 0.289723 2.00363e-16)
(0.435504 0.266928 -2.43257e-16)
(0.448315 0.243478 -2.39759e-16)
(0.459911 0.219434 -1.07266e-16)
(0.470269 0.194861 -1.4498e-16)
(0.47937 0.169821 -6.84493e-18)
(0.4872 0.144376 -8.91494e-17)
(0.37655 0.356621 1.4976e-16)
(0.393978 0.336476 4.86652e-16)
(0.410599 0.31507 1.55582e-16)
(0.426076 0.29286 3.04102e-16)
(0.44038 0.269906 -2.25272e-16)
(0.453481 0.24627 -2.03975e-16)
(0.465351 0.222016 -2.79691e-17)
(0.475965 0.197207 -6.85134e-17)
(0.4853 0.171908 6.8893e-17)
(0.493337 0.146182 -4.8549e-17)
(0.378833 0.358948 2.26714e-16)
(0.396527 0.338656 6.30729e-16)
(0.413331 0.317165 2.733e-16)
(0.428986 0.294854 4.40349e-16)
(0.443463 0.271785 -1.80906e-16)
(0.456729 0.248022 -1.48593e-16)
(0.468754 0.223626 7.51696e-17)
(0.479511 0.198663 1.31314e-17)
(0.488976 0.173197 1.29525e-16)
(0.497128 0.147294 -2.06682e-17)
(0.380481 0.360673 2.90174e-16)
(0.398377 0.340239 7.7461e-16)
(0.415299 0.318673 4.15235e-16)
(0.431068 0.296279 6.13564e-16)
(0.445654 0.273119 -1.06219e-16)
(0.459022 0.249256 -7.93699e-17)
(0.471143 0.224753 1.79445e-16)
(0.481987 0.199676 5.97331e-17)
(0.491531 0.174089 1.32051e-16)
(0.499751 0.14806 -4.18938e-17)
(0.381802 0.362085 -3.79094e-16)
(0.39987 0.341517 3.17011e-16)
(0.416881 0.319886 -1.64549e-16)
(0.432735 0.297419 2.60172e-16)
(0.4474 0.27418 -1.25393e-16)
(0.460843 0.250233 2.57775e-16)
(0.473032 0.225643 6.57312e-16)
(0.483939 0.200472 6.0455e-16)
(0.493538 0.174789 9.75939e-16)
(0.501808 0.148658 5.26321e-16)
(0.382903 0.363285 -5.26456e-16)
(0.401124 0.342591 2.94039e-16)
(0.418207 0.320902 -2.20388e-16)
(0.43413 0.298373 2.9442e-16)
(0.448861 0.275067 -6.14676e-17)
(0.462364 0.251049 4.34252e-16)
(0.474609 0.226383 9.09392e-16)
(0.485566 0.201134 8.32271e-16)
(0.495209 0.175369 1.26648e-15)
(0.503517 0.149154 7.05129e-16)
(-0.00234013 0.0291314 2.33158e-17)
(-0.000779991 0.0291793 -7.48705e-18)
(0.000779988 0.0291793 -1.14022e-17)
(0.00234013 0.0291314 -8.32667e-18)
(0.00390073 0.0290356 1.15272e-17)
(0.00546207 0.0288913 5.21993e-18)
(0.00702433 0.0286979 1.82609e-18)
(0.00858761 0.0284548 1.35024e-17)
(0.0101519 0.0281608 2.58087e-18)
(0.0117169 0.0278148 -4.47977e-18)
(0.0132822 0.0274155 -1.15795e-17)
(0.0148471 0.0269614 1.49257e-17)
(0.0164106 0.026451 -6.40966e-18)
(0.0179711 0.0258824 -1.32423e-17)
(0.0195265 0.025254 7.86705e-18)
(0.0210813 0.024557 -1.22711e-17)
(0.0219422 0.024477 5.71248e-18)
(-0.00241961 0.0301427 2.31876e-17)
(-0.000806478 0.0301922 -8.24475e-18)
(0.000806475 0.0301922 -1.01755e-17)
(0.00241961 0.0301427 -8.8041e-18)
(0.00403328 0.0300437 9.65809e-18)
(0.00564778 0.0298945 3.85066e-18)
(0.00726336 0.0296947 8.41495e-19)
(0.00888013 0.0294433 1.01947e-17)
(0.0104981 0.0291392 -6.47141e-19)
(0.012117 0.0287814 -5.38529e-18)
(0.0137365 0.0283683 -1.54888e-17)
(0.0153559 0.0278985 1.37222e-17)
(0.016974 0.0273701 -5.64534e-18)
(0.0185893 0.0267815 -1.36406e-17)
(0.0201998 0.0261306 9.499e-18)
(0.0218096 0.025409 -1.16152e-17)
(0.022728 0.0252992 3.41586e-18)
(-0.00250262 0.0311988 2.45109e-17)
(-0.00083414 0.0312499 -9.01679e-18)
(0.000834138 0.0312499 -9.0526e-18)
(0.00250262 0.0311988 -8.55993e-18)
(0.0041717 0.0310964 8.68246e-18)
(0.00584174 0.0309423 3.94047e-18)
(0.00751301 0.0307356 1.14999e-18)
(0.00918567 0.0304757 8.88571e-18)
(0.0108597 0.0301613 -1.37307e-18)
(0.012535 0.0297911 -3.49154e-18)
(0.0142111 0.0293637 -1.64925e-17)
(0.0158874 0.0288774 1.32417e-17)
(0.0175626 0.0283304 -3.31243e-18)
(0.0192354 0.0277209 -1.26274e-17)
(0.0209033 0.0270467 1.1831e-17)
(0.0225707 0.0262994 -1.1311e-17)
(0.023549 0.026159 1.81046e-18)
(-0.00777402 0.0318238 -3.27184e-17)
(-0.00604452 0.0320375 -8.52368e-18)
(-0.00431642 0.0321969 2.86912e-17)
(-0.0025894 0.0323027 2.67843e-17)
(-0.000863056 0.0323556 -9.08628e-18)
(0.000863054 0.0323556 -8.28501e-18)
(0.00258939 0.0323027 -8.37187e-18)
(0.00431641 0.0321969 8.64918e-18)
(0.00604451 0.0320375 5.2509e-18)
(0.00777401 0.0318238 2.56059e-18)
(0.0095051 0.031555 8.55605e-18)
(0.0112378 0.0312298 -1.18363e-18)
(0.0129721 0.0308468 1.12689e-19)
(0.0147074 0.0304045 -1.57055e-17)
(0.0164432 0.0299011 1.36505e-17)
(0.0181782 0.0293347 -7.09121e-19)
(0.019911 0.0287034 -1.10345e-17)
(0.0216392 0.028005 1.38525e-17)
(0.0233668 0.0272309 -1.04521e-17)
(0.0244076 0.0270587 1.76784e-20)
(-0.00804712 0.0329624 -3.34431e-17)
(-0.00625669 0.0331834 -1.16724e-17)
(-0.00446784 0.0333482 2.61529e-17)
(-0.00268019 0.0334577 2.90821e-17)
(-0.000893312 0.0335123 -7.87832e-18)
(0.00089331 0.0335123 -6.90078e-18)
(0.00268019 0.0334577 -8.64521e-18)
(0.00446783 0.0333482 7.83948e-18)
(0.00625668 0.0331834 6.35854e-18)
(0.00804712 0.0329624 4.21233e-18)
(0.00983937 0.0326844 8.28193e-18)
(0.0116335 0.0323479 -1.28744e-18)
(0.0134295 0.0319516 2.49262e-18)
(0.0152268 0.0314938 -1.57813e-17)
(0.0170249 0.0309726 1.4798e-17)
(0.0188226 0.030386 4.56752e-19)
(0.0206183 0.0297319 -9.11399e-18)
(0.0224096 0.0290082 1.51791e-17)
(0.0242004 0.0282062 -9.11975e-18)
(0.0253064 0.0280013 -1.67518e-18)
(-0.00833319 0.034155 -3.35325e-17)
(-0.00647892 0.0343836 -1.25003e-17)
(-0.00462643 0.0345541 2.51886e-17)
(-0.00277529 0.0346673 3.07944e-17)
(-0.000925002 0.0347238 -5.54907e-18)
(0.000925 0.0347238 -5.22726e-18)
(0.00277529 0.0346673 -9.68467e-18)
(0.00462642 0.0345541 6.57948e-18)
(0.00647892 0.0343836 7.39415e-18)
(0.00833318 0.034155 5.70497e-18)
(0.0101895 0.0338673 7.41892e-18)
(0.012048 0.0335191 -1.10377e-18)
(0.0139087 0.0331089 3.99094e-18)
(0.015771 0.0326349 -1.70029e-17)
(0.0176344 0.0320952 1.66682e-17)
(0.0194977 0.0314875 -4.54112e-19)
(0.0213594 0.0308097 -7.77674e-18)
(0.0232169 0.0300596 1.81176e-17)
(0.025074 0.0292283 -7.89091e-18)
(0.0262482 0.0289895 -3.674e-18)
(-0.00863313 0.0354053 -3.32171e-17)
(-0.00671192 0.0356419 -1.15555e-17)
(-0.0047927 0.0358182 2.52605e-17)
(-0.00287499 0.0359354 3.15564e-17)
(-0.000958225 0.0359938 -3.29911e-18)
(0.000958224 0.0359938 -3.54276e-18)
(0.00287499 0.0359354 -1.08261e-17)
(0.0047927 0.0358182 5.39746e-18)
(0.00671192 0.0356419 8.50643e-18)
(0.00863312 0.0354054 6.31787e-18)
(0.0105566 0.0351076 6.2032e-18)
(0.0124827 0.0347472 -7.60442e-19)
(0.0144111 0.0343225 6.05523e-18)
(0.0163417 0.0338316 -1.89235e-17)
(0.0182736 0.0332725 1.86173e-17)
(0.0202058 0.0326428 -2.29434e-18)
(0.0221367 0.0319402 -8.09744e-18)
(0.0240637 0.0311624 2.3439e-17)
(0.0259905 0.0303005 -6.32039e-18)
(0.0272359 0.0300265 -4.90319e-18)
(-0.00894794 0.0367176 -3.26801e-17)
(-0.00695647 0.0369624 -9.98023e-18)
(-0.00496721 0.0371449 2.52612e-17)
(-0.00297963 0.0372661 3.19518e-17)
(-0.000993094 0.0373265 -1.65099e-18)
(0.000993092 0.0373265 -2.00654e-18)
(0.00297963 0.0372661 -1.17136e-17)
(0.00496721 0.0371449 4.51868e-18)
(0.00695646 0.0369624 9.65822e-18)
(0.00894793 0.0367176 6.26137e-18)
(0.010942 0.0364094 4.61642e-18)
(0.0129389 0.0360362 -3.29048e-19)
(0.0149385 0.0355964 7.60686e-18)
(0.0169407 0.0350879 -2.1222e-17)
(0.0189446 0.0345084 2.04587e-17)
(0.0209492 0.0338557 -3.48803e-18)
(0.0229528 0.0331273 -9.68092e-18)
(0.0249529 0.0323205 2.8467e-17)
(0.0269528 0.0314266 -4.45572e-18)
(0.0282729 0.031116 -3.92436e-18)
(-0.0092787 0.0380962 -3.20111e-17)
(-0.0072134 0.0383497 -8.37306e-18)
(-0.00515056 0.0385386 2.57771e-17)
(-0.00308957 0.0386641 3.24887e-17)
(-0.00102973 0.0387267 -8.79446e-19)
(0.00102972 0.0387266 -9.86581e-19)
(0.00308956 0.0386641 -1.25358e-17)
(0.00515055 0.0385386 3.60244e-18)
(0.0072134 0.0383497 1.04834e-17)
(0.00927869 0.0380963 6.03175e-18)
(0.0113469 0.0377771 2.78252e-18)
(0.0134182 0.0373906 8.5625e-19)
(0.0154928 0.0369349 8.72111e-18)
(0.0175702 0.036408 -2.3135e-17)
(0.0196498 0.0358073 2.1982e-17)
(0.0217305 0.0351305 -5.36239e-18)
(0.0238106 0.0343749 -1.24867e-17)
(0.0258875 0.0335378 3.22452e-17)
(0.0279645 0.0326103 -2.56956e-18)
(0.0293629 0.0322616 -1.41264e-18)
(-0.0096266 0.0395463 -3.20231e-17)
(-0.00748364 0.0398088 -7.73058e-18)
(-0.0053434 0.0400045 2.71851e-17)
(-0.00320519 0.0401344 3.37634e-17)
(-0.00106826 0.0401991 -7.55418e-19)
(0.00106825 0.0401991 -6.12633e-19)
(0.00320519 0.0401343 -1.40306e-17)
(0.00534339 0.0400045 2.46067e-18)
(0.00748364 0.0398088 1.14219e-17)
(0.00962659 0.0395463 5.80151e-18)
(0.0117728 0.0392156 8.59843e-19)
(0.0139225 0.0388152 2.50978e-18)
(0.0160758 0.0383429 9.69089e-18)
(0.0182324 0.0377967 -2.37109e-17)
(0.0203917 0.0371738 2.40903e-17)
(0.0225525 0.0364718 -8.96699e-18)
(0.0247132 0.0356876 -1.57728e-17)
(0.0268709 0.0348187 3.44459e-17)
(0.0290291 0.0338559 -1.94816e-18)
(0.0305097 0.0334676 2.49283e-18)
(-0.00999294 0.0410731 -3.19206e-17)
(-0.0077682 0.0413451 -8.00504e-18)
(-0.00554645 0.0415478 2.87519e-17)
(-0.00332694 0.0416824 3.51595e-17)
(-0.00110882 0.0417495 -1.0403e-18)
(0.00110882 0.0417495 -4.94126e-19)
(0.00332693 0.0416824 -1.56686e-17)
(0.00554644 0.0415478 1.12791e-18)
(0.00776819 0.0413451 1.198e-17)
(0.00999293 0.0410731 5.04559e-18)
(0.0122212 0.0407305 -5.38277e-19)
(0.0144535 0.0403154 4.53117e-18)
(0.0166898 0.0398257 1.09331e-17)
(0.0189298 0.0392592 -2.33346e-17)
(0.0211731 0.0386131 2.66212e-17)
(0.0234183 0.0378845 -1.216e-17)
(0.0256638 0.0370705 -1.7971e-17)
(0.0279069 0.0361681 3.46236e-17)
(0.0301506 0.0351682 -2.62603e-18)
(0.0317177 0.0347384 6.72745e-18)
(-0.0103791 0.0426826 -3.16893e-17)
(-0.00806818 0.0429646 -8.35068e-18)
(-0.0057605 0.0431747 3.01049e-17)
(-0.00345528 0.0433141 3.58959e-17)
(-0.00115159 0.0433836 -1.32e-18)
(0.00115159 0.0433836 -2.03907e-19)
(0.00345528 0.0433141 -1.76664e-17)
(0.00576049 0.0431747 -3.55231e-19)
(0.00806817 0.0429646 1.26773e-17)
(0.0103791 0.0426826 3.53015e-18)
(0.012694 0.0423274 -2.15157e-18)
(0.0150133 0.0418969 6.66975e-18)
(0.0173371 0.0413891 1.23165e-17)
(0.0196652 0.0408013 -2.26341e-17)
(0.021997 0.0401307 2.97518e-17)
(0.0243313 0.0393742 -1.53402e-17)
(0.0266663 0.0385288 -1.93487e-17)
(0.0289994 0.0375912 3.42671e-17)
(0.0313334 0.0365523 -3.73077e-18)
(0.0329915 0.0360792 1.09157e-17)
(-0.0107868 0.0443814 -3.13528e-17)
(-0.0083848 0.0446738 -8.02649e-18)
(-0.00598642 0.0448916 3.08712e-17)
(-0.00359074 0.0450362 3.56204e-17)
(-0.00119672 0.0451083 -1.24435e-18)
(0.00119672 0.0451083 8.25564e-19)
(0.00359073 0.0450362 -1.9852e-17)
(0.00598641 0.0448917 -2.41437e-18)
(0.00838479 0.0446738 1.32219e-17)
(0.0107868 0.0443814 2.13452e-18)
(0.0131931 0.0440129 -4.73347e-18)
(0.0156043 0.0435663 8.64034e-18)
(0.0180204 0.0430393 1.40422e-17)
(0.0204415 0.0424291 -2.24164e-17)
(0.0228668 0.0417328 3.23161e-17)
(0.0252951 0.040947 -1.77451e-17)
(0.0277248 0.0400685 -2.09993e-17)
(0.0301529 0.0390939 3.28953e-17)
(0.0325824 0.0380139 -4.56945e-18)
(0.0343365 0.0374953 1.4554e-17)
(-0.0112176 0.0461766 -3.11082e-17)