/*--------------------------------*- C++ -*----------------------------------*\
  =========                 |
  \\      /  F ield         | OpenFOAM: The Open Source CFD Toolbox
   \\    /   O peration     | Website:  https://openfoam.org
    \\  /    A nd           | Version:  7
     \\/     M anipulation  |
\*---------------------------------------------------------------------------*/
FoamFile
{
    version     2.0;
    format      ascii;
    class       volScalarField;
    location    "80000";
    object      nu;
}
// * * * * * * * * * * * * * * * * * * * * * * * * * * * * * * * * * * * * * //

dimensions      [0 2 -1 0 0 0 0];

internalField   nonuniform List<scalar> 
4764
(
5.3738e-06
5.393e-06
5.41041e-06
5.42609e-06
5.43981e-06
5.45141e-06
5.04194e-06
5.07326e-06
5.10359e-06
5.13291e-06
5.16077e-06
5.18721e-06
5.21233e-06
5.23602e-06
5.25822e-06
5.2787e-06
5.29747e-06
5.31451e-06
5.32986e-06
5.34322e-06
5.35463e-06
5.36396e-06
5.37171e-06
5.37738e-06
5.38126e-06
5.38336e-06
5.38337e-06
5.38137e-06
5.37748e-06
5.37167e-06
5.36386e-06
5.35388e-06
5.34207e-06
5.32867e-06
5.31351e-06
4.95431e-06
4.98489e-06
5.0145e-06
5.04307e-06
5.0702e-06
5.096e-06
5.12055e-06
5.14368e-06
5.16527e-06
5.18531e-06
5.2036e-06
5.22029e-06
5.23527e-06
5.24827e-06
5.25952e-06
5.26864e-06
5.27616e-06
5.28157e-06
5.28533e-06
5.28739e-06
5.28749e-06
5.28556e-06
5.28189e-06
5.27618e-06
5.26858e-06
5.25882e-06
5.24732e-06
5.23419e-06
5.21939e-06
5.20276e-06
5.18433e-06
5.16448e-06
5.14304e-06
4.86826e-06
4.89808e-06
4.92698e-06
4.95483e-06
4.98125e-06
5.00644e-06
5.03039e-06
5.053e-06
5.074e-06
5.09362e-06
5.11142e-06
5.12773e-06
5.14232e-06
5.15497e-06
5.16604e-06
5.17501e-06
5.18227e-06
5.18747e-06
5.19113e-06
5.19313e-06
5.19328e-06
5.19141e-06
5.18795e-06
5.18237e-06
5.17493e-06
5.16541e-06
5.15424e-06
5.14139e-06
5.12694e-06
5.11067e-06
5.0927e-06
5.07332e-06
5.05242e-06
5.03007e-06
5.00621e-06
4.98096e-06
4.95455e-06
4.927e-06
4.89833e-06
4.86856e-06
4.8379e-06
4.80627e-06
4.77402e-06
4.74127e-06
4.70535e-06
4.78374e-06
4.81282e-06
4.84101e-06
4.86812e-06
4.89391e-06
4.9185e-06
4.94185e-06
4.96392e-06
4.98438e-06
5.00357e-06
5.02093e-06
5.03683e-06
5.05101e-06
5.06336e-06
5.07418e-06
5.08303e-06
5.09001e-06
5.09506e-06
5.09862e-06
5.10059e-06
5.10071e-06
5.09892e-06
5.09566e-06
5.09023e-06
5.0829e-06
5.07367e-06
5.0628e-06
5.05024e-06
5.03613e-06
5.02021e-06
5.00269e-06
4.98378e-06
4.96337e-06
4.94161e-06
4.91839e-06
4.89379e-06
4.86802e-06
4.84118e-06
4.81311e-06
4.78401e-06
4.75404e-06
4.7231e-06
4.69158e-06
4.6596e-06
4.62465e-06
4.70068e-06
4.72908e-06
4.75653e-06
4.78295e-06
4.80815e-06
4.83217e-06
4.85493e-06
4.87641e-06
4.89637e-06
4.91511e-06
4.93209e-06
4.94757e-06
4.96134e-06
4.97343e-06
4.98394e-06
4.99265e-06
4.9994e-06
5.00433e-06
5.00778e-06
5.00973e-06
5.0098e-06
5.00809e-06
5.00496e-06
4.99971e-06
4.99252e-06
4.98359e-06
4.97298e-06
4.96072e-06
4.94692e-06
4.93135e-06
4.91427e-06
4.89581e-06
4.8759e-06
4.85472e-06
4.83214e-06
4.80818e-06
4.78303e-06
4.75685e-06
4.72938e-06
4.70096e-06
4.67163e-06
4.64138e-06
4.61059e-06
4.57934e-06
4.54532e-06
4.61903e-06
4.64681e-06
4.67352e-06
4.69928e-06
4.72392e-06
4.74738e-06
4.76957e-06
4.79047e-06
4.80996e-06
4.82821e-06
4.84486e-06
4.8599e-06
4.87327e-06
4.88514e-06
4.89533e-06
4.90384e-06
4.9104e-06
4.91522e-06
4.91857e-06
4.92048e-06
4.92052e-06
4.9189e-06
4.91585e-06
4.91077e-06
4.90377e-06
4.89512e-06
4.88474e-06
4.87276e-06
4.85925e-06
4.84403e-06
4.82743e-06
4.80941e-06
4.78999e-06
4.76935e-06
4.7474e-06
4.72406e-06
4.69953e-06
4.67397e-06
4.64711e-06
4.61936e-06
4.59066e-06
4.5611e-06
4.53103e-06
4.50046e-06
4.46732e-06
4.53878e-06
4.56592e-06
4.59196e-06
4.61708e-06
4.64113e-06
4.66405e-06
4.68571e-06
4.70604e-06
4.7251e-06
4.74285e-06
4.75915e-06
4.77377e-06
4.78677e-06
4.79841e-06
4.80831e-06
4.81658e-06
4.82298e-06
4.82772e-06
4.83096e-06
4.83278e-06
4.83283e-06
4.83132e-06
4.82829e-06
4.82336e-06
4.81662e-06
4.80819e-06
4.79807e-06
4.78636e-06
4.7731e-06
4.75826e-06
4.74214e-06
4.72454e-06
4.70563e-06
4.68547e-06
4.66414e-06
4.64139e-06
4.61745e-06
4.59248e-06
4.56622e-06
4.53914e-06
4.51107e-06
4.48223e-06
4.45284e-06
4.42295e-06
4.39063e-06
4.45989e-06
4.48638e-06
4.51179e-06
4.53627e-06
4.55976e-06
4.58215e-06
4.60331e-06
4.6231e-06
4.64175e-06
4.65898e-06
4.6749e-06
4.68911e-06
4.70178e-06
4.71318e-06
4.72283e-06
4.73087e-06
4.73711e-06
4.74177e-06
4.74492e-06
4.74663e-06
4.74671e-06
4.74532e-06
4.74227e-06
4.73746e-06
4.73101e-06
4.72275e-06
4.71294e-06
4.70147e-06
4.68847e-06
4.67402e-06
4.65834e-06
4.64119e-06
4.62277e-06
4.60308e-06
4.5823e-06
4.56009e-06
4.53674e-06
4.51234e-06
4.48668e-06
4.46025e-06
4.43283e-06
4.40471e-06
4.37599e-06
4.34674e-06
4.31522e-06
4.38231e-06
4.40813e-06
4.43297e-06
4.45683e-06
4.47977e-06
4.50165e-06
4.52231e-06
4.54161e-06
4.55984e-06
4.57656e-06
4.59208e-06
4.60592e-06
4.61827e-06
4.62941e-06
4.63885e-06
4.64666e-06
4.65275e-06
4.65732e-06
4.6604e-06
4.66201e-06
4.66213e-06
4.66083e-06
4.65779e-06
4.65308e-06
4.64686e-06
4.63878e-06
4.62928e-06
4.61805e-06
4.60532e-06
4.59126e-06
4.57599e-06
4.5593e-06
4.54134e-06
4.52213e-06
4.50182e-06
4.48014e-06
4.45737e-06
4.43352e-06
4.40848e-06
4.38264e-06
4.3559e-06
4.32849e-06
4.30041e-06
4.27181e-06
4.24107e-06
4.30602e-06
4.33117e-06
4.35546e-06
4.37872e-06
4.40114e-06
4.42251e-06
4.44265e-06
4.4615e-06
4.4793e-06
4.49555e-06
4.51065e-06
4.52415e-06
4.53622e-06
4.54707e-06
4.5563e-06
4.56391e-06
4.56986e-06
4.57433e-06
4.57736e-06
4.5789e-06
4.57904e-06
4.5778e-06
4.57478e-06
4.57018e-06
4.56414e-06
4.55628e-06
4.54705e-06
4.53608e-06
4.52362e-06
4.50993e-06
4.49506e-06
4.4788e-06
4.46129e-06
4.44256e-06
4.42269e-06
4.40152e-06
4.37931e-06
4.35599e-06
4.33157e-06
4.3063e-06
4.28024e-06
4.2535e-06
4.22607e-06
4.19811e-06
4.16813e-06
4.23098e-06
4.25548e-06
4.27922e-06
4.30192e-06
4.3238e-06
4.34467e-06
4.36431e-06
4.38273e-06
4.4001e-06
4.41593e-06
4.4306e-06
4.44377e-06
4.45558e-06
4.46614e-06
4.47516e-06
4.48258e-06
4.48839e-06
4.49279e-06
4.49576e-06
4.49726e-06
4.4974e-06
4.49619e-06
4.4932e-06
4.48872e-06
4.48282e-06
4.47521e-06
4.46621e-06
4.4555e-06
4.44334e-06
4.43e-06
4.41548e-06
4.39964e-06
4.38256e-06
4.36432e-06
4.34487e-06
4.32421e-06
4.30252e-06
4.27974e-06
4.25591e-06
4.2312e-06
4.20578e-06
4.17968e-06
4.15291e-06
4.12558e-06
4.09634e-06
4.15713e-06
4.18104e-06
4.20422e-06
4.2264e-06
4.24775e-06
4.26809e-06
4.28728e-06
4.30526e-06
4.3222e-06
4.33765e-06
4.35188e-06
4.36476e-06
4.3763e-06
4.38658e-06
4.39537e-06
4.40265e-06
4.4083e-06
4.41263e-06
4.41554e-06
4.41701e-06
4.41716e-06
4.41594e-06
4.41298e-06
4.40865e-06
4.40286e-06
4.39552e-06
4.38673e-06
4.37628e-06
4.36443e-06
4.35142e-06
4.33722e-06
4.32176e-06
4.30513e-06
4.28733e-06
4.26832e-06
4.24818e-06
4.22697e-06
4.20471e-06
4.18146e-06
4.15732e-06
4.1325e-06
4.10703e-06
4.0809e-06
4.0542e-06
4.02566e-06
4.0603e-06
4.08443e-06
4.1078e-06
4.1304e-06
4.15209e-06
4.17293e-06
4.19274e-06
4.21152e-06
4.22907e-06
4.24555e-06
4.26068e-06
4.27448e-06
4.28708e-06
4.29835e-06
4.30834e-06
4.31689e-06
4.32406e-06
4.32958e-06
4.33381e-06
4.33664e-06
4.33811e-06
4.33826e-06
4.33702e-06
4.33412e-06
4.32991e-06
4.32423e-06
4.31715e-06
4.30855e-06
4.29836e-06
4.28686e-06
4.27416e-06
4.26025e-06
4.24515e-06
4.22894e-06
4.21158e-06
4.193e-06
4.17338e-06
4.15263e-06
4.13087e-06
4.10817e-06
4.08461e-06
4.06037e-06
4.03551e-06
4.01e-06
3.9839e-06
3.95607e-06
3.98931e-06
4.01284e-06
4.03571e-06
4.05775e-06
4.07896e-06
4.0993e-06
4.11862e-06
4.13697e-06
4.15411e-06
4.17014e-06
4.18496e-06
4.19837e-06
4.21067e-06
4.22168e-06
4.23138e-06
4.23971e-06
4.24676e-06
4.25216e-06
4.25628e-06
4.25904e-06
4.26051e-06
4.26066e-06
4.25939e-06
4.25659e-06
4.25246e-06
4.24691e-06
4.24005e-06
4.23164e-06
4.22171e-06
4.21056e-06
4.19814e-06
4.18453e-06
4.16977e-06
4.15395e-06
4.13702e-06
4.11886e-06
4.09974e-06
4.07946e-06
4.0582e-06
4.03604e-06
4.01306e-06
3.98938e-06
3.96508e-06
3.94019e-06
3.91469e-06
3.88753e-06
3.91939e-06
3.94237e-06
3.96474e-06
3.98623e-06
4.00697e-06
4.02685e-06
4.04569e-06
4.06359e-06
4.08033e-06
4.09593e-06
4.11043e-06
4.1235e-06
4.1355e-06
4.14625e-06
4.15568e-06
4.1638e-06
4.17069e-06
4.176e-06
4.18e-06
4.18271e-06
4.18417e-06
4.18431e-06
4.18303e-06
4.18032e-06
4.17625e-06
4.17085e-06
4.16417e-06
4.15595e-06
4.1463e-06
4.13546e-06
4.12334e-06
4.11002e-06
4.09559e-06
4.08015e-06
4.06362e-06
4.04587e-06
4.02725e-06
4.00744e-06
3.98666e-06
3.96505e-06
3.94262e-06
3.91948e-06
3.89574e-06
3.87143e-06
3.84653e-06
3.82002e-06
3.82729e-06
3.85052e-06
3.87299e-06
3.89486e-06
3.91583e-06
3.93609e-06
3.95553e-06
3.97392e-06
3.99137e-06
4.00772e-06
4.0229e-06
4.03708e-06
4.04984e-06
4.06152e-06
4.07203e-06
4.08118e-06
4.08913e-06
4.09583e-06
4.10105e-06
4.10497e-06
4.10761e-06
4.10906e-06
4.10917e-06
4.1079e-06
4.10528e-06
4.10128e-06
4.09601e-06
4.08948e-06
4.08146e-06
4.07212e-06
4.06153e-06
4.04972e-06
4.03669e-06
4.02258e-06
4.00751e-06
3.99136e-06
3.97402e-06
3.95586e-06
3.93655e-06
3.91624e-06
3.89515e-06
3.87325e-06
3.85066e-06
3.82745e-06
3.8037e-06
3.7794e-06
3.75351e-06
3.76003e-06
3.78268e-06
3.80468e-06
3.82605e-06
3.84651e-06
3.86631e-06
3.8853e-06
3.90327e-06
3.92025e-06
3.93622e-06
3.95102e-06
3.96486e-06
3.97732e-06
3.9887e-06
3.99896e-06
4.00786e-06
4.01564e-06
4.02214e-06
4.02729e-06
4.03115e-06
4.03372e-06
4.03513e-06
4.03521e-06
4.03397e-06
4.03142e-06
4.02751e-06
4.02236e-06
4.01597e-06
4.00816e-06
3.9991e-06
3.98875e-06
3.97725e-06
3.9645e-06
3.95071e-06
3.93599e-06
3.92023e-06
3.90329e-06
3.88555e-06
3.86674e-06
3.8469e-06
3.82631e-06
3.80494e-06
3.78287e-06
3.76019e-06
3.73698e-06
3.71328e-06
3.68799e-06
3.67104e-06
3.69377e-06
3.71586e-06
3.73741e-06
3.75827e-06
3.77824e-06
3.79759e-06
3.81613e-06
3.83369e-06
3.85023e-06
3.86582e-06
3.88027e-06
3.89372e-06
3.90591e-06
3.91701e-06
3.92703e-06
3.93569e-06
3.94329e-06
3.94961e-06
3.95468e-06
3.95849e-06
3.96099e-06
3.96235e-06
3.96238e-06
3.96119e-06
3.95871e-06
3.95491e-06
3.94987e-06
3.94361e-06
3.93601e-06
3.9272e-06
3.91709e-06
3.90588e-06
3.89343e-06
3.87996e-06
3.86557e-06
3.85019e-06
3.83365e-06
3.81632e-06
3.79797e-06
3.7786e-06
3.75852e-06
3.73765e-06
3.71608e-06
3.69394e-06
3.67124e-06
3.64813e-06
3.62344e-06
3.60631e-06
3.62851e-06
3.65006e-06
3.67114e-06
3.6915e-06
3.71101e-06
3.7299e-06
3.74798e-06
3.76513e-06
3.78125e-06
3.79647e-06
3.81059e-06
3.82366e-06
3.83556e-06
3.84641e-06
3.85621e-06
3.86465e-06
3.87206e-06
3.8782e-06
3.88319e-06
3.88695e-06
3.8894e-06
3.8907e-06
3.89068e-06
3.88954e-06
3.88711e-06
3.88344e-06
3.8785e-06
3.87239e-06
3.86498e-06
3.85639e-06
3.84652e-06
3.83559e-06
3.82344e-06
3.81031e-06
3.79624e-06
3.78122e-06
3.76507e-06
3.74812e-06
3.73022e-06
3.71132e-06
3.69172e-06
3.67135e-06
3.65029e-06
3.62865e-06
3.60647e-06
3.58394e-06
3.55985e-06
3.54253e-06
3.56422e-06
3.58525e-06
3.60584e-06
3.62571e-06
3.64478e-06
3.66321e-06
3.68083e-06
3.69758e-06
3.71331e-06
3.72816e-06
3.74195e-06
3.75465e-06
3.76627e-06
3.77689e-06
3.78644e-06
3.7947e-06
3.8019e-06
3.80789e-06
3.8128e-06
3.8165e-06
3.8189e-06
3.82015e-06
3.82009e-06
3.81898e-06
3.81661e-06
3.81304e-06
3.80822e-06
3.80227e-06
3.79505e-06
3.78664e-06
3.77703e-06
3.76635e-06
3.75451e-06
3.74171e-06
3.72795e-06
3.71328e-06
3.69752e-06
3.68095e-06
3.66345e-06
3.64503e-06
3.62591e-06
3.60602e-06
3.58545e-06
3.56433e-06
3.54267e-06
3.52068e-06
3.4972e-06
3.4797e-06
3.50087e-06
3.5214e-06
3.5415e-06
3.56088e-06
3.57952e-06
3.59749e-06
3.61466e-06
3.63102e-06
3.64637e-06
3.66086e-06
3.67432e-06
3.68668e-06
3.69802e-06
3.70844e-06
3.71773e-06
3.72584e-06
3.73281e-06
3.73865e-06
3.74348e-06
3.74711e-06
3.74945e-06
3.75065e-06
3.75058e-06
3.74948e-06
3.74719e-06
3.74369e-06
3.73901e-06
3.73323e-06
3.72617e-06
3.71794e-06
3.70857e-06
3.69814e-06
3.68661e-06
3.67413e-06
3.66069e-06
3.64634e-06
3.63098e-06
3.61476e-06
3.59767e-06
3.57972e-06
3.56105e-06
3.54165e-06
3.52157e-06
3.50094e-06
3.4798e-06
3.45834e-06
3.43546e-06
3.41778e-06
3.43844e-06
3.4585e-06
3.47809e-06
3.497e-06
3.51521e-06
3.53271e-06
3.54946e-06
3.56543e-06
3.58042e-06
3.59455e-06
3.60768e-06
3.61974e-06
3.63082e-06
3.641e-06
3.65007e-06
3.65802e-06
3.66477e-06
3.67047e-06
3.6752e-06
3.67874e-06
3.68104e-06
3.68217e-06
3.68213e-06
3.68102e-06
3.67883e-06
3.67539e-06
3.67085e-06
3.66524e-06
3.65832e-06
3.65029e-06
3.64113e-06
3.63094e-06
3.61972e-06
3.60755e-06
3.59442e-06
3.58038e-06
3.56542e-06
3.54955e-06
3.53285e-06
3.51536e-06
3.49714e-06
3.47821e-06
3.45861e-06
3.43848e-06
3.41785e-06
3.3969e-06
3.37462e-06
3.33613e-06
3.35675e-06
3.3769e-06
3.39651e-06
3.4156e-06
3.43405e-06
3.45184e-06
3.46889e-06
3.48523e-06
3.50081e-06
3.51542e-06
3.52921e-06
3.54204e-06
3.55381e-06
3.56463e-06
3.57457e-06
3.58342e-06
3.5912e-06
3.59775e-06
3.60332e-06
3.60793e-06
3.61139e-06
3.61364e-06
3.6147e-06
3.6147e-06
3.6136e-06
3.61147e-06
3.60811e-06
3.60371e-06
3.59825e-06
3.59148e-06
3.58364e-06
3.57469e-06
3.56474e-06
3.5538e-06
3.54195e-06
3.52912e-06
3.5154e-06
3.50081e-06
3.48529e-06
3.46899e-06
3.45196e-06
3.43417e-06
3.4157e-06
3.39658e-06
3.37694e-06
3.35679e-06
3.33635e-06
3.31465e-06
3.25525e-06
3.27646e-06
3.29659e-06
3.31627e-06
3.33542e-06
3.35403e-06
3.37202e-06
3.3894e-06
3.406e-06
3.42194e-06
3.43714e-06
3.45137e-06
3.46484e-06
3.47736e-06
3.48886e-06
3.49944e-06
3.50912e-06
3.51777e-06
3.52535e-06
3.53174e-06
3.53718e-06
3.54164e-06
3.54502e-06
3.54723e-06
3.54823e-06
3.54827e-06
3.54718e-06
3.5451e-06
3.54183e-06
3.53757e-06
3.53223e-06
3.52562e-06
3.51797e-06
3.50923e-06
3.49953e-06
3.48887e-06
3.4773e-06
3.46479e-06
3.45139e-06
3.43714e-06
3.42197e-06
3.40608e-06
3.38948e-06
3.37213e-06
3.3541e-06
3.33545e-06
3.31628e-06
3.29664e-06
3.27668e-06
3.25554e-06
3.19699e-06
3.21766e-06
3.2373e-06
3.25652e-06
3.2752e-06
3.29334e-06
3.3109e-06
3.32786e-06
3.34404e-06
3.35959e-06
3.3744e-06
3.38827e-06
3.40141e-06
3.41363e-06
3.42487e-06
3.43521e-06
3.44464e-06
3.45308e-06
3.46047e-06
3.4667e-06
3.47202e-06
3.47634e-06
3.47964e-06
3.48178e-06
3.48275e-06
3.48281e-06
3.48174e-06
3.47969e-06
3.47653e-06
3.47239e-06
3.46718e-06
3.46072e-06
3.45325e-06
3.44474e-06
3.4353e-06
3.4249e-06
3.4136e-06
3.40139e-06
3.38831e-06
3.3744e-06
3.35958e-06
3.34409e-06
3.32791e-06
3.31098e-06
3.29339e-06
3.27522e-06
3.2565e-06
3.23736e-06
3.21787e-06
3.19728e-06
3.13958e-06
3.15972e-06
3.17888e-06
3.19763e-06
3.21585e-06
3.23353e-06
3.25066e-06
3.26722e-06
3.28298e-06
3.29815e-06
3.31257e-06
3.32611e-06
3.33892e-06
3.35083e-06
3.36181e-06
3.37192e-06
3.3811e-06
3.38932e-06
3.39652e-06
3.40262e-06
3.4078e-06
3.412e-06
3.41521e-06
3.41729e-06
3.41824e-06
3.41831e-06
3.41728e-06
3.41525e-06
3.41219e-06
3.40816e-06
3.40307e-06
3.39677e-06
3.38947e-06
3.38119e-06
3.37201e-06
3.36188e-06
3.35084e-06
3.33892e-06
3.32615e-06
3.31257e-06
3.29812e-06
3.28301e-06
3.26722e-06
3.25073e-06
3.23357e-06
3.21586e-06
3.19759e-06
3.17894e-06
3.15993e-06
3.13985e-06
3.08301e-06
3.10263e-06
3.12131e-06
3.1396e-06
3.15738e-06
3.17459e-06
3.19128e-06
3.20746e-06
3.22281e-06
3.23761e-06
3.25165e-06
3.26486e-06
3.27733e-06
3.28894e-06
3.29966e-06
3.30955e-06
3.31849e-06
3.3265e-06
3.33351e-06
3.33947e-06
3.34453e-06
3.34862e-06
3.35171e-06
3.35375e-06
3.35469e-06
3.35475e-06
3.35377e-06
3.35177e-06
3.34879e-06
3.34487e-06
3.33988e-06
3.33374e-06
3.32663e-06
3.31858e-06
3.30964e-06
3.29977e-06
3.28899e-06
3.27736e-06
3.26491e-06
3.25165e-06
3.23756e-06
3.22281e-06
3.20741e-06
3.19135e-06
3.17461e-06
3.15736e-06
3.13956e-06
3.12138e-06
3.10283e-06
3.08325e-06
3.02729e-06
3.04639e-06
3.06459e-06
3.08242e-06
3.09976e-06
3.11651e-06
3.13278e-06
3.14856e-06
3.16353e-06
3.17794e-06
3.19162e-06
3.20452e-06
3.21665e-06
3.22797e-06
3.23842e-06
3.24808e-06
3.2568e-06
3.26459e-06
3.27141e-06
3.27725e-06
3.28217e-06
3.28616e-06
3.28915e-06
3.29113e-06
3.29206e-06
3.29211e-06
3.29118e-06
3.28922e-06
3.28633e-06
3.28249e-06
3.27762e-06
3.27163e-06
3.26471e-06
3.25688e-06
3.24818e-06
3.23856e-06
3.22805e-06
3.2167e-06
3.20456e-06
3.19161e-06
3.17789e-06
3.1635e-06
3.14849e-06
3.13283e-06
3.11652e-06
3.0997e-06
3.08238e-06
3.06466e-06
3.04656e-06
3.0275e-06
2.97239e-06
2.99099e-06
3.00872e-06
3.02607e-06
3.04299e-06
3.05929e-06
3.07513e-06
3.09051e-06
3.10512e-06
3.11914e-06
3.13247e-06
3.14506e-06
3.15686e-06
3.16788e-06
3.17809e-06
3.18752e-06
3.19602e-06
3.20359e-06
3.21022e-06
3.21593e-06
3.22072e-06
3.22462e-06
3.2275e-06
3.22943e-06
3.23036e-06
3.2304e-06
3.2295e-06
3.2276e-06
3.22477e-06
3.22102e-06
3.21625e-06
3.21043e-06
3.2037e-06
3.1961e-06
3.18761e-06
3.17825e-06
3.168e-06
3.15693e-06
3.14509e-06
3.13246e-06
3.11909e-06
3.10506e-06
3.09043e-06
3.07517e-06
3.05929e-06
3.0429e-06
3.02605e-06
3.00878e-06
2.99112e-06
2.97257e-06
2.91831e-06
2.93641e-06
2.95367e-06
2.97056e-06
2.98705e-06
3.00293e-06
3.01833e-06
3.03332e-06
3.04756e-06
3.06121e-06
3.0742e-06
3.08647e-06
3.09795e-06
3.10869e-06
3.11865e-06
3.12785e-06
3.13613e-06
3.14349e-06
3.14993e-06
3.15551e-06
3.16017e-06
3.16396e-06
3.16676e-06
3.16864e-06
3.16956e-06
3.16961e-06
3.16873e-06
3.16687e-06
3.1641e-06
3.16044e-06
3.1558e-06
3.15014e-06
3.1436e-06
3.1362e-06
3.12792e-06
3.11882e-06
3.10883e-06
3.09804e-06
3.08649e-06
3.07419e-06
3.06116e-06
3.04749e-06
3.03323e-06
3.01837e-06
3.00289e-06
2.98694e-06
2.97055e-06
2.95372e-06
2.93651e-06
2.91846e-06
2.86505e-06
2.88265e-06
2.89945e-06
2.91589e-06
2.93194e-06
2.94741e-06
2.96239e-06
2.97697e-06
2.99085e-06
3.00413e-06
3.01679e-06
3.02875e-06
3.0399e-06
3.05037e-06
3.06009e-06
3.06906e-06
3.07713e-06
3.08428e-06
3.09054e-06
3.09598e-06
3.10052e-06
3.10421e-06
3.10693e-06
3.10876e-06
3.10967e-06
3.10971e-06
3.10886e-06
3.10703e-06
3.10433e-06
3.10076e-06
3.09624e-06
3.09075e-06
3.0844e-06
3.07718e-06
3.06912e-06
3.06026e-06
3.05052e-06
3.04001e-06
3.02876e-06
3.01678e-06
3.0041e-06
2.99077e-06
2.97688e-06
2.96241e-06
2.94734e-06
2.93182e-06
2.91589e-06
2.89949e-06
2.88273e-06
2.86518e-06
2.8126e-06
2.82971e-06
2.84605e-06
2.86204e-06
2.87766e-06
2.89272e-06
2.90729e-06
2.92145e-06
2.93498e-06
2.9479e-06
2.96024e-06
2.97188e-06
2.98273e-06
2.99294e-06
3.00241e-06
3.01114e-06
3.019e-06
3.02596e-06
3.03205e-06
3.03733e-06
3.04177e-06
3.04534e-06
3.04798e-06
3.04976e-06
3.05067e-06
3.0507e-06
3.04987e-06
3.04808e-06
3.04544e-06
3.04197e-06
3.03756e-06
3.03225e-06
3.02607e-06
3.01903e-06
3.01119e-06
3.00257e-06
2.99308e-06
2.98285e-06
2.97188e-06
2.96024e-06
2.9479e-06
2.93491e-06
2.92138e-06
2.9073e-06
2.89263e-06
2.87754e-06
2.86205e-06
2.84609e-06
2.82977e-06
2.81272e-06
2.76096e-06
2.77758e-06
2.79347e-06
2.80902e-06
2.82419e-06
2.83886e-06
2.85304e-06
2.86679e-06
2.87996e-06
2.89253e-06
2.90454e-06
2.91587e-06
2.92642e-06
2.93636e-06
2.94558e-06
2.95409e-06
2.96173e-06
2.96851e-06
2.97444e-06
2.97955e-06
2.9839e-06
2.98735e-06
2.98992e-06
2.99166e-06
2.99256e-06
2.99258e-06
2.99176e-06
2.99001e-06
2.98744e-06
2.98406e-06
2.97977e-06
2.97463e-06
2.96862e-06
2.96176e-06
2.95413e-06
2.94575e-06
2.9365e-06
2.92654e-06
2.91586e-06
2.90455e-06
2.89254e-06
2.87989e-06
2.86673e-06
2.85301e-06
2.83876e-06
2.8241e-06
2.80903e-06
2.7935e-06
2.77762e-06
2.76107e-06
2.71012e-06
2.72628e-06
2.74171e-06
2.75682e-06
2.77155e-06
2.78583e-06
2.79962e-06
2.81296e-06
2.82578e-06
2.83801e-06
2.84969e-06
2.86072e-06
2.87097e-06
2.88065e-06
2.88962e-06
2.8979e-06
2.90533e-06
2.91193e-06
2.9177e-06
2.92266e-06
2.92689e-06
2.93023e-06
2.93274e-06
2.93444e-06
2.93532e-06
2.93533e-06
2.93453e-06
2.93282e-06
2.93032e-06
2.92704e-06
2.92286e-06
2.91787e-06
2.91203e-06
2.90536e-06
2.89794e-06
2.88978e-06
2.88078e-06
2.87109e-06
2.8607e-06
2.84971e-06
2.83802e-06
2.82572e-06
2.81292e-06
2.79956e-06
2.78573e-06
2.77149e-06
2.75684e-06
2.74173e-06
2.72629e-06
2.71022e-06
2.66009e-06
2.67579e-06
2.69077e-06
2.70545e-06
2.71973e-06
2.73363e-06
2.74704e-06
2.75999e-06
2.77246e-06
2.78435e-06
2.79569e-06
2.80642e-06
2.81638e-06
2.8258e-06
2.83452e-06
2.84257e-06
2.84979e-06
2.85622e-06
2.86183e-06
2.86662e-06
2.87075e-06
2.87398e-06
2.87642e-06
2.87811e-06
2.87894e-06
2.87896e-06
2.87817e-06
2.87651e-06
2.87408e-06
2.87088e-06
2.86681e-06
2.86197e-06
2.85629e-06
2.84983e-06
2.8426e-06
2.83468e-06
2.82593e-06
2.8165e-06
2.80639e-06
2.79572e-06
2.78434e-06
2.77239e-06
2.75995e-06
2.74695e-06
2.73354e-06
2.71971e-06
2.70548e-06
2.69079e-06
2.67578e-06
2.66018e-06
2.61087e-06
2.62611e-06
2.64065e-06
2.65489e-06
2.66876e-06
2.68226e-06
2.6953e-06
2.70785e-06
2.71998e-06
2.73153e-06
2.74254e-06
2.75296e-06
2.76264e-06
2.77181e-06
2.78028e-06
2.78808e-06
2.79512e-06
2.80136e-06
2.80682e-06
2.81146e-06
2.81548e-06
2.8186e-06
2.82098e-06
2.82264e-06
2.82344e-06
2.82346e-06
2.82267e-06
2.82108e-06
2.8187e-06
2.81558e-06
2.81163e-06
2.80692e-06
2.80142e-06
2.79516e-06
2.78813e-06
2.78044e-06
2.77193e-06
2.76276e-06
2.75293e-06
2.74257e-06
2.73151e-06
2.71991e-06
2.70783e-06
2.69518e-06
2.68218e-06
2.66876e-06
2.65494e-06
2.64068e-06
2.62609e-06
2.61095e-06
2.56247e-06
2.57725e-06
2.59136e-06
2.60517e-06
2.61862e-06
2.63172e-06
2.64438e-06
2.65656e-06
2.66835e-06
2.67956e-06
2.69023e-06
2.70035e-06
2.70976e-06
2.71866e-06
2.7269e-06
2.73445e-06
2.7413e-06
2.74736e-06
2.75266e-06
2.75717e-06
2.76108e-06
2.76409e-06
2.76641e-06
2.76804e-06
2.76881e-06
2.76884e-06
2.76805e-06
2.76652e-06
2.7642e-06
2.76114e-06
2.75731e-06
2.75274e-06
2.74741e-06
2.74134e-06
2.73451e-06
2.72705e-06
2.71879e-06
2.70988e-06
2.70033e-06
2.69027e-06
2.67953e-06
2.66827e-06
2.65654e-06
2.64426e-06
2.63165e-06
2.61864e-06
2.60523e-06
2.59139e-06
2.57723e-06
2.56254e-06
2.51489e-06
2.52921e-06
2.54289e-06
2.55628e-06
2.56932e-06
2.58202e-06
2.59431e-06
2.60613e-06
2.61755e-06
2.62844e-06
2.63878e-06
2.64859e-06
2.65773e-06
2.66637e-06
2.67437e-06
2.68168e-06
2.68834e-06
2.69422e-06
2.69936e-06
2.70375e-06
2.70754e-06
2.71046e-06
2.71272e-06
2.71429e-06
2.71505e-06
2.71508e-06
2.71431e-06
2.71282e-06
2.71057e-06
2.70758e-06
2.70386e-06
2.69943e-06
2.69427e-06
2.68839e-06
2.68177e-06
2.67452e-06
2.66651e-06
2.65784e-06
2.64858e-06
2.63881e-06
2.62841e-06
2.61748e-06
2.60608e-06
2.59418e-06
2.58196e-06
2.56935e-06
2.55634e-06
2.54294e-06
2.52919e-06
2.51495e-06
2.46813e-06
2.482e-06
2.49525e-06
2.50822e-06
2.52086e-06
2.53315e-06
2.54508e-06
2.55654e-06
2.56761e-06
2.57817e-06
2.58818e-06
2.59769e-06
2.60656e-06
2.61495e-06
2.62272e-06
2.62978e-06
2.63624e-06
2.64193e-06
2.64692e-06
2.65121e-06
2.65487e-06
2.65771e-06
2.65991e-06
2.66141e-06
2.66217e-06
2.66219e-06
2.66143e-06
2.65998e-06
2.65782e-06
2.65488e-06
2.65127e-06
2.64699e-06
2.642e-06
2.63629e-06
2.62988e-06
2.62284e-06
2.61508e-06
2.60667e-06
2.59769e-06
2.58821e-06
2.57813e-06
2.56754e-06
2.55647e-06
2.54495e-06
2.53311e-06
2.5209e-06
2.50829e-06
2.49531e-06
2.48198e-06
2.46819e-06
2.42221e-06
2.43562e-06
2.44845e-06
2.461e-06
2.47324e-06
2.48514e-06
2.49669e-06
2.5078e-06
2.51851e-06
2.52874e-06
2.53844e-06
2.54765e-06
2.55625e-06
2.56438e-06
2.57192e-06
2.57876e-06
2.58502e-06
2.59052e-06
2.59536e-06
2.59953e-06
2.60307e-06
2.60583e-06
2.60797e-06
2.6094e-06
2.61016e-06
2.61018e-06
2.60944e-06
2.60802e-06
2.60594e-06
2.60307e-06
2.59957e-06
2.59542e-06
2.5906e-06
2.58507e-06
2.57886e-06
2.57202e-06
2.56452e-06
2.55637e-06
2.54767e-06
2.53847e-06
2.52871e-06
2.51844e-06
2.50771e-06
2.49658e-06
2.48511e-06
2.47328e-06
2.46107e-06
2.44852e-06
2.43562e-06
2.42227e-06
2.37712e-06
2.39008e-06
2.4025e-06
2.41463e-06
2.42646e-06
2.43798e-06
2.44916e-06
2.45993e-06
2.47029e-06
2.48018e-06
2.48955e-06
2.49848e-06
2.50682e-06
2.51469e-06
2.52199e-06
2.52861e-06
2.53466e-06
2.53998e-06
2.54467e-06
2.54873e-06
2.55214e-06
2.55483e-06
2.5569e-06
2.55827e-06
2.55903e-06
2.55905e-06
2.55832e-06
2.55695e-06
2.55494e-06
2.55214e-06
2.54874e-06
2.54473e-06
2.54007e-06
2.53471e-06
2.52871e-06
2.52208e-06
2.51482e-06
2.50694e-06
2.4985e-06
2.48959e-06
2.48014e-06
2.4702e-06
2.45981e-06
2.44906e-06
2.43796e-06
2.4265e-06
2.4147e-06
2.40257e-06
2.39009e-06
2.37718e-06
2.33288e-06
2.34539e-06
2.35739e-06
2.3691e-06
2.38054e-06
2.39168e-06
2.4025e-06
2.41292e-06
2.42293e-06
2.43248e-06
2.44154e-06
2.45018e-06
2.45826e-06
2.46586e-06
2.47293e-06
2.47935e-06
2.48518e-06
2.49033e-06
2.49488e-06
2.49881e-06
2.50209e-06
2.50471e-06
2.50672e-06
2.50804e-06
2.50878e-06
2.5088e-06
2.50808e-06
2.50676e-06
2.50482e-06
2.5021e-06
2.4988e-06
2.49492e-06
2.49041e-06
2.48524e-06
2.47943e-06
2.47301e-06
2.466e-06
2.45838e-06
2.45021e-06
2.44158e-06
2.43244e-06
2.42283e-06
2.41278e-06
2.40239e-06
2.39168e-06
2.38059e-06
2.36918e-06
2.35747e-06
2.3454e-06
2.33294e-06
2.28949e-06
2.30157e-06
2.31314e-06
2.32444e-06
2.33549e-06
2.34626e-06
2.35671e-06
2.36678e-06
2.37645e-06
2.38566e-06
2.3944e-06
2.40275e-06
2.41058e-06
2.41792e-06
2.42476e-06
2.43097e-06
2.43659e-06
2.44157e-06
2.44598e-06
2.44977e-06
2.45293e-06
2.45549e-06
2.45743e-06
2.4587e-06
2.45941e-06
2.45944e-06
2.45874e-06
2.45746e-06
2.4556e-06
2.45295e-06
2.44975e-06
2.446e-06
2.44165e-06
2.43665e-06
2.43104e-06
2.42483e-06
2.41806e-06
2.41069e-06
2.40279e-06
2.39444e-06
2.38561e-06
2.37633e-06
2.36663e-06
2.3566e-06
2.34626e-06
2.33554e-06
2.32453e-06
2.31322e-06
2.30157e-06
2.28955e-06
2.24697e-06
2.25861e-06
2.26977e-06
2.28066e-06
2.29131e-06
2.30171e-06
2.31179e-06
2.32152e-06
2.33084e-06
2.33972e-06
2.34816e-06
2.35622e-06
2.3638e-06
2.37087e-06
2.37747e-06
2.38348e-06
2.38889e-06
2.39372e-06
2.39797e-06
2.40164e-06
2.40467e-06
2.40716e-06
2.40903e-06
2.41026e-06
2.41094e-06
2.41097e-06
2.41031e-06
2.40907e-06
2.40727e-06
2.4047e-06
2.4016e-06
2.39798e-06
2.39378e-06
2.38896e-06
2.38354e-06
2.37755e-06
2.371e-06
2.36389e-06
2.35627e-06
2.34819e-06
2.33966e-06
2.33072e-06
2.32136e-06
2.31169e-06
2.30171e-06
2.29137e-06
2.28075e-06
2.26984e-06
2.25862e-06
2.24702e-06
2.20531e-06
2.21652e-06
2.22727e-06
2.23776e-06
2.24803e-06
2.25806e-06
2.26777e-06
2.27715e-06
2.28613e-06
2.29469e-06
2.30282e-06
2.31058e-06
2.31792e-06
2.32471e-06
2.33108e-06
2.33689e-06
2.34211e-06
2.34677e-06
2.35088e-06
2.35441e-06
2.35733e-06
2.35974e-06
2.36155e-06
2.36274e-06
2.36338e-06
2.36341e-06
2.36278e-06
2.36159e-06
2.35984e-06
2.35735e-06
2.35436e-06
2.35086e-06
2.34681e-06
2.34217e-06
2.33695e-06
2.33117e-06
2.32485e-06
2.31799e-06
2.31064e-06
2.30284e-06
2.29461e-06
2.286e-06
2.27698e-06
2.26767e-06
2.25805e-06
2.24809e-06
2.23785e-06
2.22734e-06
2.21654e-06
2.20536e-06
2.16454e-06
2.17532e-06
2.18567e-06
2.19576e-06
2.20564e-06
2.2153e-06
2.22465e-06
2.23368e-06
2.24232e-06
2.25055e-06
2.25838e-06
2.26586e-06
2.27294e-06
2.27946e-06
2.2856e-06
2.29121e-06
2.29624e-06
2.30075e-06
2.3047e-06
2.30811e-06
2.31091e-06
2.31324e-06
2.31498e-06
2.31613e-06
2.31674e-06
2.31676e-06
2.31618e-06
2.31502e-06
2.31332e-06
2.31093e-06
2.30805e-06
2.30467e-06
2.30076e-06
2.2963e-06
2.29128e-06
2.2857e-06
2.27962e-06
2.273e-06
2.26593e-06
2.2584e-06
2.25048e-06
2.24219e-06
2.23351e-06
2.22455e-06
2.21528e-06
2.2057e-06
2.19585e-06
2.18573e-06
2.17535e-06
2.16459e-06
2.12467e-06
2.13502e-06
2.14496e-06
2.15466e-06
2.16416e-06
2.17345e-06
2.18244e-06
2.19112e-06
2.19942e-06
2.20734e-06
2.21487e-06
2.22207e-06
2.22888e-06
2.23515e-06
2.24105e-06
2.24645e-06
2.25129e-06
2.25565e-06
2.25945e-06
2.26273e-06
2.26542e-06
2.26767e-06
2.26934e-06
2.27045e-06
2.27103e-06
2.27104e-06
2.2705e-06
2.26939e-06
2.26774e-06
2.26545e-06
2.26267e-06
2.25941e-06
2.25564e-06
2.25136e-06
2.24653e-06
2.24116e-06
2.23531e-06
2.22893e-06
2.22214e-06
2.21489e-06
2.20727e-06
2.1993e-06
2.19096e-06
2.18234e-06
2.17343e-06
2.16421e-06
2.15475e-06
2.14503e-06
2.13506e-06
2.12472e-06
2.08572e-06
2.09564e-06
2.10518e-06
2.11449e-06
2.1236e-06
2.13253e-06
2.14115e-06
2.14948e-06
2.15746e-06
2.16505e-06
2.1723e-06
2.17921e-06
2.18576e-06
2.19178e-06
2.19745e-06
2.20264e-06
2.2073e-06
2.21149e-06
2.21515e-06
2.2183e-06
2.22088e-06
2.22305e-06
2.22465e-06
2.22572e-06
2.22627e-06
2.22628e-06
2.22577e-06
2.22471e-06
2.22311e-06
2.22091e-06
2.21824e-06
2.2151e-06
2.21148e-06
2.20736e-06
2.20272e-06
2.19755e-06
2.19193e-06
2.1858e-06
2.17928e-06
2.17231e-06
2.16499e-06
2.15734e-06
2.14934e-06
2.14106e-06
2.13249e-06
2.12365e-06
2.11456e-06
2.10524e-06
2.09568e-06
2.08576e-06
2.04768e-06
2.05718e-06
2.06632e-06
2.07525e-06
2.08398e-06
2.09254e-06
2.1008e-06
2.10879e-06
2.11644e-06
2.12371e-06
2.13067e-06
2.1373e-06
2.14359e-06
2.14936e-06
2.1548e-06
2.15979e-06
2.16425e-06
2.16829e-06
2.1718e-06
2.17483e-06
2.17731e-06
2.17938e-06
2.18092e-06
2.18194e-06
2.18247e-06
2.18248e-06
2.18199e-06
2.18098e-06
2.17943e-06
2.17733e-06
2.17477e-06
2.17175e-06
2.16827e-06
2.16432e-06
2.15987e-06
2.1549e-06
2.14951e-06
2.14363e-06
2.13737e-06
2.13068e-06
2.12367e-06
2.11633e-06
2.10866e-06
2.10072e-06
2.09249e-06
2.08403e-06
2.07531e-06
2.06639e-06
2.05723e-06
2.04773e-06
2.01059e-06
2.01967e-06
2.02841e-06
2.03696e-06
2.04531e-06
2.0535e-06
2.06141e-06
2.06905e-06
2.07637e-06
2.08334e-06
2.09001e-06
2.09636e-06
2.10238e-06
2.10792e-06
2.11312e-06
2.11791e-06
2.12219e-06
2.12607e-06
2.12943e-06
2.13234e-06
2.13471e-06
2.13669e-06
2.13816e-06
2.13915e-06
2.13965e-06
2.13966e-06
2.1392e-06
2.13824e-06
2.13674e-06
2.13473e-06
2.13228e-06
2.12938e-06
2.12604e-06
2.12225e-06
2.11799e-06
2.11321e-06
2.10806e-06
2.10243e-06
2.09643e-06
2.09002e-06
2.08331e-06
2.07629e-06
2.06894e-06
2.06133e-06
2.05345e-06
2.04536e-06
2.03701e-06
2.02847e-06
2.01972e-06
2.01063e-06
1.97445e-06
1.98312e-06
1.99146e-06
1.99964e-06
2.00761e-06
2.01542e-06
2.02299e-06
2.03029e-06
2.03728e-06
2.04394e-06
2.05034e-06
2.0564e-06
2.06217e-06
2.06747e-06
2.07243e-06
2.07702e-06
2.08112e-06
2.08483e-06
2.08806e-06
2.09085e-06
2.09311e-06
2.095e-06
2.0964e-06
2.09735e-06
2.09783e-06
2.09784e-06
2.0974e-06
2.09648e-06
2.09504e-06
2.09312e-06
2.09078e-06
2.088e-06
2.0848e-06
2.08117e-06
2.07709e-06
2.07252e-06
2.06759e-06
2.06221e-06
2.05647e-06
2.05034e-06
2.04394e-06
2.03721e-06
2.03019e-06
2.02292e-06
2.01539e-06
2.00765e-06
1.99968e-06
1.99152e-06
1.98316e-06
1.97449e-06
1.93928e-06
1.94754e-06
1.9555e-06
1.96329e-06
1.97089e-06
1.97834e-06
1.98556e-06
1.99252e-06
1.99919e-06
2.00555e-06
2.01166e-06
2.01745e-06
2.02295e-06
2.02802e-06
2.03275e-06
2.03714e-06
2.04106e-06
2.0446e-06
2.04769e-06
2.05036e-06
2.05252e-06
2.05431e-06
2.05566e-06
2.05657e-06
2.05703e-06