/*--------------------------------*- C++ -*----------------------------------*\
  =========                 |
  \\      /  F ield         | OpenFOAM: The Open Source CFD Toolbox
   \\    /   O peration     | Website:  https://openfoam.org
    \\  /    A nd           | Version:  7
     \\/     M anipulation  |
\*---------------------------------------------------------------------------*/
FoamFile
{
    version     2.0;
    format      ascii;
    class       volVectorField;
    location    "36000";
    object      vorticity;
}
// * * * * * * * * * * * * * * * * * * * * * * * * * * * * * * * * * * * * * //

dimensions      [0 0 -1 0 0 0 0];

internalField   nonuniform List<vector> 
4844
(
(0.000113828 -4.22911e-05 7.21126e-19)
(0.000112744 -4.60317e-05 -1.40564e-17)
(0.000111523 -4.98477e-05 -3.53042e-18)
(0.000115027 -4.25749e-05 4.37321e-18)
(0.000113843 -4.63126e-05 -2.85107e-18)
(0.000112515 -5.01579e-05 -3.623e-19)
(0.000111189 -5.39697e-05 -1.55743e-18)
(0.000109736 -5.76751e-05 -5.14792e-18)
(0.000108203 -6.13009e-05 -5.38287e-18)
(0.000106624 -6.4811e-05 -4.57452e-18)
(0.000105053 -6.81912e-05 -4.68369e-18)
(0.000116294 -4.2842e-05 1.60716e-18)
(0.000115008 -4.65691e-05 -2.60906e-18)
(0.000113577 -5.04365e-05 -1.65008e-18)
(0.000112092 -5.42514e-05 -2.95824e-18)
(0.000110579 -5.79676e-05 -6.53342e-18)
(0.000108996 -6.16083e-05 -6.94296e-18)
(0.00010736 -6.5139e-05 -6.01853e-18)
(0.000105698 -6.85456e-05 -6.0367e-18)
(0.000104113 -7.18057e-05 -5.29796e-18)
(0.000102458 -7.48771e-05 -4.34432e-18)
(0.000100807 -7.78193e-05 -5.12231e-18)
(0.000117553 -4.31015e-05 -3.70683e-19)
(0.00011615 -4.67904e-05 -1.26831e-18)
(0.000114651 -5.06776e-05 -1.94736e-18)
(0.000113064 -5.45134e-05 -2.94786e-18)
(0.000111486 -5.82643e-05 -6.01479e-18)
(0.000109851 -6.19237e-05 -6.36426e-18)
(0.000108164 -6.54667e-05 -5.70945e-18)
(0.00010642 -6.8884e-05 -6.01526e-18)
(0.000104675 -7.21143e-05 -6.35581e-18)
(0.000102948 -7.51797e-05 -5.33344e-18)
(0.000101201 -7.81262e-05 -5.55473e-18)
(9.95543e-05 -8.09167e-05 -4.48533e-18)
(9.78574e-05 -8.34818e-05 -3.69828e-18)
(9.61429e-05 -8.5878e-05 -3.84041e-18)
(9.44275e-05 -8.80917e-05 -4.89111e-18)
(0.000101267 -8.15028e-05 -6.15539e-18)
(0.00011862 -4.33102e-05 -1.29534e-18)
(0.000117195 -4.69537e-05 -4.51449e-19)
(0.000115628 -5.08818e-05 -1.93666e-18)
(0.00011401 -5.47597e-05 -2.16322e-18)
(0.000112379 -5.8543e-05 -4.64401e-18)
(0.000110694 -6.22213e-05 -5.17357e-18)
(0.000108956 -6.57764e-05 -4.78354e-18)
(0.000107166 -6.91926e-05 -5.0839e-18)
(0.000105317 -7.24114e-05 -5.75163e-18)
(0.000103515 -7.54835e-05 -5.31308e-18)
(0.000101679 -7.84223e-05 -5.19662e-18)
(9.98716e-05 -8.11552e-05 -5.04515e-18)
(9.81163e-05 -8.36907e-05 -4.18907e-18)
(9.63519e-05 -8.60593e-05 -3.55982e-18)
(9.45981e-05 -8.82339e-05 -5.37698e-18)
(0.000101122 -8.18268e-05 -6.06822e-18)
(0.000119508 -4.34737e-05 -1.32245e-18)
(0.0001181 -4.70911e-05 -3.64533e-19)
(0.000116507 -5.10506e-05 -1.8579e-18)
(0.00011486 -5.49709e-05 -1.86749e-18)
(0.000113184 -5.87823e-05 -3.91953e-18)
(0.000111454 -6.24769e-05 -4.56176e-18)
(0.000109668 -6.6041e-05 -4.33438e-18)
(0.000107829 -6.94566e-05 -4.72461e-18)
(0.000105943 -7.26881e-05 -5.1043e-18)
(0.000104075 -7.5765e-05 -4.57957e-18)
(0.000102188 -7.86887e-05 -4.35482e-18)
(0.000100275 -8.139e-05 -5.04041e-18)
(9.84512e-05 -8.39182e-05 -4.35452e-18)
(9.66366e-05 -8.62644e-05 -3.30066e-18)
(9.48581e-05 -8.84022e-05 -5.11263e-18)
(0.000101098 -8.21943e-05 -5.48709e-18)
(0.000118875 -4.71924e-05 -1.572e-20)
(0.000117278 -5.11942e-05 -1.61362e-18)
(0.00011561 -5.51473e-05 -1.57866e-18)
(0.000113897 -5.89816e-05 -3.55253e-18)
(0.000112124 -6.26892e-05 -4.55696e-18)
(0.000110295 -6.62599e-05 -4.28882e-18)
(0.000108412 -6.96757e-05 -4.75129e-18)
(0.000106485 -7.29138e-05 -4.91717e-18)
(0.00010456 -7.59917e-05 -4.25844e-18)
(0.000102619 -7.89019e-05 -4.39007e-18)
(0.000100668 -8.16044e-05 -4.91982e-18)
(9.87875e-05 -8.41263e-05 -3.63976e-18)
(9.69231e-05 -8.64534e-05 -3.32011e-18)
(9.51339e-05 -8.85703e-05 -4.92718e-18)
(0.000101303 -8.2701e-05 -5.37975e-18)
(0.00011954 -4.72725e-05 2.88315e-19)
(0.000117943 -5.13099e-05 -1.46742e-18)
(0.000116259 -5.52896e-05 -1.47086e-18)
(0.000114513 -5.91407e-05 -3.24859e-18)
(0.000112701 -6.28574e-05 -4.56942e-18)
(0.000110831 -6.64321e-05 -4.40246e-18)
(0.000108908 -6.9847e-05 -5.05271e-18)
(0.000106938 -7.30869e-05 -5.17804e-18)
(0.000104964 -7.61631e-05 -4.09685e-18)
(0.000102974 -7.90616e-05 -4.38559e-18)
(0.00010098 -8.17612e-05 -4.88168e-18)
(9.90549e-05 -8.42771e-05 -3.56901e-18)
(9.72216e-05 -8.66397e-05 -3.21267e-18)
(9.55063e-05 -8.88815e-05 -4.94681e-18)
(0.000101847 -8.35142e-05 -6.3081e-18)
(0.000120082 -4.73493e-05 3.78768e-19)
(0.000118502 -5.14009e-05 -1.39146e-18)
(0.000116805 -5.53976e-05 -1.61365e-18)
(0.000115031 -5.92587e-05 -3.29387e-18)
(0.000113182 -6.29803e-05 -4.74019e-18)
(0.000111273 -6.65567e-05 -4.61787e-18)
(0.000109313 -6.99687e-05 -5.14905e-18)
(0.000107299 -7.32058e-05 -5.40723e-18)
(0.000105281 -7.62785e-05 -4.35981e-18)
(0.000103283 -7.91837e-05 -4.77249e-18)
(0.000101326 -8.19254e-05 -4.39832e-18)
(9.94497e-05 -8.45256e-05 -3.64278e-18)
(9.77713e-05 -8.70672e-05 -3.51749e-18)
(9.62674e-05 -8.96122e-05 -5.43194e-18)
(0.00010274 -8.46805e-05 -7.21252e-18)
(0.000121866 -4.3699e-05 1.26926e-19)
(0.000120526 -4.73967e-05 3.44818e-19)
(0.000118958 -5.14676e-05 -1.18584e-18)
(0.000117249 -5.54705e-05 -1.91244e-18)
(0.000115448 -5.9335e-05 -3.65504e-18)
(0.000113562 -6.3057e-05 -4.92997e-18)
(0.000111619 -6.66329e-05 -4.96218e-18)
(0.000109643 -7.00474e-05 -5.44163e-18)
(0.000107661 -7.33134e-05 -5.61195e-18)
(0.000105686 -7.64392e-05 -4.68187e-18)
(0.000103778 -7.94404e-05 -4.89978e-18)
(0.000101982 -8.23326e-05 -4.10636e-18)
(0.000100298 -8.51449e-05 -3.69563e-18)
(9.87947e-05 -8.7936e-05 -3.60593e-18)
(9.74804e-05 -9.07727e-05 -5.80589e-18)
(0.000103934 -8.61085e-05 -7.74276e-18)
(0.000122216 -4.36596e-05 6.57763e-19)
(0.000120891 -4.74376e-05 -2.89502e-19)
(0.000119313 -5.15069e-05 -1.42752e-18)
(0.00011759 -5.55068e-05 -2.21132e-18)
(0.00011579 -5.9378e-05 -4.01625e-18)
(0.000113937 -6.31232e-05 -5.20322e-18)
(0.000112038 -6.67381e-05 -5.26959e-18)
(0.000110136 -7.02232e-05 -5.45415e-18)
(0.0001083 -7.36042e-05 -5.49055e-18)
(0.000106498 -7.68745e-05 -5.0902e-18)
(0.000104762 -8.005e-05 -4.90589e-18)
(0.000103132 -8.31353e-05 -3.75714e-18)
(0.00010163 -8.61661e-05 -3.68777e-18)
(0.000100242 -8.91657e-05 -3.60537e-18)
(9.89992e-05 -9.21997e-05 -5.83723e-18)
(0.000105374 -8.77304e-05 -8.01296e-18)
(0.000122598 -4.36108e-05 1.43216e-18)
(0.000121238 -4.74722e-05 -8.68131e-19)
(0.000119693 -5.15482e-05 -1.80194e-18)
(0.000118023 -5.55779e-05 -2.81989e-18)
(0.000116309 -5.95099e-05 -4.42698e-18)
(0.000114598 -6.33441e-05 -5.50668e-18)
(0.000112865 -6.70693e-05 -5.38768e-18)
(0.000111134 -7.06972e-05 -5.22865e-18)
(0.000109451 -7.4229e-05 -5.42799e-18)
(0.000107815 -7.7659e-05 -5.35428e-18)
(0.000106223 -8.09969e-05 -4.90341e-18)
(0.000104695 -8.42458e-05 -3.38694e-18)
(0.000103274 -8.74462e-05 -3.46241e-18)
(0.000101945 -9.06153e-05 -3.40557e-18)
(0.000100715 -9.37945e-05 -5.38336e-18)
(0.000107001 -8.94969e-05 -7.97482e-18)
(0.000123178 -4.36015e-05 1.9831e-18)
(0.000121824 -4.7584e-05 -1.26311e-18)
(0.00012041 -5.173e-05 -2.41741e-18)
(0.000118902 -5.58475e-05 -3.4408e-18)
(0.000117349 -5.98929e-05 -4.5201e-18)
(0.000115787 -6.38472e-05 -5.72591e-18)
(0.000114214 -6.77017e-05 -5.6115e-18)
(0.000112634 -7.14657e-05 -4.93971e-18)
(0.000111049 -7.51242e-05 -5.48559e-18)
(0.000109498 -7.86858e-05 -5.4546e-18)
(0.000107979 -8.21588e-05 -4.6659e-18)
(0.00010651 -8.55521e-05 -2.93741e-18)
(0.000105124 -8.88969e-05 -3.22538e-18)
(0.000103813 -9.22084e-05 -3.30955e-18)
(0.00010257 -9.55079e-05 -4.57394e-18)
(0.00010877 -9.13728e-05 -7.57203e-18)
(0.000125782 -4.00198e-05 5.46315e-18)
(0.00012419 -4.37117e-05 2.28766e-18)
(0.000122931 -4.78878e-05 -1.58784e-18)
(0.000121657 -5.21404e-05 -2.92768e-18)
(0.00012031 -5.63628e-05 -3.72902e-18)
(0.000118896 -6.05169e-05 -4.39348e-18)
(0.000117432 -6.45771e-05 -5.9013e-18)
(0.000115947 -6.85431e-05 -5.78321e-18)
(0.000114442 -7.24181e-05 -4.73079e-18)
(0.000112919 -7.61909e-05 -5.53507e-18)
(0.000111413 -7.9871e-05 -5.6842e-18)
(0.000109933 -8.34672e-05 -4.59899e-18)
(0.000108494 -8.69923e-05 -2.66713e-18)
(0.000107116 -9.04676e-05 -3.00639e-18)
(0.0001058 -9.39047e-05 -3.40432e-18)
(0.000104532 -9.73142e-05 -3.91985e-18)
(0.000110647 -9.33349e-05 -6.5622e-18)
(0.000126794 -4.00612e-05 6.30055e-18)
(0.000125632 -4.40351e-05 2.00776e-18)
(0.00012451 -4.83718e-05 -2.02768e-18)
(0.000123335 -5.2726e-05 -3.15818e-18)
(0.000122083 -5.70433e-05 -3.45394e-18)
(0.000120752 -6.12919e-05 -4.2036e-18)
(0.000119354 -6.54504e-05 -5.85122e-18)
(0.000117919 -6.95181e-05 -5.9277e-18)
(0.000116456 -7.34949e-05 -4.65014e-18)
(0.00011497 -7.73758e-05 -5.31288e-18)
(0.000113489 -8.11688e-05 -6.04037e-18)
(0.000112026 -8.48832e-05 -4.64489e-18)
(0.000110598 -8.8532e-05 -2.51877e-18)
(0.000109216 -9.21296e-05 -3.09883e-18)
(0.000107882 -9.5683e-05 -3.60381e-18)
(0.000106583 -9.91986e-05 -3.54664e-18)
(0.000112613 -9.53688e-05 -5.35093e-18)
(0.000129606 -3.66234e-05 6.09792e-18)
(0.000128231 -4.02929e-05 6.27767e-18)
(0.000127371 -4.45353e-05 1.38607e-18)
(0.000126375 -4.89794e-05 -2.36989e-18)
(0.00012528 -5.34265e-05 -3.21776e-18)
(0.00012409 -5.78325e-05 -2.96755e-18)
(0.000122812 -6.21699e-05 -4.13137e-18)
(0.000121459 -6.64224e-05 -5.70045e-18)
(0.000120056 -7.05875e-05 -5.90052e-18)
(0.000118616 -7.46636e-05 -4.73765e-18)
(0.000117152 -7.86503e-05 -4.76862e-18)
(0.000115684 -8.25541e-05 -6.15671e-18)
(0.000114229 -8.63843e-05 -4.95168e-18)
(0.000112799 -9.01521e-05 -2.62739e-18)
(0.000111403 -9.38668e-05 -3.29849e-18)
(0.000110044 -9.7532e-05 -3.56879e-18)
(0.000108712 -0.000101153 -3.18759e-18)
(0.000114658 -9.74667e-05 -4.08429e-18)
(0.000131039 -3.67908e-05 6.95322e-18)
(0.000130094 -4.07367e-05 5.49702e-18)
(0.000129349 -4.51488e-05 7.98765e-19)
(0.000128442 -4.96776e-05 -2.40816e-18)
(0.000127407 -5.42097e-05 -3.06035e-18)
(0.000126262 -5.87006e-05 -2.58621e-18)
(0.00012502 -6.31248e-05 -3.95169e-18)
(0.000123698 -6.74694e-05 -5.49805e-18)
(0.000122316 -7.17304e-05 -5.72763e-18)
(0.000120892 -7.59061e-05 -4.80858e-18)
(0.00011944 -7.99983e-05 -4.16891e-18)
(0.000117978 -8.40127e-05 -5.95777e-18)
(0.000116521 -8.79575e-05 -5.17692e-18)
(0.000115082 -9.18416e-05 -2.92538e-18)
(0.000113668 -9.56709e-05 -3.57746e-18)
(0.000112281 -9.94462e-05 -3.53297e-18)
(0.000110913 -0.000103171 -3.01962e-18)
(0.000116776 -9.96251e-05 -3.21067e-18)
(0.000132992 -3.71109e-05 6.67685e-18)
(0.000132248 -4.13195e-05 4.72162e-18)
(0.000131529 -4.58378e-05 3.30073e-19)
(0.000130671 -5.0445e-05 -2.18724e-18)
(0.000129677 -5.50578e-05 -2.7597e-18)
(0.000128564 -5.96316e-05 -2.23203e-18)
(0.000127347 -6.41424e-05 -3.63861e-18)
(0.000126046 -6.85788e-05 -5.49818e-18)
(0.000124679 -7.29361e-05 -5.48262e-18)
(0.000123265 -7.72128e-05 -4.5468e-18)
(0.000121819 -8.14113e-05 -3.67556e-18)
(0.000120358 -8.55366e-05 -5.78678e-18)
(0.000118895 -8.95957e-05 -5.2058e-18)
(0.000117443 -9.3595e-05 -2.95552e-18)
(0.000116006 -9.75378e-05 -3.70892e-18)
(0.000114588 -0.000101423 -3.52503e-18)
(0.000113184 -0.000105253 -2.82448e-18)
(0.000118965 -0.000101843 -2.75215e-18)
(0.000135355 -3.75578e-05 5.52526e-18)
(0.000134615 -4.19665e-05 3.88225e-18)
(0.000133883 -4.65807e-05 -1.79885e-19)
(0.000133042 -5.12677e-05 -1.74863e-18)
(0.000132071 -5.59603e-05 -2.32742e-18)
(0.000130978 -6.0617e-05 -2.0886e-18)
(0.000129779 -6.52152e-05 -3.29828e-18)
(0.000128492 -6.97442e-05 -5.3673e-18)
(0.000127136 -7.4199e-05 -5.23602e-18)
(0.000125727 -7.85783e-05 -4.21883e-18)
(0.000124282 -8.28844e-05 -3.34985e-18)
(0.000122818 -8.71216e-05 -5.7608e-18)
(0.000121346 -9.12951e-05 -5.39641e-18)
(0.000119876 -9.54093e-05 -2.74956e-18)
(0.000118415 -9.94655e-05 -3.43629e-18)
(0.000116966 -0.000103461 -3.69934e-18)
(0.000115524 -0.000107396 -2.7056e-18)
(0.000121226 -0.000104121 -2.54793e-18)
(0.000137918 -3.80804e-05 4.49078e-18)
(0.000137146 -4.26517e-05 3.32116e-18)
(0.000136387 -4.73662e-05 -3.897e-19)
(0.000135545 -5.21373e-05 -1.3765e-18)
(0.000134582 -5.69113e-05 -2.00966e-18)
(0.0001335 -6.1652e-05 -1.91202e-18)
(0.000132311 -6.6339e-05 -3.02064e-18)
(0.000131032 -7.09621e-05 -5.25653e-18)
(0.000129681 -7.55162e-05 -4.99599e-18)
(0.000128274 -8e-05 -3.88649e-18)
(0.000126828 -8.44153e-05 -3.29341e-18)
(0.000125357 -8.87653e-05 -5.85754e-18)
(0.000123872 -9.3054e-05 -5.56288e-18)
(0.000122383 -9.72836e-05 -2.75464e-18)
(0.000120895 -0.000101454 -3.13524e-18)
(0.000119413 -0.00010556 -3.88358e-18)
(0.000117933 -0.000109602 -2.64002e-18)
(0.000123558 -0.000106461 -2.60346e-18)
(0.000140607 -3.86558e-05 3.27918e-18)
(0.000139817 -4.33701e-05 2.88139e-18)
(0.000139032 -4.81896e-05 -1.68597e-19)
(0.000138175 -5.30491e-05 -8.71224e-19)
(0.000137208 -5.79071e-05 -1.8889e-18)
(0.000136126 -6.27339e-05 -1.8228e-18)
(0.00013494 -6.75117e-05 -2.69642e-18)
(0.000133664 -7.22308e-05 -4.80956e-18)
(0.000132314 -7.68863e-05 -4.5657e-18)
(0.000130905 -8.14766e-05 -3.66966e-18)
(0.000129454 -8.60027e-05 -3.28447e-18)
(0.000127973 -9.0467e-05 -5.8945e-18)
(0.000126473 -9.48717e-05 -5.65999e-18)
(0.000124963 -9.92177e-05 -2.93248e-18)
(0.000123447 -0.000103503 -2.92017e-18)
(0.000121931 -0.000107722 -3.89704e-18)
(0.000120412 -0.000111872 -2.5437e-18)
(0.000125963 -0.000108864 -2.60737e-18)
(0.00014342 -3.92786e-05 2.04916e-18)
(0.000142626 -4.41244e-05 2.48208e-18)
(0.000141814 -4.90499e-05 1.45396e-19)
(0.000140931 -5.40006e-05 -2.41141e-19)
(0.000139949 -5.89455e-05 -1.67798e-18)
(0.000138858 -6.3861e-05 -1.82103e-18)
(0.000137667 -6.8732e-05 -2.45099e-18)
(0.000136388 -7.35495e-05 -4.33355e-18)
(0.000135035 -7.83086e-05 -4.1487e-18)
(0.000133622 -8.30074e-05 -3.4073e-18)
(0.000132162 -8.76463e-05 -3.0877e-18)
(0.000130669 -9.22263e-05 -5.69209e-18)
(0.000129151 -9.67485e-05 -5.66065e-18)
(0.000127617 -0.000101212 -3.24933e-18)
(0.000126072 -0.000105614 -2.92256e-18)
(0.000124522 -0.000109946 -3.66162e-18)
(0.000122963 -0.000114206 -2.18891e-18)
(0.000128442 -0.000111332 -2.32921e-18)
(0.000146392 -3.99515e-05 9.47393e-19)
(0.000145587 -4.49176e-05 2.04234e-18)
(0.000144736 -4.99464e-05 3.31371e-19)
(0.000143816 -5.49898e-05 1.65387e-19)
(0.000142806 -6.00245e-05 -1.52271e-18)
(0.000141697 -6.50318e-05 -1.71016e-18)
(0.000140494 -6.99989e-05 -2.00286e-18)
(0.000139206 -7.49175e-05 -3.75163e-18)
(0.000137845 -7.97828e-05 -3.89825e-18)
(0.000136424 -8.45925e-05 -3.30165e-18)
(0.000134953 -8.9346e-05 -2.62414e-18)
(0.000133445 -9.40435e-05 -5.23695e-18)
(0.000131907 -9.86847e-05 -5.71936e-18)
(0.000130348 -0.000103268 -3.63375e-18)
(0.000128772 -0.000107787 -3.03139e-18)
(0.000127186 -0.000112236 -3.53457e-18)
(0.000125586 -0.000116608 -1.64839e-18)
(0.000130995 -0.000113867 -1.66963e-18)
(0.000149565 -4.06774e-05 1.60592e-20)
(0.000148716 -4.57489e-05 1.4712e-18)
(0.000147804 -5.08762e-05 4.66767e-19)
(0.00014683 -5.60139e-05 3.77203e-19)
(0.000145779 -6.11419e-05 -1.44789e-18)
(0.000144643 -6.62448e-05 -1.68167e-18)
(0.000143421 -7.13115e-05 -1.78805e-18)
(0.00014212 -7.63344e-05 -3.35755e-18)
(0.000140747 -8.13087e-05 -3.66201e-18)
(0.000139313 -8.62316e-05 -3.23126e-18)
(0.000137828 -9.1102e-05 -1.90755e-18)
(0.000136302 -9.5919e-05 -4.55e-18)
(0.000134742 -0.000100681 -5.95552e-18)
(0.000133156 -0.000105385 -4.07111e-18)
(0.000131548 -0.000110025 -3.08773e-18)
(0.000129925 -0.000114591 -3.67554e-18)
(0.000128284 -0.000119077 -1.16525e-18)
(0.000133623 -0.000116469 -5.64365e-19)
(0.000152971 -4.14499e-05 -6.7288e-19)
(0.000152018 -4.66096e-05 9.28066e-19)
(0.000151013 -5.18336e-05 5.84979e-19)
(0.000149968 -5.70692e-05 2.00477e-19)
(0.000148867 -6.22954e-05 -1.53303e-18)
(0.000147696 -6.74985e-05 -1.42781e-18)
(0.000146449 -7.26689e-05 -1.70028e-18)
(0.000145129 -7.77996e-05 -3.1986e-18)
(0.00014374 -8.2886e-05 -3.33377e-18)
(0.00014229 -8.79249e-05 -3.07207e-18)
(0.000140788 -9.29145e-05 -1.15223e-18)
(0.000139242 -9.7853e-05 -3.80391e-18)
(0.000137658 -0.000102738 -6.34588e-18)
(0.000136043 -0.000107564 -4.4836e-18)
(0.000134402 -0.000112326 -2.89588e-18)
(0.00013274 -0.000117012 -3.72113e-18)
(0.000131057 -0.000121614 -1.09108e-18)
(0.000136327 -0.000119141 4.95192e-19)
(0.000156603 -4.22458e-05 -1.13453e-18)
(0.000155477 -4.74839e-05 7.21203e-19)
(0.000154351 -5.28102e-05 8.06933e-19)
(0.000153224 -5.81511e-05 -4.38102e-20)
(0.000152065 -6.34823e-05 -1.8216e-18)
(0.000150853 -6.87913e-05 -1.40813e-18)
(0.000149577 -7.40701e-05 -1.7222e-18)
(0.000148233 -7.93126e-05 -3.05562e-18)
(0.000146825 -8.45144e-05 -3.00074e-18)
(0.000145357 -8.96722e-05 -2.79809e-18)
(0.000143835 -9.47835e-05 -4.30586e-19)
(0.000142266 -9.98457e-05 -3.04189e-18)
(0.000140655 -0.000104855 -6.64282e-18)
(0.00013901 -0.000109807 -4.77781e-18)
(0.000137333 -0.000114693 -2.58988e-18)
(0.000135632 -0.0001195 -3.37162e-18)
(0.000133905 -0.000124221 -1.20917e-18)
(0.000139108 -0.000121884 1.00299e-18)
(0.000160391 -4.30228e-05 -1.27626e-18)
(0.000159049 -4.83531e-05 7.49897e-19)
(0.000157795 -5.37981e-05 1.09674e-18)
(0.000156583 -5.92556e-05 -4.59315e-20)
(0.000155365 -6.47001e-05 -2.01857e-18)
(0.00015411 -7.01217e-05 -1.77661e-18)
(0.000152802 -7.55141e-05 -1.89296e-18)
(0.000151433 -8.08727e-05 -2.82153e-18)
(0.000150002 -8.61935e-05 -2.8348e-18)
(0.000148513 -9.14732e-05 -2.58802e-18)
(0.000146968 -9.67089e-05 -5.31904e-20)
(0.000145374 -0.000101897 -2.71285e-18)
(0.000143735 -0.000107034 -6.78564e-18)
(0.000142057 -0.000112113 -4.97098e-18)
(0.000140344 -0.000117125 -2.42205e-18)
(0.000138602 -0.000122057 -2.84808e-18)
(0.000136831 -0.000126899 -1.40592e-18)
(0.000141967 -0.000124698 9.0775e-19)
(0.000164212 -4.3733e-05 -1.17154e-18)
(0.000162678 -4.92048e-05 7.95249e-19)
(0.000161316 -5.47926e-05 1.31542e-18)
(0.000160031 -6.03803e-05 2.21656e-19)
(0.000158759 -6.59474e-05 -1.95416e-18)
(0.000157463 -7.14884e-05 -2.61017e-18)
(0.000156122 -7.70001e-05 -2.03101e-18)
(0.000154726 -8.24793e-05 -2.13542e-18)
(0.000153271 -8.79229e-05 -2.70815e-18)
(0.000151758 -9.33278e-05 -2.59533e-18)
(0.000150188 -9.86907e-05 7.49733e-20)
(0.000148567 -0.000104008 -2.82916e-18)
(0.000146898 -0.000109274 -6.7513e-18)
(0.000145186 -0.000114483 -4.9647e-18)
(0.000143435 -0.000119624 -2.36933e-18)
(0.000141651 -0.000124683 -2.40377e-18)
(0.000139835 -0.00012965 -1.76824e-18)
(0.000144906 -0.000127588 5.41281e-19)
(0.000167923 -4.43594e-05 -8.25964e-19)
(0.000166305 -5.00411e-05 8.34956e-19)
(0.000164888 -5.57951e-05 1.38831e-18)
(0.000163554 -6.15254e-05 4.2786e-19)
(0.00016224 -6.72237e-05 -1.49954e-18)
(0.000160907 -7.2891e-05 -3.46374e-18)
(0.000159535 -7.85275e-05 -2.25991e-18)
(0.000158112 -8.4132e-05 -1.29442e-18)
(0.000156631 -8.97024e-05 -2.50136e-18)
(0.000155092 -9.52358e-05 -2.70697e-18)
(0.000153496 -0.000100729 1.9468e-19)
(0.000151846 -0.000106178 -2.88634e-18)
(0.000150145 -0.000111577 -6.44732e-18)
(0.000148398 -0.000116918 -4.68611e-18)
(0.000146608 -0.000122191 -2.30076e-18)
(0.000144782 -0.000127381 -1.97606e-18)
(0.000142922 -0.000132477 -2.20819e-18)
(0.00014793 -0.000130557 3.07023e-19)
(0.000171434 -4.49698e-05 -7.83118e-19)
(0.000169898 -5.08807e-05 7.11377e-19)
(0.000168491 -5.68123e-05 1.46956e-18)
(0.00016714 -6.26933e-05 4.69058e-19)
(0.000165799 -6.853e-05 -9.49621e-19)
(0.000164439 -7.43298e-05 -4.16981e-18)
(0.000163039 -8.00964e-05 -2.52121e-18)
(0.000161588 -8.58309e-05 -4.22078e-19)
(0.000160082 -9.15321e-05 -2.12846e-18)
(0.000158516 -9.71978e-05 -2.81188e-18)
(0.000156892 -0.000102825 7.23212e-20)
(0.000155212 -0.000108409 -2.86428e-18)
(0.000153479 -0.000113943 -6.09087e-18)
(0.000151696 -0.000119421 -4.1417e-18)
(0.000149868 -0.000124829 -1.95342e-18)
(0.000148 -0.000130155 -1.43859e-18)
(0.000146096 -0.000135384 -2.84482e-18)
(0.000151044 -0.000133611 -7.87281e-20)
(0.00017603 -4.02395e-05 -1.91283e-19)
(0.000174779 -4.56129e-05 -9.79172e-19)
(0.00017346 -5.17502e-05 4.26141e-19)
(0.000172124 -5.78543e-05 1.52383e-18)
(0.000170787 -6.38888e-05 2.38873e-19)
(0.000169436 -6.98686e-05 -4.54934e-19)
(0.000168056 -7.5806e-05 -4.4328e-18)
(0.000166632 -8.17079e-05 -2.74847e-18)
(0.000165157 -8.75769e-05 1.07418e-19)
(0.000163625 -9.34131e-05 -1.97694e-18)
(0.000162033 -9.92149e-05 -2.84619e-18)
(0.000160381 -0.000104979 -7.81372e-20)
(0.00015867 -0.000110702 -2.8014e-18)
(0.000156904 -0.000116376 -5.83778e-18)
(0.000155085 -0.000121994 -3.70283e-18)
(0.000153219 -0.000127544 -1.44644e-18)
(0.000151311 -0.00013301 -7.17859e-19)
(0.000149364 -0.00013838 -3.28185e-18)
(0.000154256 -0.000136757 -6.73911e-19)
(0.000178715 -4.06427e-05 2.93819e-19)
(0.000178081 -4.63628e-05 -1.41918e-18)
(0.000177022 -5.26707e-05 8.84098e-20)
(0.000175795 -5.89315e-05 1.53289e-18)
(0.000174497 -6.51175e-05 -2.19495e-19)
(0.000173151 -7.12431e-05 -3.09589e-19)
(0.00017176 -7.73223e-05 -4.34501e-18)
(0.000170318 -8.33638e-05 -2.68481e-18)
(0.000168821 -8.93718e-05 3.65766e-19)
(0.000167265 -9.53475e-05 -2.003e-18)
(0.000165646 -0.00010129 -2.91618e-18)
(0.000163966 -0.000107196 -3.17594e-19)
(0.000162225 -0.000113062 -2.93538e-18)
(0.000160427 -0.000118881 -5.86829e-18)
(0.000158573 -0.000124645 -3.45034e-18)
(0.00015667 -0.000130341 -7.46612e-19)
(0.000154724 -0.000135955 -1.73883e-20)
(0.000152736 -0.000141471 -3.27313e-18)
(0.000157574 -0.000140003 -9.55122e-19)
(0.000183115 -3.61939e-05 2.62764e-18)
(0.000181736 -4.1188e-05 5.09437e-19)
(0.000181467 -4.72267e-05 -1.66033e-18)
(0.000180634 -5.36511e-05 -9.14369e-20)
(0.000179525 -6.00526e-05 1.40524e-18)
(0.00017828 -6.63857e-05 -8.1275e-19)
(0.000176951 -7.26579e-05 -4.50118e-19)
(0.000175557 -7.88821e-05 -4.3096e-18)
(0.000174102 -8.50675e-05 -2.49549e-18)
(0.000172586 -9.12192e-05 4.70153e-19)
(0.000171007 -9.7339e-05 -2.00933e-18)
(0.000169363 -0.000103427 -2.69618e-18)
(0.000167656 -0.00010948 -2.93412e-19)
(0.000165886 -0.000115494 -3.16281e-18)
(0.000164057 -0.000121464 -6.19532e-18)
(0.00016217 -0.000127379 -3.40355e-18)
(0.000160231 -0.000133229 8.24796e-21)
(0.000158247 -0.000138996 4.80967e-19)
(0.000156219 -0.000144666 -2.92141e-18)
(0.000161006 -0.000143356 -5.74039e-19)
(0.000185904 -3.65463e-05 2.83108e-18)
(0.000185192 -4.1921e-05 6.04562e-19)
(0.000185018 -4.81701e-05 -1.60404e-18)
(0.000184343 -5.46934e-05 -1.59476e-19)
(0.000183341 -6.12236e-05 1.22839e-18)
(0.000182153 -6.76991e-05 -1.3525e-18)
(0.000180848 -7.41181e-05 -6.43621e-19)
(0.000179457 -8.04901e-05 -4.40848e-18)
(0.000177993 -8.68234e-05 -2.34196e-18)
(0.000176461 -9.31235e-05 4.41481e-19)
(0.000174861 -9.93926e-05 -2.07784e-18)
(0.000173194 -0.000105631 -2.34888e-18)
(0.000171461 -0.000111837 -1.06263e-19)
(0.000169664 -0.000118006 -3.37772e-18)
(0.000167804 -0.000124132 -6.50588e-18)
(0.000165885 -0.000130205 -3.42103e-18)
(0.000163912 -0.000136215 5.84678e-19)
(0.00016189 -0.000142143 8.80128e-19)
(0.000159821 -0.000147971 -2.63346e-18)
(0.000164556 -0.00014682 -1.58541e-19)
(0.000189341 -3.70298e-05 2.52375e-18)
(0.00018897 -4.27829e-05 6.94374e-19)
(0.000188775 -4.91745e-05 -1.31654e-18)
(0.000188188 -5.57959e-05 -1.56995e-19)
(0.00018727 -6.24483e-05 1.00904e-18)
(0.000186134 -6.9063e-05 -1.89921e-18)
(0.000184854 -7.56291e-05 -8.28097e-19)
(0.00018347 -8.21515e-05 -4.57486e-18)
(0.000182001 -8.86369e-05 -2.26343e-18)
(0.000180456 -9.50903e-05 2.41711e-19)
(0.000178838 -0.000101514 -2.23573e-18)
(0.00017715 -0.000107909 -1.92207e-18)
(0.000175393 -0.000114274 2.08522e-19)
(0.000173569 -0.000120604 -3.62734e-18)
(0.00017168 -0.000126893 -6.70813e-18)
(0.000169729 -0.000133131 -3.38005e-18)
(0.00016772 -0.000139306 6.09977e-19)
(0.000165659 -0.000145398 1.10553e-18)
(0.000163544 -0.000151387 -2.46226e-18)
(0.00016822 -0.000150392 -2.01102e-19)
(0.000193372 -3.76402e-05 2.15296e-18)
(0.000193017 -4.37056e-05 1.0572e-18)
(0.000192753 -5.02288e-05 -7.6022e-19)
(0.000192197 -5.69551e-05 -1.09043e-19)
(0.000191333 -6.37288e-05 7.46913e-19)
(0.00019024 -7.04815e-05 -2.47691e-18)
(0.000188985 -7.71957e-05 -9.46381e-19)
(0.00018761 -8.38715e-05 -4.63143e-18)
(0.000186138 -9.05134e-05 -2.15213e-18)
(0.000184582 -9.71252e-05 -4.59064e-20)
(0.000182948 -0.00010371 -2.51923e-18)
(0.00018124 -0.000110267 -1.67128e-18)
(0.00017946 -0.000116797 5.37327e-19)
(0.00017761 -0.000123294 -3.64479e-18)
(0.000175691 -0.000129751 -6.63165e-18)
(0.000173706 -0.000136159 -2.95505e-18)
(0.000171658 -0.000142503 4.74849e-19)
(0.00016955 -0.000148761 1.1399e-18)
(0.00016738 -0.000154908 -2.44894e-18)
(0.000171987 -0.000154061 -5.61599e-19)
(0.000197738 -3.83329e-05 2.04298e-18)
(0.000197297 -4.46621e-05 1.34303e-18)
(0.000196946 -5.13252e-05 -1.00328e-19)
(0.000196383 -5.81668e-05 1.37533e-20)
(0.000195548 -6.5065e-05 4.1686e-19)
(0.000194486 -7.19571e-05 -3.14455e-18)
(0.000193252 -7.88215e-05 -1.07412e-18)
(0.000191885 -8.56542e-05 -4.36812e-18)
(0.000190412 -9.24568e-05 -1.90629e-18)
(0.000188847 -9.92323e-05 -3.70325e-19)
(0.000187199 -0.000105983 -2.70432e-18)
(0.000185472 -0.000112709 -1.54771e-18)
(0.000183668 -0.000119409 7.71545e-19)
(0.000181789 -0.000126078 -3.49709e-18)
(0.000179837 -0.000132707 -6.42296e-18)
(0.000177813 -0.000139287 -2.35111e-18)
(0.000175718 -0.000145799 5.59107e-19)
(0.000173553 -0.000152219 1.14536e-18)
(0.000171314 -0.000158516 -2.50614e-18)
(0.000175831 -0.000157803 -1.05167e-18)
(0.00020231 -3.9081e-05 2.18746e-18)
(0.000201778 -4.56432e-05 1.45681e-18)
(0.000201339 -5.24577e-05 4.45237e-19)
(0.000200746 -5.94261e-05 2.16666e-19)
(0.00019992 -6.64549e-05 7.61379e-20)
(0.000198877 -7.34897e-05 -3.89188e-18)
(0.000197659 -8.05075e-05 -1.41537e-18)
(0.0001963 -8.75006e-05 -4.03462e-18)
(0.000194826 -9.44682e-05 -1.62461e-18)
(0.000193252 -0.000101412 -8.66558e-19)
(0.000191588 -0.000108334 -2.77952e-18)
(0.00018984 -0.000115233 -1.60039e-18)
(0.00018801 -0.000122107 9.30413e-19)
(0.000186098 -0.00012895 -2.95788e-18)
(0.000184106 -0.000135753 -5.89323e-18)
(0.000182033 -0.000142503 -1.81345e-18)
(0.00017988 -0.00014918 7.5946e-19)
(0.000177643 -0.000155752 1.32121e-18)
(0.000175315 -0.000162184 -2.58366e-18)
(0.000179719 -0.000161587 -1.46599e-18)
(0.000207022 -3.98684e-05 2.52306e-18)
(0.000206421 -4.66449e-05 1.44378e-18)
(0.000205904 -5.36208e-05 8.27569e-19)
(0.000205272 -6.0727e-05 3.1606e-19)
(0.000204439 -6.78937e-05 -4.06459e-19)
(0.000203406 -7.5076e-05 -4.48629e-18)
(0.000202199 -8.22507e-05 -1.58506e-18)
(0.000200846 -8.94075e-05 -3.63187e-18)
(0.000199368 -9.65436e-05 -1.59215e-18)
(0.000197784 -0.000103659 -1.63493e-18)
(0.000196102 -0.000110755 -2.65508e-18)
(0.000194329 -0.00011783 -1.76381e-18)
(0.000192465 -0.000124879 6.57348e-19)
(0.000190513 -0.000131896 -2.36179e-18)
(0.00018847 -0.000138869 -4.84981e-18)
(0.000186336 -0.000145784 -1.16464e-18)
(0.000184108 -0.000152615 8.53971e-19)
(0.000181781 -0.000159326 1.69915e-18)
(0.000179344 -0.000165874 -2.50293e-18)
(0.000183611 -0.000165375 -1.54452e-18)
(0.000211832 -4.06844e-05 2.92102e-18)
(0.000211188 -4.76639e-05 1.42747e-18)
(0.000210605 -5.48078e-05 1.14453e-18)
(0.00020993 -6.20613e-05 1.91347e-19)
(0.000209083 -6.93734e-05 -1.02437e-18)
(0.000208052 -7.67081e-05 -4.83501e-18)
(0.000206851 -8.40429e-05 -1.6401e-18)
(0.000205498 -9.13659e-05 -3.2157e-18)
(0.000204014 -9.86725e-05 -1.69e-18)
(0.000202415 -0.000105962 -2.36995e-18)
(0.00020071 -0.000113233 -2.41884e-18)
(0.000198904 -0.000120482 -1.97234e-18)
(0.000196999 -0.000127704 3.57865e-19)
(0.000194993 -0.00013489 -1.93386e-18)
(0.000192887 -0.000142027 -3.75764e-18)
(0.000190677 -0.000149097 -4.95686e-19)
(0.000188357 -0.000156069 7.92971e-19)
(0.000185922 -0.000162903 2.02946e-18)
(0.000183361 -0.000169549 -2.41298e-18)
(0.000187475 -0.000169137 -1.35892e-18)
(0.000216704 -4.15202e-05 3.14191e-18)
(0.000216032 -4.86952e-05 1.29292e-18)
(0.000215397 -5.6011e-05 1.544e-18)
(0.000214681 -6.34192e-05 -7.9179e-20)
(0.000213815 -7.08831e-05 -1.71719e-18)
(0.000212779 -7.83741e-05 -4.88249e-18)
(0.000211577 -8.58708e-05 -1.61171e-18)
(0.00021022 -9.33605e-05 -2.88574e-18)
(0.000208723 -0.000100838 -1.99168e-18)
(0.000207103 -0.0001083 -2.96485e-18)
(0.000205367 -0.000115744 -1.99073e-18)
(0.000203519 -0.000123163 -2.29899e-18)
(0.00020156 -0.000130552 8.55676e-20)
(0.000199488 -0.000137899 -1.46699e-18)
(0.000197304 -0.000145191 -2.62711e-18)
(0.000195003 -0.000152403 1.99701e-19)
(0.00019258 -0.000159504 6.20186e-19)
(0.000190027 -0.000166447 2.19394e-18)
(0.000187336 -0.000173182 -2.63784e-18)
(0.000191298 -0.000172862 -1.42351e-18)
(0.0002216 -4.23682e-05 3.26282e-18)
(0.00022091 -4.97329e-05 1.03501e-18)
(0.000220231 -5.72219e-05 1.95793e-18)
(0.000219478 -6.47897e-05 -5.56718e-19)
(0.000218589 -7.24096e-05 -2.49822e-18)
(0.000217542 -8.00589e-05 -4.76416e-18)
(0.000216331 -8.77172e-05 -1.67445e-18)
(0.000214961 -9.5372e-05 -2.65587e-18)
(0.000213444 -0.000103017 -2.29525e-18)
(0.000211795 -0.000110649 -3.43809e-18)
(0.000210019 -0.00011826 -1.64852e-18)
(0.000208117 -0.000125843 -2.74703e-18)
(0.000206092 -0.00013339 -1.95144e-19)
(0.000203944 -0.000140889 -1.00722e-18)
(0.000201671 -0.000148324 -1.50807e-18)
(0.000199272 -0.00015567 9.33365e-19)
(0.00019674 -0.000162891 5.24351e-19)
(0.000194073 -0.000169942 2.52348e-18)
(0.000191268 -0.000176776 -2.90586e-18)
(0.000195113 -0.00017658 -1.90957e-18)
(0.000226495 -4.32225e-05 3.13734e-18)
(0.000225789 -5.07719e-05 6.72331e-19)
(0.000225072 -5.84337e-05 2.46034e-18)
(0.000224282 -6.61634e-05 -9.74244e-19)
(0.000223367 -7.39411e-05 -3.3076e-18)
(0.000222299 -8.17479e-05 -4.66142e-18)
(0.000221067 -8.95648e-05 -2.01761e-18)
(0.000219674 -9.73809e-05 -2.61245e-18)
(0.000218129 -0.00010519 -2.56198e-18)
(0.000216443 -0.000112985 -3.84575e-18)
(0.000214616 -0.000120755 -1.40135e-18)
(0.000212651 -0.000128493 -3.18599e-18)
(0.000210552 -0.00013619 -5.59612e-19)
(0.000208321 -0.000143835 -6.89021e-19)
(0.000205959 -0.000151409 -3.33206e-19)
(0.000203464 -0.000158886 1.65265e-18)
(0.000200837 -0.000166233 4.58875e-19)
(0.00019808 -0.000173409 3.12253e-18)
(0.000195207 -0.000180381 -2.86585e-18)
(0.000199008 -0.000180379 -2.35968e-18)
(0.000231391 -4.40822e-05 2.89684e-18)