/*--------------------------------*- C++ -*----------------------------------*\
  =========                 |
  \\      /  F ield         | OpenFOAM: The Open Source CFD Toolbox
   \\    /   O peration     | Website:  https://openfoam.org
    \\  /    A nd           | Version:  7
     \\/     M anipulation  |
\*---------------------------------------------------------------------------*/
FoamFile
{
    version     2.0;
    format      ascii;
    class       volScalarField;
    location    "120000";
    object      p;
}
// * * * * * * * * * * * * * * * * * * * * * * * * * * * * * * * * * * * * * //

dimensions      [0 2 -2 0 0 0 0];

internalField   nonuniform List<scalar> 
4838
(
-1.1902e-18
-1.20333e-18
-1.20841e-18
-1.22973e-18
-1.21492e-18
-1.23352e-18
-1.20588e-18
-1.19092e-18
-1.17724e-18
-1.22112e-18
-1.19622e-18
-1.19735e-18
-1.20234e-18
-1.18771e-18
-1.15353e-18
-1.16933e-18
-1.22474e-18
-1.22592e-18
-1.20615e-18
-1.22608e-18
-1.22225e-18
-1.17221e-18
-1.18631e-18
-1.19475e-18
-1.19821e-18
-1.22239e-18
-1.19677e-18
-1.19334e-18
-1.18478e-18
-1.16777e-18
-1.21092e-18
-1.19371e-18
-1.17319e-18
-1.22691e-18
-1.2049e-18
-1.2061e-18
-1.17267e-18
-1.21177e-18
-1.20389e-18
-1.20951e-18
-1.17631e-18
-1.20869e-18
-1.1648e-18
-1.19103e-18
-1.22091e-18
-1.1956e-18
-1.18164e-18
-1.18746e-18
-1.1831e-18
-1.18261e-18
-1.19924e-18
-1.21488e-18
-1.18136e-18
-1.20339e-18
-1.20358e-18
-1.22986e-18
-1.20889e-18
-1.20373e-18
-1.203e-18
-1.20602e-18
-1.19654e-18
-1.19815e-18
-1.20452e-18
-1.19917e-18
-1.1911e-18
-1.19143e-18
-1.21799e-18
-1.17265e-18
-1.1578e-18
-1.16659e-18
-1.19125e-18
-1.19362e-18
-1.20261e-18
-1.21032e-18
-1.17387e-18
-1.2046e-18
-1.16222e-18
-1.21125e-18
-1.20003e-18
-1.19098e-18
-1.19996e-18
-1.2153e-18
-1.18831e-18
-1.16328e-18
-1.15692e-18
-1.18667e-18
-1.19033e-18
-1.19263e-18
-1.19416e-18
-1.19837e-18
-1.22295e-18
-1.22214e-18
-1.19761e-18
-1.19524e-18
-1.19341e-18
-1.18036e-18
-1.16254e-18
-1.1781e-18
-1.16015e-18
-1.18798e-18
-1.17539e-18
-1.17386e-18
-1.18882e-18
-1.19309e-18
-1.18135e-18
-1.20018e-18
-1.20034e-18
-1.21327e-18
-1.23376e-18
-1.22594e-18
-1.19731e-18
-1.18754e-18
-1.22027e-18
-1.2032e-18
-1.19384e-18
-1.17315e-18
-1.19485e-18
-1.1862e-18
-1.16341e-18
-1.18699e-18
-1.19392e-18
-1.19945e-18
-1.21541e-18
-1.17614e-18
-1.16165e-18
-1.17259e-18
-1.21336e-18
-1.22644e-18
-1.20511e-18
-1.21581e-18
-1.20315e-18
-1.19698e-18
-1.19338e-18
-1.18678e-18
-1.18545e-18
-1.19642e-18
-1.18839e-18
-1.16955e-18
-1.19243e-18
-1.18971e-18
-1.18517e-18
-1.16828e-18
-1.19692e-18
-1.21114e-18
-1.19823e-18
-1.18963e-18
-1.18791e-18
-1.19263e-18
-1.20082e-18
-1.215e-18
-1.19605e-18
-1.19072e-18
-1.17496e-18
-1.17897e-18
-1.21534e-18
-1.18373e-18
-1.19664e-18
-1.20237e-18
-1.19777e-18
-1.18008e-18
-1.18118e-18
-1.2208e-18
-1.21213e-18
-1.2225e-18
-1.20366e-18
-1.19181e-18
-1.20155e-18
-1.19691e-18
-1.17209e-18
-1.19839e-18
-1.20719e-18
-1.20321e-18
-1.20546e-18
-1.22472e-18
-1.2248e-18
-1.19604e-18
-1.17794e-18
-1.19258e-18
-1.19599e-18
-1.20289e-18
-1.21388e-18
-1.19716e-18
-1.21565e-18
-1.1958e-18
-1.19101e-18
-1.1943e-18
-1.18883e-18
-1.16313e-18
-1.16459e-18
-1.16276e-18
-1.16225e-18
-1.16948e-18
-1.19027e-18
-1.17318e-18
-1.18526e-18
-1.19254e-18
-1.18912e-18
-1.19051e-18
-1.21641e-18
-1.19718e-18
-1.19554e-18
-1.1839e-18
-1.21744e-18
-1.20486e-18
-1.20903e-18
-1.20536e-18
-1.20116e-18
-1.19521e-18
-1.16499e-18
-1.18856e-18
-1.20139e-18
-1.2095e-18
-1.20002e-18
-1.17788e-18
-1.19832e-18
-1.18413e-18
-1.22007e-18
-1.20821e-18
-1.20082e-18
-1.20717e-18
-1.24413e-18
-1.22718e-18
-1.2036e-18
-1.22643e-18
-1.23055e-18
-1.2033e-18
-1.18593e-18
-1.17595e-18
-1.19644e-18
-1.19614e-18
-1.17148e-18
-1.17078e-18
-1.19573e-18
-1.19136e-18
-1.19745e-18
-1.19346e-18
-1.17091e-18
-1.16871e-18
-1.18904e-18
-1.19192e-18
-1.20117e-18
-1.2233e-18
-1.20069e-18
-1.18656e-18
-1.1788e-18
-1.18787e-18
-1.16547e-18
-1.14992e-18
-1.17257e-18
-1.19197e-18
-1.19358e-18
-1.19385e-18
-1.20266e-18
-1.20316e-18
-1.22339e-18
-1.21464e-18
-1.20135e-18
-1.20504e-18
-1.20148e-18
-1.18656e-18
-1.2047e-18
-1.20848e-18
-1.19337e-18
-1.15589e-18
-1.19467e-18
-1.2003e-18
-1.20393e-18
-1.20909e-18
-1.22429e-18
-1.2051e-18
-1.2124e-18
-1.20475e-18
-1.17485e-18
-1.17741e-18
-1.20158e-18
-1.19781e-18
-1.17811e-18
-1.19583e-18
-1.2169e-18
-1.19949e-18
-1.19293e-18
-1.19186e-18
-1.17427e-18
-1.17243e-18
-1.19473e-18
-1.19999e-18
-1.21554e-18
-1.20476e-18
-1.19931e-18
-1.18502e-18
-1.22057e-18
-1.21062e-18
-1.19854e-18
-1.20511e-18
-1.22347e-18
-1.19977e-18
-1.19636e-18
-1.21341e-18
-1.19801e-18
-1.19486e-18
-1.17483e-18
-1.195e-18
-1.19416e-18
-1.18191e-18
-1.20466e-18
-1.21899e-18
-1.18455e-18
-1.20132e-18
-1.22278e-18
-1.20577e-18
-1.20867e-18
-1.2088e-18
-1.17857e-18
-1.15889e-18
-1.20469e-18
-1.215e-18
-1.20229e-18
-1.20252e-18
-1.20301e-18
-1.20373e-18
-1.22292e-18
-1.22068e-18
-1.1814e-18
-1.18173e-18
-1.19968e-18
-1.19936e-18
-1.19867e-18
-1.19868e-18
-1.18554e-18
-1.19825e-18
-1.20364e-18
-1.20554e-18
-1.19884e-18
-1.19844e-18
-1.20038e-18
-1.20672e-18
-1.22256e-18
-1.22845e-18
-1.20454e-18
-1.1967e-18
-1.187e-18
-1.19623e-18
-1.19588e-18
-1.19799e-18
-1.20186e-18
-1.19896e-18
-1.20372e-18
-1.20696e-18
-1.19589e-18
-1.17621e-18
-1.19623e-18
-1.20408e-18
-1.20866e-18
-1.21663e-18
-1.19695e-18
-1.19101e-18
-1.19837e-18
-1.18345e-18
-1.18489e-18
-1.18825e-18
-1.21314e-18
-1.22458e-18
-1.1906e-18
-1.19915e-18
-1.2287e-18
-1.24084e-18
-1.1919e-18
-1.19807e-18
-1.18325e-18
-1.17623e-18
-1.18069e-18
-1.18763e-18
-1.20114e-18
-1.22469e-18
-1.2063e-18
-1.18425e-18
-1.20103e-18
-1.20291e-18
-1.19626e-18
-1.20681e-18
-1.21355e-18
-1.22305e-18
-1.20451e-18
-1.20075e-18
-1.18877e-18
-1.21873e-18
-1.19306e-18
-1.21979e-18
-1.1883e-18
-1.20777e-18
-1.19678e-18
-1.18123e-18
-1.17931e-18
-1.17756e-18
-1.17485e-18
-1.19504e-18
-1.2233e-18
-1.2312e-18
-1.21816e-18
-1.18308e-18
-1.22338e-18
-1.23217e-18
-1.22243e-18
-1.20587e-18
-1.18687e-18
-1.2245e-18
-1.22918e-18
-1.22265e-18
-1.20997e-18
-1.21709e-18
-1.20353e-18
-1.20963e-18
-1.22296e-18
-1.20772e-18
-1.191e-18
-1.20715e-18
-1.19988e-18
-1.20293e-18
-1.20193e-18
-1.18456e-18
-1.18149e-18
-1.197e-18
-1.18719e-18
-1.20848e-18
-1.20553e-18
-1.18098e-18
-1.20171e-18
-1.20442e-18
-1.19062e-18
-1.22587e-18
-1.24113e-18
-1.2034e-18
-1.18495e-18
-1.20124e-18
-1.2037e-18
-1.20891e-18
-1.2008e-18
-1.20795e-18
-1.20304e-18
-1.22578e-18
-1.1905e-18
-1.20215e-18
-1.21906e-18
-1.20135e-18
-1.18028e-18
-1.18296e-18
-1.2064e-18
-1.22902e-18
-1.2028e-18
-1.20027e-18
-1.21303e-18
-1.23813e-18
-1.19207e-18
-1.19892e-18
-1.20245e-18
-1.2169e-18
-1.18782e-18
-1.20617e-18
-1.2098e-18
-1.18644e-18
-1.16559e-18
-1.18606e-18
-1.2098e-18
-1.20636e-18
-1.19886e-18
-1.20709e-18
-1.21117e-18
-1.20542e-18
-1.21129e-18
-1.22282e-18
-1.20395e-18
-1.20879e-18
-1.18886e-18
-1.20907e-18
-1.20829e-18
-1.17405e-18
-1.20294e-18
-1.21041e-18
-1.21012e-18
-1.21397e-18
-1.21247e-18
-1.19357e-18
-1.20163e-18
-1.21052e-18
-1.20871e-18
-1.20898e-18
-1.18861e-18
-1.20299e-18
-1.19568e-18
-1.21257e-18
-1.20112e-18
-1.21137e-18
-1.21163e-18
-1.20741e-18
-1.21836e-18
-1.2188e-18
-1.20819e-18
-1.20422e-18
-1.18514e-18
-1.21059e-18
-1.20146e-18
-1.20433e-18
-1.20082e-18
-1.20337e-18
-1.2036e-18
-1.18883e-18
-1.16615e-18
-1.19874e-18
-1.20442e-18
-1.19842e-18
-1.18262e-18
-1.20141e-18
-1.20802e-18
-1.20732e-18
-1.18713e-18
-1.22204e-18
-1.24655e-18
-1.20623e-18
-1.20437e-18
-1.20778e-18
-1.1906e-18
-1.22503e-18
-1.21384e-18
-1.22727e-18
-1.22868e-18
-1.20707e-18
-1.21163e-18
-1.21825e-18
-1.23042e-18
-1.22511e-18
-1.21636e-18
-1.24287e-18
-1.23238e-18
-1.23125e-18
-1.21595e-18
-1.22479e-18
-1.19935e-18
-1.21354e-18
-1.22906e-18
-1.20955e-18
-1.19233e-18
-1.21614e-18
-1.20861e-18
-1.18335e-18
-1.1894e-18
-1.19268e-18
-1.20921e-18
-1.2065e-18
-1.19908e-18
-1.19015e-18
-1.21417e-18
-1.18618e-18
-1.19518e-18
-1.20134e-18
-1.22307e-18
-1.23682e-18
-1.21903e-18
-1.20116e-18
-1.20473e-18
-1.20741e-18
-1.20291e-18
-1.21253e-18
-1.22778e-18
-1.22444e-18
-1.20113e-18
-1.19757e-18
-1.24092e-18
-1.19023e-18
-1.19366e-18
-1.2039e-18
-1.18687e-18
-1.20994e-18
-1.22905e-18
-1.21504e-18
-1.21166e-18
-1.20919e-18
-1.21842e-18
-1.23143e-18
-1.21804e-18
-1.1985e-18
-1.21019e-18
-1.23059e-18
-1.21947e-18
-1.23184e-18
-1.21858e-18
-1.21471e-18
-1.24234e-18
-1.23673e-18
-1.23424e-18
-1.21192e-18
-1.21175e-18
-1.23794e-18
-1.21359e-18
-1.1951e-18
-1.20293e-18
-1.20059e-18
-1.20778e-18
-1.20975e-18
-1.20061e-18
-1.20179e-18
-1.18635e-18
-1.2098e-18
-1.20202e-18
-1.17406e-18
-1.20614e-18
-1.20677e-18
-1.20622e-18
-1.18477e-18
-1.19854e-18
-1.20339e-18
-1.20627e-18
-1.22432e-18
-1.2325e-18
-1.2123e-18
-1.20272e-18
-1.20179e-18
-1.21469e-18
-1.19152e-18
-1.22091e-18
-1.21006e-18
-1.20363e-18
-1.19804e-18
-1.22875e-18
-1.21521e-18
-1.19437e-18
-1.19344e-18
-1.23212e-18
-1.22416e-18
-1.21952e-18
-1.2125e-18
-1.19627e-18
-1.18766e-18
-1.2067e-18
-1.21896e-18
-1.2281e-18
-1.19825e-18
-1.22331e-18
-1.22459e-18
-1.21341e-18
-1.21048e-18
-1.19585e-18
-1.19931e-18
-1.23633e-18
-1.22637e-18
-1.20724e-18
-1.19221e-18
-1.19534e-18
-1.20695e-18
-1.19382e-18
-1.21145e-18
-1.20254e-18
-1.20394e-18
-1.21758e-18
-1.21342e-18
-1.21744e-18
-1.1897e-18
-1.1987e-18
-1.18356e-18
-1.18873e-18
-1.19021e-18
-1.19846e-18
-1.20926e-18
-1.22412e-18
-1.20332e-18
-1.1919e-18
-1.20677e-18
-1.22202e-18
-1.20294e-18
-1.21351e-18
-1.21293e-18
-1.21465e-18
-1.22375e-18
-1.2206e-18
-1.2294e-18
-1.21555e-18
-1.19839e-18
-1.23471e-18
-1.23815e-18
-1.2326e-18
-1.23671e-18
-1.21759e-18
-1.21057e-18
-1.20364e-18
-1.21878e-18
-1.22143e-18
-1.21147e-18
-1.23936e-18
-1.23725e-18
-1.20176e-18
-1.21019e-18
-1.21165e-18
-1.19582e-18
-1.24757e-18
-1.20905e-18
-1.1845e-18
-1.20863e-18
-1.21099e-18
-1.21632e-18
-1.21299e-18
-1.22225e-18
-1.21422e-18
-1.20133e-18
-1.19175e-18
-1.20462e-18
-1.20201e-18
-1.1947e-18
-1.18397e-18
-1.20279e-18
-1.21514e-18
-1.20364e-18
-1.19118e-18
-1.20356e-18
-1.18756e-18
-1.19022e-18
-1.20419e-18
-1.21222e-18
-1.2009e-18
-1.19108e-18
-1.21315e-18
-1.2093e-18
-1.21146e-18
-1.21168e-18
-1.21449e-18
-1.21622e-18
-1.2292e-18
-1.21522e-18
-1.22593e-18
-1.23468e-18
-1.20811e-18
-1.23498e-18
-1.22228e-18
-1.21926e-18
-1.23109e-18
-1.22073e-18
-1.23184e-18
-1.2029e-18
-1.25129e-18
-1.24073e-18
-1.217e-18
-1.20681e-18
-1.21933e-18
-1.19891e-18
-1.22584e-18
-1.23096e-18
-1.20901e-18
-1.21291e-18
-1.22088e-18
-1.23562e-18
-1.22308e-18
-1.20055e-18
-1.20114e-18
-1.20078e-18
-1.22187e-18
-1.20486e-18
-1.18198e-18
-1.16932e-18
-1.17178e-18
-1.19992e-18
-1.19216e-18
-1.20726e-18
-1.2163e-18
-1.2014e-18
-1.17273e-18
-1.18846e-18
-1.21324e-18
-1.22538e-18
-1.22015e-18
-1.19595e-18
-1.22344e-18
-1.19841e-18
-1.20956e-18
-1.20274e-18
-1.21792e-18
-1.20131e-18
-1.20536e-18
-1.22187e-18
-1.24002e-18
-1.2207e-18
-1.21936e-18
-1.23001e-18
-1.21712e-18
-1.21117e-18
-1.22164e-18
-1.20521e-18
-1.22123e-18
-1.20735e-18
-1.22953e-18
-1.22252e-18
-1.21843e-18
-1.23587e-18
-1.23904e-18
-1.20077e-18
-1.21263e-18
-1.21662e-18
-1.21762e-18
-1.20761e-18
-1.21962e-18
-1.22945e-18
-1.18986e-18
-1.20744e-18
-1.1954e-18
-1.19561e-18
-1.19136e-18
-1.21007e-18
-1.18382e-18
-1.19325e-18
-1.2041e-18
-1.18543e-18
-1.19056e-18
-1.20706e-18
-1.19853e-18
-1.19438e-18
-1.18493e-18
-1.20176e-18
-1.22932e-18
-1.21411e-18
-1.21008e-18
-1.20737e-18
-1.21945e-18
-1.21101e-18
-1.217e-18
-1.22862e-18
-1.2428e-18
-1.21424e-18
-1.2136e-18
-1.23181e-18
-1.24808e-18
-1.21026e-18
-1.23301e-18
-1.24547e-18
-1.21273e-18
-1.23277e-18
-1.22147e-18
-1.20718e-18
-1.2291e-18
-1.23819e-18
-1.22405e-18
-1.20833e-18
-1.20353e-18
-1.22615e-18
-1.22791e-18
-1.21223e-18
-1.20009e-18
-1.20333e-18
-1.21915e-18
-1.23191e-18
-1.20958e-18
-1.20479e-18
-1.20773e-18
-1.21436e-18
-1.20288e-18
-1.19684e-18
-1.18795e-18
-1.20596e-18
-1.19873e-18
-1.20364e-18
-1.22964e-18
-1.17964e-18
-1.2148e-18
-1.21189e-18
-1.22398e-18
-1.21869e-18
-1.1886e-18
-1.19704e-18
-1.22994e-18
-1.21189e-18
-1.19421e-18
-1.21415e-18
-1.23011e-18
-1.21177e-18
-1.22546e-18
-1.2239e-18
-1.22264e-18
-1.20878e-18
-1.20811e-18
-1.20942e-18
-1.22534e-18
-1.21946e-18
-1.22238e-18
-1.21709e-18
-1.22004e-18
-1.22797e-18
-1.21893e-18
-1.22936e-18
-1.24304e-18
-1.2282e-18
-1.21423e-18
-1.22283e-18
-1.21203e-18
-1.22202e-18
-1.22334e-18
-1.21305e-18
-1.24557e-18
-1.21076e-18
-1.21905e-18
-1.21378e-18
-1.22153e-18
-1.20399e-18
-1.20614e-18
-1.21422e-18
-1.21059e-18
-1.19683e-18
-1.1918e-18
-1.18358e-18
-1.19654e-18
-1.20073e-18
-1.21146e-18
-1.19647e-18
-1.19542e-18
-1.21226e-18
-1.2275e-18
-1.21477e-18
-1.19136e-18
-1.20987e-18
-1.22631e-18
-1.21367e-18
-1.20482e-18
-1.22602e-18
-1.23329e-18
-1.19818e-18
-1.2045e-18
-1.22736e-18
-1.21669e-18
-1.22906e-18
-1.22993e-18
-1.22472e-18
-1.22158e-18
-1.22895e-18
-1.26345e-18
-1.22936e-18
-1.22496e-18
-1.22234e-18
-1.20501e-18
-1.24627e-18
-1.23523e-18
-1.2178e-18
-1.22468e-18
-1.23181e-18
-1.24105e-18
-1.21572e-18
-1.23093e-18
-1.24166e-18
-1.23869e-18
-1.22403e-18
-1.22266e-18
-1.22594e-18
-1.24609e-18
-1.21581e-18
-1.21389e-18
-1.2211e-18
-1.19633e-18
-1.19734e-18
-1.19781e-18
-1.19819e-18
-1.19113e-18
-1.19495e-18
-1.1777e-18
-1.21536e-18
-1.21545e-18
-1.22177e-18
-1.20949e-18
-1.23661e-18
-1.21746e-18
-1.21313e-18
-1.19816e-18
-1.21643e-18
-1.23166e-18
-1.20616e-18
-1.21198e-18
-1.21425e-18
-1.20826e-18
-1.23027e-18
-1.23052e-18
-1.25434e-18
-1.22878e-18
-1.23433e-18
-1.24399e-18
-1.23983e-18
-1.22814e-18
-1.21151e-18
-1.22548e-18
-1.24588e-18
-1.23368e-18
-1.22908e-18
-1.21951e-18
-1.23224e-18
-1.22535e-18
-1.23186e-18
-1.24263e-18
-1.25896e-18
-1.25486e-18
-1.23169e-18
-1.23209e-18
-1.23437e-18
-1.23143e-18
-1.22074e-18
-1.22842e-18
-1.21857e-18
-1.20325e-18
-1.2004e-18
-1.20514e-18
-1.17983e-18
-1.18154e-18
-1.18003e-18
-1.20662e-18
-1.21254e-18
-1.21163e-18
-1.20659e-18
-1.22543e-18
-1.21507e-18
-1.20875e-18
-1.20882e-18
-1.21227e-18
-1.23114e-18
-1.20088e-18
-1.21365e-18
-1.19735e-18
-1.21845e-18
-1.24797e-18
-1.23658e-18
-1.25808e-18
-1.23049e-18
-1.23764e-18
-1.24579e-18
-1.23092e-18
-1.24068e-18
-1.21528e-18
-1.23097e-18
-1.2237e-18
-1.23441e-18
-1.23829e-18
-1.224e-18
-1.2402e-18
-1.23253e-18
-1.24676e-18
-1.23874e-18
-1.24559e-18
-1.24471e-18
-1.24213e-18
-1.23945e-18
-1.22961e-18
-1.22044e-18
-1.22234e-18
-1.2312e-18
-1.23819e-18
-1.21093e-18
-1.20388e-18
-1.20269e-18
-1.19886e-18
-1.20703e-18
-1.2163e-18
-1.20761e-18
-1.19813e-18
-1.22896e-18
-1.21503e-18
-1.20141e-18
-1.21429e-18
-1.20286e-18
-1.22687e-18
-1.21222e-18
-1.21879e-18
-1.24025e-18
-1.22538e-18
-1.23674e-18
-1.252e-18
-1.2363e-18
-1.22624e-18
-1.24751e-18
-1.20439e-18
-1.22834e-18
-1.24111e-18
-1.22907e-18
-1.23691e-18
-1.23178e-18
-1.23141e-18
-1.24775e-18
-1.24271e-18
-1.24866e-18
-1.22728e-18
-1.24326e-18
-1.23809e-18
-1.22699e-18
-1.23398e-18
-1.23596e-18
-1.24463e-18
-1.22643e-18
-1.21799e-18
-1.22671e-18
-1.23375e-18
-1.2146e-18
-1.21554e-18
-1.21798e-18
-1.20053e-18
-1.20874e-18
-1.2013e-18
-1.20716e-18
-1.20482e-18
-1.21216e-18
-1.21464e-18
-1.20229e-18
-1.22493e-18
-1.19964e-18
-1.21806e-18
-1.21529e-18
-1.21812e-18
-1.23049e-18
-1.22301e-18
-1.23879e-18
-1.23507e-18
-1.23452e-18
-1.21064e-18
-1.21552e-18
-1.21204e-18
-1.2375e-18
-1.23625e-18
-1.23212e-18
-1.24364e-18
-1.23419e-18
-1.24049e-18
-1.24738e-18
-1.25295e-18
-1.2362e-18
-1.22351e-18
-1.24784e-18
-1.24256e-18
-1.23422e-18
-1.23275e-18
-1.23525e-18
-1.2341e-18
-1.23121e-18
-1.22062e-18
-1.22379e-18
-1.2247e-18
-1.21389e-18
-1.20953e-18
-1.22201e-18
-1.21382e-18
-1.2037e-18
-1.2085e-18
-1.20908e-18
-1.20447e-18
-1.22504e-18
-1.21599e-18
-1.22399e-18
-1.19628e-18
-1.21307e-18
-1.20907e-18
-1.22171e-18
-1.19983e-18
-1.20553e-18
-1.2123e-18
-1.23141e-18
-1.24781e-18
-1.22754e-18
-1.22958e-18
-1.24501e-18
-1.23386e-18
-1.23243e-18
-1.23006e-18
-1.24309e-18
-1.22457e-18
-1.25285e-18
-1.24697e-18
-1.24915e-18
-1.24406e-18
-1.2397e-18
-1.25034e-18
-1.22333e-18
-1.23639e-18
-1.2369e-18
-1.23817e-18
-1.2293e-18
-1.2501e-18
-1.22072e-18
-1.22784e-18
-1.22256e-18
-1.20785e-18
-1.20706e-18
-1.20129e-18
-1.20749e-18
-1.21121e-18
-1.21981e-18
-1.22368e-18
-1.22116e-18
-1.21076e-18
-1.20596e-18
-1.21517e-18
-1.2042e-18
-1.23663e-18
-1.19549e-18
-1.21532e-18
-1.22343e-18
-1.24921e-18
-1.24522e-18
-1.23008e-18
-1.23907e-18
-1.23754e-18
-1.23356e-18
-1.222e-18
-1.21676e-18
-1.25679e-18
-1.25186e-18
-1.25834e-18
-1.25382e-18
-1.25481e-18
-1.24891e-18
-1.24988e-18
-1.23564e-18
-1.23424e-18
-1.24306e-18
-1.23743e-18
-1.24681e-18
-1.22528e-18
-1.23307e-18
-1.22746e-18
-1.23201e-18
-1.22943e-18
-1.21121e-18
-1.21861e-18
-1.20755e-18
-1.21802e-18
-1.2199e-18
-1.21801e-18
-1.21527e-18
-1.21294e-18
-1.19417e-18
-1.21611e-18
-1.23965e-18
-1.24047e-18
-1.19966e-18
-1.20826e-18
-1.22886e-18
-1.26232e-18
-1.26613e-18
-1.23194e-18
-1.25145e-18
-1.23747e-18
-1.23559e-18
-1.2231e-18
-1.21689e-18
-1.23768e-18
-1.25172e-18
-1.24981e-18
-1.25592e-18
-1.26211e-18
-1.24527e-18
-1.26371e-18
-1.23376e-18
-1.23322e-18
-1.25298e-18
-1.2292e-18
-1.23433e-18
-1.22903e-18
-1.23461e-18
-1.23242e-18
-1.23248e-18
-1.25165e-18
-1.22555e-18
-1.21315e-18
-1.21237e-18
-1.21332e-18
-1.19072e-18
-1.21615e-18
-1.21574e-18
-1.21685e-18
-1.21548e-18
-1.22413e-18
-1.23044e-18
-1.2706e-18
-1.24519e-18
-1.22486e-18
-1.24053e-18
-1.24052e-18
-1.24075e-18
-1.23565e-18
-1.23525e-18
-1.25338e-18
-1.25586e-18
-1.24252e-18
-1.26172e-18
-1.25928e-18
-1.25525e-18
-1.27091e-18
-1.2363e-18
-1.24014e-18
-1.25439e-18
-1.22812e-18
-1.2259e-18
-1.23469e-18
-1.24505e-18
-1.23959e-18
-1.23674e-18
-1.22646e-18
-1.21959e-18
-1.21765e-18
-1.19881e-18
-1.20019e-18
-1.21497e-18
-1.22762e-18
-1.22931e-18
-1.24542e-18
-1.24244e-18
-1.23369e-18
-1.2341e-18
-1.2436e-18
-1.24089e-18
-1.23401e-18
-1.22883e-18
-1.22825e-18
-1.26134e-18
-1.25875e-18
-1.26955e-18
-1.25699e-18
-1.26276e-18
-1.25243e-18
-1.23879e-18
-1.23723e-18
-1.24371e-18
-1.22764e-18
-1.23451e-18
-1.2376e-18
-1.25601e-18
-1.23838e-18
-1.23075e-18
-1.21655e-18
-1.21496e-18
-1.21811e-18
-1.20873e-18
-1.23381e-18
-1.23082e-18
-1.2506e-18
-1.25998e-18
-1.23361e-18
-1.2192e-18
-1.24355e-18
-1.22947e-18
-1.22602e-18
-1.24625e-18
-1.23275e-18
-1.27372e-18
-1.27743e-18
-1.27616e-18
-1.2658e-18
-1.27354e-18
-1.25675e-18
-1.24497e-18
-1.24083e-18
-1.23599e-18
-1.23556e-18
-1.24384e-18
-1.24197e-18
-1.24024e-18
-1.23156e-18
-1.2297e-18
-1.22003e-18
-1.22031e-18
-1.23987e-18
-1.26138e-18
-1.2183e-18
-1.21358e-18
-1.24689e-18
-1.24629e-18
-1.24339e-18
-1.26582e-18
-1.26678e-18
-1.29121e-18
-1.26282e-18
-1.27235e-18
-1.25146e-18
-1.25638e-18
-1.25369e-18
-1.23458e-18
-1.25988e-18
-1.24193e-18
-1.22651e-18
-1.24571e-18
-1.22667e-18
-1.23866e-18
-1.22704e-18
-1.22808e-18
-1.21871e-18
-1.22209e-18
-1.25151e-18
-1.24879e-18
-1.27817e-18
-1.26522e-18
-1.31956e-18
-1.25757e-18
-1.30282e-18
-1.26641e-18
-1.25872e-18
-1.24258e-18
-1.23943e-18
-1.26153e-18
-1.24067e-18
-1.23981e-18
-1.2434e-18
-1.23158e-18
-1.23046e-18
-1.22625e-18
-1.22875e-18
-1.2151e-18
-1.22557e-18
-1.27325e-18
-1.31685e-18
-1.26216e-18
-1.32728e-18
-1.27097e-18
-1.26825e-18
-1.26125e-18
-1.25319e-18
-1.25691e-18
-1.23893e-18
-1.24894e-18
-1.24098e-18
-1.23415e-18
-1.23158e-18
-1.22728e-18
-1.22694e-18
-1.22155e-18
-1.22477e-18
-1.29109e-18
-1.34737e-18
-1.28944e-18
-1.26398e-18
-1.2628e-18
-1.25506e-18
-1.25633e-18
-1.24322e-18
-1.238e-18
-1.22979e-18
-1.22769e-18
-1.22759e-18
-1.23004e-18
-1.21786e-18
-1.22639e-18
-1.22079e-18
-1.34489e-18
-1.40549e-18
-1.29148e-18
-1.27426e-18
-1.26259e-18
-1.25226e-18
-1.25306e-18
-1.24581e-18
-1.24147e-18
-1.23471e-18
-1.2318e-18
-1.21206e-18
-1.22692e-18
-1.20574e-18
-1.23439e-18
-1.22155e-18
-1.12963e-18
-1.43226e-18
-1.28565e-18
-1.27801e-18
-1.27262e-18
-1.24726e-18
-1.25442e-18
-1.25072e-18
-1.24237e-18
-1.23062e-18
-1.23056e-18
-1.22649e-18
-1.23301e-18
-1.22113e-18
-1.23268e-18
-1.22101e-18
-1.27627e-18
-1.26414e-18
-1.24486e-18
-1.25539e-18
-1.25886e-18
-1.2376e-18
-1.21703e-18
-1.24214e-18
-1.2358e-18
-1.22338e-18
-1.23445e-18
-1.21473e-18
-1.22012e-18
-1.24027e-18
-1.21516e-18
-1.23791e-18
-1.22719e-18
-1.22942e-18
-1.24131e-18
-1.21886e-18
-1.22321e-18
-1.23005e-18
-1.22346e-18
-1.22265e-18
-1.23224e-18
-1.21997e-18
-1.16983e-18
-1.17994e-18
-1.18489e-18
-1.20834e-18
-1.18374e-18
-1.18406e-18
-1.17786e-18
-1.15802e-18
-1.20568e-18
-1.19116e-18
-1.17104e-18
-1.23133e-18
-1.2021e-18
-1.20719e-18
-1.16763e-18
-1.21481e-18
-1.20264e-18
-1.20998e-18
-1.18032e-18
-1.21659e-18
-1.17859e-18
-1.19208e-18
-1.22323e-18
-1.2033e-18
-1.19644e-18
-1.19541e-18
-1.19305e-18
-1.19513e-18
-1.18024e-18
-1.19212e-18
-1.15945e-18
-1.18705e-18
-1.14418e-18
-1.19852e-18
-1.18798e-18
-1.18138e-18
-1.19274e-18
-1.20985e-18
-1.18395e-18
-1.15894e-18
-1.15612e-18
-1.18295e-18
-1.18625e-18
-1.18938e-18
-1.19367e-18
-1.20034e-18
-1.22671e-18
-1.22485e-18
-1.19728e-18
-1.19827e-18
-1.19831e-18
-1.18764e-18
-1.17037e-18
-1.18766e-18
-1.17016e-18
-1.19872e-18
-1.19034e-18
-1.1552e-18
-1.14397e-18
-1.15413e-18
-1.19464e-18
-1.21123e-18
-1.19257e-18
-1.20668e-18
-1.19462e-18
-1.19004e-18
-1.18833e-18
-1.18287e-18
-1.18266e-18
-1.19035e-18
-1.18264e-18
-1.16367e-18
-1.18693e-18
-1.18654e-18
-1.18408e-18
-1.16675e-18
-1.19853e-18
-1.21539e-18
-1.20321e-18
-1.19567e-18
-1.1949e-18
-1.20023e-18
-1.20862e-18
-1.2218e-18
-1.18047e-18
-1.20256e-18
-1.20351e-18
-1.17599e-18
-1.1594e-18
-1.17619e-18
-1.18189e-18
-1.19162e-18
-1.20246e-18
-1.18884e-18
-1.21152e-18
-1.19167e-18
-1.18542e-18
-1.18751e-18
-1.18146e-18
-1.15357e-18
-1.15895e-18
-1.16155e-18
-1.1595e-18
-1.16682e-18
-1.18831e-18
-1.17453e-18
-1.18961e-18
-1.19721e-18
-1.19534e-18
-1.19639e-18
-1.22343e-18
-1.20345e-18
-1.17591e-18
-1.19952e-18
-1.20524e-18
-1.18141e-18
-1.1667e-18
-1.15811e-18
-1.17984e-18
-1.18038e-18
-1.15936e-18
-1.15956e-18
-1.18521e-18
-1.18245e-18
-1.18914e-18
-1.18563e-18
-1.16402e-18
-1.16052e-18
-1.18251e-18
-1.18634e-18
-1.19452e-18
-1.21901e-18
-1.19794e-18
-1.18548e-18
-1.17939e-18
-1.1892e-18
-1.16648e-18
-1.15252e-18
-1.17519e-18
-1.19589e-18
-1.15037e-18
-1.15114e-18
-1.17622e-18
-1.17515e-18
-1.15982e-18
-1.17664e-18
-1.19828e-18
-1.18202e-18
-1.17738e-18
-1.17776e-18
-1.16235e-18
-1.16041e-18
-1.18452e-18
-1.19082e-18
-1.20576e-18
-1.19424e-18
-1.19176e-18
-1.17713e-18
-1.21335e-18
-1.20618e-18
-1.19402e-18
-1.20077e-18
-1.22156e-18
-1.19912e-18
-1.19675e-18
-1.21503e-18
-1.20071e-18
-1.19456e-18
-1.15488e-18
-1.15305e-18
-1.17222e-18
-1.17401e-18
-1.17555e-18
-1.17646e-18
-1.16429e-18
-1.17822e-18
-1.18511e-18
-1.18765e-18
-1.1819e-18
-1.18089e-18
-1.18337e-18
-1.19245e-18
-1.21055e-18
-1.21759e-18
-1.19325e-18
-1.18565e-18
-1.17719e-18
-1.18858e-18
-1.18942e-18
-1.19411e-18
-1.19874e-18
-1.19726e-18
-1.20374e-18
-1.20841e-18
-1.20018e-18
-1.16978e-18
-1.17068e-18
-1.19006e-18
-1.17587e-18
-1.15616e-18
-1.17464e-18
-1.17769e-18
-1.17219e-18
-1.184e-18
-1.19282e-18
-1.20088e-18
-1.18437e-18
-1.18208e-18
-1.16827e-18
-1.20016e-18
-1.17474e-18
-1.20441e-18
-1.17244e-18
-1.19293e-18
-1.18367e-18
-1.17149e-18
-1.16998e-18
-1.17044e-18
-1.1701e-18
-1.19254e-18
-1.2232e-18
-1.23072e-18
-1.21836e-18
-1.17534e-18
-1.15388e-18
-1.17632e-18
-1.17407e-18
-1.15087e-18
-1.17265e-18
-1.17629e-18
-1.16371e-18
-1.1995e-18
-1.21614e-18
-1.17918e-18
-1.16231e-18
-1.1791e-18
-1.1814e-18
-1.18726e-18
-1.17893e-18
-1.18587e-18
-1.18194e-18
-1.20676e-18
-1.17242e-18
-1.18752e-18
-1.20537e-18
-1.1918e-18
-1.17477e-18
-1.17933e-18
-1.20238e-18
-1.22482e-18
-1.19852e-18
-1.19991e-18
-1.14197e-18
-1.17422e-18
-1.17524e-18
-1.14227e-18
-1.17136e-18
-1.1792e-18
-1.18094e-18
-1.18325e-18
-1.18399e-18
-1.16678e-18
-1.17733e-18
-1.18557e-18
-1.18396e-18
-1.1848e-18
-1.16293e-18
-1.17887e-18
-1.17404e-18
-1.19031e-18
-1.18136e-18
-1.19423e-18
-1.19668e-18
-1.19556e-18
-1.2083e-18
-1.21013e-18
-1.20005e-18
-1.19629e-18
-1.17685e-18
-1.21223e-18
-1.17543e-18
-1.1932e-18
-1.19454e-18
-1.17454e-18
-1.17743e-18
-1.18264e-18
-1.19684e-18
-1.19213e-18
-1.18494e-18
-1.21288e-18
-1.20372e-18
-1.2029e-18
-1.18884e-18
-1.19984e-18
-1.17249e-18
-1.18674e-18
-1.20406e-18
-1.18681e-18
-1.1709e-18
-1.19689e-18
-1.19168e-18
-1.16934e-18
-1.17452e-18
-1.18016e-18
-1.19778e-18
-1.19585e-18
-1.18962e-18
-1.18363e-18
-1.19116e-18
-1.18031e-18
-1.17517e-18
-1.17351e-18
-1.18144e-18
-1.19383e-18
-1.18124e-18
-1.16261e-18
-1.17594e-18
-1.19742e-18
-1.18725e-18
-1.19962e-18
-1.18875e-18
-1.18716e-18
-1.21252e-18
-1.20568e-18
-1.20571e-18
-1.18464e-18
-1.1881e-18
-1.21643e-18
-1.19397e-18
-1.17639e-18
-1.18606e-18
-1.18536e-18
-1.1936e-18
-1.19658e-18
-1.18825e-18
-1.19466e-18
-1.19016e-18
-1.17854e-18
-1.15859e-18
-1.15618e-18
-1.19195e-18
-1.18358e-18
-1.17949e-18
-1.17328e-18
-1.15965e-18
-1.15147e-18
-1.17184e-18
-1.18613e-18
-1.19541e-18
-1.16641e-18
-1.18992e-18
-1.19167e-18
-1.1823e-18
-1.18215e-18
-1.17114e-18
-1.1756e-18
-1.2147e-18
-1.20743e-18
-1.18853e-18
-1.17453e-18
-1.17863e-18
-1.19174e-18
-1.18063e-18
-1.20039e-18
-1.18334e-18
-1.19155e-18
-1.17736e-18
-1.16051e-18
-1.18974e-18
-1.19403e-18
-1.18923e-18
-1.19304e-18
-1.17548e-18
-1.17092e-18
-1.16583e-18
-1.1819e-18
-1.18526e-18
-1.17686e-18
-1.20138e-18
-1.20194e-18
-1.16762e-18
-1.18013e-18
-1.18258e-18
-1.16938e-18
-1.22373e-18
-1.18672e-18
-1.16329e-18
-1.18846e-18
-1.19165e-18
-1.19944e-18
-1.19929e-18
-1.21321e-18
-1.17869e-18
-1.17652e-18
-1.18637e-18
-1.18012e-18
-1.19205e-18
-1.16843e-18
-1.20933e-18
-1.19984e-18
-1.18316e-18
-1.1767e-18
-1.18929e-18
-1.16997e-18
-1.20036e-18
-1.20548e-18
-1.1856e-18
-1.19026e-18
-1.19828e-18
-1.21728e-18
-1.20831e-18
-1.18816e-18
-1.20358e-18
-1.17294e-18
-1.1873e-18
-1.19113e-18
-1.19267e-18
-1.1829e-18
-1.19628e-18
-1.21035e-18
-1.17429e-18
-1.19312e-18
-1.19262e-18
-1.20468e-18
-1.18438e-18
-1.18495e-18
-1.18764e-18
-1.19581e-18
-1.18099e-18
-1.18087e-18
-1.1974e-18
-1.10694e-18
-1.10668e-18
-1.1138e-18
-1.13163e-18
-1.11465e-18
-1.11482e-18
-1.10129e-18
-1.09833e-18
-1.11567e-18
-1.1202e-18
-1.12077e-18
-1.12145e-18
-1.13205e-18
-1.11922e-18
-1.11426e-18
-1.12353e-18
-1.12543e-18
-1.12283e-18
-1.12394e-18
-1.11422e-18
-1.11028e-18
-1.10648e-18
-1.11364e-18
-1.12931e-18
-1.13173e-18
-1.13041e-18
-1.12945e-18
-1.12865e-18
-1.13e-18
-1.13888e-18
-1.11252e-18
-1.11289e-18
-1.10335e-18
-1.11256e-18
-1.11896e-18
-1.11445e-18
-1.11318e-18
-1.11252e-18
-1.10083e-18
-1.11813e-18
-1.10671e-18
-1.11054e-18
-1.11696e-18
-1.11361e-18
-1.10568e-18
-1.11108e-18
-1.13552e-18
-1.13231e-18
-1.12713e-18
-1.12602e-18
-1.11997e-18
-1.10873e-18
-1.12142e-18
-1.1226e-18
-1.12114e-18
-1.11924e-18
-1.12023e-18
-1.11984e-18
-1.12503e-18
-1.13656e-18
-1.12186e-18
-1.11629e-18
-1.11313e-18
-1.10014e-18
-1.1114e-18
-1.12492e-18
-1.12001e-18
-1.10344e-18
-1.10547e-18
-1.16056e-18
-1.15425e-18
-1.13434e-18
-1.13037e-18
-1.13404e-18
-1.14026e-18
-1.14439e-18
-1.13155e-18
-1.11809e-18
-1.10329e-18
-1.11927e-18
-1.13421e-18
-1.12618e-18
-1.13338e-18
-1.12031e-18
-1.11477e-18
-1.11284e-18
-1.10502e-18
-1.11066e-18
-1.11544e-18
-1.11215e-18
-1.1118e-18
-1.11172e-18
-1.1327e-18
-1.13187e-18
-1.12946e-18
-1.12787e-18
-1.13403e-18
-1.15269e-18
-1.15326e-18
-1.14653e-18
-1.12543e-18
-1.11204e-18
-1.13662e-18
-1.14561e-18
-1.13007e-18
-1.1322e-18
-1.11933e-18
-1.10413e-18
-1.11966e-18
-1.13371e-18
-1.11878e-18
-1.11843e-18
-1.11755e-18
-1.11702e-18
-1.11112e-18
-1.14497e-18
-1.14838e-18
-1.1702e-18
-1.16344e-18
-1.13454e-18
-1.1484e-18
-1.15202e-18
-1.14503e-18
-1.14428e-18
-1.14815e-18
-1.15747e-18
-1.14823e-18
-1.14502e-18
-1.15307e-18
-1.14433e-18
-1.15031e-18
-1.14023e-18
-1.13779e-18
-1.14052e-18
-1.14748e-18
-1.12209e-18
-1.13636e-18
-1.14557e-18
-1.11947e-18
-1.13046e-18
-1.1403e-18
-1.11459e-18
-1.11916e-18
-1.1214e-18
-1.12063e-18
-1.12028e-18
-1.11637e-18
-1.10304e-18
-1.11304e-18
-1.11795e-18
-1.11681e-18
-1.1171e-18
-1.11314e-18
-1.10179e-18
-1.10608e-18
-1.09832e-18
-1.1105e-18
-1.1162e-18
-1.14148e-18
-1.13121e-18
-1.17071e-18
-1.16992e-18
-1.14912e-18
-1.1633e-18
-1.16934e-18
-1.15438e-18
-1.14725e-18
-1.14877e-18
-1.14962e-18
-1.14119e-18
-1.13429e-18
-1.15316e-18
-1.14488e-18
-1.14236e-18
-1.13684e-18
-1.13792e-18
-1.14395e-18
-1.11852e-18
-1.11086e-18
-1.13288e-18
-1.15202e-18
-1.13778e-18
-1.13241e-18
-1.13039e-18
-1.12551e-18
-1.13028e-18
-1.13193e-18
-1.12787e-18
-1.12675e-18
-1.12945e-18
-1.14049e-18
-1.128e-18
-1.12349e-18
-1.11921e-18
-1.1116e-18
-1.13476e-18
-1.12836e-18
-1.12168e-18
-1.12037e-18
-1.12289e-18
-1.13362e-18
-1.14786e-18
-1.13263e-18
-1.16586e-18
-1.15638e-18
-1.14737e-18
-1.13091e-18
-1.14709e-18
-1.15953e-18
-1.13694e-18
-1.15017e-18
-1.15979e-18
-1.13179e-18
-1.13758e-18
-1.13353e-18
-1.14906e-18
-1.16257e-18
-1.11652e-18
-1.12189e-18
-1.15821e-18
-1.16441e-18
-1.15687e-18
-1.1399e-18
-1.14017e-18
-1.14591e-18
-1.12151e-18
-1.13242e-18
-1.14481e-18
-1.12966e-18
-1.11432e-18
-1.11896e-18
-1.11031e-18
-1.1212e-18
-1.13037e-18
-1.14154e-18
-1.12848e-18
-1.1288e-18
-1.14272e-18
-1.14827e-18
-1.13942e-18
-1.11055e-18
-1.10598e-18
-1.11759e-18
-1.12113e-18
-1.16142e-18
-1.14841e-18
-1.14128e-18
-1.14798e-18
-1.1514e-18
-1.17682e-18
-1.17134e-18
-1.15442e-18
-1.17082e-18
-1.16782e-18
-1.14247e-18
-1.12948e-18
-1.13157e-18
-1.14185e-18
-1.14963e-18
-1.14514e-18
-1.12167e-18
-1.144e-18
-1.14953e-18
-1.15701e-18
-1.14487e-18
-1.13608e-18
-1.13787e-18
-1.15619e-18
-1.14413e-18
-1.14593e-18
-1.13356e-18
-1.13171e-18
-1.12667e-18
-1.11485e-18
-1.12611e-18
-1.12994e-18
-1.13158e-18
-1.13845e-18
-1.12373e-18
-1.13537e-18
-1.12269e-18
-1.13908e-18
-1.13178e-18
-1.12664e-18
-1.12585e-18
-1.12655e-18
-1.12722e-18
-1.12771e-18
-1.12648e-18
-1.12659e-18
-1.12646e-18
-1.12512e-18
-1.16027e-18
-1.13186e-18
-1.16919e-18
-1.1309e-18
-1.13334e-18
-1.1798e-18
-1.17417e-18
-1.13303e-18
-1.15226e-18
-1.15323e-18
-1.13254e-18
-1.14546e-18
-1.14724e-18
-1.13532e-18
-1.15483e-18
-1.16568e-18
-1.15263e-18
-1.15975e-18
-1.1437e-18
-1.1395e-18
-1.11867e-18
-1.12588e-18
-1.12621e-18
-1.16272e-18
-1.14566e-18
-1.13831e-18
-1.13614e-18
-1.13598e-18
-1.13532e-18
-1.13806e-18
-1.15311e-18
-1.15329e-18
-1.13498e-18
-1.1302e-18
-1.13268e-18
-1.14682e-18
-1.13874e-18
-1.11892e-18
-1.12497e-18
-1.12893e-18
-1.13025e-18
-1.12952e-18
-1.12659e-18
-1.1301e-18
-1.12971e-18
-1.12884e-18
-1.12624e-18
-1.12762e-18
-1.18991e-18
-1.15145e-18
-1.15834e-18
-1.15463e-18
-1.15364e-18
-1.17571e-18