/*--------------------------------*- C++ -*----------------------------------*\
  =========                 |
  \\      /  F ield         | OpenFOAM: The Open Source CFD Toolbox
   \\    /   O peration     | Website:  https://openfoam.org
    \\  /    A nd           | Version:  7
     \\/     M anipulation  |
\*---------------------------------------------------------------------------*/
FoamFile
{
    version     2.0;
    format      ascii;
    class       volScalarField;
    location    "220000";
    object      nut;
}
// * * * * * * * * * * * * * * * * * * * * * * * * * * * * * * * * * * * * * //

dimensions      [0 2 -1 0 0 0 0];

internalField   nonuniform List<scalar> 
4814
(
4.92871e-06
4.95345e-06
4.97591e-06
4.99601e-06
4.2118e-06
4.25999e-06
4.30621e-06
4.35119e-06
4.39488e-06
4.43721e-06
4.47812e-06
4.5175e-06
4.55528e-06
4.59136e-06
4.62564e-06
4.65805e-06
4.68849e-06
4.71688e-06
4.74317e-06
4.76728e-06
4.78915e-06
4.80874e-06
4.82598e-06
4.84085e-06
4.85329e-06
4.86328e-06
4.8708e-06
4.87582e-06
4.87834e-06
4.87834e-06
4.87582e-06
4.8708e-06
4.86328e-06
4.85329e-06
4.84085e-06
4.82598e-06
4.80874e-06
4.78915e-06
4.04306e-06
4.08986e-06
4.13479e-06
4.17851e-06
4.22098e-06
4.26214e-06
4.30192e-06
4.34023e-06
4.37698e-06
4.41208e-06
4.44544e-06
4.47697e-06
4.50659e-06
4.53423e-06
4.55981e-06
4.58328e-06
4.60457e-06
4.62364e-06
4.64042e-06
4.65489e-06
4.66701e-06
4.67674e-06
4.68406e-06
4.68895e-06
4.6914e-06
4.6914e-06
4.68895e-06
4.68406e-06
4.67674e-06
4.66701e-06
4.65489e-06
4.64042e-06
4.62364e-06
4.60457e-06
4.58328e-06
4.55981e-06
4.53423e-06
4.50659e-06
4.47697e-06
4.44543e-06
4.41208e-06
3.87658e-06
3.922e-06
3.96562e-06
4.00808e-06
4.04934e-06
4.08932e-06
4.12797e-06
4.1652e-06
4.20092e-06
4.23503e-06
4.26747e-06
4.29812e-06
4.32693e-06
4.3538e-06
4.37868e-06
4.4015e-06
4.42221e-06
4.44075e-06
4.45708e-06
4.47116e-06
4.48294e-06
4.49241e-06
4.49953e-06
4.50429e-06
4.50667e-06
4.50667e-06
4.50429e-06
4.49953e-06
4.49241e-06
4.48294e-06
4.47116e-06
4.45708e-06
4.44075e-06
4.42221e-06
4.4015e-06
4.37868e-06
4.3538e-06
4.32693e-06
4.29812e-06
4.26746e-06
4.23503e-06
4.20092e-06
4.1652e-06
4.12797e-06
3.71242e-06
3.75645e-06
3.79877e-06
3.83997e-06
3.88e-06
3.91881e-06
3.95633e-06
3.99247e-06
4.02715e-06
4.06029e-06
4.09179e-06
4.12156e-06
4.14954e-06
4.17565e-06
4.19983e-06
4.222e-06
4.24212e-06
4.26014e-06
4.27601e-06
4.28969e-06
4.30115e-06
4.31035e-06
4.31727e-06
4.32189e-06
4.32421e-06
4.3242e-06
4.32189e-06
4.31727e-06
4.31035e-06
4.30115e-06
4.28969e-06
4.27601e-06
4.26014e-06
4.24212e-06
4.222e-06
4.19983e-06
4.17565e-06
4.14954e-06
4.12156e-06
4.09178e-06
4.06029e-06
4.02715e-06
3.99247e-06
3.95633e-06
3.55063e-06
3.59328e-06
3.63429e-06
3.67422e-06
3.71302e-06
3.75065e-06
3.78704e-06
3.82209e-06
3.85574e-06
3.88789e-06
3.91845e-06
3.94735e-06
3.9745e-06
3.99984e-06
4.02331e-06
4.04483e-06
4.06437e-06
4.08186e-06
4.09727e-06
4.11055e-06
4.12167e-06
4.1306e-06
4.13732e-06
4.14181e-06
4.14406e-06
4.14406e-06
4.14181e-06
4.13732e-06
4.1306e-06
4.12167e-06
4.11055e-06
4.09727e-06
4.08186e-06
4.06437e-06
4.04483e-06
4.02331e-06
3.99985e-06
3.9745e-06
3.94735e-06
3.91845e-06
3.88788e-06
3.85574e-06
3.82209e-06
3.78704e-06
3.39126e-06
3.43252e-06
3.47223e-06
3.51089e-06
3.54847e-06
3.58491e-06
3.62016e-06
3.65413e-06
3.68673e-06
3.71789e-06
3.74752e-06
3.77553e-06
3.80186e-06
3.82643e-06
3.84918e-06
3.87005e-06
3.889e-06
3.90596e-06
3.92091e-06
3.93379e-06
3.94458e-06
3.95324e-06
3.95976e-06
3.96412e-06
3.9663e-06
3.9663e-06
3.96412e-06
3.95976e-06
3.95324e-06
3.94458e-06
3.93379e-06
3.92091e-06
3.90596e-06
3.889e-06
3.87005e-06
3.84918e-06
3.82643e-06
3.80186e-06
3.77553e-06
3.74752e-06
3.71789e-06
3.68673e-06
3.65413e-06
3.62016e-06
3.23438e-06
3.27425e-06
3.31265e-06
3.35003e-06
3.38639e-06
3.42165e-06
3.45576e-06
3.48863e-06
3.52019e-06
3.55036e-06
3.57905e-06
3.60618e-06
3.63167e-06
3.65547e-06
3.67751e-06
3.69773e-06
3.71608e-06
3.73251e-06
3.74699e-06
3.75947e-06
3.76993e-06
3.77833e-06
3.78464e-06
3.78886e-06
3.79098e-06
3.79098e-06
3.78886e-06
3.78464e-06
3.77832e-06
3.76993e-06
3.75947e-06
3.74699e-06
3.73251e-06
3.71608e-06
3.69773e-06
3.67751e-06
3.65547e-06
3.63167e-06
3.60618e-06
3.57905e-06
3.55036e-06
3.52019e-06
3.48863e-06
3.45576e-06
3.42165e-06
3.08004e-06
3.11853e-06
3.15561e-06
3.19173e-06
3.22685e-06
3.26093e-06
3.29389e-06
3.32567e-06
3.35619e-06
3.38536e-06
3.41311e-06
3.43935e-06
3.46401e-06
3.48703e-06
3.50835e-06
3.52792e-06
3.54567e-06
3.56158e-06
3.57559e-06
3.58767e-06
3.59779e-06
3.60592e-06
3.61203e-06
3.61612e-06
3.61816e-06
3.61816e-06
3.61612e-06
3.61203e-06
3.60592e-06
3.59779e-06
3.58767e-06
3.57559e-06
3.56158e-06
3.54567e-06
3.52792e-06
3.50835e-06
3.48703e-06
3.46401e-06
3.43935e-06
3.41311e-06
3.38536e-06
3.35619e-06
3.32567e-06
3.29389e-06
3.26093e-06
2.92831e-06
2.96541e-06
3.00118e-06
3.03603e-06
3.06992e-06
3.10281e-06
3.13463e-06
3.16532e-06
3.19479e-06
3.22296e-06
3.24976e-06
3.27511e-06
3.29894e-06
3.32119e-06
3.34179e-06
3.36069e-06
3.37785e-06
3.39323e-06
3.40677e-06
3.41845e-06
3.42823e-06
3.43609e-06
3.442e-06
3.44595e-06
3.44792e-06
3.44792e-06
3.44595e-06
3.442e-06
3.43608e-06
3.42823e-06
3.41845e-06
3.40677e-06
3.39323e-06
3.37785e-06
3.36069e-06
3.34179e-06
3.32119e-06
3.29894e-06
3.27511e-06
3.24976e-06
3.22296e-06
3.19479e-06
3.16532e-06
3.13463e-06
3.10281e-06
2.77926e-06
2.81498e-06
2.84944e-06
2.883e-06
2.91567e-06
2.94737e-06
2.97804e-06
3.00763e-06
3.03605e-06
3.06323e-06
3.08909e-06
3.11354e-06
3.13654e-06
3.158e-06
3.17788e-06
3.19612e-06
3.21269e-06
3.22753e-06
3.2406e-06
3.25188e-06
3.26132e-06
3.2689e-06
3.27461e-06
3.27843e-06
3.28034e-06
3.28034e-06
3.27843e-06
3.27461e-06
3.2689e-06
3.26132e-06
3.25188e-06
3.2406e-06
3.22753e-06
3.21269e-06
3.19612e-06
3.17788e-06
3.158e-06
3.13654e-06
3.11354e-06
3.08909e-06
3.06323e-06
3.03605e-06
3.00763e-06
2.97804e-06
2.94737e-06
2.63297e-06
2.6673e-06
2.70044e-06
2.73274e-06
2.76416e-06
2.79468e-06
2.82421e-06
2.8527e-06
2.88007e-06
2.90624e-06
2.93115e-06
2.95472e-06
2.97687e-06
2.99755e-06
3.01671e-06
3.03429e-06
3.05026e-06
3.06456e-06
3.07717e-06
3.08804e-06
3.09714e-06
3.10445e-06
3.10996e-06
3.11363e-06
3.11547e-06
3.11547e-06
3.11363e-06
3.10996e-06
3.10445e-06
3.09714e-06
3.08804e-06
3.07717e-06
3.06456e-06
3.05026e-06
3.03429e-06
3.01671e-06
2.99755e-06
2.97687e-06
2.95472e-06
2.93115e-06
2.90624e-06
2.88007e-06
2.8527e-06
2.82421e-06
2.4895e-06
2.52245e-06
2.55428e-06
2.5853e-06
2.61549e-06
2.64481e-06
2.6732e-06
2.70059e-06
2.72691e-06
2.75208e-06
2.77604e-06
2.79871e-06
2.82002e-06
2.83992e-06
2.85836e-06
2.87528e-06
2.89064e-06
2.90441e-06
2.91654e-06
2.92701e-06
2.93577e-06
2.94281e-06
2.94811e-06
2.95165e-06
2.95342e-06
2.95342e-06
2.95165e-06
2.94811e-06
2.94281e-06
2.93577e-06
2.92701e-06
2.91654e-06
2.90441e-06
2.89064e-06
2.87528e-06
2.85836e-06
2.83992e-06
2.82002e-06
2.79871e-06
2.77604e-06
2.75208e-06
2.72691e-06
2.70059e-06
2.6732e-06
2.34894e-06
2.38051e-06
2.41103e-06
2.44077e-06
2.46974e-06
2.49786e-06
2.52511e-06
2.55139e-06
2.57666e-06
2.60083e-06
2.62384e-06
2.64561e-06
2.66608e-06
2.6852e-06
2.70291e-06
2.71917e-06
2.73393e-06
2.74716e-06
2.75882e-06
2.76888e-06
2.7773e-06
2.78407e-06
2.78916e-06
2.79256e-06
2.79427e-06
2.79427e-06
2.79256e-06
2.78916e-06
2.78407e-06
2.7773e-06
2.76888e-06
2.75882e-06
2.74716e-06
2.73393e-06
2.71917e-06
2.70291e-06
2.6852e-06
2.66608e-06
2.64561e-06
2.62384e-06
2.60083e-06
2.57666e-06
2.55139e-06
2.52511e-06
2.21137e-06
2.24157e-06
2.27077e-06
2.29924e-06
2.32698e-06
2.35392e-06
2.38001e-06
2.4052e-06
2.42941e-06
2.45258e-06
2.47463e-06
2.49551e-06
2.51514e-06
2.53347e-06
2.55045e-06
2.56605e-06
2.58021e-06
2.5929e-06
2.60409e-06
2.61374e-06
2.62182e-06
2.62831e-06
2.6332e-06
2.63646e-06
2.6381e-06
2.6381e-06
2.63646e-06
2.6332e-06
2.62831e-06
2.62182e-06
2.61373e-06
2.60409e-06
2.5929e-06
2.58021e-06
2.56605e-06
2.55045e-06
2.53347e-06
2.51514e-06
2.49551e-06
2.47463e-06
2.45258e-06
2.42941e-06
2.4052e-06
2.38001e-06
2.07689e-06
2.10572e-06
2.1336e-06
2.16081e-06
2.18731e-06
2.21306e-06
2.23801e-06
2.2621e-06
2.28525e-06
2.30742e-06
2.32852e-06
2.3485e-06
2.36729e-06
2.38483e-06
2.40109e-06
2.41602e-06
2.42958e-06
2.44173e-06
2.45244e-06
2.46168e-06
2.46942e-06
2.47564e-06
2.48032e-06
2.48345e-06
2.48502e-06
2.48502e-06
2.48345e-06
2.48032e-06
2.47564e-06
2.46942e-06
2.46168e-06
2.45244e-06
2.44173e-06
2.42958e-06
2.41602e-06
2.40109e-06
2.38483e-06
2.36729e-06
2.3485e-06
2.32852e-06
2.30742e-06
2.28525e-06
2.2621e-06
2.23801e-06
1.94558e-06
1.97304e-06
1.99962e-06
2.02556e-06
2.05083e-06
2.07539e-06
2.0992e-06
2.12219e-06
2.14429e-06
2.16545e-06
2.18561e-06
2.20468e-06
2.22263e-06
2.23939e-06
2.25492e-06
2.26918e-06
2.28214e-06
2.29375e-06
2.30399e-06
2.31282e-06
2.32022e-06
2.32617e-06
2.33064e-06
2.33363e-06
2.33513e-06
2.33513e-06
2.33363e-06
2.33064e-06
2.32617e-06
2.32022e-06
2.31282e-06
2.30399e-06
2.29375e-06
2.28214e-06
2.26918e-06
2.25492e-06
2.23939e-06
2.22263e-06
2.20468e-06
2.1856e-06
2.16545e-06
2.14429e-06
2.12219e-06
2.0992e-06
1.81755e-06
1.84365e-06
1.86893e-06
1.8936e-06
1.91764e-06
1.94102e-06
1.96368e-06
1.98557e-06
2.00663e-06
2.02679e-06
2.04599e-06
2.06417e-06
2.08127e-06
2.09724e-06
2.11205e-06
2.12565e-06
2.138e-06
2.14908e-06
2.15884e-06
2.16726e-06
2.17432e-06
2.17999e-06
2.18426e-06
2.18711e-06
2.18854e-06
2.18854e-06
2.18711e-06
2.18426e-06
2.17999e-06
2.17432e-06
2.16726e-06
2.15884e-06
2.14908e-06
2.138e-06
2.12565e-06
2.11205e-06
2.09724e-06
2.08127e-06
2.06417e-06
2.04599e-06
2.02679e-06
2.00663e-06
1.98557e-06
1.96368e-06
1.6929e-06
1.71764e-06
1.74162e-06
1.76503e-06
1.78786e-06
1.81005e-06
1.83157e-06
1.85237e-06
1.87237e-06
1.89153e-06
1.90978e-06
1.92706e-06
1.94332e-06
1.95851e-06
1.97259e-06
1.98553e-06
1.99728e-06
2.00782e-06
2.01711e-06
2.02512e-06
2.03184e-06
2.03723e-06
2.0413e-06
2.04401e-06
2.04537e-06
2.04537e-06
2.04401e-06
2.0413e-06
2.03723e-06
2.03184e-06
2.02512e-06
2.01711e-06
2.00782e-06
1.99728e-06
1.98553e-06
1.97259e-06
1.95851e-06
1.94332e-06
1.92706e-06
1.90978e-06
1.89153e-06
1.87237e-06
1.85237e-06
1.83157e-06
1.57174e-06
1.59513e-06
1.61781e-06
1.63997e-06
1.66158e-06
1.6826e-06
1.70299e-06
1.72269e-06
1.74164e-06
1.7598e-06
1.77711e-06
1.79349e-06
1.80891e-06
1.82332e-06
1.83668e-06
1.84895e-06
1.8601e-06
1.8701e-06
1.87891e-06
1.88652e-06
1.89289e-06
1.89802e-06
1.90187e-06
1.90445e-06
1.90574e-06
1.90574e-06
1.90445e-06
1.90187e-06
1.89802e-06
1.89289e-06
1.88652e-06
1.87891e-06
1.8701e-06
1.8601e-06
1.84895e-06
1.83668e-06
1.82332e-06
1.80891e-06
1.79349e-06
1.77711e-06
1.7598e-06
1.74164e-06
1.72269e-06
1.70299e-06
1.45418e-06
1.47623e-06
1.49763e-06
1.51854e-06
1.53894e-06
1.55878e-06
1.57804e-06
1.59665e-06
1.61456e-06
1.63173e-06
1.64809e-06
1.66358e-06
1.67816e-06
1.69179e-06
1.70442e-06
1.71603e-06
1.72658e-06
1.73605e-06
1.74439e-06
1.75159e-06
1.75762e-06
1.76247e-06
1.76612e-06
1.76856e-06
1.76978e-06
1.76978e-06
1.76856e-06
1.76612e-06
1.76247e-06
1.75762e-06
1.75159e-06
1.74439e-06
1.73605e-06
1.72658e-06
1.71603e-06
1.70442e-06
1.69179e-06
1.67816e-06
1.66358e-06
1.64808e-06
1.63173e-06
1.61456e-06
1.59665e-06
1.57804e-06
1.34033e-06
1.36106e-06
1.38118e-06
1.40085e-06
1.42004e-06
1.43872e-06
1.45685e-06
1.47438e-06
1.49126e-06
1.50743e-06
1.52285e-06
1.53746e-06
1.55121e-06
1.56405e-06
1.57597e-06
1.58692e-06
1.59687e-06
1.6058e-06
1.61367e-06
1.62047e-06
1.62616e-06
1.63074e-06
1.63418e-06
1.63648e-06
1.63764e-06
1.63764e-06
1.63648e-06
1.63418e-06
1.63074e-06
1.62616e-06
1.62047e-06
1.61367e-06
1.6058e-06
1.59687e-06
1.58692e-06
1.57597e-06
1.56405e-06
1.55121e-06
1.53746e-06
1.52285e-06
1.50743e-06
1.49126e-06
1.47438e-06
1.45685e-06
1.43873e-06
1.23032e-06
1.24973e-06
1.26859e-06
1.28703e-06
1.30503e-06
1.32256e-06
1.33957e-06
1.35602e-06
1.37187e-06
1.38706e-06
1.40154e-06
1.41526e-06
1.42818e-06
1.44025e-06
1.45145e-06
1.46175e-06
1.47111e-06
1.4795e-06
1.4869e-06
1.49329e-06
1.49865e-06
1.50296e-06
1.5062e-06
1.50836e-06
1.50945e-06
1.50945e-06
1.50836e-06
1.5062e-06
1.50296e-06
1.49865e-06
1.49329e-06
1.4869e-06
1.4795e-06
1.47111e-06
1.46175e-06
1.45145e-06
1.44025e-06
1.42818e-06
1.41526e-06
1.40154e-06
1.38706e-06
1.37187e-06
1.35602e-06
1.33957e-06
1.32256e-06
1.12423e-06
1.14235e-06
1.15996e-06
1.1772e-06
1.19402e-06
1.2104e-06
1.2263e-06
1.24169e-06
1.25652e-06
1.27073e-06
1.28428e-06
1.29713e-06
1.30923e-06
1.32053e-06
1.33102e-06
1.34066e-06
1.34943e-06
1.3573e-06
1.36423e-06
1.37022e-06
1.37524e-06
1.37928e-06
1.38232e-06
1.38435e-06
1.38536e-06
1.38536e-06
1.38435e-06
1.38232e-06
1.37928e-06
1.37524e-06
1.37022e-06
1.36423e-06
1.3573e-06
1.34943e-06
1.34066e-06
1.33102e-06
1.32053e-06
1.30923e-06
1.29713e-06
1.28428e-06
1.27073e-06
1.25652e-06
1.24169e-06
1.2263e-06
1.2104e-06
1.02209e-06
1.03896e-06
1.05538e-06
1.07144e-06
1.0871e-06
1.10236e-06
1.11717e-06
1.13151e-06
1.14533e-06
1.15858e-06
1.17122e-06
1.1832e-06
1.19449e-06
1.20503e-06
1.21482e-06
1.22381e-06
1.23199e-06
1.23933e-06
1.24581e-06
1.2514e-06
1.25609e-06
1.25985e-06
1.26269e-06
1.26459e-06
1.26554e-06
1.26554e-06
1.26459e-06
1.26269e-06
1.25985e-06
1.25609e-06
1.2514e-06
1.24581e-06
1.23933e-06
1.23199e-06
1.22381e-06
1.21482e-06
1.20503e-06
1.19449e-06
1.1832e-06
1.17122e-06
1.15858e-06
1.14533e-06
1.13151e-06
1.11717e-06
1.10236e-06
9.23566e-07
9.39324e-07
9.54681e-07
9.69718e-07
9.84253e-07
9.98416e-07
1.01218e-06
1.0255e-06
1.03835e-06
1.05067e-06
1.06243e-06
1.07358e-06
1.08407e-06
1.09386e-06
1.10295e-06
1.11131e-06
1.11892e-06
1.12574e-06
1.13176e-06
1.13696e-06
1.14132e-06
1.14482e-06
1.14746e-06
1.14922e-06
1.15011e-06
1.15011e-06
1.14922e-06
1.14746e-06
1.14482e-06
1.14132e-06
1.13696e-06
1.13176e-06
1.12574e-06
1.11892e-06
1.11131e-06
1.10295e-06
1.09386e-06
1.08407e-06
1.07358e-06
1.06243e-06
1.05067e-06
1.03835e-06
1.0255e-06
1.01218e-06
8.25947e-07
8.41417e-07
8.56544e-07
8.71352e-07
8.84883e-07
8.98075e-07
9.10902e-07
9.23325e-07
9.35305e-07
9.46803e-07
9.57779e-07
9.68191e-07
9.77934e-07
9.87004e-07
9.95423e-07
1.00317e-06
1.01021e-06
1.01654e-06
1.02212e-06
1.02694e-06
1.03098e-06
1.03423e-06
1.03667e-06
1.03831e-06
1.03913e-06
1.03913e-06
1.03831e-06
1.03667e-06
1.03422e-06
1.03098e-06
1.02694e-06
1.02212e-06
1.01654e-06
1.01021e-06
1.00317e-06
9.95423e-07
9.87004e-07
9.77934e-07
9.68191e-07
9.57779e-07
9.46803e-07
9.35305e-07
9.23325e-07
9.10902e-07
7.29089e-07
7.43334e-07
7.57274e-07
7.70944e-07
7.84251e-07
7.9723e-07
8.09848e-07
8.22068e-07
8.3385e-07
8.45155e-07
8.55946e-07
8.66184e-07
8.75446e-07
8.83866e-07
8.91685e-07
8.98879e-07
9.05425e-07
9.11302e-07
9.1649e-07
9.20969e-07
9.24726e-07
9.27748e-07
9.30023e-07
9.31544e-07
9.32306e-07
9.32306e-07
9.31544e-07
9.30023e-07
9.27748e-07
9.24726e-07
9.20969e-07
9.1649e-07
9.11302e-07
9.05425e-07
8.98879e-07
8.91685e-07
8.83866e-07
8.75446e-07
8.66183e-07
8.55946e-07
8.45155e-07
8.3385e-07
8.22068e-07
8.09848e-07
6.36763e-07
6.49772e-07
6.62516e-07
6.75022e-07
6.8721e-07
6.99105e-07
7.10676e-07
7.21888e-07
7.32704e-07
7.43087e-07
7.53003e-07
7.62413e-07
7.71257e-07
7.79517e-07
7.87187e-07
7.94245e-07
8.00666e-07
8.06431e-07
8.11518e-07
8.15912e-07
8.19596e-07
8.22558e-07
8.24789e-07
8.2628e-07
8.27027e-07
8.27027e-07
8.2628e-07
8.24789e-07
8.22558e-07
8.19596e-07
8.15911e-07
8.11518e-07
8.06431e-07
8.00666e-07
7.94245e-07
7.87187e-07
7.79517e-07
7.71257e-07
7.62413e-07
7.53003e-07
7.43087e-07
7.32704e-07
7.21888e-07
7.10676e-07
5.49372e-07
5.61136e-07
5.72673e-07
5.84006e-07
5.95063e-07
6.05863e-07
6.16377e-07
6.2657e-07
6.3641e-07
6.45862e-07
6.54892e-07
6.63467e-07
6.71532e-07
6.79068e-07
6.86069e-07
6.92514e-07
6.9838e-07
7.03646e-07
7.08296e-07
7.12312e-07
7.1568e-07
7.18389e-07
7.20429e-07
7.21793e-07
7.22476e-07
7.22476e-07
7.21793e-07
7.20429e-07
7.18389e-07
7.1568e-07
7.12312e-07
7.08296e-07
7.03646e-07
6.9838e-07
6.92514e-07
6.86069e-07
6.79068e-07
6.71532e-07
6.63467e-07
6.54892e-07
6.45862e-07
6.3641e-07
6.2657e-07
6.16377e-07
4.6736e-07
4.77874e-07
4.88198e-07
4.9835e-07
5.08268e-07
5.17964e-07
5.27411e-07
5.36577e-07
5.45431e-07
5.53942e-07
5.62079e-07
5.6981e-07
5.77087e-07
5.83892e-07
5.90218e-07
5.96042e-07
6.01345e-07
6.06109e-07
6.10315e-07
6.13949e-07
6.16998e-07
6.1945e-07
6.21297e-07
6.22533e-07
6.23151e-07
6.23151e-07
6.22533e-07
6.21297e-07
6.1945e-07
6.16998e-07
6.13949e-07
6.10315e-07
6.06109e-07
6.01345e-07
5.96042e-07
5.90218e-07
5.83892e-07
5.77087e-07
5.6981e-07
5.62079e-07
5.53942e-07
5.45431e-07
5.36577e-07
5.27411e-07
3.91202e-07
4.00467e-07
4.09577e-07
4.18546e-07
4.27321e-07
4.35909e-07
4.44283e-07
4.52417e-07
4.6028e-07
4.67845e-07
4.75083e-07
4.81965e-07
4.88448e-07
4.94516e-07
5.00158e-07
5.05357e-07
5.10093e-07
5.14349e-07
5.18108e-07
5.21356e-07
5.24082e-07
5.26276e-07
5.27928e-07
5.29033e-07
5.29586e-07
5.29586e-07
5.29033e-07
5.27928e-07
5.26276e-07
5.24082e-07
5.21356e-07
5.18108e-07
5.14349e-07
5.10093e-07
5.05357e-07
5.00158e-07
4.94516e-07
4.88448e-07
4.81965e-07
4.75083e-07
4.67845e-07
4.6028e-07
4.52417e-07
4.44283e-07
3.21389e-07
3.29415e-07
3.37319e-07
3.45112e-07
3.52747e-07
3.60229e-07
3.67533e-07
3.74635e-07
3.81508e-07
3.88126e-07
3.94464e-07
4.00495e-07
4.06182e-07
4.1151e-07
4.16468e-07
4.21038e-07
4.25204e-07
4.28949e-07
4.32259e-07
4.3512e-07
4.37522e-07
4.39454e-07
4.40911e-07
4.41885e-07
4.42373e-07
4.42373e-07
4.41885e-07
4.40911e-07
4.39454e-07
4.37522e-07
4.3512e-07
4.32259e-07
4.28949e-07
4.25204e-07
4.21038e-07
4.16468e-07
4.1151e-07
4.06182e-07
4.00495e-07
3.94464e-07
3.88126e-07
3.81508e-07
3.74635e-07
3.67533e-07
2.58399e-07
2.65209e-07
2.71928e-07
2.78562e-07
2.85074e-07
2.91463e-07
2.97709e-07
3.0379e-07
3.09681e-07
3.15361e-07
3.20805e-07
3.25992e-07
3.30888e-07
3.35478e-07
3.39754e-07
3.43698e-07
3.47296e-07
3.50531e-07
3.53392e-07
3.55867e-07
3.57945e-07
3.59617e-07
3.60878e-07
3.61721e-07
3.62144e-07
3.62144e-07
3.61721e-07
3.60878e-07
3.59617e-07
3.57945e-07
3.55867e-07
3.53392e-07
3.50531e-07
3.47296e-07
3.43698e-07
3.39754e-07
3.35479e-07
3.30888e-07
3.25992e-07
3.20805e-07
3.15361e-07
3.09681e-07
3.0379e-07
2.97709e-07
2.91463e-07
2.02655e-07
2.08292e-07
2.13864e-07
2.19375e-07
2.24795e-07
2.3012e-07
2.35335e-07
2.40418e-07
2.45351e-07
2.50111e-07
2.54681e-07
2.59038e-07
2.63157e-07
2.67023e-07
2.70627e-07
2.73955e-07
2.76992e-07
2.79725e-07
2.82143e-07
2.84236e-07
2.85994e-07
2.8741e-07
2.88477e-07
2.89191e-07
2.89549e-07
2.89549e-07
2.89191e-07
2.88477e-07
2.8741e-07
2.85994e-07
2.84236e-07
2.82143e-07
2.79725e-07
2.76991e-07
2.73954e-07
2.70627e-07
2.67023e-07
2.63157e-07
2.59038e-07
2.54681e-07
2.50111e-07
2.45351e-07
2.40418e-07
2.35335e-07
2.30121e-07
1.54469e-07
1.58998e-07
1.63484e-07
1.67929e-07
1.72309e-07
1.76621e-07
1.8085e-07
1.84979e-07
1.88991e-07
1.92869e-07
1.96597e-07
2.00157e-07
2.03525e-07
2.06691e-07
2.09645e-07
2.12376e-07
2.1487e-07
2.17116e-07
2.19105e-07
2.20827e-07
2.22275e-07
2.23441e-07
2.2432e-07
2.24908e-07
2.25203e-07
2.25203e-07
2.24908e-07
2.2432e-07
2.2344e-07
2.22274e-07
2.20827e-07
2.19105e-07
2.17116e-07
2.1487e-07
2.12376e-07
2.09645e-07
2.06691e-07
2.03525e-07
2.00157e-07
1.96597e-07
1.92869e-07
1.88991e-07
1.84979e-07
1.8085e-07
1.76621e-07
1.13967e-07
1.1748e-07
1.20967e-07
1.24429e-07
1.27848e-07
1.31219e-07
1.34532e-07
1.37772e-07
1.40925e-07
1.43978e-07
1.46917e-07
1.49727e-07
1.52391e-07
1.54897e-07
1.57238e-07
1.59404e-07
1.61385e-07
1.6317e-07
1.64752e-07
1.66123e-07
1.67275e-07
1.68204e-07
1.68905e-07
1.69374e-07
1.69609e-07
1.69609e-07
1.69374e-07
1.68905e-07
1.68204e-07
1.67275e-07
1.66123e-07
1.64752e-07
1.6317e-07
1.61385e-07
1.59404e-07
1.57238e-07
1.54897e-07
1.52391e-07
1.49727e-07
1.46917e-07
1.43978e-07
1.40925e-07
1.37772e-07
1.34532e-07
1.31219e-07
1.27848e-07
8.10303e-08
8.36455e-08
8.62465e-08
8.88347e-08
9.13954e-08
9.39258e-08
9.64166e-08
9.88572e-08
1.01237e-07
1.03544e-07
1.05769e-07
1.07899e-07
1.09921e-07
1.11826e-07
1.13608e-07
1.15259e-07
1.16769e-07
1.18132e-07
1.19341e-07
1.20389e-07
1.2127e-07
1.21981e-07
1.22518e-07
1.22877e-07
1.23057e-07
1.23057e-07
1.22877e-07
1.22518e-07
1.21981e-07
1.2127e-07
1.20389e-07
1.19341e-07
1.18132e-07
1.16769e-07
1.15259e-07
1.13608e-07
1.11826e-07
1.09921e-07
1.07899e-07
1.05769e-07
1.03544e-07
1.01237e-07
9.88572e-08
9.64166e-08
9.39258e-08
9.13953e-08
5.52485e-08
5.71055e-08
5.8956e-08
6.0801e-08
6.26301e-08
6.4441e-08
6.62268e-08
6.79797e-08
6.96916e-08
7.13544e-08
7.29599e-08
7.44996e-08
7.59632e-08
7.73441e-08
7.86373e-08
7.98363e-08
8.09348e-08
8.1927e-08
8.28074e-08
8.35713e-08
8.42144e-08
8.47333e-08
8.5125e-08
8.53873e-08
8.55189e-08
8.55189e-08
8.53873e-08
8.5125e-08
8.47333e-08
8.42144e-08
8.35713e-08
8.28074e-08
8.1927e-08
8.09348e-08
7.98363e-08
7.86373e-08
7.73441e-08
7.59632e-08
7.44996e-08
7.29599e-08
7.13544e-08
6.96916e-08
6.79797e-08
6.62268e-08
6.4441e-08
6.26301e-08
6.0801e-08
3.59265e-08
3.71759e-08
3.84231e-08
3.9669e-08
4.09063e-08
4.21334e-08
4.33456e-08
4.45374e-08
4.57032e-08
4.68372e-08
4.79338e-08
4.89869e-08
4.99893e-08
5.09363e-08
5.18242e-08
5.26482e-08
5.3404e-08
5.40871e-08
5.46938e-08
5.52206e-08
5.56643e-08
5.60225e-08
5.6293e-08
5.64742e-08
5.65651e-08
5.65651e-08
5.64742e-08
5.6293e-08
5.60225e-08
5.56643e-08
5.52206e-08
5.46938e-08
5.40871e-08
5.3404e-08
5.26482e-08
5.18242e-08
5.09363e-08
4.99893e-08
4.89869e-08
4.79338e-08
4.68372e-08
4.57031e-08
4.45374e-08
4.33456e-08
4.21334e-08
4.09063e-08
3.9669e-08
2.21376e-08
2.29284e-08
2.3719e-08
2.45099e-08
2.52967e-08
2.60782e-08
2.68513e-08
2.76125e-08
2.83581e-08
2.90844e-08
2.97875e-08
3.04637e-08
3.11081e-08
3.17175e-08
3.22895e-08
3.28209e-08
3.33086e-08
3.37498e-08
3.4142e-08
3.44826e-08
3.47698e-08
3.50017e-08
3.51768e-08
3.52942e-08
3.53531e-08
3.53531e-08
3.52942e-08
3.51768e-08
3.50016e-08
3.47698e-08
3.44826e-08
3.4142e-08
3.37498e-08
3.33086e-08
3.28209e-08
3.22895e-08
3.17175e-08
3.11081e-08
3.04637e-08
2.97875e-08
2.90844e-08
2.83581e-08
2.76125e-08
2.68513e-08
2.60782e-08
2.52967e-08
2.45099e-08
1.28227e-08
1.32897e-08
1.3757e-08
1.42252e-08
1.46914e-08
1.51551e-08
1.56144e-08
1.60671e-08
1.6511e-08
1.69439e-08
1.73635e-08
1.77674e-08
1.81526e-08
1.85173e-08
1.88599e-08
1.91784e-08
1.94709e-08
1.97357e-08
1.99713e-08
2.0176e-08
2.03486e-08
2.0488e-08
2.05934e-08
2.0664e-08
2.06994e-08
2.06994e-08
2.0664e-08
2.05934e-08
2.0488e-08
2.03486e-08
2.01759e-08
1.99712e-08
1.97357e-08
1.94709e-08
1.91783e-08
1.88599e-08
1.85173e-08
1.81526e-08
1.77674e-08
1.73635e-08
1.69439e-08
1.6511e-08
1.60671e-08
1.56144e-08
1.51551e-08
1.46914e-08
1.42252e-08
6.90798e-09
7.16251e-09
7.41743e-09
7.673e-09
7.92777e-09
8.18135e-09
8.43271e-09
8.6807e-09
8.92408e-09
9.1616e-09
9.39199e-09
9.61392e-09
9.82576e-09
1.00264e-08
1.02151e-08
1.03905e-08
1.05518e-08
1.06979e-08
1.08278e-08
1.09408e-08
1.10361e-08
1.11131e-08
1.11713e-08
1.12103e-08
1.12299e-08
1.12299e-08
1.12103e-08
1.11713e-08
1.11131e-08
1.10361e-08
1.09408e-08
1.08278e-08
1.06979e-08
1.05518e-08
1.03905e-08
1.02151e-08
1.00264e-08
9.82576e-09
9.61392e-09
9.39199e-09
9.1616e-09
8.92407e-09
8.68069e-09
8.43271e-09
8.18135e-09
7.92777e-09
7.673e-09
3.41037e-09
3.53655e-09
3.66295e-09
3.78974e-09
3.9162e-09
4.04212e-09
4.16701e-09
4.29029e-09
4.41134e-09
4.52953e-09
4.64422e-09
4.75476e-09
4.86032e-09
4.96035e-09
5.05442e-09
5.14196e-09
5.22244e-09
5.29535e-09
5.36024e-09
5.41667e-09
5.46428e-09
5.50276e-09
5.53184e-09
5.55134e-09
5.56113e-09
5.56113e-09
5.55134e-09
5.53184e-09
5.50276e-09
5.46428e-09
5.41667e-09
5.36024e-09
5.29535e-09
5.22244e-09
5.14196e-09
5.05442e-09
4.96035e-09
4.86032e-09
4.75476e-09
4.64422e-09
4.52953e-09
4.41134e-09
4.29029e-09
4.16701e-09
4.04212e-09
3.9162e-09
3.78974e-09
3.66295e-09
1.50963e-09
1.56528e-09
1.62102e-09
1.67694e-09
1.73272e-09
1.78828e-09
1.84338e-09
1.89779e-09
1.95122e-09
2.0034e-09
2.05404e-09
2.10286e-09
2.14948e-09
2.19367e-09
2.23524e-09
2.27392e-09
2.30949e-09
2.34172e-09
2.3704e-09
2.39535e-09
2.41641e-09
2.43342e-09
2.44628e-09
2.45491e-09
2.45923e-09
2.45923e-09
2.45491e-09
2.44628e-09
2.43342e-09
2.41641e-09
2.39535e-09
2.3704e-09
2.34172e-09
2.30949e-09
2.27392e-09
2.23524e-09
2.19367e-09
2.14948e-09
2.10286e-09
2.05404e-09
2.0034e-09
1.95122e-09
1.89779e-09
1.84338e-09
1.78828e-09
1.73272e-09
1.67694e-09
1.62102e-09
5.79419e-10
6.00516e-10
6.21639e-10
6.42823e-10
6.63949e-10
6.84985e-10
7.05847e-10
7.2644e-10
7.46661e-10
7.66406e-10
7.85568e-10
8.04036e-10
8.21673e-10
8.38388e-10
8.54107e-10
8.68736e-10
8.82187e-10
8.94375e-10
9.0522e-10
9.14654e-10
9.22614e-10
9.29047e-10
9.3391e-10
9.37171e-10
9.38806e-10
9.38806e-10
9.3717e-10
9.3391e-10
9.29047e-10
9.22614e-10
9.14654e-10
9.0522e-10
8.94374e-10
8.82187e-10
8.68736e-10
8.54107e-10
8.38388e-10
8.21673e-10
8.04036e-10
7.85568e-10
7.66406e-10
7.46661e-10
7.2644e-10
7.05847e-10
6.84985e-10
6.63948e-10
6.42823e-10
6.21639e-10
1.82589e-10
1.89083e-10
1.95578e-10
2.02088e-10
2.08574e-10
2.15029e-10
2.21428e-10
2.2774e-10
2.33935e-10
2.39981e-10
2.45846e-10
2.51496e-10
2.5689e-10
2.62e-10
2.66803e-10
2.71272e-10
2.7538e-10
2.79101e-10
2.82412e-10
2.85291e-10
2.8772e-10
2.89683e-10
2.91167e-10
2.92161e-10
2.9266e-10
2.9266e-10
2.92161e-10
2.91167e-10
2.89683e-10
2.8772e-10
2.85291e-10
2.82412e-10
2.79101e-10
2.7538e-10
2.71272e-10
2.66803e-10
2.62e-10
2.5689e-10
2.51496e-10
2.45846e-10
2.39981e-10
2.33935e-10
2.2774e-10
2.21428e-10
2.1503e-10
2.08574e-10
2.02087e-10
1.95578e-10
4.29438e-11
4.44091e-11
4.5872e-11
4.73361e-11
4.87932e-11
5.02416e-11
5.16756e-11
5.30887e-11
5.44743e-11
5.58253e-11
5.71346e-11
5.83948e-11
5.95968e-11
6.07346e-11
6.18034e-11
6.27973e-11
6.37103e-11
6.45369e-11
6.5272e-11
6.59111e-11
6.645e-11
6.68854e-11
6.72144e-11
6.7435e-11
6.75456e-11
6.75456e-11
6.7435e-11
6.72144e-11
6.68854e-11
6.645e-11
6.59111e-11
6.5272e-11
6.45369e-11
6.37103e-11
6.27973e-11
6.18034e-11
6.07346e-11
5.95968e-11
5.83948e-11
5.71346e-11
5.58253e-11
5.44743e-11
5.30887e-11
5.16756e-11
5.02416e-11
4.87932e-11
4.73361e-11
4.5872e-11
6.27046e-12
6.46833e-12
6.66524e-12
6.86182e-12
7.05699e-12
7.25055e-12
7.44179e-12
7.6299e-12
7.81398e-12
7.99314e-12
8.16649e-12
8.33306e-12
8.49167e-12
8.64159e-12
8.78224e-12
8.91286e-12
9.03273e-12
9.14116e-12
9.2375e-12
9.32119e-12
9.39172e-12
9.44867e-12
9.49169e-12
9.52052e-12
9.53498e-12
9.53498e-12
9.52052e-12
9.49169e-12
9.44867e-12
9.39172e-12
9.32119e-12
9.2375e-12
9.14116e-12
9.03273e-12
8.91286e-12
8.78224e-12
8.64159e-12
8.49167e-12
8.33306e-12
8.16649e-12
7.99314e-12
7.81397e-12
7.62989e-12
7.44179e-12
7.25055e-12
7.05698e-12
6.86182e-12
6.66524e-12
3.78669e-13
3.88686e-13
3.98587e-13
4.08421e-13
4.18134e-13
4.27723e-13
4.37157e-13
4.46399e-13
4.55409e-13
4.64147e-13
4.72571e-13
4.80639e-13
4.88295e-13
4.95508e-13
5.02257e-13
5.08509e-13
5.14235e-13
5.19403e-13
5.23988e-13
5.27964e-13
5.31311e-13
5.3401e-13
5.36048e-13
5.37413e-13
5.38097e-13
5.38097e-13
5.37413e-13
5.36048e-13
5.3401e-13
5.31311e-13
5.27964e-13
5.23988e-13
5.19403e-13
5.14235e-13
5.08509e-13
5.02257e-13
4.95508e-13
4.88295e-13
4.80639e-13
4.72571e-13
4.64147e-13
4.55409e-13
4.46399e-13
4.37157e-13
4.27723e-13
4.18134e-13
4.08421e-13
3.98587e-13
3.36738e-15
3.42011e-15
3.47129e-15
3.52153e-15
3.5705e-15
3.61838e-15
3.66505e-15
3.71038e-15
3.75422e-15
3.79639e-15
3.83676e-15
3.87513e-15
3.91124e-15
3.94501e-15
3.97643e-15
4.00538e-15
4.03177e-15
4.05549e-15
4.07645e-15
4.09458e-15
4.10979e-15
4.12203e-15
4.13126e-15
4.13743e-15
4.14052e-15
4.14052e-15
4.13743e-15
4.13126e-15
4.12203e-15
4.10979e-15
4.09458e-15
4.07645e-15
4.05549e-15
4.03177e-15
4.00538e-15
3.97643e-15
3.94501e-15
3.91124e-15
3.87513e-15
3.83675e-15
3.79639e-15
3.75421e-15
3.71038e-15
3.66505e-15
3.61838e-15
3.5705e-15
3.52153e-15
3.47129e-15
4.2118e-06
4.04306e-06
3.87658e-06
3.71242e-06
3.55063e-06
3.39126e-06
3.23438e-06
3.08004e-06
2.92831e-06
2.77926e-06
2.63297e-06
2.4895e-06
2.34894e-06
2.21137e-06
2.07689e-06
1.94558e-06
1.81755e-06
1.6929e-06
1.57174e-06
1.45418e-06
1.34033e-06
1.23032e-06
1.12423e-06
1.02209e-06
9.23566e-07
8.25947e-07
7.2909e-07
6.36763e-07
5.49372e-07
4.6736e-07
3.91202e-07
3.21389e-07
2.58399e-07
2.02655e-07
1.54469e-07
1.13967e-07
8.10303e-08
5.52485e-08
3.59265e-08
2.21376e-08
1.28227e-08
6.90798e-09
3.41037e-09
1.50963e-09
5.79419e-10
1.82589e-10
4.29438e-11
6.27046e-12
3.78669e-13
3.36738e-15
4.25999e-06
4.08986e-06
3.922e-06
3.75645e-06
3.59328e-06
3.43252e-06
3.27425e-06
3.11853e-06
2.96541e-06
2.81498e-06
2.6673e-06
2.52245e-06
2.38051e-06
2.24157e-06
2.10572e-06
1.97304e-06
1.84365e-06
1.71764e-06
1.59513e-06
1.47623e-06
1.36106e-06
1.24973e-06
1.14235e-06
1.03896e-06
9.39324e-07
8.41417e-07
7.43334e-07
6.49772e-07
5.61136e-07
4.77874e-07
4.00467e-07
3.29415e-07
2.65209e-07
2.08292e-07
1.58998e-07
1.1748e-07
8.36455e-08
5.71055e-08
3.71759e-08
2.29284e-08
1.32897e-08
7.16251e-09
3.53655e-09
1.56528e-09
6.00516e-10
1.89083e-10
4.44091e-11
6.46833e-12
3.88686e-13
3.42011e-15
4.30621e-06
4.13479e-06
3.96562e-06
3.79877e-06
3.63429e-06
3.47223e-06
3.31265e-06
3.15561e-06
3.00118e-06
2.84944e-06
2.70044e-06
2.55428e-06
2.41103e-06
2.27077e-06
2.1336e-06
1.99962e-06
1.86893e-06
1.74162e-06
1.61781e-06
1.49763e-06
1.38118e-06
1.26859e-06
1.15996e-06
1.05538e-06
9.54681e-07
8.56544e-07
7.57274e-07
6.62516e-07
5.72673e-07
4.88198e-07
4.09577e-07
3.37319e-07
2.71928e-07
2.13864e-07
1.63484e-07
1.20967e-07
8.62465e-08
5.8956e-08
3.84231e-08
2.3719e-08
1.3757e-08
7.41743e-09
3.66295e-09
1.62102e-09
6.21639e-10
1.95578e-10
4.5872e-11
6.66524e-12
3.98587e-13
3.47129e-15
4.35119e-06
4.17851e-06
4.00808e-06
3.83997e-06
3.67422e-06
3.51089e-06
3.35003e-06
3.19173e-06
3.03603e-06
2.883e-06
2.73274e-06
2.5853e-06
2.44077e-06
2.29924e-06
2.16081e-06
2.02556e-06
1.8936e-06
1.76503e-06
1.63997e-06
1.51854e-06
1.40085e-06
1.28703e-06
1.1772e-06
1.07144e-06
9.69718e-07
8.71352e-07
7.70944e-07
6.75022e-07
5.84005e-07
4.9835e-07
4.18546e-07
3.45112e-07
2.78562e-07
2.19375e-07
1.67929e-07
1.24429e-07
8.88347e-08
6.0801e-08
3.9669e-08
2.45099e-08
1.42252e-08
7.673e-09
3.78974e-09
1.67694e-09
6.42823e-10
2.02088e-10
4.73361e-11
6.86182e-12
4.08421e-13
3.52153e-15
4.39488e-06
4.22098e-06
4.04934e-06
3.88e-06
3.71302e-06
3.54847e-06
3.38639e-06
3.22685e-06
3.06992e-06
2.91567e-06
2.76416e-06