/*--------------------------------*- C++ -*----------------------------------*\
  =========                 |
  \\      /  F ield         | OpenFOAM: The Open Source CFD Toolbox
   \\    /   O peration     | Website:  https://openfoam.org
    \\  /    A nd           | Version:  7
     \\/     M anipulation  |
\*---------------------------------------------------------------------------*/
FoamFile
{
    version     2.0;
    format      ascii;
    class       surfaceScalarField;
    location    "220000";
    object      phi;
}
// * * * * * * * * * * * * * * * * * * * * * * * * * * * * * * * * * * * * * //

dimensions      [0 3 -1 0 0 0 0];

internalField   nonuniform List<scalar> 
9474
(
5.70834e-24
7.21867e-24
6.54312e-24
-4.15532e-23
9.57528e-24
1.67561e-22
6.47012e-23
2.90768e-24
4.15714e-23
4.00945e-25
1.7573e-24
9.79789e-23
2.86039e-24
1.02759e-22
1.83182e-24
4.95166e-23
4.48285e-24
2.20046e-22
1.08641e-23
2.16217e-22
9.54053e-24
5.78701e-24
1.21003e-23
6.85352e-23
1.46566e-23
-4.45812e-23
1.2372e-23
1.11208e-22
4.78129e-24
3.91845e-23
9.76864e-24
1.20577e-22
5.03484e-24
-1.03901e-22
7.28088e-24
2.88505e-23
5.65325e-24
2.57707e-23
6.98596e-24
-3.92937e-23
9.06922e-24
1.01759e-22
1.45207e-23
4.98031e-23
9.86557e-24
-7.87804e-23
5.2388e-24
-8.98428e-23
3.54717e-24
-3.69765e-24
1.60692e-24
7.97163e-24
1.30816e-24
-9.65059e-23
7.02123e-26
2.55255e-23
-2.90489e-24
-1.1211e-22
-3.93329e-24
-2.29603e-23
-4.57982e-24
-3.54514e-23
-6.71234e-24
-2.54486e-23
-6.336e-24
-7.52829e-23
-8.13047e-24
-3.22575e-24
-2.51904e-24
6.37848e-23
1.98511e-24
1.46302e-22
6.3748e-25
9.65939e-23
6.06085e-23
2.77154e-24
-1.55715e-24
-2.03839e-25
2.14134e-24
1.4189e-22
2.51152e-24
6.72607e-23
2.0736e-24
8.82059e-23
4.40342e-24
1.77877e-22
1.00936e-23
1.25326e-22
9.15743e-24
8.10915e-23
1.21841e-23
1.02164e-22
1.47234e-23
-4.31496e-23
1.25011e-23
7.79249e-23
3.99888e-24
1.59364e-23
9.73441e-24
1.31515e-22
4.74402e-24
-1.59557e-22
7.38769e-24
5.84613e-24
5.48712e-24
1.89469e-23
6.95207e-24
-4.80571e-23
9.1107e-24
6.0522e-23
1.39198e-23
2.58083e-23
9.82831e-24
-6.61322e-23
5.24633e-24
-7.46724e-23
3.35186e-24
-1.5238e-24
1.46406e-24
1.00916e-23
1.27731e-24
-1.04927e-22
-6.10355e-26
1.96322e-23
-2.94941e-24
-7.61877e-23
-3.88069e-24
-2.7696e-23
-4.59882e-24
-6.82991e-23
-6.94653e-24
-2.50886e-23
-6.0146e-24
-3.83641e-23
-7.93119e-24
-6.5346e-24
-2.37456e-24
6.52701e-23
1.85313e-24
1.60295e-22
4.71504e-25
9.12489e-23
1.31329e-24
6.47312e-23
2.26564e-24
1.09205e-22
6.70525e-24
1.01555e-22
4.26319e-24
7.3666e-23
8.28568e-24
-5.01886e-24
1.0885e-24
-3.42041e-24
-6.30875e-25
4.41153e-23
1.3954e-22
2.72342e-24
-3.21654e-23
-3.45885e-25
1.92088e-24
8.27418e-23
2.21092e-24
6.79774e-23
2.05433e-24
1.41097e-22
3.85406e-24
1.76374e-22
9.90532e-24
9.0724e-23
8.56384e-24
7.63456e-23
1.19742e-23
1.37304e-22
1.51439e-23
5.03541e-25
1.24928e-23
1.21688e-22
3.51186e-24
-1.30905e-23
9.62813e-24
1.89005e-22
4.63219e-24
-1.51306e-22
7.29855e-24
-1.60932e-23
5.42882e-24
1.17325e-23
6.57023e-24
-4.82645e-23
9.01187e-24
5.12721e-23
1.36191e-23
1.99527e-23
9.74274e-24
-5.45772e-23
5.25386e-24
-4.61633e-23
3.24732e-24
-1.77453e-23
1.15485e-24
-2.66819e-24
1.31064e-24
-1.11765e-22
-4.28164e-26
2.19472e-23
-3.15767e-24
-7.58427e-23
-3.92551e-24
-3.31535e-23
-4.54673e-24
-6.56919e-23
-7.03977e-24
-2.67011e-23
-5.843e-24
-3.73544e-23
-7.66735e-24
7.10113e-24
-2.2771e-24
6.20073e-23
1.55634e-24
1.58035e-22
5.05905e-25
9.72053e-23
1.52398e-24
8.28106e-23
2.0749e-24
1.12172e-22
6.93861e-24
9.52563e-23
3.75772e-24
1.59564e-23
8.6377e-24
3.59336e-23
1.05212e-24
-2.98988e-23
-7.13454e-25
3.92999e-23
8.2933e-24
1.34004e-22
4.56089e-24
6.11707e-23
-1.93722e-24
-3.8129e-23
-4.61714e-23
3.20032e-24
-4.13055e-23
-5.76501e-26
2.06568e-24
7.40442e-23
2.64396e-24
9.79291e-23
1.55135e-24
1.20256e-22
3.19534e-24
1.74231e-22
1.02054e-23
7.69119e-23
8.39251e-24
7.50717e-23
1.16686e-23
1.03417e-22
1.55099e-23
3.5249e-23
1.19894e-23
1.3004e-22
3.49046e-24
1.34613e-25
8.90521e-24
1.87726e-22
4.84572e-24
-1.43772e-22
7.35802e-24
-1.09046e-23
5.18764e-24
1.0955e-23
6.24099e-24
-3.31551e-23
8.80003e-24
5.3002e-23
1.32324e-23
5.03031e-23
9.9531e-24
-4.54248e-23
5.08108e-24
-7.90589e-23
3.01307e-24
-1.42187e-23
9.67093e-25
-1.05531e-23
1.42548e-24
-7.80967e-23
-6.12238e-26
1.95743e-23
-3.41124e-24
-1.10352e-22
-3.88835e-24
-2.47598e-24
-4.51972e-24
-6.25088e-23
-7.08076e-24
-2.97107e-23
-5.59371e-24
-3.40216e-23
-7.55802e-24
-8.40432e-24
-2.0516e-24
4.37606e-23
1.27437e-24
1.58584e-22
6.0177e-25
1.17545e-22
1.72702e-24
8.20913e-23
1.83426e-24
6.31737e-23
6.65946e-24
8.92836e-23
4.14222e-24
-4.57556e-23
8.30876e-24
1.25415e-23
1.2251e-24
7.23991e-24
-5.64892e-25
4.30351e-23
8.90448e-24
1.22966e-22
4.4374e-24
8.36562e-26
-2.16364e-24
-2.49313e-23
-1.03367e-22
3.00119e-24
-4.73822e-23
-3.88308e-25
2.30935e-24
4.97971e-23
2.54631e-24
6.03094e-23
1.22742e-24
1.32986e-22
2.56781e-24
9.50846e-23
1.02814e-23
8.35065e-23
7.9612e-24
8.24391e-23
1.19725e-23
1.01699e-22
1.54913e-23
7.21137e-23
1.19921e-23
1.36497e-22
3.3687e-24
-2.47403e-23
8.08198e-24
1.49426e-22
4.91239e-24
-1.02544e-22
7.43368e-24
2.00507e-23
4.85725e-24
1.82455e-23
6.12094e-24
-4.26704e-23
8.93135e-24
7.18901e-23
1.28368e-23
8.07958e-24
9.7393e-24
-1.91244e-23
5.11557e-24
-9.249e-23
2.92066e-24
-3.77893e-24
9.29561e-25
-4.61085e-23
1.45333e-24
-6.32428e-23
-2.36813e-25
1.11888e-23
-3.34011e-24
-1.07307e-22
-3.99385e-24
3.59494e-23
-4.51481e-24
-4.72902e-23
-7.13551e-24
-3.46402e-23
-5.42667e-24
3.70343e-24
-7.43094e-24
-7.15764e-24
-1.76845e-24
4.80082e-23
1.02197e-24
1.58899e-22
6.37471e-25
1.32578e-22
1.43104e-24
4.52832e-23
1.58362e-24
6.36455e-23
6.45432e-24
8.76432e-23
4.46913e-24
-4.57221e-23
8.60193e-24
-1.06188e-23
1.06795e-24
-2.46703e-23
-4.74818e-25
2.62676e-23
8.76532e-24
1.13941e-22
4.83679e-24
-5.25151e-23
-2.26065e-24
-1.22136e-23
-1.27233e-22
2.97723e-24
-5.66349e-23
-5.72024e-25
2.74742e-24
8.16086e-23
2.50618e-24
5.81172e-23
7.39291e-25
9.65947e-23
2.27342e-24
1.10338e-22
1.00183e-23
6.49116e-23
7.76462e-24
6.67553e-23
1.23227e-23
1.12534e-22
1.52691e-23
-9.82674e-24
1.20774e-23
5.22637e-23
3.07728e-24
-4.9149e-23
7.77205e-24
1.2735e-22
4.77868e-24
-6.46411e-23
7.70593e-24
1.4876e-23
4.65724e-24
2.04534e-24
6.03018e-24
-5.75823e-24
8.72699e-24
7.57817e-23
1.2766e-23
1.89073e-23
9.33163e-24
-1.94161e-23
5.3179e-24
-7.32323e-23
2.60625e-24
5.4604e-24
1.06735e-24
-4.46456e-23
1.31865e-24
-9.83993e-23
-3.58235e-25
1.12834e-23
-3.09297e-24
-1.04769e-22
-4.19204e-24
2.97712e-23
-4.57455e-24
-5.14703e-23
-7.01065e-24
-4.45616e-23
-5.25513e-24
7.46081e-24
-7.34586e-24
-3.86237e-23
-1.48777e-24
1.01833e-22
9.22251e-25
1.18028e-22
3.68344e-25
1.21443e-22
1.42481e-24
4.18072e-23
1.51555e-24
2.68804e-23
5.72705e-24
8.89539e-23
4.67795e-24
-4.31631e-23
8.77416e-24
-4.91435e-24
1.09864e-24
2.47666e-24
-5.39311e-25
2.80451e-23
8.64106e-24
1.47599e-22
5.42075e-24
9.55949e-24
-2.46698e-24
-1.15894e-23
-1.17315e-22
3.21632e-24
-6.15881e-23
-5.34855e-25
2.92839e-24
6.45773e-23
2.63419e-24
5.56824e-23
4.25721e-25
9.76821e-23
1.77806e-24
1.10881e-22
9.81159e-24
6.29642e-23
7.77387e-24
2.90403e-23
1.22013e-23
9.92577e-23
1.53733e-23
3.08417e-23
1.18867e-23
8.74324e-23
2.88347e-24
-4.06125e-23
7.5886e-24
1.25723e-22
4.49605e-24
-1.40249e-22
7.71502e-24
1.15741e-23
4.6158e-24
2.57491e-24
5.80872e-24
-1.37566e-24
8.46869e-24
1.12623e-22
1.2409e-23
5.11795e-23
9.18857e-24
-1.35181e-23
5.30779e-24
-7.13139e-23
2.35737e-24
-2.52088e-23
1.06937e-24
-4.04009e-23
1.3372e-24
-6.15889e-23
-4.89623e-25
1.23511e-23
-2.87901e-24
-8.26904e-23
-4.38169e-24
2.66432e-23
-4.68689e-24
-4.54018e-23
-6.7877e-24
-1.75002e-23
-5.28202e-24
9.62607e-25
-6.80694e-24
-3.42957e-23
-1.54273e-24
1.05787e-22
8.91821e-25
7.6316e-23
3.98978e-25
1.24062e-22
1.19746e-24
2.61498e-23
1.62675e-24
6.24039e-23
5.59546e-24
5.24883e-23
4.68804e-24
-4.55088e-23
8.7602e-24
-1.00476e-23
1.19979e-24
1.68815e-23
-6.65283e-25
2.17405e-23
8.94845e-24
1.33465e-22
5.4322e-24
4.5521e-24
-2.52722e-24
-3.54795e-23
-8.70688e-24
-1.1655e-22
-4.32912e-23
3.44623e-24
-5.13039e-23
-5.60254e-25
3.07913e-24
6.52695e-23
2.30007e-24
-7.52627e-26
3.85079e-25
9.65241e-23
1.11654e-24
7.05328e-23
9.81475e-24
9.20296e-23
7.84027e-24
1.88143e-23
1.20066e-23
1.32094e-22
1.53779e-23
4.89868e-23
1.16525e-23
7.45896e-23
2.48603e-24
-7.96421e-23
7.15356e-24
1.09496e-22
4.3543e-24
-1.20587e-22
7.88079e-24
2.10995e-23
4.32057e-24
-3.01597e-23
5.86161e-24
1.5999e-23
8.38943e-24
1.03188e-22
1.20559e-23
7.67282e-23
9.17649e-24
-1.20119e-23
5.18987e-24
-8.92084e-23
2.17339e-24
-3.64731e-23
1.18491e-24
-1.71355e-23
1.24579e-24
-7.09372e-23
-5.39117e-25
-2.43802e-23
-2.7274e-24
-7.94176e-23
-4.56073e-24
-9.02459e-24
-4.66817e-24
-1.33257e-23
-6.72253e-24
-2.05286e-23
-5.18766e-24
3.14775e-24
-6.39691e-24
-3.2487e-23
-1.76297e-24
1.1927e-22
9.18455e-25
7.51186e-23
1.72535e-26
9.67735e-23
1.24854e-24
6.19088e-23
1.33243e-24
3.7146e-23
5.53022e-24
6.24301e-23
4.90914e-24
-2.95182e-23
8.99409e-24
-1.6576e-23
1.16695e-24
-3.91406e-23
-4.72984e-25
5.64204e-23
9.16623e-24
1.74583e-22
5.61735e-24
-3.21189e-23
-2.80743e-24
-1.15912e-22
-8.40654e-24
-1.03154e-22
-5.40766e-23
3.63587e-24
-3.92782e-23
-5.90774e-25
3.16586e-24
5.1552e-23
2.29112e-24
-6.15586e-23
1.28774e-25
5.41073e-23
7.53214e-25
1.13875e-22
9.71125e-24
1.51295e-22
7.75457e-24
2.51181e-23
1.22773e-23
1.31082e-22
1.51249e-23
8.28217e-23
1.13848e-23
7.5067e-23
2.72736e-24
-1.3539e-22
6.64281e-24
9.71665e-23
4.54835e-24
-1.25782e-22
7.70805e-24
-1.52096e-23
4.38548e-24
-2.91978e-23
5.73942e-24
3.45565e-23
8.13985e-24
1.08243e-22
1.17192e-23
7.31316e-23
8.93977e-24
-2.46964e-23
5.08679e-24
-9.04309e-23
2.15074e-24
-3.40366e-23
1.15861e-24
5.39104e-25
1.02531e-24
-5.54955e-23
-4.34442e-25
-1.23257e-23
-2.69002e-24
-7.29734e-23
-4.48686e-24
-3.10761e-24
-4.82472e-24
-1.27333e-23
-6.57733e-24
-2.41939e-23
-5.05702e-24
3.26911e-24
-6.07808e-24
-2.90591e-23
-1.91438e-24
7.9528e-23
9.63054e-25
7.42168e-23
1.06787e-25
1.00224e-22
1.06454e-24
3.88156e-23
1.06656e-24
6.32064e-23
5.4721e-24
9.46458e-23
5.20789e-24
2.81642e-24
8.87287e-24
-1.3427e-23
1.33219e-24
-4.20553e-23
-6.44789e-25
4.97611e-23
9.15028e-24
1.61682e-22
5.65927e-24
-2.1029e-23
-2.78563e-24
-1.11176e-22
-8.37096e-24
-9.1457e-23
-6.17739e-23
3.60951e-24
1.52703e-24
-8.66412e-25
3.1031e-24
6.84498e-23
2.56479e-24
-5.82863e-23
-2.91248e-25
5.7438e-23
6.37389e-25
1.16733e-22
9.38792e-24
1.7314e-22
7.74539e-24
3.16089e-23
1.22889e-23
1.41608e-22
1.49095e-23
8.68362e-23
1.07979e-23
4.0537e-23
2.45804e-24
-1.24266e-22
6.27898e-24
1.05194e-22
4.47996e-24
-8.60661e-23
8.14438e-24
-8.37707e-24
4.19267e-24
-6.42429e-23
5.81143e-24
4.68047e-23
7.84395e-24
4.33772e-23
1.15682e-23
1.0055e-22
8.59341e-24
-4.05529e-23
5.09234e-24
-9.02295e-23
2.14637e-24
-2.89326e-23
1.21383e-24
2.24951e-24
8.77158e-25
-8.58624e-23
-4.18548e-25
-1.42239e-23
-2.56993e-24
-6.8882e-23
-4.4949e-24
-4.30036e-24
-4.97357e-24
6.84884e-24
-6.52552e-24
-1.22377e-23
-4.89835e-24
3.51533e-23
-5.89223e-24
-2.65829e-23
-1.89805e-24
7.58741e-23
9.12065e-25
6.08996e-23
5.83459e-26
7.23319e-23
1.00547e-24
5.39093e-23
1.00387e-24
4.08807e-23
5.16592e-24
1.05937e-22
5.17148e-24
1.78405e-23
8.93768e-24
3.95042e-23
1.77492e-24
-4.43601e-23
-4.73467e-25
5.17907e-23
9.07164e-24
1.8518e-22
5.83964e-24
-1.67483e-23
-2.93896e-24
-1.41678e-22
-8.17318e-24
-9.67065e-23
3.7554e-24
2.40659e-23
-9.61583e-25
3.08504e-24
5.43121e-23
2.58071e-24
-8.56364e-23
-2.37081e-25
7.71094e-23
4.57799e-25
8.88041e-23
9.17111e-24
1.54165e-22
7.54025e-24
3.79571e-23
1.22356e-23
1.644e-22
1.49316e-23
7.81119e-23
1.03821e-23
6.94652e-23
2.40697e-24
-1.15524e-22
6.07338e-24
1.06859e-22
4.30304e-24
-8.46934e-23
7.88714e-24
-5.81752e-24
4.34964e-24
-2.75237e-23
5.55919e-24
5.27252e-23
7.83396e-24
-1.72837e-23
1.11789e-23
8.34886e-23
8.2967e-24
-5.59343e-23
5.20526e-24
-5.6117e-23
2.07899e-24
-2.3096e-23
1.15995e-24
7.13412e-24
7.64934e-25
-7.88247e-23
-4.0914e-25
-1.47101e-23
-2.42229e-24
-6.88339e-23
-4.46257e-24
-2.44772e-25
-5.11304e-24
-8.60662e-24
-6.41176e-24
-1.17156e-23
-4.7357e-24
6.86903e-23
-5.82029e-24
-2.95915e-23
-1.91938e-24
7.91569e-23
9.41896e-25
5.8354e-23
2.2464e-25
1.07614e-22
9.5897e-25
4.89758e-23
8.71913e-25
1.66381e-23
5.12953e-24
1.05729e-22
5.42296e-24
5.46994e-23
8.67428e-24
7.40446e-23
1.8057e-24
-3.33887e-23
-2.84469e-25
5.42428e-23
8.73365e-24
1.39158e-22
5.70485e-24
-1.10498e-23
-2.78366e-24
-1.63679e-22
-7.40474e-23
3.71855e-24
1.01466e-24
-1.45519e-24
2.84742e-24
3.44005e-23
2.872e-24
-6.97573e-23
-2.81174e-25
1.95021e-23
1.39012e-25
1.22043e-22
8.99192e-24
1.80508e-22
7.60451e-24
5.94363e-23
1.18208e-23
1.61925e-22
1.48102e-23
1.4405e-22
9.94725e-24
2.42027e-23
2.32418e-24
-6.33434e-23
5.96778e-24
9.69679e-23
4.13309e-24
-5.61451e-23
7.95927e-24
-1.72716e-23
4.19005e-24
7.73081e-24
5.24337e-24
5.32858e-23
7.97994e-24
-3.41463e-23
1.09596e-23
1.09706e-22
7.99585e-24
-5.61287e-23
5.1172e-24
-1.59264e-23
1.94951e-24
-3.13503e-23
1.1007e-24
9.75096e-24
6.79097e-25
-6.13709e-23
-4.46352e-25
-1.55026e-23
-2.22971e-24
-8.27683e-23
-4.50877e-24
-1.01524e-23
-5.15149e-24
-9.11192e-24
-6.14611e-24
-9.46498e-25
-4.75775e-24
6.3189e-23
-5.5983e-24
-4.3342e-23
-1.943e-24
6.04259e-23
1.05709e-24
5.83965e-23
2.15478e-25
6.89629e-23
7.03649e-25
4.62917e-23
8.41827e-25
-5.24136e-24
5.20553e-24
8.66065e-23
5.43393e-24
5.30637e-23
8.42317e-24
4.05816e-23
1.64911e-24
-5.62597e-23
-2.75933e-25
2.49994e-23
8.96753e-24
1.95403e-22
5.48478e-24
-6.41928e-23
-2.44981e-24
-1.55404e-22
-1.24103e-22
3.76287e-24
-2.00269e-23
-1.69143e-24
2.69452e-24
3.58374e-23
2.71502e-24
-7.06548e-23
-1.57182e-25
4.98362e-23
-8.1628e-26
8.08635e-23
8.86499e-24
2.20779e-22
7.53006e-24
3.39153e-23
1.17934e-23
1.85083e-22
1.45265e-23
1.45197e-22
9.68025e-24
2.5223e-23
1.99e-24
-8.86607e-23
5.71706e-24
9.75511e-23
4.24754e-24
-6.03979e-23
7.97943e-24
-3.02377e-23
4.02391e-24
-7.46175e-24
4.88136e-24
5.37476e-23
7.98038e-24
-5.64119e-24
1.06805e-23
1.3552e-22
8.04293e-24
-8.65837e-23
4.89844e-24
-1.90384e-23
1.92686e-24
-4.51136e-23
1.01566e-24
1.44522e-23
5.89381e-25
-5.68639e-23
-5.11757e-25
-2.88559e-23
-2.01154e-24
-8.37951e-23
-4.58314e-24
-4.19123e-23
-5.1552e-24
-6.68237e-24
-5.95795e-24
6.73506e-24
-4.81302e-24
4.88348e-23
-5.3892e-24
-3.9177e-23
-2.04113e-24
5.5889e-23
1.01856e-24
5.73069e-23
3.48975e-25
4.24341e-23
4.96427e-25
1.7681e-23
8.20796e-25
-3.34785e-23
5.1515e-24
8.17749e-23
5.46649e-24
3.36742e-23
8.20535e-24
3.67236e-23
1.82426e-24
-6.32779e-23
-1.04001e-25
4.37489e-23
8.70627e-24
1.81519e-22
5.53212e-24
-4.24221e-23
-2.50724e-24
-1.7977e-22
-8.70451e-23
3.79494e-24
-5.58877e-23
-1.62715e-24
2.68713e-24
1.78383e-23
2.92728e-24
-4.263e-23
-1.51663e-25
5.14749e-23
-3.58187e-26
8.43208e-23
8.57507e-24
2.16807e-22
7.53271e-24
5.4737e-23
1.19656e-23
2.19105e-22
1.41514e-23
1.45266e-22
9.37272e-24
2.7878e-23
2.03596e-24
-8.63525e-23
5.09117e-24
6.84029e-23
4.17968e-24
-5.42216e-23
8.09963e-24
-4.17313e-23
3.92061e-24
-5.06179e-24
4.67341e-24
3.98516e-23
8.03991e-24
-1.47333e-24
1.02128e-23
1.04051e-22
7.99508e-24
-5.38913e-23
4.73851e-24
-1.92074e-23
1.93931e-24
-3.68007e-23
9.22706e-25
1.61339e-23
4.41392e-25
-3.80705e-23
-5.85225e-25
-2.73867e-23
-1.88775e-24
-8.67142e-23
-4.48006e-24
-6.87726e-23
-5.10484e-24
-6.7168e-24
-5.8682e-24
1.60493e-23
-4.78299e-24
4.68519e-23
-5.33671e-24
-3.4966e-23
-1.88643e-24
5.05678e-23
8.76607e-25
5.56936e-23
4.20991e-25
6.1941e-23
2.71691e-25
1.64075e-23
8.37659e-25
-1.58357e-23
5.04546e-24
6.14208e-23
5.76935e-24
3.07807e-23
8.17838e-24
3.33353e-23
1.84341e-24
-7.13209e-23
1.20314e-25
7.74864e-23
8.43434e-24
1.68723e-22
5.17933e-24
-5.37908e-23
-2.40772e-24
-1.75808e-22
-1.06572e-22
3.62797e-24
-8.01065e-23
-1.63779e-24
2.95612e-24
3.3684e-23
3.01302e-24
-6.36017e-23
-1.25388e-25
5.36828e-23
-3.71662e-25
5.90787e-23
8.31254e-24
2.11162e-22
7.86735e-24
7.68374e-23
1.1534e-23
2.12487e-22
1.37569e-23
1.27322e-22
9.11644e-24
3.3808e-23
1.9571e-24
-1.02454e-22
4.76992e-24
7.2101e-23
4.17752e-24
-4.93987e-23
8.20482e-24
-2.57388e-23
3.75022e-24
-3.18248e-23
4.4828e-24
9.30127e-24
8.02613e-24
-2.65088e-25
9.92717e-24
7.04839e-23
7.82003e-24
-5.93861e-23
4.65267e-24
-4.06014e-24
1.88184e-24
-2.66405e-23
9.66673e-25
2.13458e-24
2.15213e-25
-6.76778e-23
-6.37069e-25
-2.43257e-23
-1.82001e-24
-7.19471e-23
-4.3135e-24
-6.07351e-23
-5.06061e-24
-6.64062e-24
-5.82453e-24
2.83382e-23
-4.73383e-24
5.9097e-23
-5.18546e-24
-1.19216e-23
-1.84759e-24
6.09351e-23
7.9736e-25
7.23514e-23
4.2183e-25
9.50074e-23
3.2343e-25
2.85443e-23
5.54584e-25
-2.33156e-23
5.29567e-24
7.00256e-23
5.87954e-24
2.82039e-23
7.71655e-24
4.66025e-23
2.13774e-24
-6.57737e-23
1.14826e-25
1.11031e-22
8.25135e-24
1.55723e-22
5.15198e-24
-3.47241e-23
-2.36584e-24
-1.73465e-22
-9.73554e-23
3.94544e-24
-8.89393e-23
-1.51995e-24
2.67741e-24
3.4845e-24
3.27334e-24
-3.84392e-23
-2.59183e-25
2.67326e-23
-4.93846e-25
2.98922e-23
7.90165e-24
1.46525e-22
7.88344e-24
6.29262e-23
1.12288e-23
1.75437e-22
1.35935e-23
1.23866e-22
8.53073e-24
4.26988e-23
1.7022e-24
-8.78881e-23
4.73626e-24
7.00028e-23
4.13162e-24
-7.69603e-23
8.20876e-24
3.28135e-24
3.62942e-24
-5.90689e-23
4.23816e-24
2.62995e-23
7.88168e-24
1.50285e-23
9.80846e-24
4.03248e-23
7.66335e-24
-6.0617e-23
4.55451e-24
-5.31604e-24
1.80705e-24
-1.53129e-23
8.32215e-25
5.15738e-24
1.78188e-25
-6.565e-23
-7.52421e-25
-3.4064e-23
-1.72429e-24
-3.9838e-23
-4.22521e-24
-5.6106e-23
-4.84987e-24
1.08189e-23
-5.85955e-24
1.28655e-23
-4.61584e-24
6.9254e-23
-5.05344e-24
-1.26518e-23
-1.8259e-24
5.5509e-23
8.65882e-25
7.16387e-23
3.10379e-25
6.78391e-23
1.54405e-25
1.09256e-23
6.27595e-25
-2.71642e-23
5.39157e-24
9.34505e-23
5.77408e-24
1.33998e-23
7.55974e-24
7.52343e-23
2.36508e-24
-4.60867e-23
2.87737e-25
1.43572e-22
7.8489e-24
1.18227e-22
5.17853e-24
-4.64744e-23
-2.06657e-24
-1.38871e-22
-1.02892e-22
4.00531e-24
-9.69841e-23
-1.47498e-24
2.69347e-24
-1.27767e-23
3.36195e-24
-2.77804e-23
-3.56939e-25
-1.19319e-23
-5.07734e-25
1.18431e-23
8.05708e-24
9.4685e-23
7.85818e-24
4.90991e-23
1.11448e-23
1.54639e-22
1.3288e-23
9.31061e-23
8.33053e-24
6.81234e-23
1.58883e-24
-8.75457e-23
4.30432e-24
5.37235e-23
4.22843e-24
-5.94678e-23
8.05732e-24
-1.35983e-23
3.56985e-24
-5.78969e-23
4.11256e-24
5.54036e-23
7.60854e-24
1.48706e-23
9.74163e-24
6.61033e-23
7.54985e-24
-6.07551e-23
4.49356e-24
-5.51891e-24
1.68435e-24
-1.96705e-23
6.84779e-25
-4.71911e-24
1.64023e-25
-3.29815e-23
-7.40394e-25
-2.96128e-23
-1.69627e-24
-3.69698e-23
-4.12567e-24
-5.23976e-23
-4.74803e-24
2.82057e-23
-5.80935e-24
-3.3046e-24
-4.5828e-24
6.65488e-23
-4.84856e-24
-3.02788e-23
-1.76272e-24
3.67992e-23
7.55171e-25
7.05366e-23
1.56809e-25
5.32013e-23
2.10809e-25
1.02745e-23
4.90792e-25
-4.85894e-23
5.33174e-24
1.27071e-22
6.13667e-24
3.03061e-23
7.51119e-24
8.08339e-23
2.5406e-24
-4.30137e-23
-4.03042e-26
8.92828e-23
7.57409e-24
8.08374e-23
5.24173e-24
-2.7432e-24
-2.30881e-24
-1.33508e-22
-6.87662e-23
3.99839e-24
-1.28901e-22
-1.41929e-24
2.90245e-24
-3.07069e-23
3.29069e-24
-5.08048e-24
-3.29783e-25
-4.98405e-23
-5.88585e-25
-1.75997e-23
8.0713e-24
8.8319e-23
7.74246e-24
5.10007e-23
1.09785e-23
1.61764e-22
1.32475e-23
1.20088e-22
7.88448e-24
7.66139e-23
1.1994e-24
-8.67385e-23
4.16734e-24
5.11442e-23
4.06673e-24
-4.32161e-23
8.07506e-24
-3.28986e-23
3.64265e-24
-7.3738e-23
3.80721e-24
4.11935e-23
7.5223e-24
1.21635e-23
9.39081e-24
3.48394e-23
7.50041e-24
-4.35821e-23
4.43637e-24
-9.65978e-24
1.60587e-24
-7.27155e-24
6.7251e-25
-1.27585e-24
6.7397e-27
-4.41855e-23
-7.05533e-25
-2.12748e-23
-1.65036e-24
-3.5196e-23
-3.96812e-24
-4.79373e-23
-4.75093e-24
1.40377e-23
-5.68737e-24
-3.35535e-24
-4.60976e-24
6.59115e-23
-4.73094e-24
-3.40097e-23
-1.6402e-24
1.75962e-23
6.71597e-25
5.27646e-23
1.32076e-25
9.61948e-23
1.96257e-25
9.34202e-24
5.2673e-25
-5.3319e-23
5.26226e-24
1.17118e-22
6.30187e-24
7.40719e-23
7.52957e-24
6.73045e-23
2.58811e-24
-4.19256e-23
-1.81843e-25
8.86589e-23
7.56273e-24
7.02611e-23
4.98043e-24
-2.87736e-23
-2.1496e-24
-1.40657e-22
-6.10209e-23
3.86868e-24
-1.18371e-22
-1.34303e-24
3.07515e-24
-3.36598e-23
3.13078e-24
-5.98039e-24
-3.85538e-25
-4.58894e-23
-8.29067e-25
-3.18543e-23
8.10884e-24
8.04049e-23
7.80421e-24
5.39479e-23
1.08586e-23
1.42552e-22
1.32795e-23
1.15338e-22
7.44864e-24
4.17677e-23
7.83291e-25
-8.59129e-23
4.08449e-24
6.06528e-23
3.72743e-24
-4.14492e-23
8.19514e-24
-3.84946e-23
3.65998e-24
-1.00413e-22
3.65955e-24
2.66061e-23
7.39616e-24
-4.10955e-24
9.20481e-24
2.90363e-24
7.29413e-24
-2.80034e-23
4.42203e-24
-1.13479e-23
1.49809e-24
-1.07448e-23
6.27512e-25
1.92301e-24
-7.61135e-26
-3.96872e-23
-7.05862e-25
-1.28045e-23
-1.5634e-24
-3.45095e-23
-3.89053e-24
-4.23636e-23
-4.67536e-24
2.96508e-23
-5.61185e-24
-2.57781e-24
-4.61261e-24
6.51747e-23
-4.57842e-24
-2.1548e-23
-1.52745e-24
-4.36063e-24
7.45781e-25
3.59082e-23
-5.53969e-26
8.22356e-23
1.31853e-25
2.56677e-23
5.67902e-25
-5.73054e-23
5.41854e-24
1.3374e-22
6.22016e-24
7.47524e-23
7.48124e-24
7.0696e-23
2.66725e-24
-4.10752e-23
-3.02602e-25
7.56154e-23
7.41343e-24
8.62904e-23
4.77983e-24
2.31461e-23
-1.99221e-24
-1.32797e-22
-5.39983e-23
3.90678e-24
-1.2116e-22
-1.17351e-24
3.03223e-24
-3.5819e-23
3.19411e-24
-2.97749e-23
-7.17238e-25
-2.06515e-23
-7.94324e-25
2.81185e-23
8.10573e-24
5.88335e-23
7.85653e-24
1.98347e-23
1.06517e-23
1.37601e-22
1.28832e-23
8.34842e-23
7.30371e-24
2.63611e-23
6.48194e-25
-8.21301e-23
3.75747e-24
5.51299e-23
3.61917e-24
-1.34122e-23
8.19047e-24
-1.94415e-23
3.67749e-24
-1.00655e-22
3.47318e-24
-1.30179e-23
7.31277e-24
-2.0246e-23
9.00734e-24
-2.77516e-23
7.25596e-24
-2.58388e-23
4.35175e-24
-2.6101e-23
1.37787e-24
-1.42249e-23
5.39544e-25
1.88873e-23
-1.36098e-25
-4.80671e-23
-7.14653e-25
-2.26203e-23
-1.46291e-24
-3.30437e-23
-3.80336e-24
-3.59448e-23
-4.56716e-24
4.47701e-23
-5.55215e-24
-1.31391e-24
-4.51172e-24
4.91084e-23
-4.54955e-24
-2.5631e-23
-1.43964e-24
1.9535e-23
8.56122e-25
2.03462e-23
-2.2025e-25
9.37084e-23
9.7454e-26
5.20894e-23
6.19811e-25
-4.94729e-23
5.50325e-24
1.37086e-22
6.18381e-24
4.88047e-23
7.26478e-24
4.88313e-23
2.60618e-24
-4.03723e-23
-4.85876e-25
4.95616e-23
7.50183e-24
1.08354e-22
4.76987e-24
1.89398e-23
-1.90891e-24
-1.23933e-22
-9.9856e-24
4.08743e-24
-9.84949e-23
-9.70804e-25
2.97945e-24
-3.91087e-23
3.39503e-24
-6.07938e-24
-7.61522e-25
-5.01708e-23
-9.22937e-25
2.84555e-23
7.97348e-24
4.85015e-23
7.96875e-24
4.51461e-23
1.04632e-23
1.0973e-22
1.25828e-23
6.50743e-23
7.01144e-24
-1.46653e-24
3.00514e-25
-1.01436e-22
3.59346e-24
8.40544e-23
3.55145e-24
-3.31472e-24
8.08634e-24
-1.17989e-23
3.56773e-24
-1.00188e-22
3.34708e-24
1.23667e-23
7.03172e-24
-3.71359e-23
9.04568e-24
-5.08703e-24
7.16378e-24
-2.31607e-23
4.23309e-24
-2.73399e-23
1.41284e-24
6.97273e-24
4.1815e-25
2.28007e-23
-1.92113e-25
-4.3289e-23
-6.92011e-25
-3.80593e-23
-1.3704e-24
-3.78545e-23
-3.65921e-24
-3.0616e-23
-4.50684e-24
4.67847e-23
-5.55136e-24
-8.99712e-25
-4.43823e-24
4.49614e-23
-4.51806e-24
-4.07522e-23
-1.33825e-24
5.39674e-24
9.41974e-25
3.16417e-23
-2.54976e-25
7.93281e-23
2.86524e-26
7.71307e-23
7.50057e-25
-4.17147e-23
5.46116e-24
1.4763e-22
6.12718e-24
4.23496e-23
7.16117e-24
3.83537e-23
2.59383e-24
-4.43855e-23
-2.48382e-25
6.22897e-23
7.31479e-24
1.33159e-22
4.63027e-24
2.67255e-23
-1.73715e-24
-9.3422e-23
-5.17847e-24
-4.56193e-23
-5.63236e-23
4.12018e-24
-5.66654e-23
-8.34291e-25
2.98028e-24
-3.12584e-23
3.33302e-24
7.33017e-24
-7.05807e-25
-4.47999e-23
-1.29143e-24
3.15785e-23
7.88538e-24
6.29237e-23
7.95553e-24
4.36774e-23
1.02574e-23
8.72456e-23
1.24372e-23
4.77225e-23
6.83637e-24
6.68677e-24
1.44964e-25
-6.9639e-23
3.43475e-24
1.04118e-22
3.40647e-24
7.98848e-24
8.02567e-24
-2.60148e-23
3.57306e-24
-1.11234e-22
3.1305e-24
-2.50671e-23
7.03593e-24
-1.81081e-23
8.92713e-24
1.16501e-23
7.11764e-24
-2.13654e-23
4.26853e-24
-2.6619e-23
1.28076e-24
-2.0788e-23
3.4796e-25
7.4471e-24
-3.33163e-25
-2.9094e-23
-6.09833e-25
-3.67914e-23
-1.2516e-24
-5.97842e-23
-3.51655e-24
-2.55441e-23
-4.43667e-24
3.15348e-23
-5.49704e-24
4.6521e-26
-4.42814e-24
6.3783e-23
-4.45043e-24
-4.36454e-23
-1.13778e-24
1.4615e-23
9.676e-25
1.91886e-23
-3.29954e-25
6.60565e-23
-1.30043e-25
7.76075e-23
7.34162e-25
-8.99768e-24
5.39757e-24
1.31292e-22
6.10938e-24
7.03433e-23
7.11362e-24
2.8722e-23
2.53924e-24
-6.76957e-23
-2.96194e-25
4.00682e-23
7.0398e-24
1.30837e-22
4.50624e-24
4.64015e-23
-1.66327e-24
-6.57258e-23
-4.8259e-24
-5.60905e-23
-4.83928e-23
4.23667e-24
-4.10146e-23
-7.02594e-25
3.16818e-24
-6.85673e-23
3.32082e-24
-1.34655e-23
-7.79613e-25
-8.7502e-23
-1.35674e-24
3.49709e-23
8.10777e-24
9.72331e-23
7.75229e-24
4.46522e-23
1.00984e-23
7.67108e-23
1.2087e-23
4.80137e-23
6.42654e-24
7.76294e-24
2.44976e-26
-7.3199e-23
3.31426e-24
1.00958e-22
3.10125e-24
7.19587e-24
8.04176e-24
-1.84315e-23
3.43752e-24
-1.10245e-22
3.00185e-24
-4.81128e-23
6.92036e-24
-2.10577e-23
8.62211e-24
2.37245e-23
7.06038e-24
-1.22326e-23
4.22361e-24
-3.93072e-23
1.21054e-24
7.45374e-25
2.8858e-25
1.11206e-23
-4.53243e-25
-4.5169e-23
-5.64538e-25
-4.89766e-23
-1.05518e-24
-7.06939e-23
-3.44094e-24
-2.41792e-23
-4.28903e-24
3.34949e-23
-5.45283e-24
-2.2391e-23
-4.44497e-24
5.19925e-23
-4.28858e-24
-4.39716e-23
-1.01972e-24
2.33243e-23
1.17492e-24
8.00902e-24
-2.89583e-25
3.96531e-23
-1.50177e-25
6.60099e-23
6.16009e-25
5.82364e-25
5.45991e-24
1.38731e-22
5.99827e-24
5.15496e-23
7.02831e-24
4.10211e-23
2.60355e-24
-6.93563e-23
-2.0804e-25
6.27317e-23
6.98335e-24
9.52172e-23
4.42473e-24
3.55965e-23
-1.62951e-24
-6.06792e-23
-4.62313e-24
-4.57832e-23
-6.9528e-23
4.01516e-24
-2.26761e-23
-6.6486e-25
3.12369e-24
-1.16106e-22
3.24142e-24
-2.7593e-24
-7.8172e-25
-8.05941e-23
-1.64255e-24
1.79398e-24
7.93646e-24
8.51571e-23
7.75239e-24
3.4777e-23
1.00037e-23
7.53542e-23
1.18306e-23
4.41892e-23
6.16844e-24
3.11524e-24
-7.60102e-26
-5.49438e-23
3.18035e-24
1.14405e-22
2.84746e-24
4.58466e-24
7.9593e-24
1.57051e-24
3.32842e-24
-1.20946e-22
2.87385e-24
-5.62874e-23
6.85e-24
-2.10949e-23
8.52347e-24
2.49648e-23
6.84513e-24
-2.40404e-23
4.31255e-24
-4.09082e-23
1.04919e-24
-8.50046e-24
2.60472e-25
2.26963e-23
-5.90105e-25
-4.03115e-23
-5.1237e-25
-5.06873e-23
-8.33373e-25
-6.79131e-23
-3.333e-24
-1.76934e-23
-4.1636e-24
3.44878e-23
-5.356e-24
-3.21792e-23
-4.43033e-24
5.01693e-23
-4.09125e-24
-2.31942e-23
-9.68659e-25
1.74931e-23
1.24894e-24
1.71441e-23
-2.83597e-25
3.79876e-23
-1.31251e-25
6.90562e-23
6.18547e-25
1.3389e-23
5.37806e-24
1.34995e-22
5.97142e-24
6.30614e-23
6.83024e-24
3.34014e-23
2.66538e-24
-9.4027e-23
-2.35113e-25
2.91173e-23
6.88878e-24
8.54484e-23
4.19641e-24
4.41827e-23
-1.734e-24
-5.50405e-23
-4.22113e-24
-1.26081e-23
3.97498e-24
-3.8112e-23
-6.98719e-25
3.36502e-24
-8.27033e-23
3.40541e-24
-4.28895e-24
-8.44554e-25
-1.0781e-22
-1.50669e-24
2.47811e-23
7.72374e-24
9.64798e-23
7.814e-24
3.42103e-23
9.6763e-24
6.01927e-23
1.14979e-23
4.18892e-23
5.96909e-24
3.48821e-25
-2.4142e-25
-4.43065e-23
2.9232e-24
1.06775e-22
2.67947e-24
3.59248e-23
7.83931e-24
-1.73756e-24
3.18556e-24
-1.20092e-22
2.86139e-24
-6.50454e-23
6.72474e-24
-5.65982e-23
8.34244e-24
3.68945e-23
6.72866e-24
-1.57111e-23
4.2977e-24
-5.05204e-23
1.01092e-24
-2.65334e-23
1.58345e-25
2.49099e-23
-6.78657e-25
-5.35357e-23
-4.52181e-25
-5.26379e-23
-6.03498e-25
-5.39158e-23
-3.21728e-24
-3.50524e-23
-4.07608e-24
2.29981e-23
-5.23137e-24
-3.06123e-23
-4.37162e-24
4.76199e-23
-3.98425e-24
-2.0677e-23
-8.63592e-25
1.12038e-23
1.3815e-24
1.4532e-23
-2.59054e-25
3.05125e-23
-6.92966e-26
8.3432e-23
5.66792e-25
5.18071e-23
5.25006e-24
1.40771e-22
5.92547e-24
7.35221e-23
6.68583e-24
2.56534e-23
2.69303e-24
-7.40443e-23
-1.52707e-25
2.79324e-23
6.84594e-24
1.00521e-22
4.09152e-24
1.84778e-23
-1.7281e-24
-7.3202e-23
-1.43883e-23
4.05694e-24
-2.03274e-23
-5.38903e-25
3.30915e-24
-8.69705e-23
3.3847e-24
-2.7604e-23
-8.14815e-25
-8.95239e-23
-1.57022e-24
3.60019e-23
7.55735e-24
7.8361e-23
7.60928e-24
3.16335e-23
9.49583e-24
2.28994e-23
1.13064e-23
4.1078e-23
5.83965e-24
-2.71302e-23
-4.26192e-25
-5.56294e-23
2.8174e-24
1.20776e-22
2.4166e-24
7.55939e-24
7.62851e-24
-6.12434e-24
3.06471e-24
-9.648e-23
2.74389e-24
-5.17364e-23
6.7787e-24
-5.77932e-23
8.19509e-24
6.08312e-23
6.54871e-24
-1.9683e-23
4.29917e-24
-3.56862e-23
1.02283e-24
-2.59109e-23
1.01698e-26
5.7891e-24
-7.24655e-25
-2.62538e-23
-3.61042e-25
-5.63413e-23
-4.40113e-25
-5.11395e-23
-3.06147e-24
-1.85827e-23
-3.94873e-24
2.07328e-23
-5.09858e-24
-1.98684e-23
-4.27884e-24
4.50617e-23
-3.88722e-24
-1.05042e-23
-8.30207e-25
-6.04429e-24
1.54945e-24
2.12959e-23
-2.85788e-25
2.38867e-23
-1.15838e-26
8.50762e-23
4.8398e-25
3.43033e-23
5.20534e-24
1.36832e-22
5.82007e-24
7.63517e-23
6.53749e-24
-3.99578e-24
2.74496e-24
-7.34255e-23
-2.34113e-25
3.78573e-23
6.75543e-24
7.08138e-23
3.86545e-24
-4.09201e-24
-1.56346e-24
-6.07028e-23
-2.75444e-23
3.91508e-24
-2.3568e-23
-4.21343e-25
3.36086e-24
-7.21821e-23
3.45819e-24
-3.79738e-23
-8.43147e-25
-6.27975e-23
-1.52987e-24
6.87444e-23
7.47778e-24
6.99602e-23
7.36484e-24
2.89999e-23
9.28295e-24
2.04078e-23
1.10599e-23
1.97466e-23
5.63e-24
3.5925e-24
-3.83525e-25
-1.33544e-23
2.61467e-24
7.77677e-23
2.25049e-24
-8.42928e-24
7.52519e-24
-1.21322e-23
2.98518e-24
-9.60504e-23
2.56711e-24
-5.15549e-23
6.85117e-24
-4.14734e-23
7.93868e-24
6.3945e-23
6.35672e-24
-2.18187e-23
4.32907e-24
-4.16643e-24
9.22962e-25
-2.51404e-23
-1.23767e-26
9.9444e-24
-8.13094e-25
-2.11274e-23
-2.61853e-25
-5.98414e-23
-2.42295e-25
-3.78944e-23
-2.94097e-24
-2.10141e-23
-3.77084e-24
1.9834e-23
-4.94681e-24
-1.62882e-23
-4.21901e-24
4.20226e-23
-3.75603e-24
3.4748e-24
-7.35749e-25
-2.92578e-23
1.68666e-24
2.58214e-23
-2.15784e-25
2.52961e-23
-3.88185e-26
7.7223e-23
5.15957e-25
3.05479e-23
5.0216e-24
1.33491e-22
5.60809e-24
7.92683e-23
6.47466e-24
1.67572e-24
2.78922e-24
-4.85627e-23
-3.91733e-25
3.94244e-23
6.68165e-24
6.14192e-23
3.74174e-24
-7.85663e-24
-1.53994e-24
-5.74549e-23
-2.78659e-23
3.8777e-24
-3.77388e-24
-3.01755e-25
3.3317e-24
-4.03646e-23
3.46612e-24
-1.73455e-23
-6.92552e-25
-8.72612e-23
-1.63354e-24
7.18006e-23
7.38819e-24
6.04221e-23
7.2021e-24
1.86023e-23
9.02657e-24