/*--------------------------------*- C++ -*----------------------------------*\
  =========                 |
  \\      /  F ield         | OpenFOAM: The Open Source CFD Toolbox
   \\    /   O peration     | Website:  https://openfoam.org
    \\  /    A nd           | Version:  7
     \\/     M anipulation  |
\*---------------------------------------------------------------------------*/
FoamFile
{
    version     2.0;
    format      ascii;
    class       volVectorField;
    location    "8000";
    object      U;
}
// * * * * * * * * * * * * * * * * * * * * * * * * * * * * * * * * * * * * * //

dimensions      [0 1 -1 0 0 0 0];

internalField   nonuniform List<vector> 
4838
(
(1.58251e-18 -6.17812e-19 -0.0163648)
(1.81651e-18 -4.43922e-19 -0.0163741)
(1.84387e-18 -3.12209e-19 -0.0163825)
(1.92333e-18 -1.11161e-19 -0.0163904)
(1.98549e-18 -2.7339e-19 -0.0163978)
(1.73519e-18 -4.57714e-19 -0.0164046)
(1.44139e-18 -6.13429e-19 -0.0164109)
(1.53256e-18 -4.57791e-19 -0.0164167)
(1.77522e-18 -1.92457e-19 -0.016422)
(1.71937e-18 4.58086e-21 -0.0164269)
(1.78905e-18 1.68009e-19 -0.0164313)
(2.11311e-18 -2.86919e-22 -0.0164354)
(2.03285e-18 -2.98047e-19 -0.016439)
(1.91776e-18 -5.07032e-19 -0.0164423)
(2.58662e-18 -6.06087e-19 -0.0164451)
(3.5843e-18 -1.11695e-18 -0.0164477)
(3.61836e-18 -1.88157e-18 -0.01645)
(3.04587e-18 -2.69264e-18 -0.0164519)
(2.78012e-18 -3.27284e-18 -0.0164536)
(2.42108e-18 -3.5223e-18 -0.016455)
(1.65095e-18 -3.63957e-18 -0.0164561)
(1.28629e-18 -3.69678e-18 -0.016457)
(1.19449e-18 -3.76047e-18 -0.0164577)
(7.40843e-19 -3.93354e-18 -0.0164581)
(1.53291e-19 -4.13309e-18 -0.0164583)
(-4.01101e-19 -4.07515e-18 -0.0164583)
(-9.15914e-19 -3.89199e-18 -0.0164581)
(-1.43242e-18 -3.41424e-18 -0.0164577)
(-1.83558e-18 -2.99643e-18 -0.016457)
(-1.82491e-18 -2.6102e-18 -0.0164561)
(-2.38873e-18 -2.04785e-18 -0.016455)
(-3.22269e-18 -1.38094e-18 -0.0164536)
(-3.15567e-18 -6.42737e-19 -0.0164519)
(-2.87361e-18 -5.69886e-20 -0.01645)
(-2.85158e-18 3.92196e-19 -0.0164477)
(-2.52144e-18 8.93083e-19 -0.0164452)
(-1.83801e-18 9.46243e-19 -0.0164423)
(-1.49133e-18 9.79509e-19 -0.016439)
(-1.49898e-18 7.87102e-19 -0.0164354)
(-1.62741e-18 6.70531e-19 -0.0164314)
(-1.60965e-18 7.26441e-19 -0.0164269)
(-1.67826e-18 8.65033e-19 -0.016422)
(-1.37157e-18 8.46685e-19 -0.0164167)
(-9.03265e-19 3.71888e-19 -0.0164109)
(-1.21906e-18 2.65171e-19 -0.0164046)
(-1.58874e-18 4.15125e-19 -0.0163978)
(-1.40582e-18 4.43747e-19 -0.0163904)
(-1.07114e-18 2.61351e-19 -0.0163825)
(-8.73711e-19 4.441e-21 -0.0163741)
(-6.93513e-19 -9.82323e-22 -0.0163648)
(1.11891e-18 -5.80544e-19 -0.016349)
(1.48124e-18 -6.81419e-19 -0.0163583)
(1.69062e-18 -6.81764e-19 -0.016367)
(1.87484e-18 -6.41081e-19 -0.0163753)
(2.00141e-18 -6.77105e-19 -0.0163831)
(1.85011e-18 -8.51113e-19 -0.0163904)
(1.5991e-18 -8.02584e-19 -0.0163972)
(1.63254e-18 -4.42423e-19 -0.0164035)
(1.70491e-18 -2.04726e-19 -0.0164094)
(1.66539e-18 -2.96888e-19 -0.0164147)
(1.77329e-18 -2.43423e-19 -0.0164196)
(2.02777e-18 -1.19067e-19 -0.0164241)
(1.99256e-18 -2.62285e-19 -0.0164281)
(1.87337e-18 -3.97741e-19 -0.0164317)
(2.11894e-18 -4.85039e-19 -0.016435)
(2.59188e-18 -1.04577e-18 -0.0164379)
(2.59881e-18 -1.85295e-18 -0.0164405)
(2.32873e-18 -2.56729e-18 -0.0164427)
(2.54295e-18 -3.07879e-18 -0.0164446)
(2.76831e-18 -3.13413e-18 -0.0164462)
(2.33924e-18 -3.16785e-18 -0.0164475)
(1.77496e-18 -3.04985e-18 -0.0164486)
(1.19212e-18 -3.1794e-18 -0.0164494)
(4.18826e-19 -3.54839e-18 -0.0164499)
(4.63253e-20 -3.77723e-18 -0.0164501)
(-2.14152e-19 -3.70469e-18 -0.0164501)
(-4.02792e-19 -3.34105e-18 -0.0164499)
(-7.61747e-19 -2.88673e-18 -0.0164494)
(-1.45646e-18 -2.47358e-18 -0.0164486)
(-1.76637e-18 -2.02885e-18 -0.0164475)
(-2.23479e-18 -1.86984e-18 -0.0164462)
(-2.77317e-18 -1.22879e-18 -0.0164446)
(-2.99364e-18 -5.36961e-19 -0.0164427)
(-2.89978e-18 -1.92957e-19 -0.0164405)
(-2.39377e-18 1.91881e-20 -0.0164379)
(-2.0076e-18 4.14922e-19 -0.016435)
(-1.86966e-18 4.54635e-19 -0.0164317)
(-1.69713e-18 1.73053e-19 -0.0164281)
(-1.5141e-18 4.82918e-20 -0.0164241)
(-1.34477e-18 -2.82911e-20 -0.0164196)
(-1.40976e-18 7.43654e-20 -0.0164147)
(-1.63335e-18 2.10129e-19 -0.0164094)
(-1.47809e-18 5.31778e-19 -0.0164035)
(-1.27699e-18 2.84825e-19 -0.0163972)
(-1.41639e-18 1.15093e-19 -0.0163904)
(-1.35595e-18 1.42915e-19 -0.0163831)
(-1.10016e-18 2.7031e-19 -0.0163753)
(-9.27603e-19 3.27213e-19 -0.016367)
(-6.02303e-19 1.94676e-19 -0.0163583)
(-4.5968e-19 3.51011e-20 -0.016349)
(6.01123e-19 -5.1904e-19 -0.0163315)
(1.09064e-18 -3.88322e-19 -0.0163413)
(1.43512e-18 -3.5345e-19 -0.0163504)
(1.60354e-18 -4.72866e-19 -0.0163591)
(1.71015e-18 -5.25683e-19 -0.0163674)
(1.78685e-18 -8.89423e-19 -0.0163751)
(1.86576e-18 -8.32384e-19 -0.0163824)
(1.95655e-18 -6.9993e-19 -0.0163891)
(1.78598e-18 -7.91621e-19 -0.0163954)
(1.53659e-18 -9.47341e-19 -0.0164012)
(1.76784e-18 -6.71596e-19 -0.0164066)
(2.06132e-18 -3.72169e-19 -0.0164115)
(1.89063e-18 -4.9404e-19 -0.0164159)
(1.71687e-18 -5.61254e-19 -0.0164199)
(1.76507e-18 -6.37248e-19 -0.0164236)
(2.17404e-18 -8.67662e-19 -0.0164268)
(2.26509e-18 -1.18816e-18 -0.0164296)
(1.8943e-18 -1.51184e-18 -0.0164321)
(2.37773e-18 -1.69297e-18 -0.0164343)
(2.82675e-18 -1.82668e-18 -0.0164361)
(2.34896e-18 -2.17011e-18 -0.0164376)
(1.76252e-18 -2.44924e-18 -0.0164388)
(9.07909e-19 -2.71811e-18 -0.0164397)
(1.35039e-19 -2.74057e-18 -0.0164403)
(3.21038e-20 -2.68003e-18 -0.0164406)
(1.83768e-19 -2.93082e-18 -0.0164406)
(4.98424e-20 -2.93304e-18 -0.0164403)
(-6.11154e-19 -2.88272e-18 -0.0164397)
(-1.19734e-18 -2.51719e-18 -0.0164388)
(-1.59783e-18 -2.04878e-18 -0.0164376)
(-2.09754e-18 -1.73624e-18 -0.0164361)
(-2.37846e-18 -1.15467e-18 -0.0164343)
(-2.5745e-18 -3.53638e-19 -0.0164321)
(-2.58312e-18 1.2672e-20 -0.0164296)
(-2.27149e-18 2.45443e-19 -0.0164268)
(-2.19621e-18 3.12687e-19 -0.0164236)
(-2.27489e-18 2.80724e-19 -0.0164199)
(-1.90072e-18 -3.12395e-21 -0.0164159)
(-1.54418e-18 -1.91664e-19 -0.0164115)
(-1.51584e-18 -2.36778e-19 -0.0164066)
(-1.49177e-18 -2.91329e-19 -0.0164012)
(-1.18697e-18 -2.20336e-19 -0.0163954)
(-9.72684e-19 -1.16691e-20 -0.0163892)
(-1.15495e-18 2.90905e-20 -0.0163824)
(-1.26732e-18 1.50468e-19 -0.0163751)
(-1.07119e-18 2.97383e-19 -0.0163674)
(-7.43337e-19 1.38459e-19 -0.0163591)
(-5.15363e-19 6.5926e-20 -0.0163504)
(-4.66142e-19 2.65026e-19 -0.0163413)
(-7.63203e-19 2.45115e-19 -0.0163315)
(6.67273e-19 -1.17065e-19 -0.0163128)
(7.82748e-19 1.58041e-20 -0.0163232)
(1.03832e-18 1.62021e-19 -0.0163328)
(1.35213e-18 1.58091e-19 -0.0163419)
(1.31429e-18 -2.57184e-20 -0.0163506)
(1.28354e-18 -4.32536e-19 -0.0163588)
(1.52799e-18 -6.07296e-19 -0.0163665)
(1.60707e-18 -9.18413e-19 -0.0163737)
(1.59429e-18 -1.24504e-18 -0.0163804)
(1.71568e-18 -1.10227e-18 -0.0163866)
(2.06917e-18 -5.88901e-19 -0.0163924)
(2.17094e-18 -5.81214e-19 -0.0163977)
(1.98333e-18 -8.96087e-19 -0.0164025)
(1.83779e-18 -1.04382e-18 -0.0164069)
(1.7334e-18 -8.57864e-19 -0.0164108)
(2.01964e-18 -7.33622e-19 -0.0164144)
(2.14046e-18 -7.84549e-19 -0.0164175)
(1.85285e-18 -9.09048e-19 -0.0164203)
(2.20293e-18 -8.58243e-19 -0.0164227)
(2.57345e-18 -1.23973e-18 -0.0164247)
(2.09314e-18 -1.59098e-18 -0.0164264)
(1.50488e-18 -2.00689e-18 -0.0164277)
(1.09786e-18 -2.43577e-18 -0.0164287)
(5.16505e-19 -2.26207e-18 -0.0164294)
(-2.56626e-19 -2.09389e-18 -0.0164297)
(-6.20987e-19 -2.36511e-18 -0.0164297)
(-4.83322e-19 -2.76565e-18 -0.0164294)
(-5.11956e-19 -2.89366e-18 -0.0164287)
(-8.27358e-19 -2.50308e-18 -0.0164277)
(-1.31442e-18 -2.22514e-18 -0.0164264)
(-1.7274e-18 -1.93913e-18 -0.0164247)
(-1.74651e-18 -1.46445e-18 -0.0164227)
(-2.21577e-18 -8.26616e-19 -0.0164203)
(-2.58548e-18 -2.9343e-19 -0.0164176)
(-2.29142e-18 6.46389e-20 -0.0164144)
(-2.29553e-18 2.24866e-19 -0.0164108)
(-2.36685e-18 3.78837e-19 -0.0164069)
(-2.00192e-18 5.06442e-19 -0.0164025)
(-1.54709e-18 4.88903e-19 -0.0163977)
(-1.31404e-18 5.10144e-19 -0.0163924)
(-1.06105e-18 6.18378e-19 -0.0163866)
(-8.62991e-19 7.18672e-19 -0.0163804)
(-1.0414e-18 4.47643e-19 -0.0163737)
(-1.13906e-18 2.07492e-19 -0.0163665)
(-9.2859e-19 1.02203e-19 -0.0163588)
(-8.23608e-19 1.43403e-19 -0.0163506)
(-7.21901e-19 -1.16446e-19 -0.0163419)
(-3.99013e-19 -5.76641e-19 -0.0163328)
(-3.75676e-19 -4.08672e-19 -0.0163232)
(-6.17956e-19 -1.10033e-19 -0.0163128)
(7.60312e-19 2.18604e-20 -0.016293)
(8.9009e-19 2.34896e-19 -0.016304)
(9.9024e-19 3.378e-19 -0.0163141)
(1.07193e-18 2.73018e-19 -0.0163237)
(1.03566e-18 1.23204e-19 -0.0163328)
(8.8662e-19 -7.5494e-20 -0.0163414)
(1.00356e-18 -3.76159e-19 -0.0163495)
(1.11269e-18 -5.15658e-19 -0.0163571)
(1.35568e-18 -5.11946e-19 -0.0163642)
(1.79158e-18 -3.73328e-19 -0.0163709)
(1.96581e-18 -2.42327e-19 -0.016377)
(1.73616e-18 -6.51075e-19 -0.0163827)
(1.54105e-18 -1.1498e-18 -0.0163879)
(1.90174e-18 -1.30246e-18 -0.0163926)
(2.11614e-18 -8.48102e-19 -0.0163969)
(2.24262e-18 -6.04909e-19 -0.0164008)
(2.25009e-18 -7.68909e-19 -0.0164042)
(1.91886e-18 -8.93382e-19 -0.0164072)
(2.02156e-18 -8.31994e-19 -0.0164099)
(2.27329e-18 -1.31546e-18 -0.0164121)
(1.85239e-18 -1.69674e-18 -0.0164139)
(9.97529e-19 -2.1477e-18 -0.0164154)
(7.15724e-19 -2.6491e-18 -0.0164165)
(5.58475e-19 -2.89552e-18 -0.0164172)
(-2.00928e-19 -2.67938e-18 -0.0164175)
(-7.77681e-19 -2.3811e-18 -0.0164175)
(-7.17219e-19 -2.24138e-18 -0.0164172)
(-4.88776e-19 -2.13173e-18 -0.0164165)
(-7.28137e-19 -1.89787e-18 -0.0164154)
(-1.38543e-18 -1.77411e-18 -0.0164139)
(-1.6587e-18 -1.52683e-18 -0.0164121)
(-1.60469e-18 -1.29824e-18 -0.0164099)
(-1.88296e-18 -1.2083e-18 -0.0164072)
(-1.98756e-18 -6.15104e-19 -0.0164042)
(-1.91531e-18 -9.96828e-21 -0.0164008)
(-2.14136e-18 5.20268e-19 -0.0163969)
(-2.05247e-18 1.0142e-18 -0.0163926)
(-1.48132e-18 1.2288e-18 -0.0163879)
(-1.14706e-18 1.18408e-18 -0.0163827)
(-1.0003e-18 1.09277e-18 -0.016377)
(-8.30773e-19 1.16161e-18 -0.0163709)
(-1.1102e-18 1.09617e-18 -0.0163642)
(-1.40256e-18 8.99513e-19 -0.0163571)
(-1.1707e-18 8.28577e-19 -0.0163495)
(-8.81707e-19 7.21861e-19 -0.0163414)
(-9.04058e-19 5.6339e-19 -0.0163328)
(-8.06831e-19 5.45026e-19 -0.0163237)
(-2.09164e-19 1.99555e-19 -0.0163141)
(2.70462e-20 -2.7355e-19 -0.016304)
(-1.85012e-19 -2.34205e-19 -0.0162931)
(6.81533e-19 4.53194e-20 -0.0162723)
(7.78457e-19 1.98629e-19 -0.0162837)
(8.95295e-19 6.65697e-20 -0.0162943)
(1.08474e-18 3.56481e-20 -0.0163044)
(1.04522e-18 -1.55452e-19 -0.0163139)
(6.9838e-19 -3.25689e-19 -0.0163229)
(8.15242e-19 -4.40529e-19 -0.0163315)
(1.06119e-18 -2.39891e-19 -0.0163395)
(1.10437e-18 -2.96422e-21 -0.016347)
(1.46516e-18 4.93935e-21 -0.0163541)
(1.6825e-18 -6.27186e-20 -0.0163606)
(1.31125e-18 -4.6059e-19 -0.0163666)
(1.13148e-18 -8.366e-19 -0.0163722)
(1.87407e-18 -5.96795e-19 -0.0163773)
(2.35752e-18 -2.01861e-19 -0.0163819)
(2.11214e-18 -2.2373e-19 -0.016386)
(2.01183e-18 -8.14873e-19 -0.0163897)
(1.94001e-18 -1.12187e-18 -0.016393)
(1.7968e-18 -1.30003e-18 -0.0163958)
(1.8185e-18 -1.57356e-18 -0.0163982)
(1.45558e-18 -1.73583e-18 -0.0164002)
(5.49967e-19 -2.01884e-18 -0.0164018)
(2.39273e-19 -2.32786e-18 -0.016403)
(4.65181e-19 -2.62596e-18 -0.0164037)
(1.99065e-19 -2.52323e-18 -0.0164041)
(-3.51385e-19 -2.14482e-18 -0.0164041)
(-3.73335e-19 -1.72095e-18 -0.0164037)
(-2.72852e-19 -1.54019e-18 -0.016403)
(-7.14203e-19 -1.54506e-18 -0.0164018)
(-1.28187e-18 -1.19777e-18 -0.0164002)
(-1.51726e-18 -6.80386e-19 -0.0163982)
(-1.73748e-18 -4.2252e-19 -0.0163958)
(-1.8486e-18 -3.71337e-19 -0.016393)
(-1.53971e-18 -1.10916e-19 -0.0163897)
(-1.33606e-18 1.15897e-19 -0.016386)
(-1.435e-18 6.5885e-19 -0.0163819)
(-1.50834e-18 1.29082e-18 -0.0163773)
(-1.50387e-18 1.59042e-18 -0.0163722)
(-1.45177e-18 1.24345e-18 -0.0163666)
(-1.11801e-18 9.07653e-19 -0.0163606)
(-1.04176e-18 5.99571e-19 -0.0163541)
(-1.35448e-18 5.00462e-19 -0.016347)
(-1.20996e-18 5.33914e-19 -0.0163395)
(-8.16936e-19 5.41973e-19 -0.0163315)
(-7.8225e-19 6.19712e-19 -0.016323)
(-6.91096e-19 6.6857e-19 -0.0163139)
(-2.31085e-19 8.16692e-19 -0.0163044)
(-3.87488e-20 9.97561e-19 -0.0162943)
(-3.11733e-19 6.00014e-19 -0.0162837)
(-4.74272e-19 1.16794e-19 -0.0162723)
(6.03484e-19 4.432e-19 -0.0162505)
(6.46148e-19 4.96736e-19 -0.0162624)
(5.94922e-19 2.41243e-19 -0.0162735)
(7.60649e-19 -1.8923e-20 -0.016284)
(9.44362e-19 -3.7e-19 -0.016294)
(6.8673e-19 -5.12453e-19 -0.0163035)
(7.12317e-19 -3.90271e-19 -0.0163124)
(1.18381e-18 -2.96941e-19 -0.0163209)
(1.22923e-18 -2.9932e-19 -0.0163288)
(1.34024e-18 -1.81546e-19 -0.0163362)
(1.47193e-18 -4.90444e-20 -0.0163431)
(1.0208e-18 -1.28661e-19 -0.0163495)
(9.59115e-19 -8.45511e-20 -0.0163554)
(1.92789e-18 4.67838e-19 -0.0163608)
(2.36967e-18 4.80429e-19 -0.0163657)
(1.70038e-18 9.3716e-20 -0.0163701)
(1.36369e-18 -5.91418e-19 -0.016374)
(1.47998e-18 -1.13131e-18 -0.0163775)
(1.62584e-18 -1.52666e-18 -0.0163805)
(1.93383e-18 -1.71774e-18 -0.0163831)
(1.56081e-18 -1.91485e-18 -0.0163853)
(3.94194e-19 -1.92102e-18 -0.016387)
(-3.69032e-20 -1.71982e-18 -0.0163883)
(2.762e-19 -1.46527e-18 -0.0163891)
(1.99846e-19 -1.68368e-18 -0.0163895)
(-1.05199e-19 -1.7066e-18 -0.0163895)
(-2.25668e-19 -1.28159e-18 -0.0163891)
(-4.61954e-19 -1.16076e-18 -0.0163883)
(-6.26002e-19 -1.1993e-18 -0.016387)
(-7.71218e-19 -7.1737e-19 -0.0163853)
(-1.14161e-18 -2.15131e-19 -0.0163831)
(-1.56842e-18 6.2383e-20 -0.0163805)
(-1.69332e-18 1.90245e-19 -0.0163775)
(-1.48855e-18 2.98791e-19 -0.016374)
(-1.24441e-18 9.65085e-20 -0.0163701)
(-1.15161e-18 4.66423e-19 -0.0163657)
(-1.31291e-18 6.36532e-19 -0.0163608)
(-1.64546e-18 9.72538e-19 -0.0163554)
(-1.7475e-18 8.78474e-19 -0.0163495)
(-1.44236e-18 9.01322e-19 -0.0163431)
(-1.34335e-18 4.30007e-19 -0.0163362)
(-1.26002e-18 2.40338e-19 -0.0163288)
(-1.03197e-18 2.9596e-19 -0.0163209)
(-7.90367e-19 1.14629e-19 -0.0163125)
(-6.17423e-19 -2.99573e-20 -0.0163035)
(-2.46276e-19 2.13264e-19 -0.016294)
(8.37883e-20 4.86521e-19 -0.016284)
(-1.73368e-19 7.1698e-19 -0.0162735)
(-6.63768e-19 6.77691e-19 -0.0162625)
(-6.15975e-19 1.62575e-19 -0.0162505)
(4.90461e-19 8.79157e-19 -0.0162279)
(4.24197e-19 7.7779e-19 -0.0162403)
(2.66263e-19 3.35882e-19 -0.0162518)
(2.73999e-19 7.18205e-21 -0.0162627)
(5.83301e-19 -2.77952e-19 -0.0162732)
(6.16144e-19 -7.32716e-20 -0.0162831)
(4.90001e-19 8.66995e-20 -0.0162924)
(6.94049e-19 -2.01595e-20 -0.0163012)
(1.0339e-18 -2.16677e-19 -0.0163095)
(1.49784e-18 -1.16953e-19 -0.0163173)
(1.78718e-18 -1.57626e-19 -0.0163245)
(1.3091e-18 -6.01725e-20 -0.0163313)
(1.10909e-18 4.81224e-19 -0.0163375)
(1.79177e-18 7.71948e-19 -0.0163432)
(2.07797e-18 1.93469e-19 -0.0163484)
(1.3286e-18 -2.48692e-19 -0.016353)
(7.79313e-19 -5.39381e-19 -0.0163572)
(8.80124e-19 -7.70583e-19 -0.0163609)
(1.06578e-18 -1.02381e-18 -0.0163642)
(1.40134e-18 -1.39822e-18 -0.0163669)
(1.41278e-18 -1.83371e-18 -0.0163692)
(8.21275e-19 -1.86254e-18 -0.016371)
(6.11336e-19 -1.4194e-18 -0.0163724)
(3.99848e-19 -1.03232e-18 -0.0163733)
(-1.73217e-19 -1.15333e-18 -0.0163738)
(-9.46057e-20 -1.28935e-18 -0.0163738)
(3.87379e-20 -9.44241e-19 -0.0163733)
(-3.40533e-19 -7.25095e-19 -0.0163724)
(-4.08993e-19 -5.77041e-19 -0.016371)
(-4.77408e-19 -2.08548e-19 -0.0163692)
(-1.03522e-18 4.64037e-20 -0.0163669)
(-1.66283e-18 -4.12856e-20 -0.0163642)
(-1.793e-18 4.11129e-20 -0.0163609)
(-1.63672e-18 3.12402e-19 -0.0163572)
(-1.16801e-18 2.91326e-19 -0.016353)
(-1.06554e-18 2.81676e-19 -0.0163484)
(-1.3823e-18 2.68366e-19 -0.0163432)
(-1.62662e-18 5.27247e-19 -0.0163375)
(-1.54699e-18 7.47436e-19 -0.0163313)
(-1.35616e-18 8.94552e-19 -0.0163246)
(-1.48656e-18 7.48388e-19 -0.0163173)
(-1.19168e-18 7.36944e-19 -0.0163095)
(-9.05202e-19 7.82604e-19 -0.0163012)
(-7.07044e-19 5.03774e-19 -0.0162924)
(-2.81879e-19 4.73382e-20 -0.0162831)
(2.34451e-19 -1.43903e-19 -0.0162732)
(2.60527e-19 -1.07951e-19 -0.0162628)
(-3.76771e-19 2.08649e-19 -0.0162518)
(-9.83951e-19 4.1928e-19 -0.0162403)
(-8.26781e-19 3.2887e-19 -0.0162279)
(6.02057e-19 5.11562e-19 -0.0162043)
(2.68457e-19 2.55109e-19 -0.0162172)
(6.40106e-20 -2.70303e-19 -0.0162291)
(1.06609e-20 -2.69362e-19 -0.0162405)
(4.66883e-19 6.06355e-20 -0.0162514)
(7.54638e-19 1.73178e-19 -0.0162617)
(5.24866e-19 -1.79607e-19 -0.0162714)
(4.67065e-19 -2.58464e-20 -0.0162806)
(6.04282e-19 -5.19809e-20 -0.0162893)
(9.80883e-19 -2.99029e-19 -0.0162974)
(1.60525e-18 -5.87656e-19 -0.016305)
(1.80401e-18 -2.88364e-19 -0.016312)
(1.43831e-18 2.20189e-19 -0.0163186)
(1.34059e-18 2.53246e-19 -0.0163245)
(1.62854e-18 -1.81747e-19 -0.01633)
(1.34722e-18 -3.28812e-19 -0.0163349)
(8.42067e-19 -1.62516e-19 -0.0163394)
(7.95203e-19 -2.96009e-19 -0.0163433)
(7.49274e-19 -3.27068e-19 -0.0163467)
(9.30298e-19 -3.97689e-19 -0.0163496)
(1.06634e-18 -8.53812e-19 -0.016352)
(7.92146e-19 -9.12239e-19 -0.016354)
(7.49464e-19 -8.80534e-19 -0.0163554)
(5.12593e-19 -7.88397e-19 -0.0163564)
(-1.67241e-19 -6.79906e-19 -0.0163569)
(-1.83482e-20 -6.84505e-19 -0.0163569)
(2.26864e-19 -5.11081e-19 -0.0163564)
(-2.29125e-19 -2.87926e-19 -0.0163554)
(-2.09924e-19 -1.12191e-19 -0.016354)
(-3.3564e-19 -1.71476e-19 -0.016352)
(-1.34165e-18 -1.46828e-19 -0.0163496)
(-1.9488e-18 -6.6167e-20 -0.0163467)
(-1.54461e-18 2.0923e-19 -0.0163433)
(-1.20383e-18 5.25755e-19 -0.0163394)
(-1.14555e-18 7.21203e-19 -0.0163349)
(-1.31145e-18 4.61178e-19 -0.01633)
(-1.35683e-18 3.75867e-19 -0.0163245)
(-1.36041e-18 5.45271e-19 -0.0163186)
(-1.32812e-18 9.32637e-19 -0.016312)
(-1.40877e-18 9.52979e-19 -0.016305)
(-1.3074e-18 8.81369e-19 -0.0162974)
(-7.59343e-19 9.63196e-19 -0.0162893)
(-7.3959e-19 1.06119e-18 -0.0162806)
(-7.62423e-19 9.81725e-19 -0.0162714)
(-3.10552e-19 5.73527e-19 -0.0162617)
(1.32181e-19 -1.84754e-20 -0.0162514)
(9.26579e-21 -4.53747e-19 -0.0162405)
(-6.76602e-19 -4.11564e-19 -0.0162291)
(-1.03411e-18 -2.29712e-19 -0.0162172)
(-7.2191e-19 2.02896e-20 -0.0162044)
(7.35364e-19 -8.77279e-20 -0.01618)
(3.32443e-19 -5.57917e-19 -0.0161932)
(8.10001e-20 -6.43394e-19 -0.0162056)
(1.90017e-19 -2.58252e-19 -0.0162174)
(2.84903e-19 9.84944e-20 -0.0162287)
(3.31496e-19 -4.53017e-19 -0.0162394)
(5.02642e-19 -7.81173e-19 -0.0162495)
(6.8913e-19 -4.09034e-19 -0.0162591)
(4.44752e-19 -3.03199e-19 -0.0162681)
(5.11795e-19 -2.70142e-19 -0.0162765)
(1.36529e-18 -7.06978e-20 -0.0162845)
(1.97685e-18 1.67692e-19 -0.0162918)
(1.71969e-18 1.77725e-19 -0.0162986)
(1.38537e-18 1.89212e-19 -0.0163049)
(1.53395e-18 3.67212e-20 -0.0163106)
(1.4503e-18 1.28536e-19 -0.0163158)
(7.43899e-19 4.85519e-19 -0.0163205)
(5.93712e-19 -1.41246e-19 -0.0163246)
(7.94755e-19 -2.33023e-19 -0.0163282)
(6.98419e-19 -2.02678e-19 -0.0163312)
(8.22735e-19 -4.89928e-19 -0.0163338)
(7.35016e-19 -1.88943e-19 -0.0163358)
(6.87526e-19 -6.00416e-20 -0.0163374)
(5.58241e-19 -9.77636e-20 -0.0163384)
(-1.93388e-19 -5.66518e-20 -0.0163389)
(-3.18465e-20 5.34897e-20 -0.0163389)
(3.44936e-19 -2.17476e-20 -0.0163384)
(-6.05601e-20 1.03878e-19 -0.0163374)
(-3.72653e-19 2.84625e-19 -0.0163358)
(-7.51352e-19 -1.14047e-19 -0.0163338)
(-1.35196e-18 -2.33095e-19 -0.0163313)
(-1.52624e-18 3.52048e-19 -0.0163282)
(-1.19917e-18 6.70029e-19 -0.0163246)
(-1.13095e-18 8.0109e-19 -0.0163205)
(-1.28454e-18 7.78306e-19 -0.0163158)
(-1.46219e-18 7.59831e-19 -0.0163106)
(-1.30907e-18 8.08345e-19 -0.0163049)
(-1.10569e-18 8.63424e-19 -0.0162986)
(-1.15667e-18 1.16869e-18 -0.0162918)
(-1.38254e-18 9.43151e-19 -0.0162845)
(-1.13865e-18 9.06666e-19 -0.0162766)
(-6.85252e-19 8.43807e-19 -0.0162681)
(-8.08665e-19 6.93819e-19 -0.0162591)
(-7.29484e-19 6.12945e-19 -0.0162495)
(-3.72515e-19 2.72174e-19 -0.0162394)
(-1.80361e-19 -1.89138e-19 -0.0162287)
(-3.75079e-19 -3.83185e-19 -0.0162174)
(-8.47918e-19 -3.35467e-19 -0.0162056)
(-7.92705e-19 -2.49792e-19 -0.0161932)
(-4.37415e-19 -3.08061e-19 -0.01618)
(5.42207e-19 -7.84168e-20 -0.0161548)
(3.83877e-19 -6.36781e-19 -0.0161685)
(2.27799e-19 -4.65881e-19 -0.0161812)
(2.63939e-19 -2.60282e-19 -0.0161934)
(1.05339e-19 -3.14433e-20 -0.0162051)
(-1.11762e-19 -2.26534e-19 -0.0162162)
(2.07589e-19 -1.59181e-19 -0.0162267)
(7.53249e-19 -2.10362e-19 -0.0162366)
(6.5401e-19 -1.12365e-19 -0.016246)
(5.49233e-19 2.99021e-19 -0.0162548)
(1.0993e-18 7.47289e-19 -0.016263)
(1.68407e-18 8.14125e-19 -0.0162706)
(1.55564e-18 6.33041e-19 -0.0162777)
(1.19834e-18 3.68246e-19 -0.0162843)
(1.47711e-18 1.4539e-19 -0.0162903)
(1.85037e-18 7.17749e-20 -0.0162957)
(6.75492e-19 7.12049e-20 -0.0163005)
(4.76155e-20 -4.23135e-19 -0.0163049)
(5.89508e-19 -4.09199e-19 -0.0163086)
(6.08179e-19 -4.16197e-19 -0.0163118)
(9.97156e-19 -3.93443e-19 -0.0163145)
(1.14371e-18 -1.32099e-19 -0.0163167)
(7.84939e-19 2.91289e-19 -0.0163183)
(4.77272e-19 -5.24948e-20 -0.0163193)
(-1.38714e-19 -1.28072e-19 -0.0163199)
(-7.34378e-20 2.13534e-19 -0.0163199)
(2.22268e-19 2.06603e-19 -0.0163193)
(-6.34549e-20 1.66665e-19 -0.0163183)
(-5.71298e-19 3.25497e-20 -0.0163167)
(-1.03864e-18 -2.18173e-19 -0.0163145)
(-1.16807e-18 -2.76392e-19 -0.0163118)
(-1.2291e-18 1.89102e-19 -0.0163086)
(-1.17958e-18 3.52502e-19 -0.0163049)
(-1.23007e-18 4.89289e-19 -0.0163006)
(-1.36407e-18 5.68023e-19 -0.0162957)
(-1.34631e-18 6.3167e-19 -0.0162903)
(-1.0974e-18 1.19435e-18 -0.0162843)
(-9.32924e-19 1.15093e-18 -0.0162778)
(-1.31161e-18 1.22708e-18 -0.0162707)
(-1.6066e-18 9.6472e-19 -0.016263)
(-1.04713e-18 9.02819e-19 -0.0162548)
(-7.48843e-19 7.03972e-19 -0.016246)
(-9.42067e-19 6.26796e-19 -0.0162366)
(-8.62614e-19 4.77575e-19 -0.0162267)
(-5.59283e-19 1.61126e-19 -0.0162162)
(-2.67914e-19 -4.47444e-19 -0.0162051)
(-3.1833e-19 -5.3193e-19 -0.0161935)
(-6.37495e-19 -1.9964e-19 -0.0161812)
(-5.93315e-19 -2.76786e-20 -0.0161685)
(-2.98105e-19 -2.89556e-19 -0.0161548)
(2.24446e-19 -2.44899e-20 -0.0161289)
(6.72406e-20 -2.11257e-19 -0.0161429)
(1.28188e-19 -1.80918e-19 -0.0161561)
(4.32198e-19 -3.29644e-19 -0.0161687)
(4.15114e-19 -1.8169e-19 -0.0161807)
(-6.29849e-22 -3.78946e-19 -0.0161921)
(-1.82137e-19 -2.0992e-19 -0.016203)
(4.0092e-19 -4.08185e-19 -0.0162132)
(7.83402e-19 -1.61347e-19 -0.0162229)
(8.12218e-19 2.13327e-19 -0.0162321)
(1.15362e-18 7.01749e-19 -0.0162406)
(1.60401e-18 8.06603e-19 -0.0162485)
(1.41514e-18 5.54458e-19 -0.0162559)
(9.44308e-19 9.42403e-20 -0.0162627)
(1.06362e-18 6.64947e-20 -0.0162689)
(1.5911e-18 -2.21082e-19 -0.0162746)
(7.43631e-19 -7.02165e-19 -0.0162797)
(1.14341e-19 -5.58061e-19 -0.0162842)
(5.91093e-19 -6.31029e-20 -0.0162881)
(5.62007e-19 -6.20848e-20 -0.0162915)
(9.34343e-19 4.19584e-20 -0.0162943)
(1.35009e-18 -1.8032e-19 -0.0162965)
(7.80195e-19 3.09985e-20 -0.0162982)
(1.62831e-19 -3.16262e-19 -0.0162993)
(-5.35067e-20 -5.40536e-19 -0.0162998)
(1.8068e-19 -2.0553e-19 -0.0162998)
(2.52625e-19 1.44621e-19 -0.0162993)
(-3.43287e-19 2.92022e-20 -0.0162982)
(-9.3713e-19 -2.11593e-19 -0.0162965)
(-1.22614e-18 -3.49035e-19 -0.0162943)
(-1.14816e-18 -5.1369e-19 -0.0162915)
(-1.16917e-18 -7.1837e-19 -0.0162881)
(-1.1389e-18 -4.60393e-19 -0.0162842)
(-1.1722e-18 -1.96938e-19 -0.0162797)
(-1.34533e-18 1.06799e-19 -0.0162746)
(-1.01963e-18 1.84493e-20 -0.0162689)
(-8.0692e-19 6.27696e-19 -0.0162627)
(-1.18676e-18 7.21185e-19 -0.0162559)
(-1.66338e-18 5.19397e-19 -0.0162486)
(-1.59693e-18 6.2561e-19 -0.0162406)
(-1.0147e-18 5.64237e-19 -0.0162321)
(-8.85015e-19 2.70476e-19 -0.0162229)
(-9.2816e-19 8.06501e-19 -0.0162132)
(-7.77691e-19 7.03604e-19 -0.016203)
(-5.96008e-19 3.14859e-19 -0.0161921)
(-3.88484e-19 -2.35782e-19 -0.0161807)
(-2.54508e-19 -5.00405e-19 -0.0161687)
(-4.49944e-19 -1.42893e-19 -0.0161561)
(-4.42229e-19 -1.39027e-20 -0.0161429)
(-2.65188e-19 -8.65957e-20 -0.0161289)
(9.29216e-20 1.40789e-19 -0.0161022)
(5.26641e-22 1.56807e-19 -0.0161166)
(-3.07716e-19 -1.58144e-20 -0.0161301)
(-4.58742e-20 -1.32899e-19 -0.0161431)
(2.71186e-19 -4.76273e-19 -0.0161554)
(1.94519e-19 -1.01531e-18 -0.0161672)
(-1.59053e-20 -7.66869e-19 -0.0161784)
(2.92334e-19 -4.68779e-19 -0.016189)
(8.43477e-19 -1.35799e-19 -0.0161991)
(1.01437e-18 7.13029e-20 -0.0162085)
(1.31087e-18 2.90838e-19 -0.0162173)
(1.57292e-18 2.12107e-19 -0.0162256)
(1.28473e-18 -2.20922e-19 -0.0162332)
(9.32201e-19 -4.05653e-19 -0.0162403)
(1.01078e-18 -1.22215e-21 -0.0162467)
(1.26471e-18 -6.64931e-20 -0.0162526)
(6.811e-19 -5.69612e-19 -0.0162578)
(4.81085e-19 -2.79519e-19 -0.0162625)
(7.93217e-19 1.83081e-19 -0.0162666)
(5.34065e-19 1.72231e-19 -0.0162701)
(7.24227e-19 4.03018e-19 -0.016273)
(1.13417e-18 1.44494e-19 -0.0162753)
(7.33015e-19 -1.34105e-19 -0.0162771)
(-5.14454e-20 -1.26419e-19 -0.0162783)
(-1.39459e-19 -2.39446e-19 -0.0162788)
(4.48245e-19 -1.54046e-19 -0.0162788)
(3.53151e-19 4.95455e-20 -0.0162783)
(-5.28405e-19 2.89057e-21 -0.0162771)
(-1.10142e-18 2.54884e-21 -0.0162753)
(-1.43485e-18 1.30174e-19 -0.016273)
(-1.55866e-18 -2.05113e-19 -0.0162701)
(-1.31298e-18 -6.15371e-19 -0.0162666)
(-8.96608e-19 -5.79223e-19 -0.0162625)
(-9.60286e-19 -4.5043e-19 -0.0162578)
(-1.27143e-18 -4.8678e-20 -0.0162526)
(-9.04098e-19 -1.01432e-19 -0.0162467)
(-7.18287e-19 1.86572e-19 -0.0162403)
(-1.42646e-18 2.9942e-19 -0.0162332)
(-1.74445e-18 5.03234e-20 -0.0162256)
(-1.44188e-18 3.45945e-19 -0.0162173)
(-1.06885e-18 4.4107e-19 -0.0162085)
(-6.13423e-19 -1.03906e-19 -0.0161991)
(-5.12276e-19 5.65145e-19 -0.016189)
(-9.25658e-19 7.155e-19 -0.0161784)
(-8.73132e-19 2.74909e-19 -0.0161672)
(-3.41302e-19 1.1895e-19 -0.0161554)
(-6.14248e-21 -1.37295e-19 -0.0161431)
(-1.67469e-19 1.18929e-19 -0.0161301)
(-2.4301e-19 1.58222e-19 -0.0161166)
(-3.6846e-19 -9.98258e-21 -0.0161022)
(-3.86548e-20 2.46929e-19 -0.0160749)
(3.07212e-20 -5.42024e-21 -0.0160896)
(-1.75338e-19 -9.19679e-20 -0.0161034)
(-3.89482e-19 -3.73405e-20 -0.0161167)
(-2.91127e-19 -7.18902e-19 -0.0161294)
(-8.66702e-20 -9.16668e-19 -0.0161416)
(1.28102e-19 -7.20831e-19 -0.0161531)
(2.40357e-19 9.43196e-20 -0.016164)
(6.58151e-19 4.17941e-19 -0.0161743)
(8.33856e-19 4.05022e-19 -0.0161841)
(1.10642e-18 2.58736e-19 -0.0161932)
(1.35502e-18 -1.05643e-19 -0.0162017)
(1.29706e-18 -8.30351e-19 -0.0162096)
(1.15434e-18 -3.26371e-19 -0.0162169)
(1.1709e-18 1.33129e-19 -0.0162236)
(1.11761e-18 1.79088e-19 -0.0162296)
(6.10767e-19 -3.67357e-19 -0.0162351)
(5.68835e-19 -1.83022e-19 -0.01624)
(8.66609e-19 8.55565e-20 -0.0162442)
(6.76687e-19 6.11213e-20 -0.0162478)
(7.88861e-19 2.96791e-19 -0.0162509)
(8.84867e-19 1.59847e-19 -0.0162533)
(6.04164e-19 -1.94203e-19 -0.0162551)
(2.58133e-20 -7.53439e-20 -0.0162563)
(-1.68887e-19 -8.94553e-20 -0.0162569)
(3.80813e-19 2.1943e-19 -0.0162569)
(3.03195e-19 -1.38185e-19 -0.0162563)
(-5.6822e-19 -1.52538e-19 -0.0162551)
(-1.05386e-18 -1.86308e-19 -0.0162533)
(-1.56427e-18 2.10639e-19 -0.0162509)
(-1.81159e-18 3.9604e-20 -0.0162478)
(-1.37804e-18 -2.93254e-20 -0.0162442)
(-9.44691e-19 -9.19599e-20 -0.01624)
(-8.76343e-19 -4.03836e-19 -0.0162351)
(-1.10993e-18 -9.20358e-20 -0.0162297)
(-7.17317e-19 -1.34651e-19 -0.0162236)
(-6.90883e-19 9.0695e-20 -0.0162169)
(-1.68968e-18 1.62258e-19 -0.0162096)
(-1.68679e-18 2.55114e-19 -0.0162017)
(-1.10065e-18 3.35815e-19 -0.0161932)
(-9.28608e-19 6.88606e-19 -0.0161841)
(-4.88511e-19 1.3694e-19 -0.0161743)
(-5.12541e-19 2.04706e-19 -0.016164)
(-1.0699e-18 6.67143e-19 -0.0161531)
(-5.90061e-19 4.34033e-19 -0.0161416)
(7.73649e-20 3.3138e-19 -0.0161294)
(2.36188e-19 2.68365e-19 -0.0161167)
(-3.97786e-20 4.27496e-19 -0.0161035)
(-3.92685e-19 2.24058e-19 -0.0160896)
(-6.18229e-19 -1.90002e-19 -0.0160749)
(3.32578e-20 7.21312e-20 -0.0160468)
(-1.057e-19 -1.84354e-19 -0.0160618)
(-1.69613e-19 -1.57404e-19 -0.016076)
(-4.75995e-19 -2.94087e-19 -0.0160897)
(-4.71837e-19 -9.32604e-19 -0.0161027)
(-2.55939e-19 -6.96395e-19 -0.0161151)
(2.64871e-19 -3.31623e-19 -0.016127)
(5.21871e-19 4.50836e-19 -0.0161382)
(5.82033e-19 5.76405e-19 -0.0161488)
(5.12272e-19 7.87129e-19 -0.0161589)
(6.14276e-19 7.54196e-19 -0.0161682)
(6.65211e-19 1.53234e-19 -0.016177)
(1.10523e-18 -3.03974e-19 -0.0161852)
(1.51563e-18 1.18442e-19 -0.0161927)
(1.27958e-18 5.2936e-19 -0.0161996)
(8.93433e-19 4.41733e-19 -0.0162059)
(3.80159e-19 -1.04139e-19 -0.0162115)
(6.80587e-19 -3.27913e-21 -0.0162165)
(8.97979e-19 2.73448e-19 -0.0162209)
(6.69313e-19 1.61209e-20 -0.0162247)
(7.56088e-19 1.80229e-19 -0.0162278)
(7.47786e-19 7.20117e-20 -0.0162303)
(5.51773e-19 8.31792e-21 -0.0162322)
(-9.6077e-21 3.96028e-20 -0.0162334)
(1.59617e-20 2.75361e-20 -0.0162341)
(3.73927e-19 3.79584e-19 -0.0162341)
(-1.78533e-20 -2.78072e-19 -0.0162334)
(-7.56267e-19 -4.41649e-19 -0.0162322)
(-1.0455e-18 -2.60538e-19 -0.0162303)
(-1.5044e-18 -6.19046e-20 -0.0162278)
(-1.85715e-18 -1.22171e-19 -0.0162247)
(-1.33197e-18 -1.33952e-19 -0.0162209)
(-1.10022e-18 -1.75074e-19 -0.0162165)
(-1.03056e-18 -6.02893e-19 -0.0162115)
(-1.08506e-18 -3.47317e-19 -0.0162059)
(-6.65159e-19 -2.41969e-19 -0.0161996)
(-8.27373e-19 -5.14387e-19 -0.0161927)
(-1.69147e-18 -2.63476e-19 -0.0161852)
(-1.40284e-18 2.06084e-19 -0.016177)
(-7.98399e-19 4.97708e-19 -0.0161682)
(-8.32774e-19 7.88152e-19 -0.0161589)
(-5.68245e-19 3.89224e-19 -0.0161488)
(-4.36621e-19 -8.51431e-20 -0.0161382)
(-7.67263e-19 5.26644e-19 -0.016127)
(-3.2026e-19 7.93366e-19 -0.0161151)
(1.53472e-19 2.91869e-19 -0.0161027)
(2.32646e-19 7.01317e-20 -0.0160897)
(-3.29171e-19 2.09466e-19 -0.016076)
(-8.91083e-19 -1.81507e-19 -0.0160618)
(-5.83932e-19 -4.24699e-19 -0.0160468)
(-1.3868e-20 -5.17448e-20 -0.016018)
(-4.19613e-20 -1.71798e-19 -0.0160334)
(-9.45694e-20 -3.0036e-19 -0.0160479)
(-7.57642e-19 -3.72671e-19 -0.0160619)
(-8.4364e-19 -6.19084e-19 -0.0160752)
(-4.39057e-19 -3.83814e-20 -0.016088)
(8.08448e-20 5.39994e-19 -0.0161001)
(5.81237e-19 3.11102e-19 -0.0161117)
(8.06287e-19 4.75355e-19 -0.0161226)
(7.19221e-19 1.08261e-18 -0.0161329)
(3.7076e-19 1.03144e-18 -0.0161425)
(2.2534e-19 5.98882e-19 -0.0161515)
(6.928e-19 5.44136e-19 -0.0161599)
(1.48665e-18 7.23608e-19 -0.0161677)
(1.39273e-18 1.00718e-18 -0.0161748)
(7.59525e-19 4.2679e-19 -0.0161812)
(1.77665e-19 2.13755e-19 -0.0161871)
(6.11542e-19 5.82534e-19 -0.0161922)
(7.83702e-19 5.60703e-19 -0.0161968)
(5.61713e-19 2.58864e-19 -0.0162006)
(7.78005e-19 4.19606e-19 -0.0162039)
(7.32777e-19 3.49601e-19 -0.0162065)
(5.44459e-19 3.07582e-19 -0.0162084)
(2.68951e-21 -9.3252e-20 -0.0162097)
(3.58099e-20 1.75295e-19 -0.0162103)
(1.17327e-19 3.88904e-19 -0.0162103)