/*--------------------------------*- C++ -*----------------------------------*\
  =========                 |
  \\      /  F ield         | OpenFOAM: The Open Source CFD Toolbox
   \\    /   O peration     | Website:  https://openfoam.org
    \\  /    A nd           | Version:  7
     \\/     M anipulation  |
\*---------------------------------------------------------------------------*/
FoamFile
{
    version     2.0;
    format      ascii;
    class       surfaceScalarField;
    location    "152000";
    object      phi;
}
// * * * * * * * * * * * * * * * * * * * * * * * * * * * * * * * * * * * * * //

dimensions      [0 3 -1 0 0 0 0];

internalField   nonuniform List<scalar> 
9474
(
3.57531e-24
-2.88006e-23
-1.54028e-24
-8.1999e-23
6.83088e-24
8.0439e-23
2.94593e-23
1.94189e-24
3.68437e-23
5.67134e-25
6.71486e-25
5.42914e-23
3.70949e-25
9.22447e-23
-3.72394e-24
4.76152e-23
2.7695e-24
2.03541e-22
6.49897e-24
1.67922e-22
8.93022e-24
-1.97741e-23
1.06356e-23
4.24304e-23
1.2602e-23
-5.75693e-23
5.69695e-24
7.48712e-23
1.50043e-25
-1.89404e-23
7.9095e-24
1.10566e-22
2.31319e-24
-1.18302e-22
6.49375e-24
4.3289e-23
3.30425e-24
-2.31208e-23
-1.08811e-24
-8.08873e-23
6.57175e-24
5.85564e-23
1.1046e-23
1.62841e-23
6.27837e-24
-9.578e-23
7.42979e-25
-1.0995e-22
-5.20862e-26
9.24264e-24
1.25558e-24
8.72682e-24
-3.17733e-24
-8.16637e-23
-1.74997e-24
1.78664e-23
-2.46738e-24
-9.63692e-23
-6.0215e-24
-3.02779e-23
-6.50421e-24
-1.39419e-23
-6.45534e-24
-3.20688e-23
-6.44646e-24
-6.03865e-23
-7.81095e-24
-4.82101e-24
-7.91726e-24
1.3704e-22
-8.52777e-25
1.18207e-22
1.33056e-24
1.00615e-22
3.87272e-24
1.83044e-24
6.60634e-24
-3.74354e-26
1.13671e-24
7.69092e-23
3.26955e-25
5.54126e-23
-3.5595e-24
8.05933e-23
2.71293e-24
1.97499e-22
5.88567e-24
9.56756e-23
8.59422e-24
4.11135e-23
1.05192e-23
7.9769e-23
1.2715e-23
-6.14158e-23
5.74979e-24
3.76518e-23
-4.52883e-25
-2.75686e-23
7.78985e-24
1.3135e-22
2.06493e-24
-1.74498e-22
6.29156e-24
3.25293e-23
3.00774e-24
-4.4511e-23
-9.53048e-25
-9.39924e-23
6.61415e-24
3.53664e-23
1.03982e-23
-5.54922e-25
6.50109e-24
-9.90708e-23
7.83187e-25
-1.01263e-22
-2.46472e-25
1.38862e-23
1.19134e-24
1.69778e-23
-3.20685e-24
-7.01859e-23
-1.80594e-24
2.88045e-23
-2.62047e-24
-6.22065e-23
-5.77169e-24
-2.8724e-23
-6.67485e-24
-7.29835e-23
-6.44717e-24
-3.30022e-23
-6.18691e-24
-2.87588e-23
-7.3919e-24
-9.64307e-24
-7.9844e-24
1.06647e-22
-7.82676e-25
1.23881e-22
9.34134e-25
9.1955e-23
-2.50127e-24
2.72337e-24
-2.01118e-24
9.05071e-23
5.82238e-24
8.48214e-23
6.19407e-24
1.85977e-23
5.03203e-24
2.87522e-23
1.79635e-24
-5.58735e-23
9.34405e-25
5.36546e-23
1.4031e-22
1.6826e-24
-3.2105e-23
-1.42836e-25
1.10744e-24
4.70158e-23
2.9033e-25
5.62011e-23
-3.37115e-24
1.03661e-22
2.08303e-24
1.84321e-22
5.72931e-24
5.23166e-23
8.0885e-24
7.15196e-23
1.01084e-23
8.59632e-23
1.31322e-23
-3.06254e-24
5.74924e-24
7.55261e-23
-7.64956e-25
-4.33528e-23
7.48881e-24
1.77718e-22
1.97015e-24
-1.65624e-22
5.75722e-24
4.88282e-25
2.925e-24
-4.44517e-23
-1.03611e-24
-9.41907e-23
6.44952e-24
3.99012e-23
9.99331e-24
-1.17702e-24
6.6557e-24
-1.02599e-22
8.72404e-25
-7.36954e-23
-3.34157e-25
-2.30496e-23
1.01258e-24
1.44411e-23
-3.24035e-24
-6.0859e-23
-1.78855e-24
9.92425e-25
-2.914e-24
-5.79969e-23
-5.75651e-24
-2.89774e-23
-6.62832e-24
-7.05411e-23
-6.28e-24
-3.47658e-23
-6.02835e-24
-2.67951e-23
-7.10883e-24
3.14006e-24
-7.90921e-24
1.18326e-22
-8.80235e-25
1.17234e-22
7.65723e-25
9.91944e-23
-2.20932e-24
-4.48331e-24
-2.22086e-24
8.83968e-23
6.10649e-24
1.13342e-22
5.8894e-24
3.72688e-24
5.17227e-24
7.34206e-23
1.91144e-24
-8.24384e-23
9.16115e-25
3.51511e-23
1.29664e-23
1.29192e-22
7.44852e-24
2.8391e-23
-1.75503e-24
-8.75253e-23
-1.14035e-24
2.23353e-24
-2.87988e-23
2.33241e-25
1.30087e-24
6.08071e-23
7.43692e-25
9.37319e-23
-3.57137e-24
7.30067e-23
1.30962e-24
1.68684e-22
6.24769e-24
3.09047e-23
7.69406e-24
6.19975e-23
9.81922e-24
6.93853e-23
1.34314e-23
2.69757e-23
5.36307e-24
7.8071e-23
-7.03571e-25
-4.56392e-23
6.65124e-24
1.60067e-22
2.19644e-24
-1.65478e-22
5.49831e-24
1.99263e-23
2.6431e-24
-5.41194e-23
-1.02478e-24
-5.95749e-23
6.09303e-24
3.49724e-23
9.48669e-24
1.29728e-23
7.11705e-24
-1.05629e-22
6.91083e-25
-1.04092e-22
-3.99589e-25
-1.71159e-23
9.96509e-25
2.94843e-24
-3.45306e-24
-6.25082e-23
-1.60148e-24
-1.34217e-23
-3.27362e-24
-8.55272e-23
-5.68741e-24
6.72836e-24
-6.6341e-24
-6.6383e-23
-6.08031e-24
-3.72472e-23
-5.80081e-24
-2.649e-23
-6.94046e-24
-1.63503e-23
-7.75874e-24
8.33747e-23
-9.58043e-25
1.18525e-22
5.73941e-25
9.50946e-23
-1.82424e-24
-4.19503e-24
-2.36205e-24
3.70381e-23
5.97219e-24
1.43887e-22
6.25618e-24
-1.22285e-23
4.62644e-24
5.09289e-23
2.22049e-24
-2.26992e-23
1.13208e-24
3.62128e-23
1.32519e-23
1.21502e-22
7.24211e-24
-1.99713e-24
-1.65931e-24
-7.57146e-23
-3.26446e-23
2.15137e-24
-2.79824e-23
-7.02338e-27
1.50104e-24
2.36255e-23
5.4641e-25
3.3495e-23
-3.58293e-24
9.52069e-23
5.58546e-25
7.19693e-23
6.49986e-24
8.22429e-23
7.16694e-24
7.18499e-23
1.00331e-23
6.06252e-23
1.3354e-23
8.13288e-23
5.43362e-24
7.89212e-23
-7.0985e-25
-4.26014e-23
5.80632e-24
1.37655e-22
2.36551e-24
-1.37074e-22
5.18209e-24
3.55592e-23
2.45674e-24
-8.0791e-23
-9.65484e-25
-7.08734e-23
6.00033e-24
4.47509e-23
9.03892e-24
-2.83283e-23
7.17216e-24
-8.9253e-23
7.34099e-25
-1.35865e-22
-3.78925e-25
-6.22917e-24
9.81632e-25
-3.20124e-23
-3.64431e-24
-3.52651e-23
-1.46286e-24
1.4447e-23
-3.31358e-24
-7.63825e-23
-5.77733e-24
2.19758e-23
-6.69371e-24
-4.96232e-23
-5.92117e-24
-4.43176e-23
-5.68031e-24
-1.12272e-23
-6.8256e-24
-2.22212e-23
-7.4421e-24
4.43284e-23
-1.17574e-24
1.19244e-22
4.6231e-25
9.72371e-23
-1.96293e-24
-1.52327e-23
-2.37207e-24
3.38486e-23
6.0081e-24
1.16851e-22
6.35655e-24
-1.12819e-23
4.79563e-24
2.83506e-23
2.10909e-24
-1.96208e-23
1.32084e-24
1.00674e-24
1.29565e-23
1.14075e-22
7.45353e-24
-3.78541e-23
-1.38011e-24
-6.78195e-23
-9.2503e-23
2.19212e-24
-2.73062e-23
-9.51942e-26
1.80533e-24
7.51255e-23
5.05995e-25
3.12528e-23
-3.87328e-24
6.30906e-23
3.7986e-25
9.50223e-23
6.22409e-24
7.93687e-23
6.87563e-24
5.17793e-23
1.0397e-23
9.0838e-23
1.29824e-23
6.52225e-24
5.74362e-24
3.98336e-23
-9.59599e-25
-6.34418e-23
5.38142e-24
1.20962e-22
2.30858e-24
-1.06381e-22
5.00942e-24
3.93487e-23
2.56476e-24
-8.43024e-23
-9.1361e-25
-5.17137e-23
5.64122e-24
4.40425e-23
8.91479e-24
-1.505e-23
6.92657e-24
-4.93488e-23
1.05647e-24
-1.09104e-22
-5.76518e-25
1.76406e-24
1.19728e-24
-3.77904e-23
-3.90411e-24
-5.32082e-23
-1.42437e-24
1.92828e-23
-3.32265e-24
-6.77195e-23
-5.83584e-24
2.35157e-23
-6.85895e-24
-4.32622e-23
-5.67106e-24
-3.55187e-23
-5.49976e-24
-1.29351e-23
-6.93932e-24
-5.95886e-23
-6.9412e-24
7.62733e-23
-1.3297e-24
7.92407e-23
2.52605e-25
9.78486e-23
-1.9204e-24
-7.73872e-24
-2.32221e-24
-3.50967e-24
5.61153e-24
1.06146e-22
6.31059e-24
-6.43542e-24
5.02018e-24
5.4459e-24
1.94516e-24
1.11754e-23
1.47653e-24
1.17284e-23
1.27361e-23
1.49586e-22
7.79808e-24
8.50803e-24
-1.36245e-24
-7.22473e-23
-9.23015e-23
2.55328e-24
-2.61619e-23
2.04279e-26
1.74941e-24
1.07956e-23
6.32982e-25
3.31969e-23
-3.97536e-24
7.25254e-23
4.41338e-27
8.45392e-23
5.89254e-24
6.98039e-23
6.89288e-24
3.62301e-23
1.02884e-23
1.21028e-22
1.30726e-23
2.0454e-23
5.65912e-24
7.31648e-23
-1.13983e-24
-8.64509e-23
5.08266e-24
1.15247e-22
2.14275e-24
-1.78944e-22
4.62009e-24
4.33605e-23
2.70566e-24
-7.32364e-23
-9.64685e-25
-4.2791e-23
5.24512e-24
5.31406e-23
8.7194e-24
-3.84354e-24
6.77241e-24
-4.4306e-23
1.15096e-24
-1.04919e-22
-7.29067e-25
-2.88506e-23
1.36074e-24
-4.64883e-23
-4.03518e-24
-5.56996e-23
-1.39894e-24
2.16058e-23
-3.35407e-24
-7.43603e-23
-5.88218e-24
2.64612e-23
-7.04613e-24
-2.43716e-23
-5.45613e-24
-3.7908e-24
-5.51958e-24
-2.71681e-23
-6.65885e-24
-6.16286e-23
-6.69042e-24
7.17746e-23
-1.3811e-24
6.58449e-23
3.59772e-25
9.40844e-23
-2.15676e-24
-3.2526e-23
-2.14643e-24
3.19289e-23
5.82501e-24
1.02312e-22
5.96861e-24
-2.68433e-24
5.24448e-24
6.4719e-25
1.80968e-24
9.43239e-24
1.57613e-24
3.63766e-23
1.28512e-23
1.38168e-22
7.65596e-24
1.19981e-23
-1.21289e-24
-1.17886e-22
-4.68336e-24
-7.07329e-23
-4.68766e-23
2.71025e-24
-1.17918e-23
5.83974e-26
1.85241e-24
1.25446e-23
2.88289e-25
-1.03131e-23
-3.87175e-24
7.92831e-23
-5.30804e-25
8.9275e-23
5.87965e-24
5.22652e-23
7.04522e-24
5.0465e-23
9.87139e-24
1.47496e-22
1.3078e-23
4.05769e-23
5.48566e-24
5.59724e-23
-1.46358e-24
-9.68052e-23
4.62162e-24
1.15799e-22
2.12874e-24
-1.60177e-22
4.42381e-24
6.12116e-23
2.58908e-24
-9.54532e-23
-8.9332e-25
-4.66113e-23
5.05943e-24
3.96839e-23
8.60781e-24
5.79425e-23
6.7315e-24
-3.7914e-23
1.12032e-24
-1.17877e-22
-8.38421e-25
-3.22511e-23
1.48529e-24
-1.25216e-23
-4.0759e-24
-8.83193e-23
-1.42408e-24
3.17034e-23
-3.27368e-24
-7.3513e-23
-5.91178e-24
-5.49066e-24
-7.10816e-24
-4.45778e-24
-5.47088e-24
-5.24977e-24
-5.42155e-24
-2.47486e-23
-6.48952e-24
-5.99965e-23
-6.49432e-24
1.02177e-22
-1.55694e-24
6.86702e-23
5.9402e-26
7.79416e-23
-2.08507e-24
-1.1865e-23
-2.21589e-24
7.96349e-24
5.90882e-24
1.27107e-22
5.84757e-24
-9.78074e-24
5.66347e-24
-6.56079e-24
1.6904e-24
-4.2618e-23
1.91585e-24
8.65135e-23
1.28976e-23
1.61602e-22
7.58627e-24
-1.73395e-23
-1.10766e-24
-1.64106e-22
-4.53634e-24
-6.75004e-23
-5.42156e-23
2.82205e-24
1.75714e-24
8.39288e-26
1.92938e-24
-1.72353e-24
2.35103e-25
-8.04513e-23
-3.85707e-24
5.38833e-23
-1.12135e-24
1.14871e-22
5.99931e-24
1.05361e-22
6.95024e-24
4.78707e-23
9.97895e-24
1.3853e-22
1.2761e-23
6.44907e-23
5.45533e-24
5.20557e-23
-1.24583e-24
-1.46763e-22
4.03208e-24
9.75467e-23
2.52601e-24
-1.42833e-22
3.86784e-24
5.9677e-24
2.71731e-24
-9.30679e-23
-9.52151e-25
-4.9189e-23
4.88405e-24
3.62686e-23
8.37707e-24
6.04908e-23
6.48402e-24
-6.02186e-23
1.09147e-24
-1.13722e-22
-7.32988e-25
-2.03051e-23
1.28627e-24
2.01584e-23
-3.94635e-24
-6.3278e-23
-1.49331e-24
1.93406e-23
-3.29633e-24
-7.18267e-23
-5.77724e-24
-1.74293e-23
-7.26994e-24
-2.83874e-24
-5.40384e-24
-1.23495e-23
-5.3134e-24
-2.47149e-23
-6.28265e-24
-5.95406e-23
-6.34822e-24
7.80471e-23
-1.66443e-24
7.27073e-23
9.09123e-26
9.58114e-23
-2.1731e-24
-1.62358e-23
-2.19116e-24
3.21748e-23
5.79696e-24
1.53719e-22
5.90345e-24
2.35116e-23
5.76265e-24
3.43919e-24
1.77193e-24
-5.68817e-23
1.77868e-24
1.08026e-22
1.28159e-23
1.44755e-22
7.48303e-24
-2.53864e-23
-8.59328e-25
-1.52214e-22
-4.61093e-24
-6.29592e-23
-6.07345e-23
2.70929e-24
3.26565e-23
-1.31451e-25
1.82087e-24
1.56357e-23
5.50749e-25
-7.68137e-23
-4.11829e-24
5.86816e-23
-1.41431e-24
1.08077e-22
5.87924e-24
1.26845e-22
6.9301e-24
4.34345e-23
9.84154e-24
1.47089e-22
1.24907e-23
5.22612e-23
5.15948e-24
3.68553e-23
-1.59953e-24
-1.48829e-22
3.69102e-24
1.142e-22
2.4826e-24
-1.0648e-22
4.03219e-24
-3.10856e-23
2.50982e-24
-8.3689e-23
-7.5691e-25
-3.23294e-23
4.70662e-24
-2.62895e-24
8.25561e-24
7.64804e-23
6.20104e-24
-9.24722e-23
1.15014e-24
-1.04249e-22
-5.57632e-25
-1.77813e-23
1.13138e-24
1.27963e-23
-3.89991e-24
-1.14202e-22
-1.54145e-24
1.60613e-23
-3.30104e-24
-7.61863e-23
-5.63693e-24
-1.26901e-23
-7.46087e-24
2.04397e-23
-5.4047e-24
2.26847e-23
-5.19814e-24
1.01384e-23
-6.10185e-24
-6.04948e-23
-6.15935e-24
7.10596e-23
-1.8115e-24
6.56239e-23
-2.71188e-26
9.08546e-23
-2.18706e-24
-1.74403e-23
-1.97127e-24
1.35009e-23
5.4471e-24
1.63385e-22
5.664e-24
3.61977e-23
6.00175e-24
6.1745e-23
2.24444e-24
-3.89774e-23
1.88318e-24
1.19529e-22
1.25976e-23
1.56546e-22
7.61698e-24
-1.85448e-23
-8.27057e-25
-1.58798e-22
-4.4903e-24
-7.5875e-23
2.82331e-24
5.06102e-23
-1.48465e-25
1.75224e-24
1.42266e-24
6.08257e-25
-9.25823e-23
-3.94929e-24
8.02316e-23
-1.7702e-24
8.59383e-23
5.86235e-24
1.03265e-22
6.73901e-24
3.94402e-23
9.61329e-24
1.52507e-22
1.25592e-23
5.56537e-23
4.91896e-24
6.35335e-23
-1.68626e-24
-1.46285e-22
3.5094e-24
1.12139e-22
2.14228e-24
-1.10465e-22
3.89095e-24
-2.59297e-23
2.45956e-24
-5.10002e-23
-7.85428e-25
-2.07124e-23
4.6453e-24
-3.82556e-23
7.887e-24
3.9977e-23
6.08341e-24
-1.01946e-22
1.26967e-24
-6.33285e-23
-4.54411e-25
-1.8667e-23
8.0515e-25
1.13397e-23
-3.73325e-24
-1.01381e-22
-1.62343e-24
1.55295e-23
-3.25219e-24
-8.20137e-23
-5.4603e-24
-1.08723e-23
-7.57388e-24
-1.63703e-23
-5.4202e-24
2.0791e-23
-5.10857e-24
2.50786e-23
-6.01472e-24
-7.4086e-23
-6.00073e-24
5.21879e-23
-1.75337e-24
6.4335e-23
-1.00875e-25
1.28351e-22
-2.11232e-24
-8.36728e-24
-1.84676e-24
2.66963e-24
5.33895e-24
1.57135e-22
5.75165e-24
4.92022e-23
5.97244e-24
6.78719e-23
2.2174e-24
-3.80869e-23
1.96106e-24
1.29142e-22
1.2167e-23
1.10104e-22
7.50816e-24
-1.29768e-23
-5.93984e-25
-1.941e-22
-5.71024e-23
2.78387e-24
2.2359e-23
-5.57642e-25
1.49773e-24
-3.01967e-23
8.96334e-25
-7.80842e-23
-3.87043e-24
2.64216e-23
-2.29313e-24
1.16579e-22
5.85036e-24
1.53716e-22
6.76647e-24
6.65762e-23
9.15681e-24
1.55943e-22
1.24052e-23
1.22086e-22
4.65274e-24
1.44479e-23
-1.80685e-24
-1.11166e-22
3.44389e-24
1.12436e-22
1.83612e-24
-7.76504e-23
4.06967e-24
-4.03264e-23
2.11185e-24
-1.78348e-23
-7.93023e-25
-1.49457e-23
4.54933e-24
-5.60033e-23
7.77491e-24
8.4187e-23
5.9452e-24
-9.16761e-23
1.16385e-24
-7.09927e-23
-4.30339e-25
-3.58916e-23
5.1253e-25
1.01319e-23
-3.55652e-24
-7.89901e-23
-1.76699e-24
1.30901e-23
-3.14465e-24
-7.46923e-23
-5.44051e-24
-2.83881e-23
-7.50405e-24
-8.50553e-24
-5.37055e-24
2.21697e-23
-5.13833e-24
2.87604e-23
-5.81701e-24
-9.01538e-23
-5.79284e-24
3.55427e-23
-1.59834e-24
6.23489e-23
-3.19893e-25
1.15547e-22
-2.24297e-24
-9.18591e-25
-1.70477e-24
6.65888e-24
5.28523e-24
1.36217e-22
5.57573e-24
4.72468e-23
6.03618e-24
4.36525e-23
2.02274e-24
-5.62836e-23
1.86506e-24
1.01945e-22
1.23061e-23
1.69354e-22
7.25254e-24
-7.95125e-23
-1.37367e-25
-1.8718e-22
-1.1107e-22
2.80506e-24
5.63453e-24
-6.80444e-25
1.36182e-24
-3.0491e-23
7.48391e-25
-7.89936e-23
-3.64509e-24
5.98986e-23
-2.62647e-24
7.00158e-23
5.83275e-24
2.0164e-22
6.66407e-24
3.55898e-23
9.07811e-24
1.61743e-22
1.20656e-23
1.15024e-22
4.50545e-24
1.55526e-23
-2.09517e-24
-1.25046e-22
3.20858e-24
1.08361e-22
1.80646e-24
-7.70673e-23
4.18541e-24
-7.15063e-23
1.79091e-24
-2.8918e-23
-8.72581e-25
-7.4767e-24
4.37005e-24
-4.07512e-23
7.59693e-24
1.05998e-22
5.91257e-24
-1.14529e-22
1.08317e-24
-7.19286e-23
-3.1229e-25
-3.12987e-23
2.43062e-25
1.27528e-23
-3.42656e-24
-7.2858e-23
-1.83699e-24
-3.68537e-24
-3.11188e-24
-8.00509e-23
-5.41632e-24
-1.63013e-23
-7.43235e-24
7.0604e-25
-5.3493e-24
2.42067e-23
-5.22087e-24
2.30231e-23
-5.64309e-24
-9.22673e-23
-5.68778e-24
3.42025e-23
-1.49765e-24
5.99635e-23
-4.71387e-25
8.92299e-23
-2.25359e-24
-2.08401e-23
-1.66115e-24
-1.59943e-23
5.12018e-24
1.32298e-22
5.45002e-24
3.03565e-23
6.1213e-24
4.63692e-23
2.136e-24
-6.96642e-23
1.94964e-24
1.17056e-22
1.19042e-23
1.54838e-22
7.31642e-24
-5.51662e-23
-7.65754e-26
-2.09354e-22
-6.26896e-23
2.80046e-24
-2.53413e-23
-5.07188e-25
1.3729e-24
-4.87043e-23
9.67442e-25
-5.06192e-23
-3.56818e-24
6.11428e-23
-2.6402e-24
6.94539e-23
5.60141e-24
1.88025e-22
6.59712e-24
6.2158e-23
9.24256e-24
1.97768e-22
1.16512e-23
1.07474e-22
4.34747e-24
1.84542e-23
-2.05403e-24
-1.2055e-22
2.63877e-24
8.77023e-23
1.51481e-24
-7.56859e-23
4.45617e-24
-8.77911e-23
1.54054e-24
-2.46046e-23
-8.77466e-25
-1.78746e-23
4.27779e-24
-2.7831e-23
7.2644e-24
9.34941e-23
5.78697e-24
-9.00796e-23
1.12698e-24
-7.35213e-23
-2.49514e-25
-2.54202e-23
-6.85986e-27
1.4219e-23
-3.38642e-24
-4.23285e-23
-1.91925e-24
-9.85011e-24
-2.99748e-24
-7.30115e-23
-5.37808e-24
-3.50198e-23
-7.33936e-24
6.34655e-24
-5.41087e-24
4.17995e-23
-5.23995e-24
2.48197e-23
-5.58764e-24
-9.655e-23
-5.35673e-24
2.90397e-23
-1.50195e-24
5.88163e-23
-6.52128e-25
1.05366e-22
-2.29043e-24
-1.46262e-23
-1.59306e-24
-4.33846e-24
4.89346e-24
1.1689e-22
5.63793e-24
2.93827e-23
6.32173e-24
5.08549e-23
2.09843e-24
-8.46327e-23
2.08942e-24
1.41713e-22
1.15124e-23
1.43011e-22
6.97031e-24
-6.14849e-23
1.71042e-25
-1.9931e-22
-9.86109e-23
2.58688e-24
-5.61485e-23
-4.23051e-25
1.66203e-24
-3.59999e-23
1.07027e-24
-8.22727e-23
-3.49247e-24
6.29824e-23
-3.04852e-24
4.12577e-23
5.44162e-24
1.73577e-22
6.85174e-24
8.97539e-23
8.78642e-24
1.92163e-22
1.12395e-23
8.66122e-23
4.22546e-24
2.15527e-23
-2.10434e-24
-1.44775e-22
2.32585e-24
9.96958e-23
1.30601e-24
-7.22032e-23
4.71823e-24
-5.99049e-23
1.23791e-24
-4.86712e-23
-8.46555e-25
-4.62946e-23
4.14017e-24
-2.94331e-23
7.00732e-24
6.85082e-23
5.57046e-24
-1.02834e-22
1.21977e-24
-5.93976e-23
-2.57412e-25
-1.61477e-23
-6.63795e-26
-1.97921e-24
-3.50226e-24
-5.56053e-23
-1.91966e-24
-1.64997e-23
-2.92886e-24
-6.41743e-23
-5.30487e-24
-3.7844e-23
-7.21717e-24
1.13651e-23
-5.55539e-24
4.85202e-23
-5.25903e-24
5.54678e-23
-5.4264e-24
-7.02636e-23
-5.14936e-24
4.02741e-23
-1.46395e-24
8.62753e-23
-8.61118e-25
1.27137e-22
-2.10051e-24
1.95224e-23
-1.78838e-24
-1.26129e-23
4.99917e-24
1.2505e-22
5.67105e-24
2.83353e-23
6.01559e-24
5.96493e-23
2.35135e-24
-8.17963e-23
2.0198e-24
1.62701e-22
1.12465e-23
1.32222e-22
6.93756e-24
-3.99052e-23
2.90149e-25
-1.89565e-22
-9.26912e-23
2.88119e-24
-5.86032e-23
-1.86085e-25
1.36856e-24
-5.46186e-23
1.38262e-24
-5.75866e-23
-3.60197e-24
3.56847e-23
-3.25395e-24
1.3756e-23
5.16621e-24
1.28035e-22
6.77393e-24
7.37906e-23
8.45347e-24
1.56818e-22
1.10567e-23
7.92217e-23
3.73019e-24
2.72937e-23
-2.26106e-24
-1.24844e-22
2.24932e-24
9.3941e-23
1.11198e-24
-9.89554e-23
4.81923e-24
-2.06311e-23
1.00165e-24
-7.41458e-23
-8.90733e-25
-2.90821e-23
3.90505e-24
-2.65464e-23
6.86249e-24
3.97133e-23
5.40084e-24
-1.00622e-22
1.29577e-24
-5.70775e-23
-2.99599e-25
-4.53797e-24
-2.3291e-25
-2.12217e-24
-3.51581e-24
-5.08604e-23
-1.99586e-24
-3.54786e-23
-2.82877e-24
-4.04043e-23
-5.28326e-24
-4.006e-23
-6.94982e-24
2.07084e-23
-5.7156e-24
2.97964e-23
-5.22297e-24
7.29631e-23
-5.30835e-24
-7.18594e-23
-4.93637e-24
3.87901e-23
-1.35464e-24
8.47144e-23
-1.08003e-24
1.0147e-22
-2.20599e-24
8.70007e-24
-1.64403e-24
-1.5301e-23
4.96666e-24
1.4769e-22
5.47988e-24
1.00318e-23
6.00154e-24
8.42061e-23
2.5304e-24
-6.26113e-23
2.14844e-24
1.84376e-22
1.07861e-23
9.45512e-23
6.95639e-24
-4.99167e-23
6.57147e-25
-1.5933e-22
-1.02069e-22
2.94358e-24
-6.1864e-23
-2.94794e-26
1.31814e-24
-7.2379e-23
1.53252e-24
-4.87823e-23
-3.67922e-24
-3.95118e-24
-3.27988e-24
1.93844e-24
5.36635e-24
8.43097e-23
6.66279e-24
5.92484e-23
8.33313e-24
1.37061e-22
1.07388e-23
5.68371e-23
3.61923e-24
6.4588e-23
-2.2807e-24
-1.19133e-22
1.77169e-24
7.00668e-23
1.11076e-24
-9.13454e-23
4.71898e-24
-3.74311e-23
8.35295e-25
-6.65032e-23
-8.71487e-25
1.54543e-23
3.58685e-24
-2.63986e-23
6.77613e-24
6.78951e-23
5.2738e-24
-9.69621e-23
1.38629e-24
-5.52939e-23
-4.05168e-25
-1.9601e-23
-3.99473e-25
-1.85092e-23
-3.53794e-24
-1.77081e-23
-1.95433e-24
-3.59555e-23
-2.78219e-24
-3.28869e-23
-5.27497e-24
-3.92371e-23
-6.75775e-24
3.97166e-23
-5.77156e-24
1.00455e-23
-5.28226e-24
6.87912e-23
-5.10913e-24
-8.83998e-23
-4.70412e-24
7.28641e-24
-1.41985e-24
8.17886e-23
-1.33623e-24
6.95208e-23
-2.08772e-24
1.29667e-23
-1.72595e-24
-4.60806e-23
4.78171e-24
1.83629e-22
5.76312e-24
2.32272e-23
6.08625e-24
9.75889e-23
2.65281e-24
-5.79523e-23
1.78897e-24
1.35947e-22
1.04786e-23
5.83459e-23
6.97394e-24
-2.63796e-23
4.97402e-25
-1.4939e-22
-6.99385e-23
2.926e-24
-9.30157e-23
1.28598e-25
1.45723e-24
-8.63234e-23
1.52721e-24
-1.67032e-23
-3.63342e-24
-4.34431e-23
-3.33581e-24
-2.26897e-23
5.40006e-24
7.02211e-23
6.47865e-24
5.93816e-23
8.15167e-24
1.49135e-22
1.06971e-23
7.92975e-23
3.21489e-24
7.21151e-23
-2.59406e-24
-1.13209e-22
1.56589e-24
6.32872e-23
9.00831e-25
-7.30814e-23
4.78494e-24
-5.36612e-23
8.34474e-25
-8.7442e-23
-1.0929e-24
2.33936e-24
3.46284e-24
-2.67046e-23
6.40679e-24
3.35152e-23
5.20408e-24
-7.96968e-23
1.42744e-24
-6.68344e-23
-4.47334e-25
-5.03342e-24
-4.18604e-25
-1.80796e-23
-3.71965e-24
-3.09868e-23
-1.86813e-24
-1.89872e-23
-2.74342e-24
-3.78889e-23
-5.19943e-24
-3.84217e-23
-6.68781e-24
2.50061e-23
-5.75467e-24
6.87499e-24
-5.39046e-24
6.3968e-23
-5.03327e-24
-8.83089e-23
-4.38908e-24
-7.80986e-24
-1.51412e-24
6.58197e-23
-1.39359e-24
1.07601e-22
-2.08049e-24
1.84575e-23
-1.60455e-24
-4.49941e-23
4.573e-24
1.75736e-22
5.89621e-24
6.34968e-23
6.20171e-24
8.14625e-23
2.69012e-24
-5.25579e-23
1.58115e-24
1.30538e-22
1.03895e-23
5.27712e-23
6.73631e-24
-4.74836e-23
7.36479e-25
-1.54315e-22
-6.92247e-23
2.7828e-24
-8.52705e-23
3.03154e-25
1.58944e-24
-8.72658e-23
1.40597e-24
-1.03049e-23
-3.6772e-24
-4.34836e-23
-3.57204e-24
-3.31603e-23
5.45821e-24
5.77534e-23
6.48731e-24
6.01315e-23
7.98942e-24
1.31783e-22
1.07382e-23
7.19883e-23
2.81652e-24
3.89132e-23
-2.94126e-24
-1.06576e-22
1.4146e-24
6.95117e-23
5.25546e-25
-6.99048e-23
4.90522e-24
-5.64795e-23
8.07116e-25
-1.11476e-22
-1.17045e-24
-1.26916e-23
3.28592e-24
-4.42009e-23
6.20489e-24
2.36145e-24
4.94677e-24
-6.31154e-23
1.52772e-24
-6.36584e-23
-5.3572e-25
-3.42579e-24
-4.73391e-25
-1.53453e-23
-3.79358e-24
-3.18371e-23
-1.87231e-24
-6.09913e-24
-2.65828e-24
-4.32012e-23
-5.19472e-24
-3.84911e-23
-6.55729e-24
3.67368e-23
-5.77797e-24
4.3581e-24
-5.4622e-24
5.97393e-23
-4.90949e-24
-6.9438e-23
-4.10981e-24
-3.39351e-23
-1.46597e-24
4.97055e-23
-1.59474e-24
1.00011e-22
-2.12278e-24
3.77835e-23
-1.48627e-24
-4.49696e-23
4.59133e-24
1.95592e-22
5.78913e-24
5.90874e-23
6.24676e-24
7.97453e-23
2.76031e-24
-4.78427e-23
1.40788e-24
1.15985e-22
1.01905e-23
7.57745e-23
6.54358e-24
1.03593e-23
9.60365e-25
-1.45766e-22
-6.90861e-23
2.81242e-24
-9.05608e-23
5.6829e-25
1.53143e-24
-8.44906e-23
1.47487e-24
-3.9497e-23
-3.9925e-24
-3.1e-23
-3.54261e-24
3.01364e-23
5.47284e-24
3.67249e-23
6.49708e-24
2.20348e-23
7.72861e-24
1.27042e-22
1.03628e-23
4.17432e-23
2.70368e-24
1.84955e-23
-3.01735e-24
-9.94345e-23
1.0207e-24
6.56599e-23
3.87942e-25
-4.27096e-23
4.88405e-24
-3.25953e-23
7.80879e-25
-1.10296e-22
-1.30166e-24
-5.09664e-23
3.16301e-24
-5.77023e-23
5.98583e-24
-2.89562e-23
4.8654e-24
-6.02038e-23
1.5637e-24
-7.37523e-23
-6.57926e-25
-3.81444e-25
-5.82749e-25
2.16578e-24
-3.82623e-24
-4.79991e-23
-1.91749e-24
-2.14733e-23
-2.56303e-24
-3.63718e-23
-5.17261e-24
-3.85938e-23
-6.40296e-24
4.81034e-23
-5.80817e-24
1.95894e-24
-5.41658e-24
4.34164e-23
-4.93239e-24
-6.72684e-23
-3.85283e-24
-6.32063e-24
-1.35495e-24
3.46364e-23
-1.79348e-24
1.10538e-22
-2.12311e-24
6.84435e-23
-1.36477e-24
-2.97476e-23
4.53268e-24
2.00697e-22
5.72607e-24
2.78393e-23
6.13162e-24
5.32421e-23
2.69918e-24
-4.44229e-23
1.18307e-24
8.78665e-23
1.02437e-23
9.11369e-23
6.52398e-24
1.96363e-24
1.1034e-24
-1.38262e-22
-3.01296e-23
2.97849e-24
-7.2664e-23
8.70946e-25
1.4547e-24
-8.06272e-23
1.66508e-24
-2.07454e-23
-3.98537e-24
-6.4212e-23
-3.67288e-24
3.00973e-23
5.34959e-24
3.02e-23
6.574e-24
4.47916e-23
7.48439e-24
9.68025e-23
1.00796e-23
2.65288e-23
2.44787e-24
-1.29719e-23
-3.30564e-24
-1.17632e-22
7.81112e-25
9.50384e-23
3.16673e-25
-3.12757e-23
4.76166e-24
-2.14844e-23
6.26793e-25
-1.07881e-22
-1.38149e-24
-3.72534e-23
2.83729e-24
-8.15445e-23
5.99461e-24
-6.8687e-24
4.73368e-24
-5.65509e-23
1.54302e-24
-6.96194e-23
-6.47257e-25
1.62781e-23
-7.4156e-25
4.08828e-24
-3.86905e-24
-4.8824e-23
-1.89477e-24
-2.82071e-23
-2.51918e-24
-3.43965e-23
-5.08521e-24
-3.82977e-23
-6.30862e-24
4.58728e-23
-5.88199e-24
-1.86496e-24
-5.38962e-24
4.21106e-23
-4.95148e-24
-8.08174e-23
-3.59948e-24
-1.92368e-23
-1.26744e-24
4.56878e-23
-1.84652e-24
9.54775e-23
-2.15379e-24
9.47163e-23
-1.18577e-24
-1.73142e-23
4.34435e-24
2.0197e-22
5.641e-24
4.32044e-23
6.1385e-24
4.07229e-23
2.69253e-24
-6.13199e-23
1.3488e-24
9.92823e-23
1.00338e-23
1.10923e-22
6.39341e-24
4.35726e-24
1.33709e-24
-1.23092e-22
-2.05653e-24
-6.42445e-23
-3.74063e-23
3.0051e-24
-4.15171e-23
1.08218e-24
1.42138e-24
-6.43412e-23
1.59375e-24
-1.49313e-24
-3.87181e-24
-6.36216e-23
-4.03809e-24
2.88079e-23
5.26145e-24
4.82497e-23
6.53539e-24
4.22889e-23
7.22762e-24
7.25593e-23
9.94898e-24
1.11209e-23
2.30726e-24
-8.9238e-24
-3.40133e-24
-8.75347e-23
5.46484e-25
1.16219e-22
1.63659e-25
-2.1694e-23
4.67885e-24
-4.59634e-23
5.4425e-25
-1.1684e-22
-1.56119e-24
-7.21222e-23
2.81788e-24
-5.84881e-23
5.84363e-24
9.40527e-24
4.65676e-24
-5.37528e-23
1.63232e-24
-6.6831e-23
-7.99464e-25
-3.72685e-24
-8.55804e-25
-1.18614e-23
-3.98011e-24
-3.63603e-23
-1.82095e-24
-2.98582e-23
-2.48693e-24
-6.43018e-23
-4.99322e-24
-3.80841e-23
-6.2125e-24
3.83166e-23
-5.88192e-24
-5.56739e-24
-5.43433e-24
6.43301e-23
-4.92719e-24
-7.07734e-23
-3.25694e-24
-7.17313e-24
-1.24693e-24
3.2134e-23
-1.93186e-24
8.32049e-23
-2.27073e-24
8.51792e-23
-1.18598e-24
1.86421e-23
4.2297e-24
1.84304e-22
5.53083e-24
6.64841e-23
6.16082e-24
2.80044e-23
2.69822e-24
-7.93679e-23
1.21784e-24
7.42486e-23
9.74263e-24
1.16933e-22
6.26237e-24
2.12895e-23
1.51365e-24
-7.37793e-23
-1.65508e-24
-7.08481e-23
-2.71669e-23
3.14232e-24
-1.39678e-23
1.27058e-24
1.58958e-24
-9.6482e-23
1.53516e-24
-2.96457e-23
-3.89734e-24
-1.10609e-22
-4.09303e-24
2.56595e-23
5.48576e-24
7.94067e-23
6.30786e-24
4.05694e-23
7.01366e-24
5.9498e-23
9.61702e-24
1.2464e-23
1.92145e-24
-9.30572e-24
-3.45175e-24
-7.79933e-23
3.5022e-25
1.11914e-22
-1.72391e-25
-2.25081e-23
4.69927e-24
-3.59725e-23
3.28102e-25
-1.12484e-22
-1.65996e-24
-9.61224e-23
2.67977e-24
-5.85375e-23
5.50666e-24
7.4911e-24
4.56805e-24
-4.31113e-23
1.6452e-24
-7.65337e-23
-9.16624e-25
9.44868e-24
-9.64395e-25
-1.02682e-23
-4.08387e-24
-5.08293e-23
-1.80144e-24
-2.9872e-23
-2.37287e-24
-7.69958e-23
-4.9433e-24
-4.55476e-23
-6.07985e-24
3.68954e-23
-5.8766e-24
-2.0581e-23
-5.47882e-24
5.25786e-23
-4.83478e-24
-7.31235e-23
-3.01402e-24
3.72747e-24
-1.04364e-24
1.92984e-23
-1.93171e-24
4.62897e-23
-2.20641e-24
7.8736e-23
-1.29975e-24
2.87393e-23
4.24076e-24
1.91444e-22
5.33837e-24
5.34779e-23
6.16062e-24
3.48967e-23
2.82378e-24
-7.10124e-23
1.2399e-24
8.69653e-23
9.6478e-24
8.44251e-23
6.24798e-24
2.23514e-23
1.59988e-24
-6.85897e-23
-1.39783e-24
-5.42791e-23
-7.65356e-23
2.91916e-24
4.60141e-24
1.36318e-24
1.51586e-24
-1.53896e-22
1.41854e-24
-2.50974e-23
-3.84709e-24
-1.00103e-22
-4.381e-24
2.97352e-25
5.33392e-24
7.41055e-23
6.29297e-24
2.62842e-23
6.86725e-24
5.73458e-23
9.37552e-24
8.47562e-24
1.71483e-24
-1.73438e-23
-3.52262e-24
-4.95027e-23
1.38725e-25
1.15873e-22
-4.55235e-25
-2.44233e-23
4.61688e-24
-1.37548e-23
1.32857e-25
-1.18878e-22
-1.77007e-24
-1.05933e-22
2.54435e-24
-5.6404e-23
5.4096e-24
7.52288e-24
4.31663e-24
-5.26152e-23
1.75247e-24
-7.31731e-23
-1.1129e-24
-1.40574e-23
-1.0361e-24
3.65781e-24
-4.19454e-24
-4.51226e-23
-1.82027e-24
-3.02987e-23
-2.24708e-24
-7.92447e-23
-4.85438e-24
-4.60502e-23
-5.9489e-24
3.56067e-23
-5.84863e-24
-2.06925e-23
-5.4907e-24
5.14753e-23
-4.69984e-24
-4.35549e-23
-2.85263e-24
8.6789e-25
-1.01097e-24
2.42983e-23
-1.91911e-24
4.62974e-23
-2.11188e-24
7.96868e-23
-1.30355e-24
4.45871e-23
4.13576e-24
1.85372e-22
5.20766e-24
6.16247e-23
6.07235e-24
2.07575e-23
2.92256e-24
-9.71678e-23
1.18487e-24
3.19103e-23
9.54686e-24
7.80315e-23
6.0785e-24
2.74121e-23
1.55719e-24
-6.32308e-23
-1.0008e-24
-2.82995e-23
2.85129e-24
-8.03152e-24
1.37512e-24
1.75055e-24
-1.28749e-22
1.57237e-24
-2.90669e-23
-3.85067e-24
-1.24228e-22
-4.26682e-24
1.90978e-23
5.12916e-24
7.57781e-23
6.34246e-24
2.27648e-23
6.47838e-24
4.51678e-23
9.06716e-24
4.60402e-24
1.59537e-24
-2.75119e-23
-3.71861e-24
-4.08327e-23
-1.66351e-25
1.15295e-22
-6.52919e-25
8.90824e-24
4.49143e-24
-1.46533e-23
-1.05309e-25
-1.14897e-22
-1.76835e-24
-1.13703e-22
2.3456e-24
-7.75258e-23
5.22904e-24
1.69395e-23
4.16491e-24
-3.36616e-23
1.7112e-24
-8.39078e-23
-1.14886e-24
-3.79035e-23
-1.18715e-24
4.77579e-24
-4.27604e-24
-5.79217e-23
-1.85116e-24
-2.86431e-23
-2.1265e-24
-7.07417e-23
-4.75358e-24
-4.53335e-23
-5.82613e-24
2.32613e-23
-5.8192e-24
-2.19514e-23
-5.43094e-24
4.90073e-23
-4.68855e-24
-4.5871e-23
-2.65156e-24
2.09927e-26
-9.15995e-25
2.20817e-23
-1.895e-24
3.66119e-23
-1.96529e-24
9.49825e-23
-1.37025e-24
6.94534e-23
3.99631e-24
1.87795e-22
5.06396e-24
7.89411e-23
6.0359e-24
2.05789e-23
2.95722e-24
-6.91734e-23
1.30568e-24
3.66396e-23
9.47534e-24
9.11317e-23
6.05329e-24
1.26886e-23
1.60013e-24
-7.99135e-23
-2.36811e-23
2.87358e-24
8.55872e-24
1.53407e-24
1.69905e-24
-1.25896e-22
1.57009e-24
-5.53714e-23
-3.78189e-24
-1.15543e-22
-4.36708e-24
3.72543e-23
5.00114e-24
7.12994e-23
6.1358e-24
1.78336e-23
6.2217e-24
1.76427e-24
8.89392e-24
1.16589e-24
1.54798e-24
-3.36336e-23
-3.91779e-24
-6.53155e-23
-3.31999e-25
1.24711e-22
-9.4691e-25
-1.58905e-23
4.27388e-24
-1.6093e-23
-3.28622e-25
-1.01943e-22
-1.85716e-24
-1.02083e-22
2.28564e-24
-7.77224e-23
5.1112e-24
4.15188e-23
3.90564e-24
-3.72942e-23
1.67169e-24
-4.88179e-23
-1.13964e-24
-3.77506e-23
-1.37894e-24
-1.81177e-23
-4.33101e-24
-4.47272e-23
-1.86844e-24
-2.55551e-23
-2.01548e-24
-7.21441e-23
-4.67963e-24
-3.55016e-23
-5.67603e-24
2.14344e-23
-5.78268e-24
-1.03165e-23
-5.34692e-24
4.59387e-23
-4.67073e-24
-3.03588e-23
-2.52609e-24
-9.9043e-24
-8.01072e-25
3.03878e-23
-1.90919e-24
2.73374e-23
-1.86163e-24
9.76202e-23
-1.43786e-24
4.03568e-23
3.971e-24
1.80915e-22
4.8775e-24
7.93046e-23
5.98231e-24
-6.44066e-24
3.03402e-24
-6.45786e-23
1.24696e-24
3.75517e-23
9.38603e-24
6.64588e-23
5.90358e-24
-1.19662e-23
1.81745e-24
-5.48396e-23
-3.97923e-23
2.68363e-24
6.51701e-24
1.6212e-24
1.7524e-24
-1.02185e-22
1.65228e-24
-5.50483e-23
-3.73882e-24
-9.16422e-23
-4.35134e-24
6.37759e-23
4.94012e-24
6.01113e-23
5.87006e-24
1.36943e-23
5.95151e-24
4.14011e-24
8.72555e-24
-1.32842e-23
1.33777e-24
-1.7422e-23
-3.87686e-24
-3.88721e-23
-5.68933e-25
8.05645e-23
-1.15301e-24
-2.77183e-23
4.12873e-24
-1.83861e-23
-4.78894e-25
-9.89165e-23
-2.00397e-24
-1.01992e-22
2.23583e-24
-6.19305e-23
4.87231e-24
4.15108e-23
3.66983e-24
-2.95229e-23
1.61894e-24
-2.51735e-23
-1.26185e-24
-3.82271e-23
-1.4684e-24
-1.84564e-23
-4.40585e-24
-4.13038e-23
-1.90346e-24
-2.31323e-23
-1.8844e-24
-6.50545e-23
-4.63807e-24
-4.65049e-23
-5.47828e-24
2.17188e-23
-5.73541e-24
-1.04068e-23
-5.27357e-24
4.09407e-23
-4.63372e-24
-2.41188e-23
-2.3519e-24
-3.0612e-23
-7.28317e-25
2.68872e-23
-1.81614e-24
2.9083e-23
-1.87793e-24
6.68681e-23
-1.36502e-24
2.14957e-23
3.81005e-24
1.75539e-22
4.62074e-24
7.82966e-23
5.99927e-24
-1.11348e-23
3.07959e-24
-3.89871e-23
1.15204e-24
4.24324e-23
9.3032e-24
6.19769e-23
5.90526e-24
-1.14991e-23
1.84328e-24
-5.4313e-23