/*--------------------------------*- C++ -*----------------------------------*\
  =========                 |
  \\      /  F ield         | OpenFOAM: The Open Source CFD Toolbox
   \\    /   O peration     | Website:  https://openfoam.org
    \\  /    A nd           | Version:  7
     \\/     M anipulation  |
\*---------------------------------------------------------------------------*/
FoamFile
{
    version     2.0;
    format      ascii;
    class       volScalarField;
    location    "48000";
    object      nut;
}
// * * * * * * * * * * * * * * * * * * * * * * * * * * * * * * * * * * * * * //

dimensions      [0 2 -1 0 0 0 0];

internalField   nonuniform List<scalar> 
4825
(
7.3689e-07
7.39539e-07
7.47921e-07
7.51036e-07
7.50536e-07
7.48467e-07
7.50316e-07
7.57706e-07
7.61455e-07
7.61433e-07
7.60117e-07
7.62242e-07
7.66226e-07
7.70765e-07
7.71117e-07
7.70535e-07
7.73042e-07
7.73495e-07
7.78525e-07
7.79562e-07
7.7928e-07
7.82229e-07
7.79522e-07
7.84735e-07
7.86787e-07
7.86761e-07
7.8979e-07
7.84308e-07
7.89453e-07
7.92475e-07
7.92584e-07
7.95783e-07
7.87522e-07
7.93102e-07
7.97023e-07
7.96805e-07
8.0065e-07
7.89577e-07
7.95678e-07
8.00113e-07
7.99856e-07
8.04438e-07
7.902e-07
7.96842e-07
8.01785e-07
8.01793e-07
8.07138e-07
7.89811e-07
7.96642e-07
8.02113e-07
8.02643e-07
8.08436e-07
7.88478e-07
7.95171e-07
8.01193e-07
8.02447e-07
8.08709e-07
7.86234e-07
7.92804e-07
7.99412e-07
8.01249e-07
8.07669e-07
7.82801e-07
7.8928e-07
7.96492e-07
7.99065e-07
7.78465e-07
7.84889e-07
7.92451e-07
7.9563e-07
7.72942e-07
7.79598e-07
7.87562e-07
7.9123e-07
7.66542e-07
7.73127e-07
7.81524e-07
7.59299e-07
7.65781e-07
7.74367e-07
7.50986e-07
7.57617e-07
7.41664e-07
7.48649e-07
7.31619e-07
7.38686e-07
7.20683e-07
7.28006e-07
7.09098e-07
7.16646e-07
6.96689e-07
3.95864e-07
3.69592e-07
3.44337e-07
3.21907e-07
2.99858e-07
2.79849e-07
2.61846e-07
2.46308e-07
2.32963e-07
2.21483e-07
2.12055e-07
2.04215e-07
1.9772e-07
1.92102e-07
1.87538e-07
1.83716e-07
1.80562e-07
1.77933e-07
1.7588e-07
1.74097e-07
4.55141e-07
4.29391e-07
4.04119e-07
3.81229e-07
3.57749e-07
3.35649e-07
3.14796e-07
2.95968e-07
2.79033e-07
2.63434e-07
2.49885e-07
2.38006e-07
2.27639e-07
2.18109e-07
2.10056e-07
2.03048e-07
1.97132e-07
1.92123e-07
1.88233e-07
1.84868e-07
5.12275e-07
4.8794e-07
4.63458e-07
4.41578e-07
4.18469e-07
3.96098e-07
3.74298e-07
3.54091e-07
3.35434e-07
3.17286e-07
3.00838e-07
2.85922e-07
2.72382e-07
2.58993e-07
2.47199e-07
2.3637e-07
2.26875e-07
2.1847e-07
2.11841e-07
2.05923e-07
5.38414e-07
5.29526e-07
5.19537e-07
5.00316e-07
4.78201e-07
4.56989e-07
4.35576e-07
4.15542e-07
3.96816e-07
3.77787e-07
3.601e-07
3.43831e-07
3.28577e-07
3.12615e-07
2.97985e-07
2.83931e-07
2.71172e-07
2.5929e-07
2.49816e-07
2.40945e-07
5.61278e-07
5.5267e-07
5.4278e-07
5.36782e-07
5.28383e-07
5.15463e-07
4.95451e-07
4.7649e-07
4.58793e-07
4.40053e-07
4.2242e-07
4.06254e-07
3.9084e-07
3.7372e-07
3.57547e-07
3.41678e-07
3.26777e-07
3.12097e-07
3.0059e-07
2.89192e-07
5.84155e-07
5.7576e-07
5.65394e-07
5.60026e-07
5.52329e-07
5.448e-07
5.37049e-07
5.30524e-07
5.18381e-07
5.00844e-07
4.83965e-07
4.68899e-07
4.54127e-07
4.36904e-07
4.20608e-07
4.03894e-07
3.88033e-07
3.71753e-07
3.59177e-07
3.46078e-07
6.06387e-07
5.98848e-07
5.88014e-07
5.82813e-07
5.7606e-07
5.6882e-07
5.61018e-07
5.54721e-07
5.49258e-07
5.42327e-07
5.35925e-07
5.29157e-07
5.15339e-07
4.98861e-07
4.83198e-07
4.66127e-07
4.50186e-07
4.33292e-07
4.2059e-07
4.06291e-07
6.27729e-07
6.21682e-07
6.1039e-07
6.05569e-07
5.99264e-07
5.92301e-07
5.84806e-07
5.78683e-07
5.73126e-07
5.66515e-07
5.60703e-07
5.57331e-07
5.52652e-07
5.45046e-07
5.37856e-07
5.2605e-07
5.10211e-07
4.93428e-07
4.80922e-07
4.66131e-07
4.53627e-07
4.42559e-07
4.33349e-07
4.28864e-07
4.26108e-07
4.28375e-07
4.31402e-07
4.38667e-07
4.47898e-07
4.58793e-07
4.69389e-07
4.8259e-07
4.92838e-07
5.05773e-07
5.1953e-07
6.48429e-07
6.43543e-07
6.32216e-07
6.27553e-07
6.21758e-07
6.15116e-07
6.0843e-07
6.02123e-07
5.96519e-07
5.90551e-07
5.85195e-07
5.82093e-07
5.78134e-07
5.701e-07
5.62718e-07
5.53598e-07
5.44375e-07
5.33824e-07
5.27185e-07
5.17268e-07
5.08152e-07
4.99305e-07
4.89416e-07
4.84963e-07
4.8221e-07
4.84613e-07
4.87938e-07
4.95503e-07
5.05012e-07
5.13153e-07
5.19311e-07
5.27206e-07
5.31161e-07
5.37704e-07
5.44709e-07
5.52109e-07
5.57251e-07
6.68271e-07
6.64266e-07
6.53261e-07
6.48546e-07
6.43778e-07
6.37021e-07
6.31181e-07
6.25168e-07
6.19783e-07
6.14467e-07
6.09539e-07
6.06302e-07
6.03004e-07
5.94885e-07
5.86964e-07
5.78408e-07
5.68967e-07
5.58083e-07
5.50801e-07
5.40907e-07
5.30829e-07
5.23111e-07
5.15571e-07
5.13176e-07
5.11014e-07
5.13532e-07
5.15895e-07
5.21451e-07
5.2888e-07
5.36601e-07
5.42845e-07
5.5086e-07
5.55209e-07
5.62049e-07
5.68851e-07
5.76819e-07
5.81381e-07
5.88936e-07
6.86652e-07
6.83735e-07
6.73363e-07
6.68845e-07
6.64643e-07
6.57822e-07
6.52865e-07
6.47223e-07
6.42164e-07
6.37985e-07
6.33501e-07
6.29786e-07
6.27263e-07
6.19023e-07
6.11212e-07
6.02684e-07
5.92989e-07
5.82142e-07
5.74472e-07
5.64517e-07
5.53108e-07
5.45567e-07
5.37619e-07
5.34934e-07
5.3303e-07
5.35344e-07
5.38312e-07
5.43797e-07
5.51946e-07
5.6012e-07
5.66338e-07
5.74133e-07
5.78694e-07
5.86348e-07
5.92546e-07
6.01047e-07
6.05355e-07
6.12535e-07
6.17914e-07
6.22696e-07
7.0396e-07
7.01875e-07
6.92415e-07
6.88271e-07
6.84244e-07
6.77851e-07
6.73809e-07
6.68603e-07
6.63921e-07
6.60359e-07
6.56338e-07
6.52297e-07
6.50705e-07
6.42318e-07
6.34731e-07
6.26249e-07
6.16353e-07
6.05521e-07
5.98189e-07
5.87704e-07
5.75503e-07
5.67742e-07
5.59728e-07
5.56409e-07
5.55124e-07
5.57369e-07
5.60799e-07
5.66284e-07
5.75158e-07
5.83299e-07
5.89835e-07
5.97484e-07
6.02053e-07
6.09986e-07
6.16024e-07
6.24567e-07
6.2893e-07
6.35275e-07
6.40844e-07
6.45668e-07
6.51726e-07
6.53284e-07
7.20144e-07
7.18633e-07
7.10346e-07
7.06212e-07
7.02958e-07
6.96957e-07
6.93398e-07
6.89144e-07
6.84866e-07
6.81437e-07
6.77895e-07
6.74092e-07
6.73128e-07
6.65039e-07
6.57745e-07
6.4886e-07
6.39153e-07
6.28501e-07
6.21193e-07
6.10691e-07
5.97724e-07
5.89857e-07
5.81188e-07
5.77844e-07
5.77115e-07
5.79358e-07
5.82679e-07
5.88641e-07
5.98231e-07
6.06361e-07
6.12575e-07
6.2015e-07
6.25012e-07
6.32733e-07
6.38974e-07
6.47143e-07
6.51856e-07
6.57228e-07
6.63104e-07
6.67331e-07
6.72819e-07
6.73748e-07
6.77678e-07
6.83038e-07
6.85936e-07
7.35147e-07
7.3399e-07
7.27109e-07
7.22617e-07
7.20234e-07
7.15041e-07
7.12001e-07
7.08671e-07
7.04853e-07
7.01562e-07
6.98534e-07
6.95004e-07
6.94371e-07
6.86949e-07
6.79547e-07
6.70323e-07
6.61248e-07
6.50822e-07
6.43718e-07
6.32701e-07
6.19442e-07
6.11121e-07
6.02226e-07
5.98436e-07
5.98676e-07
6.00987e-07
6.04177e-07
6.1054e-07
6.20342e-07
6.28966e-07
6.34809e-07
6.42336e-07
6.47299e-07
6.54843e-07
6.61177e-07
6.69038e-07
6.73935e-07
6.78313e-07
6.84496e-07
6.88044e-07
6.93073e-07
6.93255e-07
6.96831e-07
7.01341e-07
7.04045e-07
7.05154e-07
7.02132e-07
7.48933e-07
7.48321e-07
7.42704e-07
7.3793e-07
7.36471e-07
7.31995e-07
7.29062e-07
7.26594e-07
7.2374e-07
7.20165e-07
7.17678e-07
7.14889e-07
7.14322e-07
7.07407e-07
7.00467e-07
6.90974e-07
6.82043e-07
6.72271e-07
6.65019e-07
6.53546e-07
6.40416e-07
6.31812e-07
6.2258e-07
6.18417e-07
6.19084e-07
6.21467e-07
6.2501e-07
6.31749e-07
6.41262e-07
6.50398e-07
6.56286e-07
6.63802e-07
6.68708e-07
6.75638e-07
6.82453e-07
6.89587e-07
6.95e-07
6.98408e-07
7.04425e-07
7.07686e-07
7.11876e-07
7.11689e-07
7.149e-07
7.1815e-07
7.20646e-07
7.21354e-07
7.17774e-07
7.17985e-07
7.22661e-07
7.24933e-07
7.61461e-07
7.61518e-07
7.57086e-07
7.52104e-07
7.51151e-07
7.47303e-07
7.44981e-07
7.42863e-07
7.40977e-07
7.37634e-07
7.35731e-07
7.33638e-07
7.33344e-07
7.26776e-07
7.19887e-07
7.10636e-07
7.01884e-07
6.92198e-07
6.84945e-07
6.73599e-07
6.60475e-07
6.51759e-07
6.41561e-07
6.3708e-07
6.38684e-07
6.40653e-07
6.44482e-07
6.5208e-07
6.60857e-07
6.71003e-07
6.76804e-07
6.84346e-07
6.89071e-07
6.95484e-07
7.02657e-07
7.09155e-07
7.14469e-07
7.17395e-07
7.23308e-07
7.26151e-07
7.29143e-07
7.28965e-07
7.31365e-07
7.33924e-07
7.3616e-07
7.36e-07
7.31743e-07
7.31387e-07
7.35222e-07
7.37431e-07
7.72715e-07
7.73181e-07
7.69783e-07
7.65089e-07
7.64274e-07
7.61393e-07
7.59273e-07
7.57488e-07
7.56566e-07
7.53444e-07
7.5262e-07
7.51118e-07
7.50861e-07
7.44499e-07
7.3776e-07
7.28685e-07
7.20192e-07
7.11003e-07
7.034e-07
6.92708e-07
6.79494e-07
6.708e-07
6.59565e-07
6.54818e-07
6.56852e-07
6.58961e-07
6.62996e-07
6.71409e-07
6.79523e-07
6.90151e-07
6.95741e-07
7.03351e-07
7.07808e-07
7.14264e-07
7.21202e-07
7.27615e-07
7.32281e-07
7.35177e-07
7.41054e-07
7.42943e-07
7.44852e-07
7.45005e-07
7.46687e-07
7.48613e-07
7.50076e-07
7.49084e-07
7.44477e-07
7.43541e-07
7.46203e-07
7.48774e-07
7.82694e-07
7.8373e-07
7.80831e-07
7.76852e-07
7.76288e-07
7.73832e-07
7.72364e-07
7.70938e-07
7.70955e-07
7.68003e-07
7.67837e-07
7.66847e-07
7.66837e-07
7.60565e-07
7.54553e-07
7.45088e-07
7.37385e-07
7.28126e-07
7.20312e-07
7.1025e-07
6.97364e-07
6.8831e-07
6.76512e-07
6.71534e-07
6.73547e-07
6.76253e-07
6.80427e-07
6.89176e-07
6.97108e-07
7.07773e-07
7.13524e-07
7.20789e-07
7.25331e-07
7.3187e-07
7.38067e-07
7.44428e-07
7.48405e-07
7.51644e-07
7.57127e-07
7.58517e-07
7.59451e-07
7.59297e-07
7.60841e-07
7.62132e-07
7.62402e-07
7.60597e-07
7.55535e-07
7.53997e-07
7.55596e-07
7.58507e-07
7.9138e-07
7.93144e-07
7.9064e-07
7.8735e-07
7.87146e-07
7.85066e-07
7.83816e-07
7.83151e-07
7.83689e-07
7.80841e-07
7.81806e-07
7.81221e-07
7.81698e-07
7.75436e-07
7.70213e-07
7.60289e-07
7.52954e-07
7.43563e-07
7.35668e-07
7.2617e-07
7.14027e-07
7.04235e-07
6.92309e-07
6.87147e-07
6.89243e-07
6.91944e-07
6.96197e-07
7.05823e-07
7.13052e-07
7.23829e-07
7.29631e-07
7.37113e-07
7.41142e-07
7.47775e-07
7.53721e-07
7.60027e-07
7.6285e-07
7.66295e-07
7.715e-07
7.7283e-07
7.72885e-07
7.71858e-07
7.73776e-07
7.73976e-07
7.73584e-07
7.70548e-07
7.65351e-07
7.62809e-07
7.63435e-07
7.66678e-07
7.98781e-07
8.00984e-07
7.99129e-07
7.96153e-07
7.96368e-07
7.95066e-07
7.94071e-07
7.93682e-07
7.94764e-07
7.92397e-07
7.94097e-07
7.94279e-07
7.94947e-07
7.8905e-07
7.84215e-07
7.74254e-07
7.67349e-07
7.57787e-07
7.49959e-07
7.40452e-07
7.29441e-07
7.18572e-07
7.06916e-07
7.01575e-07
7.03895e-07
7.06024e-07
7.10772e-07
7.20833e-07
7.278e-07
7.38306e-07
7.44547e-07
7.52288e-07
7.55701e-07
7.62418e-07
7.68151e-07
7.73928e-07
7.76075e-07
7.79165e-07
7.84206e-07
7.85439e-07
7.85102e-07
7.83156e-07
7.85048e-07
7.84158e-07
7.83201e-07
7.78962e-07
7.7354e-07
7.70468e-07
7.70175e-07
7.73729e-07
8.04908e-07
8.07248e-07
8.06378e-07
8.03656e-07
8.03945e-07
8.03384e-07
8.03131e-07
8.02931e-07
8.04227e-07
8.02664e-07
8.05152e-07
8.06046e-07
8.0655e-07
8.00931e-07
7.96533e-07
7.86947e-07
7.80098e-07
7.70313e-07
7.63154e-07
7.53106e-07
7.431e-07
7.31775e-07
7.20302e-07
7.1478e-07
7.17423e-07
7.18982e-07
7.24139e-07
7.34189e-07
7.41307e-07
7.5122e-07
7.58252e-07
7.65786e-07
7.6895e-07
7.75305e-07
7.81293e-07
7.86156e-07
7.88037e-07
7.90747e-07
7.95691e-07
7.96755e-07
7.95653e-07
7.93189e-07
7.9509e-07
7.93141e-07
7.91678e-07
7.86263e-07
7.80536e-07
7.77015e-07
7.75815e-07
7.79269e-07
8.09761e-07
8.11994e-07
8.12071e-07
8.0948e-07
8.09933e-07
8.10053e-07
8.10957e-07
8.10518e-07
8.12493e-07
8.11586e-07
8.14941e-07
8.16496e-07
8.16509e-07
8.11531e-07
8.07169e-07
7.9833e-07
7.91629e-07
7.81589e-07
7.75192e-07
7.64589e-07
7.55025e-07
7.43341e-07
7.32441e-07
7.26705e-07
7.29296e-07
7.30742e-07
7.36294e-07
7.45891e-07
7.53049e-07
7.63038e-07
7.7069e-07
7.77588e-07
7.80414e-07
7.86452e-07
7.92665e-07
7.97176e-07
7.98286e-07
8.01052e-07
8.05511e-07
8.06392e-07
8.04971e-07
8.01937e-07
8.03485e-07
8.00898e-07
7.98593e-07
7.9204e-07
7.86396e-07
7.82461e-07
7.80328e-07
7.83317e-07
8.13023e-07
8.15641e-07
8.16604e-07
8.13683e-07
8.1477e-07
8.15494e-07
8.1714e-07
8.1686e-07
8.19149e-07
8.18768e-07
8.23023e-07
8.25202e-07
8.24857e-07
8.20867e-07
8.16131e-07
8.0832e-07
8.01469e-07
7.91548e-07
7.85569e-07
7.74847e-07
7.65283e-07
7.53701e-07
7.43315e-07
7.37326e-07
7.39499e-07
7.4081e-07
7.47224e-07
7.55947e-07
7.6302e-07
7.73701e-07
7.81368e-07
7.87729e-07
7.90541e-07
7.96318e-07
8.02309e-07
8.06973e-07
8.07238e-07
8.10069e-07
8.13695e-07
8.14745e-07
8.13035e-07
8.09382e-07
8.10244e-07
8.07004e-07
8.03955e-07
7.96666e-07
7.9115e-07
7.86819e-07
7.8371e-07
7.8594e-07
8.15088e-07
8.18186e-07
8.19656e-07
8.16693e-07
8.18505e-07
8.19378e-07
8.21703e-07
8.21956e-07
8.24202e-07
8.24639e-07
8.29445e-07
8.32186e-07
8.32021e-07
8.28916e-07
8.23449e-07
8.16512e-07
8.09613e-07
7.99755e-07
7.94277e-07
7.83423e-07
7.74344e-07
7.62397e-07
7.52879e-07
7.46648e-07
7.48083e-07
7.49655e-07
7.56909e-07
7.64401e-07
7.7127e-07
7.8271e-07
7.90295e-07
7.96652e-07
7.99336e-07
8.04898e-07
8.10668e-07
8.15135e-07
8.14907e-07
8.17801e-07
8.20715e-07
8.21431e-07
8.19425e-07
8.15497e-07
8.15402e-07
8.11504e-07
8.07802e-07
7.99792e-07
7.94805e-07
7.90088e-07
7.85975e-07
7.8757e-07
8.15695e-07
8.19299e-07
8.21271e-07
8.18563e-07
8.2113e-07
8.22122e-07
8.24706e-07
8.25468e-07
8.27714e-07
8.2924e-07
8.34654e-07
8.37494e-07
8.37971e-07
8.35276e-07
8.29527e-07
8.23178e-07
8.16117e-07
8.06662e-07
8.01351e-07
7.90732e-07
7.81775e-07
7.69864e-07
7.60714e-07
7.54662e-07
7.55529e-07
7.57269e-07
7.64925e-07
7.71714e-07
7.78295e-07
7.90068e-07
7.97542e-07
8.03931e-07
8.06387e-07
8.11783e-07
8.1771e-07
8.22059e-07
8.21275e-07
8.24235e-07
8.26623e-07
8.2647e-07
8.24162e-07
8.19926e-07
8.19009e-07
8.1482e-07
8.10185e-07
8.01827e-07
7.97369e-07
7.92274e-07
7.87158e-07
7.88244e-07
8.15253e-07
8.1903e-07
8.21524e-07
8.19327e-07
8.22341e-07
8.23773e-07
8.26244e-07
8.27811e-07
8.30115e-07
8.32575e-07
8.3867e-07
8.41179e-07
8.42309e-07
8.39971e-07
8.34e-07
8.28122e-07
8.21412e-07
8.12303e-07
8.06829e-07
7.96379e-07
7.87615e-07
7.76099e-07
7.67289e-07
7.61372e-07
7.61842e-07
7.63656e-07
7.71725e-07
7.77857e-07
7.84111e-07
7.95812e-07
8.03599e-07
8.09613e-07
8.12132e-07
8.17372e-07
8.23082e-07
8.27358e-07
8.26306e-07
8.28986e-07
8.31e-07
8.2993e-07
8.27334e-07
8.23082e-07
8.21144e-07
8.16633e-07
8.11161e-07
8.02804e-07
7.98495e-07
7.93039e-07
7.87288e-07
7.87967e-07
8.13834e-07
8.17472e-07
8.20512e-07
8.19025e-07
8.22508e-07
8.24344e-07
8.26744e-07
8.29062e-07
8.31444e-07
8.3433e-07
8.4115e-07
8.43321e-07
8.45067e-07
8.43062e-07
8.37288e-07
8.31442e-07
8.25148e-07
8.16697e-07
8.10777e-07
8.0078e-07
7.92306e-07
7.80694e-07
7.72651e-07
7.66777e-07
7.67006e-07
7.68801e-07
7.769e-07
7.82388e-07
7.887e-07
7.9998e-07
8.08495e-07
8.14136e-07
8.16626e-07
8.21676e-07
8.27126e-07
8.31062e-07
8.29654e-07
8.3211e-07
8.3384e-07
8.3222e-07
8.29381e-07
8.24689e-07
8.22207e-07
8.17022e-07
8.10819e-07
8.02732e-07
7.9824e-07
7.92443e-07
7.86404e-07
7.86428e-07
8.1147e-07
8.1499e-07
8.18608e-07
8.17704e-07
8.21351e-07
8.23533e-07
8.26255e-07
8.29241e-07
8.31726e-07
8.34908e-07
8.42156e-07
8.44341e-07
8.46339e-07
8.44618e-07
8.39434e-07
8.33547e-07
8.27723e-07
8.1984e-07
8.13599e-07
8.03563e-07
7.95494e-07
7.8409e-07
7.76796e-07
7.70842e-07
7.70996e-07
7.72718e-07
7.80483e-07
7.85347e-07
7.9205e-07
8.02631e-07
8.12238e-07
8.1751e-07
8.19891e-07
8.24761e-07
8.29991e-07
8.33255e-07
8.31742e-07
8.34022e-07
8.35196e-07
8.3305e-07
8.30341e-07
8.25148e-07
8.21906e-07
8.16401e-07
8.09576e-07
8.01327e-07
7.96706e-07
7.90584e-07
7.84527e-07
7.83688e-07
8.07887e-07
8.11326e-07
8.15542e-07
8.15378e-07
8.18915e-07
8.21412e-07
8.24793e-07
8.28058e-07
8.3097e-07
8.34384e-07
8.41793e-07
8.44274e-07
8.46535e-07
8.44713e-07
8.40451e-07
8.34172e-07
8.28824e-07
8.21423e-07
8.14954e-07
8.04795e-07
7.97586e-07
7.86328e-07
7.79362e-07
7.73245e-07
7.73432e-07
7.75403e-07
7.8254e-07
7.87194e-07
7.93821e-07
8.04178e-07
8.14461e-07
8.19351e-07
8.21927e-07
8.26676e-07
8.31717e-07
8.34348e-07
8.32627e-07
8.3444e-07
8.35481e-07
8.32787e-07
8.29908e-07
8.24208e-07
8.20308e-07
8.14521e-07
8.07457e-07
7.98977e-07
7.94289e-07
7.87844e-07
7.81399e-07
7.80095e-07
8.03352e-07
8.06753e-07
8.11323e-07
8.11784e-07
8.15241e-07
8.18345e-07
8.22087e-07
8.25583e-07
8.28901e-07
8.32824e-07
8.40458e-07
8.42823e-07
8.45381e-07
8.43437e-07
8.4004e-07
8.33725e-07
8.28836e-07
8.21882e-07
8.14906e-07
8.04926e-07
7.98245e-07
7.87421e-07
7.80778e-07
7.74439e-07
7.74755e-07
7.76522e-07
7.83161e-07
7.87982e-07
7.94425e-07
8.04296e-07
8.15217e-07
8.19694e-07
8.22434e-07
8.27436e-07
8.31995e-07
8.34063e-07
8.32354e-07
8.33445e-07
8.34408e-07
8.31156e-07
8.28144e-07
8.22253e-07
8.17794e-07
8.11741e-07
8.04168e-07
7.95731e-07
7.90699e-07
7.83917e-07
7.77334e-07
7.75623e-07
7.97596e-07
8.0124e-07
8.06181e-07
8.07193e-07
8.10341e-07
8.14056e-07
8.18466e-07
8.2218e-07
8.25852e-07
8.30264e-07
8.37908e-07
8.40049e-07
8.42931e-07
8.41173e-07
8.38288e-07
8.32258e-07
8.27498e-07
8.21275e-07
8.13864e-07
8.04016e-07
7.97517e-07
7.87397e-07
7.80758e-07
7.74515e-07
7.75009e-07
7.76526e-07
7.82782e-07
7.87728e-07
7.9359e-07
8.03385e-07
8.14595e-07
8.18631e-07
8.21832e-07
8.26741e-07
8.31212e-07
8.32771e-07
8.30672e-07
8.31445e-07
8.32036e-07
8.28223e-07
8.25132e-07
8.19037e-07
8.14095e-07
8.07784e-07
7.99992e-07
7.91555e-07
7.85939e-07
7.78797e-07
7.72318e-07
7.69955e-07
7.9092e-07
7.9452e-07
7.99844e-07
8.01313e-07
8.04482e-07
8.08821e-07
8.13892e-07
8.17828e-07
8.21538e-07
8.26689e-07
8.34451e-07
8.36277e-07
8.39236e-07
8.37663e-07
8.35574e-07
8.29819e-07
8.25177e-07
8.19319e-07
8.11546e-07
8.02116e-07
7.95473e-07
7.85966e-07
7.79731e-07
7.73519e-07
7.73884e-07
7.75465e-07
7.81104e-07
7.86127e-07
7.91736e-07
8.01492e-07
8.12686e-07
8.16565e-07
8.202e-07
8.24667e-07
8.29116e-07
8.30209e-07
8.27959e-07
8.28471e-07
8.28433e-07
8.24334e-07
8.21196e-07
8.14877e-07
8.09503e-07
8.02916e-07
7.94902e-07
7.86136e-07
7.80317e-07
7.72771e-07
7.66074e-07
7.63373e-07
7.83361e-07
7.86894e-07
7.9251e-07
7.94196e-07
7.97411e-07
8.0265e-07
8.08071e-07
8.12213e-07
8.16228e-07
8.21782e-07
8.29761e-07
8.31218e-07
8.34314e-07
8.33211e-07
8.31597e-07
8.26389e-07
8.21589e-07
8.16077e-07
8.083e-07
7.99244e-07
7.92193e-07
7.83531e-07
7.77775e-07
7.71513e-07
7.71771e-07
7.73028e-07
7.7851e-07
7.83556e-07
7.88925e-07
7.98319e-07
8.09553e-07
8.13224e-07
8.17558e-07
8.21583e-07
8.26025e-07
8.26687e-07
8.24247e-07
8.24224e-07
8.23877e-07
8.19457e-07
8.16014e-07
8.09723e-07
8.03975e-07
7.96836e-07
7.88609e-07
7.79779e-07
7.73838e-07
7.65578e-07
7.58901e-07
7.55667e-07
7.74705e-07
7.7842e-07
7.84078e-07
7.86181e-07
7.8944e-07
7.9555e-07
8.0128e-07
8.05627e-07
8.09926e-07
8.15796e-07
8.23808e-07
8.25142e-07
8.28416e-07
8.27785e-07
8.26317e-07
8.21615e-07
8.1701e-07
8.1187e-07
8.03813e-07
7.95082e-07
7.88025e-07
7.80116e-07
7.74891e-07
7.68515e-07
7.68392e-07
7.6927e-07
7.7469e-07
7.79708e-07
7.85167e-07
7.94197e-07
8.05222e-07
8.08927e-07
8.1358e-07
8.17186e-07
8.21631e-07
8.21888e-07
8.19511e-07
8.18966e-07
8.18075e-07
8.13285e-07
8.0958e-07
8.0327e-07
7.97232e-07
7.89828e-07
7.81401e-07
7.72532e-07
7.66265e-07
7.57275e-07
7.50619e-07
7.47151e-07
7.65012e-07
7.69112e-07
7.74832e-07
7.77318e-07
7.80616e-07
7.87303e-07
7.93298e-07
7.98097e-07
8.02634e-07
8.08489e-07
8.1662e-07
8.18068e-07
8.21266e-07
8.21349e-07
8.19725e-07
8.15469e-07
8.11129e-07
8.06364e-07
7.98373e-07
7.89901e-07
7.8293e-07
7.75394e-07
7.70719e-07
7.64513e-07
7.64074e-07
7.64549e-07
7.6994e-07
7.74587e-07
7.80417e-07
7.89095e-07
7.99699e-07
8.03637e-07
8.08238e-07
8.11758e-07
8.15912e-07
8.16061e-07
8.13732e-07
8.1271e-07
8.11292e-07
8.06124e-07
8.02197e-07
7.95546e-07
7.89564e-07
7.81679e-07
7.73071e-07
7.64406e-07
7.57896e-07
7.48188e-07
7.4154e-07
7.37881e-07
7.54561e-07
7.58791e-07
7.64613e-07
7.67417e-07
7.7097e-07
7.78193e-07
7.84184e-07
7.89412e-07
7.94114e-07
7.99929e-07
8.08256e-07
8.10012e-07
8.12908e-07
8.13643e-07
8.11886e-07
8.08016e-07
8.0424e-07
7.99559e-07
7.91978e-07
7.83419e-07
7.76578e-07
7.69665e-07
7.6525e-07
7.5947e-07
7.58779e-07
7.58858e-07
7.63916e-07
7.68518e-07
7.74321e-07
7.82692e-07
7.93286e-07
7.97324e-07
8.01575e-07
8.05282e-07
8.09124e-07
8.0896e-07
8.06908e-07
8.05461e-07
8.03543e-07
7.98024e-07
7.93648e-07
7.86614e-07
7.80758e-07
7.72679e-07
7.63912e-07
7.55195e-07
7.48515e-07
7.38365e-07
7.31728e-07
7.27888e-07
7.43192e-07
7.47727e-07
7.53675e-07
7.56756e-07
7.60535e-07
7.6803e-07
7.74229e-07
7.79854e-07
7.84416e-07
7.90429e-07
7.98776e-07
8.00767e-07
8.03643e-07
8.04718e-07
8.03139e-07
7.99606e-07
7.96387e-07
7.9153e-07
7.84661e-07
7.75977e-07
7.69286e-07
7.62968e-07
7.58799e-07
7.53089e-07
7.52189e-07
7.522e-07
7.56654e-07
7.61534e-07
7.66929e-07
7.75321e-07
7.85999e-07
7.89748e-07
7.93939e-07
7.97518e-07
8.01088e-07
8.00876e-07
7.98828e-07
7.96999e-07
7.94621e-07
7.89009e-07
7.83995e-07
7.76563e-07
7.70861e-07
7.6264e-07
7.53732e-07
7.45178e-07
7.38165e-07
7.27814e-07
7.21202e-07
7.17213e-07
7.31142e-07
7.35957e-07
7.41855e-07
7.45372e-07
7.49336e-07
7.56874e-07
7.63247e-07
7.6924e-07
7.73623e-07
7.79827e-07
7.88239e-07
7.90613e-07
7.9329e-07
7.94665e-07
7.93515e-07
7.90313e-07
7.87363e-07
7.82612e-07
7.76438e-07
7.67632e-07
7.61105e-07
7.55312e-07
7.51126e-07
7.45736e-07
7.44339e-07
7.44616e-07
7.48513e-07
7.5365e-07
7.58603e-07
7.67027e-07
7.77576e-07
7.81234e-07
7.85375e-07
7.88703e-07
7.91887e-07
7.91629e-07
7.89784e-07
7.87613e-07
7.84592e-07
7.78886e-07
7.73528e-07
7.6571e-07
7.59938e-07
7.51834e-07
7.42801e-07
7.34187e-07
7.26909e-07
7.16338e-07
7.09773e-07
7.05886e-07
7.18252e-07
7.2332e-07
7.29383e-07
7.33092e-07
7.37407e-07
7.44994e-07
7.51298e-07
7.57636e-07
7.62043e-07
7.68414e-07
7.76705e-07
7.79373e-07
7.82134e-07
7.83802e-07
7.82821e-07
7.80177e-07
7.77445e-07
7.72864e-07
7.67069e-07
7.58422e-07
7.52074e-07
7.46456e-07
7.42293e-07
7.37463e-07
7.35315e-07
7.36123e-07
7.39514e-07
7.44605e-07
7.49412e-07
7.57827e-07
7.68045e-07
7.71823e-07
7.75672e-07
7.78731e-07
7.81849e-07
7.81525e-07
7.79591e-07
7.77112e-07
7.73752e-07
7.67945e-07
7.62061e-07
7.54111e-07
7.48064e-07
7.40093e-07
7.30945e-07
7.2249e-07
7.14814e-07
7.04203e-07
6.97685e-07
6.93924e-07
7.04573e-07
7.10042e-07
7.16096e-07
7.20152e-07
7.24774e-07
7.32238e-07
7.38654e-07
7.45313e-07
7.49733e-07
7.56248e-07
7.64242e-07
7.67113e-07
7.70223e-07
7.72164e-07
7.71322e-07
7.69233e-07
7.66462e-07
7.62293e-07
7.56597e-07
7.48382e-07
7.42212e-07
7.3647e-07
7.32618e-07
7.28036e-07
7.25468e-07
7.26508e-07
7.29432e-07
7.34443e-07
7.39393e-07
7.47516e-07
7.57456e-07
7.61312e-07
7.65106e-07
7.67915e-07
7.71034e-07
7.70623e-07
7.6832e-07
7.65564e-07
7.62139e-07
7.56226e-07
7.49651e-07
7.41794e-07
7.35517e-07
7.27663e-07
7.18418e-07
7.09936e-07
7.01927e-07
6.91453e-07
6.84788e-07
6.81151e-07
6.90343e-07
6.95997e-07
7.02045e-07
7.06409e-07
7.11286e-07
7.18831e-07
7.2535e-07
7.32125e-07
7.3673e-07
7.4336e-07
7.51101e-07
7.54118e-07
7.57568e-07
7.59555e-07
7.59049e-07
7.57494e-07
7.54667e-07
7.50686e-07
7.45096e-07
7.37536e-07
7.31529e-07
7.25684e-07
7.21913e-07
7.1753e-07
7.14853e-07
7.16069e-07
7.18577e-07
7.23245e-07
7.28562e-07
7.36371e-07
7.45861e-07
7.49981e-07
7.53489e-07
7.56287e-07
7.59459e-07
7.58954e-07
7.56258e-07
7.53262e-07
7.49569e-07
7.43566e-07
7.36571e-07
7.28773e-07
7.22132e-07
7.14403e-07
7.05062e-07
6.9681e-07
6.88487e-07
6.78108e-07
6.7132e-07
6.6761e-07
6.75605e-07
6.81413e-07
6.87464e-07
6.92077e-07
6.97172e-07
7.04623e-07
7.11223e-07
7.18296e-07
7.23066e-07
7.29769e-07
7.37119e-07
7.40442e-07
7.43985e-07
7.46024e-07
7.45815e-07
7.44773e-07
7.42103e-07
7.38099e-07
7.32848e-07
7.25909e-07
7.19837e-07
7.14156e-07
7.10458e-07
7.06275e-07
7.03503e-07
7.0463e-07
7.06989e-07
7.11322e-07
7.16726e-07
7.24223e-07
7.33314e-07
7.37667e-07
7.40876e-07
7.43674e-07
7.4692e-07
7.46529e-07
7.43449e-07
7.40043e-07
7.36097e-07
7.30202e-07
7.22873e-07
7.14883e-07
7.07977e-07
7.00543e-07
6.91133e-07
6.82953e-07
6.74536e-07
6.64017e-07
6.57313e-07
6.60385e-07
6.66333e-07
6.72384e-07
6.77017e-07
6.82476e-07
6.89663e-07
6.96335e-07
7.03678e-07
7.08772e-07
7.15334e-07
7.22338e-07
7.26112e-07
7.29512e-07
7.31816e-07
7.31669e-07
7.31127e-07
7.28629e-07
7.24795e-07
7.19672e-07
7.13302e-07
7.07364e-07
7.0191e-07
6.98056e-07
6.9407e-07
6.91441e-07
6.92467e-07
6.94683e-07
6.98722e-07
7.04166e-07
7.11335e-07
7.19883e-07
7.24634e-07
7.27534e-07
7.30327e-07
7.33452e-07
7.33171e-07
7.29735e-07
7.25952e-07
7.21973e-07
7.15986e-07
7.08578e-07
7.00313e-07
6.93108e-07
6.86083e-07
6.76487e-07
6.68393e-07
6.601e-07
6.49404e-07
6.44706e-07
6.50776e-07
6.56676e-07
6.61276e-07
6.67074e-07
6.74171e-07
6.80909e-07
6.88308e-07
6.93871e-07
7.00264e-07
7.06991e-07
7.11148e-07
7.14217e-07
7.16801e-07
7.16849e-07
7.16808e-07
7.14473e-07
7.10633e-07
7.05619e-07
6.9976e-07
6.93966e-07
6.88964e-07
6.84762e-07
6.80971e-07
6.78668e-07
6.79412e-07
6.81461e-07
6.85475e-07
6.90937e-07
6.97748e-07
7.05815e-07
7.10721e-07
7.13316e-07
7.16267e-07
7.19103e-07
7.18918e-07
7.15339e-07
7.11231e-07
7.07241e-07
7.00975e-07
6.93536e-07
6.85147e-07
6.77751e-07
6.70911e-07
6.61327e-07
6.53347e-07
6.45204e-07
6.28458e-07
6.34619e-07
6.40524e-07
6.45065e-07
6.5116e-07
6.58192e-07
6.64969e-07
6.72244e-07
6.78235e-07
6.84449e-07
6.91104e-07
6.95421e-07
6.98334e-07
7.01196e-07
7.01403e-07
7.01691e-07
6.99505e-07
6.95854e-07
6.90935e-07
6.85348e-07
6.79846e-07
6.75144e-07
6.70843e-07
6.67263e-07
6.65004e-07
6.65722e-07
6.67379e-07
6.71599e-07
6.77062e-07
6.83307e-07
6.9114e-07
6.95992e-07
6.98466e-07
7.01479e-07
7.03926e-07
7.03947e-07
7.00136e-07
6.9591e-07
6.91752e-07
6.85404e-07
6.77955e-07
6.6944e-07
6.61911e-07
6.55085e-07
6.45509e-07
6.37676e-07
6.11821e-07
6.17909e-07
6.23815e-07
6.28421e-07
6.3464e-07
6.41758e-07
6.484e-07
6.55681e-07
6.62064e-07
6.68086e-07
6.74547e-07
6.79121e-07
6.81908e-07
6.84883e-07
6.85374e-07
6.85993e-07
6.83798e-07
6.8049e-07
6.75487e-07
6.70137e-07
6.65033e-07
6.6051e-07
6.56338e-07
6.5297e-07
6.50652e-07
6.51422e-07
6.52698e-07
6.56926e-07
6.6237e-07
6.6823e-07
6.75886e-07
6.80683e-07
6.83032e-07
6.85871e-07
6.87989e-07
6.88195e-07
6.84329e-07
6.79851e-07
6.75553e-07
6.69308e-07
6.61707e-07
6.53071e-07
6.45606e-07
6.3881e-07
6.29229e-07
5.94827e-07
6.00821e-07
6.06586e-07
6.11373e-07
6.17693e-07
6.24896e-07
6.31397e-07
6.38522e-07
6.4525e-07
6.51069e-07
6.57504e-07
6.62162e-07
6.64971e-07
6.6807e-07
6.688e-07
6.69603e-07
6.67568e-07
6.64412e-07
6.59504e-07
6.54358e-07
6.49617e-07
6.45301e-07
6.41092e-07
6.37937e-07
6.35712e-07
6.36511e-07
6.37468e-07
6.41678e-07
6.46903e-07
6.52399e-07
6.59923e-07
6.64802e-07
6.67048e-07
6.69521e-07
6.71518e-07
6.71727e-07
6.67802e-07
6.63249e-07
6.58852e-07
6.5257e-07
6.44996e-07
6.3624e-07
6.28852e-07
6.2197e-07
6.1238e-07
5.77387e-07
5.83282e-07
5.88895e-07
5.93948e-07
6.00221e-07
6.07502e-07
6.14005e-07
6.20942e-07
6.27842e-07
6.33452e-07
6.39876e-07
6.44734e-07
6.47568e-07
6.50791e-07
6.51713e-07
6.52727e-07
6.50825e-07
6.47824e-07
6.43032e-07
6.3805e-07
6.33666e-07
6.29383e-07
6.25336e-07
6.224e-07
6.2025e-07
6.21046e-07
6.21727e-07
6.25734e-07
6.30736e-07
6.36034e-07
6.43453e-07
6.48236e-07
6.50534e-07
6.52653e-07
6.5455e-07
6.54615e-07
6.50609e-07
6.45993e-07
6.41535e-07
6.35375e-07
6.27854e-07
6.18993e-07
6.11542e-07
6.046e-07
5.95153e-07
5.59542e-07
5.6545e-07
5.70916e-07
5.7619e-07
5.82267e-07
5.89616e-07
5.96134e-07
6.0299e-07
6.09909e-07
6.15432e-07
6.2184e-07
6.26754e-07
6.29737e-07
6.3294e-07
6.34015e-07
6.35401e-07
6.33454e-07
6.30618e-07
6.26103e-07
6.21256e-07
6.17216e-07
6.12811e-07
6.09113e-07
6.06397e-07
6.04299e-07
6.04922e-07
6.0551e-07
6.09315e-07
6.14106e-07
6.19181e-07
6.26356e-07
6.3103e-07
6.33364e-07
6.35321e-07
6.36972e-07
6.37054e-07
6.3295e-07
6.28137e-07
6.23654e-07
6.1763e-07
6.10166e-07
6.01353e-07
5.93846e-07
5.8675e-07
5.77594e-07
5.41348e-07
5.47257e-07
5.52683e-07
5.58135e-07
5.63889e-07
5.71298e-07
5.77945e-07
5.84705e-07
5.91643e-07
5.97058e-07
6.03314e-07
6.08399e-07
6.11382e-07
6.14698e-07
6.15891e-07
6.17512e-07
6.15629e-07
6.12993e-07
6.08741e-07
6.04005e-07
6.00157e-07
5.95791e-07
5.92447e-07
5.89958e-07
5.87891e-07
5.88321e-07
5.88851e-07
5.92474e-07
5.97064e-07
6.0187e-07
6.08684e-07
6.13236e-07
6.15582e-07
6.17564e-07
6.18958e-07
6.1895e-07
6.14875e-07
6.09874e-07
6.05391e-07
5.99508e-07
5.91975e-07
5.83227e-07
5.75808e-07
5.68477e-07
5.59743e-07
5.22953e-07
5.28845e-07
5.34122e-07
5.39713e-07
5.45254e-07
5.52713e-07
5.59355e-07
5.6612e-07
5.73091e-07
5.78369e-07
5.84468e-07
5.89592e-07
5.92684e-07
5.96103e-07
5.97393e-07
5.99102e-07
5.97272e-07
5.94983e-07
5.90839e-07
5.86203e-07
5.82544e-07
5.78224e-07
5.75222e-07
5.72959e-07
5.70908e-07
5.71324e-07
5.71788e-07
5.75249e-07
5.79646e-07
5.84116e-07
5.90633e-07
5.94908e-07
5.97255e-07
5.99409e-07
6.00425e-07
6.00356e-07
5.96424e-07
5.91256e-07
5.8666e-07
5.80925e-07
5.73341e-07
5.64787e-07
5.57473e-07
5.49954e-07
5.41637e-07
5.043e-07
5.10156e-07
5.15379e-07
5.2097e-07
5.26411e-07
5.33801e-07
5.40517e-07
5.47164e-07
5.54283e-07
5.59393e-07
5.65337e-07
5.70492e-07
5.73672e-07
5.77063e-07
5.78559e-07
5.80226e-07
5.7856e-07
5.76487e-07
5.72572e-07
5.68038e-07
5.64575e-07
5.60303e-07
5.57625e-07
5.55583e-07
5.5355e-07
5.53979e-07
5.54356e-07
5.57671e-07
5.61882e-07
5.65984e-07
5.72115e-07
5.7611e-07
5.78567e-07
5.80764e-07
5.81541e-07
5.81441e-07
5.77639e-07
5.72321e-07
5.6751e-07
5.61936e-07
5.54441e-07
5.46082e-07
5.3888e-07
5.31222e-07
5.23309e-07
4.85437e-07
4.91235e-07
4.9649e-07
5.01964e-07
5.07398e-07
5.14705e-07
5.21375e-07
5.27991e-07
5.35141e-07
5.40064e-07
5.45854e-07
5.51025e-07
5.5427e-07
5.57629e-07
5.59424e-07
5.60937e-07
5.59536e-07
5.57549e-07
5.53855e-07
5.49561e-07
5.46295e-07
5.42068e-07
5.39571e-07
5.37737e-07
5.35859e-07
5.36315e-07
5.36592e-07
5.39766e-07
5.43803e-07
5.4752e-07
5.53186e-07
5.57029e-07
5.5945e-07
5.61684e-07
5.62357e-07
5.6213e-07
5.58452e-07
5.53107e-07
5.48114e-07
5.42701e-07
5.3532e-07
5.27154e-07
5.19958e-07
5.12313e-07
4.66499e-07
4.72133e-07
4.77399e-07
4.82836e-07
4.88251e-07
4.95377e-07
5.02076e-07
5.08647e-07
5.15712e-07
5.20533e-07
5.2617e-07
5.31243e-07
5.34638e-07
5.37967e-07
5.39925e-07
5.41298e-07
5.40138e-07
5.38225e-07
5.34735e-07
5.30814e-07
5.27615e-07
5.2356e-07
5.21241e-07
5.19467e-07
5.1787e-07
5.18231e-07
5.18527e-07
5.21438e-07
5.25325e-07
5.2865e-07
5.33894e-07
5.37702e-07
5.40073e-07
5.42337e-07
5.4291e-07
5.42465e-07
5.39016e-07
5.33657e-07
5.28518e-07
5.2316e-07
5.16008e-07
5.08041e-07
5.00751e-07
4.93261e-07
4.47525e-07
4.52988e-07
4.58156e-07
4.63546e-07
4.69006e-07
4.75947e-07