/*--------------------------------*- C++ -*----------------------------------*\
  =========                 |
  \\      /  F ield         | OpenFOAM: The Open Source CFD Toolbox
   \\    /   O peration     | Website:  https://openfoam.org
    \\  /    A nd           | Version:  7
     \\/     M anipulation  |
\*---------------------------------------------------------------------------*/
FoamFile
{
    version     2.0;
    format      ascii;
    class       volVectorField;
    location    "48000";
    object      U;
}
// * * * * * * * * * * * * * * * * * * * * * * * * * * * * * * * * * * * * * //

dimensions      [0 1 -1 0 0 0 0];

internalField   nonuniform List<vector> 
4825
(
(-1.09829e-18 -1.54826e-19 -0.00855252)
(-6.29953e-19 -8.15224e-19 -0.00857455)
(-1.20245e-18 -1.49568e-19 -0.00849614)
(-6.60083e-19 -8.37207e-19 -0.00851875)
(-1.57253e-18 -1.8321e-19 -0.00854035)
(-8.25767e-19 -8.10374e-20 -0.00856114)
(-9.39686e-19 -7.86168e-19 -0.00858087)
(-1.35449e-18 -4.6605e-20 -0.00843811)
(-8.18111e-19 -7.35095e-19 -0.00846125)
(-1.47747e-18 -3.40748e-19 -0.00848339)
(-9.28143e-19 -8.96525e-20 -0.00850472)
(-8.83162e-19 -8.71869e-19 -0.008525)
(-1.49631e-18 9.29477e-20 -0.00837848)
(-1.00109e-18 -6.35777e-19 -0.00840213)
(-1.55159e-18 -2.94912e-19 -0.00842478)
(-1.07996e-18 -1.70612e-20 -0.00844662)
(-9.04286e-19 -8.48123e-19 -0.00846741)
(-1.54524e-18 1.04231e-19 -0.00831733)
(-9.57955e-19 -7.93929e-19 -0.00834146)
(-1.66217e-18 -1.89336e-19 -0.00836458)
(-1.20139e-18 -1.04156e-20 -0.00838691)
(-9.57831e-19 -7.90797e-19 -0.00840818)
(-1.40502e-18 -1.36344e-19 -0.00825471)
(-8.07741e-19 -1.07113e-18 -0.00827929)
(-1.54656e-18 -3.34927e-19 -0.00830286)
(-1.12715e-18 -2.60126e-19 -0.00832564)
(-9.38242e-19 -8.13963e-19 -0.00834736)
(-1.29781e-18 -3.71858e-19 -0.00819068)
(-8.18179e-19 -1.14418e-18 -0.00821568)
(-1.43791e-18 -4.88545e-19 -0.00823966)
(-9.9156e-19 -5.69309e-19 -0.00826288)
(-8.52642e-19 -8.66703e-19 -0.00828502)
(-1.36761e-18 -3.86001e-19 -0.00812529)
(-9.64317e-19 -1.04884e-18 -0.00815068)
(-1.47644e-18 -4.82459e-19 -0.00817507)
(-1.01495e-18 -6.63294e-19 -0.00819867)
(-7.71582e-19 -9.16014e-19 -0.0082212)
(-1.51588e-18 -2.70559e-19 -0.00805858)
(-1.21296e-18 -8.31239e-19 -0.00808435)
(-1.51451e-18 -4.84537e-19 -0.00810911)
(-1.1935e-18 -5.6629e-19 -0.00813307)
(-7.53846e-19 -9.1898e-19 -0.00815597)
(-1.52491e-18 -2.6049e-19 -0.0079906)
(-1.59713e-18 -4.74571e-19 -0.00801673)
(-1.53385e-18 -5.218e-19 -0.00804184)
(-1.39192e-18 -4.29754e-19 -0.00806613)
(-8.37858e-19 -7.81397e-19 -0.00808939)
(-1.29292e-18 -4.7976e-19 -0.00792139)
(-1.92463e-18 -1.62847e-19 -0.00794785)
(-1.6357e-18 -4.89918e-19 -0.00797329)
(-1.53543e-18 -3.44872e-19 -0.0079979)
(-9.04702e-19 -6.36241e-19 -0.00802151)
(-1.07983e-18 -6.69166e-19 -0.00785099)
(-1.99935e-18 -1.0015e-19 -0.00787776)
(-1.7223e-18 -4.90164e-19 -0.00790352)
(-1.62964e-18 -3.3216e-19 -0.00792841)
(-9.16615e-19 -5.56579e-19 -0.00795236)
(-9.86201e-19 -7.41278e-19 -0.00777944)
(-1.87191e-18 -2.67263e-19 -0.0078065)
(-1.68764e-18 -6.31283e-19 -0.00783255)
(-1.66797e-18 -3.83553e-19 -0.00785772)
(-9.16128e-19 -4.97361e-19 -0.00788199)
(-9.45866e-19 -7.86212e-19 -0.00770678)
(-1.70867e-18 -4.84326e-19 -0.0077341)
(-1.61471e-18 -7.94441e-19 -0.00776043)
(-1.69014e-18 -4.33402e-19 -0.00778587)
(-9.27358e-19 -8.29031e-19 -0.00763303)
(-1.64514e-18 -5.8851e-19 -0.00766059)
(-1.57516e-18 -8.94255e-19 -0.00768719)
(-1.74876e-18 -4.12842e-19 -0.00771289)
(-8.99156e-19 -8.78594e-19 -0.00755823)
(-1.75474e-18 -4.86332e-19 -0.00758601)
(-1.55688e-18 -9.53846e-19 -0.00761286)
(-1.90015e-18 -2.48136e-19 -0.0076388)
(-8.74401e-19 -9.01764e-19 -0.0074824)
(-1.89255e-18 -3.47498e-19 -0.00751038)
(-1.55883e-18 -9.83302e-19 -0.00753747)
(-8.88311e-19 -8.92686e-19 -0.00740557)
(-1.91675e-18 -3.38098e-19 -0.00743372)
(-1.51758e-18 -1.05492e-18 -0.00746105)
(-9.58282e-19 -8.26137e-19 -0.00732776)
(-1.90631e-18 -3.83584e-19 -0.00735607)
(-1.03097e-18 -7.43533e-19 -0.00724898)
(-1.92122e-18 -4.2604e-19 -0.00727743)
(-1.01876e-18 -7.41949e-19 -0.00716924)
(-1.90801e-18 -5.05978e-19 -0.00719784)
(-1.01307e-18 -7.48246e-19 -0.00708858)
(-1.84188e-18 -6.30826e-19 -0.00711729)
(-1.13915e-18 -6.17488e-19 -0.00700699)
(-1.7951e-18 -7.4249e-19 -0.00703582)
(-1.26862e-18 -4.68537e-19 -0.0069245)
(-1.9359e-19 -4.56511e-19 -0.00913346)
(-6.42956e-19 -3.75054e-20 -0.00914146)
(-2.37798e-19 -8.1103e-20 -0.00914858)
(-6.39647e-19 -3.30664e-19 -0.00915483)
(-5.31246e-19 -3.81597e-19 -0.00916027)
(-2.76753e-19 -2.06881e-19 -0.00916494)
(-2.69531e-19 -4.77108e-19 -0.0091689)
(1.92568e-19 -6.40633e-19 -0.0091722)
(-5.31166e-19 -6.38014e-19 -0.00917492)
(1.98921e-19 -6.11806e-20 -0.00917714)
(-2.74449e-19 -4.27027e-19 -0.00917894)
(-2.63142e-19 -6.01534e-19 -0.00918039)
(-3.76644e-19 -1.20472e-18 -0.00918155)
(-9.94031e-19 -1.39788e-18 -0.00918249)
(-1.8868e-18 -7.02623e-19 -0.00918322)
(-1.27108e-18 5.22634e-19 -0.0091838)
(-1.12419e-19 6.60839e-19 -0.00918426)
(-4.70438e-19 5.31517e-19 -0.00918462)
(2.70803e-19 3.09637e-19 -0.0091849)
(-2.11675e-19 -4.13001e-21 -0.00918513)
(-2.91599e-19 -5.07102e-19 -0.00911297)
(-8.01765e-19 -1.32633e-19 -0.00912237)
(-1.31041e-19 -5.7047e-21 -0.00913092)
(-7.51492e-19 -3.22258e-19 -0.00913862)
(-1.10122e-19 -1.68639e-19 -0.0091455)
(-3.18863e-19 -3.75112e-19 -0.00915161)
(-2.79217e-19 -5.24836e-19 -0.00915697)
(8.71564e-20 -6.39311e-19 -0.00916163)
(-7.11818e-19 -7.05497e-19 -0.00916564)
(7.68405e-20 -1.79436e-19 -0.00916907)
(-2.65399e-19 -3.97061e-19 -0.00917197)
(-3.66007e-20 -3.93347e-19 -0.00917442)
(1.89658e-19 -9.32451e-19 -0.00917647)
(-8.79742e-19 -1.33415e-18 -0.00917819)
(-1.65253e-18 -6.16239e-19 -0.0091796)
(-1.49879e-18 5.76029e-19 -0.00918075)
(-1.35513e-19 7.71554e-19 -0.00918168)
(-5.75337e-19 5.97801e-19 -0.00918243)
(1.01053e-19 3.73239e-19 -0.00918302)
(-1.30846e-19 1.40703e-19 -0.00918349)
(-5.41936e-19 -6.17442e-19 -0.00908936)
(-9.05393e-19 -2.28155e-19 -0.00910004)
(-7.40153e-20 2.14087e-20 -0.00910989)
(-6.8829e-19 -2.00905e-19 -0.00911889)
(7.29727e-20 -8.48716e-20 -0.00912708)
(-2.21204e-19 -3.99914e-19 -0.0091345)
(-2.21422e-19 -4.97863e-19 -0.00914117)
(-2.24953e-20 -5.86598e-19 -0.00914712)
(-8.6633e-19 -7.61328e-19 -0.0091524)
(8.23301e-20 -2.74424e-19 -0.00915706)
(-3.37772e-19 -3.91031e-19 -0.00916115)
(3.72256e-20 -2.62699e-19 -0.00916472)
(4.09471e-19 -7.39855e-19 -0.00916784)
(-8.44856e-19 -1.14929e-18 -0.00917055)
(-1.50499e-18 -4.46172e-19 -0.00917288)
(-1.45205e-18 6.62659e-19 -0.00917486)
(-2.26897e-20 8.15868e-19 -0.00917653)
(-5.01112e-19 6.6993e-19 -0.00917792)
(2.52867e-19 3.8351e-19 -0.00917904)
(-3.04511e-19 1.4283e-19 -0.00917996)
(-5.33901e-19 -4.97752e-19 -0.00906276)
(-8.32485e-19 -2.27437e-19 -0.00907466)
(3.77135e-20 7.06002e-20 -0.00908574)
(-5.44465e-19 -5.0814e-21 -0.00909594)
(1.29597e-19 -6.51034e-20 -0.00910532)
(-7.7776e-20 -3.73992e-19 -0.00911393)
(-1.15409e-19 -4.06969e-19 -0.00912178)
(5.17426e-20 -3.6881e-19 -0.0091289)
(-9.44965e-19 -7.63371e-19 -0.00913534)
(7.91481e-20 -3.68748e-19 -0.00914114)
(-5.14669e-19 -4.09241e-19 -0.00914635)
(-8.05967e-20 -1.95057e-19 -0.00915102)
(1.86563e-19 -6.86249e-19 -0.00915521)
(-8.46539e-19 -9.63237e-19 -0.00915897)
(-1.26604e-18 -2.62464e-19 -0.0091623)
(-1.10415e-18 7.86786e-19 -0.00916524)
(6.53241e-20 8.07913e-19 -0.00916779)
(-3.57139e-19 7.18839e-19 -0.00916998)
(4.59518e-19 3.79617e-19 -0.00917183)
(-3.85831e-19 3.63504e-20 -0.00917337)
(-3.35553e-19 -2.6144e-19 -0.00903321)
(-7.15515e-19 -1.92984e-19 -0.00904631)
(1.11472e-19 7.22598e-20 -0.00905859)
(-4.56241e-19 1.50923e-19 -0.00906994)
(5.21264e-20 -1.14522e-19 -0.00908045)
(4.90258e-20 -3.32362e-19 -0.00909016)
(-1.22151e-19 -3.76363e-19 -0.00909909)
(-1.12163e-20 -1.85003e-19 -0.00910727)
(-8.40154e-19 -6.23913e-19 -0.00911476)
(-8.04569e-20 -5.1804e-19 -0.00912159)
(-6.6231e-19 -3.82582e-19 -0.00912782)
(-2.3394e-19 -1.42213e-19 -0.00913348)
(7.09254e-20 -6.10729e-19 -0.00913866)
(-6.95826e-19 -7.44058e-19 -0.0091434)
(-1.04518e-18 -1.2313e-19 -0.0091477)
(-8.81154e-19 8.5701e-19 -0.00915158)
(1.49088e-19 7.82606e-19 -0.00915503)
(-3.44799e-19 7.08072e-19 -0.00915806)
(5.06303e-19 3.87233e-19 -0.00916068)
(-4.30879e-19 -4.49901e-20 -0.00916292)
(-2.04755e-19 -1.13798e-19 -0.00900081)
(-7.50776e-19 -2.73353e-19 -0.00901505)
(2.43012e-20 -5.30432e-20 -0.00902848)
(-5.52114e-19 1.97639e-19 -0.00904096)
(-1.3391e-19 -2.45462e-19 -0.00905257)
(1.62481e-19 -2.94313e-19 -0.00906335)
(-4.93515e-19 -5.08219e-19 -0.00907331)
(-2.39458e-19 -1.17893e-19 -0.00908249)
(-6.43582e-19 -4.21129e-19 -0.00909095)
(-6.37673e-21 -5.00176e-19 -0.00909872)
(-8.91279e-19 -4.04134e-19 -0.00910586)
(-3.19818e-19 -8.4587e-20 -0.00911243)
(-6.27611e-22 -5.50991e-19 -0.0091185)
(-6.28956e-19 -5.65465e-19 -0.00912412)
(-9.66452e-19 -2.83375e-20 -0.0091293)
(-7.61339e-19 8.72542e-19 -0.00913403)
(3.20399e-19 7.88616e-19 -0.00913832)
(-4.78418e-19 6.83118e-19 -0.00914215)
(4.48897e-19 4.17736e-19 -0.0091455)
(-4.71993e-19 -1.06315e-19 -0.00914841)
(-1.17043e-19 6.90952e-21 -0.00896568)
(-8.02692e-19 -3.43433e-19 -0.00898099)
(-7.89607e-20 -2.07884e-19 -0.0089955)
(-5.63589e-19 2.84206e-19 -0.00900907)
(-2.47291e-19 -3.58866e-19 -0.00902173)
(1.08186e-19 -3.00329e-19 -0.00903355)
(-1.03373e-18 -7.12731e-19 -0.00904451)
(-3.15542e-19 -4.70607e-20 -0.00905467)
(-5.23502e-19 -3.09004e-19 -0.00906406)
(3.22344e-19 -2.97912e-19 -0.00907273)
(-1.11156e-18 -3.62262e-19 -0.00908074)
(-4.27878e-19 -7.05669e-20 -0.00908814)
(-1.51076e-19 -5.18062e-19 -0.00909502)
(-6.82452e-19 -4.37704e-19 -0.00910145)
(-8.48522e-19 3.99401e-20 -0.00910742)
(-6.75512e-19 8.45159e-19 -0.00911293)
(5.23122e-19 8.35112e-19 -0.00911797)
(-5.8656e-19 6.9568e-19 -0.00912251)
(3.52531e-19 4.60084e-19 -0.00912653)
(-5.70996e-19 -1.42093e-19 -0.00913006)
(-1.1486e-19 3.08812e-20 -0.00892794)
(-6.75535e-19 -2.57043e-19 -0.00894426)
(-8.73444e-20 -3.18698e-19 -0.00895979)
(-4.33454e-19 4.68157e-19 -0.00897439)
(-3.02176e-19 -4.00889e-19 -0.00898805)
(-1.87545e-19 -4.16112e-19 -0.00900085)
(-1.3681e-18 -8.15471e-19 -0.00901276)
(-3.23068e-19 7.09345e-22 -0.00902386)
(-5.64238e-19 -3.05931e-19 -0.00903415)
(4.38724e-19 -1.68726e-19 -0.00904369)
(-1.19887e-18 -2.25746e-19 -0.00905254)
(-4.45053e-19 -2.51783e-20 -0.00906076)
(-3.13805e-19 -5.07241e-19 -0.00906841)
(-5.69618e-19 -2.94273e-19 -0.00907561)
(-5.27428e-19 1.65958e-19 -0.00908233)
(-6.23884e-19 7.94541e-19 -0.00908855)
(5.24171e-19 8.45095e-19 -0.00909427)
(-5.81905e-19 7.82122e-19 -0.00909946)
(3.5715e-19 5.56273e-19 -0.00910409)
(-7.14322e-19 -1.84975e-19 -0.00910818)
(3.98375e-19 5.67813e-19 -0.00911171)
(2.23919e-19 2.25751e-19 -0.00911457)
(1.97164e-19 -1.26835e-19 -0.00911675)
(-7.52092e-20 3.31907e-19 -0.00911816)
(1.40542e-18 -1.16287e-19 -0.00911879)
(1.10906e-19 -1.41254e-18 -0.00911867)
(-3.89976e-19 -7.45629e-19 -0.00911781)
(3.50132e-19 -1.12432e-18 -0.00911625)
(-2.80736e-19 -7.25198e-19 -0.00911401)
(3.96602e-19 -7.59672e-19 -0.00911118)
(-1.47197e-19 -4.05009e-19 -0.00910782)
(3.1135e-19 -4.10901e-19 -0.00910393)
(-6.72392e-19 -8.87943e-19 -0.00909954)
(-1.00816e-18 -4.62129e-19 -0.00909463)
(-1.11511e-18 -2.59434e-19 -0.00908922)
(-3.75762e-19 -1.76512e-19 -0.00888772)
(-4.79914e-19 -1.27236e-19 -0.008905)
(-2.07574e-19 -5.18476e-19 -0.00892147)
(-3.85281e-19 5.72504e-19 -0.00893704)
(-4.3293e-19 -4.44052e-19 -0.00895164)
(-4.23436e-19 -4.67227e-19 -0.00896538)
(-1.31421e-18 -7.3098e-19 -0.00897819)
(-3.04193e-19 4.54923e-20 -0.00899016)
(-6.6505e-19 -3.45254e-19 -0.00900131)
(2.93324e-19 -1.73308e-19 -0.00901168)
(-1.27439e-18 -9.06781e-20 -0.00902133)
(-1.64261e-19 1.38304e-19 -0.00903034)
(-4.86739e-19 -5.09236e-19 -0.00903874)
(-4.15775e-19 -1.91935e-19 -0.00904669)
(-2.49505e-19 2.79212e-19 -0.00905413)
(-5.54671e-19 7.93824e-19 -0.00906104)
(1.43344e-19 7.62557e-19 -0.00906741)
(-5.65153e-19 8.46702e-19 -0.00907321)
(5.32322e-19 7.07278e-19 -0.00907841)
(-7.43006e-19 -1.65338e-19 -0.00908302)
(2.73892e-19 5.68475e-19 -0.00908702)
(2.10273e-19 2.85025e-19 -0.00909028)
(1.04613e-19 -1.33482e-19 -0.00909276)
(-6.37599e-21 3.39739e-19 -0.00909437)
(1.38114e-18 -6.30564e-20 -0.00909509)
(-3.55362e-21 -1.30834e-18 -0.00909494)
(-4.8702e-19 -6.46346e-19 -0.00909396)
(5.1239e-19 -1.13598e-18 -0.00909217)
(-3.60908e-19 -6.95696e-19 -0.00908963)
(1.43237e-19 -7.53786e-19 -0.00908641)
(-2.42091e-19 -3.78989e-19 -0.00908259)
(4.68607e-19 -3.70739e-19 -0.0090782)
(-5.48972e-19 -9.05512e-19 -0.00907326)
(-9.32237e-19 -4.17539e-19 -0.00906776)
(-1.00953e-18 -1.99988e-19 -0.00906173)
(-5.89931e-19 -2.67883e-19 -0.00905515)
(3.63341e-20 -1.08914e-18 -0.00904807)
(-5.16473e-19 -2.65534e-19 -0.00884514)
(-2.80736e-19 -1.33067e-20 -0.00886331)
(-4.65663e-19 -8.10351e-19 -0.00888067)
(-4.2976e-19 5.93682e-19 -0.00889714)
(-5.73816e-19 -4.95493e-19 -0.00891264)
(-3.05257e-19 -3.51225e-19 -0.00892725)
(-9.03431e-19 -4.52617e-19 -0.00894091)
(-3.00074e-19 1.02804e-19 -0.00895371)
(-4.60079e-19 -2.02532e-19 -0.00896567)
(3.87802e-20 -2.26067e-19 -0.00897681)
(-1.32609e-18 -2.19905e-20 -0.00898722)
(1.15673e-19 3.02669e-19 -0.00899698)
(-7.09442e-19 -4.99736e-19 -0.0090061)
(-2.85265e-19 -1.38611e-19 -0.00901475)
(-1.86234e-19 3.23783e-19 -0.00902288)
(-4.12405e-19 8.62505e-19 -0.00903045)
(-2.1076e-19 6.95664e-19 -0.00903744)
(-6.85234e-19 8.23276e-19 -0.00904383)
(5.6033e-19 8.26748e-19 -0.00904958)
(-7.03706e-19 -1.19179e-19 -0.0090547)
(3.09722e-19 5.757e-19 -0.00905915)
(2.54862e-19 3.58751e-19 -0.00906278)
(1.30016e-19 -1.15276e-19 -0.00906555)
(-1.00384e-19 3.28993e-19 -0.00906735)
(1.25621e-18 -5.1382e-21 -0.00906815)
(-5.78742e-20 -1.19105e-18 -0.00906798)
(-4.62024e-19 -5.91828e-19 -0.00906689)
(6.92004e-19 -1.14445e-18 -0.00906489)
(-3.2476e-19 -6.22433e-19 -0.00906204)
(-3.42019e-20 -7.44416e-19 -0.00905845)
(-3.30648e-19 -3.96383e-19 -0.0090542)
(5.47132e-19 -3.28881e-19 -0.00904931)
(-3.82572e-19 -8.96386e-19 -0.00904385)
(-9.81008e-19 -3.40096e-19 -0.00903777)
(-7.82897e-19 -2.0152e-19 -0.00903113)
(-4.02406e-19 -3.35451e-19 -0.00902391)
(5.84612e-20 -1.06052e-18 -0.00901618)
(-4.55088e-19 -5.7437e-19 -0.00900789)
(-4.37565e-19 -1.81697e-19 -0.00880029)
(-1.3428e-19 1.11506e-19 -0.00881931)
(-6.57067e-19 -1.03118e-18 -0.00883749)
(-5.1497e-19 5.38869e-19 -0.00885483)
(-4.51211e-19 -4.09059e-19 -0.00887117)
(-2.86501e-21 -1.74295e-19 -0.00888659)
(-5.43579e-19 -1.8247e-19 -0.00890105)
(-4.52564e-19 6.52625e-20 -0.00891463)
(-1.49152e-19 2.70191e-21 -0.00892734)
(-1.85593e-19 -2.21145e-19 -0.00893923)
(-1.21372e-18 8.66066e-20 -0.00895035)
(7.67487e-20 3.44081e-19 -0.00896081)
(-8.24146e-19 -4.52132e-19 -0.00897061)
(-1.98928e-19 -1.27649e-19 -0.00897992)
(-3.33459e-19 2.86052e-19 -0.00898869)
(-4.77548e-19 8.81324e-19 -0.00899689)
(-3.32767e-19 7.21065e-19 -0.00900447)
(-7.78595e-19 7.93925e-19 -0.00901142)
(5.05858e-19 9.0435e-19 -0.00901768)
(-4.9039e-19 -5.34925e-20 -0.00902327)
(2.91508e-19 5.65212e-19 -0.00902814)
(2.02738e-19 4.13821e-19 -0.00903212)
(2.71465e-19 -7.59777e-20 -0.00903518)
(-1.28726e-19 3.30915e-19 -0.00903717)
(1.0664e-18 3.9837e-20 -0.00903804)
(2.02354e-20 -1.08166e-18 -0.00903786)
(-4.34476e-19 -5.55734e-19 -0.00903665)
(8.04305e-19 -1.14779e-18 -0.00903444)
(-2.76584e-19 -5.41682e-19 -0.00903131)
(1.28212e-19 -7.68696e-19 -0.00902736)
(-3.34531e-19 -4.21133e-19 -0.00902269)
(4.321e-19 -2.7546e-19 -0.00901735)
(-3.11806e-19 -8.44562e-19 -0.00901137)
(-1.05543e-18 -2.59712e-19 -0.00900475)
(-5.63736e-19 -2.31344e-19 -0.00899754)
(-1.98793e-19 -4.0149e-19 -0.00898973)
(3.38379e-20 -1.02803e-18 -0.00898137)
(-2.7922e-19 -6.21061e-19 -0.00897245)
(2.57503e-19 -7.00113e-19 -0.00896287)
(-1.55172e-19 6.77579e-20 -0.0089527)
(-4.41669e-19 -1.90754e-19 -0.0087533)
(-4.13164e-20 2.08878e-19 -0.00877311)
(-6.83692e-19 -1.10173e-18 -0.00879207)
(-6.11634e-19 4.24807e-19 -0.00881021)
(-1.08359e-19 -2.21018e-19 -0.00882734)
(9.15407e-20 -1.29555e-19 -0.00884352)
(-4.58136e-19 -2.75117e-20 -0.00885874)
(-8.23702e-19 -9.71334e-20 -0.00887304)
(-4.31382e-20 8.89719e-20 -0.00888647)
(-2.21148e-19 -1.32818e-19 -0.00889906)
(-9.95098e-19 2.28548e-19 -0.00891085)
(-7.94546e-20 3.51037e-19 -0.00892195)
(-7.23477e-19 -3.39388e-19 -0.00893239)
(-3.23992e-19 -1.74314e-19 -0.00894232)
(-5.49092e-19 2.53792e-19 -0.00895169)
(-6.60062e-19 8.42341e-19 -0.00896048)
(-4.47001e-19 7.14776e-19 -0.00896861)
(-5.67322e-19 8.1575e-19 -0.00897607)
(3.86068e-19 9.33024e-19 -0.00898281)
(-3.1198e-19 1.32482e-20 -0.00898885)
(1.25486e-19 5.64545e-19 -0.0089941)
(1.37149e-19 4.44532e-19 -0.00899842)
(3.77546e-19 -5.06868e-20 -0.00900174)
(-1.25339e-19 3.54272e-19 -0.00900391)
(8.56686e-19 7.40627e-20 -0.00900485)
(1.85046e-20 -9.8203e-19 -0.00900466)
(-4.09442e-19 -5.38233e-19 -0.00900334)
(8.61007e-19 -1.15544e-18 -0.00900094)
(-2.38798e-19 -4.75379e-19 -0.00899754)
(3.26725e-19 -8.03075e-19 -0.00899325)
(-3.23581e-19 -4.1508e-19 -0.0089882)
(2.79559e-19 -2.0976e-19 -0.00898241)
(-3.8835e-19 -7.64859e-19 -0.00897596)
(-9.51212e-19 -2.47359e-19 -0.00896884)
(-5.24452e-19 -2.50696e-19 -0.00896108)
(4.15742e-20 -4.68406e-19 -0.00895272)
(-6.73089e-21 -9.86051e-19 -0.00894378)
(-1.94382e-19 -6.4948e-19 -0.00893426)
(1.77335e-19 -6.14949e-19 -0.00892405)
(8.20457e-20 9.12069e-20 -0.00891326)
(-1.58305e-19 -1.1607e-18 -0.00890182)
(-4.49281e-19 -6.08718e-19 -0.00888969)
(-4.24834e-19 -1.90643e-19 -0.00870425)
(3.83717e-20 2.87905e-19 -0.00872481)
(-5.99109e-19 -1.06479e-18 -0.00874449)
(-7.04969e-19 2.65431e-19 -0.00876339)
(4.87644e-20 -1.61619e-19 -0.00878126)
(-7.33692e-20 -2.1367e-19 -0.00879816)
(-4.74134e-19 9.39607e-20 -0.00881409)
(-1.10912e-18 -2.23548e-19 -0.00882908)
(-5.19642e-20 4.96985e-20 -0.00884317)
(-2.20529e-19 -4.25891e-20 -0.00885642)
(-7.34195e-19 4.09743e-19 -0.00886883)
(-2.15316e-19 3.5916e-19 -0.00888054)
(-6.66686e-19 -2.3058e-19 -0.00889158)
(-6.40503e-19 -2.65875e-19 -0.00890209)
(-5.62465e-19 2.57179e-19 -0.00891202)
(-5.94738e-19 8.71992e-19 -0.00892136)
(-5.41758e-19 6.77026e-19 -0.00893)
(-2.98069e-19 8.46759e-19 -0.00893794)
(1.97365e-19 9.69828e-19 -0.00894513)
(-3.3399e-19 4.4529e-20 -0.00895157)
(-1.19961e-19 5.41071e-19 -0.00895717)
(2.32411e-19 4.63853e-19 -0.0089618)
(1.6218e-19 -4.55281e-20 -0.00896537)
(-1.3372e-19 3.88758e-19 -0.00896771)
(6.82483e-19 1.0962e-19 -0.00896872)
(-1.09676e-19 -9.01326e-19 -0.00896851)
(-3.45583e-19 -5.48497e-19 -0.0089671)
(7.74086e-19 -1.15798e-18 -0.00896451)
(-1.52876e-19 -4.2631e-19 -0.00896088)
(3.7905e-19 -8.15893e-19 -0.00895627)
(-2.99378e-19 -3.97182e-19 -0.00895084)
(2.2468e-19 -1.69803e-19 -0.00894465)
(-4.60385e-19 -7.10578e-19 -0.00893776)
(-7.49521e-19 -2.64102e-19 -0.00893016)
(-6.89158e-19 -2.21485e-19 -0.00892189)
(1.09636e-19 -4.98121e-19 -0.00891301)
(4.09706e-20 -9.65974e-19 -0.00890353)
(-2.29309e-19 -6.20365e-19 -0.00889346)
(1.5981e-20 -5.18091e-19 -0.00888266)
(3.70407e-19 3.73432e-20 -0.00887128)
(1.38345e-19 -1.29581e-18 -0.00885924)
(-3.59615e-19 -6.62548e-19 -0.00884647)
(2.52396e-19 -1.38015e-18 -0.00883284)
(-4.31796e-19 -6.47261e-19 -0.00881841)
(-4.12047e-19 -1.27819e-18 -0.00880309)
(-3.2856e-19 -1.45247e-19 -0.00865324)
(9.78165e-20 3.43682e-19 -0.0086745)
(-4.54533e-19 -9.53829e-19 -0.00869487)
(-6.69373e-19 2.17195e-19 -0.00871448)
(-3.97848e-20 -2.67433e-19 -0.00873304)
(-3.12853e-19 -3.65048e-19 -0.00875062)
(-4.40553e-19 2.33063e-19 -0.00876722)
(-1.10165e-18 -1.77509e-19 -0.00878285)
(-2.3389e-19 -8.21147e-20 -0.00879756)
(-5.07898e-19 -1.32876e-19 -0.00881143)
(-5.14434e-19 5.63045e-19 -0.00882442)
(-4.37706e-19 3.63219e-19 -0.00883669)
(-6.42655e-19 -1.1696e-19 -0.00884831)
(-7.77125e-19 -3.14188e-19 -0.00885935)
(-4.00441e-19 2.74042e-19 -0.0088698)
(-3.98929e-19 9.43346e-19 -0.00887965)
(-4.92739e-19 6.71805e-19 -0.00888876)
(-3.08027e-19 8.14387e-19 -0.00889714)
(9.38904e-20 1.02557e-18 -0.00890475)
(-2.84073e-19 9.20912e-20 -0.00891156)
(-2.74809e-19 5.05497e-19 -0.00891748)
(3.46007e-19 4.97318e-19 -0.00892239)
(-2.07085e-19 -4.04166e-20 -0.0089262)
(-6.44904e-20 3.95245e-19 -0.0089287)
(6.75396e-19 1.52709e-19 -0.00892977)
(-1.49334e-19 -8.40286e-19 -0.00892956)
(-2.66527e-19 -5.74678e-19 -0.00892805)
(6.68286e-19 -1.17141e-18 -0.00892529)
(-1.46435e-20 -4.01772e-19 -0.00892145)
(2.90169e-19 -8.11368e-19 -0.00891654)
(-2.4828e-19 -3.88219e-19 -0.00891077)
(2.89132e-19 -1.48366e-19 -0.00890419)
(-4.22234e-19 -6.91209e-19 -0.00889689)
(-5.60692e-19 -2.69087e-19 -0.00888885)
(-7.77917e-19 -2.09322e-19 -0.0088801)
(7.47402e-21 -5.08207e-19 -0.00887074)
(7.92036e-20 -9.44147e-19 -0.00886076)
(-3.71382e-19 -5.36881e-19 -0.00885016)
(-1.38005e-19 -4.64741e-19 -0.00883882)
(5.11855e-19 7.62135e-22 -0.00882689)
(4.31235e-19 -1.40603e-18 -0.00881429)
(-2.97502e-19 -7.13125e-19 -0.00880092)
(4.9123e-19 -1.53883e-18 -0.00878668)
(-3.9841e-19 -6.65108e-19 -0.00877163)
(-1.41115e-19 -1.44418e-18 -0.00875567)
(-1.62827e-18 -7.85039e-19 -0.00873879)
(-4.79994e-19 -1.22796e-18 -0.00872091)
(-2.47345e-19 -1.28363e-19 -0.00860036)
(1.28038e-19 3.6824e-19 -0.00862227)
(-3.48075e-19 -8.8377e-19 -0.00864329)
(-5.96871e-19 2.166e-19 -0.00866357)
(-8.75228e-20 -3.02542e-19 -0.00868278)
(-5.04402e-19 -5.06861e-19 -0.00870099)
(-5.06643e-19 2.69166e-19 -0.00871822)
(-9.45567e-19 -1.73881e-20 -0.00873447)
(-5.46308e-19 -2.37493e-19 -0.00874976)
(-7.92181e-19 -2.60497e-19 -0.00876421)
(-5.26955e-19 5.96039e-19 -0.00877773)
(-6.29962e-19 3.71944e-19 -0.00879053)
(-5.2516e-19 3.05192e-21 -0.00880268)
(-6.25537e-19 -2.70339e-19 -0.00881423)
(-2.87388e-19 2.56212e-19 -0.00882516)
(-3.4599e-19 9.78464e-19 -0.00883547)
(-4.08308e-19 7.05487e-19 -0.00884502)
(-5.84034e-19 7.31854e-19 -0.00885382)
(1.60766e-19 1.08266e-18 -0.00886181)
(-2.28721e-19 1.35709e-19 -0.00886895)
(-3.62071e-19 4.76324e-19 -0.00887516)
(3.46276e-19 5.27487e-19 -0.00888033)
(-3.48312e-19 -2.57448e-20 -0.00888435)
(1.76018e-19 3.73961e-19 -0.00888699)
(7.81147e-19 1.96945e-19 -0.00888813)
(-1.22332e-19 -7.81389e-19 -0.00888792)
(-2.0285e-19 -6.06682e-19 -0.00888632)
(5.77411e-19 -1.1959e-18 -0.00888342)
(-1.84737e-21 -3.59459e-19 -0.00887938)
(1.47776e-19 -7.93187e-19 -0.00887419)
(-2.17781e-19 -4.01552e-19 -0.0088681)
(2.62552e-19 -1.27892e-19 -0.00886117)
(-3.37962e-19 -6.88276e-19 -0.00885348)
(-4.84287e-19 -2.42757e-19 -0.00884503)
(-6.35202e-19 -2.44072e-19 -0.00883584)
(-1.38475e-19 -5.05666e-19 -0.00882604)
(4.00311e-20 -8.93424e-19 -0.00881559)
(-5.39756e-19 -4.33282e-19 -0.0088045)
(-2.44772e-19 -4.45464e-19 -0.00879265)
(4.50976e-19 1.0021e-20 -0.0087802)
(6.76243e-19 -1.51112e-18 -0.00876709)
(-2.44678e-19 -7.56292e-19 -0.00875315)
(6.78074e-19 -1.6587e-18 -0.00873833)
(-3.09381e-19 -7.34314e-19 -0.0087227)
(1.50054e-19 -1.67204e-18 -0.00870615)
(-1.28678e-18 -1.07866e-18 -0.00868866)
(-4.04037e-19 -1.38074e-18 -0.00867011)
(-1.17107e-18 -7.83876e-19 -0.00865045)
(-9.46785e-19 -2.51852e-19 -0.00862962)
(-1.53616e-18 -1.18655e-18 -0.00860749)
(-2.14263e-19 -1.59054e-19 -0.0085457)
(1.2254e-19 3.62307e-19 -0.00856823)
(-3.16885e-19 -8.60844e-19 -0.00858986)
(-6.12513e-19 1.51237e-19 -0.00861075)
(6.30783e-20 -1.99017e-19 -0.00863058)
(-5.77832e-19 -5.58014e-19 -0.00864938)
(-5.65256e-19 2.75667e-19 -0.0086672)
(-7.12304e-19 1.967e-19 -0.00868403)
(-6.03844e-19 -2.29061e-19 -0.00869986)
(-6.9637e-19 -2.23967e-19 -0.00871485)
(-7.71531e-19 5.11036e-19 -0.00872888)
(-6.39082e-19 4.3579e-19 -0.00874217)
(-3.22553e-19 1.29476e-19 -0.00875482)
(-4.92761e-19 -2.28227e-19 -0.00876684)
(-4.36619e-19 1.82955e-19 -0.00877822)
(-5.16702e-19 9.41813e-19 -0.00878895)
(-3.83681e-19 7.42006e-19 -0.0087989)
(-7.5052e-19 6.56785e-19 -0.00880809)
(3.80669e-19 1.13365e-18 -0.00881643)
(-2.50589e-19 1.86953e-19 -0.00882388)
(-4.35201e-19 4.44995e-19 -0.00883034)
(1.51729e-19 5.27489e-19 -0.00883574)
(-3.08327e-19 -2.84514e-20 -0.00883995)
(1.78352e-19 3.27446e-19 -0.00884272)
(7.89112e-19 2.60737e-19 -0.00884392)
(-2.38726e-19 -7.19822e-19 -0.00884371)
(-1.7767e-19 -6.39509e-19 -0.00884205)
(4.43703e-19 -1.21067e-18 -0.00883901)
(-2.17319e-19 -3.01214e-19 -0.0088348)
(-2.41998e-20 -7.87356e-19 -0.00882937)
(-2.73168e-19 -4.0117e-19 -0.00882297)
(1.61207e-19 -9.58059e-20 -0.0088157)
(-2.81243e-19 -6.86146e-19 -0.00880766)
(-5.15997e-19 -2.06247e-19 -0.00879882)
(-4.30714e-19 -2.97797e-19 -0.00878923)
(-1.03959e-19 -5.42827e-19 -0.00877901)
(3.87163e-20 -8.57319e-19 -0.00876815)
(-5.90122e-19 -3.78896e-19 -0.00875658)
(-1.85336e-19 -5.06756e-19 -0.00874427)
(5.24598e-19 -7.08518e-20 -0.00873133)
(7.84678e-19 -1.55252e-18 -0.00871773)
(-2.35273e-19 -7.78073e-19 -0.00870326)
(6.48892e-19 -1.68137e-18 -0.0086879)
(-2.26034e-19 -8.05758e-19 -0.00867172)
(4.71222e-19 -1.9179e-18 -0.00865461)
(-1.07903e-18 -1.25373e-18 -0.00863655)
(-4.66059e-19 -1.40986e-18 -0.00861738)
(-1.12202e-18 -8.17754e-19 -0.00859709)
(-6.13827e-19 -5.81949e-19 -0.00857566)
(-1.47718e-18 -1.31101e-18 -0.00855288)
(-2.58972e-19 -2.49237e-19 -0.00848934)
(6.51824e-20 3.10403e-19 -0.00851244)
(-3.04778e-19 -8.53535e-19 -0.00853465)
(-6.13453e-19 6.75186e-20 -0.0085561)
(2.86303e-19 -4.47463e-20 -0.00857652)
(-6.1693e-19 -5.68693e-19 -0.00859588)
(-4.39926e-19 3.59134e-19 -0.00861424)
(-5.96927e-19 3.27943e-19 -0.00863161)
(-4.872e-19 -1.33846e-19 -0.00864797)
(-5.63122e-19 -1.22222e-19 -0.00866345)
(-9.92333e-19 4.54217e-19 -0.00867795)
(-7.15722e-19 4.13944e-19 -0.00869172)
(-1.66029e-20 2.9682e-19 -0.00870482)
(-4.06701e-19 -1.56227e-19 -0.00871729)
(-7.32195e-19 7.77218e-20 -0.00872907)
(-7.9339e-19 8.51151e-19 -0.0087402)
(-3.69506e-19 7.58167e-19 -0.00875052)
(-5.88292e-19 6.35908e-19 -0.00876006)
(3.71416e-19 1.13827e-18 -0.00876872)
(-3.61005e-19 2.41082e-19 -0.00877644)
(-4.16881e-19 4.43342e-19 -0.00878313)
(-9.83937e-20 5.07631e-19 -0.00878875)
(-2.45916e-19 -3.08873e-20 -0.00879311)
(-1.08256e-19 2.72972e-19 -0.008796)
(6.90982e-19 3.10707e-19 -0.00879727)
(-3.86544e-19 -6.66063e-19 -0.00879707)
(-1.44268e-19 -6.88284e-19 -0.00879534)
(4.10039e-19 -1.21247e-18 -0.00879219)
(-3.5965e-19 -2.44837e-19 -0.00878783)
(-1.8039e-19 -7.95944e-19 -0.00878217)
(-3.95219e-19 -4.07921e-19 -0.00877548)
(2.98267e-19 -1.33419e-19 -0.00876791)
(-1.81019e-19 -6.94438e-19 -0.00875954)
(-4.83882e-19 -1.94437e-19 -0.00875034)
(-1.78126e-19 -3.85324e-19 -0.00874039)
(1.1877e-19 -6.33626e-19 -0.00872977)
(1.63941e-19 -8.52401e-19 -0.00871853)
(-5.61055e-19 -3.64279e-19 -0.00870652)
(-1.16369e-20 -6.33151e-19 -0.00869377)
(6.3947e-19 -1.61062e-19 -0.00868039)
(8.66822e-19 -1.56565e-18 -0.00866631)
(-2.05714e-19 -7.92003e-19 -0.00865136)
(3.95723e-19 -1.57187e-18 -0.00863548)
(-4.60948e-19 -7.45312e-19 -0.0086188)
(5.12848e-19 -2.00644e-18 -0.00860116)
(-1.0003e-18 -1.29256e-18 -0.00858255)
(-7.24088e-19 -1.28104e-18 -0.00856278)
(-1.13077e-18 -8.51316e-19 -0.00854192)
(-3.69176e-19 -8.47418e-19 -0.00851992)
(-1.30191e-18 -1.49363e-18 -0.00849653)
(-3.53063e-19 -3.653e-19 -0.00843135)
(-8.27795e-20 1.70601e-19 -0.00845499)
(-2.4206e-19 -8.08295e-19 -0.00847774)
(-6.86622e-19 -8.71993e-20 -0.00849973)
(3.51508e-19 -2.30102e-21 -0.00852068)
(-7.01514e-19 -6.09931e-19 -0.00854056)
(-3.36597e-19 4.25334e-19 -0.00855943)
(-6.35258e-19 3.84451e-19 -0.00857731)
(-5.86814e-19 -1.50355e-19 -0.00859417)
(-6.5531e-19 -1.241e-19 -0.00861011)
(-1.03501e-18 4.88536e-19 -0.00862505)
(-1.09264e-18 2.35261e-19 -0.00863926)
(1.13476e-19 3.62833e-19 -0.0086528)
(-1.96136e-19 4.08056e-21 -0.00866567)
(-8.82811e-19 5.9394e-20 -0.00867783)
(-1.03211e-18 7.45533e-19 -0.00868932)
(-3.25679e-19 7.35657e-19 -0.00869997)
(-3.59797e-19 6.45966e-19 -0.00870984)
(6.45454e-20 1.11319e-18 -0.00871879)
(-4.22336e-19 2.79423e-19 -0.00872677)
(-3.65581e-19 4.4029e-19 -0.00873364)
(-1.65015e-19 5.08019e-19 -0.00873946)
(-2.49709e-19 -3.58201e-20 -0.00874394)
(-2.97379e-19 2.27405e-19 -0.00874694)
(5.708e-19 3.46714e-19 -0.00874828)
(-1.80622e-19 -6.31625e-19 -0.00874809)
(1.131e-19 -7.63379e-19 -0.00874631)
(4.12351e-19 -1.21639e-18 -0.00874307)
(-2.88715e-19 -2.03383e-19 -0.00873857)
(-2.10366e-19 -8.16271e-19 -0.00873271)
(-3.09288e-19 -4.79306e-19 -0.00872576)
(4.41904e-19 -1.88058e-19 -0.00871791)
(-1.10266e-19 -6.76306e-19 -0.00870924)
(-5.55542e-19 -1.73762e-19 -0.0086997)
(3.59074e-20 -4.79052e-19 -0.0086894)
(1.87079e-19 -6.65674e-19 -0.00867842)
(2.50311e-19 -8.17883e-19 -0.00866682)
(-4.73028e-19 -3.76073e-19 -0.00865441)
(2.27713e-19 -7.9048e-19 -0.00864127)
(5.49495e-19 -1.60354e-19 -0.00862745)
(9.91279e-19 -1.59684e-18 -0.00861293)
(7.24083e-21 -8.67204e-19 -0.00859753)
(2.45733e-19 -1.48685e-18 -0.00858117)
(-6.51837e-19 -7.08715e-19 -0.00856401)
(1.92116e-19 -1.88721e-18 -0.00854588)
(-1.07691e-18 -1.20747e-18 -0.00852675)
(-1.05842e-18 -1.09327e-18 -0.00850641)
(-1.26267e-18 -8.44874e-19 -0.008485)
(-2.82978e-19 -1.0133e-18 -0.00846247)
(-1.09936e-18 -1.6628e-18 -0.00843853)
(-4.75441e-19 -4.75265e-19 -0.00837179)
(-2.02388e-19 3.165e-20 -0.00839594)
(-2.71211e-19 -8.40341e-19 -0.0084192)
(-7.96711e-19 -2.55214e-19 -0.00844169)
(2.53828e-19 -7.59957e-20 -0.00846314)
(-8.18771e-19 -6.78356e-19 -0.00848351)
(-4.11983e-19 3.69121e-19 -0.00850285)
(-5.33022e-19 5.37205e-19 -0.00852122)
(-7.29032e-19 -1.79488e-19 -0.00853855)
(-7.72681e-19 -1.56559e-19 -0.00855491)
(-9.51103e-19 6.11329e-19 -0.00857027)
(-1.33687e-18 1.13304e-19 -0.0085849)
(-8.62614e-20 2.36553e-19 -0.00859884)
(-1.35633e-19 1.07129e-19 -0.00861207)
(-8.85204e-19 1.19391e-19 -0.00862459)
(-1.10478e-18 6.85386e-19 -0.0086364)
(-1.73274e-19 7.17288e-19 -0.00864736)
(-2.17394e-19 6.63272e-19 -0.00865753)
(-1.7177e-19 1.10563e-18 -0.00866673)
(-2.77332e-19 3.23839e-19 -0.00867495)
(-5.064e-19 4.1206e-19 -0.008682)
(-8.91526e-20 5.24082e-19 -0.00868798)
(-3.32347e-19 -3.51904e-20 -0.00869256)
(-4.3187e-19 1.84579e-19 -0.00869564)
(4.43157e-19 3.36807e-19 -0.00869706)
(1.52638e-19 -6.39932e-19 -0.00869689)
(3.60807e-19 -8.06322e-19 -0.00869506)
(3.22652e-19 -1.18997e-18 -0.00869176)
(-2.12201e-19 -1.68116e-19 -0.00868713)
(-1.1237e-19 -8.64114e-19 -0.00868109)
(-3.32552e-19 -5.32281e-19 -0.00867389)
(3.35595e-19 -1.81888e-19 -0.00866578)
(-6.97826e-20 -6.36356e-19 -0.00865684)