/*--------------------------------*- C++ -*----------------------------------*\
  =========                 |
  \\      /  F ield         | OpenFOAM: The Open Source CFD Toolbox
   \\    /   O peration     | Website:  https://openfoam.org
    \\  /    A nd           | Version:  7
     \\/     M anipulation  |
\*---------------------------------------------------------------------------*/
FoamFile
{
    version     2.0;
    format      ascii;
    class       surfaceScalarField;
    location    "4000";
    object      phi;
}
// * * * * * * * * * * * * * * * * * * * * * * * * * * * * * * * * * * * * * //

dimensions      [0 3 -1 0 0 0 0];

internalField   nonuniform List<scalar> 
9540
(
-8.76954e-23
-7.88971e-25
7.06388e-23
-1.68825e-23
-9.14889e-23
-2.34301e-25
8.49781e-23
-6.68654e-23
2.02777e-23
6.74335e-24
-9.14723e-23
-3.351e-23
5.61653e-23
-7.33103e-23
4.73327e-24
-5.9288e-23
-6.99963e-24
-4.04531e-23
2.06646e-23
-9.94783e-24
-8.00204e-23
-1.97814e-23
5.99822e-23
-7.42582e-23
-9.14899e-26
-5.5804e-23
-1.6159e-23
-5.6665e-23
2.32683e-23
-2.62005e-23
3.13302e-23
3.24925e-23
-7.54876e-23
-8.1267e-26
5.80435e-23
-7.603e-23
1.24289e-23
-4.61048e-23
1.22362e-23
-5.60039e-23
3.83081e-23
-1.42387e-23
5.73364e-23
-1.75008e-23
3.69654e-23
1.33101e-22
-7.83066e-23
-6.12344e-23
5.30977e-23
-7.05852e-23
1.29827e-23
-4.97036e-23
4.17466e-23
-4.29255e-23
1.87426e-23
-2.72105e-23
5.40746e-23
6.86428e-24
6.31762e-23
-1.51872e-23
8.37193e-23
-2.0523e-23
1.02593e-22
3.17095e-23
-6.71522e-23
-2.24124e-23
6.8667e-23
-5.87753e-23
6.2952e-25
-5.95439e-23
5.11353e-23
-3.87893e-23
4.55947e-23
-2.06448e-23
4.88619e-23
9.16037e-24
8.0469e-23
-9.60816e-24
3.64715e-23
-4.60398e-23
1.62253e-23
-5.30793e-23
3.81089e-23
2.47151e-23
-5.18195e-23
-1.49033e-24
7.22372e-23
-5.28614e-23
3.68495e-23
-5.7202e-23
1.77142e-23
-4.08279e-23
3.43929e-23
-1.39828e-23
6.49536e-23
2.69802e-25
6.36331e-23
-2.06467e-23
4.20434e-23
-4.44043e-23
2.33793e-23
-5.05302e-23
3.00753e-23
-4.28214e-23
1.67672e-23
-5.69609e-23
-1.34211e-24
-4.14123e-23
1.36878e-23
-3.34685e-23
-2.59333e-23
-5.47183e-23
-4.28702e-23
4.63995e-23
6.72864e-23
-5.77818e-23
1.17083e-23
-5.15168e-23
1.35236e-23
-4.37072e-23
1.19909e-23
-1.55269e-23
4.75382e-23
-6.2136e-24
5.83665e-23
-3.10439e-23
6.02701e-23
-4.22089e-23
1.65758e-23
-5.71195e-23
-6.72064e-24
-4.78779e-23
5.57363e-24
-4.51386e-23
-5.02351e-25
-5.53519e-23
-1.69452e-23
-3.72213e-23
2.25518e-23
-4.73373e-23
1.7483e-23
-5.98184e-23
2.74263e-23
-6.25878e-23
-1.85767e-23
-6.71562e-23
6.07443e-24
4.86619e-23
-4.43337e-23
2.89431e-23
5.64943e-23
-5.57102e-23
2.26967e-23
-5.31988e-23
1.11629e-23
-3.76363e-23
4.6703e-23
-1.60669e-23
3.53098e-23
-6.2661e-24
4.48102e-23
-3.8171e-23
-4.95832e-24
-4.19486e-23
1.59705e-23
-5.49691e-23
-1.87933e-24
-5.36881e-23
3.13423e-24
-5.19219e-23
-5.2642e-24
-5.09708e-23
-1.32959e-23
-3.47569e-23
2.23777e-23
-4.48169e-23
-7.79379e-24
-6.00243e-23
2.29501e-23
-5.71379e-23
-3.92585e-24
-6.08991e-23
1.41967e-23
-4.35681e-23
1.99985e-23
-3.74021e-23
-3.18313e-23
-1.63705e-23
-4.83236e-23
1.98303e-23
5.42278e-23
-5.3317e-23
2.38607e-23
-4.62783e-23
1.30147e-23
-4.24818e-23
4.47472e-23
-1.45676e-23
6.09014e-23
-2.21361e-23
1.07519e-23
-3.54702e-23
-3.99119e-23
-4.42393e-23
-2.1329e-23
-5.2699e-23
1.56771e-24
-5.11799e-23
-4.47211e-24
-5.2121e-23
-1.05029e-23
-3.71912e-23
-2.52844e-23
-4.15002e-23
-1.34126e-23
-4.25103e-23
-3.5699e-23
-6.01033e-23
1.67718e-23
-5.07117e-23
7.34055e-24
-6.46286e-23
3.20233e-23
-5.17024e-23
5.18332e-24
-3.72143e-23
-6.01091e-23
-4.45761e-23
-1.65722e-23
-4.34715e-23
5.82102e-24
-3.22789e-23
-7.72689e-24
-5.08788e-23
-3.94735e-23
-6.99433e-23
-4.92524e-23
1.51765e-23
5.59374e-23
-5.42335e-23
2.53332e-23
-4.96312e-23
1.38712e-23
-4.01346e-23
4.54301e-23
-2.34592e-23
5.07701e-23
-2.59547e-23
4.96594e-23
-3.04406e-23
-4.00372e-23
-3.88777e-23
-1.43095e-23
-5.62492e-23
1.46954e-23
-5.58289e-23
-1.24373e-23
-5.9959e-23
-6.20741e-23
-3.56508e-23
-7.58987e-24
-4.7391e-23
4.45842e-24
-3.7833e-23
-2.99898e-23
-6.16323e-23
4.91616e-23
-4.76595e-23
9.90152e-24
-6.81895e-23
-1.54733e-23
-6.16075e-23
-9.36376e-24
-3.11091e-23
1.3918e-23
-3.66416e-23
6.94812e-23
-4.87849e-23
1.15956e-23
-3.75747e-23
-9.00469e-24
-5.70241e-23
-2.308e-23
-1.71984e-23
-2.25414e-23
-6.01693e-23
-2.57043e-23
-1.49199e-22
7.06118e-23
-1.40644e-22
3.75325e-23
-8.68274e-23
7.56599e-23
6.73194e-23
-4.20725e-23
-2.49496e-24
5.79052e-23
-5.2221e-23
3.27682e-23
-4.19269e-23
5.03468e-23
-4.47768e-23
4.49065e-23
-2.86626e-23
6.92901e-23
-3.90626e-23
6.50494e-23
-3.00265e-23
4.27883e-23
-3.73845e-23
-5.05999e-24
-5.57779e-23
-1.73244e-23
-6.94033e-23
-7.15974e-24
-4.97838e-23
-2.34192e-24
-3.57249e-23
-2.14587e-23
-5.52229e-23
-9.35462e-24
-2.21052e-23
-2.67753e-25
-6.82388e-23
6.69092e-25
-4.72299e-23
9.44176e-23
-7.22642e-23
1.72822e-24
-5.57887e-23
7.19491e-23
-1.85409e-23
6.98521e-23
-4.47493e-23
3.4349e-23
-5.30127e-23
3.64492e-23
-3.63926e-23
7.16948e-23
-5.51795e-23
-6.92239e-24
-1.69704e-23
3.07518e-23
-4.3271e-23
1.11346e-23
-1.53565e-22
-7.13399e-23
-1.35654e-22
3.29942e-23
-8.74812e-23
1.32839e-22
-1.03254e-22
8.70042e-23
-1.44549e-22
9.60948e-23
-1.26351e-22
1.46414e-22
1.09727e-22
-3.71704e-23
6.72862e-23
5.84982e-23
-4.62469e-23
3.94921e-24
-4.21988e-23
4.55785e-23
-3.53688e-23
8.2881e-23
-3.10037e-23
7.61538e-23
-4.47508e-23
3.5671e-23
-3.26428e-23
-7.96419e-24
-3.68703e-23
-3.92506e-24
-6.09272e-23
-4.4096e-23
-6.09279e-23
-1.35017e-23
-5.34141e-23
-2.30003e-23
-3.78521e-23
-4.54975e-23
-4.85516e-23
-1.38375e-24
-2.08057e-23
2.17931e-23
-5.59785e-23
-5.1764e-23
-6.0571e-23
2.65042e-23
-5.88131e-23
2.16247e-24
-5.14403e-23
7.0742e-23
-2.4557e-23
1.3907e-22
-4.64237e-23
5.35948e-23
-4.79254e-23
3.22247e-23
-5.18446e-23
8.10995e-23
-4.70805e-23
2.43148e-24
-1.81241e-23
1.77009e-23
-5.82157e-23
-2.50768e-23
-1.31712e-22
1.90665e-23
-1.22832e-22
4.9239e-23
-9.17291e-23
1.78407e-22
-1.08204e-22
1.00778e-22
-1.34008e-22
1.15072e-22
-1.4584e-22
1.38562e-22
-1.5546e-22
1.96428e-22
-1.93651e-22
-4.06214e-23
-3.69369e-23
-4.45715e-23
6.46749e-23
5.33557e-23
-4.25903e-23
4.49e-23
-4.10125e-23
4.92163e-23
-3.54597e-23
7.67899e-23
-3.60422e-23
4.45387e-23
-4.67481e-23
1.69118e-23
-3.17104e-23
1.67096e-23
-4.53692e-23
-2.8848e-23
-5.75137e-23
-3.50202e-23
-5.92782e-23
-2.29551e-23
-5.80309e-23
1.41203e-23
-2.70997e-23
5.49219e-23
-4.41077e-23
1.1153e-23
-3.42935e-23
1.70596e-23
-4.46431e-23
-3.88189e-23
-6.08354e-23
4.00722e-23
-5.26134e-23
5.86221e-24
-3.7712e-23
6.95544e-23
-4.80436e-23
2.63007e-23
-4.54092e-23
3.64307e-23
-3.92069e-23
2.55087e-23
-6.37016e-23
3.13907e-23
-4.3094e-23
6.69814e-23
-2.81754e-23
1.85395e-23
-4.88194e-23
3.34229e-24
-1.27892e-22
1.5498e-23
-1.00475e-22
3.18988e-23
-1.0375e-22
1.48002e-22
-1.08287e-22
1.09011e-22
-1.31248e-22
1.2801e-22
-1.42373e-22
1.16092e-22
-1.97212e-22
2.22062e-22
-2.3883e-22
6.68652e-23
-1.90584e-24
-4.18092e-23
5.69173e-23
5.0967e-23
-4.27593e-23
1.90878e-23
-3.98052e-23
4.5188e-23
-3.75622e-23
1.00657e-22
-4.17984e-23
5.52337e-23
-5.35132e-23
2.88492e-23
-4.66122e-23
1.22963e-24
-4.87739e-23
-2.98465e-23
-5.76835e-23
-7.31645e-23
-5.43948e-23
-3.31505e-23
-4.89331e-23
1.1326e-23
-3.26189e-23
-1.26044e-23
-4.50753e-23
1.44446e-23
-4.28678e-23
2.07203e-23
-3.92671e-23
-3.83177e-23
-6.30226e-23
-2.36378e-23
-4.32514e-23
-1.84483e-24
-4.51024e-23
-1.73494e-23
-4.36914e-23
-5.0006e-23
-4.35613e-23
3.2686e-23
-4.13509e-23
1.79708e-23
-5.54488e-23
6.75623e-23
-5.37987e-23
-2.31954e-23
-2.70212e-23
8.19825e-24
-4.28861e-23
3.39154e-23
-1.30153e-22
-7.09449e-23
-8.05541e-23
8.49119e-23
-1.0937e-22
9.0554e-23
-1.03181e-22
1.01751e-22
-1.37516e-22
5.05762e-23
-1.33295e-22
1.76391e-22
-2.25963e-22
1.71269e-22
-3.12864e-22
1.33973e-22
7.67837e-23
-4.79672e-23
5.58426e-23
4.84993e-23
-4.61155e-23
2.25185e-23
-3.08573e-23
2.58022e-23
-4.65862e-23
8.48868e-23
-4.98191e-23
1.31597e-23
-5.22385e-23
2.90157e-23
-4.75543e-23
-4.82633e-24
-5.10621e-23
-2.2941e-23
-5.26509e-23
-2.77561e-23
-4.4637e-23
-4.09719e-23
-5.15977e-23
-2.38543e-23
-2.47296e-23
2.73719e-23
-4.45593e-23
-1.15781e-23
-4.40217e-23
1.3339e-23
-3.98925e-23
-4.50529e-23
-5.4258e-23
-8.89893e-24
-4.86141e-23
-7.85837e-25
-5.1952e-23
-3.30247e-23
-3.07786e-23
9.60608e-24
-4.63692e-23
4.2592e-23
-3.11818e-23
1.55928e-23
-6.74394e-23
-5.00464e-23
-5.38589e-23
5.9644e-23
-1.86473e-23
7.35665e-23
-5.93343e-23
8.41751e-24
-1.05234e-22
4.10373e-24
-8.21494e-23
1.35903e-22
-1.03818e-22
1.16762e-22
-1.12481e-22
1.28207e-22
-1.19467e-22
2.90305e-23
-1.41889e-22
1.59655e-22
-2.32294e-22
1.31721e-22
-3.42358e-22
2.25842e-22
3.85904e-22
-4.43549e-23
6.9134e-23
4.72722e-23
-4.56036e-23
2.58423e-23
-2.72771e-23
4.98462e-23
-5.05902e-23
5.78242e-23
-4.83381e-23
8.06503e-24
-5.71529e-23
2.81296e-23
-4.81754e-23
-8.42829e-24
-4.86697e-23
-1.29427e-23
-5.94429e-23
-8.86575e-24
-4.21446e-23
-5.05105e-23
-4.17235e-23
1.94943e-23
-3.03743e-23
1.03498e-23
-4.31934e-23
-6.75536e-24
-4.61044e-23
1.57793e-23
-4.10978e-23
-5.13087e-23
-4.66728e-23
-7.06151e-24
-5.17684e-23
-2.05384e-24
-4.62094e-23
3.6213e-23
-2.38859e-23
6.43625e-23
-4.80421e-23
6.15793e-23
-4.28901e-23
6.682e-24
-5.13973e-23
-2.70506e-23
-5.00805e-23
-1.61955e-23
-2.53332e-23
1.33336e-22
-5.88723e-23
5.35877e-23
-8.75421e-23
5.17042e-23
-8.649e-23
1.45639e-22
-9.67997e-23
1.22999e-22
-1.29653e-22
1.49538e-22
-1.00567e-22
1.59783e-22
-1.46392e-22
1.67084e-22
-2.15204e-22
1.77646e-22
-3.29839e-22
3.23194e-22
5.22016e-22
-5.24341e-23
4.0883e-23
3.7107e-23
-4.18501e-23
5.2811e-23
-2.90856e-23
3.92606e-23
-6.06394e-23
-1.46182e-23
-4.87783e-23
2.53815e-23
-6.39754e-23
-8.56201e-24
-4.86718e-23
-2.21787e-23
-5.38643e-23
-2.14384e-24
-6.03065e-23
-1.08589e-24
-3.81135e-23
2.83327e-23
-3.89634e-23
6.55717e-23
-3.75944e-23
-4.17845e-23
-4.13189e-23
-8.3676e-24
-5.02921e-23
1.47474e-23
-3.36569e-23
2.22428e-23
-5.2394e-23
1.72749e-23
-4.41778e-23
-1.04706e-23
-4.05813e-23
-2.62438e-24
-2.08012e-23
4.37473e-23
-5.60481e-23
3.80865e-23
-4.47696e-23
6.63044e-23
-5.06239e-23
-1.64412e-23
-2.81888e-23
7.13076e-23
-3.79879e-23
6.01816e-23
-5.45078e-23
7.12634e-23
-7.80183e-23
5.06088e-23
-8.88236e-23
7.81277e-23
-9.26705e-23
1.13928e-22
-1.26631e-22
1.57476e-22
-1.02565e-22
1.1051e-22
-1.40188e-22
1.70944e-22
-1.95674e-22
2.07586e-22
-2.60207e-22
3.6172e-22
5.5094e-22
-4.86616e-23
1.24783e-23
3.95572e-23
-4.87999e-23
5.04735e-23
-4.01287e-23
2.90374e-23
-5.53637e-23
-5.54414e-24
-4.99735e-23
5.90216e-24
-6.55261e-23
5.07232e-24
-4.73775e-23
1.16982e-23
-5.46807e-23
4.98737e-23
-5.30678e-23
4.65282e-23
-3.73698e-23
6.21653e-23
-5.37134e-23
9.35998e-23
-3.51457e-23
-2.08893e-23
-3.82613e-23
-1.22546e-23
-4.57804e-23
9.2888e-24
-3.60547e-23
1.02797e-23
-5.30928e-23
3.06229e-23
-4.25693e-23
8.43645e-23
-3.42598e-23
9.59396e-23
-2.29935e-23
1.15945e-22
-5.17511e-23
6.48136e-23
-5.47283e-23
6.18743e-23
-3.75633e-23
5.34958e-23
-2.98963e-23
8.09826e-23
-3.32621e-23
6.98402e-23
-5.58399e-23
4.70465e-23
-7.83567e-23
6.56718e-23
-8.19318e-23
1.02156e-22
-8.54986e-23
1.01003e-22
-1.35417e-22
6.0512e-23
-9.40621e-23
2.21763e-22
-1.3065e-22
1.98313e-22
-1.78836e-22
2.49075e-22
-1.97305e-22
4.70419e-22
5.58758e-22
-4.38514e-23
1.45994e-23
4.40435e-23
-4.93334e-23
5.61773e-23
-4.1868e-23
5.1275e-23
-5.37223e-23
-2.7111e-24
-5.30801e-23
-5.07301e-24
-6.07595e-23
-2.95069e-23
-4.18978e-23
5.34714e-25
-4.85321e-23
2.76609e-23
-5.05715e-23
5.85314e-23
-2.44573e-23
9.49223e-23
-6.49058e-23
5.43995e-23
-3.2291e-23
4.19421e-23
-3.57536e-23
2.77971e-23
-4.44225e-23
7.86795e-24
-3.21277e-23
2.28057e-26
-4.34509e-23
4.54815e-23
-4.08687e-23
7.74833e-23
-3.02036e-23
9.69654e-23
-2.95748e-23
1.21107e-22
-5.02476e-23
4.79855e-23
-5.32224e-23
6.95553e-23
-3.64038e-23
4.72293e-23
-3.1813e-23
8.23504e-23
-3.39111e-23
7.98099e-23
-5.28541e-23
7.18384e-23
-7.56101e-23
7.89549e-23
-8.18319e-23
9.50388e-23
-8.85849e-23
9.36302e-23
-1.13793e-22
1.04511e-22
-9.54494e-23
2.07294e-22
-1.21425e-22
1.97679e-22
-1.55173e-22
2.72834e-22
-1.67668e-22
4.70069e-22
4.7267e-22
-4.54112e-23
2.32306e-23
3.78145e-23
-5.12942e-23
2.13869e-23
-4.07431e-23
-1.45881e-24
-4.91018e-23
4.01572e-23
-5.44772e-23
3.01132e-23
-5.65361e-23
8.1983e-24
-4.01189e-23
-4.40668e-24
-4.6416e-23
3.99835e-23
-4.15854e-23
5.56944e-23
-3.5321e-23
1.01104e-22
-6.18744e-23
1.0698e-23
-3.84017e-23
5.91169e-23
-3.35365e-23
6.42646e-23
-4.78667e-23
-2.58123e-23
-2.24885e-23
2.1505e-23
-3.79425e-23
-3.81571e-23
-3.8606e-23
8.25456e-23
-2.42325e-23
9.48386e-23
-4.18416e-23
1.21531e-23
-4.66206e-23
6.0575e-23
-5.55236e-23
1.01783e-22
-3.28622e-23
4.13575e-23
-3.11509e-23
7.4773e-23
-3.13137e-23
9.25034e-23
-5.37623e-23
1.13727e-22
-7.29633e-23
9.20296e-23
-8.32574e-23
1.00381e-22
-8.26663e-23
1.65617e-22
-1.05353e-22
1.41007e-22
-9.25727e-23
1.99889e-22
-1.09609e-22
2.0241e-22
-1.35471e-22
2.96253e-22
-1.51262e-22
4.01542e-22
4.53579e-22
-4.2949e-23
-1.28104e-23
3.4226e-23
-5.10776e-23
3.29045e-23
-4.26328e-23
3.12079e-23
-5.10694e-23
4.2416e-23
-4.83019e-23
-1.78425e-23
-5.94304e-23
7.70692e-24
-3.46017e-23
7.28731e-23
-4.17989e-23
1.06938e-23
-4.05802e-23
9.78612e-23
-4.20624e-23
6.52422e-23
-5.7287e-23
3.50132e-23
-3.54247e-23
8.77976e-23
-4.30321e-23
6.61131e-23
-4.36351e-23
-2.62716e-23
-2.44785e-23
4.17529e-23
-2.94152e-23
5.35343e-23
-3.2576e-23
8.57324e-23
-3.44241e-23
1.08204e-22
-3.49705e-23
3.28578e-23
-3.91766e-23
8.07121e-23
-6.35299e-23
1.89202e-24
-2.64352e-23
1.07157e-22
-3.0714e-23
8.69819e-23
-2.53428e-23
7.57899e-23
-5.75769e-23
-2.84811e-23
-7.11306e-23
9.76728e-23
-7.64159e-23
1.10618e-22
-8.12184e-23
1.63481e-22
-1.03099e-22
7.98154e-23
-8.74004e-23
2.75539e-22
-9.93787e-23
2.10355e-22
-1.27664e-22
3.30212e-22
-1.35795e-22
4.19726e-22
-1.33211e-22
4.64432e-22
8.60556e-22
-3.70697e-23
-4.95828e-24
3.35748e-23
-5.22145e-23
7.85393e-25
-3.80203e-23
1.38159e-23
-5.37833e-23
1.33311e-23
-4.69616e-23
4.95891e-23
-5.76879e-23
1.35908e-23
-4.50838e-23
6.98742e-23
-3.00729e-23
5.1579e-23
-5.07272e-23
3.36739e-23
-4.27829e-23
6.00387e-23
-5.22648e-23
5.66248e-23
-3.5564e-23
7.96155e-23
-5.29383e-23
4.27522e-23
-3.61963e-23
5.00356e-24
-2.25894e-23
7.07861e-23
-2.7595e-23
1.81955e-23
-2.94748e-23
4.58588e-23
-4.44229e-23
3.19601e-23
-2.49944e-23
1.26487e-22
-4.69706e-23
1.1213e-22
-5.44915e-23
1.12543e-22
-2.66402e-23
1.77392e-22
-3.13305e-23
9.36699e-23
-3.4917e-23
7.71075e-23
-4.51116e-23
-1.43857e-23
-7.05817e-23
3.06577e-23
-6.9099e-23
8.60114e-23
-8.81227e-23
8.74566e-23
-8.34852e-23
8.28536e-23
-9.19688e-23
1.80104e-22
-8.41767e-23
2.01758e-22
-1.19076e-22
2.80671e-22
-1.18751e-22
4.21479e-22
-1.08351e-22
5.39594e-22
7.93259e-22
-3.42214e-23
3.4524e-23
3.91559e-23
-5.07298e-23
1.42732e-23
-4.0933e-23
1.30276e-24
-5.23104e-23
1.85506e-23
-5.06789e-23
3.25065e-23
-4.81355e-23
1.01373e-23
-4.74232e-23
3.6679e-23
-2.73747e-23
4.3064e-23
-4.5655e-23
5.72061e-23
-3.91185e-23
8.69096e-23
-5.18896e-23
7.20432e-23
-4.09291e-23
7.39408e-23
-5.5054e-23
1.74322e-23
-3.167e-23
8.14764e-23
-2.29974e-23
1.02161e-22
-2.49324e-23
1.86777e-23
-2.78256e-23
4.62382e-23
-3.56523e-23
4.3609e-23
-2.72187e-23
1.01537e-22
-4.34598e-23
1.02121e-22
-4.91751e-23
1.24077e-22
-3.31185e-23
2.54373e-22
-3.54063e-23
1.0157e-22
-4.28935e-23
5.78487e-23
-4.09581e-23
-1.9482e-23
-6.18872e-23
5.45918e-23
-7.09332e-23
9.24291e-23
-8.24346e-23
1.02815e-22
-7.58242e-23
7.89929e-23
-8.43968e-23
1.94372e-22
-7.74325e-23
1.98938e-22
-1.08649e-22
2.30138e-22
-9.89009e-23
4.2176e-22
-9.63162e-23
4.28659e-22
-3.19871e-23
2.80812e-23
3.06495e-23
-4.93488e-23
2.77229e-23
-3.82303e-23
-9.86641e-24
-5.11669e-23
2.9682e-23
-4.86748e-23
2.81004e-23
-4.74579e-23
1.64224e-23
-4.46299e-23
4.39192e-23
-2.7793e-23
1.23216e-22
-3.88174e-23
7.11518e-23
-3.75897e-23
8.88083e-23
-5.33302e-23
8.81557e-24
-4.48044e-23
7.7928e-23
-4.57795e-23
6.07439e-23
-3.28085e-23
9.25802e-23
-2.82423e-23
9.59653e-23
-2.66668e-23
6.31703e-23
-2.64032e-23
8.14102e-23
-3.04777e-23
5.45399e-23
-2.56305e-23
1.05691e-22
-4.03508e-23
1.28104e-22
-3.85329e-23
1.22381e-22
-4.60133e-23
1.65854e-22
-4.04413e-23
9.85672e-23
-4.81338e-23
6.69989e-23
-3.63606e-23
6.72252e-23
-5.7208e-23
7.90224e-23
-7.06104e-23
1.03135e-22
-8.15684e-23
1.1348e-22
-6.98138e-23
6.86189e-23
-7.76393e-23
1.63822e-22
-7.19815e-23
2.05299e-22
-8.82236e-23
2.55324e-22
-8.7928e-23
4.24692e-22
3.78721e-22
-2.92211e-23
3.0087e-23
2.09261e-23
-5.43338e-23
1.2025e-23
-3.18782e-23
7.36844e-25
-5.08184e-23
1.00774e-23
-4.87748e-23
2.83348e-23
-4.26012e-23
1.3517e-23
-3.19839e-23
3.86445e-23
-3.41649e-23
8.34642e-23
-4.28466e-23
4.4346e-23
-4.24648e-23
8.96645e-23
-4.85246e-23
6.21534e-23
-4.32323e-23
8.63356e-23
-4.29087e-23
6.16782e-23
-3.17013e-23
8.79759e-23
-2.92573e-23
9.6873e-23
-2.4723e-23
6.13149e-23
-2.49457e-23
1.28319e-22
-2.85998e-23
6.3439e-23
-2.16728e-23
9.97449e-23
-4.09384e-23
5.65666e-23
-3.70515e-23
1.19289e-22
-5.06652e-23
9.12557e-23
-4.46322e-23
9.95438e-23
-4.58605e-23
7.20619e-23
-3.44358e-23
6.09327e-23
-5.54543e-23
9.83781e-23
-6.8357e-23
1.15423e-22
-8.38785e-23
1.28322e-22
-6.11e-23
1.46588e-22
-7.1966e-23
1.60574e-22
-6.69479e-23
2.09041e-22
-7.4944e-23
2.51376e-22
-8.49805e-23
3.50658e-22
3.59489e-22
-2.63347e-23
4.5151e-24
1.77366e-23
-5.35427e-23
-5.00829e-23
-3.61102e-23
-2.61676e-23
-4.98739e-23
2.22158e-23
-5.03966e-23
3.09417e-23
-3.86887e-23
8.65169e-23
-3.57639e-23
3.11496e-23
-3.46983e-23
1.25779e-22
-3.86684e-23
4.3774e-23
-4.25417e-23
9.5689e-23
-4.67488e-23
6.52235e-23
-4.38177e-23
9.62782e-23
-4.1087e-23
6.51359e-23
-3.4216e-23
5.03551e-23
-2.98556e-23
6.22099e-23
-1.99546e-23
5.92888e-23
-2.92957e-23
9.75445e-23
-2.3118e-23
5.77619e-23
-2.49075e-23
8.15541e-23
-3.34309e-23
6.08744e-23
-4.14722e-23
5.14429e-23
-4.61314e-23
1.01717e-22
-4.66383e-23
1.05983e-22
-4.67885e-23
1.13737e-22
-2.92789e-23
1.47564e-22
-5.72075e-23
2.75015e-23
-6.49788e-23
1.2e-22
-8.22807e-23
5.3666e-23
-5.89082e-23
1.33173e-22
-6.77351e-23
1.82126e-22
-5.99951e-23
2.13195e-22
-7.22916e-23
2.71928e-22
-7.70712e-23
3.58427e-22
3.54132e-22
-3.13352e-23
4.9736e-24
1.9946e-23
-5.23261e-23
-3.62146e-23
-3.15739e-23
4.30562e-23
-4.48976e-23
3.05572e-23
-4.81585e-23
6.94005e-23
-4.35921e-23
1.10836e-22
-3.00859e-23
1.13285e-23
-3.84678e-23
1.30537e-22
-3.62793e-23
1.24125e-22
-4.35774e-23
1.05226e-22
-4.25474e-23
6.59605e-23
-4.46491e-23
7.1886e-23
-3.95773e-23
1.0587e-22
-3.59075e-23
9.79641e-23
-2.76851e-23
7.13516e-23
-1.75191e-23
5.70034e-23
-2.85925e-23
3.69431e-23
-2.43882e-23
5.34099e-23
-2.4583e-23
3.94267e-23
-3.4739e-23
7.18862e-23
-3.73794e-23
1.42758e-22
-4.45612e-23
1.08175e-22
-4.54381e-23
1.05567e-22
-4.45863e-23
1.08975e-22
-3.64272e-23
1.44561e-22
-5.00389e-23
4.50301e-23
-6.93867e-23
1.46726e-22
-7.50548e-23
6.93276e-23
-5.45774e-23
1.24946e-22
-6.32485e-23
1.10238e-22
-5.51701e-23
2.11793e-22
-6.4433e-23
2.91743e-22
-7.10398e-23
3.27443e-22
-3.64985e-23
5.74063e-24
2.29647e-23
-4.39708e-23
-3.49908e-23
-3.10038e-23
-3.1955e-24
-4.48587e-23
2.09185e-24
-4.13859e-23
2.94068e-23
-4.79745e-23
7.49179e-23
-2.05394e-23
1.1468e-22
-3.89038e-23
6.51347e-23
-3.7251e-23
8.27136e-23
-4.21579e-23
1.06165e-22
-4.58586e-23
6.736e-23
-4.10472e-23
7.03191e-23
-4.30117e-23
1.15174e-22
-3.66308e-23
1.01388e-22
-2.70806e-23
1.16782e-22
-2.02464e-23
9.31231e-23
-2.64979e-23
8.42037e-23
-2.68996e-23
4.88234e-23
-2.01773e-23
7.07887e-23
-2.9415e-23
8.24586e-23
-3.9398e-23
1.1897e-22
-4.33193e-23
1.16735e-22
-4.38276e-23
1.11569e-22
-4.37542e-23
1.08273e-22
-4.20099e-23
1.44289e-22
-4.30843e-23
5.33944e-23
-7.52881e-23
4.84738e-23
-6.998e-23
7.62372e-23
-5.2728e-23
1.13544e-22
-5.53119e-23
1.2023e-22
-4.59275e-23
1.72195e-22
-6.35077e-23
2.69447e-22
3.4671e-22
-3.72307e-23
-2.90259e-23
2.26521e-23
-4.09063e-23
-3.95019e-23
-2.73422e-23
3.1955e-23
-4.26883e-23
1.71289e-23
-4.26916e-23
3.29049e-23
-3.93963e-23
1.10438e-22
-3.01573e-23
5.32748e-23
-3.47709e-23
2.29786e-23
-3.78923e-23
4.59765e-23
-4.32162e-23
1.01962e-22
-4.51519e-23
6.30617e-23
-3.96506e-23
6.94612e-23
-4.57635e-23
8.98931e-23
-3.47333e-23
1.02623e-22
-2.8942e-23
7.8038e-23
-2.19382e-23
8.6419e-23
-2.67064e-23
8.54492e-23
-2.49401e-23
8.78434e-23
-1.63637e-23
1.03392e-22
-2.91191e-23
1.00568e-22
-3.72138e-23
9.91539e-23
-4.4239e-23
1.27016e-22
-4.24112e-23
1.11057e-22
-4.32066e-23
9.91123e-23
-4.49881e-23
1.39266e-22
-4.62952e-23
6.18968e-23
-7.07432e-23
-1.01834e-23
-6.84666e-23
8.10863e-23
-5.03531e-23
1.49671e-22
-5.00325e-23
1.80471e-22
-3.66352e-23
1.7312e-22
-5.61963e-23
2.39937e-22
-3.7082e-23
-6.97033e-23
2.40304e-23
-3.59417e-23
-1.40737e-23
-3.17351e-23
2.99938e-23
-3.97908e-23
-1.84576e-23
-3.42627e-23
2.71754e-23
-4.33157e-23
1.13774e-23
-3.18904e-23
3.86263e-23
-3.06041e-23
6.96756e-23
-3.55928e-23
1.35631e-23
-4.80718e-23
6.11481e-23
-4.43899e-23
5.48353e-23
-3.78563e-23
6.41733e-23
-4.13403e-23
9.21449e-23
-3.63661e-23
1.05161e-22
-2.60799e-23
1.14018e-22
-2.22041e-23
9.66405e-23
-2.7531e-23
1.35203e-22
-2.18611e-23
7.60182e-23
-1.52593e-23
9.73566e-23
-2.90793e-23
7.3318e-23
-3.34057e-23
1.08536e-22
-4.56031e-23
1.00376e-22
-4.20602e-23
1.02344e-22
-4.217e-23
8.91947e-23
-4.65536e-23
1.37798e-22
-5.42181e-23
4.52261e-23
-6.15874e-23
5.28359e-23
-6.50122e-23
1.00405e-22
-4.59622e-23
1.44137e-22
-5.11651e-23
1.56172e-22
-3.20637e-23
1.66988e-22
1.87833e-22
-3.52793e-23
-7.29599e-23
2.75053e-23
-3.2994e-23
-2.67759e-23
-2.91066e-23
2.92576e-23
-3.47948e-23
8.46258e-23
-3.69853e-23
6.85264e-23
-4.37596e-23
4.67192e-23
-3.02464e-23
4.78009e-23
-3.13572e-23
3.11386e-23
-3.14513e-23
-2.60044e-23
-4.89866e-23
2.5152e-23
-4.06469e-23
1.20284e-22
-3.62179e-23
6.36918e-23
-3.73933e-23
9.87842e-23
-3.36717e-23
9.91389e-23
-2.82705e-23
1.09807e-22
-1.87319e-23
1.23983e-22
-3.07239e-23
1.04662e-22
-2.09796e-23
1.06721e-22
-1.68795e-23
9.01641e-23
-2.67003e-23
9.02183e-23
-3.28162e-23
7.75894e-23
-4.46115e-23
7.06902e-23
-4.16296e-23
8.96666e-23
-4.07949e-23
7.98596e-23
-5.06032e-23
9.77612e-23
-5.46841e-23
5.69755e-23
-5.70687e-23
5.82705e-23
-6.121e-23
6.88952e-23
-4.44256e-23
1.32915e-22
-5.05003e-23
9.58132e-23
-2.93459e-23
1.11042e-22
1.81124e-22
-3.39053e-23
-7.67095e-23
3.39334e-23
-2.87127e-23
-4.03942e-23
-2.53136e-23
2.23577e-23
-3.45404e-23
5.9241e-23
-3.73353e-23
7.20928e-23
-4.33049e-23
7.96964e-23
-3.10868e-23
7.46397e-23
-3.90048e-23
3.87976e-23
-3.23182e-23
-2.29866e-23
-4.04017e-23
2.03909e-23
-4.4473e-23
1.1284e-22
-3.04609e-23
1.34786e-22
-3.80756e-23
1.084e-22
-3.49779e-23
9.65756e-23
-2.1958e-23
1.0389e-22
-2.16871e-23
9.30531e-23
-2.82494e-23
1.04871e-22
-2.1977e-23
1.00593e-22
-1.46278e-23
1.18546e-22
-2.79065e-23
1.04445e-22
-3.28126e-23
8.57231e-23
-4.32995e-23
1.15969e-22
-4.16872e-23
8.38398e-23
-4.10249e-23
7.10913e-23
-5.06239e-23
1.02176e-22
-5.43543e-23
2.17626e-23
-5.66821e-23
6.32114e-23
-5.62748e-23
1.07864e-22
-4.57789e-23
1.22823e-22
-4.9314e-23
7.49829e-23
-2.43195e-23
1.43484e-22
1.37234e-22
-3.6187e-23
-5.01992e-23
3.94581e-23
-1.87234e-23
6.43522e-23
-2.22646e-23
1.81191e-23
-3.56789e-23
7.71994e-23
-3.77492e-23
2.70496e-23
-3.76067e-23
7.48892e-23
-3.20863e-23
5.56376e-23
-3.815e-23
4.56805e-23
-3.06155e-23
1.96411e-23
-3.35559e-23
1.29366e-23
-4.37207e-23
7.49209e-23
-3.34286e-23
1.63095e-22
-3.87254e-23
1.12899e-22
-3.42879e-23
9.00808e-23
-2.42512e-23
9.19937e-23
-1.93453e-23
8.41665e-23
-2.70215e-23
1.14713e-22
-1.9365e-23
9.20516e-23
-1.67661e-23
1.0332e-22
-3.0046e-23
1.18293e-22
-2.98126e-23
1.35354e-22
-4.54337e-23
6.2026e-23
-4.1003e-23
4.13587e-23
-3.95544e-23
6.82533e-23
-5.33617e-23
7.34261e-23
-5.22265e-23
2.19236e-23
-5.37845e-23
7.24797e-23
-5.52995e-23
1.03209e-22
-4.79539e-23
1.17808e-22
-4.35228e-23
1.59824e-22
-2.37379e-23
1.81361e-22
1.63624e-22
-2.81958e-23
-3.13726e-23
4.15593e-23
-1.77164e-23
1.84151e-22
-1.72716e-23
4.70675e-23
-3.89768e-23
-3.36168e-23
-3.69415e-23
5.78823e-23
-3.83976e-23
7.96274e-23
-3.32697e-23
4.3971e-23
-4.34654e-23
6.93286e-24
-2.5564e-23
4.68946e-23
-2.96614e-23
-1.1848e-23
-3.73892e-23
7.35155e-23
-3.70701e-23
1.52313e-22
-3.93944e-23
1.18347e-22
-3.36771e-23
8.22213e-23
-2.10762e-23
1.25848e-22
-2.09993e-23
8.01694e-23
-2.83658e-23
1.22419e-22
-1.97944e-23
1.08083e-22
-1.62474e-23
8.75172e-23
-2.72552e-23
1.26398e-22
-3.41679e-23
1.02495e-22
-4.71192e-23
7.07901e-23
-3.77475e-23
8.04238e-23
-4.09696e-23
3.04389e-23
-5.44352e-23
3.82812e-23
-4.97754e-23
-1.56625e-23
-4.99355e-23
7.6689e-23
-5.51586e-23
1.08851e-22
-4.4608e-23
1.12437e-22
-4.29355e-23
1.25311e-22
-2.1845e-23
1.74185e-22
1.85033e-22
-1.65531e-23
9.04829e-24
4.36428e-23
-2.33355e-23
8.66662e-23
-2.32498e-23
3.33825e-23
-3.405e-23
1.07898e-23
-3.22471e-23
3.01648e-23
-3.93003e-23
4.5563e-23
-3.50751e-23
3.55188e-23
-3.97931e-23
5.2862e-23
-2.77603e-23
4.4729e-23
-2.69207e-23
-4.33515e-23
-3.1411e-23
6.15527e-23
-3.65734e-23
1.46011e-22
-4.25523e-23
1.0884e-22
-3.22038e-23
6.42709e-23
-2.12589e-23
1.21088e-22
-2.02833e-23
3.4709e-23
-2.60845e-23
1.19402e-22
-2.31122e-23
6.78287e-23
-1.29211e-23
1.06209e-22
-2.83922e-23
9.54018e-23
-3.5566e-23
1.06533e-22
-4.66774e-23
7.5604e-23
-3.84807e-23
1.22922e-22
-4.12772e-23
3.03901e-23
-5.59062e-23
4.61982e-23
-4.5432e-23
3.16301e-23
-4.68114e-23
8.79014e-23
-5.62545e-23
7.82159e-23
-4.11467e-23
1.37801e-22
-3.97915e-23
1.31223e-22
-1.98318e-23
2.10687e-22
1.55645e-22
-1.68158e-23
1.04709e-22
4.30895e-23
-2.35479e-23
3.52177e-23
-2.63463e-23
2.7034e-23
-3.10568e-23
1.56604e-23
-3.34324e-23
-4.4038e-24
-4.08746e-23
1.50099e-23
-3.36632e-23
4.66236e-23
-3.96734e-23
-4.24696e-23
-3.2222e-23
3.83677e-23
-2.17962e-23
-5.94747e-24
-2.73981e-23
2.77389e-23
-4.20866e-23
4.66069e-23
-3.91681e-23
1.38775e-22
-3.22186e-23
5.2101e-23
-2.38615e-23
6.61429e-23
-1.75397e-23
3.03401e-23
-2.68119e-23
1.22481e-22
-2.23658e-23
6.72746e-23
-1.07833e-23
1.7133e-22
-2.67467e-23
1.0852e-22
-3.65825e-23
7.51518e-23
-4.43708e-23
7.74862e-23
-4.20822e-23
1.2296e-22
-4.14077e-23
3.1297e-23
-5.51863e-23
1.98658e-23
-4.25146e-23
3.31934e-23
-4.55323e-23
9.7648e-23
-5.34181e-23
9.04426e-23
-4.00475e-23
2.19721e-22
-3.67476e-23
1.83436e-22
-2.14637e-23
2.44352e-22
2.04371e-22
-1.74707e-23
1.4486e-23
4.23699e-23
-2.47296e-23
-2.42008e-23
-2.54118e-23
-1.01295e-23
-3.29443e-23
-2.0351e-23
-3.04669e-23
4.29857e-23
-4.22147e-23
5.92865e-23
-3.62838e-23
3.48687e-23
-3.6724e-23
-4.42479e-23
-3.33407e-23
3.94738e-23
-2.00199e-23
-1.16176e-23
-2.77008e-23
-2.06136e-23
-3.56435e-23
4.7404e-23
-4.12785e-23
8.56659e-23
-3.31983e-23
5.90497e-23
-2.25922e-23
7.65218e-23
-1.39114e-23
6.16591e-23
-2.90291e-23
1.32407e-22
-1.67039e-23
1.01072e-22
-1.15595e-23
1.24886e-22
-2.89013e-23
8.74354e-23
-3.53753e-23
7.48615e-23
-4.31561e-23
8.13755e-23
-4.54685e-23
1.26041e-22
-4.24967e-23
3.11418e-23
-5.29193e-23
3.5704e-23
-3.94312e-23
7.51367e-23
-4.44287e-23
1.07464e-22
-4.73597e-23
1.3353e-22
-3.98443e-23
2.20093e-22
-3.48178e-23
1.89422e-22
-2.20879e-23
2.18481e-22
2.51187e-22
-1.8252e-23
1.2842e-22
4.37663e-23
-2.51261e-23
-2.81719e-23
-2.33302e-23
2.04152e-23
-3.21106e-23
-7.00853e-24
-2.83655e-23
3.94901e-23
-4.32748e-23
2.91935e-23
-3.75392e-23
1.20905e-22
-3.59119e-23
-4.78933e-23
-3.09435e-23
-1.02575e-23
-2.29811e-23
1.59357e-23
-2.32791e-23
6.55762e-24
-3.37383e-23
-2.8983e-23
-4.2359e-23
7.29294e-23
-3.48541e-23
3.34402e-23
-2.19948e-23
1.36363e-22
-1.13358e-23
5.59385e-23
-2.7302e-23
1.14315e-22
-1.74181e-23
1.26252e-22
-1.14548e-23
1.6445e-22
-3.06803e-23
1.04892e-22
-3.3969e-23
6.30785e-23
-4.2295e-23
8.5896e-23
-4.73501e-23
1.20913e-22
-4.28993e-23
1.18893e-22
-5.05887e-23
8.62801e-23
-3.80979e-23
8.34186e-23
-4.06754e-23
1.23084e-22
-4.41538e-23
1.36429e-22
-3.95131e-23
2.24232e-22
-3.42923e-23
1.97322e-22
-1.88611e-23
2.16088e-22
2.5881e-22
-2.63775e-23
6.97907e-23
3.78737e-23
-2.26319e-23
4.60583e-23
-2.59016e-23
-1.22026e-23
-2.84189e-23
-3.75417e-23
-2.89922e-23
7.30612e-23
-3.97909e-23
-8.6137e-24
-4.25899e-23
8.96946e-23
-3.75264e-23
-7.38427e-24
-2.85219e-23
2.61912e-23
-2.18806e-23
1.42366e-23
-2.16965e-23
-4.45564e-24
-3.00672e-23
1.33808e-23
-4.21547e-23
2.48088e-23
-2.94593e-23
4.0974e-24
-2.26894e-23
1.21278e-22
-8.9179e-24
8.26536e-23
-2.49513e-23
7.7819e-23
-1.83774e-23
1.19518e-22
-1.31363e-23
1.61962e-22
-3.16572e-23
8.59634e-23
-3.03027e-23
4.85213e-23
-4.16491e-23
5.66986e-23
-4.50352e-23
1.18323e-22
-4.41461e-23
8.40536e-23
-5.0525e-23
1.01314e-22
-3.58063e-23
1.40327e-22
-3.80382e-23
1.36753e-22
-4.23264e-23
1.00722e-22
-3.95036e-23
1.81071e-22
-3.47358e-23
2.03652e-22
-1.58893e-23
2.04196e-22
2.37448e-22
-2.23616e-23
8.46127e-23
3.84418e-23
-2.79335e-23
-4.55705e-24
-2.52849e-23
-2.16078e-23
-2.53143e-23
-6.70194e-23
-2.9867e-23
-3.19047e-23
-3.47878e-23
2.42272e-23
-4.78403e-23
6.69956e-23
-3.64065e-23
-1.34999e-23
-2.76245e-23
5.83984e-23
-2.23149e-23
1.51626e-23
-2.18767e-23
-8.75016e-24
-2.92154e-23
1.84382e-23
-4.19524e-23
-2.82557e-24
-2.1976e-23
1.0421e-22
-2.42699e-23
8.36322e-23
-9.21518e-24
1.09747e-22
-2.19111e-23
8.73939e-23
-1.5657e-23
1.17717e-22
-1.44658e-23
1.31341e-22
-3.3904e-23
5.47547e-23
-2.906e-23
1.71797e-22
-3.8955e-23
6.0455e-23
-4.59674e-23
7.24854e-23
-4.24593e-23
8.45928e-23
-4.94134e-23
6.67158e-23
-3.49693e-23
1.41112e-22
-3.8429e-23
1.40337e-22
-3.93642e-23
1.08114e-22
-3.65604e-23
1.91944e-22
-3.5298e-23
2.09293e-22
-1.44343e-23
2.37334e-22
2.81444e-22
-2.40513e-23
1.03075e-22
3.77764e-23
-3.01658e-23
-6.52091e-23
-2.45143e-23
4.22832e-23
-2.72107e-23
-5.41324e-23
-2.75042e-23
3.82521e-24
-3.44294e-23
-2.43735e-23
-4.78981e-23
4.09236e-23
-3.42983e-23
7.91403e-23
-2.7338e-23
1.38717e-22
-2.55385e-23
1.06269e-22
-1.54479e-23
1.05913e-22
-3.04588e-23
7.08205e-23
-3.39141e-23
8.14495e-23
-2.40775e-23
7.77621e-23
-2.55388e-23
8.10741e-23
-9.4184e-24
1.00794e-22
-1.87913e-23
5.50351e-23
-1.65428e-23
1.12451e-22
-1.53762e-23
1.60671e-22
-3.09376e-23
5.26209e-23
-3.29935e-23
1.20758e-22
-3.74725e-23
5.99321e-23
-4.46046e-23
2.33534e-23
-4.22211e-23
7.86284e-23
-4.61078e-23
7.84206e-23
-3.421e-23
1.55831e-22
-3.9598e-23
1.40609e-22
-3.63219e-23
1.01661e-22
-3.43181e-23
1.97858e-22
-3.37269e-23
2.03247e-22
-1.29844e-23
2.66593e-22
3.11122e-22
-2.6476e-23
7.74795e-23
3.67645e-23
-3.19245e-23
1.9299e-23