/*--------------------------------*- C++ -*----------------------------------*\
  =========                 |
  \\      /  F ield         | OpenFOAM: The Open Source CFD Toolbox
   \\    /   O peration     | Website:  https://openfoam.org
    \\  /    A nd           | Version:  7
     \\/     M anipulation  |
\*---------------------------------------------------------------------------*/
FoamFile
{
    version     2.0;
    format      ascii;
    class       volScalarField;
    location    "88000";
    object      nut;
}
// * * * * * * * * * * * * * * * * * * * * * * * * * * * * * * * * * * * * * //

dimensions      [0 2 -1 0 0 0 0];

internalField   nonuniform List<scalar> 
4844
(
2.45839e-05
2.4549e-05
2.45104e-05
2.44353e-05
2.43994e-05
2.43598e-05
2.43165e-05
2.42695e-05
2.42189e-05
2.41644e-05
2.41063e-05
2.42822e-05
2.42454e-05
2.42048e-05
2.41605e-05
2.41123e-05
2.40605e-05
2.40047e-05
2.39453e-05
2.38826e-05
2.38161e-05
2.37458e-05
2.4125e-05
2.40873e-05
2.40456e-05
2.40003e-05
2.39511e-05
2.38981e-05
2.3841e-05
2.37804e-05
2.37164e-05
2.36486e-05
2.35769e-05
2.35019e-05
2.34234e-05
2.33415e-05
2.32564e-05
2.31679e-05
2.39636e-05
2.39251e-05
2.38824e-05
2.38361e-05
2.37859e-05
2.37318e-05
2.36736e-05
2.36118e-05
2.35465e-05
2.34775e-05
2.34046e-05
2.33282e-05
2.32485e-05
2.31652e-05
2.30788e-05
2.2989e-05
2.37982e-05
2.37589e-05
2.37154e-05
2.36681e-05
2.36169e-05
2.35617e-05
2.35025e-05
2.34396e-05
2.33733e-05
2.3303e-05
2.32288e-05
2.31513e-05
2.30703e-05
2.29857e-05
2.28981e-05
2.28071e-05
2.35888e-05
2.35446e-05
2.34965e-05
2.34443e-05
2.3388e-05
2.33279e-05
2.3264e-05
2.31965e-05
2.31251e-05
2.30499e-05
2.29711e-05
2.28889e-05
2.28033e-05
2.27144e-05
2.26223e-05
2.34152e-05
2.33703e-05
2.33212e-05
2.32682e-05
2.3211e-05
2.31499e-05
2.30851e-05
2.30165e-05
2.29441e-05
2.28677e-05
2.27878e-05
2.27046e-05
2.26179e-05
2.25279e-05
2.24347e-05
2.32382e-05
2.31924e-05
2.31427e-05
2.30888e-05
2.30306e-05
2.29687e-05
2.2903e-05
2.28334e-05
2.276e-05
2.26826e-05
2.26017e-05
2.25174e-05
2.24296e-05
2.23387e-05
2.22443e-05
2.31001e-05
2.30578e-05
2.30113e-05
2.29609e-05
2.29061e-05
2.28472e-05
2.27845e-05
2.27177e-05
2.26473e-05
2.25729e-05
2.24946e-05
2.24128e-05
2.23275e-05
2.22388e-05
2.21468e-05
2.20514e-05
2.2917e-05
2.28741e-05
2.28271e-05
2.27759e-05
2.27204e-05
2.26607e-05
2.25972e-05
2.25296e-05
2.24583e-05
2.2383e-05
2.23039e-05
2.22212e-05
2.21349e-05
2.20453e-05
2.19524e-05
2.18562e-05
2.27309e-05
2.26874e-05
2.26398e-05
2.25879e-05
2.25317e-05
2.24713e-05
2.2407e-05
2.23387e-05
2.22666e-05
2.21905e-05
2.21105e-05
2.2027e-05
2.19399e-05
2.18493e-05
2.17557e-05
2.16585e-05
2.25418e-05
2.24978e-05
2.24496e-05
2.2397e-05
2.23402e-05
2.22792e-05
2.22142e-05
2.21451e-05
2.20723e-05
2.19953e-05
2.19146e-05
2.18304e-05
2.17425e-05
2.16511e-05
2.15566e-05
2.14587e-05
2.23899e-05
2.23498e-05
2.23054e-05
2.22566e-05
2.22034e-05
2.2146e-05
2.20845e-05
2.20188e-05
2.1949e-05
2.18754e-05
2.17977e-05
2.17163e-05
2.16313e-05
2.15427e-05
2.14506e-05
2.13553e-05
2.12568e-05
2.21956e-05
2.21551e-05
2.21103e-05
2.20609e-05
2.20072e-05
2.19492e-05
2.18871e-05
2.18209e-05
2.17505e-05
2.16762e-05
2.15978e-05
2.15157e-05
2.143e-05
2.13408e-05
2.1248e-05
2.1152e-05
2.10528e-05
2.20352e-05
2.19987e-05
2.19578e-05
2.19125e-05
2.18627e-05
2.18084e-05
2.175e-05
2.16874e-05
2.16205e-05
2.15495e-05
2.14746e-05
2.13957e-05
2.13129e-05
2.12267e-05
2.11368e-05
2.10433e-05
2.09467e-05
2.08469e-05
2.18361e-05
2.17993e-05
2.1758e-05
2.17123e-05
2.1662e-05
2.16073e-05
2.15484e-05
2.14853e-05
2.14179e-05
2.13463e-05
2.12708e-05
2.11914e-05
2.11081e-05
2.10213e-05
2.09308e-05
2.08368e-05
2.07396e-05
2.06393e-05
2.16346e-05
2.15975e-05
2.15559e-05
2.15097e-05
2.14591e-05
2.14039e-05
2.13445e-05
2.1281e-05
2.1213e-05
2.1141e-05
2.1065e-05
2.0985e-05
2.09012e-05
2.08139e-05
2.07229e-05
2.06284e-05
2.05307e-05
2.04299e-05
2.14308e-05
2.13934e-05
2.13514e-05
2.13049e-05
2.12539e-05
2.11983e-05
2.11386e-05
2.10745e-05
2.10061e-05
2.09337e-05
2.08572e-05
2.07768e-05
2.06925e-05
2.06048e-05
2.05132e-05
2.04183e-05
2.03202e-05
2.02189e-05
2.12247e-05
2.11871e-05
2.11448e-05
2.10979e-05
2.10466e-05
2.09907e-05
2.09306e-05
2.08661e-05
2.07973e-05
2.07244e-05
2.06476e-05
2.05667e-05
2.04821e-05
2.03939e-05
2.03019e-05
2.02065e-05
2.01081e-05
2.00063e-05
2.10165e-05
2.09786e-05
2.09361e-05
2.08889e-05
2.08373e-05
2.0781e-05
2.07206e-05
2.06557e-05
2.05866e-05
2.05134e-05
2.04362e-05
2.03549e-05
2.02699e-05
2.01813e-05
2.0089e-05
1.99932e-05
1.98944e-05
1.97923e-05
2.08063e-05
2.07682e-05
2.07254e-05
2.0678e-05
2.0626e-05
2.05695e-05
2.05088e-05
2.04436e-05
2.03742e-05
2.03006e-05
2.0223e-05
2.01415e-05
2.00562e-05
1.99672e-05
1.98746e-05
1.97785e-05
1.96794e-05
1.9577e-05
2.05942e-05
2.05558e-05
2.05128e-05
2.04652e-05
2.0413e-05
2.03563e-05
2.02953e-05
2.02297e-05
2.01601e-05
2.00862e-05
2.00084e-05
1.99265e-05
1.98409e-05
1.97516e-05
1.96588e-05
1.95624e-05
1.9463e-05
1.93604e-05
2.03802e-05
2.03417e-05
2.02985e-05
2.02507e-05
2.01983e-05
2.01413e-05
2.00801e-05
2.00143e-05
1.99444e-05
1.98702e-05
1.97921e-05
1.971e-05
1.96242e-05
1.95347e-05
1.94415e-05
1.9345e-05
1.92453e-05
1.91425e-05
2.01645e-05
2.01258e-05
2.00825e-05
2.00345e-05
1.99819e-05
1.99247e-05
1.98633e-05
1.97973e-05
1.97272e-05
1.96528e-05
1.95745e-05
1.94922e-05
1.94062e-05
1.93165e-05
1.92231e-05
1.91264e-05
1.90265e-05
1.89236e-05
1.99473e-05
1.99084e-05
1.9865e-05
1.98168e-05
1.9764e-05
1.97067e-05
1.96451e-05
1.95789e-05
1.95085e-05
1.9434e-05
1.93556e-05
1.92731e-05
1.9187e-05
1.9097e-05
1.90035e-05
1.89066e-05
1.88066e-05
1.87037e-05
1.97284e-05
1.96895e-05
1.96459e-05
1.95977e-05
1.95447e-05
1.94872e-05
1.94254e-05
1.93591e-05
1.92886e-05
1.9214e-05
1.91353e-05
1.90528e-05
1.89666e-05
1.88764e-05
1.87828e-05
1.86858e-05
1.85858e-05
1.84828e-05
1.95082e-05
1.94692e-05
1.94255e-05
1.93771e-05
1.9324e-05
1.92665e-05
1.92045e-05
1.91381e-05
1.90675e-05
1.89927e-05
1.8914e-05
1.88314e-05
1.8745e-05
1.86548e-05
1.85611e-05
1.84641e-05
1.8364e-05
1.8261e-05
1.92866e-05
1.92475e-05
1.92037e-05
1.91553e-05
1.91021e-05
1.90445e-05
1.89824e-05
1.8916e-05
1.88453e-05
1.87704e-05
1.86915e-05
1.86089e-05
1.85225e-05
1.84322e-05
1.83385e-05
1.82415e-05
1.81414e-05
1.80385e-05
1.90638e-05
1.90246e-05
1.89807e-05
1.89322e-05
1.8879e-05
1.88213e-05
1.87592e-05
1.86927e-05
1.8622e-05
1.8547e-05
1.84681e-05
1.83855e-05
1.8299e-05
1.82088e-05
1.8115e-05
1.80181e-05
1.7918e-05
1.78151e-05
1.8874e-05
1.88397e-05
1.88005e-05
1.87566e-05
1.8708e-05
1.86548e-05
1.85971e-05
1.85349e-05
1.84684e-05
1.83977e-05
1.83227e-05
1.82438e-05
1.81612e-05
1.80747e-05
1.79846e-05
1.78908e-05
1.77939e-05
1.7694e-05
1.75911e-05
1.86489e-05
1.86145e-05
1.85753e-05
1.85314e-05
1.84828e-05
1.84296e-05
1.83719e-05
1.83096e-05
1.82432e-05
1.81724e-05
1.80975e-05
1.80186e-05
1.79361e-05
1.78497e-05
1.77596e-05
1.76659e-05
1.75691e-05
1.74693e-05
1.73666e-05
1.84523e-05
1.84227e-05
1.83883e-05
1.83491e-05
1.83052e-05
1.82566e-05
1.82034e-05
1.81457e-05
1.80835e-05
1.80171e-05
1.79464e-05
1.78715e-05
1.77927e-05
1.77102e-05
1.76239e-05
1.75339e-05
1.74403e-05
1.73438e-05
1.72441e-05
1.71415e-05
1.82252e-05
1.81956e-05
1.81612e-05
1.8122e-05
1.80781e-05
1.80296e-05
1.79764e-05
1.79188e-05
1.78566e-05
1.77903e-05
1.77196e-05
1.76448e-05
1.75661e-05
1.74837e-05
1.73975e-05
1.73076e-05
1.72142e-05
1.71178e-05
1.70184e-05
1.6916e-05
1.79972e-05
1.79677e-05
1.79333e-05
1.78941e-05
1.78503e-05
1.78017e-05
1.77486e-05
1.76911e-05
1.7629e-05
1.75627e-05
1.74921e-05
1.74174e-05
1.73389e-05
1.72566e-05
1.71705e-05
1.70808e-05
1.69876e-05
1.68914e-05
1.67922e-05
1.66901e-05
1.77684e-05
1.77389e-05
1.77046e-05
1.76655e-05
1.76217e-05
1.75732e-05
1.75202e-05
1.74626e-05
1.74006e-05
1.73345e-05
1.7264e-05
1.71895e-05
1.71111e-05
1.70289e-05
1.6943e-05
1.68536e-05
1.67606e-05
1.66646e-05
1.65657e-05
1.64638e-05
1.75388e-05
1.75093e-05
1.74751e-05
1.74361e-05
1.73924e-05
1.73439e-05
1.7291e-05
1.72336e-05
1.71717e-05
1.71057e-05
1.70353e-05
1.6961e-05
1.68827e-05
1.68008e-05
1.67152e-05
1.66259e-05
1.65332e-05
1.64375e-05
1.63389e-05
1.62374e-05
1.73086e-05
1.72792e-05
1.7245e-05
1.72061e-05
1.71624e-05
1.71141e-05
1.70613e-05
1.70041e-05
1.69423e-05
1.68764e-05
1.68062e-05
1.67321e-05
1.6654e-05
1.65723e-05
1.64869e-05
1.6398e-05
1.63056e-05
1.62102e-05
1.61118e-05
1.60107e-05
1.70778e-05
1.70485e-05
1.70143e-05
1.69755e-05
1.6932e-05
1.68837e-05
1.68311e-05
1.6774e-05
1.67124e-05
1.66467e-05
1.65767e-05
1.65028e-05
1.6425e-05
1.63435e-05
1.62584e-05
1.61697e-05
1.60777e-05
1.59826e-05
1.58846e-05
1.57839e-05
1.68464e-05
1.68172e-05
1.67832e-05
1.67444e-05
1.6701e-05
1.66529e-05
1.66004e-05
1.65435e-05
1.64822e-05
1.64166e-05
1.63469e-05
1.62732e-05
1.61956e-05
1.61144e-05
1.60296e-05
1.59413e-05
1.58496e-05
1.57549e-05
1.56574e-05
1.5557e-05
1.66147e-05
1.65855e-05
1.65516e-05
1.6513e-05
1.64697e-05
1.64217e-05
1.63694e-05
1.63127e-05
1.62516e-05
1.61862e-05
1.61168e-05
1.60433e-05
1.5966e-05
1.58851e-05
1.58007e-05
1.57127e-05
1.56214e-05
1.55271e-05
1.543e-05
1.53301e-05
1.63825e-05
1.63535e-05
1.63197e-05
1.62812e-05
1.6238e-05
1.61902e-05
1.61381e-05
1.60816e-05
1.60207e-05
1.59556e-05
1.58864e-05
1.58133e-05
1.57363e-05
1.56557e-05
1.55716e-05
1.5484e-05
1.53932e-05
1.52993e-05
1.52027e-05
1.51033e-05
1.61501e-05
1.61212e-05
1.60875e-05
1.60491e-05
1.60061e-05
1.59585e-05
1.59065e-05
1.58503e-05
1.57896e-05
1.57247e-05
1.56559e-05
1.55831e-05
1.55065e-05
1.54262e-05
1.53425e-05
1.52553e-05
1.51649e-05
1.50715e-05
1.49754e-05
1.48765e-05
1.59174e-05
1.58886e-05
1.5855e-05
1.58169e-05
1.57739e-05
1.57265e-05
1.56748e-05
1.56188e-05
1.55584e-05
1.54938e-05
1.54253e-05
1.53528e-05
1.52766e-05
1.51967e-05
1.51134e-05
1.50267e-05
1.49368e-05
1.48439e-05
1.47482e-05
1.46499e-05
1.56845e-05
1.56558e-05
1.56223e-05
1.55844e-05
1.55416e-05
1.54944e-05
1.54429e-05
1.53872e-05
1.53271e-05
1.52628e-05
1.51947e-05
1.51226e-05
1.50467e-05
1.49672e-05
1.48844e-05
1.47981e-05
1.47087e-05
1.46163e-05
1.45212e-05
1.4422e-05
1.54514e-05
1.54229e-05
1.53896e-05
1.53518e-05
1.53093e-05
1.52623e-05
1.52111e-05
1.51556e-05
1.50958e-05
1.50319e-05
1.49641e-05
1.48923e-05
1.48169e-05
1.47379e-05
1.46555e-05
1.45698e-05
1.44808e-05
1.4389e-05
1.42944e-05
1.41882e-05
1.52184e-05
1.519e-05
1.51568e-05
1.51192e-05
1.50769e-05
1.50302e-05
1.49792e-05
1.4924e-05
1.48646e-05
1.4801e-05
1.47336e-05
1.46622e-05
1.45873e-05
1.45087e-05
1.44268e-05
1.43416e-05
1.42532e-05
1.41619e-05
1.40679e-05
1.39525e-05
1.49853e-05
1.4957e-05
1.4924e-05
1.48866e-05
1.48445e-05
1.47981e-05
1.47474e-05
1.46925e-05
1.46335e-05
1.45702e-05
1.45032e-05
1.44323e-05
1.43578e-05
1.42797e-05
1.41983e-05
1.41137e-05
1.40258e-05
1.39351e-05
1.38383e-05
1.37165e-05
1.47522e-05
1.47241e-05
1.46913e-05
1.46541e-05
1.46123e-05
1.45661e-05
1.45157e-05
1.44611e-05
1.44025e-05
1.43396e-05
1.4273e-05
1.42026e-05
1.41285e-05
1.4051e-05
1.39701e-05
1.3886e-05
1.37958e-05
1.37011e-05
1.36015e-05
1.34808e-05
1.45193e-05
1.44914e-05
1.44587e-05
1.44218e-05
1.43802e-05
1.43343e-05
1.42842e-05
1.423e-05
1.41717e-05
1.41093e-05
1.40431e-05
1.39731e-05
1.38995e-05
1.38225e-05
1.37385e-05
1.36507e-05
1.35588e-05
1.34631e-05
1.33633e-05
1.3246e-05
1.42865e-05
1.42588e-05
1.42263e-05
1.41896e-05
1.41483e-05
1.41027e-05
1.40529e-05
1.39991e-05
1.39412e-05
1.38792e-05
1.38134e-05
1.37426e-05
1.36658e-05
1.35854e-05
1.35005e-05
1.34119e-05
1.332e-05
1.32248e-05
1.3126e-05
1.30124e-05
1.4054e-05
1.40264e-05
1.39942e-05
1.39577e-05
1.39167e-05
1.38714e-05
1.3822e-05
1.37685e-05
1.37103e-05
1.36458e-05
1.35772e-05
1.35042e-05
1.34267e-05
1.33457e-05
1.3261e-05
1.31729e-05
1.30819e-05
1.29877e-05
1.28906e-05
1.27803e-05
1.38217e-05
1.37943e-05
1.37623e-05
1.37261e-05
1.36854e-05
1.36389e-05
1.35873e-05
1.35315e-05
1.34712e-05
1.34061e-05
1.33369e-05
1.32636e-05
1.31866e-05
1.31061e-05
1.30222e-05
1.29352e-05
1.28454e-05
1.27526e-05
1.26572e-05
1.25499e-05
1.35886e-05
1.356e-05
1.35266e-05
1.34888e-05
1.34462e-05
1.33988e-05
1.33468e-05
1.32904e-05
1.32298e-05
1.3165e-05
1.30962e-05
1.30235e-05
1.29473e-05
1.28679e-05
1.27851e-05
1.26994e-05
1.2611e-05
1.25197e-05
1.2426e-05
1.23211e-05
1.33479e-05
1.33189e-05
1.32853e-05
1.3247e-05
1.32041e-05
1.31568e-05
1.3105e-05
1.30489e-05
1.29887e-05
1.29246e-05
1.28566e-05
1.27849e-05
1.27099e-05
1.26316e-05
1.25501e-05
1.24657e-05
1.23787e-05
1.22888e-05
1.21968e-05
1.20941e-05
1.2962e-05
1.29151e-05
1.2864e-05
1.28085e-05
1.27491e-05
1.26859e-05
1.26189e-05
1.25484e-05
1.24745e-05
1.23975e-05
1.23174e-05
1.22343e-05
1.21484e-05
1.20601e-05
1.19695e-05
1.18689e-05
1.25115e-05
1.24493e-05
1.23834e-05
1.2314e-05
1.22413e-05
1.21655e-05
1.20866e-05
1.20048e-05
1.19202e-05
1.18332e-05
1.17441e-05
1.16452e-05
2.24363e-05
2.25297e-05
2.2246e-05
2.23403e-05
2.20531e-05
2.21484e-05
2.18577e-05
2.19539e-05
2.20471e-05
2.166e-05
2.17571e-05
2.18511e-05
2.14601e-05
2.1558e-05
2.16528e-05
2.17441e-05
2.12582e-05
2.13567e-05
2.14522e-05
2.15443e-05
2.10542e-05
2.11534e-05
2.12496e-05
2.13424e-05
2.08483e-05
2.09481e-05
2.10449e-05
2.11384e-05
2.12282e-05
2.06405e-05
2.0741e-05
2.08383e-05
2.09324e-05
2.10228e-05
2.04311e-05
2.0532e-05
2.06298e-05
2.07245e-05
2.08154e-05
2.02201e-05
2.03215e-05
2.04197e-05
2.05148e-05
2.06062e-05
2.00075e-05
2.01093e-05
2.02079e-05
2.03034e-05
2.03953e-05
1.97935e-05
1.98956e-05
1.99946e-05
2.00904e-05
2.01827e-05
1.95781e-05
1.96805e-05
1.97798e-05
1.98759e-05
1.99686e-05
2.00578e-05
1.93614e-05
1.9464e-05
1.95636e-05
1.966e-05
1.9753e-05
1.98425e-05
1.91436e-05
1.92464e-05
1.93463e-05
1.94429e-05
1.95361e-05
1.96258e-05
1.97116e-05
1.89246e-05
1.90276e-05
1.91276e-05
1.92245e-05
1.93179e-05
1.94078e-05
1.94937e-05
1.9576e-05
1.87046e-05
1.88077e-05
1.89079e-05
1.90049e-05
1.90984e-05
1.91885e-05
1.92746e-05
1.93571e-05
1.94356e-05
1.84836e-05
1.85868e-05
1.86871e-05
1.87842e-05
1.88779e-05
1.8968e-05
1.90543e-05
1.91369e-05
1.92156e-05
1.92901e-05
1.82618e-05
1.8365e-05
1.84654e-05
1.85626e-05
1.86563e-05
1.87465e-05
1.88328e-05
1.89155e-05
1.89943e-05
1.90689e-05
1.80392e-05
1.81424e-05
1.82427e-05
1.834e-05
1.84337e-05
1.85239e-05
1.86103e-05
1.86931e-05
1.87719e-05
1.88466e-05
1.78159e-05
1.7919e-05
1.80193e-05
1.81165e-05
1.82102e-05
1.83005e-05
1.83869e-05
1.84696e-05
1.85485e-05
1.86232e-05
1.75919e-05
1.76949e-05
1.77951e-05
1.78922e-05
1.79859e-05
1.80761e-05
1.81626e-05
1.82453e-05
1.83241e-05
1.83988e-05
1.73674e-05
1.74702e-05
1.75703e-05
1.76672e-05
1.77609e-05
1.7851e-05
1.79374e-05
1.80201e-05
1.80988e-05
1.81736e-05
1.71423e-05
1.7245e-05
1.73448e-05
1.74417e-05
1.75352e-05
1.76251e-05
1.77115e-05
1.77941e-05
1.78728e-05
1.79475e-05
1.69167e-05
1.70193e-05
1.71189e-05
1.72155e-05
1.73089e-05
1.73987e-05
1.74849e-05
1.75675e-05
1.7646e-05
1.77206e-05
1.66908e-05
1.67931e-05
1.68925e-05
1.69889e-05
1.7082e-05
1.71717e-05
1.72578e-05
1.73402e-05
1.74186e-05
1.74931e-05
1.64646e-05
1.65666e-05
1.66657e-05
1.67618e-05
1.68548e-05
1.69442e-05
1.70302e-05
1.71123e-05
1.71906e-05
1.7265e-05
1.62381e-05
1.63398e-05
1.64386e-05
1.65344e-05
1.66271e-05
1.67163e-05
1.68021e-05
1.6884e-05
1.69621e-05
1.70364e-05
1.60114e-05
1.61127e-05
1.62112e-05
1.63067e-05
1.6399e-05
1.6488e-05
1.65736e-05
1.66553e-05
1.67332e-05
1.68072e-05
1.57846e-05
1.58855e-05
1.59836e-05
1.60788e-05
1.61708e-05
1.62595e-05
1.63447e-05
1.64262e-05
1.65039e-05
1.65776e-05
2.24364e-05
2.2246e-05
2.20531e-05
2.18577e-05
2.16601e-05
2.14602e-05
2.12582e-05
2.10542e-05
2.08483e-05
2.06406e-05
2.04311e-05
2.02201e-05
2.00075e-05
1.97934e-05
1.95781e-05
1.93614e-05
1.91435e-05
1.89246e-05
1.87046e-05
1.84836e-05
1.82618e-05
1.80392e-05
1.78159e-05
1.75919e-05
1.73673e-05
1.71422e-05
1.69167e-05
1.66907e-05
1.64645e-05
1.6238e-05
1.60113e-05
1.57845e-05
2.25297e-05
2.23404e-05
2.21485e-05
2.19541e-05
2.17573e-05
2.15582e-05
2.13569e-05
2.11536e-05
2.09483e-05
2.07412e-05
2.05322e-05
2.03216e-05
2.01094e-05
1.98957e-05
1.96806e-05
1.94642e-05
1.92465e-05
1.90276e-05
1.88077e-05
1.85869e-05
1.83651e-05
1.81424e-05
1.7919e-05
1.76949e-05
1.74702e-05
1.72449e-05
1.70191e-05
1.67929e-05
1.65663e-05
1.63395e-05
1.61124e-05
1.58852e-05
1.56579e-05
2.26197e-05
2.24314e-05
2.22405e-05
2.20471e-05
2.18511e-05
2.16528e-05
2.14523e-05
2.12497e-05
2.1045e-05
2.08384e-05
2.063e-05
2.04198e-05
2.0208e-05
1.99947e-05
1.97799e-05
1.95637e-05
1.93462e-05
1.91275e-05
1.89078e-05
1.8687e-05
1.84652e-05
1.82426e-05
1.80191e-05
1.77949e-05
1.757e-05
1.73446e-05
1.71186e-05
1.68922e-05
1.66654e-05
1.64383e-05
1.62109e-05
1.59833e-05
1.57556e-05
1.55278e-05
1.53e-05
1.50722e-05
1.48445e-05
1.4617e-05
2.27064e-05
2.25192e-05
2.23293e-05
2.21367e-05
2.19416e-05
2.17442e-05
2.15444e-05
2.13424e-05
2.11384e-05
2.09323e-05
2.07244e-05
2.05148e-05
2.03034e-05
2.00905e-05
1.9876e-05
1.96601e-05
1.94429e-05
1.92243e-05
1.90047e-05
1.87839e-05
1.85622e-05
1.83396e-05
1.81161e-05
1.78919e-05
1.76669e-05
1.74414e-05
1.72152e-05
1.69886e-05
1.67615e-05
1.65341e-05
1.63065e-05
1.60786e-05
1.58505e-05
1.56223e-05
1.53941e-05
1.51658e-05
1.49376e-05
1.47095e-05
2.27897e-05
2.26036e-05
2.24146e-05
2.2223e-05
2.20288e-05
2.18321e-05
2.16331e-05
2.14318e-05
2.12284e-05
2.1023e-05
2.08156e-05
2.06064e-05
2.03955e-05
2.01828e-05
1.99687e-05
1.9753e-05
1.95361e-05
1.93178e-05
1.90983e-05
1.88776e-05
1.8656e-05
1.84334e-05
1.82099e-05
1.79856e-05
1.77605e-05
1.75348e-05
1.73086e-05
1.70818e-05
1.68545e-05
1.66269e-05
1.63989e-05
1.61707e-05
1.59423e-05
1.57137e-05
1.5485e-05
1.52563e-05
1.50277e-05
1.47991e-05
2.28697e-05
2.26845e-05
2.24965e-05
2.23057e-05
2.21123e-05
2.19164e-05
2.17181e-05
2.15175e-05
2.13148e-05
2.11099e-05
2.0903e-05
2.06943e-05
2.04838e-05
2.02716e-05
2.00578e-05
1.98424e-05
1.96257e-05
1.94076e-05
1.91883e-05
1.89678e-05
1.87462e-05
1.85237e-05
1.83002e-05
1.80758e-05
1.78507e-05
1.76249e-05
1.73985e-05
1.71715e-05
1.69441e-05
1.67162e-05
1.6488e-05
1.62594e-05
1.60306e-05
1.58017e-05
1.55727e-05
1.53435e-05
1.51145e-05
1.48854e-05
1.46565e-05
2.29459e-05
2.27619e-05
2.25748e-05
2.23849e-05
2.21924e-05
2.19972e-05
2.17996e-05
2.15997e-05
2.13974e-05
2.11931e-05
2.09867e-05
2.07784e-05
2.05683e-05
2.03565e-05
2.0143e-05
1.99281e-05
1.97116e-05
1.94938e-05
1.92747e-05
1.90543e-05
1.88328e-05
1.86104e-05
1.83869e-05
1.81625e-05
1.79374e-05
1.77115e-05
1.74849e-05
1.72577e-05
1.70301e-05
1.6802e-05
1.65735e-05
1.63446e-05
1.61155e-05
1.58863e-05
1.56569e-05
1.54274e-05
1.51978e-05
1.49684e-05
1.4739e-05
2.30185e-05
2.28354e-05
2.26493e-05
2.24603e-05
2.22686e-05
2.20742e-05
2.18773e-05
2.1678e-05
2.14764e-05
2.12726e-05
2.10667e-05
2.08588e-05
2.06491e-05
2.04377e-05
2.02245e-05
2.00097e-05
1.97935e-05
1.95759e-05
1.93569e-05
1.91367e-05
1.89154e-05
1.8693e-05
1.84696e-05
1.82452e-05
1.802e-05
1.7794e-05
1.75674e-05
1.73402e-05
1.71123e-05
1.6884e-05
1.66553e-05
1.64262e-05
1.61968e-05
1.59673e-05
1.57375e-05
1.55077e-05
1.52778e-05
1.50479e-05
1.48181e-05
2.30872e-05
2.2905e-05
2.27198e-05
2.25317e-05
2.23408e-05
2.21471e-05
2.19509e-05
2.17522e-05
2.15512e-05
2.1348e-05
2.11427e-05
2.09353e-05
2.07261e-05
2.05149e-05
2.03021e-05
2.00877e-05
1.98717e-05
1.96542e-05
1.94354e-05
1.92154e-05
1.89942e-05
1.87718e-05
1.85484e-05
1.83241e-05
1.80989e-05
1.78728e-05
1.76461e-05
1.74187e-05
1.71907e-05
1.69622e-05
1.67333e-05
1.6504e-05
1.62744e-05
1.60446e-05
1.58145e-05
1.55844e-05
1.53541e-05
1.51238e-05
1.48936e-05
2.3152e-05
2.29708e-05
2.27864e-05
2.25991e-05
2.2409e-05
2.2216e-05
2.20205e-05
2.18225e-05
2.16222e-05
2.14196e-05
2.12147e-05
2.10079e-05
2.0799e-05
2.05883e-05
2.03758e-05
2.01617e-05
1.99459e-05
1.97286e-05
1.951e-05
1.92901e-05
1.9069e-05
1.88468e-05
1.86234e-05
1.83991e-05
1.81739e-05
1.79478e-05
1.7721e-05
1.74935e-05
1.72654e-05
1.70368e-05
1.68076e-05
1.65781e-05
1.63482e-05
1.61181e-05
1.58877e-05
1.56572e-05
1.54266e-05
1.5196e-05
1.49653e-05
2.32129e-05
2.30326e-05
2.28492e-05
2.26627e-05
2.24732e-05
2.2281e-05
2.20862e-05
2.18887e-05
2.16889e-05
2.14868e-05
2.12826e-05
2.10762e-05
2.08677e-05
2.06574e-05
2.04452e-05
2.02314e-05
2.00159e-05
1.97989e-05
1.95805e-05
1.93607e-05
1.91397e-05
1.89176e-05
1.86943e-05
1.847e-05
1.82448e-05
1.80187e-05
1.77918e-05
1.75641e-05
1.73358e-05
1.7107e-05
1.68777e-05
1.6648e-05
1.64179e-05
1.61875e-05
1.59568e-05
1.5726e-05
1.54951e-05
1.52641e-05
1.50331e-05
2.30904e-05
2.29077e-05
2.2722e-05
2.25333e-05
2.23418e-05
2.21475e-05
2.19507e-05
2.17514e-05
2.15498e-05
2.13459e-05
2.11399e-05
2.09319e-05
2.07219e-05
2.05102e-05
2.02966e-05
2.00814e-05
1.98647e-05
1.96465e-05
1.94269e-05
1.9206e-05
1.89839e-05
1.87607e-05
1.85364e-05
1.83111e-05
1.8085e-05
1.7858e-05
1.76303e-05
1.7402e-05
1.7173e-05
1.69436e-05
1.67137e-05
1.64834e-05
1.62527e-05
1.60218e-05
1.57908e-05
1.55596e-05
1.53283e-05
1.5097e-05
2.29622e-05
2.27772e-05
2.25892e-05
2.23984e-05
2.22048e-05
2.20086e-05
2.18098e-05
2.16087e-05
2.14053e-05
2.11997e-05
2.0992e-05
2.07823e-05
2.05708e-05
2.03575e-05
2.01426e-05
1.99261e-05
1.9708e-05
1.94886e-05
1.92678e-05
1.90458e-05
1.88227e-05
1.85984e-05
1.83732e-05
1.8147e-05
1.792e-05
1.76923e-05
1.74638e-05
1.72348e-05
1.70052e-05
1.67752e-05
1.65447e-05
1.63139e-05
1.60828e-05
1.58514e-05
1.562e-05
1.53884e-05
1.51567e-05
2.30127e-05
2.28284e-05
2.2641e-05
2.24508e-05
2.22577e-05
2.2062e-05
2.18638e-05
2.16631e-05
2.14601e-05
2.12549e-05
2.10476e-05
2.08383e-05
2.06271e-05
2.04141e-05
2.01993e-05
1.9983e-05
1.97651e-05
1.95458e-05
1.93252e-05
1.91032e-05
1.88801e-05
1.86559e-05
1.84306e-05
1.82045e-05
1.79775e-05
1.77497e-05
1.75211e-05
1.7292e-05
1.70623e-05
1.68321e-05
1.66015e-05
1.63705e-05
1.61392e-05
1.59077e-05
1.5676e-05
1.54441e-05
1.52122e-05
2.28753e-05
2.26885e-05
2.24988e-05
2.23063e-05
2.21111e-05
2.19133e-05
2.17131e-05
2.15105e-05
2.13057e-05
2.10987e-05
2.08898e-05
2.06788e-05
2.04661e-05
2.02516e-05
2.00355e-05
1.98178e-05
1.95986e-05
1.9378e-05
1.91562e-05
1.89331e-05
1.8709e-05
1.84837e-05
1.82575e-05
1.80305e-05
1.78026e-05
1.7574e-05
1.73448e-05
1.7115e-05
1.68847e-05
1.66539e-05
1.64227e-05
1.61912e-05
1.59595e-05
1.57276e-05
1.54955e-05
1.52634e-05
2.29182e-05
2.2732e-05
2.25427e-05
2.23507e-05
2.21559e-05
2.19586e-05
2.17588e-05
2.15566e-05
2.13521e-05
2.11454e-05
2.09367e-05
2.0726e-05
2.05135e-05
2.02992e-05
2.00833e-05
1.98657e-05
1.96467e-05
1.94262e-05
1.92044e-05
1.89815e-05
1.87573e-05
1.85321e-05
1.8306e-05
1.80789e-05
1.7851e-05
1.76224e-05
1.73931e-05
1.71632e-05
1.69327e-05
1.67018e-05
1.64704e-05
1.62388e-05
1.60069e-05
1.57747e-05
1.55424e-05
1.53101e-05
2.2771e-05
2.25823e-05
2.23907e-05
2.21964e-05
2.19994e-05
2.18e-05
2.15981e-05
2.13939e-05
2.11875e-05
2.09791e-05
2.07687e-05
2.05563e-05
2.03422e-05
2.01264e-05
1.9909e-05
1.96902e-05
1.94698e-05
1.92481e-05
1.90252e-05
1.88011e-05
1.85759e-05
1.83497e-05
1.81226e-05
1.78947e-05
1.7666e-05
1.74366e-05
1.72067e-05
1.69761e-05
1.67451e-05
1.65136e-05
1.62818e-05
1.60497e-05
1.58174e-05
1.55849e-05
1.53523e-05
2.26174e-05
2.24263e-05
2.22323e-05
2.20358e-05
2.18366e-05
2.1635e-05
2.14312e-05
2.12251e-05
2.1017e-05
2.08067e-05
2.05946e-05
2.03806e-05
2.01649e-05
1.99477e-05
1.97289e-05
1.95087e-05
1.9287e-05
1.90642e-05
1.88402e-05
1.8615e-05
1.83888e-05
1.81617e-05
1.79337e-05
1.7705e-05
1.74756e-05
1.72455e-05
1.70148e-05
1.67837e-05
1.65522e-05
1.63202e-05
1.6088e-05
1.58555e-05
1.56229e-05
1.53901e-05
2.26481e-05
2.24574e-05
2.22638e-05
2.20675e-05
2.18687e-05
2.16674e-05
2.14637e-05
2.12578e-05
2.10499e-05
2.08399e-05
2.0628e-05
2.04142e-05
2.01987e-05
1.99816e-05
1.9763e-05
1.95428e-05
1.93213e-05
1.90985e-05
1.88745e-05
1.86494e-05
1.84232e-05
1.81961e-05
1.79682e-05
1.77394e-05
1.75099e-05
1.72798e-05
1.7049e-05
1.68178e-05
1.65861e-05
1.6354e-05
1.61217e-05
1.58891e-05
1.56563e-05
1.54234e-05
2.26746e-05
2.24842e-05
2.22908e-05
2.20948e-05
2.18962e-05
2.16952e-05
2.14918e-05
2.12861e-05
2.10783e-05
2.08684e-05
2.06566e-05
2.0443e-05
2.02277e-05
2.00107e-05
1.97921e-05
1.9572e-05
1.93506e-05
1.91279e-05
1.89039e-05
1.86789e-05
1.84527e-05
1.82256e-05
1.79976e-05
1.77688e-05
1.75392e-05
1.7309e-05
1.70782e-05
1.68469e-05
1.66152e-05
1.63831e-05
1.61506e-05
1.59179e-05
1.5685e-05
1.54519e-05
2.26965e-05
2.25063e-05
2.23133e-05
2.21176e-05
2.19192e-05
2.17183e-05
2.15151e-05
2.13096e-05
2.1102e-05
2.08923e-05
2.06807e-05
2.04671e-05
2.02518e-05
2.00349e-05
1.98164e-05
1.95964e-05
1.9375e-05
1.91523e-05
1.89284e-05
1.87034e-05
1.84773e-05
1.82502e-05
1.80222e-05
1.77934e-05
1.75639e-05
1.73336e-05
1.71028e-05
1.68714e-05
1.66395e-05
1.64073e-05
1.61747e-05
1.59419e-05
1.57088e-05
1.54757e-05
2.25241e-05
2.23313e-05
2.21357e-05
2.19375e-05
2.17369e-05
2.15338e-05
2.13284e-05
2.11208e-05
2.09112e-05
2.06997e-05
2.04863e-05
2.02711e-05
2.00542e-05
1.98357e-05
1.96158e-05
1.93944e-05
1.91718e-05
1.89479e-05
1.87229e-05
1.84968e-05
1.82697e-05
1.80417e-05
1.78129e-05
1.75833e-05
1.7353e-05
1.71222e-05
1.68907e-05
1.66588e-05
1.64265e-05
1.61939e-05
1.5961e-05
1.5728e-05
1.54947e-05
2.25371e-05
2.23445e-05
2.21491e-05
2.19511e-05
2.17506e-05
2.15476e-05
2.13423e-05
2.11349e-05
2.09254e-05
2.07139e-05
2.05006e-05
2.02855e-05
2.00687e-05
1.98503e-05
1.96304e-05
1.94091e-05
1.91864e-05
1.89626e-05
1.87376e-05
1.85115e-05
1.82844e-05
1.80564e-05
1.78276e-05
1.7598e-05
1.73677e-05
1.71368e-05
1.69054e-05
1.66734e-05
1.6441e-05
1.62084e-05
1.59754e-05
1.57423e-05
1.55089e-05
2.23532e-05
2.21579e-05
2.196e-05
2.17595e-05
2.15566e-05
2.13515e-05
2.11441e-05
2.09347e-05
2.07233e-05
2.051e-05
2.02949e-05
2.00782e-05
1.98598e-05
1.964e-05
1.94187e-05
1.91961e-05
1.89723e-05
1.87473e-05
1.85212e-05
1.82941e-05
1.80661e-05
1.78373e-05
1.76077e-05
1.73774e-05
1.71465e-05
1.6915e-05
1.66831e-05
1.64507e-05
1.6218e-05
1.59851e-05
1.57519e-05
1.55185e-05
2.23574e-05
2.21622e-05
2.19643e-05
2.17639e-05
2.15611e-05
2.1356e-05
2.11487e-05
2.09393e-05
2.07279e-05
2.05147e-05
2.02997e-05
2.00829e-05
1.98646e-05
1.96448e-05
1.94235e-05
1.92009e-05
1.89771e-05
1.87521e-05
1.8526e-05
1.82989e-05
1.80709e-05
1.78421e-05
1.76125e-05
1.73822e-05
1.71513e-05
1.69198e-05
1.66879e-05
1.64555e-05
1.62228e-05
1.59898e-05
1.57565e-05
1.55232e-05
2.21621e-05
2.19642e-05
2.17638e-05
2.1561e-05
2.13559e-05
2.11486e-05
2.09392e-05
2.07279e-05
2.05146e-05
2.02996e-05
2.00828e-05
1.98645e-05
1.96447e-05
1.94235e-05
1.92009e-05
1.89771e-05
1.87521e-05
1.8526e-05
1.82989e-05
1.80709e-05
1.7842e-05
1.76125e-05
1.73821e-05
1.71512e-05
1.69197e-05
1.66878e-05
1.64554e-05
1.62227e-05
1.59897e-05
1.57566e-05
1.55232e-05
2.21574e-05
2.19595e-05
2.1759e-05
2.15562e-05
2.1351e-05
2.11437e-05
2.09343e-05
2.07229e-05
2.05097e-05
2.02946e-05
2.00779e-05
1.98596e-05
1.96398e-05
1.94185e-05
1.91959e-05
1.8972e-05
1.8747e-05
1.85209e-05
1.82938e-05
1.80659e-05
1.78371e-05
1.76075e-05
1.73772e-05
1.71463e-05
1.69148e-05
1.66828e-05
1.64505e-05
1.62178e-05
1.59848e-05
1.57516e-05
1.55183e-05
2.21484e-05
2.19504e-05
2.17499e-05
2.15469e-05
2.13417e-05
2.11344e-05
2.09249e-05
2.07134e-05
2.05e-05
2.02849e-05
2.00681e-05
1.98497e-05
1.96298e-05
1.94085e-05
1.91859e-05
1.89621e-05
1.87371e-05
1.8511e-05
1.8284e-05
1.8056e-05
1.78272e-05
1.75975e-05
1.73673e-05
1.71364e-05
1.6905e-05
1.66731e-05
1.64408e-05
1.62081e-05
1.59752e-05
1.57421e-05
1.55088e-05
2.21347e-05
2.19365e-05
2.17359e-05
2.1533e-05
2.13277e-05
2.11202e-05
2.09106e-05
2.0699e-05
2.04855e-05
2.02703e-05
2.00535e-05
1.9835e-05
1.96151e-05
1.93938e-05
1.91711e-05
1.89473e-05
1.87223e-05
1.84962e-05
1.82691e-05
1.80412e-05
1.78123e-05
1.75828e-05
1.73526e-05
1.71217e-05
1.68903e-05
1.66585e-05
1.64262e-05
1.61936e-05
1.59607e-05
1.57276e-05
1.54943e-05
2.21166e-05
2.19183e-05
2.17175e-05
2.15143e-05
2.13088e-05
2.11012e-05
2.08914e-05
2.06797e-05
2.04662e-05
2.02509e-05
2.0034e-05
1.98155e-05
1.95955e-05
1.93742e-05
1.91515e-05
1.89276e-05
1.87026e-05
1.84765e-05
1.82494e-05
1.80215e-05
1.77927e-05
1.75632e-05
1.7333e-05
1.71022e-05
1.68708e-05
1.6639e-05
1.64068e-05
1.61742e-05
1.59414e-05
1.57084e-05
1.54752e-05
2.20939e-05
2.18954e-05
2.16943e-05
2.14909e-05
2.12852e-05
2.10774e-05
2.08676e-05
2.06558e-05
2.04422e-05
2.02268e-05
2.00098e-05
1.97913e-05
1.95713e-05
1.93499e-05
1.91272e-05
1.89032e-05
1.86782e-05
1.84521e-05
1.8225e-05
1.79971e-05
1.77683e-05
1.75388e-05
1.73086e-05
1.70778e-05
1.68466e-05
1.66148e-05
1.63827e-05
1.61502e-05
1.59175e-05
1.56846e-05
1.54515e-05
2.20666e-05
2.18679e-05
2.16666e-05
2.1463e-05
2.12571e-05
2.10491e-05
2.08391e-05
2.06272e-05
2.04134e-05
2.0198e-05
1.99809e-05
1.97622e-05
1.95422e-05
1.93207e-05
1.9098e-05
1.8874e-05
1.86489e-05
1.84227e-05
1.81957e-05
1.79677e-05
1.77389e-05
1.75094e-05
1.72793e-05
1.70486e-05
1.68174e-05
1.65857e-05
1.63537e-05
1.61213e-05
1.58887e-05
1.56559e-05
1.5423e-05
2.20346e-05
2.18356e-05
2.16341e-05
2.14302e-05
2.12242e-05
2.1016e-05
2.08058e-05
2.05937e-05
2.03799e-05
2.01643e-05
1.99471e-05
1.97283e-05
1.95082e-05
1.92866e-05
1.90638e-05
1.88398e-05
1.86147e-05
1.83885e-05
1.81614e-05
1.79335e-05
1.77048e-05
1.74754e-05
1.72453e-05
1.70147e-05
1.67835e-05
1.6552e-05
1.632e-05
1.60877e-05
1.58553e-05
1.56226e-05
1.53899e-05
2.19982e-05
2.17988e-05
2.1597e-05
2.13929e-05
2.11866e-05
2.09782e-05
2.07679e-05
2.05556e-05
2.03416e-05
2.01258e-05
1.99085e-05
1.96896e-05
1.94693e-05
1.92477e-05
1.90248e-05
1.88008e-05
1.85756e-05
1.83495e-05
1.81224e-05
1.78945e-05
1.76658e-05
1.74364e-05
1.72063e-05
1.69758e-05
1.67447e-05
1.65133e-05
1.62814e-05
1.60493e-05
1.5817e-05
1.55845e-05
1.5352e-05
2.19573e-05
2.17576e-05
2.15554e-05
2.1351e-05
2.11445e-05
2.09359e-05
2.07253e-05
2.05128e-05
2.02986e-05
2.00826e-05
1.98651e-05
1.96461e-05
1.94257e-05
1.92039e-05
1.8981e-05
1.87569e-05
1.85317e-05
1.83055e-05
1.80784e-05
1.78505e-05
1.76219e-05
1.73925e-05
1.71626e-05
1.69322e-05
1.67012e-05
1.64699e-05
1.62383e-05
1.60064e-05
1.57743e-05
1.55421e-05
1.53097e-05
2.19122e-05
2.1712e-05
2.15095e-05
2.13047e-05
2.10978e-05
2.08889e-05
2.06781e-05
2.04654e-05
2.02509e-05
2.00347e-05
1.9817e-05
1.95978e-05
1.93772e-05
1.91554e-05
1.89324e-05
1.87083e-05
1.8483e-05
1.82569e-05
1.80299e-05
1.7802e-05
1.75735e-05
1.73443e-05
1.71144e-05
1.68841e-05
1.66533e-05
1.64222e-05
1.61907e-05
1.5959e-05
1.5727e-05