/*--------------------------------*- C++ -*----------------------------------*\
  =========                 |
  \\      /  F ield         | OpenFOAM: The Open Source CFD Toolbox
   \\    /   O peration     | Website:  https://openfoam.org
    \\  /    A nd           | Version:  7
     \\/     M anipulation  |
\*---------------------------------------------------------------------------*/
FoamFile
{
    version     2.0;
    format      ascii;
    class       surfaceScalarField;
    location    "216000";
    object      phi;
}
// * * * * * * * * * * * * * * * * * * * * * * * * * * * * * * * * * * * * * //

dimensions      [0 3 -1 0 0 0 0];

internalField   nonuniform List<scalar> 
9492
(
8.4835e-22
3.59918e-21
3.2889e-22
4.09889e-22
1.45627e-22
3.59425e-22
2.68742e-21
2.6456e-22
4.30768e-22
1.44626e-22
2.66252e-22
1.03969e-22
1.97671e-22
8.36326e-23
1.23511e-22
8.68543e-23
8.60927e-23
7.01006e-23
9.41678e-23
6.68825e-23
1.76847e-22
2.1594e-21
1.80721e-22
3.25089e-22
1.17351e-22
3.30419e-22
8.95449e-23
2.0325e-22
7.60404e-23
1.52059e-22
8.86709e-23
1.17706e-22
6.32459e-23
8.99531e-23
4.19726e-23
8.49019e-23
3.3655e-23
1.3864e-22
4.23187e-23
1.72518e-22
1.6195e-23
1.10142e-22
1.67644e-21
1.32166e-22
4.09519e-22
8.83121e-23
3.25695e-22
8.40921e-23
1.83904e-22
7.27711e-23
1.28233e-22
8.48505e-23
1.14043e-22
6.49808e-23
1.09039e-22
4.4013e-23
5.72518e-23
3.80869e-23
1.02501e-22
2.93935e-23
9.68008e-23
2.89267e-23
5.58646e-23
2.13986e-23
5.77891e-23
2.35643e-23
-4.24037e-24
3.28384e-23
3.52376e-23
-3.81281e-24
-5.2019e-23
-5.87839e-23
-9.59896e-24
7.75615e-23
1.39914e-21
8.84142e-23
3.85769e-22
7.21672e-23
3.63711e-22
7.19412e-23
2.62594e-22
6.30112e-23
1.55118e-22
8.01999e-23
1.45861e-22
5.70147e-23
1.01642e-22
4.76776e-23
6.0027e-23
3.79032e-23
1.14905e-22
2.26467e-23
8.26314e-23
2.96638e-23
9.0562e-23
1.45163e-23
6.92271e-23
2.37187e-23
2.63829e-24
1.99969e-23
-7.52465e-24
2.75243e-24
-7.50221e-23
-7.81569e-23
-1.1404e-23
4.84308e-23
6.1684e-23
5.05136e-22
5.7703e-23
4.37717e-22
5.24162e-23
2.40753e-22
6.41289e-23
2.019e-22
7.55005e-23
1.82555e-22
4.91626e-23
1.32664e-22
5.10787e-23
8.39935e-23
3.26455e-23
9.00218e-23
2.58135e-23
5.65151e-23
2.73961e-23
8.79114e-23
1.03069e-23
4.00558e-23
2.10252e-23
2.44762e-23
1.22862e-23
-2.34177e-25
3.65464e-24
-1.01235e-22
-3.63395e-23
1.09673e-24
4.10176e-23
5.07388e-22
3.63888e-23
4.49879e-22
4.76436e-23
2.98491e-22
5.7766e-23
2.49348e-22
6.47765e-23
2.19302e-22
4.47722e-23
1.49755e-22
5.4591e-23
1.44266e-22
2.1993e-23
9.19463e-23
2.75283e-23
8.69821e-23
2.29584e-23
9.17144e-23
8.58283e-24
4.56239e-23
2.33316e-23
4.55701e-23
5.90557e-24
-7.05092e-23
5.85547e-24
-8.78189e-23
-5.98495e-23
3.11555e-24
2.30934e-23
4.54705e-22
2.42956e-23
3.95925e-22
4.00029e-23
2.96411e-22
5.38765e-23
2.81141e-22
6.24172e-23
2.12681e-22
4.37809e-23
1.59162e-22
5.0251e-23
1.75042e-22
2.23654e-23
1.33892e-22
2.86646e-23
7.75777e-23
1.77343e-23
5.42511e-23
1.52433e-23
3.40477e-24
5.7816e-24
-2.26541e-23
5.40238e-24
-6.09526e-23
1.00839e-23
-8.07873e-23
-4.54193e-23
9.07929e-24
9.54657e-24
4.44021e-22
1.62597e-23
3.82012e-22
3.66616e-23
3.25226e-22
4.80848e-23
2.79309e-22
5.8792e-23
2.04011e-22
3.90696e-23
1.75223e-22
4.48221e-23
1.61499e-22
1.40214e-23
8.67926e-23
2.50919e-23
7.55953e-23
1.38411e-23
5.74212e-23
1.44634e-23
6.06036e-24
5.67704e-24
-4.74589e-23
1.94215e-24
-9.55446e-23
2.17586e-23
-5.71277e-23
-6.07565e-23
7.40088e-24
-1.63764e-23
7.04354e-22
-6.81439e-25
4.3122e-22
1.10941e-23
4.06481e-22
3.18819e-23
3.50781e-22
4.05145e-23
3.17945e-22
5.57717e-23
2.37722e-22
3.5713e-23
1.61927e-22
3.60918e-23
1.67321e-22
1.24434e-23
3.28161e-23
2.3022e-23
7.18518e-23
1.29844e-23
3.01595e-23
-2.85569e-25
1.29392e-23
5.8311e-24
-1.18874e-23
7.08183e-24
-5.20078e-23
1.69158e-23
-2.40931e-23
-8.83064e-23
1.48161e-23
-2.54204e-23
5.90884e-22
-1.00256e-23
3.84681e-22
4.9873e-24
3.80358e-22
3.01555e-23
3.68877e-22
3.46713e-23
2.82389e-22
4.82597e-23
2.29814e-22
4.12108e-23
2.12256e-22
2.4306e-23
1.0243e-22
1.61264e-23
8.28206e-23
1.58082e-23
7.81144e-23
1.17775e-23
3.84549e-23
-4.6977e-24
1.26072e-23
-2.98601e-25
2.36884e-23
6.57329e-24
-1.65228e-23
1.37864e-23
-3.00149e-23
-6.00943e-23
2.55886e-23
-2.65426e-23
5.24931e-22
-1.18411e-23
3.77349e-22
4.43588e-24
3.99842e-22
2.27982e-23
3.88074e-22
3.07035e-23
2.82742e-22
4.72303e-23
2.20584e-22
2.62535e-23
2.19293e-22
2.31193e-23
1.10566e-22
1.54185e-23
9.5399e-23
1.77545e-23
7.67345e-23
9.3017e-24
4.95625e-23
-1.55836e-24
2.34112e-23
1.003e-24
4.37471e-23
3.41201e-24
8.87206e-24
1.05691e-23
-3.66821e-24
-6.04074e-23
2.7925e-23
-3.06232e-23
4.7546e-22
-1.44175e-23
3.56967e-22
4.07121e-24
3.79614e-22
1.56072e-23
3.71592e-22
2.44991e-23
2.74559e-22
4.8212e-23
2.45771e-22
2.05984e-23
1.19954e-22
2.39047e-23
1.1443e-22
1.17198e-23
9.04964e-23
1.81546e-23
7.79454e-23
7.2966e-24
5.81307e-23
-5.95525e-24
-7.71815e-24
1.98867e-24
6.83952e-23
-8.69394e-25
4.54637e-23
1.22544e-23
1.68515e-23
-5.90897e-23
2.43948e-23
-6.09235e-23
3.52767e-22
-3.16386e-23
4.45519e-22
-1.38929e-23
3.42352e-22
5.20291e-24
3.92523e-22
8.44241e-24
3.23935e-22
2.21983e-23
2.52489e-22
4.1625e-23
2.29561e-22
1.77717e-23
1.50263e-22
2.2124e-23
1.5018e-22
1.47994e-23
5.75749e-23
1.17868e-23
-5.97116e-24
7.51455e-24
1.04016e-22
-5.01901e-24
-2.04353e-24
3.78391e-25
6.17345e-23
-9.8299e-25
4.34434e-23
9.09852e-24
3.51753e-23
-4.6377e-23
2.06901e-23
-5.72073e-23
3.30777e-22
-3.06781e-23
4.16498e-22
-1.15063e-23
3.6119e-22
2.85165e-24
3.75706e-22
6.24495e-24
2.73784e-22
1.99127e-23
2.31839e-22
3.51235e-23
2.53331e-22
1.70644e-23
1.32925e-22
1.49129e-23
1.47661e-22
1.4743e-23
9.51754e-23
1.66878e-23
-2.4193e-23
5.4285e-24
7.57401e-23
-1.91756e-24
-4.73661e-23
2.78778e-25
4.68348e-23
-9.56425e-25
-8.36163e-24
4.17767e-24
-1.32048e-23
-6.40203e-23
1.71974e-23
-6.81432e-23
3.06033e-22
-5.3387e-23
3.46931e-22
-3.10203e-23
3.99429e-22
-1.11561e-23
3.45588e-22
-4.45881e-24
3.80102e-22
2.05264e-24
2.61711e-22
2.26322e-23
2.20327e-22
2.98408e-23
2.10955e-22
1.79343e-23
1.01412e-22
8.54563e-24
1.15844e-22
7.6764e-24
9.58074e-23
2.14895e-23
-3.06908e-23
1.43288e-24
-3.71626e-24
4.34567e-24
-1.59234e-23
6.73204e-25
8.12476e-23
-5.64597e-25
-1.92571e-23
8.57275e-25
-1.40502e-23
-7.32861e-23
1.60951e-23
-6.25149e-23
3.52622e-22
-5.20468e-23
3.2939e-22
-2.95465e-23
3.769e-22
-1.0114e-23
3.69138e-22
-9.31803e-24
3.12647e-22
-2.54381e-24
2.90198e-22
2.03966e-23
2.74804e-22
2.35283e-23
2.15836e-22
1.64672e-23
1.51374e-22
4.6603e-24
1.28795e-22
1.98985e-24
9.6362e-23
1.78166e-23
1.7883e-24
6.91671e-24
7.58628e-24
8.5635e-24
-4.81816e-23
-3.55503e-24
1.18818e-23
-2.5553e-24
-3.12503e-23
1.15061e-24
-1.88964e-23
-4.23929e-23
1.68714e-23
-6.04491e-23
2.62083e-22
-4.88043e-23
3.10362e-22
-3.05052e-23
3.9292e-22
-1.30118e-23
4.03308e-22
-1.12655e-23
2.76902e-22
4.79799e-26
2.76403e-22
1.42315e-23
2.55462e-22
2.2364e-23
2.47537e-22
1.37099e-23
1.60672e-22
5.59619e-24
9.96656e-23
2.60654e-26
6.79895e-23
1.76532e-23
3.68357e-23
3.91736e-24
1.94774e-23
1.07387e-23
4.1483e-23
-2.05394e-24
8.02531e-24
-2.10666e-24
-4.23487e-23
1.5637e-24
9.16454e-24
-4.66046e-24
1.21349e-23
-5.78193e-23
2.61674e-22
-4.36168e-23
3.23542e-22
-2.75309e-23
3.76569e-22
-1.8998e-23
4.01862e-22
-1.19085e-23
2.66801e-22
3.55851e-24
2.68119e-22
1.39776e-23
2.46456e-22
2.0007e-23
2.42945e-22
8.48748e-24
1.315e-22
3.7011e-25
6.97251e-23
-4.63431e-24
8.05787e-23
1.64085e-23
5.7594e-23
2.19725e-24
3.66866e-23
6.12126e-24
3.64276e-23
-2.86849e-24
-5.81585e-24
2.39707e-24
-1.59244e-23
2.65719e-24
4.73596e-23
-3.8253e-23
4.22844e-24
-5.08565e-23
2.58634e-22
-4.01484e-23
3.46835e-22
-2.42491e-23
3.64855e-22
-2.40809e-23
2.75931e-22
-1.27961e-23
2.28537e-22
7.18825e-25
2.76192e-22
1.34731e-23
2.3527e-22
1.59754e-23
2.06561e-22
5.51195e-24
1.43958e-22
-9.93988e-25
8.01355e-23
-1.44364e-24
7.83582e-23
1.52676e-23
8.66906e-23
5.40138e-24
4.69021e-23
3.03689e-24
3.26035e-23
-4.72284e-24
-1.6685e-23
2.80573e-24
-3.74003e-23
-2.41466e-25
-2.77206e-23
-3.56074e-23
4.39856e-24
-4.3086e-23
2.50544e-22
-3.83872e-23
3.01744e-22
-2.8954e-23
3.5916e-22
-2.32892e-23
3.2699e-22
-1.04942e-23
2.71022e-22
-1.67289e-24
2.76413e-22
8.95575e-24
2.24239e-22
1.17354e-23
2.08291e-22
4.91632e-24
1.11524e-22
-2.16054e-24
8.99009e-23
-2.95564e-25
1.05266e-22
1.07808e-23
7.93303e-23
5.42418e-24
1.65458e-23
7.04401e-26
3.45006e-23
-3.57796e-24
-2.50912e-23
2.85884e-24
-2.97115e-23
9.83203e-25
-3.74402e-23
-3.35549e-23
4.69674e-24
-3.95435e-23
2.10501e-22
-3.48613e-23
2.93369e-22
-3.092e-23
3.21077e-22
-2.59531e-23
3.60072e-22
-9.15335e-24
3.09467e-22
-2.07649e-24
3.07837e-22
8.01037e-24
2.97067e-22
6.81105e-24
2.05377e-22
3.09179e-24
1.45974e-22
-1.41348e-24
1.36745e-22
-1.36537e-24
1.00421e-22
1.08213e-23
6.76487e-23
4.09156e-24
-1.29001e-23
-5.03601e-25
3.56855e-23
-4.38268e-24
7.50626e-24
2.2646e-24
3.48126e-23
2.90796e-24
2.4945e-23
-3.13872e-23
4.75601e-24
-3.58927e-23
1.65999e-22
-3.20778e-23
2.85339e-22
-2.75579e-23
3.10638e-22
-2.87144e-23
3.19068e-22
-1.06109e-23
3.09262e-22
-3.59071e-24
2.98505e-22
4.27041e-24
2.89877e-22
4.64395e-24
2.07823e-22
2.16358e-24
1.87789e-22
-2.50258e-24
1.45149e-22
-1.8317e-24
1.32056e-22
5.69012e-24
5.81206e-23
6.37836e-24
-3.12584e-24
-8.55217e-25
3.46955e-23
-1.76337e-24
2.21971e-23
-1.4501e-24
3.70146e-23
1.99025e-24
7.64715e-23
-3.96026e-23
1.29795e-24
-2.92897e-23
1.571e-22
-2.93121e-23
2.7818e-22
-2.38217e-23
2.6016e-22
-2.91438e-23
2.49178e-22
-8.41842e-24
3.39382e-22
-3.98882e-24
2.87651e-22
-2.9084e-24
2.44719e-22
6.08641e-24
2.35177e-22
2.12817e-24
1.91271e-22
-4.95357e-24
1.55002e-22
-4.48014e-24
1.62228e-22
5.14028e-24
4.33831e-23
6.20985e-24
-1.13903e-23
-1.62235e-25
3.62448e-23
-1.43693e-24
2.13739e-23
-1.3505e-24
-3.18196e-24
-2.66941e-24
8.13641e-23
-4.18658e-23
-2.83721e-25
-2.3967e-23
1.00992e-22
-2.78117e-23
2.33613e-22
-2.49376e-23
2.06145e-22
-2.30409e-23
2.39227e-22
-1.16818e-23
3.25868e-22
-8.23252e-24
2.39057e-22
-2.12286e-24
2.28308e-22
2.4934e-24
2.22929e-22
-4.5824e-25
1.97735e-22
-3.09021e-24
1.09022e-22
-8.78142e-24
1.11846e-22
2.66192e-24
5.04647e-23
7.76472e-24
1.98956e-23
1.7384e-24
5.34667e-23
-1.7518e-24
6.55311e-23
3.82119e-24
-9.70161e-24
-9.54822e-24
1.15164e-24
-5.14308e-23
7.80859e-25
-1.87125e-23
1.63876e-22
-2.79856e-23
2.29336e-22
-2.47826e-23
1.95107e-22
-1.87526e-23
2.2909e-22
-1.17614e-23
2.64012e-22
-9.66809e-24
2.2352e-22
9.0631e-25
3.39359e-22
1.66392e-24
2.15253e-22
-4.85984e-24
2.03942e-22
-1.44699e-24
1.78096e-22
-1.30216e-23
1.11338e-22
1.67804e-24
7.01485e-23
7.15739e-24
1.03328e-22
2.01469e-24
4.9884e-23
-3.92791e-24
6.66957e-23
3.58315e-24
1.8048e-23
-1.01505e-23
-7.84264e-23
-6.11431e-23
-6.25597e-25
-1.88666e-23
2.36267e-22
-2.78172e-23
2.32065e-22
-2.23501e-23
1.72124e-22
-1.47276e-23
2.37203e-22
-1.24989e-23
2.1621e-22
-8.2162e-24
1.61137e-22
-2.42616e-24
2.90317e-22
1.91948e-24
2.20403e-22
-4.16777e-24
1.70403e-22
-6.07878e-24
1.34631e-22
-1.2818e-23
1.07582e-22
2.52376e-24
4.97749e-23
1.03738e-23
1.03403e-22
6.54502e-25
-2.12835e-23
-3.52019e-24
4.17227e-23
-3.08989e-24
-8.20473e-23
-5.83758e-24
-4.37514e-23
-7.08819e-23
-1.87153e-25
-2.1035e-23
1.98424e-22
-2.87145e-23
1.91133e-22
-1.80764e-23
2.38302e-22
-1.72998e-23
2.69363e-22
-1.12503e-23
1.95543e-22
-2.62217e-24
2.17687e-22
-2.04291e-24
3.19867e-22
-2.29992e-24
2.11817e-22
-6.86719e-24
9.01042e-23
-7.69935e-24
1.42456e-22
-1.23607e-23
1.05273e-22
2.82243e-24
3.29003e-23
9.62305e-24
9.64652e-23
1.64149e-24
-4.08441e-23
-4.2978e-24
2.88441e-23
-1.13949e-24
-1.18384e-22
-5.22686e-24
-3.99209e-23
-8.61938e-23
7.14789e-25
-2.31516e-23
2.02175e-22
-2.61586e-23
2.72029e-22
-1.61331e-23
2.34847e-22
-2.09317e-23
2.71445e-22
-5.16375e-24
2.58307e-22
-1.12448e-24
1.60057e-22
-3.63838e-24
2.61372e-22
-5.5518e-24
2.1271e-22
-3.63223e-24
1.74388e-22
-1.1313e-23
5.53486e-23
-1.26757e-23
1.04901e-22
5.25608e-24
9.49943e-24
6.48183e-24
1.30969e-22
1.82844e-25
-4.84078e-23
-8.07626e-24
4.38192e-23
5.4079e-25
-8.71946e-23
-7.0424e-24
-2.29824e-23
-2.68132e-23
2.03692e-24
-2.20719e-23
1.58185e-22
-2.62403e-23
2.34012e-22
-1.37816e-23
2.07467e-22
-2.16647e-23
2.78932e-22
-6.90047e-24
2.80395e-22
1.84334e-24
1.35367e-22
-2.03878e-24
2.28018e-22
-1.18083e-23
9.02565e-23
-5.18237e-24
1.71566e-22
-8.88452e-24
4.78488e-23
-1.44847e-23
1.16986e-22
5.93389e-24
6.93162e-23
3.89894e-24
9.8979e-23
1.22293e-24
-1.21474e-23
-1.15764e-23
9.76064e-23
3.19192e-24
-9.5441e-23
-4.62511e-24
-9.93136e-23
-6.59877e-23
-4.09006e-25
-2.20144e-23
1.8098e-22
-1.93125e-23
2.08463e-22
-2.47034e-23
1.97211e-22
-1.13119e-23
1.47292e-22
-2.25136e-23
1.60039e-22
-1.06292e-23
2.70367e-22
3.77133e-24
1.50617e-22
-3.77766e-24
1.96676e-22
-1.16565e-23
9.80594e-23
-8.01289e-24
1.62219e-22
-7.43329e-24
7.69446e-23
-1.33104e-23
1.3657e-22
5.83251e-24
4.89685e-23
4.55907e-25
1.09412e-22
4.89298e-25
-1.33197e-24
-1.32657e-23
1.16784e-22
-5.69364e-25
-7.00557e-23
-1.96259e-24
-4.80385e-23
-5.87317e-23
-1.75404e-24
-2.01137e-23
1.70121e-22
-1.95302e-23
2.2344e-22
-2.55351e-23
1.67978e-22
-1.11104e-23
1.52722e-22
-1.93938e-23
1.77012e-22
-1.37576e-23
2.2416e-22
1.88703e-24
1.27475e-22
-3.76832e-24
1.55745e-22
-1.12642e-23
9.53488e-23
-6.64915e-24
1.46307e-22
-8.61729e-24
6.8554e-23
-1.43871e-23
1.36408e-22
2.30316e-24
3.56376e-23
8.21976e-25
1.13145e-22
-7.94938e-25
1.164e-23
-1.60007e-23
9.64244e-23
-2.99154e-24
-8.36337e-23
6.73439e-25
1.46386e-24
-4.64091e-23
9.03528e-25
-2.66789e-23
2.59384e-22
-1.78377e-23
1.70936e-22
-2.14941e-23
1.55593e-22
-2.43437e-23
1.34572e-22
-1.0356e-23
1.35955e-22
-1.70474e-23
1.94158e-22
-1.3193e-23
2.17874e-22
1.07316e-24
1.11454e-22
-2.91429e-24
1.49242e-22
-1.16916e-23
9.82986e-23
-5.30165e-24
2.03573e-22
-7.20919e-24
5.28243e-23
-1.40255e-23
1.10909e-22
5.98699e-24
5.82559e-23
6.03753e-25
1.20872e-22
-1.26302e-24
6.90052e-23
-1.77045e-23
1.02444e-22
-2.75559e-24
-9.15984e-23
-1.25329e-24
2.01315e-23
-1.12741e-23
2.75583e-24
-2.94882e-23
2.5701e-22
-1.80641e-23
2.09075e-22
-2.19359e-23
1.75782e-22
-2.36638e-23
1.22294e-22
-9.4781e-24
1.22781e-22
-1.73182e-23
1.73257e-22
-1.34188e-23
2.09648e-22
1.13584e-24
9.74154e-23
-8.30186e-25
1.40036e-22
-1.18926e-23
9.59741e-23
-8.54593e-24
1.8441e-22
-7.30382e-24
4.17466e-23
-1.35504e-23
1.18217e-22
8.33543e-24
4.39894e-23
-7.85051e-26
1.35063e-22
-3.80773e-24
8.14712e-23
-2.18818e-23
1.04394e-22
-1.06796e-24
-1.90085e-23
-4.50938e-24
-5.36807e-23
-4.91668e-23
2.37143e-24
-3.09869e-23
1.38224e-22
-1.94151e-23
2.41441e-22
-2.19568e-23
1.12531e-22
-2.36452e-23
1.44218e-22
-8.37474e-24
1.21013e-22
-1.72587e-23
1.06314e-22
-1.56849e-23
2.07791e-22
1.19772e-24
8.70207e-23
8.13385e-25
1.51412e-22
-9.60923e-24
8.0633e-23
-9.50691e-24
1.68307e-22
-8.28042e-24
1.16946e-22
-1.37703e-23
1.60887e-22
8.22591e-24
1.08744e-22
-1.73897e-24
1.55768e-22
-3.87002e-24
6.54529e-25
-2.01163e-23
2.67182e-23
-5.59316e-24
-3.17965e-23
-5.00044e-24
-3.13559e-23
-3.80992e-23
1.09069e-24
-2.67613e-23
1.72644e-22
-2.36125e-23
2.459e-22
-2.12398e-23
1.73243e-22
-2.51166e-23
2.01997e-22
-8.07734e-24
1.16989e-22
-1.58323e-23
1.2239e-22
-1.66197e-23
2.09337e-22
3.31363e-24
1.01575e-22
-1.09169e-24
1.56862e-22
-7.17186e-24
8.28011e-23
-1.03399e-23
1.62202e-22
-7.25493e-24
1.00685e-22
-1.34414e-23
1.71831e-22
1.05731e-23
9.84625e-23
-4.22459e-24
9.12525e-23
-1.23546e-24
3.66139e-23
-1.98381e-23
-2.06646e-23
-8.11828e-24
-2.92406e-23
-4.17876e-26
1.23042e-23
-2.0319e-23
2.47971e-25
-2.41076e-23
1.6551e-22
-2.59264e-23
2.6587e-22
-1.81433e-23
1.80267e-22
-2.68613e-23
1.36163e-22
-8.33413e-24
1.44351e-22
-1.24388e-23
1.73924e-22
-1.99672e-23
2.23115e-22
5.33118e-24
2.02468e-22
-2.90522e-24
8.25084e-23
-5.34379e-24
1.18406e-22
-9.87771e-24
1.2578e-22
-6.40655e-24
1.63895e-22
-1.49215e-23
1.85501e-22
8.13832e-24
9.86986e-23
-5.00659e-24
2.5485e-23
-4.67895e-24
2.81215e-23
-1.73042e-23
-6.54896e-23
-7.89947e-24
-7.97223e-23
-3.59609e-24
1.11112e-23
-1.25078e-23
1.30959e-24
-2.12177e-23
1.61999e-22
-2.88614e-23
2.00938e-22
-2.01595e-23
2.25547e-22
-2.60215e-23
1.63149e-22
-6.78052e-24
1.63626e-22
-1.16421e-23
1.66968e-22
-1.93709e-23
1.89713e-22
2.52507e-24
1.77068e-22
-3.20888e-24
8.60726e-23
-5.43387e-24
1.2775e-22
-6.78135e-24
1.63772e-22
-5.89021e-24
1.57154e-22
-1.9175e-23
2.06864e-22
7.25786e-24
1.74015e-22
-1.59697e-24
7.46549e-23
-1.10394e-23
-4.5258e-23
-1.78544e-23
9.25053e-23
-3.80816e-24
-3.65358e-24
-5.72033e-25
6.22654e-24
-3.89833e-23
-8.80423e-25
-2.09506e-23
1.74956e-22
-2.63852e-23
2.19437e-22
-1.99363e-23
2.31672e-22
-2.56669e-23
9.28198e-23
-7.60249e-24
1.54555e-22
-8.75887e-24
1.72172e-22
-1.95799e-23
1.57311e-22
1.41914e-24
1.71226e-22
-1.44679e-24
4.68238e-23
-4.40318e-24
1.3467e-22
-5.35372e-24
1.64149e-22
-6.18407e-24
6.46463e-23
-1.755e-23
1.84907e-22
2.1055e-24
1.97364e-22
-3.44081e-24
4.61303e-23
-7.31158e-24
-8.98523e-24
-2.12947e-23
1.87973e-23
-5.58362e-24
2.55003e-23
-2.75468e-24
-3.51151e-23
3.73715e-23
4.30588e-24
-2.15877e-23
1.68436e-22
-2.54031e-23
1.89842e-22
-2.37826e-23
1.48871e-22
-2.49103e-23
9.94153e-23
-4.92682e-24
2.37859e-22
-8.12237e-24
1.79085e-22
-2.10423e-23
1.62998e-22
1.94221e-24
2.21118e-22
-6.41246e-25
5.35881e-23
-2.70525e-24
1.67788e-22
-6.24994e-24
1.20889e-22
-5.01801e-24
1.04511e-22
-1.53848e-23
1.85403e-22
-3.70245e-24
1.56999e-22
-4.28219e-24
8.5714e-23
-7.2108e-24
3.16792e-23
-1.91939e-23
2.33365e-23
-9.22794e-24
2.76584e-23
-1.32907e-25
3.94327e-23
3.50637e-23
9.774e-25
-2.17211e-23
1.15921e-22
-2.5527e-23
2.35801e-22
-2.31022e-23
1.93296e-22
-2.20919e-23
1.04412e-22
-7.297e-24
2.3419e-22
-6.7295e-24
1.69608e-22
-2.01857e-23
1.64742e-22
-1.00659e-24
2.78408e-22
1.13413e-24
1.04254e-22
-2.5652e-24
1.78574e-22
-5.14216e-24
1.20118e-22
-5.42758e-24
1.12292e-22
-1.55202e-23
1.98703e-22
-2.13216e-24
1.52503e-22
-6.32607e-24
9.66367e-23
-7.82693e-24
3.31043e-23
-1.79681e-23
2.85679e-23
-8.12759e-24
2.96529e-23
2.23376e-25
-7.97937e-24
7.0551e-23
-9.2501e-25
-1.92453e-23
1.02116e-22
-2.73856e-23
1.70514e-22
-2.45542e-23
1.88968e-22
-1.96787e-23
1.04069e-22
-7.50286e-24
2.25127e-22
-6.20203e-24
1.97202e-22
-1.83654e-23
1.68925e-22
-2.57861e-24
2.59655e-22
1.10453e-24
1.06861e-22
-3.39115e-24
1.90995e-22
-2.97067e-24
1.19285e-22
-3.87999e-24
1.3557e-22
-1.64441e-23
1.74424e-22
-3.76555e-24
1.8629e-22
-7.25253e-24
1.10082e-22
-8.09791e-24
3.56673e-23
-1.94587e-23
3.86735e-23
-6.34716e-24
5.80942e-23
3.84936e-25
1.68347e-23
-6.33237e-24
-4.08723e-24
-1.84107e-23
1.29735e-22
-2.69765e-23
1.42148e-22
-2.51637e-23
2.25174e-22
-1.79322e-23
1.06856e-22
-7.41194e-24
2.42906e-22
-6.28052e-24
1.52119e-22
-1.58448e-23
1.24818e-22
-4.60426e-24
2.76721e-22
8.66521e-25
7.32718e-23
-3.60991e-24
1.17116e-22
-2.35529e-24
1.31527e-22
-5.01603e-24
1.974e-22
-1.53942e-23
1.99518e-22
-6.84696e-24
1.93054e-22
-7.97061e-24
1.30891e-22
-9.0767e-24
1.78819e-23
-1.96384e-23
5.57657e-23
-7.93687e-24
6.53031e-23
-7.53062e-25
8.36275e-23
4.98444e-24
-2.38573e-24
-1.76866e-23
1.15549e-22
-2.45778e-23
1.58001e-22
-2.60642e-23
2.28867e-22
-1.65309e-23
1.37544e-22
-7.51102e-24
2.31247e-22
-5.18e-24
1.43295e-22
-1.57347e-23
1.13592e-22
-6.78177e-24
2.17986e-22
-9.36473e-26
7.47399e-23
-1.00967e-24
1.28356e-22
-2.46512e-26
1.47902e-22
-3.70218e-24
1.36832e-22
-1.44808e-23
9.41805e-23
-7.81602e-24
2.05379e-22
-1.03249e-23
1.95215e-22
-9.99273e-24
2.39065e-23
-1.90018e-23
6.45115e-23
-7.95828e-24
7.80072e-23
-2.98062e-24
6.31568e-23
1.041e-23
-2.39981e-24
-1.65775e-23
1.03375e-22
-2.28123e-23
1.76235e-22
-2.73442e-23
2.4271e-22
-1.44791e-23
1.31255e-22
-8.69367e-24
2.29198e-22
-4.34984e-24
1.28965e-22
-1.49553e-23
7.36552e-23
-8.07761e-24
1.61438e-22
1.24088e-25
7.77899e-23
-1.35388e-24
1.01396e-22
4.66347e-25
2.55991e-22
-6.08435e-24
1.19346e-22
-1.12874e-23
1.14646e-22
-8.25054e-24
2.5642e-22
-1.35471e-23
1.25236e-22
-9.26938e-24
3.70259e-23
-1.68643e-23
8.22739e-23
-8.93958e-24
1.49108e-22
-3.07107e-24
9.27053e-23
2.20382e-23
-6.2718e-24
-1.52088e-23
9.06924e-23
-2.05688e-23
1.54231e-22
-2.91065e-23
1.77364e-22
-1.17984e-23
1.9965e-22
-1.01297e-23
2.29807e-22
-3.97619e-24
1.90658e-22
-1.38497e-23
1.50136e-22
-7.17465e-24
2.29632e-22
-3.80155e-25
8.02902e-23
2.25373e-24
1.09712e-22
-1.07631e-24
2.39917e-22
-6.47781e-24
1.03192e-22
-8.21276e-24
4.0778e-23
-8.85703e-24
1.47601e-22
-1.407e-23
1.39838e-23
-8.97075e-24
4.45642e-23
-1.65187e-23
9.06576e-23
-8.69028e-24
1.43353e-22
-5.92304e-24
8.76315e-23
6.79579e-23
-7.5711e-24
-1.30865e-23
1.13632e-22
-2.08208e-23
9.40248e-23
-2.80907e-23
1.9506e-22
-1.33659e-23
1.96895e-22
-8.74614e-24
1.97314e-22
-5.15662e-24
1.79586e-22
-1.26078e-23
1.34226e-22
-8.60739e-24
1.71967e-22
1.98888e-25
1.18574e-22
4.77208e-24
1.13777e-22
-2.47425e-24
2.31493e-22
-8.00697e-24
9.05933e-23
-6.23804e-24
8.8521e-23
-1.16065e-23
9.13521e-23
-1.48943e-23
8.73147e-23
-7.50217e-24
8.93614e-23
-1.45369e-23
1.01421e-22
-1.03908e-23
6.90046e-23
-6.07413e-24
1.66243e-22
8.34227e-23
-1.00266e-23
-1.31764e-23
1.04059e-22
-1.8016e-23
5.70974e-23
-2.78648e-23
1.38266e-22
-1.2161e-23
1.91113e-22
-8.42923e-24
2.02344e-22
-5.0935e-24
1.33849e-22
-1.1297e-23
1.23354e-22
-8.58561e-24
1.85709e-22
1.31039e-24
7.15866e-23
4.74279e-24
1.32236e-22
-4.93194e-24
1.44293e-22
-7.00098e-24
-2.15592e-23
-6.84631e-24
1.11717e-22
-1.14132e-23
4.09866e-23
-1.54193e-23
5.18142e-23
-6.68545e-24
1.00968e-22
-1.51661e-23
1.07775e-22
-8.96778e-24
7.3345e-23
-7.23658e-24
1.63245e-22
-4.08679e-23
-1.45713e-23
-1.37681e-23
8.99159e-23
-1.59502e-23
6.09719e-23
-2.70873e-23
7.41487e-23
-9.53209e-24
2.16281e-22
-1.04331e-23
1.81522e-22
-5.86148e-24
9.80506e-23
-1.00776e-23
1.11762e-22
-9.3428e-24
1.77724e-22
2.95533e-24
7.12413e-23
5.42355e-24
1.29589e-22
-7.40345e-24
1.6112e-22
-4.5183e-24
2.74594e-23
-8.42976e-24
5.31219e-23
-1.1695e-23
1.15073e-22
-1.39972e-23
1.26581e-22
-6.83871e-24
1.1109e-22
-1.51338e-23
1.12517e-22
-7.14975e-24
1.05186e-22
-9.76857e-24
1.61993e-22
4.07417e-23
-1.32746e-23
-1.40146e-23
1.15852e-22
-1.54099e-23
1.027e-22
-2.43239e-23
9.35704e-23
-1.03222e-23
2.06001e-22
-1.17197e-23
1.83271e-22
-4.1286e-24
9.23444e-23
-8.90112e-24
1.136e-22
-1.02941e-23
1.31501e-22
4.20617e-24
7.1508e-23
4.48175e-24
1.04016e-22
-7.63489e-24
1.47817e-22
-4.28712e-24
4.78883e-23
-6.86793e-24
6.79409e-23
-1.18627e-23
1.40162e-22
-1.53801e-23
6.99787e-23
-5.58895e-24
1.89431e-22
-1.59646e-23
8.00159e-23
-6.91501e-24
5.6603e-23
-9.98903e-24
2.05239e-22
3.05518e-23
-1.42087e-23
-1.35757e-23
6.94867e-23
-1.6147e-23
9.83813e-23
-2.13187e-23
1.37286e-22
-1.10242e-23
1.5416e-22
-1.18974e-23
1.79137e-22
-2.81979e-24
1.01486e-22
-8.81735e-24
1.15342e-22
-1.07038e-23
1.13628e-22
5.38717e-24
1.06852e-22
3.8853e-24
3.58461e-23
-8.34706e-24
3.55676e-23
-3.37993e-24
4.03712e-23
-6.18832e-24
4.14932e-23
-1.10746e-23
6.90767e-23
-1.56737e-23
9.27745e-23
-7.05504e-24
2.3403e-22
-1.51468e-23
8.34228e-23
-5.82564e-24
4.75677e-23
-1.14636e-23
2.10467e-22
3.62626e-23
-1.62613e-23
-1.21151e-23
9.57738e-23
-1.48409e-23
9.15146e-23
-2.09874e-23
1.37318e-22
-1.07893e-23
1.48262e-22
-1.25393e-23
2.6125e-22
-3.09849e-24
8.41533e-23
-7.16307e-24
1.17011e-22
-1.11389e-23
7.05044e-23
4.16234e-24
8.86343e-23
5.12068e-24
2.1096e-23
-7.91706e-24
1.72679e-23
-3.74276e-24
5.03914e-23
-5.2673e-24
5.2381e-23
-9.07313e-24
8.14312e-23
-1.36096e-23
3.20627e-23
-1.00681e-23
1.52753e-22
-1.63179e-23
4.89849e-23
-3.34053e-24
1.56772e-22
-1.4538e-23
1.90421e-22
3.0911e-23
-1.64375e-23
-1.14642e-23
8.89511e-23
-1.37247e-23
1.01963e-22
-2.03688e-23
1.37872e-22
-8.13684e-24
1.50266e-22
-1.49591e-23
2.2139e-22
-2.28725e-24
5.53345e-23
-8.04596e-24
1.2133e-22
-1.0057e-23
1.54216e-22
3.53797e-24
1.23726e-22
5.66713e-24
4.07449e-23
-8.15674e-24
-2.11745e-24
-2.19466e-24
9.40853e-23
-5.9191e-24
-1.90078e-23
-7.80451e-24
8.58973e-23
-1.33035e-23
-3.03845e-23
-1.02309e-23
7.50157e-23
-1.44362e-23
4.49408e-23
-5.0583e-24
1.35281e-22
-1.51084e-23
2.0736e-22
7.94507e-23
-1.84186e-23
-1.06016e-23
8.45893e-23
-1.3026e-23
1.37067e-22
-1.93981e-23
1.31944e-22
-6.98026e-24
1.73853e-22
-1.63476e-23
2.16818e-22
-1.30205e-24
1.18882e-22
-7.68386e-24
1.17245e-22
-1.0743e-23
1.55037e-22
3.96845e-24
1.24359e-22
3.87369e-24
5.0714e-23
-5.90176e-24
-7.47946e-23
-3.42097e-24
6.48589e-23
-4.96678e-24
-9.05802e-23
-8.95021e-24
1.30008e-23
-1.33861e-23
-4.44631e-23
-9.04424e-24
4.60128e-23
-1.34926e-23
4.81184e-23
-5.00473e-24
1.11e-22
-1.53356e-23
9.57075e-23
4.64196e-23
-8.67124e-24
-1.41251e-23
-1.80715e-23
-6.54703e-24
-1.62138e-23
1.41425e-22
-1.88942e-24
1.10911e-22
-5.70299e-24
1.1537e-22
-1.05901e-23
1.61223e-22
3.47365e-24
1.25528e-22
2.9851e-24
-1.37342e-23
-4.05813e-24
-5.75339e-23
-4.25841e-24
5.42221e-23
-2.72788e-24
-4.13609e-23
-9.15291e-24
8.27328e-24
-1.34081e-23
-1.62196e-22
-6.49422e-24
-3.08348e-23
-1.36228e-23
3.42491e-23
-5.73664e-24
8.46392e-23
-1.52001e-23
3.00755e-23
4.3776e-23
-1.67924e-23
-1.27173e-24
-5.09967e-24
-1.03626e-23
1.60009e-24
5.11961e-23
4.02467e-24
9.43633e-24
-4.50485e-24
-7.96791e-23
-4.61704e-24
-1.86325e-23
-3.72131e-24
-2.34658e-23
-9.63043e-24
6.79996e-24
-1.22043e-23
-1.40241e-22
-4.74063e-24
-2.94133e-23
-1.19913e-23
6.86425e-23
-6.94347e-24
1.11371e-22
-1.39932e-23
8.23503e-25
-4.11044e-23
4.52993e-25
5.41379e-24
-4.69192e-24
-2.97509e-24
-3.52269e-24
-1.14014e-23
-1.05062e-23
-3.86395e-24
-1.27655e-23
-7.35478e-24
-1.35244e-23
2.11687e-23
3.16759e-23
-2.64862e-23
5.70989e-23
2.48257e-23
6.39911e-23
-1.90434e-23
6.74387e-23
2.60274e-23
5.33376e-23
-2.61883e-23
7.8748e-23
2.85405e-23
4.65836e-23
-3.09671e-23
3.40265e-24
5.8254e-23
4.41778e-23
3.06779e-23
1.36601e-23
-3.19831e-23
3.92026e-24
-1.48962e-23
2.70762e-23
2.51087e-23
9.78919e-24
-2.99005e-23
6.62678e-24
-1.01685e-23
1.69765e-23
4.35666e-23
6.49577e-23
1.89428e-23
5.71605e-27
-2.62772e-23
1.22672e-23
-1.49604e-23
1.96508e-23
-1.66479e-24
2.83714e-23
1.68066e-23
-4.56456e-23
-2.38749e-23
1.37214e-23
-1.91966e-23
2.39641e-23
1.64016e-23
3.82234e-23
1.60518e-23
-8.83643e-23
-2.21099e-23
1.61569e-23
1.02954e-23
2.05098e-23
1.02766e-23
1.85196e-23
-3.91139e-25
3.51468e-23
1.74499e-23
-9.73987e-23
-1.5255e-23
1.65506e-23
5.99039e-24
2.38609e-23
9.16046e-24
2.24066e-23
1.07382e-22
2.83326e-23
1.87971e-23
-1.02359e-22
-8.79671e-24
1.79282e-23
5.39794e-24
2.88197e-23
8.31456e-24
1.79915e-23
4.53568e-23
3.98342e-23
1.738e-23
-6.80792e-23
-6.46422e-24
2.46085e-23
1.23461e-22
3.0079e-23
1.25169e-23
1.6316e-23
7.89238e-23
-4.25645e-24
2.69433e-23
-4.0682e-23
-6.63788e-24
2.22494e-23
1.69126e-22
3.40523e-23
4.92847e-23
1.16697e-23
-2.08788e-23
3.22737e-23
3.55291e-23
-3.39536e-23
-7.29585e-24
1.83984e-23
5.52813e-23
2.7045e-23
4.5787e-23
1.48492e-23
4.26673e-23
2.4888e-23
3.41113e-23
4.66849e-23
-1.24955e-23
2.10517e-23
3.32902e-23
2.43374e-23
5.20168e-23
1.64368e-23
5.92628e-23
1.56644e-23
-1.75971e-24
3.32545e-24
3.55542e-23
-2.2397e-24
-1.58666e-23
2.18369e-23
1.07718e-23
2.49011e-23
2.11838e-23
1.30383e-23
3.31596e-23
1.70213e-23
3.4458e-23
5.41482e-23
3.70975e-23
5.39734e-23
-1.33497e-23
2.14696e-23
-1.53939e-23
2.64737e-23
5.17504e-23
1.15199e-23
3.84685e-23
1.78084e-23
3.28455e-23
3.02254e-24
2.89923e-23
1.21334e-22
3.22768e-23
5.97657e-23
-1.79972e-23
2.5391e-23
2.7707e-23
2.29897e-23
1.63294e-23
1.30029e-23
-8.26736e-24
1.68478e-23
6.26617e-23
6.12385e-24
-7.96783e-25
5.63971e-24
8.39271e-23
8.54216e-24
3.51017e-23
9.10115e-23
-1.64165e-23
2.24301e-23
2.93976e-24
2.27241e-23
2.41674e-23
1.43359e-23
-3.72268e-23
1.61247e-23
-2.64032e-23
9.79403e-24
-5.80645e-24
1.0681e-24
6.2459e-23
1.09716e-23
-8.18962e-24
1.92528e-23
3.245e-23
1.1786e-22
-1.67731e-23
2.21541e-23
-2.73063e-23
2.23432e-23
5.98834e-23
1.10359e-23
-2.50147e-23
1.63464e-23
1.28113e-23
1.10373e-23
-3.41636e-23
7.3696e-25
3.93455e-23
1.01216e-23
1.07346e-22
3.34185e-23
1.21226e-22
1.18554e-22
2.96662e-23
1.06542e-22
-1.65498e-23
1.9386e-23
-3.1053e-23
2.29731e-23
1.04164e-22
7.28871e-24
-1.33462e-23
1.84153e-23
9.85193e-23
1.14861e-23
8.78015e-24
6.27579e-24
9.14506e-23
9.35586e-24
9.88035e-23
3.41332e-23
1.7049e-22
1.13539e-22
2.76654e-23
1.41275e-22
-1.33618e-23
2.30076e-23
-6.41589e-23
2.07806e-23
2.24229e-23
1.06791e-23
-1.26129e-22
1.82309e-23
5.97214e-25
1.21737e-23
-1.78858e-23
8.78773e-24
1.04231e-22
1.05053e-23
9.20363e-23
3.06326e-23
1.42967e-22
9.7018e-23
2.46292e-23
1.32528e-22
-1.63015e-23
2.05583e-23
-2.57872e-23
1.92206e-23
6.33217e-23
1.02011e-23
-1.16108e-22
1.71693e-23
-2.12542e-24
1.61096e-23
-5.54121e-23
9.80277e-24
7.812e-23
1.1496e-23
1.29044e-22
2.71288e-23
1.22399e-22
6.04358e-23
2.40179e-23
8.53873e-23
-1.6842e-23
2.01667e-23
-6.56934e-23
1.5426e-23
3.02673e-23
1.34659e-23
-1.17989e-22
1.64917e-23
-8.17732e-24
2.06928e-23
-6.36042e-23
9.97372e-24
5.2857e-23
1.08127e-23
5.03612e-24
2.48404e-23
7.01054e-23
5.15962e-23
2.08467e-23
3.55035e-23
-1.68698e-23
1.56407e-23
-6.5765e-23
1.71543e-23
6.2058e-23
1.20587e-23
-1.1749e-22
1.73118e-23
-4.93581e-23
2.35918e-23
4.76521e-24
1.36945e-23
5.85918e-23
1.08722e-23
1.79977e-23
2.48931e-23
5.34632e-23
3.80457e-23
1.80157e-23
2.51474e-23
-1.4153e-23
1.67856e-23
-6.73426e-23
1.18999e-23
5.69901e-23
1.09235e-23
-1.16175e-22
1.94237e-23
1.33353e-23
2.23591e-23
-2.76909e-24
1.07778e-23
-2.84314e-23
1.25578e-23
2.51666e-23
2.20981e-23
4.01348e-23
3.24484e-23
1.21524e-23
-1.81339e-23
-1.38821e-23
2.1352e-23
-4.96445e-23
7.38615e-24
-3.52997e-23
1.40475e-23
-1.24046e-22
2.22203e-23
2.86182e-24
1.91035e-23
-4.20111e-23
1.23459e-23
-6.6978e-23
1.21708e-23
3.01859e-23
2.3554e-23
3.04674e-23
3.23463e-23
1.33675e-23
-2.74858e-23
-1.09187e-23
1.90957e-23
7.01147e-24
7.52288e-24
-3.66535e-23
1.30744e-23
-4.66657e-23
2.40916e-23
9.03678e-23
1.91933e-23
-3.66314e-23
1.40493e-23
-6.85983e-23
1.28064e-23
-3.36504e-24
2.15427e-23
2.61845e-23
3.6215e-23
1.31275e-23
1.17228e-23
-7.19304e-24
1.10679e-23
-1.5551e-23
1.2507e-23
-4.6775e-23
1.38307e-23
-4.92509e-23
2.05319e-23
1.76939e-22
1.59572e-23
-3.89833e-23
1.56193e-23
-6.92193e-23
1.22293e-23
-1.63623e-23
2.27808e-23
1.84667e-23
4.42457e-23
1.50151e-23
4.84296e-23
-7.56659e-24
1.08176e-23
-2.9457e-23
1.24112e-23
3.056e-23
1.64696e-23
-4.84785e-23
1.90491e-23
1.27026e-22
1.57296e-23
-4.50427e-23
1.64147e-23
-2.82678e-23
1.29049e-23
-2.10053e-23
2.42921e-23
3.99152e-23
1.27566e-23