/*--------------------------------*- C++ -*----------------------------------*\
  =========                 |
  \\      /  F ield         | OpenFOAM: The Open Source CFD Toolbox
   \\    /   O peration     | Website:  https://openfoam.org
    \\  /    A nd           | Version:  7
     \\/     M anipulation  |
\*---------------------------------------------------------------------------*/
FoamFile
{
    version     2.0;
    format      ascii;
    class       volVectorField;
    location    "216000";
    object      U;
}
// * * * * * * * * * * * * * * * * * * * * * * * * * * * * * * * * * * * * * //

dimensions      [0 1 -1 0 0 0 0];

internalField   nonuniform List<vector> 
4844
(
(-7.37372e-19 3.02891e-18 -0.0151466)
(2.59836e-17 -3.81012e-18 -0.0151378)
(4.77758e-18 7.84768e-20 -0.0151283)
(7.61551e-18 3.71412e-17 -0.0151109)
(2.00272e-17 1.41858e-18 -0.0151021)
(4.07687e-18 1.99912e-18 -0.0150925)
(4.32954e-18 9.37021e-19 -0.015082)
(3.04712e-18 7.06883e-19 -0.0150708)
(2.9162e-18 1.87892e-19 -0.0150588)
(2.83926e-18 1.49516e-19 -0.015046)
(1.75741e-18 3.39007e-19 -0.0150324)
(6.15034e-18 3.02798e-17 -0.0150749)
(1.38483e-17 1.8264e-18 -0.015066)
(3.59482e-18 3.00697e-18 -0.0150563)
(4.08939e-18 1.41244e-18 -0.0150458)
(2.90738e-18 9.86908e-19 -0.0150344)
(2.919e-18 3.90864e-19 -0.0150223)
(2.86487e-18 2.69784e-19 -0.0150094)
(1.81827e-18 3.59212e-19 -0.0149958)
(1.66455e-18 9.01554e-19 -0.0149814)
(1.97586e-18 1.02792e-18 -0.0149664)
(1.37181e-18 -2.88633e-19 -0.0149506)
(3.93843e-18 2.14936e-17 -0.0150385)
(9.89651e-18 2.02404e-18 -0.0150295)
(3.24731e-18 3.18767e-18 -0.0150198)
(3.74427e-18 1.4772e-18 -0.0150092)
(2.72991e-18 1.00608e-18 -0.0149978)
(2.91557e-18 5.39591e-19 -0.0149856)
(2.83546e-18 3.3168e-19 -0.0149726)
(1.82591e-18 2.62407e-19 -0.0149588)
(1.83677e-18 8.40319e-19 -0.0149444)
(1.7401e-18 9.80489e-19 -0.0149292)
(1.2181e-18 1.03061e-22 -0.0149133)
(9.45397e-19 1.10851e-19 -0.0148968)
(6.47224e-19 -2.93177e-19 -0.0148797)
(8.78743e-19 -4.07084e-19 -0.0148619)
(3.78646e-19 -3.12692e-19 -0.0148436)
(-2.79617e-19 7.36438e-20 -0.0148247)
(2.56535e-18 1.63001e-17 -0.0150017)
(7.43028e-18 2.77775e-18 -0.0149927)
(2.9645e-18 3.49044e-18 -0.0149829)
(3.42879e-18 1.76783e-18 -0.0149722)
(2.56743e-18 9.52245e-19 -0.0149607)
(2.94006e-18 6.72637e-19 -0.0149485)
(2.75482e-18 3.87592e-19 -0.0149354)
(1.79045e-18 5.89918e-20 -0.0149216)
(1.8818e-18 6.50578e-19 -0.014907)
(1.35811e-18 4.64356e-19 -0.0148917)
(1.2322e-18 2.46338e-19 -0.0148758)
(9.35514e-19 2.92386e-19 -0.0148591)
(6.37787e-19 -2.22156e-19 -0.0148419)
(9.84393e-19 -1.54317e-19 -0.014824)
(-1.08179e-20 -7.22973e-19 -0.0148056)
(-4.85375e-19 -2.30552e-19 -0.0147866)
(1.85707e-18 1.32927e-17 -0.0149646)
(5.85243e-18 3.74995e-18 -0.0149556)
(2.78974e-18 4.02922e-18 -0.0149457)
(3.08717e-18 2.18564e-18 -0.0149349)
(2.51523e-18 1.36983e-18 -0.0149234)
(3.05431e-18 9.9927e-19 -0.014911)
(2.64058e-18 5.52883e-19 -0.0148979)
(1.77244e-18 5.87483e-20 -0.0148839)
(1.89571e-18 6.35138e-19 -0.0148693)
(1.15203e-18 1.59041e-19 -0.0148539)
(1.30199e-18 3.2997e-19 -0.0148379)
(8.22856e-19 2.92913e-19 -0.0148211)
(7.53454e-19 -2.8102e-20 -0.0148038)
(7.94273e-19 -1.42341e-19 -0.0147858)
(-3.62927e-19 -9.05434e-19 -0.0147673)
(-3.9588e-19 -4.08498e-19 -0.0147482)
(4.72578e-18 4.37253e-18 -0.0149181)
(2.43886e-18 4.32684e-18 -0.0149081)
(2.73258e-18 2.40078e-18 -0.0148973)
(2.58855e-18 1.92054e-18 -0.0148857)
(3.0628e-18 1.35909e-18 -0.0148732)
(2.51441e-18 8.23278e-19 -0.01486)
(1.98361e-18 5.36836e-19 -0.014846)
(1.90935e-18 6.9827e-19 -0.0148313)
(1.11217e-18 2.55092e-19 -0.0148158)
(1.34287e-18 3.84898e-19 -0.0147997)
(6.67422e-19 1.16197e-19 -0.0147828)
(8.50345e-19 2.49597e-19 -0.0147654)
(2.96368e-19 -4.89732e-19 -0.0147473)
(-5.5316e-19 -1.02872e-18 -0.0147287)
(-2.08444e-19 -4.43868e-19 -0.0147095)
(3.68522e-18 4.4669e-18 -0.0148803)
(2.00477e-18 4.18182e-18 -0.0148703)
(2.49039e-18 2.63183e-18 -0.0148594)
(2.58458e-18 2.16959e-18 -0.0148477)
(2.97281e-18 1.47872e-18 -0.0148352)
(2.4858e-18 1.01171e-18 -0.0148218)
(2.16849e-18 1.10982e-18 -0.0148078)
(1.7895e-18 7.70422e-19 -0.0147929)
(1.11209e-18 3.63569e-19 -0.0147774)
(1.26467e-18 3.95834e-19 -0.0147611)
(5.54294e-19 -3.55454e-20 -0.0147442)
(5.86197e-19 2.61935e-20 -0.0147267)
(-1.64768e-19 -6.11388e-19 -0.0147085)
(-4.79851e-19 -9.9117e-19 -0.0146898)
(4.54567e-20 -4.5264e-19 -0.0146705)
(2.7134e-18 4.35723e-18 -0.0148422)
(1.63751e-18 3.95078e-18 -0.0148321)
(2.33298e-18 2.83317e-18 -0.0148211)
(2.52503e-18 2.36878e-18 -0.0148093)
(2.82614e-18 1.47281e-18 -0.0147968)
(2.44213e-18 9.93365e-19 -0.0147834)
(2.19479e-18 1.28367e-18 -0.0147692)
(1.52102e-18 6.15476e-19 -0.0147543)
(1.05785e-18 4.38592e-19 -0.0147387)
(1.08852e-18 2.32938e-19 -0.0147223)
(4.43104e-19 7.55043e-20 -0.0147053)
(1.44633e-19 -4.9037e-19 -0.0146877)
(-3.6088e-19 -7.39654e-19 -0.0146694)
(-1.7761e-19 -7.07218e-19 -0.0146506)
(1.38133e-19 -5.88264e-19 -0.0146312)
(5.68179e-19 7.88658e-18 -0.014813)
(1.97023e-18 4.24763e-18 -0.0148037)
(1.42438e-18 3.89773e-18 -0.0147935)
(2.25942e-18 2.99881e-18 -0.0147825)
(2.4371e-18 2.56159e-18 -0.0147707)
(2.66323e-18 1.56924e-18 -0.014758)
(2.45136e-18 1.05653e-18 -0.0147446)
(2.00277e-18 1.17127e-18 -0.0147303)
(1.13343e-18 1.98026e-19 -0.0147153)
(1.03172e-18 4.52718e-19 -0.0146996)
(9.37599e-19 1.03619e-19 -0.0146832)
(3.28553e-19 2.19585e-19 -0.0146661)
(3.07671e-21 -3.55332e-19 -0.0146484)
(-2.86866e-19 -6.89338e-19 -0.0146301)
(4.85184e-20 -5.55522e-19 -0.0146111)
(1.22241e-19 -8.89304e-19 -0.0145917)
(3.62457e-19 6.70757e-18 -0.0147743)
(1.43419e-18 4.13639e-18 -0.0147649)
(1.28904e-18 3.89531e-18 -0.0147547)
(2.21943e-18 3.24682e-18 -0.0147437)
(2.27945e-18 2.57141e-18 -0.0147317)
(2.53211e-18 1.67268e-18 -0.014719)
(2.43554e-18 1.27704e-18 -0.0147055)
(1.62734e-18 9.17549e-19 -0.0146912)
(9.82835e-19 1.4314e-19 -0.0146761)
(1.02373e-18 3.42963e-19 -0.0146603)
(8.5962e-19 8.79213e-20 -0.0146438)
(2.1827e-19 1.868e-19 -0.0146266)
(1.11378e-19 3.22115e-20 -0.0146088)
(-5.34232e-20 -2.81968e-19 -0.0145904)
(1.32694e-19 -4.29186e-19 -0.0145714)
(2.30165e-19 -9.93393e-19 -0.0145518)
(1.86478e-19 5.80276e-18 -0.0147352)
(1.06644e-18 3.92419e-18 -0.0147258)
(1.21864e-18 3.7524e-18 -0.0147156)
(2.15351e-18 3.41481e-18 -0.0147045)
(2.04327e-18 2.49479e-18 -0.0146925)
(2.41789e-18 1.66899e-18 -0.0146797)
(2.3292e-18 1.42276e-18 -0.0146661)
(1.3515e-18 8.47728e-19 -0.0146517)
(1.14919e-18 6.74128e-19 -0.0146366)
(1.04945e-18 4.05536e-19 -0.0146207)
(8.49259e-19 2.13669e-19 -0.0146041)
(1.84864e-19 1.90941e-19 -0.0145868)
(2.44148e-19 2.80817e-19 -0.0145689)
(9.99258e-20 3.02342e-20 -0.0145504)
(2.24698e-19 -2.21956e-19 -0.0145314)
(3.30072e-19 -9.61022e-19 -0.0145117)
(2.34824e-20 5.19726e-18 -0.0146959)
(7.61828e-19 3.67858e-18 -0.0146864)
(1.25927e-18 3.8222e-18 -0.0146761)
(2.01431e-18 3.33603e-18 -0.0146649)
(1.80017e-18 2.4234e-18 -0.0146529)
(2.29295e-18 1.5644e-18 -0.0146401)
(2.06499e-18 1.14975e-18 -0.0146264)
(1.26731e-18 8.85721e-19 -0.0146119)
(1.15187e-18 7.51116e-19 -0.0145967)
(9.7364e-19 4.66052e-19 -0.0145808)
(8.55684e-19 4.00164e-19 -0.0145641)
(2.22069e-19 3.04576e-19 -0.0145468)
(3.58793e-19 4.64937e-19 -0.0145288)
(1.75122e-19 2.25075e-19 -0.0145102)
(3.92157e-19 1.53998e-19 -0.014491)
(3.27337e-19 -8.89637e-19 -0.0144713)
(-1.39398e-18 4.05683e-18 -0.0146648)
(-1.47891e-19 4.69147e-18 -0.0146562)
(6.37219e-19 3.49678e-18 -0.0146467)
(1.31931e-18 3.88499e-18 -0.0146364)
(1.74706e-18 3.09709e-18 -0.0146251)
(1.55791e-18 2.33903e-18 -0.0146131)
(2.15899e-18 1.67188e-18 -0.0146001)
(1.81747e-18 8.30284e-19 -0.0145864)
(1.22847e-18 1.00755e-18 -0.0145719)
(9.4007e-19 4.5659e-19 -0.0145566)
(8.13789e-19 1.04313e-19 -0.0145406)
(8.75783e-19 5.12892e-19 -0.0145238)
(1.07771e-19 1.38781e-19 -0.0145064)
(4.3859e-19 5.78974e-19 -0.0144884)
(2.50511e-19 3.17177e-19 -0.0144697)
(4.77151e-19 4.26234e-19 -0.0144505)
(2.70183e-19 -7.28264e-19 -0.0144307)
(-1.36522e-18 3.7364e-18 -0.0146249)
(-2.21985e-19 4.36716e-18 -0.0146163)
(5.88552e-19 3.45046e-18 -0.0146067)
(1.25416e-18 3.70973e-18 -0.0145963)
(1.44391e-18 2.74179e-18 -0.014585)
(1.36365e-18 2.07521e-18 -0.0145729)
(2.05474e-18 1.80685e-18 -0.0145599)
(1.65166e-18 7.46625e-19 -0.0145461)
(1.18849e-18 1.10707e-18 -0.0145315)
(8.14699e-19 5.82117e-19 -0.0145162)
(6.18094e-19 -3.78794e-19 -0.0145001)
(7.8536e-19 3.99566e-19 -0.0144833)
(-6.4089e-20 -1.30237e-19 -0.0144658)
(5.97327e-19 6.59067e-19 -0.0144477)
(1.98823e-19 2.4601e-19 -0.0144289)
(3.21694e-19 3.54082e-19 -0.0144096)
(1.14032e-19 -7.01407e-19 -0.0143897)
(-1.55558e-18 3.76368e-18 -0.0145924)
(-1.33779e-18 3.68011e-18 -0.0145847)
(-2.45881e-19 4.14893e-18 -0.014576)
(5.57563e-19 3.4134e-18 -0.0145664)
(1.14414e-18 3.59289e-18 -0.014556)
(1.16217e-18 2.56067e-18 -0.0145446)
(1.28221e-18 1.97209e-18 -0.0145324)
(1.89479e-18 1.70662e-18 -0.0145194)
(1.53273e-18 7.34415e-19 -0.0145055)
(1.13023e-18 1.0394e-18 -0.0144909)
(6.65752e-19 8.04806e-19 -0.0144755)
(4.90627e-19 -5.57264e-19 -0.0144593)
(5.65477e-19 -4.45654e-20 -0.0144424)
(-9.09926e-20 -3.16439e-19 -0.0144249)
(6.51614e-19 6.06977e-19 -0.0144067)
(3.08552e-20 1.27245e-19 -0.0143878)
(3.87463e-20 9.511e-20 -0.0143685)
(-7.16513e-21 -7.68491e-19 -0.0143485)
(-1.42237e-18 3.42974e-18 -0.0145519)
(-1.27311e-18 3.6101e-18 -0.0145442)
(-2.73459e-19 3.99576e-18 -0.0145355)
(5.79715e-19 3.52359e-18 -0.0145259)
(9.42115e-19 3.18581e-18 -0.0145153)
(9.714e-19 2.5139e-18 -0.014504)
(1.29488e-18 2.17003e-18 -0.0144917)
(1.74663e-18 1.67651e-18 -0.0144786)
(1.50839e-18 9.23059e-19 -0.0144647)
(1.05668e-18 9.23733e-19 -0.01445)
(4.74535e-19 8.7305e-19 -0.0144345)
(4.48288e-19 -3.67379e-19 -0.0144182)
(4.42307e-19 -2.54693e-19 -0.0144013)
(4.30728e-20 -3.27881e-19 -0.0143837)
(5.42887e-19 2.8017e-19 -0.0143654)
(-1.83558e-19 -1.88293e-21 -0.0143465)
(-1.36826e-19 -3.76766e-20 -0.014327)
(7.5683e-20 -6.25605e-19 -0.014307)
(-1.29361e-18 3.14353e-18 -0.0145111)
(-1.23648e-18 3.38071e-18 -0.0145034)
(-2.08406e-19 3.9399e-18 -0.0144946)
(5.31183e-19 3.72767e-18 -0.014485)
(6.92374e-19 2.80842e-18 -0.0144744)
(9.41107e-19 2.51031e-18 -0.014463)
(1.28598e-18 2.2398e-18 -0.0144507)
(1.66466e-18 1.78999e-18 -0.0144375)
(1.51112e-18 1.22392e-18 -0.0144235)
(9.23372e-19 8.10132e-19 -0.0144087)
(2.75153e-19 8.06883e-19 -0.0143932)
(4.70406e-19 -1.35459e-19 -0.0143769)
(5.80903e-19 -1.25473e-20 -0.0143599)
(2.56825e-19 -5.86165e-20 -0.0143422)
(3.06902e-19 -7.85683e-20 -0.0143239)
(-3.98371e-19 -2.44202e-19 -0.0143049)
(4.15153e-20 1.7694e-19 -0.0142854)
(1.61538e-19 -3.71067e-19 -0.0142653)
(-1.16354e-18 2.81551e-18 -0.0144701)
(-1.10104e-18 3.32568e-18 -0.0144622)
(-1.17615e-19 3.80281e-18 -0.0144535)
(4.0985e-19 3.74458e-18 -0.0144438)
(5.11956e-19 2.64283e-18 -0.0144332)
(9.29084e-19 2.54917e-18 -0.0144217)
(1.17952e-18 2.03724e-18 -0.0144093)
(1.58315e-18 1.75368e-18 -0.0143961)
(1.33544e-18 1.21355e-18 -0.0143821)
(7.4805e-19 7.47334e-19 -0.0143673)
(1.01934e-19 6.72499e-19 -0.0143516)
(6.15523e-19 1.51284e-19 -0.0143353)
(7.14047e-19 1.63557e-19 -0.0143182)
(3.70202e-19 2.6881e-19 -0.0143005)
(1.35075e-19 -1.69528e-19 -0.014282)
(-2.99276e-19 -2.43873e-19 -0.014263)
(2.00504e-19 2.63285e-19 -0.0142434)
(9.05783e-20 -2.21493e-19 -0.0142233)
(-9.85504e-19 2.6384e-18 -0.0144287)
(-9.36956e-19 3.41208e-18 -0.0144209)
(-8.0031e-20 3.63618e-18 -0.0144121)
(1.59698e-19 3.33857e-18 -0.0144023)
(3.35888e-19 2.44349e-18 -0.0143917)
(9.15048e-19 2.59547e-18 -0.0143801)
(1.06515e-18 1.8929e-18 -0.0143677)
(1.46245e-18 1.64841e-18 -0.0143545)
(1.04369e-18 8.67587e-19 -0.0143404)
(5.87575e-19 6.48462e-19 -0.0143255)
(9.52238e-20 7.14675e-19 -0.0143098)
(7.90665e-19 4.27129e-19 -0.0142934)
(6.65138e-19 6.06022e-20 -0.0142762)
(3.83474e-19 4.06014e-19 -0.0142584)
(6.9655e-20 -1.24641e-19 -0.01424)
(-1.59339e-19 -1.20414e-19 -0.0142209)
(5.22708e-20 2.57208e-20 -0.0142012)
(-2.51739e-20 -2.79947e-19 -0.014181)
(-7.72925e-19 2.53887e-18 -0.0143871)
(-8.01759e-19 3.37173e-18 -0.0143792)
(-1.44176e-19 3.5297e-18 -0.0143703)
(-6.05212e-20 3.08876e-18 -0.0143606)
(3.13597e-19 2.33347e-18 -0.0143499)
(9.27996e-19 2.64941e-18 -0.0143383)
(1.02389e-18 2.005e-18 -0.0143258)
(1.32105e-18 1.63208e-18 -0.0143125)
(8.51336e-19 8.14614e-19 -0.0142984)
(5.73365e-19 6.38666e-19 -0.0142834)
(2.18435e-19 8.87886e-19 -0.0142677)
(8.13283e-19 5.57452e-19 -0.0142512)
(5.72585e-19 -5.78346e-20 -0.014234)
(2.80254e-19 3.09562e-19 -0.0142161)
(-8.6939e-22 -9.2747e-20 -0.0141976)
(-1.82192e-19 -1.72117e-19 -0.0141784)
(-7.88488e-20 -1.54526e-19 -0.0141587)
(-5.7296e-20 -3.39193e-19 -0.0141384)
(-5.78748e-19 2.35146e-18 -0.0143451)
(-7.28312e-19 3.13828e-18 -0.0143372)
(-1.90279e-19 3.36278e-18 -0.0143283)
(-1.20192e-19 3.34062e-18 -0.0143185)
(3.66373e-19 2.54533e-18 -0.0143078)
(9.57594e-19 2.66309e-18 -0.0142962)
(1.03574e-18 2.28898e-18 -0.0142837)
(1.17078e-18 1.59539e-18 -0.0142703)
(8.15443e-19 1.01717e-18 -0.0142561)
(6.76476e-19 8.9123e-19 -0.0142411)
(3.17894e-19 1.06042e-18 -0.0142253)
(7.72031e-19 6.17634e-19 -0.0142088)
(4.11813e-19 -2.25868e-19 -0.0141915)
(2.15058e-19 2.42486e-19 -0.0141736)
(-3.4276e-20 -4.17629e-20 -0.014155)
(-4.71401e-21 9.68475e-20 -0.0141357)
(2.07956e-20 -3.99273e-20 -0.014116)
(7.42434e-20 -1.9147e-19 -0.0140956)
(-4.9197e-19 1.92424e-18 -0.0143029)
(-6.46051e-19 2.90621e-18 -0.0142949)
(-1.72471e-19 3.13525e-18 -0.014286)
(-1.68508e-19 3.32997e-18 -0.0142762)
(4.45411e-19 2.92972e-18 -0.0142654)
(9.75778e-19 2.69575e-18 -0.0142537)
(9.97618e-19 2.48575e-18 -0.0142412)
(1.01147e-18 1.58939e-18 -0.0142278)
(8.26833e-19 1.19525e-18 -0.0142135)
(8.31366e-19 1.22228e-18 -0.0141985)
(3.93594e-19 1.27356e-18 -0.0141826)
(5.71506e-19 5.49621e-19 -0.014166)
(3.24691e-19 -2.78388e-19 -0.0141487)
(2.474e-19 2.45923e-19 -0.0141307)
(1.02699e-19 1.21873e-19 -0.0141121)
(2.00986e-19 3.26599e-19 -0.0140928)
(2.99002e-19 4.02485e-19 -0.0140729)
(-1.85546e-20 -2.05699e-19 -0.0140525)
(-4.88594e-19 1.44944e-18 -0.0142604)
(-5.10521e-19 2.74455e-18 -0.0142524)
(-2.32379e-19 2.73276e-18 -0.0142434)
(-2.76523e-19 2.85861e-18 -0.0142336)
(5.3246e-19 3.20275e-18 -0.0142228)
(9.04534e-19 2.58924e-18 -0.014211)
(7.96929e-19 2.27013e-18 -0.0141984)
(9.38051e-19 1.73382e-18 -0.014185)
(9.21504e-19 1.41973e-18 -0.0141707)
(8.59686e-19 1.28145e-18 -0.0141556)
(3.26745e-19 1.40446e-18 -0.0141397)
(3.05904e-19 3.54145e-19 -0.014123)
(3.18384e-19 -2.7462e-19 -0.0141057)
(2.77873e-19 1.90253e-19 -0.0140876)
(2.79934e-19 3.67012e-19 -0.0140689)
(1.63902e-19 1.56018e-19 -0.0140495)
(4.773e-19 7.8615e-19 -0.0140296)
(-2.66958e-19 -3.14464e-19 -0.0140092)
(-4.47194e-19 1.1973e-18 -0.0142175)
(-4.05729e-19 2.55305e-18 -0.0142095)
(-3.62688e-19 2.29045e-18 -0.0142006)
(-3.03804e-19 2.31374e-18 -0.0141906)
(5.65971e-19 3.15397e-18 -0.0141798)
(6.91834e-19 2.3718e-18 -0.0141681)
(6.59623e-19 2.04015e-18 -0.0141554)
(9.89716e-19 1.90651e-18 -0.0141419)
(9.44889e-19 1.63523e-18 -0.0141276)
(7.42759e-19 1.12705e-18 -0.0141124)
(2.18392e-19 1.45531e-18 -0.0140965)
(1.36767e-19 3.81246e-19 -0.0140797)
(3.8932e-19 -1.9529e-19 -0.0140623)
(4.25071e-19 2.42298e-19 -0.0140442)
(3.51115e-19 4.84286e-19 -0.0140254)
(1.51949e-19 2.62126e-20 -0.014006)
(2.08861e-19 5.19298e-19 -0.0139861)
(-3.45001e-19 -1.97414e-19 -0.0139655)
(-3.76334e-19 1.35014e-18 -0.0141744)
(-3.42215e-19 2.33431e-18 -0.0141664)
(-4.84615e-19 2.00364e-18 -0.0141574)
(-2.53328e-19 2.02287e-18 -0.0141475)
(4.78686e-19 2.68649e-18 -0.0141366)
(4.94289e-19 2.07338e-18 -0.0141248)
(7.5618e-19 2.29036e-18 -0.0141121)
(9.70276e-19 1.88115e-18 -0.0140986)
(8.62819e-19 1.67174e-18 -0.0140842)
(7.4645e-19 1.24919e-18 -0.0140689)
(5.02595e-20 1.32576e-18 -0.0140529)
(7.57927e-20 5.0849e-19 -0.0140362)
(7.00155e-19 2.54171e-19 -0.0140187)
(5.83033e-19 3.75881e-19 -0.0140005)
(3.57537e-19 5.68593e-19 -0.0139817)
(7.48606e-20 6.29599e-21 -0.0139622)
(-2.84892e-19 -6.99535e-20 -0.0139422)
(-3.91809e-19 -2.04799e-19 -0.0139216)
(-2.9262e-19 1.76959e-18 -0.0141311)
(-3.51314e-19 2.15574e-18 -0.014123)
(-5.65571e-19 1.81579e-18 -0.014114)
(-1.03815e-19 2.22833e-18 -0.014104)
(3.41629e-19 2.17312e-18 -0.0140931)
(4.16138e-19 1.71639e-18 -0.0140812)
(9.1387e-19 2.61898e-18 -0.0140685)
(8.89754e-19 1.89504e-18 -0.0140549)
(7.43016e-19 1.47899e-18 -0.0140405)
(6.60201e-19 1.25851e-18 -0.0140252)
(-2.11032e-19 1.09377e-18 -0.0140092)
(9.99787e-20 5.37502e-19 -0.0139923)
(8.99071e-19 4.89842e-19 -0.0139748)
(4.33357e-19 1.53995e-19 -0.0139566)
(1.71664e-19 4.06665e-19 -0.0139377)
(-1.70646e-19 -1.23954e-19 -0.0139182)
(-5.69134e-19 -3.72998e-19 -0.0138981)
(-3.81949e-19 -2.63008e-19 -0.0138775)
(-3.15229e-19 2.01097e-18 -0.0140874)
(-4.05448e-19 2.08027e-18 -0.0140793)
(-5.13945e-19 1.81723e-18 -0.0140702)
(2.3026e-20 2.47879e-18 -0.0140602)
(1.68167e-19 1.8866e-18 -0.0140493)
(5.08465e-19 1.62058e-18 -0.0140374)
(1.00118e-18 2.62279e-18 -0.0140246)
(7.18499e-19 1.85183e-18 -0.014011)
(5.46279e-19 1.2556e-18 -0.0139965)
(4.87673e-19 1.06228e-18 -0.0139812)
(-3.43245e-19 9.97528e-19 -0.0139651)
(7.78236e-20 4.36295e-19 -0.0139482)
(8.58976e-19 4.68337e-19 -0.0139306)
(1.67391e-19 -1.64503e-19 -0.0139124)
(3.26426e-20 2.6639e-19 -0.0138934)
(-5.17895e-19 -4.58492e-19 -0.0138739)
(-4.85151e-19 -2.65988e-19 -0.0138537)
(-3.21712e-19 -2.6301e-19 -0.013833)
(-4.0906e-19 1.96205e-18 -0.0140434)
(-3.97886e-19 2.18706e-18 -0.0140353)
(-3.89003e-19 2.09217e-18 -0.0140262)
(4.23874e-20 2.52198e-18 -0.0140161)
(1.63768e-19 2.03112e-18 -0.0140052)
(5.71971e-19 1.41665e-18 -0.0139933)
(9.81357e-19 2.51977e-18 -0.0139805)
(5.13965e-19 1.75231e-18 -0.0139668)
(4.65524e-19 1.22492e-18 -0.0139522)
(2.65524e-19 7.09615e-19 -0.0139369)
(-3.64817e-19 1.14644e-18 -0.0139207)
(8.5406e-20 3.85604e-19 -0.0139038)
(9.0184e-19 5.77626e-19 -0.0138862)
(-2.47249e-20 -3.90632e-19 -0.0138679)
(7.09577e-20 4.65354e-19 -0.0138489)
(-7.26508e-19 -6.6225e-19 -0.0138292)
(-2.99437e-19 -1.26706e-19 -0.0138091)
(-2.4244e-19 -1.29096e-19 -0.0137883)
(-4.56543e-19 1.779e-18 -0.0139991)
(-3.28245e-19 2.28192e-18 -0.013991)
(-3.37412e-19 2.15364e-18 -0.0139819)
(5.09355e-20 2.50182e-18 -0.0139718)
(1.71894e-19 2.45065e-18 -0.0139608)
(5.01844e-19 1.01493e-18 -0.0139488)
(9.1239e-19 2.12965e-18 -0.013936)
(2.27325e-19 1.40789e-18 -0.0139223)
(4.0393e-19 1.42097e-18 -0.0139077)
(7.83458e-20 3.82711e-19 -0.0138923)
(-2.51072e-19 1.3435e-18 -0.0138761)
(1.61146e-19 4.62692e-19 -0.0138592)
(9.08125e-19 7.45707e-19 -0.0138415)
(-1.12188e-19 -4.51179e-19 -0.0138231)
(1.96398e-19 7.18456e-19 -0.013804)
(-6.90668e-19 -4.73646e-19 -0.0137844)
(-3.62802e-19 -3.7072e-19 -0.0137641)
(-2.52623e-19 -1.02786e-19 -0.0137433)
(-5.88108e-19 1.80155e-18 -0.0139618)
(-4.2529e-19 1.70785e-18 -0.0139546)
(-3.37443e-19 2.07041e-18 -0.0139464)
(-4.19774e-19 1.758e-18 -0.0139373)
(2.14176e-20 2.13179e-18 -0.0139272)
(1.00588e-19 2.65939e-18 -0.0139161)
(4.44887e-19 9.71634e-19 -0.0139041)
(7.47788e-19 1.66565e-18 -0.0138913)
(-2.3012e-20 9.03159e-19 -0.0138775)
(3.39461e-19 1.40123e-18 -0.0138629)
(1.03922e-19 4.96057e-19 -0.0138474)
(-1.91823e-19 1.41405e-18 -0.0138312)
(2.23121e-19 5.46569e-19 -0.0138142)
(8.32662e-19 7.43122e-19 -0.0137964)
(2.25912e-20 -2.0687e-19 -0.013778)
(2.71866e-19 8.67802e-19 -0.0137589)
(-6.99999e-19 -2.18764e-19 -0.0137392)
(-4.60622e-19 -5.53332e-19 -0.0137189)
(-3.92558e-19 -3.75622e-19 -0.0136981)
(-6.4111e-19 1.64103e-18 -0.0139169)
(-3.53937e-19 1.89143e-18 -0.0139097)
(-4.437e-19 1.74081e-18 -0.0139015)
(-4.84861e-19 1.5087e-18 -0.0138924)
(3.48018e-20 1.69183e-18 -0.0138822)
(-1.31692e-20 2.49693e-18 -0.0138711)
(4.05687e-19 1.07562e-18 -0.0138591)
(6.19316e-19 1.41716e-18 -0.0138462)
(-6.30538e-20 8.99411e-19 -0.0138324)
(2.77947e-19 1.2483e-18 -0.0138178)
(1.22396e-19 5.27242e-19 -0.0138023)
(-1.87628e-19 1.39727e-18 -0.013786)
(2.05536e-19 5.14323e-19 -0.0137689)
(7.85213e-19 7.49423e-19 -0.0137511)
(1.90652e-19 5.99915e-20 -0.0137327)
(2.75084e-19 9.73061e-19 -0.0137135)
(-8.76244e-19 -1.99295e-19 -0.0136937)
(-2.08066e-19 -2.16307e-19 -0.0136734)
(-3.58867e-19 -4.79564e-19 -0.0136525)
(-8.42154e-19 2.20201e-18 -0.013878)
(-6.3657e-19 1.62436e-18 -0.0138718)
(-3.71278e-19 1.77759e-18 -0.0138646)
(-5.71657e-19 1.44827e-18 -0.0138564)
(-4.99387e-19 1.41926e-18 -0.0138472)
(8.06668e-20 1.51968e-18 -0.013837)
(-1.65313e-19 2.11739e-18 -0.0138259)
(3.09655e-19 9.73106e-19 -0.0138138)
(5.41816e-19 1.23727e-18 -0.0138009)
(-5.27454e-22 1.07895e-18 -0.0137871)
(3.32115e-19 1.45454e-18 -0.0137724)
(8.73535e-20 4.43638e-19 -0.0137568)
(-2.26916e-19 1.30805e-18 -0.0137405)
(1.41309e-19 3.75892e-19 -0.0137234)
(8.30148e-19 8.09551e-19 -0.0137056)
(3.61553e-19 3.21561e-19 -0.013687)
(2.28367e-19 1.09178e-18 -0.0136678)
(-9.17852e-19 -1.05733e-19 -0.013648)
(2.37331e-19 3.03834e-19 -0.0136276)
(-3.18473e-19 -4.32627e-19 -0.0136067)
(-8.26407e-19 2.32682e-18 -0.0138326)
(-6.91409e-19 1.80392e-18 -0.0138264)
(-4.53017e-19 1.53409e-18 -0.0138191)
(-6.17195e-19 1.35781e-18 -0.0138109)
(-4.8255e-19 1.33838e-18 -0.0138017)
(1.46329e-19 1.48145e-18 -0.0137915)
(-2.84736e-19 1.91936e-18 -0.0137803)
(2.06184e-19 7.61858e-19 -0.0137683)
(5.17456e-19 1.07604e-18 -0.0137553)
(3.77567e-20 1.05147e-18 -0.0137414)
(3.88575e-19 1.69266e-18 -0.0137267)
(6.43359e-20 5.2733e-19 -0.0137111)
(-2.39343e-19 1.28566e-18 -0.0136947)
(2.15018e-19 4.3389e-19 -0.0136776)
(9.14918e-19 8.5723e-19 -0.0136597)
(4.48031e-19 4.62627e-19 -0.0136411)
(4.25423e-20 1.01347e-18 -0.0136218)
(-6.81324e-19 2.76505e-19 -0.013602)
(1.42658e-19 1.8292e-19 -0.0135815)
(-3.54701e-19 -3.57508e-19 -0.0135605)
(-8.62253e-19 1.88826e-18 -0.0137869)
(-7.04114e-19 2.11293e-18 -0.0137807)
(-5.46773e-19 1.32761e-18 -0.0137734)
(-6.14153e-19 1.45682e-18 -0.0137651)
(-4.70503e-19 1.2796e-18 -0.0137559)
(1.21493e-19 1.17376e-18 -0.0137457)
(-3.75103e-19 1.86557e-18 -0.0137345)
(1.48824e-19 7.15494e-19 -0.0137224)
(5.48144e-19 1.04756e-18 -0.0137094)
(-3.68348e-20 7.08206e-19 -0.0136954)
(3.35304e-19 1.62175e-18 -0.0136807)
(1.44751e-19 7.97053e-19 -0.013665)
(-1.49341e-19 1.4343e-18 -0.0136486)
(3.41556e-19 5.86858e-19 -0.0136314)
(9.81675e-19 9.2438e-19 -0.0136135)
(2.93776e-19 3.09393e-19 -0.0135949)
(-1.74796e-19 7.84686e-19 -0.0135756)
(-5.72981e-19 5.68719e-19 -0.0135557)
(-1.63506e-19 -1.46186e-19 -0.0135352)
(-2.72785e-19 -2.27483e-19 -0.0135141)
(-8.91216e-19 1.49685e-18 -0.0137409)
(-6.97534e-19 2.36296e-18 -0.0137346)
(-6.27988e-19 1.29593e-18 -0.0137274)
(-5.65065e-19 1.62344e-18 -0.0137191)
(-5.0481e-19 1.30588e-18 -0.0137098)
(1.34366e-19 9.71263e-19 -0.0136995)
(-3.64646e-19 1.90933e-18 -0.0136883)
(1.80321e-19 8.36363e-19 -0.0136762)
(5.36628e-19 1.06683e-18 -0.0136631)
(-4.20292e-20 6.17803e-19 -0.0136492)
(3.22434e-19 1.41428e-18 -0.0136344)
(2.26786e-19 9.77739e-19 -0.0136187)
(-5.52418e-20 1.64874e-18 -0.0136022)
(3.67673e-19 5.92168e-19 -0.013585)
(8.43524e-19 7.56842e-19 -0.013567)
(1.55401e-19 2.42264e-19 -0.0135484)
(-4.85475e-19 3.50569e-19 -0.013529)
(-7.11187e-19 4.77984e-19 -0.0135091)
(-1.95571e-19 -1.41291e-19 -0.0134885)
(-1.44997e-19 -6.07371e-20 -0.0134674)
(-8.69153e-19 1.48847e-18 -0.0136946)
(-6.8306e-19 2.43714e-18 -0.0136883)
(-6.18513e-19 1.66418e-18 -0.013681)
(-5.92111e-19 1.54924e-18 -0.0136727)
(-5.20246e-19 1.40714e-18 -0.0136634)
(2.92145e-19 1.24323e-18 -0.0136531)
(-3.24786e-19 2.04612e-18 -0.0136419)
(3.26169e-19 1.36438e-18 -0.0136297)
(4.68824e-19 8.97894e-19 -0.0136166)
(7.05246e-20 8.13638e-19 -0.0136026)
(2.78196e-19 1.229e-18 -0.0135878)
(3.04015e-19 1.05567e-18 -0.0135721)
(4.45407e-20 1.89096e-18 -0.0135556)
(3.45442e-19 6.52803e-19 -0.0135383)
(5.96522e-19 3.69028e-19 -0.0135203)
(4.69139e-20 2.70302e-19 -0.0135015)
(-7.8475e-19 7.40148e-21 -0.0134822)
(-8.9515e-19 2.03661e-19 -0.0134621)
(-1.53516e-19 -1.29282e-19 -0.0134416)
(-9.59074e-20 1.20978e-20 -0.0134204)
(-8.78841e-19 1.47219e-18 -0.013648)
(-7.03494e-19 2.14902e-18 -0.0136417)
(-6.60533e-19 1.9698e-18 -0.0136343)
(-6.55036e-19 1.47775e-18 -0.013626)
(-4.85045e-19 1.40083e-18 -0.0136167)
(4.11351e-19 1.35653e-18 -0.0136064)
(-2.75647e-19 2.05864e-18 -0.0135951)
(3.76965e-19 1.71783e-18 -0.0135829)
(2.90691e-19 6.59411e-19 -0.0135698)
(1.76259e-19 9.79431e-19 -0.0135558)
(3.72923e-19 1.31192e-18 -0.0135409)
(4.08851e-19 1.09453e-18 -0.0135251)
(4.21829e-20 1.95237e-18 -0.0135086)
(4.45785e-19 1.05351e-18 -0.0134913)
(3.81858e-19 1.08589e-19 -0.0134732)
(-1.21287e-19 1.60425e-19 -0.0134544)
(-6.13304e-19 3.68176e-19 -0.013435)
(-8.1255e-19 2.58512e-19 -0.0134149)
(-1.48691e-19 -2.0095e-19 -0.0133943)
(-1.12544e-19 -3.16526e-20 -0.0133731)
(-9.19284e-19 1.60148e-18 -0.013601)
(-6.95938e-19 1.8732e-18 -0.0135947)
(-6.81588e-19 2.0254e-18 -0.0135874)
(-7.49451e-19 1.35947e-18 -0.013579)
(-4.6686e-19 1.44774e-18 -0.0135697)
(4.86439e-19 1.3321e-18 -0.0135593)
(-3.27947e-19 1.79039e-18 -0.013548)
(2.32685e-19 1.62157e-18 -0.0135358)
(1.60879e-19 4.20003e-19 -0.0135226)
(3.71397e-19 1.17407e-18 -0.0135086)
(4.30984e-19 1.39769e-18 -0.0134937)
(3.3652e-19 8.99669e-19 -0.0134779)
(4.64304e-21 1.81794e-18 -0.0134613)
(5.32698e-19 1.4424e-18 -0.0134439)
(3.89367e-19 3.4364e-19 -0.0134258)
(-1.21268e-19 1.19191e-19 -0.013407)
(-3.71276e-19 7.22596e-19 -0.0133875)
(-5.65283e-19 7.02875e-19 -0.0133674)
(-1.27038e-19 -1.78854e-19 -0.0133467)
(1.68121e-20 7.87026e-20 -0.0133255)
(-9.20389e-19 1.63916e-18 -0.0135538)
(-6.8739e-19 1.8234e-18 -0.0135474)
(-8.02365e-19 1.84204e-18 -0.0135401)
(-8.80749e-19 1.00894e-18 -0.0135317)
(-3.30596e-19 1.70861e-18 -0.0135223)
(5.33465e-19 1.40393e-18 -0.013512)
(-3.94978e-19 1.53459e-18 -0.0135007)
(1.90668e-19 1.71549e-18 -0.0134884)
(1.31829e-19 3.595e-19 -0.0134752)
(4.89162e-19 1.18894e-18 -0.0134611)
(3.00994e-19 1.19847e-18 -0.0134461)
(2.72684e-19 7.02978e-19 -0.0134303)
(-1.50752e-20 1.6237e-18 -0.0134137)
(4.85312e-19 1.45943e-18 -0.0133963)
(4.251e-19 6.36317e-19 -0.0133781)
(-1.51975e-19 1.47104e-19 -0.0133593)
(-4.60708e-19 5.39367e-19 -0.0133397)
(-4.99967e-19 8.54749e-19 -0.0133196)
(-1.08237e-20 -1.35338e-20 -0.0132989)
(2.58509e-19 3.95352e-19 -0.0132776)
(-9.7996e-19 1.35046e-18 -0.0135062)
(-6.64386e-19 1.88505e-18 -0.0134998)
(-9.32979e-19 1.67721e-18 -0.0134925)
(-8.6741e-19 9.53585e-19 -0.0134841)
(-1.51584e-19 2.01579e-18 -0.0134747)
(5.53462e-19 1.53805e-18 -0.0134643)
(-3.60311e-19 1.53666e-18 -0.0134529)
(2.78113e-19 2.13871e-18 -0.0134406)
(1.81634e-19 5.69926e-19 -0.0134274)
(6.02939e-19 1.26605e-18 -0.0134133)
(1.87763e-19 1.03175e-18 -0.0133983)
(3.66049e-19 8.17997e-19 -0.0133824)
(5.52118e-20 1.61622e-18 -0.0133658)
(4.17845e-19 1.41807e-18 -0.0133483)
(3.04149e-19 6.6105e-19 -0.0133301)
(-2.33707e-19 1.35474e-19 -0.0133112)
(-5.04589e-19 4.33205e-19 -0.0132916)
(-5.90952e-19 7.19659e-19 -0.0132714)
(1.1312e-19 7.52337e-20 -0.0132507)
(2.14304e-19 4.40602e-19 -0.0132294)
(-9.7595e-19 1.10456e-18 -0.0134583)
(-6.52743e-19 1.75952e-18 -0.0134519)
(-1.02511e-18 1.73179e-18 -0.0134445)
(-8.17031e-19 9.35003e-19 -0.0134361)
(-3.32947e-20 2.07011e-18 -0.0134267)
(5.0367e-19 1.49298e-18 -0.0134163)
(-3.09107e-19 1.4795e-18 -0.0134049)
(3.5459e-19 2.4494e-18 -0.0133926)
(2.07003e-19 7.82437e-19 -0.0133793)
(6.97949e-19 1.40638e-18 -0.0133652)
(1.28745e-19 9.77661e-19 -0.0133501)
(5.509e-19 1.03025e-18 -0.0133342)
(1.28396e-19 1.67369e-18 -0.0133175)
(4.22462e-19 1.54768e-18 -0.0133)
(2.22194e-19 7.63109e-19 -0.0132818)
(-1.90608e-19 3.01912e-19 -0.0132628)
(-3.86432e-19 5.78976e-19 -0.0132432)
(-5.81988e-19 7.17082e-19 -0.013223)
(1.54325e-19 9.66429e-20 -0.0132022)
(-7.41342e-20 1.69938e-19 -0.0131808)
(-9.58229e-19 1.08338e-18 -0.01341)
(-6.40853e-19 1.50411e-18 -0.0134037)
(-1.05866e-18 1.93271e-18 -0.0133963)
(-7.62196e-19 9.99888e-19 -0.0133878)
(3.91735e-20 2.00701e-18 -0.0133784)
(4.17386e-19 1.35082e-18 -0.013368)
(-2.42466e-19 1.38187e-18 -0.0133566)
(2.98268e-19 2.35664e-18 -0.0133442)
(1.19717e-19 7.11388e-19 -0.0133309)
(5.72037e-19 1.05277e-18 -0.0133167)
(1.23872e-19 1.00449e-18 -0.0133016)
(6.99025e-19 1.19198e-18 -0.0132857)
(1.2808e-19 1.592e-18 -0.0132689)
(4.94153e-19 1.76221e-18 -0.0132514)
(2.75454e-19 1.06102e-18 -0.0132331)
(-1.71039e-19 4.0613e-19 -0.0132141)
(-2.38222e-19 7.92901e-19 -0.0131945)
(-3.00991e-19 1.12283e-18 -0.0131742)
(2.59809e-19 2.62444e-19 -0.0131533)
(-1.79806e-19 8.81143e-20 -0.0131319)
(-9.14657e-19 1.11424e-18 -0.0133615)
(-5.74812e-19 1.48262e-18 -0.0133551)
(-1.06655e-18 2.12609e-18 -0.0133477)
(-7.07456e-19 1.15576e-18 -0.0133392)
(9.3305e-20 1.96706e-18 -0.0133297)
(3.24447e-19 1.1808e-18 -0.0133193)
(-2.31078e-19 1.18713e-18 -0.0133079)
(1.47981e-19 2.06463e-18 -0.0132955)
(-1.96866e-20 6.20778e-19 -0.0132821)
(4.8653e-19 7.24298e-19 -0.0132679)
(2.65052e-19 1.15156e-18 -0.0132528)
(6.89707e-19 1.05659e-18 -0.0132368)
(3.99064e-20 1.34595e-18 -0.01322)
(5.60269e-19 1.88093e-18 -0.0132025)
(3.39489e-19 1.44139e-18 -0.0131841)
(-2.29785e-19 4.29769e-19 -0.0131651)
(-6.16929e-20 9.1199e-19 -0.0131454)
(-1.28735e-19 1.36176e-18 -0.0131251)
(3.8393e-19 5.50845e-19 -0.0131042)
(-1.14122e-19 2.56899e-19 -0.0130827)
(-8.54327e-19 1.03686e-18 -0.0133126)
(-4.99376e-19 1.43691e-18 -0.0133062)
(-1.09904e-18 2.20315e-18 -0.0132987)
(-6.60907e-19 1.32825e-18 -0.0132903)
(1.14663e-19 1.93356e-18 -0.0132808)
(2.02158e-19 1.00758e-18 -0.0132703)
(-2.36552e-19 9.54324e-19 -0.0132588)
(3.99689e-20 1.81402e-18 -0.0132464)
(-5.81877e-20 6.64335e-19 -0.013233)
(5.77836e-19 7.26306e-19 -0.0132188)
(4.42977e-19 1.48586e-18 -0.0132036)
(5.59954e-19 8.3477e-19 -0.0131876)
(-3.9325e-20 1.03121e-18 -0.0131708)
(6.03026e-19 1.8468e-18 -0.0131532)
(1.56401e-19 1.40772e-18 -0.0131348)
(-2.80825e-19 4.75193e-19 -0.0131157)
(7.10125e-20 1.01855e-18 -0.013096)
(-1.2529e-19 1.37301e-18 -0.0130756)
(4.28137e-19 6.74758e-19 -0.0130547)
(-3.70582e-20 4.85481e-19 -0.0130332)
(-7.88805e-19 9.9192e-19 -0.0132633)
(-4.05362e-19 1.44964e-18 -0.0132569)
(-1.15563e-18 2.01193e-18 -0.0132494)
(-5.99444e-19 1.56791e-18 -0.0132409)
(8.36232e-20 1.81582e-18 -0.0132314)
(2.15204e-19 1.2883e-18 -0.0132209)
(-1.47648e-19 1.02322e-18 -0.0132094)