/*--------------------------------*- C++ -*----------------------------------*\
  =========                 |
  \\      /  F ield         | OpenFOAM: The Open Source CFD Toolbox
   \\    /   O peration     | Website:  https://openfoam.org
    \\  /    A nd           | Version:  7
     \\/     M anipulation  |
\*---------------------------------------------------------------------------*/
FoamFile
{
    version     2.0;
    format      ascii;
    class       volScalarField;
    location    "180000";
    object      p;
}
// * * * * * * * * * * * * * * * * * * * * * * * * * * * * * * * * * * * * * //

dimensions      [0 2 -2 0 0 0 0];

internalField   nonuniform List<scalar> 
4838
(
-6.28283e-19
-6.41957e-19
-6.44616e-19
-6.62665e-19
-6.50858e-19
-6.70309e-19
-6.45312e-19
-6.32598e-19
-6.21299e-19
-6.64357e-19
-6.42078e-19
-6.45347e-19
-6.52224e-19
-6.39413e-19
-6.07381e-19
-6.21931e-19
-6.79307e-19
-6.826e-19
-6.62183e-19
-6.81619e-19
-6.80281e-19
-6.293e-19
-6.45293e-19
-6.55152e-19
-6.59625e-19
-6.84193e-19
-6.59282e-19
-6.56574e-19
-6.48322e-19
-6.31268e-19
-6.77318e-19
-6.5997e-19
-6.39568e-19
-6.93437e-19
-6.71495e-19
-6.72745e-19
-6.36683e-19
-6.73343e-19
-6.66266e-19
-6.73107e-19
-6.38603e-19
-6.70846e-19
-6.23628e-19
-6.4769e-19
-6.7606e-19
-6.49554e-19
-6.34704e-19
-6.40228e-19
-6.32676e-19
-6.32319e-19
-6.34762e-19
-6.52182e-19
-6.20602e-19
-6.40245e-19
-6.40648e-19
-6.69191e-19
-6.48443e-19
-6.44271e-19
-6.44709e-19
-6.48596e-19
-6.41147e-19
-6.44907e-19
-6.5312e-19
-6.49183e-19
-6.42549e-19
-6.43587e-19
-6.70711e-19
-6.26155e-19
-6.11668e-19
-6.20812e-19
-6.46387e-19
-6.49478e-19
-6.59772e-19
-6.69078e-19
-6.34494e-19
-6.63722e-19
-6.23043e-19
-6.73825e-19
-6.62433e-19
-6.54055e-19
-6.63867e-19
-6.7963e-19
-6.53086e-19
-6.28428e-19
-6.2279e-19
-6.50466e-19
-6.52073e-19
-6.529e-19
-6.54041e-19
-6.58192e-19
-6.82259e-19
-6.80635e-19
-6.51744e-19
-6.49119e-19
-6.46388e-19
-6.3219e-19
-6.12894e-19
-6.25749e-19
-6.02642e-19
-6.30592e-19
-6.10601e-19
-6.07378e-19
-6.25717e-19
-6.29724e-19
-6.17668e-19
-6.37889e-19
-6.39612e-19
-6.53402e-19
-6.74167e-19
-6.65834e-19
-6.40289e-19
-6.33621e-19
-6.68594e-19
-6.5171e-19
-6.43581e-19
-6.24833e-19
-6.45892e-19
-6.37394e-19
-6.14939e-19
-6.38985e-19
-6.46592e-19
-6.53016e-19
-6.70341e-19
-6.32829e-19
-6.20341e-19
-6.30685e-19
-6.72602e-19
-6.84643e-19
-6.65263e-19
-6.78177e-19
-6.65158e-19
-6.5959e-19
-6.56828e-19
-6.49888e-19
-6.47707e-19
-6.57134e-19
-6.47502e-19
-6.27186e-19
-6.49279e-19
-6.46484e-19
-6.40962e-19
-6.21094e-19
-6.48951e-19
-6.64013e-19
-6.49245e-19
-6.39523e-19
-6.36069e-19
-6.37629e-19
-6.42375e-19
-6.53928e-19
-6.32538e-19
-6.27931e-19
-6.14121e-19
-6.16183e-19
-6.50382e-19
-6.19363e-19
-6.3521e-19
-6.42705e-19
-6.38743e-19
-6.1953e-19
-6.23159e-19
-6.60976e-19
-6.55864e-19
-6.6795e-19
-6.50575e-19
-6.39991e-19
-6.49742e-19
-6.45483e-19
-6.21055e-19
-6.47836e-19
-6.57127e-19
-6.53799e-19
-6.57567e-19
-6.79078e-19
-6.78991e-19
-6.50513e-19
-6.32243e-19
-6.48686e-19
-6.53659e-19
-6.61729e-19
-6.72692e-19
-6.58269e-19
-6.79619e-19
-6.57044e-19
-6.50557e-19
-6.52317e-19
-6.45237e-19
-6.1723e-19
-6.18067e-19
-6.18313e-19
-6.16657e-19
-6.20337e-19
-6.38574e-19
-6.22153e-19
-6.33888e-19
-6.41661e-19
-6.36362e-19
-6.33353e-19
-6.56121e-19
-6.36046e-19
-6.32521e-19
-6.22393e-19
-6.57721e-19
-6.43579e-19
-6.46759e-19
-6.43149e-19
-6.403e-19
-6.36246e-19
-6.09143e-19
-6.29834e-19
-6.4263e-19
-6.50521e-19
-6.41872e-19
-6.20808e-19
-6.42986e-19
-6.30733e-19
-6.64759e-19
-6.53981e-19
-6.47046e-19
-6.541e-19
-6.91285e-19
-6.73689e-19
-6.51916e-19
-6.75544e-19
-6.7972e-19
-6.54925e-19
-6.39198e-19
-6.30442e-19
-6.52178e-19
-6.5325e-19
-6.30574e-19
-6.29732e-19
-6.54826e-19
-6.49306e-19
-6.54239e-19
-6.49252e-19
-6.26147e-19
-6.23807e-19
-6.41909e-19
-6.43607e-19
-6.50785e-19
-6.71114e-19
-6.47475e-19
-6.32981e-19
-6.24273e-19
-6.32515e-19
-6.0801e-19
-5.89053e-19
-6.08615e-19
-6.28027e-19
-6.30429e-19
-6.33246e-19
-6.41627e-19
-6.41656e-19
-6.62053e-19
-6.53692e-19
-6.41247e-19
-6.45554e-19
-6.43005e-19
-6.26311e-19
-6.45251e-19
-6.49125e-19
-6.33993e-19
-5.95854e-19
-6.36815e-19
-6.43871e-19
-6.47633e-19
-6.52973e-19
-6.67515e-19
-6.50063e-19
-6.57941e-19
-6.50402e-19
-6.20844e-19
-6.22402e-19
-6.48978e-19
-6.47714e-19
-6.30914e-19
-6.48763e-19
-6.70642e-19
-6.54247e-19
-6.48727e-19
-6.48003e-19
-6.30181e-19
-6.27526e-19
-6.48909e-19
-6.53544e-19
-6.69611e-19
-6.57008e-19
-6.49397e-19
-6.32983e-19
-6.65606e-19
-6.55694e-19
-6.43172e-19
-6.48958e-19
-6.65141e-19
-6.41379e-19
-6.36081e-19
-6.497e-19
-6.34266e-19
-6.30273e-19
-6.11013e-19
-6.32529e-19
-6.32061e-19
-6.18709e-19
-6.43122e-19
-6.58562e-19
-6.26121e-19
-6.42237e-19
-6.64864e-19
-6.46529e-19
-6.49146e-19
-6.49231e-19
-6.1895e-19
-5.99039e-19
-6.45347e-19
-6.56882e-19
-6.44895e-19
-6.45622e-19
-6.46504e-19
-6.4812e-19
-6.67417e-19
-6.65295e-19
-6.2677e-19
-6.24722e-19
-6.4526e-19
-6.4716e-19
-6.48336e-19
-6.49348e-19
-6.37106e-19
-6.50731e-19
-6.57022e-19
-6.59521e-19
-6.52357e-19
-6.50967e-19
-6.51719e-19
-6.5685e-19
-6.72224e-19
-6.78399e-19
-6.518e-19
-6.41924e-19
-6.30717e-19
-6.39592e-19
-6.38991e-19
-6.40853e-19
-6.4358e-19
-6.39686e-19
-6.42849e-19
-6.44165e-19
-6.33178e-19
-6.1127e-19
-6.3223e-19
-6.40765e-19
-6.46349e-19
-6.54565e-19
-6.35499e-19
-6.30132e-19
-6.38735e-19
-6.23803e-19
-6.24086e-19
-6.28294e-19
-6.53283e-19
-6.64738e-19
-6.30819e-19
-6.39078e-19
-6.67599e-19
-6.81509e-19
-6.33472e-19
-6.40353e-19
-6.26365e-19
-6.21037e-19
-6.24296e-19
-6.30622e-19
-6.43559e-19
-6.66182e-19
-6.50531e-19
-6.30393e-19
-6.48611e-19
-6.51503e-19
-6.45707e-19
-6.57118e-19
-6.64887e-19
-6.76075e-19
-6.5624e-19
-6.50901e-19
-6.37153e-19
-6.6441e-19
-6.37854e-19
-6.65281e-19
-6.32417e-19
-6.50201e-19
-6.38322e-19
-6.22949e-19
-6.21461e-19
-6.20839e-19
-6.16362e-19
-6.35435e-19
-6.62368e-19
-6.66956e-19
-6.51961e-19
-6.14306e-19
-6.59514e-19
-6.67812e-19
-6.59765e-19
-6.44209e-19
-6.25716e-19
-6.62822e-19
-6.6957e-19
-6.63446e-19
-6.50249e-19
-6.57183e-19
-6.43474e-19
-6.49392e-19
-6.63256e-19
-6.48177e-19
-6.3124e-19
-6.47633e-19
-6.40703e-19
-6.44283e-19
-6.43868e-19
-6.27121e-19
-6.23718e-19
-6.38481e-19
-6.27101e-19
-6.50371e-19
-6.49289e-19
-6.26016e-19
-6.47712e-19
-6.51166e-19
-6.38032e-19
-6.73922e-19
-6.89871e-19
-6.52951e-19
-6.35206e-19
-6.49134e-19
-6.5013e-19
-6.54051e-19
-6.44809e-19
-6.51186e-19
-6.44751e-19
-6.64825e-19
-6.29114e-19
-6.42383e-19
-6.59835e-19
-6.42376e-19
-6.21175e-19
-6.22606e-19
-6.40993e-19
-6.61856e-19
-6.33706e-19
-6.29266e-19
-6.49599e-19
-6.76479e-19
-6.29761e-19
-6.37782e-19
-6.42326e-19
-6.57558e-19
-6.29557e-19
-6.47732e-19
-6.50917e-19
-6.27125e-19
-6.05719e-19
-6.24822e-19
-6.50186e-19
-6.47428e-19
-6.40011e-19
-6.47719e-19
-6.5138e-19
-6.45894e-19
-6.52174e-19
-6.64074e-19
-6.45167e-19
-6.49567e-19
-6.28465e-19
-6.51435e-19
-6.52133e-19
-6.18324e-19
-6.47593e-19
-6.55458e-19
-6.55564e-19
-6.5977e-19
-6.58556e-19
-6.39822e-19
-6.47827e-19
-6.55548e-19
-6.53465e-19
-6.53622e-19
-6.3129e-19
-6.44563e-19
-6.3618e-19
-6.51997e-19
-6.40657e-19
-6.5096e-19
-6.50888e-19
-6.46126e-19
-6.54403e-19
-6.55487e-19
-6.40935e-19
-6.34643e-19
-6.13541e-19
-6.37521e-19
-6.38689e-19
-6.42189e-19
-6.37712e-19
-6.42521e-19
-6.44381e-19
-6.31194e-19
-6.10142e-19
-6.41334e-19
-6.46372e-19
-6.39921e-19
-6.23702e-19
-6.42002e-19
-6.49204e-19
-6.49314e-19
-6.29758e-19
-6.63163e-19
-6.85824e-19
-6.457e-19
-6.44277e-19
-6.48087e-19
-6.31117e-19
-6.6569e-19
-6.54962e-19
-6.71204e-19
-6.73514e-19
-6.50656e-19
-6.54983e-19
-6.61661e-19
-6.73963e-19
-6.6875e-19
-6.59906e-19
-6.85985e-19
-6.75427e-19
-6.7303e-19
-6.59584e-19
-6.70423e-19
-6.39705e-19
-6.5358e-19
-6.68572e-19
-6.48852e-19
-6.32803e-19
-6.54801e-19
-6.46312e-19
-6.20863e-19
-6.22856e-19
-6.25449e-19
-6.39263e-19
-6.34258e-19
-6.24726e-19
-6.14282e-19
-6.5237e-19
-6.24801e-19
-6.33928e-19
-6.41197e-19
-6.64469e-19
-6.80734e-19
-6.62525e-19
-6.44129e-19
-6.47272e-19
-6.49651e-19
-6.44849e-19
-6.54141e-19
-6.6965e-19
-6.67591e-19
-6.42231e-19
-6.34691e-19
-6.77671e-19
-6.28464e-19
-6.32653e-19
-6.43414e-19
-6.26763e-19
-6.50173e-19
-6.69853e-19
-6.5704e-19
-6.54162e-19
-6.51327e-19
-6.60307e-19
-6.732e-19
-6.59717e-19
-6.40149e-19
-6.51456e-19
-6.70373e-19
-6.60518e-19
-6.73245e-19
-6.61104e-19
-6.56749e-19
-6.81663e-19
-6.75491e-19
-6.72638e-19
-6.50184e-19
-6.50201e-19
-6.74767e-19
-6.49046e-19
-6.29404e-19
-6.36125e-19
-6.30661e-19
-6.35138e-19
-6.34754e-19
-6.23204e-19
-6.23265e-19
-6.25367e-19
-6.49156e-19
-6.41937e-19
-6.14667e-19
-6.47649e-19
-6.49491e-19
-6.49222e-19
-6.27741e-19
-6.41434e-19
-6.46254e-19
-6.49027e-19
-6.66607e-19
-6.74471e-19
-6.54249e-19
-6.43719e-19
-6.41993e-19
-6.52555e-19
-6.29211e-19
-6.59196e-19
-6.48918e-19
-6.4293e-19
-6.37712e-19
-6.68848e-19
-6.55851e-19
-6.35224e-19
-6.34089e-19
-6.72494e-19
-6.64315e-19
-6.5934e-19
-6.52511e-19
-6.36137e-19
-6.27146e-19
-6.46687e-19
-6.59567e-19
-6.70266e-19
-6.38197e-19
-6.60325e-19
-6.62014e-19
-6.5053e-19
-6.47427e-19
-6.33431e-19
-6.33983e-19
-6.69213e-19
-6.5767e-19
-6.36723e-19
-6.19156e-19
-6.19897e-19
-6.29164e-19
-6.12799e-19
-6.31019e-19
-6.42274e-19
-6.4376e-19
-6.58488e-19
-6.54884e-19
-6.59286e-19
-6.32018e-19
-6.41187e-19
-6.26355e-19
-6.31765e-19
-6.33594e-19
-6.42222e-19
-6.52229e-19
-6.66216e-19
-6.44744e-19
-6.3239e-19
-6.46164e-19
-6.59771e-19
-6.39756e-19
-6.51149e-19
-6.51251e-19
-6.53429e-19
-6.62847e-19
-6.59948e-19
-6.68946e-19
-6.55077e-19
-6.37635e-19
-6.73561e-19
-6.76808e-19
-6.70307e-19
-6.75433e-19
-6.56366e-19
-6.49242e-19
-6.4252e-19
-6.57985e-19
-6.60919e-19
-6.49894e-19
-6.76714e-19
-6.73758e-19
-6.37446e-19
-6.45176e-19
-6.45761e-19
-6.27582e-19
-6.77724e-19
-6.374e-19
-6.10807e-19
-6.32639e-19
-6.32983e-19
-6.36576e-19
-6.31205e-19
-6.41041e-19
-6.54823e-19
-6.40978e-19
-6.33708e-19
-6.47181e-19
-6.44421e-19
-6.36991e-19
-6.25844e-19
-6.453e-19
-6.58103e-19
-6.47284e-19
-6.36536e-19
-6.47428e-19
-6.29812e-19
-6.31362e-19
-6.44283e-19
-6.51126e-19
-6.38171e-19
-6.26019e-19
-6.50181e-19
-6.47227e-19
-6.49824e-19
-6.50276e-19
-6.5317e-19
-6.5484e-19
-6.67591e-19
-6.53167e-19
-6.63146e-19
-6.72385e-19
-6.47086e-19
-6.73038e-19
-6.60124e-19
-6.56987e-19
-6.68805e-19
-6.58487e-19
-6.69559e-19
-6.40121e-19
-6.88859e-19
-6.7603e-19
-6.51032e-19
-6.39717e-19
-6.50763e-19
-6.27507e-19
-6.53494e-19
-6.56497e-19
-6.32392e-19
-6.34029e-19
-6.40545e-19
-6.54399e-19
-6.38861e-19
-6.15271e-19
-6.43045e-19
-6.42885e-19
-6.65755e-19
-6.49123e-19
-6.252e-19
-6.12071e-19
-6.12515e-19
-6.42071e-19
-6.34881e-19
-6.50505e-19
-6.60441e-19
-6.46197e-19
-6.1501e-19
-6.29334e-19
-6.53024e-19
-6.64048e-19
-6.57416e-19
-6.30914e-19
-6.60537e-19
-6.36213e-19
-6.47661e-19
-6.40945e-19
-6.56047e-19
-6.39127e-19
-6.42783e-19
-6.5869e-19
-6.74961e-19
-6.57063e-19
-6.56487e-19
-6.67001e-19
-6.54034e-19
-6.47923e-19
-6.5819e-19
-6.41569e-19
-6.57494e-19
-6.4294e-19
-6.64346e-19
-6.55994e-19
-6.50667e-19
-6.66859e-19
-6.68696e-19
-6.29645e-19
-6.38238e-19
-6.39308e-19
-6.38194e-19
-6.25654e-19
-6.3728e-19
-6.48268e-19
-6.06186e-19
-6.21057e-19
-6.38439e-19
-6.39107e-19
-6.37773e-19
-6.57052e-19
-6.2783e-19
-6.37334e-19
-6.46426e-19
-6.27737e-19
-6.33106e-19
-6.49861e-19
-6.41594e-19
-6.37338e-19
-6.26608e-19
-6.4219e-19
-6.68772e-19
-6.52649e-19
-6.47711e-19
-6.44236e-19
-6.57431e-19
-6.48974e-19
-6.54967e-19
-6.66549e-19
-6.80512e-19
-6.51326e-19
-6.50182e-19
-6.68227e-19
-6.83256e-19
-6.45648e-19
-6.68818e-19
-6.81456e-19
-6.48825e-19
-6.68624e-19
-6.56862e-19
-6.42146e-19
-6.64224e-19
-6.72106e-19
-6.56437e-19
-6.40047e-19
-6.33994e-19
-6.55281e-19
-6.55626e-19
-6.38291e-19
-6.23215e-19
-6.22803e-19
-6.37548e-19
-6.50211e-19
-6.2457e-19
-6.21353e-19
-6.20206e-19
-6.25419e-19
-6.47222e-19
-6.40673e-19
-6.33683e-19
-6.52853e-19
-6.46116e-19
-6.50053e-19
-6.72983e-19
-6.22214e-19
-6.57252e-19
-6.54366e-19
-6.66325e-19
-6.60369e-19
-6.29547e-19
-6.36845e-19
-6.68995e-19
-6.50245e-19
-6.32007e-19
-6.51874e-19
-6.69589e-19
-6.49955e-19
-6.63335e-19
-6.61668e-19
-6.60162e-19
-6.45091e-19
-6.43695e-19
-6.45999e-19
-6.60016e-19
-6.53751e-19
-6.57032e-19
-6.52158e-19
-6.55545e-19
-6.63065e-19
-6.53165e-19
-6.62719e-19
-6.77716e-19
-6.6045e-19
-6.4382e-19
-6.53179e-19
-6.4075e-19
-6.49326e-19
-6.4916e-19
-6.3692e-19
-6.66423e-19
-6.25912e-19
-6.35418e-19
-6.29736e-19
-6.35351e-19
-6.16354e-19
-6.13741e-19
-6.2298e-19
-6.57321e-19
-6.40516e-19
-6.37258e-19
-6.30261e-19
-6.43599e-19
-6.46467e-19
-6.54869e-19
-6.39117e-19
-6.37783e-19
-6.54525e-19
-6.69466e-19
-6.55227e-19
-6.31684e-19
-6.48842e-19
-6.64897e-19
-6.51737e-19
-6.42495e-19
-6.63737e-19
-6.71677e-19
-6.3615e-19
-6.42196e-19
-6.65018e-19
-6.54484e-19
-6.64413e-19
-6.63743e-19
-6.58797e-19
-6.55029e-19
-6.61745e-19
-6.92931e-19
-6.63664e-19
-6.6032e-19
-6.56898e-19
-6.38048e-19
-6.77045e-19
-6.67213e-19
-6.48526e-19
-6.5405e-19
-6.61862e-19
-6.6782e-19
-6.41274e-19
-6.55069e-19
-6.63893e-19
-6.58552e-19
-6.39983e-19
-6.37777e-19
-6.4046e-19
-6.58174e-19
-6.25114e-19
-6.18075e-19
-6.25091e-19
-6.42092e-19
-6.44137e-19
-6.45306e-19
-6.43779e-19
-6.33893e-19
-6.37448e-19
-6.19888e-19
-6.57494e-19
-6.57466e-19
-6.64349e-19
-6.49854e-19
-6.74361e-19
-6.55576e-19
-6.50827e-19
-6.35526e-19
-6.5389e-19
-6.6948e-19
-6.43833e-19
-6.49393e-19
-6.51686e-19
-6.47465e-19
-6.64322e-19
-6.6181e-19
-6.86367e-19
-6.61072e-19
-6.66831e-19
-6.76573e-19
-6.7508e-19
-6.64176e-19
-6.45825e-19
-6.5766e-19
-6.76458e-19
-6.64109e-19
-6.58465e-19
-6.47741e-19
-6.59588e-19
-6.49279e-19
-6.55858e-19
-6.65322e-19
-6.79909e-19
-6.7465e-19
-6.47013e-19
-6.45726e-19
-6.48232e-19
-6.41699e-19
-6.27884e-19
-6.3107e-19
-6.22228e-19
-6.50245e-19
-6.49312e-19
-6.51002e-19
-6.24837e-19
-6.2405e-19
-6.21973e-19
-6.48617e-19
-6.54195e-19
-6.53502e-19
-6.47196e-19
-6.6462e-19
-6.53062e-19
-6.46057e-19
-6.45709e-19
-6.49405e-19
-6.68609e-19
-6.38303e-19
-6.50692e-19
-6.33865e-19
-6.54285e-19
-6.79772e-19
-6.63965e-19
-6.88291e-19
-6.61692e-19
-6.69985e-19
-6.8035e-19
-6.67803e-19
-6.78388e-19
-6.49497e-19
-6.62106e-19
-6.53468e-19
-6.63626e-19
-6.66414e-19
-6.50891e-19
-6.65837e-19
-6.56179e-19
-6.698e-19
-6.6014e-19
-6.65042e-19
-6.61923e-19
-6.55678e-19
-6.50802e-19
-6.40479e-19
-6.28711e-19
-6.27978e-19
-6.34349e-19
-6.42161e-19
-6.56012e-19
-6.47963e-19
-6.44647e-19
-6.40317e-19
-6.49043e-19
-6.57371e-19
-6.49234e-19
-6.38841e-19
-6.69483e-19
-6.52831e-19
-6.38261e-19
-6.50445e-19
-6.39632e-19
-6.64137e-19
-6.4954e-19
-6.55555e-19
-6.75963e-19
-6.59209e-19
-6.66462e-19
-6.80148e-19
-6.65457e-19
-6.56337e-19
-6.79351e-19
-6.40863e-19
-6.67321e-19
-6.78406e-19
-6.63005e-19
-6.66365e-19
-6.60466e-19
-6.59618e-19
-6.74645e-19
-6.68242e-19
-6.7293e-19
-6.50191e-19
-6.65652e-19
-6.58196e-19
-6.44913e-19
-6.49137e-19
-6.47185e-19
-6.5306e-19
-6.35289e-19
-6.24455e-19
-6.31002e-19
-6.36207e-19
-6.16205e-19
-6.59078e-19
-6.58825e-19
-6.4104e-19
-6.51089e-19
-6.44832e-19
-6.49109e-19
-6.45345e-19
-6.51324e-19
-6.5164e-19
-6.38597e-19
-6.59908e-19
-6.36087e-19
-6.5529e-19
-6.52741e-19
-6.54854e-19
-6.65738e-19
-6.55684e-19
-6.65532e-19
-6.63022e-19
-6.62664e-19
-6.39366e-19
-6.45795e-19
-6.43928e-19
-6.80056e-19
-6.73762e-19
-6.66177e-19
-6.70116e-19
-6.61743e-19
-6.68004e-19
-6.73039e-19
-6.77063e-19
-6.59112e-19
-6.45514e-19
-6.70216e-19
-6.61132e-19
-6.50765e-19
-6.46167e-19
-6.43864e-19
-6.42339e-19
-6.39066e-19
-6.2521e-19
-6.26675e-19
-6.26045e-19
-6.14048e-19
-6.52095e-19
-6.64467e-19
-6.56638e-19
-6.46916e-19
-6.50738e-19
-6.49508e-19
-6.42658e-19
-6.6071e-19
-6.51977e-19
-6.56849e-19
-6.32592e-19
-6.50439e-19
-6.46956e-19
-6.58677e-19
-6.34993e-19
-6.38224e-19
-6.40694e-19
-6.59516e-19
-6.74816e-19
-6.54609e-19
-6.58283e-19
-6.76368e-19
-6.71224e-19
-6.69589e-19
-6.62157e-19
-6.70767e-19
-6.5144e-19
-6.80269e-19
-6.71245e-19
-6.71718e-19
-6.65513e-19
-6.60361e-19
-6.70427e-19
-6.3976e-19
-6.51943e-19
-6.49134e-19
-6.46487e-19
-6.37454e-19
-6.57725e-19
-6.22829e-19
-6.29297e-19
-6.22737e-19
-6.07342e-19
-6.50514e-19
-6.44613e-19
-6.50184e-19
-6.51754e-19
-6.57201e-19
-6.60529e-19
-6.57911e-19
-6.46322e-19
-6.42926e-19
-6.52847e-19
-6.42946e-19
-6.74075e-19
-6.30792e-19
-6.48621e-19
-6.52168e-19
-6.77747e-19
-6.70744e-19
-6.55022e-19
-6.65931e-19
-6.67282e-19
-6.67799e-19
-6.60328e-19
-6.46785e-19
-6.84541e-19
-6.7758e-19
-6.83375e-19
-6.76242e-19
-6.75658e-19
-6.68847e-19
-6.69009e-19
-6.54374e-19
-6.51279e-19
-6.58335e-19
-6.48646e-19
-6.53807e-19
-6.33407e-19
-6.38311e-19
-6.29053e-19
-6.32245e-19
-6.28261e-19
-6.08244e-19
-6.62258e-19
-6.51013e-19
-6.5898e-19
-6.59144e-19
-6.55893e-19
-6.53085e-19
-6.50354e-19
-6.32044e-19
-6.53964e-19
-6.79939e-19
-6.78621e-19
-6.35038e-19
-6.42949e-19
-6.56622e-19
-6.85433e-19
-6.89463e-19
-6.54047e-19
-6.76231e-19
-6.65152e-19
-6.66846e-19
-6.59658e-19
-6.49834e-19
-6.65357e-19
-6.75809e-19
-6.73041e-19
-6.76245e-19
-6.81095e-19
-6.6365e-19
-6.81132e-19
-6.51633e-19
-6.50923e-19
-6.68489e-19
-6.39265e-19
-6.38461e-19
-6.34883e-19
-6.37651e-19
-6.32921e-19
-6.31538e-19
-6.49189e-19
-6.21305e-19
-6.51725e-19
-6.51284e-19
-6.52323e-19
-6.29676e-19
-6.53458e-19
-6.5879e-19
-6.5589e-19
-6.50342e-19
-6.55451e-19
-6.56605e-19
-6.93533e-19
-6.66787e-19
-6.4308e-19
-6.63212e-19
-6.65983e-19
-6.686e-19
-6.66554e-19
-6.64986e-19
-6.80392e-19
-6.77495e-19
-6.64561e-19
-6.79512e-19
-6.76252e-19
-6.72252e-19
-6.89514e-19
-6.53498e-19
-6.59113e-19
-6.70801e-19
-6.37079e-19
-6.31664e-19
-6.39403e-19
-6.45802e-19
-6.38759e-19
-6.34666e-19
-6.22771e-19
-6.13866e-19
-6.52397e-19
-6.4713e-19
-6.40181e-19
-6.49221e-19
-6.5609e-19
-6.53359e-19
-6.6765e-19
-6.62903e-19
-6.52357e-19
-6.55184e-19
-6.66996e-19
-6.65257e-19
-6.60519e-19
-6.55841e-19
-6.55227e-19
-6.78905e-19
-6.77643e-19
-6.83973e-19
-6.71818e-19
-6.7806e-19
-6.69817e-19
-6.57619e-19
-6.55278e-19
-6.59015e-19
-6.3773e-19
-6.41282e-19
-6.41623e-19
-6.53771e-19
-6.36168e-19
-6.27656e-19
-6.11671e-19
-6.07345e-19
-6.52105e-19
-6.42374e-19
-6.59146e-19
-6.52113e-19
-6.72122e-19
-6.79317e-19
-6.51623e-19
-6.3873e-19
-6.65245e-19
-6.50133e-19
-6.48652e-19
-6.70688e-19
-6.55646e-19
-6.84481e-19
-6.94731e-19
-6.86066e-19
-6.78598e-19
-6.86733e-19
-6.73159e-19
-6.62728e-19
-6.58304e-19
-6.50886e-19
-6.4641e-19
-6.5144e-19
-6.45865e-19
-6.36497e-19
-6.28293e-19
-6.25839e-19
-6.14199e-19
-6.13155e-19
-6.61284e-19
-6.79424e-19
-6.41062e-19
-6.31404e-19
-6.67652e-19
-6.62594e-19
-6.62309e-19
-6.88502e-19
-6.88038e-19
-6.96887e-19
-6.78757e-19
-6.75312e-19
-6.63077e-19
-6.69891e-19
-6.69493e-19
-6.51613e-19
-6.77308e-19
-6.56756e-19
-6.37972e-19
-6.54215e-19
-6.31126e-19
-6.34515e-19
-6.2308e-19
-6.23766e-19
-6.11853e-19
-6.15148e-19
-6.61927e-19
-6.63821e-19
-6.94296e-19
-6.81934e-19
-7.14302e-19
-6.71318e-19
-6.96961e-19
-6.75673e-19
-6.69503e-19
-6.57971e-19
-6.55787e-19
-6.76562e-19
-6.5569e-19
-6.51817e-19
-6.5287e-19
-6.34479e-19
-6.2707e-19
-6.21723e-19
-6.24401e-19
-6.0671e-19
-6.19135e-19
-6.84226e-19
-6.97753e-19
-6.70189e-19
-7.08102e-19
-6.78182e-19
-6.75708e-19
-6.74115e-19
-6.6925e-19
-6.72239e-19
-6.54932e-19
-6.61402e-19
-6.52084e-19
-6.3841e-19
-6.30899e-19
-6.24757e-19
-6.23305e-19
-6.13318e-19
-6.16772e-19
-6.84258e-19
-7.06955e-19
-6.9183e-19
-6.69979e-19
-6.73637e-19
-6.71665e-19
-6.71611e-19
-6.58134e-19
-6.50511e-19
-6.4072e-19
-6.33031e-19
-6.29009e-19
-6.29224e-19
-6.15465e-19
-6.17304e-19
-6.11635e-19
-7.24939e-19
-7.40336e-19
-6.91747e-19
-6.81407e-19
-6.71202e-19
-6.67989e-19
-6.68033e-19
-6.59992e-19
-6.53922e-19
-6.46277e-19
-6.38047e-19
-6.1527e-19
-6.27576e-19
-6.05338e-19
-6.2315e-19
-6.11715e-19
-6.21657e-19
-7.52907e-19
-6.86718e-19
-6.84518e-19
-6.80773e-19
-6.63543e-19
-6.69019e-19
-6.64327e-19
-6.54618e-19
-6.40897e-19
-6.37398e-19
-6.31402e-19
-6.34829e-19
-6.21536e-19
-6.22707e-19
-6.11489e-19
-6.80081e-19
-6.70811e-19
-6.60687e-19
-6.69435e-19
-6.7193e-19
-6.4973e-19
-6.26335e-19
-6.49399e-19
-6.42559e-19
-6.25972e-19
-6.34468e-19
-6.07082e-19
-6.11361e-19
-6.52525e-19
-6.20751e-19
-6.45375e-19
-6.31041e-19
-6.32463e-19
-6.41862e-19
-6.12699e-19
-6.15137e-19
-6.30638e-19
-6.27272e-19
-6.21821e-19
-6.26959e-19
-6.12583e-19
-5.9741e-19
-6.04642e-19
-6.07978e-19
-6.31037e-19
-6.06555e-19
-6.06831e-19
-6.01142e-19
-5.82286e-19
-6.27902e-19
-6.14105e-19
-5.93444e-19
-6.51892e-19
-6.26157e-19
-6.34923e-19
-5.96653e-19
-6.42695e-19
-6.29616e-19
-6.35225e-19
-6.05523e-19
-6.45158e-19
-6.06852e-19
-6.22452e-19
-6.54898e-19
-6.35965e-19
-6.29876e-19
-6.29322e-19
-6.27301e-19
-6.30698e-19
-6.0421e-19
-6.14423e-19
-5.7934e-19
-6.07867e-19
-5.66506e-19
-6.19025e-19
-6.09668e-19
-6.03865e-19
-6.15675e-19
-6.34184e-19
-6.07092e-19
-5.81517e-19
-5.7884e-19
-6.08328e-19
-6.12815e-19
-6.16172e-19
-6.20264e-19
-6.26241e-19
-6.50789e-19
-6.52726e-19
-6.27929e-19
-6.29106e-19
-6.29676e-19
-6.1959e-19
-6.02767e-19
-6.20197e-19
-6.02176e-19
-6.33366e-19
-6.10581e-19
-5.7634e-19
-5.62059e-19
-5.72101e-19
-6.15222e-19
-6.3139e-19
-6.13318e-19
-6.28183e-19
-6.16812e-19
-6.12851e-19
-6.11236e-19
-6.06056e-19
-6.06588e-19
-6.15579e-19
-6.08922e-19
-5.91021e-19
-6.15017e-19
-6.15301e-19
-6.12053e-19
-5.9538e-19
-6.28046e-19
-6.45461e-19
-6.33855e-19
-6.26831e-19
-6.26527e-19
-6.32371e-19
-6.41722e-19
-6.57698e-19
-5.99166e-19
-6.21866e-19
-6.22025e-19
-5.93589e-19
-5.76198e-19
-5.94606e-19
-6.01506e-19
-6.12258e-19
-6.23961e-19
-6.11012e-19
-6.3419e-19
-6.15002e-19
-6.09634e-19
-6.12768e-19
-6.07885e-19
-5.82545e-19
-5.88396e-19
-5.88835e-19
-5.8872e-19
-5.94168e-19
-6.17007e-19
-6.03962e-19
-6.19538e-19
-6.27643e-19
-6.26319e-19
-6.27883e-19
-6.55396e-19
-6.38306e-19
-5.95053e-19
-6.18972e-19
-6.243e-19
-5.98404e-19
-5.82805e-19
-5.75459e-19
-5.98632e-19
-6.00437e-19
-5.80452e-19
-5.81397e-19
-6.07513e-19
-6.05738e-19
-6.13404e-19
-6.10522e-19
-5.88688e-19
-5.87402e-19
-6.09987e-19
-6.13714e-19
-6.23512e-19
-6.47068e-19
-6.26535e-19
-6.14504e-19
-6.08518e-19
-6.19017e-19
-5.97126e-19
-5.84124e-19
-6.09718e-19
-6.31362e-19
-5.65438e-19
-5.65389e-19
-5.91714e-19
-5.9e-19
-5.72504e-19
-5.92734e-19
-6.1648e-19
-6.01844e-19
-5.98462e-19
-5.99553e-19
-5.83698e-19
-5.83893e-19
-6.09297e-19
-6.16279e-19
-6.31625e-19
-6.20739e-19
-6.18253e-19
-6.02386e-19
-6.39172e-19
-6.33661e-19
-6.22424e-19
-6.29386e-19
-6.49249e-19
-6.28551e-19
-6.26835e-19
-6.45141e-19
-6.34023e-19
-6.29694e-19
-5.68392e-19
-5.65702e-19
-5.86364e-19
-5.88547e-19
-5.9029e-19
-5.92855e-19
-5.82473e-19
-5.9828e-19
-6.0691e-19
-6.10756e-19
-6.05411e-19
-6.05596e-19
-6.09345e-19
-6.18833e-19
-6.37088e-19
-6.44105e-19
-6.20155e-19
-6.12686e-19
-6.04766e-19
-6.16674e-19
-6.18632e-19
-6.2361e-19
-6.28226e-19
-6.27294e-19
-6.33826e-19
-6.3976e-19
-6.33842e-19
-6.04977e-19
-5.83311e-19
-6.04351e-19
-5.89845e-19
-5.7057e-19
-5.89817e-19
-5.94181e-19
-5.90257e-19
-6.04516e-19
-6.15941e-19
-6.26336e-19
-6.09064e-19
-6.07923e-19
-5.96313e-19
-6.27488e-19
-6.01885e-19
-6.30581e-19
-6.00494e-19
-6.21394e-19
-6.1227e-19
-5.99675e-19
-6.01392e-19
-6.01156e-19
-6.00521e-19
-6.22848e-19
-6.52319e-19
-6.62715e-19
-6.52767e-19
-6.10757e-19
-5.6483e-19
-5.88622e-19
-5.87132e-19
-5.64825e-19
-5.87704e-19
-5.92574e-19
-5.80787e-19
-6.20402e-19
-6.40856e-19
-6.04355e-19
-5.86269e-19
-6.051e-19
-6.08768e-19
-6.15072e-19
-6.07529e-19
-6.14804e-19
-6.12625e-19
-6.36744e-19
-6.02526e-19
-6.18025e-19
-6.36913e-19
-6.23172e-19
-6.05814e-19
-6.10577e-19
-6.32682e-19
-6.5834e-19
-6.34527e-19
-6.35361e-19
-5.51354e-19
-5.85105e-19
-5.87279e-19
-5.55588e-19
-5.86145e-19
-5.95688e-19
-5.99683e-19
-6.04526e-19
-6.07946e-19
-5.93167e-19
-6.02982e-19
-6.12199e-19
-6.11517e-19
-6.13136e-19
-5.93664e-19
-6.09082e-19
-6.03946e-19
-6.21404e-19
-6.13169e-19
-6.26115e-19
-6.2881e-19
-6.27702e-19
-6.39819e-19
-6.43851e-19
-6.33442e-19
-6.3192e-19
-6.15755e-19
-6.45975e-19
-5.84138e-19
-6.02966e-19
-6.05454e-19
-5.87087e-19
-5.91754e-19
-5.98943e-19
-6.17012e-19
-6.13549e-19
-6.08337e-19
-6.37995e-19
-6.29622e-19
-6.30041e-19
-6.1656e-19
-6.27436e-19
-6.02744e-19
-6.18126e-19
-6.37327e-19
-6.19644e-19
-6.04941e-19
-6.29705e-19
-6.24554e-19
-6.03085e-19
-6.09387e-19
-6.13116e-19
-6.32314e-19
-6.32098e-19
-6.26819e-19
-6.19946e-19
-6.00216e-19
-5.88898e-19
-5.84596e-19
-5.85151e-19
-5.95175e-19
-6.085e-19
-5.99913e-19
-5.83579e-19
-5.98923e-19
-6.22034e-19
-6.13201e-19
-6.27746e-19
-6.17103e-19
-6.16845e-19
-6.43505e-19
-6.37954e-19
-6.3901e-19
-6.17792e-19
-6.21064e-19
-6.49247e-19
-6.27287e-19
-6.11846e-19
-6.20967e-19
-6.19898e-19
-6.29169e-19
-6.33236e-19
-6.25548e-19
-6.32261e-19
-5.97356e-19
-5.85061e-19
-5.65528e-19
-5.67025e-19
-6.05937e-19
-5.99261e-19
-5.97894e-19
-5.94076e-19
-5.82494e-19
-5.75763e-19
-5.97186e-19
-6.11803e-19
-6.23913e-19
-5.98116e-19
-6.21406e-19
-6.24962e-19
-6.16363e-19
-6.15445e-19
-6.03038e-19
-6.08228e-19
-6.4742e-19
-6.41579e-19
-6.23628e-19
-6.09849e-19
-6.14906e-19
-6.2888e-19
-6.18435e-19
-6.38887e-19
-5.86877e-19
-5.95253e-19
-5.84196e-19
-5.7109e-19
-6.04925e-19
-6.1e-19
-6.07566e-19
-6.139e-19
-5.98573e-19
-5.9512e-19
-5.90993e-19
-6.08224e-19
-6.13845e-19
-6.08229e-19
-6.36735e-19
-6.36742e-19
-6.03312e-19
-6.14045e-19
-6.16755e-19
-6.01887e-19
-6.54844e-19
-6.20307e-19
-5.99419e-19
-6.24113e-19
-6.28637e-19
-6.37076e-19
-6.37636e-19
-6.5244e-19
-6.027e-19
-6.00635e-19
-6.11259e-19
-6.06418e-19
-6.20259e-19
-5.98854e-19
-6.42336e-19
-6.35135e-19
-6.17342e-19
-6.10064e-19
-6.22203e-19
-6.02016e-19
-6.32114e-19
-6.38518e-19
-6.20062e-19
-6.25485e-19
-6.36459e-19
-6.55231e-19
-6.4714e-19
-6.28129e-19
-6.35315e-19
-6.04462e-19
-6.1874e-19
-6.23213e-19
-6.25839e-19
-6.16841e-19
-6.33121e-19
-6.4811e-19
-6.13605e-19
-6.33921e-19
-6.24913e-19
-6.40609e-19
-6.20807e-19
-6.22549e-19
-6.277e-19
-6.37427e-19
-6.18136e-19
-6.22381e-19
-6.39595e-19
-5.4032e-19
-5.40018e-19
-5.45862e-19
-5.69824e-19
-5.5446e-19
-5.5209e-19
-5.37179e-19
-5.36348e-19
-5.51579e-19
-5.55166e-19
-5.55887e-19
-5.57667e-19
-5.70447e-19
-5.56187e-19
-5.51024e-19
-5.61242e-19
-5.62827e-19
-5.58781e-19
-5.59244e-19
-5.4975e-19
-5.46863e-19
-5.42533e-19
-5.47556e-19
-5.66167e-19
-5.67345e-19
-5.65859e-19
-5.65961e-19
-5.65895e-19
-5.67641e-19
-5.77263e-19
-5.49717e-19
-5.48907e-19
-5.37951e-19
-5.4775e-19
-5.5444e-19
-5.50327e-19
-5.49373e-19
-5.49017e-19
-5.37884e-19
-5.53716e-19
-5.43123e-19
-5.45871e-19
-5.51571e-19
-5.47732e-19
-5.39397e-19
-5.44263e-19
-5.72927e-19
-5.69025e-19
-5.63463e-19
-5.62238e-19
-5.5615e-19
-5.44895e-19
-5.57674e-19
-5.59133e-19
-5.58343e-19
-5.57537e-19
-5.57714e-19
-5.5444e-19
-5.58966e-19
-5.71987e-19
-5.56444e-19
-5.49883e-19
-5.47673e-19
-5.33565e-19
-5.44034e-19
-5.56898e-19
-5.51365e-19
-5.36291e-19
-5.37896e-19
-5.97846e-19
-5.91134e-19
-5.70811e-19
-5.66389e-19
-5.69464e-19
-5.74804e-19
-5.77533e-19
-5.65051e-19
-5.53716e-19
-5.40596e-19
-5.55885e-19
-5.70747e-19
-5.6114e-19
-5.66962e-19
-5.54149e-19
-5.48611e-19
-5.44176e-19
-5.33267e-19
-5.39699e-19
-5.44839e-19
-5.41721e-19
-5.41558e-19
-5.41632e-19
-5.70349e-19
-5.68979e-19
-5.66265e-19
-5.64431e-19
-5.69992e-19
-5.88211e-19
-5.88877e-19
-5.82392e-19
-5.61922e-19
-5.46678e-19
-5.68874e-19
-5.77064e-19
-5.64726e-19
-5.70122e-19
-5.543e-19
-5.39188e-19
-5.53046e-19
-5.637e-19
-5.48017e-19
-5.47027e-19
-5.45488e-19
-5.44161e-19
-5.37357e-19
-5.88042e-19
-5.91867e-19
-6.17347e-19
-6.11522e-19
-5.80839e-19
-5.90776e-19
-5.92043e-19
-5.84625e-19
-5.84633e-19
-5.86544e-19
-5.94852e-19
-5.85351e-19
-5.82638e-19
-5.92492e-19
-5.84364e-19
-5.89774e-19
-5.77792e-19
-5.75292e-19
-5.79916e-19
-5.84905e-19
-5.58855e-19
-5.7276e-19
-5.82287e-19
-5.57958e-19
-5.66325e-19
-5.74118e-19
-5.52022e-19
-5.55811e-19
-5.57648e-19
-5.56038e-19
-5.5476e-19
-5.50149e-19
-5.36501e-19
-5.46168e-19
-5.50294e-19
-5.48288e-19
-5.47567e-19
-5.42533e-19
-5.30354e-19
-5.3408e-19
-5.26057e-19
-5.36193e-19
-5.40031e-19
-5.84702e-19
-5.73066e-19
-6.16518e-19
-6.17527e-19
-5.94616e-19
-6.06252e-19
-6.08911e-19
-5.93767e-19
-5.86135e-19
-5.87175e-19
-5.87814e-19
-5.79811e-19
-5.72602e-19
-5.90695e-19
-5.83423e-19
-5.80733e-19
-5.74285e-19
-5.74148e-19
-5.78356e-19
-5.56084e-19
-5.45937e-19
-5.66182e-19
-5.83001e-19
-5.70776e-19
-5.65911e-19
-5.63644e-19
-5.5799e-19
-5.65792e-19
-5.7021e-19
-5.64421e-19
-5.62023e-19
-5.63391e-19
-5.73189e-19
-5.5953e-19
-5.53857e-19
-5.48406e-19
-5.39608e-19
-5.61595e-19
-5.54059e-19
-5.46285e-19
-5.43931e-19
-5.45464e-19
-5.55096e-19
-5.91758e-19
-5.78776e-19
-6.12611e-19
-6.01916e-19
-5.92477e-19
-5.75524e-19
-5.88672e-19
-5.99429e-19
-5.74452e-19
-5.88056e-19
-5.97545e-19
-5.7335e-19
-5.77727e-19
-5.74211e-19
-5.89061e-19
-6.01783e-19
-5.54772e-19
-5.58891e-19
-5.93722e-19
-5.98455e-19
-5.87939e-19
-5.7234e-19
-5.73105e-19
-5.79476e-19
-5.5574e-19
-5.67612e-19
-5.8186e-19
-5.64895e-19
-5.48955e-19
-5.54155e-19
-5.46884e-19
-5.54911e-19
-5.62086e-19
-5.7161e-19
-5.57042e-19
-5.55897e-19
-5.68353e-19
-5.7241e-19
-5.62007e-19
-5.31481e-19
-5.24878e-19
-5.3813e-19
-5.42953e-19
-6.04829e-19
-5.94559e-19
-5.85599e-19
-5.91316e-19
-5.93115e-19
-6.24195e-19
-6.18108e-19
-5.9869e-19
-6.13496e-19
-6.12475e-19
-5.85545e-19
-5.71269e-19
-5.73188e-19
-5.8105e-19
-5.87922e-19
-5.83125e-19
-5.59985e-19
-5.81938e-19
-5.87219e-19
-5.98786e-19
-5.85457e-19
-5.76085e-19
-5.76607e-19
-5.93072e-19
-5.79827e-19
-5.80706e-19
-5.68041e-19
-5.65989e-19
-5.60683e-19
-5.48446e-19
-5.59004e-19
-5.61554e-19
-5.60647e-19
-5.63359e-19
-5.52709e-19
-5.6704e-19
-5.51152e-19
-5.67672e-19
-5.59601e-19
-5.53263e-19
-5.51065e-19
-5.50228e-19
-5.49302e-19
-5.48169e-19
-5.47335e-19
-5.47807e-19
-5.48213e-19
-5.47415e-19
-6.05939e-19
-5.77829e-19
-6.145e-19
-5.76302e-19
-5.75917e-19
-6.25681e-19
-6.18189e-19
-5.74107e-19
-5.94017e-19
-5.95524e-19
-5.7372e-19
-5.85874e-19
-5.86941e-19
-5.73894e-19
-5.92552e-19
-6.02817e-19
-5.8919e-19
-5.95291e-19
-5.77421e-19
-5.77199e-19
-5.5906e-19
-5.69569e-19
-5.68666e-19
-5.99158e-19
-5.82182e-19
-5.74659e-19
-5.72322e-19
-5.719e-19
-5.70472e-19
-5.72372e-19
-5.86534e-19
-5.85725e-19
-5.66345e-19
-5.60614e-19
-5.62894e-19
-5.76906e-19
-5.73685e-19
-5.50197e-19
-5.53545e-19
-5.5529e-19
-5.54608e-19
-5.51939e-19
-5.47009e-19
-5.5067e-19
-5.50592e-19
-5.50394e-19
-5.48897e-19
-5.49799e-19
-6.36626e-19
-5.97842e-19
-6.04128e-19
-5.99596e-19
-5.97278e-19
-6.19447e-19
-5.99281e-19