/*--------------------------------*- C++ -*----------------------------------*\
  =========                 |
  \\      /  F ield         | OpenFOAM: The Open Source CFD Toolbox
   \\    /   O peration     | Website:  https://openfoam.org
    \\  /    A nd           | Version:  7
     \\/     M anipulation  |
\*---------------------------------------------------------------------------*/
FoamFile
{
    version     2.0;
    format      ascii;
    class       volScalarField;
    location    "216000";
    object      k;
}
// * * * * * * * * * * * * * * * * * * * * * * * * * * * * * * * * * * * * * //

dimensions      [0 2 -2 0 0 0 0];

internalField   nonuniform List<scalar> 
4850
(
6.48668e-07
6.43698e-07
6.5825e-07
6.53234e-07
6.48389e-07
6.67925e-07
6.6287e-07
6.57983e-07
6.53257e-07
6.487e-07
6.7768e-07
6.72593e-07
6.6767e-07
6.62905e-07
6.58308e-07
6.53885e-07
6.87504e-07
6.8239e-07
6.77438e-07
6.72641e-07
6.6801e-07
6.63551e-07
6.59273e-07
6.97384e-07
6.92251e-07
6.87275e-07
6.82452e-07
6.77793e-07
6.73304e-07
6.68994e-07
6.6487e-07
6.6094e-07
7.07312e-07
7.02163e-07
6.97169e-07
6.92327e-07
6.87644e-07
6.83131e-07
6.78795e-07
6.74644e-07
6.70685e-07
6.66926e-07
7.17275e-07
7.12118e-07
7.07111e-07
7.02253e-07
6.97554e-07
6.93021e-07
6.88663e-07
6.8449e-07
6.80508e-07
6.76724e-07
6.73146e-07
6.6978e-07
6.6663e-07
6.63704e-07
7.27266e-07
7.22104e-07
7.1709e-07
7.12222e-07
7.0751e-07
7.02963e-07
6.98589e-07
6.94398e-07
6.90397e-07
6.86593e-07
6.82995e-07
6.79608e-07
6.76438e-07
6.73491e-07
6.70773e-07
6.68287e-07
6.66038e-07
6.64031e-07
7.37275e-07
7.32113e-07
7.27097e-07
7.22223e-07
7.17503e-07
7.12946e-07
7.08561e-07
7.04357e-07
7.00341e-07
6.96522e-07
6.92907e-07
6.89503e-07
6.86317e-07
6.83353e-07
6.80618e-07
6.78117e-07
6.75853e-07
6.73831e-07
6.72055e-07
6.70526e-07
7.47294e-07
7.42137e-07
7.37122e-07
7.32247e-07
7.27524e-07
7.22962e-07
7.18569e-07
7.14356e-07
7.1033e-07
7.06499e-07
7.02872e-07
6.99455e-07
6.96255e-07
6.93278e-07
6.9053e-07
6.88015e-07
6.85739e-07
6.83706e-07
6.81919e-07
6.80381e-07
6.79096e-07
6.78065e-07
6.7729e-07
6.76773e-07
7.57314e-07
7.52166e-07
7.47157e-07
7.42286e-07
7.37563e-07
7.33e-07
7.28604e-07
7.24385e-07
7.20353e-07
7.16515e-07
7.12879e-07
7.09452e-07
7.06242e-07
7.03255e-07
7.00497e-07
6.97972e-07
6.95686e-07
6.93644e-07
6.91848e-07
6.90303e-07
6.89011e-07
6.87975e-07
6.87196e-07
6.86676e-07
6.86415e-07
6.86415e-07
6.86676e-07
6.87196e-07
6.87975e-07
7.67329e-07
7.62194e-07
7.57194e-07
7.5233e-07
7.47613e-07
7.43051e-07
7.38656e-07
7.34437e-07
7.30401e-07
7.26559e-07
7.22918e-07
7.19486e-07
7.16269e-07
7.13274e-07
7.10508e-07
7.07976e-07
7.05683e-07
7.03633e-07
7.01831e-07
7.0028e-07
6.98983e-07
6.97942e-07
6.9716e-07
6.96638e-07
6.96376e-07
6.96376e-07
6.96638e-07
6.9716e-07
6.97942e-07
6.98983e-07
7.0028e-07
7.01831e-07
7.77332e-07
7.72213e-07
7.67226e-07
7.62373e-07
7.57664e-07
7.53109e-07
7.48718e-07
7.44501e-07
7.40466e-07
7.36623e-07
7.3298e-07
7.29545e-07
7.26324e-07
7.23325e-07
7.20554e-07
7.18017e-07
7.15719e-07
7.13664e-07
7.11857e-07
7.10302e-07
7.09001e-07
7.07957e-07
7.07172e-07
7.06648e-07
7.06386e-07
7.06386e-07
7.06648e-07
7.07172e-07
7.07957e-07
7.09001e-07
7.10302e-07
7.11857e-07
7.13664e-07
7.15719e-07
7.87315e-07
7.82215e-07
7.77246e-07
7.72407e-07
7.6771e-07
7.63164e-07
7.58781e-07
7.54569e-07
7.50539e-07
7.46698e-07
7.43056e-07
7.39621e-07
7.36399e-07
7.33398e-07
7.30625e-07
7.28085e-07
7.25784e-07
7.23726e-07
7.21916e-07
7.20358e-07
7.19055e-07
7.18009e-07
7.17222e-07
7.16697e-07
7.16435e-07
7.16435e-07
7.16697e-07
7.17222e-07
7.18009e-07
7.19055e-07
7.20358e-07
7.21917e-07
7.23726e-07
7.25784e-07
7.97272e-07
7.92196e-07
7.87246e-07
7.82425e-07
7.77743e-07
7.7321e-07
7.68838e-07
7.64635e-07
7.60612e-07
7.56777e-07
7.53139e-07
7.49706e-07
7.46486e-07
7.43486e-07
7.40712e-07
7.38172e-07
7.3587e-07
7.33811e-07
7.31999e-07
7.3044e-07
7.29135e-07
7.28088e-07
7.27301e-07
7.26775e-07
7.26512e-07
7.26512e-07
7.26775e-07
7.27301e-07
7.28088e-07
7.29135e-07
7.3044e-07
7.32e-07
7.33811e-07
7.3587e-07
8.07198e-07
8.02147e-07
7.97221e-07
7.9242e-07
7.87756e-07
7.8324e-07
7.78881e-07
7.7469e-07
7.70677e-07
7.6685e-07
7.63219e-07
7.59791e-07
7.56575e-07
7.53579e-07
7.50808e-07
7.48268e-07
7.45967e-07
7.43909e-07
7.42098e-07
7.40538e-07
7.39233e-07
7.38185e-07
7.37398e-07
7.36872e-07
7.36609e-07
7.36609e-07
7.36872e-07
7.37398e-07
7.38185e-07
7.39233e-07
7.40538e-07
7.42098e-07
7.43909e-07
7.45967e-07
8.17086e-07
8.12065e-07
8.07164e-07
8.02387e-07
7.97744e-07
7.93247e-07
7.88904e-07
7.84728e-07
7.80727e-07
7.76911e-07
7.73289e-07
7.6987e-07
7.6666e-07
7.63669e-07
7.60902e-07
7.58367e-07
7.56068e-07
7.54012e-07
7.52202e-07
7.50644e-07
7.49339e-07
7.48292e-07
7.47505e-07
7.4698e-07
7.46716e-07
7.46716e-07
7.4698e-07
7.47505e-07
7.48293e-07
7.49339e-07
7.50644e-07
7.52202e-07
7.54012e-07
7.56068e-07
8.26933e-07
8.21943e-07
8.17071e-07
8.1232e-07
8.07701e-07
8.03224e-07
7.98902e-07
7.94742e-07
7.90757e-07
7.86954e-07
7.83344e-07
7.79934e-07
7.76734e-07
7.7375e-07
7.70989e-07
7.68459e-07
7.66165e-07
7.64112e-07
7.62305e-07
7.60749e-07
7.59447e-07
7.58401e-07
7.57615e-07
7.5709e-07
7.56827e-07
7.56827e-07
7.5709e-07
7.57615e-07
7.58401e-07
7.59447e-07
7.60749e-07
7.62306e-07
7.64112e-07
7.66165e-07
8.36732e-07
8.31776e-07
8.26935e-07
8.22213e-07
8.1762e-07
8.13167e-07
8.08866e-07
8.04727e-07
8.00759e-07
7.96972e-07
7.93376e-07
7.89978e-07
7.86789e-07
7.83814e-07
7.81062e-07
7.78538e-07
7.7625e-07
7.74202e-07
7.724e-07
7.70847e-07
7.69547e-07
7.68504e-07
7.67719e-07
7.67195e-07
7.66933e-07
7.66933e-07
7.67195e-07
7.6772e-07
7.68504e-07
7.69548e-07
7.70847e-07
7.724e-07
7.74203e-07
7.7625e-07
8.4648e-07
8.4156e-07
8.36752e-07
8.32061e-07
8.27496e-07
8.2307e-07
8.18793e-07
8.14676e-07
8.10727e-07
8.06959e-07
8.03378e-07
7.99995e-07
7.96818e-07
7.93855e-07
7.91113e-07
7.88598e-07
7.86317e-07
7.84276e-07
7.82479e-07
7.8093e-07
7.79634e-07
7.78594e-07
7.77811e-07
7.77288e-07
7.77027e-07
7.77027e-07
7.77289e-07
7.77811e-07
7.78594e-07
7.79634e-07
7.8093e-07
7.82479e-07
7.84276e-07
7.86317e-07
8.56172e-07
8.5129e-07
8.46518e-07
8.41859e-07
8.37326e-07
8.32928e-07
8.28677e-07
8.24584e-07
8.20657e-07
8.16908e-07
8.13346e-07
8.09979e-07
8.06817e-07
8.03867e-07
8.01136e-07
7.98631e-07
7.96359e-07
7.94326e-07
7.92535e-07
7.90992e-07
7.89701e-07
7.88664e-07
7.87884e-07
7.87363e-07
7.87102e-07
7.87102e-07
7.87363e-07
7.87884e-07
7.88664e-07
7.89701e-07
7.90992e-07
7.92535e-07
7.94326e-07
7.9636e-07
8.65803e-07
8.60961e-07
8.56227e-07
8.51604e-07
8.47103e-07
8.42736e-07
8.38513e-07
8.34446e-07
8.30543e-07
8.26816e-07
8.23274e-07
8.19925e-07
8.16779e-07
8.13843e-07
8.11125e-07
8.08632e-07
8.06371e-07
8.04346e-07
8.02563e-07
8.01026e-07
7.9974e-07
7.98707e-07
7.9793e-07
7.97411e-07
7.97151e-07
7.97151e-07
7.97411e-07
7.9793e-07
7.98707e-07
7.9974e-07
8.01026e-07
8.02563e-07
8.04346e-07
8.06371e-07
8.08633e-07
8.75371e-07
8.70571e-07
8.65876e-07
8.6129e-07
8.56824e-07
8.5249e-07
8.48297e-07
8.44257e-07
8.4038e-07
8.36677e-07
8.33156e-07
8.29827e-07
8.26699e-07
8.23779e-07
8.21076e-07
8.18596e-07
8.16345e-07
8.1433e-07
8.12556e-07
8.11027e-07
8.09746e-07
8.08718e-07
8.07945e-07
8.07428e-07
8.07169e-07
8.07169e-07
8.07428e-07
8.07945e-07
8.08718e-07
8.09746e-07
8.11027e-07
8.12556e-07
8.14331e-07
8.16346e-07
8.18596e-07
8.84871e-07
8.80115e-07
8.75461e-07
8.70914e-07
8.66485e-07
8.62184e-07
8.58024e-07
8.54013e-07
8.50164e-07
8.46486e-07
8.42988e-07
8.3968e-07
8.36571e-07
8.33669e-07
8.30982e-07
8.28516e-07
8.26278e-07
8.24274e-07
8.22509e-07
8.20988e-07
8.19714e-07
8.18691e-07
8.17922e-07
8.17408e-07
8.17151e-07
8.17151e-07
8.17408e-07
8.17922e-07
8.18691e-07
8.19714e-07
8.20988e-07
8.22509e-07
8.24274e-07
8.26278e-07
8.28516e-07
8.943e-07
8.8959e-07
8.84979e-07
8.80473e-07
8.76081e-07
8.71817e-07
8.67689e-07
8.6371e-07
8.5989e-07
8.56238e-07
8.52765e-07
8.4948e-07
8.46392e-07
8.43509e-07
8.40839e-07
8.38388e-07
8.36164e-07
8.34172e-07
8.32417e-07
8.30905e-07
8.29638e-07
8.28621e-07
8.27856e-07
8.27345e-07
8.27089e-07
8.27089e-07
8.27345e-07
8.27856e-07
8.28622e-07
8.29639e-07
8.30905e-07
8.32418e-07
8.34172e-07
8.36164e-07
9.03656e-07
8.98992e-07
8.94426e-07
8.89961e-07
8.8561e-07
8.81382e-07
8.7729e-07
8.73344e-07
8.69554e-07
8.65931e-07
8.62484e-07
8.59223e-07
8.56157e-07
8.53294e-07
8.50642e-07
8.48207e-07
8.45998e-07
8.44019e-07
8.42275e-07
8.40773e-07
8.39514e-07
8.38503e-07
8.37743e-07
8.37235e-07
8.3698e-07
8.3698e-07
8.37235e-07
8.37743e-07
8.38503e-07
8.39514e-07
8.40773e-07
8.42276e-07
8.44019e-07
8.45998e-07
9.12935e-07
9.08319e-07
9.03799e-07
8.99378e-07
8.95067e-07
8.90879e-07
8.86823e-07
8.8291e-07
8.79152e-07
8.75559e-07
8.72139e-07
8.68904e-07
8.65861e-07
8.63019e-07
8.60386e-07
8.5797e-07
8.55776e-07
8.5381e-07
8.52079e-07
8.50586e-07
8.49336e-07
8.48332e-07
8.47577e-07
8.47072e-07
8.46819e-07
8.46819e-07
8.47072e-07
8.47577e-07
8.48332e-07
8.49336e-07
8.50586e-07
8.52079e-07
8.53811e-07
8.55776e-07
9.22134e-07
9.17568e-07
9.13094e-07
9.08718e-07
9.0445e-07
9.00302e-07
8.96283e-07
8.92407e-07
8.88682e-07
8.85119e-07
8.81728e-07
8.78519e-07
8.75501e-07
8.72682e-07
8.70069e-07
8.67671e-07
8.65493e-07
8.63542e-07
8.61824e-07
8.60342e-07
8.59101e-07
8.58104e-07
8.57354e-07
8.56853e-07
8.56602e-07
8.56602e-07
8.56853e-07
8.57354e-07
8.58104e-07
8.59101e-07
8.60342e-07
8.61824e-07
8.63543e-07
8.65493e-07
9.31251e-07
9.26736e-07
9.2231e-07
9.1798e-07
9.13756e-07
9.09649e-07
9.05669e-07
9.01829e-07
8.98138e-07
8.94608e-07
8.91247e-07
8.88066e-07
8.85073e-07
8.82277e-07
8.79686e-07
8.77307e-07
8.75146e-07
8.73211e-07
8.71506e-07
8.70035e-07
8.68803e-07
8.67814e-07
8.6707e-07
8.66572e-07
8.66323e-07
8.66323e-07
8.66572e-07
8.6707e-07
8.67814e-07
8.68804e-07
8.70035e-07
8.71506e-07
8.73211e-07
9.40283e-07
9.3582e-07
9.31444e-07
9.27161e-07
9.22981e-07
9.18917e-07
9.14977e-07
9.11175e-07
9.0752e-07
9.04022e-07
9.00692e-07
8.97539e-07
8.94573e-07
8.91801e-07
8.89233e-07
8.86874e-07
8.84732e-07
8.82812e-07
8.81121e-07
8.79662e-07
8.78441e-07
8.77459e-07
8.76721e-07
8.76227e-07
8.7598e-07
8.7598e-07
8.76227e-07
8.76721e-07
8.77459e-07
8.78441e-07
8.79662e-07
8.81121e-07
8.82812e-07
9.49228e-07
9.44818e-07
9.40493e-07
9.36258e-07
9.32124e-07
9.28103e-07
9.24205e-07
9.20441e-07
9.16822e-07
9.13359e-07
9.10061e-07
9.06938e-07
9.03999e-07
9.01252e-07
8.98707e-07
8.96369e-07
8.94245e-07
8.92342e-07
8.90666e-07
8.8922e-07
8.88008e-07
8.87035e-07
8.86303e-07
8.85814e-07
8.85569e-07
8.85569e-07
8.85814e-07
8.86303e-07
8.87035e-07
8.88009e-07
8.8922e-07
8.90666e-07
9.58085e-07
9.53728e-07
9.49454e-07
9.45269e-07
9.41182e-07
9.37205e-07
9.33349e-07
9.29625e-07
9.26044e-07
9.22615e-07
9.1935e-07
9.16258e-07
9.13347e-07
9.10627e-07
9.08105e-07
9.05788e-07
9.03684e-07
9.01799e-07
9.00137e-07
8.98704e-07
8.97504e-07
8.96539e-07
8.95813e-07
8.95328e-07
8.95086e-07
8.95086e-07
8.95329e-07
8.95814e-07
8.96539e-07
8.97504e-07
8.98704e-07
9.00137e-07
9.6685e-07
9.62548e-07
9.58327e-07
9.54191e-07
9.50152e-07
9.46221e-07
9.42408e-07
9.38724e-07
9.35181e-07
9.31789e-07
9.28557e-07
9.25496e-07
9.22614e-07
9.19921e-07
9.17423e-07
9.15129e-07
9.13046e-07
9.11178e-07
9.09532e-07
9.08112e-07
9.06923e-07
9.05967e-07
9.05248e-07
9.04768e-07
9.04527e-07
9.04527e-07
9.04768e-07
9.05249e-07
9.05968e-07
9.06923e-07
9.08112e-07
9.09532e-07
9.75523e-07
9.71276e-07
9.67108e-07
9.63023e-07
9.59033e-07
9.55147e-07
9.51378e-07
9.47736e-07
9.44232e-07
9.40877e-07
9.3768e-07
9.34651e-07
9.31799e-07
9.29133e-07
9.26661e-07
9.2439e-07
9.22326e-07
9.20477e-07
9.18847e-07
9.17441e-07
9.16264e-07
9.15317e-07
9.14605e-07
9.14129e-07
9.13891e-07
9.13891e-07
9.14129e-07
9.14605e-07
9.15317e-07
9.16264e-07
9.17442e-07
9.18847e-07
9.84101e-07
9.7991e-07
9.75796e-07
9.71763e-07
9.67822e-07
9.63983e-07
9.60259e-07
9.56659e-07
9.53195e-07
9.49877e-07
9.46715e-07
9.43719e-07
9.40897e-07
9.3826e-07
9.35813e-07
9.33566e-07
9.31524e-07
9.29694e-07
9.2808e-07
9.26689e-07
9.25523e-07
9.24586e-07
9.23881e-07
9.2341e-07
9.23174e-07
9.23174e-07
9.2341e-07
9.23881e-07
9.24586e-07
9.25523e-07
9.26689e-07
9.2808e-07
9.92582e-07
9.88449e-07
9.84389e-07
9.80408e-07
9.76517e-07
9.72726e-07
9.69047e-07
9.65491e-07
9.62067e-07
9.58787e-07
9.55661e-07
9.52698e-07
9.49908e-07
9.47299e-07
9.44879e-07
9.42656e-07
9.40636e-07
9.38825e-07
9.37228e-07
9.35851e-07
9.34697e-07
9.3377e-07
9.33073e-07
9.32607e-07
9.32373e-07
9.32373e-07
9.32607e-07
9.33073e-07
9.33771e-07
9.34698e-07
9.35851e-07
9.37228e-07
1.00097e-06
9.9689e-07
9.92885e-07
9.88957e-07
9.85117e-07
9.81375e-07
9.77742e-07
9.74229e-07
9.70846e-07
9.67605e-07
9.64515e-07
9.61587e-07
9.58828e-07
9.56249e-07
9.53856e-07
9.51657e-07
9.49659e-07
9.47868e-07
9.46289e-07
9.44927e-07
9.43786e-07
9.42868e-07
9.42178e-07
9.41717e-07
9.41486e-07
9.41486e-07
9.41717e-07
9.42178e-07
9.42869e-07
9.43786e-07
9.44927e-07
9.46289e-07
1.00925e-06
1.00523e-06
1.00128e-06
9.97409e-07
9.9362e-07
9.89927e-07
9.8634e-07
9.82871e-07
9.79531e-07
9.76329e-07
9.73276e-07
9.70383e-07
9.67656e-07
9.65107e-07
9.62741e-07
9.60568e-07
9.58593e-07
9.56822e-07
9.5526e-07
9.53913e-07
9.52785e-07
9.51878e-07
9.51195e-07
9.50739e-07
9.50511e-07
9.50511e-07
9.50739e-07
9.51195e-07
9.51878e-07
9.52785e-07
9.53914e-07
9.5526e-07
1.01743e-06
1.01347e-06
1.00958e-06
1.00576e-06
1.00202e-06
9.98381e-07
9.94842e-07
9.91417e-07
9.88119e-07
9.84957e-07
9.81942e-07
9.79083e-07
9.7639e-07
9.73871e-07
9.71534e-07
9.69386e-07
9.67433e-07
9.65683e-07
9.6414e-07
9.62808e-07
9.61693e-07
9.60796e-07
9.60122e-07
9.59671e-07
9.59445e-07
9.59445e-07
9.59671e-07
9.60122e-07
9.60796e-07
9.61693e-07
9.62809e-07
9.6414e-07
1.02552e-06
1.02162e-06
1.01778e-06
1.01401e-06
1.01033e-06
1.00674e-06
1.00324e-06
9.99865e-07
9.96609e-07
9.93488e-07
9.90511e-07
9.87688e-07
9.85028e-07
9.8254e-07
9.80231e-07
9.78109e-07
9.7618e-07
9.7445e-07
9.72925e-07
9.7161e-07
9.70507e-07
9.69622e-07
9.68955e-07
9.68509e-07
9.68286e-07
9.68286e-07
9.68509e-07
9.68955e-07
9.69622e-07
9.70508e-07
9.7161e-07
9.72926e-07
1.03349e-06
1.02965e-06
1.02587e-06
1.02216e-06
1.01853e-06
1.01499e-06
1.01155e-06
1.00821e-06
1.005e-06
1.00192e-06
9.98981e-07
9.96194e-07
9.93568e-07
9.91111e-07
9.88831e-07
9.86735e-07
9.8483e-07
9.83122e-07
9.81616e-07
9.80316e-07
9.79227e-07
9.78352e-07
9.77693e-07
9.77253e-07
9.77033e-07
9.77033e-07
9.77253e-07
9.77693e-07
9.78352e-07
9.79227e-07
9.80316e-07
9.81616e-07
1.04137e-06
1.03759e-06
1.03387e-06
1.03021e-06
1.02663e-06
1.02314e-06
1.01974e-06
1.01646e-06
1.01329e-06
1.01025e-06
1.00735e-06
1.0046e-06
1.00201e-06
9.99583e-07
9.97332e-07
9.95263e-07
9.93382e-07
9.91696e-07
9.90208e-07
9.88925e-07
9.8785e-07
9.86986e-07
9.86335e-07
9.85901e-07
9.85683e-07
9.85683e-07
9.85901e-07
9.86335e-07
9.86986e-07
9.8785e-07
9.88925e-07
9.90209e-07
1.04914e-06
1.04542e-06
1.04175e-06
1.03815e-06
1.03463e-06
1.03119e-06
1.02784e-06
1.0246e-06
1.02148e-06
1.01848e-06
1.01562e-06
1.01291e-06
1.01035e-06
1.00795e-06
1.00573e-06
1.00369e-06
1.00183e-06
1.00017e-06
9.98702e-07
9.97435e-07
9.96374e-07
9.95521e-07
9.94879e-07
9.9445e-07
9.94235e-07
9.94235e-07
9.9445e-07
9.94879e-07
9.95521e-07
9.96374e-07
9.97436e-07
9.98702e-07
1.0568e-06
1.05314e-06
1.04953e-06
1.04599e-06
1.04252e-06
1.03913e-06
1.03583e-06
1.03264e-06
1.02956e-06
1.0266e-06
1.02378e-06
1.02111e-06
1.01858e-06
1.01622e-06
1.01403e-06
1.01202e-06
1.01019e-06
1.00854e-06
1.00709e-06
1.00585e-06
1.0048e-06
1.00396e-06
1.00332e-06
1.0029e-06
1.00269e-06
1.00269e-06
1.0029e-06
1.00332e-06
1.00396e-06
1.0048e-06
1.00585e-06
1.0071e-06
1.06435e-06
1.06075e-06
1.05721e-06
1.05372e-06
1.0503e-06
1.04697e-06
1.04372e-06
1.04057e-06
1.03754e-06
1.03462e-06
1.03184e-06
1.02921e-06
1.02672e-06
1.02439e-06
1.02223e-06
1.02024e-06
1.01843e-06
1.01681e-06
1.01539e-06
1.01415e-06
1.01312e-06
1.01229e-06
1.01166e-06
1.01125e-06
1.01104e-06
1.01104e-06
1.01125e-06
1.01166e-06
1.01229e-06
1.01312e-06
1.01415e-06
1.01539e-06
1.0718e-06
1.06826e-06
1.06477e-06
1.06134e-06
1.05798e-06
1.05469e-06
1.0515e-06
1.0484e-06
1.04541e-06
1.04254e-06
1.0398e-06
1.0372e-06
1.03475e-06
1.03245e-06
1.03032e-06
1.02836e-06
1.02658e-06
1.02498e-06
1.02357e-06
1.02236e-06
1.02134e-06
1.02052e-06
1.0199e-06
1.01949e-06
1.01928e-06
1.01928e-06
1.01949e-06
1.0199e-06
1.02052e-06
1.02134e-06
1.02236e-06
1.07913e-06
1.07566e-06
1.07223e-06
1.06886e-06
1.06555e-06
1.06232e-06
1.05917e-06
1.05612e-06
1.05317e-06
1.05034e-06
1.04765e-06
1.04508e-06
1.04267e-06
1.04041e-06
1.03831e-06
1.03637e-06
1.03462e-06
1.03304e-06
1.03166e-06
1.03046e-06
1.02945e-06
1.02864e-06
1.02804e-06
1.02763e-06
1.02743e-06
1.02743e-06
1.02763e-06
1.02804e-06
1.02864e-06
1.02945e-06
1.03046e-06
1.08636e-06
1.08294e-06
1.07957e-06
1.07626e-06
1.07301e-06
1.06983e-06
1.06673e-06
1.06373e-06
1.06083e-06
1.05804e-06
1.05539e-06
1.05286e-06
1.05048e-06
1.04825e-06
1.04618e-06
1.04428e-06
1.04255e-06
1.041e-06
1.03963e-06
1.03845e-06
1.03746e-06
1.03666e-06
1.03607e-06
1.03566e-06
1.03546e-06
1.03546e-06
1.03566e-06
1.03607e-06
1.03666e-06
1.03746e-06
1.09347e-06
1.09012e-06
1.08681e-06
1.08355e-06
1.08035e-06
1.07723e-06
1.07418e-06
1.07123e-06
1.06837e-06
1.06563e-06
1.06302e-06
1.06053e-06
1.05819e-06
1.05599e-06
1.05395e-06
1.05208e-06
1.05038e-06
1.04885e-06
1.0475e-06
1.04634e-06
1.04536e-06
1.04458e-06
1.04399e-06
1.04359e-06
1.04339e-06
1.04339e-06
1.04359e-06
1.04399e-06
1.04458e-06
1.04536e-06
1.10047e-06
1.09718e-06
1.09393e-06
1.09073e-06
1.08759e-06
1.08452e-06
1.08152e-06
1.07861e-06
1.07581e-06
1.07311e-06
1.07053e-06
1.06809e-06
1.06578e-06
1.06362e-06
1.06162e-06
1.05977e-06
1.05809e-06
1.05659e-06
1.05526e-06
1.05411e-06
1.05315e-06
1.05238e-06
1.0518e-06
1.05141e-06
1.05122e-06
1.05122e-06
1.05141e-06
1.0518e-06
1.05238e-06
1.05315e-06
1.10736e-06
1.10413e-06
1.10094e-06
1.0978e-06
1.09471e-06
1.09169e-06
1.08875e-06
1.08589e-06
1.08313e-06
1.08048e-06
1.07794e-06
1.07554e-06
1.07327e-06
1.07114e-06
1.06917e-06
1.06735e-06
1.0657e-06
1.06422e-06
1.06291e-06
1.06178e-06
1.06083e-06
1.06008e-06
1.0595e-06
1.05912e-06
1.05893e-06
1.05893e-06
1.05912e-06
1.0595e-06
1.06008e-06
1.06084e-06
1.11414e-06
1.11097e-06
1.10784e-06
1.10475e-06
1.10172e-06
1.09876e-06
1.09586e-06
1.09305e-06
1.09034e-06
1.08773e-06
1.08524e-06
1.08287e-06
1.08064e-06
1.07855e-06
1.0766e-06
1.07482e-06
1.07319e-06
1.07173e-06
1.07045e-06
1.06934e-06
1.06841e-06
1.06766e-06
1.0671e-06
1.06672e-06
1.06653e-06
1.06653e-06
1.06672e-06
1.0671e-06
1.06766e-06
1.06841e-06
1.1208e-06
1.11769e-06
1.11462e-06
1.11159e-06
1.10862e-06
1.10571e-06
1.10286e-06
1.1001e-06
1.09743e-06
1.09487e-06
1.09242e-06
1.09009e-06
1.0879e-06
1.08584e-06
1.08393e-06
1.08217e-06
1.08057e-06
1.07914e-06
1.07787e-06
1.07678e-06
1.07587e-06
1.07513e-06
1.07458e-06
1.07421e-06
1.07402e-06
1.07402e-06
1.07421e-06
1.07458e-06
1.07513e-06
1.07587e-06
1.12734e-06
1.12429e-06
1.12129e-06
1.11832e-06
1.1154e-06
1.11254e-06
1.10975e-06
1.10704e-06
1.10442e-06
1.1019e-06
1.09949e-06
1.0972e-06
1.09504e-06
1.09302e-06
1.09114e-06
1.08941e-06
1.08784e-06
1.08643e-06
1.08519e-06
1.08411e-06
1.08321e-06
1.08249e-06
1.08194e-06
1.08158e-06
1.0814e-06
1.0814e-06
1.08158e-06
1.08194e-06
1.08249e-06
1.08321e-06
1.13376e-06
1.13078e-06
1.12783e-06
1.12493e-06
1.12206e-06
1.11926e-06
1.11652e-06
1.11385e-06
1.11128e-06
1.10881e-06
1.10644e-06
1.10419e-06
1.10207e-06
1.10008e-06
1.09824e-06
1.09654e-06
1.09499e-06
1.09361e-06
1.09239e-06
1.09133e-06
1.09045e-06
1.08973e-06
1.0892e-06
1.08884e-06
1.08866e-06
1.08866e-06
1.08884e-06
1.0892e-06
1.08973e-06
1.09045e-06
1.14007e-06
1.13715e-06
1.13427e-06
1.13142e-06
1.12861e-06
1.12586e-06
1.12317e-06
1.12056e-06
1.11803e-06
1.1156e-06
1.11328e-06
1.11107e-06
1.10899e-06
1.10703e-06
1.10522e-06
1.10355e-06
1.10203e-06
1.10067e-06
1.09947e-06
1.09843e-06
1.09756e-06
1.09686e-06
1.09634e-06
1.09599e-06
1.09581e-06
1.09581e-06
1.09599e-06
1.09634e-06
1.09686e-06
1.09756e-06
1.14626e-06
1.1434e-06
1.14058e-06
1.13779e-06
1.13504e-06
1.13234e-06
1.1297e-06
1.12714e-06
1.12466e-06
1.12228e-06
1.12e-06
1.11783e-06
1.11578e-06
1.11386e-06
1.11208e-06
1.11045e-06
1.10895e-06
1.10762e-06
1.10644e-06
1.10542e-06
1.10456e-06
1.10388e-06
1.10336e-06
1.10302e-06
1.10284e-06
1.10284e-06
1.10302e-06
1.10336e-06
1.10388e-06
1.10456e-06
1.15233e-06
1.14954e-06
1.14677e-06
1.14404e-06
1.14135e-06
1.1387e-06
1.13612e-06
1.1336e-06
1.13117e-06
1.12883e-06
1.1266e-06
1.12447e-06
1.12246e-06
1.12058e-06
1.11883e-06
1.11722e-06
1.11576e-06
1.11445e-06
1.11329e-06
1.11229e-06
1.11145e-06
1.11077e-06
1.11027e-06
1.10993e-06
1.10976e-06
1.10976e-06
1.10993e-06
1.11027e-06
1.11077e-06
1.11145e-06
1.15828e-06
1.15555e-06
1.15285e-06
1.15017e-06
1.14754e-06
1.14495e-06
1.14241e-06
1.13995e-06
1.13757e-06
1.13527e-06
1.13308e-06
1.13099e-06
1.12902e-06
1.12717e-06
1.12546e-06
1.12388e-06
1.12244e-06
1.12116e-06
1.12002e-06
1.11904e-06
1.11821e-06
1.11755e-06
1.11705e-06
1.11672e-06
1.11656e-06
1.11656e-06
1.11672e-06
1.11705e-06
1.11755e-06
1.11821e-06
1.16411e-06
1.16144e-06
1.1588e-06
1.15618e-06
1.1536e-06
1.15107e-06
1.14859e-06
1.14617e-06
1.14384e-06
1.14159e-06
1.13944e-06
1.13739e-06
1.13546e-06
1.13365e-06
1.13197e-06
1.13042e-06
1.12901e-06
1.12775e-06
1.12663e-06
1.12567e-06
1.12486e-06
1.12421e-06
1.12372e-06
1.1234e-06
1.12323e-06
1.12323e-06
1.1234e-06
1.12372e-06
1.12421e-06
1.12486e-06
1.16981e-06
1.16721e-06
1.16463e-06
1.16207e-06
1.15955e-06
1.15707e-06
1.15464e-06
1.15228e-06
1.14999e-06
1.14778e-06
1.14567e-06
1.14367e-06
1.14178e-06
1.14e-06
1.13835e-06
1.13684e-06
1.13545e-06
1.13422e-06
1.13312e-06
1.13218e-06
1.13139e-06
1.13075e-06
1.13027e-06
1.12995e-06
1.12979e-06
1.12979e-06
1.12995e-06
1.13027e-06
1.13075e-06
1.13139e-06
1.17539e-06
1.17285e-06
1.17034e-06
1.16784e-06
1.16537e-06
1.16294e-06
1.16057e-06
1.15825e-06
1.15601e-06
1.15386e-06
1.15179e-06
1.14983e-06
1.14797e-06
1.14623e-06
1.14462e-06
1.14313e-06
1.14178e-06
1.14056e-06
1.13949e-06
1.13857e-06
1.13779e-06
1.13717e-06
1.1367e-06
1.13638e-06
1.13623e-06
1.13623e-06
1.13638e-06
1.1367e-06
1.13717e-06
1.13779e-06
1.18085e-06
1.17837e-06
1.17592e-06
1.17348e-06
1.17107e-06
1.1687e-06
1.16637e-06
1.16411e-06
1.16192e-06
1.1598e-06
1.15778e-06
1.15586e-06
1.15404e-06
1.15234e-06
1.15076e-06
1.1493e-06
1.14798e-06
1.14679e-06
1.14574e-06
1.14483e-06
1.14407e-06
1.14346e-06
1.143e-06
1.1427e-06
1.14254e-06
1.14254e-06
1.1427e-06
1.143e-06
1.14346e-06
1.14407e-06
1.18618e-06
1.18377e-06
1.18137e-06
1.179e-06
1.17664e-06
1.17432e-06
1.17205e-06
1.16984e-06
1.16769e-06
1.16563e-06
1.16365e-06
1.16177e-06
1.15999e-06
1.15833e-06
1.15678e-06
1.15535e-06
1.15405e-06
1.15289e-06
1.15186e-06
1.15097e-06
1.15023e-06
1.14963e-06
1.14918e-06
1.14888e-06
1.14873e-06
1.14873e-06
1.14888e-06
1.14918e-06
1.14963e-06
1.15023e-06
1.19138e-06
1.18904e-06
1.1867e-06
1.18438e-06
1.18209e-06
1.17982e-06
1.1776e-06
1.17544e-06
1.17335e-06
1.17133e-06
1.16939e-06
1.16755e-06
1.16581e-06
1.16418e-06
1.16267e-06
1.16127e-06
1.16e-06
1.15887e-06
1.15786e-06
1.15699e-06
1.15626e-06
1.15568e-06
1.15524e-06
1.15494e-06
1.1548e-06
1.1548e-06
1.15494e-06
1.15524e-06
1.15568e-06
1.15626e-06
1.19646e-06
1.19418e-06
1.19191e-06
1.18964e-06
1.1874e-06
1.1852e-06
1.18303e-06
1.18092e-06
1.17887e-06
1.1769e-06
1.17501e-06
1.17321e-06
1.17151e-06
1.16991e-06
1.16843e-06
1.16707e-06
1.16583e-06
1.16471e-06
1.16373e-06
1.16288e-06
1.16217e-06
1.1616e-06
1.16117e-06
1.16088e-06
1.16074e-06
1.16074e-06
1.16088e-06
1.16117e-06
1.1616e-06
1.16217e-06
1.2014e-06
1.19919e-06
1.19698e-06
1.19478e-06
1.19259e-06
1.19044e-06
1.18833e-06
1.18626e-06
1.18427e-06
1.18234e-06
1.18049e-06
1.17874e-06
1.17708e-06
1.17552e-06
1.17407e-06
1.17274e-06
1.17153e-06
1.17044e-06
1.16948e-06
1.16865e-06
1.16795e-06
1.16739e-06
1.16697e-06
1.16669e-06
1.16655e-06
1.16655e-06
1.16669e-06
1.16697e-06
1.16739e-06
1.16795e-06
1.20622e-06
1.20407e-06
1.20192e-06
1.19978e-06
1.19765e-06
1.19555e-06
1.19349e-06
1.19148e-06
1.18953e-06
1.18765e-06
1.18585e-06
1.18413e-06
1.18251e-06
1.18099e-06
1.17958e-06
1.17828e-06
1.17709e-06
1.17603e-06
1.17509e-06
1.17428e-06
1.1736e-06
1.17306e-06
1.17264e-06
1.17237e-06
1.17223e-06
1.17223e-06
1.17237e-06
1.17264e-06
1.17306e-06
1.1736e-06
1.2109e-06
1.20881e-06
1.20673e-06
1.20464e-06
1.20258e-06
1.20053e-06
1.19853e-06
1.19657e-06
1.19466e-06
1.19283e-06
1.19107e-06
1.1894e-06
1.18782e-06
1.18634e-06
1.18496e-06
1.18369e-06
1.18253e-06
1.18149e-06
1.18058e-06
1.17979e-06
1.17912e-06
1.17859e-06
1.17819e-06
1.17792e-06
1.17778e-06
1.17778e-06
1.17792e-06
1.17819e-06
1.17859e-06
1.17912e-06
1.2114e-06
1.20938e-06
1.20737e-06
1.20538e-06
1.20343e-06
1.20152e-06
1.19967e-06
1.19788e-06
1.19617e-06
1.19453e-06
1.19299e-06
1.19155e-06
1.18451e-06
1.18399e-06
1.1836e-06
1.18334e-06
1.18321e-06
1.18321e-06
1.18334e-06
1.1836e-06
1.18399e-06
1.18451e-06
5.46493e-07
5.45728e-07
5.45155e-07
5.44773e-07
5.44582e-07
5.44582e-07
5.44773e-07
5.45155e-07
5.45728e-07
5.46493e-07
5.54807e-07
5.53811e-07
5.53015e-07
5.52418e-07
5.52021e-07
5.51822e-07
5.51822e-07
5.52021e-07
5.52418e-07
5.53015e-07
5.53811e-07
5.54807e-07
5.56004e-07
5.57401e-07
5.58999e-07
5.60799e-07
5.628e-07
5.65003e-07
5.67408e-07
5.70015e-07
5.72822e-07
5.65147e-07
5.63701e-07
5.62463e-07
5.61431e-07
5.60606e-07
5.59987e-07
5.59575e-07
5.59368e-07
5.59368e-07
5.59575e-07
5.59987e-07
5.60606e-07
5.61431e-07
5.62462e-07
5.63701e-07
5.65147e-07
5.668e-07
5.68659e-07
5.70726e-07
5.72999e-07
5.75478e-07
5.78162e-07
5.8105e-07
5.84141e-07
5.87431e-07
5.9092e-07
5.94605e-07
5.78908e-07
5.76781e-07
5.74866e-07
5.73163e-07
5.71672e-07
5.70394e-07
5.69329e-07
5.68477e-07
5.67838e-07
5.67413e-07
5.672e-07
5.672e-07
5.67412e-07
5.67838e-07
5.68477e-07
5.69329e-07
5.70394e-07
5.71672e-07
5.73163e-07
5.74866e-07
5.76781e-07
5.78908e-07
5.81245e-07
5.83792e-07
5.86547e-07
5.89509e-07
5.92676e-07
5.96044e-07
5.99612e-07
6.03376e-07
6.07332e-07
6.11475e-07
6.15801e-07
5.92331e-07
5.89721e-07
5.87325e-07
5.85143e-07
5.83177e-07
5.81428e-07
5.79896e-07
5.78582e-07
5.77487e-07
5.7661e-07
5.75952e-07
5.75514e-07
5.75294e-07
5.75294e-07
5.75514e-07
5.75952e-07
5.7661e-07
5.77486e-07
5.78582e-07
5.79896e-07
5.81428e-07
5.83177e-07
5.85143e-07
5.87325e-07
5.89721e-07
5.9233e-07
5.95151e-07
5.9818e-07
6.01416e-07
6.04855e-07
6.08495e-07
6.1233e-07
6.16357e-07
6.2057e-07
6.24965e-07
6.29535e-07
6.34274e-07
6.39191e-07
6.07045e-07
6.03955e-07
6.01075e-07
5.98409e-07
5.95959e-07
5.93727e-07
5.91714e-07
5.89922e-07
5.88352e-07
5.87005e-07
5.85882e-07
5.84983e-07
5.84308e-07
5.83858e-07
5.83633e-07
5.83633e-07
5.83858e-07
5.84308e-07
5.84983e-07
5.85882e-07
5.87005e-07
5.88352e-07
5.89922e-07
5.91714e-07
5.93726e-07
5.95959e-07
5.98409e-07
6.01075e-07
6.03954e-07
6.07045e-07
6.10343e-07
6.13846e-07
6.1755e-07
6.21449e-07
6.2554e-07
6.29816e-07
6.34272e-07
6.38902e-07
6.43698e-07
6.48668e-07
6.19441e-07
6.16086e-07
6.1294e-07
6.10007e-07
6.07289e-07
6.0479e-07
6.02513e-07
6.00458e-07
5.98627e-07
5.97023e-07
5.95646e-07
5.94497e-07
5.93577e-07
5.92886e-07
5.92426e-07
5.92196e-07
5.92196e-07
5.92426e-07
5.92886e-07
5.93577e-07
5.94497e-07
5.95646e-07
5.97023e-07
5.98627e-07
6.00457e-07
6.02512e-07
6.0479e-07
6.07289e-07
6.10006e-07
6.12939e-07
6.16085e-07
6.1944e-07
6.23001e-07
6.26762e-07
6.30718e-07
6.34866e-07
6.39198e-07
6.43708e-07
6.48389e-07
6.53234e-07
6.5825e-07
6.32302e-07
6.28691e-07
6.25286e-07
6.2209e-07
6.19109e-07
6.16345e-07
6.13803e-07
6.11483e-07
6.0939e-07
6.07525e-07
6.05889e-07
6.04485e-07
6.03312e-07
6.02374e-07
6.01669e-07
6.01199e-07
6.00964e-07
6.00964e-07
6.01199e-07
6.01669e-07
6.02374e-07
6.03312e-07
6.04484e-07
6.05889e-07
6.07524e-07
6.0939e-07
6.11483e-07
6.13802e-07
6.16345e-07
6.19109e-07
6.2209e-07
6.25285e-07
6.28691e-07
6.32302e-07
6.36114e-07
6.40122e-07
6.44319e-07
6.48699e-07
6.53256e-07
6.57983e-07
6.6287e-07
6.67925e-07
6.45593e-07
6.41736e-07
6.38079e-07
6.34629e-07
6.31389e-07
6.28365e-07
6.2556e-07
6.22978e-07
6.20622e-07
6.18494e-07
6.16597e-07
6.14933e-07
6.13504e-07
6.12311e-07
6.11355e-07
6.10638e-07
6.10159e-07
6.09919e-07
6.09919e-07
6.10159e-07
6.10637e-07
6.11355e-07
6.12311e-07
6.13504e-07
6.14933e-07
6.16597e-07
6.18494e-07
6.20621e-07
6.22978e-07
6.2556e-07
6.28365e-07
6.31389e-07
6.34628e-07
6.38079e-07
6.41735e-07
6.45592e-07
6.49644e-07
6.53885e-07
6.58308e-07
6.62905e-07
6.6767e-07
6.72593e-07
6.7768e-07
6.59273e-07
6.55183e-07
6.51286e-07
6.4759e-07
6.44101e-07
6.40822e-07
6.3776e-07
6.34918e-07
6.32301e-07
6.29912e-07
6.27753e-07
6.25828e-07
6.24139e-07
6.22687e-07
6.21475e-07
6.20504e-07
6.19775e-07
6.19289e-07
6.19045e-07
6.19045e-07
6.19289e-07
6.19775e-07
6.20504e-07
6.21475e-07
6.22687e-07
6.24139e-07
6.25828e-07
6.27753e-07
6.29911e-07
6.32301e-07
6.34918e-07
6.3776e-07
6.40822e-07
6.441e-07
6.4759e-07
6.51286e-07
6.55182e-07
6.59273e-07
6.63551e-07
6.6801e-07
6.72641e-07
6.77438e-07
6.8239e-07
6.87504e-07
6.68994e-07
6.64871e-07
6.60941e-07
6.57211e-07
6.53687e-07
6.50374e-07
6.47279e-07
6.44405e-07
6.41756e-07
6.39337e-07
6.37152e-07
6.35201e-07
6.3349e-07
6.32019e-07
6.3079e-07
6.29805e-07
6.29066e-07
6.28572e-07
6.28325e-07
6.28325e-07
6.28572e-07
6.29065e-07
6.29805e-07
6.3079e-07
6.32018e-07
6.33489e-07
6.35201e-07
6.37151e-07
6.39337e-07
6.41756e-07
6.44404e-07
6.47278e-07
6.50374e-07
6.53686e-07
6.5721e-07
6.6094e-07
6.6487e-07
6.68994e-07
6.73304e-07
6.77793e-07
6.82452e-07
6.87275e-07
6.92251e-07
6.97384e-07
6.83131e-07
6.78795e-07
6.74644e-07
6.70685e-07
6.66926e-07
6.63373e-07
6.60031e-07
6.56907e-07
6.54004e-07
6.51329e-07
6.48885e-07
6.46675e-07
6.44702e-07
6.42971e-07
6.41482e-07
6.40239e-07
6.39242e-07
6.38493e-07
6.37993e-07
6.37743e-07
6.37743e-07
6.37993e-07
6.38493e-07
6.39242e-07
6.40239e-07
6.41482e-07
6.42971e-07
6.44702e-07
6.46674e-07
6.48884e-07
6.51329e-07
6.54004e-07
6.56906e-07
6.60031e-07
6.63372e-07
6.66926e-07
6.70685e-07
6.74643e-07
6.78795e-07
6.83131e-07
6.87644e-07
6.92327e-07
6.97169e-07
7.02163e-07
7.07312e-07
6.97554e-07
6.93021e-07
6.88664e-07
6.8449e-07
6.80508e-07
6.76725e-07
6.73146e-07
6.6978e-07
6.66631e-07
6.63704e-07
6.61006e-07
6.58539e-07
6.56308e-07
6.54317e-07
6.52568e-07
6.51064e-07
6.49807e-07
6.488e-07
6.48043e-07
6.47538e-07