/*--------------------------------*- C++ -*----------------------------------*\
  =========                 |
  \\      /  F ield         | OpenFOAM: The Open Source CFD Toolbox
   \\    /   O peration     | Website:  https://openfoam.org
    \\  /    A nd           | Version:  7
     \\/     M anipulation  |
\*---------------------------------------------------------------------------*/
FoamFile
{
    version     2.0;
    format      ascii;
    class       volScalarField;
    location    "160000";
    object      p;
}
// * * * * * * * * * * * * * * * * * * * * * * * * * * * * * * * * * * * * * //

dimensions      [0 2 -2 0 0 0 0];

internalField   nonuniform List<scalar> 
4838
(
-1.38771e-18
-1.4013e-18
-1.40551e-18
-1.42459e-18
-1.41057e-18
-1.42897e-18
-1.40028e-18
-1.38446e-18
-1.37031e-18
-1.41057e-18
-1.38546e-18
-1.38685e-18
-1.39232e-18
-1.37818e-18
-1.3443e-18
-1.35954e-18
-1.41412e-18
-1.41445e-18
-1.39383e-18
-1.41296e-18
-1.41081e-18
-1.36189e-18
-1.37691e-18
-1.38603e-18
-1.3892e-18
-1.41308e-18
-1.38771e-18
-1.38471e-18
-1.37636e-18
-1.35993e-18
-1.40472e-18
-1.3841e-18
-1.36072e-18
-1.41439e-18
-1.39135e-18
-1.39185e-18
-1.35928e-18
-1.39687e-18
-1.38829e-18
-1.39362e-18
-1.36034e-18
-1.39298e-18
-1.34667e-18
-1.37473e-18
-1.40598e-18
-1.38197e-18
-1.36957e-18
-1.37765e-18
-1.37271e-18
-1.37507e-18
-1.39861e-18
-1.41359e-18
-1.38041e-18
-1.39954e-18
-1.39875e-18
-1.42568e-18
-1.40255e-18
-1.39585e-18
-1.39388e-18
-1.39529e-18
-1.38484e-18
-1.38595e-18
-1.3923e-18
-1.38737e-18
-1.37936e-18
-1.3793e-18
-1.40513e-18
-1.35876e-18
-1.34231e-18
-1.3521e-18
-1.37775e-18
-1.38117e-18
-1.39148e-18
-1.40156e-18
-1.36278e-18
-1.39189e-18
-1.35096e-18
-1.40177e-18
-1.38987e-18
-1.38077e-18
-1.38928e-18
-1.40326e-18
-1.37504e-18
-1.34916e-18
-1.34186e-18
-1.37088e-18
-1.3739e-18
-1.37524e-18
-1.37628e-18
-1.38027e-18
-1.40447e-18
-1.40253e-18
-1.37877e-18
-1.37762e-18
-1.37682e-18
-1.36495e-18
-1.34825e-18
-1.36391e-18
-1.34382e-18
-1.3749e-18
-1.3756e-18
-1.3725e-18
-1.38648e-18
-1.38852e-18
-1.37509e-18
-1.39353e-18
-1.39265e-18
-1.40411e-18
-1.42292e-18
-1.41353e-18
-1.3844e-18
-1.37349e-18
-1.40523e-18
-1.38961e-18
-1.38029e-18
-1.3592e-18
-1.38021e-18
-1.37091e-18
-1.34754e-18
-1.37119e-18
-1.3785e-18
-1.38452e-18
-1.40088e-18
-1.36127e-18
-1.34734e-18
-1.35825e-18
-1.39953e-18
-1.41324e-18
-1.39227e-18
-1.40391e-18
-1.38961e-18
-1.38272e-18
-1.37878e-18
-1.37097e-18
-1.36837e-18
-1.37828e-18
-1.3693e-18
-1.34952e-18
-1.37229e-18
-1.36992e-18
-1.36541e-18
-1.34935e-18
-1.37702e-18
-1.3926e-18
-1.37977e-18
-1.37271e-18
-1.37227e-18
-1.37718e-18
-1.38575e-18
-1.40096e-18
-1.39459e-18
-1.38847e-18
-1.37305e-18
-1.37387e-18
-1.407e-18
-1.37547e-18
-1.38777e-18
-1.39241e-18
-1.38589e-18
-1.36432e-18
-1.3677e-18
-1.40498e-18
-1.39719e-18
-1.40919e-18
-1.38921e-18
-1.37659e-18
-1.3851e-18
-1.37996e-18
-1.35481e-18
-1.38099e-18
-1.38985e-18
-1.38606e-18
-1.38877e-18
-1.4092e-18
-1.4083e-18
-1.37926e-18
-1.36126e-18
-1.3761e-18
-1.37965e-18
-1.38647e-18
-1.39625e-18
-1.38073e-18
-1.40116e-18
-1.37795e-18
-1.37135e-18
-1.37348e-18
-1.36694e-18
-1.33959e-18
-1.34234e-18
-1.34189e-18
-1.33985e-18
-1.34616e-18
-1.36531e-18
-1.3492e-18
-1.36449e-18
-1.37552e-18
-1.37366e-18
-1.37462e-18
-1.40203e-18
-1.38327e-18
-1.39261e-18
-1.37905e-18
-1.41292e-18
-1.39919e-18
-1.4015e-18
-1.39667e-18
-1.3916e-18
-1.38501e-18
-1.35472e-18
-1.37514e-18
-1.38701e-18
-1.39413e-18
-1.38429e-18
-1.36225e-18
-1.38241e-18
-1.36831e-18
-1.40103e-18
-1.38941e-18
-1.38187e-18
-1.38805e-18
-1.4248e-18
-1.40758e-18
-1.38375e-18
-1.40685e-18
-1.4109e-18
-1.38361e-18
-1.36626e-18
-1.35633e-18
-1.37691e-18
-1.37687e-18
-1.35311e-18
-1.35127e-18
-1.37551e-18
-1.36933e-18
-1.37451e-18
-1.37004e-18
-1.3473e-18
-1.34442e-18
-1.36448e-18
-1.36685e-18
-1.37488e-18
-1.39674e-18
-1.37443e-18
-1.36171e-18
-1.35584e-18
-1.36715e-18
-1.34607e-18
-1.33095e-18
-1.3533e-18
-1.37415e-18
-1.39014e-18
-1.39072e-18
-1.39749e-18
-1.39673e-18
-1.41571e-18
-1.4058e-18
-1.39108e-18
-1.39372e-18
-1.38934e-18
-1.37296e-18
-1.38997e-18
-1.39283e-18
-1.37699e-18
-1.33884e-18
-1.37685e-18
-1.38174e-18
-1.38418e-18
-1.38888e-18
-1.40375e-18
-1.38435e-18
-1.39128e-18
-1.38287e-18
-1.35131e-18
-1.35423e-18
-1.37876e-18
-1.37514e-18
-1.35543e-18
-1.37306e-18
-1.39407e-18
-1.37669e-18
-1.37013e-18
-1.36837e-18
-1.34961e-18
-1.34556e-18
-1.36853e-18
-1.37423e-18
-1.39127e-18
-1.37884e-18
-1.37189e-18
-1.35614e-18
-1.38977e-18
-1.38127e-18
-1.37041e-18
-1.37831e-18
-1.39714e-18
-1.37637e-18
-1.37459e-18
-1.39258e-18
-1.37821e-18
-1.37518e-18
-1.37011e-18
-1.38982e-18
-1.38792e-18
-1.37455e-18
-1.39627e-18
-1.41045e-18
-1.37375e-18
-1.38908e-18
-1.40938e-18
-1.39127e-18
-1.39336e-18
-1.39277e-18
-1.36177e-18
-1.34098e-18
-1.38543e-18
-1.39433e-18
-1.38073e-18
-1.38063e-18
-1.38069e-18
-1.38151e-18
-1.40048e-18
-1.39761e-18
-1.35795e-18
-1.35509e-18
-1.37401e-18
-1.37396e-18
-1.37312e-18
-1.37279e-18
-1.35932e-18
-1.37205e-18
-1.37728e-18
-1.37861e-18
-1.37104e-18
-1.36966e-18
-1.37138e-18
-1.3778e-18
-1.39541e-18
-1.40048e-18
-1.37386e-18
-1.36461e-18
-1.35453e-18
-1.36493e-18
-1.36619e-18
-1.37025e-18
-1.3755e-18
-1.37436e-18
-1.38067e-18
-1.38504e-18
-1.37609e-18
-1.35451e-18
-1.39191e-18
-1.3979e-18
-1.40119e-18
-1.40816e-18
-1.38716e-18
-1.37896e-18
-1.38615e-18
-1.37019e-18
-1.37033e-18
-1.37247e-18
-1.39701e-18
-1.40815e-18
-1.37385e-18
-1.381e-18
-1.4087e-18
-1.41781e-18
-1.36771e-18
-1.37452e-18
-1.3585e-18
-1.35275e-18
-1.35734e-18
-1.36307e-18
-1.37507e-18
-1.39604e-18
-1.3786e-18
-1.35664e-18
-1.37286e-18
-1.37386e-18
-1.3663e-18
-1.3775e-18
-1.38408e-18
-1.39308e-18
-1.37385e-18
-1.36924e-18
-1.35636e-18
-1.38472e-18
-1.3601e-18
-1.38619e-18
-1.35329e-18
-1.37194e-18
-1.36145e-18
-1.34782e-18
-1.34833e-18
-1.34991e-18
-1.34781e-18
-1.36919e-18
-1.39936e-18
-1.40738e-18
-1.39618e-18
-1.35931e-18
-1.41985e-18
-1.42536e-18
-1.41357e-18
-1.39641e-18
-1.37646e-18
-1.41275e-18
-1.41645e-18
-1.4088e-18
-1.39459e-18
-1.39927e-18
-1.38628e-18
-1.39245e-18
-1.40718e-18
-1.38994e-18
-1.37154e-18
-1.38573e-18
-1.377e-18
-1.37952e-18
-1.37793e-18
-1.36087e-18
-1.35858e-18
-1.37138e-18
-1.35962e-18
-1.37988e-18
-1.37672e-18
-1.35186e-18
-1.37124e-18
-1.3722e-18
-1.35549e-18
-1.39442e-18
-1.4089e-18
-1.37063e-18
-1.35163e-18
-1.36704e-18
-1.36848e-18
-1.3726e-18
-1.36358e-18
-1.36991e-18
-1.36373e-18
-1.38526e-18
-1.35136e-18
-1.36666e-18
-1.38622e-18
-1.37092e-18
-1.35188e-18
-1.3546e-18
-1.3774e-18
-1.40192e-18
-1.377e-18
-1.37509e-18
-1.4074e-18
-1.43019e-18
-1.38067e-18
-1.38823e-18
-1.39136e-18
-1.40505e-18
-1.37496e-18
-1.39213e-18
-1.39446e-18
-1.36957e-18
-1.34788e-18
-1.3669e-18
-1.39223e-18
-1.38845e-18
-1.37985e-18
-1.38678e-18
-1.38905e-18
-1.38228e-18
-1.38727e-18
-1.39858e-18
-1.37936e-18
-1.38152e-18
-1.35899e-18
-1.37976e-18
-1.37847e-18
-1.34441e-18
-1.37054e-18
-1.37609e-18
-1.3746e-18
-1.37908e-18
-1.3773e-18
-1.35809e-18
-1.36599e-18
-1.3738e-18
-1.37086e-18
-1.36998e-18
-1.3469e-18
-1.36126e-18
-1.35242e-18
-1.37099e-18
-1.36198e-18
-1.3747e-18
-1.37681e-18
-1.37421e-18
-1.38523e-18
-1.38862e-18
-1.37746e-18
-1.37466e-18
-1.35711e-18
-1.38509e-18
-1.39542e-18
-1.39619e-18
-1.38897e-18
-1.39207e-18
-1.39218e-18
-1.37704e-18
-1.35308e-18
-1.38452e-18
-1.38908e-18
-1.38193e-18
-1.36524e-18
-1.38325e-18
-1.39019e-18
-1.3896e-18
-1.36853e-18
-1.40334e-18
-1.42473e-18
-1.38327e-18
-1.37984e-18
-1.38313e-18
-1.36637e-18
-1.39612e-18
-1.38418e-18
-1.39818e-18
-1.3973e-18
-1.37423e-18
-1.37663e-18
-1.38133e-18
-1.39287e-18
-1.38746e-18
-1.37836e-18
-1.40469e-18
-1.39512e-18
-1.39205e-18
-1.37578e-18
-1.38437e-18
-1.35603e-18
-1.36948e-18
-1.38478e-18
-1.36692e-18
-1.35337e-18
-1.37832e-18
-1.37178e-18
-1.34835e-18
-1.35453e-18
-1.35865e-18
-1.37562e-18
-1.37426e-18
-1.36843e-18
-1.36145e-18
-1.40809e-18
-1.37867e-18
-1.385e-18
-1.39028e-18
-1.41143e-18
-1.42577e-18
-1.40582e-18
-1.38669e-18
-1.38926e-18
-1.39101e-18
-1.38568e-18
-1.39459e-18
-1.40986e-18
-1.40759e-18
-1.38235e-18
-1.37787e-18
-1.41789e-18
-1.36784e-18
-1.36764e-18
-1.37836e-18
-1.36198e-18
-1.38136e-18
-1.3986e-18
-1.38341e-18
-1.37811e-18
-1.37375e-18
-1.38071e-18
-1.39096e-18
-1.37803e-18
-1.35824e-18
-1.36931e-18
-1.38892e-18
-1.37787e-18
-1.38954e-18
-1.37562e-18
-1.36991e-18
-1.39572e-18
-1.38984e-18
-1.38763e-18
-1.36706e-18
-1.37008e-18
-1.39888e-18
-1.37365e-18
-1.35476e-18
-1.36579e-18
-1.36286e-18
-1.37115e-18
-1.3748e-18
-1.36704e-18
-1.37029e-18
-1.37991e-18
-1.40329e-18
-1.39242e-18
-1.36355e-18
-1.39386e-18
-1.39344e-18
-1.39212e-18
-1.36981e-18
-1.3828e-18
-1.38693e-18
-1.38908e-18
-1.40619e-18
-1.41382e-18
-1.39357e-18
-1.38298e-18
-1.38268e-18
-1.39251e-18
-1.36805e-18
-1.3954e-18
-1.38363e-18
-1.37634e-18
-1.36847e-18
-1.3971e-18
-1.38166e-18
-1.35867e-18
-1.35573e-18
-1.39211e-18
-1.38273e-18
-1.37759e-18
-1.36991e-18
-1.35261e-18
-1.34187e-18
-1.3616e-18
-1.37378e-18
-1.38304e-18
-1.34893e-18
-1.37239e-18
-1.37452e-18
-1.36349e-18
-1.36261e-18
-1.35207e-18
-1.35642e-18
-1.39271e-18
-1.38333e-18
-1.36557e-18
-1.34987e-18
-1.35586e-18
-1.36956e-18
-1.35705e-18
-1.37808e-18
-1.39519e-18
-1.3954e-18
-1.40681e-18
-1.40403e-18
-1.40494e-18
-1.37414e-18
-1.38338e-18
-1.36792e-18
-1.37257e-18
-1.3736e-18
-1.38145e-18
-1.39083e-18
-1.40455e-18
-1.38348e-18
-1.36999e-18
-1.38569e-18
-1.39954e-18
-1.37895e-18
-1.38779e-18
-1.38576e-18
-1.38598e-18
-1.39303e-18
-1.38769e-18
-1.39415e-18
-1.37765e-18
-1.35863e-18
-1.39187e-18
-1.39518e-18
-1.38892e-18
-1.39211e-18
-1.37184e-18
-1.3635e-18
-1.35562e-18
-1.3707e-18
-1.37244e-18
-1.36067e-18
-1.38724e-18
-1.38415e-18
-1.34731e-18
-1.35835e-18
-1.36324e-18
-1.35015e-18
-1.39966e-18
-1.36294e-18
-1.33966e-18
-1.36472e-18
-1.36958e-18
-1.37777e-18
-1.3763e-18
-1.38809e-18
-1.4069e-18
-1.39136e-18
-1.38183e-18
-1.39438e-18
-1.38949e-18
-1.37982e-18
-1.36777e-18
-1.38648e-18
-1.39846e-18
-1.3867e-18
-1.37496e-18
-1.38492e-18
-1.36663e-18
-1.37033e-18
-1.38299e-18
-1.39053e-18
-1.37809e-18
-1.36675e-18
-1.38707e-18
-1.38149e-18
-1.3818e-18
-1.37995e-18
-1.38046e-18
-1.37951e-18
-1.38867e-18
-1.37421e-18
-1.38297e-18
-1.39056e-18
-1.36283e-18
-1.38854e-18
-1.37462e-18
-1.3708e-18
-1.38406e-18
-1.37005e-18
-1.3796e-18
-1.35062e-18
-1.39767e-18
-1.38459e-18
-1.36007e-18
-1.35046e-18
-1.367e-18
-1.34921e-18
-1.37606e-18
-1.38226e-18
-1.36154e-18
-1.36682e-18
-1.37776e-18
-1.39702e-18
-1.38606e-18
-1.36555e-18
-1.39434e-18
-1.39226e-18
-1.41306e-18
-1.39516e-18
-1.36936e-18
-1.35477e-18
-1.35425e-18
-1.383e-18
-1.37491e-18
-1.38945e-18
-1.39816e-18
-1.38239e-18
-1.35289e-18
-1.36974e-18
-1.39237e-18
-1.40352e-18
-1.39725e-18
-1.3714e-18
-1.39706e-18
-1.37005e-18
-1.37908e-18
-1.37017e-18
-1.38304e-18
-1.36383e-18
-1.36473e-18
-1.38046e-18
-1.3965e-18
-1.37541e-18
-1.37251e-18
-1.38177e-18
-1.36733e-18
-1.36007e-18
-1.36962e-18
-1.35063e-18
-1.36493e-18
-1.34998e-18
-1.37076e-18
-1.36265e-18
-1.3583e-18
-1.37736e-18
-1.38363e-18
-1.34888e-18
-1.3605e-18
-1.3652e-18
-1.36756e-18
-1.3587e-18
-1.37433e-18
-1.38839e-18
-1.35236e-18
-1.3713e-18
-1.38874e-18
-1.38757e-18
-1.38388e-18
-1.4023e-18
-1.37076e-18
-1.37951e-18
-1.38792e-18
-1.36849e-18
-1.37297e-18
-1.38849e-18
-1.37876e-18
-1.37466e-18
-1.36506e-18
-1.38169e-18
-1.40813e-18
-1.3921e-18
-1.3874e-18
-1.38273e-18
-1.39285e-18
-1.38223e-18
-1.38572e-18
-1.39535e-18
-1.40725e-18
-1.37631e-18
-1.37159e-18
-1.39073e-18
-1.40379e-18
-1.36369e-18
-1.38448e-18
-1.39556e-18
-1.36068e-18
-1.37874e-18
-1.36533e-18
-1.34837e-18
-1.3684e-18
-1.37597e-18
-1.36026e-18
-1.34461e-18
-1.33947e-18
-1.36473e-18
-1.36911e-18
-1.35598e-18
-1.34527e-18
-1.34898e-18
-1.36702e-18
-1.38331e-18
-1.36168e-18
-1.36187e-18
-1.3668e-18
-1.37672e-18
-1.39607e-18
-1.38854e-18
-1.37783e-18
-1.39803e-18
-1.38717e-18
-1.39148e-18
-1.41423e-18
-1.36288e-18
-1.39716e-18
-1.39295e-18
-1.40204e-18
-1.39811e-18
-1.36875e-18
-1.37614e-18
-1.40819e-18
-1.38958e-18
-1.37236e-18
-1.38945e-18
-1.4034e-18
-1.38278e-18
-1.39314e-18
-1.39009e-18
-1.38651e-18
-1.37126e-18
-1.36636e-18
-1.36662e-18
-1.37983e-18
-1.37142e-18
-1.37193e-18
-1.3659e-18
-1.36563e-18
-1.37104e-18
-1.35896e-18
-1.366e-18
-1.37782e-18
-1.36121e-18
-1.34491e-18
-1.35588e-18
-1.3469e-18
-1.3576e-18
-1.36107e-18
-1.35324e-18
-1.38871e-18
-1.35274e-18
-1.36472e-18
-1.36278e-18
-1.37322e-18
-1.36039e-18
-1.36124e-18
-1.37571e-18
-1.40353e-18
-1.38871e-18
-1.38167e-18
-1.37359e-18
-1.38484e-18
-1.38734e-18
-1.396e-18
-1.37975e-18
-1.37795e-18
-1.39389e-18
-1.40557e-18
-1.39347e-18
-1.37233e-18
-1.38815e-18
-1.40386e-18
-1.39055e-18
-1.38126e-18
-1.40087e-18
-1.4066e-18
-1.36945e-18
-1.37432e-18
-1.39344e-18
-1.37963e-18
-1.38927e-18
-1.38694e-18
-1.381e-18
-1.37474e-18
-1.37932e-18
-1.40628e-18
-1.37415e-18
-1.36792e-18
-1.36274e-18
-1.34131e-18
-1.37773e-18
-1.3656e-18
-1.34645e-18
-1.352e-18
-1.3621e-18
-1.37127e-18
-1.34761e-18
-1.36508e-18
-1.3782e-18
-1.37778e-18
-1.36449e-18
-1.36644e-18
-1.37314e-18
-1.39661e-18
-1.36997e-18
-1.37011e-18
-1.38323e-18
-1.38562e-18
-1.38609e-18
-1.38586e-18
-1.38386e-18
-1.37519e-18
-1.37803e-18
-1.36029e-18
-1.39854e-18
-1.3957e-18
-1.40308e-18
-1.38966e-18
-1.41332e-18
-1.39423e-18
-1.38916e-18
-1.37341e-18
-1.39069e-18
-1.40517e-18
-1.3774e-18
-1.38097e-18
-1.3799e-18
-1.37017e-18
-1.38855e-18
-1.38523e-18
-1.41078e-18
-1.3805e-18
-1.38519e-18
-1.38773e-18
-1.38234e-18
-1.36886e-18
-1.34991e-18
-1.35837e-18
-1.37452e-18
-1.36002e-18
-1.3534e-18
-1.34171e-18
-1.3571e-18
-1.35031e-18
-1.36004e-18
-1.37319e-18
-1.39184e-18
-1.39077e-18
-1.37011e-18
-1.374e-18
-1.37997e-18
-1.3806e-18
-1.37349e-18
-1.38438e-18
-1.37887e-18
-1.3908e-18
-1.38879e-18
-1.3898e-18
-1.36316e-18
-1.3642e-18
-1.36221e-18
-1.38873e-18
-1.39317e-18
-1.39268e-18
-1.38707e-18
-1.40301e-18
-1.39142e-18
-1.384e-18
-1.38297e-18
-1.38578e-18
-1.40543e-18
-1.37213e-18
-1.3823e-18
-1.36275e-18
-1.37928e-18
-1.40436e-18
-1.3869e-18
-1.40973e-18
-1.37921e-18
-1.38399e-18
-1.38795e-18
-1.3713e-18
-1.37937e-18
-1.34919e-18
-1.36001e-18
-1.34875e-18
-1.35663e-18
-1.35844e-18
-1.34304e-18
-1.36081e-18
-1.35506e-18
-1.37166e-18
-1.36576e-18
-1.37469e-18
-1.37793e-18
-1.37835e-18
-1.37955e-18
-1.37375e-18
-1.36826e-18
-1.3739e-18
-1.38641e-18
-1.3973e-18
-1.3938e-18
-1.3862e-18
-1.38487e-18
-1.38054e-18
-1.38858e-18
-1.39649e-18
-1.38869e-18
-1.3797e-18
-1.40683e-18
-1.39101e-18
-1.37594e-18
-1.3872e-18
-1.37506e-18
-1.39964e-18
-1.3833e-18
-1.38739e-18
-1.40597e-18
-1.38508e-18
-1.39188e-18
-1.40257e-18
-1.38493e-18
-1.37184e-18
-1.39019e-18
-1.34405e-18
-1.36645e-18
-1.37525e-18
-1.35861e-18
-1.36187e-18
-1.35287e-18
-1.34927e-18
-1.36343e-18
-1.35768e-18
-1.36518e-18
-1.3474e-18
-1.36492e-18
-1.36172e-18
-1.35542e-18
-1.365e-18
-1.3698e-18
-1.38305e-18
-1.36935e-18
-1.36445e-18
-1.37714e-18
-1.38811e-18
-1.37262e-18
-1.39669e-18
-1.39976e-18
-1.38159e-18
-1.39001e-18
-1.38379e-18
-1.38846e-18
-1.38531e-18
-1.38971e-18
-1.39012e-18
-1.37619e-18
-1.39635e-18
-1.3701e-18
-1.39012e-18
-1.38647e-18
-1.38684e-18
-1.39771e-18
-1.38106e-18
-1.39269e-18
-1.38496e-18
-1.38058e-18
-1.35317e-18
-1.35463e-18
-1.34865e-18
-1.3742e-18
-1.36613e-18
-1.3573e-18
-1.36434e-18
-1.35116e-18
-1.35368e-18
-1.35816e-18
-1.36315e-18
-1.3481e-18
-1.33854e-18
-1.36618e-18
-1.3619e-18
-1.35931e-18
-1.36146e-18
-1.36629e-18
-1.37115e-18
-1.37328e-18
-1.36553e-18
-1.37312e-18
-1.37839e-18
-1.37165e-18
-1.39121e-18
-1.40572e-18
-1.39449e-18
-1.3856e-18
-1.38998e-18
-1.38926e-18
-1.38141e-18
-1.39985e-18
-1.3896e-18
-1.39342e-18
-1.36766e-18
-1.38526e-18
-1.38088e-18
-1.39023e-18
-1.36415e-18
-1.36026e-18
-1.36493e-18
-1.38058e-18
-1.39127e-18
-1.36704e-18
-1.3649e-18
-1.37777e-18
-1.36452e-18
-1.35735e-18
-1.35079e-18
-1.35928e-18
-1.33747e-18
-1.36094e-18
-1.35234e-18
-1.35395e-18
-1.35095e-18
-1.34973e-18
-1.36281e-18
-1.34058e-18
-1.35901e-18
-1.36396e-18
-1.36898e-18
-1.36548e-18
-1.39201e-18
-1.36346e-18
-1.37615e-18
-1.37588e-18
-1.3665e-18
-1.3894e-18
-1.38306e-18
-1.38933e-18
-1.39177e-18
-1.39588e-18
-1.39749e-18
-1.39536e-18
-1.38312e-18
-1.37861e-18
-1.3879e-18
-1.37756e-18
-1.40525e-18
-1.35874e-18
-1.37125e-18
-1.37526e-18
-1.39845e-18
-1.38558e-18
-1.3667e-18
-1.37018e-18
-1.36642e-18
-1.35949e-18
-1.34147e-18
-1.33312e-18
-1.36804e-18
-1.35771e-18
-1.36075e-18
-1.35321e-18
-1.35353e-18
-1.35062e-18
-1.35521e-18
-1.3453e-18
-1.34949e-18
-1.3636e-18
-1.36328e-18
-1.37707e-18
-1.36044e-18
-1.37272e-18
-1.37005e-18
-1.3795e-18
-1.38246e-18
-1.36962e-18
-1.40003e-18
-1.38998e-18
-1.3999e-18
-1.3979e-18
-1.3934e-18
-1.39063e-18
-1.38748e-18
-1.36819e-18
-1.38921e-18
-1.41615e-18
-1.4094e-18
-1.36245e-18
-1.3644e-18
-1.37949e-18
-1.40684e-18
-1.40192e-18
-1.36629e-18
-1.37746e-18
-1.36283e-18
-1.35797e-18
-1.34284e-18
-1.32942e-18
-1.34405e-18
-1.35333e-18
-1.34648e-18
-1.34877e-18
-1.3539e-18
-1.34182e-18
-1.36432e-18
-1.34049e-18
-1.34669e-18
-1.37156e-18
-1.35428e-18
-1.36389e-18
-1.3632e-18
-1.37251e-18
-1.37434e-18
-1.379e-18
-1.40444e-18
-1.38283e-18
-1.38938e-18
-1.38906e-18
-1.38989e-18
-1.36624e-18
-1.38837e-18
-1.39186e-18
-1.38571e-18
-1.37796e-18
-1.38019e-18
-1.38011e-18
-1.41128e-18
-1.38097e-18
-1.35899e-18
-1.36586e-18
-1.3631e-18
-1.35952e-18
-1.35035e-18
-1.3436e-18
-1.35444e-18
-1.35e-18
-1.33325e-18
-1.34743e-18
-1.34605e-18
-1.3471e-18
-1.36971e-18
-1.34008e-18
-1.3525e-18
-1.37387e-18
-1.34967e-18
-1.35479e-18
-1.36809e-18
-1.38128e-18
-1.38066e-18
-1.38183e-18
-1.37948e-18
-1.37652e-18
-1.38702e-18
-1.37755e-18
-1.36879e-18
-1.37718e-18
-1.38359e-18
-1.37877e-18
-1.38763e-18
-1.37735e-18
-1.36317e-18
-1.35713e-18
-1.36371e-18
-1.35611e-18
-1.34432e-18
-1.33326e-18
-1.32378e-18
-1.34709e-18
-1.3409e-18
-1.34688e-18
-1.338e-18
-1.34962e-18
-1.34683e-18
-1.33874e-18
-1.34591e-18
-1.36226e-18
-1.35073e-18
-1.36347e-18
-1.37064e-18
-1.39006e-18
-1.3788e-18
-1.37681e-18
-1.37076e-18
-1.37189e-18
-1.38557e-18
-1.37061e-18
-1.38978e-18
-1.38028e-18
-1.39435e-18
-1.39356e-18
-1.3588e-18
-1.3391e-18
-1.36172e-18
-1.34114e-18
-1.33218e-18
-1.3475e-18
-1.32282e-18
-1.34946e-18
-1.3515e-18
-1.34333e-18
-1.33778e-18
-1.35522e-18
-1.34747e-18
-1.34357e-18
-1.34888e-18
-1.3552e-18
-1.35982e-18
-1.37313e-18
-1.37523e-18
-1.37387e-18
-1.3717e-18
-1.37625e-18
-1.37344e-18
-1.37759e-18
-1.38011e-18
-1.39326e-18
-1.34464e-18
-1.33566e-18
-1.36428e-18
-1.35418e-18
-1.3453e-18
-1.36535e-18
-1.35197e-18
-1.35693e-18
-1.32708e-18
-1.32686e-18
-1.31687e-18
-1.33341e-18
-1.34128e-18
-1.33161e-18
-1.36696e-18
-1.36028e-18
-1.35194e-18
-1.37546e-18
-1.36079e-18
-1.3734e-18
-1.36709e-18
-1.37501e-18
-1.37197e-18
-1.38017e-18
-1.35483e-18
-1.34563e-18
-1.36663e-18
-1.34046e-18
-1.36809e-18
-1.30499e-18
-1.34034e-18
-1.32266e-18
-1.32882e-18
-1.32761e-18
-1.33484e-18
-1.36739e-18
-1.35914e-18
-1.36405e-18
-1.37351e-18
-1.36427e-18
-1.36528e-18
-1.36594e-18
-1.3762e-18
-1.36852e-18
-1.38499e-18
-1.34119e-18
-1.3455e-18
-1.28598e-18
-1.34507e-18
-1.31977e-18
-1.33166e-18
-1.34211e-18
-1.3471e-18
-1.36408e-18
-1.3589e-18
-1.37201e-18
-1.37218e-18
-1.36845e-18
-1.3689e-18
-1.36895e-18
-1.37519e-18
-1.37506e-18
-1.38342e-18
-1.28023e-18
-1.33847e-18
-1.33202e-18
-1.32338e-18
-1.3407e-18
-1.34763e-18
-1.36204e-18
-1.36078e-18
-1.36188e-18
-1.3631e-18
-1.36361e-18
-1.36712e-18
-1.37313e-18
-1.367e-18
-1.37994e-18
-1.37912e-18
-1.29205e-18
-1.36641e-18
-1.32989e-18
-1.33523e-18
-1.33836e-18
-1.34387e-18
-1.35755e-18
-1.36206e-18
-1.36565e-18
-1.36857e-18
-1.36918e-18
-1.35378e-18
-1.37089e-18
-1.35594e-18
-1.38782e-18
-1.37988e-18
-1.09649e-18
-1.36952e-18
-1.31971e-18
-1.33945e-18
-1.34881e-18
-1.33843e-18
-1.35788e-18
-1.36638e-18
-1.36648e-18
-1.36336e-18
-1.3693e-18
-1.37074e-18
-1.37713e-18
-1.37279e-18
-1.38569e-18
-1.37976e-18
-1.33512e-18
-1.3381e-18
-1.33606e-18
-1.35782e-18
-1.37455e-18
-1.36152e-18
-1.34911e-18
-1.38234e-18
-1.38335e-18
-1.36898e-18
-1.38592e-18
-1.36946e-18
-1.37953e-18
-1.36398e-18
-1.34661e-18
-1.37964e-18
-1.37404e-18
-1.37782e-18
-1.39317e-18
-1.37526e-18
-1.3829e-18
-1.37673e-18
-1.37439e-18
-1.37739e-18
-1.39052e-18
-1.37955e-18
-1.39947e-18
-1.40767e-18
-1.41125e-18
-1.43415e-18
-1.4091e-18
-1.40808e-18
-1.40057e-18
-1.37993e-18
-1.42397e-18
-1.40894e-18
-1.38762e-18
-1.44651e-18
-1.41613e-18
-1.42195e-18
-1.38235e-18
-1.42741e-18
-1.41332e-18
-1.41805e-18
-1.38782e-18
-1.42708e-18
-1.38559e-18
-1.39912e-18
-1.42985e-18
-1.40969e-18
-1.40253e-18
-1.39947e-18
-1.39453e-18
-1.39488e-18
-1.40827e-18
-1.41859e-18
-1.3839e-18
-1.41291e-18
-1.37206e-18
-1.42292e-18
-1.41043e-18
-1.40236e-18
-1.41224e-18
-1.42895e-18
-1.39998e-18
-1.37176e-18
-1.368e-18
-1.39617e-18
-1.39966e-18
-1.40226e-18
-1.40541e-18
-1.41084e-18
-1.4358e-18
-1.43541e-18
-1.40757e-18
-1.4058e-18
-1.40455e-18
-1.39351e-18
-1.37642e-18
-1.39042e-18
-1.36972e-18
-1.3993e-18
-1.41469e-18
-1.38115e-18
-1.36774e-18
-1.37902e-18
-1.42033e-18
-1.4333e-18
-1.41394e-18
-1.42693e-18
-1.41355e-18
-1.4075e-18
-1.40371e-18
-1.39689e-18
-1.39627e-18
-1.40424e-18
-1.39689e-18
-1.37887e-18
-1.40096e-18
-1.40063e-18
-1.39657e-18
-1.37904e-18
-1.40717e-18
-1.41991e-18
-1.40766e-18
-1.39988e-18
-1.39841e-18
-1.40225e-18
-1.40992e-18
-1.42541e-18
-1.40716e-18
-1.42708e-18
-1.42826e-18
-1.40036e-18
-1.38303e-18
-1.39832e-18
-1.40294e-18
-1.41146e-18
-1.42091e-18
-1.40551e-18
-1.42563e-18
-1.40604e-18
-1.39975e-18
-1.40185e-18
-1.39583e-18
-1.36782e-18
-1.3739e-18
-1.37502e-18
-1.37254e-18
-1.37678e-18
-1.3949e-18
-1.37759e-18
-1.39291e-18
-1.40022e-18
-1.39793e-18
-1.39756e-18
-1.42248e-18
-1.40294e-18
-1.40341e-18
-1.42577e-18
-1.43177e-18
-1.40575e-18
-1.3894e-18
-1.37982e-18
-1.40077e-18
-1.40006e-18
-1.37775e-18
-1.37664e-18
-1.40107e-18
-1.39781e-18
-1.40413e-18
-1.40029e-18
-1.37816e-18
-1.37263e-18
-1.39493e-18
-1.39778e-18
-1.40461e-18
-1.42689e-18
-1.40351e-18
-1.38914e-18
-1.38205e-18
-1.39169e-18
-1.36956e-18
-1.35305e-18
-1.37408e-18
-1.39387e-18
-1.37649e-18
-1.3771e-18
-1.40148e-18
-1.39872e-18
-1.38078e-18
-1.3978e-18
-1.41972e-18
-1.4016e-18
-1.39585e-18
-1.39538e-18
-1.3791e-18
-1.37647e-18
-1.40005e-18
-1.40606e-18
-1.42131e-18
-1.40705e-18
-1.40305e-18
-1.38696e-18
-1.42164e-18
-1.41264e-18
-1.39875e-18
-1.4038e-18
-1.42235e-18
-1.40047e-18
-1.39736e-18
-1.41398e-18
-1.39831e-18
-1.39112e-18
-1.38215e-18
-1.37939e-18
-1.39741e-18
-1.39793e-18
-1.39748e-18
-1.39697e-18
-1.38279e-18
-1.39702e-18
-1.40367e-18
-1.40594e-18
-1.39924e-18
-1.39733e-18
-1.39907e-18
-1.40754e-18
-1.42484e-18
-1.42932e-18
-1.40301e-18
-1.39401e-18
-1.38416e-18
-1.39387e-18
-1.39373e-18
-1.39726e-18
-1.40059e-18
-1.39807e-18
-1.40259e-18
-1.40581e-18
-1.39614e-18
-1.36452e-18
-1.39667e-18
-1.41704e-18
-1.40112e-18
-1.38118e-18
-1.39689e-18
-1.39813e-18
-1.39111e-18
-1.40282e-18
-1.41173e-18
-1.42059e-18
-1.40209e-18
-1.39863e-18
-1.38395e-18
-1.41517e-18
-1.38934e-18
-1.4142e-18
-1.38021e-18
-1.40011e-18
-1.38973e-18
-1.37543e-18
-1.37468e-18
-1.37414e-18
-1.37221e-18
-1.39251e-18
-1.41954e-18
-1.42699e-18
-1.41338e-18
-1.37258e-18
-1.37977e-18
-1.40109e-18
-1.39789e-18
-1.37397e-18
-1.39428e-18
-1.39638e-18
-1.38166e-18
-1.41823e-18
-1.43475e-18
-1.3975e-18
-1.37957e-18
-1.39542e-18
-1.39685e-18
-1.40188e-18
-1.39246e-18
-1.39688e-18
-1.39193e-18
-1.41327e-18
-1.37903e-18
-1.39362e-18
-1.41229e-18
-1.39624e-18
-1.37722e-18
-1.37921e-18
-1.3988e-18
-1.42186e-18
-1.3957e-18
-1.39656e-18
-1.36513e-18
-1.39669e-18
-1.39748e-18
-1.36416e-18
-1.3925e-18
-1.39954e-18
-1.40071e-18
-1.4027e-18
-1.40243e-18
-1.3844e-18
-1.39412e-18
-1.4016e-18
-1.39913e-18
-1.39919e-18
-1.3769e-18
-1.39006e-18
-1.383e-18
-1.39864e-18
-1.3894e-18
-1.40129e-18
-1.40292e-18
-1.40027e-18
-1.41157e-18
-1.41094e-18
-1.39879e-18
-1.3947e-18
-1.37558e-18
-1.40704e-18
-1.39783e-18
-1.41302e-18
-1.41533e-18
-1.39561e-18
-1.39817e-18
-1.40308e-18
-1.41825e-18
-1.41283e-18
-1.40301e-18
-1.42981e-18
-1.41995e-18
-1.41869e-18
-1.40359e-18
-1.41342e-18
-1.3838e-18
-1.39828e-18
-1.41635e-18
-1.39681e-18
-1.38066e-18
-1.40432e-18
-1.39785e-18
-1.37482e-18
-1.37952e-18
-1.38171e-18
-1.39738e-18
-1.39447e-18
-1.38707e-18
-1.37887e-18
-1.41123e-18
-1.39974e-18
-1.39507e-18
-1.39423e-18
-1.40178e-18
-1.41341e-18
-1.4006e-18
-1.381e-18
-1.39249e-18
-1.41338e-18
-1.40282e-18
-1.41566e-18
-1.4031e-18
-1.4007e-18
-1.42449e-18
-1.41773e-18
-1.41857e-18
-1.39435e-18
-1.39598e-18
-1.42346e-18
-1.39991e-18
-1.38262e-18
-1.38973e-18
-1.38662e-18
-1.39323e-18
-1.39496e-18
-1.38514e-18
-1.3897e-18
-1.40995e-18
-1.39682e-18
-1.37736e-18
-1.37745e-18
-1.41215e-18
-1.40194e-18
-1.39734e-18
-1.39003e-18
-1.37381e-18
-1.36634e-18
-1.38617e-18
-1.3992e-18
-1.40902e-18
-1.38067e-18
-1.40131e-18
-1.40342e-18
-1.39342e-18
-1.39043e-18
-1.37673e-18
-1.38273e-18
-1.41936e-18
-1.41136e-18
-1.39091e-18
-1.3753e-18
-1.37804e-18
-1.38987e-18
-1.37712e-18
-1.39476e-18
-1.40096e-18
-1.40739e-18
-1.3937e-18
-1.38003e-18
-1.41029e-18
-1.4103e-18
-1.40603e-18
-1.40914e-18
-1.38981e-18
-1.38555e-18
-1.37945e-18
-1.39561e-18
-1.39822e-18
-1.38968e-18
-1.41481e-18
-1.41358e-18
-1.37825e-18
-1.38708e-18
-1.38809e-18
-1.37434e-18
-1.42584e-18
-1.38914e-18
-1.36483e-18
-1.38881e-18
-1.39085e-18
-1.39746e-18
-1.39536e-18
-1.40609e-18
-1.39199e-18
-1.39189e-18
-1.40323e-18
-1.39479e-18
-1.40378e-18
-1.37963e-18
-1.4218e-18
-1.41051e-18
-1.39019e-18
-1.38128e-18
-1.39424e-18
-1.37408e-18
-1.40279e-18
-1.40723e-18
-1.38666e-18
-1.3903e-18
-1.39738e-18
-1.41564e-18
-1.4046e-18
-1.38231e-18
-1.40854e-18
-1.37678e-18
-1.38949e-18
-1.39212e-18
-1.39349e-18
-1.38268e-18
-1.3954e-18
-1.40978e-18
-1.37087e-18
-1.3878e-18
-1.39387e-18
-1.40398e-18
-1.38297e-18
-1.38269e-18
-1.3842e-18
-1.39063e-18
-1.37709e-18
-1.37813e-18
-1.39213e-18
-1.3786e-18
-1.37913e-18
-1.38605e-18
-1.39402e-18
-1.37699e-18
-1.37866e-18
-1.36524e-18
-1.36355e-18
-1.38326e-18
-1.38856e-18
-1.38819e-18
-1.3888e-18
-1.40014e-18
-1.38893e-18
-1.38649e-18
-1.39693e-18
-1.39859e-18
-1.39437e-18
-1.39687e-18
-1.38716e-18
-1.38397e-18
-1.37892e-18
-1.38696e-18
-1.38916e-18
-1.39082e-18
-1.39011e-18
-1.39076e-18
-1.39108e-18
-1.39364e-18
-1.40388e-18
-1.37889e-18
-1.38086e-18
-1.37306e-18
-1.38168e-18
-1.38776e-18
-1.3835e-18
-1.38305e-18
-1.38359e-18
-1.37338e-18
-1.39026e-18
-1.37867e-18
-1.38284e-18
-1.38989e-18
-1.3875e-18
-1.37875e-18
-1.38374e-18
-1.39465e-18
-1.3926e-18
-1.38922e-18
-1.38792e-18
-1.38214e-18
-1.37128e-18
-1.38709e-18
-1.38903e-18
-1.38866e-18
-1.38793e-18
-1.38949e-18
-1.38681e-18
-1.39141e-18
-1.40401e-18
-1.38975e-18
-1.38399e-18
-1.38226e-18
-1.36823e-18
-1.38049e-18
-1.39468e-18
-1.39004e-18
-1.3731e-18
-1.37422e-18
-1.41857e-18
-1.41325e-18
-1.39433e-18
-1.3911e-18
-1.39549e-18
-1.40257e-18
-1.40792e-18
-1.39633e-18
-1.38452e-18
-1.37412e-18
-1.38985e-18
-1.40505e-18
-1.39595e-18
-1.40276e-18
-1.38949e-18
-1.38389e-18
-1.37977e-18
-1.37174e-18
-1.37925e-18
-1.38576e-18
-1.38423e-18
-1.3837e-18
-1.38366e-18
-1.38941e-18
-1.38956e-18
-1.38825e-18
-1.38761e-18
-1.39418e-18
-1.41325e-18
-1.41438e-18
-1.40734e-18
-1.39023e-18
-1.38036e-18
-1.40547e-18
-1.41204e-18
-1.39837e-18
-1.40222e-18
-1.3887e-18
-1.37293e-18
-1.38782e-18
-1.40124e-18
-1.38781e-18
-1.38876e-18
-1.3889e-18
-1.38894e-18
-1.38345e-18
-1.37978e-18
-1.38528e-18
-1.41005e-18
-1.40536e-18
-1.37735e-18
-1.39035e-18
-1.39468e-18
-1.38715e-18
-1.38793e-18
-1.39145e-18
-1.40242e-18
-1.39316e-18
-1.39197e-18
-1.40446e-18
-1.39653e-18
-1.40281e-18
-1.39201e-18
-1.39064e-18
-1.39608e-18
-1.40134e-18
-1.37478e-18
-1.39195e-18
-1.40344e-18
-1.38041e-18
-1.38973e-18
-1.39834e-18
-1.37721e-18
-1.38264e-18
-1.38677e-18
-1.38781e-18
-1.38907e-18
-1.3843e-18
-1.37049e-18
-1.3825e-18
-1.38714e-18
-1.38594e-18
-1.38642e-18
-1.38301e-18
-1.37281e-18
-1.37874e-18
-1.37313e-18
-1.38376e-18
-1.38807e-18
-1.37384e-18
-1.36408e-18
-1.40828e-18
-1.41015e-18
-1.39115e-18
-1.40675e-18
-1.41041e-18
-1.39616e-18
-1.38917e-18
-1.3911e-18
-1.39276e-18
-1.3854e-18
-1.37934e-18
-1.39878e-18
-1.39295e-18
-1.39194e-18
-1.38724e-18
-1.38871e-18
-1.39419e-18
-1.37253e-18
-1.36826e-18
-1.38857e-18
-1.40568e-18
-1.39371e-18
-1.38886e-18
-1.3862e-18
-1.3795e-18
-1.39094e-18
-1.39825e-18
-1.39477e-18
-1.39418e-18
-1.39687e-18
-1.4078e-18
-1.39538e-18
-1.39102e-18
-1.38683e-18
-1.37911e-18
-1.40175e-18
-1.39687e-18
-1.3916e-18
-1.39175e-18
-1.39586e-18
-1.40845e-18
-1.38026e-18
-1.36838e-18
-1.40315e-18
-1.39576e-18
-1.38888e-18
-1.37429e-18
-1.38911e-18
-1.40194e-18
-1.37684e-18
-1.39084e-18
-1.40054e-18
-1.37568e-18
-1.38154e-18
-1.37813e-18
-1.39509e-18
-1.41078e-18
-1.36664e-18
-1.37344e-18
-1.41102e-18
-1.41934e-18
-1.41361e-18
-1.39706e-18
-1.39744e-18
-1.40369e-18
-1.37988e-18
-1.39148e-18
-1.40496e-18
-1.39192e-18
-1.37895e-18
-1.3858e-18
-1.37968e-18
-1.38877e-18
-1.39655e-18
-1.40648e-18
-1.39462e-18
-1.39622e-18
-1.41175e-18
-1.41486e-18
-1.40607e-18
-1.37723e-18
-1.37232e-18
-1.38721e-18
-1.39357e-18
-1.38518e-18
-1.37296e-18
-1.36701e-18
-1.37545e-18
-1.37936e-18
-1.40894e-18
-1.40626e-18
-1.39094e-18
-1.40931e-18
-1.40903e-18
-1.38342e-18
-1.37007e-18
-1.37204e-18
-1.38188e-18
-1.38985e-18
-1.38574e-18
-1.36307e-18
-1.3857e-18
-1.3914e-18
-1.39906e-18
-1.39214e-18
-1.38708e-18
-1.39073e-18
-1.40888e-18
-1.40089e-18
-1.40655e-18
-1.39305e-18
-1.39086e-18
-1.38593e-18
-1.37453e-18
-1.38647e-18
-1.39123e-18
-1.39403e-18
-1.40212e-18
-1.3885e-18
-1.40089e-18
-1.3881e-18
-1.4034e-18
-1.39483e-18
-1.39058e-18
-1.39044e-18
-1.39152e-18
-1.39222e-18
-1.3927e-18
-1.39339e-18
-1.39522e-18
-1.39689e-18
-1.39731e-18
-1.3847e-18
-1.35659e-18
-1.39572e-18
-1.36133e-18
-1.36169e-18
-1.41268e-18
-1.40938e-18
-1.36847e-18
-1.389e-18
-1.39154e-18
-1.3712e-18
-1.38428e-18
-1.38623e-18
-1.37447e-18
-1.39427e-18
-1.40542e-18
-1.39255e-18
-1.39947e-18
-1.38278e-18
-1.38366e-18
-1.36842e-18
-1.38256e-18
-1.38625e-18
-1.42348e-18
-1.40462e-18
-1.39714e-18
-1.39508e-18
-1.39528e-18
-1.3948e-18
-1.39792e-18
-1.41358e-18
-1.41456e-18
-1.39721e-18
-1.39352e-18
-1.39738e-18
-1.41342e-18
-1.40821e-18
-1.38271e-18
-1.38845e-18
-1.3924e-18
-1.39384e-18
-1.39325e-18
-1.3904e-18
-1.39623e-18
-1.39847e-18
-1.39865e-18
-1.39757e-18
-1.40088e-18
-1.41338e-18
-1.3755e-18
-1.38426e-18
-1.38306e-18
-1.38216e-18
-1.40606e-18
-1.38901e-18
-1.3688e-18
-1.38787e-18