/*--------------------------------*- C++ -*----------------------------------*\
  =========                 |
  \\      /  F ield         | OpenFOAM: The Open Source CFD Toolbox
   \\    /   O peration     | Website:  https://openfoam.org
    \\  /    A nd           | Version:  7
     \\/     M anipulation  |
\*---------------------------------------------------------------------------*/
FoamFile
{
    version     2.0;
    format      ascii;
    class       surfaceScalarField;
    location    "12000";
    object      phi;
}
// * * * * * * * * * * * * * * * * * * * * * * * * * * * * * * * * * * * * * //

dimensions      [0 3 -1 0 0 0 0];

internalField   nonuniform List<scalar> 
9492
(
1.02103e-22
4.07281e-22
3.73486e-23
5.0448e-23
2.27457e-23
4.54563e-23
2.97853e-22
3.18759e-23
5.52404e-23
1.77857e-23
3.63413e-23
1.26653e-23
2.6409e-23
8.89911e-24
2.06244e-23
9.9822e-24
1.7189e-23
7.61488e-24
1.90556e-23
1.31739e-23
2.26056e-23
2.3858e-22
2.25175e-23
4.34446e-23
1.43421e-23
4.37004e-23
1.1432e-23
2.85192e-23
8.20871e-24
2.36949e-23
1.01359e-23
2.0563e-23
6.53117e-24
1.90978e-23
3.81241e-24
1.44927e-23
1.90659e-24
1.94274e-23
1.08306e-24
2.41123e-23
6.2279e-24
1.41161e-23
1.85689e-22
1.70768e-23
5.29498e-23
1.09512e-23
4.24134e-23
1.0932e-23
2.86543e-23
8.01006e-24
2.07771e-23
9.77811e-24
1.94659e-23
6.2999e-24
2.08481e-23
3.77596e-24
1.27615e-23
2.50889e-24
1.55434e-23
-2.12807e-25
1.45073e-23
6.02352e-25
8.7125e-24
2.05846e-24
9.24331e-24
3.57134e-24
-3.77339e-26
4.21917e-24
5.60921e-24
1.84451e-25
-5.48454e-25
-2.95942e-24
-1.15517e-24
9.53772e-24
1.52887e-22
1.21207e-23
5.07931e-23
9.47814e-24
4.4466e-23
9.30409e-24
3.50163e-23
6.96085e-24
2.23181e-23
9.44088e-24
2.15338e-23
5.16772e-24
1.30896e-23
3.89973e-24
1.24581e-23
2.36294e-24
1.60705e-23
-9.13834e-25
1.18312e-23
9.64638e-25
1.66271e-23
8.86004e-25
1.06801e-23
3.85813e-24
5.969e-24
3.03018e-24
1.96391e-24
7.01113e-25
-2.15089e-24
2.43786e-25
-6.29317e-25
6.07882e-24
8.56904e-24
6.04718e-23
8.10378e-24
5.15256e-23
6.98724e-24
2.99553e-23
7.11319e-24
2.58842e-23
8.4988e-24
2.40034e-23
4.89885e-24
1.59e-23
4.08804e-24
1.56379e-23
1.60261e-24
1.26693e-23
2.52934e-25
7.59305e-24
3.4318e-25
1.63965e-23
7.89749e-25
1.25252e-23
3.37276e-24
7.82736e-24
2.40525e-24
2.9379e-24
1.26446e-24
-4.67751e-24
4.95953e-24
7.51759e-25
5.98874e-24
5.95188e-23
5.81339e-24
5.1372e-23
6.4028e-24
3.29643e-23
6.44683e-24
2.98413e-23
6.91913e-24
2.74114e-23
5.06445e-24
1.76227e-23
4.10421e-24
1.44159e-23
2.63312e-25
1.06011e-23
1.34517e-24
1.58977e-23
5.88708e-26
1.57282e-23
2.84861e-25
1.36385e-23
3.47448e-24
1.04348e-23
1.93222e-24
1.12085e-24
2.00301e-24
-4.06975e-24
-3.04504e-24
2.68398e-25
3.59349e-24
5.1835e-23
4.41189e-24
4.42482e-23
5.69237e-24
3.18557e-23
6.07191e-24
3.43311e-23
6.38708e-24
2.76068e-23
4.67119e-24
2.01482e-23
3.91245e-24
2.07079e-23
1.0424e-24
1.31514e-23
1.54366e-24
1.56653e-23
-1.24035e-25
1.23004e-23
8.08709e-25
8.12077e-24
1.9893e-24
4.61057e-24
1.39844e-24
-2.40198e-24
2.3844e-24
-5.48805e-24
-8.53825e-25
9.04756e-25
1.89199e-24
5.00005e-23
3.32268e-24
4.19949e-23
5.72108e-24
3.56411e-23
5.46428e-24
3.39811e-23
5.83852e-24
2.75069e-23
3.92721e-24
2.17803e-23
3.14298e-24
2.01276e-23
1.01608e-24
1.11683e-23
1.21124e-24
1.43423e-23
-3.14898e-25
1.28975e-23
7.86676e-25
5.76637e-24
1.74331e-24
-2.0403e-24
9.54417e-25
-6.84135e-24
3.87979e-24
1.39265e-24
-1.15211e-24
8.30468e-25
-1.40233e-24
7.39727e-23
6.87351e-25
4.80095e-23
2.6793e-24
4.44119e-23
5.57526e-24
3.69729e-23
4.66767e-24
3.29024e-23
5.23299e-24
2.4312e-23
3.48392e-24
1.79475e-23
2.30869e-24
2.10812e-23
1.25718e-24
8.34852e-24
1.23881e-24
1.32575e-23
-4.41911e-25
9.97466e-24
-8.90174e-25
6.43891e-24
1.84328e-24
4.56204e-24
2.08664e-24
2.44338e-24
2.93299e-24
4.43314e-24
-3.50259e-24
1.76821e-24
-2.12251e-24
6.36867e-23
-4.69673e-25
4.18004e-23
1.82832e-24
4.1726e-23
5.40531e-24
4.25598e-23
3.94519e-24
2.99704e-23
4.6988e-24
2.37112e-23
4.45323e-24
2.15206e-23
1.40165e-24
1.30153e-23
1.66608e-24
1.31585e-23
6.08131e-25
1.47855e-23
-6.84801e-25
1.04752e-23
-1.08285e-24
1.01953e-23
1.294e-24
1.18163e-23
2.07588e-24
5.34581e-24
2.42601e-24
3.16759e-24
8.56393e-25
3.13285e-24
-2.21145e-24
5.73952e-23
-6.72057e-25
4.05517e-23
2.03046e-24
4.45706e-23
4.28917e-24
4.36239e-23
3.32653e-24
3.07553e-23
4.64134e-24
2.20837e-23
3.09797e-24
1.97688e-23
1.65104e-24
1.31218e-23
1.79304e-24
1.21592e-23
9.7272e-25
1.36343e-23
-6.91989e-25
1.16524e-23
-4.86505e-25
1.03656e-23
1.21493e-24
1.33535e-23
1.69267e-24
8.4718e-24
2.01145e-24
6.65273e-24
1.81925e-24
3.58029e-24
-2.80908e-24
5.32508e-23
-9.2505e-25
3.93743e-23
2.09959e-24
4.16969e-23
3.36444e-24
4.25476e-23
2.41521e-24
3.09972e-23
4.63141e-24
2.94151e-23
2.97854e-24
1.67749e-23
1.891e-24
1.43135e-23
1.68161e-24
1.5796e-23
1.19496e-24
1.34846e-23
-7.66124e-25
1.43988e-23
-8.89884e-25
6.32837e-24
1.20112e-24
1.6048e-23
1.13032e-24
1.22683e-23
2.34514e-24
9.52853e-24
9.89153e-24
3.41025e-24
-6.9144e-24
3.90261e-23
-3.06753e-24
5.06269e-23
-9.66944e-25
3.75852e-23
2.41988e-24
4.94412e-23
2.47523e-24
3.87337e-23
2.2609e-24
3.09468e-23
4.12043e-24
2.53768e-23
2.49171e-24
1.68743e-23
2.09487e-24
1.8284e-23
1.97078e-24
1.0124e-23
7.48838e-25
4.65398e-24
-7.8599e-25
1.99508e-23
-6.75776e-25
7.50181e-24
9.0905e-25
1.40632e-23
1.05682e-24
1.11867e-23
2.62857e-24
1.26962e-23
3.3744e-25
2.62386e-24
-6.32763e-24
3.88623e-23
-3.17231e-24
4.74794e-23
-2.36355e-25
4.44075e-23
1.89693e-24
4.71363e-23
2.28196e-24
3.44151e-23
1.68884e-24
3.15449e-23
3.44235e-24
2.74278e-23
2.48474e-24
1.23525e-23
1.55648e-24
1.85299e-23
2.02542e-24
1.33184e-23
1.6155e-24
2.15094e-24
-1.15194e-24
1.30843e-23
-2.30269e-25
2.73026e-24
8.00423e-25
1.10962e-23
1.19893e-24
5.90824e-24
1.62606e-24
8.13663e-24
3.39709e-25
2.88737e-24
-7.26931e-24
2.98469e-23
-5.95067e-24
3.45625e-23
-3.06143e-24
4.64576e-23
-1.45984e-25
4.21486e-23
9.08546e-25
4.73711e-23
1.92581e-24
3.21386e-23
1.43815e-24
2.21073e-23
2.77029e-24
2.20425e-23
2.81523e-24
7.53363e-24
1.02346e-24
1.54945e-23
1.24862e-24
1.25199e-23
2.26283e-24
6.05017e-25
-1.56777e-24
6.18996e-25
5.89043e-25
4.68435e-24
8.50926e-25
1.41664e-23
1.37039e-24
3.77247e-24
9.52096e-25
9.73109e-24
-7.8719e-25
2.62115e-24
-6.66899e-24
3.55555e-23
-5.29735e-24
3.47021e-23
-2.77462e-24
4.5803e-23
1.02339e-26
4.38633e-23
1.82796e-25
3.80134e-23
9.72849e-25
3.56667e-23
1.25771e-24
2.62568e-23
1.89027e-24
2.14257e-23
3.01573e-24
2.2902e-23
6.23492e-25
1.66103e-23
6.62535e-25
1.23974e-23
1.71941e-24
2.93928e-24
-6.31144e-25
1.52818e-24
1.1846e-24
-2.61907e-24
3.37545e-25
5.33087e-24
1.39385e-24
2.43519e-24
7.17179e-25
1.05325e-23
1.95161e-24
2.57882e-24
-6.33097e-24
2.61984e-23
-4.50536e-24
3.49968e-23
-3.01073e-24
4.24032e-23
-3.50523e-25
4.60664e-23
-4.9385e-26
2.81296e-23
7.11037e-25
3.35255e-23
7.62737e-25
2.56366e-23
2.48206e-24
2.96176e-23
2.3214e-24
2.20136e-23
7.31164e-25
1.30233e-23
5.28985e-25
8.28252e-24
1.58322e-24
6.27576e-24
-7.45969e-25
2.35658e-24
1.67513e-24
9.58279e-24
6.03471e-25
5.23002e-24
1.76954e-24
1.66649e-24
3.78274e-25
8.65938e-24
4.71032e-24
2.01243e-24
-5.93633e-24
2.8046e-23
-4.10183e-24
3.83953e-23
-2.4457e-24
4.35115e-23
-1.44141e-24
4.58692e-23
3.01487e-25
3.12793e-23
7.02529e-25
3.24677e-23
1.13337e-24
2.62997e-23
2.41031e-24
2.86807e-23
1.51795e-24
1.69072e-23
1.28406e-26
8.90166e-24
7.54813e-26
9.14638e-24
1.28194e-24
2.75063e-24
-5.46137e-25
4.00529e-24
1.14555e-24
6.68681e-24
6.36083e-25
3.26235e-24
2.32156e-24
4.24412e-24
3.39559e-25
7.53408e-24
-5.40629e-25
1.33735e-24
-5.00978e-24
2.90369e-23
-3.76847e-24
4.28372e-23
-2.07673e-24
4.30493e-23
-2.09887e-24
3.00125e-23
3.37279e-25
2.45599e-23
3.0432e-26
2.88425e-23
1.37173e-24
2.52343e-23
2.01911e-24
2.23897e-23
1.05987e-24
1.78819e-23
-2.85921e-25
9.62112e-24
2.61758e-25
6.39925e-24
1.36511e-24
5.14869e-24
1.13915e-25
5.68917e-24
8.45986e-25
4.50439e-24
4.77488e-25
2.61191e-24
2.06997e-24
2.16696e-24
1.09493e-25
-2.12803e-24
-1.70764e-24
1.03738e-24
-3.99788e-24
2.94547e-23
-3.66201e-24
3.38024e-23
-2.75364e-24
4.40969e-23
-2.12403e-24
3.45996e-23
5.79654e-25
3.16571e-23
-3.06379e-25
2.78397e-23
9.79536e-25
2.49243e-23
1.62124e-24
2.1956e-23
1.01501e-24
1.33178e-23
-6.91354e-25
1.00269e-23
2.96512e-25
1.51473e-23
1.11217e-24
5.2993e-24
2.25453e-25
1.87604e-24
6.85944e-25
4.79728e-24
7.24728e-25
1.84166e-24
1.66807e-24
2.63585e-24
3.43782e-25
-3.69793e-24
-3.07854e-24
8.6082e-25
-3.76213e-24
2.64356e-23
-3.01368e-24
3.55946e-23
-3.30511e-24
3.65539e-23
-2.29815e-24
3.86406e-23
5.08576e-25
3.85034e-23
-2.28702e-25
3.24471e-23
9.10017e-25
3.43142e-23
1.07965e-24
2.28186e-23
7.83861e-25
1.76722e-23
-4.84996e-25
1.52662e-23
-2.23473e-25
1.44248e-23
1.35782e-24
3.51584e-24
1.80768e-25
-1.30999e-24
8.34489e-25
2.41714e-24
6.89339e-25
5.78083e-24
1.24937e-24
5.17259e-24
6.50709e-25
3.70714e-25
-4.95275e-24
7.7286e-25
-3.42463e-24
2.38318e-23
-2.8515e-24
3.57609e-23
-3.07104e-24
3.71836e-23
-2.2796e-24
3.41509e-23
-6.27231e-26
3.67231e-23
-2.71826e-25
3.27846e-23
4.73619e-25
3.41743e-23
8.89417e-25
2.44995e-23
6.51614e-25
2.19767e-23
-5.11228e-25
1.48956e-23
-7.24728e-25
1.30147e-23
9.9655e-25
3.63085e-24
3.92701e-25
-4.81218e-24
1.13839e-24
1.39227e-24
7.27801e-25
1.02639e-24
6.50446e-25
4.71317e-24
6.76156e-25
1.01709e-23
-1.26345e-24
4.41104e-25
-2.79783e-24
2.45735e-23
-2.56373e-24
3.54969e-23
-2.89322e-24
3.2696e-23
-2.09559e-24
3.74283e-23
-6.85188e-26
3.94019e-23
-1.99437e-25
3.29119e-23
-4.07897e-25
3.00275e-23
1.03828e-24
2.82143e-23
6.13195e-25
2.195e-23
-9.55138e-25
1.63339e-23
-1.11177e-24
1.74954e-23
8.55052e-25
2.41234e-24
4.85133e-25
-3.24641e-24
1.25378e-24
1.61031e-24
7.71518e-25
2.65856e-25
8.17433e-25
-9.05665e-25
1.94244e-25
9.57599e-24
-8.13431e-25
1.18847e-25
-2.37214e-24
2.02036e-23
-2.42016e-24
3.06021e-23
-2.73624e-24
2.92405e-23
-1.79809e-24
3.70414e-23
-5.6922e-25
3.86239e-23
-6.7089e-25
2.75812e-23
-3.65889e-25
2.96407e-23
5.20209e-25
2.79534e-23
2.98682e-25
2.22492e-23
-8.64147e-25
1.2567e-23
-1.65534e-24
1.29148e-23
5.9262e-25
2.39147e-24
6.2637e-25
1.31395e-24
1.51682e-24
1.02346e-23
7.12308e-25
1.09772e-23
1.57077e-24
-3.28075e-24
-5.36666e-25
8.86627e-25
-2.38681e-24
1.03387e-25
-1.96323e-24
2.52882e-23
-2.34619e-24
3.12142e-23
-2.55612e-24
3.00392e-23
-1.72159e-24
3.66134e-23
-6.58222e-25
3.26138e-23
-7.33267e-25
2.67491e-23
-7.34756e-26
4.00139e-23
2.68045e-25
2.76834e-23
-1.24768e-25
2.22332e-23
-8.88003e-25
1.77992e-23
-2.30437e-24
1.49954e-23
6.37605e-25
9.49301e-24
8.10818e-25
1.11253e-23
1.57814e-24
8.67445e-24
7.94305e-26
1.1082e-23
1.73554e-24
4.84594e-24
-5.699e-25
-7.14091e-24
-9.74073e-25
-1.97263e-25
-1.97982e-24
2.90466e-23
-2.22606e-24
3.23028e-23
-2.16805e-24
3.07102e-23
-1.61495e-24
2.70122e-23
-9.16766e-25
2.74324e-23
-6.57627e-25
2.14905e-23
-3.92244e-25
3.04163e-23
1.40989e-25
2.27897e-23
-9.62631e-26
1.83139e-23
-1.4015e-24
1.3619e-23
-2.26873e-24
1.57132e-23
6.13834e-25
7.86188e-24
1.36734e-24
1.21925e-23
1.53982e-24
4.99586e-24
1.80649e-26
8.0425e-24
9.10692e-25
-8.19684e-24
8.26621e-26
-2.44829e-24
-2.95571e-26
-4.03236e-25
-1.90856e-24
2.40671e-23
-2.10981e-24
2.87392e-23
-2.30145e-24
2.90028e-23
-1.72754e-24
3.2184e-23
-7.82108e-25
2.58208e-23
-3.3769e-25
2.37662e-23
-3.89402e-25
3.58081e-23
-2.21194e-25
2.19515e-23
-4.17501e-25
8.23526e-24
-1.5411e-24
9.18916e-24
-2.23711e-24
1.54028e-23
5.76721e-25
6.37647e-24
1.56786e-24
1.20458e-23
1.56167e-24
-5.36831e-24
-2.53811e-25
1.45793e-24
1.1928e-24
-8.14231e-24
3.43225e-25
-2.79815e-24
7.40098e-25
-5.62773e-25
-1.8133e-24
2.34818e-23
-2.08246e-24
3.30693e-23
-2.12036e-24
2.67742e-23
-2.02369e-24
3.21216e-23
-3.39552e-25
3.37477e-23
-2.1074e-25
1.88245e-23
-6.40096e-25
3.1669e-23
-5.32764e-25
1.99314e-23
-2.73487e-25
1.8299e-23
-1.67095e-24
1.47557e-24
-2.25072e-24
1.41843e-23
8.63433e-25
2.69082e-24
1.04125e-24
1.65012e-23
1.44561e-24
-1.62251e-24
-4.50953e-25
3.40106e-24
1.24962e-24
-5.39928e-24
3.86489e-25
-1.5722e-24
-1.19699e-24
-7.01236e-25
-1.60493e-24
1.81091e-23
-2.19308e-24
2.8663e-23
-1.8043e-24
2.59251e-23
-1.87454e-24
3.13902e-23
-7.83263e-25
2.9885e-23
1.15582e-25
1.74627e-23
-7.06277e-25
2.94681e-23
-1.15269e-24
9.67185e-24
-5.61075e-25
1.62786e-23
-1.18088e-24
1.43877e-24
-2.50321e-24
1.34341e-23
9.80912e-25
1.51383e-23
8.05519e-25
1.23433e-23
1.44795e-24
1.15171e-24
-7.26954e-25
2.95076e-24
1.4367e-24
-1.21562e-23
5.89995e-25
-1.11283e-23
-9.41854e-24
-8.61816e-25
-2.76438e-24
2.31517e-23
-1.20733e-24
2.59127e-23
-2.03041e-24
2.45112e-23
-1.64717e-24
2.05172e-23
-1.98636e-24
2.01298e-23
-1.10727e-24
2.82283e-23
3.6755e-25
1.99582e-23
-1.01132e-24
2.64611e-23
-1.24416e-24
1.00399e-23
-9.72039e-25
1.59027e-23
-8.57695e-25
5.66613e-24
-2.13146e-24
1.48116e-23
7.95007e-25
1.07866e-23
3.84381e-25
1.41913e-23
1.00543e-24
1.09627e-24
-6.87418e-25
5.93389e-24
1.0442e-24
-8.74226e-24
6.40083e-25
-5.91262e-24
-6.53088e-24
-7.92011e-25
-2.5321e-24
2.20509e-23
-1.26809e-24
2.28743e-23
-2.06421e-24
1.99772e-23
-1.65102e-24
1.59665e-23
-1.82357e-24
1.91463e-23
-1.33926e-24
2.30921e-23
1.32435e-25
1.69435e-23
-1.14322e-24
2.29326e-23
-1.27268e-24
8.68152e-24
-9.08476e-25
1.49315e-23
-9.11386e-25
6.4235e-24
-2.09162e-24
1.29403e-23
2.85119e-25
8.81763e-24
3.90239e-25
1.28723e-23
5.74991e-25
1.72403e-24
-8.89045e-25
3.60882e-24
8.36186e-25
-9.17782e-24
8.71939e-25
-1.68382e-24
-4.61042e-24
-2.45296e-25
-2.58479e-24
3.3023e-23
-2.46381e-24
2.18772e-23
-1.44038e-24
2.30015e-23
-2.01091e-24
1.52275e-23
-1.43993e-24
1.4311e-23
-1.61841e-24
1.83183e-23
-1.10173e-24
2.35931e-23
7.9301e-26
1.6654e-23
-1.25939e-24
2.33825e-23
-1.31973e-24
8.95511e-24
-7.94563e-25
1.87207e-23
-7.99641e-25
6.3177e-24
-1.84279e-24
9.18925e-24
6.34995e-25
1.06199e-23
3.70766e-25
1.40532e-23
3.24107e-25
7.60186e-24
-9.78066e-25
5.57402e-24
9.14396e-25
-1.01345e-23
5.18932e-25
-1.92086e-24
1.49308e-25
2.69488e-25
-2.93771e-24
3.2481e-23
-2.26847e-24
2.53223e-23
-1.83348e-24
2.17963e-23
-1.99118e-24
1.8031e-23
-1.35955e-24
1.35827e-23
-1.62055e-24
1.41485e-23
-9.13926e-25
2.08638e-23
1.20682e-25
1.51564e-23
-1.27284e-24
2.34051e-23
-1.47483e-24
9.96506e-24
-1.06452e-24
1.67734e-23
-9.33035e-25
5.28063e-24
-1.63212e-24
8.50013e-24
8.59722e-25
8.84538e-24
2.42601e-25
1.5242e-23
-1.408e-25
9.18873e-24
-1.43656e-24
6.40352e-24
1.14864e-24
-1.81766e-24
3.65992e-26
-4.44946e-24
-3.67756e-24
2.88972e-25
-3.22058e-24
1.67378e-23
-2.35014e-24
2.86269e-23
-1.80683e-24
1.5794e-23
-2.17251e-24
1.73363e-23
-1.34119e-24
1.36152e-23
-1.58205e-24
1.07146e-23
-9.32283e-25
2.0012e-23
2.09543e-25
1.47496e-23
-1.36229e-24
2.02088e-23
-1.29212e-24
1.30009e-23
-1.06187e-24
1.6649e-23
-1.22639e-24
1.52971e-23
-1.48611e-24
1.84371e-23
7.52872e-25
1.73805e-23
8.2666e-27
1.70872e-23
-2.69914e-25
-6.65065e-24
-1.12763e-24
-5.04227e-24
8.15242e-25
-4.05332e-24
-3.00981e-25
-1.29985e-23
-3.88171e-24
1.6044e-25
-2.72049e-24
2.14666e-23
-2.68868e-24
2.89401e-23
-1.89997e-24
2.49021e-23
-2.42036e-24
2.16956e-23
-1.24183e-24
1.22856e-23
-1.5641e-24
1.08769e-23
-7.63757e-25
1.81262e-23
3.85929e-25
1.70684e-23
-1.5386e-24
2.0542e-23
-1.21201e-24
1.43335e-23
-1.13221e-24
1.66927e-23
-1.08006e-24
1.41644e-23
-1.43071e-24
1.83695e-23
9.45331e-25
1.58429e-23
-4.90756e-25
8.88117e-24
7.6251e-26
2.56308e-24
-9.89912e-25
-8.47582e-24
3.33625e-25
-9.47889e-24
5.01339e-25
-8.90761e-24
-4.27895e-24
8.71688e-26
-2.46464e-24
2.1091e-23
-2.72752e-24
2.89826e-23
-1.85394e-24
2.31478e-23
-2.62748e-24
1.75354e-23
-1.24423e-24
1.52013e-23
-1.26704e-24
1.53513e-23
-8.26005e-25
1.74883e-23
4.86647e-25
2.65021e-23
-1.66342e-24
6.31818e-24
-1.22259e-24
1.75427e-23
-9.64939e-25
1.8089e-23
-1.05396e-24
1.93263e-23
-1.56053e-24
1.79911e-23
5.27401e-25
1.47734e-23
-6.34456e-25
6.27744e-24
-4.46389e-25
3.96911e-24
-8.51607e-25
-1.16649e-23
3.30791e-25
-1.42219e-23
1.90821e-25
-9.09222e-24
-5.55256e-24
3.11498e-25
-2.34206e-24
2.0427e-23
-2.82819e-24
2.48051e-23
-2.22583e-24
2.57555e-23
-2.66728e-24
1.73869e-23
-1.07607e-24
1.73013e-23
-1.3195e-24
2.05531e-23
-4.5232e-25
1.90365e-23
-5.3473e-26
2.53007e-23
-1.4305e-24
7.52908e-24
-1.22099e-24
1.69171e-23
-8.31504e-25
2.157e-23
-1.02061e-24
1.631e-23
-2.05196e-24
1.94588e-23
5.7329e-25
2.39488e-23
-3.17019e-25
1.1607e-23
-1.34716e-24
-1.12e-23
-1.12534e-24
4.16965e-24
7.69345e-25
1.30257e-25
6.42145e-25
-9.77988e-24
-1.00142e-23
1.55694e-25
-2.35429e-24
1.52465e-23
-2.51526e-24
2.38524e-23
-2.3294e-24
2.53269e-23
-2.66041e-24
1.40195e-23
-1.00291e-24
1.6896e-23
-1.11046e-24
2.18155e-23
-2.87124e-25
2.08186e-23
-4.21555e-25
1.95304e-23
-1.078e-24
1.00185e-23
-9.9952e-25
1.83223e-23
-9.32636e-25
2.14114e-23
-9.94883e-25
6.75218e-24
-1.77924e-24
1.51186e-23
1.94257e-26
2.63243e-23
-8.80809e-25
4.37591e-24
-9.27631e-25
-5.66497e-24
-1.41497e-24
5.26644e-25
3.38199e-25
2.60796e-24
3.8694e-25
-9.34367e-24
5.16147e-24
9.48201e-25
-2.34458e-24
1.46534e-23
-2.36838e-24
1.89617e-23
-2.68937e-24
1.59813e-23
-2.75077e-24
1.43054e-23
-4.78953e-25
3.09926e-23
-1.03428e-24
2.34374e-23
-6.30241e-25
2.03034e-23
-1.98917e-25
2.24833e-23
-1.05866e-24
1.07192e-23
-7.30483e-25
2.88394e-23
-1.28644e-24
1.67e-23
-8.88164e-25
1.61423e-23
-1.39549e-24
2.55286e-23
-7.5176e-25
2.00206e-23
-1.11852e-24
1.01662e-23
-8.32689e-25
-8.08246e-26
-1.17239e-24
8.80456e-25
-1.54494e-25
2.24465e-24
7.60051e-25
5.85912e-24
5.01021e-24
5.12675e-25
-2.30271e-24
1.0533e-23
-2.29852e-24
2.34498e-23
-2.52463e-24
2.0618e-23
-2.43345e-24
1.26444e-23
-7.42843e-25
3.04171e-23
-9.17833e-25
2.37589e-23
-7.03263e-25
2.01276e-23
-3.35029e-25
2.63328e-23
-7.07498e-25
1.48284e-23
-8.35698e-25
2.86782e-23
-1.21702e-24
1.63701e-23
-8.3458e-25
1.49307e-23
-1.62227e-24
2.38738e-23
-5.19408e-25
1.78454e-23
-1.51625e-24
1.35972e-23
-8.70139e-25
8.8442e-25
-1.05379e-24
-1.93777e-25
1.08747e-25
1.78711e-24
6.83171e-25
-1.03216e-23
1.04626e-23
2.59595e-25
-2.09427e-24
1.08129e-23
-2.44929e-24
1.95973e-23
-2.66717e-24
2.00922e-23
-2.10414e-24
1.46243e-23
-6.98801e-25
2.994e-23
-9.49012e-25
2.84014e-23
-7.60953e-25
2.02382e-23
-2.30637e-25
2.56336e-23
-5.77933e-25
1.6323e-23
-1.05395e-24
2.86744e-23
-1.02395e-24
1.59631e-23
-5.69518e-25
1.43235e-23
-1.87043e-24
2.01527e-23
-6.50961e-25
2.55592e-23
-1.78086e-24
1.62032e-23
-9.0378e-25
2.09539e-25
-1.26115e-24
5.96911e-25
1.85775e-25
5.39363e-24
8.8276e-25
-5.57602e-24
-4.61023e-24
-2.18154e-25
-1.99719e-24
1.5105e-23
-2.45229e-24
2.11537e-23
-2.62551e-24
2.43021e-23
-1.91236e-24
1.27403e-23
-5.94565e-25
3.28418e-23
-1.08515e-24
1.84819e-23
-6.61831e-25
2.19785e-23
-2.49044e-25
2.97671e-23
-5.71848e-25
1.19843e-23
-1.15814e-24
2.38592e-23
-1.07568e-24
1.8817e-23
-6.05839e-25
1.76933e-23
-1.71814e-24
1.91867e-23
-1.06885e-24
2.47236e-23
-2.05585e-24
1.84706e-23
-9.97089e-25
3.79631e-24
-1.2858e-24
1.85017e-24
-1.61039e-25
3.98273e-25
7.46553e-25
-1.76931e-24
-4.41644e-24
2.35239e-25
-1.75786e-24
1.47338e-23
-2.4007e-24
1.99693e-23
-2.62151e-24
2.39806e-23
-1.74839e-24
1.57e-23
-6.55558e-25
3.25498e-23
-7.65904e-25
1.94217e-23
-9.68087e-25
2.33379e-23
-3.14112e-25
2.35692e-23
-5.12567e-25
1.15119e-23
-1.01793e-24
2.28491e-23
-1.05668e-24
1.7363e-23
-3.19688e-25
1.18841e-23
-1.4893e-24
8.41878e-24
-1.18821e-24
2.43652e-23
-2.37255e-24
2.5484e-23
-1.23768e-24
3.77874e-24
-1.34461e-24
8.74872e-25
-2.90254e-25
-2.23922e-24
5.92125e-25
-2.94825e-24
-4.74004e-24
4.86039e-25
-1.56908e-24
1.31688e-23
-2.40003e-24
1.94682e-23
-2.64207e-24
2.41658e-23
-1.46041e-24
1.64176e-23
-7.8787e-25
3.25437e-23
-4.85335e-25
2.01117e-23
-1.1886e-24
1.47229e-23
-3.7308e-25
1.8187e-23
-3.73462e-25
1.0579e-23
-1.22711e-24
1.93952e-23
-1.10694e-24
2.49186e-23
-5.14152e-25
9.68174e-24
-1.11959e-24
8.13038e-24
-1.24654e-24
2.28638e-23
-2.78561e-24
1.11391e-23
-1.25991e-24
3.93255e-24
-1.27073e-24
3.55853e-24
-4.05883e-25
1.45058e-24
6.74962e-25
5.07158e-25
-3.19133e-24
2.31175e-25
-1.41742e-24
1.10379e-23
-2.31011e-24
1.58089e-23
-2.65134e-24
1.97955e-23
-1.10819e-24
2.62841e-23
-9.03535e-25
3.39149e-23
-4.27371e-25
2.49941e-23
-1.229e-24
2.08099e-23
-2.01264e-25
2.18187e-23
-3.37528e-25
9.22865e-24
-1.03671e-24
1.83397e-23
-1.27202e-24
2.23188e-23
-5.17797e-25
7.41852e-24
-8.50375e-25
3.07193e-24
-1.24578e-24
1.32006e-23
-2.77428e-24
-2.58332e-24
-1.29806e-24
4.64471e-24
-1.57595e-24
2.9519e-24
-2.37547e-25
-7.01679e-25
4.16467e-25
1.55529e-24
2.05855e-24
2.89186e-25
-1.17301e-24
1.88022e-23
-2.36735e-24
1.21014e-23
-2.42625e-24
1.92239e-23
-1.28358e-24
2.66187e-23
-8.22717e-25
2.91749e-23
-5.61093e-25
2.61116e-23
-1.28048e-24
1.23371e-23
-1.9846e-25
1.66646e-23
-2.38906e-25
6.12101e-24
-8.68303e-25
1.76351e-23
-1.43163e-24
2.07588e-23
-5.88388e-25
6.11259e-24
-7.21919e-25
6.74859e-24
-1.62493e-24
9.70248e-24
-2.80821e-24
9.51936e-24
-1.19338e-24
1.40148e-23
-1.62133e-24
5.74888e-24
-2.82962e-25
6.61865e-25
4.77384e-25
1.23122e-23
2.66521e-24
4.84949e-26
-1.25258e-24
1.73448e-23
-2.18279e-24
7.66915e-24
-2.24617e-24
1.48126e-23
-1.06552e-24
2.57252e-23
-8.08019e-25
2.83892e-23
-7.53645e-25
2.26314e-23
-1.11973e-24
1.33172e-23
-2.6046e-25
9.89097e-24
7.00919e-26
1.5243e-24
-9.66478e-25
1.76219e-23
-1.78286e-24
1.59845e-23
-3.77889e-25
9.20167e-25
-7.52789e-25
5.39196e-24
-1.61712e-24
6.50669e-25
-2.80707e-24
1.53813e-25
-1.23111e-24
1.21684e-23
-1.76897e-24
7.21596e-24
-1.88341e-25
1.11418e-24
3.69511e-25
1.40749e-23
-1.27789e-23
-3.90461e-25
-1.38532e-24
1.62665e-23
-1.99332e-24
7.65442e-24
-2.10207e-24
1.04909e-23
-7.01094e-25
2.82032e-23
-1.01986e-24
2.39449e-23
-1.03988e-24
1.88336e-23
-1.20782e-24
1.38023e-23
-2.05773e-25
7.98762e-24
3.60617e-25
1.77037e-24
-7.13103e-25
1.387e-23
-2.13992e-24
1.16719e-23
-2.68138e-25
1.10281e-23
-9.09975e-25
8.21503e-24
-1.68599e-24
6.71225e-24
-2.53437e-24
7.1559e-24
-1.32828e-24
1.20553e-23
-1.82662e-24
7.36098e-24
-9.13986e-27
5.13999e-24
4.70999e-26
1.55673e-23
-6.33175e-24
-3.46241e-25
-1.51164e-24
1.32989e-23
-1.88331e-24
1.1693e-23
-1.80638e-24
1.10157e-23
-7.78376e-25
2.83482e-23
-1.11189e-24
2.46612e-23
-9.46022e-25
2.03732e-23
-1.35357e-24
1.45073e-23
-1.78636e-25
3.4612e-24
5.42734e-25
-5.4263e-26
-7.45595e-25
1.28571e-23
-2.02185e-24
1.27781e-23
-2.57638e-25
9.29017e-24
-9.87446e-25
8.18684e-24
-1.7287e-24
7.89772e-24
-2.6144e-24
4.57901e-24
-1.18606e-24
2.16961e-23
-1.99134e-24
3.58708e-24
-4.60802e-27
6.41725e-24
-1.22495e-25
2.07684e-23
-5.24046e-24
-4.51192e-25
-1.43129e-24
9.05696e-24
-1.95039e-24
1.22909e-23
-1.40742e-24
1.49578e-23
-8.56433e-25
2.32678e-23
-1.03595e-24
2.40088e-23
-9.32422e-25
1.65257e-23
-1.64426e-24
1.51597e-23
-1.49088e-25
7.19231e-24
8.01403e-25
8.63973e-24
-7.62217e-25
8.90077e-24
-2.12612e-24
4.00577e-24
-9.32469e-26
1.49267e-23
-1.14552e-24
3.90142e-24
-1.4983e-24
4.21842e-24
-2.69594e-24
6.79165e-24
-1.41433e-24
2.52624e-23
-1.79161e-24
2.99829e-24
3.38149e-27
3.53892e-24
-4.05152e-25
2.13957e-23
-2.12638e-24
-7.10227e-25
-1.24619e-24
1.31481e-23
-1.78928e-24
1.37363e-23
-1.28978e-24
1.54967e-23
-8.39401e-25
2.31353e-23
-1.15736e-24
3.56762e-23
-9.73727e-25
1.62615e-23
-1.61675e-24
1.54961e-23
-1.44387e-25
7.57255e-24
7.27727e-25
1.17559e-23
-5.48046e-25
4.32873e-24
-2.03534e-24
7.05614e-25
-3.07489e-25
1.14458e-23
-1.09283e-24
3.45769e-24
-1.24336e-24
4.95618e-24
-2.47124e-24
-2.73082e-24
-1.84027e-24
1.483e-23
-1.88948e-24
-5.68138e-24
2.07282e-25
1.19506e-23
-8.98381e-25
1.3099e-23
-1.43697e-24
-7.01577e-25
-1.16627e-24
1.31841e-23
-1.6723e-24
1.04954e-23
-1.15107e-24
1.55135e-23
-5.01619e-25
1.75925e-23
-1.503e-24
2.76231e-23
-9.10369e-25
1.54118e-23
-1.84162e-24
1.70649e-23
6.52007e-26
2.22252e-23
5.97384e-25
1.65119e-23
-4.2273e-25
4.04757e-24
-2.08401e-24
-2.7911e-24
-2.35162e-25
1.82566e-23
-1.24006e-24
-7.36866e-25
-1.05216e-24
3.61166e-24
-2.46726e-24
-4.93982e-24
-1.97926e-24
1.05333e-23
-1.58998e-24
-4.5779e-24
-1.2201e-25
1.06287e-23
-9.25706e-25
1.44114e-23
3.89451e-24
-9.39173e-25
-1.19887e-24
1.3631e-23
-1.51957e-24
1.53647e-23
-1.07046e-24
1.56316e-23
-3.24562e-25
1.45376e-23
-1.59798e-24
2.885e-23
-8.65688e-25
1.93436e-23
-1.82658e-24
1.78781e-23
-8.50405e-26
2.0772e-23
5.39625e-25
1.62662e-23
-6.45493e-25
7.71449e-24
-1.70935e-24
-6.85191e-24
-4.34954e-25
1.19018e-23
-1.31125e-24
-4.98664e-24
-1.0295e-24
-1.90698e-24
-2.50605e-24
-1.29623e-23
-2.03209e-24
1.88895e-25
-1.42277e-24
-3.75922e-24
-2.58641e-25
1.03388e-23
-8.96602e-25
4.69158e-24
-2.54525e-25
-1.09161e-24
-1.61032e-24
-1.03046e-24
-1.13678e-25
-1.60954e-24
1.83154e-23
-9.36656e-25
1.46179e-23
-1.65837e-24
1.79041e-23
-9.54789e-26
2.00645e-23
4.52564e-25
1.53614e-23
-7.22774e-25
-2.7517e-24
-1.56511e-24
-1.08258e-23
-4.54864e-25
1.61002e-23
-1.18645e-24
-7.47868e-25
-1.09388e-24
2.18336e-24
-2.52057e-24
-2.71346e-23
-1.75581e-24
-1.06341e-23
-1.36343e-24
-1.05546e-24
-4.37201e-25
1.00815e-23
-9.48229e-25
4.94692e-25
1.42113e-24
-1.75324e-24
-7.29138e-25
-1.6864e-24
-9.3245e-26
1.39616e-25
4.00875e-24
-6.38063e-25
-3.53231e-24
-1.49008e-24
-1.5194e-23
-5.36026e-25
1.10715e-23
-1.39666e-24
-3.10811e-25
-1.24382e-24
6.45422e-24
-2.39272e-24
-2.46614e-23
-1.46106e-24
-1.1033e-23
-1.11317e-24
8.247e-24
-5.86807e-25
1.52756e-23
-9.14427e-25
-4.96616e-24
-1.38263e-23
-4.36015e-26
-4.81473e-25
-1.25911e-24
-4.36849e-25
-1.33289e-24
-1.66759e-24
-2.2097e-24
-1.1803e-24
-1.31069e-24
-6.39202e-25
-1.0726e-24
1.84848e-24
-1.26583e-25
-2.6092e-24
5.0048e-24
2.45049e-24
4.56123e-24
-1.47338e-24
6.5763e-24
2.73142e-24
4.43174e-24
-2.1242e-24
6.03298e-24
2.95287e-24
3.6291e-24
-2.6064e-24
5.22708e-25
3.9781e-24
3.66265e-24
3.13195e-24
-6.62468e-25
-2.768e-24
6.43616e-25
-3.85612e-24
2.32802e-24
2.46422e-24
-1.82098e-24
-2.64689e-24
1.08599e-24
-2.35709e-24
2.6574e-24
5.13122e-24
6.69861e-24
1.81115e-24
-1.90712e-24
-2.33343e-24
1.83042e-24
-2.40739e-24
2.89573e-24
6.50231e-25
3.24299e-24
1.69572e-24
-5.37205e-24
-2.20931e-24
2.10554e-24
-1.87158e-24
3.38152e-24
5.06099e-24
5.30633e-24
1.73086e-24
-9.16361e-24
-1.84782e-24
2.52639e-24
1.84353e-24
2.82129e-24
5.40065e-24
1.71772e-24
1.68156e-24
4.36061e-24
1.99128e-24
-9.38005e-24
-9.04709e-25
2.71468e-24
2.33202e-24
3.10253e-24
6.38679e-24
2.14953e-24
1.32563e-23
7.81947e-24
2.25697e-24
-1.24802e-23
-3.72493e-27
2.95597e-24
2.57856e-24
3.43387e-24
5.9679e-24
1.96909e-24
1.03008e-23
8.45343e-24
2.22877e-24
-5.58975e-24
5.5966e-25
3.88876e-24
1.71648e-23
3.71372e-24
7.59367e-24
1.58452e-24
1.35884e-23
3.7091e-24
3.31232e-24
4.13081e-25
6.12601e-25
3.72973e-24
2.64179e-23
4.12908e-24
1.16761e-23
9.84301e-25
6.11773e-24
7.46703e-24
4.31114e-24
6.12683e-24
4.84645e-25
3.11706e-24
1.57097e-23
3.61094e-24
1.10504e-23
9.46031e-25
6.02381e-24
5.31862e-24
4.02739e-24
1.32732e-23
-1.57836e-25
3.05324e-24
1.11678e-23
3.09238e-24
1.03146e-23
1.14302e-24
6.79399e-24
1.61549e-24
-1.84296e-25
3.07206e-26
4.19315e-24
4.95808e-24
-8.68464e-25
2.81516e-24
6.92932e-24
3.04146e-24
4.47579e-24
6.74182e-25
4.71862e-24
1.7662e-24
8.41409e-24
6.27544e-24
4.41372e-24
1.67664e-23
-8.02677e-25
2.48134e-24
4.13921e-24
3.25534e-24
1.26406e-23
6.63609e-25
7.13543e-24
1.6164e-24
5.52465e-24
8.44595e-25
1.64891e-24
1.45947e-23
3.60058e-24
1.16055e-23
-1.75895e-24
2.99879e-24
8.12315e-24
2.60681e-24
6.99156e-24
8.93011e-25
3.48287e-24
1.25927e-24
9.12587e-24
1.16001e-24
2.32239e-24
-5.31691e-25
1.10269e-23
-2.69301e-24
3.99401e-24
1.50128e-23
-1.64277e-24
2.65003e-24
3.03899e-24
2.43794e-24
6.59213e-24
1.04497e-24
-4.46191e-25
1.18973e-24
-2.96195e-24
1.41559e-24
6.12638e-24
-1.2563e-24
6.7083e-24
-1.40324e-24
-4.19965e-24
1.22519e-24
3.65253e-24
1.76613e-23
-1.64715e-24
2.65481e-24
-1.27606e-24
2.37892e-24
1.13026e-23
5.7795e-25
-9.18875e-25
1.47809e-24
5.48206e-24
1.07926e-24
1.56055e-24
-1.36082e-24
2.0003e-24
-1.39419e-24
1.11877e-23
1.84313e-24
1.40946e-23
1.5529e-23
3.40297e-24
1.59808e-23
-1.83329e-24
2.33013e-24
3.37848e-24
2.3227e-24
1.5266e-23
2.46947e-25
-5.39801e-25
1.74701e-24
1.41027e-23
6.38769e-25
6.12326e-24
-6.0315e-25
1.2846e-23
-1.38432e-24
1.07864e-23
1.99752e-24
2.03267e-23
2.14485e-23
3.40665e-24
1.88866e-23
-1.64379e-24
2.4942e-24
-6.23386e-24
1.90695e-24
3.22436e-24
8.61511e-25
-9.15791e-24
1.81974e-24
2.14217e-24
5.76677e-25
2.45711e-24
-3.88387e-25
1.30132e-23
-1.18087e-24
1.16677e-23
1.90218e-24
1.69071e-23
1.419e-23
3.08793e-24
1.81011e-23
-1.9605e-24
2.20419e-24
2.65442e-25
1.86717e-24
7.22357e-24
7.8161e-25
-9.74959e-24
1.68275e-24
9.70106e-25
8.96807e-25
-1.8197e-24
-2.6089e-25
8.37797e-24
-1.06172e-24
1.09485e-23
1.5735e-24
1.41555e-23
5.06631e-24
3.14127e-24
1.36122e-23
-2.09869e-24
2.10778e-24
-8.02121e-24
1.46533e-24
4.09422e-24
1.22223e-24
-1.11296e-23
1.65039e-24
4.89657e-25
1.29989e-24
-2.61261e-24
-4.81249e-25
4.67666e-24
-8.68517e-25
2.3961e-25
1.21102e-24
8.09804e-24
6.00336e-24
2.6839e-24
9.14695e-24
-2.26834e-24
1.64807e-24
-5.31185e-24
1.70048e-24
8.24351e-24
1.09686e-24
-1.11565e-23
1.83129e-24
-5.14637e-24
1.51175e-24
-4.30535e-24
-1.92575e-26
4.7577e-24
-7.79698e-25
1.10964e-24
1.16434e-24
4.96696e-24
6.59719e-24
2.29077e-24
8.5063e-24
-2.0958e-24
1.84079e-24
-3.9225e-24
1.04309e-24
8.9132e-24
9.76377e-25
-1.15975e-23
1.7909e-24
-1.24314e-24
1.58161e-24
-4.33562e-24
-3.83461e-25
-4.88343e-24
-5.23037e-25
6.56166e-25
8.95711e-25
3.83009e-24
5.43426e-24
1.51465e-24
5.20131e-24
-2.27428e-24
2.44752e-24
-9.03761e-25
4.35146e-25
4.80112e-25
1.24249e-24
-1.25477e-23
2.09506e-24
-1.42326e-24
1.36718e-24
-8.91605e-24
-2.42333e-25
-7.20903e-24
-5.01924e-25
1.2914e-24
1.19779e-24
2.39577e-24
6.62226e-24
1.64792e-24
5.42421e-24
-1.86033e-24
2.22105e-24
2.25753e-24
3.63096e-25
2.1069e-24
1.00328e-24
-2.40975e-24
2.23691e-24
8.29239e-24
1.61105e-24
-8.9072e-24
-9.15959e-26
-1.43219e-23
-3.48194e-25
-7.69917e-24
1.0953e-24
6.0851e-25
5.32878e-24
1.39887e-24
9.70473e-24
-1.36484e-24
1.43693e-24
2.89214e-24
8.5937e-25
1.67636e-24
9.57967e-25
-2.02261e-24
1.71413e-24
1.92301e-23
1.21047e-24
-7.98672e-24
8.02831e-26
-1.42033e-23
-2.46689e-25
-2.38041e-24
1.41108e-24
2.48622e-26
5.17475e-24
1.51459e-24
1.3706e-23
-1.41326e-24
1.5879e-24
2.12321e-24
6.62201e-25
7.22768e-24
1.16758e-24
-3.78335e-24
1.48062e-24
1.45329e-23
1.20571e-24
-6.89002e-24
3.54565e-25
-9.61653e-24
-1.72851e-25
-9.67019e-25
1.71536e-24
1.70672e-24
1.90085e-24
1.23502e-24
1.19307e-23
-1.29507e-24
1.1824e-24