/*--------------------------------*- C++ -*----------------------------------*\
  =========                 |
  \\      /  F ield         | OpenFOAM: The Open Source CFD Toolbox
   \\    /   O peration     | Website:  https://openfoam.org
    \\  /    A nd           | Version:  7
     \\/     M anipulation  |
\*---------------------------------------------------------------------------*/
FoamFile
{
    version     2.0;
    format      ascii;
    class       volScalarField;
    location    "12000";
    object      strainRate;
}
// * * * * * * * * * * * * * * * * * * * * * * * * * * * * * * * * * * * * * //

dimensions      [0 0 -1 0 0 0 0];

internalField   nonuniform List<scalar> 
4844
(
0.00012143
0.000121779
0.000122156
0.000122653
0.000122902
0.000123189
0.000123595
0.00012397
0.000124361
0.000124777
0.000125245
0.000123934
0.000124079
0.000124272
0.00012453
0.000124852
0.000125203
0.000125576
0.000125979
0.000126473
0.000126902
0.000127349
0.000125206
0.00012522
0.000125352
0.00012552
0.000125793
0.000126103
0.000126433
0.000126768
0.000127111
0.000127477
0.000127849
0.000128291
0.000128628
0.000128913
0.000129138
0.000129991
0.000126279
0.000126251
0.000126328
0.000126479
0.000126713
0.000126983
0.000127271
0.000127562
0.000127809
0.000128113
0.000128409
0.000128688
0.000128961
0.000129189
0.00012936
0.000130082
0.000127169
0.000127143
0.000127201
0.000127337
0.000127538
0.000127771
0.000128018
0.000128263
0.000128481
0.000128732
0.000128974
0.000129149
0.000129363
0.000129538
0.000129665
0.000130294
0.0001279
0.000127965
0.00012809
0.000128263
0.000128459
0.000128668
0.000128872
0.000129056
0.000129258
0.000129446
0.000129589
0.000129754
0.000129878
0.000129981
0.000130774
0.000128547
0.00012862
0.000128737
0.000128883
0.000129045
0.000129216
0.000129381
0.000129528
0.000129685
0.000129825
0.00012993
0.000130056
0.000130225
0.000130466
0.00013171
0.00012908
0.000129169
0.000129277
0.000129397
0.000129525
0.000129659
0.000129788
0.000129893
0.00013001
0.000130144
0.000130302
0.000130517
0.000130919
0.000131521
0.00013314
0.000129464
0.000129511
0.000129614
0.000129709
0.000129803
0.000129895
0.000129995
0.000130108
0.000130252
0.000130432
0.000130693
0.000131069
0.000131565
0.000132262
0.000133199
0.00013497
0.000129781
0.000129865
0.000129956
0.000130032
0.000130127
0.000130255
0.000130409
0.000130618
0.000130944
0.000131345
0.000131845
0.000132468
0.000133241
0.00013416
0.000135283
0.000137114
0.000130124
0.0001302
0.000130322
0.000130454
0.000130649
0.000130939
0.000131289
0.000131715
0.000132248
0.000132872
0.00013358
0.000134381
0.000135323
0.000136396
0.000137626
0.000139495
0.000130667
0.000130787
0.000131051
0.000131364
0.000131749
0.000132223
0.000132772
0.000133393
0.000134073
0.000134837
0.000135682
0.000136615
0.000137672
0.00013885
0.000140151
0.000142056
0.000131995
0.000131658
0.000131929
0.00013236
0.000132858
0.000133411
0.000134017
0.000134691
0.00013543
0.00013622
0.000137085
0.000138029
0.000139063
0.000140208
0.000141463
0.000142818
0.000144755
0.000132972
0.000133125
0.000133576
0.000134133
0.000134752
0.000135417
0.000136122
0.000136886
0.000137708
0.000138582
0.000139528
0.000140553
0.000141668
0.000142884
0.0001442
0.000145604
0.00014757
0.000134681
0.000134413
0.000134933
0.000135535
0.000136196
0.000136905
0.000137651
0.000138435
0.00013927
0.000140159
0.000141105
0.00014212
0.000143215
0.000144399
0.000145677
0.000147046
0.000148494
0.000150487
0.000136105
0.000136323
0.000137002
0.000137714
0.00013846
0.00013924
0.000140053
0.000140902
0.000141798
0.000142746
0.000143755
0.000144834
0.000145993
0.000147238
0.000148572
0.000149989
0.000151481
0.000153499
0.000138073
0.000138553
0.000139288
0.00014007
0.000140881
0.00014172
0.000142589
0.000143495
0.000144446
0.000145451
0.000146519
0.000147657
0.000148875
0.000150177
0.000151563
0.000153027
0.000154561
0.000156605
0.00014047
0.000141005
0.000141755
0.000142579
0.000143438
0.000144326
0.000145244
0.000146201
0.000147204
0.000148263
0.000149386
0.000150581
0.000151855
0.000153211
0.000154647
0.000156158
0.000157734
0.000159803
0.000143079
0.000143626
0.000144379
0.000145227
0.000146121
0.000147049
0.000148011
0.000149014
0.000150067
0.000151177
0.000152353
0.000153603
0.000154931
0.000156339
0.000157825
0.000159382
0.000160999
0.000163096
0.000145824
0.000146389
0.000147147
0.000148009
0.000148928
0.000149887
0.000150887
0.000151933
0.000153032
0.000154191
0.000155419
0.000156722
0.000158102
0.000159561
0.000161096
0.000162699
0.000164359
0.000166485
0.000148703
0.000149296
0.000150058
0.000150924
0.000151857
0.00015284
0.000153872
0.000154956
0.000156099
0.000157306
0.000158584
0.000159938
0.00016137
0.000162879
0.000164463
0.000166112
0.000167815
0.000169972
0.000151747
0.00015236
0.000153113
0.000153972
0.000154908
0.000155908
0.000156967
0.000158086
0.000159269
0.000160522
0.000161848
0.000163252
0.000164735
0.000166294
0.000167926
0.000169622
0.00017137
0.00017356
0.000154999
0.000155595
0.000156315
0.000157151
0.000158082
0.000159091
0.000160171
0.000161321
0.000162543
0.000163839
0.000165213
0.000166666
0.000168199
0.000169808
0.000171489
0.000173232
0.000175025
0.000177251
0.000158487
0.000159003
0.00015966
0.000160459
0.000161374
0.000162387
0.000163485
0.000164664
0.000165922
0.00016726
0.00016868
0.000170181
0.000171764
0.000173423
0.000175153
0.000176944
0.000178784
0.000181046
0.000162199
0.000162564
0.000163133
0.000163884
0.000164781
0.000165794
0.000166908
0.000168113
0.000169406
0.000170786
0.000172251
0.0001738
0.000175432
0.000177141
0.000178921
0.000180761
0.000182648
0.000184949
0.000166058
0.000166233
0.000166709
0.000167415
0.000168293
0.000169308
0.000170437
0.000171669
0.000172996
0.000174416
0.000175926
0.000177523
0.000179204
0.000180964
0.000182794
0.000184684
0.00018662
0.000188963
0.00016993
0.00016995
0.000170362
0.000171037
0.000171905
0.000172925
0.000174071
0.00017533
0.000176693
0.000178153
0.000179707
0.000181352
0.000183083
0.000184894
0.000186775
0.000188717
0.000190704
0.00019309
0.000173676
0.000173664
0.000174065
0.000174737
0.000175609
0.000176641
0.000177809
0.000179097
0.000180496
0.000181997
0.000183596
0.00018529
0.000187071
0.000188933
0.000190867
0.000192862
0.000194902
0.000197334
0.000177227
0.000177348
0.000177806
0.000178507
0.0001794
0.000180455
0.00018165
0.00018297
0.000184406
0.000185949
0.000187595
0.000189337
0.00019117
0.000193085
0.000195074
0.000197123
0.000199219
0.0002017
0.000180568
0.00018063
0.000181013
0.000181586
0.000182347
0.000183279
0.000184367
0.000185595
0.000186951
0.000188426
0.000190013
0.000191706
0.000193498
0.000195383
0.000197353
0.000199398
0.000201505
0.000203659
0.000206193
0.000183281
0.000184022
0.000184698
0.000185418
0.000186261
0.000187248
0.000188378
0.000189645
0.000191041
0.000192559
0.000194191
0.000195932
0.000197776
0.000199715
0.000201742
0.000203845
0.000206013
0.000208228
0.000210817
0.000186671
0.000186359
0.000187527
0.000188451
0.000189323
0.000190262
0.000191313
0.000192494
0.000193805
0.000195245
0.000196808
0.000198488
0.000200279
0.000202177
0.000204172
0.000206257
0.000208421
0.000210652
0.000212931
0.000215577
0.000189488
0.000189905
0.000191215
0.000192316
0.000193327
0.000194363
0.000195485
0.000196721
0.000198082
0.000199569
0.000201179
0.000202909
0.000204753
0.000206705
0.000208759
0.000210905
0.000213133
0.000215429
0.000217773
0.000220475
0.000192967
0.000193793
0.000195116
0.000196328
0.000197451
0.000198578
0.000199772
0.000201067
0.000202481
0.000204018
0.000205679
0.00020746
0.000209359
0.000211369
0.000213483
0.000215693
0.000217986
0.000220347
0.000222755
0.000225511
0.000197048
0.00019795
0.000199236
0.000200504
0.000201712
0.000202919
0.000204183
0.000205539
0.000207008
0.000208598
0.000210311
0.000212148
0.000214104
0.000216174
0.00021835
0.000220624
0.000222983
0.000225409
0.000227878
0.000230679
0.000201462
0.00020233
0.000203562
0.000204851
0.000206118
0.000207394
0.000208724
0.000210141
0.000211666
0.000213311
0.000215081
0.000216975
0.00021899
0.000221122
0.000223363
0.000225703
0.000228126
0.000230614
0.000233135
0.000235971
0.000206068
0.000206889
0.000208069
0.000209358
0.000210667
0.000212001
0.000213393
0.000214871
0.000216455
0.000218158
0.000219986
0.000221941
0.000224019
0.000226215
0.000228521
0.000230925
0.000233411
0.000235954
0.000238519
0.000241376
0.000210796
0.000211588
0.000212725
0.000214008
0.000215347
0.000216733
0.000218185
0.000219724
0.000221369
0.000223133
0.000225023
0.000227041
0.000229183
0.000231444
0.000233815
0.000236283
0.000238827
0.000241419
0.000244017
0.000246884
0.000215601
0.000216387
0.000217496
0.000218774
0.000220139
0.000221573
0.000223084
0.000224685
0.000226394
0.000228223
0.000230179
0.000232262
0.00023447
0.000236797
0.000239232
0.000241761
0.00024436
0.000246993
0.000249616
0.000252487
0.000220454
0.000221251
0.000222347
0.000223627
0.000225019
0.000226501
0.000228072
0.000229738
0.000231514
0.000233411
0.000235436
0.000237587
0.000239862
0.000242254
0.000244752
0.00024734
0.000249989
0.000252661
0.000255309
0.000258191
0.000225339
0.000226157
0.000227255
0.000228546
0.00022997
0.000231502
0.000233133
0.000234866
0.000236711
0.000238681
0.000240776
0.000242996
0.000245337
0.000247793
0.000250354
0.000252999
0.000255698
0.000258412
0.000261097
0.000264023
0.000230264
0.00023111
0.00023222
0.00023353
0.00023499
0.000236571
0.00023826
0.00024006
0.000241977
0.00024402
0.000246185
0.000248472
0.000250878
0.000253399
0.000256021
0.000258724
0.000261478
0.000264248
0.000267002
0.000270034
0.000235275
0.000236151
0.000237278
0.00023861
0.000240106
0.000241731
0.000243471
0.000245333
0.00024732
0.000249432
0.000251664
0.000254015
0.000256485
0.000259069
0.000261754
0.00026452
0.00026734
0.000270191
0.000273068
0.000276304
0.000240469
0.000241375
0.000242519
0.000243867
0.000245388
0.000247039
0.000248817
0.000250729
0.000252778
0.00025495
0.000257239
0.000259649
0.000262182
0.000264832
0.000267584
0.000270421
0.000273326
0.000276297
0.000279371
0.000282943
0.000246
0.000246931
0.000248085
0.000249433
0.000250953
0.000252603
0.000254396
0.000256341
0.000258433
0.000260645
0.000262978
0.000265443
0.000268038
0.000270756
0.000273582
0.000276505
0.000279521
0.00028266
0.000286017
0.000290076
0.000252071
0.00025302
0.000254172
0.000255491
0.000256963
0.000258575
0.000260357
0.000262306
0.000264409
0.000266632
0.000268996
0.000271511
0.000274171
0.000276962
0.000279874
0.000282901
0.00028606
0.000289417
0.00029314
0.000297826
0.0002589
0.00025986
0.000260994
0.000262252
0.000263611
0.000265145
0.000266891
0.00026881
0.000270874
0.000273075
0.000275458
0.000278022
0.00028075
0.000283625
0.000286636
0.000289789
0.000293121
0.000296744
0.000300894
0.000306288
0.000266672
0.000267634
0.00026874
0.000269907
0.000271075
0.000272508
0.000274201
0.000276056
0.000278016
0.000280167
0.000282564
0.00028518
0.000287985
0.000290954
0.000294081
0.000297381
0.000300916
0.000304834
0.000309428
0.0003155
0.000275453
0.000276411
0.000277487
0.000278558
0.000279474
0.000280811
0.000282453
0.000284226
0.00028601
0.0002881
0.000290518
0.000293197
0.000296088
0.000299165
0.000302423
0.000305891
0.000309649
0.000313868
0.000318859
0.000325421
0.000285094
0.00028605
0.000287108
0.000288121
0.000288788
0.000290084
0.000291704
0.000293402
0.00029496
0.000297012
0.000299474
0.000302232
0.000305222
0.000308419
0.000311824
0.000315475
0.000319463
0.000323959
0.000329232
0.000335923
0.000295136
0.000296098
0.000297172
0.000298214
0.000298785
0.000300149
0.000301802
0.00030348
0.00030483
0.000306917
0.000309461
0.000312316
0.000315419
0.000318748
0.000322309
0.00032615
0.00033036
0.00033508
0.000340462
0.00034679
0.000304752
0.000305744
0.00030688
0.00030808
0.000308962
0.000310533
0.000312294
0.000314057
0.000315375
0.000317612
0.000320286
0.000323259
0.000326486
0.000329954
0.000333678
0.000337704
0.000342111
0.000346977
0.000352266
0.000357726
0.000312803
0.000313861
0.000315104
0.000316587
0.000318525
0.000320423
0.000322366
0.000324358
0.000326075
0.000328599
0.000331447
0.000334558
0.000337917
0.000341527
0.000345409
0.000349608
0.000354171
0.000359088
0.000364095
0.00036835
0.000319026
0.000320177
0.000321563
0.000323387
0.000326432
0.000328705
0.000330888
0.000333243
0.000336123
0.000339036
0.00034209
0.000345349
0.000348842
0.000352591
0.000356621
0.000360966
0.000365633
0.000370507
0.000375098
0.000378113
0.000332566
0.000335157
0.000337599
0.000340379
0.000344464
0.000347788
0.000351053
0.000354461
0.000358085
0.000361961
0.000366119
0.000370575
0.000375288
0.00038004
0.000384163
0.000386206
0.000350991
0.00035464
0.000358098
0.000361649
0.000365396
0.000369389
0.000373654
0.000378188
0.000382898
0.000387479
0.000391176
0.000392719
0.000134571
0.000133648
0.000135112
0.000134367
0.000136226
0.000135397
0.000137879
0.000136807
0.000136678
0.000139889
0.000138549
0.000137988
0.000142163
0.000140617
0.0001397
0.000139888
0.000144659
0.000142963
0.000141869
0.000141469
0.000147349
0.000145556
0.000144362
0.000143528
0.000150214
0.000148365
0.000147108
0.000146061
0.000145796
0.000153239
0.000151362
0.000150077
0.000148958
0.000148267
0.000156405
0.000154517
0.000153229
0.000152139
0.000151359
0.000159697
0.000157802
0.000156516
0.000155476
0.000154838
0.000163099
0.000161191
0.000159894
0.000158871
0.000158323
0.000166596
0.000164662
0.000163329
0.00016226
0.000161643
0.000170173
0.000168199
0.000166802
0.000165627
0.000164791
0.000164672
0.000173815
0.000171788
0.000170303
0.000168985
0.000167874
0.00016711
0.000177507
0.000175416
0.000173829
0.000172353
0.000170987
0.000169711
0.000170057
0.000181238
0.000179074
0.000177379
0.000175748
0.000174161
0.000172585
0.000171917
0.000172473
0.000185001
0.00018276
0.000180957
0.000179183
0.000177415
0.000175642
0.000174241
0.000174032
0.00017444
0.000188809
0.000186487
0.000184579
0.000182679
0.000180766
0.000178846
0.000177094
0.000176132
0.000175975
0.000176103
0.0001927
0.000190295
0.000188286
0.000186275
0.000184246
0.000182214
0.000180287
0.000178887
0.000178122
0.000177991
0.000196748
0.000194258
0.000192153
0.000190042
0.000187918
0.000185802
0.000183778
0.000182125
0.000181006
0.000180498
0.000201071
0.000198496
0.000196296
0.000194095
0.000191889
0.000189703
0.000187617
0.000185817
0.00018448
0.00018373
0.000205822
0.000203164
0.000200872
0.000198584
0.000196302
0.000194056
0.000191919
0.000190026
0.000188542
0.000187601
0.000211168
0.000208434
0.000206054
0.000203681
0.000201326
0.000199021
0.000196834
0.000194871
0.000193274
0.000192164
0.000217253
0.000214454
0.000211994
0.000209539
0.00020711
0.000204744
0.000202502
0.000200476
0.000198781
0.000197516
0.00022413
0.000221286
0.000218757
0.000216224
0.000213722
0.000211291
0.000208991
0.0002069
0.000205112
0.000203705
0.000231679
0.000228818
0.000226237
0.000223635
0.000221063
0.000218567
0.000216206
0.000214047
0.000212169
0.000210633
0.000239527
0.000236683
0.00023407
0.000231413
0.000228778
0.00022622
0.000223797
0.000221571
0.000219605
0.000217951
0.000246999
0.000244197
0.000241574
0.000238878
0.000236193
0.000233583
0.000231104
0.000228812
0.00022676
0.000224994
0.000253147
0.000250392
0.000247773
0.000245057
0.00024234
0.000239691
0.000237165
0.000234815
0.000232683
0.000230802
0.000257793
0.000255038
0.000252418
0.000249693
0.000246957
0.000244279
0.000241716
0.000239314
0.000237106
0.000235114
0.000134377
0.000134869
0.00013599
0.0001377
0.000139779
0.000142113
0.000144644
0.000147345
0.0001502
0.000153198
0.00015633
0.000159586
0.000162958
0.000166435
0.000170007
0.000173661
0.000177383
0.000181159
0.000184979
0.000188845
0.000192781
0.00019684
0.000201112
0.000205729
0.000210847
0.000216622
0.000223154
0.000230408
0.00023812
0.000245705
0.000252237
0.000257446
0.000132951
0.00013348
0.000134552
0.000136176
0.000138172
0.000140435
0.000142905
0.000145545
0.000148335
0.000151264
0.000154323
0.000157506
0.000160809
0.000164225
0.000167749
0.000171371
0.000175081
0.000178866
0.000182713
0.000186613
0.00019057
0.000194607
0.000198773
0.000203152
0.000207857
0.000213023
0.000218779
0.000225208
0.000232283
0.000239798
0.000247289
0.000253977
0.000259718
0.000132086
0.000132613
0.000133663
0.000135237
0.000137164
0.000139351
0.000141746
0.000144313
0.000147031
0.000149886
0.00015287
0.000155976
0.0001592
0.000162541
0.000165994
0.000169556
0.000173219
0.000176975
0.000180812
0.000184719
0.000188691
0.00019273
0.000196856
0.000201111
0.000205561
0.000210293
0.000215403
0.000220976
0.000227061
0.000233653
0.000240683
0.00024803
0.000255552
0.000263124
0.000270561
0.000277476
0.000283209
0.000287774
0.000131315
0.000131783
0.000132789
0.000134315
0.000136187
0.000138315
0.000140646
0.000143149
0.000145802
0.000148591
0.000151506
0.000154541
0.000157693
0.00016096
0.000164341
0.000167834
0.000171437
0.000175144
0.000178949
0.000182841
0.000186812
0.000190853
0.000194965
0.00019916
0.000203468
0.000207938
0.000212639
0.000217661
0.000223106
0.00022908
0.000235678
0.000242959
0.000250904
0.00025935
0.000267916
0.000275938
0.000282476
0.000287376
0.000130703
0.000131056
0.00013197
0.000133422
0.000135232
0.000137304
0.000139582
0.000142031
0.000144629
0.00014736
0.000150215
0.000153188
0.000156274
0.000159473
0.000162785
0.000166209
0.000169747
0.000173396
0.000177154
0.000181012
0.000184962
0.000188992
0.000193091
0.000197255
0.000201489
0.000205817
0.000210287
0.000214979
0.000220011
0.000225529
0.000231696
0.000238659
0.000246484
0.000255077
0.000264074
0.000272755
0.000280041
0.000285585
0.000130389
0.000130524
0.000131236
0.000132562
0.000134294
0.000136311
0.000138542
0.000140946
0.000143497
0.00014618
0.000148984
0.000151902
0.000154931
0.000158069
0.000161318
0.000164678
0.000168151
0.000171739
0.000175441
0.000179253
0.000183167
0.000187171
0.000191249
0.000195387
0.000199578
0.000203828
0.000208172
0.000212676
0.00021745
0.000222645
0.000228436
0.000234992
0.000242422
0.000250703
0.000259604
0.000268622
0.000276969
0.00028364
0.000288539
0.000130242
0.000130288
0.000130727
0.000131801
0.000133404
0.000135347
0.000137528
0.000139891
0.000142403
0.000145045
0.000147804
0.000150675
0.000153654
0.000156739
0.00015993
0.000163231
0.000166645
0.000170173
0.000173818
0.000177578
0.000181446
0.000185412
0.000189459
0.000193568
0.000197725
0.000201927
0.000206194
0.000210584
0.000215195
0.000220173
0.000225697
0.000231953
0.000239082
0.000247112
0.000255876
0.000264925
0.000273491
0.000280528
0.000285801
0.000130106
0.000130144
0.000130429
0.000131242
0.000132636
0.000134461
0.000136569
0.000138881
0.000141351
0.000143953
0.000146672
0.000149501
0.000152436
0.000155473
0.000158615
0.000161864
0.000165222
0.000168695
0.000172285
0.000175991
0.00017981
0.000183732
0.00018774
0.000191814
0.000195937
0.000200098
0.000204312
0.000208625
0.000213129
0.000217964
0.000223308
0.000229355
0.000236264
0.000244087
0.000252685
0.00026164
0.000270196
0.000277303
0.000282698
0.000129969
0.000130041
0.000130257
0.000130841
0.000132003
0.000133683
0.000135696
0.000137939
0.000140356
0.000142913
0.000145592
0.000148381
0.000151275
0.00015427
0.000157367
0.000160569
0.000163878
0.0001673
0.000170838
0.000174493
0.000178263
0.000182138
0.000186104
0.000190139
0.000194224
0.000198347
0.000202516
0.00020677
0.000211197
0.000215931
0.00022115
0.00022705
0.000233796
0.000241454
0.0002499
0.000258729
0.000267201
0.00027427
0.000279667
0.000129853
0.000129958
0.000130137
0.000130547
0.000131499
0.000133021
0.000134917
0.000137074
0.000139427
0.000141933
0.000144568
0.000147317
0.000150172
0.000153128
0.000156185
0.000159344
0.000162609
0.000165985
0.000169476
0.000173084
0.000176806
0.000180636
0.000184558
0.000188553
0.000192599
0.000196682
0.000200807
0.000205011
0.000209376
0.000214033
0.000219158
0.000224948
0.000231571
0.000239099
0.000247417
0.000256128
0.000264501
0.000271498
0.000276847
0.000129788
0.00012989
0.000130059
0.000130391
0.000131122
0.000132431
0.0001342
0.000136274
0.000138563
0.000141018
0.000143609
0.000146316
0.000149132
0.00015205
0.000155069
0.000158189
0.000161414
0.000164748
0.000168196
0.000171761
0.000175439
0.000179226
0.000183106
0.00018706
0.000191066
0.00019511
0.000199193
0.00020335
0.00020766
0.000212252
0.000217301
0.000223003
0.000229529
0.000236953
0.000245166
0.000253776
0.000262058
0.000268979
0.000274266
0.000129995
0.000130041
0.000130231
0.000130786
0.000131909
0.000133561
0.000135551
0.000137775
0.000140176
0.000142718
0.000145383
0.000148159
0.00015104
0.000154022
0.000157105
0.000160293
0.000163589
0.000166998
0.000170523
0.000174162
0.000177908
0.000181749
0.000185664
0.000189632
0.000193636
0.000197678
0.000201791
0.00020605
0.000210584
0.000215567
0.000221195
0.000227639
0.000234977
0.000243103
0.000251629
0.000259833
0.000266685
0.000271911
0.000130179
0.000130193
0.000130533
0.000131497
0.00013303
0.000134928
0.000137077
0.000139415
0.000141904
0.000144523
0.000147258
0.0001501
0.000153047
0.000156095
0.000159248
0.00016251
0.000165883
0.000169371
0.000172973
0.000176683
0.000180487
0.000184366
0.000188298
0.000192265
0.000196268
0.000200338
0.00020455
0.00020903
0.000213953
0.000219514
0.000225888
0.000233153
0.000241205
0.00024966
0.000257798
0.00026459
0.000269762
0.000130228
0.000130216
0.000130467
0.000131277
0.000132643
0.000134419
0.000136476
0.000138741
0.000141171
0.00014374
0.000146432
0.000149236
0.000152147
0.000155162
0.000158283
0.000161511
0.000164851
0.000168306
0.000171874
0.000175551
0.000179322
0.000183168
0.000187066
0.000190998
0.000194964
0.000198994
0.000203161
0.000207592
0.000212459
0.00021796
0.00022427
0.00023147
0.000239459
0.000247853
0.000255935
0.000262676
0.000267802
0.000130365
0.000130456
0.000131086
0.000132331
0.000134004
0.000135969
0.000138155
0.00014052
0.000143036
0.000145683
0.000148449
0.000151326
0.000154309
0.000157398
0.000160596
0.000163905
0.000167329
0.000170866
0.000174512
0.000178253
0.000182068
0.000185935
0.000189836
0.000193768
0.000197761
0.000201886
0.000206271
0.000211087
0.000216532
0.000222785
0.000229927
0.00023786
0.000246202
0.000254235
0.000260933
0.000266018
0.000130478
0.000130537
0.000131075
0.000132189
0.00013371
0.000135549
0.000137643
0.00013994
0.000142405
0.000145011
0.000147742
0.000150586
0.000153538
0.000156598
0.000159766
0.000163046
0.000166441
0.00016995
0.000173568
0.000177281
0.000181068
0.000184908
0.00018878
0.000192681
0.000196639
0.000200727
0.000205068
0.000209837
0.000215232
0.000221433
0.000228523
0.000236406
0.000244701
0.000252693
0.000259354
0.000264405
0.000131002
0.000131234
0.000132014
0.000133381
0.000135134
0.000137169
0.000139422
0.000141848
0.00014442
0.000147118
0.00014993
0.000152853
0.000155883
0.000159023
0.000162276
0.000165644
0.000169127
0.000172719
0.000176406
0.000180169
0.000183983
0.000187829
0.000191702
0.00019563
0.000199682
0.000203985
0.000208711
0.000214061
0.000220214
0.000227258
0.000235096
0.000243351
0.000251306
0.000257936
0.000262957
0.000131683
0.000132094
0.000133148
0.000134779
0.000136764
0.000138983
0.000141379
0.000143917
0.000146582
0.000149363
0.000152256
0.000155257
0.00015837
0.000161596
0.000164939
0.000168397
0.000171965
0.000175629
0.00017937
0.000183162
0.000186984
0.000190833
0.000194733
0.000198754
0.000203022
0.00020771
0.000213019
0.00021913
0.000226132
0.000233932
0.000242152
0.000250075
0.000256678
0.000261673
0.000131896
0.000132259
0.000133189
0.000134686
0.000136558
0.000138694
0.000141025
0.000143515
0.000146139
0.000148885
0.000151745
0.000154718
0.000157804
0.000161005
0.000164324
0.00016776
0.000171306
0.00017495
0.000178671
0.000182443
0.000186245
0.000190072
0.000193948
0.000197942
0.000202179
0.000206833
0.000212106
0.00021818
0.000225147
0.000232912
0.000241102
0.000248998
0.000255578
0.000260552
0.000132018
0.00013241
0.0001333
0.000134712
0.000136486
0.000138529
0.000140784
0.000143211
0.000145786
0.000148492
0.000151319
0.000154263
0.000157323
0.000160501
0.000163798
0.000167214
0.000170741
0.000174368
0.000178071
0.000181826
0.000185611
0.00018942
0.000193275
0.000197246
0.000201457
0.000206082
0.000211324
0.000217366
0.000224302
0.000232038
0.000240202
0.000248076
0.000254636
0.000259591
0.000132236
0.000132643
0.000133459
0.000134784
0.000136464
0.000138425
0.00014061
0.00014298
0.000145508
0.000148175
0.00015097
0.000153887
0.000156923
0.00016008
0.000163359
0.000166757
0.000170269
0.000173881
0.00017757
0.000181312
0.000185083
0.000188876
0.000192714
0.000196666
0.000200855
0.000205456
0.000210672
0.000216688
0.000223598
0.000231311
0.000239453
0.000247309
0.000253852
0.000258793
0.000133183
0.00013374
0.000134826
0.000136417
0.000138329
0.000140472
0.000142801
0.000145291
0.000147924
0.00015069
0.000153583
0.0001566
0.00015974
0.000163004
0.000166389
0.000169889
0.000173489
0.000177168
0.000180899
0.00018466
0.000188441
0.000192266
0.000196203
0.000200374
0.000204955
0.00021015
0.000216145
0.000223035
0.000230729
0.000238855
0.000246696
0.000253227
0.000258155
0.000133684
0.000134204
0.000135128
0.000136561
0.000138345
0.0001404
0.000142671
0.000145122
0.000147728
0.000150473
0.000153349
0.000156352
0.00015948
0.000162734
0.00016611
0.000169602
0.000173194
0.000176865
0.000180589
0.000184342
0.000188115
0.00019193
0.000195855
0.000200014
0.000204581
0.00020976
0.00021574
0.000222614
0.000230294
0.000238407
0.000246237
0.000252759
0.000257679
0.000134946
0.000135565
0.000136708
0.000138368
0.000140359
0.000142588
0.000145008
0.000147591
0.000150321
0.000153185
0.00015618
0.000159302
0.000162549
0.000165921
0.000169408
0.000172996
0.000176663
0.000180382
0.00018413
0.000187898
0.000191707
0.000195625
0.000199775
0.000204332
0.000209502
0.000215471
0.000222335
0.000230006
0.000238111
0.000245934
0.00025245
0.000257364
0.000135563
0.000136128
0.00013709
0.000138576
0.000140433
0.000142581
0.000144957
0.00014752
0.000150239
0.000153099
0.00015609
0.00015921
0.000162456
0.000165825
0.00016931
0.000172897
0.000176562
0.00018028
0.000184026
0.000187792
0.000191598
0.000195512
0.000199658
0.000204211
0.000209375
0.000215339
0.000222198
0.000229865
0.000237966
0.000245786
0.000252299
0.00025721
0.000136894
0.000137531
0.000138734
0.000140494
0.00014261
0.000144976
0.000147533
0.000150248
0.000153104
0.000156093
0.000159212
0.000162457
0.000165827
0.000169313
0.0001729
0.000176566
0.000180284
0.000184031
0.000187797
0.000191603
0.000195518
0.000199664
0.000204217
0.000209381
0.000215345
0.000222205
0.000229871
0.000237973
0.000245793
0.000252306
0.000257218
0.000137371
0.00013797
0.000139079
0.000140748
0.000142799
0.000145124
0.000147656
0.000150359
0.000153209
0.000156195
0.000159312
0.000162558
0.000165929
0.000169417
0.000173006
0.000176675
0.000180396
0.000184145
0.000187914
0.000191724
0.000195643
0.000199793
0.00020435
0.00020952
0.000215489
0.000222354
0.000230025
0.000238131
0.000245956
0.000252472
0.000257387
0.000137708
0.000138335
0.000139434
0.000141072
0.000143086
0.000145379
0.000147888
0.000150575
0.000153415
0.000156397
0.000159513
0.00016276
0.000166133
0.000169624
0.000173217
0.000176889
0.000180615
0.000184369
0.000188144
0.00019196
0.000195886
0.000200045
0.000204612
0.000209792
0.000215771
0.000222646
0.000230327
0.000238442
0.000246274
0.000252797
0.000257718
0.000137992
0.000138661
0.00013978
0.00014142
0.000143427
0.000145707
0.000148205
0.000150882
0.000153716
0.000156695
0.000159811
0.00016306
0.000166437
0.000169932
0.000173531
0.00017721
0.000180942
0.000184703
0.000188486
0.000192312
0.000196249
0.00020042
0.000205001
0.000210196
0.000216191
0.000223082
0.000230777
0.000238905
0.000246748
0.00025328
0.00025821
0.000138276
0.000138984
0.000140132
0.00014179
0.000143807
0.000146091
0.000148589
0.000151266
0.000154101
0.000157081
0.000160201
0.000163455
0.000166838
0.000170341
0.000173947
0.000177634
0.000181375
0.000185147
0.00018894
0.000192778
0.00019673
0.000200918
0.000205518
0.000210733
0.000216749
0.00022366
0.000231375
0.00023952
0.000247378
0.000253923
0.000258865
0.000138587
0.000139332
0.00014051
0.000142193
0.000144227
0.000146525
0.000149033
0.000151718
0.00015456
0.000157549
0.000160677
0.00016394
0.000167333
0.000170846
0.000174463
0.000178162
0.000181914
0.000185698
0.000189505
0.000193359
0.00019733
0.000201539
0.000206163
0.000211403
0.000217445
0.000224382
0.00023212
0.000240286
0.000248163
0.000254725
0.000259681
0.000138942
0.00013972
0.000140928
0.000142637
0.000144694
0.000147011
0.000149535
0.000152235
0.000155091
0.000158093
0.000161235
0.000164512
0.000167919
0.000171446
0.000175078
0.00017879
0.000182557
0.000186356
0.000190181
0.000194055
0.000198047
0.000202282
0.000206934
0.000212205
0.000218279
0.000225246
0.000233013
0.000241205
0.000249104
0.000255686
0.00026066
0.000139351
0.00014016
0.000141397
0.000143132
0.000145213
0.000147553
0.000150098
0.000152817
0.000155693
0.000158713
0.000161873
0.000165169
0.000168594
0.000172139
0.000175788
0.000179518
0.000183304
0.000187122
0.000190967
0.000194863
0.000198882
0.000203147
0.000207832
0.000213138
0.000219249
0.000226252
0.000234052
0.000242275
0.000250201
0.000256806
0.000261802
0.00013982
0.000140656
0.00014192
0.000143683
0.00014579
0.000148155
0.000150724
0.000153467
0.000156366
0.000159409
0.000162592
0.00016591
0.000169357
0.000172924
0.000176595
0.000180346
0.000184153
0.000187993
0.000191862
0.000195785
0.000199834
0.000204133
0.000208856
0.000214203
0.000220355
0.000227399
0.000235239
0.000243496
0.000251454
0.000258085
0.000263105
0.000140345
0.000141209
0.000142501
0.000144292
0.000146428
0.00014882
0.000151417
0.000154188
0.000157113
0.000160183
0.000163393
0.000166737
0.00017021
0.000173802
0.000177498
0.000181273
0.000185104
0.00018897
0.000192866
0.000196819
0.000200902
0.00020524
0.000210005
0.000215398
0.000221597
0.000228687
0.000236571
0.000244868
0.000252861
0.000259523
0.000264571
0.000140923
0.000141819
0.000143143
0.000144965
0.000147132
0.000149554
0.000152181
0.000154982
0.000157937
0.000161037
0.000164276
0.00016765
0.000171153
0.000174774
0.000178497
0.0001823
0.000186158
0.000190052
0.000193979
0.000197966
0.000202087
0.000206467
0.000211279
0.000216722
0.000222973
0.000230116
0.000238048
0.000246391