/*--------------------------------*- C++ -*----------------------------------*\
  =========                 |
  \\      /  F ield         | OpenFOAM: The Open Source CFD Toolbox
   \\    /   O peration     | Website:  https://openfoam.org
    \\  /    A nd           | Version:  7
     \\/     M anipulation  |
\*---------------------------------------------------------------------------*/
FoamFile
{
    version     2.0;
    format      ascii;
    class       volScalarField;
    location    "184000";
    object      omega;
}
// * * * * * * * * * * * * * * * * * * * * * * * * * * * * * * * * * * * * * //

dimensions      [0 0 -1 0 0 0 0];

internalField   nonuniform List<scalar> 
4783
(
0.0221375
0.0220434
0.0219566
0.021878
0.0218075
0.0217449
0.0216897
0.0216415
0.0215997
0.0215641
0.0215339
0.0215088
0.0214882
0.0214716
0.0214582
0.0214477
0.0214394
0.021433
0.021428
0.0214241
0.0214212
0.021419
0.0223018
0.0222045
0.0221121
0.0220256
0.0219461
0.021874
0.0218091
0.0217512
0.0217
0.0216551
0.021616
0.0215824
0.0215538
0.0215296
0.0215096
0.0214931
0.0214796
0.0214688
0.0214602
0.0214534
0.0214482
0.0214443
0.0224999
0.0223904
0.0222891
0.0221944
0.0221064
0.0220253
0.0219512
0.021884
0.0218236
0.0217696
0.0217218
0.0216797
0.0216429
0.0216111
0.0215839
0.0215608
0.0215414
0.0215254
0.0215123
0.0215017
0.0214934
0.0214871
0.0227229
0.0226008
0.0224886
0.0223843
0.0222873
0.0221974
0.0221145
0.0220385
0.0219694
0.0219068
0.0218506
0.0218003
0.0217558
0.0217166
0.0216823
0.0216527
0.0216274
0.0216059
0.021588
0.0215733
0.0215615
0.0215524
0.0229681
0.0228343
0.0227109
0.0225962
0.0224896
0.0223906
0.0222989
0.0222144
0.0221368
0.0220661
0.0220018
0.0219439
0.0218919
0.0218456
0.0218047
0.0217689
0.0217377
0.021711
0.0216884
0.0216696
0.0216544
0.0216425
0.0232341
0.0230894
0.0229552
0.0228301
0.0227136
0.0226053
0.0225047
0.0224116
0.0223258
0.022247
0.0221751
0.0221097
0.0220507
0.0219977
0.0219504
0.0219086
0.0218721
0.0218404
0.0218133
0.0217907
0.0217722
0.0217576
0.02352
0.023365
0.0232205
0.0230853
0.022959
0.0228413
0.0227318
0.0226302
0.0225362
0.0224495
0.02237
0.0222975
0.0222316
0.0221721
0.0221187
0.0220713
0.0220295
0.0219931
0.0219619
0.0219356
0.021914
0.0218969
0.0238253
0.0236603
0.0235059
0.023361
0.0232252
0.0230982
0.0229799
0.0228698
0.0227676
0.0226732
0.0225864
0.0225067
0.0224342
0.0223684
0.0223092
0.0222563
0.0222095
0.0221686
0.0221333
0.0221035
0.022079
0.0220595
0.024149
0.0239745
0.0238107
0.0236563
0.0235113
0.0233754
0.0232484
0.0231299
0.0230198
0.0229178
0.0228237
0.0227371
0.022658
0.0225861
0.0225212
0.022463
0.0224114
0.0223661
0.022327
0.0222938
0.0222665
0.0222447
0.0244907
0.0243071
0.0241341
0.0239707
0.0238168
0.0236722
0.0235368
0.0234102
0.0232922
0.0231827
0.0230815
0.0229882
0.0229027
0.0228248
0.0227543
0.022691
0.0226347
0.0225852
0.0225423
0.0225059
0.0224758
0.0224519
0.0248498
0.0246573
0.0244755
0.0243034
0.0241409
0.023988
0.0238443
0.0237098
0.0235843
0.0234675
0.0233593
0.0232594
0.0231677
0.023084
0.0230081
0.0229398
0.0228789
0.0228253
0.0227788
0.0227392
0.0227064
0.0226804
0.0252256
0.0250246
0.0248343
0.0246538
0.0244831
0.024322
0.0241705
0.0240283
0.0238954
0.0237715
0.0236565
0.0235502
0.0234525
0.0233631
0.0232819
0.0232087
0.0231434
0.0230858
0.0230358
0.0229931
0.0229578
0.0229297
0.0256177
0.0254084
0.02521
0.0250214
0.0248427
0.0246738
0.0245146
0.0243651
0.024225
0.0240942
0.0239726
0.0238601
0.0237565
0.0236616
0.0235752
0.0234973
0.0234277
0.0233662
0.0233127
0.0232671
0.0232293
0.0231992
0.0260257
0.0258084
0.025602
0.0254056
0.0252192
0.0250428
0.0248762
0.0247195
0.0245724
0.024435
0.0243071
0.0241885
0.0240791
0.0239788
0.0238875
0.023805
0.0237312
0.023666
0.0236092
0.0235607
0.0235205
0.0234884
0.026449
0.026224
0.02601
0.025806
0.0256121
0.0254284
0.0252547
0.025091
0.0249372
0.0247934
0.0246592
0.0245348
0.0244199
0.0243144
0.0242182
0.0241313
0.0240534
0.0239845
0.0239245
0.0238732
0.0268873
0.0266549
0.0264334
0.0262221
0.026021
0.0258301
0.0256495
0.0254791
0.0253189
0.0251687
0.0250286
0.0248985
0.0247782
0.0246677
0.0245669
0.0244756
0.0243938
0.0243213
0.0242582
0.0273402
0.0271005
0.0268718
0.0266534
0.0264453
0.0262476
0.0260603
0.0258834
0.0257168
0.0255607
0.0254148
0.0252791
0.0251536
0.0250382
0.0249328
0.0248374
0.0247517
0.0278073
0.0275606
0.0273249
0.0270996
0.0268847
0.0266803
0.0264865
0.0263033
0.0261307
0.0259686
0.0258171
0.0256761
0.0255456
0.0254255
0.0282884
0.0280348
0.0277923
0.0275602
0.0273388
0.027128
0.0269279
0.0267385
0.02656
0.0263922
0.0262353
0.0260891
0.0287831
0.0285228
0.0282736
0.0280351
0.0278072
0.0275901
0.0273839
0.0271886
0.0270043
0.0268311
0.0292912
0.0290243
0.0287687
0.0285238
0.0282897
0.0280665
0.0278543
0.0276532
0.0274634
0.0298124
0.0295392
0.0292773
0.0290261
0.0287859
0.0285567
0.0283387
0.0281321
0.0303466
0.0300671
0.029799
0.0295418
0.0292956
0.0290606
0.028837
0.0308935
0.0306079
0.0303338
0.0300706
0.0298186
0.0295779
0.0314531
0.0311615
0.0308814
0.0306124
0.0303546
0.0301083
0.0320252
0.0317276
0.0314417
0.0311669
0.0309035
0.0326098
0.0323063
0.0320146
0.0317341
0.0332066
0.0328973
0.0325999
0.0323139
0.0338158
0.0335008
0.0331977
0.0344372
0.0341165
0.0338078
0.0350709
0.0347445
0.0344303
0.0357168
0.0353848
0.035065
0.0363751
0.0360375
0.0357122
0.0370458
0.0367025
0.0363717
0.0377289
0.03738
0.0370437
0.0384247
0.0380701
0.0377283
0.0391331
0.0387728
0.0384254
0.0398543
0.0394883
0.0391354
0.0405885
0.0402168
0.0398583
0.0413359
0.0409584
0.0405942
0.0420967
0.0417133
0.0413434
0.042871
0.0424818
0.0421061
0.0221375
0.0223018
0.0224999
0.0227229
0.0229681
0.0232341
0.02352
0.0238253
0.024149
0.0244907
0.0248498
0.0252256
0.0256177
0.0260257
0.026449
0.0268873
0.0273402
0.0278073
0.0282884
0.0287831
0.0292912
0.0298124
0.0303466
0.0308935
0.0314531
0.0320252
0.0326098
0.0332066
0.0338158
0.0344372
0.0350709
0.0357168
0.0363751
0.0370458
0.0377289
0.0384247
0.0391331
0.0398543
0.0405885
0.0413359
0.0420967
0.0428711
0.0220434
0.0222045
0.0223904
0.0226008
0.0228343
0.0230894
0.023365
0.0236603
0.0239745
0.0243071
0.0246573
0.0250246
0.0254084
0.0258084
0.026224
0.0266549
0.0271005
0.0275606
0.0280348
0.0285228
0.0290243
0.0295392
0.0300671
0.0306079
0.0311615
0.0317276
0.0323063
0.0328974
0.0335008
0.0341165
0.0347445
0.0353848
0.0360375
0.0367025
0.03738
0.0380701
0.0387728
0.0394883
0.0402168
0.0409584
0.0417133
0.0424818
0.0219566
0.0221121
0.0222891
0.0224886
0.0227109
0.0229552
0.0232205
0.0235059
0.0238107
0.0241341
0.0244755
0.0248343
0.02521
0.025602
0.02601
0.0264334
0.0268718
0.0273249
0.0277923
0.0282737
0.0287687
0.0292773
0.029799
0.0303338
0.0308814
0.0314417
0.0320146
0.0325999
0.0331977
0.0338078
0.0344303
0.0350651
0.0357122
0.0363717
0.0370437
0.0377283
0.0384255
0.0391354
0.0398583
0.0405942
0.0413434
0.0421061
0.021878
0.0220256
0.0221944
0.0223843
0.0225962
0.0228301
0.0230853
0.023361
0.0236563
0.0239707
0.0243034
0.0246538
0.0250214
0.0254057
0.025806
0.0262221
0.0266534
0.0270996
0.0275602
0.0280351
0.0285238
0.0290261
0.0295418
0.0300706
0.0306124
0.0311669
0.0317341
0.0323139
0.0329062
0.0335108
0.0341278
0.0347572
0.035399
0.0360531
0.0367198
0.0373989
0.0380907
0.0387953
0.0395127
0.0402432
0.0409869
0.041744
0.0218075
0.0219461
0.0221064
0.0222873
0.0224896
0.0227136
0.022959
0.0232252
0.0235113
0.0238168
0.024141
0.0244831
0.0248427
0.0252192
0.0256122
0.026021
0.0264453
0.0268847
0.0273388
0.0278072
0.0282897
0.0287859
0.0292956
0.0298186
0.0303546
0.0309036
0.0314653
0.0320396
0.0326264
0.0332257
0.0338375
0.0344616
0.0350981
0.0357471
0.0364085
0.0370825
0.0377691
0.0384684
0.0391805
0.0399057
0.040644
0.0413957
0.0217449
0.021874
0.0220253
0.0221974
0.0223906
0.0226053
0.0228413
0.0230982
0.0233754
0.0236722
0.023988
0.0243221
0.0246738
0.0250428
0.0254284
0.0258301
0.0262476
0.0266803
0.027128
0.0275901
0.0280665
0.0285567
0.0290606
0.0295779
0.0301084
0.0306518
0.0312081
0.0317771
0.0323587
0.0329529
0.0335595
0.0341785
0.03481
0.0354539
0.0361103
0.0367792
0.0374607
0.038155
0.0388621
0.0395821
0.0403153
0.0410619
0.0216897
0.0218091
0.0219512
0.0221145
0.022299
0.0225047
0.0227318
0.0229799
0.0232484
0.0235368
0.0238443
0.0241705
0.0245147
0.0248762
0.0252547
0.0256495
0.0260603
0.0264866
0.0269279
0.0273839
0.0278543
0.0283388
0.028837
0.0293487
0.0298738
0.0304119
0.030963
0.0315269
0.0321034
0.0326925
0.0332941
0.0339083
0.0345348
0.0351739
0.0358254
0.0364895
0.0371662
0.0378555
0.0385577
0.0392729
0.0400011
0.0407427
0.0216415
0.0217512
0.021884
0.0220385
0.0222144
0.0224116
0.0226302
0.0228698
0.0231299
0.0234102
0.0237098
0.0240283
0.0243651
0.0247195
0.025091
0.0254791
0.0258834
0.0263033
0.0267386
0.0271886
0.0276533
0.0281321
0.0286248
0.0291312
0.029651
0.030184
0.03073
0.0312889
0.0318605
0.0324448
0.0330417
0.0336511
0.0342729
0.0349073
0.0355541
0.0362136
0.0368856
0.0375703
0.0382678
0.0389783
0.0397018
0.0404386
0.0215997
0.0217
0.0218236
0.0219694
0.0221369
0.0223258
0.0225362
0.0227676
0.0230198
0.0232922
0.0235843
0.0238954
0.024225
0.0245724
0.0249373
0.0253189
0.0257169
0.0261307
0.02656
0.0270044
0.0274634
0.0279368
0.0284242
0.0289254
0.0294402
0.0299682
0.0305094
0.0310635
0.0316304
0.0322101
0.0328023
0.0334071
0.0340245
0.0346544
0.0352968
0.0359517
0.0366193
0.0372995
0.0379926
0.0386986
0.0394176
0.0401498
0.0215641
0.0216551
0.0217696
0.0219068
0.0220661
0.0222471
0.0224495
0.0226733
0.0229178
0.0231828
0.0234675
0.0237715
0.0240942
0.024435
0.0247934
0.0251688
0.0255607
0.0259687
0.0263923
0.0268311
0.0272848
0.027753
0.0282353
0.0287315
0.0292414
0.0297647
0.0303012
0.0308507
0.0314132
0.0319884
0.0325762
0.0331767
0.0337898
0.0344153
0.0350535
0.0357042
0.0363675
0.0370436
0.0377324
0.0384341
0.0391488
0.0398767
0.0215339
0.021616
0.0217218
0.0218506
0.0220018
0.0221751
0.0223701
0.0225864
0.0228237
0.0230815
0.0233593
0.0236565
0.0239727
0.0243071
0.0246593
0.0250287
0.0254148
0.0258172
0.0262353
0.0266689
0.0271174
0.0275806
0.0280581
0.0285496
0.0290548
0.0295736
0.0301056
0.0306508
0.0312089
0.0317799
0.0323636
0.03296
0.0335689
0.0341904
0.0348245
0.0354712
0.0361305
0.0368026
0.0374873
0.038185
0.0388957
0.0396195
0.0215088
0.0215824
0.0216796
0.0218003
0.0219439
0.0221097
0.0222975
0.0225068
0.0227371
0.0229882
0.0232594
0.0235503
0.0238601
0.0241885
0.0245348
0.0248985
0.0252791
0.0256762
0.0260892
0.0265177
0.0269613
0.0274198
0.0278926
0.0283796
0.0288805
0.0293949
0.0299228
0.0304638
0.0310179
0.0315849
0.0321646
0.0327571
0.0333621
0.0339798
0.0346101
0.035253
0.0359085
0.0365768
0.0372578
0.0379516
0.0386585
0.0393785
0.0401118
0.0214882
0.0215538
0.0216429
0.0217558
0.0218919
0.0220507
0.0222316
0.0224342
0.022658
0.0229027
0.0231677
0.0234525
0.0237565
0.0240791
0.0244199
0.0247782
0.0251537
0.0255456
0.0259537
0.0263775
0.0268166
0.0272705
0.027739
0.0282218
0.0287185
0.0292289
0.0297527
0.0302899
0.0308401
0.0314033
0.0319794
0.0325681
0.0331696
0.0337837
0.0344104
0.0350497
0.0357017
0.0363664
0.0370439
0.0377342
0.0384375
0.0391539
0.0398836
0.0406267
0.0214716
0.0215296
0.0216111
0.0217166
0.0218456
0.0219977
0.0221721
0.0223684
0.0225861
0.0228249
0.023084
0.0233631
0.0236616
0.0239789
0.0243144
0.0246677
0.0250383
0.0254255
0.025829
0.0262483
0.0266831
0.0271328
0.0275972
0.028076
0.0285688
0.0290754
0.0295956
0.0301291
0.0306757
0.0312354
0.031808
0.0323933
0.0329914
0.0336021
0.0342255
0.0348615
0.0355102
0.0361716
0.0368458
0.0375328
0.0382328
0.0389459
0.0396722
0.040412
0.0214582
0.0215096
0.0215839
0.0216823
0.0218047
0.0219504
0.0221188
0.0223092
0.0225212
0.0227544
0.0230081
0.0232819
0.0235753
0.0238876
0.0242183
0.0245669
0.0249329
0.0253157
0.0257149
0.0261301
0.0265608
0.0270067
0.0274673
0.0279423
0.0284316
0.0289346
0.0294513
0.0299815
0.0305248
0.0310812
0.0316506
0.0322328
0.0328277
0.0334353
0.0340556
0.0346886
0.0353342
0.0359925
0.0366637
0.0373476
0.0380446
0.0387546
0.0394779
0.0402145
0.0409648
0.0214477
0.0214931
0.0215608
0.0216527
0.0217689
0.0219086
0.0220713
0.0222563
0.0224631
0.0226911
0.0229398
0.0232087
0.0234973
0.0238051
0.0241313
0.0244756
0.0248374
0.0252162
0.0256115
0.0260228
0.0264498
0.0268921
0.0273492
0.0278209
0.0283067
0.0288066
0.0293201
0.0298471
0.0303874
0.0309408
0.0315072
0.0320865
0.0326786
0.0332834
0.0339008
0.034531
0.0351738
0.0358294
0.0364977
0.0371789
0.037873
0.0385803
0.0393007
0.0400345
0.0407819
0.0214394
0.0214796
0.0215414
0.0216274
0.0217378
0.0218721
0.0220295
0.0222095
0.0224114
0.0226348
0.0228789
0.0231434
0.0234277
0.0237313
0.0240535
0.0243938
0.0247518
0.0251269
0.0255186
0.0259265
0.0263501
0.026789
0.027243
0.0277115
0.0281944
0.0286913
0.0292019
0.0297261
0.0302636
0.0308143
0.031378
0.0319547
0.0325441
0.0331463
0.0337612
0.0343889
0.0350292
0.0356822
0.036348
0.0370267
0.0377183
0.038423
0.0391409
0.0398722
0.040617
0.0413755
0.021433
0.0214688
0.0215254
0.0216059
0.021711
0.0218404
0.0219931
0.0221686
0.0223662
0.0225852
0.0228253
0.0230858
0.0233662
0.023666
0.0239846
0.0243214
0.0246759
0.0250477
0.0254362
0.0258409
0.0262615
0.0266975
0.0271486
0.0276143
0.0280945
0.0285887
0.0290968
0.0296184
0.0301535
0.0307017
0.0312631
0.0318373
0.0324244
0.0330243
0.033637
0.0342623
0.0349003
0.0355511
0.0362147
0.0368911
0.0375805
0.0382829
0.0389985
0.0397275
0.04047
0.0412263
0.0419965
0.021428
0.0214602
0.0215123
0.021588
0.0216884
0.0218133
0.0219619
0.0221333
0.022327
0.0225424
0.0227788
0.0230358
0.0233128
0.0236092
0.0239245
0.0242582
0.0246097
0.0249785
0.0253642
0.0257662
0.0261841
0.0266175
0.027066
0.0275293
0.0280071
0.028499
0.0290048
0.0295242
0.030057
0.0306031
0.0311623
0.0317345
0.0323196
0.0329174
0.0335281
0.0341514
0.0347874
0.0354362
0.0360978
0.0367723
0.0374597
0.0381601
0.0388737
0.0396007
0.0403412
0.0410954
0.0418636
0.0214241
0.0214534
0.0215017
0.0215733
0.0216696
0.0217907
0.0219356
0.0221035
0.0222939
0.0225059
0.0227392
0.0229932
0.0232672
0.0235607
0.0238733
0.0242043
0.0245531
0.0249194
0.0253026
0.0257022
0.0261178
0.026549
0.0269953
0.0274565
0.0279322
0.028422
0.0289258
0.0294433
0.0299743
0.0305186
0.0310759
0.0316463
0.0322296
0.0328257
0.0334346
0.0340562
0.0346905
0.0353376
0.0359975
0.0366703
0.037356
0.0380547
0.0387666
0.0394919
0.0402306
0.0409831
0.0417495
0.0214211
0.0214482
0.0214934
0.0215615
0.0216544
0.0217722
0.021914
0.022079
0.0222665
0.0224758
0.0227065
0.0229578
0.0232294
0.0235205
0.0238307
0.0241594
0.0245061
0.0248703
0.0252514
0.025649
0.0260626
0.0264919
0.0269364
0.0273958
0.0278697
0.0283579
0.0288601
0.0293759
0.0299053
0.030448
0.0310039
0.0315728
0.0321546
0.0327492
0.0333566
0.0339768
0.0346097
0.0352554
0.0359138
0.0365851
0.0372694
0.0379667
0.0386772
0.039401
0.0401384
0.0408894
0.0416543
0.021419
0.0214443
0.0214871
0.0215524
0.0216425
0.0217576
0.0218969
0.0220595
0.0222448
0.0224519
0.0226804
0.0229297
0.0231992
0.0234884
0.0237968
0.0241236
0.0244685
0.024831
0.0252104
0.0256064
0.0260185
0.0264463
0.0268893
0.0273473
0.0278198
0.0283066
0.0288074
0.029322
0.0298501
0.0303916
0.0309462
0.0315139
0.0320945
0.0326879
0.0332942
0.0339132
0.034545
0.0351895
0.0358468
0.036517
0.0372001
0.0378963
0.0386056
0.0393283
0.0400645
0.0408143
0.041578
0.0423558
0.0214174
0.0214415
0.0214826
0.0215458
0.0216338
0.0217469
0.0218843
0.0220451
0.0222286
0.0224341
0.022661
0.0229087
0.0231767
0.0234645
0.0237713
0.0240968
0.0244404
0.0248016
0.0251798
0.0255745
0.0259854
0.0264121
0.026854
0.0273109
0.0277823
0.0282681
0.028768
0.0292816
0.0298087
0.0303492
0.0309029
0.0314697
0.0320494
0.032642
0.0332473
0.0338655
0.0344964
0.03514
0.0357965
0.0364658
0.0371481
0.0378434
0.0385519
0.0392737
0.040009
0.0407579
0.0415208
0.0422977
0.0214165
0.0214398
0.0214796
0.0215415
0.0216281
0.0217398
0.0218759
0.0220355
0.0222178
0.0224222
0.022648
0.0228947
0.0231617
0.0234485
0.0237544
0.024079
0.0244217
0.024782
0.0251593
0.0255533
0.0259634
0.0263893
0.0268304
0.0272866
0.0277574
0.0282425
0.0287416
0.0292546
0.0297811
0.030321
0.0308741
0.0314402
0.0320193
0.0326113
0.0332161
0.0338336
0.034464
0.0351071
0.0357629
0.0364317
0.0371134
0.0378081
0.0385161
0.0392373
0.039972
0.0407204
0.0414826
0.0422589
0.0430496
0.021416
0.0214389
0.0214782
0.0215393
0.0216252
0.0217362
0.0218717
0.0220307
0.0222125
0.0224163
0.0226416
0.0228878
0.0231543
0.0234405
0.023746
0.0240701
0.0244123
0.0247722
0.0251491
0.0255427
0.0259524
0.0263779
0.0268187
0.0272745
0.0277449
0.0282297
0.0287285
0.0292411
0.0297673
0.0303068
0.0308596
0.0314255
0.0320043
0.032596
0.0332005
0.0338177
0.0344478
0.0350906
0.0357462
0.0364146
0.0370961
0.0377905
0.0384981
0.0392191
0.0399535
0.0407016
0.0414635
0.0422395
0.0430299
0.021416
0.0214389
0.0214782
0.0215393
0.0216252
0.0217362
0.0218717
0.0220307
0.0222125
0.0224163
0.0226416
0.0228878
0.0231543
0.0234405
0.023746
0.0240701
0.0244123
0.0247722
0.0251491
0.0255427
0.0259524
0.0263779
0.0268187
0.0272745
0.0277449
0.0282297
0.0287285
0.0292411
0.0297673
0.0303068
0.0308596
0.0314255
0.0320043
0.032596
0.0332005
0.0338177
0.0344478
0.0350906
0.0357462
0.0364146
0.0370961
0.0377905
0.0384981
0.0392191
0.0399535
0.0407016
0.0414635
0.0422395
0.0430299
0.0438349
0.0214165
0.0214398
0.0214796
0.0215415
0.0216281
0.0217398
0.0218759
0.0220355
0.0222178
0.0224222
0.022648
0.0228947
0.0231617
0.0234485
0.0237544
0.024079
0.0244217
0.024782
0.0251593
0.0255533
0.0259634
0.0263893
0.0268304
0.0272866
0.0277574
0.0282425
0.0287416
0.0292546
0.0297811
0.030321
0.0308741
0.0314402
0.0320193
0.0326113
0.0332161
0.0338337
0.034464
0.0351071
0.0357629
0.0364317
0.0371134
0.0378082
0.0385161
0.0392373
0.039972
0.0407204
0.0414826
0.0422589
0.0430496
0.0438549
0.0214174
0.0214415
0.0214826
0.0215458
0.0216338
0.0217469
0.0218843
0.0220451
0.0222286
0.0224341
0.022661
0.0229087
0.0231767
0.0234645
0.0237713
0.0240968
0.0244404
0.0248016
0.0251798
0.0255745
0.0259854
0.0264121
0.026854
0.0273109
0.0277824
0.0282682
0.028768
0.0292816
0.0298087
0.0303492
0.0309029
0.0314697
0.0320494
0.032642
0.0332473
0.0338655
0.0344964
0.03514
0.0357965
0.0364658
0.0371481
0.0378434
0.0385519
0.0392737
0.040009
0.0407579
0.0415208
0.0422977
0.043089
0.0438949
0.021419
0.0214443
0.0214871
0.0215524
0.0216425
0.0217576
0.0218969
0.0220595
0.0222448
0.0224519
0.0226804
0.0229297
0.0231993
0.0234884
0.0237968
0.0241236
0.0244686
0.024831
0.0252104
0.0256064
0.0260185
0.0264463
0.0268893
0.0273473
0.0278198
0.0283066
0.0288074
0.029322
0.0298501
0.0303916
0.0309462
0.0315139
0.0320945
0.0326879
0.0332942
0.0339132
0.034545
0.0351895
0.0358468
0.036517
0.0372001
0.0378963
0.0386056
0.0393283
0.0400645
0.0408143
0.041578
0.0423558
0.043148
0.0439549
0.0214211
0.0214482
0.0214934
0.0215615
0.0216544
0.0217722
0.021914
0.022079
0.0222665
0.0224758
0.0227065
0.0229578
0.0232294
0.0235205
0.0238307
0.0241594
0.0245061
0.0248703
0.0252514
0.025649
0.0260626
0.0264919
0.0269364
0.0273958
0.0278698
0.0283579
0.0288601
0.029376
0.0299053
0.030448
0.0310039
0.0315728
0.0321546
0.0327492
0.0333566
0.0339768
0.0346097
0.0352554
0.0359138
0.0365852
0.0372694
0.0379667
0.0386772
0.0394011
0.0401384
0.0408894
0.0416543
0.0424333
0.0432267
0.0440347
0.0214241
0.0214534
0.0215017
0.0215733
0.0216696
0.0217907
0.0219356
0.0221035
0.0222939
0.0225059
0.0227392
0.0229932
0.0232672
0.0235607
0.0238733
0.0242043
0.0245532
0.0249194
0.0253026
0.0257022
0.0261178
0.026549
0.0269953
0.0274565
0.0279322
0.0284221
0.0289259
0.0294433
0.0299743
0.0305186
0.0310759
0.0316463
0.0322296
0.0328257
0.0334346
0.0340562
0.0346905
0.0353376
0.0359975
0.0366703
0.037356
0.0380547
0.0387666
0.0394919
0.0402306
0.0409831
0.0417495
0.04253
0.0433249
0.0441345
0.021428
0.0214602
0.0215123
0.021588
0.0216884
0.0218133
0.0219619
0.0221333
0.022327
0.0225424
0.0227788
0.0230358
0.0233128
0.0236092
0.0239245
0.0242582
0.0246097
0.0249786
0.0253642
0.0257662
0.0261841
0.0266175
0.027066
0.0275294
0.0280071
0.028499
0.0290048
0.0295242
0.030057
0.0306031
0.0311624
0.0317345
0.0323196
0.0329175
0.0335281
0.0341514
0.0347874
0.0354362
0.0360978
0.0367723
0.0374597
0.0381601
0.0388738
0.0396007
0.0403412
0.0410954
0.0418636
0.0426459
0.0434426
0.044254
0.021433
0.0214688
0.0215254
0.0216059
0.021711
0.0218404
0.0219931
0.0221686
0.0223662
0.0225852
0.0228253
0.0230858
0.0233663
0.023666
0.0239846
0.0243214
0.0246759
0.0250477
0.0254362
0.0258409
0.0262615
0.0266975
0.0271486
0.0276144
0.0280945
0.0285887
0.0290968
0.0296185
0.0301535
0.0307018
0.0312631
0.0318373
0.0324245
0.0330244
0.033637
0.0342623
0.0349004
0.0355511
0.0362147
0.0368911
0.0375805
0.0382829
0.0389985
0.0397275
0.04047
0.0412263
0.0419965
0.0427809
0.0435797
0.0443932
0.0214394
0.0214796
0.0215414
0.0216274
0.0217378
0.0218721
0.0220295
0.0222095
0.0224114
0.0226348
0.0228789
0.0231434
0.0234277
0.0237313
0.0240535
0.0243938
0.0247518
0.0251269
0.0255186
0.0259265
0.0263501
0.0267891
0.027243
0.0277115
0.0281944
0.0286913
0.0292019
0.0297261
0.0302636
0.0308143
0.0313781
0.0319547
0.0325441
0.0331464
0.0337613
0.0343889
0.0350292
0.0356822
0.036348
0.0370267
0.0377183
0.038423
0.0391409
0.0398722
0.040617
0.0413756
0.0421481
0.0429348
0.0437361
0.044552
0.0214477
0.0214931
0.0215608
0.0216527
0.0217689
0.0219087
0.0220713
0.0222563
0.0224631
0.0226911
0.0229398
0.0232088
0.0234974
0.0238051
0.0241313
0.0244756
0.0248374
0.0252162
0.0256115
0.0260229
0.0264499
0.0268921
0.0273492
0.0278209
0.0283068
0.0288066
0.0293201
0.0298471
0.0303874
0.0309409
0.0315073
0.0320865
0.0326786
0.0332834
0.0339009
0.034531
0.0351738
0.0358294
0.0364977
0.0371789
0.0378731
0.0385803
0.0393007
0.0400346
0.040782
0.0415431
0.0423183
0.0431077
0.0439116
0.0447303
0.0214582
0.0215096
0.0215839
0.0216824
0.0218047
0.0219504
0.0221188
0.0223092
0.0225212
0.0227544
0.0230081
0.0232819
0.0235753
0.0238876
0.0242183
0.0245669
0.0249329
0.0253157
0.025715
0.0261301
0.0265608
0.0270067
0.0274673
0.0279424
0.0284316
0.0289347
0.0294514
0.0299815
0.0305248
0.0310812
0.0316506
0.0322328
0.0328277
0.0334354
0.0340556
0.0346886
0.0353342
0.0359926
0.0366637
0.0373477
0.0380446
0.0387546
0.0394779
0.0402146
0.0409648
0.0417289
0.0425069
0.0432993
0.0441062
0.0449279
0.0214716
0.0215296
0.0216111
0.0217166
0.0218456
0.0219977
0.0221721
0.0223684
0.0225862
0.0228249
0.023084
0.0233631
0.0236616
0.0239789
0.0243145
0.0246678
0.0250383
0.0254255
0.025829
0.0262484
0.0266831
0.0271328
0.0275973
0.028076
0.0285688
0.0290754
0.0295956
0.0301291
0.0306758
0.0312354
0.031808
0.0323934
0.0329914
0.0336022
0.0342255
0.0348616
0.0355102
0.0361716
0.0368458
0.0375328
0.0382328
0.0389459
0.0396722
0.040412
0.0411654
0.0419326
0.0427139
0.0435095
0.0443196
0.0451447
0.0214882
0.0215538
0.0216429
0.0217558
0.0218919
0.0220507
0.0222316
0.0224342
0.0226581
0.0229027
0.0231677
0.0234525
0.0237565
0.0240792
0.0244199
0.0247783
0.0251537
0.0255457
0.0259538
0.0263775
0.0268166
0.0272705
0.027739
0.0282218
0.0287185
0.0292289
0.0297528
0.0302899
0.0308402
0.0314033
0.0319794
0.0325682
0.0331696
0.0337837
0.0344104
0.0350498
0.0357017
0.0363664
0.0370439
0.0377342
0.0384375
0.0391539
0.0398836
0.0406268
0.0413835
0.0421542
0.0429389
0.043738
0.0445518
0.0453805
0.0215088
0.0215824
0.0216797
0.0218003
0.0219439
0.0221097
0.0222975
0.0225068
0.0227372
0.0229882
0.0232594
0.0235503
0.0238601
0.0241885
0.0245348
0.0248985
0.0252792
0.0256762
0.0260892
0.0265177
0.0269614
0.0274198
0.0278927
0.0283797
0.0288805
0.029395
0.0299228
0.0304639
0.0310179
0.0315849
0.0321646
0.0327571
0.0333622
0.0339799
0.0346102
0.035253
0.0359086
0.0365768
0.0372578
0.0379517
0.0386585
0.0393785
0.0401118
0.0408586
0.0416191
0.0423934
0.0431819
0.0439848
0.0448024
0.045635
0.0215339
0.021616
0.0217218
0.0218506
0.0220018
0.0221751
0.0223701
0.0225864
0.0228237
0.0230815
0.0233593
0.0236566
0.0239727
0.0243071
0.0246593
0.0250287
0.0254148
0.0258172
0.0262354
0.0266689
0.0271174
0.0275806
0.0280581
0.0285496
0.0290549
0.0295736
0.0301057
0.0306508
0.031209
0.0317799
0.0323636
0.03296
0.0335689
0.0341905
0.0348246
0.0354713
0.0361306
0.0368026
0.0374874
0.038185
0.0388957
0.0396195
0.0403567
0.0411074
0.0418717
0.0426501
0.0434426
0.0442495
0.0450713
0.045908
0.0215641
0.0216551
0.0217696
0.0219068
0.0220661
0.0222471
0.0224496
0.0226733
0.0229178
0.0231828
0.0234675
0.0237715
0.0240942
0.024435
0.0247934
0.0251688
0.0255607
0.0259687
0.0263923
0.0268311
0.0272848
0.027753
0.0282353
0.0287316
0.0292415
0.0297647
0.0303012
0.0308508
0.0314132
0.0319884
0.0325763
0.0331767
0.0337898
0.0344154
0.0350535
0.0357042
0.0363676
0.0370436
0.0377324
0.0384341
0.0391488
0.0398767
0.040618
0.0413728
0.0421413
0.0429239
0.0437207
0.044532
0.0453581
0.0461993
0.0215997
0.0217
0.0218236
0.0219694
0.0221369
0.0223258
0.0225362
0.0227677
0.0230198
0.0232923
0.0235843
0.0238954
0.024225
0.0245725
0.0249373
0.0253189
0.0257169
0.0261307
0.02656
0.0270044
0.0274634
0.0279368
0.0284243
0.0289255
0.0294402
0.0299682
0.0305094
0.0310635
0.0316304
0.0322101
0.0328023
0.0334072
0.0340245
0.0346544
0.0352968
0.0359517
0.0366193
0.0372996
0.0379926
0.0386986
0.0394176
0.0401498
0.0408954
0.0416546
0.0424276
0.0432146
0.044016
0.0448319
0.0456627
0.0465087
0.0216415
0.0217512
0.021884
0.0220385
0.0222144
0.0224117
0.0226302
0.0228698
0.02313
0.0234102
0.0237099
0.0240284
0.0243651
0.0247195
0.025091
0.0254792
0.0258834
0.0263034
0.0267386
0.0271887
0.0276533
0.0281321
0.0286249
0.0291312
0.029651
0.030184
0.03073
0.0312889
0.0318606
0.0324449
0.0330417
0.0336511
0.0342729
0.0349073
0.0355542
0.0362136
0.0368856
0.0375703
0.0382678
0.0389783
0.0397018
0.0404386
0.0411888
0.0419526
0.0427303
0.043522
0.0443282
0.0451489
0.0459847
0.0468357
0.0216897
0.0218091
0.0219512
0.0221145
0.022299
0.0225047
0.0227318
0.0229799
0.0232484
0.0235368
0.0238444
0.0241705
0.0245147
0.0248763
0.0252547
0.0256496
0.0260603
0.0264866
0.0269279
0.0273839
0.0278543
0.0283388
0.028837
0.0293488
0.0298738
0.030412
0.030963
0.0315269
0.0321034
0.0326925
0.0332942
0.0339083
0.0345349
0.0351739
0.0358254
0.0364895
0.0371662
0.0378556
0.0385578
0.0392729
0.0400012
0.0407427
0.0414977
0.0422664
0.043049
0.0438457
0.0446569
0.0454828
0.0463237
0.04718
0.0217449
0.021874
0.0220253
0.0221974
0.0223906
0.0226053
0.0228413
0.0230982
0.0233754
0.0236723
0.023988
0.0243221
0.0246739
0.0250428
0.0254284
0.0258302
0.0262476
0.0266804
0.027128
0.0275902
0.0280665
0.0285568
0.0290607
0.0295779
0.0301084
0.0306519
0.0312082
0.0317772
0.0323588
0.0329529
0.0335595
0.0341786
0.03481
0.0354539
0.0361103
0.0367792
0.0374608
0.038155
0.0388621
0.0395822
0.0403154
0.0410619
0.0418219
0.0425957
0.0433834
0.0441854
0.0450018
0.0458331
0.0466794
0.0475413
0.0218075
0.0219461
0.0221064
0.0222874
0.0224897
0.0227136
0.022959
0.0232252
0.0235113
0.0238168
0.024141
0.0244831
0.0248428
0.0252193
0.0256122
0.026021
0.0264453
0.0268847
0.0273388
0.0278072
0.0282897
0.0287859
0.0292956
0.0298186
0.0303547
0.0309036
0.0314653
0.0320396
0.0326264
0.0332258
0.0338375
0.0344616
0.0350982
0.0357471
0.0364085
0.0370825
0.0377691
0.0384684
0.0391806
0.0399057
0.0406441
0.0413958
0.0421611
0.0429401
0.0437332
0.0445406
0.0453626
0.0461994
0.0470515
0.0479191
0.021878
0.0220256
0.0221945
0.0223844
0.0225963
0.0228301
0.0230853
0.023361
0.0236564
0.0239707
0.0243034
0.0246539
0.0250214
0.0254057
0.025806
0.0262221
0.0266534
0.0270996
0.0275603
0.0280351
0.0285238
0.0290262
0.0295418
0.0300706
0.0306124
0.031167
0.0317342
0.032314
0.0329062
0.0335108
0.0341279
0.0347572
0.035399
0.0360532
0.0367198
0.037399
0.0380908
0.0387953
0.0395128
0.0402432
0.0409869
0.041744
0.0425147
0.0432993
0.044098
0.044911
0.0457387
0.0465814
0.0474394
0.048313
0.0219566
0.0221121
0.0222891
0.0224886
0.0227109
0.0229552
0.0232205
0.0235059
0.0238107
0.0241341
0.0244755
0.0248343
0.02521
0.0256021
0.02601
0.0264334
0.0268718
0.0273249
0.0277923
0.0282737
0.0287688
0.0292773
0.0297991
0.0303338
0.0308814
0.0314417
0.0320146
0.0326
0.0331977
0.0338079
0.0344303
0.0350651
0.0357122
0.0363718
0.0370438
0.0377283
0.0384255
0.0391355
0.0398583
0.0405943
0.0413435
0.0421062
0.0428825
0.0436728
0.0444773
0.0452962
0.0461298
0.0469786
0.0478427
0.0487226
0.0220434
0.0222045
0.0223904
0.0226008
0.0228343
0.0230894
0.023365
0.0236603
0.0239746
0.0243071
0.0246573
0.0250246
0.0254085
0.0258084
0.0262241
0.0266549
0.0271005
0.0275606
0.0280348
0.0285228
0.0290243
0.0295392
0.0300671
0.030608
0.0311615
0.0317277
0.0323063
0.0328974
0.0335008
0.0341165
0.0347445
0.0353849
0.0360375
0.0367026
0.0373801
0.0380701
0.0387729
0.0394884
0.0402169
0.0409585
0.0417134
0.0424818
0.043264
0.0440602
0.0448706
0.0456956
0.0465354
0.0473905
0.048261
0.0491474
0.0221375
0.0223018
0.0224999
0.022723
0.0229681
0.0232341
0.0235201
0.0238253
0.024149
0.0244907
0.0248498
0.0252256
0.0256178
0.0260257
0.0264491
0.0268874
0.0273402
0.0278074
0.0282884
0.0287831
0.0292912
0.0298124
0.0303466
0.0308936
0.0314532
0.0320253
0.0326098
0.0332067
0.0338158
0.0344372
0.0350709
0.0357169
0.0363752
0.0370459
0.037729
0.0384247
0.0391331
0.0398543
0.0405886
0.041336
0.0420967
0.0428711
0.0436593
0.0444615
0.0452781
0.0461094
0.0469556
0.0478171
0.0486942
0.0495873
0.0221375
0.0223018
0.0224999
0.022723
0.0229681
0.0232341
0.0235201
0.0238253
0.024149
0.0244907
0.0248498
0.0252256
0.0256178
0.0260257
0.0264491
0.0268874
0.0273402
0.0278074
0.0282884
0.0287831
0.0292912
0.0298124
0.0303466
0.0308936
0.0314532
0.0320253
0.0326098
0.0332067
0.0338158
0.0344372
0.0350709
0.0357169
0.0363752
0.0370458
0.037729
0.0384247
0.0391331
0.0398543
0.0405886
0.041336
0.0420967
0.0428711
0.0436593
0.0444615
0.0452781
0.0461094
0.0469556
0.0478171
0.0486942
0.0495873
0.0220434
0.0222045
0.0223904
0.0226008
0.0228343
0.0230894
0.023365
0.0236603
0.0239746
0.0243071
0.0246573
0.0250246
0.0254085
0.0258084
0.0262241
0.0266549
0.0271005
0.0275606
0.0280348
0.0285228
0.0290243
0.0295392
0.0300671
0.0306079
0.0311615
0.0317277
0.0323063
0.0328974
0.0335008
0.0341165
0.0347445
0.0353849
0.0360375
0.0367026
0.0373801
0.0380701
0.0387729
0.0394884
0.0402169
0.0409585
0.0417134
0.0424818
0.043264
0.0440602
0.0448706
0.0456956
0.0465354
0.0473904
0.048261
0.0491473
0.0219566
0.0221121
0.0222891
0.0224886
0.0227109
0.0229552
0.0232205
0.0235059