/*--------------------------------*- C++ -*----------------------------------*\
  =========                 |
  \\      /  F ield         | OpenFOAM: The Open Source CFD Toolbox
   \\    /   O peration     | Website:  https://openfoam.org
    \\  /    A nd           | Version:  7
     \\/     M anipulation  |
\*---------------------------------------------------------------------------*/
FoamFile
{
    version     2.0;
    format      ascii;
    class       volScalarField;
    location    "216000";
    object      p;
}
// * * * * * * * * * * * * * * * * * * * * * * * * * * * * * * * * * * * * * //

dimensions      [0 2 -2 0 0 0 0];

internalField   nonuniform List<scalar> 
4782
(
-1.43188e-18
-1.43224e-18
-1.43272e-18
-1.43386e-18
-1.43588e-18
-1.43316e-18
-1.43111e-18
-1.43325e-18
-1.4352e-18
-1.43311e-18
-1.41845e-18
-1.41854e-18
-1.43249e-18
-1.43351e-18
-1.42882e-18
-1.44564e-18
-1.43671e-18
-1.42226e-18
-1.4261e-18
-1.42107e-18
-1.423e-18
-1.42877e-18
-1.43121e-18
-1.43147e-18
-1.43011e-18
-1.4312e-18
-1.43121e-18
-1.42916e-18
-1.42929e-18
-1.42381e-18
-1.42878e-18
-1.43996e-18
-1.44747e-18
-1.43278e-18
-1.42778e-18
-1.42157e-18
-1.422e-18
-1.42973e-18
-1.43341e-18
-1.42996e-18
-1.4242e-18
-1.42387e-18
-1.43373e-18
-1.43234e-18
-1.43066e-18
-1.42586e-18
-1.42964e-18
-1.43375e-18
-1.42732e-18
-1.42769e-18
-1.43399e-18
-1.42873e-18
-1.42801e-18
-1.43568e-18
-1.43542e-18
-1.42817e-18
-1.42505e-18
-1.42389e-18
-1.43235e-18
-1.43354e-18
-1.43282e-18
-1.43131e-18
-1.42676e-18
-1.42522e-18
-1.43302e-18
-1.44897e-18
-1.45248e-18
-1.44769e-18
-1.44823e-18
-1.4494e-18
-1.45136e-18
-1.45606e-18
-1.45497e-18
-1.4516e-18
-1.46155e-18
-1.45015e-18
-1.4488e-18
-1.44893e-18
-1.44559e-18
-1.44032e-18
-1.45009e-18
-1.45432e-18
-1.45417e-18
-1.44463e-18
-1.44519e-18
-1.44203e-18
-1.44587e-18
-1.44279e-18
-1.43764e-18
-1.43733e-18
-1.44049e-18
-1.43672e-18
-1.42661e-18
-1.43663e-18
-1.44182e-18
-1.437e-18
-1.43578e-18
-1.44069e-18
-1.43822e-18
-1.4326e-18
-1.43102e-18
-1.43967e-18
-1.44307e-18
-1.43805e-18
-1.43585e-18
-1.43341e-18
-1.43897e-18
-1.43449e-18
-1.43779e-18
-1.43446e-18
-1.43767e-18
-1.44057e-18
-1.43898e-18
-1.43805e-18
-1.43879e-18
-1.43875e-18
-1.44187e-18
-1.43919e-18
-1.43651e-18
-1.43657e-18
-1.43661e-18
-1.41978e-18
-1.4267e-18
-1.4246e-18
-1.4195e-18
-1.42262e-18
-1.42394e-18
-1.43005e-18
-1.44523e-18
-1.4377e-18
-1.43397e-18
-1.43098e-18
-1.42055e-18
-1.41821e-18
-1.43007e-18
-1.43548e-18
-1.43851e-18
-1.43597e-18
-1.43449e-18
-1.42639e-18
-1.42932e-18
-1.42918e-18
-1.43304e-18
-1.43667e-18
-1.43634e-18
-1.43885e-18
-1.4346e-18
-1.43241e-18
-1.42941e-18
-1.43176e-18
-1.43736e-18
-1.43023e-18
-1.43394e-18
-1.43163e-18
-1.431e-18
-1.42886e-18
-1.43786e-18
-1.43639e-18
-1.43486e-18
-1.43495e-18
-1.43498e-18
-1.43436e-18
-1.43403e-18
-1.43127e-18
-1.4324e-18
-1.43816e-18
-1.43547e-18
-1.43502e-18
-1.43754e-18
-1.43356e-18
-1.43119e-18
-1.43418e-18
-1.43505e-18
-1.43549e-18
-1.43329e-18
-1.44258e-18
-1.45084e-18
-1.45043e-18
-1.44139e-18
-1.43851e-18
-1.43258e-18
-1.43553e-18
-1.44609e-18
-1.44699e-18
-1.44906e-18
-1.4422e-18
-1.43877e-18
-1.44052e-18
-1.45096e-18
-1.45343e-18
-1.45105e-18
-1.45004e-18
-1.45259e-18
-1.44478e-18
-1.44873e-18
-1.45254e-18
-1.45217e-18
-1.44036e-18
-1.44471e-18
-1.44782e-18
-1.44897e-18
-1.43714e-18
-1.44445e-18
-1.44702e-18
-1.44903e-18
-1.44895e-18
-1.43923e-18
-1.4391e-18
-1.45185e-18
-1.44278e-18
-1.4351e-18
-1.44077e-18
-1.44471e-18
-1.44302e-18
-1.44345e-18
-1.43819e-18
-1.43405e-18
-1.43342e-18
-1.43401e-18
-1.43936e-18
-1.44029e-18
-1.44553e-18
-1.44407e-18
-1.43757e-18
-1.4419e-18
-1.44177e-18
-1.44069e-18
-1.43982e-18
-1.44058e-18
-1.44253e-18
-1.44486e-18
-1.4376e-18
-1.43941e-18
-1.44095e-18
-1.4424e-18
-1.44492e-18
-1.44305e-18
-1.44444e-18
-1.43713e-18
-1.42559e-18
-1.43664e-18
-1.44567e-18
-1.44387e-18
-1.43192e-18
-1.42694e-18
-1.43212e-18
-1.43927e-18
-1.43347e-18
-1.43766e-18
-1.43382e-18
-1.44053e-18
-1.43406e-18
-1.44272e-18
-1.4396e-18
-1.43601e-18
-1.43651e-18
-1.44713e-18
-1.43421e-18
-1.42735e-18
-1.42936e-18
-1.43114e-18
-1.43044e-18
-1.43147e-18
-1.41916e-18
-1.42754e-18
-1.43483e-18
-1.42977e-18
-1.42809e-18
-1.42828e-18
-1.42895e-18
-1.42849e-18
-1.42948e-18
-1.4319e-18
-1.43512e-18
-1.42988e-18
-1.43047e-18
-1.42584e-18
-1.42754e-18
-1.43371e-18
-1.43114e-18
-1.43166e-18
-1.43284e-18
-1.43478e-18
-1.43627e-18
-1.43494e-18
-1.43963e-18
-1.44762e-18
-1.44155e-18
-1.44245e-18
-1.44551e-18
-1.44961e-18
-1.45483e-18
-1.45147e-18
-1.4374e-18
-1.44036e-18
-1.44878e-18
-1.45108e-18
-1.46064e-18
-1.46494e-18
-1.45595e-18
-1.44556e-18
-1.43799e-18
-1.44283e-18
-1.44543e-18
-1.45319e-18
-1.4485e-18
-1.44579e-18
-1.44551e-18
-1.44529e-18
-1.443e-18
-1.43914e-18
-1.44487e-18
-1.44029e-18
-1.44328e-18
-1.43651e-18
-1.43571e-18
-1.44216e-18
-1.44522e-18
-1.44725e-18
-1.4462e-18
-1.44775e-18
-1.44132e-18
-1.4409e-18
-1.44293e-18
-1.44368e-18
-1.44386e-18
-1.44349e-18
-1.4432e-18
-1.44846e-18
-1.44503e-18
-1.43967e-18
-1.44649e-18
-1.4454e-18
-1.4425e-18
-1.44532e-18
-1.44788e-18
-1.44277e-18
-1.44482e-18
-1.44358e-18
-1.44574e-18
-1.44557e-18
-1.44263e-18
-1.44134e-18
-1.44353e-18
-1.45259e-18
-1.45002e-18
-1.44724e-18
-1.45016e-18
-1.4519e-18
-1.45124e-18
-1.44941e-18
-1.45496e-18
-1.45057e-18
-1.43674e-18
-1.44705e-18
-1.44676e-18
-1.44318e-18
-1.44169e-18
-1.44865e-18
-1.44009e-18
-1.43765e-18
-1.43694e-18
-1.43922e-18
-1.43844e-18
-1.44227e-18
-1.43821e-18
-1.44111e-18
-1.44476e-18
-1.44096e-18
-1.43834e-18
-1.44797e-18
-1.45693e-18
-1.44504e-18
-1.43686e-18
-1.43879e-18
-1.44286e-18
-1.43775e-18
-1.4411e-18
-1.45011e-18
-1.4515e-18
-1.44027e-18
-1.43745e-18
-1.44374e-18
-1.44092e-18
-1.44328e-18
-1.4411e-18
-1.44483e-18
-1.44294e-18
-1.44615e-18
-1.44606e-18
-1.44249e-18
-1.444e-18
-1.44571e-18
-1.44305e-18
-1.44464e-18
-1.44204e-18
-1.44048e-18
-1.4416e-18
-1.44278e-18
-1.4418e-18
-1.44377e-18
-1.44447e-18
-1.44502e-18
-1.44158e-18
-1.46465e-18
-1.4667e-18
-1.46098e-18
-1.458e-18
-1.46565e-18
-1.45915e-18
-1.46421e-18
-1.46418e-18
-1.45791e-18
-1.45298e-18
-1.45255e-18
-1.45848e-18
-1.4656e-18
-1.4599e-18
-1.45951e-18
-1.45587e-18
-1.45586e-18
-1.45845e-18
-1.45807e-18
-1.46391e-18
-1.45944e-18
-1.44803e-18
-1.44389e-18
-1.45677e-18
-1.45458e-18
-1.46271e-18
-1.46604e-18
-1.45528e-18
-1.44949e-18
-1.45327e-18
-1.45909e-18
-1.45929e-18
-1.44871e-18
-1.44947e-18
-1.45059e-18
-1.45347e-18
-1.44715e-18
-1.44333e-18
-1.45278e-18
-1.45346e-18
-1.44769e-18
-1.45357e-18
-1.45376e-18
-1.44662e-18
-1.44748e-18
-1.45602e-18
-1.45606e-18
-1.45535e-18
-1.45002e-18
-1.4508e-18
-1.44977e-18
-1.44932e-18
-1.45169e-18
-1.45036e-18
-1.44803e-18
-1.44743e-18
-1.44744e-18
-1.45214e-18
-1.44929e-18
-1.44866e-18
-1.44532e-18
-1.44471e-18
-1.44597e-18
-1.44872e-18
-1.44781e-18
-1.44442e-18
-1.44639e-18
-1.44547e-18
-1.44601e-18
-1.44565e-18
-1.44626e-18
-1.44734e-18
-1.44613e-18
-1.44658e-18
-1.44593e-18
-1.44633e-18
-1.44681e-18
-1.4473e-18
-1.44666e-18
-1.44671e-18
-1.4468e-18
-1.44642e-18
-1.44639e-18
-1.44655e-18
-1.44628e-18
-1.44672e-18
-1.44651e-18
-1.44626e-18
-1.44653e-18
-1.44669e-18
-1.44667e-18
-1.44652e-18
-1.44649e-18
-1.44643e-18
-1.44641e-18
-1.44454e-18
-1.45301e-18
-1.45578e-18
-1.45433e-18
-1.44088e-18
-1.44695e-18
-1.44774e-18
-1.45547e-18
-1.45159e-18
-1.45365e-18
-1.45314e-18
-1.45036e-18
-1.4545e-18
-1.45907e-18
-1.4557e-18
-1.45504e-18
-1.4552e-18
-1.44798e-18
-1.45694e-18
-1.46288e-18
-1.45953e-18
-1.4566e-18
-1.45282e-18
-1.45171e-18
-1.45136e-18
-1.45047e-18
-1.45108e-18
-1.45728e-18
-1.4561e-18
-1.45063e-18
-1.44827e-18
-1.45311e-18
-1.45402e-18
-1.45716e-18
-1.45374e-18
-1.45577e-18
-1.45804e-18
-1.45617e-18
-1.45168e-18
-1.44859e-18
-1.45009e-18
-1.4522e-18
-1.45048e-18
-1.44906e-18
-1.44765e-18
-1.44922e-18
-1.4481e-18
-1.44812e-18
-1.447e-18
-1.44479e-18
-1.44736e-18
-1.44882e-18
-1.44616e-18
-1.44526e-18
-1.44712e-18
-1.44572e-18
-1.44641e-18
-1.44403e-18
-1.4445e-18
-1.44333e-18
-1.44256e-18
-1.44409e-18
-1.44266e-18
-1.4448e-18
-1.44822e-18
-1.44555e-18
-1.4439e-18
-1.44466e-18
-1.44387e-18
-1.44506e-18
-1.44546e-18
-1.44548e-18
-1.44422e-18
-1.44376e-18
-1.44404e-18
-1.44418e-18
-1.44393e-18
-1.44439e-18
-1.44389e-18
-1.44401e-18
-1.44455e-18
-1.44394e-18
-1.4443e-18
-1.44436e-18
-1.4444e-18
-1.44403e-18
-1.44388e-18
-1.44411e-18
-1.44398e-18
-1.44416e-18
-1.44418e-18
-1.44395e-18
-1.44416e-18
-1.44419e-18
-1.44417e-18
-1.47499e-18
-1.48189e-18
-1.48623e-18
-1.48007e-18
-1.48055e-18
-1.47764e-18
-1.4791e-18
-1.48469e-18
-1.4812e-18
-1.48376e-18
-1.46999e-18
-1.46629e-18
-1.48157e-18
-1.48709e-18
-1.47819e-18
-1.46754e-18
-1.47093e-18
-1.47652e-18
-1.46746e-18
-1.46619e-18
-1.46645e-18
-1.46552e-18
-1.4635e-18
-1.46043e-18
-1.46237e-18
-1.46063e-18
-1.45531e-18
-1.4576e-18
-1.45548e-18
-1.4618e-18
-1.45988e-18
-1.45623e-18
-1.45653e-18
-1.45393e-18
-1.4576e-18
-1.46962e-18
-1.46007e-18
-1.45672e-18
-1.45486e-18
-1.45541e-18
-1.45309e-18
-1.45312e-18
-1.45539e-18
-1.45519e-18
-1.45385e-18
-1.4523e-18
-1.44497e-18
-1.44634e-18
-1.44989e-18
-1.45587e-18
-1.45056e-18
-1.45037e-18
-1.4525e-18
-1.45488e-18
-1.45313e-18
-1.45099e-18
-1.45322e-18
-1.45307e-18
-1.4508e-18
-1.45181e-18
-1.44808e-18
-1.44909e-18
-1.44981e-18
-1.44875e-18
-1.45049e-18
-1.45069e-18
-1.45116e-18
-1.45289e-18
-1.45221e-18
-1.45129e-18
-1.45006e-18
-1.44961e-18
-1.45021e-18
-1.45081e-18
-1.45135e-18
-1.45025e-18
-1.45031e-18
-1.45062e-18
-1.45082e-18
-1.4512e-18
-1.45093e-18
-1.45046e-18
-1.45038e-18
-1.45096e-18
-1.45076e-18
-1.45016e-18
-1.45021e-18
-1.4504e-18
-1.45042e-18
-1.45061e-18
-1.45063e-18
-1.45049e-18
-1.45037e-18
-1.45052e-18
-1.45052e-18
-1.44966e-18
-1.4557e-18
-1.44894e-18
-1.46003e-18
-1.45311e-18
-1.45145e-18
-1.45927e-18
-1.46102e-18
-1.46897e-18
-1.46799e-18
-1.45496e-18
-1.45642e-18
-1.46172e-18
-1.46044e-18
-1.45368e-18
-1.45839e-18
-1.45846e-18
-1.45394e-18
-1.46089e-18
-1.45737e-18
-1.45649e-18
-1.4509e-18
-1.45001e-18
-1.44615e-18
-1.45205e-18
-1.4538e-18
-1.44615e-18
-1.4484e-18
-1.45086e-18
-1.45877e-18
-1.44994e-18
-1.44691e-18
-1.44532e-18
-1.45261e-18
-1.44575e-18
-1.44102e-18
-1.44463e-18
-1.44733e-18
-1.45334e-18
-1.44507e-18
-1.44741e-18
-1.44871e-18
-1.44999e-18
-1.44747e-18
-1.44646e-18
-1.44962e-18
-1.45124e-18
-1.44998e-18
-1.44427e-18
-1.44607e-18
-1.44642e-18
-1.44724e-18
-1.44673e-18
-1.44846e-18
-1.44742e-18
-1.44447e-18
-1.4477e-18
-1.44551e-18
-1.44621e-18
-1.44792e-18
-1.4475e-18
-1.44406e-18
-1.44422e-18
-1.44577e-18
-1.4446e-18
-1.44592e-18
-1.44582e-18
-1.44503e-18
-1.44433e-18
-1.44563e-18
-1.44515e-18
-1.44469e-18
-1.44551e-18
-1.44466e-18
-1.44494e-18
-1.44537e-18
-1.44492e-18
-1.445e-18
-1.44416e-18
-1.44449e-18
-1.44455e-18
-1.44519e-18
-1.44529e-18
-1.44507e-18
-1.44509e-18
-1.4449e-18
-1.44493e-18
-1.44477e-18
-1.44481e-18
-1.44492e-18
-1.44501e-18
-1.44498e-18
-1.44489e-18
-1.4449e-18
-1.44496e-18
-1.48751e-18
-1.47408e-18
-1.46508e-18
-1.46725e-18
-1.45588e-18
-1.46437e-18
-1.46529e-18
-1.45868e-18
-1.46761e-18
-1.47558e-18
-1.46566e-18
-1.46694e-18
-1.47176e-18
-1.46984e-18
-1.46937e-18
-1.46338e-18
-1.46752e-18
-1.47144e-18
-1.46098e-18
-1.46538e-18
-1.4635e-18
-1.46597e-18
-1.47144e-18
-1.46092e-18
-1.46651e-18
-1.46039e-18
-1.45374e-18
-1.45977e-18
-1.46059e-18
-1.4636e-18
-1.46086e-18
-1.45566e-18
-1.45527e-18
-1.45581e-18
-1.45723e-18
-1.4555e-18
-1.45463e-18
-1.45073e-18
-1.45387e-18
-1.45702e-18
-1.44496e-18
-1.44548e-18
-1.45043e-18
-1.45185e-18
-1.45055e-18
-1.44839e-18
-1.45099e-18
-1.45038e-18
-1.44724e-18
-1.45191e-18
-1.45408e-18
-1.45127e-18
-1.44881e-18
-1.45146e-18
-1.45235e-18
-1.45015e-18
-1.44804e-18
-1.45008e-18
-1.45143e-18
-1.44891e-18
-1.44648e-18
-1.44758e-18
-1.44898e-18
-1.44826e-18
-1.44785e-18
-1.44722e-18
-1.44714e-18
-1.44782e-18
-1.44834e-18
-1.44786e-18
-1.44742e-18
-1.44851e-18
-1.44889e-18
-1.4477e-18
-1.44871e-18
-1.44838e-18
-1.44896e-18
-1.44923e-18
-1.44951e-18
-1.44913e-18
-1.44964e-18
-1.44925e-18
-1.44892e-18
-1.44923e-18
-1.44959e-18
-1.4492e-18
-1.44878e-18
-1.44916e-18
-1.44912e-18
-1.44914e-18
-1.44928e-18
-1.44931e-18
-1.44926e-18
-1.44925e-18
-1.44924e-18
-1.45105e-18
-1.45689e-18
-1.45719e-18
-1.45349e-18
-1.44358e-18
-1.45051e-18
-1.45558e-18
-1.4513e-18
-1.45113e-18
-1.45801e-18
-1.43877e-18
-1.44549e-18
-1.44639e-18
-1.44676e-18
-1.44977e-18
-1.44832e-18
-1.4485e-18
-1.45264e-18
-1.44488e-18
-1.4491e-18
-1.44927e-18
-1.44593e-18
-1.44759e-18
-1.44574e-18
-1.43973e-18
-1.44288e-18
-1.44607e-18
-1.44735e-18
-1.4468e-18
-1.43923e-18
-1.4426e-18
-1.44493e-18
-1.44252e-18
-1.43625e-18
-1.44624e-18
-1.45233e-18
-1.44791e-18
-1.44003e-18
-1.44259e-18
-1.4464e-18
-1.44906e-18
-1.44807e-18
-1.44743e-18
-1.44399e-18
-1.44983e-18
-1.44679e-18
-1.44678e-18
-1.45022e-18
-1.45078e-18
-1.44775e-18
-1.44208e-18
-1.44653e-18
-1.44853e-18
-1.44746e-18
-1.44517e-18
-1.44555e-18
-1.44801e-18
-1.44528e-18
-1.44428e-18
-1.44413e-18
-1.44197e-18
-1.44126e-18
-1.44439e-18
-1.44461e-18
-1.4424e-18
-1.44239e-18
-1.44305e-18
-1.44224e-18
-1.44265e-18
-1.44263e-18
-1.44221e-18
-1.44278e-18
-1.44269e-18
-1.44323e-18
-1.44298e-18
-1.44271e-18
-1.4425e-18
-1.44311e-18
-1.4431e-18
-1.44337e-18
-1.44251e-18
-1.44281e-18
-1.44323e-18
-1.4432e-18
-1.44282e-18
-1.44255e-18
-1.44282e-18
-1.44317e-18
-1.44335e-18
-1.44304e-18
-1.44291e-18
-1.44292e-18
-1.44302e-18
-1.44301e-18
-1.443e-18
-1.47458e-18
-1.47255e-18
-1.4728e-18
-1.46443e-18
-1.45777e-18
-1.47329e-18
-1.46675e-18
-1.46516e-18
-1.47079e-18
-1.46283e-18
-1.45729e-18
-1.46175e-18
-1.45813e-18
-1.45279e-18
-1.46193e-18
-1.46217e-18
-1.46274e-18
-1.46555e-18
-1.46093e-18
-1.45769e-18
-1.46497e-18
-1.46849e-18
-1.46206e-18
-1.45875e-18
-1.45273e-18
-1.46212e-18
-1.46074e-18
-1.45519e-18
-1.45319e-18
-1.45222e-18
-1.44986e-18
-1.44573e-18
-1.44831e-18
-1.44078e-18
-1.44683e-18
-1.45027e-18
-1.44325e-18
-1.44061e-18
-1.44357e-18
-1.44858e-18
-1.45293e-18
-1.44747e-18
-1.44187e-18
-1.44396e-18
-1.44821e-18
-1.44272e-18
-1.44689e-18
-1.44638e-18
-1.4445e-18
-1.44573e-18
-1.44643e-18
-1.44663e-18
-1.4461e-18
-1.44612e-18
-1.44568e-18
-1.44672e-18
-1.44423e-18
-1.44525e-18
-1.4476e-18
-1.44863e-18
-1.44767e-18
-1.44996e-18
-1.44845e-18
-1.44635e-18
-1.44452e-18
-1.44664e-18
-1.44759e-18
-1.44702e-18
-1.44771e-18
-1.44895e-18
-1.44799e-18
-1.44819e-18
-1.44736e-18
-1.44778e-18
-1.44764e-18
-1.44734e-18
-1.44794e-18
-1.44823e-18
-1.44855e-18
-1.44832e-18
-1.44821e-18
-1.44822e-18
-1.44822e-18
-1.44799e-18
-1.44751e-18
-1.44792e-18
-1.44806e-18
-1.44805e-18
-1.4483e-18
-1.44806e-18
-1.44804e-18
-1.4481e-18
-1.44803e-18
-1.448e-18
-1.44801e-18
-1.43824e-18
-1.43603e-18
-1.4445e-18
-1.45072e-18
-1.45756e-18
-1.45041e-18
-1.454e-18
-1.44354e-18
-1.4503e-18
-1.45649e-18
-1.44735e-18
-1.45495e-18
-1.44876e-18
-1.44347e-18
-1.45609e-18
-1.44838e-18
-1.45234e-18
-1.45424e-18
-1.44506e-18
-1.44326e-18
-1.43604e-18
-1.4445e-18
-1.44075e-18
-1.43846e-18
-1.44069e-18
-1.4367e-18
-1.42906e-18
-1.44119e-18
-1.43681e-18
-1.44033e-18
-1.43764e-18
-1.43403e-18
-1.43184e-18
-1.43781e-18
-1.43762e-18
-1.44353e-18
-1.43738e-18
-1.43901e-18
-1.43397e-18
-1.43403e-18
-1.43428e-18
-1.43368e-18
-1.4336e-18
-1.43847e-18
-1.43509e-18
-1.43134e-18
-1.43144e-18
-1.43402e-18
-1.43583e-18
-1.43585e-18
-1.43605e-18
-1.43535e-18
-1.43379e-18
-1.43675e-18
-1.44006e-18
-1.4396e-18
-1.4391e-18
-1.43832e-18
-1.43907e-18
-1.43854e-18
-1.43976e-18
-1.44161e-18
-1.44146e-18
-1.44166e-18
-1.43995e-18
-1.43978e-18
-1.44107e-18
-1.44218e-18
-1.4424e-18
-1.44124e-18
-1.44062e-18
-1.44295e-18
-1.44204e-18
-1.44094e-18
-1.44157e-18
-1.44191e-18
-1.44179e-18
-1.44166e-18
-1.4424e-18
-1.44244e-18
-1.44148e-18
-1.44157e-18
-1.44201e-18
-1.44213e-18
-1.44209e-18
-1.44215e-18
-1.44218e-18
-1.44216e-18
-1.4421e-18
-1.44225e-18
-1.44221e-18
-1.44232e-18
-1.44222e-18
-1.44225e-18
-1.44222e-18
-1.45991e-18
-1.46488e-18
-1.46477e-18
-1.46076e-18
-1.46097e-18
-1.46747e-18
-1.47365e-18
-1.4593e-18
-1.45888e-18
-1.46207e-18
-1.46029e-18
-1.45475e-18
-1.45468e-18
-1.46621e-18
-1.45998e-18
-1.45624e-18
-1.447e-18
-1.44379e-18
-1.45652e-18
-1.45617e-18
-1.45302e-18
-1.45128e-18
-1.45616e-18
-1.45149e-18
-1.44331e-18
-1.44407e-18
-1.4475e-18
-1.45572e-18
-1.45216e-18
-1.44941e-18
-1.44729e-18
-1.44618e-18
-1.44566e-18
-1.44691e-18
-1.4491e-18
-1.44299e-18
-1.44974e-18
-1.44271e-18
-1.4408e-18
-1.44521e-18
-1.44535e-18
-1.44629e-18
-1.44577e-18
-1.44857e-18
-1.44741e-18
-1.43907e-18
-1.44802e-18
-1.44961e-18
-1.44645e-18
-1.44457e-18
-1.44692e-18
-1.44663e-18
-1.44827e-18
-1.44615e-18
-1.44739e-18
-1.44719e-18
-1.44943e-18
-1.44925e-18
-1.44927e-18
-1.44838e-18
-1.44811e-18
-1.44749e-18
-1.45023e-18
-1.4509e-18
-1.44927e-18
-1.45083e-18
-1.45091e-18
-1.45018e-18
-1.45051e-18
-1.45017e-18
-1.44973e-18
-1.4484e-18
-1.44849e-18
-1.44847e-18
-1.44931e-18
-1.44991e-18
-1.44977e-18
-1.44988e-18
-1.4504e-18
-1.4501e-18
-1.45027e-18
-1.44952e-18
-1.44956e-18
-1.44982e-18
-1.4497e-18
-1.44952e-18
-1.44927e-18
-1.44949e-18
-1.44961e-18
-1.44964e-18
-1.44954e-18
-1.44959e-18
-1.44965e-18
-1.44964e-18
-1.44961e-18
-1.43613e-18
-1.44573e-18
-1.44246e-18
-1.43753e-18
-1.4355e-18
-1.43271e-18
-1.44157e-18
-1.44737e-18
-1.44717e-18
-1.43792e-18
-1.44117e-18
-1.44394e-18
-1.4432e-18
-1.43487e-18
-1.43323e-18
-1.43318e-18
-1.43772e-18
-1.43026e-18
-1.4351e-18
-1.42717e-18
-1.42815e-18
-1.43418e-18
-1.43619e-18
-1.42622e-18
-1.42828e-18
-1.43783e-18
-1.44024e-18
-1.42989e-18
-1.42632e-18
-1.43386e-18
-1.43387e-18
-1.43177e-18
-1.42756e-18
-1.42545e-18
-1.42982e-18
-1.42873e-18
-1.42894e-18
-1.43067e-18
-1.42769e-18
-1.4253e-18
-1.42981e-18
-1.42842e-18
-1.43111e-18
-1.43168e-18
-1.4352e-18
-1.43365e-18
-1.43174e-18
-1.43033e-18
-1.43628e-18
-1.43836e-18
-1.43539e-18
-1.43294e-18
-1.43597e-18
-1.43857e-18
-1.44082e-18
-1.43933e-18
-1.43854e-18
-1.4362e-18
-1.43702e-18
-1.43973e-18
-1.4374e-18
-1.44025e-18
-1.44007e-18
-1.43878e-18
-1.4403e-18
-1.44055e-18
-1.4403e-18
-1.43993e-18
-1.4402e-18
-1.4408e-18
-1.44006e-18
-1.4393e-18
-1.44023e-18
-1.44008e-18
-1.43977e-18
-1.44042e-18
-1.44117e-18
-1.44128e-18
-1.44027e-18
-1.44027e-18
-1.44062e-18
-1.44019e-18
-1.44015e-18
-1.44051e-18
-1.44055e-18
-1.44025e-18
-1.44014e-18
-1.44021e-18
-1.4405e-18
-1.44057e-18
-1.44047e-18
-1.44022e-18
-1.44037e-18
-1.44046e-18
-1.44043e-18
-1.46117e-18
-1.46131e-18
-1.44647e-18
-1.44854e-18
-1.45205e-18
-1.45005e-18
-1.44841e-18
-1.45707e-18
-1.45272e-18
-1.44969e-18
-1.45025e-18
-1.45435e-18
-1.45563e-18
-1.44488e-18
-1.43959e-18
-1.43749e-18
-1.44341e-18
-1.4445e-18
-1.44203e-18
-1.44827e-18
-1.44537e-18
-1.44413e-18
-1.44576e-18
-1.44574e-18
-1.44467e-18
-1.44564e-18
-1.44381e-18
-1.45107e-18
-1.44237e-18
-1.43972e-18
-1.43683e-18
-1.44315e-18
-1.44294e-18
-1.44718e-18
-1.44035e-18
-1.43971e-18
-1.44502e-18
-1.4379e-18
-1.43871e-18
-1.44411e-18
-1.44348e-18
-1.442e-18
-1.44264e-18
-1.445e-18
-1.44369e-18
-1.44372e-18
-1.44177e-18
-1.44202e-18
-1.4441e-18
-1.44425e-18
-1.44063e-18
-1.44472e-18
-1.44539e-18
-1.44047e-18
-1.44151e-18
-1.44305e-18
-1.44531e-18
-1.44188e-18
-1.44232e-18
-1.44765e-18
-1.4482e-18
-1.44362e-18
-1.44356e-18
-1.44511e-18
-1.44647e-18
-1.44592e-18
-1.4449e-18
-1.44592e-18
-1.44662e-18
-1.44623e-18
-1.44604e-18
-1.44487e-18
-1.44653e-18
-1.44721e-18
-1.4461e-18
-1.44636e-18
-1.44723e-18
-1.4467e-18
-1.4461e-18
-1.44658e-18
-1.44696e-18
-1.44667e-18
-1.4467e-18
-1.44676e-18
-1.44656e-18
-1.44676e-18
-1.44678e-18
-1.44664e-18
-1.44659e-18
-1.44659e-18
-1.44657e-18
-1.44651e-18
-1.44654e-18
-1.44656e-18
-1.44658e-18
-1.45562e-18
-1.44363e-18
-1.4471e-18
-1.44348e-18
-1.45033e-18
-1.44882e-18
-1.44721e-18
-1.4399e-18
-1.44784e-18
-1.4413e-18
-1.43577e-18
-1.4374e-18
-1.43758e-18
-1.4394e-18
-1.43798e-18
-1.43844e-18
-1.43578e-18
-1.43192e-18
-1.43843e-18
-1.43993e-18
-1.44079e-18
-1.44104e-18
-1.43893e-18
-1.43631e-18
-1.43087e-18
-1.4296e-18
-1.42463e-18
-1.43167e-18
-1.43543e-18
-1.43041e-18
-1.43053e-18
-1.4289e-18
-1.42786e-18
-1.42588e-18
-1.43051e-18
-1.43196e-18
-1.43401e-18
-1.43235e-18
-1.43097e-18
-1.43503e-18
-1.43315e-18
-1.42957e-18
-1.43118e-18
-1.43266e-18
-1.43307e-18
-1.42941e-18
-1.43176e-18
-1.43192e-18
-1.43171e-18
-1.42659e-18
-1.42977e-18
-1.43251e-18
-1.43007e-18
-1.43016e-18
-1.43067e-18
-1.43551e-18
-1.43514e-18
-1.43286e-18
-1.43263e-18
-1.43179e-18
-1.43175e-18
-1.43216e-18
-1.43249e-18
-1.43314e-18
-1.43476e-18
-1.43581e-18
-1.43492e-18
-1.43488e-18
-1.43505e-18
-1.43564e-18
-1.43632e-18
-1.4359e-18
-1.43554e-18
-1.43569e-18
-1.43676e-18
-1.43639e-18
-1.43636e-18
-1.43707e-18
-1.43646e-18
-1.43621e-18
-1.43581e-18
-1.43652e-18
-1.43695e-18
-1.43651e-18
-1.4367e-18
-1.43696e-18
-1.43694e-18
-1.43703e-18
-1.437e-18
-1.43684e-18
-1.43697e-18
-1.43699e-18
-1.4369e-18
-1.43688e-18
-1.43689e-18
-1.45751e-18
-1.44471e-18
-1.44176e-18
-1.44587e-18
-1.45594e-18
-1.45347e-18
-1.45e-18
-1.44791e-18
-1.44834e-18
-1.44229e-18
-1.44602e-18
-1.44564e-18
-1.44851e-18
-1.44325e-18
-1.44743e-18
-1.44775e-18
-1.44816e-18
-1.44579e-18
-1.44555e-18
-1.44442e-18
-1.44808e-18
-1.44254e-18
-1.44171e-18
-1.44493e-18
-1.44511e-18
-1.4424e-18
-1.44035e-18
-1.44108e-18
-1.44108e-18
-1.44238e-18
-1.44376e-18
-1.44174e-18
-1.43561e-18
-1.43425e-18
-1.43939e-18
-1.43859e-18
-1.43641e-18
-1.44111e-18
-1.44233e-18
-1.43986e-18
-1.43412e-18
-1.43615e-18
-1.43751e-18
-1.43631e-18
-1.43298e-18
-1.43588e-18
-1.43665e-18
-1.43804e-18
-1.43916e-18
-1.43749e-18
-1.44119e-18
-1.44109e-18
-1.44078e-18
-1.44107e-18
-1.44093e-18
-1.44136e-18
-1.44064e-18
-1.43974e-18
-1.43868e-18
-1.44066e-18
-1.44005e-18
-1.44264e-18
-1.44094e-18
-1.43992e-18
-1.43992e-18
-1.44142e-18
-1.43978e-18
-1.4408e-18
-1.44073e-18
-1.44236e-18
-1.44327e-18
-1.44247e-18
-1.44202e-18
-1.44242e-18
-1.4427e-18
-1.44286e-18
-1.44326e-18
-1.44356e-18
-1.44315e-18
-1.44341e-18
-1.44309e-18
-1.44303e-18
-1.44343e-18
-1.44324e-18
-1.44274e-18
-1.44312e-18
-1.44335e-18
-1.44282e-18
-1.44296e-18
-1.44302e-18
-1.44301e-18
-1.44308e-18
-1.44299e-18
-1.44304e-18
-1.44301e-18
-1.44876e-18
-1.44585e-18
-1.44277e-18
-1.44179e-18
-1.44156e-18
-1.45128e-18
-1.44136e-18
-1.44026e-18
-1.44102e-18
-1.44683e-18
-1.44153e-18
-1.44775e-18
-1.44316e-18
-1.43718e-18
-1.43894e-18
-1.44831e-18
-1.44744e-18
-1.4455e-18
-1.44733e-18
-1.44236e-18
-1.44247e-18
-1.43958e-18
-1.44482e-18
-1.44231e-18
-1.44064e-18
-1.43582e-18
-1.43346e-18
-1.43603e-18
-1.43928e-18
-1.44242e-18
-1.43214e-18
-1.43334e-18
-1.4363e-18
-1.43609e-18
-1.4347e-18
-1.43541e-18
-1.43419e-18
-1.43038e-18
-1.43108e-18
-1.43129e-18
-1.4375e-18
-1.44058e-18
-1.43377e-18
-1.43248e-18
-1.43526e-18
-1.43302e-18
-1.43258e-18
-1.43298e-18
-1.43301e-18
-1.43465e-18
-1.43426e-18
-1.43652e-18
-1.43308e-18
-1.43249e-18
-1.43081e-18
-1.43203e-18
-1.43505e-18
-1.43699e-18
-1.43644e-18
-1.43596e-18
-1.43665e-18
-1.4356e-18
-1.43574e-18
-1.43564e-18
-1.43578e-18
-1.43634e-18
-1.43756e-18
-1.43792e-18
-1.4374e-18
-1.43695e-18
-1.43786e-18
-1.4381e-18
-1.43851e-18
-1.43887e-18
-1.43867e-18
-1.43907e-18
-1.43908e-18
-1.43861e-18
-1.43864e-18
-1.43906e-18
-1.43887e-18
-1.43904e-18
-1.43899e-18
-1.43876e-18
-1.43902e-18
-1.43904e-18
-1.43887e-18
-1.43894e-18
-1.43877e-18
-1.43879e-18
-1.43888e-18
-1.43877e-18
-1.43882e-18
-1.43888e-18
-1.43894e-18
-1.44897e-18
-1.45603e-18
-1.45955e-18
-1.46107e-18
-1.45391e-18
-1.44957e-18
-1.45324e-18
-1.45475e-18
-1.45989e-18
-1.46206e-18
-1.45906e-18
-1.45973e-18
-1.46602e-18
-1.47075e-18
-1.46489e-18
-1.4577e-18
-1.45384e-18
-1.45707e-18
-1.45469e-18
-1.45635e-18
-1.45543e-18
-1.4506e-18
-1.44833e-18
-1.44751e-18
-1.44809e-18
-1.45007e-18
-1.447e-18
-1.44538e-18
-1.44343e-18
-1.444e-18
-1.45026e-18
-1.44626e-18
-1.44326e-18
-1.44581e-18
-1.44957e-18
-1.44672e-18
-1.44517e-18
-1.44198e-18
-1.44178e-18
-1.44411e-18
-1.44172e-18
-1.44307e-18
-1.44474e-18
-1.43934e-18
-1.4423e-18
-1.44184e-18
-1.44024e-18
-1.44347e-18
-1.44612e-18
-1.44367e-18
-1.44522e-18
-1.44734e-18
-1.4471e-18
-1.44564e-18
-1.44785e-18
-1.44664e-18
-1.44818e-18
-1.44812e-18
-1.4456e-18
-1.44319e-18
-1.44532e-18
-1.44731e-18
-1.44573e-18
-1.44541e-18
-1.44572e-18
-1.44735e-18
-1.44789e-18
-1.44758e-18
-1.44724e-18
-1.44847e-18
-1.44899e-18
-1.44798e-18
-1.44739e-18
-1.44748e-18
-1.44771e-18
-1.44784e-18
-1.4474e-18
-1.44806e-18
-1.44872e-18
-1.44869e-18
-1.4483e-18
-1.44846e-18
-1.44848e-18
-1.44853e-18
-1.44838e-18
-1.44835e-18
-1.44852e-18
-1.44866e-18
-1.44857e-18
-1.44856e-18
-1.44858e-18
-1.44858e-18
-1.44847e-18
-1.44845e-18
-1.44852e-18
-1.44992e-18
-1.45778e-18
-1.45584e-18
-1.44068e-18
-1.44623e-18
-1.45349e-18
-1.45594e-18
-1.45266e-18
-1.45486e-18
-1.45906e-18
-1.45107e-18
-1.44925e-18
-1.44803e-18
-1.44837e-18
-1.4461e-18
-1.45043e-18
-1.45044e-18
-1.4473e-18
-1.4477e-18
-1.4478e-18
-1.44478e-18
-1.44428e-18
-1.44718e-18
-1.44804e-18
-1.44655e-18
-1.44752e-18
-1.44875e-18
-1.44737e-18
-1.44637e-18
-1.44285e-18
-1.44413e-18
-1.44003e-18
-1.43939e-18
-1.44133e-18
-1.4397e-18
-1.4383e-18
-1.43786e-18
-1.43837e-18
-1.43982e-18
-1.43937e-18
-1.44566e-18
-1.44545e-18
-1.44426e-18
-1.44111e-18
-1.4405e-18
-1.43918e-18
-1.44053e-18
-1.44088e-18
-1.44259e-18
-1.44247e-18
-1.44145e-18
-1.44202e-18
-1.44249e-18
-1.43922e-18
-1.44179e-18
-1.44172e-18
-1.44133e-18
-1.4418e-18
-1.44401e-18
-1.4431e-18
-1.44325e-18
-1.44377e-18
-1.44452e-18
-1.44463e-18
-1.44392e-18
-1.44366e-18
-1.44462e-18
-1.44473e-18
-1.4443e-18
-1.44473e-18
-1.44418e-18
-1.44429e-18
-1.44427e-18
-1.44402e-18
-1.44447e-18
-1.44443e-18
-1.44472e-18
-1.44457e-18
-1.44446e-18
-1.44482e-18
-1.44462e-18
-1.4444e-18
-1.44443e-18
-1.44454e-18
-1.44451e-18
-1.44457e-18
-1.44461e-18
-1.44468e-18
-1.44469e-18
-1.44465e-18
-1.44456e-18
-1.44454e-18
-1.44455e-18
-1.44457e-18
-1.44459e-18
-1.45999e-18
-1.45991e-18
-1.456e-18
-1.45907e-18
-1.46691e-18
-1.4645e-18
-1.46114e-18
-1.46008e-18
-1.46123e-18
-1.46574e-18
-1.46922e-18
-1.47084e-18
-1.46758e-18
-1.4658e-18
-1.46745e-18
-1.46232e-18
-1.46341e-18
-1.46958e-18
-1.46632e-18
-1.46349e-18
-1.46381e-18
-1.46535e-18
-1.46304e-18
-1.46186e-18
-1.46444e-18
-1.4624e-18
-1.45586e-18
-1.45674e-18
-1.45772e-18
-1.458e-18
-1.45807e-18
-1.45429e-18
-1.45229e-18
-1.45472e-18
-1.45456e-18
-1.45378e-18
-1.45127e-18
-1.45537e-18
-1.45808e-18
-1.45316e-18
-1.45081e-18
-1.44918e-18
-1.45153e-18
-1.45449e-18
-1.45747e-18
-1.45676e-18
-1.45709e-18
-1.4581e-18
-1.4554e-18
-1.45511e-18
-1.45686e-18
-1.457e-18
-1.45669e-18
-1.45594e-18
-1.45861e-18
-1.4603e-18
-1.45939e-18
-1.45836e-18
-1.45722e-18
-1.45785e-18
-1.45733e-18
-1.45646e-18
-1.45558e-18
-1.45665e-18
-1.45649e-18
-1.456e-18
-1.45531e-18
-1.4552e-18
-1.45622e-18
-1.45555e-18
-1.4565e-18
-1.45692e-18
-1.45666e-18
-1.45569e-18
-1.45493e-18
-1.45498e-18
-1.45499e-18
-1.45565e-18
-1.45598e-18
-1.45545e-18
-1.45512e-18
-1.4551e-18
-1.45495e-18
-1.45517e-18
-1.45537e-18
-1.45514e-18
-1.45493e-18
-1.45486e-18
-1.45512e-18
-1.45508e-18
-1.45498e-18
-1.45495e-18
-1.45495e-18
-1.45496e-18
-1.45497e-18
-1.47257e-18
-1.4713e-18
-1.46925e-18
-1.47475e-18
-1.46994e-18
-1.46746e-18
-1.46839e-18
-1.4706e-18
-1.46515e-18
-1.46634e-18
-1.46742e-18
-1.46411e-18
-1.46175e-18
-1.46339e-18
-1.46382e-18
-1.46511e-18
-1.46631e-18
-1.46058e-18
-1.4557e-18
-1.45733e-18
-1.45876e-18
-1.45957e-18
-1.46212e-18
-1.4615e-18
-1.4573e-18
-1.45566e-18
-1.45564e-18
-1.45598e-18
-1.45417e-18
-1.45226e-18
-1.4539e-18
-1.4518e-18
-1.4504e-18
-1.4524e-18
-1.45542e-18
-1.45648e-18
-1.45676e-18
-1.46027e-18
-1.46052e-18
-1.45692e-18
-1.45406e-18
-1.45695e-18
-1.45879e-18
-1.45509e-18
-1.45649e-18
-1.45533e-18
-1.45534e-18
-1.45469e-18
-1.45458e-18
-1.4547e-18
-1.45506e-18
-1.454e-18
-1.4537e-18
-1.45413e-18
-1.45399e-18
-1.4533e-18
-1.45207e-18
-1.45199e-18
-1.453e-18
-1.45415e-18
-1.45425e-18
-1.45241e-18
-1.45335e-18
-1.45334e-18
-1.45338e-18
-1.45441e-18
-1.45277e-18
-1.45333e-18
-1.4525e-18
-1.45215e-18
-1.45341e-18
-1.45348e-18
-1.45331e-18
-1.45326e-18
-1.45312e-18
-1.45285e-18
-1.45274e-18
-1.45302e-18
-1.45331e-18
-1.45329e-18
-1.45304e-18
-1.45286e-18
-1.45298e-18
-1.45304e-18
-1.45281e-18
-1.45284e-18
-1.4528e-18
-1.45297e-18
-1.45297e-18
-1.45281e-18
-1.45283e-18
-1.4529e-18
-1.45292e-18
-1.45292e-18
-1.45291e-18
-1.46808e-18
-1.46358e-18
-1.46728e-18
-1.47078e-18
-1.47774e-18
-1.47563e-18
-1.46808e-18
-1.4697e-18
-1.47463e-18
-1.4732e-18
-1.4721e-18
-1.46912e-18
-1.47168e-18
-1.47347e-18
-1.47244e-18
-1.47476e-18
-1.47035e-18
-1.46914e-18
-1.47008e-18
-1.46848e-18
-1.46616e-18
-1.46443e-18
-1.45866e-18
-1.46385e-18
-1.46635e-18
-1.46497e-18
-1.46415e-18
-1.4617e-18
-1.46647e-18
-1.46549e-18
-1.46467e-18
-1.46477e-18
-1.465e-18
-1.46419e-18
-1.46116e-18
-1.46455e-18
-1.46832e-18
-1.46415e-18
-1.46611e-18
-1.46281e-18
-1.46472e-18
-1.46601e-18
-1.46635e-18
-1.46577e-18
-1.46624e-18
-1.46769e-18
-1.46644e-18
-1.46499e-18
-1.46625e-18
-1.46411e-18
-1.46513e-18
-1.46509e-18
-1.46563e-18
-1.46623e-18
-1.46482e-18
-1.464e-18
-1.46421e-18
-1.46376e-18
-1.46359e-18
-1.46313e-18
-1.46294e-18
-1.46236e-18
-1.46265e-18
-1.46286e-18
-1.4631e-18
-1.46254e-18
-1.4622e-18
-1.46208e-18
-1.46241e-18
-1.46171e-18
-1.46099e-18
-1.46159e-18
-1.46111e-18
-1.46061e-18
-1.46107e-18
-1.46103e-18
-1.46089e-18
-1.46113e-18
-1.46113e-18
-1.4608e-18
-1.46088e-18
-1.46092e-18
-1.46053e-18
-1.46051e-18
-1.4607e-18
-1.46065e-18
-1.4607e-18
-1.46057e-18
-1.46054e-18
-1.46047e-18
-1.46048e-18
-1.46055e-18
-1.46057e-18
-1.46052e-18
-1.46052e-18
-1.46765e-18
-1.47412e-18
-1.47355e-18
-1.46965e-18
-1.46822e-18
-1.46886e-18
-1.47038e-18
-1.47182e-18
-1.46543e-18
-1.46215e-18
-1.46188e-18
-1.46352e-18
-1.46184e-18
-1.46412e-18
-1.46303e-18
-1.46064e-18
-1.46402e-18
-1.4642e-18
-1.45738e-18
-1.46377e-18
-1.468e-18
-1.46373e-18
-1.45711e-18
-1.46223e-18
-1.4654e-18
-1.46583e-18
-1.46665e-18
-1.46529e-18
-1.46727e-18
-1.46339e-18
-1.46438e-18
-1.4633e-18
-1.46572e-18
-1.46846e-18
-1.47004e-18
-1.46526e-18
-1.46606e-18
-1.46899e-18
-1.47119e-18
-1.46745e-18
-1.46447e-18
-1.46352e-18
-1.46482e-18
-1.4641e-18
-1.46558e-18
-1.46607e-18
-1.4659e-18
-1.46601e-18
-1.46699e-18
-1.4662e-18
-1.4643e-18
-1.46515e-18
-1.46489e-18
-1.46513e-18
-1.46331e-18
-1.46424e-18
-1.46488e-18
-1.46431e-18
-1.46444e-18
-1.4623e-18
-1.46293e-18
-1.46395e-18
-1.46185e-18
-1.46149e-18
-1.46121e-18
-1.46147e-18