/*--------------------------------*- C++ -*----------------------------------*\
  =========                 |
  \\      /  F ield         | OpenFOAM: The Open Source CFD Toolbox
   \\    /   O peration     | Website:  https://openfoam.org
    \\  /    A nd           | Version:  7
     \\/     M anipulation  |
\*---------------------------------------------------------------------------*/
FoamFile
{
    version     2.0;
    format      ascii;
    class       volScalarField;
    location    "64000";
    object      strainRate;
}
// * * * * * * * * * * * * * * * * * * * * * * * * * * * * * * * * * * * * * //

dimensions      [0 0 -1 0 0 0 0];

internalField   nonuniform List<scalar> 
4814
(
0.0905311
0.0901996
0.0898978
0.0896374
0.10122
0.100446
0.0997181
0.0990112
0.0983255
0.0976643
0.097026
0.0964185
0.0958403
0.0952979
0.0947892
0.0943062
0.0938659
0.0934526
0.0930723
0.0927343
0.0924284
0.0921638
0.0919317
0.0917294
0.0915598
0.0914254
0.0913187
0.0912465
0.0912074
0.0912071
0.0912464
0.0913169
0.0914157
0.0915576
0.0917259
0.0919213
0.0921474
0.0924118
0.103961
0.103177
0.10244
0.101724
0.101029
0.100358
0.0997089
0.0990917
0.0985052
0.0979563
0.0974404
0.0969491
0.0965004
0.096081
0.0956941
0.0953494
0.09504
0.094771
0.0945343
0.0943284
0.0941575
0.094019
0.0939109
0.0938382
0.0937973
0.0937968
0.0938372
0.0939089
0.0940085
0.0941544
0.0943266
0.0945247
0.0947547
0.0950234
0.0953315
0.0956786
0.0960645
0.096493
0.096959
0.0974477
0.0979694
0.10678
0.105986
0.10524
0.104516
0.103811
0.10313
0.102472
0.101846
0.101251
0.100696
0.100173
0.0996746
0.0992166
0.098792
0.098399
0.0980474
0.0977348
0.0974608
0.0972193
0.0970105
0.0968383
0.0966957
0.0965859
0.0965128
0.0964709
0.0964697
0.096511
0.0965836
0.0966845
0.0968342
0.0970104
0.0972115
0.0974449
0.0977177
0.0980307
0.0983833
0.0987748
0.0992098
0.0996829
0.10018
0.10071
0.101272
0.101869
0.102487
0.109678
0.108875
0.108119
0.107387
0.106675
0.105984
0.105316
0.104681
0.10408
0.103518
0.102989
0.102484
0.102016
0.101588
0.101189
0.10083
0.100514
0.100235
0.0999889
0.0997774
0.0996038
0.0994574
0.099346
0.0992721
0.0992301
0.0992282
0.0992696
0.0993433
0.0994461
0.0995993
0.0997787
0.0999836
0.10022
0.100497
0.100814
0.101172
0.10157
0.102011
0.10249
0.102996
0.103533
0.104102
0.104707
0.105333
0.112654
0.111842
0.111078
0.110339
0.109618
0.108919
0.108243
0.107601
0.106993
0.106424
0.105888
0.105378
0.104902
0.104469
0.104065
0.1037
0.103379
0.103095
0.102845
0.102631
0.102456
0.102306
0.102193
0.102118
0.102076
0.102074
0.102115
0.10219
0.102295
0.102451
0.102633
0.102842
0.103082
0.103362
0.103684
0.104047
0.10445
0.104897
0.105382
0.105896
0.106441
0.107016
0.107627
0.108261
0.115708
0.114889
0.114117
0.113371
0.112644
0.111936
0.111253
0.110603
0.10999
0.109415
0.108873
0.108357
0.107873
0.107437
0.107028
0.106657
0.106332
0.106042
0.105789
0.105572
0.105395
0.105243
0.105129
0.105053
0.105011
0.105009
0.105049
0.105125
0.105233
0.105391
0.105576
0.105788
0.106031
0.106316
0.106641
0.107009
0.107417
0.10787
0.108359
0.108882
0.109433
0.110013
0.110631
0.111271
0.118839
0.118014
0.117236
0.116483
0.11575
0.115035
0.114346
0.113691
0.113071
0.112492
0.111944
0.111423
0.110932
0.110492
0.110078
0.109703
0.109374
0.109078
0.108822
0.108602
0.108424
0.108269
0.108154
0.108077
0.108035
0.108034
0.108072
0.108149
0.10826
0.108419
0.108606
0.108823
0.109069
0.109357
0.109686
0.110059
0.110471
0.11093
0.111423
0.111952
0.112509
0.113096
0.113718
0.114364
0.115039
0.122046
0.121217
0.120433
0.119674
0.118936
0.118215
0.117522
0.116862
0.116238
0.115653
0.1151
0.114574
0.114079
0.113635
0.113216
0.112837
0.112504
0.112203
0.111945
0.111722
0.111542
0.111385
0.11127
0.111191
0.11115
0.11115
0.111186
0.111263
0.111377
0.111537
0.111727
0.111947
0.112196
0.112487
0.112819
0.113197
0.113613
0.114077
0.114574
0.115108
0.11567
0.116262
0.116888
0.117539
0.118221
0.125327
0.124495
0.123707
0.122943
0.122201
0.121476
0.120779
0.120115
0.119487
0.1189
0.118342
0.117812
0.117312
0.116864
0.116443
0.116059
0.115723
0.115418
0.115157
0.114931
0.11475
0.114592
0.114475
0.114396
0.114355
0.114355
0.11439
0.114467
0.114584
0.114745
0.114937
0.115159
0.115412
0.115707
0.116042
0.116424
0.116842
0.11731
0.11781
0.118349
0.118915
0.119511
0.120141
0.120797
0.121483
0.12868
0.127846
0.127055
0.126288
0.125544
0.124816
0.124116
0.12345
0.12282
0.12223
0.121666
0.121134
0.120631
0.120178
0.119756
0.119369
0.119029
0.118721
0.118457
0.118228
0.118046
0.117888
0.117771
0.117691
0.117649
0.117649
0.117684
0.117761
0.117881
0.118043
0.118236
0.118461
0.118717
0.119014
0.119352
0.119738
0.120158
0.120628
0.121132
0.121675
0.122242
0.122842
0.123474
0.124134
0.124824
0.132102
0.131267
0.130475
0.129706
0.128962
0.128233
0.127531
0.126864
0.126232
0.12564
0.125073
0.124539
0.124033
0.123578
0.123154
0.122764
0.122422
0.122112
0.121845
0.121614
0.121431
0.121273
0.121155
0.121074
0.121033
0.121032
0.121067
0.121144
0.121267
0.121428
0.121623
0.12185
0.122109
0.122408
0.122748
0.123137
0.123559
0.124031
0.124537
0.125082
0.12565
0.126253
0.126887
0.127548
0.135588
0.134753
0.133962
0.133193
0.13245
0.131722
0.131021
0.130354
0.129722
0.129128
0.128559
0.128025
0.127517
0.127059
0.126636
0.126244
0.125899
0.125588
0.125319
0.125086
0.124902
0.124744
0.124625
0.124544
0.124503
0.124501
0.124537
0.124614
0.124738
0.1249
0.125096
0.125324
0.125586
0.125886
0.126228
0.12662
0.127043
0.127515
0.128024
0.128568
0.129137
0.129741
0.130375
0.131038
0.139133
0.138302
0.137514
0.136746
0.136006
0.135281
0.134581
0.133916
0.133285
0.132691
0.132122
0.131588
0.13108
0.13062
0.130197
0.129804
0.129458
0.129146
0.128876
0.128642
0.128456
0.128299
0.128179
0.128098
0.128057
0.128055
0.128091
0.128168
0.128294
0.128454
0.128653
0.128882
0.129145
0.129446
0.129789
0.130182
0.130606
0.131077
0.131587
0.132129
0.132698
0.133302
0.133935
0.134597
0.142733
0.141906
0.141123
0.140359
0.139624
0.138903
0.138207
0.137545
0.136916
0.136324
0.135757
0.135224
0.134717
0.134256
0.133834
0.133442
0.133094
0.132782
0.132511
0.132278
0.13209
0.131934
0.131814
0.131732
0.131691
0.131689
0.131725
0.131803
0.131929
0.132089
0.132288
0.132519
0.132783
0.133083
0.133428
0.13382
0.134244
0.134714
0.135222
0.135762
0.13633
0.136932
0.137563
0.138222
0.146384
0.145564
0.144786
0.144028
0.143298
0.142584
0.141894
0.141237
0.140611
0.140022
0.139458
0.138927
0.138422
0.137963
0.137543
0.137151
0.136804
0.136493
0.136221
0.135988
0.1358
0.135645
0.135525
0.135443
0.135402
0.1354
0.135436
0.135515
0.13564
0.1358
0.135999
0.13623
0.136494
0.136795
0.137139
0.137529
0.137953
0.138419
0.138925
0.139462
0.140027
0.140625
0.141252
0.141908
0.150094
0.149279
0.148506
0.147752
0.147026
0.146319
0.145637
0.144986
0.144365
0.14378
0.143221
0.142692
0.142192
0.141734
0.141317
0.140928
0.140582
0.140271
0.140001
0.139769
0.139579
0.139427
0.139306
0.139224
0.139183
0.139182
0.139217
0.139298
0.139422
0.13958
0.139779
0.14001
0.140274
0.140574
0.140917
0.141303
0.141726
0.142188
0.14269
0.143222
0.143783
0.144377
0.144999
0.145649
0.153939
0.153113
0.152327
0.151561
0.150822
0.150117
0.149442
0.148796
0.148179
0.147597
0.147042
0.146516
0.146021
0.145566
0.145153
0.144767
0.144422
0.144114
0.143845
0.143614
0.143424
0.143272
0.143153
0.143071
0.14303
0.143029
0.143064
0.143146
0.143269
0.143425
0.143624
0.143854
0.144118
0.144416
0.144758
0.14514
0.145559
0.146016
0.146513
0.147042
0.1476
0.14819
0.148807
0.149452
0.157997
0.157147
0.156335
0.155544
0.154779
0.154061
0.153378
0.152723
0.152097
0.151506
0.150941
0.150408
0.149918
0.149466
0.149055
0.148672
0.148329
0.148022
0.147753
0.147523
0.147333
0.147182
0.147063
0.146982
0.146941
0.14694
0.146976
0.147057
0.147179
0.147334
0.147533
0.147762
0.148026
0.148324
0.148664
0.149043
0.14946
0.149913
0.150405
0.150941
0.151507
0.152106
0.152732
0.153387
0.1622
0.161347
0.16053
0.159734
0.158964
0.158231
0.157527
0.156852
0.156207
0.155596
0.155012
0.154462
0.153967
0.153508
0.15309
0.152702
0.152352
0.15204
0.151767
0.151531
0.151337
0.151183
0.151062
0.15098
0.150938
0.150937
0.150974
0.151058
0.151181
0.151339
0.15154
0.151775
0.152045
0.152349
0.152696
0.15308
0.153504
0.153961
0.154459
0.155011
0.155596
0.156214
0.15686
0.157535
0.166428
0.165598
0.164801
0.164024
0.163271
0.162543
0.161838
0.161161
0.160515
0.159899
0.159312
0.158758
0.158249
0.157775
0.157343
0.156943
0.156581
0.156258
0.155975
0.155731
0.155529
0.155368
0.155244
0.155159
0.155117
0.155116
0.155155
0.155241
0.155368
0.155531
0.155739
0.155983
0.156263
0.156579
0.156938
0.157335
0.157772
0.158243
0.158754
0.15931
0.159898
0.16052
0.161168
0.161846
0.170625
0.169825
0.169057
0.168307
0.167579
0.166873
0.16619
0.165532
0.164903
0.164303
0.16373
0.163188
0.162679
0.162204
0.16177
0.161368
0.161003
0.160678
0.160393
0.160146
0.159942
0.159779
0.159655
0.15957
0.159528
0.159526
0.159567
0.159653
0.159781
0.159945
0.160154
0.1604
0.160684
0.161004
0.161365
0.161763
0.162202
0.162673
0.163184
0.163727
0.164301
0.164907
0.165537
0.166197
0.166881
0.174755
0.173992
0.173258
0.172541
0.171843
0.171167
0.170512
0.16988
0.169276
0.168698
0.168145
0.167622
0.167129
0.166667
0.166245
0.165854
0.165498
0.16518
0.164901
0.16466
0.164459
0.1643
0.164179
0.164097
0.164055
0.164054
0.164094
0.164179
0.164303
0.164463
0.164667
0.164908
0.165187
0.1655
0.165853
0.16624
0.166666
0.167123
0.167618
0.168142
0.168694
0.169278
0.169885
0.170519
0.171175
0.178786
0.178064
0.177369
0.17669
0.176028
0.175387
0.174765
0.174165
0.173589
0.173038
0.172511
0.172011
0.17154
0.171096
0.170691
0.170314
0.16997
0.169664
0.169394
0.16916
0.168965
0.168812
0.168695
0.168616
0.168576
0.168576
0.168615
0.168696
0.168816
0.168971
0.169167
0.169401
0.169671
0.169975
0.170315
0.170687
0.171096
0.171533
0.172006
0.172506
0.173034
0.17359
0.174168
0.174771
0.175395
0.182686
0.18201
0.181358
0.180721
0.1801
0.179498
0.178914
0.17835
0.177807
0.177286
0.176789
0.176317
0.17587
0.175449
0.175063
0.174705
0.174376
0.174083
0.173824
0.1736
0.173413
0.173265
0.173154
0.17308
0.173041
0.173041
0.173079
0.173157
0.173271
0.17342
0.173607
0.173831
0.174091
0.174382
0.174707
0.175061
0.175449
0.175863
0.17631
0.176783
0.177282
0.177806
0.178352
0.178919
0.179507
0.186425
0.185798
0.185193
0.184602
0.184025
0.183466
0.182923
0.182398
0.181892
0.181406
0.180942
0.1805
0.180082
0.179686
0.179322
0.178985
0.178674
0.178397
0.178151
0.177939
0.177761
0.17762
0.177516
0.177445
0.177409
0.17741
0.177446
0.17752
0.177628
0.177768
0.177946
0.178159
0.178405
0.178682
0.178989
0.179323
0.179686
0.180075
0.180492
0.180934
0.181401
0.181891
0.182399
0.182928
0.189977
0.189402
0.188846
0.188304
0.187773
0.18726
0.186761
0.186278
0.185812
0.185362
0.184934
0.184526
0.184138
0.183771
0.183432
0.183117
0.182826
0.182567
0.182336
0.182136
0.181968
0.181836
0.181739
0.181673
0.18164
0.181641
0.181676
0.181745
0.181846
0.181977
0.182143
0.182344
0.182576
0.182836
0.183123
0.183434
0.183771
0.184131
0.184517
0.184925
0.185357
0.185809
0.186278
0.186766
0.193322
0.192798
0.192294
0.191801
0.191318
0.190852
0.190398
0.18996
0.189535
0.189124
0.188733
0.188361
0.188006
0.187668
0.187355
0.187066
0.186796
0.186556
0.186341
0.186155
0.185999
0.185876
0.185786
0.185726
0.185696
0.185697
0.18573
0.185793
0.185887
0.186009
0.186163
0.186349
0.186565
0.186807
0.187073
0.18736
0.187669
0.187998
0.188351
0.188724
0.189118
0.18953
0.189959
0.190403
0.196443
0.195972
0.195518
0.195074
0.19464
0.19422
0.193814
0.193419
0.193036
0.192666
0.192313
0.191977
0.191656
0.191349
0.191064
0.1908
0.190553
0.190332
0.190134
0.189964
0.189819
0.189706
0.189623
0.189569
0.189542
0.189544
0.189574
0.189632
0.189718
0.18983
0.189971
0.190143
0.190342
0.190565
0.190809
0.19107
0.191351
0.191648
0.191966
0.192303
0.192659
0.193031
0.193417
0.193818
0.199333
0.198912
0.198507
0.198112
0.197725
0.197352
0.196991
0.19664
0.196299
0.195968
0.195653
0.195354
0.195066
0.19479
0.194533
0.194295
0.194071
0.19387
0.19369
0.193534
0.193401
0.193298
0.193224
0.193175
0.193151
0.193154
0.193182
0.193235
0.193312
0.193414
0.193542
0.193699
0.193881
0.194085
0.194305
0.194541
0.194793
0.195059
0.195342
0.195642
0.19596
0.196292
0.196637
0.196994
0.20199
0.201617
0.201259
0.200909
0.200568
0.200239
0.199921
0.199612
0.199312
0.199019
0.198742
0.198477
0.198223
0.197977
0.197748
0.197535
0.197333
0.197152
0.196989
0.196849
0.196728
0.196635
0.196568
0.196525
0.196505
0.196507
0.196533
0.196581
0.19665
0.196742
0.196857
0.196999
0.197164
0.197348
0.197546
0.197757
0.19798
0.198215
0.198465
0.19873
0.199012
0.199304
0.199609
0.199925
0.20442
0.204092
0.203777
0.20347
0.203171
0.202883
0.202606
0.202337
0.202074
0.201818
0.201576
0.201344
0.201121
0.200904
0.200701
0.200512
0.200332
0.20017
0.200024
0.199898
0.199789
0.199705
0.199646
0.199608
0.199591
0.199594
0.199618
0.19966
0.199722
0.199804
0.199907
0.200034
0.200183
0.200348
0.200525
0.200711
0.200908
0.201114
0.201331
0.201563
0.20181
0.202066
0.202332
0.202609
0.206635
0.206346
0.206071
0.205803
0.205542
0.205292
0.205053
0.204819
0.204592
0.204369
0.204159
0.203958
0.203764
0.203574
0.203394
0.203229
0.203069
0.202924
0.202794
0.202682
0.202584
0.202509
0.202457
0.202424
0.20241
0.202413
0.202435
0.202472
0.202527
0.202599
0.202691
0.202804
0.202938
0.203086
0.203242
0.203406
0.203578
0.203756
0.203944
0.204146
0.20436
0.204582
0.204814
0.205055
0.20865
0.208397
0.208157
0.207924
0.207697
0.207481
0.207275
0.207074
0.206878
0.206684
0.206503
0.20633
0.206162
0.205997
0.205839
0.205694
0.205553
0.205425
0.205309
0.205209
0.205121
0.205054
0.205009
0.204981
0.204969
0.204972
0.204992
0.205025
0.205073
0.205137
0.205218
0.205319
0.205438
0.205571
0.205709
0.205852
0.206001
0.206155
0.206317
0.20649
0.206675
0.206867
0.207068
0.207277
0.207493
0.210485
0.210264
0.210054
0.209851
0.209655
0.209469
0.209291
0.209119
0.20895
0.208784
0.208628
0.20848
0.208335
0.208191
0.208053
0.207926
0.207802
0.207688
0.207585
0.207496
0.207417
0.207358
0.207318
0.207294
0.207284
0.207288
0.207306
0.207335
0.207377
0.207434
0.207505
0.207595
0.207702
0.207819
0.207941
0.208066
0.208195
0.208328
0.208466
0.208615
0.208774
0.20894
0.209113
0.209294
0.20948
0.212162
0.211969
0.211785
0.211608
0.211438
0.211277
0.211125
0.210977
0.210833
0.210689
0.210556
0.210429
0.210303
0.210179
0.210058
0.209947
0.209837
0.209735
0.209644
0.209564
0.209494
0.209441
0.209406
0.209386
0.209378
0.209382
0.209398
0.209424
0.209461
0.209511
0.209574
0.209654
0.20975
0.209855
0.209962
0.210071
0.210183
0.210297
0.210414
0.210542
0.210679
0.210822
0.210971
0.211128
0.211289
0.213703
0.213533
0.213373
0.213218
0.21307
0.212931
0.212801
0.212674
0.212549
0.212426
0.212311
0.212202
0.212094
0.211985
0.211879
0.211781
0.211684
0.211594
0.211512
0.211441
0.211377
0.21133
0.211299
0.211282
0.211276
0.21128
0.211294
0.211317
0.21135
0.211394
0.211451
0.211522
0.211608
0.211702
0.211797
0.211893
0.21199
0.212087
0.212188
0.212297
0.212415
0.212538
0.212667
0.212803
0.212943
0.21309
0.21513
0.21498
0.214839
0.214703
0.214574
0.214454
0.214342
0.214232
0.214125
0.214018
0.21392
0.213826
0.213732
0.213637
0.213544
0.213457
0.21337
0.21329
0.213216
0.213152
0.213094
0.213052
0.213025
0.21301
0.213005
0.213009
0.213023
0.213043
0.213072
0.213112
0.213162
0.213227
0.213304
0.213389
0.213474
0.213558
0.213642
0.213726
0.213812
0.213906
0.214008
0.214114
0.214226
0.214344
0.214465
0.214594
0.216462
0.21633
0.216205
0.216086
0.215973
0.215868
0.215771
0.215677
0.215585
0.215492
0.215407
0.215326
0.215244
0.215161
0.215078
0.215001
0.214923
0.21485
0.214784
0.214726
0.214673
0.214635
0.214611
0.214598
0.214594
0.214598
0.214611
0.214629
0.214655
0.214691
0.214736
0.214795
0.214865
0.214942
0.215018
0.215092
0.215166
0.215238
0.215311
0.215393
0.215481
0.215573
0.215671
0.215773
0.21588
0.215992
0.216105
0.217718
0.217601
0.21749
0.217385
0.217285
0.217194
0.217111
0.217029
0.216949
0.216869
0.216795
0.216725
0.216654
0.21658
0.216506
0.216437
0.216367
0.216301
0.21624
0.216187
0.216139
0.216104
0.216083
0.216072
0.216069
0.216073
0.216085
0.216102
0.216125
0.216157
0.216198
0.216251
0.216316
0.216386
0.216454
0.21652
0.216585
0.216647
0.21671
0.216781
0.216858
0.216938
0.217023
0.217113
0.217206
0.217304
0.217404
0.218914
0.218809
0.218711
0.218618
0.21853
0.21845
0.218378
0.218308
0.218238
0.218168
0.218105
0.218043
0.217981
0.217916
0.21785
0.217788
0.217724
0.217664
0.217608
0.217559
0.217515
0.217483
0.217464
0.217454
0.217453
0.217457
0.217467
0.217483
0.217504
0.217533
0.21757
0.217619
0.217678
0.217743
0.217805
0.217864
0.217921
0.217975
0.218029
0.21809
0.218157
0.218227
0.218301
0.21838
0.218462
0.218549
0.218636
0.220061
0.219969
0.219881
0.219798
0.219721
0.219652
0.21959
0.219529
0.219469
0.219407
0.219352
0.219299
0.219245
0.219186
0.219127
0.219072
0.219013
0.218958
0.218907
0.218862
0.218821
0.218791
0.218774
0.218766
0.218765
0.218769
0.218779
0.218793
0.218812
0.218838
0.218873
0.218918
0.218973
0.219032
0.219088
0.219141
0.219192
0.219239
0.219285
0.219338
0.219396
0.219457
0.219522
0.219592
0.219663
0.21974
0.219816
0.221171
0.221089
0.221011
0.220938
0.220871
0.22081
0.220757
0.220705
0.220653
0.2206
0.220552
0.220507
0.220459
0.220407
0.220354
0.220304
0.22025
0.220199
0.220152
0.220111
0.220072
0.220045
0.22003
0.220023
0.220022
0.220026
0.220036
0.220049
0.220066
0.22009
0.220122
0.220163
0.220214
0.220269
0.22032
0.220368
0.220412
0.220453
0.220493
0.220538
0.220589
0.220642
0.220698
0.220759
0.220822
0.220889
0.220956
0.22225
0.222179
0.222111
0.222046
0.221987
0.221936
0.22189
0.221846
0.221802
0.221756
0.221716
0.221676
0.221635
0.221589
0.221541
0.221496
0.221447
0.2214
0.221357
0.221318
0.221283
0.221258
0.221244
0.221238
0.221238
0.221242
0.221251
0.221263
0.221278
0.2213
0.221329
0.221368
0.221415
0.221466
0.221513
0.221555
0.221594
0.221629
0.221663
0.221701
0.221745
0.221791
0.22184
0.221892
0.221947
0.222006
0.222064
0.222123
0.223307
0.223245
0.223185
0.223129
0.223078
0.223035
0.222997
0.22296
0.222923
0.222884
0.22285
0.222817
0.222782
0.222741
0.222698
0.222658
0.222613
0.22257
0.22253
0.222494
0.222461
0.222438
0.222426
0.222421
0.222421
0.222425
0.222434
0.222444
0.222459
0.222479
0.222506
0.222541
0.222585
0.222632
0.222674
0.222712
0.222746
0.222775
0.222804
0.222836
0.222873
0.222912
0.222954
0.222999
0.223046
0.223097
0.223147
0.223197
0.224344
0.224291
0.22424
0.224192
0.224149
0.224113
0.224082
0.224053
0.224022
0.22399
0.223962
0.223935
0.223905
0.22387
0.223832
0.223795
0.223755
0.223716
0.223678
0.223645
0.223615
0.223594
0.223583
0.223578
0.223579
0.223583
0.223591
0.223601
0.223614
0.223633
0.223657
0.22369
0.22373
0.223773
0.223812
0.223846
0.223875
0.223899
0.223921
0.223948
0.223979
0.224011
0.224046
0.224084
0.224124
0.224167
0.224209
0.224251
0.225364
0.225321
0.225277
0.225237
0.225202
0.225173
0.22515
0.225127
0.225103
0.225078
0.225056
0.225034
0.225009
0.224979
0.224946
0.224913
0.224877
0.224841
0.224807
0.224777
0.224748
0.224729
0.224719
0.224716
0.224717
0.224721
0.224729
0.224738
0.22475
0.224766
0.224788
0.224819
0.224856
0.224895
0.22493
0.22496
0.224984
0.225003
0.22502
0.225041
0.225066
0.225092
0.225121
0.225152
0.225184
0.22522
0.225255
0.225289
0.226371
0.226336
0.2263
0.226268
0.22624
0.226218
0.226202
0.226186
0.226169
0.226149
0.226133
0.226117
0.226097
0.226072
0.226043
0.226015
0.225982
0.22595
0.225919
0.225891
0.225865
0.225847
0.225839
0.225836
0.225838
0.225842
0.225849
0.225857
0.225868
0.225883
0.225903
0.22593
0.225965
0.226001
0.226032
0.226057
0.226077
0.226091
0.226103
0.226119
0.226138
0.226157
0.226179
0.226204
0.226229
0.226258
0.226285
0.226312
0.227364
0.227338
0.22731
0.227285
0.227264
0.227249
0.22724
0.22723
0.227219
0.227206
0.227196
0.227185
0.22717
0.22715
0.227126
0.227102
0.227073
0.227044
0.227015
0.22699
0.226966
0.22695
0.226943
0.226941
0.226943
0.226948
0.226954
0.226962
0.226971
0.226984
0.227002
0.227027
0.227058
0.227091
0.227118
0.227139
0.227155
0.227164
0.227172
0.227181
0.227195
0.227208
0.227224
0.227242
0.22726
0.227282
0.227302
0.227321
0.228344
0.228327
0.228306
0.228289
0.228275
0.228267
0.228265
0.228262
0.228257
0.228249
0.228245
0.228239
0.22823
0.228214
0.228194
0.228174
0.228149
0.228123
0.228098
0.228075
0.228053
0.228039
0.228033
0.228032
0.228035
0.228039
0.228045
0.228052
0.22806
0.228071
0.228087
0.228109
0.228138
0.228167
0.228191
0.228208
0.228219
0.228224
0.228226
0.228231
0.228238
0.228246
0.228255
0.228267
0.228279
0.228293
0.228306
0.228318
0.229312
0.229303
0.22929
0.22928
0.229274
0.229273
0.229277
0.22928
0.229281
0.22928
0.229281
0.229281
0.229276
0.229265
0.22925
0.229233
0.229212
0.229189
0.229167
0.229147
0.229127
0.229114
0.229109
0.229109
0.229112
0.229116
0.229122
0.229128
0.229135
0.229144
0.229158
0.229178
0.229204
0.22923
0.22925
0.229263
0.22927
0.22927
0.229267
0.229267
0.229269
0.22927
0.229274
0.229279
0.229284
0.229291
0.229297
0.229302
0.101214
0.103955
0.106775
0.109672
0.112648
0.115701
0.118832
0.12204
0.125321
0.128673
0.132094
0.135579
0.139124
0.142724
0.146375
0.150085
0.153931
0.157991
0.162195
0.166425
0.170623
0.174755
0.178787
0.182687
0.186427
0.18998
0.193325
0.196447
0.199338
0.201996
0.204426
0.206641
0.208656
0.210492
0.212169
0.21371
0.215137
0.216469
0.217726
0.218921
0.220068
0.221178
0.222258
0.223314
0.224351
0.225372
0.226378
0.227371
0.228351
0.229319
0.100425
0.103157
0.105967
0.108856
0.111823
0.11487
0.117995
0.121197
0.124475
0.127825
0.131247
0.134734
0.138284
0.14189
0.145549
0.149266
0.153101
0.157137
0.161339
0.165592
0.169822
0.17399
0.178065
0.182013
0.185803
0.189409
0.192808
0.195983
0.198925
0.201632
0.204108
0.206363
0.208415
0.210283
0.211988
0.213553
0.215
0.21635
0.217621
0.21883
0.219989
0.221109
0.2222
0.223265
0.224312
0.225341
0.226356
0.227358
0.228347
0.229324
0.099678
0.102399
0.105199
0.108079
0.111039
0.114079
0.117198
0.120396
0.12367
0.12702
0.130441
0.133931
0.137484
0.141096
0.144762
0.148485
0.152309
0.156321
0.16052
0.164795
0.169054
0.173258
0.177374
0.181367
0.185206
0.188862
0.192313
0.195539
0.198531
0.201285
0.203805
0.206101
0.208188
0.210086
0.211818
0.213406
0.214872
0.216239
0.217524
0.218745
0.219915
0.221045
0.222144
0.223219
0.224273
0.225311
0.226333
0.227343
0.228339
0.229323
0.0989627
0.101672
0.104462
0.107332
0.110283
0.113316
0.11643
0.119623
0.122894
0.126242
0.129664
0.133155
0.136711
0.140328
0.144001
0.147729
0.151542
0.155528
0.159723
0.164017
0.168304
0.172542
0.176695
0.180731
0.184616
0.188322
0.191822
0.195099
0.19814
0.20094
0.203503
0.205838
0.20796
0.209889
0.211647
0.213258
0.214743
0.216126
0.217425
0.218658
0.219839
0.220979
0.222087
0.223169
0.224232
0.225277
0.226307
0.227324
0.228328
0.229319
0.0982802
0.100981
0.103761
0.106622
0.109565
0.11259
0.115696
0.118884
0.122152
0.125496
0.128916
0.132407
0.135966
0.139586
0.143264
0.146995
0.150796
0.154758
0.158949
0.163261
0.167573
0.171842
0.176032
0.180109
0.184038
0.18779
0.191339
0.194664
0.197753
0.200598
0.203204
0.205577
0.207733
0.209692
0.211476
0.213109
0.214613
0.216012
0.217325
0.21857
0.219761
0.22091
0.222026
0.223117
0.224188
0.22524
0.226278
0.227302
0.228313
0.229312
0.0976267
0.100317
0.103089
0.105942
0.108878
0.111897
0.114998
0.118181
0.121445
0.124787
0.128204
0.131694
0.135253
0.138876
0.142557
0.146294
0.150094
0.154041
0.158215
0.16253
0.166865
0.171162
0.175386
0.1795
0.183472
0.187268
0.190863
0.194235
0.197369
0.200259
0.202905
0.205316
0.207506
0.209494
0.211304
0.212958
0.214481
0.215895
0.217222
0.218478
0.219679
0.220838
0.221963
0.223062
0.22414
0.2252
0.226245
0.227276
0.228294
0.229299
0.0970021
0.0996854
0.10245
0.105296
0.108224
0.111236
0.114331
0.117509
0.120767
0.124106
0.127522
0.131011
0.134571
0.138196
0.141881
0.145622
0.149427
0.153363
0.157514
0.161827
0.16618
0.170504
0.174759
0.17891
0.18292
0.186759
0.190398
0.193815
0.196993
0.199924
0.20261
0.205057
0.20728
0.209297
0.211131
0.212807
0.214348
0.215777
0.217117
0.218385
0.219596
0.220763
0.221897
0.223003
0.224088
0.225156
0.226208
0.227246
0.228271
0.229283
0.0964072
0.0990823
0.101839
0.104677
0.107599
0.110604
0.113693
0.116864
0.120118
0.123453
0.126867
0.130355
0.133915
0.137542
0.141232
0.144978
0.148786
0.152712
0.156842
0.161151
0.165521
0.169869
0.174153
0.178337
0.182386
0.186265
0.189946
0.193405
0.196626
0.199598
0.202323
0.204805
0.207059
0.209104
0.210963
0.212659
0.214218
0.215662
0.217014
0.218293
0.219514
0.22069
0.221831
0.222945
0.224038
0.225112
0.226171
0.227215
0.228247
0.229265
0.0958435
0.0985102
0.101258
0.104088
0.107002
0.109999
0.113082
0.116248
0.119498
0.122829
0.126239
0.129727
0.133287
0.136916
0.140609
0.14436
0.148172
0.152088
0.156196
0.160501
0.164887
0.169258
0.17357
0.177786
0.18187
0.185788
0.189509
0.19301
0.196271
0.199283
0.202044
0.20456
0.206845
0.208918
0.2108
0.212516
0.214092
0.215551
0.216915
0.218205
0.219435
0.220619
0.221768
0.222889
0.223989
0.22507
0.226135
0.227186
0.228223
0.229248
0.0953074
0.0979638
0.100702
0.103524
0.106429
0.10942
0.112495
0.115655
0.118899
0.122226
0.125634
0.129121
0.132683
0.136314
0.140011
0.143767
0.147583
0.15149
0.155578
0.15988
0.164282
0.168674
0.173012
0.177259
0.181376
0.185331
0.189091
0.192631
0.195931
0.198981
0.201778
0.204328
0.206642
0.208741
0.210645
0.212381
0.213973
0.215446
0.216822
0.218122
0.219361
0.220553
0.221709
0.222837
0.223943
0.22503
0.226101
0.227158
0.228202
0.229232
0.0948027
0.0974506
0.100181
0.102994
0.105893
0.108876
0.111945
0.115101
0.118341
0.121666
0.125073
0.128558
0.132119
0.135751
0.13945
0.143209
0.147027
0.150925
0.154994
0.159292
0.163707
0.168118
0.17248
0.176755
0.180904
0.184892
0.188688
0.192265
0.195602
0.198688
0.201519
0.2041
0.206442
0.208566
0.210492
0.212246
0.213854
0.215341
0.216728
0.218037
0.219285
0.220485
0.221648
0.222783
0.223895
0.224988
0.226065
0.227128
0.228177
0.229213
0.0943355
0.0969763
0.0996985
0.102504
0.105394
0.108371
0.111434
0.114584
0.11782
0.12114
0.124543
0.128026
0.131587
0.13522
0.138922
0.142685
0.146506
0.150395
0.154447
0.158739
0.163165
0.167595
0.171979
0.176279
0.180457
0.184478
0.188307
0.191918
0.195289
0.198409
0.201272
0.203882
0.206252
0.208399
0.210346
0.212118
0.213741
0.21524
0.216638
0.217957
0.219212
0.220419
0.221589
0.22273
0.223848
0.224947
0.22603
0.227098
0.228153
0.229194
0.0938921
0.0965267
0.0992441
0.102046
0.104932
0.107904
0.110963
0.114108
0.117339
0.120656
0.124056
0.127538
0.131097
0.13473
0.138432
0.142198
0.146022
0.149913
0.153957
0.158234
0.162659
0.167103
0.171506
0.17583
0.180035
0.184084
0.187945
0.191588
0.194992
0.198143
0.201036
0.203674
0.206069
0.208239
0.210205
0.211994
0.213631
0.215142
0.216551
0.217878
0.219142
0.220356
0.221532
0.222679
0.223802
0.224906
0.225995
0.227068
0.228128
0.229174
0.0934895
0.0961168
0.0988262
0.101619
0.104497
0.107462
0.110514
0.113653
0.11688
0.120194
0.123593
0.127074
0.130634
0.134268
0.137973
0.141742
0.145571
0.149466
0.153504
0.157766
0.162189
0.166646
0.171068
0.175413
0.179642
0.183719
0.187608
0.191281
0.194716
0.197896
0.200817
0.203482
0.2059
0.208091
0.210076
0.21188
0.213531
0.215053
0.216471
0.217807
0.219077
0.220298
0.22148
0.222632
0.223761
0.22487
0.225963
0.227041
0.228106
0.229157
0.0931182
0.0957398
0.0984436
0.101231
0.104104
0.107063
0.11011
0.113245
0.116468
0.119777
0.123172
0.12665
0.130208
0.133842
0.137547
0.141318
0.145151
0.14905
0.153082
0.157331
0.161752
0.166221
0.170659
0.175024
0.179276
0.183378
0.187294
0.190995
0.194458
0.197666
0.200614
0.203303
0.205744
0.207954
0.209956
0.211775
0.213438
0.214971
0.216399
0.217742
0.219019
0.220245
0.221433
0.22259
0.223723
0.224837
0.225935
0.227018
0.228086
0.229142
0.0927761
0.0953929
0.0980921
0.100875
0.103744
0.1067
0.109743
0.112874
0.116094
0.1194
0.122793
0.126269
0.129826
0.13346
0.137166
0.140939
0.144773
0.148673
0.152698
0.156934
0.161353
0.165832
0.170285
0.174667
0.17894
0.183064
0.187005
0.190732
0.19422
0.197453
0.200425
0.203136
0.205598
0.207826
0.209844
0.211677
0.213352
0.214895
0.21633
0.217681
0.218964
0.220196
0.221388
0.22255
0.223688
0.224807
0.225908
0.226995
0.228068
0.229127
0.0924656
0.0950759
0.0977685
0.100546
0.103409
0.10636
0.109399
0.112527
0.115743
0.119047
0.122438
0.125914
0.129472
0.133107
0.136815
0.14059
0.144428
0.148331
0.152351
0.156575
0.160993
0.165482
0.169948
0.174347
0.178639
0.182784
0.186747
0.190497
0.194009
0.197266
0.200259
0.202991
0.205472
0.207717
0.209749
0.211594
0.213279
0.214831
0.216274
0.21763
0.218919
0.220156
0.221353
0.222519
0.223661
0.224783
0.225888
0.226979
0.228055
0.229118
0.092189
0.0947942
0.0974824
0.100256
0.103116
0.106065
0.109101
0.112226
0.11544
0.118742
0.12213
0.125604
0.12916
0.132794
0.136502
0.140278
0.144117
0.148021
0.152036
0.156251
0.160667
0.165164
0.169643
0.174056
0.178364
0.182528
0.186511
0.190282
0.193815
0.197093
0.200107
0.202857
0.205355
0.207615
0.20966
0.211517
0.213211
0.214771
0.21622
0.217583
0.218877
0.220118
0.221319
0.222488
0.223634
0.224759
0.225868
0.226962
0.228042
0.229108
0.0919523
0.0945536
0.0972379
0.100007
0.102863
0.105806
0.108838
0.111959
0.11517
0.11847
0.121857
0.12533
0.128885
0.13252
0.136229
0.140007
0.143848
0.147753
0.151763
0.155968
0.160382
0.164886
0.169374
0.1738
0.178122
0.182301
0.186301
0.19009
0.193641
0.196936
0.199967
0.202733
0.205245
0.207518
0.209575
0.211441
0.213144
0.214711
0.216166
0.217534
0.218832
0.220077
0.221282
0.222455
0.223603
0.224732
0.225844
0.226941
0.228023
0.229092
0.0917527
0.094351
0.0970317
0.0997971
0.102649
0.10559
0.108619
0.111737
0.114946
0.118243
0.121629
0.1251
0.128654
0.132287
0.135995
0.139772
0.143614
0.14752
0.151526
0.155722
0.160134
0.164644
0.16914
0.173575
0.177909
0.182102
0.186116
0.189919
0.193485
0.196795
0.199841
0.202621
0.205145
0.207429
0.209496
0.21137
0.213081
0.214653
0.216114
0.217486
0.218788
0.220037
0.221244
0.22242
0.223572
0.224703
0.225817
0.226917
0.228002
0.229073
0.0915883
0.0941823
0.0968594
0.0996217
0.10247
0.105407
0.108433
0.111549
0.114755
0.118051
0.121434
0.124904
0.128457
0.132091
0.1358
0.139578
0.143421
0.147327
0.151329
0.155519
0.159929
0.164442
0.168944
0.173387