/*--------------------------------*- C++ -*----------------------------------*\
  =========                 |
  \\      /  F ield         | OpenFOAM: The Open Source CFD Toolbox
   \\    /   O peration     | Website:  https://openfoam.org
    \\  /    A nd           | Version:  7
     \\/     M anipulation  |
\*---------------------------------------------------------------------------*/
FoamFile
{
    version     2.0;
    format      ascii;
    class       volVectorField;
    location    "64000";
    object      vorticity;
}
// * * * * * * * * * * * * * * * * * * * * * * * * * * * * * * * * * * * * * //

dimensions      [0 0 -1 0 0 0 0];

internalField   nonuniform List<vector> 
4814
(
(-0.0294641 0.0856023 -4.11188e-18)
(-0.0266526 0.0861719 1.63053e-17)
(-0.0238415 0.0866787 7.92664e-18)
(-0.021034 0.0871345 -3.76924e-18)
(-0.0697558 0.0733456 1.27271e-18)
(-0.0676394 0.0742582 -5.14859e-18)
(-0.0648241 0.075773 3.53648e-18)
(-0.0619896 0.0772044 3.22938e-18)
(-0.0591385 0.0785528 1.96694e-17)
(-0.0562757 0.0798208 -2.87821e-18)
(-0.0534025 0.0810075 -2.89508e-18)
(-0.0505239 0.0821211 -5.06188e-18)
(-0.0476402 0.0831611 -1.07821e-17)
(-0.0447543 0.0841353 -1.70644e-17)
(-0.0418626 0.0850442 9.46113e-18)
(-0.0389648 0.0858801 -2.59908e-18)
(-0.0360739 0.0866572 -6.12558e-18)
(-0.0331811 0.0873636 2.79264e-18)
(-0.0302864 0.0880067 9.90736e-20)
(-0.0273969 0.088595 1.92095e-17)
(-0.0245081 0.0891199 1.13895e-17)
(-0.0216224 0.0895915 -2.98363e-19)
(-0.0187375 0.0900019 -6.65112e-18)
(-0.0158539 0.0903489 5.76449e-18)
(-0.0129702 0.0906364 7.50091e-18)
(-0.0100871 0.0908672 1.98888e-18)
(-0.0072059 0.091034 -1.48563e-18)
(-0.00432359 0.091144 5.21222e-18)
(-0.00144224 0.091196 -7.3605e-19)
(0.00143826 0.0911957 9.81287e-18)
(0.00431956 0.0911441 3.50687e-18)
(0.00720191 0.0910325 9.90034e-18)
(0.0100829 0.0908579 1.15903e-19)
(0.0129662 0.0906348 6.68558e-18)
(0.0158534 0.0903455 7.79708e-18)
(0.0187402 0.0899908 -2.46279e-18)
(0.0216247 0.0895741 -1.10967e-17)
(0.0245099 0.0891022 -1.37759e-17)
(-0.0716655 0.0753126 2.6087e-18)
(-0.069477 0.0762787 -3.5968e-18)
(-0.0665909 0.0778431 6.81011e-18)
(-0.0636852 0.0793221 6.01971e-18)
(-0.0607611 0.0807148 2.41451e-17)
(-0.057824 0.0820245 4.72788e-18)
(-0.0548753 0.08325 3.72345e-18)
(-0.0519204 0.0844005 3.05871e-19)
(-0.0489601 0.0854762 -6.03941e-18)
(-0.0459974 0.0864852 -1.23903e-17)
(-0.0430283 0.0874254 1.59964e-17)
(-0.0400517 0.0882892 4.03518e-18)
(-0.0370812 0.0890916 -1.10235e-18)
(-0.0341096 0.0898226 7.39557e-18)
(-0.0311348 0.0904875 1.06542e-18)
(-0.0281647 0.0910948 1.96229e-17)
(-0.0251959 0.0916394 1.17337e-17)
(-0.0222297 0.092127 7.03484e-19)
(-0.0192642 0.0925506 -3.90839e-18)
(-0.0162999 0.0929094 9.00533e-18)
(-0.0133355 0.0932084 1.07079e-17)
(-0.0103713 0.0934452 5.63082e-18)
(-0.0074092 0.0936181 1.05773e-18)
(-0.0044458 0.0937328 7.59773e-18)
(-0.00148307 0.0937856 1.44593e-18)
(0.00147906 0.0937851 1.23874e-17)
(0.00444169 0.093732 6.40021e-18)
(0.00740487 0.0936165 1.22743e-17)
(0.010367 0.0934351 1.23218e-18)
(0.0133317 0.0932058 6.88224e-18)
(0.0162994 0.0929077 8.273e-18)
(0.0192666 0.0925404 -2.31003e-18)
(0.0222317 0.0921097 -1.10005e-17)
(0.0251977 0.0916216 -1.3814e-17)
(0.0281652 0.0910759 3.72165e-18)
(0.0311359 0.0904707 -9.60857e-18)
(0.0341075 0.0898057 -1.5532e-17)
(0.0370799 0.0890841 -1.52459e-17)
(0.0400535 0.0882992 -6.70645e-18)
(0.0430243 0.0874355 7.83685e-18)
(0.0459948 0.0865013 -1.28377e-17)
(-0.0736297 0.0773352 1.96554e-18)
(-0.0713671 0.0783571 -3.8918e-18)
(-0.0684086 0.0799729 7.61316e-18)
(-0.0654302 0.0815014 5.5875e-18)
(-0.0624315 0.0829405 2.4608e-17)
(-0.0594182 0.0842933 6.60018e-18)
(-0.056392 0.0855594 4.73027e-18)
(-0.0533589 0.0867487 2.10939e-18)
(-0.0503201 0.0878619 -5.28956e-18)
(-0.0472785 0.0889068 -1.31545e-17)
(-0.0442299 0.0898797 1.74702e-17)
(-0.0411726 0.0907735 5.8352e-18)
(-0.0381198 0.0916014 1.12001e-19)
(-0.0350671 0.0923588 7.35287e-18)
(-0.03201 0.0930469 8.75279e-20)
(-0.0289569 0.0936739 1.8515e-17)
(-0.0259056 0.094239 1.06987e-17)
(-0.0228562 0.0947428 4.58324e-20)
(-0.0198076 0.0951801 -3.49092e-18)
(-0.0167601 0.0955517 9.12352e-18)
(-0.0137125 0.0958625 1.07084e-17)
(-0.0106647 0.0961058 6.58901e-18)
(-0.00761898 0.096285 1.73574e-18)
(-0.00457191 0.0964044 8.22234e-18)
(-0.00152525 0.0964588 1.97642e-18)
(0.00152116 0.0964577 1.31185e-17)
(0.00456773 0.0964029 7.06224e-18)
(0.00761428 0.096283 1.24177e-17)
(0.0106603 0.096095 6.2161e-19)
(0.0137089 0.0958589 6.20189e-18)
(0.0167597 0.0955517 7.76868e-18)
(0.0198098 0.0951716 -2.53309e-18)
(0.022858 0.094726 -1.00839e-17)
(0.0259072 0.0942208 -1.35948e-17)
(0.0289578 0.0936561 3.76542e-18)
(0.0320111 0.0930299 -8.47639e-18)
(0.0350651 0.0923412 -1.45447e-17)
(0.0381195 0.0915941 -1.36469e-17)
(0.0411742 0.0907819 -5.37838e-18)
(0.0442258 0.0898894 8.7793e-18)
(0.0472766 0.0889234 -1.2564e-17)
(0.0503227 0.0878847 -3.89042e-17)
(0.0533661 0.0867722 -6.17411e-18)
(0.0563984 0.0855732 -7.28357e-18)
(-0.0756486 0.0794138 8.83139e-20)
(-0.0733105 0.080494 -5.73668e-18)
(-0.0702776 0.0821629 6.11342e-18)
(-0.0672248 0.083743 3.64186e-18)
(-0.06415 0.0852304 2.3042e-17)
(-0.0610587 0.0866282 4.36615e-18)
(-0.0579535 0.0879371 2.49977e-18)
(-0.0548403 0.089167 1.57016e-18)
(-0.0517208 0.0903195 -7.572e-18)
(-0.048598 0.0914014 -1.6144e-17)
(-0.0454678 0.0924086 1.57588e-17)
(-0.042328 0.0933344 5.12768e-18)
(-0.0391904 0.0941884 -9.54646e-19)
(-0.0360544 0.0949743 4.43008e-18)
(-0.0329128 0.0956865 -6.50444e-19)
(-0.029774 0.0963342 1.75647e-17)
(-0.0266376 0.0969201 1.00251e-17)
(-0.0235025 0.0974405 -2.29389e-19)
(-0.0203681 0.0978924 -4.68926e-18)
(-0.0172348 0.0982777 7.37716e-18)
(-0.0141015 0.0986005 8.86205e-18)
(-0.0109675 0.0988509 6.01122e-18)
(-0.00783537 0.0990365 1.00571e-18)
(-0.00470198 0.0991607 7.6725e-18)
(-0.0015688 0.0992177 1.2753e-18)
(0.00156458 0.0992159 1.24845e-17)
(0.00469773 0.0991584 6.27507e-18)
(0.00783033 0.0990342 1.11319e-17)
(0.010963 0.09884 -9.9423e-19)
(0.0140982 0.0985964 5.15941e-18)
(0.0172346 0.098279 6.64766e-18)
(0.0203702 0.0978865 -2.99196e-18)
(0.0235041 0.0974248 -8.90067e-18)
(0.0266391 0.0969019 -1.30646e-17)
(0.0297751 0.0963171 4.6606e-18)
(0.0329135 0.0956686 -6.92324e-18)
(0.0360524 0.0949557 -1.43861e-17)
(0.0391913 0.094182 -1.3568e-17)
(0.0423292 0.0933405 -4.32806e-18)
(0.0454641 0.0924183 9.51272e-18)
(0.0485973 0.0914191 -1.21934e-17)
(0.0517243 0.0903431 -3.91651e-17)
(0.0548483 0.0891921 -6.28559e-18)
(0.0579599 0.0879524 -8.46355e-18)
(-0.0777225 0.0815487 -1.32072e-18)
(-0.0753072 0.0826895 -7.33489e-18)
(-0.0721986 0.0844137 5.20149e-18)
(-0.0690695 0.0860471 2.25837e-18)
(-0.0659171 0.0875851 2.23183e-17)
(-0.0627461 0.0890296 2.98975e-18)
(-0.0595602 0.0903836 1.12212e-18)
(-0.056365 0.0916562 6.76308e-19)
(-0.0531631 0.09285 -9.6635e-18)
(-0.0499567 0.0939703 -1.79122e-17)
(-0.0467425 0.0950131 1.40736e-17)
(-0.0435182 0.0959723 4.82893e-18)
(-0.0402935 0.0968543 -1.83205e-18)
(-0.037072 0.0976702 2.18885e-18)
(-0.0338435 0.0984077 -8.49129e-19)
(-0.0306165 0.0990773 1.70239e-17)
(-0.0273922 0.0996843 8.85801e-18)
(-0.0241688 0.100222 -2.83786e-19)
(-0.0209462 0.100689 -5.42155e-18)
(-0.0177243 0.101089 6.22634e-18)
(-0.0145026 0.101424 7.1809e-18)
(-0.0112798 0.101682 5.36486e-18)
(-0.00805858 0.101875 1.91072e-19)
(-0.00483608 0.102004 7.02451e-18)
(-0.0016137 0.102064 1.95713e-19)
(0.00160931 0.102062 1.17188e-17)
(0.00483179 0.102001 5.65704e-18)
(0.00805323 0.101872 9.83774e-18)
(0.0112753 0.101672 -2.5448e-18)
(0.0144998 0.10142 4.14567e-18)
(0.0177243 0.101091 5.50857e-18)
(0.0209482 0.100686 -3.60514e-18)
(0.0241704 0.100208 -8.37353e-18)
(0.0273937 0.0996663 -1.25743e-17)
(0.0306176 0.0990603 5.39382e-18)
(0.0338437 0.0983887 -5.72015e-18)
(0.03707 0.0976504 -1.42333e-17)
(0.0402957 0.0968487 -1.44648e-17)
(0.0435189 0.0959761 -3.56419e-18)
(0.0467395 0.0950232 9.43734e-18)
(0.0499571 0.093989 -1.20472e-17)
(0.0531673 0.0928742 -3.92668e-17)
(0.0563735 0.0916826 -6.05024e-18)
(0.0595665 0.0904002 -9.28215e-18)
(-0.0798509 0.0837392 -2.45579e-18)
(-0.077357 0.0849434 -9.11758e-18)
(-0.0741715 0.0867254 4.58259e-18)
(-0.0709643 0.0884139 9.53177e-19)
(-0.0677329 0.0900046 2.1977e-17)
(-0.0644805 0.0914981 2.06586e-18)
(-0.0612124 0.0928996 4.96144e-19)
(-0.0579334 0.094217 -2.33913e-19)
(-0.0546471 0.095454 -1.04278e-17)
(-0.0513551 0.0966143 -1.87802e-17)
(-0.0480547 0.0976941 1.27933e-17)
(-0.0447436 0.0986881 4.66883e-18)
(-0.0414298 0.0996003 -2.47302e-18)
(-0.0381201 0.100447 7.39475e-19)
(-0.0348023 0.101211 -9.34195e-19)
(-0.0314848 0.101904 1.6687e-17)
(-0.0281699 0.102533 8.01767e-18)
(-0.0248555 0.103088 -4.81128e-19)
(-0.021542 0.103573 -5.95171e-18)
(-0.0182288 0.103986 5.37334e-18)
(-0.014916 0.104335 5.92045e-18)
(-0.0116019 0.104601 4.71834e-18)
(-0.00828872 0.104802 -7.00522e-19)
(-0.00497432 0.104935 6.51401e-18)
(-0.00165995 0.104998 -1.04285e-18)
(0.00165539 0.104996 1.08424e-17)
(0.00496995 0.104931 5.19711e-18)
(0.00828307 0.104798 8.66024e-18)
(0.0115974 0.104592 -4.14844e-18)
(0.0149137 0.10433 2.92993e-18)
(0.0182291 0.10399 4.46889e-18)
(0.0215439 0.103571 -4.31295e-18)
(0.0248572 0.103077 -7.94321e-18)
(0.0281714 0.102515 -1.23751e-17)
(0.0314858 0.101887 5.28174e-18)
(0.0348021 0.101191 -4.6723e-18)
(0.0381182 0.100426 -1.38885e-17)
(0.0414331 0.0995955 -1.51179e-17)
(0.0447438 0.0986899 -2.96966e-18)
(0.0480523 0.0977045 9.14024e-18)
(0.0513563 0.0966335 -1.1863e-17)
(0.0546518 0.0954785 -3.93682e-17)
(0.0579422 0.0942441 -5.73245e-18)
(0.0612183 0.0929171 -9.12302e-18)
(-0.0820332 0.0859847 -3.38656e-18)
(-0.0794598 0.0872555 -1.07596e-17)
(-0.076196 0.0890976 4.26145e-18)
(-0.0729091 0.0908431 2.63938e-19)
(-0.0695972 0.0924889 2.16107e-17)
(-0.066262 0.0940337 1.77705e-18)
(-0.0629101 0.095485 4.73758e-20)
(-0.0595458 0.0968497 -4.46687e-19)
(-0.0561728 0.0981314 -1.04221e-17)
(-0.0527933 0.0993338 -1.97044e-17)
(-0.0494046 0.100452 1.20897e-17)
(-0.0460042 0.101482 4.51858e-18)
(-0.0425994 0.102427 -2.60624e-18)
(-0.0391988 0.103305 -2.89262e-19)
(-0.0357895 0.104097 -1.38272e-18)
(-0.0323791 0.104815 1.62523e-17)
(-0.0289711 0.105467 7.80024e-18)
(-0.0255629 0.10604 -5.44606e-19)
(-0.0221559 0.106543 -6.28072e-18)
(-0.0187485 0.106971 4.63052e-18)
(-0.015342 0.107333 4.91172e-18)
(-0.0119337 0.107609 4.37554e-18)
(-0.00852587 0.107818 -1.51867e-18)
(-0.00511676 0.107955 6.02911e-18)
(-0.00170755 0.108022 -2.21895e-18)
(0.00170282 0.108021 9.93568e-18)
(0.00511224 0.107951 4.84997e-18)
(0.00851996 0.107813 7.68118e-18)
(0.0119293 0.107601 -5.458e-18)
(0.01534 0.107328 1.52778e-18)
(0.0187491 0.106976 3.33649e-18)
(0.0221576 0.106543 -4.80415e-18)
(0.0255645 0.106031 -7.76606e-18)
(0.0289723 0.105449 -1.20636e-17)
(0.0323798 0.104798 5.47396e-18)
(0.035789 0.104077 -4.04583e-18)
(0.039197 0.103283 -1.37462e-17)
(0.0426036 0.102423 -1.5501e-17)
(0.0460042 0.101483 -2.56789e-18)
(0.0494027 0.100462 9.30541e-18)
(0.052795 0.0993528 -1.1998e-17)
(0.0561781 0.0981562 -3.98702e-17)
(0.0595544 0.0968768 -5.19409e-18)
(0.0629153 0.095503 -9.53813e-18)
(0.0662622 0.0940382 6.54241e-18)
(-0.0842687 0.0882842 -4.00482e-18)
(-0.0816147 0.0896249 -1.16431e-17)
(-0.0782714 0.0915294 4.36599e-18)
(-0.0749034 0.0933343 -4.5748e-19)
(-0.0715097 0.0950374 2.15848e-17)
(-0.0680903 0.096636 1.7504e-18)
(-0.064653 0.0981396 -8.76919e-20)
(-0.0612018 0.0995539 -8.16469e-21)
(-0.0577403 0.100882 -1.03787e-17)
(-0.0542715 0.102129 -1.95743e-17)
(-0.050792 0.103287 1.22967e-17)
(-0.0473003 0.104355 4.99141e-18)
(-0.0438023 0.105334 -2.64936e-18)
(-0.0403083 0.106245 -1.48536e-18)
(-0.0368051 0.107067 -1.63265e-18)
(-0.0332992 0.107811 1.54841e-17)
(-0.0297956 0.108487 7.52146e-18)
(-0.0262912 0.10908 8.4691e-23)
(-0.0227878 0.109601 -6.18003e-18)
(-0.0192836 0.110045 4.3715e-18)
(-0.0157805 0.11042 4.13653e-18)
(-0.0122753 0.110707 4.24838e-18)
(-0.00877005 0.110924 -2.26352e-18)
(-0.00526343 0.111066 5.58394e-18)
(-0.00175651 0.111136 -3.2906e-18)
(0.00175161 0.111136 9.12683e-18)
(0.00525869 0.111061 4.43766e-18)
(0.00876395 0.110917 6.83386e-18)
(0.0122711 0.110699 -6.39168e-18)
(0.015779 0.110416 9.36066e-20)
(0.0192845 0.11005 2.35688e-18)
(0.0227894 0.109602 -5.39604e-18)
(0.0262926 0.109072 -7.55192e-18)
(0.0297966 0.108469 -1.17551e-17)
(0.0332997 0.107793 5.5492e-18)
(0.0368044 0.107047 -3.73857e-18)
(0.0403068 0.106222 -1.39408e-17)
(0.0438074 0.10533 -1.57167e-17)
(0.0473003 0.104354 -2.81749e-18)
(0.0507906 0.103297 9.36586e-18)
(0.0542731 0.102147 -1.2278e-17)
(0.0577459 0.100907 -3.95466e-17)
(0.0612098 0.0995804 -4.67718e-18)
(0.0646576 0.0981577 -1.06427e-17)
(0.0680909 0.0966425 6.25732e-18)
(-0.0865561 0.0906367 -4.80496e-18)
(-0.0838202 0.09205 -1.16761e-17)
(-0.0803968 0.0940197 4.5555e-18)
(-0.0769465 0.0958864 -1.03935e-18)
(-0.0734696 0.0976492 2.23234e-17)
(-0.0699648 0.0993043 2.20322e-18)
(-0.0664408 0.100863 -2.69204e-19)
(-0.0629009 0.102329 3.21409e-19)
(-0.0593492 0.103706 -1.07023e-17)
(-0.0557892 0.104999 -1.88827e-17)
(-0.0522167 0.106199 1.2952e-17)
(-0.0486317 0.107306 5.39125e-18)
(-0.0450384 0.108322 -2.41613e-18)
(-0.0414483 0.109266 -2.03979e-18)
(-0.037849 0.11012 -1.61534e-18)
(-0.0342454 0.110891 1.46432e-17)
(-0.0306436 0.111592 7.35892e-18)
(-0.0270404 0.112206 4.61366e-19)
(-0.0234379 0.112746 -5.68603e-18)
(-0.019834 0.113206 4.47456e-18)
(-0.0162315 0.113596 3.42366e-18)
(-0.0126268 0.113894 4.20727e-18)
(-0.00902129 0.114119 -2.61519e-18)
(-0.00541435 0.114268 5.12419e-18)
(-0.00180687 0.11434 -4.15947e-18)
(0.00180179 0.11434 8.31768e-18)
(0.00540934 0.114262 3.87809e-18)
(0.00901502 0.114112 6.22113e-18)
(0.0126228 0.113887 -7.04795e-18)
(0.0162306 0.113592 -1.45626e-18)
(0.0198353 0.113212 1.52322e-18)
(0.0234392 0.112749 -5.88589e-18)
(0.0270415 0.1122 -7.26268e-18)
(0.0306443 0.111575 -1.14142e-17)
(0.0342458 0.110873 5.39751e-18)
(0.0378483 0.1101 -3.57353e-18)
(0.0414474 0.109244 -1.38608e-17)
(0.045044 0.108317 -1.57874e-17)
(0.0486316 0.107304 -3.60583e-18)
(0.0522157 0.106208 9.09714e-18)
(0.0557904 0.105015 -1.2212e-17)
(0.0593547 0.10373 -3.86238e-17)
(0.0629081 0.102354 -5.13901e-18)
(0.0664446 0.100881 -1.17899e-17)
(0.0699657 0.0993125 5.73736e-18)
(-0.0888938 0.0930402 -5.7926e-18)
(-0.0860747 0.094529 -1.08751e-17)
(-0.0825706 0.0965666 4.45539e-18)
(-0.0790369 0.0984977 -1.46084e-18)
(-0.075476 0.100323 2.23843e-17)
(-0.0718847 0.102037 3.03134e-18)
(-0.0682722 0.103652 -4.19593e-19)
(-0.0646422 0.105173 7.42012e-19)
(-0.0609987 0.106601 -1.03159e-17)
(-0.0573456 0.107942 -1.79932e-17)
(-0.0536781 0.109185 1.37205e-17)
(-0.0499979 0.110334 5.91332e-18)
(-0.0463071 0.111388 -2.29851e-18)
(-0.0426186 0.112368 -1.95705e-18)
(-0.0389211 0.113255 -1.73069e-18)
(-0.0352172 0.114055 1.40245e-17)
(-0.0315147 0.114781 7.41446e-18)
(-0.0278102 0.115418 9.69927e-19)
(-0.0241059 0.115979 -5.01629e-18)
(-0.0203997 0.116455 4.66214e-18)
(-0.0166951 0.11686 2.78224e-18)
(-0.0129881 0.117171 4.03822e-18)
(-0.00927953 0.117405 -2.67519e-18)
(-0.00556947 0.117559 4.744e-18)
(-0.00185863 0.117635 -4.89063e-18)
(0.00185334 0.117634 7.5946e-18)
(0.00556416 0.117553 3.3599e-18)
(0.00927313 0.117395 5.82873e-18)
(0.0129843 0.117164 -7.77985e-18)
(0.0166947 0.116856 -3.05336e-18)
(0.0204015 0.116463 5.8343e-19)
(0.024107 0.115982 -6.35688e-18)
(0.027811 0.115413 -7.23798e-18)
(0.0315152 0.114766 -1.11993e-17)
(0.0352176 0.114037 5.35621e-18)
(0.0389205 0.113236 -3.10579e-18)
(0.0426186 0.112346 -1.34942e-17)
(0.0463131 0.111383 -1.60264e-17)
(0.0499979 0.110332 -3.76789e-18)
(0.0536777 0.109194 8.85454e-18)
(0.0573463 0.107956 -1.14611e-17)
(0.061004 0.106624 -3.776e-17)
(0.0646487 0.105197 -5.42595e-18)
(0.0682756 0.103671 -1.34629e-17)
(0.0718854 0.102047 5.58336e-18)
(-0.0912797 0.0954927 -6.28858e-18)
(-0.0883762 0.0970596 -1.0181e-17)
(-0.0847906 0.0991678 4.58375e-18)
(-0.081173 0.101166 -2.26483e-18)
(-0.077527 0.103057 2.22636e-17)
(-0.0738486 0.104833 3.41123e-18)
(-0.0701462 0.106507 -3.63494e-19)
(-0.0664248 0.108084 1.87163e-18)
(-0.0626879 0.109566 -9.26203e-18)
(-0.0589399 0.110957 -1.6234e-17)
(-0.0551755 0.112245 1.44182e-17)
(-0.0513982 0.113439 6.62107e-18)
(-0.0476079 0.114532 -1.89191e-18)
(-0.0438185 0.115548 -1.66054e-18)
(-0.0400207 0.11647 -1.94999e-18)
(-0.0362143 0.117301 1.37871e-17)
(-0.0324085 0.118054 7.40754e-18)
(-0.0286004 0.118715 1.08575e-18)
(-0.0247917 0.119297 -4.13053e-18)
(-0.0209805 0.119791 5.07006e-18)
(-0.017171 0.120211 2.44878e-18)
(-0.0133591 0.120535 4.2258e-18)
(-0.0095447 0.120778 -2.61075e-18)
(-0.00572873 0.120939 4.39045e-18)
(-0.00191179 0.121018 -5.55125e-18)
(0.00190625 0.121017 6.91103e-18)
(0.0057231 0.120932 2.97634e-18)
(0.00953821 0.120768 5.34776e-18)
(0.0133555 0.120529 -8.54315e-18)
(0.0171711 0.120208 -4.23968e-18)
(0.0209827 0.119799 -2.52901e-19)
(0.0247926 0.119301 -6.70574e-18)
(0.0286009 0.118712 -7.42742e-18)
(0.032409 0.11804 -1.11122e-17)
(0.0362147 0.117284 4.87456e-18)
(0.0400203 0.116452 -2.77459e-18)
(0.0438197 0.115528 -1.26295e-17)
(0.0476144 0.114527 -1.57557e-17)
(0.0513984 0.113436 -3.63251e-18)
(0.0551756 0.112254 8.85275e-18)
(0.0589399 0.110969 -1.05873e-17)
(0.0626927 0.109587 -3.65801e-17)
(0.0664304 0.108107 -5.73211e-18)
(0.0701491 0.106526 -1.55566e-17)
(-0.0937111 0.097991 -6.61839e-18)
(-0.0907222 0.0996391 -9.23472e-18)
(-0.0870547 0.101821 5.14581e-18)
(-0.0833525 0.103889 -2.61864e-18)
(-0.0796207 0.105847 2.27614e-17)
(-0.0758544 0.107689 3.79189e-18)
(-0.072061 0.109424 1.04852e-20)
(-0.068247 0.111061 2.74434e-18)
(-0.0644152 0.112599 -8.51722e-18)
(-0.0605705 0.114041 -1.46629e-17)
(-0.0567078 0.115376 1.52389e-17)
(-0.0528315 0.116616 6.86224e-18)
(-0.0489399 0.117752 -1.17744e-18)
(-0.0450475 0.118805 -1.22101e-18)
(-0.0411471 0.119765 -1.73403e-18)
(-0.037236 0.120628 1.4271e-17)
(-0.0333245 0.121409 7.63985e-18)
(-0.0294104 0.122095 1.12286e-18)
(-0.0254948 0.122698 -3.37494e-18)
(-0.0215761 0.123211 5.49704e-18)
(-0.0176589 0.123647 2.43542e-18)
(-0.0137394 0.123985 4.68074e-18)
(-0.00981663 0.124238 -2.60367e-18)
(-0.00589204 0.124405 4.13494e-18)
(-0.00196631 0.124487 -5.97624e-18)
(0.00196051 0.124486 6.30845e-18)
(0.0058861 0.124398 2.59296e-18)
(0.00981015 0.124227 4.5944e-18)
(0.0137362 0.12398 -9.06765e-18)
(0.0176596 0.123645 -5.14463e-18)
(0.0215787 0.123221 -1.18203e-18)
(0.0254956 0.122704 -6.99849e-18)
(0.0294107 0.122093 -7.04041e-18)
(0.0333248 0.121395 -1.06929e-17)
(0.0372365 0.120611 3.82821e-18)
(0.0411469 0.119747 -2.76848e-18)
(0.0450498 0.118787 -1.16155e-17)
(0.0489467 0.117746 -1.52485e-17)
(0.0528321 0.116614 -3.54852e-18)
(0.0567081 0.115385 9.03228e-18)
(0.06057 0.114051 -1.0391e-17)
(0.0644197 0.112618 -3.53252e-17)
(0.0682517 0.111082 -6.44033e-18)
(0.0720634 0.109443 -1.75461e-17)
(-0.0961845 0.100532 -6.91895e-18)
(-0.0931096 0.102264 -8.23698e-18)
(-0.08936 0.104522 5.29538e-18)
(-0.0855727 0.106662 -2.87098e-18)
(-0.0817545 0.108691 2.23623e-17)
(-0.0778996 0.110601 4.68546e-18)
(-0.0740146 0.112401 9.88354e-19)
(-0.0701068 0.114099 2.82697e-18)
(-0.0661788 0.115694 -7.02891e-18)
(-0.0622359 0.117191 -1.28579e-17)
(-0.0582736 0.118577 1.61364e-17)
(-0.0542963 0.119864 7.02729e-18)
(-0.0503018 0.121044 -3.12139e-19)
(-0.0463044 0.122137 -6.64568e-19)
(-0.0422991 0.123134 -1.15158e-18)
(-0.0382814 0.124031 1.49963e-17)
(-0.034262 0.124841 7.64928e-18)
(-0.0302396 0.125555 1.57785e-18)
(-0.0262147 0.126181 -2.51739e-18)
(-0.0221861 0.126715 5.90962e-18)
(-0.0181585 0.127166 2.35828e-18)
(-0.0141289 0.127519 4.95598e-18)
(-0.0100951 0.127781 -2.46479e-18)
(-0.00605928 0.127954 4.03139e-18)
(-0.00202214 0.128041 -6.23709e-18)
(0.00201608 0.128039 5.67104e-18)
(0.00605306 0.127948 2.17147e-18)
(0.0100887 0.127771 3.76384e-18)
(0.014126 0.127514 -9.21743e-18)
(0.0181598 0.127164 -6.04981e-18)
(0.022189 0.126725 -2.37259e-18)
(0.0262154 0.126188 -7.32802e-18)
(0.0302397 0.125555 -6.46888e-18)
(0.0342622 0.124829 -1.05209e-17)
(0.0382821 0.124015 3.31407e-18)
(0.0422993 0.123118 -2.51131e-18)
(0.0463078 0.122121 -1.05625e-17)
(0.0503089 0.121038 -1.45539e-17)
(0.0542972 0.119862 -3.52744e-18)
(0.0582737 0.118585 8.64364e-18)
(0.062235 0.117199 -9.86267e-18)
(0.0661828 0.115712 -3.4256e-17)
(0.0701105 0.114119 -6.68563e-18)
(0.0740163 0.112419 -1.89533e-17)
(-0.0986963 0.103111 -6.31272e-18)
(-0.095535 0.104931 -7.14553e-18)
(-0.0917032 0.107267 4.45567e-18)
(-0.0878306 0.109483 -3.38579e-18)
(-0.0839254 0.111585 2.15342e-17)
(-0.0799814 0.113565 5.51942e-18)
(-0.0760042 0.115432 2.03561e-18)
(-0.0720017 0.117194 3.32255e-18)
(-0.0679762 0.11885 -4.91657e-18)
(-0.063934 0.120402 -1.06322e-17)
(-0.059871 0.121842 1.72177e-17)
(-0.0557909 0.123178 7.54217e-18)
(-0.0516921 0.124405 1.07293e-18)
(-0.0475879 0.125539 -7.58208e-19)
(-0.0434757 0.126576 -1.27188e-18)
(-0.0393494 0.127508 1.57417e-17)
(-0.0352201 0.12835 7.53573e-18)
(-0.0310871 0.129092 2.16368e-18)
(-0.0269506 0.129742 -1.44263e-18)
(-0.0228097 0.130296 6.19956e-18)
(-0.0186694 0.130764 2.54186e-18)
(-0.0145271 0.131132 5.03471e-18)
(-0.0103799 0.131405 -2.15716e-18)
(-0.0062303 0.131585 4.09771e-18)
(-0.00207921 0.131675 -6.3675e-18)
(0.00207291 0.131673 5.09416e-18)
(0.0062238 0.131578 1.57632e-18)
(0.0103736 0.131395 2.89731e-18)
(0.0145246 0.131127 -9.32027e-18)
(0.0186712 0.130763 -6.81986e-18)
(0.0228129 0.130307 -3.54854e-18)
(0.0269512 0.129749 -7.56391e-18)
(0.0310869 0.129093 -6.01392e-18)
(0.0352201 0.128338 -1.01415e-17)
(0.0393503 0.127493 3.47432e-18)
(0.0434761 0.12656 -2.08705e-18)
(0.0475923 0.125525 -9.97052e-18)
(0.0516994 0.124398 -1.35887e-17)
(0.0557921 0.123176 -3.34425e-18)
(0.0598706 0.121848 7.96764e-18)
(0.0639328 0.120409 -9.02726e-18)
(0.0679797 0.118866 -3.25506e-17)
(0.0720043 0.117213 -7.08808e-18)
(0.0760052 0.11545 -2.01762e-17)
(-0.101244 0.105726 -5.52951e-18)
(-0.0979958 0.107637 -6.77038e-18)
(-0.0940813 0.110053 3.9996e-18)
(-0.0901231 0.112347 -3.50516e-18)
(-0.0861302 0.114524 2.12495e-17)
(-0.0820967 0.116578 6.13794e-18)
(-0.0780269 0.118515 2.64256e-18)
(-0.0739288 0.120343 4.3188e-18)
(-0.0698049 0.12206 -2.33005e-18)
(-0.0656623 0.123671 -8.44916e-18)
(-0.0614977 0.125167 1.75984e-17)
(-0.0573132 0.126554 8.57377e-18)
(-0.0531086 0.127829 2.39812e-18)
(-0.0488961 0.129007 -7.41491e-19)
(-0.0446753 0.130085 -1.31288e-18)
(-0.0404386 0.131054 1.61747e-17)
(-0.0361975 0.131929 7.4749e-18)
(-0.0319518 0.1327 2.70553e-18)
(-0.0277016 0.133375 -2.70861e-19)
(-0.0234463 0.133952 6.50753e-18)
(-0.0191908 0.134437 2.93784e-18)
(-0.0149336 0.134821 5.20963e-18)
(-0.0106707 0.135104 -1.88064e-18)
(-0.0064049 0.135291 4.29241e-18)
(-0.00213747 0.135385 -6.17462e-18)
(0.00213093 0.135383 4.55279e-18)
(0.00639815 0.135284 7.03354e-19)
(0.0106645 0.135095 2.07986e-18)
(0.0149314 0.134816 -9.60892e-18)
(0.0191932 0.134436 -7.48611e-18)
(0.0234498 0.133962 -4.54345e-18)
(0.0277021 0.133384 -7.99084e-18)
(0.0319513 0.132702 -5.77023e-18)
(0.0361973 0.131919 -9.71434e-18)
(0.0404397 0.131041 3.66975e-18)
(0.0446759 0.13007 -1.84102e-18)
(0.0489016 0.128995 -9.88452e-18)
(0.053116 0.127822 -1.25124e-17)
(0.0573145 0.126551 -3.05869e-18)
(0.0614965 0.125171 7.37919e-18)
(0.065661 0.123677 -7.95604e-18)
(0.0698078 0.122075 -3.0264e-17)
(0.0739303 0.12036 -7.65835e-18)
(0.0780268 0.118531 -2.13755e-17)
(-0.103833 0.108383 -5.00505e-18)
(-0.100495 0.110385 -6.375e-18)
(-0.0964959 0.112883 3.5715e-18)
(-0.0924501 0.115254 -2.9389e-18)
(-0.088367 0.117507 2.1502e-17)
(-0.084243 0.119634 6.60064e-18)
(-0.0800802 0.121644 3.59873e-18)
(-0.0758857 0.12354 5.49894e-18)
(-0.0716626 0.125322 2.61792e-19)
(-0.0674186 0.126993 -5.72219e-18)
(-0.063151 0.128546 1.82979e-17)
(-0.058861 0.129986 9.32176e-18)
(-0.0545494 0.131312 3.59019e-18)
(-0.0502272 0.132536 -4.3327e-19)
(-0.045896 0.133657 -1.3032e-18)
(-0.0415473 0.134664 1.64416e-17)
(-0.0371926 0.135573 8.03627e-18)
(-0.0328324 0.136375 3.97557e-18)
(-0.0284666 0.137076 6.10338e-19)
(-0.0240949 0.137676 6.78866e-18)
(-0.0197221 0.138179 3.5379e-18)
(-0.0153477 0.138579 5.42919e-18)
(-0.010967 0.138874 -1.5647e-18)
(-0.00658285 0.139069 4.33982e-18)
(-0.00219684 0.139166 -5.83964e-18)
(0.00219006 0.139165 4.10569e-18)
(0.00657588 0.139062 -3.31453e-19)
(0.010961 0.138866 1.04222e-18)
(0.0153458 0.138575 -9.87004e-18)
(0.0197251 0.138179 -8.19094e-18)
(0.0240986 0.137686 -5.45463e-18)
(0.028467 0.137086 -8.62796e-18)
(0.0328316 0.136378 -5.42626e-18)
(0.0371925 0.135564 -8.75633e-18)
(0.0415488 0.134653 3.87008e-18)
(0.0458968 0.133642 -1.60653e-18)
(0.0502336 0.132525 -9.54164e-18)
(0.0545568 0.131305 -1.14566e-17)
(0.0588623 0.129983 -3.28076e-18)
(0.0631493 0.128549 7.0889e-18)
(0.0674171 0.126998 -6.445e-18)
(0.0716649 0.125335 -2.80745e-17)
(0.0758861 0.123555 -8.07762e-18)
(0.0800789 0.121659 -2.19178e-17)
(-0.106516 0.111137 -4.23785e-18)
(-0.103074 0.113222 -5.31504e-18)
(-0.0989761 0.115789 3.17727e-18)
(-0.0948302 0.118228 -2.35712e-18)
(-0.0906448 0.120544 2.15423e-17)
(-0.0864253 0.122743 7.36622e-18)
(-0.0821672 0.124825 4.21197e-18)
(-0.0778744 0.12679 6.57933e-18)
(-0.0735503 0.128637 2.494e-18)
(-0.0692028 0.130368 -2.90283e-18)
(-0.06483 0.131979 1.93542e-17)
(-0.0604326 0.133472 1.01819e-17)
(-0.0560129 0.134851 4.82941e-18)
(-0.0515796 0.136121 -5.68918e-19)
(-0.0471364 0.137286 -1.06031e-18)
(-0.0426743 0.138334 1.646e-17)
(-0.0382042 0.139278 8.89304e-18)
(-0.0337278 0.140111 5.64177e-18)
(-0.0292445 0.14084 1.53188e-18)
(-0.0247545 0.141464 6.83594e-18)
(-0.0202626 0.141985 3.93859e-18)
(-0.0157689 0.142402 5.66088e-18)
(-0.0112684 0.142709 -1.24253e-18)
(-0.00676387 0.142911 4.17863e-18)
(-0.00225723 0.143012 -5.52845e-18)
(0.00225023 0.143011 3.80161e-18)
(0.00675673 0.142905 -1.33257e-18)
(0.0112626 0.142702 -1.43201e-20)
(0.0157674 0.142398 -1.00673e-17)
(0.020266 0.141986 -8.76705e-18)
(0.0247584 0.141474 -6.61445e-18)
(0.0292448 0.14085 -8.97372e-18)
(0.0337268 0.140116 -4.77487e-18)
(0.0382042 0.139271 -7.9368e-18)
(0.0426762 0.138324 3.81061e-18)
(0.0471375 0.137272 -1.23913e-18)
(0.0515867 0.136112 -9.3686e-18)
(0.0560201 0.134843 -1.02735e-17)
(0.060434 0.133469 -3.78904e-18)
(0.0648278 0.13198 6.21794e-18)
(0.0692011 0.130372 -4.52321e-18)
(0.0735519 0.128648 -2.56946e-17)
(0.0778738 0.126803 -8.17992e-18)
(0.0821651 0.124839 -2.27975e-17)
(-0.109348 0.114044 -2.93612e-18)
(-0.105789 0.116206 -4.41714e-18)
(-0.101578 0.118838 3.17885e-18)
(-0.0973195 0.121337 -1.72983e-18)
(-0.0930192 0.123709 2.10732e-17)
(-0.0886912 0.125971 7.70574e-18)
(-0.0843259 0.128117 4.55815e-18)
(-0.0799239 0.13014 7.56847e-18)
(-0.0754892 0.132042 4.16705e-18)
(-0.0710294 0.133824 -7.22059e-19)
(-0.0665434 0.135482 2.05361e-17)
(-0.0620322 0.13702 1.0819e-17)
(-0.0575023 0.138452 5.50711e-18)
(-0.0529558 0.13977 3.53836e-19)
(-0.0483982 0.140979 -1.01805e-18)
(-0.0438207 0.142067 1.5943e-17)
(-0.0392331 0.143046 9.56392e-18)
(-0.0346384 0.143912 6.7501e-18)
(-0.0300356 0.144668 2.52733e-18)
(-0.0254252 0.145315 6.89188e-18)
(-0.020812 0.145856 4.34972e-18)
(-0.016197 0.146288 5.73434e-18)
(-0.0115747 0.146607 -9.62998e-19)
(-0.00694786 0.146817 4.03084e-18)
(-0.00231861 0.146923 -5.24372e-18)
(0.00231141 0.146922 3.34416e-18)
(0.00694061 0.146812 -2.24013e-18)
(0.0115691 0.146601 -1.02282e-18)
(0.0161958 0.146285 -1.03769e-17)
(0.0208159 0.145857 -9.40654e-18)
(0.0254292 0.145325 -7.7746e-18)
(0.0300357 0.144678 -9.23168e-18)
(0.0346371 0.143917 -4.60837e-18)
(0.0392332 0.143041 -6.91483e-18)
(0.0438228 0.142059 3.21822e-18)
(0.0483998 0.140966 -1.63798e-18)
(0.0529635 0.139761 -8.44248e-18)
(0.0575091 0.138443 -9.07225e-18)
(0.0620337 0.137016 -3.73525e-18)
(0.0665409 0.135482 5.97965e-18)
(0.0710274 0.133827 -3.38931e-18)
(0.0754901 0.132051 -2.41045e-17)
(0.0799225 0.130152 -8.23403e-18)
(0.0843231 0.128129 -2.38971e-17)
(-0.112281 0.117055 -1.48905e-18)
(-0.108615 0.119313 -3.74644e-18)
(-0.104302 0.122029 3.50396e-18)
(-0.099939 0.124609 -1.80202e-19)
(-0.0955305 0.127057 2.04043e-17)
(-0.0910865 0.129384 7.31392e-18)
(-0.0866019 0.131586 4.64894e-18)
(-0.0820794 0.133662 9.609e-18)
(-0.0775234 0.135613 5.76568e-18)
(-0.0729413 0.13744 1.63456e-18)
(-0.0683327 0.139138 2.14829e-17)
(-0.0636986 0.140716 1.13152e-17)
(-0.0590492 0.142194 5.94079e-18)
(-0.054382 0.143552 1.45009e-18)
(-0.0497029 0.144797 -6.48761e-19)
(-0.0450035 0.145919 1.53962e-17)
(-0.0402928 0.146927 1.03932e-17)
(-0.0355746 0.147819 7.28692e-18)
(-0.0308479 0.148599 3.45295e-18)
(-0.0261129 0.149264 6.90905e-18)
(-0.0213749 0.14982 4.60573e-18)
(-0.0166351 0.150265 5.69268e-18)
(-0.011888 0.150594 -8.25032e-19)
(-0.00713594 0.150811 3.64471e-18)
(-0.00238135 0.15092 -5.06178e-18)
(0.00237396 0.150919 2.73882e-18)
(0.00712863 0.150806 -3.23034e-18)
(0.0118826 0.15059 -2.1731e-18)
(0.0166342 0.150263 -1.07593e-17)
(0.0213791 0.149821 -1.01618e-17)
(0.026117 0.149273 -8.83723e-18)
(0.0308477 0.148607 -9.87382e-18)
(0.0355731 0.147825 -4.57428e-18)
(0.040293 0.146924 -5.68762e-18)
(0.0450058 0.145912 2.44586e-18)
(0.049705 0.144786 -2.03983e-18)
(0.0543902 0.143545 -7.24215e-18)
(0.059056 0.142185 -7.83454e-18)
(0.0637001 0.140712 -3.53569e-18)
(0.06833 0.139138 6.01903e-18)
(0.0729389 0.137441 -2.87809e-18)
(0.0775237 0.135621 -2.26799e-17)
(0.0820772 0.133673 -8.5618e-18)
(0.0865985 0.131598 -2.47431e-17)
(-0.115232 0.120083 -6.52087e-20)
(-0.111475 0.122458 -2.8458e-18)
(-0.107075 0.125277 3.9484e-18)
(-0.10262 0.127958 1.48362e-18)
(-0.0981149 0.130502 2.01058e-17)
(-0.093564 0.132913 7.09902e-18)
(-0.0889669 0.135191 5.54129e-18)
(-0.0843291 0.137338 1.12657e-17)
(-0.0796555 0.139356 7.52594e-18)
(-0.0749532 0.141244 3.89977e-18)
(-0.0702227 0.143001 2.18616e-17)
(-0.0654641 0.144632 1.2072e-17)
(-0.0606852 0.146151 7.04424e-18)
(-0.0558879 0.147545 2.45345e-18)
(-0.0510783 0.148822 1.37513e-20)
(-0.0462486 0.149974 1.47318e-17)
(-0.0414069 0.151007 1.13956e-17)
(-0.0365576 0.151921 7.5557e-18)
(-0.0316999 0.15272 3.97564e-18)
(-0.0268337 0.153401 6.67531e-18)
(-0.0219644 0.15397 4.46882e-18)
(-0.0170936 0.154425 5.50445e-18)
(-0.0122157 0.154763 -9.7454e-19)
(-0.00733263 0.154986 3.03108e-18)
(-0.00244694 0.155098 -4.87375e-18)
(0.00243939 0.155096 1.90885e-18)