/*--------------------------------*- C++ -*----------------------------------*\
  =========                 |
  \\      /  F ield         | OpenFOAM: The Open Source CFD Toolbox
   \\    /   O peration     | Website:  https://openfoam.org
    \\  /    A nd           | Version:  7
     \\/     M anipulation  |
\*---------------------------------------------------------------------------*/
FoamFile
{
    version     2.0;
    format      ascii;
    class       volScalarField;
    location    "180000";
    object      nut;
}
// * * * * * * * * * * * * * * * * * * * * * * * * * * * * * * * * * * * * * //

dimensions      [0 2 -1 0 0 0 0];

internalField   nonuniform List<scalar> 
4764
(
1.23635e-05
1.24017e-05
1.24363e-05
1.24672e-05
1.24944e-05
1.25178e-05
1.16715e-05
1.17383e-05
1.18023e-05
1.18634e-05
1.19214e-05
1.19764e-05
1.20281e-05
1.20765e-05
1.21215e-05
1.21631e-05
1.22011e-05
1.22355e-05
1.22663e-05
1.22933e-05
1.23165e-05
1.2336e-05
1.23515e-05
1.23633e-05
1.23711e-05
1.2375e-05
1.2375e-05
1.23711e-05
1.23633e-05
1.23515e-05
1.2336e-05
1.23165e-05
1.22933e-05
1.22663e-05
1.22355e-05
1.14746e-05
1.15409e-05
1.16044e-05
1.16651e-05
1.17227e-05
1.17773e-05
1.18287e-05
1.18768e-05
1.19215e-05
1.19628e-05
1.20006e-05
1.20348e-05
1.20653e-05
1.20922e-05
1.21153e-05
1.21346e-05
1.21501e-05
1.21617e-05
1.21695e-05
1.21734e-05
1.21734e-05
1.21695e-05
1.21617e-05
1.21501e-05
1.21346e-05
1.21153e-05
1.20922e-05
1.20653e-05
1.20348e-05
1.20006e-05
1.19628e-05
1.19215e-05
1.18768e-05
1.12778e-05
1.13437e-05
1.14067e-05
1.1467e-05
1.15242e-05
1.15784e-05
1.16294e-05
1.16771e-05
1.17216e-05
1.17626e-05
1.18001e-05
1.18341e-05
1.18644e-05
1.18911e-05
1.1914e-05
1.19332e-05
1.19486e-05
1.19602e-05
1.19679e-05
1.19718e-05
1.19718e-05
1.19679e-05
1.19602e-05
1.19486e-05
1.19332e-05
1.19141e-05
1.18911e-05
1.18644e-05
1.18341e-05
1.18001e-05
1.17626e-05
1.17216e-05
1.16772e-05
1.16294e-05
1.15784e-05
1.15242e-05
1.1467e-05
1.14067e-05
1.13437e-05
1.12778e-05
1.12094e-05
1.11384e-05
1.1065e-05
1.09893e-05
1.0911e-05
1.10814e-05
1.11467e-05
1.12093e-05
1.12691e-05
1.13259e-05
1.13796e-05
1.14303e-05
1.14777e-05
1.15218e-05
1.15625e-05
1.15998e-05
1.16335e-05
1.16636e-05
1.16901e-05
1.17129e-05
1.1732e-05
1.17473e-05
1.17588e-05
1.17665e-05
1.17703e-05
1.17703e-05
1.17665e-05
1.17588e-05
1.17473e-05
1.1732e-05
1.17129e-05
1.16901e-05
1.16637e-05
1.16335e-05
1.15998e-05
1.15625e-05
1.15218e-05
1.14777e-05
1.14303e-05
1.13796e-05
1.13259e-05
1.12691e-05
1.12093e-05
1.11467e-05
1.10814e-05
1.10135e-05
1.09431e-05
1.08703e-05
1.07952e-05
1.07139e-05
1.08853e-05
1.09501e-05
1.10122e-05
1.10714e-05
1.11278e-05
1.11811e-05
1.12314e-05
1.12784e-05
1.13222e-05
1.13626e-05
1.13996e-05
1.14331e-05
1.1463e-05
1.14893e-05
1.1512e-05
1.15309e-05
1.15461e-05
1.15575e-05
1.15651e-05
1.15689e-05
1.15689e-05
1.15651e-05
1.15575e-05
1.15461e-05
1.15309e-05
1.1512e-05
1.14893e-05
1.1463e-05
1.14331e-05
1.13996e-05
1.13626e-05
1.13222e-05
1.12784e-05
1.12314e-05
1.11811e-05
1.11278e-05
1.10714e-05
1.10122e-05
1.09501e-05
1.08853e-05
1.0818e-05
1.07481e-05
1.06759e-05
1.06015e-05
1.05159e-05
1.06896e-05
1.07538e-05
1.08153e-05
1.08741e-05
1.093e-05
1.09829e-05
1.10328e-05
1.10794e-05
1.11229e-05
1.1163e-05
1.11997e-05
1.12329e-05
1.12626e-05
1.12887e-05
1.13112e-05
1.133e-05
1.1345e-05
1.13564e-05
1.13639e-05
1.13677e-05
1.13677e-05
1.13639e-05
1.13564e-05
1.1345e-05
1.133e-05
1.13112e-05
1.12887e-05
1.12626e-05
1.12329e-05
1.11997e-05
1.1163e-05
1.11229e-05
1.10795e-05
1.10328e-05
1.09829e-05
1.093e-05
1.08741e-05
1.08153e-05
1.07538e-05
1.06896e-05
1.06228e-05
1.05536e-05
1.0482e-05
1.04065e-05
1.0318e-05
1.04942e-05
1.05579e-05
1.06189e-05
1.06771e-05
1.07325e-05
1.0785e-05
1.08344e-05
1.08807e-05
1.09238e-05
1.09636e-05
1.1e-05
1.1033e-05
1.10624e-05
1.10883e-05
1.11106e-05
1.11293e-05
1.11442e-05
1.11555e-05
1.1163e-05
1.11667e-05
1.11667e-05
1.1163e-05
1.11555e-05
1.11442e-05
1.11293e-05
1.11106e-05
1.10883e-05
1.10624e-05
1.1033e-05
1.1e-05
1.09636e-05
1.09238e-05
1.08807e-05
1.08344e-05
1.0785e-05
1.07325e-05
1.06771e-05
1.06189e-05
1.05578e-05
1.04942e-05
1.0428e-05
1.03579e-05
1.02847e-05
1.02083e-05
1.01203e-05
1.02974e-05
1.03623e-05
1.04228e-05
1.04805e-05
1.05355e-05
1.05875e-05
1.06365e-05
1.06824e-05
1.07251e-05
1.07645e-05
1.08006e-05
1.08333e-05
1.08625e-05
1.08882e-05
1.09103e-05
1.09288e-05
1.09437e-05
1.09548e-05
1.09622e-05
1.0966e-05
1.0966e-05
1.09622e-05
1.09548e-05
1.09437e-05
1.09288e-05
1.09103e-05
1.08882e-05
1.08625e-05
1.08333e-05
1.08006e-05
1.07645e-05
1.07251e-05
1.06824e-05
1.06365e-05
1.05875e-05
1.05355e-05
1.04805e-05
1.04228e-05
1.03623e-05
1.02974e-05
1.02297e-05
1.0159e-05
1.00857e-05
1.00094e-05
9.92331e-06
1.00977e-05
1.01628e-05
1.02247e-05
1.02837e-05
1.03388e-05
1.03903e-05
1.04389e-05
1.04844e-05
1.05267e-05
1.05658e-05
1.06016e-05
1.0634e-05
1.0663e-05
1.06884e-05
1.07104e-05
1.07287e-05
1.07434e-05
1.07545e-05
1.07618e-05
1.07655e-05
1.07655e-05
1.07618e-05
1.07545e-05
1.07434e-05
1.07287e-05
1.07104e-05
1.06884e-05
1.0663e-05
1.0634e-05
1.06016e-05
1.05658e-05
1.05267e-05
1.04844e-05
1.04389e-05
1.03903e-05
1.03388e-05
1.02837e-05
1.02247e-05
1.01628e-05
1.00977e-05
1.00299e-05
9.95946e-06
9.88653e-06
9.811e-06
9.72706e-06
9.89737e-06
9.96211e-06
1.00241e-05
1.00832e-05
1.01391e-05
1.01918e-05
1.02413e-05
1.02868e-05
1.03287e-05
1.03675e-05
1.0403e-05
1.04351e-05
1.04638e-05
1.0489e-05
1.05107e-05
1.05289e-05
1.05435e-05
1.05545e-05
1.05618e-05
1.05654e-05
1.05654e-05
1.05618e-05
1.05545e-05
1.05435e-05
1.05289e-05
1.05107e-05
1.0489e-05
1.04638e-05
1.04351e-05
1.0403e-05
1.03675e-05
1.03288e-05
1.02868e-05
1.02413e-05
1.01918e-05
1.01391e-05
1.00832e-05
1.00241e-05
9.96211e-06
9.89736e-06
9.82998e-06
9.76023e-06
9.6881e-06
9.61362e-06
9.53173e-06
9.69741e-06
9.76148e-06
9.82303e-06
9.88174e-06
9.93752e-06
9.99026e-06
1.00399e-05
1.0086e-05
1.01288e-05
1.01683e-05
1.02044e-05
1.02365e-05
1.0265e-05
1.029e-05
1.03115e-05
1.03295e-05
1.0344e-05
1.03548e-05
1.03621e-05
1.03657e-05
1.03657e-05
1.03621e-05
1.03548e-05
1.0344e-05
1.03295e-05
1.03115e-05
1.029e-05
1.0265e-05
1.02365e-05
1.02044e-05
1.01683e-05
1.01288e-05
1.0086e-05
1.00399e-05
9.99027e-06
9.93752e-06
9.88174e-06
9.82303e-06
9.76148e-06
9.69741e-06
9.6308e-06
9.56191e-06
9.49076e-06
9.41744e-06
9.33741e-06
9.49838e-06
9.56162e-06
9.62243e-06
9.68049e-06
9.73577e-06
9.78813e-06
9.83738e-06
9.88348e-06
9.92631e-06
9.96582e-06
1.00019e-05
1.00345e-05
1.00634e-05
1.00889e-05
1.01108e-05
1.01291e-05
1.01438e-05
1.01549e-05
1.01623e-05
1.01659e-05
1.01659e-05
1.01623e-05
1.01549e-05
1.01438e-05
1.01291e-05
1.01108e-05
1.00889e-05
1.00634e-05
1.00345e-05
1.00019e-05
9.96583e-06
9.92631e-06
9.88348e-06
9.83739e-06
9.78813e-06
9.73577e-06
9.68049e-06
9.62243e-06
9.56162e-06
9.49838e-06
9.43268e-06
9.36476e-06
9.29465e-06
9.22253e-06
9.14415e-06
9.23578e-06
9.30051e-06
9.36285e-06
9.42279e-06
9.48007e-06
9.53466e-06
9.58639e-06
9.6351e-06
9.68077e-06
9.72328e-06
9.7625e-06
9.79836e-06
9.8308e-06
9.85977e-06
9.88522e-06
9.90713e-06
9.92544e-06
9.94014e-06
9.95119e-06
9.95857e-06
9.96226e-06
9.96226e-06
9.95857e-06
9.95119e-06
9.94014e-06
9.92545e-06
9.90713e-06
9.88523e-06
9.85977e-06
9.83081e-06
9.79836e-06
9.7625e-06
9.72328e-06
9.68077e-06
9.6351e-06
9.58639e-06
9.53466e-06
9.48007e-06
9.42279e-06
9.36285e-06
9.3005e-06
9.23578e-06
9.16884e-06
9.0998e-06
9.02884e-06
8.95194e-06
9.04011e-06
9.10386e-06
9.16529e-06
9.22432e-06
9.28077e-06
9.33457e-06
9.38557e-06
9.43363e-06
9.47872e-06
9.52071e-06
9.55947e-06
9.59493e-06
9.62708e-06
9.65581e-06
9.68107e-06
9.7028e-06
9.72097e-06
9.73555e-06
9.74652e-06
9.75384e-06
9.7575e-06
9.7575e-06
9.75384e-06
9.74652e-06
9.73556e-06
9.72097e-06
9.7028e-06
9.68107e-06
9.65582e-06
9.62708e-06
9.59494e-06
9.55948e-06
9.52071e-06
9.47872e-06
9.43363e-06
9.38557e-06
9.33457e-06
9.28077e-06
9.22432e-06
9.16529e-06
9.10386e-06
9.04011e-06
8.97418e-06
8.90618e-06
8.83634e-06
8.7608e-06
8.84567e-06
8.90846e-06
8.96896e-06
9.02709e-06
9.08269e-06
9.13567e-06
9.18591e-06
9.23327e-06
9.27771e-06
9.3191e-06
9.35733e-06
9.39232e-06
9.42406e-06
9.45244e-06
9.47739e-06
9.49887e-06
9.51683e-06
9.53124e-06
9.54207e-06
9.54931e-06
9.55293e-06
9.55293e-06
9.54931e-06
9.54207e-06
9.53124e-06
9.51683e-06
9.49887e-06
9.47739e-06
9.45244e-06
9.42406e-06
9.39232e-06
9.35733e-06
9.31911e-06
9.27771e-06
9.23327e-06
9.18591e-06
9.13567e-06
9.08269e-06
9.02709e-06
8.96896e-06
8.90846e-06
8.84566e-06
8.78072e-06
8.71375e-06
8.64498e-06
8.57071e-06
8.58842e-06
8.6524e-06
8.71425e-06
8.77385e-06
8.83109e-06
8.88584e-06
8.93801e-06
8.98748e-06
9.03413e-06
9.0779e-06
9.11867e-06
9.15633e-06
9.19082e-06
9.22209e-06
9.25007e-06
9.27468e-06
9.29586e-06
9.31357e-06
9.32778e-06
9.33847e-06
9.34561e-06
9.34918e-06
9.34918e-06
9.34561e-06
9.33847e-06
9.32779e-06
9.31357e-06
9.29586e-06
9.27468e-06
9.25008e-06
9.2221e-06
9.19082e-06
9.15633e-06
9.11867e-06
9.0779e-06
9.03413e-06
8.98748e-06
8.93801e-06
8.88584e-06
8.83109e-06
8.77385e-06
8.71425e-06
8.6524e-06
8.58842e-06
8.52245e-06
8.4547e-06
8.38165e-06
8.39723e-06
8.46027e-06
8.5212e-06
8.5799e-06
8.63628e-06
8.6902e-06
8.74158e-06
8.79029e-06
8.83623e-06
8.87932e-06
8.91947e-06
8.95657e-06
8.99054e-06
9.02134e-06
9.0489e-06
9.07314e-06
9.09401e-06
9.11146e-06
9.12547e-06
9.136e-06
9.14303e-06
9.14655e-06
9.14655e-06
9.14303e-06
9.136e-06
9.12547e-06
9.11147e-06
9.09401e-06
9.07315e-06
9.04891e-06
9.02134e-06
8.99054e-06
8.95657e-06
8.91947e-06
8.87933e-06
8.83623e-06
8.79029e-06
8.74158e-06
8.6902e-06
8.63628e-06
8.5799e-06
8.5212e-06
8.46027e-06
8.39723e-06
8.33223e-06
8.26547e-06
8.1936e-06
8.14308e-06
8.20712e-06
8.26923e-06
8.32926e-06
8.38709e-06
8.44262e-06
8.49573e-06
8.54632e-06
8.59429e-06
8.63954e-06
8.68197e-06
8.72151e-06
8.75804e-06
8.7915e-06
8.82184e-06
8.84898e-06
8.87285e-06
8.8934e-06
8.9106e-06
8.92439e-06
8.93476e-06
8.94169e-06
8.94516e-06
8.94516e-06
8.94169e-06
8.93476e-06
8.92439e-06
8.9106e-06
8.8934e-06
8.87285e-06
8.84898e-06
8.82184e-06
8.7915e-06
8.75804e-06
8.72151e-06
8.68198e-06
8.63954e-06
8.59429e-06
8.54632e-06
8.49573e-06
8.44262e-06
8.38709e-06
8.32926e-06
8.26923e-06
8.20712e-06
8.14307e-06
8.07728e-06
8.00655e-06
7.95495e-06
8.01806e-06
8.07925e-06
8.13839e-06
8.19536e-06
8.25006e-06
8.30238e-06
8.35221e-06
8.39946e-06
8.44402e-06
8.48581e-06
8.52474e-06
8.56072e-06
8.59368e-06
8.62356e-06
8.65028e-06
8.67379e-06
8.69404e-06
8.71097e-06
8.72456e-06
8.73477e-06
8.7416e-06
8.74501e-06
8.74501e-06
8.7416e-06
8.73478e-06
8.72456e-06
8.71097e-06
8.69404e-06
8.67379e-06
8.65028e-06
8.62356e-06
8.59368e-06
8.56073e-06
8.52474e-06
8.48581e-06
8.44402e-06
8.39946e-06
8.35221e-06
8.30238e-06
8.25006e-06
8.19536e-06
8.13839e-06
8.07925e-06
8.01805e-06
7.95495e-06
7.8901e-06
7.82051e-06
7.76784e-06
7.83002e-06
7.89031e-06
7.94857e-06
8.0047e-06
8.05858e-06
8.11011e-06
8.1592e-06
8.20573e-06
8.24963e-06
8.29079e-06
8.32913e-06
8.36457e-06
8.39704e-06
8.42646e-06
8.45278e-06
8.47594e-06
8.49587e-06
8.51255e-06
8.52594e-06
8.536e-06
8.54272e-06
8.54609e-06
8.54609e-06
8.54272e-06
8.536e-06
8.52594e-06
8.51255e-06
8.49588e-06
8.47594e-06
8.45278e-06
8.42646e-06
8.39704e-06
8.36458e-06
8.32914e-06
8.29079e-06
8.24963e-06
8.20574e-06
8.1592e-06
8.11011e-06
8.05858e-06
8.0047e-06
7.94857e-06
7.89031e-06
7.83002e-06
7.76784e-06
7.70393e-06
7.63545e-06
7.58175e-06
7.64301e-06
7.7024e-06
7.75979e-06
7.81508e-06
7.86815e-06
7.91891e-06
7.96726e-06
8.0131e-06
8.05633e-06
8.09687e-06
8.13464e-06
8.16955e-06
8.20153e-06
8.23051e-06
8.25643e-06
8.27924e-06
8.29888e-06
8.31531e-06
8.32849e-06
8.33841e-06
8.34503e-06
8.34834e-06
8.34834e-06
8.34503e-06
8.33841e-06
8.32849e-06
8.31531e-06
8.29888e-06
8.27924e-06
8.25643e-06
8.23051e-06
8.20153e-06
8.16955e-06
8.13464e-06
8.09688e-06
8.05633e-06
8.0131e-06
7.96726e-06
7.91891e-06
7.86815e-06
7.81508e-06
7.75979e-06
7.7024e-06
7.643e-06
7.58174e-06
7.51877e-06
7.4514e-06
7.39667e-06
7.45701e-06
7.5155e-06
7.57203e-06
7.62648e-06
7.67875e-06
7.72875e-06
7.77637e-06
7.82152e-06
7.8641e-06
7.90403e-06
7.94123e-06
7.97561e-06
8.00711e-06
8.03566e-06
8.06119e-06
8.08366e-06
8.103e-06
8.11919e-06
8.13218e-06
8.14194e-06
8.14847e-06
8.15173e-06
8.15173e-06
8.14847e-06
8.14195e-06
8.13218e-06
8.11919e-06
8.10301e-06
8.08366e-06
8.0612e-06
8.03566e-06
8.00712e-06
7.97562e-06
7.94123e-06
7.90403e-06
7.8641e-06
7.82152e-06
7.77637e-06
7.72875e-06
7.67875e-06
7.62648e-06
7.57203e-06
7.5155e-06
7.45701e-06
7.39666e-06
7.33462e-06
7.26836e-06
7.1515e-06
7.21261e-06
7.27203e-06
7.32964e-06
7.3853e-06
7.43891e-06
7.49039e-06
7.53962e-06
7.58652e-06
7.63098e-06
7.67292e-06
7.71225e-06
7.74888e-06
7.78275e-06
7.81377e-06
7.84189e-06
7.86704e-06
7.88917e-06
7.90822e-06
7.92416e-06
7.93696e-06
7.94658e-06
7.95301e-06
7.95622e-06
7.95622e-06
7.95301e-06
7.94658e-06
7.93696e-06
7.92417e-06
7.90822e-06
7.88917e-06
7.86704e-06
7.84189e-06
7.81378e-06
7.78275e-06
7.74888e-06
7.71225e-06
7.67292e-06
7.63098e-06
7.58652e-06
7.53962e-06
7.49039e-06
7.43891e-06
7.3853e-06
7.32963e-06
7.27203e-06
7.21261e-06
7.1515e-06
7.08635e-06
6.90537e-06
6.96942e-06
7.02959e-06
7.08809e-06
7.1448e-06
7.19959e-06
7.25238e-06
7.30305e-06
7.35153e-06
7.3977e-06
7.44148e-06
7.48278e-06
7.5215e-06
7.55758e-06
7.59093e-06
7.62149e-06
7.64918e-06
7.67395e-06
7.69574e-06
7.71451e-06
7.73021e-06
7.74281e-06
7.75229e-06
7.75862e-06
7.76179e-06
7.76179e-06
7.75862e-06
7.75229e-06
7.74281e-06
7.73021e-06
7.71451e-06
7.69574e-06
7.67395e-06
7.64918e-06
7.62149e-06
7.59094e-06
7.55758e-06
7.52151e-06
7.48278e-06
7.44148e-06
7.3977e-06
7.35153e-06
7.30305e-06
7.25238e-06
7.19959e-06
7.1448e-06
7.08809e-06
7.02959e-06
6.96942e-06
6.90537e-06
6.72546e-06
6.7884e-06
6.84762e-06
6.9052e-06
6.96101e-06
7.01493e-06
7.06688e-06
7.11676e-06
7.16447e-06
7.20992e-06
7.25302e-06
7.29368e-06
7.33181e-06
7.36733e-06
7.40016e-06
7.43025e-06
7.45752e-06
7.48191e-06
7.50337e-06
7.52185e-06
7.53731e-06
7.54972e-06
7.55906e-06
7.56529e-06
7.56841e-06
7.56841e-06
7.56529e-06
7.55906e-06
7.54972e-06
7.53731e-06
7.52185e-06
7.50337e-06
7.48191e-06
7.45752e-06
7.43025e-06
7.40017e-06
7.36733e-06
7.33181e-06
7.29368e-06
7.25302e-06
7.20992e-06
7.16447e-06
7.11676e-06
7.06688e-06
7.01493e-06
6.961e-06
6.9052e-06
6.84762e-06
6.7884e-06
6.72546e-06
6.54663e-06
6.60847e-06
6.66673e-06
6.72338e-06
6.77828e-06
6.83133e-06
6.88244e-06
6.93152e-06
6.97847e-06
7.0232e-06
7.06561e-06
7.10563e-06
7.14315e-06
7.17812e-06
7.21044e-06
7.24006e-06
7.2669e-06
7.29092e-06
7.31204e-06
7.33024e-06
7.34546e-06
7.35768e-06
7.36687e-06
7.37301e-06
7.37608e-06
7.37608e-06
7.37301e-06
7.36687e-06
7.35769e-06
7.34547e-06
7.33024e-06
7.31204e-06
7.29092e-06
7.26691e-06
7.24006e-06
7.21045e-06
7.17812e-06
7.14316e-06
7.10563e-06
7.06561e-06
7.0232e-06
6.97847e-06
6.93152e-06
6.88244e-06
6.83133e-06
6.77828e-06
6.72338e-06
6.66673e-06
6.60847e-06
6.54662e-06
6.36891e-06
6.42964e-06
6.48694e-06
6.54265e-06
6.59664e-06
6.64881e-06
6.69908e-06
6.74735e-06
6.79353e-06
6.83754e-06
6.87927e-06
6.91864e-06
6.95556e-06
6.98997e-06
7.02178e-06
7.05093e-06
7.07735e-06
7.10098e-06
7.12177e-06
7.13968e-06
7.15467e-06
7.1667e-06
7.17575e-06
7.18179e-06
7.18481e-06
7.18481e-06
7.18179e-06
7.17575e-06
7.1667e-06
7.15467e-06
7.13968e-06
7.12177e-06
7.10098e-06
7.07735e-06
7.05093e-06
7.02178e-06
6.98997e-06
6.95556e-06
6.91864e-06
6.87927e-06
6.83754e-06
6.79353e-06
6.74735e-06
6.69908e-06
6.64881e-06
6.59663e-06
6.54264e-06
6.48694e-06
6.42964e-06
6.3689e-06
6.19232e-06
6.25194e-06
6.30828e-06
6.36303e-06
6.4161e-06
6.46739e-06
6.51682e-06
6.56428e-06
6.60969e-06
6.65296e-06
6.694e-06
6.73272e-06
6.76905e-06
6.80289e-06
6.83419e-06
6.86286e-06
6.88885e-06
6.91211e-06
6.93257e-06
6.95019e-06
6.96494e-06
6.97678e-06
6.98568e-06
6.99162e-06
6.9946e-06
6.9946e-06
6.99162e-06
6.98568e-06
6.97678e-06
6.96494e-06
6.95019e-06
6.93257e-06
6.91211e-06
6.88886e-06
6.86286e-06
6.83419e-06
6.80289e-06
6.76905e-06
6.73273e-06
6.694e-06
6.65296e-06
6.60969e-06
6.56428e-06
6.51681e-06
6.46739e-06
6.4161e-06
6.36303e-06
6.30827e-06
6.25194e-06
6.19232e-06
6.01691e-06
6.07541e-06
6.13076e-06
6.18456e-06
6.23671e-06
6.28711e-06
6.33568e-06
6.38232e-06
6.42696e-06
6.4695e-06
6.50984e-06
6.54791e-06
6.58363e-06
6.61691e-06
6.64768e-06
6.67589e-06
6.70145e-06
6.72432e-06
6.74445e-06
6.76178e-06
6.77629e-06
6.78793e-06
6.79669e-06
6.80254e-06
6.80546e-06
6.80546e-06
6.80254e-06
6.79669e-06
6.78793e-06
6.77629e-06
6.76178e-06
6.74445e-06
6.72432e-06
6.70145e-06
6.67589e-06
6.64769e-06
6.61691e-06
6.58363e-06
6.54791e-06
6.50984e-06
6.4695e-06
6.42696e-06
6.38232e-06
6.33567e-06
6.28711e-06
6.23671e-06
6.18456e-06
6.13076e-06
6.07541e-06
6.0169e-06
5.84269e-06
5.90008e-06
5.95444e-06
6.00727e-06
6.05848e-06
6.10798e-06
6.15569e-06
6.20152e-06
6.24537e-06
6.28717e-06
6.32681e-06
6.36423e-06
6.39933e-06
6.43204e-06
6.4623e-06
6.49002e-06
6.51515e-06
6.53764e-06
6.55743e-06
6.57447e-06
6.58873e-06
6.60018e-06
6.60879e-06
6.61455e-06
6.61743e-06
6.61743e-06
6.61455e-06
6.6088e-06
6.60019e-06
6.58874e-06
6.57447e-06
6.55743e-06
6.53764e-06
6.51515e-06
6.49002e-06
6.4623e-06
6.43205e-06
6.39933e-06
6.36423e-06
6.32682e-06
6.28717e-06
6.24537e-06
6.20152e-06
6.15569e-06
6.10798e-06
6.05848e-06
6.00727e-06
5.95444e-06
5.90007e-06
5.84269e-06
5.66971e-06
5.72597e-06
5.77933e-06
5.83119e-06
5.88146e-06
5.93005e-06
5.97689e-06
6.02189e-06
6.06496e-06
6.106e-06
6.14495e-06
6.1817e-06
6.21619e-06
6.24833e-06
6.27805e-06
6.30529e-06
6.32999e-06
6.35209e-06
6.37154e-06
6.38829e-06
6.40231e-06
6.41356e-06
6.42202e-06
6.42768e-06
6.43051e-06
6.43051e-06
6.42768e-06
6.42202e-06
6.41356e-06
6.40231e-06
6.38829e-06
6.37154e-06
6.35209e-06
6.32999e-06
6.30529e-06
6.27805e-06
6.24833e-06
6.21619e-06
6.1817e-06
6.14495e-06
6.10601e-06
6.06496e-06
6.02189e-06
5.97689e-06
5.93005e-06
5.88146e-06
5.83119e-06
5.77933e-06
5.72597e-06
5.6697e-06
5.49799e-06
5.55312e-06
5.60547e-06
5.65635e-06
5.70567e-06
5.75335e-06
5.79931e-06
5.84347e-06
5.88575e-06
5.92604e-06
5.96427e-06
6.00036e-06
6.03422e-06
6.06579e-06
6.09498e-06
6.12173e-06
6.14599e-06
6.1677e-06
6.1868e-06
6.20326e-06
6.21703e-06
6.22809e-06
6.2364e-06
6.24196e-06
6.24474e-06
6.24474e-06
6.24196e-06
6.2364e-06
6.22809e-06
6.21703e-06
6.20326e-06
6.1868e-06
6.1677e-06
6.14599e-06
6.12174e-06
6.09498e-06
6.06579e-06
6.03422e-06
6.00036e-06
5.96428e-06
5.92604e-06
5.88575e-06
5.84347e-06
5.79931e-06
5.75335e-06
5.70567e-06
5.65635e-06
5.60547e-06
5.55312e-06
5.49799e-06
5.32758e-06
5.38158e-06
5.43291e-06
5.48279e-06
5.53115e-06
5.57791e-06
5.62299e-06
5.6663e-06
5.70778e-06
5.74731e-06
5.78483e-06
5.82024e-06
5.85348e-06
5.88445e-06
5.91311e-06
5.93938e-06
5.96319e-06
5.9845e-06
6.00326e-06
6.01942e-06
6.03294e-06
6.0438e-06
6.05196e-06
6.05742e-06
6.06015e-06
6.06015e-06
6.05742e-06
6.05196e-06
6.0438e-06
6.03294e-06
6.01942e-06
6.00326e-06
5.9845e-06
5.96319e-06
5.93938e-06
5.91311e-06
5.88446e-06
5.85348e-06
5.82024e-06
5.78483e-06
5.74731e-06
5.70778e-06
5.6663e-06
5.62299e-06
5.57791e-06
5.53115e-06
5.48279e-06
5.4329e-06
5.38158e-06
5.32758e-06
5.15852e-06
5.21137e-06
5.26167e-06
5.31055e-06
5.35794e-06
5.40377e-06
5.44795e-06
5.49042e-06
5.53109e-06
5.56986e-06
5.60665e-06
5.64138e-06
5.67398e-06
5.70437e-06
5.73248e-06
5.75826e-06
5.78162e-06
5.80254e-06
5.82094e-06
5.8368e-06
5.85007e-06
5.86073e-06
5.86874e-06
5.87409e-06
5.87677e-06
5.87677e-06
5.87409e-06
5.86874e-06
5.86073e-06
5.85007e-06
5.8368e-06
5.82094e-06
5.80254e-06
5.78163e-06
5.75826e-06
5.73249e-06
5.70437e-06
5.67398e-06
5.64138e-06
5.60665e-06
5.56986e-06
5.53109e-06
5.49042e-06
5.44795e-06
5.40376e-06
5.35794e-06
5.31054e-06
5.26166e-06
5.21137e-06
5.15851e-06
4.99083e-06
5.04254e-06
5.09179e-06
5.13966e-06
5.18608e-06
5.23097e-06
5.27426e-06
5.31587e-06
5.35571e-06
5.39371e-06
5.42977e-06
5.46382e-06
5.49578e-06
5.52557e-06
5.55314e-06
5.57841e-06
5.60133e-06
5.62184e-06
5.63989e-06
5.65544e-06
5.66846e-06
5.67891e-06
5.68677e-06
5.69202e-06
5.69465e-06
5.69465e-06
5.69202e-06
5.68677e-06
5.67891e-06
5.66846e-06
5.65544e-06
5.63989e-06
5.62184e-06
5.60133e-06
5.57841e-06
5.55314e-06
5.52558e-06
5.49578e-06
5.46382e-06
5.42977e-06
5.39371e-06
5.35571e-06
5.31587e-06
5.27426e-06
5.23096e-06
5.18607e-06
5.13966e-06
5.09179e-06
5.04254e-06
4.99083e-06
4.82458e-06
4.87513e-06
4.92333e-06
4.97018e-06
5.0156e-06
5.05955e-06
5.10193e-06
5.14268e-06
5.1817e-06
5.21892e-06
5.25424e-06
5.2876e-06
5.31891e-06
5.3481e-06
5.37511e-06
5.39988e-06
5.42234e-06
5.44244e-06
5.46014e-06
5.47538e-06
5.48814e-06
5.49839e-06
5.50609e-06
5.51124e-06
5.51381e-06
5.51381e-06
5.51124e-06
5.50609e-06
5.49839e-06
5.48814e-06
5.47538e-06
5.46014e-06
5.44244e-06
5.42234e-06
5.39988e-06
5.37512e-06
5.3481e-06
5.31891e-06
5.2876e-06
5.25424e-06
5.21892e-06
5.1817e-06
5.14268e-06
5.10193e-06
5.05955e-06
5.0156e-06
4.97018e-06
4.92333e-06
4.87513e-06
4.82458e-06
4.65979e-06
4.70919e-06
4.75632e-06
4.80214e-06
4.84657e-06
4.88956e-06
4.93103e-06
4.9709e-06
5.00909e-06
5.04552e-06
5.0801e-06
5.11275e-06
5.14341e-06
5.172e-06
5.19845e-06
5.22271e-06
5.24471e-06
5.2644e-06
5.28173e-06
5.29667e-06
5.30917e-06
5.3192e-06
5.32675e-06
5.33179e-06
5.33431e-06
5.33431e-06
5.33179e-06
5.32675e-06
5.3192e-06
5.30917e-06
5.29667e-06
5.28173e-06
5.2644e-06
5.24471e-06
5.22271e-06
5.19845e-06
5.172e-06
5.14341e-06
5.11276e-06
5.0801e-06
5.04552e-06
5.00909e-06
4.9709e-06
4.93103e-06
4.88956e-06
4.84657e-06
4.80214e-06
4.75632e-06
4.70919e-06
4.65979e-06
4.49653e-06
4.54475e-06
4.59081e-06
4.63559e-06
4.67902e-06
4.72104e-06
4.76159e-06
4.80058e-06
4.83793e-06
4.87357e-06
4.90739e-06
4.93934e-06
4.96934e-06
4.99731e-06
5.0232e-06
5.04694e-06
5.06847e-06
5.08775e-06
5.10472e-06
5.11934e-06
5.13157e-06
5.1414e-06
5.14879e-06
5.15372e-06
5.15619e-06
5.15619e-06
5.15372e-06
5.14879e-06
5.1414e-06
5.13157e-06
5.11934e-06
5.10472e-06
5.08775e-06
5.06847e-06
5.04694e-06
5.0232e-06
4.99731e-06
4.96934e-06
4.93934e-06
4.90739e-06
4.87357e-06
4.83793e-06
4.80058e-06
4.76159e-06
4.72104e-06
4.67902e-06
4.63559e-06
4.59081e-06
4.54475e-06
4.49652e-06
4.33482e-06
4.38187e-06
4.42685e-06
4.47057e-06
4.51299e-06
4.55405e-06
4.59366e-06
4.63177e-06
4.66827e-06
4.7031e-06
4.73617e-06
4.7674e-06
4.79673e-06
4.82409e-06
4.84941e-06
4.87262e-06
4.89369e-06
4.91254e-06
4.92914e-06
4.94344e-06
4.95541e-06
4.96503e-06
4.97225e-06
4.97708e-06
4.9795e-06
4.9795e-06
4.97708e-06
4.97225e-06
4.96503e-06
4.95541e-06
4.94344e-06
4.92914e-06
4.91254e-06
4.89369e-06
4.87263e-06
4.84941e-06
4.82409e-06
4.79673e-06
4.7674e-06
4.73617e-06
4.7031e-06
4.66827e-06
4.63177e-06
4.59366e-06
4.55405e-06
4.51299e-06
4.47057e-06
4.42685e-06
4.38187e-06
4.33482e-06
4.17473e-06
4.2206e-06
4.26449e-06
4.30715e-06
4.34855e-06
4.38862e-06
4.4273e-06
4.46451e-06
4.50016e-06
4.53417e-06
4.56648e-06
4.59699e-06
4.62565e-06
4.65238e-06
4.67712e-06
4.69981e-06
4.7204e-06
4.73882e-06
4.75505e-06
4.76903e-06
4.78074e-06
4.79013e-06
4.7972e-06
4.80192e-06
4.80428e-06
4.80428e-06
4.80192e-06
4.7972e-06
4.79013e-06
4.78074e-06
4.76903e-06
4.75505e-06
4.73883e-06
4.7204e-06
4.69981e-06
4.67712e-06
4.65238e-06
4.62565e-06
4.59699e-06
4.56648e-06
4.53417e-06
4.50016e-06
4.46451e-06
4.4273e-06
4.38862e-06
4.34855e-06
4.30715e-06
4.26449e-06
4.2206e-06
4.17473e-06
4.01631e-06
4.06099e-06
4.10377e-06
4.14537e-06
4.18574e-06
4.22482e-06
4.26255e-06
4.29886e-06
4.33365e-06
4.36684e-06
4.39837e-06
4.42816e-06
4.45613e-06
4.48223e-06
4.50639e-06
4.52855e-06
4.54865e-06
4.56665e-06
4.5825e-06
4.59616e-06
4.60759e-06
4.61677e-06
4.62367e-06
4.62829e-06
4.63059e-06
4.63059e-06
4.62829e-06
4.62367e-06
4.61677e-06
4.60759e-06
4.59616e-06
4.5825e-06
4.56665e-06
4.54866e-06
4.52855e-06
4.50639e-06
4.48223e-06
4.45613e-06
4.42816e-06
4.39837e-06
4.36684e-06
4.33365e-06
4.29886e-06
4.26255e-06
4.22482e-06
4.18573e-06
4.14537e-06
4.10377e-06
4.06099e-06
4.01631e-06
3.8596e-06
3.90309e-06
3.94476e-06
3.98528e-06
4.02461e-06
4.0627e-06
4.09948e-06
4.13487e-06
4.16879e-06
4.20116e-06
4.2319e-06
4.26096e-06
4.28825e-06
4.31371e-06
4.33728e-06
4.3589e-06
4.37852e-06
4.39608e-06
4.41155e-06
4.42488e-06
4.43604e-06
4.445e-06
4.45174e-06
4.45624e-06
4.45849e-06
4.45849e-06
4.45624e-06
4.45174e-06
4.445e-06
4.43604e-06
4.42488e-06
4.41155e-06
4.39608e-06
4.37852e-06
4.3589e-06
4.33728e-06
4.31371e-06
4.28825e-06
4.26096e-06
4.23191e-06
4.20116e-06
4.16879e-06
4.13487e-06
4.09948e-06
4.0627e-06
4.02461e-06
3.98528e-06
3.94476e-06
3.90309e-06
3.8596e-06
3.70468e-06
3.74696e-06
3.78751e-06
3.82695e-06
3.86523e-06
3.90232e-06
3.93813e-06
3.9726e-06
4.00564e-06
4.03718e-06
4.06714e-06
4.09545e-06
4.12204e-06
4.14686e-06
4.16984e-06
4.19092e-06
4.21004e-06
4.22717e-06
4.24225e-06
4.25525e-06
4.26613e-06
4.27487e-06
4.28144e-06
4.28583e-06
4.28803e-06
4.28803e-06
4.28583e-06
4.28144e-06
4.27487e-06
4.26613e-06
4.25525e-06
4.24225e-06
4.22717e-06
4.21005e-06
4.19092e-06
4.16984e-06
4.14686e-06
4.12205e-06
4.09545e-06
4.06714e-06
4.03718e-06
4.00564e-06
3.9726e-06
3.93813e-06
3.90232e-06
3.86523e-06
3.82694e-06
3.78751e-06
3.74696e-06
3.70468e-06
3.55159e-06
3.59267e-06
3.63209e-06
3.67042e-06
3.70766e-06
3.74373e-06
3.77858e-06
3.81212e-06
3.84427e-06
3.87497e-06
3.90413e-06
3.93169e-06
3.95759e-06
3.98176e-06
4.00413e-06
4.02466e-06
4.04329e-06
4.05998e-06
4.07467e-06
4.08733e-06
4.09793e-06
4.10645e-06
4.11285e-06
4.11713e-06
4.11927e-06
4.11927e-06
4.11713e-06
4.11285e-06
4.10645e-06
4.09794e-06
4.08733e-06
4.07467e-06
4.05998e-06
4.0433e-06
4.02466e-06
4.00413e-06
3.98176e-06
3.95759e-06
3.93169e-06
3.90413e-06
3.87497e-06
3.84427e-06
3.81212e-06
3.77858e-06
3.74373e-06
3.70766e-06
3.67042e-06
3.63209e-06
3.59267e-06
3.55159e-06
3.4004e-06
3.44027e-06
3.47854e-06
3.51578e-06
3.55195e-06
3.58701e-06
3.62088e-06
3.65348e-06
3.68474e-06
3.71459e-06
3.74295e-06
3.76975e-06
3.79494e-06
3.81846e-06
3.84023e-06
3.8602e-06
3.87833e-06
3.89457e-06
3.90887e-06
3.92119e-06
3.93151e-06
3.9398e-06
3.94603e-06
3.95019e-06
3.95227e-06
3.95227e-06
3.95019e-06
3.94603e-06
3.9398e-06
3.93151e-06
3.92119e-06
3.90887e-06
3.89457e-06
3.87833e-06
3.8602e-06
3.84023e-06
3.81846e-06
3.79495e-06
3.76976e-06
3.74295e-06
3.71459e-06
3.68474e-06
3.65348e-06
3.62088e-06
3.58701e-06
3.55195e-06
3.51578e-06
3.47854e-06
3.44026e-06
3.4004e-06
3.25118e-06
3.28982e-06
3.32695e-06
3.36308e-06
3.39818e-06
3.43221e-06
3.46509e-06
3.49675e-06
3.52712e-06
3.55611e-06
3.58366e-06
3.6097e-06
3.63418e-06
3.65703e-06
3.67819e-06
3.6976e-06
3.71523e-06
3.73101e-06
3.74491e-06
3.7569e-06
3.76693e-06
3.77498e-06
3.78104e-06
3.78509e-06
3.78712e-06
3.78712e-06
3.78509e-06
3.78104e-06
3.77498e-06
3.76693e-06
3.7569e-06
3.74491e-06
3.73101e-06
3.71523e-06
3.6976e-06
3.67819e-06
3.65703e-06
3.63418e-06
3.6097e-06
3.58366e-06
3.55611e-06
3.52712e-06
3.49675e-06
3.46509e-06
3.43221e-06
3.39818e-06
3.36308e-06
3.32695e-06
3.28982e-06
3.25118e-06
3.10399e-06
3.14141e-06
3.17738e-06
3.21239e-06
3.24642e-06
3.27941e-06
3.3113e-06
3.34201e-06
3.37147e-06
3.39959e-06
3.42633e-06
3.4516e-06
3.47536e-06
3.49754e-06
3.51808e-06
3.53693e-06
3.55405e-06
3.56937e-06
3.58288e-06
3.59451e-06
3.60426e-06
3.61208e-06
3.61797e-06
3.6219e-06
3.62387e-06
3.62387e-06
3.6219e-06
3.61797e-06
3.61208e-06
3.60426e-06
3.59451e-06
3.58288e-06
3.56937e-06
3.55405e-06
3.53693e-06
3.51808e-06
3.49754e-06
3.47536e-06
3.4516e-06
3.42633e-06
3.39959e-06
3.37147e-06
3.34201e-06
3.3113e-06
3.27941e-06
3.24642e-06
3.21239e-06
3.17738e-06
3.14141e-06
3.10399e-06
2.95891e-06
2.9951e-06
3.02991e-06
3.06379e-06
3.09673e-06
3.12869e-06
3.15958e-06
3.18933e-06
3.21787e-06
3.24512e-06
3.27103e-06
3.29553e-06
3.31856e-06
3.34007e-06
3.35999e-06
3.37827e-06
3.39487e-06
3.40974e-06
3.42283e-06
3.43412e-06
3.44358e-06
3.45117e-06
3.45688e-06
3.46069e-06
3.4626e-06
3.4626e-06
3.46069e-06
3.45688e-06
3.45117e-06
3.44358e-06
3.43412e-06
3.42283e-06
3.40974e-06
3.39487e-06
3.37827e-06
3.35999e-06
3.34007e-06
3.31857e-06
3.29553e-06
3.27103e-06
3.24512e-06
3.21787e-06
3.18933e-06
3.15958e-06
3.12869e-06
3.09673e-06
3.06379e-06
3.02991e-06
2.99509e-06
2.95891e-06
2.81602e-06
2.85096e-06
2.8846e-06
2.91735e-06
2.94921e-06
2.98011e-06
3.00999e-06
3.03878e-06
3.0664e-06
3.09277e-06
3.11785e-06
3.14157e-06
3.16387e-06
3.18469e-06
3.20399e-06
3.2217e-06
3.23777e-06
3.25217e-06
3.26486e-06
3.2758e-06
3.28496e-06
3.29232e-06
3.29785e-06
3.30154e-06
3.30339e-06
3.30339e-06
3.30154e-06
3.29785e-06
3.29232e-06
3.28496e-06
3.2758e-06
3.26486e-06
3.25218e-06
3.23777e-06
3.2217e-06
3.20399e-06
3.1847e-06
3.16387e-06
3.14157e-06
3.11785e-06
3.09277e-06
3.0664e-06
3.03878e-06
3.00999e-06
2.98011e-06
2.94921e-06
2.91735e-06
2.8846e-06
2.85096e-06
2.81602e-06
2.67538e-06
2.70908e-06
2.74154e-06
2.77316e-06
2.80391e-06
2.83376e-06
2.86263e-06
2.89045e-06
2.91713e-06
2.94263e-06
2.96687e-06
2.9898e-06
3.01136e-06
3.0315e-06
3.05016e-06
3.06729e-06
3.08284e-06
3.09677e-06
3.10905e-06
3.11963e-06
3.1285e-06
3.13561e-06
3.14097e-06
3.14454e-06
3.14633e-06
3.14633e-06
3.14454e-06
3.14097e-06
3.13561e-06
3.1285e-06
3.11963e-06
3.10905e-06
3.09677e-06
3.08284e-06
3.06729e-06
3.05016e-06
3.0315e-06
3.01136e-06
2.9898e-06
2.96687e-06
2.94263e-06
2.91713e-06
2.89045e-06
2.86263e-06
2.83376e-06
2.80391e-06
2.77316e-06
2.74154e-06
2.70908e-06
2.67538e-06
2.53709e-06
2.56954e-06
2.60082e-06
2.63129e-06
2.66094e-06
2.68973e-06
2.71758e-06
2.74442e-06
2.77017e-06
2.79477e-06
2.81817e-06
2.84031e-06
2.86113e-06
2.88057e-06
2.89859e-06
2.91514e-06
2.93016e-06
2.94362e-06
2.95548e-06
2.96571e-06
2.97427e-06
2.98115e-06
2.98632e-06
2.98977e-06
2.9915e-06
2.9915e-06
2.98977e-06
2.98632e-06
2.98115e-06
2.97427e-06
2.96571e-06
2.95548e-06
2.94362e-06
2.93016e-06
2.91514e-06
2.89859e-06
2.88057e-06
2.86113e-06
2.84031e-06
2.81817e-06
2.79477e-06
2.77017e-06
2.74442e-06
2.71758e-06
2.68973e-06
2.66094e-06
2.63129e-06
2.60082e-06
2.56954e-06
2.53709e-06
2.40123e-06
2.43243e-06
2.46252e-06
2.49184e-06
2.52039e-06
2.5481e-06
2.57493e-06
2.60078e-06
2.62559e-06
2.6493e-06
2.67185e-06
2.69318e-06
2.71325e-06
2.732e-06
2.74938e-06
2.76534e-06
2.77983e-06
2.79281e-06
2.80425e-06
2.81412e-06
2.82238e-06
2.82901e-06
2.834e-06
2.83733e-06
2.839e-06
2.839e-06
2.83733e-06