/*--------------------------------*- C++ -*----------------------------------*\
  =========                 |
  \\      /  F ield         | OpenFOAM: The Open Source CFD Toolbox
   \\    /   O peration     | Website:  https://openfoam.org
    \\  /    A nd           | Version:  7
     \\/     M anipulation  |
\*---------------------------------------------------------------------------*/
FoamFile
{
    version     2.0;
    format      ascii;
    class       surfaceScalarField;
    location    "180000";
    object      phi;
}
// * * * * * * * * * * * * * * * * * * * * * * * * * * * * * * * * * * * * * //

dimensions      [0 3 -1 0 0 0 0];

internalField   nonuniform List<scalar> 
9375
(
-1.18536e-23
1.00706e-22
-5.38275e-25
1.02348e-22
-1.14467e-23
6.62048e-23
6.9348e-25
1.0982e-22
-1.17968e-23
3.88503e-23
1.14263e-22
-1.09042e-23
1.24716e-22
2.23433e-24
2.98597e-23
-3.14174e-24
5.53548e-23
-1.78315e-23
1.0335e-22
-1.7778e-23
1.10828e-22
-1.81612e-23
1.10621e-22
-1.58905e-23
7.94743e-23
-2.56122e-23
2.32977e-23
-2.02429e-23
-1.0334e-23
-1.0567e-23
1.3349e-22
-1.30915e-24
1.49083e-22
-9.61909e-24
1.08256e-22
-6.14466e-25
6.83145e-23
-1.0474e-23
2.82252e-23
-2.15684e-23
1.35766e-22
-1.57264e-23
1.77288e-22
-1.26395e-23
1.35548e-22
-1.29058e-23
1.34485e-22
-5.1691e-24
5.06001e-23
-2.10242e-23
-3.37223e-23
-2.52587e-23
7.54186e-23
-2.96855e-23
4.20287e-23
-1.69319e-23
3.58765e-23
-1.63529e-23
9.90139e-23
-1.83177e-23
7.15665e-23
-8.94442e-24
1.44595e-22
-1.00745e-23
3.41985e-23
-1.3525e-24
7.3034e-23
6.47098e-23
-1.16795e-23
1.65986e-22
2.9061e-24
3.1024e-23
-2.90411e-24
6.21735e-23
-1.76982e-23
9.19104e-23
-1.66325e-23
1.31335e-22
-1.91327e-23
2.25765e-22
-1.52579e-23
1.70662e-22
-2.53874e-23
1.06264e-23
-1.87263e-23
-4.05398e-24
-1.02451e-23
1.69649e-22
-1.07193e-24
1.98955e-22
-1.09901e-23
8.85434e-23
-8.13425e-25
6.32011e-23
-7.67419e-24
1.08399e-23
-2.19591e-23
7.48921e-23
-1.47292e-23
1.62208e-22
-1.35301e-23
1.42917e-22
-1.30998e-23
1.37381e-22
-6.07501e-24
9.37044e-23
-1.9539e-23
-2.87926e-23
-2.59749e-23
1.00858e-22
-2.91217e-23
1.99637e-23
-1.68115e-23
2.46797e-23
-1.62385e-23
1.15434e-22
-1.71651e-23
1.499e-22
-1.09162e-23
6.47378e-23
-8.97279e-24
3.34291e-23
-2.12361e-24
2.60596e-23
9.11308e-24
3.48374e-23
2.85537e-25
-4.02108e-23
4.20893e-24
4.32309e-23
1.42415e-24
3.95272e-25
7.38198e-23
-1.20924e-23
1.47538e-22
3.68121e-24
3.82917e-23
-1.87835e-24
3.36405e-23
-1.66827e-23
1.05039e-22
-1.41447e-23
1.33032e-22
-1.9614e-23
1.79641e-22
-1.78671e-23
1.43373e-22
-2.48054e-23
9.5443e-23
-1.66684e-23
1.15027e-22
-1.02257e-23
1.78956e-22
-1.96949e-24
1.91309e-22
-1.20524e-23
1.06586e-22
-1.40334e-24
5.61105e-23
-5.91313e-24
1.7634e-23
-2.10567e-23
1.81777e-23
-1.34159e-23
1.84635e-22
-1.47559e-23
1.07164e-22
-1.31272e-23
1.75972e-22
-7.38763e-24
9.9704e-23
-1.7842e-23
-1.78881e-23
-2.74553e-23
1.9331e-23
-2.84661e-23
2.35272e-23
-1.54301e-23
7.45904e-24
-1.50437e-23
1.0216e-22
-1.94026e-23
7.5474e-23
-1.03317e-23
1.04132e-22
-9.10121e-24
2.50293e-23
-2.20437e-24
4.81349e-23
9.03726e-24
1.50215e-22
1.17903e-24
-1.59097e-23
4.71603e-24
5.72236e-23
2.42158e-24
1.32395e-23
4.77762e-24
3.70909e-23
1.28339e-23
-4.56378e-23
1.38556e-23
7.98935e-23
-2.47643e-25
-1.2894e-22
8.78213e-24
-7.90771e-23
1.45054e-24
-2.72763e-23
-4.04535e-24
5.4378e-23
-1.13385e-23
-1.24501e-23
1.84679e-24
4.78239e-23
-2.02646e-24
1.00664e-22
3.56374e-24
2.59037e-23
-7.16888e-24
4.06366e-24
8.05729e-24
-1.28941e-23
1.96754e-22
3.63014e-24
7.86082e-23
-5.52684e-25
3.78998e-23
-1.55187e-23
1.28117e-22
-1.29698e-23
1.6667e-22
-1.94412e-23
1.74432e-22
-1.76722e-23
1.51811e-22
-2.40479e-23
1.79021e-22
-1.57169e-23
1.17865e-22
-9.86956e-24
2.05985e-22
-3.25457e-24
2.24958e-22
-1.28858e-23
8.22603e-23
-1.81562e-24
5.06725e-23
-5.11719e-24
6.85012e-23
-1.88272e-23
-4.72436e-23
-1.34444e-23
1.27357e-22
-1.42213e-23
1.33389e-22
-1.40638e-23
1.9437e-22
-8.1666e-24
1.39365e-22
-1.77962e-23
-5.70299e-24
-2.73686e-23
1.40435e-23
-2.86463e-23
2.89145e-23
-1.33732e-23
8.03091e-23
-1.56985e-23
9.12876e-23
-1.96733e-23
8.10809e-23
-1.00551e-23
1.38405e-22
-8.96257e-24
1.68519e-23
-7.40233e-25
1.00905e-22
7.18603e-24
1.58417e-22
2.36667e-24
3.00955e-23
4.4452e-24
-1.34606e-23
2.33358e-24
6.02751e-23
4.18597e-24
4.80825e-23
1.37993e-23
-1.82831e-23
1.18209e-23
7.78247e-23
7.65871e-26
-1.15925e-22
9.87919e-24
-6.99793e-23
1.90961e-24
-2.0284e-23
-2.99451e-24
2.91085e-23
-1.09485e-23
-7.61167e-25
2.13932e-24
2.8139e-23
-2.38998e-24
2.72548e-23
1.26008e-24
3.06606e-23
-6.62589e-24
9.47046e-23
5.54723e-23
-1.22018e-23
2.00439e-22
2.9327e-24
1.62641e-22
1.78921e-25
4.09105e-23
-1.44279e-23
1.88774e-22
-1.32026e-23
1.66029e-22
-2.04085e-23
1.67148e-22
-1.56889e-23
2.08114e-22
-2.49205e-23
1.71636e-22
-1.59551e-23
1.01373e-22
-9.39493e-24
1.95863e-22
-3.97974e-24
2.35528e-22
-1.25384e-23
8.40288e-23
-2.72922e-24
7.06714e-23
-5.31985e-24
1.06369e-22
-1.6775e-23
-3.0525e-23
-1.2353e-23
1.18289e-22
-1.36511e-23
9.23648e-23
-1.47068e-23
1.63276e-22
-9.46117e-24
1.39733e-22
-1.76873e-23
1.08808e-23
-2.7691e-23
9.45728e-24
-2.76912e-23
2.94056e-23
-1.25858e-23
5.58557e-23
-1.60138e-23
6.15845e-23
-1.94995e-23
9.00967e-23
-9.99142e-24
1.77932e-22
-8.18022e-24
2.513e-23
1.19547e-25
1.70859e-22
4.81475e-24
1.34754e-22
1.44076e-24
3.86138e-23
6.49856e-24
-4.22537e-24
1.88953e-24
-1.19171e-23
4.36591e-24
3.93436e-23
1.53966e-23
-3.42746e-23
1.05428e-23
5.94878e-23
1.24859e-24
-9.572e-23
1.04969e-23
-5.46927e-23
1.61065e-24
-5.23048e-23
-1.33226e-24
3.19593e-23
-1.04602e-23
1.5899e-23
2.26387e-24
4.98743e-23
-2.47134e-24
4.39853e-24
2.26878e-24
6.65135e-23
-7.43858e-24
1.06532e-22
6.03069e-23
-1.27632e-23
1.99928e-22
2.35648e-24
1.71622e-22
1.47503e-24
4.3241e-23
-1.35238e-23
1.22036e-22
-1.10468e-23
1.36591e-22
-1.98267e-23
4.53931e-23
-1.58004e-23
1.95465e-22
-2.44567e-23
1.58346e-22
-1.48282e-23
7.17456e-23
-9.01017e-24
2.14558e-22
-5.206e-24
2.49367e-22
-1.30809e-23
6.38789e-23
-2.47577e-24
6.35138e-23
-5.86309e-24
1.3409e-22
-1.53745e-23
-1.64518e-23
-1.09386e-23
1.30814e-22
-1.32668e-23
9.34654e-23
-1.51185e-23
1.28796e-22
-1.0643e-23
1.39941e-22
-1.73865e-23
-8.20408e-24
-2.81496e-23
1.38855e-23
-2.69731e-23
1.07021e-22
-1.17605e-23
1.18662e-22
-1.61522e-23
5.84e-23
-1.88112e-23
9.64651e-23
-1.02656e-23
1.88065e-22
-7.56408e-24
1.68014e-23
1.77285e-25
1.58963e-22
3.97236e-24
1.13654e-22
6.50181e-25
3.82702e-23
5.86518e-24
4.54839e-23
2.7211e-24
-3.21957e-24
3.32905e-24
2.80254e-23
1.61332e-23
-3.17178e-23
9.72605e-24
6.59713e-23
-5.67522e-25
-4.81693e-24
1.04074e-23
4.21694e-23
2.5906e-24
-1.50574e-23
-6.28577e-25
2.99486e-23
-9.81706e-24
2.66521e-23
2.06966e-24
3.18273e-23
-2.1978e-24
3.42022e-23
1.68222e-24
7.1653e-23
-7.1964e-24
1.19639e-22
2.53119e-23
-1.13323e-23
1.06542e-22
2.34407e-24
1.72929e-22
1.53428e-24
4.273e-23
-1.31943e-23
8.98399e-23
-1.12683e-23
1.23952e-22
-1.83118e-23
8.48704e-23
-1.63443e-23
1.42461e-22
-2.42381e-23
1.44436e-22
-1.39904e-23
1.25327e-22
-8.39278e-24
2.0795e-22
-7.1045e-24
1.75715e-22
-1.27494e-23
4.98487e-23
-2.19994e-24
5.71899e-23
-6.42839e-24
1.41186e-22
-1.4147e-23
-2.21399e-23
-1.02868e-23
1.2345e-22
-1.33712e-23
6.70687e-23
-1.49268e-23
1.3698e-22
-1.19806e-23
9.66668e-23
-1.65676e-23
-2.89634e-23
-2.75992e-23
-1.64008e-23
-2.70184e-23
1.3553e-22
-1.20494e-23
1.7903e-22
-1.57981e-23
6.67868e-23
-1.81539e-23
6.19377e-23
-1.0794e-23
1.47056e-22
-6.79809e-24
7.49399e-24
9.28219e-25
1.82088e-22
2.05492e-24
6.71292e-23
1.28407e-24
1.12132e-22
5.38967e-24
5.73872e-23
3.34848e-24
4.58829e-23
2.42941e-24
2.6144e-23
1.72013e-23
1.97659e-23
1.0668e-23
5.65918e-23
-1.88051e-25
-6.03319e-23
9.30209e-24
6.85536e-23
3.33902e-24
-1.03508e-23
-1.64459e-24
3.28171e-23
-9.8984e-24
6.39763e-23
2.31594e-24
9.77864e-23
-2.15586e-24
5.17898e-23
1.56443e-24
8.03189e-23
-8.09093e-24
1.32773e-22
-2.62853e-23
-1.07314e-23
1.77473e-22
1.93331e-24
1.99919e-22
9.46196e-25
4.39808e-23
-1.27227e-23
6.2799e-23
-9.98421e-24
1.12558e-22
-1.68774e-23
1.25028e-23
-1.57284e-23
1.03472e-22
-2.39568e-23
1.58648e-22
-1.3475e-23
1.73396e-22
-8.79097e-24
1.98827e-22
-8.5067e-24
2.25081e-22
-1.22994e-23
5.20506e-23
-1.31826e-24
7.4375e-23
-7.30324e-24
1.07224e-22
-1.28363e-23
-1.45175e-23
-1.02268e-23
7.96719e-23
-1.26614e-23
7.11601e-23
-1.57145e-23
1.10981e-22
-1.28286e-23
9.21564e-23
-1.60552e-23
-1.58277e-23
-2.62385e-23
-8.67279e-24
-2.62406e-23
9.72699e-23
-1.28119e-23
1.57199e-22
-1.58928e-23
9.96308e-23
-1.77882e-23
6.74831e-23
-1.08576e-23
1.38194e-22
-6.33574e-24
4.17139e-23
1.4674e-25
1.74884e-22
2.50662e-24
2.18685e-23
7.89642e-25
8.17805e-23
5.49804e-24
6.22363e-23
2.91867e-24
-2.60699e-23
2.87223e-24
-4.47495e-24
1.67081e-23
4.76641e-23
9.85471e-24
2.54633e-23
9.4731e-25
-5.63468e-24
9.55614e-24
4.02087e-23
3.47334e-24
-3.94327e-24
-3.62083e-25
3.18165e-23
-9.69025e-24
-6.14034e-24
1.9775e-24
8.91199e-23
-1.9655e-24
1.05378e-22
2.07136e-24
8.47894e-23
-8.50605e-24
5.95072e-23
-2.80929e-23
-9.86347e-24
2.04818e-22
1.69642e-24
1.91164e-22
1.25258e-24
3.72738e-23
-1.19852e-23
3.46703e-23
-1.0522e-23
6.87093e-23
-1.4759e-23
2.86375e-23
-1.47796e-23
8.5398e-23
-2.33936e-23
1.54898e-22
-1.41825e-23
2.3388e-22
-8.66851e-24
1.92693e-22
-9.82659e-24
1.4718e-22
-1.21832e-23
9.90282e-24
-1.27286e-24
1.43051e-22
-7.74409e-24
1.28411e-22
-1.17562e-23
1.31695e-24
-9.22838e-24
7.53519e-23
-1.23346e-23
1.07674e-22
-1.60609e-23
1.27043e-22
-1.38023e-23
8.24493e-23
-1.54059e-23
6.90954e-24
-2.54366e-23
-1.14339e-23
-2.53398e-23
9.62372e-23
-1.32774e-23
1.38087e-22
-1.64002e-23
1.10943e-22
-1.80159e-23
3.273e-23
-1.0227e-23
1.54358e-22
-6.0952e-24
4.18408e-23
-5.07963e-25
1.62846e-22
2.97887e-24
4.70709e-23
1.0071e-24
3.56635e-23
4.46098e-24
6.4925e-23
3.19633e-24
-1.12707e-23
4.43865e-24
1.21545e-23
1.50005e-23
-7.06205e-24
1.13799e-23
5.56791e-23
4.38103e-25
-6.43414e-23
8.75844e-24
9.94595e-23
4.03025e-24
1.81292e-23
-4.87355e-25
2.74995e-23
-9.39336e-24
-3.00451e-23
1.32385e-24
8.69445e-23
-1.30625e-24
7.32639e-23
1.87544e-24
4.02102e-23
-9.41168e-24
-7.03803e-23
-2.98359e-23
-8.68092e-24
2.01596e-22
9.2019e-25
1.83779e-22
9.42261e-25
1.18781e-22
-1.25599e-23
4.4014e-23
-1.07101e-23
6.32703e-23
-1.24929e-23
6.82292e-23
-1.53519e-23
4.86369e-23
-2.12653e-23
1.29498e-22
-1.51625e-23
1.75777e-22
-9.50174e-24
1.85287e-22
-1.07051e-23
1.62019e-22
-1.09995e-23
3.39754e-23
-1.05783e-24
2.03269e-22
-8.82969e-24
1.02053e-22
-1.1181e-23
4.68358e-23
-8.33011e-24
7.37863e-23
-1.22897e-23
1.12876e-22
-1.62353e-23
1.41581e-22
-1.45288e-23
1.06567e-22
-1.51636e-23
1.79842e-23
-2.45709e-23
5.13075e-24
-2.48098e-23
9.20998e-23
-1.284e-23
1.58644e-22
-1.73227e-23
5.11187e-23
-1.76353e-23
3.43685e-23
-1.02131e-23
1.34623e-22
-5.59089e-24
4.73426e-23
-6.02497e-25
1.54917e-22
2.88621e-24
6.20635e-23
8.47494e-25
-5.05462e-23
4.15379e-24
6.58247e-23
3.75696e-24
-8.69603e-23
3.64821e-24
-5.55335e-24
1.66662e-23
-3.10385e-23
1.08446e-23
-3.60035e-23
2.07955e-24
-3.85182e-23
8.33521e-24
1.09553e-22
3.92396e-24
-7.48859e-24
-3.39554e-25
-5.79593e-23
-8.12067e-24
-6.50795e-23
2.60235e-24
1.06681e-22
-2.29134e-24
2.51833e-23
3.99793e-25
3.98739e-23
-8.55276e-24
-1.86882e-23
-4.76526e-24
-7.93339e-24
2.37249e-22
2.92729e-25
1.65518e-22
5.08568e-25
1.06908e-22
-1.24061e-23
6.68206e-23
-9.80751e-24
6.25704e-23
-1.1253e-23
6.94191e-23
-1.53721e-23
5.21919e-23
-1.97453e-23
1.58225e-22
-1.58028e-23
1.25814e-22
-1.00858e-23
1.79505e-22
-1.08895e-23
1.72467e-22
-9.33457e-24
2.19279e-23
-1.79425e-24
1.77746e-22
-8.95133e-24
9.25942e-23
-1.11021e-23
4.57656e-23
-7.01233e-24
7.20773e-23
-1.20248e-23
9.89355e-23
-1.63315e-23
7.29296e-23
-1.55067e-23
7.11074e-23
-1.47476e-23
6.55698e-23
-2.40691e-23
5.63263e-23
-2.37302e-23
8.01683e-23
-1.41957e-23
1.47243e-22
-1.70632e-23
6.14328e-23
-1.75075e-23
2.49681e-24
-9.79327e-24
1.08797e-22
-6.13267e-24
2.90212e-23
-2.23317e-25
1.86326e-22
6.89183e-25
6.40395e-23
2.24155e-24
-2.37913e-23
2.77594e-24
6.85858e-23
5.0737e-24
2.86817e-24
2.82161e-24
3.33925e-23
1.69009e-23
2.12742e-23
1.18717e-23
-5.1331e-24
3.13432e-24
-1.79489e-23
7.4607e-24
7.68506e-23
3.89629e-24
-6.86636e-24
-1.39478e-24
-1.80042e-23
-6.17112e-24
-9.59127e-23
2.21187e-24
1.07864e-22
-2.40757e-24
1.69596e-23
9.10421e-26
4.41722e-23
-7.53654e-24
-8.21858e-24
-1.06849e-23
-8.26111e-24
2.20719e-22
3.81888e-25
2.30454e-22
3.6179e-25
1.05761e-22
-1.1988e-23
6.85887e-23
-9.7572e-24
5.96636e-23
-9.32656e-24
7.65824e-23
-1.52743e-23
2.4688e-23
-1.92423e-23
2.01695e-22
-1.52389e-23
1.19857e-22
-1.07382e-23
1.80325e-22
-1.14821e-23
1.78609e-22
-8.30256e-24
6.9189e-23
-2.56389e-24
1.2228e-22
-9.07083e-24
8.50555e-23
-1.11484e-23
6.39639e-24
-6.18251e-24
1.07223e-22
-1.25795e-23
1.09759e-22
-1.58561e-23
9.16292e-23
-1.55859e-23
6.60852e-23
-1.44143e-23
7.35817e-23
-2.39288e-23
5.1253e-23
-2.28912e-23
7.34085e-23
-1.52456e-23
1.09539e-22
-1.713e-23
7.2265e-23
-1.6725e-23
3.30755e-23
-9.60151e-24
1.27567e-22
-5.0783e-24
7.10209e-23
-1.06675e-24
2.25881e-22
-2.02562e-25
6.9265e-23
2.63049e-24
-3.50947e-23
2.80785e-24
7.18007e-23
5.4971e-24
5.06784e-23
1.75916e-24
-4.17211e-23
1.73626e-23
1.34121e-22
1.22271e-23
-1.25212e-24
3.51823e-24
9.13145e-25
8.45532e-24
7.6127e-23
2.34017e-24
-5.91351e-24
-7.71515e-25
-9.99944e-23
-5.00935e-24
-2.60771e-23
1.91514e-24
1.5131e-22
-2.93999e-24
3.26686e-23
-2.92638e-25
9.00172e-23
-7.98758e-24
-3.99677e-24
6.07461e-23
-1.15489e-23
-6.38929e-24
-7.23852e-24
3.01466e-22
-4.98581e-25
1.36003e-22
1.03157e-24
9.9809e-23
-1.19147e-23
4.10423e-23
-9.77002e-24
9.33443e-23
-8.29735e-24
1.63652e-22
-1.4278e-23
-7.09357e-24
-1.89633e-23
1.74145e-22
-1.49651e-23
3.79186e-23
-1.03793e-23
1.01409e-22
-1.19439e-23
1.85156e-22
-8.20032e-24
8.72253e-23
-2.36576e-24
1.90743e-22
-9.3757e-24
9.58675e-23
-1.01474e-23
7.40658e-23
-5.73898e-24
1.1641e-22
-1.27821e-23
1.2709e-22
-1.54623e-23
1.36172e-22
-1.58584e-23
6.30113e-23
-1.42995e-23
8.26383e-23
-2.36284e-23
3.18964e-23
-2.27484e-23
3.67493e-23
-1.56973e-23
6.80648e-23
-1.72123e-23
8.06208e-23
-1.62476e-23
4.86227e-23
-9.45884e-24
1.25371e-22
-4.09814e-24
7.66822e-23
-2.13006e-24
1.34392e-22
-1.3237e-24
9.61307e-23
3.34792e-24
-4.39606e-23
3.04825e-24
7.13565e-23
4.1655e-24
9.75552e-23
3.20598e-24
-3.03797e-23
1.58701e-23
1.24928e-22
1.29256e-23
-2.48812e-23
4.76661e-24
-4.94513e-23
8.2892e-24
9.5694e-23
1.1861e-24
7.43587e-26
2.33846e-25
-2.42036e-23
-4.64124e-24
-1.01167e-22
1.53829e-24
1.51269e-22
-3.93995e-24
4.74963e-23
-6.23641e-25
1.49433e-22
-8.97856e-24
1.5597e-24
6.65907e-23
-9.73133e-24
4.469e-23
-7.90741e-24
2.6055e-22
-5.30903e-26
2.07036e-22
9.56506e-25
9.36072e-23
-1.16053e-23
4.06625e-23
-8.45211e-24
8.58452e-23
-9.55948e-24
1.68659e-22
-1.30498e-23
-3.13188e-24
-1.89283e-23
1.84682e-22
-1.52354e-23
4.16787e-23
-9.49487e-24
1.06706e-22
-1.24502e-23
1.94241e-22
-7.54238e-24
1.51241e-22
-3.03538e-24
1.77544e-22
-9.00009e-24
8.95841e-23
-9.93785e-24
6.50868e-23
-5.33774e-24
1.32401e-22
-1.24036e-23
1.31288e-22
-1.57776e-23
1.08809e-22
-1.58296e-23
1.05329e-22
-1.42196e-23
1.25321e-22
-2.34634e-23
2.44706e-23
-2.27549e-23
6.58118e-23
-1.55223e-23
1.38179e-22
-1.71291e-23
9.13374e-23
-1.60954e-23
5.74563e-23
-9.12295e-24
1.38728e-22
-4.35099e-24
4.42822e-23
-1.67239e-24
1.26158e-22
-2.80194e-24
7.98413e-23
5.1637e-24
7.09755e-23
2.20246e-24
8.20078e-23
4.44166e-24
1.02783e-22
4.06956e-24
-2.33819e-23
1.50471e-23
1.18206e-22
1.251e-23
-3.55067e-23
5.88952e-24
-2.0517e-24
7.95766e-24
3.26184e-23
1.18833e-24
-7.92483e-23
-9.03192e-26
-7.01699e-23
-2.85641e-24
-8.21063e-23
1.66588e-24
1.5224e-22
-2.91397e-24
-6.4045e-24
-1.37586e-24
9.02483e-23
-8.51821e-24
7.10477e-24
6.84178e-23
-9.35967e-24
1.08484e-22
-7.32796e-24
2.65252e-22
-1.03442e-24
1.98631e-22
1.10585e-24
8.59259e-23
-1.09857e-23
2.55056e-24
-8.3527e-24
7.94318e-23
-9.1824e-24
1.74157e-22
-1.25741e-23
-1.16034e-24
-1.94981e-23
1.11905e-22
-1.49692e-23
5.8894e-23
-8.86415e-24
1.43766e-22
-1.23608e-23
1.33736e-22
-7.45871e-24
1.36275e-22
-3.58877e-24
1.73993e-22
-8.46086e-24
1.03744e-22
-9.30883e-24
6.52009e-23
-5.54723e-24
8.48733e-23
-1.22031e-23
1.44874e-22
-1.54023e-23
1.1265e-22
-1.6069e-23
1.05247e-22
-1.48941e-23
9.68014e-23
-2.27123e-23
4.99953e-23
-2.21592e-23
2.99486e-23
-1.58379e-23
1.19368e-22
-1.6704e-23
9.6301e-23
-1.60932e-23
9.5626e-23
-9.39156e-24
1.34104e-22
-3.9115e-24
4.19337e-23
-2.50315e-24
1.24029e-22
-1.98066e-24
8.7614e-23
4.90227e-24
1.25952e-22
2.75297e-24
8.55095e-23
3.83492e-24
1.37737e-22
4.98491e-24
1.55994e-23
1.42754e-23
1.11386e-22
1.24587e-23
-4.66115e-23
6.99923e-24
3.5832e-23
7.59425e-24
2.77565e-23
8.14819e-25
-7.27982e-23
1.80704e-25
-7.17493e-23
-1.0005e-24
-7.64996e-23
1.06171e-24
7.68478e-23
-3.51634e-24
-7.70699e-23
-6.10937e-25
9.42825e-23
-9.79745e-24
-2.28401e-23
8.06248e-23
-2.056e-23
2.27423e-22
-8.44081e-24
9.33052e-23
-6.89097e-24
2.7258e-22
-1.87853e-24
1.89786e-22
1.12233e-24
7.76282e-23
-1.04678e-23
5.80074e-24
-6.22365e-24
7.29466e-23
-9.3532e-24
1.41063e-22
-1.24563e-23
5.49968e-24
-1.91378e-23
1.20606e-22
-1.46132e-23
6.00048e-23
-8.2765e-24
1.84166e-22
-1.13572e-23
1.7878e-22
-6.90289e-24
1.20766e-22
-3.52483e-24
1.69191e-22
-8.83258e-24
8.81883e-23
-9.04313e-24
6.33042e-23
-5.08176e-24
8.15972e-23
-1.21345e-23
1.57825e-22
-1.5203e-23
1.40612e-22
-1.64131e-23
1.2593e-22
-1.48652e-23
9.44779e-23
-2.25152e-23
-1.90993e-23
-2.16701e-23
3.26217e-23
-1.61273e-23
1.15404e-22
-1.61491e-23
9.44044e-23
-1.58112e-23
3.55011e-23
-1.01774e-23
1.18359e-22
-3.32534e-24
5.69226e-23
-3.21543e-24
1.21232e-22
-1.77807e-24
1.30021e-22
4.34613e-24
1.15218e-22
2.70508e-24
2.62215e-23
3.5793e-24
1.55193e-22
5.03098e-24
1.88437e-23
1.36098e-23
1.44754e-22
1.27653e-23
-5.33586e-23
6.17881e-24
3.99972e-23
7.35951e-24
2.24941e-23
6.19859e-25
-6.341e-23
5.92412e-25
-7.17742e-23
-9.17197e-25
-6.56216e-23
1.56116e-24
3.87857e-23
-2.93538e-24
-7.15897e-23
-6.40078e-25
1.7546e-22
-9.62835e-24
-1.90233e-23
1.23492e-22
-2.01142e-23
2.21328e-22
-8.48077e-24
1.56526e-22
-6.74966e-24
2.71937e-22
-3.02419e-24
1.85014e-22
1.13324e-24
1.13458e-22
-9.99861e-24
-3.02438e-23
-5.82849e-24
1.45158e-22
-8.37617e-24
1.47787e-22
-1.27667e-23
1.5081e-23
-1.79758e-23
1.28301e-22
-1.43829e-23
6.1265e-23
-7.80606e-24
2.43143e-22
-1.18623e-23
1.39472e-22
-6.76374e-24
1.14226e-22
-3.83105e-24
1.69492e-22
-9.22717e-24
6.80269e-23
-8.61617e-24
1.03693e-22
-4.52931e-24
7.88267e-23
-1.14632e-23
1.64118e-22
-1.53787e-23
9.7696e-23
-1.68221e-23
1.25134e-22
-1.57734e-23
7.48271e-23
-2.14328e-23
-6.52334e-24
-2.12532e-23
-2.65398e-23
-1.61637e-23
1.27837e-22
-1.65296e-23
9.55063e-23
-1.5003e-23
3.87622e-23
-1.0822e-23
3.77349e-23
-2.55385e-24
1.16462e-22
-2.80981e-24
1.17121e-22
-1.31423e-24
1.26424e-22
4.09198e-24
1.07247e-22
2.85086e-24
-3.58308e-23
3.47233e-24
1.54615e-22
4.7985e-24
1.86786e-23
1.29218e-23
1.37432e-22
1.28465e-23
-9.65786e-23
6.07112e-24
-1.45891e-23
7.54653e-24
2.04519e-23
1.15792e-25
-5.10293e-23
1.66625e-24
-6.89934e-23
-6.96241e-25
-5.30437e-23
1.35202e-24
8.92409e-23
-1.60707e-24
-6.88595e-23
-5.86366e-25
1.42143e-22
-1.04376e-23
-2.88186e-23
1.42685e-22
-2.33961e-23
-5.19294e-23
-1.98872e-23
1.02317e-22
-8.10716e-24
1.40108e-22
-6.28777e-24
2.70754e-22
-3.78612e-24
1.96388e-22
1.45099e-24
1.86384e-22
-8.92622e-24
-2.48455e-23
-5.55594e-24
1.37923e-22
-9.25305e-24
1.18973e-22
-1.24673e-23
2.54041e-23
-1.78562e-23
1.36426e-22
-1.35812e-23
7.53826e-23
-8.22081e-24
2.26705e-22
-1.19536e-23
1.01083e-22
-6.07331e-24
1.53291e-22
-4.22327e-24
1.32699e-22
-9.25568e-24
6.57485e-23
-8.26889e-24
1.04177e-22
-4.08246e-24
1.14874e-22
-1.14154e-23
8.448e-23
-1.51167e-23
5.52295e-23
-1.71792e-23
1.33063e-22
-1.63748e-23
6.47455e-23
-2.11897e-23
9.7259e-24
-2.02203e-23
-1.74959e-23
-1.63828e-23
1.24776e-22
-1.63882e-23
1.37821e-22
-1.52821e-23
4.31903e-23
-1.02455e-23
4.21179e-23
-2.29904e-24
1.09078e-22
-2.48397e-24
1.153e-22
-1.905e-24
1.19315e-22
3.8796e-24
1.39021e-22
3.50228e-24
-1.83462e-23
3.84173e-24
1.4067e-22
5.47285e-24
2.02971e-23
1.19772e-23
1.32335e-22
1.32277e-23
-2.52945e-23
6.31276e-24
-5.67758e-23
7.48634e-24
6.21068e-23
-4.98631e-25
-4.03999e-23
1.66253e-24
-6.34784e-23
2.07683e-25
-3.98543e-23
1.13841e-24
9.92271e-23
-8.80529e-25
7.65446e-23
-1.081e-24
1.4836e-22
-9.7183e-24
-2.17234e-23
1.03662e-22
-2.3701e-23
-4.68905e-23
-1.77085e-23
9.72053e-23
-7.76072e-24
1.10962e-22
-5.90025e-24
2.53393e-22
-3.79948e-24
1.22387e-22
1.25937e-24
1.41113e-22
-7.94109e-24
-2.11367e-23
-5.50572e-24
1.29176e-22
-8.94651e-24
6.32513e-23
-1.18116e-23
3.65919e-23
-1.77138e-23
6.59529e-23
-1.2329e-23
7.88202e-23
-8.67136e-24
2.27433e-22
-1.22409e-23
6.25399e-23
-6.07422e-24
1.49871e-22
-4.00833e-24
1.39987e-22
-9.32696e-24
6.5879e-23
-7.64001e-24
1.03928e-22
-4.54018e-24
1.28142e-22
-1.10136e-23
8.59569e-23
-1.46101e-23
4.63067e-23
-1.76315e-23
7.6173e-23
-1.67948e-23
5.11816e-23
-2.101e-23
2.00156e-23
-1.92173e-23
-1.01025e-23
-1.62819e-23
7.62127e-23
-1.67389e-23
1.36756e-22
-1.54336e-23
7.34543e-24
-9.71556e-24
4.73453e-23
-2.02629e-24
1.05162e-22
-2.3582e-24
1.12714e-22
-1.23892e-24
1.15605e-22
3.09651e-24
1.78216e-22
4.00056e-24
-1.63512e-23
3.31697e-24
1.4193e-22
5.63059e-24
6.12424e-23
1.10206e-23
1.64478e-22
1.29479e-23
3.08818e-23
7.4882e-24
-2.00873e-23
6.99605e-24
6.53515e-23
-8.39598e-25
-1.92413e-23
1.61341e-24
1.8137e-23
9.74073e-25
1.13741e-23
1.36655e-24
1.09336e-22
-1.57075e-24
7.85291e-23
-1.38303e-24
1.54523e-22
-1.02161e-23
7.27278e-24
5.2827e-23
-2.37548e-23
-4.33119e-23
-1.68054e-23
8.71767e-23
-7.35445e-24
1.00881e-22
-5.99215e-24
2.54061e-22
-4.15016e-24
1.72488e-22
1.36067e-24
1.35574e-22
-7.29908e-24
-8.83932e-23
-5.719e-24
1.22064e-22
-8.13278e-24
7.59824e-23
-1.17425e-23
-3.30337e-23
-1.7004e-23
7.18533e-23
-1.15384e-23
8.22181e-23
-9.18544e-24
1.9487e-22
-1.12895e-23
6.30038e-23
-6.14344e-24
1.89395e-22
-3.52351e-24
1.32846e-22
-9.62639e-24
7.97585e-23
-6.86137e-24
1.40715e-22
-5.12389e-24
1.30892e-22
-1.07469e-23
8.49542e-23
-1.46041e-23
4.18181e-23
-1.73439e-23
8.2847e-23
-1.71325e-23
2.55404e-23
-2.07045e-23
2.96937e-23
-1.8695e-23
6.42696e-24
-1.5845e-23
7.06296e-23
-1.73793e-23
1.26951e-22
-1.50744e-23
1.17287e-23
-9.63711e-24
6.6266e-23
-1.64507e-24
9.45563e-23
-2.39069e-24
1.10115e-22
-1.68061e-24
7.39477e-23
2.20411e-24
1.81905e-22
4.5645e-24
-1.96185e-23
3.65814e-24
1.47906e-22
5.23652e-24
2.91475e-23
1.07715e-23
1.93897e-22
1.21986e-23
2.2509e-23
8.1848e-24
-2.27294e-23
7.63905e-24
7.06207e-23
-1.40387e-24
-4.52334e-23
2.18249e-24
2.49793e-23
1.92405e-24
6.18024e-23
1.91508e-24
1.16965e-22
-2.13287e-24
7.73603e-23
-1.91709e-24
1.21495e-22
-1.1896e-23
4.18987e-23
1.1197e-22
-2.38825e-23
-7.50883e-23
-1.56383e-23
1.50012e-22
-6.5947e-24
9.19629e-23
-6.12431e-24
2.18191e-22
-4.34093e-24
1.7116e-22
1.48346e-24
1.64549e-22
-6.88819e-24
-8.04608e-23
-5.42979e-24
1.57869e-22
-8.31725e-24
3.05867e-23
-1.16977e-23
-4.52714e-23
-1.61554e-23
7.77042e-23
-1.13412e-23
9.28007e-23
-9.09206e-24
1.98459e-22
-1.13965e-23
6.56394e-23
-6.0611e-24
1.48856e-22
-3.38523e-24
1.36232e-22
-9.42996e-24
8.69413e-23
-6.64964e-24
2.005e-22
-5.23019e-24
1.36776e-22
-1.07549e-23
8.08343e-23
-1.46502e-23
4.00608e-23
-1.7116e-23
8.75747e-23
-1.7322e-23
5.55273e-23
-2.04387e-23
3.65034e-23
-1.82585e-23
1.23704e-23
-1.56653e-23
6.75097e-23
-1.77915e-23
1.24446e-22
-1.4677e-23
1.92641e-23
-9.54658e-24
3.47684e-23
-8.5353e-25
1.22721e-22
-2.7665e-24
1.07361e-22
-1.225e-24
8.45768e-23
1.09703e-24
1.85376e-22
5.41002e-24
-2.49212e-23
4.65633e-24
1.52749e-22
5.23472e-24
3.53584e-23
9.83152e-24
2.32328e-22
1.28886e-23
9.46897e-23
8.02399e-24
-5.22334e-23
7.23319e-24
3.91899e-23
-4.04167e-25
-7.40853e-23
2.37064e-24
3.37256e-23
2.07969e-24
8.34817e-23
2.37582e-24
1.20421e-22
-2.94664e-24
4.64636e-24
-1.69567e-24
1.2383e-22
-1.2166e-23
9.8135e-23
1.08332e-22
-2.38277e-23
-2.89559e-23
-1.48042e-23
2.82316e-22
-5.83076e-24
8.23589e-23
-5.7849e-24
2.17436e-22
-4.23524e-24
9.81701e-23
6.09137e-25
8.38015e-23
-6.4275e-24
-1.1717e-22
-5.10428e-24
1.52961e-22
-8.29886e-24
-3.94024e-23
-1.07252e-23
-8.48964e-23
-1.56145e-23
1.19261e-22
-1.04241e-23
9.40407e-23
-9.695e-24
1.25518e-22
-1.12034e-23
4.74817e-23
-6.13279e-24
8.15524e-23
-3.036e-24
1.42061e-22
-8.79812e-24
9.35536e-23
-6.78779e-24
1.73115e-22
-5.51514e-24
1.3639e-22
-1.07721e-23
7.85525e-23
-1.46411e-23
4.16449e-23
-1.66364e-23
8.76123e-23
-1.77377e-23
3.29299e-23
-2.01337e-23
4.3085e-23
-1.78145e-23
1.49101e-23
-1.55959e-23
2.90322e-23
-1.77711e-23
1.21049e-22
-1.49682e-23
2.30053e-23
-8.607e-24
8.11573e-23
-1.01688e-24
1.11205e-22
-2.40576e-24
1.05195e-22
-9.31735e-25
7.51893e-23
5.77289e-25
2.01996e-22
5.63443e-24
4.87506e-23
4.95828e-24
1.96525e-22
5.38382e-24
-3.13578e-23
8.75164e-24
2.4402e-22
1.25735e-23
1.5275e-22
8.43175e-24
-4.56858e-23
7.86197e-24
8.79865e-23
-4.33346e-25
-1.38904e-22
2.52519e-24
1.17974e-22
2.47978e-24
9.10397e-23
1.8095e-24
1.24768e-22
-2.55806e-24
-6.36017e-23
-1.55397e-24
1.30556e-22
-1.26641e-23
6.05894e-23
4.47106e-23
-2.66185e-23
1.10952e-22
-2.21727e-23
8.95877e-23
-1.57004e-23
2.77695e-22
-4.98571e-24
1.49302e-22
-6.07816e-24
1.53975e-22
-4.93215e-24
1.03299e-22
1.00093e-24
1.21873e-22
-4.78855e-24
-1.11463e-22
-5.70013e-24
2.13534e-22
-8.18835e-24
-3.66442e-23
-9.41974e-24
-3.96364e-23
-1.60923e-23
1.25871e-22
-1.01152e-23
1.68474e-22
-9.52277e-24
1.26151e-22
-1.17787e-23
-1.60071e-23
-5.2306e-24
7.91565e-23
-2.69595e-24
1.00385e-22
-8.27706e-24
9.92124e-23
-7.10878e-24
1.61305e-22
-5.70959e-24
1.35405e-22
-1.08851e-23
4.12066e-23
-1.45343e-23
4.51978e-23
-1.62338e-23
1.22838e-22
-1.80524e-23
2.14948e-23
-2.00478e-23
4.64339e-23
-1.74131e-23
1.8198e-23
-1.54257e-23
3.32184e-23
-1.78631e-23
1.1102e-22
-1.44751e-23
-4.39839e-23
-8.59211e-24
8.53433e-23
-4.94137e-25
1.03355e-22
-2.6898e-24
1.06839e-22
-4.83542e-25
6.38128e-23
3.31088e-25
1.89411e-22
6.21047e-24
1.42909e-23
3.80483e-24
1.36727e-22
7.0826e-24
-2.44361e-23
9.1096e-24
2.49022e-22
1.06956e-23
1.52343e-22
8.68849e-24
-8.16161e-23
7.17591e-24
1.00232e-22
9.87987e-25
-1.32389e-22
3.10292e-24
1.24912e-22
2.27516e-24
1.57887e-22
1.11728e-24
5.92883e-23
-1.84719e-24
-5.91246e-23
-1.7364e-24
2.54797e-23
-1.32877e-23
6.58481e-23
4.99121e-23
-1.97207e-23
1.12399e-22
-2.56407e-23
1.55367e-22
-2.22204e-23
8.87094e-23
-1.58373e-23
2.52755e-22
-5.1736e-24
1.58974e-22
-6.06965e-24
9.68439e-23
-4.53396e-24
1.04877e-22
1.13761e-24
1.26712e-22
-3.74919e-24
-1.01018e-22
-6.07824e-24
2.09584e-22
-7.82055e-24
-5.144e-23
-8.63456e-24
-1.1015e-24
-1.56666e-23
5.36901e-23
-1.07046e-23
9.76488e-23
-9.5196e-24
1.65244e-22
-1.17894e-23
-9.52037e-24
-4.2428e-24
7.22683e-23
-1.95221e-24
1.01662e-22
-8.15136e-24
1.03782e-22
-6.79577e-24
1.50121e-22
-6.29184e-24
1.36993e-22
-1.05754e-23
7.65835e-23
-1.42924e-23
6.29954e-23
-1.6171e-23
1.20688e-22
-1.82966e-23
1.32533e-23
-1.99128e-23
4.77398e-23
-1.71513e-23
2.00911e-23
-1.52203e-23
-2.25664e-23
-1.85053e-23
5.18801e-23
-1.3711e-23
-4.71405e-23
-8.46392e-24
5.27689e-23
-5.5257e-25
9.6282e-23
-2.47074e-24
1.08168e-22
-5.51897e-25
6.17063e-23
1.99111e-26
1.35578e-22
6.24129e-24
1.17845e-23
3.95242e-24
1.42897e-22
7.9359e-24
5.44027e-23
8.61214e-24
1.78093e-22
1.00933e-23
1.51431e-22
8.74443e-24
-1.22482e-22
6.99186e-24
1.10294e-22
1.93165e-24
-1.28967e-22
3.65034e-24
9.22849e-23
1.5249e-24
1.58152e-22
7.47389e-25
2.71506e-23
-2.05682e-24
-1.54797e-23
-1.05953e-24
1.95872e-23
-1.39886e-23
1.3884e-23
-8.12724e-24
-1.97283e-23
4.67307e-23
-2.52096e-23
8.52798e-23
-2.26773e-23
8.50171e-23
-1.53702e-23
2.45863e-22
-5.88431e-24
1.60938e-22
-5.36775e-24
1.03062e-22
-4.65117e-24
1.53624e-22
1.30481e-24
2.04596e-22
-3.3887e-24
-9.07193e-23
-6.70732e-24
2.05709e-22
-6.97102e-24
-5.43577e-23
-8.52134e-24
-5.23974e-24
-1.4952e-23
5.42674e-23
-1.07141e-23
5.88865e-23
-1.01956e-23
1.2973e-22
-1.19847e-23
-3.7986e-24
-3.50014e-24
1.40072e-22
-1.48444e-24
3.41727e-23
-7.862e-24
1.07829e-22
-6.69507e-24
1.46434e-22
-6.66026e-24
7.52838e-23
-1.04073e-23
7.30281e-23
-1.42386e-23
2.6025e-23
-1.58813e-23
1.16145e-22
-1.85736e-23
-2.72397e-23
-1.97917e-23
4.88548e-23
-1.72004e-23
2.22714e-23
-1.51429e-23
-1.8968e-23
-1.85438e-23
-7.85005e-24
-1.31148e-23
-4.77676e-23
-8.55613e-24
5.87263e-23
1.81174e-25
1.00781e-22
-2.67395e-24
7.73638e-23
-4.22592e-25
1.27974e-24
-1.53937e-25
1.11635e-22
6.79638e-24
1.63748e-23
4.4572e-24
8.47298e-23
7.9722e-24
9.3497e-23
8.39979e-24
1.52117e-22
9.37994e-24
2.38847e-22
9.09013e-24
-1.21027e-22
7.51213e-24
1.15249e-22
3.03746e-24
-5.88817e-23
4.1732e-24
9.61055e-23
2.90369e-25
8.1686e-23
7.28742e-25
8.87188e-23
-2.39722e-24
-4.36131e-23
-7.87759e-25
2.80948e-23
-1.40759e-23
-1.93045e-23
6.19748e-23
-1.93384e-23
4.70312e-23
1.7603e-23
-2.49086e-23
2.07565e-23
-2.26826e-23
4.72137e-23
-1.50283e-23
3.10131e-22
-6.57101e-24
1.20723e-22
-4.97228e-24
1.03812e-22
-4.72171e-24
1.12717e-22
1.5501e-24
2.11636e-22
-2.10048e-24
-1.20289e-22
-7.5133e-24
2.08853e-22
-6.6312e-24
-2.2373e-23
-7.94996e-24
-9.74687e-24
-1.42799e-23
5.3856e-23
-9.81718e-24
5.91394e-23
-1.08175e-23
1.3381e-22
-1.11144e-23
-1.17803e-24
-3.9008e-24
9.77992e-23
-4.61822e-25
9.95284e-23
-7.4937e-24
1.0975e-22
-6.92403e-24
1.43167e-22
-6.52103e-24
8.00952e-23
-1.04632e-23
6.92405e-23
-1.39412e-23
2.62634e-23
-1.59476e-23
1.04871e-22
-1.85841e-23
-3.07822e-23
-1.97155e-23
5.1426e-23
-1.72017e-23
2.11796e-23
-1.56212e-23
-1.45256e-23
-1.81687e-23
3.87941e-24
-1.27216e-23
-4.91471e-23
-8.19445e-24
4.41751e-23
5.42975e-25
9.44563e-23
-3.40341e-24
1.84428e-23
-1.20335e-25
8.22251e-23
-1.92356e-25
8.61773e-23
5.96303e-24
4.53839e-23
5.16265e-24
7.36371e-23
7.95599e-24
9.26305e-23
8.50752e-24
1.57782e-22
8.61089e-24
2.38217e-22
9.2677e-24
-1.18315e-22
7.47442e-24
1.30677e-22
3.24844e-24
-7.33711e-23
4.78486e-24
1.56765e-22
6.27107e-25
1.25227e-22
1.52148e-25
1.21044e-22
-2.22139e-24
-1.01134e-22
-1.26164e-24
-5.51013e-24
-1.43181e-23
3.482e-23
1.24332e-22
-1.95466e-23
-1.60911e-23
1.77852e-23
-2.43907e-23
2.7349e-23
-2.18825e-23
4.83851e-23
-1.58132e-23
3.07625e-22
-6.11326e-24
1.60029e-22
-4.43815e-24
6.13414e-23
-4.39432e-24
1.131e-22
1.17568e-24
2.66738e-22
-1.42176e-24
-1.15464e-22
-6.98617e-24
1.6525e-22
-6.67653e-24
-7.09146e-23
-7.34035e-24