/*--------------------------------*- C++ -*----------------------------------*\
  =========                 |
  \\      /  F ield         | OpenFOAM: The Open Source CFD Toolbox
   \\    /   O peration     | Website:  https://openfoam.org
    \\  /    A nd           | Version:  7
     \\/     M anipulation  |
\*---------------------------------------------------------------------------*/
FoamFile
{
    version     2.0;
    format      ascii;
    class       volScalarField;
    location    "20000";
    object      k;
}
// * * * * * * * * * * * * * * * * * * * * * * * * * * * * * * * * * * * * * //

dimensions      [0 2 -2 0 0 0 0];

internalField   nonuniform List<scalar> 
4850
(
6.88231e-07
6.84765e-07
6.94833e-07
6.9137e-07
6.88008e-07
7.01433e-07
6.97977e-07
6.94618e-07
6.91354e-07
6.88191e-07
7.08029e-07
7.04581e-07
7.01228e-07
6.97968e-07
6.94808e-07
6.91754e-07
7.14617e-07
7.11178e-07
7.07833e-07
7.0458e-07
7.01425e-07
6.98374e-07
6.95434e-07
7.21194e-07
7.17766e-07
7.14431e-07
7.11186e-07
7.08037e-07
7.04992e-07
7.02057e-07
6.99237e-07
6.9654e-07
7.27755e-07
7.24341e-07
7.21017e-07
7.17782e-07
7.14642e-07
7.11604e-07
7.08675e-07
7.0586e-07
7.03166e-07
7.00599e-07
7.34299e-07
7.30899e-07
7.27588e-07
7.24364e-07
7.21235e-07
7.18206e-07
7.15284e-07
7.12476e-07
7.09788e-07
7.07225e-07
7.04794e-07
7.02499e-07
7.00346e-07
6.9834e-07
7.40821e-07
7.37438e-07
7.34142e-07
7.30931e-07
7.27813e-07
7.24795e-07
7.21882e-07
7.19082e-07
7.16401e-07
7.13844e-07
7.11418e-07
7.09128e-07
7.06978e-07
7.04975e-07
7.03122e-07
7.01424e-07
6.99884e-07
6.98507e-07
7.4732e-07
7.43955e-07
7.40675e-07
7.37479e-07
7.34374e-07
7.31367e-07
7.28465e-07
7.25674e-07
7.23001e-07
7.20452e-07
7.18032e-07
7.15747e-07
7.13603e-07
7.11604e-07
7.09754e-07
7.08059e-07
7.06522e-07
7.05147e-07
7.03937e-07
7.02895e-07
7.53793e-07
7.50447e-07
7.47184e-07
7.44004e-07
7.40913e-07
7.3792e-07
7.3503e-07
7.3225e-07
7.29586e-07
7.27045e-07
7.24633e-07
7.22355e-07
7.20216e-07
7.18222e-07
7.16377e-07
7.14686e-07
7.13153e-07
7.1178e-07
7.10573e-07
7.09533e-07
7.08662e-07
7.07964e-07
7.07439e-07
7.07089e-07
7.60236e-07
7.56911e-07
7.53667e-07
7.50504e-07
7.47429e-07
7.4445e-07
7.41573e-07
7.38805e-07
7.36152e-07
7.33621e-07
7.31217e-07
7.28947e-07
7.26815e-07
7.24827e-07
7.22988e-07
7.21302e-07
7.19772e-07
7.18404e-07
7.17199e-07
7.16161e-07
7.15293e-07
7.14596e-07
7.14072e-07
7.13723e-07
7.13549e-07
7.13551e-07
7.13728e-07
7.1408e-07
7.14607e-07
7.66648e-07
7.63345e-07
7.60121e-07
7.56976e-07
7.53919e-07
7.50955e-07
7.48093e-07
7.45338e-07
7.42697e-07
7.40176e-07
7.37783e-07
7.35521e-07
7.33397e-07
7.31416e-07
7.29583e-07
7.27902e-07
7.26377e-07
7.25013e-07
7.23812e-07
7.22777e-07
7.21911e-07
7.21217e-07
7.20694e-07
7.20346e-07
7.20173e-07
7.20174e-07
7.20351e-07
7.20703e-07
7.21228e-07
7.21926e-07
7.22794e-07
7.23831e-07
7.73027e-07
7.69746e-07
7.66543e-07
7.63419e-07
7.60379e-07
7.57433e-07
7.54586e-07
7.51845e-07
7.49217e-07
7.46708e-07
7.44325e-07
7.42073e-07
7.39958e-07
7.37985e-07
7.36159e-07
7.34484e-07
7.32965e-07
7.31606e-07
7.30409e-07
7.29378e-07
7.28515e-07
7.27822e-07
7.27302e-07
7.26955e-07
7.26782e-07
7.26783e-07
7.2696e-07
7.2731e-07
7.27834e-07
7.28529e-07
7.29395e-07
7.30429e-07
7.31628e-07
7.32989e-07
7.79369e-07
7.76113e-07
7.72932e-07
7.69828e-07
7.66809e-07
7.6388e-07
7.61049e-07
7.58324e-07
7.5571e-07
7.53214e-07
7.50843e-07
7.48601e-07
7.46496e-07
7.44531e-07
7.42713e-07
7.41045e-07
7.39533e-07
7.38178e-07
7.36986e-07
7.35959e-07
7.35099e-07
7.34409e-07
7.33891e-07
7.33545e-07
7.33373e-07
7.33375e-07
7.3355e-07
7.339e-07
7.34421e-07
7.35114e-07
7.35977e-07
7.37007e-07
7.38201e-07
7.39557e-07
7.85674e-07
7.82443e-07
7.79286e-07
7.76204e-07
7.73204e-07
7.70294e-07
7.67481e-07
7.64772e-07
7.62173e-07
7.59691e-07
7.57332e-07
7.55103e-07
7.53007e-07
7.51053e-07
7.49243e-07
7.47583e-07
7.46077e-07
7.44728e-07
7.43541e-07
7.42518e-07
7.41662e-07
7.40975e-07
7.40459e-07
7.40115e-07
7.39943e-07
7.39945e-07
7.4012e-07
7.40468e-07
7.40988e-07
7.41678e-07
7.42537e-07
7.43562e-07
7.44752e-07
7.46101e-07
7.91939e-07
7.88734e-07
7.85601e-07
7.82542e-07
7.79564e-07
7.76674e-07
7.7388e-07
7.71188e-07
7.68605e-07
7.66137e-07
7.63792e-07
7.61574e-07
7.5949e-07
7.57546e-07
7.55745e-07
7.54093e-07
7.52594e-07
7.51253e-07
7.50071e-07
7.49053e-07
7.48201e-07
7.47518e-07
7.47004e-07
7.46661e-07
7.4649e-07
7.46492e-07
7.46667e-07
7.47013e-07
7.4753e-07
7.48218e-07
7.49073e-07
7.50093e-07
7.51277e-07
7.5262e-07
7.98162e-07
7.94984e-07
7.91876e-07
7.88841e-07
7.85885e-07
7.83016e-07
7.80242e-07
7.77568e-07
7.75002e-07
7.7255e-07
7.70218e-07
7.68014e-07
7.65942e-07
7.64008e-07
7.62217e-07
7.60575e-07
7.59084e-07
7.57749e-07
7.56574e-07
7.55561e-07
7.54713e-07
7.54033e-07
7.53522e-07
7.53181e-07
7.53011e-07
7.53013e-07
7.53186e-07
7.53531e-07
7.54046e-07
7.5473e-07
7.55581e-07
7.56596e-07
7.57773e-07
7.5911e-07
8.04341e-07
8.01191e-07
7.9811e-07
7.95099e-07
7.92167e-07
7.8932e-07
7.86565e-07
7.8391e-07
7.81362e-07
7.78926e-07
7.7661e-07
7.74419e-07
7.7236e-07
7.70438e-07
7.68658e-07
7.67024e-07
7.65542e-07
7.64215e-07
7.63046e-07
7.62039e-07
7.61196e-07
7.60519e-07
7.6001e-07
7.59671e-07
7.59502e-07
7.59505e-07
7.59677e-07
7.6002e-07
7.60532e-07
7.61213e-07
7.62059e-07
7.63069e-07
7.6424e-07
7.65568e-07
8.10476e-07
8.07354e-07
8.043e-07
8.01315e-07
7.98406e-07
7.95582e-07
7.92849e-07
7.90213e-07
7.87683e-07
7.85265e-07
7.82964e-07
7.80788e-07
7.78743e-07
7.76832e-07
7.75063e-07
7.7344e-07
7.71966e-07
7.70647e-07
7.69485e-07
7.68484e-07
7.67646e-07
7.66973e-07
7.66467e-07
7.6613e-07
7.65963e-07
7.65965e-07
7.66137e-07
7.66478e-07
7.66987e-07
7.67663e-07
7.68505e-07
7.69509e-07
7.70673e-07
7.71993e-07
8.16563e-07
8.13471e-07
8.10445e-07
8.07486e-07
8.04602e-07
8.01801e-07
7.9909e-07
7.96475e-07
7.93964e-07
7.91564e-07
7.8928e-07
7.87119e-07
7.85087e-07
7.8319e-07
7.81432e-07
7.79819e-07
7.78355e-07
7.77044e-07
7.7589e-07
7.74895e-07
7.74062e-07
7.73393e-07
7.72891e-07
7.72556e-07
7.72389e-07
7.72391e-07
7.72562e-07
7.72901e-07
7.73408e-07
7.7408e-07
7.74916e-07
7.75914e-07
7.77071e-07
7.78383e-07
8.22602e-07
8.1954e-07
8.16543e-07
8.13611e-07
8.10753e-07
8.07976e-07
8.05287e-07
8.02694e-07
8.00202e-07
7.9782e-07
7.95554e-07
7.93409e-07
7.91391e-07
7.89508e-07
7.87762e-07
7.8616e-07
7.84706e-07
7.83404e-07
7.82257e-07
7.81268e-07
7.80441e-07
7.79777e-07
7.79278e-07
7.78945e-07
7.7878e-07
7.78782e-07
7.78952e-07
7.79289e-07
7.79792e-07
7.8046e-07
7.81291e-07
7.82282e-07
7.83431e-07
7.84734e-07
8.28591e-07
8.25561e-07
8.22592e-07
8.19688e-07
8.16856e-07
8.14104e-07
8.11439e-07
8.08867e-07
8.06396e-07
8.04033e-07
8.01784e-07
7.99656e-07
7.97654e-07
7.95784e-07
7.94051e-07
7.92461e-07
7.91017e-07
7.89724e-07
7.88585e-07
7.87603e-07
7.86782e-07
7.86122e-07
7.85627e-07
7.85296e-07
7.85132e-07
7.85134e-07
7.85303e-07
7.85638e-07
7.86138e-07
7.86801e-07
7.87626e-07
7.88611e-07
7.89752e-07
7.91046e-07
7.92489e-07
8.34529e-07
8.3153e-07
8.28591e-07
8.25716e-07
8.22911e-07
8.20184e-07
8.17543e-07
8.14994e-07
8.12544e-07
8.10201e-07
8.07971e-07
8.05859e-07
8.03873e-07
8.02017e-07
8.00298e-07
7.98719e-07
7.97286e-07
7.96003e-07
7.94872e-07
7.93898e-07
7.93082e-07
7.92427e-07
7.91935e-07
7.91607e-07
7.91444e-07
7.91446e-07
7.91614e-07
7.91947e-07
7.92443e-07
7.93102e-07
7.93921e-07
7.94899e-07
7.96031e-07
7.97315e-07
7.98748e-07
8.40415e-07
8.37448e-07
8.3454e-07
8.31693e-07
8.28916e-07
8.26215e-07
8.23598e-07
8.21073e-07
8.18645e-07
8.16322e-07
8.1411e-07
8.12016e-07
8.10046e-07
8.08205e-07
8.065e-07
8.04934e-07
8.03512e-07
8.02238e-07
8.01116e-07
8.00149e-07
7.9934e-07
7.9869e-07
7.98202e-07
7.97876e-07
7.97714e-07
7.97717e-07
7.97883e-07
7.98213e-07
7.98706e-07
7.9936e-07
8.00173e-07
8.01143e-07
8.02267e-07
8.03541e-07
8.04962e-07
8.46246e-07
8.43312e-07
8.40435e-07
8.37618e-07
8.34869e-07
8.32195e-07
8.29604e-07
8.27101e-07
8.24696e-07
8.22393e-07
8.20201e-07
8.18125e-07
8.16172e-07
8.14347e-07
8.12655e-07
8.11102e-07
8.09691e-07
8.08428e-07
8.07315e-07
8.06356e-07
8.05553e-07
8.04908e-07
8.04424e-07
8.04101e-07
8.03941e-07
8.03943e-07
8.04108e-07
8.04436e-07
8.04925e-07
8.05574e-07
8.06381e-07
8.07343e-07
8.08458e-07
8.09722e-07
8.52023e-07
8.49122e-07
8.46277e-07
8.4349e-07
8.4077e-07
8.38123e-07
8.35557e-07
8.33079e-07
8.30696e-07
8.28415e-07
8.26243e-07
8.24186e-07
8.22249e-07
8.2044e-07
8.18763e-07
8.17223e-07
8.15824e-07
8.14571e-07
8.13468e-07
8.12516e-07
8.1172e-07
8.11081e-07
8.10601e-07
8.1028e-07
8.10121e-07
8.10124e-07
8.10288e-07
8.10613e-07
8.11098e-07
8.11742e-07
8.12542e-07
8.13496e-07
8.14602e-07
8.15855e-07
8.57744e-07
8.54877e-07
8.52063e-07
8.49307e-07
8.46616e-07
8.43997e-07
8.41457e-07
8.39004e-07
8.36644e-07
8.34385e-07
8.32233e-07
8.30195e-07
8.28277e-07
8.26483e-07
8.24821e-07
8.23294e-07
8.21908e-07
8.20666e-07
8.19572e-07
8.18629e-07
8.17839e-07
8.17206e-07
8.1673e-07
8.16412e-07
8.16255e-07
8.16257e-07
8.1642e-07
8.16742e-07
8.17223e-07
8.17862e-07
8.18655e-07
8.19601e-07
8.20698e-07
8.2194e-07
8.63407e-07
8.60574e-07
8.57794e-07
8.55069e-07
8.52407e-07
8.49816e-07
8.47303e-07
8.44875e-07
8.42539e-07
8.40302e-07
8.38171e-07
8.36152e-07
8.34252e-07
8.32475e-07
8.30828e-07
8.29316e-07
8.27942e-07
8.26711e-07
8.25627e-07
8.24692e-07
8.2391e-07
8.23282e-07
8.2281e-07
8.22495e-07
8.22339e-07
8.22342e-07
8.22503e-07
8.22823e-07
8.233e-07
8.23932e-07
8.24719e-07
8.25657e-07
8.26743e-07
8.27974e-07
8.69012e-07
8.66214e-07
8.63467e-07
8.60774e-07
8.58142e-07
8.5558e-07
8.53094e-07
8.50691e-07
8.48379e-07
8.46165e-07
8.44055e-07
8.42056e-07
8.40174e-07
8.38415e-07
8.36783e-07
8.35285e-07
8.33924e-07
8.32705e-07
8.3163e-07
8.30704e-07
8.29929e-07
8.29307e-07
8.28839e-07
8.28528e-07
8.28373e-07
8.28376e-07
8.28536e-07
8.28852e-07
8.29325e-07
8.29952e-07
8.30732e-07
8.31661e-07
8.32737e-07
8.74558e-07
8.71795e-07
8.69081e-07
8.6642e-07
8.63819e-07
8.61286e-07
8.58827e-07
8.56451e-07
8.54164e-07
8.51973e-07
8.49884e-07
8.47906e-07
8.46042e-07
8.443e-07
8.42685e-07
8.41201e-07
8.39853e-07
8.38645e-07
8.37581e-07
8.36664e-07
8.35896e-07
8.3528e-07
8.34817e-07
8.34509e-07
8.34355e-07
8.34358e-07
8.34516e-07
8.3483e-07
8.35299e-07
8.3592e-07
8.36692e-07
8.37613e-07
8.38679e-07
8.80044e-07
8.77316e-07
8.74636e-07
8.72008e-07
8.69438e-07
8.66934e-07
8.64503e-07
8.62153e-07
8.59891e-07
8.57723e-07
8.55657e-07
8.53699e-07
8.51855e-07
8.5013e-07
8.48531e-07
8.47062e-07
8.45728e-07
8.44532e-07
8.43478e-07
8.4257e-07
8.4181e-07
8.412e-07
8.40742e-07
8.40436e-07
8.40284e-07
8.40287e-07
8.40444e-07
8.40755e-07
8.41219e-07
8.41834e-07
8.42599e-07
8.43511e-07
8.85469e-07
8.82777e-07
8.80131e-07
8.77535e-07
8.74997e-07
8.72523e-07
8.7012e-07
8.67797e-07
8.6556e-07
8.63416e-07
8.61373e-07
8.59435e-07
8.5761e-07
8.55904e-07
8.54321e-07
8.52867e-07
8.51546e-07
8.50363e-07
8.4932e-07
8.48422e-07
8.47669e-07
8.47065e-07
8.46612e-07
8.46309e-07
8.46159e-07
8.46162e-07
8.46317e-07
8.46625e-07
8.47084e-07
8.47694e-07
8.48451e-07
8.49354e-07
8.90831e-07
8.88176e-07
8.85564e-07
8.83002e-07
8.80495e-07
8.78051e-07
8.75677e-07
8.73381e-07
8.7117e-07
8.6905e-07
8.67029e-07
8.65113e-07
8.63308e-07
8.6162e-07
8.60054e-07
8.58616e-07
8.57309e-07
8.56138e-07
8.55106e-07
8.54217e-07
8.53472e-07
8.52875e-07
8.52426e-07
8.52126e-07
8.51978e-07
8.51981e-07
8.52134e-07
8.52439e-07
8.52894e-07
8.53497e-07
8.54247e-07
8.5514e-07
8.96131e-07
8.93512e-07
8.90936e-07
8.88407e-07
8.85932e-07
8.83518e-07
8.81174e-07
8.78905e-07
8.7672e-07
8.74625e-07
8.72627e-07
8.70732e-07
8.68947e-07
8.67277e-07
8.65729e-07
8.64306e-07
8.63013e-07
8.61855e-07
8.60834e-07
8.59954e-07
8.59218e-07
8.58627e-07
8.58183e-07
8.57887e-07
8.5774e-07
8.57743e-07
8.57895e-07
8.58196e-07
8.58646e-07
8.59243e-07
8.59985e-07
8.60869e-07
9.01368e-07
8.98785e-07
8.96244e-07
8.93749e-07
8.91306e-07
8.88924e-07
8.86608e-07
8.84367e-07
8.82208e-07
8.80138e-07
8.78163e-07
8.7629e-07
8.74526e-07
8.72875e-07
8.71344e-07
8.69936e-07
8.68658e-07
8.67513e-07
8.66504e-07
8.65633e-07
8.64905e-07
8.64321e-07
8.63882e-07
8.63589e-07
8.63444e-07
8.63446e-07
8.63597e-07
8.63895e-07
8.64341e-07
8.64931e-07
8.65665e-07
8.66539e-07
9.0654e-07
9.03994e-07
9.01489e-07
8.99027e-07
8.96617e-07
8.94266e-07
8.9198e-07
8.89767e-07
8.87635e-07
8.8559e-07
8.83638e-07
8.81787e-07
8.80043e-07
8.78412e-07
8.76898e-07
8.75507e-07
8.74243e-07
8.73111e-07
8.72113e-07
8.71253e-07
8.70533e-07
8.69955e-07
8.69521e-07
8.69232e-07
8.69089e-07
8.69091e-07
8.6924e-07
8.69535e-07
8.69976e-07
8.7056e-07
8.71285e-07
8.7215e-07
9.11646e-07
9.09138e-07
9.06668e-07
9.04241e-07
9.01864e-07
8.99544e-07
8.97288e-07
8.95104e-07
8.92998e-07
8.90978e-07
8.89051e-07
8.87222e-07
8.85499e-07
8.83887e-07
8.82391e-07
8.81016e-07
8.79767e-07
8.78648e-07
8.77662e-07
8.76812e-07
8.76101e-07
8.7553e-07
8.75101e-07
8.74815e-07
8.74673e-07
8.74676e-07
8.74823e-07
8.75115e-07
8.7555e-07
8.76127e-07
8.76845e-07
8.777e-07
9.16687e-07
9.14216e-07
9.11783e-07
9.0939e-07
9.07047e-07
9.04758e-07
9.02532e-07
9.00376e-07
8.98298e-07
8.96304e-07
8.944e-07
8.92594e-07
8.90892e-07
8.89299e-07
8.87822e-07
8.86464e-07
8.8523e-07
8.84124e-07
8.8315e-07
8.8231e-07
8.81607e-07
8.81043e-07
8.80619e-07
8.80337e-07
8.80196e-07
8.80199e-07
8.80345e-07
8.80633e-07
8.81063e-07
8.81634e-07
8.82343e-07
8.83188e-07
9.21661e-07
9.19228e-07
9.16831e-07
9.14474e-07
9.12163e-07
9.09907e-07
9.07711e-07
9.05584e-07
9.03533e-07
9.01564e-07
8.99685e-07
8.97902e-07
8.96221e-07
8.94648e-07
8.93189e-07
8.91848e-07
8.90629e-07
8.89537e-07
8.88574e-07
8.87745e-07
8.87051e-07
8.86494e-07
8.86075e-07
8.85796e-07
8.85658e-07
8.8566e-07
8.85804e-07
8.86089e-07
8.86514e-07
8.87078e-07
8.87779e-07
8.88613e-07
9.26568e-07
9.24173e-07
9.21813e-07
9.1949e-07
9.17213e-07
9.14989e-07
9.12824e-07
9.10726e-07
9.08702e-07
9.0676e-07
9.04905e-07
9.03145e-07
9.01485e-07
8.99933e-07
8.98492e-07
8.97168e-07
8.95964e-07
8.94886e-07
8.93936e-07
8.93117e-07
8.92431e-07
8.91881e-07
8.91468e-07
8.91192e-07
8.91056e-07
8.91058e-07
8.91201e-07
8.91482e-07
8.91902e-07
8.92459e-07
8.93151e-07
8.93975e-07
9.31407e-07
9.2905e-07
9.26726e-07
9.24439e-07
9.22196e-07
9.20004e-07
9.1787e-07
9.15801e-07
9.13805e-07
9.11889e-07
9.10059e-07
9.08322e-07
9.06684e-07
9.05152e-07
9.0373e-07
9.02423e-07
9.01235e-07
9.0017e-07
8.99232e-07
8.98424e-07
8.97748e-07
8.97205e-07
8.96797e-07
8.96525e-07
8.9639e-07
8.96393e-07
8.96533e-07
8.96811e-07
8.97226e-07
8.97776e-07
8.98459e-07
8.99273e-07
9.36177e-07
9.33859e-07
9.31572e-07
9.2932e-07
9.27111e-07
9.24951e-07
9.22848e-07
9.20809e-07
9.18841e-07
9.16951e-07
9.15146e-07
9.13433e-07
9.11817e-07
9.10305e-07
9.08902e-07
9.07612e-07
9.0644e-07
9.0539e-07
9.04464e-07
9.03666e-07
9.02999e-07
9.02463e-07
9.02061e-07
9.01792e-07
9.01659e-07
9.01662e-07
9.018e-07
9.02075e-07
9.02484e-07
9.03027e-07
9.03702e-07
9.04505e-07
9.40878e-07
9.38598e-07
9.36348e-07
9.34132e-07
9.31957e-07
9.2983e-07
9.27758e-07
9.25749e-07
9.23809e-07
9.21946e-07
9.20166e-07
9.18476e-07
9.16883e-07
9.15392e-07
9.14008e-07
9.12735e-07
9.11579e-07
9.10543e-07
9.09629e-07
9.08843e-07
9.08184e-07
9.07656e-07
9.07259e-07
9.06994e-07
9.06863e-07
9.06865e-07
9.07002e-07
9.07273e-07
9.07677e-07
9.08213e-07
9.08878e-07
9.09671e-07
9.45508e-07
9.43268e-07
9.41055e-07
9.38875e-07
9.36734e-07
9.3464e-07
9.326e-07
9.3062e-07
9.28708e-07
9.26872e-07
9.25118e-07
9.23452e-07
9.21881e-07
9.2041e-07
9.19046e-07
9.17791e-07
9.1665e-07
9.15628e-07
9.14728e-07
9.13952e-07
9.13303e-07
9.12782e-07
9.1239e-07
9.1213e-07
9.12e-07
9.12003e-07
9.12137e-07
9.12404e-07
9.12803e-07
9.13331e-07
9.13988e-07
9.1477e-07
9.50068e-07
9.47866e-07
9.45691e-07
9.43547e-07
9.41441e-07
9.3938e-07
9.37371e-07
9.35422e-07
9.33539e-07
9.31729e-07
9.30001e-07
9.28358e-07
9.2681e-07
9.25361e-07
9.24015e-07
9.22779e-07
9.21654e-07
9.20647e-07
9.19759e-07
9.18994e-07
9.18354e-07
9.1784e-07
9.17455e-07
9.17198e-07
9.1707e-07
9.17072e-07
9.17205e-07
9.17469e-07
9.17862e-07
9.18383e-07
9.1903e-07
9.19801e-07
9.54557e-07
9.52394e-07
9.50257e-07
9.48149e-07
9.46078e-07
9.4405e-07
9.42072e-07
9.40153e-07
9.38299e-07
9.36517e-07
9.34814e-07
9.33196e-07
9.3167e-07
9.30242e-07
9.28916e-07
9.27697e-07
9.26589e-07
9.25596e-07
9.24721e-07
9.23968e-07
9.23337e-07
9.22831e-07
9.22451e-07
9.22197e-07
9.22072e-07
9.22074e-07
9.22205e-07
9.22464e-07
9.22852e-07
9.23366e-07
9.24004e-07
9.58973e-07
9.5685e-07
9.54751e-07
9.52679e-07
9.50643e-07
9.48648e-07
9.46703e-07
9.44814e-07
9.42988e-07
9.41233e-07
9.39556e-07
9.37963e-07
9.3646e-07
9.35053e-07
9.33747e-07
9.32546e-07
9.31455e-07
9.30476e-07
9.29614e-07
9.28872e-07
9.28251e-07
9.27752e-07
9.27378e-07
9.27128e-07
9.27004e-07
9.27007e-07
9.27136e-07
9.27391e-07
9.27773e-07
9.2828e-07
9.28909e-07
9.63317e-07
9.61233e-07
9.59172e-07
9.57137e-07
9.55136e-07
9.53174e-07
9.51261e-07
9.49402e-07
9.47606e-07
9.45879e-07
9.44228e-07
9.42659e-07
9.41179e-07
9.39794e-07
9.38508e-07
9.37325e-07
9.3625e-07
9.35287e-07
9.34438e-07
9.33707e-07
9.33095e-07
9.32604e-07
9.32235e-07
9.31989e-07
9.31867e-07
9.3187e-07
9.31997e-07
9.32248e-07
9.32624e-07
9.33123e-07
9.67588e-07
9.65543e-07
9.6352e-07
9.61522e-07
9.59556e-07
9.57628e-07
9.55747e-07
9.53919e-07
9.52152e-07
9.50452e-07
9.48828e-07
9.47283e-07
9.45827e-07
9.44463e-07
9.43197e-07
9.42033e-07
9.40975e-07
9.40026e-07
9.3919e-07
9.38471e-07
9.37868e-07
9.37385e-07
9.37022e-07
9.3678e-07
9.3666e-07
9.36662e-07
9.36787e-07
9.37035e-07
9.37405e-07
9.37897e-07
9.71784e-07
9.69779e-07
9.67794e-07
9.65833e-07
9.63902e-07
9.62008e-07
9.6016e-07
9.58362e-07
9.56625e-07
9.54953e-07
9.53355e-07
9.51835e-07
9.50402e-07
9.4906e-07
9.47814e-07
9.46669e-07
9.45627e-07
9.44694e-07
9.43871e-07
9.43163e-07
9.4257e-07
9.42095e-07
9.41738e-07
9.415e-07
9.41381e-07
9.41384e-07
9.41507e-07
9.4175e-07
9.42115e-07
9.42599e-07
9.75906e-07
9.73941e-07
9.71994e-07
9.7007e-07
9.68175e-07
9.66315e-07
9.64498e-07
9.62732e-07
9.61024e-07
9.5938e-07
9.57809e-07
9.56314e-07
9.54904e-07
9.53584e-07
9.52359e-07
9.51232e-07
9.50207e-07
9.49289e-07
9.4848e-07
9.47783e-07
9.472e-07
9.46733e-07
9.46381e-07
9.46147e-07
9.46031e-07
9.46033e-07
9.46154e-07
9.46394e-07
9.46752e-07
9.47229e-07
9.79952e-07
9.78027e-07
9.76119e-07
9.74232e-07
9.72372e-07
9.70546e-07
9.68762e-07
9.67027e-07
9.65349e-07
9.63734e-07
9.62189e-07
9.60719e-07
9.59333e-07
9.58035e-07
9.5683e-07
9.55722e-07
9.54715e-07
9.53811e-07
9.53016e-07
9.52331e-07
9.51758e-07
9.51298e-07
9.50952e-07
9.50722e-07
9.50607e-07
9.5061e-07
9.50729e-07
9.50964e-07
9.51317e-07
9.51786e-07
9.83922e-07
9.82037e-07
9.80168e-07
9.78318e-07
9.76494e-07
9.74702e-07
9.72951e-07
9.71247e-07
9.69599e-07
9.68012e-07
9.66494e-07
9.6505e-07
9.63687e-07
9.62412e-07
9.61227e-07
9.60138e-07
9.59148e-07
9.5826e-07
9.57478e-07
9.56805e-07
9.56241e-07
9.55789e-07
9.5545e-07
9.55223e-07
9.55111e-07
9.55113e-07
9.5523e-07
9.55461e-07
9.55808e-07
9.56269e-07
9.87815e-07
9.8597e-07
9.8414e-07
9.82328e-07
9.80539e-07
9.78782e-07
9.77064e-07
9.75391e-07
9.73773e-07
9.72215e-07
9.70723e-07
9.69305e-07
9.67966e-07
9.66713e-07
9.65549e-07
9.64479e-07
9.63506e-07
9.62634e-07
9.61866e-07
9.61204e-07
9.60651e-07
9.60207e-07
9.59873e-07
9.59651e-07
9.5954e-07
9.59542e-07
9.59657e-07
9.59884e-07
9.60225e-07
9.60678e-07
9.9163e-07
9.89826e-07
9.88035e-07
9.8626e-07
9.84508e-07
9.82785e-07
9.811e-07
9.79459e-07
9.7787e-07
9.76341e-07
9.74877e-07
9.73484e-07
9.72169e-07
9.70938e-07
9.69796e-07
9.68745e-07
9.67789e-07
9.66933e-07
9.66178e-07
9.65528e-07
9.64985e-07
9.64549e-07
9.64221e-07
9.64003e-07
9.63894e-07
9.63896e-07
9.64008e-07
9.64232e-07
9.64567e-07
9.65012e-07
9.95367e-07
9.93603e-07
9.91852e-07
9.90114e-07
9.88398e-07
9.8671e-07
9.85058e-07
9.83449e-07
9.8189e-07
9.8039e-07
9.78953e-07
9.77586e-07
9.76296e-07
9.75087e-07
9.73965e-07
9.72934e-07
9.71996e-07
9.71155e-07
9.70414e-07
9.69777e-07
9.69243e-07
9.68815e-07
9.68494e-07
9.68279e-07
9.68172e-07
9.68174e-07
9.68284e-07
9.68504e-07
9.68833e-07
9.6927e-07
9.99025e-07
9.97301e-07
9.95589e-07
9.9389e-07
9.9221e-07
9.90557e-07
9.88937e-07
9.8736e-07
9.85832e-07
9.84361e-07
9.82952e-07
9.81611e-07
9.80345e-07
9.79159e-07
9.78058e-07
9.77046e-07
9.76125e-07
9.75301e-07
9.74574e-07
9.73948e-07
9.73425e-07
9.73005e-07
9.72689e-07
9.72479e-07
9.72374e-07
9.72375e-07
9.72484e-07
9.72699e-07
9.73022e-07
9.73451e-07
1.0026e-06
1.00092e-06
9.99247e-07
9.97585e-07
9.95942e-07
9.94324e-07
9.92738e-07
9.91192e-07
9.89695e-07
9.88253e-07
9.86872e-07
9.85557e-07
9.84315e-07
9.83152e-07
9.82073e-07
9.8108e-07
9.80177e-07
9.79368e-07
9.78656e-07
9.78042e-07
9.77529e-07
9.77117e-07
9.76808e-07
9.76601e-07
9.76498e-07
9.76499e-07
9.76606e-07
9.76817e-07
9.77133e-07
9.77554e-07
1.0061e-06
1.00446e-06
1.00282e-06
1.0012e-06
9.99594e-07
9.9801e-07
9.96458e-07
9.94945e-07
9.93479e-07
9.92066e-07
9.90712e-07
9.89423e-07
9.88206e-07
9.87067e-07
9.86008e-07
9.85035e-07
9.8415e-07
9.83358e-07
9.82659e-07
9.82057e-07
9.81554e-07
9.81151e-07
9.80848e-07
9.80645e-07
9.80543e-07
9.80545e-07
9.80649e-07
9.80856e-07
9.81166e-07
9.81579e-07
1.00951e-06
1.00791e-06
1.00632e-06
1.00473e-06
1.00316e-06
1.00162e-06
1.0001e-06
9.98616e-07
9.97181e-07
9.95798e-07
9.94472e-07
9.93209e-07
9.92017e-07
9.90901e-07
9.89864e-07
9.88911e-07
9.88044e-07
9.87267e-07
9.86582e-07
9.85993e-07
9.855e-07
9.85105e-07
9.84808e-07
9.84609e-07
9.8451e-07
9.84511e-07
9.84614e-07
9.84816e-07
9.8512e-07
9.85525e-07
1.01284e-06
1.01129e-06
1.00973e-06
1.00819e-06
1.00665e-06
1.00514e-06
1.00365e-06
1.00221e-06
1.0008e-06
9.99448e-07
9.98151e-07
9.96915e-07
9.95748e-07
9.94654e-07
9.93639e-07
9.92705e-07
9.91857e-07
9.91096e-07
9.90426e-07
9.89849e-07
9.89367e-07
9.8898e-07
9.88689e-07
9.88494e-07
9.88397e-07
9.88398e-07
9.88498e-07
9.88696e-07
9.88994e-07
9.89391e-07
1.01609e-06
1.01457e-06
1.01306e-06
1.01155e-06
1.01006e-06
1.00858e-06
1.00713e-06
1.00571e-06
1.00434e-06
1.00302e-06
1.00175e-06
1.00054e-06
9.99396e-07
9.98326e-07
9.97332e-07
9.96419e-07
9.95589e-07
9.94844e-07
9.94188e-07
9.93623e-07
9.93152e-07
9.92773e-07
9.92488e-07
9.92298e-07
9.92202e-07
9.92203e-07
9.92301e-07
9.92495e-07
9.92787e-07
9.93175e-07
1.01926e-06
1.01778e-06
1.01631e-06
1.01484e-06
1.01338e-06
1.01194e-06
1.01052e-06
1.00914e-06
1.00779e-06
1.0065e-06
1.00526e-06
1.00408e-06
1.00296e-06
1.00191e-06
1.00094e-06
1.00005e-06
9.99238e-07
9.9851e-07
9.97868e-07
9.97316e-07
9.96854e-07
9.96484e-07
9.96206e-07
9.96019e-07
9.95926e-07
9.95927e-07
9.96022e-07
9.96212e-07
9.96498e-07
9.96878e-07
1.02233e-06
1.0209e-06
1.01946e-06
1.01803e-06
1.01661e-06
1.01521e-06
1.01382e-06
1.01247e-06
1.01116e-06
1.0099e-06
1.00869e-06
1.00753e-06
1.00644e-06
1.00542e-06
1.00447e-06
1.0036e-06
1.0028e-06
1.00209e-06
1.00146e-06
1.00092e-06
1.00047e-06
1.00011e-06
9.9984e-07
9.99658e-07
9.99566e-07
9.99567e-07
9.99661e-07
9.99846e-07
1.00013e-06
1.0005e-06
1.02532e-06
1.02393e-06
1.02254e-06
1.02115e-06
1.01976e-06
1.01839e-06
1.01704e-06
1.01573e-06
1.01445e-06
1.01322e-06
1.01203e-06
1.0109e-06
1.00984e-06
1.00884e-06
1.00791e-06
1.00706e-06
1.00628e-06
1.00559e-06
1.00498e-06
1.00445e-06
1.00401e-06
1.00366e-06
1.00339e-06
1.00321e-06
1.00312e-06
1.00312e-06
1.00321e-06
1.0034e-06
1.00367e-06
1.00403e-06
1.02822e-06
1.02687e-06
1.02552e-06
1.02417e-06
1.02282e-06
1.02149e-06
1.02018e-06
1.01889e-06
1.01765e-06
1.01644e-06
1.01529e-06
1.01419e-06
1.01315e-06
1.01217e-06
1.01127e-06
1.01044e-06
1.00968e-06
1.009e-06
1.0084e-06
1.00789e-06
1.00746e-06
1.00711e-06
1.00686e-06
1.00668e-06
1.00659e-06
1.0066e-06
1.00668e-06
1.00686e-06
1.00713e-06
1.00748e-06
1.03103e-06
1.02972e-06
1.02842e-06
1.0271e-06
1.02579e-06
1.0245e-06
1.02322e-06
1.02197e-06
1.02076e-06
1.01958e-06
1.01846e-06
1.01739e-06
1.01637e-06
1.01542e-06
1.01454e-06
1.01373e-06
1.01299e-06
1.01233e-06
1.01174e-06
1.01124e-06
1.01082e-06
1.01049e-06
1.01023e-06
1.01007e-06
1.00998e-06
1.00998e-06
1.01007e-06
1.01024e-06
1.0105e-06
1.01084e-06
1.03375e-06
1.03249e-06
1.03122e-06
1.02995e-06
1.02868e-06
1.02742e-06
1.02617e-06
1.02496e-06
1.02378e-06
1.02264e-06
1.02154e-06
1.02049e-06
1.01951e-06
1.01858e-06
1.01772e-06
1.01693e-06
1.01621e-06
1.01557e-06
1.015e-06
1.01451e-06
1.0141e-06
1.01377e-06
1.01353e-06
1.01336e-06
1.01328e-06
1.01328e-06
1.01336e-06
1.01353e-06
1.01378e-06
1.01412e-06
1.03638e-06
1.03516e-06
1.03393e-06
1.0327e-06
1.03147e-06
1.03024e-06
1.02903e-06
1.02785e-06
1.0267e-06
1.0256e-06
1.02453e-06
1.02351e-06
1.02255e-06
1.02165e-06
1.02081e-06
1.02004e-06
1.01934e-06
1.01872e-06
1.01816e-06
1.01768e-06
1.01729e-06
1.01697e-06
1.01673e-06
1.01657e-06
1.01649e-06
1.01649e-06
1.01657e-06
1.01673e-06
1.01698e-06
1.01731e-06
1.03655e-06
1.03536e-06
1.03416e-06
1.03298e-06
1.0318e-06
1.03066e-06
1.02954e-06
1.02846e-06
1.02743e-06
1.02644e-06
1.0255e-06
1.02463e-06
1.02038e-06
1.02007e-06
1.01984e-06
1.01968e-06
1.0196e-06
1.01961e-06
1.01969e-06
1.01984e-06
1.02008e-06
1.0204e-06
6.10516e-07
6.0984e-07
6.09331e-07
6.08991e-07
6.08819e-07
6.08817e-07
6.08984e-07
6.0932e-07
6.09824e-07
6.10496e-07
6.17666e-07
6.16817e-07
6.16135e-07
6.15623e-07
6.15279e-07
6.15107e-07
6.15104e-07
6.15272e-07
6.15611e-07
6.16119e-07
6.16796e-07
6.1764e-07
6.18651e-07
6.19825e-07
6.21162e-07
6.22658e-07
6.24311e-07
6.26118e-07
6.28076e-07
6.30181e-07
6.32429e-07
6.2624e-07
6.25053e-07
6.24032e-07
6.23177e-07
6.2249e-07
6.21974e-07
6.21628e-07
6.21454e-07
6.21452e-07
6.21621e-07
6.21962e-07
6.22474e-07
6.23155e-07
6.24006e-07
6.25023e-07
6.26205e-07
6.27551e-07
6.29056e-07
6.3072e-07
6.32538e-07
6.34507e-07
6.36625e-07
6.38886e-07
6.41287e-07
6.43824e-07
6.46493e-07
6.49288e-07
6.37223e-07
6.35547e-07
6.34028e-07
6.32671e-07
6.31477e-07
6.30449e-07
6.29589e-07
6.28899e-07
6.28379e-07
6.28031e-07
6.27856e-07
6.27854e-07
6.28024e-07
6.28367e-07
6.28882e-07
6.29568e-07
6.30423e-07
6.31446e-07
6.32636e-07
6.33989e-07
6.35503e-07
6.37176e-07
6.39003e-07
6.40983e-07
6.4311e-07
6.45382e-07
6.47794e-07
6.50342e-07
6.53021e-07
6.55826e-07
6.58753e-07
6.61797e-07
6.64952e-07
6.47552e-07
6.45561e-07
6.43721e-07
6.42036e-07
6.40511e-07
6.39146e-07
6.37947e-07
6.36913e-07
6.36049e-07
6.35355e-07
6.34832e-07
6.34483e-07
6.34306e-07
6.34304e-07
6.34475e-07
6.3482e-07
6.35337e-07
6.36027e-07
6.36887e-07
6.37915e-07
6.39111e-07
6.4047e-07
6.41992e-07
6.43672e-07
6.45508e-07
6.47496e-07
6.49632e-07
6.51913e-07
6.54333e-07
6.5689e-07
6.59577e-07
6.6239e-07
6.65325e-07
6.68375e-07
6.71536e-07
6.74801e-07
6.78165e-07
6.81633e-07
6.58537e-07
6.56246e-07
6.54099e-07
6.521e-07
6.50253e-07
6.48562e-07
6.4703e-07
6.4566e-07
6.44456e-07
6.43418e-07
6.42549e-07
6.41852e-07
6.41327e-07
6.40976e-07
6.40799e-07
6.40796e-07
6.40968e-07
6.41315e-07
6.41835e-07
6.42527e-07
6.43391e-07
6.44424e-07
6.45624e-07
6.46989e-07
6.48517e-07
6.50204e-07
6.52046e-07
6.54041e-07
6.56185e-07
6.58472e-07
6.609e-07
6.63463e-07
6.66157e-07
6.68976e-07
6.71915e-07
6.7497e-07
6.78133e-07
6.814e-07
6.84765e-07
6.88231e-07
6.67558e-07
6.65121e-07
6.62824e-07
6.60672e-07
6.58667e-07
6.56815e-07
6.55119e-07
6.53582e-07
6.52208e-07
6.50998e-07
6.49957e-07
6.49085e-07
6.48386e-07
6.47859e-07
6.47506e-07
6.47328e-07
6.47326e-07
6.47498e-07
6.47846e-07
6.48368e-07
6.49063e-07
6.4993e-07
6.50966e-07
6.52171e-07
6.53541e-07
6.55073e-07
6.56765e-07
6.58613e-07
6.60614e-07
6.62763e-07
6.65056e-07
6.67489e-07
6.70057e-07
6.72755e-07
6.75577e-07
6.7852e-07
6.81576e-07
6.84741e-07
6.88007e-07
6.9137e-07
6.94833e-07
6.76738e-07
6.74164e-07
6.71724e-07
6.69424e-07
6.67267e-07
6.65258e-07
6.63402e-07
6.61702e-07
6.60161e-07
6.58783e-07
6.5757e-07
6.56526e-07
6.55652e-07
6.5495e-07
6.54421e-07
6.54067e-07
6.53889e-07
6.53886e-07
6.5406e-07
6.54408e-07
6.54932e-07
6.55629e-07
6.56498e-07
6.57538e-07
6.58746e-07
6.60119e-07
6.61656e-07
6.63352e-07
6.65204e-07
6.67209e-07
6.69362e-07
6.71658e-07
6.74095e-07
6.76666e-07
6.79366e-07
6.82191e-07
6.85134e-07
6.8819e-07
6.91354e-07
6.94618e-07
6.97977e-07
7.01433e-07
6.86063e-07
6.83359e-07
6.80783e-07
6.78341e-07
6.76038e-07
6.73879e-07
6.71868e-07
6.70008e-07
6.68305e-07
6.66761e-07
6.65381e-07
6.64166e-07
6.63119e-07
6.62243e-07
6.61539e-07
6.61009e-07
6.60655e-07
6.60476e-07
6.60473e-07
6.60647e-07
6.60997e-07
6.61521e-07
6.6222e-07
6.63091e-07
6.64133e-07
6.65343e-07
6.6672e-07
6.68259e-07
6.69958e-07
6.71813e-07
6.7382e-07
6.75976e-07
6.78275e-07
6.80713e-07
6.83286e-07
6.85987e-07
6.88811e-07
6.91754e-07
6.94808e-07
6.97968e-07
7.01228e-07
7.04581e-07
7.0803e-07
6.95515e-07
6.92689e-07
6.89986e-07
6.87411e-07
6.84968e-07
6.82664e-07
6.80504e-07
6.78491e-07
6.7663e-07
6.74925e-07
6.73379e-07
6.71997e-07
6.7078e-07
6.69732e-07
6.68854e-07
6.68149e-07
6.67619e-07
6.67264e-07
6.67084e-07
6.67082e-07
6.67256e-07
6.67606e-07
6.68131e-07
6.68831e-07
6.69704e-07
6.70747e-07
6.71959e-07
6.73337e-07
6.74878e-07
6.76579e-07
6.78436e-07
6.80445e-07
6.82602e-07
6.84902e-07
6.8734e-07
6.89912e-07
6.92613e-07
6.95435e-07
6.98375e-07
7.01425e-07
7.04581e-07
7.07834e-07
7.11179e-07
7.14618e-07
7.02138e-07
6.99316e-07
6.96615e-07
6.94042e-07
6.91601e-07
6.89297e-07
6.87137e-07
6.85123e-07
6.83262e-07
6.81556e-07
6.8001e-07
6.78626e-07
6.77408e-07
6.76359e-07
6.75481e-07
6.74775e-07
6.74244e-07
6.73889e-07
6.73709e-07
6.73707e-07
6.73881e-07
6.74231e-07
6.74757e-07
6.75458e-07
6.76331e-07
6.77375e-07
6.78588e-07
6.79967e-07
6.81509e-07
6.83211e-07
6.85068e-07
6.87078e-07
6.89234e-07
6.91534e-07
6.93971e-07
6.96541e-07
6.99239e-07
7.02058e-07
7.04993e-07
7.08038e-07
7.11187e-07
7.14432e-07
7.17767e-07
7.21194e-07
7.11688e-07
7.08757e-07
7.0594e-07
7.03243e-07
7.00673e-07
6.98234e-07
6.95933e-07
6.93773e-07
6.91761e-07
6.899e-07
6.88194e-07
6.86648e-07
6.85264e-07
6.84047e-07
6.82997e-07
6.82119e-07
6.81413e-07
6.80882e-07
6.80526e-07
6.80346e-07
6.80344e-07
6.80518e-07
6.80868e-07
6.81395e-07
6.82095e-07
6.82969e-07
6.84014e-07
6.85227e-07
6.86606e-07
6.88148e-07
6.89849e-07
6.91706e-07
6.93714e-07
6.95869e-07
6.98167e-07
7.00602e-07
7.03169e-07
7.05862e-07
7.08677e-07
7.11606e-07
7.14643e-07
7.17783e-07
7.21018e-07
7.24342e-07
7.27755e-07
7.21321e-07
7.18291e-07
7.15367e-07
7.12556e-07
7.09865e-07
7.073e-07
7.04865e-07
7.02567e-07
7.0041e-07
6.984e-07
6.9654e-07
6.94836e-07
6.93291e-07
6.91908e-07
6.9069e-07
6.89641e-07
6.88763e-07
6.88057e-07
6.87526e-07
6.8717e-07
6.86991e-07