/*--------------------------------*- C++ -*----------------------------------*\
  =========                 |
  \\      /  F ield         | OpenFOAM: The Open Source CFD Toolbox
   \\    /   O peration     | Website:  https://openfoam.org
    \\  /    A nd           | Version:  7
     \\/     M anipulation  |
\*---------------------------------------------------------------------------*/
FoamFile
{
    version     2.0;
    format      ascii;
    class       volScalarField;
    location    "20000";
    object      p;
}
// * * * * * * * * * * * * * * * * * * * * * * * * * * * * * * * * * * * * * //

dimensions      [0 2 -2 0 0 0 0];

internalField   nonuniform List<scalar> 
4850
(
-1.10795e-18
-1.10224e-18
-1.10822e-18
-1.09946e-18
-1.10692e-18
-1.11446e-18
-1.10655e-18
-1.10518e-18
-1.10267e-18
-1.10665e-18
-1.10733e-18
-1.10415e-18
-1.10446e-18
-1.10644e-18
-1.10198e-18
-1.10659e-18
-1.10826e-18
-1.10452e-18
-1.09569e-18
-1.10679e-18
-1.09891e-18
-1.10527e-18
-1.10404e-18
-1.11453e-18
-1.10589e-18
-1.09681e-18
-1.10873e-18
-1.10459e-18
-1.09819e-18
-1.11125e-18
-1.11363e-18
-1.1265e-18
-1.10032e-18
-1.10124e-18
-1.10392e-18
-1.10182e-18
-1.10237e-18
-1.09913e-18
-1.11367e-18
-1.12365e-18
-1.11428e-18
-1.10843e-18
-1.0946e-18
-1.10054e-18
-1.11204e-18
-1.10546e-18
-1.1007e-18
-1.10348e-18
-1.10937e-18
-1.1126e-18
-1.11143e-18
-1.10971e-18
-1.12099e-18
-1.11418e-18
-1.11613e-18
-1.12748e-18
-1.09417e-18
-1.10437e-18
-1.10644e-18
-1.11024e-18
-1.10363e-18
-1.10719e-18
-1.11023e-18
-1.10947e-18
-1.11308e-18
-1.11098e-18
-1.11557e-18
-1.11939e-18
-1.10975e-18
-1.1127e-18
-1.11651e-18
-1.11724e-18
-1.11849e-18
-1.11805e-18
-1.09862e-18
-1.10288e-18
-1.10249e-18
-1.1024e-18
-1.10363e-18
-1.10748e-18
-1.11879e-18
-1.109e-18
-1.11117e-18
-1.11083e-18
-1.1137e-18
-1.11477e-18
-1.11514e-18
-1.1191e-18
-1.11419e-18
-1.11704e-18
-1.12145e-18
-1.12092e-18
-1.12274e-18
-1.13101e-18
-1.09899e-18
-1.10294e-18
-1.10195e-18
-1.10367e-18
-1.10104e-18
-1.11047e-18
-1.11484e-18
-1.1124e-18
-1.11007e-18
-1.10989e-18
-1.11406e-18
-1.11159e-18
-1.12227e-18
-1.12286e-18
-1.12451e-18
-1.1165e-18
-1.12548e-18
-1.12015e-18
-1.118e-18
-1.12351e-18
-1.12738e-18
-1.13778e-18
-1.14842e-18
-1.13225e-18
-1.09843e-18
-1.10115e-18
-1.09926e-18
-1.10128e-18
-1.1007e-18
-1.10288e-18
-1.10156e-18
-1.10892e-18
-1.1116e-18
-1.111e-18
-1.11764e-18
-1.10705e-18
-1.11905e-18
-1.11533e-18
-1.12441e-18
-1.11524e-18
-1.13116e-18
-1.11754e-18
-1.10403e-18
-1.11479e-18
-1.12655e-18
-1.12824e-18
-1.13718e-18
-1.12017e-18
-1.13874e-18
-1.15328e-18
-1.14284e-18
-1.13115e-18
-1.15627e-18
-1.09191e-18
-1.10339e-18
-1.09302e-18
-1.10066e-18
-1.09998e-18
-1.10446e-18
-1.09429e-18
-1.1071e-18
-1.11506e-18
-1.11087e-18
-1.10825e-18
-1.10977e-18
-1.12099e-18
-1.10803e-18
-1.13264e-18
-1.10881e-18
-1.12197e-18
-1.10756e-18
-1.10159e-18
-1.12866e-18
-1.1251e-18
-1.11588e-18
-1.13177e-18
-1.11879e-18
-1.14257e-18
-1.16511e-18
-1.14625e-18
-1.13296e-18
-1.1563e-18
-1.16021e-18
-1.15346e-18
-1.16861e-18
-1.08414e-18
-1.10924e-18
-1.09725e-18
-1.0957e-18
-1.10218e-18
-1.11171e-18
-1.10646e-18
-1.11075e-18
-1.11503e-18
-1.1107e-18
-1.10997e-18
-1.10889e-18
-1.11614e-18
-1.10639e-18
-1.13092e-18
-1.12641e-18
-1.12028e-18
-1.11521e-18
-1.10564e-18
-1.12633e-18
-1.12496e-18
-1.12835e-18
-1.12946e-18
-1.13063e-18
-1.1511e-18
-1.15407e-18
-1.14552e-18
-1.13462e-18
-1.1559e-18
-1.1621e-18
-1.16258e-18
-1.16608e-18
-1.17759e-18
-1.23559e-18
-1.0913e-18
-1.09573e-18
-1.0977e-18
-1.1036e-18
-1.10795e-18
-1.11159e-18
-1.0994e-18
-1.11323e-18
-1.11105e-18
-1.10975e-18
-1.10754e-18
-1.10074e-18
-1.11438e-18
-1.10991e-18
-1.11869e-18
-1.12206e-18
-1.11843e-18
-1.12332e-18
-1.12288e-18
-1.1242e-18
-1.12515e-18
-1.14107e-18
-1.12434e-18
-1.13264e-18
-1.14254e-18
-1.16301e-18
-1.14241e-18
-1.14457e-18
-1.15557e-18
-1.16522e-18
-1.1652e-18
-1.18198e-18
-1.16702e-18
-1.25983e-18
-1.09526e-18
-1.09733e-18
-1.09808e-18
-1.10592e-18
-1.1057e-18
-1.10879e-18
-1.10474e-18
-1.11012e-18
-1.11123e-18
-1.11024e-18
-1.11157e-18
-1.11175e-18
-1.11585e-18
-1.11262e-18
-1.1149e-18
-1.12601e-18
-1.11773e-18
-1.1306e-18
-1.12827e-18
-1.12383e-18
-1.12395e-18
-1.13392e-18
-1.1347e-18
-1.12865e-18
-1.14218e-18
-1.17089e-18
-1.13233e-18
-1.15849e-18
-1.15979e-18
-1.17294e-18
-1.15775e-18
-1.19775e-18
-1.17788e-18
-1.27e-18
-1.09657e-18
-1.09658e-18
-1.09709e-18
-1.10958e-18
-1.10748e-18
-1.10569e-18
-1.10423e-18
-1.1081e-18
-1.10329e-18
-1.10995e-18
-1.11689e-18
-1.11085e-18
-1.11866e-18
-1.11308e-18
-1.11252e-18
-1.11929e-18
-1.11617e-18
-1.11824e-18
-1.10737e-18
-1.12257e-18
-1.12245e-18
-1.13555e-18
-1.12094e-18
-1.11569e-18
-1.14753e-18
-1.14999e-18
-1.13061e-18
-1.1529e-18
-1.16603e-18
-1.16174e-18
-1.16463e-18
-1.19591e-18
-1.18096e-18
-1.24712e-18
-1.10046e-18
-1.09613e-18
-1.09258e-18
-1.11272e-18
-1.10132e-18
-1.10788e-18
-1.10563e-18
-1.10759e-18
-1.10729e-18
-1.10552e-18
-1.10914e-18
-1.11171e-18
-1.1154e-18
-1.11278e-18
-1.10915e-18
-1.1143e-18
-1.11529e-18
-1.10714e-18
-1.10284e-18
-1.12513e-18
-1.12019e-18
-1.12948e-18
-1.13058e-18
-1.12003e-18
-1.13855e-18
-1.14414e-18
-1.14388e-18
-1.14896e-18
-1.15725e-18
-1.14832e-18
-1.16674e-18
-1.18397e-18
-1.17869e-18
-1.26653e-18
-1.10689e-18
-1.08945e-18
-1.09473e-18
-1.11676e-18
-1.09663e-18
-1.11111e-18
-1.10387e-18
-1.10728e-18
-1.10773e-18
-1.09523e-18
-1.10929e-18
-1.11631e-18
-1.11465e-18
-1.11143e-18
-1.10047e-18
-1.11535e-18
-1.11051e-18
-1.11436e-18
-1.11019e-18
-1.13345e-18
-1.11182e-18
-1.12213e-18
-1.11896e-18
-1.1385e-18
-1.13721e-18
-1.1461e-18
-1.15339e-18
-1.14856e-18
-1.15546e-18
-1.1524e-18
-1.16495e-18
-1.17848e-18
-1.17536e-18
-1.26065e-18
-1.10574e-18
-1.09669e-18
-1.09468e-18
-1.10604e-18
-1.0986e-18
-1.10827e-18
-1.10329e-18
-1.10483e-18
-1.1023e-18
-1.09797e-18
-1.11573e-18
-1.10257e-18
-1.114e-18
-1.11257e-18
-1.10779e-18
-1.11556e-18
-1.10056e-18
-1.10674e-18
-1.10405e-18
-1.12742e-18
-1.11862e-18
-1.11437e-18
-1.1238e-18
-1.13341e-18
-1.13831e-18
-1.14167e-18
-1.14216e-18
-1.14774e-18
-1.15794e-18
-1.14615e-18
-1.16307e-18
-1.1769e-18
-1.16783e-18
-1.24357e-18
-1.09527e-18
-1.09877e-18
-1.09359e-18
-1.10056e-18
-1.09659e-18
-1.10746e-18
-1.1042e-18
-1.11195e-18
-1.10741e-18
-1.10231e-18
-1.13069e-18
-1.09508e-18
-1.10708e-18
-1.11522e-18
-1.11065e-18
-1.11528e-18
-1.10974e-18
-1.11344e-18
-1.11503e-18
-1.12614e-18
-1.12202e-18
-1.12293e-18
-1.12728e-18
-1.12914e-18
-1.13444e-18
-1.13902e-18
-1.14076e-18
-1.14374e-18
-1.15328e-18
-1.15405e-18
-1.163e-18
-1.17486e-18
-1.17647e-18
-1.23159e-18
-1.09488e-18
-1.10287e-18
-1.09515e-18
-1.09662e-18
-1.09636e-18
-1.10215e-18
-1.10336e-18
-1.11293e-18
-1.10743e-18
-1.10831e-18
-1.12634e-18
-1.10305e-18
-1.10707e-18
-1.11697e-18
-1.10461e-18
-1.12006e-18
-1.11239e-18
-1.11645e-18
-1.1259e-18
-1.12331e-18
-1.12464e-18
-1.12199e-18
-1.12727e-18
-1.12956e-18
-1.13836e-18
-1.13809e-18
-1.14049e-18
-1.13639e-18
-1.15387e-18
-1.15439e-18
-1.16125e-18
-1.17319e-18
-1.18633e-18
-1.20902e-18
-1.09865e-18
-1.09922e-18
-1.09065e-18
-1.10139e-18
-1.10037e-18
-1.10508e-18
-1.09779e-18
-1.1107e-18
-1.1089e-18
-1.11351e-18
-1.11618e-18
-1.10338e-18
-1.11266e-18
-1.11179e-18
-1.10259e-18
-1.10651e-18
-1.11337e-18
-1.11876e-18
-1.11456e-18
-1.12124e-18
-1.12903e-18
-1.11132e-18
-1.1264e-18
-1.13035e-18
-1.15215e-18
-1.1418e-18
-1.14109e-18
-1.14757e-18
-1.16045e-18
-1.14891e-18
-1.15895e-18
-1.17397e-18
-1.17588e-18
-1.19479e-18
-1.1514e-18
-1.09421e-18
-1.1027e-18
-1.09341e-18
-1.10494e-18
-1.09898e-18
-1.10459e-18
-1.10343e-18
-1.10159e-18
-1.11909e-18
-1.1083e-18
-1.11283e-18
-1.10922e-18
-1.11717e-18
-1.10541e-18
-1.10382e-18
-1.1135e-18
-1.12174e-18
-1.12493e-18
-1.10091e-18
-1.1227e-18
-1.11213e-18
-1.10772e-18
-1.12571e-18
-1.13132e-18
-1.13789e-18
-1.14791e-18
-1.14327e-18
-1.15778e-18
-1.15164e-18
-1.1629e-18
-1.15736e-18
-1.18246e-18
-1.17063e-18
-1.18265e-18
-1.158e-18
-1.08564e-18
-1.1006e-18
-1.09388e-18
-1.10097e-18
-1.10106e-18
-1.10459e-18
-1.11153e-18
-1.1013e-18
-1.1133e-18
-1.1051e-18
-1.11263e-18
-1.11115e-18
-1.11457e-18
-1.09916e-18
-1.10233e-18
-1.11097e-18
-1.11262e-18
-1.11749e-18
-1.10602e-18
-1.12925e-18
-1.11527e-18
-1.11348e-18
-1.12532e-18
-1.1334e-18
-1.12828e-18
-1.13883e-18
-1.1395e-18
-1.14863e-18
-1.14576e-18
-1.16072e-18
-1.15576e-18
-1.18083e-18
-1.16741e-18
-1.19212e-18
-1.16918e-18
-1.08962e-18
-1.09728e-18
-1.09164e-18
-1.10474e-18
-1.09923e-18
-1.10414e-18
-1.10626e-18
-1.09411e-18
-1.10855e-18
-1.10709e-18
-1.11339e-18
-1.11029e-18
-1.10588e-18
-1.10841e-18
-1.1074e-18
-1.10592e-18
-1.10215e-18
-1.11187e-18
-1.11173e-18
-1.12582e-18
-1.11927e-18
-1.133e-18
-1.12545e-18
-1.1299e-18
-1.11938e-18
-1.13459e-18
-1.136e-18
-1.14339e-18
-1.14039e-18
-1.16449e-18
-1.15309e-18
-1.1695e-18
-1.16947e-18
-1.18574e-18
-1.09279e-18
-1.1059e-18
-1.08646e-18
-1.10675e-18
-1.10111e-18
-1.10066e-18
-1.10348e-18
-1.10706e-18
-1.11362e-18
-1.10831e-18
-1.10714e-18
-1.1096e-18
-1.10803e-18
-1.10968e-18
-1.10794e-18
-1.10596e-18
-1.10316e-18
-1.11198e-18
-1.11463e-18
-1.13055e-18
-1.11976e-18
-1.1348e-18
-1.12432e-18
-1.12694e-18
-1.12407e-18
-1.13658e-18
-1.1354e-18
-1.14519e-18
-1.13099e-18
-1.15822e-18
-1.15088e-18
-1.16604e-18
-1.1732e-18
-1.17481e-18
-1.09572e-18
-1.10985e-18
-1.09017e-18
-1.10332e-18
-1.10149e-18
-1.09246e-18
-1.10594e-18
-1.10482e-18
-1.10863e-18
-1.10804e-18
-1.10742e-18
-1.11039e-18
-1.10641e-18
-1.10898e-18
-1.1096e-18
-1.10943e-18
-1.11322e-18
-1.11165e-18
-1.11728e-18
-1.12206e-18
-1.11756e-18
-1.12442e-18
-1.12298e-18
-1.12347e-18
-1.12019e-18
-1.14227e-18
-1.13481e-18
-1.1518e-18
-1.13681e-18
-1.15572e-18
-1.14981e-18
-1.16236e-18
-1.16488e-18
-1.16906e-18
-1.09266e-18
-1.10156e-18
-1.08314e-18
-1.10233e-18
-1.10253e-18
-1.09445e-18
-1.10302e-18
-1.10678e-18
-1.09745e-18
-1.10758e-18
-1.10729e-18
-1.11301e-18
-1.10428e-18
-1.104e-18
-1.10458e-18
-1.10563e-18
-1.11471e-18
-1.11068e-18
-1.11667e-18
-1.11807e-18
-1.10977e-18
-1.11953e-18
-1.12257e-18
-1.12494e-18
-1.12618e-18
-1.13511e-18
-1.13627e-18
-1.14358e-18
-1.13917e-18
-1.16026e-18
-1.15025e-18
-1.15971e-18
-1.16214e-18
-1.1684e-18
-1.09248e-18
-1.09668e-18
-1.09521e-18
-1.10952e-18
-1.1042e-18
-1.10264e-18
-1.09948e-18
-1.11847e-18
-1.10989e-18
-1.10807e-18
-1.1088e-18
-1.11035e-18
-1.1091e-18
-1.10459e-18
-1.1018e-18
-1.10225e-18
-1.10418e-18
-1.10881e-18
-1.10551e-18
-1.11724e-18
-1.11915e-18
-1.11981e-18
-1.12224e-18
-1.12538e-18
-1.12801e-18
-1.13102e-18
-1.14596e-18
-1.13883e-18
-1.13579e-18
-1.15009e-18
-1.15108e-18
-1.16436e-18
-1.15795e-18
-1.09711e-18
-1.09437e-18
-1.09178e-18
-1.1078e-18
-1.10125e-18
-1.10009e-18
-1.10797e-18
-1.11402e-18
-1.113e-18
-1.10957e-18
-1.10705e-18
-1.10898e-18
-1.11302e-18
-1.10506e-18
-1.10742e-18
-1.10643e-18
-1.10446e-18
-1.10337e-18
-1.10398e-18
-1.11834e-18
-1.12198e-18
-1.12103e-18
-1.12186e-18
-1.12478e-18
-1.12759e-18
-1.12916e-18
-1.14449e-18
-1.13812e-18
-1.13086e-18
-1.14352e-18
-1.14653e-18
-1.16752e-18
-1.16083e-18
-1.09803e-18
-1.09116e-18
-1.09317e-18
-1.10275e-18
-1.09875e-18
-1.1103e-18
-1.10625e-18
-1.10502e-18
-1.1118e-18
-1.11418e-18
-1.10502e-18
-1.10847e-18
-1.10939e-18
-1.1057e-18
-1.10473e-18
-1.10533e-18
-1.10362e-18
-1.10533e-18
-1.1098e-18
-1.12038e-18
-1.11878e-18
-1.12317e-18
-1.12132e-18
-1.12419e-18
-1.1273e-18
-1.1261e-18
-1.13109e-18
-1.13861e-18
-1.13497e-18
-1.15072e-18
-1.14582e-18
-1.16028e-18
-1.0948e-18
-1.09847e-18
-1.09425e-18
-1.09277e-18
-1.09483e-18
-1.10401e-18
-1.10547e-18
-1.10897e-18
-1.10983e-18
-1.11444e-18
-1.10206e-18
-1.10508e-18
-1.10409e-18
-1.10607e-18
-1.10617e-18
-1.10335e-18
-1.10982e-18
-1.10285e-18
-1.10874e-18
-1.11716e-18
-1.11932e-18
-1.1216e-18
-1.1204e-18
-1.1236e-18
-1.12841e-18
-1.12886e-18
-1.13031e-18
-1.14008e-18
-1.13636e-18
-1.15222e-18
-1.14659e-18
-1.15547e-18
-1.08899e-18
-1.09605e-18
-1.09415e-18
-1.10184e-18
-1.09967e-18
-1.10052e-18
-1.09827e-18
-1.10999e-18
-1.10463e-18
-1.10877e-18
-1.10516e-18
-1.09695e-18
-1.10779e-18
-1.10658e-18
-1.10779e-18
-1.11093e-18
-1.10981e-18
-1.10768e-18
-1.10547e-18
-1.11553e-18
-1.11366e-18
-1.11724e-18
-1.1212e-18
-1.12288e-18
-1.12676e-18
-1.13254e-18
-1.13093e-18
-1.13333e-18
-1.13514e-18
-1.14614e-18
-1.13795e-18
-1.15655e-18
-1.0842e-18
-1.08721e-18
-1.09593e-18
-1.10838e-18
-1.10346e-18
-1.1014e-18
-1.10413e-18
-1.10833e-18
-1.09988e-18
-1.10663e-18
-1.10751e-18
-1.09861e-18
-1.10926e-18
-1.10693e-18
-1.10822e-18
-1.1076e-18
-1.1119e-18
-1.10941e-18
-1.10946e-18
-1.11488e-18
-1.1097e-18
-1.11901e-18
-1.1232e-18
-1.12303e-18
-1.12905e-18
-1.1296e-18
-1.13022e-18
-1.13387e-18
-1.13424e-18
-1.13554e-18
-1.13554e-18
-1.14974e-18
-1.0816e-18
-1.09165e-18
-1.09236e-18
-1.11113e-18
-1.09631e-18
-1.10476e-18
-1.1049e-18
-1.11262e-18
-1.09709e-18
-1.11175e-18
-1.10849e-18
-1.10678e-18
-1.10676e-18
-1.10506e-18
-1.1058e-18
-1.10992e-18
-1.11045e-18
-1.11192e-18
-1.10702e-18
-1.11602e-18
-1.11575e-18
-1.11715e-18
-1.11547e-18
-1.12471e-18
-1.1287e-18
-1.12872e-18
-1.12931e-18
-1.13466e-18
-1.13331e-18
-1.14222e-18
-1.13812e-18
-1.14871e-18
-1.07727e-18
-1.1099e-18
-1.09479e-18
-1.10077e-18
-1.09139e-18
-1.11231e-18
-1.10621e-18
-1.11066e-18
-1.10195e-18
-1.11412e-18
-1.10834e-18
-1.10985e-18
-1.10646e-18
-1.10498e-18
-1.11002e-18
-1.11346e-18
-1.11093e-18
-1.1139e-18
-1.09972e-18
-1.1168e-18
-1.1147e-18
-1.11655e-18
-1.113e-18
-1.12082e-18
-1.12569e-18
-1.12189e-18
-1.12809e-18
-1.13593e-18
-1.12676e-18
-1.13993e-18
-1.13666e-18
-1.14893e-18
-1.08109e-18
-1.10727e-18
-1.09618e-18
-1.10283e-18
-1.10057e-18
-1.11099e-18
-1.10964e-18
-1.12e-18
-1.10741e-18
-1.10429e-18
-1.11144e-18
-1.11611e-18
-1.10222e-18
-1.10827e-18
-1.11526e-18
-1.10967e-18
-1.11008e-18
-1.10831e-18
-1.10492e-18
-1.11598e-18
-1.11535e-18
-1.11633e-18
-1.11659e-18
-1.11914e-18
-1.12719e-18
-1.12127e-18
-1.12679e-18
-1.12962e-18
-1.12073e-18
-1.13494e-18
-1.13416e-18
-1.14078e-18
-1.08728e-18
-1.11065e-18
-1.09643e-18
-1.10816e-18
-1.09499e-18
-1.10859e-18
-1.10291e-18
-1.11084e-18
-1.10853e-18
-1.10248e-18
-1.1089e-18
-1.11115e-18
-1.11002e-18
-1.10956e-18
-1.11465e-18
-1.10652e-18
-1.11227e-18
-1.10098e-18
-1.11287e-18
-1.11978e-18
-1.11304e-18
-1.11616e-18
-1.11807e-18
-1.11521e-18
-1.12194e-18
-1.11799e-18
-1.1257e-18
-1.1242e-18
-1.12762e-18
-1.13675e-18
-1.13312e-18
-1.1354e-18
-1.08186e-18
-1.10794e-18
-1.09425e-18
-1.10846e-18
-1.09537e-18
-1.1083e-18
-1.0983e-18
-1.10785e-18
-1.10699e-18
-1.10368e-18
-1.10482e-18
-1.11197e-18
-1.1102e-18
-1.10684e-18
-1.10927e-18
-1.10813e-18
-1.11737e-18
-1.10265e-18
-1.10881e-18
-1.11595e-18
-1.11296e-18
-1.11701e-18
-1.11795e-18
-1.10886e-18
-1.11745e-18
-1.11874e-18
-1.12521e-18
-1.12799e-18
-1.13126e-18
-1.13651e-18
-1.13641e-18
-1.14262e-18
-1.09421e-18
-1.0994e-18
-1.10033e-18
-1.10932e-18
-1.10062e-18
-1.10747e-18
-1.10808e-18
-1.10648e-18
-1.10192e-18
-1.1055e-18
-1.10599e-18
-1.10411e-18
-1.11323e-18
-1.10292e-18
-1.10968e-18
-1.10538e-18
-1.11828e-18
-1.10768e-18
-1.11124e-18
-1.11742e-18
-1.11061e-18
-1.11896e-18
-1.11846e-18
-1.11819e-18
-1.1218e-18
-1.11638e-18
-1.12497e-18
-1.13171e-18
-1.13473e-18
-1.13476e-18
-1.13746e-18
-1.14289e-18
-1.09052e-18
-1.10535e-18
-1.09791e-18
-1.11009e-18
-1.11034e-18
-1.10253e-18
-1.11512e-18
-1.10279e-18
-1.09824e-18
-1.10292e-18
-1.10553e-18
-1.10117e-18
-1.11006e-18
-1.09989e-18
-1.11522e-18
-1.10535e-18
-1.11505e-18
-1.10817e-18
-1.1135e-18
-1.11783e-18
-1.1056e-18
-1.11683e-18
-1.12258e-18
-1.11895e-18
-1.12571e-18
-1.12054e-18
-1.12486e-18
-1.12741e-18
-1.13287e-18
-1.13107e-18
-1.13196e-18
-1.13822e-18
-1.09025e-18
-1.10714e-18
-1.09381e-18
-1.10531e-18
-1.0976e-18
-1.10444e-18
-1.11285e-18
-1.09709e-18
-1.08972e-18
-1.09515e-18
-1.09832e-18
-1.10201e-18
-1.09997e-18
-1.10523e-18
-1.11937e-18
-1.10875e-18
-1.11638e-18
-1.10799e-18
-1.10952e-18
-1.11467e-18
-1.11461e-18
-1.11594e-18
-1.12268e-18
-1.11822e-18
-1.12123e-18
-1.12411e-18
-1.12664e-18
-1.12481e-18
-1.12876e-18
-1.12818e-18
-1.12983e-18
-1.13599e-18
-1.09246e-18
-1.10356e-18
-1.09541e-18
-1.10936e-18
-1.09291e-18
-1.10358e-18
-1.10574e-18
-1.10571e-18
-1.09979e-18
-1.10068e-18
-1.10337e-18
-1.10315e-18
-1.10537e-18
-1.10736e-18
-1.11863e-18
-1.10939e-18
-1.11149e-18
-1.11169e-18
-1.11071e-18
-1.11712e-18
-1.11547e-18
-1.11657e-18
-1.1172e-18
-1.11887e-18
-1.11772e-18
-1.12146e-18
-1.12952e-18
-1.12371e-18
-1.12851e-18
-1.12964e-18
-1.12926e-18
-1.14142e-18
-1.09154e-18
-1.11085e-18
-1.10769e-18
-1.11479e-18
-1.10901e-18
-1.11171e-18
-1.10988e-18
-1.11008e-18
-1.10598e-18
-1.10691e-18
-1.11112e-18
-1.10332e-18
-1.10727e-18
-1.10645e-18
-1.1172e-18
-1.11119e-18
-1.11546e-18
-1.11019e-18
-1.10891e-18
-1.113e-18
-1.11355e-18
-1.1207e-18
-1.11348e-18
-1.12052e-18
-1.11923e-18
-1.11949e-18
-1.11828e-18
-1.11949e-18
-1.13456e-18
-1.12942e-18
-1.13241e-18
-1.14586e-18
-1.09552e-18
-1.10495e-18
-1.1028e-18
-1.10821e-18
-1.10692e-18
-1.11162e-18
-1.11304e-18
-1.1087e-18
-1.1076e-18
-1.10869e-18
-1.10919e-18
-1.10803e-18
-1.11023e-18
-1.10502e-18
-1.11316e-18
-1.11838e-18
-1.12413e-18
-1.10682e-18
-1.11629e-18
-1.11256e-18
-1.11219e-18
-1.11948e-18
-1.11341e-18
-1.11483e-18
-1.11978e-18
-1.11935e-18
-1.12339e-18
-1.12151e-18
-1.1261e-18
-1.12796e-18
-1.13243e-18
-1.14259e-18
-1.09889e-18
-1.10705e-18
-1.10342e-18
-1.10525e-18
-1.10952e-18
-1.10257e-18
-1.11634e-18
-1.1138e-18
-1.10911e-18
-1.10551e-18
-1.10567e-18
-1.10913e-18
-1.11435e-18
-1.10972e-18
-1.11436e-18
-1.11199e-18
-1.1178e-18
-1.10559e-18
-1.11912e-18
-1.11114e-18
-1.11809e-18
-1.11555e-18
-1.11214e-18
-1.11582e-18
-1.11888e-18
-1.12153e-18
-1.1228e-18
-1.11812e-18
-1.12804e-18
-1.13146e-18
-1.13216e-18
-1.10402e-18
-1.1089e-18
-1.09823e-18
-1.10781e-18
-1.11258e-18
-1.10335e-18
-1.11369e-18
-1.11241e-18
-1.10568e-18
-1.1063e-18
-1.11026e-18
-1.10603e-18
-1.11389e-18
-1.10902e-18
-1.10845e-18
-1.10947e-18
-1.114e-18
-1.11148e-18
-1.11792e-18
-1.10822e-18
-1.11852e-18
-1.11339e-18
-1.11555e-18
-1.11598e-18
-1.11718e-18
-1.12791e-18
-1.12166e-18
-1.11578e-18
-1.12611e-18
-1.13005e-18
-1.12954e-18
-1.1044e-18
-1.10737e-18
-1.1097e-18
-1.10742e-18
-1.10819e-18
-1.10806e-18
-1.12119e-18
-1.11048e-18
-1.10762e-18
-1.10528e-18
-1.11187e-18
-1.11466e-18
-1.10752e-18
-1.10731e-18
-1.11151e-18
-1.10684e-18
-1.11056e-18
-1.10872e-18
-1.11582e-18
-1.11019e-18
-1.118e-18
-1.11175e-18
-1.12145e-18
-1.11529e-18
-1.1159e-18
-1.12345e-18
-1.12135e-18
-1.11933e-18
-1.13105e-18
-1.13213e-18
-1.11151e-18
-1.09571e-18
-1.12033e-18
-1.10398e-18
-1.10617e-18
-1.11133e-18
-1.1193e-18
-1.11064e-18
-1.10791e-18
-1.10869e-18
-1.11122e-18
-1.10923e-18
-1.10975e-18
-1.11182e-18
-1.1149e-18
-1.10634e-18
-1.11062e-18
-1.1048e-18
-1.11831e-18
-1.11076e-18
-1.1197e-18
-1.11189e-18
-1.12066e-18
-1.11351e-18
-1.11839e-18
-1.11785e-18
-1.12266e-18
-1.12386e-18
-1.12829e-18
-1.12883e-18
-1.10534e-18
-1.09574e-18
-1.11005e-18
-1.09997e-18
-1.09939e-18
-1.10975e-18
-1.11883e-18
-1.11213e-18
-1.10494e-18
-1.10492e-18
-1.11236e-18
-1.10614e-18
-1.10871e-18
-1.10991e-18
-1.11396e-18
-1.1077e-18
-1.11268e-18
-1.10731e-18
-1.12004e-18
-1.10905e-18
-1.12287e-18
-1.10975e-18
-1.12292e-18
-1.11366e-18
-1.11707e-18
-1.1161e-18
-1.12091e-18
-1.11544e-18
-1.12493e-18
-1.12427e-18
-1.09983e-18
-1.10552e-18
-1.10234e-18
-1.10467e-18
-1.10599e-18
-1.10978e-18
-1.11207e-18
-1.10747e-18
-1.10482e-18
-1.10557e-18
-1.10703e-18
-1.10816e-18
-1.11473e-18
-1.10871e-18
-1.11497e-18
-1.11172e-18
-1.11512e-18
-1.10985e-18
-1.12503e-18
-1.11111e-18
-1.12077e-18
-1.11209e-18
-1.12526e-18
-1.11329e-18
-1.11751e-18
-1.11571e-18
-1.12038e-18
-1.11912e-18
-1.12673e-18
-1.12314e-18
-1.10016e-18
-1.10212e-18
-1.10347e-18
-1.1055e-18
-1.11243e-18
-1.10996e-18
-1.10791e-18
-1.10957e-18
-1.10154e-18
-1.10924e-18
-1.09953e-18
-1.10532e-18
-1.12035e-18
-1.10939e-18
-1.11325e-18
-1.10773e-18
-1.11476e-18
-1.11004e-18
-1.12101e-18
-1.11225e-18
-1.12173e-18
-1.11048e-18
-1.12388e-18
-1.11309e-18
-1.1205e-18
-1.11585e-18
-1.12164e-18
-1.12241e-18
-1.1297e-18
-1.12293e-18
-1.09691e-18
-1.10308e-18
-1.11039e-18
-1.10838e-18
-1.10954e-18
-1.10719e-18
-1.1096e-18
-1.10825e-18
-1.10446e-18
-1.11121e-18
-1.10962e-18
-1.10147e-18
-1.10645e-18
-1.1133e-18
-1.11039e-18
-1.10788e-18
-1.12165e-18
-1.11196e-18
-1.12158e-18
-1.11422e-18
-1.12268e-18
-1.11485e-18
-1.12188e-18
-1.11221e-18
-1.12083e-18
-1.11561e-18
-1.12307e-18
-1.12159e-18
-1.12551e-18
-1.12883e-18
-1.10682e-18
-1.10325e-18
-1.11246e-18
-1.10392e-18
-1.11335e-18
-1.10503e-18
-1.1099e-18
-1.11068e-18
-1.10481e-18
-1.10604e-18
-1.11091e-18
-1.10913e-18
-1.10976e-18
-1.11004e-18
-1.11501e-18
-1.1082e-18
-1.12029e-18
-1.11093e-18
-1.12198e-18
-1.11336e-18
-1.12569e-18
-1.11939e-18
-1.12426e-18
-1.11144e-18
-1.11789e-18
-1.11416e-18
-1.11576e-18
-1.1221e-18
-1.12217e-18
-1.13051e-18
-1.09886e-18
-1.1059e-18
-1.10514e-18
-1.10106e-18
-1.11688e-18
-1.11112e-18
-1.11248e-18
-1.11113e-18
-1.10639e-18
-1.10591e-18
-1.11015e-18
-1.11584e-18
-1.12038e-18
-1.11108e-18
-1.11481e-18
-1.10642e-18
-1.12261e-18
-1.10997e-18
-1.11787e-18
-1.11105e-18
-1.12633e-18
-1.11756e-18
-1.12573e-18
-1.11448e-18
-1.11755e-18
-1.11181e-18
-1.11432e-18
-1.12207e-18
-1.11859e-18
-1.12677e-18
-1.10061e-18
-1.10105e-18
-1.10916e-18
-1.11026e-18
-1.11748e-18
-1.10913e-18
-1.11443e-18
-1.10886e-18
-1.10354e-18
-1.10635e-18
-1.10792e-18
-1.1124e-18
-1.11832e-18
-1.11025e-18
-1.11789e-18
-1.11258e-18
-1.12365e-18
-1.11417e-18
-1.12377e-18
-1.10952e-18
-1.12775e-18
-1.11592e-18
-1.11904e-18
-1.10968e-18
-1.11824e-18
-1.1136e-18
-1.11785e-18
-1.12168e-18
-1.12052e-18
-1.13161e-18
-1.10741e-18
-1.10978e-18
-1.11534e-18
-1.11158e-18
-1.12063e-18
-1.11443e-18
-1.11738e-18
-1.10873e-18
-1.10821e-18
-1.10613e-18
-1.10566e-18
-1.10472e-18
-1.10958e-18
-1.11321e-18
-1.12061e-18
-1.11743e-18
-1.12461e-18
-1.11341e-18
-1.12459e-18
-1.11345e-18
-1.12651e-18
-1.11528e-18
-1.11429e-18
-1.1123e-18
-1.12006e-18
-1.11364e-18
-1.11918e-18
-1.12217e-18
-1.12059e-18
-1.12687e-18
-1.11219e-18
-1.11155e-18
-1.11426e-18
-1.11324e-18
-1.1132e-18
-1.11458e-18
-1.11443e-18
-1.11248e-18
-1.11496e-18
-1.10521e-18
-1.10135e-18
-1.10746e-18
-1.11009e-18
-1.11178e-18
-1.12501e-18
-1.11626e-18
-1.12752e-18
-1.1127e-18
-1.12183e-18
-1.11377e-18
-1.12248e-18
-1.11647e-18
-1.11815e-18
-1.10962e-18
-1.11873e-18
-1.11829e-18
-1.11986e-18
-1.12351e-18
-1.11758e-18
-1.12685e-18
-1.11222e-18
-1.10659e-18
-1.11293e-18
-1.11218e-18
-1.11393e-18
-1.11274e-18
-1.1109e-18
-1.10718e-18
-1.11579e-18
-1.10485e-18
-1.10231e-18
-1.10818e-18
-1.11339e-18
-1.11142e-18
-1.12097e-18
-1.11731e-18
-1.12698e-18
-1.1106e-18
-1.12031e-18
-1.11289e-18
-1.12173e-18
-1.1181e-18
-1.11946e-18
-1.11205e-18
-1.11909e-18
-1.1144e-18
-1.11836e-18
-1.123e-18
-1.12046e-18
-1.12591e-18
-1.11048e-18
-1.10798e-18
-1.10521e-18
-1.10805e-18
-1.11471e-18
-1.11165e-18
-1.10346e-18
-1.10764e-18
-1.1171e-18
-1.11102e-18
-1.10168e-18
-1.10686e-18
-1.11071e-18
-1.10872e-18
-1.11598e-18
-1.11455e-18
-1.1258e-18
-1.10712e-18
-1.11997e-18
-1.11707e-18
-1.12135e-18
-1.12095e-18
-1.11893e-18
-1.10988e-18
-1.12393e-18
-1.11584e-18
-1.11618e-18
-1.12133e-18
-1.12237e-18
-1.12187e-18
-1.11161e-18
-1.10486e-18
-1.10815e-18
-1.11623e-18
-1.11381e-18
-1.10285e-18
-1.10502e-18
-1.10862e-18
-1.11282e-18
-1.1092e-18
-1.10402e-18
-1.1056e-18
-1.11158e-18
-1.11455e-18
-1.12476e-18
-1.1135e-18
-1.12882e-18
-1.11231e-18
-1.11871e-18
-1.1142e-18
-1.11975e-18
-1.11768e-18
-1.11927e-18
-1.11255e-18
-1.12727e-18
-1.1177e-18
-1.11252e-18
-1.12115e-18
-1.1175e-18
-1.11669e-18
-1.10557e-18
-1.11615e-18
-1.10615e-18
-1.11298e-18
-1.11767e-18
-1.10323e-18
-1.10843e-18
-1.10896e-18
-1.11012e-18
-1.10611e-18
-1.10878e-18
-1.11086e-18
-1.10788e-18
-1.11877e-18
-1.1227e-18
-1.11379e-18
-1.11929e-18
-1.11348e-18
-1.12578e-18
-1.11446e-18
-1.11971e-18
-1.11302e-18
-1.11849e-18
-1.11327e-18
-1.12449e-18
-1.11472e-18
-1.11325e-18
-1.12466e-18
-1.11933e-18
-1.11774e-18
-1.09896e-18
-1.11202e-18
-1.10321e-18
-1.11012e-18
-1.1127e-18
-1.10119e-18
-1.12214e-18
-1.10835e-18
-1.11145e-18
-1.10224e-18
-1.10827e-18
-1.11811e-18
-1.11041e-18
-1.11396e-18
-1.11968e-18
-1.11569e-18
-1.11412e-18
-1.1135e-18
-1.12873e-18
-1.11628e-18
-1.12063e-18
-1.11671e-18
-1.11997e-18
-1.10958e-18
-1.12229e-18
-1.11223e-18
-1.11695e-18
-1.12325e-18
-1.11839e-18
-1.11559e-18
-1.1092e-18
-1.11214e-18
-1.10556e-18
-1.10833e-18
-1.11557e-18
-1.11443e-18
-1.12544e-18
-1.10706e-18
-1.12257e-18
-1.10127e-18
-1.10896e-18
-1.10646e-18
-1.11008e-18
-1.11239e-18
-1.11563e-18
-1.11491e-18
-1.12002e-18
-1.11313e-18
-1.12062e-18
-1.11766e-18
-1.1237e-18
-1.1169e-18
-1.12111e-18
-1.11124e-18
-1.11937e-18
-1.11658e-18
-1.11794e-18
-1.12018e-18
-1.1161e-18
-1.12004e-18
-1.10907e-18
-1.11247e-18
-1.10738e-18
-1.10551e-18
-1.12748e-18
-1.10808e-18
-1.12128e-18
-1.1013e-18
-1.1187e-18
-1.10156e-18
-1.11806e-18
-1.10431e-18
-1.1142e-18
-1.10893e-18
-1.11045e-18
-1.10889e-18
-1.121e-18
-1.11436e-18
-1.11671e-18
-1.11944e-18
-1.1206e-18
-1.11554e-18
-1.12256e-18
-1.11245e-18
-1.11868e-18
-1.11497e-18
-1.11825e-18
-1.12051e-18
-1.11816e-18
-1.12403e-18
-1.10696e-18
-1.10993e-18
-1.11092e-18
-1.10677e-18
-1.12399e-18
-1.10576e-18
-1.11666e-18
-1.09697e-18
-1.11776e-18
-1.1045e-18
-1.11374e-18
-1.10354e-18
-1.1186e-18
-1.1035e-18
-1.11294e-18
-1.11081e-18
-1.11923e-18
-1.11851e-18
-1.11915e-18
-1.11744e-18
-1.11706e-18
-1.11645e-18
-1.11932e-18
-1.11262e-18
-1.11887e-18
-1.11323e-18
-1.11921e-18
-1.11778e-18
-1.11809e-18
-1.12193e-18
-1.11138e-18
-1.1051e-18
-1.11358e-18
-1.10494e-18
-1.11827e-18
-1.10198e-18
-1.11784e-18
-1.1058e-18
-1.11421e-18
-1.10144e-18
-1.11692e-18
-1.10009e-18
-1.11159e-18
-1.10346e-18
-1.11872e-18
-1.11682e-18
-1.12018e-18
-1.11574e-18
-1.11539e-18
-1.11731e-18
-1.11732e-18
-1.11852e-18
-1.11508e-18
-1.11312e-18
-1.11994e-18
-1.11187e-18
-1.12157e-18
-1.11566e-18
-1.12045e-18
-1.12071e-18
-1.1106e-18
-1.10878e-18
-1.11622e-18
-1.10657e-18
-1.11587e-18
-1.09997e-18
-1.1204e-18
-1.11113e-18
-1.11027e-18
-1.09304e-18
-1.11257e-18
-1.10035e-18
-1.11356e-18
-1.11357e-18
-1.1126e-18
-1.11652e-18
-1.12219e-18
-1.11108e-18
-1.11654e-18
-1.1203e-18
-1.11877e-18
-1.11696e-18
-1.11517e-18
-1.11466e-18
-1.12317e-18
-1.11569e-18
-1.12054e-18
-1.11334e-18
-1.11979e-18
-1.11907e-18
-1.1101e-18
-1.10765e-18
-1.11395e-18
-1.10812e-18
-1.11688e-18
-1.10549e-18
-1.11236e-18
-1.11182e-18
-1.1126e-18
-1.09915e-18
-1.108e-18
-1.10455e-18
-1.11576e-18
-1.11128e-18
-1.11547e-18
-1.11288e-18
-1.1221e-18
-1.10855e-18
-1.12435e-18
-1.11852e-18
-1.11657e-18
-1.11481e-18
-1.11887e-18
-1.11599e-18
-1.12425e-18
-1.11312e-18
-1.12098e-18
-1.11563e-18
-1.11807e-18
-1.11576e-18
-1.11362e-18
-1.10251e-18
-1.12593e-18
-1.10688e-18
-1.11784e-18
-1.11709e-18
-1.12098e-18
-1.10681e-18
-1.10462e-18
-1.10547e-18
-1.11882e-18
-1.10974e-18
-1.12036e-18
-1.11048e-18
-1.12056e-18
-1.11048e-18
-1.1212e-18
-1.1093e-18
-1.11719e-18
-1.11563e-18
-1.11706e-18
-1.11827e-18
-1.08445e-18
-1.0854e-18
-1.08313e-18
-1.08527e-18
-1.08844e-18
-1.08121e-18
-1.08461e-18
-1.09019e-18
-1.07914e-18
-1.09095e-18
-1.07818e-18
-1.08314e-18
-1.08081e-18
-1.08564e-18
-1.07819e-18
-1.07681e-18
-1.08371e-18
-1.09094e-18
-1.08244e-18
-1.08218e-18
-1.08722e-18
-1.08115e-18
-1.07961e-18
-1.08473e-18
-1.07637e-18
-1.08443e-18
-1.07755e-18
-1.08891e-18
-1.0878e-18
-1.08782e-18
-1.09594e-18
-1.08364e-18
-1.08577e-18
-1.08283e-18
-1.08568e-18
-1.09002e-18
-1.09699e-18
-1.08151e-18
-1.07869e-18
-1.08824e-18
-1.09655e-18
-1.07709e-18
-1.08701e-18
-1.09364e-18
-1.07828e-18
-1.08729e-18
-1.08392e-18
-1.07761e-18
-1.0864e-18
-1.08998e-18
-1.08519e-18
-1.08032e-18
-1.08324e-18
-1.08992e-18
-1.09142e-18
-1.08345e-18
-1.07577e-18
-1.07969e-18
-1.09847e-18
-1.08749e-18
-1.07906e-18
-1.08556e-18
-1.09179e-18
-1.08229e-18
-1.0874e-18
-1.08706e-18
-1.08507e-18
-1.07842e-18
-1.07434e-18
-1.07609e-18
-1.08374e-18
-1.08084e-18
-1.08252e-18
-1.07874e-18
-1.08083e-18
-1.08372e-18
-1.08047e-18
-1.08466e-18
-1.09094e-18
-1.08614e-18
-1.07869e-18
-1.08017e-18
-1.08104e-18
-1.08623e-18
-1.08769e-18
-1.083e-18
-1.09903e-18
-1.08352e-18
-1.08954e-18
-1.08719e-18
-1.09652e-18
-1.08239e-18
-1.08891e-18
-1.09535e-18
-1.08765e-18
-1.08248e-18
-1.09137e-18
-1.09288e-18
-1.07528e-18
-1.07699e-18
-1.08712e-18
-1.08178e-18
-1.08658e-18
-1.08409e-18
-1.08226e-18
-1.08045e-18
-1.08476e-18
-1.10127e-18
-1.08425e-18
-1.08304e-18
-1.08051e-18
-1.07015e-18
-1.09108e-18
-1.08717e-18
-1.08145e-18
-1.08351e-18
-1.08715e-18
-1.09057e-18
-1.08165e-18
-1.08838e-18
-1.09543e-18
-1.09463e-18
-1.08799e-18
-1.08845e-18
-1.09461e-18
-1.11202e-18
-1.09546e-18
-1.0948e-18
-1.10941e-18
-1.09836e-18
-1.09789e-18
-1.09088e-18
-1.10225e-18
-1.09131e-18
-1.08642e-18
-1.07962e-18
-1.08608e-18
-1.09228e-18
-1.0784e-18
-1.0794e-18
-1.07973e-18
-1.07803e-18
-1.08551e-18
-1.08317e-18
-1.09638e-18
-1.08261e-18
-1.08741e-18
-1.09178e-18
-1.08872e-18
-1.08544e-18
-1.07664e-18
-1.08123e-18
-1.09175e-18
-1.08599e-18
-1.08392e-18
-1.07981e-18
-1.08599e-18
-1.0809e-18
-1.08694e-18
-1.09242e-18
-1.10508e-18
-1.10574e-18
-1.09113e-18
-1.09338e-18
-1.09927e-18
-1.10149e-18
-1.09793e-18
-1.10444e-18
-1.10433e-18
-1.09859e-18
-1.09539e-18
-1.09353e-18
-1.08936e-18
-1.09741e-18
-1.08946e-18
-1.08183e-18
-1.08324e-18
-1.08304e-18
-1.08988e-18
-1.07525e-18
-1.08029e-18
-1.07141e-18
-1.08022e-18
-1.09441e-18
-1.08576e-18
-1.09761e-18
-1.08296e-18
-1.08811e-18
-1.09344e-18
-1.08558e-18
-1.09194e-18
-1.07741e-18
-1.08544e-18
-1.08275e-18
-1.08587e-18
-1.08707e-18
-1.07964e-18
-1.08732e-18
-1.0833e-18
-1.09282e-18
-1.08893e-18
-1.09601e-18
-1.09601e-18
-1.09598e-18
-1.09819e-18
-1.09523e-18
-1.09362e-18
-1.09724e-18
-1.10571e-18
-1.11689e-18
-1.09216e-18
-1.09633e-18
-1.09766e-18
-1.09238e-18
-1.08492e-18
-1.1024e-18
-1.0897e-18
-1.07937e-18
-1.08554e-18
-1.07572e-18
-1.08788e-18
-1.07982e-18
-1.08251e-18
-1.09297e-18
-1.08229e-18
-1.08887e-18
-1.09383e-18
-1.08597e-18
-1.07954e-18
-1.09239e-18
-1.06928e-18
-1.08323e-18
-1.09122e-18
-1.08293e-18
-1.08757e-18
-1.08486e-18
-1.08316e-18
-1.09197e-18
-1.08887e-18
-1.09063e-18
-1.07863e-18
-1.09015e-18
-1.08754e-18
-1.0834e-18
-1.08997e-18
-1.09217e-18
-1.10058e-18
-1.09316e-18
-1.0902e-18
-1.09778e-18
-1.10545e-18
-1.09747e-18
-1.10783e-18
-1.09347e-18
-1.09627e-18
-1.08925e-18
-1.0918e-18