/*--------------------------------*- C++ -*----------------------------------*\
  =========                 |
  \\      /  F ield         | OpenFOAM: The Open Source CFD Toolbox
   \\    /   O peration     | Website:  https://openfoam.org
    \\  /    A nd           | Version:  7
     \\/     M anipulation  |
\*---------------------------------------------------------------------------*/
FoamFile
{
    version     2.0;
    format      ascii;
    class       volVectorField;
    location    "20000";
    object      vorticity;
}
// * * * * * * * * * * * * * * * * * * * * * * * * * * * * * * * * * * * * * //

dimensions      [0 0 -1 0 0 0 0];

internalField   nonuniform List<vector> 
4850
(
(0.00486828 0.00330086 -2.67388e-18)
(0.00419691 0.00385785 3.35108e-18)
(0.00496494 0.00341281 -3.49736e-18)
(0.0043057 0.00395674 3.39165e-18)
(0.00435635 0.00378782 1.72063e-18)
(0.00506286 0.00352523 -2.96013e-18)
(0.00441538 0.00405646 2.90369e-18)
(0.00446877 0.00388367 2.14811e-18)
(0.00451795 0.00371262 3.55586e-18)
(0.00456482 0.00354139 2.21267e-18)
(0.00516207 0.00363819 2.67161e-18)
(0.004526 0.00415703 4.07025e-18)
(0.00458213 0.00398034 2.90547e-18)
(0.00463399 0.00380523 4.00346e-18)
(0.0046834 0.00362987 2.58792e-18)
(0.00473037 0.00345431 2.36582e-19)
(0.00526258 0.00375176 7.0388e-18)
(0.0046376 0.00425849 7.29335e-18)
(0.00469647 0.00407785 4.17722e-18)
(0.00475103 0.00389865 4.358e-18)
(0.00480298 0.00371915 3.10092e-18)
(0.00485236 0.00353939 3.65791e-19)
(0.0048992 0.00335939 -2.66043e-18)
(0.00536443 0.003866 8.37335e-18)
(0.00475022 0.00436089 9.5872e-18)
(0.00481185 0.00417625 4.13428e-18)
(0.00486911 0.00399292 3.77943e-18)
(0.00492362 0.00380924 2.81967e-18)
(0.0049754 0.00362524 -3.41934e-19)
(0.00502452 0.00344097 -2.7328e-18)
(0.00507098 0.00325646 5.374e-19)
(0.00511481 0.00307172 2.07366e-18)
(0.00546763 0.00398097 7.03063e-18)
(0.00486393 0.00446427 7.81445e-18)
(0.00492833 0.00427559 3.48766e-18)
(0.00498829 0.00408808 3.81318e-18)
(0.00504535 0.00390017 2.89274e-18)
(0.00509956 0.0037119 -9.45845e-19)
(0.00515095 0.00352332 -2.48542e-18)
(0.00519954 0.00333446 1.28888e-18)
(0.00524536 0.00314535 3.25621e-18)
(0.00528843 0.00295598 2.48587e-18)
(0.00557223 0.00409676 3.80001e-18)
(0.00497876 0.00456868 3.64922e-18)
(0.00504594 0.00437589 3.44967e-18)
(0.0051086 0.00418416 3.88472e-18)
(0.00516823 0.00399198 2.24936e-18)
(0.00522487 0.0037994 -1.4671e-18)
(0.00527853 0.00360647 -2.28291e-18)
(0.00532926 0.00341322 1.50021e-18)
(0.00537708 0.00321969 2.9457e-18)
(0.00542202 0.00302589 2.94049e-18)
(0.0054641 0.00283183 2.7807e-18)
(0.00550336 0.00263756 2.21818e-18)
(0.00553981 0.00244308 1.38482e-18)
(0.00557343 0.00224836 1.36821e-18)
(0.00567825 0.0042134 3.10605e-18)
(0.00509477 0.00467415 1.15472e-18)
(0.00516473 0.0044772 3.32174e-18)
(0.0052301 0.0042812 3.32279e-18)
(0.00529231 0.00408471 1.01851e-18)
(0.00535136 0.00388777 -1.44326e-18)
(0.00540732 0.00369044 -1.44005e-18)
(0.00546019 0.00349276 1.90609e-18)
(0.00551002 0.00329477 2.96444e-18)
(0.00555684 0.00309649 3.32996e-18)
(0.00560067 0.00289793 3.39985e-18)
(0.00564155 0.00269914 2.61099e-18)
(0.00567948 0.00250011 2.52899e-18)
(0.00571447 0.00230086 2.35238e-18)
(0.0057465 0.00210141 1.60982e-18)
(0.00577564 0.00190178 1.90532e-18)
(0.00580185 0.00170199 4.26455e-18)
(0.00582515 0.00150206 3.45999e-18)
(0.00578571 0.00433097 2.03178e-18)
(0.00521198 0.00478073 5.07283e-19)
(0.00528474 0.00457957 3.042e-18)
(0.00535284 0.00437924 2.69192e-18)
(0.00541762 0.00417838 6.0006e-19)
(0.00547911 0.00397704 -7.99009e-19)
(0.00553735 0.00377526 -5.79635e-19)
(0.00559239 0.00357311 2.22135e-18)
(0.00564424 0.00337061 3.10383e-18)
(0.00569295 0.00316781 3.2028e-18)
(0.00573854 0.0029647 3.44266e-18)
(0.00578103 0.00276134 2.21087e-18)
(0.00582046 0.00255774 1.89875e-18)
(0.00585682 0.0023539 1.73297e-18)
(0.00589011 0.00214986 1.77235e-18)
(0.00592038 0.00194562 2.86491e-18)
(0.00594761 0.00174123 4.90579e-18)
(0.00597179 0.00153669 4.87845e-18)
(0.00599293 0.00133202 1.30126e-18)
(0.00601105 0.00112725 9.46413e-19)
(0.00589464 0.00444951 2.29323e-19)
(0.00533045 0.00488847 7.42961e-19)
(0.00540603 0.00468303 3.23252e-18)
(0.00547685 0.00447831 2.49729e-18)
(0.00554421 0.00427304 6.2357e-19)
(0.00560815 0.00406724 -2.55048e-19)
(0.0056687 0.00386098 9.46755e-21)
(0.0057259 0.0036543 1.59347e-18)
(0.00577978 0.00344725 2.61499e-18)
(0.0058304 0.00323988 3.10448e-18)
(0.00587774 0.00303217 3.06794e-18)
(0.00592187 0.00282419 1.32319e-18)
(0.0059628 0.00261596 1.69968e-18)
(0.00600054 0.0024075 1.49583e-18)
(0.00603511 0.00219881 1.66627e-18)
(0.00606652 0.00198992 2.88377e-18)
(0.00609477 0.00178088 4.96652e-18)
(0.00611984 0.00157168 6.12291e-18)
(0.00614177 0.00136236 2.75833e-18)
(0.00616054 0.00115292 1.27577e-18)
(0.00617618 0.000943382 1.71122e-18)
(0.00618869 0.000733775 1.84988e-18)
(0.00619807 0.000524118 2.37142e-18)
(0.00620432 0.000314411 1.13855e-19)
(0.0060051 0.00456909 -7.85464e-19)
(0.00545024 0.0049974 6.76449e-19)
(0.00552866 0.00478763 3.37684e-18)
(0.0056022 0.00457848 1.51089e-18)
(0.00567215 0.00436872 2.03259e-19)
(0.00573855 0.00415842 5.7422e-19)
(0.00580142 0.00394761 4.35337e-19)
(0.0058608 0.00373636 1.00669e-18)
(0.00591672 0.00352471 2.41821e-18)
(0.00596924 0.00331271 3.4773e-18)
(0.00601836 0.00310037 3.38987e-18)
(0.00606413 0.00288772 1.6027e-18)
(0.00610657 0.00267481 1.5864e-18)
(0.00614571 0.00246166 4.85316e-19)
(0.00618156 0.00224828 6.95312e-19)
(0.00621411 0.0020347 2.57243e-18)
(0.00624337 0.00182095 5.04057e-18)
(0.00626936 0.00160705 6.81191e-18)
(0.00629208 0.00139302 3.09906e-18)
(0.00631153 0.00117887 7.10248e-19)
(0.00632773 0.000964619 2.25699e-18)
(0.00634067 0.000750295 3.51591e-18)
(0.00635038 0.000535916 4.27367e-18)
(0.00635685 0.000321493 1.9132e-18)
(0.00636008 0.000107031 1.12799e-18)
(0.0063601 -0.000107425 1.02834e-17)
(0.00635687 -0.000321848 1.67415e-17)
(0.00635039 -0.000536257 1.14768e-17)
(0.00634066 -0.000750637 8.31982e-18)
(0.00611711 0.00468977 -9.33882e-19)
(0.00557141 0.00510759 3.09132e-19)
(0.00565266 0.00489343 3.06362e-18)
(0.00572895 0.00467978 9.57537e-19)
(0.0058015 0.00446548 2.38841e-19)
(0.00587036 0.00425061 1.62866e-18)
(0.00593557 0.00403521 1.12388e-18)
(0.00599714 0.00381933 8.65315e-19)
(0.00605511 0.00360303 2.48331e-18)
(0.00610955 0.00338635 3.96944e-18)
(0.00616047 0.00316932 3.44429e-18)
(0.00620788 0.00295195 1.19106e-18)
(0.00625185 0.00273431 9.63184e-19)
(0.00629239 0.00251642 -1.57391e-20)
(0.00632951 0.00229829 2.85691e-19)
(0.0063632 0.00207996 2.70586e-18)
(0.00639349 0.00186146 5.11702e-18)
(0.0064204 0.00164281 6.63472e-18)
(0.0064439 0.00142401 2.267e-18)
(0.00646404 0.0012051 7.85851e-20)
(0.00648079 0.000986085 2.5949e-18)
(0.0064942 0.000766995 3.61852e-18)
(0.00650424 0.000547843 4.25423e-18)
(0.00651095 0.00032865 1.85209e-18)
(0.00651429 0.000109418 1.81019e-18)
(0.00651428 -0.000109809 1.19829e-17)
(0.00651092 -0.000329001 1.89647e-17)
(0.00650422 -0.000548175 1.39287e-17)
(0.00649414 -0.000767312 1.20526e-17)
(0.00648069 -0.00098638 1.50463e-17)
(0.00646387 -0.00120537 1.65765e-17)
(0.0064437 -0.00142426 1.48287e-17)
(0.00623074 0.00481163 -4.53891e-19)
(0.005694 0.00521907 -2.47654e-19)
(0.00577811 0.00500046 2.48898e-18)
(0.00585716 0.00478227 5.03034e-19)
(0.00593232 0.00456337 8.89076e-20)
(0.00600366 0.00434385 2.52349e-18)
(0.0060712 0.0041238 1.55579e-18)
(0.00613497 0.00390324 1.01592e-18)
(0.00619502 0.00368223 2.86141e-18)
(0.00625138 0.00346081 3.98332e-18)
(0.00630411 0.00323905 3.42036e-18)
(0.00635319 0.00301691 1.28763e-18)
(0.0063987 0.00279449 8.76631e-19)
(0.00644064 0.0025718 -3.39436e-19)
(0.00647902 0.00234887 -5.03803e-19)
(0.00651386 0.00212573 2.49919e-18)
(0.00654518 0.00190242 5.1298e-18)
(0.006573 0.00167895 6.16042e-18)
(0.00659731 0.00145535 1.87244e-18)
(0.00661813 0.00123162 -1.97508e-19)
(0.00663546 0.00100779 1.75643e-18)
(0.00664932 0.000783878 2.7486e-18)
(0.00665971 0.000559903 3.94117e-18)
(0.00666663 0.000335882 1.39178e-18)
(0.0066701 0.000111834 1.79274e-18)
(0.00667006 -0.000112212 1.2208e-17)
(0.00666659 -0.00033623 1.84551e-17)
(0.00665965 -0.000560222 1.34378e-17)
(0.00664923 -0.000784172 1.24609e-17)
(0.00663534 -0.00100806 1.74545e-17)
(0.00661796 -0.00123187 2.03719e-17)
(0.00659708 -0.00145557 2.03695e-17)
(0.00657271 -0.00167912 3.11323e-17)
(0.00654486 -0.0019025 4.50004e-17)
(0.00634601 0.00493471 -2.59354e-20)
(0.00581806 0.0053319 3.56434e-19)
(0.00590505 0.00510876 2.01e-18)
(0.00598688 0.00488596 2.31978e-19)
(0.00606468 0.00466241 9.01695e-19)
(0.00613851 0.00443821 3.24679e-18)
(0.00620839 0.00421342 1.61798e-18)
(0.00627437 0.00398813 1.47875e-18)
(0.0063365 0.00376235 3.22925e-18)
(0.0063948 0.00353614 3.77071e-18)
(0.00644933 0.00330956 3.76029e-18)
(0.0065001 0.00308262 1.21325e-18)
(0.00654714 0.00285535 6.37614e-19)
(0.00659049 0.00262782 -2.65029e-19)
(0.00663014 0.00240003 -9.0837e-19)
(0.00666614 0.00217203 2.02314e-18)
(0.0066985 0.00194385 4.74943e-18)
(0.00672724 0.00171551 5.26581e-18)
(0.00675236 0.00148705 1.70348e-18)
(0.00677387 0.00125845 3.7346e-20)
(0.00679178 0.00102974 1.19872e-18)
(0.0068061 0.000800949 2.13267e-18)
(0.00681684 0.000572098 4.11998e-18)
(0.00682398 0.000343201 1.36493e-18)
(0.00682754 0.000114283 6.4587e-19)
(0.0068275 -0.000114638 1.11106e-17)
(0.0068239 -0.000343542 1.62323e-17)
(0.00681675 -0.000572407 1.19067e-17)
(0.00680599 -0.000801229 1.22639e-17)
(0.00679165 -0.00102999 1.73332e-17)
(0.0067737 -0.00125866 1.98308e-17)
(0.00675213 -0.00148723 2.15998e-17)
(0.00672692 -0.00171565 4.00237e-17)
(0.00669812 -0.00194389 7.65164e-17)
(0.00646297 0.00505908 -2.88951e-19)
(0.00594365 0.00544613 1.20712e-18)
(0.00603353 0.0052184 1.53013e-18)
(0.00611816 0.00499092 2.6255e-19)
(0.00619863 0.00476266 1.73437e-18)
(0.00627497 0.00453371 3.6719e-18)
(0.0063472 0.00430413 2.35004e-18)
(0.0064154 0.00407402 2.3955e-18)
(0.00647961 0.00384341 3.5051e-18)
(0.00653986 0.00361235 3.56411e-18)
(0.0065962 0.00338091 3.47806e-18)
(0.00664866 0.00314909 8.12815e-19)
(0.00669724 0.00291693 4.91447e-19)
(0.006742 0.00268449 3.15283e-19)
(0.00678295 0.0024518 -7.50657e-19)
(0.00682011 0.00221888 1.73172e-18)
(0.00685354 0.00198577 4.46535e-18)
(0.00688319 0.0017525 4.70134e-18)
(0.00690913 0.00151911 1.41083e-18)
(0.00693133 0.00128558 7.95978e-20)
(0.00694982 0.00105194 1.05423e-18)
(0.0069646 0.000818217 1.61806e-18)
(0.00697567 0.000584437 4.01181e-18)
(0.00698304 0.000350612 1.38956e-18)
(0.00698671 0.000116763 1.37972e-19)
(0.00698667 -0.000117091 1.05599e-17)
(0.00698295 -0.000350938 1.47255e-17)
(0.00697557 -0.000584737 1.03981e-17)
(0.00696447 -0.000818488 1.19407e-17)
(0.00694968 -0.00105218 1.62511e-17)
(0.00693114 -0.00128577 1.80317e-17)
(0.00690887 -0.00151925 1.94323e-17)
(0.00688286 -0.00175259 4.20292e-17)
(0.00685311 -0.00198576 1.10305e-16)
(0.00658166 0.0051848 -4.23973e-19)
(0.00607082 0.00556181 2.35843e-18)
(0.00616363 0.00532941 1.42842e-18)
(0.00625107 0.00509718 9.00149e-19)
(0.00633421 0.00486414 2.80049e-18)
(0.00641308 0.00463038 4.02708e-18)
(0.00648769 0.00439597 2.95845e-18)
(0.00655812 0.00416098 3.0375e-18)
(0.00662442 0.00392547 3.33921e-18)
(0.00668663 0.0036895 2.75327e-18)
(0.00674478 0.00345312 2.52868e-18)
(0.00679894 0.00321637 9.4871e-19)
(0.00684908 0.00297925 1.12903e-18)
(0.00689526 0.00274185 1.41488e-18)
(0.00693751 0.00250418 -3.34156e-19)
(0.00697586 0.00226628 1.59803e-18)
(0.00701033 0.00202819 4.70977e-18)
(0.00704091 0.00178993 4.70135e-18)
(0.00706766 0.00155155 3.53292e-19)
(0.00709058 0.00131303 -6.0238e-19)
(0.00710965 0.00107441 1.20965e-18)
(0.00712489 0.000835696 1.4057e-18)
(0.00713628 0.000596925 3.47968e-18)
(0.00714389 0.000358108 1.12264e-18)
(0.00714768 0.000119271 7.36744e-19)
(0.00714766 -0.000119574 9.77996e-18)
(0.00714382 -0.000358419 1.2638e-17)
(0.00713619 -0.000597214 9.41277e-18)
(0.00712476 -0.000835955 1.20326e-17)
(0.00710948 -0.00107462 1.54156e-17)
(0.00709036 -0.00131319 1.70176e-17)
(0.0070674 -0.00155166 2.02678e-17)
(0.00704058 -0.00178998 4.89366e-17)
(0.00700988 -0.00202811 1.42157e-16)
(0.00670213 0.00531192 4.51322e-19)
(0.00619965 0.00567899 3.80253e-18)
(0.00629541 0.00544186 8.97487e-19)
(0.00638568 0.00520481 1.09705e-18)
(0.00647151 0.00496691 3.51739e-18)
(0.00655291 0.00472827 4.20719e-18)
(0.00662992 0.00448896 3.39469e-18)
(0.00670259 0.00424903 3.03624e-18)
(0.006771 0.00400856 3.49958e-18)
(0.00683518 0.00376761 2.97479e-18)
(0.00689515 0.00352623 2.20616e-18)
(0.00695101 0.00328447 1.51238e-18)
(0.00700272 0.00304234 1.09066e-18)
(0.00705035 0.00279992 1.69206e-18)
(0.00709392 0.00255722 6.69513e-20)
(0.00713346 0.00231427 1.13814e-18)
(0.00716897 0.00207113 4.09672e-18)
(0.00720049 0.00182783 3.86565e-18)
(0.00722805 0.00158438 -5.87255e-19)
(0.00725167 0.00134082 -6.66869e-19)
(0.00727133 0.00109714 2.07375e-18)
(0.00728702 0.000853391 1.4941e-18)
(0.00729876 0.000609567 2.53398e-18)
(0.0073066 0.000365689 1.06329e-18)
(0.00731052 0.000121802 1.80766e-18)
(0.00731051 -0.00012209 8.56492e-18)
(0.00730656 -0.000365986 1.10974e-17)
(0.00729868 -0.000609841 9.36991e-18)
(0.00728689 -0.00085363 1.19996e-17)
(0.00727115 -0.00109734 1.43636e-17)
(0.00725145 -0.00134095 1.52196e-17)
(0.00722778 -0.00158446 1.89133e-17)
(0.00720013 -0.00182782 4.00194e-17)
(0.0071685 -0.00207099 1.11919e-16)
(0.00682442 0.00544049 3.12476e-19)
(0.00633019 0.00579773 4.96161e-18)
(0.00642892 0.0055558 8.89469e-19)
(0.00652204 0.00531386 1.83554e-18)
(0.00661057 0.00507102 3.92142e-18)
(0.00669452 0.00482742 4.01716e-18)
(0.00677394 0.00458314 3.4581e-18)
(0.00684887 0.0043382 2.59728e-18)
(0.0069194 0.00409271 4.01662e-18)
(0.00698555 0.00384671 2.44605e-18)
(0.00704739 0.00360026 1.29686e-18)
(0.00710495 0.00335343 2.07738e-18)
(0.00715824 0.00310623 8.72193e-19)
(0.00720733 0.00285871 1.95494e-18)
(0.00725223 0.00261092 5.77068e-20)
(0.00729296 0.00236287 6.51744e-19)
(0.00732953 0.00211462 3.52956e-18)
(0.00736199 0.0018662 2.90785e-18)
(0.00739036 0.00161763 -1.1299e-18)
(0.00741468 0.00136894 -2.94041e-19)
(0.00743492 0.00112016 3.1262e-18)
(0.00745108 0.000871305 1.56243e-18)
(0.00746318 0.000622364 1.087e-18)
(0.00747126 0.000373364 5.88672e-19)
(0.0074753 0.00012436 2.53739e-18)
(0.00747529 -0.000124641 7.9481e-18)
(0.00747122 -0.000373645 1.02296e-17)
(0.0074631 -0.000622619 9.12065e-18)
(0.00745095 -0.000871522 1.15655e-17)
(0.00743474 -0.00112034 1.36099e-17)
(0.00741448 -0.00136906 1.411e-17)
(0.0073901 -0.00161767 1.85101e-17)
(0.00736161 -0.00186613 3.62476e-17)
(0.00732903 -0.00211442 8.7481e-17)
(0.00694861 0.0055706 -7.11609e-19)
(0.00646248 0.00591805 5.53832e-18)
(0.00656422 0.00567126 1.87559e-18)
(0.00666023 0.00542437 2.09742e-18)
(0.00675147 0.00517653 3.55445e-18)
(0.00683798 0.0049279 3.83889e-18)
(0.00691982 0.00467856 3.6311e-18)
(0.00699704 0.00442855 2.35373e-18)
(0.0070697 0.00417795 4.02731e-18)
(0.00713785 0.00392684 9.54492e-19)
(0.00720155 0.00367526 1.39418e-18)
(0.00726083 0.00342329 3.17474e-18)
(0.00731571 0.00317094 2.18221e-19)
(0.00736625 0.00291825 1.7075e-18)
(0.00741249 0.0026653 1.2757e-19)
(0.00745442 0.00241209 8.41962e-19)
(0.00749206 0.00215867 2.95835e-18)
(0.00752548 0.00190507 1.75296e-18)
(0.00755466 0.00165131 -1.54545e-18)
(0.00757967 0.00139743 -1.84945e-19)
(0.0076005 0.00114348 3.64287e-18)
(0.00761714 0.000889443 1.92186e-18)
(0.00762961 0.000635318 3.23772e-19)
(0.00763793 0.000381137 4.2251e-19)
(0.00764207 0.000126956 3.08735e-18)
(0.00764204 -0.000127224 7.83413e-18)
(0.00763787 -0.000381404 9.4372e-18)
(0.00762953 -0.000635557 8.39017e-18)
(0.00761702 -0.000889642 1.10671e-17)
(0.00760034 -0.00114364 1.28844e-17)
(0.00757949 -0.00139753 1.28199e-17)
(0.00755441 -0.0016513 1.75082e-17)
(0.00752509 -0.00190494 3.13191e-17)
(0.00749155 -0.00215841 6.26951e-17)
(0.00707474 0.00570231 -3.45029e-19)
(0.00659658 0.00604003 5.303e-18)
(0.00670136 0.00578829 2.54379e-18)
(0.00680028 0.00553638 2.49689e-18)
(0.00689427 0.00528347 3.53738e-18)
(0.00698337 0.00502974 3.71095e-18)
(0.00706764 0.00477527 3.258e-18)
(0.00714715 0.00452011 1.66753e-18)
(0.00722197 0.00426434 3.58721e-18)
(0.00729213 0.00400804 1.43395e-19)
(0.00735772 0.00375126 2.46155e-18)
(0.00741871 0.00349407 4.08883e-18)
(0.0074752 0.0032365 -6.84222e-20)
(0.00752721 0.00297858 1.45521e-18)
(0.00757478 0.00272039 2.5293e-19)
(0.00761792 0.00246195 2.3333e-19)
(0.00765665 0.00220329 1.83595e-18)
(0.00769102 0.00194444 1.06423e-18)
(0.00772103 0.00168543 -1.06441e-18)
(0.00774675 0.0014263 3.50667e-19)
(0.00776816 0.00116709 3.95422e-18)
(0.00778529 0.000907812 2.14811e-18)
(0.00779811 0.000648438 2.636e-19)
(0.00780667 0.000389012 4.27663e-19)
(0.00781092 0.000129589 2.8819e-18)
(0.00781089 -0.000129839 7.77387e-18)
(0.0078066 -0.00038927 9.23875e-18)
(0.00779803 -0.000648666 7.56236e-18)
(0.00778517 -0.000907996 1.00649e-17)
(0.00776802 -0.00116724 1.21773e-17)
(0.00774657 -0.00142638 1.1857e-17)
(0.00772079 -0.00168538 1.57719e-17)
(0.00769065 -0.00194425 2.60348e-17)
(0.00765614 -0.00220298 4.45576e-17)
(0.00720287 0.00583568 8.15022e-19)
(0.00673259 0.00616374 5.16072e-18)
(0.00684041 0.00590695 2.89413e-18)
(0.00694227 0.00564994 2.20049e-18)
(0.00703902 0.0053919 3.21935e-18)
(0.00713073 0.00513297 3.54013e-18)
(0.00721746 0.0048733 2.72326e-18)
(0.00729929 0.00461292 1.47699e-18)
(0.00737627 0.0043519 3.10014e-18)
(0.00744847 0.00409033 9.95478e-20)
(0.00751594 0.00382828 3.04422e-18)
(0.00757868 0.00356581 4.02692e-18)
(0.00763678 0.00330294 2.4669e-20)
(0.00769027 0.00303973 1.65141e-18)
(0.00773916 0.00277622 1.76489e-19)
(0.00778354 0.00251247 -1.06066e-18)
(0.00782336 0.0022485 7.03368e-19)
(0.00785869 0.00198434 5.88792e-19)
(0.00788955 0.00172001 -6.35028e-19)
(0.00791598 0.00145555 7.65508e-19)
(0.00793799 0.00119102 4.5007e-18)
(0.00795558 0.000926421 2.30741e-18)
(0.00796878 0.000661733 -3.26667e-20)
(0.00797756 0.000396992 2.93819e-19)
(0.00798193 0.000132257 2.63714e-18)
(0.00798191 -0.000132489 7.45337e-18)
(0.00797749 -0.000397239 8.86669e-18)
(0.00796869 -0.000661953 7.14967e-18)
(0.00795547 -0.000926597 9.50468e-18)
(0.00793786 -0.00119115 1.15808e-17)
(0.00791579 -0.0014556 1.06668e-17)
(0.0078893 -0.00171992 1.39078e-17)
(0.00785834 -0.0019841 2.16349e-17)
(0.00782287 -0.00224813 3.2652e-17)
(0.00733305 0.00597079 6.19636e-19)
(0.00687057 0.00628924 4.72045e-18)
(0.00698145 0.00602731 2.79972e-18)
(0.00708626 0.00576511 1.73165e-18)
(0.0071858 0.00550185 3.21235e-18)
(0.00728013 0.00523767 3.65934e-18)
(0.00736934 0.0049727 2.43595e-18)
(0.0074535 0.00470701 1.46719e-18)
(0.00753267 0.00444068 2.27306e-18)
(0.0076069 0.00417376 6.20482e-19)
(0.00767628 0.00390636 2.96279e-18)
(0.0077408 0.00363854 3.54497e-18)
(0.00780052 0.0033703 3.80715e-19)
(0.00785548 0.00310171 1.80504e-18)
(0.00790573 0.00283281 -1.2439e-19)
(0.00795133 0.00256368 -1.7328e-18)
(0.00799227 0.00229433 2.1324e-19)
(0.00802857 0.00202478 1.02644e-18)
(0.0080603 0.00175506 -3.55232e-19)
(0.00808745 0.00148521 4.80154e-19)
(0.00811005 0.00121528 4.97508e-18)
(0.00812811 0.000945284 2.23654e-18)
(0.00814167 0.000675207 -3.26129e-19)
(0.00815069 0.000405083 2.87524e-19)
(0.00815517 0.000134959 2.25286e-18)
(0.00815515 -0.000135176 6.95191e-18)
(0.00815062 -0.000405316 8.23316e-18)
(0.00814159 -0.000675419 7.11088e-18)
(0.008128 -0.000945451 9.46699e-18)
(0.00810991 -0.00121539 1.08996e-17)
(0.00808724 -0.00148522 9.35828e-18)
(0.00806002 -0.00175493 1.24033e-17)
(0.00802823 -0.00202449 1.79857e-17)
(0.00799181 -0.00229389 2.37707e-17)
(0.00795069 -0.00256311 4.56949e-18)
(0.00746536 0.0061077 -1.26548e-18)
(0.00701055 0.00641657 4.10013e-18)
(0.00712455 0.00614944 2.98989e-18)
(0.00723231 0.00588195 1.6063e-18)
(0.00733468 0.00561339 3.72948e-18)
(0.00743166 0.00534387 3.65413e-18)
(0.00752335 0.00507352 2.11501e-18)
(0.00760986 0.00480245 1.35873e-18)
(0.00769124 0.00453071 2.12811e-18)
(0.00776755 0.00425837 1.44199e-18)
(0.00783884 0.00398554 2.09694e-18)
(0.00790512 0.00371228 3.10412e-18)
(0.00796648 0.0034386 1.2676e-18)
(0.00802294 0.00316455 1.87983e-18)
(0.00807458 0.0028902 -3.76135e-19)
(0.0081214 0.0026156 -1.97366e-18)
(0.00816345 0.00234079 -4.25991e-20)
(0.00820073 0.00206578 1.45349e-18)
(0.00823333 0.00179059 -7.21574e-19)
(0.00826122 0.00151527 3.44235e-19)
(0.00828441 0.00123988 5.33745e-18)
(0.00830296 0.000964409 1.853e-18)
(0.00831688 0.000688867 -2.44897e-19)
(0.00832613 0.000413286 9.49531e-19)
(0.00833073 0.0001377 1.81902e-18)
(0.00833071 -0.000137902 5.63863e-18)
(0.00832607 -0.00041351 7.37788e-18)
(0.0083168 -0.000689071 7.30637e-18)
(0.00830285 -0.000964563 9.0927e-18)
(0.00828426 -0.00123997 9.96523e-18)
(0.008261 -0.00151526 8.5861e-18)
(0.00823305 -0.00179043 1.10262e-17)
(0.00820041 -0.00206545 1.52583e-17)
(0.00816302 -0.0023403 1.69336e-17)
(0.0081208 -0.00261499 4.97604e-18)
(0.00759985 0.00624648 -2.54498e-18)
(0.00715261 0.0065458 3.61319e-18)
(0.00726977 0.00627338 3.25314e-18)
(0.00738052 0.00600052 1.35728e-18)
(0.00748572 0.00572657 4.09433e-18)
(0.00758537 0.00545163 3.04716e-18)
(0.00767959 0.00517582 1.63051e-18)
(0.00776847 0.00489927 1.26605e-18)
(0.00785208 0.00462204 2.29377e-18)
(0.00793047 0.00434421 1.73248e-18)
(0.00800367 0.00406586 1.41642e-18)
(0.00807174 0.00378707 3.04027e-18)
(0.00813477 0.00350787 2.09058e-18)
(0.00819274 0.00322829 1.55382e-18)
(0.00824576 0.00294839 -8.78144e-19)
(0.00829382 0.00266825 -1.96453e-18)
(0.008337 0.00238791 -3.28386e-19)
(0.00837528 0.00210735 9.56339e-19)
(0.00840875 0.00182662 -1.46692e-18)
(0.00843738 0.00154577 4.89115e-19)
(0.00846117 0.00126483 4.98598e-18)
(0.00848021 0.000983806 1.71645e-18)
(0.00849449 0.000702723 6.55174e-19)
(0.00850396 0.000421607 2.12837e-18)
(0.00850868 0.000140478 1.99706e-18)
(0.00850867 -0.00014067 4.42905e-18)
(0.00850392 -0.000421821 6.56482e-18)
(0.00849439 -0.000702914 7.63717e-18)
(0.00848009 -0.00098394 8.66016e-18)
(0.00846098 -0.00126488 8.56482e-18)
(0.00843714 -0.00154572 7.63854e-18)
(0.00840844 -0.00182643 9.24432e-18)
(0.00837495 -0.00210699 1.21097e-17)
(0.00833658 -0.00238737 1.26977e-17)
(0.00829327 -0.00266762 6.22772e-18)
(0.00773656 0.00638718 -3.27456e-18)
(0.00729683 0.00667699 3.21308e-18)
(0.00741716 0.00639919 3.40766e-18)
(0.00753095 0.00612087 1.24412e-18)
(0.007639 0.00584143 4.42081e-18)
(0.00774136 0.00556099 2.7652e-18)
(0.00783813 0.00527965 1.20104e-18)
(0.0079294 0.00499752 1.11387e-18)
(0.00801524 0.00471471 2.34259e-18)
(0.00809574 0.0044313 1.85562e-18)
(0.00817087 0.00414735 1.10187e-18)
(0.00824075 0.00386295 2.91883e-18)
(0.00830545 0.00357815 2.23081e-18)
(0.00836497 0.00329296 6.35042e-19)
(0.00841936 0.00300744 -7.99041e-19)
(0.00846867 0.00272167 -1.2097e-18)
(0.008513 0.0024357 -5.20369e-19)
(0.0085523 0.00214952 4.08801e-19)
(0.00858663 0.00186317 -2.13653e-18)
(0.00861599 0.0015767 4.07003e-19)
(0.00864041 0.00129013 3.92132e-18)
(0.00865996 0.00100348 1.91457e-18)
(0.00867458 0.000716786 2.01397e-18)
(0.00868428 0.000430052 3.06339e-18)
(0.00868912 0.000143296 2.0472e-18)
(0.00868911 -0.00014348 3.37727e-18)
(0.00868424 -0.000430249 6.17895e-18)
(0.00867445 -0.000716955 8.17461e-18)
(0.00865979 -0.0010036 8.15179e-18)
(0.00864019 -0.00129016 7.45629e-18)
(0.00861574 -0.00157662 7.20927e-18)
(0.0085863 -0.00186294 7.5024e-18)
(0.00855194 -0.00214913 9.36832e-18)
(0.00851258 -0.00243512 9.54968e-18)
(0.00787557 0.00652987 -3.22309e-18)
(0.00744327 0.00681021 3.54927e-18)
(0.0075668 0.00652692 3.99194e-18)
(0.00768367 0.00624307 9.6567e-19)
(0.0077946 0.00595805 4.39442e-18)
(0.00789969 0.00567201 2.60954e-18)
(0.00799904 0.00538504 2.4131e-20)
(0.00809272 0.00509727 6.54492e-19)
(0.00818082 0.00480878 2.57023e-18)
(0.00826343 0.0045197 2.34555e-18)
(0.00834053 0.00423006 1.0258e-18)
(0.00841224 0.00393996 2.56777e-18)
(0.00847863 0.00364946 2.34208e-18)
(0.00853969 0.00335859 -3.57146e-21)
(0.00859549 0.00306737 -6.33415e-19)
(0.00864606 0.00277587 -9.053e-19)
(0.00869152 0.00248419 -7.50636e-19)
(0.00873185 0.00219231 -3.39119e-20)
(0.00876705 0.00190026 -2.26573e-18)
(0.00879714 0.00160808 6.2263e-19)
(0.0088222 0.0013158 3.05033e-18)
(0.00884225 0.00102345 2.11903e-18)
(0.00885724 0.000731058 2.73245e-18)
(0.00886719 0.000438622 3.48077e-18)
(0.00887215 0.000146156 1.94629e-18)
(0.00887214 -0.000146331 2.52819e-18)
(0.00886714 -0.000438797 5.791e-18)
(0.00885709 -0.000731202 8.66976e-18)
(0.00884206 -0.00102354 7.80334e-18)
(0.00882198 -0.00131581 6.65752e-18)
(0.00879688 -0.00160797 6.93668e-18)
(0.00876671 -0.0019 6.03169e-18)
(0.00873148 -0.00219189 6.80928e-18)
(0.00869112 -0.00248359 7.7162e-18)
(0.00801695 0.00667465 -2.8367e-18)
(0.00759201 0.00694553 4.03482e-18)
(0.00771879 0.00665666 3.73496e-18)
(0.00783876 0.00636718 5.09138e-19)
(0.00795261 0.00607649 4.35472e-18)
(0.00806046 0.00578475 2.31569e-18)
(0.00816239 0.00549206 -8.08992e-19)
(0.00825852 0.00519854 6.07813e-19)
(0.00834891 0.00490429 2.82583e-18)
(0.00843365 0.00460944 2.50902e-18)
(0.00851274 0.00431403 8.31843e-19)
(0.00858629 0.00401814 2.54622e-18)
(0.00865436 0.00372185 2.52145e-18)
(0.00871698 0.0034252 -4.69631e-19)
(0.00877421 0.0031282 -6.42203e-19)
(0.00882606 0.0028309 -1.51268e-18)
(0.00887266 0.0025334 -7.2517e-19)
(0.00891401 0.00223574 5.36991e-19)
(0.00895009 0.0019379 -1.96975e-18)
(0.00898095 0.00163993 4.52369e-19)
(0.00900664 0.00134185 2.30319e-18)
(0.00902718 0.00104371 2.33242e-18)
(0.00904255 0.000745537 3.16665e-18)
(0.00905277 0.000447319 3.54093e-18)
(0.00905785 0.000149058 1.66767e-18)
(0.00905784 -0.000149222 2.07231e-18)
(0.00905269 -0.000447469 5.64783e-18)
(0.0090424 -0.000745658 9.00097e-18)
(0.00902698 -0.00104379 7.53097e-18)
(0.00900642 -0.00134185 6.20029e-18)
(0.00898067 -0.00163979 6.53203e-18)
(0.00894976 -0.00193761 4.51269e-18)
(0.00891364 -0.00223529 4.03371e-18)
(0.00887226 -0.00253279 8.16822e-18)
(0.00816078 0.00682159 -2.31979e-18)
(0.00774313 0.007083 4.91531e-18)
(0.0078732 0.00678846 2.85657e-18)
(0.00799629 0.00649325 -5.86992e-20)
(0.0081131 0.0061968 4.20187e-18)
(0.00822373 0.00589926 2.15138e-18)
(0.00832829 0.00560076 -1.07842e-18)
(0.0084269 0.00530141 5.74108e-19)
(0.00851961 0.0050013 2.67379e-18)
(0.00860649 0.00470058 2.55771e-18)
(0.00868758 0.00439931 8.08701e-19)
(0.00876298 0.00409754 2.41209e-18)
(0.00883275 0.00379536 2.45114e-18)
(0.00889694 0.00349282 -4.72396e-19)
(0.00895562 0.00318995 -3.31603e-19)
(0.00900878 0.00288677 -1.4768e-18)
(0.00905651 0.00258337 -6.35496e-19)
(0.00909888 0.00227982 5.38285e-19)
(0.00913585 0.00197611 -1.64816e-18)
(0.00916749 0.00167225 8.13603e-20)
(0.00919384 0.0013683 1.65473e-18)
(0.00921485 0.00106428 2.21719e-18)
(0.00923061 0.000760233 3.04514e-18)
(0.00924108 0.000456143 3.35025e-18)
(0.00924631 0.000152003 1.93714e-18)
(0.00924629 -0.000152151 2.11319e-18)
(0.00924098 -0.000456267 5.6158e-18)
(0.00923044 -0.000760335 9.23247e-18)
(0.00921465 -0.00106434 7.05017e-18)
(0.00919359 -0.00136828 5.82897e-18)
(0.0091672 -0.0016721 6.1174e-18)
(0.00913554 -0.0019758 2.9198e-18)
(0.0090985 -0.00227935 2.07768e-18)
(0.0090561 -0.00258275 9.91333e-18)
(0.00830714 0.00697077 -1.8628e-18)
(0.00789671 0.00722272 4.93241e-18)
(0.0080301 0.0069224 1.59061e-18)
(0.00815634 0.00662134 3.45217e-19)
(0.00827615 0.00631904 3.71367e-18)
(0.0083896 0.00601561 1.7355e-18)
(0.00849682 0.00571119 -9.37383e-19)
(0.00859794 0.00540591 5.72925e-19)
(0.00869299 0.00509986 2.44943e-18)
(0.00878202 0.00479317 2.98948e-18)
(0.00886513 0.00448593 1.09623e-18)
(0.0089424 0.00417818 2.525e-18)
(0.00901389 0.00387002 2.35078e-18)
(0.00907967 0.0035615 -2.68829e-19)
(0.00913981 0.00325265 -2.37594e-19)
(0.00919429 0.00294351 -1.85002e-18)
(0.00924318 0.00263413 -6.60084e-19)
(0.00928656 0.00232459 1.00996e-18)
(0.00932444 0.00201491 -1.6333e-18)
(0.00935686 0.00170508 -1.14731e-18)
(0.00938385 0.00139515 1.01984e-18)
(0.00940538 0.00108517 2.47792e-18)
(0.00942152 0.000775156 3.23637e-18)
(0.00943225 0.0004651 3.01418e-18)
(0.0094376 0.000154992 2.172e-18)
(0.00943758 -0.000155119 2.30649e-18)
(0.00943213 -0.000465199 5.79147e-18)
(0.00942134 -0.000775242 9.51149e-18)
(0.00940517 -0.00108522 6.55599e-18)
(0.0093836 -0.00139512 5.45223e-18)
(0.00935657 -0.0017049 5.32804e-18)
(0.00932413 -0.00201458 1.2981e-18)
(0.00928618 -0.00232409 2.82e-18)
(0.00845609 0.00712227 -1.06139e-18)
(0.00805283 0.00736475 4.4166e-18)
(0.00818958 0.00705854 8.33883e-19)
(0.00831901 0.00675154 6.18794e-19)
(0.00844184 0.00644327 3.0711e-18)
(0.00855815 0.00613386 1.73108e-18)
(0.00866807 0.00582341 -1.55807e-19)
(0.00877171 0.0055121 5.82676e-19)
(0.00886912 0.0052 1.8364e-18)
(0.00896033 0.00488724 3.07883e-18)
(0.00904549 0.00457394 1.63946e-18)
(0.00912464 0.00426011 2.34694e-18)
(0.00919787 0.00394587 1.94045e-18)
(0.00926526 0.00363127 -6.15238e-20)
(0.00932686 0.00331635 -3.33342e-19)
(0.00938267 0.00300115 -2.11163e-18)
(0.00943274 0.00268569 -5.23645e-19)
(0.00947716 0.00237007 1.33597e-18)
(0.00951597 0.00205432 -1.79599e-18)
(0.00954918 0.00173842 -1.90807e-18)
(0.0095768 0.00142243 5.74559e-19)
(0.00959885 0.00110639 2.53819e-18)
(0.00961536 0.00079031 3.4644e-18)
(0.00962637 0.000474197 2.77346e-18)
(0.00963184 0.000158029 2.49908e-18)
(0.00963181 -0.000158133 2.79578e-18)
(0.00962623 -0.000474271 5.81477e-18)
(0.00961517 -0.000790383 9.60259e-18)
(0.00959862 -0.00110642 6.47404e-18)
(0.00957651 -0.00142237 5.21141e-18)
(0.00954886 -0.00173823 4.33768e-18)
(0.00951564 -0.00205396 5.32086e-19)
(0.00947678 -0.00236956 5.6885e-18)
(0.00860771 0.00727617 8.65705e-19)
(0.00821157 0.00750916 3.38656e-18)
(0.00835172 0.00719697 4.24799e-19)
(0.00848438 0.00688391 5.54636e-19)
(0.00861026 0.00656955 2.11793e-18)
(0.00872946 0.00625404 1.62123e-18)
(0.00884212 0.00593749 6.63197e-19)
(0.0089483 0.00562002 4.88241e-19)
(0.00904808 0.00530178 1.57217e-18)
(0.00914151 0.00498286 2.77008e-18)
(0.00922873 0.00466338 2.19229e-18)
(0.0093098 0.00434338 2.38075e-18)
(0.00938479 0.00402295 1.54757e-18)
(0.00945382 0.00370217 1.63372e-19)
(0.00951687 0.00338108 -3.77858e-19)
(0.00957402 0.00305971 -2.28784e-18)
(0.0096253 0.00273808 -8.89037e-19)
(0.00967076 0.00241628 1.37235e-18)