/*--------------------------------*- C++ -*----------------------------------*\
  =========                 |
  \\      /  F ield         | OpenFOAM: The Open Source CFD Toolbox
   \\    /   O peration     | Website:  https://openfoam.org
    \\  /    A nd           | Version:  7
     \\/     M anipulation  |
\*---------------------------------------------------------------------------*/
FoamFile
{
    version     2.0;
    format      ascii;
    class       volScalarField;
    location    "184000";
    object      nut;
}
// * * * * * * * * * * * * * * * * * * * * * * * * * * * * * * * * * * * * * //

dimensions      [0 2 -1 0 0 0 0];

internalField   nonuniform List<scalar> 
4825
(
1.14939e-05
1.15735e-05
1.12995e-05
1.13785e-05
1.14554e-05
1.15299e-05
1.1602e-05
1.11053e-05
1.11837e-05
1.126e-05
1.1334e-05
1.14056e-05
1.0911e-05
1.09893e-05
1.1065e-05
1.11384e-05
1.12094e-05
1.07139e-05
1.07952e-05
1.08703e-05
1.09431e-05
1.10135e-05
1.0516e-05
1.06015e-05
1.06759e-05
1.07481e-05
1.0818e-05
1.0318e-05
1.04066e-05
1.0482e-05
1.05536e-05
1.06228e-05
1.01204e-05
1.02083e-05
1.02847e-05
1.03579e-05
1.04281e-05
9.92334e-06
1.00094e-05
1.00857e-05
1.01591e-05
1.02297e-05
9.72709e-06
9.81103e-06
9.88655e-06
9.95948e-06
1.00299e-05
9.53176e-06
9.61364e-06
9.68813e-06
9.76026e-06
9.83e-06
9.33744e-06
9.41747e-06
9.49078e-06
9.56194e-06
9.63082e-06
9.14417e-06
9.22255e-06
9.29468e-06
9.36478e-06
9.43271e-06
8.95197e-06
9.02887e-06
9.09983e-06
9.16887e-06
8.76083e-06
8.83637e-06
8.90621e-06
8.9742e-06
8.57073e-06
8.645e-06
8.71377e-06
8.78074e-06
8.38167e-06
8.45472e-06
8.52247e-06
8.19362e-06
8.2655e-06
8.33226e-06
8.00658e-06
8.0773e-06
7.82053e-06
7.89012e-06
7.63548e-06
7.70395e-06
7.45142e-06
7.51879e-06
7.26838e-06
7.33464e-06
7.08637e-06
1.4417e-05
1.45024e-05
1.45854e-05
1.46658e-05
1.47434e-05
1.4818e-05
1.48897e-05
1.49582e-05
1.50235e-05
1.50854e-05
1.51439e-05
1.51988e-05
1.52502e-05
1.52979e-05
1.53418e-05
1.53819e-05
1.54182e-05
1.54506e-05
1.5479e-05
1.55034e-05
1.42234e-05
1.43086e-05
1.43914e-05
1.44716e-05
1.4549e-05
1.46236e-05
1.46951e-05
1.47635e-05
1.48287e-05
1.48905e-05
1.49489e-05
1.50038e-05
1.50551e-05
1.51027e-05
1.51467e-05
1.51868e-05
1.5223e-05
1.52554e-05
1.52838e-05
1.53082e-05
1.40294e-05
1.41144e-05
1.41969e-05
1.42769e-05
1.43542e-05
1.44286e-05
1.44999e-05
1.45682e-05
1.46333e-05
1.4695e-05
1.47533e-05
1.48081e-05
1.48593e-05
1.49069e-05
1.49508e-05
1.49908e-05
1.50271e-05
1.50594e-05
1.50878e-05
1.51122e-05
1.3835e-05
1.39197e-05
1.40021e-05
1.40818e-05
1.41589e-05
1.42331e-05
1.43043e-05
1.43724e-05
1.44373e-05
1.44989e-05
1.45571e-05
1.46118e-05
1.4663e-05
1.47105e-05
1.47542e-05
1.47943e-05
1.48304e-05
1.48627e-05
1.48911e-05
1.49154e-05
1.36403e-05
1.37248e-05
1.38069e-05
1.38864e-05
1.39632e-05
1.40372e-05
1.41082e-05
1.41761e-05
1.42408e-05
1.43023e-05
1.43603e-05
1.44149e-05
1.4466e-05
1.45134e-05
1.45571e-05
1.4597e-05
1.46331e-05
1.46654e-05
1.46937e-05
1.4718e-05
1.34455e-05
1.35296e-05
1.36114e-05
1.36906e-05
1.37671e-05
1.38409e-05
1.39117e-05
1.39794e-05
1.40439e-05
1.41052e-05
1.41631e-05
1.42176e-05
1.42685e-05
1.43158e-05
1.43594e-05
1.43992e-05
1.44353e-05
1.44674e-05
1.44957e-05
1.452e-05
1.32504e-05
1.33342e-05
1.34156e-05
1.34946e-05
1.35708e-05
1.36443e-05
1.37148e-05
1.37823e-05
1.38466e-05
1.39077e-05
1.39654e-05
1.40197e-05
1.40705e-05
1.41177e-05
1.41612e-05
1.42009e-05
1.42369e-05
1.4269e-05
1.42972e-05
1.43214e-05
1.30552e-05
1.31386e-05
1.32197e-05
1.32983e-05
1.33742e-05
1.34474e-05
1.35177e-05
1.35849e-05
1.3649e-05
1.37099e-05
1.37674e-05
1.38215e-05
1.38721e-05
1.39192e-05
1.39625e-05
1.40022e-05
1.4038e-05
1.407e-05
1.40981e-05
1.41223e-05
1.41425e-05
1.41587e-05
1.41709e-05
1.4179e-05
1.41831e-05
1.41831e-05
1.4179e-05
1.41709e-05
1.41587e-05
1.41425e-05
1.41223e-05
1.40981e-05
1.407e-05
1.4038e-05
1.40022e-05
1.28599e-05
1.29429e-05
1.30236e-05
1.31019e-05
1.31775e-05
1.32503e-05
1.33203e-05
1.33872e-05
1.34511e-05
1.35117e-05
1.3569e-05
1.3623e-05
1.36734e-05
1.37203e-05
1.37635e-05
1.3803e-05
1.38387e-05
1.38706e-05
1.38987e-05
1.39228e-05
1.39429e-05
1.39591e-05
1.39712e-05
1.39793e-05
1.39834e-05
1.39834e-05
1.39793e-05
1.39712e-05
1.39591e-05
1.39429e-05
1.39228e-05
1.38987e-05
1.38706e-05
1.38387e-05
1.3803e-05
1.37635e-05
1.37203e-05
1.26645e-05
1.27471e-05
1.28275e-05
1.29053e-05
1.29806e-05
1.30531e-05
1.31227e-05
1.31894e-05
1.32529e-05
1.33133e-05
1.33704e-05
1.34241e-05
1.34743e-05
1.3521e-05
1.35641e-05
1.36035e-05
1.36391e-05
1.36709e-05
1.36988e-05
1.37228e-05
1.37429e-05
1.3759e-05
1.37711e-05
1.37792e-05
1.37832e-05
1.37832e-05
1.37792e-05
1.37711e-05
1.3759e-05
1.37429e-05
1.37228e-05
1.36988e-05
1.36709e-05
1.36391e-05
1.36035e-05
1.35641e-05
1.3521e-05
1.34743e-05
1.24692e-05
1.25513e-05
1.26312e-05
1.27087e-05
1.27836e-05
1.28557e-05
1.2925e-05
1.29913e-05
1.30546e-05
1.31147e-05
1.31715e-05
1.3225e-05
1.3275e-05
1.33215e-05
1.33644e-05
1.34036e-05
1.34391e-05
1.34708e-05
1.34986e-05
1.35226e-05
1.35426e-05
1.35586e-05
1.35707e-05
1.35787e-05
1.35827e-05
1.35827e-05
1.35787e-05
1.35707e-05
1.35586e-05
1.35426e-05
1.35226e-05
1.34986e-05
1.34708e-05
1.34391e-05
1.34036e-05
1.33644e-05
1.33215e-05
1.3275e-05
1.3225e-05
1.31715e-05
1.22738e-05
1.23556e-05
1.2435e-05
1.2512e-05
1.25865e-05
1.26583e-05
1.27272e-05
1.27932e-05
1.28561e-05
1.29159e-05
1.29725e-05
1.30257e-05
1.30755e-05
1.31218e-05
1.31645e-05
1.32035e-05
1.32389e-05
1.32704e-05
1.32981e-05
1.3322e-05
1.33419e-05
1.33579e-05
1.33699e-05
1.33779e-05
1.33819e-05
1.33819e-05
1.33779e-05
1.33699e-05
1.33579e-05
1.33419e-05
1.3322e-05
1.32981e-05
1.32704e-05
1.32389e-05
1.32036e-05
1.31645e-05
1.31218e-05
1.30755e-05
1.30257e-05
1.29725e-05
1.29159e-05
1.28561e-05
1.20786e-05
1.21598e-05
1.22388e-05
1.23154e-05
1.23894e-05
1.24608e-05
1.25293e-05
1.2595e-05
1.26576e-05
1.27171e-05
1.27733e-05
1.28263e-05
1.28758e-05
1.29219e-05
1.29644e-05
1.30033e-05
1.30384e-05
1.30698e-05
1.30974e-05
1.31212e-05
1.3141e-05
1.31569e-05
1.31689e-05
1.31769e-05
1.31809e-05
1.31809e-05
1.31769e-05
1.31689e-05
1.31569e-05
1.3141e-05
1.31212e-05
1.30974e-05
1.30698e-05
1.30384e-05
1.30033e-05
1.29644e-05
1.29219e-05
1.28759e-05
1.28263e-05
1.27733e-05
1.27171e-05
1.26576e-05
1.2595e-05
1.25293e-05
1.24608e-05
1.18835e-05
1.19642e-05
1.20427e-05
1.21188e-05
1.21924e-05
1.22633e-05
1.23315e-05
1.23967e-05
1.2459e-05
1.25182e-05
1.25741e-05
1.26268e-05
1.26761e-05
1.27219e-05
1.27642e-05
1.28028e-05
1.28378e-05
1.28691e-05
1.28965e-05
1.29202e-05
1.29399e-05
1.29558e-05
1.29677e-05
1.29756e-05
1.29796e-05
1.29796e-05
1.29756e-05
1.29677e-05
1.29558e-05
1.29399e-05
1.29202e-05
1.28966e-05
1.28691e-05
1.28378e-05
1.28028e-05
1.27642e-05
1.27219e-05
1.26761e-05
1.26268e-05
1.25741e-05
1.25181e-05
1.2459e-05
1.23967e-05
1.23315e-05
1.22633e-05
1.21924e-05
1.21188e-05
1.16886e-05
1.17688e-05
1.18468e-05
1.19224e-05
1.19955e-05
1.20659e-05
1.21337e-05
1.21985e-05
1.22604e-05
1.23192e-05
1.23748e-05
1.24272e-05
1.24762e-05
1.25218e-05
1.25639e-05
1.26023e-05
1.26371e-05
1.26682e-05
1.26955e-05
1.2719e-05
1.27387e-05
1.27545e-05
1.27663e-05
1.27742e-05
1.27782e-05
1.27782e-05
1.27742e-05
1.27663e-05
1.27544e-05
1.27387e-05
1.2719e-05
1.26955e-05
1.26682e-05
1.26371e-05
1.26023e-05
1.25639e-05
1.25218e-05
1.24762e-05
1.24272e-05
1.23748e-05
1.23192e-05
1.22604e-05
1.21985e-05
1.21336e-05
1.20659e-05
1.19955e-05
1.19224e-05
1.18468e-05
1.17688e-05
1.16886e-05
1.14939e-05
1.15735e-05
1.1651e-05
1.1726e-05
1.17987e-05
1.18686e-05
1.19359e-05
1.20004e-05
1.20619e-05
1.21203e-05
1.21756e-05
1.22277e-05
1.22764e-05
1.23217e-05
1.23635e-05
1.24017e-05
1.24363e-05
1.24673e-05
1.24944e-05
1.25178e-05
1.25374e-05
1.2553e-05
1.25648e-05
1.25727e-05
1.25766e-05
1.25766e-05
1.25727e-05
1.25648e-05
1.2553e-05
1.25374e-05
1.25178e-05
1.24944e-05
1.24673e-05
1.24363e-05
1.24017e-05
1.23635e-05
1.23217e-05
1.22764e-05
1.22276e-05
1.21756e-05
1.21203e-05
1.20619e-05
1.20004e-05
1.19359e-05
1.18686e-05
1.17986e-05
1.1726e-05
1.1651e-05
1.15735e-05
1.14939e-05
1.12995e-05
1.13785e-05
1.14554e-05
1.15299e-05
1.1602e-05
1.16715e-05
1.17383e-05
1.18023e-05
1.18634e-05
1.19215e-05
1.19764e-05
1.20281e-05
1.20765e-05
1.21216e-05
1.21631e-05
1.22011e-05
1.22356e-05
1.22663e-05
1.22933e-05
1.23165e-05
1.2336e-05
1.23516e-05
1.23633e-05
1.23711e-05
1.2375e-05
1.2375e-05
1.23711e-05
1.23633e-05
1.23516e-05
1.2336e-05
1.23165e-05
1.22933e-05
1.22663e-05
1.22356e-05
1.22011e-05
1.21631e-05
1.21216e-05
1.20765e-05
1.20281e-05
1.19764e-05
1.19215e-05
1.18634e-05
1.18023e-05
1.17383e-05
1.16715e-05
1.1602e-05
1.15299e-05
1.14554e-05
1.13785e-05
1.12995e-05
1.11053e-05
1.11837e-05
1.126e-05
1.1334e-05
1.14056e-05
1.14746e-05
1.15409e-05
1.16044e-05
1.16651e-05
1.17228e-05
1.17773e-05
1.18287e-05
1.18768e-05
1.19215e-05
1.19628e-05
1.20006e-05
1.20348e-05
1.20653e-05
1.20922e-05
1.21153e-05
1.21346e-05
1.21501e-05
1.21617e-05
1.21695e-05
1.21734e-05
1.21734e-05
1.21695e-05
1.21617e-05
1.21501e-05
1.21346e-05
1.21153e-05
1.20922e-05
1.20653e-05
1.20348e-05
1.20006e-05
1.19628e-05
1.19215e-05
1.18768e-05
1.18287e-05
1.17773e-05
1.17228e-05
1.16651e-05
1.16044e-05
1.15409e-05
1.14746e-05
1.14056e-05
1.1334e-05
1.126e-05
1.11837e-05
1.11053e-05
1.0911e-05
1.09893e-05
1.1065e-05
1.11384e-05
1.12094e-05
1.12779e-05
1.13437e-05
1.14068e-05
1.1467e-05
1.15242e-05
1.15784e-05
1.16294e-05
1.16772e-05
1.17216e-05
1.17626e-05
1.18001e-05
1.18341e-05
1.18644e-05
1.18911e-05
1.19141e-05
1.19333e-05
1.19487e-05
1.19602e-05
1.1968e-05
1.19718e-05
1.19718e-05
1.1968e-05
1.19602e-05
1.19487e-05
1.19333e-05
1.19141e-05
1.18911e-05
1.18644e-05
1.18341e-05
1.18001e-05
1.17626e-05
1.17216e-05
1.16772e-05
1.16294e-05
1.15784e-05
1.15242e-05
1.1467e-05
1.14068e-05
1.13437e-05
1.12779e-05
1.12094e-05
1.11384e-05
1.1065e-05
1.09893e-05
1.0911e-05
1.07139e-05
1.07952e-05
1.08703e-05
1.09431e-05
1.10135e-05
1.10814e-05
1.11468e-05
1.12093e-05
1.12691e-05
1.13259e-05
1.13797e-05
1.14303e-05
1.14777e-05
1.15218e-05
1.15625e-05
1.15998e-05
1.16335e-05
1.16637e-05
1.16902e-05
1.1713e-05
1.1732e-05
1.17473e-05
1.17588e-05
1.17665e-05
1.17703e-05
1.17703e-05
1.17665e-05
1.17588e-05
1.17473e-05
1.1732e-05
1.1713e-05
1.16902e-05
1.16637e-05
1.16335e-05
1.15998e-05
1.15625e-05
1.15218e-05
1.14777e-05
1.14303e-05
1.13797e-05
1.13259e-05
1.12691e-05
1.12093e-05
1.11467e-05
1.10814e-05
1.10135e-05
1.09431e-05
1.08703e-05
1.07952e-05
1.07139e-05
1.0516e-05
1.06015e-05
1.06759e-05
1.07481e-05
1.0818e-05
1.08853e-05
1.09501e-05
1.10122e-05
1.10714e-05
1.11278e-05
1.11812e-05
1.12314e-05
1.12785e-05
1.13222e-05
1.13627e-05
1.13996e-05
1.14331e-05
1.1463e-05
1.14894e-05
1.1512e-05
1.15309e-05
1.15461e-05
1.15575e-05
1.15651e-05
1.15689e-05
1.15689e-05
1.15651e-05
1.15575e-05
1.15461e-05
1.15309e-05
1.1512e-05
1.14894e-05
1.14631e-05
1.14331e-05
1.13996e-05
1.13627e-05
1.13222e-05
1.12785e-05
1.12314e-05
1.11812e-05
1.11278e-05
1.10714e-05
1.10122e-05
1.09501e-05
1.08853e-05
1.0818e-05
1.07481e-05
1.06759e-05
1.06015e-05
1.0516e-05
1.0318e-05
1.04066e-05
1.0482e-05
1.05536e-05
1.06228e-05
1.06896e-05
1.07538e-05
1.08154e-05
1.08741e-05
1.093e-05
1.09829e-05
1.10328e-05
1.10795e-05
1.11229e-05
1.1163e-05
1.11997e-05
1.12329e-05
1.12626e-05
1.12887e-05
1.13112e-05
1.133e-05
1.13451e-05
1.13564e-05
1.13639e-05
1.13677e-05
1.13677e-05
1.13639e-05
1.13564e-05
1.13451e-05
1.133e-05
1.13112e-05
1.12887e-05
1.12626e-05
1.12329e-05
1.11997e-05
1.1163e-05
1.11229e-05
1.10795e-05
1.10328e-05
1.09829e-05
1.093e-05
1.08741e-05
1.08153e-05
1.07538e-05
1.06896e-05
1.06228e-05
1.05536e-05
1.0482e-05
1.04066e-05
1.0318e-05
1.01204e-05
1.02083e-05
1.02847e-05
1.03579e-05
1.04281e-05
1.04942e-05
1.05579e-05
1.06189e-05
1.06772e-05
1.07326e-05
1.0785e-05
1.08345e-05
1.08808e-05
1.09238e-05
1.09636e-05
1.1e-05
1.1033e-05
1.10625e-05
1.10884e-05
1.11106e-05
1.11293e-05
1.11442e-05
1.11555e-05
1.1163e-05
1.11667e-05
1.11667e-05
1.1163e-05
1.11555e-05
1.11442e-05
1.11293e-05
1.11106e-05
1.10884e-05
1.10625e-05
1.1033e-05
1.1e-05
1.09636e-05
1.09238e-05
1.08808e-05
1.08345e-05
1.0785e-05
1.07326e-05
1.06772e-05
1.06189e-05
1.05579e-05
1.04942e-05
1.04281e-05
1.03579e-05
1.02847e-05
1.02083e-05
1.01204e-05
9.92334e-06
1.00094e-05
1.00857e-05
1.01591e-05
1.02297e-05
1.02974e-05
1.03624e-05
1.04228e-05
1.04806e-05
1.05355e-05
1.05875e-05
1.06365e-05
1.06824e-05
1.07251e-05
1.07646e-05
1.08007e-05
1.08333e-05
1.08626e-05
1.08882e-05
1.09104e-05
1.09288e-05
1.09437e-05
1.09548e-05
1.09623e-05
1.0966e-05
1.0966e-05
1.09623e-05
1.09548e-05
1.09437e-05
1.09288e-05
1.09104e-05
1.08882e-05
1.08626e-05
1.08333e-05
1.08007e-05
1.07646e-05
1.07251e-05
1.06824e-05
1.06365e-05
1.05875e-05
1.05355e-05
1.04806e-05
1.04228e-05
1.03624e-05
1.02974e-05
1.02297e-05
1.01591e-05
1.00857e-05
1.00094e-05
9.92334e-06
9.72709e-06
9.81103e-06
9.88655e-06
9.95948e-06
1.00299e-05
1.00977e-05
1.01629e-05
1.02248e-05
1.02837e-05
1.03388e-05
1.03904e-05
1.04389e-05
1.04844e-05
1.05267e-05
1.05658e-05
1.06016e-05
1.0634e-05
1.0663e-05
1.06885e-05
1.07104e-05
1.07287e-05
1.07434e-05
1.07545e-05
1.07619e-05
1.07656e-05
1.07656e-05
1.07619e-05
1.07545e-05
1.07434e-05
1.07287e-05
1.07104e-05
1.06885e-05
1.0663e-05
1.0634e-05
1.06016e-05
1.05658e-05
1.05267e-05
1.04844e-05
1.04389e-05
1.03904e-05
1.03388e-05
1.02837e-05
1.02247e-05
1.01629e-05
1.00977e-05
1.00299e-05
9.95948e-06
9.88655e-06
9.81103e-06
9.72709e-06
9.53176e-06
9.61364e-06
9.68813e-06
9.76026e-06
9.83e-06
9.89739e-06
9.96213e-06
1.00241e-05
1.00832e-05
1.01391e-05
1.01918e-05
1.02413e-05
1.02868e-05
1.03288e-05
1.03675e-05
1.0403e-05
1.04351e-05
1.04638e-05
1.0489e-05
1.05108e-05
1.05289e-05
1.05435e-05
1.05545e-05
1.05618e-05
1.05655e-05
1.05655e-05
1.05618e-05
1.05545e-05
1.05435e-05
1.05289e-05
1.05108e-05
1.0489e-05
1.04638e-05
1.04351e-05
1.0403e-05
1.03675e-05
1.03288e-05
1.02868e-05
1.02413e-05
1.01918e-05
1.01391e-05
1.00832e-05
1.00241e-05
9.96213e-06
9.89739e-06
9.83e-06
9.76026e-06
9.68813e-06
9.61364e-06
9.53176e-06
9.33744e-06
9.41747e-06
9.49079e-06
9.56194e-06
9.63083e-06
9.69744e-06
9.76151e-06
9.82306e-06
9.88177e-06
9.93755e-06
9.99029e-06
1.00399e-05
1.00861e-05
1.01289e-05
1.01684e-05
1.02045e-05
1.02366e-05
1.0265e-05
1.029e-05
1.03115e-05
1.03296e-05
1.0344e-05
1.03549e-05
1.03621e-05
1.03657e-05
1.03657e-05
1.03621e-05
1.03549e-05
1.0344e-05
1.03296e-05
1.03115e-05
1.029e-05
1.0265e-05
1.02366e-05
1.02045e-05
1.01684e-05
1.01289e-05
1.00861e-05
1.00399e-05
9.99029e-06
9.93755e-06
9.88176e-06
9.82306e-06
9.76151e-06
9.69744e-06
9.63082e-06
9.56194e-06
9.49078e-06
9.41747e-06
9.33744e-06
9.14417e-06
9.22255e-06
9.29468e-06
9.36478e-06
9.43271e-06
9.49841e-06
9.56165e-06
9.62246e-06
9.68052e-06
9.7358e-06
9.78815e-06
9.83741e-06
9.8835e-06
9.92634e-06
9.96585e-06
1.0002e-05
1.00345e-05
1.00635e-05
1.00889e-05
1.01108e-05
1.01292e-05
1.01438e-05
1.01549e-05
1.01623e-05
1.0166e-05
1.0166e-05
1.01623e-05
1.01549e-05
1.01438e-05
1.01292e-05
1.01108e-05
1.00889e-05
1.00635e-05
1.00345e-05
1.0002e-05
9.96585e-06
9.92633e-06
9.8835e-06
9.83741e-06
9.78815e-06
9.7358e-06
9.68051e-06
9.62245e-06
9.56165e-06
9.4984e-06
9.43271e-06
9.36478e-06
9.29468e-06
9.22255e-06
9.14417e-06
8.95197e-06
9.02887e-06
9.09983e-06
9.16887e-06
9.2358e-06
9.30053e-06
9.36288e-06
9.42282e-06
9.4801e-06
9.53468e-06
9.58641e-06
9.63512e-06
9.6808e-06
9.7233e-06
9.76252e-06
9.79838e-06
9.83083e-06
9.8598e-06
9.88525e-06
9.90715e-06
9.92547e-06
9.94016e-06
9.95121e-06
9.95859e-06
9.96228e-06
9.96228e-06
9.95859e-06
9.95121e-06
9.94016e-06
9.92547e-06
9.90715e-06
9.88525e-06
9.8598e-06
9.83083e-06
9.79838e-06
9.76252e-06
9.7233e-06
9.6808e-06
9.63512e-06
9.58641e-06
9.53468e-06
9.4801e-06
9.42282e-06
9.36288e-06
9.30053e-06
9.2358e-06
9.16887e-06
9.09983e-06
9.02887e-06
8.95197e-06
8.76083e-06
8.83637e-06
8.90621e-06
8.9742e-06
9.04014e-06
9.10389e-06
9.16531e-06
9.22435e-06
9.2808e-06
9.33459e-06
9.3856e-06
9.43365e-06
9.47875e-06
9.52074e-06
9.5595e-06
9.59496e-06
9.62711e-06
9.65584e-06
9.68109e-06
9.70282e-06
9.721e-06
9.73558e-06
9.74654e-06
9.75386e-06
9.75753e-06
9.75753e-06
9.75386e-06
9.74654e-06
9.73558e-06
9.721e-06
9.70282e-06
9.68109e-06
9.65584e-06
9.62711e-06
9.59496e-06
9.5595e-06
9.52074e-06
9.47875e-06
9.43365e-06
9.38559e-06
9.33459e-06
9.28079e-06
9.22435e-06
9.16531e-06
9.10389e-06
9.04013e-06
8.9742e-06
8.90621e-06
8.83637e-06
8.76083e-06
8.57073e-06
8.645e-06
8.71377e-06
8.78074e-06
8.84569e-06
8.90848e-06
8.96899e-06
9.02712e-06
9.08271e-06
9.1357e-06
9.18593e-06
9.23329e-06
9.27774e-06
9.31913e-06
9.35736e-06
9.39235e-06
9.42408e-06
9.45246e-06
9.47742e-06
9.49889e-06
9.51685e-06
9.53126e-06
9.54209e-06
9.54933e-06
9.55295e-06
9.55295e-06
9.54933e-06
9.5421e-06
9.53126e-06
9.51685e-06
9.49889e-06
9.47741e-06
9.45246e-06
9.42408e-06
9.39234e-06
9.35736e-06
9.31913e-06
9.27773e-06
9.23329e-06
9.18593e-06
9.13569e-06
9.08271e-06
9.02711e-06
8.96898e-06
8.90848e-06
8.84569e-06
8.78074e-06
8.71377e-06
8.645e-06
8.57073e-06
8.38167e-06
8.45472e-06
8.52247e-06
8.58844e-06
8.65242e-06
8.71427e-06
8.77387e-06
8.83111e-06
8.88587e-06
8.93804e-06
8.98751e-06
9.03415e-06
9.07792e-06
9.11869e-06
9.15636e-06
9.19084e-06
9.22212e-06
9.2501e-06
9.2747e-06
9.29588e-06
9.3136e-06
9.32781e-06
9.33849e-06
9.34563e-06
9.3492e-06
9.3492e-06
9.34563e-06
9.33849e-06
9.32781e-06
9.3136e-06
9.29588e-06
9.2747e-06
9.2501e-06
9.22212e-06
9.19084e-06
9.15636e-06
9.11869e-06
9.07792e-06
9.03415e-06
8.9875e-06
8.93804e-06
8.88586e-06
8.83111e-06
8.77387e-06
8.71427e-06
8.65242e-06
8.58844e-06
8.52247e-06
8.45472e-06
8.38167e-06
8.19362e-06
8.2655e-06
8.33226e-06
8.39725e-06
8.46029e-06
8.52122e-06
8.57993e-06
8.6363e-06
8.69023e-06
8.7416e-06
8.79031e-06
8.83625e-06
8.87935e-06
8.9195e-06
8.95659e-06
8.99056e-06
9.02137e-06
9.04893e-06
9.07317e-06
9.09403e-06
9.11149e-06
9.12549e-06
9.13602e-06
9.14305e-06
9.14657e-06
9.14657e-06
9.14305e-06
9.13602e-06
9.12549e-06
9.11149e-06
9.09403e-06
9.07317e-06
9.04893e-06
9.02137e-06
8.99056e-06
8.95659e-06
8.91949e-06
8.87935e-06
8.83625e-06
8.79031e-06
8.7416e-06
8.69022e-06
8.6363e-06
8.57993e-06
8.52122e-06
8.46029e-06
8.39725e-06
8.33226e-06
8.2655e-06
8.19362e-06
8.00658e-06
8.0773e-06
8.1431e-06
8.20714e-06
8.26925e-06
8.32928e-06
8.38711e-06
8.44264e-06
8.49575e-06
8.54635e-06
8.59432e-06
8.63956e-06
8.682e-06
8.72153e-06
8.75806e-06
8.79152e-06
8.82186e-06
8.849e-06
8.87287e-06
8.89343e-06
8.91062e-06
8.92441e-06
8.93479e-06
8.94171e-06
8.94518e-06
8.94518e-06
8.94171e-06
8.93479e-06
8.92441e-06
8.91062e-06
8.89343e-06
8.87287e-06
8.849e-06
8.82186e-06
8.79152e-06
8.75806e-06
8.72153e-06
8.682e-06
8.63956e-06
8.59432e-06
8.54634e-06
8.49575e-06
8.44264e-06
8.38711e-06
8.32928e-06
8.26925e-06
8.20714e-06
8.1431e-06
8.0773e-06
8.00658e-06
7.82053e-06
7.89012e-06
7.95497e-06
8.01808e-06
8.07927e-06
8.13841e-06
8.19539e-06
8.25008e-06
8.3024e-06
8.35223e-06
8.39948e-06
8.44404e-06
8.48583e-06
8.52477e-06
8.56075e-06
8.5937e-06
8.62358e-06
8.6503e-06
8.67381e-06
8.69406e-06
8.71099e-06
8.72458e-06
8.7348e-06
8.74162e-06
8.74503e-06
8.74503e-06
8.74162e-06
8.7348e-06
8.72458e-06
8.71099e-06
8.69406e-06
8.67381e-06
8.6503e-06
8.62358e-06
8.5937e-06
8.56075e-06
8.52477e-06
8.48583e-06
8.44404e-06
8.39948e-06
8.35223e-06
8.3024e-06
8.25008e-06
8.19538e-06
8.13841e-06
8.07927e-06
8.01808e-06
7.95497e-06
7.89012e-06
7.82053e-06
7.63548e-06
7.70395e-06
7.76786e-06
7.83004e-06
7.89033e-06
7.9486e-06
8.00472e-06
8.0586e-06
8.11014e-06
8.15922e-06
8.20576e-06
8.24965e-06
8.29081e-06
8.32916e-06
8.36459e-06
8.39706e-06
8.42648e-06
8.4528e-06
8.47596e-06
8.4959e-06
8.51258e-06
8.52596e-06
8.53602e-06
8.54275e-06
8.54611e-06
8.54611e-06
8.54275e-06
8.53602e-06
8.52596e-06
8.51258e-06
8.4959e-06
8.47596e-06
8.4528e-06
8.42648e-06
8.39706e-06
8.36459e-06
8.32916e-06
8.29081e-06
8.24965e-06
8.20576e-06
8.15922e-06
8.11013e-06
8.0586e-06
8.00472e-06
7.94859e-06
7.89033e-06
7.83004e-06
7.76786e-06
7.70395e-06
7.63548e-06
7.45143e-06
7.51879e-06
7.58176e-06
7.64303e-06
7.70242e-06
7.75981e-06
7.8151e-06
7.86817e-06
7.91893e-06
7.96728e-06
8.01312e-06
8.05635e-06
8.0969e-06
8.13466e-06
8.16957e-06
8.20155e-06
8.23053e-06
8.25645e-06
8.27926e-06
8.2989e-06
8.31533e-06
8.32851e-06
8.33843e-06
8.34505e-06
8.34836e-06
8.34836e-06
8.34505e-06
8.33843e-06
8.32851e-06
8.31533e-06
8.2989e-06
8.27926e-06
8.25645e-06
8.23053e-06
8.20155e-06
8.16957e-06
8.13466e-06
8.0969e-06
8.05635e-06
8.01312e-06
7.96728e-06
7.91893e-06
7.86817e-06
7.8151e-06
7.75981e-06
7.70242e-06
7.64302e-06
7.58176e-06
7.51879e-06
7.45142e-06
7.26838e-06
7.33464e-06
7.39668e-06
7.45703e-06
7.51552e-06
7.57205e-06
7.6265e-06
7.67877e-06
7.72877e-06
7.77639e-06
7.82154e-06
7.86412e-06
7.90405e-06
7.94125e-06
7.97564e-06
8.00713e-06
8.03568e-06
8.06122e-06
8.08368e-06
8.10303e-06
8.11921e-06
8.1322e-06
8.14197e-06
8.14849e-06
8.15175e-06
8.15175e-06
8.14849e-06
8.14197e-06
8.1322e-06
8.11921e-06
8.10303e-06
8.08368e-06
8.06122e-06
8.03568e-06
8.00713e-06
7.97564e-06
7.94125e-06
7.90405e-06
7.86412e-06
7.82154e-06
7.77639e-06
7.72877e-06
7.67877e-06
7.6265e-06
7.57205e-06
7.51552e-06
7.45703e-06
7.39668e-06
7.33464e-06
7.26838e-06
7.08637e-06
7.15152e-06
7.21263e-06
7.27205e-06
7.32965e-06
7.38532e-06
7.43893e-06
7.49041e-06
7.53964e-06
7.58654e-06
7.631e-06
7.67294e-06
7.71227e-06
7.7489e-06
7.78277e-06
7.81379e-06
7.84191e-06
7.86706e-06
7.88919e-06
7.90824e-06
7.92419e-06
7.93698e-06
7.9466e-06
7.95303e-06
7.95624e-06
7.95624e-06
7.95303e-06
7.9466e-06
7.93698e-06
7.92418e-06
7.90824e-06
7.88919e-06
7.86706e-06
7.84191e-06
7.81379e-06
7.78277e-06
7.7489e-06
7.71227e-06
7.67294e-06
7.631e-06
7.58654e-06
7.53964e-06
7.49041e-06
7.43893e-06
7.38532e-06
7.32965e-06
7.27205e-06
7.21263e-06
7.15152e-06
7.08637e-06
6.90539e-06
6.96944e-06
7.02961e-06
7.08811e-06
7.14482e-06
7.19961e-06
7.2524e-06
7.30307e-06
7.35155e-06
7.39772e-06
7.4415e-06
7.4828e-06
7.52153e-06
7.5576e-06
7.59095e-06
7.62151e-06
7.6492e-06
7.67397e-06
7.69576e-06
7.71453e-06
7.73023e-06
7.74283e-06
7.75231e-06
7.75864e-06
7.76181e-06
7.76181e-06
7.75864e-06
7.75231e-06
7.74283e-06
7.73023e-06
7.71453e-06
7.69576e-06
7.67397e-06
7.6492e-06
7.62151e-06
7.59095e-06
7.5576e-06
7.52152e-06
7.4828e-06
7.4415e-06
7.39772e-06
7.35155e-06
7.30307e-06
7.2524e-06
7.19961e-06
7.14482e-06
7.08811e-06
7.02961e-06
6.96944e-06
6.90539e-06
6.72547e-06
6.78842e-06
6.84764e-06
6.90522e-06
6.96102e-06
7.01495e-06
7.0669e-06
7.11678e-06
7.16449e-06
7.20994e-06
7.25304e-06
7.2937e-06
7.33183e-06
7.36735e-06
7.40018e-06
7.43027e-06
7.45754e-06
7.48193e-06
7.50339e-06
7.52187e-06
7.53733e-06
7.54974e-06
7.55908e-06
7.56531e-06
7.56843e-06
7.56843e-06
7.56531e-06
7.55908e-06
7.54974e-06
7.53733e-06
7.52187e-06
7.50339e-06
7.48193e-06
7.45754e-06
7.43027e-06
7.40018e-06
7.36735e-06
7.33183e-06
7.2937e-06
7.25304e-06
7.20994e-06
7.16449e-06
7.11678e-06
7.0669e-06
7.01495e-06
6.96102e-06
6.90522e-06
6.84764e-06
6.78842e-06
6.72547e-06
6.54664e-06
6.60848e-06
6.66675e-06
6.7234e-06
6.7783e-06
6.83135e-06
6.88246e-06
6.93154e-06
6.97849e-06
7.02322e-06
7.06563e-06
7.10565e-06
7.14317e-06
7.17814e-06
7.21046e-06
7.24008e-06
7.26692e-06
7.29093e-06
7.31206e-06
7.33026e-06
7.34548e-06
7.3577e-06
7.36689e-06
7.37303e-06
7.3761e-06
7.3761e-06
7.37303e-06
7.36689e-06
7.3577e-06
7.34548e-06
7.33026e-06
7.31206e-06
7.29093e-06
7.26692e-06
7.24008e-06
7.21046e-06
7.17814e-06
7.14317e-06
7.10564e-06
7.06563e-06
7.02322e-06
6.97849e-06
6.93154e-06
6.88246e-06
6.83135e-06
6.77829e-06
6.72339e-06
6.66675e-06
6.60848e-06
6.36892e-06
6.42965e-06
6.48696e-06
6.54266e-06
6.59665e-06
6.64883e-06
6.6991e-06
6.74737e-06
6.79355e-06
6.83756e-06
6.87928e-06
6.91865e-06
6.95558e-06
6.98999e-06
7.0218e-06
7.05095e-06
7.07736e-06
7.101e-06
7.12179e-06
7.1397e-06
7.15469e-06
7.16672e-06
7.17576e-06
7.18181e-06
7.18483e-06
7.18483e-06
7.1818e-06
7.17576e-06
7.16672e-06
7.15469e-06
7.1397e-06
7.12179e-06
7.101e-06
7.07736e-06
7.05095e-06
7.0218e-06
6.98999e-06
6.95558e-06
6.91865e-06
6.87928e-06
6.83755e-06
6.79355e-06
6.74737e-06
6.6991e-06
6.64883e-06
6.59665e-06
6.54266e-06
6.48696e-06
6.19234e-06
6.25196e-06
6.30829e-06
6.36305e-06
6.41612e-06
6.46741e-06
6.51683e-06
6.5643e-06
6.60971e-06
6.65298e-06
6.69402e-06
6.73274e-06
6.76907e-06
6.80291e-06
6.8342e-06
6.86288e-06
6.88887e-06
6.91213e-06
6.93259e-06
6.95021e-06
6.96496e-06
6.97679e-06
6.9857e-06
6.99164e-06
6.99462e-06
6.99462e-06
6.99164e-06
6.9857e-06
6.97679e-06
6.96496e-06
6.95021e-06
6.93259e-06
6.91213e-06
6.88887e-06
6.86288e-06
6.8342e-06
6.80291e-06
6.76906e-06
6.73274e-06
6.69402e-06
6.65298e-06
6.60971e-06
6.56429e-06
6.51683e-06
6.46741e-06
6.41612e-06
6.36305e-06
6.01692e-06
6.07543e-06
6.13078e-06
6.18458e-06
6.23673e-06
6.28713e-06
6.33569e-06
6.38234e-06
6.42698e-06
6.46951e-06
6.50986e-06
6.54793e-06
6.58365e-06
6.61693e-06
6.6477e-06
6.6759e-06
6.70147e-06
6.72434e-06
6.74446e-06
6.7618e-06
6.7763e-06
6.78795e-06
6.79671e-06
6.80255e-06
6.80548e-06
6.80548e-06
6.80255e-06
6.7967e-06
6.78795e-06
6.7763e-06
6.7618e-06
6.74446e-06
6.72434e-06
6.70147e-06
6.6759e-06
6.6477e-06
6.61693e-06
6.58365e-06
6.54793e-06
6.50986e-06
6.46951e-06
6.42698e-06
6.38234e-06
6.33569e-06
6.28712e-06
6.23672e-06
5.8427e-06
5.90009e-06
5.95445e-06
6.00729e-06
6.0585e-06
6.108e-06
6.15571e-06
6.20153e-06
6.24539e-06
6.28718e-06
6.32683e-06
6.36425e-06
6.39935e-06
6.43206e-06
6.46231e-06
6.49004e-06
6.51517e-06
6.53766e-06
6.55744e-06
6.57449e-06
6.58875e-06
6.6002e-06
6.60881e-06
6.61456e-06
6.61744e-06
6.61744e-06
6.61456e-06
6.60881e-06
6.6002e-06
6.58875e-06
6.57449e-06
6.55744e-06
6.53766e-06
6.51517e-06
6.49004e-06
6.46231e-06
6.43206e-06
6.39935e-06
6.36425e-06
6.32683e-06
6.28718e-06
6.24539e-06
6.20153e-06
6.15571e-06
6.108e-06
5.66972e-06
5.72598e-06
5.77934e-06
5.8312e-06
5.88147e-06
5.93007e-06
5.97691e-06
6.0219e-06
6.06497e-06
6.10602e-06
6.14497e-06
6.18172e-06
6.2162e-06
6.24834e-06
6.27807e-06
6.30531e-06
6.33001e-06
6.35211e-06
6.37155e-06
6.3883e-06
6.40232e-06
6.41358e-06
6.42204e-06
6.42769e-06
6.43052e-06
6.43052e-06
6.42769e-06
6.42204e-06
6.41358e-06
6.40232e-06
6.3883e-06
6.37155e-06
6.35211e-06
6.33001e-06
6.30531e-06
6.27807e-06
6.24834e-06
6.2162e-06
6.18172e-06
6.14496e-06
6.10602e-06
6.06497e-06
6.0219e-06
5.97691e-06
5.93007e-06
5.49801e-06
5.55314e-06
5.60549e-06
5.65636e-06
5.70568e-06
5.75336e-06
5.79933e-06
5.84349e-06
5.88576e-06
5.92606e-06
5.96429e-06
6.00038e-06
6.03424e-06
6.0658e-06
6.09499e-06
6.12175e-06
6.14601e-06
6.16772e-06
6.18682e-06
6.20328e-06
6.21705e-06
6.2281e-06
6.23642e-06
6.24197e-06
6.24475e-06
6.24475e-06
6.24197e-06
6.23642e-06
6.2281e-06
6.21705e-06
6.20328e-06
6.18682e-06
6.16772e-06
6.14601e-06
6.12175e-06
6.09499e-06
6.0658e-06
6.03424e-06
6.00038e-06
5.96429e-06
5.92606e-06
5.88576e-06
5.84349e-06
5.79933e-06
5.75336e-06
5.3276e-06
5.38159e-06
5.43292e-06
5.4828e-06
5.53116e-06
5.57792e-06
5.623e-06
5.66632e-06
5.70779e-06
5.74733e-06
5.78485e-06
5.82026e-06
5.85349e-06
5.88447e-06
5.91313e-06
5.93939e-06
5.96321e-06
5.98452e-06
6.00328e-06
6.01943e-06
6.03296e-06
6.04381e-06
6.05198e-06
6.05743e-06
6.06016e-06
6.06016e-06
6.05743e-06
6.05198e-06
6.04381e-06
6.03296e-06
6.01943e-06
6.00328e-06
5.98452e-06
5.96321e-06
5.93939e-06
5.91313e-06
5.88447e-06
5.85349e-06
5.82026e-06
5.78485e-06
5.74733e-06
5.70779e-06
5.66632e-06
5.623e-06
5.57792e-06
5.15853e-06
5.21138e-06
5.26168e-06
5.31056e-06
5.35795e-06
5.40378e-06
5.44797e-06
5.49044e-06
5.5311e-06
5.56987e-06
5.60666e-06
5.6414e-06
5.674e-06
5.70439e-06
5.7325e-06
5.75827e-06
5.78164e-06
5.80255e-06
5.82096e-06
5.83682e-06
5.85009e-06
5.86074e-06
5.86875e-06
5.87411e-06
5.87679e-06
5.87678e-06
5.87411e-06
5.86875e-06
5.86074e-06
5.85009e-06
5.83682e-06
5.82096e-06
5.80255e-06
5.78164e-06
5.75827e-06
5.7325e-06
5.70439e-06
5.674e-06
5.6414e-06
5.60666e-06
5.56987e-06
5.5311e-06
5.49044e-06
5.44797e-06
5.40378e-06
4.99085e-06
5.04255e-06
5.09181e-06
5.13968e-06
5.18609e-06
5.23098e-06
5.27427e-06
5.31588e-06
5.35573e-06
5.39373e-06
5.42979e-06
5.46384e-06
5.49579e-06
5.52559e-06
5.55315e-06
5.57842e-06
5.60134e-06
5.62185e-06
5.6399e-06
5.65546e-06
5.66847e-06
5.67892e-06
5.68678e-06
5.69203e-06
5.69466e-06
5.69466e-06
5.69203e-06
5.68678e-06
5.67892e-06
5.66847e-06
5.65546e-06
5.6399e-06
5.62185e-06
5.60134e-06
5.57842e-06
5.55315e-06
5.52559e-06
5.49579e-06
5.46384e-06
5.42979e-06
5.39373e-06
5.35573e-06
5.31588e-06
5.27427e-06
5.23098e-06
4.82459e-06
4.87515e-06
4.92335e-06
4.97019e-06
5.01562e-06
5.05956e-06
5.10195e-06
5.14269e-06
5.18172e-06
5.21893e-06
5.25426e-06
5.28761e-06
5.31892e-06
5.34812e-06
5.37513e-06
5.39989e-06
5.42235e-06
5.44246e-06
5.46015e-06
5.4754e-06
5.48816e-06
5.4984e-06
5.50611e-06
5.51125e-06
5.51383e-06
5.51383e-06
5.51125e-06
5.5061e-06
5.4984e-06
5.48816e-06
5.4754e-06
5.46015e-06
5.44246e-06
5.42235e-06
5.39989e-06
5.37513e-06
5.34812e-06
5.31892e-06
5.28761e-06
5.25426e-06
5.21893e-06
5.18172e-06
5.14269e-06
5.10195e-06
5.05956e-06
4.65981e-06
4.7092e-06
4.75634e-06
4.80215e-06
4.84658e-06
4.88957e-06
4.93104e-06
4.97092e-06
5.00911e-06
5.04554e-06
5.08011e-06
5.11277e-06
5.14343e-06
5.17201e-06
5.19847e-06
5.22272e-06
5.24472e-06
5.26441e-06
5.28174e-06
5.29668e-06
5.30918e-06
5.31922e-06
5.32676e-06
5.3318e-06
5.33433e-06
5.33433e-06
5.3318e-06
5.32676e-06
5.31921e-06
5.30918e-06
5.29668e-06
5.28174e-06
5.26441e-06
5.24472e-06
5.22272e-06
5.19847e-06
5.17201e-06
5.14343e-06
5.11277e-06
5.08011e-06
5.04553e-06
5.00911e-06
4.97092e-06
4.93104e-06
4.49654e-06
4.54476e-06
4.59083e-06
4.6356e-06
4.67903e-06
4.72106e-06
4.7616e-06
4.8006e-06
4.83795e-06
4.87358e-06
4.90741e-06
4.93936e-06
4.96935e-06
4.99733e-06
5.02322e-06
5.04695e-06
5.06849e-06
5.08776e-06
5.10473e-06
5.11935e-06
5.13159e-06
5.14141e-06
5.1488e-06
5.15374e-06
5.15621e-06
5.15621e-06
5.15374e-06
5.1488e-06
5.14141e-06
5.13159e-06
5.11935e-06
5.10473e-06
5.08776e-06
5.06849e-06
5.04695e-06
5.02322e-06
4.99733e-06
4.96935e-06
4.93935e-06
4.90741e-06
4.87358e-06
4.83795e-06
4.80059e-06
4.7616e-06
4.33483e-06
4.38188e-06
4.42686e-06
4.47059e-06
4.513e-06
4.55406e-06
4.59368e-06
4.63178e-06
4.66829e-06
4.70311e-06
4.73618e-06
4.76742e-06
4.79675e-06