/*--------------------------------*- C++ -*----------------------------------*\
  =========                 |
  \\      /  F ield         | OpenFOAM: The Open Source CFD Toolbox
   \\    /   O peration     | Website:  https://openfoam.org
    \\  /    A nd           | Version:  7
     \\/     M anipulation  |
\*---------------------------------------------------------------------------*/
FoamFile
{
    version     2.0;
    format      ascii;
    class       volScalarField;
    location    "132000";
    object      omega;
}
// * * * * * * * * * * * * * * * * * * * * * * * * * * * * * * * * * * * * * //

dimensions      [0 0 -1 0 0 0 0];

internalField   nonuniform List<scalar> 
4838
(
0.0217243
0.0215705
0.0214254
0.0212891
0.0211614
0.021042
0.0209306
0.0208269
0.0207307
0.0206417
0.0205597
0.0204845
0.0204158
0.0203534
0.0202971
0.0202466
0.0202019
0.0201627
0.0201288
0.0201
0.0200763
0.0200575
0.0200434
0.0200341
0.0200295
0.0200295
0.0200341
0.0200434
0.0200575
0.0200763
0.0201
0.0201288
0.0201627
0.0202019
0.0202466
0.0202971
0.0203534
0.0204158
0.0204845
0.0205597
0.0206417
0.0207307
0.0208269
0.0209306
0.021042
0.0211614
0.0212891
0.0214254
0.0215705
0.0217243
0.0219877
0.0218357
0.0216884
0.0215474
0.0214137
0.0212879
0.02117
0.0210599
0.0209574
0.0208623
0.0207745
0.0206937
0.0206197
0.0205524
0.0204915
0.0204368
0.0203882
0.0203454
0.0203084
0.020277
0.020251
0.0202304
0.020215
0.0202047
0.0201996
0.0201996
0.0202047
0.020215
0.0202304
0.020251
0.020277
0.0203084
0.0203454
0.0203882
0.0204368
0.0204915
0.0205524
0.0206197
0.0206937
0.0207745
0.0208623
0.0209574
0.0210599
0.02117
0.0212879
0.0214137
0.0215474
0.0216884
0.0218357
0.0219877
0.0222791
0.0221192
0.0219671
0.0218213
0.0216823
0.0215507
0.0214267
0.0213104
0.0212018
0.0211007
0.0210071
0.0209207
0.0208415
0.0207692
0.0207036
0.0206446
0.0205921
0.0205458
0.0205057
0.0204716
0.0204433
0.0204208
0.0204041
0.0203929
0.0203873
0.0203873
0.0203929
0.0204041
0.0204208
0.0204433
0.0204716
0.0205057
0.0205458
0.0205921
0.0206446
0.0207036
0.0207692
0.0208415
0.0209207
0.0210071
0.0211007
0.0212018
0.0213104
0.0214267
0.0215507
0.0216823
0.0218213
0.0219671
0.0221192
0.0222791
0.0225885
0.0224202
0.0222612
0.0221094
0.0219648
0.0218275
0.0216977
0.0215756
0.0214612
0.0213545
0.0212554
0.0211637
0.0210794
0.0210023
0.0209322
0.0208691
0.0208128
0.0207631
0.02072
0.0206832
0.0206527
0.0206285
0.0206103
0.0205983
0.0205923
0.0205923
0.0205983
0.0206103
0.0206285
0.0206527
0.0206832
0.02072
0.0207631
0.0208128
0.0208691
0.0209322
0.0210023
0.0210794
0.0211637
0.0212554
0.0213545
0.0214612
0.0215756
0.0216977
0.0218275
0.0219648
0.0221094
0.0222612
0.0224202
0.0225885
0.0229137
0.0227375
0.022571
0.0224126
0.0222618
0.0221187
0.0219832
0.0218555
0.0217355
0.0216233
0.0215189
0.0214221
0.0213329
0.0212512
0.0211769
0.0211098
0.0210498
0.0209968
0.0209507
0.0209114
0.0208788
0.0208529
0.0208335
0.0208205
0.0208141
0.0208141
0.0208205
0.0208335
0.0208529
0.0208788
0.0209114
0.0209507
0.0209968
0.0210498
0.0211098
0.0211769
0.0212512
0.0213329
0.0214221
0.0215189
0.0216233
0.0217355
0.0218555
0.0219832
0.0221187
0.0222618
0.0224126
0.022571
0.0227375
0.0229137
0.0232537
0.02307
0.0228962
0.0227309
0.0225737
0.0224245
0.0222832
0.0221499
0.0220244
0.021907
0.0217974
0.0216957
0.0216018
0.0215157
0.0214372
0.0213662
0.0213027
0.0212466
0.0211977
0.0211559
0.0211213
0.0210937
0.021073
0.0210592
0.0210524
0.0210524
0.0210592
0.021073
0.0210937
0.0211213
0.0211559
0.0211977
0.0212466
0.0213027
0.0213662
0.0214372
0.0215157
0.0216018
0.0216957
0.0217974
0.021907
0.0220244
0.0221499
0.0222832
0.0224245
0.0225737
0.0227309
0.0228962
0.02307
0.0232537
0.0236078
0.023417
0.0232361
0.0230639
0.0229002
0.0227449
0.0225977
0.0224588
0.0223279
0.0222053
0.0220907
0.0219842
0.0218858
0.0217953
0.0217128
0.0216382
0.0215712
0.021512
0.0214604
0.0214163
0.0213797
0.0213504
0.0213286
0.021314
0.0213067
0.0213067
0.021314
0.0213286
0.0213504
0.0213797
0.0214163
0.0214604
0.021512
0.0215712
0.0216382
0.0217128
0.0217953
0.0218858
0.0219842
0.0220907
0.0222053
0.0223279
0.0224588
0.0225977
0.0227449
0.0229002
0.0230639
0.0232361
0.023417
0.0236078
0.0239755
0.0237777
0.02359
0.0234112
0.0232411
0.0230796
0.0229266
0.022782
0.0226458
0.022518
0.0223985
0.0222874
0.0221845
0.0220899
0.0220035
0.0219252
0.021855
0.0217928
0.0217385
0.0216922
0.0216536
0.0216228
0.0215998
0.0215844
0.0215768
0.0215768
0.0215844
0.0215998
0.0216228
0.0216536
0.0216922
0.0217385
0.0217928
0.021855
0.0219252
0.0220035
0.0220899
0.0221845
0.0222874
0.0223985
0.022518
0.0226458
0.022782
0.0229266
0.0230796
0.0232411
0.0234112
0.02359
0.0237777
0.0239755
0.0243562
0.0241518
0.0239576
0.0237723
0.0235959
0.0234283
0.0232695
0.0231194
0.0229779
0.022845
0.0227207
0.0226049
0.0224978
0.0223991
0.0223089
0.0222271
0.0221537
0.0220886
0.0220318
0.0219832
0.0219428
0.0219105
0.0218863
0.0218702
0.0218622
0.0218622
0.0218702
0.0218863
0.0219105
0.0219428
0.0219832
0.0220318
0.0220886
0.0221537
0.0222271
0.0223089
0.0223991
0.0224978
0.022605
0.0227207
0.022845
0.0229779
0.0231194
0.0232695
0.0234283
0.0235959
0.0237723
0.0239576
0.0241518
0.0243562
0.0247497
0.0245389
0.0243382
0.0241467
0.0239642
0.0237907
0.0236261
0.0234705
0.0233238
0.0231859
0.0230569
0.0229366
0.0228252
0.0227225
0.0226286
0.0225434
0.0224669
0.022399
0.0223397
0.0222889
0.0222467
0.022213
0.0221877
0.0221709
0.0221625
0.0221625
0.0221709
0.0221877
0.022213
0.0222467
0.0222889
0.0223397
0.022399
0.0224669
0.0225434
0.0226286
0.0227225
0.0228252
0.0229366
0.0230569
0.0231859
0.0233238
0.0234705
0.0236261
0.0237907
0.0239642
0.0241467
0.0243382
0.0245389
0.0247497
0.0251556
0.0249385
0.0247317
0.024534
0.0243455
0.0241663
0.0239961
0.0238351
0.0236833
0.0235405
0.0234067
0.0232821
0.0231665
0.0230599
0.0229624
0.0228739
0.0227943
0.0227237
0.022662
0.0226092
0.0225652
0.02253
0.0225037
0.0224862
0.0224774
0.0224774
0.0224862
0.0225037
0.02253
0.0225652
0.0226092
0.022662
0.0227237
0.0227943
0.0228739
0.0229624
0.0230599
0.0231665
0.0232821
0.0234067
0.0235405
0.0236833
0.0238351
0.0239961
0.0241663
0.0243455
0.024534
0.0247317
0.0249385
0.0251556
0.0255736
0.0253505
0.0251376
0.024934
0.0247397
0.0245548
0.0243792
0.0242129
0.024056
0.0239084
0.0237701
0.0236411
0.0235214
0.023411
0.02331
0.0232182
0.0231357
0.0230624
0.0229983
0.0229435
0.0228978
0.0228613
0.0228339
0.0228157
0.0228065
0.0228065
0.0228157
0.0228339
0.0228613
0.0228978
0.0229435
0.0229983
0.0230624
0.0231357
0.0232182
0.02331
0.023411
0.0235214
0.0236411
0.0237701
0.0239084
0.024056
0.0242129
0.0243792
0.0245548
0.0247397
0.024934
0.0251376
0.0253505
0.0255737
0.0260036
0.0257745
0.0255557
0.0253463
0.0251464
0.0249559
0.0247749
0.0246035
0.0244416
0.0242893
0.0241465
0.0240133
0.0238896
0.0237755
0.023671
0.023576
0.0234906
0.0234147
0.0233484
0.0232915
0.0232442
0.0232063
0.023178
0.023159
0.0231496
0.0231496
0.023159
0.023178
0.0232063
0.0232442
0.0232915
0.0233484
0.0234147
0.0234906
0.023576
0.023671
0.0237755
0.0238896
0.0240133
0.0241465
0.0242893
0.0244416
0.0246035
0.024775
0.0249559
0.0251464
0.0253463
0.0255557
0.0257745
0.0260036
0.0264452
0.0262103
0.0259858
0.0257707
0.0255652
0.0253694
0.0251832
0.0250067
0.02484
0.024683
0.0245358
0.0243984
0.0242709
0.0241531
0.0240452
0.0239471
0.0238588
0.0237804
0.0237118
0.0236531
0.0236041
0.0235649
0.0235356
0.023516
0.0235062
0.0235062
0.023516
0.0235356
0.0235649
0.0236041
0.0236531
0.0237118
0.0237804
0.0238588
0.0239471
0.0240452
0.0241531
0.0242709
0.0243984
0.0245358
0.024683
0.02484
0.0250067
0.0251832
0.0253694
0.0255652
0.0257707
0.0259858
0.0262103
0.0264453
0.0268984
0.0266578
0.0264276
0.026207
0.0259961
0.0257949
0.0256036
0.0254222
0.0252507
0.0250892
0.0249377
0.0247963
0.0246648
0.0245435
0.0244323
0.0243311
0.0242401
0.0241592
0.0240884
0.0240278
0.0239772
0.0239368
0.0239065
0.0238862
0.0238761
0.0238761
0.0238862
0.0239065
0.0239368
0.0239772
0.0240278
0.0240884
0.0241592
0.0242401
0.0243311
0.0244323
0.0245435
0.0246648
0.0247963
0.0249377
0.0250892
0.0252507
0.0254222
0.0256036
0.0257949
0.0259961
0.026207
0.0264276
0.0266578
0.0268984
0.0273629
0.0271167
0.0268809
0.0266549
0.0264387
0.0262324
0.026036
0.0258498
0.0256737
0.0255077
0.025352
0.0252065
0.0250713
0.0249465
0.024832
0.0247279
0.0246341
0.0245508
0.0244779
0.0244154
0.0243633
0.0243216
0.0242903
0.0242695
0.0242591
0.0242591
0.0242695
0.0242903
0.0243216
0.0243633
0.0244154
0.0244779
0.0245508
0.0246341
0.0247279
0.024832
0.0249465
0.0250713
0.0252065
0.025352
0.0255077
0.0256737
0.0258498
0.026036
0.0262324
0.0264387
0.0266549
0.026881
0.0271167
0.0273629
0.0278386
0.0275869
0.0273457
0.0271143
0.0268929
0.0266815
0.0264802
0.0262892
0.0261085
0.0259382
0.0257783
0.0256289
0.0254901
0.0253618
0.0252441
0.0251371
0.0250407
0.024955
0.0248799
0.0248156
0.024762
0.0247191
0.0246869
0.0246655
0.0246547
0.0246547
0.0246655
0.0246869
0.0247191
0.024762
0.0248156
0.0248799
0.024955
0.0250407
0.0251371
0.0252441
0.0253618
0.0254901
0.0256289
0.0257783
0.0259382
0.0261085
0.0262892
0.0264802
0.0266815
0.0268929
0.0271143
0.0273457
0.0275869
0.0278386
0.0283254
0.0280682
0.0278217
0.0275851
0.0273585
0.0271421
0.026936
0.0267404
0.0265552
0.0263806
0.0262166
0.0260634
0.0259209
0.0257892
0.0256684
0.0255585
0.0254595
0.0253714
0.0252944
0.0252283
0.0251732
0.0251291
0.025096
0.0250739
0.0250629
0.0250629
0.0250739
0.025096
0.0251291
0.0251732
0.0252283
0.0252944
0.0253714
0.0254595
0.0255585
0.0256684
0.0257892
0.0259209
0.0260634
0.0262166
0.0263806
0.0265552
0.0267404
0.0269361
0.0271421
0.0273585
0.0275851
0.0278217
0.0280682
0.0283254
0.0288231
0.0285607
0.0283089
0.0280671
0.0278354
0.0276141
0.0274033
0.027203
0.0270134
0.0268346
0.0266667
0.0265096
0.0263636
0.0262286
0.0261047
0.025992
0.0258904
0.0258001
0.025721
0.0256531
0.0255966
0.0255513
0.0255173
0.0254947
0.0254834
0.0254834
0.0254947
0.0255173
0.0255513
0.0255966
0.0256531
0.025721
0.0258001
0.0258904
0.025992
0.0261047
0.0262286
0.0263636
0.0265096
0.0266667
0.0268346
0.0270135
0.027203
0.0274033
0.0276142
0.0278355
0.0280671
0.0283089
0.0285607
0.0288232
0.0288071
0.0285602
0.0283236
0.0280974
0.0278819
0.0276771
0.0274832
0.0273002
0.0271283
0.0269675
0.026818
0.0266797
0.0265528
0.0264373
0.0263332
0.0262406
0.0261595
0.02609
0.026032
0.0259856
0.0259508
0.0259275
0.0259159
0.0259159
0.0259275
0.0259508
0.0259856
0.026032
0.02609
0.0261595
0.0262406
0.0263332
0.0264373
0.0265528
0.0266797
0.026818
0.0269675
0.0271283
0.0273002
0.0274832
0.0276771
0.0278819
0.0280974
0.0283236
0.0285602
0.0288071
0.0290641
0.0293319
0.0290643
0.0288228
0.0285919
0.0283717
0.0281624
0.0279642
0.0277772
0.0276014
0.0274369
0.027284
0.0271425
0.0270126
0.0268943
0.0267878
0.026693
0.0266099
0.0265387
0.0264793
0.0264317
0.0263961
0.0263723
0.0263604
0.0263604
0.0263723
0.0263961
0.0264317
0.0264793
0.0265387
0.0266099
0.026693
0.0267878
0.0268943
0.0270126
0.0271425
0.027284
0.0274369
0.0276014
0.0277772
0.0279642
0.0281625
0.0283717
0.0285919
0.0288228
0.0290643
0.0293163
0.0295785
0.0298515
0.0290974
0.0288726
0.028659
0.0284565
0.0282654
0.0280858
0.0279177
0.0277613
0.0276167
0.0274839
0.0273629
0.0272539
0.0271569
0.027072
0.0269991
0.0269383
0.0268896
0.0268531
0.0268288
0.0268166
0.0268166
0.0268288
0.0268531
0.0268896
0.0269383
0.0269991
0.027072
0.0271569
0.0272539
0.0273629
0.0274839
0.0276167
0.0277614
0.0279177
0.0280858
0.0282654
0.0284565
0.028659
0.0288726
0.0290974
0.029333
0.0295794
0.0298364
0.0301037
0.0303819
0.0293846
0.0291666
0.02896
0.0287649
0.0285815
0.0284098
0.0282501
0.0281023
0.0279666
0.027843
0.0277316
0.0276324
0.0275455
0.027471
0.0274088
0.0273591
0.0273218
0.0272969
0.0272844
0.0272844
0.0272969
0.0273218
0.0273591
0.0274089
0.027471
0.0275455
0.0276324
0.0277316
0.027843
0.0279666
0.0281023
0.0282501
0.0284098
0.0285815
0.0287649
0.02896
0.0291666
0.0293846
0.0296139
0.0298543
0.0301055
0.0303674
0.0306398
0.0309232
0.0296853
0.0294745
0.0292755
0.0290883
0.0289131
0.02875
0.0285992
0.0284606
0.0283343
0.0282206
0.0281193
0.0280305
0.0279544
0.0278909
0.02784
0.0278019
0.0277764
0.0277637
0.0277637
0.0277764
0.0278019
0.02784
0.0278909
0.0279544
0.0280305
0.0281193
0.0282206
0.0283343
0.0284606
0.0285992
0.02875
0.0289131
0.0290883
0.0292755
0.0294745
0.0296853
0.0299077
0.0301414
0.0303864
0.0306425
0.0309093
0.0311867
0.0314753
0.0297972
0.0296063
0.0294276
0.0292612
0.0291072
0.0289658
0.028837
0.0287208
0.0286174
0.0285269
0.0284491
0.0283843
0.0283324
0.0282934
0.0282674
0.0282544
0.0282544
0.0282674
0.0282934
0.0283324
0.0283843
0.0284491
0.0285269
0.0286174
0.0287208
0.028837
0.0289658
0.0291072
0.0292612
0.0294276
0.0296063
0.0297972
0.0300001
0.030215
0.0304417
0.0306799
0.0309295
0.0311903
0.0314621
0.0317445
0.0320382
0.0301353
0.0299531
0.0297835
0.0296265
0.0294822
0.0293508
0.0292324
0.0291269
0.0290344
0.0289551
0.028889
0.028836
0.0287962
0.0287697
0.0287565
0.0287565
0.0287697
0.0287962
0.028836
0.028889
0.0289551
0.0290344
0.0291269
0.0292324
0.0293508
0.0294822
0.0296265
0.0297835
0.0299531
0.0301353
0.0303299
0.0305368
0.0307557
0.0309866
0.0312293
0.0314835
0.0317491
0.0320257
0.0323132
0.032612
0.0300098
0.0298759
0.0297551
0.0296475
0.0295533
0.0294724
0.0294049
0.0293509
0.0293103
0.0292833
0.0292697
0.0292697
0.0292833
0.0293103
0.0293509
0.0294049
0.0294724
0.0295533
0.0296475
0.0297551
0.0298759
0.0300098
0.0301569
0.0303169
0.0304898
0.0306754
0.0308737
0.0310844
0.0313075
0.0315426
0.0317897
0.0320485
0.0323188
0.0326004
0.0328929
0.0331968
0.0300832
0.0300008
0.029932
0.0298769
0.0298356
0.029808
0.0297943
0.0297943
0.029808
0.0298356
0.029877
0.029932
0.0300008
0.0300832
0.0301793
0.0302889
0.030412
0.0305485
0.0306983
0.0308614
0.0310375
0.0312266
0.0314285
0.0316431
0.0318702
0.0321096
0.0323611
0.0326245
0.0328996
0.033186
0.0334835
0.0337925
0.0304703
0.0304142
0.0303721
0.030344
0.03033
0.03033
0.030344
0.0303721
0.0304142
0.0304703
0.0305404
0.0306244
0.0307223
0.0308339
0.0309593
0.0310984
0.0312509
0.031417
0.0315963
0.0317888
0.0319944
0.0322129
0.032444
0.0326877
0.0329436
0.0332116
0.0334913
0.0337826
0.0340852
0.0343994
0.0308769
0.0308769
0.0308912
0.0309198
0.0309627
0.0310198
0.0310912
0.0311767
0.0312764
0.0313901
0.0315178
0.0316593
0.0318147
0.0319837
0.0321663
0.0323622
0.0325714
0.0327937
0.0330289
0.0332768
0.0335372
0.0338097
0.0340943
0.0343905
0.034698
0.0350174
0.0315805
0.0316532
0.0317403
0.0318417
0.0319575
0.0320874
0.0322315
0.0323896
0.0325616
0.0327474
0.0329468
0.0331596
0.0333858
0.033625
0.0338772
0.0341419
0.0344191
0.0347084
0.0350095
0.0353222
0.0356467
0.0324183
0.0325361
0.0326683
0.0328149
0.0329758
0.0331507
0.0333397
0.0335426
0.0337591
0.0339891
0.0342324
0.0344888
0.034758
0.0350398
0.0353339
0.03564
0.0359577
0.0362875
0.0332605
0.0334096
0.0335732
0.0337512
0.0339434
0.0341497
0.0343699
0.0346038
0.0348512
0.0351118
0.0353855
0.0356719
0.0359708
0.0362819
0.0366048
0.0369398
0.033864
0.0340157
0.0341821
0.0343631
0.0345585
0.0347683
0.0349921
0.0352299
0.0354814
0.0357463
0.0360245
0.0363156
0.0366194
0.0369355
0.0372635
0.0376039
0.0344791
0.0346333
0.0348024
0.0349864
0.0351851
0.0353984
0.0356259
0.0358676
0.0361232
0.0363925
0.0366752
0.036971
0.0372797
0.0376008
0.0379341
0.0382798
0.0356215
0.0358234
0.0360402
0.0362714
0.0365171
0.0367769
0.0370505
0.0373378
0.0376383
0.0379519
0.0382782
0.0386168
0.0389679
0.0374424
0.0377205
0.0380123
0.0383177
0.0386363
0.0389677
0.0393116
0.0396683
0.0390093
0.039333
0.0396696
0.0400189
0.0403811
0.0200434
0.0200341
0.0200295
0.0200295
0.0200341
0.0200434
0.0200575
0.0200763
0.0201
0.0201288
0.0201627
0.0202019
0.0202466
0.0202971
0.0203534
0.0204158
0.0204845
0.0205597
0.0206417
0.0207307
0.0208269
0.0209306
0.021042
0.0211614
0.0212891
0.0214254
0.0215705
0.0217243
0.0202149
0.0202047
0.0201996
0.0201996
0.0202047
0.0202149
0.0202304
0.020251
0.020277
0.0203084
0.0203454
0.0203882
0.0204368
0.0204915
0.0205524
0.0206197
0.0206937
0.0207745
0.0208623
0.0209574
0.0210599
0.02117
0.0212879
0.0214137
0.0215474
0.0216884
0.0218357
0.0219877
0.020404
0.0203929
0.0203873
0.0203873
0.0203929
0.020404
0.0204208
0.0204433
0.0204716
0.0205057
0.0205458
0.0205921
0.0206446
0.0207036
0.0207692
0.0208415
0.0209207
0.0210071
0.0211007
0.0212017
0.0213104
0.0214267
0.0215506
0.0216823
0.0218213
0.0219671
0.0221192
0.0222791
0.0206103
0.0205983
0.0205923
0.0205923
0.0205983
0.0206103
0.0206285
0.0206527
0.0206832
0.0207199
0.0207631
0.0208128
0.0208691
0.0209322
0.0210023
0.0210794
0.0211637
0.0212553
0.0213545
0.0214612
0.0215756
0.0216977
0.0218275
0.0219648
0.0221094
0.0222612
0.0224202
0.0225885
0.0208334
0.0208205
0.0208141
0.0208141
0.0208205
0.0208334
0.0208529
0.0208788
0.0209114
0.0209507
0.0209968
0.0210498
0.0211098
0.0211769
0.0212512
0.0213329
0.0214221
0.0215189
0.0216233
0.0217355
0.0218555
0.0219832
0.0221187
0.0222618
0.0224126
0.022571
0.0227375
0.0229137
0.021073
0.0210592
0.0210523
0.0210523
0.0210592
0.021073
0.0210936
0.0211213
0.0211559
0.0211977
0.0212466
0.0213027
0.0213662
0.0214372
0.0215157
0.0216018
0.0216957
0.0217974
0.0219069
0.0220244
0.0221499
0.0222832
0.0224245
0.0225737
0.0227309
0.0228962
0.02307
0.0232537
0.0213285
0.021314
0.0213067
0.0213067
0.021314
0.0213285
0.0213504
0.0213797
0.0214163
0.0214604
0.021512
0.0215712
0.0216381
0.0217128
0.0217953
0.0218858
0.0219842
0.0220907
0.0222052
0.0223279
0.0224588
0.0225977
0.0227449
0.0229002
0.0230639
0.0232361
0.023417
0.0236078
0.0215998
0.0215844
0.0215768
0.0215768
0.0215844
0.0215998
0.0216228
0.0216536
0.0216921
0.0217385
0.0217928
0.021855
0.0219252
0.0220035
0.0220899
0.0221845
0.0222874
0.0223985
0.022518
0.0226458
0.022782
0.0229266
0.0230796
0.0232411
0.0234112
0.02359
0.0237777
0.0239755
0.0218863
0.0218702
0.0218621
0.0218621
0.0218702
0.0218863
0.0219105
0.0219427
0.0219832
0.0220317
0.0220886
0.0221536
0.0222271
0.0223088
0.0223991
0.0224977
0.0226049
0.0227207
0.022845
0.0229779
0.0231194
0.0232695
0.0234283
0.0235959
0.0237723
0.0239576
0.0241518
0.0243562
0.0221877
0.0221709
0.0221625
0.0221625
0.0221709
0.0221877
0.022213
0.0222467
0.0222889
0.0223397
0.022399
0.0224669
0.0225434
0.0226286
0.0227225
0.0228252
0.0229366
0.0230568
0.0231859
0.0233238
0.0234705
0.0236261
0.0237907
0.0239641
0.0241467
0.0243382
0.0245389
0.0247497
0.0225037
0.0224861
0.0224774
0.0224774
0.0224861
0.0225037
0.02253
0.0225652
0.0226091
0.022662
0.0227237
0.0227943
0.0228739
0.0229624
0.0230599
0.0231665
0.0232821
0.0234067
0.0235405
0.0236832
0.0238351
0.0239961
0.0241663
0.0243455
0.024534
0.0247317
0.0249385
0.0251556
0.0228339
0.0228156
0.0228065
0.0228065
0.0228156
0.0228339
0.0228612
0.0228978
0.0229434
0.0229983
0.0230624
0.0231356
0.0232182
0.02331
0.023411
0.0235214
0.0236411
0.0237701
0.0239084
0.024056
0.0242129
0.0243792
0.0245548
0.0247397
0.024934
0.0251376
0.0253505
0.0255736
0.0231779
0.023159
0.0231496
0.0231496
0.023159
0.0231779
0.0232063
0.0232442
0.0232915
0.0233483
0.0234147
0.0234906
0.023576
0.023671
0.0237755
0.0238896
0.0240133
0.0241465
0.0242893
0.0244416
0.0246035
0.0247749
0.0249559
0.0251464
0.0253463
0.0255557
0.0257745
0.0260036
0.0235355
0.023516
0.0235062
0.0235062
0.023516
0.0235356
0.0235649
0.0236041
0.023653
0.0237118
0.0237804
0.0238588
0.0239471
0.0240452
0.0241531
0.0242708
0.0243984
0.0245358
0.024683
0.02484
0.0250067
0.0251832
0.0253694
0.0255652
0.0257707
0.0259858
0.0262103
0.0264452
0.0240277
0.0240884
0.0241592
0.0242401
0.0243311
0.0244323
0.0245435
0.0246648
0.0247962
0.0249377
0.0250892
0.0252507
0.0254222
0.0256036
0.0257949
0.0259961
0.026207
0.0264276
0.0266578
0.0268984
0.0255077
0.0256736
0.0258498
0.026036
0.0262324
0.0264387
0.0266549
0.0268809
0.0271167
0.0273629
0.0266815
0.0268929
0.0271143
0.0273457
0.0275869
0.0278386
0.0278217
0.0280682
0.0283254
0.0424314
0.0432037
0.0439903
0.0310984
0.0316593
0.0322315
0.0328149
0.0334096
0.0340157
0.0346333
0.0352625
0.0359034
0.0365562
0.0372211
0.0378982
0.0385878
0.0392899
0.040005
0.0407332
0.0414747
0.0422299
0.0429991
0.0437824
0.0293508
0.0298759
0.030412
0.0309593
0.0315178
0.0320874
0.0326683
0.0332605
0.033864
0.0344791
0.0351057
0.0357441
0.0363943
0.0370566
0.037731
0.0384179
0.0391174
0.0398297
0.0405552
0.0412939
0.0420462
0.0428125
0.0435929
0.0292324
0.0297551
0.0302889
0.0308339
0.0313901
0.0319575
0.0325361
0.033126
0.0337272
0.03434
0.0349643
0.0356003
0.0362482
0.0369081
0.0375802
0.0382647
0.0389618
0.0396716
0.0403945
0.0411308
0.0418805
0.0426442
0.0434219
0.0291269
0.0296475
0.0301793
0.0307223
0.0312764
0.0318417
0.0324183
0.0330061
0.0336054
0.0342161
0.0348383
0.0354723
0.0361181
0.0367759
0.0374459
0.0381282
0.0388231
0.0395308
0.0402515
0.0409854
0.0417329
0.0424942
0.0432696
0.0290344
0.0295533
0.0300832
0.0306244
0.0311768
0.0317403
0.0323151
0.0329011
0.0334986
0.0341075
0.0347279
0.0353601
0.0360041
0.03666
0.0373281
0.0380086
0.0387016
0.0394073
0.040126
0.040858
0.0416035
0.0423628
0.0431361
0.0211559
0.0214163
0.0216921
0.0219832
0.0222889
0.0226091
0.0229434
0.0232915
0.023653
0.0240277
0.0244153
0.0248156
0.0252282
0.0256531
0.02609
0.0265387
0.0269991
0.027471
0.0279544
0.0284491
0.0289551
0.0294724
0.0300008
0.0305404
0.0310912
0.0316532
0.0322264
0.032811
0.0334069
0.0340142
0.0346331
0.0352637
0.0359061
0.0365605
0.037227
0.0379059
0.0385972
0.0393013
0.0400184
0.0407486
0.0414924
0.0422499
0.0430215
0.0211213
0.0213797
0.0216536
0.0219427
0.0222467
0.0225652
0.0228978
0.0232442
0.0236041
0.0239772
0.0243632
0.024762
0.0251731
0.0255966
0.026032
0.0264793
0.0269383
0.0274088
0.0278909
0.0283843
0.028889
0.0294049
0.029932
0.0304703
0.0310199
0.0315806
0.0321525
0.0327358
0.0333304
0.0339364
0.034554
0.0351833
0.0358244
0.0364775
0.0371426
0.0378201
0.0385101
0.0392128
0.0399285
0.0406574
0.0413997
0.0421558
0.0429259
0.0210936
0.0213504
0.0216228
0.0219105
0.022213
0.02253
0.0228613
0.0232063
0.0235649
0.0239368
0.0243216
0.0247191
0.0251291
0.0255513
0.0259856
0.0264317
0.0268896
0.0273591
0.02784
0.0283324
0.028836
0.0293509
0.029877
0.0304142
0.0309627
0.0315224
0.0320933
0.0326755
0.0332691
0.0338741
0.0344907
0.0351189
0.035759
0.036411
0.0370751
0.0377515
0.0384404
0.039142
0.0398566
0.0405843
0.0413255
0.0420804
0.0428493
0.0200434
0.0202149
0.020404
0.0206103
0.0208334
0.021073
0.0213285
0.0215998
0.0218863
0.0221877
0.0225037
0.0228339
0.0231779
0.0235356
0.0239064
0.0242903
0.0246869
0.025096
0.0255173
0.0259508
0.0263961
0.0268531
0.0273218
0.0278019
0.0282934
0.0287962
0.0293103
0.0298356
0.0303721
0.0309198
0.0314787
0.0320489
0.0326303
0.0332231
0.0338274
0.0344431
0.0350706
0.0357099
0.0363611
0.0370244
0.0377
0.038388
0.0390888
0.0398025
0.0405294
0.0412697
0.0420238
0.0427918
0.0200341
0.0202047
0.0203929
0.0205983
0.0208205
0.0210592
0.021314
0.0215844
0.0218702
0.0221709
0.0224862
0.0228156
0.023159
0.023516
0.0238862
0.0242695
0.0246655
0.0250739
0.0254947
0.0259275
0.0263723
0.0268288
0.0272969
0.0277764
0.0282674
0.0287697
0.0292833
0.0298081
0.030344
0.0308912
0.0314496
0.0320192
0.0326001
0.0331924
0.0337962
0.0344114
0.0350384
0.0356771
0.0363278
0.0369905
0.0376656
0.0383531
0.0390534
0.0397665
0.0404928
0.0412326
0.041986
0.0427534
0.0200295
0.0201996
0.0203873
0.0205923
0.0208141
0.0210524
0.0213067
0.0215768
0.0218622
0.0221625
0.0224774
0.0228065
0.0231496
0.0235062
0.0238761
0.0242591
0.0246547
0.0250629
0.0254834
0.0259159
0.0263604
0.0268166
0.0272844
0.0277637
0.0282544
0.0287565
0.0292698
0.0297943
0.03033
0.0308769
0.031435
0.0320044
0.0325851
0.0331771
0.0337806
0.0343956
0.0350222
0.0356607
0.0363111
0.0369736
0.0376484
0.0383357
0.0390356
0.0397485
0.0404745
0.041214
0.0419671
0.0427342
0.0200295
0.0201996
0.0203873
0.0205923
0.0208141
0.0210524
0.0213067
0.0215768
0.0218622
0.0221625
0.0224774
0.0228065
0.0231496
0.0235062
0.0238761
0.0242591
0.0246547
0.0250629
0.0254834
0.0259159
0.0263604
0.0268166
0.0272844
0.0277637
0.0282544
0.0287565
0.0292698
0.0297943
0.03033
0.0308769
0.031435
0.0320044
0.0325851
0.0331771
0.0337806
0.0343956
0.0350222
0.0356607
0.0363111
0.0369736
0.0376484
0.0383357
0.0390356
0.0397485
0.0404745
0.041214
0.0419671
0.0427342
0.0200341
0.0202047
0.0203929
0.0205983
0.0208205
0.0210592
0.021314
0.0215844
0.0218702
0.0221709
0.0224862
0.0228157
0.023159
0.023516
0.0238862
0.0242695
0.0246655
0.0250739
0.0254947
0.0259275
0.0263723
0.0268288
0.0272969
0.0277764
0.0282674
0.0287697
0.0292833
0.0298081
0.030344
0.0308912
0.0314496
0.0320192
0.0326001
0.0331924
0.0337962
0.0344114
0.0350384
0.0356771
0.0363278
0.0369905
0.0376656
0.0383531
0.0390534
0.0397665
0.0404928
0.0412326
0.041986
0.0427534
0.0200434
0.0202149
0.020404
0.0206103
0.0208334
0.021073
0.0213286
0.0215998
0.0218863
0.0221877
0.0225037
0.0228339
0.023178
0.0235356
0.0239065
0.0242903
0.0246869
0.025096
0.0255173
0.0259508
0.0263961
0.0268531
0.0273218
0.0278019
0.0282934
0.0287962
0.0293103
0.0298356
0.0303721
0.0309198
0.0314787
0.0320489
0.0326303
0.0332231
0.0338274
0.0344431
0.0350706
0.0357099
0.0363611
0.0370244
0.0377
0.038388
0.0390888
0.0398025
0.0405294
0.0412697
0.0420238
0.0427918
0.0200575
0.0202304
0.0204208
0.0206285
0.0208529
0.0210936
0.0213504
0.0216228
0.0219105
0.022213
0.02253
0.0228613
0.0232063
0.0235649
0.0239368
0.0243216
0.0247191
0.0251291
0.0255513
0.0259856
0.0264317
0.0268896
0.0273591
0.02784
0.0283324
0.028836
0.0293509
0.029877
0.0304142
0.0309627
0.0315224
0.0320933
0.0326755
0.0332691
0.0338741
0.0344907
0.0351189
0.035759
0.036411
0.0370751
0.0377515
0.0384404
0.039142
0.0398566
0.0405843
0.0413255
0.0420804
0.0428493
0.0200763
0.020251
0.0204433
0.0206527
0.0208788
0.0211213
0.0213797
0.0216536
0.0219428
0.0222467
0.0225652
0.0228978
0.0232442
0.0236041
0.0239772
0.0243633
0.024762
0.0251732
0.0255966
0.026032
0.0264793
0.0269383
0.0274089
0.0278909
0.0283843
0.028889
0.0294049
0.029932
0.0304704
0.0310199
0.0315806
0.0321525
0.0327358
0.0333304
0.0339364
0.034554
0.0351833
0.0358244
0.0364775
0.0371426
0.0378201
0.0385101
0.0392128
0.0399285
0.0406574
0.0413997
0.0421558
0.0429259
0.0201
0.020277
0.0204716
0.0206832
0.0209114
0.0211559
0.0214163
0.0216922
0.0219832
0.0222889
0.0226092
0.0229435
0.0232915
0.0236531
0.0240278
0.0244154
0.0248156
0.0252283
0.0256531
0.02609
0.0265387
0.0269991
0.027471
0.0279544
0.0284491
0.0289551
0.0294724
0.0300008
0.0305404
0.0310912
0.0316532
0.0322265
0.032811
0.0334069
0.0340142
0.0346331
0.0352637
0.0359061
0.0365605
0.037227
0.0379059
0.0385972
0.0393013
0.0400184
0.0407487
0.0414924
0.0422499
0.0430215
0.0201288
0.0203084
0.0205057
0.0207199
0.0209507
0.0211977
0.0214604
0.0217385
0.0220318
0.0223397
0.022662
0.0229983
0.0233484
0.0237118
0.0240884
0.0244779
0.0248799
0.0252944
0.025721
0.0261595
0.0266099
0.027072
0.0275455
0.0280305
0.0285269
0.0290345
0.0295533
0.0300833
0.0306244
0.0311768
0.0317403
0.0323151
0.0329011
0.0334986
0.0341075
0.0347279
0.0353601
0.0360041
0.03666
0.0373281
0.0380086
0.0387016
0.0394073
0.0401261
0.040858
0.0416035
0.0423628
0.0431361
0.0201627
0.0203454
0.0205458
0.0207631
0.0209968
0.0212466
0.021512
0.0217928
0.0220886
0.022399
0.0227237
0.0230624
0.0234147
0.0237804
0.0241592
0.0245508
0.024955
0.0253714
0.0258001
0.0262406
0.026693
0.0271569
0.0276324
0.0281193
0.0286175
0.0291269
0.0296475
0.0301793
0.0307223
0.0312764
0.0318417
0.0324183
0.0330062
0.0336054
0.0342161
0.0348384
0.0354723
0.0361181
0.0367759
0.0374459
0.0381282
0.0388231
0.0395308
0.0402515
0.0409854
0.0417329
0.0424942
0.0432696
0.0202019
0.0203882
0.0205921
0.0208128
0.0210498
0.0213027
0.0215712
0.021855
0.0221537
0.0224669
0.0227943
0.0231357
0.0234906
0.0238588
0.0242401
0.0246341
0.0250407
0.0254595
0.0258904
0.0263332
0.0267878
0.0272539
0.0277316
0.0282206
0.0287209
0.0292324
0.0297551
0.0302889
0.030834
0.0313901
0.0319575
0.0325361
0.033126
0.0337272
0.03434
0.0349643
0.0356004
0.0362482
0.0369082
0.0375802
0.0382647
0.0389618
0.0396716
0.0403946
0.0411308
0.0418805
0.0426442
0.0434219
0.0202466
0.0204368
0.0206446
0.0208691
0.0211098
0.0213662
0.0216382
0.0219252
0.0222271
0.0225434
0.0228739
0.0232182
0.023576
0.0239471
0.0243311
0.0247279
0.0251371
0.0255585
0.025992
0.0264373
0.0268943
0.0273629
0.027843
0.0283344
0.028837
0.0293509
0.0298759
0.030412
0.0309593
0.0315178
0.0320874
0.0326683
0.0332605
0.0338641
0.0344791
0.0351057
0.0357441
0.0363943
0.0370566
0.0377311
0.0384179
0.0391174
0.0398298
0.0405552
0.0412939
0.0420462
0.0428125
0.0435929
0.0202971
0.0204915
0.0207036
0.0209322
0.0211769
0.0214372
0.0217128
0.0220035
0.0223089
0.0226286
0.0229624
0.02331
0.023671
0.0240452
0.0244323
0.024832
0.0252441
0.0256684
0.0261047
0.0265528
0.0270126
0.0274839
0.0279666
0.0284606
0.0289658
0.0294823
0.0300098
0.0305485
0.0310984
0.0316594
0.0322315
0.0328149
0.0334096
0.0340157
0.0346333
0.0352625
0.0359034
0.0365562
0.0372211
0.0378982
0.0385878
0.03929
0.040005
0.0407332
0.0414747
0.0422299
0.0429991
0.0437824
0.0203534
0.0205524
0.0207692
0.0210023
0.0212512
0.0215157
0.0217953
0.0220899
0.0223991
0.0227225
0.0230599
0.023411
0.0237755
0.0241531
0.0245435
0.0249465
0.0253618
0.0257892
0.0262286
0.0266797
0.0271425
0.0276167
0.0281023
0.0285992
0.0291073
0.0296265
0.0301569
0.0306984
0.031251
0.0318147
0.0323896
0.0329758
0.0335732
0.0341821
0.0348025
0.0354344
0.0360782
0.0367338
0.0374016
0.0380816
0.0387741
0.0394792
0.0401973
0.0409285
0.0416731
0.0424314
0.0432037
0.0439904
0.0204158
0.0206197
0.0208415
0.0210794
0.0213329
0.0216018
0.0218858
0.0221845
0.0224978
0.0228252
0.0231665
0.0235214
0.0238896
0.0242709
0.0246648
0.0250713
0.0254901
0.0259209
0.0263636
0.026818
0.027284
0.0277614
0.0282501
0.0287501
0.0292612
0.0297835
0.0303169
0.0308614
0.031417
0.0319837
0.0325616
0.0331508
0.0337512
0.0343631
0.0349865
0.0356215
0.0362683
0.036927
0.0375979
0.038281
0.0389767
0.039685
0.0404064
0.0411409
0.0418889
0.0426506
0.0434264
0.0442165
0.0204845
0.0206937
0.0209207
0.0211637
0.0214221
0.0216957
0.0219842
0.0222874
0.0226049
0.0229366
0.0232821
0.0236411
0.0240133
0.0243984
0.0247963
0.0252065
0.0256289
0.0260634
0.0265096
0.0269675
0.027437
0.0279178
0.0284098
0.0289131
0.0294276
0.0299531
0.0304898