/*--------------------------------*- C++ -*----------------------------------*\
  =========                 |
  \\      /  F ield         | OpenFOAM: The Open Source CFD Toolbox
   \\    /   O peration     | Website:  https://openfoam.org
    \\  /    A nd           | Version:  7
     \\/     M anipulation  |
\*---------------------------------------------------------------------------*/
FoamFile
{
    version     2.0;
    format      ascii;
    class       volVectorField;
    location    "196000";
    object      vorticity;
}
// * * * * * * * * * * * * * * * * * * * * * * * * * * * * * * * * * * * * * //

dimensions      [0 0 -1 0 0 0 0];

internalField   nonuniform List<vector> 
4814
(
(-0.0269673 0.0783143 -7.71722e-18)
(-0.0243749 0.0787673 2.80993e-17)
(-0.0217893 0.0791716 4.44791e-18)
(-0.0192101 0.0795282 -1.7091e-17)
(-0.0655378 0.0689091 1.44875e-17)
(-0.0634148 0.0696124 -5.82826e-18)
(-0.060648 0.0708833 1.28575e-17)
(-0.0578829 0.0720818 1.12394e-17)
(-0.0551213 0.0732092 4.68895e-17)
(-0.0523646 0.0742674 -1.88647e-20)
(-0.049614 0.0752579 -1.70283e-18)
(-0.0468702 0.0761826 -9.575e-18)
(-0.0441333 0.0770432 -2.26651e-17)
(-0.041404 0.0778423 -3.42619e-17)
(-0.0386827 0.0785819 3.11878e-17)
(-0.0359697 0.0792639 1.585e-18)
(-0.033265 0.0798898 -4.01615e-18)
(-0.0305686 0.0804614 4.21245e-18)
(-0.0278802 0.08098 -6.69788e-18)
(-0.0251995 0.081447 2.95278e-17)
(-0.022526 0.0818638 4.9881e-18)
(-0.0198592 0.0822313 -1.59179e-17)
(-0.0171984 0.0825507 -2.41397e-17)
(-0.0145431 0.0828228 2.3136e-18)
(-0.0118925 0.0830483 8.06959e-18)
(-0.0092457 0.083228 2.51675e-18)
(-0.00660194 0.0833622 -2.95023e-18)
(-0.00396032 0.0834514 7.24783e-18)
(-0.00131996 0.083496 -1.98238e-18)
(0.00131997 0.083496 1.64152e-17)
(0.00396032 0.0834514 8.71693e-18)
(0.00660194 0.0833622 1.66738e-17)
(0.0092457 0.083228 5.86981e-18)
(0.0118925 0.0830484 1.46618e-17)
(0.0145431 0.0828228 2.70379e-17)
(0.0171985 0.0825507 5.64626e-18)
(0.0198592 0.0822313 -1.1836e-17)
(0.022526 0.0818638 -8.95445e-18)
(-0.0678479 0.0712986 1.37262e-17)
(-0.0656285 0.0720446 -6.79779e-18)
(-0.0627627 0.0733589 1.49907e-17)
(-0.0598989 0.0745979 1.14735e-17)
(-0.0570391 0.0757633 4.8863e-17)
(-0.0541847 0.0768569 4.33721e-18)
(-0.0513368 0.0778803 1.28784e-18)
(-0.0484961 0.0788355 -7.55348e-18)
(-0.0456628 0.0797243 -2.18367e-17)
(-0.0428376 0.0805495 -3.61728e-17)
(-0.0400209 0.0813131 3.42249e-17)
(-0.037213 0.082017 7.01258e-18)
(-0.034414 0.082663 -1.55537e-18)
(-0.0316236 0.0832528 3.36227e-18)
(-0.0288418 0.0837879 -5.39778e-18)
(-0.026068 0.0842697 3.09816e-17)
(-0.0233019 0.0846995 5.47729e-18)
(-0.0205429 0.0850786 -1.53817e-17)
(-0.0177903 0.0854079 -2.35598e-17)
(-0.0150434 0.0856885 2.60294e-18)
(-0.0123014 0.0859211 7.80039e-18)
(-0.00956356 0.0861063 4.65109e-18)
(-0.00682887 0.0862447 -3.18924e-18)
(-0.00409643 0.0863366 7.46324e-18)
(-0.00136533 0.0863825 -1.6058e-18)
(0.00136533 0.0863825 1.69216e-17)
(0.00409643 0.0863366 8.81357e-18)
(0.00682887 0.0862447 1.59541e-17)
(0.00956356 0.0861063 3.5909e-18)
(0.0123014 0.0859211 1.21459e-17)
(0.0150434 0.0856885 2.57896e-17)
(0.0177903 0.0854079 4.79229e-18)
(0.0205429 0.0850785 -1.13602e-17)
(0.0233019 0.0846995 -9.9785e-18)
(0.026068 0.0842697 2.22586e-17)
(0.0288418 0.0837879 -5.23863e-18)
(0.0316236 0.0832528 -2.46591e-17)
(0.034414 0.082663 -1.80829e-17)
(0.037213 0.082017 -1.31887e-17)
(0.0400209 0.0813131 2.99079e-17)
(0.0428376 0.0805495 -2.43245e-17)
(-0.0702828 0.0738171 1.29189e-17)
(-0.0679619 0.0746084 -8.27319e-18)
(-0.0649918 0.0759683 1.6509e-17)
(-0.0620242 0.0772503 9.82281e-18)
(-0.0590609 0.0784558 5.07309e-17)
(-0.0561035 0.0795867 6.95868e-18)
(-0.053153 0.0806449 3.04037e-18)
(-0.0502102 0.0816323 -5.24472e-18)
(-0.0472753 0.0825509 -2.19947e-17)
(-0.044349 0.0834036 -3.80398e-17)
(-0.0414318 0.0841925 3.66192e-17)
(-0.0385239 0.0849196 1.02775e-17)
(-0.0356253 0.0855868 3.57602e-19)
(-0.0327359 0.0861958 2.23834e-18)
(-0.0298556 0.0867483 -4.44347e-18)
(-0.0269838 0.0872456 3.24092e-17)
(-0.0241201 0.0876893 6.07598e-18)
(-0.0212638 0.0880805 -1.49611e-17)
(-0.0184143 0.0884204 -2.38366e-17)
(-0.0155709 0.0887099 2.24767e-18)
(-0.0127326 0.0889499 7.02811e-18)
(-0.00989869 0.089141 6.30588e-18)
(-0.00706812 0.0892837 -3.26136e-18)
(-0.00423993 0.0893786 7.58317e-18)
(-0.00141315 0.089426 -1.47042e-18)
(0.00141316 0.089426 1.74943e-17)
(0.00423994 0.0893786 9.12027e-18)
(0.00706813 0.0892837 1.58802e-17)
(0.00989869 0.089141 2.47543e-18)
(0.0127326 0.0889499 1.11485e-17)
(0.0155709 0.0887099 2.53707e-17)
(0.0184143 0.0884204 4.50084e-18)
(0.0212638 0.0880805 -1.03306e-17)
(0.0241201 0.0876893 -1.03068e-17)
(0.0269838 0.0872456 2.25481e-17)
(0.0298556 0.0867483 -4.09067e-18)
(0.0327359 0.0861958 -2.63165e-17)
(0.0356253 0.0855868 -1.98541e-17)
(0.0385239 0.0849196 -1.54024e-17)
(0.0414318 0.0841924 2.92842e-17)
(0.044349 0.0834035 -2.69798e-17)
(0.0472753 0.0825509 -8.15452e-17)
(0.0502102 0.0816323 -1.03408e-17)
(0.053153 0.0806449 -1.44157e-17)
(-0.0728514 0.0764741 1.23279e-17)
(-0.0704235 0.0773132 -9.72777e-18)
(-0.0673435 0.0787215 1.65027e-17)
(-0.0642664 0.0800488 7.75322e-18)
(-0.0611941 0.0812968 5.30002e-17)
(-0.058128 0.0824672 7.8584e-18)
(-0.0550693 0.0835621 4.03868e-18)
(-0.0520189 0.0845835 -3.09049e-18)
(-0.0489769 0.0855336 -2.26636e-17)
(-0.045944 0.0864154 -3.96356e-17)
(-0.0429206 0.087231 3.81101e-17)
(-0.0399072 0.0879827 1.27002e-17)
(-0.0369036 0.0886723 1.86869e-18)
(-0.0339098 0.0893017 3.71578e-19)
(-0.0309255 0.0898725 -3.70278e-18)
(-0.0279502 0.0903863 3.40795e-17)
(-0.0249835 0.0908446 6.57863e-18)
(-0.0220246 0.0912486 -1.42087e-17)
(-0.0190729 0.0915996 -2.43246e-17)
(-0.0161275 0.0918986 1.67236e-18)
(-0.0131877 0.0921464 6.14442e-18)
(-0.0102524 0.0923437 7.64221e-18)
(-0.00732063 0.0924911 -3.46246e-18)
(-0.00439139 0.0925891 7.8978e-18)
(-0.00146363 0.0926379 -1.59999e-18)
(0.00146363 0.0926379 1.80566e-17)
(0.00439139 0.0925891 9.79488e-18)
(0.00732064 0.0924911 1.62008e-17)
(0.0102524 0.0923437 1.83311e-18)
(0.0131877 0.0921464 1.10099e-17)
(0.0161275 0.0918986 2.5553e-17)
(0.0190729 0.0915996 4.23759e-18)
(0.0220246 0.0912486 -9.2559e-18)
(0.0249835 0.0908446 -1.02661e-17)
(0.0279502 0.0903863 2.317e-17)
(0.0309255 0.0898725 -2.66255e-18)
(0.0339098 0.0893017 -2.80376e-17)
(0.0369036 0.0886723 -2.09826e-17)
(0.0399072 0.0879827 -1.52671e-17)
(0.0429206 0.087231 2.96257e-17)
(0.045944 0.0864153 -2.72317e-17)
(0.0489769 0.0855336 -8.62434e-17)
(0.0520189 0.0845835 -1.07973e-17)
(0.0550693 0.0835621 -1.56094e-17)
(-0.0755635 0.0792794 1.17236e-17)
(-0.0730228 0.0801693 -1.12568e-17)
(-0.0698269 0.0816288 1.68029e-17)
(-0.0666343 0.0830042 6.59816e-18)
(-0.0634469 0.084297 5.64438e-17)
(-0.0602661 0.0855093 8.84045e-18)
(-0.0570933 0.0866431 4.0907e-18)
(-0.0539292 0.0877006 -1.99199e-18)
(-0.0507741 0.0886841 -2.34329e-17)
(-0.0476286 0.0895966 -4.07464e-17)
(-0.0444933 0.0904406 3.93127e-17)
(-0.0413684 0.0912183 1.53578e-17)
(-0.0382539 0.0919316 3.587e-18)
(-0.0351498 0.0925825 -1.53405e-18)
(-0.0320557 0.0931728 -2.90053e-18)
(-0.0289711 0.093704 3.57311e-17)
(-0.0258956 0.0941778 7.0175e-18)
(-0.0228283 0.0945955 -1.36342e-17)
(-0.0197686 0.0949582 -2.46142e-17)
(-0.0167156 0.0952672 1.38942e-18)
(-0.0136684 0.0955233 5.29359e-18)
(-0.010626 0.0957272 9.02733e-18)
(-0.00758739 0.0958795 -3.60097e-18)
(-0.00455139 0.0959807 8.48533e-18)
(-0.00151695 0.0960312 -1.98347e-18)
(0.00151696 0.0960312 1.88166e-17)
(0.00455139 0.0959807 1.0859e-17)
(0.00758739 0.0958795 1.63694e-17)
(0.010626 0.0957272 9.60122e-19)
(0.0136684 0.0955233 1.06582e-17)
(0.0167156 0.0952672 2.5321e-17)
(0.0197686 0.0949582 3.59395e-18)
(0.0228283 0.0945955 -8.45446e-18)
(0.0258956 0.0941778 -9.79347e-18)
(0.0289711 0.093704 2.4164e-17)
(0.0320557 0.0931728 -9.08157e-19)
(0.0351498 0.0925825 -2.93338e-17)
(0.0382539 0.0919316 -2.18404e-17)
(0.0413684 0.0912183 -1.37844e-17)
(0.0444933 0.0904406 3.06376e-17)
(0.0476286 0.0895966 -2.60478e-17)
(0.0507741 0.0886841 -8.86845e-17)
(0.0539292 0.0877006 -1.01394e-17)
(0.0570933 0.0866431 -1.67057e-17)
(-0.0784295 0.0822439 1.14893e-17)
(-0.0757697 0.0831876 -1.33263e-17)
(-0.0724515 0.0847015 1.77383e-17)
(-0.069137 0.0861279 5.60788e-18)
(-0.0658281 0.0874684 6.02155e-17)
(-0.0625263 0.0887251 1.01326e-17)
(-0.0592329 0.0899002 4.58965e-18)
(-0.0559488 0.090996 -1.03278e-18)
(-0.0526742 0.0920148 -2.4065e-17)
(-0.0494097 0.09296 -4.19872e-17)
(-0.046156 0.0938341 4.09425e-17)
(-0.0429133 0.0946393 1.7801e-17)
(-0.0396817 0.0953778 5.06549e-18)
(-0.0364609 0.0960516 -2.80965e-18)
(-0.0332508 0.0966625 -2.27465e-18)
(-0.0300507 0.0972122 3.6624e-17)
(-0.02686 0.0977024 7.59985e-18)
(-0.0236782 0.0981345 -1.2961e-17)
(-0.0205043 0.0985098 -2.48719e-17)
(-0.0173375 0.0988294 1.10984e-18)
(-0.0141768 0.0990943 4.48923e-18)
(-0.0110212 0.0993052 1.02432e-17)
(-0.00786949 0.0994627 -3.79624e-18)
(-0.00472059 0.0995673 9.41843e-18)
(-0.00157334 0.0996196 -2.65144e-18)
(0.00157335 0.0996196 1.94434e-17)
(0.00472059 0.0995673 1.22076e-17)
(0.00786949 0.0994627 1.66271e-17)
(0.0110212 0.0993052 1.17731e-19)
(0.0141768 0.0990943 9.88504e-18)
(0.0173375 0.0988294 2.45815e-17)
(0.0205043 0.0985098 2.64897e-18)
(0.0236782 0.0981345 -7.24014e-18)
(0.0268601 0.0977024 -9.13397e-18)
(0.0300507 0.0972122 2.50091e-17)
(0.0332508 0.0966625 9.7522e-19)
(0.0364609 0.0960516 -2.99596e-17)
(0.0396817 0.0953778 -2.27176e-17)
(0.0429133 0.0946393 -1.23992e-17)
(0.046156 0.0938341 3.17813e-17)
(0.0494097 0.09296 -2.54345e-17)
(0.0526742 0.0920148 -8.99844e-17)
(0.0559488 0.090996 -8.68351e-18)
(0.0592329 0.0899002 -1.7526e-17)
(-0.0814607 0.0853793 1.10087e-17)
(-0.0786753 0.0863804 -1.53316e-17)
(-0.0752279 0.0879521 1.88374e-17)
(-0.0717847 0.0894327 5.17291e-18)
(-0.0683474 0.0908238 6.39991e-17)
(-0.0649177 0.0921276 1.17265e-17)
(-0.0614968 0.0933465 4.9936e-18)
(-0.0580858 0.094483 -1.69129e-19)
(-0.0546848 0.0955394 -2.4753e-17)
(-0.0512946 0.0965193 -4.36721e-17)
(-0.0479156 0.0974254 4.32539e-17)
(-0.0445484 0.09826 1.99182e-17)
(-0.0411928 0.0990253 6.43917e-18)
(-0.0378486 0.0997233 -3.82957e-18)
(-0.0345157 0.100356 -1.94532e-18)
(-0.0311933 0.100926 3.74435e-17)
(-0.0278809 0.101433 8.25918e-18)
(-0.0245778 0.101881 -1.20393e-17)
(-0.0212831 0.102269 -2.46971e-17)
(-0.0179958 0.1026 1.2637e-18)
(-0.0147149 0.102874 3.69592e-18)
(-0.0114394 0.103093 1.14925e-17)
(-0.0081681 0.103256 -4.09011e-18)
(-0.0048997 0.103364 1.03691e-17)
(-0.00163304 0.103418 -3.55473e-18)
(0.00163304 0.103418 1.992e-17)
(0.0048997 0.103364 1.35086e-17)
(0.00816811 0.103256 1.70537e-17)
(0.0114394 0.103093 -2.52667e-19)
(0.0147149 0.102874 8.57258e-18)
(0.0179958 0.1026 2.37018e-17)
(0.0212831 0.102269 1.84493e-18)
(0.0245778 0.101881 -6.06551e-18)
(0.0278809 0.101433 -8.33881e-18)
(0.0311933 0.100926 2.58129e-17)
(0.0345157 0.100356 2.21565e-18)
(0.0378487 0.0997233 -3.04955e-17)
(0.0411928 0.0990252 -2.33138e-17)
(0.0445484 0.09826 -1.16179e-17)
(0.0479157 0.0974254 3.31629e-17)
(0.0512946 0.0965193 -2.55558e-17)
(0.0546848 0.0955394 -9.12935e-17)
(0.0580858 0.094483 -6.93996e-18)
(0.0614968 0.0933465 -1.92424e-17)
(0.0649176 0.0921276 3.31928e-17)
(-0.0846694 0.0886982 1.10953e-17)
(-0.0817512 0.0897604 -1.72366e-17)
(-0.0781674 0.0913936 1.99336e-17)
(-0.0745881 0.0929319 4.43806e-18)
(-0.0710151 0.0943769 6.81517e-17)
(-0.0674501 0.0957309 1.30929e-17)
(-0.0638945 0.0969965 4.60133e-18)
(-0.0603493 0.0981763 3.42919e-19)
(-0.0568145 0.0992728 -2.54503e-17)
(-0.0532911 0.10029 -4.44689e-17)
(-0.0497797 0.10123 4.5658e-17)
(-0.0462805 0.102096 2.20057e-17)
(-0.0427936 0.102889 7.47968e-18)
(-0.0393189 0.103613 -5.52639e-18)
(-0.0358558 0.10427 -1.65193e-18)
(-0.032404 0.10486 3.77614e-17)
(-0.0289626 0.105386 8.77329e-18)
(-0.025531 0.10585 -1.0797e-17)
(-0.0221082 0.106253 -2.39503e-17)
(-0.0186933 0.106596 2.01962e-18)
(-0.0152852 0.10688 2.89783e-18)
(-0.0118827 0.107106 1.25044e-17)
(-0.00848453 0.107275 -4.4925e-18)
(-0.00508949 0.107387 1.11876e-17)
(-0.00169629 0.107443 -4.52099e-18)
(0.0016963 0.107443 2.03111e-17)
(0.0050895 0.107387 1.44376e-17)
(0.00848453 0.107275 1.78042e-17)
(0.0118827 0.107106 -1.86988e-19)
(0.0152852 0.10688 6.95348e-18)
(0.0186933 0.106596 2.29768e-17)
(0.0221082 0.106253 1.13166e-18)
(0.025531 0.10585 -4.93247e-18)
(0.0289626 0.105386 -7.34841e-18)
(0.032404 0.10486 2.65601e-17)
(0.0358558 0.10427 3.40532e-18)
(0.0393189 0.103613 -3.07e-17)
(0.0427936 0.102889 -2.36433e-17)
(0.0462805 0.102096 -1.15445e-17)
(0.0497797 0.10123 3.43973e-17)
(0.0532911 0.10029 -2.52342e-17)
(0.0568145 0.0992728 -9.13354e-17)
(0.0603493 0.0981763 -5.54911e-18)
(0.0638945 0.0969965 -2.14022e-17)
(0.0674501 0.0957309 3.27479e-17)
(-0.0880689 0.0922143 1.14535e-17)
(-0.0850102 0.0933417 -1.79083e-17)
(-0.0812823 0.0950406 2.08369e-17)
(-0.0775591 0.0966404 2.91367e-18)
(-0.0738426 0.0981428 7.25556e-17)
(-0.0701345 0.0995504 1.47543e-17)
(-0.0664361 0.100866 4.46428e-18)
(-0.0627488 0.102092 7.46577e-19)
(-0.0590724 0.103231 -2.61268e-17)
(-0.055408 0.104287 -4.4102e-17)
(-0.0517562 0.105264 4.81461e-17)
(-0.0481173 0.106163 2.36405e-17)
(-0.0444913 0.106987 8.30174e-18)
(-0.040878 0.107739 -7.10697e-18)
(-0.0372771 0.10842 -1.51613e-18)
(-0.0336879 0.109033 3.80956e-17)
(-0.0301099 0.109579 9.53801e-18)
(-0.026542 0.11006 -9.78383e-18)
(-0.0229835 0.110478 -2.28843e-17)
(-0.0194332 0.110834 3.23879e-18)
(-0.01589 0.111128 1.92841e-18)
(-0.0123528 0.111363 1.35532e-17)
(-0.00882017 0.111538 -4.66535e-18)
(-0.00529082 0.111655 1.18171e-17)
(-0.00176339 0.111713 -5.5081e-18)
(0.00176339 0.111713 2.05165e-17)
(0.00529082 0.111655 1.49243e-17)
(0.00882018 0.111538 1.87971e-17)
(0.0123528 0.111363 -5.81761e-20)
(0.01589 0.111128 5.09527e-18)
(0.0194332 0.110834 2.23049e-17)
(0.0229835 0.110478 6.95542e-19)
(0.026542 0.11006 -4.04408e-18)
(0.0301099 0.109579 -6.465e-18)
(0.0336879 0.109033 2.72065e-17)
(0.0372771 0.10842 4.65086e-18)
(0.040878 0.107739 -3.04553e-17)
(0.0444913 0.106987 -2.40257e-17)
(0.0481173 0.106163 -1.20341e-17)
(0.0517562 0.105264 3.46268e-17)
(0.055408 0.104287 -2.48328e-17)
(0.0590725 0.103231 -9.10619e-17)
(0.0627488 0.102092 -4.49905e-18)
(0.0664361 0.100866 -2.3726e-17)
(0.0701344 0.0995504 3.22508e-17)
(-0.0916733 0.0959423 1.09669e-17)
(-0.0884662 0.0971395 -1.6966e-17)
(-0.0845857 0.0989084 2.15234e-17)
(-0.0807104 0.100574 1.06728e-18)
(-0.076842 0.102138 7.6098e-17)
(-0.0729822 0.103602 1.65674e-17)
(-0.0691328 0.104971 4.78249e-18)
(-0.0652949 0.106246 1.67634e-18)
(-0.0614685 0.107431 -2.57503e-17)
(-0.0576546 0.10853 -4.3255e-17)
(-0.0538539 0.109545 5.10899e-17)
(-0.0500668 0.11048 2.46371e-17)
(-0.0462933 0.111337 9.46993e-18)
(-0.0425331 0.112118 -8.01337e-18)
(-0.0387859 0.112826 -1.85477e-18)
(-0.035051 0.113462 3.86225e-17)
(-0.0313278 0.11403 1.07628e-17)
(-0.0276154 0.11453 -8.44272e-18)
(-0.0239127 0.114964 -2.16764e-17)
(-0.0202187 0.115333 4.25479e-18)
(-0.0165322 0.11564 7.17983e-19)
(-0.012852 0.115883 1.46301e-17)
(-0.00917656 0.116065 -4.48275e-18)
(-0.00550458 0.116186 1.24565e-17)
(-0.00183463 0.116247 -6.44528e-18)
(0.00183464 0.116247 2.05989e-17)
(0.00550458 0.116186 1.50328e-17)
(0.00917656 0.116065 1.96875e-17)
(0.012852 0.115883 -4.69263e-20)
(0.0165322 0.11564 3.10637e-18)
(0.0202187 0.115333 2.15044e-17)
(0.0239127 0.114964 4.87791e-19)
(0.0276154 0.11453 -3.30768e-18)
(0.0313278 0.11403 -5.82036e-18)
(0.035051 0.113462 2.76862e-17)
(0.0387859 0.112826 5.23269e-18)
(0.0425331 0.112118 -3.02939e-17)
(0.0462933 0.111337 -2.40809e-17)
(0.0500668 0.11048 -1.31778e-17)
(0.0538539 0.109545 3.48197e-17)
(0.0576546 0.10853 -2.43559e-17)
(0.0614685 0.107431 -9.05584e-17)
(0.0652949 0.106246 -2.69794e-18)
(0.0691328 0.104971 -2.70111e-17)
(0.0729822 0.103602 3.14746e-17)
(-0.0954979 0.0998979 9.54463e-18)
(-0.0921338 0.10117 -1.60129e-17)
(-0.088092 0.103014 2.25758e-17)
(-0.0840556 0.10475 -9.96143e-19)
(-0.0800263 0.106379 7.87798e-17)
(-0.076006 0.107905 1.78823e-17)
(-0.0719965 0.109331 5.1554e-18)
(-0.0679989 0.110659 3.17298e-18)
(-0.0640134 0.111893 -2.41112e-17)
(-0.060041 0.113037 -4.17058e-17)
(-0.0560824 0.114094 5.38727e-17)
(-0.052138 0.115067 2.5405e-17)
(-0.0482078 0.115958 1.05586e-17)
(-0.0442917 0.116771 -8.09953e-18)
(-0.0403891 0.117508 -2.88718e-18)
(-0.0364995 0.11817 3.94548e-17)
(-0.0326222 0.11876 1.20639e-17)
(-0.0287561 0.11928 -7.27044e-18)
(-0.0249003 0.119732 -2.04917e-17)
(-0.0210536 0.120116 4.96905e-18)
(-0.0172148 0.120434 -5.17317e-19)
(-0.0133825 0.120688 1.57212e-17)
(-0.00955536 0.120877 -4.17802e-18)
(-0.00573179 0.121003 1.29457e-17)
(-0.00191036 0.121065 -7.36692e-18)
(0.00191036 0.121065 2.05326e-17)
(0.00573179 0.121003 1.49004e-17)
(0.00955536 0.120877 2.02618e-17)
(0.0133825 0.120688 3.51205e-19)
(0.0172148 0.120434 1.3424e-18)
(0.0210536 0.120116 2.09562e-17)
(0.0249003 0.119732 2.65707e-19)
(0.0287561 0.11928 -2.88279e-18)
(0.0326222 0.11876 -5.59351e-18)
(0.0364996 0.11817 2.79503e-17)
(0.0403891 0.117508 5.37513e-18)
(0.0442917 0.116771 -2.93998e-17)
(0.0482078 0.115958 -2.37074e-17)
(0.052138 0.115067 -1.40651e-17)
(0.0560824 0.114094 3.50219e-17)
(0.060041 0.113037 -2.37288e-17)
(0.0640134 0.111893 -8.96043e-17)
(0.0679989 0.110659 -1.05051e-18)
(0.0719965 0.109331 -3.08086e-17)
(-0.0995592 0.104098 7.92735e-18)
(-0.0960289 0.105451 -1.39392e-17)
(-0.0918164 0.107375 2.36687e-17)
(-0.0876095 0.109186 -3.35697e-18)
(-0.0834098 0.110886 8.13863e-17)
(-0.0792194 0.112477 1.85931e-17)
(-0.07504 0.113964 5.1172e-18)
(-0.0708732 0.115349 4.38993e-18)
(-0.0667188 0.116635 -2.19586e-17)
(-0.0625781 0.117828 -4.02355e-17)
(-0.0584518 0.11893 5.67036e-17)
(-0.0543404 0.119944 2.62983e-17)
(-0.0502439 0.120873 1.17621e-17)
(-0.046162 0.12172 -7.93376e-18)
(-0.0420944 0.122487 -4.42853e-18)
(-0.0380403 0.123177 4.14659e-17)
(-0.033999 0.123792 1.34091e-17)
(-0.0299696 0.124334 -6.00574e-18)
(-0.0259509 0.124804 -1.92872e-17)
(-0.0219418 0.125204 5.61415e-18)
(-0.0179409 0.125535 -1.35822e-18)
(-0.013947 0.125799 1.68933e-17)
(-0.00995837 0.125996 -4.00386e-18)
(-0.00597353 0.126127 1.34951e-17)
(-0.00199092 0.126192 -8.28393e-18)
(0.00199093 0.126192 2.0422e-17)
(0.00597353 0.126127 1.46692e-17)
(0.00995838 0.125996 2.04639e-17)
(0.013947 0.125799 1.10129e-18)
(0.0179409 0.125535 1.00103e-19)
(0.0219418 0.125204 2.02741e-17)
(0.0259509 0.124804 -5.73367e-19)
(0.0299696 0.124334 -2.39326e-18)
(0.033999 0.123792 -4.77757e-18)
(0.0380403 0.123177 2.81626e-17)
(0.0420944 0.122487 5.13101e-18)
(0.046162 0.12172 -2.87096e-17)
(0.0502439 0.120873 -2.38318e-17)
(0.0543404 0.119944 -1.51318e-17)
(0.0584518 0.11893 3.50437e-17)
(0.0625781 0.117828 -2.28361e-17)
(0.0667188 0.116635 -8.81092e-17)
(0.0708732 0.115349 -5.79744e-20)
(0.07504 0.113964 -3.42469e-17)
(-0.103875 0.108561 7.8697e-18)
(-0.100169 0.11 -1.15617e-17)
(-0.0957754 0.112011 2.46838e-17)
(-0.0913879 0.113903 -6.37082e-18)
(-0.0870077 0.115678 8.31249e-17)
(-0.0826369 0.11734 2.00472e-17)
(-0.0782774 0.118893 5.04263e-18)
(-0.0739309 0.120339 4.69193e-18)
(-0.0695973 0.121682 -1.91431e-17)
(-0.0652778 0.122926 -3.8258e-17)
(-0.0609734 0.124076 5.93828e-17)
(-0.0566845 0.125135 2.68966e-17)
(-0.0524111 0.126104 1.39133e-17)
(-0.048153 0.126988 -8.06448e-18)
(-0.0439097 0.127789 -5.44204e-18)
(-0.0396807 0.128508 4.40772e-17)
(-0.035465 0.12915 1.40111e-17)
(-0.0312617 0.129714 -4.79397e-18)
(-0.0270697 0.130205 -1.76999e-17)
(-0.0228876 0.130622 6.26362e-18)
(-0.0187143 0.130968 -1.4678e-18)
(-0.0145481 0.131243 1.77762e-17)
(-0.0103876 0.131448 -3.77019e-18)
(-0.00623098 0.131585 1.43181e-17)
(-0.00207673 0.131653 -9.10512e-18)
(0.00207673 0.131653 2.013e-17)
(0.00623098 0.131585 1.40552e-17)
(0.0103876 0.131448 2.03939e-17)
(0.0145481 0.131243 1.97574e-18)
(0.0187143 0.130968 -5.92364e-19)
(0.0228876 0.130622 1.90728e-17)
(0.0270697 0.130205 -1.5917e-18)
(0.0312617 0.129714 -1.78193e-18)
(0.035465 0.12915 -3.90228e-18)
(0.0396807 0.128508 2.8691e-17)
(0.0439097 0.127789 4.89782e-18)
(0.048153 0.126988 -2.90152e-17)
(0.0524111 0.126104 -2.37639e-17)
(0.0566845 0.125135 -1.65895e-17)
(0.0609734 0.124076 3.44018e-17)
(0.0652778 0.122926 -2.13845e-17)
(0.0695973 0.121682 -8.55916e-17)
(0.0739309 0.120339 1.24224e-18)
(0.0782774 0.118893 -3.76726e-17)
(-0.108463 0.113306 8.87858e-18)
(-0.104571 0.114838 -9.95127e-18)
(-0.0999866 0.116942 2.50297e-17)
(-0.0954078 0.118921 -9.10111e-18)
(-0.0908362 0.120778 8.46371e-17)
(-0.086274 0.122516 2.17666e-17)
(-0.0817235 0.124139 6.16261e-18)
(-0.0771862 0.125651 4.62617e-18)
(-0.0726622 0.127055 -1.53663e-17)
(-0.0681528 0.128356 -3.53831e-17)
(-0.0636591 0.129558 6.19777e-17)
(-0.0591814 0.130664 2.73424e-17)
(-0.0547198 0.131678 1.66798e-17)
(-0.0502742 0.132601 -8.90519e-18)
(-0.045844 0.133437 -6.72962e-18)
(-0.0414287 0.134189 4.70829e-17)
(-0.0370272 0.134859 1.39066e-17)
(-0.0326388 0.135449 -3.00408e-18)
(-0.028262 0.135961 -1.62408e-17)
(-0.0238958 0.136397 6.67767e-18)
(-0.0195385 0.136758 -1.21332e-18)
(-0.0151889 0.137045 1.85781e-17)
(-0.0108451 0.13726 -3.18377e-18)
(-0.00650541 0.137402 1.53126e-17)
(-0.00216819 0.137474 -9.8313e-18)
(0.0021682 0.137474 1.98033e-17)
(0.00650541 0.137402 1.30796e-17)
(0.0108451 0.13726 1.99737e-17)
(0.0151889 0.137045 2.87208e-18)
(0.0195385 0.136758 -9.30948e-19)
(0.0238958 0.136397 1.76526e-17)
(0.028262 0.135961 -2.41108e-18)
(0.0326388 0.135449 -8.69747e-19)
(0.0370272 0.134859 -3.16234e-18)
(0.0414287 0.134189 2.9305e-17)
(0.045844 0.133437 4.96876e-18)
(0.0502742 0.132601 -2.99066e-17)
(0.0547198 0.131678 -2.30591e-17)
(0.0591814 0.130664 -1.74347e-17)
(0.0636591 0.129558 3.29155e-17)
(0.0681528 0.128356 -1.98048e-17)
(0.0726622 0.127055 -8.24399e-17)
(0.0771862 0.125651 1.96903e-18)
(0.0817235 0.124139 -4.1023e-17)
(-0.113345 0.118353 1.05131e-17)
(-0.109255 0.119986 -9.33529e-18)
(-0.104469 0.12219 2.501e-17)
(-0.0996871 0.124263 -1.10791e-17)
(-0.0949127 0.126208 8.69809e-17)
(-0.0901476 0.128028 2.24924e-17)
(-0.0853942 0.129728 6.86361e-18)
(-0.0806544 0.131311 5.24125e-18)
(-0.0759281 0.132781 -1.08422e-17)
(-0.0712168 0.134143 -3.25187e-17)
(-0.0665217 0.135401 6.42981e-17)
(-0.0618432 0.136559 2.83075e-17)
(-0.0571814 0.13762 1.95082e-17)
(-0.052536 0.138586 -9.81998e-18)
(-0.0479068 0.139461 -8.35758e-18)
(-0.0432929 0.140248 4.96549e-17)
(-0.0386935 0.140949 1.39609e-17)
(-0.0341076 0.141566 -6.01742e-19)
(-0.029534 0.142102 -1.44525e-17)
(-0.0249712 0.142558 6.92127e-18)
(-0.0204179 0.142936 -1.35522e-18)
(-0.0158725 0.143236 1.93168e-17)
(-0.0113332 0.143461 -2.52849e-18)
(-0.00679821 0.14361 1.65347e-17)
(-0.00226578 0.143684 -1.02966e-17)
(0.00226579 0.143684 1.94826e-17)
(0.00679822 0.14361 1.15919e-17)
(0.0113332 0.143461 1.94223e-17)
(0.0158725 0.143236 3.82895e-18)
(0.0204179 0.142936 -1.35945e-18)
(0.0249712 0.142558 1.6446e-17)
(0.029534 0.142102 -3.0318e-18)
(0.0341076 0.141566 3.73179e-19)
(0.0386935 0.140949 -2.07233e-18)
(0.0432929 0.140248 2.99055e-17)
(0.0479068 0.139461 5.15703e-18)
(0.052536 0.138586 -3.12254e-17)
(0.0571814 0.13762 -2.25089e-17)
(0.0618432 0.136559 -1.86355e-17)
(0.0665217 0.135401 3.11464e-17)
(0.0712168 0.134143 -1.72368e-17)
(0.0759281 0.132781 -7.97625e-17)
(0.0806544 0.131311 2.66369e-18)
(0.0853942 0.129728 -4.3998e-17)
(-0.11854 0.123724 1.26984e-17)
(-0.114242 0.125467 -9.13822e-18)
(-0.109241 0.127778 2.5246e-17)
(-0.104245 0.129953 -1.21514e-17)
(-0.0992556 0.131993 8.95e-17)
(-0.0942753 0.133902 2.25836e-17)
(-0.0893066 0.135684 7.07994e-18)
(-0.0843516 0.137344 6.65599e-18)
(-0.0794103 0.138886 -6.609e-18)
(-0.0744844 0.140314 -2.93462e-17)
(-0.0695751 0.141634 6.69647e-17)
(-0.0646827 0.142848 2.91636e-17)
(-0.0598076 0.143959 2.23301e-17)
(-0.0549496 0.144973 -9.90203e-18)
(-0.0501081 0.14589 -9.57897e-18)
(-0.0452826 0.146715 5.15135e-17)
(-0.0404721 0.14745 1.49072e-17)
(-0.0356757 0.148097 1.92398e-18)
(-0.0308919 0.148658 -1.28883e-17)
(-0.0261195 0.149136 7.06405e-18)
(-0.0213568 0.149532 -1.32547e-18)
(-0.0166024 0.149847 2.00845e-17)
(-0.0118544 0.150082 -1.87969e-18)
(-0.00711087 0.150238 1.75061e-17)
(-0.00236999 0.150316 -1.07074e-17)
(0.00236999 0.150316 1.94251e-17)
(0.00711087 0.150238 9.87199e-18)
(0.0118544 0.150082 1.86376e-17)
(0.0166024 0.149847 4.67697e-18)
(0.0213568 0.149532 -1.94687e-18)
(0.0261195 0.149136 1.52985e-17)
(0.0308919 0.148658 -4.07802e-18)
(0.0356757 0.148097 1.72157e-18)
(0.0404721 0.14745 -1.4711e-19)
(0.0452826 0.146715 3.04987e-17)
(0.0501081 0.14589 4.78612e-18)
(0.0549496 0.144973 -3.2086e-17)
(0.0598076 0.143959 -2.23448e-17)
(0.0646827 0.142848 -2.06537e-17)
(0.0695751 0.141634 3.00763e-17)
(0.0744844 0.140314 -1.33617e-17)
(0.0794103 0.138886 -7.77934e-17)
(0.0843516 0.137344 3.64168e-18)
(0.0893066 0.135684 -4.65621e-17)
(-0.12407 0.129442 1.52163e-17)
(-0.119551 0.131303 -9.66891e-18)
(-0.114325 0.133731 2.60905e-17)
(-0.109101 0.136016 -1.19598e-17)
(-0.103884 0.138158 9.13491e-17)
(-0.0986757 0.140164 2.17498e-17)
(-0.0934785 0.142036 7.92862e-18)
(-0.0882951 0.14378 8.55595e-18)
(-0.0831253 0.145399 -2.26072e-18)
(-0.0779711 0.146899 -2.60862e-17)
(-0.0728337 0.148285 6.99585e-17)
(-0.0677138 0.14956 3.01145e-17)
(-0.0626115 0.150728 2.4517e-17)
(-0.0575267 0.151792 -9.66949e-18)
(-0.052459 0.152756 -1.01449e-17)
(-0.0474077 0.153622 5.27843e-17)
(-0.042372 0.154393 1.60653e-17)
(-0.0373507 0.155073 4.75951e-18)
(-0.0323426 0.155662 -1.17876e-17)
(-0.0273463 0.156164 7.16133e-18)
(-0.0223601 0.156579 -1.00512e-18)
(-0.0173824 0.15691 2.12158e-17)
(-0.0124114 0.157157 -1.18911e-18)
(-0.00744497 0.157321 1.83078e-17)
(-0.00248134 0.157403 -1.12224e-17)
(0.00248135 0.157403 1.95278e-17)
(0.00744498 0.157321 8.18581e-18)
(0.0124114 0.157157 1.78033e-17)
(0.0173824 0.15691 5.42505e-18)
(0.0223601 0.156579 -2.2459e-18)
(0.0273463 0.156164 1.39253e-17)
(0.0323426 0.155662 -4.98213e-18)
(0.0373507 0.155073 3.39542e-18)
(0.042372 0.154393 1.62811e-18)
(0.0474077 0.153622 3.02795e-17)
(0.052459 0.152756 4.40503e-18)
(0.0575267 0.151792 -3.23172e-17)
(0.0626115 0.150728 -2.25926e-17)
(0.0677138 0.14956 -2.27478e-17)
(0.0728337 0.148285 2.93182e-17)
(0.0779711 0.146899 -9.64748e-18)
(0.0831253 0.145399 -7.6433e-17)
(0.0882951 0.14378 4.80814e-18)
(0.0934785 0.142036 -4.89919e-17)
(-0.129959 0.135529 1.81557e-17)
(-0.125207 0.137519 -1.09886e-17)
(-0.119741 0.140074 2.64743e-17)
(-0.114278 0.142478 -1.1439e-17)
(-0.108819 0.144732 9.35889e-17)
(-0.103369 0.146842 2.10423e-17)
(-0.0979289 0.148812 8.88775e-18)
(-0.0925028 0.150647 1.06448e-17)
(-0.0870902 0.15235 1.20902e-18)
(-0.0816932 0.153929 -2.31907e-17)
(-0.0763131 0.155388 7.37425e-17)
(-0.0709508 0.156729 3.11828e-17)
(-0.0656064 0.157958 2.675e-17)
(-0.0602799 0.159078 -8.88182e-18)
(-0.0549708 0.160092 -1.0699e-17)
(-0.0496787 0.161003 5.34229e-17)
(-0.0444025 0.161815 1.7808e-17)
(-0.0391412 0.16253 7.32612e-18)
(-0.0338935 0.16315 -1.05104e-17)
(-0.0286578 0.163678 7.53583e-18)
(-0.0234327 0.164115 -5.11379e-19)
(-0.0182164 0.164463 2.23714e-17)
(-0.0130069 0.164723 -6.88227e-19)
(-0.00780223 0.164895 1.9028e-17)
(-0.00260042 0.164982 -1.16782e-17)
(0.00260042 0.164982 1.96297e-17)
(0.00780224 0.164895 6.88013e-18)
(0.0130069 0.164723 1.70834e-17)
(0.0182164 0.164463 6.07705e-18)
(0.0234327 0.164115 -2.27564e-18)
(0.0286579 0.163678 1.26748e-17)
(0.0338935 0.16315 -5.75188e-18)
(0.0391412 0.16253 4.77608e-18)
(0.0444025 0.161815 4.08914e-18)
(0.0496787 0.161003 2.91639e-17)
(0.0549708 0.160092 3.95376e-18)
(0.0602799 0.159078 -3.21774e-17)
(0.0656064 0.157958 -2.28999e-17)
(0.0709508 0.156729 -2.44473e-17)
(0.0763131 0.155388 2.96237e-17)
(0.0816932 0.153929 -7.32124e-18)
(0.0870902 0.15235 -7.57958e-17)
(0.0925028 0.150647 6.1127e-18)
(0.0979289 0.148812 -5.18436e-17)
(-0.136229 0.142009 2.13965e-17)
(-0.131231 0.144139 -1.18565e-17)
(-0.125512 0.146833 2.66804e-17)
(-0.119795 0.149366 -1.04543e-17)
(-0.114081 0.151741 9.59649e-17)
(-0.108374 0.153965 2.07093e-17)
(-0.102677 0.156041 8.97848e-18)
(-0.0969936 0.157976 1.31816e-17)
(-0.0913229 0.159771 4.6252e-18)
(-0.0856677 0.161436 -1.97952e-17)
(-0.0800295 0.162974 7.78121e-17)
(-0.074409 0.164388 3.24579e-17)
(-0.0688066 0.165684 2.93751e-17)
(-0.0632224 0.166865 -7.44943e-18)
(-0.0576559 0.167934 -1.09168e-17)
(-0.0521066 0.168895 5.39601e-17)
(-0.0465737 0.169751 1.97919e-17)
(-0.041056 0.170504 1.00069e-17)
(-0.0355521 0.171158 -9.09801e-18)
(-0.0300607 0.171715 7.97185e-18)
(-0.0245801 0.172176 1.68649e-20)
(-0.0191085 0.172543 2.37603e-17)
(-0.013644 0.172817 -2.30489e-19)
(-0.00818444 0.172999 1.95874e-17)
(-0.00272781 0.17309 -1.20298e-17)
(0.00272782 0.17309 1.97718e-17)
(0.00818445 0.172999 5.64054e-18)
(0.013644 0.172817 1.6385e-17)
(0.0191085 0.172543 6.70573e-18)
(0.0245801 0.172176 -2.34286e-18)
(0.0300607 0.171715 1.17006e-17)
(0.0355522 0.171158 -6.92865e-18)
(0.041056 0.170504 5.72926e-18)
(0.0465737 0.169751 6.57339e-18)
(0.0521066 0.168895 2.79574e-17)
(0.0576559 0.167934 3.06845e-18)
(0.0632224 0.166865 -3.20423e-17)
(0.0688067 0.165684 -2.21893e-17)
(0.074409 0.164388 -2.56256e-17)
(0.0800295 0.162974 3.02122e-17)
(0.0856677 0.161436 -5.25752e-18)
(0.0913229 0.159771 -7.40517e-17)
(0.0969936 0.157976 7.55152e-18)
(0.102677 0.156041 -5.51224e-17)
(-0.142903 0.148906 2.50642e-17)
(-0.137645 0.15119 -1.19599e-17)
(-0.13166 0.154033 2.7412e-17)
(-0.125675 0.156707 -9.2639e-18)
(-0.119691 0.159215 9.82269e-17)
(-0.113713 0.161562 2.03886e-17)
(-0.107744 0.163755 8.80006e-18)
(-0.101787 0.165798 1.52965e-17)
(-0.095842 0.167695 8.88775e-18)
(-0.0899124 0.169453 -1.6005e-17)
(-0.0839995 0.171078 8.14102e-17)
(-0.0781042 0.172573 3.40551e-17)
(-0.072227 0.173942 3.24771e-17)
(-0.066368 0.175189 -5.55629e-18)
(-0.0605268 0.176319 -1.12489e-17)
(-0.0547031 0.177334 5.43509e-17)
(-0.048896 0.178239 2.21936e-17)
(-0.0431042 0.179035 1.21389e-17)
(-0.0373267 0.179727 -8.03899e-18)
(-0.0315618 0.180315 8.26933e-18)
(-0.0258079 0.180802 4.38086e-19)
(-0.0200633 0.18119 2.54159e-17)
(-0.0143259 0.18148 1.37544e-19)
(-0.0085935 0.181672 2.00306e-17)
(-0.00286416 0.181768 -1.20224e-17)
(0.00286416 0.181768 1.97136e-17)
(0.00859351 0.181672 4.37269e-18)
(0.0143259 0.18148 1.59924e-17)