/*--------------------------------*- C++ -*----------------------------------*\
  =========                 |
  \\      /  F ield         | OpenFOAM: The Open Source CFD Toolbox
   \\    /   O peration     | Website:  https://openfoam.org
    \\  /    A nd           | Version:  7
     \\/     M anipulation  |
\*---------------------------------------------------------------------------*/
FoamFile
{
    version     2.0;
    format      ascii;
    class       surfaceScalarField;
    location    "216000";
    object      phi;
}
// * * * * * * * * * * * * * * * * * * * * * * * * * * * * * * * * * * * * * //

dimensions      [0 3 -1 0 0 0 0];

internalField   nonuniform List<scalar> 
9490
(
-2.13485e-23
1.37204e-22
2.94922e-23
3.41142e-23
-2.06794e-23
1.69225e-22
3.00957e-23
-2.3695e-23
3.08437e-23
-1.82055e-23
1.95849e-22
-1.29217e-23
1.22655e-22
1.38261e-23
-2.04485e-23
1.58617e-22
2.99099e-23
-2.28218e-23
5.54452e-23
-1.97615e-23
1.47503e-22
-1.22993e-23
1.29505e-22
2.14471e-23
-1.99959e-23
1.85925e-22
2.95177e-23
-2.35102e-23
4.83478e-23
-2.05675e-23
2.02682e-22
-1.30347e-23
1.58462e-22
2.79844e-23
-1.8363e-23
1.82927e-22
3.00327e-23
-2.31936e-23
-3.88878e-23
-2.12232e-23
1.81979e-22
-1.33734e-23
1.83611e-22
3.85225e-23
-2.02974e-23
1.42041e-22
2.86719e-23
-2.13434e-23
-5.98069e-23
-2.34125e-23
1.32721e-22
-1.30275e-23
1.85081e-22
1.42599e-23
-2.10276e-23
1.2939e-22
2.91822e-23
-2.10047e-23
-2.66487e-23
-2.23161e-23
1.15283e-22
-1.3916e-23
7.78181e-23
1.51889e-23
-2.06111e-23
1.67011e-22
2.97569e-23
-2.05322e-23
-2.97074e-23
-2.23344e-23
9.93854e-23
-1.35936e-23
5.06006e-23
-2.79259e-23
-2.24251e-23
1.57333e-22
2.8334e-23
-1.95036e-23
5.00025e-23
-2.34547e-23
9.04301e-23
-1.33248e-23
1.10545e-22
-2.82422e-23
-2.36173e-23
1.5191e-22
2.58051e-23
-1.91854e-23
1.5737e-22
-2.38244e-23
8.47723e-23
-1.36461e-23
1.52047e-22
-3.45054e-23
-2.32947e-23
7.0004e-23
2.40252e-23
-2.00727e-23
1.52609e-22
-2.25809e-23
7.99322e-23
-1.49629e-23
1.91556e-22
-1.73585e-23
-2.29813e-23
7.14038e-23
2.3245e-23
-2.0366e-23
1.5152e-22
-2.34145e-23
7.97717e-23
-1.59278e-23
1.80107e-22
-1.7299e-23
-2.14926e-23
8.95185e-24
2.2859e-23
-2.06579e-23
1.3581e-22
-2.35425e-23
4.08566e-23
-1.67608e-23
1.72172e-22
-2.14215e-23
9.56751e-24
2.17215e-23
-2.05792e-23
1.3325e-22
-2.29842e-23
2.44822e-24
1.65098e-22
-2.13861e-23
1.47638e-23
2.20221e-23
-2.08059e-23
1.31863e-22
-2.30129e-23
4.02624e-24
1.74901e-22
-2.15607e-23
-5.82846e-23
2.13468e-23
-2.01737e-23
1.72997e-22
-2.26497e-23
1.05756e-23
-2.13146e-23
2.23643e-23
2.14219e-23
-2.06052e-23
1.73585e-22
-2.40618e-23
-2.07216e-23
-1.27576e-23
2.07832e-23
-2.03978e-23
1.71012e-22
-2.05309e-23
-1.90781e-24
2.11447e-23
1.6759e-22
-2.10653e-23
2.35539e-23
2.01525e-23
1.65731e-22
-2.06283e-23
-3.17084e-23
1.88192e-23
1.49168e-22
-2.05042e-23
1.25646e-23
1.81853e-23
1.13099e-22
-1.95987e-23
9.49706e-23
1.85712e-23
1.7472e-23
1.23242e-23
2.57222e-23
-1.15245e-23
6.34028e-24
5.60208e-24
1.55163e-23
-6.54685e-24
2.00995e-23
5.99432e-23
1.19373e-23
5.49456e-23
1.63533e-23
-5.21646e-23
1.49887e-23
2.92767e-23
1.44949e-23
-6.73789e-24
2.16888e-23
8.2574e-23
2.39232e-23
-1.64958e-23
2.07153e-23
2.95997e-23
2.46233e-23
7.40758e-23
1.31407e-24
6.02562e-23
1.12032e-23
7.51001e-23
1.79574e-23
2.3111e-22
3.75654e-23
3.02716e-22
3.04474e-23
1.24029e-22
3.25085e-23
1.16268e-22
1.70875e-23
1.20732e-22
1.06322e-22
1.18713e-23
5.95747e-23
-1.10605e-23
5.72049e-24
7.59491e-23
1.75899e-23
-2.23889e-23
1.76057e-23
5.83071e-23
1.01845e-23
2.6312e-23
1.46733e-23
-5.60076e-23
1.54696e-23
3.95555e-23
1.5062e-23
-3.92936e-24
2.18381e-23
1.67203e-22
2.24616e-23
-2.19278e-23
2.20733e-23
2.97242e-23
2.46999e-23
3.19993e-23
4.60057e-25
7.63802e-24
1.52043e-23
9.53159e-23
2.07416e-23
2.09074e-22
3.35608e-23
2.76367e-22
2.84593e-23
1.2613e-22
3.18968e-23
8.17055e-23
1.5503e-23
9.28195e-23
1.36526e-22
1.36568e-23
2.47126e-23
-1.21612e-23
4.49123e-24
3.55437e-23
1.68399e-23
-5.17585e-23
1.73102e-23
6.24363e-23
8.39253e-24
2.46375e-25
1.42546e-23
-6.39433e-23
1.62947e-23
5.0519e-23
1.54273e-23
2.62584e-24
1.95172e-23
1.59589e-22
2.28076e-23
-2.74079e-23
2.13282e-23
2.44877e-23
2.35379e-23
2.38524e-23
3.26746e-24
2.65324e-23
1.76677e-23
7.59851e-23
2.26923e-23
1.87448e-22
2.97086e-23
2.17576e-22
2.91001e-23
8.13701e-23
3.20707e-23
8.35783e-23
1.58263e-23
6.9983e-23
1.50315e-22
1.16925e-23
1.81819e-23
-1.47069e-23
4.3872e-24
5.88587e-24
1.74061e-23
9.46279e-24
1.54747e-23
3.28707e-23
8.09683e-24
4.3034e-23
1.34058e-23
-7.04064e-23
1.91798e-23
-2.95233e-23
1.67601e-23
-7.31171e-23
1.82983e-23
1.14712e-22
2.20036e-23
-3.80972e-23
2.33098e-23
5.34201e-23
2.18226e-23
2.32004e-23
5.144e-24
4.70118e-23
2.08312e-23
9.46742e-23
2.30331e-23
1.30095e-22
2.76967e-23
2.04858e-22
2.81284e-23
7.19407e-23
3.16246e-23
8.05817e-23
1.72697e-23
7.86397e-23
1.66599e-22
1.02752e-23
9.69585e-24
-1.53419e-23
3.57132e-24
-1.12714e-23
1.71427e-23
-5.54698e-23
1.62975e-23
3.01965e-23
6.78333e-24
3.56499e-23
1.18185e-23
-7.19281e-23
1.99284e-23
2.22348e-23
1.72626e-23
-2.67652e-23
1.74206e-23
7.74954e-23
2.1491e-23
-1.35817e-23
2.30161e-23
8.25554e-23
2.14481e-23
2.94345e-23
6.65437e-24
2.70337e-23
2.25171e-23
4.14743e-23
2.29358e-23
7.28916e-23
2.60675e-23
1.60694e-22
2.68634e-23
3.64056e-23
3.22022e-23
6.77745e-23
1.7106e-23
1.00958e-22
1.66683e-22
9.36767e-24
-5.03417e-23
-1.36763e-23
3.37257e-24
-1.40051e-23
1.59256e-23
-8.73944e-23
1.67229e-23
6.23454e-23
5.87307e-24
2.42162e-23
9.82259e-24
-7.75208e-23
2.26727e-23
3.65698e-23
1.82093e-23
-2.40898e-23
1.81063e-23
8.63925e-23
2.23629e-23
-5.75166e-23
2.32911e-23
1.08929e-22
2.14281e-23
3.10855e-23
6.67428e-24
1.87899e-23
2.36174e-23
6.01929e-23
2.33948e-23
1.00809e-22
2.3751e-23
1.51363e-22
2.62193e-23
2.75356e-23
3.34402e-23
8.94974e-23
1.66375e-23
4.31198e-23
9.18014e-23
7.1938e-24
-1.03059e-22
-1.36446e-23
4.51304e-24
6.75003e-23
1.72631e-23
-7.07664e-23
1.55369e-23
1.84589e-23
4.14698e-24
1.71488e-23
1.00878e-23
-4.52747e-23
2.28541e-23
1.53528e-22
1.78412e-23
-2.25455e-23
1.87536e-23
9.26383e-23
2.16866e-23
-5.77287e-23
2.28451e-23
1.35294e-22
1.89447e-23
7.56028e-23
6.32254e-24
3.48766e-23
2.65971e-23
5.44233e-23
2.12403e-23
6.8929e-23
2.17621e-23
1.35231e-22
2.7275e-23
-2.25584e-23
3.32125e-23
8.09761e-23
1.58198e-23
5.35104e-23
1.37459e-22
9.24314e-24
-2.95515e-23
-1.01153e-23
2.31242e-24
2.91194e-23
1.69384e-23
-1.81162e-23
1.57995e-23
-4.25612e-23
4.75687e-24
-2.4834e-23
1.23433e-23
-5.35149e-23
2.2865e-23
2.7504e-22
1.6239e-23
-6.0019e-23
1.8696e-23
1.10198e-22
2.16913e-23
-6.14849e-23
2.34607e-23
1.32196e-22
1.61468e-23
-3.1082e-24
8.74665e-24
8.2863e-23
2.62599e-23
5.24336e-23
2.1414e-23
2.27466e-23
2.0897e-23
1.10028e-22
2.83601e-23
4.46169e-23
3.34996e-23
7.47072e-23
1.5261e-23
3.54484e-23
1.58884e-23
1.45213e-22
1.53927e-23
4.56858e-23
8.38718e-24
9.72433e-23
8.5647e-24
1.14287e-22
5.37206e-24
-1.4827e-23
-9.70991e-24
-3.13658e-23
-7.63428e-24
2.44852e-23
3.6712e-24
1.33495e-22
-1.22727e-23
2.74174e-23
2.93483e-25
8.95588e-23
-5.19305e-24
5.20056e-23
4.9843e-24
9.86185e-23
-8.77847e-25
6.28708e-25
-1.47336e-24
4.84593e-23
1.31815e-23
7.42103e-23
4.28228e-23
1.06606e-23
9.39887e-23
-7.68704e-24
1.40204e-24
3.64607e-23
1.68503e-23
3.20881e-23
1.56734e-23
-1.65478e-23
5.82105e-24
1.07728e-22
1.5417e-23
2.96325e-23
1.93652e-23
1.84501e-22
1.65248e-23
9.35319e-24
1.68184e-23
1.86627e-22
2.29894e-23
-3.38883e-23
2.42457e-23
1.31485e-22
1.49315e-23
-8.8961e-23
8.60484e-24
8.34469e-23
2.46576e-23
3.19564e-23
2.14715e-23
1.28986e-23
2.0001e-23
8.81362e-23
2.77275e-23
1.14723e-22
3.3232e-23
6.58585e-23
1.58887e-23
-3.09516e-23
1.54714e-23
1.42714e-22
1.5482e-23
8.566e-23
8.41334e-24
5.94039e-23
6.06062e-24
1.0913e-22
5.28852e-24
3.8735e-23
-8.60579e-24
-7.7748e-24
-5.78646e-24
5.15359e-23
1.90114e-24
1.10422e-22
-1.17216e-23
-3.7371e-23
-2.06616e-25
8.62261e-23
-4.32478e-24
4.8235e-23
3.76593e-24
1.0546e-22
1.75967e-25
-3.90426e-23
-7.58176e-25
1.3438e-23
1.31024e-23
6.85477e-23
5.09403e-24
3.833e-23
4.31203e-24
1.98928e-23
-2.00083e-23
8.22553e-24
5.26172e-23
-9.94629e-24
1.1711e-24
4.53323e-23
1.50818e-23
1.21495e-22
1.60664e-23
8.16376e-24
7.1005e-24
9.21163e-23
1.43709e-23
-5.92264e-23
1.7664e-23
9.15026e-23
1.8822e-23
-8.97601e-24
1.46053e-23
9.72942e-23
2.18941e-23
-4.23901e-23
2.25475e-23
1.35862e-22
1.6082e-23
-7.95613e-23
8.58569e-24
1.18348e-22
2.37265e-23
6.65606e-24
2.20077e-23
3.16739e-24
2.21412e-23
1.27358e-23
2.52679e-23
9.90936e-23
3.1942e-23
8.84698e-23
1.78058e-23
-1.64499e-23
1.60052e-23
1.36816e-22
1.43844e-23
4.12466e-23
8.9804e-24
5.86543e-23
4.64386e-24
1.05004e-22
4.40187e-24
5.12208e-23
-7.05465e-24
8.5472e-24
-5.44238e-24
1.37583e-23
5.37511e-26
9.37343e-23
-1.0521e-23
-2.40184e-23
-2.73043e-25
8.54505e-23
-3.86608e-24
7.11612e-23
2.02678e-24
1.08987e-22
1.11603e-24
-4.01029e-23
-3.94212e-25
-2.61403e-23
1.4498e-23
1.05841e-22
3.28028e-24
1.08433e-24
3.3576e-24
3.28176e-23
-4.812e-24
-1.86467e-23
2.64085e-23
8.76538e-24
4.19954e-23
-1.05511e-23
-2.09843e-25
9.70341e-24
1.43645e-23
1.80427e-22
1.70628e-23
6.04684e-23
3.86037e-24
-4.39126e-24
1.53212e-23
-1.54911e-23
1.74306e-23
8.77739e-23
1.91109e-23
6.52081e-23
1.33741e-23
5.79641e-23
2.27733e-23
-5.32585e-23
2.03349e-23
5.97581e-23
1.7509e-23
-6.9323e-23
7.52054e-24
1.19716e-22
2.17082e-23
-1.94016e-23
2.21087e-23
-1.91187e-23
2.44118e-23
7.31199e-23
2.47023e-23
8.69804e-23
3.08681e-23
7.69814e-23
1.92398e-23
2.63304e-23
1.54836e-23
9.33744e-23
1.38556e-23
3.82939e-23
9.68451e-24
5.2483e-23
3.81985e-24
6.57229e-23
4.0469e-24
5.60503e-23
-6.80349e-24
2.67883e-23
-5.10906e-24
1.74911e-23
-1.10857e-24
8.05298e-23
-9.74163e-24
-5.55905e-23
5.82637e-25
7.9008e-23
-3.91247e-24
1.9964e-23
1.09695e-25
1.39683e-22
1.19854e-24
-8.44444e-24
1.46172e-24
-3.14411e-23
1.24555e-23
9.77698e-23
3.15272e-24
-7.47647e-24
4.32781e-24
2.08783e-23
-5.06997e-24
-2.38588e-23
-5.65444e-24
-1.84138e-23
5.86749e-24
-4.16762e-23
8.47001e-24
9.29011e-24
3.544e-23
-9.75517e-24
4.74556e-25
8.18289e-24
1.28466e-23
2.45642e-22
1.40216e-23
3.34811e-23
4.68348e-24
-9.33722e-24
1.5377e-23
-2.0883e-23
1.869e-23
2.89961e-23
1.83494e-23
1.38787e-22
1.32352e-23
5.79863e-23
2.09627e-23
1.86352e-23
2.07238e-23
6.32338e-23
1.8123e-23
-5.83466e-23
6.64424e-24
3.71485e-23
2.14719e-23
3.18342e-23
2.29785e-23
1.85704e-23
2.41127e-23
7.54379e-23
2.38887e-23
1.14221e-22
3.05647e-23
-7.3615e-24
1.92378e-23
5.56508e-25
1.58819e-23
7.99044e-23
1.44124e-23
2.08939e-23
9.35543e-24
4.91365e-23
3.72243e-24
6.00409e-23
3.8391e-24
5.76446e-23
-7.00215e-24
4.88147e-23
-4.81835e-24
1.69188e-23
-2.45487e-24
7.19078e-23
-8.59534e-24
-6.03624e-23
-7.86562e-25
9.70212e-23
-2.26395e-24
4.65058e-23
-1.45443e-24
2.42456e-23
-1.48538e-25
-1.52768e-23
3.91182e-24
-2.6628e-24
1.0534e-23
4.92404e-23
3.89926e-24
-1.83027e-23
5.10783e-24
-3.76078e-23
-6.45175e-24
-2.76266e-23
-4.80269e-24
5.39311e-23
7.07022e-24
-1.2676e-23
-3.06139e-24
-5.89089e-23
-1.88251e-23
-5.71956e-23
-4.87273e-23
8.50301e-24
3.23847e-23
-1.07144e-23
2.35947e-24
-2.6275e-23
1.14406e-23
1.75545e-22
1.15081e-23
9.7468e-24
5.51912e-24
1.40406e-23
1.59698e-23
5.54857e-23
2.05911e-23
3.28269e-24
1.56681e-23
1.21678e-22
1.27235e-23
4.67542e-23
1.9937e-23
-3.6838e-24
2.12094e-23
-6.55123e-24
1.84638e-23
-9.5563e-24
6.38917e-24
8.005e-23
2.10663e-23
1.45419e-22
2.3006e-23
-1.21269e-23
2.45207e-23
1.29407e-23
2.208e-23
1.07855e-22
3.09542e-23
-1.81262e-23
1.93974e-23
5.07044e-23
1.47043e-23
7.19736e-23
1.51362e-23
5.67404e-23
8.71607e-24
7.61177e-25
3.89301e-24
4.09336e-23
3.9915e-24
4.95127e-23
-7.58063e-24
7.64803e-23
-4.96529e-24
9.50095e-24
-3.74927e-24
2.77122e-23
-7.23368e-24
-6.48214e-23
-9.94843e-25
4.86355e-23
-2.40403e-24
6.85097e-23
-7.93323e-25
1.11561e-23
3.25542e-25
-1.64212e-23
3.9259e-24
-9.78382e-24
9.49871e-24
4.09613e-23
2.8961e-24
5.54585e-23
5.67431e-24
-1.45697e-23
-4.20492e-24
-3.36782e-23
-6.26299e-24
9.1609e-24
6.35033e-24
1.15532e-23
-1.76179e-24
-8.5035e-23
-1.79059e-23
-6.87422e-23
-1.49692e-23
-5.28802e-23
-1.97396e-23
-7.66976e-24
-1.84867e-23
1.50566e-23
4.7846e-23
9.41066e-24
3.2545e-23
-9.71531e-24
3.07634e-24
-5.39592e-23
1.04984e-23
1.12546e-22
9.35771e-24
6.43461e-24
5.21482e-24
2.30135e-23
1.76718e-23
8.68531e-23
2.199e-23
-2.26856e-23
1.30505e-23
1.18003e-22
1.22811e-23
1.09731e-22
1.95437e-23
6.05915e-23
2.19151e-23
-3.20835e-24
1.74458e-23
3.43205e-23
9.85983e-24
5.38719e-23
1.69146e-23
5.04521e-23
2.39932e-23
9.54991e-23
2.44212e-23
-5.47008e-23
2.02438e-23
6.59345e-23
3.23156e-23
4.72459e-23
1.92198e-23
4.9208e-23
1.4075e-23
3.7804e-23
1.48914e-23
3.77517e-23
8.1537e-24
-1.28462e-23
4.77571e-24
1.14364e-22
4.33484e-24
4.09803e-23
-8.62174e-24
1.05715e-23
-5.47738e-24
2.34595e-23
-4.20294e-24
2.71209e-23
-6.38779e-24
-3.59656e-23
-6.88041e-25
3.54154e-23
-3.66607e-24
7.93947e-23
-3.44569e-25
1.44051e-23
4.26065e-25
-5.21883e-23
4.33766e-24
-1.11411e-23
1.07057e-23
-4.41765e-23
1.09366e-24
2.39874e-23
6.22235e-24
4.17157e-24
-4.50428e-24
-3.8798e-23
-5.29477e-24
8.30815e-23
5.1827e-24
3.44612e-23
-1.37617e-24
-8.2017e-23
-1.78981e-23
-1.0878e-22
-1.31788e-23
-6.61351e-23
-1.96024e-23
-2.78991e-23
-1.65362e-23
7.4205e-24
-2.71705e-23
2.42265e-23
-2.40753e-23
1.76395e-22
3.28649e-23
1.00221e-23
3.33818e-23
-8.71737e-24
2.70941e-24
-5.85648e-23
9.37318e-24
9.45964e-23
9.15743e-24
-4.00667e-24
6.43335e-24
2.4506e-23
1.59174e-23
7.91706e-23
2.48246e-23
4.45325e-23
1.35249e-23
1.19416e-22
1.17315e-23
1.79046e-22
1.71207e-23
1.28798e-22
2.30458e-23
6.38596e-23
1.79762e-23
3.1565e-23
1.06179e-23
5.09098e-23
1.55387e-23
4.0628e-23
2.17074e-23
5.53158e-23
2.58173e-23
-3.298e-23
1.91215e-23
6.28831e-23
3.30808e-23
1.027e-22
1.88606e-23
-3.26443e-23
1.36113e-23
6.14606e-23
1.49687e-23
9.55912e-23
9.18328e-24
-2.49597e-23
4.22354e-24
1.12588e-22
3.462e-24
7.66046e-25
-8.10322e-24
-3.53348e-24
-6.23355e-24
4.11271e-23
-4.30254e-24
-1.01353e-23
-6.38756e-24
-3.71909e-23
-4.06898e-26
1.78148e-23
-4.48057e-24
6.29121e-23
-1.10882e-24
4.80282e-24
1.05644e-24
-9.64591e-24
3.36049e-24
-1.24829e-23
1.22605e-23
2.25795e-23
1.08194e-24
3.01756e-23
6.01976e-24
7.27204e-23
-3.78653e-24
-5.06572e-23
-6.23912e-24
7.07618e-23
4.8354e-24
1.54382e-23
-3.23927e-24
-5.22265e-23
-1.62131e-23
-1.85153e-22
-1.23977e-23
-5.0444e-23
-1.91616e-23
-9.94338e-23
-1.5848e-23
-3.95067e-23
-2.59708e-23
-1.103e-23
-2.54033e-23
1.29814e-22
-1.65175e-23
1.96122e-23
-1.43581e-23
1.02926e-22
-3.30333e-23
1.59165e-22
1.08023e-22
9.40534e-24
3.83974e-23
-7.74168e-24
4.19372e-24
-5.55699e-23
7.28533e-24
8.41259e-23
1.08608e-23
2.62274e-23
4.40901e-24
-4.55694e-23
1.7193e-23
9.80882e-23
2.30917e-23
-2.29008e-24
1.4379e-23
3.69317e-23
1.14042e-23
8.5035e-23
1.5446e-23
4.68206e-23
2.29078e-23
1.44172e-22
1.68081e-23
3.55407e-23
1.02531e-23
6.58168e-23
1.52911e-23
3.27527e-23
2.01256e-23
8.71908e-23
2.67691e-23
1.28198e-23
2.02518e-23
1.61488e-23
3.0854e-23
8.38173e-23
2.09787e-23
-8.16169e-23
1.28538e-23
4.98608e-23
1.39147e-23
7.32493e-23
1.05113e-23
5.13475e-23
3.06455e-24
1.05396e-22
3.1405e-24
2.81868e-23
-7.18348e-24
9.51775e-24
-7.39764e-24
1.00935e-22
-4.27122e-24
1.45774e-23
-6.27471e-24
-4.25989e-23
6.56228e-25
8.18797e-23
-5.78526e-24
6.19312e-23
-6.46721e-25
3.62808e-23
-1.66705e-25
-1.05406e-23
3.98375e-24
-1.81816e-23
1.2217e-23
5.40416e-24
2.52752e-24
-3.951e-23
3.96699e-24
6.58277e-24
-1.85249e-24
-6.7509e-23
-6.18269e-24
5.64648e-23
4.47573e-24
-3.29932e-24
-4.81537e-24
-1.26976e-22
-1.41792e-23
-1.82875e-22
-1.20825e-23
-5.84122e-24
-1.71274e-23
-5.00194e-23
-1.5143e-23
6.36649e-24
-2.47715e-23
-1.01333e-22
-2.51163e-23
8.33916e-23
-1.57368e-23
1.73442e-23
-1.39409e-23
1.15404e-22
-3.24315e-23
1.15763e-22
9.785e-23
8.75127e-24
7.64868e-23
-6.73748e-24
4.81601e-24
-5.15999e-23
5.64807e-24
-3.8771e-23
9.35851e-24
1.78511e-23
4.9401e-24
-4.61197e-23
1.66802e-23
8.84777e-23
2.24738e-23
-1.53334e-23
1.68967e-23
3.69885e-23
1.04205e-23
8.66686e-23
1.71969e-23
1.34576e-22
2.0825e-23
1.04289e-22
1.73545e-23
1.13233e-22
1.004e-23
4.14659e-23
1.47784e-23
3.53637e-24
2.05098e-23
1.54625e-22
2.56236e-23
7.33919e-23
2.20044e-23
9.7092e-23
2.76126e-23
3.03752e-23
2.25407e-23
-1.58227e-23
1.2333e-23
5.80011e-23
1.53901e-23
5.43984e-23
9.78421e-24
3.59952e-23
2.32257e-24
1.06184e-22
2.71553e-24
5.75303e-23
-5.9418e-24
1.82487e-23
-8.74324e-24
1.18041e-22
-4.92125e-24
1.1716e-23
-4.4368e-24
-1.38261e-23
-3.69266e-25
7.7491e-23
-6.11837e-24
6.29078e-23
-8.10601e-25
7.01926e-23
-4.23472e-25
-4.10285e-23
4.64461e-24
-3.09333e-23
1.14108e-23
-1.76223e-23
2.34257e-24
-7.14533e-23
3.95376e-24
7.18576e-24
-1.1733e-24
-6.61769e-23
-6.28911e-24
4.75161e-23
2.78151e-24
-4.7482e-23
-4.5784e-24
-1.12545e-22
-1.31386e-23
-1.68158e-22
-1.21068e-23
-4.1084e-23
-1.76465e-23
-3.54708e-23
-1.50765e-23
5.17585e-23
-2.2505e-23
-1.05073e-22
-2.55003e-23
6.90986e-23
-1.34468e-23
1.20308e-22
-1.39368e-23
1.60485e-22
-3.15682e-23
5.76028e-23
6.52403e-23
7.84521e-24
9.0096e-23
-7.41325e-24
3.9264e-24
-6.69661e-23
5.46741e-24
-1.15614e-22
1.01313e-23
1.22399e-23
4.44385e-24
-3.91008e-23
1.60476e-23
1.09261e-22
2.29634e-23
-1.6385e-23
1.69371e-23
3.77178e-23
1.08773e-23
1.20144e-22
1.67936e-23
1.29153e-22
2.05759e-23
1.84685e-22
1.70212e-23
1.95648e-22
9.69079e-24
4.5714e-23
1.54355e-23
-1.63421e-23
1.9629e-23
1.80407e-22
2.57635e-23
1.4265e-22
1.98644e-23
5.18523e-23
2.71936e-23
1.786e-23
2.38628e-23
-6.24819e-24
1.1079e-23
3.45397e-23
1.65441e-23
3.23173e-23
9.77424e-24
3.24472e-24
2.44654e-24
9.9173e-23
2.04619e-24
3.85e-23
-4.49392e-24
2.13477e-23
-1.03255e-23
5.23165e-23
-5.65821e-24
4.80773e-24
-3.40647e-24
-1.76976e-23
-9.80872e-25
5.34005e-23
-5.61225e-24
8.32912e-23
-2.62426e-24
3.06167e-23
-7.76242e-25
-4.25874e-23
4.53796e-24
-7.43534e-23
1.11997e-23
-3.81205e-23
3.94234e-24
-6.2986e-23
3.41145e-24
-1.17837e-23
-2.86614e-25
-7.95881e-23
-7.35647e-24
4.22885e-23
1.50947e-24
-7.35249e-23
-3.16446e-24
-1.11612e-22
-1.19453e-23
-1.69393e-22
-1.05872e-23
-5.88409e-23
-1.6306e-23
-1.65097e-23
-1.71935e-23
1.77634e-23
-1.96433e-23
-4.16954e-23
-2.52525e-23
5.44802e-23
-1.49357e-23
2.34078e-22
-1.36939e-23
1.33837e-22
-3.06433e-23
-1.32491e-24
3.16735e-23
6.50128e-24
1.50745e-22
-7.78212e-24
1.75903e-24
-6.3277e-23
6.39202e-24
1.11059e-23
9.58183e-24
5.17185e-23
6.35339e-24
-4.20227e-23
1.61696e-23
1.39134e-22
2.32835e-23
-1.3607e-23
1.8759e-23
1.24294e-23
1.09164e-23
1.23914e-22
1.73561e-23
1.27467e-22
2.10784e-23
1.39974e-22
1.41136e-23
2.04189e-22
8.85424e-24
3.6838e-23
1.71603e-23
7.46752e-23
1.89852e-23
1.41924e-22
2.38503e-23
1.18549e-22
1.82425e-23
3.57144e-23
2.70378e-23
2.7798e-24
2.43303e-23
-1.89054e-23
1.01676e-23
-3.01776e-23
1.75593e-23
9.93203e-23
9.94602e-24
-6.6906e-23
1.89195e-24
8.36758e-23
1.83783e-24
3.13081e-23
-4.43717e-24
2.32005e-23
-1.046e-23
-2.13101e-23
-6.48461e-24
-1.41875e-23
-2.30877e-24
-2.22262e-23
-6.28015e-25
5.70294e-23
-6.78479e-24
5.06246e-23
-2.86546e-24
6.52815e-23
-2.03792e-24
-4.27221e-23
5.1453e-24
-2.13945e-24
1.16928e-23
7.96968e-23
4.44077e-24
-8.37331e-23
3.66013e-24
-2.44092e-23
6.22558e-25
-8.90977e-23
-7.83369e-24
4.84163e-24
1.14561e-24
-1.0438e-22
-2.60755e-24
-5.02542e-23
-1.11774e-23
-1.61641e-22
-9.59593e-24
-1.35443e-22
-1.6226e-23
-8.81275e-23
-1.75067e-23
2.70478e-23
-2.04462e-23
-4.35828e-23
-2.32104e-23
6.1832e-23
-1.6881e-23
1.69352e-22
-1.40126e-23
1.36237e-22
-2.85555e-23
2.10047e-23
6.79633e-23
5.98632e-24
7.67663e-23
-9.50123e-24
1.37396e-24
-1.38924e-22
6.58928e-24
1.29396e-23
9.12462e-24
9.31397e-23
6.82478e-24
-4.40354e-23
1.50014e-23
1.78216e-22
2.2674e-23
1.65256e-23
2.08754e-23
2.04727e-23
1.11565e-23
1.3876e-22
1.69857e-23
2.11436e-22
2.25016e-23
1.3576e-22
1.21066e-23
1.53931e-22
9.15785e-24
7.32713e-23
1.74367e-23
3.90184e-23
1.91042e-23
1.68391e-22
2.14798e-23
1.81537e-22
1.71688e-23
-1.03819e-25
2.69811e-23
-1.98775e-24
2.41496e-23
2.40121e-23
1.16674e-23
-9.66347e-23
1.57617e-23
4.40339e-23
1.14569e-23
-2.18494e-23
1.11513e-24
5.62669e-23
2.16011e-24
5.32131e-23
-5.8782e-24
2.12324e-23
-9.42382e-24
-2.56075e-23
-7.59214e-24
-2.78397e-23
-4.15711e-25
5.33644e-23
-1.40867e-24
6.02617e-23
-6.84792e-24
4.61451e-23
-3.47662e-24
9.91716e-23
-2.07546e-24
-3.97256e-23
6.50443e-24
-8.28127e-25
9.33901e-24
2.21851e-24
5.84722e-24
-4.45042e-23
3.08899e-24
-1.0864e-22
5.90675e-25
-4.57984e-23
-8.08921e-24
-2.96022e-23
1.06899e-24
-4.83779e-23
-2.9934e-24
-2.79508e-23
-1.16159e-23
-1.46303e-22
-7.61437e-24
-1.18455e-22
-1.54251e-23
-6.38501e-23
-1.6519e-23
1.30831e-23
-1.94125e-23
-3.70051e-23
-2.19244e-23
7.06638e-23
-1.74857e-23
1.12919e-22
-1.68804e-23
1.35715e-22
-2.70974e-23
6.56335e-23
4.87763e-23
3.11399e-24
-4.61135e-23
-1.13676e-23
2.60574e-24
-1.64965e-22
5.16844e-24
-7.3923e-24
9.0918e-24
1.02803e-22
6.48055e-24
-3.58845e-23
1.54153e-23
1.72581e-22
2.15173e-23
4.48642e-23
2.23438e-23
3.02881e-23
1.20668e-23
1.90297e-22
1.46409e-23
2.19246e-22
2.15472e-23
1.08908e-22
1.23702e-23
1.51337e-22
7.77537e-24
8.29269e-23
1.72758e-23
4.54482e-23
1.97721e-23
1.6504e-22
1.91275e-23
1.35283e-22
1.74029e-23
7.25802e-23
2.64553e-23
2.8983e-23
2.30162e-23
1.11084e-22
1.30465e-23
-8.45348e-23
1.53228e-23
2.44403e-23
1.21213e-23
-5.80726e-23
1.10818e-24
2.68904e-23
1.9525e-24
4.49573e-23
-7.14989e-24
1.28606e-23
-8.78571e-24
-3.40529e-23
-7.3666e-24
-3.2526e-23
3.27494e-25
4.11422e-23
-2.23929e-24
-1.70148e-23
-6.25072e-24
3.99047e-23
-4.1371e-24
1.35079e-22
-2.32665e-24
-1.14555e-22
6.71001e-24
2.45903e-23
7.7324e-24
-4.8578e-24
5.13738e-24
-5.02883e-23
4.84636e-24
-1.12911e-22
-3.08578e-25
-6.41135e-23
-6.12432e-24
-3.20159e-23
1.30254e-24
-7.56425e-23
-3.08274e-24
-3.10727e-23
-1.11155e-23
-1.36192e-22
-5.87949e-24
-1.1107e-22
-1.56003e-23
-1.30338e-22
-1.52495e-23
1.66511e-23
-1.79633e-23
-3.06646e-23
-2.052e-23
1.13603e-22
-1.81187e-23
4.76895e-23
-1.70929e-23
1.14636e-22
-2.72995e-23
8.16767e-23
5.06267e-23
2.81556e-24
-5.06206e-23
-9.36897e-24
2.65847e-24
-1.17833e-22
6.69714e-24
5.65443e-24
8.43617e-24
-2.62689e-23
7.49377e-24
-3.74903e-23
1.38617e-23
1.67003e-22
2.12016e-23
4.96909e-23
2.44142e-23
3.7087e-23
1.29672e-23
1.1825e-22
1.44325e-23
1.46939e-22
2.1312e-23
1.90017e-23
1.19645e-23
1.64125e-22
7.75693e-24
1.02686e-22
1.83227e-23
5.04236e-23
1.93019e-23
1.20315e-22
1.84843e-23
1.38224e-22
1.57339e-23
4.11528e-23
2.76494e-23
2.97052e-23
2.05883e-23
9.53302e-23
1.37879e-23
-7.8781e-23
1.53192e-23
2.69773e-23
1.25058e-23
-5.43645e-23
1.18575e-24
1.01443e-23
1.73772e-24
4.02354e-23
-8.04511e-24
-1.584e-23
-8.22986e-24
-4.01541e-23
-7.21283e-24
-3.0427e-24
1.46485e-25
1.13079e-22
-2.13069e-24
2.12371e-23
-5.12456e-24
4.28623e-23
-6.3783e-24
5.94878e-23
-1.97107e-24
-1.00592e-22
6.98788e-24
6.94754e-24
7.19053e-24
-1.91874e-23
4.56855e-24
-5.63788e-23
4.96116e-24
-8.02101e-23
-5.97561e-25
-4.58225e-23
-5.76569e-24
-3.26293e-23
1.13191e-24
-7.18922e-23
-2.91474e-24
-2.53272e-23
-1.35141e-23
-9.58793e-23
-5.456e-24
-2.86971e-23
-1.38489e-23
-8.05415e-23
-1.49554e-23
1.46218e-23
-1.61754e-23
-3.46833e-23
-2.02376e-23
1.22453e-22
-1.87788e-23
2.52276e-23
-1.77426e-23
1.18567e-22
-2.64637e-23
1.00449e-22
1.32478e-23
3.85434e-24
1.76271e-23
-6.77653e-24
2.83859e-24
-1.14058e-22
6.4646e-24
1.73488e-23
9.403e-24
-1.77327e-23
8.13787e-24
-6.35396e-23
1.45558e-23
9.25676e-23
2.14106e-23
5.68817e-23
2.51229e-23
3.56246e-23
1.26854e-23
9.87613e-23
1.32117e-23
1.45069e-22
2.1955e-23
8.10828e-23
1.12513e-23
1.36357e-22
7.3886e-24
1.16214e-22
1.77259e-23
9.50227e-23
1.9859e-23
1.19398e-22
1.70673e-23
1.00414e-22
1.50675e-23
8.62277e-23
2.81978e-23
1.82172e-23
1.87313e-23
1.10646e-22
1.44911e-23
-4.27917e-23
1.47411e-23
1.82376e-23
1.26958e-23
-8.43843e-23
1.41992e-24
1.23793e-23
1.29392e-24
2.59025e-25
-8.48775e-24
-5.37879e-23
-7.25958e-24
-3.15558e-23
-6.78262e-24
4.58672e-23
-7.75053e-25
1.21285e-22
-2.10832e-24
2.92217e-23
-5.33166e-24
1.66647e-23
-7.23392e-24
-1.45811e-23
-1.75369e-24
-9.4853e-23
8.02293e-24
7.25565e-23
5.52545e-24
-5.90209e-23
5.28634e-24
5.85041e-23
5.42376e-24
-8.72955e-23
-8.78889e-25
-3.99047e-23
-5.51029e-24
-3.26615e-23
1.25334e-24
-4.08813e-23
-1.8716e-24
-4.07198e-24
-1.30742e-23
-1.40455e-22
-5.74388e-24
-5.68668e-24
-1.24469e-23
-6.28172e-23
-1.64484e-23
1.07707e-23
-1.48188e-23
3.60198e-23
-2.02139e-23
1.07562e-22
-1.92395e-23
4.47962e-24
-1.77447e-23
1.23253e-22
-2.69833e-23
1.11617e-22
-4.47649e-23
2.4648e-24
3.25353e-23
-6.52144e-24
3.65948e-24
-2.76535e-23
5.32073e-24
2.61209e-23
1.01707e-23
3.3927e-23
7.90373e-24
-5.27458e-23
1.43159e-23
1.20575e-22
2.10658e-23
9.91043e-23
2.53212e-23
2.76447e-23
1.2492e-23
8.31357e-23
1.37058e-23
1.63919e-22
2.2459e-23
8.38871e-23
1.17306e-23
6.95125e-23
6.60424e-24
1.66988e-22
1.71428e-23
1.74084e-22
1.97739e-23
1.24248e-22
1.64631e-23
8.73734e-23
1.36087e-23
9.94175e-23
2.95666e-23
3.4483e-23
1.71076e-23
8.90709e-23
1.46076e-23
-4.75406e-23
1.35672e-23
-2.17158e-23
1.37872e-23
-7.64905e-23
7.34569e-25
-1.47333e-23
1.14851e-24
-8.74702e-24
-8.40632e-24
-6.74055e-23
-6.05356e-24
-4.62307e-23
-6.48405e-24
1.68382e-23
-1.36497e-24
1.10598e-22
-2.40595e-24
7.82511e-23
-6.46298e-24
2.5131e-23
-7.03728e-24
-5.76089e-24
-1.12532e-24
-5.50358e-23
6.80553e-24
5.77037e-23
6.75555e-24
-9.28765e-23
4.0933e-24
1.1036e-23
5.9926e-24
-9.58896e-23
-1.30505e-24
-9.99366e-23
-4.56314e-24
-2.30618e-23
9.23309e-25
-6.0972e-23
-3.08516e-24
-3.91844e-23
-1.18516e-23
-9.5045e-23
-4.73577e-24
-4.1215e-23
-1.1865e-23
-4.87587e-23
-1.50119e-23
1.3102e-23
-1.4995e-23
-6.61534e-24
-1.98984e-23
1.07353e-22
-1.92844e-23
2.73977e-23
-1.70171e-23
1.20549e-22
-2.72228e-23
1.22118e-23
-4.48446e-23
1.41633e-24
4.22073e-23
-7.88942e-24
3.86858e-24
9.69994e-23
4.41575e-24
3.69771e-23
1.05546e-23
7.3826e-23
8.6287e-24
-4.5557e-23
1.50038e-23
2.2327e-22
2.06488e-23
1.04578e-22
2.65703e-23
1.74737e-23
1.27534e-23
1.88251e-23
1.33804e-23
9.22882e-23
2.21463e-23
8.12943e-23
1.33568e-23
6.36888e-23
6.10449e-24
1.83981e-22
1.51351e-23
1.43458e-22
1.91591e-23
1.2953e-22
1.68297e-23
6.83047e-23
1.19504e-23
2.80902e-23
3.00989e-23
1.39953e-22
1.58189e-23
7.40398e-23
1.45484e-23
-3.2942e-23
1.32382e-23
-1.80488e-23
1.45491e-23
-8.47519e-23
1.38411e-25
-1.12098e-23
7.6157e-25
-2.58335e-23
-8.194e-24
-7.84866e-23
-4.96522e-24
2.11616e-23
-5.80253e-24
1.74565e-23
-1.74972e-24
1.04231e-22
-3.31616e-24
8.094e-23
-7.75924e-24
-1.39065e-23
-6.47024e-24
2.84721e-23
-7.78574e-25
-4.13385e-23
5.95904e-24
3.65448e-23
7.48489e-24
-7.18071e-23
3.70227e-24
-3.06221e-23
5.60975e-24
-9.82519e-23
-5.18266e-25
-1.58024e-22
-3.76789e-24
-9.6153e-23
1.18056e-25
-4.37872e-23
-2.1317e-24
1.05991e-23
-1.19716e-23
-1.30218e-22
-4.77286e-24
-1.25159e-23
-1.08899e-23
-1.92925e-23
-1.46551e-23
1.41471e-23
-1.53119e-23
-5.52742e-23
-2.02532e-23
1.02928e-22
-1.86387e-23
3.37881e-24
-1.73238e-23
1.17617e-22
-2.76677e-23
-9.78215e-23
-4.83142e-23
1.79161e-24
-3.0422e-23
-8.41991e-24
2.88633e-24
1.00647e-22
4.8703e-24
4.66349e-23
1.01709e-23
1.56992e-22
8.58471e-24
-2.08046e-23
1.49037e-23
2.22027e-22
1.96496e-23
1.08499e-22
2.68372e-23
1.3302e-22
1.16391e-23
4.75788e-23
1.37692e-23
9.88166e-23
2.23292e-23
1.06045e-22
1.34718e-23
2.20252e-23
5.72004e-24
1.20597e-22
1.42899e-23
9.54553e-23
1.83639e-23
1.40351e-22
1.61993e-23
8.48796e-23
1.24011e-23
5.61747e-23
2.94595e-23
1.58449e-22
1.44376e-23
1.40934e-23
1.42152e-23
1.54951e-24
1.21273e-23
-4.13438e-24
1.57754e-23
-6.84378e-23
-5.44827e-25
1.15288e-23
5.34466e-25
3.55214e-23
-7.03263e-24
-8.78196e-23
-4.91793e-24
1.63371e-24
-5.35352e-24
2.0071e-23
-1.50542e-24
7.96972e-23
-4.53842e-24
9.05189e-24
-8.23727e-24
-1.972e-23
-6.56308e-24
2.53069e-23
-3.14149e-25
-3.40757e-23
5.62953e-24
1.4517e-23
7.79069e-24
-1.68436e-23
2.92294e-24
-1.03377e-22
4.81522e-24
-9.55079e-23
3.51968e-25
-1.53926e-22
-3.05898e-24
-5.92044e-23
1.77463e-24
-4.58504e-23
-2.94838e-24
-6.96991e-23
-1.07213e-23
-1.25144e-22
-4.06231e-24
-2.1873e-23
-1.06427e-23
-8.77795e-23
-1.42815e-23
-6.6051e-23
-1.43771e-23
-7.36242e-23
-1.85513e-23
1.35918e-22
-1.91269e-23
-5.6381e-23
-1.91801e-23
1.09149e-22
-2.66157e-23
-5.17246e-23
-1.5858e-23
2.19156e-24
-2.43413e-23
-7.49827e-24
2.46593e-24
1.09636e-22
3.59994e-24
5.77904e-23
9.6779e-24
1.53144e-22
1.00038e-23
-8.84775e-24
1.43821e-23
2.41157e-22
1.92545e-23
1.37182e-22
2.65468e-23
1.28379e-22
1.10837e-23
2.78756e-23
1.49169e-23
9.58139e-23
2.17156e-23
1.02723e-22
1.3558e-23
1.64166e-23
5.54156e-24
5.03491e-23
1.37898e-23
9.93114e-23
1.75894e-23
1.44935e-22
1.62015e-23
9.39594e-23
1.2857e-23
5.61075e-23
2.81788e-23
1.43805e-22
1.43684e-23
4.00253e-23
1.37419e-23
-3.65596e-23
1.11963e-23
1.57937e-23
1.72533e-23
-8.4591e-24
-8.65318e-25
-4.5207e-23
-6.00407e-25
-9.26221e-24
-6.02816e-24
-1.92907e-23
-4.67956e-24
2.00996e-23
-4.93654e-24
2.37554e-23
-2.61584e-24
7.13017e-23
-4.46896e-24
1.04862e-23
-8.73055e-24
-5.48528e-23
-6.41397e-24
2.08735e-23
-9.85937e-25
-5.2653e-24
6.42879e-24
3.75926e-23
5.58345e-24
-2.67927e-23
3.65628e-24
-8.71236e-23
3.9215e-24
-8.75923e-23
1.94562e-24
-5.18271e-23
-3.05955e-24
-7.74652e-23
1.7653e-24
-1.52572e-23
-2.5077e-24
-8.3785e-23
-1.0173e-23
-1.12377e-22
-4.09768e-24
-5.14624e-24
-9.76072e-24
-7.1872e-23
-1.49213e-23
-4.71502e-23
-1.28446e-23
-1.28172e-22
-1.87551e-23
1.32392e-22
-1.87671e-23
-4.70029e-23
-1.98936e-23
1.02392e-22
-2.51594e-23
-4.82602e-23
-2.19245e-23
3.69015e-24
-6.1186e-23
-6.11829e-24
2.06023e-24
7.81459e-23
3.01465e-24
2.11134e-23
9.35087e-24
1.52946e-22
1.06276e-23
-2.55402e-24
1.34112e-23
2.08861e-22
1.92751e-23
2.37764e-22
2.56977e-23
1.31939e-22
1.15191e-23
4.45316e-23
1.50251e-23
9.27018e-23
2.19411e-23
9.95369e-23
1.25984e-23
-1.93963e-23
6.37464e-24
9.97299e-23
1.38837e-23
9.25114e-23
1.66488e-23
1.52667e-22
1.59354e-23
1.01991e-22
1.27543e-23
9.01773e-23
2.69149e-23
1.46669e-22
1.33856e-23
6.90589e-23
1.38921e-23
-6.20264e-23
1.06891e-23
7.82377e-23
1.71414e-23
6.83273e-24
-1.00207e-24
-1.04281e-23
-4.08934e-25
-1.99342e-23
-5.84244e-24
-3.87094e-23
-4.42586e-24
2.65463e-23
-4.73331e-24
2.19537e-23
-3.6163e-24
2.64562e-23
-4.58511e-24
1.75032e-23
-8.4137e-24
2.38205e-23
-5.96382e-24
9.32086e-23
-9.07708e-25
1.79484e-23
6.02995e-24
1.01296e-22
4.6777e-24
-3.82071e-23
3.63617e-24
-9.81707e-23
4.41248e-24