/*--------------------------------*- C++ -*----------------------------------*\
  =========                 |
  \\      /  F ield         | OpenFOAM: The Open Source CFD Toolbox
   \\    /   O peration     | Website:  https://openfoam.org
    \\  /    A nd           | Version:  7
     \\/     M anipulation  |
\*---------------------------------------------------------------------------*/
FoamFile
{
    version     2.0;
    format      ascii;
    class       volVectorField;
    location    "32000";
    object      vorticity;
}
// * * * * * * * * * * * * * * * * * * * * * * * * * * * * * * * * * * * * * //

dimensions      [0 0 -1 0 0 0 0];

internalField   nonuniform List<vector> 
38500
(
(0.00265368 0.00119017 1.99893e-17)
(0.00168929 0.00220477 3.54275e-18)
(0.00179534 0.00208764 -4.94775e-18)
(0.00186376 0.00198209 -4.95148e-18)
(0.00191619 0.00188018 1.4624e-18)
(0.00195875 0.00178122 -1.55353e-18)
(0.00199457 0.0016843 -4.03642e-18)
(0.00202536 0.00158878 -2.20532e-18)
(0.00205211 0.00149432 1.23529e-18)
(0.0020755 0.00140069 5.5428e-19)
(0.00209601 0.00130773 -1.55196e-18)
(0.00211402 0.00121536 -5.7299e-19)
(0.00212984 0.00112349 -2.6858e-19)
(0.00214372 0.00103208 -2.22637e-18)
(0.00215586 0.000941057 -1.68059e-18)
(0.00216644 0.000850392 1.66385e-18)
(0.00217561 0.000760042 3.45686e-18)
(0.00218349 0.00066997 4.75903e-18)
(0.00219018 0.000580139 2.28615e-18)
(0.00219576 0.000490518 -2.50942e-19)
(0.00220032 0.000401074 -3.34992e-19)
(0.0022039 0.000311774 6.82396e-19)
(0.00220655 0.000222585 2.30779e-18)
(0.00220829 0.000133474 1.25967e-18)
(0.00220916 4.44104e-05 1.71538e-19)
(0.00220916 -4.46377e-05 -7.37351e-19)
(0.00220829 -0.000133701 -3.27236e-18)
(0.00220655 -0.000222811 -4.03474e-18)
(0.0022039 -0.000311999 -2.59027e-18)
(0.00220032 -0.000401299 -2.4054e-18)
(0.00219577 -0.000490741 -1.91855e-18)
(0.00219018 -0.000580356 8.26415e-19)
(0.00218349 -0.000670178 2.41272e-18)
(0.00217562 -0.000760244 9.47237e-19)
(0.00216645 -0.000850589 3.14553e-19)
(0.00215587 -0.000941249 3.95252e-18)
(0.00214372 -0.00103226 5.30333e-18)
(0.00212985 -0.00112368 3.58503e-18)
(0.00211403 -0.00121554 2.1684e-18)
(0.00209601 -0.00130792 -1.2131e-18)
(0.0020755 -0.00140087 -1.81133e-18)
(0.00205211 -0.00149451 9.9822e-19)
(0.00202536 -0.00158897 4.85241e-18)
(0.00199457 -0.00168449 4.68071e-18)
(0.00195873 -0.00178142 -5.70321e-19)
(0.00191617 -0.00188038 6.7254e-19)
(0.00186374 -0.00198229 8.32777e-18)
(0.00179531 -0.00208785 1.06403e-17)
(0.00168924 -0.00220498 3.89721e-18)
(0.00265367 -0.00119033 7.35224e-18)
(0.00322382 0.00125453 1.96029e-17)
(0.00225078 0.0022075 3.55299e-18)
(0.00227631 0.00213315 1.84051e-18)
(0.00229484 0.00204444 -1.07909e-18)
(0.00230821 0.00194806 -4.13982e-18)
(0.00231716 0.00184959 -4.94193e-18)
(0.00232315 0.001751 -2.32588e-18)
(0.00232725 0.0016529 1.19278e-20)
(0.00233017 0.00155541 1.59006e-18)
(0.00233232 0.00145851 6.26459e-19)
(0.00233395 0.00136215 -3.218e-19)
(0.0023352 0.00126628 -1.41793e-18)
(0.00233619 0.00117085 -1.30083e-18)
(0.00233697 0.00107581 1.3374e-19)
(0.00233759 0.00098112 8.30598e-19)
(0.00233809 0.000886744 -5.07332e-19)
(0.00233849 0.000792648 -1.52827e-18)
(0.00233881 0.000698801 1.56511e-19)
(0.00233907 0.000605172 -1.55273e-18)
(0.00233927 0.000511732 -3.60199e-18)
(0.00233942 0.000418451 -2.51687e-18)
(0.00233954 0.000325301 -1.62126e-18)
(0.00233963 0.000232254 6.42569e-19)
(0.00233968 0.000139279 1.02822e-18)
(0.00233971 4.63457e-05 -1.25279e-19)
(0.00233971 -4.65745e-05 6.05241e-19)
(0.00233968 -0.000139508 -2.42653e-19)
(0.00233963 -0.000232484 6.0681e-19)
(0.00233955 -0.000325532 2.15168e-18)
(0.00233943 -0.000418679 1.34371e-18)
(0.00233928 -0.000511954 1.62053e-18)
(0.00233908 -0.000605388 3.12377e-18)
(0.00233882 -0.000699008 4.30408e-18)
(0.00233851 -0.000792848 3.09981e-18)
(0.00233811 -0.000886939 1.94059e-18)
(0.00233761 -0.000981311 2.68787e-18)
(0.00233699 -0.001076 2.30542e-18)
(0.00233621 -0.00117104 -1.56573e-19)
(0.00233522 -0.00126647 -1.38074e-18)
(0.00233397 -0.00136234 7.07315e-19)
(0.00233234 -0.00145869 8.23555e-19)
(0.00233019 -0.00155559 1.26244e-18)
(0.00232727 -0.00165309 9.00173e-19)
(0.00232317 -0.00175119 -2.03928e-18)
(0.00231718 -0.00184979 1.58761e-19)
(0.00230823 -0.00194826 2.3149e-18)
(0.00229485 -0.00204464 7.37978e-19)
(0.00227632 -0.00213335 -1.96365e-18)
(0.00225078 -0.00220771 -4.04432e-18)
(0.00322386 -0.00125469 -9.4419e-18)
(0.00335747 0.001367 1.09098e-17)
(0.00237243 0.0022662 -1.56637e-18)
(0.00238404 0.00218532 -1.16487e-18)
(0.0023959 0.00210178 -2.73089e-18)
(0.00240855 0.00200995 -3.92075e-18)
(0.00241955 0.00191337 -3.42559e-18)
(0.00242847 0.00181455 -2.46982e-18)
(0.00243559 0.00171488 -1.83636e-18)
(0.00244133 0.00161503 -1.24635e-18)
(0.00244604 0.00151531 -1.35353e-18)
(0.00244998 0.00141584 -4.77411e-19)
(0.00245332 0.00131667 -8.82176e-19)
(0.00245618 0.0012178 -1.51286e-18)
(0.00245866 0.00111924 -9.74541e-19)
(0.00246082 0.00102095 -1.26205e-18)
(0.00246269 0.000922919 -2.56038e-18)
(0.00246431 0.00082512 -2.3647e-18)
(0.0024657 0.000727531 9.98669e-20)
(0.00246688 0.00063013 -1.43407e-18)
(0.00246788 0.000532893 -1.23951e-18)
(0.00246869 0.000435792 1.65747e-18)
(0.00246933 0.000338804 3.65823e-19)
(0.0024698 0.000241906 1.10456e-19)
(0.00247012 0.000145073 3.61813e-19)
(0.00247028 4.82785e-05 -3.172e-19)
(0.00247028 -4.85052e-05 4.18141e-20)
(0.00247012 -0.000145304 -1.03776e-18)
(0.00246981 -0.00024214 4.84795e-20)
(0.00246933 -0.000339038 2.01388e-18)
(0.0024687 -0.000436021 1.81745e-18)
(0.00246789 -0.000533114 2.66359e-18)
(0.00246689 -0.000630346 3.53146e-18)
(0.00246571 -0.000727741 3.37443e-18)
(0.00246432 -0.000825323 2.49329e-18)
(0.0024627 -0.000923116 1.41881e-18)
(0.00246084 -0.00102114 1.66231e-18)
(0.00245869 -0.00111943 2.75184e-18)
(0.00245621 -0.00121799 2.2059e-18)
(0.00245334 -0.00131685 1.39735e-18)
(0.00245 -0.00141602 2.85379e-18)
(0.00244606 -0.00151549 1.83691e-18)
(0.00244135 -0.00161522 6.99447e-19)
(0.00243561 -0.00171507 3.15015e-18)
(0.00242849 -0.00181474 8.61591e-19)
(0.00241957 -0.00191356 -7.91597e-19)
(0.00240857 -0.00201015 -9.76599e-20)
(0.0023959 -0.00210198 -1.94992e-18)
(0.00238405 -0.00218552 -2.91855e-18)
(0.00237243 -0.0022664 -2.80529e-18)
(0.00335751 -0.00136717 -1.48678e-17)
(0.0034603 0.00148838 4.4638e-18)
(0.00249726 0.00234865 -6.16938e-18)
(0.00250167 0.00225508 -2.65135e-18)
(0.00250768 0.00216642 -1.18036e-18)
(0.00251733 0.00207357 5.95195e-20)
(0.00252784 0.00197675 6.67331e-19)
(0.00253778 0.00187717 -9.79356e-19)
(0.00254666 0.00177598 -1.37463e-18)
(0.00255442 0.00167396 -9.3996e-19)
(0.00256118 0.00157159 -2.30011e-18)
(0.00256709 0.00146916 -2.19293e-18)
(0.00257228 0.0013668 -2.02838e-18)
(0.00257687 0.00126458 -1.44055e-18)
(0.00258092 0.00116254 -6.15574e-19)
(0.00258451 0.00106069 -6.64579e-19)
(0.00258768 0.000959027 -1.56332e-18)
(0.00259046 0.000857545 -6.28593e-19)
(0.00259288 0.00075623 1.57079e-18)
(0.00259497 0.000655066 -1.03334e-18)
(0.00259673 0.000554036 -1.89261e-18)
(0.00259818 0.000453121 -6.0351e-19)
(0.00259933 0.000352302 -1.38337e-18)
(0.00260018 0.000251557 -5.39104e-19)
(0.00260075 0.000150865 6.15619e-19)
(0.00260104 5.02085e-05 1.17369e-18)
(0.00260104 -5.04375e-05 1.0862e-18)
(0.00260076 -0.000151098 1.00947e-19)
(0.00260019 -0.000251792 6.85792e-19)
(0.00259933 -0.000352536 1.59522e-18)
(0.00259819 -0.000453351 1.15919e-18)
(0.00259673 -0.000554258 1.57521e-18)
(0.00259498 -0.000655281 2.10023e-18)
(0.00259289 -0.00075644 2.37886e-18)
(0.00259047 -0.000857752 2.88781e-18)
(0.00258769 -0.00095923 2.2546e-18)
(0.00258453 -0.00106089 2.05206e-18)
(0.00258094 -0.00116273 2.90685e-18)
(0.00257689 -0.00126476 2.12639e-18)
(0.00257231 -0.00136698 3.4218e-19)
(0.00256712 -0.00146934 3.9617e-20)
(0.00256121 -0.00157178 7.34084e-19)
(0.00255444 -0.00167415 -8.24742e-19)
(0.00254668 -0.00177616 1.32801e-18)
(0.0025378 -0.00187736 8.81698e-20)
(0.00252785 -0.00197694 -2.45864e-18)
(0.00251734 -0.00207376 -5.40919e-19)
(0.00250769 -0.00216662 -2.89779e-18)
(0.00250167 -0.00225527 -5.43567e-18)
(0.00249726 -0.00234886 -6.17515e-18)
(0.00346033 -0.00148855 -1.89649e-17)
(0.00355017 0.0016095 2.44198e-18)
(0.00261394 0.00243895 -4.53642e-18)
(0.00261835 0.00233545 -2.16731e-18)
(0.00262239 0.00223922 -1.85937e-18)
(0.00263015 0.00214189 -2.62699e-19)
(0.00263984 0.00204236 3.27133e-19)
(0.00265005 0.00194066 1.68103e-19)
(0.00265995 0.00183732 7.74912e-19)
(0.00266918 0.00173289 9.02388e-19)
(0.00267759 0.00162781 -1.31e-18)
(0.00268519 0.00152241 -2.00462e-18)
(0.00269205 0.00141687 -1.91676e-18)
(0.00269821 0.00131132 -9.02234e-19)
(0.00270374 0.00120582 -9.83608e-19)
(0.00270869 0.00110042 -2.27052e-18)
(0.0027131 0.00099514 -2.96704e-18)
(0.002717 0.000889981 -1.89073e-18)
(0.00272041 0.000784942 -1.45073e-18)
(0.00272337 0.000680018 -3.55286e-18)
(0.00272587 0.000575196 -2.76522e-18)
(0.00272794 0.000470464 -3.30341e-19)
(0.00272959 0.000365811 9.43559e-19)
(0.00273082 0.000261216 1.44559e-18)
(0.00273163 0.000156664 1.0568e-18)
(0.00273204 5.21392e-05 4.91642e-19)
(0.00273204 -5.23758e-05 8.10585e-20)
(0.00273164 -0.000156901 4.03044e-19)
(0.00273082 -0.000261451 1.7076e-18)
(0.00272959 -0.000366043 1.56616e-18)
(0.00272795 -0.000470692 1.01171e-18)
(0.00272588 -0.000575416 1.4427e-18)
(0.00272337 -0.000680231 1.60383e-18)
(0.00272042 -0.000785152 1.84096e-18)
(0.002717 -0.000890191 1.84698e-18)
(0.0027131 -0.000995345 1.27722e-18)
(0.0027087 -0.00110062 1.92345e-18)
(0.00270375 -0.00120601 2.76987e-18)
(0.00269822 -0.0013115 2.07479e-18)
(0.00269206 -0.00141705 9.73698e-19)
(0.00268521 -0.00152259 -1.13935e-18)
(0.0026776 -0.001628 -1.69909e-18)
(0.00266919 -0.00173307 -1.50221e-18)
(0.00265997 -0.00183751 4.06195e-19)
(0.00265006 -0.00194085 2.75828e-19)
(0.00263985 -0.00204255 -3.3866e-18)
(0.00263016 -0.00214208 -2.74966e-18)
(0.00262239 -0.00223941 -2.88601e-18)
(0.00261835 -0.00233564 -6.61725e-18)
(0.00261393 -0.00243915 -8.14916e-18)
(0.0035502 -0.00160968 -1.94395e-17)
(0.00363511 0.0017287 7.24984e-18)
(0.00272471 0.00253151 -1.16534e-18)
(0.00273177 0.00242086 -2.24749e-18)
(0.00273668 0.00231759 -2.47944e-18)
(0.00274432 0.00221471 -4.66252e-20)
(0.00275388 0.00211102 6.57468e-19)
(0.00276439 0.00200602 1.09061e-18)
(0.00277508 0.00189974 1.64266e-18)
(0.00278545 0.00179244 1.46518e-18)
(0.00279523 0.0016844 6.91664e-20)
(0.00280431 0.00157589 -1.76893e-18)
(0.00281265 0.0014671 -1.64797e-18)
(0.00282026 0.00135818 -8.32178e-19)
(0.00282717 0.00124921 -3.11549e-18)
(0.00283341 0.00114025 -4.66154e-18)
(0.002839 0.00103134 -3.4239e-18)
(0.00284396 0.000922488 -1.11185e-18)
(0.00284834 0.000813716 -8.34771e-19)
(0.00285213 0.000705021 -1.45207e-18)
(0.00285535 0.0005964 -1.02185e-18)
(0.00285803 0.000487843 4.04591e-19)
(0.00286016 0.000379345 2.83262e-19)
(0.00286175 0.000270893 -4.9961e-19)
(0.00286281 0.000162475 8.59451e-20)
(0.00286334 5.40766e-05 1.17458e-18)
(0.00286333 -5.43148e-05 9.62903e-19)
(0.00286281 -0.000162713 -4.11147e-19)
(0.00286175 -0.000271128 -5.59098e-19)
(0.00286016 -0.000379574 1.25956e-19)
(0.00285803 -0.000488069 1.16322e-18)
(0.00285535 -0.000596619 2.02558e-18)
(0.00285212 -0.000705233 2.20504e-18)
(0.00284833 -0.000813924 2.11786e-18)
(0.00284396 -0.000922693 1.87463e-18)
(0.00283899 -0.00103153 6.01884e-19)
(0.00283339 -0.00114044 4.40041e-19)
(0.00282716 -0.00124939 1.19825e-18)
(0.00282025 -0.00135836 9.14836e-19)
(0.00281265 -0.00146729 1.25501e-18)
(0.00280431 -0.00157607 1.83109e-18)
(0.00279524 -0.00168458 9.98716e-19)
(0.00278546 -0.00179262 -3.50671e-19)
(0.00277509 -0.00189993 -4.59273e-19)
(0.0027644 -0.00200621 -7.31566e-19)
(0.00275388 -0.0021112 -3.54017e-18)
(0.00274432 -0.00221489 -4.61683e-18)
(0.00273667 -0.00231778 -4.36282e-18)
(0.00273176 -0.00242105 -6.06922e-18)
(0.0027247 -0.00253171 -4.87166e-18)
(0.00363513 -0.00172888 -1.04038e-17)
(0.00371834 0.00184594 1.41599e-17)
(0.00283199 0.00262459 4.10443e-18)
(0.00284235 0.00250849 1.1409e-18)
(0.00284952 0.00239919 1.29236e-18)
(0.00285838 0.0022908 1.74492e-18)
(0.00286869 0.00218242 2.356e-20)
(0.00287991 0.00207343 -6.39509e-19)
(0.00289148 0.00196361 -2.62619e-20)
(0.00290293 0.00185297 8.4119e-19)
(0.00291395 0.00174166 5.83221e-19)
(0.00292436 0.00162984 -2.07153e-18)
(0.00293406 0.00151768 -1.35597e-18)
(0.00294302 0.00140531 -3.46226e-19)
(0.00295122 0.00129281 -3.53643e-18)
(0.00295867 0.00118025 -3.44369e-18)
(0.00296539 0.00106768 -1.10869e-18)
(0.00297139 0.00095512 3.14328e-19)
(0.00297669 0.000842596 -7.05193e-19)
(0.00298129 0.000730113 -1.33709e-18)
(0.00298522 0.000617675 -1.19411e-18)
(0.00298847 0.000505281 7.68364e-19)
(0.00299107 0.000392923 1.14535e-18)
(0.00299302 0.000280599 2.8242e-19)
(0.00299431 0.000168302 -1.23897e-19)
(0.00299496 5.60212e-05 -7.48825e-19)
(0.00299496 -5.62578e-05 -1.96639e-19)
(0.00299431 -0.000168541 3.14793e-19)
(0.00299301 -0.000280834 3.84503e-19)
(0.00299107 -0.000393152 4.21056e-20)
(0.00298847 -0.000505502 3.65626e-19)
(0.00298521 -0.000617889 6.87903e-19)
(0.00298128 -0.000730321 1.46798e-18)
(0.00297667 -0.000842801 1.79916e-18)
(0.00297138 -0.000955319 1.08692e-18)
(0.00296538 -0.00106787 -1.60145e-20)
(0.00295866 -0.00118043 -1.08122e-18)
(0.0029512 -0.00129299 -6.77068e-19)
(0.002943 -0.00140549 7.27741e-19)
(0.00293405 -0.00151787 2.00255e-18)
(0.00292435 -0.00163003 3.14426e-18)
(0.00291395 -0.00174184 2.9311e-18)
(0.00290293 -0.00185316 1.06781e-18)
(0.00289148 -0.00196379 1.00327e-18)
(0.00287991 -0.00207361 5.05596e-19)
(0.00286868 -0.0021826 -2.06942e-18)
(0.00285836 -0.00229099 -3.70725e-18)
(0.00284949 -0.00239937 -3.89148e-18)
(0.00284233 -0.00250868 -2.00433e-18)
(0.00283196 -0.0026248 -5.6606e-19)
(0.00371834 -0.00184614 1.42654e-18)
(0.00380127 0.00196153 5.78966e-18)
(0.00293731 0.00271775 5.71042e-18)
(0.002951 0.00259711 4.71737e-18)
(0.00296097 0.00248258 3.80443e-18)
(0.00297182 0.00236907 2.17659e-18)
(0.00298357 0.00225594 1.41662e-19)
(0.00299597 0.00214266 1.61581e-19)
(0.00300866 0.00202892 3.79534e-19)
(0.00302127 0.00191461 1.12035e-18)
(0.00303352 0.00179975 1.62106e-19)
(0.00304521 0.00168442 -3.26692e-18)
(0.00305621 0.00156874 -6.74231e-19)
(0.00306645 0.00145281 -3.01749e-20)
(0.00307588 0.0013367 -3.56743e-18)
(0.0030845 0.00122049 -3.07738e-18)
(0.00309231 0.00110421 -5.70094e-19)
(0.0030993 0.000987917 1.28468e-18)
(0.0031055 0.000871615 5.78921e-19)
(0.00311089 0.000755322 -9.61045e-19)
(0.0031155 0.000639048 -1.33981e-18)
(0.00311933 0.000522794 4.40424e-20)
(0.00312238 0.000406561 -6.33692e-19)
(0.00312467 0.000290349 -1.36284e-18)
(0.00312619 0.000174156 -1.74059e-19)
(0.00312695 5.79725e-05 -2.45199e-19)
(0.00312695 -5.82102e-05 9.66306e-20)
(0.00312619 -0.000174392 -1.57881e-21)
(0.00312466 -0.000290581 -3.49898e-19)
(0.00312237 -0.000406787 -6.83559e-19)
(0.00311931 -0.00052301 2.27121e-19)
(0.00311548 -0.000639255 1.00516e-18)
(0.00311087 -0.000755527 1.71865e-18)
(0.00310548 -0.000871819 1.92085e-18)
(0.00309929 -0.000988117 7.79849e-19)
(0.0030923 -0.00110441 7.62727e-19)
(0.00308449 -0.00122068 5.0721e-19)
(0.00307587 -0.00133689 8.55702e-21)
(0.00306644 -0.001453 4.88923e-19)
(0.00305621 -0.00156894 6.0986e-19)
(0.00304521 -0.00168461 3.40676e-19)
(0.00303352 -0.00179993 1.70044e-18)
(0.00302127 -0.00191479 -4.21707e-19)
(0.00300865 -0.0020291 -1.04885e-18)
(0.00299596 -0.00214283 2.97876e-19)
(0.00298355 -0.00225611 -1.09698e-18)
(0.00297179 -0.00236925 -3.36743e-18)
(0.00296094 -0.00248277 -5.13321e-18)
(0.00295096 -0.00259731 -9.66996e-19)
(0.00293727 -0.00271797 3.63341e-18)
(0.00380125 -0.00196174 1.02486e-17)
(0.00388458 0.00207579 -5.69434e-18)
(0.00304157 0.00281094 3.70135e-18)
(0.00305847 0.00268624 5.47368e-18)
(0.00307141 0.00256702 4.45587e-18)
(0.00308464 0.00244875 2.37751e-18)
(0.00309827 0.002331 6.03003e-19)
(0.00311223 0.00221336 1.38862e-18)
(0.0031263 0.00209552 1.26423e-18)
(0.00314023 0.00197732 1.63398e-18)
(0.00315378 0.00185871 2.23993e-20)
(0.00316676 0.0017397 -2.57272e-18)
(0.00317903 0.00162035 -2.67143e-19)
(0.00319052 0.00150075 -5.98413e-19)
(0.00320115 0.00138096 -2.83426e-18)
(0.0032109 0.00126103 -3.03675e-18)
(0.00321976 0.001141 -1.43481e-18)
(0.00322772 0.00102092 5.54962e-19)
(0.00323478 0.000900802 5.1619e-19)
(0.00324095 0.000780671 -9.1239e-19)
(0.00324622 0.000660534 -1.15968e-18)
(0.00325061 0.000540399 -2.29781e-19)
(0.00325411 0.00042027 -9.05319e-19)
(0.00325673 0.000300152 -1.11349e-18)
(0.00325848 0.000180042 1.46137e-19)
(0.00325935 5.99343e-05 3.86229e-19)
(0.00325935 -6.0171e-05 3.73314e-19)
(0.00325847 -0.000180272 -3.724e-19)
(0.00325672 -0.000300377 -6.72864e-19)
(0.0032541 -0.00042049 -6.66351e-19)
(0.00325059 -0.00054061 2.48125e-19)
(0.00324621 -0.000660742 8.32429e-19)
(0.00324094 -0.00078088 1.15371e-18)
(0.00323478 -0.000901009 1.44282e-18)
(0.00322772 -0.00102112 6.34311e-19)
(0.00321976 -0.0011412 8.81278e-19)
(0.0032109 -0.00126122 -9.51622e-20)
(0.00320115 -0.00138116 -4.78471e-19)
(0.00319052 -0.00150095 1.21226e-18)
(0.00317904 -0.00162055 2.15839e-18)
(0.00316676 -0.00173988 1.16697e-18)
(0.00315377 -0.00185888 4.82888e-19)
(0.00314022 -0.00197749 -1.64876e-18)
(0.00312629 -0.00209569 -2.75717e-18)
(0.00311221 -0.00221353 -1.32071e-18)
(0.00309824 -0.00233117 -1.00376e-18)
(0.0030846 -0.00244893 -2.29369e-18)
(0.00307137 -0.00256721 -3.21485e-18)
(0.00305842 -0.00268644 -1.29138e-18)
(0.00304151 -0.00281117 9.52995e-19)
(0.00388455 -0.00207602 3.83942e-18)
(0.00396864 0.00218899 -2.74772e-18)
(0.00314531 0.00290423 1.90667e-18)
(0.0031653 0.00277572 5.72482e-18)
(0.00318122 0.00265215 4.72824e-18)
(0.00319701 0.0025294 2.69385e-18)
(0.00321279 0.00240719 1.68168e-18)
(0.00322858 0.00228522 1.99023e-18)
(0.00324425 0.00216321 1.58925e-18)
(0.00325965 0.00204099 2.93024e-18)
(0.00327459 0.00191849 1.41328e-18)
(0.00328891 0.00179567 -1.71566e-18)
(0.00330247 0.00167255 -2.10843e-18)
(0.00331519 0.00154918 -1.94906e-18)
(0.00332701 0.00142562 -2.48579e-18)
(0.00333787 0.0013019 -2.58139e-18)
(0.00334776 0.00117807 -1.53826e-18)
(0.00335667 0.00105416 5.93522e-20)
(0.00336458 0.000930189 1.84392e-19)
(0.0033715 0.000806181 -1.13814e-18)
(0.00337742 0.000682151 -1.29818e-18)
(0.00338236 0.000558108 -2.44057e-19)
(0.00338629 0.000434059 -6.53699e-19)
(0.00338925 0.000310009 -4.95834e-19)
(0.00339121 0.000185958 8.70463e-19)
(0.0033922 6.1907e-05 1.18122e-18)
(0.0033922 -6.21408e-05 6.93396e-19)
(0.00339121 -0.000186186 -4.1062e-19)
(0.00338924 -0.00031023 -1.43156e-18)
(0.00338629 -0.000434275 -1.49223e-18)
(0.00338234 -0.00055832 2.24442e-19)
(0.00337742 -0.000682366 1.38971e-18)
(0.0033715 -0.000806396 8.99394e-19)
(0.00336458 -0.000930394 4.6033e-19)
(0.00335667 -0.00105436 7.46137e-19)
(0.00334776 -0.00117827 1.41545e-18)
(0.00333787 -0.0013021 4.9735e-19)
(0.00332701 -0.00142582 9.71591e-20)
(0.0033152 -0.00154938 2.99719e-19)
(0.00330247 -0.00167273 8.47549e-19)
(0.0032889 -0.00179584 5.03112e-19)
(0.00327457 -0.00191866 -3.68202e-19)
(0.00325963 -0.00204116 -1.12192e-18)
(0.00324423 -0.00216337 -1.59374e-18)
(0.00322855 -0.00228538 -1.47125e-18)
(0.00321275 -0.00240735 -9.28259e-19)
(0.00319696 -0.00252957 -2.71156e-18)
(0.00318117 -0.00265233 -2.96822e-18)
(0.00316523 -0.00277592 -9.02449e-20)
(0.00314524 -0.00290446 1.71738e-18)
(0.00396858 -0.00218923 1.27419e-18)
(0.00405363 0.00230137 5.90816e-18)
(0.00324889 0.00299769 2.22583e-18)
(0.00327185 0.0028655 4.67211e-18)
(0.00329073 0.00273778 4.13634e-18)
(0.00330914 0.00261076 3.027e-18)
(0.00332722 0.00248424 3.03836e-18)
(0.003345 0.00235799 2.84976e-18)
(0.00336245 0.00223181 1.49867e-18)
(0.00337945 0.00210551 1.4875e-18)
(0.00339587 0.00197902 -2.98382e-20)
(0.00341158 0.0018523 -1.84085e-18)
(0.00342647 0.00172532 -2.28777e-18)
(0.00344044 0.0015981 -1.0613e-18)
(0.00345344 0.0014707 -1.10232e-18)
(0.00346541 0.00134313 -2.43385e-18)
(0.00347632 0.00121544 -2.34635e-18)
(0.00348616 0.00108765 -3.1108e-19)
(0.00349491 0.00095979 1.14066e-18)
(0.00350257 0.00083187 3.91342e-19)
(0.00350914 0.000703915 -7.0719e-19)
(0.00351461 0.000575935 -8.01425e-19)
(0.00351898 0.000447938 -1.58343e-18)
(0.00352226 0.00031993 -1.07903e-18)
(0.00352444 0.000191912 4.41465e-19)
(0.00352553 6.38897e-05 1.15877e-18)
(0.00352553 -6.41259e-05 5.37298e-19)
(0.00352444 -0.000192137 -6.17247e-19)
(0.00352225 -0.000320146 -8.1993e-19)
(0.00351897 -0.000448151 -8.18838e-19)
(0.0035146 -0.00057615 1.83129e-19)
(0.00350914 -0.000704135 1.01638e-18)
(0.00350257 -0.000832085 6.61724e-19)
(0.00349491 -0.000959994 1.96279e-19)
(0.00348616 -0.00108785 9.89947e-19)
(0.00347632 -0.00121564 1.30441e-18)
(0.00346541 -0.00134333 -4.49629e-19)
(0.00345344 -0.00147089 -4.99903e-19)
(0.00344044 -0.00159829 -1.70337e-19)
(0.00342646 -0.00172549 4.68628e-19)
(0.00341156 -0.00185246 6.95874e-19)
(0.00339585 -0.00197919 -4.92488e-19)
(0.00337943 -0.00210568 -1.29771e-18)
(0.00336242 -0.00223196 -6.64802e-19)
(0.00334497 -0.00235814 -1.30146e-18)
(0.00332717 -0.0024844 -3.28572e-19)
(0.00330908 -0.00261093 -1.93602e-18)
(0.00329066 -0.00273797 -4.63538e-18)
(0.00327177 -0.0028657 -2.86264e-18)
(0.00324879 -0.00299793 -1.04266e-18)
(0.00405354 -0.00230162 -6.5302e-19)
(0.00413964 0.00241311 1.98549e-18)
(0.00335252 0.00309141 1.88203e-18)
(0.00337838 0.00295561 2.54421e-18)
(0.00340016 0.00282388 1.67484e-18)
(0.00342122 0.0026927 1.74919e-18)
(0.00344167 0.00256198 3.26981e-18)
(0.00346156 0.00243153 2.94327e-18)
(0.00348089 0.00230118 1.32776e-18)
(0.0034996 0.00217079 9.26666e-19)
(0.00351758 0.00204026 -3.48645e-20)
(0.00353475 0.00190955 -1.46443e-18)
(0.003551 0.00177863 -2.73045e-18)
(0.00356625 0.00164751 -1.89341e-18)
(0.00358043 0.0015162 -3.26073e-19)
(0.00359351 0.00138473 -1.25591e-18)
(0.00360544 0.00125312 -1.65658e-18)
(0.00361621 0.00112141 -8.50452e-20)
(0.0036258 0.000989613 7.19471e-19)
(0.00363419 0.00085775 -8.82929e-19)
(0.00364139 0.000725835 -1.1517e-18)
(0.0036474 0.000593886 -1.10817e-18)
(0.0036522 0.000461912 -2.19506e-18)
(0.0036558 0.000329916 -7.20275e-19)
(0.0036582 0.000197906 1.13974e-18)
(0.0036594 6.5887e-05 1.70876e-18)
(0.0036594 -6.61245e-05 3.55516e-19)
(0.0036582 -0.00019813 -1.23407e-18)
(0.0036558 -0.000330132 -3.82371e-19)
(0.0036522 -0.000462125 -2.00289e-20)
(0.00364741 -0.000594103 9.31752e-19)
(0.0036414 -0.000726052 1.62652e-18)
(0.0036342 -0.00085796 2.95699e-19)
(0.0036258 -0.000989821 -6.24899e-19)
(0.00361621 -0.00112161 4.39783e-19)
(0.00360545 -0.00125332 1.11781e-18)
(0.00359351 -0.00138492 -8.74445e-19)
(0.00358043 -0.00151639 -9.55015e-19)
(0.00356624 -0.00164769 -4.93635e-19)
(0.00355099 -0.0017788 -4.07502e-19)
(0.00353474 -0.00190972 -1.18875e-19)
(0.00351757 -0.00204043 -1.38235e-18)
(0.00349958 -0.00217094 -1.48766e-18)
(0.00348086 -0.00230132 5.84148e-20)
(0.00346152 -0.00243167 -1.18247e-18)
(0.00344161 -0.00256213 -1.34662e-18)
(0.00342115 -0.00269287 -1.7076e-18)
(0.00340007 -0.00282405 -4.11007e-18)
(0.00337828 -0.00295581 -3.93218e-18)
(0.0033524 -0.00309165 -4.04618e-18)
(0.00413953 -0.00241337 -1.73196e-18)
(0.00422674 0.0025244 -6.16523e-18)
(0.00345636 0.00318547 1.04391e-18)
(0.00348507 0.00304607 1.57761e-18)
(0.00350971 0.0029104 1.48085e-18)
(0.00353341 0.00277518 2.04471e-18)
(0.00355627 0.00264032 2.80207e-18)
(0.00357834 0.00250572 1.90819e-18)
(0.00359964 0.00237122 1.31856e-18)
(0.00362013 0.00223673 3.92695e-19)
(0.00363975 0.00210214 -8.59112e-19)
(0.00365842 0.00196739 -1.38539e-18)
(0.00367606 0.00183248 -2.20292e-18)
(0.0036926 0.00169738 -1.52072e-18)
(0.003708 0.00156211 -1.52022e-19)
(0.00372219 0.00142668 -1.38028e-18)
(0.00373515 0.00129112 -2.23806e-18)
(0.00374685 0.00115545 -9.61582e-20)
(0.00375727 0.00101967 1.15561e-18)
(0.00376639 0.000883827 -4.01605e-19)
(0.00377423 0.000747919 -3.2499e-19)
(0.00378075 0.000611965 -9.66242e-19)
(0.00378598 0.000475983 -2.29554e-18)
(0.00378991 0.00033997 -1.21639e-18)
(0.00379253 0.000203938 9.42082e-19)
(0.00379384 6.79004e-05 1.15834e-18)
(0.00379383 -6.81351e-05 -7.13404e-19)
(0.00379253 -0.000204167 -1.15017e-18)
(0.00378992 -0.000340192 1.06762e-18)
(0.003786 -0.0004762 1.10646e-18)
(0.00378077 -0.000612183 1.85613e-18)
(0.00377424 -0.000748131 3.37261e-18)
(0.00376641 -0.000884034 1.12033e-18)
(0.00375728 -0.00101988 -1.44353e-18)
(0.00374686 -0.00115565 -1.42043e-18)
(0.00373516 -0.00129132 2.99951e-19)
(0.00372221 -0.00142688 -1.25579e-18)
(0.00370802 -0.0015623 -8.71421e-19)
(0.00369262 -0.00169756 -1.21665e-19)
(0.00367607 -0.00183265 -9.85658e-19)
(0.00365841 -0.00196756 -8.96802e-19)
(0.00363973 -0.00210229 -1.66861e-18)
(0.0036201 -0.00223687 -2.36209e-18)
(0.00359959 -0.00237136 -6.75005e-19)
(0.00357828 -0.00250585 -6.89333e-19)
(0.0035562 -0.00264046 -1.57659e-18)
(0.00353333 -0.00277533 -1.58803e-18)
(0.00350961 -0.00291057 -4.22085e-18)
(0.00348496 -0.00304628 -4.72912e-18)
(0.00345623 -0.00318572 -6.18908e-18)
(0.00422661 -0.00252466 -6.40988e-18)
(0.00431497 0.00263538 -3.11721e-18)
(0.00356055 0.00327993 7.28822e-19)
(0.00359207 0.00313694 2.21431e-19)
(0.00361953 0.00299737 1.68248e-18)
(0.00364586 0.00285815 3.25464e-18)
(0.00367114 0.00271922 3.25493e-18)
(0.00369543 0.00258049 1.78092e-18)
(0.00371875 0.00244188 1.03526e-18)
(0.00374108 0.00230328 -1.31614e-19)
(0.00376239 0.0021646 -8.33317e-19)
(0.00378261 0.0020258 -9.28767e-19)
(0.00380168 0.00188684 -1.90057e-18)
(0.00381955 0.00174772 -1.41461e-18)
(0.00383617 0.00160844 -7.06703e-19)
(0.00385148 0.00146901 -1.00208e-18)
(0.00386547 0.00132944 -1.24108e-18)
(0.0038781 0.00118976 9.62959e-19)
(0.00388935 0.00104997 6.54515e-19)
(0.00389921 0.000910106 -1.39763e-18)
(0.00390767 0.000770173 -8.75982e-19)
(0.00391473 0.000630182 -1.70396e-18)
(0.00392038 0.000490153 -2.15122e-18)
(0.00392462 0.000350094 -1.00273e-18)
(0.00392746 0.000210014 1.42193e-18)
(0.00392887 6.99291e-05 1.98262e-18)
(0.00392886 -7.01619e-05 -2.6483e-19)
(0.00392746 -0.00021025 -1.55881e-18)
(0.00392463 -0.000350323 6.40943e-19)
(0.00392039 -0.000490374 1.50029e-18)
(0.00391474 -0.000630398 1.77508e-18)
(0.00390769 -0.000770382 2.82421e-18)
(0.00389922 -0.000910315 1.207e-18)
(0.00388937 -0.00105018 -3.74074e-19)
(0.00387812 -0.00118996 -1.05588e-18)
(0.0038655 -0.00132965 9.8255e-22)
(0.00385151 -0.00146921 -1.37702e-18)
(0.00383619 -0.00160863 -8.12454e-19)
(0.00381958 -0.00174789 -1.5455e-19)
(0.0038017 -0.001887 -1.51582e-18)
(0.00378261 -0.00202595 -2.24872e-18)
(0.00376237 -0.00216473 -2.98763e-18)
(0.00374104 -0.0023034 -3.39526e-18)
(0.00371869 -0.002442 -1.54451e-18)
(0.00369535 -0.00258062 1.79755e-20)
(0.00367106 -0.00271935 -1.15813e-18)
(0.00364576 -0.00285829 -2.76446e-18)
(0.00361941 -0.00299754 -4.73517e-18)
(0.00359194 -0.00313715 -4.57553e-18)
(0.0035604 -0.00328018 -6.4877e-18)
(0.00431482 -0.00263564 -8.80713e-18)
(0.00440435 0.00274619 6.61804e-18)
(0.00366518 0.00337487 6.10614e-19)
(0.00369948 0.00322826 -3.8755e-20)
(0.00372972 0.0030848 2.71741e-18)
(0.00375866 0.00294161 4.08077e-18)
(0.00378637 0.00279864 3.03569e-18)
(0.00381291 0.00265583 1.34202e-18)
(0.00383828 0.00251311 1.43442e-19)
(0.0038625 0.00237039 -9.03059e-19)
(0.00388554 0.00222761 -8.07832e-19)
(0.00390735 0.00208473 -8.25079e-19)
(0.00392789 0.0019417 -5.58229e-19)
(0.00394711 0.00179852 -4.6454e-19)
(0.00396496 0.00165518 -1.64875e-18)
(0.00398141 0.0015117 -1.45252e-18)
(0.00399643 0.00136809 -9.80457e-19)
(0.00400999 0.00122435 6.57606e-19)
(0.00402208 0.00108052 3.10782e-19)
(0.00403267 0.000936592 -8.852e-19)
(0.00404177 0.000792598 -9.24444e-19)
(0.00404935 0.000648539 -1.98277e-18)
(0.00405542 0.000504432 -1.81839e-18)
(0.00405998 0.000360294 -2.96636e-19)
(0.00406302 0.000216137 1.72877e-18)
(0.00406454 7.19721e-05 1.66142e-18)
(0.00406454 -7.22029e-05 -5.85411e-20)
(0.00406302 -0.000216375 -4.27843e-19)
(0.00405998 -0.000360528 1.18736e-18)
(0.00405543 -0.000504656 8.57542e-19)
(0.00404936 -0.000648754 9.11452e-19)
(0.00404178 -0.000792809 2.58391e-18)
(0.00403269 -0.000936805 1.37321e-18)
(0.0040221 -0.00108073 1.14032e-19)
(0.00401003 -0.00122456 -9.35571e-19)
(0.00399647 -0.00136829 -8.94154e-19)
(0.00398145 -0.00151189 -1.99723e-18)
(0.00396499 -0.00165536 -1.01707e-18)
(0.00394713 -0.00179868 1.19408e-19)
(0.0039279 -0.00194184 -1.58845e-18)
(0.00390735 -0.00208486 -2.70684e-18)
(0.00388552 -0.00222773 -2.35238e-18)
(0.00386246 -0.0023705 -2.54393e-18)
(0.00383822 -0.00251322 -3.42051e-18)
(0.00381283 -0.00265595 -2.30127e-18)
(0.00378628 -0.00279877 -2.83444e-18)
(0.00375856 -0.00294176 -3.7456e-18)
(0.0037296 -0.00308499 -3.22497e-18)
(0.00369934 -0.00322848 -3.17434e-18)
(0.00366502 -0.00337511 -4.7817e-18)
(0.00440417 -0.00274644 -3.56413e-18)
(0.0044949 0.00285694 1.2125e-17)
(0.00377035 0.00347033 6.77042e-19)
(0.0038074 0.0033201 6.26393e-19)
(0.0038404 0.00317275 3.94036e-18)
(0.00387194 0.0030256 5.42363e-18)
(0.00390208 0.0028786 3.00045e-18)
(0.00393086 0.00273172 4.93156e-19)
(0.00395831 0.00258489 -6.86819e-19)
(0.00398445 0.00243805 -1.69699e-18)
(0.00400925 0.00229116 -5.70735e-19)
(0.00403268 0.00214416 -2.55837e-23)
(0.00405472 0.00199703 1.29069e-18)
(0.00407531 0.00184976 4.20764e-20)
(0.00409442 0.00170233 -2.9328e-18)
(0.00411201 0.00155476 -2.14836e-18)
(0.00412807 0.00140706 -4.48156e-19)
(0.00414257 0.00125924 6.1811e-19)
(0.00415549 0.00111131 -1.78078e-20)
(0.00416682 0.000963291 -8.45275e-19)
(0.00417654 0.000815196 -7.30603e-19)
(0.00418466 0.000667039 -1.55992e-18)
(0.00419115 0.000518826 -1.6847e-18)
(0.00419602 0.000370577 4.7251e-19)
(0.00419927 0.000222308 1.70231e-18)
(0.00420089 7.40276e-05 7.65625e-19)
(0.00420089 -7.42611e-05 -7.24172e-20)
(0.00419927 -0.000222545 -3.25785e-20)
(0.00419602 -0.00037081 1.50715e-18)
(0.00419115 -0.00051905 1.6367e-18)
(0.00418466 -0.000667257 1.72228e-18)
(0.00417656 -0.000815416 2.4499e-18)
(0.00416685 -0.00096351 1.22565e-18)
(0.00415553 -0.00111153 6.00997e-19)
(0.00414262 -0.00125945 -5.4951e-19)
(0.00412812 -0.00140726 -8.84232e-19)
(0.00411206 -0.00155495 -1.17979e-18)
(0.00409445 -0.0017025 -1.21918e-18)
(0.00407532 -0.0018499 -1.18739e-18)
(0.00405472 -0.00199716 -2.91761e-18)
(0.00403268 -0.00214428 -3.38779e-18)
(0.00400923 -0.00229126 -1.88121e-18)