/*--------------------------------*- C++ -*----------------------------------*\
  =========                 |
  \\      /  F ield         | OpenFOAM: The Open Source CFD Toolbox
   \\    /   O peration     | Website:  https://openfoam.org
    \\  /    A nd           | Version:  7
     \\/     M anipulation  |
\*---------------------------------------------------------------------------*/
FoamFile
{
    version     2.0;
    format      ascii;
    class       volScalarField;
    location    "4000";
    object      omega;
}
// * * * * * * * * * * * * * * * * * * * * * * * * * * * * * * * * * * * * * //

dimensions      [0 0 -1 0 0 0 0];

internalField   nonuniform List<scalar> 
4825
(
0.0707247
0.0701167
0.0722109
0.0715888
0.0709842
0.0703972
0.0698358
0.0737414
0.0731044
0.0724857
0.0718853
0.0713106
0.0753187
0.0746662
0.0740325
0.0734179
0.0728295
0.0769458
0.0762765
0.0756269
0.0749974
0.0743947
0.0786251
0.0779384
0.0772722
0.076627
0.0760093
0.0803588
0.0796537
0.0789703
0.0783088
0.0776755
0.0821487
0.0814253
0.0807243
0.0800451
0.0793964
0.083998
0.0832556
0.082536
0.0818387
0.0811744
0.0859085
0.0851464
0.0844079
0.0836923
0.0830116
0.0878835
0.0871007
0.0863426
0.0856084
0.0849098
0.0899259
0.0891211
0.0883428
0.0875895
0.0868721
0.0920385
0.0912111
0.0904122
0.0896385
0.0888999
0.0942237
0.0933731
0.0925528
0.0917579
0.0964859
0.0956108
0.0947677
0.0939499
0.0988277
0.0979281
0.0970608
0.0962185
0.101254
0.100328
0.0994347
0.103769
0.102814
0.101893
0.106376
0.105393
0.109079
0.108067
0.111885
0.110842
0.114797
0.113722
0.117821
0.116713
0.120964
0.0525652
0.0521192
0.0516885
0.0512741
0.0508748
0.0504925
0.0501272
0.0497804
0.0494519
0.0491424
0.0488523
0.0485817
0.0483301
0.0480974
0.0478842
0.0476904
0.0475164
0.0473617
0.047227
0.0471106
0.0535599
0.053105
0.0526658
0.0522431
0.0518356
0.0514455
0.0510728
0.0507188
0.0503836
0.0500677
0.0497716
0.0494957
0.0492392
0.0490019
0.0487847
0.0485872
0.0484096
0.048252
0.0481148
0.0479962
0.0545791
0.0541149
0.0536667
0.0532357
0.05282
0.052422
0.0520417
0.0516806
0.0513386
0.0510161
0.0507141
0.0504328
0.0501713
0.0499292
0.0497078
0.0495065
0.0493253
0.0491647
0.0490249
0.0489041
0.055624
0.0551505
0.0546932
0.0542536
0.0538295
0.0534234
0.0530354
0.052667
0.0523181
0.0519889
0.0516808
0.0513937
0.0511272
0.0508803
0.0506544
0.0504491
0.0502643
0.0501004
0.049958
0.0498354
0.0566964
0.056213
0.0557464
0.0552979
0.0548653
0.0544509
0.0540551
0.0536792
0.0533233
0.0529873
0.0526726
0.0523796
0.0521079
0.0518561
0.0516254
0.0514161
0.0512276
0.0510602
0.0509152
0.0507909
0.0577974
0.0573039
0.0568273
0.0563698
0.0559286
0.0555056
0.0551018
0.0547183
0.0543551
0.0540123
0.0536907
0.0533919
0.0531146
0.0528575
0.052622
0.0524084
0.0522162
0.0520453
0.0518975
0.0517714
0.0589279
0.0584243
0.0579374
0.0574703
0.0570204
0.0565887
0.0561765
0.055785
0.0554144
0.0550646
0.0547363
0.0544315
0.0541483
0.053886
0.0536456
0.0534274
0.0532313
0.053057
0.0529064
0.0527776
0.0600891
0.0595755
0.0590777
0.0586009
0.0581417
0.057701
0.0572804
0.0568807
0.0565023
0.0561453
0.0558103
0.0554993
0.0552102
0.0549427
0.0546971
0.0544741
0.0542739
0.0540961
0.0539424
0.0538106
0.0537029
0.0536165
0.0535516
0.05351
0.05349
0.0534934
0.0535189
0.0535685
0.0536407
0.053735
0.0538516
0.053992
0.0541543
0.0543402
0.0545497
0.0612825
0.0607581
0.0602494
0.0597623
0.0592934
0.0588434
0.0584143
0.0580062
0.0576196
0.0572555
0.0569136
0.0565962
0.0563011
0.056028
0.0557775
0.0555496
0.0553451
0.0551636
0.0550064
0.0548713
0.0547596
0.054671
0.0546044
0.0545617
0.0545414
0.0545447
0.0545708
0.0546213
0.0546947
0.0547907
0.0549096
0.0550527
0.0552186
0.0554086
0.0556227
0.0558596
0.0561177
0.0625088
0.0619735
0.0614536
0.0609555
0.0604771
0.0600172
0.0595792
0.0591626
0.0587679
0.0583963
0.0580472
0.0577229
0.0574219
0.057143
0.0568872
0.0566546
0.0564457
0.0562602
0.0560992
0.0559605
0.0558447
0.0557533
0.0556848
0.0556411
0.0556204
0.0556236
0.0556502
0.0557014
0.0557763
0.055874
0.055995
0.0561409
0.0563106
0.0565046
0.0567234
0.0569656
0.0572291
0.0575175
0.0637692
0.0632228
0.0626917
0.0621823
0.0616936
0.0612237
0.0607763
0.0603509
0.0599479
0.0595688
0.0592122
0.0588807
0.0585735
0.0582887
0.0580278
0.0577902
0.0575765
0.0573869
0.057222
0.0570797
0.0569594
0.0568653
0.0567946
0.0567498
0.0567287
0.0567317
0.0567589
0.0568108
0.0568871
0.0569867
0.0571096
0.0572583
0.0574317
0.0576302
0.0578533
0.0581005
0.0583695
0.0586642
0.0589816
0.0593207
0.0650654
0.0645073
0.0639643
0.0634437
0.0629441
0.0624642
0.0620072
0.0615726
0.0611609
0.0607738
0.0604096
0.0600707
0.0597571
0.0594661
0.0591997
0.058957
0.0587388
0.0585447
0.0583761
0.0582297
0.0581053
0.0580082
0.0579355
0.0578892
0.0578679
0.0578708
0.0578984
0.0579511
0.0580287
0.0581301
0.0582552
0.0584068
0.0585838
0.0587866
0.0590142
0.0592663
0.0595407
0.0598411
0.0601658
0.0605125
0.0608833
0.0612745
0.0663988
0.0658282
0.0652734
0.0647407
0.0642303
0.0637397
0.0632725
0.0628289
0.0624083
0.0620125
0.0616405
0.0612941
0.060974
0.0606767
0.0604044
0.0601563
0.0599334
0.059735
0.0595622
0.059412
0.0592837
0.0591839
0.0591085
0.0590611
0.0590395
0.0590423
0.05907
0.0591238
0.0592027
0.059306
0.0594333
0.0595876
0.0597686
0.0599754
0.0602079
0.0604645
0.0607446
0.0610503
0.0613818
0.0617361
0.062115
0.0625148
0.0629407
0.0633909
0.0638604
0.0677708
0.067187
0.0666202
0.0660747
0.0655531
0.0650517
0.064574
0.0641212
0.0636913
0.0632866
0.0629064
0.0625525
0.0622252
0.0619215
0.061643
0.0613894
0.0611617
0.0609589
0.0607821
0.0606277
0.060496
0.0603932
0.0603155
0.0602665
0.0602449
0.0602476
0.0602754
0.0603302
0.0604103
0.0605156
0.0606453
0.0608024
0.0609873
0.0611985
0.0614354
0.0616972
0.0619827
0.0622939
0.0626323
0.062994
0.0633809
0.0637891
0.0642248
0.0646851
0.0651658
0.0656673
0.0661873
0.0691828
0.0685856
0.0680062
0.0674475
0.0669144
0.0664017
0.0659132
0.0654504
0.0650114
0.0645971
0.0642084
0.0638471
0.0635123
0.0632018
0.0629172
0.0626579
0.062425
0.0622178
0.0620367
0.0618781
0.0617434
0.0616377
0.0615577
0.0615072
0.0614851
0.0614877
0.0615159
0.0615717
0.0616526
0.06176
0.0618924
0.0620526
0.0622412
0.0624568
0.0626987
0.0629654
0.0632568
0.0635736
0.0639187
0.0642881
0.0646827
0.0650997
0.0655449
0.0660151
0.0665072
0.0670205
0.0675526
0.0681079
0.0686856
0.0692806
0.0706363
0.0700253
0.0694329
0.0688607
0.0683153
0.0677908
0.0672916
0.0668182
0.0663695
0.0659455
0.0655482
0.0651794
0.0648369
0.0645194
0.0642281
0.0639632
0.0637249
0.0635128
0.0633274
0.0631651
0.0630273
0.0629187
0.062836
0.062784
0.0627619
0.062764
0.0627926
0.0628496
0.0629312
0.0630412
0.0631762
0.0633395
0.0635318
0.0637521
0.0639987
0.0642705
0.0645679
0.064891
0.0652432
0.0656202
0.0660224
0.0664486
0.0669034
0.067384
0.0678876
0.068412
0.0689564
0.0695248
0.070116
0.0707253
0.072133
0.0715074
0.0709015
0.0703158
0.0697573
0.0692211
0.0687102
0.0682259
0.0677674
0.0673334
0.0669276
0.0665508
0.0662006
0.0658753
0.0655771
0.0653064
0.0650626
0.0648457
0.0646557
0.06449
0.0643491
0.0642378
0.0641524
0.0640988
0.0640763
0.0640783
0.0641073
0.0641654
0.064248
0.06436
0.0644976
0.0646648
0.0648604
0.0650855
0.065337
0.0656147
0.0659177
0.0662477
0.0666075
0.0669917
0.0674019
0.067838
0.0683026
0.0687938
0.0693087
0.069845
0.0704018
0.0709833
0.0715878
0.0722122
0.0736747
0.0730342
0.0724139
0.0718146
0.0712427
0.0706936
0.0701713
0.0696759
0.069207
0.0687627
0.0683476
0.0679626
0.0676044
0.0672711
0.0669663
0.066689
0.06644
0.0662177
0.0660232
0.0658541
0.0657103
0.065596
0.0655083
0.0654531
0.0654299
0.065432
0.0654613
0.0655202
0.0656042
0.0657183
0.0658588
0.0660295
0.0662287
0.0664589
0.0667151
0.0669989
0.0673083
0.0676452
0.0680125
0.0684049
0.0688234
0.069269
0.0697445
0.0702466
0.0707727
0.0713213
0.0718907
0.0724853
0.0731037
0.0737433
0.0752633
0.0746076
0.0739725
0.0733589
0.0727734
0.072211
0.0716761
0.0711697
0.0706897
0.0702347
0.0698106
0.0694165
0.0690506
0.0687091
0.0683974
0.0681132
0.0678584
0.0676305
0.0674314
0.0672589
0.0671123
0.0669949
0.066905
0.0668485
0.0668245
0.0668263
0.0668559
0.0669161
0.067001
0.0671175
0.0672609
0.0674355
0.0676386
0.0678734
0.0681349
0.0684253
0.0687408
0.0690847
0.0694601
0.0698613
0.0702885
0.0707437
0.071231
0.071744
0.0722822
0.0728429
0.0734259
0.0740334
0.0746662
0.0753214
0.0769008
0.0762289
0.0755785
0.0749502
0.0743505
0.073775
0.0732271
0.0727087
0.0722174
0.0717518
0.0713183
0.070915
0.0705404
0.0701909
0.0698716
0.0695806
0.0693201
0.0690864
0.0688825
0.0687062
0.0685571
0.0684362
0.0683445
0.0682865
0.0682618
0.0682628
0.0682929
0.0683541
0.0684406
0.0685593
0.068706
0.0688847
0.0690915
0.0693315
0.0695981
0.069895
0.0702169
0.0705682
0.0709519
0.0713623
0.0717993
0.0722644
0.0727634
0.0732879
0.0738386
0.0744121
0.0750091
0.0756307
0.0762782
0.0769495
0.0785895
0.077901
0.0772347
0.0765909
0.0759762
0.075387
0.0748262
0.0742953
0.073792
0.0733159
0.0728727
0.0724598
0.0720759
0.0717179
0.0713908
0.0710934
0.0708263
0.0705865
0.0703785
0.0701978
0.0700459
0.0699222
0.0698285
0.0697689
0.0697435
0.0697437
0.0697741
0.0698363
0.0699249
0.0700455
0.0701959
0.0703783
0.0705895
0.0708344
0.0711067
0.0714099
0.071739
0.0720979
0.0724904
0.0729102
0.0733568
0.0738329
0.0743445
0.0748809
0.0754446
0.0760315
0.0766428
0.0772791
0.0779414
0.0786294
0.0803316
0.0796253
0.0789426
0.0782827
0.0776527
0.0770493
0.0764756
0.0759312
0.0754163
0.074929
0.0744759
0.0740531
0.0736589
0.0732926
0.0729571
0.0726536
0.0723796
0.0721335
0.0719212
0.0717358
0.0715808
0.0714541
0.0713589
0.0712976
0.0712711
0.0712707
0.0713016
0.0713646
0.071455
0.0715784
0.0717325
0.0719181
0.0721338
0.072384
0.0726619
0.0729724
0.0733084
0.0736758
0.0740769
0.0745067
0.0749639
0.0754513
0.0759756
0.076525
0.0771023
0.0777026
0.0783293
0.0789808
0.0796585
0.0803632
0.0821287
0.0814049
0.0807053
0.0800278
0.0793826
0.0787646
0.0781769
0.0776193
0.0770916
0.0765926
0.0761292
0.0756963
0.0752918
0.0749172
0.0745732
0.0742626
0.0739815
0.0737292
0.0735122
0.0733223
0.0731637
0.0730345
0.0729376
0.0728744
0.0728466
0.0728455
0.0728774
0.0729408
0.0730331
0.0731601
0.0733174
0.0735069
0.073727
0.0739824
0.0742667
0.0745847
0.0749277
0.0753039
0.0757136
0.0761542
0.0766227
0.0771218
0.0776588
0.0782217
0.0788134
0.0794279
0.0800707
0.0807382
0.0814316
0.0821534
0.0839842
0.083242
0.0825244
0.0818293
0.0811685
0.0805347
0.0799324
0.0793618
0.0788205
0.0783097
0.0778352
0.0773918
0.0769772
0.076594
0.0762405
0.0759226
0.0756343
0.0753754
0.0751537
0.074959
0.0747975
0.0746649
0.0745666
0.0745015
0.0744721
0.0744707
0.0745037
0.0745673
0.0746613
0.074792
0.0749527
0.0751468
0.0753714
0.0756324
0.0759231
0.0762482
0.0765992
0.0769846
0.0774034
0.0778546
0.0783347
0.0788465
0.0793966
0.0799734
0.0805801
0.0812093
0.0818692
0.0825533
0.083263
0.084003
0.0858999
0.0851389
0.0844029
0.0836897
0.0830126
0.0823619
0.0817447
0.0811604
0.0806051
0.0800828
0.0795968
0.079142
0.0787176
0.0783246
0.0779621
0.0776362
0.0773403
0.0770751
0.0768482
0.076649
0.0764836
0.0763478
0.0762477
0.0761811
0.0761502
0.0761483
0.0761821
0.0762467
0.0763426
0.0764765
0.0766407
0.0768394
0.0770687
0.0773354
0.0776335
0.0779655
0.0783251
0.07872
0.0791486
0.0796103
0.0801025
0.0806273
0.0811913
0.0817832
0.082405
0.0830499
0.0837274
0.0844288
0.0851555
0.0859142
0.0878794
0.0870983
0.0863433
0.0856117
0.0849171
0.0842497
0.0836165
0.0830183
0.0824489
0.0819143
0.0814165
0.0809494
0.0805147
0.0801117
0.0797398
0.0794056
0.0791027
0.0788307
0.0785979
0.0783937
0.0782246
0.0780859
0.0779836
0.0779155
0.0778832
0.077881
0.0779159
0.0779812
0.0780794
0.078216
0.0783844
0.0785873
0.0788218
0.0790947
0.0793997
0.0797396
0.080108
0.0805122
0.0809515
0.0814236
0.0819286
0.0824675
0.0830453
0.0836529
0.0842906
0.0849521
0.0856473
0.0863666
0.0871116
0.0878899
0.0899256
0.0891232
0.0883485
0.0875983
0.0868856
0.086201
0.0855511
0.0849385
0.0843543
0.0838062
0.0832962
0.0828167
0.0823712
0.081958
0.0815769
0.0812336
0.080923
0.0806449
0.0804055
0.0801967
0.0800236
0.079881
0.0797773
0.0797074
0.0796736
0.079671
0.0797067
0.079773
0.0798739
0.080013
0.0801861
0.080393
0.0806336
0.0809126
0.081225
0.0815725
0.0819497
0.0823637
0.0828143
0.0832982
0.0838164
0.0843691
0.0849621
0.0855851
0.0862395
0.0869188
0.0876318
0.0883695
0.0891341
0.0899321
0.0920416
0.0912173
0.0904225
0.0896525
0.0889204
0.0882179
0.0875515
0.0869231
0.0863241
0.085762
0.085239
0.0847472
0.0842901
0.0838662
0.083476
0.0831234
0.082805
0.0825202
0.0822742
0.0820598
0.0818826
0.0817367
0.0816312
0.0815596
0.0815244
0.0815214
0.0815576
0.0816247
0.0817288
0.0818703
0.0820489
0.08226
0.0825059
0.0827919
0.083112
0.083467
0.083854
0.0842783
0.0847397
0.0852358
0.0857686
0.0863357
0.0869438
0.0875835
0.0882547
0.0889522
0.0896839
0.0904405
0.0912258
0.0920439
0.0942298
0.093383
0.0925673
0.0917771
0.0910247
0.0903036
0.0896207
0.0889754
0.0883616
0.0877845
0.0872478
0.086744
0.0862749
0.0858391
0.0854401
0.0850773
0.0847512
0.0844589
0.0842062
0.083986
0.0838053
0.0836558
0.0835477
0.0834741
0.0834377
0.083435
0.0834713
0.08354
0.0836466
0.0837914
0.0839747
0.0841904
0.0844425
0.0847356
0.0850638
0.0854269
0.0858228
0.0862581
0.0867317
0.0872405
0.0877875
0.0883696
0.0889935
0.0896505
0.0903401
0.0910561
0.0918074
0.0925837
0.0933894
0.0942293
0.0964947
0.0956243
0.0947866
0.0939752
0.0932018
0.0924624
0.0917614
0.0910986
0.090469
0.0898771
0.0893266
0.0888094
0.0883281
0.08788
0.0874715
0.087099
0.0867647
0.086465
0.0862047
0.0859791
0.0857941
0.0856411
0.0855307
0.0854548
0.0854174
0.085414
0.0854508
0.0855217
0.0856308
0.0857785
0.0859669
0.0861872
0.0864457
0.0867467
0.0870825
0.0874542
0.0878603
0.0883061
0.0887924
0.0893143
0.0898764
0.0904748
0.0911151
0.0917901
0.0924977
0.093234
0.0940048
0.0948016
0.095629
0.0964917
0.098839
0.0979452
0.0970844
0.0962511
0.0954553
0.0946968
0.093978
0.093297
0.0926508
0.0920434
0.0914779
0.0909467
0.090453
0.089993
0.0895736
0.0891916
0.0888482
0.0885416
0.0882735
0.0880418
0.0878521
0.0876961
0.0875824
0.0875049
0.0874667
0.0874626
0.0875003
0.0875732
0.087684
0.0878355
0.0880287
0.0882538
0.0885195
0.0888277
0.0891724
0.0895533
0.0899688
0.0904266
0.0909253
0.0914607
0.0920387
0.0926539
0.0933113
0.0940048
0.0947322
0.095489
0.0962797
0.0970977
0.0979484
0.0988337
0.101268
0.100348
0.0994639
0.0986078
0.0977898
0.0970113
0.0962739
0.0955743
0.0949098
0.0942869
0.0937063
0.0931602
0.0926531
0.0921805
0.0917507
0.0913587
0.0910061
0.0906914
0.0904152
0.090178
0.0899828
0.0898234
0.0897071
0.0896276
0.0895881
0.0895841
0.089622
0.0896969
0.0898104
0.0899659
0.0901636
0.0903942
0.0906673
0.0909822
0.091336
0.0917265
0.0921528
0.0926231
0.093134
0.0936841
0.094279
0.0949114
0.0955866
0.0962993
0.0970472
0.0978243
0.0986367
0.0994769
0.100351
0.10126
0.103785
0.102839
0.101929
0.101049
0.100208
0.09941
0.0986524
0.0979334
0.0972508
0.0966108
0.0960147
0.095453
0.0949322
0.0944473
0.0940058
0.0936042
0.093241
0.0929181
0.0926342
0.092391
0.0921897
0.0920274
0.0919085
0.0918266
0.0917861
0.0917813
0.0918207
0.0918972
0.0920133
0.0921724
0.0923752
0.0926112
0.0928927
0.0932148
0.0935777
0.0939787
0.094416
0.0948984
0.0954231
0.0959882
0.0965999
0.0972508
0.0979448
0.0986764
0.0994455
0.100245
0.10108
0.101942
0.10284
0.103774
0.106394
0.105421
0.104485
0.103581
0.102716
0.101897
0.101119
0.10038
0.099678
0.0990202
0.0984073
0.0978301
0.0972949
0.0967971
0.0963429
0.0959311
0.0955579
0.0952264
0.0949334
0.094684
0.0944772
0.0943117
0.0941905
0.0941056
0.0940636
0.094058
0.0940989
0.0941773
0.0942967
0.0944596
0.0946674
0.0949097
0.0951987
0.0955284
0.0959009
0.0963125
0.0967624
0.0972573
0.0977957
0.0983767
0.0990057
0.0996757
0.100389
0.101141
0.101932
0.102755
0.103612
0.104497
0.105421
0.106382
0.1091
0.1081
0.107136
0.106208
0.105318
0.104477
0.103676
0.102917
0.102196
0.101518
0.100888
0.100295
0.0997445
0.0992343
0.0987662
0.0983437
0.0979597
0.0976194
0.0973177
0.0970617
0.0968498
0.0966798
0.0965562
0.0964685
0.0964253
0.0964192
0.0964618
0.0965413
0.0966648
0.0968317
0.097044
0.0972933
0.0975896
0.0979282
0.0983097
0.0987334
0.099196
0.0997042
0.100257
0.100854
0.101502
0.10219
0.102925
0.103697
0.104511
0.105358
0.106239
0.107148
0.108098
0.109087
0.111909
0.11088
0.109886
0.108933
0.108019
0.107154
0.10633
0.10555
0.104808
0.10411
0.103462
0.102853
0.102286
0.101762
0.101281
0.100846
0.100452
0.100101
0.0997914
0.0995278
0.0993107
0.0991367
0.09901
0.0989201
0.0988756
0.0988692
0.0989127
0.0989944
0.0991211
0.099292
0.0995102
0.0997664
0.10007
0.100418
0.100809
0.101245
0.101721
0.102244
0.102811
0.103425
0.104091
0.104799
0.105557
0.10635
0.107187
0.108059
0.108965
0.1099
0.110876
0.111893
0.114825
0.113766
0.112742
0.111762
0.110823
0.109933
0.109086
0.108284
0.107519
0.1068
0.106134
0.105508
0.104924
0.104386
0.103892
0.103444
0.103039
0.102678
0.102359
0.102088
0.101866
0.101687
0.101557
0.101464
0.101418
0.101412
0.101456
0.101541
0.10167
0.101846
0.102071
0.102333
0.102644
0.103003
0.103404
0.103852
0.104342
0.104879
0.105462
0.106095
0.106779
0.107508
0.108288
0.109104
0.109965
0.110864
0.111795
0.112757
0.113761
0.114807
0.117855
0.116765
0.115709
0.114702
0.113736
0.11282
0.111948
0.111123
0.110335
0.109594
0.108909
0.108265
0.107664
0.107111
0.106604
0.106142
0.105725
0.105354
0.105026
0.104748
0.104519
0.104336
0.104202
0.104106
0.104058
0.104054
0.104099
0.104187
0.104318
0.104499
0.104729
0.104999
0.105318
0.105687
0.106099
0.106559
0.107065
0.107618
0.108216
0.108869
0.109572
0.110322
0.111126
0.111965
0.112851
0.113776
0.114734
0.115723
0.116757
0.117833
0.121005
0.119881
0.118793
0.117758
0.116763
0.115821
0.114921
0.114073
0.113262
0.112498
0.111792
0.111129
0.110513
0.109944
0.109422
0.108946
0.108516
0.108134
0.107798
0.107512
0.107277
0.107088
0.10695
0.106852
0.106801
0.106799
0.106845
0.106936
0.107069
0.107256
0.107492
0.10777
0.108097
0.108476
0.1089
0.109372
0.109895
0.110463
0.111079
0.111752
0.112474
0.113246
0.114075
0.114939
0.11585
0.116803
0.117788
0.118807
0.119871
0.120979
0.12428
0.123122
0.122
0.120936
0.119912
0.118941
0.118014
0.117142
0.116305
0.115518
0.11479
0.114108
0.113474
0.112889
0.112352
0.111862
0.111417
0.111025
0.110679
0.110386
0.110144
0.109948
0.109808
0.109705
0.109653
0.109653
0.109699
0.109793
0.10993
0.110121
0.110363
0.110649
0.110987
0.111377
0.111813
0.112298
0.112836
0.11342
0.114057
0.114749
0.115491
0.116288
0.117141
0.118031
0.11897
0.11995
0.120962
0.122012
0.123107
0.124248
0.127688
0.126493
0.125337
0.124243
0.123188
0.122187
0.121233
0.120334
0.119472
0.118661
0.117909
0.117207
0.116555
0.115952
0.1154
0.114895
0.114435
0.114031
0.113676
0.113376
0.113128
0.112924
0.11278
0.112674
0.11262
0.112621
0.112669
0.112765
0.112907
0.113102
0.11335
0.113645
0.113993
0.114394
0.114844
0.115342
0.115896
0.116498
0.117155
0.117868
0.118631
0.119453
0.120331
0.121247
0.122215
0.123225
0.124265
0.125346
0.126473
0.127646
0.131236
0.130002
0.128812
0.127686
0.126598
0.125566
0.124583
0.123658
0.122768
0.121932
0.121156
0.120433
0.119763
0.119141
0.118572
0.118051
0.117577
0.117159
0.116796
0.116489
0.116232
0.116022
0.115873
0.115764
0.115709
0.11571
0.115761
0.115859
0.116005
0.116204
0.116458
0.116763
0.117121
0.117534
0.117999
0.118511
0.119082
0.119703
0.12038
0.121115
0.1219
0.122748
0.123653
0.124596
0.125592
0.126633
0.127703
0.128815
0.129975
0.134932
0.133657
0.132431
0.131272
0.130151
0.129085
0.128073
0.12712
0.126202
0.125339
0.124538
0.123794
0.123103
0.122461
0.121876
0.121337
0.120848
0.120418
0.120045
0.11973
0.119465
0.119248
0.119093
0.118982
0.118927
0.118927
0.118981
0.119082
0.119231
0.119435
0.119695
0.12001
0.120379
0.120806
0.121284
0.121811
0.1224
0.12304
0.123739
0.124497
0.125305
0.12618
0.127112
0.128085
0.12911
0.130183
0.131282
0.132427
0.138784
0.137468
0.136204
0.13501
0.133854
0.132754
0.131711
0.130727
0.129781
0.128888
0.128063
0.127297
0.126584
0.125921
0.125318
0.124762
0.124257
0.123812
0.123431
0.123107
0.122834
0.12261
0.122449
0.122335
0.12228
0.122279
0.122335
0.122439
0.122593
0.122802
0.123068
0.123394
0.123774
0.124215
0.124707
0.12525
0.125858
0.126518
0.12724
0.128021
0.128855
0.129758
0.130719
0.13172
0.132778
0.13388
0.13501
0.1428
0.141442
0.14014
0.138909
0.137716
0.13658
0.135504
0.134489
0.133513
0.132591
0.131739
0.130949
0.130215
0.129529
0.128907
0.128332
0.12781
0.127352
0.126962
0.126628
0.126347
0.126115
0.125949
0.125832
0.125775
0.125775
0.125833
0.125941
0.1261
0.126312
0.126586
0.126921
0.127314
0.12777
0.128276
0.128835
0.129464
0.130146
0.130891
0.131696
0.132558
0.133489
0.134481
0.135512
0.136602
0.137734
0.146991
0.14559
0.144247
0.142978
0.141747
0.140574
0.139464
0.138415
0.137407
0.136455
0.135574
0.134761
0.134004
0.133294
0.132651
0.132058
0.131518
0.131046
0.130644
0.130301
0.13001
0.129771
0.1296
0.129481
0.129422
0.129422
0.129482
0.129594
0.129757
0.129976
0.130257
0.130602
0.131009
0.131479
0.132
0.132577
0.133227
0.133933
0.1347
0.135532
0.136421
0.137383
0.138406
0.13947
0.140593
0.151367
0.149921
0.148536
0.147227
0.145955
0.144744
0.143598
0.142515
0.141473
0.14049
0.139579
0.138741
0.137959
0.137226
0.13656
0.135946
0.13539
0.134903
0.13449
0.134137
0.133836
0.133589
0.133413
0.13329
0.13323
0.13323
0.133293
0.133409
0.133576
0.133802
0.13409
0.134446
0.134867
0.135352
0.135889
0.136483
0.137156
0.137886
0.138678
0.139537
0.140456
0.14145
0.142505
0.143603
0.144759
0.155939
0.154447
0.153018
0.151667
0.150351
0.1491
0.147918
0.146798
0.145721
0.144707
0.143765
0.142899
0.142091
0.141333
0.140645
0.140009
0.139435
0.138933
0.138507
0.138143
0.137832
0.137578
0.137395
0.13727
0.137208
0.137209
0.137273
0.137393
0.137566
0.137799
0.138096
0.138462
0.138898
0.139399
0.139951
0.140564
0.14126
0.142017
0.142836
0.143723
0.144673
0.145699
0.146789
0.147921
0.149114
0.160719
0.159177
0.157705
0.156308
0.154949
0.153656
0.152436
0.151276
0.150164
0.149117
0.14814
0.147246
0.146412
0.145628
0.144916
0.144255
0.143664
0.143145
0.142708
0.142331
0.142011
0.141749
0.141559
0.141432
0.141367
0.141369
0.141433
0.141559
0.141737
0.141979
0.142284
0.142662
0.143113
0.143629
0.1442
0.144831
0.145552
0.146336
0.147183
0.148099
0.14908
0.150141
0.151268
0.152436
0.153666
0.165721
0.164126
0.162607
0.161163
0.159759
0.158422
0.157161
0.155962
0.154812
0.15373
0.152719
0.151795
0.150932
0.15012
0.149384
0.148698
0.148089
0.147553
0.147101
0.146713
0.146383
0.146112
0.145915
0.145785
0.145717
0.145721
0.145786
0.145917
0.1461
0.146351
0.146667
0.147056
0.147522
0.148055
0.148643
0.149296
0.150041
0.150856
0.151731
0.152678
0.153693
0.15479
0.155953
0.157162
0.158429
0.170957
0.169308
0.16774
0.166246
0.164795
0.163413
0.162108
0.160867
0.159677
0.15856
0.157513
0.156557
0.155665
0.154823
0.154061
0.15335
0.152722
0.152168
0.151701
0.151301
0.150959
0.15068
0.150477
0.150341
0.150272
0.150276
0.150344
0.150479
0.150668
0.15093
0.151256
0.151658
0.152139
0.152688
0.153296
0.153972
0.154742
0.155587
0.156492
0.157473
0.158523
0.159657
0.160859
0.162108
0.163414
0.176443
0.174737
0.173117
0.17157
0.170072
0.168642
0.167292
0.166006
0.164773
0.163619
0.162537
0.161546
0.160621
0.159751
0.15896
0.158224
0.157575
0.157003
0.15652
0.156109
0.155754
0.155466
0.155255
0.155114
0.155043
0.155047
0.155118
0.155258
0.155455
0.155726
0.156065
0.15648
0.156978
0.157543
0.158172
0.158869
0.159667
0.160543
0.161482
0.162498
0.163584
0.164757
0.165998
0.167291
0.168635
0.182194
0.180429
0.178754
0.177153
0.175604
0.174123
0.172725
0.171394
0.170116
0.168924
0.167804
0.166778
0.165819
0.164918
0.164095
0.163335
0.162662
0.162073
0.161572
0.16115
0.16078
0.160483
0.160265
0.160119
0.160045
0.160048
0.160122
0.160267
0.160472
0.160754
0.161108
0.161537
0.162051
0.162634
0.163283
0.164005
0.164833
0.165739
0.166713
0.167766
0.16889
0.170103
0.171386
0.172725
0.188227
0.186401
0.184668
0.18301
0.181407
0.179874
0.178425
0.177045
0.175722
0.174489
0.173329
0.172267
0.171273
0.170338
0.169483
0.168697
0.168
0.16739
0.166874
0.166437
0.166054
0.165748
0.165521
0.16537
0.165293
0.165295
0.165372
0.165523
0.165736
0.166031
0.1664
0.166842
0.167372
0.167974
0.168645
0.169394
0.170251
0.171191
0.172202
0.173292
0.174456
0.175711
0.177041
0.178427
0.194559
0.192671
0.190877
0.189158
0.187499
0.18591
0.184408
0.182977
0.181607
0.18033
0.179131
0.178031
0.176997
0.176029
0.175139
0.174326
0.173604
0.172974
0.172441
0.171988
0.171592
0.171275
0.171039
0.170883
0.170804
0.170804
0.170884
0.171042
0.171262
0.171572
0.171958
0.172414
0.172959
0.173581
0.174276
0.175054
0.17594
0.176915
0.177966
0.179095
0.180301
0.181601
0.182979
0.184414
0.201211
0.199256
0.1974
0.195619
0.193899
0.192252
0.190694
0.189209
0.187791
0.186468
0.185228
0.184085
0.183011
0.182009
0.17829
0.177819
0.17741
0.177083
0.176836
0.176677
0.176592
0.176592
0.176675
0.176841
0.177069
0.177394
0.177796
0.178267
0.178829
0.179471
0.180193
0.181002
0.181918
0.182929
0.184021
0.185191
0.186443
0.18779
0.189219
0.190704
0.186416
0.187258
0.188204
0.189254
0.190389
0.191603
0.1929
0.194297
0.19578
0.197317
0.201145
0.202684
0.204277
0.0525699
0.0535653
0.0545848
0.05563
0.0567022
0.0578025
0.0589325
0.0600933
0.0612858
0.0625117
0.0637723
0.0650687
0.066402
0.0677737
0.0691854
0.0706389
0.072136
0.0736778
0.0752668
0.0769044
0.0785929
0.0803343
0.0821319
0.0839872
0.0859036
0.0878831
0.0899287
0.0920435
0.0942318
0.0964959
0.0988405
0.101269
0.103785
0.106393
0.1091
0.111908
0.114824
0.117853
0.121
0.124274
0.12768
0.131227
0.134921
0.138773
0.14279
0.146983
0.151361
0.155936
0.160718
0.165719
0.170956
0.176441
0.18219
0.188222
0.194554
0.201204
0.0531194
0.0541311
0.0551675
0.0562302
0.0573202
0.0584389
0.0595873
0.0607672
0.06198
0.0632269
0.0645093
0.0658288
0.0671867
0.0685841
0.0700229
0.0715049
0.0730312
0.0746036
0.0762246
0.0778962
0.0796207
0.0813997
0.0832363
0.0851331
0.0870929
0.0891184
0.0912127
0.0933791
0.095621
0.0979416
0.100346
0.102837
0.105419
0.108097
0.110877
0.113762
0.116759
0.119874
0.123114
0.126486
0.129996
0.133654
0.137465
0.14144
0.145588
0.149919
0.154444
0.159176
0.164126
0.169308
0.174736
0.180425
0.186392
0.192656
0.199236
0.0579651
0.0591026
0.0602705
0.0614705
0.0627043
0.0639736
0.0652794
0.0666234
0.0680068
0.069431
0.0708982
0.0724099
0.0739674
0.0755732
0.0772286
0.0789365
0.0806984
0.0825174
0.0843959
0.0863367
0.0883425
0.0904158
0.0925606
0.0947802
0.0970782
0.0994586
0.101926
0.104483
0.107136
0.10989
0.112748
0.115717
0.118802
0.12201
0.125348
0.128823
0.132443
0.136215
0.140148
0.144253
0.148539
0.153016
0.157697
0.162594
0.167721
0.173091
0.178722
0.184628
0.190827
0.197339
0.0575049
0.0586321
0.0597892
0.0609781
0.0622002
0.063457
0.0647505
0.0660819
0.0674524
0.0688635
0.0703168
0.0718139
0.0733566
0.0749472
0.0765875
0.0782798
0.0800263
0.0818292
0.0836906
0.0856132
0.0875998
0.0896535
0.0917779
0.0939766
0.0962524
0.0986098
0.101053
0.103585
0.106211
0.108936
0.111765
0.114704
0.117758
0.120933
0.124237
0.127676
0.131259
0.134994
0.138887
0.142951
0.147193
0.151626
0.156261
0.16111
0.166188
0.171507
0.177083
0.182933
0.189074
0.195524
0.057062
0.0581799
0.0593269
0.0605046
0.0617154
0.0629608
0.064242
0.0655608
0.0669182
0.0683162
0.0697564
0.0712398
0.0727683
0.0743443
0.0759697
0.0776465
0.0793768
0.0811625
0.0830065
0.0849116
0.0868799
0.0889151
0.0910205
0.0931992
0.0954551
0.0977908
0.100211
0.10272
0.105322
0.108021
0.110824
0.113735
0.11676
0.119906
0.123179
0.126586
0.130135
0.133834
0.137692
0.141717
0.145921
0.150314
0.154906
0.15971
0.16474
0.170008
0.175531
0.181326
0.18741
0.193801
0.0577463
0.0588842
0.0600524
0.0612526
0.0624868
0.063757
0.0650641
0.0664097
0.0677956
0.0692229
0.0706937
0.0722092
0.0737711
0.0753821
0.0770441
0.0787587
0.0805289
0.0823572
0.0842454
0.0861963
0.0882137
0.0903005
0.0924592
0.0946942
0.097009
0.0994068
0.101892
0.104469
0.107143
0.10992
0.112805
0.115802
0.11892
0.122163
0.12554
0.129058
0.132724
0.136548
0.140538
0.144703
0.149057
0.153608
0.15837
0.163355
0.168577
0.174052
0.179795
0.185826
0.192161
0.057331
0.0584599
0.0596187
0.0608095
0.0620337
0.0632934
0.0645897
0.0659241
0.067298
0.0687135
0.0701716
0.0716747
0.0732238
0.074821
0.0764683
0.0781683
0.0799234
0.081736
0.0836087
0.0855433
0.0875431
0.089611
0.0917511
0.0939658
0.0962596
0.0986365
0.1011
0.103655
0.106307
0.109059
0.111919
0.114891
0.117982
0.121197
0.124543
0.128029
0.131664
0.135454
0.13941
0.143539
0.147854
0.152365
0.157085
0.162027
0.167203
0.172631
0.178327
0.184307
0.190589
0.056934
0.0580546
0.0592047
0.0603864
0.0616011
0.0628505
0.0641363
0.0654601
0.0668235
0.0682275
0.0696738
0.0711644
0.0727012
0.0742858
0.0759205
0.0776069
0.0793472
0.0811446
0.0830015
0.08492
0.086903
0.0889543
0.0910772
0.0932741
0.0955488
0.0979062
0.100349
0.102883
0.105512
0.108241
0.111076
0.114023
0.117087
0.120275
0.123593
0.12705
0.130653
0.134411
0.138334
0.142429
0.146708
0.151183
0.155864
0.160765
0.1659
0.171284
0.176934
0.182867
0.1891
0.0565572
0.0576701
0.058812
0.0599852
0.0611912
0.0624316
0.0637079
0.0650215
0.0663743
0.0677678
0.0692033
0.0706828
0.0722079
0.0737806
0.0754022
0.0770756
0.078803
0.0805869
0.0824291
0.0843326
0.0863001
0.0883349
0.0904408
0.0926203
0.0948781
0.0972169
0.0996409
0.102154
0.104763
0.107472
0.110287
0.113211
0.116252
0.119415
0.122708
0.126138
0.129713
0.133441
0.137333
0.141397
0.145643
0.150081
0.154726
0.15959
0.164687
0.17003
0.175636
0.181522
0.187706
0.0562008
0.0573063
0.0584405
0.0596053
0.0608029
0.0620349
0.0633028
0.0646079
0.0659514
0.0673352
0.0687609
0.07023
0.0717439
0.0733045
0.0749143
0.0765755
0.0782898
0.0800595
0.0818873
0.0837766
0.08573
0.0877504
0.0898405
0.0920037
0.0942438
0.0965653
0.0989714
0.101467
0.104058
0.106747
0.109541
0.112444
0.115462
0.118602
0.121872
0.125277
0.128828
0.132529
0.136392
0.140425
0.144639
0.149044
0.153653
0.158479
0.163536
0.168837
0.1744
0.180242
0.186378
0.0558657
0.0569643
0.0580916
0.0592493
0.0604392
0.0616633
0.0629227
0.0642192
0.0655541
0.0669284
0.0683444
0.0698031
0.0713063
0.0728559
0.0744538
0.0761028
0.0778051
0.0795623
0.0813771
0.0832528
0.0851921
0.0871981
0.0892731
0.0914213
0.0936453
0.09595
0.0983392
0.100817
0.103389
0.106059
0.108833
0.111716
0.114714
0.117833