/*--------------------------------*- C++ -*----------------------------------*\
  =========                 |
  \\      /  F ield         | OpenFOAM: The Open Source CFD Toolbox
   \\    /   O peration     | Website:  https://openfoam.org
    \\  /    A nd           | Version:  7
     \\/     M anipulation  |
\*---------------------------------------------------------------------------*/
FoamFile
{
    version     2.0;
    format      ascii;
    class       surfaceScalarField;
    location    "128000";
    object      phi;
}
// * * * * * * * * * * * * * * * * * * * * * * * * * * * * * * * * * * * * * //

dimensions      [0 3 -1 0 0 0 0];

internalField   nonuniform List<scalar> 
9540
(
-7.93707e-23
4.66992e-24
5.09031e-23
1.63012e-23
-7.44753e-23
1.08474e-23
6.57836e-23
-5.69205e-23
3.48516e-23
1.06947e-23
-7.17478e-23
-1.86809e-24
4.7399e-23
-6.51371e-23
2.43954e-23
-6.84657e-23
1.50544e-23
-5.04159e-23
4.95253e-23
1.22809e-23
-6.31299e-23
1.30992e-23
4.84343e-23
-6.44145e-23
2.56505e-23
-6.23298e-23
7.71112e-24
-6.87556e-23
4.61807e-23
-4.04665e-23
6.29244e-23
4.05579e-23
-6.12544e-23
2.36281e-23
4.71939e-23
-6.79714e-23
2.90284e-23
-5.18557e-23
2.36044e-23
-6.62809e-23
5.72239e-23
-3.56941e-23
7.17659e-23
-4.47747e-23
4.70675e-23
1.07596e-22
-6.70777e-23
-4.28518e-23
4.44914e-23
-6.59177e-23
2.16899e-23
-5.31814e-23
4.97324e-23
-5.42512e-23
3.45734e-23
-4.79138e-23
6.42478e-23
-2.97368e-23
6.55105e-23
-3.98854e-23
8.20717e-23
-5.02484e-23
1.01601e-22
5.01912e-23
-5.92022e-23
-1.26746e-23
5.79681e-23
-5.39995e-23
6.55232e-24
-6.09671e-23
5.91593e-23
-4.88892e-23
6.04679e-23
-4.21159e-23
5.79244e-23
-2.69856e-23
8.88792e-23
-3.34335e-23
6.61126e-23
-6.71856e-23
4.11451e-23
-7.67876e-23
5.18418e-23
6.4354e-23
-4.46058e-23
-2.69808e-24
6.2138e-23
-4.72919e-23
4.12744e-23
-5.73657e-23
2.77767e-23
-4.95232e-23
5.10961e-23
-3.40898e-23
8.11367e-23
-3.10028e-23
7.90856e-23
-4.47253e-23
7.40416e-23
-6.48056e-23
5.50627e-23
-6.82077e-23
5.22097e-23
-5.44968e-23
5.03833e-23
-7.40515e-23
2.58614e-23
-6.44347e-23
4.21309e-23
-5.76962e-23
2.5545e-23
1.11488e-24
-3.46196e-23
4.91406e-23
5.94592e-23
-5.18089e-23
1.37171e-23
-4.95096e-23
2.16697e-23
-5.1218e-23
1.78255e-23
-3.34557e-23
6.52342e-23
-3.37818e-23
7.4932e-23
-5.44275e-23
9.20382e-23
-6.27607e-23
5.50044e-23
-7.22792e-23
2.16961e-23
-5.98865e-23
3.31053e-23
-6.23343e-23
2.09843e-23
-7.20607e-23
1.41282e-23
-5.9832e-23
5.53081e-23
-6.95606e-23
5.54931e-23
-9.20252e-23
6.40057e-23
-9.4623e-23
4.434e-23
-9.4097e-23
6.4077e-23
7.54138e-23
-3.65744e-23
3.68164e-23
4.94094e-23
-4.8507e-23
2.85505e-23
-5.10653e-23
1.70646e-23
-4.26053e-23
4.15483e-23
-3.16866e-23
5.57642e-23
-3.12388e-23
7.2547e-23
-5.9895e-23
2.98676e-23
-6.32013e-23
5.0604e-23
-7.08368e-23
2.55131e-23
-6.6409e-23
2.56689e-23
-6.72038e-23
1.34414e-23
-6.75477e-23
1.19423e-23
-5.64127e-23
4.87761e-23
-6.62742e-23
3.51485e-23
-8.60646e-23
6.40993e-23
-8.96638e-23
5.01887e-23
-9.37821e-23
6.5092e-23
-7.97936e-23
5.76254e-23
-5.69911e-23
2.04962e-23
-3.79451e-25
-4.09905e-23
3.61284e-23
4.50939e-23
-4.65521e-23
3.72772e-23
-4.53883e-23
1.61005e-23
-4.24479e-23
4.58861e-23
-2.6238e-23
7.86879e-23
-4.58442e-23
4.8488e-23
-5.69806e-23
-7.18396e-24
-6.58759e-23
1.66251e-23
-7.02671e-23
2.27947e-23
-6.43409e-23
1.36533e-23
-6.6656e-23
1.00999e-23
-5.36162e-23
-3.18413e-24
-5.88677e-23
1.23396e-23
-6.21642e-23
8.37391e-24
-8.39211e-23
5.13176e-23
-8.38031e-23
4.71725e-23
-9.92874e-23
7.541e-23
-8.41479e-23
4.05825e-23
-6.37946e-23
-7.8601e-24
-8.24123e-23
9.94519e-24
-7.16674e-23
3.15552e-23
-7.1276e-23
1.27439e-23
-8.70843e-23
-2.01883e-23
-6.62648e-23
-4.18398e-23
3.67961e-23
4.16896e-23
-4.93538e-23
5.1721e-23
-4.76761e-23
2.35105e-23
-3.72963e-23
4.42853e-23
-2.92269e-23
5.96386e-23
-5.11367e-23
4.97427e-23
-5.08312e-23
-1.40266e-23
-6.32463e-23
1.31006e-23
-7.49809e-23
3.08779e-23
-6.79279e-23
7.12577e-24
-7.4002e-23
-2.67453e-23
-5.09269e-23
1.38851e-23
-6.12593e-23
3.08068e-23
-5.78257e-23
6.13298e-24
-8.43873e-23
7.60002e-23
-7.98615e-23
4.12127e-23
-1.03804e-22
1.58487e-23
-9.04399e-23
2.20428e-23
-6.18981e-23
3.03074e-23
-7.32184e-23
9.13455e-23
-7.67364e-23
4.47686e-23
-7.53045e-23
1.82453e-23
-9.512e-23
-7.82916e-25
-6.13687e-23
-1.18726e-23
-9.50239e-23
1.03915e-23
-1.67853e-22
5.76255e-23
-1.70632e-22
3.37215e-23
-1.10365e-22
3.41704e-23
-2.17428e-25
-3.40163e-23
2.2276e-23
4.59703e-23
-4.98588e-23
7.54396e-23
-4.13592e-23
5.5374e-23
-4.02319e-23
5.47202e-23
-3.54934e-23
7.34455e-23
-5.91506e-23
6.65972e-23
-4.99974e-23
6.06205e-23
-6.34576e-23
1.09518e-23
-7.40812e-23
1.57577e-24
-7.79859e-23
1.35949e-23
-6.5859e-23
5.62976e-24
-5.03161e-23
-5.55833e-24
-6.74162e-23
1.15615e-23
-4.27169e-23
1.94954e-23
-8.97413e-23
2.58141e-23
-7.94218e-23
1.17004e-22
-1.06704e-22
3.25349e-23
-8.84317e-23
9.52838e-23
-4.73246e-23
7.1319e-23
-7.86229e-23
4.07242e-23
-8.07996e-23
4.65002e-23
-7.41649e-23
8.78462e-23
-9.33611e-23
2.06724e-23
-5.56635e-23
4.40917e-23
-8.55348e-23
4.20131e-23
-1.69949e-22
-2.01445e-23
-1.6959e-22
3.68143e-23
-1.1679e-22
7.88063e-23
-1.47653e-22
3.99695e-23
-1.74653e-22
3.21346e-23
-1.75294e-22
2.05509e-23
-6.03662e-23
-2.57751e-23
9.29248e-23
4.71298e-23
-4.99181e-23
9.088e-24
-4.07177e-23
5.36533e-23
-3.18104e-23
9.48798e-23
-3.82603e-23
6.86193e-23
-6.16099e-23
4.41072e-23
-5.24323e-23
1.06474e-23
-6.19457e-23
1.44788e-23
-7.84707e-23
-1.21987e-23
-7.22364e-23
1.2717e-23
-6.62252e-23
2.63993e-24
-5.21259e-23
-1.59364e-23
-6.07632e-23
1.8454e-23
-3.95225e-23
3.48723e-23
-7.71921e-23
-2.83746e-23
-9.17179e-23
3.49244e-23
-9.43839e-23
2.37051e-23
-8.82212e-23
8.5662e-23
-5.18363e-23
1.21358e-22
-7.90364e-23
6.51108e-23
-7.31041e-23
5.48908e-23
-8.70017e-23
1.28624e-22
-8.55297e-23
2.18731e-23
-5.28121e-23
3.45291e-23
-9.35076e-23
2.48322e-24
-1.5685e-22
5.22331e-23
-1.65304e-22
4.22542e-23
-1.19686e-22
1.19012e-22
-1.50368e-22
7.51393e-23
-1.73751e-22
5.60909e-23
-1.97753e-22
3.3108e-23
-2.23536e-22
5.50952e-23
-2.84741e-22
-2.18208e-22
-3.14599e-22
-3.6796e-23
9.24712e-23
4.16905e-23
-4.53106e-23
5.11364e-23
-3.93616e-23
5.95262e-23
-3.42557e-23
9.66562e-23
-4.09915e-23
3.31135e-23
-6.20596e-23
1.17359e-23
-5.04664e-23
2.80441e-23
-6.78922e-23
-9.73975e-24
-7.54524e-23
-1.51495e-24
-7.07446e-23
1.59912e-23
-6.85841e-23
4.45599e-23
-4.41378e-23
5.1717e-23
-5.6475e-23
2.76241e-23
-5.12221e-23
2.39442e-23
-6.76608e-23
-2.49619e-23
-8.99018e-23
4.98712e-23
-8.9227e-23
1.80311e-23
-8.02836e-23
7.63028e-23
-6.93775e-23
8.24879e-23
-7.52442e-23
5.75187e-23
-5.83305e-23
4.40035e-23
-1.0341e-22
1.63759e-23
-7.95273e-23
8.80773e-23
-6.04947e-23
3.97278e-23
-8.10301e-23
3.74316e-23
-1.59203e-22
4.57586e-23
-1.50924e-22
3.7561e-23
-1.25368e-22
1.73745e-22
-1.51558e-22
1.10895e-22
-1.77448e-22
8.8847e-23
-1.95181e-22
4.9484e-23
-2.68995e-22
1.18647e-22
-3.53836e-22
-8.92525e-23
-2.95887e-22
-3.74986e-23
9.28822e-23
3.95874e-23
-4.40043e-23
2.91324e-23
-3.64948e-23
5.4835e-23
-4.07055e-23
8.75874e-23
-4.66183e-23
3.6402e-23
-6.63179e-23
2.14191e-23
-6.24853e-23
2.13146e-23
-6.90322e-23
-6.89417e-24
-7.42302e-23
-3.04029e-23
-6.72428e-23
1.02824e-23
-6.45673e-23
4.51067e-23
-4.63017e-23
5.67763e-23
-5.7971e-23
3.27749e-23
-5.94787e-23
1.95953e-23
-6.16931e-23
-3.09007e-23
-9.21427e-23
-2.14034e-23
-8.0108e-23
-2.29339e-24
-7.79464e-23
-1.98916e-23
-7.11939e-23
-1.36028e-23
-7.30146e-23
5.94994e-23
-6.57579e-23
4.96602e-23
-8.78238e-23
5.15308e-23
-8.82845e-23
1.68868e-23
-5.65312e-23
3.30031e-23
-7.41756e-23
6.0881e-23
-1.64335e-22
-3.40516e-23
-1.25865e-22
8.24131e-23
-1.35327e-22
1.06457e-22
-1.49887e-22
1.34508e-22
-1.8681e-22
6.45776e-23
-1.88032e-22
1.51005e-22
-3.05078e-22
1.13356e-22
-4.60685e-22
4.89265e-23
-1.24574e-22
-4.68784e-23
1.0216e-22
3.67874e-23
-4.76059e-23
3.44098e-23
-3.2097e-23
3.64968e-23
-4.96779e-23
7.19155e-23
-5.23866e-23
-6.87094e-25
-6.1277e-23
1.71005e-23
-6.14903e-23
1.52591e-23
-6.84323e-23
2.45243e-24
-6.87995e-23
1.34449e-23
-5.85288e-23
6.13501e-24
-6.06137e-23
1.25068e-23
-4.7232e-23
2.3219e-23
-5.99771e-23
2.84432e-24
-6.00108e-23
1.85993e-23
-6.20023e-23
-3.66368e-23
-8.37539e-23
-5.78308e-24
-8.55034e-23
1.16617e-25
-7.7216e-23
-2.241e-23
-5.99006e-23
3.80818e-24
-7.37758e-23
7.0936e-23
-6.31113e-23
3.38656e-23
-8.93485e-23
-5.65777e-24
-8.94576e-23
8.87961e-23
-4.71108e-23
9.44552e-23
-8.72223e-23
2.93847e-23
-1.44576e-22
1.71204e-23
-1.23169e-22
1.53912e-22
-1.26922e-22
1.21603e-22
-1.6034e-22
9.44683e-23
-1.72903e-22
8.38924e-23
-1.98676e-22
1.74801e-22
-3.12506e-22
1.68058e-22
-5.07243e-22
2.63965e-22
5.50513e-22
-4.81065e-23
7.93584e-23
3.34002e-23
-4.71983e-23
3.73243e-23
-3.20763e-23
5.82065e-23
-5.32902e-23
5.65029e-23
-5.03162e-23
-4.55274e-24
-6.23534e-23
1.81484e-23
-6.00416e-23
9.88459e-24
-6.40407e-23
1.35248e-23
-7.45985e-23
2.67344e-23
-5.76488e-23
-9.79059e-24
-5.69521e-23
5.77441e-23
-4.986e-23
1.68019e-23
-5.86648e-23
7.80578e-24
-6.22742e-23
2.34423e-23
-6.26967e-23
-3.63867e-23
-7.59902e-23
3.02973e-24
-8.69483e-23
1.13568e-23
-7.27698e-23
6.27024e-23
-4.734e-23
8.64239e-23
-7.58516e-23
1.00823e-22
-6.94645e-23
2.54816e-23
-7.56329e-23
-5.98401e-24
-8.61254e-23
-7.24567e-25
-5.27858e-23
1.66398e-22
-8.63522e-23
7.1124e-23
-1.25284e-22
6.30234e-23
-1.28044e-22
1.76752e-22
-1.25681e-22
1.23425e-22
-1.60704e-22
1.34594e-22
-1.58479e-22
1.75267e-22
-1.98171e-22
2.14099e-22
-2.90302e-22
2.46328e-22
-4.74538e-22
4.20413e-22
7.54925e-22
-5.47839e-23
6.15063e-23
2.66495e-23
-4.38967e-23
6.94044e-23
-3.56367e-23
5.72445e-23
-6.38791e-23
-4.91651e-24
-4.98279e-23
1.93071e-23
-6.59311e-23
-6.95822e-24
-5.80723e-23
4.92732e-24
-6.7819e-23
2.91118e-23
-7.49563e-23
3.92773e-23
-5.37166e-23
6.11173e-23
-5.8604e-23
1.02678e-22
-5.56603e-23
-2.19826e-23
-5.68761e-23
8.08815e-24
-6.60805e-23
2.33766e-23
-5.47684e-23
3.2788e-23
-8.05289e-23
2.63897e-23
-7.7685e-23
1.33497e-23
-6.65688e-23
7.2911e-23
-4.09602e-23
7.00718e-23
-8.66056e-23
4.79909e-23
-6.95393e-23
9.77449e-23
-7.51731e-23
-5.57479e-25
-6.12482e-23
8.23196e-23
-6.66199e-23
8.69226e-23
-8.07853e-23
8.79299e-23
-1.12732e-22
3.217e-23
-1.3266e-22
6.81824e-23
-1.25178e-22
1.2496e-22
-1.51466e-22
1.61401e-22
-1.53703e-22
1.79715e-22
-1.86549e-22
2.51341e-22
-2.61333e-22
3.12912e-22
-3.71492e-22
5.04328e-22
7.95138e-22
-5.06564e-23
3.65042e-23
3.00455e-23
-5.03435e-23
7.1859e-23
-4.80054e-23
6.12672e-23
-5.98911e-23
9.15837e-24
-4.94784e-23
1.02484e-23
-6.46746e-23
1.14384e-23
-5.51166e-23
3.83341e-23
-6.72003e-23
8.347e-23
-6.88677e-23
8.72e-23
-5.20325e-23
9.28036e-23
-7.58502e-23
1.33765e-22
-5.30814e-23
3.22212e-24
-5.45035e-23
5.08912e-24
-6.179e-23
2.07792e-23
-5.60974e-23
2.36899e-23
-7.80044e-23
4.57186e-23
-6.88254e-23
1.00482e-22
-6.68522e-23
1.20239e-22
-4.44421e-23
1.36281e-22
-7.99024e-23
7.66898e-23
-8.02105e-23
9.3827e-23
-6.17419e-23
7.55651e-23
-6.09913e-23
8.41425e-23
-6.18234e-23
1.00283e-22
-8.51075e-23
8.36032e-23
-1.11844e-22
7.01458e-23
-1.20354e-22
1.05084e-22
-1.19884e-22
1.35965e-22
-1.489e-22
1.61906e-22
-1.42982e-22
2.67811e-22
-1.72611e-22
2.86527e-22
-2.35458e-22
3.69641e-22
-2.85225e-22
6.37461e-22
7.90499e-22
-4.57788e-23
3.02813e-23
3.5064e-23
-4.9384e-23
7.74005e-23
-5.21399e-23
5.45974e-23
-5.91424e-23
1.70894e-23
-5.14258e-23
7.30763e-24
-5.81431e-23
-1.47073e-23
-4.81947e-23
2.93849e-23
-6.01015e-23
6.04262e-23
-6.76995e-23
9.95336e-23
-3.79333e-23
1.12488e-22
-8.94417e-23
5.29118e-23
-5.04008e-23
6.62989e-23
-5.23671e-23
4.67158e-23
-6.02622e-23
3.26643e-23
-5.11786e-23
6.8701e-24
-6.74419e-23
5.29477e-23
-6.67148e-23
9.79268e-23
-6.32883e-23
1.13293e-22
-5.01835e-23
1.21687e-22
-7.62852e-23
7.59744e-23
-7.82996e-23
9.39099e-23
-6.19272e-23
6.32716e-23
-5.95787e-23
8.75848e-23
-6.01816e-23
1.02094e-22
-8.53778e-23
1.10378e-22
-1.08935e-22
1.02951e-22
-1.14115e-22
1.16471e-22
-1.13213e-22
1.41545e-22
-1.3442e-22
1.88254e-22
-1.37288e-22
2.73513e-22
-1.58681e-22
3.0842e-22
-2.02958e-22
4.08586e-22
-2.39151e-22
6.4631e-22
6.86805e-22
-4.65105e-23
3.14915e-23
2.823e-23
-5.34133e-23
4.7977e-23
-4.87688e-23
1.85768e-23
-5.52719e-23
6.65051e-23
-5.24245e-23
4.45631e-23
-5.30428e-23
2.2758e-23
-4.55678e-23
2.16472e-23
-5.66465e-23
7.5349e-23
-6.16722e-23
1.07741e-22
-5.10915e-23
1.10971e-22
-8.32566e-23
1.20791e-23
-5.63335e-23
8.47575e-23
-4.91604e-23
8.96582e-23
-6.55013e-23
1.12342e-23
-4.08459e-23
8.65321e-24
-6.02059e-23
-2.2029e-23
-6.51296e-23
1.03412e-22
-5.93351e-23
1.09561e-22
-5.68757e-23
7.81548e-23
-7.35647e-23
9.10022e-23
-8.09594e-23
9.99615e-23
-5.8636e-23
4.73367e-23
-5.68946e-23
8.84965e-23
-5.41715e-23
9.85861e-23
-8.71102e-23
1.51648e-22
-1.05208e-22
1.19068e-22
-1.11564e-22
1.27799e-22
-1.02149e-22
2.34423e-22
-1.27634e-22
2.20573e-22
-1.27767e-22
2.76917e-22
-1.43449e-22
3.21445e-22
-1.7584e-22
4.41149e-22
-2.11213e-22
5.64917e-22
6.75646e-22
-4.29299e-23
-7.99636e-24
2.76388e-23
-5.41938e-23
5.45171e-23
-5.01488e-23
5.18872e-23
-5.86401e-23
7.51966e-23
-4.64407e-23
4.58939e-23
-5.45721e-23
3.76315e-23
-3.87559e-23
9.78814e-23
-4.99261e-23
4.82439e-23
-6.50473e-23
1.14008e-22
-5.87084e-23
7.52188e-23
-7.59923e-23
3.11684e-23
-5.27139e-23
1.11514e-22
-5.72229e-23
9.39009e-23
-6.71766e-23
1.90508e-23
-3.96095e-23
5.68899e-23
-5.06133e-23
6.71841e-23
-5.88948e-23
1.02488e-22
-6.2894e-23
1.11923e-22
-5.40369e-23
6.78568e-23
-6.99801e-23
1.03537e-22
-8.76049e-23
2.2527e-23
-5.01253e-23
1.00482e-22
-5.74643e-23
9.42838e-23
-4.29305e-23
8.57449e-23
-9.16817e-23
-3.55935e-23
-1.01465e-22
1.28227e-22
-9.9623e-23
1.26658e-22
-9.79355e-23
2.34428e-22
-1.25478e-22
1.50241e-22
-1.17025e-22
3.65427e-22
-1.29588e-22
3.31516e-22
-1.6404e-22
4.66588e-22
-1.82684e-22
5.67761e-22
-1.59839e-22
6.37617e-22
1.1328e-21
-3.64745e-23
-1.77615e-23
2.83366e-23
-5.5659e-23
2.77669e-23
-4.45218e-23
3.74507e-23
-5.76892e-23
4.68983e-23
-4.90449e-23
7.56673e-23
-5.33513e-23
4.25443e-23
-4.74793e-23
9.07543e-23
-4.07114e-23
7.70764e-23
-7.53144e-23
1.71195e-23
-6.08828e-23
6.23301e-23
-6.81796e-23
4.50467e-23
-5.1764e-23
1.00475e-22
-6.54426e-23
6.80814e-23
-6.21271e-23
3.47363e-25
-3.82795e-23
6.18826e-23
-4.80573e-23
2.03675e-23
-5.70687e-23
1.62286e-23
-6.87276e-23
2.71742e-23
-4.54258e-23
1.30101e-22
-7.72356e-23
1.28659e-22
-8.18689e-23
1.14692e-22
-4.78361e-23
1.97351e-22
-5.74676e-23
1.03395e-22
-5.3515e-23
7.76836e-23
-7.45585e-23
-9.98931e-24
-1.00865e-22
6.70683e-23
-8.65617e-23
1.36447e-22
-1.02517e-22
1.65671e-22
-1.03862e-22
1.48504e-22
-1.17289e-22
2.88446e-22
-1.11738e-22
3.18111e-22
-1.52793e-22
4.15036e-22
-1.58353e-22
5.53439e-22
-1.31244e-22
6.93498e-22
1.03489e-21
-3.12683e-23
4.95225e-23
3.56147e-23
-5.4453e-23
4.5312e-23
-4.66604e-23
2.79421e-23
-5.73647e-23
5.10371e-23
-5.22655e-23
6.81124e-23
-4.48637e-23
3.72187e-23
-4.97014e-23
5.60018e-23
-4.30371e-23
6.32795e-23
-6.7828e-23
4.62654e-23
-5.79545e-23
8.83353e-23
-6.48e-23
5.86458e-23
-5.60425e-23
9.06193e-23
-7.12638e-23
2.72623e-23
-5.70567e-23
7.09793e-23
-3.83904e-23
1.19892e-22
-4.88686e-23
1.65678e-23
-5.22554e-23
1.01125e-23
-5.86204e-23
2.80474e-23
-4.60758e-23
9.12126e-23
-7.41755e-23
6.13756e-23
-7.43979e-23
1.10291e-22
-5.48176e-23
2.65207e-22
-6.24105e-23
1.10964e-22
-5.97604e-23
9.67516e-23
-6.63524e-23
-2.49591e-24
-8.86625e-23
8.85191e-23
-8.62839e-23
1.3978e-22
-9.59134e-23
1.7431e-22
-9.21415e-23
1.43068e-22
-1.08663e-22
3.04309e-22
-1.02467e-22
3.04255e-22
-1.41161e-22
3.57832e-22
-1.3274e-22
5.35481e-22
-1.1596e-22
5.75659e-22
-2.95052e-23
3.51863e-23
2.87215e-23
-5.35231e-23
5.44064e-23
-4.3728e-23
2.09592e-23
-5.63222e-23
6.47791e-23
-5.1028e-23
6.40061e-23
-4.5147e-23
4.27997e-23
-4.69717e-23
5.12853e-23
-4.67864e-23
9.18494e-23
-5.96921e-23
6.03633e-23
-5.73785e-23
8.90076e-23
-6.38968e-23
2.41394e-23
-6.03834e-23
8.65185e-23
-6.41523e-23
5.91721e-23
-5.45013e-23
8.11176e-23
-4.62644e-23
9.93114e-23
-5.40726e-23
5.52652e-23
-4.76097e-23
8.10947e-23
-5.25366e-23
2.84551e-23
-4.76463e-23
8.98347e-23
-6.73558e-23
8.17293e-23
-6.10717e-23
1.05938e-22
-6.70205e-23
1.69618e-22
-6.39591e-23
1.04041e-22
-6.62512e-23
9.64656e-23
-5.99653e-23
8.27402e-23
-8.1105e-23
1.07512e-22
-8.3898e-23
1.46974e-22
-9.35961e-23
1.75343e-22
-8.18132e-23
1.28293e-22
-1.0145e-22
2.21997e-22
-9.42699e-23
2.92982e-22
-1.20818e-22
3.81711e-22
-1.16787e-22
5.32107e-22
5.06702e-22
-2.62313e-23
3.40283e-23
2.11517e-23
-5.81386e-23
3.96506e-23
-3.69122e-23
3.82937e-23
-5.69441e-23
5.05426e-23
-5.19929e-23
6.70997e-23
-4.22325e-23
3.89178e-23
-3.8243e-23
4.55195e-23
-5.12734e-23
7.34023e-23
-6.1923e-23
3.35037e-23
-6.00214e-23
8.78362e-23
-6.02955e-23
6.51199e-23
-5.98123e-23
8.31548e-23
-6.20192e-23
5.34388e-23
-5.16983e-23
6.9385e-23
-4.90327e-23
8.95645e-23
-5.06574e-23
5.3315e-23
-4.82329e-23
1.11241e-22
-4.9759e-23
2.99737e-23
-4.6193e-23
7.94275e-23
-6.42719e-23
1.46757e-23
-5.70384e-23
1.03259e-22
-7.07865e-23
8.70423e-23
-6.55505e-23
9.85295e-23
-6.43841e-23
9.23105e-23
-5.66417e-23
7.26719e-23
-7.65419e-23
1.23058e-22
-8.02075e-23
1.5366e-22
-9.43215e-23
1.82837e-22
-7.41162e-23
1.96012e-22
-9.16014e-23
2.24162e-22
-8.51666e-23
2.7904e-22
-1.07781e-22
3.15409e-22
-1.11347e-22
4.47778e-22
4.77408e-22
-2.33668e-23
4.61153e-23
2.32594e-23
-5.73373e-23
-1.49744e-23
-4.02543e-23
2.23133e-23
-5.70086e-23
7.39273e-23
-5.42254e-23
7.31233e-23
-3.95384e-23
1.26531e-22
-4.32523e-23
5.29818e-23
-5.16019e-23
1.29801e-22
-5.68588e-23
3.21971e-23
-5.91635e-23
8.99349e-23
-5.95475e-23
5.82062e-23
-6.1209e-23
8.50482e-23
-6.07414e-23
4.42992e-23
-5.24556e-23
1.98431e-23
-5.02378e-23
4.58806e-23
-4.5972e-23
4.49472e-23
-5.39873e-23
6.91976e-23
-4.26872e-23
1.61717e-23
-5.1088e-23
1.05058e-23
-5.38044e-23
2.69068e-23
-5.99604e-23
4.6248e-23
-6.5632e-23
9.14738e-23
-6.52485e-23
9.8449e-23
-6.53272e-23
1.13821e-22
-4.99886e-23
1.52277e-22
-7.61182e-23
5.53368e-23
-7.51739e-23
1.60534e-22
-9.18448e-23
1.08814e-22
-7.12644e-23
1.78169e-22
-8.56304e-23
2.40133e-22
-7.87383e-23
2.68413e-22
-1.00452e-22
3.34406e-22
-1.01906e-22
4.53362e-22
4.50584e-22
-3.00964e-23
3.74317e-23
2.63592e-23
-5.53374e-23
4.78816e-24
-3.45242e-23
9.67942e-23
-5.34784e-23
1.07004e-22
-5.17998e-23
1.10844e-22
-4.48516e-23
1.73431e-22
-3.9834e-23
5.3033e-23
-5.57932e-23
1.50504e-22
-5.41254e-23
1.20153e-22
-5.93884e-23
9.67507e-23
-5.63245e-23
5.03505e-23
-6.25859e-23
5.72413e-23
-5.98494e-23
6.98498e-23
-5.26454e-23
6.14497e-23
-4.87715e-23
4.88314e-23
-4.4086e-23
3.71129e-23
-5.41663e-23
4.45466e-23
-4.6075e-23
9.43869e-24
-4.72505e-23
-2.41124e-23
-5.16076e-23
4.00878e-23
-5.58064e-23
1.57419e-22
-6.32683e-23
9.53381e-23
-6.30516e-23
1.0168e-22
-6.19718e-23
1.06704e-22
-5.46281e-23
1.49408e-22
-6.74095e-23
6.728e-23
-7.76349e-23
1.71186e-22
-8.45662e-23
1.16721e-22
-6.64434e-23
1.65352e-22
-8.02024e-23
1.70192e-22
-7.32704e-23
2.61497e-22
-8.8641e-23
3.54016e-22
-9.66159e-23
4.17003e-22
-3.5337e-23
4.20824e-23
3.01818e-23
-4.65877e-23
1.30568e-23
-3.17227e-23
5.28614e-23
-5.60165e-23
5.61013e-23
-4.35178e-23
6.44451e-23
-4.95088e-23
1.05782e-22
-3.27314e-23
1.13914e-22
-5.69345e-23
4.58364e-23
-5.60965e-23
7.82165e-23
-5.74916e-23
9.50857e-23
-6.00546e-23
5.20286e-23
-6.03092e-23
5.18258e-23
-6.35054e-23
7.31632e-23
-5.17942e-23
5.74675e-23
-4.80754e-23
8.41833e-23
-4.33835e-23
6.37943e-23
-5.63808e-23
3.54121e-23
-4.97551e-23
7.34487e-24
-4.0091e-23
2.42503e-23
-4.14191e-23
5.10748e-23
-5.98426e-23
9.85671e-23
-6.10509e-23
1.01393e-22
-6.09758e-23
9.9583e-23
-5.98937e-23
1.06585e-22
-5.81195e-23
1.49984e-22
-5.98859e-23
7.02452e-23
-8.08771e-23
1.12661e-22
-7.93001e-23
1.15947e-22
-6.37099e-23
1.45448e-22
-7.1732e-23
1.80037e-22
-6.3125e-23
2.07082e-22
-8.49943e-23
3.33958e-22
4.0848e-22
-3.60088e-23
1.05503e-23
2.99295e-23
-4.35346e-23
1.92193e-23
-2.87082e-23
7.4618e-23
-5.4224e-23
9.39788e-23
-4.60413e-23
6.77852e-23
-4.21031e-23
1.49351e-22
-4.39467e-23
4.26829e-23
-5.0852e-23
1.54e-23
-5.70015e-23
5.57605e-23
-5.80629e-23
8.75751e-23
-6.03222e-23
5.15984e-23
-6.00459e-23
4.42104e-23
-6.63567e-23
4.13588e-23
-4.85483e-23
5.31539e-23
-5.00945e-23
1.73493e-23
-4.59739e-23
5.853e-23
-5.5243e-23
4.29548e-23
-4.75438e-23
5.1919e-23
-3.49761e-23
5.48208e-23
-4.00586e-23
6.76666e-23
-5.62617e-23
3.68046e-23
-6.16454e-23
1.11677e-22
-5.83859e-23
1.00387e-22
-5.82313e-23
1.01306e-22
-6.00458e-23
1.45944e-22
-5.85007e-23
7.15289e-23
-7.81615e-23
4.43139e-23
-7.72221e-23
1.14558e-22
-5.9697e-23
1.62527e-22
-6.72191e-23
1.76644e-22
-5.11607e-23
1.88298e-22
-7.83757e-23
2.30766e-22
-3.49508e-23
-2.44591e-23
3.09117e-23
-4.02876e-23
5.84451e-23
-3.12884e-23
6.85793e-23
-5.28651e-23
4.27368e-23
-3.84194e-23
6.07159e-23
-4.8678e-23
2.8343e-23
-4.50908e-23
4.86438e-23
-4.47517e-23
5.84597e-23
-5.59778e-23
-9.92091e-24
-6.21147e-23
4.78724e-23
-6.06185e-23
4.69665e-23
-5.9598e-23
3.86343e-23
-6.19468e-23
4.90411e-23
-5.10262e-23
5.50752e-23
-4.45504e-23
6.82111e-23
-4.60551e-23
5.98334e-23
-5.54526e-23
9.40668e-23
-4.48488e-23
5.00824e-23
-3.25707e-23
4.79393e-23
-4.26956e-23
4.58161e-23
-4.7401e-23
5.39232e-23
-6.26626e-23
9.10906e-23
-5.67172e-23
9.74958e-23
-5.63518e-23
9.76881e-23
-6.11549e-23
1.45229e-22
-6.20682e-23
9.48399e-23
-7.07851e-23
9.20175e-23
-7.44332e-23
1.27258e-22
-5.74575e-23
1.48397e-22
-6.55344e-23
1.2843e-22
-4.85109e-23
1.7841e-22
1.89185e-22
-3.14946e-23
-2.17712e-23
3.39336e-23
-4.01231e-23
7.05615e-23
-2.84634e-23
6.62028e-23
-4.78341e-23
1.08944e-22
-4.33466e-23
1.04746e-22
-4.79728e-23
6.4554e-23
-4.47832e-23
2.42157e-23
-4.6248e-23
2.43895e-23
-5.05257e-23
-4.07066e-23
-6.20461e-23
8.60266e-24
-5.82457e-23
7.07107e-23
-5.9118e-23
3.3451e-23
-5.83646e-23
3.75568e-23
-4.81474e-23
5.03501e-23
-4.59448e-23
7.78823e-23
-4.178e-23
9.22348e-23
-5.77744e-23
7.0135e-23
-4.46321e-23
8.35219e-23
-3.2446e-23
4.41844e-23
-4.26149e-23
5.50916e-23
-4.22589e-23
7.45925e-23
-6.13262e-23
8.13068e-23
-5.49778e-23
9.85188e-23
-5.45774e-23
9.55191e-23
-6.1692e-23
1.07641e-22
-6.28834e-23
9.75416e-23
-6.73141e-23
8.94515e-23
-7.14903e-23
9.79352e-23
-5.89548e-23
1.36041e-22
-6.05945e-23
9.21866e-23
-4.59569e-23
1.27819e-22
1.92518e-22
-2.69691e-23
-2.72586e-23
3.93616e-23
-4.00348e-23
8.40256e-23
-2.72199e-23
6.4486e-23
-4.44884e-23
9.13899e-23
-4.63822e-23
1.12957e-22
-4.92822e-23
1.11049e-22
-4.44935e-23
6.46606e-23
-5.37716e-23
3.26925e-23
-5.12282e-23
-3.78119e-23
-5.54077e-23
6.31665e-24
-6.04176e-23
6.72949e-23
-5.52359e-23
5.55176e-23
-5.79042e-23
4.48583e-23
-4.87201e-23
5.39815e-23
-3.9422e-23
8.35262e-23
-4.33949e-23
6.51468e-23
-5.47209e-23
8.41161e-23
-4.63897e-23
8.73079e-23
-2.92656e-23
7.81391e-23
-4.11854e-23
6.91665e-23
-4.0747e-23
7.4024e-23
-6.01427e-23
8.78738e-23
-5.42956e-23
9.66034e-23
-5.46003e-23
9.25712e-23
-5.97736e-23
1.03358e-22
-6.23354e-23
8.39551e-23
-6.74503e-23
8.92807e-23
-6.75888e-23
1.27175e-22
-6.09024e-23
1.34279e-22
-5.7491e-23
1.10986e-22
-4.05036e-23
1.6102e-22
1.54233e-22
-2.45777e-23
1.18876e-24
4.40723e-23
-3.5989e-23
1.22842e-22
-2.63698e-23
6.24354e-23
-4.29535e-23
1.14934e-22
-4.82275e-23
4.24279e-23
-4.51089e-23
1.04915e-22
-4.51478e-23
6.49568e-23
-5.33453e-23
3.69218e-23
-4.91672e-23
-1.27862e-24
-5.01137e-23
-1.2901e-24
-6.2042e-23
3.34206e-23
-5.64837e-23
8.39516e-23
-5.67893e-23
5.14574e-23
-4.64507e-23
6.51749e-23
-4.19157e-23
8.41774e-23
-3.93487e-23
6.44332e-23
-5.33019e-23
6.07918e-23
-4.52658e-23
9.24783e-23
-3.04828e-23
7.57509e-23
-4.13788e-23
8.29281e-23
-3.86876e-23
1.02586e-22
-5.92507e-23
3.38733e-23
-5.28908e-23
6.04962e-23
-5.37982e-23
9.47459e-23
-5.90007e-23
1.11147e-22
-6.13487e-23
9.35922e-23
-6.56543e-23
9.21999e-23
-6.6347e-23
1.15332e-22
-6.1065e-23
1.29167e-22
-5.30469e-23
1.89924e-22
-3.87692e-23
1.92017e-22
1.55848e-22
-1.69641e-23
2.25323e-23
4.44057e-23
-3.56851e-23
1.90567e-22
-2.26238e-23
9.06835e-23
-4.61954e-23
1.11688e-23
-4.68231e-23
8.13077e-23
-4.65722e-23
9.81912e-23
-4.72065e-23
6.69879e-23
-5.9103e-23
6.6119e-24
-4.35853e-23
2.27535e-23
-4.76584e-23
-4.21117e-23
-5.7981e-23
4.05871e-23
-5.84157e-23
8.57104e-23
-5.49366e-23
5.01216e-23
-4.4639e-23
6.63514e-23
-3.979e-23
1.2092e-22
-4.2117e-23
5.81083e-23
-5.07328e-23
7.79656e-23
-4.74527e-23
8.77305e-23
-2.94059e-23
6.59479e-23
-3.8571e-23
9.53188e-23
-4.26601e-23
7.16894e-23
-5.74712e-23
5.73261e-23
-4.90021e-23
8.34963e-23
-5.30908e-23
6.48286e-23
-5.9181e-23
6.67024e-23
-6.07241e-23
5.05156e-23
-6.3061e-23
8.86557e-23
-6.55847e-23
1.09158e-22
-5.6154e-23
1.23322e-22
-5.3764e-23
1.49364e-22
-3.72375e-23
1.82896e-22
1.47305e-22
-8.66172e-24
7.848e-23
4.40463e-23
-3.8732e-23
1.00642e-22
-2.92403e-23
9.63567e-23
-4.16288e-23
5.43757e-23
-4.23964e-23
6.15886e-23
-4.71933e-23
5.16225e-23
-4.9915e-23
6.69023e-23
-5.65796e-23
4.11914e-23
-4.60894e-23
1.5326e-23
-4.471e-23
-7.7049e-23
-5.3851e-23
4.63409e-23
-5.73049e-23
9.05215e-23
-5.48269e-23
5.61772e-23
-4.21838e-23
6.40246e-23
-4.12945e-23
1.27591e-22
-4.16947e-23
4.50326e-24
-4.65964e-23
8.63957e-23
-5.07443e-23
5.64746e-23
-2.57798e-23
1.2945e-22
-3.97711e-23
7.24905e-23
-4.30848e-23
8.16197e-23
-5.55262e-23
7.26469e-23
-4.80958e-23
1.14541e-22
-5.23022e-23
6.51369e-23
-5.97869e-23
6.56357e-23
-5.8114e-23
7.71576e-23
-6.12393e-23
9.1482e-23
-6.5424e-23
5.89372e-23
-5.16077e-23
1.40043e-22
-5.13774e-23
1.50449e-22
-3.76247e-23
2.14051e-22
1.33037e-22
-1.2158e-23
1.42465e-22
4.07242e-23
-3.66274e-23
9.38335e-23
-3.34787e-23
1.03969e-22
-3.8718e-23
6.02956e-23
-4.44532e-23
3.18699e-23
-4.77272e-23
1.22526e-24
-5.04516e-23
4.59727e-23
-5.69669e-23
-3.59325e-23
-5.06084e-23
8.86749e-24
-3.80698e-23
-4.1126e-23
-5.20392e-23
-1.72834e-23
-6.15206e-23
1.85419e-23
-4.87783e-23
8.61135e-23
-4.10714e-23
7.15335e-23
-4.62178e-23
9.40941e-23
-3.84579e-23
-9.41148e-24
-4.57582e-23
1.03564e-22
-4.75007e-23
6.76353e-23
-2.60685e-23
1.78795e-22
-3.79329e-23
8.45583e-23
-4.33689e-23
4.92868e-23
-5.26056e-23
8.17528e-23
-4.99478e-23
1.10868e-22
-5.18073e-23
6.68961e-23
-5.89677e-23
2.28318e-23
-5.62472e-23
6.3376e-23
-6.15227e-23
9.43446e-23
-6.10058e-23
5.24624e-23
-4.92319e-23
2.12267e-22
-4.88766e-23
1.82187e-22
-4.00269e-23
2.42387e-22
1.93817e-22
-1.08939e-23
7.28573e-23
3.92012e-23
-3.70533e-23
5.5263e-23
-3.43796e-23
8.50525e-23
-4.06553e-23
2.8694e-23
-4.38441e-23
6.76918e-23
-4.88529e-23
8.32166e-23
-5.20825e-23
4.97273e-23
-5.48747e-23
-2.70334e-23
-5.18563e-23
8.43136e-24
-3.67773e-23
-4.67865e-23
-5.08729e-23
-4.36061e-23
-5.54108e-23
2.61879e-23
-4.70058e-23
4.50399e-23
-4.1383e-23
1.75178e-24
-4.87754e-23
2.44729e-23
-3.33513e-23
5.11753e-23
-4.62655e-23
1.26751e-22
-4.11611e-23
5.55091e-23
-2.83626e-23
1.23827e-22
-3.96817e-23
6.55537e-23
-4.10875e-23
5.30773e-23
-5.1162e-23
8.45546e-23
-5.16848e-23
1.11705e-22
-5.33645e-23
6.11514e-23
-5.6313e-23
2.31608e-23
-5.4133e-23
1.00588e-22
-6.24935e-23
1.07169e-22
-5.29349e-23
1.19741e-22
-4.83669e-23
2.09187e-22
-4.66263e-23
1.82915e-22
-4.0335e-23
2.11265e-22
2.42788e-22
-1.0243e-23
2.25542e-22
4.11606e-23
-3.64475e-23
2.33235e-23
-3.51814e-23
7.89908e-23
-4.02814e-23
3.68957e-23
-4.11542e-23
6.33286e-23
-5.0891e-23
5.14008e-23
-5.31409e-23
1.39776e-22
-5.52773e-23
-2.81763e-23
-4.96994e-23
-4.33765e-23
-3.89949e-23
-1.54644e-23
-4.60103e-23
4.88053e-24
-5.3917e-23
-5.22838e-23
-4.93185e-23
4.53675e-23
-4.24108e-23
5.00087e-24
-4.4418e-23
7.59594e-23
-3.11716e-23
3.24161e-23
-4.63307e-23
1.04738e-22
-3.8961e-23
9.91281e-23
-2.89948e-23
1.65425e-22
-4.13539e-23
7.8181e-23
-3.8766e-23
5.95439e-23
-5.00812e-23
9.84384e-23
-5.23197e-23
1.07094e-22
-5.49184e-23
9.57599e-23
-5.2665e-23
5.97879e-23
-5.33129e-23
9.60301e-23
-5.90808e-23
1.18755e-22
-4.96435e-23
1.03418e-22
-4.78635e-23
2.08375e-22
-4.55832e-23
1.86837e-22
-3.62834e-23
2.09833e-22
2.15094e-22
-2.09518e-23
1.3569e-22
3.35669e-23
-3.25499e-23
8.61313e-23
-3.91194e-23
6.61439e-24
-3.69285e-23
-9.70691e-24
-4.13076e-23
9.78043e-23
-4.81765e-23
5.31351e-24
-5.80138e-23
1.05359e-22
-5.80428e-23
5.18286e-24
-4.7449e-23
-1.22076e-23
-3.6238e-23
-3.98408e-24
-4.52294e-23
1.79203e-23
-4.97602e-23
-6.08333e-24
-4.95939e-23
8.02633e-24
-3.90761e-23
2.10755e-24
-4.16412e-23
8.16255e-23
-2.84009e-23
5.58902e-23
-4.4016e-23
8.63411e-23
-3.8445e-23
1.1e-22
-3.12945e-23
1.70518e-22
-4.13819e-23
4.70324e-23
-3.43753e-23
5.30697e-23
-4.98747e-23
3.56166e-23
-5.19238e-23
1.09683e-22
-5.50761e-23
6.33924e-23
-5.08967e-23
6.26419e-23
-5.15847e-23
1.33209e-22
-5.751e-23
1.24042e-22
-4.675e-23
1.05679e-22
-4.75698e-23
1.72613e-22
-4.54062e-23
1.89595e-22
-3.48729e-23
2.058e-22
2.68623e-22
-1.92276e-23
1.07189e-22
3.353e-23
-3.8413e-23
2.74412e-23
-3.85845e-23
2.31309e-23
-3.32793e-23
-1.57198e-24
-4.22325e-23
-2.48037e-24
-4.37024e-23
4.18172e-23
-6.32375e-23
8.16336e-23
-5.82137e-23
-7.8788e-24
-4.57158e-23
1.66728e-23
-3.43685e-23
-3.57238e-24
-4.71043e-23
3.17518e-23
-4.81269e-23
-8.03996e-24
-4.86517e-23
2.49662e-23
-3.34838e-23
7.45866e-23
-4.12382e-23
6.35586e-23
-2.76967e-23
8.4879e-23
-4.11894e-23
9.85927e-23
-3.47588e-23
1.22321e-22
-3.41806e-23
1.05039e-22
-4.1772e-23
2.677e-23
-3.48567e-23
1.32172e-22
-4.55963e-23
5.3775e-23
-5.45978e-23
8.53195e-23
-5.35896e-23
6.89403e-23
-4.80191e-23
8.02238e-23
-5.13175e-23
1.37667e-22
-5.58168e-23
1.35399e-22
-4.50144e-23
9.47494e-23
-4.46777e-23
1.42547e-22
-4.47449e-23
1.86719e-22
-3.056e-23
2.4313e-22
2.43389e-22
-2.16428e-23
1.26533e-22
3.46113e-23
-3.91237e-23
-3.08631e-23
-3.64673e-23
8.32882e-23
-3.64625e-23
-1.60684e-24
-3.99385e-23
2.68484e-23
-4.39243e-23
1.05781e-24
-6.32948e-23
5.85045e-23
-5.71533e-23
1.14543e-22
-4.45169e-23
9.45911e-23
-3.47404e-23
8.91462e-23
-4.33673e-23
6.58438e-23
-4.63233e-23
3.08067e-23
-4.40486e-23
6.28416e-23
-3.50148e-23
6.27398e-23
-4.12519e-23
6.35171e-23
-2.66256e-23
7.16561e-23
-3.80744e-23
6.85683e-23
-3.72325e-23
1.30583e-22
-3.44095e-23
1.45495e-22
-3.96156e-23
3.4402e-23
-3.72801e-23
8.70186e-23
-4.20786e-23
6.86083e-23
-5.54547e-23
2.28058e-23
-5.15406e-23
6.41086e-23
-4.52498e-23
8.4333e-23
-5.12802e-23
1.11385e-22
-5.56868e-23
1.47583e-22
-4.4561e-23
9.46535e-23
-4.05123e-23
1.47887e-22
-4.17889e-23
2.17497e-22
-3.05545e-23
2.70154e-22
3.43181e-22
-2.50919e-23
1.2617e-22
3.43308e-23
-3.95033e-23
4.84596e-23
-3.52938e-23
1.3941e-22
-3.95852e-23
1.20059e-23
-3.60142e-23
1.09993e-22
-4.37789e-23
5.62021e-23