/*--------------------------------*- C++ -*----------------------------------*\
  =========                 |
  \\      /  F ield         | OpenFOAM: The Open Source CFD Toolbox
   \\    /   O peration     | Website:  https://openfoam.org
    \\  /    A nd           | Version:  7
     \\/     M anipulation  |
\*---------------------------------------------------------------------------*/
FoamFile
{
    version     2.0;
    format      ascii;
    class       volScalarField;
    location    "204000";
    object      p;
}
// * * * * * * * * * * * * * * * * * * * * * * * * * * * * * * * * * * * * * //

dimensions      [0 2 -2 0 0 0 0];

internalField   nonuniform List<scalar> 
4838
(
-2.00844e-18
-2.01951e-18
-2.02311e-18
-2.04223e-18
-2.02614e-18
-2.04386e-18
-2.01562e-18
-2.00042e-18
-1.98722e-18
-2.02897e-18
-2.00254e-18
-2.00327e-18
-2.00833e-18
-1.99401e-18
-1.96059e-18
-1.9742e-18
-2.02825e-18
-2.02521e-18
-2.00409e-18
-2.02155e-18
-2.01692e-18
-1.96499e-18
-1.97948e-18
-1.98766e-18
-1.99021e-18
-2.01386e-18
-1.98587e-18
-1.98118e-18
-1.97091e-18
-1.95123e-18
-1.99696e-18
-1.97855e-18
-1.9563e-18
-2.01062e-18
-1.98848e-18
-1.98933e-18
-1.95249e-18
-1.98815e-18
-1.97998e-18
-1.98525e-18
-1.95176e-18
-1.98503e-18
-1.93884e-18
-1.96391e-18
-1.99329e-18
-1.96781e-18
-1.95376e-18
-1.96052e-18
-1.95407e-18
-1.95418e-18
-2.01436e-18
-2.02922e-18
-1.99799e-18
-2.01569e-18
-2.01339e-18
-2.03842e-18
-2.01648e-18
-2.01049e-18
-2.00928e-18
-2.01171e-18
-2.00091e-18
-2.00158e-18
-2.0075e-18
-2.00218e-18
-1.99383e-18
-1.99306e-18
-2.01824e-18
-1.97106e-18
-1.95496e-18
-1.96295e-18
-1.98499e-18
-1.9857e-18
-1.99401e-18
-2.00169e-18
-1.96239e-18
-1.98958e-18
-1.94589e-18
-1.99669e-18
-1.98415e-18
-1.97425e-18
-1.98283e-18
-1.99722e-18
-1.96912e-18
-1.94268e-18
-1.93755e-18
-1.96493e-18
-1.96578e-18
-1.96556e-18
-1.9661e-18
-1.96956e-18
-1.99278e-18
-1.99314e-18
-1.96495e-18
-1.96241e-18
-1.96026e-18
-1.94669e-18
-1.92733e-18
-1.94296e-18
-1.92226e-18
-1.95283e-18
-1.98878e-18
-1.98139e-18
-1.999e-18
-2.00215e-18
-1.98905e-18
-2.00708e-18
-2.00626e-18
-2.01788e-18
-2.03639e-18
-2.02984e-18
-1.99944e-18
-1.98821e-18
-2.01964e-18
-2.00362e-18
-1.99374e-18
-1.97196e-18
-1.99226e-18
-1.98232e-18
-1.95903e-18
-1.98026e-18
-1.9852e-18
-1.9892e-18
-2.00403e-18
-1.96379e-18
-1.94801e-18
-1.95438e-18
-1.99367e-18
-2.00791e-18
-1.98674e-18
-1.998e-18
-1.98347e-18
-1.97646e-18
-1.97234e-18
-1.96425e-18
-1.96142e-18
-1.97001e-18
-1.9592e-18
-1.93704e-18
-1.96019e-18
-1.95748e-18
-1.95225e-18
-1.9338e-18
-1.96004e-18
-1.97356e-18
-1.96045e-18
-1.95194e-18
-1.94993e-18
-1.95385e-18
-1.96184e-18
-1.97548e-18
-2.01022e-18
-2.00319e-18
-1.98519e-18
-1.98497e-18
-2.0197e-18
-1.98874e-18
-2.00134e-18
-2.00624e-18
-2.00002e-18
-1.97985e-18
-1.98063e-18
-2.01847e-18
-2.0108e-18
-2.0227e-18
-2.00201e-18
-1.98856e-18
-1.99613e-18
-1.98969e-18
-1.96233e-18
-1.98795e-18
-1.9952e-18
-1.99003e-18
-1.99114e-18
-2.00922e-18
-2.00736e-18
-1.97665e-18
-1.95742e-18
-1.97161e-18
-1.97454e-18
-1.98081e-18
-1.99015e-18
-1.97426e-18
-1.99429e-18
-1.97058e-18
-1.96313e-18
-1.96392e-18
-1.95585e-18
-1.9272e-18
-1.92946e-18
-1.92866e-18
-1.92673e-18
-1.92984e-18
-1.94744e-18
-1.93106e-18
-1.94382e-18
-1.95285e-18
-1.94937e-18
-1.94919e-18
-1.97728e-18
-1.95703e-18
-2.00888e-18
-1.99559e-18
-2.02549e-18
-2.01154e-18
-2.01409e-18
-2.0097e-18
-2.00509e-18
-1.99877e-18
-1.96855e-18
-1.98907e-18
-2.00019e-18
-2.00694e-18
-1.99711e-18
-1.976e-18
-1.9949e-18
-1.97992e-18
-2.01165e-18
-1.99882e-18
-1.98975e-18
-1.9943e-18
-2.02844e-18
-2.01098e-18
-1.9864e-18
-2.00892e-18
-2.00933e-18
-1.98161e-18
-1.96357e-18
-1.95248e-18
-1.97203e-18
-1.97123e-18
-1.9469e-18
-1.94455e-18
-1.96833e-18
-1.96165e-18
-1.96553e-18
-1.95948e-18
-1.93512e-18
-1.93101e-18
-1.95032e-18
-1.95214e-18
-1.95933e-18
-1.97758e-18
-1.95459e-18
-1.94055e-18
-1.93269e-18
-1.9421e-18
-1.91911e-18
-1.90172e-18
-1.92487e-18
-1.9457e-18
-2.00648e-18
-2.00694e-18
-2.01224e-18
-2.01035e-18
-2.02872e-18
-2.01867e-18
-2.00462e-18
-2.00765e-18
-2.00329e-18
-1.98638e-18
-2.00278e-18
-2.00489e-18
-1.98808e-18
-1.94902e-18
-1.98812e-18
-1.99301e-18
-1.99463e-18
-1.99832e-18
-2.01206e-18
-1.99123e-18
-1.9964e-18
-1.9863e-18
-1.95395e-18
-1.95605e-18
-1.97867e-18
-1.97409e-18
-1.95441e-18
-1.96958e-18
-1.98893e-18
-1.97082e-18
-1.96367e-18
-1.96136e-18
-1.94223e-18
-1.93847e-18
-1.95885e-18
-1.96253e-18
-1.97748e-18
-1.96381e-18
-1.95621e-18
-1.94036e-18
-1.97523e-18
-1.96222e-18
-1.94904e-18
-1.95485e-18
-1.97176e-18
-1.94917e-18
-1.9456e-18
-1.96245e-18
-1.94763e-18
-1.94521e-18
-1.98656e-18
-2.00636e-18
-2.00378e-18
-1.98939e-18
-2.01001e-18
-2.02252e-18
-1.98729e-18
-2.00336e-18
-2.02428e-18
-2.00455e-18
-2.00607e-18
-2.00469e-18
-1.97139e-18
-1.95112e-18
-1.99614e-18
-2.00583e-18
-1.99126e-18
-1.99035e-18
-1.98972e-18
-1.98931e-18
-2.00707e-18
-2.00018e-18
-1.9605e-18
-1.95791e-18
-1.97423e-18
-1.97262e-18
-1.97065e-18
-1.96859e-18
-1.9528e-18
-1.96588e-18
-1.9705e-18
-1.97102e-18
-1.96262e-18
-1.96029e-18
-1.96026e-18
-1.96476e-18
-1.97892e-18
-1.9833e-18
-1.95619e-18
-1.94643e-18
-1.9355e-18
-1.94352e-18
-1.94262e-18
-1.9443e-18
-1.94806e-18
-1.94514e-18
-1.94953e-18
-1.95319e-18
-1.94267e-18
-1.92435e-18
-2.00813e-18
-2.01504e-18
-2.01815e-18
-2.02433e-18
-2.00246e-18
-1.99329e-18
-2.00047e-18
-1.98527e-18
-1.983e-18
-1.98443e-18
-2.00963e-18
-2.0214e-18
-1.98476e-18
-1.99107e-18
-2.01816e-18
-2.03113e-18
-1.97845e-18
-1.9843e-18
-1.96875e-18
-1.96152e-18
-1.96274e-18
-1.96629e-18
-1.97722e-18
-1.99714e-18
-1.97799e-18
-1.9545e-18
-1.96962e-18
-1.96962e-18
-1.96134e-18
-1.97195e-18
-1.97712e-18
-1.98478e-18
-1.9643e-18
-1.95844e-18
-1.94424e-18
-1.97187e-18
-1.94348e-18
-1.96662e-18
-1.93382e-18
-1.95163e-18
-1.93974e-18
-1.92414e-18
-1.92263e-18
-1.92083e-18
-1.91899e-18
-1.9379e-18
-1.96538e-18
-1.97481e-18
-1.96092e-18
-1.92502e-18
-2.03638e-18
-2.04391e-18
-2.03215e-18
-2.01397e-18
-1.99319e-18
-2.02864e-18
-2.03153e-18
-2.02228e-18
-2.00868e-18
-2.01407e-18
-1.99903e-18
-2.00405e-18
-2.01787e-18
-1.99994e-18
-1.98112e-18
-1.99591e-18
-1.98639e-18
-1.98798e-18
-1.98571e-18
-1.96704e-18
-1.96158e-18
-1.97406e-18
-1.96138e-18
-1.97992e-18
-1.97509e-18
-1.9485e-18
-1.96717e-18
-1.9678e-18
-1.95194e-18
-1.98995e-18
-2.00152e-18
-1.96139e-18
-1.94086e-18
-1.95484e-18
-1.95483e-18
-1.9574e-18
-1.94601e-18
-1.95046e-18
-1.94329e-18
-1.96333e-18
-1.92762e-18
-1.94108e-18
-1.95968e-18
-1.94059e-18
-1.91883e-18
-1.92194e-18
-1.94281e-18
-1.96725e-18
-1.9421e-18
-1.94053e-18
-2.02667e-18
-2.05162e-18
-2.00211e-18
-2.00741e-18
-2.00946e-18
-2.02236e-18
-1.99177e-18
-2.00752e-18
-2.0094e-18
-1.98426e-18
-1.96052e-18
-1.97677e-18
-2.00233e-18
-1.99818e-18
-1.98922e-18
-1.99539e-18
-1.99694e-18
-1.98924e-18
-1.99353e-18
-2.0035e-18
-1.98263e-18
-1.98414e-18
-1.96111e-18
-1.9787e-18
-1.97586e-18
-1.93893e-18
-1.9653e-18
-1.97053e-18
-1.96867e-18
-1.97204e-18
-1.96844e-18
-1.94753e-18
-1.95385e-18
-1.96016e-18
-1.95572e-18
-1.95327e-18
-1.9283e-18
-1.94103e-18
-1.93126e-18
-1.94772e-18
-1.9362e-18
-1.94651e-18
-1.94665e-18
-1.94156e-18
-1.95056e-18
-1.95188e-18
-1.94117e-18
-1.93878e-18
-1.92244e-18
-1.94865e-18
-2.01532e-18
-2.0169e-18
-2.00981e-18
-2.01198e-18
-2.01133e-18
-1.99506e-18
-1.97201e-18
-2.00117e-18
-2.00481e-18
-1.99803e-18
-1.97848e-18
-1.99433e-18
-2.00026e-18
-1.99904e-18
-1.97826e-18
-2.01062e-18
-2.03128e-18
-1.98853e-18
-1.98507e-18
-1.98699e-18
-1.96897e-18
-1.99861e-18
-1.98377e-18
-1.99467e-18
-1.99482e-18
-1.96921e-18
-1.9707e-18
-1.9746e-18
-1.98524e-18
-1.97859e-18
-1.96795e-18
-1.99267e-18
-1.98156e-18
-1.97695e-18
-1.9592e-18
-1.96653e-18
-1.93637e-18
-1.94815e-18
-1.96385e-18
-1.94223e-18
-1.92519e-18
-1.94701e-18
-1.93873e-18
-1.91365e-18
-1.91834e-18
-1.92133e-18
-1.93813e-18
-1.93681e-18
-1.93131e-18
-1.925e-18
-2.02826e-18
-1.99944e-18
-2.0058e-18
-2.01052e-18
-2.03203e-18
-2.04287e-18
-2.02367e-18
-2.00347e-18
-2.00488e-18
-2.00582e-18
-1.99878e-18
-2.00601e-18
-2.01991e-18
-2.01626e-18
-1.98976e-18
-1.98253e-18
-2.02357e-18
-1.9704e-18
-1.97276e-18
-1.98114e-18
-1.96304e-18
-1.98096e-18
-1.99588e-18
-1.97924e-18
-1.97355e-18
-1.96793e-18
-1.97397e-18
-1.98315e-18
-1.96901e-18
-1.94785e-18
-1.95737e-18
-1.9754e-18
-1.96284e-18
-1.97293e-18
-1.95751e-18
-1.95148e-18
-1.97491e-18
-1.96624e-18
-1.96507e-18
-1.9402e-18
-1.93883e-18
-1.96354e-18
-1.9382e-18
-1.91833e-18
-1.9282e-18
-1.92434e-18
-1.93209e-18
-1.93537e-18
-1.9275e-18
-1.93071e-18
-1.9998e-18
-2.02434e-18
-2.0136e-18
-1.98342e-18
-2.0136e-18
-2.0118e-18
-2.01008e-18
-1.98661e-18
-1.99825e-18
-2.00109e-18
-2.00176e-18
-2.01764e-18
-2.02403e-18
-2.00169e-18
-1.98932e-18
-1.98692e-18
-1.99551e-18
-1.96868e-18
-1.99897e-18
-1.98497e-18
-1.97579e-18
-1.9659e-18
-1.99144e-18
-1.97606e-18
-1.9527e-18
-1.94888e-18
-1.98467e-18
-1.97395e-18
-1.96731e-18
-1.95816e-18
-1.93916e-18
-1.92682e-18
-1.94516e-18
-1.95555e-18
-1.96275e-18
-1.9315e-18
-1.95076e-18
-1.95087e-18
-1.9381e-18
-1.93344e-18
-1.9175e-18
-1.91962e-18
-1.95589e-18
-1.9455e-18
-1.9266e-18
-1.9099e-18
-1.915e-18
-1.92783e-18
-1.91494e-18
-1.93584e-18
-2.01771e-18
-2.01736e-18
-2.02943e-18
-2.023e-18
-2.02439e-18
-1.99306e-18
-2.00192e-18
-1.98493e-18
-1.98792e-18
-1.9873e-18
-1.99344e-18
-2.00215e-18
-2.01554e-18
-1.99106e-18
-1.97551e-18
-1.98914e-18
-2.00076e-18
-1.97885e-18
-1.98861e-18
-1.9854e-18
-1.98393e-18
-1.98907e-18
-1.98169e-18
-1.98743e-18
-1.97065e-18
-1.9506e-18
-1.98424e-18
-1.98553e-18
-1.97735e-18
-1.97918e-18
-1.95686e-18
-1.94686e-18
-1.93805e-18
-1.95102e-18
-1.9515e-18
-1.93949e-18
-1.96367e-18
-1.96035e-18
-1.92023e-18
-1.92793e-18
-1.9281e-18
-1.91077e-18
-1.96235e-18
-1.92378e-18
-1.8993e-18
-1.9232e-18
-1.92676e-18
-1.93337e-18
-1.93155e-18
-1.94303e-18
-2.03119e-18
-2.01389e-18
-2.00378e-18
-2.01457e-18
-2.00915e-18
-1.99899e-18
-1.9876e-18
-2.004e-18
-2.01383e-18
-2.00014e-18
-1.98562e-18
-1.99584e-18
-1.97578e-18
-1.97662e-18
-1.98771e-18
-1.99342e-18
-1.97708e-18
-1.96457e-18
-1.9865e-18
-1.97975e-18
-1.97839e-18
-1.97464e-18
-1.97334e-18
-1.97145e-18
-1.98111e-18
-1.96415e-18
-1.97214e-18
-1.97999e-18
-1.94969e-18
-1.97487e-18
-1.95787e-18
-1.95203e-18
-1.96162e-18
-1.94866e-18
-1.95732e-18
-1.92691e-18
-1.97104e-18
-1.9581e-18
-1.93156e-18
-1.91986e-18
-1.9308e-18
-1.90808e-18
-1.93625e-18
-1.9415e-18
-1.91985e-18
-1.92377e-18
-1.93287e-18
-1.94923e-18
-1.93881e-18
-1.91735e-18
-2.01735e-18
-2.01475e-18
-2.03473e-18
-2.01555e-18
-1.98911e-18
-1.97359e-18
-1.97264e-18
-2.00091e-18
-1.99028e-18
-2.00311e-18
-2.01018e-18
-1.99425e-18
-1.96114e-18
-1.97399e-18
-1.99626e-18
-2.00706e-18
-1.99699e-18
-1.96998e-18
-1.99674e-18
-1.9673e-18
-1.9745e-18
-1.9635e-18
-1.97431e-18
-1.95364e-18
-1.954e-18
-1.96742e-18
-1.98196e-18
-1.9612e-18
-1.95667e-18
-1.96446e-18
-1.9483e-18
-1.94017e-18
-1.94854e-18
-1.92871e-18
-1.94157e-18
-1.9246e-18
-1.94379e-18
-1.93471e-18
-1.92862e-18
-1.94439e-18
-1.94617e-18
-1.90695e-18
-1.91955e-18
-1.92311e-18
-1.92492e-18
-1.91436e-18
-1.92794e-18
-1.93992e-18
-1.90367e-18
-1.92297e-18
-2.01119e-18
-2.00986e-18
-2.00535e-18
-2.02231e-18
-1.99069e-18
-1.99802e-18
-2.00515e-18
-1.9834e-18
-1.98765e-18
-2.00214e-18
-1.99134e-18
-1.98524e-18
-1.97271e-18
-1.98632e-18
-2.0112e-18
-1.99375e-18
-1.98641e-18
-1.98093e-18
-1.99049e-18
-1.9782e-18
-1.98012e-18
-1.98736e-18
-1.99663e-18
-1.96357e-18
-1.95871e-18
-1.97438e-18
-1.98891e-18
-1.94698e-18
-1.96591e-18
-1.97484e-18
-1.93908e-18
-1.95812e-18
-1.94542e-18
-1.92608e-18
-1.94417e-18
-1.94877e-18
-1.93266e-18
-1.91565e-18
-1.90944e-18
-1.93021e-18
-1.93084e-18
-1.91488e-18
-1.90412e-18
-1.9054e-18
-1.92417e-18
-1.9378e-18
-1.91395e-18
-1.91189e-18
-1.91665e-18
-1.92761e-18
-2.01836e-18
-2.01071e-18
-1.99944e-18
-2.0168e-18
-2.00771e-18
-2.0098e-18
-2.03103e-18
-1.97797e-18
-2.01135e-18
-2.00639e-18
-2.01576e-18
-2.00808e-18
-1.97576e-18
-1.98045e-18
-2.01057e-18
-1.99004e-18
-1.96968e-18
-1.9872e-18
-1.99966e-18
-1.97741e-18
-1.98696e-18
-1.98097e-18
-1.97381e-18
-1.95506e-18
-1.94896e-18
-1.9487e-18
-1.96216e-18
-1.95227e-18
-1.95082e-18
-1.9413e-18
-1.94482e-18
-1.94989e-18
-1.93758e-18
-1.94307e-18
-1.95329e-18
-1.93512e-18
-1.9171e-18
-1.92568e-18
-1.91408e-18
-1.92144e-18
-1.92195e-18
-1.91154e-18
-1.94405e-18
-1.90639e-18
-1.91941e-18
-1.91603e-18
-1.92416e-18
-1.908e-18
-1.90943e-18
-1.92589e-18
-2.02595e-18
-2.01064e-18
-2.00429e-18
-1.9933e-18
-2.00368e-18
-2.00509e-18
-2.01239e-18
-1.99464e-18
-1.99166e-18
-2.00657e-18
-2.01823e-18
-2.00258e-18
-1.97857e-18
-1.99181e-18
-2.00559e-18
-1.99045e-18
-1.97921e-18
-1.99911e-18
-2.00165e-18
-1.96244e-18
-1.96455e-18
-1.98352e-18
-1.96485e-18
-1.97262e-18
-1.96884e-18
-1.96119e-18
-1.95516e-18
-1.95802e-18
-1.98345e-18
-1.95049e-18
-1.94583e-18
-1.94096e-18
-1.91911e-18
-1.95427e-18
-1.94087e-18
-1.92153e-18
-1.92407e-18
-1.93063e-18
-1.93613e-18
-1.91002e-18
-1.92521e-18
-1.93608e-18
-1.93316e-18
-1.91834e-18
-1.91999e-18
-1.92581e-18
-1.94677e-18
-1.91758e-18
-1.91579e-18
-1.92957e-18
-2.0107e-18
-2.00635e-18
-2.00332e-18
-2.00095e-18
-1.99114e-18
-1.9926e-18
-1.97353e-18
-2.01028e-18
-2.00491e-18
-2.01091e-18
-1.99502e-18
-2.01605e-18
-1.99531e-18
-1.98849e-18
-1.97103e-18
-1.98712e-18
-1.9986e-18
-1.96913e-18
-1.97049e-18
-1.96746e-18
-1.95203e-18
-1.97121e-18
-1.96659e-18
-1.98829e-18
-1.95992e-18
-1.96175e-18
-1.96691e-18
-1.95853e-18
-1.9461e-18
-1.92784e-18
-1.93571e-18
-1.95056e-18
-1.93467e-18
-1.9269e-18
-1.91383e-18
-1.92431e-18
-1.91249e-18
-1.92133e-18
-1.93284e-18
-1.94961e-18
-1.94593e-18
-1.92358e-18
-1.92677e-18
-1.9329e-18
-1.93014e-18
-1.92081e-18
-1.93011e-18
-1.92485e-18
-2.01133e-18
-2.00408e-18
-2.00631e-18
-1.97872e-18
-1.97839e-18
-1.97509e-18
-2.00008e-18
-2.00246e-18
-1.99962e-18
-1.99162e-18
-2.00443e-18
-1.99187e-18
-1.98276e-18
-1.98011e-18
-1.98127e-18
-1.99674e-18
-1.9628e-18
-1.97106e-18
-1.94941e-18
-1.9628e-18
-1.98726e-18
-1.96878e-18
-1.98986e-18
-1.95966e-18
-1.96391e-18
-1.97144e-18
-1.94945e-18
-1.9561e-18
-1.92732e-18
-1.93717e-18
-1.92433e-18
-1.93051e-18
-1.93049e-18
-1.91287e-18
-1.92678e-18
-1.91691e-18
-1.93245e-18
-1.92528e-18
-1.93273e-18
-1.93251e-18
-1.93106e-18
-1.93123e-18
-1.92457e-18
-1.91684e-18
-1.92062e-18
-1.93143e-18
-1.94268e-18
-2.01057e-18
-2.00152e-18
-1.99865e-18
-1.99311e-18
-1.99969e-18
-2.00599e-18
-1.99484e-18
-1.98369e-18
-2.00986e-18
-1.99119e-18
-1.97413e-18
-1.98386e-18
-1.97061e-18
-1.99125e-18
-1.97346e-18
-1.9755e-18
-1.99214e-18
-1.96928e-18
-1.97523e-18
-1.98525e-18
-1.96685e-18
-1.95367e-18
-1.97186e-18
-1.9278e-18
-1.94509e-18
-1.95407e-18
-1.9377e-18
-1.93903e-18
-1.92804e-18
-1.92246e-18
-1.93424e-18
-1.92596e-18
-1.93008e-18
-1.90794e-18
-1.92556e-18
-1.92124e-18
-1.9108e-18
-1.91854e-18
-1.92148e-18
-1.93352e-18
-1.91871e-18
-1.91214e-18
-1.92311e-18
-1.9316e-18
-1.91778e-18
-2.01185e-18
-2.01298e-18
-1.99389e-18
-2.00103e-18
-1.99058e-18
-1.9934e-18
-1.98823e-18
-1.99135e-18
-1.98979e-18
-1.9737e-18
-1.99243e-18
-1.96308e-18
-1.98108e-18
-1.97637e-18
-1.97431e-18
-1.9834e-18
-1.96557e-18
-1.97645e-18
-1.96847e-18
-1.96405e-18
-1.9364e-18
-1.9372e-18
-1.92808e-18
-1.95152e-18
-1.947e-18
-1.9381e-18
-1.94149e-18
-1.92595e-18
-1.92632e-18
-1.92783e-18
-1.9303e-18
-1.91232e-18
-1.90004e-18
-1.92743e-18
-1.92248e-18
-1.91485e-18
-1.91411e-18
-1.91674e-18
-1.92042e-18
-1.92151e-18
-1.91247e-18
-1.91866e-18
-1.92265e-18
-1.91679e-18
-2.00374e-18
-2.01419e-18
-2.00633e-18
-1.99263e-18
-1.99375e-18
-1.99091e-18
-1.9819e-18
-1.99909e-18
-1.98623e-18
-1.98959e-18
-1.95774e-18
-1.97515e-18
-1.971e-18
-1.97691e-18
-1.94921e-18
-1.94494e-18
-1.94895e-18
-1.96486e-18
-1.97634e-18
-1.95182e-18
-1.94917e-18
-1.95966e-18
-1.94561e-18
-1.94145e-18
-1.93104e-18
-1.93606e-18
-1.91185e-18
-1.93332e-18
-1.92079e-18
-1.92027e-18
-1.91468e-18
-1.91154e-18
-1.92486e-18
-1.90013e-18
-1.91399e-18
-1.91545e-18
-1.91789e-18
-1.9136e-18
-1.93937e-18
-1.90983e-18
-1.92137e-18
-1.92022e-18
-1.91115e-18
-1.99758e-18
-1.98987e-18
-1.99167e-18
-1.99184e-18
-1.99523e-18
-1.99673e-18
-1.99054e-18
-1.97433e-18
-1.96735e-18
-1.97649e-18
-1.9691e-18
-1.9907e-18
-1.94278e-18
-1.95621e-18
-1.9593e-18
-1.98332e-18
-1.9726e-18
-1.95311e-18
-1.95675e-18
-1.95019e-18
-1.94301e-18
-1.9309e-18
-1.91275e-18
-1.94419e-18
-1.93158e-18
-1.93007e-18
-1.92003e-18
-1.91937e-18
-1.91395e-18
-1.91677e-18
-1.90546e-18
-1.90875e-18
-1.91771e-18
-1.91333e-18
-1.92391e-18
-1.90754e-18
-1.91948e-18
-1.91597e-18
-1.9244e-18
-1.92645e-18
-1.91285e-18
-2.00748e-18
-1.99035e-18
-1.99793e-18
-1.99596e-18
-1.99049e-18
-1.98445e-18
-1.97673e-18
-1.95488e-18
-1.97563e-18
-1.99847e-18
-1.99222e-18
-1.94479e-18
-1.95022e-18
-1.96303e-18
-1.99194e-18
-1.99172e-18
-1.9541e-18
-1.96723e-18
-1.94766e-18
-1.94191e-18
-1.9289e-18
-1.9134e-18
-1.92256e-18
-1.92731e-18
-1.9155e-18
-1.91368e-18
-1.91994e-18
-1.90474e-18
-1.92559e-18
-1.89864e-18
-1.9037e-18
-1.92457e-18
-1.90267e-18
-1.90786e-18
-1.90964e-18
-1.9189e-18
-1.91991e-18
-1.92357e-18
-1.94802e-18
-1.9268e-18
-1.98496e-18
-1.98185e-18
-1.9767e-18
-1.95026e-18
-1.97392e-18
-1.97045e-18
-1.96617e-18
-1.9575e-18
-1.96199e-18
-1.96211e-18
-1.99571e-18
-1.96892e-18
-1.94707e-18
-1.95427e-18
-1.94782e-18
-1.94301e-18
-1.93441e-18
-1.92642e-18
-1.93496e-18
-1.92412e-18
-1.90171e-18
-1.91231e-18
-1.91039e-18
-1.90945e-18
-1.93125e-18
-1.89896e-18
-1.90817e-18
-1.92615e-18
-1.89977e-18
-1.90074e-18
-1.91464e-18
-1.92743e-18
-1.92594e-18
-1.92607e-18
-1.92239e-18
-1.92063e-18
-1.97415e-18
-1.95018e-18
-1.94764e-18
-1.95315e-18
-1.96204e-18
-1.95867e-18
-1.97115e-18
-1.96445e-18
-1.95152e-18
-1.94536e-18
-1.94772e-18
-1.93878e-18
-1.92695e-18
-1.91527e-18
-1.90739e-18
-1.92105e-18
-1.90826e-18
-1.9109e-18
-1.9012e-18
-1.91147e-18
-1.9094e-18
-1.89849e-18
-1.90027e-18
-1.91369e-18
-1.89998e-18
-1.91022e-18
-1.91751e-18
-1.93606e-18
-1.92387e-18
-1.92071e-18
-1.91242e-18
-1.916e-18
-1.95894e-18
-1.94171e-18
-1.96522e-18
-1.95757e-18
-1.97701e-18
-1.98047e-18
-1.94783e-18
-1.92823e-18
-1.94436e-18
-1.92276e-18
-1.91362e-18
-1.92818e-18
-1.90605e-18
-1.92243e-18
-1.91695e-18
-1.90594e-18
-1.90331e-18
-1.91632e-18
-1.90903e-18
-1.90173e-18
-1.90141e-18
-1.90562e-18
-1.90842e-18
-1.92024e-18
-1.92263e-18
-1.91968e-18
-1.91665e-18
-1.92012e-18
-1.91595e-18
-1.92189e-18
-1.96223e-18
-1.98055e-18
-1.93487e-18
-1.92122e-18
-1.94429e-18
-1.93465e-18
-1.92577e-18
-1.94389e-18
-1.93174e-18
-1.92827e-18
-1.88953e-18
-1.88698e-18
-1.8837e-18
-1.89578e-18
-1.90286e-18
-1.88891e-18
-1.92004e-18
-1.90957e-18
-1.89992e-18
-1.92262e-18
-1.90609e-18
-1.91893e-18
-1.91204e-18
-1.919e-18
-1.91461e-18
-1.92473e-18
-1.93431e-18
-1.92563e-18
-1.94835e-18
-1.925e-18
-1.94081e-18
-1.86602e-18
-1.90232e-18
-1.89069e-18
-1.89173e-18
-1.89007e-18
-1.89141e-18
-1.91802e-18
-1.90681e-18
-1.9114e-18
-1.92093e-18
-1.91001e-18
-1.91076e-18
-1.91108e-18
-1.92042e-18
-1.91059e-18
-1.93007e-18
-1.92757e-18
-1.91922e-18
-1.84001e-18
-1.90534e-18
-1.88889e-18
-1.89721e-18
-1.90373e-18
-1.90304e-18
-1.91179e-18
-1.90463e-18
-1.91877e-18
-1.92013e-18
-1.91423e-18
-1.91431e-18
-1.9144e-18
-1.91995e-18
-1.91859e-18
-1.92955e-18
-1.81081e-18
-1.89742e-18
-1.90247e-18
-1.89173e-18
-1.90182e-18
-1.90359e-18
-1.91146e-18
-1.90702e-18
-1.90808e-18
-1.90934e-18
-1.90904e-18
-1.91235e-18
-1.91902e-18
-1.91254e-18
-1.92428e-18
-1.92411e-18
-1.76086e-18
-1.91495e-18
-1.90208e-18
-1.89907e-18
-1.89878e-18
-1.90024e-18
-1.90809e-18
-1.90829e-18
-1.91126e-18
-1.91328e-18
-1.91417e-18
-1.89866e-18
-1.91738e-18
-1.90248e-18
-1.93265e-18
-1.92403e-18
-1.46437e-18
-1.90113e-18
-1.89189e-18
-1.90085e-18
-1.90898e-18
-1.89565e-18
-1.90926e-18
-1.912e-18
-1.91166e-18
-1.90912e-18
-1.9139e-18
-1.91492e-18
-1.92442e-18
-1.91797e-18
-1.93087e-18
-1.92319e-18
-1.89792e-18
-1.89842e-18
-1.89202e-18
-1.91007e-18
-1.91871e-18
-1.90631e-18
-1.89619e-18
-1.92639e-18
-1.92632e-18
-1.91514e-18
-1.93214e-18
-1.91528e-18
-1.92195e-18
-1.91079e-18
-1.89315e-18
-1.92282e-18
-1.91528e-18
-1.92333e-18
-1.93777e-18
-1.91952e-18
-1.92369e-18
-1.91541e-18
-1.9175e-18
-1.92025e-18
-1.93369e-18
-1.92059e-18
-2.01944e-18
-2.02813e-18
-2.03149e-18
-2.05395e-18
-2.02882e-18
-2.0278e-18
-2.02063e-18
-2.00023e-18
-2.04432e-18
-2.02915e-18
-2.00736e-18
-2.06487e-18
-2.03742e-18
-2.04476e-18
-2.00524e-18
-2.04698e-18
-2.03277e-18
-2.03723e-18
-2.00702e-18
-2.04346e-18
-2.00162e-18
-2.01582e-18
-2.04648e-18
-2.02577e-18
-2.01808e-18
-2.01614e-18
-2.01286e-18
-2.0141e-18
-2.02716e-18
-2.03992e-18
-2.00414e-18
-2.03121e-18
-1.99077e-18
-2.04106e-18
-2.02982e-18
-2.02228e-18
-2.03247e-18
-2.04956e-18
-2.02142e-18
-1.99563e-18
-1.99032e-18
-2.01791e-18
-2.02063e-18
-2.02209e-18
-2.02445e-18
-2.02881e-18
-2.05171e-18
-2.05193e-18
-2.02448e-18
-2.02288e-18
-2.02133e-18
-2.00959e-18
-1.99137e-18
-2.00766e-18
-1.98906e-18
-2.01637e-18
-2.03492e-18
-2.00228e-18
-1.98942e-18
-1.99882e-18
-2.03973e-18
-2.05386e-18
-2.03386e-18
-2.04683e-18
-2.03361e-18
-2.02787e-18
-2.02457e-18
-2.01822e-18
-2.01723e-18
-2.02483e-18
-2.01701e-18
-1.99864e-18
-2.01954e-18
-2.01816e-18
-2.01332e-18
-1.9975e-18
-2.0251e-18
-2.038e-18
-2.02532e-18
-2.01693e-18
-2.01523e-18
-2.01941e-18
-2.02669e-18
-2.03923e-18
-2.02621e-18
-2.04857e-18
-2.04836e-18
-2.01934e-18
-2.00066e-18
-2.01734e-18
-2.02234e-18
-2.03102e-18
-2.04057e-18
-2.02531e-18
-2.04557e-18
-2.02608e-18
-2.01968e-18
-2.0216e-18
-2.01547e-18
-1.98863e-18
-1.99127e-18
-1.99161e-18
-1.98701e-18
-1.99422e-18
-2.01346e-18
-1.99761e-18
-2.01143e-18
-2.0179e-18
-2.0151e-18
-2.01431e-18
-2.03994e-18
-2.01867e-18
-2.02306e-18
-2.04658e-18
-2.04991e-18
-2.02424e-18
-2.00786e-18
-1.99874e-18
-2.01999e-18
-2.0194e-18
-1.99706e-18
-1.99577e-18
-2.01988e-18
-2.01681e-18
-2.02321e-18
-2.01911e-18
-1.99622e-18
-1.99441e-18
-2.01375e-18
-2.01555e-18
-2.02348e-18
-2.04563e-18
-2.0225e-18
-2.00821e-18
-2.00037e-18
-2.00924e-18
-1.98614e-18
-1.96797e-18
-1.99015e-18
-2.00988e-18
-1.99387e-18
-1.99591e-18
-2.02001e-18
-2.0172e-18
-1.99943e-18
-2.01679e-18
-2.03896e-18
-2.02088e-18
-2.01493e-18
-2.01384e-18
-1.99613e-18
-1.9948e-18
-2.0188e-18
-2.02446e-18
-2.03849e-18
-2.02596e-18
-2.02123e-18
-2.00381e-18
-2.04007e-18
-2.03155e-18
-2.01791e-18
-2.02276e-18
-2.04065e-18
-2.01802e-18
-2.01419e-18
-2.03035e-18
-2.01494e-18
-2.00745e-18
-1.9999e-18
-1.99817e-18
-2.01603e-18
-2.01612e-18
-2.01611e-18
-2.0161e-18
-2.00225e-18
-2.01644e-18
-2.02282e-18
-2.02463e-18
-2.01752e-18
-2.01616e-18
-2.01848e-18
-2.0266e-18
-2.04351e-18
-2.04827e-18
-2.02181e-18
-2.01272e-18
-2.00333e-18
-2.01329e-18
-2.01347e-18
-2.01644e-18
-2.01895e-18
-2.01584e-18
-2.01997e-18
-2.02303e-18
-2.01347e-18
-1.98056e-18
-2.01746e-18
-2.03711e-18
-2.02009e-18
-1.99816e-18
-2.01545e-18
-2.01757e-18
-2.01115e-18
-2.02257e-18
-2.03109e-18
-2.03951e-18
-2.02065e-18
-2.01806e-18
-2.00506e-18
-2.03498e-18
-2.00874e-18
-2.03376e-18
-1.9999e-18
-2.01976e-18
-2.00945e-18
-1.99534e-18
-1.99576e-18
-1.99344e-18
-1.99054e-18
-2.01059e-18
-2.03755e-18
-2.04508e-18
-2.03194e-18
-1.98665e-18
-2.00234e-18
-2.02283e-18
-2.01808e-18
-1.99176e-18
-2.01347e-18
-2.01644e-18
-2.00309e-18
-2.03828e-18
-2.0543e-18
-2.01648e-18
-1.99725e-18
-2.01478e-18
-2.01697e-18
-2.02163e-18
-2.01208e-18
-2.01717e-18
-2.01264e-18
-2.03357e-18
-1.9989e-18
-2.01294e-18
-2.03171e-18
-2.0149e-18
-1.99519e-18
-1.99781e-18
-2.0175e-18
-2.04058e-18
-2.01441e-18
-2.01389e-18
-1.98917e-18
-2.02068e-18
-2.0196e-18
-1.98462e-18
-2.01274e-18
-2.0197e-18
-2.02061e-18
-2.0222e-18
-2.02218e-18
-2.0041e-18
-2.01361e-18
-2.02161e-18
-2.01927e-18
-2.0188e-18
-1.99621e-18
-2.01131e-18
-2.00534e-18
-2.01944e-18
-2.00918e-18
-2.01914e-18
-2.02163e-18
-2.01847e-18
-2.02864e-18
-2.03101e-18
-2.01816e-18
-2.01433e-18
-1.99652e-18
-2.02642e-18
-2.02354e-18
-2.04071e-18
-2.03917e-18
-2.01747e-18
-2.01924e-18
-2.02341e-18
-2.03672e-18
-2.03126e-18
-2.02322e-18
-2.05048e-18
-2.04068e-18
-2.03953e-18
-2.0242e-18
-2.03303e-18
-2.00632e-18
-2.02063e-18
-2.03704e-18
-2.01781e-18
-2.00105e-18
-2.02366e-18
-2.01696e-18
-1.99315e-18
-1.99787e-18
-2.00095e-18
-2.01676e-18
-2.01437e-18
-2.00744e-18
-1.9989e-18
-2.03682e-18
-2.02563e-18
-2.01914e-18
-2.01655e-18
-2.02362e-18
-2.03473e-18
-2.0212e-18
-2.00196e-18
-2.01417e-18
-2.03529e-18
-2.02471e-18
-2.03747e-18
-2.0248e-18
-2.02251e-18
-2.04751e-18
-2.04193e-18
-2.04105e-18
-2.01646e-18
-2.01744e-18
-2.04357e-18
-2.01952e-18
-2.00063e-18
-2.0085e-18
-2.00536e-18
-2.01265e-18
-2.01511e-18
-2.00572e-18
-2.01039e-18
-2.03487e-18
-2.02244e-18
-2.00158e-18
-1.99927e-18
-2.03479e-18
-2.02434e-18
-2.01929e-18
-2.01319e-18
-1.99729e-18
-1.98963e-18
-2.00915e-18
-2.02191e-18
-2.03165e-18
-2.00361e-18
-2.02467e-18
-2.0269e-18
-2.01688e-18
-2.01386e-18
-1.9996e-18
-2.00298e-18
-2.04044e-18
-2.03219e-18
-2.01011e-18
-1.993e-18
-1.99781e-18
-2.01055e-18
-1.99826e-18
-2.01637e-18
-2.02417e-18
-2.03409e-18
-2.01872e-18
-2.0039e-18
-2.03439e-18
-2.03387e-18
-2.02824e-18
-2.03512e-18
-2.01532e-18
-2.0102e-18
-2.00334e-18
-2.01899e-18
-2.02149e-18
-2.01352e-18
-2.03843e-18
-2.03665e-18
-2.00311e-18
-2.01233e-18
-2.01365e-18
-1.99718e-18
-2.04892e-18
-2.00857e-18
-1.98424e-18
-2.0081e-18
-2.0118e-18
-2.01891e-18
-2.01736e-18
-2.02982e-18
-2.01972e-18
-2.01764e-18
-2.02777e-18
-2.0185e-18
-2.02728e-18
-2.00478e-18
-2.04591e-18
-2.03657e-18
-2.01737e-18
-2.00835e-18
-2.01966e-18
-1.99754e-18
-2.0252e-18
-2.02771e-18
-2.0067e-18
-2.01031e-18
-2.01998e-18
-2.03758e-18
-2.02682e-18
-2.00535e-18
-2.03401e-18
-2.0002e-18
-2.01182e-18
-2.01306e-18
-2.01377e-18
-2.00186e-18
-2.01695e-18
-2.03159e-18
-1.99279e-18
-2.01021e-18
-2.01438e-18
-2.02457e-18
-2.00451e-18
-2.00453e-18
-2.00548e-18
-2.01254e-18
-1.99928e-18
-1.99801e-18
-2.01384e-18
-2.00226e-18
-2.00284e-18
-2.00966e-18
-2.00511e-18
-1.98839e-18
-1.98962e-18
-1.97781e-18
-1.9772e-18
-1.99498e-18
-2.00064e-18
-2.00286e-18
-2.00575e-18
-2.01921e-18
-2.0076e-18
-2.00462e-18
-2.01661e-18
-2.01952e-18
-2.01607e-18
-2.01883e-18
-2.00896e-18
-2.0053e-18
-2.00162e-18
-2.01074e-18
-1.99206e-18
-1.99699e-18
-1.99893e-18
-1.9991e-18
-1.99951e-18
-2.00228e-18
-2.01285e-18
-1.9881e-18
-1.99003e-18
-1.98219e-18
-1.99299e-18
-2.00094e-18
-1.99825e-18
-1.99891e-18
-2.00019e-18
-1.99056e-18
-2.01002e-18
-2.0008e-18
-2.00503e-18
-2.01213e-18
-2.00968e-18
-2.00288e-18
-2.00985e-18
-1.99397e-18
-1.99274e-18
-1.99004e-18
-1.99109e-18
-1.98684e-18
-1.97692e-18
-1.993e-18
-1.99513e-18
-1.99491e-18
-1.99682e-18
-1.9993e-18
-1.99805e-18
-2.00446e-18
-2.0194e-18
-2.00597e-18
-2.00166e-18
-2.00189e-18
-1.9902e-18
-2.00285e-18
-2.01791e-18
-2.01477e-18
-1.99814e-18
-2.00026e-18
-2.01387e-18
-2.008e-18
-1.99261e-18
-1.99201e-18
-1.99864e-18
-2.00816e-18
-2.01121e-18
-1.9996e-18
-1.98923e-18
-1.97697e-18
-1.99507e-18
-2.01199e-18
-2.00382e-18
-2.01065e-18
-2.00084e-18
-1.99791e-18
-1.99598e-18
-1.99004e-18
-1.99737e-18
-2.00367e-18
-2.00175e-18
-2.00263e-18
-2.00382e-18
-1.9867e-18
-1.98754e-18
-1.98726e-18
-1.98759e-18
-1.99467e-18
-2.01329e-18
-2.01801e-18
-2.01449e-18
-1.99661e-18
-1.9841e-18
-2.00968e-18
-2.01958e-18
-2.00729e-18
-2.01329e-18
-2.00072e-18
-1.98668e-18
-2.00155e-18
-2.01519e-18
-2.00194e-18
-2.00302e-18
-2.00324e-18
-2.0033e-18
-1.9976e-18
-1.99737e-18
-2.00145e-18
-2.02318e-18
-2.01412e-18
-1.98531e-18
-1.99645e-18
-1.99858e-18
-1.99187e-18
-1.99282e-18
-1.99652e-18
-2.00349e-18
-1.99338e-18
-1.99055e-18
-2.00088e-18
-1.99373e-18
-2.00032e-18
-1.98965e-18
-1.9885e-18
-1.99445e-18
-2.00076e-18
-1.97615e-18
-1.992e-18
-2.0036e-18
-1.98132e-18
-1.99165e-18
-2.00134e-18
-1.98129e-18
-1.98668e-18
-1.99009e-18
-1.99039e-18
-1.99101e-18
-1.98791e-18
-1.97517e-18
-1.98752e-18
-1.99408e-18
-1.99426e-18
-1.9957e-18
-1.99302e-18
-1.98344e-18
-1.98996e-18
-1.98496e-18
-1.99622e-18
-2.00123e-18
-1.98828e-18
-1.97877e-18
-2.01938e-18
-2.01794e-18
-1.99637e-18
-2.00873e-18
-2.01181e-18
-1.99698e-18
-1.98973e-18
-1.99107e-18
-1.99125e-18
-1.98266e-18
-1.9754e-18
-1.99385e-18
-1.98774e-18
-1.98672e-18
-1.98208e-18
-1.98363e-18
-1.98911e-18
-1.9672e-18
-1.96218e-18
-1.98539e-18
-2.00449e-18
-1.99442e-18
-1.99182e-18
-1.99209e-18
-1.98954e-18
-1.99576e-18
-1.99857e-18
-1.99563e-18
-1.99575e-18
-1.99992e-18
-2.01285e-18
-2.00048e-18
-1.99642e-18
-1.99266e-18
-1.98547e-18
-2.00876e-18
-2.0045e-18
-1.99993e-18
-2.00097e-18
-2.00607e-18
-2.0156e-18
-1.99392e-18
-1.97984e-18
-2.01188e-18
-2.00176e-18
-1.99232e-18
-1.97526e-18
-1.98811e-18
-1.99851e-18
-1.97365e-18
-1.98719e-18
-1.99597e-18
-1.96996e-18
-1.97463e-18
-1.97028e-18
-1.98697e-18
-2.00265e-18
-1.95864e-18
-1.96568e-18
-2.0034e-18
-2.01096e-18
-2.01017e-18
-1.99377e-18
-1.99511e-18
-2.00276e-18
-1.98069e-18
-1.99438e-18
-2.01034e-18
-1.99445e-18
-1.97905e-18
-1.98402e-18
-1.97613e-18
-1.98769e-18
-1.99777e-18
-2.00979e-18
-1.99761e-18
-1.99895e-18
-2.01416e-18
-2.01915e-18
-2.01009e-18
-1.98102e-18
-1.978e-18
-1.9927e-18
-1.99886e-18
-2.00803e-18
-1.99663e-18
-1.98857e-18
-1.99491e-18
-1.99674e-18
-2.0212e-18
-2.01515e-18
-1.9973e-18
-2.01333e-18
-2.01075e-18
-1.98288e-18
-1.96744e-18
-1.96747e-18
-1.97607e-18
-1.98342e-18
-1.97859e-18
-1.95449e-18
-1.97539e-18
-1.97916e-18
-1.98747e-18
-1.98077e-18
-1.97595e-18
-1.98047e-18
-2.00145e-18
-1.99269e-18
-1.99933e-18
-1.98685e-18
-1.98573e-18
-1.98191e-18
-1.97159e-18
-1.98446e-18
-1.98976e-18
-1.9922e-18
-1.99925e-18
-1.98367e-18
-1.99866e-18
-1.98373e-18
-2.00176e-18
-1.99541e-18
-1.99088e-18
-1.9905e-18
-1.99146e-18
-1.99225e-18
-1.99291e-18
-1.99386e-18
-1.99602e-18
-1.99792e-18
-1.99848e-18
-2.00526e-18
-1.97602e-18
-2.01443e-18
-1.9771e-18
-1.9772e-18
-2.02233e-18
-2.01502e-18
-1.97237e-18
-1.99108e-18
-1.99156e-18
-1.96902e-18
-1.97987e-18
-1.97957e-18
-1.96516e-18
-1.98523e-18
-1.99704e-18
-1.98182e-18
-1.98621e-18
-1.96927e-18
-1.96975e-18
-1.95383e-18
-1.96668e-18
-1.96768e-18
-2.00587e-18
-1.991e-18
-1.986e-18
-1.98565e-18
-1.98712e-18
-1.98768e-18
-1.99178e-18
-2.00841e-18
-2.01043e-18
-1.99436e-18
-1.9926e-18
-1.9943e-18
-2.00913e-18
-2.00273e-18
-1.98113e-18
-1.98625e-18
-1.98965e-18
-1.99049e-18
-1.98918e-18
-1.98535e-18
-1.99205e-18
-1.99492e-18
-1.99564e-18
-1.99516e-18
-1.99708e-18
-2.03363e-18
-1.9946e-18
-2.00159e-18
-1.99794e-18
-1.99533e-18
-2.01679e-18
-1.99483e-18
-1.97047e-18
-1.98837e-18