/*--------------------------------*- C++ -*----------------------------------*\
  =========                 |
  \\      /  F ield         | OpenFOAM: The Open Source CFD Toolbox
   \\    /   O peration     | Website:  https://openfoam.org
    \\  /    A nd           | Version:  7
     \\/     M anipulation  |
\*---------------------------------------------------------------------------*/
FoamFile
{
    version     2.0;
    format      ascii;
    class       volScalarField;
    location    "176000";
    object      strainRate;
}
// * * * * * * * * * * * * * * * * * * * * * * * * * * * * * * * * * * * * * //

dimensions      [0 0 -1 0 0 0 0];

internalField   nonuniform List<scalar> 
4838
(
0.00197451
0.00186835
0.00179282
0.00169593
0.00158919
0.00147806
0.00136512
0.00125182
0.00113918
0.0010282
0.000920109
0.000816471
0.000719096
0.000629824
0.000550163
0.000481024
0.000422575
0.000374288
0.000335411
0.000304848
0.000281344
0.000263704
0.00025123
0.000243312
0.000239475
0.000239475
0.000243312
0.00025123
0.000263704
0.000281344
0.000304848
0.000335411
0.000374288
0.000422575
0.000481024
0.000550163
0.000629824
0.000719097
0.000816471
0.00092011
0.0010282
0.00113918
0.00125182
0.00136512
0.00147806
0.00158919
0.00169593
0.00179282
0.00186835
0.00197451
0.00257422
0.00224897
0.00215378
0.00204882
0.00193481
0.00181562
0.00169448
0.0015736
0.00145442
0.00133795
0.001225
0.00111638
0.00101302
0.000915994
0.000826388
0.000745207
0.000673184
0.000610684
0.000557705
0.000513933
0.000478795
0.000451593
0.000431765
0.00041885
0.00041249
0.00041249
0.00041885
0.000431765
0.000451593
0.000478795
0.000513933
0.000557705
0.000610684
0.000673184
0.000745207
0.000826388
0.000915994
0.00101303
0.00111638
0.001225
0.00133795
0.00145442
0.0015736
0.00169448
0.00181562
0.00193481
0.00204882
0.00215379
0.00224898
0.00257422
0.00295842
0.00255796
0.00243078
0.00231535
0.00220184
0.00208718
0.00197148
0.0018558
0.00174134
0.0016291
0.00151989
0.00141439
0.00131326
0.00121716
0.00112685
0.0010431
0.000966681
0.000898247
0.000838277
0.000787055
0.000744669
0.000711047
0.000686036
0.000669476
0.000661235
0.000661235
0.000669477
0.000686036
0.000711047
0.000744669
0.000787055
0.000838277
0.000898247
0.000966681
0.0010431
0.00112685
0.00121716
0.00131326
0.00141439
0.00151989
0.0016291
0.00174134
0.00185581
0.00197148
0.00208718
0.00220184
0.00231535
0.00243078
0.00255796
0.00295842
0.00325846
0.00286283
0.00271932
0.00259001
0.00246962
0.00235379
0.00224028
0.00212847
0.00201855
0.00191106
0.0018066
0.00170573
0.00160899
0.0015169
0.00142999
0.0013488
0.00127392
0.00120596
0.00114545
0.00109288
0.00104865
0.00101302
0.000986191
0.000968253
0.000959271
0.000959271
0.000968253
0.000986191
0.00101302
0.00104865
0.00109289
0.00114545
0.00120596
0.00127392
0.0013488
0.00142999
0.00151691
0.00160899
0.00170573
0.0018066
0.00191106
0.00201855
0.00212847
0.00224028
0.00235379
0.00246962
0.00259001
0.00271932
0.00286284
0.00325846
0.00353513
0.00315424
0.00300909
0.00287305
0.00274607
0.00262618
0.00251138
0.0024004
0.00229271
0.00218828
0.00208736
0.00199031
0.00189754
0.00180948
0.00172654
0.00164914
0.00157774
0.0015128
0.00145477
0.00140412
0.00136125
0.00132652
0.00130022
0.00128257
0.00127371
0.00127371
0.00128257
0.00130022
0.00132652
0.00136125
0.00140412
0.00145477
0.0015128
0.00157774
0.00164914
0.00172654
0.00180948
0.00189754
0.00199031
0.00208736
0.00218828
0.00229272
0.00240041
0.00251138
0.00262618
0.00274607
0.00287306
0.0030091
0.00315424
0.00353513
0.00380233
0.00343453
0.00329227
0.00315548
0.00302558
0.00290258
0.00278564
0.00267387
0.00256661
0.00246356
0.00236467
0.00227013
0.00218018
0.00209516
0.00201539
0.00194123
0.00187303
0.00181117
0.00175601
0.00170792
0.00166724
0.00163428
0.00160931
0.00159255
0.00158413
0.00158413
0.00159255
0.00160931
0.00163428
0.00166724
0.00170792
0.00175601
0.00181117
0.00187303
0.00194123
0.00201539
0.00209516
0.00218019
0.00227013
0.00236468
0.00246356
0.00256662
0.00267388
0.00278565
0.00290258
0.00302559
0.00315548
0.00329227
0.00343453
0.00380233
0.00406343
0.00370719
0.0035681
0.00343299
0.00330305
0.00317895
0.00306072
0.00294804
0.00284052
0.00273788
0.00263999
0.0025469
0.00245874
0.00237575
0.00229819
0.00222634
0.00216051
0.002101
0.0020481
0.00200211
0.0019633
0.00193191
0.00190817
0.00189225
0.00188426
0.00188426
0.00189225
0.00190817
0.00193191
0.0019633
0.00200211
0.0020481
0.002101
0.00216051
0.00222634
0.00229819
0.00237575
0.00245874
0.0025469
0.00263999
0.00273788
0.00284052
0.00294804
0.00306072
0.00317895
0.00330305
0.00343299
0.0035681
0.00370719
0.00406343
0.00431987
0.00397432
0.00383786
0.00370493
0.00357627
0.00345256
0.00333416
0.00322116
0.00311348
0.00301099
0.00291361
0.00282136
0.00273433
0.00265266
0.00257658
0.00250632
0.00244213
0.00238425
0.00233294
0.00228844
0.00225097
0.00222074
0.0021979
0.00218259
0.00217492
0.00217492
0.00218259
0.0021979
0.00222074
0.00225097
0.00228844
0.00233294
0.00238425
0.00244213
0.00250632
0.00257659
0.00265267
0.00273433
0.00282136
0.00291362
0.00301099
0.00311348
0.00322116
0.00333416
0.00345256
0.00357628
0.00370493
0.00383787
0.00397433
0.00431987
0.0045726
0.00423715
0.00410284
0.00397194
0.00384493
0.00372233
0.00360456
0.00349188
0.00338441
0.00328218
0.00318522
0.00309357
0.00300731
0.00292658
0.00285154
0.00278239
0.00271935
0.00266263
0.00261244
0.00256898
0.00253245
0.00250301
0.0024808
0.00246593
0.00245847
0.00245847
0.00246593
0.0024808
0.00250301
0.00253245
0.00256898
0.00261244
0.00266263
0.00271935
0.0027824
0.00285154
0.00292658
0.00300731
0.00309357
0.00318522
0.00328218
0.00338441
0.00349188
0.00360456
0.00372233
0.00384493
0.00397194
0.00410284
0.00423715
0.00457261
0.00482231
0.00449641
0.00436392
0.00423481
0.00410943
0.00398818
0.00387143
0.00375949
0.00365258
0.00355085
0.00345439
0.00336331
0.0032777
0.0031977
0.00312347
0.00305517
0.002993
0.00293714
0.00288777
0.00284509
0.00280924
0.00278038
0.00275862
0.00274406
0.00273677
0.00273677
0.00274406
0.00275862
0.00278038
0.00280924
0.00284509
0.00288777
0.00293714
0.002993
0.00305517
0.00312347
0.0031977
0.0032777
0.00336331
0.00345439
0.00355085
0.00365259
0.00375949
0.00387143
0.00398818
0.00410943
0.00423481
0.00436393
0.00449642
0.00482231
0.00506949
0.00475267
0.00462175
0.0044942
0.00437031
0.00425041
0.00413482
0.00402384
0.00391772
0.00381667
0.00372083
0.00363036
0.00354539
0.00346605
0.00339251
0.00332492
0.00326346
0.0032083
0.00315959
0.00311751
0.00308221
0.00305379
0.00303239
0.00301807
0.0030109
0.0030109
0.00301807
0.00303239
0.00305379
0.00308221
0.00311752
0.00315959
0.0032083
0.00326346
0.00332493
0.00339251
0.00346606
0.00354539
0.00363036
0.00372083
0.00381667
0.00391773
0.00402385
0.00413483
0.00425042
0.00437032
0.0044942
0.00462175
0.00475267
0.0050695
0.00531456
0.00500632
0.00487679
0.00475062
0.00462808
0.00450945
0.00439502
0.00428506
0.00417984
0.00407957
0.00398445
0.00389465
0.00381032
0.00373163
0.00365873
0.00359178
0.00353095
0.00347638
0.00342824
0.00338667
0.00335181
0.00332378
0.00330266
0.00328854
0.00328147
0.00328147
0.00328854
0.00330266
0.00332378
0.00335182
0.00338668
0.00342824
0.00347638
0.00353095
0.00359179
0.00365873
0.00373163
0.00381032
0.00389465
0.00398445
0.00407957
0.00417984
0.00428507
0.00439502
0.00450945
0.00462808
0.00475062
0.0048768
0.00500633
0.00531457
0.00555785
0.00525773
0.00512943
0.00500448
0.00488315
0.00476568
0.00465235
0.0045434
0.00443909
0.00433966
0.00424529
0.0041562
0.00407254
0.00399449
0.00392221
0.00385586
0.00379559
0.00374157
0.00369393
0.00365282
0.00361835
0.00359064
0.00356978
0.00355583
0.00354884
0.00354884
0.00355583
0.00356978
0.00359064
0.00361835
0.00365282
0.00369393
0.00374157
0.0037956
0.00385586
0.00392221
0.00399449
0.00407254
0.0041562
0.0042453
0.00433966
0.0044391
0.0045434
0.00465235
0.00476568
0.00488315
0.00500448
0.00512943
0.00525774
0.00555786
0.00579964
0.00550719
0.00537998
0.00525612
0.00513586
0.00501945
0.00490713
0.00479915
0.00469573
0.00459712
0.00450352
0.00441514
0.00433215
0.00425473
0.00418305
0.00411727
0.00405755
0.00400403
0.00395685
0.00391615
0.00388204
0.00385462
0.00383398
0.00382019
0.00381328
0.00381328
0.00382019
0.00383398
0.00385462
0.00388204
0.00391615
0.00395685
0.00400403
0.00405755
0.00411727
0.00418305
0.00425473
0.00433215
0.00441514
0.00450353
0.00459712
0.00469574
0.00479915
0.00490714
0.00501946
0.00513587
0.00525612
0.00537998
0.0055072
0.00579965
0.0060402
0.00575497
0.00562873
0.00550583
0.00538654
0.00527108
0.00515968
0.00505258
0.00495001
0.0048522
0.00475934
0.00467165
0.00458932
0.00451251
0.00444141
0.00437618
0.00431697
0.00426392
0.00421717
0.00417684
0.00414306
0.00411591
0.00409548
0.00408182
0.00407498
0.00407498
0.00408182
0.00409548
0.00411591
0.00414306
0.00417685
0.00421717
0.00426392
0.00431697
0.00437618
0.00444142
0.00451252
0.00458932
0.00467165
0.00475934
0.0048522
0.00495002
0.00505259
0.00515969
0.00527109
0.00538655
0.00550584
0.00562873
0.00575498
0.00604021
0.00627975
0.00600133
0.00587593
0.00575389
0.00563545
0.00552084
0.00541028
0.00530399
0.0052022
0.00510512
0.00501297
0.00492594
0.00484423
0.00476802
0.00469747
0.00463276
0.00457402
0.00452142
0.00447507
0.0044351
0.00440161
0.00437471
0.00435447
0.00434094
0.00433416
0.00433416
0.00434094
0.00435447
0.00437471
0.00440162
0.0044351
0.00447507
0.00452142
0.00457403
0.00463276
0.00469748
0.00476802
0.00484424
0.00492595
0.00501297
0.00510512
0.0052022
0.00530399
0.00541028
0.00552085
0.00563546
0.0057539
0.00587593
0.00600133
0.00627975
0.0065185
0.00624648
0.00612182
0.00600053
0.00588285
0.00576899
0.00565917
0.00555361
0.00545253
0.00535613
0.00526463
0.00517823
0.00509711
0.00502145
0.00495142
0.0048872
0.00482891
0.00477672
0.00473074
0.0046911
0.00465789
0.00463122
0.00461115
0.00459774
0.00459102
0.00459102
0.00459774
0.00461115
0.00463122
0.0046579
0.0046911
0.00473074
0.00477672
0.00482892
0.0048872
0.00495143
0.00502145
0.00509711
0.00517823
0.00526464
0.00535614
0.00545253
0.00555361
0.00565918
0.005769
0.00588286
0.00600054
0.00612183
0.00624649
0.0065185
0.00675665
0.00649066
0.00636663
0.00624599
0.00612897
0.00601577
0.0059066
0.00580169
0.00570125
0.00560547
0.00551457
0.00542873
0.00534815
0.00527301
0.00520347
0.00513969
0.00508183
0.00503002
0.00498438
0.00494504
0.0049121
0.00488563
0.00486572
0.00485242
0.00484576
0.00484576
0.00485242
0.00486572
0.00488563
0.0049121
0.00494504
0.00498439
0.00503002
0.00508183
0.0051397
0.00520347
0.00527301
0.00534816
0.00542874
0.00551457
0.00560547
0.00570125
0.0058017
0.00590661
0.00601577
0.00612897
0.006246
0.00636664
0.00649066
0.00675666
0.0069944
0.00673405
0.00661057
0.00649048
0.00637402
0.00626139
0.0061528
0.00604846
0.00594858
0.00585335
0.00576299
0.00567767
0.00559759
0.00552291
0.00545382
0.00539046
0.00533298
0.00528152
0.0052362
0.00519713
0.00516443
0.00513815
0.00511839
0.00510518
0.00509857
0.00509857
0.00510518
0.00511839
0.00513816
0.00516443
0.00519714
0.0052362
0.00528152
0.00533298
0.00539046
0.00545382
0.00552292
0.00559759
0.00567768
0.00576299
0.00585336
0.00594858
0.00604847
0.00615281
0.0062614
0.00637403
0.00649049
0.00661058
0.00673406
0.0069944
0.00685383
0.00673421
0.00661822
0.00650608
0.00639798
0.00629414
0.00619475
0.00610001
0.00601011
0.00592526
0.00584562
0.00577137
0.00570267
0.00563969
0.00558256
0.00553142
0.00548639
0.00544757
0.00541508
0.00538898
0.00536935
0.00535624
0.00534967
0.00534967
0.00535624
0.00536935
0.00538898
0.00541508
0.00544758
0.00548639
0.00553142
0.00558256
0.00563969
0.00570268
0.00577137
0.00584562
0.00592526
0.00601012
0.00610001
0.00619475
0.00629414
0.00639799
0.00650609
0.00661823
0.00673422
0.00685384
0.00697688
0.00723191
0.00697736
0.00686177
0.00675003
0.00664235
0.00653892
0.00643995
0.00634563
0.00625615
0.0061717
0.00609245
0.00601858
0.00595024
0.00588759
0.00583078
0.00577992
0.00573515
0.00569656
0.00566426
0.00563832
0.00561881
0.00560577
0.00559925
0.00559925
0.00560578
0.00561881
0.00563832
0.00566426
0.00569657
0.00573515
0.00577992
0.00583078
0.0058876
0.00595025
0.00601858
0.00609246
0.0061717
0.00625616
0.00634564
0.00643996
0.00653893
0.00664235
0.00675004
0.00686178
0.00697737
0.00709662
0.0072193
0.00746936
0.00699344
0.00688609
0.00678301
0.00668439
0.00659043
0.0065013
0.0064172
0.00633829
0.00626474
0.00619672
0.00613437
0.00607783
0.00602722
0.00598268
0.0059443
0.00591217
0.00588637
0.00586696
0.005854
0.00584751
0.00584751
0.005854
0.00586696
0.00588637
0.00591217
0.0059443
0.00598268
0.00602723
0.00607783
0.00613437
0.00619672
0.00626475
0.00633829
0.0064172
0.00650131
0.00659043
0.0066844
0.00678302
0.0068861
0.00699344
0.00710486
0.00722014
0.00733909
0.0074615
0.00770691
0.0071294
0.0070266
0.00692827
0.00683459
0.00674576
0.00666194
0.00658332
0.00651006
0.0064423
0.0063802
0.0063239
0.00627352
0.00622918
0.00619097
0.00615899
0.00613332
0.006114
0.0061011
0.00609465
0.00609465
0.00610111
0.00611401
0.00613332
0.00615899
0.00619097
0.00622918
0.00627353
0.00632391
0.00638021
0.00644231
0.00651006
0.00658333
0.00666195
0.00674576
0.0068346
0.00692827
0.00702661
0.00712941
0.00723649
0.00734766
0.00746271
0.00758145
0.00770366
0.00794471
0.00726987
0.00717176
0.00707831
0.00698971
0.00690613
0.00682774
0.00675471
0.00668718
0.0066253
0.0065692
0.00651901
0.00647483
0.00643678
0.00640493
0.00637936
0.00636013
0.00634728
0.00634085
0.00634085
0.00634728
0.00636013
0.00637936
0.00640493
0.00643678
0.00647484
0.00651901
0.0065692
0.0066253
0.00668718
0.00675471
0.00682775
0.00690614
0.00698971
0.00707832
0.00717176
0.00726988
0.00737247
0.00747936
0.00759035
0.00770524
0.00782384
0.00794594
0.00818292
0.00732176
0.00723333
0.00714994
0.00707174
0.00699888
0.00693154
0.00686983
0.0068139
0.00676386
0.00671983
0.0066819
0.00665016
0.00662468
0.00660552
0.00659272
0.00658631
0.00658631
0.00659272
0.00660552
0.00662468
0.00665017
0.00668191
0.00671984
0.00676387
0.0068139
0.00686984
0.00693154
0.00699889
0.00707174
0.00714994
0.00723334
0.00732177
0.00741505
0.007513
0.00761546
0.00772222
0.0078331
0.00794791
0.00806645
0.00818851
0.00842168
0.00747681
0.00739355
0.00731548
0.00724276
0.00717555
0.00711398
0.00705818
0.00700827
0.00696436
0.00692653
0.00689488
0.00686947
0.00685036
0.0068376
0.00683121
0.00683121
0.0068376
0.00685037
0.00686947
0.00689488
0.00692653
0.00696436
0.00700828
0.00705819
0.00711399
0.00717556
0.00724277
0.00731548
0.00739355
0.00747682
0.00756512
0.00765829
0.00775616
0.00785853
0.00796524
0.00807608
0.00819088
0.00830943
0.00843152
0.00866115
0.00741941
0.00735794
0.00730223
0.00725241
0.00720858
0.00717083
0.00713925
0.0071139
0.00709484
0.00708211
0.00707573
0.00707573
0.00708211
0.00709484
0.0071139
0.00713925
0.00717084
0.00720859
0.00725242
0.00730224
0.00735794
0.00741941
0.00748653
0.00755915
0.00763713
0.00772032
0.00780856
0.00790168
0.00799951
0.00810187
0.00820858
0.00831945
0.0084343
0.00855293
0.00867513
0.00890146
0.00745269
0.00741499
0.00738346
0.00735815
0.00733912
0.00732641
0.00732005
0.00732005
0.00732641
0.00733912
0.00735815
0.00738346
0.007415
0.00745269
0.00749646
0.00754622
0.00760186
0.00766327
0.00773033
0.0078029
0.00788084
0.00796401
0.00805223
0.00814536
0.00824321
0.00834562
0.0084524
0.00856337
0.00867833
0.00879711
0.00891949
0.00914275
0.00762767
0.00760239
0.00758338
0.00757068
0.00756433
0.00756433
0.00757068
0.00758338
0.00760239
0.00762767
0.00765918
0.00769684
0.00774058
0.0077903
0.00784592
0.00790731
0.00797435
0.00804691
0.00812486
0.00820805
0.00829631
0.0083895
0.00848743
0.00858994
0.00869685
0.00880798
0.00892313
0.00904213
0.00916475
0.00938516
0.00780874
0.00780874
0.00781509
0.00782778
0.00784678
0.00787206
0.00790355
0.0079412
0.00798493
0.00803466
0.00809027
0.00815167
0.00821874
0.00829134
0.00836934
0.0084526
0.00854095
0.00863425
0.00873232
0.008835
0.0089421
0.00905344
0.00916885
0.00928812
0.00941105
0.00962883
0.00811678
0.00814828
0.00818594
0.00822969
0.00827944
0.00833509
0.00839654
0.00846366
0.00853634
0.00861444
0.00869782
0.00878631
0.00887977
0.00897804
0.00908093
0.00918828
0.0092999
0.00941561
0.00953523
0.00965853
0.00987388
0.008475
0.0085248
0.00858052
0.00864205
0.00870928
0.00878208
0.00886031
0.00894385
0.00903253
0.00912621
0.00922472
0.00932789
0.00943554
0.0095475
0.00966359
0.00978361
0.00990735
0.0101205
0.00882673
0.00888837
0.00895573
0.00902869
0.00910711
0.00919085
0.00927977
0.00937372
0.00947252
0.00957602
0.00968403
0.00979639
0.00991291
0.0100334
0.0101576
0.0103687
0.00907386
0.00913565
0.00920318
0.00927634
0.00935498
0.00943898
0.00952818
0.00962243
0.00972159
0.00982546
0.0099339
0.0100467
0.0101637
0.0102847
0.0104095
0.0106187
0.00932206
0.00938404
0.00945178
0.00952516
0.00960407
0.00968836
0.00977789
0.00987251
0.00997206
0.0100764
0.0101853
0.0102986
0.0104161
0.0105377
0.0106632
0.0108706
0.00977531
0.00985453
0.00993915
0.0100291
0.0101241
0.0102241
0.0103289
0.0104383
0.0105522
0.0106704
0.0107926
0.0109187
0.0111246
0.0104778
0.0105831
0.0106931
0.0108076
0.0109265
0.0110494
0.0111763
0.0113808
0.0110651
0.0111846
0.0113083
0.011436
0.0116393
0.000251231
0.000243314
0.000239476
0.000239476
0.000243314
0.000251231
0.000263705
0.000281345
0.000304849
0.000335412
0.000374289
0.000422576
0.000481025
0.000550164
0.000629825
0.000719097
0.000816471
0.00092011
0.0010282
0.00113918
0.00125182
0.00136512
0.00147806
0.00158919
0.00169593
0.00179282
0.00186835
0.00197451
0.000431768
0.000418852
0.000412492
0.000412492
0.000418852
0.000431767
0.000451595
0.000478796
0.000513935
0.000557706
0.000610685
0.000673185
0.000745208
0.000826389
0.000915994
0.00101303
0.00111638
0.001225
0.00133795
0.00145442
0.0015736
0.00169448
0.00181562
0.00193481
0.00204882
0.00215378
0.00224897
0.00257422
0.000686039
0.000669479
0.000661238
0.000661238
0.000669479
0.000686038
0.000711049
0.000744671
0.000787057
0.000838279
0.000898248
0.000966682
0.0010431
0.00112685
0.00121716
0.00131326
0.00141439
0.00151989
0.0016291
0.00174134
0.0018558
0.00197148
0.00208718
0.00220184
0.00231535
0.00243078
0.00255796
0.00295842
0.000986194
0.000968256
0.000959274
0.000959274
0.000968255
0.000986193
0.00101303
0.00104865
0.00109289
0.00114545
0.00120596
0.00127392
0.0013488
0.00142999
0.00151691
0.00160899
0.00170573
0.0018066
0.00191106
0.00201855
0.00212847
0.00224028
0.00235379
0.00246962
0.00259001
0.00271932
0.00286283
0.00325846
0.00130023
0.00128258
0.00127372
0.00127372
0.00128258
0.00130023
0.00132652
0.00136125
0.00140412
0.00145477
0.0015128
0.00157774
0.00164914
0.00172654
0.00180948
0.00189754
0.00199031
0.00208736
0.00218828
0.00229271
0.0024004
0.00251138
0.00262618
0.00274607
0.00287305
0.00300909
0.00315424
0.00353513
0.00160932
0.00159255
0.00158413
0.00158413
0.00159255
0.00160931
0.00163428
0.00166724
0.00170792
0.00175602
0.00181117
0.00187303
0.00194123
0.00201539
0.00209516
0.00218018
0.00227013
0.00236467
0.00246356
0.00256661
0.00267387
0.00278564
0.00290258
0.00302558
0.00315548
0.00329227
0.00343453
0.00380233
0.00190818
0.00189225
0.00188426
0.00188426
0.00189225
0.00190817
0.00193191
0.0019633
0.00200211
0.0020481
0.002101
0.00216051
0.00222634
0.00229819
0.00237575
0.00245874
0.0025469
0.00263999
0.00273788
0.00284052
0.00294804
0.00306072
0.00317895
0.00330305
0.00343299
0.00356809
0.00370719
0.00406343
0.0021979
0.00218259
0.00217492
0.00217492
0.00218259
0.0021979
0.00222074
0.00225097
0.00228844
0.00233294
0.00238425
0.00244213
0.00250632
0.00257658
0.00265266
0.00273432
0.00282136
0.00291361
0.00301099
0.00311348
0.00322116
0.00333416
0.00345256
0.00357627
0.00370493
0.00383786
0.00397432
0.00431987
0.0024808
0.00246593
0.00245847
0.00245847
0.00246593
0.0024808
0.00250301
0.00253245
0.00256898
0.00261244
0.00266263
0.00271935
0.00278239
0.00285154
0.00292658
0.00300731
0.00309357
0.00318522
0.00328218
0.0033844
0.00349188
0.00360456
0.00372233
0.00384493
0.00397194
0.00410284
0.00423715
0.0045726
0.00275862
0.00274406
0.00273677
0.00273677
0.00274406
0.00275862
0.00278038
0.00280924
0.00284509
0.00288777
0.00293713
0.002993
0.00305517
0.00312347
0.0031977
0.0032777
0.00336331
0.00345439
0.00355085
0.00365258
0.00375949
0.00387143
0.00398818
0.00410943
0.0042348
0.00436392
0.00449641
0.00482231
0.00303239
0.00301807
0.0030109
0.0030109
0.00301807
0.00303239
0.00305379
0.0030822
0.00311751
0.00315959
0.00320829
0.00326346
0.00332492
0.00339251
0.00346605
0.00354539
0.00363036
0.00372083
0.00381667
0.00391772
0.00402384
0.00413482
0.00425041
0.00437031
0.0044942
0.00462175
0.00475267
0.00506949
0.00330266
0.00328854
0.00328147
0.00328147
0.00328854
0.00330266
0.00332378
0.00335181
0.00338667
0.00342824
0.00347638
0.00353094
0.00359178
0.00365873
0.00373163
0.00381032
0.00389464
0.00398445
0.00407957
0.00417984
0.00428506
0.00439502
0.00450945
0.00462808
0.00475062
0.00487679
0.00500632
0.00531456
0.00356978
0.00355583
0.00354884
0.00354884
0.00355583
0.00356978
0.00359064
0.00361835
0.00365282
0.00369393
0.00374157
0.00379559
0.00385585
0.00392221
0.00399449
0.00407254
0.00415619
0.00424529
0.00433965
0.00443909
0.0045434
0.00465234
0.00476568
0.00488314
0.00500448
0.00512943
0.00525773
0.00555785
0.00383398
0.00382018
0.00381327
0.00381327
0.00382018
0.00383398
0.00385462
0.00388203
0.00391614
0.00395685
0.00400402
0.00405754
0.00411727
0.00418305
0.00425473
0.00433215
0.00441514
0.00450352
0.00459712
0.00469573
0.00479914
0.00490713
0.00501945
0.00513586
0.00525612
0.00537998
0.00550719
0.00579964
0.00417684
0.00421716
0.00426391
0.00431696
0.00437618
0.00444141
0.00451251
0.00458931
0.00467165
0.00475934
0.00485219
0.00495001
0.00505258
0.00515968
0.00527108
0.00538654
0.00550583
0.00562872
0.00575497
0.0060402
0.00510512
0.00520219
0.00530398
0.00541027
0.00552084
0.00563545
0.00575389
0.00587593
0.00600133
0.00627974
0.00576899
0.00588285
0.00600053
0.00612182
0.00624648
0.0065185
0.00636663
0.00649066
0.00675665
0.0123033
0.0125769
0.0128536
0.00790731
0.00815168
0.00839654
0.00864206
0.00888838
0.00913566
0.00938405
0.00963369
0.00988473
0.0101373
0.0103916
0.0106477
0.0109058
0.011166
0.0114285
0.0116934
0.0119609
0.0122311
0.0125041
0.0127802
0.00711399
0.00735795
0.00760187
0.00784592
0.00809028
0.0083351
0.00858053
0.00882674
0.00907387
0.00932207
0.0095715
0.0098223
0.0100746
0.0103286
0.0105844
0.0108421
0.0111019
0.011364
0.0116284
0.0118954
0.0121651
0.0124376
0.0127131
0.00705819
0.00730224
0.00754623
0.00779031
0.00803466
0.00827945
0.00852481
0.00877092
0.00901792
0.00926597
0.00951521
0.0097658
0.0100179
0.0102716
0.0105271
0.0107845
0.0110439
0.0113056
0.0115697
0.0118363
0.0121055
0.0123775
0.0126525
0.00700828
0.00725242
0.00749647
0.00774059
0.00798494
0.0082297
0.00847501
0.00872104
0.00896793
0.00921585
0.00946493
0.00971533
0.00996719
0.0102207
0.0104759
0.010733
0.0109922
0.0112535
0.0115172
0.0117834
0.0120522
0.0123239
0.0125984
0.00696436
0.00720859
0.0074527
0.00769685
0.00794121
0.00818595
0.00843122
0.00867718
0.00892399
0.00917179
0.00942073
0.00967098
0.00992266
0.0101759
0.0104309
0.0106878
0.0109467
0.0112078
0.0114712
0.011737
0.0120055
0.0122767
0.0125509
0.00170793
0.00200211
0.00228845
0.00256899
0.00284509
0.00311752
0.00338668
0.00365283
0.00391615
0.00417685
0.0044351
0.0046911
0.00494505
0.00519714
0.00544758
0.00569657
0.0059443
0.00619098
0.00643679
0.00668191
0.00692654
0.00717085
0.00741501
0.00765919
0.00790356
0.00814829
0.00839353
0.00863943
0.00888617
0.00913387
0.00938271
0.00963281
0.00988434
0.0101374
0.0103923
0.0106489
0.0109076
0.0111684
0.0114316
0.0116972
0.0119653
0.0122363
0.0125101
0.00166724
0.0019633
0.00225098
0.00253245
0.00280925
0.00308221
0.00335182
0.00361836
0.00388204
0.00414307
0.00440162
0.0046579
0.0049121
0.00516443
0.00541509
0.00566427
0.00591217
0.006159
0.00640494
0.00665017
0.00689489
0.00713926
0.00738347
0.00762768
0.00787207
0.00811679
0.008362
0.00860787
0.00885454
0.00910217
0.00935091
0.00960091
0.00985232
0.0101053
0.0103599
0.0106164
0.0108749
0.0111356
0.0113985
0.0116638
0.0119318
0.0122024
0.012476
0.00163428
0.00193192
0.00222074
0.00250301
0.00278038
0.0030538
0.00332378
0.00359065
0.00385463
0.00411592
0.00437472
0.00463123
0.00488564
0.00513816
0.00538899
0.00563833
0.00588638
0.00613332
0.00637937
0.00662469
0.00686948
0.00711391
0.00735816
0.0076024
0.0078468
0.00809151
0.00833671
0.00858254
0.00882917
0.00907674
0.00932541
0.00957532
0.00982663
0.0100795
0.010334
0.0105904
0.0108487
0.0111092
0.011372
0.0116371
0.0119049
0.0121753
0.0124486
0.000251231
0.000431767
0.000686039
0.000986194
0.00130023
0.00160932
0.00190818
0.0021979
0.0024808
0.00275863
0.00303239
0.00330267
0.00356978
0.00383399
0.00409548
0.00435447
0.00461115
0.00486573
0.0051184
0.00536936
0.00561882
0.00586697
0.00611401
0.00636014
0.00660553
0.00685037
0.00709485
0.00733913
0.00758339
0.0078278
0.00807251
0.00831769
0.0085635
0.0088101
0.00905762
0.00930624
0.00955609
0.00980732
0.0100601
0.0103145
0.0105708
0.010829
0.0110894
0.011352
0.011617
0.0118846
0.0121549
0.0124281
0.000243313
0.000418852
0.000669479
0.000968256
0.00128258
0.00159255
0.00189225
0.0021826
0.00246593
0.00274407
0.00301807
0.00328855
0.00355583
0.00382019
0.00408183
0.00434094
0.00459774
0.00485242
0.00510519
0.00535624
0.00560578
0.00585401
0.00610111
0.00634729
0.00659273
0.00683761
0.00708212
0.00732642
0.0075707
0.00781511
0.00805982
0.008305
0.00855079
0.00879736
0.00904486
0.00929344
0.00954325
0.00979444
0.0100471
0.0103015
0.0105577
0.0108159
0.0110762
0.0113387
0.0116037
0.0118711
0.0121413
0.0124144
0.000239476
0.000412492
0.000661238
0.000959274
0.00127372
0.00158413
0.00188426
0.00217492
0.00245848
0.00273677
0.0030109
0.00328147
0.00354885
0.00381328
0.00407499
0.00433417
0.00459103
0.00484576
0.00509858
0.00534967
0.00559925
0.00584752
0.00609465
0.00634086
0.00658632
0.00683122
0.00707575
0.00732006
0.00756434
0.00780876
0.00805347
0.00829864
0.00854443
0.00879099
0.00903847
0.00928703
0.00953682
0.00978799
0.0100407
0.010295
0.0105512
0.0108093
0.0110696
0.0113321
0.0115969
0.0118644
0.0121345
0.0124075
0.000239476
0.000412492
0.000661238
0.000959274
0.00127372
0.00158413
0.00188426
0.00217492
0.00245848
0.00273677
0.0030109
0.00328147
0.00354885
0.00381328
0.00407499
0.00433417
0.00459103
0.00484576
0.00509858
0.00534967
0.00559925
0.00584752
0.00609465
0.00634086
0.00658632
0.00683122
0.00707575
0.00732006
0.00756434
0.00780876
0.00805347
0.00829864
0.00854443
0.00879099
0.00903847
0.00928703
0.00953682
0.00978799
0.0100407
0.010295
0.0105512
0.0108093
0.0110696
0.0113321
0.0115969
0.0118644
0.0121345
0.0124075
0.000243313
0.000418851
0.000669479
0.000968255
0.00128258
0.00159255
0.00189225
0.0021826
0.00246593
0.00274407
0.00301807
0.00328854
0.00355583
0.00382019
0.00408183
0.00434094
0.00459774
0.00485242
0.00510519
0.00535624
0.00560578
0.00585401
0.00610111
0.00634729
0.00659273
0.00683761
0.00708212
0.00732642
0.0075707
0.00781511
0.00805982
0.008305
0.00855079
0.00879736
0.00904486
0.00929344
0.00954325
0.00979444
0.0100471
0.0103015
0.0105577
0.0108159
0.0110762
0.0113387
0.0116037
0.0118711
0.0121413
0.0124144
0.000251231
0.000431767
0.000686038
0.000986193
0.00130023
0.00160932
0.00190818
0.0021979
0.0024808
0.00275862
0.00303239
0.00330266
0.00356978
0.00383399
0.00409548
0.00435447
0.00461115
0.00486573
0.00511839
0.00536936
0.00561882
0.00586697
0.00611401
0.00636014
0.00660553
0.00685037
0.00709485
0.00733913
0.00758339
0.0078278
0.00807251
0.00831769
0.0085635
0.0088101
0.00905762
0.00930624
0.00955609
0.00980732
0.0100601
0.0103145
0.0105708
0.010829
0.0110894
0.011352
0.011617
0.0118846
0.0121549
0.0124281
0.000263705
0.000451595
0.000711049
0.00101303
0.00132652
0.00163428
0.00193192
0.00222074
0.00250301
0.00278038
0.0030538
0.00332378
0.00359065
0.00385462
0.00411592
0.00437472
0.00463122
0.00488564
0.00513816
0.00538899
0.00563833
0.00588638
0.00613332
0.00637937
0.00662469
0.00686948
0.00711391
0.00735816
0.0076024
0.0078468
0.00809151
0.00833671
0.00858254
0.00882917
0.00907674
0.00932541
0.00957532
0.00982663
0.0100795
0.010334
0.0105904
0.0108487
0.0111092
0.011372
0.0116371
0.0119049
0.0121753
0.0124486
0.000281345
0.000478796
0.000744671
0.00104865
0.00136125
0.00166724
0.0019633
0.00225098
0.00253245
0.00280924
0.00308221
0.00335182
0.00361836
0.00388204
0.00414306
0.00440162
0.0046579
0.0049121
0.00516443
0.00541509
0.00566427
0.00591217
0.006159
0.00640494
0.00665017
0.00689489
0.00713926
0.00738347
0.00762769
0.00787207
0.00811679
0.008362
0.00860787
0.00885454
0.00910217
0.00935091
0.00960091
0.00985232
0.0101053
0.0103599
0.0106164
0.0108749
0.0111356
0.0113985
0.0116638
0.0119318
0.0122024
0.012476
0.000304849
0.000513935
0.000787057
0.00109289
0.00140412
0.00170792
0.00200211
0.00228845
0.00256898
0.00284509
0.00311752
0.00338668
0.00365282
0.00391615
0.00417685
0.0044351
0.0046911
0.00494505
0.00519714
0.00544758
0.00569657
0.0059443
0.00619098
0.00643679
0.00668191
0.00692654
0.00717085
0.00741501
0.00765919
0.00790356
0.00814829
0.00839353
0.00863944
0.00888617
0.00913387
0.00938271
0.00963281
0.00988434
0.0101374
0.0103923
0.0106489
0.0109076
0.0111684
0.0114316
0.0116972
0.0119653
0.0122363
0.0125101
0.000335412
0.000557706
0.000838279
0.00114545
0.00145478
0.00175602
0.0020481
0.00233295
0.00261244
0.00288778
0.0031596
0.00342824
0.00369394
0.00395685
0.00421717
0.00447507
0.00473074
0.00498439
0.0052362
0.00548639
0.00573515
0.00598269
0.00622919
0.00647484
0.00671984
0.00696437
0.0072086
0.0074527
0.00769685
0.00794121
0.00818595
0.00843122
0.00867718
0.00892399
0.00917179
0.00942074
0.00967098
0.00992266
0.0101759
0.0104309
0.0106878
0.0109467
0.0112078
0.0114712
0.011737
0.0120055
0.0122767
0.0125509
0.000374289
0.000610685
0.000898248
0.00120596
0.0015128
0.00181117
0.002101
0.00238425
0.00266263
0.00293714
0.0032083
0.00347638
0.00374157
0.00400403
0.00426392
0.00452142
0.00477672
0.00503002
0.00528152
0.00553142
0.00577993
0.00602723
0.00627353
0.00651902
0.00676387
0.00700828
0.00725243
0.00749647
0.00774059
0.00798494
0.0082297
0.00847501
0.00872104
0.00896794
0.00921585
0.00946493
0.00971533
0.00996719
0.0102207
0.0104759
0.010733
0.0109922
0.0112535
0.0115172