/*--------------------------------*- C++ -*----------------------------------*\
  =========                 |
  \\      /  F ield         | OpenFOAM: The Open Source CFD Toolbox
   \\    /   O peration     | Website:  https://openfoam.org
    \\  /    A nd           | Version:  7
     \\/     M anipulation  |
\*---------------------------------------------------------------------------*/
FoamFile
{
    version     2.0;
    format      ascii;
    class       volScalarField;
    location    "160000";
    object      strainRate;
}
// * * * * * * * * * * * * * * * * * * * * * * * * * * * * * * * * * * * * * //

dimensions      [0 0 -1 0 0 0 0];

internalField   nonuniform List<scalar> 
4850
(
0.00723133
0.00697629
0.00746881
0.00721874
0.00709605
0.00770638
0.00746096
0.00733855
0.00721958
0.00710429
0.0079442
0.00770315
0.00758092
0.00746217
0.00734711
0.00723594
0.00818243
0.00794545
0.00782334
0.00770473
0.00758982
0.00747883
0.00737193
0.00842122
0.00818804
0.00806597
0.00794742
0.0078326
0.00772171
0.00761494
0.00751248
0.00741451
0.00866071
0.00843107
0.00830897
0.00819041
0.0080756
0.00796475
0.00785804
0.00775565
0.00765778
0.0075646
0.00890104
0.0086747
0.00855249
0.00843385
0.00831899
0.00820811
0.00810139
0.00799902
0.00790118
0.00780806
0.00771981
0.00763661
0.00755863
0.007486
0.00914235
0.00891908
0.00879669
0.00867791
0.00856293
0.00845195
0.00834516
0.00824275
0.00814489
0.00805175
0.00796352
0.00788035
0.0078024
0.00772982
0.00766276
0.00760134
0.0075457
0.00749594
0.00938477
0.00916435
0.00904172
0.00892272
0.00880756
0.00869643
0.00858951
0.00848699
0.00838905
0.00829586
0.00820758
0.00812439
0.00804643
0.00797386
0.00790681
0.00784542
0.0077898
0.00774007
0.00769633
0.00765867
0.00962845
0.00941067
0.00928773
0.00916845
0.00905304
0.00894169
0.00883458
0.0087319
0.00863382
0.00854052
0.00845215
0.00836889
0.00829088
0.00821827
0.0081512
0.0080898
0.00803418
0.00798445
0.00794072
0.00790306
0.00787157
0.00784629
0.00782729
0.0078146
0.00987352
0.00965817
0.00953486
0.00941524
0.00929952
0.00918789
0.00908053
0.00897763
0.00887936
0.00878589
0.00869739
0.00861401
0.00853591
0.00846322
0.00839609
0.00833463
0.00827898
0.00822923
0.00818547
0.00814781
0.00811631
0.00809103
0.00807202
0.00805933
0.00805298
0.00805298
0.00805933
0.00807203
0.00809103
0.0101201
0.009907
0.00978325
0.00966322
0.00954713
0.00943516
0.0093275
0.00922433
0.00912581
0.00903213
0.00894344
0.0088599
0.00878166
0.00870885
0.00864162
0.00858009
0.00852436
0.00847456
0.00843076
0.00839307
0.00836154
0.00833624
0.00831723
0.00830453
0.00829817
0.00829817
0.00830453
0.00831723
0.00833624
0.00836154
0.00839307
0.00843077
0.0103684
0.0101573
0.010033
0.00991256
0.00979604
0.00968367
0.00957565
0.00947215
0.00937334
0.00927939
0.00919046
0.00910671
0.00902829
0.00895533
0.00888796
0.00882631
0.00877049
0.0087206
0.00867674
0.00863899
0.00860742
0.00858209
0.00856305
0.00855034
0.00854398
0.00854398
0.00855034
0.00856305
0.00858209
0.00860742
0.00863899
0.00867674
0.00872061
0.00877049
0.0106184
0.0104092
0.0102844
0.0101634
0.0100464
0.00993355
0.00982511
0.00972122
0.00962207
0.00952781
0.0094386
0.0093546
0.00927595
0.00920279
0.00913525
0.00907346
0.00901751
0.00896752
0.00892357
0.00888574
0.00885411
0.00882874
0.00880966
0.00879693
0.00879056
0.00879056
0.00879693
0.00880966
0.00882874
0.00885411
0.00888574
0.00892357
0.00896752
0.00901751
0.0108703
0.0106629
0.0105374
0.0104158
0.0102983
0.0101849
0.010076
0.00997171
0.00987216
0.00977753
0.009688
0.0096037
0.00952479
0.0094514
0.00938366
0.00932168
0.00926557
0.00921545
0.00917138
0.00913347
0.00910176
0.00907633
0.00905721
0.00904445
0.00903806
0.00903806
0.00904445
0.00905721
0.00907633
0.00910176
0.00913346
0.00917138
0.00921545
0.00926557
0.0111243
0.0109184
0.0107923
0.01067
0.0105519
0.010438
0.0103286
0.0102237
0.0101237
0.0100287
0.00993881
0.00985417
0.00977496
0.0097013
0.00963331
0.00957112
0.00951483
0.00946454
0.00942035
0.00938231
0.00935052
0.00932501
0.00930584
0.00929304
0.00928664
0.00928664
0.00929304
0.00930584
0.00932501
0.00935052
0.00938231
0.00942034
0.00946454
0.00951483
0.0113805
0.011176
0.0110491
0.0109262
0.0108073
0.0106928
0.0105828
0.0104775
0.010377
0.0102815
0.0101912
0.0101062
0.0100266
0.00995262
0.00988436
0.00982193
0.00976543
0.00971496
0.0096706
0.00963244
0.00960053
0.00957494
0.00955571
0.00954287
0.00953644
0.00953644
0.00954287
0.00955571
0.00957494
0.00960053
0.00963244
0.0096706
0.00971495
0.00976543
0.011639
0.0114357
0.011308
0.0111843
0.0110648
0.0109496
0.010839
0.010733
0.010632
0.010536
0.0104452
0.0103598
0.0102799
0.0102055
0.010137
0.0100743
0.0100175
0.00996683
0.0099223
0.00988398
0.00985195
0.00982626
0.00980696
0.00979407
0.00978762
0.00978762
0.00979407
0.00980696
0.00982626
0.00985195
0.00988398
0.00992229
0.00996683
0.0100175
0.0119
0.0116977
0.0115692
0.0114447
0.0113244
0.0112085
0.0110971
0.0109906
0.0108889
0.0107924
0.0107011
0.0106152
0.0105349
0.0104602
0.0103913
0.0103282
0.0102712
0.0102203
0.0101756
0.0101371
0.0101049
0.0100791
0.0100597
0.0100468
0.0100403
0.0100403
0.0100468
0.0100597
0.0100791
0.0101049
0.0101371
0.0101756
0.0102203
0.0102712
0.0121635
0.0119622
0.0118328
0.0117074
0.0115862
0.0114695
0.0113575
0.0112502
0.011148
0.0110508
0.010959
0.0108726
0.0107918
0.0107167
0.0106474
0.010584
0.0105267
0.0104756
0.0104306
0.0103919
0.0103596
0.0103337
0.0103142
0.0103012
0.0102947
0.0102947
0.0103012
0.0103142
0.0103337
0.0103596
0.0103919
0.0104306
0.0104756
0.0105267
0.0124297
0.0122293
0.0120988
0.0119725
0.0118505
0.011733
0.0116201
0.0115122
0.0114092
0.0113114
0.011219
0.0111321
0.0110507
0.0109752
0.0109055
0.0108418
0.0107842
0.0107327
0.0106875
0.0106486
0.0106161
0.0105901
0.0105705
0.0105574
0.0105509
0.0105509
0.0105574
0.0105705
0.0105901
0.0106161
0.0106486
0.0106875
0.0107327
0.0107841
0.0126989
0.012499
0.0123676
0.0122403
0.0121173
0.0119989
0.0118853
0.0117765
0.0116728
0.0115743
0.0114813
0.0113938
0.0113119
0.0112359
0.0111657
0.0111016
0.0110436
0.0109919
0.0109464
0.0109073
0.0108746
0.0108484
0.0108287
0.0108156
0.010809
0.010809
0.0108156
0.0108287
0.0108484
0.0108746
0.0109073
0.0109464
0.0109919
0.0110436
0.0111016
0.012971
0.0127717
0.0126392
0.0125108
0.0123869
0.0122675
0.012153
0.0120434
0.0119389
0.0118397
0.011746
0.0116578
0.0115754
0.0114988
0.0114282
0.0113637
0.0113053
0.0112532
0.0112075
0.0111681
0.0111353
0.0111089
0.0110891
0.0110759
0.0110693
0.0110693
0.0110759
0.0110891
0.0111089
0.0111353
0.0111681
0.0112075
0.0112532
0.0113053
0.0113637
0.0132462
0.0130474
0.0129137
0.0127842
0.0126593
0.0125389
0.0124234
0.0123129
0.0122076
0.0121077
0.0120132
0.0119244
0.0118414
0.0117642
0.0116931
0.0116282
0.0115694
0.011517
0.0114709
0.0114313
0.0113982
0.0113717
0.0113517
0.0113384
0.0113318
0.0113318
0.0113384
0.0113517
0.0113717
0.0113982
0.0114313
0.0114709
0.011517
0.0115694
0.0116282
0.0135248
0.0133262
0.0131913
0.0130607
0.0129346
0.0128132
0.0126967
0.0125853
0.0124791
0.0123784
0.0122832
0.0121936
0.01211
0.0120323
0.0119606
0.0118952
0.011836
0.0117832
0.0117368
0.0116969
0.0116636
0.0116368
0.0116168
0.0116034
0.0115967
0.0115967
0.0116034
0.0116168
0.0116368
0.0116636
0.0116969
0.0117368
0.0117831
0.011836
0.0138068
0.0136084
0.0134722
0.0133404
0.0132131
0.0130906
0.0129731
0.0128607
0.0127536
0.012652
0.012556
0.0124657
0.0123814
0.012303
0.0122308
0.0121648
0.0121052
0.012052
0.0120052
0.0119651
0.0119315
0.0119046
0.0118844
0.0118709
0.0118641
0.0118641
0.0118709
0.0118844
0.0119046
0.0119315
0.0119651
0.0120052
0.012052
0.0121052
0.0140923
0.013894
0.0137565
0.0136234
0.0134949
0.0133713
0.0132527
0.0131392
0.0130312
0.0129286
0.0128318
0.0127407
0.0126557
0.0125767
0.0125039
0.0124374
0.0123772
0.0123236
0.0122765
0.012236
0.0122022
0.012175
0.0121547
0.0121411
0.0121343
0.0121343
0.0121411
0.0121547
0.012175
0.0122022
0.012236
0.0122765
0.0123236
0.0123772
0.0143816
0.0141832
0.0140443
0.0139099
0.0137802
0.0136553
0.0135356
0.013421
0.013312
0.0132085
0.0131107
0.0130189
0.0129331
0.0128534
0.0127799
0.0127129
0.0126522
0.0125981
0.0125506
0.0125098
0.0124757
0.0124484
0.0124278
0.0124141
0.0124073
0.0124073
0.0124141
0.0124278
0.0124484
0.0124757
0.0125098
0.0125506
0.0125981
0.0126522
0.0146748
0.0144762
0.0143359
0.0142001
0.014069
0.0139429
0.013822
0.0137063
0.0135962
0.0134917
0.013393
0.0133003
0.0132137
0.0131333
0.0130592
0.0129915
0.0129303
0.0128758
0.0128279
0.0127867
0.0127523
0.0127247
0.012704
0.0126902
0.0126833
0.0126833
0.0126902
0.012704
0.0127247
0.0127523
0.0127867
0.0128279
0.0128758
0.0149721
0.0147732
0.0146314
0.0144941
0.0143617
0.0142342
0.014112
0.0139952
0.0138839
0.0137784
0.0136788
0.0135851
0.0134977
0.0134165
0.0133417
0.0132734
0.0132117
0.0131566
0.0131083
0.0130668
0.0130321
0.0130043
0.0129834
0.0129694
0.0129625
0.0129625
0.0129694
0.0129834
0.0130043
0.0130321
0.0130668
0.0131083
0.0131566
0.0152735
0.0150743
0.0149309
0.0147921
0.0146582
0.0145294
0.0144059
0.0142878
0.0141754
0.0140688
0.0139681
0.0138736
0.0137852
0.0137033
0.0136278
0.0135588
0.0134965
0.0134409
0.0133921
0.0133502
0.0133152
0.0132871
0.0132661
0.013252
0.013245
0.013245
0.013252
0.0132661
0.0132871
0.0133152
0.0133502
0.0133921
0.0155794
0.0153796
0.0152346
0.0150942
0.0149588
0.0148286
0.0147037
0.0145844
0.0144707
0.014363
0.0142613
0.0141657
0.0140765
0.0139937
0.0139174
0.0138478
0.0137849
0.0137288
0.0136795
0.0136372
0.0136018
0.0135735
0.0135522
0.013538
0.0135309
0.0135309
0.013538
0.0135522
0.0135735
0.0136018
0.0136372
0.0136795
0.0158898
0.0156894
0.0155426
0.0154007
0.0152637
0.015132
0.0150057
0.014885
0.0147701
0.0146612
0.0145584
0.0144618
0.0143717
0.014288
0.0142109
0.0141406
0.014077
0.0140203
0.0139706
0.0139278
0.0138921
0.0138635
0.0138421
0.0138277
0.0138206
0.0138206
0.0138277
0.0138421
0.0138635
0.0138921
0.0139278
0.0139706
0.0162049
0.0160038
0.0158553
0.0157116
0.0155731
0.0154398
0.015312
0.01519
0.0150738
0.0149636
0.0148596
0.014762
0.0146708
0.0145863
0.0145084
0.0144373
0.0143731
0.0143158
0.0142655
0.0142223
0.0141863
0.0141574
0.0141357
0.0141212
0.014114
0.014114
0.0141212
0.0141357
0.0141574
0.0141863
0.0142223
0.0142655
0.0165249
0.0163229
0.0161726
0.0160272
0.015887
0.0157521
0.0156228
0.0154993
0.0153818
0.0152703
0.0151652
0.0150664
0.0149742
0.0148887
0.01481
0.0147381
0.0146732
0.0146153
0.0145645
0.0145209
0.0144844
0.0144553
0.0144333
0.0144187
0.0144114
0.0144114
0.0144187
0.0144333
0.0144552
0.0144844
0.0145209
0.0145645
0.01685
0.0166471
0.0164949
0.0163477
0.0162057
0.0160692
0.0159383
0.0158133
0.0156943
0.0155816
0.0154752
0.0153753
0.015282
0.0151956
0.0151159
0.0150432
0.0149776
0.0149191
0.0148677
0.0148236
0.0147868
0.0147573
0.0147351
0.0147203
0.0147129
0.0147129
0.0147203
0.0147351
0.0147573
0.0147868
0.0148236
0.0148677
0.0171804
0.0169765
0.0168223
0.0166732
0.0165294
0.0163912
0.0162587
0.0161321
0.0160117
0.0158975
0.0157899
0.0156888
0.0155944
0.0155069
0.0154263
0.0153528
0.0152864
0.0152273
0.0151753
0.0151307
0.0150935
0.0150636
0.0150412
0.0150263
0.0150188
0.0150188
0.0150263
0.0150412
0.0150636
0.0150935
0.0151307
0.0151753
0.0175163
0.0173112
0.017155
0.017004
0.0168583
0.0167183
0.0165841
0.0164559
0.0163339
0.0162184
0.0161094
0.016007
0.0159115
0.015823
0.0157415
0.0156671
0.0155999
0.01554
0.0154875
0.0154424
0.0154047
0.0153745
0.0153519
0.0153368
0.0153292
0.0153292
0.0153368
0.0153519
0.0153745
0.0154047
0.0154424
0.0154875
0.0178579
0.0176515
0.0174932
0.0173402
0.0171926
0.0170507
0.0169147
0.0167849
0.0166614
0.0165443
0.0164339
0.0163303
0.0162336
0.016144
0.0160615
0.0159862
0.0159182
0.0158576
0.0158045
0.0157588
0.0157207
0.0156902
0.0156672
0.015652
0.0156443
0.0156443
0.0156519
0.0156672
0.0156902
0.0157207
0.0157588
0.0158045
0.0182053
0.0179976
0.0178371
0.017682
0.0175324
0.0173886
0.0172508
0.0171192
0.0169941
0.0168755
0.0167637
0.0166588
0.0165609
0.0164701
0.0163865
0.0163103
0.0162415
0.0161802
0.0161264
0.0160802
0.0160416
0.0160107
0.0159875
0.015972
0.0159643
0.0159643
0.015972
0.0159875
0.0160107
0.0160416
0.0160802
0.0161264
0.0185588
0.0183497
0.018187
0.0180297
0.017878
0.0177322
0.0175926
0.0174592
0.0173324
0.0172122
0.0170989
0.0169926
0.0168934
0.0168015
0.0167169
0.0166397
0.01657
0.0165079
0.0164534
0.0164067
0.0163676
0.0163363
0.0163128
0.0162972
0.0162893
0.0162893
0.0162972
0.0163128
0.0163363
0.0163676
0.0164067
0.0164534
0.0189187
0.0187079
0.0185429
0.0183834
0.0182296
0.0180818
0.0179402
0.017805
0.0176764
0.0175546
0.0174398
0.0173321
0.0172316
0.0171384
0.0170527
0.0169745
0.0169039
0.016841
0.0167858
0.0167385
0.0166989
0.0166673
0.0166435
0.0166276
0.0166197
0.0166197
0.0166276
0.0166435
0.0166673
0.0166989
0.0167385
0.0167858
0.0192851
0.0190727
0.0189053
0.0187434
0.0185874
0.0184375
0.0182939
0.0181568
0.0180264
0.0179029
0.0177865
0.0176773
0.0175755
0.017481
0.0173942
0.0173149
0.0172434
0.0171797
0.0171238
0.0170759
0.0170358
0.0170037
0.0169796
0.0169636
0.0169555
0.0169555
0.0169636
0.0169796
0.0170037
0.0170358
0.0170759
0.0171238
0.0196583
0.0194441
0.0192742
0.01911
0.0189517
0.0187996
0.0186539
0.0185148
0.0183826
0.0182574
0.0181393
0.0180286
0.0179253
0.0178296
0.0177416
0.0176613
0.0175888
0.0175242
0.0174676
0.017419
0.0173784
0.0173459
0.0173215
0.0173052
0.0172971
0.0172971
0.0173052
0.0173215
0.0173459
0.0173784
0.017419
0.0174676
0.0200385
0.0198224
0.01965
0.0194833
0.0193227
0.0191683
0.0190205
0.0188794
0.0187452
0.0186182
0.0184985
0.0183862
0.0182814
0.0181844
0.0180951
0.0180137
0.0179402
0.0178748
0.0178174
0.0177681
0.017727
0.0176941
0.0176693
0.0176528
0.0176446
0.0176446
0.0176528
0.0176693
0.0176941
0.017727
0.0177681
0.0178174
0.020426
0.0202079
0.0200329
0.0198637
0.0197006
0.0195439
0.0193938
0.0192506
0.0191145
0.0189856
0.0188641
0.0187502
0.018644
0.0185455
0.018455
0.0183724
0.018298
0.0182316
0.0181734
0.0181235
0.0180818
0.0180484
0.0180233
0.0180066
0.0179982
0.0179982
0.0180066
0.0180233
0.0180484
0.0180818
0.0181235
0.020821
0.0206008
0.0204231
0.0202513
0.0200857
0.0199266
0.0197742
0.0196289
0.0194907
0.0193599
0.0192366
0.019121
0.0190132
0.0189133
0.0188215
0.0187378
0.0186622
0.0185949
0.0185359
0.0184852
0.018443
0.0184091
0.0183837
0.0183668
0.0183583
0.0183583
0.0183668
0.0183837
0.0184091
0.018443
0.0184852
0.0212239
0.0210015
0.0208209
0.0206464
0.0204782
0.0203167
0.0201619
0.0200143
0.019874
0.0197412
0.0196161
0.0194988
0.0193894
0.019288
0.0191948
0.0191099
0.0190332
0.018965
0.0189051
0.0188537
0.0188108
0.0187765
0.0187507
0.0187336
0.018725
0.018725
0.0187335
0.0187507
0.0187765
0.0188108
0.0216348
0.0214101
0.0212266
0.0210493
0.0208785
0.0207144
0.0205572
0.0204073
0.0202648
0.02013
0.0200029
0.0198838
0.0197727
0.0196699
0.0195753
0.0194891
0.0194113
0.019342
0.0192813
0.0192292
0.0191857
0.0191508
0.0191247
0.0191072
0.0190985
0.0190985
0.0191072
0.0191247
0.0191508
0.0191857
0.0220541
0.0218269
0.0216405
0.0214604
0.0212868
0.02112
0.0209603
0.020808
0.0206633
0.0205263
0.0203973
0.0202763
0.0201636
0.0200592
0.0199631
0.0198756
0.0197967
0.0197263
0.0196647
0.0196118
0.0195677
0.0195323
0.0195058
0.0194881
0.0194792
0.0194792
0.0194881
0.0195058
0.0195323
0.0195676
0.0224821
0.0222524
0.0220629
0.0218798
0.0217033
0.0215338
0.0213716
0.0212168
0.0210698
0.0209306
0.0207995
0.0206767
0.0205622
0.0204561
0.0203586
0.0202697
0.0201896
0.0201182
0.0200556
0.0200019
0.0199571
0.0199212
0.0198943
0.0198763
0.0198674
0.0198674
0.0198763
0.0198943
0.0199212
0.0199571
0.0229191
0.0226867
0.0224941
0.0223079
0.0221285
0.0219562
0.0217913
0.021634
0.0214845
0.0213431
0.02121
0.0210851
0.0209688
0.0208611
0.020762
0.0206718
0.0205904
0.0205179
0.0204543
0.0203998
0.0203543
0.0203179
0.0202905
0.0202723
0.0202632
0.0202632
0.0202723
0.0202905
0.0203179
0.0203543
0.0233655
0.0231302
0.0229344
0.022745
0.0225626
0.0223874
0.0222197
0.0220598
0.0219079
0.0217642
0.0216288
0.021502
0.0213837
0.0212743
0.0211737
0.021082
0.0209993
0.0209257
0.0208611
0.0208057
0.0207595
0.0207225
0.0206948
0.0206763
0.020667
0.020667
0.0206762
0.0206948
0.0207225
0.0207595
0.0238214
0.0235833
0.0233841
0.0231915
0.023006
0.0228278
0.0226572
0.0224946
0.0223402
0.022194
0.0220564
0.0219275
0.0218074
0.0216961
0.0215939
0.0215007
0.0214167
0.0213419
0.0212763
0.02122
0.0211731
0.0211355
0.0211073
0.0210885
0.0210791
0.0210791
0.0210885
0.0211073
0.0211355
0.0211731
0.0242874
0.0240463
0.0238436
0.0236477
0.0234589
0.0232776
0.0231042
0.0229388
0.0227817
0.0226331
0.0224932
0.0223621
0.0222399
0.0221268
0.0220229
0.0219282
0.0218428
0.0217668
0.0217002
0.021643
0.0215953
0.0215571
0.0215285
0.0215093
0.0214998
0.0214998
0.0215093
0.0215285
0.0215571
0.0215953
0.0247638
0.0245195
0.0243133
0.0241139
0.0239218
0.0237373
0.0235608
0.0233926
0.0232328
0.0230816
0.0229393
0.022806
0.0226818
0.0225668
0.0224612
0.0223649
0.0222781
0.0222008
0.0221331
0.022075
0.0220265
0.0219877
0.0219586
0.0219391
0.0219294
0.0219294
0.0219391
0.0219586
0.0219877
0.0220265
0.0252509
0.0250034
0.0247935
0.0245905
0.024395
0.0242072
0.0240276
0.0238564
0.0236938
0.02354
0.0233953
0.0232597
0.0231333
0.0230164
0.0229089
0.022811
0.0227228
0.0226442
0.0225753
0.0225163
0.022467
0.0224275
0.0223979
0.0223782
0.0223683
0.0223683
0.0223782
0.0223979
0.0224275
0.022467
0.0257492
0.0254983
0.0252846
0.025078
0.0248789
0.0246878
0.0245049
0.0243306
0.0241651
0.0240087
0.0238614
0.0237234
0.0235949
0.0234759
0.0233666
0.0232671
0.0231773
0.0230974
0.0230273
0.0229673
0.0229172
0.022877
0.0228469
0.0228268
0.0228168
0.0228168
0.0228268
0.0228469
0.022877
0.0229171
0.0262591
0.0260046
0.025787
0.0255766
0.0253739
0.0251793
0.0249931
0.0248157
0.0246472
0.0244879
0.024338
0.0241976
0.0240668
0.0239458
0.0238346
0.0237333
0.023642
0.0235607
0.0234894
0.0234283
0.0233774
0.0233365
0.0233059
0.0232855
0.0232753
0.0232753
0.0232855
0.0233059
0.0233365
0.0233773
0.0267809
0.0265229
0.0263012
0.0260869
0.0258804
0.0256822
0.0254926
0.0253119
0.0251404
0.0249782
0.0248256
0.0246827
0.0245496
0.0244264
0.0243132
0.0242101
0.0241172
0.0240345
0.023962
0.0238998
0.023848
0.0238065
0.0237753
0.0237545
0.0237441
0.0237441
0.0237545
0.0237753
0.0238065
0.023848
0.0273152
0.0270534
0.0268276
0.0266093
0.0263989
0.0261969
0.0260038
0.0258198
0.0256451
0.02548
0.0253246
0.025179
0.0250435
0.0249181
0.0248029
0.024698
0.0246034
0.0245192
0.0244455
0.0243822
0.0243294
0.0242872
0.0242555
0.0242343
0.0242238
0.0242238
0.0242343
0.0242555
0.0242872
0.0243294
0.0278625
0.0275968
0.0273667
0.0271442
0.0269298
0.026724
0.0265272
0.0263397
0.0261618
0.0259936
0.0258353
0.0256871
0.0255491
0.0254214
0.0253041
0.0251973
0.025101
0.0250153
0.0249402
0.0248758
0.0248221
0.0247791
0.0247468
0.0247253
0.0247145
0.0247145
0.0247253
0.0247468
0.0247791
0.0248221
0.0284231
0.0281535
0.027919
0.0276921
0.0274736
0.0272638
0.0270633
0.0268722
0.0266909
0.0265195
0.0263583
0.0262073
0.0260668
0.0259367
0.0258173
0.0257085
0.0256104
0.0255231
0.0254467
0.0253811
0.0253264
0.0252826
0.0252498
0.0252279
0.0252169
0.0252169
0.0252279
0.0252498
0.0252826
0.0253264
0.0289976
0.028724
0.0284849
0.0282536
0.0280307
0.0278169
0.0276125
0.0274177
0.027233
0.0270583
0.026894
0.0267402
0.026597
0.0264645
0.0263428
0.026232
0.0261321
0.0260433
0.0259654
0.0258986
0.0258429
0.0257983
0.0257649
0.0257426
0.0257314
0.0257314
0.0257426
0.0257649
0.0257983
0.0258429
0.0295867
0.0293088
0.029065
0.0288291
0.0286018
0.0283838
0.0281753
0.0279768
0.0277884
0.0276104
0.027443
0.0272862
0.0271403
0.0270053
0.0268813
0.0267684
0.0266666
0.0265761
0.0264968
0.0264287
0.026372
0.0263266
0.0262925
0.0262698
0.0262584
0.0262584
0.0262698
0.0262925
0.0263266
0.026372
0.0301907
0.0299086
0.0296599
0.0294192
0.0291873
0.0289649
0.0287524
0.0285499
0.0283579
0.0281764
0.0280057
0.0278459
0.0276971
0.0275595
0.0274332
0.0273181
0.0272144
0.0271221
0.0270413
0.026972
0.0269142
0.0268679
0.0268332
0.02681
0.0267984
0.0267984
0.02681
0.0268332
0.0268679
0.0269142
0.0308103
0.0305238
0.0302701
0.0300245
0.0297879
0.029561
0.0293442
0.0291377
0.0289418
0.0287567
0.0285827
0.0284197
0.0282681
0.0281278
0.027999
0.0278817
0.027776
0.0276819
0.0275995
0.0275289
0.02747
0.0274228
0.0273874
0.0273638
0.027352
0.027352
0.0273638
0.0273874
0.0274228
0.02747
0.0314461
0.0311553
0.0308963
0.0306455
0.0304041
0.0301725
0.0299513
0.0297406
0.0295408
0.0293521
0.0291745
0.0290084
0.0288537
0.0287106
0.0285793
0.0284597
0.0283519
0.028256
0.028172
0.0281
0.0280399
0.0279918
0.0279558
0.0279317
0.0279197
0.0279197
0.0279317
0.0279558
0.0279918
0.0280399
0.0320988
0.0318035
0.0315391
0.031283
0.0310365
0.0308002
0.0305744
0.0303594
0.0301556
0.029963
0.0297818
0.0296123
0.0294546
0.0293086
0.0291747
0.0290527
0.0289428
0.028845
0.0287593
0.0286859
0.0286246
0.0285756
0.0285388
0.0285143
0.028502
0.028502
0.0285143
0.0285388
0.0285756
0.0286246
0.0321991
0.0319375
0.0316859
0.0314446
0.0312141
0.0309947
0.0307866
0.0305901
0.0304052
0.0302323
0.0300713
0.0299224
0.0292247
0.0291747
0.0291372
0.0291121
0.0290996
0.0290996
0.0291121
0.0291372
0.0291747
0.0292247
0.00414204
0.00411489
0.00409445
0.00408079
0.00407394
0.00407394
0.00408078
0.00409445
0.00411488
0.00414204
0.00443414
0.00440065
0.00437374
0.00435349
0.00433996
0.00433318
0.00433318
0.00433996
0.00435349
0.00437374
0.00440065
0.00443413
0.00447411
0.00452047
0.00457309
0.00463184
0.00469657
0.00476713
0.00484335
0.00492508
0.00501212
0.00477583
0.00472984
0.00469019
0.00465698
0.0046303
0.00461022
0.00459681
0.00459009
0.00459009
0.00459681
0.00461022
0.0046303
0.00465698
0.00469018
0.00472984
0.00477582
0.00482803
0.00488632
0.00495056
0.0050206
0.00509627
0.00517741
0.00526383
0.00535534
0.00545175
0.00555285
0.00565843
0.00520266
0.00513887
0.005081
0.00502917
0.00498353
0.00494418
0.00491123
0.00488476
0.00486485
0.00485154
0.00484488
0.00484487
0.00485154
0.00486484
0.00488476
0.00491123
0.00494418
0.00498353
0.00502917
0.00508099
0.00513887
0.00520265
0.00527221
0.00534736
0.00542795
0.0055138
0.00560472
0.00570051
0.00580097
0.0059059
0.00601507
0.00612829
0.00624533
0.00559684
0.00552216
0.00545305
0.00538968
0.00533219
0.00528072
0.00523539
0.00519632
0.0051636
0.00513733
0.00511756
0.00510435
0.00509774
0.00509774
0.00510435
0.00511756
0.00513733
0.0051636
0.00519632
0.00523539
0.00528071
0.00533218
0.00538967
0.00545304
0.00552215
0.00559684
0.00567693
0.00576226
0.00585264
0.00594788
0.00604778
0.00615213
0.00626073
0.00637338
0.00648985
0.00660995
0.00673345
0.0069938
0.00600943
0.00592456
0.00584491
0.00577065
0.00570194
0.00563895
0.00558181
0.00553066
0.00548562
0.0054468
0.0054143
0.0053882
0.00536856
0.00535544
0.00534888
0.00534888
0.00535544
0.00536856
0.0053882
0.0054143
0.0054468
0.00548562
0.00553065
0.0055818
0.00563894
0.00570194
0.00577064
0.0058449
0.00592455
0.00600942
0.00609933
0.00619408
0.00629348
0.00639734
0.00650545
0.00661761
0.00673361
0.00685324
0.00697629
0.00723133
0.00634499
0.0062555
0.00617104
0.00609178
0.00601789
0.00594955
0.00588689
0.00583006
0.0057792
0.00573442
0.00569583
0.00566352
0.00563758
0.00561806
0.00560502
0.0055985
0.0055985
0.00560502
0.00561806
0.00563758
0.00566352
0.00569583
0.00573442
0.0057792
0.00583006
0.00588688
0.00594954
0.00601789
0.00609177
0.00617103
0.00625549
0.00634498
0.00643932
0.0065383
0.00664174
0.00674943
0.00686118
0.00697679
0.00709605
0.00721874
0.00746881
0.0066838
0.00658982
0.00650068
0.00641657
0.00633765
0.00626409
0.00619606
0.0061337
0.00607715
0.00602654
0.00598199
0.0059436
0.00591146
0.00588566
0.00586625
0.00585329
0.0058468
0.0058468
0.00585329
0.00586625
0.00588566
0.00591146
0.0059436
0.00598199
0.00602654
0.00607714
0.00613369
0.00619605
0.00626409
0.00633764
0.00641656
0.00650068
0.00658981
0.00668379
0.00678242
0.00688551
0.00699287
0.00710429
0.00721959
0.00733855
0.00746097
0.00770638
0.00702604
0.0069277
0.00683401
0.00674517
0.00666134
0.00658271
0.00650944
0.00644167
0.00637957
0.00632326
0.00627287
0.00622852
0.00619031
0.00615832
0.00613264
0.00611333
0.00610043
0.00609397
0.00609397
0.00610043
0.00611333
0.00613264
0.00615832
0.00619031
0.00622852
0.00627287
0.00632326
0.00637956
0.00644167
0.00650943
0.00658271
0.00666134
0.00674516
0.00683401
0.00692769
0.00702604
0.00712885
0.00723594
0.00734712
0.00746218
0.00758093
0.00770315
0.0079442
0.00737194
0.00726934
0.00717121
0.00707776
0.00698915
0.00690556
0.00682716
0.00675412
0.00668658
0.00662469
0.00656859
0.00651839
0.00647421
0.00643615
0.00640429
0.00637872
0.00635949
0.00634664
0.00634021
0.00634021
0.00634664
0.00635949
0.00637872
0.00640429
0.00643615
0.00647421
0.00651839
0.00656858
0.00662469
0.00668658
0.00675412
0.00682716
0.00690555
0.00698914
0.00707775
0.00717121
0.00726933
0.00737194
0.00747883
0.00758983
0.00770473
0.00782335
0.00794545
0.00818243
0.00761495
0.00751249
0.00741452
0.00732123
0.0072328
0.00714939
0.00707118
0.00699832
0.00693097
0.00686925
0.00681332
0.00676327
0.00671924
0.0066813
0.00664956
0.00662407
0.00660491
0.00659211
0.0065857
0.0065857
0.00659211
0.00660491
0.00662407
0.00664956
0.0066813
0.00671924
0.00676327
0.00681331
0.00686925
0.00693096
0.00699832
0.00707118
0.00714939
0.00723279
0.00732123
0.00741452
0.00751248
0.00761495
0.00772172
0.00783261
0.00794742
0.00806597
0.00818804
0.00842122
0.00796476
0.00785805
0.00775566
0.00765779
0.00756461
0.0074763
0.00739302
0.00731495
0.00724223
0.00717501
0.00711344
0.00705763
0.00700771
0.00696379
0.00692596
0.0068943
0.00686889
0.00684978
0.00683702
0.00683063
0.00683063
0.00683702
0.00684978
0.00686889
0.0068943
0.00692596
0.00696379
0.00700771
0.00705763
0.00711343
0.00717501
0.00724223
0.00731495
0.00739302
0.0074763
0.00756461
0.00765779
0.00775566
0.00785804
0.00796476
0.00807561
0.00819041
0.00830897
0.00843107
0.00866071
0.008319
0.00820812
0.0081014
0.00799903
0.0079012
0.00780807
0.00771982
0.00763663
0.00755864
0.00748601
0.00741889
0.00735741
0.0073017
0.00725188
0.00720804
0.00717029
0.0071387
0.00711335
0.00709429
0.00708155
0.00707518
0.00707518
0.00708155
0.00709429
0.00711335
0.0071387
0.00717029
0.00720804
0.00725188
0.0073017
0.00735741
0.00741889
0.00748601
0.00755863
0.00763662
0.00771982
0.00780807
0.00790119
0.00799903
0.0081014
0.00820812
0.008319
0.00843386
0.00855249
0.0086747
0.00890104
0.00856294
0.00845196
0.00834517
0.00824276
0.0081449
0.00805177
0.00796353
0.00788036
0.00780241
0.00772984
0.00766277
0.00760136
0.00754571
0.00749595
0.00745217
0.00741448
0.00738294
0.00735763
0.00733859
0.00732588
0.00731952
0.00731952
0.00732588
0.00733859
0.00735763
0.00738294
0.00741447
0.00745217
0.00749595
0.00754571
0.00760135
0.00766277
0.00772984
0.00780241
0.00788036
0.00796353
0.00805176
0.0081449
0.00824276
0.00834517
0.00845196
0.00856293
0.00867791
0.0087967
0.00891908
0.00914235
0.00892273
0.00880757
0.00869643
0.00858952
0.008487
0.00838906
0.00829587
0.00820759
0.0081244
0.00804645
0.00797387
0.00790683
0.00784543
0.00778982
0.00774009
0.00769635
0.00765868
0.00762717
0.00760189
0.00758288
0.00757018
0.00756382
0.00756382
0.00757018
0.00758288
0.00760189
0.00762717
0.00765868
0.00769634
0.00774009
0.00778982
0.00784543
0.00790683
0.00797387
0.00804645
0.0081244
0.00820759
0.00829586
0.00838906
0.008487
0.00858952
0.00869643
0.00880757
0.00892273
0.00904173
0.00916435
0.00938477
0.00916845
0.00905304
0.00894169
0.00883459
0.00873191
0.00863383
0.00854053
0.00845216
0.0083689
0.00829089
0.00821829
0.00815122
0.00808981
0.00803419
0.00798446
0.00794073
0.00790308
0.00787158
0.00784631
0.0078273
0.00781461
0.00780826
0.00780826
0.00781461
0.0078273
0.00784631
0.00787158
0.00790308
0.00794073
0.00798446
0.00803419
0.00808981
0.00815122
0.00821829
0.00829089
0.0083689
0.00845216
0.00854052
0.00863383
0.00873191
0.00883459
0.00894169
0.00905305
0.00916845
0.00928773
0.00941067
0.00962846
0.00941524
0.00929952
0.00918789
0.00908053
0.00897764
0.00887937
0.0087859
0.0086974
0.00861402
0.00853592
0.00846323
0.0083961
0.00833465
0.00827899
0.00822924
0.00818549
0.00814782
0.00811632
0.00809104
0.00807204
0.00805935
0.00805299
0.008053
0.00805935
0.00807204
0.00809104
0.00811632
0.00814782
0.00818549
0.00822924
0.00827899
0.00833465
0.0083961
0.00846323
0.00853592
0.00861402
0.0086974
0.0087859
0.00887937
0.00897764
0.00908054
0.00918789
0.00929952
0.00941524
0.00953486
0.00965817
0.00987352
0.00966323
0.00954714
0.00943517
0.00932751
0.00922433
0.00912582
0.00903214
0.00894345
0.00885991
0.00878167
0.00870886
0.00864163
0.0085801
0.00852438
0.00847457
0.00843078
0.00839308
0.00836155
0.00833626
0.00831724
0.00830454
0.00829819
0.00829819
0.00830454
0.00831724
0.00833626
0.00836155
0.00839308
0.00843078
0.00847457
0.00852438
0.0085801
0.00864163
0.00870886
0.00878167
0.00885991
0.00894345
0.00903214
0.00912582
0.00922434
0.00932751
0.00943517
0.00954714
0.00966323
0.00978325
0.009907
0.0101201
0.00991256
0.00979604
0.00968367
0.00957565
0.00947215
0.00937334
0.00927939
0.00919047
0.00910672
0.0090283
0.00895534
0.00888797
0.00882632
0.0087705
0.00872062
0.00867676
0.00863901
0.00860744
0.00858211
0.00856307
0.00855035
0.00854399
0.00854399
0.00855036
0.00856307
0.00858211
0.00860744
0.00863901
0.00867676
0.00872062
0.0087705
0.00882632
0.00888797
0.00895534
0.0090283
0.00910672
0.00919047
0.0092794
0.00937334
0.00947215
0.00957565
0.00968368
0.00979604
0.00991256
0.010033
0.0101573
0.0103684
0.0101634
0.0100464
0.00993355
0.00982511
0.00972123
0.00962207
0.00952781
0.00943861
0.00935461
0.00927596
0.0092028
0.00913526
0.00907347
0.00901752
0.00896753
0.00892358
0.00888575
0.00885413
0.00882875
0.00880968
0.00879694
0.00879057
0.00879057
0.00879694
0.00880968
0.00882875
0.00885413
0.00888576
0.00892358
0.00896753
0.00901752
0.00907347
0.00913527
0.0092028
0.00927596
0.00935461
0.00943861
0.00952782
0.00962208
0.00972123
0.00982512
0.00993355
0.0100464
0.0101634
0.0102844
0.0104092
0.0106184
0.0104158
0.0102983
0.0101849
0.010076
0.00997171
0.00987216
0.00977754
0.009688
0.00960371
0.0095248
0.00945141
0.00938366
0.00932169
0.00926558
0.00921546
0.00917139
0.00913348
0.00910177
0.00907634
0.00905722
0.00904446
0.00903807
0.00903807
0.00904446
0.00905722
0.00907634
0.00910177
0.00913348
0.0091714