/*--------------------------------*- C++ -*----------------------------------*\
  =========                 |
  \\      /  F ield         | OpenFOAM: The Open Source CFD Toolbox
   \\    /   O peration     | Website:  https://openfoam.org
    \\  /    A nd           | Version:  7
     \\/     M anipulation  |
\*---------------------------------------------------------------------------*/
FoamFile
{
    version     2.0;
    format      ascii;
    class       volScalarField;
    location    "200000";
    object      k;
}
// * * * * * * * * * * * * * * * * * * * * * * * * * * * * * * * * * * * * * //

dimensions      [0 2 -2 0 0 0 0];

internalField   nonuniform List<scalar> 
4825
(
1.21544e-06
1.21342e-06
1.21985e-06
1.21789e-06
1.21593e-06
1.21397e-06
1.21201e-06
1.22412e-06
1.22223e-06
1.22033e-06
1.21843e-06
1.21653e-06
1.22826e-06
1.22644e-06
1.2246e-06
1.22275e-06
1.22091e-06
1.23225e-06
1.2305e-06
1.22872e-06
1.22694e-06
1.22515e-06
1.23611e-06
1.23441e-06
1.2327e-06
1.23098e-06
1.22925e-06
1.23982e-06
1.23819e-06
1.23654e-06
1.23487e-06
1.23321e-06
1.24338e-06
1.24181e-06
1.24022e-06
1.23862e-06
1.23701e-06
1.24679e-06
1.24529e-06
1.24376e-06
1.24222e-06
1.24067e-06
1.25004e-06
1.24861e-06
1.24715e-06
1.24566e-06
1.24417e-06
1.25314e-06
1.25177e-06
1.25038e-06
1.24896e-06
1.24753e-06
1.25607e-06
1.25478e-06
1.25344e-06
1.25209e-06
1.25072e-06
1.25883e-06
1.25761e-06
1.25635e-06
1.25505e-06
1.25375e-06
1.26142e-06
1.26028e-06
1.25908e-06
1.25785e-06
1.26384e-06
1.26276e-06
1.26164e-06
1.26048e-06
1.26607e-06
1.26507e-06
1.26401e-06
1.26292e-06
1.26811e-06
1.26719e-06
1.2662e-06
1.26996e-06
1.26911e-06
1.2682e-06
1.27161e-06
1.27084e-06
1.27306e-06
1.27236e-06
1.27429e-06
1.27367e-06
1.2753e-06
1.27477e-06
1.27609e-06
1.27563e-06
1.27664e-06
1.13375e-06
1.13077e-06
1.12782e-06
1.12492e-06
1.12205e-06
1.11925e-06
1.11651e-06
1.11384e-06
1.11127e-06
1.1088e-06
1.10643e-06
1.10418e-06
1.10206e-06
1.10007e-06
1.09823e-06
1.09653e-06
1.09498e-06
1.0936e-06
1.09237e-06
1.09132e-06
1.14006e-06
1.13714e-06
1.13426e-06
1.13141e-06
1.1286e-06
1.12585e-06
1.12316e-06
1.12055e-06
1.11802e-06
1.11559e-06
1.11327e-06
1.11106e-06
1.10897e-06
1.10702e-06
1.10521e-06
1.10354e-06
1.10202e-06
1.10066e-06
1.09946e-06
1.09842e-06
1.14625e-06
1.14339e-06
1.14057e-06
1.13778e-06
1.13503e-06
1.13233e-06
1.12969e-06
1.12713e-06
1.12465e-06
1.12227e-06
1.11998e-06
1.11782e-06
1.11577e-06
1.11385e-06
1.11207e-06
1.11043e-06
1.10894e-06
1.10761e-06
1.10643e-06
1.10541e-06
1.15232e-06
1.14953e-06
1.14676e-06
1.14403e-06
1.14134e-06
1.13869e-06
1.13611e-06
1.13359e-06
1.13116e-06
1.12882e-06
1.12658e-06
1.12446e-06
1.12245e-06
1.12057e-06
1.11882e-06
1.11721e-06
1.11575e-06
1.11443e-06
1.11328e-06
1.11228e-06
1.15827e-06
1.15554e-06
1.15284e-06
1.15016e-06
1.14753e-06
1.14493e-06
1.1424e-06
1.13994e-06
1.13755e-06
1.13526e-06
1.13307e-06
1.13098e-06
1.12901e-06
1.12716e-06
1.12545e-06
1.12387e-06
1.12243e-06
1.12114e-06
1.12001e-06
1.11903e-06
1.1641e-06
1.16143e-06
1.15879e-06
1.15617e-06
1.15359e-06
1.15106e-06
1.14858e-06
1.14616e-06
1.14383e-06
1.14158e-06
1.13943e-06
1.13738e-06
1.13545e-06
1.13364e-06
1.13195e-06
1.13041e-06
1.129e-06
1.12773e-06
1.12662e-06
1.12566e-06
1.1698e-06
1.1672e-06
1.16462e-06
1.16206e-06
1.15954e-06
1.15706e-06
1.15463e-06
1.15226e-06
1.14998e-06
1.14777e-06
1.14566e-06
1.14366e-06
1.14177e-06
1.13999e-06
1.13834e-06
1.13682e-06
1.13544e-06
1.1342e-06
1.13311e-06
1.13217e-06
1.17538e-06
1.17284e-06
1.17033e-06
1.16783e-06
1.16536e-06
1.16293e-06
1.16056e-06
1.15824e-06
1.156e-06
1.15385e-06
1.15178e-06
1.14982e-06
1.14796e-06
1.14622e-06
1.14461e-06
1.14312e-06
1.14177e-06
1.14055e-06
1.13948e-06
1.13856e-06
1.13778e-06
1.13716e-06
1.13669e-06
1.13637e-06
1.13622e-06
1.13622e-06
1.13637e-06
1.13669e-06
1.13716e-06
1.13778e-06
1.13856e-06
1.13948e-06
1.14055e-06
1.14177e-06
1.14312e-06
1.18084e-06
1.17836e-06
1.17591e-06
1.17347e-06
1.17106e-06
1.16869e-06
1.16636e-06
1.1641e-06
1.16191e-06
1.15979e-06
1.15777e-06
1.15585e-06
1.15403e-06
1.15233e-06
1.15075e-06
1.14929e-06
1.14797e-06
1.14678e-06
1.14573e-06
1.14482e-06
1.14406e-06
1.14345e-06
1.14299e-06
1.14268e-06
1.14253e-06
1.14253e-06
1.14268e-06
1.14299e-06
1.14345e-06
1.14406e-06
1.14482e-06
1.14573e-06
1.14678e-06
1.14797e-06
1.14929e-06
1.15075e-06
1.15233e-06
1.18617e-06
1.18376e-06
1.18136e-06
1.17899e-06
1.17663e-06
1.17431e-06
1.17204e-06
1.16983e-06
1.16768e-06
1.16562e-06
1.16364e-06
1.16176e-06
1.15998e-06
1.15831e-06
1.15677e-06
1.15534e-06
1.15404e-06
1.15288e-06
1.15185e-06
1.15096e-06
1.15022e-06
1.14962e-06
1.14917e-06
1.14887e-06
1.14872e-06
1.14872e-06
1.14887e-06
1.14917e-06
1.14962e-06
1.15022e-06
1.15096e-06
1.15185e-06
1.15288e-06
1.15404e-06
1.15534e-06
1.15677e-06
1.15831e-06
1.15998e-06
1.19137e-06
1.18903e-06
1.18669e-06
1.18437e-06
1.18208e-06
1.17981e-06
1.17759e-06
1.17543e-06
1.17334e-06
1.17132e-06
1.16938e-06
1.16754e-06
1.1658e-06
1.16417e-06
1.16266e-06
1.16126e-06
1.15999e-06
1.15885e-06
1.15785e-06
1.15698e-06
1.15625e-06
1.15567e-06
1.15523e-06
1.15493e-06
1.15479e-06
1.15479e-06
1.15493e-06
1.15523e-06
1.15567e-06
1.15625e-06
1.15698e-06
1.15785e-06
1.15885e-06
1.15999e-06
1.16126e-06
1.16266e-06
1.16417e-06
1.1658e-06
1.16754e-06
1.16938e-06
1.19645e-06
1.19417e-06
1.1919e-06
1.18963e-06
1.18739e-06
1.18519e-06
1.18302e-06
1.18091e-06
1.17886e-06
1.17689e-06
1.175e-06
1.1732e-06
1.1715e-06
1.1699e-06
1.16842e-06
1.16706e-06
1.16582e-06
1.1647e-06
1.16372e-06
1.16287e-06
1.16216e-06
1.16159e-06
1.16116e-06
1.16087e-06
1.16073e-06
1.16073e-06
1.16087e-06
1.16116e-06
1.16159e-06
1.16216e-06
1.16287e-06
1.16372e-06
1.1647e-06
1.16582e-06
1.16706e-06
1.16842e-06
1.1699e-06
1.1715e-06
1.1732e-06
1.175e-06
1.17689e-06
1.17886e-06
1.20139e-06
1.19918e-06
1.19697e-06
1.19477e-06
1.19258e-06
1.19043e-06
1.18832e-06
1.18625e-06
1.18426e-06
1.18233e-06
1.18048e-06
1.17873e-06
1.17706e-06
1.17551e-06
1.17406e-06
1.17273e-06
1.17151e-06
1.17043e-06
1.16947e-06
1.16864e-06
1.16794e-06
1.16738e-06
1.16696e-06
1.16668e-06
1.16654e-06
1.16654e-06
1.16668e-06
1.16696e-06
1.16738e-06
1.16794e-06
1.16864e-06
1.16946e-06
1.17043e-06
1.17151e-06
1.17273e-06
1.17406e-06
1.17551e-06
1.17706e-06
1.17872e-06
1.18048e-06
1.18233e-06
1.18426e-06
1.18625e-06
1.18831e-06
1.19043e-06
1.20621e-06
1.20406e-06
1.20191e-06
1.19977e-06
1.19764e-06
1.19554e-06
1.19348e-06
1.19147e-06
1.18952e-06
1.18764e-06
1.18584e-06
1.18412e-06
1.1825e-06
1.18098e-06
1.17957e-06
1.17827e-06
1.17708e-06
1.17602e-06
1.17508e-06
1.17427e-06
1.17359e-06
1.17304e-06
1.17263e-06
1.17236e-06
1.17222e-06
1.17222e-06
1.17236e-06
1.17263e-06
1.17304e-06
1.17359e-06
1.17427e-06
1.17508e-06
1.17602e-06
1.17708e-06
1.17827e-06
1.17957e-06
1.18098e-06
1.1825e-06
1.18412e-06
1.18584e-06
1.18764e-06
1.18952e-06
1.19147e-06
1.19348e-06
1.19554e-06
1.19764e-06
1.19977e-06
1.21089e-06
1.2088e-06
1.20672e-06
1.20463e-06
1.20257e-06
1.20052e-06
1.19851e-06
1.19656e-06
1.19465e-06
1.19282e-06
1.19106e-06
1.18939e-06
1.18781e-06
1.18632e-06
1.18495e-06
1.18368e-06
1.18252e-06
1.18148e-06
1.18057e-06
1.17977e-06
1.17911e-06
1.17858e-06
1.17818e-06
1.17791e-06
1.17777e-06
1.17777e-06
1.17791e-06
1.17818e-06
1.17858e-06
1.17911e-06
1.17977e-06
1.18057e-06
1.18148e-06
1.18252e-06
1.18368e-06
1.18495e-06
1.18632e-06
1.18781e-06
1.18939e-06
1.19106e-06
1.19282e-06
1.19465e-06
1.19656e-06
1.19851e-06
1.20052e-06
1.20256e-06
1.20463e-06
1.20672e-06
1.2088e-06
1.21089e-06
1.21544e-06
1.21342e-06
1.21139e-06
1.20937e-06
1.20736e-06
1.20537e-06
1.20342e-06
1.20151e-06
1.19966e-06
1.19787e-06
1.19616e-06
1.19452e-06
1.19298e-06
1.19154e-06
1.19019e-06
1.18895e-06
1.18782e-06
1.18681e-06
1.18592e-06
1.18515e-06
1.1845e-06
1.18398e-06
1.18359e-06
1.18333e-06
1.1832e-06
1.1832e-06
1.18333e-06
1.18359e-06
1.18398e-06
1.1845e-06
1.18515e-06
1.18592e-06
1.18681e-06
1.18782e-06
1.18895e-06
1.19019e-06
1.19154e-06
1.19298e-06
1.19452e-06
1.19616e-06
1.19787e-06
1.19965e-06
1.20151e-06
1.20341e-06
1.20537e-06
1.20736e-06
1.20937e-06
1.21139e-06
1.21342e-06
1.21544e-06
1.21985e-06
1.21789e-06
1.21593e-06
1.21397e-06
1.21201e-06
1.21008e-06
1.20818e-06
1.20632e-06
1.20452e-06
1.20278e-06
1.20111e-06
1.19952e-06
1.19802e-06
1.19661e-06
1.1953e-06
1.19409e-06
1.193e-06
1.19201e-06
1.19114e-06
1.19039e-06
1.18976e-06
1.18925e-06
1.18887e-06
1.18861e-06
1.18848e-06
1.18848e-06
1.18861e-06
1.18887e-06
1.18925e-06
1.18976e-06
1.19039e-06
1.19114e-06
1.19201e-06
1.193e-06
1.19409e-06
1.1953e-06
1.19661e-06
1.19802e-06
1.19952e-06
1.20111e-06
1.20278e-06
1.20452e-06
1.20632e-06
1.20818e-06
1.21008e-06
1.21201e-06
1.21397e-06
1.21593e-06
1.21789e-06
1.21985e-06
1.22412e-06
1.22223e-06
1.22033e-06
1.21843e-06
1.21653e-06
1.21466e-06
1.21281e-06
1.211e-06
1.20925e-06
1.20756e-06
1.20594e-06
1.20439e-06
1.20293e-06
1.20155e-06
1.20028e-06
1.1991e-06
1.19803e-06
1.19707e-06
1.19622e-06
1.19549e-06
1.19488e-06
1.19438e-06
1.19401e-06
1.19376e-06
1.19364e-06
1.19364e-06
1.19376e-06
1.19401e-06
1.19438e-06
1.19488e-06
1.19549e-06
1.19622e-06
1.19707e-06
1.19803e-06
1.1991e-06
1.20028e-06
1.20155e-06
1.20293e-06
1.20439e-06
1.20594e-06
1.20756e-06
1.20925e-06
1.211e-06
1.21281e-06
1.21466e-06
1.21653e-06
1.21843e-06
1.22033e-06
1.22223e-06
1.22412e-06
1.22826e-06
1.22644e-06
1.2246e-06
1.22275e-06
1.22091e-06
1.21909e-06
1.2173e-06
1.21555e-06
1.21384e-06
1.2122e-06
1.21062e-06
1.20912e-06
1.20769e-06
1.20636e-06
1.20512e-06
1.20397e-06
1.20293e-06
1.202e-06
1.20117e-06
1.20046e-06
1.19986e-06
1.19938e-06
1.19902e-06
1.19878e-06
1.19866e-06
1.19866e-06
1.19878e-06
1.19902e-06
1.19938e-06
1.19986e-06
1.20046e-06
1.20117e-06
1.202e-06
1.20293e-06
1.20397e-06
1.20512e-06
1.20636e-06
1.20769e-06
1.20912e-06
1.21062e-06
1.2122e-06
1.21384e-06
1.21555e-06
1.2173e-06
1.21909e-06
1.22091e-06
1.22275e-06
1.2246e-06
1.22644e-06
1.22826e-06
1.23225e-06
1.2305e-06
1.22872e-06
1.22694e-06
1.22515e-06
1.22339e-06
1.22165e-06
1.21995e-06
1.2183e-06
1.2167e-06
1.21516e-06
1.2137e-06
1.21232e-06
1.21102e-06
1.20982e-06
1.20871e-06
1.20769e-06
1.20679e-06
1.20598e-06
1.20529e-06
1.20471e-06
1.20424e-06
1.20389e-06
1.20366e-06
1.20354e-06
1.20354e-06
1.20366e-06
1.20389e-06
1.20424e-06
1.20471e-06
1.20529e-06
1.20598e-06
1.20679e-06
1.20769e-06
1.20871e-06
1.20982e-06
1.21102e-06
1.21232e-06
1.2137e-06
1.21516e-06
1.2167e-06
1.2183e-06
1.21995e-06
1.22165e-06
1.22339e-06
1.22515e-06
1.22694e-06
1.22872e-06
1.2305e-06
1.23225e-06
1.23611e-06
1.23442e-06
1.2327e-06
1.23098e-06
1.22925e-06
1.22754e-06
1.22586e-06
1.22421e-06
1.22261e-06
1.22106e-06
1.21957e-06
1.21815e-06
1.21681e-06
1.21555e-06
1.21438e-06
1.2133e-06
1.21232e-06
1.21143e-06
1.21065e-06
1.20998e-06
1.20942e-06
1.20896e-06
1.20862e-06
1.20839e-06
1.20828e-06
1.20828e-06
1.20839e-06
1.20862e-06
1.20896e-06
1.20942e-06
1.20998e-06
1.21065e-06
1.21143e-06
1.21232e-06
1.2133e-06
1.21438e-06
1.21555e-06
1.21681e-06
1.21815e-06
1.21957e-06
1.22106e-06
1.22261e-06
1.22421e-06
1.22586e-06
1.22754e-06
1.22925e-06
1.23098e-06
1.2327e-06
1.23441e-06
1.23611e-06
1.23982e-06
1.23819e-06
1.23654e-06
1.23487e-06
1.23321e-06
1.23155e-06
1.22992e-06
1.22833e-06
1.22677e-06
1.22527e-06
1.22383e-06
1.22245e-06
1.22115e-06
1.21993e-06
1.2188e-06
1.21775e-06
1.2168e-06
1.21594e-06
1.21518e-06
1.21453e-06
1.21398e-06
1.21354e-06
1.21321e-06
1.21299e-06
1.21288e-06
1.21288e-06
1.21299e-06
1.21321e-06
1.21354e-06
1.21398e-06
1.21453e-06
1.21518e-06
1.21594e-06
1.2168e-06
1.21775e-06
1.2188e-06
1.21993e-06
1.22115e-06
1.22245e-06
1.22383e-06
1.22527e-06
1.22677e-06
1.22833e-06
1.22992e-06
1.23155e-06
1.23321e-06
1.23487e-06
1.23654e-06
1.23819e-06
1.23982e-06
1.24338e-06
1.24181e-06
1.24022e-06
1.23862e-06
1.23701e-06
1.23542e-06
1.23384e-06
1.2323e-06
1.23079e-06
1.22934e-06
1.22794e-06
1.22661e-06
1.22535e-06
1.22417e-06
1.22307e-06
1.22205e-06
1.22113e-06
1.2203e-06
1.21957e-06
1.21893e-06
1.2184e-06
1.21798e-06
1.21765e-06
1.21744e-06
1.21733e-06
1.21733e-06
1.21744e-06
1.21765e-06
1.21798e-06
1.2184e-06
1.21893e-06
1.21957e-06
1.2203e-06
1.22113e-06
1.22205e-06
1.22307e-06
1.22417e-06
1.22535e-06
1.22661e-06
1.22794e-06
1.22934e-06
1.23079e-06
1.2323e-06
1.23384e-06
1.23542e-06
1.23701e-06
1.23862e-06
1.24022e-06
1.24181e-06
1.24338e-06
1.24679e-06
1.24529e-06
1.24376e-06
1.24222e-06
1.24067e-06
1.23913e-06
1.23761e-06
1.23612e-06
1.23467e-06
1.23326e-06
1.23191e-06
1.23062e-06
1.2294e-06
1.22826e-06
1.22719e-06
1.22621e-06
1.22532e-06
1.22451e-06
1.22381e-06
1.22319e-06
1.22268e-06
1.22226e-06
1.22195e-06
1.22174e-06
1.22164e-06
1.22164e-06
1.22174e-06
1.22195e-06
1.22226e-06
1.22268e-06
1.22319e-06
1.22381e-06
1.22451e-06
1.22532e-06
1.22621e-06
1.22719e-06
1.22826e-06
1.2294e-06
1.23062e-06
1.23191e-06
1.23326e-06
1.23467e-06
1.23612e-06
1.23761e-06
1.23913e-06
1.24067e-06
1.24222e-06
1.24376e-06
1.24529e-06
1.24679e-06
1.25004e-06
1.24861e-06
1.24715e-06
1.24566e-06
1.24418e-06
1.24269e-06
1.24123e-06
1.23979e-06
1.23839e-06
1.23703e-06
1.23573e-06
1.23448e-06
1.23331e-06
1.2322e-06
1.23117e-06
1.23022e-06
1.22936e-06
1.22858e-06
1.22789e-06
1.2273e-06
1.2268e-06
1.2264e-06
1.2261e-06
1.2259e-06
1.2258e-06
1.2258e-06
1.2259e-06
1.2261e-06
1.2264e-06
1.2268e-06
1.2273e-06
1.22789e-06
1.22858e-06
1.22936e-06
1.23022e-06
1.23117e-06
1.2322e-06
1.23331e-06
1.23448e-06
1.23573e-06
1.23703e-06
1.23839e-06
1.23979e-06
1.24123e-06
1.24269e-06
1.24417e-06
1.24566e-06
1.24715e-06
1.24861e-06
1.25004e-06
1.25314e-06
1.25177e-06
1.25038e-06
1.24896e-06
1.24753e-06
1.2461e-06
1.24469e-06
1.24331e-06
1.24196e-06
1.24065e-06
1.23939e-06
1.23819e-06
1.23706e-06
1.23599e-06
1.235e-06
1.23408e-06
1.23324e-06
1.2325e-06
1.23183e-06
1.23126e-06
1.23078e-06
1.23039e-06
1.2301e-06
1.22991e-06
1.22981e-06
1.22981e-06
1.22991e-06
1.2301e-06
1.23039e-06
1.23078e-06
1.23126e-06
1.23183e-06
1.23249e-06
1.23324e-06
1.23408e-06
1.235e-06
1.23599e-06
1.23706e-06
1.23819e-06
1.23939e-06
1.24065e-06
1.24196e-06
1.24331e-06
1.24469e-06
1.2461e-06
1.24753e-06
1.24896e-06
1.25038e-06
1.25177e-06
1.25314e-06
1.25607e-06
1.25478e-06
1.25344e-06
1.25209e-06
1.25072e-06
1.24935e-06
1.248e-06
1.24667e-06
1.24537e-06
1.24411e-06
1.2429e-06
1.24175e-06
1.24065e-06
1.23962e-06
1.23867e-06
1.23778e-06
1.23698e-06
1.23626e-06
1.23562e-06
1.23507e-06
1.2346e-06
1.23423e-06
1.23395e-06
1.23376e-06
1.23367e-06
1.23367e-06
1.23376e-06
1.23395e-06
1.23423e-06
1.2346e-06
1.23507e-06
1.23562e-06
1.23626e-06
1.23698e-06
1.23778e-06
1.23867e-06
1.23962e-06
1.24065e-06
1.24175e-06
1.2429e-06
1.24411e-06
1.24537e-06
1.24667e-06
1.248e-06
1.24935e-06
1.25072e-06
1.25209e-06
1.25344e-06
1.25478e-06
1.25607e-06
1.25883e-06
1.25761e-06
1.25635e-06
1.25505e-06
1.25375e-06
1.25244e-06
1.25115e-06
1.24987e-06
1.24863e-06
1.24742e-06
1.24625e-06
1.24514e-06
1.24409e-06
1.2431e-06
1.24218e-06
1.24133e-06
1.24056e-06
1.23986e-06
1.23925e-06
1.23871e-06
1.23827e-06
1.23791e-06
1.23764e-06
1.23746e-06
1.23737e-06
1.23737e-06
1.23746e-06
1.23764e-06
1.23791e-06
1.23827e-06
1.23871e-06
1.23925e-06
1.23986e-06
1.24056e-06
1.24133e-06
1.24218e-06
1.2431e-06
1.24409e-06
1.24514e-06
1.24625e-06
1.24742e-06
1.24863e-06
1.24987e-06
1.25115e-06
1.25244e-06
1.25375e-06
1.25505e-06
1.25635e-06
1.25761e-06
1.25883e-06
1.26142e-06
1.26028e-06
1.25908e-06
1.25785e-06
1.25661e-06
1.25536e-06
1.25413e-06
1.25291e-06
1.25172e-06
1.25056e-06
1.24944e-06
1.24838e-06
1.24737e-06
1.24642e-06
1.24553e-06
1.24472e-06
1.24397e-06
1.24331e-06
1.24271e-06
1.2422e-06
1.24178e-06
1.24143e-06
1.24117e-06
1.241e-06
1.24091e-06
1.24091e-06
1.241e-06
1.24117e-06
1.24143e-06
1.24178e-06
1.2422e-06
1.24271e-06
1.24331e-06
1.24397e-06
1.24472e-06
1.24553e-06
1.24642e-06
1.24737e-06
1.24838e-06
1.24944e-06
1.25056e-06
1.25172e-06
1.25291e-06
1.25413e-06
1.25536e-06
1.25661e-06
1.25785e-06
1.25908e-06
1.26028e-06
1.26142e-06
1.26384e-06
1.26276e-06
1.26164e-06
1.26048e-06
1.2593e-06
1.25811e-06
1.25694e-06
1.25577e-06
1.25464e-06
1.25353e-06
1.25247e-06
1.25145e-06
1.25048e-06
1.24957e-06
1.24872e-06
1.24794e-06
1.24723e-06
1.24659e-06
1.24602e-06
1.24553e-06
1.24512e-06
1.24479e-06
1.24454e-06
1.24437e-06
1.24429e-06
1.24429e-06
1.24437e-06
1.24454e-06
1.24479e-06
1.24512e-06
1.24553e-06
1.24602e-06
1.24659e-06
1.24723e-06
1.24794e-06
1.24872e-06
1.24957e-06
1.25048e-06
1.25145e-06
1.25247e-06
1.25353e-06
1.25464e-06
1.25577e-06
1.25694e-06
1.25811e-06
1.2593e-06
1.26048e-06
1.26164e-06
1.26276e-06
1.26384e-06
1.26607e-06
1.26507e-06
1.26401e-06
1.26292e-06
1.26181e-06
1.26069e-06
1.25957e-06
1.25847e-06
1.25738e-06
1.25633e-06
1.25532e-06
1.25434e-06
1.25342e-06
1.25255e-06
1.25174e-06
1.251e-06
1.25031e-06
1.2497e-06
1.24916e-06
1.24869e-06
1.2483e-06
1.24798e-06
1.24774e-06
1.24758e-06
1.2475e-06
1.2475e-06
1.24758e-06
1.24774e-06
1.24798e-06
1.2483e-06
1.24869e-06
1.24916e-06
1.2497e-06
1.25031e-06
1.251e-06
1.25174e-06
1.25255e-06
1.25342e-06
1.25434e-06
1.25532e-06
1.25633e-06
1.25738e-06
1.25847e-06
1.25957e-06
1.26068e-06
1.26181e-06
1.26292e-06
1.26401e-06
1.26507e-06
1.26607e-06
1.26811e-06
1.26719e-06
1.2662e-06
1.26518e-06
1.26413e-06
1.26307e-06
1.26202e-06
1.26098e-06
1.25995e-06
1.25895e-06
1.25799e-06
1.25706e-06
1.25619e-06
1.25536e-06
1.25459e-06
1.25388e-06
1.25323e-06
1.25264e-06
1.25213e-06
1.25168e-06
1.25131e-06
1.251e-06
1.25077e-06
1.25062e-06
1.25055e-06
1.25055e-06
1.25062e-06
1.25077e-06
1.251e-06
1.25131e-06
1.25168e-06
1.25213e-06
1.25264e-06
1.25323e-06
1.25388e-06
1.25459e-06
1.25536e-06
1.25619e-06
1.25706e-06
1.25799e-06
1.25895e-06
1.25995e-06
1.26098e-06
1.26202e-06
1.26307e-06
1.26413e-06
1.26518e-06
1.2662e-06
1.26719e-06
1.26811e-06
1.26996e-06
1.26911e-06
1.2682e-06
1.26725e-06
1.26627e-06
1.26528e-06
1.26428e-06
1.2633e-06
1.26233e-06
1.26139e-06
1.26048e-06
1.2596e-06
1.25877e-06
1.25799e-06
1.25725e-06
1.25658e-06
1.25596e-06
1.25541e-06
1.25492e-06
1.25449e-06
1.25413e-06
1.25385e-06
1.25363e-06
1.25348e-06
1.25341e-06
1.25341e-06
1.25348e-06
1.25363e-06
1.25385e-06
1.25413e-06
1.25449e-06
1.25492e-06
1.25541e-06
1.25596e-06
1.25658e-06
1.25725e-06
1.25799e-06
1.25877e-06
1.2596e-06
1.26048e-06
1.26139e-06
1.26233e-06
1.2633e-06
1.26428e-06
1.26528e-06
1.26627e-06
1.26725e-06
1.2682e-06
1.26911e-06
1.26996e-06
1.27161e-06
1.27084e-06
1.27e-06
1.26912e-06
1.26821e-06
1.26728e-06
1.26636e-06
1.26543e-06
1.26452e-06
1.26364e-06
1.26278e-06
1.26195e-06
1.26117e-06
1.26042e-06
1.25973e-06
1.25909e-06
1.25851e-06
1.25799e-06
1.25752e-06
1.25712e-06
1.25678e-06
1.25651e-06
1.2563e-06
1.25616e-06
1.25609e-06
1.25609e-06
1.25616e-06
1.2563e-06
1.25651e-06
1.25678e-06
1.25712e-06
1.25752e-06
1.25798e-06
1.25851e-06
1.25909e-06
1.25973e-06
1.26042e-06
1.26117e-06
1.26195e-06
1.26278e-06
1.26364e-06
1.26452e-06
1.26543e-06
1.26635e-06
1.26728e-06
1.26821e-06
1.26912e-06
1.27e-06
1.27084e-06
1.27161e-06
1.27306e-06
1.27236e-06
1.2716e-06
1.27079e-06
1.26995e-06
1.26909e-06
1.26823e-06
1.26737e-06
1.26652e-06
1.26569e-06
1.26488e-06
1.26411e-06
1.26337e-06
1.26267e-06
1.26202e-06
1.26142e-06
1.26087e-06
1.26037e-06
1.25993e-06
1.25956e-06
1.25924e-06
1.25898e-06
1.25878e-06
1.25865e-06
1.25859e-06
1.25859e-06
1.25865e-06
1.25878e-06
1.25898e-06
1.25924e-06
1.25956e-06
1.25993e-06
1.26037e-06
1.26087e-06
1.26142e-06
1.26202e-06
1.26267e-06
1.26337e-06
1.26411e-06
1.26488e-06
1.26569e-06
1.26652e-06
1.26737e-06
1.26823e-06
1.26909e-06
1.26995e-06
1.27079e-06
1.2716e-06
1.27236e-06
1.27306e-06
1.27429e-06
1.27367e-06
1.27299e-06
1.27225e-06
1.27148e-06
1.27069e-06
1.26989e-06
1.2691e-06
1.26831e-06
1.26753e-06
1.26678e-06
1.26606e-06
1.26537e-06
1.26472e-06
1.26411e-06
1.26354e-06
1.26303e-06
1.26256e-06
1.26215e-06
1.2618e-06
1.2615e-06
1.26125e-06
1.26107e-06
1.26095e-06
1.26089e-06
1.26089e-06
1.26095e-06
1.26107e-06
1.26125e-06
1.2615e-06
1.2618e-06
1.26215e-06
1.26256e-06
1.26303e-06
1.26354e-06
1.26411e-06
1.26472e-06
1.26537e-06
1.26606e-06
1.26678e-06
1.26753e-06
1.26831e-06
1.2691e-06
1.26989e-06
1.27069e-06
1.27148e-06
1.27225e-06
1.27299e-06
1.27367e-06
1.27429e-06
1.2753e-06
1.27477e-06
1.27416e-06
1.27349e-06
1.2728e-06
1.27208e-06
1.27135e-06
1.27062e-06
1.26989e-06
1.26917e-06
1.26848e-06
1.26781e-06
1.26717e-06
1.26656e-06
1.26599e-06
1.26547e-06
1.26499e-06
1.26455e-06
1.26417e-06
1.26383e-06
1.26355e-06
1.26333e-06
1.26316e-06
1.26304e-06
1.26299e-06
1.26299e-06
1.26304e-06
1.26316e-06
1.26333e-06
1.26355e-06
1.26383e-06
1.26417e-06
1.26455e-06
1.26499e-06
1.26547e-06
1.26599e-06
1.26656e-06
1.26717e-06
1.26781e-06
1.26848e-06
1.26917e-06
1.26989e-06
1.27062e-06
1.27135e-06
1.27208e-06
1.27279e-06
1.27349e-06
1.27416e-06
1.27477e-06
1.2753e-06
1.27609e-06
1.27563e-06
1.2751e-06
1.27451e-06
1.27389e-06
1.27324e-06
1.27258e-06
1.27192e-06
1.27125e-06
1.2706e-06
1.26996e-06
1.26934e-06
1.26875e-06
1.26819e-06
1.26766e-06
1.26718e-06
1.26673e-06
1.26633e-06
1.26597e-06
1.26566e-06
1.2654e-06
1.26519e-06
1.26503e-06
1.26493e-06
1.26487e-06
1.26487e-06
1.26493e-06
1.26503e-06
1.26519e-06
1.2654e-06
1.26566e-06
1.26597e-06
1.26633e-06
1.26673e-06
1.26718e-06
1.26766e-06
1.26819e-06
1.26875e-06
1.26934e-06
1.26996e-06
1.2706e-06
1.27125e-06
1.27192e-06
1.27258e-06
1.27324e-06
1.27389e-06
1.27451e-06
1.2751e-06
1.27563e-06
1.27609e-06
1.27664e-06
1.27627e-06
1.27581e-06
1.2753e-06
1.27475e-06
1.27418e-06
1.27359e-06
1.27299e-06
1.27239e-06
1.27179e-06
1.27121e-06
1.27065e-06
1.27011e-06
1.26959e-06
1.26911e-06
1.26867e-06
1.26826e-06
1.26789e-06
1.26756e-06
1.26728e-06
1.26704e-06
1.26684e-06
1.2667e-06
1.2666e-06
1.26655e-06
1.26655e-06
1.2666e-06
1.2667e-06
1.26684e-06
1.26704e-06
1.26728e-06
1.26756e-06
1.26789e-06
1.26826e-06
1.26867e-06
1.26911e-06
1.26959e-06
1.27011e-06
1.27065e-06
1.27121e-06
1.27179e-06
1.27239e-06
1.27299e-06
1.27359e-06
1.27418e-06
1.27475e-06
1.2753e-06
1.27581e-06
1.27627e-06
1.27664e-06
1.27695e-06
1.27666e-06
1.27629e-06
1.27585e-06
1.27538e-06
1.27488e-06
1.27436e-06
1.27383e-06
1.27329e-06
1.27276e-06
1.27224e-06
1.27173e-06
1.27124e-06
1.27077e-06
1.27034e-06
1.26993e-06
1.26956e-06
1.26922e-06
1.26892e-06
1.26866e-06
1.26844e-06
1.26827e-06
1.26813e-06
1.26804e-06
1.268e-06
1.268e-06
1.26804e-06
1.26813e-06
1.26827e-06
1.26844e-06
1.26866e-06
1.26892e-06
1.26922e-06
1.26956e-06
1.26993e-06
1.27034e-06
1.27077e-06
1.27124e-06
1.27173e-06
1.27224e-06
1.27276e-06
1.27329e-06
1.27383e-06
1.27436e-06
1.27488e-06
1.27538e-06
1.27585e-06
1.27629e-06
1.27666e-06
1.27695e-06
1.277e-06
1.2768e-06
1.27651e-06
1.27616e-06
1.27576e-06
1.27533e-06
1.27489e-06
1.27443e-06
1.27396e-06
1.27349e-06
1.27302e-06
1.27257e-06
1.27213e-06
1.27172e-06
1.27133e-06
1.27096e-06
1.27063e-06
1.27032e-06
1.27005e-06
1.26982e-06
1.26962e-06
1.26946e-06
1.26934e-06
1.26925e-06
1.26921e-06
1.26921e-06
1.26925e-06
1.26934e-06
1.26946e-06
1.26962e-06
1.26982e-06
1.27005e-06
1.27032e-06
1.27063e-06
1.27096e-06
1.27133e-06
1.27172e-06
1.27213e-06
1.27257e-06
1.27302e-06
1.27349e-06
1.27396e-06
1.27443e-06
1.27489e-06
1.27533e-06
1.27576e-06
1.27616e-06
1.27651e-06
1.2768e-06
1.277e-06
1.27679e-06
1.27667e-06
1.27647e-06
1.2762e-06
1.27588e-06
1.27553e-06
1.27516e-06
1.27477e-06
1.27437e-06
1.27396e-06
1.27356e-06
1.27316e-06
1.27278e-06
1.27241e-06
1.27207e-06
1.27175e-06
1.27145e-06
1.27118e-06
1.27094e-06
1.27073e-06
1.27055e-06
1.27041e-06
1.2703e-06
1.27023e-06
1.27019e-06
1.27019e-06
1.27023e-06
1.2703e-06
1.27041e-06
1.27055e-06
1.27073e-06
1.27094e-06
1.27118e-06
1.27145e-06
1.27175e-06
1.27207e-06
1.27241e-06
1.27278e-06
1.27316e-06
1.27356e-06
1.27396e-06
1.27437e-06
1.27477e-06
1.27516e-06
1.27553e-06
1.27588e-06
1.2762e-06
1.27647e-06
1.27667e-06
1.27631e-06
1.27628e-06
1.27616e-06
1.27597e-06
1.27574e-06
1.27547e-06
1.27517e-06
1.27485e-06
1.27452e-06
1.27418e-06
1.27384e-06
1.2735e-06
1.27317e-06
1.27286e-06
1.27256e-06
1.27228e-06
1.27202e-06
1.27178e-06
1.27157e-06
1.27139e-06
1.27124e-06
1.27111e-06
1.27101e-06
1.27095e-06
1.27092e-06
1.27092e-06
1.27095e-06
1.27101e-06
1.27111e-06
1.27124e-06
1.27139e-06
1.27157e-06
1.27178e-06
1.27202e-06
1.27228e-06
1.27256e-06
1.27286e-06
1.27317e-06
1.2735e-06
1.27384e-06
1.27418e-06
1.27452e-06
1.27485e-06
1.27517e-06
1.27547e-06
1.27574e-06
1.27597e-06
1.27616e-06
1.27553e-06
1.2756e-06
1.27557e-06
1.27546e-06
1.27531e-06
1.27512e-06
1.2749e-06
1.27466e-06
1.2744e-06
1.27412e-06
1.27385e-06
1.27357e-06
1.2733e-06
1.27303e-06
1.27278e-06
1.27254e-06
1.27233e-06
1.27213e-06
1.27195e-06
1.27179e-06
1.27166e-06
1.27155e-06
1.27147e-06
1.27141e-06
1.27138e-06
1.27138e-06
1.27141e-06
1.27147e-06
1.27155e-06
1.27166e-06
1.27179e-06
1.27195e-06
1.27213e-06
1.27233e-06
1.27254e-06
1.27278e-06
1.27303e-06
1.2733e-06
1.27357e-06
1.27385e-06
1.27412e-06
1.2744e-06
1.27466e-06
1.2749e-06
1.27512e-06
1.27531e-06
1.27546e-06
1.27446e-06
1.27462e-06
1.27468e-06
1.27467e-06
1.2746e-06
1.27449e-06
1.27435e-06
1.27418e-06
1.27399e-06
1.27379e-06
1.27357e-06
1.27336e-06
1.27314e-06
1.27293e-06
1.27273e-06
1.27254e-06
1.27236e-06
1.27219e-06
1.27205e-06
1.27192e-06
1.27181e-06
1.27172e-06
1.27165e-06
1.2716e-06
1.27158e-06
1.27158e-06
1.2716e-06
1.27165e-06
1.27172e-06
1.27181e-06
1.27192e-06
1.27205e-06
1.27219e-06
1.27236e-06
1.27254e-06
1.27273e-06
1.27293e-06
1.27314e-06
1.27336e-06
1.27357e-06
1.27379e-06
1.27399e-06
1.27418e-06
1.27435e-06
1.27449e-06
1.2746e-06
1.27308e-06
1.27333e-06
1.27348e-06
1.27356e-06
1.27358e-06
1.27356e-06
1.2735e-06
1.27341e-06
1.27329e-06
1.27316e-06
1.27301e-06
1.27285e-06
1.2727e-06
1.27254e-06
1.27239e-06
1.27224e-06
1.2721e-06
1.27198e-06
1.27186e-06
1.27176e-06
1.27167e-06
1.2716e-06
1.27155e-06
1.27151e-06
1.27149e-06
1.27149e-06
1.27151e-06
1.27155e-06
1.2716e-06
1.27167e-06
1.27176e-06
1.27186e-06
1.27198e-06
1.2721e-06
1.27224e-06
1.27239e-06
1.27254e-06
1.2727e-06
1.27285e-06
1.27301e-06
1.27316e-06
1.27329e-06
1.27341e-06
1.2735e-06
1.27356e-06
1.27137e-06
1.27172e-06
1.27197e-06
1.27214e-06
1.27224e-06
1.27231e-06
1.27233e-06
1.27232e-06
1.27228e-06
1.27222e-06
1.27214e-06
1.27205e-06
1.27195e-06
1.27185e-06
1.27175e-06
1.27165e-06
1.27155e-06
1.27146e-06
1.27138e-06
1.27131e-06
1.27124e-06
1.27119e-06
1.27115e-06
1.27112e-06
1.27111e-06
1.27111e-06
1.27112e-06
1.27115e-06
1.27119e-06
1.27124e-06
1.27131e-06
1.27138e-06
1.27146e-06
1.27155e-06
1.27165e-06
1.27175e-06
1.27185e-06
1.27195e-06
1.27205e-06
1.27214e-06
1.27222e-06
1.27228e-06
1.27232e-06
1.27233e-06
1.27231e-06
1.26932e-06
1.26977e-06
1.27011e-06
1.27038e-06
1.27058e-06
1.27073e-06
1.27084e-06
1.27091e-06
1.27095e-06
1.27096e-06
1.27095e-06
1.27092e-06
1.27088e-06
1.27084e-06
1.27079e-06
1.27074e-06
1.27069e-06
1.27063e-06
1.27059e-06
1.27054e-06
1.2705e-06
1.27047e-06
1.27044e-06
1.27043e-06
1.27042e-06
1.27042e-06
1.27043e-06
1.27044e-06
1.27047e-06
1.2705e-06
1.27054e-06
1.27059e-06
1.27063e-06
1.27069e-06
1.27074e-06
1.27079e-06
1.27084e-06
1.27088e-06
1.27092e-06
1.27094e-06
1.27096e-06
1.27095e-06
1.27091e-06
1.27084e-06
1.27073e-06
1.26691e-06
1.26746e-06
1.2679e-06
1.26826e-06
1.26856e-06
1.2688e-06
1.269e-06
1.26915e-06
1.26927e-06
1.26936e-06
1.26942e-06
1.26946e-06
1.26948e-06
1.2695e-06
1.2695e-06
1.2695e-06
1.26949e-06
1.26948e-06
1.26947e-06
1.26945e-06
1.26944e-06
1.26943e-06
1.26941e-06
1.2694e-06
1.2694e-06
1.2694e-06
1.2694e-06
1.26941e-06
1.26942e-06
1.26944e-06
1.26945e-06
1.26947e-06
1.26948e-06
1.26949e-06
1.2695e-06
1.2695e-06
1.2695e-06
1.26948e-06
1.26946e-06
1.26942e-06
1.26936e-06
1.26927e-06
1.26915e-06
1.269e-06
1.2688e-06
1.26412e-06
1.26478e-06
1.26532e-06
1.26578e-06
1.26617e-06
1.26651e-06
1.2668e-06
1.26704e-06
1.26724e-06
1.2674e-06
1.26753e-06
1.26765e-06
1.26774e-06
1.26781e-06
1.26787e-06
1.26792e-06
1.26795e-06
1.26798e-06
1.268e-06
1.26802e-06
1.26803e-06
1.26804e-06
1.26804e-06
1.26804e-06
1.26804e-06
1.26804e-06
1.26804e-06
1.26804e-06
1.26804e-06
1.26803e-06
1.26802e-06
1.268e-06
1.26798e-06
1.26795e-06
1.26792e-06
1.26787e-06
1.26781e-06
1.26774e-06
1.26764e-06
1.26753e-06
1.2674e-06
1.26724e-06
1.26704e-06
1.2668e-06
1.26651e-06
1.26093e-06
1.2617e-06
1.26235e-06
1.26291e-06
1.2634e-06
1.26384e-06
1.26422e-06
1.26455e-06
1.26483e-06
1.26507e-06
1.26528e-06
1.26546e-06
1.26562e-06
1.26575e-06
1.26587e-06
1.26597e-06
1.26605e-06
1.26612e-06
1.26618e-06
1.26623e-06
1.26627e-06
1.2663e-06
1.26631e-06
1.26633e-06
1.26633e-06
1.26633e-06
1.26633e-06
1.26631e-06
1.2663e-06
1.26627e-06
1.26623e-06
1.26618e-06
1.26612e-06
1.26605e-06
1.26597e-06
1.26587e-06
1.26575e-06
1.26562e-06
1.26546e-06
1.26528e-06
1.26507e-06
1.26483e-06
1.26455e-06
1.26422e-06
1.26384e-06
1.25732e-06
1.2582e-06
1.25896e-06
1.25963e-06
1.26023e-06
1.26076e-06
1.26123e-06
1.26166e-06
1.26203e-06
1.26235e-06
1.26264e-06
1.26289e-06
1.26312e-06
1.26331e-06
1.26349e-06
1.26364e-06
1.26377e-06
1.26388e-06
1.26398e-06
1.26406e-06
1.26413e-06
1.26417e-06
1.26421e-06
1.26423e-06
1.26424e-06
1.26424e-06
1.26423e-06
1.26421e-06
1.26417e-06
1.26412e-06
1.26406e-06
1.26398e-06
1.26388e-06
1.26377e-06
1.26364e-06
1.26349e-06
1.26331e-06
1.26312e-06
1.26289e-06
1.26264e-06
1.26235e-06
1.26203e-06
1.26166e-06
1.26123e-06
1.26076e-06
1.25327e-06
1.25427e-06
1.25514e-06
1.25592e-06
1.25662e-06
1.25725e-06
1.25783e-06
1.25834e-06
1.2588e-06
1.25921e-06
1.25958e-06
1.25991e-06
1.2602e-06
1.26047e-06
1.2607e-06
1.26091e-06
1.26109e-06
1.26125e-06
1.26138e-06
1.26149e-06
1.26159e-06
1.26166e-06
1.26171e-06
1.26174e-06
1.26176e-06
1.26176e-06
1.26174e-06
1.26171e-06
1.26166e-06
1.26159e-06
1.26149e-06
1.26138e-06
1.26125e-06
1.26109e-06
1.26091e-06
1.2607e-06
1.26047e-06
1.2602e-06
1.25991e-06
1.25958e-06
1.25921e-06
1.2588e-06
1.25834e-06
1.25783e-06
1.24875e-06
1.24987e-06
1.25086e-06
1.25175e-06
1.25256e-06
1.2533e-06
1.25398e-06
1.25459e-06
1.25514e-06
1.25564e-06
1.25609e-06
1.25649e-06
1.25686e-06
1.25719e-06
1.25748e-06
1.25775e-06
1.25798e-06
1.25818e-06
1.25836e-06
1.2585e-06
1.25862e-06
1.25872e-06
1.25879e-06
1.25883e-06
1.25886e-06
1.25886e-06
1.25883e-06
1.25879e-06
1.25872e-06
1.25862e-06
1.2585e-06
1.25836e-06
1.25818e-06
1.25798e-06
1.25775e-06
1.25748e-06
1.25719e-06
1.25686e-06
1.25649e-06
1.25609e-06
1.25564e-06
1.25514e-06
1.25459e-06
1.25398e-06
1.24373e-06
1.24497e-06
1.24608e-06
1.24709e-06
1.24802e-06
1.24887e-06