/*--------------------------------*- C++ -*----------------------------------*\
  =========                 |
  \\      /  F ield         | OpenFOAM: The Open Source CFD Toolbox
   \\    /   O peration     | Website:  https://openfoam.org
    \\  /    A nd           | Version:  7
     \\/     M anipulation  |
\*---------------------------------------------------------------------------*/
FoamFile
{
    version     2.0;
    format      ascii;
    class       volVectorField;
    location    "4000";
    object      vorticity;
}
// * * * * * * * * * * * * * * * * * * * * * * * * * * * * * * * * * * * * * //

dimensions      [0 0 -1 0 0 0 0];

internalField   nonuniform List<vector> 
4814
(
(-0.0187265 0.0543539 -9.31558e-18)
(-0.0169258 0.0546635 1.48927e-17)
(-0.0151259 0.0549315 3.68419e-18)
(-0.0133326 0.0551876 -1.42344e-17)
(-0.0457898 0.048121 5.75213e-18)
(-0.0442981 0.0485954 -6.8696e-18)
(-0.0423601 0.0494714 5.54369e-18)
(-0.0404225 0.0502961 7.04071e-18)
(-0.0384762 0.0510623 2.8492e-17)
(-0.0365324 0.0517786 -3.91825e-18)
(-0.0346003 0.0524476 -8.1686e-18)
(-0.0326776 0.0530684 -8.64378e-18)
(-0.0307614 0.0536444 -1.54981e-17)
(-0.0288469 0.0541805 -2.32806e-17)
(-0.0269407 0.0546933 1.76603e-17)
(-0.0250351 0.0551564 -5.421e-18)
(-0.0231505 0.0555817 -4.08179e-18)
(-0.0212725 0.0559547 6.3667e-20)
(-0.0193841 0.0562694 -1.00298e-17)
(-0.0175184 0.0565891 1.39099e-17)
(-0.0156555 0.0568685 2.28239e-18)
(-0.0137983 0.0571347 -1.55176e-17)
(-0.0119513 0.0573828 -2.24403e-17)
(-0.0101106 0.057575 4.102e-19)
(-0.00826774 0.0577277 3.03583e-18)
(-0.00642547 0.057859 -7.11382e-20)
(-0.00458966 0.0579443 -5.24055e-18)
(-0.00275247 0.0580044 4.1297e-18)
(-0.000916969 0.0580287 -2.58076e-18)
(0.000916352 0.0580301 1.16626e-17)
(0.00274945 0.0580105 3.25087e-18)
(0.00458245 0.0579496 1.22734e-17)
(0.00641696 0.0578463 2.11982e-18)
(0.00825841 0.0577332 9.10077e-18)
(0.0101072 0.0575704 1.65425e-17)
(0.0119601 0.0573676 7.00587e-19)
(0.0138131 0.0571309 -9.80563e-18)
(0.0156672 0.0568749 -4.94106e-18)
(-0.0474579 0.0498476 4.75827e-18)
(-0.0458971 0.0503529 -7.62097e-18)
(-0.0438885 0.0512613 6.77306e-18)
(-0.0418818 0.0521172 7.47274e-18)
(-0.0398643 0.0529096 2.95972e-17)
(-0.0378481 0.0536492 -1.93575e-18)
(-0.0358441 0.0543396 -7.02314e-18)
(-0.0338502 0.0549802 -7.52042e-18)
(-0.0318645 0.0555765 -1.43534e-17)
(-0.029882 0.0561352 -2.40932e-17)
(-0.0279083 0.0566681 1.99988e-17)
(-0.0259328 0.0571435 -3.00852e-18)
(-0.0239792 0.0575806 -3.91669e-18)
(-0.0220349 0.057967 -1.53261e-18)
(-0.0200819 0.0583036 -9.45036e-18)
(-0.0181471 0.0586326 1.38315e-17)
(-0.0162178 0.0589259 1.89115e-18)
(-0.0142928 0.0592013 -1.5319e-17)
(-0.0123769 0.0594437 -2.4082e-17)
(-0.0104709 0.059641 -9.31586e-19)
(-0.00856282 0.059803 9.69138e-19)
(-0.00665451 0.0599337 -2.6019e-19)
(-0.00475339 0.060022 -5.47577e-18)
(-0.00285092 0.0600858 4.49331e-18)
(-0.000949874 0.0601077 -2.68097e-18)
(0.000949492 0.0601084 1.20904e-17)
(0.00284798 0.0600905 3.74831e-18)
(0.00474548 0.0600274 1.2636e-17)
(0.00664567 0.0599183 2.16582e-18)
(0.00855368 0.0598064 9.47236e-18)
(0.0104679 0.0596421 1.71922e-17)
(0.012386 0.0594306 1.31063e-18)
(0.0143054 0.0591852 -8.442e-18)
(0.0162268 0.0589187 -3.5925e-18)
(0.0181533 0.0586405 1.46739e-17)
(0.0200875 0.0583126 -4.17029e-18)
(0.0220314 0.0579494 -1.61312e-17)
(0.0239822 0.0575614 -9.07055e-18)
(0.0259425 0.0571357 -4.75569e-18)
(0.0279151 0.0566617 1.97952e-17)
(0.0299006 0.0561511 -1.26768e-17)
(-0.0492276 0.0516796 4.0304e-18)
(-0.0475931 0.0522174 -8.4162e-18)
(-0.0455088 0.0531597 7.67823e-18)
(-0.0434292 0.0540489 6.57906e-18)
(-0.0413371 0.05487 3.03217e-17)
(-0.039244 0.0556338 -6.49276e-19)
(-0.0371638 0.0563472 -6.33854e-18)
(-0.0350944 0.0570091 -6.56495e-18)
(-0.0330349 0.0576275 -1.51108e-17)
(-0.0309807 0.0582108 -2.65114e-17)
(-0.0289351 0.0587642 2.08345e-17)
(-0.0268865 0.0592546 -1.49439e-18)
(-0.0248589 0.0597027 -3.36718e-18)
(-0.0228442 0.0601051 -2.63103e-18)
(-0.020822 0.0604632 -8.82334e-18)
(-0.0188141 0.0608013 1.45989e-17)
(-0.0168144 0.0611095 2.36997e-18)
(-0.0148179 0.0613926 -1.42929e-17)
(-0.0128293 0.0616312 -2.45637e-17)
(-0.0108535 0.0618359 -1.49131e-18)
(-0.00887625 0.0620075 -2.95139e-19)
(-0.00689793 0.0621373 -3.20438e-19)
(-0.00492718 0.0622286 -5.98661e-18)
(-0.00295547 0.0622963 4.52084e-18)
(-0.000984979 0.0623179 -3.24893e-18)
(0.000984701 0.0623166 1.22693e-17)
(0.00295262 0.0622994 3.86381e-18)
(0.00491847 0.0622334 1.26508e-17)
(0.00688874 0.0621198 1.50635e-18)
(0.00886757 0.0620085 8.90125e-18)
(0.010851 0.0618422 1.69974e-17)
(0.0128385 0.061623 1.39943e-18)
(0.0148281 0.0613674 -7.49605e-18)
(0.0168206 0.0610892 -3.31714e-18)
(0.0188148 0.0607893 1.73551e-17)
(0.0208193 0.0604496 -2.10229e-18)
(0.0228349 0.0600739 -1.57489e-17)
(0.0248575 0.0596715 -7.62451e-18)
(0.0268902 0.0592318 -3.07858e-18)
(0.0289365 0.0587443 2.19055e-17)
(0.0309966 0.0582166 -1.22625e-17)
(0.0330683 0.0576645 -5.35278e-17)
(0.0351425 0.0570525 -5.94383e-18)
(0.0372121 0.0563819 -8.811e-18)
(-0.0511036 0.053622 3.31694e-18)
(-0.0493906 0.0541938 -9.43179e-18)
(-0.0472259 0.0551717 8.16944e-18)
(-0.0450687 0.0560961 4.95637e-18)
(-0.0428982 0.0569482 3.13783e-17)
(-0.0407234 0.0577372 -1.45232e-19)
(-0.0385633 0.0584763 -6.14851e-18)
(-0.0364141 0.0591613 -5.65781e-18)
(-0.0342764 0.0598039 -1.6884e-17)
(-0.0321457 0.0604126 -2.92293e-17)
(-0.0300238 0.0609871 2.08687e-17)
(-0.027899 0.0614956 -5.20464e-19)
(-0.0257919 0.0619538 -2.63186e-18)
(-0.0237031 0.0623759 -3.83537e-18)
(-0.0216058 0.0627507 -8.44315e-18)
(-0.0195204 0.0630979 1.55804e-17)
(-0.0174456 0.0634202 2.61774e-18)
(-0.0153736 0.0637101 -1.33663e-17)
(-0.0133095 0.0639525 -2.4471e-17)
(-0.0112593 0.0641656 -1.61626e-18)
(-0.00920887 0.0643468 -1.07503e-18)
(-0.00715646 0.0644763 -1.12659e-19)
(-0.00511156 0.0645707 -6.67132e-18)
(-0.00306631 0.0646418 4.45944e-18)
(-0.00102233 0.0646657 -4.19295e-18)
(0.00102199 0.0646621 1.22469e-17)
(0.00306362 0.0646433 3.96567e-18)
(0.00510208 0.0645749 1.2418e-17)
(0.00714704 0.064458 3.47768e-19)
(0.00920103 0.0643467 7.92979e-18)
(0.0112575 0.0641765 1.62933e-17)
(0.0133189 0.0639513 8.25905e-19)
(0.0153828 0.063684 -6.87419e-18)
(0.0174502 0.0633937 -3.44526e-18)
(0.0195169 0.0630724 1.83896e-17)
(0.0215964 0.0627193 -5.23558e-19)
(0.0236885 0.0623313 -1.5809e-17)
(0.0257876 0.0619142 -7.43595e-18)
(0.0278966 0.0614581 -1.80395e-18)
(0.0300216 0.0609568 2.27192e-17)
(0.0321604 0.0604112 -1.20855e-17)
(0.0343023 0.0598241 -5.459e-17)
(0.0364535 0.0591899 -4.82205e-18)
(0.0386023 0.0584939 -8.04473e-18)
(-0.0530877 0.0556763 2.56584e-18)
(-0.0512915 0.0562838 -1.06586e-17)
(-0.0490418 0.0572997 8.53228e-18)
(-0.0468018 0.0582604 3.7355e-18)
(-0.0445489 0.0591456 3.28878e-17)
(-0.0422881 0.0599618 7.03965e-20)
(-0.0400442 0.0607294 -6.15039e-18)
(-0.0378106 0.0614392 -5.03278e-18)
(-0.0355909 0.0621087 -1.82458e-17)
(-0.0333785 0.0627429 -3.1434e-17)
(-0.0311757 0.0633393 2.09701e-17)
(-0.0289708 0.0638676 3.37714e-19)
(-0.0267798 0.0643374 -2.08988e-18)
(-0.0246128 0.0647821 -5.23162e-18)
(-0.0224353 0.0651714 -8.00901e-18)
(-0.0202679 0.0655287 1.64541e-17)
(-0.0181132 0.0658639 2.70793e-18)
(-0.0159611 0.0661596 -1.25991e-17)
(-0.0138181 0.066411 -2.43324e-17)
(-0.0116888 0.066632 -1.75866e-18)
(-0.00956106 0.0668235 -1.82007e-18)
(-0.00743044 0.0669539 4.55422e-20)
(-0.0053069 0.0670523 -7.29113e-18)
(-0.00318357 0.0671256 4.57731e-18)
(-0.00106184 0.0671529 -5.27228e-18)
(0.00106136 0.0671487 1.22683e-17)
(0.00318106 0.0671253 4.47595e-18)
(0.00529667 0.0670553 1.218e-17)
(0.00742094 0.0669363 -9.57912e-19)
(0.00955429 0.066823 6.94282e-18)
(0.011688 0.0666474 1.5515e-17)
(0.0138277 0.066417 -3.65048e-20)
(0.0159704 0.0661382 -6.27122e-18)
(0.0181169 0.0658348 -3.32953e-18)
(0.0202619 0.0654963 1.84637e-17)
(0.0224216 0.0651295 6.75818e-19)
(0.0245945 0.0647276 -1.61659e-17)
(0.0267749 0.0642955 -8.23001e-18)
(0.0289645 0.0638208 -1.47116e-18)
(0.0311734 0.0633052 2.27706e-17)
(0.0333944 0.0627401 -1.21279e-17)
(0.0356119 0.062118 -5.53021e-17)
(0.037845 0.0614589 -4.02533e-18)
(0.0400786 0.0607355 -8.75036e-18)
(-0.0551838 0.0578464 1.74924e-18)
(-0.0533006 0.0584928 -1.19846e-17)
(-0.0509614 0.0595492 8.74213e-18)
(-0.0486328 0.060547 3.38589e-18)
(-0.0462933 0.0614678 3.43975e-17)
(-0.0439424 0.062314 1.77337e-20)
(-0.0416104 0.0631122 -5.9688e-18)
(-0.0392881 0.0638492 -4.56804e-18)
(-0.0369814 0.0645472 -1.93173e-17)
(-0.0346828 0.0652083 -3.29295e-17)
(-0.0323942 0.0658275 2.13475e-17)
(-0.0301043 0.0663762 1.28953e-18)
(-0.0278254 0.0668608 -1.68571e-18)
(-0.0255755 0.0673292 -6.29003e-18)
(-0.0233127 0.0677319 -7.67616e-18)
(-0.0210592 0.0681014 1.67271e-17)
(-0.0188198 0.0684491 2.67789e-18)
(-0.0165826 0.0687498 -1.17243e-17)
(-0.0143565 0.0690133 -2.39824e-17)
(-0.0121433 0.069242 -1.7003e-18)
(-0.00993372 0.0694443 -2.50084e-18)
(-0.00772055 0.069577 1.98674e-19)
(-0.00551377 0.0696805 -8.00039e-18)
(-0.00330766 0.0697553 4.85812e-18)
(-0.00110354 0.0697864 -6.48025e-18)
(0.00110291 0.0697836 1.22525e-17)
(0.00330524 0.0697531 5.28702e-18)
(0.00550279 0.0696808 1.19843e-17)
(0.00771118 0.0695613 -2.24128e-18)
(0.00992811 0.0694434 5.987e-18)
(0.0121435 0.0692613 1.46417e-17)
(0.0143662 0.0690256 -1.04676e-18)
(0.0165924 0.0687368 -5.58457e-18)
(0.0188223 0.0684186 -3.24976e-18)
(0.021051 0.068064 1.85206e-17)
(0.023296 0.0676839 1.71655e-18)
(0.025554 0.0672656 -1.658e-17)
(0.027821 0.066819 -9.24976e-18)
(0.0300957 0.0663232 -1.22288e-18)
(0.032393 0.0657917 2.29514e-17)
(0.0347002 0.065205 -1.20719e-17)
(0.0370014 0.0645529 -5.53823e-17)
(0.0393208 0.063866 -3.39526e-18)
(0.0416438 0.0631131 -9.54121e-18)
(-0.0573978 0.0601384 8.44741e-19)
(-0.0554245 0.0608279 -1.36867e-17)
(-0.0529906 0.061927 9.15971e-18)
(-0.0505676 0.0629633 2.99962e-18)
(-0.048137 0.0639222 3.61006e-17)
(-0.0456916 0.0648009 4.25991e-19)
(-0.0432667 0.0656322 -5.97176e-18)
(-0.0408516 0.0663999 -4.29721e-18)
(-0.0384523 0.067127 -1.99859e-17)
(-0.036063 0.0678174 -3.42467e-17)
(-0.0336836 0.0684605 2.18225e-17)
(-0.0313033 0.0690294 2.39669e-18)
(-0.0289323 0.0695323 -1.51456e-18)
(-0.0265939 0.0700244 -7.09297e-18)
(-0.0242411 0.0704409 -7.78188e-18)
(-0.0218968 0.0708244 1.67003e-17)
(-0.0195679 0.0711854 2.74594e-18)
(-0.0172405 0.0714918 -1.10014e-17)
(-0.0149263 0.0717682 -2.35658e-17)
(-0.0126243 0.0720053 -1.4639e-18)
(-0.0103281 0.0722181 -3.19327e-18)
(-0.00802772 0.0723545 5.71406e-19)
(-0.00573283 0.0724638 -8.70841e-18)
(-0.00343902 0.0725402 5.0986e-18)
(-0.00114751 0.072575 -7.70956e-18)
(0.00114675 0.0725748 1.21548e-17)
(0.00343648 0.0725359 6.0676e-18)
(0.0057212 0.0724604 1.19209e-17)
(0.00801864 0.0723412 -3.08175e-18)
(0.0103236 0.0722166 4.87037e-18)
(0.0126257 0.0720273 1.36947e-17)
(0.0149362 0.0717856 -1.95567e-18)
(0.0172507 0.071487 -5.02809e-18)
(0.0195689 0.0711537 -3.28129e-18)
(0.0218865 0.0707828 1.86239e-17)
(0.0242223 0.0703896 2.4671e-18)
(0.0265699 0.0699525 -1.67999e-17)
(0.0289289 0.0694915 -1.01467e-17)
(0.0312935 0.0689732 -9.81659e-19)
(0.0336834 0.0684224 2.36822e-17)
(0.0360812 0.0678124 -1.20065e-17)
(0.0384729 0.0671322 -5.53665e-17)
(0.040883 0.0664142 -2.17296e-18)
(0.0432997 0.0656295 -1.04353e-17)
(0.0457221 0.0648699 2.22125e-17)
(-0.0597373 0.0625602 -2.17604e-19)
(-0.0576703 0.0632971 -1.57132e-17)
(-0.0551366 0.0644414 9.31811e-18)
(-0.0526132 0.0655178 2.02427e-18)
(-0.0500863 0.0665173 3.7551e-17)
(-0.0475418 0.0674315 8.57358e-19)
(-0.0450188 0.0682984 -6.02029e-18)
(-0.0425065 0.0690996 -4.23611e-18)
(-0.0400091 0.0698576 -2.05712e-17)
(-0.0375244 0.0705802 -3.52694e-17)
(-0.0350482 0.071247 2.26422e-17)
(-0.0325724 0.0718376 3.47893e-18)
(-0.0301044 0.0723617 -1.53167e-18)
(-0.0276716 0.0728765 -8.29124e-18)
(-0.0252242 0.0733094 -7.82377e-18)
(-0.0227835 0.0737072 1.63997e-17)
(-0.0203603 0.0740831 2.78002e-18)
(-0.0179378 0.0743967 -9.99656e-18)
(-0.0155298 0.074686 -2.31152e-17)
(-0.0131339 0.0749321 -1.19149e-18)
(-0.0107456 0.0751552 -3.81547e-18)
(-0.00835308 0.0752969 9.28958e-19)
(-0.00596488 0.0754123 -9.37768e-18)
(-0.00357819 0.0754917 5.26577e-18)
(-0.00119392 0.0755291 -8.95499e-18)
(0.00119304 0.0755311 1.20349e-17)
(0.00357529 0.0754847 6.57923e-18)
(0.00595269 0.0754046 1.20685e-17)
(0.00834438 0.0752858 -3.69436e-18)
(0.0107424 0.0751536 3.54143e-18)
(0.0131364 0.0749564 1.28089e-17)
(0.0155397 0.074707 -2.73992e-18)
(0.0179475 0.0743981 -4.54316e-18)
(0.0203594 0.07405 -3.24971e-18)
(0.0227716 0.0736631 1.85338e-17)
(0.0252036 0.0732565 3.63515e-18)
(0.0276459 0.0727984 -1.7117e-17)
(0.0301018 0.0723209 -1.10338e-17)
(0.032562 0.0717801 -1.19323e-18)
(0.035049 0.0712068 2.43138e-17)
(0.037542 0.0705708 -1.17806e-17)
(0.0400304 0.0698626 -5.52915e-17)
(0.0425361 0.0691112 -9.04939e-19)
(0.0450512 0.0682926 -1.173e-17)
(0.0475633 0.0674879 2.33447e-17)
(-0.0622116 0.0651214 -1.14188e-18)
(-0.0600452 0.0659083 -1.71821e-17)
(-0.057407 0.0671013 9.35046e-18)
(-0.0547775 0.0682205 4.76425e-19)
(-0.0521489 0.0692633 3.90724e-17)
(-0.0495002 0.0702162 1.26499e-18)
(-0.0468735 0.0711207 -6.19972e-18)
(-0.0442583 0.0719579 -3.97348e-18)
(-0.0416578 0.07275 -2.09316e-17)
(-0.0390725 0.073507 -3.58526e-17)
(-0.0364928 0.0741965 2.36951e-17)
(-0.0339166 0.0748121 3.99407e-18)
(-0.0313461 0.0753593 -1.42442e-18)
(-0.0288124 0.0758958 -9.70884e-18)
(-0.0262658 0.0763485 -7.89405e-18)
(-0.0237231 0.0767614 1.64069e-17)
(-0.0211999 0.0771525 2.72743e-18)
(-0.0186769 0.077476 -9.05242e-18)
(-0.0161694 0.0777781 -2.24676e-17)
(-0.0136736 0.0780325 -7.80926e-19)
(-0.011188 0.0782668 -4.56004e-18)
(-0.00869792 0.0784164 1.30337e-18)
(-0.00621076 0.0785376 -9.83301e-18)
(-0.00372571 0.078621 5.32334e-18)
(-0.00124304 0.0786601 -1.0157e-17)
(0.00124199 0.0786628 1.18137e-17)
(0.00372223 0.078611 6.81988e-18)
(0.00619809 0.0785242 1.23314e-17)
(0.00868964 0.0784063 -4.23345e-18)
(0.0111861 0.0782663 2.12417e-18)
(0.0136777 0.0780606 1.22766e-17)
(0.016179 0.0778013 -3.21778e-18)
(0.0186857 0.0774811 -4.32507e-18)
(0.021197 0.077119 -2.95909e-18)
(0.02371 0.0767161 1.8363e-17)
(0.0262441 0.076296 4.79097e-18)
(0.0287862 0.0758145 -1.72021e-17)
(0.0313438 0.0753169 -1.16142e-17)
(0.0339058 0.0747536 -1.80669e-18)
(0.0364955 0.0741563 2.44028e-17)
(0.0390881 0.0734903 -1.09456e-17)
(0.041679 0.072753 -5.50252e-17)
(0.0442864 0.0719671 2.46863e-20)
(0.0469054 0.0711127 -1.30268e-17)
(0.0495125 0.0702598 2.40786e-17)
(-0.0648301 0.0678316 -2.07566e-18)
(-0.0625575 0.0686706 -1.75848e-17)
(-0.0598099 0.0699162 9.20521e-18)
(-0.0570685 0.0710811 -1.61173e-18)
(-0.0543331 0.0721714 4.05589e-17)
(-0.0515753 0.0731669 1.55624e-18)
(-0.048838 0.0741103 -6.55554e-18)
(-0.0461143 0.0749864 -3.69001e-18)
(-0.0434051 0.0758155 -2.10692e-17)
(-0.0407127 0.0766076 -3.57875e-17)
(-0.0380229 0.0773202 2.50353e-17)
(-0.0353411 0.0779649 4.14711e-18)
(-0.032662 0.0785361 -1.49959e-18)
(-0.0300207 0.0790939 -1.09138e-17)
(-0.0273699 0.0795702 -8.67659e-18)
(-0.0247191 0.0799989 1.66513e-17)
(-0.0220896 0.0804049 2.79389e-18)
(-0.019461 0.0807421 -8.38123e-18)
(-0.0168475 0.0810561 -2.17381e-17)
(-0.0142458 0.0813185 -5.1066e-19)
(-0.0116567 0.0815653 -5.59715e-18)
(-0.00906355 0.0817253 1.76734e-18)
(-0.00647147 0.0818518 -1.01103e-17)
(-0.0038821 0.0819388 5.32976e-18)
(-0.00129515 0.0819804 -1.13101e-17)
(0.00129379 0.0819819 1.1564e-17)
(0.00387787 0.0819267 6.86926e-18)
(0.00645834 0.0818318 1.25832e-17)
(0.00905587 0.0817153 -4.50928e-18)
(0.0116563 0.0815663 6.57055e-19)
(0.0142516 0.0813519 1.17656e-17)
(0.0168568 0.0810815 -3.75735e-18)
(0.0194683 0.0807493 -4.05802e-18)
(0.0220853 0.0803728 -2.86352e-18)
(0.0247052 0.0799533 1.80063e-17)
(0.0273475 0.0795194 5.76773e-18)
(0.0299951 0.079013 -1.68114e-17)
(0.0326597 0.0784914 -1.2042e-17)
(0.0353304 0.0779058 -2.46126e-18)
(0.0380284 0.0772826 2.44784e-17)
(0.0407256 0.0765825 -1.02546e-17)
(0.0434254 0.0758149 -5.45055e-17)
(0.0461409 0.0749933 1.33369e-18)
(0.0488693 0.0741011 -1.48824e-17)
(0.0515765 0.0731955 2.47936e-17)
(-0.0676019 0.0707002 -3.36564e-18)
(-0.0652161 0.0715935 -1.746e-17)
(-0.0623533 0.0728953 8.91577e-18)
(-0.0594944 0.0741102 -3.68596e-18)
(-0.0566471 0.0752527 4.18638e-17)
(-0.0537753 0.0762953 2.0999e-18)
(-0.0509204 0.0772796 -6.51999e-18)
(-0.0480824 0.0781981 -3.7182e-18)
(-0.0452579 0.0790662 -2.09579e-17)
(-0.0424514 0.0798939 -3.55765e-17)
(-0.0396452 0.0806316 2.62754e-17)
(-0.0368519 0.0813088 4.12526e-18)
(-0.0340576 0.0819047 -1.12586e-18)
(-0.0313014 0.0824838 -1.14965e-17)
(-0.0285406 0.082987 -9.63507e-18)
(-0.0257756 0.0834325 1.69363e-17)
(-0.023033 0.0838534 2.96572e-18)
(-0.0202929 0.0842075 -8.23703e-18)
(-0.017567 0.0845332 -2.10616e-17)
(-0.0148529 0.0848052 -4.24362e-19)
(-0.0121536 0.0850641 -6.6611e-18)
(-0.00945126 0.0852355 2.47142e-18)
(-0.00674807 0.0853676 -1.02718e-17)
(-0.00404793 0.0854575 5.17101e-18)
(-0.00135044 0.0855026 -1.24478e-17)
(0.00134866 0.0855021 1.12508e-17)
(0.00404289 0.0854447 6.67146e-18)
(0.00673464 0.0853424 1.27081e-17)
(0.00944452 0.0852263 -4.66307e-18)
(0.0121549 0.0850662 -5.33414e-19)
(0.0148604 0.0848437 1.11296e-17)
(0.0175762 0.0845621 -4.39552e-18)
(0.0202989 0.0842174 -3.8368e-18)
(0.0230277 0.0838245 -2.92387e-18)
(0.025761 0.083387 1.75848e-17)
(0.0285177 0.0829381 6.66765e-18)
(0.0312775 0.0824068 -1.62444e-17)
(0.0340556 0.0818588 -1.21058e-17)
(0.0368418 0.0812503 -2.76647e-18)
(0.0396534 0.0805972 2.45868e-17)
(0.0424615 0.0798611 -9.59476e-18)
(0.0452773 0.0790619 -5.35567e-17)
(0.0481068 0.0782013 2.85476e-18)
(0.0509508 0.0772692 -1.68679e-17)
(-0.0705355 0.0737359 -4.48544e-18)
(-0.0680299 0.0746869 -1.66874e-17)
(-0.0650458 0.076049 8.9298e-18)
(-0.0620636 0.0773183 -5.91658e-18)
(-0.0590982 0.078517 4.27924e-17)
(-0.0561074 0.0796119 2.66527e-18)
(-0.0531289 0.0806409 -6.67177e-18)
(-0.0501701 0.0816054 -3.72719e-18)
(-0.0472231 0.0825144 -2.0013e-17)
(-0.0442955 0.0833787 -3.55439e-17)
(-0.0413669 0.0841461 2.75026e-17)
(-0.0384547 0.0848568 3.92464e-18)
(-0.0355388 0.0854797 -7.44368e-19)
(-0.0326602 0.0860805 -1.23789e-17)
(-0.0297828 0.0866126 -1.10367e-17)
(-0.0268971 0.0870765 1.77213e-17)
(-0.0240342 0.0875132 3.0617e-18)
(-0.0211761 0.0878866 -8.07201e-18)
(-0.0183311 0.088225 -2.04334e-17)
(-0.0154979 0.0885087 -5.16574e-19)
(-0.012681 0.088778 -7.39303e-18)
(-0.00986266 0.0889614 3.1167e-18)
(-0.00704169 0.0890993 -1.04797e-17)
(-0.00422391 0.0891917 5.02022e-18)
(-0.00140914 0.0892409 -1.35213e-17)
(0.00140688 0.0892386 1.09227e-17)
(0.00421807 0.0891794 6.27679e-18)
(0.00702827 0.0890723 1.26084e-17)
(0.00985707 0.0889539 -4.65761e-18)
(0.012684 0.0887807 -1.29275e-18)
(0.0155071 0.0885518 1.02424e-17)
(0.0183402 0.0882583 -5.18028e-18)
(0.0211812 0.0879008 -3.60056e-18)
(0.0240279 0.0874878 -2.48423e-18)
(0.0268821 0.0870325 1.74867e-17)
(0.0297594 0.0865652 6.85613e-18)
(0.0326388 0.0860093 -1.5893e-17)
(0.0355372 0.0854334 -1.19242e-17)
(0.0384461 0.0848003 -2.91196e-18)
(0.0413766 0.0841129 2.48219e-17)
(0.044303 0.0833394 -8.58627e-18)
(0.0472422 0.0825068 -5.20407e-17)
(0.0501918 0.0816039 4.2348e-18)
(0.0531576 0.0806291 -1.86967e-17)
(-0.0736397 0.0769476 -5.19643e-18)
(-0.0710077 0.0779604 -1.58635e-17)
(-0.0678966 0.0793879 8.90535e-18)
(-0.0647845 0.0807158 -8.64488e-18)
(-0.0616944 0.0819751 4.29773e-17)
(-0.058579 0.0831271 2.76791e-18)
(-0.0554711 0.0842059 -6.97084e-18)
(-0.0523843 0.0852193 -3.5508e-18)
(-0.0493076 0.0861714 -1.81794e-17)
(-0.0462512 0.0870743 -3.47087e-17)
(-0.0431948 0.0878774 2.83912e-17)
(-0.0401553 0.0886213 3.61636e-18)
(-0.0371114 0.089275 -4.58646e-20)
(-0.0341029 0.0898994 -1.35472e-17)
(-0.0311013 0.0904616 -1.30307e-17)
(-0.0280881 0.0909462 1.89862e-17)
(-0.0250978 0.091401 2.6211e-18)
(-0.0221143 0.0917949 -7.65065e-18)
(-0.0191429 0.0921468 -1.95136e-17)
(-0.0161836 0.0924455 -7.79653e-19)
(-0.0132412 0.0927231 -8.02166e-18)
(-0.0102996 0.0929198 3.68951e-18)
(-0.00735363 0.0930629 -1.07335e-17)
(-0.0044108 0.0931578 4.90659e-18)
(-0.00147147 0.0932113 -1.44202e-17)
(0.00146871 0.0932077 1.04802e-17)
(0.00440423 0.0931458 5.57421e-18)
(0.0073405 0.0930372 1.23701e-17)
(0.0102951 0.0929133 -4.40054e-18)
(0.013246 0.0927267 -1.94042e-18)
(0.0161944 0.0924913 9.26701e-18)
(0.0191523 0.092186 -5.90317e-18)
(0.0221185 0.0918136 -3.52573e-18)
(0.0250902 0.0913781 -1.94436e-18)
(0.028073 0.0909047 1.75704e-17)
(0.0310774 0.0904151 6.87259e-18)
(0.0340839 0.0898342 -1.60769e-17)
(0.0371101 0.089228 -1.14603e-17)
(0.0401483 0.0885673 -3.21351e-18)
(0.0432042 0.0878423 2.46243e-17)
(0.0462572 0.0870302 -7.26867e-18)
(0.0493261 0.0861604 -4.9975e-17)
(0.052403 0.0852128 5.07516e-18)
(0.0554973 0.0841922 -2.02316e-17)
(-0.076924 0.0803452 -5.57889e-18)
(-0.0741593 0.0814248 -1.56941e-17)
(-0.0709149 0.0829228 8.17636e-18)
(-0.0676663 0.0843143 -1.12656e-17)
(-0.0644442 0.0856384 4.28421e-17)
(-0.0611981 0.0868527 2.88116e-18)
(-0.0579549 0.0879869 -7.32533e-18)
(-0.0547323 0.0890516 -3.8397e-18)
(-0.051518 0.0900491 -1.60085e-17)
(-0.0483255 0.0909937 -3.33024e-17)
(-0.0451354 0.0918388 2.90935e-17)
(-0.0419595 0.0926153 3.53847e-18)
(-0.0387806 0.093303 1.27095e-18)
(-0.0356348 0.0939544 -1.45726e-17)
(-0.0325011 0.0945484 -1.48945e-17)
(-0.0293531 0.0950558 2.00149e-17)
(-0.0262281 0.0955326 2.0819e-18)
(-0.023111 0.0959471 -6.96187e-18)
(-0.0200053 0.0963135 -1.84524e-17)
(-0.0169126 0.09663 -1.14478e-18)
(-0.0138365 0.0969144 -8.77061e-18)
(-0.0107639 0.0971269 4.00081e-18)
(-0.00768524 0.0972748 -1.08338e-17)
(-0.00460942 0.0973724 4.88217e-18)
(-0.00153764 0.0974293 -1.52887e-17)
(0.00153439 0.0974254 9.93941e-18)
(0.00460216 0.0973594 4.63074e-18)
(0.00767253 0.097252 1.20134e-17)
(0.0107603 0.0971199 -4.0773e-18)
(0.0138432 0.0969202 -2.43877e-18)
(0.0169247 0.0966766 8.38398e-18)
(0.0200152 0.0963589 -6.58421e-18)
(0.0231141 0.0959695 -2.97027e-18)
(0.026219 0.0955114 -1.16819e-18)
(0.0293381 0.0950176 1.82732e-17)
(0.0324764 0.0945014 6.78566e-18)
(0.0356185 0.0938959 -1.65147e-17)
(0.0387797 0.093256 -1.05127e-17)
(0.041954 0.0925637 -3.43815e-18)
(0.0451429 0.0917991 2.38515e-17)
(0.0483307 0.0909466 -5.58625e-18)
(0.0515357 0.0900344 -4.77194e-17)
(0.0547474 0.089039 5.53054e-18)
(0.0579776 0.0879689 -2.19934e-17)
(-0.080399 0.0839392 -4.86458e-18)
(-0.0774957 0.0850921 -1.57184e-17)
(-0.0741096 0.0866643 7.19033e-18)
(-0.0707184 0.0881255 -1.32687e-17)
(-0.0673566 0.0895187 4.32862e-17)
(-0.0639733 0.0908008 2.98176e-18)
(-0.0605886 0.091996 -7.72103e-18)
(-0.0572221 0.0931154 -4.47823e-18)
(-0.0538622 0.0941612 -1.39052e-17)
(-0.0505261 0.0951518 -3.14984e-17)
(-0.0471953 0.0960437 2.98086e-17)
(-0.0438743 0.0968541 3.51629e-18)
(-0.0405523 0.0975784 2.37435e-18)
(-0.0372613 0.0982598 -1.57474e-17)
(-0.0339875 0.0988885 -1.62627e-17)
(-0.0306965 0.0994205 2.05943e-17)
(-0.0274291 0.0999231 1.36513e-18)
(-0.02417 0.100358 -6.31999e-18)
(-0.020922 0.100742 -1.73149e-17)
(-0.0176875 0.101077 -1.36082e-18)
(-0.0144691 0.101369 -9.49615e-18)
(-0.0112572 0.101598 4.17225e-18)
(-0.00803782 0.101752 -1.10938e-17)
(-0.00482064 0.101853 4.95194e-18)
(-0.00160796 0.101911 -1.59474e-17)
(0.00160417 0.101907 9.35097e-18)
(0.0048127 0.101837 3.41502e-18)
(0.00802567 0.101733 1.16022e-17)
(0.0112544 0.10159 -3.72553e-18)
(0.0144779 0.101377 -2.8893e-18)
(0.0177008 0.101123 7.22885e-18)
(0.0209319 0.100791 -7.09996e-18)
(0.0241718 0.100384 -2.11957e-18)
(0.0274186 0.0999041 -4.73926e-19)
(0.030682 0.099387 1.94367e-17)
(0.0339615 0.0988391 6.82473e-18)
(0.0372481 0.098209 -1.6904e-17)
(0.0405519 0.097532 -9.21744e-18)
(0.0438697 0.0968039 -3.68026e-18)
(0.0472004 0.0959985 2.26878e-17)
(0.0505307 0.095102 -3.26592e-18)
(0.0538788 0.0941426 -4.50024e-17)
(0.057233 0.0930958 6.56374e-18)
(0.0606064 0.0919711 -2.36526e-17)
(-0.0840742 0.0877396 -3.82587e-18)
(-0.0810268 0.0889734 -1.58847e-17)
(-0.0774911 0.0906243 5.99184e-18)
(-0.073951 0.0921622 -1.4333e-17)
(-0.0704407 0.0936282 4.37876e-17)
(-0.0669128 0.0949834 2.61446e-18)
(-0.0633797 0.0962452 -7.62124e-18)
(-0.0598619 0.0974237 -4.40786e-18)
(-0.0563491 0.0985231 -1.19018e-17)
(-0.0528611 0.0995642 -2.96435e-17)
(-0.0493812 0.100506 3.06773e-17)
(-0.0459071 0.101354 3.20072e-18)
(-0.0424337 0.102118 3.03672e-18)
(-0.0389886 0.102832 -1.65331e-17)
(-0.035566 0.103498 -1.75325e-17)
(-0.0321238 0.104058 2.07698e-17)
(-0.028705 0.104587 7.45591e-19)
(-0.0252953 0.105046 -5.51135e-18)
(-0.0218964 0.10545 -1.67234e-17)
(-0.0185114 0.105804 -1.90323e-18)
(-0.0151418 0.106104 -1.01154e-17)
(-0.0117812 0.106348 4.49364e-18)
(-0.0084126 0.10651 -1.15363e-17)
(-0.00504535 0.106618 4.8904e-18)
(-0.00168279 0.106674 -1.66239e-17)
(0.00167837 0.106672 8.81839e-18)
(0.00503686 0.106597 2.04596e-18)
(0.00840129 0.106498 1.10396e-17)
(0.0117793 0.106342 -3.39463e-18)
(0.0151523 0.106114 -3.35066e-18)
(0.0185256 0.105848 6.14908e-18)
(0.0219059 0.1055 -7.60752e-18)
(0.0252958 0.105076 -1.46151e-18)
(0.0286939 0.104573 4.93595e-19)
(0.03211 0.10403 2.0324e-17)
(0.0355386 0.103445 6.82819e-18)
(0.0389784 0.102788 -1.72485e-17)
(0.0424331 0.102071 -7.96274e-18)
(0.0459028 0.101304 -4.41743e-18)
(0.0493841 0.100456 2.20645e-17)
(0.0528653 0.0995116 -5.27001e-19)
(0.0563636 0.0984992 -4.24367e-17)
(0.0598687 0.0973975 7.53516e-18)
(0.0633923 0.0962119 -2.46322e-17)
(-0.0879588 0.0917557 -3.13569e-18)
(-0.084762 0.0930786 -1.61901e-17)
(-0.0810692 0.0948146 4.65501e-18)
(-0.0773741 0.0964366 -1.49568e-17)
(-0.0737055 0.0979787 4.42475e-17)
(-0.0700256 0.0994132 1.58742e-18)
(-0.0663364 0.100747 -7.80304e-18)
(-0.0626594 0.101989 -3.88521e-18)
(-0.0589868 0.10315 -9.33357e-18)
(-0.0553386 0.104246 -2.80443e-17)
(-0.0516999 0.105238 3.17339e-17)
(-0.0480644 0.106129 3.2066e-18)
(-0.0444319 0.10694 3.32638e-18)
(-0.0408235 0.107689 -1.71934e-17)
(-0.037242 0.108392 -1.86079e-17)
(-0.0336405 0.108986 2.04708e-17)
(-0.0300603 0.109542 3.74906e-19)
(-0.0264912 0.110027 -4.50692e-18)
(-0.022932 0.110453 -1.63676e-17)
(-0.019387 0.110827 -2.74917e-18)
(-0.0158572 0.11114 -1.07623e-17)
(-0.012338 0.111396 4.77192e-18)
(-0.00881092 0.111568 -1.21073e-17)
(-0.0052843 0.111682 4.62603e-18)
(-0.00176245 0.11174 -1.73054e-17)
(0.00175732 0.111737 8.30638e-18)
(0.00527555 0.11166 7.22584e-19)
(0.00880065 0.111563 1.0487e-17)
(0.012337 0.111392 -3.12867e-18)
(0.015869 0.111148 -3.63419e-18)
(0.019402 0.110869 5.08222e-18)
(0.022941 0.110504 -7.84544e-18)
(0.0264905 0.11006 -4.84356e-19)
(0.0300493 0.109534 1.40677e-18)
(0.0336271 0.108964 2.05034e-17)
(0.0372137 0.108339 7.34795e-18)
(0.0408155 0.10765 -1.73094e-17)
(0.04443 0.106891 -7.55392e-18)
(0.0480611 0.106082 -5.11308e-18)
(0.0517014 0.105186 2.23718e-17)
(0.055342 0.10419 2.30961e-18)
(0.0589985 0.10312 -4.03987e-17)
(0.0626623 0.101957 9.06067e-18)
(0.0663446 0.100705 -2.52494e-17)
(-0.0920617 0.0959969 -2.11781e-18)
(-0.0887099 0.0974177 -1.62904e-17)
(-0.0848533 0.0992459 3.83115e-18)
(-0.0809962 0.10096 -1.52234e-17)
(-0.0771606 0.102583 4.45494e-17)
(-0.0733202 0.104102 3.71795e-19)
(-0.069467 0.105513 -7.88165e-18)
(-0.0656227 0.106826 -3.20185e-18)
(-0.0617831 0.108054 -7.45288e-18)
(-0.0579662 0.109211 -2.67116e-17)
(-0.0541587 0.110257 3.32342e-17)
(-0.0503532 0.111196 3.17316e-18)
(-0.046553 0.112059 3.60474e-18)
(-0.042772 0.112847 -1.74775e-17)
(-0.0390214 0.113589 -2.00632e-17)
(-0.0352515 0.11422 2.00172e-17)
(-0.0315001 0.114806 6.48971e-19)
(-0.0277619 0.115321 -3.52126e-18)
(-0.0240328 0.115772 -1.61132e-17)
(-0.0203175 0.116163 -3.61371e-18)
(-0.0166179 0.116492 -1.12394e-17)
(-0.0129296 0.11676 4.79914e-18)
(-0.00923425 0.116945 -1.28938e-17)
(-0.00553829 0.117065 4.30067e-18)
(-0.00184719 0.117126 -1.8001e-17)
(0.0018413 0.117121 7.67009e-18)
(0.00552956 0.117043 -4.5363e-19)
(0.009225 0.116945 9.95466e-18)
(0.0129294 0.11676 -2.85756e-18)
(0.0166305 0.116497 -3.79163e-18)
(0.0203333 0.116204 4.04818e-18)
(0.0240412 0.11582 -8.15281e-18)
(0.0277599 0.115355 6.77554e-19)
(0.031489 0.114803 2.90973e-18)
(0.0352379 0.114203 2.02014e-17)
(0.0389929 0.113536 7.60874e-18)
(0.0427661 0.112812 -1.65752e-17)
(0.0465495 0.112006 -6.93883e-18)
(0.0503517 0.111152 -5.43634e-18)
(0.0541592 0.110203 2.33172e-17)
(0.0579677 0.10915 4.81035e-18)
(0.0617924 0.108019 -3.8585e-17)
(0.0656223 0.106789 1.15137e-17)
(0.0694725 0.105466 -2.57279e-17)
(-0.0963912 0.100471 -4.9299e-19)
(-0.0928784 0.101999 -1.67642e-17)
(-0.0888521 0.103929 3.54882e-18)
(-0.0848253 0.105741 -1.44054e-17)
(-0.0808152 0.107453 4.42986e-17)
(-0.0768051 0.109063 -1.14593e-18)
(-0.0727795 0.110557 -8.33925e-18)
(-0.0687597 0.111946 -2.37867e-18)
(-0.0647453 0.11325 -6.1466e-18)
(-0.060751 0.114473 -2.51722e-17)
(-0.0567647 0.115576 3.48001e-17)
(-0.0527808 0.11657 2.97172e-18)
(-0.0488028 0.117489 3.98346e-18)
(-0.0448399 0.11832 -1.72305e-17)
(-0.0409099 0.119105 -2.13472e-17)
(-0.0369617 0.119778 1.96073e-17)
(-0.0330289 0.120395 1.01859e-18)
(-0.0291111 0.120942 -2.49772e-18)
(-0.0252025 0.121423 -1.57217e-17)
(-0.021306 0.121832 -4.63814e-18)
(-0.0174262 0.122179 -1.20178e-17)
(-0.0135582 0.122459 4.87521e-18)
(-0.00968392 0.122657 -1.38391e-17)
(-0.00580825 0.122787 3.77021e-18)
(-0.00193733 0.12285 -1.85893e-17)
(0.00193058 0.122843 7.00689e-18)
(0.00579971 0.122763 -1.538e-18)
(0.00967577 0.122663 9.43722e-18)
(0.0135586 0.122464 -2.60051e-18)
(0.0174395 0.12218 -3.72252e-18)
(0.0213224 0.121869 3.11661e-18)
(0.0252098 0.121467 -8.87393e-18)
(0.0291083 0.120979 1.75777e-18)
(0.0330177 0.120397 4.59315e-18)
(0.0369474 0.119763 1.98005e-17)
(0.0408817 0.119054 7.35116e-18)
(0.0448363 0.118291 -1.53842e-17)
(0.0487985 0.117434 -5.24243e-18)
(0.0527806 0.11653 -5.38262e-18)
(0.0567645 0.115521 2.42531e-17)
(0.0607495 0.114405 7.24292e-18)
(0.0647529 0.113211 -3.66066e-17)
(0.0687573 0.111906 1.3548e-17)
(0.0727842 0.110506 -2.69319e-17)
(-0.100954 0.105186 9.75832e-19)
(-0.0972744 0.106831 -1.75096e-17)
(-0.0930727 0.108871 3.514e-18)
(-0.088869 0.11079 -1.38555e-17)
(-0.0846773 0.1126 4.41663e-17)
(-0.0804881 0.114306 -2.33499e-18)
(-0.0762811 0.115889 -9.26931e-18)
(-0.0720778 0.117362 -1.82034e-18)
(-0.06788 0.118749 -4.49423e-18)
(-0.0636994 0.120044 -2.3458e-17)