/*--------------------------------*- C++ -*----------------------------------*\
  =========                 |
  \\      /  F ield         | OpenFOAM: The Open Source CFD Toolbox
   \\    /   O peration     | Website:  https://openfoam.org
    \\  /    A nd           | Version:  7
     \\/     M anipulation  |
\*---------------------------------------------------------------------------*/
FoamFile
{
    version     2.0;
    format      ascii;
    class       volScalarField;
    location    "112000";
    object      nu;
}
// * * * * * * * * * * * * * * * * * * * * * * * * * * * * * * * * * * * * * //

dimensions      [0 2 -1 0 0 0 0];

internalField   nonuniform List<scalar> 
4764
(
4.23784e-06
4.24887e-06
4.25888e-06
4.26784e-06
4.27574e-06
4.28255e-06
4.04688e-06
4.06508e-06
4.08261e-06
4.09945e-06
4.11556e-06
4.13086e-06
4.14536e-06
4.15898e-06
4.1717e-06
4.18349e-06
4.19432e-06
4.20414e-06
4.21294e-06
4.22069e-06
4.22737e-06
4.23297e-06
4.23747e-06
4.24085e-06
4.24312e-06
4.24425e-06
4.24425e-06
4.24312e-06
4.24085e-06
4.23747e-06
4.23297e-06
4.22737e-06
4.22069e-06
4.21294e-06
4.20414e-06
3.9954e-06
4.0134e-06
4.03073e-06
4.04731e-06
4.06312e-06
4.07815e-06
4.09238e-06
4.10576e-06
4.11824e-06
4.12981e-06
4.14044e-06
4.15008e-06
4.15871e-06
4.16632e-06
4.17288e-06
4.17837e-06
4.18279e-06
4.18611e-06
4.18833e-06
4.18944e-06
4.18944e-06
4.18833e-06
4.18611e-06
4.18279e-06
4.17837e-06
4.17288e-06
4.16632e-06
4.15871e-06
4.15008e-06
4.14044e-06
4.12981e-06
4.11824e-06
4.10576e-06
3.94391e-06
3.96186e-06
3.97913e-06
3.99557e-06
4.0112e-06
4.02605e-06
4.04003e-06
4.05316e-06
4.06542e-06
4.07678e-06
4.08721e-06
4.09667e-06
4.10515e-06
4.11261e-06
4.11905e-06
4.12444e-06
4.12877e-06
4.13203e-06
4.13421e-06
4.1353e-06
4.1353e-06
4.13421e-06
4.13203e-06
4.12877e-06
4.12444e-06
4.11905e-06
4.11261e-06
4.10515e-06
4.09667e-06
4.08721e-06
4.07678e-06
4.06542e-06
4.05316e-06
4.04003e-06
4.02605e-06
4.0112e-06
3.99557e-06
3.97913e-06
3.96186e-06
3.94391e-06
3.92521e-06
3.90592e-06
3.88607e-06
3.86562e-06
3.84287e-06
3.89255e-06
3.91039e-06
3.92754e-06
3.94391e-06
3.9595e-06
3.97428e-06
3.98811e-06
4.00108e-06
4.01319e-06
4.02437e-06
4.03461e-06
4.0439e-06
4.05222e-06
4.05955e-06
4.06587e-06
4.07116e-06
4.07541e-06
4.07861e-06
4.08074e-06
4.08181e-06
4.08181e-06
4.08074e-06
4.07861e-06
4.07541e-06
4.07116e-06
4.06587e-06
4.05955e-06
4.05222e-06
4.0439e-06
4.03461e-06
4.02437e-06
4.01319e-06
4.00108e-06
3.98811e-06
3.97428e-06
3.9595e-06
3.94391e-06
3.92754e-06
3.91039e-06
3.89255e-06
3.87411e-06
3.8551e-06
3.83559e-06
3.81554e-06
3.7935e-06
3.84167e-06
3.85923e-06
3.87613e-06
3.89235e-06
3.90782e-06
3.92251e-06
3.93628e-06
3.94921e-06
3.96126e-06
3.97234e-06
3.98246e-06
3.99163e-06
3.99985e-06
4.00709e-06
4.01331e-06
4.0185e-06
4.02268e-06
4.02581e-06
4.02791e-06
4.02896e-06
4.02896e-06
4.02791e-06
4.02581e-06
4.02268e-06
4.0185e-06
4.01331e-06
4.00709e-06
3.99985e-06
3.99163e-06
3.98246e-06
3.97234e-06
3.96126e-06
3.94921e-06
3.93628e-06
3.9225e-06
3.90782e-06
3.89235e-06
3.87613e-06
3.85923e-06
3.84167e-06
3.82355e-06
3.8049e-06
3.78577e-06
3.76616e-06
3.74478e-06
3.79141e-06
3.80863e-06
3.82522e-06
3.84117e-06
3.85641e-06
3.87087e-06
3.88454e-06
3.89737e-06
3.90933e-06
3.92035e-06
3.93042e-06
3.93956e-06
3.94774e-06
3.95494e-06
3.9611e-06
3.96623e-06
3.97035e-06
3.97345e-06
3.97552e-06
3.97656e-06
3.97656e-06
3.97552e-06
3.97345e-06
3.97035e-06
3.96623e-06
3.9611e-06
3.95494e-06
3.94774e-06
3.93956e-06
3.93042e-06
3.92035e-06
3.90933e-06
3.89737e-06
3.88454e-06
3.87087e-06
3.8564e-06
3.84117e-06
3.82522e-06
3.80863e-06
3.79141e-06
3.77365e-06
3.75538e-06
3.73664e-06
3.71748e-06
3.69669e-06
3.74183e-06
3.75869e-06
3.77495e-06
3.79058e-06
3.80552e-06
3.81972e-06
3.83317e-06
3.8458e-06
3.85757e-06
3.86847e-06
3.87847e-06
3.88753e-06
3.89564e-06
3.90278e-06
3.9089e-06
3.91401e-06
3.91811e-06
3.92119e-06
3.92325e-06
3.92428e-06
3.92428e-06
3.92325e-06
3.92119e-06
3.91811e-06
3.91401e-06
3.9089e-06
3.90278e-06
3.89564e-06
3.88753e-06
3.87847e-06
3.86847e-06
3.85757e-06
3.84579e-06
3.83317e-06
3.81972e-06
3.80552e-06
3.79058e-06
3.77495e-06
3.75869e-06
3.74183e-06
3.72444e-06
3.70655e-06
3.68821e-06
3.66949e-06
3.64922e-06
3.69294e-06
3.70944e-06
3.72536e-06
3.74066e-06
3.75529e-06
3.76919e-06
3.78237e-06
3.79476e-06
3.80631e-06
3.81702e-06
3.82685e-06
3.83577e-06
3.84376e-06
3.85078e-06
3.85683e-06
3.8619e-06
3.86596e-06
3.86902e-06
3.87106e-06
3.87208e-06
3.87208e-06
3.87106e-06
3.86902e-06
3.86596e-06
3.8619e-06
3.85684e-06
3.85078e-06
3.84376e-06
3.83577e-06
3.82685e-06
3.81702e-06
3.80631e-06
3.79476e-06
3.78237e-06
3.76919e-06
3.75529e-06
3.74066e-06
3.72536e-06
3.70944e-06
3.69294e-06
3.67592e-06
3.6584e-06
3.64046e-06
3.62215e-06
3.60237e-06
3.64473e-06
3.66088e-06
3.67646e-06
3.69143e-06
3.70574e-06
3.71935e-06
3.73225e-06
3.74437e-06
3.75569e-06
3.76618e-06
3.77582e-06
3.78456e-06
3.79239e-06
3.79928e-06
3.80522e-06
3.8102e-06
3.8142e-06
3.81721e-06
3.81922e-06
3.82022e-06
3.82022e-06
3.81922e-06
3.81721e-06
3.8142e-06
3.81021e-06
3.80522e-06
3.79928e-06
3.79239e-06
3.78456e-06
3.77582e-06
3.76618e-06
3.75569e-06
3.74437e-06
3.73225e-06
3.71935e-06
3.70574e-06
3.69143e-06
3.67646e-06
3.66088e-06
3.64473e-06
3.62806e-06
3.61091e-06
3.59334e-06
3.57542e-06
3.55609e-06
3.59716e-06
3.61298e-06
3.62823e-06
3.64288e-06
3.65688e-06
3.6702e-06
3.68282e-06
3.69468e-06
3.70575e-06
3.71602e-06
3.72545e-06
3.734e-06
3.74167e-06
3.74841e-06
3.75424e-06
3.75912e-06
3.76303e-06
3.76598e-06
3.76795e-06
3.76894e-06
3.76894e-06
3.76795e-06
3.76598e-06
3.76304e-06
3.75912e-06
3.75424e-06
3.74841e-06
3.74167e-06
3.734e-06
3.72545e-06
3.71602e-06
3.70575e-06
3.69468e-06
3.68282e-06
3.6702e-06
3.65688e-06
3.64288e-06
3.62823e-06
3.61298e-06
3.59716e-06
3.58084e-06
3.56405e-06
3.54684e-06
3.52929e-06
3.51039e-06
3.55022e-06
3.56571e-06
3.58064e-06
3.59498e-06
3.60868e-06
3.62172e-06
3.63406e-06
3.64566e-06
3.6565e-06
3.66654e-06
3.67577e-06
3.68414e-06
3.69163e-06
3.69823e-06
3.70393e-06
3.70871e-06
3.71254e-06
3.71543e-06
3.71735e-06
3.71832e-06
3.71832e-06
3.71735e-06
3.71543e-06
3.71254e-06
3.70871e-06
3.70393e-06
3.69824e-06
3.69163e-06
3.68414e-06
3.67577e-06
3.66654e-06
3.6565e-06
3.64566e-06
3.63406e-06
3.62172e-06
3.60868e-06
3.59498e-06
3.58064e-06
3.56571e-06
3.55022e-06
3.53423e-06
3.51778e-06
3.50092e-06
3.48372e-06
3.46523e-06
3.50387e-06
3.51904e-06
3.53366e-06
3.5477e-06
3.56112e-06
3.57388e-06
3.58596e-06
3.59731e-06
3.60792e-06
3.61774e-06
3.62676e-06
3.63495e-06
3.64229e-06
3.64875e-06
3.65432e-06
3.65899e-06
3.66274e-06
3.66556e-06
3.66745e-06
3.66839e-06
3.66839e-06
3.66745e-06
3.66556e-06
3.66274e-06
3.65899e-06
3.65432e-06
3.64875e-06
3.64229e-06
3.63495e-06
3.62676e-06
3.61774e-06
3.60792e-06
3.59731e-06
3.58596e-06
3.57388e-06
3.56112e-06
3.5477e-06
3.53366e-06
3.51904e-06
3.50387e-06
3.4882e-06
3.47208e-06
3.45555e-06
3.4387e-06
3.42059e-06
3.44273e-06
3.45809e-06
3.47295e-06
3.48728e-06
3.50103e-06
3.51417e-06
3.52666e-06
3.53848e-06
3.5496e-06
3.55998e-06
3.56959e-06
3.57842e-06
3.58643e-06
3.59361e-06
3.59993e-06
3.60538e-06
3.60995e-06
3.61362e-06
3.61638e-06
3.61822e-06
3.61914e-06
3.61914e-06
3.61822e-06
3.61638e-06
3.61362e-06
3.60995e-06
3.60538e-06
3.59993e-06
3.59361e-06
3.58643e-06
3.57842e-06
3.56959e-06
3.55998e-06
3.5496e-06
3.53849e-06
3.52666e-06
3.51417e-06
3.50103e-06
3.48728e-06
3.47295e-06
3.45809e-06
3.44273e-06
3.42692e-06
3.41072e-06
3.3942e-06
3.37647e-06
3.39779e-06
3.41284e-06
3.42741e-06
3.44145e-06
3.45492e-06
3.46779e-06
3.48003e-06
3.49161e-06
3.50249e-06
3.51265e-06
3.52207e-06
3.53071e-06
3.53855e-06
3.54557e-06
3.55176e-06
3.55709e-06
3.56156e-06
3.56515e-06
3.56785e-06
3.56966e-06
3.57056e-06
3.57056e-06
3.56966e-06
3.56785e-06
3.56515e-06
3.56156e-06
3.55709e-06
3.55176e-06
3.54557e-06
3.53855e-06
3.53071e-06
3.52207e-06
3.51265e-06
3.50249e-06
3.49161e-06
3.48003e-06
3.4678e-06
3.45492e-06
3.44145e-06
3.42741e-06
3.41284e-06
3.39779e-06
3.38229e-06
3.36641e-06
3.35019e-06
3.33283e-06
3.35336e-06
3.36812e-06
3.3824e-06
3.39616e-06
3.40936e-06
3.42198e-06
3.43397e-06
3.44531e-06
3.45596e-06
3.46592e-06
3.47513e-06
3.48359e-06
3.49127e-06
3.49815e-06
3.5042e-06
3.50943e-06
3.5138e-06
3.51731e-06
3.51996e-06
3.52172e-06
3.5226e-06
3.5226e-06
3.52172e-06
3.51996e-06
3.51731e-06
3.5138e-06
3.50943e-06
3.5042e-06
3.49815e-06
3.49127e-06
3.48359e-06
3.47513e-06
3.46592e-06
3.45596e-06
3.44531e-06
3.43397e-06
3.42198e-06
3.40936e-06
3.39616e-06
3.3824e-06
3.36812e-06
3.35336e-06
3.33816e-06
3.32258e-06
3.30668e-06
3.28966e-06
3.29451e-06
3.30942e-06
3.3239e-06
3.3379e-06
3.35139e-06
3.36433e-06
3.37669e-06
3.38844e-06
3.39955e-06
3.40999e-06
3.41974e-06
3.42877e-06
3.43705e-06
3.44457e-06
3.45131e-06
3.45724e-06
3.46235e-06
3.46663e-06
3.47007e-06
3.47266e-06
3.47439e-06
3.47525e-06
3.47525e-06
3.47439e-06
3.47266e-06
3.47007e-06
3.46663e-06
3.46235e-06
3.45724e-06
3.45131e-06
3.44457e-06
3.43705e-06
3.42877e-06
3.41974e-06
3.40999e-06
3.39955e-06
3.38844e-06
3.37669e-06
3.36433e-06
3.35139e-06
3.3379e-06
3.32389e-06
3.30942e-06
3.29451e-06
3.27923e-06
3.26362e-06
3.24696e-06
3.25134e-06
3.26596e-06
3.28015e-06
3.29388e-06
3.30711e-06
3.3198e-06
3.33191e-06
3.34343e-06
3.35431e-06
3.36455e-06
3.3741e-06
3.38294e-06
3.39106e-06
3.39843e-06
3.40502e-06
3.41083e-06
3.41584e-06
3.42003e-06
3.4234e-06
3.42594e-06
3.42763e-06
3.42848e-06
3.42848e-06
3.42763e-06
3.42594e-06
3.4234e-06
3.42003e-06
3.41584e-06
3.41083e-06
3.40502e-06
3.39843e-06
3.39106e-06
3.38294e-06
3.3741e-06
3.36455e-06
3.35431e-06
3.34343e-06
3.33191e-06
3.3198e-06
3.30711e-06
3.29388e-06
3.28015e-06
3.26596e-06
3.25134e-06
3.23634e-06
3.22103e-06
3.20469e-06
3.1939e-06
3.20861e-06
3.22295e-06
3.23688e-06
3.25034e-06
3.26331e-06
3.27575e-06
3.28763e-06
3.29891e-06
3.30958e-06
3.31961e-06
3.32897e-06
3.33764e-06
3.34559e-06
3.35281e-06
3.35927e-06
3.36497e-06
3.36987e-06
3.37398e-06
3.37728e-06
3.37976e-06
3.38142e-06
3.38225e-06
3.38225e-06
3.38142e-06
3.37976e-06
3.37728e-06
3.37398e-06
3.36987e-06
3.36497e-06
3.35928e-06
3.35281e-06
3.3456e-06
3.33764e-06
3.32897e-06
3.31961e-06
3.30958e-06
3.29891e-06
3.28763e-06
3.27575e-06
3.26331e-06
3.25034e-06
3.23688e-06
3.22295e-06
3.20861e-06
3.1939e-06
3.17887e-06
3.16286e-06
3.15189e-06
3.16633e-06
3.18039e-06
3.19405e-06
3.20726e-06
3.21997e-06
3.23217e-06
3.24381e-06
3.25488e-06
3.26534e-06
3.27517e-06
3.28434e-06
3.29284e-06
3.30063e-06
3.30771e-06
3.31404e-06
3.31962e-06
3.32442e-06
3.32845e-06
3.33168e-06
3.33411e-06
3.33573e-06
3.33655e-06
3.33655e-06
3.33573e-06
3.33411e-06
3.33168e-06
3.32845e-06
3.32442e-06
3.31962e-06
3.31404e-06
3.30771e-06
3.30063e-06
3.29284e-06
3.28434e-06
3.27517e-06
3.26534e-06
3.25488e-06
3.24381e-06
3.23217e-06
3.21997e-06
3.20726e-06
3.19405e-06
3.18039e-06
3.16632e-06
3.15189e-06
3.13714e-06
3.12145e-06
3.1103e-06
3.12446e-06
3.13827e-06
3.15166e-06
3.16461e-06
3.17708e-06
3.18904e-06
3.20046e-06
3.21131e-06
3.22156e-06
3.2312e-06
3.24019e-06
3.24852e-06
3.25616e-06
3.26309e-06
3.2693e-06
3.27476e-06
3.27947e-06
3.28342e-06
3.28658e-06
3.28896e-06
3.29056e-06
3.29135e-06
3.29135e-06
3.29056e-06
3.28896e-06
3.28658e-06
3.28342e-06
3.27947e-06
3.27476e-06
3.2693e-06
3.26309e-06
3.25616e-06
3.24852e-06
3.24019e-06
3.2312e-06
3.22156e-06
3.21131e-06
3.20046e-06
3.18904e-06
3.17708e-06
3.16461e-06
3.15166e-06
3.13826e-06
3.12446e-06
3.1103e-06
3.09582e-06
3.08045e-06
3.06912e-06
3.08302e-06
3.09656e-06
3.1097e-06
3.1224e-06
3.13463e-06
3.14635e-06
3.15755e-06
3.16818e-06
3.17824e-06
3.18768e-06
3.1965e-06
3.20466e-06
3.21215e-06
3.21895e-06
3.22503e-06
3.23039e-06
3.235e-06
3.23887e-06
3.24197e-06
3.24431e-06
3.24587e-06
3.24665e-06
3.24665e-06
3.24587e-06
3.24431e-06
3.24197e-06
3.23887e-06
3.235e-06
3.23039e-06
3.22503e-06
3.21895e-06
3.21215e-06
3.20466e-06
3.1965e-06
3.18768e-06
3.17824e-06
3.16819e-06
3.15755e-06
3.14635e-06
3.13463e-06
3.1224e-06
3.1097e-06
3.09656e-06
3.08301e-06
3.06912e-06
3.05491e-06
3.03984e-06
3.02834e-06
3.04197e-06
3.05526e-06
3.06814e-06
3.0806e-06
3.09259e-06
3.10409e-06
3.11507e-06
3.1255e-06
3.13535e-06
3.14461e-06
3.15326e-06
3.16126e-06
3.1686e-06
3.17526e-06
3.18122e-06
3.18647e-06
3.191e-06
3.19479e-06
3.19783e-06
3.20012e-06
3.20164e-06
3.20241e-06
3.20241e-06
3.20164e-06
3.20012e-06
3.19783e-06
3.19479e-06
3.191e-06
3.18647e-06
3.18122e-06
3.17526e-06
3.1686e-06
3.16126e-06
3.15326e-06
3.14461e-06
3.13535e-06
3.1255e-06
3.11507e-06
3.10409e-06
3.09259e-06
3.0806e-06
3.06814e-06
3.05525e-06
3.04197e-06
3.02834e-06
3.0144e-06
2.99962e-06
2.97427e-06
2.98794e-06
3.00132e-06
3.01435e-06
3.02699e-06
3.03921e-06
3.05097e-06
3.06224e-06
3.07301e-06
3.08323e-06
3.09289e-06
3.10197e-06
3.11045e-06
3.11829e-06
3.12549e-06
3.13202e-06
3.13786e-06
3.14301e-06
3.14744e-06
3.15116e-06
3.15414e-06
3.15638e-06
3.15788e-06
3.15863e-06
3.15863e-06
3.15788e-06
3.15638e-06
3.15414e-06
3.15116e-06
3.14744e-06
3.14301e-06
3.13786e-06
3.13202e-06
3.12549e-06
3.11829e-06
3.11045e-06
3.10197e-06
3.09289e-06
3.08323e-06
3.07301e-06
3.06224e-06
3.05097e-06
3.03921e-06
3.02699e-06
3.01435e-06
3.00132e-06
2.98794e-06
2.97426e-06
2.95979e-06
2.92032e-06
2.93451e-06
2.94793e-06
2.96106e-06
2.97384e-06
2.98623e-06
2.99821e-06
3.00974e-06
3.0208e-06
3.03135e-06
3.04138e-06
3.05085e-06
3.05975e-06
3.06806e-06
3.07575e-06
3.0828e-06
3.0892e-06
3.09493e-06
3.09998e-06
3.10432e-06
3.10796e-06
3.11088e-06
3.11308e-06
3.11455e-06
3.11529e-06
3.11528e-06
3.11455e-06
3.11308e-06
3.11088e-06
3.10796e-06
3.10432e-06
3.09998e-06
3.09493e-06
3.0892e-06
3.0828e-06
3.07575e-06
3.06806e-06
3.05975e-06
3.05085e-06
3.04138e-06
3.03135e-06
3.0208e-06
3.00974e-06
2.99821e-06
2.98623e-06
2.97383e-06
2.96105e-06
2.94793e-06
2.93451e-06
2.92032e-06
2.88122e-06
2.89512e-06
2.90829e-06
2.92116e-06
2.9337e-06
2.94586e-06
2.9576e-06
2.96891e-06
2.97975e-06
2.99009e-06
2.99992e-06
3.00921e-06
3.01793e-06
3.02608e-06
3.03362e-06
3.04053e-06
3.04681e-06
3.05242e-06
3.05737e-06
3.06163e-06
3.06519e-06
3.06806e-06
3.07021e-06
3.07165e-06
3.07237e-06
3.07237e-06
3.07165e-06
3.07021e-06
3.06806e-06
3.06519e-06
3.06163e-06
3.05737e-06
3.05242e-06
3.04681e-06
3.04053e-06
3.03362e-06
3.02608e-06
3.01794e-06
3.00921e-06
2.99992e-06
2.99009e-06
2.97975e-06
2.96891e-06
2.9576e-06
2.94585e-06
2.9337e-06
2.92116e-06
2.90829e-06
2.89512e-06
2.88122e-06
2.84247e-06
2.8561e-06
2.86901e-06
2.88164e-06
2.89393e-06
2.90585e-06
2.91737e-06
2.92845e-06
2.93908e-06
2.94922e-06
2.95886e-06
2.96796e-06
2.97651e-06
2.9845e-06
2.99189e-06
2.99867e-06
3.00481e-06
3.01032e-06
3.01517e-06
3.01934e-06
3.02284e-06
3.02564e-06
3.02776e-06
3.02917e-06
3.02987e-06
3.02987e-06
3.02917e-06
3.02776e-06
3.02564e-06
3.02284e-06
3.01934e-06
3.01517e-06
3.01032e-06
3.00482e-06
2.99867e-06
2.99189e-06
2.9845e-06
2.97652e-06
2.96796e-06
2.95886e-06
2.94922e-06
2.93908e-06
2.92845e-06
2.91737e-06
2.90585e-06
2.89393e-06
2.88164e-06
2.86901e-06
2.85609e-06
2.84247e-06
2.80407e-06
2.81742e-06
2.83009e-06
2.84247e-06
2.85452e-06
2.86621e-06
2.8775e-06
2.88837e-06
2.89879e-06
2.90873e-06
2.91817e-06
2.9271e-06
2.93548e-06
2.94331e-06
2.95055e-06
2.95719e-06
2.96322e-06
2.96861e-06
2.97336e-06
2.97746e-06
2.98088e-06
2.98363e-06
2.9857e-06
2.98709e-06
2.98778e-06
2.98778e-06
2.98709e-06
2.9857e-06
2.98363e-06
2.98088e-06
2.97746e-06
2.97336e-06
2.96862e-06
2.96322e-06
2.95719e-06
2.95055e-06
2.94331e-06
2.93548e-06
2.9271e-06
2.91817e-06
2.90873e-06
2.89879e-06
2.88837e-06
2.8775e-06
2.86621e-06
2.85452e-06
2.84247e-06
2.83009e-06
2.81742e-06
2.80406e-06
2.766e-06
2.77909e-06
2.79151e-06
2.80365e-06
2.81547e-06
2.82693e-06
2.838e-06
2.84865e-06
2.85886e-06
2.8686e-06
2.87786e-06
2.88661e-06
2.89482e-06
2.90249e-06
2.90959e-06
2.9161e-06
2.92201e-06
2.9273e-06
2.93195e-06
2.93596e-06
2.93932e-06
2.94202e-06
2.94404e-06
2.9454e-06
2.94608e-06
2.94608e-06
2.9454e-06
2.94404e-06
2.94202e-06
2.93932e-06
2.93596e-06
2.93195e-06
2.9273e-06
2.92201e-06
2.9161e-06
2.90959e-06
2.90249e-06
2.89482e-06
2.88661e-06
2.87786e-06
2.8686e-06
2.85886e-06
2.84865e-06
2.838e-06
2.82693e-06
2.81547e-06
2.80365e-06
2.79151e-06
2.77908e-06
2.766e-06
2.72828e-06
2.74109e-06
2.75328e-06
2.76518e-06
2.77676e-06
2.78799e-06
2.79884e-06
2.80928e-06
2.81929e-06
2.82884e-06
2.83791e-06
2.84648e-06
2.85454e-06
2.86205e-06
2.86901e-06
2.87539e-06
2.88118e-06
2.88636e-06
2.89092e-06
2.89485e-06
2.89814e-06
2.90078e-06
2.90277e-06
2.9041e-06
2.90476e-06
2.90476e-06
2.90409e-06
2.90277e-06
2.90078e-06
2.89814e-06
2.89485e-06
2.89092e-06
2.88636e-06
2.88118e-06
2.87539e-06
2.86901e-06
2.86205e-06
2.85454e-06
2.84648e-06
2.83791e-06
2.82884e-06
2.81929e-06
2.80928e-06
2.79884e-06
2.78799e-06
2.77676e-06
2.76518e-06
2.75328e-06
2.74109e-06
2.72827e-06
2.69087e-06
2.70343e-06
2.71537e-06
2.72704e-06
2.73839e-06
2.7494e-06
2.76003e-06
2.77026e-06
2.78007e-06
2.78943e-06
2.79831e-06
2.80671e-06
2.81461e-06
2.82197e-06
2.82879e-06
2.83504e-06
2.84071e-06
2.84579e-06
2.85026e-06
2.85411e-06
2.85733e-06
2.85992e-06
2.86187e-06
2.86317e-06
2.86382e-06
2.86382e-06
2.86317e-06
2.86187e-06
2.85992e-06
2.85733e-06
2.85411e-06
2.85026e-06
2.84579e-06
2.84071e-06
2.83504e-06
2.82879e-06
2.82197e-06
2.81461e-06
2.80671e-06
2.79831e-06
2.78943e-06
2.78007e-06
2.77026e-06
2.76003e-06
2.7494e-06
2.73839e-06
2.72704e-06
2.71537e-06
2.70343e-06
2.69087e-06
2.65379e-06
2.66609e-06
2.6778e-06
2.68923e-06
2.70036e-06
2.71114e-06
2.72156e-06
2.73158e-06
2.74119e-06
2.75036e-06
2.75907e-06
2.7673e-06
2.77503e-06
2.78224e-06
2.78892e-06
2.79505e-06
2.8006e-06
2.80558e-06
2.80996e-06
2.81373e-06
2.81689e-06
2.81942e-06
2.82133e-06
2.8226e-06
2.82324e-06
2.82324e-06
2.8226e-06
2.82133e-06
2.81942e-06
2.81689e-06
2.81373e-06
2.80996e-06
2.80558e-06
2.8006e-06
2.79505e-06
2.78892e-06
2.78224e-06
2.77503e-06
2.7673e-06
2.75907e-06
2.75036e-06
2.74119e-06
2.73158e-06
2.72156e-06
2.71114e-06
2.70035e-06
2.68923e-06
2.6778e-06
2.66609e-06
2.65379e-06
2.61703e-06
2.62907e-06
2.64054e-06
2.65175e-06
2.66264e-06
2.67321e-06
2.68341e-06
2.69323e-06
2.70265e-06
2.71163e-06
2.72016e-06
2.72822e-06
2.73579e-06
2.74286e-06
2.74941e-06
2.75541e-06
2.76085e-06
2.76572e-06
2.77001e-06
2.7737e-06
2.7768e-06
2.77928e-06
2.78115e-06
2.7824e-06
2.78302e-06
2.78302e-06
2.7824e-06
2.78115e-06
2.77928e-06
2.7768e-06
2.77371e-06
2.77001e-06
2.76572e-06
2.76085e-06
2.75541e-06
2.74941e-06
2.74286e-06
2.7358e-06
2.72822e-06
2.72016e-06
2.71163e-06
2.70265e-06
2.69323e-06
2.68341e-06
2.67321e-06
2.66264e-06
2.65174e-06
2.64054e-06
2.62906e-06
2.61702e-06
2.58057e-06
2.59236e-06
2.6036e-06
2.61458e-06
2.62525e-06
2.6356e-06
2.64559e-06
2.65521e-06
2.66443e-06
2.67323e-06
2.68158e-06
2.68948e-06
2.6969e-06
2.70382e-06
2.71023e-06
2.71611e-06
2.72144e-06
2.72621e-06
2.73041e-06
2.73403e-06
2.73706e-06
2.73949e-06
2.74132e-06
2.74254e-06
2.74315e-06
2.74315e-06
2.74254e-06
2.74132e-06
2.73949e-06
2.73706e-06
2.73403e-06
2.73041e-06
2.72621e-06
2.72144e-06
2.71611e-06
2.71023e-06
2.70382e-06
2.6969e-06
2.68948e-06
2.68158e-06
2.67323e-06
2.66443e-06
2.65521e-06
2.64559e-06
2.6356e-06
2.62525e-06
2.61457e-06
2.6036e-06
2.59236e-06
2.58057e-06
2.54442e-06
2.55595e-06
2.56697e-06
2.57772e-06
2.58817e-06
2.59831e-06
2.60809e-06
2.61751e-06
2.62654e-06
2.63515e-06
2.64334e-06
2.65107e-06
2.65833e-06
2.66511e-06
2.67139e-06
2.67714e-06
2.68236e-06
2.68703e-06
2.69115e-06
2.69469e-06
2.69766e-06
2.70004e-06
2.70183e-06
2.70303e-06
2.70362e-06
2.70362e-06
2.70303e-06
2.70183e-06
2.70004e-06
2.69766e-06
2.69469e-06
2.69115e-06
2.68703e-06
2.68236e-06
2.67714e-06
2.67139e-06
2.66511e-06
2.65833e-06
2.65107e-06
2.64334e-06
2.63515e-06
2.62654e-06
2.61751e-06
2.60809e-06
2.59831e-06
2.58817e-06
2.57772e-06
2.56697e-06
2.55595e-06
2.54441e-06
2.50856e-06
2.51985e-06
2.53064e-06
2.54116e-06
2.5514e-06
2.56132e-06
2.5709e-06
2.58012e-06
2.58896e-06
2.5974e-06
2.60541e-06
2.61298e-06
2.62009e-06
2.62673e-06
2.63287e-06
2.6385e-06
2.64361e-06
2.64819e-06
2.65221e-06
2.65568e-06
2.65859e-06
2.66092e-06
2.66267e-06
2.66384e-06
2.66443e-06
2.66443e-06
2.66384e-06
2.66267e-06
2.66092e-06
2.65859e-06
2.65568e-06
2.65222e-06
2.64819e-06
2.64361e-06
2.6385e-06
2.63287e-06
2.62673e-06
2.62009e-06
2.61298e-06
2.60541e-06
2.5974e-06
2.58896e-06
2.58012e-06
2.5709e-06
2.56132e-06
2.5514e-06
2.54116e-06
2.53064e-06
2.51985e-06
2.50856e-06
2.473e-06
2.48405e-06
2.49461e-06
2.50491e-06
2.51493e-06
2.52464e-06
2.53402e-06
2.54305e-06
2.5517e-06
2.55995e-06
2.56779e-06
2.5752e-06
2.58216e-06
2.58866e-06
2.59467e-06
2.60019e-06
2.60519e-06
2.60967e-06
2.61361e-06
2.617e-06
2.61985e-06
2.62213e-06
2.62385e-06
2.62499e-06
2.62557e-06
2.62557e-06
2.62499e-06
2.62385e-06
2.62213e-06
2.61985e-06
2.617e-06
2.61361e-06
2.60967e-06
2.60519e-06
2.60019e-06
2.59467e-06
2.58866e-06
2.58216e-06
2.5752e-06
2.56779e-06
2.55995e-06
2.5517e-06
2.54305e-06
2.53402e-06
2.52464e-06
2.51493e-06
2.50491e-06
2.49461e-06
2.48405e-06
2.473e-06
2.43773e-06
2.44854e-06
2.45887e-06
2.46896e-06
2.47876e-06
2.48826e-06
2.49744e-06
2.50627e-06
2.51474e-06
2.52281e-06
2.53049e-06
2.53774e-06
2.54455e-06
2.55091e-06
2.55679e-06
2.56219e-06
2.56708e-06
2.57147e-06
2.57532e-06
2.57864e-06
2.58143e-06
2.58366e-06
2.58534e-06
2.58646e-06
2.58702e-06
2.58702e-06
2.58646e-06
2.58534e-06
2.58366e-06
2.58143e-06
2.57864e-06
2.57532e-06
2.57147e-06
2.56708e-06
2.56219e-06
2.55679e-06
2.55091e-06
2.54455e-06
2.53774e-06
2.53049e-06
2.52281e-06
2.51474e-06
2.50627e-06
2.49744e-06
2.48826e-06
2.47876e-06
2.46895e-06
2.45887e-06
2.44854e-06
2.43773e-06
2.40274e-06
2.41331e-06
2.42343e-06
2.43329e-06
2.44288e-06
2.45218e-06
2.46115e-06
2.46979e-06
2.47808e-06
2.48598e-06
2.49349e-06
2.50058e-06
2.50724e-06
2.51346e-06
2.51922e-06
2.5245e-06
2.52929e-06
2.53357e-06
2.53735e-06
2.5406e-06
2.54332e-06
2.5455e-06
2.54715e-06
2.54825e-06
2.54879e-06
2.54879e-06
2.54825e-06
2.54715e-06
2.5455e-06
2.54332e-06
2.5406e-06
2.53735e-06
2.53358e-06
2.52929e-06
2.5245e-06
2.51922e-06
2.51346e-06
2.50724e-06
2.50058e-06
2.49349e-06
2.48598e-06
2.47808e-06
2.46979e-06
2.46115e-06
2.45218e-06
2.44288e-06
2.43329e-06
2.42343e-06
2.41331e-06
2.40274e-06
2.36804e-06
2.37837e-06
2.38826e-06
2.39791e-06
2.40729e-06
2.41638e-06
2.42516e-06
2.43361e-06
2.44171e-06
2.44944e-06
2.45678e-06
2.46372e-06
2.47024e-06
2.47632e-06
2.48195e-06
2.48712e-06
2.4918e-06
2.49599e-06
2.49968e-06
2.50286e-06
2.50552e-06
2.50766e-06
2.50927e-06
2.51034e-06
2.51088e-06
2.51088e-06
2.51034e-06
2.50927e-06
2.50766e-06
2.50552e-06
2.50286e-06
2.49968e-06
2.49599e-06
2.4918e-06
2.48712e-06
2.48195e-06
2.47632e-06
2.47024e-06
2.46372e-06
2.45678e-06
2.44944e-06
2.44171e-06
2.43361e-06
2.42516e-06
2.41638e-06
2.40729e-06
2.39791e-06
2.38826e-06
2.37837e-06
2.36804e-06
2.33361e-06
2.34371e-06
2.35338e-06
2.36281e-06
2.37198e-06
2.38087e-06
2.38946e-06
2.39772e-06
2.40564e-06
2.41319e-06
2.42037e-06
2.42715e-06
2.43353e-06
2.43948e-06
2.44498e-06
2.45003e-06
2.45461e-06
2.45871e-06
2.46232e-06
2.46542e-06
2.46803e-06
2.47012e-06
2.47169e-06
2.47274e-06
2.47326e-06
2.47326e-06
2.47274e-06
2.47169e-06
2.47012e-06
2.46803e-06
2.46542e-06
2.46232e-06
2.45871e-06
2.45461e-06
2.45003e-06
2.44498e-06
2.43948e-06
2.43353e-06
2.42715e-06
2.42037e-06
2.41319e-06
2.40563e-06
2.39772e-06
2.38946e-06
2.38087e-06
2.37198e-06
2.36281e-06
2.35338e-06
2.34371e-06
2.33361e-06
2.29946e-06
2.30933e-06
2.31878e-06
2.328e-06
2.33696e-06
2.34564e-06
2.35403e-06
2.36211e-06
2.36985e-06
2.37723e-06
2.38425e-06
2.39088e-06
2.39711e-06
2.40292e-06
2.40831e-06
2.41324e-06
2.41772e-06
2.42172e-06
2.42525e-06
2.42829e-06
2.43083e-06
2.43287e-06
2.43441e-06
2.43543e-06
2.43595e-06
2.43595e-06
2.43543e-06
2.43441e-06
2.43287e-06
2.43083e-06
2.42829e-06
2.42525e-06
2.42172e-06
2.41772e-06
2.41324e-06
2.40831e-06
2.40292e-06
2.39711e-06
2.39088e-06
2.38425e-06
2.37723e-06
2.36985e-06
2.36211e-06
2.35403e-06
2.34564e-06
2.33696e-06
2.328e-06
2.31878e-06
2.30933e-06
2.29946e-06
2.26558e-06
2.27522e-06
2.28445e-06
2.29346e-06
2.30221e-06
2.3107e-06
2.31889e-06
2.32678e-06
2.33434e-06
2.34156e-06
2.34841e-06
2.35489e-06
2.36098e-06
2.36666e-06
2.37192e-06
2.37674e-06
2.38111e-06
2.38503e-06
2.38847e-06
2.39144e-06
2.39393e-06
2.39592e-06
2.39742e-06
2.39843e-06
2.39893e-06
2.39893e-06
2.39843e-06
2.39742e-06
2.39592e-06
2.39393e-06
2.39144e-06
2.38847e-06
2.38503e-06
2.38111e-06
2.37674e-06
2.37192e-06
2.36666e-06
2.36098e-06
2.35489e-06
2.34841e-06
2.34156e-06
2.33434e-06
2.32678e-06
2.31889e-06
2.3107e-06
2.30221e-06
2.29346e-06
2.28445e-06
2.27521e-06
2.26558e-06
2.23197e-06
2.24138e-06
2.2504e-06
2.25919e-06
2.26774e-06
2.27602e-06
2.28403e-06
2.29173e-06
2.29912e-06
2.30616e-06
2.31286e-06
2.31919e-06
2.32513e-06
2.33068e-06
2.33582e-06
2.34053e-06
2.3448e-06
2.34862e-06
2.35199e-06
2.35489e-06
2.35731e-06
2.35926e-06
2.36073e-06
2.36171e-06
2.3622e-06
2.3622e-06
2.36171e-06
2.36073e-06
2.35926e-06
2.35731e-06
2.35489e-06
2.35199e-06
2.34862e-06
2.3448e-06
2.34053e-06
2.33582e-06
2.33068e-06
2.32513e-06
2.31919e-06
2.31286e-06
2.30616e-06
2.29911e-06
2.29173e-06
2.28403e-06
2.27602e-06
2.26774e-06
2.25919e-06
2.2504e-06
2.24137e-06
2.23197e-06
2.19863e-06
2.2078e-06
2.21661e-06
2.22519e-06
2.23354e-06
2.24162e-06
2.24944e-06
2.25696e-06
2.26417e-06
2.27105e-06
2.27758e-06
2.28376e-06
2.28957e-06
2.29498e-06
2.3e-06
2.30459e-06
2.30876e-06
2.3125e-06
2.31578e-06
2.31861e-06
2.32098e-06
2.32289e-06
2.32432e-06
2.32527e-06
2.32575e-06
2.32575e-06
2.32527e-06
2.32432e-06
2.32289e-06
2.32098e-06
2.31861e-06
2.31578e-06
2.3125e-06
2.30877e-06
2.3046e-06
2.3e-06
2.29498e-06
2.28957e-06
2.28376e-06
2.27758e-06
2.27105e-06
2.26417e-06
2.25696e-06
2.24944e-06
2.24162e-06
2.23354e-06
2.22519e-06
2.21661e-06
2.2078e-06
2.19863e-06
2.16555e-06
2.1745e-06
2.18309e-06
2.19146e-06
2.1996e-06
2.20749e-06
2.21512e-06
2.22246e-06
2.22949e-06
2.23621e-06
2.24258e-06
2.24861e-06
2.25428e-06
2.25956e-06
2.26446e-06
2.26894e-06
2.27301e-06
2.27666e-06
2.27986e-06
2.28263e-06
2.28494e-06
2.2868e-06
2.28819e-06
2.28913e-06
2.28959e-06
2.28959e-06
2.28913e-06
2.28819e-06
2.2868e-06
2.28494e-06
2.28263e-06
2.27986e-06
2.27666e-06
2.27301e-06
2.26894e-06
2.26446e-06
2.25956e-06
2.25428e-06
2.24861e-06
2.24258e-06
2.23621e-06
2.22949e-06
2.22246e-06
2.21512e-06
2.20749e-06
2.1996e-06
2.19146e-06
2.18309e-06
2.1745e-06
2.16555e-06
2.13274e-06
2.14146e-06
2.14984e-06
2.158e-06
2.16594e-06
2.17364e-06
2.18107e-06
2.18823e-06
2.19509e-06
2.20164e-06
2.20786e-06
2.21374e-06
2.21926e-06
2.22442e-06
2.22919e-06
2.23357e-06
2.23754e-06
2.24109e-06
2.24422e-06
2.24692e-06
2.24917e-06
2.25098e-06
2.25235e-06
2.25326e-06
2.25371e-06
2.25371e-06
2.25326e-06
2.25235e-06
2.25098e-06
2.24917e-06
2.24691e-06
2.24422e-06
2.24109e-06
2.23754e-06
2.23357e-06
2.22919e-06
2.22442e-06
2.21926e-06
2.21374e-06
2.20786e-06
2.20164e-06
2.19509e-06
2.18823e-06
2.18107e-06
2.17364e-06
2.16594e-06
2.158e-06
2.14984e-06
2.14146e-06
2.13274e-06
2.10019e-06
2.10869e-06
2.11686e-06
2.12481e-06
2.13255e-06
2.14005e-06
2.14729e-06
2.15427e-06
2.16095e-06
2.16734e-06
2.1734e-06
2.17914e-06
2.18452e-06
2.18955e-06
2.1942e-06
2.19847e-06
2.20234e-06
2.2058e-06
2.20885e-06
2.21148e-06
2.21368e-06
2.21545e-06
2.21678e-06
2.21766e-06
2.21811e-06
2.21811e-06
2.21766e-06
2.21678e-06
2.21545e-06
2.21368e-06
2.21148e-06
2.20885e-06
2.2058e-06
2.20234e-06
2.19847e-06
2.1942e-06
2.18955e-06
2.18452e-06
2.17914e-06
2.1734e-06
2.16734e-06
2.16095e-06
2.15427e-06
2.14729e-06
2.14005e-06
2.13255e-06
2.12481e-06
2.11686e-06
2.10869e-06
2.10019e-06
2.06791e-06
2.07619e-06
2.08414e-06
2.09188e-06
2.09942e-06
2.10672e-06
2.11378e-06
2.12058e-06
2.12709e-06
2.13331e-06
2.13922e-06
2.14481e-06
2.15006e-06
2.15495e-06
2.15949e-06
2.16365e-06
2.16742e-06
2.17079e-06
2.17376e-06
2.17632e-06
2.17847e-06
2.18019e-06
2.18148e-06
2.18235e-06
2.18278e-06
2.18278e-06
2.18235e-06
2.18148e-06
2.18019e-06
2.17847e-06
2.17632e-06
2.17376e-06
2.17079e-06
2.16742e-06
2.16365e-06
2.15949e-06
2.15495e-06
2.15006e-06
2.14481e-06
2.13922e-06
2.13331e-06
2.12709e-06
2.12058e-06
2.11378e-06
2.10672e-06
2.09942e-06
2.09188e-06
2.08414e-06
2.07619e-06
2.06791e-06
2.03589e-06
2.04395e-06
2.05169e-06
2.05922e-06
2.06656e-06
2.07367e-06
2.08054e-06
2.08716e-06
2.0935e-06
2.09956e-06
2.10531e-06
2.11075e-06
2.11586e-06
2.12063e-06
2.12504e-06
2.12909e-06
2.13276e-06
2.13605e-06
2.13895e-06
2.14144e-06
2.14353e-06
2.1452e-06
2.14646e-06
2.14731e-06
2.14773e-06
2.14773e-06
2.14731e-06
2.14646e-06
2.1452e-06
2.14353e-06
2.14144e-06
2.13895e-06
2.13605e-06
2.13276e-06
2.12909e-06
2.12504e-06
2.12063e-06
2.11586e-06
2.11075e-06
2.10531e-06
2.09956e-06
2.0935e-06
2.08716e-06
2.08054e-06
2.07367e-06
2.06656e-06
2.05922e-06
2.05169e-06
2.04395e-06
2.03589e-06
2.00415e-06
2.01198e-06
2.0195e-06
2.02684e-06
2.03397e-06
2.04089e-06
2.04757e-06
2.05401e-06
2.06018e-06
2.06607e-06
2.07167e-06
2.07696e-06
2.08194e-06
2.08658e-06
2.09087e-06
2.09481e-06
2.09839e-06
2.10159e-06
2.1044e-06
2.10683e-06
2.10886e-06
2.11049e-06
2.11172e-06
2.11254e-06
2.11295e-06
2.11295e-06
2.11254e-06
2.11172e-06
2.11049e-06
2.10886e-06
2.10683e-06
2.1044e-06
2.10159e-06
2.09839e-06
2.09481e-06
2.09087e-06
2.08658e-06
2.08194e-06
2.07696e-06
2.07167e-06
2.06607e-06
2.06018e-06
2.05401e-06
2.04757e-06
2.04089e-06
2.03397e-06
2.02684e-06
2.0195e-06
2.01198e-06
2.00415e-06
1.97267e-06
1.98028e-06
1.98759e-06
1.99472e-06
2.00165e-06
2.00838e-06
2.01487e-06
2.02113e-06
2.02713e-06
2.03286e-06
2.0383e-06
2.04345e-06
2.04829e-06
2.0528e-06
2.05698e-06
2.06081e-06
2.06428e-06
2.06739e-06
2.07013e-06
2.07249e-06
2.07447e-06
2.07605e-06
2.07725e-06
2.07805e-06
2.07844e-06
2.07844e-06
2.07805e-06
2.07725e-06
2.07605e-06
2.07447e-06
2.07249e-06
2.07013e-06
2.06739e-06
2.06428e-06
2.06081e-06
2.05698e-06
2.0528e-06
2.04829e-06
2.04345e-06
2.0383e-06
2.03286e-06
2.02713e-06
2.02113e-06
2.01487e-06
2.00837e-06
2.00165e-06
1.99472e-06
1.98759e-06
1.98028e-06
1.97267e-06
1.94147e-06
1.94886e-06
1.95596e-06
1.96288e-06
1.96961e-06
1.97614e-06
1.98245e-06
1.98853e-06
1.99436e-06
1.99992e-06
2.00521e-06
2.01021e-06
2.01491e-06
2.0193e-06
2.02336e-06
2.02708e-06
2.03045e-06
2.03348e-06
2.03614e-06
2.03843e-06
2.04035e-06
2.04189e-06