/*--------------------------------*- C++ -*----------------------------------*\
  =========                 |
  \\      /  F ield         | OpenFOAM: The Open Source CFD Toolbox
   \\    /   O peration     | Website:  https://openfoam.org
    \\  /    A nd           | Version:  7
     \\/     M anipulation  |
\*---------------------------------------------------------------------------*/
FoamFile
{
    version     2.0;
    format      ascii;
    class       volScalarField;
    location    "56000";
    object      nu;
}
// * * * * * * * * * * * * * * * * * * * * * * * * * * * * * * * * * * * * * //

dimensions      [0 2 -1 0 0 0 0];

internalField   nonuniform List<scalar> 
4782
(
2.34117e-06
2.30947e-06
2.27821e-06
2.24739e-06
2.21703e-06
2.18713e-06
2.15771e-06
2.12878e-06
2.10034e-06
2.07242e-06
4.3285e-06
4.26304e-06
4.19946e-06
4.13757e-06
4.07724e-06
4.01838e-06
3.96089e-06
3.9047e-06
3.84975e-06
3.79596e-06
3.74326e-06
3.69158e-06
3.64089e-06
3.59114e-06
3.54231e-06
3.49435e-06
3.44722e-06
3.40087e-06
3.35526e-06
3.31036e-06
3.26614e-06
3.22258e-06
3.17967e-06
3.13738e-06
3.09569e-06
3.05457e-06
3.01401e-06
2.97397e-06
2.93445e-06
2.89545e-06
2.85693e-06
2.81888e-06
2.7813e-06
2.74418e-06
2.70753e-06
2.67133e-06
2.63557e-06
2.60024e-06
2.56535e-06
2.53088e-06
2.49683e-06
2.46321e-06
2.43001e-06
2.39724e-06
2.3649e-06
2.33299e-06
2.30152e-06
2.27049e-06
2.23991e-06
2.20978e-06
2.18012e-06
2.15094e-06
2.12224e-06
2.09404e-06
2.06635e-06
4.30204e-06
4.23751e-06
4.17475e-06
4.11362e-06
4.05402e-06
3.99585e-06
3.93904e-06
3.88351e-06
3.82916e-06
3.77592e-06
3.72373e-06
3.67255e-06
3.62234e-06
3.57307e-06
3.52467e-06
3.47712e-06
3.43038e-06
3.3844e-06
3.33917e-06
3.29466e-06
3.25081e-06
3.20762e-06
3.16506e-06
3.12311e-06
3.08174e-06
3.04094e-06
3.00068e-06
2.96095e-06
2.92172e-06
2.88299e-06
2.84475e-06
2.80699e-06
2.7697e-06
2.73286e-06
2.69647e-06
2.66053e-06
2.62501e-06
2.58993e-06
2.55527e-06
2.52104e-06
2.48723e-06
2.45384e-06
2.42087e-06
2.38834e-06
2.35624e-06
2.32457e-06
2.29335e-06
2.26257e-06
2.23223e-06
2.20235e-06
2.17293e-06
2.14399e-06
2.11553e-06
2.08757e-06
2.06012e-06
4.27515e-06
4.21153e-06
4.14962e-06
4.08928e-06
4.03042e-06
3.97295e-06
3.91679e-06
3.86185e-06
3.80806e-06
3.75537e-06
3.70374e-06
3.65313e-06
3.60346e-06
3.55467e-06
3.50672e-06
3.45958e-06
3.41324e-06
3.36766e-06
3.32282e-06
3.27866e-06
3.23515e-06
3.19229e-06
3.15006e-06
3.10844e-06
3.0674e-06
3.02691e-06
2.98695e-06
2.94753e-06
2.90861e-06
2.87017e-06
2.83222e-06
2.79474e-06
2.75772e-06
2.72115e-06
2.68503e-06
2.64935e-06
2.6141e-06
2.57928e-06
2.54489e-06
2.51093e-06
2.47739e-06
2.44427e-06
2.41158e-06
2.37931e-06
2.34746e-06
2.31605e-06
2.28507e-06
2.25453e-06
2.22443e-06
2.19479e-06
2.16561e-06
2.1369e-06
2.10868e-06
2.08097e-06
2.05377e-06
4.2457e-06
4.18317e-06
4.12227e-06
4.06285e-06
4.0048e-06
3.94807e-06
3.8926e-06
3.83834e-06
3.78521e-06
3.73316e-06
3.68216e-06
3.63213e-06
3.583e-06
3.53473e-06
3.48729e-06
3.44065e-06
3.39479e-06
3.34966e-06
3.30524e-06
3.2615e-06
3.21841e-06
3.17596e-06
3.13413e-06
3.09287e-06
3.05218e-06
3.01203e-06
2.97241e-06
2.93329e-06
2.89469e-06
2.85658e-06
2.81895e-06
2.78179e-06
2.74509e-06
2.70883e-06
2.67301e-06
2.63763e-06
2.60267e-06
2.56813e-06
2.53402e-06
2.50033e-06
2.46707e-06
2.43423e-06
2.4018e-06
2.36979e-06
2.33821e-06
2.30705e-06
2.27634e-06
2.24606e-06
2.21622e-06
2.18684e-06
2.15793e-06
2.12949e-06
2.10154e-06
2.07408e-06
2.04714e-06
4.24564e-06
4.18315e-06
4.12224e-06
4.06281e-06
4.00479e-06
3.9481e-06
3.89267e-06
3.83843e-06
3.7853e-06
3.73322e-06
3.68217e-06
3.63208e-06
3.58294e-06
3.53468e-06
3.48726e-06
3.44062e-06
3.39476e-06
3.34963e-06
3.30522e-06
3.26149e-06
3.21841e-06
3.17596e-06
3.13412e-06
3.09287e-06
3.05218e-06
3.01204e-06
2.97243e-06
2.93333e-06
2.89472e-06
2.8566e-06
2.81895e-06
2.78176e-06
2.74503e-06
2.70875e-06
2.67291e-06
2.63752e-06
2.60256e-06
2.56803e-06
2.53393e-06
2.50025e-06
2.46699e-06
2.43415e-06
2.40173e-06
2.36973e-06
2.33815e-06
2.307e-06
2.27629e-06
2.24601e-06
2.21618e-06
2.18681e-06
2.1579e-06
2.12947e-06
2.10152e-06
2.07407e-06
2.04713e-06
4.27488e-06
4.2114e-06
4.14962e-06
4.08937e-06
4.03056e-06
3.97311e-06
3.91693e-06
3.86195e-06
3.80812e-06
3.75539e-06
3.7037e-06
3.653e-06
3.60326e-06
3.55445e-06
3.50652e-06
3.45942e-06
3.41311e-06
3.36756e-06
3.32272e-06
3.27857e-06
3.23509e-06
3.19225e-06
3.15003e-06
3.1084e-06
3.06736e-06
3.02686e-06
2.9869e-06
2.94745e-06
2.90851e-06
2.87007e-06
2.8321e-06
2.79459e-06
2.75755e-06
2.72097e-06
2.68485e-06
2.64917e-06
2.61393e-06
2.57912e-06
2.54473e-06
2.51078e-06
2.47725e-06
2.44414e-06
2.41146e-06
2.3792e-06
2.34737e-06
2.31596e-06
2.28498e-06
2.25444e-06
2.22435e-06
2.19472e-06
2.16555e-06
2.13686e-06
2.10865e-06
2.08095e-06
2.05375e-06
2.02708e-06
2.00096e-06
1.97539e-06
1.9504e-06
4.30178e-06
4.23734e-06
4.17469e-06
4.11364e-06
4.05407e-06
3.99589e-06
3.93905e-06
3.88346e-06
3.82905e-06
3.77577e-06
3.72355e-06
3.67235e-06
3.62214e-06
3.57287e-06
3.52449e-06
3.47696e-06
3.43023e-06
3.38426e-06
3.33902e-06
3.29449e-06
3.25064e-06
3.20746e-06
3.16489e-06
3.12293e-06
3.08156e-06
3.04074e-06
3.00046e-06
2.96071e-06
2.92148e-06
2.88276e-06
2.84453e-06
2.80676e-06
2.76946e-06
2.73262e-06
2.69623e-06
2.6603e-06
2.6248e-06
2.58974e-06
2.5551e-06
2.52089e-06
2.48711e-06
2.45374e-06
2.4208e-06
2.38829e-06
2.35621e-06
2.32456e-06
2.29334e-06
2.26256e-06
2.23222e-06
2.20234e-06
2.17293e-06
2.14399e-06
2.11554e-06
2.08758e-06
2.06013e-06
2.03321e-06
2.00684e-06
1.98102e-06
1.95579e-06
1.93114e-06
4.32814e-06
4.2628e-06
4.19936e-06
4.13759e-06
4.07732e-06
4.01845e-06
3.9609e-06
3.90463e-06
3.84959e-06
3.79574e-06
3.74302e-06
3.69137e-06
3.64073e-06
3.59103e-06
3.54221e-06
3.49422e-06
3.44704e-06
3.40066e-06
3.35504e-06
3.31014e-06
3.26594e-06
3.2224e-06
3.1795e-06
3.1372e-06
3.09549e-06
3.05435e-06
3.01377e-06
2.97373e-06
2.9342e-06
2.89519e-06
2.85667e-06
2.81864e-06
2.78109e-06
2.744e-06
2.70736e-06
2.67116e-06
2.6354e-06
2.60008e-06
2.56518e-06
2.53072e-06
2.49669e-06
2.46309e-06
2.42991e-06
2.39716e-06
2.36484e-06
2.33295e-06
2.3015e-06
2.27049e-06
2.23992e-06
2.2098e-06
2.18015e-06
2.15096e-06
2.12226e-06
2.09406e-06
2.06637e-06
2.0392e-06
2.01258e-06
1.98652e-06
1.96104e-06
1.93615e-06
1.91186e-06
1.88808e-06
1.86426e-06
1.84001e-06
1.81597e-06
1.79274e-06
1.77045e-06
1.74921e-06
1.72912e-06
1.71027e-06
1.69273e-06
1.67658e-06
1.66186e-06
1.64859e-06
1.63677e-06
1.62634e-06
1.61726e-06
1.6094e-06
1.60267e-06
1.59692e-06
1.59202e-06
1.58783e-06
1.58421e-06
1.58106e-06
1.57825e-06
1.57572e-06
1.57338e-06
1.57119e-06
1.56911e-06
1.5671e-06
1.56515e-06
1.56324e-06
1.56137e-06
1.55953e-06
1.55773e-06
4.354e-06
4.28771e-06
4.2234e-06
4.16084e-06
4.09988e-06
4.04038e-06
3.98225e-06
3.92541e-06
3.86982e-06
3.81545e-06
3.76221e-06
3.71005e-06
3.6589e-06
3.60871e-06
3.55943e-06
3.51101e-06
3.46343e-06
3.41667e-06
3.37068e-06
3.32543e-06
3.28089e-06
3.23703e-06
3.1938e-06
3.15117e-06
3.10914e-06
3.06768e-06
3.02678e-06
2.98643e-06
2.94662e-06
2.90733e-06
2.86854e-06
2.83023e-06
2.7924e-06
2.75504e-06
2.71814e-06
2.68169e-06
2.64569e-06
2.61013e-06
2.57501e-06
2.54032e-06
2.50607e-06
2.47223e-06
2.43881e-06
2.40582e-06
2.37325e-06
2.34113e-06
2.30943e-06
2.27818e-06
2.24738e-06
2.21704e-06
2.18715e-06
2.15773e-06
2.1288e-06
2.10037e-06
2.07244e-06
2.04505e-06
2.0182e-06
1.9919e-06
1.96619e-06
1.94107e-06
1.91655e-06
1.89256e-06
1.86862e-06
1.84433e-06
1.82013e-06
1.79664e-06
1.77408e-06
1.75256e-06
1.73218e-06
1.71304e-06
1.69521e-06
1.67878e-06
1.66379e-06
1.65026e-06
1.63819e-06
1.62755e-06
1.61826e-06
1.61023e-06
1.60335e-06
1.59748e-06
1.59248e-06
1.58821e-06
1.58453e-06
1.58132e-06
1.57848e-06
1.57591e-06
1.57355e-06
1.57134e-06
1.56923e-06
1.56721e-06
1.56524e-06
1.56332e-06
1.56144e-06
1.55959e-06
1.55777e-06
4.37931e-06
4.31205e-06
4.24689e-06
4.18357e-06
4.12189e-06
4.06173e-06
4.00299e-06
3.94558e-06
3.88947e-06
3.83459e-06
3.78086e-06
3.72822e-06
3.6766e-06
3.62596e-06
3.57624e-06
3.52741e-06
3.47944e-06
3.4323e-06
3.38595e-06
3.34034e-06
3.29544e-06
3.25122e-06
3.20765e-06
3.16471e-06
3.12237e-06
3.08064e-06
3.03947e-06
2.99886e-06
2.95878e-06
2.91922e-06
2.88016e-06
2.84159e-06
2.8035e-06
2.76588e-06
2.72871e-06
2.692e-06
2.65573e-06
2.61992e-06
2.58455e-06
2.54962e-06
2.51512e-06
2.48104e-06
2.4474e-06
2.41418e-06
2.3814e-06
2.34905e-06
2.31713e-06
2.28566e-06
2.25462e-06
2.22404e-06
2.19392e-06
2.16427e-06
2.13511e-06
2.10645e-06
2.0783e-06
2.05069e-06
2.02361e-06
1.9971e-06
1.97117e-06
1.94583e-06
1.92109e-06
1.89689e-06
1.87285e-06
1.84852e-06
1.82417e-06
1.80043e-06
1.77761e-06
1.75582e-06
1.73517e-06
1.71575e-06
1.69765e-06
1.68094e-06
1.66568e-06
1.6519e-06
1.63959e-06
1.62873e-06
1.61925e-06
1.61105e-06
1.60403e-06
1.59803e-06
1.59293e-06
1.58858e-06
1.58483e-06
1.58158e-06
1.5787e-06
1.5761e-06
1.57371e-06
1.57148e-06
1.56936e-06
1.56732e-06
1.56534e-06
1.5634e-06
1.56151e-06
1.55964e-06
1.55781e-06
4.40399e-06
4.33576e-06
4.26977e-06
4.20569e-06
4.14332e-06
4.08252e-06
4.0232e-06
3.96526e-06
3.90862e-06
3.85318e-06
3.7989e-06
3.74575e-06
3.69367e-06
3.64262e-06
3.59254e-06
3.54334e-06
3.49498e-06
3.44744e-06
3.40069e-06
3.35471e-06
3.30947e-06
3.26492e-06
3.22105e-06
3.17782e-06
3.13521e-06
3.0932e-06
3.05176e-06
3.01088e-06
2.97052e-06
2.93069e-06
2.89137e-06
2.85254e-06
2.8142e-06
2.77634e-06
2.73895e-06
2.70201e-06
2.66551e-06
2.62946e-06
2.59386e-06
2.55868e-06
2.52395e-06
2.48964e-06
2.45576e-06
2.42232e-06
2.3893e-06
2.35671e-06
2.32456e-06
2.29285e-06
2.26159e-06
2.23079e-06
2.20045e-06
2.17059e-06
2.14122e-06
2.11234e-06
2.08398e-06
2.05614e-06
2.02885e-06
2.00212e-06
1.97597e-06
1.95042e-06
1.92547e-06
1.90109e-06
1.87695e-06
1.85258e-06
1.8281e-06
1.80412e-06
1.78105e-06
1.759e-06
1.73808e-06
1.71839e-06
1.70002e-06
1.68305e-06
1.66753e-06
1.6535e-06
1.64097e-06
1.62989e-06
1.62022e-06
1.61186e-06
1.60469e-06
1.59857e-06
1.59337e-06
1.58894e-06
1.58514e-06
1.58183e-06
1.57891e-06
1.57628e-06
1.57387e-06
1.57162e-06
1.56948e-06
1.56743e-06
1.56543e-06
1.56348e-06
1.56157e-06
1.5597e-06
1.55786e-06
4.42807e-06
4.35877e-06
4.29186e-06
4.22701e-06
4.16396e-06
4.10254e-06
4.04261e-06
3.9841e-06
3.92694e-06
3.87106e-06
3.81637e-06
3.76279e-06
3.71027e-06
3.65877e-06
3.60825e-06
3.55867e-06
3.50995e-06
3.46209e-06
3.41502e-06
3.36872e-06
3.32314e-06
3.27826e-06
3.23405e-06
3.1905e-06
3.14757e-06
3.10525e-06
3.06352e-06
3.02235e-06
2.98173e-06
2.94165e-06
2.9021e-06
2.86306e-06
2.8245e-06
2.7864e-06
2.74878e-06
2.71162e-06
2.6749e-06
2.63863e-06
2.6028e-06
2.5674e-06
2.53244e-06
2.49791e-06
2.46381e-06
2.43013e-06
2.39689e-06
2.36409e-06
2.33172e-06
2.2998e-06
2.26832e-06
2.23731e-06
2.20676e-06
2.17669e-06
2.14711e-06
2.11803e-06
2.08946e-06
2.06142e-06
2.03392e-06
2.00699e-06
1.98063e-06
1.95487e-06
1.92972e-06
1.90514e-06
1.88091e-06
1.85651e-06
1.8319e-06
1.8077e-06
1.78438e-06
1.76208e-06
1.74091e-06
1.72096e-06
1.70233e-06
1.6851e-06
1.66933e-06
1.65507e-06
1.64231e-06
1.63102e-06
1.62117e-06
1.61264e-06
1.60533e-06
1.5991e-06
1.5938e-06
1.58929e-06
1.58543e-06
1.58207e-06
1.57912e-06
1.57646e-06
1.57403e-06
1.57176e-06
1.5696e-06
1.56753e-06
1.56552e-06
1.56356e-06
1.56164e-06
1.55975e-06
1.5579e-06
4.45132e-06
4.38094e-06
4.31311e-06
4.24748e-06
4.18376e-06
4.12175e-06
4.06131e-06
4.00232e-06
3.94469e-06
3.88832e-06
3.83316e-06
3.77914e-06
3.72622e-06
3.67434e-06
3.62345e-06
3.57347e-06
3.52437e-06
3.47613e-06
3.4287e-06
3.38207e-06
3.33618e-06
3.291e-06
3.2465e-06
3.20266e-06
3.15945e-06
3.11687e-06
3.07488e-06
3.03345e-06
2.99258e-06
2.95225e-06
2.91243e-06
2.87313e-06
2.83431e-06
2.79598e-06
2.75812e-06
2.72073e-06
2.6838e-06
2.64732e-06
2.61129e-06
2.57568e-06
2.54051e-06
2.50578e-06
2.47148e-06
2.43761e-06
2.40417e-06
2.37116e-06
2.33859e-06
2.30646e-06
2.27479e-06
2.24358e-06
2.21284e-06
2.18257e-06
2.15279e-06
2.12351e-06
2.09474e-06
2.0665e-06
2.03881e-06
2.01167e-06
1.98511e-06
1.95915e-06
1.9338e-06
1.90905e-06
1.88473e-06
1.8603e-06
1.83556e-06
1.81115e-06
1.7876e-06
1.76506e-06
1.74364e-06
1.72344e-06
1.70457e-06
1.68709e-06
1.67108e-06
1.65659e-06
1.64361e-06
1.63213e-06
1.62209e-06
1.6134e-06
1.60596e-06
1.59961e-06
1.59422e-06
1.58964e-06
1.58571e-06
1.58231e-06
1.57932e-06
1.57663e-06
1.57418e-06
1.57189e-06
1.56972e-06
1.56763e-06
1.56561e-06
1.56363e-06
1.5617e-06
1.5598e-06
1.55793e-06
4.4737e-06
4.40232e-06
4.33367e-06
4.26734e-06
4.20299e-06
4.14041e-06
4.07944e-06
4.01994e-06
3.96179e-06
3.90492e-06
3.84929e-06
3.79483e-06
3.74148e-06
3.68915e-06
3.63781e-06
3.58743e-06
3.53799e-06
3.48943e-06
3.44171e-06
3.39476e-06
3.34856e-06
3.30307e-06
3.25829e-06
3.21418e-06
3.17071e-06
3.12787e-06
3.08563e-06
3.04395e-06
3.00283e-06
2.96225e-06
2.9222e-06
2.88268e-06
2.84365e-06
2.80511e-06
2.76704e-06
2.72945e-06
2.69232e-06
2.65564e-06
2.61939e-06
2.58359e-06
2.54822e-06
2.51328e-06
2.47878e-06
2.44471e-06
2.41109e-06
2.3779e-06
2.34515e-06
2.31285e-06
2.281e-06
2.24961e-06
2.21868e-06
2.18823e-06
2.15827e-06
2.1288e-06
2.09985e-06
2.07142e-06
2.04352e-06
2.01619e-06
1.98943e-06
1.96328e-06
1.93773e-06
1.91281e-06
1.88839e-06
1.86394e-06
1.83908e-06
1.81445e-06
1.79068e-06
1.76792e-06
1.74627e-06
1.72583e-06
1.70672e-06
1.68901e-06
1.67277e-06
1.65805e-06
1.64486e-06
1.63319e-06
1.62297e-06
1.61413e-06
1.60656e-06
1.6001e-06
1.59462e-06
1.58996e-06
1.58598e-06
1.58253e-06
1.57951e-06
1.57679e-06
1.57432e-06
1.57201e-06
1.56982e-06
1.56772e-06
1.56569e-06
1.5637e-06
1.56176e-06
1.55985e-06
1.55797e-06
4.4954e-06
4.42302e-06
4.3535e-06
4.28643e-06
4.22146e-06
4.15831e-06
4.09679e-06
4.03675e-06
3.97808e-06
3.92071e-06
3.86458e-06
3.80965e-06
3.75587e-06
3.70316e-06
3.65146e-06
3.60074e-06
3.55098e-06
3.5021e-06
3.45406e-06
3.4068e-06
3.36029e-06
3.31451e-06
3.26945e-06
3.22507e-06
3.18135e-06
3.13827e-06
3.09579e-06
3.0539e-06
3.01258e-06
2.9718e-06
2.93155e-06
2.89181e-06
2.85256e-06
2.8138e-06
2.77553e-06
2.73772e-06
2.70038e-06
2.66349e-06
2.62706e-06
2.59107e-06
2.55552e-06
2.52041e-06
2.48574e-06
2.4515e-06
2.41769e-06
2.38434e-06
2.35142e-06
2.31894e-06
2.28691e-06
2.25534e-06
2.22423e-06
2.1936e-06
2.16345e-06
2.1338e-06
2.10466e-06
2.07604e-06
2.04796e-06
2.02045e-06
1.99352e-06
1.96718e-06
1.94146e-06
1.91636e-06
1.8918e-06
1.86727e-06
1.84236e-06
1.8176e-06
1.79363e-06
1.77065e-06
1.74878e-06
1.72812e-06
1.70878e-06
1.69085e-06
1.67439e-06
1.65946e-06
1.64607e-06
1.63422e-06
1.62384e-06
1.61485e-06
1.60715e-06
1.60059e-06
1.59502e-06
1.59029e-06
1.58625e-06
1.58276e-06
1.5797e-06
1.57696e-06
1.57447e-06
1.57214e-06
1.56994e-06
1.56783e-06
1.56578e-06
1.56378e-06
1.56182e-06
1.5599e-06
1.55802e-06
4.51601e-06
4.44272e-06
4.37241e-06
4.30459e-06
4.23892e-06
4.17514e-06
4.11307e-06
4.05255e-06
3.99343e-06
3.93562e-06
3.87907e-06
3.82372e-06
3.76953e-06
3.71644e-06
3.66441e-06
3.61338e-06
3.56327e-06
3.51404e-06
3.46564e-06
3.41807e-06
3.3713e-06
3.32529e-06
3.28e-06
3.23539e-06
3.19145e-06
3.14814e-06
3.10544e-06
3.06332e-06
3.02176e-06
2.98076e-06
2.94029e-06
2.90034e-06
2.86091e-06
2.82197e-06
2.78351e-06
2.74553e-06
2.70802e-06
2.67096e-06
2.63435e-06
2.59818e-06
2.56245e-06
2.52716e-06
2.49231e-06
2.4579e-06
2.42392e-06
2.39038e-06
2.35729e-06
2.32464e-06
2.29245e-06
2.26072e-06
2.22944e-06
2.19864e-06
2.16833e-06
2.13851e-06
2.1092e-06
2.08042e-06
2.05218e-06
2.0245e-06
1.99739e-06
1.97088e-06
1.94499e-06
1.91972e-06
1.895e-06
1.87039e-06
1.84544e-06
1.82057e-06
1.79641e-06
1.77323e-06
1.75116e-06
1.73029e-06
1.71074e-06
1.6926e-06
1.67594e-06
1.66081e-06
1.64724e-06
1.63521e-06
1.62467e-06
1.61555e-06
1.60772e-06
1.60106e-06
1.59541e-06
1.59061e-06
1.58652e-06
1.58299e-06
1.5799e-06
1.57713e-06
1.57462e-06
1.57228e-06
1.57006e-06
1.56793e-06
1.56588e-06
1.56387e-06
1.5619e-06
1.55997e-06
1.55807e-06
4.53552e-06
4.46119e-06
4.39004e-06
4.32157e-06
4.25534e-06
4.19103e-06
4.12843e-06
4.06739e-06
4.0078e-06
3.9496e-06
3.89269e-06
3.837e-06
3.78247e-06
3.72902e-06
3.67662e-06
3.62523e-06
3.57479e-06
3.52525e-06
3.47656e-06
3.4287e-06
3.38165e-06
3.33536e-06
3.28982e-06
3.24499e-06
3.20083e-06
3.15731e-06
3.1144e-06
3.0721e-06
3.03035e-06
2.98916e-06
2.94852e-06
2.9084e-06
2.86881e-06
2.8297e-06
2.79108e-06
2.75292e-06
2.71522e-06
2.67798e-06
2.6412e-06
2.60486e-06
2.56896e-06
2.53351e-06
2.4985e-06
2.46392e-06
2.42978e-06
2.39607e-06
2.36281e-06
2.33e-06
2.29763e-06
2.26572e-06
2.23428e-06
2.20332e-06
2.17285e-06
2.14288e-06
2.11342e-06
2.08448e-06
2.05608e-06
2.02825e-06
2.00099e-06
1.97433e-06
1.94828e-06
1.92286e-06
1.89801e-06
1.87332e-06
1.84835e-06
1.82337e-06
1.79904e-06
1.77568e-06
1.75341e-06
1.73235e-06
1.71261e-06
1.69427e-06
1.67742e-06
1.6621e-06
1.64835e-06
1.63616e-06
1.62548e-06
1.61622e-06
1.60828e-06
1.60152e-06
1.59579e-06
1.59093e-06
1.58679e-06
1.58322e-06
1.58009e-06
1.57731e-06
1.57477e-06
1.57241e-06
1.57018e-06
1.56805e-06
1.56598e-06
1.56396e-06
1.56198e-06
1.56004e-06
1.55813e-06
4.5541e-06
4.47877e-06
4.40673e-06
4.33752e-06
4.2707e-06
4.2059e-06
4.14286e-06
4.08138e-06
4.02137e-06
3.96275e-06
3.90542e-06
3.8493e-06
3.79435e-06
3.74053e-06
3.6878e-06
3.6361e-06
3.58538e-06
3.5356e-06
3.48671e-06
3.43864e-06
3.39136e-06
3.34485e-06
3.29908e-06
3.25401e-06
3.20964e-06
3.16592e-06
3.12283e-06
3.08033e-06
3.03841e-06
2.99704e-06
2.95622e-06
2.91592e-06
2.87613e-06
2.83684e-06
2.79803e-06
2.75971e-06
2.72184e-06
2.68444e-06
2.64749e-06
2.61099e-06
2.57493e-06
2.53932e-06
2.50415e-06
2.46943e-06
2.43515e-06
2.4013e-06
2.36791e-06
2.33496e-06
2.30246e-06
2.27043e-06
2.23886e-06
2.20777e-06
2.17716e-06
2.14704e-06
2.11743e-06
2.08834e-06
2.05979e-06
2.0318e-06
2.00439e-06
1.97757e-06
1.95137e-06
1.9258e-06
1.90081e-06
1.87606e-06
1.85106e-06
1.82599e-06
1.8015e-06
1.77796e-06
1.75552e-06
1.73428e-06
1.71435e-06
1.69583e-06
1.6788e-06
1.66331e-06
1.6494e-06
1.63705e-06
1.62623e-06
1.61685e-06
1.6088e-06
1.60195e-06
1.59615e-06
1.59123e-06
1.58704e-06
1.58343e-06
1.58028e-06
1.57747e-06
1.57491e-06
1.57254e-06
1.5703e-06
1.56815e-06
1.56607e-06
1.56404e-06
1.56206e-06
1.56011e-06
1.55819e-06
4.57156e-06
4.4953e-06
4.42246e-06
4.35252e-06
4.28503e-06
4.21965e-06
4.15609e-06
4.09415e-06
4.03372e-06
3.97472e-06
3.91706e-06
3.86066e-06
3.80544e-06
3.75135e-06
3.69835e-06
3.64635e-06
3.59533e-06
3.54525e-06
3.49608e-06
3.44778e-06
3.40029e-06
3.3536e-06
3.30766e-06
3.26243e-06
3.21788e-06
3.17396e-06
3.13067e-06
3.08799e-06
3.04588e-06
3.00433e-06
2.96333e-06
2.92285e-06
2.88289e-06
2.84342e-06
2.80444e-06
2.76594e-06
2.72793e-06
2.69039e-06
2.65331e-06
2.61668e-06
2.58049e-06
2.54474e-06
2.50943e-06
2.47456e-06
2.44013e-06
2.40615e-06
2.37262e-06
2.33953e-06
2.30691e-06
2.27474e-06
2.24304e-06
2.21182e-06
2.18107e-06
2.15083e-06
2.12109e-06
2.09188e-06
2.0632e-06
2.03508e-06
2.00754e-06
1.98059e-06
1.95426e-06
1.92855e-06
1.90344e-06
1.87861e-06
1.85359e-06
1.82843e-06
1.80379e-06
1.7801e-06
1.75749e-06
1.73609e-06
1.71599e-06
1.6973e-06
1.6801e-06
1.66445e-06
1.65038e-06
1.63789e-06
1.62693e-06
1.61744e-06
1.60929e-06
1.60236e-06
1.59648e-06
1.59151e-06
1.58727e-06
1.58363e-06
1.58045e-06
1.57762e-06
1.57505e-06
1.57266e-06
1.57041e-06
1.56825e-06
1.56616e-06
1.56412e-06
1.56213e-06
1.56017e-06
1.55824e-06
4.5877e-06
4.51056e-06
4.43698e-06
4.36638e-06
4.2983e-06
4.23239e-06
4.16838e-06
4.10606e-06
4.04528e-06
3.9859e-06
3.92786e-06
3.8711e-06
3.81557e-06
3.76119e-06
3.70792e-06
3.6557e-06
3.60447e-06
3.5542e-06
3.50484e-06
3.45633e-06
3.40862e-06
3.3617e-06
3.31554e-06
3.2701e-06
3.22535e-06
3.18127e-06
3.13782e-06
3.09496e-06
3.05267e-06
3.01095e-06
2.9698e-06
2.92918e-06
2.88909e-06
2.8495e-06
2.81039e-06
2.77177e-06
2.73361e-06
2.69592e-06
2.65868e-06
2.62191e-06
2.58559e-06
2.54972e-06
2.51429e-06
2.4793e-06
2.44475e-06
2.41064e-06
2.37698e-06
2.34376e-06
2.31101e-06
2.27871e-06
2.24688e-06
2.21553e-06
2.18466e-06
2.15429e-06
2.12443e-06
2.09509e-06
2.0663e-06
2.03805e-06
2.01039e-06
1.98332e-06
1.95687e-06
1.93104e-06
1.90582e-06
1.88095e-06
1.85591e-06
1.83067e-06
1.8059e-06
1.78206e-06
1.7593e-06
1.73774e-06
1.71749e-06
1.69864e-06
1.68129e-06
1.66549e-06
1.65128e-06
1.63866e-06
1.62759e-06
1.61799e-06
1.60975e-06
1.60273e-06
1.59679e-06
1.59177e-06
1.58749e-06
1.58381e-06
1.58061e-06
1.57776e-06
1.57517e-06
1.57277e-06
1.57051e-06
1.56834e-06
1.56624e-06
1.56419e-06
1.56219e-06
1.56022e-06
1.55829e-06
4.60234e-06
4.52437e-06
4.45007e-06
4.37889e-06
4.31034e-06
4.24401e-06
4.1796e-06
4.11689e-06
4.05574e-06
3.99604e-06
3.93771e-06
3.88069e-06
3.82492e-06
3.77032e-06
3.71681e-06
3.66435e-06
3.61288e-06
3.56236e-06
3.51276e-06
3.46404e-06
3.41616e-06
3.36907e-06
3.32273e-06
3.27711e-06
3.23219e-06
3.18793e-06
3.1443e-06
3.10128e-06
3.05884e-06
3.01698e-06
2.97567e-06
2.93489e-06
2.89465e-06
2.85492e-06
2.81569e-06
2.77696e-06
2.7387e-06
2.70091e-06
2.66357e-06
2.62669e-06
2.59026e-06
2.55427e-06
2.51873e-06
2.48363e-06
2.44897e-06
2.41475e-06
2.38098e-06
2.34767e-06
2.3148e-06
2.2824e-06
2.25046e-06
2.21899e-06
2.18801e-06
2.15753e-06
2.12755e-06
2.0981e-06
2.06918e-06
2.04081e-06
2.01303e-06
1.98584e-06
1.95927e-06
1.93333e-06
1.90801e-06
1.88308e-06
1.85801e-06
1.83271e-06
1.80781e-06
1.78384e-06
1.76094e-06
1.73924e-06
1.71885e-06
1.69986e-06
1.68237e-06
1.66643e-06
1.6521e-06
1.63935e-06
1.62817e-06
1.61847e-06
1.61014e-06
1.60306e-06
1.59706e-06
1.59198e-06
1.58767e-06
1.58396e-06
1.58074e-06
1.57787e-06
1.57527e-06
1.57286e-06
1.57058e-06
1.56841e-06
1.5663e-06
1.56425e-06
1.56224e-06
1.56026e-06
1.55832e-06
4.61575e-06
4.537e-06
4.46197e-06
4.39014e-06
4.32104e-06
4.25426e-06
4.18948e-06
4.12646e-06
4.06505e-06
4.00512e-06
3.94657e-06
3.88934e-06
3.83335e-06
3.77853e-06
3.72481e-06
3.67213e-06
3.62047e-06
3.56978e-06
3.51999e-06
3.47106e-06
3.42297e-06
3.37568e-06
3.32915e-06
3.28337e-06
3.23828e-06
3.19387e-06
3.15011e-06
3.10696e-06
3.0644e-06
3.02241e-06
2.98099e-06
2.94011e-06
2.89975e-06
2.85991e-06
2.82056e-06
2.7817e-06
2.74332e-06
2.70541e-06
2.66796e-06
2.63097e-06
2.59444e-06
2.55835e-06
2.52271e-06
2.48752e-06
2.45276e-06
2.41845e-06
2.38459e-06
2.35117e-06
2.3182e-06
2.28568e-06
2.25363e-06
2.22205e-06
2.19097e-06
2.16038e-06
2.1303e-06
2.10075e-06
2.07173e-06
2.04327e-06
2.01539e-06
1.9881e-06
1.96143e-06
1.9354e-06
1.90998e-06
1.885e-06
1.85992e-06
1.83454e-06
1.80953e-06
1.78544e-06
1.76243e-06
1.7406e-06
1.72008e-06
1.70096e-06
1.68334e-06
1.66728e-06
1.65283e-06
1.63997e-06
1.62869e-06
1.6189e-06
1.6105e-06
1.60334e-06
1.59729e-06
1.59217e-06
1.58782e-06
1.58409e-06
1.58084e-06
1.57796e-06
1.57535e-06
1.57293e-06
1.57064e-06
1.56846e-06
1.56635e-06
1.56428e-06
1.56227e-06
1.56029e-06
1.55834e-06
4.62759e-06
4.54815e-06
4.47252e-06
4.40018e-06
4.33065e-06
4.26352e-06
4.19844e-06
4.13514e-06
4.07344e-06
4.0132e-06
3.95434e-06
3.89681e-06
3.84056e-06
3.78551e-06
3.7316e-06
3.67877e-06
3.62697e-06
3.57615e-06
3.52625e-06
3.47721e-06
3.429e-06
3.38159e-06
3.33493e-06
3.28901e-06
3.24379e-06
3.19923e-06
3.15532e-06
3.11203e-06
3.06936e-06
3.02727e-06
2.98575e-06
2.94478e-06
2.90433e-06
2.86439e-06
2.82494e-06
2.78597e-06
2.74748e-06
2.70946e-06
2.6719e-06
2.6348e-06
2.59815e-06
2.56196e-06
2.52622e-06
2.49093e-06
2.45608e-06
2.42168e-06
2.38772e-06
2.35421e-06
2.32115e-06
2.28856e-06
2.25642e-06
2.22477e-06
2.1936e-06
2.16292e-06
2.13275e-06
2.10311e-06
2.074e-06
2.04545e-06
2.01747e-06
1.99009e-06
1.96333e-06
1.9372e-06
1.9117e-06
1.88668e-06
1.86159e-06
1.83615e-06
1.81104e-06
1.78685e-06
1.76372e-06
1.74179e-06
1.72115e-06
1.70192e-06
1.68419e-06
1.66802e-06
1.65346e-06
1.64052e-06
1.62914e-06
1.61927e-06
1.6108e-06
1.6036e-06
1.59749e-06
1.59234e-06
1.58796e-06
1.5842e-06
1.58094e-06
1.57804e-06
1.57541e-06
1.57298e-06
1.57069e-06
1.5685e-06
1.56638e-06
1.56432e-06
1.56229e-06
1.56031e-06
1.55836e-06
4.63773e-06
4.55777e-06
4.48173e-06
4.40904e-06
4.33915e-06
4.27163e-06
4.20616e-06
4.14251e-06
4.08053e-06
4.02008e-06
3.96106e-06
3.9034e-06
3.84701e-06
3.7918e-06
3.73772e-06
3.68472e-06
3.63275e-06
3.58176e-06
3.5317e-06
3.48251e-06
3.43416e-06
3.3866e-06
3.33983e-06
3.29381e-06
3.2485e-06
3.20386e-06
3.15985e-06
3.11646e-06
3.07367e-06
3.03145e-06
2.98981e-06
2.94872e-06
2.90817e-06
2.86813e-06
2.82858e-06
2.78953e-06
2.75096e-06
2.71287e-06
2.67524e-06
2.63808e-06
2.60137e-06
2.56511e-06
2.52928e-06
2.4939e-06
2.45895e-06
2.42446e-06
2.39042e-06
2.35683e-06
2.3237e-06
2.29103e-06
2.25882e-06
2.22709e-06
2.19584e-06
2.16509e-06
2.13484e-06
2.10511e-06
2.07593e-06
2.04731e-06
2.01926e-06
1.99181e-06
1.96497e-06
1.93877e-06
1.9132e-06
1.88815e-06
1.86304e-06
1.83755e-06
1.81236e-06
1.78807e-06
1.76485e-06
1.74282e-06
1.72208e-06
1.70276e-06
1.68493e-06
1.66867e-06
1.65402e-06
1.64099e-06
1.62954e-06
1.6196e-06
1.61107e-06
1.60381e-06
1.59767e-06
1.59248e-06
1.58807e-06
1.5843e-06
1.58102e-06
1.57811e-06
1.57547e-06
1.57303e-06
1.57074e-06
1.56854e-06
1.56642e-06
1.56434e-06
1.56232e-06
1.56033e-06
1.55837e-06
4.64647e-06
4.56608e-06
4.48962e-06
4.41653e-06
4.3463e-06
4.27849e-06
4.21279e-06
4.14893e-06
4.08674e-06
4.02609e-06
3.96689e-06
3.90905e-06
3.85249e-06
3.79712e-06
3.74291e-06
3.68976e-06
3.63763e-06
3.58646e-06
3.53623e-06
3.48691e-06
3.43844e-06
3.3908e-06
3.34393e-06
3.29779e-06
3.25236e-06
3.20762e-06
3.16353e-06
3.12006e-06
3.0772e-06
3.03493e-06
2.99322e-06
2.95205e-06
2.9114e-06
2.87126e-06
2.83162e-06
2.79247e-06
2.75382e-06
2.71565e-06
2.67795e-06
2.64072e-06
2.60394e-06
2.56762e-06
2.53174e-06
2.49631e-06
2.46132e-06
2.42678e-06
2.39269e-06
2.35904e-06
2.32585e-06
2.29311e-06
2.26085e-06
2.22906e-06
2.19774e-06
2.16692e-06
2.13661e-06
2.10682e-06
2.07758e-06
2.04888e-06
2.02077e-06
1.99325e-06
1.96634e-06
1.94008e-06
1.91445e-06
1.88936e-06
1.86424e-06
1.83872e-06
1.81345e-06
1.78909e-06
1.76579e-06
1.74368e-06
1.72287e-06
1.70346e-06
1.68555e-06
1.66922e-06
1.65449e-06
1.64139e-06
1.62987e-06
1.61988e-06
1.6113e-06
1.604e-06
1.59782e-06
1.5926e-06
1.58817e-06
1.58438e-06
1.58109e-06
1.57817e-06
1.57552e-06
1.57308e-06
1.57078e-06
1.56858e-06
1.56645e-06
1.56437e-06
1.56234e-06
1.56035e-06
1.55839e-06
4.6533e-06
4.57249e-06
4.4957e-06
4.42238e-06
4.35196e-06
4.28399e-06
4.21812e-06
4.15413e-06
4.0918e-06
4.03101e-06
3.97165e-06
3.91364e-06
3.85692e-06
3.80144e-06
3.7471e-06
3.69384e-06
3.6416e-06
3.59032e-06
3.53998e-06
3.49052e-06
3.44193e-06
3.39417e-06
3.34719e-06
3.30098e-06
3.25548e-06
3.21066e-06
3.16649e-06
3.12297e-06
3.08004e-06
3.03768e-06
2.99588e-06
2.95463e-06
2.91393e-06
2.87375e-06
2.83407e-06
2.79488e-06
2.75618e-06
2.71795e-06
2.68019e-06
2.6429e-06
2.60605e-06
2.56966e-06
2.53372e-06
2.49823e-06
2.46319e-06
2.4286e-06
2.39446e-06
2.36077e-06
2.32753e-06
2.29474e-06
2.26243e-06
2.23058e-06
2.19922e-06
2.16835e-06
2.138e-06
2.10816e-06
2.07887e-06
2.05013e-06
2.02197e-06
1.99441e-06
1.96746e-06
1.94114e-06
1.91546e-06
1.89034e-06
1.8652e-06
1.83965e-06
1.81433e-06
1.78991e-06
1.76655e-06
1.74438e-06
1.7235e-06
1.70403e-06
1.68606e-06
1.66966e-06
1.65487e-06
1.64171e-06
1.63015e-06
1.62011e-06
1.61149e-06
1.60416e-06
1.59795e-06
1.59271e-06
1.58826e-06
1.58446e-06
1.58115e-06
1.57822e-06
1.57557e-06
1.57312e-06
1.57081e-06
1.56861e-06
1.56648e-06
1.5644e-06
1.56236e-06
1.56037e-06
1.5584e-06
4.65854e-06
4.57742e-06
4.50035e-06
4.42676e-06
4.35616e-06
4.28809e-06
4.22215e-06
4.15807e-06
4.09564e-06
4.03471e-06
3.97519e-06
3.91704e-06
3.86019e-06
3.80459e-06
3.75017e-06
3.69682e-06
3.6445e-06
3.59316e-06
3.54277e-06
3.49327e-06
3.44464e-06
3.39682e-06
3.34975e-06
3.30342e-06
3.25781e-06
3.2129e-06
3.16866e-06
3.12506e-06
3.08208e-06
3.03968e-06
2.99785e-06
2.95656e-06
2.91581e-06
2.87558e-06
2.83586e-06
2.79665e-06
2.75791e-06
2.71966e-06
2.68186e-06
2.64453e-06
2.60766e-06
2.57123e-06
2.53526e-06
2.49973e-06
2.46465e-06
2.43001e-06
2.39583e-06
2.36209e-06
2.3288e-06
2.29598e-06
2.26362e-06
2.23174e-06
2.20034e-06
2.16944e-06
2.13905e-06
2.10918e-06
2.07985e-06
2.05107e-06
2.02287e-06
1.99526e-06
1.96827e-06
1.94192e-06
1.91621e-06
1.89106e-06
1.8659e-06
1.84034e-06
1.815e-06
1.79054e-06
1.76713e-06
1.74491e-06
1.72398e-06
1.70446e-06
1.68644e-06
1.66999e-06
1.65516e-06
1.64196e-06
1.63036e-06
1.62028e-06
1.61163e-06
1.60427e-06
1.59805e-06
1.59279e-06
1.58833e-06
1.58451e-06
1.5812e-06
1.57826e-06
1.57561e-06
1.57315e-06
1.57084e-06
1.56863e-06
1.5665e-06
1.56442e-06
1.56238e-06
1.56038e-06
1.55842e-06
4.66205e-06
4.58072e-06
4.50349e-06
4.42979e-06
4.35908e-06
4.29087e-06
4.22477e-06
4.16053e-06
4.09796e-06
4.03694e-06
3.97739e-06
3.91921e-06
3.86233e-06
3.80668e-06
3.75219e-06
3.69878e-06
3.6464e-06
3.59501e-06
3.54457e-06
3.49503e-06
3.44634e-06
3.39847e-06
3.35138e-06
3.30504e-06
3.25942e-06
3.21448e-06
3.1702e-06
3.12654e-06
3.0835e-06
3.04105e-06
2.99918e-06
2.95786e-06
2.91709e-06
2.87683e-06
2.83708e-06
2.79783e-06
2.75907e-06
2.72078e-06
2.68296e-06
2.64559e-06
2.60868e-06
2.57223e-06
2.53624e-06
2.50069e-06
2.4656e-06
2.43094e-06
2.39673e-06
2.36297e-06
2.32966e-06
2.2968e-06
2.26442e-06
2.23252e-06
2.2011e-06
2.17018e-06
2.13976e-06
2.10986e-06
2.08051e-06
2.0517e-06
2.02347e-06
1.99584e-06
1.96883e-06
1.94245e-06
1.91671e-06
1.89153e-06
1.86637e-06
1.8408e-06
1.81544e-06
1.79095e-06
1.76752e-06
1.74526e-06
1.7243e-06
1.70475e-06
1.6867e-06
1.67022e-06
1.65536e-06
1.64213e-06
1.6305e-06
1.6204e-06
1.61173e-06
1.60436e-06
1.59812e-06
1.59284e-06
1.58838e-06
1.58455e-06
1.58123e-06
1.57829e-06
1.57563e-06
1.57318e-06
1.57087e-06
1.56865e-06
1.56652e-06
1.56443e-06
1.56239e-06
1.56039e-06
1.55843e-06
4.66394e-06
4.58246e-06
4.5051e-06
4.43126e-06
4.36038e-06
4.29202e-06
4.22582e-06
4.16153e-06
4.09896e-06
4.03797e-06
3.97844e-06
3.92027e-06
3.86338e-06
3.8077e-06
3.75318e-06
3.69975e-06
3.64734e-06
3.5959e-06
3.54542e-06
3.49585e-06
3.44716e-06
3.39928e-06
3.35218e-06
3.30581e-06
3.26016e-06
3.21519e-06
3.17089e-06
3.12723e-06
3.08418e-06
3.04171e-06
2.99982e-06
2.9585e-06
2.91771e-06
2.87744e-06
2.83767e-06
2.79839e-06
2.75961e-06
2.72131e-06
2.68348e-06
2.64611e-06
2.6092e-06
2.57274e-06
2.53673e-06
2.50117e-06
2.46605e-06
2.43138e-06
2.39717e-06
2.3634e-06
2.33009e-06
2.29724e-06
2.26485e-06
2.23293e-06
2.2015e-06
2.17056e-06
2.14013e-06
2.11022e-06
2.08085e-06
2.05204e-06
2.02379e-06
1.99615e-06
1.96912e-06
1.94273e-06
1.91698e-06
1.89179e-06
1.86662e-06
1.84105e-06
1.81568e-06