/*--------------------------------*- C++ -*----------------------------------*\
  =========                 |
  \\      /  F ield         | OpenFOAM: The Open Source CFD Toolbox
   \\    /   O peration     | Website:  https://openfoam.org
    \\  /    A nd           | Version:  7
     \\/     M anipulation  |
\*---------------------------------------------------------------------------*/
FoamFile
{
    version     2.0;
    format      ascii;
    class       volVectorField;
    location    "56000";
    object      vorticity;
}
// * * * * * * * * * * * * * * * * * * * * * * * * * * * * * * * * * * * * * //

dimensions      [0 0 -1 0 0 0 0];

internalField   nonuniform List<vector> 
4782
(
(-0.0730741 -0.0550107 2.60409e-17)
(-0.0753416 -0.056713 3.19829e-17)
(-0.077701 -0.0584841 3.08517e-17)
(-0.0801558 -0.0603268 2.62013e-17)
(-0.0827095 -0.0622436 2.22505e-17)
(-0.0853652 -0.0642371 1.83352e-17)
(-0.0881262 -0.0663095 1.3536e-17)
(-0.0909955 -0.0684632 6.74559e-18)
(-0.0939759 -0.0707002 8.86979e-18)
(-0.0970696 -0.0730222 1.6704e-17)
(-0.022546 -0.018187 1.6126e-17)
(-0.0231058 -0.0186357 1.92427e-17)
(-0.0236751 -0.0190921 1.88524e-17)
(-0.0242551 -0.0195569 1.69538e-17)
(-0.0248464 -0.0200309 1.55147e-17)
(-0.0254499 -0.0205147 1.44958e-17)
(-0.0260663 -0.0210088 1.40223e-17)
(-0.0266961 -0.0215136 1.3758e-17)
(-0.0273402 -0.0220297 1.33821e-17)
(-0.0279991 -0.0225577 1.28307e-17)
(-0.028674 -0.0230984 1.1807e-17)
(-0.0293656 -0.0236526 1.0999e-17)
(-0.0300747 -0.0242208 1.08879e-17)
(-0.030802 -0.0248037 1.07332e-17)
(-0.0315482 -0.0254017 1.06576e-17)
(-0.0323141 -0.0260156 1.12788e-17)
(-0.033101 -0.0266461 1.15852e-17)
(-0.03391 -0.0272945 1.1538e-17)
(-0.0347423 -0.0279615 1.11938e-17)
(-0.035599 -0.028648 1.06729e-17)
(-0.0364814 -0.0293551 9.78229e-18)
(-0.0373907 -0.0300836 8.8635e-18)
(-0.038328 -0.0308344 8.59225e-18)
(-0.0392944 -0.0316087 8.2612e-18)
(-0.0402918 -0.0324075 7.64656e-18)
(-0.0413215 -0.0332323 7.27462e-18)
(-0.0423854 -0.0340845 6.88536e-18)
(-0.0434851 -0.0349653 6.89098e-18)
(-0.0446222 -0.0358762 6.88081e-18)
(-0.0457987 -0.0368186 6.62282e-18)
(-0.0470167 -0.0377942 6.84762e-18)
(-0.0482783 -0.0388049 7.12643e-18)
(-0.0495857 -0.0398521 7.31271e-18)
(-0.0509408 -0.0409375 7.61083e-18)
(-0.0523456 -0.0420628 7.95671e-18)
(-0.0538028 -0.0432301 8.38724e-18)
(-0.0553151 -0.0444416 8.63004e-18)
(-0.056885 -0.0456992 8.54826e-18)
(-0.0585153 -0.0470053 8.23912e-18)
(-0.0602092 -0.0483624 7.29348e-18)
(-0.0619699 -0.0497729 6.24971e-18)
(-0.0638003 -0.0512393 5.34931e-18)
(-0.0657034 -0.0527639 4.14948e-18)
(-0.0676824 -0.0543493 3.27238e-18)
(-0.0697404 -0.055998 2.49776e-18)
(-0.071881 -0.0577128 2.16002e-18)
(-0.0741077 -0.0594966 1.63933e-18)
(-0.0764243 -0.0613522 6.29042e-19)
(-0.0788339 -0.0632824 -9.68445e-19)
(-0.0813398 -0.0652896 -3.4264e-18)
(-0.0839452 -0.0673764 -6.43237e-18)
(-0.0866529 -0.0695451 -1.08493e-17)
(-0.0894658 -0.0717981 -1.78624e-17)
(-0.0923866 -0.0741373 -1.82593e-17)
(-0.0954174 -0.0765646 -1.35996e-17)
(-0.0221974 -0.0190531 1.54817e-17)
(-0.022745 -0.0195212 1.64632e-17)
(-0.0233024 -0.0199977 1.49198e-17)
(-0.0238705 -0.0204832 1.21282e-17)
(-0.0244498 -0.0209784 1.04203e-17)
(-0.0250411 -0.0214837 9.56634e-18)
(-0.0256449 -0.0219997 1.00553e-17)
(-0.0262619 -0.0225269 1.15682e-17)
(-0.026893 -0.0230661 1.25911e-17)
(-0.0275392 -0.0236183 1.28973e-17)
(-0.0282013 -0.0241839 1.28e-17)
(-0.0288798 -0.0247635 1.22097e-17)
(-0.0295754 -0.0253577 1.17226e-17)
(-0.030289 -0.0259672 1.16082e-17)
(-0.0310214 -0.0265927 1.20309e-17)
(-0.0317735 -0.0272351 1.2641e-17)
(-0.0325463 -0.0278952 1.32049e-17)
(-0.0333407 -0.0285738 1.36579e-17)
(-0.0341578 -0.0292719 1.37669e-17)
(-0.0349987 -0.0299903 1.35359e-17)
(-0.0358647 -0.0307302 1.30442e-17)
(-0.0367571 -0.0314926 1.25922e-17)
(-0.037677 -0.0322785 1.27316e-17)
(-0.0386256 -0.0330889 1.31846e-17)
(-0.0396046 -0.0339253 1.33372e-17)
(-0.0406156 -0.034789 1.33147e-17)
(-0.04166 -0.0356813 1.25624e-17)
(-0.0427397 -0.0366036 1.11438e-17)
(-0.0438564 -0.0375575 9.8889e-18)
(-0.0450118 -0.0385445 9.18904e-18)
(-0.0462078 -0.0395662 8.36948e-18)
(-0.0474463 -0.0406241 7.15586e-18)
(-0.0487295 -0.0417202 5.91046e-18)
(-0.0500595 -0.0428561 4.78776e-18)
(-0.0514386 -0.0440341 3.79662e-18)
(-0.0528695 -0.0452562 2.71441e-18)
(-0.0543546 -0.0465246 2.02991e-18)
(-0.0558964 -0.0478415 1.41393e-18)
(-0.0574975 -0.049209 7.27664e-19)
(-0.0591609 -0.0506297 -2.2034e-19)
(-0.0608897 -0.0521062 -1.56607e-18)
(-0.0626867 -0.0536408 -2.61783e-18)
(-0.0645547 -0.0552361 -3.79485e-18)
(-0.0664968 -0.0568946 -5.46017e-18)
(-0.0685161 -0.058619 -6.42948e-18)
(-0.0706158 -0.060412 -6.18291e-18)
(-0.0727994 -0.0622766 -5.70132e-18)
(-0.07507 -0.0642155 -5.88079e-18)
(-0.0774311 -0.0662316 -7.13346e-18)
(-0.0798862 -0.0683279 -8.93425e-18)
(-0.0824382 -0.070507 -1.10904e-17)
(-0.08509 -0.0727712 -1.37594e-17)
(-0.087844 -0.0751227 -1.80704e-17)
(-0.0907025 -0.0775635 -1.64579e-17)
(-0.0936674 -0.080095 -1.178e-17)
(-0.021826 -0.0199195 1.07289e-17)
(-0.0223612 -0.0204068 1.17987e-17)
(-0.0229061 -0.0209029 1.07134e-17)
(-0.0234617 -0.0214085 8.47532e-18)
(-0.0240285 -0.0219243 6.73435e-18)
(-0.0246071 -0.0224508 5.84272e-18)
(-0.0251981 -0.0229888 5.85587e-18)
(-0.0258024 -0.0235388 6.69244e-18)
(-0.0264207 -0.0241017 7.8024e-18)
(-0.0270536 -0.0246778 8.75739e-18)
(-0.0277016 -0.0252677 9.93039e-18)
(-0.0283655 -0.025872 1.14513e-17)
(-0.0290463 -0.0264915 1.26854e-17)
(-0.029745 -0.0271273 1.35696e-17)
(-0.0304626 -0.0277804 1.45991e-17)
(-0.0312 -0.0284514 1.52744e-17)
(-0.0319576 -0.0291408 1.599e-17)
(-0.0327363 -0.0298495 1.6967e-17)
(-0.0335374 -0.0305786 1.79372e-17)
(-0.0343621 -0.0313292 1.91468e-17)
(-0.0352116 -0.0321024 2.01955e-17)
(-0.036087 -0.0328991 2.08321e-17)
(-0.0369892 -0.0337203 2.1442e-17)
(-0.0379195 -0.0345672 2.22623e-17)
(-0.0388797 -0.0354412 2.33466e-17)
(-0.0398711 -0.0363437 2.41012e-17)
(-0.0408953 -0.0372761 2.4266e-17)
(-0.041954 -0.0382399 2.46544e-17)
(-0.0430487 -0.0392366 2.46307e-17)
(-0.0441816 -0.0402679 2.43998e-17)
(-0.0453544 -0.0413355 2.42213e-17)
(-0.0465689 -0.0424411 2.37169e-17)
(-0.0478273 -0.0435866 2.30466e-17)
(-0.0491316 -0.0447738 2.25443e-17)
(-0.050484 -0.0460048 2.16573e-17)
(-0.0518869 -0.0472817 2.0694e-17)
(-0.0533427 -0.0486067 1.98139e-17)
(-0.0548539 -0.049982 1.90312e-17)
(-0.0564231 -0.0514102 1.84318e-17)
(-0.0580528 -0.0528934 1.75338e-17)
(-0.0597459 -0.0544342 1.63059e-17)
(-0.0615056 -0.0560354 1.54523e-17)
(-0.0633347 -0.0576997 1.5155e-17)
(-0.0652363 -0.0594299 1.476e-17)
(-0.0672134 -0.0612288 1.49098e-17)
(-0.0692693 -0.0630993 1.51408e-17)
(-0.0714069 -0.0650441 1.54869e-17)
(-0.0736295 -0.0670663 1.54177e-17)
(-0.0759403 -0.0691687 1.45869e-17)
(-0.0783424 -0.0713542 1.32255e-17)
(-0.0808387 -0.0736253 1.08973e-17)
(-0.0834317 -0.0759844 7.36368e-18)
(-0.0861237 -0.0784335 2.60012e-18)
(-0.0889164 -0.0809742 3.5319e-18)
(-0.0918118 -0.0836083 7.36811e-18)
(-0.0220572 -0.0201572 1.71818e-17)
(-0.0225793 -0.0206623 1.94978e-17)
(-0.0231112 -0.021177 2.01598e-17)
(-0.0236538 -0.0217021 2.00164e-17)
(-0.0242079 -0.0222385 2.00915e-17)
(-0.0247739 -0.0227865 1.95884e-17)
(-0.0253522 -0.0233465 1.8936e-17)
(-0.0259434 -0.0239191 1.88639e-17)
(-0.0265482 -0.0245049 1.85914e-17)
(-0.0271671 -0.0251045 1.86337e-17)
(-0.0278008 -0.0257185 1.94237e-17)
(-0.02845 -0.0263478 2.0156e-17)
(-0.0291161 -0.0269934 2.04672e-17)
(-0.0297998 -0.0276562 2.04745e-17)
(-0.030502 -0.0283368 2.01135e-17)
(-0.0312232 -0.0290359 1.94346e-17)
(-0.0319644 -0.0297543 1.87861e-17)
(-0.0327266 -0.0304931 1.86089e-17)
(-0.0335109 -0.0312533 1.89168e-17)
(-0.0343183 -0.0320358 1.95021e-17)
(-0.0351498 -0.0328417 1.9832e-17)
(-0.0360066 -0.033672 1.97062e-17)
(-0.0368898 -0.0345279 1.94835e-17)
(-0.037801 -0.0354108 1.90968e-17)
(-0.0387416 -0.0363222 1.89744e-17)
(-0.0397129 -0.0372634 1.90374e-17)
(-0.0407166 -0.0382358 1.91555e-17)
(-0.0417541 -0.0392411 1.87834e-17)
(-0.042827 -0.0402805 1.8827e-17)
(-0.0439368 -0.0413557 1.90709e-17)
(-0.0450852 -0.0424684 1.90587e-17)
(-0.0462744 -0.0436205 1.91394e-17)
(-0.0475065 -0.0448141 1.91519e-17)
(-0.0487835 -0.0460514 1.9376e-17)
(-0.0501077 -0.0473342 2.00814e-17)
(-0.0514812 -0.0486649 2.03737e-17)
(-0.0529065 -0.0500457 2.02781e-17)
(-0.0543862 -0.0514792 2.08442e-17)
(-0.0559225 -0.0529675 2.13364e-17)
(-0.0575178 -0.0545129 2.16584e-17)
(-0.0591749 -0.0561182 2.19811e-17)
(-0.0608967 -0.0577862 2.20874e-17)
(-0.0626863 -0.0595199 2.1881e-17)
(-0.0645466 -0.0613221 2.15717e-17)
(-0.0664805 -0.0631957 2.0908e-17)
(-0.0684908 -0.0651435 2.02114e-17)
(-0.0705804 -0.0671683 1.98295e-17)
(-0.0727525 -0.0692731 1.98979e-17)
(-0.07501 -0.0714608 1.97799e-17)
(-0.0773557 -0.0737343 1.91878e-17)
(-0.0797922 -0.076096 1.81274e-17)
(-0.0823221 -0.0785484 1.56172e-17)
(-0.0849475 -0.0810936 1.08834e-17)
(-0.0876702 -0.0837336 9.41836e-18)
(-0.0904916 -0.0864698 1.00298e-17)
(-0.0201577 -0.0220576 1.08539e-17)
(-0.0206625 -0.0225795 1.24223e-17)
(-0.0211772 -0.0231115 1.25674e-17)
(-0.0217025 -0.0236542 1.20724e-17)
(-0.0222387 -0.024208 1.19746e-17)
(-0.0227863 -0.0247734 1.21826e-17)
(-0.0233461 -0.0253512 1.24619e-17)
(-0.0239186 -0.025942 1.23417e-17)
(-0.0245045 -0.0265466 1.23392e-17)
(-0.0251045 -0.0271657 1.2837e-17)
(-0.0257191 -0.0278001 1.38356e-17)
(-0.0263489 -0.0284501 1.45316e-17)
(-0.0269946 -0.0291166 1.4388e-17)
(-0.027657 -0.0298004 1.37444e-17)
(-0.0283372 -0.0305025 1.29011e-17)
(-0.029036 -0.0312238 1.20723e-17)
(-0.0297543 -0.0319653 1.10878e-17)
(-0.030493 -0.0327276 1.00596e-17)
(-0.031253 -0.0335119 9.24856e-18)
(-0.0320353 -0.0343192 8.58848e-18)
(-0.0328409 -0.0351506 7.64026e-18)
(-0.0336711 -0.0360074 6.84232e-18)
(-0.034527 -0.0368907 6.17612e-18)
(-0.03541 -0.037802 4.8178e-18)
(-0.0363212 -0.0387425 3.50797e-18)
(-0.0372622 -0.0397137 2.3447e-18)
(-0.0382343 -0.040717 1.26486e-18)
(-0.0392391 -0.0417542 6.04684e-20)
(-0.0402784 -0.042827 -8.19921e-19)
(-0.0413538 -0.0439372 -1.81778e-18)
(-0.0424671 -0.0450866 -2.35926e-18)
(-0.04362 -0.046277 -2.18528e-18)
(-0.0448142 -0.0475103 -1.84222e-18)
(-0.046052 -0.0487886 -1.59973e-18)
(-0.0473352 -0.050114 -1.30973e-18)
(-0.0486661 -0.0514886 -1.64842e-18)
(-0.0500468 -0.0529146 -2.8068e-18)
(-0.0514796 -0.0543945 -3.6622e-18)
(-0.0529672 -0.0559309 -4.06748e-18)
(-0.0545121 -0.0575264 -4.37742e-18)
(-0.0561169 -0.0591838 -4.50453e-18)
(-0.0577845 -0.0609059 -4.64614e-18)
(-0.0595177 -0.0626957 -5.34846e-18)
(-0.0613194 -0.0645561 -6.80348e-18)
(-0.0631925 -0.0664901 -8.74731e-18)
(-0.0651399 -0.0685005 -1.03286e-17)
(-0.0671643 -0.0705904 -1.12351e-17)
(-0.0692688 -0.0727628 -1.1708e-17)
(-0.0714561 -0.0750203 -1.18791e-17)
(-0.0737289 -0.0773659 -1.24443e-17)
(-0.0760901 -0.0798023 -1.34332e-17)
(-0.0785421 -0.0823322 -1.55824e-17)
(-0.081087 -0.0849574 -1.93041e-17)
(-0.0837266 -0.0876799 -2.18695e-17)
(-0.0864623 -0.090501 -2.36698e-17)
(-0.019922 -0.0218278 1.22886e-17)
(-0.0204082 -0.0223619 1.25991e-17)
(-0.0209033 -0.0229058 1.15775e-17)
(-0.0214082 -0.0234604 1.02502e-17)
(-0.0219236 -0.0240266 9.72351e-18)
(-0.0224499 -0.0246049 9.74715e-18)
(-0.022988 -0.0251961 9.93885e-18)
(-0.0235383 -0.0258008 1.08579e-17)
(-0.0241013 -0.0264197 1.20262e-17)
(-0.0246777 -0.0270532 1.28995e-17)
(-0.0252682 -0.0277022 1.37222e-17)
(-0.0258733 -0.0283674 1.42845e-17)
(-0.0264936 -0.0290493 1.42431e-17)
(-0.0271298 -0.0297487 1.41312e-17)
(-0.0277827 -0.0304664 1.4289e-17)
(-0.028453 -0.0312032 1.40983e-17)
(-0.0291419 -0.0319604 1.41504e-17)
(-0.0298503 -0.032739 1.4459e-17)
(-0.0305792 -0.0335401 1.46374e-17)
(-0.0313296 -0.0343648 1.47315e-17)
(-0.0321023 -0.0352141 1.46654e-17)
(-0.0328986 -0.0360892 1.47447e-17)
(-0.0337195 -0.0369914 1.48412e-17)
(-0.0345662 -0.037922 1.52284e-17)
(-0.0354401 -0.0388823 1.55971e-17)
(-0.0363425 -0.0398741 1.62977e-17)
(-0.0372751 -0.040899 1.72221e-17)
(-0.038239 -0.0419584 1.82556e-17)
(-0.0392359 -0.0430542 1.83727e-17)
(-0.0402674 -0.0441879 1.79908e-17)
(-0.0413354 -0.0453617 1.7747e-17)
(-0.0424416 -0.0465775 1.77301e-17)
(-0.0435875 -0.047837 1.78308e-17)
(-0.0447751 -0.0491421 1.78553e-17)
(-0.0460062 -0.0504952 1.70813e-17)
(-0.0472831 -0.0518984 1.54228e-17)
(-0.048608 -0.0533544 1.35306e-17)
(-0.0499834 -0.0548658 1.23059e-17)
(-0.0514115 -0.0564352 1.10723e-17)
(-0.0528946 -0.0580651 9.3759e-18)
(-0.0544353 -0.0597582 8.28163e-18)
(-0.0560362 -0.0615176 7.40902e-18)
(-0.0577001 -0.0633463 6.63763e-18)
(-0.05943 -0.0652474 5.4348e-18)
(-0.0612288 -0.0672243 4.82824e-18)
(-0.0630994 -0.0692801 4.46578e-18)
(-0.0650446 -0.071418 3.68723e-18)
(-0.0670671 -0.0736407 2.80083e-18)
(-0.0691695 -0.0759513 1.92745e-18)
(-0.0713546 -0.0783528 1.14548e-18)
(-0.0736251 -0.0808482 4.70319e-19)
(-0.0759834 -0.0834402 1.40024e-19)
(-0.0784315 -0.0861309 3.63611e-19)
(-0.0809716 -0.0889227 1.10407e-18)
(-0.0836053 -0.0918174 1.73008e-18)
(-0.0863337 -0.0948163 1.42575e-18)
(-0.0891573 -0.0979199 4.04758e-19)
(-0.0920759 -0.101128 -1.25688e-18)
(-0.095089 -0.10444 -4.04981e-18)
(-0.0190546 -0.0221999 1.19011e-17)
(-0.0195221 -0.0227468 1.32021e-17)
(-0.0199978 -0.0233033 1.29801e-17)
(-0.0204827 -0.0238706 1.21212e-17)
(-0.0209776 -0.0244497 1.18027e-17)
(-0.0214828 -0.0250411 1.20383e-17)
(-0.021999 -0.0256453 1.25859e-17)
(-0.0225266 -0.026263 1.28546e-17)
(-0.0230664 -0.026895 1.31099e-17)
(-0.0236188 -0.027542 1.31928e-17)
(-0.0241846 -0.0282046 1.31497e-17)
(-0.0247644 -0.0288836 1.32109e-17)
(-0.0253588 -0.0295795 1.34453e-17)
(-0.0259684 -0.0302931 1.40223e-17)
(-0.0265939 -0.0310252 1.48275e-17)
(-0.0272362 -0.031777 1.58104e-17)
(-0.0278962 -0.0325497 1.69691e-17)
(-0.0285749 -0.0333443 1.78928e-17)
(-0.0292731 -0.0341618 1.8555e-17)
(-0.0299917 -0.0350032 1.8886e-17)
(-0.0307316 -0.0358695 1.90706e-17)
(-0.0314938 -0.036762 1.93154e-17)
(-0.0322798 -0.0376822 1.99455e-17)
(-0.0330904 -0.0386314 2.09837e-17)
(-0.033927 -0.0396109 2.212e-17)
(-0.0347909 -0.0406227 2.31436e-17)
(-0.0356837 -0.0416681 2.3381e-17)
(-0.0366063 -0.0427486 2.25012e-17)
(-0.0375603 -0.0438658 2.13855e-17)
(-0.0385473 -0.0450215 2.11144e-17)
(-0.039569 -0.0462179 2.0565e-17)
(-0.0406272 -0.0474571 1.90581e-17)
(-0.0417237 -0.0487409 1.72335e-17)
(-0.0428602 -0.0500716 1.61333e-17)
(-0.0440386 -0.0514512 1.47819e-17)
(-0.0452607 -0.052882 1.29802e-17)
(-0.0465288 -0.0543666 1.1763e-17)
(-0.0478452 -0.0559078 1.11457e-17)
(-0.0492123 -0.0575085 1.05706e-17)
(-0.0506325 -0.0591712 1.01334e-17)
(-0.0521081 -0.060899 1.00232e-17)
(-0.0536419 -0.0626948 9.7805e-18)
(-0.0552362 -0.0645615 9.57356e-18)
(-0.0568936 -0.0665023 8.99788e-18)
(-0.0586173 -0.0685205 8.92394e-18)
(-0.0604099 -0.0706195 9.54597e-18)
(-0.0622743 -0.0728026 9.1763e-18)
(-0.0642133 -0.0750729 9.10316e-18)
(-0.0662297 -0.0774339 8.99298e-18)
(-0.0683261 -0.0798887 8.78371e-18)
(-0.0705051 -0.0824401 8.94887e-18)
(-0.0727691 -0.0850911 9.50163e-18)
(-0.0751204 -0.0878444 1.05076e-17)
(-0.0775608 -0.0907023 1.0897e-17)
(-0.0800922 -0.0936668 1.03276e-17)
(-0.0827158 -0.0967394 9.98453e-18)
(-0.0854321 -0.0999207 8.74364e-18)
(-0.0882411 -0.103211 5.79797e-18)
(-0.0911422 -0.106609 3.5516e-18)
(-0.0941348 -0.110114 1.3472e-18)
(-0.018188 -0.0225501 -1.61896e-18)
(-0.0186361 -0.0231091 1.84465e-19)
(-0.0190915 -0.0236771 5.11467e-19)
(-0.0195554 -0.0242559 1.68234e-19)
(-0.0200289 -0.0248467 1.71599e-19)
(-0.0205127 -0.0254502 8.11681e-19)
(-0.0210072 -0.0260672 1.697e-18)
(-0.0215127 -0.0266982 2.57624e-18)
(-0.0220296 -0.0273433 3.86332e-18)
(-0.0225583 -0.0280031 5.52159e-18)
(-0.0230993 -0.0286783 6.42497e-18)
(-0.0236534 -0.0293697 7.4652e-18)
(-0.0242212 -0.0300781 8.69377e-18)
(-0.0248036 -0.0308048 9.60411e-18)
(-0.0254015 -0.031551 1.05633e-17)
(-0.0260158 -0.0323175 1.17742e-17)
(-0.026647 -0.0331053 1.30133e-17)
(-0.0272958 -0.0339151 1.38718e-17)
(-0.027963 -0.0347479 1.42623e-17)
(-0.0286497 -0.0356048 1.43456e-17)
(-0.0293566 -0.0364871 1.42321e-17)
(-0.030085 -0.037396 1.41299e-17)
(-0.0308359 -0.0383331 1.4158e-17)
(-0.0316107 -0.0393 1.41069e-17)
(-0.0324102 -0.0402979 1.38906e-17)
(-0.0332358 -0.0413283 1.36301e-17)
(-0.0340885 -0.0423927 1.31721e-17)
(-0.0349697 -0.0434927 1.30842e-17)
(-0.0358811 -0.0446304 1.35809e-17)
(-0.0368241 -0.0458075 1.42663e-17)
(-0.0378 -0.0470258 1.44702e-17)
(-0.0388104 -0.0482871 1.44135e-17)
(-0.0398571 -0.0495937 1.46751e-17)
(-0.0409421 -0.0509481 1.50122e-17)
(-0.0420674 -0.0523528 1.49294e-17)
(-0.0432349 -0.0538102 1.47138e-17)
(-0.0444465 -0.0553226 1.49661e-17)
(-0.0457044 -0.056893 1.49634e-17)
(-0.0470108 -0.0585239 1.41813e-17)
(-0.048368 -0.0602181 1.30861e-17)
(-0.0497781 -0.0619783 1.23965e-17)
(-0.0512437 -0.0638078 1.17401e-17)
(-0.0527675 -0.0657099 1.04089e-17)
(-0.054352 -0.0676879 9.57922e-18)
(-0.056 -0.0697451 8.48716e-18)
(-0.057714 -0.0718848 7.73611e-18)
(-0.0594968 -0.0741104 7.40821e-18)
(-0.0613514 -0.0764257 6.88312e-18)
(-0.0632806 -0.0788341 6.35603e-18)
(-0.0652871 -0.081339 5.86576e-18)
(-0.0673735 -0.0839437 5.92442e-18)
(-0.0695422 -0.0866513 6.39086e-18)
(-0.0717953 -0.0894643 6.10774e-18)
(-0.0741348 -0.0923853 5.39597e-18)
(-0.0765624 -0.0954164 4.72341e-18)
(-0.0790794 -0.0985591 3.35258e-18)
(-0.0816865 -0.101814 1.57824e-18)
(-0.0843838 -0.105183 -5.19699e-19)
(-0.0871711 -0.108663 -2.22343e-18)
(-0.0900473 -0.112255 -3.46063e-18)
(-0.0930129 -0.115958 -4.86674e-18)
(-0.0960792 -0.119787 -5.17095e-18)
(-0.0993254 -0.123841 -5.15133e-18)
(-0.102822 -0.128208 -5.36914e-18)
(-0.106497 -0.132797 -5.62559e-18)
(-0.110261 -0.137498 -6.02256e-18)
(-0.114083 -0.142272 -6.46142e-18)
(-0.117934 -0.147081 -6.99964e-18)
(-0.121778 -0.151882 -7.64689e-18)
(-0.125576 -0.156627 -7.82397e-18)
(-0.129286 -0.161261 -8.19342e-18)
(-0.132864 -0.165731 -9.89785e-18)
(-0.136268 -0.169983 -1.15708e-17)
(-0.139458 -0.173971 -1.23908e-17)
(-0.142406 -0.177654 -1.32298e-17)
(-0.145087 -0.181005 -1.3828e-17)
(-0.147493 -0.184013 -1.3772e-17)
(-0.149623 -0.186676 -1.20813e-17)
(-0.151489 -0.18901 -9.48607e-18)
(-0.153111 -0.19104 -5.4964e-18)
(-0.154516 -0.192799 5.93912e-19)
(-0.155735 -0.194325 9.08597e-18)
(-0.156798 -0.195657 2.01098e-17)
(-0.157735 -0.196832 3.27486e-17)
(-0.158575 -0.197884 4.73341e-17)
(-0.15934 -0.198844 6.3897e-17)
(-0.16005 -0.199735 8.10742e-17)
(-0.16072 -0.200577 9.73897e-17)
(-0.161363 -0.201384 1.10137e-16)
(-0.161986 -0.202166 1.15486e-16)
(-0.162594 -0.20293 1.08827e-16)
(-0.163193 -0.203682 8.60282e-17)
(-0.163783 -0.204423 4.01726e-17)
(-0.164365 -0.205155 -1.07239e-16)
(-0.164941 -0.205878 -1.67838e-16)
(-0.0173222 -0.0228783 3.11572e-18)
(-0.0177511 -0.0234491 5.01272e-18)
(-0.0181866 -0.024029 4.99004e-18)
(-0.01863 -0.0246195 3.95889e-18)
(-0.0190821 -0.0252217 3.39437e-18)
(-0.0195435 -0.0258363 3.4386e-18)
(-0.0200152 -0.0264645 3.71775e-18)
(-0.0204974 -0.0271067 4.31747e-18)
(-0.0209906 -0.0277634 4.65301e-18)
(-0.021495 -0.028435 4.73345e-18)
(-0.0220113 -0.0291223 4.24214e-18)
(-0.0225401 -0.0298262 3.61084e-18)
(-0.0230821 -0.0305479 3.24099e-18)
(-0.023638 -0.0312881 2.82649e-18)
(-0.0242085 -0.0320477 2.2485e-18)
(-0.0247943 -0.0328279 1.50376e-18)
(-0.0253962 -0.0336294 6.61889e-19)
(-0.0260148 -0.0344532 -6.83719e-20)
(-0.0266509 -0.0353002 -8.99375e-19)
(-0.0273053 -0.0361715 -1.90318e-18)
(-0.027979 -0.0370686 -2.59772e-18)
(-0.0286731 -0.0379928 -2.83497e-18)
(-0.0293888 -0.0389458 -3.18898e-18)
(-0.0301272 -0.0399292 -3.76251e-18)
(-0.0308894 -0.0409442 -4.27562e-18)
(-0.0316765 -0.0419923 -4.65968e-18)
(-0.0324895 -0.043075 -4.46467e-18)
(-0.0333298 -0.044194 -3.16692e-18)
(-0.0341985 -0.0453509 -1.52154e-18)
(-0.0350972 -0.0465476 7.33554e-20)
(-0.0360274 -0.0477863 1.91997e-18)
(-0.0369908 -0.0490692 3.97605e-18)
(-0.0379889 -0.0503984 6.57737e-18)
(-0.0390233 -0.0517761 9.10082e-18)
(-0.0400959 -0.0532047 1.19204e-17)
(-0.0412087 -0.0546868 1.46221e-17)
(-0.0423634 -0.056225 1.66418e-17)
(-0.0435621 -0.0578216 1.81685e-17)
(-0.0448068 -0.0594796 1.87429e-17)
(-0.0460999 -0.061202 1.96736e-17)
(-0.0474439 -0.0629922 2.05834e-17)
(-0.0488412 -0.0648536 2.12962e-17)
(-0.0502945 -0.0667894 2.17145e-17)
(-0.0518061 -0.068803 2.16333e-17)
(-0.0533784 -0.0708975 2.13224e-17)
(-0.0550141 -0.0730764 2.02911e-17)
(-0.0567158 -0.0753434 1.98574e-17)
(-0.0584862 -0.0777019 2.06408e-17)
(-0.060328 -0.0801556 2.19745e-17)
(-0.0622439 -0.0827082 2.35454e-17)
(-0.0642365 -0.0853631 2.47225e-17)
(-0.0663084 -0.0881237 2.56291e-17)
(-0.0684617 -0.0909928 2.69958e-17)
(-0.0706983 -0.093973 2.83155e-17)
(-0.0730199 -0.0970666 2.87514e-17)
(-0.0754279 -0.100275 2.91001e-17)
(-0.0779232 -0.1036 2.87999e-17)
(-0.0805061 -0.107042 2.78982e-17)
(-0.0831763 -0.1106 2.76581e-17)
(-0.0859331 -0.114274 2.73429e-17)
(-0.0887767 -0.118063 2.69609e-17)
(-0.091716 -0.12198 2.59939e-17)
(-0.094815 -0.126112 2.45203e-17)
(-0.0981442 -0.13055 2.36902e-17)
(-0.10166 -0.135235 2.30836e-17)
(-0.105278 -0.140056 2.19083e-17)
(-0.108959 -0.144961 2.00497e-17)
(-0.112672 -0.14991 1.77526e-17)
(-0.116384 -0.154858 1.46003e-17)
(-0.120059 -0.159756 1.02694e-17)
(-0.123654 -0.164548 4.9392e-18)
(-0.127127 -0.169178 -4.60645e-19)
(-0.130436 -0.173591 -5.20399e-18)
(-0.133545 -0.177736 -9.50267e-18)
(-0.13642 -0.18157 -1.41148e-17)
(-0.139039 -0.185065 -1.95171e-17)
(-0.141391 -0.188204 -2.51685e-17)
(-0.143476 -0.190986 -3.05259e-17)
(-0.145303 -0.193425 -3.39019e-17)
(-0.14689 -0.195546 -3.53542e-17)
(-0.148265 -0.197383 -3.58434e-17)
(-0.149455 -0.198974 -3.47107e-17)
(-0.150493 -0.200362 -3.0801e-17)
(-0.151406 -0.201584 -2.43473e-17)
(-0.152222 -0.202678 -1.55699e-17)
(-0.152964 -0.203673 -5.6686e-18)
(-0.153653 -0.204595 5.08826e-18)
(-0.154302 -0.205466 1.62224e-17)
(-0.154923 -0.2063 2.40738e-17)
(-0.155525 -0.207108 2.63186e-17)
(-0.156113 -0.207897 1.98923e-17)
(-0.156691 -0.208673 -9.56391e-19)
(-0.157261 -0.209438 -4.34048e-17)
(-0.157824 -0.210193 -1.91048e-16)
(-0.15838 -0.21094 -2.45797e-16)
(-0.0164565 -0.0231856 -3.29144e-19)
(-0.0168661 -0.0237681 9.95377e-19)
(-0.0172815 -0.0243592 6.80903e-19)
(-0.0177043 -0.0249605 1.89446e-19)
(-0.0181351 -0.0255735 3.78574e-19)
(-0.0185748 -0.0261991 5.65777e-19)
(-0.0190239 -0.0268381 1.11839e-18)
(-0.0194829 -0.0274912 1.40376e-18)
(-0.0199522 -0.0281587 1.79321e-18)
(-0.0204321 -0.0288414 1.81056e-18)
(-0.0209232 -0.02954 1.39736e-18)
(-0.0214263 -0.0302557 1.07911e-18)
(-0.021942 -0.0309894 4.73821e-19)
(-0.0224709 -0.0317418 -6.38995e-19)
(-0.0230137 -0.032514 -1.86577e-18)
(-0.0235712 -0.033307 -2.72479e-18)
(-0.0241437 -0.0341214 -3.81616e-18)
(-0.024732 -0.0349581 -5.1456e-18)
(-0.0253369 -0.0358185 -6.41637e-18)
(-0.0259592 -0.0367039 -7.60966e-18)
(-0.0266 -0.0376155 -8.72899e-18)
(-0.0272602 -0.0385549 -9.70403e-18)
(-0.0279409 -0.0395233 -1.05091e-17)
(-0.0286429 -0.0405222 -1.11224e-17)
(-0.0293674 -0.041553 -1.15342e-17)
(-0.0301153 -0.042617 -1.20494e-17)
(-0.0308878 -0.0437159 -1.24588e-17)
(-0.0316862 -0.0448517 -1.26943e-17)
(-0.0325119 -0.0460261 -1.23558e-17)
(-0.0333662 -0.0472412 -1.18398e-17)
(-0.0342504 -0.048499 -1.19618e-17)
(-0.0351662 -0.0498017 -1.2464e-17)
(-0.0361151 -0.0511516 -1.27646e-17)
(-0.0370989 -0.052551 -1.25475e-17)
(-0.0381191 -0.0540024 -1.23727e-17)
(-0.0391777 -0.0555083 -1.21254e-17)
(-0.0402762 -0.0570712 -1.13812e-17)
(-0.0414166 -0.0586937 -9.89604e-18)
(-0.0426009 -0.0603786 -7.91128e-18)
(-0.0438311 -0.062129 -5.97834e-18)
(-0.0451096 -0.0639483 -3.86132e-18)
(-0.0464389 -0.0658399 -2.17771e-18)
(-0.0478213 -0.0678071 -8.39558e-19)
(-0.0492593 -0.0698536 5.98108e-19)
(-0.0507552 -0.0719825 1.94731e-18)
(-0.0523117 -0.0741976 3.16469e-18)
(-0.0539313 -0.0765028 3.94785e-18)
(-0.0556169 -0.078902 4.52903e-18)
(-0.0573711 -0.081399 5.65692e-18)
(-0.0591964 -0.0839973 6.74605e-18)
(-0.0610953 -0.0867006 7.09773e-18)
(-0.0630702 -0.0895121 7.62434e-18)
(-0.0651232 -0.092435 8.20789e-18)
(-0.0672562 -0.0954717 8.69986e-18)
(-0.0694708 -0.0986246 9.05134e-18)
(-0.0717683 -0.101896 9.07876e-18)
(-0.0741499 -0.105287 9.36835e-18)
(-0.0766161 -0.108798 9.9846e-18)
(-0.0791668 -0.11243 1.01542e-17)
(-0.0818016 -0.116181 1.02973e-17)
(-0.0845205 -0.120052 9.75727e-18)
(-0.0873303 -0.124053 8.56429e-18)
(-0.0902813 -0.128256 7.81201e-18)
(-0.093443 -0.132758 6.88017e-18)
(-0.0967967 -0.137532 6.26874e-18)
(-0.100264 -0.142469 6.18953e-18)
(-0.103797 -0.147499 5.32371e-18)
(-0.107366 -0.152581 4.23183e-18)
(-0.11094 -0.15767 3.42613e-18)
(-0.114482 -0.162715 2.58754e-18)
(-0.117954 -0.16766 2.44281e-18)
(-0.121314 -0.172446 2.58712e-18)
(-0.124521 -0.177015 2.04826e-18)
(-0.127538 -0.181313 1.36235e-18)
(-0.130333 -0.185296 1.31947e-18)
(-0.132883 -0.188931 1.53571e-18)
(-0.135175 -0.192199 1.2756e-18)
(-0.137208 -0.195099 1.00008e-18)
(-0.13899 -0.197641 2.99758e-18)
(-0.140539 -0.199853 6.81121e-18)
(-0.141879 -0.201767 1.14662e-17)
(-0.143038 -0.203424 1.91164e-17)
(-0.144047 -0.204867 2.92407e-17)
(-0.144934 -0.206136 4.10842e-17)
(-0.145725 -0.207269 5.53527e-17)
(-0.146443 -0.208298 7.27588e-17)
(-0.147108 -0.209252 9.08895e-17)
(-0.147734 -0.210151 1.07697e-16)
(-0.148334 -0.211011 1.22704e-16)
(-0.148914 -0.211843 1.32291e-16)
(-0.149481 -0.212657 1.3243e-16)
(-0.150037 -0.213457 1.17842e-16)
(-0.150586 -0.214245 8.02857e-17)
(-0.151128 -0.215023 -5.45554e-17)
(-0.151664 -0.215792 -1.03067e-16)
(-0.015592 -0.0234723 -6.48428e-18)
(-0.0159821 -0.0240659 -6.79965e-18)
(-0.0163774 -0.0246676 -8.24767e-18)
(-0.0167792 -0.0252793 -9.71575e-18)
(-0.0171886 -0.0259026 -1.07371e-17)
(-0.0176062 -0.0265384 -1.10124e-17)
(-0.0180324 -0.0271874 -1.1138e-17)
(-0.0184679 -0.0278504 -1.12048e-17)
(-0.0189133 -0.0285284 -1.07119e-17)
(-0.019369 -0.0292223 -1.01522e-17)
(-0.0198357 -0.0299326 -9.56515e-18)
(-0.0203135 -0.0306599 -9.08093e-18)
(-0.0208029 -0.0314049 -9.02475e-18)
(-0.0213045 -0.0321684 -8.90579e-18)
(-0.021819 -0.0329516 -8.22601e-18)
(-0.0223474 -0.0337559 -7.65186e-18)
(-0.0228905 -0.0345824 -6.97525e-18)
(-0.0234489 -0.0354322 -5.89362e-18)
(-0.0240231 -0.036306 -4.98452e-18)
(-0.0246137 -0.0372049 -3.9756e-18)
(-0.0252216 -0.0381302 -2.79396e-18)
(-0.0258478 -0.0390832 -1.60947e-18)
(-0.0264931 -0.0400655 -4.26746e-19)
(-0.0271586 -0.0410785 4.7412e-19)
(-0.0278452 -0.0421236 1.45083e-18)
(-0.0285539 -0.0432025 2.28117e-18)
(-0.0292861 -0.044317 2.9554e-18)
(-0.0300428 -0.045469 3.67423e-18)
(-0.0308255 -0.0466606 3.96848e-18)
(-0.0316353 -0.0478935 3.30418e-18)
(-0.0324735 -0.0491696 2.57682e-18)
(-0.0333416 -0.0504911 1.94555e-18)
(-0.034241 -0.0518603 1.07307e-18)
(-0.0351733 -0.0532795 -9.63707e-21)
(-0.0361402 -0.0547513 -1.43194e-18)
(-0.0371435 -0.0562784 -2.77301e-18)
(-0.0381849 -0.0578635 -3.64749e-18)
(-0.0392663 -0.0595095 -4.5445e-18)
(-0.0403895 -0.0612192 -5.31533e-18)
(-0.0415566 -0.0629958 -5.56956e-18)
(-0.0427697 -0.0648425 -5.22325e-18)
(-0.044031 -0.0667626 -5.06732e-18)
(-0.0453429 -0.0687599 -5.22497e-18)
(-0.0467077 -0.0708379 -4.56993e-18)
(-0.0481277 -0.0730002 -3.71863e-18)
(-0.0496056 -0.0752507 -2.75926e-18)
(-0.0511438 -0.0775933 -1.24976e-18)
(-0.0527448 -0.0800317 -2.93628e-19)
(-0.0544111 -0.0825697 2.33598e-19)
(-0.0561452 -0.0852109 5.32977e-19)
(-0.0579494 -0.0879591 9.98973e-19)
(-0.0598261 -0.0908178 1.10702e-18)
(-0.0617775 -0.0937903 1.13387e-18)
(-0.0638055 -0.0968795 1.44609e-18)
(-0.065912 -0.100088 1.56362e-18)
(-0.0680984 -0.103419 1.63638e-18)
(-0.0703655 -0.106872 2.1805e-18)
(-0.0727139 -0.11045 3.05484e-18)
(-0.0751436 -0.114151 3.72153e-18)
(-0.0776543 -0.117976 3.74886e-18)
(-0.080246 -0.121925 3.78204e-18)
(-0.0829236 -0.126004 3.90947e-18)
(-0.0857256 -0.130274 4.28403e-18)
(-0.0887197 -0.134835 4.38439e-18)
(-0.0919092 -0.139693 4.4565e-18)
(-0.0952216 -0.144739 4.64242e-18)
(-0.0986015 -0.149888 4.6297e-18)
(-0.102021 -0.155097 4.89024e-18)
(-0.10545 -0.160321 6.06801e-18)
(-0.108854 -0.165508 7.30962e-18)
(-0.112195 -0.1706 8.06337e-18)
(-0.115434 -0.175537 8.77173e-18)
(-0.11853 -0.180257 9.71075e-18)
(-0.121448 -0.184705 1.03813e-17)
(-0.124154 -0.188832 1.1032e-17)
(-0.126627 -0.192604 1.21156e-17)
(-0.128852 -0.196 1.40115e-17)
(-0.130827 -0.199014 1.68445e-17)
(-0.132559 -0.201659 1.98722e-17)
(-0.134064 -0.203959 2.32993e-17)
(-0.135365 -0.205949 2.93359e-17)
(-0.136491 -0.207671 3.68692e-17)
(-0.137468 -0.209167 4.61073e-17)
(-0.138326 -0.210482 5.77119e-17)
(-0.13909 -0.211654 7.17455e-17)
(-0.139783 -0.212718 8.82283e-17)
(-0.140423 -0.213701 1.05034e-16)
(-0.141026 -0.214627 1.21025e-16)
(-0.141601 -0.215513 1.33955e-16)
(-0.142159 -0.21637 1.4072e-16)
(-0.142703 -0.217207 1.38648e-16)
(-0.143238 -0.218029 1.22226e-16)
(-0.143765 -0.21884 8.57378e-17)
(-0.144285 -0.21964 2.21337e-17)
(-0.144799 -0.220431 -2.1307e-17)
(-0.0147289 -0.0237379 -8.63899e-18)
(-0.0150999 -0.0243432 -8.22282e-18)
(-0.0154752 -0.0249558 -8.71663e-18)
(-0.0158562 -0.0255778 -1.01567e-17)
(-0.0162439 -0.0262109 -1.14916e-17)
(-0.0166392 -0.0268565 -1.25692e-17)
(-0.0170428 -0.0275155 -1.38078e-17)
(-0.0174552 -0.0281886 -1.51298e-17)
(-0.0178765 -0.0288764 -1.63698e-17)
(-0.0183074 -0.0295796 -1.75359e-17)
(-0.0187484 -0.0302992 -1.90556e-17)
(-0.0192002 -0.0310364 -2.02158e-17)
(-0.0196634 -0.031792 -2.11594e-17)
(-0.0201383 -0.0325666 -2.17817e-17)
(-0.0206253 -0.0333611 -2.22948e-17)
(-0.0211251 -0.0341766 -2.28504e-17)
(-0.0216386 -0.0350142 -2.29182e-17)
(-0.0221662 -0.035875 -2.27743e-17)
(-0.0227088 -0.0367601 -2.28734e-17)
(-0.0232671 -0.0376709 -2.2732e-17)
(-0.023842 -0.0386089 -2.20139e-17)
(-0.0244343 -0.0395751 -2.12331e-17)
(-0.0250448 -0.0405711 -2.07767e-17)
(-0.0256743 -0.0415982 -2.05616e-17)
(-0.0263238 -0.042658 -2.06178e-17)
(-0.0269942 -0.0437521 -2.00741e-17)
(-0.0276867 -0.0448821 -1.92624e-17)
(-0.0284023 -0.04605 -1.90733e-17)
(-0.0291421 -0.0472576 -1.9074e-17)
(-0.0299074 -0.0485065 -1.89871e-17)
(-0.0306993 -0.0497989 -1.81978e-17)
(-0.0315193 -0.0511372 -1.71409e-17)
(-0.032369 -0.052524 -1.64343e-17)
(-0.0332499 -0.0539618 -1.59035e-17)
(-0.0341636 -0.055453 -1.46757e-17)
(-0.0351115 -0.0570003 -1.37624e-17)
(-0.0360955 -0.0586064 -1.34072e-17)
(-0.0371175 -0.0602744 -1.33388e-17)
(-0.0381793 -0.0620074 -1.30059e-17)
(-0.0392828 -0.0638085 -1.24112e-17)