/*--------------------------------*- C++ -*----------------------------------*\
  =========                 |
  \\      /  F ield         | OpenFOAM: The Open Source CFD Toolbox
   \\    /   O peration     | Website:  https://openfoam.org
    \\  /    A nd           | Version:  7
     \\/     M anipulation  |
\*---------------------------------------------------------------------------*/
FoamFile
{
    version     2.0;
    format      ascii;
    class       volScalarField;
    location    "92000";
    object      strainRate;
}
// * * * * * * * * * * * * * * * * * * * * * * * * * * * * * * * * * * * * * //

dimensions      [0 0 -1 0 0 0 0];

internalField   nonuniform List<scalar> 
4814
(
0.0819924
0.0816283
0.0812985
0.0810084
0.0939624
0.0930593
0.0922082
0.0913902
0.0906043
0.0898532
0.0891389
0.0884613
0.0878195
0.0872153
0.08665
0.0861189
0.0856272
0.0851714
0.0847523
0.0843749
0.0840337
0.0837334
0.0834703
0.0832442
0.0830547
0.0829048
0.0827904
0.0827143
0.0826747
0.0826743
0.0827137
0.0827889
0.0828999
0.0830528
0.0832408
0.0834647
0.083727
0.084029
0.0971965
0.0962619
0.0953804
0.0945338
0.0937197
0.0929414
0.092201
0.0914986
0.0908339
0.0902085
0.0896232
0.0890726
0.0885623
0.0880902
0.0876557
0.087264
0.0869112
0.0866
0.0863269
0.0860926
0.0858969
0.0857406
0.085622
0.0855435
0.085502
0.0855015
0.0855427
0.0856206
0.0857353
0.0858947
0.0860901
0.0863218
0.0865936
0.0869063
0.0872586
0.0876505
0.0880828
0.0885571
0.089071
0.0896212
0.0902106
0.100598
0.0996308
0.0987175
0.097841
0.0969978
0.096191
0.0954232
0.0946951
0.0940064
0.093359
0.0927527
0.0921818
0.0916519
0.091163
0.0907124
0.0903056
0.0899406
0.0896178
0.0893342
0.0890915
0.0888894
0.0887264
0.0886034
0.0885223
0.0884792
0.0884783
0.0885212
0.0886019
0.0887208
0.0888868
0.08909
0.0893303
0.0896116
0.0899355
0.0903005
0.0907068
0.0911548
0.0916464
0.0921792
0.0927503
0.0933616
0.0940125
0.0947024
0.0954287
0.104179
0.103177
0.102231
0.101323
0.100449
0.0996125
0.0988165
0.0980614
0.0973479
0.0966774
0.0960489
0.0954572
0.0949065
0.0944005
0.0939331
0.0935104
0.0931324
0.092797
0.0925027
0.0922514
0.0920423
0.0918724
0.0917448
0.0916608
0.0916164
0.0916152
0.0916596
0.0917432
0.0918667
0.0920395
0.0922506
0.0925003
0.0927916
0.0931271
0.0935054
0.0939266
0.0943912
0.0949011
0.0954533
0.0960464
0.0966807
0.0973548
0.09807
0.0988224
0.10795
0.106912
0.105931
0.104991
0.104085
0.103218
0.102392
0.101609
0.10087
0.100175
0.0995232
0.0989098
0.0983376
0.0978139
0.0973288
0.0968897
0.0964976
0.0961488
0.0958436
0.0955832
0.0953669
0.09519
0.0950577
0.0949705
0.0949249
0.0949236
0.0949689
0.0950558
0.0951844
0.095364
0.0955832
0.0958428
0.0961447
0.0964925
0.0968844
0.0973213
0.0978031
0.0983323
0.0989047
0.0995208
0.100179
0.100877
0.101619
0.102399
0.111924
0.110848
0.109831
0.108857
0.107919
0.107019
0.106163
0.105351
0.104584
0.103864
0.103188
0.102552
0.101957
0.101415
0.100912
0.100455
0.100049
0.0996855
0.0993692
0.0990989
0.0988751
0.0986911
0.098554
0.0984633
0.0984165
0.0984154
0.0984614
0.0985516
0.0986858
0.0988722
0.0990997
0.0993698
0.0996831
0.100043
0.10045
0.100903
0.101403
0.101952
0.102546
0.103186
0.103868
0.104592
0.105361
0.10617
0.116113
0.114998
0.113945
0.112934
0.111962
0.111029
0.110141
0.109299
0.108505
0.107758
0.107056
0.106396
0.105779
0.105217
0.104694
0.104221
0.103798
0.10342
0.103092
0.102812
0.10258
0.102389
0.102247
0.102152
0.102104
0.102103
0.10215
0.102244
0.102384
0.102577
0.102813
0.103094
0.103419
0.103793
0.104214
0.104685
0.105203
0.105774
0.106389
0.107054
0.107762
0.108513
0.10931
0.110148
0.111031
0.120531
0.119377
0.118285
0.117237
0.116229
0.115262
0.114342
0.113469
0.112645
0.11187
0.111142
0.110456
0.109816
0.109233
0.108691
0.108199
0.10776
0.107367
0.107027
0.106735
0.106495
0.106297
0.106149
0.106051
0.106002
0.106001
0.106049
0.106145
0.106292
0.106492
0.106737
0.107029
0.107367
0.107755
0.108191
0.108681
0.109219
0.109811
0.110449
0.111139
0.111874
0.112653
0.113479
0.114349
0.115265
0.125194
0.123998
0.122867
0.12178
0.120736
0.119732
0.118779
0.117873
0.117019
0.116216
0.11546
0.114748
0.114084
0.113479
0.112916
0.112405
0.11195
0.111541
0.111188
0.110885
0.110636
0.11043
0.110277
0.110175
0.110124
0.110124
0.110172
0.110272
0.110425
0.110633
0.110887
0.11119
0.111542
0.111944
0.112397
0.112907
0.113464
0.114079
0.114741
0.115457
0.116219
0.117027
0.117884
0.118786
0.119737
0.130115
0.128878
0.127706
0.126579
0.125497
0.124457
0.123468
0.12253
0.121644
0.120811
0.120025
0.119287
0.118598
0.11797
0.117386
0.116855
0.116382
0.115957
0.11559
0.115275
0.115017
0.114804
0.114645
0.11454
0.114486
0.114486
0.114536
0.114639
0.1148
0.115014
0.115279
0.115594
0.115959
0.116377
0.116847
0.117377
0.117955
0.118592
0.11928
0.120023
0.120812
0.121651
0.12254
0.123475
0.124462
0.135313
0.134031
0.132818
0.131649
0.130529
0.129452
0.128427
0.127454
0.126536
0.125672
0.124855
0.12409
0.123375
0.122722
0.122117
0.121566
0.121074
0.120634
0.120252
0.119924
0.119657
0.119436
0.119271
0.119161
0.119106
0.119106
0.119158
0.119264
0.119432
0.119654
0.119929
0.120256
0.120635
0.121069
0.121557
0.122108
0.122708
0.123369
0.124083
0.124853
0.125672
0.126542
0.127464
0.128434
0.140802
0.139476
0.138219
0.137009
0.13585
0.134734
0.133672
0.132664
0.131712
0.130816
0.129968
0.129174
0.128433
0.127754
0.127128
0.126555
0.126044
0.125587
0.12519
0.12485
0.124572
0.124344
0.124173
0.124058
0.124001
0.124
0.124054
0.124165
0.124339
0.124569
0.124855
0.125195
0.125589
0.126039
0.126547
0.127119
0.127741
0.128426
0.129167
0.129966
0.130814
0.131717
0.132673
0.133679
0.146601
0.145228
0.143928
0.142675
0.141476
0.140322
0.139221
0.138177
0.13719
0.136261
0.135382
0.134558
0.13379
0.133085
0.132436
0.131841
0.131311
0.130837
0.130424
0.130071
0.129782
0.129546
0.129368
0.129249
0.12919
0.129189
0.129245
0.12936
0.129541
0.12978
0.130077
0.13043
0.130839
0.131306
0.131833
0.132427
0.133073
0.133783
0.134552
0.13538
0.136258
0.137195
0.138185
0.139228
0.152725
0.151306
0.149962
0.148666
0.147426
0.146233
0.145094
0.144013
0.14299
0.142027
0.141116
0.140262
0.139465
0.138733
0.138061
0.137444
0.136893
0.136402
0.135974
0.135608
0.135306
0.135063
0.134878
0.134754
0.134692
0.134691
0.134749
0.13487
0.135058
0.135304
0.135613
0.13598
0.136405
0.136889
0.137437
0.138052
0.138722
0.139458
0.140255
0.141113
0.142023
0.142993
0.144019
0.1451
0.159193
0.157728
0.15634
0.155
0.153718
0.152486
0.151308
0.15019
0.14913
0.148132
0.14719
0.146305
0.145479
0.14472
0.144024
0.143384
0.142813
0.142304
0.141859
0.14148
0.141166
0.140915
0.140722
0.140593
0.140529
0.140529
0.140589
0.140716
0.140909
0.141165
0.141485
0.141866
0.142308
0.142809
0.143378
0.144014
0.14471
0.145472
0.146297
0.147186
0.148129
0.149133
0.150194
0.151313
0.166022
0.164511
0.163078
0.161695
0.160372
0.1591
0.157884
0.156727
0.155631
0.154599
0.153624
0.152707
0.151852
0.151065
0.150345
0.149683
0.149091
0.148563
0.148103
0.147709
0.147383
0.147123
0.146924
0.146789
0.146723
0.146722
0.146784
0.146918
0.147118
0.147382
0.147715
0.14811
0.148567
0.149088
0.149677
0.150335
0.151057
0.151845
0.152699
0.153619
0.154594
0.155633
0.15673
0.157887
0.173228
0.171672
0.170195
0.16877
0.167404
0.166094
0.164839
0.163645
0.162512
0.161445
0.160438
0.159489
0.158606
0.157791
0.157046
0.156361
0.155748
0.155202
0.154725
0.154318
0.153979
0.153711
0.153504
0.153364
0.153295
0.153294
0.153359
0.153499
0.153705
0.153978
0.154323
0.154732
0.155207
0.155746
0.156356
0.157036
0.157784
0.158598
0.159482
0.160432
0.16144
0.162513
0.163647
0.16484
0.180826
0.179227
0.177707
0.176241
0.174834
0.173485
0.172192
0.170961
0.169793
0.168692
0.167652
0.166672
0.16576
0.164917
0.164148
0.16344
0.162806
0.162241
0.161749
0.161327
0.160976
0.160698
0.160484
0.16034
0.160268
0.160267
0.160335
0.16048
0.160693
0.160974
0.161331
0.161755
0.162247
0.162804
0.163436
0.164138
0.164911
0.165752
0.166665
0.167646
0.168686
0.169793
0.170962
0.172193
0.188831
0.187191
0.18563
0.184124
0.182678
0.181291
0.179961
0.178694
0.177492
0.176358
0.175285
0.174275
0.173335
0.172465
0.171671
0.170941
0.170286
0.169703
0.169195
0.168758
0.168396
0.168108
0.167888
0.167738
0.167664
0.167663
0.167733
0.167884
0.168103
0.168393
0.168762
0.169201
0.169709
0.170285
0.170937
0.171661
0.17246
0.173326
0.174268
0.175278
0.17635
0.177491
0.178694
0.179961
0.197254
0.195576
0.193977
0.192433
0.190949
0.189527
0.188162
0.18686
0.185626
0.184459
0.183356
0.182316
0.181349
0.180453
0.179635
0.178884
0.178208
0.177608
0.177084
0.176632
0.176259
0.175962
0.175735
0.175581
0.175504
0.175502
0.175576
0.175731
0.175958
0.176256
0.176636
0.177089
0.177613
0.178208
0.17888
0.179625
0.180448
0.18134
0.18231
0.183349
0.18445
0.185624
0.18686
0.188161
0.206103
0.204391
0.202758
0.201179
0.199661
0.198205
0.196807
0.195474
0.194209
0.193012
0.191879
0.190812
0.189819
0.188898
0.188058
0.187286
0.18659
0.185973
0.185434
0.184969
0.184584
0.184278
0.184045
0.183888
0.183808
0.183806
0.183882
0.184042
0.184275
0.184582
0.184972
0.185438
0.185979
0.186591
0.187282
0.188048
0.188894
0.18981
0.190806
0.191872
0.193002
0.194206
0.195473
0.196807
0.198203
0.215389
0.213646
0.21198
0.210371
0.208822
0.207336
0.205908
0.204546
0.203253
0.202028
0.200868
0.199776
0.19876
0.197815
0.196955
0.196163
0.195449
0.194816
0.194262
0.193785
0.193389
0.193075
0.192837
0.192675
0.192593
0.19259
0.192669
0.192833
0.193072
0.193388
0.193787
0.194266
0.194822
0.19545
0.19616
0.196945
0.197811
0.19875
0.19977
0.200861
0.202017
0.203249
0.204545
0.205908
0.207333
0.225134
0.223357
0.221657
0.22002
0.218443
0.216931
0.215476
0.214088
0.212768
0.211518
0.210333
0.209219
0.208181
0.207216
0.206337
0.205528
0.204797
0.20415
0.203583
0.203094
0.202689
0.202367
0.202123
0.201958
0.201873
0.20187
0.201951
0.202119
0.202364
0.202687
0.203096
0.203586
0.204155
0.204799
0.205525
0.206327
0.207212
0.208171
0.209213
0.210326
0.211507
0.212764
0.214086
0.215475
0.216927
0.23546
0.233613
0.231844
0.230168
0.228563
0.227023
0.225539
0.224124
0.222775
0.221498
0.220288
0.219154
0.218097
0.217114
0.216218
0.215394
0.214647
0.213988
0.213408
0.212908
0.212495
0.212165
0.211917
0.211748
0.211661
0.211659
0.211742
0.211913
0.212163
0.212493
0.21291
0.213411
0.213992
0.21465
0.215391
0.216209
0.21711
0.218087
0.219148
0.22028
0.221487
0.222772
0.224122
0.225537
0.227017
0.246628
0.244681
0.242811
0.241063
0.239395
0.237793
0.236249
0.234775
0.23337
0.23204
0.230781
0.229627
0.22855
0.227548
0.226635
0.225794
0.225032
0.224359
0.223766
0.223255
0.222833
0.222496
0.222242
0.222069
0.221979
0.221978
0.222063
0.222237
0.222494
0.222831
0.223258
0.223769
0.224363
0.225035
0.225792
0.226627
0.227544
0.22854
0.22962
0.230773
0.232029
0.233367
0.234773
0.236246
0.258739
0.25673
0.254799
0.252963
0.251202
0.249508
0.247876
0.246318
0.244831
0.243423
0.242093
0.240894
0.239774
0.238733
0.237782
0.236907
0.236114
0.235412
0.234794
0.234261
0.233821
0.233469
0.233204
0.233024
0.232931
0.23293
0.233019
0.2332
0.233468
0.23382
0.234264
0.234796
0.235416
0.236117
0.236906
0.237775
0.238728
0.239765
0.240888
0.242085
0.243413
0.244828
0.246315
0.247872
0.271548
0.269532
0.267589
0.265712
0.263898
0.262153
0.26047
0.258862
0.257326
0.25587
0.254493
0.253228
0.252044
0.250944
0.249938
0.249012
0.248174
0.247431
0.246777
0.246213
0.245747
0.245373
0.245093
0.244902
0.244804
0.244804
0.244899
0.245089
0.245373
0.245746
0.246216
0.246779
0.247434
0.248177
0.249011
0.249931
0.25094
0.252035
0.253221
0.254486
0.255861
0.257323
0.258858
0.260465
0.284806
0.282808
0.280879
0.279009
0.277198
0.275453
0.273768
0.272155
0.270613
0.269149
0.267762
0.266461
0.265243
0.26411
0.263073
0.262119
0.261255
0.260488
0.259812
0.25923
0.258748
0.258361
0.258071
0.257875
0.257774
0.257775
0.257872
0.258068
0.258362
0.258747
0.259233
0.259814
0.26049
0.261258
0.262119
0.263068
0.264107
0.265235
0.266454
0.267755
0.26914
0.270609
0.272151
0.273761
0.298359
0.296407
0.294519
0.292684
0.290903
0.289184
0.287521
0.285926
0.2844
0.282948
0.281571
0.280276
0.279062
0.277932
0.276896
0.275942
0.275077
0.274308
0.273631
0.273048
0.272564
0.272175
0.271884
0.271686
0.271586
0.271587
0.271685
0.271881
0.272177
0.272563
0.273051
0.273633
0.274311
0.27508
0.275942
0.27689
0.277929
0.279054
0.28027
0.281564
0.28294
0.284394
0.28592
0.287512
0.312016
0.310141
0.308325
0.306554
0.304831
0.303165
0.301551
0.3
0.298513
0.297096
0.29575
0.294482
0.293292
0.292182
0.291164
0.290225
0.289374
0.288615
0.287947
0.287371
0.286893
0.286507
0.28622
0.286024
0.285925
0.285927
0.286024
0.286218
0.28651
0.286893
0.287374
0.287949
0.288617
0.289376
0.290225
0.291159
0.29218
0.293285
0.294476
0.295743
0.297087
0.298506
0.299992
0.30154
0.325537
0.323775
0.322063
0.320388
0.318755
0.317172
0.315635
0.314156
0.312735
0.311377
0.310087
0.308868
0.307723
0.306654
0.30567
0.304764
0.30394
0.303205
0.302557
0.301998
0.301533
0.301158
0.300879
0.300689
0.300593
0.300596
0.30069
0.300879
0.301163
0.301534
0.302001
0.302558
0.303206
0.303942
0.304764
0.305667
0.306651
0.307717
0.308862
0.31008
0.311369
0.312725
0.314146
0.315622
0.33865
0.337032
0.335456
0.33391
0.332397
0.330928
0.3295
0.32812
0.326793
0.325521
0.324311
0.323167
0.322089
0.321081
0.320152
0.319295
0.318516
0.317819
0.317203
0.316673
0.31623
0.315873
0.315607
0.315427
0.315336
0.315339
0.31543
0.315609
0.315879
0.316232
0.316675
0.317205
0.31782
0.318517
0.319296
0.32015
0.32108
0.322084
0.323161
0.324304
0.325513
0.326781
0.328107
0.329484
0.351062
0.349617
0.348205
0.346815
0.345452
0.344124
0.342832
0.34158
0.340372
0.339213
0.338108
0.337061
0.336073
0.335148
0.334292
0.333503
0.332784
0.33214
0.33157
0.331079
0.330667
0.330335
0.330089
0.329922
0.329839
0.329842
0.329927
0.330093
0.330343
0.330671
0.331081
0.331571
0.33214
0.332785
0.333504
0.334291
0.335147
0.336069
0.337056
0.338101
0.339204
0.340358
0.341564
0.342814
0.344106
0.36249
0.361238
0.360012
0.3588
0.357607
0.356444
0.355309
0.354207
0.353141
0.352114
0.351136
0.350206
0.349328
0.348504
0.347738
0.347034
0.34639
0.345812
0.345299
0.344858
0.344486
0.344186
0.343964
0.343815
0.34374
0.343743
0.343821
0.34397
0.344195
0.344491
0.34486
0.3453
0.345811
0.34639
0.347034
0.347739
0.348503
0.349325
0.350201
0.351129
0.352106
0.353125
0.354188
0.355289
0.356424
0.372697
0.371647
0.370616
0.369593
0.368584
0.367596
0.366632
0.365693
0.364783
0.363904
0.363066
0.362268
0.361513
0.360803
0.36014
0.359532
0.358975
0.358472
0.358027
0.357642
0.357316
0.357055
0.356861
0.356732
0.356668
0.356671
0.356739
0.35687
0.357066
0.357324
0.357644
0.358027
0.35847
0.358974
0.359533
0.360143
0.360803
0.361511
0.362264
0.36306
0.363895
0.364765
0.365672
0.36661
0.367575
0.38152
0.380668
0.379831
0.378995
0.378169
0.377359
0.376569
0.375796
0.375045
0.374319
0.373626
0.372964
0.372337
0.371747
0.371194
0.370688
0.370222
0.369801
0.369426
0.369103
0.368828
0.368607
0.368444
0.368336
0.368283
0.368286
0.368344
0.368454
0.368619
0.368837
0.369105
0.369426
0.369798
0.370221
0.370688
0.371198
0.371749
0.372337
0.37296
0.373619
0.374309
0.375025
0.375772
0.376544
0.377337
0.378149
0.388894
0.388225
0.387566
0.386906
0.386251
0.385609
0.384982
0.384368
0.38377
0.383189
0.382637
0.382108
0.381606
0.381133
0.380687
0.380281
0.379905
0.379565
0.379261
0.378999
0.378774
0.378594
0.378461
0.378374
0.378333
0.378336
0.378385
0.378474
0.378607
0.378784
0.379001
0.379261
0.379561
0.379904
0.380281
0.380692
0.381135
0.381607
0.382104
0.38263
0.383179
0.383748
0.384341
0.384956
0.385586
0.386229
0.394856
0.394345
0.393842
0.393335
0.39283
0.392336
0.391854
0.39138
0.390919
0.390469
0.390043
0.389634
0.389246
0.388879
0.388532
0.388216
0.387924
0.387658
0.387419
0.387213
0.387035
0.386894
0.386789
0.386722
0.386691
0.386694
0.386733
0.386803
0.386908
0.387047
0.387216
0.387418
0.387653
0.387922
0.388217
0.388538
0.388882
0.389247
0.38963
0.390036
0.390459
0.390895
0.391352
0.391826
0.392311
0.392806
0.393311
0.39953
0.399148
0.398772
0.39839
0.39801
0.397637
0.397276
0.396919
0.396572
0.396232
0.395911
0.395603
0.395311
0.395035
0.394771
0.394534
0.394313
0.39411
0.393928
0.39377
0.393632
0.393523
0.393443
0.393393
0.393371
0.393374
0.393405
0.393459
0.393538
0.393645
0.393773
0.393926
0.394105
0.39431
0.394534
0.394778
0.395039
0.395314
0.3956
0.395905
0.396221
0.396547
0.396889
0.397246
0.397612
0.397984
0.398365
0.403102
0.402821
0.402541
0.402257
0.401972
0.401694
0.401426
0.401161
0.400903
0.400649
0.400412
0.400184
0.399967
0.399762
0.399565
0.39939
0.399225
0.399073
0.398936
0.398817
0.398711
0.398629
0.398568
0.398532
0.398516
0.398519
0.398544
0.398585
0.398644
0.398725
0.398819
0.398934
0.399067
0.399222
0.39939
0.399572
0.399767
0.39997
0.40018
0.400405
0.400638
0.400877
0.40113
0.401396
0.401668
0.401945
0.402231
0.405789
0.40558
0.405372
0.405158
0.404944
0.404734
0.404535
0.404337
0.404144
0.403954
0.403778
0.403608
0.403448
0.403296
0.403148
0.403019
0.402896
0.402782
0.402678
0.402588
0.402506
0.402444
0.402398
0.402372
0.402361
0.402365
0.402385
0.402415
0.40246
0.402521
0.402591
0.402676
0.402776
0.402893
0.403019
0.403156
0.403301
0.403452
0.403605
0.403771
0.403943
0.404118
0.404305
0.404504
0.404708
0.404916
0.405131
0.407807
0.407648
0.407489
0.407323
0.407157
0.406996
0.406844
0.406692
0.406544
0.406398
0.406265
0.406137
0.406015
0.4059
0.405787
0.40569
0.405596
0.405508
0.405427
0.405358
0.405293
0.405244
0.405209
0.40519
0.405183
0.405186
0.405203
0.405226
0.405261
0.405308
0.405361
0.405426
0.405502
0.405593
0.40569
0.405795
0.405905
0.406019
0.406134
0.406259
0.406387
0.406518
0.40666
0.406812
0.406969
0.407129
0.407296
0.409346
0.409222
0.409095
0.408962
0.408828
0.408698
0.408577
0.408456
0.408338
0.408222
0.408116
0.408015
0.40792
0.407829
0.407738
0.407662
0.407588
0.407517
0.407452
0.407396
0.407343
0.407302
0.407274
0.407259
0.407255
0.407259
0.407273
0.407292
0.407319
0.407357
0.407399
0.40745
0.407511
0.407585
0.407662
0.407746
0.407834
0.407923
0.408012
0.40811
0.40821
0.408312
0.408424
0.408545
0.408671
0.408799
0.408934
0.409068
0.410567
0.410465
0.410359
0.410247
0.410133
0.410024
0.409923
0.409822
0.409723
0.409625
0.409538
0.409454
0.409375
0.409299
0.409223
0.409161
0.409099
0.409039
0.408984
0.408936
0.40889
0.408856
0.408832
0.40882
0.408817
0.408821
0.408834
0.40885
0.408873
0.408905
0.408939
0.408982
0.409033
0.409096
0.409161
0.409231
0.409304
0.409378
0.409451
0.409531
0.409614
0.409697
0.409789
0.409891
0.409997
0.410105
0.410219
0.410331
0.411587
0.411501
0.411409
0.41131
0.41121
0.411114
0.411026
0.410938
0.410851
0.410765
0.410689
0.410616
0.410548
0.410482
0.410415
0.410361
0.410307
0.410255
0.410206
0.410163
0.410122
0.410091
0.41007
0.41006
0.410058
0.410062
0.410073
0.410088
0.410108
0.410137
0.410166
0.410204
0.410249
0.410304
0.410361
0.410423
0.410487
0.410551
0.410613
0.410683
0.410754
0.410825
0.410905
0.410994
0.411087
0.411181
0.411282
0.411381
0.41249
0.412415
0.412333
0.412243
0.412153
0.412066
0.411987
0.411907
0.411829
0.411752
0.411683
0.411618
0.411556
0.411497
0.411437
0.411388
0.411339
0.411292
0.411247
0.411208
0.411169
0.411141
0.411122
0.411113
0.411112
0.411115
0.411126
0.41114
0.411158
0.411184
0.411211
0.411245
0.411286
0.411336
0.411388
0.411444
0.411502
0.41156
0.411615
0.411677
0.41174
0.411803
0.411875
0.411955
0.412039
0.412124
0.412215
0.412305
0.413329
0.413264
0.413189
0.413107
0.413024
0.412944
0.412871
0.412799
0.412727
0.412655
0.412593
0.412533
0.412477
0.412423
0.412367
0.412322
0.412277
0.412233
0.412191
0.412155
0.412119
0.412092
0.412074
0.412066
0.412066
0.412069
0.41208
0.412092
0.412109
0.412133
0.412158
0.412189
0.412227
0.412274
0.412323
0.412374
0.412428
0.41248
0.41253
0.412587
0.412644
0.412701
0.412766
0.412839
0.412916
0.412995
0.413079
0.413161
0.414135
0.414078
0.41401
0.413934
0.413857
0.413783
0.413717
0.41365
0.413584
0.413517
0.41346
0.413405
0.413353
0.413303
0.413251
0.41321
0.413169
0.413127
0.413088
0.413054
0.41302
0.412995
0.412978
0.412971
0.41297
0.412974
0.412984
0.412995
0.413011
0.413034
0.413057
0.413086
0.413121
0.413165
0.41321
0.413259
0.413308
0.413357
0.413402
0.413454
0.413506
0.413557
0.413617
0.413685
0.413756
0.413828
0.413906
0.413981
0.414923
0.414874
0.414812
0.414742
0.414671
0.414603
0.414542
0.41448
0.414419
0.414358
0.414306
0.414255
0.414207
0.414161
0.414113
0.414075
0.414036
0.413998
0.413961
0.413929
0.413896
0.413873
0.413857
0.41385
0.41385
0.413854
0.413864
0.413875
0.413889
0.413911
0.413932
0.413959
0.413992
0.414033
0.414075
0.41412
0.414166
0.41421
0.414252
0.414299
0.414346
0.414393
0.414448
0.41451
0.414576
0.414642
0.414714
0.414783
0.415699
0.415658
0.415602
0.415538
0.415473
0.41541
0.415355
0.415298
0.415242
0.415186
0.415138
0.415091
0.415047
0.415005
0.414961
0.414926
0.41489
0.414854
0.41482
0.41479
0.414759
0.414737
0.414722
0.414716
0.414716
0.41472
0.414729
0.414739
0.414753
0.414773
0.414793
0.414818
0.414849
0.414887
0.414926
0.414968
0.41501
0.415051
0.415088
0.415131
0.415174
0.415216
0.415266
0.415323
0.415383
0.415444
0.41551
0.415573
0.0939609
0.097195
0.100597
0.104177
0.107948
0.111921
0.11611
0.120528
0.125191
0.130112
0.135309
0.140798
0.146596
0.15272
0.159188
0.166016
0.173223
0.180821
0.188827
0.197251
0.206102
0.215389
0.225135
0.23546
0.246629
0.258739
0.271549
0.284808
0.298361
0.312018
0.32554
0.338653
0.351065
0.362494
0.372701
0.381525
0.388899
0.394861
0.399535
0.403108
0.405795
0.407812
0.409352
0.410572
0.411593
0.412496
0.413335
0.414141
0.414929
0.415705
0.0930527
0.0962548
0.0996232
0.103169
0.106903
0.110839
0.114989
0.119367
0.123988
0.128868
0.134021
0.139466
0.145219
0.151298
0.157721
0.164504
0.171665
0.179221
0.187185
0.19557
0.204386
0.213641
0.223353
0.233609
0.244678
0.256729
0.269531
0.282809
0.296409
0.310145
0.32378
0.337039
0.349625
0.361247
0.371658
0.38068
0.388238
0.394359
0.399163
0.402836
0.405596
0.407664
0.409238
0.410481
0.411517
0.412431
0.413279
0.414094
0.414889
0.415673
0.0921956
0.095367
0.0987037
0.102217
0.105917
0.109817
0.11393
0.11827
0.122852
0.127691
0.132803
0.138205
0.143915
0.14995
0.156328
0.163068
0.170186
0.1777
0.185625
0.193972
0.202754
0.211978
0.221657
0.231845
0.242813
0.254803
0.267594
0.280886
0.294527
0.308334
0.322073
0.335468
0.348218
0.360026
0.370631
0.379847
0.387584
0.39386
0.39879
0.40256
0.405392
0.407508
0.409115
0.410379
0.411428
0.412352
0.413208
0.414029
0.414831
0.415621
0.0913744
0.0945161
0.0978219
0.101303
0.10497
0.108836
0.112914
0.117217
0.121761
0.126561
0.131633
0.136994
0.142662
0.148655
0.154991
0.161688
0.168764
0.176236
0.184121
0.192431
0.201178
0.210371
0.220021
0.230171
0.241067
0.252968
0.265717
0.279016
0.292692
0.306563
0.320398
0.333922
0.346829
0.358814
0.369609
0.379013
0.386925
0.393354
0.39841
0.402277
0.405179
0.407344
0.408983
0.410268
0.411331
0.412265
0.413128
0.413955
0.414763
0.415559
0.0905912
0.0937053
0.0969819
0.100432
0.104067
0.1079
0.111943
0.116211
0.120718
0.12548
0.130512
0.135833
0.14146
0.147411
0.153704
0.160359
0.167394
0.174826
0.182672
0.190946
0.199659
0.208822
0.218445
0.228567
0.239399
0.251206
0.263903
0.277204
0.29091
0.30484
0.318765
0.332409
0.345465
0.357622
0.3686
0.378186
0.38627
0.39285
0.39803
0.401993
0.404964
0.407178
0.408849
0.410154
0.411231
0.412174
0.413045
0.413878
0.414692
0.415493
0.0898441
0.0929313
0.0961802
0.0996017
0.103207
0.107009
0.11102
0.115254
0.119726
0.124451
0.129446
0.134727
0.140314
0.146223
0.152476
0.159089
0.166083
0.173476
0.181283
0.18952
0.1982
0.207332
0.216928
0.22702
0.237791
0.249506
0.262152
0.275452
0.289184
0.303167
0.317175
0.330933
0.344132
0.356453
0.367608
0.377373
0.385624
0.392352
0.397655
0.401713
0.404754
0.407016
0.408718
0.410044
0.411134
0.412086
0.412964
0.413803
0.414623
0.41543
0.0891309
0.0921933
0.0954163
0.0988105
0.102387
0.106159
0.110139
0.11434
0.118778
0.123468
0.128427
0.133672
0.13922
0.145091
0.151303
0.157877
0.164831
0.172184
0.179953
0.188155
0.196802
0.205905
0.215474
0.225539
0.236249
0.247877
0.260472
0.27377
0.287524
0.301555
0.31564
0.329505
0.342838
0.355316
0.366641
0.376578
0.384992
0.391865
0.397287
0.401438
0.404547
0.406856
0.40859
0.409936
0.411039
0.412
0.412885
0.41373
0.414555
0.415368
0.088454
0.0914926
0.0946906
0.0980587
0.101608
0.105351
0.109301
0.113471
0.117877
0.122533
0.127457
0.132666
0.138178
0.144012
0.150187
0.156723
0.163639
0.170954
0.178687
0.186854
0.195468
0.20454
0.214083
0.224119
0.234771
0.246314
0.258859
0.272154
0.285926
0.300001
0.314158
0.328124
0.341585
0.354213
0.365701
0.375805
0.384378
0.391392
0.396932
0.401174
0.404351
0.406706
0.40847
0.409836
0.410952
0.411922
0.412813
0.413664
0.414495
0.415313
0.0878144
0.09083
0.0940039
0.0973466
0.100869
0.104585
0.108506
0.112646
0.117021
0.121646
0.126537
0.131712
0.137189
0.142987
0.149127
0.155626
0.162506
0.169786
0.177483
0.185615
0.194198
0.203242
0.212758
0.222767
0.233363
0.244826
0.257322
0.27061
0.284398
0.298513
0.312735
0.326795
0.340377
0.353147
0.364792
0.375057
0.383783
0.390933
0.396588
0.40092
0.404161
0.406562
0.408357
0.409742
0.41087
0.411848
0.412746
0.413602
0.414438
0.415261
0.0872116
0.0902046
0.0933549
0.0966731
0.100171
0.10386
0.107753
0.111865
0.116209
0.120803
0.125663
0.130806
0.13625
0.142016
0.148122
0.154588
0.161434
0.168679
0.176343
0.184444
0.192996
0.202012
0.211502
0.221483
0.232026
0.243412
0.255862
0.269143
0.282944
0.297094
0.311378
0.325526
0.339221
0.352126
0.36392
0.374337
0.383211
0.390493
0.396258
0.400677
0.403982
0.406427
0.408251
0.409655
0.410794
0.411781
0.412684
0.413546
0.414387
0.415215
0.0866443
0.0896165
0.0927451
0.0960407
0.0995146
0.103179
0.107047
0.111132
0.11545
0.120016
0.124847
0.12996
0.135374
0.141107
0.14718
0.153613
0.160426
0.16764
0.175273
0.183343
0.191867
0.200856
0.210322
0.220277
0.230771
0.242085
0.254487
0.267757
0.281569
0.29575
0.310089
0.324316
0.338116
0.351147
0.363081
0.373643
0.382656
0.390065
0.395935
0.400437
0.403804
0.406291
0.408143
0.409565
0.410716
0.41171
0.41262
0.413487
0.414332
0.415164
0.0861159
0.089069
0.0921773
0.0954515
0.0989031
0.102544
0.106389
0.110449
0.114741
0.11928
0.124083
0.129168
0.134552
0.140255
0.146299
0.152701
0.159484
0.166667
0.17427
0.182311
0.190807
0.199772
0.209215
0.219151
0.229624
0.240891
0.253224
0.266458
0.280274
0.294481
0.308869
0.323169
0.337065
0.350213
0.362276
0.372974
0.38212
0.389647
0.395618
0.400199
0.403625
0.406153
0.408032
0.409471
0.410633
0.411635
0.41255
0.413422
0.414272
0.415108
0.0856236
0.0885593
0.0916496
0.0949054
0.0983376
0.101958
0.105781
0.109818
0.114086
0.1186
0.123377
0.128434
0.13379
0.139465
0.14548
0.151853
0.158606
0.165759
0.173334
0.181348
0.189818
0.198758
0.20818
0.218097
0.228551
0.239776
0.252046
0.265244
0.279063
0.293293
0.307724
0.322091
0.336075
0.34933
0.361515
0.372341
0.38161
0.389249
0.395316
0.399972
0.403453
0.40602
0.407924
0.40938
0.410553
0.411561
0.412482
0.413358
0.414212
0.415053
0.0851717
0.0880907
0.0911634
0.0944002
0.0978123
0.101412
0.105212
0.109227
0.113472
0.117963
0.122716
0.127749
0.133081
0.138731
0.14472
0.151067
0.157794
0.164921
0.17247
0.180458
0.188904
0.197822
0.207224
0.217122
0.227557
0.238741
0.250951
0.264117
0.277938
0.292188
0.306658
0.321085
0.33515
0.348504
0.360802
0.371745
0.38113
0.388876
0.395031
0.399758
0.403292
0.405896
0.407824
0.409295
0.410478
0.411493
0.412419
0.413299
0.414157
0.415001
0.0847571
0.0876612
0.0907181
0.0939384
0.0973333
0.100915
0.104697
0.108693
0.112917
0.117386
0.122116
0.127126
0.132433
0.138059
0.144022
0.150344
0.157046
0.164148
0.171673
0.179637
0.18806
0.196956
0.206338
0.216219
0.226635
0.237782
0.249937
0.263071
0.276893
0.291161
0.305667
0.320148
0.334288
0.347735
0.360137
0.371191
0.380684
0.388528
0.394768
0.399562
0.403145
0.405783
0.407734
0.409219
0.410411
0.411432
0.412362
0.413247
0.414108
0.414956
0.0843782
0.0872688
0.0903117
0.0935175
0.0968973
0.100463
0.104228
0.108206
0.112412
0.116862
0.121573
0.126562
0.131849
0.137452
0.143393
0.149692
0.15637
0.163449
0.17095
0.178892
0.187293
0.19617
0.205534
0.215399
0.225799
0.236911
0.249016
0.262123
0.275944
0.290226
0.304763
0.319293
0.333499
0.347028
0.359524
0.370677
0.380268
0.388202
0.394518
0.399373
0.403002
0.405672
0.407644
0.409143
0.410343
0.41137
0.412305
0.413193
0.414057
0.414908
0.0840377
0.086915
0.089944
0.0931354
0.0965005
0.100051
0.1038
0.107762
0.111951
0.116384
0.121077
0.126048
0.131316
0.1369
0.142821
0.149099
0.155757
0.162816
0.170296
0.178219
0.186601
0.19546
0.204809
0.214659
0.225043
0.236124
0.248183
0.261262
0.275083
0.289378
0.303943
0.318517
0.332783
0.346386
0.358968
0.370212
0.379894
0.38791
0.394297
0.399209
0.402879
0.405578
0.40757
0.409081
0.410289
0.411321
0.412259
0.413151
0.414019
0.414873
0.0837328
0.086599
0.0896167
0.0927965
0.0961497
0.099688
0.103424
0.107372
0.111547
0.115964
0.12064
0.125593
0.130843
0.136409
0.142311
0.148571
0.15521
0.162249
0.169711
0.177616
0.185981
0.194823
0.204156
0.213993
0.224363
0.235416
0.247434
0.26049
0.274311
0.288618
0.303207
0.31782
0.33214
0.34581
0.35847
0.369796
0.379559
0.387651
0.394102
0.399065
0.402773
0.405499
0.407508
0.40903
0.410245
0.411282
0.412224
0.413118
0.413988
0.414845
0.0834672
0.0863238
0.0893313
0.0925002
0.0958415
0.0993675
0.103091
0.107026
0.111187
0.11559
0.120253
0.125192
0.130427
0.135978
0.141865
0.148109
0.154732
0.161755
0.169201
0.177089
0.185439
0.194268
0.203588
0.213414
0.223772
0.2348
0.246782
0.259817
0.273636
0.287952
0.302562
0.317208
0.331575
0.345303
0.35803
0.369429
0.379263
0.38742
0.393928
0.398936
0.402678
0.405427
0.407452
0.408984
0.410205
0.411246
0.412191
0.413088
0.413961
0.41482
0.0832395
0.086088
0.0890868
0.0922464
0.0955782
0.0990943
0.102808
0.106732
0.110882
0.115274
0.119924
0.124851
0.130072
0.135609
0.141481
0.147711
0.154319
0.161328
0.16876
0.176636
0.184973
0.193789
0.203099
0.212914
0.223262
0.234269
0.24622
0.259237
0.273055
0.287378
0.302005
0.31668
0.331086
0.344865
0.357649
0.36911
0.379006
0.387221
0.393778
0.398825
0.402596
0.405366
0.407405
0.408945
0.410172
0.411217
0.412164
0.413063
0.413938
0.414799
0.0830503
0.0858913
0.0888827
0.0920346
0.0953582
0.0988655
0.10257
0.106484
0.110625
0.115007