/*--------------------------------*- C++ -*----------------------------------*\
  =========                 |
  \\      /  F ield         | OpenFOAM: The Open Source CFD Toolbox
   \\    /   O peration     | Website:  https://openfoam.org
    \\  /    A nd           | Version:  7
     \\/     M anipulation  |
\*---------------------------------------------------------------------------*/
FoamFile
{
    version     2.0;
    format      ascii;
    class       volScalarField;
    location    "8000";
    object      nut;
}
// * * * * * * * * * * * * * * * * * * * * * * * * * * * * * * * * * * * * * //

dimensions      [0 2 -1 0 0 0 0];

internalField   nonuniform List<scalar> 
4764
(
1.38424e-15
1.38555e-15
1.38673e-15
1.38779e-15
1.38872e-15
1.38952e-15
1.3584e-15
1.36106e-15
1.36355e-15
1.36589e-15
1.36808e-15
1.37012e-15
1.37201e-15
1.37375e-15
1.37536e-15
1.37688e-15
1.37821e-15
1.37941e-15
1.38047e-15
1.3814e-15
1.38219e-15
1.38279e-15
1.38332e-15
1.3837e-15
1.38393e-15
1.38403e-15
1.38397e-15
1.38378e-15
1.38346e-15
1.383e-15
1.38242e-15
1.38172e-15
1.38094e-15
1.38003e-15
1.379e-15
1.35089e-15
1.35357e-15
1.35609e-15
1.35844e-15
1.36064e-15
1.36269e-15
1.36459e-15
1.36635e-15
1.36798e-15
1.36953e-15
1.37089e-15
1.37209e-15
1.37316e-15
1.37409e-15
1.37487e-15
1.37545e-15
1.37596e-15
1.37634e-15
1.37658e-15
1.37668e-15
1.37663e-15
1.37644e-15
1.37612e-15
1.37566e-15
1.37508e-15
1.37438e-15
1.37359e-15
1.37267e-15
1.37162e-15
1.37039e-15
1.36909e-15
1.36768e-15
1.36613e-15
1.3434e-15
1.3461e-15
1.34863e-15
1.35099e-15
1.3532e-15
1.35527e-15
1.35718e-15
1.35896e-15
1.36061e-15
1.36218e-15
1.36355e-15
1.36477e-15
1.36584e-15
1.36677e-15
1.36754e-15
1.36812e-15
1.36862e-15
1.369e-15
1.36924e-15
1.36933e-15
1.36929e-15
1.3691e-15
1.36878e-15
1.36833e-15
1.36775e-15
1.36705e-15
1.36625e-15
1.36532e-15
1.36425e-15
1.36299e-15
1.36167e-15
1.36023e-15
1.35866e-15
1.3569e-15
1.35506e-15
1.35309e-15
1.35099e-15
1.34875e-15
1.34637e-15
1.34386e-15
1.34121e-15
1.33842e-15
1.33547e-15
1.3324e-15
1.32927e-15
1.33591e-15
1.33862e-15
1.34116e-15
1.34354e-15
1.34577e-15
1.34784e-15
1.34977e-15
1.35156e-15
1.35323e-15
1.3548e-15
1.35619e-15
1.35742e-15
1.3585e-15
1.35943e-15
1.3602e-15
1.36078e-15
1.36128e-15
1.36165e-15
1.36189e-15
1.36199e-15
1.36194e-15
1.36176e-15
1.36144e-15
1.36099e-15
1.36041e-15
1.35971e-15
1.3589e-15
1.35796e-15
1.35687e-15
1.35559e-15
1.35425e-15
1.35279e-15
1.3512e-15
1.3494e-15
1.34754e-15
1.34555e-15
1.34343e-15
1.34118e-15
1.33879e-15
1.33627e-15
1.33361e-15
1.3308e-15
1.32785e-15
1.3248e-15
1.32173e-15
1.32839e-15
1.33112e-15
1.33368e-15
1.33607e-15
1.33831e-15
1.34039e-15
1.34234e-15
1.34414e-15
1.34583e-15
1.3474e-15
1.3488e-15
1.35004e-15
1.35112e-15
1.35206e-15
1.35283e-15
1.35342e-15
1.35391e-15
1.35429e-15
1.35453e-15
1.35462e-15
1.35458e-15
1.3544e-15
1.35408e-15
1.35363e-15
1.35305e-15
1.35235e-15
1.35153e-15
1.35058e-15
1.34947e-15
1.34819e-15
1.34683e-15
1.34535e-15
1.34373e-15
1.34191e-15
1.34003e-15
1.33802e-15
1.33589e-15
1.33362e-15
1.33122e-15
1.32869e-15
1.32601e-15
1.3232e-15
1.32025e-15
1.31722e-15
1.3142e-15
1.32085e-15
1.3236e-15
1.32617e-15
1.32857e-15
1.33082e-15
1.33292e-15
1.33488e-15
1.33669e-15
1.33839e-15
1.33997e-15
1.34138e-15
1.34263e-15
1.34372e-15
1.34465e-15
1.34542e-15
1.34603e-15
1.34652e-15
1.34689e-15
1.34713e-15
1.34723e-15
1.34719e-15
1.34701e-15
1.34669e-15
1.34624e-15
1.34566e-15
1.34496e-15
1.34413e-15
1.34316e-15
1.34205e-15
1.34076e-15
1.33938e-15
1.33789e-15
1.33624e-15
1.33442e-15
1.33251e-15
1.33049e-15
1.32834e-15
1.32606e-15
1.32365e-15
1.3211e-15
1.31841e-15
1.31559e-15
1.31266e-15
1.30965e-15
1.30666e-15
1.31326e-15
1.31603e-15
1.31862e-15
1.32104e-15
1.3233e-15
1.32541e-15
1.32738e-15
1.32921e-15
1.33091e-15
1.33249e-15
1.33391e-15
1.33517e-15
1.33626e-15
1.3372e-15
1.33798e-15
1.3386e-15
1.33909e-15
1.33946e-15
1.3397e-15
1.3398e-15
1.33976e-15
1.33958e-15
1.33927e-15
1.33882e-15
1.33824e-15
1.33753e-15
1.33669e-15
1.33572e-15
1.33459e-15
1.3333e-15
1.33191e-15
1.33039e-15
1.32873e-15
1.3269e-15
1.32498e-15
1.32294e-15
1.32078e-15
1.31848e-15
1.31605e-15
1.31349e-15
1.3108e-15
1.30797e-15
1.30504e-15
1.30206e-15
1.29909e-15
1.30561e-15
1.30842e-15
1.31103e-15
1.31346e-15
1.31574e-15
1.31786e-15
1.31984e-15
1.32168e-15
1.3234e-15
1.32498e-15
1.3264e-15
1.32767e-15
1.32877e-15
1.32971e-15
1.3305e-15
1.33113e-15
1.33162e-15
1.332e-15
1.33223e-15
1.33233e-15
1.3323e-15
1.33212e-15
1.3318e-15
1.33135e-15
1.33077e-15
1.33006e-15
1.32921e-15
1.32823e-15
1.32709e-15
1.3258e-15
1.3244e-15
1.32286e-15
1.32119e-15
1.31935e-15
1.31741e-15
1.31536e-15
1.31318e-15
1.31087e-15
1.30843e-15
1.30586e-15
1.30316e-15
1.30033e-15
1.29741e-15
1.29444e-15
1.29148e-15
1.29792e-15
1.30076e-15
1.30339e-15
1.30584e-15
1.30813e-15
1.31027e-15
1.31226e-15
1.31411e-15
1.31583e-15
1.31742e-15
1.31885e-15
1.32012e-15
1.32123e-15
1.32218e-15
1.32297e-15
1.32361e-15
1.32411e-15
1.32448e-15
1.32472e-15
1.32482e-15
1.32479e-15
1.32461e-15
1.3243e-15
1.32384e-15
1.32326e-15
1.32254e-15
1.32169e-15
1.3207e-15
1.31955e-15
1.31826e-15
1.31684e-15
1.3153e-15
1.3136e-15
1.31176e-15
1.30981e-15
1.30774e-15
1.30555e-15
1.30323e-15
1.30078e-15
1.29819e-15
1.29548e-15
1.29266e-15
1.28974e-15
1.28678e-15
1.28383e-15
1.29016e-15
1.29305e-15
1.29571e-15
1.29817e-15
1.30048e-15
1.30263e-15
1.30463e-15
1.30649e-15
1.30822e-15
1.30981e-15
1.31125e-15
1.31252e-15
1.31364e-15
1.3146e-15
1.3154e-15
1.31604e-15
1.31655e-15
1.31692e-15
1.31716e-15
1.31727e-15
1.31723e-15
1.31705e-15
1.31674e-15
1.31629e-15
1.3157e-15
1.31498e-15
1.31412e-15
1.31312e-15
1.31197e-15
1.31067e-15
1.30924e-15
1.30768e-15
1.30598e-15
1.30413e-15
1.30217e-15
1.30009e-15
1.29788e-15
1.29555e-15
1.29308e-15
1.29049e-15
1.28777e-15
1.28495e-15
1.28204e-15
1.27909e-15
1.27614e-15
1.28235e-15
1.28529e-15
1.28797e-15
1.29046e-15
1.29278e-15
1.29494e-15
1.29695e-15
1.29883e-15
1.30056e-15
1.30216e-15
1.3036e-15
1.30488e-15
1.306e-15
1.30697e-15
1.30777e-15
1.30843e-15
1.30894e-15
1.30932e-15
1.30956e-15
1.30966e-15
1.30963e-15
1.30945e-15
1.30914e-15
1.30869e-15
1.3081e-15
1.30737e-15
1.3065e-15
1.30549e-15
1.30434e-15
1.30303e-15
1.3016e-15
1.30003e-15
1.29831e-15
1.29646e-15
1.29448e-15
1.29239e-15
1.29017e-15
1.28782e-15
1.28535e-15
1.28274e-15
1.28002e-15
1.27719e-15
1.27429e-15
1.27135e-15
1.2684e-15
1.27448e-15
1.27747e-15
1.28018e-15
1.28269e-15
1.28502e-15
1.2872e-15
1.28923e-15
1.29111e-15
1.29285e-15
1.29445e-15
1.2959e-15
1.29719e-15
1.29832e-15
1.29929e-15
1.3001e-15
1.30076e-15
1.30128e-15
1.30166e-15
1.30191e-15
1.30201e-15
1.30197e-15
1.3018e-15
1.30149e-15
1.30103e-15
1.30044e-15
1.29971e-15
1.29884e-15
1.29782e-15
1.29666e-15
1.29535e-15
1.2939e-15
1.29232e-15
1.2906e-15
1.28874e-15
1.28675e-15
1.28464e-15
1.28241e-15
1.28005e-15
1.27757e-15
1.27495e-15
1.27223e-15
1.2694e-15
1.2665e-15
1.26356e-15
1.26061e-15
1.26307e-15
1.26657e-15
1.2696e-15
1.27235e-15
1.27487e-15
1.27722e-15
1.27941e-15
1.28145e-15
1.28334e-15
1.28509e-15
1.2867e-15
1.28815e-15
1.28944e-15
1.29058e-15
1.29156e-15
1.29238e-15
1.29305e-15
1.29357e-15
1.29396e-15
1.2942e-15
1.29431e-15
1.29427e-15
1.2941e-15
1.29378e-15
1.29333e-15
1.29273e-15
1.292e-15
1.29112e-15
1.2901e-15
1.28893e-15
1.28761e-15
1.28616e-15
1.28457e-15
1.28284e-15
1.28097e-15
1.27897e-15
1.27685e-15
1.27461e-15
1.27224e-15
1.26974e-15
1.26712e-15
1.26439e-15
1.26156e-15
1.25866e-15
1.25573e-15
1.25277e-15
1.25513e-15
1.25862e-15
1.26168e-15
1.26446e-15
1.26701e-15
1.26937e-15
1.27157e-15
1.27362e-15
1.27552e-15
1.27728e-15
1.27889e-15
1.28035e-15
1.28165e-15
1.28279e-15
1.28378e-15
1.28461e-15
1.28528e-15
1.28581e-15
1.2862e-15
1.28645e-15
1.28655e-15
1.28652e-15
1.28635e-15
1.28603e-15
1.28557e-15
1.28498e-15
1.28424e-15
1.28335e-15
1.28232e-15
1.28115e-15
1.27983e-15
1.27837e-15
1.27676e-15
1.27502e-15
1.27315e-15
1.27114e-15
1.26901e-15
1.26676e-15
1.26437e-15
1.26187e-15
1.25924e-15
1.2565e-15
1.25368e-15
1.25078e-15
1.24785e-15
1.24489e-15
1.24716e-15
1.25063e-15
1.25372e-15
1.25652e-15
1.25909e-15
1.26147e-15
1.26369e-15
1.26575e-15
1.26766e-15
1.26942e-15
1.27104e-15
1.2725e-15
1.27381e-15
1.27496e-15
1.27595e-15
1.27678e-15
1.27747e-15
1.278e-15
1.27839e-15
1.27864e-15
1.27875e-15
1.27872e-15
1.27854e-15
1.27823e-15
1.27777e-15
1.27717e-15
1.27642e-15
1.27553e-15
1.2745e-15
1.27332e-15
1.27199e-15
1.27052e-15
1.26891e-15
1.26717e-15
1.26528e-15
1.26327e-15
1.26113e-15
1.25886e-15
1.25647e-15
1.25395e-15
1.25131e-15
1.24857e-15
1.24575e-15
1.24286e-15
1.23992e-15
1.23697e-15
1.23579e-15
1.23917e-15
1.24261e-15
1.24571e-15
1.24853e-15
1.25113e-15
1.25352e-15
1.25575e-15
1.25782e-15
1.25974e-15
1.26151e-15
1.26313e-15
1.2646e-15
1.26592e-15
1.26707e-15
1.26807e-15
1.26891e-15
1.2696e-15
1.27014e-15
1.27054e-15
1.27079e-15
1.2709e-15
1.27087e-15
1.27069e-15
1.27038e-15
1.26992e-15
1.26931e-15
1.26856e-15
1.26767e-15
1.26663e-15
1.26544e-15
1.26411e-15
1.26263e-15
1.26102e-15
1.25926e-15
1.25737e-15
1.25534e-15
1.25319e-15
1.25092e-15
1.24851e-15
1.24599e-15
1.24335e-15
1.2406e-15
1.23778e-15
1.23489e-15
1.23196e-15
1.229e-15
1.22773e-15
1.23115e-15
1.23455e-15
1.23767e-15
1.24051e-15
1.24312e-15
1.24553e-15
1.24777e-15
1.24985e-15
1.25178e-15
1.25356e-15
1.25518e-15
1.25666e-15
1.25798e-15
1.25914e-15
1.26014e-15
1.26099e-15
1.26169e-15
1.26223e-15
1.26263e-15
1.26289e-15
1.263e-15
1.26297e-15
1.26279e-15
1.26248e-15
1.26201e-15
1.26141e-15
1.26065e-15
1.25976e-15
1.25871e-15
1.25752e-15
1.25618e-15
1.2547e-15
1.25307e-15
1.25131e-15
1.24941e-15
1.24738e-15
1.24522e-15
1.24293e-15
1.24052e-15
1.23798e-15
1.23534e-15
1.23259e-15
1.22976e-15
1.22688e-15
1.22395e-15
1.22099e-15
1.21652e-15
1.21966e-15
1.22309e-15
1.22646e-15
1.22958e-15
1.23244e-15
1.23506e-15
1.23749e-15
1.23974e-15
1.24183e-15
1.24377e-15
1.24556e-15
1.24719e-15
1.24867e-15
1.25e-15
1.25116e-15
1.25217e-15
1.25303e-15
1.25373e-15
1.25428e-15
1.25468e-15
1.25494e-15
1.25505e-15
1.25502e-15
1.25485e-15
1.25453e-15
1.25407e-15
1.25346e-15
1.2527e-15
1.2518e-15
1.25074e-15
1.24955e-15
1.2482e-15
1.24671e-15
1.24508e-15
1.24331e-15
1.2414e-15
1.23936e-15
1.2372e-15
1.2349e-15
1.23248e-15
1.22994e-15
1.22729e-15
1.22454e-15
1.22171e-15
1.21882e-15
1.21589e-15
1.21294e-15
1.20837e-15
1.21158e-15
1.215e-15
1.21834e-15
1.22146e-15
1.22433e-15
1.22697e-15
1.22941e-15
1.23168e-15
1.23378e-15
1.23572e-15
1.23751e-15
1.23915e-15
1.24064e-15
1.24197e-15
1.24314e-15
1.24416e-15
1.24502e-15
1.24573e-15
1.24628e-15
1.24669e-15
1.24695e-15
1.24706e-15
1.24703e-15
1.24686e-15
1.24654e-15
1.24607e-15
1.24546e-15
1.2447e-15
1.24379e-15
1.24274e-15
1.24153e-15
1.24018e-15
1.23869e-15
1.23705e-15
1.23527e-15
1.23336e-15
1.23131e-15
1.22913e-15
1.22683e-15
1.2244e-15
1.22185e-15
1.2192e-15
1.21645e-15
1.21362e-15
1.21073e-15
1.2078e-15
1.20485e-15
1.2002e-15
1.20347e-15
1.20687e-15
1.21019e-15
1.21331e-15
1.21618e-15
1.21884e-15
1.22129e-15
1.22357e-15
1.22568e-15
1.22763e-15
1.22943e-15
1.23108e-15
1.23257e-15
1.23391e-15
1.23508e-15
1.23611e-15
1.23697e-15
1.23768e-15
1.23824e-15
1.23865e-15
1.23891e-15
1.23903e-15
1.239e-15
1.23883e-15
1.23851e-15
1.23804e-15
1.23742e-15
1.23666e-15
1.23575e-15
1.23469e-15
1.23348e-15
1.23212e-15
1.23062e-15
1.22898e-15
1.2272e-15
1.22527e-15
1.22322e-15
1.22103e-15
1.21872e-15
1.21628e-15
1.21373e-15
1.21107e-15
1.20831e-15
1.20548e-15
1.20259e-15
1.19967e-15
1.19672e-15
1.19201e-15
1.19532e-15
1.1987e-15
1.20201e-15
1.20511e-15
1.208e-15
1.21067e-15
1.21313e-15
1.21542e-15
1.21754e-15
1.2195e-15
1.22131e-15
1.22296e-15
1.22446e-15
1.2258e-15
1.22698e-15
1.22801e-15
1.22888e-15
1.2296e-15
1.23016e-15
1.23058e-15
1.23084e-15
1.23096e-15
1.23093e-15
1.23076e-15
1.23043e-15
1.22996e-15
1.22935e-15
1.22858e-15
1.22766e-15
1.2266e-15
1.22539e-15
1.22403e-15
1.22252e-15
1.22087e-15
1.21908e-15
1.21715e-15
1.21509e-15
1.21289e-15
1.21057e-15
1.20812e-15
1.20556e-15
1.2029e-15
1.20014e-15
1.1973e-15
1.19441e-15
1.19149e-15
1.18854e-15
1.18376e-15
1.18712e-15
1.19049e-15
1.19378e-15
1.19688e-15
1.19977e-15
1.20245e-15
1.20493e-15
1.20723e-15
1.20937e-15
1.21134e-15
1.21315e-15
1.21481e-15
1.21631e-15
1.21766e-15
1.21885e-15
1.21988e-15
1.22076e-15
1.22148e-15
1.22204e-15
1.22246e-15
1.22273e-15
1.22285e-15
1.22282e-15
1.22265e-15
1.22232e-15
1.22185e-15
1.22123e-15
1.22046e-15
1.21954e-15
1.21847e-15
1.21726e-15
1.21589e-15
1.21438e-15
1.21272e-15
1.21092e-15
1.20899e-15
1.20691e-15
1.20471e-15
1.20238e-15
1.19992e-15
1.19735e-15
1.19468e-15
1.19191e-15
1.18908e-15
1.18618e-15
1.18325e-15
1.1803e-15
1.17192e-15
1.17547e-15
1.17886e-15
1.18223e-15
1.18551e-15
1.1886e-15
1.1915e-15
1.19419e-15
1.19669e-15
1.199e-15
1.20115e-15
1.20313e-15
1.20495e-15
1.20661e-15
1.20812e-15
1.20948e-15
1.21067e-15
1.21171e-15
1.21259e-15
1.21332e-15
1.21389e-15
1.21431e-15
1.21458e-15
1.2147e-15
1.21467e-15
1.2145e-15
1.21417e-15
1.2137e-15
1.21308e-15
1.2123e-15
1.21138e-15
1.21031e-15
1.20908e-15
1.20771e-15
1.20619e-15
1.20453e-15
1.20272e-15
1.20078e-15
1.1987e-15
1.19648e-15
1.19414e-15
1.19168e-15
1.1891e-15
1.18641e-15
1.18364e-15
1.18079e-15
1.1779e-15
1.17496e-15
1.17201e-15
1.16035e-15
1.16351e-15
1.16711e-15
1.17054e-15
1.17391e-15
1.17718e-15
1.18027e-15
1.18318e-15
1.18588e-15
1.18839e-15
1.19072e-15
1.19288e-15
1.19487e-15
1.1967e-15
1.19837e-15
1.19989e-15
1.20125e-15
1.20245e-15
1.2035e-15
1.20438e-15
1.20511e-15
1.20569e-15
1.20611e-15
1.20639e-15
1.20651e-15
1.20648e-15
1.20631e-15
1.20598e-15
1.20551e-15
1.20488e-15
1.2041e-15
1.20318e-15
1.2021e-15
1.20087e-15
1.19949e-15
1.19796e-15
1.19629e-15
1.19448e-15
1.19252e-15
1.19043e-15
1.1882e-15
1.18585e-15
1.18337e-15
1.18078e-15
1.17809e-15
1.17531e-15
1.17245e-15
1.16954e-15
1.1666e-15
1.16365e-15
1.1518e-15
1.15506e-15
1.15869e-15
1.16215e-15
1.16552e-15
1.16878e-15
1.17188e-15
1.1748e-15
1.17751e-15
1.18004e-15
1.18238e-15
1.18455e-15
1.18656e-15
1.1884e-15
1.19008e-15
1.19161e-15
1.19298e-15
1.19418e-15
1.19524e-15
1.19613e-15
1.19687e-15
1.19745e-15
1.19787e-15
1.19815e-15
1.19827e-15
1.19825e-15
1.19807e-15
1.19775e-15
1.19727e-15
1.19664e-15
1.19586e-15
1.19493e-15
1.19384e-15
1.1926e-15
1.19122e-15
1.18968e-15
1.188e-15
1.18618e-15
1.18421e-15
1.18211e-15
1.17987e-15
1.1775e-15
1.17501e-15
1.17241e-15
1.1697e-15
1.1669e-15
1.16404e-15
1.16112e-15
1.15817e-15
1.15521e-15
1.14323e-15
1.14656e-15
1.1502e-15
1.15368e-15
1.15706e-15
1.16032e-15
1.16342e-15
1.16634e-15
1.16908e-15
1.17162e-15
1.17398e-15
1.17616e-15
1.17818e-15
1.18004e-15
1.18173e-15
1.18327e-15
1.18464e-15
1.18586e-15
1.18692e-15
1.18782e-15
1.18856e-15
1.18915e-15
1.18958e-15
1.18986e-15
1.18999e-15
1.18996e-15
1.18978e-15
1.18946e-15
1.18898e-15
1.18834e-15
1.18756e-15
1.18662e-15
1.18553e-15
1.18428e-15
1.18289e-15
1.18134e-15
1.17965e-15
1.17781e-15
1.17584e-15
1.17372e-15
1.17146e-15
1.16908e-15
1.16658e-15
1.16396e-15
1.16123e-15
1.15842e-15
1.15554e-15
1.15261e-15
1.14966e-15
1.14669e-15
1.13463e-15
1.13801e-15
1.14163e-15
1.14513e-15
1.14851e-15
1.15178e-15
1.15488e-15
1.15782e-15
1.16056e-15
1.16312e-15
1.1655e-15
1.1677e-15
1.16974e-15
1.17161e-15
1.17331e-15
1.17486e-15
1.17625e-15
1.17747e-15
1.17854e-15
1.17945e-15
1.1802e-15
1.18079e-15
1.18123e-15
1.18151e-15
1.18164e-15
1.18161e-15
1.18143e-15
1.1811e-15
1.18062e-15
1.17998e-15
1.17919e-15
1.17825e-15
1.17715e-15
1.1759e-15
1.17449e-15
1.17293e-15
1.17123e-15
1.16938e-15
1.16739e-15
1.16525e-15
1.16299e-15
1.16059e-15
1.15806e-15
1.15543e-15
1.15269e-15
1.14986e-15
1.14697e-15
1.14403e-15
1.14107e-15
1.1381e-15
1.12601e-15
1.12941e-15
1.13301e-15
1.13651e-15
1.13989e-15
1.14316e-15
1.14627e-15
1.14921e-15
1.15197e-15
1.15455e-15
1.15695e-15
1.15916e-15
1.16121e-15
1.1631e-15
1.16482e-15
1.16638e-15
1.16778e-15
1.16901e-15
1.17009e-15
1.171e-15
1.17176e-15
1.17236e-15
1.1728e-15
1.17308e-15
1.17321e-15
1.17319e-15
1.17301e-15
1.17268e-15
1.17219e-15
1.17155e-15
1.17076e-15
1.1698e-15
1.16869e-15
1.16743e-15
1.16602e-15
1.16445e-15
1.16273e-15
1.16087e-15
1.15886e-15
1.15671e-15
1.15443e-15
1.15201e-15
1.14947e-15
1.14682e-15
1.14407e-15
1.14123e-15
1.13833e-15
1.13538e-15
1.13241e-15
1.12945e-15
1.11737e-15
1.12077e-15
1.12433e-15
1.12783e-15
1.13121e-15
1.13447e-15
1.13758e-15
1.14053e-15
1.14331e-15
1.1459e-15
1.14831e-15
1.15054e-15
1.15261e-15
1.15451e-15
1.15624e-15
1.15781e-15
1.15922e-15
1.16047e-15
1.16156e-15
1.16248e-15
1.16324e-15
1.16385e-15
1.16429e-15
1.16458e-15
1.16471e-15
1.16469e-15
1.16451e-15
1.16418e-15
1.16369e-15
1.16304e-15
1.16224e-15
1.16128e-15
1.16016e-15
1.15889e-15
1.15746e-15
1.15588e-15
1.15415e-15
1.15227e-15
1.15025e-15
1.14809e-15
1.14579e-15
1.14336e-15
1.1408e-15
1.13814e-15
1.13538e-15
1.13253e-15
1.12962e-15
1.12668e-15
1.12372e-15
1.12077e-15
1.10875e-15
1.11213e-15
1.11565e-15
1.11912e-15
1.12249e-15
1.12574e-15
1.12885e-15
1.1318e-15
1.13458e-15
1.13718e-15
1.1396e-15
1.14185e-15
1.14393e-15
1.14584e-15
1.14759e-15
1.14917e-15
1.15059e-15
1.15184e-15
1.15294e-15
1.15387e-15
1.15464e-15
1.15525e-15
1.1557e-15
1.156e-15
1.15613e-15
1.15611e-15
1.15593e-15
1.15559e-15
1.1551e-15
1.15445e-15
1.15364e-15
1.15267e-15
1.15154e-15
1.15026e-15
1.14883e-15
1.14723e-15
1.14549e-15
1.1436e-15
1.14157e-15
1.13939e-15
1.13708e-15
1.13464e-15
1.13208e-15
1.12941e-15
1.12664e-15
1.1238e-15
1.12089e-15
1.11796e-15
1.11502e-15
1.1121e-15
1.10021e-15
1.10353e-15
1.10699e-15
1.11042e-15
1.11377e-15
1.117e-15
1.12009e-15
1.12304e-15
1.12581e-15
1.12841e-15
1.13084e-15
1.1331e-15
1.13519e-15
1.13711e-15
1.13886e-15
1.14045e-15
1.14188e-15
1.14315e-15
1.14425e-15
1.14519e-15
1.14596e-15
1.14658e-15
1.14703e-15
1.14733e-15
1.14747e-15
1.14744e-15
1.14726e-15
1.14693e-15
1.14643e-15
1.14577e-15
1.14496e-15
1.14398e-15
1.14285e-15
1.14156e-15
1.14012e-15
1.13852e-15
1.13677e-15
1.13487e-15
1.13283e-15
1.13065e-15
1.12833e-15
1.12589e-15
1.12332e-15
1.12066e-15
1.11789e-15
1.11506e-15
1.11217e-15
1.10926e-15
1.10635e-15
1.10348e-15
1.09178e-15
1.09503e-15
1.09842e-15
1.1018e-15
1.1051e-15
1.1083e-15
1.11137e-15
1.11429e-15
1.11705e-15
1.11965e-15
1.12207e-15
1.12433e-15
1.12641e-15
1.12834e-15
1.1301e-15
1.13169e-15
1.13312e-15
1.13439e-15
1.1355e-15
1.13644e-15
1.13723e-15
1.13784e-15
1.1383e-15
1.1386e-15
1.13874e-15
1.13872e-15
1.13854e-15
1.1382e-15
1.1377e-15
1.13704e-15
1.13622e-15
1.13524e-15
1.13411e-15
1.13281e-15
1.13137e-15
1.12976e-15
1.12801e-15
1.12611e-15
1.12407e-15
1.12189e-15
1.11957e-15
1.11714e-15
1.11458e-15
1.11193e-15
1.10919e-15
1.10638e-15
1.10352e-15
1.10065e-15
1.09779e-15
1.09498e-15
1.08352e-15
1.08669e-15
1.08999e-15
1.09329e-15
1.09654e-15
1.09969e-15
1.10272e-15
1.10561e-15
1.10835e-15
1.11092e-15
1.11333e-15
1.11558e-15
1.11766e-15
1.11958e-15
1.12133e-15
1.12292e-15
1.12435e-15
1.12562e-15
1.12673e-15
1.12768e-15
1.12846e-15
1.12908e-15
1.12954e-15
1.12984e-15
1.12998e-15
1.12995e-15
1.12977e-15
1.12943e-15
1.12894e-15
1.12828e-15
1.12746e-15
1.12648e-15
1.12535e-15
1.12405e-15
1.12261e-15
1.12101e-15
1.11926e-15
1.11737e-15
1.11533e-15
1.11316e-15
1.11086e-15
1.10844e-15
1.10591e-15
1.10328e-15
1.10057e-15
1.0978e-15
1.09499e-15
1.09217e-15
1.08937e-15
1.08664e-15
1.07546e-15
1.07853e-15
1.08174e-15
1.08497e-15
1.08815e-15
1.09124e-15
1.09422e-15
1.09706e-15
1.09976e-15
1.10231e-15
1.10469e-15
1.10691e-15
1.10897e-15
1.11088e-15
1.11262e-15
1.1142e-15
1.11562e-15
1.11689e-15
1.11799e-15
1.11893e-15
1.11971e-15
1.12033e-15
1.12079e-15
1.12109e-15
1.12123e-15
1.1212e-15
1.12103e-15
1.12069e-15
1.12019e-15
1.11953e-15
1.11872e-15
1.11775e-15
1.11662e-15
1.11533e-15
1.11389e-15
1.1123e-15
1.11057e-15
1.10869e-15
1.10668e-15
1.10453e-15
1.10225e-15
1.09986e-15
1.09737e-15
1.09478e-15
1.09211e-15
1.08939e-15
1.08664e-15
1.08388e-15
1.08116e-15
1.07851e-15
1.06762e-15
1.07059e-15
1.07371e-15
1.07686e-15
1.07996e-15
1.08299e-15
1.08591e-15
1.0887e-15
1.09135e-15
1.09385e-15
1.0962e-15
1.09839e-15
1.10043e-15
1.1023e-15
1.10402e-15
1.10559e-15
1.10699e-15
1.10824e-15
1.10934e-15
1.11027e-15
1.11104e-15
1.11166e-15
1.11211e-15
1.11241e-15
1.11254e-15
1.11252e-15
1.11235e-15
1.11201e-15
1.11152e-15
1.11087e-15
1.11006e-15
1.1091e-15
1.10798e-15
1.10671e-15
1.10529e-15
1.10372e-15
1.102e-15
1.10015e-15
1.09816e-15
1.09605e-15
1.09381e-15
1.09146e-15
1.08901e-15
1.08647e-15
1.08386e-15
1.08119e-15
1.0785e-15
1.07581e-15
1.07316e-15
1.07058e-15
1.05995e-15
1.06285e-15
1.06588e-15
1.06896e-15
1.072e-15
1.07496e-15
1.07782e-15
1.08056e-15
1.08316e-15
1.08561e-15
1.08792e-15
1.09007e-15
1.09207e-15
1.09391e-15
1.09561e-15
1.09714e-15
1.09853e-15
1.09976e-15
1.10083e-15
1.10175e-15
1.10252e-15
1.10312e-15
1.10357e-15
1.10386e-15
1.104e-15
1.10398e-15
1.10381e-15
1.10348e-15
1.10299e-15
1.10235e-15
1.10155e-15
1.1006e-15
1.0995e-15
1.09825e-15
1.09685e-15
1.09531e-15
1.09362e-15
1.0918e-15
1.08985e-15
1.08777e-15
1.08558e-15
1.08327e-15
1.08087e-15
1.07838e-15
1.07582e-15
1.07321e-15
1.07057e-15
1.06794e-15
1.06535e-15
1.06284e-15
1.05237e-15
1.05522e-15
1.05821e-15
1.06123e-15
1.06422e-15
1.06714e-15
1.06995e-15
1.07264e-15
1.07519e-15
1.0776e-15
1.07987e-15
1.08198e-15
1.08394e-15
1.08575e-15
1.08741e-15
1.08892e-15
1.09028e-15
1.09149e-15
1.09254e-15
1.09345e-15
1.0942e-15
1.09479e-15
1.09523e-15
1.09552e-15
1.09565e-15
1.09564e-15
1.09546e-15
1.09514e-15
1.09466e-15
1.09403e-15
1.09325e-15
1.09232e-15
1.09124e-15
1.09001e-15
1.08864e-15
1.08712e-15
1.08547e-15
1.08368e-15
1.08177e-15
1.07973e-15
1.07758e-15
1.07531e-15
1.07295e-15
1.07051e-15
1.06799e-15
1.06542e-15
1.06282e-15
1.06023e-15
1.05767e-15
1.05519e-15
1.04473e-15
1.04759e-15
1.05057e-15
1.05358e-15
1.05655e-15
1.05945e-15
1.06224e-15
1.0649e-15
1.06742e-15
1.0698e-15
1.07203e-15
1.07412e-15
1.07605e-15
1.07783e-15
1.07946e-15
1.08094e-15
1.08228e-15
1.08346e-15
1.0845e-15
1.08538e-15
1.08612e-15
1.0867e-15
1.08713e-15
1.08741e-15
1.08755e-15
1.08753e-15
1.08736e-15
1.08704e-15
1.08657e-15
1.08596e-15
1.08519e-15
1.08427e-15
1.08321e-15
1.08201e-15
1.08066e-15
1.07917e-15
1.07755e-15
1.0758e-15
1.07391e-15
1.07191e-15
1.06978e-15
1.06755e-15
1.06521e-15
1.06279e-15
1.06029e-15
1.05773e-15
1.05514e-15
1.05254e-15
1.04997e-15
1.04747e-15
1.03678e-15
1.03972e-15
1.04276e-15
1.04582e-15
1.04884e-15
1.05176e-15
1.05456e-15
1.05723e-15
1.05975e-15
1.06213e-15
1.06435e-15
1.06642e-15
1.06834e-15
1.0701e-15
1.07171e-15
1.07318e-15
1.07449e-15
1.07566e-15
1.07668e-15
1.07755e-15
1.07828e-15
1.07885e-15
1.07927e-15
1.07955e-15
1.07968e-15
1.07966e-15
1.0795e-15
1.07919e-15
1.07873e-15
1.07812e-15
1.07736e-15
1.07646e-15
1.07542e-15
1.07423e-15
1.0729e-15
1.07144e-15
1.06983e-15
1.06809e-15
1.06623e-15
1.06423e-15
1.06212e-15
1.05989e-15
1.05755e-15
1.05511e-15
1.05259e-15
1.05e-15
1.04736e-15
1.0447e-15
1.04205e-15
1.03945e-15
1.0282e-15
1.03133e-15
1.03452e-15
1.03771e-15
1.04083e-15
1.04385e-15
1.04672e-15
1.04945e-15
1.05202e-15
1.05444e-15
1.05668e-15
1.05877e-15
1.0607e-15
1.06247e-15
1.06408e-15
1.06555e-15
1.06686e-15
1.06802e-15
1.06904e-15
1.0699e-15
1.07062e-15
1.07119e-15
1.07161e-15
1.07189e-15
1.07202e-15
1.072e-15
1.07183e-15
1.07152e-15
1.07107e-15
1.07047e-15
1.06972e-15
1.06882e-15
1.06779e-15
1.0666e-15
1.06528e-15
1.06381e-15
1.06221e-15
1.06046e-15
1.05858e-15
1.05657e-15
1.05443e-15
1.05216e-15
1.04977e-15
1.04727e-15
1.04467e-15
1.04198e-15
1.03922e-15
1.03642e-15
1.0336e-15
1.0308e-15
1.01853e-15
1.02197e-15
1.02544e-15
1.02887e-15
1.03221e-15
1.0354e-15
1.03843e-15
1.0413e-15
1.04398e-15
1.04649e-15
1.04881e-15
1.05096e-15
1.05294e-15
1.05476e-15
1.0564e-15
1.05789e-15
1.05923e-15
1.0604e-15
1.06143e-15
1.0623e-15
1.06303e-15
1.0636e-15
1.06403e-15
1.0643e-15
1.06443e-15
1.06442e-15
1.06425e-15
1.06394e-15
1.06348e-15
1.06288e-15
1.06212e-15
1.06122e-15
1.06017e-15
1.05898e-15
1.05763e-15
1.05614e-15
1.0545e-15
1.05272e-15
1.05078e-15
1.04871e-15
1.04649e-15
1.04412e-15
1.04162e-15
1.03898e-15
1.03622e-15
1.03334e-15
1.03035e-15
1.02729e-15
1.02418e-15
1.02104e-15
1.00712e-15
1.01107e-15
1.01499e-15
1.0188e-15
1.02248e-15
1.02598e-15
1.02928e-15
1.03238e-15
1.03526e-15
1.03794e-15
1.04042e-15
1.0427e-15
1.04479e-15
1.04669e-15
1.04842e-15
1.04997e-15
1.05136e-15
1.05258e-15
1.05364e-15
1.05455e-15
1.05529e-15
1.05588e-15
1.05632e-15
1.05661e-15
1.05674e-15
1.05672e-15
1.05656e-15
1.05624e-15
1.05577e-15
1.05514e-15
1.05437e-15
1.05344e-15
1.05235e-15
1.05111e-15
1.04972e-15
1.04816e-15
1.04645e-15
1.04457e-15
1.04253e-15
1.04032e-15
1.03795e-15
1.03541e-15
1.0327e-15
1.02983e-15
1.02679e-15
1.02359e-15
1.02025e-15
1.01678e-15
1.0132e-15
1.00955e-15
9.93176e-16
9.97852e-16
1.00241e-15
1.00682e-15
1.01101e-15
1.01498e-15
1.01869e-15
1.02216e-15
1.02537e-15
1.02833e-15
1.03105e-15
1.03355e-15
1.03583e-15
1.03789e-15
1.03976e-15
1.04143e-15
1.04292e-15
1.04422e-15
1.04536e-15
1.04632e-15
1.04711e-15
1.04774e-15
1.0482e-15
1.04851e-15
1.04865e-15
1.04863e-15
1.04846e-15
1.04812e-15
1.04762e-15
1.04697e-15
1.04614e-15
1.04516e-15
1.044e-15
1.04268e-15
1.04118e-15
1.03951e-15
1.03765e-15
1.03561e-15
1.03339e-15
1.03097e-15
1.02835e-15
1.02552e-15
1.02249e-15
1.01924e-15
1.01578e-15
1.0121e-15
1.00822e-15
1.00415e-15
9.99899e-16
9.95491e-16
9.75677e-16
9.81339e-16
9.86798e-16
9.92014e-16
9.96953e-16
1.00159e-15
1.0059e-15
1.0099e-15
1.01359e-15
1.01699e-15
1.02009e-15
1.02292e-15
1.02549e-15
1.02781e-15
1.0299e-15
1.03176e-15
1.03341e-15
1.03486e-15
1.03611e-15
1.03717e-15
1.03804e-15
1.03873e-15
1.03924e-15
1.03958e-15
1.03973e-15
1.03972e-15
1.03953e-15
1.03916e-15
1.03862e-15
1.0379e-15
1.037e-15
1.03592e-15
1.03465e-15
1.03318e-15
1.03152e-15
1.02965e-15
1.02758e-15
1.02529e-15
1.02277e-15
1.02001e-15
1.01701e-15
1.01376e-15
1.01024e-15
1.00644e-15
1.00237e-15
9.98012e-16
9.93371e-16
9.88458e-16
9.83286e-16
9.77868e-16
9.53537e-16
9.60436e-16
9.67043e-16
9.73325e-16
9.79246e-16
9.84782e-16
9.89922e-16
9.9467e-16
9.99036e-16
1.00303e-15
1.00668e-15
1.00999e-15
1.01299e-15
1.01569e-15
1.01811e-15
1.02027e-15
1.02217e-15
1.02384e-15
1.02527e-15
1.02648e-15
1.02748e-15
1.02826e-15
1.02884e-15
1.02923e-15
1.02941e-15
1.02939e-15
1.02918e-15
1.02877e-15
1.02816e-15
1.02734e-15
1.02632e-15
1.02508e-15
1.02363e-15
1.02195e-15
1.02004e-15
1.01789e-15
1.01548e-15
1.01281e-15
1.00986e-15
1.00662e-15
1.00307e-15
9.99208e-16
9.95006e-16
9.90455e-16
9.85544e-16
9.80266e-16
9.74619e-16
9.68613e-16
9.62263e-16
9.55581e-16
9.25796e-16
9.34106e-16
9.42058e-16
9.49615e-16
9.56739e-16
9.63402e-16
9.69592e-16
9.75308e-16
9.80564e-16
9.85373e-16
9.89757e-16
9.93734e-16
9.97327e-16
1.00056e-15
1.00345e-15
1.00602e-15
1.00828e-15
1.01026e-15
1.01195e-15
1.01339e-15
1.01457e-15
1.0155e-15
1.01618e-15
1.01663e-15
1.01685e-15
1.01684e-15
1.01659e-15
1.01611e-15
1.01539e-15
1.01444e-15
1.01323e-15
1.01178e-15
1.01006e-15
1.00807e-15
1.0058e-15
1.00324e-15
1.00036e-15
9.97158e-16
9.93615e-16
9.8971e-16
9.85426e-16
9.80743e-16
9.75644e-16
9.70112e-16
9.64135e-16
9.57708e-16
9.50832e-16
9.43518e-16
9.35791e-16
9.27669e-16
8.91931e-16
9.0167e-16
9.11027e-16
9.19957e-16
9.28411e-16
9.36352e-16
9.43758e-16
9.50625e-16
9.56958e-16
9.6277e-16
9.68077e-16
9.72901e-16
9.77265e-16
9.81192e-16
9.84706e-16
9.87828e-16
9.90579e-16
9.92977e-16
9.9504e-16
9.9678e-16
9.9821e-16
9.99338e-16
1.00017e-15
1.00072e-15
1.00099e-15
1.00098e-15
1.00068e-15
1.00011e-15
9.99243e-16
9.98089e-16
9.96636e-16
9.94875e-16
9.92796e-16
9.90385e-16
9.87628e-16
9.8451e-16
9.81012e-16
9.77116e-16
9.72802e-16
9.68049e-16
9.62836e-16
9.57144e-16
9.50956e-16
9.44259e-16
9.37045e-16
9.29315e-16
9.21078e-16
9.12359e-16
9.03192e-16
8.93613e-16
8.52123e-16
8.63108e-16
8.73738e-16
8.83956e-16
8.937e-16
9.0292e-16
9.11582e-16
9.19668e-16
9.27174e-16
9.34101e-16
9.40461e-16
9.46268e-16
9.51542e-16
9.56305e-16
9.60578e-16
9.64385e-16
9.67744e-16
9.70678e-16
9.73204e-16
9.75337e-16
9.77092e-16
9.78479e-16
9.79507e-16
9.80185e-16
9.80516e-16
9.80503e-16
9.80147e-16
9.79444e-16
9.78392e-16
9.76982e-16
9.75206e-16
9.73055e-16
9.70514e-16
9.6757e-16
9.64206e-16
9.60406e-16
9.56149e-16
9.51418e-16
9.46191e-16
9.40451e-16
9.3418e-16
9.27363e-16
9.19989e-16
9.12055e-16
9.03562e-16
8.94525e-16
8.84966e-16
8.74925e-16
8.64452e-16
8.53599e-16
8.0732e-16
8.19189e-16
8.30772e-16
8.41999e-16
8.52799e-16
8.63111e-16
8.72886e-16
8.82091e-16
8.90707e-16
8.98723e-16
9.06137e-16
9.12955e-16
9.19186e-16
9.24844e-16
9.29947e-16
9.34513e-16
9.38559e-16
9.42103e-16
9.45164e-16
9.47755e-16
9.49892e-16
9.51583e-16
9.52841e-16
9.53671e-16
9.54079e-16
9.54067e-16
9.53637e-16
9.52785e-16
9.51506e-16
9.49794e-16
9.4764e-16
9.45033e-16
9.4196e-16
9.38407e-16
9.34359e-16
9.298e-16
9.24715e-16
9.19086e-16
9.129e-16
9.06145e-16
8.98811e-16
8.90894e-16
8.82394e-16
8.73321e-16
8.63692e-16
8.53534e-16
8.42887e-16
8.31804e-16
8.2035e-16
8.08586e-16
7.59041e-16
7.71339e-16
7.83436e-16
7.95258e-16
8.0673e-16
8.17781e-16
8.28353e-16
8.38401e-16
8.47892e-16
8.568e-16
8.6511e-16
8.72813e-16
8.79907e-16
8.86395e-16
8.92284e-16
8.97583e-16
9.02305e-16
9.0646e-16
9.10063e-16
9.13125e-16
9.15657e-16
9.17667e-16
9.19165e-16
9.20157e-16
9.20646e-16
9.20636e-16
9.20128e-16
9.19117e-16
9.17601e-16
9.15574e-16
9.13027e-16
9.09952e-16
9.06339e-16
9.02178e-16
8.97456e-16
8.92164e-16
8.86292e-16
8.79833e-16
8.7278e-16
8.65133e-16
8.56894e-16
8.48071e-16
8.3868e-16
8.28743e-16
8.18292e-16
8.07367e-16
7.96019e-16
7.84313e-16
7.72318e-16
7.60103e-16
7.09023e-16
7.21301e-16
7.33457e-16
7.45422e-16
7.57119e-16
7.68477e-16
7.79434e-16
7.89935e-16
7.99939e-16
8.09407e-16
8.18314e-16
8.26637e-16
8.34361e-16
8.41477e-16
8.4798e-16
8.5387e-16
8.59147e-16
8.63817e-16
8.67885e-16
8.71355e-16
8.74236e-16
8.7653e-16
8.78244e-16
8.79381e-16
8.79945e-16
8.79937e-16
8.79357e-16
8.78204e-16
8.76475e-16
8.74167e-16
8.71275e-16
8.67794e-16
8.63719e-16
8.59045e-16
8.53768e-16
8.47886e-16
8.41399e-16
8.34308e-16
8.26621e-16
8.18346e-16
8.095e-16
8.00103e-16
7.90183e-16
7.79773e-16
7.68915e-16
7.57658e-16
7.4606e-16
7.34186e-16
7.2211e-16
7.09897e-16
6.58882e-16
6.70771e-16
6.82599e-16
6.94304e-16
7.05816e-16
7.17065e-16
7.27989e-16
7.38533e-16
7.48649e-16
7.58294e-16
7.67431e-16
7.76031e-16
7.84067e-16
7.9152e-16
7.98375e-16
8.04621e-16
8.10248e-16
8.15253e-16
8.19631e-16
8.23383e-16
8.26507e-16
8.29002e-16
8.30872e-16
8.32115e-16
8.32733e-16
8.32726e-16
8.32096e-16