/*--------------------------------*- C++ -*----------------------------------*\
  =========                 |
  \\      /  F ield         | OpenFOAM: The Open Source CFD Toolbox
   \\    /   O peration     | Website:  https://openfoam.org
    \\  /    A nd           | Version:  7
     \\/     M anipulation  |
\*---------------------------------------------------------------------------*/
FoamFile
{
    version     2.0;
    format      ascii;
    class       volScalarField;
    location    "48000";
    object      p;
}
// * * * * * * * * * * * * * * * * * * * * * * * * * * * * * * * * * * * * * //

dimensions      [0 2 -2 0 0 0 0];

internalField   nonuniform List<scalar> 
4838
(
-3.15952e-17
-3.17184e-17
-3.17461e-17
-3.191e-17
-3.17747e-17
-3.19547e-17
-3.17277e-17
-3.16132e-17
-3.14979e-17
-3.18743e-17
-3.16479e-17
-3.16319e-17
-3.16569e-17
-3.15502e-17
-3.12915e-17
-3.14132e-17
-3.18698e-17
-3.18446e-17
-3.16874e-17
-3.18359e-17
-3.17952e-17
-3.1379e-17
-3.14894e-17
-3.15423e-17
-3.15551e-17
-3.17133e-17
-3.15008e-17
-3.14902e-17
-3.14222e-17
-3.12559e-17
-3.16112e-17
-3.14858e-17
-3.12907e-17
-3.17529e-17
-3.15621e-17
-3.15658e-17
-3.12832e-17
-3.16444e-17
-3.15449e-17
-3.15602e-17
-3.12834e-17
-3.16002e-17
-3.11821e-17
-3.13967e-17
-3.16816e-17
-3.1427e-17
-3.12904e-17
-3.13674e-17
-3.13522e-17
-3.13809e-17
-3.16491e-17
-3.18316e-17
-3.1529e-17
-3.16786e-17
-3.16734e-17
-3.19204e-17
-3.17261e-17
-3.16864e-17
-3.16858e-17
-3.17342e-17
-3.16399e-17
-3.16172e-17
-3.16704e-17
-3.16099e-17
-3.15464e-17
-3.15633e-17
-3.17833e-17
-3.13921e-17
-3.12497e-17
-3.13168e-17
-3.15166e-17
-3.15314e-17
-3.15836e-17
-3.16276e-17
-3.13333e-17
-3.15414e-17
-3.11901e-17
-3.16059e-17
-3.1516e-17
-3.14588e-17
-3.153e-17
-3.16566e-17
-3.14114e-17
-3.12018e-17
-3.11494e-17
-3.13757e-17
-3.13858e-17
-3.14205e-17
-3.14202e-17
-3.14515e-17
-3.16714e-17
-3.1673e-17
-3.14452e-17
-3.14174e-17
-3.14027e-17
-3.12929e-17
-3.11012e-17
-3.12463e-17
-3.10638e-17
-3.13561e-17
-3.13889e-17
-3.13814e-17
-3.15581e-17
-3.15795e-17
-3.14103e-17
-3.15997e-17
-3.1621e-17
-3.17606e-17
-3.19636e-17
-3.18865e-17
-3.15929e-17
-3.15093e-17
-3.18107e-17
-3.16842e-17
-3.15727e-17
-3.13908e-17
-3.15589e-17
-3.14636e-17
-3.12324e-17
-3.1432e-17
-3.15206e-17
-3.15804e-17
-3.17011e-17
-3.13202e-17
-3.11836e-17
-3.12542e-17
-3.16055e-17
-3.17338e-17
-3.15606e-17
-3.166e-17
-3.15374e-17
-3.14753e-17
-3.14463e-17
-3.13713e-17
-3.1344e-17
-3.13835e-17
-3.13004e-17
-3.1111e-17
-3.13164e-17
-3.13355e-17
-3.12977e-17
-3.11288e-17
-3.14004e-17
-3.15424e-17
-3.141e-17
-3.13352e-17
-3.13264e-17
-3.13711e-17
-3.14431e-17
-3.15933e-17
-3.16183e-17
-3.15692e-17
-3.14269e-17
-3.14578e-17
-3.17894e-17
-3.14567e-17
-3.15987e-17
-3.16519e-17
-3.1595e-17
-3.14313e-17
-3.14517e-17
-3.18046e-17
-3.17476e-17
-3.18629e-17
-3.16511e-17
-3.15398e-17
-3.15911e-17
-3.1515e-17
-3.12722e-17
-3.15063e-17
-3.16106e-17
-3.15705e-17
-3.1582e-17
-3.17377e-17
-3.17177e-17
-3.14503e-17
-3.128e-17
-3.14127e-17
-3.14592e-17
-3.15209e-17
-3.15927e-17
-3.14671e-17
-3.1628e-17
-3.14265e-17
-3.1361e-17
-3.13562e-17
-3.1269e-17
-3.09976e-17
-3.10219e-17
-3.10467e-17
-3.10198e-17
-3.10963e-17
-3.12764e-17
-3.11508e-17
-3.12737e-17
-3.13445e-17
-3.13129e-17
-3.13226e-17
-3.16007e-17
-3.14086e-17
-3.16422e-17
-3.14869e-17
-3.18437e-17
-3.17234e-17
-3.17508e-17
-3.16889e-17
-3.16548e-17
-3.15656e-17
-3.12796e-17
-3.14816e-17
-3.16113e-17
-3.16874e-17
-3.16004e-17
-3.1391e-17
-3.15429e-17
-3.14312e-17
-3.17488e-17
-3.16296e-17
-3.1555e-17
-3.15998e-17
-3.19239e-17
-3.17555e-17
-3.15309e-17
-3.17101e-17
-3.17395e-17
-3.1496e-17
-3.13371e-17
-3.12338e-17
-3.14116e-17
-3.13941e-17
-3.11972e-17
-3.11827e-17
-3.13879e-17
-3.13342e-17
-3.1383e-17
-3.13138e-17
-3.10857e-17
-3.10515e-17
-3.12529e-17
-3.12859e-17
-3.13741e-17
-3.15884e-17
-3.13705e-17
-3.1248e-17
-3.11694e-17
-3.12514e-17
-3.10172e-17
-3.08746e-17
-3.11096e-17
-3.1325e-17
-3.16416e-17
-3.16393e-17
-3.17161e-17
-3.17209e-17
-3.19295e-17
-3.17947e-17
-3.16588e-17
-3.16711e-17
-3.16116e-17
-3.14614e-17
-3.16172e-17
-3.16637e-17
-3.15239e-17
-3.11491e-17
-3.15222e-17
-3.15713e-17
-3.16114e-17
-3.164e-17
-3.17617e-17
-3.15663e-17
-3.15976e-17
-3.15185e-17
-3.12336e-17
-3.12633e-17
-3.14674e-17
-3.14337e-17
-3.12938e-17
-3.14051e-17
-3.15823e-17
-3.14224e-17
-3.13414e-17
-3.13192e-17
-3.11607e-17
-3.11086e-17
-3.1307e-17
-3.13657e-17
-3.15064e-17
-3.13804e-17
-3.13114e-17
-3.11575e-17
-3.1511e-17
-3.14126e-17
-3.13162e-17
-3.13683e-17
-3.15594e-17
-3.13593e-17
-3.13257e-17
-3.15181e-17
-3.13525e-17
-3.13179e-17
-3.14073e-17
-3.16241e-17
-3.16371e-17
-3.15152e-17
-3.17387e-17
-3.18716e-17
-3.1498e-17
-3.16425e-17
-3.18658e-17
-3.16478e-17
-3.16652e-17
-3.16473e-17
-3.13637e-17
-3.11699e-17
-3.15923e-17
-3.16839e-17
-3.15788e-17
-3.15546e-17
-3.15355e-17
-3.15231e-17
-3.16514e-17
-3.16091e-17
-3.12691e-17
-3.12562e-17
-3.14288e-17
-3.14477e-17
-3.1432e-17
-3.14086e-17
-3.12719e-17
-3.13764e-17
-3.14014e-17
-3.14028e-17
-3.13275e-17
-3.12969e-17
-3.13034e-17
-3.1395e-17
-3.15674e-17
-3.15948e-17
-3.13133e-17
-3.12305e-17
-3.11355e-17
-3.12309e-17
-3.12335e-17
-3.12741e-17
-3.13172e-17
-3.1327e-17
-3.13831e-17
-3.14637e-17
-3.1344e-17
-3.11002e-17
-3.16425e-17
-3.17316e-17
-3.17708e-17
-3.18851e-17
-3.16686e-17
-3.15683e-17
-3.16499e-17
-3.14742e-17
-3.14739e-17
-3.14717e-17
-3.16986e-17
-3.18214e-17
-3.14768e-17
-3.15431e-17
-3.18485e-17
-3.19636e-17
-3.15103e-17
-3.15157e-17
-3.13483e-17
-3.12755e-17
-3.12899e-17
-3.13106e-17
-3.14309e-17
-3.15909e-17
-3.14605e-17
-3.13053e-17
-3.14282e-17
-3.14245e-17
-3.13552e-17
-3.14356e-17
-3.14969e-17
-3.15179e-17
-3.13401e-17
-3.12846e-17
-3.11546e-17
-3.14488e-17
-3.11936e-17
-3.14371e-17
-3.10961e-17
-3.12924e-17
-3.11856e-17
-3.10239e-17
-3.1014e-17
-3.10201e-17
-3.10033e-17
-3.12559e-17
-3.15946e-17
-3.17136e-17
-3.15655e-17
-3.1141e-17
-3.19832e-17
-3.20571e-17
-3.19261e-17
-3.1742e-17
-3.15338e-17
-3.1954e-17
-3.19996e-17
-3.18979e-17
-3.17274e-17
-3.17688e-17
-3.16188e-17
-3.16597e-17
-3.18155e-17
-3.16518e-17
-3.15402e-17
-3.16649e-17
-3.1567e-17
-3.1553e-17
-3.15086e-17
-3.13419e-17
-3.13061e-17
-3.14197e-17
-3.13072e-17
-3.14603e-17
-3.14258e-17
-3.12199e-17
-3.14134e-17
-3.14119e-17
-3.12964e-17
-3.15753e-17
-3.18022e-17
-3.13681e-17
-3.11419e-17
-3.12631e-17
-3.12643e-17
-3.13058e-17
-3.12222e-17
-3.12665e-17
-3.12027e-17
-3.1419e-17
-3.10503e-17
-3.12014e-17
-3.14039e-17
-3.12623e-17
-3.10494e-17
-3.11071e-17
-3.13443e-17
-3.16195e-17
-3.13537e-17
-3.1336e-17
-3.1854e-17
-3.21406e-17
-3.15679e-17
-3.16641e-17
-3.17092e-17
-3.18895e-17
-3.15411e-17
-3.17237e-17
-3.17312e-17
-3.14501e-17
-3.11976e-17
-3.13926e-17
-3.16525e-17
-3.16217e-17
-3.15699e-17
-3.16297e-17
-3.16505e-17
-3.15662e-17
-3.15783e-17
-3.16423e-17
-3.15013e-17
-3.15178e-17
-3.13063e-17
-3.14592e-17
-3.14161e-17
-3.10404e-17
-3.13598e-17
-3.14177e-17
-3.14114e-17
-3.14469e-17
-3.14433e-17
-3.12591e-17
-3.12834e-17
-3.132e-17
-3.12718e-17
-3.12573e-17
-3.10609e-17
-3.11674e-17
-3.10875e-17
-3.1248e-17
-3.11427e-17
-3.12581e-17
-3.13058e-17
-3.13027e-17
-3.1415e-17
-3.1446e-17
-3.13276e-17
-3.13138e-17
-3.10903e-17
-3.14366e-17
-3.17259e-17
-3.17478e-17
-3.16765e-17
-3.17185e-17
-3.17286e-17
-3.15842e-17
-3.13158e-17
-3.16668e-17
-3.1707e-17
-3.16217e-17
-3.14029e-17
-3.15808e-17
-3.1659e-17
-3.16463e-17
-3.14563e-17
-3.1754e-17
-3.20317e-17
-3.15707e-17
-3.15099e-17
-3.15123e-17
-3.13492e-17
-3.16722e-17
-3.15451e-17
-3.16219e-17
-3.16006e-17
-3.13672e-17
-3.14005e-17
-3.1441e-17
-3.15259e-17
-3.15013e-17
-3.1436e-17
-3.17348e-17
-3.15278e-17
-3.14644e-17
-3.12868e-17
-3.13516e-17
-3.1127e-17
-3.12287e-17
-3.13988e-17
-3.12079e-17
-3.10472e-17
-3.13001e-17
-3.12427e-17
-3.09739e-17
-3.10499e-17
-3.11121e-17
-3.13167e-17
-3.13083e-17
-3.12081e-17
-3.1143e-17
-3.18978e-17
-3.15598e-17
-3.16386e-17
-3.1692e-17
-3.19623e-17
-3.2132e-17
-3.19005e-17
-3.1693e-17
-3.17166e-17
-3.1748e-17
-3.16607e-17
-3.17369e-17
-3.1872e-17
-3.18207e-17
-3.15741e-17
-3.14981e-17
-3.19521e-17
-3.13807e-17
-3.13948e-17
-3.1473e-17
-3.13018e-17
-3.15176e-17
-3.16971e-17
-3.15027e-17
-3.14274e-17
-3.13589e-17
-3.14328e-17
-3.15077e-17
-3.13957e-17
-3.12635e-17
-3.13265e-17
-3.14665e-17
-3.13277e-17
-3.14059e-17
-3.1276e-17
-3.12518e-17
-3.15408e-17
-3.13843e-17
-3.13922e-17
-3.11827e-17
-3.11986e-17
-3.15153e-17
-3.127e-17
-3.10618e-17
-3.11737e-17
-3.11502e-17
-3.12511e-17
-3.12995e-17
-3.11839e-17
-3.12447e-17
-3.15648e-17
-3.18661e-17
-3.17534e-17
-3.14164e-17
-3.17619e-17
-3.17929e-17
-3.17962e-17
-3.1503e-17
-3.16512e-17
-3.17068e-17
-3.17346e-17
-3.18923e-17
-3.19504e-17
-3.17035e-17
-3.15841e-17
-3.15695e-17
-3.16691e-17
-3.13777e-17
-3.16119e-17
-3.15362e-17
-3.14465e-17
-3.13941e-17
-3.16518e-17
-3.14962e-17
-3.12549e-17
-3.12134e-17
-3.15406e-17
-3.14354e-17
-3.13952e-17
-3.1347e-17
-3.11417e-17
-3.09421e-17
-3.11651e-17
-3.12497e-17
-3.13399e-17
-3.10597e-17
-3.12492e-17
-3.12275e-17
-3.11281e-17
-3.11223e-17
-3.09742e-17
-3.10257e-17
-3.14732e-17
-3.13571e-17
-3.11626e-17
-3.09809e-17
-3.10512e-17
-3.12143e-17
-3.10633e-17
-3.13335e-17
-3.17792e-17
-3.17738e-17
-3.19661e-17
-3.19032e-17
-3.19086e-17
-3.15637e-17
-3.16985e-17
-3.14811e-17
-3.15253e-17
-3.15679e-17
-3.16646e-17
-3.17613e-17
-3.18601e-17
-3.16277e-17
-3.14676e-17
-3.16076e-17
-3.17261e-17
-3.14908e-17
-3.15486e-17
-3.15324e-17
-3.15241e-17
-3.16239e-17
-3.15536e-17
-3.16178e-17
-3.14288e-17
-3.12291e-17
-3.15327e-17
-3.15418e-17
-3.15165e-17
-3.15648e-17
-3.13055e-17
-3.118e-17
-3.11031e-17
-3.12155e-17
-3.12346e-17
-3.11214e-17
-3.13772e-17
-3.13372e-17
-3.09621e-17
-3.10663e-17
-3.10914e-17
-3.09398e-17
-3.1559e-17
-3.11296e-17
-3.08654e-17
-3.11541e-17
-3.12277e-17
-3.1325e-17
-3.13059e-17
-3.14697e-17
-3.19661e-17
-3.17459e-17
-3.16686e-17
-3.18109e-17
-3.17621e-17
-3.16463e-17
-3.1516e-17
-3.17445e-17
-3.18082e-17
-3.17264e-17
-3.16124e-17
-3.17341e-17
-3.14989e-17
-3.15138e-17
-3.16241e-17
-3.1666e-17
-3.15371e-17
-3.13818e-17
-3.15339e-17
-3.14853e-17
-3.14941e-17
-3.14986e-17
-3.14823e-17
-3.14678e-17
-3.15337e-17
-3.13885e-17
-3.14611e-17
-3.15251e-17
-3.12758e-17
-3.15157e-17
-3.13168e-17
-3.12387e-17
-3.13036e-17
-3.11933e-17
-3.1284e-17
-3.10153e-17
-3.15448e-17
-3.13275e-17
-3.10861e-17
-3.0967e-17
-3.11246e-17
-3.09176e-17
-3.12724e-17
-3.1352e-17
-3.11274e-17
-3.11808e-17
-3.12975e-17
-3.15517e-17
-3.14198e-17
-3.11628e-17
-3.17889e-17
-3.17561e-17
-3.20399e-17
-3.18635e-17
-3.15041e-17
-3.13469e-17
-3.13582e-17
-3.17334e-17
-3.16175e-17
-3.17819e-17
-3.18472e-17
-3.17137e-17
-3.12973e-17
-3.15076e-17
-3.17248e-17
-3.18331e-17
-3.1726e-17
-3.14402e-17
-3.16026e-17
-3.13768e-17
-3.14695e-17
-3.13875e-17
-3.15469e-17
-3.13104e-17
-3.12826e-17
-3.14526e-17
-3.16299e-17
-3.13809e-17
-3.1338e-17
-3.14163e-17
-3.12281e-17
-3.11524e-17
-3.12131e-17
-3.10152e-17
-3.1158e-17
-3.10142e-17
-3.12071e-17
-3.1101e-17
-3.10598e-17
-3.11922e-17
-3.12369e-17
-3.0891e-17
-3.10618e-17
-3.11611e-17
-3.12119e-17
-3.10739e-17
-3.12361e-17
-3.14522e-17
-3.09552e-17
-3.1216e-17
-3.17319e-17
-3.17002e-17
-3.16018e-17
-3.20229e-17
-3.15647e-17
-3.16587e-17
-3.17791e-17
-3.15542e-17
-3.1591e-17
-3.17624e-17
-3.16672e-17
-3.16381e-17
-3.15087e-17
-3.16522e-17
-3.18853e-17
-3.17162e-17
-3.16331e-17
-3.15576e-17
-3.1617e-17
-3.14978e-17
-3.15365e-17
-3.16363e-17
-3.18557e-17
-3.14414e-17
-3.13563e-17
-3.15451e-17
-3.1758e-17
-3.12604e-17
-3.14374e-17
-3.1552e-17
-3.11163e-17
-3.13284e-17
-3.11865e-17
-3.10292e-17
-3.11733e-17
-3.12199e-17
-3.10687e-17
-3.09304e-17
-3.08775e-17
-3.10914e-17
-3.11222e-17
-3.09832e-17
-3.08178e-17
-3.09586e-17
-3.1185e-17
-3.13384e-17
-3.10356e-17
-3.10392e-17
-3.11395e-17
-3.12976e-17
-3.18308e-17
-3.17226e-17
-3.15493e-17
-3.19442e-17
-3.17905e-17
-3.18135e-17
-3.21085e-17
-3.14086e-17
-3.18156e-17
-3.18144e-17
-3.1958e-17
-3.18699e-17
-3.15493e-17
-3.15883e-17
-3.18931e-17
-3.16765e-17
-3.1494e-17
-3.16242e-17
-3.17537e-17
-3.15054e-17
-3.16009e-17
-3.15979e-17
-3.15883e-17
-3.13731e-17
-3.12914e-17
-3.13061e-17
-3.14476e-17
-3.13139e-17
-3.12772e-17
-3.11635e-17
-3.11713e-17
-3.12254e-17
-3.10738e-17
-3.11291e-17
-3.12356e-17
-3.10737e-17
-3.0887e-17
-3.10301e-17
-3.0929e-17
-3.10104e-17
-3.10421e-17
-3.09548e-17
-3.13845e-17
-3.09654e-17
-3.11188e-17
-3.10456e-17
-3.12489e-17
-3.09835e-17
-3.09593e-17
-3.13066e-17
-3.19675e-17
-3.1741e-17
-3.16435e-17
-3.15147e-17
-3.17342e-17
-3.17626e-17
-3.1858e-17
-3.16491e-17
-3.15863e-17
-3.18426e-17
-3.20146e-17
-3.17987e-17
-3.15568e-17
-3.17284e-17
-3.18314e-17
-3.16551e-17
-3.15509e-17
-3.17127e-17
-3.17913e-17
-3.13586e-17
-3.13982e-17
-3.15975e-17
-3.14839e-17
-3.15784e-17
-3.15211e-17
-3.14726e-17
-3.13674e-17
-3.13883e-17
-3.16442e-17
-3.12826e-17
-3.12047e-17
-3.11141e-17
-3.0788e-17
-3.12156e-17
-3.11174e-17
-3.09421e-17
-3.0997e-17
-3.11e-17
-3.11639e-17
-3.08985e-17
-3.10823e-17
-3.12621e-17
-3.12613e-17
-3.10772e-17
-3.11017e-17
-3.12254e-17
-3.16347e-17
-3.11833e-17
-3.10792e-17
-3.14496e-17
-3.17347e-17
-3.17138e-17
-3.1732e-17
-3.16971e-17
-3.1488e-17
-3.15844e-17
-3.12656e-17
-3.19103e-17
-3.18291e-17
-3.18504e-17
-3.17065e-17
-3.20351e-17
-3.17293e-17
-3.16289e-17
-3.14599e-17
-3.15905e-17
-3.17803e-17
-3.14343e-17
-3.14323e-17
-3.14053e-17
-3.13466e-17
-3.15735e-17
-3.15026e-17
-3.1809e-17
-3.14112e-17
-3.14506e-17
-3.14959e-17
-3.13927e-17
-3.12331e-17
-3.09843e-17
-3.10092e-17
-3.116e-17
-3.10615e-17
-3.09989e-17
-3.08712e-17
-3.10312e-17
-3.09352e-17
-3.10168e-17
-3.11934e-17
-3.15384e-17
-3.15138e-17
-3.11581e-17
-3.11877e-17
-3.13364e-17
-3.13671e-17
-3.1245e-17
-3.14e-17
-3.13186e-17
-3.18152e-17
-3.17753e-17
-3.17815e-17
-3.12888e-17
-3.13154e-17
-3.13066e-17
-3.17623e-17
-3.1791e-17
-3.1735e-17
-3.16517e-17
-3.1878e-17
-3.16769e-17
-3.15666e-17
-3.15485e-17
-3.15362e-17
-3.1749e-17
-3.13657e-17
-3.14528e-17
-3.12316e-17
-3.14388e-17
-3.17782e-17
-3.1562e-17
-3.17878e-17
-3.13893e-17
-3.14495e-17
-3.15283e-17
-3.12933e-17
-3.13241e-17
-3.0985e-17
-3.10515e-17
-3.09287e-17
-3.10067e-17
-3.10495e-17
-3.08376e-17
-3.10627e-17
-3.09304e-17
-3.11367e-17
-3.10631e-17
-3.12313e-17
-3.12653e-17
-3.12556e-17
-3.12742e-17
-3.12065e-17
-3.11717e-17
-3.12405e-17
-3.14534e-17
-3.16109e-17
-3.18762e-17
-3.17233e-17
-3.16781e-17
-3.16145e-17
-3.17629e-17
-3.18753e-17
-3.17026e-17
-3.15363e-17
-3.19711e-17
-3.1655e-17
-3.14337e-17
-3.16037e-17
-3.14021e-17
-3.17125e-17
-3.14868e-17
-3.1558e-17
-3.18366e-17
-3.15095e-17
-3.16535e-17
-3.17619e-17
-3.14963e-17
-3.12488e-17
-3.14941e-17
-3.09083e-17
-3.11879e-17
-3.12461e-17
-3.10616e-17
-3.1101e-17
-3.09658e-17
-3.08907e-17
-3.11205e-17
-3.10216e-17
-3.11245e-17
-3.07336e-17
-3.10264e-17
-3.09856e-17
-3.08392e-17
-3.10152e-17
-3.10984e-17
-3.13159e-17
-3.11637e-17
-3.11055e-17
-3.1265e-17
-3.14964e-17
-3.11832e-17
-3.19481e-17
-3.1937e-17
-3.16327e-17
-3.17995e-17
-3.16498e-17
-3.16924e-17
-3.16211e-17
-3.16688e-17
-3.16263e-17
-3.14398e-17
-3.17374e-17
-3.12927e-17
-3.15544e-17
-3.14925e-17
-3.15794e-17
-3.18156e-17
-3.14135e-17
-3.16827e-17
-3.15384e-17
-3.14527e-17
-3.093e-17
-3.09749e-17
-3.08816e-17
-3.12276e-17
-3.11763e-17
-3.10623e-17
-3.12111e-17
-3.09193e-17
-3.0981e-17
-3.10327e-17
-3.11224e-17
-3.08401e-17
-3.0539e-17
-3.10807e-17
-3.09898e-17
-3.0927e-17
-3.09582e-17
-3.10295e-17
-3.11299e-17
-3.12508e-17
-3.1119e-17
-3.12113e-17
-3.13301e-17
-3.1186e-17
-3.1848e-17
-3.20221e-17
-3.19097e-17
-3.16882e-17
-3.17056e-17
-3.16811e-17
-3.15179e-17
-3.17392e-17
-3.16155e-17
-3.17424e-17
-3.11745e-17
-3.14793e-17
-3.14152e-17
-3.16121e-17
-3.11178e-17
-3.10592e-17
-3.1144e-17
-3.15148e-17
-3.16956e-17
-3.12095e-17
-3.12261e-17
-3.14998e-17
-3.12295e-17
-3.11268e-17
-3.09492e-17
-3.11344e-17
-3.07033e-17
-3.11034e-17
-3.09541e-17
-3.0977e-17
-3.08844e-17
-3.08218e-17
-3.10638e-17
-3.06072e-17
-3.094e-17
-3.10004e-17
-3.10865e-17
-3.10569e-17
-3.15564e-17
-3.10947e-17
-3.12756e-17
-3.12718e-17
-3.1048e-17
-3.17639e-17
-3.16488e-17
-3.17e-17
-3.17268e-17
-3.17176e-17
-3.17336e-17
-3.17177e-17
-3.15145e-17
-3.13162e-17
-3.14743e-17
-3.12765e-17
-3.18744e-17
-3.09652e-17
-3.11942e-17
-3.13467e-17
-3.18456e-17
-3.16438e-17
-3.13228e-17
-3.13913e-17
-3.13693e-17
-3.11967e-17
-3.10422e-17
-3.06176e-17
-3.12692e-17
-3.107e-17
-3.11206e-17
-3.09507e-17
-3.09573e-17
-3.08824e-17
-3.09344e-17
-3.0788e-17
-3.07695e-17
-3.10187e-17
-3.09534e-17
-3.12558e-17
-3.09561e-17
-3.12353e-17
-3.1189e-17
-3.13633e-17
-3.13877e-17
-3.11067e-17
-3.18842e-17
-3.17023e-17
-3.18845e-17
-3.17526e-17
-3.16623e-17
-3.1637e-17
-3.15053e-17
-3.10773e-17
-3.14636e-17
-3.17907e-17
-3.19388e-17
-3.10228e-17
-3.10854e-17
-3.14389e-17
-3.20185e-17
-3.1943e-17
-3.13422e-17
-3.1579e-17
-3.12831e-17
-3.11609e-17
-3.10628e-17
-3.0571e-17
-3.08763e-17
-3.10098e-17
-3.09004e-17
-3.09005e-17
-3.09869e-17
-3.07684e-17
-3.10933e-17
-3.06938e-17
-3.07066e-17
-3.11441e-17
-3.07867e-17
-3.10592e-17
-3.1021e-17
-3.12345e-17
-3.12717e-17
-3.13309e-17
-3.17458e-17
-3.14098e-17
-3.16072e-17
-3.1584e-17
-3.15302e-17
-3.11062e-17
-3.14624e-17
-3.15227e-17
-3.1531e-17
-3.13358e-17
-3.13343e-17
-3.14643e-17
-3.20947e-17
-3.15393e-17
-3.12226e-17
-3.13239e-17
-3.12254e-17
-3.1121e-17
-3.10709e-17
-3.08404e-17
-3.11081e-17
-3.09883e-17
-3.06793e-17
-3.08866e-17
-3.08095e-17
-3.08653e-17
-3.12314e-17
-3.06651e-17
-3.08127e-17
-3.1171e-17
-3.07271e-17
-3.08548e-17
-3.1102e-17
-3.13757e-17
-3.14283e-17
-3.13894e-17
-3.12887e-17
-3.12657e-17
-3.15024e-17
-3.13079e-17
-3.11758e-17
-3.13285e-17
-3.14443e-17
-3.14312e-17
-3.16573e-17
-3.14556e-17
-3.12182e-17
-3.11263e-17
-3.11722e-17
-3.10159e-17
-3.09272e-17
-3.06611e-17
-3.05146e-17
-3.09455e-17
-3.07644e-17
-3.08901e-17
-3.06024e-17
-3.09082e-17
-3.08625e-17
-3.06417e-17
-3.07215e-17
-3.09428e-17
-3.07699e-17
-3.09881e-17
-3.11311e-17
-3.14021e-17
-3.1365e-17
-3.12747e-17
-3.11297e-17
-3.11372e-17
-3.14321e-17
-3.12531e-17
-3.15608e-17
-3.13885e-17
-3.17344e-17
-3.17559e-17
-3.11485e-17
-3.08206e-17
-3.11476e-17
-3.07914e-17
-3.06847e-17
-3.08785e-17
-3.04652e-17
-3.09987e-17
-3.08456e-17
-3.08343e-17
-3.05876e-17
-3.10064e-17
-3.08503e-17
-3.06839e-17
-3.07403e-17
-3.07728e-17
-3.09602e-17
-3.11599e-17
-3.12176e-17
-3.12091e-17
-3.12031e-17
-3.12392e-17
-3.12053e-17
-3.12674e-17
-3.14711e-17
-3.17137e-17
-3.09353e-17
-3.07294e-17
-3.11938e-17
-3.10278e-17
-3.09473e-17
-3.10983e-17
-3.10082e-17
-3.11279e-17
-3.03786e-17
-3.05831e-17
-3.03121e-17
-3.06793e-17
-3.07363e-17
-3.04523e-17
-3.10561e-17
-3.09061e-17
-3.09436e-17
-3.12416e-17
-3.09747e-17
-3.12069e-17
-3.11219e-17
-3.12072e-17
-3.11872e-17
-3.13412e-17
-3.1122e-17
-3.09583e-17
-3.1202e-17
-3.08594e-17
-3.13346e-17
-2.99417e-17
-3.08554e-17
-3.04604e-17
-3.06199e-17
-3.04759e-17
-3.05055e-17
-3.10802e-17
-3.09102e-17
-3.10767e-17
-3.11979e-17
-3.10481e-17
-3.10591e-17
-3.10913e-17
-3.11993e-17
-3.11149e-17
-3.14376e-17
-3.08328e-17
-3.11054e-17
-2.9583e-17
-3.10258e-17
-3.03765e-17
-3.06968e-17
-3.07144e-17
-3.07447e-17
-3.10224e-17
-3.08777e-17
-3.11902e-17
-3.11826e-17
-3.11133e-17
-3.11169e-17
-3.11313e-17
-3.12044e-17
-3.12137e-17
-3.14122e-17
-2.95906e-17
-3.1163e-17
-3.0527e-17
-3.0614e-17
-3.0681e-17
-3.07976e-17
-3.09665e-17
-3.09322e-17
-3.09744e-17
-3.09754e-17
-3.09884e-17
-3.10456e-17
-3.11549e-17
-3.1038e-17
-3.1275e-17
-3.12902e-17
-2.96323e-17
-3.18679e-17
-3.04926e-17
-3.06772e-17
-3.06381e-17
-3.0739e-17
-3.09018e-17
-3.09702e-17
-3.10155e-17
-3.10282e-17
-3.10811e-17
-3.07566e-17
-3.10607e-17
-3.07933e-17
-3.13879e-17
-3.12959e-17
-2.37051e-17
-3.20274e-17
-3.03952e-17
-3.06881e-17
-3.07839e-17
-3.06654e-17
-3.09094e-17
-3.10403e-17
-3.10087e-17
-3.09243e-17
-3.11125e-17
-3.10511e-17
-3.11231e-17
-3.11144e-17
-3.13231e-17
-3.13059e-17
-3.06183e-17
-3.06509e-17
-3.06028e-17
-3.09198e-17
-3.11596e-17
-3.08964e-17
-3.06112e-17
-3.13134e-17
-3.12865e-17
-3.10513e-17
-3.1431e-17
-3.10408e-17
-3.13025e-17
-3.09524e-17
-3.06153e-17
-3.12194e-17
-3.11294e-17
-3.11959e-17
-3.15763e-17
-3.11496e-17
-3.13714e-17
-3.11291e-17
-3.11179e-17
-3.1193e-17
-3.14132e-17
-3.13352e-17
-3.16781e-17
-3.17551e-17
-3.17863e-17
-3.19723e-17
-3.17695e-17
-3.17675e-17
-3.17041e-17
-3.15587e-17
-3.19058e-17
-3.17841e-17
-3.15961e-17
-3.20538e-17
-3.18333e-17
-3.18561e-17
-3.15181e-17
-3.19131e-17
-3.17921e-17
-3.18192e-17
-3.15567e-17
-3.18814e-17
-3.15233e-17
-3.16465e-17
-3.19028e-17
-3.17142e-17
-3.16734e-17
-3.16545e-17
-3.16166e-17
-3.16278e-17
-3.17865e-17
-3.18632e-17
-3.15633e-17
-3.1789e-17
-3.14652e-17
-3.19002e-17
-3.1808e-17
-3.17515e-17
-3.18285e-17
-3.19565e-17
-3.1708e-17
-3.1466e-17
-3.14288e-17
-3.16544e-17
-3.16711e-17
-3.17106e-17
-3.1725e-17
-3.17729e-17
-3.2004e-17
-3.19877e-17
-3.17344e-17
-3.17066e-17
-3.16938e-17
-3.15887e-17
-3.13867e-17
-3.15414e-17
-3.13465e-17
-3.16618e-17
-3.18893e-17
-3.15713e-17
-3.14424e-17
-3.15084e-17
-3.18645e-17
-3.20101e-17
-3.1855e-17
-3.19681e-17
-3.18468e-17
-3.1782e-17
-3.17446e-17
-3.16693e-17
-3.16626e-17
-3.17202e-17
-3.16437e-17
-3.14759e-17
-3.16697e-17
-3.16781e-17
-3.16406e-17
-3.14544e-17
-3.17216e-17
-3.18591e-17
-3.17179e-17
-3.16636e-17
-3.16609e-17
-3.1701e-17
-3.17581e-17
-3.19314e-17
-3.17897e-17
-3.19908e-17
-3.19897e-17
-3.17274e-17
-3.15667e-17
-3.17017e-17
-3.17617e-17
-3.18301e-17
-3.19167e-17
-3.17876e-17
-3.19535e-17
-3.17643e-17
-3.17226e-17
-3.17321e-17
-3.16445e-17
-3.13774e-17
-3.14083e-17
-3.14181e-17
-3.13956e-17
-3.14512e-17
-3.16203e-17
-3.14592e-17
-3.16069e-17
-3.16987e-17
-3.16685e-17
-3.16582e-17
-3.19334e-17
-3.17244e-17
-3.17562e-17
-3.19711e-17
-3.20128e-17
-3.17879e-17
-3.16288e-17
-3.15177e-17
-3.17307e-17
-3.17215e-17
-3.15294e-17
-3.15051e-17
-3.17321e-17
-3.1695e-17
-3.17664e-17
-3.1713e-17
-3.14784e-17
-3.14359e-17
-3.16337e-17
-3.16583e-17
-3.1755e-17
-3.1961e-17
-3.17339e-17
-3.16073e-17
-3.15317e-17
-3.1616e-17
-3.13793e-17
-3.12005e-17
-3.1447e-17
-3.1672e-17
-3.15061e-17
-3.15617e-17
-3.17608e-17
-3.1735e-17
-3.15712e-17
-3.1713e-17
-3.19227e-17
-3.1771e-17
-3.16991e-17
-3.16876e-17
-3.15292e-17
-3.151e-17
-3.17142e-17
-3.17812e-17
-3.19126e-17
-3.17897e-17
-3.17256e-17
-3.15777e-17
-3.19507e-17
-3.18365e-17
-3.17317e-17
-3.17703e-17
-3.19622e-17
-3.17207e-17
-3.16695e-17
-3.18593e-17
-3.17033e-17
-3.16509e-17
-3.153e-17
-3.15749e-17
-3.17262e-17
-3.17424e-17
-3.17365e-17
-3.17365e-17
-3.16331e-17
-3.17436e-17
-3.17818e-17
-3.18e-17
-3.17316e-17
-3.17106e-17
-3.17239e-17
-3.18123e-17
-3.19749e-17
-3.20343e-17
-3.17638e-17
-3.1682e-17
-3.15847e-17
-3.16698e-17
-3.16757e-17
-3.16939e-17
-3.17029e-17
-3.16847e-17
-3.17343e-17
-3.18158e-17
-3.17078e-17
-3.13676e-17
-3.16944e-17
-3.18664e-17
-3.17421e-17
-3.15805e-17
-3.1745e-17
-3.17603e-17
-3.17156e-17
-3.18118e-17
-3.18933e-17
-3.19524e-17
-3.17741e-17
-3.17334e-17
-3.15946e-17
-3.18981e-17
-3.16341e-17
-3.18793e-17
-3.15695e-17
-3.17727e-17
-3.16502e-17
-3.14937e-17
-3.14792e-17
-3.14562e-17
-3.13939e-17
-3.16312e-17
-3.19511e-17
-3.20684e-17
-3.19396e-17
-3.14353e-17
-3.157e-17
-3.17452e-17
-3.17037e-17
-3.14753e-17
-3.17183e-17
-3.1751e-17
-3.16643e-17
-3.1953e-17
-3.21942e-17
-3.17818e-17
-3.15903e-17
-3.172e-17
-3.17286e-17
-3.17814e-17
-3.1705e-17
-3.17504e-17
-3.16979e-17
-3.19224e-17
-3.15346e-17
-3.16861e-17
-3.18845e-17
-3.17029e-17
-3.14746e-17
-3.15071e-17
-3.1743e-17
-3.20057e-17
-3.17321e-17
-3.17184e-17
-3.15015e-17
-3.17333e-17
-3.17041e-17
-3.12993e-17
-3.16673e-17
-3.17656e-17
-3.18028e-17
-3.18191e-17
-3.18212e-17
-3.16418e-17
-3.1727e-17
-3.17865e-17
-3.17564e-17
-3.17635e-17
-3.15891e-17
-3.16761e-17
-3.16016e-17
-3.17487e-17
-3.16288e-17
-3.17377e-17
-3.17849e-17
-3.17575e-17
-3.18632e-17
-3.18735e-17
-3.17455e-17
-3.1719e-17
-3.1504e-17
-3.18371e-17
-3.17604e-17
-3.18976e-17
-3.18924e-17
-3.16475e-17
-3.17172e-17
-3.17953e-17
-3.19488e-17
-3.18447e-17
-3.18003e-17
-3.21263e-17
-3.19581e-17
-3.19431e-17
-3.17848e-17
-3.18852e-17
-3.16891e-17
-3.17616e-17
-3.19227e-17
-3.17265e-17
-3.15261e-17
-3.17712e-17
-3.17247e-17
-3.14568e-17
-3.1505e-17
-3.15289e-17
-3.173e-17
-3.17182e-17
-3.16171e-17
-3.1523e-17
-3.19169e-17
-3.17758e-17
-3.17043e-17
-3.16632e-17
-3.17572e-17
-3.18827e-17
-3.17611e-17
-3.15419e-17
-3.16776e-17
-3.18583e-17
-3.17776e-17
-3.19167e-17
-3.17702e-17
-3.17735e-17
-3.20959e-17
-3.1928e-17
-3.19266e-17
-3.17228e-17
-3.17068e-17
-3.1986e-17
-3.17664e-17
-3.15499e-17
-3.16415e-17
-3.15985e-17
-3.16857e-17
-3.17375e-17
-3.16111e-17
-3.1675e-17
-3.19228e-17
-3.17653e-17
-3.15391e-17
-3.1508e-17
-3.18506e-17
-3.17961e-17
-3.17587e-17
-3.16791e-17
-3.15045e-17
-3.13607e-17
-3.16304e-17
-3.17674e-17
-3.18386e-17
-3.16077e-17
-3.18304e-17
-3.18186e-17
-3.17005e-17
-3.16897e-17
-3.15154e-17
-3.15534e-17
-3.19814e-17
-3.18583e-17
-3.16473e-17
-3.14591e-17
-3.15166e-17
-3.16673e-17
-3.15201e-17
-3.17281e-17
-3.18065e-17
-3.18722e-17
-3.1687e-17
-3.15111e-17
-3.18414e-17
-3.18837e-17
-3.18659e-17
-3.19088e-17
-3.16998e-17
-3.16304e-17
-3.16147e-17
-3.17492e-17
-3.17697e-17
-3.16706e-17
-3.19644e-17
-3.1954e-17
-3.15969e-17
-3.16704e-17
-3.16564e-17
-3.14835e-17
-3.20836e-17
-3.1628e-17
-3.13453e-17
-3.1649e-17
-3.16996e-17
-3.17818e-17
-3.17452e-17
-3.18953e-17
-3.17408e-17
-3.17171e-17
-3.18471e-17
-3.17534e-17
-3.18452e-17
-3.1549e-17
-3.21122e-17
-3.19817e-17
-3.17355e-17
-3.16086e-17
-3.17361e-17
-3.14899e-17
-3.18118e-17
-3.18619e-17
-3.16263e-17
-3.16781e-17
-3.17921e-17
-3.20099e-17
-3.18487e-17
-3.16034e-17
-3.18952e-17
-3.15171e-17
-3.15929e-17
-3.16952e-17
-3.17265e-17
-3.15974e-17
-3.17522e-17
-3.19253e-17
-3.13939e-17
-3.16608e-17
-3.17277e-17
-3.19003e-17
-3.15899e-17
-3.15402e-17
-3.16018e-17
-3.17367e-17
-3.14902e-17
-3.14505e-17
-3.17334e-17
-3.16377e-17
-3.16524e-17
-3.17582e-17
-3.17579e-17
-3.15605e-17
-3.15793e-17
-3.13509e-17
-3.13309e-17
-3.16599e-17
-3.17599e-17
-3.18206e-17
-3.19093e-17
-3.21823e-17
-3.19196e-17
-3.18231e-17
-3.19947e-17
-3.20429e-17
-3.19695e-17
-3.19489e-17
-3.17797e-17
-3.17231e-17
-3.16677e-17
-3.17993e-17
-3.16023e-17
-3.16461e-17
-3.16679e-17
-3.16817e-17
-3.17014e-17
-3.17763e-17
-3.19863e-17
-3.14771e-17
-3.15248e-17
-3.13893e-17
-3.15908e-17
-3.17312e-17
-3.17448e-17
-3.17331e-17
-3.16777e-17
-3.149e-17
-3.19038e-17
-3.16897e-17
-3.17534e-17
-3.18539e-17
-3.18199e-17
-3.17285e-17
-3.18253e-17
-3.1627e-17
-3.16456e-17
-3.16176e-17
-3.15787e-17
-3.14956e-17
-3.13198e-17
-3.15813e-17
-3.16385e-17
-3.16418e-17
-3.16565e-17
-3.17223e-17
-3.17775e-17
-3.19049e-17
-3.21403e-17
-3.18752e-17
-3.17346e-17
-3.16604e-17
-3.14407e-17
-3.17134e-17
-3.20072e-17
-3.19371e-17
-3.16494e-17
-3.16742e-17
-3.19889e-17
-3.20302e-17
-3.17403e-17
-3.16656e-17
-3.16981e-17
-3.17813e-17
-3.20156e-17
-3.1824e-17
-3.15944e-17
-3.13624e-17
-3.17536e-17
-3.20891e-17
-3.19525e-17
-3.2074e-17
-3.18421e-17
-3.16842e-17
-3.15722e-17
-3.13982e-17
-3.15881e-17
-3.17324e-17
-3.17357e-17
-3.17302e-17
-3.17267e-17
-3.15753e-17
-3.16375e-17
-3.16262e-17
-3.16069e-17
-3.17377e-17
-3.20794e-17
-3.2191e-17
-3.21223e-17
-3.1735e-17
-3.14985e-17
-3.20674e-17
-3.21983e-17
-3.19819e-17
-3.21087e-17
-3.17845e-17
-3.14549e-17
-3.17681e-17
-3.21037e-17
-3.18629e-17
-3.18088e-17
-3.17884e-17
-3.17833e-17
-3.17108e-17
-3.14326e-17
-3.14769e-17
-3.16951e-17
-3.16305e-17
-3.13765e-17
-3.15192e-17
-3.15779e-17
-3.15141e-17
-3.15327e-17
-3.15784e-17
-3.16935e-17
-3.1571e-17
-3.15478e-17
-3.16949e-17
-3.16245e-17
-3.16864e-17
-3.15891e-17
-3.1587e-17
-3.16478e-17
-3.17334e-17
-3.12533e-17
-3.15637e-17
-3.18303e-17
-3.13504e-17
-3.15828e-17
-3.17811e-17
-3.12819e-17
-3.14747e-17
-3.15583e-17
-3.1566e-17
-3.15789e-17
-3.14997e-17
-3.12606e-17
-3.14961e-17
-3.15943e-17
-3.1582e-17
-3.15662e-17
-3.14988e-17
-3.13069e-17
-3.14139e-17
-3.13214e-17
-3.15493e-17
-3.16826e-17
-3.13872e-17
-3.13203e-17
-3.16755e-17
-3.16794e-17
-3.14929e-17
-3.16346e-17
-3.17142e-17
-3.15894e-17
-3.15231e-17
-3.15473e-17
-3.15705e-17
-3.15025e-17
-3.14329e-17
-3.16325e-17
-3.1601e-17
-3.15837e-17
-3.14843e-17
-3.14694e-17
-3.14759e-17
-3.11635e-17
-3.10815e-17
-3.15078e-17
-3.18846e-17
-3.16716e-17
-3.15903e-17
-3.15945e-17
-3.15547e-17
-3.15895e-17
-3.16299e-17
-3.1617e-17
-3.16606e-17
-3.17818e-17
-3.20291e-17
-3.18235e-17
-3.16944e-17
-3.15785e-17
-3.14434e-17
-3.19401e-17
-3.18155e-17
-3.17181e-17
-3.17225e-17
-3.18193e-17
-3.19702e-17
-3.14533e-17
-3.13736e-17
-3.16219e-17
-3.15411e-17
-3.14736e-17
-3.13652e-17
-3.1482e-17
-3.15843e-17
-3.1376e-17
-3.15152e-17
-3.16233e-17
-3.13795e-17
-3.14114e-17
-3.1398e-17
-3.16009e-17
-3.17837e-17
-3.11712e-17
-3.11875e-17
-3.18525e-17
-3.19967e-17
-3.19404e-17
-3.16455e-17
-3.16655e-17
-3.17714e-17
-3.12557e-17
-3.15753e-17
-3.19162e-17
-3.1588e-17
-3.12482e-17
-3.13502e-17
-3.12738e-17
-3.15294e-17
-3.17508e-17
-3.19549e-17
-3.17167e-17
-3.17148e-17
-3.2026e-17
-3.21245e-17
-3.1956e-17
-3.13227e-17
-3.12358e-17
-3.15282e-17
-3.16788e-17
-3.15229e-17
-3.14233e-17
-3.13485e-17
-3.14121e-17
-3.14156e-17
-3.16934e-17
-3.16435e-17
-3.14836e-17
-3.16247e-17
-3.16125e-17
-3.13952e-17
-3.12654e-17
-3.1316e-17
-3.14099e-17
-3.14722e-17
-3.14178e-17
-3.11579e-17
-3.14139e-17
-3.14916e-17
-3.1636e-17
-3.15241e-17
-3.14569e-17
-3.15486e-17
-3.18854e-17
-3.17439e-17
-3.18512e-17
-3.16085e-17
-3.15114e-17
-3.13823e-17
-3.11197e-17
-3.14317e-17
-3.15864e-17
-3.16582e-17
-3.17623e-17
-3.14339e-17
-3.17708e-17
-3.14883e-17
-3.18653e-17
-3.17311e-17
-3.16457e-17
-3.16509e-17
-3.16799e-17
-3.16802e-17
-3.16646e-17
-3.1622e-17
-3.16126e-17
-3.16431e-17
-3.16695e-17
-3.15147e-17
-3.12823e-17
-3.158e-17
-3.12514e-17
-3.12203e-17
-3.16397e-17
-3.16189e-17
-3.12413e-17
-3.1427e-17
-3.14479e-17
-3.1271e-17
-3.13899e-17
-3.14185e-17
-3.13151e-17
-3.15112e-17
-3.15957e-17
-3.14967e-17
-3.15897e-17
-3.13703e-17
-3.13793e-17
-3.11464e-17
-3.12923e-17
-3.1276e-17
-3.18227e-17
-3.16362e-17
-3.15345e-17
-3.15089e-17
-3.14887e-17
-3.15348e-17
-3.16522e-17
-3.19998e-17
-3.19976e-17
-3.16726e-17
-3.15974e-17
-3.16707e-17
-3.19995e-17
-3.18894e-17
-3.13542e-17
-3.1481e-17
-3.15599e-17
-3.15801e-17
-3.15684e-17
-3.15455e-17
-3.1597e-17
-3.1617e-17
-3.16157e-17
-3.16112e-17
-3.1647e-17
-3.1735e-17
-3.14752e-17
-3.14985e-17
-3.14479e-17
-3.14152e-17
-3.1595e-17
-3.14287e-17
-3.1239e-17