/*--------------------------------*- C++ -*----------------------------------*\
  =========                 |
  \\      /  F ield         | OpenFOAM: The Open Source CFD Toolbox
   \\    /   O peration     | Website:  https://openfoam.org
    \\  /    A nd           | Version:  7
     \\/     M anipulation  |
\*---------------------------------------------------------------------------*/
FoamFile
{
    version     2.0;
    format      ascii;
    class       volVectorField;
    location    "48000";
    object      vorticity;
}
// * * * * * * * * * * * * * * * * * * * * * * * * * * * * * * * * * * * * * //

dimensions      [0 0 -1 0 0 0 0];

internalField   nonuniform List<vector> 
4838
(
(9.18082e-06 5.52158e-06 2.08434e-17)
(3.42693e-06 1.11449e-05 1.02567e-17)
(1.91246e-06 1.1839e-05 3.29195e-19)
(3.26806e-07 1.22308e-05 -3.73536e-18)
(-1.21439e-06 1.23874e-05 1.37448e-18)
(-2.69585e-06 1.23869e-05 5.00681e-18)
(-4.10107e-06 1.22617e-05 4.7386e-18)
(-5.42312e-06 1.20337e-05 4.01444e-18)
(-6.65987e-06 1.17188e-05 4.98686e-18)
(-7.81155e-06 1.13296e-05 1.94932e-18)
(-8.87949e-06 1.0876e-05 -2.00534e-18)
(-9.8655e-06 1.03665e-05 -2.69776e-19)
(-1.07715e-05 9.80812e-06 2.22674e-18)
(-1.15995e-05 9.20684e-06 1.38979e-18)
(-1.23514e-05 8.56799e-06 2.49067e-18)
(-1.3029e-05 7.89626e-06 7.17816e-18)
(-1.36339e-05 7.19585e-06 1.07253e-17)
(-1.41675e-05 6.47062e-06 9.92628e-18)
(-1.46311e-05 5.7241e-06 6.41821e-18)
(-1.50259e-05 4.95958e-06 5.62451e-18)
(-1.53529e-05 4.18016e-06 4.478e-18)
(-1.56128e-05 3.3888e-06 4.06937e-18)
(-1.58062e-05 2.58831e-06 5.78857e-18)
(-1.59337e-05 1.78145e-06 6.20536e-18)
(-1.59956e-05 9.70878e-07 6.52372e-18)
(-1.59921e-05 1.59243e-07 5.87744e-18)
(-1.5923e-05 -6.50829e-07 4.82594e-18)
(-1.57883e-05 -1.4567e-06 3.94993e-18)
(-1.55877e-05 -2.2557e-06 3.41976e-18)
(-1.53206e-05 -3.04508e-06 4.7189e-18)
(-1.49865e-05 -3.82202e-06 5.82589e-18)
(-1.45844e-05 -4.58357e-06 7.10439e-18)
(-1.41135e-05 -5.32663e-06 7.50913e-18)
(-1.35725e-05 -6.0479e-06 2.07421e-18)
(-1.29603e-05 -6.74382e-06 -2.23166e-18)
(-1.22752e-05 -7.41056e-06 -2.47657e-19)
(-1.15157e-05 -8.04386e-06 1.95091e-18)
(-1.068e-05 -8.63903e-06 1.48212e-18)
(-9.76616e-06 -9.19073e-06 -1.2204e-18)
(-8.77216e-06 -9.69289e-06 -2.76071e-18)
(-7.69604e-06 -1.01384e-05 -1.43709e-18)
(-6.53595e-06 -1.05189e-05 1.40986e-19)
(-5.2905e-06 -1.08243e-05 4.17852e-18)
(-3.95937e-06 -1.10419e-05 5.14749e-18)
(-2.54443e-06 -1.11556e-05 -1.20413e-18)
(-1.05216e-06 -1.11434e-05 -3.25438e-18)
(5.02157e-07 -1.09724e-05 5.03461e-18)
(2.08896e-06 -1.05835e-05 8.04854e-18)
(3.6316e-06 -9.88354e-06 1.49241e-18)
(9.11165e-06 -4.56459e-06 -3.69257e-18)
(1.02423e-05 5.71796e-06 9.88028e-18)
(4.59745e-06 1.13466e-05 2.93318e-18)
(2.84738e-06 1.26641e-05 2.27748e-18)
(1.27416e-06 1.34329e-05 5.90952e-19)
(-1.92061e-07 1.38167e-05 -1.33774e-18)
(-1.58383e-06 1.39444e-05 -1.61673e-18)
(-2.90256e-06 1.38848e-05 3.04931e-19)
(-4.14568e-06 1.36802e-05 2.46134e-18)
(-5.31121e-06 1.33586e-05 3.53882e-18)
(-6.39849e-06 1.29399e-05 3.52259e-18)
(-7.40789e-06 1.2439e-05 2.31486e-18)
(-8.34045e-06 1.18676e-05 1.45996e-18)
(-9.19759e-06 1.12353e-05 2.19265e-18)
(-9.98095e-06 1.055e-05 3.81441e-18)
(-1.06922e-05 9.8185e-06 5.06781e-18)
(-1.13329e-05 9.04684e-06 4.55487e-18)
(-1.19048e-05 8.24026e-06 4.18194e-18)
(-1.24091e-05 7.40354e-06 3.81664e-18)
(-1.28474e-05 6.54102e-06 2.19539e-18)
(-1.32207e-05 5.65673e-06 6.94208e-19)
(-1.353e-05 4.75446e-06 6.10448e-19)
(-1.37763e-05 3.83777e-06 8.92816e-19)
(-1.39602e-05 2.91008e-06 1.13927e-18)
(-1.40822e-05 1.97471e-06 1.97958e-18)
(-1.41426e-05 1.03487e-06 2.23248e-18)
(-1.41418e-05 9.37479e-08 2.21511e-18)
(-1.40796e-05 -8.45499e-07 2.0683e-18)
(-1.3956e-05 -1.7797e-06 1.68569e-18)
(-1.37707e-05 -2.70563e-06 1.66406e-18)
(-1.35231e-05 -3.61999e-06 2.10971e-18)
(-1.32125e-05 -4.51936e-06 3.69923e-18)
(-1.28382e-05 -5.40016e-06 4.60432e-18)
(-1.23992e-05 -6.25861e-06 3.73406e-18)
(-1.18944e-05 -7.09068e-06 1.93927e-18)
(-1.13224e-05 -7.892e-06 5.04426e-19)
(-1.06819e-05 -8.65779e-06 -4.89688e-19)
(-9.97124e-06 -9.38275e-06 -1.51137e-18)
(-9.18895e-06 -1.00609e-05 -1.94533e-18)
(-8.33334e-06 -1.06854e-05 -2.43464e-18)
(-7.40284e-06 -1.12481e-05 -2.19659e-18)
(-6.39606e-06 -1.17397e-05 -1.27954e-18)
(-5.31195e-06 -1.21482e-05 -6.49706e-19)
(-4.15012e-06 -1.24587e-05 6.23589e-19)
(-2.91118e-06 -1.26514e-05 7.48914e-19)
(-1.59689e-06 -1.26983e-05 4.75563e-19)
(-2.09468e-07 -1.25576e-05 -2.23928e-19)
(1.25305e-06 -1.21615e-05 -2.86531e-18)
(2.8132e-06 -1.13956e-05 -5.44931e-18)
(4.54031e-06 -1.00912e-05 -5.83911e-18)
(9.90846e-06 -4.75356e-06 -5.65216e-18)
(1.07387e-05 6.22458e-06 7.02093e-18)
(4.60667e-06 1.18047e-05 1.46322e-18)
(2.68619e-06 1.32775e-05 2.15009e-18)
(1.09948e-06 1.42833e-05 1.38111e-18)
(-2.67575e-07 1.48715e-05 4.91139e-19)
(-1.49965e-06 1.51461e-05 -4.15278e-19)
(-2.63225e-06 1.51805e-05 -6.91137e-19)
(-3.68154e-06 1.5028e-05 1.17372e-18)
(-4.65522e-06 1.47261e-05 2.35523e-18)
(-5.55749e-06 1.43019e-05 2.66309e-18)
(-6.3912e-06 1.37754e-05 2.29872e-18)
(-7.15867e-06 1.31623e-05 2.09889e-18)
(-7.862e-06 1.24749e-05 2.55561e-18)
(-8.50314e-06 1.17233e-05 3.21096e-18)
(-9.08393e-06 1.09162e-05 3.65457e-18)
(-9.60611e-06 1.00608e-05 2.8281e-18)
(-1.00713e-05 9.16368e-06 2.94364e-18)
(-1.04808e-05 8.2306e-06 3.23038e-18)
(-1.08361e-05 7.26683e-06 2.37946e-18)
(-1.11383e-05 6.2772e-06 1.35252e-18)
(-1.13883e-05 5.26623e-06 1.08343e-18)
(-1.1587e-05 4.23816e-06 1.7472e-18)
(-1.17351e-05 3.19706e-06 1.86615e-18)
(-1.18331e-05 2.14687e-06 1.5715e-18)
(-1.18812e-05 1.09139e-06 1.64943e-18)
(-1.18798e-05 3.43988e-08 1.27938e-18)
(-1.18288e-05 -1.02038e-06 9.30304e-19)
(-1.17282e-05 -2.0692e-06 1.30043e-18)
(-1.15775e-05 -3.10824e-06 1.90959e-18)
(-1.13763e-05 -4.13361e-06 2.30675e-18)
(-1.11241e-05 -5.14122e-06 2.57721e-18)
(-1.08199e-05 -6.12682e-06 2.37938e-18)
(-1.04628e-05 -7.0859e-06 1.72887e-18)
(-1.00518e-05 -8.0136e-06 7.28968e-19)
(-9.58556e-06 -8.90467e-06 -1.23831e-19)
(-9.06267e-06 -9.7533e-06 -1.89698e-20)
(-8.48156e-06 -1.0553e-05 1.92214e-20)
(-7.84055e-06 -1.12964e-05 -4.48136e-19)
(-7.13779e-06 -1.19748e-05 -4.1103e-19)
(-6.37133e-06 -1.25782e-05 1.37817e-19)
(-5.53906e-06 -1.30941e-05 4.60666e-19)
(-4.6386e-06 -1.3507e-05 6.12811e-19)
(-3.66701e-06 -1.37968e-05 6.50011e-19)
(-2.61995e-06 -1.39368e-05 7.40437e-20)
(-1.48952e-06 -1.38897e-05 -7.57842e-19)
(-2.59318e-07 -1.36031e-05 -2.30376e-18)
(1.10624e-06 -1.30049e-05 -4.36936e-18)
(2.68173e-06 -1.20044e-05 -6.78244e-18)
(4.58247e-06 -1.05475e-05 -7.62503e-18)
(1.04432e-05 -5.23788e-06 -1.09259e-17)
(1.1953e-05 6.99481e-06 7.35433e-18)
(5.45541e-06 1.25796e-05 1.10275e-18)
(3.38223e-06 1.40045e-05 2.4361e-18)
(1.72024e-06 1.50759e-05 3.80625e-18)
(3.60221e-07 1.57737e-05 3.55495e-18)
(-8.00334e-07 1.61538e-05 2.65214e-18)
(-1.82031e-06 1.62706e-05 1.96582e-18)
(-2.73439e-06 1.61728e-05 2.03462e-18)
(-3.56268e-06 1.58995e-05 2.03439e-18)
(-4.31721e-06 1.54814e-05 2.15578e-18)
(-5.00561e-06 1.4942e-05 2.22945e-18)
(-5.63313e-06 1.43e-05 2.36466e-18)
(-6.20371e-06 1.35702e-05 2.36302e-18)
(-6.72046e-06 1.2765e-05 2.37916e-18)
(-7.18597e-06 1.18944e-05 2.7257e-18)
(-7.60249e-06 1.09674e-05 2.55251e-18)
(-7.97194e-06 9.99152e-06 2.93655e-18)
(-8.29602e-06 8.97373e-06 3.40645e-18)
(-8.5762e-06 7.92017e-06 2.70104e-18)
(-8.81373e-06 6.83649e-06 1.74615e-18)
(-9.00969e-06 5.72798e-06 1.58693e-18)
(-9.16498e-06 4.5996e-06 1.83931e-18)
(-9.28027e-06 3.45608e-06 1.771e-18)
(-9.35612e-06 2.30199e-06 1.6059e-18)
(-9.39289e-06 1.1418e-06 1.89304e-18)
(-9.39085e-06 -2.01578e-08 1.9457e-18)
(-9.34996e-06 -1.17953e-06 1.44419e-18)
(-9.2702e-06 -2.33199e-06 1.1965e-18)
(-9.15115e-06 -3.47314e-06 1.21057e-18)
(-8.99228e-06 -4.59843e-06 1.32781e-18)
(-8.79293e-06 -5.70309e-06 1.64162e-18)
(-8.55227e-06 -6.78216e-06 1.56208e-18)
(-8.26927e-06 -7.83037e-06 1.50959e-18)
(-7.94271e-06 -8.84205e-06 6.81043e-19)
(-7.57115e-06 -9.81101e-06 -4.77025e-19)
(-7.15294e-06 -1.07304e-05 -2.86984e-19)
(-6.68615e-06 -1.15925e-05 -2.22487e-19)
(-6.16856e-06 -1.23886e-05 -4.35441e-19)
(-5.59758e-06 -1.31084e-05 -4.23132e-19)
(-4.97004e-06 -1.37396e-05 -4.29998e-19)
(-4.28197e-06 -1.42675e-05 1.06931e-19)
(-3.52803e-06 -1.46735e-05 -3.53976e-19)
(-2.70048e-06 -1.49342e-05 -1.04639e-18)
(-1.78716e-06 -1.50194e-05 -1.56818e-18)
(-7.67854e-07 -1.48904e-05 -2.67519e-18)
(3.92084e-07 -1.44997e-05 -3.31708e-18)
(1.75122e-06 -1.37941e-05 -4.56776e-18)
(3.40285e-06 -1.2729e-05 -6.55987e-18)
(5.45536e-06 -1.13216e-05 -8.91981e-18)
(1.17017e-05 -5.98722e-06 -1.28961e-17)
(1.36048e-05 7.97678e-06 6.42332e-18)
(6.79429e-06 1.36197e-05 9.13496e-19)
(4.64641e-06 1.49172e-05 2.48009e-18)
(2.92347e-06 1.59493e-05 3.30157e-18)
(1.54316e-06 1.66677e-05 3.96707e-18)
(4.08227e-07 1.70939e-05 3.94342e-18)
(-5.48252e-07 1.72588e-05 3.75879e-18)
(-1.37231e-06 1.71989e-05 3.24151e-18)
(-2.09431e-06 1.69482e-05 3.29781e-18)
(-2.73412e-06 1.65364e-05 3.5711e-18)
(-3.30496e-06 1.5988e-05 3.44885e-18)
(-3.81592e-06 1.53231e-05 3.16266e-18)
(-4.27355e-06 1.45581e-05 2.69692e-18)
(-4.68275e-06 1.37069e-05 2.13656e-18)
(-5.04738e-06 1.27812e-05 1.67731e-18)
(-5.37054e-06 1.1791e-05 1.78815e-18)
(-5.6548e-06 1.0745e-05 2.38456e-18)
(-5.90231e-06 9.65114e-06 2.8091e-18)
(-6.11487e-06 8.51645e-06 2.22072e-18)
(-6.29399e-06 7.34743e-06 1.35829e-18)
(-6.44094e-06 6.15007e-06 1.52802e-18)
(-6.55674e-06 4.93005e-06 2.29108e-18)
(-6.64217e-06 3.69275e-06 2.23342e-18)
(-6.69779e-06 2.44341e-06 1.7318e-18)
(-6.72398e-06 1.18718e-06 1.708e-18)
(-6.72136e-06 -7.10556e-08 2.03551e-18)
(-6.6894e-06 -1.32631e-06 1.55725e-18)
(-6.6287e-06 -2.57366e-06 1.19914e-18)
(-6.53831e-06 -3.80826e-06 1.30514e-18)
(-6.41769e-06 -5.02479e-06 1.21456e-18)
(-6.26613e-06 -6.2178e-06 1.29021e-18)
(-6.08268e-06 -7.38162e-06 1.07774e-18)
(-5.86614e-06 -8.51025e-06 9.30053e-19)
(-5.61504e-06 -9.59721e-06 4.39934e-19)
(-5.3276e-06 -1.06354e-05 -5.32952e-19)
(-5.00171e-06 -1.16171e-05 -8.56163e-19)
(-4.63481e-06 -1.25335e-05 -8.19677e-19)
(-4.22379e-06 -1.33745e-05 -1.23315e-18)
(-3.76478e-06 -1.41286e-05 -1.73434e-18)
(-3.25282e-06 -1.47819e-05 -2.17036e-18)
(-2.6813e-06 -1.5318e-05 -1.60728e-18)
(-2.04103e-06 -1.57171e-05 -1.09863e-18)
(-1.31871e-06 -1.59548e-05 -9.91548e-19)
(-4.94393e-07 -1.60023e-05 -2.04462e-18)
(4.62271e-07 -1.58258e-05 -3.23776e-18)
(1.59709e-06 -1.53903e-05 -4.68152e-18)
(2.97647e-06 -1.46658e-05 -5.80841e-18)
(4.68933e-06 -1.36406e-05 -7.24561e-18)
(6.81604e-06 -1.23614e-05 -8.40326e-18)
(1.3393e-05 -6.95069e-06 -9.81742e-18)
(1.55213e-05 9.12681e-06 1.22751e-17)
(8.44041e-06 1.48613e-05 3.16568e-18)
(6.27998e-06 1.6005e-05 3.02063e-18)
(4.53189e-06 1.69444e-05 3.04424e-18)
(3.13775e-06 1.76231e-05 2.91662e-18)
(2.01383e-06 1.80433e-05 3.80428e-18)
(1.0952e-06 1.82183e-05 4.70291e-18)
(3.31855e-07 1.81711e-05 4.31459e-18)
(-3.12645e-07 1.79282e-05 4.61835e-18)
(-8.64121e-07 1.7515e-05 4.41755e-18)
(-1.34077e-06 1.69546e-05 3.27329e-18)
(-1.75555e-06 1.6267e-05 3.61832e-18)
(-2.11788e-06 1.54692e-05 3.43615e-18)
(-2.4348e-06 1.4576e-05 2.57064e-18)
(-2.7117e-06 1.35998e-05 2.12147e-18)
(-2.95283e-06 1.25518e-05 2.05088e-18)
(-3.16161e-06 1.14415e-05 2.37807e-18)
(-3.34083e-06 1.02778e-05 2.32006e-18)
(-3.49276e-06 9.06835e-06 2.08434e-18)
(-3.61928e-06 7.82051e-06 1.55297e-18)
(-3.72193e-06 6.54097e-06 2.02553e-18)
(-3.80195e-06 5.23603e-06 3.01165e-18)
(-3.86029e-06 3.9117e-06 1.95258e-18)
(-3.89751e-06 2.57378e-06 7.73323e-19)
(-3.91393e-06 1.22847e-06 7.25979e-19)
(-3.91134e-06 -1.1925e-07 1.11013e-18)
(-3.88599e-06 -1.46346e-06 8.21238e-19)
(-3.84325e-06 -2.79864e-06 2.57104e-19)
(-3.77869e-06 -4.12006e-06 6.03648e-19)
(-3.69248e-06 -5.42115e-06 9.53264e-19)
(-3.58388e-06 -6.69582e-06 1.27453e-18)
(-3.45175e-06 -7.93782e-06 1.54912e-18)
(-3.29462e-06 -9.14044e-06 1.30699e-18)
(-3.11065e-06 -1.02965e-05 4.38248e-19)
(-2.89758e-06 -1.13981e-05 -8.12392e-19)
(-2.65267e-06 -1.24367e-05 -1.08633e-18)
(-2.37249e-06 -1.34026e-05 -9.1156e-19)
(-2.05281e-06 -1.42847e-05 -8.90631e-19)
(-1.68818e-06 -1.50707e-05 -1.08869e-18)
(-1.27153e-06 -1.57458e-05 -1.54717e-18)
(-7.93364e-07 -1.62932e-05 -1.7759e-18)
(-2.40658e-07 -1.66932e-05 -1.96122e-18)
(4.04853e-07 -1.69232e-05 -2.02534e-18)
(1.169e-06 -1.6958e-05 -3.41919e-18)
(2.08811e-06 -1.67722e-05 -5.10031e-18)
(3.21187e-06 -1.63435e-05 -6.36481e-18)
(4.6046e-06 -1.566e-05 -6.43111e-18)
(6.34266e-06 -1.47277e-05 -6.70328e-18)
(8.4816e-06 -1.36028e-05 -4.95652e-18)
(1.53449e-05 -8.08459e-06 -3.0288e-18)
(1.75958e-05 1.04089e-05 1.90957e-17)
(1.02842e-05 1.62502e-05 6.93682e-18)
(8.15442e-06 1.72356e-05 5.41479e-18)
(6.41532e-06 1.80586e-05 3.73348e-18)
(5.02564e-06 1.86622e-05 2.90154e-18)
(3.91528e-06 1.90395e-05 3.90819e-18)
(3.02552e-06 1.91921e-05 4.21386e-18)
(2.30725e-06 1.91327e-05 4.28848e-18)
(1.72176e-06 1.88795e-05 4.18145e-18)
(1.23969e-06 1.84532e-05 3.91242e-18)
(8.39202e-07 1.78738e-05 3.29605e-18)
(5.04074e-07 1.71599e-05 4.00458e-18)
(2.22209e-07 1.63283e-05 4.21305e-18)
(-1.55495e-08 1.53937e-05 2.95927e-18)
(-2.1625e-07 1.43691e-05 2.44025e-18)
(-3.85411e-07 1.32662e-05 2.60289e-18)
(-5.27422e-07 1.20953e-05 2.40777e-18)
(-6.45814e-07 1.08657e-05 1.87262e-18)
(-7.43448e-07 9.58611e-06 1.71744e-18)
(-8.22651e-07 8.26425e-06 1.22959e-18)
(-8.85308e-07 6.90753e-06 1.04167e-18)
(-9.32944e-07 5.52287e-06 1.77618e-18)
(-9.66809e-07 4.11674e-06 1.61822e-18)
(-9.88116e-07 2.69543e-06 1.24379e-18)
(-9.94128e-07 1.26704e-06 1.56685e-18)
(-9.89712e-07 -1.66136e-07 2.0883e-18)
(-9.75756e-07 -1.59373e-06 1.76145e-18)
(-9.46917e-07 -3.01005e-06 7.25232e-19)
(-9.04731e-07 -4.41394e-06 5.56299e-19)
(-8.49295e-07 -5.79442e-06 3.76031e-19)
(-7.79256e-07 -7.1457e-06 -1.61485e-19)
(-6.93105e-07 -8.46101e-06 4.02183e-19)
(-5.88995e-07 -9.73307e-06 7.97255e-19)
(-4.64642e-07 -1.0954e-05 1.47712e-19)
(-3.1722e-07 -1.21154e-05 -4.54264e-19)
(-1.43222e-07 -1.32079e-05 -5.47605e-19)
(6.17281e-08 -1.42212e-05 -4.15129e-19)
(3.03154e-07 -1.51438e-05 -1.13733e-19)
(5.88128e-07 -1.59626e-05 -5.29158e-19)
(9.25844e-07 -1.66632e-05 -1.21332e-18)
(1.32846e-06 -1.7229e-05 -1.91135e-18)
(1.81222e-06 -1.76417e-05 -2.52534e-18)
(2.39903e-06 -1.78817e-05 -2.67205e-18)
(3.11819e-06 -1.7929e-05 -3.0902e-18)
(4.00825e-06 -1.7766e-05 -4.39301e-18)
(5.11799e-06 -1.73812e-05 -5.72521e-18)
(6.50552e-06 -1.67736e-05 -6.20353e-18)
(8.23445e-06 -1.5958e-05 -4.86644e-18)
(1.03426e-05 -1.49919e-05 -2.52125e-18)
(1.7451e-05 -9.35278e-06 1.56196e-18)
(1.9756e-05 1.17924e-05 1.2816e-17)
(1.2253e-05 1.77431e-05 9.96355e-18)
(1.01831e-05 1.85751e-05 7.62318e-18)
(8.48018e-06 1.92734e-05 5.15258e-18)
(7.11454e-06 1.97836e-05 4.3556e-18)
(6.02739e-06 2.00943e-05 5.1609e-18)
(5.16713e-06 2.02006e-05 4.80673e-18)
(4.48786e-06 2.01078e-05 4.05174e-18)
(3.9512e-06 1.98277e-05 3.66554e-18)
(3.52634e-06 1.93756e-05 3.23196e-18)
(3.18921e-06 1.87684e-05 2.91344e-18)
(2.92122e-06 1.80226e-05 3.53781e-18)
(2.70807e-06 1.71539e-05 3.4272e-18)
(2.53871e-06 1.61765e-05 2.26069e-18)
(2.40454e-06 1.51036e-05 1.87645e-18)
(2.29877e-06 1.3947e-05 2.70165e-18)
(2.21599e-06 1.27174e-05 3.23239e-18)
(2.15188e-06 1.14246e-05 3.26356e-18)
(2.10295e-06 1.00778e-05 2.99454e-18)
(2.06639e-06 8.68536e-06 2.21484e-18)
(2.03992e-06 7.25517e-06 1.23269e-18)
(2.02175e-06 5.79482e-06 1.08244e-18)
(2.01044e-06 4.31176e-06 1.33848e-18)
(2.00499e-06 2.80951e-06 1.35182e-18)
(2.00476e-06 1.29955e-06 1.14454e-18)
(2.01071e-06 -2.07735e-07 1.68333e-18)
(2.01805e-06 -1.71493e-06 9.74114e-19)
(2.03435e-06 -3.21475e-06 1.34587e-20)
(2.05546e-06 -4.69501e-06 6.61339e-19)
(2.08296e-06 -6.15012e-06 9.87982e-19)
(2.11826e-06 -7.57408e-06 3.66519e-19)
(2.16315e-06 -8.95922e-06 5.40911e-19)
(2.21986e-06 -1.02976e-05 5.29575e-19)
(2.29115e-06 -1.15809e-05 -4.33681e-19)
(2.38048e-06 -1.28e-05 -1.21541e-19)
(2.49214e-06 -1.39451e-05 6.86137e-20)
(2.6315e-06 -1.50057e-05 -1.3111e-19)
(2.80534e-06 -1.597e-05 -4.37494e-19)
(3.02229e-06 -1.68251e-05 -1.13114e-18)
(3.29341e-06 -1.75567e-05 -1.92715e-18)
(3.63304e-06 -1.81496e-05 -2.30126e-18)
(4.05978e-06 -1.85875e-05 -3.2894e-18)
(4.5977e-06 -1.88543e-05 -3.54108e-18)
(5.27754e-06 -1.8935e-05 -3.73757e-18)
(6.13754e-06 -1.88187e-05 -4.68692e-18)
(7.22324e-06 -1.85011e-05 -5.37151e-18)
(8.58578e-06 -1.7988e-05 -4.8087e-18)
(1.02783e-05 -1.72975e-05 -2.32713e-18)
(1.23265e-05 -1.64855e-05 6.74575e-20)
(1.96397e-05 -1.07247e-05 4.93965e-18)
(2.19518e-05 1.32511e-05 -2.23001e-19)
(1.42959e-05 1.93056e-05 9.88741e-18)
(1.23058e-05 1.99929e-05 8.63168e-18)
(1.06594e-05 2.05666e-05 5.56256e-18)
(9.33486e-06 2.0975e-05 4.30947e-18)
(8.28234e-06 2.12054e-05 4.14426e-18)
(7.45671e-06 2.12495e-05 4.0011e-18)
(6.81612e-06 2.11075e-05 4.3388e-18)
(6.3239e-06 2.07863e-05 4.2721e-18)
(5.94926e-06 2.02971e-05 3.92777e-18)
(5.66711e-06 1.96533e-05 3.19977e-18)
(5.45736e-06 1.88692e-05 3.1282e-18)
(5.30411e-06 1.79591e-05 3.36415e-18)
(5.19475e-06 1.69365e-05 2.80115e-18)
(5.11931e-06 1.58141e-05 2.58126e-18)
(5.06983e-06 1.46036e-05 2.89582e-18)
(5.03996e-06 1.33161e-05 2.68745e-18)
(5.02457e-06 1.19617e-05 2.32647e-18)
(5.01954e-06 1.05497e-05 1.87241e-18)
(5.02155e-06 9.08897e-06 1.85797e-18)
(5.02794e-06 7.58793e-06 1.66271e-18)
(5.03664e-06 6.05454e-06 1.75318e-18)
(5.04612e-06 4.49643e-06 2.08758e-18)
(5.05553e-06 2.92059e-06 1.67207e-18)
(5.0608e-06 1.3347e-06 8.38767e-19)
(5.06635e-06 -2.52572e-07 1.19826e-18)
(5.0723e-06 -1.83649e-06 8.70478e-19)
(5.0751e-06 -3.41008e-06 2.44113e-19)
(5.07647e-06 -4.96405e-06 3.83543e-19)
(5.07847e-06 -6.49182e-06 2.9473e-19)
(5.08235e-06 -7.98597e-06 2.38127e-19)
(5.09009e-06 -9.43855e-06 1.14185e-18)
(5.10423e-06 -1.08412e-05 1.51034e-18)
(5.12806e-06 -1.21853e-05 1.31983e-19)
(5.16562e-06 -1.34612e-05 -4.03368e-19)
(5.222e-06 -1.46591e-05 -6.89101e-20)
(5.30353e-06 -1.57681e-05 -3.73284e-19)
(5.41812e-06 -1.67765e-05 -1.12018e-18)
(5.57576e-06 -1.76719e-05 -1.53485e-18)
(5.78901e-06 -1.84408e-05 -2.23747e-18)
(6.07381e-06 -1.90695e-05 -3.1726e-18)
(6.45022e-06 -1.9544e-05 -4.36726e-18)
(6.94332e-06 -1.98514e-05 -4.36994e-18)
(7.58383e-06 -1.99813e-05 -3.72848e-18)
(8.40828e-06 -1.99276e-05 -4.24927e-18)
(9.45826e-06 -1.96909e-05 -4.7569e-18)
(1.07785e-05 -1.92806e-05 -3.93802e-18)
(1.24141e-05 -1.87156e-05 -1.18433e-18)
(1.43827e-05 -1.80494e-05 2.57174e-19)
(2.18618e-05 -1.21744e-05 1.2274e-18)
(2.41476e-05 1.47621e-05 -9.20918e-19)
(1.63759e-05 2.09097e-05 6.08597e-18)
(1.44792e-05 2.1463e-05 7.33162e-18)
(1.29041e-05 2.19161e-05 5.93822e-18)
(1.16345e-05 2.22209e-05 4.97436e-18)
(1.06273e-05 2.23643e-05 4.71899e-18)
(9.84301e-06 2.23362e-05 4.06473e-18)
(9.24375e-06 2.2134e-05 3.38527e-18)
(8.7952e-06 2.1761e-05 3.74213e-18)
(8.46746e-06 2.12251e-05 3.93355e-18)
(8.23531e-06 2.05369e-05 3.63908e-18)
(8.07789e-06 1.97084e-05 3.44704e-18)
(7.97823e-06 1.87525e-05 3.51176e-18)
(7.92255e-06 1.76816e-05 2.88898e-18)
(7.89978e-06 1.6508e-05 2.9728e-18)
(7.90094e-06 1.5243e-05 2.74768e-18)
(7.91881e-06 1.38977e-05 1.91309e-18)
(7.94752e-06 1.24822e-05 1.76471e-18)
(7.98234e-06 1.10062e-05 2.03394e-18)
(8.01946e-06 9.47892e-06 2.15863e-18)
(8.05582e-06 7.90901e-06 2.41437e-18)
(8.08903e-06 6.30484e-06 2.25922e-18)
(8.11725e-06 4.67447e-06 1.88853e-18)
(8.13912e-06 3.02566e-06 1.81324e-18)
(8.1533e-06 1.36631e-06 1.20451e-18)
(8.15971e-06 -2.95677e-07 9.98282e-19)
(8.15928e-06 -1.95335e-06 6.48059e-19)
(8.15052e-06 -3.59916e-06 6.29747e-19)
(8.13502e-06 -5.22492e-06 1.17047e-18)
(8.11415e-06 -6.82292e-06 9.60071e-19)
(8.08962e-06 -8.38522e-06 2.93393e-19)
(8.06371e-06 -9.90355e-06 5.95129e-19)
(8.03938e-06 -1.13692e-05 9.49939e-19)
(8.02037e-06 -1.27732e-05 1.01486e-20)
(8.01135e-06 -1.41059e-05 -8.06306e-19)
(8.01811e-06 -1.53571e-05 -2.63666e-19)
(8.04783e-06 -1.65162e-05 -1.49444e-19)
(8.10943e-06 -1.75717e-05 -1.02625e-18)
(8.21395e-06 -1.85117e-05 -1.97988e-18)
(8.37511e-06 -1.93239e-05 -3.12173e-18)
(8.60986e-06 -1.9996e-05 -4.0785e-18)
(8.93903e-06 -2.05163e-05 -4.67288e-18)
(9.3878e-06 -2.0875e-05 -4.75968e-18)
(9.98602e-06 -2.1065e-05 -4.19204e-18)
(1.07679e-05 -2.10837e-05 -3.94272e-18)
(1.17713e-05 -2.0935e-05 -4.34576e-18)
(1.30354e-05 -2.06298e-05 -3.79148e-18)
(1.45991e-05 -2.01866e-05 -2.0395e-18)
(1.64745e-05 -1.96566e-05 -1.20391e-18)
(2.40823e-05 -1.36798e-05 -3.28778e-18)
(2.63171e-05 1.63057e-05 6.22331e-18)
(1.84652e-05 2.25327e-05 3.92103e-18)
(1.66712e-05 2.29633e-05 5.67627e-18)
(1.51781e-05 2.33025e-05 5.66742e-18)
(1.39741e-05 2.35054e-05 5.4949e-18)
(1.30214e-05 2.35593e-05 5.0209e-18)
(1.22852e-05 2.34537e-05 4.05623e-18)
(1.17311e-05 2.31842e-05 2.94095e-18)
(1.13275e-05 2.27519e-05 3.32322e-18)
(1.10458e-05 2.2162e-05 4.0094e-18)
(1.08611e-05 2.1423e-05 4.31922e-18)
(1.07523e-05 2.05449e-05 4.86325e-18)
(1.0702e-05 1.95391e-05 4.32569e-18)
(1.06955e-05 1.8417e-05 3.05055e-18)
(1.07208e-05 1.71901e-05 2.72831e-18)
(1.07682e-05 1.58696e-05 1.67625e-18)
(1.08297e-05 1.44661e-05 1.6501e-18)
(1.08987e-05 1.29898e-05 3.34909e-18)
(1.09701e-05 1.14507e-05 3.54262e-18)
(1.10394e-05 9.85797e-06 2.04883e-18)
(1.11033e-05 8.22068e-06 1.74734e-18)
(1.11591e-05 6.54748e-06 1.74538e-18)
(1.12046e-05 4.84682e-06 1.07441e-18)
(1.12384e-05 3.12691e-06 1.37694e-18)
(1.12593e-05 1.39592e-06 1.44902e-18)
(1.12668e-05 -3.38084e-07 1.01631e-18)
(1.12613e-05 -2.0673e-06 9.42853e-19)
(1.12425e-05 -3.78378e-06 8.64049e-19)
(1.12115e-05 -5.47929e-06 1.28409e-18)
(1.11698e-05 -7.14566e-06 1.15002e-18)
(1.11194e-05 -8.77455e-06 6.29036e-19)
(1.10627e-05 -1.03574e-05 8.16289e-19)
(1.10033e-05 -1.18852e-05 1.01753e-18)
(1.09453e-05 -1.33488e-05 1.02014e-18)
(1.08938e-05 -1.47384e-05 2.91708e-19)
(1.08553e-05 -1.6044e-05 -2.70942e-19)
(1.08378e-05 -1.7255e-05 -1.33835e-18)
(1.08509e-05 -1.83603e-05 -2.04945e-18)
(1.09065e-05 -1.93489e-05 -2.277e-18)
(1.10191e-05 -2.02094e-05 -2.92807e-18)
(1.12062e-05 -2.09312e-05 -3.67329e-18)
(1.14889e-05 -2.15046e-05 -4.00022e-18)
(1.18918e-05 -2.1922e-05 -4.01523e-18)
(1.24436e-05 -2.2179e-05 -3.89799e-18)
(1.3176e-05 -2.22757e-05 -4.17063e-18)
(1.41233e-05 -2.22174e-05 -5.13376e-18)
(1.53204e-05 -2.2016e-05 -5.13878e-18)
(1.68016e-05 -2.16892e-05 -4.21811e-18)
(1.85749e-05 -2.12854e-05 -2.93114e-18)
(2.62763e-05 -1.52222e-05 -4.3553e-18)
(2.84408e-05 1.78644e-05 8.8157e-18)
(2.05425e-05 2.41559e-05 4.30639e-18)
(1.88571e-05 2.44753e-05 4.40823e-18)
(1.74538e-05 2.47083e-05 4.171e-18)
(1.63235e-05 2.48133e-05 4.41183e-18)
(1.54328e-05 2.47784e-05 5.20533e-18)
(1.47507e-05 2.45932e-05 4.82792e-18)
(1.42461e-05 2.42525e-05 4.37475e-18)
(1.38897e-05 2.37559e-05 4.03291e-18)
(1.36544e-05 2.31069e-05 3.98583e-18)
(1.35162e-05 2.23122e-05 3.97239e-18)
(1.34542e-05 2.13803e-05 4.68034e-18)
(1.34505e-05 2.03211e-05 4.11706e-18)
(1.349e-05 1.91452e-05 3.80398e-18)
(1.35601e-05 1.78632e-05 3.853e-18)
(1.36504e-05 1.6486e-05 2.26278e-18)
(1.37523e-05 1.50239e-05 1.89023e-18)
(1.38588e-05 1.3487e-05 3.82744e-18)
(1.39639e-05 1.18852e-05 3.54572e-18)
(1.40631e-05 1.0228e-05 1.69157e-18)
(1.41525e-05 8.52445e-06 1.49056e-18)
(1.42292e-05 6.78364e-06 1.84755e-18)
(1.42909e-05 5.01426e-06 1.6025e-18)
(1.43359e-05 3.22488e-06 1.61835e-18)
(1.43629e-05 1.42396e-06 1.95222e-18)
(1.43715e-05 -3.80121e-07 7.07656e-19)
(1.43617e-05 -2.17909e-06 6.84409e-19)
(1.43336e-05 -3.96462e-06 1.5413e-18)
(1.42884e-05 -5.72827e-06 1.90502e-18)
(1.42276e-05 -7.46153e-06 1.13239e-18)
(1.41533e-05 -9.15576e-06 8.46686e-19)
(1.40684e-05 -1.08021e-05 1.20272e-18)
(1.39766e-05 -1.23915e-05 1.13339e-18)
(1.38825e-05 -1.39145e-05 5.32057e-19)
(1.37918e-05 -1.53615e-05 -7.59791e-19)
(1.37114e-05 -1.67224e-05 -8.8998e-19)
(1.365e-05 -1.79869e-05 -1.05451e-18)
(1.36177e-05 -1.91446e-05 -1.26333e-18)
(1.36271e-05 -2.0185e-05 -2.43424e-18)
(1.36931e-05 -2.1098e-05 -3.25109e-18)
(1.38334e-05 -2.18741e-05 -3.6776e-18)
(1.40689e-05 -2.25055e-05 -4.23836e-18)
(1.44236e-05 -2.29865e-05 -3.84127e-18)
(1.49246e-05 -2.33146e-05 -3.91261e-18)
(1.56013e-05 -2.34914e-05 -4.45351e-18)
(1.64849e-05 -2.35235e-05 -5.15894e-18)
(1.76069e-05 -2.34226e-05 -5.34212e-18)
(1.89979e-05 -2.32055e-05 -5.19633e-18)
(2.0663e-05 -2.29181e-05 -5.43546e-18)
(2.84253e-05 -1.67855e-05 -7.3628e-18)
(3.05034e-05 1.94222e-05 4.7449e-18)
(2.25906e-05 2.57631e-05 4.33323e-18)
(2.10178e-05 2.59829e-05 4.69822e-18)
(1.97096e-05 2.61183e-05 5.00351e-18)
(1.86591e-05 2.61309e-05 4.68451e-18)
(1.78364e-05 2.60099e-05 4.91657e-18)
(1.72136e-05 2.57453e-05 4.34786e-18)
(1.67625e-05 2.53318e-05 4.20949e-18)
(1.64559e-05 2.47681e-05 3.75337e-18)
(1.62685e-05 2.40567e-05 3.13012e-18)
(1.61769e-05 2.32028e-05 3.75859e-18)
(1.61608e-05 2.22139e-05 4.77181e-18)
(1.62021e-05 2.10987e-05 4.16019e-18)
(1.62856e-05 1.98668e-05 3.4011e-18)
(1.63983e-05 1.85284e-05 3.53322e-18)
(1.65291e-05 1.70936e-05 2.35473e-18)
(1.6669e-05 1.55725e-05 2.31837e-18)
(1.68105e-05 1.3975e-05 4.20773e-18)
(1.69473e-05 1.2311e-05 3.63602e-18)
(1.70744e-05 1.059e-05 2.39182e-18)
(1.71877e-05 8.82129e-06 2.18233e-18)
(1.7284e-05 7.01407e-06 2.52913e-18)
(1.73608e-05 5.17733e-06 2.40695e-18)
(1.74163e-05 3.31992e-06 1.39498e-18)
(1.74492e-05 1.45061e-06 1.62222e-18)
(1.74589e-05 -4.21938e-07 5.58547e-19)
(1.74452e-05 -2.28909e-06 9.53559e-19)
(1.74087e-05 -4.14221e-06 2.17438e-18)
(1.73503e-05 -5.97259e-06 2.10561e-18)
(1.72717e-05 -7.77146e-06 1.57885e-18)
(1.71752e-05 -9.52994e-06 1.55675e-18)
(1.70641e-05 -1.1239e-05 7.92457e-19)
(1.69421e-05 -1.28894e-05 3.8936e-19)
(1.68143e-05 -1.44717e-05 6.75712e-19)
(1.66869e-05 -1.59763e-05 -3.83306e-19)
(1.65671e-05 -1.73933e-05 -1.32401e-18)
(1.6464e-05 -1.87128e-05 -2.26819e-18)
(1.63885e-05 -1.99248e-05 -1.73023e-18)
(1.63532e-05 -2.10196e-05 -1.59396e-18)
(1.63734e-05 -2.19879e-05 -2.7297e-18)
(1.64669e-05 -2.28216e-05 -3.72191e-18)
(1.66539e-05 -2.35143e-05 -5.1854e-18)
(1.69577e-05 -2.40616e-05 -4.59931e-18)
(1.74037e-05 -2.44625e-05 -3.64555e-18)
(1.80194e-05 -2.47197e-05 -4.07364e-18)
(1.88334e-05 -2.48401e-05 -5.13752e-18)
(1.98742e-05 -2.48353e-05 -5.88618e-18)
(2.11697e-05 -2.47208e-05 -6.51177e-18)
(2.2723e-05 -2.45405e-05 -7.63702e-18)
(3.05159e-05 -1.83559e-05 -1.12902e-17)
(3.24927e-05 2.09648e-05 1.97539e-18)
(2.45957e-05 2.73405e-05 4.71991e-18)
(2.31374e-05 2.74724e-05 4.19846e-18)
(2.19279e-05 2.75192e-05 4.49725e-18)
(2.0962e-05 2.74459e-05 4.80829e-18)
(2.0212e-05 2.72428e-05 5.09629e-18)
(1.96528e-05 2.69007e-05 4.82166e-18)
(1.92589e-05 2.64145e-05 4.51373e-18)
(1.9005e-05 2.57827e-05 3.87913e-18)
(1.8867e-05 2.5007e-05 3.11977e-18)
(1.88229e-05 2.40919e-05 4.24622e-18)
(1.88526e-05 2.30439e-05 4.76837e-18)
(1.89383e-05 2.18708e-05 4.24104e-18)
(1.90647e-05 2.05816e-05 3.22643e-18)
(1.92183e-05 1.91856e-05 3.93715e-18)
(1.93879e-05 1.76926e-05 3.23434e-18)
(1.9564e-05 1.61122e-05 2.86166e-18)
(1.97387e-05 1.44544e-05 4.28223e-18)
(1.99055e-05 1.27287e-05 3.20088e-18)
(2.00589e-05 1.09446e-05 2.44029e-18)
(2.01948e-05 9.11168e-06 2.0036e-18)
(2.03096e-05 7.23919e-06 2.52217e-18)
(2.04008e-05 5.33634e-06 2.85275e-18)
(2.04663e-05 3.41225e-06 2.34968e-18)
(2.05048e-05 1.47595e-06 2.42966e-18)
(2.05156e-05 -4.63612e-07 7.52798e-19)
(2.04985e-05 -2.39752e-06 3.11682e-19)
(2.04541e-05 -4.31684e-06 1.17472e-18)
(2.03834e-05 -6.21265e-06 1.04145e-18)
(2.02883e-05 -8.07593e-06 1.03388e-18)
(2.01711e-05 -9.89762e-06 1.72062e-18)
(2.00352e-05 -1.16686e-05 8.86302e-19)
(1.98848e-05 -1.33794e-05 4.99422e-19)
(1.97252e-05 -1.50208e-05 3.41339e-19)
(1.95629e-05 -1.65832e-05 -9.8469e-19)
(1.94055e-05 -1.80568e-05 -1.08042e-18)
(1.92625e-05 -1.94322e-05 -1.50789e-18)
(1.91449e-05 -2.06999e-05 -2.31664e-18)
(1.90658e-05 -2.18507e-05 -2.15904e-18)
(1.90405e-05 -2.28763e-05 -3.00296e-18)
(1.90863e-05 -2.37697e-05 -3.23626e-18)
(1.92233e-05 -2.45253e-05 -4.0379e-18)
(1.94735e-05 -2.514e-05 -4.58854e-18)
(1.9861e-05 -2.56138e-05 -3.43689e-18)
(2.04114e-05 -2.59499e-05 -4.79277e-18)
(2.11511e-05 -2.61556e-05 -6.55824e-18)
(2.21064e-05 -2.62417e-05 -7.55694e-18)
(2.33028e-05 -2.6223e-05 -7.63647e-18)
(2.47422e-05 -2.61409e-05 -8.02186e-18)
(3.2538e-05 -1.99216e-05 -1.12197e-17)
(3.43985e-05 2.24786e-05 5.86433e-18)
(2.65462e-05 2.88757e-05 4.92009e-18)
(2.52026e-05 2.89317e-05 4.24128e-18)
(2.40942e-05 2.88988e-05 4.07052e-18)
(2.32166e-05 2.87468e-05 4.15126e-18)
(2.25431e-05 2.84667e-05 3.96842e-18)
(2.20512e-05 2.80503e-05 3.79462e-18)
(2.17177e-05 2.74929e-05 4.43768e-18)
(2.1519e-05 2.67933e-05 4.39819e-18)
(2.14325e-05 2.59529e-05 3.78039e-18)
(2.1437e-05 2.49756e-05 4.26893e-18)
(2.1513e-05 2.38673e-05 5.10773e-18)
(2.1643e-05 2.26354e-05 4.68832e-18)
(2.18116e-05 2.12879e-05 2.85074e-18)
(2.20053e-05 1.98339e-05 3.98879e-18)
(2.22125e-05 1.82824e-05 3.551e-18)
(2.24236e-05 1.66429e-05 3.25049e-18)
(2.26302e-05 1.49251e-05 3.74493e-18)
(2.28256e-05 1.31382e-05 2.65334e-18)
(2.30043e-05 1.1292e-05 2.36662e-18)
(2.31616e-05 9.3958e-06 2.13025e-18)
(2.32941e-05 7.45913e-06 2.40764e-18)
(2.33989e-05 5.4914e-06 2.78377e-18)
(2.3474e-05 3.50194e-06 2.35929e-18)
(2.35179e-05 1.50001e-06 2.08553e-18)
(2.35298e-05 -5.05179e-07 1.8534e-18)
(2.35097e-05 -2.50445e-06 2.18524e-18)
(2.3458e-05 -4.48864e-06 2.57099e-18)
(2.33758e-05 -6.44858e-06 1.42247e-18)
(2.32651e-05 -8.37508e-06 6.85849e-19)
(2.31283e-05 -1.02589e-05 6.00818e-19)
(2.2969e-05 -1.20909e-05 -3.53965e-19)
(2.27916e-05 -1.38615e-05 -1.3162e-19)
(2.26016e-05 -1.55616e-05 -1.33057e-19)
(2.24057e-05 -1.71815e-05 -1.21152e-18)
(2.2212e-05 -1.87121e-05 -1.95806e-18)
(2.20301e-05 -2.01438e-05 -2.30134e-18)
(2.18713e-05 -2.14679e-05 -2.97037e-18)
(2.17487e-05 -2.26757e-05 -2.71191e-18)
(2.16776e-05 -2.37597e-05 -3.22942e-18)
(2.1675e-05 -2.47135e-05 -3.13188e-18)
(2.17602e-05 -2.55326e-05 -3.62326e-18)
(2.19545e-05 -2.62147e-05 -4.77365e-18)
(2.22804e-05 -2.67603e-05 -3.43775e-18)
(2.27622e-05 -2.7173e-05 -4.83168e-18)
(2.34242e-05 -2.74599e-05 -7.16086e-18)
(2.42908e-05 -2.76317e-05 -8.08196e-18)
(2.5386e-05 -2.77017e-05 -7.46499e-18)
(2.67107e-05 -2.77095e-05 -7.05148e-18)
(3.44838e-05 -2.14723e-05 -8.10928e-18)
(3.6211e-05 2.39502e-05 1.06861e-17)
(2.84326e-05 3.03578e-05 3.7925e-18)
(2.72013e-05 3.035e-05 3.94753e-18)
(2.61957e-05 3.02461e-05 4.13685e-18)
(2.541e-05 3.0023e-05 4.40783e-18)