/*--------------------------------*- C++ -*----------------------------------*\
  =========                 |
  \\      /  F ield         | OpenFOAM: The Open Source CFD Toolbox
   \\    /   O peration     | Website:  https://openfoam.org
    \\  /    A nd           | Version:  7
     \\/     M anipulation  |
\*---------------------------------------------------------------------------*/
FoamFile
{
    version     2.0;
    format      ascii;
    class       surfaceScalarField;
    location    "156000";
    object      phi;
}
// * * * * * * * * * * * * * * * * * * * * * * * * * * * * * * * * * * * * * //

dimensions      [0 3 -1 0 0 0 0];

internalField   nonuniform List<scalar> 
9375
(
-1.25711e-23
1.45895e-22
-9.02197e-24
1.12489e-22
-1.8064e-23
3.76702e-23
-1.49305e-23
1.0923e-22
-1.78872e-23
-6.61586e-23
1.31437e-22
-6.75888e-24
7.39316e-23
-4.46095e-24
-5.88743e-23
-9.4884e-24
2.70197e-23
-2.48706e-23
7.53266e-23
-4.73764e-24
1.76306e-22
-1.95389e-23
8.42029e-23
-2.03286e-23
1.27468e-22
-2.787e-23
5.71274e-23
-1.76366e-23
2.95788e-23
-1.11541e-23
1.68816e-22
-1.04138e-23
1.498e-22
-1.61437e-23
7.81538e-23
-1.74069e-23
6.37586e-23
-1.50298e-23
4.38653e-24
-1.14771e-23
1.15151e-22
-1.65989e-23
1.28395e-22
-1.84439e-23
1.3068e-22
-2.15325e-23
1.96665e-22
-1.81291e-23
1.02082e-22
-2.88818e-23
3.63602e-23
-3.13279e-23
1.92537e-22
-2.9221e-23
1.25972e-22
-2.04925e-23
7.17201e-23
-2.03889e-23
2.28049e-22
-2.38058e-23
2.09425e-22
-1.39986e-23
2.44482e-22
-1.21229e-23
6.78253e-23
-1.52788e-23
1.0836e-22
1.39768e-22
-7.836e-24
4.86632e-23
-2.50416e-24
-6.49848e-23
-9.29046e-24
2.88291e-23
-2.29371e-23
1.15881e-22
-5.76703e-24
1.34463e-22
-1.85602e-23
1.40114e-22
-2.01178e-23
2.28211e-22
-2.73736e-23
6.99755e-23
-1.63434e-23
3.22145e-23
-1.08431e-23
2.23782e-22
-1.06888e-23
1.86594e-22
-1.72392e-23
4.60514e-23
-1.72787e-23
5.78733e-23
-1.26795e-23
6.83253e-23
-1.16439e-23
1.26478e-22
-1.57269e-23
1.31378e-22
-1.76966e-23
6.92611e-23
-2.18638e-23
2.07236e-22
-1.90662e-23
1.46383e-22
-2.55684e-23
4.73251e-23
-3.31302e-23
1.64315e-22
-2.93108e-23
1.34212e-22
-1.87629e-23
5.07286e-23
-1.976e-23
1.96456e-22
-2.34785e-23
1.91898e-22
-1.65065e-23
2.07146e-22
-1.18132e-23
6.12351e-23
-1.44103e-23
8.19438e-23
-4.03367e-24
1.18628e-22
-2.20572e-24
6.44519e-23
3.40305e-24
1.32093e-22
-3.9087e-24
5.85068e-23
1.60764e-22
-7.62625e-24
1.14365e-22
-5.73271e-25
-6.99289e-23
-7.50874e-24
-1.05842e-23
-2.17025e-23
1.30448e-22
-5.90102e-24
1.04812e-22
-1.61349e-23
1.21141e-22
-2.27226e-23
2.48957e-22
-2.68279e-23
5.93317e-23
-1.40816e-23
1.43793e-22
-1.14018e-23
1.73944e-22
-1.21754e-23
1.89728e-22
-1.77736e-23
4.66737e-23
-1.61472e-23
5.18672e-23
-1.13956e-23
4.52035e-23
-1.18872e-23
8.77876e-23
-1.57142e-23
1.7168e-22
-1.61799e-23
8.24949e-23
-2.20601e-23
2.46535e-22
-2.04393e-23
1.55979e-22
-2.31804e-23
5.55208e-23
-3.41464e-23
4.57667e-23
-2.9987e-23
1.2905e-22
-1.69357e-23
3.27864e-23
-1.88027e-23
1.96432e-22
-2.39662e-23
1.69039e-22
-1.71842e-23
1.92636e-22
-1.21878e-23
5.45059e-23
-1.30473e-23
1.20142e-22
-3.81688e-24
2.41202e-22
-1.39462e-24
8.75995e-23
2.90549e-24
1.20449e-22
-2.67411e-24
6.55204e-23
-5.15142e-26
1.18328e-22
1.22609e-23
-3.26638e-23
6.27618e-24
6.48315e-23
-1.4575e-24
-1.02343e-22
-4.58336e-25
-3.95699e-23
-3.86936e-24
-5.40907e-24
-1.0758e-23
3.75504e-23
-1.98921e-23
-4.54703e-24
-2.0605e-24
1.52494e-22
-5.51723e-24
9.94681e-23
-2.99889e-24
9.44891e-23
-3.36992e-24
8.43732e-24
-8.07362e-23
-9.34172e-24
8.87039e-23
4.56239e-25
-3.62105e-23
-5.35087e-24
-1.12265e-23
-2.05829e-23
1.45152e-22
-6.34443e-24
1.70137e-22
-1.28428e-23
1.49082e-22
-2.47665e-23
2.02832e-22
-2.47677e-23
1.36576e-22
-1.40763e-23
9.24246e-23
-1.0555e-23
2.38001e-22
-1.43106e-23
2.24498e-22
-1.78036e-23
6.366e-23
-1.52754e-23
3.74081e-23
-1.01742e-23
6.78178e-23
-1.09916e-23
3.5132e-23
-1.62036e-23
1.40271e-22
-1.38969e-23
1.49083e-22
-2.3103e-23
2.10076e-22
-2.13291e-23
1.47149e-22
-2.3078e-23
5.76595e-23
-3.31452e-23
5.08265e-23
-3.12302e-23
1.26073e-22
-1.41205e-23
1.45803e-22
-1.89422e-23
1.96543e-22
-2.44326e-23
1.88452e-22
-1.74118e-23
2.33591e-22
-1.201e-23
4.29727e-23
-1.04647e-23
1.39517e-22
-5.49695e-24
1.04116e-22
-6.86087e-25
1.19758e-22
1.99521e-24
4.32692e-23
-2.53201e-24
9.68691e-23
-8.82516e-25
8.49419e-23
1.2512e-23
5.56629e-24
4.14518e-24
8.61831e-23
-5.2437e-25
-9.20181e-23
8.75764e-25
-3.73137e-23
-3.73762e-24
-5.94526e-24
-9.6584e-24
1.43916e-23
-1.79335e-23
1.90718e-24
-3.26015e-24
1.37001e-22
-5.04397e-24
5.45106e-23
-5.7367e-24
8.00304e-23
-4.44265e-24
1.38432e-22
-3.4939e-23
-8.53235e-24
7.69925e-23
8.29536e-25
8.1818e-23
-3.71146e-24
-1.0928e-23
-1.88687e-23
1.96139e-22
-8.26646e-24
1.65283e-22
-1.22824e-23
2.00174e-22
-2.40036e-23
1.92417e-22
-2.52542e-23
1.35265e-22
-1.35018e-23
8.63054e-23
-1.04007e-23
2.21899e-22
-1.50876e-23
1.9638e-22
-1.7555e-23
1.05566e-22
-1.53178e-23
5.41092e-23
-9.20744e-24
1.35235e-22
-1.01453e-23
1.907e-23
-1.51867e-23
1.3549e-22
-1.31782e-23
8.7006e-23
-2.37424e-23
1.74113e-22
-2.20114e-23
1.50538e-22
-2.27369e-23
5.77821e-23
-3.26196e-23
5.80314e-23
-3.0593e-23
1.15978e-22
-1.31363e-23
1.1902e-22
-1.88885e-23
1.1224e-22
-2.43777e-23
1.94876e-22
-1.7976e-23
2.75579e-22
-1.17096e-23
5.08257e-23
-1.04809e-23
1.66322e-22
-5.43249e-24
9.40688e-23
-1.9295e-24
1.10324e-22
3.28732e-24
3.16579e-23
-3.20922e-24
6.41502e-23
-1.67131e-25
7.83408e-23
1.36811e-23
1.44383e-23
2.36306e-24
3.52113e-23
1.20139e-24
-7.98051e-23
1.69565e-24
-2.78242e-23
-4.11796e-24
-4.06779e-23
-8.08277e-24
1.61723e-23
-1.58124e-23
1.15407e-23
-4.1489e-24
1.10703e-22
-4.97106e-24
7.56659e-23
-4.53524e-24
9.872e-23
-7.26776e-24
1.32383e-22
-1.90335e-23
-8.27956e-24
7.3542e-23
6.57621e-25
7.47101e-23
-1.67067e-24
-6.17047e-24
-1.72451e-23
1.26573e-22
-6.83374e-24
1.1624e-22
-1.19879e-23
8.92267e-23
-2.41274e-23
2.08338e-22
-2.4511e-23
1.50224e-22
-1.17098e-23
8.38697e-23
-1.10363e-23
1.83463e-22
-1.51154e-23
2.00641e-22
-1.87001e-23
7.57449e-23
-1.3722e-23
4.80559e-23
-9.49359e-24
1.50168e-22
-9.61016e-24
2.04681e-24
-1.41288e-23
1.35788e-22
-1.24227e-23
1.11571e-22
-2.39536e-23
1.51748e-22
-2.27304e-23
1.57237e-22
-2.20797e-23
2.52065e-23
-3.24514e-23
7.46338e-23
-3.02312e-23
1.23366e-22
-1.28918e-23
1.71869e-22
-1.76865e-23
1.00655e-22
-2.38107e-23
2.07569e-22
-1.8787e-23
2.38993e-22
-1.22424e-23
4.3823e-23
-1.03365e-23
1.56986e-22
-4.50692e-24
9.06018e-23
-3.04488e-24
1.00292e-22
2.87937e-24
9.50847e-23
-3.03657e-24
7.11509e-23
-5.17915e-25
6.97033e-23
1.32156e-23
3.04916e-24
1.45105e-24
6.52646e-23
-1.10508e-25
1.19166e-23
1.74676e-24
2.13633e-23
-3.15171e-24
-4.77684e-25
-7.54393e-24
1.5854e-23
-1.44101e-23
2.11773e-23
-3.89763e-24
1.06589e-22
-5.35053e-24
8.14546e-23
-4.97077e-24
8.96119e-23
-8.4766e-24
1.21713e-22
-7.96737e-23
-6.15831e-24
-6.59687e-24
1.29636e-24
6.497e-23
-8.34884e-25
-1.3653e-24
-1.64213e-23
9.43841e-23
-7.40096e-24
1.404e-22
-1.03561e-23
1.25464e-22
-2.47742e-23
1.94834e-22
-2.41462e-23
1.65791e-22
-1.13169e-23
1.26669e-22
-1.06572e-23
1.82586e-22
-1.58718e-23
1.65597e-22
-1.88347e-23
6.78811e-23
-1.24494e-23
3.5823e-23
-9.97451e-24
1.46014e-22
-9.09175e-24
6.86912e-23
-1.30121e-23
1.22509e-22
-1.24571e-23
4.98996e-23
-2.36903e-23
1.49586e-22
-2.38381e-23
1.24679e-22
-2.06706e-23
4.25707e-23
-3.23108e-23
1.0479e-23
-2.96345e-23
1.97104e-22
-1.3874e-23
2.27926e-22
-1.58878e-23
1.01809e-22
-2.40848e-23
1.38187e-22
-1.90705e-23
2.02337e-22
-1.25328e-23
4.1808e-23
-9.46762e-24
1.86627e-22
-4.95553e-24
5.92639e-23
-2.28618e-24
1.74404e-22
2.27957e-24
8.48471e-23
-2.82534e-24
1.10063e-22
-1.19678e-24
7.03026e-23
1.38945e-23
4.19033e-23
1.94767e-24
6.79648e-23
4.5303e-26
-1.37685e-24
1.49551e-24
5.20301e-23
-2.53633e-24
-8.0281e-25
-8.70626e-24
2.07817e-23
-1.37109e-23
6.39916e-23
-3.62105e-24
1.49628e-22
-5.92373e-24
9.07537e-23
-5.00071e-24
8.17457e-23
-1.06944e-23
1.16107e-22
-1.08023e-22
-5.02869e-24
1.13997e-22
1.51414e-24
9.48019e-23
-7.38391e-25
6.1975e-24
-1.50801e-23
4.86825e-23
-6.90995e-24
1.35919e-22
-8.18148e-24
9.28772e-23
-2.43576e-23
8.55551e-23
-2.42753e-23
2.24169e-22
-1.10252e-23
2.08016e-22
-1.08832e-23
1.87533e-22
-1.67074e-23
1.59272e-22
-1.89109e-23
7.23773e-23
-1.07169e-23
1.02529e-22
-9.44132e-24
1.57246e-22
-9.74398e-24
5.56272e-23
-1.27996e-23
7.1831e-23
-1.13384e-23
2.84568e-23
-2.40952e-23
1.15157e-22
-2.3799e-23
1.35172e-22
-2.1008e-23
4.16204e-23
-3.00905e-23
2.72711e-23
-2.90991e-23
1.3778e-22
-1.51756e-23
2.0864e-22
-1.49933e-23
1.8199e-22
-2.39361e-23
1.43983e-22
-1.90206e-23
2.01456e-22
-1.28253e-23
2.29058e-23
-1.02531e-23
1.83587e-22
-3.21063e-24
2.84079e-23
-2.94464e-24
1.34831e-22
2.40116e-24
7.37803e-23
-3.39138e-24
6.9399e-23
-9.71791e-25
4.10472e-23
1.3663e-23
8.23581e-23
1.07366e-24
7.92419e-24
5.45456e-25
5.10517e-23
2.32081e-24
2.88048e-23
-2.43177e-24
8.78526e-24
-7.51479e-24
2.18642e-23
-1.32293e-23
4.35698e-23
-3.61594e-24
1.46176e-22
-6.45778e-24
7.44864e-23
-4.44982e-24
7.56511e-23
-1.1931e-23
3.11561e-23
-9.75163e-23
-4.26545e-24
1.60178e-22
1.78966e-24
8.87493e-23
7.71497e-26
1.16196e-23
-1.32878e-23
1.10731e-23
-7.53246e-24
8.83319e-23
-7.04063e-24
9.634e-23
-2.21888e-23
4.01743e-23
-2.40705e-23
2.43974e-22
-1.22399e-23
2.17578e-22
-1.14449e-23
1.89303e-22
-1.68197e-23
1.42779e-22
-1.84355e-23
4.02054e-23
-9.98857e-24
1.62197e-22
-9.32142e-24
1.7239e-22
-1.056e-23
1.21742e-23
-1.18911e-23
5.88683e-23
-1.0295e-23
9.37827e-23
-2.40403e-23
1.11377e-22
-2.40572e-23
1.37023e-22
-2.10704e-23
4.26987e-23
-2.85616e-23
2.87246e-23
-2.8255e-23
1.29407e-22
-1.53713e-23
2.01531e-22
-1.53843e-23
1.82864e-22
-2.41993e-23
1.10526e-22
-1.92061e-23
2.34305e-22
-1.2436e-23
2.90493e-23
-1.09433e-23
1.7623e-22
-1.74698e-24
7.21977e-23
-2.86051e-24
1.03125e-22
2.08829e-24
6.63345e-23
-3.7607e-24
2.27987e-23
4.91914e-25
8.33021e-24
1.16893e-23
5.69287e-23
2.84372e-24
6.92743e-23
-3.83255e-25
-2.17319e-23
1.95726e-24
8.83139e-23
-1.79254e-24
-1.13768e-23
-7.12193e-24
2.81364e-23
-1.31943e-23
1.93809e-23
-4.83041e-24
1.39316e-22
-5.80061e-24
6.04381e-23
-4.62351e-24
5.09177e-23
-1.33753e-23
-8.75318e-23
-9.00533e-23
-3.51759e-24
1.6516e-22
1.648e-24
7.72556e-23
2.00293e-25
4.53894e-23
-1.30787e-23
5.55871e-24
-7.66463e-24
7.90241e-23
-5.90593e-24
1.23002e-22
-2.09655e-23
-1.09583e-23
-2.32411e-23
1.80458e-22
-1.29567e-23
1.76643e-22
-1.20993e-23
1.87224e-22
-1.73368e-23
1.48813e-22
-1.72243e-23
-2.50273e-24
-9.27485e-24
1.91857e-22
-1.05469e-23
1.39982e-22
-1.10052e-23
8.77902e-23
-1.0442e-23
4.66514e-23
-1.00418e-23
7.1189e-23
-2.37693e-23
1.08889e-22
-2.42615e-23
1.20216e-22
-2.14436e-23
5.1115e-23
-2.70012e-23
4.55686e-23
-2.77475e-23
1.21507e-22
-1.48977e-23
2.1901e-22
-1.60484e-23
1.05717e-22
-2.37053e-23
1.18406e-22
-2.00313e-23
2.284e-22
-1.15576e-23
4.1507e-23
-1.10033e-23
1.7563e-22
-9.28578e-25
1.00116e-22
-3.51507e-24
-1.64239e-23
1.83424e-24
6.10409e-23
-3.66745e-24
-1.31114e-23
6.84192e-25
3.08782e-23
1.30684e-23
5.52413e-23
2.17021e-24
-3.11973e-23
9.95906e-25
-1.27582e-23
1.29633e-24
1.05544e-22
-1.21661e-24
-3.73574e-23
-6.58027e-24
-4.10005e-23
-1.21746e-23
7.91013e-24
-3.78417e-24
1.68093e-22
-6.73248e-24
2.47466e-23
-6.11369e-24
4.81836e-23
-1.3093e-23
-4.07675e-23
-7.35361e-23
-3.48497e-24
1.98105e-22
1.01306e-24
8.33157e-23
7.03391e-25
8.21859e-23
-1.21409e-23
2.26549e-23
-6.69614e-24
6.9947e-23
-5.9766e-24
1.09166e-22
-1.95774e-23
1.59201e-23
-2.22559e-23
1.61557e-22
-1.34043e-23
9.02175e-23
-1.27722e-23
1.82404e-22
-1.789e-23
1.49184e-22
-1.50334e-23
6.85088e-23
-9.02885e-24
1.87388e-22
-1.04091e-23
1.52684e-22
-1.25048e-23
5.55896e-23
-8.9972e-24
3.18441e-23
-9.31887e-24
6.93251e-23
-2.39532e-23
6.55678e-23
-2.39329e-23
9.67792e-23
-2.16276e-23
9.69838e-23
-2.57493e-23
3.98355e-23
-2.66825e-23
1.28015e-22
-1.62718e-23
2.00067e-22
-1.52649e-23
1.00433e-22
-2.34807e-23
4.81459e-23
-2.05915e-23
2.21676e-22
-1.16097e-23
8.86825e-23
-1.07269e-23
2.10995e-22
-2.78138e-24
1.03559e-22
-2.16532e-24
2.42498e-23
1.1266e-24
6.04055e-23
-2.72289e-24
6.39116e-23
3.68053e-25
5.93321e-23
1.2629e-23
7.70834e-23
3.13814e-24
-7.2076e-23
1.9396e-24
-2.075e-24
2.5778e-25
3.71061e-23
-4.62389e-25
-3.18429e-23
-7.10122e-24
-1.87098e-23
-1.06476e-23
-4.84316e-23
-4.37375e-24
1.57444e-22
-7.04679e-24
2.97583e-23
-6.48758e-24
4.16222e-23
-1.26736e-23
-3.59184e-23
-7.32039e-23
-4.20047e-24
1.75967e-22
1.4163e-24
1.5612e-22
8.49588e-25
8.88388e-23
-1.10795e-23
2.91103e-23
-6.59221e-24
6.09979e-23
-4.85532e-24
9.50939e-23
-1.87939e-23
5.70496e-25
-2.23253e-23
2.08042e-22
-1.20834e-23
8.46835e-23
-1.36997e-23
1.81345e-22
-1.758e-23
1.46235e-22
-1.43473e-23
1.36086e-22
-8.91981e-24
1.33888e-22
-1.09917e-23
1.61114e-22
-1.36977e-23
2.05265e-23
-7.62048e-24
9.41395e-23
-9.14245e-24
4.72007e-23
-2.39957e-23
7.1985e-23
-2.28692e-23
1.0964e-22
-2.2664e-23
1.0876e-22
-2.40222e-23
8.06015e-23
-2.61401e-23
1.35349e-22
-1.74193e-23
1.439e-22
-1.51888e-23
9.02502e-23
-2.18239e-23
9.44998e-23
-2.07408e-23
1.97274e-22
-1.08515e-23
1.36545e-22
-1.16934e-23
2.47904e-22
-3.19906e-24
1.03121e-22
-1.95295e-24
2.55933e-23
1.74258e-24
6.05091e-23
-2.61813e-24
9.04114e-23
-5.3524e-25
2.58757e-23
1.18791e-23
1.45557e-22
4.42832e-24
-5.491e-23
1.76882e-24
6.75854e-24
1.58359e-24
4.37188e-23
-1.65517e-24
-2.1908e-23
-6.02945e-24
-1.22031e-22
-9.61495e-24
-8.41941e-24
-4.61436e-24
1.88459e-22
-7.96548e-24
3.731e-23
-6.85264e-24
1.05822e-22
-1.35873e-23
-3.01103e-23
5.29204e-24
-6.66348e-24
-2.61943e-23
-3.4511e-24
2.55482e-22
8.30555e-25
6.27139e-23
1.74688e-24
8.99891e-23
-1.05595e-23
4.70491e-23
-6.5833e-24
1.18564e-22
-4.33073e-24
1.6044e-22
-1.72659e-23
-2.71767e-23
-2.26544e-23
1.85115e-22
-1.10497e-23
9.72691e-23
-1.36515e-23
1.4739e-22
-1.69176e-23
1.4401e-22
-1.47364e-23
1.50198e-22
-7.74823e-24
1.98775e-22
-1.18184e-23
1.91183e-22
-1.35592e-23
5.37468e-23
-7.46328e-24
1.45917e-22
-8.30619e-24
3.01313e-23
-2.38513e-23
6.94679e-23
-2.202e-23
1.09013e-22
-2.32892e-23
1.27882e-22
-2.28147e-23
4.28574e-23
-2.65463e-23
9.23657e-24
-1.80163e-23
9.22074e-23
-1.47168e-23
8.17122e-23
-2.12396e-23
6.52037e-23
-2.01963e-23
1.60163e-22
-1.02344e-23
1.47475e-22
-1.28644e-23
1.28066e-22
-3.8526e-24
1.51043e-22
-1.66134e-24
2.69105e-23
2.44269e-24
6.17471e-23
-3.61992e-24
7.53198e-23
1.5701e-25
2.81836e-23
9.86156e-24
1.36094e-22
5.93607e-24
-6.84575e-23
2.57502e-24
-5.59149e-23
1.79051e-24
6.46305e-23
-2.73054e-24
-8.33778e-24
-4.73808e-24
-3.62399e-23
-9.05993e-24
-8.33379e-23
-5.035e-24
1.79271e-22
-9.02416e-24
4.62408e-23
-7.40824e-24
1.83693e-22
-1.49472e-23
-2.15532e-23
-1.41874e-24
-4.8298e-24
2.52055e-23
-4.38746e-24
2.02668e-22
1.65341e-24
1.41331e-22
2.2932e-24
9.41474e-23
-1.00616e-23
5.96926e-23
-5.67666e-24
1.05331e-22
-5.82743e-24
1.72999e-22
-1.56057e-23
-2.05731e-23
-2.20395e-23
1.94896e-22
-1.12897e-23
8.94725e-23
-1.3621e-23
1.4633e-22
-1.62858e-23
1.4618e-22
-1.45111e-23
1.33057e-22
-7.34907e-24
1.89952e-22
-1.25567e-23
1.99341e-22
-1.31603e-23
5.51155e-23
-8.17871e-24
1.04319e-22
-7.24907e-24
1.06875e-22
-2.38409e-23
-4.12361e-23
-2.07058e-23
8.69342e-23
-2.43193e-23
1.29906e-22
-2.27296e-23
9.23852e-23
-2.59708e-23
5.76722e-23
-1.80009e-23
1.28168e-22
-1.45818e-23
7.86038e-23
-2.08442e-23
7.5584e-23
-1.90801e-23
1.34271e-22
-1.1308e-23
6.64783e-23
-1.17179e-23
1.36354e-22
-5.09928e-24
1.59871e-22
-2.96946e-25
9.73557e-23
1.42695e-24
6.15078e-23
-2.51381e-24
8.42207e-23
4.4458e-25
2.09415e-23
8.51739e-24
1.27453e-22
6.10325e-24
-6.42229e-23
3.46949e-24
-1.02601e-23
1.87331e-24
3.04008e-23
-2.65498e-24
-7.85797e-23
-4.93172e-24
-6.64105e-23
-7.11352e-24
-6.78317e-23
-4.93173e-24
1.75532e-22
-7.69665e-24
1.33544e-23
-8.61439e-24
1.32395e-22
-1.50304e-23
-1.71391e-23
-9.78945e-24
-4.49824e-24
9.15247e-23
-3.96514e-24
1.98833e-22
1.08772e-24
1.38814e-22
3.03206e-24
9.53494e-23
-9.47704e-24
7.74089e-24
-5.77684e-24
9.41e-23
-5.78481e-24
1.64114e-22
-1.47637e-23
-1.3184e-23
-2.20869e-23
1.19376e-22
-1.09937e-23
1.23274e-22
-1.38752e-23
1.66971e-22
-1.60173e-23
1.32088e-22
-1.37294e-23
1.29943e-22
-6.69751e-24
1.87661e-22
-1.32003e-23
1.29928e-22
-1.32448e-23
6.30891e-23
-7.67969e-24
1.13445e-22
-8.43756e-24
1.03386e-22
-2.28256e-23
-2.40029e-23
-1.95898e-23
7.52448e-23
-2.4771e-23
6.5026e-23
-2.25125e-23
6.47097e-23
-2.55127e-23
2.96006e-23
-1.81269e-23
1.16052e-22
-1.40193e-23
7.21727e-23
-2.10806e-23
1.17999e-22
-1.86931e-23
1.28151e-22
-1.08855e-23
6.71805e-23
-1.16609e-23
1.5252e-22
-5.07288e-24
1.50544e-22
-4.76625e-25
1.59011e-22
1.96978e-24
5.93882e-23
-2.474e-24
1.14746e-22
9.20189e-25
3.1634e-23
7.40186e-24
1.23857e-22
6.47536e-24
-6.39178e-23
4.67256e-24
2.78164e-23
1.63634e-24
2.93966e-23
-2.88294e-24
-6.80546e-23
-4.70662e-24
-6.00986e-23
-5.0752e-24
-6.47677e-23
-5.4184e-24
9.64291e-23
-8.0365e-24
-6.17382e-23
-8.4032e-24
1.27711e-22
-1.68891e-23
-5.20364e-23
4.73419e-23
-1.54901e-23
1.76207e-22
-3.68747e-24
7.49088e-23
-3.59298e-24
1.96113e-22
7.07886e-25
1.36214e-22
3.27663e-24
9.68145e-23
-8.83512e-24
2.07088e-23
-3.8815e-24
8.49487e-23
-6.09924e-24
1.1894e-22
-1.43455e-23
-8.68987e-24
-2.10743e-23
1.23896e-22
-1.095e-23
1.15904e-22
-1.33116e-23
2.06893e-22
-1.52921e-23
1.94581e-22
-1.26263e-23
1.29529e-22
-6.63055e-24
1.84073e-22
-1.35876e-23
1.07653e-22
-1.30139e-23
6.56369e-23
-7.35834e-24
1.03477e-22
-9.45515e-24
1.08166e-22
-2.20704e-23
-3.02136e-23
-1.9082e-23
8.99722e-23
-2.46078e-23
7.72941e-23
-2.2234e-23
3.01088e-23
-2.51682e-23
4.62341e-23
-1.83697e-23
1.16029e-22
-1.32068e-23
6.01365e-23
-2.10937e-23
4.21788e-23
-1.87779e-23
1.36943e-22
-1.02894e-23
1.07681e-22
-1.16949e-23
1.60146e-22
-5.55239e-24
2.012e-22
-1.01222e-24
1.56969e-22
1.8078e-24
1.36827e-23
-2.28792e-24
1.65585e-22
8.8005e-25
2.95472e-23
6.50383e-24
1.34428e-22
7.122e-24
-6.45118e-23
3.98314e-24
2.47136e-23
1.51518e-24
2.90535e-23
-2.92785e-24
-5.89631e-23
-4.43068e-24
-5.49152e-23
-4.78732e-24
-5.95533e-23
-4.89701e-24
3.38564e-23
-7.25015e-24
-6.34039e-23
-9.00462e-24
1.85675e-22
-1.6831e-23
-4.69692e-23
7.36431e-23
-1.49306e-23
1.71912e-22
-3.84006e-24
1.37946e-22
-3.4823e-24
1.89653e-22
1.4242e-25
1.31173e-22
3.50005e-24
1.09639e-22
-8.38833e-24
-3.23103e-23
-3.79269e-24
1.55635e-22
-5.1913e-24
1.16014e-22
-1.43842e-23
-1.99606e-24
-1.93194e-23
1.2654e-22
-1.09577e-23
1.08588e-22
-1.26856e-23
2.51584e-22
-1.61923e-23
1.49434e-22
-1.19173e-23
1.23902e-22
-7.09952e-24
1.81299e-22
-1.38293e-23
5.70604e-23
-1.27967e-23
1.07523e-22
-7.04174e-24
9.21952e-23
-1.01986e-23
1.14082e-22
-2.12936e-23
-3.683e-23
-1.84896e-23
9.70389e-23
-2.50674e-23
2.03502e-23
-2.13504e-23
3.35475e-23
-2.50224e-23
-1.25284e-23
-1.84631e-23
1.53937e-22
-1.34351e-23
5.43825e-23
-2.011e-23
4.92911e-23
-1.87008e-23
6.14534e-23
-9.7684e-24
1.40211e-22
-1.04915e-23
1.64286e-22
-5.87131e-24
1.86349e-22
-1.0783e-24
1.53163e-22
1.95521e-24
-2.61829e-23
-2.25551e-24
1.72886e-22
3.12794e-25
2.55977e-23
5.83599e-24
1.30052e-22
7.42241e-24
-1.04926e-22
4.13332e-24
-1.47792e-23
1.76127e-24
2.64478e-23
-3.26224e-24
-5.33805e-23
-3.56117e-24
-5.02956e-23
-4.53625e-24
-5.40522e-23
-4.88029e-24
7.18451e-23
-5.83705e-24
-6.49379e-23
-9.29121e-24
1.2396e-22
-1.79873e-23
-1.03556e-22
7.7266e-23
-2.24829e-23
-7.87992e-23
-1.45839e-23
9.64897e-23
-3.54143e-24
1.21707e-22
-3.05407e-24
1.8562e-22
-2.93413e-25
1.75967e-22
3.98659e-24
1.71508e-22
-7.18353e-24
-2.11056e-23
-3.84782e-24
1.46562e-22
-6.03817e-24
5.38137e-23
-1.38527e-23
3.64442e-24
-1.86941e-23
1.27359e-22
-1.04857e-23
1.38428e-22
-1.28332e-23
2.86464e-22
-1.65574e-23
1.08807e-22
-1.0641e-23
1.56597e-22
-8.09773e-24
1.12855e-22
-1.32681e-23
6.57208e-23
-1.2779e-23
1.05906e-22
-6.66589e-24
1.46526e-22
-1.1051e-23
4.28516e-23
-2.03742e-23
-5.68038e-23
-1.85742e-23
9.51763e-23
-2.48718e-23
3.08584e-23
-2.11849e-23
5.84868e-23
-2.40042e-23
-5.89618e-24
-1.90741e-23
1.54467e-22
-1.30175e-23
1.13507e-22
-2.02084e-23
6.10218e-23
-1.77995e-23
6.31969e-23
-9.42607e-24
1.39612e-22
-9.50332e-24
1.68333e-22
-7.17028e-24
1.74407e-22
-8.39397e-25
2.08793e-22
2.3903e-24
-6.2421e-24
-1.80097e-24
1.18414e-22
7.80158e-25
2.02022e-23
4.84606e-24
1.27017e-22
8.18569e-24
-3.36601e-23
4.42415e-24
-3.40883e-23
1.72897e-24
5.84534e-23
-3.66555e-24
-4.86437e-23
-3.80891e-24
-4.4626e-23
-3.62053e-24
-5.22719e-23
-4.86047e-24
7.41565e-23
-5.20703e-24
5.33053e-23
-1.02539e-23
1.31141e-22
-1.72526e-23
-9.24206e-23
7.98328e-23
-2.24903e-23
-6.32884e-23
-1.27163e-23
8.4218e-23
-3.35534e-24
1.20696e-22
-2.37304e-24
1.69751e-22
-3.73379e-25
9.45036e-23
4.10718e-24
1.37865e-22
-6.11621e-24
-1.20388e-23
-4.40403e-24
1.40553e-22
-5.39734e-24
3.64353e-23
-1.30565e-23
8.81982e-24
-1.77862e-23
4.81949e-23
-9.20318e-24
1.21591e-22
-1.36096e-23
2.84858e-22
-1.7171e-23
9.73703e-23
-1.03416e-23
1.44456e-22
-8.07812e-24
1.1118e-22
-1.2811e-23
6.623e-23
-1.22288e-23
1.07449e-22
-7.37077e-24
1.765e-22
-1.14918e-23
5.21163e-23
-1.94002e-23
-4.27327e-23
-1.85659e-23
5.47331e-23
-2.45224e-23
4.40808e-23
-2.12736e-23
6.32143e-23
-2.29425e-23
-1.39842e-24
-1.91954e-23
1.15215e-22
-1.32041e-23
1.14645e-22
-2.02508e-23
2.62815e-24
-1.68801e-23
6.67188e-23
-9.106e-24
1.38505e-22
-8.78764e-24
1.69552e-22
-6.89627e-24
1.59859e-22
-1.41632e-24
2.36239e-22
2.20653e-24
7.5458e-25
-1.87333e-24
1.31147e-22
8.16762e-25
8.00742e-23
3.80036e-24
1.60565e-22
8.5447e-24
2.17276e-23
5.33923e-24
2.57526e-24
1.30218e-24
5.77147e-23
-3.7823e-24
1.46601e-23
-4.14973e-24
3.49872e-23
-2.80177e-24
1.17664e-23
-4.64375e-24
7.74597e-23
-5.71461e-24
5.28484e-23
-1.10541e-23
1.39959e-22
-1.73089e-23
-4.20863e-23
2.57417e-23
-2.23833e-23
-5.13297e-23
-1.18058e-23
6.57912e-23
-3.30685e-24
1.07711e-22
-2.2794e-24
1.68985e-22
-5.74643e-25
1.06367e-22
4.33405e-24
1.27723e-22
-5.38671e-24
-7.94807e-23
-4.83201e-24
1.34739e-22
-4.71528e-24
3.22569e-23
-1.28669e-23
-6.21645e-23
-1.64174e-23
4.07601e-23
-8.28577e-24
1.04015e-22
-1.41502e-23
2.443e-22
-1.68035e-23
9.29622e-23
-1.01225e-23
2.02446e-22
-7.72368e-24
9.85146e-23
-1.26106e-23
8.35702e-23
-1.13392e-23
1.48684e-22
-8.32644e-24
1.67299e-22
-1.18294e-23
6.04026e-23
-1.88546e-23
-2.62604e-23
-1.79517e-23
5.47905e-23
-2.43274e-23
1.92903e-23
-2.12218e-23
6.88069e-23
-2.23036e-23
1.9095e-23
-1.89876e-23
1.17423e-22
-1.39284e-23
1.1164e-22
-1.95976e-23
6.1109e-24
-1.6425e-23
8.46883e-23
-8.663e-24
1.35199e-22
-8.41002e-24
1.69254e-22
-7.69552e-24
1.1279e-22
-1.99582e-24
2.32021e-22
2.19301e-24
1.29323e-24
-9.34285e-25
1.4511e-22
7.70097e-26
4.03531e-23
3.4954e-24
1.93489e-22
8.30575e-24
1.46665e-23
5.86195e-24
1.37488e-24
2.39628e-24
5.93925e-23
-4.55343e-24
-1.97811e-23
-3.70924e-24
3.86926e-23
-1.9608e-24
4.71552e-23
-4.07574e-24
8.14856e-23
-6.0298e-24
5.27839e-23
-1.19107e-23
7.77603e-23
-1.88008e-23
-1.56128e-23
7.46679e-23
-2.24916e-23
-1.11061e-22
-1.0589e-23
1.21121e-22
-2.85869e-24
9.1463e-23
-2.58005e-24
1.29144e-22
-2.61934e-25
1.42523e-22
4.51679e-24
1.57971e-22
-4.92196e-24
-7.06209e-23
-4.84656e-24
1.67636e-22
-4.91937e-24
-9.98399e-24
-1.28066e-23
-6.79262e-23
-1.50078e-23
3.2221e-23
-7.85087e-24
1.33102e-22
-1.40736e-23
2.43585e-22
-1.71886e-23
8.37514e-23
-1.00224e-23
1.80016e-22
-7.62763e-24
9.9159e-23
-1.197e-23
8.69464e-23
-1.10828e-23
1.86596e-22
-8.68199e-24
1.60165e-22
-1.23055e-23
6.69744e-23
-1.85488e-23
-1.44861e-23
-1.74784e-23
5.38098e-23
-2.39541e-23
2.68785e-23
-2.10863e-23
7.10214e-23
-2.18412e-23
2.11621e-23
-1.90603e-23
1.23231e-22
-1.44109e-23
1.18296e-22
-1.88828e-23
7.05345e-24
-1.59081e-23
4.89862e-23
-7.8549e-24
1.73996e-22
-8.47158e-24
1.67753e-22
-7.5528e-24
1.28321e-22
-2.75619e-24
2.26089e-22
2.53825e-24
7.55653e-26
5.4543e-25
1.52635e-22
-2.40608e-25
4.45108e-23
2.51455e-24
2.23123e-22
9.47691e-24
9.9763e-23
5.52246e-24
-5.78685e-23
2.3356e-24
1.7196e-23
-3.6794e-24
-7.74428e-23
-3.75994e-24
4.41264e-23
-1.7981e-24
1.07598e-22
-3.64009e-24
8.63675e-23
-6.90531e-24
-1.30952e-23
-1.17476e-23
9.52596e-23
-1.88684e-23
2.92336e-23
6.63625e-23
-2.22094e-23
-8.95752e-23
-9.71336e-24
2.41626e-22
-2.41186e-24
7.55788e-23
-2.00107e-24
1.29482e-22
-2.82023e-26
6.48964e-23
3.73907e-24
8.34136e-23
-4.49137e-24
-7.6277e-23
-4.66744e-24
1.64249e-22
-4.95656e-24
-9.08046e-23
-1.19748e-23
-1.01517e-22
-1.36452e-23
9.21506e-23
-6.92753e-24
1.2204e-22
-1.4775e-23
1.66786e-22
-1.69561e-23
5.63839e-23
-1.02905e-23
1.2832e-22
-7.29873e-24
1.02897e-22
-1.11285e-23
9.30062e-23
-1.10096e-23
1.36977e-22
-9.09385e-24
1.51734e-22
-1.27133e-23
7.28099e-23
-1.83079e-23
-3.46526e-24
-1.70549e-23
5.22811e-23
-2.35814e-23
-7.06167e-24
-2.08654e-23
7.23973e-23
-2.12565e-23
2.20571e-23
-1.92862e-23
8.84477e-23
-1.44921e-23
1.26672e-22
-1.8984e-23
7.98125e-24
-1.44129e-23
9.45691e-23
-8.03989e-24
1.72835e-22
-7.79952e-24
1.65255e-22
-7.64549e-24
1.18428e-22
-2.86816e-24
2.80285e-22
2.2447e-24
7.20915e-23
1.28702e-24
2.18779e-22
-3.85991e-25
-2.81104e-23
1.56153e-24
2.62782e-22
9.23353e-24
1.50507e-22
5.94285e-24
-5.92435e-23
3.13417e-24
6.33632e-23
-3.62372e-24
-1.21858e-22
-3.45093e-24
1.23627e-22
-1.70982e-24
1.01244e-22
-4.18289e-24
9.4579e-23
-6.48609e-24
-7.76177e-23
-1.18595e-23
1.11211e-22
-1.91547e-23
-3.64924e-25
4.22726e-23
-2.07549e-23
4.91621e-23
-2.02035e-23
3.11173e-23
-1.05543e-23
2.21114e-22
-1.83033e-24
1.34111e-22
-2.0484e-24
9.16831e-23
-5.84036e-25
6.4317e-23
4.50233e-24
1.38931e-22
-3.20154e-24
-7.53071e-23
-5.46378e-24
2.29976e-22
-4.7853e-24
-9.55011e-23
-1.06607e-23
-7.84462e-23
-1.36382e-23
8.87247e-23
-6.54898e-24
1.87248e-22
-1.47632e-23
1.73246e-22
-1.72158e-23
8.00343e-24
-9.76178e-24
1.15286e-22
-6.94575e-24
7.22404e-23
-1.0671e-23
1.0007e-22
-1.09096e-23
1.36306e-22
-9.31593e-24
1.44752e-22
-1.315e-23
4.1129e-23
-1.80245e-23
5.07127e-24
-1.68807e-23
9.10909e-23
-2.30175e-23
-3.09318e-24
-2.08555e-23
7.08128e-23
-2.06477e-23
2.25456e-23
-1.94439e-23
9.08375e-23
-1.46542e-23
1.73261e-22
-1.83536e-23
-3.28302e-23
-1.37715e-23
9.65397e-23
-7.62332e-24
1.69232e-22
-7.83206e-24
1.66728e-22
-7.14154e-24
1.29853e-22
-3.16295e-24
2.6795e-22
2.58126e-24
3.03865e-23
3.08868e-25
1.57651e-22
1.26936e-24
-2.30368e-23
1.76948e-24
2.6461e-22
7.39249e-24
1.56993e-22
6.28082e-24
-7.30341e-23
2.79913e-24
7.05834e-23
-2.31336e-24
-1.1644e-22
-2.78224e-24
1.26285e-22
-2.07009e-24
1.41871e-22
-4.85071e-24
3.33615e-23
-5.71599e-24
-7.13132e-23
-1.22117e-23
-1.86087e-23
-1.92391e-23
1.4462e-23
2.9162e-23
-1.63041e-23
6.68778e-23
-2.01758e-23
8.83166e-23
-2.00259e-23
2.98026e-23
-1.05835e-23
1.96955e-22
-2.03911e-24
1.58095e-22
-2.05143e-24
7.82577e-23
1.22464e-25
6.42364e-23
4.80471e-24
1.28058e-22
-2.46136e-24
-7.52387e-23
-6.09877e-24
2.31301e-22
-4.51961e-24
-1.14959e-22
-9.73021e-24
-5.30417e-23
-1.27111e-23
4.199e-23
-6.99107e-24
1.44733e-22
-1.47849e-23
1.95129e-22
-1.71396e-23
-1.33437e-24
-9.02705e-24
1.00895e-22
-6.21756e-24
7.8145e-23
-1.05378e-23
1.08131e-22
-1.03138e-23
1.38418e-22
-9.90462e-24
1.42194e-22
-1.3116e-23
6.17417e-23
-1.75932e-23
2.70015e-23
-1.69922e-23
9.07924e-23
-2.25427e-23
1.54608e-26
-2.07905e-23
6.76642e-23
-2.02135e-23
2.13302e-23
-1.90528e-23
4.74236e-23
-1.55582e-23
1.28327e-22
-1.77276e-23
-3.53865e-23
-1.29908e-23
6.17896e-23
-7.81746e-24
1.66122e-22
-7.20868e-24
1.659e-22
-7.26496e-24
1.20498e-22
-3.68052e-24
2.38522e-22
2.45558e-24
2.59381e-23
6.30058e-25
1.65795e-22
2.09448e-24
5.80203e-23
1.27393e-24
2.22565e-22
6.82712e-24
1.64303e-22
6.27121e-24
-8.60229e-23
2.95256e-24
7.96415e-23
-1.47798e-24
-1.12912e-22
-2.35099e-24
9.04252e-23
-2.73679e-24
1.42545e-22
-5.21004e-24
-1.05335e-23
-6.08508e-24
-2.61955e-23
-1.14131e-23
-4.80299e-23
-1.9587e-23
-4.22634e-23
1.16057e-24
-1.61756e-23
-9.96452e-24
-2.01169e-23
1.76639e-23
-2.02526e-23
3.26722e-23
-9.92885e-24
1.75416e-22
-2.5301e-24
1.49362e-22
-1.73323e-24
8.02204e-23
2.4467e-25
1.31443e-22
5.17136e-24
1.9361e-22
-2.31279e-24
-7.74171e-23
-6.99671e-24
2.29707e-22
-3.86797e-24
-1.20192e-22
-9.14049e-24
-4.44413e-23
-1.14813e-23
4.03221e-23
-7.31046e-24
7.86902e-23
-1.54276e-23
1.40225e-22
-1.71807e-23
-1.15024e-23
-8.44608e-24
1.64749e-22
-5.74518e-24
1.24495e-23
-1.02275e-23
1.17448e-22
-1.00103e-23
1.38223e-22
-1.04335e-23
1.28501e-22
-1.29842e-23
6.93681e-23
-1.74163e-23
-4.9292e-24
-1.68042e-23
8.77293e-23
-2.22538e-23
-3.97667e-23
-2.07022e-23
6.50348e-23
-1.99487e-23
2.02756e-23
-1.88182e-23
4.25224e-23
-1.59797e-23
8.53488e-23
-1.7285e-23
-3.64156e-23
-1.24018e-23
6.33143e-23
-7.28755e-24
1.48324e-22
-7.04483e-24
1.33368e-22
-6.85257e-24
7.14702e-23
-4.36807e-24
1.88736e-22
2.92756e-24
3.44901e-23
1.2931e-24
1.29099e-22
2.2613e-24
1.05367e-22
9.88059e-25
1.87542e-22
6.2702e-24
2.19769e-22
6.37079e-24
-8.72593e-23
3.75356e-24
8.93904e-23
-4.4797e-25
-6.57592e-23
-1.96272e-24
8.99887e-23
-4.02053e-24
6.7522e-23
-5.088e-24
4.68031e-23
-6.76387e-24
-6.13495e-23
-1.08207e-23
-4.66888e-23
-1.91117e-23
-6.72497e-23
6.74415e-23
-1.55921e-23
-1.82408e-23
1.84818e-23
-2.01699e-23
-5.44561e-23
-2.01352e-23
3.94039e-24
-9.39924e-24
2.48288e-22
-2.96783e-24
7.71764e-23
-1.56255e-24
7.84895e-23
1.79308e-25
1.13402e-22
5.61174e-24
2.0331e-22
-1.13794e-24
-9.34956e-23
-8.0346e-24
2.27115e-22
-3.64251e-24
-6.36356e-23
-8.20169e-24
-3.86446e-23
-1.0541e-23
4.0189e-23
-6.70882e-24
7.75617e-23
-1.59091e-23
1.52088e-22
-1.60571e-23
-2.24854e-23
-8.99911e-24
1.13057e-22
-4.63972e-24
8.52561e-23
-9.88431e-24
1.27582e-22
-9.62333e-24
1.35367e-22
-1.08611e-23
1.33737e-22
-1.30537e-23
7.30423e-23
-1.70642e-23
4.45216e-24
-1.69492e-23
7.47519e-23
-2.1753e-23
-3.6747e-23
-2.06712e-23
6.46833e-23
-1.96708e-23
1.54455e-23
-1.89628e-23
3.59292e-23
-1.60738e-23
7.74271e-23
-1.70666e-23
-3.25692e-23
-1.15226e-23
6.07185e-23
-6.97507e-24
1.38524e-22
-7.31636e-24
1.00358e-22
-6.56432e-24
1.41728e-22
-4.72482e-24
1.67444e-22
2.21712e-24
8.53106e-23
2.02043e-24
1.29031e-22
2.28634e-24
1.09552e-22
9.1021e-25
1.86989e-22
5.75015e-24
2.2208e-22
6.38959e-24
-8.73471e-23
3.7809e-24
1.34831e-22
-1.28835e-25
-7.84181e-23
-1.42644e-24
1.26431e-22
-3.81195e-24
8.12449e-23
-5.50063e-24
7.4909e-23
-6.97505e-24
-9.4165e-23
-1.08711e-23
-6.1011e-23
-1.89049e-23
9.55526e-24
1.33391e-22
-1.56182e-23
-4.02007e-23
1.90533e-23
-1.98955e-23
-4.67653e-23
-1.92034e-23
1.18839e-24
-1.03095e-23
2.27593e-22
-2.10459e-24
1.06613e-22
-1.02261e-24
4.22134e-23
3.51131e-25