/*--------------------------------*- C++ -*----------------------------------*\
  =========                 |
  \\      /  F ield         | OpenFOAM: The Open Source CFD Toolbox
   \\    /   O peration     | Website:  https://openfoam.org
    \\  /    A nd           | Version:  7
     \\/     M anipulation  |
\*---------------------------------------------------------------------------*/
FoamFile
{
    version     2.0;
    format      ascii;
    class       volVectorField;
    location    "252000";
    object      U;
}
// * * * * * * * * * * * * * * * * * * * * * * * * * * * * * * * * * * * * * //

dimensions      [0 1 -1 0 0 0 0];

internalField   nonuniform List<vector> 
4783
(
(1.40141e-18 -1.19772e-18 -0.0158262)
(1.27735e-18 -8.74227e-19 -0.0158324)
(1.36601e-18 -5.45292e-19 -0.0158382)
(1.55061e-18 -7.54138e-19 -0.0158434)
(1.32956e-18 -1.19124e-18 -0.0158482)
(1.00453e-18 -1.52484e-18 -0.0158524)
(8.84793e-19 -1.6756e-18 -0.0158562)
(7.96617e-19 -1.36751e-18 -0.0158595)
(8.38961e-19 -7.66899e-19 -0.0158624)
(1.26235e-18 -6.03989e-19 -0.0158649)
(1.71638e-18 -1.09124e-18 -0.015867)
(1.47477e-18 -1.5669e-18 -0.0158688)
(1.20811e-18 -1.78178e-18 -0.0158703)
(1.20824e-18 -1.72635e-18 -0.0158715)
(1.06834e-18 -1.4161e-18 -0.0158725)
(3.06842e-19 -1.13796e-18 -0.0158733)
(-2.36157e-19 -1.2446e-18 -0.0158739)
(-4.99718e-19 -1.38519e-18 -0.0158744)
(-8.03061e-19 -1.08439e-18 -0.0158747)
(-1.06194e-18 -8.34485e-19 -0.015875)
(-1.25947e-18 -9.09241e-19 -0.0158752)
(-1.41373e-18 -5.14846e-19 -0.0158754)
(1.62885e-18 -1.3956e-18 -0.0158154)
(1.6078e-18 -1.18106e-18 -0.0158218)
(1.74692e-18 -9.62656e-19 -0.0158278)
(1.91699e-18 -7.7165e-19 -0.0158336)
(1.83441e-18 -7.75157e-19 -0.0158388)
(1.71446e-18 -1.00706e-18 -0.0158437)
(1.41126e-18 -1.31154e-18 -0.015848)
(9.87822e-19 -1.33021e-18 -0.015852)
(8.29194e-19 -1.16495e-18 -0.0158555)
(1.1917e-18 -1.07634e-18 -0.0158585)
(1.45505e-18 -1.1579e-18 -0.0158613)
(1.2787e-18 -1.33146e-18 -0.0158636)
(9.36934e-19 -1.68151e-18 -0.0158656)
(6.60708e-19 -1.88531e-18 -0.0158673)
(4.15385e-19 -1.71797e-18 -0.0158688)
(3.23684e-19 -1.42281e-18 -0.0158699)
(4.77561e-19 -1.64933e-18 -0.0158709)
(3.55098e-19 -1.80875e-18 -0.0158717)
(-5.00484e-20 -1.13088e-18 -0.0158723)
(-3.52324e-19 -4.17901e-19 -0.0158728)
(-6.75323e-19 -2.51875e-19 -0.0158732)
(-1.15269e-18 -1.1173e-19 -0.0158735)
(1.50545e-18 -1.7163e-18 -0.0158026)
(1.39254e-18 -1.39955e-18 -0.0158096)
(1.3684e-18 -1.20625e-18 -0.0158162)
(1.55076e-18 -1.09102e-18 -0.0158224)
(1.60404e-18 -1.00288e-18 -0.0158282)
(1.85558e-18 -9.10777e-19 -0.0158336)
(1.72941e-18 -8.69496e-19 -0.0158385)
(1.55227e-18 -9.02708e-19 -0.015843)
(1.58607e-18 -1.11326e-18 -0.015847)
(1.73961e-18 -1.34762e-18 -0.0158507)
(1.59067e-18 -1.30407e-18 -0.0158539)
(1.21959e-18 -1.11768e-18 -0.0158568)
(1.02667e-18 -1.39942e-18 -0.0158594)
(7.12841e-19 -1.84697e-18 -0.0158616)
(3.57957e-19 -1.79395e-18 -0.0158635)
(1.76193e-19 -1.57676e-18 -0.0158651)
(1.3738e-19 -1.66087e-18 -0.0158665)
(-3.60822e-19 -1.66568e-18 -0.0158676)
(-8.59868e-19 -9.75832e-19 -0.0158686)
(-1.05008e-18 -2.466e-19 -0.0158693)
(-9.4566e-19 -5.7113e-20 -0.0158699)
(-9.18152e-19 1.66013e-21 -0.0158704)
(1.06172e-18 -1.51073e-18 -0.0157884)
(9.31396e-19 -1.52971e-18 -0.0157961)
(7.2627e-19 -1.43013e-18 -0.0158033)
(7.27663e-19 -1.25357e-18 -0.01581)
(9.26539e-19 -1.35938e-18 -0.0158163)
(1.32162e-18 -1.42013e-18 -0.0158222)
(1.51204e-18 -1.21813e-18 -0.0158276)
(1.81869e-18 -1.20073e-18 -0.0158327)
(2.05598e-18 -1.25082e-18 -0.0158372)
(1.87737e-18 -1.14872e-18 -0.0158414)
(1.3982e-18 -8.97453e-19 -0.0158452)
(1.25408e-18 -8.93346e-19 -0.0158486)
(1.43925e-18 -1.1635e-18 -0.0158516)
(1.23366e-18 -1.47644e-18 -0.0158543)
(6.25562e-19 -1.62432e-18 -0.0158566)
(1.15553e-19 -1.40505e-18 -0.0158587)
(-2.4347e-19 -1.34175e-18 -0.0158604)
(-6.88805e-19 -1.38891e-18 -0.0158619)
(-1.16375e-18 -7.33353e-19 -0.0158632)
(-1.17395e-18 -6.01636e-20 -0.0158642)
(-9.72524e-19 -8.78074e-20 -0.015865)
(-6.45736e-19 -4.36388e-20 -0.0158657)
(9.98067e-19 -1.31705e-18 -0.0157729)
(6.60348e-19 -1.22003e-18 -0.0157813)
(4.54108e-19 -1.2588e-18 -0.0157891)
(5.28862e-19 -1.37928e-18 -0.0157964)
(7.10295e-19 -1.5413e-18 -0.0158033)
(8.52548e-19 -1.74114e-18 -0.0158096)
(1.09491e-18 -1.6959e-18 -0.0158156)
(1.20577e-18 -1.65011e-18 -0.0158211)
(1.17218e-18 -1.46962e-18 -0.0158262)
(1.01587e-18 -1.13283e-18 -0.0158308)
(9.17559e-19 -1.00171e-18 -0.0158351)
(1.23794e-18 -1.2202e-18 -0.0158389)
(1.56173e-18 -1.39929e-18 -0.0158424)
(1.45958e-18 -1.10308e-18 -0.0158455)
(6.81308e-19 -8.07727e-19 -0.0158483)
(1.59241e-19 -7.77317e-19 -0.0158507)
(-4.75368e-20 -8.79008e-19 -0.0158528)
(-4.10632e-19 -9.24743e-19 -0.0158546)
(-8.21459e-19 -5.21962e-19 -0.0158562)
(-5.81024e-19 -9.50496e-21 -0.0158575)
(-2.45409e-19 -2.0794e-19 -0.0158585)
(6.89101e-20 -4.87841e-19 -0.0158594)
(8.65271e-19 -1.17662e-18 -0.0157563)
(6.34822e-19 -1.15171e-18 -0.0157653)
(7.08044e-19 -1.14332e-18 -0.0157737)
(8.01325e-19 -1.19001e-18 -0.0157816)
(8.66386e-19 -1.39338e-18 -0.015789)
(9.27396e-19 -1.77972e-18 -0.0157959)
(9.66055e-19 -1.7417e-18 -0.0158023)
(7.2692e-19 -1.62112e-18 -0.0158083)
(4.43711e-19 -1.63809e-18 -0.0158138)
(3.95615e-19 -1.36608e-18 -0.015819)
(4.16263e-19 -1.22087e-18 -0.0158236)
(7.27072e-19 -1.55676e-18 -0.0158279)
(9.5631e-19 -1.7216e-18 -0.0158318)
(6.34562e-19 -9.95467e-19 -0.0158353)
(1.42002e-19 -4.43156e-19 -0.0158385)
(8.40551e-20 -5.54602e-19 -0.0158413)
(2.80137e-19 -5.77836e-19 -0.0158437)
(2.29607e-19 -5.13876e-19 -0.0158458)
(1.5814e-19 -4.38892e-19 -0.0158477)
(3.77694e-19 -2.8622e-19 -0.0158492)
(6.4787e-19 -4.65215e-19 -0.0158505)
(6.64689e-19 -8.18342e-19 -0.0158514)
(5.36677e-19 -9.66786e-19 -0.0157387)
(4.01741e-19 -1.14851e-18 -0.0157482)
(6.05399e-19 -1.30255e-18 -0.0157572)
(7.33569e-19 -1.26844e-18 -0.0157656)
(8.82824e-19 -1.24233e-18 -0.0157735)
(9.94484e-19 -1.6599e-18 -0.0157809)
(8.20951e-19 -1.71015e-18 -0.0157878)
(6.65016e-19 -1.3323e-18 -0.0157943)
(5.84934e-19 -1.37272e-18 -0.0158003)
(4.22729e-19 -1.3325e-18 -0.0158058)
(1.88565e-19 -1.27601e-18 -0.015811)
(2.08282e-19 -1.7338e-18 -0.0158157)
(6.67506e-20 -1.8091e-18 -0.01582)
(-5.05392e-19 -8.74025e-19 -0.0158238)
(-6.42536e-19 -3.01201e-19 -0.0158273)
(-3.62473e-19 -7.46174e-19 -0.0158304)
(2.34908e-19 -9.11423e-19 -0.0158332)
(5.04827e-19 -6.81543e-19 -0.0158356)
(7.22614e-19 -4.71478e-19 -0.0158377)
(9.46398e-19 -1.92742e-19 -0.0158394)
(1.09192e-18 -2.9031e-19 -0.0158409)
(7.9191e-19 -6.71689e-19 -0.015842)
(9.49123e-20 -5.40196e-19 -0.01572)
(1.24068e-19 -1.06178e-18 -0.01573)
(4.65564e-19 -1.34251e-18 -0.0157395)
(5.68852e-19 -1.47367e-18 -0.0157484)
(7.54389e-19 -1.39524e-18 -0.0157568)
(6.07461e-19 -1.55128e-18 -0.0157648)
(3.65228e-19 -1.7734e-18 -0.0157722)
(3.82144e-19 -1.65338e-18 -0.0157791)
(5.34587e-19 -1.37561e-18 -0.0157855)
(4.18463e-19 -9.49105e-19 -0.0157915)
(2.79523e-19 -7.67582e-19 -0.0157971)
(7.09082e-20 -1.30609e-18 -0.0158022)
(-5.38734e-19 -1.54161e-18 -0.0158068)
(-9.33319e-19 -8.01633e-19 -0.0158111)
(-5.26391e-19 -3.58695e-19 -0.0158149)
(-1.82454e-19 -1.05675e-18 -0.0158183)
(2.27205e-20 -1.36869e-18 -0.0158214)
(1.4975e-19 -1.0109e-18 -0.0158241)
(3.65311e-19 -8.60411e-19 -0.0158264)
(6.18135e-19 -5.40245e-19 -0.0158283)
(8.91894e-19 -1.5564e-19 -0.0158299)
(6.98578e-19 -1.49559e-20 -0.0158312)
(8.90486e-20 -1.44278e-19 -0.0157003)
(4.60764e-19 -8.74317e-19 -0.0157108)
(9.89618e-19 -1.29338e-18 -0.0157208)
(8.91989e-19 -1.42475e-18 -0.0157302)
(6.70731e-19 -1.2555e-18 -0.0157391)
(5.64358e-19 -1.21645e-18 -0.0157475)
(7.39195e-19 -1.49428e-18 -0.0157554)
(4.78117e-19 -1.68427e-18 -0.0157628)
(4.29083e-19 -1.69676e-18 -0.0157697)
(5.1447e-19 -1.26527e-18 -0.0157761)
(6.61565e-19 -6.15894e-19 -0.015782)
(3.22256e-19 -5.67683e-19 -0.0157875)
(-3.27735e-19 -1.02226e-18 -0.0157925)
(-4.62515e-19 -1.0583e-18 -0.0157971)
(-7.67596e-20 -5.51845e-19 -0.0158012)
(-3.85268e-20 -7.47962e-19 -0.015805)
(-3.59322e-19 -1.19589e-18 -0.0158083)
(-2.76824e-19 -1.09903e-18 -0.0158112)
(-2.8034e-19 -9.76165e-19 -0.0158137)
(-3.94834e-19 -7.47123e-19 -0.0158159)
(-1.10993e-19 -3.49577e-19 -0.0158177)
(1.01267e-19 -6.81926e-20 -0.0158191)
(5.17276e-19 -2.40262e-19 -0.0156797)
(1.2173e-18 -7.28518e-19 -0.0156907)
(1.34956e-18 -1.1512e-18 -0.0157011)
(9.88019e-19 -1.19352e-18 -0.015711)
(7.76336e-19 -1.26062e-18 -0.0157204)
(1.19569e-18 -1.35922e-18 -0.0157292)
(1.39112e-18 -1.26927e-18 -0.0157376)
(9.53047e-19 -1.18103e-18 -0.0157454)
(7.2118e-19 -1.52811e-18 -0.0157527)
(4.71956e-19 -1.53264e-18 -0.0157595)
(2.52441e-19 -7.48765e-19 -0.0157658)
(-1.14025e-19 -1.50882e-19 -0.0157716)
(-2.37468e-19 -4.87279e-19 -0.015777)
(-2.76165e-19 -8.92002e-19 -0.0157819)
(-1.79361e-19 -5.15829e-19 -0.0157864)
(-3.10996e-19 -4.30285e-19 -0.0157904)
(-6.36102e-19 -1.02929e-18 -0.015794)
(-2.94148e-19 -1.0767e-18 -0.0157971)
(-3.35132e-19 -7.28905e-19 -0.0157999)
(-4.63852e-19 -6.80061e-19 -0.0158022)
(-3.5944e-19 -5.43639e-19 -0.0158041)
(-4.33814e-19 -4.35503e-19 -0.0158057)
(7.88871e-19 -5.62713e-19 -0.0156582)
(1.40295e-18 -6.93579e-19 -0.0156697)
(1.1447e-18 -8.97839e-19 -0.0156805)
(9.23645e-19 -1.00545e-18 -0.0156909)
(7.20828e-19 -1.34645e-18 -0.0157007)
(9.75837e-19 -1.62238e-18 -0.01571)
(7.31535e-19 -1.43092e-18 -0.0157187)
(7.74735e-19 -9.7779e-19 -0.0157269)
(5.751e-19 -1.105e-18 -0.0157346)
(-1.02539e-20 -1.2468e-18 -0.0157418)
(-5.85093e-19 -7.30347e-19 -0.0157485)
(-7.80838e-19 -1.90273e-19 -0.0157547)
(-5.33581e-19 -4.56216e-19 -0.0157604)
(-3.15704e-19 -8.97336e-19 -0.0157656)
(-1.89952e-19 -4.17343e-19 -0.0157704)
(-1.16946e-19 2.7456e-20 -0.0157747)
(-2.07364e-19 -9.22387e-19 -0.0157785)
(1.21175e-19 -1.30322e-18 -0.0157819)
(-3.58786e-20 -7.31469e-19 -0.0157848)
(-9.63384e-20 -5.4851e-19 -0.0157873)
(-2.26244e-19 -1.66009e-19 -0.0157894)
(-5.53525e-19 1.17863e-19 -0.0157911)
(8.56131e-19 -6.49197e-19 -0.0156358)
(1.10518e-18 -8.56237e-19 -0.0156477)
(8.73367e-19 -8.52859e-19 -0.015659)
(9.65572e-19 -6.98988e-19 -0.0156698)
(8.5002e-19 -9.82292e-19 -0.01568)
(9.75731e-19 -1.41628e-18 -0.0156897)
(7.09021e-19 -1.61373e-18 -0.0156989)
(8.81146e-19 -1.19645e-18 -0.0157075)
(5.14971e-19 -7.87416e-19 -0.0157156)
(1.93933e-20 -7.61721e-19 -0.0157231)
(-5.4584e-19 -4.83475e-19 -0.0157302)
(-6.78813e-19 -1.12082e-19 -0.0157367)
(-3.7314e-19 -4.30062e-19 -0.0157427)
(3.04878e-20 -9.79099e-19 -0.0157483)
(1.68276e-21 -6.96053e-19 -0.0157533)
(2.07078e-19 2.07315e-20 -0.0157578)
(4.42106e-19 -6.96474e-19 -0.0157619)
(2.48348e-19 -1.13908e-18 -0.0157655)
(-3.19461e-19 -5.32253e-19 -0.0157686)
(-3.71857e-19 -4.05951e-19 -0.0157713)
(-5.22383e-19 2.90644e-20 -0.0157735)
(-4.61971e-19 4.90395e-19 -0.0157753)
(8.69294e-19 -5.94819e-19 -0.0156126)
(7.56342e-19 -8.19479e-19 -0.015625)
(7.07892e-19 -1.06821e-18 -0.0156367)
(8.50329e-19 -9.66946e-19 -0.0156478)
(1.10466e-18 -9.09354e-19 -0.0156585)
(1.50388e-18 -1.13057e-18 -0.0156686)
(1.33009e-18 -1.36792e-18 -0.0156781)
(9.45524e-19 -1.13817e-18 -0.0156871)
(5.12864e-19 -5.7839e-19 -0.0156955)
(2.86282e-19 -3.77115e-19 -0.0157035)
(-3.14267e-21 -1.19818e-19 -0.0157108)
(4.92551e-20 5.74909e-20 -0.0157177)
(4.79798e-19 -3.79205e-19 -0.015724)
(6.66994e-19 -8.42675e-19 -0.0157298)
(2.25139e-19 -5.91372e-19 -0.0157352)
(3.05886e-20 -9.21875e-20 -0.01574)
(3.83918e-19 -5.21332e-19 -0.0157443)
(-6.66151e-20 -6.43868e-19 -0.0157481)
(-5.09753e-19 -2.31831e-19 -0.0157514)
(-5.41626e-19 -3.00513e-19 -0.0157542)
(-7.79252e-19 3.53104e-20 -0.0157566)
(-5.36734e-19 5.4654e-19 -0.0157584)
(7.13648e-19 -5.24911e-19 -0.0155887)
(7.11164e-19 -6.36104e-19 -0.0156014)
(7.17245e-19 -9.16877e-19 -0.0156135)
(6.641e-19 -1.16719e-18 -0.015625)
(1.20244e-18 -1.28207e-18 -0.0156361)
(1.46527e-18 -1.29127e-18 -0.0156465)
(1.27934e-18 -1.13702e-18 -0.0156564)
(4.56662e-19 -1.0429e-18 -0.0156658)
(7.10903e-20 -6.32342e-19 -0.0156746)
(4.52621e-20 -4.18736e-19 -0.0156828)
(1.94713e-19 -1.30476e-19 -0.0156905)
(6.01312e-19 5.15518e-20 -0.0156977)
(1.2355e-18 -1.95731e-19 -0.0157043)
(8.76063e-19 -4.79132e-19 -0.0157104)
(7.55448e-20 -2.2316e-19 -0.015716)
(-1.96415e-19 2.97337e-20 -0.015721)
(2.00133e-19 -3.96906e-19 -0.0157256)
(-1.04315e-19 -4.05948e-19 -0.0157296)
(-3.25425e-19 -4.41451e-20 -0.0157331)
(-3.89709e-19 -3.55304e-20 -0.015736)
(-6.75997e-19 1.64507e-19 -0.0157385)
(-4.61878e-19 4.0804e-19 -0.0157405)
(7.84651e-19 -5.55655e-19 -0.015564)
(8.36671e-19 -5.74215e-19 -0.015577)
(8.48559e-19 -7.33108e-19 -0.0155895)
(8.56856e-19 -1.13309e-18 -0.0156014)
(1.32828e-18 -1.36339e-18 -0.0156128)
(1.16076e-18 -1.41715e-18 -0.0156236)
(8.00116e-19 -9.76705e-19 -0.0156339)
(5.33615e-20 -7.11195e-19 -0.0156436)
(-1.62638e-19 -5.97322e-19 -0.0156527)
(-3.35346e-19 -6.55459e-19 -0.0156613)
(-1.57037e-19 -5.56861e-19 -0.0156693)
(5.2752e-19 -4.3288e-19 -0.0156768)
(1.07583e-18 -1.88217e-19 -0.0156837)
(3.55541e-19 1.09308e-19 -0.0156901)
(-4.37703e-19 1.66535e-19 -0.0156959)
(-4.06685e-19 -1.65807e-20 -0.0157012)
(-5.93383e-20 -4.16505e-19 -0.0157059)
(-2.89175e-19 -1.8988e-19 -0.0157101)
(-4.30321e-19 1.11384e-19 -0.0157137)
(-3.79594e-19 1.36911e-19 -0.0157169)
(9.19176e-19 -5.66975e-19 -0.0155385)
(9.11427e-19 -5.03806e-19 -0.0155519)
(9.73302e-19 -5.71147e-19 -0.0155648)
(9.80045e-19 -1.0998e-18 -0.0155771)
(1.13988e-18 -1.42907e-18 -0.0155888)
(6.58117e-19 -1.42031e-18 -0.0155999)
(1.14128e-19 -1.04143e-18 -0.0156105)
(8.57824e-20 -5.92267e-19 -0.0156206)
(-1.83741e-19 -3.47048e-19 -0.01563)
(-4.9793e-19 -4.40171e-19 -0.0156389)
(-3.61949e-19 -8.07387e-19 -0.0156472)
(1.29027e-19 -9.14896e-19 -0.015655)
(7.82153e-20 -3.11191e-19 -0.0156622)
(-5.17518e-19 4.56148e-19 -0.0156688)
(-8.12827e-19 4.27188e-19 -0.0156748)
(-3.56251e-19 4.1328e-20 -0.0156803)
(-1.90493e-19 -3.50397e-19 -0.0156853)
(-5.73004e-19 -1.1673e-19 -0.0156896)
(-6.87893e-19 1.10783e-19 -0.0156934)
(8.61332e-19 -6.27301e-19 -0.0155124)
(9.68337e-19 -5.45831e-19 -0.0155261)
(1.03313e-18 -4.22777e-19 -0.0155393)
(9.70997e-19 -8.34333e-19 -0.0155519)
(6.96864e-19 -1.29192e-18 -0.015564)
(1.25708e-19 -1.30388e-18 -0.0155755)
(-1.9984e-19 -1.22822e-18 -0.0155864)
(2.17399e-20 -7.21545e-19 -0.0155967)
(-4.16739e-19 -2.15549e-19 -0.0156065)
(-5.63908e-19 -3.0864e-19 -0.0156157)
(-5.01348e-19 -8.07946e-19 -0.0156243)
(-4.73962e-19 -1.00299e-18 -0.0156323)
(-7.65619e-19 -3.27806e-19 -0.0156398)
(-9.92991e-19 5.24472e-19 -0.0156466)
(-8.0439e-19 3.1256e-19 -0.0156529)
(-1.87207e-19 -8.32014e-20 -0.0156586)
(-9.52363e-20 -8.18427e-20 -0.0156637)
(8.20334e-19 -5.59747e-19 -0.0154856)
(9.53916e-19 -6.75602e-19 -0.0154996)
(8.98877e-19 -4.66516e-19 -0.0155131)
(9.10149e-19 -5.5547e-19 -0.0155261)
(5.69434e-19 -9.47679e-19 -0.0155385)
(1.97392e-19 -1.06382e-18 -0.0155503)
(9.23084e-20 -1.19053e-18 -0.0155615)
(-6.753e-20 -8.05849e-19 -0.0155721)
(-4.04334e-19 -5.04371e-20 -0.0155822)
(-7.15279e-19 -1.13104e-19 -0.0155917)
(-7.70493e-19 -6.53573e-19 -0.0156006)
(-9.05349e-19 -1.01345e-18 -0.0156088)
(-1.10856e-18 -4.41223e-19 -0.0156165)
(-1.08761e-18 4.49876e-19 -0.0156236)
(8.8622e-19 -5.43105e-19 -0.0154581)
(9.32788e-19 -6.47212e-19 -0.0154725)
(6.62159e-19 -6.02811e-19 -0.0154863)
(7.25358e-19 -5.31415e-19 -0.0154995)
(5.4982e-19 -7.24312e-19 -0.0155122)
(3.84201e-19 -8.37955e-19 -0.0155243)
(4.8261e-19 -9.35051e-19 -0.0155359)
(-2.89983e-20 -7.80859e-19 -0.0155468)
(-2.11499e-19 1.42628e-19 -0.0155571)
(-7.51145e-19 2.0939e-19 -0.0155669)
(-6.94153e-19 -3.64458e-19 -0.015576)
(-8.01395e-19 -8.2533e-19 -0.0155846)
(7.72923e-19 -6.64303e-19 -0.01543)
(8.26751e-19 -5.95967e-19 -0.0154447)
(4.56191e-19 -5.91678e-19 -0.0154588)
(4.99728e-19 -5.93457e-19 -0.0154723)
(3.75293e-19 -6.92095e-19 -0.0154853)
(2.0424e-19 -9.34708e-19 -0.0154977)
(3.44234e-19 -8.76201e-19 -0.0155095)
(-1.52575e-19 -7.39393e-19 -0.0155207)
(-4.21737e-19 1.86538e-19 -0.0155313)
(-6.99379e-19 4.9354e-19 -0.0155413)
(5.94173e-19 -6.89326e-19 -0.0154013)
(5.66854e-19 -6.93016e-19 -0.0154163)
(5.45144e-19 -4.7874e-19 -0.0154307)
(5.05801e-19 -5.1708e-19 -0.0154445)
(3.22095e-19 -4.95177e-19 -0.0154577)
(-3.69759e-20 -8.91545e-19 -0.0154704)
(-3.69271e-19 -1.07501e-18 -0.0154825)
(-7.42656e-19 -8.65453e-19 -0.015494)
(-1.10784e-18 -6.78228e-20 -0.0155048)
(5.15788e-19 -4.78929e-19 -0.015372)
(5.86697e-19 -7.83679e-19 -0.0153873)
(7.14554e-19 -5.18162e-19 -0.0154019)
(4.33238e-19 -4.79441e-19 -0.015416)
(3.80097e-19 -2.29109e-19 -0.0154296)
(-1.4231e-19 -4.58132e-19 -0.0154425)
(-8.70731e-19 -8.89786e-19 -0.0154548)
(-1.20182e-18 -9.29881e-19 -0.0154666)
(5.46949e-19 -3.62034e-19 -0.0153422)
(6.62721e-19 -7.46274e-19 -0.0153577)
(7.58376e-19 -4.36345e-19 -0.0153726)
(2.62542e-19 -5.47062e-19 -0.015387)
(1.00473e-19 -2.58498e-19 -0.0154007)
(-1.03441e-19 1.33103e-20 -0.0154139)
(-5.62585e-19 -3.58859e-19 -0.0154265)
(4.76729e-19 -2.55344e-19 -0.0153118)
(6.7257e-19 -8.29831e-19 -0.0153276)
(5.40821e-19 -4.88293e-19 -0.0153427)
(4.3849e-20 -3.78466e-19 -0.0153573)
(-1.92543e-19 -4.46181e-19 -0.0153714)
(5.55253e-20 5.2467e-20 -0.0153848)
(7.15533e-19 -4.02536e-20 -0.0152809)
(7.26044e-19 -6.64311e-19 -0.0152969)
(1.79913e-20 -6.6774e-19 -0.0153123)
(4.03223e-20 -2.93112e-19 -0.0153271)
(-1.36705e-19 -4.78843e-19 -0.0153414)
(-2.56836e-19 1.24233e-20 -0.0153551)
(9.28985e-19 -8.9024e-21 -0.0152495)
(5.15469e-19 -3.52154e-19 -0.0152657)
(-1.46928e-19 -6.41282e-19 -0.0152813)
(5.667e-20 -3.5801e-19 -0.0152964)
(-1.8517e-19 -3.7192e-19 -0.0153109)
(6.55654e-19 -1.64228e-19 -0.0152176)
(2.68212e-19 -1.67366e-19 -0.015234)
(5.40354e-20 -4.30342e-19 -0.0152499)
(-4.42371e-20 -3.98643e-19 -0.0152652)
(5.15183e-19 -1.42925e-19 -0.0151852)
(2.6166e-19 -8.48626e-20 -0.0152018)
(2.78044e-19 -1.87363e-19 -0.0152179)
(-1.75646e-19 -3.24355e-19 -0.0152334)
(4.91639e-19 8.1943e-21 -0.0151523)
(1.66237e-19 -5.39789e-20 -0.0151692)
(2.21394e-19 -4.60108e-20 -0.0151854)
(3.74751e-19 1.09821e-19 -0.015119)
(9.13097e-20 6.46037e-21 -0.0151361)
(9.85983e-20 3.71521e-20 -0.0151525)
(4.2865e-19 2.22624e-19 -0.0150853)
(4.00974e-20 6.50659e-20 -0.0151025)
(8.40634e-20 1.36986e-19 -0.0151192)
(2.96681e-19 2.09321e-19 -0.0150511)
(-3.42692e-20 1.52147e-19 -0.0150685)
(-9.16496e-20 1.14456e-19 -0.0150853)
(-7.00221e-20 1.59027e-19 -0.0150166)
(7.68945e-20 3.25686e-19 -0.0150341)
(-2.20684e-19 1.27121e-19 -0.0150511)
(-2.54924e-19 7.17841e-20 -0.0149816)
(2.23143e-19 4.33763e-19 -0.0149993)
(-2.15988e-19 3.55594e-19 -0.0150165)
(-3.77519e-19 8.65547e-20 -0.0149462)
(1.35171e-19 3.14345e-19 -0.0149641)
(-1.8632e-19 5.7536e-19 -0.0149814)
(-4.27213e-19 1.51864e-19 -0.0149104)
(4.08606e-20 1.54413e-19 -0.0149285)
(-1.44731e-19 6.99939e-19 -0.0149459)
(-4.57397e-19 2.45465e-19 -0.0148743)
(1.31199e-19 8.1221e-20 -0.0148925)
(-1.60764e-19 7.00223e-19 -0.0149101)
(-3.21997e-19 4.11787e-19 -0.0148378)
(1.21811e-19 -1.81724e-20 -0.0148561)
(-2.09807e-19 6.7054e-19 -0.0148739)
(-7.20626e-20 5.5741e-19 -0.0148009)
(2.82076e-20 -9.27623e-20 -0.0148194)
(-1.52155e-19 5.49954e-19 -0.0148373)
(-6.02667e-21 5.45919e-19 -0.0147637)
(3.93445e-20 -4.42007e-20 -0.0147823)
(6.25695e-20 4.92909e-19 -0.0148003)
(-7.37349e-20 4.68675e-19 -0.0147262)
(1.37913e-19 -3.2721e-20 -0.0147449)
(1.48954e-19 4.52601e-19 -0.014763)
(2.72447e-20 5.10069e-19 -0.0146883)
(1.72106e-19 -2.84976e-20 -0.0147071)
(1.88206e-20 3.59811e-19 -0.0147254)
(8.77424e-19 -1.07963e-18 -0.0158262)
(1.23749e-18 -1.28825e-18 -0.0158154)
(1.47378e-18 -1.4741e-18 -0.0158026)
(1.15537e-18 -1.05662e-18 -0.0157884)
(9.39702e-19 -9.74095e-19 -0.0157729)
(8.37005e-19 -7.97873e-19 -0.0157563)
(7.6082e-19 -4.52274e-19 -0.0157387)
(3.75243e-19 2.61047e-20 -0.01572)
(-2.75572e-20 -1.61094e-20 -0.0157003)
(5.14685e-20 -4.65511e-19 -0.0156797)
(4.59568e-19 -5.79014e-19 -0.0156582)
(6.67512e-19 -5.03922e-19 -0.0156358)
(6.81855e-19 -4.47163e-19 -0.0156126)
(6.27432e-19 -4.36477e-19 -0.0155887)
(5.83604e-19 -5.57784e-19 -0.015564)
(6.75236e-19 -5.38811e-19 -0.0155385)
(8.20848e-19 -3.69596e-19 -0.0155124)
(7.62533e-19 -3.139e-19 -0.0154856)
(7.1326e-19 -5.31372e-19 -0.0154581)
(7.62928e-19 -5.38194e-19 -0.01543)
(8.32365e-19 -3.06716e-19 -0.0154013)
(7.32217e-19 -1.23467e-19 -0.015372)
(6.57304e-19 -9.64701e-20 -0.0153422)
(5.63962e-19 -5.1107e-20 -0.0153118)
(3.78242e-19 -1.77695e-19 -0.0152809)
(3.68797e-19 -4.08113e-19 -0.0152495)
(4.38667e-19 -2.5125e-19 -0.0152176)
(5.17221e-19 1.22559e-19 -0.0151852)
(5.21839e-19 2.72699e-19 -0.0151523)
(3.94056e-19 2.24972e-19 -0.015119)
(2.63726e-19 8.83388e-20 -0.0150853)
(3.11625e-19 2.39212e-19 -0.0150511)
(2.92866e-19 3.89641e-19 -0.0150166)
(2.69994e-19 4.87851e-19 -0.0149816)
(2.20952e-19 6.2289e-19 -0.0149462)
(9.54437e-20 6.7695e-19 -0.0149104)
(5.96253e-20 8.1603e-19 -0.0148743)
(-1.28943e-19 5.86112e-19 -0.0148378)
(-4.20046e-19 2.62744e-19 -0.0148009)
(-4.59366e-19 2.30926e-19 -0.0147637)
(-4.03574e-19 3.16711e-19 -0.0147262)
(-5.06484e-19 1.58946e-19 -0.0146883)
(4.28211e-19 -1.20092e-18 -0.0158324)
(8.83954e-19 -1.3995e-18 -0.0158218)
(1.0882e-18 -1.12237e-18 -0.0158096)
(1.12802e-18 -7.21553e-19 -0.0157961)
(7.92088e-19 -5.24024e-19 -0.0157813)
(7.01143e-19 -5.54485e-19 -0.0157653)
(7.97271e-19 -3.18258e-19 -0.0157482)
(8.07493e-19 5.98194e-20 -0.01573)
(6.64859e-19 -2.90318e-19 -0.0157108)
(4.94181e-19 -1.03805e-18 -0.0156907)
(4.75232e-19 -1.12652e-18 -0.0156697)
(7.64122e-19 -7.42154e-19 -0.0156477)
(8.14704e-19 -3.97264e-19 -0.015625)
(6.92372e-19 -4.329e-19 -0.0156014)
(5.85763e-19 -5.03989e-19 -0.015577)
(5.30145e-19 -4.70076e-19 -0.0155519)
(6.62498e-19 -4.15829e-19 -0.0155261)
(8.21761e-19 -4.53975e-19 -0.0154996)
(8.03235e-19 -6.06959e-19 -0.0154725)
(7.34227e-19 -5.9817e-19 -0.0154447)
(8.34576e-19 -3.42426e-19 -0.0154163)
(9.76098e-19 -1.86102e-19 -0.0153873)
(9.78907e-19 -1.66414e-19 -0.0153577)
(1.05225e-18 -1.37702e-19 -0.0153276)
(9.32409e-19 -1.48715e-19 -0.0152969)
(7.20611e-19 -2.25079e-20 -0.0152657)
(5.41807e-19 1.9184e-19 -0.015234)
(4.77103e-19 2.36439e-19 -0.0152018)
(5.42324e-19 2.52811e-19 -0.0151692)
(5.29876e-19 2.11798e-19 -0.0151361)
(5.06449e-19 2.4518e-19 -0.0151025)
(4.33636e-19 2.79484e-19 -0.0150685)
(2.85059e-19 1.00579e-19 -0.0150341)
(1.70443e-19 5.77785e-20 -0.0149993)
(2.60259e-19 1.70789e-19 -0.0149641)
(3.01203e-19 2.32094e-19 -0.0149285)
(2.69996e-19 6.83455e-20 -0.0148925)
(4.13433e-19 1.56892e-19 -0.0148561)
(5.06266e-19 3.68773e-19 -0.0148194)
(3.45997e-19 2.67497e-19 -0.0147823)
(2.43876e-19 1.01556e-19 -0.0147449)
(1.93606e-19 5.90464e-20 -0.0147071)
(1.94061e-19 -1.34211e-18 -0.0158382)
(5.23049e-19 -1.42177e-18 -0.0158278)
(8.02558e-19 -9.8116e-19 -0.0158162)
(1.02582e-18 -4.48793e-19 -0.0158033)
(8.32806e-19 -2.67425e-19 -0.0157891)
(6.82399e-19 -5.79308e-19 -0.0157737)
(7.97284e-19 -4.4391e-19 -0.0157572)
(8.82691e-19 -2.27391e-19 -0.0157395)
(9.91814e-19 -7.8754e-19 -0.0157208)
(8.71288e-19 -1.11275e-18 -0.0157011)
(6.12347e-19 -8.73329e-19 -0.0156805)
(6.24113e-19 -5.59088e-19 -0.015659)
(9.56297e-19 -3.5115e-19 -0.0156367)
(8.60629e-19 -3.02536e-19 -0.0156135)
(6.94026e-19 -3.93708e-19 -0.0155895)
(5.55165e-19 -5.10487e-19 -0.0155648)
(4.65098e-19 -5.62582e-19 -0.0155393)
(5.5252e-19 -5.09009e-19 -0.0155131)
(6.80773e-19 -3.97164e-19 -0.0154863)
(6.77952e-19 -2.3829e-19 -0.0154588)
(6.1107e-19 -1.71708e-19 -0.0154307)
(6.97219e-19 -1.61695e-19 -0.0154019)
(7.04515e-19 -1.77269e-19 -0.0153726)
(7.98833e-19 -6.06665e-20 -0.0153427)
(9.73338e-19 2.2399e-19 -0.0153123)
(9.6962e-19 3.71532e-19 -0.0152813)
(8.18005e-19 2.48748e-19 -0.0152499)
(5.97565e-19 2.45718e-20 -0.0152179)
(5.60853e-19 -4.48821e-20 -0.0151854)
(5.98111e-19 -7.19699e-21 -0.0151525)
(5.92993e-19 -7.53742e-21 -0.0151192)
(6.32206e-19 1.30483e-19 -0.0150853)
(5.98599e-19 2.78951e-19 -0.0150511)
(3.58481e-19 3.88809e-19 -0.0150165)
(1.29945e-19 4.50768e-19 -0.0149814)
(3.15796e-20 3.94677e-19 -0.0149459)
(-7.04149e-20 3.91274e-19 -0.0149101)
(-1.58765e-19 4.28841e-19 -0.0148739)
(-5.79829e-20 3.43e-19 -0.0148373)
(-3.21208e-20 1.28858e-19 -0.0148003)
(-4.69142e-20 4.91613e-20 -0.014763)
(-1.70303e-20 1.70632e-19 -0.0147254)
(4.00323e-19 -1.40214e-18 -0.0158434)
(3.45029e-19 -1.57306e-18 -0.0158336)
(6.8222e-19 -1.16966e-18 -0.0158224)
(8.5446e-19 -4.0866e-19 -0.01581)
(9.526e-19 -2.62853e-19 -0.0157964)
(7.23088e-19 -5.5229e-19 -0.0157816)
(7.5646e-19 -4.43409e-19 -0.0157656)
(9.79683e-19 -4.07534e-19 -0.0157484)
(1.00872e-18 -7.57942e-19 -0.0157302)
(8.21027e-19 -6.69783e-19 -0.015711)
(6.40177e-19 -5.59368e-19 -0.0156909)
(3.3219e-19 -5.88178e-19 -0.0156698)
(6.74923e-19 -4.60025e-19 -0.0156478)
(9.43569e-19 -2.05427e-19 -0.015625)
(9.49484e-19 -3.99878e-19 -0.0156014)
(9.58975e-19 -5.31188e-19 -0.0155771)
(7.50088e-19 -4.78603e-19 -0.0155519)
(5.07616e-19 -4.52909e-19 -0.0155261)
(4.90637e-19 -3.49215e-19 -0.0154995)
(5.75303e-19 -1.32283e-19 -0.0154723)
(5.48244e-19 -6.77686e-20 -0.0154445)
(5.65741e-19 -2.03915e-20 -0.015416)
(6.03284e-19 5.20814e-20 -0.015387)
(5.82398e-19 1.06315e-19 -0.0153573)
(6.09014e-19 2.09369e-19 -0.0153271)
(7.23583e-19 3.31762e-19 -0.0152964)
(8.02581e-19 3.85447e-19 -0.0152652)
(6.78804e-19 2.53478e-19 -0.0152334)
(5.1392e-19 1.56794e-19 -0.0152011)
(4.52406e-19 1.55813e-19 -0.0151684)
(4.75479e-19 2.77725e-19 -0.0151352)
(4.76442e-19 5.2363e-19 -0.0151016)
(6.2497e-19 8.12773e-19 -0.0150675)
(6.67444e-19 1.04619e-18 -0.015033)
(4.85658e-19 7.65262e-19 -0.0149981)
(3.58553e-19 5.31711e-19 -0.0149628)
(3.42979e-19 4.89521e-19 -0.0149271)
(1.70943e-19 1.01326e-19 -0.014891)
(-1.16803e-20 -2.4092e-19 -0.0148546)
(3.24687e-20 -1.48485e-19 -0.0148178)
(1.12676e-19 1.65341e-19 -0.0147806)
(1.19633e-19 3.11956e-19 -0.014743)
(8.67686e-19 -1.10106e-18 -0.0158482)
(3.71671e-19 -1.50053e-18 -0.0158388)
(5.7197e-19 -1.19359e-18 -0.0158282)
(9.405e-19 -5.31003e-19 -0.0158163)
(1.12139e-18 -3.6838e-19 -0.0158033)
(9.48551e-19 -5.66487e-19 -0.015789)
(7.64366e-19 -6.79824e-19 -0.0157735)
(9.54979e-19 -6.59386e-19 -0.0157568)
(7.83524e-19 -4.30399e-19 -0.0157391)
(8.21449e-19 -4.12713e-19 -0.0157204)
(9.07327e-19 -3.24086e-19 -0.0157007)
(4.71367e-19 -4.28921e-19 -0.01568)
(4.90171e-19 -7.01634e-19 -0.0156585)
(9.52956e-19 -7.26829e-19 -0.0156361)
(1.07818e-18 -8.33176e-19 -0.0156128)
(1.17392e-18 -6.44226e-19 -0.0155888)
(1.08658e-18 -1.91898e-19 -0.015564)
(7.73802e-19 -1.26662e-19 -0.0155385)
(5.6704e-19 -2.03791e-19 -0.0155122)
(5.78799e-19 -6.85509e-20 -0.0154853)
(4.83601e-19 1.14477e-20 -0.0154577)
(3.48522e-19 7.50647e-20 -0.0154296)
(3.25012e-19 1.667e-19 -0.0154007)
(4.05393e-19 3.45878e-19 -0.0153714)
(4.71661e-19 4.91712e-19 -0.0153414)
(4.11978e-19 5.11114e-19 -0.0153109)
(4.29201e-19 5.17301e-19 -0.0152799)
(3.87216e-19 5.40691e-19 -0.0152483)
(2.95678e-19 5.15647e-19 -0.0152163)
(2.14611e-19 4.57048e-19 -0.0151837)
(2.65185e-19 5.74569e-19 -0.0151507)
(3.25584e-19 5.986e-19 -0.0151173)
(3.33272e-19 6.00158e-19 -0.0150834)
(4.42654e-19 4.99523e-19 -0.015049)
(4.42436e-19 1.68809e-19 -0.0150143)
(4.01426e-19 -3.70015e-20 -0.0149791)
(3.40051e-19 -1.95536e-19 -0.0149436)
(3.05284e-19 -1.91928e-19 -0.0149076)
(2.56061e-19 -3.80103e-21 -0.0148713)
(2.86749e-19 1.1263e-19 -0.0148346)
(3.29308e-19 2.06731e-19 -0.0147975)
(3.39284e-19 2.04691e-19 -0.0147601)
(1.29931e-18 -7.58308e-19 -0.0158524)
(6.97819e-19 -1.38193e-18 -0.0158437)
(5.59057e-19 -1.49709e-18 -0.0158336)
(1.06509e-18 -9.83245e-19 -0.0158222)
(1.38571e-18 -5.43165e-19 -0.0158096)
(1.43458e-18 -6.59921e-19 -0.0157959)
(1.28349e-18 -8.09182e-19 -0.0157809)
(1.11672e-18 -4.54766e-19 -0.0157648)
(7.64491e-19 -3.12897e-19 -0.0157475)
(9.52439e-19 -8.46205e-19 -0.0157292)
(1.25161e-18 -4.8981e-19 -0.01571)
(1.02051e-18 -6.16695e-19 -0.0156897)
(6.86353e-19 -1.26194e-18 -0.0156686)
(9.15463e-19 -1.07769e-18 -0.0156465)
(1.09893e-18 -7.28526e-19 -0.0156236)
(1.13889e-18 -2.43304e-19 -0.0155999)
(1.09059e-18 2.87983e-19 -0.0155755)
(8.72099e-19 1.85291e-19 -0.0155503)
(6.54795e-19 -9.01885e-20 -0.0155243)
(7.92307e-19 -4.63912e-21 -0.0154977)
(8.60301e-19 2.13537e-19 -0.0154704)
(5.21572e-19 3.83161e-19 -0.0154425)
(2.01275e-19 3.88189e-19 -0.0154139)
(4.80296e-20 3.99509e-19 -0.0153848)
(8.44025e-20 6.41903e-19 -0.0153551)
(6.15573e-20 8.29761e-19 -0.0153248)
(7.60814e-20 8.95309e-19 -0.015294)
(6.42471e-20 8.867e-19 -0.0152626)
(2.40558e-21 7.13437e-19 -0.0152308)
(6.8144e-21 4.90611e-19 -0.0151984)
(1.31491e-19 2.90334e-19 -0.0151656)
(3.57972e-19 3.33748e-19 -0.0151323)
(4.53477e-19 3.60359e-19 -0.0150986)
(4.99116e-19 1.73327e-19 -0.0150644)
(4.85811e-19 3.61306e-20 -0.0150298)
(5.28885e-19 9.41349e-20 -0.0149948)
(5.90753e-19 2.91221e-19 -0.0149594)
(5.36385e-19 3.15165e-19 -0.0149236)
(3.18952e-19 -2.07013e-20 -0.0148874)
(1.93054e-19 -2.23955e-19 -0.0148508)
(2.61608e-19 -3.57234e-20 -0.0148139)
(2.85203e-19 3.08755e-20 -0.0147766)
(1.52953e-18 -6.83364e-19 -0.0158562)
(1.1066e-18 -1.11961e-18 -0.015848)
(6.61862e-19 -1.43277e-18 -0.0158385)
(9.8049e-19 -1.20396e-18 -0.0158276)
(1.41976e-18 -7.959e-19 -0.0158156)
(1.45253e-18 -7.02532e-19 -0.0158023)
(1.40278e-18 -5.95035e-19 -0.0157878)
(1.39935e-18 -1.57915e-19 -0.0157722)
(1.07905e-18 -4.97877e-19 -0.0157554)
(8.93365e-19 -1.09714e-18 -0.0157376)
(1.0558e-18 -3.97206e-19 -0.0157187)
(1.3344e-18 -4.43053e-19 -0.0156989)
(1.02628e-18 -1.01549e-18 -0.0156781)
(7.83565e-19 -9.19098e-19 -0.0156564)
(6.68266e-19 -4.4073e-19 -0.0156339)
(7.68449e-19 2.06751e-19 -0.0156105)
(1.01085e-18 5.44186e-19 -0.0155864)
(1.01511e-18 2.3634e-19 -0.0155615)
(7.54688e-19 -3.04904e-19 -0.0155359)
(6.69385e-19 -3.04202e-19 -0.0155095)
(9.10176e-19 4.73048e-19 -0.0154825)
(8.35097e-19 1.06298e-18 -0.0154548)
(4.47306e-19 9.2726e-19 -0.0154265)
(1.54745e-19 8.36212e-19 -0.0153976)
(2.95459e-20 9.86746e-19 -0.0153681)
(-2.77102e-20 8.92598e-19 -0.0153381)
(-4.03265e-20 7.18829e-19 -0.0153074)
(4.68182e-20 5.93701e-19 -0.0152763)
(1.14059e-20 2.78069e-19 -0.0152446)
(-1.37272e-19 -2.06516e-19 -0.0152125)
(-1.30709e-19 -3.14923e-19 -0.0151798)
(5.62373e-20 -5.6169e-20 -0.0151467)
(2.198e-19 2.10207e-20 -0.0151131)
(3.4107e-19 1.29115e-20 -0.0150791)
(3.47462e-19 -5.18392e-21 -0.0150447)