/*--------------------------------*- C++ -*----------------------------------*\
  =========                 |
  \\      /  F ield         | OpenFOAM: The Open Source CFD Toolbox
   \\    /   O peration     | Website:  https://openfoam.org
    \\  /    A nd           | Version:  7
     \\/     M anipulation  |
\*---------------------------------------------------------------------------*/
FoamFile
{
    version     2.0;
    format      ascii;
    class       volScalarField;
    location    "20000";
    object      nut;
}
// * * * * * * * * * * * * * * * * * * * * * * * * * * * * * * * * * * * * * //

dimensions      [0 2 -1 0 0 0 0];

internalField   nonuniform List<scalar> 
1762
(
1.41969e-05
1.41028e-05
1.39982e-05
1.38836e-05
1.37593e-05
1.36259e-05
1.34838e-05
1.33334e-05
1.38361e-05
1.37428e-05
1.36392e-05
1.35257e-05
1.34027e-05
1.32707e-05
1.31302e-05
1.29814e-05
1.38073e-05
1.37952e-05
1.37711e-05
1.37351e-05
1.36873e-05
1.36279e-05
1.35572e-05
1.34756e-05
1.33833e-05
1.32808e-05
1.31684e-05
1.30468e-05
1.29163e-05
1.27774e-05
1.26304e-05
1.34082e-05
1.34321e-05
1.3444e-05
1.3444e-05
1.3432e-05
1.34082e-05
1.33725e-05
1.33251e-05
1.32664e-05
1.31964e-05
1.31156e-05
1.30244e-05
1.2923e-05
1.2812e-05
1.26918e-05
1.25629e-05
1.24257e-05
1.22806e-05
1.30458e-05
1.30694e-05
1.30813e-05
1.30813e-05
1.30694e-05
1.30458e-05
1.30105e-05
1.29637e-05
1.29056e-05
1.28364e-05
1.27565e-05
1.26663e-05
1.25662e-05
1.24565e-05
1.23379e-05
1.22106e-05
1.20753e-05
1.19321e-05
1.26842e-05
1.27076e-05
1.27193e-05
1.27193e-05
1.27076e-05
1.26842e-05
1.26493e-05
1.2603e-05
1.25456e-05
1.24773e-05
1.23984e-05
1.23093e-05
1.22105e-05
1.21023e-05
1.19852e-05
1.18598e-05
1.17264e-05
1.15852e-05
1.23237e-05
1.23467e-05
1.23583e-05
1.23583e-05
1.23467e-05
1.23237e-05
1.22892e-05
1.22435e-05
1.21868e-05
1.21194e-05
1.20415e-05
1.19537e-05
1.18562e-05
1.17495e-05
1.16341e-05
1.15106e-05
1.13791e-05
1.12401e-05
1.19644e-05
1.19871e-05
1.19985e-05
1.19985e-05
1.19871e-05
1.19644e-05
1.19304e-05
1.18853e-05
1.18294e-05
1.17629e-05
1.16861e-05
1.15995e-05
1.15034e-05
1.13983e-05
1.12847e-05
1.11631e-05
1.10338e-05
1.0897e-05
1.16065e-05
1.1629e-05
1.16402e-05
1.16402e-05
1.1629e-05
1.16065e-05
1.1573e-05
1.15286e-05
1.14735e-05
1.14079e-05
1.13323e-05
1.1247e-05
1.11524e-05
1.1049e-05
1.09372e-05
1.08176e-05
1.06904e-05
1.0556e-05
1.12503e-05
1.12724e-05
1.12835e-05
1.12835e-05
1.12724e-05
1.12503e-05
1.12173e-05
1.11736e-05
1.11193e-05
1.10548e-05
1.09804e-05
1.08964e-05
1.08034e-05
1.07017e-05
1.05918e-05
1.04743e-05
1.03494e-05
1.02173e-05
1.0896e-05
1.09178e-05
1.09287e-05
1.09287e-05
1.09178e-05
1.0896e-05
1.08635e-05
1.08205e-05
1.07671e-05
1.07036e-05
1.06305e-05
1.05479e-05
1.04565e-05
1.03566e-05
1.02487e-05
1.01333e-05
1.00107e-05
9.88107e-06
1.05118e-05
1.05437e-05
1.05651e-05
1.05758e-05
1.05758e-05
1.05651e-05
1.05437e-05
1.05118e-05
1.04695e-05
1.0417e-05
1.03547e-05
1.02828e-05
1.02017e-05
1.01119e-05
1.00138e-05
9.90798e-06
9.79477e-06
9.67456e-06
9.54751e-06
1.01623e-05
1.01937e-05
1.02147e-05
1.02252e-05
1.02252e-05
1.02147e-05
1.01937e-05
1.01623e-05
1.01208e-05
1.00693e-05
1.00081e-05
9.93749e-06
9.85795e-06
9.76985e-06
9.67368e-06
9.56989e-06
9.45895e-06
9.34119e-06
9.21675e-06
9.81533e-06
9.8461e-06
9.86671e-06
9.87705e-06
9.87704e-06
9.86671e-06
9.8461e-06
9.81532e-06
9.77456e-06
9.72402e-06
9.66399e-06
9.59479e-06
9.51681e-06
9.43046e-06
9.33624e-06
9.23458e-06
9.12597e-06
9.01073e-06
8.88895e-06
9.47096e-06
9.50112e-06
9.52133e-06
9.53146e-06
9.53145e-06
9.52132e-06
9.50112e-06
9.47095e-06
9.43099e-06
9.38146e-06
9.32264e-06
9.25485e-06
9.17847e-06
9.09393e-06
9.0017e-06
8.90223e-06
8.79599e-06
8.68332e-06
8.56427e-06
9.12939e-06
9.15893e-06
9.17872e-06
9.18864e-06
9.18864e-06
9.17872e-06
9.15893e-06
9.12938e-06
9.09025e-06
9.04176e-06
8.98418e-06
8.91784e-06
8.8431e-06
8.7604e-06
8.67021e-06
8.57298e-06
8.46917e-06
8.35912e-06
8.24286e-06
8.7908e-06
8.8197e-06
8.83906e-06
8.84877e-06
8.84877e-06
8.83906e-06
8.8197e-06
8.7908e-06
8.75252e-06
8.7051e-06
8.64879e-06
8.58393e-06
8.51087e-06
8.43006e-06
8.34195e-06
8.247e-06
8.14567e-06
8.03828e-06
7.92486e-06
8.45537e-06
8.48361e-06
8.50254e-06
8.51202e-06
8.51202e-06
8.50253e-06
8.48361e-06
8.45536e-06
8.41797e-06
8.37163e-06
8.31662e-06
8.25328e-06
8.18194e-06
8.10305e-06
8.01707e-06
7.92444e-06
7.82562e-06
7.72095e-06
7.61042e-06
8.12326e-06
8.15083e-06
8.1693e-06
8.17856e-06
8.17856e-06
8.1693e-06
8.15083e-06
8.12325e-06
8.08675e-06
8.04153e-06
7.98785e-06
7.92604e-06
7.85647e-06
7.77953e-06
7.69572e-06
7.60544e-06
7.50919e-06
7.40727e-06
7.29968e-06
7.79463e-06
7.82151e-06
7.83953e-06
7.84856e-06
7.84856e-06
7.83953e-06
7.82151e-06
7.79462e-06
7.75903e-06
7.71495e-06
7.66263e-06
7.60239e-06
7.5346e-06
7.45967e-06
7.37804e-06
7.29017e-06
7.19651e-06
7.09738e-06
6.99277e-06
7.46965e-06
7.49583e-06
7.51338e-06
7.52218e-06
7.52217e-06
7.51338e-06
7.49583e-06
7.46964e-06
7.43498e-06
7.39205e-06
7.34111e-06
7.28248e-06
7.2165e-06
7.1436e-06
7.0642e-06
6.97876e-06
6.88774e-06
6.79143e-06
6.68984e-06
7.14847e-06
7.17394e-06
7.19101e-06
7.19957e-06
7.19957e-06
7.19101e-06
7.17394e-06
7.14846e-06
7.11475e-06
7.073e-06
7.02346e-06
6.96645e-06
6.90232e-06
6.83147e-06
6.75434e-06
6.67136e-06
6.583e-06
6.48956e-06
6.391e-06
6.83125e-06
6.856e-06
6.87259e-06
6.8809e-06
6.8809e-06
6.87258e-06
6.856e-06
6.83124e-06
6.79849e-06
6.75794e-06
6.70982e-06
6.65447e-06
6.59221e-06
6.52344e-06
6.4486e-06
6.36812e-06
6.28244e-06
6.19189e-06
6.09641e-06
6.51815e-06
6.54216e-06
6.55826e-06
6.56633e-06
6.56633e-06
6.55826e-06
6.54216e-06
6.51814e-06
6.48637e-06
6.44703e-06
6.40036e-06
6.34668e-06
6.28631e-06
6.21965e-06
6.14713e-06
6.06917e-06
5.98621e-06
5.89856e-06
5.8062e-06
6.20933e-06
6.23259e-06
6.24819e-06
6.25601e-06
6.25601e-06
6.24819e-06
6.23259e-06
6.20932e-06
6.17854e-06
6.14042e-06
6.09522e-06
6.04323e-06
5.98478e-06
5.92026e-06
5.85007e-06
5.77465e-06
5.69443e-06
5.60972e-06
5.52048e-06
5.90494e-06
5.92745e-06
5.94254e-06
5.9501e-06
5.9501e-06
5.94253e-06
5.92744e-06
5.90493e-06
5.87514e-06
5.83827e-06
5.79455e-06
5.74427e-06
5.68776e-06
5.62539e-06
5.55757e-06
5.48471e-06
5.40725e-06
5.32549e-06
5.23941e-06
5.60513e-06
5.62687e-06
5.64146e-06
5.64877e-06
5.64877e-06
5.64145e-06
5.62687e-06
5.60512e-06
5.57635e-06
5.54073e-06
5.4985e-06
5.44996e-06
5.3954e-06
5.3352e-06
5.26976e-06
5.19949e-06
5.1248e-06
5.04602e-06
4.9631e-06
5.31006e-06
5.33104e-06
5.34511e-06
5.35216e-06
5.35216e-06
5.3451e-06
5.33104e-06
5.31006e-06
5.28231e-06
5.24796e-06
5.20724e-06
5.16044e-06
5.10785e-06
5.04985e-06
4.9868e-06
4.91913e-06
4.84723e-06
4.77144e-06
4.6917e-06
4.99317e-06
5.0199e-06
5.0401e-06
5.05364e-06
5.06044e-06
5.06044e-06
5.05364e-06
5.0401e-06
5.0199e-06
4.99317e-06
4.96011e-06
4.92091e-06
4.87587e-06
4.82527e-06
4.76947e-06
4.70884e-06
4.64377e-06
4.57468e-06
4.50188e-06
4.42534e-06
4.70911e-06
4.7348e-06
4.75422e-06
4.76724e-06
4.77377e-06
4.77377e-06
4.76723e-06
4.75422e-06
4.7348e-06
4.70912e-06
4.67734e-06
4.63968e-06
4.59641e-06
4.5478e-06
4.49422e-06
4.43602e-06
4.37358e-06
4.3073e-06
4.23751e-06
4.16416e-06
4.43029e-06
4.45493e-06
4.47356e-06
4.48605e-06
4.49232e-06
4.49232e-06
4.48605e-06
4.47356e-06
4.45493e-06
4.43029e-06
4.39981e-06
4.3637e-06
4.32221e-06
4.27561e-06
4.22426e-06
4.16849e-06
4.10868e-06
4.04523e-06
3.97845e-06
3.9083e-06
4.15687e-06
4.18046e-06
4.1983e-06
4.21026e-06
4.21626e-06
4.21625e-06
4.21025e-06
4.1983e-06
4.18046e-06
4.15688e-06
4.1277e-06
4.09313e-06
4.05343e-06
4.00886e-06
3.95974e-06
3.90642e-06
3.84925e-06
3.78863e-06
3.72486e-06
3.65792e-06
3.88904e-06
3.91157e-06
3.92861e-06
3.94003e-06
3.94576e-06
3.94576e-06
3.94003e-06
3.92861e-06
3.91157e-06
3.88904e-06
3.86117e-06
3.82817e-06
3.79026e-06
3.74771e-06
3.70084e-06
3.64997e-06
3.59545e-06
3.53765e-06
3.47689e-06
3.41316e-06
3.62696e-06
3.64843e-06
3.66467e-06
3.67556e-06
3.68102e-06
3.68102e-06
3.67555e-06
3.66467e-06
3.64843e-06
3.62696e-06
3.60041e-06
3.56897e-06
3.53286e-06
3.49235e-06
3.44772e-06
3.3993e-06
3.34743e-06
3.29247e-06
3.23471e-06
3.17418e-06
3.37083e-06
3.39124e-06
3.40667e-06
3.41702e-06
3.42222e-06
3.42222e-06
3.41702e-06
3.40667e-06
3.39124e-06
3.37083e-06
3.3456e-06
3.31572e-06
3.28142e-06
3.24294e-06
3.20057e-06
3.1546e-06
3.10538e-06
3.05325e-06
2.9985e-06
2.94115e-06
3.12085e-06
3.1402e-06
3.15483e-06
3.16464e-06
3.16956e-06
3.16956e-06
3.16463e-06
3.15483e-06
3.14019e-06
3.12086e-06
3.09694e-06
3.06863e-06
3.03614e-06
2.99969e-06
2.95957e-06
2.91606e-06
2.86949e-06
2.82018e-06
2.76842e-06
2.71425e-06
2.87724e-06
2.89551e-06
2.90934e-06
2.91861e-06
2.92326e-06
2.92326e-06
2.91861e-06
2.90934e-06
2.89551e-06
2.87724e-06
2.85465e-06
2.82791e-06
2.79722e-06
2.76281e-06
2.72493e-06
2.68388e-06
2.63994e-06
2.59345e-06
2.54468e-06
2.49367e-06
2.6402e-06
2.65742e-06
2.67044e-06
2.67917e-06
2.68355e-06
2.68355e-06
2.67917e-06
2.67044e-06
2.65741e-06
2.64021e-06
2.61894e-06
2.59376e-06
2.56488e-06
2.5325e-06
2.49687e-06
2.45826e-06
2.41696e-06
2.37328e-06
2.32748e-06
2.27962e-06
2.41e-06
2.42615e-06
2.43837e-06
2.44656e-06
2.45068e-06
2.45068e-06
2.44656e-06
2.43837e-06
2.42615e-06
2.41001e-06
2.39005e-06
2.36644e-06
2.33936e-06
2.30901e-06
2.27562e-06
2.23945e-06
2.20077e-06
2.15988e-06
2.11704e-06
2.0723e-06
2.1869e-06
2.20198e-06
2.2134e-06
2.22106e-06
2.2249e-06
2.2249e-06
2.22106e-06
2.2134e-06
2.20198e-06
2.1869e-06
2.16826e-06
2.14621e-06
2.12092e-06
2.09259e-06
2.06143e-06
2.02769e-06
1.99163e-06
1.95352e-06
1.91361e-06
1.87198e-06
1.97118e-06
1.9852e-06
1.99582e-06
2.00295e-06
2.00652e-06
2.00652e-06
2.00294e-06
1.99582e-06
1.9852e-06
1.97118e-06
1.95385e-06
1.93335e-06
1.90985e-06
1.88353e-06
1.85459e-06
1.82326e-06
1.7898e-06
1.75445e-06
1.71746e-06
1.6789e-06
1.76316e-06
1.77613e-06
1.78596e-06
1.79255e-06
1.79586e-06
1.79586e-06
1.79255e-06
1.78596e-06
1.77614e-06
1.76316e-06
1.74713e-06
1.72818e-06
1.70646e-06
1.68213e-06
1.6554e-06
1.62648e-06
1.59559e-06
1.56299e-06
1.52889e-06
1.49338e-06
1.56321e-06
1.57514e-06
1.58417e-06
1.59023e-06
1.59327e-06
1.59327e-06
1.59023e-06
1.58417e-06
1.57514e-06
1.56321e-06
1.54848e-06
1.53106e-06
1.5111e-06
1.48876e-06
1.46422e-06
1.43768e-06
1.40936e-06
1.37947e-06
1.34824e-06
1.31575e-06
1.37173e-06
1.38262e-06
1.39086e-06
1.3964e-06
1.39918e-06
1.39918e-06
1.3964e-06
1.39087e-06
1.38262e-06
1.37173e-06
1.35828e-06
1.34239e-06
1.32419e-06
1.30382e-06
1.28145e-06
1.25727e-06
1.23149e-06
1.20429e-06
1.1759e-06
1.14639e-06
1.18919e-06
1.19905e-06
1.20652e-06
1.21153e-06
1.21405e-06
1.21405e-06
1.21153e-06
1.20652e-06
1.19905e-06
1.18919e-06
1.17702e-06
1.16264e-06
1.14617e-06
1.12776e-06
1.10755e-06
1.08571e-06
1.06244e-06
1.03792e-06
1.01234e-06
9.85774e-07
1.01615e-06
1.02498e-06
1.03168e-06
1.03618e-06
1.03844e-06
1.03844e-06
1.03618e-06
1.03168e-06
1.02499e-06
1.01615e-06
1.00524e-06
9.9236e-07
9.77617e-07
9.61136e-07
9.43061e-07
9.23547e-07
9.02762e-07
8.8088e-07
8.58078e-07
8.34428e-07
8.53258e-07
8.61086e-07
8.67018e-07
8.71002e-07
8.73003e-07
8.73003e-07
8.71001e-07
8.6702e-07
8.61086e-07
8.5326e-07
8.43605e-07
8.32208e-07
8.1917e-07
8.04605e-07
7.88643e-07
7.71424e-07
7.53102e-07
7.33832e-07
7.13775e-07
6.93002e-07
7.01325e-07
7.08151e-07
7.13326e-07
7.16803e-07
7.18549e-07
7.18549e-07
7.16802e-07
7.13328e-07
7.08151e-07
7.01326e-07
6.9291e-07
6.82981e-07
6.71631e-07
6.58961e-07
6.45088e-07
6.30139e-07
6.1425e-07
5.97561e-07
5.80216e-07
5.62281e-07
5.61327e-07
5.67163e-07
5.7159e-07
5.74565e-07
5.7606e-07
5.7606e-07
5.74565e-07
5.71592e-07
5.67164e-07
5.61327e-07
5.54136e-07
5.45658e-07
5.35975e-07
5.25177e-07
5.13368e-07
5.0066e-07
4.87172e-07
4.73028e-07
4.58355e-07
4.43212e-07
4.34469e-07
4.39331e-07
4.4302e-07
4.45501e-07
4.46747e-07
4.46747e-07
4.455e-07
4.43021e-07
4.39331e-07
4.3447e-07
4.28485e-07
4.21436e-07
4.13395e-07
4.0444e-07
3.94662e-07
3.84156e-07
3.73027e-07
3.61382e-07
3.49328e-07
3.3692e-07
3.22199e-07
3.26105e-07
3.29073e-07
3.31069e-07
3.32072e-07
3.32072e-07
3.31069e-07
3.29074e-07
3.26106e-07
3.222e-07
3.17395e-07
3.11744e-07
3.05307e-07
2.98151e-07
2.90352e-07
2.81992e-07
2.73157e-07
2.63938e-07
2.54423e-07
2.44659e-07
2.26136e-07
2.29123e-07
2.31394e-07
2.32923e-07
2.33692e-07
2.33692e-07
2.32923e-07
2.31395e-07
2.29123e-07
2.26136e-07
2.22468e-07
2.18159e-07
2.13261e-07
2.07828e-07
2.01922e-07
1.95609e-07
1.88958e-07
1.82041e-07
1.74928e-07
1.67657e-07
1.47825e-07
1.49957e-07
1.5158e-07
1.52673e-07
1.53223e-07
1.53223e-07
1.52673e-07
1.5158e-07
1.49957e-07
1.47826e-07
1.45212e-07
1.42149e-07
1.38675e-07
1.34832e-07
1.30668e-07
1.26231e-07
1.21575e-07
1.16751e-07
1.11813e-07
1.06786e-07
8.82076e-08
8.95907e-08
9.06454e-08
9.13568e-08
9.1715e-08
9.1715e-08
9.13567e-08
9.06456e-08
8.95908e-08
8.82077e-08
8.6515e-08
8.45358e-08
8.22971e-08
7.98284e-08
7.71623e-08
7.43329e-08
7.13756e-08
6.83257e-08
6.52177e-08
6.2069e-08
4.68749e-08
4.76655e-08
4.82692e-08
4.86769e-08
4.88823e-08
4.88823e-08
4.86769e-08
4.82693e-08
4.76655e-08
4.6875e-08
4.59094e-08
4.47831e-08
4.35126e-08
4.2116e-08
4.06129e-08
3.90238e-08
3.73696e-08
3.56711e-08
3.39481e-08
3.22102e-08
2.15274e-08
2.19109e-08
2.22041e-08
2.24023e-08
2.25022e-08
2.25022e-08
2.24023e-08
2.22042e-08
2.19109e-08
2.15275e-08
2.106e-08
2.05157e-08
1.99033e-08
1.9232e-08
1.85116e-08
1.77524e-08
1.69649e-08
1.61591e-08
1.53449e-08
1.45265e-08
8.21438e-09
8.36531e-09
8.48085e-09
8.55899e-09
8.5984e-09
8.59841e-09
8.55898e-09
8.48086e-09
8.36532e-09
8.2144e-09
8.03059e-09
7.81694e-09
7.57692e-09
7.31427e-09
7.03302e-09
6.73727e-09
6.43118e-09
6.11876e-09
5.80379e-09
5.48792e-09
2.45375e-09
2.49904e-09
2.53372e-09
2.55718e-09
2.56902e-09
2.56902e-09
2.55718e-09
2.53373e-09
2.49904e-09
2.45376e-09
2.39863e-09
2.33459e-09
2.2627e-09
2.18409e-09
2.09998e-09
2.0116e-09
1.92021e-09
1.82701e-09
1.73312e-09
1.639e-09
5.1602e-10
5.253e-10
5.32404e-10
5.37209e-10
5.39634e-10
5.39634e-10
5.37209e-10
5.32405e-10
5.253e-10
5.16021e-10
5.04724e-10
4.91594e-10
4.76848e-10
4.60716e-10
4.43444e-10
4.25285e-10
4.06492e-10
3.87309e-10
3.67967e-10
3.48546e-10
6.14495e-11
6.24783e-11
6.32651e-11
6.37969e-11
6.40651e-11
6.40651e-11
6.37969e-11
6.32652e-11
6.24783e-11
6.14497e-11
6.01957e-11
5.87361e-11
5.70939e-11
5.52936e-11
5.33617e-11
5.13254e-11
4.9212e-11
4.70483e-11
4.48595e-11
4.26524e-11
2.49041e-12
2.52527e-12
2.55187e-12
2.56982e-12
2.57886e-12
2.57886e-12
2.56981e-12
2.55187e-12
2.52527e-12
2.49042e-12
2.4478e-12
2.39801e-12
2.34176e-12
2.27979e-12
2.21293e-12
2.14204e-12
2.06798e-12
1.99162e-12
1.91379e-12
1.83455e-12
9.70436e-15
9.78248e-15
9.84179e-15
9.88167e-15
9.90171e-15
9.90171e-15
9.88166e-15
9.84181e-15
9.78249e-15
9.70438e-15
9.60823e-15
9.495e-15
9.36586e-15
9.22205e-15
9.06502e-15
8.89627e-15
8.71744e-15
8.53014e-15
8.33593e-15
8.13335e-15
3.9286e-06
3.66467e-06
3.40667e-06
3.15482e-06
2.90934e-06
2.67043e-06
2.43837e-06
2.2134e-06
1.99582e-06
1.78596e-06
1.58417e-06
1.39086e-06
1.20652e-06
1.03168e-06
8.67018e-07
7.13326e-07
5.7159e-07
4.4302e-07
3.29073e-07
2.31394e-07
1.5158e-07
9.06454e-08
4.82692e-08
2.22041e-08
8.48085e-09
2.53372e-09
5.32404e-10
6.32651e-11
2.55187e-12
9.84179e-15
3.91157e-06
3.64843e-06
3.39124e-06
3.1402e-06
2.89551e-06
2.65742e-06
2.42615e-06
2.20199e-06
1.98521e-06
1.77614e-06
1.57514e-06
1.38262e-06
1.19905e-06
1.02499e-06
8.61087e-07
7.08152e-07
5.67164e-07
4.39331e-07
3.26106e-07
2.29124e-07
1.49957e-07
8.95909e-08
4.76656e-08
2.19109e-08
8.36534e-09
2.49905e-09
5.25301e-10
6.24784e-11
2.52527e-12
9.78251e-15
3.88904e-06
3.62696e-06
3.37083e-06
3.12085e-06
2.87724e-06
2.64021e-06
2.41001e-06
2.1869e-06
1.97118e-06
1.76316e-06
1.56321e-06
1.37173e-06
1.18919e-06
1.01615e-06
8.53259e-07
7.01325e-07
5.61327e-07
4.3447e-07
3.22199e-07
2.26136e-07
1.47826e-07
8.82077e-08
4.6875e-08
2.15275e-08
8.2144e-09
2.45376e-09
5.16021e-10
6.14497e-11
2.49041e-12
9.70438e-15
3.86118e-06
3.60042e-06
3.34561e-06
3.09695e-06
2.85465e-06
2.61894e-06
2.39006e-06
2.16826e-06
1.95385e-06
1.74714e-06
1.54848e-06
1.35828e-06
1.17702e-06
1.00524e-06
8.43605e-07
6.9291e-07
5.54136e-07
4.28485e-07
3.17395e-07
2.22468e-07
1.45212e-07
8.6515e-08
4.59095e-08
2.106e-08
8.0306e-09
2.39863e-09
5.04724e-10
6.01957e-11
2.4478e-12
9.60823e-15
3.82818e-06
3.56898e-06
3.31573e-06
3.06864e-06
2.82791e-06
2.59377e-06
2.36645e-06
2.14622e-06
1.93336e-06
1.72819e-06
1.53106e-06
1.34239e-06
1.16264e-06
9.92362e-07
8.32209e-07
6.82982e-07
5.45659e-07
4.21437e-07
3.11745e-07
2.1816e-07
1.42149e-07
8.4536e-08
4.47832e-08
2.05158e-08
7.81696e-09
2.3346e-09
4.91596e-10
5.87363e-11
2.39802e-12
9.49502e-15
3.79026e-06
3.53287e-06
3.28143e-06
3.03614e-06
2.79722e-06
2.56488e-06
2.33936e-06
2.12093e-06
1.90985e-06
1.70646e-06
1.5111e-06
1.32419e-06
1.14617e-06
9.77617e-07
8.1917e-07
6.71631e-07
5.35975e-07
4.13395e-07
3.05307e-07
2.13261e-07
1.38675e-07
8.22971e-08
4.35126e-08
1.99033e-08
7.57692e-09
2.2627e-09
4.76848e-10
5.70939e-11
2.34176e-12
9.36586e-15
4.27562e-06
4.00887e-06
3.74772e-06
3.49235e-06
3.24295e-06
2.9997e-06
2.76281e-06
2.5325e-06
2.30901e-06
2.09259e-06
1.88353e-06
1.68214e-06
1.48876e-06
1.30382e-06
1.12776e-06
9.61137e-07
8.04606e-07
6.58961e-07
5.25177e-07
4.04441e-07
2.98151e-07
2.07828e-07
1.34832e-07
7.98285e-08
4.2116e-08
1.9232e-08
7.31428e-09
2.18409e-09
4.60717e-10
5.52937e-11
2.27979e-12
9.22206e-15
1.39982e-05
1.36392e-05
1.32807e-05
1.2923e-05
1.25661e-05
1.22105e-05
1.18562e-05
1.15034e-05
1.11524e-05
1.08034e-05
1.04565e-05
1.01119e-05
9.76985e-06
9.43046e-06
9.09393e-06
8.7604e-06
8.43006e-06
8.10305e-06
7.77953e-06
7.45966e-06
7.14359e-06
6.83147e-06
6.52344e-06
6.21965e-06
5.92025e-06
5.62539e-06
5.3352e-06
5.04985e-06
4.76947e-06
4.49422e-06
4.22426e-06
3.95974e-06
3.70084e-06
3.44772e-06
3.20056e-06
2.95957e-06
2.72493e-06
2.49687e-06
2.27562e-06
2.06143e-06
1.85459e-06
1.6554e-06
1.46422e-06
1.28145e-06
1.10755e-06
9.43061e-07
7.88643e-07
6.45089e-07
5.13368e-07
3.94662e-07
2.90352e-07
2.01922e-07
1.30668e-07
7.71623e-08
4.06129e-08
1.85116e-08
7.03302e-09
2.09998e-09
4.43444e-10
5.33617e-11
2.21293e-12
9.06502e-15
1.38836e-05
1.35257e-05
1.31684e-05
1.2812e-05
1.24565e-05
1.21023e-05
1.17495e-05
1.13983e-05
1.1049e-05
1.07017e-05
1.03566e-05
1.00138e-05
9.67366e-06
9.33622e-06
9.00168e-06
8.6702e-06
8.34194e-06
8.01705e-06
7.6957e-06
7.37803e-06
7.06419e-06
6.75433e-06
6.44859e-06
6.14712e-06
5.85006e-06
5.55755e-06
5.26975e-06
4.98679e-06
4.70883e-06
4.43601e-06
4.16848e-06
3.90641e-06
3.64996e-06
3.3993e-06
3.1546e-06
2.91606e-06
2.68387e-06
2.45826e-06
2.23945e-06
2.02769e-06
1.82326e-06
1.62648e-06
1.43768e-06
1.25727e-06
1.08571e-06
9.23547e-07
7.71424e-07
6.30139e-07
5.00659e-07
3.84156e-07
2.81992e-07
1.95609e-07
1.26231e-07
7.43329e-08
3.90238e-08
1.77524e-08
6.73727e-09
2.0116e-09
4.25285e-10
5.13253e-11
2.14203e-12
8.89627e-15
1.37593e-05
1.34027e-05
1.30468e-05
1.26918e-05
1.23379e-05
1.19852e-05
1.16341e-05
1.12847e-05
1.09372e-05
1.05918e-05
1.02487e-05
9.90797e-06
9.56989e-06
9.23458e-06
8.90223e-06
8.57298e-06
8.247e-06
7.92443e-06
7.60544e-06
7.29017e-06
6.97876e-06
6.67136e-06
6.36812e-06
6.06916e-06
5.77465e-06
5.48471e-06
5.19949e-06
4.91912e-06
4.64377e-06
4.37357e-06
4.10868e-06
3.84925e-06
3.59545e-06
3.34743e-06
3.10538e-06
2.86949e-06
2.63994e-06
2.41696e-06
2.20077e-06
1.99163e-06
1.7898e-06
1.59559e-06
1.40935e-06
1.23148e-06
1.06244e-06
9.0276e-07
7.531e-07
6.14249e-07
4.87171e-07
3.73027e-07
2.73157e-07
1.88958e-07
1.21575e-07
7.13754e-08
3.73696e-08
1.69648e-08
6.43117e-09
1.9202e-09
4.06491e-10
4.92119e-11
2.06797e-12
8.71742e-15
1.36259e-05
1.32707e-05
1.29163e-05
1.25629e-05
1.22106e-05
1.18598e-05
1.15105e-05
1.11631e-05
1.08176e-05
1.04742e-05
1.01332e-05
9.79475e-06
9.45893e-06
9.12596e-06
8.79598e-06
8.46916e-06
8.14566e-06
7.82561e-06
7.50918e-06
7.19651e-06
6.88773e-06
6.58299e-06
6.28244e-06
5.9862e-06
5.69442e-06
5.40724e-06
5.1248e-06
4.84723e-06
4.57468e-06
4.3073e-06
4.04523e-06
3.78863e-06
3.53765e-06
3.29247e-06
3.05325e-06
2.82017e-06
2.59345e-06
2.37327e-06
2.15988e-06
1.95351e-06
1.75444e-06
1.56298e-06
1.37947e-06
1.20429e-06
1.03792e-06
8.80879e-07
7.33831e-07
5.97561e-07
4.73028e-07
3.61382e-07
2.63938e-07
1.82041e-07
1.16751e-07
6.83256e-08
3.56711e-08
1.61591e-08
6.11875e-09
1.827e-09
3.87309e-10
4.70483e-11
1.99162e-12
8.53013e-15
1.34838e-05
1.31302e-05
1.27774e-05
1.24257e-05
1.20753e-05
1.17264e-05
1.13791e-05
1.10337e-05
1.06904e-05
1.03493e-05
1.00106e-05
9.67454e-06
9.34117e-06
9.01071e-06
8.6833e-06
8.3591e-06
8.03826e-06
7.72094e-06
7.40726e-06
7.09738e-06
6.79143e-06
6.48955e-06
6.19189e-06
5.89856e-06
5.60972e-06
5.32549e-06
5.04602e-06
4.77144e-06
4.50189e-06
4.23751e-06
3.97845e-06
3.72486e-06
3.47689e-06
3.23472e-06
2.9985e-06
2.76842e-06
2.54468e-06
2.32748e-06
2.11704e-06
1.91361e-06
1.71746e-06
1.52889e-06
1.34824e-06
1.1759e-06
1.01234e-06
8.58077e-07
7.13775e-07
5.80216e-07
4.58354e-07
3.49328e-07
2.54423e-07
1.74928e-07
1.11813e-07
6.52176e-08
3.3948e-08
1.53448e-08
5.80378e-09
1.73311e-09
3.67967e-10
4.48594e-11
1.91378e-12
8.33592e-15
1.33334e-05
1.29814e-05
1.26304e-05
1.22805e-05
1.19321e-05
1.15852e-05
1.12401e-05
1.0897e-05
1.0556e-05
1.02173e-05
9.88106e-06
9.54749e-06
9.21674e-06
8.88894e-06
8.56427e-06
8.24286e-06
7.92486e-06
7.61042e-06
7.29968e-06
6.99277e-06
6.68983e-06
6.39101e-06
6.09642e-06
5.8062e-06
5.52049e-06
5.23941e-06
4.9631e-06
4.6917e-06
4.42534e-06
4.16416e-06
3.90831e-06
3.65792e-06
3.41316e-06
3.17418e-06
2.94115e-06
2.71425e-06
2.49367e-06
2.27962e-06
2.0723e-06
1.87198e-06
1.6789e-06
1.49338e-06
1.31575e-06
1.14639e-06
9.85775e-07
8.34429e-07
6.93003e-07
5.62281e-07
4.43212e-07
3.3692e-07
2.44659e-07
1.67657e-07
1.06786e-07
6.20691e-08
3.22103e-08
1.45265e-08
5.48793e-09
1.639e-09
3.48546e-10
4.26524e-11
1.83455e-12
8.13336e-15
)
;

boundaryField
{
    inlet
    {
        type            cyclic;
    }
    outlet
    {
        type            cyclic;
    }
    wall
    {
        type            fixedValue;
        value           uniform 1e-30;
    }
    procBoundary2to0
    {
        type            processor;
        value           nonuniform List<scalar> 
30
(
3.94003e-06
3.67555e-06
3.41702e-06
3.16463e-06
2.91861e-06
2.67917e-06
2.44656e-06
2.22106e-06
2.00294e-06
1.79255e-06
1.59023e-06
1.3964e-06
1.21153e-06
1.03618e-06
8.71001e-07
7.16802e-07
5.74565e-07
4.455e-07
3.31069e-07
2.32923e-07
1.52673e-07
9.13567e-08
4.86768e-08
2.24023e-08
8.55898e-09
2.55718e-09
5.37209e-10
6.37968e-11
2.56981e-12
9.88165e-15
)
;
    }
    procBoundary2to1
    {
        type            processor;
        value           nonuniform List<scalar> 
39
(
4.1983e-06
4.18046e-06
4.15688e-06
4.12771e-06
4.09315e-06
4.32221e-06
4.05344e-06
4.05344e-06
1.41028e-05
1.37428e-05
1.33833e-05
1.30244e-05
1.26663e-05
1.23093e-05
1.19537e-05
1.15995e-05
1.1247e-05
1.08964e-05
1.05479e-05
1.02017e-05
9.85794e-06
9.51681e-06
9.17847e-06
8.8431e-06
8.51088e-06
8.18194e-06
7.85647e-06
7.53461e-06
7.21651e-06
6.90233e-06
6.59221e-06
6.28632e-06
5.98479e-06
5.68777e-06
5.39541e-06
5.10786e-06
4.82528e-06
4.54781e-06
4.54781e-06
)
;
    }
    procBoundary2to3
    {
        type            processor;
        value           nonuniform List<scalar> 
60
(
1.30105e-05
1.26493e-05
1.22892e-05
1.19304e-05
1.1573e-05
1.12173e-05
1.08635e-05
1.08635e-05
1.04695e-05
1.01208e-05
9.77456e-06
9.43099e-06
9.09026e-06
8.75253e-06
8.41797e-06
8.08675e-06
7.75904e-06
7.43498e-06
7.11475e-06
6.79849e-06
6.48637e-06
6.17853e-06
5.87514e-06
5.57635e-06
5.2823e-06
5.2823e-06
4.9601e-06
4.67733e-06
4.39981e-06
4.1277e-06
3.86117e-06
3.60041e-06
3.3456e-06
3.09694e-06
2.85464e-06
2.61893e-06
2.39005e-06
2.16826e-06
1.95385e-06
1.74713e-06
1.54847e-06
1.35828e-06
1.17702e-06
1.00524e-06
8.43604e-07
6.92909e-07
5.54135e-07
4.28485e-07
3.17395e-07
2.22467e-07
1.45212e-07
8.65149e-08
4.59094e-08
2.10599e-08
8.03059e-09
2.39863e-09
5.04723e-10
6.01956e-11
2.44779e-12
9.60822e-15
)
;
    }
    procBoundary2to5
    {
        type            processor;
        value           nonuniform List<scalar> 
28
(
1.45578e-05
1.4463e-05
1.43575e-05
1.42418e-05
1.41164e-05
1.39817e-05
1.38382e-05
1.36862e-05
1.42801e-05
1.41709e-05
1.41587e-05
1.41344e-05
1.4098e-05
1.40498e-05
1.39899e-05
1.39185e-05
1.39185e-05
1.37711e-05
1.37952e-05
1.38073e-05
1.38073e-05
1.33725e-05
1.43575e-05
1.42418e-05
1.41164e-05
1.39817e-05
1.38381e-05
1.36862e-05
)
;
    }
}


// ************************************************************************* //
