/*--------------------------------*- C++ -*----------------------------------*\
  =========                 |
  \\      /  F ield         | OpenFOAM: The Open Source CFD Toolbox
   \\    /   O peration     | Website:  https://openfoam.org
    \\  /    A nd           | Version:  7
     \\/     M anipulation  |
\*---------------------------------------------------------------------------*/
FoamFile
{
    version     2.0;
    format      ascii;
    class       volScalarField;
    location    "20000";
    object      omega;
}
// * * * * * * * * * * * * * * * * * * * * * * * * * * * * * * * * * * * * * //

dimensions      [0 0 -1 0 0 0 0];

internalField   nonuniform List<scalar> 
1762
(
0.087846
0.0886524
0.0895558
0.0905546
0.0916466
0.0928297
0.094102
0.0954652
0.0907457
0.0915784
0.0925116
0.0935433
0.0946716
0.0958941
0.0972093
0.0986189
0.0907357
0.0908444
0.0910619
0.0913878
0.0918219
0.0923637
0.0930126
0.0937678
0.0946283
0.0955925
0.0966588
0.0978251
0.0990891
0.100449
0.101907
0.0941235
0.0938988
0.0937864
0.0937864
0.0938988
0.0941235
0.0944602
0.0949088
0.0954687
0.0961394
0.0969201
0.0978095
0.0988065
0.0999091
0.101115
0.102423
0.10383
0.105339
0.0973188
0.0970866
0.0969704
0.0969704
0.0970866
0.0973188
0.097667
0.0981308
0.0987097
0.0994033
0.100211
0.101131
0.102162
0.103303
0.104551
0.105904
0.10736
0.108924
0.100656
0.100416
0.100296
0.100296
0.100416
0.100657
0.101017
0.101496
0.102095
0.102813
0.103648
0.1046
0.105668
0.106848
0.10814
0.109542
0.11105
0.11267
0.104146
0.103897
0.103773
0.103773
0.103897
0.104146
0.104519
0.105015
0.105635
0.106378
0.107243
0.108229
0.109334
0.110557
0.111895
0.113346
0.11491
0.116589
0.107797
0.107539
0.10741
0.10741
0.107539
0.107797
0.108183
0.108697
0.109339
0.110109
0.111005
0.112026
0.113171
0.114438
0.115825
0.11733
0.11895
0.120692
0.11162
0.111353
0.11122
0.11122
0.111353
0.11162
0.11202
0.112553
0.113219
0.114016
0.114945
0.116003
0.11719
0.118504
0.119942
0.121503
0.123184
0.124992
0.115628
0.115351
0.115213
0.115213
0.115351
0.115628
0.116043
0.116595
0.117286
0.118113
0.119076
0.120174
0.121405
0.122768
0.12426
0.125879
0.127624
0.129501
0.119833
0.119546
0.119402
0.119402
0.119546
0.119833
0.120263
0.120837
0.121553
0.122411
0.12341
0.12455
0.125828
0.127243
0.128792
0.130473
0.132286
0.134236
0.124696
0.124249
0.123951
0.123802
0.123802
0.123951
0.124249
0.124696
0.125292
0.126035
0.126926
0.127964
0.129147
0.130475
0.131944
0.133554
0.1353
0.137183
0.139211
0.129357
0.128892
0.128583
0.128428
0.128428
0.128583
0.128892
0.129357
0.129975
0.130748
0.131673
0.132752
0.133982
0.135361
0.136888
0.138561
0.140377
0.142335
0.144444
0.134261
0.133779
0.133457
0.133296
0.133296
0.133457
0.133779
0.134261
0.134904
0.135708
0.13667
0.137791
0.13907
0.140505
0.142093
0.143833
0.145722
0.147759
0.149955
0.139429
0.138927
0.138592
0.138424
0.138424
0.138592
0.138927
0.139429
0.140098
0.140933
0.141935
0.143102
0.144432
0.145925
0.147579
0.14939
0.151356
0.153477
0.155764
0.144879
0.144357
0.144008
0.143834
0.143834
0.144008
0.144357
0.144879
0.145576
0.146446
0.147489
0.148704
0.150089
0.151644
0.153366
0.155252
0.1573
0.15951
0.161894
0.150635
0.15009
0.149727
0.149545
0.149545
0.149727
0.15009
0.150635
0.151361
0.152267
0.153354
0.15462
0.156064
0.157684
0.159479
0.161445
0.16358
0.165884
0.16837
0.15672
0.156152
0.155774
0.155584
0.155584
0.155774
0.156152
0.15672
0.157477
0.158422
0.159556
0.160876
0.162382
0.164072
0.165944
0.167995
0.170222
0.172625
0.17522
0.163162
0.16257
0.162175
0.161977
0.161977
0.162175
0.16257
0.163162
0.163952
0.164939
0.166122
0.1675
0.169071
0.170835
0.172789
0.17493
0.177255
0.179765
0.182475
0.169991
0.169372
0.168959
0.168753
0.168753
0.168959
0.169372
0.169991
0.170816
0.171847
0.173082
0.174521
0.176163
0.178006
0.180047
0.182284
0.184713
0.187335
0.190169
0.17724
0.176593
0.176161
0.175945
0.175945
0.176161
0.176593
0.17724
0.178102
0.179179
0.180471
0.181976
0.183692
0.185619
0.187753
0.190092
0.192632
0.195374
0.198339
0.184945
0.184268
0.183816
0.18359
0.18359
0.183816
0.184268
0.184945
0.185847
0.186974
0.188326
0.1899
0.191697
0.193713
0.195946
0.198394
0.201053
0.203923
0.207026
0.193147
0.192438
0.191965
0.191729
0.191729
0.191965
0.192438
0.193147
0.194092
0.195273
0.196688
0.198337
0.200219
0.202331
0.204671
0.207235
0.210019
0.213026
0.216278
0.201893
0.20115
0.200654
0.200407
0.200407
0.200654
0.20115
0.201893
0.202884
0.204122
0.205605
0.207335
0.209307
0.211522
0.213975
0.216663
0.219583
0.222735
0.226146
0.211234
0.210454
0.209934
0.209674
0.209674
0.209934
0.210454
0.211234
0.212274
0.213572
0.21513
0.216944
0.219015
0.221339
0.223913
0.226734
0.229799
0.233107
0.236688
0.221227
0.220408
0.219862
0.219588
0.219588
0.219862
0.220408
0.221227
0.222319
0.223684
0.225319
0.227226
0.229401
0.231842
0.234547
0.237511
0.240731
0.244206
0.24797
0.231937
0.231076
0.230501
0.230214
0.230214
0.230501
0.231076
0.231937
0.233086
0.234521
0.236241
0.238246
0.240534
0.243101
0.245946
0.249063
0.25245
0.256105
0.260063
0.243438
0.242531
0.241926
0.241623
0.241623
0.241926
0.242531
0.243438
0.244647
0.246158
0.247969
0.25008
0.252489
0.255192
0.258188
0.26147
0.265035
0.268883
0.273051
0.257086
0.255812
0.254855
0.254218
0.253899
0.253899
0.254218
0.254855
0.255812
0.257086
0.258679
0.260588
0.262813
0.265352
0.268203
0.27136
0.27482
0.278578
0.282633
0.287027
0.270498
0.269153
0.268143
0.267471
0.267134
0.267134
0.267471
0.268144
0.269153
0.270498
0.272179
0.274194
0.276543
0.279223
0.282231
0.285563
0.289215
0.293181
0.29746
0.302097
0.28499
0.283568
0.282502
0.281791
0.281435
0.281435
0.281791
0.282502
0.283569
0.28499
0.286766
0.288896
0.291378
0.294211
0.29739
0.300911
0.30477
0.308961
0.313482
0.318381
0.300686
0.299182
0.298053
0.297301
0.296925
0.296925
0.297301
0.298053
0.299182
0.300686
0.302566
0.30482
0.307447
0.310444
0.313808
0.317535
0.321618
0.326052
0.330835
0.336016
0.317728
0.316134
0.314938
0.31414
0.313742
0.313742
0.31414
0.314938
0.316134
0.317728
0.31972
0.322109
0.324892
0.328068
0.331633
0.335582
0.339909
0.344607
0.349674
0.355162
0.336279
0.334587
0.333318
0.332471
0.332048
0.332048
0.332471
0.333318
0.334587
0.336279
0.338393
0.340928
0.343882
0.347253
0.351036
0.355227
0.359818
0.364802
0.370177
0.375998
0.356528
0.354729
0.35338
0.35248
0.35203
0.352031
0.35248
0.35338
0.354729
0.356528
0.358775
0.361469
0.364609
0.368192
0.372213
0.376667
0.381546
0.386842
0.392552
0.398733
0.378694
0.376779
0.375343
0.374385
0.373906
0.373906
0.374385
0.375343
0.376779
0.378694
0.381086
0.383955
0.387298
0.391112
0.395392
0.400133
0.405326
0.410963
0.417038
0.423612
0.403034
0.400992
0.39946
0.398438
0.397927
0.397927
0.398438
0.39946
0.400992
0.403034
0.405585
0.408644
0.412209
0.416276
0.42084
0.425894
0.431431
0.437439
0.443913
0.450915
0.429848
0.427666
0.426029
0.424938
0.424392
0.424392
0.424938
0.426029
0.427666
0.429847
0.432573
0.435841
0.439649
0.443993
0.448868
0.454266
0.460178
0.466593
0.473503
0.480974
0.45949
0.457155
0.455403
0.454235
0.453651
0.453651
0.454235
0.455403
0.457155
0.459489
0.462406
0.465904
0.469979
0.474627
0.479843
0.485619
0.491944
0.498804
0.506193
0.514176
0.492379
0.489876
0.487997
0.486744
0.486118
0.486118
0.486744
0.487997
0.489876
0.492379
0.495507
0.499257
0.503626
0.50861
0.514201
0.520392
0.52717
0.534521
0.542435
0.55098
0.529017
0.526327
0.524309
0.522963
0.522289
0.522289
0.522963
0.524308
0.526327
0.529017
0.532378
0.536407
0.5411
0.546453
0.552459
0.559107
0.566385
0.574277
0.58277
0.591932
0.570004
0.567107
0.564934
0.563484
0.56276
0.56276
0.563485
0.564934
0.567107
0.570004
0.573622
0.577959
0.583012
0.588774
0.595237
0.602392
0.610222
0.618711
0.627844
0.637688
0.616066
0.61294
0.610595
0.609031
0.608248
0.608248
0.609031
0.610595
0.61294
0.616066
0.61997
0.62465
0.630101
0.636317
0.643288
0.651004
0.659447
0.668598
0.678439
0.689037
0.668092
0.664711
0.662174
0.660482
0.659635
0.659635
0.660482
0.662173
0.664711
0.668092
0.672315
0.677376
0.683271
0.689992
0.69753
0.70587
0.714995
0.724884
0.735514
0.746951
0.72718
0.723513
0.720761
0.718925
0.718007
0.718007
0.718926
0.720761
0.723513
0.72718
0.73176
0.737249
0.743641
0.750928
0.759099
0.76814
0.778029
0.788744
0.800258
0.812634
0.794711
0.790721
0.787727
0.78573
0.784731
0.784731
0.78573
0.787727
0.790721
0.794711
0.799694
0.805665
0.812618
0.820544
0.829431
0.839262
0.850015
0.861664
0.874179
0.887617
0.872459
0.868101
0.86483
0.862649
0.861558
0.861558
0.862649
0.86483
0.868101
0.872459
0.877901
0.884422
0.892015
0.900672
0.910377
0.921113
0.932855
0.945575
0.959239
0.973898
0.962771
0.957987
0.954396
0.952001
0.950803
0.950803
0.952001
0.954396
0.957987
0.962771
0.968746
0.975907
0.984245
0.993751
1.00441
1.0162
1.0291
1.04308
1.05809
1.07419
1.06889
1.0636
1.05962
1.05697
1.05565
1.05565
1.05697
1.05962
1.0636
1.06889
1.0755
1.08342
1.09265
1.10317
1.11498
1.12804
1.14234
1.15783
1.17448
1.19233
1.19552
1.1896
1.18515
1.18219
1.18071
1.18071
1.18219
1.18515
1.1896
1.19552
1.20292
1.21179
1.22213
1.23392
1.24716
1.26182
1.27787
1.29528
1.31402
1.3341
1.34995
1.34321
1.33815
1.33478
1.33309
1.33309
1.33478
1.33815
1.34321
1.34995
1.35838
1.3685
1.38029
1.39376
1.40889
1.42566
1.44405
1.46403
1.48555
1.50863
1.54422
1.53633
1.53042
1.52648
1.52451
1.52451
1.52648
1.53042
1.53633
1.54422
1.55408
1.56593
1.57976
1.59556
1.61335
1.63309
1.65478
1.67838
1.70384
1.7312
1.79932
1.78974
1.78258
1.7778
1.77541
1.77541
1.7778
1.78257
1.78974
1.79932
1.8113
1.8257
1.84254
1.86181
1.88352
1.90767
1.93423
1.9632
1.99451
2.0282
2.15356
2.14139
2.13228
2.12621
2.12318
2.12318
2.12621
2.13228
2.14139
2.15356
2.16881
2.18716
2.20863
2.23324
2.26099
2.2919
2.32596
2.36315
2.40342
2.44678
2.67919
2.66288
2.65068
2.64255
2.6385
2.6385
2.64255
2.65068
2.66288
2.67919
2.69963
2.72424
2.75304
2.78608
2.82337
2.86493
2.91076
2.96082
3.01507
3.07353
3.51789
3.49486
3.47762
3.46614
3.46041
3.46041
3.46614
3.47762
3.49486
3.51789
3.54677
3.58153
3.62223
3.6689
3.72158
3.78029
3.84501
3.91572
3.99232
4.07484
4.96688
4.93249
4.90675
4.88962
4.88106
4.88106
4.88962
4.90675
4.93249
4.96688
5.00998
5.06184
5.12253
5.1921
5.27059
5.35801
5.45432
5.55947
5.67329
5.79581
7.72367
7.66875
7.62763
7.60026
7.58658
7.58658
7.60026
7.62763
7.66875
7.72367
7.79246
7.87521
7.97198
8.08284
8.20781
8.34689
8.50001
8.66699
8.84758
9.04179
13.7304
13.6337
13.5612
13.513
13.4888
13.4888
13.513
13.5612
13.6337
13.7304
13.8516
13.9972
14.1674
14.3622
14.5816
14.8256
15.0939
15.3862
15.702
16.0412
29.9558
29.7558
29.6059
29.5061
29.4562
29.4562
29.5061
29.6059
29.7558
29.9558
30.2061
30.5067
30.8577
31.2591
31.7108
32.2123
32.7632
33.3624
34.0088
34.702
93.6558
93.1099
92.7004
92.4275
92.291
92.291
92.4275
92.7004
93.1099
93.6558
94.3383
95.157
96.1117
97.2015
98.4255
99.7818
101.268
102.881
104.616
106.472
606.034
603.63
601.824
600.618
600.015
600.015
600.618
601.824
603.63
606.034
609.033
612.622
616.795
621.542
626.854
632.716
639.111
646.017
653.41
661.271
0.314938
0.333318
0.35338
0.375343
0.39946
0.426029
0.455403
0.487997
0.524309
0.564934
0.610595
0.662174
0.720761
0.787727
0.86483
0.954396
1.05962
1.18515
1.33815
1.53042
1.78258
2.13228
2.65068
3.47762
4.90675
7.62763
13.5612
29.6059
92.7004
601.824
0.316134
0.334587
0.354729
0.376779
0.400992
0.427666
0.457155
0.489876
0.526327
0.567107
0.61294
0.664711
0.723513
0.790721
0.868101
0.957987
1.0636
1.1896
1.34321
1.53633
1.78974
2.14139
2.66288
3.49486
4.93249
7.66875
13.6337
29.7558
93.1099
603.63
0.317728
0.336279
0.356528
0.378694
0.403034
0.429847
0.45949
0.492379
0.529017
0.570004
0.616066
0.668092
0.72718
0.794711
0.872459
0.962771
1.06889
1.19552
1.34995
1.54422
1.79932
2.15356
2.67919
3.51789
4.96688
7.72367
13.7304
29.9558
93.6558
606.034
0.31972
0.338393
0.358775
0.381086
0.405585
0.432573
0.462406
0.495507
0.532378
0.573622
0.61997
0.672315
0.73176
0.799694
0.877901
0.968746
1.0755
1.20292
1.35838
1.55408
1.8113
2.16881
2.69963
3.54677
5.00998
7.79246
13.8516
30.2061
94.3383
609.033
0.322109
0.340928
0.361469
0.383955
0.408644
0.435841
0.465904
0.499257
0.536406
0.577959
0.62465
0.677376
0.737249
0.805665
0.884422
0.975907
1.08342
1.21179
1.3685
1.56593
1.8257
2.18716
2.72424
3.58153
5.06184
7.8752
13.9972
30.5067
95.157
612.622
0.324892
0.343882
0.364609
0.387298
0.412209
0.439649
0.469979
0.503626
0.5411
0.583012
0.630101
0.683271
0.743641
0.812618
0.892016
0.984245
1.09265
1.22213
1.38029
1.57976
1.84254
2.20863
2.75304
3.62223
5.12253
7.97198
14.1674
30.8577
96.1117
616.795
0.29421
0.310444
0.328068
0.347253
0.368192
0.391111
0.416276
0.443993
0.474627
0.508609
0.546453
0.588774
0.636317
0.689992
0.750928
0.820544
0.900672
0.993751
1.10317
1.23392
1.39376
1.59556
1.86181
2.23324
2.78608
3.6689
5.1921
8.08283
14.3622
31.2591
97.2015
621.542
0.0895558
0.0925116
0.0955925
0.0988064
0.102162
0.105668
0.109334
0.113171
0.11719
0.121405
0.125828
0.130475
0.135361
0.140505
0.145925
0.151644
0.157684
0.164072
0.170835
0.178006
0.185619
0.193713
0.202331
0.211522
0.221339
0.231842
0.243101
0.255192
0.268203
0.282231
0.29739
0.313808
0.331633
0.351036
0.372213
0.395392
0.42084
0.448868
0.479843
0.514201
0.552459
0.595237
0.643288
0.69753
0.759099
0.829431
0.910377
1.00441
1.11498
1.24716
1.40889
1.61335
1.88352
2.26099
2.82337
3.72158
5.27059
8.20781
14.5816
31.7108
98.4255
626.854
0.0905546
0.0935433
0.0966588
0.099909
0.103302
0.106848
0.110557
0.114438
0.118504
0.122768
0.127243
0.131944
0.136888
0.142093
0.147579
0.153366
0.159479
0.165944
0.172789
0.180047
0.187753
0.195947
0.204671
0.213975
0.223913
0.234547
0.245946
0.258188
0.27136
0.285563
0.300911
0.317535
0.335582
0.355227
0.376667
0.400133
0.425895
0.454266
0.485619
0.520392
0.559107
0.602392
0.651004
0.70587
0.768139
0.839262
0.921112
1.0162
1.12804
1.26182
1.42566
1.63309
1.90767
2.2919
2.86493
3.78029
5.35801
8.3469
14.8256
32.2123
99.7818
632.716
0.0916466
0.0946715
0.0978251
0.101115
0.104551
0.10814
0.111895
0.115825
0.119942
0.12426
0.128792
0.133554
0.138561
0.143833
0.14939
0.155252
0.161445
0.167995
0.17493
0.182284
0.190092
0.198394
0.207235
0.216663
0.226734
0.237511
0.249064
0.26147
0.27482
0.289215
0.30477
0.321618
0.339909
0.359818
0.381546
0.405326
0.431431
0.460178
0.491944
0.52717
0.566385
0.610222
0.659447
0.714996
0.778029
0.850015
0.932855
1.0291
1.14234
1.27787
1.44405
1.65478
1.93423
2.32596
2.91076
3.84501
5.45432
8.50001
15.0939
32.7632
101.268
639.111
0.0928296
0.0958941
0.0990891
0.102423
0.105904
0.109542
0.113346
0.11733
0.121503
0.125879
0.130473
0.1353
0.140377
0.145722
0.151356
0.1573
0.16358
0.170222
0.177255
0.184713
0.192632
0.201053
0.210019
0.219583
0.229799
0.240731
0.25245
0.265035
0.278578
0.293181
0.308961
0.326052
0.344607
0.364803
0.386842
0.410963
0.437439
0.466593
0.498805
0.534521
0.574277
0.618711
0.668598
0.724884
0.788744
0.861664
0.945575
1.04308
1.15783
1.29528
1.46403
1.67838
1.9632
2.36315
2.96082
3.91572
5.55947
8.66699
15.3862
33.3624
102.881
646.017
0.094102
0.0972093
0.100449
0.10383
0.10736
0.11105
0.11491
0.11895
0.123184
0.127624
0.132286
0.137183
0.142335
0.147759
0.153477
0.15951
0.165884
0.172625
0.179765
0.187335
0.195374
0.203923
0.213026
0.222735
0.233107
0.244206
0.256104
0.268883
0.282633
0.29746
0.313482
0.330835
0.349674
0.370177
0.392552
0.417038
0.443913
0.473503
0.506193
0.542435
0.58277
0.627844
0.678439
0.735514
0.800258
0.874179
0.959239
1.05809
1.17448
1.31402
1.48555
1.70384
1.99451
2.40342
3.01507
3.99232
5.67329
8.84758
15.702
34.0088
104.616
653.41
0.0954652
0.0986189
0.101907
0.105339
0.108924
0.11267
0.116589
0.120692
0.124992
0.129501
0.134236
0.139211
0.144444
0.149955
0.155764
0.161894
0.16837
0.17522
0.182475
0.190169
0.198339
0.207026
0.216278
0.226146
0.236688
0.24797
0.260063
0.273051
0.287027
0.302097
0.318381
0.336016
0.355162
0.375997
0.398733
0.423612
0.450915
0.480974
0.514175
0.55098
0.591932
0.637688
0.689037
0.746951
0.812634
0.887617
0.973898
1.07419
1.19233
1.3341
1.50863
1.7312
2.0282
2.44678
3.07353
4.07484
5.79581
9.04179
16.0412
34.702
106.472
661.271
)
;

boundaryField
{
    inlet
    {
        type            cyclic;
    }
    outlet
    {
        type            cyclic;
    }
    wall
    {
        type            fixedValue;
        value           uniform 10000;
    }
    procBoundary2to0
    {
        type            processor;
        value           nonuniform List<scalar> 
30
(
0.314141
0.332471
0.35248
0.374385
0.398438
0.424938
0.454235
0.486744
0.522963
0.563485
0.609031
0.660482
0.718926
0.78573
0.862649
0.952001
1.05697
1.18219
1.33478
1.52648
1.7778
2.12621
2.64255
3.46614
4.88962
7.60026
13.513
29.5061
92.4275
600.618
)
;
    }
    procBoundary2to1
    {
        type            processor;
        value           nonuniform List<scalar> 
39
(
0.298053
0.299182
0.300686
0.302566
0.30482
0.291378
0.307446
0.307446
0.0886524
0.0915784
0.0946283
0.0978095
0.101131
0.1046
0.108229
0.112026
0.116003
0.120174
0.12455
0.129147
0.133982
0.13907
0.144432
0.150089
0.156064
0.162382
0.169071
0.176163
0.183692
0.191697
0.200219
0.209307
0.219015
0.229401
0.240534
0.252489
0.265352
0.279222
0.279222
)
;
    }
    procBoundary2to3
    {
        type            processor;
        value           nonuniform List<scalar> 
60
(
0.097667
0.101017
0.104519
0.108183
0.11202
0.116043
0.120263
0.120263
0.125292
0.129975
0.134904
0.140098
0.145576
0.151361
0.157477
0.163952
0.170816
0.178102
0.185847
0.194092
0.202884
0.212274
0.222319
0.233086
0.244647
0.244647
0.258679
0.272179
0.286766
0.302566
0.31972
0.338393
0.358775
0.381086
0.405585
0.432573
0.462407
0.495507
0.532378
0.573622
0.61997
0.672315
0.73176
0.799694
0.877901
0.968746
1.0755
1.20292
1.35838
1.55408
1.8113
2.16881
2.69963
3.54677
5.00998
7.79246
13.8516
30.2061
94.3383
609.033
)
;
    }
    procBoundary2to5
    {
        type            processor;
        value           nonuniform List<scalar> 
28
(
0.0850618
0.085843
0.0867181
0.0876853
0.0887428
0.0898882
0.0911197
0.0924386
0.0871381
0.0878102
0.0879155
0.0881261
0.0884416
0.0888619
0.0893864
0.0900147
0.0900147
0.0910619
0.0908444
0.0907357
0.0907357
0.0944603
0.0867181
0.0876853
0.0887428
0.0898881
0.0911196
0.0924386
)
;
    }
}


// ************************************************************************* //
