/*--------------------------------*- C++ -*----------------------------------*\
  =========                 |
  \\      /  F ield         | OpenFOAM: The Open Source CFD Toolbox
   \\    /   O peration     | Website:  https://openfoam.org
    \\  /    A nd           | Version:  7
     \\/     M anipulation  |
\*---------------------------------------------------------------------------*/
FoamFile
{
    version     2.0;
    format      ascii;
    class       surfaceScalarField;
    location    "152000";
    object      phi;
}
// * * * * * * * * * * * * * * * * * * * * * * * * * * * * * * * * * * * * * //

dimensions      [0 3 -1 0 0 0 0];

internalField   nonuniform List<scalar> 
9444
(
-5.66921e-23
-3.1528e-23
5.93986e-23
5.37454e-24
-4.86793e-23
-2.00945e-23
8.4001e-24
-2.14296e-23
-3.45821e-23
1.02217e-23
-6.08167e-23
-3.99691e-23
1.33821e-23
-3.68923e-23
-2.88494e-23
4.57659e-24
-7.52532e-23
-2.25409e-23
-1.17291e-23
-6.02621e-23
-1.52136e-23
-3.65304e-24
-5.63244e-23
-2.82875e-24
3.26747e-24
4.72801e-24
6.86708e-24
9.15e-24
-4.98543e-23
-1.60345e-23
2.46212e-24
-5.62371e-23
-1.43041e-23
2.76119e-23
-5.96215e-23
-4.7585e-24
1.30126e-23
-5.20443e-23
1.5634e-24
4.05347e-24
-5.43105e-23
7.77145e-24
1.1843e-23
-3.0182e-23
2.08543e-23
2.91009e-23
1.63974e-23
2.27563e-23
-3.04721e-24
-3.0581e-23
1.05619e-23
-4.02898e-23
-3.80911e-23
-9.34841e-24
-5.20925e-23
1.18846e-23
6.8442e-25
-5.29085e-23
3.01813e-24
4.92539e-24
-6.6263e-23
-2.46757e-23
2.45326e-23
-6.89394e-23
5.26052e-23
-5.54116e-23
-5.42904e-23
-5.409e-23
7.47346e-23
-8.62606e-23
-4.81263e-23
-3.38781e-23
-2.05529e-23
-4.51667e-23
-2.80632e-23
-3.04812e-23
-4.2498e-23
-7.70941e-23
-4.20687e-23
-5.89595e-23
-3.1444e-23
-4.46682e-23
-1.18523e-23
-3.73054e-23
2.73892e-25
-4.27351e-23
-1.1997e-24
-3.97876e-23
-1.09731e-23
-3.87176e-23
-9.19996e-24
-4.29482e-23
1.32632e-23
-3.9305e-23
1.0777e-23
-2.76728e-23
1.30217e-23
-5.73041e-24
4.95202e-24
-6.87844e-23
6.70019e-24
-3.15518e-23
2.8453e-23
1.11838e-23
3.50258e-23
3.93186e-23
4.93922e-23
2.40922e-23
4.61084e-23
4.71448e-23
-5.12464e-23
3.49649e-24
1.11313e-22
-4.41651e-23
4.12182e-24
-4.21445e-23
-1.9073e-23
-4.98674e-23
-1.64518e-23
-2.90589e-23
5.30403e-24
-4.27723e-23
-2.98111e-23
-4.07709e-23
-2.52983e-23
-2.73657e-23
-3.24641e-23
-4.72277e-23
-4.61387e-23
-6.58467e-23
-5.31892e-23
-4.82187e-23
-2.32318e-23
-3.67602e-25
1.19809e-23
-4.75644e-23
-9.12839e-24
-5.14122e-23
1.44395e-23
-5.04084e-23
1.76396e-23
-1.06427e-23
3.36245e-23
-2.92492e-23
3.36477e-23
-3.0384e-23
4.09079e-23
2.97139e-23
4.95765e-23
3.21212e-23
5.79868e-23
3.19299e-23
5.80726e-23
5.03533e-23
-5.80068e-23
-9.64337e-24
6.46319e-23
-5.15496e-23
-4.2594e-24
-3.374e-23
3.47201e-23
-4.17463e-24
2.42632e-23
-6.23458e-23
-5.6858e-24
-2.90963e-23
4.62845e-24
-4.37588e-23
-1.08801e-23
-5.37113e-23
-2.50823e-23
-6.15333e-23
-4.31663e-23
-3.60918e-23
-7.42492e-24
2.77634e-24
5.2116e-24
-3.94992e-23
-1.73321e-23
-2.96619e-23
-2.23067e-23
-5.10922e-23
-3.58764e-23
-3.52087e-23
4.27152e-24
-1.22129e-23
1.92698e-23
-1.85882e-23
4.61989e-23
-2.0573e-23
4.96804e-23
3.94286e-23
6.5362e-23
3.37373e-23
5.80195e-23
2.39377e-23
7.29043e-23
5.53912e-23
-5.22513e-23
1.33304e-25
4.49949e-23
-4.39148e-24
1.48768e-23
-3.67238e-23
-3.37887e-26
-2.01107e-23
7.70583e-24
-4.092e-23
1.79068e-23
-3.7478e-23
3.70954e-25
-4.81677e-23
-8.37574e-24
-7.40477e-23
-5.38343e-24
-1.12279e-23
1.54333e-23
-1.7733e-23
-3.03288e-24
-1.86003e-23
2.69047e-24
-4.07857e-23
-6.70572e-25
-5.22146e-23
-1.38239e-23
-5.84035e-24
-1.01093e-23
-2.42815e-23
1.63206e-23
2.82052e-23
4.32606e-23
-1.70763e-23
2.25247e-23
-1.05981e-24
3.38573e-23
1.76124e-23
5.17889e-23
5.18925e-23
3.28663e-23
-2.32864e-24
2.76898e-24
5.3946e-24
-3.84883e-23
2.86829e-25
4.09056e-23
-2.93447e-23
9.34451e-24
-4.28463e-23
7.62679e-24
-2.59262e-23
-1.28423e-23
-5.98519e-23
-1.44033e-23
-6.1031e-23
-5.18997e-24
-4.48446e-23
-2.42125e-23
-4.47959e-23
-1.08726e-23
-4.57375e-23
9.20634e-24
-5.7214e-24
1.95964e-23
-2.50914e-23
1.47845e-23
-3.76832e-23
1.02261e-23
-4.87442e-23
3.00672e-24
3.53916e-23
3.15683e-23
1.11626e-23
4.84175e-23
1.15639e-23
4.81311e-23
-4.49956e-24
3.34324e-23
1.18131e-23
1.87141e-23
-7.96198e-24
4.72846e-24
2.03694e-23
1.73292e-23
-1.48477e-24
2.6677e-23
2.75732e-23
-8.39542e-24
2.97485e-23
4.0739e-23
-3.40131e-23
2.72783e-23
-5.21462e-23
1.93754e-23
-3.1179e-23
3.30734e-23
-4.35909e-23
-1.84114e-24
-8.38944e-23
-3.08578e-23
-3.84954e-23
2.97853e-24
-2.06564e-23
-2.98787e-23
-3.74496e-23
-4.70079e-23
-1.18546e-23
-1.5639e-23
-1.81732e-23
1.55129e-23
-4.74344e-23
3.45652e-23
-1.68553e-23
4.76617e-23
5.54059e-23
8.57117e-23
1.80094e-23
7.82679e-23
-1.18298e-23
6.81874e-23
-1.09112e-23
3.15388e-23
-1.0897e-23
2.9042e-23
-2.61728e-24
1.24635e-23
2.38823e-23
1.65267e-24
5.73609e-24
-1.75124e-23
-7.41797e-24
-6.75113e-24
1.90795e-23
-3.74133e-25
-3.17925e-23
3.03919e-23
-4.01809e-23
2.14027e-23
-6.24117e-23
-7.80029e-24
-5.74661e-23
-3.75465e-24
-4.37182e-23
3.2695e-23
-7.00663e-23
3.44357e-23
-3.97829e-23
6.1729e-23
-1.28437e-23
5.1081e-23
3.87581e-24
3.67728e-23
8.85883e-24
7.46176e-24
-3.25341e-23
1.62415e-23
8.63291e-24
7.55134e-23
2.84422e-23
6.1617e-23
1.9814e-23
1.59298e-23
-5.25418e-23
1.59619e-23
-1.10213e-23
5.77489e-23
-3.10932e-23
5.65598e-23
-9.69491e-24
6.57934e-23
9.55259e-24
5.38069e-23
1.88447e-23
4.39296e-23
5.13766e-23
-4.42981e-26
4.27388e-24
-2.14325e-23
-4.44694e-23
6.20633e-25
-5.55477e-23
-3.43434e-23
-6.81784e-23
3.13593e-24
-2.62796e-23
2.11577e-23
-5.01243e-23
-7.55905e-24
-4.59757e-23
-3.44759e-23
-5.08943e-23
-7.47927e-24
-1.26023e-23
1.57245e-23
-2.54363e-23
-1.80463e-23
3.85815e-24
-1.31361e-23
1.25744e-23
1.30408e-23
-1.43369e-23
3.38932e-23
-9.58569e-24
5.20648e-23
1.957e-23
6.04085e-23
-1.16011e-23
5.57702e-23
-1.13954e-23
6.74778e-23
-1.45339e-23
6.02842e-23
-1.95083e-23
7.11201e-23
2.07864e-24
9.8976e-23
2.84663e-23
8.46067e-23
7.18156e-23
2.46621e-26
-9.84425e-24
4.40651e-24
-7.56002e-23
-4.40208e-23
-4.42049e-23
-5.32996e-24
-6.12194e-23
-8.51012e-25
-4.94118e-23
1.4577e-24
-9.15854e-23
-3.29049e-23
-2.9694e-23
-2.51531e-23
-4.09032e-23
1.4413e-24
-4.10786e-23
1.43835e-23
-2.97128e-23
3.99332e-23
2.56053e-23
5.97308e-23
3.95038e-23
7.45961e-23
5.94721e-24
6.17996e-23
4.87265e-25
5.70071e-23
2.53318e-23
4.47174e-23
8.41454e-24
7.78016e-23
-1.69541e-23
9.49286e-23
-1.11314e-23
6.23607e-23
2.95808e-24
5.78233e-23
-1.16679e-23
5.04071e-23
2.49059e-23
5.71577e-23
9.3169e-23
-2.50967e-23
8.63326e-26
1.87408e-23
-4.46567e-23
-2.7524e-23
-4.73768e-23
-1.79751e-23
-4.62649e-23
-1.36584e-23
-6.66767e-23
1.48815e-23
-7.66918e-23
4.8111e-23
-2.5829e-23
5.61248e-23
-3.18959e-23
9.77276e-24
-2.43104e-23
1.51216e-23
-1.30621e-23
4.36005e-23
4.12096e-23
7.52339e-23
3.76701e-23
7.90665e-23
7.52088e-24
9.55941e-23
-1.0388e-23
7.55227e-23
4.24841e-23
6.2384e-23
2.62581e-23
2.35373e-23
-4.68189e-23
4.28161e-23
-1.27223e-23
3.52646e-23
-8.81542e-26
5.12889e-23
-1.0862e-23
6.60644e-23
4.57962e-23
7.1558e-23
7.18925e-23
-3.76538e-23
-2.39386e-23
-5.0603e-24
-3.11976e-23
2.27619e-23
-4.57617e-23
-1.28699e-23
-3.11367e-23
-3.87616e-23
-5.081e-23
-4.0547e-23
-7.15591e-23
-4.85309e-23
-5.07334e-23
-3.17984e-23
-2.40871e-23
-1.21247e-23
-1.65751e-23
1.25562e-23
1.12825e-23
2.70969e-23
3.78792e-23
5.2548e-23
5.0021e-23
6.48351e-23
-5.93854e-24
3.13902e-23
-1.84769e-23
1.91969e-23
8.28613e-24
4.63816e-23
4.39888e-23
5.81547e-23
-5.46569e-23
1.38833e-23
-5.87588e-24
5.50452e-23
8.93976e-24
1.03324e-22
-2.50056e-24
8.10418e-23
4.29409e-23
9.5737e-23
7.17297e-23
-3.53254e-24
1.29004e-23
2.64943e-23
-3.92182e-23
-1.56693e-23
-6.47603e-23
5.27155e-24
-2.47925e-23
4.03838e-23
-6.64882e-23
-3.92022e-24
-6.23077e-23
-4.9775e-23
-6.73129e-23
-2.30247e-23
-1.34306e-23
6.32818e-24
-5.23538e-24
8.4464e-24
1.12077e-23
1.95763e-23
3.7418e-23
3.4473e-23
2.27978e-23
1.21827e-23
-1.40013e-23
3.08924e-24
-7.17441e-24
1.23355e-23
1.2314e-23
3.38607e-23
2.01186e-23
5.5207e-23
-2.52688e-23
6.30031e-23
2.58332e-23
6.99263e-23
-2.65971e-24
6.07173e-23
1.06149e-23
7.56715e-23
2.40324e-23
9.29114e-23
1.03208e-22
-1.78625e-23
9.01213e-24
1.49344e-23
-3.35453e-23
-1.14197e-23
-5.33611e-23
-4.61833e-23
-5.41497e-23
-2.65452e-23
-8.63607e-23
-4.35287e-23
-4.83559e-23
-2.13586e-23
-4.2716e-23
-2.09462e-23
-9.26861e-24
3.6204e-23
-6.89541e-24
7.20895e-23
1.50643e-23
6.57041e-23
2.16856e-23
4.01045e-23
1.93555e-23
2.22248e-23
-7.21773e-24
-3.41584e-23
4.23239e-24
1.27043e-23
3.04477e-23
7.48468e-23
1.68226e-23
6.63612e-23
-1.08607e-23
2.3319e-23
1.99334e-23
4.71255e-23
9.13362e-24
6.84901e-23
1.35366e-23
6.60589e-23
3.31221e-23
-2.96108e-23
-2.59632e-23
-2.76594e-24
-3.82282e-23
-1.63827e-23
-4.74933e-23
2.61052e-23
-6.92974e-23
-1.13102e-23
-7.18005e-23
-3.77276e-23
-5.72789e-23
-2.95374e-23
-1.15211e-23
5.04642e-26
7.42589e-24
1.85599e-23
2.34018e-25
1.50679e-23
4.67977e-24
7.27612e-23
1.04071e-23
1.02427e-22
-3.6938e-24
4.51616e-23
1.4547e-23
1.80927e-23
4.16366e-23
5.85749e-23
3.4515e-23
8.71644e-23
5.7008e-24
9.34738e-23
-8.5751e-25
9.56502e-23
2.87145e-23
8.87035e-23
8.01542e-24
9.07836e-23
-2.61259e-23
-1.77172e-23
1.62094e-23
-2.51246e-23
-2.48965e-23
-6.13732e-23
-5.82764e-23
-7.15396e-23
-5.65145e-24
-6.31699e-23
1.30999e-23
-3.76497e-23
6.45969e-23
-2.72089e-24
8.62236e-23
-5.50661e-24
2.92333e-23
1.87199e-23
5.88302e-23
1.71531e-23
7.76387e-23
-6.07932e-24
5.59632e-23
-1.27687e-23
6.40874e-23
3.74163e-23
9.21414e-23
5.71919e-23
1.12976e-22
3.96225e-23
1.09661e-22
9.39646e-24
5.46212e-23
-1.21716e-23
5.29751e-23
3.43764e-23
-2.83189e-23
-1.50757e-23
2.70817e-23
-3.4656e-23
-2.52266e-23
-2.48455e-23
-2.4982e-23
-6.66786e-23
-9.57834e-24
-2.66099e-23
3.07615e-23
-1.85093e-23
6.17476e-23
-2.4484e-23
9.61978e-23
1.25887e-23
5.47403e-23
3.62309e-23
1.03498e-22
2.0997e-23
9.83135e-23
6.7463e-24
1.34617e-22
-2.03718e-24
1.4119e-22
4.31218e-23
1.16013e-22
5.74131e-23
1.06518e-22
1.77764e-23
1.04175e-23
-2.44547e-23
-9.29031e-24
2.2532e-23
-4.08042e-23
-9.84821e-24
-1.8115e-23
-3.09948e-24
-4.14444e-23
-3.10956e-23
-2.72159e-23
2.46583e-23
-6.33993e-24
4.08488e-23
-5.74874e-23
2.63721e-23
3.59119e-23
7.94465e-23
2.63262e-23
4.69993e-23
3.81327e-23
8.45158e-23
1.0347e-23
9.00351e-23
-7.47044e-24
9.46483e-23
4.31631e-23
-2.32586e-23
1.41652e-23
2.50211e-23
-1.72951e-23
-1.03126e-23
-3.44302e-23
1.497e-23
-1.12944e-23
3.71104e-23
-1.69687e-23
3.40276e-23
-1.87033e-23
4.93664e-23
-2.22003e-23
3.22413e-23
1.09739e-24
6.41284e-23
4.42802e-23
5.31386e-23
4.03782e-23
8.63651e-23
6.59775e-24
-2.79348e-23
1.74157e-23
2.70693e-23
-1.44217e-23
1.82364e-23
-2.01648e-23
2.43591e-23
-8.29944e-24
3.11665e-23
-1.64097e-23
4.54263e-23
-2.62258e-23
6.0099e-23
-1.13243e-23
6.15553e-23
-6.51954e-24
6.36212e-23
5.98633e-23
9.17372e-23
-2.97212e-23
2.08076e-23
2.39577e-23
-8.41223e-24
3.46499e-23
-1.64302e-23
7.46579e-24
-1.05203e-23
2.41807e-23
-5.67649e-24
3.72168e-23
-2.38621e-23
7.77346e-23
-1.88479e-24
1.30139e-22
2.16738e-24
1.58213e-22
-2.94494e-23
-1.97487e-24
7.74799e-24
-1.79783e-23
2.56922e-23
-1.55811e-23
8.80944e-24
4.74902e-24
4.46995e-23
3.73917e-24
3.74973e-23
-5.96227e-25
4.59831e-23
2.97582e-24
1.30364e-22
-2.15606e-23
1.24894e-23
1.15253e-23
-1.97246e-23
1.90059e-23
-8.78795e-24
3.9722e-24
-3.0255e-24
3.82813e-23
1.18241e-23
4.14345e-23
2.30779e-23
3.39679e-23
-2.04788e-23
3.38802e-23
9.62294e-24
-2.19383e-23
2.50937e-23
-4.43488e-25
2.58502e-23
-3.50079e-24
3.93288e-23
2.0803e-23
4.68363e-23
3.10976e-23
-3.17146e-23
-4.97539e-23
-5.17964e-24
-1.82613e-23
1.75422e-23
-8.57123e-24
5.21534e-23
7.41043e-24
4.62984e-23
1.06257e-23
3.87045e-23
-2.19887e-23
6.997e-24
1.97554e-23
-5.03241e-24
1.17539e-23
-1.41882e-23
5.85923e-23
2.40203e-24
5.86931e-23
-1.16425e-23
3.92724e-23
2.75802e-23
-3.70043e-25
4.79444e-23
-1.00829e-23
2.17826e-23
3.84655e-23
-1.09071e-23
9.48343e-24
2.04056e-23
-8.392e-24
1.51375e-23
-4.57329e-24
1.65263e-23
-5.30899e-24
7.89036e-24
1.18642e-23
-5.18127e-24
2.43795e-23
1.63268e-23
-5.30903e-24
8.79869e-24
7.59895e-24
-1.96446e-24
2.6271e-23
8.51524e-24
-4.78038e-24
1.15941e-23
5.84438e-24
-4.84965e-24
2.76057e-23
-7.73424e-25
2.07815e-24
2.58554e-24
9.11402e-24
-6.56409e-24
4.05314e-23
3.32068e-23
7.84869e-24
2.0766e-23
1.12593e-23
-4.66839e-24
-3.3823e-23
2.90677e-23
7.89418e-25
2.49084e-23
1.62676e-24
2.65184e-24
8.54696e-24
2.59306e-23
4.77068e-24
2.98672e-23
-3.13694e-24
5.03702e-24
-1.48743e-23
2.06807e-23
-9.03064e-25
4.43807e-23
-6.83846e-24
2.47756e-24
-1.08794e-23
4.82412e-24
-4.69145e-25
3.09106e-23
-1.29884e-23
4.00373e-24
-1.10345e-23
2.76201e-23
-7.93592e-24
3.20257e-23
-2.27813e-23
9.40301e-24
2.23093e-23
1.60496e-23
-6.85308e-24
-1.14312e-23
-2.24987e-23
3.099e-24
2.19287e-23
1.38426e-23
-1.31411e-24
1.18606e-23
-8.84303e-24
3.55796e-24
2.59346e-23
4.93414e-23
-5.6967e-24
3.33729e-23
-5.69328e-24
4.13893e-24
3.46856e-23
1.35724e-24
-4.93262e-24
-1.07211e-23
1.69729e-24
3.12608e-23
1.50952e-23
-5.15807e-23
6.447e-23
5.09549e-23
4.46807e-23
6.70822e-23
4.61142e-23
5.84367e-23
4.2176e-23
4.62813e-23
4.10137e-23
3.28072e-23
6.64392e-24
5.50925e-24
-2.67886e-24
2.94084e-24
2.92377e-23
5.71432e-26
2.88822e-23
-4.24575e-24
1.28256e-23
2.28574e-23
3.34497e-23
3.31209e-23
1.74656e-23
1.33412e-23
9.50475e-24
2.29673e-23
3.45755e-23
3.23705e-23
2.3616e-23
2.77065e-23
2.23545e-23
3.12516e-23
1.7793e-23
3.15239e-23
4.57362e-23
4.03058e-23
3.61906e-23
3.90905e-23
2.34306e-23
3.84979e-23
3.3487e-23
3.54201e-23
2.40451e-23
2.55535e-23
1.29164e-23
2.37472e-23
7.76253e-23
3.00747e-23
3.73232e-23
2.12152e-23
2.06945e-23
8.53368e-24
3.95364e-24
1.40946e-24
1.17217e-23
-8.63928e-25
1.3022e-23
1.13607e-24
1.07142e-23
6.52196e-25
2.74815e-23
-6.98842e-24
-3.36793e-23
-1.29062e-23
-2.55129e-23
1.86336e-24
-4.3545e-23
-1.48482e-24
-3.86363e-23
7.34092e-24
-2.09467e-24
6.46594e-24
6.15217e-24
1.87351e-23
3.01175e-23
1.12074e-23
2.87561e-23
5.44746e-24
2.65092e-23
8.57625e-24
1.04841e-23
4.19198e-23
2.36524e-23
-4.39901e-23
6.95026e-23
7.33163e-23
2.91997e-23
3.72811e-23
3.32218e-23
5.17983e-23
1.89459e-23
-1.96487e-24
3.37285e-23
2.32532e-23
9.22488e-24
2.38057e-23
-7.39383e-24
1.53635e-23
2.64899e-23
3.35397e-23
6.56729e-23
7.16326e-23
4.02373e-23
4.46039e-23
9.32454e-24
3.56052e-23
3.80029e-23
3.60231e-23
2.38143e-23
2.8861e-23
2.0086e-23
3.49135e-23
2.91273e-23
2.46285e-23
3.69843e-23
3.51363e-23
3.87949e-23
3.96042e-23
5.57618e-23
2.67625e-23
3.60059e-23
2.75618e-23
1.24437e-23
2.29069e-23
2.17949e-23
2.6737e-23
1.6389e-23
2.81319e-23
8.28661e-24
2.85243e-23
9.78653e-24
2.34176e-23
2.53363e-23
1.52529e-23
-1.14454e-23
5.81243e-24
1.48321e-23
1.11215e-23
7.3999e-24
8.24333e-24
9.74983e-25
5.98472e-24
-1.7448e-24
8.43568e-24
-8.71254e-24
8.22421e-24
6.88684e-23
5.43668e-24
1.80611e-24
-5.39873e-24
1.79801e-23
-5.32069e-24
1.27015e-23
-1.61015e-24
3.17125e-23
1.62389e-24
-2.11936e-23
-4.82688e-24
-2.81774e-24
3.45679e-24
5.2793e-24
1.03583e-23
4.81345e-23
1.35604e-23
1.52224e-23
6.06004e-23
1.03219e-24
-4.03503e-23
4.37191e-23
1.63293e-23
5.65344e-23
2.86945e-23
-1.2707e-23
5.01166e-24
3.33384e-23
2.44604e-23
3.22545e-23
2.7138e-23
1.90149e-23
3.68493e-23
1.21916e-23
1.63881e-23
7.14283e-23
3.78703e-23
3.55126e-23
3.3907e-23
4.29553e-23
3.57223e-23
3.24949e-23
4.28493e-23
1.26629e-23
5.31412e-23
5.92954e-23
4.20689e-23
-1.90219e-23
4.24567e-23
6.09988e-23
6.27727e-23
2.85234e-23
3.39786e-23
5.24836e-23
3.69538e-23
3.61202e-23
4.71185e-23
3.61419e-23
3.03278e-23
2.79436e-23
2.24254e-23
2.60065e-23
2.27752e-23
2.49483e-23
1.55255e-23
6.92452e-24
6.23483e-24
-1.93129e-23
8.25412e-24
-2.52351e-23
1.33654e-23
6.72974e-24
8.81057e-24
1.58796e-23
1.5001e-24
2.23299e-23
5.48242e-24
2.25489e-23
4.09565e-24
2.14207e-23
6.6422e-24
-8.86027e-24
4.29624e-24
-7.37557e-24
1.46315e-25
-5.89656e-25
-6.54124e-24
1.06859e-23
-9.54603e-24
3.11159e-23
-1.63066e-23
1.13115e-23
-1.66803e-23
2.16062e-23
-1.64231e-23
3.43402e-23
-4.69987e-24
1.18383e-23
-2.91916e-24
7.47495e-23
-5.41503e-24
-5.7406e-24
6.65274e-23
4.21278e-23
-4.10456e-23
5.19939e-23
3.05722e-23
4.64696e-23
3.91433e-23
4.06053e-24
-9.72087e-24
2.77219e-23
5.77148e-24
4.42856e-23
6.42216e-24
7.79033e-25
5.69534e-24
4.93064e-23
3.23892e-23
4.12251e-23
4.74838e-23
3.21047e-23
3.74254e-23
3.64617e-23
2.54626e-23
6.34474e-23
1.53171e-23
-1.527e-23
1.32587e-23
5.13288e-23
4.59333e-23
3.23263e-23
6.42468e-23
2.3477e-23
7.1098e-23
3.02556e-23
6.96317e-23
6.02555e-23
4.50567e-23
5.72632e-25
1.68621e-23
1.59577e-23
1.54021e-23
1.63073e-23
1.69612e-23
-8.89298e-24
1.85922e-24
-1.5916e-23
1.00699e-23
-2.94229e-23
8.14942e-24
-1.97722e-23
-6.99981e-24
-3.28319e-23
-1.41937e-23
-1.87615e-23
-2.47171e-24
2.209e-23
4.2632e-24
-5.51539e-24
-4.47283e-24
4.53917e-24
-1.81355e-24
1.96525e-23
-4.47451e-24
-4.44352e-23
-2.52533e-24
-6.26865e-23
-1.06714e-23
-4.8189e-23
-9.17805e-24
-3.43398e-23
-3.878e-24
-1.05512e-23
3.25093e-24
1.3234e-23
1.56383e-24
7.38246e-23
1.17495e-23
6.2598e-23
8.8087e-24
5.19635e-23
7.61486e-24
8.04436e-24
3.16603e-24
5.29853e-24
5.59785e-23
1.68432e-23
-2.95526e-23
6.70662e-23
1.26082e-23
2.01878e-23
2.10393e-23
3.18657e-23
5.3329e-23
1.29094e-23
3.25926e-23
4.18203e-23
4.27239e-23
3.79567e-23
9.34704e-24
4.56019e-23
3.04792e-23
2.20884e-23
1.58934e-24
3.73123e-23
2.20815e-23
1.71974e-23
3.73872e-23
6.53881e-23
2.44025e-23
2.56307e-23
4.47231e-23
7.09315e-23
7.21928e-23
6.59235e-23
6.22579e-23
9.26183e-24
5.47719e-23
-1.28827e-23
2.05722e-23
2.70098e-24
2.52581e-23
1.06988e-24
1.56267e-23
-4.45002e-24
1.75539e-23
-7.55517e-26
8.1621e-24
-4.47051e-24
-2.7774e-24
-3.01581e-23
-1.17412e-23
-5.25953e-23
-1.92694e-23
-6.07367e-23
-4.13894e-24
1.74975e-24
-1.12422e-24
-2.65896e-23
-1.37523e-23
-8.16978e-24
-1.70836e-23
4.07161e-25
-1.73463e-23
-1.43272e-23
-2.13112e-23
1.66223e-24
-1.75062e-23
-6.16882e-23
-1.81039e-23
-4.74481e-23
-1.02948e-23
3.5593e-24
-4.29528e-24
5.51142e-24
3.04593e-25
4.2278e-23
5.89355e-24
3.52639e-23
5.85421e-24
5.71206e-23
4.28706e-24
5.93876e-23
5.05229e-25
5.45472e-23
9.41692e-24
1.18864e-23
9.83966e-24
9.02271e-24
4.95557e-23
5.32008e-23
-1.37468e-23
6.67873e-23
5.85786e-23
5.74366e-23
3.02513e-23
2.23178e-23
2.163e-23
2.51026e-23
3.42457e-23
1.88081e-23
5.43954e-23
7.49769e-23
7.96411e-23
1.2704e-23
2.56487e-23
5.172e-23
3.08683e-23
7.18039e-23
6.89428e-23
-1.03349e-23
5.14462e-23
8.10651e-23
4.94162e-23
8.31464e-23
4.59587e-23
5.61092e-23
3.8543e-23
6.02653e-23
4.81168e-23
-3.76806e-23
2.66705e-23
-3.7638e-23
9.12088e-24
-1.79323e-23
-3.03373e-24
-1.5251e-23
1.46313e-23
-1.85428e-23
2.74391e-23
-4.45557e-23
2.96534e-23
-1.62443e-23
4.98999e-24
-1.73956e-23
-1.425e-23
-2.14892e-23
-1.77648e-23
-3.27388e-23
-3.12301e-23
-4.36966e-23
-3.36509e-23
-3.56211e-23
-2.71614e-23
-3.46751e-23
-2.36846e-23
-2.1282e-23
-2.53271e-23
1.32975e-23
-1.534e-23
-2.71286e-23
-1.27999e-23
-3.15529e-23
-4.88983e-24
-1.23093e-23
3.78211e-24
1.62421e-23
6.27555e-24
1.21989e-23
1.31755e-23
1.55855e-23
8.84986e-24
1.82482e-23
1.08163e-23
4.67899e-23
1.6472e-23
9.88477e-23
1.92269e-23
9.02623e-23
9.03066e-24
4.53034e-23
4.46257e-24
8.02209e-24
4.36796e-23
4.21737e-23
-2.27042e-23
5.84843e-23
4.04886e-23
5.44981e-23
2.654e-23
4.03247e-23
3.24285e-23
3.16169e-23
3.69751e-23
4.15161e-23
3.58655e-23
2.73847e-23
2.26928e-23
1.10721e-23
3.96278e-23
7.97653e-23
2.6886e-23
6.48756e-23
1.38776e-23
-1.04232e-23
1.01577e-23
7.61696e-23
3.56074e-23
6.82821e-23
5.47517e-23
5.89761e-23
3.94833e-23
2.83728e-23
1.51948e-24
-6.18161e-23
-8.73961e-24
-6.58451e-23
1.31779e-23
6.00558e-24
4.76138e-23
1.12073e-23
1.51559e-23
-6.47047e-24
4.46712e-24
-1.00136e-22
-1.01892e-23
-8.96628e-23
-9.87428e-24
-4.69957e-23
-1.99866e-23
-8.23015e-23
-1.89562e-23
-5.2453e-23
-1.96245e-23
-1.66806e-23
-2.84196e-23
-3.30102e-23
-1.63032e-23
-4.67523e-23
-5.31276e-24
1.32312e-23
3.92438e-25
3.83497e-23
-2.78015e-24
3.00061e-23
-7.34819e-24
-8.50967e-24
-4.93062e-24
3.01867e-23
-6.44574e-24
-5.35347e-25
-1.06589e-23
9.78074e-24
2.47253e-25
2.23814e-23
1.0189e-26
3.65316e-23
-5.02052e-25
5.67778e-23
1.68627e-24
4.04454e-23
1.06047e-24
5.11942e-23
-3.628e-24
6.70753e-23
-1.02328e-23
-2.18207e-23
3.08475e-23
3.62214e-23
-3.20147e-23
4.02215e-23
2.41245e-23
6.1641e-23
9.79759e-24
5.32043e-23
3.90604e-23
2.49264e-23
5.72115e-23
2.96814e-23
2.65132e-23
4.33673e-23
7.40673e-24
-4.75951e-24
2.49441e-23
5.54738e-23
3.42418e-23
4.01028e-23
2.28608e-23
3.72234e-23
1.52314e-23
6.48819e-23
1.01213e-23
5.46315e-23
-2.32178e-24
-7.6044e-24
-1.55239e-23
8.70988e-24
-2.62205e-23
3.32862e-24
-8.36341e-24
-2.22661e-23
-2.58705e-23
-4.54956e-23
-4.6695e-23
-2.51204e-23
-1.24835e-23
-2.4285e-23
-8.58787e-24
-1.14824e-22
-1.84639e-23
-1.11123e-22
-2.14119e-23
-7.83411e-23
-1.33299e-23
-8.09332e-23
-1.89201e-23
-8.54423e-23
-2.07175e-23
5.64111e-24
2.34879e-24
-1.19372e-23
-2.29207e-24
-1.70671e-23
-2.81965e-24
-1.81034e-23
-4.49787e-24
1.38834e-23
-3.77659e-25
8.80419e-24
-7.0242e-24
7.38622e-24
-6.63562e-24
4.45942e-24
-1.08548e-23
3.21541e-23
-3.91058e-24
3.36423e-23
5.20044e-25
3.00714e-23
4.90671e-24
3.61202e-23
8.03914e-25
3.46329e-23
5.11677e-24
-1.01768e-24
5.23436e-24
-2.15552e-23
-2.28353e-24
-3.91924e-23
1.20169e-24
5.15814e-25
2.23578e-23
-2.24653e-23
-3.70734e-23
2.82438e-23
1.11519e-23
7.62366e-23
2.47115e-23
6.90972e-23
3.93545e-23
8.49582e-24
-7.9796e-24
5.67329e-24
2.52432e-23
5.68057e-23
2.60623e-23
1.89265e-24
1.39957e-23
3.41406e-23
4.24221e-25
2.89187e-23
2.36875e-23
3.45439e-23
7.69166e-24
3.43003e-23
-6.87352e-25
3.81376e-23
-1.05144e-23
-3.30507e-23
-1.12066e-23
2.21064e-23
-1.91549e-23
-2.44884e-23
-3.27544e-23
-7.2613e-23
-4.90607e-23
-1.6564e-23
-3.8304e-23
-2.42354e-23
-5.32073e-23
-5.75984e-23
-6.80896e-23
-1.09119e-22
-6.04627e-23
-9.2166e-23
-4.16831e-23
-1.163e-22
-3.15707e-23
-8.87438e-23
-1.13401e-23
-1.71885e-23
2.34078e-24
-2.08977e-23
1.37312e-24
-2.59476e-23
-5.49305e-24
1.76705e-24
-4.1841e-25
-6.16282e-24
-4.62251e-24
-1.69404e-24
-5.32746e-24
-1.33032e-23
-1.79423e-24
1.12261e-23
-3.58149e-24
3.64265e-23
1.38212e-24
3.79152e-23
-2.47081e-24
8.60649e-23
-3.10967e-24
2.09075e-23
-8.69291e-24
2.81459e-23
2.0768e-24
3.23132e-23
2.83154e-24
-5.87674e-24
-5.89991e-24
-1.62186e-24
-1.33845e-23
-2.37227e-23
-1.65292e-23
-1.4497e-23
4.06367e-23
2.7924e-23
-2.94473e-23
3.01652e-23
2.4992e-23
8.36816e-23
4.24859e-23
3.59606e-23
1.23827e-23
2.53346e-23
-8.61083e-24
2.65261e-24
-1.50398e-23
3.61319e-23
-7.72929e-24
-3.84004e-25
-1.78134e-23
6.09953e-23
9.67714e-24
3.7397e-24
1.36321e-23
4.73264e-24
-5.7233e-25
2.28788e-23
-2.37295e-23
2.43204e-23
-2.79764e-23
-2.78549e-23
-3.37625e-23
-2.60814e-23
-1.92205e-23
-3.88221e-23
-3.1814e-23
-6.35374e-23
-3.30926e-23
-4.57901e-23
-4.97326e-23
-5.50959e-23
-5.66418e-23
-4.00303e-23
-4.00145e-23
-5.4128e-23
-4.02355e-23
-5.18174e-23
-4.03704e-23
-6.55214e-23
-2.2614e-23
-3.20347e-23
-7.17482e-24
-3.48055e-23
-9.60407e-25
-2.49948e-23
-1.24998e-23
-2.14395e-23
-1.7643e-23
-8.34351e-24
-1.66316e-23
-7.57524e-24
-1.15584e-23
-4.48087e-25
-1.43581e-23
3.39435e-24
-1.39734e-23
-1.73072e-24
-1.08636e-24
1.06805e-23
-4.87572e-24
1.8053e-23
-4.66527e-24
3.33743e-23
-7.35429e-24
4.27874e-23
-1.34558e-23
5.33658e-23
-7.94391e-24
-2.71672e-23
-1.34226e-23
-6.40253e-23
-1.06188e-23
-3.23349e-23
-1.98622e-23
-4.90615e-23
-1.00423e-23
-1.16925e-24
4.08401e-23
3.79472e-23
-4.95657e-23
3.72111e-23
2.4075e-23
5.48037e-23
1.76292e-23
2.08544e-23
-3.16752e-23
2.33789e-23
-1.27769e-23
7.85354e-24
-2.80952e-24
8.69627e-24
-5.93526e-24
2.47601e-23
-2.98578e-23
5.52398e-23
-2.06671e-23
-1.36149e-23
-4.26587e-23
-2.55945e-23
-5.63839e-23
-7.74998e-24
-5.18437e-23
7.05798e-24
-5.16048e-23
4.5811e-24
-3.61823e-23
-5.63247e-23
-2.54534e-23
-1.16707e-23
-9.32351e-24
-9.9118e-23
-1.65326e-23
-6.26569e-23
-2.00602e-23
-3.19012e-23
-1.29607e-23
-2.89073e-23
-3.06609e-23
-3.28262e-23
-3.08845e-23
-3.55006e-24
-2.76745e-23
-3.01592e-23
-3.19867e-23
-8.80536e-24
-3.50664e-23
-9.83016e-23
-4.11306e-23
-5.69226e-23
-2.42838e-23
-2.12929e-23
-1.43612e-23
-1.20536e-23
-2.27037e-23
-6.54592e-24
-1.62101e-23
-3.25889e-24
-1.55465e-23
2.94399e-23
-5.74023e-24
4.39799e-25
-1.07759e-23
8.36532e-24
-1.07163e-23
-1.36051e-23
-7.91966e-24
9.26022e-25
-1.49676e-23
5.00616e-23
-1.22139e-23
-8.37848e-24
-1.96504e-23
-4.30003e-23
-1.55606e-23
-5.6726e-23
4.62246e-24
-5.82178e-24
1.84154e-23
5.52366e-23
1.66913e-23
1.24871e-23
3.13767e-23
4.78486e-23
-3.81493e-23
2.59928e-23
2.47392e-23
2.13256e-23
-4.56586e-24
4.05972e-23
1.70702e-23
2.87694e-23
1.54295e-23
1.54138e-23
7.88122e-24
-8.33468e-24
1.87338e-23
1.89196e-23
9.49703e-24
2.78277e-23
-3.38418e-23
-2.73867e-23
-5.94565e-23
-2.82205e-23
-5.41049e-23
-1.97237e-23
-5.80715e-23
2.90365e-23
-4.00055e-23
2.1154e-23
-3.59448e-23
-6.6938e-25
-1.2962e-23
-1.44827e-23
6.87689e-27
-9.62008e-23
-1.07186e-23
-5.77076e-23
2.49688e-24
-6.3145e-23
-5.67503e-24
-2.10363e-23
-1.12418e-23
-2.709e-23
-1.97407e-23
-2.7621e-23
-1.88714e-23
-2.97874e-23
-2.85439e-23
-3.676e-23
-2.78721e-23
-4.50011e-23
-3.20525e-23
-3.28697e-23
-3.21538e-23
-2.42569e-23
-2.31508e-23
2.25698e-24
-1.54399e-23
3.99019e-25
-1.72535e-23
1.78666e-23
-2.85538e-23
-2.03247e-24
-2.936e-23
1.29358e-23
-2.36185e-23
1.99847e-23
-2.27451e-23
-4.71014e-23
-2.31003e-23
-2.85926e-24
-1.43746e-23
7.42022e-24
-1.55725e-23
7.37977e-23
-1.05492e-23
1.00282e-22
-7.37358e-24
6.56743e-23
-1.19208e-23
6.32563e-24
-1.73179e-23
1.81011e-25
-1.15119e-23
-5.00756e-23
-1.41926e-23
-1.37007e-23
2.33978e-23
5.09255e-23
-2.86411e-23
1.04285e-23
3.29813e-23
3.1271e-23
3.71479e-23
4.31863e-23
8.15149e-24
3.88726e-23
2.92029e-23
2.41215e-23
2.35024e-23
-1.67027e-23
-8.40505e-24
-3.94022e-23
-3.49402e-23
7.49504e-24
-8.21927e-24
-1.17352e-23
-2.98374e-23
-3.33835e-23
-3.26246e-23
9.77832e-25
-2.38902e-23
3.9357e-23
-6.79642e-24
7.86468e-23
-1.18383e-23
3.10531e-23
-3.22079e-23
-3.56657e-23
-5.31726e-23
-6.0283e-23
-5.6405e-23
-7.57949e-23
-5.30368e-23
-1.00619e-22
-5.41245e-23
-6.07102e-23
-5.38409e-23
-3.71269e-23
-4.07354e-23
-5.61429e-23
-4.48835e-23
-4.96387e-23
-2.90892e-23
-5.31624e-23
-2.41251e-23
-5.13695e-23
-2.33377e-23
-1.54968e-23
-2.47954e-23
-6.47193e-24
-3.15111e-23
-3.67452e-23
-2.7293e-23
-2.64146e-23
-2.55811e-23
4.46519e-24
-2.20021e-23
-6.56209e-24
-1.86353e-23
2.3112e-23
-1.19722e-23
1.46395e-23
-1.97492e-23
1.11738e-23
-2.00076e-23
6.98138e-24
-1.40436e-23
3.81976e-23
-1.21295e-23
4.17783e-23
-1.16627e-23
4.68232e-23
-1.38158e-23
4.80319e-23
-1.69844e-23
1.72407e-23
-1.86149e-23
-8.1971e-24
-1.90443e-23
-1.60212e-23
-1.04874e-23
4.82922e-25
-2.76148e-24
-4.70874e-25
1.7903e-23
5.91678e-23
-3.35833e-23
1.10962e-23
3.31253e-23
7.12346e-24
3.80772e-23
5.63084e-23
3.19087e-23
3.39646e-23
-1.12814e-23
-3.84355e-24
-5.86417e-23
-5.60419e-23
-7.81207e-23
-2.19013e-23
-5.4076e-23
-1.33309e-23
-1.58876e-23
-9.99394e-24
-2.64258e-23
-2.08166e-23
-1.22632e-23
2.50543e-23
-6.27611e-24
3.02197e-23
-1.42689e-23
3.19222e-23
-2.32081e-23
-8.65682e-24
-6.00484e-23
-5.22007e-23
-7.41115e-23
-4.60487e-23
-7.72691e-23
-9.59554e-23
-7.61281e-23
-1.06736e-22
-5.15362e-23
-2.65586e-23
-2.0439e-23
-5.70272e-23
-1.2185e-23
-1.0886e-23
-9.91089e-24
-2.35133e-23
-1.96644e-23
-6.49331e-23
-2.55459e-23
-3.02581e-23
-1.67709e-23
-4.42432e-23
-7.93664e-24
2.64722e-23
-2.92269e-24
-2.57737e-23
-1.24317e-23
-6.01289e-24
-9.75357e-24
1.05253e-23
-1.82918e-23
1.28544e-23
-2.19872e-23
-2.84945e-24
-3.43339e-23
1.86102e-23
-3.37128e-23
2.23575e-23
-2.18153e-23
2.12197e-23
-1.46636e-23
2.07671e-23
-1.44817e-23
1.69534e-23
-1.26677e-23
2.17537e-23
-1.17642e-23
2.7246e-23
-1.31625e-23
2.81849e-23
-1.27883e-23
6.21365e-23
-7.75963e-24
5.61272e-23
-1.04724e-23
1.54177e-23
-1.63156e-23
-1.88108e-23
2.57328e-24
3.63905e-23
-5.13769e-23
6.84404e-24
2.1677e-23
1.1718e-24
3.84371e-23
1.77609e-23
1.48794e-23
2.62933e-24
8.14064e-24
-2.06669e-23
-2.92853e-23
-4.59247e-23
-3.7516e-23
1.63518e-23
-4.17299e-23
-2.3649e-23
-4.24017e-23
4.29067e-24
-4.47768e-23
-1.15658e-23
-6.22986e-23
2.24241e-24
-3.01918e-23
1.36968e-23
-3.39474e-23
-2.80865e-23
-5.1059e-23
-3.78859e-23
-5.38932e-23
-5.94223e-23
-5.60679e-23
-4.01078e-23
-3.56249e-23
-3.23827e-23
-2.29592e-23
-1.19433e-23
-1.58058e-23
-1.65931e-23
-1.58943e-23
-2.02027e-23
-8.10212e-24
-3.01038e-23
-3.33149e-24
-4.93446e-23
-8.45688e-25
-4.21447e-23
3.05897e-24
-1.78422e-23
-4.84279e-24
-2.39882e-23
-5.3643e-25
-2.40937e-23
-2.03483e-24
-2.31501e-23
-3.96985e-24
-6.18248e-23
-1.14776e-23
-3.73952e-23
-6.8093e-24
-5.43864e-23
-1.38321e-24
6.7615e-24
9.513e-24
7.21412e-23
4.45007e-24
6.73162e-23
-8.64019e-24
6.78628e-23
-1.49618e-23
6.13908e-23
-1.45216e-23
5.40585e-23
-1.14283e-23
2.49971e-23
-1.54445e-23
2.89161e-23
-1.48225e-23
4.05386e-23
-1.83582e-23
2.34459e-23
-2.58669e-23
1.27999e-24
-2.1541e-23
-3.48533e-23
-2.47501e-23
-7.57876e-23
-2.32568e-23
-1.61203e-23
-4.9956e-24
-1.38365e-23
-1.99402e-23
1.05335e-23
-5.85304e-25
-2.07212e-23
-4.91219e-24
1.3577e-25
-6.25739e-24
-2.10331e-23
-4.55926e-23
-2.21976e-23
-2.88084e-23
-3.83549e-23
-6.17354e-24
1.46714e-23
3.47601e-23
-1.66108e-23
-7.82647e-24
-3.10028e-23
-2.88088e-23
2.33666e-23
-4.88395e-23
-1.01173e-23
-6.69916e-23
-7.25459e-24
-4.33813e-23
-1.88942e-23
-3.97577e-23
-4.49807e-23
-2.65774e-23
-9.0435e-24
-3.05363e-23
-1.26043e-23
-2.92289e-23
-1.20411e-23
-2.01071e-23
-1.10918e-23
-2.33298e-23
-1.99863e-23
-1.55594e-23
-1.09998e-23
-2.37808e-23
-3.26628e-23
-2.93378e-23
-5.8051e-23
-2.37185e-23
-4.65673e-23
-1.14356e-23
-2.29847e-23
2.69443e-24
-2.87571e-23
-2.73342e-24
-2.99198e-23
-4.38487e-24
-2.76396e-23
-5.3786e-24
-2.45076e-23
-5.91356e-24
-1.94045e-23
-1.01907e-23
2.59112e-24
-1.39104e-23
-5.62342e-23
-1.20057e-23
-1.87933e-23
-2.73999e-24
-2.19493e-23
6.50101e-26
4.63212e-23
5.20231e-24
3.24475e-23
-1.11925e-24
2.7136e-23
-6.87956e-24
1.34028e-23
-7.29729e-25
3.88201e-24
-2.97945e-25
5.32101e-25
-1.04196e-23
8.72421e-23
-1.79435e-23
-3.75275e-23
-2.90167e-23
8.99309e-24
-2.98022e-23
1.37604e-23
-2.79273e-23
-2.38171e-23
2.4655e-24
2.89957e-23
2.13943e-23
4.41473e-24
6.21316e-23
-2.33067e-23
1.66691e-23
-2.67058e-23
2.83526e-24
-9.30092e-25
-1.90029e-24
-9.37847e-24
-1.60193e-23
-2.57098e-24
-8.66461e-24
-2.97307e-23
-8.48219e-24
-3.13448e-23