/*--------------------------------*- C++ -*----------------------------------*\
  =========                 |
  \\      /  F ield         | OpenFOAM: The Open Source CFD Toolbox
   \\    /   O peration     | Website:  https://openfoam.org
    \\  /    A nd           | Version:  7
     \\/     M anipulation  |
\*---------------------------------------------------------------------------*/
FoamFile
{
    version     2.0;
    format      ascii;
    class       volScalarField;
    location    "112000";
    object      k;
}
// * * * * * * * * * * * * * * * * * * * * * * * * * * * * * * * * * * * * * //

dimensions      [0 2 -2 0 0 0 0];

internalField   nonuniform List<scalar> 
4764
(
1.12659e-06
1.12532e-06
1.12416e-06
1.12311e-06
1.12219e-06
1.12138e-06
1.14694e-06
1.14499e-06
1.14308e-06
1.14125e-06
1.13947e-06
1.13777e-06
1.13615e-06
1.13462e-06
1.13318e-06
1.13185e-06
1.13061e-06
1.12948e-06
1.12846e-06
1.12755e-06
1.12676e-06
1.12609e-06
1.12556e-06
1.12515e-06
1.12489e-06
1.12477e-06
1.12477e-06
1.12492e-06
1.1252e-06
1.12561e-06
1.12615e-06
1.1268e-06
1.12757e-06
1.12847e-06
1.12949e-06
1.15166e-06
1.14977e-06
1.14791e-06
1.14612e-06
1.1444e-06
1.14274e-06
1.14116e-06
1.13967e-06
1.13827e-06
1.13697e-06
1.13576e-06
1.13466e-06
1.13366e-06
1.13278e-06
1.13201e-06
1.13136e-06
1.13084e-06
1.13044e-06
1.13018e-06
1.13006e-06
1.13007e-06
1.13021e-06
1.13049e-06
1.13089e-06
1.13142e-06
1.13205e-06
1.1328e-06
1.13368e-06
1.13467e-06
1.13577e-06
1.13697e-06
1.13826e-06
1.13966e-06
1.15625e-06
1.15441e-06
1.1526e-06
1.15086e-06
1.14918e-06
1.14757e-06
1.14603e-06
1.14458e-06
1.14322e-06
1.14195e-06
1.14077e-06
1.1397e-06
1.13874e-06
1.13788e-06
1.13713e-06
1.13649e-06
1.13598e-06
1.13559e-06
1.13534e-06
1.13523e-06
1.13524e-06
1.13537e-06
1.13565e-06
1.13603e-06
1.13655e-06
1.13717e-06
1.1379e-06
1.13875e-06
1.13972e-06
1.14079e-06
1.14195e-06
1.14321e-06
1.14457e-06
1.14604e-06
1.14757e-06
1.14918e-06
1.15085e-06
1.15259e-06
1.15438e-06
1.15622e-06
1.15808e-06
1.15996e-06
1.16185e-06
1.16373e-06
1.1656e-06
1.16068e-06
1.1589e-06
1.15715e-06
1.15546e-06
1.15382e-06
1.15226e-06
1.15076e-06
1.14936e-06
1.14803e-06
1.1468e-06
1.14565e-06
1.14461e-06
1.14367e-06
1.14283e-06
1.1421e-06
1.14148e-06
1.14099e-06
1.14061e-06
1.14036e-06
1.14025e-06
1.14026e-06
1.14039e-06
1.14066e-06
1.14104e-06
1.14154e-06
1.14214e-06
1.14286e-06
1.14368e-06
1.14463e-06
1.14567e-06
1.1468e-06
1.14803e-06
1.14935e-06
1.15077e-06
1.15226e-06
1.15382e-06
1.15545e-06
1.15714e-06
1.15887e-06
1.16066e-06
1.16246e-06
1.16428e-06
1.1661e-06
1.16792e-06
1.16972e-06
1.16497e-06
1.16325e-06
1.16155e-06
1.15991e-06
1.15833e-06
1.15681e-06
1.15536e-06
1.15399e-06
1.1527e-06
1.1515e-06
1.15039e-06
1.14938e-06
1.14846e-06
1.14765e-06
1.14693e-06
1.14634e-06
1.14585e-06
1.14548e-06
1.14524e-06
1.14514e-06
1.14515e-06
1.14528e-06
1.14554e-06
1.14591e-06
1.14639e-06
1.14698e-06
1.14767e-06
1.14848e-06
1.1494e-06
1.15041e-06
1.15151e-06
1.1527e-06
1.15398e-06
1.15537e-06
1.15681e-06
1.15833e-06
1.15991e-06
1.16154e-06
1.16322e-06
1.16495e-06
1.1667e-06
1.16845e-06
1.17021e-06
1.17196e-06
1.1737e-06
1.16912e-06
1.16745e-06
1.1658e-06
1.16422e-06
1.16268e-06
1.16121e-06
1.1598e-06
1.15848e-06
1.15723e-06
1.15607e-06
1.15499e-06
1.15401e-06
1.15312e-06
1.15232e-06
1.15163e-06
1.15105e-06
1.15058e-06
1.15022e-06
1.14998e-06
1.14989e-06
1.14989e-06
1.15002e-06
1.15027e-06
1.15063e-06
1.1511e-06
1.15168e-06
1.15235e-06
1.15313e-06
1.15402e-06
1.155e-06
1.15607e-06
1.15723e-06
1.15847e-06
1.15981e-06
1.16121e-06
1.16268e-06
1.16421e-06
1.16579e-06
1.16742e-06
1.16909e-06
1.17078e-06
1.17247e-06
1.17417e-06
1.17585e-06
1.17751e-06
1.1731e-06
1.1715e-06
1.16991e-06
1.16837e-06
1.16689e-06
1.16546e-06
1.1641e-06
1.16282e-06
1.16161e-06
1.16048e-06
1.15944e-06
1.15849e-06
1.15762e-06
1.15685e-06
1.15618e-06
1.15562e-06
1.15516e-06
1.15481e-06
1.15458e-06
1.15449e-06
1.1545e-06
1.15462e-06
1.15486e-06
1.15521e-06
1.15567e-06
1.15623e-06
1.15688e-06
1.15764e-06
1.1585e-06
1.15945e-06
1.16049e-06
1.16161e-06
1.16282e-06
1.16411e-06
1.16547e-06
1.16689e-06
1.16837e-06
1.16989e-06
1.17147e-06
1.17308e-06
1.1747e-06
1.17633e-06
1.17797e-06
1.17958e-06
1.18117e-06
1.17694e-06
1.17538e-06
1.17385e-06
1.17237e-06
1.17094e-06
1.16956e-06
1.16825e-06
1.16701e-06
1.16584e-06
1.16475e-06
1.16374e-06
1.16282e-06
1.16198e-06
1.16123e-06
1.16058e-06
1.16004e-06
1.15959e-06
1.15925e-06
1.15903e-06
1.15894e-06
1.15895e-06
1.15907e-06
1.15931e-06
1.15964e-06
1.16009e-06
1.16063e-06
1.16127e-06
1.162e-06
1.16283e-06
1.16375e-06
1.16476e-06
1.16584e-06
1.16701e-06
1.16826e-06
1.16957e-06
1.17094e-06
1.17237e-06
1.17384e-06
1.17536e-06
1.17691e-06
1.17847e-06
1.18004e-06
1.18161e-06
1.18315e-06
1.18468e-06
1.18061e-06
1.17911e-06
1.17764e-06
1.17621e-06
1.17483e-06
1.17351e-06
1.17224e-06
1.17104e-06
1.16991e-06
1.16886e-06
1.16788e-06
1.16699e-06
1.16619e-06
1.16546e-06
1.16483e-06
1.1643e-06
1.16387e-06
1.16354e-06
1.16333e-06
1.16324e-06
1.16325e-06
1.16337e-06
1.1636e-06
1.16392e-06
1.16436e-06
1.16488e-06
1.1655e-06
1.1662e-06
1.16701e-06
1.1679e-06
1.16887e-06
1.16991e-06
1.17105e-06
1.17225e-06
1.17351e-06
1.17483e-06
1.17621e-06
1.17763e-06
1.17909e-06
1.18058e-06
1.18208e-06
1.18358e-06
1.18509e-06
1.18656e-06
1.18801e-06
1.18411e-06
1.18268e-06
1.18127e-06
1.17989e-06
1.17856e-06
1.17729e-06
1.17607e-06
1.17491e-06
1.17383e-06
1.17281e-06
1.17187e-06
1.17101e-06
1.17023e-06
1.16953e-06
1.16892e-06
1.16842e-06
1.168e-06
1.16768e-06
1.16748e-06
1.16739e-06
1.1674e-06
1.16751e-06
1.16773e-06
1.16805e-06
1.16847e-06
1.16897e-06
1.16957e-06
1.17025e-06
1.17102e-06
1.17189e-06
1.17283e-06
1.17383e-06
1.17492e-06
1.17609e-06
1.1773e-06
1.17857e-06
1.17989e-06
1.18125e-06
1.18265e-06
1.18408e-06
1.18553e-06
1.18697e-06
1.1884e-06
1.18981e-06
1.19119e-06
1.18745e-06
1.18608e-06
1.18473e-06
1.1834e-06
1.18213e-06
1.18091e-06
1.17973e-06
1.17862e-06
1.17758e-06
1.1766e-06
1.17569e-06
1.17487e-06
1.17412e-06
1.17344e-06
1.17285e-06
1.17237e-06
1.17196e-06
1.17166e-06
1.17146e-06
1.17138e-06
1.17139e-06
1.1715e-06
1.17171e-06
1.17201e-06
1.17242e-06
1.17291e-06
1.17348e-06
1.17414e-06
1.17488e-06
1.17571e-06
1.17662e-06
1.17758e-06
1.17863e-06
1.17975e-06
1.18091e-06
1.18213e-06
1.1834e-06
1.18471e-06
1.18606e-06
1.18742e-06
1.18881e-06
1.19018e-06
1.19155e-06
1.19288e-06
1.19419e-06
1.19062e-06
1.18931e-06
1.18802e-06
1.18675e-06
1.18553e-06
1.18436e-06
1.18323e-06
1.18217e-06
1.18117e-06
1.18022e-06
1.17935e-06
1.17856e-06
1.17784e-06
1.17719e-06
1.17662e-06
1.17615e-06
1.17576e-06
1.17547e-06
1.17528e-06
1.1752e-06
1.17521e-06
1.17532e-06
1.17552e-06
1.17581e-06
1.1762e-06
1.17668e-06
1.17723e-06
1.17786e-06
1.17857e-06
1.17938e-06
1.18024e-06
1.18117e-06
1.18218e-06
1.18325e-06
1.18437e-06
1.18554e-06
1.18675e-06
1.188e-06
1.18929e-06
1.19059e-06
1.19191e-06
1.19322e-06
1.19452e-06
1.19578e-06
1.19702e-06
1.19487e-06
1.19361e-06
1.19237e-06
1.19114e-06
1.18992e-06
1.18876e-06
1.18764e-06
1.18656e-06
1.18554e-06
1.18458e-06
1.18368e-06
1.18284e-06
1.18208e-06
1.18139e-06
1.18076e-06
1.18022e-06
1.17977e-06
1.1794e-06
1.17912e-06
1.17893e-06
1.17886e-06
1.17887e-06
1.17897e-06
1.17917e-06
1.17945e-06
1.17982e-06
1.18028e-06
1.18081e-06
1.18142e-06
1.1821e-06
1.18287e-06
1.1837e-06
1.18459e-06
1.18555e-06
1.18658e-06
1.18765e-06
1.18876e-06
1.18992e-06
1.19111e-06
1.19234e-06
1.19359e-06
1.19484e-06
1.19608e-06
1.19731e-06
1.19851e-06
1.19967e-06
1.19762e-06
1.19643e-06
1.19524e-06
1.19407e-06
1.19292e-06
1.19181e-06
1.19074e-06
1.18971e-06
1.18874e-06
1.18782e-06
1.18696e-06
1.18616e-06
1.18543e-06
1.18477e-06
1.18417e-06
1.18365e-06
1.18322e-06
1.18286e-06
1.18259e-06
1.18241e-06
1.18234e-06
1.18235e-06
1.18245e-06
1.18264e-06
1.18291e-06
1.18327e-06
1.18371e-06
1.18421e-06
1.1848e-06
1.18545e-06
1.18619e-06
1.18698e-06
1.18783e-06
1.18875e-06
1.18973e-06
1.19075e-06
1.19181e-06
1.19292e-06
1.19405e-06
1.19522e-06
1.1964e-06
1.19759e-06
1.19877e-06
1.19993e-06
1.20105e-06
1.20214e-06
1.20018e-06
1.19906e-06
1.19794e-06
1.19683e-06
1.19574e-06
1.19468e-06
1.19367e-06
1.19268e-06
1.19176e-06
1.19089e-06
1.19006e-06
1.1893e-06
1.18861e-06
1.18797e-06
1.1874e-06
1.1869e-06
1.18649e-06
1.18615e-06
1.18589e-06
1.18572e-06
1.18565e-06
1.18566e-06
1.18575e-06
1.18594e-06
1.18619e-06
1.18654e-06
1.18696e-06
1.18744e-06
1.188e-06
1.18862e-06
1.18933e-06
1.19009e-06
1.1909e-06
1.19178e-06
1.19271e-06
1.19367e-06
1.19469e-06
1.19573e-06
1.19681e-06
1.19792e-06
1.19904e-06
1.20016e-06
1.20127e-06
1.20236e-06
1.20341e-06
1.20443e-06
1.2036e-06
1.20256e-06
1.2015e-06
1.20045e-06
1.1994e-06
1.19836e-06
1.19737e-06
1.19641e-06
1.19547e-06
1.19459e-06
1.19377e-06
1.19299e-06
1.19226e-06
1.1916e-06
1.191e-06
1.19045e-06
1.18997e-06
1.18958e-06
1.18925e-06
1.18901e-06
1.18884e-06
1.18877e-06
1.18879e-06
1.18888e-06
1.18905e-06
1.1893e-06
1.18962e-06
1.19003e-06
1.19049e-06
1.19102e-06
1.19162e-06
1.19229e-06
1.19301e-06
1.19378e-06
1.19461e-06
1.1955e-06
1.19642e-06
1.19737e-06
1.19836e-06
1.19938e-06
1.20043e-06
1.20148e-06
1.20254e-06
1.20358e-06
1.2046e-06
1.20558e-06
1.20652e-06
1.20572e-06
1.20475e-06
1.20376e-06
1.20276e-06
1.20178e-06
1.2008e-06
1.19987e-06
1.19896e-06
1.19807e-06
1.19724e-06
1.19646e-06
1.19572e-06
1.19503e-06
1.1944e-06
1.19383e-06
1.19331e-06
1.19286e-06
1.19248e-06
1.19217e-06
1.19194e-06
1.19178e-06
1.19172e-06
1.19173e-06
1.19182e-06
1.19198e-06
1.19222e-06
1.19253e-06
1.19291e-06
1.19335e-06
1.19386e-06
1.19442e-06
1.19506e-06
1.19574e-06
1.19647e-06
1.19726e-06
1.1981e-06
1.19897e-06
1.19987e-06
1.2008e-06
1.20176e-06
1.20274e-06
1.20374e-06
1.20472e-06
1.2057e-06
1.20664e-06
1.20755e-06
1.20841e-06
1.20851e-06
1.20764e-06
1.20673e-06
1.20581e-06
1.20489e-06
1.20397e-06
1.20305e-06
1.20217e-06
1.20131e-06
1.20048e-06
1.1997e-06
1.19896e-06
1.19826e-06
1.19761e-06
1.19702e-06
1.19647e-06
1.19598e-06
1.19556e-06
1.1952e-06
1.1949e-06
1.19468e-06
1.19454e-06
1.19447e-06
1.19449e-06
1.19457e-06
1.19472e-06
1.19495e-06
1.19524e-06
1.19561e-06
1.19603e-06
1.1965e-06
1.19704e-06
1.19764e-06
1.19829e-06
1.19897e-06
1.19972e-06
1.20051e-06
1.20132e-06
1.20217e-06
1.20304e-06
1.20394e-06
1.20487e-06
1.20579e-06
1.20671e-06
1.20762e-06
1.20849e-06
1.20932e-06
1.21011e-06
1.21015e-06
1.20935e-06
1.20851e-06
1.20766e-06
1.2068e-06
1.20595e-06
1.20509e-06
1.20427e-06
1.20347e-06
1.20269e-06
1.20196e-06
1.20126e-06
1.20061e-06
1.19999e-06
1.19944e-06
1.19892e-06
1.19846e-06
1.19806e-06
1.19771e-06
1.19744e-06
1.19723e-06
1.19709e-06
1.19703e-06
1.19704e-06
1.19712e-06
1.19727e-06
1.19749e-06
1.19776e-06
1.19811e-06
1.1985e-06
1.19895e-06
1.19945e-06
1.20003e-06
1.20063e-06
1.20128e-06
1.20198e-06
1.20272e-06
1.20348e-06
1.20427e-06
1.20509e-06
1.20592e-06
1.20678e-06
1.20764e-06
1.20849e-06
1.20933e-06
1.21013e-06
1.21089e-06
1.21159e-06
1.21157e-06
1.21085e-06
1.21009e-06
1.20931e-06
1.20851e-06
1.20773e-06
1.20693e-06
1.20617e-06
1.20542e-06
1.2047e-06
1.20401e-06
1.20337e-06
1.20275e-06
1.20217e-06
1.20165e-06
1.20117e-06
1.20073e-06
1.20036e-06
1.20003e-06
1.19977e-06
1.19958e-06
1.19945e-06
1.19939e-06
1.1994e-06
1.19948e-06
1.19962e-06
1.19982e-06
1.20008e-06
1.20041e-06
1.20078e-06
1.2012e-06
1.20167e-06
1.20221e-06
1.20278e-06
1.20338e-06
1.20403e-06
1.20472e-06
1.20543e-06
1.20617e-06
1.20692e-06
1.2077e-06
1.20849e-06
1.20929e-06
1.21007e-06
1.21083e-06
1.21156e-06
1.21224e-06
1.21287e-06
1.21278e-06
1.21213e-06
1.21144e-06
1.21073e-06
1.21001e-06
1.20929e-06
1.20855e-06
1.20785e-06
1.20716e-06
1.20649e-06
1.20586e-06
1.20526e-06
1.20468e-06
1.20415e-06
1.20366e-06
1.20321e-06
1.2028e-06
1.20245e-06
1.20214e-06
1.2019e-06
1.20172e-06
1.2016e-06
1.20154e-06
1.20156e-06
1.20163e-06
1.20176e-06
1.20195e-06
1.20219e-06
1.2025e-06
1.20285e-06
1.20324e-06
1.20368e-06
1.20418e-06
1.20471e-06
1.20527e-06
1.20588e-06
1.20652e-06
1.20718e-06
1.20785e-06
1.20855e-06
1.20926e-06
1.20999e-06
1.21071e-06
1.21142e-06
1.21212e-06
1.21277e-06
1.21337e-06
1.21392e-06
1.21377e-06
1.21319e-06
1.21258e-06
1.21194e-06
1.21128e-06
1.21063e-06
1.20996e-06
1.20932e-06
1.20869e-06
1.20807e-06
1.20748e-06
1.20693e-06
1.2064e-06
1.2059e-06
1.20546e-06
1.20504e-06
1.20466e-06
1.20433e-06
1.20404e-06
1.20382e-06
1.20365e-06
1.20354e-06
1.20348e-06
1.2035e-06
1.20356e-06
1.20368e-06
1.20386e-06
1.20409e-06
1.20438e-06
1.2047e-06
1.20507e-06
1.20547e-06
1.20594e-06
1.20643e-06
1.20695e-06
1.20751e-06
1.20809e-06
1.2087e-06
1.20931e-06
1.20995e-06
1.2106e-06
1.21126e-06
1.21192e-06
1.21256e-06
1.21318e-06
1.21375e-06
1.21427e-06
1.21474e-06
1.21495e-06
1.21452e-06
1.21402e-06
1.21348e-06
1.21291e-06
1.21233e-06
1.21174e-06
1.21114e-06
1.21056e-06
1.20999e-06
1.20942e-06
1.20889e-06
1.20838e-06
1.20789e-06
1.20744e-06
1.20703e-06
1.20664e-06
1.20629e-06
1.20598e-06
1.20572e-06
1.20552e-06
1.20536e-06
1.20526e-06
1.20521e-06
1.20522e-06
1.20528e-06
1.20539e-06
1.20556e-06
1.20577e-06
1.20604e-06
1.20634e-06
1.20667e-06
1.20705e-06
1.20748e-06
1.20793e-06
1.2084e-06
1.20892e-06
1.20944e-06
1.21e-06
1.21055e-06
1.21113e-06
1.21171e-06
1.21231e-06
1.21289e-06
1.21346e-06
1.214e-06
1.2145e-06
1.21494e-06
1.21533e-06
1.21566e-06
1.21538e-06
1.21503e-06
1.21461e-06
1.21414e-06
1.21365e-06
1.21314e-06
1.21262e-06
1.21208e-06
1.21156e-06
1.21105e-06
1.21055e-06
1.21006e-06
1.20961e-06
1.20916e-06
1.20875e-06
1.20838e-06
1.20802e-06
1.2077e-06
1.20742e-06
1.20717e-06
1.20699e-06
1.20685e-06
1.20675e-06
1.2067e-06
1.20672e-06
1.20677e-06
1.20688e-06
1.20703e-06
1.20723e-06
1.20747e-06
1.20774e-06
1.20805e-06
1.20839e-06
1.20878e-06
1.2092e-06
1.20963e-06
1.21009e-06
1.21056e-06
1.21107e-06
1.21156e-06
1.21207e-06
1.21259e-06
1.21312e-06
1.21363e-06
1.21412e-06
1.21459e-06
1.21501e-06
1.21537e-06
1.21567e-06
1.21574e-06
1.21555e-06
1.21528e-06
1.21494e-06
1.21456e-06
1.21414e-06
1.2137e-06
1.21326e-06
1.21278e-06
1.21233e-06
1.21188e-06
1.21143e-06
1.211e-06
1.21059e-06
1.21019e-06
1.20983e-06
1.20949e-06
1.20917e-06
1.20887e-06
1.20861e-06
1.20839e-06
1.20823e-06
1.2081e-06
1.20801e-06
1.20797e-06
1.20798e-06
1.20803e-06
1.20813e-06
1.20827e-06
1.20845e-06
1.20867e-06
1.20892e-06
1.20919e-06
1.2095e-06
1.20986e-06
1.21023e-06
1.21061e-06
1.21103e-06
1.21144e-06
1.21189e-06
1.21233e-06
1.21277e-06
1.21322e-06
1.21368e-06
1.21412e-06
1.21454e-06
1.21493e-06
1.21526e-06
1.21554e-06
1.21576e-06
1.21557e-06
1.21547e-06
1.21528e-06
1.21502e-06
1.21471e-06
1.21438e-06
1.21401e-06
1.21364e-06
1.21323e-06
1.21284e-06
1.21245e-06
1.21206e-06
1.21168e-06
1.21133e-06
1.21098e-06
1.21065e-06
1.21035e-06
1.21007e-06
1.2098e-06
1.20957e-06
1.20937e-06
1.20922e-06
1.2091e-06
1.20902e-06
1.20899e-06
1.209e-06
1.20905e-06
1.20913e-06
1.20926e-06
1.20942e-06
1.20962e-06
1.20985e-06
1.21009e-06
1.21037e-06
1.21068e-06
1.21102e-06
1.21135e-06
1.21172e-06
1.21208e-06
1.21247e-06
1.21284e-06
1.21322e-06
1.2136e-06
1.21399e-06
1.21435e-06
1.2147e-06
1.21501e-06
1.21526e-06
1.21546e-06
1.21558e-06
1.21512e-06
1.21511e-06
1.21501e-06
1.21483e-06
1.21461e-06
1.21435e-06
1.21405e-06
1.21375e-06
1.21342e-06
1.2131e-06
1.21277e-06
1.21244e-06
1.21212e-06
1.21181e-06
1.2115e-06
1.21123e-06
1.21097e-06
1.21072e-06
1.21048e-06
1.21027e-06
1.21009e-06
1.20996e-06
1.20986e-06
1.20979e-06
1.20976e-06
1.20977e-06
1.20981e-06
1.20989e-06
1.21e-06
1.21015e-06
1.21033e-06
1.21052e-06
1.21073e-06
1.21098e-06
1.21126e-06
1.21155e-06
1.21184e-06
1.21215e-06
1.21245e-06
1.21278e-06
1.21309e-06
1.2134e-06
1.21372e-06
1.21403e-06
1.21432e-06
1.21459e-06
1.21482e-06
1.21499e-06
1.2151e-06
1.21513e-06
1.21438e-06
1.21446e-06
1.21445e-06
1.21436e-06
1.21422e-06
1.21404e-06
1.21382e-06
1.2136e-06
1.21334e-06
1.21308e-06
1.21282e-06
1.21255e-06
1.21228e-06
1.21202e-06
1.21177e-06
1.21153e-06
1.21131e-06
1.2111e-06
1.21089e-06
1.21071e-06
1.21056e-06
1.21045e-06
1.21035e-06
1.21029e-06
1.21027e-06
1.21028e-06
1.21032e-06
1.21038e-06
1.21048e-06
1.21061e-06
1.21077e-06
1.21093e-06
1.21112e-06
1.21133e-06
1.21156e-06
1.21181e-06
1.21206e-06
1.21231e-06
1.21256e-06
1.21283e-06
1.21308e-06
1.21332e-06
1.21356e-06
1.2138e-06
1.21401e-06
1.2142e-06
1.21435e-06
1.21443e-06
1.21445e-06
1.2144e-06
1.21335e-06
1.21352e-06
1.2136e-06
1.21359e-06
1.21354e-06
1.21344e-06
1.21331e-06
1.21315e-06
1.21297e-06
1.21278e-06
1.21258e-06
1.21237e-06
1.21216e-06
1.21196e-06
1.21175e-06
1.21157e-06
1.21139e-06
1.21121e-06
1.21103e-06
1.21088e-06
1.21075e-06
1.21065e-06
1.21058e-06
1.21052e-06
1.2105e-06
1.21051e-06
1.21055e-06
1.21061e-06
1.21069e-06
1.2108e-06
1.21093e-06
1.21107e-06
1.21122e-06
1.2114e-06
1.2116e-06
1.2118e-06
1.21199e-06
1.2122e-06
1.21239e-06
1.2126e-06
1.21278e-06
1.21295e-06
1.21312e-06
1.21329e-06
1.21342e-06
1.21352e-06
1.21359e-06
1.21358e-06
1.21351e-06
1.21336e-06
1.212e-06
1.21227e-06
1.21244e-06
1.21252e-06
1.21256e-06
1.21254e-06
1.21249e-06
1.21242e-06
1.21231e-06
1.21219e-06
1.21205e-06
1.21191e-06
1.21176e-06
1.21161e-06
1.21145e-06
1.21131e-06
1.21117e-06
1.21103e-06
1.21088e-06
1.21076e-06
1.21065e-06
1.21058e-06
1.21052e-06
1.21047e-06
1.21046e-06
1.21047e-06
1.2105e-06
1.21055e-06
1.21062e-06
1.21071e-06
1.21082e-06
1.21093e-06
1.21105e-06
1.21119e-06
1.21134e-06
1.2115e-06
1.21164e-06
1.21179e-06
1.21192e-06
1.21207e-06
1.21219e-06
1.21229e-06
1.21238e-06
1.21247e-06
1.21252e-06
1.21254e-06
1.21252e-06
1.21242e-06
1.21226e-06
1.21202e-06
1.21033e-06
1.2107e-06
1.21096e-06
1.21114e-06
1.21126e-06
1.21133e-06
1.21136e-06
1.21137e-06
1.21134e-06
1.21128e-06
1.21122e-06
1.21114e-06
1.21105e-06
1.21095e-06
1.21085e-06
1.21076e-06
1.21066e-06
1.21056e-06
1.21044e-06
1.21035e-06
1.21026e-06
1.21021e-06
1.21016e-06
1.21013e-06
1.21011e-06
1.21012e-06
1.21015e-06
1.21019e-06
1.21025e-06
1.21032e-06
1.2104e-06
1.21049e-06
1.21057e-06
1.21067e-06
1.21078e-06
1.2109e-06
1.21099e-06
1.21108e-06
1.21115e-06
1.21124e-06
1.21128e-06
1.21131e-06
1.21133e-06
1.21134e-06
1.21131e-06
1.21124e-06
1.21113e-06
1.21094e-06
1.21068e-06
1.21034e-06
1.20832e-06
1.20878e-06
1.20914e-06
1.20941e-06
1.20962e-06
1.20979e-06
1.2099e-06
1.20999e-06
1.21004e-06
1.21006e-06
1.21007e-06
1.21006e-06
1.21002e-06
1.20998e-06
1.20993e-06
1.20989e-06
1.20983e-06
1.20977e-06
1.20969e-06
1.20962e-06
1.20957e-06
1.20953e-06
1.20949e-06
1.20947e-06
1.20946e-06
1.20947e-06
1.20949e-06
1.20952e-06
1.20956e-06
1.20961e-06
1.20967e-06
1.20973e-06
1.20978e-06
1.20985e-06
1.20991e-06
1.20998e-06
1.21002e-06
1.21006e-06
1.21007e-06
1.21008e-06
1.21006e-06
1.21001e-06
1.20996e-06
1.20988e-06
1.20976e-06
1.20961e-06
1.20941e-06
1.20913e-06
1.20877e-06
1.20833e-06
1.20595e-06
1.20651e-06
1.20697e-06
1.20734e-06
1.20764e-06
1.2079e-06
1.2081e-06
1.20827e-06
1.2084e-06
1.2085e-06
1.20858e-06
1.20863e-06
1.20866e-06
1.20868e-06
1.20868e-06
1.20869e-06
1.20868e-06
1.20865e-06
1.20861e-06
1.20857e-06
1.20854e-06
1.20852e-06
1.2085e-06
1.20849e-06
1.20849e-06
1.2085e-06
1.20851e-06
1.20853e-06
1.20856e-06
1.20859e-06
1.20862e-06
1.20865e-06
1.20867e-06
1.20869e-06
1.20872e-06
1.20873e-06
1.20872e-06
1.2087e-06
1.20864e-06
1.20859e-06
1.2085e-06
1.20838e-06
1.20824e-06
1.20808e-06
1.20787e-06
1.20763e-06
1.20734e-06
1.20696e-06
1.2065e-06
1.20596e-06
1.20319e-06
1.20387e-06
1.20443e-06
1.2049e-06
1.2053e-06
1.20565e-06
1.20594e-06
1.20619e-06
1.20641e-06
1.20658e-06
1.20673e-06
1.20686e-06
1.20695e-06
1.20704e-06
1.20709e-06
1.20715e-06
1.20718e-06
1.2072e-06
1.20719e-06
1.20718e-06
1.20718e-06
1.20718e-06
1.20717e-06
1.20717e-06
1.20718e-06
1.20718e-06
1.2072e-06
1.2072e-06
1.20721e-06
1.20722e-06
1.20723e-06
1.20723e-06
1.20721e-06
1.20719e-06
1.20717e-06
1.20714e-06
1.20708e-06
1.20699e-06
1.20687e-06
1.20675e-06
1.20659e-06
1.20638e-06
1.20617e-06
1.20591e-06
1.20562e-06
1.20528e-06
1.20489e-06
1.20442e-06
1.20385e-06
1.2032e-06
1.20005e-06
1.20083e-06
1.2015e-06
1.20207e-06
1.20256e-06
1.20301e-06
1.2034e-06
1.20374e-06
1.20404e-06
1.20429e-06
1.20452e-06
1.20472e-06
1.20488e-06
1.20502e-06
1.20513e-06
1.20524e-06
1.20532e-06
1.20538e-06
1.20541e-06
1.20543e-06
1.20545e-06
1.20547e-06
1.20549e-06
1.2055e-06
1.2055e-06
1.20551e-06
1.20552e-06
1.20551e-06
1.20551e-06
1.2055e-06
1.20548e-06
1.20545e-06
1.20539e-06
1.20534e-06
1.20527e-06
1.20519e-06
1.20506e-06
1.20492e-06
1.20473e-06
1.20454e-06
1.2043e-06
1.20401e-06
1.20371e-06
1.20337e-06
1.20299e-06
1.20256e-06
1.20207e-06
1.20149e-06
1.20081e-06
1.20006e-06
1.19648e-06
1.19738e-06
1.19816e-06
1.19883e-06
1.19943e-06
1.19998e-06
1.20046e-06
1.20089e-06
1.20128e-06
1.20161e-06
1.20192e-06
1.20219e-06
1.20242e-06
1.20262e-06
1.20279e-06
1.20296e-06
1.20308e-06
1.20318e-06
1.20325e-06
1.20331e-06
1.20336e-06
1.20339e-06
1.20342e-06
1.20345e-06
1.20346e-06
1.20347e-06
1.20347e-06
1.20345e-06
1.20343e-06
1.2034e-06
1.20335e-06
1.20329e-06
1.2032e-06
1.2031e-06
1.20298e-06
1.20285e-06
1.20267e-06
1.20245e-06
1.2022e-06
1.20194e-06
1.20162e-06
1.20125e-06
1.20086e-06
1.20043e-06
1.19995e-06
1.19942e-06
1.19883e-06
1.19815e-06
1.19736e-06
1.19649e-06
1.19247e-06
1.19349e-06
1.19438e-06
1.19516e-06
1.19587e-06
1.19651e-06
1.1971e-06
1.19762e-06
1.1981e-06
1.19852e-06
1.19891e-06
1.19926e-06
1.19955e-06
1.19982e-06
1.20005e-06
1.20027e-06
1.20045e-06
1.20059e-06
1.20069e-06
1.20078e-06
1.20086e-06
1.20092e-06
1.20097e-06
1.201e-06
1.20102e-06
1.20103e-06
1.20102e-06
1.201e-06
1.20096e-06
1.2009e-06
1.20082e-06
1.20073e-06
1.2006e-06
1.20046e-06
1.20029e-06
1.2001e-06
1.19987e-06
1.19959e-06
1.19926e-06
1.19893e-06
1.19852e-06
1.19807e-06
1.19759e-06
1.19707e-06
1.19649e-06
1.19586e-06
1.19516e-06
1.19437e-06
1.19347e-06
1.19248e-06
1.188e-06
1.18913e-06
1.19014e-06
1.19104e-06
1.19185e-06
1.19261e-06
1.19329e-06
1.19391e-06
1.19448e-06
1.19499e-06
1.19546e-06
1.19589e-06
1.19625e-06
1.19659e-06
1.19688e-06
1.19715e-06
1.19738e-06
1.19757e-06
1.19772e-06
1.19784e-06
1.19794e-06
1.19803e-06
1.19809e-06
1.19814e-06
1.19816e-06
1.19817e-06
1.19816e-06
1.19812e-06
1.19807e-06
1.19798e-06
1.19788e-06
1.19775e-06
1.19758e-06
1.1974e-06
1.19718e-06
1.19693e-06
1.19664e-06
1.19629e-06
1.19589e-06
1.19548e-06
1.19499e-06
1.19446e-06
1.19388e-06
1.19326e-06
1.19258e-06
1.19185e-06
1.19104e-06
1.19013e-06
1.18912e-06
1.18801e-06
1.18304e-06
1.18429e-06
1.18542e-06
1.18644e-06
1.18736e-06
1.18822e-06
1.18901e-06
1.18974e-06
1.1904e-06
1.191e-06
1.19155e-06
1.19206e-06
1.1925e-06
1.19291e-06
1.19326e-06
1.19359e-06
1.19387e-06
1.19411e-06
1.19429e-06
1.19446e-06
1.19459e-06
1.19469e-06
1.19478e-06
1.19483e-06
1.19487e-06
1.19488e-06
1.19485e-06
1.1948e-06
1.19473e-06
1.19462e-06
1.19449e-06
1.19433e-06
1.19412e-06
1.19389e-06
1.19362e-06
1.19331e-06
1.19295e-06
1.19254e-06
1.19207e-06
1.19157e-06
1.191e-06
1.19037e-06
1.1897e-06
1.18898e-06
1.1882e-06
1.18735e-06
1.18643e-06
1.18542e-06
1.18428e-06
1.18304e-06
1.17755e-06
1.17893e-06
1.18018e-06
1.18132e-06
1.18236e-06
1.18334e-06
1.18424e-06
1.18507e-06
1.18583e-06
1.18652e-06
1.18716e-06
1.18775e-06
1.18827e-06
1.18874e-06
1.18917e-06
1.18956e-06
1.18989e-06
1.19017e-06
1.1904e-06
1.1906e-06
1.19076e-06
1.19089e-06
1.19099e-06
1.19106e-06
1.1911e-06
1.19111e-06
1.19108e-06
1.19102e-06
1.19093e-06
1.1908e-06
1.19063e-06
1.19043e-06
1.19019e-06
1.18991e-06
1.18958e-06
1.18921e-06
1.18879e-06
1.1883e-06
1.18776e-06
1.18718e-06
1.18652e-06
1.1858e-06
1.18503e-06
1.1842e-06
1.18331e-06
1.18236e-06
1.18132e-06
1.18018e-06
1.17892e-06
1.17756e-06
1.17151e-06
1.17302e-06
1.1744e-06
1.17567e-06
1.17682e-06
1.17792e-06
1.17893e-06
1.17987e-06
1.18073e-06
1.18152e-06
1.18225e-06
1.18292e-06
1.18353e-06
1.18407e-06
1.18456e-06
1.18502e-06
1.1854e-06
1.18573e-06
1.18601e-06
1.18625e-06
1.18644e-06
1.18659e-06
1.18672e-06
1.18679e-06
1.18684e-06
1.18685e-06
1.18682e-06
1.18674e-06
1.18664e-06
1.18647e-06
1.18628e-06
1.18604e-06
1.18575e-06
1.18542e-06
1.18504e-06
1.18461e-06
1.18412e-06
1.18356e-06
1.18294e-06
1.18227e-06
1.18152e-06
1.1807e-06
1.17983e-06
1.1789e-06
1.1779e-06
1.17682e-06
1.17566e-06
1.1744e-06
1.17301e-06
1.17152e-06
1.16487e-06
1.16653e-06
1.16804e-06
1.16944e-06
1.17072e-06
1.17193e-06
1.17306e-06
1.17411e-06
1.17508e-06
1.17596e-06
1.17679e-06
1.17755e-06
1.17824e-06
1.17886e-06
1.17942e-06
1.17994e-06
1.18038e-06
1.18077e-06
1.18109e-06
1.18137e-06
1.18158e-06
1.18177e-06
1.18191e-06
1.182e-06
1.18206e-06
1.18207e-06
1.18202e-06
1.18194e-06
1.18181e-06
1.18162e-06
1.18139e-06
1.18111e-06
1.18078e-06
1.1804e-06
1.17997e-06
1.17947e-06
1.17891e-06
1.17827e-06
1.17757e-06
1.17681e-06
1.17597e-06
1.17505e-06
1.17407e-06
1.17303e-06
1.17191e-06
1.17072e-06
1.16943e-06
1.16805e-06
1.16652e-06
1.16489e-06
1.15762e-06
1.15941e-06
1.16107e-06
1.1626e-06
1.16401e-06
1.16535e-06
1.1666e-06
1.16776e-06
1.16884e-06
1.16983e-06
1.17075e-06
1.17161e-06
1.17238e-06
1.17308e-06
1.17371e-06
1.1743e-06
1.1748e-06
1.17523e-06
1.1756e-06
1.17592e-06
1.17617e-06
1.17638e-06
1.17655e-06
1.17665e-06
1.17671e-06
1.17672e-06
1.17667e-06
1.17657e-06
1.17643e-06
1.17621e-06
1.17594e-06
1.17563e-06
1.17525e-06
1.17482e-06
1.17432e-06
1.17376e-06
1.17313e-06
1.17241e-06
1.17162e-06
1.17077e-06
1.16983e-06
1.16881e-06
1.16772e-06
1.16656e-06
1.16533e-06
1.16401e-06
1.16259e-06
1.16107e-06
1.15941e-06
1.15763e-06
1.1497e-06
1.15164e-06
1.15344e-06
1.15511e-06
1.15665e-06
1.15812e-06
1.1595e-06
1.16078e-06
1.16197e-06
1.16306e-06
1.16409e-06
1.16504e-06
1.1659e-06
1.16668e-06
1.16739e-06
1.16805e-06
1.16861e-06
1.1691e-06
1.16951e-06
1.16988e-06
1.17016e-06
1.1704e-06
1.17058e-06
1.1707e-06
1.17077e-06
1.17078e-06
1.17073e-06
1.17061e-06
1.17045e-06
1.1702e-06
1.1699e-06
1.16954e-06
1.16911e-06
1.16863e-06
1.16807e-06
1.16744e-06
1.16673e-06
1.16593e-06
1.16506e-06
1.16411e-06
1.16307e-06
1.16194e-06
1.16074e-06
1.15946e-06
1.1581e-06
1.15665e-06
1.15511e-06
1.15345e-06
1.15164e-06
1.14971e-06
1.14107e-06
1.14316e-06
1.14512e-06
1.14692e-06
1.14861e-06
1.15021e-06
1.15172e-06
1.15313e-06
1.15444e-06
1.15564e-06
1.15676e-06
1.15781e-06
1.15877e-06
1.15963e-06
1.16042e-06
1.16115e-06
1.16177e-06
1.16232e-06
1.16279e-06
1.1632e-06
1.16351e-06
1.16379e-06
1.16399e-06
1.16412e-06
1.1642e-06
1.16421e-06
1.16415e-06
1.16401e-06
1.16383e-06
1.16355e-06
1.16321e-06
1.16281e-06
1.16234e-06
1.16179e-06
1.16117e-06
1.16047e-06
1.15969e-06
1.1588e-06
1.15783e-06
1.15679e-06
1.15564e-06
1.1544e-06
1.15308e-06
1.15169e-06
1.1502e-06
1.14861e-06
1.14692e-06
1.14512e-06
1.14317e-06
1.14108e-06
1.13168e-06
1.13394e-06
1.13604e-06
1.138e-06
1.13983e-06
1.14158e-06
1.14322e-06
1.14475e-06
1.14618e-06
1.1475e-06
1.14874e-06
1.14989e-06
1.15094e-06
1.15189e-06
1.15276e-06
1.15356e-06
1.15425e-06
1.15486e-06
1.15538e-06
1.15583e-06
1.15618e-06
1.15649e-06
1.15671e-06
1.15686e-06
1.15695e-06
1.15695e-06
1.15688e-06
1.15674e-06
1.15653e-06
1.15622e-06
1.15585e-06
1.1554e-06
1.15487e-06
1.15427e-06
1.15358e-06
1.15281e-06
1.15195e-06
1.15097e-06
1.14991e-06
1.14876e-06
1.1475e-06
1.14615e-06
1.14471e-06
1.14318e-06
1.14156e-06
1.13983e-06
1.138e-06
1.13605e-06
1.13394e-06
1.13169e-06
1.12149e-06
1.12391e-06
1.12618e-06
1.12829e-06
1.13027e-06
1.13216e-06
1.13394e-06
1.13561e-06
1.13717e-06
1.1386e-06
1.13995e-06
1.14121e-06
1.14236e-06
1.1434e-06
1.14435e-06
1.14523e-06
1.14599e-06
1.14667e-06
1.14724e-06
1.14774e-06
1.14813e-06
1.14846e-06
1.14871e-06
1.14887e-06
1.14897e-06
1.14897e-06
1.1489e-06
1.14874e-06
1.1485e-06
1.14816e-06
1.14775e-06
1.14725e-06
1.14667e-06
1.14601e-06
1.14526e-06
1.1444e-06
1.14346e-06
1.14239e-06
1.14123e-06
1.13997e-06
1.13861e-06
1.13713e-06
1.13556e-06
1.13391e-06
1.13214e-06
1.13027e-06
1.12829e-06
1.12619e-06
1.12392e-06
1.1215e-06
1.11043e-06
1.11303e-06
1.11546e-06
1.11774e-06
1.11988e-06
1.12192e-06
1.12384e-06
1.12565e-06
1.12734e-06
1.12889e-06
1.13036e-06
1.13173e-06
1.13299e-06
1.13412e-06
1.13515e-06
1.13611e-06
1.13695e-06
1.13769e-06
1.13831e-06
1.13886e-06
1.13929e-06
1.13966e-06
1.13993e-06
1.14011e-06
1.14021e-06
1.14022e-06
1.14014e-06
1.13996e-06
1.1397e-06
1.13933e-06
1.13887e-06
1.13833e-06
1.13769e-06
1.13697e-06
1.13614e-06
1.1352e-06
1.13418e-06
1.13301e-06
1.13175e-06
1.13038e-06
1.1289e-06
1.1273e-06
1.1256e-06
1.12381e-06
1.1219e-06
1.11988e-06
1.11774e-06
1.11547e-06
1.11304e-06
1.11045e-06
1.09846e-06
1.10124e-06
1.10384e-06
1.10629e-06
1.10859e-06
1.11078e-06
1.11286e-06
1.1148e-06
1.11663e-06
1.11832e-06
1.11991e-06
1.12139e-06
1.12275e-06
1.12398e-06
1.12511e-06
1.12615e-06
1.12706e-06
1.12786e-06
1.12855e-06
1.12915e-06
1.12962e-06
1.13002e-06
1.13032e-06
1.13051e-06
1.13062e-06
1.13063e-06
1.13054e-06
1.13035e-06
1.13006e-06
1.12966e-06
1.12916e-06
1.12857e-06
1.12787e-06
1.12708e-06
1.12618e-06
1.12516e-06
1.12404e-06
1.12278e-06
1.12141e-06
1.11993e-06
1.11832e-06
1.11659e-06
1.11476e-06
1.11282e-06
1.11076e-06
1.10859e-06
1.10629e-06
1.10385e-06
1.10125e-06
1.09848e-06
1.08551e-06
1.08847e-06
1.09125e-06
1.09387e-06
1.09634e-06
1.0987e-06
1.10092e-06
1.10302e-06
1.10499e-06
1.10681e-06
1.10853e-06
1.11013e-06
1.1116e-06
1.11293e-06
1.11415e-06
1.11528e-06
1.11626e-06
1.11714e-06
1.11789e-06
1.11854e-06
1.11905e-06
1.11949e-06
1.11981e-06
1.12002e-06
1.12014e-06
1.12015e-06
1.12005e-06
1.11984e-06
1.11952e-06
1.11909e-06
1.11855e-06
1.1179e-06
1.11714e-06
1.11629e-06
1.11531e-06
1.1142e-06
1.11299e-06
1.11163e-06
1.11015e-06
1.10855e-06
1.10682e-06
1.10495e-06
1.10298e-06
1.10089e-06
1.09867e-06
1.09634e-06
1.09387e-06
1.09126e-06
1.08848e-06
1.08552e-06
1.0715e-06
1.07465e-06
1.07763e-06
1.08043e-06
1.08306e-06
1.08559e-06
1.08798e-06
1.09023e-06
1.09234e-06
1.0943e-06
1.09615e-06
1.09787e-06
1.09946e-06
1.1009e-06
1.10221e-06
1.10343e-06
1.1045e-06
1.10545e-06
1.10626e-06
1.10697e-06
1.10752e-06
1.10799e-06
1.10834e-06
1.10857e-06
1.1087e-06
1.10871e-06
1.1086e-06
1.10838e-06
1.10802e-06
1.10756e-06
1.10697e-06
1.10627e-06
1.10545e-06
1.10452e-06
1.10346e-06
1.10226e-06
1.10095e-06
1.09949e-06
1.0979e-06
1.09617e-06
1.09431e-06
1.09231e-06
1.09018e-06
1.08794e-06
1.08556e-06
1.08306e-06
1.08042e-06
1.07763e-06
1.07466e-06
1.07152e-06
1.05637e-06
1.05972e-06
1.06289e-06
1.06587e-06
1.06869e-06
1.07139e-06
1.07394e-06
1.07635e-06
1.07862e-06
1.08072e-06
1.08271e-06
1.08456e-06
1.08626e-06
1.08781e-06
1.08923e-06
1.09054e-06
1.09169e-06
1.09271e-06
1.09359e-06
1.09435e-06
1.09496e-06
1.09546e-06
1.09584e-06
1.09609e-06