/*--------------------------------*- C++ -*----------------------------------*\
  =========                 |
  \\      /  F ield         | OpenFOAM: The Open Source CFD Toolbox
   \\    /   O peration     | Website:  https://openfoam.org
    \\  /    A nd           | Version:  7
     \\/     M anipulation  |
\*---------------------------------------------------------------------------*/
FoamFile
{
    version     2.0;
    format      ascii;
    class       volScalarField;
    location    "112000";
    object      p;
}
// * * * * * * * * * * * * * * * * * * * * * * * * * * * * * * * * * * * * * //

dimensions      [0 2 -2 0 0 0 0];

internalField   nonuniform List<scalar> 
4764
(
-2.09694e-19
-2.04431e-19
-2.24617e-19
-2.12753e-19
-2.29269e-19
-2.09048e-19
-1.81365e-19
-2.02422e-19
-1.95367e-19
-1.99749e-19
-1.92845e-19
-2.00335e-19
-1.89224e-19
-2.22309e-19
-2.1421e-19
-2.11672e-19
-2.07443e-19
-2.18195e-19
-2.17296e-19
-2.22632e-19
-2.14063e-19
-2.2913e-19
-2.19478e-19
-2.32397e-19
-2.25378e-19
-2.39139e-19
-2.34274e-19
-2.4268e-19
-2.31367e-19
-2.36465e-19
-2.45501e-19
-2.46199e-19
-2.70438e-19
-2.67999e-19
-2.67446e-19
-1.7727e-19
-1.94935e-19
-1.9337e-19
-1.93917e-19
-1.86038e-19
-1.96946e-19
-1.8217e-19
-2.1252e-19
-2.1488e-19
-2.14772e-19
-2.1126e-19
-2.25546e-19
-2.14915e-19
-2.20838e-19
-2.19695e-19
-2.25607e-19
-2.26464e-19
-2.30572e-19
-2.26461e-19
-2.3896e-19
-2.40489e-19
-2.4351e-19
-2.32591e-19
-2.38424e-19
-2.46301e-19
-2.51243e-19
-2.63741e-19
-2.67753e-19
-2.60284e-19
-2.73427e-19
-2.72688e-19
-2.67267e-19
-2.56525e-19
-1.76766e-19
-1.94367e-19
-1.97884e-19
-1.98133e-19
-1.85556e-19
-2.08275e-19
-1.96408e-19
-2.05558e-19
-2.07858e-19
-2.22299e-19
-2.12497e-19
-2.26595e-19
-2.14484e-19
-2.2252e-19
-2.21788e-19
-2.22217e-19
-2.26616e-19
-2.28913e-19
-2.28338e-19
-2.38982e-19
-2.44364e-19
-2.39019e-19
-2.30156e-19
-2.36985e-19
-2.50479e-19
-2.4386e-19
-2.59516e-19
-2.58852e-19
-2.55069e-19
-2.69236e-19
-2.69771e-19
-2.59693e-19
-2.60047e-19
-2.58568e-19
-2.3457e-19
-2.53714e-19
-2.40865e-19
-2.45485e-19
-2.30697e-19
-2.25511e-19
-1.96693e-19
-2.25417e-19
-1.96068e-19
-2.10777e-19
-1.89021e-19
-1.77613e-19
-1.88685e-19
-1.89504e-19
-1.99274e-19
-1.81269e-19
-2.01637e-19
-1.98196e-19
-2.06409e-19
-2.12681e-19
-2.13801e-19
-2.12214e-19
-2.25896e-19
-2.10427e-19
-2.17758e-19
-2.21637e-19
-2.27571e-19
-2.21311e-19
-2.35006e-19
-2.25598e-19
-2.39096e-19
-2.35194e-19
-2.3685e-19
-2.24188e-19
-2.38745e-19
-2.47278e-19
-2.40574e-19
-2.57831e-19
-2.58883e-19
-2.67096e-19
-2.60978e-19
-2.74701e-19
-2.58571e-19
-2.58127e-19
-2.53914e-19
-2.41985e-19
-2.51506e-19
-2.34575e-19
-2.47393e-19
-2.34368e-19
-2.30079e-19
-2.0104e-19
-2.21267e-19
-1.92841e-19
-1.95519e-19
-1.87649e-19
-1.74641e-19
-1.90637e-19
-1.82161e-19
-1.92332e-19
-1.91316e-19
-1.95476e-19
-1.92287e-19
-2.14764e-19
-2.13236e-19
-2.19423e-19
-2.1921e-19
-2.20305e-19
-2.08197e-19
-2.12035e-19
-2.17126e-19
-2.25481e-19
-2.23313e-19
-2.37071e-19
-2.27918e-19
-2.40587e-19
-2.31473e-19
-2.33874e-19
-2.28671e-19
-2.46001e-19
-2.45464e-19
-2.42334e-19
-2.60768e-19
-2.55564e-19
-2.63043e-19
-2.5896e-19
-2.66101e-19
-2.61497e-19
-2.49879e-19
-2.58007e-19
-2.48956e-19
-2.47611e-19
-2.35342e-19
-2.51796e-19
-2.26258e-19
-2.38133e-19
-2.06658e-19
-2.22038e-19
-1.80855e-19
-2.02484e-19
-1.86435e-19
-1.87584e-19
-2.02291e-19
-1.91323e-19
-2.12825e-19
-1.9696e-19
-2.0423e-19
-1.95533e-19
-2.11774e-19
-2.11545e-19
-2.25065e-19
-2.16542e-19
-2.24562e-19
-2.12118e-19
-2.2234e-19
-2.13687e-19
-2.2252e-19
-2.22885e-19
-2.37342e-19
-2.29846e-19
-2.44554e-19
-2.31889e-19
-2.28932e-19
-2.26317e-19
-2.34239e-19
-2.45854e-19
-2.50117e-19
-2.58732e-19
-2.56346e-19
-2.57114e-19
-2.57855e-19
-2.58871e-19
-2.571e-19
-2.53046e-19
-2.58108e-19
-2.43103e-19
-2.40784e-19
-2.15802e-19
-2.35921e-19
-2.19792e-19
-2.27035e-19
-2.05319e-19
-2.21539e-19
-1.90777e-19
-2.05809e-19
-1.92856e-19
-1.91534e-19
-2.00835e-19
-1.89603e-19
-2.06791e-19
-1.84623e-19
-1.98594e-19
-2.02513e-19
-2.10121e-19
-2.05494e-19
-2.22613e-19
-2.17836e-19
-2.21743e-19
-2.12479e-19
-2.25446e-19
-2.12117e-19
-2.24989e-19
-2.25393e-19
-2.34794e-19
-2.3139e-19
-2.4574e-19
-2.34253e-19
-2.29324e-19
-2.25939e-19
-2.29955e-19
-2.46359e-19
-2.5037e-19
-2.53753e-19
-2.53926e-19
-2.59651e-19
-2.50491e-19
-2.6014e-19
-2.53847e-19
-2.54995e-19
-2.51242e-19
-2.40257e-19
-2.45755e-19
-2.23695e-19
-2.38278e-19
-2.22304e-19
-2.22636e-19
-2.02463e-19
-2.16645e-19
-1.91347e-19
-2.07456e-19
-1.947e-19
-1.77821e-19
-1.95637e-19
-1.8548e-19
-2.05463e-19
-1.89253e-19
-2.05426e-19
-2.06271e-19
-2.1175e-19
-2.0126e-19
-2.21548e-19
-2.13823e-19
-2.25357e-19
-2.07325e-19
-2.2787e-19
-2.15348e-19
-2.26574e-19
-2.21494e-19
-2.3559e-19
-2.29519e-19
-2.42112e-19
-2.3025e-19
-2.34886e-19
-2.29612e-19
-2.25545e-19
-2.42902e-19
-2.4545e-19
-2.49934e-19
-2.55599e-19
-2.57218e-19
-2.5739e-19
-2.59576e-19
-2.6081e-19
-2.54939e-19
-2.51746e-19
-2.43346e-19
-2.41898e-19
-2.30965e-19
-2.44067e-19
-2.25563e-19
-2.32683e-19
-2.06195e-19
-2.14349e-19
-1.894e-19
-2.15439e-19
-1.91139e-19
-1.74651e-19
-1.96849e-19
-1.87995e-19
-2.04642e-19
-1.95374e-19
-2.05335e-19
-1.98811e-19
-2.17627e-19
-2.09817e-19
-2.18869e-19
-2.17719e-19
-2.31386e-19
-2.01674e-19
-2.24619e-19
-2.17157e-19
-2.24282e-19
-2.18384e-19
-2.33597e-19
-2.29442e-19
-2.40948e-19
-2.26057e-19
-2.34374e-19
-2.30148e-19
-2.31121e-19
-2.41764e-19
-2.41597e-19
-2.52283e-19
-2.56292e-19
-2.48734e-19
-2.62135e-19
-2.61067e-19
-2.61701e-19
-2.50805e-19
-2.58373e-19
-2.34216e-19
-2.43256e-19
-2.25791e-19
-2.43218e-19
-2.29441e-19
-2.38068e-19
-2.07914e-19
-2.15468e-19
-1.90785e-19
-2.16577e-19
-1.81225e-19
-1.79717e-19
-2.03354e-19
-1.88176e-19
-2.03191e-19
-1.87295e-19
-1.95546e-19
-2.00058e-19
-2.16802e-19
-2.17019e-19
-2.18372e-19
-2.14332e-19
-2.30912e-19
-2.06412e-19
-2.27884e-19
-2.14697e-19
-2.23214e-19
-2.20055e-19
-2.34937e-19
-2.29137e-19
-2.40181e-19
-2.26641e-19
-2.34055e-19
-2.27575e-19
-2.35475e-19
-2.39794e-19
-2.41678e-19
-2.48658e-19
-2.54129e-19
-2.48111e-19
-2.65016e-19
-2.59516e-19
-2.57746e-19
-2.47476e-19
-2.5142e-19
-2.50574e-19
-2.4693e-19
-2.27135e-19
-2.3689e-19
-2.27584e-19
-2.37994e-19
-1.9937e-19
-2.17481e-19
-1.95868e-19
-2.04406e-19
-1.78029e-19
-1.86547e-19
-1.99614e-19
-1.92824e-19
-2.06057e-19
-1.87802e-19
-2.03549e-19
-2.01125e-19
-2.13258e-19
-2.1721e-19
-2.17953e-19
-2.14663e-19
-2.23084e-19
-2.13425e-19
-2.24629e-19
-2.18923e-19
-2.2033e-19
-2.18463e-19
-2.36543e-19
-2.33579e-19
-2.38772e-19
-2.23937e-19
-2.32941e-19
-2.31812e-19
-2.34847e-19
-2.3988e-19
-2.40699e-19
-2.4511e-19
-2.49183e-19
-2.51147e-19
-2.54329e-19
-2.58926e-19
-2.45102e-19
-2.46956e-19
-2.42674e-19
-2.44244e-19
-2.43933e-19
-2.30025e-19
-2.32829e-19
-2.20666e-19
-2.2744e-19
-2.03249e-19
-2.13717e-19
-1.8616e-19
-1.98548e-19
-1.78127e-19
-1.87674e-19
-1.98557e-19
-1.89979e-19
-2.05437e-19
-1.88355e-19
-1.99131e-19
-2.07791e-19
-2.08901e-19
-2.11612e-19
-2.22454e-19
-2.14832e-19
-2.22435e-19
-2.16151e-19
-2.24579e-19
-2.17113e-19
-2.18508e-19
-2.20545e-19
-2.32517e-19
-2.30972e-19
-2.40599e-19
-2.25861e-19
-2.3591e-19
-2.3692e-19
-2.33226e-19
-2.35125e-19
-2.39691e-19
-2.43579e-19
-2.50203e-19
-2.47297e-19
-2.54497e-19
-2.54699e-19
-2.4991e-19
-2.52336e-19
-2.35912e-19
-2.4382e-19
-2.43078e-19
-2.24996e-19
-2.37621e-19
-2.23626e-19
-2.29306e-19
-2.04769e-19
-2.12317e-19
-1.81775e-19
-1.95063e-19
-1.79126e-19
-1.94386e-19
-1.81438e-19
-2.02442e-19
-1.8642e-19
-2.00959e-19
-1.86666e-19
-1.96226e-19
-2.06356e-19
-2.16998e-19
-2.10774e-19
-2.24247e-19
-2.17684e-19
-2.23894e-19
-2.12867e-19
-2.27625e-19
-2.10382e-19
-2.20567e-19
-2.20529e-19
-2.30655e-19
-2.29221e-19
-2.39815e-19
-2.31307e-19
-2.39928e-19
-2.35247e-19
-2.32528e-19
-2.37172e-19
-2.43537e-19
-2.46861e-19
-2.56152e-19
-2.45302e-19
-2.50913e-19
-2.55392e-19
-2.52649e-19
-2.46417e-19
-2.37523e-19
-2.42087e-19
-2.4387e-19
-2.26769e-19
-2.43608e-19
-2.21142e-19
-2.34308e-19
-2.00758e-19
-2.14165e-19
-1.82992e-19
-1.96119e-19
-1.7506e-19
-1.90321e-19
-1.87373e-19
-1.96035e-19
-1.96028e-19
-2.08063e-19
-1.90793e-19
-2.04129e-19
-1.96014e-19
-2.12004e-19
-2.11122e-19
-2.16335e-19
-2.17496e-19
-2.23647e-19
-2.15004e-19
-2.27221e-19
-2.12919e-19
-2.26532e-19
-2.18474e-19
-2.38502e-19
-2.2734e-19
-2.38328e-19
-2.28825e-19
-2.31656e-19
-2.28808e-19
-2.31751e-19
-2.34411e-19
-2.39757e-19
-2.49074e-19
-2.50877e-19
-2.54513e-19
-2.45505e-19
-2.59002e-19
-2.49736e-19
-2.49559e-19
-2.47402e-19
-2.3526e-19
-2.35069e-19
-2.23003e-19
-2.38818e-19
-2.25696e-19
-2.26374e-19
-2.05491e-19
-2.13738e-19
-1.9057e-19
-1.96155e-19
-1.80525e-19
-1.86932e-19
-1.88996e-19
-1.994e-19
-1.91169e-19
-2.03918e-19
-1.9359e-19
-2.04783e-19
-1.96184e-19
-2.18406e-19
-2.03491e-19
-2.15103e-19
-2.18183e-19
-2.29186e-19
-2.13113e-19
-2.27143e-19
-2.15077e-19
-2.26099e-19
-2.1892e-19
-2.31572e-19
-2.28033e-19
-2.42759e-19
-2.33754e-19
-2.33921e-19
-2.29917e-19
-2.32872e-19
-2.33539e-19
-2.39739e-19
-2.47602e-19
-2.51741e-19
-2.50665e-19
-2.48307e-19
-2.55383e-19
-2.49549e-19
-2.44334e-19
-2.44765e-19
-2.35778e-19
-2.31598e-19
-2.27245e-19
-2.38544e-19
-2.25012e-19
-2.26078e-19
-2.14389e-19
-2.18164e-19
-1.87838e-19
-2.02691e-19
-1.75194e-19
-1.90249e-19
-1.89517e-19
-1.88711e-19
-2.0067e-19
-1.91118e-19
-2.0325e-19
-1.86582e-19
-2.12466e-19
-1.98284e-19
-2.16451e-19
-2.05282e-19
-2.15361e-19
-2.16927e-19
-2.28971e-19
-2.13662e-19
-2.29217e-19
-2.13693e-19
-2.22645e-19
-2.20047e-19
-2.26321e-19
-2.26644e-19
-2.41844e-19
-2.34333e-19
-2.33426e-19
-2.29078e-19
-2.31694e-19
-2.38635e-19
-2.4433e-19
-2.40197e-19
-2.51274e-19
-2.4781e-19
-2.5326e-19
-2.57474e-19
-2.48902e-19
-2.4278e-19
-2.38627e-19
-2.29874e-19
-2.40428e-19
-2.25828e-19
-2.34935e-19
-2.25535e-19
-2.26823e-19
-2.12278e-19
-2.13523e-19
-1.89129e-19
-1.98505e-19
-1.71177e-19
-2.00552e-19
-1.91198e-19
-1.8918e-19
-2.05685e-19
-1.89066e-19
-2.05571e-19
-1.83246e-19
-2.0389e-19
-1.99551e-19
-2.10793e-19
-2.05459e-19
-2.14352e-19
-2.21006e-19
-2.29972e-19
-2.17943e-19
-2.2888e-19
-2.11135e-19
-2.20284e-19
-2.21052e-19
-2.30798e-19
-2.26929e-19
-2.4303e-19
-2.29803e-19
-2.34807e-19
-2.26806e-19
-2.30944e-19
-2.35924e-19
-2.48062e-19
-2.37737e-19
-2.48708e-19
-2.47621e-19
-2.53175e-19
-2.58323e-19
-2.5185e-19
-2.46181e-19
-2.38471e-19
-2.34157e-19
-2.43144e-19
-2.23733e-19
-2.32019e-19
-2.20631e-19
-2.26829e-19
-1.99909e-19
-2.01329e-19
-1.85717e-19
-1.97355e-19
-1.71906e-19
-2.08663e-19
-2.06106e-19
-1.9496e-19
-1.90764e-19
-2.04852e-19
-1.8496e-19
-2.03863e-19
-1.88319e-19
-2.05851e-19
-1.94441e-19
-2.09384e-19
-2.02812e-19
-2.14271e-19
-2.21427e-19
-2.24034e-19
-2.19221e-19
-2.25273e-19
-2.13251e-19
-2.16251e-19
-2.25988e-19
-2.34908e-19
-2.30135e-19
-2.40475e-19
-2.2739e-19
-2.32267e-19
-2.29385e-19
-2.27504e-19
-2.35424e-19
-2.43462e-19
-2.43151e-19
-2.49896e-19
-2.51836e-19
-2.49975e-19
-2.55723e-19
-2.53858e-19
-2.47338e-19
-2.42266e-19
-2.25885e-19
-2.41274e-19
-2.20949e-19
-2.34159e-19
-2.19987e-19
-2.25421e-19
-2.02599e-19
-1.94241e-19
-1.88137e-19
-1.92311e-19
-1.8279e-19
-2.00087e-19
-1.94641e-19
-1.96461e-19
-1.93006e-19
-2.08656e-19
-1.95187e-19
-2.04251e-19
-1.89516e-19
-2.06336e-19
-1.97854e-19
-2.17389e-19
-2.02205e-19
-2.17305e-19
-2.1881e-19
-2.26187e-19
-2.19039e-19
-2.25002e-19
-2.14288e-19
-2.16627e-19
-2.20669e-19
-2.30682e-19
-2.33571e-19
-2.40427e-19
-2.29697e-19
-2.2985e-19
-2.32804e-19
-2.29772e-19
-2.38034e-19
-2.39908e-19
-2.44437e-19
-2.47152e-19
-2.52067e-19
-2.51143e-19
-2.55436e-19
-2.53698e-19
-2.41476e-19
-2.36534e-19
-2.25677e-19
-2.3459e-19
-2.23498e-19
-2.30935e-19
-2.15726e-19
-2.21742e-19
-2.05123e-19
-2.08924e-19
-1.92528e-19
-1.87896e-19
-1.77636e-19
-2.01001e-19
-1.90811e-19
-1.95876e-19
-1.9082e-19
-2.07596e-19
-1.88497e-19
-2.0784e-19
-1.93379e-19
-2.03207e-19
-2.04802e-19
-2.14859e-19
-2.02597e-19
-2.22157e-19
-2.16602e-19
-2.27153e-19
-2.1829e-19
-2.2708e-19
-2.11253e-19
-2.20901e-19
-2.17981e-19
-2.28338e-19
-2.31235e-19
-2.41874e-19
-2.30547e-19
-2.27006e-19
-2.30564e-19
-2.30584e-19
-2.34575e-19
-2.38562e-19
-2.4181e-19
-2.466e-19
-2.52791e-19
-2.5311e-19
-2.53489e-19
-2.51491e-19
-2.42946e-19
-2.33095e-19
-2.27421e-19
-2.30339e-19
-2.2456e-19
-2.42826e-19
-2.1894e-19
-2.21704e-19
-2.05335e-19
-2.08084e-19
-1.92979e-19
-1.86908e-19
-1.71838e-19
-2.02513e-19
-1.84026e-19
-1.95383e-19
-1.92208e-19
-2.0313e-19
-1.92833e-19
-2.09173e-19
-1.8897e-19
-2.05684e-19
-2.0353e-19
-2.05802e-19
-2.00976e-19
-2.22497e-19
-2.17678e-19
-2.30431e-19
-2.16946e-19
-2.24229e-19
-2.12295e-19
-2.2094e-19
-2.18634e-19
-2.28252e-19
-2.29716e-19
-2.3922e-19
-2.30446e-19
-2.30159e-19
-2.30117e-19
-2.30919e-19
-2.32459e-19
-2.41965e-19
-2.40924e-19
-2.48612e-19
-2.51428e-19
-2.51211e-19
-2.49894e-19
-2.48532e-19
-2.48222e-19
-2.32207e-19
-2.21895e-19
-2.40108e-19
-2.24129e-19
-2.39885e-19
-2.23112e-19
-2.23081e-19
-2.05378e-19
-2.14417e-19
-1.88823e-19
-1.83966e-19
-1.69438e-19
-1.93358e-19
-1.81549e-19
-1.92978e-19
-1.97535e-19
-2.09577e-19
-1.99334e-19
-2.07928e-19
-1.88017e-19
-2.12445e-19
-1.99321e-19
-2.03206e-19
-2.0206e-19
-2.26432e-19
-2.18569e-19
-2.31384e-19
-2.17524e-19
-2.21607e-19
-2.17767e-19
-2.20659e-19
-2.18735e-19
-2.27821e-19
-2.28138e-19
-2.41022e-19
-2.30265e-19
-2.31569e-19
-2.32213e-19
-2.31669e-19
-2.3284e-19
-2.37397e-19
-2.44611e-19
-2.47273e-19
-2.50119e-19
-2.50195e-19
-2.451e-19
-2.45606e-19
-2.50643e-19
-2.3378e-19
-2.17854e-19
-2.3928e-19
-2.23833e-19
-2.40572e-19
-2.17235e-19
-2.19282e-19
-2.07641e-19
-2.14863e-19
-1.91427e-19
-1.9042e-19
-1.79519e-19
-1.95916e-19
-1.85328e-19
-1.91284e-19
-1.87465e-19
-1.95473e-19
-2.07639e-19
-1.93427e-19
-2.03295e-19
-1.90763e-19
-2.01865e-19
-1.90928e-19
-2.13016e-19
-1.94657e-19
-2.1905e-19
-2.16774e-19
-2.28012e-19
-2.17095e-19
-2.22006e-19
-2.1685e-19
-2.21257e-19
-2.20393e-19
-2.26226e-19
-2.26465e-19
-2.38849e-19
-2.30391e-19
-2.31299e-19
-2.30956e-19
-2.31145e-19
-2.34853e-19
-2.387e-19
-2.44548e-19
-2.48861e-19
-2.501e-19
-2.54204e-19
-2.53532e-19
-2.5504e-19
-2.3762e-19
-2.39008e-19
-2.28664e-19
-2.3594e-19
-2.24483e-19
-2.35117e-19
-2.20515e-19
-2.229e-19
-2.13313e-19
-2.07178e-19
-2.00979e-19
-1.90905e-19
-1.72553e-19
-2.04331e-19
-1.91946e-19
-1.96057e-19
-1.96625e-19
-1.89837e-19
-1.9697e-19
-2.05157e-19
-1.92591e-19
-2.01721e-19
-1.9166e-19
-2.08126e-19
-1.93672e-19
-2.16153e-19
-2.02385e-19
-2.14859e-19
-2.15291e-19
-2.23668e-19
-2.18571e-19
-2.22079e-19
-2.15858e-19
-2.22712e-19
-2.14987e-19
-2.25116e-19
-2.2922e-19
-2.38544e-19
-2.3043e-19
-2.31868e-19
-2.3177e-19
-2.36344e-19
-2.31509e-19
-2.41197e-19
-2.43277e-19
-2.46369e-19
-2.51687e-19
-2.55753e-19
-2.52067e-19
-2.54773e-19
-2.3151e-19
-2.39819e-19
-2.23474e-19
-2.36824e-19
-2.24537e-19
-2.30758e-19
-2.23213e-19
-2.25767e-19
-2.10187e-19
-2.03544e-19
-1.91647e-19
-1.92608e-19
-1.69992e-19
-2.03402e-19
-1.98246e-19
-2.02791e-19
-1.94991e-19
-1.95167e-19
-1.91044e-19
-1.97019e-19
-1.89631e-19
-2.08194e-19
-1.9193e-19
-1.99113e-19
-1.95266e-19
-2.09204e-19
-2.04581e-19
-2.18828e-19
-2.12558e-19
-2.19108e-19
-2.17537e-19
-2.2465e-19
-2.15168e-19
-2.2427e-19
-2.15562e-19
-2.29732e-19
-2.2946e-19
-2.40422e-19
-2.30384e-19
-2.32041e-19
-2.30109e-19
-2.37108e-19
-2.30514e-19
-2.38889e-19
-2.39202e-19
-2.49525e-19
-2.52459e-19
-2.58148e-19
-2.47774e-19
-2.5593e-19
-2.35973e-19
-2.38446e-19
-2.19705e-19
-2.33963e-19
-2.17756e-19
-2.26975e-19
-2.23839e-19
-2.33786e-19
-2.01997e-19
-2.08119e-19
-1.85448e-19
-1.90637e-19
-1.66315e-19
-1.99996e-19
-1.99085e-19
-2.01571e-19
-1.85724e-19
-1.97387e-19
-1.9318e-19
-2.04102e-19
-1.88443e-19
-2.05552e-19
-1.93947e-19
-1.96563e-19
-1.95127e-19
-2.09955e-19
-2.06978e-19
-2.18574e-19
-2.10154e-19
-2.27322e-19
-2.10907e-19
-2.22567e-19
-2.14723e-19
-2.23177e-19
-2.15928e-19
-2.29228e-19
-2.28801e-19
-2.38074e-19
-2.3024e-19
-2.31847e-19
-2.29593e-19
-2.3361e-19
-2.29409e-19
-2.37484e-19
-2.42237e-19
-2.51115e-19
-2.43721e-19
-2.59459e-19
-2.46151e-19
-2.48666e-19
-2.37832e-19
-2.35711e-19
-2.18457e-19
-2.31005e-19
-2.21332e-19
-2.34149e-19
-2.18207e-19
-2.27061e-19
-2.01665e-19
-2.0904e-19
-1.89731e-19
-1.85144e-19
-1.6568e-19
-1.98913e-19
-1.92844e-19
-1.97153e-19
-1.86871e-19
-1.92929e-19
-1.97047e-19
-2.10513e-19
-1.93854e-19
-2.04316e-19
-1.97731e-19
-2.03275e-19
-1.9486e-19
-2.07368e-19
-2.01112e-19
-2.20807e-19
-2.1107e-19
-2.25575e-19
-2.14656e-19
-2.24966e-19
-2.18051e-19
-2.25744e-19
-2.16505e-19
-2.30409e-19
-2.30027e-19
-2.37083e-19
-2.30411e-19
-2.32083e-19
-2.29037e-19
-2.31414e-19
-2.2588e-19
-2.33399e-19
-2.43242e-19
-2.50872e-19
-2.48922e-19
-2.56333e-19
-2.47911e-19
-2.50892e-19
-2.36897e-19
-2.36598e-19
-2.20063e-19
-2.27506e-19
-2.23537e-19
-2.34219e-19
-2.15881e-19
-2.24092e-19
-2.05981e-19
-2.10514e-19
-1.89372e-19
-1.91338e-19
-1.74274e-19
-1.9642e-19
-1.8991e-19
-2.00577e-19
-1.97436e-19
-1.92619e-19
-1.96706e-19
-2.10717e-19
-1.96365e-19
-2.02852e-19
-1.9498e-19
-2.05086e-19
-1.94436e-19
-2.11782e-19
-2.01213e-19
-2.22474e-19
-2.15589e-19
-2.22147e-19
-2.17791e-19
-2.24395e-19
-2.1967e-19
-2.26868e-19
-2.15728e-19
-2.28608e-19
-2.31556e-19
-2.3776e-19
-2.30513e-19
-2.32356e-19
-2.26911e-19
-2.29322e-19
-2.24612e-19
-2.30899e-19
-2.44634e-19
-2.44967e-19
-2.54348e-19
-2.53004e-19
-2.52216e-19
-2.50181e-19
-2.32466e-19
-2.34572e-19
-2.27488e-19
-2.30161e-19
-2.22231e-19
-2.33011e-19
-2.13031e-19
-2.22476e-19
-2.049e-19
-2.02222e-19
-1.83745e-19
-1.881e-19
-1.74036e-19
-2.07152e-19
-1.87634e-19
-1.98272e-19
-1.95558e-19
-1.90806e-19
-1.9885e-19
-2.02715e-19
-1.96118e-19
-2.08875e-19
-2.00264e-19
-1.98501e-19
-1.9344e-19
-2.1335e-19
-1.96963e-19
-2.2358e-19
-2.16177e-19
-2.21863e-19
-2.15519e-19
-2.24673e-19
-2.17769e-19
-2.25091e-19
-2.15909e-19
-2.26533e-19
-2.30005e-19
-2.39667e-19
-2.31679e-19
-2.32684e-19
-2.29304e-19
-2.31863e-19
-2.25172e-19
-2.3216e-19
-2.40456e-19
-2.44738e-19
-2.48869e-19
-2.51978e-19
-2.47475e-19
-2.54455e-19
-2.34666e-19
-2.35246e-19
-2.30646e-19
-2.24363e-19
-2.1456e-19
-2.31311e-19
-2.24271e-19
-2.25442e-19
-2.0917e-19
-2.04284e-19
-1.85256e-19
-1.91118e-19
-1.61041e-19
-1.99375e-19
-1.86619e-19
-1.89733e-19
-1.9372e-19
-1.94281e-19
-1.94904e-19
-2.07846e-19
-1.94661e-19
-1.99755e-19
-1.93798e-19
-1.99332e-19
-1.92282e-19
-2.10028e-19
-2.02746e-19
-2.19027e-19
-2.10021e-19
-2.2278e-19
-2.11687e-19
-2.26179e-19
-2.18388e-19
-2.21982e-19
-2.18537e-19
-2.25663e-19
-2.28804e-19
-2.38327e-19
-2.33876e-19
-2.33415e-19
-2.29381e-19
-2.31832e-19
-2.26366e-19
-2.33025e-19
-2.36381e-19
-2.46366e-19
-2.46447e-19
-2.54714e-19
-2.44939e-19
-2.48203e-19
-2.4254e-19
-2.37778e-19
-2.23209e-19
-2.32115e-19
-2.23472e-19
-2.30527e-19
-2.17672e-19
-2.26688e-19
-2.05095e-19
-2.03568e-19
-1.90114e-19
-1.91491e-19
-1.68522e-19
-1.92193e-19
-1.831e-19
-1.88279e-19
-1.89489e-19
-1.92796e-19
-1.83212e-19
-2.10943e-19
-1.93459e-19
-1.94065e-19
-1.95925e-19
-1.95585e-19
-1.93123e-19
-2.10897e-19
-2.02487e-19
-2.17983e-19
-2.09614e-19
-2.21674e-19
-2.14282e-19
-2.25999e-19
-2.19274e-19
-2.20802e-19
-2.15193e-19
-2.29957e-19
-2.28673e-19
-2.39309e-19
-2.3198e-19
-2.33064e-19
-2.27216e-19
-2.33324e-19
-2.31471e-19
-2.34268e-19
-2.38525e-19
-2.46221e-19
-2.50546e-19
-2.54997e-19
-2.47058e-19
-2.47896e-19
-2.3444e-19
-2.31008e-19
-2.25396e-19
-2.32721e-19
-2.29283e-19
-2.30247e-19
-2.08928e-19
-2.35845e-19
-2.03411e-19
-2.06432e-19
-1.91323e-19
-1.93743e-19
-1.75165e-19
-1.96275e-19
-1.92785e-19
-1.98808e-19
-1.95254e-19
-1.90732e-19
-1.91513e-19
-2.11502e-19
-1.94249e-19
-1.98245e-19
-2.03284e-19
-1.9789e-19
-1.88524e-19
-2.10513e-19
-1.97457e-19
-2.14634e-19
-2.10496e-19
-2.20009e-19
-2.15266e-19
-2.25593e-19
-2.22236e-19
-2.20408e-19
-2.114e-19
-2.29257e-19
-2.29536e-19
-2.36445e-19
-2.30777e-19
-2.32771e-19
-2.2968e-19
-2.37725e-19
-2.30356e-19
-2.29386e-19
-2.39534e-19
-2.4646e-19
-2.51719e-19
-2.51088e-19
-2.48723e-19
-2.53016e-19
-2.31721e-19
-2.34946e-19
-2.22188e-19
-2.23929e-19
-2.24141e-19
-2.30117e-19
-2.09041e-19
-2.27612e-19
-2.03253e-19
-2.02851e-19
-1.82516e-19
-1.87943e-19
-1.69904e-19
-1.96639e-19
-1.92237e-19
-2.01839e-19
-2.0059e-19
-1.93062e-19
-1.94799e-19
-2.08878e-19
-1.97968e-19
-2.06802e-19
-2.00942e-19
-1.9293e-19
-1.9696e-19
-2.08975e-19
-2.0485e-19
-2.1707e-19
-2.05321e-19
-2.2338e-19
-2.17884e-19
-2.24231e-19
-2.18087e-19
-2.17248e-19
-2.15606e-19
-2.27277e-19
-2.31045e-19
-2.3478e-19
-2.30957e-19
-2.32874e-19
-2.33085e-19
-2.36864e-19
-2.31337e-19
-2.31562e-19
-2.35976e-19
-2.43546e-19
-2.50108e-19
-2.5216e-19
-2.44727e-19
-2.48116e-19
-2.34445e-19
-2.34766e-19
-2.25163e-19
-2.21156e-19
-2.1631e-19
-2.2606e-19
-2.12311e-19
-2.26572e-19
-2.05317e-19
-1.98775e-19
-1.78737e-19
-1.88051e-19
-1.67109e-19
-1.95737e-19
-1.89657e-19
-1.95676e-19
-1.9233e-19
-1.97614e-19
-1.96955e-19
-2.03111e-19
-1.9479e-19
-2.06202e-19
-1.98654e-19
-1.99852e-19
-1.94649e-19
-2.12342e-19
-2.04822e-19
-2.17213e-19
-2.03478e-19
-2.22714e-19
-2.17614e-19
-2.22626e-19
-2.16051e-19
-2.17269e-19
-2.15138e-19
-2.24343e-19
-2.2836e-19
-2.34238e-19
-2.34222e-19
-2.32989e-19
-2.32592e-19
-2.33656e-19
-2.28105e-19
-2.31945e-19
-2.34883e-19
-2.42072e-19
-2.48555e-19
-2.4812e-19
-2.44163e-19
-2.48886e-19
-2.34644e-19
-2.31594e-19
-2.19573e-19
-2.24524e-19
-2.18972e-19
-2.28929e-19
-2.19031e-19
-2.23432e-19
-2.03943e-19
-2.04423e-19
-1.83073e-19
-1.88655e-19
-1.67641e-19
-1.95219e-19
-1.88663e-19
-1.97742e-19
-1.91944e-19
-2.00812e-19
-1.95438e-19
-2.09999e-19
-1.91553e-19
-2.02421e-19
-1.94367e-19
-2.01028e-19
-1.90902e-19
-2.14798e-19
-2.00634e-19
-2.12468e-19
-2.05172e-19
-2.21875e-19
-2.1491e-19
-2.23163e-19
-2.20799e-19
-2.21052e-19
-2.18349e-19
-2.27287e-19
-2.27074e-19
-2.33403e-19
-2.33345e-19
-2.32416e-19
-2.33806e-19
-2.32598e-19
-2.26234e-19
-2.30289e-19
-2.35821e-19
-2.4639e-19
-2.4674e-19
-2.48225e-19
-2.46584e-19
-2.50435e-19
-2.32763e-19
-2.35216e-19
-2.17643e-19
-2.30877e-19
-2.21163e-19
-2.32524e-19
-2.15704e-19
-2.23102e-19
-1.99555e-19
-2.03616e-19
-1.83953e-19
-1.88428e-19
-1.65947e-19
-1.95076e-19
-1.87919e-19
-1.95416e-19
-1.97522e-19
-1.9988e-19
-1.97364e-19
-2.07289e-19
-2.0081e-19
-1.9979e-19
-1.90075e-19
-2.00975e-19
-1.91607e-19
-2.08231e-19
-1.97683e-19
-2.1421e-19
-2.07347e-19
-2.15551e-19
-2.16484e-19
-2.17427e-19
-2.22775e-19
-2.2378e-19
-2.16745e-19
-2.299e-19
-2.26439e-19
-2.32625e-19
-2.33495e-19
-2.3318e-19
-2.34347e-19
-2.33265e-19
-2.29011e-19
-2.31658e-19
-2.40708e-19
-2.45041e-19
-2.4993e-19
-2.50334e-19
-2.46284e-19
-2.47144e-19
-2.33424e-19
-2.36269e-19
-2.18834e-19
-2.3269e-19
-2.21898e-19
-2.21997e-19
-2.15199e-19
-2.20068e-19
-2.01798e-19
-1.97235e-19
-1.85955e-19
-1.8835e-19
-1.70247e-19
-1.94042e-19
-1.87419e-19
-1.97195e-19
-1.91462e-19
-1.98052e-19
-1.97927e-19
-2.06931e-19
-2.00034e-19
-2.0012e-19
-1.9533e-19
-2.00719e-19
-1.91181e-19
-2.10653e-19
-1.99481e-19
-2.16706e-19
-2.06461e-19
-2.12319e-19
-2.14439e-19
-2.17329e-19
-2.23759e-19
-2.21588e-19
-2.16031e-19
-2.29938e-19
-2.23784e-19
-2.31894e-19
-2.29379e-19
-2.34252e-19
-2.29968e-19
-2.33614e-19
-2.30057e-19
-2.30345e-19
-2.41938e-19
-2.49917e-19
-2.52763e-19
-2.51133e-19
-2.44018e-19
-2.46912e-19
-2.32686e-19
-2.35171e-19
-2.17903e-19
-2.26306e-19
-2.18742e-19
-2.19e-19
-2.14641e-19
-2.18475e-19
-2.01735e-19
-2.01917e-19
-1.81025e-19
-1.88695e-19
-1.73578e-19
-1.92128e-19
-1.87451e-19
-1.93546e-19
-1.90039e-19
-1.99362e-19
-1.95964e-19
-2.06046e-19
-1.98925e-19
-1.99225e-19
-2.01054e-19
-2.00546e-19
-1.91545e-19
-2.08456e-19
-1.99811e-19
-2.1422e-19
-2.05817e-19
-2.17797e-19
-2.14347e-19
-2.18174e-19
-2.23488e-19
-2.20098e-19
-2.15858e-19
-2.27839e-19
-2.2464e-19
-2.32208e-19
-2.28522e-19
-2.31814e-19
-2.32071e-19
-2.34e-19
-2.31707e-19
-2.32527e-19
-2.40281e-19
-2.48327e-19
-2.48859e-19
-2.47166e-19
-2.45556e-19
-2.45515e-19
-2.34399e-19
-2.33891e-19
-2.19994e-19
-2.19195e-19
-2.19346e-19
-2.23858e-19
-2.14671e-19
-2.23188e-19
-1.97288e-19
-2.02035e-19
-1.85471e-19
-1.8915e-19
-1.73287e-19
-1.88464e-19
-1.82684e-19
-1.95376e-19
-1.97262e-19
-2.00109e-19
-1.96086e-19
-2.08302e-19
-1.96885e-19
-2.0446e-19
-1.98078e-19
-1.95799e-19
-1.88978e-19
-2.07991e-19
-1.98138e-19
-2.12533e-19
-2.06949e-19
-2.17616e-19
-2.19553e-19
-2.21507e-19
-2.2075e-19
-2.23689e-19
-2.16541e-19
-2.27763e-19
-2.25732e-19
-2.3353e-19
-2.32069e-19
-2.34184e-19
-2.36022e-19
-2.33776e-19
-2.30154e-19
-2.34314e-19
-2.38973e-19
-2.41474e-19
-2.49116e-19
-2.464e-19
-2.46742e-19
-2.47318e-19
-2.36643e-19
-2.36109e-19
-2.25984e-19
-2.18671e-19
-2.16243e-19
-2.2595e-19
-2.12182e-19
-2.24057e-19
-1.97286e-19
-1.93873e-19
-1.81985e-19
-1.92064e-19
-1.72464e-19
-1.93222e-19
-1.85768e-19
-1.92547e-19
-1.97e-19
-2.00875e-19
-1.97902e-19
-2.09143e-19
-1.97477e-19
-2.01865e-19
-1.93635e-19
-1.98419e-19
-1.8996e-19
-2.04649e-19
-1.99113e-19
-2.1588e-19
-2.09808e-19
-2.15642e-19
-2.185e-19
-2.22319e-19
-2.16809e-19
-2.22318e-19
-2.16177e-19
-2.25904e-19
-2.26747e-19
-2.31468e-19
-2.31187e-19
-2.33412e-19
-2.33105e-19
-2.34186e-19
-2.30755e-19
-2.33595e-19
-2.39248e-19
-2.44269e-19
-2.53419e-19
-2.43794e-19
-2.47291e-19
-2.47622e-19
-2.40007e-19
-2.31366e-19
-2.21871e-19
-2.24454e-19
-2.21236e-19
-2.22747e-19
-2.11103e-19
-2.21843e-19
-1.97465e-19
-1.93544e-19
-1.85183e-19
-1.9099e-19
-1.67072e-19
-1.92802e-19
-1.90717e-19
-1.9265e-19
-1.88702e-19
-1.99058e-19
-1.99321e-19
-2.06002e-19
-1.9944e-19
-2.02615e-19
-1.98653e-19
-2.01648e-19
-1.98222e-19
-2.06239e-19
-1.98757e-19
-2.15982e-19
-2.07438e-19
-2.1884e-19
-2.16859e-19
-2.23768e-19
-2.18333e-19
-2.21946e-19
-2.15126e-19
-2.2504e-19
-2.24987e-19
-2.30083e-19
-2.30007e-19
-2.32368e-19
-2.32063e-19
-2.34917e-19
-2.29798e-19
-2.31668e-19
-2.38009e-19
-2.49097e-19
-2.50212e-19
-2.46579e-19
-2.44851e-19
-2.47066e-19
-2.37057e-19
-2.25836e-19
-2.18369e-19
-2.20712e-19
-2.18765e-19
-2.2026e-19
-2.14016e-19
-2.19264e-19
-2.00718e-19
-2.0071e-19
-1.82243e-19
-1.85236e-19
-1.66051e-19
-1.9765e-19
-1.84966e-19
-1.95856e-19
-1.87825e-19
-1.99585e-19
-2.06075e-19
-2.04698e-19
-1.96734e-19
-2.04536e-19
-1.94873e-19
-2.01943e-19
-1.90264e-19
-2.07583e-19
-2.01498e-19
-2.1445e-19
-2.06781e-19
-2.18798e-19
-2.17271e-19
-2.22292e-19
-2.17702e-19
-2.22229e-19
-2.16088e-19
-2.24544e-19
-2.24128e-19
-2.27563e-19
-2.29433e-19
-2.33443e-19
-2.32217e-19
-2.32409e-19
-2.29717e-19
-2.34797e-19
-2.38843e-19
-2.46789e-19
-2.49455e-19
-2.4753e-19
-2.46258e-19
-2.47756e-19
-2.33592e-19
-2.33485e-19
-2.20398e-19
-2.23998e-19
-2.20068e-19
-2.23876e-19
-2.15675e-19
-2.12025e-19
-1.99863e-19
-2.0331e-19
-1.78985e-19
-1.87497e-19
-1.61209e-19
-1.9625e-19
-1.85774e-19
-1.9442e-19
-1.87705e-19
-1.99571e-19
-2.04941e-19
-2.05963e-19
-1.97376e-19
-2.00585e-19
-1.94485e-19
-2.00334e-19
-1.89165e-19
-2.08443e-19
-2.00934e-19
-2.119e-19
-2.05465e-19
-2.17958e-19
-2.1417e-19
-2.21764e-19
-2.16457e-19
-2.21979e-19
-2.17245e-19
-2.23811e-19
-2.24431e-19
-2.2831e-19
-2.28279e-19
-2.31902e-19
-2.32655e-19
-2.32881e-19
-2.29598e-19
-2.36127e-19
-2.39933e-19
-2.47739e-19
-2.49024e-19
-2.47883e-19
-2.44749e-19
-2.5195e-19
-2.29845e-19
-2.33347e-19
-2.22024e-19
-2.20751e-19
-2.23558e-19
-2.2467e-19
-2.14211e-19
-2.13035e-19
-1.98958e-19
-2.04875e-19
-1.80308e-19
-1.87408e-19
-1.62966e-19
-1.915e-19
-1.87814e-19
-1.92811e-19
-1.9262e-19
-2.00666e-19
-2.01405e-19
-2.11339e-19
-2.00965e-19
-1.99241e-19
-1.9875e-19
-1.98837e-19
-1.92401e-19
-2.02981e-19
-2.00012e-19
-2.1286e-19
-2.04084e-19
-2.17779e-19
-2.12494e-19
-2.20177e-19
-2.1831e-19
-2.22069e-19
-2.16327e-19
-2.22553e-19
-2.23287e-19
-2.2849e-19
-2.25992e-19
-2.31265e-19
-2.33087e-19
-2.33931e-19
-2.3029e-19
-2.35738e-19
-2.41831e-19
-2.48703e-19
-2.48615e-19
-2.48802e-19
-2.43786e-19
-2.50027e-19
-2.36681e-19
-2.29385e-19
-2.21627e-19
-2.19492e-19
-2.23402e-19
-2.20291e-19
-2.10281e-19
-2.15168e-19
-1.97986e-19
-1.96849e-19
-1.81203e-19
-1.85057e-19
-1.69455e-19
-1.94612e-19
-1.85087e-19
-1.94922e-19
-1.9134e-19
-2.02824e-19
-1.95784e-19
-2.09745e-19
-1.96662e-19
-2.01692e-19
-1.967e-19
-1.99302e-19
-1.94397e-19
-2.00704e-19
-2.00961e-19
-2.18022e-19
-2.05382e-19
-2.15758e-19
-2.14393e-19
-2.20334e-19
-2.18149e-19
-2.21923e-19
-2.18436e-19
-2.2302e-19
-2.22145e-19
-2.28146e-19
-2.26508e-19
-2.30381e-19
-2.33238e-19
-2.33589e-19
-2.30925e-19
-2.36468e-19
-2.41465e-19
-2.47463e-19
-2.50149e-19
-2.46419e-19
-2.41144e-19
-2.45491e-19
-2.376e-19
-2.30418e-19
-2.21756e-19
-2.2121e-19
-2.19243e-19
-2.22207e-19
-2.11711e-19
-2.21598e-19
-1.96439e-19
-1.95376e-19
-1.80168e-19
-1.88566e-19
-1.65493e-19
-1.94657e-19
-1.82601e-19
-1.93457e-19
-1.92084e-19
-2.00358e-19
-2.00847e-19
-2.09863e-19
-1.9474e-19
-2.07289e-19
-1.95454e-19
-2.00056e-19
-1.92835e-19
-2.02512e-19
-2.01813e-19
-2.15675e-19
-2.04118e-19
-2.17889e-19
-2.12696e-19
-2.21609e-19
-2.16333e-19
-2.21541e-19
-2.17462e-19
-2.24048e-19
-2.2236e-19
-2.27573e-19
-2.27806e-19
-2.30342e-19
-2.32308e-19
-2.34906e-19
-2.3287e-19
-2.35284e-19
-2.41374e-19
-2.48433e-19
-2.48706e-19
-2.47331e-19
-2.43091e-19
-2.42453e-19
-2.3502e-19
-2.3037e-19
-2.20785e-19
-2.21577e-19
-2.13052e-19
-2.2361e-19
-2.10937e-19
-2.16864e-19
-1.98964e-19
-1.95792e-19
-1.79576e-19
-1.89829e-19
-1.65689e-19
-1.94005e-19
-1.87038e-19
-1.95818e-19
-1.92522e-19
-1.98737e-19
-2.00435e-19
-2.09058e-19
-1.97357e-19
-2.03344e-19
-1.95457e-19
-2.0136e-19
-1.93579e-19
-2.06932e-19
-1.98648e-19
-2.12966e-19
-2.04879e-19
-2.15829e-19
-2.10974e-19
-2.21593e-19
-2.16369e-19
-2.2254e-19
-2.17261e-19
-2.23224e-19
-2.22538e-19
-2.26769e-19
-2.28532e-19
-2.29508e-19
-2.30866e-19
-2.35416e-19
-2.31829e-19
-2.36768e-19
-2.42077e-19
-2.48354e-19
-2.49681e-19
-2.46126e-19
-2.44715e-19
-2.46065e-19
-2.35621e-19
-2.29566e-19
-2.18757e-19
-2.18879e-19
-2.15409e-19
-2.2226e-19
-2.10108e-19
-2.14617e-19
-2.00362e-19
-1.97253e-19
-1.76898e-19
-1.8598e-19
-1.66516e-19
-1.92668e-19
-1.87431e-19
-1.97071e-19
-1.90219e-19
-2.00866e-19
-1.97777e-19
-2.09348e-19
-1.99341e-19
-2.01305e-19
-1.96163e-19
-2.03447e-19
-1.91931e-19
-2.03179e-19
-1.98529e-19
-2.15034e-19
-2.04254e-19
-2.19043e-19
-2.12843e-19
-2.21386e-19
-2.17132e-19
-2.22525e-19
-2.16494e-19
-2.23489e-19
-2.22951e-19
-2.27037e-19
-2.29766e-19
-2.29475e-19
-2.32568e-19
-2.34912e-19
-2.31555e-19
-2.3718e-19
-2.42243e-19
-2.48557e-19
-2.47044e-19
-2.45198e-19