/*--------------------------------*- C++ -*----------------------------------*\
  =========                 |
  \\      /  F ield         | OpenFOAM: The Open Source CFD Toolbox
   \\    /   O peration     | Website:  https://openfoam.org
    \\  /    A nd           | Version:  7
     \\/     M anipulation  |
\*---------------------------------------------------------------------------*/
FoamFile
{
    version     2.0;
    format      ascii;
    class       volScalarField;
    location    "160000";
    object      strainRate;
}
// * * * * * * * * * * * * * * * * * * * * * * * * * * * * * * * * * * * * * //

dimensions      [0 0 -1 0 0 0 0];

internalField   nonuniform List<scalar> 
4814
(
0.0828268
0.0824521
0.0821148
0.0818149
0.0950976
0.0941659
0.0932873
0.0924451
0.0916398
0.0908713
0.0901399
0.0894455
0.088788
0.0881682
0.0875864
0.0870431
0.0865382
0.086072
0.0856445
0.0852558
0.0849059
0.0845948
0.0843227
0.0840894
0.083895
0.0837395
0.0836228
0.0835449
0.0835059
0.0835059
0.0835449
0.0836228
0.0837395
0.083895
0.0840894
0.0843227
0.0845949
0.0849059
0.098421
0.0974547
0.0965431
0.0956693
0.0948337
0.0940364
0.0932775
0.092557
0.0918747
0.0912315
0.0906277
0.0900639
0.0895399
0.0890561
0.0886124
0.088209
0.0878458
0.087523
0.0872405
0.0869984
0.0867967
0.0866352
0.0865141
0.0864332
0.0863928
0.0863928
0.0864332
0.0865141
0.0866352
0.0867967
0.0869984
0.0872405
0.087523
0.0878458
0.088209
0.0886124
0.0890561
0.0895399
0.0900639
0.0906278
0.0912315
0.101924
0.100921
0.099975
0.0990681
0.0982007
0.0973731
0.0965853
0.0958372
0.0951289
0.094461
0.0938342
0.0932487
0.0927047
0.0922023
0.0917416
0.0913226
0.0909455
0.0906103
0.0903169
0.0900655
0.089856
0.0896884
0.0895625
0.0894786
0.0894366
0.0894366
0.0894786
0.0895625
0.0896883
0.089856
0.0900655
0.0903169
0.0906103
0.0909455
0.0913226
0.0917416
0.0922023
0.0927047
0.0932487
0.0938342
0.094461
0.0951289
0.0958372
0.0965853
0.105619
0.104579
0.103596
0.102654
0.101753
0.100894
0.100076
0.0992986
0.0985628
0.097869
0.0972179
0.0966096
0.0960445
0.0955225
0.0950439
0.0946086
0.0942168
0.0938685
0.0935637
0.0933024
0.0930847
0.0929105
0.0927798
0.0926926
0.0926489
0.0926489
0.0926926
0.0927798
0.0929105
0.0930847
0.0933024
0.0935637
0.0938685
0.0942168
0.0946086
0.0950438
0.0955225
0.0960445
0.0966096
0.0972179
0.097869
0.0985628
0.0992986
0.100076
0.109521
0.10844
0.107419
0.106441
0.105505
0.104612
0.103762
0.102954
0.10219
0.101469
0.100792
0.10016
0.0995724
0.0990298
0.0985323
0.0980798
0.0976725
0.0973104
0.0969936
0.096722
0.0964956
0.0963146
0.0961786
0.096088
0.0960426
0.0960426
0.096088
0.0961786
0.0963146
0.0964956
0.096722
0.0969936
0.0973104
0.0976725
0.0980798
0.0985323
0.0990298
0.0995724
0.10016
0.100792
0.101469
0.10219
0.102954
0.103762
0.113644
0.112521
0.11146
0.110444
0.109471
0.108543
0.107659
0.106819
0.106024
0.105275
0.104571
0.103914
0.103303
0.102738
0.102221
0.10175
0.101327
0.10095
0.100621
0.100338
0.100103
0.0999143
0.0997729
0.0996786
0.0996314
0.0996314
0.0996786
0.0997729
0.0999143
0.100103
0.100338
0.100621
0.10095
0.101327
0.10175
0.102221
0.102738
0.103303
0.103913
0.104571
0.105275
0.106024
0.106819
0.107659
0.118005
0.116838
0.115735
0.114678
0.113667
0.112702
0.111782
0.110909
0.110082
0.109302
0.10857
0.107886
0.107251
0.106664
0.106125
0.105635
0.105195
0.104803
0.10446
0.104166
0.103921
0.103725
0.103578
0.103479
0.10343
0.10343
0.103479
0.103578
0.103725
0.103921
0.104166
0.10446
0.104803
0.105195
0.105635
0.106125
0.106664
0.107251
0.107886
0.10857
0.109302
0.110082
0.110909
0.111782
0.112702
0.122622
0.121408
0.120261
0.119162
0.11811
0.117106
0.116149
0.115241
0.11438
0.113568
0.112807
0.112095
0.111433
0.110822
0.110262
0.109752
0.109293
0.108885
0.108528
0.108222
0.107967
0.107763
0.107609
0.107507
0.107456
0.107456
0.107507
0.107609
0.107763
0.107967
0.108222
0.108528
0.108885
0.109293
0.109752
0.110262
0.110822
0.111433
0.112095
0.112807
0.113568
0.11438
0.115241
0.116149
0.117106
0.127512
0.126251
0.125057
0.123914
0.122819
0.121774
0.120779
0.119833
0.118937
0.118092
0.117299
0.116558
0.115869
0.115232
0.114649
0.114118
0.11364
0.113215
0.112843
0.112524
0.112258
0.112045
0.111886
0.111779
0.111726
0.111726
0.111779
0.111886
0.112045
0.112258
0.112524
0.112843
0.113215
0.11364
0.114118
0.114649
0.115232
0.115869
0.116558
0.117299
0.118092
0.118937
0.119833
0.120779
0.121774
0.132698
0.131385
0.130144
0.128954
0.127815
0.126727
0.12569
0.124706
0.123773
0.122893
0.122066
0.121294
0.120577
0.119914
0.119306
0.118752
0.118254
0.117811
0.117424
0.117092
0.116815
0.116593
0.116427
0.116316
0.11626
0.11626
0.116316
0.116427
0.116593
0.116815
0.117092
0.117424
0.117811
0.118254
0.118752
0.119306
0.119914
0.120577
0.121294
0.122066
0.122893
0.123773
0.124706
0.12569
0.126727
0.1382
0.136835
0.135543
0.134304
0.133118
0.131986
0.130906
0.129881
0.128909
0.127992
0.127131
0.126327
0.125579
0.124888
0.124254
0.123678
0.123158
0.122697
0.122293
0.121946
0.121658
0.121427
0.121253
0.121138
0.12108
0.12108
0.121138
0.121253
0.121427
0.121658
0.121946
0.122293
0.122697
0.123158
0.123678
0.124254
0.124888
0.125579
0.126327
0.127131
0.127992
0.128909
0.129881
0.130906
0.144042
0.142622
0.141277
0.139988
0.138754
0.137574
0.13645
0.135382
0.134369
0.133414
0.132517
0.131678
0.130899
0.130179
0.129518
0.128917
0.128375
0.127894
0.127472
0.127111
0.12681
0.126569
0.126388
0.126268
0.126207
0.126207
0.126268
0.126388
0.126569
0.12681
0.127111
0.127472
0.127894
0.128375
0.128916
0.129518
0.130179
0.130899
0.131678
0.132517
0.133414
0.134369
0.135382
0.13645
0.15025
0.148773
0.147374
0.146032
0.144746
0.143518
0.142347
0.141234
0.140178
0.139183
0.138248
0.137374
0.136561
0.13581
0.135121
0.134494
0.13393
0.133427
0.132988
0.132611
0.132297
0.132046
0.131857
0.131731
0.131668
0.131668
0.131731
0.131857
0.132046
0.132297
0.132611
0.132988
0.133427
0.13393
0.134494
0.135121
0.13581
0.136561
0.137374
0.138248
0.139183
0.140178
0.141234
0.142347
0.156851
0.155314
0.153858
0.152461
0.151123
0.149843
0.148623
0.147464
0.146364
0.145327
0.144352
0.143441
0.142594
0.141811
0.141092
0.140438
0.139849
0.139325
0.138867
0.138473
0.138146
0.137884
0.137687
0.137555
0.13749
0.13749
0.137555
0.137687
0.137884
0.138146
0.138473
0.138867
0.139325
0.139849
0.140438
0.141092
0.14181
0.142594
0.143441
0.144352
0.145327
0.146364
0.147464
0.148623
0.163872
0.162274
0.16076
0.159306
0.157913
0.15658
0.15531
0.154102
0.152956
0.151874
0.150859
0.149909
0.149025
0.148209
0.147459
0.146777
0.146163
0.145616
0.145138
0.144727
0.144385
0.144112
0.143907
0.143769
0.143701
0.143701
0.143769
0.143907
0.144112
0.144385
0.144727
0.145138
0.145616
0.146163
0.146777
0.147459
0.148209
0.149025
0.149909
0.150858
0.151874
0.152956
0.154102
0.15531
0.171344
0.169684
0.168108
0.166596
0.165146
0.163759
0.162436
0.161178
0.159984
0.158857
0.157799
0.156808
0.155887
0.155036
0.154254
0.153543
0.152902
0.152332
0.151833
0.151405
0.151048
0.150762
0.150548
0.150405
0.150334
0.150334
0.150405
0.150548
0.150762
0.151048
0.151405
0.151833
0.152332
0.152902
0.153543
0.154254
0.155036
0.155887
0.156808
0.157799
0.158857
0.159984
0.161178
0.162436
0.179299
0.177574
0.175936
0.174364
0.172856
0.171412
0.170035
0.168725
0.167482
0.166308
0.165205
0.164174
0.163214
0.162326
0.161511
0.160769
0.160101
0.159506
0.158985
0.158539
0.158167
0.157869
0.157645
0.157496
0.157421
0.157421
0.157496
0.157645
0.157869
0.158167
0.158539
0.158985
0.159506
0.160101
0.160769
0.161511
0.162326
0.163214
0.164174
0.165205
0.166308
0.167482
0.168725
0.170035
0.187768
0.185977
0.184277
0.182643
0.181076
0.179574
0.178142
0.176779
0.175484
0.174263
0.173114
0.172039
0.171039
0.170114
0.169265
0.168492
0.167795
0.167175
0.166632
0.166166
0.165778
0.165467
0.165234
0.165079
0.165001
0.165001
0.165079
0.165234
0.165467
0.165778
0.166166
0.166632
0.167175
0.167795
0.168492
0.169265
0.170114
0.171039
0.172039
0.173114
0.174263
0.175484
0.176779
0.178142
0.196784
0.194928
0.193164
0.191468
0.18984
0.18828
0.186791
0.185374
0.184028
0.182757
0.181561
0.180443
0.179402
0.178438
0.177554
0.176748
0.176022
0.175376
0.17481
0.174325
0.17392
0.173596
0.173353
0.173191
0.17311
0.17311
0.173191
0.173353
0.173596
0.17392
0.174325
0.17481
0.175376
0.176022
0.176748
0.177554
0.178438
0.179402
0.180443
0.181561
0.182757
0.184028
0.185374
0.186791
0.206382
0.204459
0.202632
0.200874
0.199184
0.197566
0.196019
0.194548
0.193149
0.191828
0.190586
0.189422
0.188339
0.187337
0.186417
0.185578
0.184822
0.184149
0.18356
0.183055
0.182633
0.182296
0.182042
0.181873
0.181789
0.181789
0.181873
0.182042
0.182296
0.182633
0.183055
0.18356
0.184149
0.184822
0.185578
0.186417
0.187337
0.188339
0.189422
0.190586
0.191828
0.193149
0.194548
0.196019
0.216592
0.214605
0.212714
0.210894
0.209145
0.207467
0.205864
0.204338
0.202886
0.201515
0.200225
0.199017
0.197892
0.19685
0.195893
0.195022
0.194235
0.193536
0.192923
0.192397
0.191958
0.191607
0.191343
0.191168
0.19108
0.19108
0.191168
0.191343
0.191607
0.191958
0.192397
0.192923
0.193536
0.194235
0.195022
0.195893
0.19685
0.197892
0.199017
0.200225
0.201515
0.202886
0.204338
0.205864
0.207467
0.227446
0.225396
0.223444
0.221564
0.219755
0.21802
0.216361
0.21478
0.213277
0.211856
0.210519
0.209266
0.208099
0.207018
0.206025
0.20512
0.204303
0.203577
0.20294
0.202393
0.201937
0.201573
0.201299
0.201116
0.201025
0.201025
0.201116
0.201299
0.201573
0.201937
0.202393
0.20294
0.203577
0.204303
0.20512
0.206025
0.207018
0.208099
0.209266
0.210519
0.211856
0.213277
0.21478
0.216361
0.21802
0.238972
0.236863
0.234852
0.232914
0.231048
0.229257
0.227544
0.225911
0.224357
0.222888
0.221504
0.220208
0.218999
0.21788
0.216851
0.215913
0.215067
0.214313
0.213653
0.213086
0.212613
0.212235
0.21195
0.211761
0.211666
0.211666
0.211761
0.21195
0.212235
0.212613
0.213086
0.213653
0.214313
0.215067
0.215913
0.216851
0.21788
0.218999
0.220208
0.221504
0.222888
0.224357
0.225911
0.227544
0.229257
0.251195
0.249031
0.246966
0.244973
0.243054
0.24121
0.239445
0.237762
0.236159
0.234644
0.233216
0.231878
0.23063
0.229473
0.228409
0.22744
0.226565
0.225785
0.225102
0.224515
0.224026
0.223634
0.22334
0.223143
0.223045
0.223045
0.223143
0.22334
0.223634
0.224026
0.224515
0.225102
0.225785
0.226565
0.22744
0.228409
0.229473
0.23063
0.231878
0.233216
0.234644
0.236159
0.237762
0.239445
0.24121
0.264144
0.261929
0.259813
0.25777
0.255801
0.253907
0.252093
0.250363
0.248715
0.247157
0.245688
0.24431
0.243024
0.241832
0.240736
0.239736
0.238833
0.238029
0.237324
0.236718
0.236213
0.235809
0.235505
0.235302
0.235201
0.235201
0.235302
0.235505
0.235809
0.236213
0.236718
0.237324
0.238029
0.238833
0.239736
0.240736
0.241832
0.243024
0.24431
0.245688
0.247157
0.248715
0.250363
0.252093
0.277887
0.275621
0.273454
0.271358
0.269336
0.26739
0.265525
0.263746
0.262057
0.260459
0.258952
0.257537
0.256217
0.254992
0.253865
0.252836
0.251908
0.25108
0.250354
0.24973
0.24921
0.248793
0.248481
0.248272
0.248168
0.248168
0.248272
0.248481
0.248793
0.24921
0.24973
0.250354
0.25108
0.251908
0.252836
0.253865
0.254992
0.256217
0.257537
0.258952
0.260459
0.262057
0.263746
0.265525
0.292766
0.290404
0.288141
0.285951
0.283836
0.281801
0.279849
0.27799
0.27626
0.274622
0.273075
0.271622
0.270266
0.269007
0.267848
0.26679
0.265835
0.264982
0.264235
0.263593
0.263056
0.262627
0.262305
0.262091
0.261984
0.261984
0.262091
0.262305
0.262627
0.263056
0.263593
0.264235
0.264982
0.265835
0.26679
0.267848
0.269007
0.270266
0.271622
0.273075
0.274621
0.27626
0.27799
0.279849
0.309141
0.306643
0.304244
0.301921
0.299678
0.297517
0.295445
0.293476
0.291668
0.289956
0.288339
0.286819
0.2854
0.284082
0.282869
0.281761
0.28076
0.279867
0.279084
0.278411
0.277849
0.277399
0.277065
0.276846
0.276736
0.276736
0.276846
0.277065
0.277399
0.277849
0.278411
0.279084
0.279867
0.28076
0.281761
0.282869
0.284082
0.2854
0.286819
0.288338
0.289956
0.291668
0.293476
0.295445
0.326826
0.324245
0.321762
0.319355
0.317028
0.314786
0.312633
0.310581
0.308664
0.306847
0.30513
0.303517
0.30201
0.300611
0.299323
0.298146
0.297083
0.296134
0.295302
0.294587
0.29399
0.293512
0.29316
0.292931
0.292816
0.292816
0.292931
0.29316
0.293512
0.29399
0.294587
0.295302
0.296134
0.297083
0.298146
0.299323
0.300611
0.30201
0.303517
0.30513
0.306847
0.308664
0.310581
0.312633
0.345447
0.342858
0.340361
0.337937
0.335589
0.333323
0.331145
0.329061
0.327079
0.325199
0.323421
0.32175
0.320187
0.318736
0.317399
0.316177
0.315072
0.314087
0.313222
0.312479
0.311858
0.311361
0.310991
0.310747
0.310626
0.310626
0.310747
0.310991
0.311361
0.311858
0.312479
0.313222
0.314087
0.315072
0.316177
0.317399
0.318736
0.320187
0.32175
0.323421
0.325199
0.327079
0.329061
0.331145
0.364775
0.36222
0.359749
0.357346
0.355013
0.352759
0.350587
0.348506
0.346521
0.344634
0.342849
0.341168
0.339594
0.338132
0.336783
0.335549
0.334434
0.333437
0.332563
0.33181
0.331182
0.330678
0.3303
0.330049
0.329923
0.329923
0.330049
0.3303
0.330678
0.331182
0.33181
0.332563
0.333437
0.334434
0.335549
0.336783
0.338132
0.339594
0.341168
0.342849
0.344634
0.346521
0.348506
0.350587
0.384522
0.382049
0.379652
0.377313
0.375039
0.372836
0.37071
0.368668
0.366715
0.364857
0.363095
0.361434
0.359878
0.358429
0.357091
0.355867
0.354758
0.353768
0.352897
0.352148
0.351522
0.35102
0.350643
0.350392
0.350266
0.350266
0.350392
0.350643
0.35102
0.351522
0.352148
0.352897
0.353768
0.354758
0.355867
0.357091
0.358429
0.359878
0.361434
0.363095
0.364857
0.366715
0.368668
0.37071
0.404299
0.401963
0.399691
0.397468
0.395301
0.393197
0.391162
0.389203
0.387325
0.385533
0.383832
0.382226
0.380718
0.379313
0.378014
0.376823
0.375744
0.374779
0.37393
0.373199
0.372587
0.372097
0.371728
0.371482
0.371359
0.371359
0.371482
0.371728
0.372097
0.372587
0.373199
0.37393
0.374779
0.375744
0.376823
0.378014
0.379313
0.380718
0.382226
0.383832
0.385533
0.387325
0.389203
0.391162
0.393197
0.423619
0.421476
0.419385
0.417332
0.415325
0.413371
0.411476
0.409648
0.407889
0.406208
0.404609
0.403096
0.401674
0.400346
0.399117
0.397988
0.396965
0.396048
0.395241
0.394545
0.393963
0.393496
0.393144
0.392909
0.392792
0.392792
0.392909
0.393144
0.393496
0.393963
0.394545
0.395241
0.396048
0.396965
0.397988
0.399117
0.400346
0.401674
0.403096
0.404609
0.406208
0.407889
0.409648
0.411476
0.413371
0.441935
0.440035
0.438173
0.43634
0.434543
0.432788
0.431082
0.429431
0.427838
0.426311
0.424856
0.423477
0.422177
0.420962
0.419835
0.4188
0.417859
0.417015
0.416272
0.41563
0.415093
0.414662
0.414337
0.414119
0.414011
0.414011
0.414119
0.414337
0.414662
0.415093
0.41563
0.416272
0.417015
0.417859
0.4188
0.419835
0.420962
0.422177
0.423477
0.424856
0.426311
0.427838
0.429431
0.431082
0.432788
0.458692
0.457072
0.455479
0.453904
0.452355
0.450839
0.449361
0.447926
0.446537
0.445202
0.443927
0.442716
0.441574
0.440503
0.439509
0.438594
0.437761
0.437014
0.436354
0.435785
0.435307
0.434924
0.434634
0.434441
0.434344
0.434344
0.434441
0.434634
0.434924
0.435307
0.435785
0.436354
0.437014
0.437761
0.438594
0.439509
0.440503
0.441574
0.442716
0.443927
0.445202
0.446537
0.447926
0.449361
0.450839
0.452355
0.473416
0.472092
0.470785
0.469488
0.468209
0.466953
0.465726
0.464532
0.463371
0.462253
0.461183
0.460165
0.459202
0.458299
0.457459
0.456684
0.455979
0.455345
0.454785
0.454301
0.453895
0.453568
0.453321
0.453156
0.453073
0.453073
0.453156
0.453321
0.453568
0.453895
0.454301
0.454785
0.455345
0.455979
0.456684
0.457459
0.458299
0.459202
0.460165
0.461183
0.462253
0.463371
0.464532
0.465726
0.466953
0.468209
0.485788
0.484754
0.483727
0.482705
0.481694
0.4807
0.479726
0.478776
0.477848
0.476953
0.476095
0.475277
0.474503
0.473775
0.473097
0.472472
0.471902
0.471389
0.470936
0.470544
0.470214
0.469949
0.469749
0.469614
0.469547
0.469547
0.469614
0.469749
0.469949
0.470214
0.470544
0.470936
0.471389
0.471902
0.472472
0.473098
0.473775
0.474503
0.475277
0.476095
0.476953
0.477848
0.478775
0.479726
0.4807
0.481694
0.482705
0.495704
0.494929
0.494156
0.493383
0.492617
0.491863
0.491123
0.490399
0.48969
0.489004
0.488346
0.487718
0.487123
0.486564
0.486043
0.485561
0.485122
0.484727
0.484377
0.484074
0.48382
0.483615
0.48346
0.483356
0.483303
0.483303
0.483356
0.48346
0.483615
0.48382
0.484074
0.484377
0.484727
0.485122
0.485561
0.486043
0.486564
0.487123
0.487718
0.488346
0.489004
0.48969
0.490399
0.491123
0.491863
0.492617
0.493383
0.503279
0.502718
0.502155
0.50159
0.501029
0.500477
0.499935
0.499404
0.498881
0.498375
0.497889
0.497426
0.496987
0.496575
0.49619
0.495835
0.495511
0.495219
0.494961
0.494738
0.49455
0.494399
0.494284
0.494207
0.494168
0.494168
0.494207
0.494284
0.494399
0.49455
0.494738
0.494961
0.495219
0.495511
0.495835
0.49619
0.496575
0.496987
0.497426
0.497889
0.498375
0.498881
0.499404
0.499935
0.500477
0.501029
0.50159
0.508803
0.508407
0.508004
0.507598
0.507196
0.5068
0.506412
0.506031
0.505653
0.505288
0.504938
0.504605
0.50429
0.503994
0.503718
0.503464
0.503232
0.503024
0.502839
0.50268
0.502546
0.502438
0.502356
0.5023
0.502272
0.502272
0.5023
0.502356
0.502438
0.502546
0.50268
0.502839
0.503023
0.503232
0.503464
0.503718
0.503994
0.50429
0.504605
0.504938
0.505288
0.505653
0.506031
0.506412
0.5068
0.507196
0.507598
0.512675
0.512394
0.512105
0.511812
0.511522
0.511237
0.510958
0.510684
0.510411
0.510148
0.509895
0.509656
0.50943
0.509218
0.509022
0.508841
0.508676
0.508529
0.508398
0.508286
0.508191
0.508115
0.508057
0.508017
0.507997
0.507997
0.508017
0.508057
0.508115
0.508191
0.508286
0.508398
0.508529
0.508676
0.508841
0.509022
0.509218
0.50943
0.509656
0.509895
0.510148
0.510411
0.510684
0.510958
0.511237
0.511522
0.511812
0.515317
0.515112
0.514896
0.514677
0.514461
0.514248
0.514041
0.513838
0.513634
0.513437
0.513249
0.513072
0.512905
0.512749
0.512605
0.512473
0.512354
0.512246
0.512152
0.512071
0.512002
0.511947
0.511905
0.511876
0.511861
0.511861
0.511876
0.511905
0.511947
0.512002
0.512071
0.512152
0.512246
0.512354
0.512473
0.512605
0.512749
0.512905
0.513072
0.513249
0.513437
0.513634
0.513838
0.514041
0.514248
0.514461
0.514677
0.514896
0.517113
0.516955
0.516784
0.51661
0.516438
0.51627
0.516106
0.515946
0.515783
0.515627
0.515479
0.515339
0.515209
0.515087
0.514975
0.514873
0.514781
0.514698
0.514626
0.514564
0.514511
0.51447
0.514437
0.514414
0.514403
0.514403
0.514414
0.514437
0.51447
0.514511
0.514564
0.514626
0.514698
0.514781
0.514873
0.514975
0.515087
0.515209
0.515339
0.515479
0.515627
0.515783
0.515946
0.516106
0.51627
0.516438
0.51661
0.516784
0.518374
0.518244
0.518099
0.517951
0.517804
0.517661
0.517523
0.517387
0.517248
0.517115
0.516989
0.516871
0.516761
0.51666
0.516566
0.516481
0.516404
0.516335
0.516275
0.516224
0.516181
0.516146
0.516119
0.5161
0.516091
0.516091
0.5161
0.516119
0.516146
0.516181
0.516224
0.516275
0.516335
0.516404
0.516481
0.516566
0.51666
0.516761
0.516871
0.516989
0.517115
0.517248
0.517387
0.517523
0.517661
0.517804
0.517951
0.518099
0.519325
0.519213
0.519083
0.518949
0.518816
0.518688
0.518563
0.518441
0.518316
0.518196
0.518083
0.517976
0.517878
0.517787
0.517703
0.517627
0.517559
0.517498
0.517445
0.517399
0.517361
0.517331
0.517307
0.51729
0.517281
0.517281
0.51729
0.517307
0.517331
0.517361
0.517399
0.517445
0.517498
0.517559
0.517627
0.517703
0.517787
0.517878
0.517976
0.518083
0.518196
0.518316
0.518441
0.518563
0.518688
0.518816
0.518949
0.519083
0.520116
0.520014
0.519893
0.519768
0.519645
0.519525
0.519408
0.519294
0.519177
0.519065
0.518959
0.51886
0.518767
0.518683
0.518605
0.518534
0.518471
0.518414
0.518365
0.518323
0.518288
0.518259
0.518237
0.518222
0.518214
0.518214
0.518222
0.518237
0.518259
0.518288
0.518323
0.518365
0.518414
0.518471
0.518534
0.518605
0.518683
0.518767
0.51886
0.518959
0.519065
0.519177
0.519294
0.519408
0.519524
0.519645
0.519768
0.519893
0.520831
0.520738
0.520624
0.520505
0.520387
0.520273
0.520163
0.520055
0.519943
0.519836
0.519735
0.519641
0.519553
0.519472
0.519399
0.519332
0.519271
0.519218
0.519171
0.519131
0.519098
0.519071
0.51905
0.519035
0.519028
0.519028
0.519035
0.51905
0.519071
0.519098
0.519131
0.519171
0.519218
0.519271
0.519332
0.519399
0.519472
0.519553
0.519641
0.519735
0.519836
0.519943
0.520055
0.520163
0.520273
0.520387
0.520505
0.520624
0.521514
0.521429
0.52132
0.521206
0.521094
0.520985
0.52088
0.520776
0.52067
0.520567
0.52047
0.52038
0.520296
0.520219
0.520148
0.520084
0.520027
0.519976
0.519931
0.519893
0.519862
0.519836
0.519816
0.519802
0.519794
0.519794
0.519802
0.519816
0.519836
0.519862
0.519893
0.519931
0.519976
0.520027
0.520084
0.520148
0.520219
0.520296
0.52038
0.52047
0.520567
0.520669
0.520776
0.52088
0.520985
0.521094
0.521206
0.52132
0.522182
0.522104
0.522
0.521892
0.521785
0.521681
0.52158
0.521481
0.521379
0.52128
0.521187
0.521101
0.521021
0.520947
0.520879
0.520818
0.520763
0.520715
0.520672
0.520636
0.520606
0.520581
0.520562
0.520548
0.520542
0.520542
0.520548
0.520562
0.520581
0.520606
0.520636
0.520672
0.520715
0.520763
0.520818
0.520879
0.520947
0.521021
0.521101
0.521187
0.52128
0.521379
0.521481
0.52158
0.521681
0.521785
0.521892
0.522
0.0950976
0.098421
0.101924
0.105619
0.109521
0.113644
0.118005
0.122622
0.127512
0.132698
0.1382
0.144042
0.15025
0.156851
0.163872
0.171344
0.179299
0.187768
0.196784
0.206382
0.216592
0.227446
0.238972
0.251195
0.264144
0.277887
0.292766
0.309141
0.326826
0.345447
0.364775
0.384522
0.404299
0.423619
0.441935
0.458692
0.473416
0.485788
0.495704
0.503279
0.508803
0.512675
0.515317
0.517113
0.518374
0.519325
0.520116
0.520831
0.521514
0.522182
0.0941659
0.0974547
0.100921
0.104579
0.10844
0.112521
0.116838
0.121408
0.126251
0.131385
0.136835
0.142622
0.148773
0.155314
0.162274
0.169684
0.177574
0.185977
0.194928
0.204459
0.214605
0.225396
0.236863
0.249031
0.261929
0.275621
0.290404
0.306643
0.324245
0.342858
0.36222
0.382049
0.401963
0.421476
0.440035
0.457072
0.472092
0.484754
0.494929
0.502718
0.508407
0.512394
0.515112
0.516955
0.518244
0.519213
0.520014
0.520738
0.521429
0.522104
0.0932873
0.096543
0.099975
0.103596
0.107419
0.11146
0.115735
0.120261
0.125057
0.130144
0.135543
0.141277
0.147374
0.153858
0.160759
0.168108
0.175936
0.184277
0.193164
0.202632
0.212714
0.223444
0.234852
0.246966
0.259813
0.273454
0.288141
0.304244
0.321762
0.340361
0.359749
0.379652
0.399691
0.419385
0.438173
0.455479
0.470785
0.483727
0.494156
0.502155
0.508004
0.512105
0.514896
0.516784
0.518099
0.519083
0.519893
0.520624
0.52132
0.522
0.0924451
0.0956693
0.099068
0.102654
0.106441
0.110444
0.114678
0.119162
0.123914
0.128954
0.134304
0.139988
0.146032
0.152461
0.159306
0.166596
0.174364
0.182643
0.191468
0.200874
0.210894
0.221564
0.232914
0.244973
0.25777
0.271358
0.285951
0.301921
0.319355
0.337937
0.357346
0.377313
0.397468
0.417332
0.43634
0.453904
0.469488
0.482705
0.493383
0.50159
0.507598
0.511812
0.514677
0.51661
0.517951
0.518949
0.519768
0.520505
0.521206
0.521892
0.0916398
0.0948337
0.0982007
0.101753
0.105505
0.109471
0.113667
0.11811
0.122819
0.127815
0.133118
0.138754
0.144746
0.151123
0.157913
0.165146
0.172856
0.181076
0.18984
0.199184
0.209145
0.219755
0.231048
0.243054
0.255801
0.269336
0.283836
0.299678
0.317028
0.335589
0.355013
0.375039
0.395301
0.415325
0.434543
0.452355
0.468209
0.481694
0.492617
0.501029
0.507196
0.511522
0.514461
0.516438
0.517804
0.518816
0.519645
0.520387
0.521094
0.521785
0.0908713
0.0940364
0.0973731
0.100894
0.104612
0.108543
0.112701
0.117106
0.121774
0.126727
0.131986
0.137574
0.143518
0.149843
0.15658
0.163759
0.171412
0.179574
0.18828
0.197566
0.207467
0.21802
0.229257
0.24121
0.253907
0.26739
0.281801
0.297517
0.314786
0.333323
0.352759
0.372836
0.393197
0.413371
0.432788
0.450839
0.466953
0.4807
0.491863
0.500477
0.5068
0.511237
0.514248
0.51627
0.517661
0.518688
0.519525
0.520273
0.520985
0.521681
0.0901399
0.0932775
0.0965853
0.100076
0.103762
0.107659
0.111782
0.116149
0.120779
0.12569
0.130906
0.13645
0.142347
0.148623
0.15531
0.162436
0.170035
0.178142
0.186791
0.196019
0.205864
0.216361
0.227544
0.239445
0.252093
0.265525
0.279849
0.295445
0.312633
0.331145
0.350587
0.37071
0.391162
0.411476
0.431082
0.449361
0.465726
0.479726
0.491123
0.499935
0.506412
0.510958
0.514041
0.516106
0.517523
0.518563
0.519408
0.520163
0.52088
0.52158
0.0894455
0.092557
0.0958372
0.0992986
0.102954
0.106819
0.110909
0.115241
0.119833
0.124706
0.129881
0.135382
0.141234
0.147464
0.154102
0.161178
0.168725
0.176779
0.185374
0.194548
0.204338
0.21478
0.225911
0.237762
0.250363
0.263746
0.27799
0.293476
0.310581
0.329061
0.348506
0.368668
0.389203
0.409648
0.429431
0.447926
0.464532
0.478776
0.490399
0.499404
0.506031
0.510684
0.513838
0.515946
0.517387
0.518441
0.519294
0.520055
0.520776
0.521481
0.088788
0.0918747
0.0951289
0.0985628
0.10219
0.106024
0.110082
0.11438
0.118937
0.123773
0.128909
0.134369
0.140178
0.146364
0.152956
0.159984
0.167482
0.175484
0.184028
0.193149
0.202886
0.213277
0.224357
0.236159
0.248715
0.262057
0.27626
0.291668
0.308664
0.327079
0.346521
0.366715
0.387325
0.407889
0.427838
0.446537
0.463371
0.477848
0.48969
0.498881
0.505653
0.510411
0.513634
0.515783
0.517248
0.518316
0.519177
0.519943
0.52067
0.521379
0.0881682
0.0912314
0.094461
0.097869
0.101469
0.105275
0.109302
0.113568
0.118092
0.122893
0.127992
0.133414
0.139183
0.145327
0.151874
0.158857
0.166308
0.174263
0.182757
0.191828
0.201515
0.211856
0.222888
0.234644
0.247157
0.260459
0.274621
0.289956
0.306847
0.325199
0.344634
0.364857
0.385533
0.406208
0.426311
0.445202
0.462253
0.476953
0.489004
0.498375
0.505288
0.510148
0.513437
0.515627
0.517115
0.518196
0.519065
0.519836
0.520567
0.52128
0.0875864
0.0906277
0.0938342
0.0972179
0.100792
0.104571
0.10857
0.112807
0.117299
0.122066
0.127131
0.132517
0.138248
0.144352
0.150858
0.157799
0.165205
0.173114
0.181561
0.190586
0.200225
0.210519
0.221504
0.233216
0.245688
0.258952
0.273075
0.288339
0.30513
0.323421
0.342849
0.363095
0.383832
0.404609
0.424856
0.443927
0.461183
0.476095
0.488346
0.497889
0.504938
0.509895
0.513249
0.515479
0.51699
0.518083
0.518959
0.519735
0.52047
0.521187
0.087043
0.0900638
0.0932487
0.0966096
0.10016
0.103913
0.107886
0.112095
0.116558
0.121294
0.126327
0.131678
0.137374
0.143441
0.149909
0.156808
0.164174
0.172039
0.180443
0.189422
0.199017
0.209266
0.220208
0.231878
0.24431
0.257537
0.271622
0.286819
0.303517
0.32175
0.341168
0.361434
0.382226
0.403096
0.423477
0.442716
0.460165
0.475277
0.487718
0.497426
0.504605
0.509656
0.513072
0.515339
0.516871
0.517977
0.51886
0.519641
0.52038
0.521101
0.0865382
0.0895399
0.0927047
0.0960445
0.0995724
0.103303
0.107251
0.111433
0.115869
0.120577
0.125579
0.130899
0.136561
0.142594
0.149025
0.155887
0.163214
0.171039
0.179402
0.188339
0.197892
0.208099
0.218999
0.23063
0.243024
0.256217
0.270266
0.2854
0.30201
0.320187
0.339594
0.359878
0.380718
0.401674
0.422177
0.441574
0.459202
0.474503
0.487123
0.496987
0.50429
0.50943
0.512905
0.515209
0.516761
0.517878
0.518768
0.519553
0.520296
0.521021
0.086072
0.0890561
0.0922023
0.0955225
0.0990298
0.102738
0.106664
0.110822
0.115232
0.119914
0.124888
0.130179
0.13581
0.14181
0.148209
0.155036
0.162326
0.170114
0.178438
0.187337
0.19685
0.207018
0.21788
0.229473
0.241832
0.254992
0.269007
0.284082
0.300611
0.318736
0.338132
0.358429
0.379313
0.400346
0.420962
0.440503
0.458299
0.473775
0.486564
0.496575
0.503994
0.509218
0.512749
0.515087
0.51666
0.517787
0.518683
0.519472
0.520219
0.520947
0.0856445
0.0886124
0.0917415
0.0950438
0.0985323
0.102221
0.106125
0.110262
0.114649
0.119306
0.124254
0.129518
0.135121
0.141092
0.147459
0.154254
0.161511
0.169265
0.177554
0.186417
0.195893
0.206025
0.216851
0.228409
0.240736
0.253865
0.267848
0.282869
0.299323
0.317399
0.336783
0.357091
0.378014
0.399117
0.419835
0.439509
0.457459
0.473098
0.486043
0.49619
0.503718
0.509022
0.512606
0.514976
0.516566
0.517703
0.518605
0.519399
0.520148
0.520879
0.0852558
0.088209
0.0913226
0.0946086
0.0980798
0.10175
0.105635
0.109752
0.114118
0.118752
0.123678
0.128917
0.134494
0.140438
0.146777
0.153543
0.160769
0.168492
0.176748
0.185578
0.195022
0.20512
0.215913
0.22744
0.239736
0.252836
0.26679
0.281761
0.298146
0.316177
0.335549
0.355867
0.376823
0.397988
0.4188
0.438594
0.456684
0.472472
0.485561
0.495835
0.503464
0.508841
0.512473
0.514873
0.516481
0.517627
0.518534
0.519332
0.520084
0.520818
0.0849059
0.0878458
0.0909455
0.0942168
0.0976725
0.101327
0.105195
0.109293
0.11364
0.118254
0.123158
0.128375
0.13393
0.139849
0.146163
0.152902
0.160101
0.167795
0.176022
0.184822
0.194235
0.204303
0.215067
0.226565
0.238833
0.251908
0.265835
0.28076
0.297083
0.315072
0.334434
0.354758
0.375744
0.396965
0.417859
0.437761
0.455979
0.471902
0.485122
0.495511
0.503232
0.508676
0.512354
0.514781
0.516404
0.517559
0.518471
0.519271
0.520027
0.520763
0.0845948
0.087523
0.0906103
0.0938685
0.0973104
0.10095
0.104803
0.108885
0.113215
0.117811
0.122697
0.127894
0.133427
0.139325
0.145616
0.152332
0.159506
0.167175
0.175376
0.184149
0.193536
0.203577
0.214313
0.225785
0.238029
0.25108
0.264982
0.279867
0.296134
0.314087
0.333438
0.353768
0.374779
0.396048
0.417015
0.437014
0.455345
0.471389
0.484727
0.495219
0.503024
0.508529
0.512246
0.514698
0.516335
0.517498
0.518414
0.519218
0.519976
0.520715
0.0843227
0.0872405
0.0903169
0.0935637
0.0969935
0.100621
0.10446
0.108528
0.112843
0.117424
0.122293
0.127472
0.132988
0.138867
0.145138
0.151833
0.158985
0.166632
0.17481
0.18356
0.192923
0.20294
0.213653
0.225102
0.237324
0.250354
0.264235
0.279084
0.295302
0.313222
0.332563
0.352897
0.37393
0.395241
0.416272
0.436354
0.454785
0.470936
0.484377
0.494961
0.502839
0.508398
0.512152
0.514626
0.516275
0.517445
0.518365
0.519171
0.519931
0.520672
0.0840894
0.0869984
0.0900655
0.0933024
0.096722
0.100338
0.104166
0.108222
0.112524
0.117092
0.121946
0.127111
0.132611
0.138473
0.144727
0.151405
0.158539
0.166166
0.174325
0.183055
0.192397
0.202393
0.213086
0.224515
0.236718
0.24973
0.263593
0.278411
0.294587
0.312479
0.33181
0.352148
0.373199
0.394545
0.41563
0.435785
0.454301
0.470544
0.484074
0.494738
0.50268
0.508286
0.512071
0.514564
0.516224
0.517399
0.518323
0.519132
0.519893
0.520636
0.083895
0.0867967
0.089856
0.0930847
0.0964956
0.100103
0.103921