/*--------------------------------*- C++ -*----------------------------------*\
  =========                 |
  \\      /  F ield         | OpenFOAM: The Open Source CFD Toolbox
   \\    /   O peration     | Website:  https://openfoam.org
    \\  /    A nd           | Version:  7
     \\/     M anipulation  |
\*---------------------------------------------------------------------------*/
FoamFile
{
    version     2.0;
    format      ascii;
    class       surfaceScalarField;
    location    "164000";
    object      phi;
}
// * * * * * * * * * * * * * * * * * * * * * * * * * * * * * * * * * * * * * //

dimensions      [0 3 -1 0 0 0 0];

internalField   nonuniform List<scalar> 
9490
(
-1.45977e-23
1.2188e-22
2.1305e-23
-5.53861e-24
-1.41867e-23
1.57271e-22
2.25753e-23
-2.1438e-23
1.01024e-23
-2.27637e-23
1.35615e-22
-1.01139e-23
9.45263e-23
-7.8722e-24
-1.40413e-23
1.4991e-22
2.16517e-23
-2.17865e-23
4.83076e-23
-2.33041e-23
9.98643e-23
-9.84119e-24
9.27114e-23
5.77173e-24
-1.35823e-23
1.74484e-22
2.05683e-23
-2.35566e-23
6.12037e-23
-2.32947e-23
1.37694e-22
-1.07049e-23
1.5889e-22
1.19955e-23
-1.15577e-23
1.30077e-22
1.96244e-23
-2.47621e-23
-4.67102e-23
-2.22222e-23
1.34616e-22
-1.19435e-23
1.89938e-22
2.1909e-23
-1.29591e-23
9.34054e-23
1.84092e-23
-2.39236e-23
-1.06348e-22
-2.28786e-23
8.80753e-23
-1.24449e-23
1.45927e-22
-7.44432e-24
-1.37887e-23
8.01035e-23
1.89869e-23
-2.39375e-23
-8.60094e-23
-2.10091e-23
8.54923e-23
-1.35835e-23
1.6576e-23
1.11686e-24
-1.37645e-23
1.08924e-22
1.99947e-23
-2.33716e-23
-6.50343e-23
-2.07494e-23
7.96136e-23
-1.30065e-23
1.64412e-23
-7.17893e-23
-1.55538e-23
1.03034e-22
1.92334e-23
-2.23002e-23
3.31121e-23
-2.15514e-23
7.87501e-23
-1.31847e-23
5.85149e-23
-6.16684e-23
-1.6662e-23
1.01818e-22
1.72237e-23
-2.19713e-23
1.32335e-22
-2.21333e-23
7.83486e-23
-1.34979e-23
1.00522e-22
-5.74336e-23
-1.64468e-23
2.1662e-23
1.58991e-23
-2.26382e-23
1.3745e-22
-2.12629e-23
7.37181e-23
-1.45881e-23
1.67089e-22
-2.08598e-23
-1.61501e-23
2.15118e-23
1.55686e-23
-2.28716e-23
1.433e-22
-2.22469e-23
7.39939e-23
-1.53743e-23
1.72833e-22
-2.2228e-23
-1.46021e-23
-2.37664e-23
1.56736e-23
-2.31597e-23
1.06444e-22
-2.23972e-23
5.90547e-23
-1.61247e-23
1.79759e-22
-1.49032e-23
-2.41118e-23
1.48283e-23
-2.2568e-23
1.07636e-22
-2.20733e-23
1.4809e-23
1.80893e-22
-1.51715e-23
-2.39535e-23
1.53748e-23
-2.23805e-23
1.08916e-22
-2.22673e-23
5.04648e-24
1.94019e-22
-1.55472e-23
-9.8045e-23
1.4911e-23
-2.1449e-23
1.52223e-22
-2.19608e-23
-2.35637e-24
-1.54413e-23
-1.66009e-23
1.48786e-23
-2.17041e-23
1.54925e-22
-5.00667e-23
-1.49641e-23
-5.47758e-23
1.45338e-23
-2.14427e-23
1.54071e-22
-1.48712e-23
-5.42347e-23
1.53149e-23
1.54674e-22
-1.53901e-23
-1.063e-23
1.49505e-23
1.54431e-22
-1.50851e-23
-4.59093e-23
1.4502e-23
1.22801e-22
-1.53956e-23
-6.1466e-24
1.45202e-23
1.13857e-22
-1.4686e-23
6.0014e-23
1.54498e-23
1.46339e-23
-3.82528e-24
2.70286e-23
3.5176e-24
1.24931e-23
2.29179e-24
-1.23583e-24
1.25154e-23
9.33946e-24
3.21326e-23
-4.5066e-24
7.51858e-24
5.44782e-24
-1.95104e-23
8.83535e-24
7.55719e-23
1.23231e-23
2.73223e-23
1.42706e-23
1.15574e-22
1.92833e-23
-2.53764e-23
6.96684e-24
-2.70567e-23
4.14006e-24
3.92428e-23
-5.45478e-24
1.41348e-23
2.31731e-24
9.05445e-23
1.02386e-23
1.86651e-22
2.54506e-23
2.26697e-22
1.34494e-23
9.76477e-23
1.46696e-23
7.11414e-23
-1.25927e-25
7.06238e-23
5.15646e-23
-4.08619e-24
5.70479e-23
3.58671e-24
1.24779e-23
1.09879e-22
-4.65086e-25
-5.32334e-23
6.47174e-24
1.86382e-23
-4.18077e-24
-1.55685e-23
4.6418e-24
-1.86039e-23
9.00811e-24
8.53274e-23
1.23906e-23
3.65402e-23
1.37505e-23
2.01781e-22
1.6455e-23
-2.79956e-23
9.46662e-24
-3.43261e-24
3.52996e-24
-2.97073e-23
-4.00535e-24
3.35937e-23
4.5541e-24
1.10097e-22
1.19007e-23
1.83287e-22
2.30786e-23
2.18184e-22
1.13981e-23
1.05648e-22
1.34731e-23
4.09341e-23
-1.07473e-24
5.22617e-23
4.34153e-23
-1.14495e-24
5.90892e-23
1.82789e-24
8.90864e-24
1.01893e-22
-1.10543e-24
-4.4676e-23
6.40713e-24
1.21775e-23
-4.30817e-24
-4.6823e-23
5.03704e-24
-2.09495e-23
9.60201e-24
9.4761e-23
1.23298e-23
5.23301e-23
1.0781e-23
2.07877e-22
1.57951e-23
-2.65538e-23
8.17947e-24
1.48807e-23
4.82344e-24
-1.36311e-23
-1.31743e-24
5.47803e-23
6.09428e-24
9.73437e-23
1.2783e-23
1.80696e-22
2.02517e-23
1.75347e-22
1.19015e-23
7.92484e-23
1.30022e-23
4.8732e-23
-1.5039e-24
3.41121e-23
4.8877e-23
-2.1151e-24
4.07857e-23
-1.18348e-24
6.68305e-24
4.49241e-23
-1.52814e-24
1.25616e-23
4.7559e-24
1.75901e-23
-2.88888e-24
-5.92478e-24
5.04636e-24
-2.12506e-23
1.24824e-23
1.30181e-23
1.34435e-23
-2.16588e-23
8.63241e-24
1.67938e-22
1.45727e-23
-2.68596e-23
9.69592e-24
1.28382e-23
5.30411e-24
3.26394e-24
1.70556e-25
5.69121e-23
8.79344e-24
1.22226e-22
1.21858e-23
1.47582e-22
1.93298e-23
1.70698e-22
1.05485e-23
8.05017e-23
1.18759e-23
5.36182e-23
-8.35635e-25
4.67477e-23
5.14348e-23
-2.73835e-24
2.8859e-23
-2.50637e-24
4.22336e-24
8.41089e-23
-1.19078e-24
-1.53538e-23
4.64598e-24
4.9241e-24
-2.41952e-24
1.53148e-24
4.08224e-24
-1.58536e-23
1.32249e-23
5.43677e-23
1.40034e-23
-3.50361e-23
6.92849e-24
1.30839e-22
1.26682e-23
3.0322e-24
1.0091e-23
5.43059e-23
6.39586e-24
1.83011e-23
1.99807e-24
1.63716e-23
1.04251e-23
7.97339e-23
1.10994e-23
1.10883e-22
1.87528e-23
1.30152e-22
8.81646e-24
4.71886e-23
1.17399e-23
5.49267e-23
-1.87278e-24
5.98289e-23
8.70897e-23
-1.158e-24
-2.18856e-23
-1.70451e-24
1.84464e-24
7.94768e-23
-2.65776e-24
-1.22242e-23
4.59374e-24
2.99128e-23
-1.68875e-24
9.1967e-24
2.39564e-24
-1.39515e-23
1.47636e-23
8.15764e-23
1.67412e-23
-3.3726e-23
6.71848e-24
8.16579e-23
1.2377e-23
-9.08852e-23
1.1061e-23
1.00885e-22
7.09738e-24
2.12227e-23
3.23866e-24
9.59458e-23
1.14271e-23
1.47699e-22
1.04189e-23
1.08529e-22
1.73298e-23
1.23474e-22
7.92178e-24
4.54901e-23
1.17541e-23
8.35137e-23
-1.6992e-24
2.66536e-23
4.7098e-23
-1.14603e-24
-7.63015e-23
-2.72062e-24
1.70068e-24
6.9375e-23
-2.23645e-24
2.82635e-23
3.2735e-24
-2.25375e-23
-1.94259e-24
7.5287e-24
3.08501e-24
-3.22994e-23
1.34096e-23
1.67845e-22
1.68412e-23
-3.78783e-23
6.40661e-24
7.34556e-23
1.23903e-23
-9.30804e-23
1.10079e-23
1.42204e-22
7.4969e-24
5.97017e-23
2.99868e-24
8.65768e-23
1.20445e-23
9.16443e-23
8.2886e-24
8.4915e-23
1.64846e-23
1.12573e-22
8.56363e-24
-4.62556e-23
1.12411e-23
7.97298e-23
-1.70316e-24
7.07038e-23
9.4495e-23
8.65326e-25
-7.31741e-24
-1.40398e-25
9.47005e-25
3.3403e-23
-3.99798e-24
6.35455e-23
3.56647e-24
-7.83406e-23
-1.28806e-24
-2.48183e-23
6.0942e-24
-3.14982e-23
1.25069e-23
2.41482e-22
1.58637e-23
-3.26236e-23
5.48197e-24
2.90467e-23
1.34482e-23
-9.98179e-23
1.14464e-23
1.34656e-22
6.94665e-24
1.70246e-23
5.07305e-24
1.57509e-22
1.09847e-23
9.1684e-23
8.44709e-24
5.63388e-23
1.53362e-23
1.06513e-22
1.04141e-23
-1.16663e-23
1.23716e-23
7.68005e-23
-2.54909e-24
4.85408e-23
1.98181e-24
9.88606e-23
5.08611e-24
-2.81051e-23
4.68058e-24
5.85638e-23
2.26459e-24
2.8041e-23
4.58043e-24
-4.06553e-23
-1.30939e-23
-5.81126e-23
-1.32547e-23
-3.9146e-23
-9.87558e-24
6.3503e-23
-9.29909e-24
-9.51392e-23
1.56262e-24
1.08056e-23
-5.59481e-24
-4.51736e-23
2.52709e-24
2.8844e-23
-8.60745e-24
-8.88542e-23
-6.59062e-24
1.02436e-23
-5.25549e-25
5.25339e-23
-1.21953e-23
2.20441e-24
5.08963e-23
1.19463e-24
1.26386e-24
-5.31804e-24
-5.0412e-24
7.16168e-23
3.6659e-24
-8.68444e-23
-4.41914e-26
6.04881e-23
8.80135e-24
9.16347e-25
1.0124e-23
1.5136e-22
1.45305e-23
-6.51371e-24
3.95348e-24
1.1546e-22
1.58735e-23
-3.31893e-23
1.31641e-23
1.23001e-22
7.58938e-24
-2.23262e-23
3.98966e-24
1.43332e-22
8.74008e-24
7.35617e-23
8.8078e-24
6.1025e-23
1.31637e-23
1.04283e-22
1.12604e-23
6.51705e-23
1.26014e-23
7.29202e-23
-2.31752e-24
-2.44287e-23
4.5771e-25
1.04426e-22
6.17913e-24
9.22033e-24
4.13374e-24
2.70662e-23
1.17256e-24
2.65276e-23
4.23177e-24
-1.4064e-23
-1.22849e-23
-5.06399e-23
-1.18484e-23
-3.98393e-24
-1.25199e-23
6.92219e-23
-7.70311e-24
-7.99176e-23
3.97894e-25
1.1281e-23
-3.33925e-24
-1.27439e-23
7.4054e-26
2.66813e-23
-5.86137e-24
-5.95316e-23
-5.67754e-24
-3.04699e-23
-3.23858e-25
6.20514e-23
9.8783e-24
-2.74391e-23
3.38959e-25
2.25184e-24
-4.02285e-23
-8.60712e-26
6.78255e-25
-1.26826e-24
2.23777e-24
-5.26073e-23
-7.19154e-24
1.13787e-22
4.1885e-24
-9.22525e-23
1.39942e-24
6.70026e-23
8.24384e-24
-8.98862e-23
8.55094e-24
1.2271e-22
1.67938e-23
-1.9937e-23
2.46065e-24
3.75167e-23
1.46637e-23
-5.21167e-23
1.35472e-23
1.10225e-22
8.99643e-24
-2.42347e-23
3.77188e-24
1.60728e-22
7.56492e-24
5.32926e-23
9.4125e-24
7.2734e-23
1.39735e-23
6.63266e-23
1.01803e-23
5.86125e-23
1.18035e-23
1.02424e-22
-5.50123e-25
-1.52021e-23
-2.18893e-25
1.15581e-22
6.14932e-24
-2.87646e-23
4.01347e-24
3.61338e-23
3.94823e-25
3.19049e-23
3.285e-24
-2.36755e-23
-1.0465e-23
-4.49992e-23
-1.1604e-23
-3.79002e-23
-1.34875e-23
7.32379e-23
-7.59563e-24
-7.66701e-23
6.72857e-25
9.79389e-24
-2.70196e-24
-1.1443e-23
-1.25988e-24
2.18009e-23
-4.80837e-24
-5.68246e-23
-4.84023e-24
-6.65891e-23
8.79851e-25
5.20382e-23
8.43145e-24
-1.71163e-23
-6.56407e-25
-2.41442e-23
5.67439e-26
-3.38963e-23
9.58522e-24
-5.49072e-26
-1.40546e-23
-1.84543e-24
1.90925e-24
-9.74192e-23
-7.74389e-24
1.11454e-22
5.96649e-24
-5.34168e-23
-2.02455e-24
4.18279e-23
1.10354e-23
-6.001e-23
7.14127e-24
7.43796e-23
1.71395e-23
4.46249e-23
1.29969e-24
1.47468e-23
1.56908e-23
-6.83493e-23
1.34517e-23
8.12137e-23
1.05653e-23
-2.49769e-23
3.03661e-24
1.52291e-22
5.55555e-24
4.0022e-23
9.86594e-24
1.08413e-22
1.47576e-23
1.09122e-22
1.05288e-23
6.50286e-23
1.10546e-23
1.05482e-22
9.17473e-25
2.88803e-23
-1.83886e-24
5.02074e-23
6.64656e-24
-1.69524e-23
4.05858e-24
4.5235e-23
-2.27167e-25
3.33575e-24
3.01266e-24
-3.19306e-23
-9.70617e-24
-3.63907e-23
-1.09504e-23
-2.3044e-23
-1.45512e-23
8.54063e-23
-7.71777e-24
-6.80932e-23
1.43854e-24
-3.23446e-24
-2.33901e-24
-4.5798e-23
-2.59039e-24
5.07341e-23
-4.40017e-24
-2.96768e-23
-3.79684e-24
-6.75544e-23
7.99518e-25
5.95982e-23
6.77118e-24
-1.62855e-23
1.03444e-24
-1.24754e-23
7.10203e-25
-3.43697e-23
1.82534e-24
-4.2205e-23
1.22984e-23
-3.69277e-23
1.14527e-23
-8.61409e-26
-2.26528e-23
-8.87147e-25
2.19513e-24
-1.01425e-22
-8.31838e-24
1.60809e-22
5.7318e-24
-5.02738e-23
-2.89381e-24
4.35407e-23
1.19073e-23
-7.82235e-23
8.05781e-24
2.59837e-23
1.70721e-23
1.55292e-22
7.98876e-25
4.89338e-23
1.52451e-23
-4.71976e-25
1.43661e-23
7.00951e-23
1.13735e-23
-2.65434e-23
2.77949e-24
5.49637e-23
6.6046e-24
6.79845e-23
9.22626e-24
1.46732e-22
1.39469e-23
1.42241e-22
1.05117e-23
1.13253e-22
1.07007e-23
7.76e-23
2.65408e-25
8.79899e-24
-1.27724e-24
6.72021e-23
8.20898e-24
3.33577e-23
2.8888e-24
5.84259e-23
-4.44123e-25
1.38847e-23
2.95387e-24
-3.37874e-23
-9.06864e-24
-2.41435e-23
-1.00643e-23
-4.64053e-24
-1.54103e-23
9.86099e-23
-8.38451e-24
-7.0602e-23
6.44172e-25
2.83852e-23
-9.9883e-25
-4.56645e-23
-3.62061e-24
-6.96826e-23
-5.22961e-24
-3.76932e-23
-1.87021e-24
-3.99113e-23
3.81945e-25
3.32765e-23
6.51725e-24
-1.17884e-23
1.85881e-24
-3.5646e-23
1.16929e-25
-3.23104e-23
2.44406e-24
2.89923e-24
1.36924e-23
-1.43629e-23
5.76086e-24
-2.61839e-23
-1.3676e-23
-1.5181e-23
-2.72276e-23
-1.54176e-24
-2.47617e-23
-1.732e-24
3.77044e-24
-1.43369e-22
-8.1013e-24
9.63266e-23
5.72305e-24
-4.70274e-23
-4.18776e-24
7.26034e-24
1.36353e-23
3.31897e-23
1.04348e-23
1.3702e-23
1.46159e-23
1.46897e-22
-7.62992e-25
7.8436e-23
1.534e-23
-2.22705e-23
1.53888e-23
-2.73292e-23
1.20887e-23
4.16369e-24
2.7473e-24
1.40125e-22
8.18196e-24
1.50022e-22
8.09864e-24
9.90268e-23
1.37154e-23
9.46327e-23
1.05727e-23
1.20447e-22
1.00137e-23
8.01868e-23
1.83843e-25
8.41759e-24
-1.56253e-24
8.03369e-23
8.75492e-24
7.70095e-23
1.38084e-24
-6.19833e-24
-7.17582e-25
9.26848e-24
3.21026e-24
-3.55444e-23
-8.35565e-24
-8.99633e-24
-9.44445e-24
4.80283e-23
-1.68104e-23
2.95677e-23
-8.58944e-24
-7.27853e-23
2.42671e-25
3.31011e-23
-1.07998e-24
-3.94543e-23
-2.24263e-24
-3.87674e-23
-4.22129e-24
-4.13788e-23
-1.70856e-24
-4.78475e-23
5.35761e-25
4.01787e-23
4.88688e-24
3.70772e-23
1.83264e-24
-2.76991e-23
2.21271e-24
-3.09029e-23
1.46387e-24
-7.51795e-23
1.37016e-23
9.64117e-24
8.01193e-24
-6.85145e-23
-1.38843e-23
-3.35588e-23
-4.85345e-24
-5.2072e-23
-1.27478e-23
-3.591e-23
-1.02214e-23
-3.30681e-23
2.02866e-23
-1.32782e-24
-2.07401e-23
-6.87543e-25
4.4847e-24
-1.77147e-22
-7.42013e-24
3.15304e-23
4.48345e-24
1.9108e-23
-4.8601e-24
1.92205e-23
1.59069e-23
8.92903e-23
1.24164e-23
5.28789e-24
1.27035e-23
1.44158e-22
-2.64308e-24
9.89011e-23
1.54733e-23
-3.58281e-24
1.67841e-23
-3.96943e-23
1.23585e-23
3.79921e-23
4.74164e-24
9.70413e-23
6.49866e-24
5.60853e-23
8.59382e-24
1.6629e-22
1.30796e-23
9.2828e-23
1.03179e-23
8.97732e-23
9.05836e-24
1.1138e-22
1.08189e-24
5.65025e-23
-1.32881e-24
5.60995e-23
7.75045e-24
7.922e-23
8.12989e-25
1.70809e-23
-5.75271e-25
5.26132e-23
3.51868e-24
-3.55313e-23
-7.00777e-24
-3.00599e-23
-1.08794e-23
-1.77535e-23
-1.68128e-23
3.56246e-23
-8.11956e-24
-3.9717e-23
-1.03883e-24
3.70239e-23
-1.25988e-24
-3.23778e-23
-2.0115e-24
-3.18893e-23
-3.48008e-24
-8.16834e-23
-9.57965e-25
-5.1452e-23
2.07877e-24
-2.20769e-23
2.7009e-24
1.35702e-23
2.3486e-24
-2.59743e-23
7.54827e-25
-2.57846e-23
3.66524e-24
6.31091e-24
1.27158e-23
3.40671e-23
9.51862e-24
-6.95878e-23
-1.52316e-23
-5.86691e-23
-3.73332e-24
2.7534e-24
-1.29511e-23
-6.35133e-23
-7.73219e-24
-5.33511e-23
-1.75582e-23
-3.86438e-24
-9.9437e-24
1.0558e-22
-2.70076e-23
-1.51753e-24
-1.28717e-23
2.63403e-25
3.92145e-24
-1.04431e-22
-5.89704e-24
2.54799e-23
4.33199e-24
2.38426e-23
-3.52504e-24
2.55302e-23
1.43774e-23
5.75838e-23
1.56553e-23
3.10818e-23
1.27241e-23
1.44999e-22
-4.65302e-24
1.45163e-22
1.43029e-23
9.75511e-23
1.86121e-23
1.2346e-23
1.40191e-23
3.048e-23
4.51631e-24
9.76318e-23
6.77827e-24
5.87049e-23
7.67223e-24
8.99053e-23
1.29755e-23
7.36406e-23
9.73431e-24
9.60828e-23
9.53441e-24
8.78837e-23
7.45292e-25
-2.52182e-23
-5.74277e-25
1.60834e-23
7.18077e-24
1.0252e-22
7.52912e-25
4.43849e-23
-1.23371e-24
6.61789e-23
3.59203e-24
-7.63382e-23
-6.88059e-24
-4.73602e-23
-1.05433e-23
3.03089e-24
-1.67032e-23
1.87079e-23
-8.39834e-24
-3.67506e-23
-1.99935e-24
3.92834e-23
-1.00269e-24
1.39815e-23
-3.10932e-24
-2.68893e-23
-2.23487e-24
-5.09728e-23
-1.2242e-24
-5.53893e-23
3.64835e-24
1.75548e-23
1.84938e-24
4.10702e-23
2.50586e-24
2.91389e-24
5.75022e-25
-2.47686e-23
3.72915e-24
2.45253e-24
1.2513e-23
2.47767e-23
8.83789e-24
-5.32097e-23
-1.38269e-23
-1.33594e-22
-5.09021e-24
-4.08054e-23
-1.3097e-23
-9.67454e-23
-6.44029e-24
-5.89828e-23
-1.75903e-23
-4.0025e-23
-1.03114e-23
5.97125e-23
-1.41682e-23
-1.0623e-23
-5.31381e-24
1.40305e-22
-1.58609e-23
1.18198e-22
1.16091e-22
-1.4875e-24
2.08864e-25
1.01452e-24
4.1166e-24
-1.05357e-22
-5.62676e-24
1.29555e-23
6.01104e-24
7.54953e-23
-6.03317e-24
-9.3551e-23
1.54252e-23
9.10091e-23
1.52658e-23
-4.89417e-24
1.26577e-23
6.09912e-23
-5.34102e-24
7.68356e-23
1.29938e-23
8.37059e-23
1.90429e-23
8.86615e-23
1.41779e-23
3.40478e-23
3.22771e-24
7.31855e-23
7.32635e-24
5.36629e-23
7.23964e-24
1.29262e-22
1.35273e-23
1.46141e-22
9.78888e-24
6.29919e-23
8.50568e-24
8.70227e-23
1.76085e-24
-6.37007e-23
2.66509e-25
6.00755e-23
6.96939e-24
1.02055e-22
6.96067e-25
4.6432e-23
-2.82805e-24
7.6749e-23
4.11385e-24
-3.74619e-23
-6.29608e-24
-3.30644e-23
-1.05362e-23
6.48961e-23
-1.65444e-23
6.91483e-23
-8.19659e-24
-3.50958e-23
-1.9668e-24
8.73162e-23
-2.42996e-24
2.25953e-23
-3.30119e-24
1.1488e-23
-2.59089e-24
-5.71858e-23
-4.21431e-25
-5.82816e-23
4.55363e-24
1.84832e-23
1.28087e-24
-3.21581e-24
1.625e-24
1.59228e-23
1.65582e-24
-2.60998e-23
4.50571e-24
1.71956e-24
1.19316e-23
1.46932e-23
8.49427e-24
-7.68259e-23
-1.30595e-23
-1.6778e-22
-5.00288e-24
2.91318e-23
-1.13802e-23
-5.1876e-23
-6.04863e-24
1.037e-23
-1.75714e-23
-1.19658e-22
-8.96141e-24
2.3944e-23
-1.35444e-23
2.11591e-23
-5.29508e-24
1.34153e-22
-1.54292e-23
5.47182e-23
1.22538e-22
-1.57736e-24
-2.25455e-24
1.72094e-24
3.63088e-24
-1.01067e-22
-4.91929e-24
-1.23812e-23
3.5341e-24
7.57534e-23
-4.7482e-24
-7.56928e-23
1.44465e-23
6.85946e-23
1.56988e-23
-2.03588e-23
1.46565e-23
5.81674e-23
-5.89614e-24
1.04369e-22
1.39292e-23
1.55673e-22
1.77271e-23
9.15806e-23
1.52882e-23
7.22012e-23
2.93493e-24
6.28758e-24
7.69438e-24
6.91884e-23
8.95604e-24
1.08728e-22
1.18121e-23
1.18979e-22
1.0675e-23
1.0048e-22
6.05479e-24
4.84325e-23
3.36864e-24
-2.57452e-23
3.20691e-25
6.58005e-23
7.49618e-24
1.09289e-22
3.45623e-25
1.08562e-22
-3.97875e-24
8.75004e-23
4.21843e-24
3.58536e-25
-5.06379e-24
-1.71733e-23
-1.02811e-23
8.87385e-23
-1.75235e-23
-2.9421e-24
-6.95082e-24
-6.23143e-23
-3.10635e-24
9.99833e-23
-2.74678e-24
2.1398e-23
-4.33474e-24
4.24886e-23
-1.86522e-24
-3.84871e-23
4.73804e-25
-6.57048e-23
4.75631e-24
7.69346e-24
3.71851e-25
-5.94282e-23
1.49587e-24
-1.84323e-23
1.4696e-24
-6.35763e-23
5.18342e-24
4.49933e-24
1.06903e-23
-8.68127e-23
8.17598e-24
-6.71182e-23
-1.18053e-23
-2.02973e-22
-6.06512e-24
-4.55664e-23
-1.15585e-23
-5.32197e-23
-6.60502e-24
7.97508e-23
-1.61812e-23
-1.23976e-22
-8.02732e-24
2.0505e-23
-1.21329e-23
1.22592e-22
-5.96576e-24
1.63481e-22
-1.40701e-23
3.70304e-23
9.19277e-25
-1.27584e-24
1.10308e-23
2.03514e-24
3.47776e-24
-6.49174e-23
-4.55215e-24
-5.99198e-23
3.5157e-24
7.4468e-23
-4.92588e-24
-5.30046e-23
1.35427e-23
8.13883e-23
1.71844e-23
-3.34564e-23
1.46069e-23
5.43371e-23
-5.47209e-24
1.20129e-22
1.36871e-23
1.4215e-22
1.6729e-23
1.77953e-22
1.52558e-23
1.99926e-22
4.19296e-24
2.29296e-23
6.84719e-24
5.69991e-23
9.36127e-24
1.44507e-22
1.22116e-23
1.55022e-22
8.71885e-24
6.23177e-23
5.40139e-24
5.04829e-23
5.50074e-24
-1.27951e-23
-4.71934e-26
2.79087e-23
8.8797e-24
1.07703e-22
-5.64356e-25
4.61708e-23
-4.32854e-24
1.05287e-22
4.13837e-24
3.51537e-23
-3.87118e-24
-5.60038e-24
-1.19133e-23
3.75171e-23
-1.80128e-23
-7.07325e-23
-4.96552e-24
-6.49348e-23
-4.33386e-24
3.51189e-23
-2.25826e-24
4.82165e-23
-6.18849e-24
1.82617e-23
-2.00366e-24
-3.97113e-23
8.28042e-25
-6.14794e-23
4.78405e-24
3.40278e-24
1.20981e-24
-3.70071e-23
6.2039e-25
-1.6433e-23
2.42245e-24
-6.36728e-23
3.76261e-24
4.44456e-24
1.06681e-23
-1.00216e-22
8.08726e-24
-8.14912e-23
-1.00819e-23
-1.93179e-22
-5.33416e-24
-8.96963e-23
-9.01188e-24
-4.82346e-23
-9.92463e-24
3.44873e-23
-1.40185e-23
5.87902e-24
-6.87398e-24
5.72741e-23
-1.43984e-23
1.58012e-22
-5.43736e-24
1.67489e-22
-1.47532e-23
-2.82445e-23
-2.96632e-23
-7.30209e-25
6.31402e-23
2.42733e-24
1.84133e-24
-6.53105e-23
-3.75285e-24
8.33836e-24
2.42511e-24
4.33281e-23
-2.99116e-24
-3.69275e-23
1.32762e-23
9.995e-23
1.87129e-23
-5.45524e-23
1.59823e-23
2.32516e-23
-5.26712e-24
1.50778e-22
1.45103e-23
1.32113e-22
1.72116e-23
1.3709e-22
1.20835e-23
1.94239e-22
4.93943e-24
5.70695e-23
6.94284e-24
9.39394e-23
9.12939e-24
1.03544e-22
1.12747e-23
1.41859e-22
7.74132e-24
6.22601e-23
4.68934e-24
5.17155e-23
6.77698e-24
-2.49297e-23
1.42401e-25
5.17553e-24
9.24942e-24
1.46246e-22
-3.66307e-25
-1.34875e-23
-4.7968e-24
1.59345e-22
3.80919e-24
2.86103e-23
-3.90886e-24
9.21461e-24
-1.35326e-23
-6.26166e-23
-1.75515e-23
-5.38575e-23
-3.96787e-24
-6.50686e-23
-3.66074e-24
4.65645e-23
-3.1715e-24
8.5521e-24
-6.5396e-24
1.74111e-23
-2.08445e-24
-3.80399e-23
1.23161e-24
-3.56434e-23
5.39299e-24
7.75638e-23
1.0964e-24
-1.0098e-22
3.58144e-25
-1.79326e-23
3.33942e-24
-7.50912e-23
2.98938e-24
2.27626e-23
1.10688e-23
-1.15419e-22
7.60883e-24
-3.44035e-23
-9.24455e-24
-1.80268e-22
-5.03899e-24
-1.40257e-22
-7.6298e-24
-8.23981e-23
-1.0252e-23
3.51127e-23
-1.56859e-23
1.58021e-24
-5.9305e-24
4.9342e-23
-1.52963e-23
8.3409e-23
-6.2972e-24
1.53784e-22
-1.40272e-23
-1.20632e-23
-4.3926e-23
4.425e-25
6.738e-23
2.34439e-24
1.51116e-24
-9.36488e-23
-3.97933e-24
4.13472e-24
2.70368e-24
6.98328e-23
-2.86197e-24
-1.67685e-23
1.16122e-23
1.1758e-22
1.94446e-23
-3.67184e-23
1.80447e-23
2.43448e-23
-5.34497e-24
1.76915e-22
1.46231e-23
2.40492e-22
1.85224e-23
1.2703e-22
1.04833e-23
1.71346e-22
5.15592e-24
9.52733e-23
6.58571e-24
5.76155e-23
9.99779e-24
1.88104e-22
9.79145e-24
1.20719e-22
7.29941e-24
6.80235e-23
3.70305e-24
5.5752e-23
8.14343e-24
4.34713e-23
1.27551e-24
-1.77826e-23
7.75579e-24
1.03136e-22
2.2082e-24
2.61727e-23
-6.5811e-24
9.08917e-23
4.05306e-24
4.79168e-23
-6.05037e-24
2.30891e-23
-1.29618e-23
-4.52663e-23
-1.76993e-23
-3.84389e-23
-2.10784e-24
1.76066e-23
-4.22464e-24
6.09537e-23
-3.67613e-24
6.51379e-24
-6.76921e-24
6.58261e-23
-1.79366e-24
-4.07426e-23
2.28417e-24
-3.10591e-23
3.25469e-24
3.88513e-24
2.79959e-24
-5.77264e-23
-8.5555e-25
-9.82212e-23
4.33099e-24
-5.62613e-23
1.75775e-24
-3.26283e-24
1.14276e-23
-5.13402e-23
6.32896e-24
-2.95007e-23
-9.12901e-24
-1.73728e-22
-3.64289e-24
-1.48553e-22
-6.21667e-24
-8.02631e-23
-9.27742e-24
-7.58797e-24
-1.55778e-23
-2.50411e-24
-5.78621e-24
4.07544e-23
-1.47477e-23
5.92243e-23
-9.5688e-24
1.47103e-22
-1.45053e-23
7.86595e-23
9.0451e-24
-1.43081e-24
3.61062e-23
8.75669e-25
2.1744e-24
-7.52826e-23
-5.9055e-24
-1.85803e-23
3.72497e-24
7.66618e-23
-4.06518e-24
-7.92266e-23
1.17318e-23
1.03998e-22
1.96189e-23
7.81154e-23
1.98409e-23
2.65986e-23
-4.44001e-24
1.76352e-22
1.20192e-23
2.10776e-22
1.80701e-23
1.57226e-22
1.05791e-23
1.62927e-22
3.92592e-24
1.11945e-22
6.75313e-24
5.88511e-23
9.02123e-24
1.75856e-22
1.03515e-23
1.30584e-22
7.54997e-24
1.0896e-22
2.59726e-24
3.73828e-23
8.78881e-24
1.57825e-22
1.8075e-24
-9.4848e-24
7.35834e-24
9.18608e-23
3.12816e-24
-3.78386e-25
-6.86536e-24
7.04228e-23
4.10777e-24
3.70619e-23
-7.82019e-24
3.97325e-23
-1.27493e-23
-3.07849e-23
-1.68694e-23
-2.26236e-23
-1.30615e-24
2.00348e-23
-5.07868e-24
-6.22308e-23
-3.38431e-24
-2.06236e-24
-7.24555e-24
5.18214e-23
-1.55229e-24
-7.8786e-23
2.17256e-24
-4.58058e-24
1.88661e-24
-6.04817e-24
2.36396e-24
-5.73533e-23
-1.43631e-25
-9.91053e-23
4.82833e-24
-4.58268e-23
2.6865e-24
5.32093e-25
1.17929e-23
-7.51402e-23
5.45694e-24
-5.67886e-23
-8.25469e-24
-1.71638e-22
-2.60193e-24
-1.57881e-22
-5.73873e-24
-5.5812e-23
-7.79619e-24
-1.48759e-23
-1.50116e-23
-4.54143e-24
-4.90652e-24
1.06694e-22
-1.47161e-23
3.35117e-23
-9.60512e-24
1.77882e-22
-1.61445e-23
8.87448e-23
1.49511e-23
-1.49973e-24
3.56519e-23
1.92677e-24
1.0942e-24
-4.27054e-23
-4.73745e-24
-9.22457e-24
2.83498e-24
-1.73823e-23
-2.74069e-24
-6.91331e-23
1.13457e-23
8.71599e-23
1.91748e-23
6.2723e-23
2.13412e-23
2.51362e-23
-3.356e-24
1.28668e-22
1.29075e-23
1.41549e-22
1.7711e-23
1.14348e-22
1.0113e-23
1.79074e-22
3.83181e-24
1.31011e-22
8.01366e-24
5.6553e-23
7.98052e-24
1.84197e-22
1.09398e-23
1.18819e-22
5.79457e-24
3.98943e-23
4.61719e-24
2.97009e-23
7.52376e-24
1.65227e-22
1.7557e-24
-1.17499e-23
7.49024e-24
1.38536e-22
3.70775e-24
9.4933e-24
-7.1157e-24
1.05229e-23
4.56021e-24
3.00042e-23
-9.21644e-24
-2.47012e-23
-1.2563e-23
-2.14881e-23
-1.6398e-23
3.09636e-23
-2.32196e-24
4.21203e-23
-4.3396e-24
-6.703e-23
-3.20604e-24
-2.72836e-24
-7.98234e-24
2.68087e-23
-1.3399e-24
-8.18669e-23
2.2946e-24
-1.51065e-23
1.5095e-24
-1.75358e-23
2.08171e-24
-7.0341e-23
-5.04877e-25
-6.88903e-23
5.36734e-24
-5.63526e-23
2.10803e-24
-2.53063e-24
1.13828e-23
-1.23349e-22
4.89161e-24
-5.76046e-23
-1.0296e-23
-9.14576e-23
-1.31822e-24
-8.44487e-23
-4.86799e-24
-2.11381e-23
-7.27681e-24
-2.29593e-23
-1.34842e-23
-1.79782e-23
-5.08773e-24
9.64682e-23
-1.43232e-23
3.54784e-23
-1.09093e-23
1.69493e-22
-1.65471e-23
1.02776e-22
1.78402e-25
-5.49316e-25
8.32639e-23
3.5093e-24
3.376e-25
-4.96643e-23
-4.66064e-24
-6.33186e-24
3.14713e-24
-3.87465e-23
-2.19519e-24
-1.03688e-22
1.29075e-23
4.86268e-23
1.93992e-23
4.39778e-23
2.19422e-23
1.51375e-23
-3.41404e-24
1.4195e-22
1.31488e-23
2.00549e-22
1.75226e-23
1.76985e-22
9.22383e-24
2.0844e-22
3.40241e-24
1.47635e-22
8.52846e-24
8.62085e-23
7.03135e-24
1.70592e-22
1.02874e-23
1.25609e-22
5.70919e-24
3.80287e-23
6.25167e-24
2.36976e-23
6.2562e-24
1.52169e-22
2.54428e-24
6.01474e-23
6.62127e-24
1.20881e-22
3.20982e-24
-2.58782e-23
-6.53099e-24
2.58765e-23
4.07693e-24
-9.85282e-24
-9.29137e-24
-8.46194e-23
-1.17673e-23
-6.00037e-23
-1.68763e-23
2.24274e-23
-3.77216e-24
6.86687e-23
-3.32551e-24
-5.84935e-23
-3.46087e-24
-3.25341e-23
-8.38604e-24
-2.63719e-24
-9.2875e-25
-8.52516e-23
3.09124e-24
1.51305e-23
-1.47099e-25
-7.29846e-24
3.08852e-24
5.81582e-23
-7.23524e-25
-6.35348e-23
6.12175e-24
1.38675e-23
7.74126e-25
1.36469e-24
1.2028e-23
-5.54492e-23
5.85612e-24
-3.17122e-23
-1.01597e-23
-1.53581e-22
-9.34173e-25
-3.2351e-23
-4.16115e-24
-1.7731e-23
-8.67212e-24
-2.27828e-23
-1.24871e-23
5.41015e-23
-5.15596e-24
1.17795e-22
-1.40558e-23
3.92237e-23
-1.14965e-23
1.61716e-22
-1.77668e-23
1.08265e-22
-4.65386e-23
-1.92922e-24
8.15616e-23
2.9075e-24
2.83809e-25
2.6869e-23
-5.83753e-24
-7.38335e-25
3.36522e-24
2.62471e-23
-1.9153e-24
-9.42852e-23
1.28713e-23
1.6397e-22
1.93357e-23
1.11179e-22
2.24766e-23
-6.86655e-25
-2.7103e-24
9.65866e-23
1.39859e-23
1.71909e-22
1.81204e-23
1.3854e-22
8.77714e-24
1.09337e-22
2.36526e-24
1.51865e-22
9.01541e-24
1.6473e-22
6.29275e-24
1.53589e-22
8.9319e-24
1.50161e-22
5.66907e-24
3.64036e-23
8.22173e-24
-9.11957e-25
6.13574e-24
1.5886e-22
2.07402e-24
4.46417e-23
5.26357e-24
6.77825e-23
3.75209e-24
-3.35857e-23
-6.90008e-24
3.63504e-24
3.43991e-24
-1.47971e-23
-9.1215e-24
-6.72107e-23
-1.08502e-23
-6.30807e-23
-1.64212e-23
-7.85454e-24
-5.08679e-24
5.80106e-23
-2.59549e-24
4.05477e-23
-3.898e-24
-3.24358e-23
-8.58376e-24
3.41537e-24
-6.38444e-25
-6.14567e-23
2.95787e-24
1.39803e-23
6.13456e-25
-4.37842e-23
2.02954e-24
1.31337e-23
8.69306e-26
-6.03349e-23
5.59632e-24
9.9003e-24
9.82764e-25
-3.45607e-23
1.15347e-23
-2.9768e-23
4.47516e-24
-5.53325e-23
-8.73901e-24
-1.03281e-22
1.69538e-25
-2.32282e-23
-4.12954e-24
-1.27932e-23
-7.09316e-24
-2.43423e-23
-1.24588e-23
2.12171e-23
-5.25411e-24
1.02908e-22
-1.3761e-23
3.16732e-23
-1.146e-23
1.53833e-22
-1.83757e-23
1.05698e-23
-4.93677e-23
-2.94236e-24
7.63221e-23
8.43805e-25
-2.78155e-25
1.4075e-22
-6.32088e-24
4.96594e-24
3.00692e-24
4.99264e-23
4.6574e-25
-8.66223e-23
1.30546e-23
2.08755e-22
1.87112e-23
9.30037e-23
2.34787e-23
-2.16004e-23
-1.51228e-24
5.49105e-23
1.37655e-23
1.57662e-22
1.80392e-23
1.34008e-22
9.3887e-24
1.15109e-22
2.2849e-24
1.66671e-22
7.80598e-24
1.7521e-22
5.91218e-24
1.39465e-22
7.94779e-24
1.45617e-22
4.74707e-24
-1.30931e-23
1.04629e-23
7.59295e-23
5.65081e-24
1.28156e-22
1.39481e-24
2.55467e-24
4.9031e-24
5.47092e-23
4.14457e-24
2.82614e-23
-7.07045e-24
1.00252e-23
2.80835e-24
-2.36138e-23
-9.03177e-24
-5.35824e-23
-1.01887e-23
-8.76847e-23
-1.56713e-23
4.35288e-24
-5.35888e-24
4.35589e-23
-3.39338e-24
5.23724e-23
-4.57961e-24
-6.5817e-23
-8.37185e-24
4.17881e-23
-4.1356e-25
-7.64107e-23
2.96027e-24
2.9058e-23
1.11377e-24
-4.4185e-23
1.84726e-24
-2.51405e-23
7.77787e-25
-5.57809e-23
4.68334e-24
-4.18889e-23
2.293e-24
-7.5683e-23
9.85525e-24
-2.0248e-23
5.31626e-24
-2.69678e-24
-8.29174e-24
-1.31255e-22
-3.31568e-25
6.5379e-24
-3.62532e-24
-4.61326e-23
-6.40007e-24
-2.68397e-23
-1.29372e-23
-1.72587e-23
-6.29191e-24
1.08582e-22
-1.23373e-23
-2.11825e-23
-1.24178e-23
9.78693e-23
-1.91447e-23
-7.74132e-23
-5.45527e-23
-2.4594e-24
-1.1809e-23
-8.50748e-25
-1.95828e-24
1.38853e-22
-5.49181e-24
9.9649e-24
2.07417e-24
1.17443e-22
1.22098e-24
-3.60794e-23
1.30526e-23
1.86014e-22
1.76209e-23
8.90244e-23
2.36989e-23
9.39763e-23
-8.64623e-25
8.81519e-23
1.33301e-23
1.3722e-22
1.86089e-23
1.69805e-22
8.384e-24
9.62728e-23
2.83665e-24
1.23784e-22
7.01057e-24
1.41104e-22
5.59669e-24
1.24444e-22
6.29983e-24
1.29227e-22
5.0711e-24
-6.24638e-23
1.18407e-23
1.46783e-22
4.41973e-24
9.07234e-23
9.81882e-25
3.08373e-23
5.16766e-24
4.48918e-23
3.83734e-24
1.44164e-23
-7.27676e-24
1.74121e-23
2.59192e-24
4.08201e-23
-9.58422e-24
-3.8349e-23
-9.0357e-24
-9.15222e-23
-1.54534e-23
1.73798e-23
-4.7942e-24
6.63746e-23
-4.59249e-24
4.32628e-23
-4.50685e-24
-6.81071e-23
-9.06372e-24
4.1761e-23
5.06958e-25
-9.51201e-23
2.85068e-24
4.81343e-23
1.55813e-24
-4.37535e-23
1.13054e-24
-1.02714e-22
1.19317e-24
-5.07412e-23
4.21732e-24
-4.96835e-23
2.93087e-24
-4.80937e-23
1.0989e-23
-1.39955e-23
4.4052e-24
-7.07498e-23
-6.50591e-24
-1.19416e-22
-9.63265e-25
-3.988e-24
-3.07577e-24
-2.47686e-23
-5.63482e-24
-5.92473e-23
-1.20766e-23
-3.82943e-23
-5.81197e-24
1.58644e-22
-1.23251e-23
-5.72622e-23
-1.40061e-23
9.03043e-23
-1.86995e-23
-1.22903e-23
-1.75429e-23
-1.94635e-24
-1.21794e-23
-9.5792e-25
-2.94172e-24
1.39137e-22
-6.47197e-24
1.36e-23
1.46128e-24
1.06999e-22
2.74803e-24
-3.28587e-23
1.28307e-23
2.38466e-22
1.72927e-23
1.14338e-22
2.34192e-23
9.82299e-23
-5.3438e-26
4.19584e-23
1.39908e-23
1.21533e-22
1.84861e-23
1.6655e-22
7.6423e-24
1.10346e-22
3.21341e-24
1.53743e-22
6.23974e-24
1.05499e-22
5.17154e-24
1.11179e-22
4.68911e-24
1.10787e-22
7.05553e-24
-3.09172e-23
1.21172e-23
1.41915e-22
4.06358e-24
1.02965e-22
2.31807e-25
-6.90597e-24
5.5366e-24
3.56572e-23
4.03003e-24
3.50351e-23
-6.81783e-24
-6.10443e-24
1.73059e-24
-2.2943e-24
-1.0341e-23
-4.51625e-23
-7.87136e-24
-1.55424e-23
-1.47077e-23
3.46183e-23
-5.4396e-24
5.03448e-23
-5.25235e-24
4.86872e-23
-4.51089e-24
-1.10447e-22
-9.67609e-24
4.39961e-23
7.97934e-25
-7.2218e-23
2.71501e-24
1.01104e-22
2.43011e-25
-1.97433e-23
1.85424e-24
-6.01463e-23
1.59881e-24
-4.33486e-23
4.27326e-24
1.75011e-23
3.15125e-24
-1.74671e-23
1.05484e-23
2.40095e-23
4.66331e-24
-8.00565e-23
-5.50319e-24
-1.147e-22
-1.1627e-24
1.50196e-23
-2.48032e-24
-3.40748e-23
-6.48631e-24
-1.94481e-23
-1.02753e-23
-9.10464e-23
-7.26063e-24
1.4733e-22
-1.16883e-23
-4.59337e-23
-1.42517e-23
8.34879e-23
-1.80069e-23
-1.21754e-23
-1.93361e-23
-2.79495e-25
-4.93052e-23
-2.20386e-25
-3.9221e-24
7.68297e-23
-6.81685e-24
-2.50542e-23
1.05008e-24
1.01177e-22
4.02504e-24
-3.20976e-23
1.16749e-23
1.71774e-22
1.74397e-23
2.08579e-22
2.22169e-23
9.02428e-23
1.85821e-24
6.44624e-23
1.39257e-23
1.12634e-22
1.92782e-23
1.70506e-22
7.05632e-24
4.3279e-23
2.60109e-24
2.00106e-22
6.57432e-24
9.80695e-23
4.44803e-24
1.04465e-22
3.61756e-24
9.5892e-23
8.07884e-24
1.85532e-23
1.21801e-23
1.01404e-22
2.90342e-24
1.18894e-22
-1.08344e-25
1.2431e-23
6.13612e-24
1.05835e-22
3.46056e-24
2.26754e-23
-6.70566e-24
5.34283e-24
1.17787e-24
-1.56202e-23
-9.93031e-24
-4.16316e-23
-7.34043e-24
5.52101e-23
-1.43868e-23
4.68394e-23
-5.9285e-24
2.27512e-24
-6.20291e-24
5.33835e-23
-3.53946e-24
-3.45467e-23