/*--------------------------------*- C++ -*----------------------------------*\
  =========                 |
  \\      /  F ield         | OpenFOAM: The Open Source CFD Toolbox
   \\    /   O peration     | Website:  https://openfoam.org
    \\  /    A nd           | Version:  7
     \\/     M anipulation  |
\*---------------------------------------------------------------------------*/
FoamFile
{
    version     2.0;
    format      ascii;
    class       volVectorField;
    location    "164000";
    object      vorticity;
}
// * * * * * * * * * * * * * * * * * * * * * * * * * * * * * * * * * * * * * //

dimensions      [0 0 -1 0 0 0 0];

internalField   nonuniform List<vector> 
4825
(
(0.0243163 0.0223289 1.66698e-17)
(0.0241534 0.022022 1.74295e-17)
(0.0248276 0.0228283 1.79481e-17)
(0.024672 0.0224958 1.79692e-17)
(0.0251278 0.0215446 2.21155e-17)
(0.0255622 0.0205925 7.20677e-18)
(0.0259748 0.0196387 7.44455e-18)
(0.0253541 0.0233423 1.812e-17)
(0.0252106 0.022988 1.81949e-17)
(0.025674 0.0220119 2.13507e-17)
(0.0261152 0.0210358 7.10681e-18)
(0.0265336 0.0200585 5.58649e-18)
(0.0258959 0.0238708 1.73342e-17)
(0.0257669 0.023496 1.87393e-17)
(0.0262403 0.0224965 2.10362e-17)
(0.0266896 0.0214967 8.24733e-18)
(0.0271148 0.0204954 4.90807e-18)
(0.0264533 0.0244139 1.69399e-17)
(0.0263393 0.0240184 2.01415e-17)
(0.0268241 0.0229961 2.08843e-17)
(0.0272832 0.021973 1.05027e-17)
(0.0277172 0.0209482 5.467e-18)
(0.0270266 0.0249721 1.80735e-17)
(0.0269275 0.0245548 2.18538e-17)
(0.0274244 0.0235098 2.06197e-17)
(0.0278944 0.0224633 1.28416e-17)
(0.0283382 0.0214151 5.93462e-18)
(0.0276164 0.0255459 1.99654e-17)
(0.0275319 0.0251058 2.29597e-17)
(0.0280414 0.0240376 2.04544e-17)
(0.0285228 0.0229675 1.51566e-17)
(0.0289772 0.0218955 5.77211e-18)
(0.028223 0.0261359 2.11898e-17)
(0.028153 0.0256718 2.32457e-17)
(0.0286753 0.0245798 2.06465e-17)
(0.0291686 0.0234855 1.75303e-17)
(0.029634 0.0223892 5.57057e-18)
(0.0288474 0.0267427 2.10258e-17)
(0.0287918 0.0262537 2.34529e-17)
(0.0293271 0.0251373 2.11955e-17)
(0.0298324 0.0240181 1.97579e-17)
(0.0303092 0.0228968 5.81924e-18)
(0.0294901 0.0273674 2.00164e-17)
(0.0294491 0.0268524 2.37417e-17)
(0.0299976 0.0257106 2.21683e-17)
(0.0305153 0.0245658 2.16125e-17)
(0.0310037 0.0234188 5.95856e-18)
(0.0301522 0.0280106 1.8174e-17)
(0.0301258 0.0274687 2.37262e-17)
(0.0306877 0.0263006 2.35509e-17)
(0.031218 0.0251294 2.38048e-17)
(0.0317183 0.0239559 5.7987e-18)
(0.0308346 0.0286733 1.59009e-17)
(0.0308231 0.0281037 2.34868e-17)
(0.0313986 0.0269084 2.51391e-17)
(0.0319418 0.0257098 2.65167e-17)
(0.0324542 0.0245089 4.80881e-18)
(0.0315384 0.0293565 1.3876e-17)
(0.0315419 0.0287582 2.34402e-17)
(0.0321313 0.0275347 2.67549e-17)
(0.0326876 0.0263079 2.89754e-17)
(0.0332124 0.0250787 3.12973e-18)
(0.0322644 0.0300613 1.27232e-17)
(0.0322833 0.0294333 2.36011e-17)
(0.0328869 0.0281806 2.82112e-17)
(0.0334568 0.0269246 3.09027e-17)
(0.033014 0.0307887 1.21599e-17)
(0.0330487 0.0301301 2.35848e-17)
(0.0336668 0.0288472 2.90974e-17)
(0.0342504 0.027561 3.16604e-17)
(0.0337883 0.0315399 1.18137e-17)
(0.033839 0.0308497 2.31999e-17)
(0.0344721 0.0295355 2.93929e-17)
(0.0350698 0.0282179 3.14289e-17)
(0.0345885 0.0323162 1.10338e-17)
(0.0346557 0.0315933 2.27002e-17)
(0.0353042 0.0302467 2.89659e-17)
(0.0354161 0.0331187 1.04067e-17)
(0.0355002 0.0323621 2.26017e-17)
(0.0361644 0.0309818 2.8456e-17)
(0.0362723 0.033949 9.69655e-18)
(0.0363737 0.0331574 2.30322e-17)
(0.0371588 0.0348083 8.16774e-18)
(0.037278 0.0339806 2.44639e-17)
(0.038077 0.0356983 6.67576e-18)
(0.0382145 0.0348332 2.6252e-17)
(0.0390287 0.0366205 4.81979e-18)
(0.039185 0.0357167 2.68598e-17)
(0.0400156 0.0375768 2.02148e-18)
(0.0401914 0.0366328 2.65685e-17)
(0.0410397 0.0385688 -1.45132e-18)
(-0.0163256 0.0181793 1.0078e-17)
(-0.016308 0.0178694 8.21247e-18)
(-0.0156278 0.0182003 9.97179e-18)
(-0.0149447 0.0185134 -8.64308e-19)
(-0.0142588 0.0188097 3.47935e-18)
(-0.0135704 0.0190896 4.74292e-18)
(-0.0128801 0.0193535 -3.00339e-18)
(-0.0121881 0.0196017 -2.91225e-18)
(-0.0114948 0.0198345 -3.59914e-18)
(-0.0108005 0.0200522 -2.92944e-18)
(-0.0101053 0.020255 -4.29632e-18)
(-0.00940943 0.0204432 -4.43759e-18)
(-0.0087131 0.0206169 6.19011e-18)
(-0.00801643 0.0207764 6.07313e-18)
(-0.00731951 0.020922 1.1582e-18)
(-0.00662244 0.0210537 -1.03891e-17)
(-0.00592528 0.0211718 -1.23425e-17)
(-0.00522809 0.0212763 -1.039e-17)
(-0.0045309 0.0213675 -6.58472e-18)
(-0.00383373 0.0214455 -5.25394e-18)
(-0.0166615 0.0185208 1.08694e-17)
(-0.0166278 0.018221 1.11383e-17)
(-0.015934 0.018559 1.20658e-17)
(-0.0152373 0.0188787 5.60688e-19)
(-0.0145377 0.0191813 6.27665e-18)
(-0.0138356 0.0194671 6.17881e-18)
(-0.0131315 0.0197366 -1.95096e-18)
(-0.0124258 0.01999 -3.17078e-18)
(-0.0117188 0.0202276 -3.54387e-18)
(-0.0110107 0.0204498 -1.78275e-18)
(-0.0103018 0.0206568 -3.9123e-18)
(-0.00959231 0.0208488 -4.16727e-18)
(-0.00888232 0.0210261 6.98453e-18)
(-0.00817201 0.0211889 6.9057e-18)
(-0.00746147 0.0213374 1.80005e-18)
(-0.0067508 0.0214718 -8.89428e-18)
(-0.00604007 0.0215923 -9.15853e-18)
(-0.00532931 0.0216989 -7.78733e-18)
(-0.00461859 0.021792 -4.88812e-18)
(-0.0039079 0.0218715 -3.58269e-18)
(-0.017005 0.0188702 9.95531e-18)
(-0.016955 0.0185808 1.22072e-17)
(-0.0162473 0.0189259 1.25694e-17)
(-0.0155366 0.0192525 7.05688e-19)
(-0.014823 0.0195614 7.80489e-18)
(-0.0141069 0.0198532 6.50848e-18)
(-0.0133887 0.0201283 -1.618e-18)
(-0.012669 0.020387 -4.45982e-18)
(-0.0119479 0.0206296 -3.83953e-18)
(-0.0112258 0.0208563 -5.669e-19)
(-0.0105029 0.0210676 -3.83843e-18)
(-0.00977933 0.0212636 -4.44822e-18)
(-0.00905537 0.0214445 6.22207e-18)
(-0.0083311 0.0216106 5.7804e-18)
(-0.00760663 0.0217622 1.15975e-18)
(-0.00688205 0.0218993 -8.52419e-18)
(-0.00615743 0.0220222 -7.6965e-18)
(-0.00543282 0.022131 -7.24543e-18)
(-0.00470825 0.0222259 -5.04524e-18)
(-0.00398373 0.0223071 -3.07067e-18)
(-0.0173563 0.019228 9.03402e-18)
(-0.0172898 0.0189489 1.24128e-17)
(-0.016568 0.0193014 1.22984e-17)
(-0.0158429 0.0196349 4.14852e-19)
(-0.0151149 0.0199503 8.39514e-18)
(-0.0143844 0.0202482 6.6349e-18)
(-0.0136519 0.0205291 -2.11524e-18)
(-0.0129177 0.0207931 -6.54425e-18)
(-0.0121822 0.0210408 -3.76364e-18)
(-0.0114458 0.0212722 5.59402e-19)
(-0.0107085 0.0214878 -4.64397e-18)
(-0.00997064 0.0216878 -5.16874e-18)
(-0.00923237 0.0218725 4.98636e-18)
(-0.00849383 0.022042 4.07955e-18)
(-0.00775511 0.0221966 1.45743e-19)
(-0.0070163 0.0223365 -8.84218e-18)
(-0.00627748 0.0224619 -7.36299e-18)
(-0.00553868 0.0225729 -7.66346e-18)
(-0.00479995 0.0226697 -6.31104e-18)
(-0.0040613 0.0227525 -3.11918e-18)
(-0.0177158 0.0195943 8.89837e-18)
(-0.0176325 0.0193258 1.26069e-17)
(-0.0168961 0.0196858 1.24125e-17)
(-0.0161565 0.0200262 -1.86488e-19)
(-0.0154137 0.0203483 8.65702e-18)
(-0.0146685 0.0206525 6.93649e-18)
(-0.0139212 0.0209392 -2.82197e-18)
(-0.0131723 0.0212088 -8.56086e-18)
(-0.0124221 0.0214615 -3.72803e-18)
(-0.0116709 0.0216978 1.07408e-18)
(-0.0109189 0.0219178 -5.50269e-18)
(-0.0101664 0.0221219 -5.55556e-18)
(-0.00941349 0.0223103 3.89858e-18)
(-0.00866033 0.0224833 2.93904e-18)
(-0.00790702 0.0226411 -4.1018e-19)
(-0.00715366 0.0227838 -8.91493e-18)
(-0.00640029 0.0229117 -7.09438e-18)
(-0.00564699 0.023025 -8.19063e-18)
(-0.00489377 0.0231237 -7.64583e-18)
(-0.00414065 0.0232081 -3.08864e-18)
(-0.0180838 0.0199695 8.6144e-18)
(-0.0179834 0.0197118 1.26206e-17)
(-0.0172321 0.0200793 1.30933e-17)
(-0.0164774 0.0204269 -1.22693e-18)
(-0.0157196 0.0207558 8.68657e-18)
(-0.0149593 0.0210663 6.84516e-18)
(-0.0141969 0.021359 -4.31818e-18)
(-0.0134328 0.0216342 -1.02421e-17)
(-0.0126676 0.0218922 -3.62163e-18)
(-0.0119013 0.0221333 1.12994e-18)
(-0.0111343 0.0223579 -6.43523e-18)
(-0.0103668 0.0225662 -5.65494e-18)
(-0.00959886 0.0227585 3.09636e-18)
(-0.00883074 0.022935 2.07218e-18)
(-0.0080625 0.0230959 -5.19159e-19)
(-0.00729423 0.0232415 -8.78487e-18)
(-0.00652599 0.023372 -6.97107e-18)
(-0.00575783 0.0234876 -8.87074e-18)
(-0.00498978 0.0235883 -8.75855e-18)
(-0.00422185 0.0236744 -2.95347e-18)
(-0.0184604 0.0203539 7.89352e-18)
(-0.0183428 0.0201071 1.25202e-17)
(-0.0175763 0.0204824 1.41362e-17)
(-0.0168062 0.0208373 -2.36444e-18)
(-0.0160329 0.021173 8.91934e-18)
(-0.015257 0.0214901 6.31877e-18)
(-0.0144792 0.0217889 -6.25193e-18)
(-0.0136997 0.0220698 -1.05306e-17)
(-0.0129189 0.0223332 -3.25972e-18)
(-0.0121372 0.0225793 6.226e-19)
(-0.0113548 0.0228085 -7.8664e-18)
(-0.0105719 0.023021 -5.49989e-18)
(-0.00978865 0.0232172 2.78973e-18)
(-0.0090052 0.0233973 1.67271e-18)
(-0.00822168 0.0235615 -2.39311e-19)
(-0.00743814 0.0237101 -8.24742e-18)
(-0.00665467 0.0238432 -7.00583e-18)
(-0.0058713 0.0239611 -9.8783e-18)
(-0.00508807 0.0240639 -9.44313e-18)
(-0.00430498 0.0241517 -2.53853e-18)
(-0.0188462 0.0207479 7.08275e-18)
(-0.018711 0.0205122 1.22791e-17)
(-0.0179289 0.0208953 1.53142e-17)
(-0.017143 0.0212577 -3.26736e-18)
(-0.0163538 0.0216004 8.85506e-18)
(-0.0155621 0.0219242 4.95615e-18)
(-0.0147683 0.0222292 -7.61809e-18)
(-0.013973 0.022516 -9.69412e-18)
(-0.0131764 0.0227848 -3.1073e-18)
(-0.0123789 0.023036 -9.47532e-20)
(-0.0115807 0.0232699 -9.33889e-18)
(-0.010782 0.0234868 -4.89884e-18)
(-0.00998301 0.023687 2.47322e-18)
(-0.00918388 0.0238708 1.72682e-18)
(-0.00838469 0.0240383 5.7033e-20)
(-0.00758552 0.0241899 -7.47035e-18)
(-0.00678645 0.0243257 -6.98278e-18)
(-0.0059875 0.024446 -1.106e-17)
(-0.00518873 0.0245508 -1.01015e-17)
(-0.00439011 0.0246404 -1.98101e-18)
(-0.00359165 0.0247148 -7.3877e-18)
(-0.00279334 0.0247742 -4.55081e-18)
(-0.00199515 0.0248187 -3.56237e-18)
(-0.00119705 0.0248484 -9.56194e-18)
(-0.000399009 0.0248632 -1.15305e-18)
(0.000399012 0.0248632 1.02555e-17)
(0.00119705 0.0248484 1.27581e-18)
(0.00199515 0.0248187 4.60674e-18)
(0.00279334 0.0247742 5.05283e-18)
(0.00359166 0.0247148 1.27038e-18)
(0.00439011 0.0246404 -3.09889e-18)
(0.00518873 0.0245508 -4.93081e-18)
(0.00598751 0.0244459 5.74378e-18)
(0.00678645 0.0243257 -2.76101e-18)
(0.00758552 0.0241899 -9.74736e-18)
(-0.0192413 0.0211517 6.08982e-18)
(-0.0190884 0.0209274 1.22291e-17)
(-0.0182902 0.0213185 1.6227e-17)
(-0.0174881 0.0216884 -3.90102e-18)
(-0.0166826 0.0220384 8.00724e-18)
(-0.0158746 0.0223689 3.11666e-18)
(-0.0150646 0.0226804 -7.8458e-18)
(-0.014253 0.0229731 -8.51327e-18)
(-0.0134402 0.0232475 -2.8146e-18)
(-0.0126264 0.0235039 -7.53483e-19)
(-0.0118121 0.0237427 -1.06887e-17)
(-0.0109972 0.023964 -4.25025e-18)
(-0.0101821 0.0241683 1.77377e-18)
(-0.00936692 0.0243558 2.63519e-18)
(-0.00855168 0.0245267 4.31512e-19)
(-0.00773649 0.0246814 -7.00612e-18)
(-0.00692143 0.0248199 -7.09245e-18)
(-0.00610653 0.0249426 -1.17746e-17)
(-0.00529183 0.0250495 -1.07895e-17)
(-0.00447731 0.0251409 -1.65903e-18)
(-0.00366297 0.0252168 -5.55934e-18)
(-0.00284879 0.0252774 -4.59978e-18)
(-0.00203474 0.0253228 -3.53487e-18)
(-0.0012208 0.025353 -9.10849e-18)
(-0.000406926 0.0253681 -9.7431e-19)
(0.000406929 0.0253681 9.91844e-18)
(0.00122081 0.025353 1.52799e-18)
(0.00203475 0.0253228 5.07336e-18)
(0.00284879 0.0252774 4.4494e-18)
(0.00366297 0.0252168 7.65139e-19)
(0.00447731 0.0251409 -3.77416e-18)
(0.00529183 0.0250495 -6.15578e-18)
(0.00610654 0.0249426 4.47635e-18)
(0.00692143 0.0248199 -4.41904e-18)
(0.0077365 0.0246814 -1.17605e-17)
(0.00855168 0.0245267 -4.37659e-18)
(0.00936692 0.0243558 -2.22768e-18)
(-0.0196462 0.0215658 5.33579e-18)
(-0.0194752 0.0213531 1.21269e-17)
(-0.0186607 0.0217523 1.71338e-17)
(-0.0178419 0.02213 -4.70643e-18)
(-0.0170197 0.0224873 6.86108e-18)
(-0.016195 0.0228248 2.44139e-18)
(-0.0153683 0.0231428 -7.16033e-18)
(-0.01454 0.0234416 -8.15175e-18)
(-0.0137105 0.0237217 -2.27154e-18)
(-0.0128802 0.0239834 -1.40148e-18)
(-0.0120492 0.0242271 -1.11719e-17)
(-0.0112178 0.024453 -3.55185e-18)
(-0.0103862 0.0246615 7.64429e-19)
(-0.00955449 0.0248528 3.90962e-18)
(-0.0087228 0.0250272 8.16818e-19)
(-0.0078912 0.025185 -7.17755e-18)
(-0.00705975 0.0253263 -7.3441e-18)
(-0.0062285 0.0254514 -1.16726e-17)
(-0.00539747 0.0255605 -1.15307e-17)
(-0.00456666 0.0256537 -1.76107e-18)
(-0.00373604 0.0257312 -4.82595e-18)
(-0.0029056 0.025793 -5.58217e-18)
(-0.00207531 0.0258393 -3.85257e-18)
(-0.00124514 0.0258701 -8.5695e-18)
(-0.000415038 0.0258855 -8.83671e-19)
(0.000415041 0.0258855 9.54516e-18)
(0.00124514 0.0258701 2.26513e-18)
(0.00207532 0.0258393 5.94765e-18)
(0.0029056 0.025793 4.29669e-18)
(0.00373604 0.0257312 1.41008e-18)
(0.00456666 0.0256537 -2.66301e-18)
(0.00539747 0.0255605 -5.86092e-18)
(0.0062285 0.0254514 3.53034e-18)
(0.00705975 0.0253263 -5.23172e-18)
(0.0078912 0.0251849 -1.21281e-17)
(0.0087228 0.0250272 -6.06273e-18)
(0.00955449 0.0248528 -4.37838e-18)
(0.0103862 0.0246615 -2.86849e-18)
(-0.0200611 0.0219906 5.55308e-18)
(-0.019872 0.0217897 1.1628e-17)
(-0.0190405 0.0221971 1.77823e-17)
(-0.0182046 0.0225827 -4.91022e-18)
(-0.0173654 0.0229476 6.18479e-18)
(-0.0165235 0.0232922 2.74857e-18)
(-0.0156796 0.0236168 -6.86544e-18)
(-0.0148343 0.0239219 -8.11424e-18)
(-0.0139877 0.0242079 -1.57841e-18)
(-0.0131403 0.024475 -2.60687e-18)
(-0.0122923 0.0247237 -1.10065e-17)
(-0.0114439 0.0249542 -3.81543e-18)
(-0.0105954 0.025167 -1.79472e-19)
(-0.00974676 0.0253622 5.42086e-18)
(-0.0088982 0.0255401 9.16684e-19)
(-0.00804977 0.0257011 -7.50918e-18)
(-0.00720153 0.0258453 -7.37012e-18)
(-0.00635352 0.0259729 -1.13555e-17)
(-0.00550576 0.0260842 -1.23791e-17)
(-0.00465823 0.0261793 -1.6725e-18)
(-0.00381093 0.0262583 -4.5602e-18)
(-0.00296383 0.0263213 -6.96741e-18)
(-0.0021169 0.0263686 -4.29485e-18)
(-0.00127009 0.0264 -8.3556e-18)
(-0.000423352 0.0264157 -8.44957e-19)
(0.000423355 0.0264157 9.25895e-18)
(0.00127009 0.0264 3.32281e-18)
(0.0021169 0.0263686 6.85396e-18)
(0.00296383 0.0263213 4.15935e-18)
(0.00381094 0.0262583 2.67951e-18)
(0.00465824 0.0261793 -8.68752e-19)
(0.00550576 0.0260842 -4.74491e-18)
(0.00635352 0.0259729 2.79305e-18)
(0.00720153 0.0258453 -5.34478e-18)
(0.00804977 0.0257011 -1.12694e-17)
(0.00889821 0.0255401 -5.89341e-18)
(0.00974676 0.0253622 -3.89408e-18)
(0.0105954 0.025167 -5.48436e-18)
(0.0114439 0.0249542 -1.09187e-17)
(0.0122923 0.0247237 -1.99256e-17)
(-0.0204866 0.0224264 6.44037e-18)
(-0.020279 0.0222377 1.07626e-17)
(-0.0194302 0.0226533 1.83593e-17)
(-0.0185767 0.0230471 -4.19442e-18)
(-0.0177198 0.0234197 6.37022e-18)
(-0.0168604 0.0237715 3.22691e-18)
(-0.015999 0.024103 -7.58205e-18)
(-0.015136 0.0244145 -8.62458e-18)
(-0.0142719 0.0247064 -7.7645e-19)
(-0.013407 0.0249791 -3.38472e-18)
(-0.0125416 0.0252329 -1.079e-17)
(-0.0116758 0.0254682 -4.50487e-18)
(-0.0108099 0.0256853 -5.90579e-19)
(-0.00994391 0.0258845 6.40983e-18)
(-0.00907806 0.0260661 6.75285e-19)
(-0.00821237 0.0262303 -7.69972e-18)
(-0.0073469 0.0263774 -7.04524e-18)
(-0.0064817 0.0265076 -1.07901e-17)
(-0.00561678 0.0266212 -1.30816e-17)
(-0.00475213 0.0267181 -1.48498e-18)
(-0.00388772 0.0267987 -4.42226e-18)
(-0.00302353 0.026863 -8.00284e-18)
(-0.00215953 0.0269112 -4.54477e-18)
(-0.00129566 0.0269432 -8.52675e-18)
(-0.000431877 0.0269593 -9.86815e-19)
(0.000431879 0.0269593 8.89431e-18)
(0.00129566 0.0269432 4.30158e-18)
(0.00215953 0.0269112 7.55661e-18)
(0.00302354 0.026863 3.75814e-18)
(0.00388772 0.0267987 3.60855e-18)
(0.00475213 0.0267181 1.65288e-19)
(0.00561678 0.0266211 -3.77713e-18)
(0.0064817 0.0265076 2.32056e-18)
(0.0073469 0.0263774 -5.2555e-18)
(0.00821237 0.0262303 -9.98873e-18)
(0.00907806 0.0260661 -4.74993e-18)
(0.00994392 0.0258845 -2.21155e-18)
(0.0108099 0.0256853 -5.6204e-18)
(0.0116758 0.0254682 -1.4731e-17)
(0.0125416 0.0252329 -2.45693e-17)
(0.013407 0.0249791 2.77254e-19)
(0.0142719 0.0247064 2.89537e-18)
(-0.020924 0.022875 7.54701e-18)
(-0.0206966 0.0226976 9.38354e-18)
(-0.0198301 0.0231215 1.85814e-17)
(-0.0189585 0.0235235 -2.81005e-18)
(-0.0180835 0.023904 6.83422e-18)
(-0.017206 0.0242633 3.01793e-18)
(-0.0163265 0.0246017 -9.15888e-18)
(-0.0154456 0.0249198 -9.21042e-18)
(-0.0145635 0.0252178 3.91771e-19)
(-0.0136806 0.0254961 -3.47151e-18)
(-0.0127973 0.0257552 -1.08032e-17)
(-0.0119136 0.0259954 -5.28415e-18)
(-0.0110299 0.0262169 -1.23082e-18)
(-0.0101461 0.0264202 6.8004e-18)
(-0.00926254 0.0266055 9.59913e-19)
(-0.00837914 0.026773 -7.69838e-18)
(-0.007496 0.0269231 -6.46829e-18)
(-0.00661317 0.027056 -1.04089e-17)
(-0.00573065 0.0271718 -1.41375e-17)
(-0.00484843 0.0272707 -1.14581e-18)
(-0.00396648 0.0273529 -4.02301e-18)
(-0.00308477 0.0274185 -8.68956e-18)
(-0.00220325 0.0274677 -4.62318e-18)
(-0.00132189 0.0275004 -8.7887e-18)
(-0.000440619 0.0275167 -1.34595e-18)
(0.000440622 0.0275167 8.57989e-18)
(0.00132189 0.0275004 5.35043e-18)
(0.00220326 0.0274677 8.27854e-18)
(0.00308477 0.0274185 3.29187e-18)
(0.00396648 0.0273529 4.37905e-18)
(0.00484843 0.0272707 6.25186e-19)
(0.00573066 0.0271718 -3.48592e-18)
(0.00661317 0.027056 1.83318e-18)
(0.007496 0.0269231 -5.3662e-18)
(0.00837914 0.026773 -8.66718e-18)
(0.00926254 0.0266055 -3.67599e-18)
(0.0101461 0.0264202 -1.07866e-18)
(0.0110299 0.0262169 -4.25917e-18)
(0.0119136 0.0259954 -1.51339e-17)
(0.0127973 0.0257552 -2.58568e-17)
(0.0136806 0.0254961 -2.37208e-18)
(0.0145635 0.0252178 2.34375e-18)
(0.0154456 0.0249198 1.74078e-18)
(0.0163265 0.0246017 5.74341e-18)
(0.017206 0.0242633 2.01377e-17)
(-0.0213761 0.0233391 8.50963e-18)
(-0.0211255 0.0231696 8.28448e-18)
(-0.0202405 0.0236019 1.85029e-17)
(-0.0193504 0.0240125 -7.13847e-19)
(-0.0184568 0.024401 6.98056e-18)
(-0.0175608 0.024768 2.91972e-18)
(-0.0166627 0.0251135 -1.08288e-17)
(-0.0157633 0.0254383 -1.00147e-17)
(-0.0148627 0.0257425 1.16872e-18)
(-0.0139614 0.0260267 -3.04413e-18)
(-0.0130597 0.0262912 -1.112e-17)
(-0.0121577 0.0265363 -6.59326e-18)
(-0.0112556 0.0267624 -1.92875e-18)
(-0.0103536 0.0269699 7.57551e-18)
(-0.00945183 0.0271589 1.73161e-18)
(-0.00855025 0.0273299 -7.99093e-18)
(-0.00764898 0.027483 -6.09163e-18)
(-0.00674806 0.0276186 -1.01902e-17)
(-0.00584748 0.0277367 -1.52376e-17)
(-0.00494724 0.0278376 -5.77842e-19)
(-0.00404728 0.0279215 -3.38192e-18)
(-0.00314759 0.0279884 -9.3664e-18)
(-0.00224811 0.0280385 -4.72336e-18)
(-0.0013488 0.0280719 -8.82314e-18)
(-0.000449588 0.0280885 -1.96086e-18)
(0.000449591 0.0280885 8.43381e-18)
(0.0013488 0.0280719 6.4325e-18)
(0.00224812 0.0280385 8.91196e-18)
(0.00314759 0.0279884 2.72271e-18)
(0.00404728 0.0279215 4.93626e-18)
(0.00494724 0.0278376 1.11787e-18)
(0.00584749 0.0277367 -3.40968e-18)
(0.00674806 0.0276186 1.34754e-18)
(0.00764899 0.027483 -5.95974e-18)
(0.00855026 0.0273299 -8.00831e-18)
(0.00945183 0.0271589 -2.47167e-18)
(0.0103536 0.0269699 -2.32362e-19)
(0.0112556 0.0267624 -3.38141e-18)
(0.0121577 0.0265363 -1.36039e-17)
(0.0130597 0.0262912 -2.4705e-17)
(0.0139614 0.0260267 -3.06699e-18)
(0.0148627 0.0257425 2.48619e-18)
(0.0157633 0.0254383 1.49617e-18)
(0.0166627 0.0251135 4.55758e-18)
(0.0175608 0.024768 1.84848e-17)
(0.0184568 0.024401 1.95933e-17)
(0.0193504 0.0240125 1.71739e-17)
(-0.0218445 0.0238199 9.40377e-18)
(-0.0215665 0.0236541 7.50342e-18)
(-0.020662 0.0240952 1.8423e-17)
(-0.0197527 0.0245145 1.17427e-18)
(-0.01884 0.0249113 6.8929e-18)
(-0.0179249 0.0252861 3.51114e-18)
(-0.0170079 0.0256389 -1.22153e-17)
(-0.0160894 0.0259706 -1.11584e-17)
(-0.0151699 0.0262812 1.41534e-18)
(-0.0142497 0.0265713 -2.10341e-18)
(-0.013329 0.0268413 -1.17043e-17)
(-0.0124082 0.0270915 -7.95829e-18)
(-0.0114873 0.0273223 -2.08828e-18)
(-0.0105666 0.027534 8.48066e-18)
(-0.00964611 0.0277269 2.44371e-18)
(-0.00872588 0.0279014 -8.12076e-18)
(-0.00780599 0.0280576 -6.12891e-18)
(-0.0068865 0.0281959 -1.02419e-17)
(-0.00596739 0.0283165 -1.58731e-17)
(-0.00504864 0.0284194 -1.26787e-19)
(-0.00413021 0.028505 -2.89411e-18)
(-0.00321206 0.0285732 -1.00633e-17)
(-0.00229415 0.0286243 -4.67313e-18)
(-0.00137642 0.0286584 -8.32403e-18)
(-0.000458793 0.0286754 -2.58765e-18)
(0.000458796 0.0286754 8.2031e-18)
(0.00137642 0.0286584 7.36308e-18)
(0.00229416 0.0286243 9.52835e-18)
(0.00321207 0.0285732 2.00118e-18)
(0.00413021 0.028505 5.33245e-18)
(0.00504864 0.0284194 1.7001e-18)
(0.00596739 0.0283165 -3.43649e-18)
(0.0068865 0.0281959 1.06619e-18)
(0.007806 0.0280576 -6.41303e-18)
(0.00872588 0.0279014 -8.01869e-18)
(0.00964611 0.0277269 -1.55512e-18)
(0.0105666 0.027534 2.13773e-19)
(0.0114873 0.0273223 -3.12069e-18)
(0.0124082 0.0270915 -1.22724e-17)
(0.013329 0.0268413 -2.32195e-17)
(0.0142497 0.0265713 -2.7208e-18)
(0.0151699 0.0262812 2.64421e-18)
(0.0160894 0.0259706 1.65286e-18)
(0.0170079 0.0256389 4.10793e-18)
(0.0179249 0.0252861 1.74423e-17)
(0.01884 0.0249113 2.0001e-17)
(0.0197527 0.0245145 1.81254e-17)
(0.020662 0.0240952 8.18239e-18)
(0.0215665 0.0236541 9.29031e-18)
(0.0218445 0.0238199 2.87588e-17)
(-0.0223289 0.0243163 1.0262e-17)
(-0.0220221 0.0241534 6.99627e-18)
(-0.0210956 0.0246026 1.8247e-17)
(-0.020166 0.0250301 2.38719e-18)
(-0.0192336 0.0254354 7.34335e-18)
(-0.0182989 0.0258181 4.21811e-18)
(-0.0173623 0.0261785 -1.33958e-17)
(-0.0164243 0.0265171 -1.25805e-17)
(-0.0154853 0.0268343 1.38466e-18)
(-0.0145456 0.0271305 -9.746e-19)
(-0.0136056 0.0274061 -1.21407e-17)
(-0.0126654 0.0276615 -8.61485e-18)
(-0.0117252 0.0278971 -1.82495e-18)
(-0.0107853 0.0281132 9.1528e-18)
(-0.00984558 0.0283101 3.08237e-18)
(-0.00890619 0.0284881 -8.4186e-18)
(-0.0079672 0.0286475 -6.44719e-18)
(-0.00702863 0.0287886 -1.00336e-17)
(-0.00609049 0.0289116 -1.59927e-17)
(-0.00515275 0.0290167 -2.61367e-19)
(-0.00421535 0.0291039 -2.6501e-18)
(-0.00327825 0.0291736 -1.06787e-17)
(-0.00234142 0.0292257 -4.23e-18)
(-0.00140477 0.0292604 -7.49794e-18)
(-0.000468244 0.0292778 -3.48824e-18)
(0.000468246 0.0292778 7.99233e-18)
(0.00140478 0.0292604 8.39717e-18)
(0.00234142 0.0292257 9.77837e-18)
(0.00327826 0.0291736 1.00716e-18)
(0.00421535 0.0291039 5.81755e-18)
(0.00515275 0.0290167 2.397e-18)
(0.0060905 0.0289116 -3.33199e-18)
(0.00702863 0.0287886 6.46301e-19)
(0.0079672 0.0286475 -6.90886e-18)
(0.00890619 0.0284881 -8.28526e-18)
(0.00984558 0.02831 -1.14492e-18)
(0.0107853 0.0281132 2.689e-19)
(0.0117252 0.0278971 -3.09857e-18)
(0.0126654 0.0276615 -1.10275e-17)
(0.0136056 0.0274061 -2.19598e-17)
(0.0145456 0.0271305 -2.66957e-18)
(0.0154853 0.0268343 2.02366e-18)
(0.0164243 0.0265171 1.67617e-18)
(0.0173623 0.0261785 4.17032e-18)
(0.0182989 0.0258181 1.73615e-17)
(0.0192336 0.0254354 1.90149e-17)
(0.020166 0.0250301 1.74818e-17)
(0.0210956 0.0246026 6.62751e-18)
(0.022022 0.0241534 7.16157e-18)
(0.0223289 0.0243163 2.89251e-17)
(-0.0228283 0.0248276 1.0959e-17)
(-0.0224958 0.024672 6.77795e-18)
(-0.0215446 0.0251278 1.81531e-17)
(-0.0205925 0.0255622 3.6678e-18)
(-0.0196387 0.0259748 8.12762e-18)
(-0.0186832 0.0263648 4.60388e-18)
(-0.0177264 0.0267327 -1.37803e-17)
(-0.0167683 0.0270786 -1.41444e-17)
(-0.0158093 0.0274024 1.07112e-18)
(-0.0148496 0.0277048 -4.29658e-19)
(-0.0138897 0.0279863 -1.27205e-17)
(-0.0129296 0.028247 -8.79911e-18)
(-0.0119696 0.0284874 -1.41097e-18)
(-0.0110099 0.028708 9.19063e-18)
(-0.0100505 0.0289089 2.8686e-18)
(-0.00909138 0.0290906 -8.49335e-18)
(-0.00813276 0.0292533 -6.20266e-18)
(-0.0071746 0.0293973 -9.51422e-18)
(-0.00621692 0.0295228 -1.62017e-17)
(-0.00525967 0.02963 -7.23977e-19)
(-0.00430278 0.029719 -2.59814e-18)
(-0.00334623 0.0297901 -1.1104e-17)
(-0.00238996 0.0298433 -3.61403e-18)
(-0.00143389 0.0298787 -6.62356e-18)
(-0.000477949 0.0298964 -4.34209e-18)
(0.000477952 0.0298964 7.6248e-18)
(0.00143389 0.0298787 9.55389e-18)
(0.00238996 0.0298433 1.00545e-17)
(0.00334623 0.0297901 -1.3037e-19)
(0.00430278 0.029719 6.19817e-18)
(0.00525967 0.02963 3.48682e-18)
(0.00621693 0.0295228 -3.05105e-18)
(0.0071746 0.0293973 6.12616e-20)
(0.00813276 0.0292533 -7.14671e-18)
(0.00909139 0.0290906 -8.44246e-18)
(0.0100505 0.0289089 -1.37051e-18)
(0.0110099 0.028708 -2.47972e-19)
(0.0119696 0.0284874 -3.13447e-18)
(0.0129296 0.0282469 -9.80389e-18)
(0.0138897 0.0279863 -2.10492e-17)
(0.0148496 0.0277048 -3.30418e-18)
(0.0158093 0.0274024 5.88217e-19)
(0.0167683 0.0270786 1.42129e-18)
(0.0177264 0.0267327 4.84579e-18)
(0.0186832 0.0263648 1.80146e-17)
(0.0196387 0.0259748 1.69403e-17)
(0.0205925 0.0255622 1.66613e-17)
(0.0215445 0.0251278 6.05713e-18)
(0.0224958 0.024672 6.37389e-18)
(0.0228283 0.0248276 2.80462e-17)
(-0.0233423 0.0253541 1.10094e-17)
(-0.022988 0.0252106 6.65732e-18)
(-0.0220119 0.025674 1.83852e-17)
(-0.0210359 0.0261152 4.84623e-18)
(-0.0200585 0.0265336 8.80408e-18)
(-0.0190801 0.0269294 4.7652e-18)
(-0.0181015 0.0273039 -1.40231e-17)
(-0.017122 0.0276558 -1.59698e-17)
(-0.0161422 0.0279862 2.51461e-19)
(-0.015162 0.028295 -4.29996e-19)
(-0.0141816 0.0285824 -1.35154e-17)
(-0.0132011 0.0288485 -8.56965e-18)
(-0.0122207 0.029094 -5.31062e-19)
(-0.0112406 0.0293192 8.59161e-18)
(-0.0102609 0.0295242 2.02222e-18)
(-0.00928165 0.0297096 -8.1853e-18)
(-0.00830285 0.0298757 -5.20657e-18)
(-0.00732457 0.0300227 -8.94591e-18)
(-0.00634681 0.0301507 -1.67421e-17)
(-0.00536951 0.03026 -1.1856e-18)
(-0.00439261 0.0303509 -2.70227e-18)
(-0.00341607 0.0304234 -1.13929e-17)
(-0.00243983 0.0304777 -3.05427e-18)
(-0.00146381 0.0305138 -5.81067e-18)
(-0.000487919 0.0305319 -4.79896e-18)
(0.000487922 0.0305319 7.63711e-18)
(0.00146381 0.0305138 1.0661e-17)
(0.00243983 0.0304777 9.97124e-18)
(0.00341607 0.0304234 -1.42101e-18)
(0.00439261 0.0303509 6.44669e-18)
(0.00536951 0.03026 4.76546e-18)
(0.00634682 0.0301507 -2.43726e-18)
(0.00732457 0.0300226 -2.26762e-19)
(0.00830285 0.0298757 -7.08286e-18)
(0.00928165 0.0297096 -8.3187e-18)
(0.0102609 0.0295242 -1.75782e-18)
(0.0112406 0.0293192 -1.1765e-18)
(0.0122207 0.029094 -3.12409e-18)
(0.0132011 0.0288485 -8.72505e-18)
(0.0141816 0.0285824 -2.00962e-17)
(0.015162 0.028295 -3.76214e-18)
(0.0161422 0.0279862 -1.80659e-18)
(0.017122 0.0276558 5.13259e-19)
(0.0181015 0.0273039 5.56164e-18)
(0.0190801 0.0269294 1.8926e-17)
(0.0200585 0.0265336 1.47659e-17)
(0.0210358 0.0261152 1.63593e-17)
(0.0220119 0.025674 6.9091e-18)
(0.022988 0.0252106 6.95415e-18)
(0.0233423 0.0253541 2.6875e-17)
(-0.0238708 0.0258959 1.04824e-17)
(-0.023496 0.0257669 7.9171e-18)
(-0.0224965 0.0262403 1.85353e-17)
(-0.0214967 0.0266896 5.91767e-18)
(-0.0204954 0.0271148 9.41897e-18)
(-0.0194931 0.0275166 4.71994e-18)
(-0.0184906 0.0278961 -1.413e-17)
(-0.0174878 0.0282526 -1.79245e-17)
(-0.0164857 0.0285886 -8.98395e-19)
(-0.0154836 0.0289027 -4.29723e-19)
(-0.0144817 0.0291952 -1.43353e-17)
(-0.0134801 0.0294668 -8.00561e-18)
(-0.0124788 0.0297174 7.29979e-19)
(-0.0114778 0.0299473 7.49399e-18)
(-0.0104773 0.0301566 8.56654e-19)
(-0.00947721 0.0303458 -7.33938e-18)
(-0.00847767 0.0305153 -3.54628e-18)
(-0.0074787 0.0306653 -8.9131e-18)
(-0.00648031 0.030796 -1.749e-17)
(-0.0054824 0.0309075 -1.43668e-18)
(-0.00448492 0.0310002 -2.97486e-18)
(-0.00348784 0.0310742 -1.16464e-17)
(-0.00249108 0.0311296 -2.78055e-18)
(-0.00149455 0.0311665 -4.98114e-18)
(-0.000498166 0.0311849 -4.76443e-18)
(0.000498169 0.0311849 7.94421e-18)
(0.00149455 0.0311665 1.15703e-17)
(0.00249108 0.0311296 9.86182e-18)
(0.00348784 0.0310742 -2.65987e-18)
(0.00448492 0.0310002 6.66966e-18)
(0.0054824 0.0309075 6.04619e-18)
(0.00648031 0.030796 -1.80298e-18)
(0.0074787 0.0306653 -7.13691e-19)
(0.00847767 0.0305153 -6.97712e-18)
(0.00947721 0.0303458 -7.91676e-18)
(0.0104773 0.0301566 -2.0969e-18)
(0.0114778 0.0299473 -2.01039e-18)
(0.0124788 0.0297174 -2.87566e-18)
(0.0134801 0.0294668 -7.95302e-18)
(0.0144817 0.0291952 -1.93136e-17)
(0.0154836 0.0289027 -3.57688e-18)
(0.0164857 0.0285886 -4.46451e-18)
(0.0174878 0.0282526 -7.57557e-19)
(0.0184906 0.0278961 5.4659e-18)
(0.0194931 0.0275166 1.93399e-17)
(0.0204954 0.0271148 1.29823e-17)
(0.0214967 0.0266896 1.59095e-17)
(0.0224965 0.0262403 8.92744e-18)
(0.023496 0.0257669 7.94218e-18)
(0.0238708 0.0258959 2.56718e-17)
(-0.0244139 0.0264533 1.03447e-17)
(-0.0240184 0.0263393 9.991e-18)
(-0.0229961 0.0268241 1.83346e-17)
(-0.021973 0.0272832 7.06238e-18)
(-0.0209482 0.0277172 9.94389e-18)
(-0.0199223 0.0281266 4.682e-18)
(-0.0188956 0.0285119 -1.38634e-17)
(-0.0178687 0.0288739 -1.98458e-17)
(-0.0168426 0.0292142 -2.6103e-18)
(-0.0158169 0.0295322 -2.9214e-19)
(-0.0147919 0.0298286 -1.49076e-17)
(-0.013768 0.0301048 -7.67013e-18)
(-0.0127446 0.0303596 2.02546e-18)
(-0.0117218 0.0305933 6.85491e-18)
(-0.0106998 0.0308068 -5.63074e-19)
(-0.00967828 0.0309999 -6.1548e-18)
(-0.00865741 0.0311729 -1.47509e-18)
(-0.00763716 0.031326 -9.45791e-18)
(-0.00661755 0.0314593 -1.82733e-17)
(-0.00559846 0.0315732 -1.77028e-18)
(-0.00457983 0.0316678 -3.36591e-18)
(-0.00356162 0.0317433 -1.19723e-17)
(-0.00254376 0.0317998 -2.75602e-18)
(-0.00152615 0.0318374 -3.95265e-18)
(-0.0005087 0.0318562 -4.08694e-18)
(0.000508703 0.0318562 8.41971e-18)
(0.00152616 0.0318374 1.19302e-17)
(0.00254377 0.0317998 9.76749e-18)
(0.00356163 0.0317433 -3.60481e-18)
(0.00457983 0.0316678 6.65168e-18)
(0.00559846 0.0315732 7.27545e-18)
(0.00661755 0.0314593 -1.10854e-18)
(0.00763716 0.0313259 -1.47099e-18)
(0.00865741 0.0311729 -6.62861e-18)
(0.00967828 0.0309999 -7.10799e-18)
(0.0106998 0.0308068 -2.9424e-18)
(0.0117218 0.0305933 -2.61399e-18)
(0.0127446 0.0303596 -2.57238e-18)
(0.013768 0.0301048 -7.85209e-18)
(0.0147919 0.0298286 -1.85553e-17)
(0.0158169 0.0295322 -2.61099e-18)
(0.0168426 0.0292142 -6.89016e-18)
(0.0178687 0.0288739 -2.33469e-18)
(0.0188956 0.0285119 5.27929e-18)
(0.0199223 0.0281266 1.91318e-17)
(0.0209482 0.0277172 1.13893e-17)
(0.021973 0.0272832 1.53618e-17)
(0.0229961 0.0268241 1.03556e-17)
(0.0240184 0.0263393 9.05809e-18)
(0.0244139 0.0264533 2.47951e-17)
(-0.0249721 0.0270266 1.13297e-17)
(-0.0245548 0.0269275 1.15507e-17)
(-0.0235098 0.0274244 1.78137e-17)
(-0.0224633 0.0278944 8.33764e-18)
(-0.0214151 0.0283382 1.02387e-17)
(-0.0203656 0.0287566 4.33347e-18)
(-0.0193151 0.0291498 -1.36296e-17)
(-0.0182644 0.0295191 -2.19061e-17)
(-0.0172139 0.0298647 -4.85107e-18)
(-0.016164 0.0301873 1.91266e-19)
(-0.0151149 0.0304879 -1.52181e-17)
(-0.0140671 0.0307673 -8.03987e-18)
(-0.0130202 0.0310251 3.32877e-18)
(-0.0119742 0.0312616 6.51621e-18)
(-0.0109295 0.0314785 -1.94712e-18)
(-0.0098857 0.0316748 -4.32883e-18)
(-0.00884263 0.0318506 3.14911e-19)
(-0.0078003 0.0320061 -1.05792e-17)