/*--------------------------------*- C++ -*----------------------------------*\
  =========                 |
  \\      /  F ield         | OpenFOAM: The Open Source CFD Toolbox
   \\    /   O peration     | Website:  https://openfoam.org
    \\  /    A nd           | Version:  7
     \\/     M anipulation  |
\*---------------------------------------------------------------------------*/
FoamFile
{
    version     2.0;
    format      ascii;
    class       volScalarField;
    location    "76000";
    object      omega;
}
// * * * * * * * * * * * * * * * * * * * * * * * * * * * * * * * * * * * * * //

dimensions      [0 0 -1 0 0 0 0];

internalField   nonuniform List<scalar> 
4814
(
0.252849
0.25178
0.25082
0.24997
0.287387
0.28483
0.282389
0.280042
0.27779
0.275634
0.273576
0.271621
0.26977
0.268025
0.266386
0.26485
0.263423
0.262102
0.260888
0.259786
0.258796
0.257919
0.257153
0.256497
0.25595
0.255512
0.255183
0.254963
0.254854
0.254855
0.254967
0.255187
0.255517
0.255956
0.256503
0.257157
0.25792
0.258795
0.296633
0.293996
0.291479
0.28906
0.286738
0.284514
0.282392
0.280375
0.278466
0.276666
0.274976
0.273391
0.271919
0.270556
0.269304
0.268167
0.267145
0.266241
0.265451
0.264774
0.264209
0.263758
0.263418
0.263191
0.263079
0.263079
0.263195
0.263422
0.263762
0.264216
0.264781
0.265456
0.266242
0.267144
0.268163
0.269297
0.270548
0.271914
0.273392
0.274979
0.276677
0.306317
0.303597
0.301001
0.298506
0.296111
0.293815
0.291626
0.289545
0.287575
0.285719
0.283975
0.28234
0.28082
0.279414
0.278121
0.276948
0.275893
0.27496
0.274144
0.273446
0.272863
0.272398
0.272047
0.271813
0.271696
0.271697
0.271816
0.27205
0.272401
0.272871
0.273454
0.27415
0.274962
0.275892
0.276943
0.278114
0.279404
0.280814
0.28234
0.283978
0.28573
0.287592
0.289565
0.291643
0.316468
0.313662
0.310983
0.308409
0.305936
0.303567
0.301307
0.299159
0.297126
0.295211
0.293411
0.291722
0.290152
0.288701
0.287367
0.286155
0.285067
0.284103
0.28326
0.282539
0.281938
0.281457
0.281095
0.280853
0.280732
0.280733
0.280856
0.281098
0.28146
0.281946
0.282548
0.283267
0.284105
0.285065
0.28615
0.287358
0.28869
0.290146
0.291721
0.293413
0.295221
0.297144
0.29918
0.301324
0.327119
0.324222
0.321456
0.318799
0.316246
0.3138
0.311466
0.309248
0.307149
0.305171
0.303312
0.301569
0.299947
0.298448
0.29707
0.295818
0.294694
0.293698
0.292828
0.292083
0.291463
0.290965
0.290591
0.290341
0.290216
0.290217
0.290344
0.290594
0.290968
0.29147
0.292093
0.292836
0.293701
0.294692
0.295812
0.297061
0.298436
0.29994
0.301567
0.303315
0.305182
0.307167
0.309269
0.311483
0.338303
0.335311
0.332455
0.32971
0.327074
0.324547
0.322135
0.319843
0.317675
0.315633
0.313713
0.311911
0.310234
0.308687
0.307263
0.305968
0.304807
0.303777
0.302878
0.302108
0.301468
0.300953
0.300567
0.300309
0.300179
0.30018
0.300311
0.300569
0.300956
0.301476
0.30212
0.302887
0.303781
0.304805
0.305962
0.307252
0.308673
0.310227
0.311909
0.313715
0.315644
0.317695
0.319866
0.322153
0.35006
0.346968
0.344017
0.34118
0.338456
0.335844
0.333351
0.330983
0.328742
0.326632
0.324647
0.322785
0.32105
0.319451
0.317979
0.316641
0.315441
0.314375
0.313445
0.312649
0.311988
0.311456
0.311056
0.310789
0.310655
0.310655
0.31079
0.311058
0.311458
0.311996
0.312662
0.313456
0.314379
0.315437
0.316634
0.317968
0.319437
0.321043
0.322781
0.324649
0.326643
0.328762
0.331006
0.333369
0.33585
0.362431
0.359234
0.356183
0.35325
0.350434
0.347732
0.345155
0.342706
0.340389
0.338207
0.336155
0.334229
0.332434
0.330781
0.329258
0.327873
0.326632
0.325529
0.324567
0.323744
0.32306
0.32251
0.322096
0.32182
0.321681
0.321682
0.32182
0.322097
0.322511
0.323068
0.323757
0.324579
0.325534
0.326628
0.327865
0.329246
0.330765
0.332427
0.334224
0.336156
0.338218
0.340409
0.342729
0.345173
0.347738
0.375463
0.372156
0.369
0.365966
0.363052
0.360257
0.35759
0.355056
0.352659
0.350402
0.348278
0.346285
0.344427
0.342717
0.341141
0.339708
0.338423
0.337281
0.336286
0.335433
0.334726
0.334156
0.333728
0.333442
0.333299
0.333299
0.333442
0.333728
0.334158
0.334734
0.335448
0.336299
0.337287
0.338419
0.339699
0.341128
0.3427
0.34442
0.34628
0.348279
0.350412
0.352679
0.355079
0.357607
0.360262
0.38921
0.385786
0.382519
0.379377
0.376361
0.373467
0.370706
0.368082
0.365601
0.363265
0.361065
0.359001
0.357077
0.355306
0.353676
0.352191
0.35086
0.349677
0.348646
0.347763
0.347031
0.346441
0.345998
0.345702
0.345553
0.345553
0.345701
0.345997
0.346442
0.347039
0.347779
0.34866
0.349684
0.350856
0.352182
0.353662
0.355289
0.35707
0.358996
0.361066
0.363274
0.365621
0.368106
0.370723
0.373472
0.40373
0.400183
0.396797
0.393542
0.390417
0.387419
0.384558
0.38184
0.37927
0.37685
0.37457
0.372431
0.370437
0.368602
0.366913
0.365374
0.363995
0.362769
0.3617
0.360785
0.360027
0.359416
0.358956
0.358649
0.358495
0.358495
0.358647
0.358954
0.359416
0.360034
0.360801
0.361715
0.362777
0.363991
0.365365
0.366899
0.368584
0.370429
0.372425
0.37457
0.376857
0.379289
0.381863
0.384575
0.419091
0.415412
0.411901
0.408525
0.405285
0.402176
0.399209
0.396391
0.393726
0.391216
0.388852
0.386634
0.384566
0.382663
0.380912
0.379316
0.377886
0.376614
0.375505
0.374555
0.373769
0.373136
0.372659
0.372341
0.372181
0.372181
0.372338
0.372656
0.373137
0.373776
0.374573
0.375521
0.376622
0.377881
0.379306
0.380897
0.382645
0.384558
0.386628
0.388852
0.391223
0.393745
0.396413
0.399226
0.435369
0.43155
0.427905
0.424399
0.421036
0.417809
0.41473
0.411805
0.409039
0.406434
0.403979
0.401678
0.39953
0.397555
0.395739
0.394081
0.392597
0.391276
0.390125
0.389139
0.388323
0.387666
0.387171
0.386841
0.386675
0.386674
0.386837
0.387168
0.387667
0.38833
0.389157
0.390142
0.391286
0.392592
0.394071
0.395723
0.397537
0.399522
0.401671
0.403979
0.406439
0.409057
0.411826
0.414746
0.452653
0.448683
0.444894
0.44125
0.437754
0.434401
0.431201
0.428162
0.425288
0.422581
0.420029
0.417638
0.415407
0.413354
0.411467
0.409745
0.408203
0.406831
0.405634
0.40461
0.403762
0.40308
0.402565
0.402222
0.402049
0.402048
0.402217
0.402561
0.40308
0.403768
0.404628
0.405651
0.406841
0.408198
0.409735
0.411452
0.413336
0.415398
0.417631
0.420029
0.422584
0.425304
0.428182
0.431216
0.471044
0.466911
0.462967
0.459173
0.455534
0.452045
0.448716
0.445554
0.442563
0.439746
0.437092
0.434603
0.432283
0.430146
0.428185
0.426393
0.424789
0.423361
0.422117
0.42105
0.420168
0.419459
0.418923
0.418566
0.418386
0.418385
0.41856
0.418919
0.419458
0.420174
0.421069
0.422134
0.423372
0.424784
0.426383
0.428168
0.430129
0.432274
0.434597
0.43709
0.439749
0.442578
0.445572
0.44873
0.490662
0.486353
0.482239
0.478283
0.474489
0.470853
0.467383
0.464088
0.460971
0.458036
0.45527
0.452676
0.450259
0.448032
0.44599
0.444124
0.442452
0.440966
0.439669
0.438558
0.437637
0.436899
0.436342
0.435969
0.435782
0.435781
0.435963
0.436337
0.436899
0.437643
0.438576
0.439686
0.440976
0.442448
0.444114
0.445973
0.448016
0.45025
0.45267
0.455267
0.458037
0.460985
0.464104
0.467395
0.511648
0.507145
0.502847
0.498713
0.494749
0.490952
0.487329
0.483889
0.480636
0.477571
0.474683
0.471976
0.469454
0.467129
0.464998
0.463052
0.461308
0.459757
0.458403
0.457244
0.456283
0.455513
0.454932
0.454542
0.454347
0.454345
0.454536
0.454927
0.455512
0.456288
0.457262
0.45842
0.459768
0.461304
0.463042
0.464981
0.467114
0.469444
0.47197
0.47468
0.47757
0.480648
0.483904
0.48734
0.534168
0.529453
0.52495
0.520621
0.516471
0.512496
0.508705
0.505106
0.501702
0.498495
0.495474
0.492643
0.490006
0.487574
0.485347
0.483313
0.481489
0.479869
0.478453
0.477241
0.476236
0.475431
0.474824
0.474416
0.474212
0.47421
0.474409
0.474819
0.47543
0.476241
0.477258
0.47847
0.479879
0.481486
0.483304
0.48533
0.48756
0.489996
0.492637
0.49547
0.498493
0.501712
0.505119
0.508714
0.558424
0.553472
0.548742
0.544196
0.539838
0.535667
0.531689
0.527914
0.524344
0.520981
0.517813
0.514845
0.512081
0.509532
0.507198
0.505068
0.503157
0.501459
0.499976
0.498705
0.497652
0.496809
0.496172
0.495745
0.495531
0.495529
0.495738
0.496168
0.496807
0.497656
0.498721
0.499992
0.501469
0.503154
0.505059
0.507181
0.509519
0.512071
0.514839
0.517808
0.520978
0.524353
0.527926
0.531697
0.584655
0.579438
0.574455
0.569666
0.565075
0.560684
0.556498
0.552526
0.548772
0.545234
0.541902
0.538782
0.535878
0.533198
0.530745
0.528508
0.5265
0.524717
0.523159
0.521824
0.520716
0.519831
0.519162
0.518714
0.518489
0.518486
0.518706
0.519158
0.519829
0.52072
0.521839
0.523173
0.524727
0.526497
0.528499
0.530728
0.533185
0.535867
0.538776
0.541897
0.545229
0.548779
0.552537
0.556505
0.613162
0.607645
0.602374
0.597309
0.592455
0.587815
0.583393
0.579201
0.575238
0.571504
0.567988
0.564697
0.561635
0.558808
0.556223
0.553866
0.55175
0.549872
0.54823
0.546822
0.545655
0.544721
0.544017
0.543545
0.543308
0.543305
0.543537
0.544013
0.54472
0.545657
0.546836
0.548243
0.549881
0.551748
0.553858
0.556206
0.558797
0.561623
0.564691
0.567982
0.571497
0.575243
0.57921
0.583399
0.587805
0.644327
0.638463
0.632859
0.627477
0.62232
0.617392
0.6127
0.608256
0.604056
0.600099
0.596374
0.592889
0.589647
0.586655
0.583918
0.581427
0.579189
0.577202
0.575466
0.573977
0.572741
0.571754
0.57101
0.570511
0.57026
0.570257
0.570503
0.571006
0.571753
0.572744
0.573989
0.575477
0.577211
0.579187
0.581419
0.583901
0.586644
0.589636
0.592883
0.596368
0.600091
0.60406
0.608263
0.612705
0.617382
0.678602
0.672339
0.666352
0.660605
0.655099
0.649842
0.644838
0.640102
0.635626
0.63141
0.627444
0.623735
0.620285
0.6171
0.61419
0.611544
0.609167
0.607057
0.605212
0.60363
0.602318
0.601269
0.600479
0.599949
0.599682
0.59968
0.599941
0.600475
0.601267
0.602319
0.603641
0.605222
0.607065
0.609165
0.611536
0.614174
0.61709
0.620273
0.623728
0.627437
0.631402
0.635629
0.640108
0.644842
0.64983
0.716498
0.709781
0.703359
0.697197
0.691296
0.685664
0.680304
0.67523
0.670436
0.665921
0.661676
0.657708
0.654019
0.650614
0.647502
0.644677
0.642136
0.639883
0.637913
0.636222
0.63482
0.633699
0.632856
0.632291
0.632006
0.632003
0.632283
0.632852
0.633698
0.634821
0.636232
0.637921
0.63989
0.642135
0.644669
0.647486
0.650604
0.654008
0.657701
0.661669
0.665912
0.670438
0.675235
0.680307
0.68565
0.758644
0.751406
0.744487
0.737849
0.731496
0.725435
0.719668
0.714208
0.70905
0.704194
0.699631
0.695368
0.691406
0.687749
0.684408
0.681373
0.678644
0.676225
0.674108
0.672292
0.670786
0.669582
0.668677
0.66807
0.667764
0.667762
0.668063
0.668672
0.66958
0.670786
0.672301
0.674114
0.67623
0.678643
0.681366
0.684393
0.68774
0.691394
0.695361
0.699624
0.704185
0.709052
0.714212
0.71967
0.805829
0.797988
0.790492
0.783306
0.77643
0.769873
0.763635
0.757731
0.752154
0.746905
0.741976
0.737373
0.733097
0.729152
0.725547
0.722271
0.719326
0.716715
0.71443
0.712471
0.710846
0.709546
0.70857
0.707916
0.707586
0.707584
0.707908
0.708565
0.709544
0.710845
0.712478
0.714435
0.716719
0.719325
0.722264
0.725532
0.729143
0.733086
0.737366
0.741968
0.746896
0.752155
0.757734
0.763637
0.859052
0.850507
0.842339
0.83451
0.827024
0.819888
0.813102
0.806679
0.800614
0.794908
0.789553
0.784555
0.779914
0.775633
0.77172
0.768166
0.764971
0.762137
0.759658
0.757533
0.75577
0.754359
0.753301
0.752592
0.752234
0.752233
0.752585
0.753296
0.754358
0.755768
0.757539
0.759662
0.76214
0.764969
0.768159
0.771707
0.775624
0.779903
0.784548
0.789545
0.794899
0.800614
0.806681
0.813103
0.919589
0.910214
0.901252
0.892667
0.884461
0.876643
0.86921
0.862177
0.855538
0.849295
0.843439
0.837977
0.832906
0.82823
0.823957
0.820076
0.816587
0.813493
0.810786
0.808467
0.806541
0.805001
0.803847
0.803073
0.802684
0.802683
0.803067
0.803842
0.805001
0.80654
0.808472
0.810789
0.813494
0.816585
0.820069
0.823945
0.828222
0.832896
0.837969
0.843432
0.849287
0.855538
0.862179
0.869211
0.989072
0.978711
0.968806
0.959322
0.950262
0.941633
0.933433
0.925675
0.918355
0.911473
0.905022
0.899009
0.893428
0.888284
0.883583
0.879314
0.875477
0.872074
0.869098
0.866549
0.864432
0.862739
0.86147
0.86062
0.860193
0.860193
0.860615
0.861465
0.862738
0.86443
0.866553
0.8691
0.872075
0.875475
0.879308
0.883572
0.888277
0.893419
0.899002
0.905016
0.911466
0.918355
0.925677
0.933433
1.0696
1.05806
1.04703
1.03647
1.02639
1.01679
1.00767
0.999048
0.990913
0.983267
0.976105
0.969431
0.96324
0.957535
0.952322
0.947588
0.943335
0.939563
0.936266
0.933441
0.931095
0.929219
0.927814
0.926873
0.926401
0.926401
0.926868
0.927809
0.929219
0.931094
0.933444
0.936267
0.939564
0.943334
0.947583
0.952312
0.957528
0.963231
0.969424
0.9761
0.983261
0.990912
0.99905
1.00767
1.1639
1.15094
1.13856
1.12671
1.1154
1.10463
1.09441
1.08474
1.07562
1.06706
1.05904
1.05157
1.04464
1.03826
1.03243
1.02713
1.02238
1.01816
1.01448
1.01132
1.0087
1.0066
1.00503
1.00398
1.00346
1.00346
1.00398
1.00503
1.0066
1.0087
1.01132
1.01448
1.01816
1.02238
1.02713
1.03242
1.03825
1.04463
1.05156
1.05903
1.06705
1.07562
1.08474
1.09441
1.27551
1.26085
1.24683
1.23342
1.22062
1.20844
1.19688
1.18595
1.17564
1.16596
1.15691
1.14847
1.14065
1.13345
1.12686
1.12089
1.11553
1.11077
1.10662
1.10306
1.1001
1.09774
1.09597
1.09478
1.09419
1.09419
1.09478
1.09596
1.09774
1.1001
1.10306
1.10662
1.11077
1.11553
1.12089
1.12686
1.13344
1.14064
1.14846
1.1569
1.16596
1.17564
1.18595
1.19688
1.40909
1.39236
1.37636
1.36106
1.34645
1.33256
1.31937
1.3069
1.29515
1.28412
1.27379
1.26418
1.25527
1.24706
1.23957
1.23276
1.22666
1.22124
1.21651
1.21246
1.2091
1.20641
1.20439
1.20305
1.20237
1.20237
1.20305
1.20439
1.20641
1.2091
1.21247
1.21652
1.22125
1.22666
1.23276
1.23956
1.24706
1.25526
1.26417
1.27379
1.28411
1.29515
1.30691
1.31937
1.33255
1.57082
1.55157
1.53316
1.51554
1.49874
1.48275
1.46757
1.45323
1.43971
1.42702
1.41514
1.40408
1.39384
1.38441
1.37579
1.36797
1.36095
1.35473
1.34929
1.34464
1.34077
1.33768
1.33537
1.33382
1.33305
1.33305
1.33382
1.33537
1.33768
1.34077
1.34465
1.3493
1.35473
1.36095
1.36797
1.37578
1.38441
1.39384
1.40408
1.41514
1.42702
1.43971
1.45323
1.46758
1.48275
1.76902
1.74668
1.7253
1.70486
1.68535
1.66678
1.64917
1.63252
1.61683
1.60209
1.58831
1.57547
1.56358
1.55263
1.54263
1.53356
1.52541
1.51819
1.51189
1.50649
1.50201
1.49842
1.49574
1.49395
1.49305
1.49305
1.49394
1.49573
1.49842
1.50201
1.5065
1.5119
1.5182
1.52542
1.53356
1.54263
1.55264
1.56358
1.57547
1.58831
1.60209
1.61683
1.63253
1.64918
1.66679
2.01502
1.98887
1.96385
1.9399
1.91705
1.8953
1.87467
1.85516
1.83678
1.81952
1.80336
1.78832
1.77439
1.76157
1.74984
1.73921
1.72967
1.72121
1.71382
1.7075
1.70225
1.69805
1.6949
1.6928
1.69175
1.69175
1.6928
1.6949
1.69805
1.70225
1.70751
1.71384
1.72122
1.72968
1.73922
1.74985
1.76157
1.77439
1.78833
1.80337
1.81952
1.83679
1.85518
1.87468
1.89531
1.91707
2.32468
2.29378
2.26419
2.23588
2.20886
2.18314
2.15874
2.13566
2.11391
2.09349
2.07437
2.05658
2.04009
2.02491
2.01103
1.99845
1.98715
1.97714
1.9684
1.96092
1.9547
1.94973
1.94601
1.94352
1.94228
1.94228
1.94352
1.946
1.94973
1.95471
1.96093
1.96842
1.97716
1.98717
1.99846
2.01104
2.02491
2.04009
2.05658
2.07438
2.09349
2.11393
2.13568
2.15875
2.18315
2.20887
2.72055
2.68365
2.64832
2.6145
2.58221
2.55147
2.52229
2.4947
2.4687
2.44427
2.42142
2.40013
2.3804
2.36224
2.34563
2.33058
2.31706
2.30508
2.29462
2.28567
2.27823
2.27228
2.26783
2.26485
2.26336
2.26336
2.26485
2.26782
2.27228
2.27824
2.28569
2.29465
2.30511
2.31708
2.33059
2.34564
2.36225
2.38041
2.40014
2.42143
2.44428
2.46872
2.49473
2.52231
2.55148
2.58222
2.61452
3.23575
3.19117
3.14846
3.10756
3.06851
3.03133
2.99604
2.96265
2.93118
2.90162
2.87395
2.84817
2.82428
2.80229
2.78218
2.76394
2.74756
2.73305
2.72038
2.70954
2.70052
2.69332
2.68792
2.68432
2.68252
2.68251
2.68431
2.68792
2.69332
2.70054
2.70957
2.72042
2.73309
2.7476
2.76396
2.78219
2.8023
2.8243
2.84819
2.87396
2.90163
2.93121
2.96269
2.99607
3.03135
3.06853
3.10758
3.92043
3.86579
3.81343
3.76328
3.71539
3.66978
3.62647
3.5855
3.54687
3.51058
3.47661
3.44495
3.41561
3.38859
3.36389
3.34148
3.32136
3.30353
3.28796
3.27464
3.26356
3.25471
3.24807
3.24364
3.24143
3.24143
3.24364
3.24806
3.25471
3.26358
3.27468
3.28801
3.30358
3.32141
3.34151
3.36391
3.38861
3.41563
3.44497
3.47663
3.5106
3.54691
3.58555
3.62651
3.6698
3.71541
3.7633
4.85343
4.78532
4.72002
4.65748
4.59773
4.54082
4.48677
4.43563
4.3874
4.34209
4.29966
4.26011
4.22346
4.1897
4.15883
4.13082
4.10568
4.08339
4.06392
4.04727
4.03343
4.02236
4.01407
4.00853
4.00576
4.00576
4.00852
4.01406
4.02237
4.03345
4.04733
4.06399
4.08346
4.10574
4.13087
4.15886
4.18973
4.22349
4.26014
4.29969
4.34212
4.38746
4.43569
4.48682
4.54085
4.59775
4.6575
6.16447
6.07776
5.99461
5.91495
5.83883
5.7663
5.69741
5.63222
5.57073
5.51294
5.45882
5.40838
5.36161
5.31853
5.27913
5.24338
5.21129
5.18283
5.15799
5.13673
5.11906
5.10493
5.09433
5.08727
5.08373
5.08372
5.08725
5.09432
5.10493
5.11909
5.13681
5.15808
5.18293
5.21137
5.24345
5.27917
5.31857
5.36165
5.40842
5.45886
5.51298
5.5708
5.6323
5.69748
5.76634
5.83885
5.91497
8.07888
7.96554
7.8568
7.75259
7.65301
7.5581
7.46793
7.38258
7.30207
7.22639
7.1555
7.08941
7.02812
6.97167
6.92004
6.87317
6.8311
6.7938
6.76122
6.73335
6.71017
6.69165
6.67775
6.66848
6.66384
6.66384
6.66846
6.67773
6.69165
6.71022
6.73345
6.76135
6.79393
6.83121
6.87326
6.92009
6.97172
7.02818
7.08946
7.15555
7.22644
7.30216
7.38269
7.46802
7.55815
7.65304
7.75262
7.85688
11.0154
10.862
10.7148
10.5738
10.4389
10.3104
10.1882
10.0726
9.96348
9.86089
9.76478
9.67515
9.59204
9.51546
9.44541
9.38182
9.32473
9.2741
9.22989
9.19205
9.16059
9.13544
9.11658
9.104
9.0977
9.09769
9.10397
9.11656
9.13545
9.16065
9.1922
9.23007
9.27428
9.32488
9.38194
9.44548
9.51553
9.59211
9.67523
9.76485
9.86096
9.9636
10.0727
10.1884
10.3105
10.439
10.5738
10.7149
15.8211
15.604
15.3955
15.1957
15.0045
14.8223
14.6491
14.485
14.3302
14.1846
14.0482
13.921
13.8029
13.6942
13.5946
13.5043
13.4232
13.3512
13.2884
13.2346
13.1899
13.1541
13.1273
13.1094
13.1005
13.1005
13.1094
13.1273
13.1541
13.19
13.2348
13.2886
13.3515
13.4234
13.5045
13.5948
13.6943
13.803
13.9211
14.0483
14.1847
14.3304
14.4853
14.6493
14.8224
15.0046
15.1957
15.3956
24.4135
24.0863
23.772
23.4705
23.182
22.9069
22.6453
22.3975
22.1635
21.9434
21.7371
21.5446
21.366
21.2014
21.0508
20.914
20.7912
20.6822
20.587
20.5055
20.4378
20.3836
20.3429
20.3158
20.3023
20.3022
20.3158
20.3429
20.3836
20.4379
20.5058
20.5874
20.6826
20.7915
20.9143
21.051
21.2016
21.3662
21.5448
21.7372
21.9436
22.1638
22.3978
22.6456
22.9071
23.1821
23.4705
23.7721
41.849
41.3095
40.7908
40.2931
39.8167
39.362
38.9294
38.5194
38.1322
37.7677
37.4259
37.107
36.8109
36.5379
36.288
36.061
35.8571
35.6761
35.5181
35.3827
35.2702
35.1801
35.1126
35.0675
35.045
35.045
35.0674
35.1125
35.1802
35.2704
35.3832
35.5187
35.6768
35.8576
36.0614
36.2883
36.5382
36.8112
37.1073
37.4262
37.768
38.1326
38.5199
38.9298
39.3622
39.8168
40.2932
40.791
84.7438
83.7246
82.7438
81.8016
80.899
80.0368
79.2158
78.4371
77.701
77.0078
76.3572
75.7496
75.1853
74.6647
74.1879
73.7546
73.3652
73.0195
72.7174
72.4586
72.2434
72.0712
71.942
71.8558
71.8127
71.8126
71.8556
71.9419
72.0713
72.2438
72.4596
72.7186
73.0208
73.3662
73.7555
74.1884
74.6653
75.1859
75.7502
76.3577
77.0082
77.7019
78.4381
79.2166
80.0372
80.8993
81.8018
82.7442
229.855
227.461
225.152
222.931
220.8
218.761
216.817
214.97
213.222
211.573
210.024
208.576
207.229
205.985
204.845
203.808
202.875
202.047
201.322
200.701
200.184
199.771
199.46
199.253
199.15
199.149
199.253
199.46
199.771
200.185
200.703
201.325
202.05
202.878
203.81
204.846
205.986
207.23
208.577
210.025
211.574
213.224
214.972
216.819
218.762
220.801
222.932
225.153
1110.67
1102.84
1095.26
1087.94
1080.89
1074.13
1067.67
1061.51
1055.66
1050.13
1044.92
1040.04
1035.49
1031.28
1027.41
1023.89
1020.72
1017.89
1015.42
1013.3
1011.54
1010.12
1009.06
1008.35
1007.99
1007.99
1008.35
1009.06
1010.12
1011.54
1013.31
1015.43
1017.91
1020.73
1023.9
1027.42
1031.29
1035.49
1040.04
1044.92
1050.13
1055.66
1061.51
1067.67
1074.14
1080.9
1087.94
1095.26
0.287383
0.296629
0.306313
0.316464
0.327114
0.338298
0.350054
0.362425
0.375457
0.389204
0.403723
0.419084
0.435361
0.452645
0.471036
0.490654
0.51164
0.53416
0.558416
0.584649
0.613157
0.644322
0.678598
0.716494
0.75864
0.805826
0.85905
0.919588
0.989071
1.0696
1.1639
1.27551
1.40909
1.57082
1.76901
2.01502
2.32467
2.72054
3.23575
3.92042
4.85341
6.16445
8.07886
11.0153
15.821
24.4135
41.8488
84.7436
229.854
1110.67
0.284818
0.293983
0.303584
0.313648
0.324207
0.335296
0.346952
0.359217
0.372139
0.385769
0.400165
0.415395
0.431532
0.448666
0.466894
0.486336
0.50713
0.529438
0.553457
0.579425
0.607633
0.638452
0.672328
0.709771
0.751397
0.797981
0.850501
0.910209
0.978706
1.05806
1.15094
1.26084
1.39235
1.55156
1.74667
1.98886
2.29376
2.68364
3.19115
3.86576
4.78528
6.07771
7.96547
10.8619
15.6038
24.0861
41.3091
83.7239
227.459
1102.83
0.282366
0.291454
0.300975
0.310955
0.321427
0.332425
0.343986
0.356151
0.368968
0.382486
0.396765
0.411869
0.427874
0.444863
0.462937
0.482211
0.502821
0.524926
0.54872
0.574435
0.602355
0.632843
0.666338
0.703348
0.744477
0.790486
0.842334
0.901248
0.968803
1.04703
1.13856
1.24683
1.37636
1.53315
1.72529
1.96383
2.26417
2.64829
3.14842
3.81338
4.71997
5.99454
7.8567
10.7147
15.3953
23.7717
40.7903
82.7429
225.15
1095.25
0.280017
0.289032
0.298476
0.308376
0.318764
0.329674
0.341143
0.353212
0.365927
0.379338
0.393504
0.408488
0.424364
0.441216
0.459141
0.478253
0.498686
0.520596
0.544174
0.569646
0.597291
0.627461
0.660591
0.697186
0.737841
0.783299
0.834505
0.892663
0.95932
1.03647
1.12671
1.23342
1.36105
1.51554
1.70485
1.93989
2.23587
2.61447
3.10753
3.76324
4.65743
5.91488
7.7525
10.5737
15.1955
23.4702
40.2926
81.8007
222.929
1087.93
0.277769
0.286714
0.296084
0.305907
0.316215
0.327041
0.338421
0.350398
0.363015
0.376323
0.390379
0.405247
0.420999
0.437718
0.4555
0.474456
0.494719
0.516442
0.539812
0.565052
0.592435
0.622302
0.655084
0.691284
0.731486
0.776422
0.827017
0.884456
0.950257
1.02639
1.11539
1.22062
1.34645
1.49873
1.68534
1.91704
2.20885
2.58219
3.06849
3.71537
4.5977
5.83878
7.65295
10.4389
15.0044
23.1819
39.8164
80.8984
220.799
1080.89
0.27562
0.284498
0.293798
0.303548
0.31378
0.324525
0.335822
0.34771
0.360234
0.373444
0.387396
0.402152
0.417785
0.434377
0.452021
0.470828
0.490928
0.512473
0.535645
0.560663
0.587795
0.617373
0.649823
0.685647
0.725419
0.769859
0.819875
0.876631
0.941622
1.01678
1.10462
1.20843
1.33255
1.48274
1.66678
1.8953
2.18314
2.55147
3.03133
3.66978
4.54082
5.7663
7.5581
10.3104
14.8223
22.9069
39.362
80.0368
218.761
1074.13
0.273569
0.282383
0.291616
0.301297
0.311456
0.322125
0.333341
0.345145
0.35758
0.370696
0.384548
0.399199
0.414719
0.43119
0.448704
0.46737
0.487315
0.50869
0.531674
0.556482
0.583378
0.612685
0.644824
0.680291
0.719655
0.763624
0.813092
0.869202
0.933425
1.00767
1.0944
1.19688
1.31937
1.46757
1.64917
1.87468
2.15875
2.52231
2.99606
3.6265
4.48681
5.69747
7.46801
10.1883
14.6492
22.6455
38.9298
79.2165
216.819
1067.67
0.271617
0.28037
0.28954
0.299155
0.309244
0.31984
0.33098
0.342703
0.355054
0.368081
0.381839
0.396389
0.411802
0.428158
0.445548
0.464081
0.483881
0.505096
0.527903
0.552515
0.579188
0.608243
0.640088
0.675216
0.714194
0.757717
0.806666
0.862165
0.925664
0.999038
1.08473
1.18594
1.3069
1.45323
1.63252
1.85517
2.13568
2.49473
2.96269
3.58555
4.4357
5.63231
7.3827
10.0728
14.4853
22.3978
38.52
78.4383
214.973
1061.51
0.269768
0.278463
0.287573
0.297124
0.307147
0.317674
0.328741
0.340388
0.352658
0.3656
0.379268
0.393723
0.409035
0.425282
0.442556
0.460963
0.480625
0.501689
0.52433
0.548755
0.57522
0.604037
0.635607
0.670417
0.709031
0.752135
0.800596
0.855521
0.918339
0.990899
1.07561
1.17563
1.29515
1.43971
1.61683
1.83679
2.11393
2.46873
2.93122
3.54693
4.38748
5.57083
7.3022
9.96366
14.3305
22.1639
38.1328
77.7023
213.225
1055.67
0.268022
0.276662
0.285714
0.295204
0.305164
0.315625
0.326622
0.338196
0.35039
0.363251
0.376834
0.391199
0.406415
0.422561
0.439725
0.458013
0.477546
0.498469
0.520954
0.545205
0.571474
0.600068
0.631379
0.66589
0.704164
0.746876
0.794881
0.84927
0.91145
0.983247
1.06704
1.16595
1.28411
1.42701
1.60209
1.81952
2.0935
2.4443
2.90165
3.51063
4.34215
5.51303
7.2265
9.86105
14.1849
21.9438
37.7683
77.0089
211.576
1050.14
0.266382
0.27497
0.283967
0.293401
0.303302
0.3137
0.324633
0.336139
0.348261
0.361047
0.374551
0.388832
0.403959
0.420008
0.437069
0.455245
0.474658
0.495448
0.517786
0.541875
0.56796
0.596346
0.627415
0.661648
0.699603
0.741949
0.789528
0.843415
0.905001
0.976086
1.05902
1.15689
1.27378
1.41514
1.58831
1.80338
2.0744
2.42145
2.874
3.47668
4.29975
5.45894
7.15566
9.76501
14.0485
21.7376
37.4268
76.3588
210.028
1044.93
0.264851
0.273391
0.282338
0.291719
0.301564
0.311905
0.322777
0.334219
0.346274
0.35899
0.372418
0.38662
0.401662
0.417622
0.434587
0.452659
0.471958
0.492625
0.514826
0.538762
0.564677
0.592868
0.623713
0.657687
0.695346
0.737351
0.784533
0.837955
0.898989
0.969413
1.05155
1.14846
1.26417
1.40409
1.57548
1.78835
2.05661
2.40018
2.84825
3.44506
4.26025
5.40856
7.08966
9.67551
13.9215
21.5454
37.1082
75.7521
208.581
1040.06
0.263427
0.271922
0.280823
0.290156
0.29995
0.310238
0.321054
0.332438
0.344431
0.357081
0.370441
0.384569
0.399533
0.415408
0.432283
0.450258
0.469451
0.490002
0.512075
0.53587
0.561625
0.589636
0.620272
0.654005
0.691391
0.733081
0.779898
0.83289
0.893413
0.963227
1.04463
1.14064
1.25527
1.39385
1.5636
1.77443
2.04014
2.38048
2.82439
3.41576
4.22366
5.36188
7.02849
9.59254
13.8037
21.3671
36.8127
75.1888
207.237
1035.52
0.262114
0.270568
0.279425
0.288712
0.298458
0.308695
0.319458
0.330786
0.342721
0.355309
0.368604
0.382664
0.397555
0.413354
0.430146
0.448031
0.467128
0.487573
0.509529
0.533194
0.558804
0.586649
0.617094
0.650606
0.68774
0.729141
0.775621
0.828218
0.888273
0.957526
1.03825
1.13344
1.24707
1.38442
1.55267
1.76161
2.02498
2.36234
2.80242
3.38877
4.18994
5.31885
6.97211
9.51606
13.695
21.2028
36.5401
74.6689
205.995
1031.31
0.26091
0.269325
0.278142
0.287388
0.29709
0.307282
0.317997
0.329274
0.341156
0.353688
0.366924
0.380921
0.395745
0.411472
0.428187
0.445991
0.464997
0.485345
0.507194
0.530739
0.556215
0.583908
0.614177
0.647487
0.684391
0.725528
0.771701
0.823937
0.883564
0.952304
1.03241
1.12686
1.23957
1.3758
1.54266
1.74989
2.01111
2.34574
2.78232
3.36409
4.15909
5.27949
6.92051
9.44607
13.5956
21.0522
36.2904
74.1925
204.856
1027.45
0.259812
0.268193
0.276974
0.286182
0.295845
0.305995
0.316667
0.327899
0.339733
0.352215
0.365398
0.379338
0.394103
0.409765
0.426412
0.44414
0.463066
0.483325
0.505077
0.528514
0.553869
0.581426
0.61154
0.644669
0.681362
0.722258
0.768151
0.82006
0.879298
0.947574
1.02712
1.12089
1.23277
1.36799
1.53359
1.73927
1.99853
2.3307
2.7641
3.34171
4.13112
5.24379
6.87373
9.38258
13.5054
20.9157
36.0638
73.7599
203.821
1023.93
0.258822
0.267172
0.27592
0.285092
0.294719
0.304831
0.315464
0.326654
0.338444
0.35088
0.364014
0.377904
0.392614
0.408219
0.424804
0.442466
0.46132
0.4815
0.503166
0.526507
0.551755
0.579191
0.609166
0.642133
0.678639
0.719318
0.76496
0.816575
0.875465
0.943324
1.02237
1.11553
1.22666
1.36097
1.52545
1.72973
1.98724
2.31718
2.74773
3.32159
4.10598
5.21169
6.83165
9.32549
13.4243
20.7928
35.8598
73.3704
202.888
1020.76
0.25794
0.266261
0.27498
0.284122
0.293717
0.303796
0.314394
0.325548
0.3373
0.349696
0.362787
0.376631
0.391293
0.406846
0.423375
0.440978
0.459767
0.479877
0.501465
0.52472
0.549872
0.5772
0.607052
0.639875
0.676214
0.716702
0.762122
0.813477
0.872058
0.939549
1.01815
1.11077
1.22125
1.35474
1.51822
1.72126
1.97722
2.30519
2.7332
3.30373
4.08366
5.1832
6.7943
9.27479
13.3522
20.6837
35.6786
73.0243
202.058
1017.93
0.25717
0.265467
0.27416
0.283275
0.292842
0.302892
0.313458
0.32458
0.336298
0.348658
0.361711
0.375516
0.390135
0.405644
0.422125
0.439676
0.45841
0.478458
0.499978
0.523159
0.548228
0.575462
0.605206
0.637904
0.674097
0.714418
0.759645
0.810772
0.869084
0.936253
1.01447
1.10661
1.21652
1.3493
1.51191
1.71387
1.96847
2.29472
2.72051
3.28814
4.06417
5.15832
6.76167
9.23051
13.2893
20.5884
35.5203
72.7217
201.332
1015.46
0.256511
0.264787
0.273458
0.28255
0.292093
0.302118
0.312658
0.323752
0.335441
0.347771
0.360792
0.374562
0.389146
0.404615
0.421055
0.438561
0.457246
0.477241
0.498704
0.521821
0.546818
0.573971
0.603623
0.636214
0.672283
0.712461
0.757522
0.808455
0.866537
0.933431
1.01131
1.10305
1.21247
1.34465
1.50652
1.70754
1.96098
2.28576
2.70966
3.2748
4.04749
5.13703
6.73375
9.19261
13.2354
20.5067
35.3848
72.4625
200.71
1013.33
0.255964
0.264222
0.272874
0.281948
0.29147
0.301474
0.311992
0.323062
0.334726
0.34703
0.360024
0.373766
0.388319
0.403756
0.420162
0.437631
0.456275
0.476227
0.497642
0.520706
0.545643
0.572729
0.602304
0.634805
0.67077
0.710828
0.755752
0.806523
0.864414
0.931079
1.00869
1.10009
1.2091
1.34078
1.50203
1.70228
1.95475
2.2783
2.70063
3.2637
4.03362
5.11931
6.71051
9.16107
13.1906
20.4388
35.2719
72.2467
200.192
1011.56
0.255526
0.263771
0.272409
0.281467
0.290973
0.30096
0.311461
0.322513
0.334157
0.346441
0.359413
0.373131
0.387659
0.40307
0.419447
0.436886
0.455499
0.475415
0.496792
0.519813
0.544703
0.571735
0.601248
0.633678
0.669561
0.709524
0.754337
0.80498
0.862719
0.929202
1.00659
1.09773
1.20641
1.33769
1.49844
1.69808
1.94977
2.27235
2.69341
3.25483
4.02253
5.10515
6.69195
9.13586
13.1547
20.3845
35.1817
72.0741
199.778
1010.14
0.255197
0.263431
0.272058
0.281105
0.2906
0.300574
0.311061
0.322099
0.33373
0.345997
0.358954
0.372655
0.387165
0.402557
0.418913
0.436329
0.454917
0.474806
0.496153
0.519141
0.543995
0.570986
0.600453
0.63283
0.66865
0.708542
0.753273
0.80382
0.861445
0.927791
1.00501
1.09595
1.20439
1.33537
1.49575
1.69492
1.94604
2.26788
2.688
3.24818
4.01421
5.09453
6.67802
9.11695
13.1278
20.3438
35.114
71.9446
199.467
1009.08
0.254978
0.263205
0.271825
0.280863
0.29035
0.300316
0.310794
0.321823
0.333444
0.345701
0.358646
0.372336
0.386834
0.402212
0.418555
0.435956
0.454528
0.4744
0.495728
0.518695
0.543525
0.570489
0.599926
0.632266
0.668045
0.70789
0.752567
0.803049
0.860598
0.926853
1.00397
1.09477
1.20304
1.33382
1.49396
1.69283
1.94356
2.26491
2.6844
3.24375
4.00867
5.08746
6.66875
9.10437
13.11
20.3166
35.0689
71.8584
199.259
1008.37
0.254868