/*--------------------------------*- C++ -*----------------------------------*\
  =========                 |
  \\      /  F ield         | OpenFOAM: The Open Source CFD Toolbox
   \\    /   O peration     | Website:  https://openfoam.org
    \\  /    A nd           | Version:  7
     \\/     M anipulation  |
\*---------------------------------------------------------------------------*/
FoamFile
{
    version     2.0;
    format      ascii;
    class       volScalarField;
    location    "164000";
    object      p;
}
// * * * * * * * * * * * * * * * * * * * * * * * * * * * * * * * * * * * * * //

dimensions      [0 2 -2 0 0 0 0];

internalField   nonuniform List<scalar> 
4814
(
-1.2725e-18
-1.26477e-18
-1.26495e-18
-1.25912e-18
-1.30274e-18
-1.29978e-18
-1.2914e-18
-1.27912e-18
-1.2794e-18
-1.27308e-18
-1.28197e-18
-1.27812e-18
-1.27951e-18
-1.27614e-18
-1.28898e-18
-1.27468e-18
-1.27562e-18
-1.26517e-18
-1.27485e-18
-1.26195e-18
-1.26825e-18
-1.257e-18
-1.26064e-18
-1.24962e-18
-1.25575e-18
-1.24348e-18
-1.24523e-18
-1.23438e-18
-1.23461e-18
-1.23035e-18
-1.23349e-18
-1.2238e-18
-1.22242e-18
-1.21799e-18
-1.21654e-18
-1.21618e-18
-1.22902e-18
-1.22683e-18
-1.30744e-18
-1.29635e-18
-1.29213e-18
-1.27476e-18
-1.28028e-18
-1.28008e-18
-1.27747e-18
-1.27462e-18
-1.2817e-18
-1.27464e-18
-1.28906e-18
-1.26971e-18
-1.28076e-18
-1.26761e-18
-1.27515e-18
-1.26119e-18
-1.26793e-18
-1.25728e-18
-1.2595e-18
-1.24936e-18
-1.25629e-18
-1.24468e-18
-1.24494e-18
-1.23386e-18
-1.23195e-18
-1.23044e-18
-1.23451e-18
-1.22391e-18
-1.21978e-18
-1.21767e-18
-1.21901e-18
-1.21694e-18
-1.22789e-18
-1.22721e-18
-1.23606e-18
-1.22528e-18
-1.23124e-18
-1.22725e-18
-1.23768e-18
-1.23596e-18
-1.23473e-18
-1.30543e-18
-1.29829e-18
-1.28923e-18
-1.27323e-18
-1.28002e-18
-1.27894e-18
-1.27794e-18
-1.27519e-18
-1.27754e-18
-1.27597e-18
-1.28726e-18
-1.27027e-18
-1.28386e-18
-1.26724e-18
-1.27171e-18
-1.26006e-18
-1.26651e-18
-1.25421e-18
-1.25933e-18
-1.24841e-18
-1.25603e-18
-1.2461e-18
-1.24442e-18
-1.2342e-18
-1.23355e-18
-1.22961e-18
-1.23229e-18
-1.22398e-18
-1.22018e-18
-1.21794e-18
-1.21996e-18
-1.21792e-18
-1.22923e-18
-1.22783e-18
-1.23629e-18
-1.22668e-18
-1.2361e-18
-1.22333e-18
-1.24061e-18
-1.23802e-18
-1.23548e-18
-1.23766e-18
-1.25029e-18
-1.24834e-18
-1.29969e-18
-1.30075e-18
-1.28781e-18
-1.27828e-18
-1.28091e-18
-1.27614e-18
-1.28404e-18
-1.27854e-18
-1.27603e-18
-1.28121e-18
-1.2862e-18
-1.27382e-18
-1.27813e-18
-1.26621e-18
-1.27219e-18
-1.25886e-18
-1.2658e-18
-1.25315e-18
-1.2575e-18
-1.25119e-18
-1.25615e-18
-1.2451e-18
-1.24308e-18
-1.23332e-18
-1.23483e-18
-1.22758e-18
-1.23135e-18
-1.22402e-18
-1.22115e-18
-1.21847e-18
-1.21945e-18
-1.21968e-18
-1.23001e-18
-1.2278e-18
-1.23719e-18
-1.22767e-18
-1.23491e-18
-1.23172e-18
-1.23813e-18
-1.23803e-18
-1.23647e-18
-1.24153e-18
-1.24569e-18
-1.2449e-18
-1.30235e-18
-1.2973e-18
-1.28991e-18
-1.27748e-18
-1.28291e-18
-1.27088e-18
-1.28236e-18
-1.27408e-18
-1.27896e-18
-1.27937e-18
-1.28664e-18
-1.2761e-18
-1.27568e-18
-1.26681e-18
-1.27784e-18
-1.26071e-18
-1.26349e-18
-1.25518e-18
-1.25747e-18
-1.25072e-18
-1.25577e-18
-1.24723e-18
-1.24324e-18
-1.2324e-18
-1.23441e-18
-1.22813e-18
-1.23047e-18
-1.22376e-18
-1.22066e-18
-1.21869e-18
-1.21953e-18
-1.21907e-18
-1.22941e-18
-1.22971e-18
-1.23475e-18
-1.22545e-18
-1.23096e-18
-1.23397e-18
-1.23967e-18
-1.2386e-18
-1.23908e-18
-1.23976e-18
-1.24783e-18
-1.24682e-18
-1.30184e-18
-1.29421e-18
-1.28829e-18
-1.27901e-18
-1.27986e-18
-1.27661e-18
-1.28241e-18
-1.27208e-18
-1.2851e-18
-1.27835e-18
-1.28742e-18
-1.27471e-18
-1.27746e-18
-1.26786e-18
-1.2749e-18
-1.25965e-18
-1.26545e-18
-1.25377e-18
-1.25888e-18
-1.2488e-18
-1.25491e-18
-1.24593e-18
-1.24511e-18
-1.23284e-18
-1.23375e-18
-1.22947e-18
-1.23079e-18
-1.22263e-18
-1.2213e-18
-1.22057e-18
-1.21736e-18
-1.21871e-18
-1.23054e-18
-1.22878e-18
-1.23604e-18
-1.22819e-18
-1.22849e-18
-1.23176e-18
-1.2401e-18
-1.23778e-18
-1.23999e-18
-1.23448e-18
-1.2497e-18
-1.24658e-18
-1.30061e-18
-1.29835e-18
-1.29085e-18
-1.27942e-18
-1.27821e-18
-1.27669e-18
-1.28122e-18
-1.27427e-18
-1.28085e-18
-1.27863e-18
-1.28854e-18
-1.27544e-18
-1.28274e-18
-1.26477e-18
-1.27187e-18
-1.26015e-18
-1.2631e-18
-1.25231e-18
-1.25869e-18
-1.24931e-18
-1.25577e-18
-1.24572e-18
-1.24424e-18
-1.23321e-18
-1.23313e-18
-1.23021e-18
-1.23004e-18
-1.22123e-18
-1.2211e-18
-1.21913e-18
-1.21797e-18
-1.21967e-18
-1.23035e-18
-1.23027e-18
-1.23546e-18
-1.23057e-18
-1.23309e-18
-1.2328e-18
-1.24003e-18
-1.23563e-18
-1.2372e-18
-1.23718e-18
-1.24895e-18
-1.24664e-18
-1.25705e-18
-1.29867e-18
-1.29816e-18
-1.29235e-18
-1.27701e-18
-1.28066e-18
-1.27444e-18
-1.28137e-18
-1.27686e-18
-1.27906e-18
-1.27937e-18
-1.29025e-18
-1.27371e-18
-1.27881e-18
-1.26507e-18
-1.274e-18
-1.25925e-18
-1.26644e-18
-1.25428e-18
-1.25831e-18
-1.25054e-18
-1.25562e-18
-1.24494e-18
-1.24452e-18
-1.23379e-18
-1.23335e-18
-1.23172e-18
-1.22988e-18
-1.22304e-18
-1.22037e-18
-1.21852e-18
-1.21747e-18
-1.22003e-18
-1.23047e-18
-1.22772e-18
-1.23415e-18
-1.22704e-18
-1.23284e-18
-1.23247e-18
-1.2442e-18
-1.23403e-18
-1.23655e-18
-1.24029e-18
-1.24777e-18
-1.24588e-18
-1.26084e-18
-1.29726e-18
-1.29849e-18
-1.29128e-18
-1.27828e-18
-1.2816e-18
-1.27194e-18
-1.27957e-18
-1.27433e-18
-1.27984e-18
-1.27904e-18
-1.28771e-18
-1.27654e-18
-1.27609e-18
-1.27042e-18
-1.27438e-18
-1.26009e-18
-1.26719e-18
-1.25561e-18
-1.26137e-18
-1.25195e-18
-1.25475e-18
-1.24466e-18
-1.24326e-18
-1.23353e-18
-1.2333e-18
-1.23031e-18
-1.2308e-18
-1.22348e-18
-1.21992e-18
-1.2187e-18
-1.21775e-18
-1.21775e-18
-1.22831e-18
-1.22753e-18
-1.23111e-18
-1.2256e-18
-1.22901e-18
-1.23286e-18
-1.24095e-18
-1.23827e-18
-1.23819e-18
-1.24002e-18
-1.24941e-18
-1.24908e-18
-1.26195e-18
-1.2981e-18
-1.29538e-18
-1.29001e-18
-1.28043e-18
-1.2799e-18
-1.27406e-18
-1.28005e-18
-1.27305e-18
-1.28187e-18
-1.27942e-18
-1.2853e-18
-1.27576e-18
-1.2772e-18
-1.26982e-18
-1.27457e-18
-1.26083e-18
-1.269e-18
-1.25353e-18
-1.26009e-18
-1.24996e-18
-1.25447e-18
-1.24538e-18
-1.24488e-18
-1.23324e-18
-1.23326e-18
-1.22918e-18
-1.23019e-18
-1.22286e-18
-1.21794e-18
-1.21913e-18
-1.21956e-18
-1.21904e-18
-1.22954e-18
-1.22606e-18
-1.23222e-18
-1.22644e-18
-1.2298e-18
-1.23273e-18
-1.23906e-18
-1.24016e-18
-1.23855e-18
-1.23924e-18
-1.25081e-18
-1.24922e-18
-1.26074e-18
-1.29568e-18
-1.29502e-18
-1.29089e-18
-1.28097e-18
-1.28132e-18
-1.27645e-18
-1.28236e-18
-1.27485e-18
-1.28124e-18
-1.27855e-18
-1.28373e-18
-1.27618e-18
-1.27612e-18
-1.26821e-18
-1.26966e-18
-1.26073e-18
-1.26791e-18
-1.25489e-18
-1.2604e-18
-1.24871e-18
-1.25475e-18
-1.24554e-18
-1.24351e-18
-1.23265e-18
-1.23324e-18
-1.22905e-18
-1.23163e-18
-1.22325e-18
-1.21847e-18
-1.2198e-18
-1.21983e-18
-1.21901e-18
-1.22758e-18
-1.2273e-18
-1.23508e-18
-1.2309e-18
-1.2313e-18
-1.23308e-18
-1.23967e-18
-1.23885e-18
-1.24034e-18
-1.24036e-18
-1.24934e-18
-1.24597e-18
-1.30094e-18
-1.29786e-18
-1.28881e-18
-1.28077e-18
-1.28032e-18
-1.27446e-18
-1.2814e-18
-1.27633e-18
-1.27843e-18
-1.2812e-18
-1.28509e-18
-1.27419e-18
-1.27701e-18
-1.26589e-18
-1.26971e-18
-1.26153e-18
-1.26522e-18
-1.25373e-18
-1.26101e-18
-1.2496e-18
-1.25557e-18
-1.24494e-18
-1.24221e-18
-1.23326e-18
-1.23373e-18
-1.22988e-18
-1.23113e-18
-1.22338e-18
-1.21994e-18
-1.21997e-18
-1.22009e-18
-1.21846e-18
-1.22883e-18
-1.22872e-18
-1.23502e-18
-1.23212e-18
-1.23539e-18
-1.23459e-18
-1.24361e-18
-1.23829e-18
-1.2375e-18
-1.24271e-18
-1.24726e-18
-1.2506e-18
-1.30138e-18
-1.29888e-18
-1.28822e-18
-1.27599e-18
-1.28249e-18
-1.27461e-18
-1.283e-18
-1.27581e-18
-1.28094e-18
-1.28023e-18
-1.28635e-18
-1.27451e-18
-1.28e-18
-1.26904e-18
-1.27214e-18
-1.26249e-18
-1.26361e-18
-1.25417e-18
-1.26074e-18
-1.2504e-18
-1.25548e-18
-1.24504e-18
-1.24239e-18
-1.23405e-18
-1.23327e-18
-1.23019e-18
-1.23043e-18
-1.22443e-18
-1.21946e-18
-1.21943e-18
-1.21988e-18
-1.2193e-18
-1.22963e-18
-1.22867e-18
-1.2343e-18
-1.23048e-18
-1.23322e-18
-1.23267e-18
-1.24323e-18
-1.23726e-18
-1.23826e-18
-1.24055e-18
-1.2492e-18
-1.2486e-18
-1.29905e-18
-1.2955e-18
-1.28798e-18
-1.27875e-18
-1.28171e-18
-1.2769e-18
-1.28185e-18
-1.27339e-18
-1.28185e-18
-1.27793e-18
-1.28506e-18
-1.27454e-18
-1.2796e-18
-1.26844e-18
-1.27295e-18
-1.26362e-18
-1.26447e-18
-1.25683e-18
-1.25869e-18
-1.25159e-18
-1.2543e-18
-1.24488e-18
-1.24189e-18
-1.2334e-18
-1.23284e-18
-1.23024e-18
-1.23024e-18
-1.22406e-18
-1.22013e-18
-1.2189e-18
-1.21853e-18
-1.21961e-18
-1.22746e-18
-1.22757e-18
-1.23238e-18
-1.23012e-18
-1.2326e-18
-1.23301e-18
-1.24269e-18
-1.23634e-18
-1.24067e-18
-1.24097e-18
-1.24903e-18
-1.24899e-18
-1.29876e-18
-1.29244e-18
-1.28963e-18
-1.27929e-18
-1.28256e-18
-1.2759e-18
-1.27992e-18
-1.27721e-18
-1.28191e-18
-1.27695e-18
-1.28452e-18
-1.27517e-18
-1.27706e-18
-1.26527e-18
-1.27446e-18
-1.26158e-18
-1.26523e-18
-1.25961e-18
-1.26008e-18
-1.25092e-18
-1.25309e-18
-1.24492e-18
-1.24357e-18
-1.23308e-18
-1.23197e-18
-1.22905e-18
-1.23019e-18
-1.22347e-18
-1.22009e-18
-1.21827e-18
-1.21844e-18
-1.21922e-18
-1.22583e-18
-1.22727e-18
-1.23475e-18
-1.22886e-18
-1.23574e-18
-1.23518e-18
-1.23981e-18
-1.23596e-18
-1.24227e-18
-1.24104e-18
-1.24845e-18
-1.25077e-18
-1.29758e-18
-1.29633e-18
-1.28789e-18
-1.28253e-18
-1.283e-18
-1.27965e-18
-1.28025e-18
-1.27903e-18
-1.28399e-18
-1.27796e-18
-1.28468e-18
-1.27501e-18
-1.27954e-18
-1.26415e-18
-1.27288e-18
-1.26191e-18
-1.26481e-18
-1.25786e-18
-1.26028e-18
-1.2512e-18
-1.25292e-18
-1.24472e-18
-1.2426e-18
-1.23394e-18
-1.23157e-18
-1.22865e-18
-1.22897e-18
-1.22495e-18
-1.21995e-18
-1.21983e-18
-1.21966e-18
-1.2199e-18
-1.22935e-18
-1.22846e-18
-1.23193e-18
-1.22748e-18
-1.23646e-18
-1.2329e-18
-1.23938e-18
-1.23682e-18
-1.24227e-18
-1.23951e-18
-1.24781e-18
-1.25254e-18
-1.29703e-18
-1.29601e-18
-1.28749e-18
-1.28309e-18
-1.28135e-18
-1.27866e-18
-1.28329e-18
-1.27773e-18
-1.28462e-18
-1.27573e-18
-1.28408e-18
-1.27511e-18
-1.27694e-18
-1.26839e-18
-1.27319e-18
-1.26114e-18
-1.26622e-18
-1.25622e-18
-1.26008e-18
-1.25187e-18
-1.25481e-18
-1.24493e-18
-1.24137e-18
-1.23359e-18
-1.23278e-18
-1.22867e-18
-1.22885e-18
-1.22534e-18
-1.22074e-18
-1.21986e-18
-1.22073e-18
-1.22054e-18
-1.22859e-18
-1.22729e-18
-1.23434e-18
-1.22673e-18
-1.23314e-18
-1.2348e-18
-1.23992e-18
-1.24184e-18
-1.24372e-18
-1.23859e-18
-1.24921e-18
-1.24863e-18
-1.29704e-18
-1.29496e-18
-1.28785e-18
-1.28198e-18
-1.28275e-18
-1.27797e-18
-1.28305e-18
-1.27643e-18
-1.28133e-18
-1.27758e-18
-1.28334e-18
-1.27388e-18
-1.27767e-18
-1.26853e-18
-1.27344e-18
-1.26257e-18
-1.26642e-18
-1.25837e-18
-1.25972e-18
-1.25268e-18
-1.2539e-18
-1.24419e-18
-1.24318e-18
-1.23281e-18
-1.23313e-18
-1.22867e-18
-1.22978e-18
-1.22418e-18
-1.22118e-18
-1.21947e-18
-1.22096e-18
-1.22133e-18
-1.22646e-18
-1.22705e-18
-1.23317e-18
-1.22909e-18
-1.23296e-18
-1.23532e-18
-1.24225e-18
-1.24064e-18
-1.24218e-18
-1.24131e-18
-1.25042e-18
-1.24926e-18
-1.29724e-18
-1.29404e-18
-1.28986e-18
-1.2793e-18
-1.28056e-18
-1.27907e-18
-1.28341e-18
-1.27714e-18
-1.28094e-18
-1.28022e-18
-1.28276e-18
-1.27274e-18
-1.27958e-18
-1.26677e-18
-1.27314e-18
-1.26342e-18
-1.26694e-18
-1.25933e-18
-1.2602e-18
-1.25146e-18
-1.25406e-18
-1.24354e-18
-1.24326e-18
-1.23282e-18
-1.2331e-18
-1.22866e-18
-1.22911e-18
-1.22404e-18
-1.22161e-18
-1.21899e-18
-1.22167e-18
-1.22159e-18
-1.22797e-18
-1.2264e-18
-1.23217e-18
-1.2292e-18
-1.23553e-18
-1.23454e-18
-1.24221e-18
-1.24062e-18
-1.24069e-18
-1.24086e-18
-1.25028e-18
-1.2514e-18
-1.29645e-18
-1.29369e-18
-1.28941e-18
-1.2801e-18
-1.27726e-18
-1.27738e-18
-1.28269e-18
-1.27743e-18
-1.28289e-18
-1.28061e-18
-1.28449e-18
-1.27431e-18
-1.27706e-18
-1.26519e-18
-1.27157e-18
-1.26363e-18
-1.26719e-18
-1.25938e-18
-1.2604e-18
-1.25149e-18
-1.25405e-18
-1.24356e-18
-1.24328e-18
-1.23396e-18
-1.23298e-18
-1.22863e-18
-1.22877e-18
-1.22418e-18
-1.22222e-18
-1.21956e-18
-1.22084e-18
-1.22115e-18
-1.22735e-18
-1.22566e-18
-1.23141e-18
-1.23004e-18
-1.2371e-18
-1.23612e-18
-1.2406e-18
-1.23928e-18
-1.23887e-18
-1.24178e-18
-1.24998e-18
-1.25082e-18
-1.29535e-18
-1.2937e-18
-1.2869e-18
-1.28305e-18
-1.27986e-18
-1.27723e-18
-1.28149e-18
-1.27831e-18
-1.28274e-18
-1.27882e-18
-1.28474e-18
-1.27316e-18
-1.27749e-18
-1.26737e-18
-1.27065e-18
-1.26242e-18
-1.26691e-18
-1.25707e-18
-1.26127e-18
-1.25195e-18
-1.25306e-18
-1.24401e-18
-1.24266e-18
-1.2341e-18
-1.23306e-18
-1.22859e-18
-1.22929e-18
-1.22422e-18
-1.22169e-18
-1.22094e-18
-1.22124e-18
-1.22033e-18
-1.22751e-18
-1.22584e-18
-1.23061e-18
-1.23146e-18
-1.23616e-18
-1.23636e-18
-1.24178e-18
-1.23862e-18
-1.24098e-18
-1.24202e-18
-1.24918e-18
-1.25293e-18
-1.26561e-18
-1.29501e-18
-1.29405e-18
-1.2879e-18
-1.28108e-18
-1.28144e-18
-1.27673e-18
-1.28198e-18
-1.27853e-18
-1.28201e-18
-1.27811e-18
-1.28373e-18
-1.27174e-18
-1.27644e-18
-1.2682e-18
-1.27165e-18
-1.26434e-18
-1.26606e-18
-1.2575e-18
-1.26099e-18
-1.25272e-18
-1.25475e-18
-1.24388e-18
-1.24264e-18
-1.23403e-18
-1.23406e-18
-1.22862e-18
-1.22936e-18
-1.22416e-18
-1.22108e-18
-1.21948e-18
-1.22046e-18
-1.22176e-18
-1.22832e-18
-1.22708e-18
-1.22949e-18
-1.23132e-18
-1.23562e-18
-1.23595e-18
-1.24225e-18
-1.23928e-18
-1.24154e-18
-1.24216e-18
-1.2491e-18
-1.25281e-18
-1.26516e-18
-1.29403e-18
-1.29433e-18
-1.28952e-18
-1.28194e-18
-1.28068e-18
-1.27498e-18
-1.28264e-18
-1.27798e-18
-1.28266e-18
-1.27874e-18
-1.28296e-18
-1.27287e-18
-1.27854e-18
-1.26683e-18
-1.27179e-18
-1.26358e-18
-1.26595e-18
-1.25796e-18
-1.26057e-18
-1.25283e-18
-1.25415e-18
-1.24374e-18
-1.24272e-18
-1.23421e-18
-1.23372e-18
-1.22873e-18
-1.22918e-18
-1.2254e-18
-1.22197e-18
-1.21954e-18
-1.22093e-18
-1.22165e-18
-1.22878e-18
-1.228e-18
-1.23099e-18
-1.23057e-18
-1.23656e-18
-1.23546e-18
-1.2417e-18
-1.24058e-18
-1.24183e-18
-1.24144e-18
-1.25044e-18
-1.25158e-18
-1.26763e-18
-1.29476e-18
-1.29453e-18
-1.28921e-18
-1.28149e-18
-1.28153e-18
-1.27573e-18
-1.28315e-18
-1.27758e-18
-1.28234e-18
-1.27786e-18
-1.28153e-18
-1.27294e-18
-1.2783e-18
-1.26612e-18
-1.27188e-18
-1.26365e-18
-1.26671e-18
-1.25838e-18
-1.26129e-18
-1.25183e-18
-1.25487e-18
-1.24315e-18
-1.2429e-18
-1.23385e-18
-1.23299e-18
-1.22856e-18
-1.22918e-18
-1.22516e-18
-1.22241e-18
-1.21933e-18
-1.22246e-18
-1.22094e-18
-1.22765e-18
-1.22721e-18
-1.23029e-18
-1.23066e-18
-1.2365e-18
-1.23611e-18
-1.24177e-18
-1.2415e-18
-1.24235e-18
-1.24201e-18
-1.25128e-18
-1.25117e-18
-1.26772e-18
-1.29575e-18
-1.29272e-18
-1.28825e-18
-1.2818e-18
-1.28032e-18
-1.27664e-18
-1.28144e-18
-1.27811e-18
-1.28237e-18
-1.27708e-18
-1.283e-18
-1.27313e-18
-1.27748e-18
-1.26659e-18
-1.27136e-18
-1.26201e-18
-1.26739e-18
-1.25794e-18
-1.26104e-18
-1.2526e-18
-1.25486e-18
-1.2436e-18
-1.24262e-18
-1.23381e-18
-1.23263e-18
-1.22854e-18
-1.22936e-18
-1.22445e-18
-1.22226e-18
-1.2196e-18
-1.22218e-18
-1.22105e-18
-1.22827e-18
-1.22676e-18
-1.23106e-18
-1.23058e-18
-1.23685e-18
-1.23689e-18
-1.24074e-18
-1.23995e-18
-1.24333e-18
-1.24277e-18
-1.2518e-18
-1.25334e-18
-1.29519e-18
-1.2932e-18
-1.28898e-18
-1.28114e-18
-1.27996e-18
-1.27787e-18
-1.28144e-18
-1.27859e-18
-1.28271e-18
-1.27863e-18
-1.28393e-18
-1.27343e-18
-1.27833e-18
-1.26685e-18
-1.27074e-18
-1.26117e-18
-1.26669e-18
-1.25742e-18
-1.26176e-18
-1.25161e-18
-1.25334e-18
-1.24409e-18
-1.24197e-18
-1.23374e-18
-1.23275e-18
-1.22821e-18
-1.22924e-18
-1.22406e-18
-1.22227e-18
-1.22008e-18
-1.22285e-18
-1.22035e-18
-1.22835e-18
-1.22716e-18
-1.23265e-18
-1.23102e-18
-1.23728e-18
-1.2374e-18
-1.24083e-18
-1.23905e-18
-1.24331e-18
-1.24265e-18
-1.25105e-18
-1.25359e-18
-1.29527e-18
-1.29202e-18
-1.28852e-18
-1.28007e-18
-1.2799e-18
-1.27833e-18
-1.2828e-18
-1.27769e-18
-1.28184e-18
-1.27642e-18
-1.28167e-18
-1.2747e-18
-1.27926e-18
-1.26809e-18
-1.27144e-18
-1.26224e-18
-1.26665e-18
-1.25829e-18
-1.26167e-18
-1.251e-18
-1.25363e-18
-1.2435e-18
-1.24227e-18
-1.23359e-18
-1.23265e-18
-1.22854e-18
-1.22914e-18
-1.22444e-18
-1.22266e-18
-1.21978e-18
-1.22343e-18
-1.22054e-18
-1.22763e-18
-1.22716e-18
-1.2317e-18
-1.23127e-18
-1.23632e-18
-1.23576e-18
-1.24048e-18
-1.24035e-18
-1.24221e-18
-1.24338e-18
-1.25134e-18
-1.25305e-18
-1.29481e-18
-1.29148e-18
-1.28855e-18
-1.28137e-18
-1.28112e-18
-1.27775e-18
-1.28168e-18
-1.27748e-18
-1.28165e-18
-1.27766e-18
-1.28238e-18
-1.27457e-18
-1.2785e-18
-1.2665e-18
-1.27213e-18
-1.26288e-18
-1.26643e-18
-1.25882e-18
-1.26162e-18
-1.2516e-18
-1.2535e-18
-1.24362e-18
-1.24221e-18
-1.23321e-18
-1.2327e-18
-1.22828e-18
-1.22905e-18
-1.22471e-18
-1.22239e-18
-1.21998e-18
-1.22308e-18
-1.22085e-18
-1.2276e-18
-1.22758e-18
-1.23043e-18
-1.2315e-18
-1.238e-18
-1.23564e-18
-1.24065e-18
-1.24047e-18
-1.24116e-18
-1.24303e-18
-1.25136e-18
-1.25383e-18
-1.29468e-18
-1.29311e-18
-1.28852e-18
-1.28119e-18
-1.28171e-18
-1.27717e-18
-1.28237e-18
-1.27871e-18
-1.28194e-18
-1.27751e-18
-1.28322e-18
-1.27488e-18
-1.27875e-18
-1.26588e-18
-1.27195e-18
-1.26258e-18
-1.26631e-18
-1.2595e-18
-1.26201e-18
-1.25228e-18
-1.25327e-18
-1.24386e-18
-1.24259e-18
-1.23359e-18
-1.23249e-18
-1.22843e-18
-1.22864e-18
-1.22463e-18
-1.22254e-18
-1.22029e-18
-1.22275e-18
-1.22071e-18
-1.22793e-18
-1.22722e-18
-1.23065e-18
-1.23197e-18
-1.23836e-18
-1.23579e-18
-1.24089e-18
-1.24072e-18
-1.24187e-18
-1.24269e-18
-1.25114e-18
-1.25334e-18
-1.29496e-18
-1.29274e-18
-1.2885e-18
-1.28204e-18
-1.28156e-18
-1.27661e-18
-1.28207e-18
-1.27787e-18
-1.2818e-18
-1.27753e-18
-1.28335e-18
-1.27414e-18
-1.27896e-18
-1.26723e-18
-1.27091e-18
-1.26246e-18
-1.26668e-18
-1.25935e-18
-1.2615e-18
-1.25277e-18
-1.25321e-18
-1.24328e-18
-1.24263e-18
-1.23353e-18
-1.23289e-18
-1.22849e-18
-1.22891e-18
-1.22448e-18
-1.22288e-18
-1.22025e-18
-1.22231e-18
-1.22082e-18
-1.22761e-18
-1.22712e-18
-1.23093e-18
-1.23229e-18
-1.23738e-18
-1.23539e-18
-1.24177e-18
-1.24052e-18
-1.2418e-18
-1.24272e-18
-1.25218e-18
-1.25362e-18
-1.29605e-18
-1.29248e-18
-1.28978e-18
-1.28171e-18
-1.28147e-18
-1.27769e-18
-1.28168e-18
-1.2783e-18
-1.28174e-18
-1.27789e-18
-1.28279e-18
-1.27267e-18
-1.27817e-18
-1.26715e-18
-1.27142e-18
-1.26244e-18
-1.26644e-18
-1.25925e-18
-1.26147e-18
-1.25267e-18
-1.25335e-18
-1.24333e-18
-1.2427e-18
-1.23358e-18
-1.23277e-18
-1.22855e-18
-1.22911e-18
-1.2247e-18
-1.22295e-18
-1.21996e-18
-1.22227e-18
-1.22078e-18
-1.228e-18
-1.2274e-18
-1.23126e-18
-1.23178e-18
-1.23761e-18
-1.23543e-18
-1.24104e-18
-1.24092e-18
-1.24244e-18
-1.24255e-18
-1.25199e-18
-1.25412e-18
-1.29573e-18
-1.29313e-18
-1.28869e-18
-1.2813e-18
-1.28159e-18
-1.27772e-18
-1.28227e-18
-1.27776e-18
-1.28261e-18
-1.27737e-18
-1.28268e-18
-1.2728e-18
-1.27762e-18
-1.2664e-18
-1.27158e-18
-1.26217e-18
-1.26658e-18
-1.25989e-18
-1.26152e-18
-1.2526e-18
-1.2534e-18
-1.24342e-18
-1.24266e-18
-1.23379e-18
-1.23291e-18
-1.22864e-18
-1.22908e-18
-1.22467e-18
-1.22267e-18
-1.21972e-18
-1.22278e-18
-1.22108e-18
-1.22733e-18
-1.22735e-18
-1.231e-18
-1.23169e-18
-1.23855e-18
-1.23689e-18
-1.24105e-18
-1.24078e-18
-1.24272e-18
-1.24225e-18
-1.25167e-18
-1.25468e-18
-1.29448e-18
-1.29282e-18
-1.28767e-18
-1.28157e-18
-1.28116e-18
-1.27753e-18
-1.28229e-18
-1.27756e-18
-1.28194e-18
-1.277e-18
-1.28272e-18
-1.27272e-18
-1.27762e-18
-1.26706e-18
-1.27091e-18
-1.26199e-18
-1.26702e-18
-1.2592e-18
-1.26154e-18
-1.25191e-18
-1.25313e-18
-1.24315e-18
-1.24259e-18
-1.23375e-18
-1.23265e-18
-1.2289e-18
-1.22928e-18
-1.22486e-18
-1.2223e-18
-1.21982e-18
-1.22305e-18
-1.22117e-18
-1.22776e-18
-1.22708e-18
-1.23059e-18
-1.23226e-18
-1.23833e-18
-1.23733e-18
-1.24124e-18
-1.24045e-18
-1.24287e-18
-1.24282e-18
-1.25236e-18
-1.25519e-18
-1.26679e-18
-1.29449e-18
-1.29232e-18
-1.28807e-18
-1.28207e-18
-1.28178e-18
-1.27668e-18
-1.28258e-18
-1.27732e-18
-1.28186e-18
-1.27652e-18
-1.28175e-18
-1.27214e-18
-1.27867e-18
-1.26776e-18
-1.27155e-18
-1.2625e-18
-1.26701e-18
-1.25856e-18
-1.26158e-18
-1.25157e-18
-1.25289e-18
-1.24311e-18
-1.24272e-18
-1.23378e-18
-1.23278e-18
-1.22894e-18
-1.22898e-18
-1.22464e-18
-1.2226e-18
-1.21998e-18
-1.22331e-18
-1.22117e-18
-1.2278e-18
-1.22702e-18
-1.23055e-18
-1.23146e-18
-1.23782e-18
-1.23636e-18
-1.24155e-18
-1.24101e-18
-1.24316e-18
-1.24295e-18
-1.25284e-18
-1.25391e-18
-1.26684e-18
-1.2949e-18
-1.29251e-18
-1.28791e-18
-1.28194e-18
-1.28172e-18
-1.27638e-18
-1.28233e-18
-1.2777e-18
-1.28147e-18
-1.27666e-18
-1.28213e-18
-1.27234e-18
-1.27864e-18
-1.26744e-18
-1.27196e-18
-1.26221e-18
-1.26668e-18
-1.25863e-18
-1.26125e-18
-1.25205e-18
-1.25275e-18
-1.24344e-18
-1.24271e-18
-1.23389e-18
-1.23304e-18
-1.22882e-18
-1.22893e-18
-1.22465e-18
-1.22252e-18
-1.21997e-18
-1.22291e-18
-1.22132e-18
-1.22734e-18
-1.22748e-18
-1.23103e-18
-1.23148e-18
-1.23737e-18
-1.23644e-18
-1.24163e-18
-1.2407e-18
-1.24297e-18
-1.24315e-18
-1.25272e-18
-1.25407e-18
-1.26703e-18
-1.29551e-18
-1.29232e-18
-1.28777e-18
-1.28195e-18
-1.28119e-18
-1.2768e-18
-1.28238e-18
-1.27719e-18
-1.28218e-18
-1.27671e-18
-1.28288e-18
-1.27206e-18
-1.27827e-18
-1.26712e-18
-1.27247e-18
-1.26254e-18
-1.26691e-18
-1.25907e-18
-1.26123e-18
-1.25235e-18
-1.25288e-18
-1.24335e-18
-1.24269e-18
-1.23392e-18
-1.23299e-18
-1.22889e-18
-1.22889e-18
-1.22447e-18
-1.22291e-18
-1.22021e-18
-1.22257e-18
-1.22138e-18
-1.22713e-18
-1.2273e-18
-1.23058e-18
-1.23186e-18
-1.23741e-18
-1.23669e-18
-1.24172e-18
-1.24036e-18
-1.2429e-18
-1.24262e-18
-1.25308e-18
-1.25404e-18
-1.26692e-18
-1.26602e-18
-1.29504e-18
-1.29242e-18
-1.2885e-18
-1.28245e-18
-1.28184e-18
-1.2773e-18
-1.28174e-18
-1.27758e-18
-1.28225e-18
-1.27664e-18
-1.28256e-18
-1.27269e-18
-1.2786e-18
-1.26693e-18
-1.27181e-18
-1.26263e-18
-1.26677e-18
-1.25896e-18
-1.26151e-18
-1.25235e-18
-1.25301e-18
-1.24329e-18
-1.24274e-18
-1.23377e-18
-1.23265e-18
-1.22875e-18
-1.22891e-18
-1.2246e-18
-1.22319e-18
-1.22009e-18
-1.22253e-18
-1.22126e-18
-1.2273e-18
-1.22739e-18
-1.2302e-18
-1.23219e-18
-1.2375e-18
-1.23628e-18
-1.2406e-18
-1.24023e-18
-1.24283e-18
-1.24311e-18
-1.25263e-18
-1.25479e-18
-1.26645e-18
-1.26602e-18
-1.29486e-18
-1.29301e-18
-1.28867e-18
-1.28257e-18
-1.28153e-18
-1.27742e-18
-1.28161e-18
-1.27792e-18
-1.28168e-18
-1.27658e-18
-1.28247e-18
-1.27255e-18
-1.27852e-18
-1.26742e-18
-1.27145e-18
-1.26221e-18
-1.26685e-18
-1.25894e-18
-1.26133e-18
-1.25247e-18
-1.25277e-18
-1.24366e-18
-1.2428e-18
-1.23394e-18
-1.23259e-18
-1.22863e-18
-1.2287e-18
-1.22445e-18
-1.22288e-18
-1.21993e-18
-1.22266e-18
-1.22102e-18
-1.22718e-18
-1.22732e-18
-1.23089e-18
-1.23167e-18
-1.23763e-18
-1.23638e-18
-1.24054e-18
-1.24038e-18
-1.2426e-18
-1.2437e-18
-1.25231e-18
-1.25497e-18
-1.26645e-18
-1.26626e-18
-1.27871e-18
-1.29483e-18
-1.29269e-18
-1.28867e-18
-1.28246e-18
-1.28146e-18
-1.2768e-18
-1.2818e-18
-1.27768e-18
-1.28164e-18
-1.27678e-18
-1.28227e-18
-1.27232e-18
-1.27849e-18
-1.26741e-18
-1.27196e-18
-1.26244e-18
-1.26714e-18
-1.25894e-18
-1.26124e-18
-1.25224e-18
-1.25264e-18
-1.24364e-18
-1.24259e-18
-1.23402e-18
-1.23265e-18
-1.22877e-18
-1.22873e-18
-1.22454e-18
-1.22276e-18
-1.21995e-18
-1.22265e-18
-1.22103e-18
-1.22723e-18
-1.22706e-18
-1.23074e-18
-1.23116e-18
-1.23762e-18
-1.23654e-18
-1.24112e-18
-1.24049e-18
-1.2428e-18
-1.24392e-18
-1.25239e-18
-1.2548e-18
-1.26705e-18
-1.26643e-18
-1.27888e-18
-1.29517e-18
-1.29274e-18
-1.28838e-18
-1.28279e-18
-1.28144e-18
-1.27695e-18
-1.28177e-18
-1.27736e-18
-1.28205e-18
-1.27723e-18
-1.28226e-18
-1.27249e-18
-1.27838e-18
-1.26752e-18
-1.27182e-18
-1.26298e-18
-1.26701e-18
-1.25916e-18
-1.26126e-18
-1.25204e-18
-1.25283e-18
-1.24344e-18
-1.24261e-18
-1.234e-18
-1.23277e-18
-1.22887e-18
-1.2288e-18
-1.22458e-18
-1.22287e-18
-1.22006e-18
-1.22254e-18
-1.22104e-18
-1.227e-18
-1.22717e-18
-1.23038e-18
-1.23149e-18
-1.23732e-18
-1.23642e-18
-1.24106e-18
-1.24034e-18
-1.24287e-18
-1.24359e-18
-1.25275e-18
-1.255e-18
-1.26685e-18
-1.26658e-18
-1.27853e-18
-1.29495e-18
-1.2924e-18
-1.28817e-18
-1.28242e-18
-1.28179e-18
-1.27753e-18
-1.28191e-18
-1.2775e-18
-1.282e-18
-1.27666e-18
-1.28217e-18
-1.27271e-18
-1.27858e-18
-1.26729e-18
-1.27162e-18
-1.26264e-18
-1.26709e-18
-1.25904e-18
-1.26117e-18
-1.25223e-18
-1.25275e-18
-1.24349e-18
-1.24275e-18
-1.23402e-18
-1.23282e-18
-1.2288e-18
-1.22884e-18
-1.22449e-18
-1.22283e-18
-1.22005e-18
-1.22247e-18
-1.22122e-18
-1.22684e-18
-1.22701e-18
-1.23089e-18
-1.2317e-18
-1.23736e-18
-1.23648e-18
-1.24091e-18
-1.24055e-18
-1.24316e-18
-1.24352e-18
-1.25266e-18
-1.25517e-18
-1.26623e-18
-1.26642e-18
-1.279e-18
-1.29509e-18
-1.29223e-18
-1.28834e-18
-1.2827e-18
-1.28191e-18
-1.27749e-18
-1.28193e-18
-1.27798e-18
-1.28183e-18
-1.27671e-18
-1.28212e-18
-1.27273e-18
-1.27864e-18
-1.26726e-18
-1.27168e-18
-1.26237e-18
-1.26698e-18
-1.25892e-18
-1.2611e-18
-1.25244e-18
-1.25274e-18
-1.24346e-18
-1.24271e-18
-1.23411e-18
-1.23279e-18
-1.22881e-18
-1.22876e-18
-1.22451e-18
-1.22305e-18
-1.21992e-18
-1.22242e-18
-1.22126e-18
-1.22709e-18
-1.227e-18
-1.23108e-18
-1.2316e-18
-1.2375e-18
-1.23656e-18
-1.24071e-18
-1.2406e-18
-1.24304e-18
-1.24365e-18
-1.25241e-18
-1.25493e-18
-1.26622e-18
-1.26629e-18
-1.27883e-18
-1.29526e-18
-1.29261e-18
-1.28845e-18
-1.28299e-18
-1.28171e-18
-1.27729e-18
-1.28207e-18
-1.27764e-18
-1.28155e-18
-1.27666e-18
-1.28214e-18
-1.27255e-18
-1.27854e-18
-1.26742e-18
-1.27162e-18
-1.26287e-18
-1.26696e-18
-1.2588e-18
-1.261e-18
-1.25252e-18
-1.25252e-18
-1.24356e-18
-1.24268e-18
-1.23414e-18
-1.2327e-18
-1.22882e-18
-1.22871e-18
-1.22454e-18
-1.22311e-18
-1.21998e-18
-1.22237e-18
-1.22128e-18
-1.22723e-18
-1.22704e-18
-1.23044e-18
-1.23159e-18
-1.23737e-18
-1.2364e-18
-1.24102e-18
-1.24064e-18
-1.24291e-18
-1.24399e-18
-1.25276e-18
-1.25466e-18
-1.26631e-18
-1.26632e-18
-1.27863e-18
-1.27555e-18
-1.29519e-18
-1.29251e-18
-1.28828e-18
-1.28275e-18
-1.28181e-18
-1.27726e-18
-1.28203e-18
-1.27768e-18
-1.28138e-18
-1.27636e-18
-1.28216e-18
-1.27246e-18
-1.27826e-18
-1.26747e-18
-1.27169e-18
-1.26274e-18
-1.26719e-18
-1.25889e-18
-1.26097e-18
-1.25226e-18
-1.25246e-18
-1.24356e-18
-1.24272e-18
-1.23412e-18
-1.23271e-18
-1.22883e-18
-1.2287e-18
-1.22449e-18
-1.22303e-18
-1.22012e-18
-1.22261e-18
-1.22128e-18
-1.22719e-18
-1.22686e-18
-1.2304e-18
-1.23143e-18
-1.23726e-18
-1.23656e-18
-1.24103e-18
-1.24048e-18
-1.24316e-18
-1.2443e-18
-1.25273e-18
-1.25469e-18
-1.26642e-18
-1.26591e-18
-1.2789e-18
-1.27588e-18
-1.29494e-18
-1.29247e-18
-1.28846e-18
-1.28261e-18
-1.28161e-18
-1.27707e-18
-1.28193e-18
-1.27764e-18
-1.28167e-18
-1.2766e-18
-1.28197e-18
-1.27242e-18
-1.27821e-18
-1.26746e-18
-1.27186e-18
-1.26269e-18
-1.26717e-18
-1.25888e-18
-1.261e-18
-1.25229e-18
-1.25258e-18
-1.2436e-18
-1.24277e-18
-1.23405e-18
-1.23277e-18
-1.22884e-18
-1.22871e-18
-1.22442e-18
-1.22295e-18
-1.22005e-18
-1.22255e-18
-1.22124e-18
-1.22721e-18
-1.22705e-18
-1.2306e-18
-1.23145e-18
-1.23717e-18
-1.23648e-18
-1.241e-18
-1.24058e-18
-1.24295e-18
-1.24397e-18
-1.25281e-18
-1.25481e-18
-1.26666e-18
-1.26621e-18
-1.27899e-18
-1.27561e-18
-1.29537e-18
-1.29262e-18
-1.28824e-18
-1.28262e-18
-1.28171e-18
-1.27705e-18
-1.28184e-18
-1.27747e-18
-1.2818e-18
-1.27661e-18
-1.28212e-18
-1.27251e-18
-1.2783e-18
-1.26745e-18
-1.27175e-18
-1.2627e-18
-1.26708e-18
-1.25885e-18
-1.26109e-18
-1.25238e-18
-1.25262e-18
-1.24358e-18
-1.24274e-18
-1.2341e-18
-1.23279e-18
-1.22884e-18
-1.2287e-18
-1.22449e-18
-1.22301e-18
-1.22001e-18
-1.22245e-18
-1.22115e-18
-1.2272e-18
-1.22713e-18
-1.23061e-18
-1.23156e-18
-1.23723e-18
-1.2365e-18
-1.24086e-18
-1.24056e-18
-1.24311e-18
-1.24385e-18
-1.25293e-18
-1.25493e-18
-1.26665e-18
-1.26633e-18
-1.27889e-18
-1.27585e-18
-1.29543e-18
-1.29264e-18
-1.28824e-18
-1.28279e-18
-1.28192e-18
-1.2772e-18
-1.28187e-18
-1.27742e-18
-1.28179e-18
-1.27655e-18
-1.28198e-18
-1.27245e-18
-1.2784e-18
-1.26752e-18
-1.27174e-18
-1.26264e-18
-1.2672e-18
-1.25885e-18
-1.2611e-18
-1.2524e-18
-1.25253e-18
-1.24349e-18
-1.24265e-18
-1.2341e-18
-1.23279e-18
-1.22884e-18
-1.2287e-18
-1.22453e-18
-1.2231e-18
-1.2201e-18
-1.22243e-18
-1.22113e-18
-1.22713e-18
-1.22705e-18
-1.23071e-18
-1.23153e-18
-1.23725e-18
-1.23638e-18
-1.24086e-18
-1.24066e-18
-1.24317e-18
-1.2437e-18
-1.25295e-18
-1.25496e-18
-1.26652e-18
-1.2661e-18
-1.27886e-18
-1.27582e-18
-1.2953e-18
-1.29268e-18
-1.2884e-18
-1.28284e-18
-1.2817e-18
-1.27731e-18
-1.28197e-18
-1.27754e-18
-1.28169e-18
-1.27661e-18
-1.28205e-18
-1.27238e-18
-1.27834e-18
-1.2675e-18
-1.27184e-18
-1.26274e-18
-1.26714e-18
-1.25896e-18
-1.26107e-18
-1.2524e-18
-1.25248e-18
-1.24347e-18
-1.24265e-18
-1.23404e-18
-1.23278e-18
-1.22884e-18
-1.22867e-18
-1.22451e-18
-1.22312e-18
-1.22016e-18
-1.22243e-18
-1.22114e-18
-1.22707e-18
-1.22702e-18
-1.23067e-18
-1.23144e-18
-1.23723e-18
-1.23648e-18
-1.24098e-18
-1.24055e-18
-1.2431e-18
-1.24386e-18
-1.2529e-18
-1.25483e-18
-1.26641e-18
-1.2663e-18
-1.27888e-18
-1.27565e-18
-1.29516e-18
-1.29254e-18
-1.28848e-18
-1.28291e-18
-1.28161e-18
-1.27716e-18
-1.28197e-18
-1.27754e-18
-1.28169e-18
-1.27665e-18
-1.28203e-18
-1.27239e-18
-1.27826e-18
-1.26747e-18
-1.27187e-18
-1.26268e-18
-1.26707e-18
-1.25899e-18
-1.26106e-18
-1.25239e-18
-1.25246e-18
-1.2435e-18
-1.2427e-18
-1.23404e-18
-1.23278e-18
-1.22883e-18
-1.22868e-18
-1.22449e-18
-1.22308e-18
-1.22017e-18
-1.22244e-18
-1.22116e-18
-1.22708e-18
-1.22705e-18
-1.23073e-18
-1.23146e-18
-1.23719e-18
-1.23653e-18
-1.24097e-18
-1.24055e-18
-1.24307e-18
-1.2439e-18
-1.25287e-18
-1.25482e-18
-1.26656e-18
-1.26633e-18
-1.27882e-18
-1.27565e-18
-1.29522e-18
-1.29254e-18
-1.2884e-18
-1.28294e-18
-1.28163e-18
-1.27716e-18
-1.28192e-18
-1.27752e-18
-1.28171e-18
-1.27664e-18
-1.28202e-18
-1.27241e-18
-1.27827e-18
-1.26746e-18
-1.27186e-18
-1.2627e-18
-1.26701e-18
-1.25891e-18
-1.26103e-18
-1.25237e-18
-1.25246e-18
-1.2435e-18
-1.24272e-18
-1.23405e-18
-1.23278e-18
-1.22883e-18
-1.22869e-18
-1.22449e-18
-1.22308e-18
-1.22015e-18
-1.22243e-18
-1.22117e-18
-1.22712e-18
-1.22709e-18
-1.23071e-18
-1.23144e-18
-1.23721e-18
-1.23648e-18
-1.24092e-18
-1.24054e-18
-1.24306e-18
-1.24389e-18
-1.25288e-18
-1.25488e-18
-1.26655e-18
-1.26631e-18
-1.27878e-18
-1.27578e-18
-1.30313e-18
-1.29732e-18
-1.29827e-18
-1.30353e-18
-1.30044e-18
-1.30028e-18
-1.30113e-18
-1.30259e-18
-1.30344e-18
-1.30253e-18
-1.30466e-18
-1.29902e-18
-1.29813e-18
-1.30002e-18
-1.29999e-18
-1.30087e-18
-1.30114e-18
-1.30086e-18
-1.30041e-18
-1.30114e-18