/*--------------------------------*- C++ -*----------------------------------*\
  =========                 |
  \\      /  F ield         | OpenFOAM: The Open Source CFD Toolbox
   \\    /   O peration     | Website:  https://openfoam.org
    \\  /    A nd           | Version:  7
     \\/     M anipulation  |
\*---------------------------------------------------------------------------*/
FoamFile
{
    version     2.0;
    format      ascii;
    class       volScalarField;
    location    "64000";
    object      p;
}
// * * * * * * * * * * * * * * * * * * * * * * * * * * * * * * * * * * * * * //

dimensions      [0 2 -2 0 0 0 0];

internalField   nonuniform List<scalar> 
4783
(
-2.51015e-17
-2.51771e-17
-2.52117e-17
-2.54752e-17
-2.53261e-17
-2.55087e-17
-2.52578e-17
-2.51263e-17
-2.49827e-17
-2.53557e-17
-2.52466e-17
-2.52028e-17
-2.51905e-17
-2.51076e-17
-2.49271e-17
-2.50402e-17
-2.55127e-17
-2.55382e-17
-2.53893e-17
-2.55394e-17
-2.55316e-17
-2.51488e-17
-2.51784e-17
-2.53373e-17
-2.4988e-17
-2.51716e-17
-2.51832e-17
-2.5448e-17
-2.52675e-17
-2.52344e-17
-2.52389e-17
-2.528e-17
-2.51917e-17
-2.51972e-17
-2.52644e-17
-2.52038e-17
-2.51565e-17
-2.52051e-17
-2.5448e-17
-2.50805e-17
-2.4961e-17
-2.50564e-17
-2.52699e-17
-2.52857e-17
-2.49163e-17
-2.48785e-17
-2.50568e-17
-2.50871e-17
-2.4952e-17
-2.51421e-17
-2.51658e-17
-2.53212e-17
-2.55517e-17
-2.54595e-17
-2.51831e-17
-2.51308e-17
-2.54449e-17
-2.53089e-17
-2.52117e-17
-2.50521e-17
-2.52412e-17
-2.51828e-17
-2.49748e-17
-2.51958e-17
-2.52814e-17
-2.53297e-17
-2.51166e-17
-2.50756e-17
-2.49207e-17
-2.49239e-17
-2.52902e-17
-2.49752e-17
-2.51252e-17
-2.52056e-17
-2.51427e-17
-2.49531e-17
-2.49862e-17
-2.53869e-17
-2.53492e-17
-2.54774e-17
-2.53021e-17
-2.52207e-17
-2.52959e-17
-2.5252e-17
-2.50177e-17
-2.52664e-17
-2.53912e-17
-2.53582e-17
-2.51224e-17
-2.50079e-17
-2.53655e-17
-2.52001e-17
-2.52359e-17
-2.5192e-17
-2.51716e-17
-2.50961e-17
-2.48148e-17
-2.50299e-17
-2.51802e-17
-2.52745e-17
-2.52058e-17
-2.50162e-17
-2.52083e-17
-2.51379e-17
-2.54675e-17
-2.53588e-17
-2.52952e-17
-2.53717e-17
-2.57695e-17
-2.55613e-17
-2.51165e-17
-2.51108e-17
-2.52061e-17
-2.51814e-17
-2.53934e-17
-2.52892e-17
-2.51698e-17
-2.51911e-17
-2.51439e-17
-2.50159e-17
-2.5197e-17
-2.52637e-17
-2.51338e-17
-2.47866e-17
-2.51971e-17
-2.52841e-17
-2.53209e-17
-2.53632e-17
-2.5494e-17
-2.53744e-17
-2.54497e-17
-2.53999e-17
-2.49682e-17
-2.5069e-17
-2.50801e-17
-2.49414e-17
-2.52075e-17
-2.53464e-17
-2.49814e-17
-2.51443e-17
-2.53842e-17
-2.51787e-17
-2.52301e-17
-2.52436e-17
-2.49629e-17
-2.47817e-17
-2.52705e-17
-2.54216e-17
-2.53144e-17
-2.53046e-17
-2.52879e-17
-2.53226e-17
-2.55487e-17
-2.55118e-17
-2.5164e-17
-2.51575e-17
-2.52062e-17
-2.53273e-17
-2.51236e-17
-2.50232e-17
-2.51209e-17
-2.49604e-17
-2.49625e-17
-2.49818e-17
-2.52731e-17
-2.54078e-17
-2.51265e-17
-2.52099e-17
-2.55335e-17
-2.57622e-17
-2.52576e-17
-2.52791e-17
-2.51006e-17
-2.50625e-17
-2.51788e-17
-2.52357e-17
-2.539e-17
-2.5505e-17
-2.53832e-17
-2.51744e-17
-2.49704e-17
-2.53718e-17
-2.54507e-17
-2.53807e-17
-2.52257e-17
-2.52715e-17
-2.5152e-17
-2.5232e-17
-2.54052e-17
-2.52994e-17
-2.52147e-17
-2.54157e-17
-2.53522e-17
-2.53551e-17
-2.53114e-17
-2.51476e-17
-2.51595e-17
-2.53131e-17
-2.52163e-17
-2.55747e-17
-2.5026e-17
-2.5098e-17
-2.51296e-17
-2.52987e-17
-2.49959e-17
-2.51927e-17
-2.52217e-17
-2.49582e-17
-2.46812e-17
-2.49876e-17
-2.52669e-17
-2.52749e-17
-2.524e-17
-2.53679e-17
-2.54361e-17
-2.5373e-17
-2.54254e-17
-2.55173e-17
-2.53758e-17
-2.5381e-17
-2.51206e-17
-2.5136e-17
-2.5091e-17
-2.51415e-17
-2.51558e-17
-2.50147e-17
-2.47594e-17
-2.5139e-17
-2.52087e-17
-2.51435e-17
-2.49517e-17
-2.51629e-17
-2.52627e-17
-2.52829e-17
-2.51228e-17
-2.54949e-17
-2.58381e-17
-2.54065e-17
-2.53657e-17
-2.53935e-17
-2.52553e-17
-2.55302e-17
-2.52639e-17
-2.49395e-17
-2.50215e-17
-2.50979e-17
-2.53892e-17
-2.55823e-17
-2.53529e-17
-2.51655e-17
-2.5211e-17
-2.52684e-17
-2.5209e-17
-2.52815e-17
-2.54571e-17
-2.54439e-17
-2.52433e-17
-2.5246e-17
-2.58037e-17
-2.52529e-17
-2.52549e-17
-2.53593e-17
-2.52138e-17
-2.5419e-17
-2.49416e-17
-2.52487e-17
-2.5124e-17
-2.47808e-17
-2.51816e-17
-2.5216e-17
-2.52234e-17
-2.4995e-17
-2.51355e-17
-2.52229e-17
-2.52682e-17
-2.54096e-17
-2.55131e-17
-2.53446e-17
-2.5275e-17
-2.53113e-17
-2.54688e-17
-2.52278e-17
-2.5524e-17
-2.5429e-17
-2.5351e-17
-2.53182e-17
-2.50937e-17
-2.51438e-17
-2.53238e-17
-2.52766e-17
-2.52926e-17
-2.49843e-17
-2.50861e-17
-2.49147e-17
-2.49707e-17
-2.50659e-17
-2.52052e-17
-2.52906e-17
-2.54135e-17
-2.52613e-17
-2.51814e-17
-2.53482e-17
-2.54835e-17
-2.53078e-17
-2.54158e-17
-2.54104e-17
-2.54521e-17
-2.55544e-17
-2.52784e-17
-2.50929e-17
-2.50327e-17
-2.51814e-17
-2.51222e-17
-2.50254e-17
-2.48784e-17
-2.51552e-17
-2.52649e-17
-2.5215e-17
-2.51526e-17
-2.52541e-17
-2.5047e-17
-2.51031e-17
-2.52844e-17
-2.53794e-17
-2.52659e-17
-2.51368e-17
-2.53796e-17
-2.53574e-17
-2.51147e-17
-2.50928e-17
-2.53962e-17
-2.52039e-17
-2.48506e-17
-2.46728e-17
-2.46502e-17
-2.51284e-17
-2.50559e-17
-2.52564e-17
-2.5357e-17
-2.51969e-17
-2.47973e-17
-2.50733e-17
-2.53773e-17
-2.55387e-17
-2.54913e-17
-2.5202e-17
-2.54977e-17
-2.50666e-17
-2.50461e-17
-2.4954e-17
-2.53412e-17
-2.49092e-17
-2.50163e-17
-2.51297e-17
-2.49565e-17
-2.50829e-17
-2.52629e-17
-2.51495e-17
-2.50977e-17
-2.50026e-17
-2.52506e-17
-2.55489e-17
-2.54074e-17
-2.53967e-17
-2.51611e-17
-2.50624e-17
-2.48858e-17
-2.52309e-17
-2.513e-17
-2.51826e-17
-2.55233e-17
-2.48374e-17
-2.53276e-17
-2.53228e-17
-2.54165e-17
-2.53445e-17
-2.50678e-17
-2.52401e-17
-2.52802e-17
-2.50783e-17
-2.49871e-17
-2.48145e-17
-2.50748e-17
-2.51449e-17
-2.52807e-17
-2.50819e-17
-2.50558e-17
-2.53732e-17
-2.55157e-17
-2.53065e-17
-2.50976e-17
-2.48635e-17
-2.50843e-17
-2.5043e-17
-2.50913e-17
-2.50914e-17
-2.49321e-17
-2.50181e-17
-2.47111e-17
-2.54874e-17
-2.51032e-17
-2.4797e-17
-2.50911e-17
-2.51337e-17
-2.51497e-17
-2.51833e-17
-2.47139e-17
-2.47411e-17
-2.47739e-17
-2.53154e-17
-2.50714e-17
-2.50819e-17
-2.49708e-17
-2.51131e-17
-2.5319e-17
-2.51398e-17
-2.51399e-17
-2.51593e-17
-2.50611e-17
-2.51036e-17
-2.51494e-17
-2.50192e-17
-2.52559e-17
-2.53372e-17
-2.52117e-17
-2.5108e-17
-2.4892e-17
-2.5163e-17
-2.49532e-17
-2.51737e-17
-2.54251e-17
-2.5188e-17
-2.49451e-17
-2.51536e-17
-2.51341e-17
-2.49675e-17
-2.49733e-17
-2.50823e-17
-2.51464e-17
-2.50072e-17
-2.50914e-17
-2.47839e-17
-2.50724e-17
-2.53592e-17
-2.51825e-17
-2.48149e-17
-2.52234e-17
-2.52377e-17
-2.53423e-17
-2.50091e-17
-2.52019e-17
-2.51347e-17
-2.50719e-17
-2.52289e-17
-2.51594e-17
-2.5074e-17
-2.52221e-17
-2.51379e-17
-2.49102e-17
-2.53172e-17
-2.49887e-17
-2.47673e-17
-2.55629e-17
-2.51689e-17
-2.50195e-17
-2.51544e-17
-2.51841e-17
-2.51613e-17
-2.51321e-17
-2.51797e-17
-2.5225e-17
-2.51855e-17
-2.5178e-17
-2.53846e-17
-2.52197e-17
-2.50896e-17
-2.55745e-17
-2.5028e-17
-2.51743e-17
-2.55295e-17
-2.52301e-17
-2.51778e-17
-2.5211e-17
-2.53091e-17
-2.51644e-17
-2.52031e-17
-2.54324e-17
-2.52171e-17
-2.53256e-17
-2.52653e-17
-2.50406e-17
-2.53418e-17
-2.52206e-17
-2.54731e-17
-2.5204e-17
-2.51829e-17
-2.52243e-17
-2.53136e-17
-2.50895e-17
-2.48611e-17
-2.49889e-17
-2.50593e-17
-2.49227e-17
-2.52088e-17
-2.50358e-17
-2.48483e-17
-2.5032e-17
-2.50687e-17
-2.4965e-17
-2.48362e-17
-2.50256e-17
-2.50114e-17
-2.47941e-17
-2.49474e-17
-2.48949e-17
-2.46828e-17
-2.51375e-17
-2.52968e-17
-2.52334e-17
-2.5073e-17
-2.50544e-17
-2.50856e-17
-2.52782e-17
-2.54465e-17
-2.52163e-17
-2.5122e-17
-2.50865e-17
-2.49398e-17
-2.47779e-17
-2.48118e-17
-2.51201e-17
-2.51189e-17
-2.50094e-17
-2.51828e-17
-2.50388e-17
-2.55045e-17
-2.52499e-17
-2.52926e-17
-2.51647e-17
-2.52258e-17
-2.50897e-17
-2.4718e-17
-2.46165e-17
-2.50413e-17
-2.52078e-17
-2.49144e-17
-2.50031e-17
-2.50363e-17
-2.50384e-17
-2.50901e-17
-2.50744e-17
-2.50515e-17
-2.52629e-17
-2.53102e-17
-2.50425e-17
-2.49935e-17
-2.49867e-17
-2.4914e-17
-2.50512e-17
-2.50307e-17
-2.49161e-17
-2.49623e-17
-2.49536e-17
-2.49667e-17
-2.48905e-17
-2.46734e-17
-2.50947e-17
-2.51162e-17
-2.50356e-17
-2.51374e-17
-2.54239e-17
-2.51382e-17
-2.5028e-17
-2.49157e-17
-2.51167e-17
-2.51386e-17
-2.53516e-17
-2.52945e-17
-2.53873e-17
-2.49178e-17
-2.5059e-17
-2.5155e-17
-2.5038e-17
-2.48536e-17
-2.51869e-17
-2.51125e-17
-2.51288e-17
-2.50165e-17
-2.48285e-17
-2.51392e-17
-2.47631e-17
-2.51882e-17
-2.52725e-17
-2.51534e-17
-2.50501e-17
-2.50346e-17
-2.50419e-17
-2.49963e-17
-2.51872e-17
-2.51622e-17
-2.49878e-17
-2.48311e-17
-2.49265e-17
-2.50232e-17
-2.50128e-17
-2.50245e-17
-2.5181e-17
-2.50293e-17
-2.50218e-17
-2.50474e-17
-2.5087e-17
-2.52196e-17
-2.51588e-17
-2.51796e-17
-2.52307e-17
-2.51779e-17
-2.53286e-17
-2.487e-17
-2.51739e-17
-2.52641e-17
-2.54107e-17
-2.50872e-17
-2.5118e-17
-2.53208e-17
-2.49199e-17
-2.50578e-17
-2.51183e-17
-2.50531e-17
-2.50713e-17
-2.53449e-17
-2.48524e-17
-2.49698e-17
-2.49534e-17
-2.48148e-17
-2.4944e-17
-2.53548e-17
-2.51075e-17
-2.50062e-17
-2.51299e-17
-2.49822e-17
-2.496e-17
-2.49697e-17
-2.51206e-17
-2.49517e-17
-2.47737e-17
-2.50113e-17
-2.49661e-17
-2.50113e-17
-2.50095e-17
-2.51076e-17
-2.49016e-17
-2.49081e-17
-2.47593e-17
-2.46708e-17
-2.44719e-17
-2.48011e-17
-2.49637e-17
-2.50413e-17
-2.48239e-17
-2.50038e-17
-2.51286e-17
-2.54047e-17
-2.50408e-17
-2.50623e-17
-2.48933e-17
-2.5061e-17
-2.51374e-17
-2.52354e-17
-2.50623e-17
-2.50545e-17
-2.48192e-17
-2.50052e-17
-2.48614e-17
-2.50315e-17
-2.53051e-17
-2.52536e-17
-2.50417e-17
-2.50764e-17
-2.50579e-17
-2.4998e-17
-2.50352e-17
-2.51677e-17
-2.52053e-17
-2.50042e-17
-2.50382e-17
-2.5096e-17
-2.50648e-17
-2.50119e-17
-2.51103e-17
-2.51087e-17
-2.5165e-17
-2.50121e-17
-2.47916e-17
-2.49141e-17
-2.48854e-17
-2.49881e-17
-2.51744e-17
-2.51049e-17
-2.51497e-17
-2.51341e-17
-2.50676e-17
-2.48213e-17
-2.48543e-17
-2.51598e-17
-2.53235e-17
-2.50972e-17
-2.49924e-17
-2.49168e-17
-2.51969e-17
-2.47941e-17
-2.48757e-17
-2.51965e-17
-2.46239e-17
-2.49761e-17
-2.52121e-17
-2.51575e-17
-2.55444e-17
-2.51651e-17
-2.49737e-17
-2.50222e-17
-2.50586e-17
-2.49562e-17
-2.48522e-17
-2.49143e-17
-2.50006e-17
-2.51638e-17
-2.51059e-17
-2.49988e-17
-2.49038e-17
-2.48913e-17
-2.48092e-17
-2.50311e-17
-2.49775e-17
-2.47556e-17
-2.47382e-17
-2.48319e-17
-2.49205e-17
-2.48856e-17
-2.47337e-17
-2.48261e-17
-2.48685e-17
-2.502e-17
-2.49052e-17
-2.508e-17
-2.50474e-17
-2.51472e-17
-2.51696e-17
-2.51029e-17
-2.5113e-17
-2.52787e-17
-2.51004e-17
-2.47451e-17
-2.51848e-17
-2.54524e-17
-2.48401e-17
-2.49457e-17
-2.50473e-17
-2.52515e-17
-2.5472e-17
-2.50453e-17
-2.46094e-17
-2.48793e-17
-2.52084e-17
-2.53936e-17
-2.49756e-17
-2.47879e-17
-2.50681e-17
-2.48986e-17
-2.4752e-17
-2.48564e-17
-2.47962e-17
-2.45186e-17
-2.46423e-17
-2.50272e-17
-2.52585e-17
-2.49084e-17
-2.5041e-17
-2.49618e-17
-2.49582e-17
-2.49486e-17
-2.4999e-17
-2.50689e-17
-2.5063e-17
-2.50583e-17
-2.5222e-17
-2.52297e-17
-2.50817e-17
-2.4993e-17
-2.50939e-17
-2.51768e-17
-2.50409e-17
-2.50902e-17
-2.52694e-17
-2.48056e-17
-2.50043e-17
-2.50561e-17
-2.5029e-17
-2.51643e-17
-2.51745e-17
-2.4984e-17
-2.50494e-17
-2.52447e-17
-2.53457e-17
-2.50971e-17
-2.51422e-17
-2.53972e-17
-2.50125e-17
-2.47556e-17
-2.48946e-17
-2.48329e-17
-2.45953e-17
-2.48289e-17
-2.48842e-17
-2.48723e-17
-2.47527e-17
-2.48634e-17
-2.48948e-17
-2.48116e-17
-2.46971e-17
-2.48046e-17
-2.48781e-17
-2.49076e-17
-2.49342e-17
-2.50278e-17
-2.4776e-17
-2.47142e-17
-2.4711e-17
-2.53389e-17
-2.50754e-17
-2.47736e-17
-2.51459e-17
-2.54742e-17
-2.51099e-17
-2.48563e-17
-2.52373e-17
-2.49454e-17
-2.49518e-17
-2.4969e-17
-2.49742e-17
-2.50184e-17
-2.51343e-17
-2.48819e-17
-2.51253e-17
-2.51445e-17
-2.49421e-17
-2.51881e-17
-2.54727e-17
-2.54573e-17
-2.50974e-17
-2.50483e-17
-2.47133e-17
-2.45262e-17
-2.48109e-17
-2.48581e-17
-2.47503e-17
-2.48465e-17
-2.48656e-17
-2.48231e-17
-2.47203e-17
-2.47031e-17
-2.47966e-17
-2.47924e-17
-2.50483e-17
-2.49161e-17
-2.4909e-17
-2.5059e-17
-2.48901e-17
-2.48793e-17
-2.48251e-17
-2.49329e-17
-2.50129e-17
-2.48135e-17
-2.52964e-17
-2.52223e-17
-2.52173e-17
-2.50291e-17
-2.5181e-17
-2.48731e-17
-2.51885e-17
-2.50107e-17
-2.48982e-17
-2.49413e-17
-2.50948e-17
-2.49653e-17
-2.49144e-17
-2.49182e-17
-2.48726e-17
-2.4853e-17
-2.47606e-17
-2.49202e-17
-2.49017e-17
-2.48811e-17
-2.47378e-17
-2.48598e-17
-2.48598e-17
-2.48929e-17
-2.48867e-17
-2.48956e-17
-2.49067e-17
-2.48535e-17
-2.487e-17
-2.49065e-17
-2.48847e-17
-2.48679e-17
-2.48856e-17
-2.50097e-17
-2.52786e-17
-2.51569e-17
-2.50697e-17
-2.48792e-17
-2.47044e-17
-2.50358e-17
-2.50948e-17
-2.5095e-17
-2.52327e-17
-2.50494e-17
-2.50233e-17
-2.49657e-17
-2.49019e-17
-2.49998e-17
-2.54371e-17
-2.51694e-17
-2.49494e-17
-2.48933e-17
-2.49696e-17
-2.50641e-17
-2.48573e-17
-2.49937e-17
-2.47328e-17
-2.4682e-17
-2.48382e-17
-2.48745e-17
-2.48024e-17
-2.50103e-17
-2.49446e-17
-2.49728e-17
-2.47691e-17
-2.47456e-17
-2.48372e-17
-2.48445e-17
-2.47936e-17
-2.46466e-17
-2.48687e-17
-2.48868e-17
-2.49671e-17
-2.48162e-17
-2.4671e-17
-2.48859e-17
-2.49294e-17
-2.47567e-17
-2.42994e-17
-2.43418e-17
-2.46967e-17
-2.50731e-17
-2.50845e-17
-2.51872e-17
-2.48561e-17
-2.49501e-17
-2.4956e-17
-2.49599e-17
-2.47781e-17
-2.49412e-17
-2.51722e-17
-2.49948e-17
-2.48572e-17
-2.4729e-17
-2.48548e-17
-2.48918e-17
-2.49376e-17
-2.49938e-17
-2.48076e-17
-2.48407e-17
-2.47465e-17
-2.48674e-17
-2.49034e-17
-2.48922e-17
-2.48559e-17
-2.48562e-17
-2.48355e-17
-2.47911e-17
-2.46974e-17
-2.48033e-17
-2.4859e-17
-2.49627e-17
-2.48919e-17
-2.49036e-17
-2.51184e-17
-2.47868e-17
-2.47707e-17
-2.48383e-17
-2.47483e-17
-2.5114e-17
-2.53432e-17
-2.51479e-17
-2.51245e-17
-2.49929e-17
-2.50761e-17
-2.50095e-17
-2.48649e-17
-2.49058e-17
-2.50314e-17
-2.50947e-17
-2.525e-17
-2.50631e-17
-2.47856e-17
-2.49213e-17
-2.49056e-17
-2.46958e-17
-2.46509e-17
-2.47258e-17
-2.50589e-17
-2.53059e-17
-2.51585e-17
-2.50943e-17
-2.50443e-17
-2.48557e-17
-2.48983e-17
-2.49868e-17
-2.48831e-17
-2.48321e-17
-2.48053e-17
-2.46719e-17
-2.48031e-17
-2.49293e-17
-2.4788e-17
-2.45866e-17
-2.46797e-17
-2.46547e-17
-2.47575e-17
-2.4788e-17
-2.47389e-17
-2.46595e-17
-2.47526e-17
-2.47968e-17
-2.48462e-17
-2.49876e-17
-2.50412e-17
-2.48401e-17
-2.46633e-17
-2.46961e-17
-2.51283e-17
-2.50463e-17
-2.49574e-17
-2.47782e-17
-2.52254e-17
-2.54607e-17
-2.54238e-17
-2.50054e-17
-2.49144e-17
-2.49137e-17
-2.4893e-17
-2.47409e-17
-2.48403e-17
-2.48952e-17
-2.49799e-17
-2.50021e-17
-2.48815e-17
-2.49287e-17
-2.47552e-17
-2.44277e-17
-2.4587e-17
-2.445e-17
-2.47465e-17
-2.4911e-17
-2.46849e-17
-2.46414e-17
-2.44944e-17
-2.48598e-17
-2.46478e-17
-2.45888e-17
-2.47918e-17
-2.49757e-17
-2.50172e-17
-2.48984e-17
-2.48393e-17
-2.48076e-17
-2.48176e-17
-2.4839e-17
-2.48165e-17
-2.47768e-17
-2.47429e-17
-2.48762e-17
-2.50241e-17
-2.50958e-17
-2.53093e-17
-2.50944e-17
-2.50505e-17
-2.49493e-17
-2.50444e-17
-2.5039e-17
-2.4972e-17
-2.47183e-17
-2.50054e-17
-2.49396e-17
-2.50302e-17
-2.49277e-17
-2.49155e-17
-2.50062e-17
-2.48509e-17
-2.47471e-17
-2.4598e-17
-2.46007e-17
-2.46491e-17
-2.4729e-17
-2.47506e-17
-2.47249e-17
-2.47348e-17
-2.4566e-17
-2.45743e-17
-2.46799e-17
-2.47457e-17
-2.47996e-17
-2.48229e-17
-2.45631e-17
-2.45528e-17
-2.43327e-17
-2.43315e-17
-2.46473e-17
-2.47566e-17
-2.48313e-17
-2.49369e-17
-2.51787e-17
-2.49542e-17
-2.48713e-17
-2.50546e-17
-2.51211e-17
-2.50594e-17
-2.50657e-17
-2.48685e-17
-2.51963e-17
-2.50507e-17
-2.52016e-17
-2.50191e-17
-2.50925e-17
-2.49603e-17
-2.48481e-17
-2.45228e-17
-2.48261e-17
-2.48393e-17
-2.46863e-17
-2.49125e-17
-2.48624e-17
-2.48261e-17
-2.47914e-17
-2.46423e-17
-2.47232e-17
-2.47737e-17
-2.47702e-17
-2.47791e-17
-2.47992e-17
-2.4909e-17
-2.49015e-17
-2.47315e-17
-2.46524e-17
-2.47299e-17
-2.47617e-17
-2.47709e-17
-2.47838e-17
-2.47805e-17
-2.48442e-17
-2.50613e-17
-2.45296e-17
-2.45858e-17
-2.44481e-17
-2.46369e-17
-2.47694e-17
-2.47735e-17
-2.47518e-17
-2.46998e-17
-2.45054e-17
-2.49475e-17
-2.47427e-17
-2.48196e-17
-2.49381e-17
-2.4731e-17
-2.48082e-17
-2.49942e-17
-2.49302e-17
-2.47654e-17
-2.49171e-17
-2.49411e-17
-2.50219e-17
-2.4902e-17
-2.47847e-17
-2.43683e-17
-2.44074e-17
-2.47172e-17
-2.46864e-17
-2.48494e-17
-2.46665e-17
-2.47422e-17
-2.48541e-17
-2.48009e-17
-2.48871e-17
-2.47808e-17
-2.4719e-17
-2.45597e-17
-2.45877e-17
-2.48341e-17
-2.47724e-17
-2.47789e-17
-2.47432e-17
-2.47022e-17
-2.45963e-17
-2.43987e-17
-2.46597e-17
-2.47098e-17
-2.47048e-17
-2.47059e-17
-2.47765e-17
-2.48359e-17
-2.49682e-17
-2.52118e-17
-2.49386e-17
-2.48164e-17
-2.47447e-17
-2.4503e-17
-2.4745e-17
-2.50079e-17
-2.49469e-17
-2.47026e-17
-2.5177e-17
-2.50503e-17
-2.49712e-17
-2.4855e-17
-2.48584e-17
-2.49338e-17
-2.49471e-17
-2.48667e-17
-2.48376e-17
-2.48009e-17
-2.49429e-17
-2.49583e-17
-2.48649e-17
-2.50003e-17
-2.49148e-17
-2.47784e-17
-2.46961e-17
-2.45837e-17
-2.47206e-17
-2.47972e-17
-2.49499e-17
-2.50385e-17
-2.51052e-17
-2.49556e-17
-2.52172e-17
-2.51729e-17
-2.48687e-17
-2.47937e-17
-2.48171e-17
-2.48879e-17
-2.51299e-17
-2.4922e-17
-2.46904e-17
-2.44319e-17
-2.48153e-17
-2.51611e-17
-2.50287e-17
-2.51524e-17
-2.49181e-17
-2.47776e-17
-2.46816e-17
-2.44984e-17
-2.46672e-17
-2.47933e-17
-2.47943e-17
-2.47882e-17
-2.48553e-17
-2.52814e-17
-2.52253e-17
-2.51803e-17
-2.48868e-17
-2.47036e-17
-2.492e-17
-2.50666e-17
-2.488e-17
-2.47643e-17
-2.48037e-17
-2.48656e-17
-2.46615e-17
-2.47349e-17
-2.47534e-17
-2.46367e-17
-2.46688e-17
-2.45585e-17
-2.45027e-17
-2.45417e-17
-2.45941e-17
-2.46239e-17
-2.47455e-17
-2.47887e-17
-2.47931e-17
-2.47943e-17
-2.48162e-17
-2.48046e-17
-2.47767e-17
-2.48892e-17
-2.52342e-17
-2.53389e-17
-2.52963e-17
-2.48705e-17
-2.46164e-17
-2.51667e-17
-2.53205e-17
-2.50862e-17
-2.52233e-17
-2.48935e-17
-2.45642e-17
-2.49044e-17
-2.52548e-17
-2.5002e-17
-2.49281e-17
-2.48962e-17
-2.49071e-17
-2.46917e-17
-2.51754e-17
-2.50106e-17
-2.49395e-17
-2.47979e-17
-2.48466e-17
-2.49058e-17
-2.51262e-17
-2.50395e-17
-2.46727e-17
-2.47747e-17
-2.47961e-17
-2.47356e-17
-2.47472e-17
-2.47978e-17
-2.48795e-17
-2.47741e-17
-2.47584e-17
-2.48971e-17
-2.48432e-17
-2.49139e-17
-2.47658e-17
-2.47644e-17
-2.48287e-17
-2.49315e-17
-2.44155e-17
-2.47201e-17
-2.49909e-17
-2.44994e-17
-2.47769e-17
-2.50282e-17
-2.45356e-17
-2.46915e-17
-2.4749e-17
-2.47402e-17
-2.47448e-17
-2.46434e-17
-2.4357e-17
-2.45986e-17
-2.46919e-17
-2.46877e-17
-2.46736e-17
-2.45976e-17
-2.43821e-17
-2.44903e-17
-2.43785e-17
-2.46393e-17
-2.46899e-17
-2.49441e-17
-2.49151e-17
-2.48065e-17
-2.44065e-17
-2.47807e-17
-2.47427e-17
-2.50469e-17
-2.50214e-17
-2.47913e-17
-2.48955e-17
-2.49454e-17
-2.48168e-17
-2.47598e-17
-2.47789e-17
-2.47881e-17
-2.4708e-17
-2.46131e-17
-2.48197e-17
-2.47815e-17
-2.47665e-17
-2.46771e-17
-2.46794e-17
-2.4681e-17
-2.434e-17
-2.42638e-17
-2.46965e-17
-2.50878e-17
-2.48729e-17
-2.47899e-17
-2.48098e-17
-2.47786e-17
-2.47976e-17
-2.48237e-17
-2.48013e-17
-2.48394e-17
-2.496e-17
-2.52152e-17
-2.49879e-17
-2.48475e-17
-2.47292e-17
-2.4598e-17
-2.50895e-17
-2.49554e-17
-2.4854e-17
-2.48673e-17
-2.50123e-17
-2.50843e-17
-2.48968e-17
-2.48438e-17
-2.48453e-17
-2.46488e-17
-2.48322e-17
-2.47281e-17
-2.49611e-17
-2.48798e-17
-2.47678e-17
-2.46215e-17
-2.47425e-17
-2.48527e-17
-2.46578e-17
-2.47739e-17
-2.48681e-17
-2.46153e-17
-2.46261e-17
-2.46019e-17
-2.47951e-17
-2.49745e-17
-2.43564e-17
-2.44132e-17
-2.50731e-17
-2.52138e-17
-2.51417e-17
-2.48371e-17
-2.48741e-17
-2.50235e-17
-2.44954e-17
-2.4793e-17
-2.51135e-17
-2.47784e-17
-2.44185e-17
-2.45226e-17
-2.44348e-17
-2.46867e-17
-2.49198e-17
-2.51126e-17
-2.486e-17
-2.4862e-17
-2.51761e-17
-2.52767e-17
-2.50809e-17
-2.44039e-17
-2.4312e-17
-2.46312e-17
-2.4784e-17
-2.49503e-17
-2.47957e-17
-2.46918e-17
-2.4811e-17
-2.48081e-17
-2.50416e-17
-2.49682e-17
-2.48204e-17
-2.49601e-17
-2.49468e-17
-2.46979e-17
-2.45506e-17
-2.45608e-17
-2.46808e-17
-2.4743e-17
-2.4682e-17
-2.43844e-17
-2.46415e-17
-2.47103e-17
-2.48295e-17
-2.4729e-17
-2.46629e-17
-2.47622e-17
-2.51151e-17
-2.49552e-17
-2.50519e-17
-2.48004e-17
-2.47187e-17
-2.46069e-17
-2.43375e-17
-2.46453e-17
-2.48053e-17
-2.48963e-17
-2.50401e-17
-2.46705e-17
-2.50056e-17
-2.46704e-17
-2.50201e-17
-2.49004e-17
-2.48084e-17
-2.48076e-17
-2.48288e-17
-2.48383e-17
-2.48278e-17
-2.47905e-17
-2.47922e-17
-2.48211e-17
-2.48507e-17
-2.49034e-17
-2.46443e-17
-2.49419e-17
-2.46692e-17
-2.46402e-17
-2.50089e-17
-2.49268e-17
-2.45887e-17
-2.47588e-17
-2.47587e-17
-2.45527e-17
-2.46804e-17
-2.47072e-17
-2.46168e-17
-2.48062e-17
-2.48775e-17
-2.47655e-17
-2.48506e-17
-2.46411e-17
-2.46261e-17
-2.43917e-17
-2.45032e-17
-2.44535e-17
-2.50005e-17
-2.48169e-17
-2.47279e-17
-2.4706e-17
-2.46875e-17
-2.47303e-17
-2.48373e-17
-2.51647e-17
-2.51704e-17
-2.48526e-17
-2.47901e-17
-2.48816e-17
-2.52031e-17
-2.50827e-17
-2.45157e-17
-2.46518e-17
-2.47364e-17
-2.47612e-17
-2.47553e-17
-2.47423e-17
-2.47895e-17
-2.48105e-17
-2.48152e-17
-2.47988e-17
-2.4808e-17
-2.4808e-17
-2.51194e-17
-2.4832e-17
-2.48423e-17
-2.47937e-17
-2.47725e-17
-2.4951e-17
-2.47647e-17
-2.46047e-17
-2.47395e-17
-2.48173e-17
-2.45953e-17
-2.47803e-17
-2.4921e-17
-2.48425e-17
-2.5123e-17
-2.49835e-17
-2.47624e-17
-2.46405e-17
-2.46876e-17
-2.46748e-17
-2.45708e-17
-2.43228e-17
-2.45539e-17
-2.47239e-17
-2.47209e-17
-2.47106e-17
-2.45996e-17
-2.43199e-17
-2.45786e-17
-2.4691e-17
-2.48406e-17
-2.50432e-17
-2.46037e-17
-2.4956e-17
-2.48328e-17
-2.47635e-17
-2.47585e-17
-2.47318e-17
-2.4746e-17
-2.47702e-17
-2.47782e-17
-2.47402e-17
-2.46931e-17
-2.4601e-17
-2.43893e-17
-2.46261e-17
-2.47376e-17
-2.46431e-17
-2.44601e-17
-2.51337e-17
-2.49391e-17
-2.47814e-17
-2.49407e-17
-2.47944e-17
-2.48013e-17
-2.47664e-17
-2.48895e-17
-2.4731e-17
-2.45836e-17
-2.47352e-17
-2.49344e-17
-2.48005e-17
-2.47174e-17
-2.46886e-17
-2.48224e-17
-2.46988e-17
-2.47312e-17
-2.47995e-17
-2.44498e-17
-2.45392e-17
-2.43667e-17
-2.47427e-17
-2.50586e-17
-2.4904e-17
-2.51315e-17
-2.51179e-17
-2.48788e-17
-2.50144e-17
-2.4802e-17
-2.47077e-17
-2.47994e-17
-2.49952e-17
-2.47941e-17
-2.46191e-17
-2.43532e-17
-2.45642e-17
-2.46806e-17
-2.47719e-17
-2.49189e-17
-2.51406e-17
-2.47985e-17
-2.44751e-17
-2.46929e-17
-2.48283e-17
-2.49962e-17
-2.52247e-17
-2.49675e-17
-2.48973e-17
-2.49561e-17
-2.49535e-17
-2.51346e-17
-2.46008e-17
-2.49192e-17
-2.48315e-17
-2.49105e-17
-2.47579e-17
-2.47511e-17
-2.47169e-17
-2.4696e-17
-2.47549e-17
-2.47478e-17
-2.46086e-17
-2.45651e-17
-2.46191e-17
-2.44638e-17
-2.43319e-17
-2.46156e-17
-2.47028e-17
-2.46623e-17
-2.46668e-17
-2.47487e-17
-2.50872e-17
-2.48488e-17
-2.47006e-17
-2.4681e-17
-2.46988e-17
-2.46734e-17
-2.47534e-17
-2.49368e-17
-2.4712e-17
-2.46207e-17
-2.46573e-17
-2.47508e-17
-2.50533e-17
-2.50415e-17
-2.46622e-17
-2.43492e-17
-2.45682e-17
-2.46888e-17
-2.47523e-17
-2.47203e-17
-2.46784e-17
-2.47387e-17
-2.47743e-17
-2.47849e-17
-2.47867e-17
-2.46966e-17
-2.43982e-17
-2.4481e-17
-2.4839e-17
-2.46536e-17
-2.45134e-17
-2.47994e-17
-2.4916e-17
-2.47667e-17
-2.47548e-17
-2.47353e-17
-2.47416e-17
-2.47128e-17
-2.46972e-17
-2.45863e-17
-2.4666e-17
-2.45408e-17
-2.45603e-17
-2.46847e-17
-2.47878e-17
-2.47041e-17
-2.46211e-17
-2.45569e-17
-2.45198e-17
-2.44266e-17
-2.49485e-17
-2.46941e-17
-2.45058e-17
-2.42783e-17
-2.45404e-17
-2.4748e-17
-2.508e-17
-2.51512e-17
-2.51018e-17
-2.50833e-17
-2.50973e-17
-2.49456e-17
-2.43949e-17
-2.45358e-17
-2.46436e-17
-2.46647e-17
-2.47243e-17
-2.48631e-17
-2.50783e-17
-2.4718e-17
-2.44015e-17
-2.46213e-17
-2.47457e-17
-2.4649e-17
-2.4413e-17
-2.46385e-17
-2.47673e-17
-2.4787e-17
-2.48762e-17
-2.47348e-17
-2.46824e-17
-2.47652e-17
-2.47644e-17
-2.46036e-17
-2.48593e-17
-2.47887e-17
-2.4853e-17
-2.4707e-17
-2.45571e-17
-2.47029e-17
-2.47001e-17
-2.4575e-17
-2.47954e-17
-2.46962e-17
-2.45968e-17
-2.47167e-17
-2.43567e-17
-2.44613e-17
-2.43829e-17
-2.49507e-17
-2.49624e-17
-2.4343e-17
-2.44562e-17
-2.45173e-17
-2.45721e-17
-2.46202e-17
-2.46364e-17
-2.4621e-17
-2.45902e-17
-2.45918e-17
-2.4587e-17
-2.45344e-17
-2.43941e-17
-2.4228e-17
-2.44745e-17
-2.45871e-17
-2.46383e-17
-2.46404e-17
-2.45628e-17
-2.43841e-17
-2.4599e-17
-2.47611e-17
-2.49487e-17
-2.52241e-17
-2.49992e-17
-2.48991e-17
-2.49573e-17
-2.50797e-17
-2.49951e-17
-2.4785e-17
-2.45661e-17
-2.46968e-17
-2.47856e-17
-2.47195e-17
-2.47534e-17
-2.46987e-17
-2.45616e-17
-2.46667e-17
-2.46197e-17
-2.48682e-17
-2.47453e-17
-2.45646e-17
-2.45676e-17
-2.45767e-17
-2.43575e-17
-2.47092e-17
-2.46233e-17
-2.45227e-17
-2.45789e-17
-2.46635e-17
-2.46549e-17
-2.45849e-17
-2.45839e-17
-2.45954e-17
-2.46165e-17
-2.47058e-17
-2.49176e-17
-2.46751e-17
-2.45907e-17
-2.45878e-17
-2.45579e-17
-2.44795e-17
-2.42989e-17
-2.46142e-17
-2.49912e-17
-2.49042e-17
-2.50324e-17
-2.48146e-17
-2.48167e-17
-2.49568e-17
-2.44925e-17
-2.44753e-17
-2.43561e-17
-2.45874e-17
-2.45782e-17
-2.44012e-17
-2.46753e-17
-2.48374e-17
-2.46111e-17
-2.46957e-17
-2.46873e-17
-2.45965e-17
-2.49426e-17
-2.47821e-17
-2.47142e-17
-2.46316e-17
-2.43527e-17
-2.46808e-17
-2.4666e-17
-2.47447e-17
-2.48883e-17
-2.47092e-17
-2.46799e-17
-2.47118e-17
-2.47695e-17
-2.46997e-17
-2.46616e-17
-2.46283e-17
-2.45308e-17
-2.46106e-17
-2.46316e-17
-2.46374e-17
-2.46648e-17
-2.46323e-17
-2.45957e-17
-2.47114e-17
-2.49212e-17
-2.4683e-17
-2.46746e-17
-2.49485e-17
-2.47714e-17
-2.47377e-17
-2.4946e-17
-2.4746e-17
-2.46861e-17
-2.47011e-17
-2.47154e-17
-2.47014e-17
-2.47084e-17
-2.4715e-17
-2.46917e-17
-2.4684e-17
-2.47338e-17
-2.47807e-17
-2.47699e-17
-2.47222e-17
-2.46645e-17
-2.47992e-17
-2.47273e-17
-2.45539e-17
-2.47282e-17
-2.47027e-17
-2.49143e-17
-2.476e-17
-2.46837e-17
-2.45926e-17
-2.47213e-17
-2.48174e-17
-2.43562e-17
-2.45564e-17
-2.50412e-17
-2.4781e-17
-2.46837e-17
-2.47362e-17
-2.4526e-17
-2.46235e-17
-2.47108e-17
-2.48291e-17
-2.48327e-17
-2.47038e-17
-2.46574e-17
-2.47291e-17
-2.50436e-17
-2.50319e-17
-2.47583e-17
-2.49164e-17
-2.46967e-17
-2.4441e-17
-2.42643e-17
-2.48572e-17
-2.49758e-17
-2.45497e-17
-2.40674e-17
-2.40395e-17
-2.43502e-17
-2.45101e-17
-2.45981e-17
-2.46068e-17
-2.45925e-17
-2.45298e-17
-2.42201e-17
-2.42224e-17
-2.45569e-17
-2.46919e-17
-2.46958e-17
-2.47079e-17
-2.4585e-17
-2.45135e-17
-2.48877e-17
-2.47862e-17
-2.4733e-17
-2.45332e-17
-2.47335e-17
-2.48735e-17
-2.47164e-17
-2.47011e-17
-2.48725e-17
-2.47126e-17
-2.44502e-17
-2.46105e-17
-2.47467e-17
-2.47732e-17
-2.45406e-17
-2.46328e-17
-2.46467e-17
-2.47245e-17
-2.49667e-17
-2.47163e-17
-2.46482e-17
-2.45559e-17
-2.44129e-17
-2.44732e-17
-2.43122e-17
-2.47199e-17
-2.43884e-17
-2.49285e-17
-2.49046e-17
-2.42748e-17
-2.432e-17
-2.42622e-17
-2.46167e-17
-2.49308e-17
-2.46961e-17
-2.46201e-17
-2.46685e-17
-2.4801e-17
-2.50145e-17
-2.46438e-17
-2.43311e-17
-2.45603e-17
-2.46628e-17
-2.46965e-17
-2.45674e-17
-2.4389e-17
-2.45486e-17
-2.45652e-17
-2.4639e-17
-2.45016e-17
-2.44153e-17
-2.50034e-17
-2.47803e-17
-2.46794e-17
-2.47386e-17
-2.48889e-17
-2.47148e-17
-2.47124e-17
-2.47196e-17
-2.46419e-17
-2.44274e-17
-2.44366e-17
-2.46093e-17
-2.46324e-17
-2.46392e-17
-2.48201e-17
-2.4827e-17
-2.46349e-17
-2.45035e-17
-2.44679e-17
-2.4701e-17
-2.46386e-17
-2.46493e-17
-2.48683e-17
-2.44772e-17
-2.45266e-17
-2.45282e-17
-2.45501e-17
-2.45461e-17
-2.44267e-17
-2.42875e-17
-2.48022e-17
-2.46969e-17
-2.46226e-17
-2.45965e-17
-2.45854e-17
-2.45743e-17
-2.45335e-17
-2.44367e-17
-2.42839e-17
-2.45853e-17
-2.47467e-17
-2.49348e-17
-2.44221e-17
-2.44142e-17
-2.46354e-17
-2.47383e-17
-2.47114e-17
-2.4723e-17
-2.47269e-17
-2.46334e-17
-2.50486e-17
-2.47925e-17
-2.47284e-17
-2.47065e-17
-2.4717e-17
-2.46747e-17
-2.48021e-17
-2.46993e-17
-2.46651e-17
-2.46033e-17
-2.46018e-17
-2.45072e-17
-2.45907e-17
-2.45039e-17
-2.46329e-17
-2.46093e-17
-2.45337e-17
-2.46059e-17
-2.46098e-17
-2.46241e-17
-2.46962e-17
-2.45875e-17
-2.44292e-17
-2.43428e-17
-2.45166e-17
-2.46719e-17
-2.44989e-17
-2.41854e-17
-2.44127e-17
-2.45222e-17
-2.45611e-17
-2.45776e-17
-2.4561e-17
-2.45658e-17
-2.45497e-17
-2.4505e-17
-2.44466e-17
-2.42613e-17
-2.44797e-17
-2.47422e-17
-2.50607e-17
-2.48781e-17
-2.45821e-17
-2.46045e-17
-2.45353e-17
-2.46988e-17
-2.46716e-17
-2.46657e-17
-2.47127e-17
-2.45935e-17
-2.48099e-17
-2.47319e-17
-2.47334e-17
-2.47616e-17
-2.46744e-17
-2.46264e-17
-2.45878e-17
-2.46735e-17
-2.46876e-17
-2.45557e-17
-2.46323e-17
-2.48134e-17
-2.46995e-17
-2.47746e-17
-2.47488e-17
-2.45038e-17
-2.46469e-17
-2.48086e-17
-2.46912e-17
-2.45908e-17
-2.44581e-17
-2.45045e-17
-2.45619e-17
-2.45363e-17
-2.45629e-17
-2.4585e-17
-2.46133e-17
-2.46621e-17
-2.49276e-17
-2.46853e-17
-2.4649e-17
-2.49002e-17
-2.47798e-17
-2.4917e-17
-2.46575e-17
-2.45042e-17
-2.43272e-17
-2.48326e-17
-2.48391e-17
-2.49311e-17
-2.46459e-17
-2.44785e-17
-2.45428e-17
-2.45997e-17
-2.45029e-17
-2.46e-17
-2.46445e-17
-2.47284e-17
-2.48306e-17
-2.48986e-17
-2.47777e-17
-2.47933e-17
-2.48147e-17
-2.49735e-17
-2.45243e-17
-2.44441e-17
-2.47729e-17
-2.47518e-17
-2.49037e-17
-2.47838e-17
-2.43316e-17
-2.45932e-17
-2.44051e-17
-2.42401e-17
-2.45477e-17
-2.4654e-17
-2.47864e-17
-2.47127e-17
-2.48227e-17
-2.48471e-17
-2.45666e-17
-2.44079e-17
-2.45569e-17
-2.45477e-17
-2.45082e-17
-2.45922e-17
-2.46963e-17
-2.468e-17
-2.48876e-17
-2.46663e-17
-2.46091e-17
-2.43589e-17
-2.42494e-17
-2.43073e-17
-2.44469e-17
-2.45223e-17
-2.44468e-17
-2.43949e-17
-2.45572e-17
-2.46569e-17
-2.45326e-17
-2.44462e-17
-2.46169e-17
-2.47906e-17
-2.47299e-17
-2.48043e-17
-2.48864e-17
-2.50238e-17
-2.47436e-17
-2.45641e-17
-2.47499e-17
-2.49947e-17
-2.50905e-17
-2.49948e-17
-2.46336e-17
-2.43812e-17
-2.45372e-17
-2.47024e-17
-2.47663e-17
-2.46677e-17
-2.44626e-17
-2.45755e-17
-2.44339e-17
-2.44507e-17
-2.46532e-17
-2.48264e-17
-2.46862e-17
-2.46168e-17
-2.46554e-17
-2.45952e-17
-2.4536e-17
-2.4751e-17
-2.46836e-17
-2.46711e-17
-2.47616e-17
-2.45865e-17
-2.4508e-17
-2.43864e-17
-2.46581e-17
-2.47278e-17
-2.46532e-17
-2.4715e-17
-2.46288e-17
-2.46055e-17
-2.46741e-17
-2.47839e-17
-2.46835e-17
-2.46769e-17
-2.47114e-17
-2.45417e-17
-2.47221e-17
-2.47418e-17
-2.48591e-17
-2.48782e-17
-2.49409e-17
-2.48854e-17
-2.4711e-17
-2.45662e-17
-2.45388e-17
-2.46812e-17
-2.4752e-17
-2.47946e-17
-2.50433e-17
-2.47984e-17
-2.46895e-17
-2.46724e-17
-2.48674e-17
-2.4738e-17
-2.47929e-17
-2.45052e-17
-2.44814e-17
-2.4683e-17
-2.48011e-17
-2.468e-17
-2.47089e-17
-2.48701e-17
-2.48153e-17
-2.45508e-17
-2.47334e-17
-2.47048e-17