/*--------------------------------*- C++ -*----------------------------------*\
  =========                 |
  \\      /  F ield         | OpenFOAM: The Open Source CFD Toolbox
   \\    /   O peration     | Website:  https://openfoam.org
    \\  /    A nd           | Version:  7
     \\/     M anipulation  |
\*---------------------------------------------------------------------------*/
FoamFile
{
    version     2.0;
    format      ascii;
    class       volScalarField;
    location    "96000";
    object      strainRate;
}
// * * * * * * * * * * * * * * * * * * * * * * * * * * * * * * * * * * * * * //

dimensions      [0 0 -1 0 0 0 0];

internalField   nonuniform List<scalar> 
4844
(
0.00726809
0.00736407
0.00746793
0.00765211
0.00774492
0.00784544
0.0079533
0.00806807
0.00818938
0.00831687
0.00845018
0.00802441
0.00811445
0.00821204
0.0083168
0.00842841
0.00854651
0.00867077
0.00880083
0.00893632
0.0090768
0.00922198
0.00838652
0.00847413
0.00856917
0.00867126
0.00878013
0.00889545
0.00901694
0.00914417
0.00927685
0.0094146
0.00955717
0.00970418
0.00985532
0.0100103
0.0101688
0.0103917
0.00873988
0.00882538
0.00891819
0.00901799
0.00912451
0.00923745
0.00935656
0.00948142
0.0096117
0.00974716
0.00988754
0.0100324
0.0101815
0.0103346
0.0104915
0.0107116
0.00908577
0.00916946
0.00926034
0.00935819
0.00946272
0.00957367
0.00969079
0.00981365
0.00994195
0.0100755
0.0102141
0.0103573
0.0105048
0.0106566
0.0108121
0.0110299
0.00950755
0.0095968
0.00969301
0.00979588
0.00990519
0.0100206
0.0101419
0.0102686
0.0104007
0.0105378
0.0106798
0.0108262
0.0109768
0.0111314
0.0113473
0.00984071
0.00992864
0.0100235
0.010125
0.010233
0.0103471
0.0104671
0.0105926
0.0107236
0.0108597
0.0110007
0.0111463
0.0112962
0.0114502
0.0116645
0.01017
0.0102569
0.0103506
0.010451
0.010558
0.0106711
0.0107901
0.0109149
0.011045
0.0111804
0.0113208
0.0114659
0.0116154
0.0117691
0.0119821
0.0104174
0.0104963
0.0105824
0.0106753
0.010775
0.0108812
0.0109936
0.0111119
0.0112361
0.0113657
0.0115008
0.0116409
0.0117857
0.011935
0.0120887
0.0123006
0.0107423
0.0108207
0.0109061
0.0109984
0.0110976
0.0112033
0.0113152
0.0114332
0.011557
0.0116865
0.0118214
0.0119613
0.0121062
0.0122556
0.0124094
0.0126204
0.0110658
0.0111438
0.0112288
0.0113208
0.0114196
0.011525
0.0116367
0.0117545
0.0118783
0.0120078
0.0121427
0.0122828
0.0124279
0.0125776
0.0127316
0.012942
0.0113888
0.0114665
0.0115513
0.0116431
0.0117417
0.011847
0.0119587
0.0120766
0.0122004
0.0123301
0.0124652
0.0126056
0.0127511
0.0129011
0.0130557
0.0132655
0.0116416
0.0117117
0.0117893
0.0118741
0.0119659
0.0120646
0.0121699
0.0122816
0.0123997
0.0125238
0.0126538
0.0127894
0.0129302
0.0130761
0.0132267
0.0133818
0.0135912
0.0119652
0.0120354
0.012113
0.0121978
0.0122897
0.0123886
0.0124941
0.0126061
0.0127245
0.012849
0.0129794
0.0131154
0.0132568
0.0134032
0.0135544
0.0137102
0.0139192
0.0122269
0.0122898
0.0123602
0.0124379
0.012523
0.0126152
0.0127143
0.01282
0.0129324
0.0130512
0.0131762
0.0133071
0.0134437
0.0135856
0.0137326
0.0138845
0.0140409
0.0142497
0.012553
0.012616
0.0126866
0.0127645
0.0128498
0.0129424
0.0130418
0.0131479
0.0132608
0.0133801
0.0135055
0.0136371
0.0137743
0.0139169
0.0140645
0.0142171
0.0143743
0.0145829
0.0128808
0.0129441
0.0130149
0.0130931
0.0131788
0.0132717
0.0133715
0.0134781
0.0135915
0.0137113
0.0138373
0.0139695
0.0141074
0.0142507
0.0143991
0.0145524
0.0147104
0.0149188
0.0132108
0.0132743
0.0133454
0.0134239
0.01351
0.0136033
0.0137036
0.0138107
0.0139246
0.014045
0.0141717
0.0143045
0.0144432
0.0145873
0.0147365
0.0148907
0.0150495
0.0152579
0.0135431
0.0136068
0.0136782
0.0137572
0.0138436
0.0139374
0.0140381
0.0141459
0.0142604
0.0143814
0.0145088
0.0146424
0.0147819
0.0149269
0.015077
0.0152322
0.0153919
0.0156003
0.013878
0.0139419
0.0140136
0.0140931
0.01418
0.0142742
0.0143754
0.0144838
0.0145989
0.0147207
0.014849
0.0149834
0.0151237
0.0152697
0.0154209
0.0155771
0.0157378
0.0159464
0.0142155
0.0142798
0.0143519
0.0144318
0.0145192
0.0146138
0.0147157
0.0148248
0.0149406
0.0150632
0.0151923
0.0153276
0.015469
0.015616
0.0157683
0.0159258
0.0160876
0.0162963
0.0145559
0.0146206
0.0146932
0.0147735
0.0148615
0.0149567
0.0150592
0.015169
0.0152856
0.0154091
0.0155391
0.0156755
0.0158179
0.0159661
0.0161197
0.0162785
0.0164416
0.0166502
0.0148995
0.0149646
0.0150377
0.0151185
0.0152071
0.015303
0.0154062
0.0155168
0.0156343
0.0157587
0.0158897
0.0160272
0.0161708
0.0163203
0.0164754
0.0166356
0.0168001
0.0170083
0.0152465
0.0153121
0.0153856
0.0154671
0.0155563
0.0156529
0.015757
0.0158684
0.0159868
0.0161122
0.0162443
0.0163831
0.016528
0.0166789
0.0168355
0.0169974
0.0171633
0.0173709
0.0155971
0.0156633
0.0157374
0.0158195
0.0159093
0.0160067
0.0161117
0.016224
0.0163435
0.0164699
0.0166033
0.0167434
0.0168896
0.0170421
0.0172004
0.017364
0.0175316
0.0177382
0.0159517
0.0160184
0.0160932
0.0161759
0.0162665
0.0163648
0.0164707
0.016584
0.0167046
0.0168322
0.0169669
0.0171084
0.0172561
0.0174102
0.0175703
0.0177358
0.0179055
0.018111
0.0163105
0.0163778
0.0164533
0.0165367
0.0166281
0.0167273
0.0168342
0.0169486
0.0170703
0.0171993
0.0173354
0.0174783
0.0176275
0.0177835
0.0179454
0.0181131
0.0182858
0.0184965
0.0166739
0.0167418
0.016818
0.0169022
0.0169944
0.0170946
0.0172026
0.0173181
0.0174411
0.0175715
0.017709
0.0178536
0.0180044
0.0181623
0.0183265
0.018497
0.0186758
0.0189056
0.0170421
0.0171106
0.0171876
0.0172726
0.0173657
0.017467
0.0175761
0.0176928
0.0178172
0.017949
0.018088
0.0182344
0.0183873
0.0185478
0.0187171
0.0188955
0.0190866
0.0193394
0.0173546
0.0174154
0.0174846
0.0175624
0.0176483
0.0177423
0.0178448
0.0179551
0.018073
0.0181989
0.0183324
0.0184734
0.0186223
0.018781
0.0189487
0.0191287
0.019321
0.0195269
0.0197911
0.0177327
0.0177941
0.017864
0.0179428
0.0180295
0.0181246
0.0182282
0.0183401
0.0184596
0.0185875
0.0187248
0.0188716
0.0190273
0.0191973
0.0193777
0.01957
0.0197741
0.0199897
0.0202544
0.0180631
0.0181164
0.0181785
0.0182493
0.0183291
0.0184169
0.0185134
0.0186186
0.0187333
0.0188576
0.0189914
0.019137
0.0192946
0.0194623
0.0196428
0.0198339
0.0200344
0.0202442
0.0204631
0.0207245
0.0184526
0.0185067
0.0185697
0.0186416
0.0187226
0.0188136
0.0189143
0.0190243
0.0191454
0.019279
0.0194233
0.0195791
0.0197462
0.0199237
0.0201103
0.0203062
0.0205103
0.0207221
0.0209408
0.0211986
0.0188518
0.0189081
0.0189737
0.0190489
0.0191336
0.0192309
0.0193392
0.0194578
0.0195877
0.0197296
0.0198827
0.0200454
0.0202174
0.0203993
0.0205886
0.020786
0.020991
0.0212028
0.0214201
0.0216748
0.0192717
0.0193322
0.0194028
0.0194837
0.019575
0.0196784
0.0197931
0.0199189
0.0200552
0.0202015
0.0203584
0.0205242
0.0206983
0.0208815
0.0210715
0.0212689
0.0214734
0.0216843
0.0219
0.0221526
0.0197216
0.0197859
0.0198607
0.0199464
0.0200431
0.0201501
0.0202678
0.0203969
0.0205357
0.0206839
0.020842
0.0210087
0.0211833
0.0213663
0.0215561
0.0217528
0.0219565
0.0221662
0.0223809
0.0226322
0.0201954
0.0202616
0.0203385
0.0204265
0.0205254
0.0206342
0.020753
0.020883
0.0210225
0.0211711
0.021329
0.0214954
0.0216698
0.021852
0.0220413
0.0222375
0.0224405
0.0226492
0.0228635
0.0231143
0.0206815
0.0207485
0.0208263
0.0209151
0.0210144
0.0211238
0.0212429
0.0213727
0.0215118
0.0216601
0.0218174
0.0219831
0.0221571
0.0223387
0.0225274
0.0227234
0.0229261
0.0231346
0.0233492
0.0236002
0.0211734
0.0212405
0.0213185
0.0214074
0.0215065
0.0216159
0.0217348
0.0218638
0.0220023
0.0221501
0.0223069
0.022472
0.0226456
0.0228269
0.0230156
0.0232118
0.0234147
0.0236236
0.023839
0.0240909
0.0216679
0.0217347
0.0218126
0.0219013
0.0220001
0.0221091
0.0222278
0.0223562
0.0224942
0.0226415
0.0227979
0.0229628
0.0231363
0.0233178
0.023507
0.0237038
0.0239075
0.0241176
0.0243343
0.0245875
0.0221638
0.0222303
0.0223079
0.0223963
0.022495
0.0226037
0.0227223
0.0228503
0.0229882
0.0231352
0.0232917
0.0234567
0.0236306
0.0238127
0.024003
0.024201
0.024406
0.0246177
0.0248363
0.0250912
0.0226614
0.0227276
0.0228051
0.0228932
0.0229919
0.0231006
0.0232191
0.0233472
0.0234853
0.0236326
0.0237894
0.0239551
0.0241298
0.0243131
0.0245048
0.0247045
0.0249112
0.0251252
0.0253461
0.0256031
0.0231616
0.0232276
0.0233051
0.0233932
0.0234922
0.023601
0.0237197
0.0238482
0.0239869
0.024135
0.0242925
0.0244594
0.0246352
0.0248201
0.0250136
0.0252155
0.0254244
0.025641
0.0258645
0.0261242
0.0236655
0.0237315
0.0238092
0.0238976
0.0239969
0.0241061
0.0242254
0.0243547
0.0244942
0.0246435
0.0248022
0.0249706
0.025148
0.025335
0.0255307
0.025735
0.0259466
0.026166
0.0263926
0.0266554
0.0241744
0.0242408
0.0243188
0.0244078
0.0245075
0.0246174
0.0247374
0.0248679
0.0250085
0.0251595
0.0253196
0.0254898
0.0256692
0.0258586
0.0260571
0.0262639
0.0264786
0.0267012
0.0269312
0.0271974
0.0246897
0.0247567
0.0248352
0.024925
0.0250252
0.025136
0.0252573
0.025389
0.0255312
0.0256839
0.0258459
0.0260181
0.0262
0.0263921
0.0265935
0.0268032
0.0270214
0.0272475
0.0274811
0.0277509
0.0252128
0.0252804
0.0253596
0.0254502
0.0255513
0.0256632
0.0257861
0.0259192
0.0260633
0.0262179
0.0263821
0.0265566
0.0267413
0.0269363
0.0271407
0.0273538
0.0275758
0.0278055
0.0280432
0.0283168
0.0257447
0.0258131
0.0258932
0.0259846
0.0260868
0.0262001
0.0263248
0.0264597
0.0266059
0.0267624
0.0269292
0.0271062
0.0272941
0.0274922
0.0276998
0.0279165
0.0281423
0.0283761
0.0286181
0.0288957
0.0262865
0.0263559
0.0264369
0.0265293
0.0266329
0.0267477
0.0268744
0.0270114
0.0271597
0.0273185
0.027488
0.027668
0.0278591
0.0280603
0.0282714
0.028492
0.0287217
0.0289598
0.0292065
0.0294884
0.0268392
0.0269097
0.0269919
0.0270853
0.0271905
0.027307
0.0274357
0.0275751
0.0277258
0.027887
0.0280594
0.0282427
0.0284371
0.0286415
0.0288564
0.029081
0.0293148
0.0295576
0.0298089
0.0300955
0.0274036
0.0274754
0.0275588
0.0276536
0.0277605
0.0278789
0.0280098
0.0281518
0.0283049
0.0284689
0.0286443
0.028831
0.0290287
0.0292366
0.0294555
0.0296842
0.0299223
0.03017
0.0304263
0.0307177
0.0279806
0.0280538
0.0281385
0.0282349
0.0283436
0.0284642
0.0285972
0.028742
0.0288977
0.0290648
0.0292432
0.0294336
0.0296348
0.0298465
0.0300694
0.0303025
0.0305451
0.0307979
0.0310594
0.0313558
0.0285709
0.0286457
0.0287318
0.0288301
0.0289408
0.0290637
0.0291989
0.0293464
0.029505
0.0296752
0.029857
0.0300511
0.0302559
0.0304718
0.0306988
0.0309364
0.0311839
0.0314419
0.031709
0.0320104
0.0291757
0.029252
0.0293397
0.0294398
0.0295526
0.0296782
0.0298157
0.0299658
0.0301274
0.0303011
0.0304865
0.0306841
0.0308929
0.0311131
0.0313444
0.0315868
0.0318395
0.0321029
0.0323757
0.0326824
0.0301801
0.0303083
0.0304485
0.0306011
0.0307658
0.030943
0.0311323
0.0313335
0.0315465
0.0317711
0.032007
0.0322544
0.0325127
0.0327817
0.0330604
0.0333724
0.031421
0.0316019
0.031795
0.0320002
0.0322175
0.0324468
0.0326875
0.0329401
0.0332042
0.0334792
0.0337638
0.0340813
0.0116653
0.011451
0.0119828
0.0117699
0.0123013
0.0120894
0.0126211
0.01241
0.0122563
0.0129426
0.0127322
0.0125781
0.013266
0.0130562
0.0129015
0.0127514
0.0135916
0.0133822
0.013227
0.0130764
0.0139195
0.0137104
0.0135546
0.0134034
0.01425
0.0140411
0.0138847
0.0137328
0.0135858
0.014583
0.0143744
0.0142172
0.0140646
0.013917
0.014919
0.0147104
0.0145525
0.0143991
0.0142507
0.015258
0.0150495
0.0148907
0.0147365
0.0145872
0.0156003
0.0153919
0.0152322
0.015077
0.0149266
0.0159463
0.0157378
0.0155772
0.0154209
0.0152694
0.0162961
0.0160876
0.0159259
0.0157684
0.0156158
0.0154685
0.0166499
0.0164415
0.0162786
0.0161198
0.0159659
0.0158174
0.017008
0.0167998
0.0166356
0.0164753
0.01632
0.0161702
0.0160265
0.0173706
0.0171629
0.0169971
0.0168353
0.0166785
0.0165273
0.0163822
0.0162434
0.0177379
0.0175312
0.0173636
0.0172
0.0170416
0.0168889
0.0167424
0.0166024
0.0164689
0.0181108
0.0179051
0.0177353
0.0175698
0.0174096
0.0172553
0.0171073
0.0169659
0.0168312
0.0167037
0.0184962
0.0182853
0.0181125
0.0179448
0.0177827
0.0176267
0.0174773
0.0173343
0.0171983
0.0170694
0.0189049
0.0186751
0.0184964
0.0183258
0.0181615
0.0180034
0.0178525
0.0177078
0.0175704
0.0174401
0.0193384
0.0190854
0.0188945
0.0187161
0.0185469
0.0183863
0.0182333
0.0180868
0.0179478
0.0178162
0.0197901
0.0195256
0.0193195
0.0191272
0.0189478
0.0187801
0.0186212
0.0184722
0.0183313
0.018198
0.0202535
0.0199888
0.0197725
0.0195685
0.0193767
0.0191966
0.0190265
0.0188707
0.018724
0.0185866
0.0207239
0.0204626
0.0202432
0.0200334
0.0198332
0.0196427
0.0194624
0.0192945
0.0191371
0.0189913
0.0211982
0.0209408
0.0207217
0.0205101
0.0203062
0.0201109
0.0199247
0.0197472
0.0195802
0.0194245
0.0216747
0.0214204
0.0212031
0.0209917
0.0207869
0.02059
0.020401
0.0202194
0.0200473
0.0198848
0.0221528
0.0219007
0.0216851
0.0214748
0.0212707
0.0210735
0.0208837
0.0207009
0.0205266
0.0203609
0.0226327
0.0223818
0.0221676
0.0219584
0.0217552
0.0215586
0.0213689
0.0211862
0.0210114
0.0208447
0.0231149
0.0228646
0.0226511
0.0224426
0.0222402
0.0220441
0.0218549
0.0216728
0.0214983
0.0213317
0.0236007
0.0233502
0.0231367
0.0229283
0.0227262
0.0225304
0.0223417
0.02216
0.0219862
0.0218202
0.0116654
0.011983
0.0123015
0.0126213
0.0129427
0.0132662
0.0135918
0.0139197
0.0142501
0.0145832
0.0149192
0.0152582
0.0156006
0.0159466
0.0162964
0.0166502
0.0170083
0.0173709
0.0177381
0.018111
0.0184963
0.0189049
0.0193385
0.0197902
0.0202536
0.0207241
0.0211983
0.0216747
0.0221525
0.0226321
0.0231143
0.0236002
0.0114515
0.0117704
0.0120898
0.0124105
0.0127326
0.0130566
0.0133826
0.0137109
0.0140415
0.0143748
0.0147109
0.01505
0.0153924
0.0157383
0.0160881
0.0164421
0.0168005
0.0171637
0.0175319
0.0179057
0.0182859
0.0186756
0.0190858
0.0195257
0.0199887
0.0204623
0.0209403
0.0214197
0.0218996
0.0223805
0.0228632
0.0233488
0.0238386
0.0112978
0.011617
0.0119365
0.0122569
0.0125787
0.0129022
0.0132277
0.0135554
0.0138854
0.014218
0.0145533
0.0148915
0.0152329
0.0155778
0.0159265
0.0162793
0.0166364
0.0169981
0.0173647
0.0177364
0.0181137
0.0184975
0.0188955
0.0193201
0.0197728
0.0202429
0.020721
0.021202
0.0216837
0.0221658
0.022649
0.0231344
0.0236235
0.0241174
0.0246173
0.0251246
0.0256403
0.0261652
0.0111482
0.0114677
0.0117874
0.0121077
0.0124293
0.0127524
0.0130773
0.0134044
0.0137338
0.0140656
0.0144001
0.0147375
0.015078
0.0154218
0.0157692
0.0161207
0.0164764
0.0168365
0.0172013
0.0175711
0.0179462
0.0183272
0.0187175
0.0191283
0.019569
0.0200332
0.0205092
0.0209901
0.0214727
0.0219559
0.0224398
0.0229255
0.0234141
0.0239068
0.0244052
0.0249105
0.0254237
0.0259458
0.0110029
0.0113229
0.0116428
0.0119631
0.0122844
0.0126072
0.0129317
0.0132583
0.013587
0.0139181
0.0142519
0.0145884
0.014928
0.0152708
0.0156171
0.0159672
0.0163214
0.01668
0.0170432
0.0174112
0.0177844
0.0181632
0.0185486
0.0189491
0.0193773
0.019833
0.0203052
0.0207851
0.0212679
0.0217517
0.0222363
0.0227223
0.0232107
0.0237027
0.0241999
0.0247034
0.0252145
0.025734
0.010862
0.0111827
0.011503
0.0118233
0.0121445
0.012467
0.0127911
0.0131171
0.0134453
0.0137758
0.0141089
0.0144447
0.0147833
0.0151251
0.0154703
0.0158193
0.0161722
0.0165293
0.0168908
0.0172572
0.0176286
0.0180054
0.0183883
0.0187816
0.0191969
0.0196418
0.0201089
0.0205871
0.0210699
0.0215544
0.0220397
0.0225261
0.0230145
0.023506
0.024002
0.0245038
0.0250128
0.0255299
0.0260563
0.010726
0.0110475
0.0113681
0.0116887
0.0120098
0.012332
0.0126557
0.0129813
0.013309
0.013639
0.0139714
0.0143064
0.0146442
0.0149851
0.0153293
0.015677
0.0160287
0.0163845
0.0167447
0.0171096
0.0174795
0.0178546
0.0182353
0.0186231
0.0190276
0.0194616
0.0199222
0.0203974
0.0208794
0.0213642
0.0218501
0.022337
0.0228256
0.0233167
0.0238118
0.0243122
0.0248194
0.0253344
0.0258582
0.0105951
0.0109173
0.0112385
0.0115594
0.0118806
0.0122027
0.0125261
0.0128512
0.0131784
0.0135077
0.0138395
0.0141738
0.0145108
0.0148509
0.0151941
0.0155409
0.0158914
0.016246
0.0166048
0.0169682
0.0173365
0.01771
0.018089
0.0184743
0.018872
0.0192939
0.0197446
0.0202154
0.0206962
0.0211813
0.021668
0.0221556
0.0226443
0.0231352
0.0236296
0.024129
0.0246346
0.0251477
0.0256692
0.0104695
0.0107927
0.0111145
0.0114357
0.011757
0.012079
0.0124022
0.012727
0.0130537
0.0133825
0.0137136
0.0140472
0.0143835
0.0147228
0.0150652
0.015411
0.0157605
0.0161139
0.0164715
0.0168336
0.0172005
0.0175726
0.0179501
0.0183335
0.0187254
0.0191365
0.0195777
0.0200437
0.0205224
0.0210069
0.0214939
0.0219818
0.0224708
0.0229617
0.0234556
0.0239541
0.0244585
0.0249699
0.0254894
0.0103495
0.0106737
0.0109962
0.0113178
0.0116393
0.0119614
0.0122844
0.0126089
0.0129351
0.0132634
0.013594
0.0139269
0.0142626
0.0146011
0.0149426
0.0152876
0.0156361
0.0159885
0.016345
0.0167059
0.0170715
0.0174422
0.0178182
0.0181999
0.0185883
0.0189916
0.0194223
0.0198808
0.0203566
0.0208405
0.0213279
0.0218165
0.0223059
0.0227969
0.0232906
0.0237884
0.0242917
0.0248016
0.0253193
0.0102355
0.0105607
0.0108838
0.0112059
0.0115277
0.0118498
0.0121728
0.012497
0.0128229
0.0131507
0.0134807
0.0138132
0.0141482
0.014486
0.0148269
0.015171
0.0155187
0.01587
0.0162255
0.0165853
0.0169498
0.0173192
0.0176938
0.018074
0.0184605
0.0188581
0.0192784
0.0197282
0.0201999
0.0206824
0.0211698
0.0216592
0.0221495
0.0226411
0.0231349
0.0236323
0.0241345
0.0246429
0.0251589
0.0104538
0.0107778
0.0111004
0.0114225
0.0117447
0.0120675
0.0123916
0.0127171
0.0130446
0.0133742
0.0137062
0.0140407
0.0143779
0.014718
0.0150614
0.0154082
0.0157587
0.0161132
0.016472
0.0168354
0.0172037
0.0175772
0.0179562
0.0183411
0.0187339
0.0191451
0.0195867
0.0200538
0.0205343
0.0210212
0.0215108
0.0220017
0.0224938
0.0229878
0.0234849
0.0239863
0.0244936
0.0250082
0.0106783
0.0110015
0.0113239
0.0116461
0.0119689
0.0122928
0.0126181
0.0129453
0.0132745
0.013606
0.01394
0.0142767
0.0146162
0.0149589
0.015305
0.0156548
0.0160084
0.0163663
0.0167288
0.017096
0.0174683
0.017846
0.0182294
0.0186197
0.0190249
0.0194573
0.0199176
0.0203952
0.0208813
0.0213711
0.0218625
0.022355
0.0228493
0.0233464
0.0238476
0.0243542
0.0248676
0.0105852
0.0109091
0.0112319
0.0115544
0.0118772
0.0122009
0.0125261
0.012853
0.0131819
0.013513
0.0138465
0.0141827
0.0145216
0.0148637
0.0152092
0.0155582
0.0159111
0.0162682
0.0166297
0.016996
0.0173672
0.0177439
0.0181261
0.0185148
0.0189152
0.019339
0.0197921
0.0202665
0.0207515
0.0212412
0.0217329
0.0222258
0.0227203
0.0232174
0.0237183
0.0242243
0.0247369
0.0108237
0.0111469
0.0114696
0.0117925
0.0121162
0.0124411
0.0127677
0.0130964
0.0134271
0.0137603
0.0140961
0.0144346
0.0147761
0.0151209
0.0154692
0.0158214
0.0161778
0.0165385
0.016904
0.0172743
0.0176499
0.0180311
0.0184184
0.0188147
0.0192308
0.0196772
0.0201481
0.0206317
0.0211214
0.0216137
0.0221073
0.0226022
0.0230992
0.0235996
0.0241047
0.0246162
0.0107452
0.0110689
0.0113919
0.0117149
0.0120386
0.0123634
0.0126898
0.0130181
0.0133487
0.0136815
0.0140168
0.0143549
0.014696
0.0150402
0.015388
0.0157396
0.0160952
0.0164553
0.0168199
0.0171895
0.0175643
0.0179445
0.0183306
0.0187239
0.019134
0.0195738
0.0200406
0.0205225
0.0210117
0.0215043
0.0219984
0.0224938
0.022991
0.0234914
0.0239961
0.0245066
0.0109983
0.0113215
0.0116446
0.0119683
0.012293
0.0126192
0.0129473
0.0132776
0.0136101
0.0139451
0.0142828
0.0146235
0.0149673
0.0153146
0.0156656
0.0160207
0.01638
0.0167439
0.0171127
0.0174866
0.0178659
0.0182511
0.0186431
0.0190496
0.019483
0.0199445
0.0204241
0.0209125
0.021405
0.0218994
0.022395
0.0228925
0.0233927
0.0238972
0.0244071
0.0112586
0.0115818
0.0119054
0.0122301
0.0125562
0.0128842
0.0132142
0.0135464
0.0138811
0.0142184
0.0145587
0.0149022
0.015249
0.0155996
0.0159541
0.0163128
0.0166761
0.0170442
0.0174174
0.017796
0.0181804
0.0185713
0.0189748
0.0194025
0.0198593
0.0203366
0.0208243
0.0213167
0.0218112
0.0223071
0.0228046
0.0233048
0.0238089
0.0243185
0.0112032
0.0115265
0.0118503
0.0121749
0.0125009
0.0128287
0.0131584
0.0134905
0.0138249
0.014162
0.014502
0.0148451
0.0151916
0.0155416
0.0158956
0.0162539
0.0166167
0.0169843
0.0173569
0.0177349
0.0181185
0.0185086
0.0189092
0.0193317
0.0197842
0.0202597
0.0207468
0.0212393
0.0217341
0.0222302
0.0227278
0.0232279
0.0237317
0.0242407
0.0111554
0.011479
0.0118028
0.0121274
0.0124533
0.0127809
0.0131105
0.0134424
0.0137767
0.0141136
0.0144533
0.0147961
0.0151422
0.015492
0.0158456
0.0162034
0.0165657
0.0169328
0.0173049
0.0176823
0.0180654
0.0184547
0.018853
0.0192712
0.01972
0.0201937
0.0206802
0.0211725
0.0216674
0.0221638
0.0226616
0.0231617
0.0236653
0.0241737
0.0111155
0.0114392
0.011763
0.0120877
0.0124135
0.012741
0.0130705
0.0134022
0.0137364
0.0140731
0.0144126
0.0147551
0.015101
0.0154505
0.0158039
0.0161614
0.0165233
0.0168899
0.0172616
0.0176386
0.0180212
0.0184099
0.0188063
0.019221
0.0196666
0.0201386
0.0206244
0.0211168
0.0216119
0.0221084
0.0226062
0.0231062
0.0236097
0.024118
0.0114073
0.0117312
0.0120558
0.0123816
0.012709
0.0130384
0.01337
0.013704
0.0140406
0.01438
0.0147224
0.015068
0.0154173
0.0157704
0.0161276
0.0164892
0.0168555
0.0172268
0.0176034
0.0179856
0.0183738
0.0187693
0.019182
0.0196249
0.0200948
0.0205797
0.0210716
0.0215667
0.0220633
0.0225614
0.0230615
0.0235648
0.024073
0.0113834
0.0117073
0.0120319
0.0123577
0.012685
0.0130144
0.0133459
0.0136798
0.0140163
0.0143555
0.0146977
0.0150432
0.0153923
0.0157452
0.0161022
0.0164636
0.0168297
0.0172007
0.017577
0.0179589
0.0183468
0.0187419
0.0191533
0.0195938
0.0200617
0.0205456
0.0210373
0.0215324
0.0220292
0.0225274
0.0230277
0.0235312
0.0240394
0.0116914
0.012016
0.0123417
0.0126691
0.0129983
0.0133298
0.0136636
0.014
0.0143391
0.0146812
0.0150266
0.0153756
0.0157284
0.0160853
0.0164465
0.0168124
0.0171833
0.0175594
0.0179411
0.0183287
0.0187235
0.0191342
0.0195733
0.0200399
0.0205231
0.0210144
0.0215094
0.0220062
0.0225045
0.0230049
0.0235084
0.0240166
0.0116835
0.0120081
0.0123338
0.0126611
0.0129903
0.0133217
0.0136555
0.0139918
0.014331
0.0146731
0.0150184
0.0153673
0.01572
0.0160768
0.016438
0.0168038
0.0171746
0.0175507
0.0179322
0.0183198
0.0187144
0.0191247
0.019563
0.020029
0.0205118
0.021003
0.021498
0.0219948
0.0224931
0.0229934
0.0234969
0.0240051
0.0120082
0.0123339
0.0126612
0.0129904
0.0133218
0.0136556
0.0139919
0.014331
0.0146731
0.0150185
0.0153674
0.0157201
0.0160768
0.016438
0.0168038
0.0171746
0.0175507
0.0179324
0.0183199
0.0187145
0.0191247
0.0195629
0.0200289
0.0205119
0.0210032
0.0214982
0.0219949
0.022493
0.0229931
0.0234965
0.0240045
0.0120163
0.012342
0.0126693
0.0129986
0.01333
0.0136638
0.0140001
0.0143393
0.0146814
0.0150269
0.0153758
0.0157286
0.0160854
0.0164466
0.0168126
0.0171835
0.0175597
0.0179414
0.018329
0.0187237
0.0191343
0.0195732
0.0200399
0.0205231
0.0210145
0.0215095
0.0220061
0.0225042
0.0230044
0.0235077
0.0240157
0.0120323
0.012358
0.0126854
0.0130147
0.0133462
0.01368
0.0140164
0.0143557
0.014698
0.0150435
0.0153927
0.0157456
0.0161026
0.0164639
0.0168299
0.0172009
0.0175772
0.0179591
0.0183469
0.0187419
0.0191534
0.0195941
0.0200622
0.020546
0.0210376
0.0215324
0.0220288
0.0225266
0.0230265
0.0235298
0.024038
0.0120563
0.0123821
0.0127094
0.0130387
0.0133703
0.0137042
0.0140409
0.0143803
0.0147228
0.0150685
0.0154178
0.0157709
0.0161281
0.0164897
0.0168559
0.0172272
0.0176037
0.0179858
0.018374
0.0187696
0.0191825
0.0196255
0.0200954
0.0205799
0.0210714
0.0215662
0.0220625
0.0225603
0.0230603
0.0235637
0.0240718
0.0120881
0.0124139
0.0127414
0.0130708
0.0134026
0.0137368
0.0140735
0.0144132
0.0147558
0.0151017
0.0154511
0.0158044
0.0161619
0.0165238
0.0168905
0.0172621
0.017639
0.0180216
0.0184102
0.0188067
0.0192218
0.0196677
0.0201397
0.0206252
0.0211171
0.0216118
0.0221079
0.0226055
0.0231053
0.0236085
0.0241166
0.0121279
0.0124538
0.0127814
0.013111
0.0134429
0.0137773
0.0141143
0.0144541
0.0147969
0.015143
0.0154927
0.0158463
0.016204
0.0165663
0.0169334
0.0173055
0.0176829
0.018066
0.0184552
0.0188538
0.0192726
0.0197217
0.0201952
0.0206813
0.0211732
0.0216678
0.0221637
0.022661
0.0231608
0.0236641
0.0241726
0.0121755
0.0125016
0.0128293
0.0131592
0.0134912
0.0138257
0.0141629
0.0145029
0.014846
0.0151924
0.0155424
0.0158964
0.0162546
0.0166174
0.016985
0.0173576
0.0177355
0.0181192
0.0185092
0.0189101
0.0193333
0.0197861
0.0202614
0.0207481
0.0212401
0.0217345
0.0222304
0.0227278
0.0232277
0.0237313
0.0242401
0.012231
0.0125571
0.012885
0.013215
0.0135473
0.013882
0.0142194
0.0145597
0.0149031
0.0152499
0.0156003
0.0159548
0.0163136
0.0166769
0.0170451
0.0174183
0.0177969
0.0181812
0.0185722
0.0189759
0.0194041
0.0198611
0.0203384
0.0208258
0.021318
0.0218122
0.0223079
0.0228052
0.023305
0.0238088
0.0243178
0.012294
0.0126203
0.0129484
0.0132786
0.0136111
0.0139461
0.0142838
0.0146243
0.0149681
0.0153154
0.0156664
0.0160215
0.0163808
0.0167447
0.0171135
0.0174875
0.0178669
0.018252
0.018644
0.0190509
0.0194849
0.0199468
0.0204265
0.0209148
0.021407
0.0219009
0.0223962
0.0228932
0.023393
0.0238969
0.0244065
0.0123645
0.0126909
0.0130192
0.0133497
0.0136825
0.0140178
0.0143558
0.0146968
0.0150411
0.0153888
0.0157404
0.0160961
0.0164561
0.0168208
0.0171904
0.0175651
0.0179454
0.0183316
0.018725
0.0191357
0.0195765
0.0200439
0.0205257
0.0210146
0.0215066
0.022
0.0224946
0.0229912
0.0234909
0.0239952
0.0245055
0.0124422
0.0127688
0.0130974
0.0134282
0.0137614
0.0140971
0.0144355
0.014777
0.0151218
0.0154701
0.0158224
0.0161787
0.0165394
0.0169049
0.0172753
0.0176509
0.0180321
0.0184194
0.0188161
0.0192333
0.0196804
0.0201514
0.0206347
0.021124
0.0216157
0.0221087
0.022603
0.0230996
0.0235998
0.0241047
0.0246158
0.012527
0.0128539
0.0131829
0.013514
0.0138476
0.0141838
0.0145228
0.0148648
0.0152102
0.0155592
0.0159121
0.0162692
0.0166308
0.016997
0.0173683
0.0177448
0.018127
0.0185157
0.0189166
0.0193416
0.0197955
0.0202699
0.0207546
0.0212439
0.0217353
0.0222278
0.0227217
0.0232181
0.0237184
0.0242239
0.0247359
0.012619
0.0129462
0.0132755
0.0136071
0.0139411
0.0142779
0.0146174
0.0149601
0.0153061
0.0156558
0.0160095
0.0163674
0.0167298
0.0170971
0.0174694
0.017847
0.0182304
0.0186207
0.0190265
0.0194601
0.0199212
0.0203988
0.0208845
0.0213738
0.0218646
0.0223566
0.0228503
0.0233468
0.0238475
0.0243536
0.0248666
0.0127179
0.0130455
0.0133752
0.0137072
0.0140418
0.0143791
0.0147192
0.0150626
0.0154094
0.0157599
0.0161144
0.0164732
0.0168366
0.0172049
0.0175783
0.0179571
0.0183419
0.0187352
0.0191475
0.01959
0.0200574
0.0205378
0.0210243
0.0215133
0.0220035
0.0224948
0.0229882
0.0234849
0.0239863
0.0244935
0.0250078
0.0128235
0.0131515
0.0134816
0.0138142
0.0141493
0.0144872
0.014828
0.0151721
0.0155197
0.0158711
0.0162266
0.0165864
0.0169509
0.0173202
0.0176948
0.0180749
0.0184613
0.0188594
0.019281
0.0197317
0.0202036
0.0206861
0.0211731
0.0216619
0.0221517
0.0226428
0.0231362
0.0236331
0.0241349
0.024643
0.0251586
0.0129357
0.013264
0.0135946
0.0139277
0.0142635
0.014602
0.0149436
0.0152885
0.015637
0.0159894
0.0163459
0.0167069
0.0170725
0.0174432
0.0178192
0.0182008
0.0185893
0.0189931
0.019425
0.0198843
0.0203603
0.0208441
0.0213313
0.0218196
0.0223088
0.0227996
0.023293
0.0237904
0.0242931
0.0248025
0.0253196
0.0130542
0.013383
0.0137142
0.0140479
0.0143842
0.0147235
0.0150659
0.0154116
0.0157611
0.0161145
0.0164722
0.0168344
0.0172013
0.0175733
0.0179507
0.0183341
0.0187264
0.0191386
0.0195809
0.0200475
0.0205264
0.0210109
0.0214978
0.0219855
0.0224743
0.022965
0.0234587
0.0239567
0.0244605
0.0249712
0.02549
0.0131788
0.0135082
0.01384
0.0141743
0.0145114
0.0148514
0.0151946
0.0155413
0.0158918
0.0162464
0.0166053
0.0169688
0.0173371
0.0177105
0.0180894
0.0184748
0.018873
0.0192963
0.0197484
0.02022
0.020701
0.0211859
0.0216722
0.0221593
0.0226478
0.0231385
0.0236327
0.0241318
0.0246368
0.0251492
0.0256701
0.0133093
0.0136392
0.0139716
0.0143067
0.0146446
0.0149855
0.0153297
0.0156775
0.016029
0.0163848
0.016745
0.0171099
0.0174798
0.0178549
0.0182358
0.0186236
0.0190289
0.0194646
0.0199265
0.0204021
0.0208841
0.0213687
0.0218544
0.022341
0.0228293
0.0233203
0.0238152
0.0243152
0.0248217
0.0253359
0.025859
0.0134454
0.013776
0.0141091
0.014445
0.0147837
0.0151255
0.0154707
0.0158196
0.0161725
0.0165296
0.0168911
0.0172575
0.0176289
0.0180056
0.0183885
0.0187825
0.0191993
0.0196454
0.0201132
0.0205914
0.0210741
0.0215586
0.0220438
0.0225301
0.0230183
0.0235096
0.0240054
0.0245068
0.0250151
0.0255314
0.0260568
0.0135871
0.0139183
0.0142521
0.0145887
0.0149283
0.0152712
0.0156176
0.0159677
0.0163219
0.0166805
0.0170436
0.0174115
0.0177847
0.0181633
0.0185488
0.0189501
0.0193799
0.0198368
0.0203094
0.0207894
0.0212722
0.0217559
0.0222402
0.022726
0.0232142
0.023706
0.0242029
0.0247058
0.0252162
0.025735
0.0262633
0.0137338
0.0140657
0.0144003
0.0147378
0.0150784
0.0154223
0.0157699
0.0161213
0.016477
0.016837
0.0172017
0.0175714
0.0179464
0.0183274
0.0187183
0.0191305
0.0195725
0.0200374
0.0205134
0.0209942
0.0214765
0.0219593
0.0224429
0.0229284
0.0234168
0.0239096
0.0244077
0.0249125
0.0254252
0.0259467
0.0264781
0.0270202
0.027574
0.0281402
0.0287197
0.0138853
0.014218
0.0145534
0.0148917
0.0152333
0.0155784
0.0159272
0.01628
0.0166371
0.0169987
0.0173651
0.0177368
0.0181141
0.018498
0.0188968
0.0193231
0.019777
0.0202473
0.0207251
0.0212056
0.0216869
0.0221687
0.0226518
0.023137
0.0236258
0.0241195
0.0246192
0.0251261
0.0256414
0.026166
0.0267009
0.0272468
0.0278046
0.0283751
0.0289589
0.0140415
0.0143748
0.014711
0.0150503
0.0153929
0.015739
0.0160889
0.0164428
0.0168012
0.0171643
0.0175325
0.0179062
0.0182864
0.0186769
0.0190887
0.01953
0.0199934
0.0204669
0.0209444
0.0214231
0.0219024
0.0223827
0.0228649
0.0233502
0.0238398
0.024335
0.0248368
0.0253464
0.0258649
0.026393
0.0269316
0.0274815
0.0280435
0.0286182
0.0292064
0.0142502
0.0145834
0.0149194
0.0152587
0.0156012
0.0159473
0.0162971
0.016651
0.0170091
0.0173716
0.0177388
0.0181116
0.0184975
0.0189078
0.0193427
0.0197948
0.0202581
0.0207281
0.0212017
0.0216774
0.0221546
0.0226336
0.0231154
0.0236009
0.0240913
0.0245878
0.0250917
0.0256036
0.0261247
0.0266557
0.0271976
0.0277511
0.028317
0.0288959
0.0294884
0.0142502
0.0145834
0.0149195
0.0152587
0.0156012
0.0159472
0.016297
0.0166509
0.0170089
0.0173714
0.0177386
0.0181115
0.0184975
0.0189078
0.0193427
0.0197948
0.0202581
0.0207281
0.0212017
0.0216772
0.0221543
0.0226334
0.0231151
0.0236007
0.0240911
0.0245876
0.0250912
0.0256031
0.0261242
0.0266554
0.0271974
0.027751
0.0283168
0.0288956
0.0294882
0.0140415
0.0143749
0.0147111
0.0150502