/*--------------------------------*- C++ -*----------------------------------*\
  =========                 |
  \\      /  F ield         | OpenFOAM: The Open Source CFD Toolbox
   \\    /   O peration     | Website:  https://openfoam.org
    \\  /    A nd           | Version:  7
     \\/     M anipulation  |
\*---------------------------------------------------------------------------*/
FoamFile
{
    version     2.0;
    format      ascii;
    class       volScalarField;
    location    "8000";
    object      strainRate;
}
// * * * * * * * * * * * * * * * * * * * * * * * * * * * * * * * * * * * * * //

dimensions      [0 0 -1 0 0 0 0];

internalField   nonuniform List<scalar> 
1768
(
0.00815792
0.00819281
0.0082449
0.00831394
0.00858777
0.00855268
0.00853508
0.00853507
0.00855266
0.00858774
0.00864013
0.00870957
0.00955144
0.00941707
0.00929805
0.00919493
0.0091082
0.0090383
0.00898555
0.00895023
0.00893253
0.00893252
0.00895022
0.00898552
0.00903827
0.00910819
0.0099573
0.00982177
0.00970174
0.00959776
0.00951035
0.00943989
0.00938675
0.00935116
0.00933334
0.00933333
0.00935115
0.00938672
0.00943987
0.00951034
0.0103678
0.0102309
0.0101097
0.0100048
0.0099166
0.00984553
0.00979193
0.00975604
0.00973806
0.00973806
0.00975603
0.0097919
0.00984551
0.0099166
0.0120001
0.0116885
0.0114818
0.0112869
0.011105
0.0109369
0.0107834
0.0106451
0.0105226
0.0104166
0.0103275
0.0102558
0.0102017
0.0101654
0.0101473
0.0101473
0.0101654
0.0102016
0.0102558
0.0103275
0.0124318
0.0121213
0.0119119
0.0117145
0.0115303
0.0113601
0.0112047
0.0110648
0.010941
0.0108338
0.0107437
0.0106712
0.0106165
0.0105799
0.0105616
0.0105616
0.0105799
0.0106165
0.0106712
0.0107437
0.0128714
0.0125615
0.0123491
0.012149
0.0119623
0.0117898
0.0116324
0.0114908
0.0113654
0.0112569
0.0111658
0.0110924
0.0110371
0.0110001
0.0109815
0.0109815
0.011
0.0110371
0.0110924
0.0111658
0.0133196
0.0130097
0.0127941
0.012591
0.0124016
0.0122267
0.0120671
0.0119235
0.0117964
0.0116865
0.0115943
0.0115199
0.011464
0.0114265
0.0114077
0.0114077
0.0114265
0.0114639
0.01152
0.0115943
0.0137769
0.0134666
0.0132475
0.0130412
0.0128489
0.0126713
0.0125093
0.0123636
0.0122348
0.0121233
0.0120298
0.0119545
0.0118978
0.0118598
0.0118408
0.0118408
0.0118598
0.0118978
0.0119545
0.0120298
0.0142439
0.0139327
0.01371
0.0135002
0.0133047
0.0131243
0.0129598
0.0128118
0.012681
0.0125679
0.012473
0.0123966
0.0123391
0.0123006
0.0122813
0.0122813
0.0123006
0.0123391
0.0123967
0.0124731
0.0147214
0.0144088
0.0141821
0.0139687
0.0137698
0.0135863
0.013419
0.0132687
0.0131358
0.013021
0.0129246
0.0128471
0.0127886
0.0127496
0.01273
0.01273
0.0127496
0.0127887
0.0128471
0.0129246
0.01521
0.0148955
0.0146646
0.0144473
0.0142448
0.0140581
0.0138879
0.0137349
0.0135998
0.0134831
0.0133851
0.0133064
0.013247
0.0132074
0.0131875
0.0131875
0.0132074
0.0132471
0.0133064
0.0133852
0.0157105
0.0153936
0.0151582
0.0149367
0.0147304
0.0145402
0.0143669
0.0142112
0.0140737
0.0139549
0.0138554
0.0137753
0.013715
0.0136746
0.0136544
0.0136544
0.0136746
0.013715
0.0137753
0.0138554
0.0162234
0.0159038
0.0156636
0.0154377
0.0152274
0.0150334
0.0148568
0.0146982
0.0145582
0.0144373
0.014336
0.0142545
0.0141931
0.0141521
0.0141315
0.0141315
0.0141521
0.0141931
0.0142545
0.014336
0.0167498
0.0164269
0.0161817
0.0159511
0.0157364
0.0155385
0.0153584
0.0151967
0.015054
0.0149309
0.0148277
0.0147447
0.0146822
0.0146405
0.0146195
0.0146195
0.0146404
0.0146822
0.0147447
0.0148277
0.0172902
0.0169637
0.0167131
0.0164775
0.0162583
0.0160563
0.0158725
0.0157075
0.015562
0.0154365
0.0153313
0.0152467
0.015183
0.0151405
0.0151192
0.0151192
0.0151404
0.015183
0.0152466
0.0153312
0.0178457
0.017515
0.0172587
0.0170179
0.0167939
0.0165875
0.0163998
0.0162314
0.0160829
0.0159548
0.0158475
0.0157613
0.0156964
0.015653
0.0156312
0.0156312
0.0156529
0.0156963
0.0157612
0.0158474
0.018417
0.0180818
0.0178195
0.0175732
0.017344
0.0171331
0.0169413
0.0167692
0.0166175
0.0164868
0.0163772
0.0162892
0.016223
0.0161787
0.0161566
0.0161566
0.0161787
0.0162229
0.0162892
0.0163772
0.0190051
0.0186649
0.0183964
0.0181442
0.0179097
0.0176939
0.0174977
0.0173218
0.0171668
0.0170332
0.0169213
0.0168314
0.0167638
0.0167187
0.016696
0.016696
0.0167186
0.0167638
0.0168314
0.0169212
0.019611
0.0192654
0.0189902
0.0187319
0.0184917
0.0182708
0.0180701
0.0178901
0.0177316
0.017595
0.0174806
0.0173888
0.0173197
0.0172736
0.0172505
0.0172505
0.0172736
0.0173197
0.0173887
0.0174806
0.0202358
0.0198842
0.0196021
0.0193372
0.0190911
0.0188649
0.0186593
0.0184751
0.0183129
0.0181731
0.0180561
0.0179622
0.0178916
0.0178445
0.0178209
0.0178209
0.0178445
0.0178916
0.0179622
0.0180561
0.0208804
0.0205225
0.020233
0.0199613
0.019709
0.0194771
0.0192665
0.0190778
0.0189117
0.0187686
0.0186489
0.0185528
0.0184805
0.0184323
0.0184082
0.0184082
0.0184324
0.0184806
0.0185528
0.0186488
0.0215462
0.0211814
0.0208842
0.0206054
0.0203464
0.0201086
0.0198926
0.0196993
0.0195291
0.0193826
0.0192599
0.0191615
0.0190875
0.0190382
0.0190135
0.0190135
0.0190383
0.0190877
0.0191616
0.0192599
0.0222342
0.0218621
0.0215568
0.0212704
0.0210046
0.0207605
0.020539
0.0203407
0.0201662
0.020016
0.0198903
0.0197895
0.0197137
0.0196632
0.0196379
0.0196379
0.0196633
0.0197139
0.0197896
0.0198903
0.0229459
0.0225659
0.022252
0.0219578
0.0216847
0.0214341
0.0212067
0.0210033
0.0208243
0.0206702
0.0205413
0.0204379
0.0203602
0.0203084
0.0202826
0.0202826
0.0203086
0.0203604
0.020438
0.0205413
0.0236825
0.0232941
0.0229713
0.0226688
0.0223881
0.0221306
0.0218971
0.0216882
0.0215045
0.0213463
0.0212141
0.021108
0.0210284
0.0209752
0.0209487
0.0209487
0.0209754
0.0210285
0.0211082
0.0212142
0.0244456
0.0240483
0.0237161
0.0234048
0.0231162
0.0228515
0.0226115
0.0223969
0.0222082
0.0220458
0.02191
0.0218011
0.0217194
0.0216649
0.0216377
0.0216377
0.021665
0.0217196
0.0218013
0.0219101
0.0252368
0.0248299
0.0244879
0.0241674
0.0238705
0.0235982
0.0233514
0.0231308
0.0229369
0.0227699
0.0226305
0.0225187
0.0224347
0.0223787
0.0223508
0.0223508
0.0223789
0.0224349
0.0225189
0.0226306
0.0260577
0.0256407
0.0252883
0.0249582
0.0246525
0.0243723
0.0241183
0.0238914
0.023692
0.0235203
0.023377
0.0232621
0.0231759
0.0231184
0.0230896
0.0230897
0.0231185
0.023176
0.0232623
0.0233772
0.02691
0.0264823
0.026119
0.0257789
0.025464
0.0251754
0.024914
0.0246804
0.0244752
0.0242986
0.0241512
0.024033
0.0239444
0.0238852
0.0238556
0.0238557
0.0238853
0.0239446
0.0240332
0.0241514
0.0277958
0.0273567
0.0269819
0.0266313
0.0263067
0.0260094
0.0257401
0.0254996
0.0252883
0.0251065
0.0249547
0.0248332
0.0247419
0.0246811
0.0246506
0.0246507
0.0246812
0.0247421
0.0248334
0.0249549
0.028717
0.0282659
0.0278791
0.0275173
0.0271826
0.0268761
0.0265986
0.0263507
0.026133
0.0259458
0.0257895
0.0256643
0.0255704
0.0255078
0.0254764
0.0254765
0.0255079
0.0255706
0.0256645
0.0257897
0.0296759
0.029212
0.0288126
0.0284392
0.0280937
0.0277775
0.0274914
0.0272359
0.0270115
0.0268185
0.0266574
0.0265285
0.0264317
0.0263671
0.0263348
0.0263349
0.0263673
0.0264319
0.0265287
0.0266576
0.0306747
0.0301974
0.0297847
0.029399
0.0290424
0.028716
0.0284208
0.0281572
0.0279257
0.0277268
0.0275606
0.0274277
0.0273279
0.0272613
0.027228
0.0272281
0.0272615
0.0273281
0.0274279
0.0275608
0.0317162
0.0312245
0.0307979
0.0303993
0.0300309
0.0296939
0.0293891
0.029117
0.0288781
0.0286728
0.0285014
0.0283642
0.0282612
0.0281925
0.0281582
0.0281583
0.0281927
0.0282614
0.0283644
0.0285016
0.0328029
0.0322962
0.0318548
0.0314427
0.031062
0.0307137
0.0303988
0.0301177
0.029871
0.029659
0.0294821
0.0293405
0.0292341
0.0339378
0.0334151
0.0329583
0.032532
0.0321382
0.0317781
0.0314526
0.0311621
0.0309071
0.0306881
0.0305054
0.0303591
0.0302492
0.035124
0.0345846
0.0341115
0.0336702
0.0332626
0.0328901
0.0325534
0.032253
0.0319894
0.0317629
0.0315741
0.0314228
0.0313093
0.0120002
0.0124318
0.0128715
0.0133196
0.0137769
0.0142439
0.0147214
0.01521
0.0157104
0.0162234
0.0167497
0.0172902
0.0178457
0.018417
0.0190051
0.019611
0.0202357
0.0208804
0.0215461
0.0222342
0.0229458
0.0236825
0.0244456
0.0252368
0.0260577
0.02691
0.0277958
0.028717
0.0296759
0.0306748
0.0317162
0.0328029
0.0339377
0.035124
0.0116886
0.0121214
0.0125615
0.0130097
0.0134665
0.0139326
0.0144087
0.0148954
0.0153935
0.0159037
0.0164268
0.0169636
0.017515
0.0180818
0.0186649
0.0192653
0.0198842
0.0205224
0.0211813
0.021862
0.0225657
0.023294
0.0240482
0.0248299
0.0256407
0.0264824
0.0273568
0.028266
0.0292121
0.0301975
0.0312246
0.0322962
0.0334151
0.0345845
0.0114819
0.0119119
0.0123492
0.0127941
0.0132475
0.0137099
0.014182
0.0146644
0.015158
0.0156635
0.0161815
0.016713
0.0172586
0.0178194
0.0183963
0.0189901
0.0196019
0.0202329
0.020884
0.0215566
0.0222519
0.0229712
0.023716
0.0244878
0.0252882
0.026119
0.026982
0.0278792
0.0288127
0.0297848
0.030798
0.0318549
0.0329584
0.0341115
0.0117146
0.0121491
0.0125911
0.0130412
0.0135002
0.0139686
0.0144471
0.0149365
0.0154375
0.0159509
0.0164773
0.0170177
0.017573
0.018144
0.0187317
0.019337
0.0199612
0.0206051
0.0212702
0.0219576
0.0226686
0.0234047
0.0241674
0.0249582
0.025779
0.0266314
0.0275174
0.0284393
0.0293991
0.0303994
0.0314428
0.032532
0.0336702
0.0124016
0.0128489
0.0133047
0.0137697
0.0142446
0.0147302
0.0152271
0.0157361
0.016258
0.0167937
0.0173438
0.0179095
0.0184915
0.0190909
0.0197088
0.0203462
0.0210044
0.0216845
0.022388
0.0231161
0.0238704
0.0246524
0.0254639
0.0263066
0.0271825
0.0280937
0.0290424
0.0300309
0.0310619
0.0321381
0.0332626
0.0122267
0.0126713
0.0131242
0.0135862
0.0140579
0.01454
0.0150332
0.0155383
0.0160561
0.0165873
0.0171329
0.0176937
0.0182706
0.0188646
0.0194768
0.0201083
0.0207603
0.0214339
0.0221304
0.0228513
0.023598
0.0243721
0.0251752
0.0260092
0.0268759
0.0277774
0.0287159
0.0296937
0.0307135
0.0317779
0.0328899
0.0120671
0.0125093
0.0129597
0.0134189
0.0138877
0.0143667
0.0148566
0.0153583
0.0158723
0.0163996
0.016941
0.0174975
0.0180698
0.018659
0.0192662
0.0198924
0.0205387
0.0212065
0.0218968
0.0226113
0.0233512
0.0241181
0.0249137
0.0257398
0.0265983
0.0274911
0.0284205
0.0293888
0.0303985
0.0314522
0.0325531
0.0119234
0.0123635
0.0128117
0.0132686
0.0137348
0.014211
0.0146981
0.0151966
0.0157074
0.0162312
0.016769
0.0173216
0.0178899
0.0184749
0.0190776
0.0196991
0.0203405
0.021003
0.021688
0.0223966
0.0231305
0.0238912
0.0246802
0.0254993
0.0263504
0.0272356
0.0281569
0.0291166
0.0301174
0.0311617
0.0322527
0.0117964
0.0122347
0.0126809
0.0131357
0.0135996
0.0140735
0.0145581
0.0150539
0.0155619
0.0160828
0.0166174
0.0171666
0.0177314
0.0183127
0.0189115
0.0195289
0.020166
0.0208241
0.0215043
0.022208
0.0229367
0.0236918
0.024475
0.0252881
0.0261329
0.0270113
0.0279255
0.0288779
0.0298708
0.0309069
0.0319892
0.0116865
0.0121232
0.0125678
0.0130208
0.0134829
0.0139548
0.0144372
0.0149307
0.0154363
0.0159546
0.0164866
0.017033
0.0175948
0.0181729
0.0187684
0.0193823
0.0200158
0.0206699
0.0213461
0.0220456
0.0227698
0.0235203
0.0242987
0.0251066
0.0259459
0.0268186
0.0277268
0.0286728
0.029659
0.0306881
0.0317629
0.0115942
0.0120297
0.0124729
0.0129244
0.013385
0.0138552
0.0143358
0.0148275
0.015331
0.0158473
0.016377
0.016921
0.0174804
0.0180559
0.0186487
0.0192597
0.0198901
0.0205411
0.0212139
0.0219099
0.0226304
0.023377
0.0241512
0.0249548
0.0257896
0.0266575
0.0275607
0.0285014
0.0294821
0.0305053
0.031574
0.0115199
0.0119544
0.0123965
0.0128469
0.0133062
0.0137751
0.0142543
0.0147445
0.0152464
0.015761
0.0162889
0.0168311
0.0173885
0.017962
0.0185526
0.0191613
0.0197893
0.0204378
0.0211079
0.021801
0.0225185
0.023262
0.0240329
0.0248331
0.0256642
0.0265284
0.0274276
0.0283641
0.0293403
0.0303589
0.0314226
0.0114638
0.0118976
0.012339
0.0127885
0.0132468
0.0137147
0.0141929
0.014682
0.0151828
0.0156961
0.0162227
0.0167635
0.0173194
0.0178913
0.0184803
0.0190873
0.0197135
0.02036
0.0210281
0.0217191
0.0224344
0.0231755
0.023944
0.0247416
0.0255701
0.0264314
0.0273276
0.028261
0.0292339
0.030249
0.031309
0.0114264
0.0118597
0.0123005
0.0127494
0.0132072
0.0136744
0.0141519
0.0146402
0.0151402
0.0156527
0.0161784
0.0167183
0.0172732
0.017844
0.0184319
0.0190377
0.0196627
0.020308
0.0209748
0.0216644
0.0223782
0.0231178
0.0238846
0.0246805
0.0255072
0.0263666
0.0272608
0.0281921
0.0291628
0.0301756
0.0312332
0.0114076
0.0118407
0.0122812
0.0127299
0.0131873
0.0136542
0.0141313
0.0146193
0.0151189
0.015631
0.0161563
0.0166956
0.01725
0.0178204
0.0184076
0.0190129
0.0196373
0.0202819
0.020948
0.0216369
0.02235
0.0230888
0.0238549
0.0246499
0.0254757
0.0263342
0.0272275
0.0281577
0.0291273
0.0301389
0.0311953
0.0136542
0.0141313
0.0146193
0.0151189
0.0156309
0.0161562
0.0166956
0.01725
0.0178203
0.0184076
0.0190129
0.0196372
0.0202819
0.020948
0.0216369
0.02235
0.0230888
0.0238549
0.0246499
0.0254756
0.0263341
0.0272274
0.0281576
0.0291272
0.0301388
0.0311952
0.0136744
0.0141518
0.0146402
0.0151402
0.0156527
0.0161784
0.0167182
0.0172731
0.0178439
0.0184317
0.0190376
0.0196626
0.0203078
0.0209746
0.0216642
0.022378
0.0231176
0.0238845
0.0246804
0.025507
0.0263664
0.0272606
0.0281918
0.0291626
0.0301753
0.031233
0.0137147
0.0141929
0.0146819
0.0151827
0.015696
0.0162226
0.0167634
0.0173193
0.0178911
0.01848
0.019087
0.0197132
0.0203597
0.0210278
0.0217188
0.0224341
0.0231752
0.0239437
0.0247413
0.0255698
0.0264311
0.0273273
0.0282606
0.0292336
0.0302487
0.0313087
0.013775
0.0142542
0.0147444
0.0152464
0.0157609
0.0162889
0.016831
0.0173883
0.0179618
0.0185523
0.019161
0.0197889
0.0204373
0.0211074
0.0218006
0.0225181
0.0232616
0.0240325
0.0248327
0.0256639
0.026528
0.0274272
0.0283637
0.02934
0.0303585
0.0314223
0.0138551
0.0143357
0.0148274
0.015331
0.0158472
0.0163769
0.0169209
0.0174802
0.0180557
0.0186485
0.0192595
0.0198898
0.0205408
0.0212135
0.0219094
0.0226299
0.0233765
0.0241507
0.0249542
0.0139547
0.0144371
0.0149306
0.0154362
0.0159545
0.0164864
0.0170328
0.0175946
0.0181727
0.0187682
0.0193821
0.0200156
0.0206697
0.0213458
0.0220452
0.0227694
0.0235198
0.0242981
0.025106
0.0140735
0.014558
0.0150538
0.0155618
0.0160826
0.0166172
0.0171665
0.0177313
0.0183125
0.0189113
0.0195287
0.0201658
0.0208238
0.021504
0.0222077
0.0229363
0.0236915
0.0244747
0.0252877
0.014211
0.014698
0.0151965
0.0157073
0.0162311
0.0167689
0.0173214
0.0178897
0.0184747
0.0190774
0.0196988
0.0203402
0.0210028
0.0216877
0.0223964
0.0231303
0.023891
0.0246799
0.0254991
0.0143666
0.0148566
0.0153582
0.0158722
0.0163995
0.0169409
0.0174973
0.0180696
0.0186588
0.019266
0.0198922
0.0205385
0.0212062
0.0218966
0.022611
0.0233509
0.0241179
0.0249135
0.0257396
0.0145399
0.0150331
0.0155382
0.016056
0.0165872
0.0171327
0.0176935
0.0182704
0.0188644
0.0194766
0.0201081
0.02076
0.0214336
0.0221302
0.0228511
0.0235978
0.0243719
0.0251751
0.026009
0.0147301
0.015227
0.015736
0.0162579
0.0167935
0.0173437
0.0179093
0.0184913
0.0190907
0.0197086
0.020346
0.0210042
0.0216843
0.0223878
0.0231159
0.0238702
0.0246522
0.0254637
0.0263064
0.0149364
0.0154374
0.0159507
0.0164771
0.0170176
0.0175728
0.0181438
0.0187314
0.0193368
0.0199609
0.020605
0.0212701
0.0219575
0.0226685
0.0234046
0.0241672
0.024958
0.0257787
0.0266311
0.0151578
0.0156632
0.0161813
0.0167127
0.0172584
0.0178191
0.018396
0.0189898
0.0196017
0.0202326
0.0208838
0.0215564
0.0222517
0.0229711
0.0237159
0.0244876
0.0252881
0.0261188
0.0269818
0.0153932
0.0159034
0.0164265
0.0169633
0.0175146
0.0180814
0.0186645
0.019265
0.0198838
0.0205222
0.0211811
0.0218618
0.0225656
0.0232939
0.0240481
0.0248297
0.0256405
0.0264822
0.0273566
0.0157101
0.016223
0.0167493
0.0172898
0.0178452
0.0184166
0.0190047
0.0196107
0.0202354
0.0208801
0.0215459
0.022234
0.0229457
0.0236823
0.0244454
0.0252366
0.0260575
0.0269098
0.0277956
0.0157101
0.0162231
0.0167494
0.0172899
0.0178453
0.0184166
0.0190048
0.0196107
0.0202354
0.0208801
0.0215459
0.0222339
0.0229456
0.0236823
0.0244454
0.0252366
0.0260575
0.0269099
0.0277957
0.0153932
0.0159034
0.0164265
0.0169633
0.0175147
0.0180815
0.0186646
0.0192651
0.0198839
0.0205222
0.021181
0.0218617
0.0225655
0.0232938
0.024048
0.0248297
0.0256405
0.0264822
0.0273566
0.0151578
0.0156632
0.0161812
0.0167127
0.0172584
0.0178192
0.018396
0.0189898
0.0196017
0.0202326
0.0208838
0.0215564
0.0222517
0.022971
0.0237158
0.0244876
0.025288
0.0261188
0.0269818
0.0149363
0.0154373
0.0159506
0.0164771
0.0170175
0.0175728
0.0181438
0.0187314
0.0193368
0.0199609
0.0206049
0.02127
0.0219574
0.0226684
0.0234046
0.0241672
0.0249581
0.0257788
0.0266312
0.01473
0.0152269
0.0157359
0.0162578
0.0167934
0.0173436
0.0179092
0.0184913
0.0190907
0.0197086
0.020346
0.0210042
0.0216844
0.0223878
0.0231159
0.0238702
0.0246523
0.0254637
0.0263064
0.0145398
0.015033
0.0155381
0.0160559
0.0165871
0.0171327
0.0176935
0.0182704
0.0188644
0.0194766
0.0201082
0.0207601
0.0214337
0.0221303
0.0228512
0.0235979
0.0243719
0.0251751
0.026009
0.0143665
0.0148565
0.0153581
0.0158721
0.0163994
0.0169409
0.0174973
0.0180696
0.0186589
0.019266
0.0198922
0.0205386
0.0212063
0.0218967
0.0226111
0.023351
0.024118
0.0249136
0.0257397
0.0142109
0.0146979
0.0151964
0.0157072
0.0162311
0.0167688
0.0173214
0.0178897
0.0184747
0.0190774
0.0196989
0.0203403
0.0210029
0.0216878
0.0223965
0.0231304
0.023891
0.0246801
0.0254992
0.0140734
0.0145579
0.0150538
0.0155617
0.0160826
0.0166172
0.0171664
0.0177312
0.0183125
0.0189114
0.0195287
0.0201659
0.0208239
0.0215041
0.0222079
0.0229365
0.0236917
0.0244749
0.0252879
0.0139547
0.014437
0.0149306
0.0154362
0.0159545
0.0164864
0.0170328
0.0175946
0.0181728
0.0187682
0.0193821
0.0200156
0.0206698
0.021346
0.0220455
0.0227697
0.0235202
0.0242985
0.0251064
0.0138551
0.0143356
0.0148273
0.0153309
0.0158471
0.0163768
0.0169209
0.0174802
0.0180558
0.0186485
0.0192595
0.01989
0.020541
0.0212138
0.0219097
0.0226302
0.0233768
0.024151
0.0249546
0.013775
0.0142541
0.0147443
0.0152463
0.0157608
0.0162888
0.016831
0.0173883
0.0179618
0.0185524
0.0191612
0.0197892
0.0204376
0.0211077
0.0218008
0.0225184
0.0232618
0.0240327
0.0248329
0.0137146
0.0141927
0.0146818
0.0151826
0.0156959
0.0162225
0.0167633
0.0173192
0.0178911
0.0184801
0.0190871
0.0197133
0.0203599
0.021028
0.021719
0.0224343
0.0231754
0.0239438
0.0247414
0.0136743
0.0141517
0.0146401
0.0151401
0.0156525
0.0161783
0.0167181
0.017273
0.0178439
0.0184317
0.0190376
0.0196626
0.0203078
0.0209746
0.0216642
0.0223781
0.0231176
0.0238845
0.0246804
)
;

boundaryField
{
    inlet
    {
        type            cyclic;
    }
    outlet
    {
        type            cyclic;
    }
    wall
    {
        type            calculated;
        value           nonuniform 0();
    }
    procBoundary4to1
    {
        type            processor;
        value           nonuniform List<scalar> 
61
(
0.0363652
0.0358079
0.0353177
0.0348606
0.0344386
0.034053
0.0337045
0.0333936
0.0331208
0.0328866
0.0363651
0.0358077
0.0353176
0.0348605
0.0344385
0.0340528
0.0337041
0.0333933
0.0331207
0.0328866
0.0326912
0.0325346
0.0324171
0.0323387
0.0322995
0.0322994
0.0323385
0.0324168
0.025789
0.026657
0.0275602
0.0285009
0.0294816
0.0305049
0.0325342
0.0315736
0.025789
0.0259453
0.0261325
0.0263502
0.0265981
0.0268757
0.0271823
0.0275172
0.0278789
0.0282657
0.0287168
0.0287169
0.0282658
0.027879
0.0275172
0.0271824
0.0268757
0.0265981
0.0263503
0.0261327
0.0259457
0.0257894
0.025664
0.0255699
0.0255071
)
;
    }
    procBoundary4to3
    {
        type            processor;
        value           nonuniform List<scalar> 
13
(
0.0291632
0.0291277
0.0291279
0.0291634
0.0292343
0.0293406
0.0294823
0.0291632
0.030176
0.0326912
0.0325348
0.0312336
0.0324174
)
;
    }
    procBoundary4to5
    {
        type            processor;
        value           nonuniform List<scalar> 
55
(
0.00839955
0.00879571
0.00919493
0.00959779
0.0100048
0.0104167
0.0108338
0.0112569
0.0116866
0.0121234
0.012568
0.013021
0.0134831
0.013955
0.0144374
0.0149309
0.0154365
0.0159548
0.0164867
0.0170331
0.0175949
0.0181731
0.0187686
0.0193825
0.0200159
0.0206701
0.0213463
0.0220458
0.02277
0.0235205
0.0242987
0.0251066
0.0259459
0.0268186
0.0277268
0.0286728
0.0136541
0.0141312
0.0146192
0.0151188
0.0156308
0.0161561
0.0166955
0.0172499
0.0178202
0.0184075
0.0190128
0.0196372
0.0202818
0.0209479
0.0216368
0.0223499
0.0230887
0.0238548
0.0246498
)
;
    }
    procBoundary4to6
    {
        type            processor;
        value           nonuniform List<scalar> 
43
(
0.00776545
0.00780018
0.00785203
0.00792074
0.00819285
0.00815795
0.00814044
0.00814043
0.00814043
0.0091496
0.00901626
0.00889812
0.00879574
0.00870961
0.00864018
0.00864018
0.00970051
0.0101077
0.0115758
0.0112626
0.0110583
0.0108657
0.0106859
0.0105196
0.0105196
0.0115759
0.0112626
0.0110584
0.011287
0.011287
0.0115304
0.0119624
0.0119624
0.0117899
0.0116325
0.0114907
0.0113654
0.0112569
0.0111657
0.0110923
0.011037
0.011
0.0109814
)
;
    }
    procBoundary4to7
    {
        type            processor;
        value           nonuniform List<scalar> 
34
(
0.0114076
0.0118407
0.0122812
0.0127299
0.0131873
0.0131873
0.0132072
0.0132468
0.0133062
0.0133849
0.0134829
0.0135996
0.0137347
0.0138877
0.0140578
0.0142445
0.014447
0.0146643
0.0148952
0.0152097
0.0152097
0.0148951
0.0146642
0.0144469
0.0142445
0.0140577
0.0138876
0.0137347
0.0135995
0.0134828
0.0133849
0.0133061
0.0132468
0.0132071
)
;
    }
}


// ************************************************************************* //
