/*--------------------------------*- C++ -*----------------------------------*\
  =========                 |
  \\      /  F ield         | OpenFOAM: The Open Source CFD Toolbox
   \\    /   O peration     | Website:  https://openfoam.org
    \\  /    A nd           | Version:  7
     \\/     M anipulation  |
\*---------------------------------------------------------------------------*/
FoamFile
{
    version     2.0;
    format      ascii;
    class       volScalarField;
    location    "40000";
    object      k;
}
// * * * * * * * * * * * * * * * * * * * * * * * * * * * * * * * * * * * * * //

dimensions      [0 2 -2 0 0 0 0];

internalField   nonuniform List<scalar> 
4844
(
5.96418e-15
5.96902e-15
5.9744e-15
5.98718e-15
5.99206e-15
5.99749e-15
6.00333e-15
6.00968e-15
6.01646e-15
6.02365e-15
6.03123e-15
6.01022e-15
6.01516e-15
6.02064e-15
6.02655e-15
6.03292e-15
6.03971e-15
6.04692e-15
6.05458e-15
6.06272e-15
6.0714e-15
6.08055e-15
6.03329e-15
6.03831e-15
6.04387e-15
6.04983e-15
6.05622e-15
6.06304e-15
6.07031e-15
6.07808e-15
6.08639e-15
6.09523e-15
6.10458e-15
6.11443e-15
6.12487e-15
6.13586e-15
6.14743e-15
6.15959e-15
6.05644e-15
6.06158e-15
6.0672e-15
6.07322e-15
6.07966e-15
6.08654e-15
6.09392e-15
6.10183e-15
6.11028e-15
6.11928e-15
6.12882e-15
6.13892e-15
6.14957e-15
6.16076e-15
6.17251e-15
6.18479e-15
6.07978e-15
6.08509e-15
6.09077e-15
6.09685e-15
6.10336e-15
6.11035e-15
6.11785e-15
6.12589e-15
6.13448e-15
6.14363e-15
6.15335e-15
6.16363e-15
6.17447e-15
6.18584e-15
6.19774e-15
6.21014e-15
6.10893e-15
6.11468e-15
6.12082e-15
6.12742e-15
6.13452e-15
6.14215e-15
6.15033e-15
6.15905e-15
6.16835e-15
6.17823e-15
6.18866e-15
6.19966e-15
6.21119e-15
6.22324e-15
6.23578e-15
6.13316e-15
6.13898e-15
6.14519e-15
6.15188e-15
6.15909e-15
6.16685e-15
6.17516e-15
6.18402e-15
6.19347e-15
6.2035e-15
6.21407e-15
6.22522e-15
6.23691e-15
6.2491e-15
6.2618e-15
6.15779e-15
6.16367e-15
6.16996e-15
6.17676e-15
6.18409e-15
6.19197e-15
6.20041e-15
6.20941e-15
6.21901e-15
6.22918e-15
6.2399e-15
6.2512e-15
6.26303e-15
6.27538e-15
6.28828e-15
6.17718e-15
6.18283e-15
6.18878e-15
6.19517e-15
6.20207e-15
6.20952e-15
6.21753e-15
6.2261e-15
6.23525e-15
6.24499e-15
6.2553e-15
6.26617e-15
6.27761e-15
6.2896e-15
6.30213e-15
6.31522e-15
6.20264e-15
6.20829e-15
6.21432e-15
6.22081e-15
6.22783e-15
6.2354e-15
6.24353e-15
6.25225e-15
6.26154e-15
6.27142e-15
6.28187e-15
6.2929e-15
6.30449e-15
6.31664e-15
6.32936e-15
6.34267e-15
6.22852e-15
6.2342e-15
6.24031e-15
6.24691e-15
6.25404e-15
6.26174e-15
6.27001e-15
6.27886e-15
6.28829e-15
6.29832e-15
6.30892e-15
6.3201e-15
6.33185e-15
6.34418e-15
6.35709e-15
6.37063e-15
6.25487e-15
6.26057e-15
6.26676e-15
6.27347e-15
6.28072e-15
6.28855e-15
6.29696e-15
6.30595e-15
6.31553e-15
6.32571e-15
6.33646e-15
6.3478e-15
6.35972e-15
6.37223e-15
6.38534e-15
6.39911e-15
6.27657e-15
6.28168e-15
6.2874e-15
6.29368e-15
6.3005e-15
6.30789e-15
6.31584e-15
6.32439e-15
6.33353e-15
6.34326e-15
6.35359e-15
6.3645e-15
6.376e-15
6.3881e-15
6.4008e-15
6.41413e-15
6.42813e-15
6.30379e-15
6.30891e-15
6.3147e-15
6.32107e-15
6.32802e-15
6.33553e-15
6.34363e-15
6.35232e-15
6.36161e-15
6.3715e-15
6.38198e-15
6.39306e-15
6.40473e-15
6.41701e-15
6.42991e-15
6.44345e-15
6.4577e-15
6.32666e-15
6.33134e-15
6.33657e-15
6.34245e-15
6.34895e-15
6.35602e-15
6.36368e-15
6.37192e-15
6.38077e-15
6.39021e-15
6.40025e-15
6.4109e-15
6.42214e-15
6.43399e-15
6.44646e-15
6.45957e-15
6.47334e-15
6.48782e-15
6.35459e-15
6.3593e-15
6.36467e-15
6.37069e-15
6.37731e-15
6.38453e-15
6.39233e-15
6.40073e-15
6.40973e-15
6.41933e-15
6.42953e-15
6.44035e-15
6.45177e-15
6.4638e-15
6.47646e-15
6.48978e-15
6.50378e-15
6.51851e-15
6.38289e-15
6.38771e-15
6.39324e-15
6.39941e-15
6.40618e-15
6.41355e-15
6.42151e-15
6.43006e-15
6.43922e-15
6.44898e-15
6.45935e-15
6.47034e-15
6.48194e-15
6.49416e-15
6.50703e-15
6.52057e-15
6.5348e-15
6.54977e-15
6.41164e-15
6.41662e-15
6.42231e-15
6.42864e-15
6.43557e-15
6.44309e-15
6.45121e-15
6.45993e-15
6.46925e-15
6.47918e-15
6.48972e-15
6.50089e-15
6.51267e-15
6.52509e-15
6.53817e-15
6.55193e-15
6.5664e-15
6.58162e-15
6.44092e-15
6.44605e-15
6.4519e-15
6.45839e-15
6.46548e-15
6.47317e-15
6.48145e-15
6.49033e-15
6.49982e-15
6.50993e-15
6.52065e-15
6.532e-15
6.54398e-15
6.5566e-15
6.56989e-15
6.58388e-15
6.59859e-15
6.61407e-15
6.47075e-15
6.47603e-15
6.48204e-15
6.48868e-15
6.49594e-15
6.50379e-15
6.51224e-15
6.5213e-15
6.53096e-15
6.54124e-15
6.55215e-15
6.56369e-15
6.57587e-15
6.5887e-15
6.60221e-15
6.61644e-15
6.63139e-15
6.64713e-15
6.50112e-15
6.50656e-15
6.51272e-15
6.51953e-15
6.52695e-15
6.53497e-15
6.54359e-15
6.55283e-15
6.56267e-15
6.57314e-15
6.58424e-15
6.59597e-15
6.60835e-15
6.6214e-15
6.63514e-15
6.64961e-15
6.66482e-15
6.68082e-15
6.53205e-15
6.53766e-15
6.54398e-15
6.55094e-15
6.55853e-15
6.56672e-15
6.57552e-15
6.58493e-15
6.59496e-15
6.60562e-15
6.61691e-15
6.62885e-15
6.64145e-15
6.65472e-15
6.6687e-15
6.68342e-15
6.69889e-15
6.71516e-15
6.56355e-15
6.56934e-15
6.57582e-15
6.58294e-15
6.59069e-15
6.59905e-15
6.60803e-15
6.61763e-15
6.62785e-15
6.63871e-15
6.65021e-15
6.66236e-15
6.67518e-15
6.68868e-15
6.70291e-15
6.71788e-15
6.73361e-15
6.75014e-15
6.59567e-15
6.60164e-15
6.60826e-15
6.61554e-15
6.62345e-15
6.63199e-15
6.64115e-15
6.65094e-15
6.66136e-15
6.67242e-15
6.68413e-15
6.6965e-15
6.70955e-15
6.72329e-15
6.73776e-15
6.75298e-15
6.76898e-15
6.78577e-15
6.62846e-15
6.63458e-15
6.64134e-15
6.64877e-15
6.65684e-15
6.66555e-15
6.6749e-15
6.68488e-15
6.6955e-15
6.70677e-15
6.7187e-15
6.73129e-15
6.74457e-15
6.75855e-15
6.77327e-15
6.78874e-15
6.80498e-15
6.82202e-15
6.66197e-15
6.6682e-15
6.67507e-15
6.68263e-15
6.69086e-15
6.69974e-15
6.70928e-15
6.71946e-15
6.73029e-15
6.74177e-15
6.75392e-15
6.76673e-15
6.78024e-15
6.79446e-15
6.8094e-15
6.82511e-15
6.8416e-15
6.85888e-15
6.69624e-15
6.70252e-15
6.70948e-15
6.71716e-15
6.72553e-15
6.73459e-15
6.74431e-15
6.75469e-15
6.76572e-15
6.77741e-15
6.78977e-15
6.80281e-15
6.81654e-15
6.83098e-15
6.84615e-15
6.86209e-15
6.87881e-15
6.89633e-15
6.73126e-15
6.73753e-15
6.74455e-15
6.75234e-15
6.76086e-15
6.77008e-15
6.77999e-15
6.79056e-15
6.80179e-15
6.81368e-15
6.82625e-15
6.8395e-15
6.85344e-15
6.8681e-15
6.88349e-15
6.89966e-15
6.91663e-15
6.93441e-15
6.76697e-15
6.77322e-15
6.78029e-15
6.78818e-15
6.79683e-15
6.80621e-15
6.81629e-15
6.82704e-15
6.83847e-15
6.85056e-15
6.86333e-15
6.87679e-15
6.89094e-15
6.90581e-15
6.92144e-15
6.93786e-15
6.9551e-15
6.9732e-15
6.79777e-15
6.8033e-15
6.80954e-15
6.81666e-15
6.82465e-15
6.83342e-15
6.84295e-15
6.8532e-15
6.86413e-15
6.87574e-15
6.88803e-15
6.901e-15
6.91467e-15
6.92905e-15
6.94417e-15
6.96006e-15
6.97678e-15
6.99439e-15
7.01288e-15
6.83467e-15
6.84016e-15
6.84644e-15
6.85363e-15
6.86171e-15
6.87061e-15
6.88028e-15
6.89069e-15
6.9018e-15
6.91361e-15
6.9261e-15
6.9393e-15
6.95322e-15
6.96787e-15
6.98328e-15
6.99952e-15
7.01663e-15
7.03468e-15
7.05368e-15
6.86698e-15
6.87192e-15
6.87751e-15
6.88388e-15
6.89117e-15
6.89936e-15
6.90839e-15
6.91821e-15
6.9288e-15
6.94011e-15
6.95213e-15
6.96486e-15
6.97834e-15
6.99256e-15
7.00755e-15
7.02335e-15
7.04002e-15
7.05763e-15
7.07623e-15
7.09582e-15
6.90469e-15
6.90959e-15
6.91536e-15
6.92188e-15
6.9293e-15
6.93762e-15
6.9468e-15
6.95681e-15
6.9676e-15
6.97915e-15
6.99144e-15
7.00448e-15
7.0183e-15
7.03291e-15
7.04834e-15
7.06462e-15
7.08181e-15
7.09998e-15
7.11918e-15
7.13932e-15
6.94279e-15
6.94782e-15
6.95379e-15
6.96051e-15
6.9681e-15
6.97659e-15
6.98597e-15
6.99621e-15
7.00727e-15
7.01912e-15
7.03175e-15
7.04517e-15
7.05942e-15
7.07451e-15
7.09045e-15
7.10727e-15
7.125e-15
7.14372e-15
7.16339e-15
7.1839e-15
6.98152e-15
6.98675e-15
6.99296e-15
6.99992e-15
7.00774e-15
7.01647e-15
7.02611e-15
7.03663e-15
7.04803e-15
7.06025e-15
7.07329e-15
7.08717e-15
7.1019e-15
7.11751e-15
7.13396e-15
7.15127e-15
7.16943e-15
7.18846e-15
7.20831e-15
7.22877e-15
7.02117e-15
7.02663e-15
7.0331e-15
7.04035e-15
7.04847e-15
7.05749e-15
7.06745e-15
7.07833e-15
7.09011e-15
7.10276e-15
7.11624e-15
7.13057e-15
7.14576e-15
7.16179e-15
7.17862e-15
7.19618e-15
7.21444e-15
7.23337e-15
7.25288e-15
7.27272e-15
7.06201e-15
7.06772e-15
7.07447e-15
7.08205e-15
7.0905e-15
7.09987e-15
7.11017e-15
7.12142e-15
7.13359e-15
7.14662e-15
7.16047e-15
7.17514e-15
7.1906e-15
7.20682e-15
7.22367e-15
7.24105e-15
7.2589e-15
7.27718e-15
7.2958e-15
7.31455e-15
7.10424e-15
7.11019e-15
7.11723e-15
7.12514e-15
7.13392e-15
7.1436e-15
7.15421e-15
7.16576e-15
7.17821e-15
7.19146e-15
7.20546e-15
7.22016e-15
7.23555e-15
7.25151e-15
7.2679e-15
7.28459e-15
7.30152e-15
7.31869e-15
7.33612e-15
7.35373e-15
7.14784e-15
7.15399e-15
7.16125e-15
7.16942e-15
7.17845e-15
7.18833e-15
7.19909e-15
7.21072e-15
7.22319e-15
7.23636e-15
7.25014e-15
7.26447e-15
7.27931e-15
7.29456e-15
7.31005e-15
7.32567e-15
7.34143e-15
7.35748e-15
7.37401e-15
7.39116e-15
7.19235e-15
7.1986e-15
7.20596e-15
7.21422e-15
7.2233e-15
7.23315e-15
7.24378e-15
7.2552e-15
7.26734e-15
7.28003e-15
7.29319e-15
7.30675e-15
7.32071e-15
7.33498e-15
7.34945e-15
7.36409e-15
7.37905e-15
7.39467e-15
7.4114e-15
7.42977e-15
7.23678e-15
7.24297e-15
7.25023e-15
7.25836e-15
7.26723e-15
7.27676e-15
7.28696e-15
7.29784e-15
7.30935e-15
7.32129e-15
7.33361e-15
7.34629e-15
7.3594e-15
7.37292e-15
7.38685e-15
7.4013e-15
7.41662e-15
7.43346e-15
7.4527e-15
7.47549e-15
7.27981e-15
7.28577e-15
7.29273e-15
7.30052e-15
7.30896e-15
7.31797e-15
7.32756e-15
7.33778e-15
7.34859e-15
7.35984e-15
7.37153e-15
7.38371e-15
7.3966e-15
7.41031e-15
7.425e-15
7.441e-15
7.45905e-15
7.48034e-15
7.5066e-15
7.54029e-15
7.32029e-15
7.32594e-15
7.33252e-15
7.3399e-15
7.3479e-15
7.35643e-15
7.36554e-15
7.37534e-15
7.38586e-15
7.39699e-15
7.40884e-15
7.42162e-15
7.43575e-15
7.45156e-15
7.46958e-15
7.4906e-15
7.51611e-15
7.54849e-15
7.59127e-15
7.64945e-15
7.3581e-15
7.36352e-15
7.36987e-15
7.37706e-15
7.38492e-15
7.39339e-15
7.4026e-15
7.41273e-15
7.42396e-15
7.43626e-15
7.44995e-15
7.46549e-15
7.48373e-15
7.5055e-15
7.53206e-15
7.56535e-15
7.6084e-15
7.66604e-15
7.74505e-15
7.85411e-15
7.39479e-15
7.40033e-15
7.4069e-15
7.41449e-15
7.42296e-15
7.43234e-15
7.44284e-15
7.45485e-15
7.46875e-15
7.48477e-15
7.50363e-15
7.52634e-15
7.5547e-15
7.59062e-15
7.63696e-15
7.69791e-15
7.77921e-15
7.88935e-15
8.03894e-15
8.23907e-15
7.43429e-15
7.44067e-15
7.44838e-15
7.45754e-15
7.46812e-15
7.48027e-15
7.49447e-15
7.51145e-15
7.5321e-15
7.55721e-15
7.58835e-15
7.62774e-15
7.67911e-15
7.74634e-15
7.83488e-15
7.95205e-15
8.10615e-15
8.30857e-15
8.57148e-15
8.90383e-15
7.48446e-15
7.49314e-15
7.50385e-15
7.517e-15
7.53277e-15
7.55169e-15
7.57473e-15
7.60338e-15
7.63959e-15
7.68531e-15
7.7437e-15
7.81892e-15
7.91775e-15
8.0462e-15
8.21194e-15
8.42413e-15
8.69091e-15
9.02347e-15
9.43239e-15
9.92065e-15
7.56178e-15
7.57592e-15
7.59368e-15
7.61605e-15
7.64376e-15
7.67805e-15
7.72082e-15
7.77497e-15
7.84423e-15
7.93218e-15
8.04385e-15
8.1852e-15
8.36595e-15
8.59232e-15
8.8718e-15
9.21209e-15
9.61863e-15
1.01003e-14
1.06653e-14
1.13107e-14
7.7021e-15
7.72836e-15
7.76155e-15
7.80375e-15
7.85661e-15
7.92238e-15
8.00425e-15
8.10681e-15
8.23583e-15
8.3957e-15
8.59236e-15
8.83184e-15
9.12543e-15
9.4769e-15
9.89119e-15
1.03732e-14
1.09247e-14
1.15535e-14
1.22668e-14
1.30568e-14
7.9754e-15
8.02531e-15
8.08783e-15
8.16658e-15
8.26408e-15
8.38336e-15
8.52846e-15
8.70531e-15
8.92087e-15
9.17814e-15
9.48282e-15
9.83906e-15
1.02597e-14
1.07439e-14
1.12942e-14
1.1913e-14
1.2599e-14
1.33609e-14
1.4207e-14
1.51244e-14
8.48537e-15
8.57275e-15
8.68014e-15
8.81298e-15
8.97361e-15
9.16505e-15
9.39153e-15
9.65925e-15
9.9762e-15
1.0341e-14
1.07596e-14
1.12338e-14
1.17779e-14
1.23875e-14
1.30623e-14
1.38046e-14
1.46074e-14
1.54862e-14
1.64485e-14
1.74763e-14
9.33303e-15
9.46774e-15
9.62987e-15
9.82703e-15
1.00599e-14
1.03309e-14
1.06438e-14
1.10049e-14
1.14235e-14
1.1892e-14
1.24176e-14
1.29993e-14
1.36551e-14
1.43751e-14
1.51603e-14
1.60089e-14
1.69125e-14
1.78916e-14
1.89527e-14
2.00751e-14
1.05724e-14
1.07566e-14
1.09751e-14
1.12369e-14
1.15416e-14
1.18883e-14
1.22831e-14
1.27304e-14
1.32418e-14
1.38039e-14
1.44232e-14
1.50993e-14
1.58532e-14
1.66673e-14
1.75478e-14
1.84873e-14
1.94774e-14
2.05425e-14
2.16867e-14
2.28926e-14
1.22035e-14
1.24343e-14
1.27046e-14
1.30259e-14
1.33961e-14
1.38104e-14
1.42765e-14
1.48007e-14
1.53941e-14
1.60364e-14
1.67361e-14
1.74944e-14
1.83314e-14
1.92275e-14
2.01901e-14
2.12052e-14
2.22679e-14
2.34059e-14
2.46209e-14
2.5901e-14
1.55836e-14
1.60574e-14
1.65834e-14
1.71752e-14
1.78407e-14
1.85493e-14
1.93171e-14
2.01476e-14
2.10565e-14
2.20227e-14
2.30535e-14
2.4132e-14
2.52576e-14
2.64566e-14
2.77274e-14
2.9074e-14
2.05425e-14
2.13093e-14
2.21347e-14
2.30242e-14
2.39979e-14
2.50234e-14
2.61083e-14
2.72391e-14
2.84156e-14
2.96642e-14
3.09794e-14
3.2382e-14
6.24098e-15
6.22749e-15
6.26799e-15
6.2544e-15
6.29521e-15
6.28157e-15
6.32275e-15
6.30907e-15
6.29576e-15
6.35069e-15
6.33692e-15
6.32363e-15
6.37907e-15
6.36517e-15
6.35182e-15
6.33897e-15
6.40793e-15
6.39387e-15
6.38039e-15
6.36755e-15
6.4373e-15
6.42305e-15
6.40942e-15
6.39647e-15
6.46719e-15
6.45274e-15
6.43894e-15
6.42583e-15
6.41314e-15
6.49763e-15
6.48297e-15
6.46899e-15
6.4557e-15
6.44291e-15
6.52863e-15
6.51376e-15
6.4996e-15
6.48613e-15
6.47319e-15
6.56021e-15
6.54513e-15
6.5308e-15
6.51717e-15
6.5041e-15
6.59238e-15
6.5771e-15
6.56259e-15
6.54883e-15
6.5357e-15
6.62517e-15
6.60968e-15
6.595e-15
6.58112e-15
6.56796e-15
6.6586e-15
6.64288e-15
6.62803e-15
6.61402e-15
6.60082e-15
6.58818e-15
6.69267e-15
6.67673e-15
6.66169e-15
6.64754e-15
6.63425e-15
6.62167e-15
6.72739e-15
6.71123e-15
6.69599e-15
6.68167e-15
6.66824e-15
6.65559e-15
6.64341e-15
6.76277e-15
6.74638e-15
6.73093e-15
6.71642e-15
6.70281e-15
6.69001e-15
6.67796e-15
6.66589e-15
6.79877e-15
6.78217e-15
6.76651e-15
6.75179e-15
6.73797e-15
6.72497e-15
6.71283e-15
6.70097e-15
6.68904e-15
6.83538e-15
6.81857e-15
6.8027e-15
6.78776e-15
6.77371e-15
6.7605e-15
6.74815e-15
6.7363e-15
6.72454e-15
6.71282e-15
6.87257e-15
6.85555e-15
6.83947e-15
6.8243e-15
6.81003e-15
6.79658e-15
6.784e-15
6.77204e-15
6.76031e-15
6.74868e-15
6.91035e-15
6.89309e-15
6.87679e-15
6.8614e-15
6.84689e-15
6.83321e-15
6.82038e-15
6.80824e-15
6.79645e-15
6.78486e-15
6.9488e-15
6.93125e-15
6.91468e-15
6.89903e-15
6.88428e-15
6.87036e-15
6.85729e-15
6.84495e-15
6.83306e-15
6.82145e-15
6.98808e-15
6.97016e-15
6.95325e-15
6.93729e-15
6.92224e-15
6.90806e-15
6.89474e-15
6.88218e-15
6.87016e-15
6.85852e-15
7.02844e-15
7.01004e-15
6.9927e-15
6.97634e-15
6.96093e-15
6.94643e-15
6.93282e-15
6.92002e-15
6.90784e-15
6.89612e-15
7.07019e-15
7.05123e-15
7.03334e-15
7.01649e-15
7.00062e-15
6.98571e-15
6.97174e-15
6.95864e-15
6.94625e-15
6.93441e-15
7.11352e-15
7.09401e-15
7.07553e-15
7.05809e-15
7.04167e-15
7.02626e-15
7.01184e-15
6.99836e-15
6.98567e-15
6.97364e-15
7.15834e-15
7.13847e-15
7.11949e-15
7.10148e-15
7.08447e-15
7.06848e-15
7.05353e-15
7.03958e-15
7.02652e-15
7.01419e-15
7.20409e-15
7.18426e-15
7.16507e-15
7.14668e-15
7.12918e-15
7.11265e-15
7.09715e-15
7.08269e-15
7.06917e-15
7.05647e-15
7.2496e-15
7.23039e-15
7.21149e-15
7.19312e-15
7.17544e-15
7.15858e-15
7.14267e-15
7.12777e-15
7.11383e-15
7.10074e-15
7.29339e-15
7.27531e-15
7.25727e-15
7.23948e-15
7.22212e-15
7.20536e-15
7.18939e-15
7.1743e-15
7.16011e-15
7.14674e-15
7.33451e-15
7.31765e-15
7.30077e-15
7.28401e-15
7.2675e-15
7.25138e-15
7.23584e-15
7.221e-15
7.20693e-15
7.19357e-15
6.24127e-15
6.26825e-15
6.29542e-15
6.32291e-15
6.35081e-15
6.37917e-15
6.40803e-15
6.43739e-15
6.46728e-15
6.49772e-15
6.52872e-15
6.5603e-15
6.59248e-15
6.62526e-15
6.65867e-15
6.69273e-15
6.72745e-15
6.76281e-15
6.79881e-15
6.83541e-15
6.8726e-15
6.91039e-15
6.94886e-15
6.98816e-15
7.02854e-15
7.07026e-15
7.11349e-15
7.15814e-15
7.20364e-15
7.24886e-15
7.29241e-15
7.33337e-15
6.22844e-15
6.25528e-15
6.28231e-15
6.30965e-15
6.33737e-15
6.36555e-15
6.39421e-15
6.42337e-15
6.45306e-15
6.48329e-15
6.51408e-15
6.54544e-15
6.57739e-15
6.60994e-15
6.64311e-15
6.67693e-15
6.7114e-15
6.74652e-15
6.78228e-15
6.81867e-15
6.85566e-15
6.89325e-15
6.93149e-15
6.97049e-15
7.01048e-15
7.05168e-15
7.0943e-15
7.13833e-15
7.18337e-15
7.22852e-15
7.27254e-15
7.31428e-15
7.35364e-15
6.21623e-15
6.24289e-15
6.26976e-15
6.29694e-15
6.3245e-15
6.35251e-15
6.38099e-15
6.40997e-15
6.43947e-15
6.46951e-15
6.5001e-15
6.53125e-15
6.56299e-15
6.59533e-15
6.62829e-15
6.66188e-15
6.69612e-15
6.73101e-15
6.76656e-15
6.80275e-15
6.83954e-15
6.87695e-15
6.91499e-15
6.95376e-15
6.99344e-15
7.03426e-15
7.07644e-15
7.12004e-15
7.16475e-15
7.2098e-15
7.254e-15
7.29616e-15
7.33584e-15
7.37411e-15
7.4142e-15
7.46273e-15
7.53311e-15
7.65374e-15
6.20462e-15
6.23109e-15
6.25778e-15
6.28479e-15
6.31219e-15
6.34002e-15
6.36833e-15
6.39714e-15
6.42646e-15
6.45631e-15
6.48671e-15
6.51767e-15
6.54921e-15
6.58134e-15
6.61409e-15
6.64746e-15
6.68147e-15
6.71615e-15
6.75147e-15
6.78744e-15
6.82404e-15
6.86124e-15
6.89906e-15
6.93757e-15
6.97693e-15
7.01734e-15
7.05902e-15
7.10211e-15
7.14643e-15
7.19138e-15
7.23586e-15
7.27864e-15
7.31893e-15
7.35718e-15
7.3957e-15
7.43949e-15
7.49853e-15
7.59372e-15
6.19358e-15
6.21987e-15
6.24638e-15
6.27321e-15
6.30043e-15
6.3281e-15
6.35623e-15
6.38486e-15
6.414e-15
6.44367e-15
6.47388e-15
6.50465e-15
6.53599e-15
6.56792e-15
6.60046e-15
6.63361e-15
6.6674e-15
6.70184e-15
6.73694e-15
6.77269e-15
6.80906e-15
6.84605e-15
6.88364e-15
6.92189e-15
6.96092e-15
7.00091e-15
7.0421e-15
7.08465e-15
7.12853e-15
7.17329e-15
7.21802e-15
7.26148e-15
7.30262e-15
7.34135e-15
7.37919e-15
7.41992e-15
7.47111e-15
7.54822e-15
6.18308e-15
6.20919e-15
6.23553e-15
6.26218e-15
6.28923e-15
6.31673e-15
6.34469e-15
6.37314e-15
6.4021e-15
6.43158e-15
6.46161e-15
6.49218e-15
6.52333e-15
6.55505e-15
6.58737e-15
6.6203e-15
6.65387e-15
6.68808e-15
6.72294e-15
6.75845e-15
6.7946e-15
6.83137e-15
6.86874e-15
6.90674e-15
6.94546e-15
6.98507e-15
7.02578e-15
7.06781e-15
7.11121e-15
7.15571e-15
7.20059e-15
7.24466e-15
7.28675e-15
7.32629e-15
7.3641e-15
7.403e-15
7.44881e-15
7.51325e-15
7.62116e-15
6.17308e-15
6.19903e-15
6.2252e-15
6.2517e-15
6.27858e-15
6.3059e-15
6.33369e-15
6.36197e-15
6.39074e-15
6.42004e-15
6.44987e-15
6.48026e-15
6.5112e-15
6.54272e-15
6.57482e-15
6.60754e-15
6.64087e-15
6.67484e-15
6.70947e-15
6.74474e-15
6.78065e-15
6.81719e-15
6.85433e-15
6.89208e-15
6.93052e-15
6.96976e-15
7.01003e-15
7.05154e-15
7.09442e-15
7.13855e-15
7.18338e-15
7.22787e-15
7.27079e-15
7.31125e-15
7.34949e-15
7.38753e-15
7.42988e-15
7.48555e-15
7.57335e-15
6.16357e-15
6.18937e-15
6.2154e-15
6.24174e-15
6.26847e-15
6.29563e-15
6.32324e-15
6.35134e-15
6.37994e-15
6.40905e-15
6.43869e-15
6.46887e-15
6.49961e-15
6.53092e-15
6.56281e-15
6.5953e-15
6.62841e-15
6.66214e-15
6.69652e-15
6.73155e-15
6.76723e-15
6.80352e-15
6.84043e-15
6.87794e-15
6.9161e-15
6.95501e-15
6.99485e-15
7.03586e-15
7.07821e-15
7.12189e-15
7.16651e-15
7.21121e-15
7.25478e-15
7.29615e-15
7.33509e-15
7.37292e-15
7.41313e-15
7.46277e-15
7.53623e-15
6.15454e-15
6.18021e-15
6.20611e-15
6.23231e-15
6.25889e-15
6.2859e-15
6.31335e-15
6.34127e-15
6.36969e-15
6.39861e-15
6.42806e-15
6.45805e-15
6.48858e-15
6.51968e-15
6.55136e-15
6.58362e-15
6.61649e-15
6.64999e-15
6.68413e-15
6.71891e-15
6.75433e-15
6.79039e-15
6.82706e-15
6.86432e-15
6.90222e-15
6.94082e-15
6.98028e-15
7.02081e-15
7.06264e-15
7.10582e-15
7.15011e-15
7.19484e-15
7.2389e-15
7.28109e-15
7.32084e-15
7.35888e-15
7.39788e-15
7.44341e-15
7.50666e-15
6.14597e-15
6.17154e-15
6.19732e-15
6.22341e-15
6.24985e-15
6.27671e-15
6.304e-15
6.33176e-15
6.36e-15
6.38874e-15
6.41799e-15
6.44778e-15
6.47811e-15
6.509e-15
6.54046e-15
6.57251e-15
6.60515e-15
6.63841e-15
6.6723e-15
6.70684e-15
6.74201e-15
6.77782e-15
6.81425e-15
6.85127e-15
6.88891e-15
6.92721e-15
6.96631e-15
7.00642e-15
7.04773e-15
7.0904e-15
7.13429e-15
7.1789e-15
7.22324e-15
7.26611e-15
7.30668e-15
7.34518e-15
7.38357e-15
7.42631e-15
7.48225e-15
6.13782e-15
6.16334e-15
6.18906e-15
6.21504e-15
6.24136e-15
6.26807e-15
6.29521e-15
6.3228e-15
6.35086e-15
6.37942e-15
6.40849e-15
6.43809e-15
6.46822e-15
6.49891e-15
6.53016e-15
6.56199e-15
6.5944e-15
6.62743e-15
6.66108e-15
6.69537e-15
6.7303e-15
6.76587e-15
6.80205e-15
6.83883e-15
6.87622e-15
6.91424e-15
6.95302e-15
6.99271e-15
7.03355e-15
7.07571e-15
7.11916e-15
7.16353e-15
7.20798e-15
7.25138e-15
7.2927e-15
7.3318e-15
7.37002e-15
7.41089e-15
7.46157e-15
6.15553e-15
6.18128e-15
6.2072e-15
6.23341e-15
6.25999e-15
6.28697e-15
6.31441e-15
6.34231e-15
6.37069e-15
6.39958e-15
6.42899e-15
6.45894e-15
6.48943e-15
6.52047e-15
6.55209e-15
6.58429e-15
6.61709e-15
6.65051e-15
6.68456e-15
6.71925e-15
6.75457e-15
6.79052e-15
6.82707e-15
6.86421e-15
6.90198e-15
6.94045e-15
6.97977e-15
7.02017e-15
7.06183e-15
7.10482e-15
7.14888e-15
7.19333e-15
7.2371e-15
7.2791e-15
7.31885e-15
7.35718e-15
7.39688e-15
7.44375e-15
6.17388e-15
6.19985e-15
6.22601e-15
6.25247e-15
6.27932e-15
6.3066e-15
6.33435e-15
6.36257e-15
6.39129e-15
6.42052e-15
6.45028e-15
6.48058e-15
6.51143e-15
6.54284e-15
6.57484e-15
6.60742e-15
6.64062e-15
6.67444e-15
6.7089e-15
6.74399e-15
6.77971e-15
6.81603e-15
6.85295e-15
6.89047e-15
6.92867e-15
6.96766e-15
7.00766e-15
7.04886e-15
7.09139e-15
7.1351e-15
7.17944e-15
7.22346e-15
7.26603e-15
7.30643e-15
7.34506e-15
7.38406e-15
7.42819e-15
6.16692e-15
6.19291e-15
6.21907e-15
6.24548e-15
6.27224e-15
6.2994e-15
6.327e-15
6.35507e-15
6.38363e-15
6.41269e-15
6.44227e-15
6.47239e-15
6.50305e-15
6.53428e-15
6.56607e-15
6.59846e-15
6.63145e-15
6.66506e-15
6.6993e-15
6.73417e-15
6.76967e-15
6.80578e-15
6.84249e-15
6.87979e-15
6.91774e-15
6.95644e-15
6.99608e-15
7.03688e-15
7.07897e-15
7.12233e-15
7.16651e-15
7.21069e-15
7.25375e-15
7.29479e-15
7.33386e-15
7.37253e-15
7.41477e-15
6.18638e-15
6.2126e-15
6.239e-15
6.26569e-15
6.29276e-15
6.32024e-15
6.34818e-15
6.37659e-15
6.40549e-15
6.43491e-15
6.46486e-15
6.49536e-15
6.5264e-15
6.55802e-15
6.59021e-15
6.62301e-15
6.65642e-15
6.69046e-15
6.72513e-15
6.76044e-15
6.79635e-15
6.83287e-15
6.86997e-15
6.9077e-15
6.94615e-15
6.98548e-15
7.0259e-15
7.06761e-15
7.11061e-15
7.1546e-15
7.19886e-15
7.24231e-15
7.28395e-15
7.3235e-15
7.36209e-15
7.403e-15
6.18035e-15
6.20661e-15
6.23303e-15
6.25969e-15
6.28669e-15
6.31408e-15
6.34189e-15
6.37017e-15
6.39894e-15
6.42821e-15
6.45801e-15
6.48835e-15
6.51923e-15
6.55068e-15
6.58271e-15
6.61533e-15
6.64856e-15
6.68242e-15
6.71691e-15
6.75202e-15
6.78776e-15
6.8241e-15
6.86102e-15
6.89856e-15
6.93678e-15
6.97585e-15
7.01595e-15
7.0573e-15
7.09997e-15
7.14375e-15
7.18802e-15
7.23178e-15
7.27396e-15
7.31403e-15
7.35271e-15
7.39271e-15
6.20106e-15
6.22758e-15
6.25425e-15
6.28119e-15
6.30849e-15
6.3362e-15
6.36437e-15
6.39301e-15
6.42216e-15
6.45182e-15
6.48202e-15
6.51276e-15
6.54407e-15
6.57594e-15
6.60841e-15
6.64148e-15
6.67517e-15
6.70949e-15
6.74444e-15
6.78002e-15
6.81619e-15
6.85296e-15
6.89032e-15
6.92836e-15
6.96718e-15
7.00701e-15
7.04803e-15
7.09039e-15
7.13395e-15
7.17819e-15
7.22218e-15
7.26482e-15
7.30538e-15
7.34424e-15
7.38365e-15
6.2226e-15
6.24935e-15
6.27627e-15
6.30349e-15
6.33111e-15
6.35918e-15
6.38773e-15
6.41676e-15
6.44632e-15
6.4764e-15
6.50702e-15
6.53819e-15
6.56993e-15
6.60226e-15
6.63519e-15
6.66873e-15
6.7029e-15
6.73771e-15
6.77313e-15
6.80916e-15
6.84578e-15
6.883e-15
6.92086e-15
6.95948e-15
6.99905e-15
7.0398e-15
7.08187e-15
7.1252e-15
7.16937e-15
7.21352e-15
7.25652e-15
7.29753e-15
7.33661e-15
7.37563e-15
6.2182e-15
6.24495e-15
6.27188e-15
6.29908e-15
6.32665e-15
6.35465e-15
6.38312e-15
6.41206e-15
6.44152e-15
6.4715e-15
6.50201e-15
6.53307e-15
6.5647e-15
6.5969e-15
6.6297e-15
6.66311e-15
6.69715e-15
6.73182e-15
6.76711e-15
6.80302e-15
6.83951e-15
6.87659e-15
6.91429e-15
6.95274e-15
6.99209e-15
7.03259e-15
7.07439e-15
7.11751e-15
7.16159e-15
7.20583e-15
7.24913e-15
7.29051e-15
7.32983e-15
7.3686e-15
6.21439e-15
6.24112e-15
6.26804e-15
6.29524e-15
6.32279e-15
6.35075e-15
6.37916e-15
6.40805e-15
6.43742e-15
6.46732e-15
6.49774e-15
6.52871e-15
6.56023e-15
6.59233e-15
6.62502e-15
6.65832e-15
6.69225e-15
6.7268e-15
6.76197e-15
6.79776e-15
6.83414e-15
6.8711e-15
6.90868e-15
6.94697e-15
6.98615e-15
7.02642e-15
7.068e-15
7.11092e-15
7.1549e-15
7.19919e-15
7.24272e-15
7.28442e-15
7.32397e-15
7.36259e-15
6.21118e-15
6.23792e-15
6.26484e-15
6.29203e-15
6.31957e-15
6.34751e-15
6.37587e-15
6.40471e-15
6.43403e-15
6.46385e-15
6.4942e-15
6.52509e-15
6.55654e-15
6.58855e-15
6.62115e-15
6.65436e-15
6.68819e-15
6.72264e-15
6.75772e-15
6.79341e-15
6.8297e-15
6.86656e-15
6.90404e-15
6.94221e-15
6.98123e-15
7.02133e-15
7.06272e-15
7.10547e-15
7.14934e-15
7.19367e-15
7.23738e-15
7.27935e-15
7.3191e-15
7.35765e-15
6.23528e-15
6.26229e-15
6.2895e-15
6.31702e-15
6.34493e-15
6.37327e-15
6.40206e-15
6.43134e-15
6.46112e-15
6.49142e-15
6.52225e-15
6.55363e-15
6.58557e-15
6.6181e-15
6.65123e-15
6.68498e-15
6.71936e-15
6.75436e-15
6.78998e-15
6.82619e-15
6.86298e-15
6.90037e-15
6.93844e-15
6.97735e-15
7.01731e-15
7.05854e-15
7.10115e-15
7.14495e-15
7.18929e-15
7.23313e-15
7.27532e-15
7.31526e-15
7.35379e-15
6.23326e-15
6.26035e-15
6.28763e-15
6.31518e-15
6.34309e-15
6.3714e-15
6.40017e-15
6.42941e-15
6.45915e-15
6.4894e-15
6.52018e-15
6.55151e-15
6.58341e-15
6.61588e-15
6.64895e-15
6.68265e-15
6.71696e-15
6.75191e-15
6.78747e-15
6.82362e-15
6.86035e-15
6.89768e-15
6.93568e-15
6.9745e-15
7.01435e-15
7.05547e-15
7.09798e-15
7.14171e-15
7.18606e-15
7.23001e-15
7.27236e-15
7.31245e-15
7.35098e-15
6.25898e-15
6.2864e-15
6.31402e-15
6.34194e-15
6.37025e-15
6.399e-15
6.42822e-15
6.45794e-15
6.48816e-15
6.51891e-15
6.5502e-15
6.58206e-15
6.6145e-15
6.64754e-15
6.68119e-15
6.71547e-15
6.75037e-15
6.78589e-15
6.822e-15
6.85869e-15
6.89598e-15
6.93393e-15
6.97268e-15
7.01247e-15
7.05351e-15
7.09593e-15
7.13961e-15
7.18396e-15
7.22795e-15
7.27041e-15
7.31058e-15
7.34911e-15
6.25825e-15
6.28579e-15
6.31351e-15
6.34149e-15
6.36983e-15
6.39859e-15
6.4278e-15
6.4575e-15
6.4877e-15
6.51844e-15
6.54971e-15
6.58155e-15
6.61397e-15
6.64699e-15
6.68062e-15
6.71488e-15
6.74976e-15
6.78526e-15
6.82135e-15
6.85802e-15
6.89528e-15
6.93321e-15
6.97193e-15
7.01167e-15
7.05267e-15
7.09505e-15
7.13869e-15
7.18302e-15
7.22703e-15
7.26952e-15
7.30972e-15
7.34823e-15
6.2858e-15
6.31368e-15
6.34174e-15
6.37011e-15
6.39888e-15
6.4281e-15
6.4578e-15
6.48802e-15
6.51876e-15
6.55004e-15
6.58189e-15
6.61431e-15
6.64733e-15
6.68097e-15
6.71522e-15
6.75011e-15
6.78561e-15
6.8217e-15
6.85838e-15
6.89564e-15
6.93356e-15
6.97228e-15
7.01202e-15
7.05301e-15
7.09539e-15
7.13903e-15
7.18335e-15
7.22735e-15
7.26983e-15
7.31002e-15
7.34851e-15
6.28653e-15
6.31451e-15
6.34265e-15
6.37108e-15
6.39989e-15
6.42915e-15
6.45889e-15
6.48913e-15
6.51989e-15
6.5512e-15
6.58307e-15
6.61552e-15
6.64857e-15
6.68223e-15
6.71651e-15
6.75143e-15
6.78695e-15
6.82307e-15
6.85977e-15
6.89705e-15
6.935e-15
6.97376e-15
7.01354e-15
7.05458e-15
7.097e-15
7.14067e-15
7.18501e-15
7.22899e-15
7.27143e-15
7.31158e-15
7.35009e-15
6.28795e-15
6.31599e-15
6.34422e-15
6.37272e-15
6.4016e-15
6.43092e-15
6.46071e-15
6.49101e-15
6.52182e-15
6.55318e-15
6.5851e-15
6.6176e-15
6.65069e-15
6.6844e-15
6.71874e-15
6.7537e-15
6.78928e-15
6.82545e-15
6.8622e-15
6.89954e-15
6.93755e-15
6.97638e-15
7.01624e-15
7.05737e-15
7.09987e-15
7.1436e-15
7.18795e-15
7.23188e-15
7.27422e-15
7.31428e-15
7.35279e-15
6.29007e-15
6.31818e-15
6.34648e-15
6.37506e-15
6.40402e-15
6.43341e-15
6.46328e-15
6.49365e-15
6.52454e-15
6.55597e-15
6.58796e-15
6.62053e-15
6.6537e-15
6.68749e-15
6.7219e-15
6.75694e-15
6.79259e-15
6.82883e-15
6.86566e-15
6.90308e-15
6.94118e-15
6.98012e-15
7.02011e-15
7.06137e-15
7.10401e-15
7.14783e-15
7.1922e-15
7.23606e-15
7.27827e-15
7.31822e-15
7.35675e-15
6.29289e-15
6.32107e-15
6.34944e-15
6.37811e-15
6.40715e-15
6.43664e-15
6.4666e-15
6.49706e-15
6.52804e-15
6.55956e-15
6.59165e-15
6.62431e-15
6.65758e-15
6.69147e-15
6.72598e-15
6.76112e-15
6.79687e-15
6.83321e-15
6.87013e-15
6.90766e-15
6.94589e-15
6.98497e-15
7.02512e-15
7.06657e-15
7.10938e-15
7.15332e-15
7.19771e-15
7.24147e-15
7.2835e-15
7.3233e-15
7.36189e-15
6.2964e-15
6.32466e-15
6.35311e-15
6.38187e-15
6.41101e-15
6.44059e-15
6.47066e-15
6.50122e-15
6.53231e-15
6.56394e-15
6.59614e-15
6.62892e-15
6.66231e-15
6.69632e-15
6.73095e-15
6.76621e-15
6.80208e-15
6.83855e-15
6.87559e-15
6.91326e-15
6.95164e-15
6.9909e-15
7.03126e-15
7.07293e-15
7.11595e-15
7.16002e-15
7.20442e-15
7.24805e-15
7.28985e-15
7.32948e-15
7.36818e-15
6.30056e-15
6.32892e-15
6.35747e-15
6.38633e-15
6.41558e-15
6.44527e-15
6.47545e-15
6.50613e-15
6.53734e-15
6.5691e-15
6.60143e-15
6.63435e-15
6.66787e-15
6.70202e-15
6.73679e-15
6.7722e-15
6.80821e-15
6.84481e-15
6.882e-15
6.91982e-15
6.95838e-15
6.99785e-15
7.03847e-15
7.0804e-15
7.12365e-15
7.16787e-15
7.21225e-15
7.25568e-15
7.29719e-15
7.33663e-15
7.37551e-15
6.30537e-15
6.33383e-15
6.3625e-15
6.39147e-15
6.42084e-15
6.45066e-15
6.48096e-15
6.51178e-15
6.54312e-15
6.57502e-15
6.6075e-15
6.64056e-15
6.67424e-15
6.70854e-15
6.74348e-15
6.77903e-15
6.8152e-15
6.85196e-15
6.88931e-15
6.9273e-15
6.96607e-15
7.00579e-15
7.04669e-15
7.08891e-15
7.13242e-15
7.17677e-15
7.22109e-15
7.26426e-15
7.30543e-15
7.34466e-15
7.38383e-15
6.31081e-15
6.3394e-15
6.36818e-15
6.39728e-15
6.42679e-15
6.45674e-15
6.48718e-15
6.51814e-15
6.54964e-15
6.58169e-15
6.61432e-15
6.64755e-15
6.68139e-15
6.71587e-15
6.75097e-15
6.7867e-15
6.82303e-15
6.85995e-15
6.89748e-15
6.93567e-15
6.97467e-15
7.01467e-15
7.05588e-15
7.09842e-15
7.14219e-15
7.18664e-15
7.23084e-15
7.27367e-15
7.31443e-15
7.35347e-15
7.39306e-15
6.31687e-15
6.34558e-15
6.37451e-15
6.40375e-15
6.43339e-15
6.4635e-15
6.49409e-15
6.5252e-15
6.55686e-15
6.58908e-15
6.62188e-15
6.65528e-15
6.68931e-15
6.72396e-15
6.75925e-15
6.79516e-15
6.83167e-15
6.86877e-15
6.90649e-15
6.9449e-15
6.98415e-15
7.02445e-15
7.06601e-15
7.1089e-15
7.15291e-15
7.19742e-15
7.24141e-15
7.28381e-15
7.32409e-15
7.36297e-15
7.40319e-15
6.32352e-15
6.35238e-15
6.38145e-15
6.41084e-15
6.44064e-15
6.47091e-15
6.50167e-15
6.53295e-15
6.56477e-15
6.59717e-15
6.63015e-15
6.66374e-15
6.69796e-15
6.73281e-15
6.76829e-15
6.80439e-15
6.84109e-15
6.87838e-15
6.91631e-15
6.95496e-15
6.99449e-15
7.03514e-15
7.07707e-15
7.12031e-15
7.16456e-15
7.20908e-15
7.25279e-15
7.29468e-15
7.33447e-15