/*--------------------------------*- C++ -*----------------------------------*\
  =========                 |
  \\      /  F ield         | OpenFOAM: The Open Source CFD Toolbox
   \\    /   O peration     | Website:  https://openfoam.org
    \\  /    A nd           | Version:  7
     \\/     M anipulation  |
\*---------------------------------------------------------------------------*/
FoamFile
{
    version     2.0;
    format      ascii;
    class       volScalarField;
    location    "192000";
    object      nut;
}
// * * * * * * * * * * * * * * * * * * * * * * * * * * * * * * * * * * * * * //

dimensions      [0 2 -1 0 0 0 0];

internalField   nonuniform List<scalar> 
4850
(
2.80241e-05
2.80992e-05
2.78769e-05
2.79542e-05
2.8028e-05
2.77256e-05
2.78048e-05
2.78807e-05
2.79532e-05
2.80224e-05
2.757e-05
2.76513e-05
2.77291e-05
2.78035e-05
2.78747e-05
2.79424e-05
2.74105e-05
2.74936e-05
2.75733e-05
2.76497e-05
2.77226e-05
2.77922e-05
2.78583e-05
2.7247e-05
2.7332e-05
2.74135e-05
2.74917e-05
2.75664e-05
2.76377e-05
2.77055e-05
2.77697e-05
2.78304e-05
2.70798e-05
2.71665e-05
2.72498e-05
2.73297e-05
2.74061e-05
2.74791e-05
2.75485e-05
2.76144e-05
2.76766e-05
2.77352e-05
2.69089e-05
2.69973e-05
2.70823e-05
2.71638e-05
2.72419e-05
2.73165e-05
2.73875e-05
2.74549e-05
2.75186e-05
2.75786e-05
2.76348e-05
2.76874e-05
2.77362e-05
2.77812e-05
2.67344e-05
2.68245e-05
2.6911e-05
2.69942e-05
2.70739e-05
2.715e-05
2.72225e-05
2.72914e-05
2.73565e-05
2.74179e-05
2.74755e-05
2.75292e-05
2.75792e-05
2.76253e-05
2.76676e-05
2.7706e-05
2.77405e-05
2.77713e-05
2.65565e-05
2.66481e-05
2.67362e-05
2.68209e-05
2.69021e-05
2.69797e-05
2.70537e-05
2.7124e-05
2.71905e-05
2.72532e-05
2.7312e-05
2.7367e-05
2.74181e-05
2.74653e-05
2.75085e-05
2.75479e-05
2.75833e-05
2.76147e-05
2.76422e-05
2.76658e-05
2.63753e-05
2.64684e-05
2.6558e-05
2.66441e-05
2.67268e-05
2.68058e-05
2.68812e-05
2.69528e-05
2.70206e-05
2.70846e-05
2.71446e-05
2.72008e-05
2.7253e-05
2.73012e-05
2.73454e-05
2.73856e-05
2.74218e-05
2.7454e-05
2.74821e-05
2.75063e-05
2.75264e-05
2.75425e-05
2.75545e-05
2.75626e-05
2.61909e-05
2.62854e-05
2.63764e-05
2.64639e-05
2.6548e-05
2.66284e-05
2.67051e-05
2.6778e-05
2.68471e-05
2.69122e-05
2.69735e-05
2.70307e-05
2.7084e-05
2.71332e-05
2.71783e-05
2.72193e-05
2.72563e-05
2.72892e-05
2.7318e-05
2.73426e-05
2.73632e-05
2.73796e-05
2.7392e-05
2.74002e-05
2.74043e-05
2.74043e-05
2.74002e-05
2.7392e-05
2.73796e-05
2.60033e-05
2.60992e-05
2.61915e-05
2.62804e-05
2.63658e-05
2.64475e-05
2.65255e-05
2.65996e-05
2.66699e-05
2.67363e-05
2.67986e-05
2.68569e-05
2.69112e-05
2.69613e-05
2.70073e-05
2.70492e-05
2.70869e-05
2.71204e-05
2.71498e-05
2.7175e-05
2.71959e-05
2.72127e-05
2.72253e-05
2.72337e-05
2.72379e-05
2.72379e-05
2.72337e-05
2.72253e-05
2.72127e-05
2.71959e-05
2.7175e-05
2.71498e-05
2.58127e-05
2.59099e-05
2.60035e-05
2.60937e-05
2.61804e-05
2.62633e-05
2.63425e-05
2.64179e-05
2.64893e-05
2.65568e-05
2.66202e-05
2.66795e-05
2.67347e-05
2.67857e-05
2.68326e-05
2.68752e-05
2.69137e-05
2.69478e-05
2.69778e-05
2.70034e-05
2.70248e-05
2.70419e-05
2.70548e-05
2.70633e-05
2.70676e-05
2.70676e-05
2.70633e-05
2.70548e-05
2.70419e-05
2.70248e-05
2.70034e-05
2.69778e-05
2.69479e-05
2.69137e-05
2.56192e-05
2.57176e-05
2.58125e-05
2.59039e-05
2.59918e-05
2.60759e-05
2.61563e-05
2.62328e-05
2.63053e-05
2.63738e-05
2.64383e-05
2.64986e-05
2.65547e-05
2.66066e-05
2.66543e-05
2.66977e-05
2.67367e-05
2.67715e-05
2.6802e-05
2.68281e-05
2.68499e-05
2.68673e-05
2.68804e-05
2.68891e-05
2.68935e-05
2.68935e-05
2.68891e-05
2.68804e-05
2.68673e-05
2.68499e-05
2.68281e-05
2.6802e-05
2.67715e-05
2.67368e-05
2.5423e-05
2.55225e-05
2.56186e-05
2.57112e-05
2.58002e-05
2.58854e-05
2.59669e-05
2.60445e-05
2.61181e-05
2.61876e-05
2.6253e-05
2.63142e-05
2.63712e-05
2.6424e-05
2.64724e-05
2.65165e-05
2.65563e-05
2.65916e-05
2.66226e-05
2.66492e-05
2.66713e-05
2.66891e-05
2.67024e-05
2.67113e-05
2.67157e-05
2.67157e-05
2.67113e-05
2.67024e-05
2.66891e-05
2.66713e-05
2.66492e-05
2.66226e-05
2.65916e-05
2.65563e-05
2.5224e-05
2.53247e-05
2.54218e-05
2.55155e-05
2.56056e-05
2.5692e-05
2.57745e-05
2.58531e-05
2.59277e-05
2.59982e-05
2.60645e-05
2.61266e-05
2.61845e-05
2.6238e-05
2.62872e-05
2.63319e-05
2.63723e-05
2.64082e-05
2.64397e-05
2.64667e-05
2.64892e-05
2.65072e-05
2.65208e-05
2.65298e-05
2.65343e-05
2.65343e-05
2.65298e-05
2.65208e-05
2.65073e-05
2.64892e-05
2.64667e-05
2.64397e-05
2.64083e-05
2.63723e-05
2.50224e-05
2.51241e-05
2.52223e-05
2.53171e-05
2.54082e-05
2.54956e-05
2.55791e-05
2.56587e-05
2.57343e-05
2.58057e-05
2.58729e-05
2.59359e-05
2.59945e-05
2.60488e-05
2.60986e-05
2.61441e-05
2.6185e-05
2.62215e-05
2.62534e-05
2.62808e-05
2.63037e-05
2.6322e-05
2.63357e-05
2.63449e-05
2.63494e-05
2.63494e-05
2.63449e-05
2.63357e-05
2.6322e-05
2.63037e-05
2.62808e-05
2.62534e-05
2.62215e-05
2.6185e-05
2.48183e-05
2.4921e-05
2.50203e-05
2.5116e-05
2.52081e-05
2.52965e-05
2.53809e-05
2.54615e-05
2.55379e-05
2.56102e-05
2.56783e-05
2.5742e-05
2.58014e-05
2.58564e-05
2.59069e-05
2.5953e-05
2.59945e-05
2.60314e-05
2.60638e-05
2.60916e-05
2.61148e-05
2.61334e-05
2.61473e-05
2.61566e-05
2.61612e-05
2.61612e-05
2.61566e-05
2.61473e-05
2.61334e-05
2.61148e-05
2.60916e-05
2.60638e-05
2.60315e-05
2.59945e-05
2.46119e-05
2.47155e-05
2.48156e-05
2.49123e-05
2.50053e-05
2.50946e-05
2.518e-05
2.52614e-05
2.53387e-05
2.54118e-05
2.54807e-05
2.55452e-05
2.56053e-05
2.5661e-05
2.57121e-05
2.57588e-05
2.58008e-05
2.58383e-05
2.58711e-05
2.58992e-05
2.59227e-05
2.59415e-05
2.59557e-05
2.59651e-05
2.59698e-05
2.59698e-05
2.59651e-05
2.59557e-05
2.59416e-05
2.59227e-05
2.58993e-05
2.58711e-05
2.58383e-05
2.58008e-05
2.44031e-05
2.45076e-05
2.46086e-05
2.47061e-05
2.48001e-05
2.48902e-05
2.49765e-05
2.50587e-05
2.51368e-05
2.52107e-05
2.52803e-05
2.53455e-05
2.54063e-05
2.54626e-05
2.55144e-05
2.55616e-05
2.56041e-05
2.5642e-05
2.56753e-05
2.57038e-05
2.57276e-05
2.57466e-05
2.57609e-05
2.57704e-05
2.57752e-05
2.57752e-05
2.57704e-05
2.57609e-05
2.57466e-05
2.57276e-05
2.57038e-05
2.56753e-05
2.56421e-05
2.56042e-05
2.4192e-05
2.42974e-05
2.43992e-05
2.44976e-05
2.45924e-05
2.46833e-05
2.47704e-05
2.48534e-05
2.49322e-05
2.50069e-05
2.50772e-05
2.51431e-05
2.52045e-05
2.52615e-05
2.53138e-05
2.53615e-05
2.54045e-05
2.54429e-05
2.54765e-05
2.55053e-05
2.55294e-05
2.55487e-05
2.55631e-05
2.55728e-05
2.55776e-05
2.55776e-05
2.55728e-05
2.55631e-05
2.55487e-05
2.55294e-05
2.55053e-05
2.54765e-05
2.54429e-05
2.54046e-05
2.39789e-05
2.4085e-05
2.41876e-05
2.42868e-05
2.43823e-05
2.4474e-05
2.45618e-05
2.46456e-05
2.47252e-05
2.48005e-05
2.48715e-05
2.4938e-05
2.50001e-05
2.50576e-05
2.51104e-05
2.51586e-05
2.52021e-05
2.52409e-05
2.52748e-05
2.5304e-05
2.53283e-05
2.53478e-05
2.53624e-05
2.53722e-05
2.53771e-05
2.53771e-05
2.53722e-05
2.53624e-05
2.53478e-05
2.53283e-05
2.5304e-05
2.52748e-05
2.52409e-05
2.52021e-05
2.51587e-05
2.37637e-05
2.38705e-05
2.39739e-05
2.40738e-05
2.417e-05
2.42624e-05
2.43509e-05
2.44354e-05
2.45156e-05
2.45916e-05
2.46632e-05
2.47304e-05
2.4793e-05
2.4851e-05
2.49044e-05
2.49531e-05
2.4997e-05
2.50361e-05
2.50704e-05
2.50999e-05
2.51245e-05
2.51442e-05
2.51589e-05
2.51688e-05
2.51737e-05
2.51737e-05
2.51688e-05
2.51589e-05
2.51442e-05
2.51245e-05
2.50999e-05
2.50705e-05
2.50361e-05
2.4997e-05
2.49531e-05
2.35466e-05
2.3654e-05
2.37581e-05
2.38586e-05
2.39555e-05
2.40486e-05
2.41378e-05
2.42229e-05
2.43038e-05
2.43804e-05
2.44526e-05
2.45203e-05
2.45835e-05
2.4642e-05
2.46958e-05
2.4745e-05
2.47893e-05
2.48288e-05
2.48634e-05
2.48931e-05
2.49179e-05
2.49378e-05
2.49527e-05
2.49627e-05
2.49677e-05
2.49677e-05
2.49627e-05
2.49527e-05
2.49378e-05
2.49179e-05
2.48931e-05
2.48634e-05
2.48288e-05
2.47893e-05
2.4745e-05
2.33276e-05
2.34357e-05
2.35403e-05
2.36415e-05
2.3739e-05
2.38327e-05
2.39225e-05
2.40082e-05
2.40897e-05
2.41668e-05
2.42396e-05
2.43078e-05
2.43715e-05
2.44305e-05
2.44848e-05
2.45343e-05
2.4579e-05
2.46189e-05
2.46538e-05
2.46838e-05
2.47088e-05
2.47289e-05
2.47439e-05
2.4754e-05
2.4759e-05
2.4759e-05
2.4754e-05
2.47439e-05
2.47289e-05
2.47088e-05
2.46838e-05
2.46538e-05
2.46189e-05
2.45791e-05
2.31068e-05
2.32154e-05
2.33207e-05
2.34224e-05
2.35205e-05
2.36148e-05
2.37052e-05
2.37914e-05
2.38734e-05
2.39511e-05
2.40244e-05
2.40931e-05
2.41573e-05
2.42167e-05
2.42714e-05
2.43213e-05
2.43664e-05
2.44065e-05
2.44417e-05
2.4472e-05
2.44972e-05
2.45174e-05
2.45326e-05
2.45427e-05
2.45478e-05
2.45478e-05
2.45427e-05
2.45326e-05
2.45174e-05
2.44972e-05
2.4472e-05
2.44417e-05
2.44065e-05
2.43664e-05
2.28843e-05
2.29935e-05
2.30992e-05
2.32015e-05
2.33001e-05
2.3395e-05
2.34858e-05
2.35726e-05
2.36551e-05
2.37333e-05
2.3807e-05
2.38762e-05
2.39408e-05
2.40007e-05
2.40558e-05
2.4106e-05
2.41514e-05
2.41918e-05
2.42273e-05
2.42578e-05
2.42832e-05
2.43036e-05
2.43189e-05
2.43291e-05
2.43342e-05
2.43342e-05
2.43291e-05
2.43189e-05
2.43036e-05
2.42832e-05
2.42578e-05
2.42273e-05
2.41919e-05
2.41514e-05
2.26603e-05
2.27699e-05
2.28761e-05
2.29788e-05
2.3078e-05
2.31733e-05
2.32646e-05
2.33518e-05
2.34348e-05
2.35135e-05
2.35876e-05
2.36573e-05
2.37222e-05
2.37825e-05
2.38379e-05
2.38885e-05
2.39342e-05
2.39749e-05
2.40106e-05
2.40413e-05
2.40669e-05
2.40875e-05
2.41029e-05
2.41131e-05
2.41183e-05
2.41183e-05
2.41131e-05
2.41029e-05
2.40875e-05
2.40669e-05
2.40413e-05
2.40107e-05
2.39749e-05
2.39342e-05
2.24346e-05
2.25447e-05
2.26513e-05
2.27545e-05
2.28541e-05
2.29498e-05
2.30416e-05
2.31292e-05
2.32127e-05
2.32917e-05
2.33663e-05
2.34363e-05
2.35016e-05
2.35622e-05
2.3618e-05
2.36689e-05
2.37149e-05
2.37558e-05
2.37918e-05
2.38227e-05
2.38484e-05
2.38691e-05
2.38846e-05
2.3895e-05
2.39001e-05
2.39001e-05
2.3895e-05
2.38846e-05
2.38691e-05
2.38485e-05
2.38227e-05
2.37918e-05
2.37559e-05
2.22076e-05
2.2318e-05
2.2425e-05
2.25286e-05
2.26285e-05
2.27247e-05
2.28168e-05
2.29049e-05
2.29887e-05
2.30681e-05
2.31431e-05
2.32134e-05
2.32791e-05
2.334e-05
2.33961e-05
2.34473e-05
2.34935e-05
2.35347e-05
2.35709e-05
2.36019e-05
2.36279e-05
2.36486e-05
2.36642e-05
2.36746e-05
2.36798e-05
2.36798e-05
2.36746e-05
2.36642e-05
2.36486e-05
2.36279e-05
2.36019e-05
2.35709e-05
2.35347e-05
2.19792e-05
2.20899e-05
2.21972e-05
2.23012e-05
2.24015e-05
2.24979e-05
2.25905e-05
2.26789e-05
2.2763e-05
2.28428e-05
2.2918e-05
2.29887e-05
2.30547e-05
2.31159e-05
2.31723e-05
2.32237e-05
2.32702e-05
2.33116e-05
2.33479e-05
2.33792e-05
2.34052e-05
2.34261e-05
2.34418e-05
2.34523e-05
2.34575e-05
2.34575e-05
2.34523e-05
2.34418e-05
2.34261e-05
2.34053e-05
2.33792e-05
2.3348e-05
2.17495e-05
2.18605e-05
2.19681e-05
2.20723e-05
2.21729e-05
2.22697e-05
2.23625e-05
2.24512e-05
2.25357e-05
2.26158e-05
2.26913e-05
2.27623e-05
2.28286e-05
2.289e-05
2.29466e-05
2.29983e-05
2.3045e-05
2.30866e-05
2.31231e-05
2.31545e-05
2.31807e-05
2.32017e-05
2.32175e-05
2.3228e-05
2.32332e-05
2.32332e-05
2.3228e-05
2.32175e-05
2.32017e-05
2.31807e-05
2.31545e-05
2.31231e-05
2.15185e-05
2.16298e-05
2.17376e-05
2.18421e-05
2.1943e-05
2.204e-05
2.21331e-05
2.22221e-05
2.23068e-05
2.23872e-05
2.2463e-05
2.25342e-05
2.26007e-05
2.26625e-05
2.27193e-05
2.27712e-05
2.2818e-05
2.28598e-05
2.28965e-05
2.2928e-05
2.29543e-05
2.29754e-05
2.29913e-05
2.30018e-05
2.30071e-05
2.30071e-05
2.30018e-05
2.29913e-05
2.29754e-05
2.29543e-05
2.2928e-05
2.28965e-05
2.12865e-05
2.13979e-05
2.1506e-05
2.16106e-05
2.17117e-05
2.1809e-05
2.19023e-05
2.19916e-05
2.20765e-05
2.21571e-05
2.22332e-05
2.23046e-05
2.23713e-05
2.24332e-05
2.24903e-05
2.25423e-05
2.25894e-05
2.26313e-05
2.26682e-05
2.26998e-05
2.27262e-05
2.27474e-05
2.27633e-05
2.27739e-05
2.27792e-05
2.27792e-05
2.27739e-05
2.27633e-05
2.27474e-05
2.27262e-05
2.26998e-05
2.26682e-05
2.10533e-05
2.11649e-05
2.12731e-05
2.1378e-05
2.14792e-05
2.15767e-05
2.16702e-05
2.17597e-05
2.18448e-05
2.19256e-05
2.20018e-05
2.20735e-05
2.21404e-05
2.22025e-05
2.22597e-05
2.23119e-05
2.23591e-05
2.24012e-05
2.24382e-05
2.24699e-05
2.24964e-05
2.25177e-05
2.25336e-05
2.25443e-05
2.25496e-05
2.25496e-05
2.25443e-05
2.25336e-05
2.25177e-05
2.24964e-05
2.24699e-05
2.24382e-05
2.08192e-05
2.09309e-05
2.10392e-05
2.11442e-05
2.12456e-05
2.13432e-05
2.14369e-05
2.15265e-05
2.16118e-05
2.16927e-05
2.17692e-05
2.1841e-05
2.1908e-05
2.19703e-05
2.20277e-05
2.208e-05
2.21273e-05
2.21696e-05
2.22066e-05
2.22384e-05
2.2265e-05
2.22863e-05
2.23023e-05
2.2313e-05
2.23184e-05
2.23184e-05
2.2313e-05
2.23023e-05
2.22863e-05
2.2265e-05
2.22384e-05
2.22066e-05
2.05842e-05
2.06959e-05
2.08043e-05
2.09094e-05
2.10109e-05
2.11086e-05
2.12024e-05
2.12921e-05
2.13776e-05
2.14586e-05
2.15352e-05
2.16071e-05
2.16743e-05
2.17367e-05
2.17942e-05
2.18467e-05
2.18941e-05
2.19364e-05
2.19736e-05
2.20055e-05
2.20322e-05
2.20535e-05
2.20696e-05
2.20803e-05
2.20856e-05
2.20856e-05
2.20803e-05
2.20696e-05
2.20535e-05
2.20322e-05
2.20055e-05
2.19736e-05
2.03483e-05
2.046e-05
2.05685e-05
2.06736e-05
2.07751e-05
2.0873e-05
2.09668e-05
2.10566e-05
2.11422e-05
2.12233e-05
2.13e-05
2.13721e-05
2.14394e-05
2.15019e-05
2.15594e-05
2.1612e-05
2.16595e-05
2.17019e-05
2.17392e-05
2.17711e-05
2.17979e-05
2.18193e-05
2.18354e-05
2.18461e-05
2.18515e-05
2.18515e-05
2.18461e-05
2.18354e-05
2.18193e-05
2.17979e-05
2.17711e-05
2.17392e-05
2.01116e-05
2.02233e-05
2.03318e-05
2.04369e-05
2.05385e-05
2.06363e-05
2.07303e-05
2.08201e-05
2.09057e-05
2.09869e-05
2.10637e-05
2.11358e-05
2.12032e-05
2.12658e-05
2.13234e-05
2.13761e-05
2.14237e-05
2.14661e-05
2.15034e-05
2.15355e-05
2.15622e-05
2.15837e-05
2.15998e-05
2.16105e-05
2.16159e-05
2.16159e-05
2.16105e-05
2.15998e-05
2.15837e-05
2.15622e-05
2.15355e-05
2.15034e-05
1.98742e-05
1.99858e-05
2.00943e-05
2.01994e-05
2.03009e-05
2.03988e-05
2.04927e-05
2.05826e-05
2.06682e-05
2.07495e-05
2.08263e-05
2.08985e-05
2.09659e-05
2.10285e-05
2.10862e-05
2.11389e-05
2.11866e-05
2.12291e-05
2.12664e-05
2.12985e-05
2.13253e-05
2.13468e-05
2.13629e-05
2.13737e-05
2.13791e-05
2.13791e-05
2.13737e-05
2.13629e-05
2.13468e-05
2.13253e-05
2.12985e-05
2.12664e-05
1.96362e-05
1.97477e-05
1.9856e-05
1.99611e-05
2.00626e-05
2.01604e-05
2.02543e-05
2.03442e-05
2.04298e-05
2.05111e-05
2.05879e-05
2.06601e-05
2.07276e-05
2.07902e-05
2.0848e-05
2.09007e-05
2.09484e-05
2.09909e-05
2.10283e-05
2.10604e-05
2.10872e-05
2.11087e-05
2.11249e-05
2.11357e-05
2.11411e-05
2.11411e-05
2.11357e-05
2.11249e-05
2.11087e-05
2.10872e-05
2.10604e-05
2.10283e-05
1.93975e-05
1.95089e-05
1.96172e-05
1.97221e-05
1.98235e-05
1.99213e-05
2.00151e-05
2.0105e-05
2.01906e-05
2.02718e-05
2.03486e-05
2.04208e-05
2.04883e-05
2.05509e-05
2.06087e-05
2.06614e-05
2.07091e-05
2.07517e-05
2.07891e-05
2.08212e-05
2.0848e-05
2.08696e-05
2.08857e-05
2.08965e-05
2.09019e-05
2.09019e-05
2.08965e-05
2.08857e-05
2.08696e-05
2.0848e-05
2.08212e-05
2.07891e-05
1.91584e-05
1.92696e-05
1.93777e-05
1.94825e-05
1.95838e-05
1.96815e-05
1.97752e-05
1.9865e-05
1.99505e-05
2.00317e-05
2.01084e-05
2.01806e-05
2.0248e-05
2.03107e-05
2.03684e-05
2.04212e-05
2.04689e-05
2.05115e-05
2.05488e-05
2.0581e-05
2.06078e-05
2.06293e-05
2.06455e-05
2.06563e-05
2.06617e-05
2.06617e-05
2.06563e-05
2.06455e-05
2.06293e-05
2.06078e-05
2.0581e-05
2.05489e-05
1.89188e-05
1.90298e-05
1.91377e-05
1.92423e-05
1.93435e-05
1.9441e-05
1.95346e-05
1.96243e-05
1.97097e-05
1.97908e-05
1.98675e-05
1.99396e-05
2.0007e-05
2.00696e-05
2.01273e-05
2.01801e-05
2.02277e-05
2.02703e-05
2.03077e-05
2.03398e-05
2.03666e-05
2.03882e-05
2.04043e-05
2.04151e-05
2.04205e-05
2.04205e-05
2.04151e-05
2.04043e-05
2.03882e-05
2.03666e-05
2.03398e-05
2.03077e-05
1.86788e-05
1.87896e-05
1.88972e-05
1.90017e-05
1.91026e-05
1.92e-05
1.92935e-05
1.9383e-05
1.94683e-05
1.95493e-05
1.96259e-05
1.96979e-05
1.97652e-05
1.98278e-05
1.98854e-05
1.99381e-05
1.99858e-05
2.00283e-05
2.00656e-05
2.00977e-05
2.01246e-05
2.01461e-05
2.01622e-05
2.0173e-05
2.01784e-05
2.01784e-05
2.0173e-05
2.01622e-05
2.01461e-05
2.01246e-05
2.00978e-05
2.00656e-05
1.84385e-05
1.8549e-05
1.86564e-05
1.87606e-05
1.88613e-05
1.89585e-05
1.90518e-05
1.91411e-05
1.92263e-05
1.93071e-05
1.93836e-05
1.94555e-05
1.95227e-05
1.95852e-05
1.96428e-05
1.96954e-05
1.9743e-05
1.97855e-05
1.98228e-05
1.98549e-05
1.98817e-05
1.99032e-05
1.99193e-05
1.99301e-05
1.99355e-05
1.99355e-05
1.99301e-05
1.99193e-05
1.99032e-05
1.98817e-05
1.98549e-05
1.81979e-05
1.83081e-05
1.84152e-05
1.85191e-05
1.86196e-05
1.87165e-05
1.88096e-05
1.88987e-05
1.89837e-05
1.90644e-05
1.91407e-05
1.92125e-05
1.92796e-05
1.9342e-05
1.93995e-05
1.9452e-05
1.94996e-05
1.9542e-05
1.95792e-05
1.96113e-05
1.96381e-05
1.96595e-05
1.96756e-05
1.96864e-05
1.96918e-05
1.96918e-05
1.96864e-05
1.96756e-05
1.96595e-05
1.96381e-05
1.96113e-05
1.79571e-05
1.80669e-05
1.81737e-05
1.82773e-05
1.83776e-05
1.84742e-05
1.8567e-05
1.86559e-05
1.87407e-05
1.88212e-05
1.88974e-05
1.8969e-05
1.9036e-05
1.90982e-05
1.91556e-05
1.92081e-05
1.92555e-05
1.92978e-05
1.9335e-05
1.9367e-05
1.93937e-05
1.94152e-05
1.94313e-05
1.9442e-05
1.94474e-05
1.94474e-05
1.9442e-05
1.94313e-05
1.94152e-05
1.93938e-05
1.77162e-05
1.78256e-05
1.7932e-05
1.80353e-05
1.81352e-05
1.82315e-05
1.83241e-05
1.84128e-05
1.84973e-05
1.85776e-05
1.86536e-05
1.8725e-05
1.87918e-05
1.88539e-05
1.89112e-05
1.89635e-05
1.90108e-05
1.90531e-05
1.90902e-05
1.91222e-05
1.91488e-05
1.91702e-05
1.91863e-05
1.9197e-05
1.92024e-05
1.92024e-05
1.9197e-05
1.91863e-05
1.91702e-05
1.91488e-05
1.74751e-05
1.75841e-05
1.76902e-05
1.77931e-05
1.78926e-05
1.79887e-05
1.80809e-05
1.81693e-05
1.82536e-05
1.83336e-05
1.84094e-05
1.84806e-05
1.85472e-05
1.86092e-05
1.86663e-05
1.87185e-05
1.87657e-05
1.88079e-05
1.88449e-05
1.88768e-05
1.89034e-05
1.89247e-05
1.89408e-05
1.89515e-05
1.89568e-05
1.89568e-05
1.89515e-05
1.89408e-05
1.89247e-05
1.89034e-05
1.7234e-05
1.73426e-05
1.74482e-05
1.75507e-05
1.76499e-05
1.77456e-05
1.78375e-05
1.79256e-05
1.80096e-05
1.80894e-05
1.81649e-05
1.82359e-05
1.83023e-05
1.8364e-05
1.8421e-05
1.84731e-05
1.85201e-05
1.85622e-05
1.85991e-05
1.86309e-05
1.86574e-05
1.86787e-05
1.86947e-05
1.87054e-05
1.87107e-05
1.87107e-05
1.87054e-05
1.86947e-05
1.86787e-05
1.86574e-05
1.69929e-05
1.7101e-05
1.72062e-05
1.73083e-05
1.74071e-05
1.75024e-05
1.7594e-05
1.76817e-05
1.77654e-05
1.78449e-05
1.79201e-05
1.79908e-05
1.80571e-05
1.81186e-05
1.81754e-05
1.82273e-05
1.82742e-05
1.83161e-05
1.83529e-05
1.83846e-05
1.84111e-05
1.84323e-05
1.84483e-05
1.84589e-05
1.84642e-05
1.84642e-05
1.84589e-05
1.84483e-05
1.84323e-05
1.84111e-05
1.67519e-05
1.68595e-05
1.69642e-05
1.70659e-05
1.71642e-05
1.72591e-05
1.73503e-05
1.74376e-05
1.7521e-05
1.76002e-05
1.76751e-05
1.77456e-05
1.78116e-05
1.78729e-05
1.79295e-05
1.79812e-05
1.8028e-05
1.80697e-05
1.81064e-05
1.8138e-05
1.81644e-05
1.81856e-05
1.82015e-05
1.82121e-05
1.82174e-05
1.82174e-05
1.82121e-05
1.82015e-05
1.81856e-05
1.81644e-05
1.6511e-05
1.66181e-05
1.67223e-05
1.68235e-05
1.69214e-05
1.70158e-05
1.71066e-05
1.71935e-05
1.72765e-05
1.73554e-05
1.743e-05
1.75002e-05
1.75659e-05
1.7627e-05
1.76833e-05
1.77349e-05
1.77815e-05
1.78231e-05
1.78597e-05
1.78911e-05
1.79174e-05
1.79385e-05
1.79543e-05
1.79649e-05
1.79702e-05
1.79702e-05
1.79649e-05
1.79543e-05
1.79385e-05
1.79174e-05
1.62703e-05
1.63768e-05
1.64805e-05
1.65811e-05
1.66785e-05
1.67725e-05
1.68629e-05
1.69494e-05
1.7032e-05
1.71105e-05
1.71848e-05
1.72547e-05
1.73201e-05
1.73809e-05
1.74371e-05
1.74884e-05
1.75348e-05
1.75762e-05
1.76127e-05
1.7644e-05
1.76702e-05
1.76912e-05
1.7707e-05
1.77175e-05
1.77228e-05
1.77228e-05
1.77175e-05
1.7707e-05
1.76912e-05
1.76702e-05
1.60298e-05
1.61358e-05
1.62389e-05
1.6339e-05
1.64359e-05
1.65293e-05
1.66192e-05
1.67053e-05
1.67875e-05
1.68657e-05
1.69396e-05
1.70092e-05
1.70743e-05
1.71348e-05
1.71907e-05
1.72418e-05
1.7288e-05
1.73293e-05
1.73655e-05
1.73967e-05
1.74228e-05
1.74437e-05
1.74595e-05
1.747e-05
1.74752e-05
1.74752e-05
1.747e-05
1.74595e-05
1.74437e-05
1.74228e-05
1.57896e-05
1.58949e-05
1.59974e-05
1.6097e-05
1.61933e-05
1.62863e-05
1.63757e-05
1.64614e-05
1.65431e-05
1.66208e-05
1.66944e-05
1.67636e-05
1.68284e-05
1.68887e-05
1.69443e-05
1.69951e-05
1.70411e-05
1.70822e-05
1.71183e-05
1.71494e-05
1.71753e-05
1.71962e-05
1.72118e-05
1.72223e-05
1.72275e-05
1.72275e-05
1.72223e-05
1.72118e-05
1.71962e-05
1.71753e-05
1.55497e-05
1.56544e-05
1.57563e-05
1.58552e-05
1.5951e-05
1.60435e-05
1.61323e-05
1.62175e-05
1.62988e-05
1.63761e-05
1.64493e-05
1.65182e-05
1.65826e-05
1.66426e-05
1.66979e-05
1.67485e-05
1.67942e-05
1.68351e-05
1.68711e-05
1.6902e-05
1.69278e-05
1.69485e-05
1.69641e-05
1.69745e-05
1.69797e-05
1.69797e-05
1.69745e-05
1.69641e-05
1.69485e-05
1.69278e-05
1.53102e-05
1.54142e-05
1.55155e-05
1.56138e-05
1.5709e-05
1.58009e-05
1.58892e-05
1.59739e-05
1.60547e-05
1.61316e-05
1.62043e-05
1.62728e-05
1.63369e-05
1.63965e-05
1.64515e-05
1.65019e-05
1.65474e-05
1.65881e-05
1.66238e-05
1.66546e-05
1.66803e-05
1.67009e-05
1.67164e-05
1.67268e-05
1.67319e-05
1.67319e-05
1.67268e-05
1.67164e-05
1.67009e-05
1.66803e-05
1.50711e-05
1.51744e-05
1.5275e-05
1.53727e-05
1.54673e-05
1.55586e-05
1.56464e-05
1.57305e-05
1.58109e-05
1.58873e-05
1.59596e-05
1.60276e-05
1.60914e-05
1.61506e-05
1.62053e-05
1.62554e-05
1.63007e-05
1.63411e-05
1.63767e-05
1.64073e-05
1.64328e-05
1.64533e-05
1.64688e-05
1.6479e-05
1.64842e-05
1.64842e-05
1.6479e-05
1.64688e-05
1.64533e-05
1.64328e-05
1.48325e-05
1.49351e-05
1.5035e-05
1.5132e-05
1.5226e-05
1.53166e-05
1.54038e-05
1.54874e-05
1.55673e-05
1.56432e-05
1.5715e-05
1.57827e-05
1.5846e-05
1.59049e-05
1.59593e-05
1.60091e-05
1.60541e-05
1.60943e-05
1.61297e-05
1.61601e-05
1.61855e-05
1.62059e-05
1.62212e-05
1.62314e-05
1.62366e-05
1.62366e-05
1.62314e-05
1.62212e-05
1.62059e-05
1.61855e-05
1.45944e-05
1.46962e-05
1.47954e-05
1.48918e-05
1.4985e-05
1.50751e-05
1.51617e-05
1.52447e-05
1.5324e-05
1.53994e-05
1.54708e-05
1.5538e-05
1.5601e-05
1.56595e-05
1.57135e-05
1.5763e-05
1.58077e-05
1.58477e-05
1.58828e-05
1.59131e-05
1.59383e-05
1.59586e-05
1.59738e-05
1.5984e-05
1.59891e-05
1.59891e-05
1.5984e-05
1.59738e-05
1.59586e-05
1.59383e-05
1.43568e-05
1.44579e-05
1.45563e-05
1.4652e-05
1.47446e-05
1.4834e-05
1.492e-05
1.50024e-05
1.50811e-05
1.5156e-05
1.52269e-05
1.52937e-05
1.53562e-05
1.54143e-05
1.5468e-05
1.55171e-05
1.55616e-05
1.56013e-05
1.56362e-05
1.56663e-05
1.56914e-05
1.57115e-05
1.57267e-05
1.57368e-05
1.57418e-05
1.57418e-05
1.57368e-05
1.57267e-05
1.57115e-05
1.56914e-05
1.41199e-05
1.42201e-05
1.43178e-05
1.44127e-05
1.45046e-05
1.45934e-05
1.46787e-05
1.47605e-05
1.48387e-05
1.4913e-05
1.49834e-05
1.50497e-05
1.51118e-05
1.51695e-05
1.52229e-05
1.52716e-05
1.53158e-05
1.53553e-05
1.53899e-05
1.54198e-05
1.54447e-05
1.54647e-05
1.54798e-05
1.54898e-05
1.54949e-05
1.54949e-05
1.54898e-05
1.54798e-05
1.54647e-05
1.54447e-05
1.38836e-05
1.3983e-05
1.40799e-05
1.41741e-05
1.42653e-05
1.43533e-05
1.4438e-05
1.45192e-05
1.45967e-05
1.46705e-05
1.47404e-05
1.48062e-05
1.48678e-05
1.49251e-05
1.49781e-05
1.50265e-05
1.50704e-05
1.51095e-05
1.5144e-05
1.51736e-05
1.51984e-05
1.52183e-05
1.52332e-05
1.52432e-05
1.52482e-05
1.52482e-05
1.52432e-05
1.52332e-05
1.52183e-05
1.51984e-05
1.36479e-05
1.37465e-05
1.38427e-05
1.3936e-05
1.40265e-05
1.41138e-05
1.41978e-05
1.42783e-05
1.43553e-05
1.44285e-05
1.44978e-05
1.45631e-05
1.46243e-05
1.46812e-05
1.47337e-05
1.47818e-05
1.48253e-05
1.48642e-05
1.48984e-05
1.49278e-05
1.49524e-05
1.49722e-05
1.4987e-05
1.49969e-05
1.50019e-05
1.50019e-05
1.49969e-05
1.4987e-05
1.49722e-05
1.49524e-05
1.34131e-05
1.35108e-05
1.36061e-05
1.36987e-05
1.37883e-05
1.38749e-05
1.39582e-05
1.40381e-05
1.41144e-05
1.4187e-05
1.42558e-05
1.43206e-05
1.43813e-05
1.44377e-05
1.44899e-05
1.45376e-05
1.45808e-05
1.46194e-05
1.46533e-05
1.46825e-05
1.47069e-05
1.47265e-05
1.47412e-05
1.47511e-05
1.4756e-05
1.4756e-05
1.47511e-05
1.47412e-05
1.47265e-05
1.47069e-05
1.31759e-05
1.32758e-05
1.33702e-05
1.3462e-05
1.35509e-05
1.36367e-05
1.37193e-05
1.37985e-05
1.38742e-05
1.39462e-05
1.40144e-05
1.40786e-05
1.41388e-05
1.41948e-05
1.42465e-05
1.42939e-05
1.43367e-05
1.4375e-05
1.44087e-05
1.44376e-05
1.44619e-05
1.44813e-05
1.44959e-05
1.45057e-05
1.45106e-05
1.45106e-05
1.45057e-05
1.44959e-05
1.44813e-05
1.44619e-05
1.29364e-05
1.30415e-05
1.31351e-05
1.32261e-05
1.33142e-05
1.33992e-05
1.3481e-05
1.35596e-05
1.36346e-05
1.3706e-05
1.37736e-05
1.38373e-05
1.38969e-05
1.39525e-05
1.40038e-05
1.40507e-05
1.40932e-05
1.41312e-05
1.41646e-05
1.41933e-05
1.42174e-05
1.42366e-05
1.42511e-05
1.42608e-05
1.42657e-05
1.42657e-05
1.42608e-05
1.42511e-05
1.42366e-05
1.42174e-05
1.29009e-05
1.2991e-05
1.30782e-05
1.31625e-05
1.32436e-05
1.33213e-05
1.33957e-05
1.34664e-05
1.35334e-05
1.35966e-05
1.36557e-05
1.37108e-05
1.39734e-05
1.39925e-05
1.40069e-05
1.40165e-05
1.40213e-05
1.40213e-05
1.40165e-05
1.40069e-05
1.39925e-05
1.39734e-05
2.94095e-05
2.94185e-05
2.94252e-05
2.94296e-05
2.94318e-05
2.94318e-05
2.94296e-05
2.94252e-05
2.94185e-05
2.94095e-05
2.93091e-05
2.93211e-05
2.93306e-05
2.93377e-05
2.93425e-05
2.93449e-05
2.93448e-05
2.93425e-05
2.93377e-05
2.93306e-05
2.93211e-05
2.93091e-05
2.92947e-05
2.92778e-05
2.92584e-05
2.92364e-05
2.92118e-05
2.91845e-05
2.91545e-05
2.91218e-05
2.90863e-05
2.91812e-05
2.9199e-05
2.92143e-05
2.92269e-05
2.9237e-05
2.92445e-05
2.92496e-05
2.92521e-05
2.92521e-05
2.92496e-05
2.92445e-05
2.9237e-05
2.92269e-05
2.92142e-05
2.9199e-05
2.91811e-05
2.91606e-05
2.91374e-05
2.91114e-05
2.90827e-05
2.90512e-05
2.90167e-05
2.89794e-05
2.89392e-05
2.88959e-05
2.88496e-05
2.88003e-05
2.90056e-05
2.90328e-05
2.90573e-05
2.90788e-05
2.90976e-05
2.91137e-05
2.9127e-05
2.91377e-05
2.91456e-05
2.91509e-05
2.91536e-05
2.91536e-05
2.91509e-05
2.91456e-05
2.91377e-05
2.9127e-05
2.91137e-05
2.90976e-05
2.90788e-05
2.90572e-05
2.90328e-05
2.90056e-05
2.89754e-05
2.89423e-05
2.89063e-05
2.88672e-05
2.88251e-05
2.87799e-05
2.87316e-05
2.86802e-05
2.86257e-05
2.85679e-05
2.8507e-05
2.88281e-05
2.88627e-05
2.88943e-05
2.89228e-05
2.89484e-05
2.8971e-05
2.89907e-05
2.90076e-05
2.90216e-05
2.90327e-05
2.90411e-05
2.90467e-05
2.90495e-05
2.90494e-05
2.90467e-05
2.90411e-05
2.90327e-05
2.90216e-05
2.90076e-05
2.89907e-05
2.8971e-05
2.89484e-05
2.89228e-05
2.88943e-05
2.88627e-05
2.88281e-05
2.87905e-05
2.87497e-05
2.87058e-05
2.86588e-05
2.86086e-05
2.85551e-05
2.84985e-05
2.84386e-05
2.83755e-05
2.83092e-05
2.82397e-05
2.81668e-05
2.86271e-05
2.86695e-05
2.87087e-05
2.87447e-05
2.87776e-05
2.88074e-05
2.88341e-05
2.88578e-05
2.88784e-05
2.8896e-05
2.89106e-05
2.89223e-05
2.89311e-05
2.89369e-05
2.89398e-05
2.89398e-05
2.89369e-05
2.89311e-05
2.89223e-05
2.89106e-05
2.8896e-05
2.88784e-05
2.88577e-05
2.88341e-05
2.88074e-05
2.87776e-05
2.87447e-05
2.87087e-05
2.86695e-05
2.86271e-05
2.85815e-05
2.85326e-05
2.84805e-05
2.84251e-05
2.83664e-05
2.83045e-05
2.82393e-05
2.81709e-05
2.80992e-05
2.80241e-05
2.84522e-05
2.84995e-05
2.85435e-05
2.85842e-05
2.86216e-05
2.86558e-05
2.86868e-05
2.87146e-05
2.87392e-05
2.87607e-05
2.87791e-05
2.87944e-05
2.88065e-05
2.88157e-05
2.88218e-05
2.88248e-05
2.88248e-05
2.88218e-05
2.88157e-05
2.88065e-05
2.87943e-05
2.87791e-05
2.87607e-05
2.87392e-05
2.87146e-05
2.86868e-05
2.86558e-05
2.86216e-05
2.85841e-05
2.85434e-05
2.84994e-05
2.84521e-05
2.84015e-05
2.83476e-05
2.82903e-05
2.82297e-05
2.81657e-05
2.80985e-05
2.8028e-05
2.79542e-05
2.78769e-05
2.82657e-05
2.8318e-05
2.83669e-05
2.84124e-05
2.84546e-05
2.84934e-05
2.85289e-05
2.8561e-05
2.85899e-05
2.86155e-05
2.86378e-05
2.86569e-05
2.86728e-05
2.86855e-05
2.8695e-05
2.87013e-05
2.87045e-05
2.87045e-05
2.87013e-05
2.8695e-05
2.86855e-05
2.86728e-05
2.86569e-05
2.86378e-05
2.86155e-05
2.85899e-05
2.8561e-05
2.85289e-05
2.84934e-05
2.84546e-05
2.84124e-05
2.83669e-05
2.8318e-05
2.82656e-05
2.82099e-05
2.81508e-05
2.80883e-05
2.80224e-05
2.79532e-05
2.78806e-05
2.78048e-05
2.77256e-05
2.80677e-05
2.81251e-05
2.81791e-05
2.82296e-05
2.82766e-05
2.83202e-05
2.83603e-05
2.8397e-05
2.84303e-05
2.84602e-05
2.84867e-05
2.85099e-05
2.85297e-05
2.85462e-05
2.85593e-05
2.85692e-05
2.85758e-05
2.8579e-05
2.8579e-05
2.85757e-05
2.85692e-05
2.85593e-05
2.85461e-05
2.85297e-05
2.85099e-05
2.84867e-05
2.84602e-05
2.84303e-05
2.8397e-05
2.83603e-05
2.83202e-05
2.82766e-05
2.82295e-05
2.8179e-05
2.81251e-05
2.80676e-05
2.80067e-05
2.79424e-05
2.78747e-05
2.78035e-05
2.77291e-05
2.76513e-05
2.757e-05
2.78583e-05
2.79209e-05
2.798e-05
2.80355e-05
2.80876e-05
2.8136e-05
2.8181e-05
2.82224e-05
2.82603e-05
2.82947e-05
2.83256e-05
2.8353e-05
2.83769e-05
2.83974e-05
2.84145e-05
2.84281e-05
2.84383e-05
2.84451e-05
2.84485e-05
2.84485e-05
2.84451e-05
2.84383e-05
2.84281e-05
2.84145e-05
2.83974e-05
2.83769e-05
2.8353e-05
2.83256e-05
2.82947e-05
2.82603e-05
2.82224e-05
2.8181e-05
2.8136e-05
2.80875e-05
2.80355e-05
2.798e-05
2.79209e-05
2.78583e-05
2.77922e-05
2.77226e-05
2.76497e-05
2.75733e-05
2.74936e-05
2.74105e-05
2.77055e-05
2.77698e-05
2.78304e-05
2.78875e-05
2.7941e-05
2.79909e-05
2.80372e-05
2.80798e-05
2.81189e-05
2.81543e-05
2.81862e-05
2.82145e-05
2.82392e-05
2.82603e-05
2.82779e-05
2.8292e-05
2.83026e-05
2.83096e-05
2.83131e-05
2.83131e-05
2.83096e-05
2.83026e-05
2.8292e-05
2.82779e-05
2.82603e-05
2.82392e-05
2.82145e-05
2.81862e-05
2.81543e-05
2.81189e-05
2.80798e-05
2.80372e-05
2.79909e-05
2.7941e-05
2.78875e-05
2.78304e-05
2.77697e-05
2.77055e-05
2.76377e-05
2.75664e-05
2.74917e-05
2.74135e-05
2.7332e-05
2.7247e-05
2.74791e-05
2.75485e-05
2.76144e-05
2.76766e-05
2.77352e-05
2.77901e-05
2.78413e-05
2.78889e-05
2.79327e-05
2.79729e-05
2.80093e-05
2.80421e-05
2.80712e-05
2.80967e-05
2.81185e-05
2.81366e-05
2.81511e-05
2.8162e-05
2.81693e-05
2.81729e-05
2.81729e-05
2.81693e-05
2.8162e-05
2.81511e-05
2.81366e-05
2.81185e-05
2.80967e-05
2.80712e-05
2.80421e-05
2.80093e-05
2.79729e-05
2.79327e-05
2.78888e-05
2.78413e-05
2.77901e-05
2.77352e-05
2.76766e-05
2.76144e-05
2.75485e-05
2.74791e-05
2.74061e-05
2.73297e-05
2.72498e-05
2.71665e-05
2.70798e-05
2.72419e-05
2.73165e-05
2.73875e-05
2.74549e-05
2.75186e-05
2.75786e-05
2.76349e-05
2.76874e-05
2.77362e-05
2.77812e-05
2.78224e-05
2.78598e-05
2.78935e-05
2.79235e-05
2.79496e-05
2.7972e-05
2.79907e-05
2.80056e-05
2.80168e-05