/*--------------------------------*- C++ -*----------------------------------*\
  =========                 |
  \\      /  F ield         | OpenFOAM: The Open Source CFD Toolbox
   \\    /   O peration     | Website:  https://openfoam.org
    \\  /    A nd           | Version:  7
     \\/     M anipulation  |
\*---------------------------------------------------------------------------*/
FoamFile
{
    version     2.0;
    format      ascii;
    class       volScalarField;
    location    "192000";
    object      strainRate;
}
// * * * * * * * * * * * * * * * * * * * * * * * * * * * * * * * * * * * * * //

dimensions      [0 0 -1 0 0 0 0];

internalField   nonuniform List<scalar> 
4850
(
0.00787617
0.00762375
0.00808645
0.00783956
0.00773005
0.00829811
0.00805631
0.00794648
0.00784004
0.00773717
0.00851122
0.00827413
0.00816392
0.00805712
0.00795392
0.00785449
0.00872587
0.00849312
0.00838249
0.00827528
0.00817171
0.00807191
0.00797605
0.00894216
0.00871341
0.0086023
0.00849464
0.00839064
0.00829044
0.0081942
0.00810207
0.00801419
0.00916016
0.00893511
0.00882346
0.00871531
0.00861083
0.00851018
0.00841352
0.008321
0.00823275
0.00814892
0.00937996
0.00915831
0.0090461
0.0089374
0.0088324
0.00873126
0.00863414
0.00854118
0.00845253
0.00836832
0.0082887
0.00821377
0.00814367
0.00807849
0.00960166
0.00938315
0.00927031
0.00916101
0.00905545
0.00895378
0.00885616
0.00876273
0.00867364
0.00858902
0.00850901
0.00843373
0.00836331
0.00829784
0.00823744
0.0081822
0.00813222
0.00808758
0.00982536
0.00960972
0.0094962
0.00938627
0.00928011
0.00917786
0.0090797
0.00898576
0.00889619
0.00881112
0.0087307
0.00865504
0.00858426
0.00851848
0.00845779
0.0084023
0.00835208
0.00830724
0.00826783
0.00823393
0.0100511
0.00983813
0.0097239
0.00961328
0.00950647
0.0094036
0.00930486
0.00921037
0.00912028
0.00903474
0.00895387
0.0088778
0.00880665
0.00874052
0.00867952
0.00862374
0.00857328
0.00852821
0.00848862
0.00845455
0.00842608
0.00840324
0.00838608
0.00837462
0.0102791
0.0100685
0.0099535
0.00984216
0.00973464
0.00963112
0.00953175
0.00943668
0.00934604
0.00925999
0.00917864
0.00910213
0.00903057
0.00896407
0.00890273
0.00884665
0.00879592
0.00875062
0.00871082
0.00867658
0.00864796
0.00862501
0.00860777
0.00859625
0.00859049
0.00859049
0.00859625
0.00860777
0.00862501
0.0105093
0.0103009
0.0101851
0.010073
0.00996475
0.00986053
0.00976049
0.0096648
0.00957358
0.00948697
0.00940512
0.00932813
0.00925614
0.00918924
0.00912754
0.00907114
0.00902012
0.00897456
0.00893454
0.00890012
0.00887135
0.00884827
0.00883093
0.00881936
0.00881357
0.00881357
0.00881936
0.00883093
0.00884827
0.00887134
0.00890012
0.00893454
0.010742
0.0105355
0.0104189
0.0103059
0.0101969
0.0100919
0.0099912
0.00989483
0.00980299
0.0097158
0.00963341
0.00955592
0.00948346
0.00941614
0.00935406
0.00929731
0.00924598
0.00920016
0.0091599
0.00912527
0.00909633
0.00907313
0.00905569
0.00904405
0.00903823
0.00903823
0.00904405
0.00905569
0.00907313
0.00909633
0.00912527
0.0091599
0.00920015
0.00924598
0.0109771
0.0107724
0.0106549
0.0105411
0.0104312
0.0103254
0.010224
0.0101269
0.0100344
0.0099466
0.00986363
0.00978561
0.00971266
0.00964489
0.0095824
0.00952528
0.00947362
0.00942751
0.009387
0.00935216
0.00932304
0.0092997
0.00928215
0.00927045
0.00926459
0.00926459
0.00927044
0.00928215
0.0092997
0.00932304
0.00935216
0.009387
0.0094275
0.00947362
0.0112148
0.0110117
0.0108932
0.0107785
0.0106678
0.0105612
0.0104589
0.0103611
0.0102679
0.0101795
0.0100959
0.0100173
0.00994383
0.00987559
0.00981266
0.00975516
0.00970315
0.00965673
0.00961595
0.00958088
0.00955158
0.00952808
0.00951043
0.00949865
0.00949275
0.00949275
0.00949865
0.00951043
0.00952808
0.00955158
0.00958088
0.00961595
0.00965673
0.00970315
0.0114551
0.0112536
0.011134
0.0110184
0.0109067
0.0107993
0.0106962
0.0105976
0.0105037
0.0104145
0.0103303
0.0102511
0.0101771
0.0101084
0.010045
0.00998706
0.00993468
0.00988793
0.00984687
0.00981157
0.00978206
0.00975841
0.00974063
0.00972877
0.00972283
0.00972283
0.00972877
0.00974063
0.00975841
0.00978206
0.00981156
0.00984687
0.00988793
0.00993468
0.0116983
0.011498
0.0113774
0.0112608
0.0111482
0.0110398
0.0109358
0.0108364
0.0107417
0.0106519
0.010567
0.0104872
0.0104126
0.0103433
0.0102794
0.0102211
0.0101683
0.0101212
0.0100799
0.0100443
0.0100146
0.00999077
0.00997288
0.00996093
0.00995495
0.00995495
0.00996093
0.00997288
0.00999077
0.0100146
0.0100443
0.0100799
0.0101212
0.0101683
0.0119444
0.0117452
0.0116235
0.0115058
0.0113922
0.0112829
0.011178
0.0110778
0.0109823
0.0108916
0.010806
0.0107256
0.0106504
0.0105805
0.0105162
0.0104574
0.0104042
0.0103567
0.0103151
0.0102792
0.0102493
0.0102253
0.0102073
0.0101952
0.0101892
0.0101892
0.0101952
0.0102073
0.0102253
0.0102493
0.0102792
0.0103151
0.0103567
0.0104042
0.0121935
0.0119953
0.0118725
0.0117536
0.011639
0.0115287
0.0114229
0.0113217
0.0112254
0.0111339
0.0110476
0.0109665
0.0108906
0.0108202
0.0107553
0.010696
0.0106424
0.0105946
0.0105526
0.0105165
0.0104863
0.0104621
0.0104439
0.0104318
0.0104257
0.0104257
0.0104318
0.0104439
0.0104621
0.0104863
0.0105165
0.0105526
0.0105946
0.0106424
0.0124458
0.0122483
0.0121243
0.0120044
0.0118886
0.0117773
0.0116705
0.0115684
0.0114711
0.0113789
0.0112918
0.0112099
0.0111334
0.0110624
0.0109969
0.0109371
0.0108831
0.0108349
0.0107925
0.0107561
0.0107257
0.0107013
0.010683
0.0106708
0.0106647
0.0106647
0.0106708
0.010683
0.0107013
0.0107257
0.0107561
0.0107925
0.0108349
0.0108831
0.0127013
0.0125045
0.0123793
0.0122581
0.0121412
0.0120288
0.011921
0.0118179
0.0117197
0.0116266
0.0115387
0.0114561
0.0113789
0.0113072
0.0112412
0.0111809
0.0111264
0.0110777
0.011035
0.0109983
0.0109676
0.010943
0.0109246
0.0109122
0.0109061
0.0109061
0.0109122
0.0109245
0.010943
0.0109676
0.0109983
0.011035
0.0110777
0.0111264
0.0129602
0.0127639
0.0126374
0.012515
0.0123969
0.0122834
0.0121745
0.0120704
0.0119713
0.0118772
0.0117885
0.0117051
0.0116272
0.0115548
0.0114882
0.0114273
0.0113723
0.0113232
0.0112801
0.0112431
0.0112122
0.0111874
0.0111687
0.0111563
0.0111501
0.0111501
0.0111563
0.0111687
0.0111874
0.0112122
0.0112431
0.0112801
0.0113232
0.0113723
0.0114273
0.0132225
0.0130267
0.0128988
0.0127752
0.0126559
0.0125411
0.0124311
0.0123259
0.0122258
0.0121309
0.0120413
0.011957
0.0118784
0.0118053
0.0117381
0.0116766
0.0116211
0.0115716
0.0115281
0.0114907
0.0114595
0.0114345
0.0114157
0.0114031
0.0113968
0.0113968
0.0114031
0.0114157
0.0114345
0.0114595
0.0114907
0.0115281
0.0115716
0.0116211
0.0116766
0.0134886
0.013293
0.0131637
0.0130387
0.0129181
0.0128022
0.012691
0.0125847
0.0124836
0.0123877
0.0122971
0.0122121
0.0121326
0.0120589
0.0119909
0.0119289
0.0118728
0.0118228
0.0117789
0.0117412
0.0117097
0.0116844
0.0116655
0.0116528
0.0116465
0.0116465
0.0116528
0.0116655
0.0116844
0.0117097
0.0117412
0.0117789
0.0118228
0.0118728
0.0119289
0.0137583
0.0135629
0.0134322
0.0133058
0.0131839
0.0130667
0.0129543
0.0128469
0.0127447
0.0126477
0.0125562
0.0124703
0.01239
0.0123155
0.0122469
0.0121843
0.0121277
0.0120772
0.0120328
0.0119947
0.0119629
0.0119374
0.0119183
0.0119055
0.0118991
0.0118991
0.0119055
0.0119183
0.0119374
0.0119629
0.0119947
0.0120328
0.0120772
0.0121277
0.014032
0.0138366
0.0137044
0.0135766
0.0134533
0.0133348
0.0132211
0.0131125
0.0130092
0.0129112
0.0128187
0.0127319
0.0126508
0.0125755
0.0125062
0.0124429
0.0123857
0.0123347
0.0122899
0.0122514
0.0122193
0.0121935
0.0121742
0.0121613
0.0121548
0.0121548
0.0121613
0.0121742
0.0121935
0.0122193
0.0122514
0.0122899
0.0123347
0.0123857
0.0143097
0.0141142
0.0139805
0.0138512
0.0137264
0.0136065
0.0134916
0.0133818
0.0132773
0.0131782
0.0130847
0.0129969
0.0129149
0.0128389
0.0127688
0.0127048
0.012647
0.0125955
0.0125503
0.0125114
0.0124789
0.0124529
0.0124334
0.0124203
0.0124138
0.0124138
0.0124203
0.0124334
0.0124529
0.0124789
0.0125114
0.0125503
0.0125955
0.012647
0.0145916
0.0143959
0.0142605
0.0141297
0.0140035
0.0138822
0.0137659
0.0136548
0.0135491
0.0134489
0.0133544
0.0132656
0.0131827
0.0131058
0.0130349
0.0129703
0.0129119
0.0128598
0.0128141
0.0127748
0.012742
0.0127157
0.012696
0.0126828
0.0126762
0.0126762
0.0126828
0.012696
0.0127157
0.012742
0.0127748
0.0128141
0.0128598
0.0129119
0.0148777
0.0146817
0.0145447
0.0144123
0.0142846
0.0141618
0.0140442
0.0139318
0.0138248
0.0137235
0.0136278
0.013538
0.0134542
0.0133764
0.0133048
0.0132394
0.0131803
0.0131277
0.0130814
0.0130417
0.0130086
0.012982
0.0129621
0.0129487
0.0129421
0.0129421
0.0129487
0.0129621
0.012982
0.0130086
0.0130417
0.0130814
0.0131277
0.0151684
0.0149719
0.0148332
0.0146991
0.0145699
0.0144456
0.0143265
0.0142128
0.0141045
0.014002
0.0139052
0.0138143
0.0137295
0.0136508
0.0135784
0.0135122
0.0134525
0.0133993
0.0133525
0.0133124
0.0132789
0.013252
0.0132318
0.0132184
0.0132116
0.0132116
0.0132184
0.0132318
0.013252
0.0132789
0.0133124
0.0133525
0.0133993
0.0154637
0.0152666
0.0151262
0.0149904
0.0148595
0.0147337
0.0146131
0.0144979
0.0143884
0.0142846
0.0141866
0.0140947
0.0140088
0.0139292
0.0138559
0.013789
0.0137286
0.0136748
0.0136275
0.0135869
0.013553
0.0135258
0.0135054
0.0134918
0.013485
0.013485
0.0134918
0.0135054
0.0135258
0.013553
0.0135869
0.0136275
0.0157637
0.015566
0.0154238
0.0152862
0.0151536
0.0150262
0.0149041
0.0147875
0.0146765
0.0145714
0.0144723
0.0143792
0.0142923
0.0142118
0.0141376
0.0140699
0.0140088
0.0139543
0.0139065
0.0138654
0.0138311
0.0138036
0.013783
0.0137692
0.0137623
0.0137623
0.0137692
0.013783
0.0138036
0.0138311
0.0138654
0.0139065
0.0160687
0.0158703
0.0157261
0.0155867
0.0154524
0.0153233
0.0151996
0.0150815
0.0149692
0.0148627
0.0147623
0.0146681
0.0145801
0.0144986
0.0144235
0.014355
0.0142931
0.014238
0.0141896
0.014148
0.0141133
0.0140855
0.0140646
0.0140507
0.0140438
0.0140438
0.0140507
0.0140646
0.0140855
0.0141133
0.014148
0.0141896
0.0163788
0.0161795
0.0160334
0.0158922
0.015756
0.0156252
0.0154999
0.0153803
0.0152664
0.0151586
0.0150569
0.0149615
0.0148724
0.0147898
0.0147138
0.0146444
0.0145818
0.014526
0.014477
0.014435
0.0143998
0.0143717
0.0143506
0.0143365
0.0143294
0.0143294
0.0143365
0.0143506
0.0143717
0.0143998
0.014435
0.014477
0.0166942
0.0164939
0.0163458
0.0162026
0.0160647
0.0159321
0.0158051
0.0156838
0.0155685
0.0154592
0.0153562
0.0152595
0.0151693
0.0150857
0.0150087
0.0149385
0.014875
0.0148185
0.0147689
0.0147263
0.0146908
0.0146623
0.0146409
0.0146267
0.0146195
0.0146195
0.0146267
0.0146409
0.0146623
0.0146908
0.0147263
0.0147689
0.017015
0.0168136
0.0166634
0.0165183
0.0163785
0.0162441
0.0161153
0.0159924
0.0158755
0.0157648
0.0156604
0.0155624
0.015471
0.0153863
0.0153083
0.0152372
0.0151729
0.0151157
0.0150655
0.0150224
0.0149864
0.0149575
0.0149359
0.0149214
0.0149142
0.0149142
0.0149214
0.0149359
0.0149575
0.0149864
0.0150224
0.0150655
0.0173414
0.0171389
0.0169866
0.0168394
0.0166976
0.0165613
0.0164308
0.0163062
0.0161877
0.0160754
0.0159696
0.0158703
0.0157777
0.0156918
0.0156128
0.0155408
0.0154757
0.0154177
0.0153668
0.0153232
0.0152867
0.0152575
0.0152356
0.0152209
0.0152136
0.0152136
0.0152209
0.0152356
0.0152575
0.0152867
0.0153232
0.0153668
0.0176737
0.0174699
0.0173154
0.0171661
0.0170223
0.0168841
0.0167517
0.0166253
0.0165052
0.0163914
0.0162841
0.0161834
0.0160896
0.0160025
0.0159224
0.0158494
0.0157835
0.0157247
0.0156732
0.0156289
0.015592
0.0155624
0.0155402
0.0155254
0.015518
0.015518
0.0155254
0.0155402
0.0155624
0.015592
0.0156289
0.0156732
0.0180121
0.0178068
0.0176501
0.0174986
0.0173527
0.0172125
0.0170782
0.01695
0.0168281
0.0167127
0.016604
0.0165019
0.0164067
0.0163185
0.0162373
0.0161633
0.0160965
0.0160369
0.0159847
0.0159399
0.0159024
0.0158725
0.0158499
0.0158349
0.0158274
0.0158274
0.0158349
0.0158499
0.0158724
0.0159024
0.0159399
0.0159847
0.0183566
0.0181499
0.0179908
0.0178371
0.017689
0.0175468
0.0174105
0.0172805
0.0171568
0.0170398
0.0169294
0.0168259
0.0167294
0.01664
0.0165577
0.0164826
0.0164149
0.0163545
0.0163016
0.0162561
0.0162182
0.0161878
0.016165
0.0161498
0.0161421
0.0161421
0.0161498
0.016165
0.0161878
0.0162182
0.0162561
0.0163016
0.0187076
0.0184993
0.0183378
0.0181818
0.0180315
0.0178871
0.0177488
0.0176169
0.0174914
0.0173727
0.0172607
0.0171557
0.0170578
0.0169671
0.0168836
0.0168075
0.0167388
0.0166776
0.016624
0.0165779
0.0165394
0.0165086
0.0164855
0.0164701
0.0164623
0.0164623
0.0164701
0.0164855
0.0165086
0.0165394
0.0165779
0.016624
0.0190652
0.0188552
0.0186913
0.0185329
0.0183803
0.0182337
0.0180934
0.0179594
0.0178321
0.0177116
0.017598
0.0174915
0.0173922
0.0173001
0.0172154
0.0171382
0.0170686
0.0170065
0.0169521
0.0169054
0.0168664
0.0168351
0.0168117
0.016796
0.0167882
0.0167882
0.016796
0.0168117
0.0168351
0.0168664
0.0169054
0.0169521
0.0194298
0.0192179
0.0190515
0.0188907
0.0187357
0.0185869
0.0184444
0.0183084
0.0181792
0.0180568
0.0179415
0.0178334
0.0177326
0.0176392
0.0175533
0.017475
0.0174043
0.0173414
0.0172862
0.0172388
0.0171992
0.0171675
0.0171437
0.0171279
0.0171199
0.0171199
0.0171279
0.0171437
0.0171675
0.0171992
0.0172388
0.0172861
0.0198014
0.0195876
0.0194186
0.0192553
0.0190979
0.0189467
0.018802
0.0186639
0.0185327
0.0184085
0.0182915
0.0181817
0.0180794
0.0179846
0.0178975
0.017818
0.0177463
0.0176824
0.0176264
0.0175783
0.0175382
0.017506
0.0174819
0.0174658
0.0174578
0.0174578
0.0174658
0.0174819
0.017506
0.0175382
0.0175783
0.0176264
0.0201804
0.0199646
0.0197929
0.0196269
0.0194671
0.0193135
0.0191665
0.0190263
0.018893
0.0187669
0.0186481
0.0185367
0.0184328
0.0183366
0.0182481
0.0181674
0.0180946
0.0180298
0.0179729
0.0179242
0.0178834
0.0178508
0.0178264
0.01781
0.0178019
0.0178019
0.01781
0.0178264
0.0178508
0.0178834
0.0179242
0.0179729
0.0205669
0.020349
0.0201746
0.020006
0.0198435
0.0196875
0.0195382
0.0193957
0.0192604
0.0191322
0.0190116
0.0188984
0.0187929
0.0186952
0.0186054
0.0185235
0.0184496
0.0183838
0.0183261
0.0182766
0.0182353
0.0182022
0.0181773
0.0181608
0.0181525
0.0181525
0.0181608
0.0181773
0.0182022
0.0182353
0.0182766
0.0209614
0.0207413
0.0205639
0.0203926
0.0202275
0.020069
0.0199172
0.0197725
0.0196349
0.0195048
0.0193822
0.0192673
0.0191601
0.0190609
0.0189697
0.0188865
0.0188115
0.0187447
0.0186861
0.0186358
0.0185939
0.0185603
0.0185351
0.0185183
0.0185098
0.0185098
0.0185183
0.0185351
0.0185603
0.0185939
0.0186358
0.0213639
0.0211415
0.0209612
0.0207871
0.0206193
0.0204581
0.0203039
0.0201568
0.020017
0.0198847
0.0197602
0.0196434
0.0195346
0.0194338
0.0193412
0.0192567
0.0191805
0.0191127
0.0190532
0.0190021
0.0189595
0.0189254
0.0188998
0.0188827
0.0188742
0.0188742
0.0188827
0.0188998
0.0189254
0.0189595
0.0217749
0.02155
0.0213668
0.0211897
0.0210191
0.0208552
0.0206984
0.0205489
0.0204068
0.0202724
0.0201458
0.0200272
0.0199166
0.0198142
0.0197201
0.0196343
0.0195569
0.019488
0.0194276
0.0193757
0.0193324
0.0192978
0.0192718
0.0192545
0.0192458
0.0192458
0.0192545
0.0192718
0.0192978
0.0193324
0.0221945
0.0219671
0.0217808
0.0216007
0.0214272
0.0212606
0.0211011
0.0209491
0.0208047
0.020668
0.0205394
0.0204188
0.0203064
0.0202024
0.0201067
0.0200195
0.0199409
0.0198709
0.0198095
0.0197568
0.0197129
0.0196777
0.0196513
0.0196337
0.0196249
0.0196249
0.0196337
0.0196513
0.0196777
0.0197129
0.0226231
0.0223931
0.0222036
0.0220204
0.021844
0.0216745
0.0215123
0.0213577
0.0212108
0.0210719
0.0209411
0.0208185
0.0207043
0.0205985
0.0205013
0.0204127
0.0203328
0.0202617
0.0201993
0.0201458
0.0201011
0.0200654
0.0200385
0.0200206
0.0200117
0.0200117
0.0200206
0.0200385
0.0200654
0.0201011
0.0230611
0.0228283
0.0226355
0.0224492
0.0222696
0.0220972
0.0219323
0.021775
0.0216256
0.0214843
0.0213513
0.0212267
0.0211106
0.021003
0.0209042
0.0208141
0.0207329
0.0206606
0.0205972
0.0205428
0.0204974
0.0204611
0.0204338
0.0204157
0.0204066
0.0204066
0.0204157
0.0204338
0.0204611
0.0204974
0.0235086
0.023273
0.0230768
0.0228872
0.0227045
0.0225291
0.0223613
0.0222013
0.0220493
0.0219056
0.0217703
0.0216436
0.0215255
0.0214161
0.0213156
0.0212241
0.0211415
0.021068
0.0210035
0.0209483
0.0209021
0.0208652
0.0208375
0.020819
0.0208097
0.0208097
0.020819
0.0208375
0.0208652
0.0209021
0.0239661
0.0237275
0.0235279
0.023335
0.023149
0.0229705
0.0227997
0.0226368
0.0224822
0.022336
0.0221984
0.0220695
0.0219493
0.0218381
0.0217359
0.0216428
0.0215589
0.0214841
0.0214186
0.0213624
0.0213155
0.0212779
0.0212497
0.021231
0.0212216
0.0212216
0.0212309
0.0212497
0.0212779
0.0213155
0.0244339
0.0241923
0.0239892
0.0237927
0.0236034
0.0234216
0.0232478
0.0230821
0.0229247
0.0227759
0.0226359
0.0225047
0.0223825
0.0222694
0.0221654
0.0220707
0.0219853
0.0219093
0.0218427
0.0217855
0.0217378
0.0216996
0.021671
0.0216518
0.0216423
0.0216423
0.0216518
0.021671
0.0216996
0.0217378
0.0249124
0.0246676
0.0244608
0.0242608
0.024068
0.023883
0.0237059
0.0235373
0.0233771
0.0232257
0.0230832
0.0229497
0.0228253
0.0227102
0.0226044
0.0225081
0.0224212
0.0223439
0.0222761
0.0222179
0.0221694
0.0221306
0.0221014
0.022082
0.0220723
0.0220723
0.022082
0.0221014
0.0221306
0.0221694
0.0254019
0.0251539
0.0249433
0.0247396
0.0245433
0.0243548
0.0241746
0.0240028
0.0238397
0.0236856
0.0235405
0.0234046
0.0232781
0.0231609
0.0230533
0.0229553
0.0228669
0.0227882
0.0227192
0.02266
0.0226107
0.0225712
0.0225415
0.0225218
0.0225119
0.0225119
0.0225217
0.0225415
0.0225712
0.0226107
0.0259029
0.0256515
0.0254371
0.0252295
0.0250295
0.0248376
0.024654
0.0244791
0.024313
0.0241561
0.0240084
0.02387
0.0237412
0.023622
0.0235124
0.0234126
0.0233226
0.0232426
0.0231724
0.0231122
0.0230619
0.0230217
0.0229916
0.0229714
0.0229614
0.0229614
0.0229714
0.0229916
0.0230217
0.0230619
0.0264157
0.026161
0.0259425
0.025731
0.0255272
0.0253316
0.0251446
0.0249664
0.0247973
0.0246375
0.0244871
0.0243462
0.024215
0.0240936
0.0239821
0.0238805
0.0237889
0.0237074
0.023636
0.0235747
0.0235236
0.0234826
0.0234519
0.0234315
0.0234212
0.0234212
0.0234315
0.0234519
0.0234826
0.0235236
0.0269408
0.0266826
0.02646
0.0262444
0.0260367
0.0258374
0.0256468
0.0254653
0.025293
0.0251302
0.024977
0.0248336
0.0247
0.0245763
0.0244628
0.0243593
0.0242661
0.0241831
0.0241104
0.024048
0.0239959
0.0239543
0.023923
0.0239022
0.0238917
0.0238917
0.0239022
0.023923
0.0239543
0.0239959
0.0274786
0.0272168
0.02699
0.0267702
0.0265585
0.0263553
0.0261611
0.0259762
0.0258006
0.0256347
0.0254787
0.0253325
0.0251964
0.0250705
0.0249548
0.0248495
0.0247545
0.02467
0.0245959
0.0245324
0.0244794
0.024437
0.0244052
0.0243839
0.0243733
0.0243733
0.0243839
0.0244052
0.024437
0.0244794
0.0280295
0.0277643
0.0275329
0.0273088
0.027093
0.0268859
0.0266879
0.0264994
0.0263205
0.0261514
0.0259924
0.0258435
0.0257049
0.0255766
0.0254587
0.0253514
0.0252547
0.0251686
0.0250932
0.0250284
0.0249745
0.0249313
0.0248989
0.0248772
0.0248664
0.0248664
0.0248772
0.0248989
0.0249313
0.0249745
0.0285942
0.0283253
0.0280894
0.0278608
0.0276407
0.0274295
0.0272276
0.0270355
0.0268531
0.0266808
0.0265187
0.026367
0.0262257
0.026095
0.0259749
0.0258655
0.025767
0.0256793
0.0256024
0.0255365
0.0254815
0.0254375
0.0254045
0.0253825
0.0253715
0.0253715
0.0253825
0.0254045
0.0254375
0.0254815
0.0291729
0.0289005
0.0286598
0.0284266
0.028202
0.0279867
0.0277808
0.0275849
0.0273989
0.0272233
0.0270581
0.0269034
0.0267594
0.0266262
0.0265038
0.0263923
0.0262919
0.0262025
0.0261242
0.026057
0.026001
0.0259562
0.0259225
0.0259001
0.0258889
0.0258889
0.0259001
0.0259225
0.0259562
0.026001
0.0297664
0.0294905
0.0292448
0.0290068
0.0287776
0.0285579
0.028348
0.0281481
0.0279585
0.0277794
0.0276109
0.0274532
0.0273064
0.0271706
0.0270459
0.0269323
0.0268299
0.0267388
0.026659
0.0265905
0.0265334
0.0264877
0.0264534
0.0264306
0.0264191
0.0264191
0.0264306
0.0264534
0.0264877
0.0265334
0.0303751
0.0300958
0.0298448
0.0296018
0.029368
0.0291438
0.0289296
0.0287258
0.0285324
0.0283497
0.0281779
0.0280171
0.0278674
0.0277289
0.0276017
0.0274859
0.0273815
0.0272886
0.0272073
0.0271375
0.0270793
0.0270327
0.0269977
0.0269744
0.0269628
0.0269628
0.0269744
0.0269977
0.0270327
0.0270793
0.0310013
0.030717
0.0304604
0.0302123
0.0299736
0.0297449
0.0295263
0.0293183
0.029121
0.0289347
0.0287595
0.0285954
0.0284427
0.0283015
0.0281718
0.0280537
0.0279472
0.0278525
0.0277696
0.0276984
0.0276391
0.0275916
0.0275559
0.0275322
0.0275203
0.0275203
0.0275322
0.0275559
0.0275916
0.0276391
0.0316489
0.0313548
0.0310923
0.0308389
0.0305952
0.0303618
0.0301387
0.0299264
0.0297251
0.029535
0.0293562
0.0291888
0.0290331
0.028889
0.0287567
0.0286362
0.0285276
0.0284311
0.0283465
0.0282739
0.0282133
0.0281649
0.0281286
0.0281043
0.0280922
0.0280922
0.0281043
0.0281286
0.0281649
0.0282133
0.0323198
0.0320099
0.0317412
0.0314822
0.0312334
0.030995
0.0307673
0.0305507
0.0303452
0.0301511
0.0299687
0.0297979
0.029639
0.029492
0.029357
0.0292341
0.0291233
0.0290248
0.0289385
0.0288644
0.0288027
0.0287533
0.0287162
0.0286915
0.0286791
0.0286791
0.0286915
0.0287162
0.0287533
0.0288027
0.0324086
0.032143
0.0318888
0.0316453
0.0314128
0.0311917
0.0309819
0.0307838
0.0305976
0.0304232
0.0302611
0.0301111
0.0294077
0.0293572
0.0293194
0.0292942
0.0292816
0.0292816
0.0292942
0.0293194
0.0293572
0.0294077
0.00520283
0.00518057
0.00516382
0.00515263
0.00514703
0.00514703
0.00515263
0.00516382
0.00518057
0.00520282
0.00544311
0.00541544
0.00539322
0.0053765
0.00536534
0.00535974
0.00535974
0.00536534
0.0053765
0.00539322
0.00541544
0.00544311
0.00547617
0.00551452
0.0055581
0.0056068
0.00566054
0.0057192
0.00578268
0.00585089
0.00592373
0.00572693
0.00568859
0.00565555
0.00562791
0.00560571
0.00558901
0.00557786
0.00557227
0.00557227
0.00557786
0.00558901
0.00560571
0.00562791
0.00565555
0.00568859
0.00572693
0.0057705
0.00581921
0.00587296
0.00593166
0.0059952
0.00606348
0.0061364
0.00621385
0.00629571
0.00638186
0.00647217
0.00608545
0.00603166
0.00598292
0.00593934
0.00590099
0.00586797
0.00584033
0.00581814
0.00580145
0.00579031
0.00578473
0.00578473
0.0057903
0.00580145
0.00581814
0.00584033
0.00586797
0.00590099
0.00593934
0.00598292
0.00603165
0.00608545
0.0061442
0.00620781
0.00627618
0.00634919
0.00642674
0.00650871
0.00659497
0.00668539
0.00677982
0.00687812
0.00698011
0.00642062
0.00635692
0.00629809
0.00624425
0.00619547
0.00615186
0.00611349
0.00608046
0.00605281
0.00603062
0.00601394
0.00600279
0.00599721
0.00599721
0.00600279
0.00601394
0.00603062
0.00605281
0.00608046
0.00611349
0.00615186
0.00619547
0.00624425
0.00629809
0.00635692
0.00642062
0.00648908
0.00656221
0.00663989
0.00672198
0.00680838
0.00689893
0.00699351
0.00709194
0.00719408
0.00729975
0.00740877
0.00766717
0.00677558
0.00670232
0.00663373
0.00656993
0.00651101
0.00645709
0.00640826
0.0063646
0.0063262
0.00629313
0.00626547
0.00624327
0.00622658
0.00621543
0.00620985
0.00620985
0.00621543
0.00622658
0.00624327
0.00626547
0.00629313
0.0063262
0.0063646
0.00640825
0.00645709
0.00651101
0.00656993
0.00663373
0.00670232
0.00677558
0.0068534
0.00693565
0.00702221
0.00711294
0.00720769
0.00730631
0.00740864
0.00751452
0.00762375
0.00787617
0.00706741
0.00698942
0.006916
0.00684727
0.00678334
0.00672431
0.0066703
0.00662139
0.00657766
0.00653921
0.00650611
0.00647842
0.0064562
0.00643949
0.00642833
0.00642275
0.00642275
0.00642833
0.00643949
0.0064562
0.00647842
0.00650611
0.00653921
0.00657766
0.00662138
0.0066703
0.00672431
0.00678334
0.00684727
0.006916
0.00698942
0.00706741
0.00714985
0.0072366
0.00732753
0.0074225
0.00752134
0.00762392
0.00773005
0.00783956
0.00808645
0.00736468
0.00728203
0.00720384
0.00713024
0.00706134
0.00699726
0.00693811
0.00688398
0.00683497
0.00679117
0.00675265
0.0067195
0.00669177
0.00666951
0.00665278
0.00664161
0.00663602
0.00663602
0.00664161
0.00665278
0.00666951
0.00669177
0.0067195
0.00675265
0.00679117
0.00683497
0.00688398
0.00693811
0.00699726
0.00706134
0.00713023
0.00720384
0.00728203
0.00736468
0.00745166
0.00754283
0.00763806
0.00773718
0.00784004
0.00794648
0.00805631
0.00829811
0.00766751
0.00758027
0.00749737
0.00741896
0.00734515
0.00727606
0.00721181
0.00715251
0.00709825
0.00704912
0.00700522
0.00696663
0.0069334
0.00690562
0.00688333
0.00686657
0.00685538
0.00684977
0.00684977
0.00685538
0.00686657
0.00688333
0.00690562
0.0069334
0.00696663
0.00700522
0.00704912
0.00709825
0.00715251
0.00721181
0.00727606
0.00734515
0.00741896
0.00749737
0.00758027
0.00766751
0.00775897
0.00785449
0.00795393
0.00805712
0.00816392
0.00827413
0.00851122
0.00797605
0.00788428
0.00779674
0.00771356
0.00763489
0.00756084
0.00749154
0.0074271
0.00736762
0.00731321
0.00726395
0.00721994
0.00718124
0.00714794
0.00712009
0.00709775
0.00708095
0.00706974
0.00706412
0.00706412
0.00706974
0.00708095
0.00709775
0.00712009
0.00714794
0.00718124
0.00721993
0.00726395
0.00731321
0.00736762
0.0074271
0.00749154
0.00756084
0.00763489
0.00771356
0.00779673
0.00788428
0.00797605
0.00807191
0.00817171
0.00827529
0.00838249
0.00849312
0.00872587
0.0081942
0.00810207
0.00801419
0.00793071
0.00785175
0.00777744
0.0077079
0.00764323
0.00758356
0.00752897
0.00747956
0.00743542
0.00739661
0.00736322
0.00733529
0.00731289
0.00729605
0.00728481
0.00727918
0.00727918
0.00728481
0.00729605
0.00731289
0.00733529
0.00736322
0.00739661
0.00743542
0.00747956
0.00752897
0.00758356
0.00764323
0.0077079
0.00777744
0.00785175
0.00793071
0.00801419
0.00810207
0.0081942
0.00829044
0.00839064
0.00849464
0.0086023
0.00871341
0.00894216
0.00851018
0.00841352
0.008321
0.00823275
0.00814893
0.00806965
0.00799504
0.00792523
0.00786033
0.00780044
0.00774566
0.00769607
0.00765178
0.00761285
0.00757935
0.00755133
0.00752886
0.00751197
0.00750069
0.00749505
0.00749505
0.00750069
0.00751197
0.00752886
0.00755133
0.00757935
0.00761285
0.00765178
0.00769607
0.00774566
0.00780044
0.00786033
0.00792523
0.00799504
0.00806965
0.00814893
0.00823275
0.008321
0.00841352
0.00851019
0.00861083
0.00871531
0.00882346
0.00893511
0.00916016
0.0088324
0.00873126
0.00863414
0.00854118
0.00845253
0.00836833
0.0082887
0.00821377
0.00814367
0.0080785
0.00801836
0.00796336
0.00791359
0.00786913
0.00783006
0.00779643
0.00776832
0.00774577
0.00772883
0.00771751
0.00771185
0.00771185
0.00771751
0.00772883
0.00774577
0.00776832
0.00779643
0.00783006
0.00786913
0.00791359
0.00796336
0.00801836
0.0080785
0.00814367
0.00821377
0.0082887
0.00836833
0.00845253
0.00854118
0.00863414
0.00873126
0.0088324
0.0089374
0.0090461
0.00915831
0.00937996
0.00905545
0.00895379
0.00885616
0.00876273
0.00867364
0.00858902
0.00850901
0.00843374
0.00836331
0.00829784
0.00823744
0.00818221
0.00813223
0.00808758
0.00804835
0.00801459
0.00798637
0.00796374
0.00794672
0.00793537
0.00792968
0.00792968
0.00793537
0.00794672
0.00796374
0.00798637
0.00801459
0.00804835
0.00808758
0.00813223
0.00818221
0.00823744
0.00829784
0.00836331
0.00843374
0.00850902
0.00858902
0.00867364
0.00876273
0.00885616
0.00895379
0.00905546
0.00916102
0.00927031
0.00938315
0.00960167
0.00938627
0.00928011
0.00917786
0.0090797
0.00898576
0.00889619
0.00881113
0.0087307
0.00865504
0.00858427
0.00851848
0.00845779
0.0084023
0.00835209
0.00830724
0.00826783
0.00823393
0.00820559
0.00818286
0.00816577
0.00815437
0.00814866
0.00814866
0.00815437
0.00816577
0.00818286
0.00820559
0.00823393
0.00826783
0.00830724
0.00835209
0.0084023
0.00845779
0.00851848
0.00858427
0.00865505
0.0087307
0.00881113
0.00889619
0.00898576
0.0090797
0.00917786
0.00928011
0.00938627
0.00949621
0.00960972
0.00982536
0.00961328
0.00950646
0.0094036
0.00930486
0.00921037
0.00912029
0.00903474
0.00895388
0.00887781
0.00880665
0.00874052
0.00867952
0.00862375
0.00857328
0.00852822
0.00848862
0.00845456
0.00842609
0.00840325
0.00838609
0.00837463
0.0083689
0.0083689
0.00837463
0.00838609
0.00840325
0.00842609
0.00845456
0.00848862
0.00852822
0.00857329
0.00862375
0.00867952
0.00874052
0.00880665
0.00887781
0.00895388
0.00903475
0.00912029
0.00921037
0.00930486
0.00940361
0.00950647
0.00961329
0.0097239
0.00983813
0.0100511
0.00984215
0.00973464
0.00963112
0.00953175
0.00943668
0.00934604
0.00925999
0.00917864
0.00910213
0.00903057
0.00896407
0.00890273
0.00884666
0.00879593
0.00875062
0.00871082
0.00867659
0.00864797
0.00862502
0.00860777
0.00859626
0.0085905
0.0085905
0.00859626
0.00860777
0.00862502
0.00864797
0.00867659
0.00871082
0.00875063
0.00879593
0.00884666
0.00890273
0.00896407
0.00903057
0.00910213
0.00917865
0.00925999
0.00934605
0.00943668
0.00953175
0.00963113
0.00973465
0.00984216
0.0099535
0.0100685
0.0102791
0.010073
0.00996475
0.00986053
0.00976049
0.0096648
0.00957358
0.00948697
0.00940512
0.00932813
0.00925614
0.00918924
0.00912754
0.00907114
0.00902012
0.00897457
0.00893455
0.00890012
0.00887135
0.00884828
0.00883094
0.00881936
0.00881357
0.00881357
0.00881936
0.00883094
0.00884828
0.00887135
0.00890012
0.00893455
0.00897457
0.00902013
0.00907114
0.00912755
0.00918924
0.00925614
0.00932814
0.00940512
0.00948698
0.00957358
0.0096648
0.0097605
0.00986053
0.00996475
0.010073
0.0101851
0.0103009
0.0105093
0.0103059
0.0101969
0.0100919
0.00999119
0.00989483
0.00980299
0.00971581
0.00963341
0.00955592
0.00948346
0.00941614
0.00935406
0.00929731
0.00924599
0.00920016
0.0091599
0.00912528
0.00909634
0.00907313
0.0090557
0.00904406
0.00903823
0.00903823
0.00904406
0.0090557
0.00907313
0.00909634
0.00912528
0.0091599
0.00920016
0.00924599
0.00929732
0.00935406
0.00941615
0.00948347
0.00955592
0.00963341
0.00971581
0.00980299
0.00989484
0.0099912
0.0100919
0.0101969
0.0103059
0.0104189
0.0105355
0.010742
0.0105411
0.0104312
0.0103254
0.010224
0.0101269
0.0100344
0.0099466
0.00986363
0.00978561
0.00971266
0.00964489
0.0095824
0.00952528
0.00947363
0.00942751
0.009387
0.00935216
0.00932305
0.0092997
0.00928216
0.00927045
0.00926459
0.00926459
0.00927045
0.00928216
0.0092997
0.00932305
0.00935216
0.009387
0.00942751
0.00947363
0.00952529
0.0095824
0.00964489
0.00971266
0.00978561
0.00986363
0.0099466
0.0100344
0.0101269
0.010224
0.0103255
0.0104312
0.0105411
0.0106549
0.0107724
0.0109771
0.0107785
0.0106678
0.0105612
0.0104589
0.0103611
0.0102679
0.0101795
0.0100959
0.0100173
0.00994383
0.00987559
0.00981267
0.00975516
0.00970316
0.00965673
0.00961595
0.00958089
0.00955159
0.00952809
0.00951044
0.00949865
0.00949276
0.00949276
0.00949865
0.00951044
0.00952809
0.00955159
0.00958089
0.00961596
0.00965673
0.00970316
0.00975516