/*--------------------------------*- C++ -*----------------------------------*\
  =========                 |
  \\      /  F ield         | OpenFOAM: The Open Source CFD Toolbox
   \\    /   O peration     | Website:  https://openfoam.org
    \\  /    A nd           | Version:  7
     \\/     M anipulation  |
\*---------------------------------------------------------------------------*/
FoamFile
{
    version     2.0;
    format      ascii;
    class       volScalarField;
    location    "88000";
    object      p;
}
// * * * * * * * * * * * * * * * * * * * * * * * * * * * * * * * * * * * * * //

dimensions      [0 2 -2 0 0 0 0];

internalField   nonuniform List<scalar> 
4825
(
-7.50278e-18
-7.49525e-18
-7.50029e-18
-7.49301e-18
-7.49696e-18
-7.48405e-18
-7.49134e-18
-7.50066e-18
-7.48874e-18
-7.49665e-18
-7.48014e-18
-7.48845e-18
-7.49933e-18
-7.49069e-18
-7.49073e-18
-7.47868e-18
-7.48348e-18
-7.50404e-18
-7.49976e-18
-7.49238e-18
-7.48155e-18
-7.48466e-18
-7.51061e-18
-7.49536e-18
-7.50033e-18
-7.48553e-18
-7.48592e-18
-7.50354e-18
-7.4881e-18
-7.49253e-18
-7.48525e-18
-7.48409e-18
-7.49904e-18
-7.48717e-18
-7.49152e-18
-7.48008e-18
-7.48401e-18
-7.4986e-18
-7.48134e-18
-7.49245e-18
-7.47478e-18
-7.47961e-18
-7.50467e-18
-7.47819e-18
-7.49204e-18
-7.47733e-18
-7.47572e-18
-7.50781e-18
-7.48372e-18
-7.48659e-18
-7.47676e-18
-7.47637e-18
-7.50367e-18
-7.48966e-18
-7.49203e-18
-7.47813e-18
-7.47566e-18
-7.4995e-18
-7.49409e-18
-7.49437e-18
-7.47734e-18
-7.47318e-18
-7.5034e-18
-7.49049e-18
-7.49331e-18
-7.47484e-18
-7.50019e-18
-7.48874e-18
-7.49054e-18
-7.47372e-18
-7.50218e-18
-7.48343e-18
-7.48994e-18
-7.46973e-18
-7.49697e-18
-7.48661e-18
-7.48697e-18
-7.49978e-18
-7.48815e-18
-7.49079e-18
-7.49334e-18
-7.48807e-18
-7.49525e-18
-7.48832e-18
-7.49721e-18
-7.48994e-18
-7.49477e-18
-7.49253e-18
-7.48669e-18
-7.48826e-18
-7.4937e-18
-7.62109e-18
-7.6191e-18
-7.62539e-18
-7.61304e-18
-7.63791e-18
-7.62871e-18
-7.63574e-18
-7.63521e-18
-7.63595e-18
-7.63244e-18
-7.63358e-18
-7.63516e-18
-7.63256e-18
-7.61818e-18
-7.61767e-18
-7.60698e-18
-7.61511e-18
-7.59525e-18
-7.5943e-18
-7.58198e-18
-7.61596e-18
-7.61221e-18
-7.62415e-18
-7.62071e-18
-7.63056e-18
-7.62635e-18
-7.6375e-18
-7.63482e-18
-7.63241e-18
-7.6328e-18
-7.6327e-18
-7.63563e-18
-7.63078e-18
-7.61669e-18
-7.61817e-18
-7.61365e-18
-7.61556e-18
-7.59759e-18
-7.59936e-18
-7.58153e-18
-7.61892e-18
-7.61911e-18
-7.62686e-18
-7.622e-18
-7.63089e-18
-7.6307e-18
-7.63963e-18
-7.63443e-18
-7.63485e-18
-7.63197e-18
-7.63176e-18
-7.62908e-18
-7.62443e-18
-7.6196e-18
-7.61762e-18
-7.61759e-18
-7.61542e-18
-7.59682e-18
-7.59882e-18
-7.58332e-18
-7.62388e-18
-7.62109e-18
-7.62524e-18
-7.6241e-18
-7.62444e-18
-7.63003e-18
-7.63625e-18
-7.63622e-18
-7.63974e-18
-7.62992e-18
-7.62852e-18
-7.63105e-18
-7.62414e-18
-7.61636e-18
-7.61942e-18
-7.61432e-18
-7.61578e-18
-7.59666e-18
-7.59641e-18
-7.58254e-18
-7.62328e-18
-7.61719e-18
-7.62377e-18
-7.6227e-18
-7.62488e-18
-7.6282e-18
-7.63309e-18
-7.6297e-18
-7.64026e-18
-7.62886e-18
-7.63107e-18
-7.6309e-18
-7.62742e-18
-7.61523e-18
-7.6167e-18
-7.61329e-18
-7.61436e-18
-7.59477e-18
-7.59562e-18
-7.58052e-18
-7.62075e-18
-7.61869e-18
-7.61689e-18
-7.61781e-18
-7.62527e-18
-7.62754e-18
-7.6245e-18
-7.62975e-18
-7.64133e-18
-7.63437e-18
-7.63135e-18
-7.62968e-18
-7.62394e-18
-7.61026e-18
-7.61066e-18
-7.60982e-18
-7.61239e-18
-7.59234e-18
-7.59646e-18
-7.58313e-18
-7.62272e-18
-7.61576e-18
-7.61892e-18
-7.62618e-18
-7.62469e-18
-7.61919e-18
-7.6248e-18
-7.62963e-18
-7.6372e-18
-7.63288e-18
-7.63274e-18
-7.62859e-18
-7.62413e-18
-7.61299e-18
-7.61621e-18
-7.60746e-18
-7.6145e-18
-7.5962e-18
-7.5943e-18
-7.57992e-18
-7.61834e-18
-7.6268e-18
-7.61646e-18
-7.62364e-18
-7.62866e-18
-7.61733e-18
-7.62731e-18
-7.62836e-18
-7.63454e-18
-7.63017e-18
-7.63644e-18
-7.63315e-18
-7.62e-18
-7.61643e-18
-7.61296e-18
-7.607e-18
-7.60704e-18
-7.59617e-18
-7.59932e-18
-7.58012e-18
-7.57354e-18
-7.5631e-18
-7.56079e-18
-7.55942e-18
-7.56379e-18
-7.54837e-18
-7.54311e-18
-7.54785e-18
-7.53326e-18
-7.5301e-18
-7.52185e-18
-7.53468e-18
-7.53209e-18
-7.53117e-18
-7.53705e-18
-7.6105e-18
-7.62305e-18
-7.61476e-18
-7.62225e-18
-7.62536e-18
-7.61387e-18
-7.64088e-18
-7.62812e-18
-7.63547e-18
-7.62615e-18
-7.63477e-18
-7.63788e-18
-7.62234e-18
-7.61206e-18
-7.60982e-18
-7.60751e-18
-7.60109e-18
-7.59465e-18
-7.60036e-18
-7.58112e-18
-7.57425e-18
-7.56561e-18
-7.5632e-18
-7.55537e-18
-7.56219e-18
-7.54581e-18
-7.54764e-18
-7.54707e-18
-7.53483e-18
-7.52665e-18
-7.52433e-18
-7.53339e-18
-7.534e-18
-7.53155e-18
-7.53375e-18
-7.53255e-18
-7.5287e-18
-7.61987e-18
-7.62508e-18
-7.61805e-18
-7.62097e-18
-7.62773e-18
-7.62668e-18
-7.64336e-18
-7.62743e-18
-7.64542e-18
-7.62612e-18
-7.63543e-18
-7.62774e-18
-7.62126e-18
-7.61083e-18
-7.60561e-18
-7.60592e-18
-7.60622e-18
-7.59286e-18
-7.59317e-18
-7.58179e-18
-7.57719e-18
-7.56572e-18
-7.56461e-18
-7.55656e-18
-7.56009e-18
-7.54948e-18
-7.54886e-18
-7.54547e-18
-7.53296e-18
-7.52974e-18
-7.5243e-18
-7.53012e-18
-7.53376e-18
-7.52631e-18
-7.53608e-18
-7.53498e-18
-7.52511e-18
-7.52583e-18
-7.62052e-18
-7.62735e-18
-7.62109e-18
-7.61857e-18
-7.63965e-18
-7.62105e-18
-7.63809e-18
-7.62177e-18
-7.64115e-18
-7.62544e-18
-7.64502e-18
-7.62523e-18
-7.62564e-18
-7.60844e-18
-7.60027e-18
-7.60002e-18
-7.60617e-18
-7.59403e-18
-7.59071e-18
-7.58337e-18
-7.57373e-18
-7.5645e-18
-7.56616e-18
-7.55745e-18
-7.55944e-18
-7.54849e-18
-7.54903e-18
-7.5463e-18
-7.53417e-18
-7.53285e-18
-7.52401e-18
-7.52588e-18
-7.53054e-18
-7.53159e-18
-7.53431e-18
-7.53651e-18
-7.52563e-18
-7.52642e-18
-7.51955e-18
-7.51285e-18
-7.61892e-18
-7.62573e-18
-7.62402e-18
-7.61983e-18
-7.63567e-18
-7.61895e-18
-7.63255e-18
-7.61646e-18
-7.64081e-18
-7.62715e-18
-7.64059e-18
-7.62442e-18
-7.63141e-18
-7.60378e-18
-7.60013e-18
-7.60151e-18
-7.60441e-18
-7.59818e-18
-7.59265e-18
-7.5807e-18
-7.57031e-18
-7.56518e-18
-7.5647e-18
-7.55701e-18
-7.56018e-18
-7.54726e-18
-7.55035e-18
-7.54305e-18
-7.53297e-18
-7.53073e-18
-7.52883e-18
-7.52805e-18
-7.52533e-18
-7.53355e-18
-7.52939e-18
-7.53513e-18
-7.52588e-18
-7.52294e-18
-7.51686e-18
-7.51539e-18
-7.51965e-18
-7.5095e-18
-7.6236e-18
-7.62128e-18
-7.62593e-18
-7.6187e-18
-7.62834e-18
-7.61523e-18
-7.63383e-18
-7.62481e-18
-7.63715e-18
-7.62517e-18
-7.64307e-18
-7.62105e-18
-7.62533e-18
-7.60388e-18
-7.60511e-18
-7.60609e-18
-7.60496e-18
-7.59489e-18
-7.58733e-18
-7.58014e-18
-7.57104e-18
-7.5668e-18
-7.56237e-18
-7.55739e-18
-7.56127e-18
-7.54569e-18
-7.55295e-18
-7.54096e-18
-7.53584e-18
-7.5297e-18
-7.52408e-18
-7.52919e-18
-7.52837e-18
-7.53261e-18
-7.52642e-18
-7.53095e-18
-7.526e-18
-7.52375e-18
-7.51412e-18
-7.51363e-18
-7.52216e-18
-7.51082e-18
-7.52788e-18
-7.51807e-18
-7.53195e-18
-7.62285e-18
-7.6247e-18
-7.62901e-18
-7.62131e-18
-7.6276e-18
-7.61394e-18
-7.63559e-18
-7.6296e-18
-7.63304e-18
-7.61751e-18
-7.63814e-18
-7.62129e-18
-7.62601e-18
-7.6138e-18
-7.59971e-18
-7.60547e-18
-7.6057e-18
-7.59056e-18
-7.5883e-18
-7.58274e-18
-7.57269e-18
-7.56528e-18
-7.56112e-18
-7.55862e-18
-7.5638e-18
-7.54886e-18
-7.55175e-18
-7.53876e-18
-7.53452e-18
-7.52868e-18
-7.52436e-18
-7.53044e-18
-7.52816e-18
-7.53398e-18
-7.5336e-18
-7.53014e-18
-7.52607e-18
-7.51854e-18
-7.51329e-18
-7.50967e-18
-7.52095e-18
-7.50748e-18
-7.52339e-18
-7.51004e-18
-7.53314e-18
-7.52029e-18
-7.5285e-18
-7.62256e-18
-7.62361e-18
-7.62685e-18
-7.62363e-18
-7.62922e-18
-7.61995e-18
-7.6269e-18
-7.62915e-18
-7.63437e-18
-7.62231e-18
-7.63301e-18
-7.62311e-18
-7.62803e-18
-7.61144e-18
-7.60313e-18
-7.6009e-18
-7.60469e-18
-7.58807e-18
-7.59648e-18
-7.58233e-18
-7.57017e-18
-7.56372e-18
-7.56395e-18
-7.55967e-18
-7.56363e-18
-7.54751e-18
-7.55193e-18
-7.54052e-18
-7.53224e-18
-7.5256e-18
-7.52443e-18
-7.52572e-18
-7.52983e-18
-7.53036e-18
-7.53362e-18
-7.53036e-18
-7.52418e-18
-7.52045e-18
-7.51546e-18
-7.50849e-18
-7.51622e-18
-7.50964e-18
-7.52352e-18
-7.51538e-18
-7.53203e-18
-7.52212e-18
-7.52281e-18
-7.50774e-18
-7.52165e-18
-7.5034e-18
-7.62225e-18
-7.62348e-18
-7.62629e-18
-7.61797e-18
-7.63835e-18
-7.62266e-18
-7.63117e-18
-7.63256e-18
-7.64191e-18
-7.62761e-18
-7.62934e-18
-7.62262e-18
-7.63044e-18
-7.60996e-18
-7.59938e-18
-7.59227e-18
-7.6041e-18
-7.59215e-18
-7.5929e-18
-7.57886e-18
-7.57362e-18
-7.56002e-18
-7.56481e-18
-7.55547e-18
-7.56083e-18
-7.54475e-18
-7.54939e-18
-7.54016e-18
-7.53097e-18
-7.52851e-18
-7.52043e-18
-7.52908e-18
-7.52954e-18
-7.53077e-18
-7.53879e-18
-7.53464e-18
-7.52627e-18
-7.52236e-18
-7.51764e-18
-7.51497e-18
-7.51479e-18
-7.50842e-18
-7.51423e-18
-7.50942e-18
-7.53239e-18
-7.51934e-18
-7.52186e-18
-7.5075e-18
-7.51987e-18
-7.50361e-18
-7.62051e-18
-7.62284e-18
-7.6283e-18
-7.62241e-18
-7.63407e-18
-7.62299e-18
-7.63262e-18
-7.6232e-18
-7.63713e-18
-7.62281e-18
-7.6337e-18
-7.61795e-18
-7.63138e-18
-7.61127e-18
-7.60055e-18
-7.59426e-18
-7.6e-18
-7.59493e-18
-7.58767e-18
-7.58023e-18
-7.57519e-18
-7.56099e-18
-7.56394e-18
-7.55504e-18
-7.55949e-18
-7.5486e-18
-7.55314e-18
-7.53782e-18
-7.53357e-18
-7.52949e-18
-7.52212e-18
-7.53056e-18
-7.53024e-18
-7.53401e-18
-7.53622e-18
-7.53401e-18
-7.52922e-18
-7.5223e-18
-7.52171e-18
-7.5125e-18
-7.51933e-18
-7.5138e-18
-7.51687e-18
-7.5079e-18
-7.52472e-18
-7.51297e-18
-7.51357e-18
-7.50635e-18
-7.51625e-18
-7.50686e-18
-7.62148e-18
-7.62028e-18
-7.62904e-18
-7.61946e-18
-7.63259e-18
-7.62012e-18
-7.62772e-18
-7.62408e-18
-7.6329e-18
-7.6205e-18
-7.63078e-18
-7.61187e-18
-7.62516e-18
-7.61142e-18
-7.60161e-18
-7.59697e-18
-7.60493e-18
-7.59185e-18
-7.58643e-18
-7.5835e-18
-7.57495e-18
-7.56554e-18
-7.56232e-18
-7.55534e-18
-7.55845e-18
-7.55406e-18
-7.55328e-18
-7.54021e-18
-7.53612e-18
-7.52955e-18
-7.52839e-18
-7.52926e-18
-7.53085e-18
-7.52846e-18
-7.5328e-18
-7.53149e-18
-7.52443e-18
-7.52309e-18
-7.51912e-18
-7.51076e-18
-7.51636e-18
-7.51703e-18
-7.51872e-18
-7.51734e-18
-7.51761e-18
-7.50841e-18
-7.51826e-18
-7.50447e-18
-7.5144e-18
-7.50259e-18
-7.62058e-18
-7.62315e-18
-7.62407e-18
-7.61851e-18
-7.62875e-18
-7.61976e-18
-7.62681e-18
-7.62895e-18
-7.63428e-18
-7.62067e-18
-7.63692e-18
-7.62053e-18
-7.62046e-18
-7.60672e-18
-7.60734e-18
-7.59845e-18
-7.60536e-18
-7.5906e-18
-7.58805e-18
-7.58392e-18
-7.57473e-18
-7.56508e-18
-7.56079e-18
-7.55545e-18
-7.55756e-18
-7.55648e-18
-7.55074e-18
-7.5395e-18
-7.53483e-18
-7.53338e-18
-7.52393e-18
-7.52796e-18
-7.52576e-18
-7.52384e-18
-7.53241e-18
-7.53008e-18
-7.52247e-18
-7.52582e-18
-7.51189e-18
-7.50501e-18
-7.51542e-18
-7.51739e-18
-7.51968e-18
-7.51632e-18
-7.52523e-18
-7.51433e-18
-7.52603e-18
-7.50404e-18
-7.51013e-18
-7.49505e-18
-7.62587e-18
-7.63327e-18
-7.62657e-18
-7.6228e-18
-7.63122e-18
-7.621e-18
-7.62184e-18
-7.62305e-18
-7.63362e-18
-7.61709e-18
-7.63183e-18
-7.62038e-18
-7.61981e-18
-7.61125e-18
-7.60184e-18
-7.59775e-18
-7.60521e-18
-7.58726e-18
-7.58587e-18
-7.58347e-18
-7.57927e-18
-7.56263e-18
-7.56596e-18
-7.55256e-18
-7.55674e-18
-7.55036e-18
-7.55023e-18
-7.53584e-18
-7.53635e-18
-7.53158e-18
-7.52215e-18
-7.52775e-18
-7.52548e-18
-7.5333e-18
-7.52843e-18
-7.53443e-18
-7.52411e-18
-7.52692e-18
-7.5112e-18
-7.51073e-18
-7.51602e-18
-7.51496e-18
-7.52211e-18
-7.51836e-18
-7.52615e-18
-7.51202e-18
-7.52369e-18
-7.50497e-18
-7.50078e-18
-7.49507e-18
-7.63278e-18
-7.63006e-18
-7.63571e-18
-7.62776e-18
-7.63441e-18
-7.61934e-18
-7.62285e-18
-7.61801e-18
-7.62836e-18
-7.62224e-18
-7.62632e-18
-7.61543e-18
-7.62484e-18
-7.61201e-18
-7.60562e-18
-7.60151e-18
-7.60175e-18
-7.58556e-18
-7.58187e-18
-7.58025e-18
-7.57833e-18
-7.56456e-18
-7.56758e-18
-7.5541e-18
-7.55705e-18
-7.54798e-18
-7.54904e-18
-7.53948e-18
-7.54169e-18
-7.53083e-18
-7.52389e-18
-7.53047e-18
-7.52504e-18
-7.53258e-18
-7.52899e-18
-7.5297e-18
-7.52737e-18
-7.52184e-18
-7.51627e-18
-7.51627e-18
-7.51534e-18
-7.51702e-18
-7.52604e-18
-7.51338e-18
-7.53057e-18
-7.51296e-18
-7.52408e-18
-7.4976e-18
-7.50544e-18
-7.49447e-18
-7.62681e-18
-7.6237e-18
-7.62855e-18
-7.62845e-18
-7.63342e-18
-7.62724e-18
-7.63114e-18
-7.62448e-18
-7.64144e-18
-7.62535e-18
-7.63155e-18
-7.61705e-18
-7.62195e-18
-7.61038e-18
-7.60929e-18
-7.59965e-18
-7.60319e-18
-7.58735e-18
-7.58894e-18
-7.578e-18
-7.57667e-18
-7.56434e-18
-7.5676e-18
-7.55535e-18
-7.55939e-18
-7.54917e-18
-7.54712e-18
-7.53732e-18
-7.53608e-18
-7.53187e-18
-7.52999e-18
-7.52968e-18
-7.52624e-18
-7.53022e-18
-7.52947e-18
-7.52556e-18
-7.5247e-18
-7.52412e-18
-7.51619e-18
-7.51404e-18
-7.51281e-18
-7.50542e-18
-7.51543e-18
-7.50938e-18
-7.52296e-18
-7.51214e-18
-7.52235e-18
-7.50398e-18
-7.50767e-18
-7.49917e-18
-7.62283e-18
-7.62296e-18
-7.62807e-18
-7.62468e-18
-7.63476e-18
-7.62916e-18
-7.6302e-18
-7.62388e-18
-7.63706e-18
-7.61697e-18
-7.62674e-18
-7.62104e-18
-7.61936e-18
-7.60547e-18
-7.60809e-18
-7.60122e-18
-7.59903e-18
-7.58702e-18
-7.59066e-18
-7.57653e-18
-7.57975e-18
-7.5666e-18
-7.56513e-18
-7.55631e-18
-7.55919e-18
-7.55111e-18
-7.54717e-18
-7.53688e-18
-7.53334e-18
-7.53286e-18
-7.53053e-18
-7.52713e-18
-7.52504e-18
-7.53475e-18
-7.52548e-18
-7.52638e-18
-7.52252e-18
-7.52603e-18
-7.51199e-18
-7.51362e-18
-7.51841e-18
-7.51149e-18
-7.51759e-18
-7.51088e-18
-7.51977e-18
-7.50974e-18
-7.518e-18
-7.5039e-18
-7.50917e-18
-7.50014e-18
-7.62274e-18
-7.61788e-18
-7.62987e-18
-7.62036e-18
-7.63155e-18
-7.62058e-18
-7.62677e-18
-7.62127e-18
-7.63541e-18
-7.62056e-18
-7.63057e-18
-7.62271e-18
-7.61919e-18
-7.60259e-18
-7.60793e-18
-7.59913e-18
-7.60087e-18
-7.5829e-18
-7.59307e-18
-7.5784e-18
-7.58214e-18
-7.56416e-18
-7.56595e-18
-7.55304e-18
-7.55602e-18
-7.54802e-18
-7.55135e-18
-7.54038e-18
-7.53014e-18
-7.53162e-18
-7.5275e-18
-7.52504e-18
-7.52725e-18
-7.53327e-18
-7.53074e-18
-7.52637e-18
-7.5269e-18
-7.52685e-18
-7.51468e-18
-7.51624e-18
-7.5171e-18
-7.51772e-18
-7.52208e-18
-7.51258e-18
-7.52813e-18
-7.51229e-18
-7.51572e-18
-7.5023e-18
-7.51509e-18
-7.49759e-18
-7.62854e-18
-7.6152e-18
-7.63021e-18
-7.62431e-18
-7.62869e-18
-7.61955e-18
-7.62739e-18
-7.6223e-18
-7.63461e-18
-7.62504e-18
-7.62897e-18
-7.61778e-18
-7.62357e-18
-7.60991e-18
-7.60623e-18
-7.60261e-18
-7.60428e-18
-7.58017e-18
-7.59096e-18
-7.57997e-18
-7.57952e-18
-7.5619e-18
-7.56387e-18
-7.55179e-18
-7.55438e-18
-7.54525e-18
-7.54993e-18
-7.54117e-18
-7.53476e-18
-7.5327e-18
-7.52537e-18
-7.5282e-18
-7.52849e-18
-7.52667e-18
-7.53331e-18
-7.52805e-18
-7.52862e-18
-7.52391e-18
-7.52147e-18
-7.51103e-18
-7.51926e-18
-7.51477e-18
-7.5224e-18
-7.51521e-18
-7.53168e-18
-7.51326e-18
-7.51666e-18
-7.50251e-18
-7.51626e-18
-7.49149e-18
-7.63167e-18
-7.62092e-18
-7.62542e-18
-7.62474e-18
-7.63022e-18
-7.62168e-18
-7.63153e-18
-7.62182e-18
-7.63283e-18
-7.61949e-18
-7.6212e-18
-7.61867e-18
-7.62385e-18
-7.61526e-18
-7.6067e-18
-7.59949e-18
-7.60281e-18
-7.58305e-18
-7.59223e-18
-7.57788e-18
-7.57805e-18
-7.56243e-18
-7.56464e-18
-7.5512e-18
-7.55336e-18
-7.54624e-18
-7.54917e-18
-7.5393e-18
-7.53838e-18
-7.53166e-18
-7.52704e-18
-7.52659e-18
-7.52802e-18
-7.52696e-18
-7.53516e-18
-7.52746e-18
-7.52737e-18
-7.52098e-18
-7.51801e-18
-7.52271e-18
-7.52199e-18
-7.51594e-18
-7.51869e-18
-7.51413e-18
-7.53058e-18
-7.50766e-18
-7.51823e-18
-7.50609e-18
-7.50752e-18
-7.4896e-18
-7.62859e-18
-7.62718e-18
-7.6314e-18
-7.62754e-18
-7.63067e-18
-7.62478e-18
-7.6284e-18
-7.62441e-18
-7.63474e-18
-7.61928e-18
-7.62704e-18
-7.61818e-18
-7.62219e-18
-7.61588e-18
-7.60714e-18
-7.59882e-18
-7.59614e-18
-7.58762e-18
-7.5891e-18
-7.58204e-18
-7.57554e-18
-7.56099e-18
-7.56647e-18
-7.55427e-18
-7.5512e-18
-7.54449e-18
-7.54859e-18
-7.54291e-18
-7.53817e-18
-7.53275e-18
-7.52778e-18
-7.52454e-18
-7.52546e-18
-7.52883e-18
-7.52869e-18
-7.52679e-18
-7.5186e-18
-7.52058e-18
-7.51324e-18
-7.51749e-18
-7.52056e-18
-7.51781e-18
-7.51596e-18
-7.5099e-18
-7.52296e-18
-7.51123e-18
-7.51554e-18
-7.49922e-18
-7.50402e-18
-7.49058e-18
-7.62529e-18
-7.63206e-18
-7.63417e-18
-7.62821e-18
-7.6308e-18
-7.6257e-18
-7.62745e-18
-7.62227e-18
-7.63324e-18
-7.61878e-18
-7.62431e-18
-7.62251e-18
-7.61862e-18
-7.61192e-18
-7.61091e-18
-7.59892e-18
-7.5972e-18
-7.58946e-18
-7.58865e-18
-7.58106e-18
-7.57443e-18
-7.56351e-18
-7.56428e-18
-7.55209e-18
-7.55334e-18
-7.54516e-18
-7.55026e-18
-7.54729e-18
-7.53755e-18
-7.52918e-18
-7.52805e-18
-7.525e-18
-7.5271e-18
-7.5261e-18
-7.52863e-18
-7.5237e-18
-7.52067e-18
-7.52488e-18
-7.51006e-18
-7.51815e-18
-7.52087e-18
-7.51429e-18
-7.51947e-18
-7.51244e-18
-7.52391e-18
-7.51333e-18
-7.51473e-18
-7.49581e-18
-7.50201e-18
-7.49165e-18
-7.62986e-18
-7.62941e-18
-7.63384e-18
-7.62758e-18
-7.63542e-18
-7.62131e-18
-7.62982e-18
-7.61998e-18
-7.62964e-18
-7.61682e-18
-7.62253e-18
-7.62149e-18
-7.62455e-18
-7.61124e-18
-7.6127e-18
-7.60136e-18
-7.5979e-18
-7.58622e-18
-7.59078e-18
-7.57594e-18
-7.5763e-18
-7.56377e-18
-7.56353e-18
-7.55059e-18
-7.55348e-18
-7.54855e-18
-7.55284e-18
-7.54629e-18
-7.53776e-18
-7.53179e-18
-7.53209e-18
-7.5287e-18
-7.5329e-18
-7.52503e-18
-7.52536e-18
-7.52351e-18
-7.52222e-18
-7.52076e-18
-7.51235e-18
-7.51806e-18
-7.5217e-18
-7.51556e-18
-7.52388e-18
-7.51111e-18
-7.5275e-18
-7.51047e-18
-7.51614e-18
-7.49614e-18
-7.50298e-18
-7.48896e-18
-7.62714e-18
-7.62832e-18
-7.63167e-18
-7.62915e-18
-7.6292e-18
-7.62501e-18
-7.62523e-18
-7.62663e-18
-7.63552e-18
-7.61987e-18
-7.62728e-18
-7.6144e-18
-7.62131e-18
-7.6112e-18
-7.60733e-18
-7.60163e-18
-7.59665e-18
-7.58772e-18
-7.59026e-18
-7.57724e-18
-7.57993e-18
-7.56222e-18
-7.5691e-18
-7.54932e-18
-7.55249e-18
-7.54563e-18
-7.54774e-18
-7.54164e-18
-7.53793e-18
-7.53061e-18
-7.53038e-18
-7.53143e-18
-7.52979e-18
-7.52956e-18
-7.52136e-18
-7.52574e-18
-7.5201e-18
-7.52283e-18
-7.52008e-18
-7.51478e-18
-7.51663e-18
-7.51265e-18
-7.52052e-18
-7.51382e-18
-7.52156e-18
-7.5133e-18
-7.51587e-18
-7.50085e-18
-7.50299e-18
-7.49298e-18
-7.62947e-18
-7.62339e-18
-7.63189e-18
-7.62489e-18
-7.62582e-18
-7.62589e-18
-7.62732e-18
-7.62293e-18
-7.63335e-18
-7.62183e-18
-7.62784e-18
-7.61471e-18
-7.62546e-18
-7.6063e-18
-7.60645e-18
-7.60188e-18
-7.59987e-18
-7.58624e-18
-7.59033e-18
-7.57833e-18
-7.57893e-18
-7.56362e-18
-7.56482e-18
-7.55101e-18
-7.55648e-18
-7.54909e-18
-7.55007e-18
-7.54308e-18
-7.53895e-18
-7.53097e-18
-7.5307e-18
-7.53013e-18
-7.53033e-18
-7.52651e-18
-7.52326e-18
-7.52368e-18
-7.5195e-18
-7.51937e-18
-7.5194e-18
-7.51621e-18
-7.51525e-18
-7.51514e-18
-7.52051e-18
-7.5136e-18
-7.52132e-18
-7.51908e-18
-7.51886e-18
-7.49878e-18
-7.50771e-18
-7.48952e-18
-7.6248e-18
-7.62668e-18
-7.62962e-18
-7.62782e-18
-7.62669e-18
-7.62559e-18
-7.62791e-18
-7.62259e-18
-7.63221e-18
-7.61696e-18
-7.63365e-18
-7.61632e-18
-7.62402e-18
-7.60832e-18
-7.60642e-18
-7.60132e-18
-7.59963e-18
-7.58655e-18
-7.59138e-18
-7.57726e-18
-7.57653e-18
-7.5652e-18
-7.56196e-18
-7.55046e-18
-7.55698e-18
-7.55001e-18
-7.55048e-18
-7.54288e-18
-7.5388e-18
-7.5356e-18
-7.53419e-18
-7.52529e-18
-7.53012e-18
-7.52429e-18
-7.52706e-18
-7.52523e-18
-7.51848e-18
-7.5187e-18
-7.51642e-18
-7.51331e-18
-7.52203e-18
-7.51406e-18
-7.51831e-18
-7.514e-18
-7.52158e-18
-7.51751e-18
-7.51556e-18
-7.4991e-18
-7.50509e-18
-7.48656e-18
-7.62901e-18
-7.62843e-18
-7.63226e-18
-7.63593e-18
-7.62794e-18
-7.62563e-18
-7.63122e-18
-7.62096e-18
-7.63365e-18
-7.61451e-18
-7.62788e-18
-7.61723e-18
-7.62017e-18
-7.60899e-18
-7.60526e-18
-7.6046e-18
-7.60029e-18
-7.58937e-18
-7.59068e-18
-7.57567e-18
-7.57508e-18
-7.56665e-18
-7.5655e-18
-7.55088e-18
-7.5584e-18
-7.54692e-18
-7.55175e-18
-7.54147e-18
-7.53904e-18
-7.53388e-18
-7.53694e-18
-7.52426e-18
-7.52808e-18
-7.52357e-18
-7.52698e-18
-7.52682e-18
-7.52088e-18
-7.52153e-18
-7.51773e-18
-7.51761e-18
-7.52468e-18
-7.51248e-18
-7.51662e-18
-7.51088e-18
-7.52119e-18
-7.5088e-18
-7.50723e-18
-7.49622e-18
-7.50498e-18
-7.48742e-18
-7.62379e-18
-7.62864e-18
-7.63083e-18
-7.64071e-18
-7.63132e-18
-7.6267e-18
-7.63054e-18
-7.61764e-18
-7.63201e-18
-7.61852e-18
-7.6296e-18
-7.61384e-18
-7.61955e-18
-7.60766e-18
-7.60523e-18
-7.60519e-18
-7.59604e-18
-7.5901e-18
-7.58824e-18
-7.57663e-18
-7.57257e-18
-7.57069e-18
-7.56875e-18
-7.55335e-18
-7.55654e-18
-7.54484e-18
-7.5497e-18
-7.54345e-18
-7.53738e-18
-7.53403e-18
-7.53405e-18
-7.52766e-18
-7.52885e-18
-7.5262e-18
-7.52465e-18
-7.52501e-18
-7.52278e-18
-7.52285e-18
-7.52162e-18
-7.51273e-18
-7.52374e-18
-7.51039e-18
-7.51842e-18
-7.51062e-18
-7.51993e-18
-7.51045e-18
-7.5028e-18
-7.49797e-18
-7.50185e-18
-7.49561e-18
-7.62643e-18
-7.62887e-18
-7.62827e-18
-7.63293e-18
-7.63316e-18
-7.62878e-18
-7.63296e-18
-7.62475e-18
-7.63215e-18
-7.61963e-18
-7.62972e-18
-7.61623e-18
-7.62546e-18
-7.60739e-18
-7.60742e-18
-7.60323e-18
-7.59784e-18
-7.59001e-18
-7.58821e-18
-7.57673e-18
-7.57311e-18
-7.56747e-18
-7.56602e-18
-7.55633e-18
-7.55676e-18
-7.54641e-18
-7.54819e-18
-7.54579e-18
-7.53913e-18
-7.5364e-18
-7.53165e-18
-7.52829e-18
-7.52701e-18
-7.52615e-18
-7.52534e-18
-7.52476e-18
-7.52276e-18
-7.51894e-18
-7.51846e-18
-7.51402e-18
-7.51935e-18
-7.51217e-18
-7.51667e-18
-7.50763e-18
-7.51705e-18
-7.51171e-18
-7.51252e-18
-7.5014e-18
-7.49851e-18
-7.49221e-18
-7.62898e-18
-7.63054e-18
-7.62997e-18
-7.63066e-18
-7.63285e-18
-7.62751e-18
-7.63258e-18
-7.6204e-18
-7.63465e-18
-7.62232e-18
-7.6275e-18
-7.62128e-18
-7.62384e-18
-7.60767e-18
-7.61109e-18
-7.60169e-18
-7.59853e-18
-7.58949e-18
-7.58977e-18
-7.57415e-18
-7.57589e-18
-7.56574e-18
-7.56454e-18
-7.55543e-18
-7.55821e-18
-7.54708e-18
-7.54636e-18
-7.5444e-18
-7.53969e-18
-7.53504e-18
-7.53077e-18
-7.52666e-18
-7.52705e-18
-7.52647e-18
-7.52676e-18
-7.52342e-18
-7.52129e-18
-7.52057e-18
-7.51722e-18
-7.51702e-18
-7.51661e-18
-7.51309e-18
-7.52482e-18
-7.51028e-18
-7.5165e-18
-7.51146e-18
-7.51152e-18
-7.50221e-18
-7.49841e-18
-7.48845e-18
-7.62802e-18
-7.63358e-18
-7.63234e-18
-7.62596e-18
-7.63297e-18
-7.62863e-18
-7.62953e-18
-7.62405e-18
-7.63557e-18
-7.61908e-18
-7.62974e-18
-7.6204e-18
-7.61773e-18
-7.60666e-18
-7.61192e-18
-7.60302e-18
-7.60072e-18
-7.58852e-18
-7.58743e-18
-7.57472e-18
-7.57581e-18
-7.56651e-18
-7.56499e-18
-7.55478e-18
-7.55609e-18
-7.54763e-18
-7.54825e-18
-7.54415e-18
-7.53951e-18
-7.53479e-18
-7.53319e-18
-7.52647e-18
-7.52892e-18
-7.52532e-18
-7.52564e-18
-7.521e-18
-7.51946e-18
-7.52472e-18
-7.51741e-18
-7.5146e-18
-7.52361e-18
-7.51278e-18
-7.52314e-18
-7.5134e-18
-7.51712e-18
-7.51118e-18
-7.51586e-18
-7.49912e-18
-7.49698e-18
-7.48737e-18
-7.62127e-18
-7.63048e-18
-7.62649e-18
-7.62467e-18
-7.63213e-18
-7.63213e-18
-7.6346e-18
-7.62854e-18
-7.63497e-18
-7.61881e-18
-7.6346e-18
-7.617e-18
-7.61641e-18
-7.60731e-18
-7.61501e-18
-7.60426e-18
-7.60188e-18
-7.58925e-18
-7.58561e-18
-7.57911e-18
-7.57547e-18
-7.56719e-18
-7.56515e-18
-7.55439e-18
-7.55845e-18
-7.54807e-18
-7.54907e-18
-7.54573e-18
-7.53969e-18
-7.53596e-18
-7.53022e-18
-7.5298e-18
-7.52831e-18
-7.52487e-18
-7.52531e-18
-7.51788e-18
-7.5176e-18
-7.5268e-18
-7.51933e-18
-7.51316e-18
-7.52363e-18
-7.51264e-18
-7.52446e-18
-7.50939e-18
-7.51504e-18
-7.51254e-18
-7.51619e-18
-7.5011e-18
-7.50178e-18
-7.49498e-18
-7.6298e-18
-7.63325e-18
-7.62138e-18
-7.63178e-18
-7.629e-18
-7.63076e-18
-7.63349e-18
-7.62425e-18
-7.63251e-18
-7.62104e-18
-7.62646e-18
-7.6114e-18
-7.62358e-18
-7.60218e-18
-7.60979e-18
-7.60328e-18
-7.59995e-18
-7.58918e-18
-7.58596e-18
-7.57844e-18
-7.57588e-18
-7.56887e-18
-7.56432e-18
-7.5535e-18
-7.55733e-18
-7.5484e-18
-7.54885e-18
-7.54482e-18
-7.53914e-18
-7.5382e-18
-7.53221e-18
-7.53025e-18
-7.52949e-18
-7.52474e-18
-7.52822e-18
-7.52352e-18
-7.52409e-18
-7.5185e-18
-7.52435e-18
-7.52133e-18
-7.52176e-18
-7.51402e-18
-7.52117e-18
-7.51212e-18
-7.5175e-18
-7.51621e-18
-7.51091e-18
-7.50731e-18
-7.5022e-18
-7.49045e-18
-7.63388e-18
-7.63148e-18
-7.62911e-18
-7.63655e-18
-7.63123e-18
-7.63209e-18
-7.63183e-18
-7.62394e-18
-7.63196e-18
-7.62172e-18
-7.62992e-18
-7.61389e-18
-7.62646e-18
-7.60825e-18
-7.60686e-18
-7.6023e-18
-7.59742e-18
-7.58973e-18
-7.58599e-18
-7.57773e-18
-7.57703e-18
-7.56559e-18
-7.56355e-18
-7.55599e-18
-7.55776e-18
-7.54864e-18
-7.54902e-18
-7.54533e-18
-7.54274e-18
-7.53626e-18
-7.53482e-18
-7.52998e-18
-7.52791e-18
-7.52593e-18
-7.52943e-18
-7.52281e-18
-7.52364e-18
-7.51436e-18
-7.52626e-18
-7.5184e-18
-7.52238e-18
-7.51492e-18
-7.51842e-18
-7.51435e-18
-7.51964e-18
-7.51382e-18
-7.50837e-18
-7.50084e-18
-7.50331e-18
-7.48917e-18
-7.63408e-18
-7.63655e-18
-7.63435e-18
-7.63512e-18
-7.63536e-18
-7.62781e-18
-7.62594e-18
-7.62185e-18
-7.6369e-18
-7.62157e-18
-7.62444e-18
-7.61576e-18
-7.6221e-18
-7.61e-18
-7.61045e-18
-7.60065e-18
-7.59495e-18
-7.58853e-18
-7.58777e-18
-7.57731e-18
-7.57824e-18
-7.56641e-18
-7.56697e-18
-7.55697e-18
-7.5593e-18
-7.54879e-18
-7.54888e-18
-7.54377e-18
-7.54323e-18
-7.53602e-18
-7.53365e-18
-7.52764e-18
-7.53045e-18
-7.52636e-18
-7.5307e-18
-7.51932e-18
-7.52498e-18
-7.51789e-18
-7.52663e-18
-7.51643e-18
-7.52074e-18
-7.51104e-18
-7.5161e-18
-7.51548e-18
-7.5258e-18
-7.50884e-18
-7.5121e-18
-7.49766e-18
-7.50194e-18
-7.48644e-18
-7.6324e-18
-7.63773e-18
-7.63436e-18
-7.6289e-18
-7.63753e-18
-7.62907e-18
-7.63158e-18
-7.62095e-18
-7.63576e-18
-7.6226e-18
-7.62311e-18
-7.61615e-18
-7.62296e-18
-7.61163e-18
-7.61039e-18
-7.59899e-18
-7.60126e-18
-7.5836e-18
-7.58657e-18
-7.57713e-18
-7.57752e-18
-7.5671e-18
-7.56704e-18
-7.55749e-18
-7.55787e-18
-7.54884e-18
-7.54879e-18
-7.5432e-18
-7.54107e-18
-7.53574e-18
-7.5332e-18
-7.53031e-18
-7.53234e-18
-7.52001e-18
-7.53108e-18
-7.51842e-18
-7.52107e-18
-7.52056e-18
-7.52516e-18
-7.51636e-18
-7.51891e-18
-7.514e-18
-7.52138e-18
-7.51227e-18
-7.52199e-18
-7.50896e-18
-7.51268e-18
-7.50144e-18
-7.49819e-18
-7.63228e-18
-7.63424e-18
-7.63156e-18
-7.62996e-18
-7.63471e-18
-7.6315e-18
-7.63625e-18
-7.62469e-18
-7.6355e-18
-7.62479e-18
-7.62772e-18
-7.61642e-18
-7.62166e-18
-7.60757e-18
-7.61205e-18
-7.59955e-18
-7.60036e-18
-7.58651e-18
-7.58848e-18
-7.57953e-18
-7.57922e-18
-7.5677e-18
-7.56818e-18
-7.55791e-18
-7.55721e-18
-7.54914e-18
-7.54907e-18
-7.54262e-18
-7.53929e-18
-7.53345e-18
-7.53044e-18
-7.53124e-18
-7.53266e-18
-7.52347e-18
-7.52835e-18
-7.51971e-18
-7.52183e-18
-7.52151e-18
-7.5261e-18
-7.51783e-18
-7.51684e-18
-7.51617e-18
-7.52188e-18
-7.51185e-18
-7.5197e-18
-7.51214e-18
-7.51305e-18
-7.50258e-18
-7.63093e-18
-7.633e-18
-7.63405e-18
-7.63747e-18
-7.63449e-18
-7.63132e-18
-7.63656e-18
-7.62662e-18
-7.63478e-18
-7.62271e-18
-7.62947e-18
-7.61656e-18
-7.62567e-18
-7.60795e-18
-7.61318e-18
-7.60356e-18
-7.5983e-18
-7.5886e-18
-7.58783e-18
-7.58083e-18
-7.58033e-18
-7.5672e-18
-7.56677e-18
-7.55825e-18
-7.55793e-18
-7.54937e-18
-7.54908e-18
-7.54071e-18
-7.5379e-18
-7.53248e-18
-7.529e-18
-7.53247e-18
-7.52851e-18
-7.52677e-18
-7.52578e-18
-7.5225e-18
-7.52099e-18
-7.51759e-18
-7.52488e-18
-7.52336e-18
-7.51926e-18
-7.51603e-18
-7.52154e-18
-7.511e-18
-7.51881e-18
-7.51114e-18
-7.50697e-18
-7.63888e-18
-7.6321e-18
-7.63221e-18
-7.63666e-18
-7.63305e-18
-7.63386e-18
-7.6311e-18
-7.62622e-18
-7.6395e-18
-7.62678e-18
-7.62538e-18
-7.61622e-18
-7.62823e-18
-7.6053e-18
-7.61408e-18
-7.6046e-18
-7.59821e-18
-7.58674e-18
-7.58756e-18
-7.57917e-18
-7.57959e-18
-7.56757e-18
-7.56544e-18
-7.55851e-18
-7.55966e-18
-7.55018e-18
-7.54914e-18
-7.54265e-18
-7.53944e-18
-7.53312e-18
-7.53073e-18
-7.5299e-18
-7.52856e-18
-7.52298e-18
-7.52486e-18
-7.51888e-18
-7.52399e-18
-7.51871e-18
-7.52563e-18
-7.52632e-18
-7.51569e-18
-7.51116e-18
-7.52163e-18
-7.51992e-18
-7.52112e-18
-7.51321e-18
-7.63408e-18
-7.63236e-18
-7.6271e-18
-7.63592e-18
-7.63553e-18
-7.63154e-18
-7.63485e-18
-7.62479e-18
-7.63361e-18
-7.6221e-18
-7.62572e-18
-7.61573e-18
-7.62542e-18
-7.60961e-18
-7.61135e-18
-7.60122e-18
-7.59941e-18
-7.58389e-18
-7.58831e-18
-7.57936e-18
-7.57801e-18
-7.56975e-18
-7.5648e-18
-7.5587e-18
-7.55891e-18
-7.55185e-18
-7.54957e-18
-7.54295e-18
-7.53909e-18
-7.53403e-18
-7.53116e-18
-7.52738e-18
-7.5299e-18
-7.5214e-18
-7.52682e-18
-7.51774e-18
-7.51984e-18
-7.52407e-18
-7.52703e-18
-7.52128e-18
-7.52167e-18
-7.51729e-18
-7.5221e-18
-7.51652e-18
-7.52194e-18
-7.62997e-18
-7.63088e-18
-7.62667e-18
-7.63406e-18
-7.63414e-18
-7.62358e-18
-7.63654e-18
-7.62595e-18
-7.63007e-18
-7.62343e-18
-7.62283e-18
-7.61694e-18
-7.62588e-18
-7.60975e-18
-7.6106e-18
-7.60183e-18
-7.59916e-18
-7.58587e-18
-7.58883e-18
-7.58011e-18
-7.57774e-18
-7.56783e-18
-7.56851e-18
-7.55915e-18
-7.56009e-18
-7.55035e-18
-7.54939e-18
-7.54168e-18
-7.53967e-18
-7.53739e-18
-7.5319e-18
-7.52888e-18
-7.52975e-18
-7.52406e-18
-7.52701e-18
-7.51961e-18
-7.51973e-18
-7.51898e-18
-7.5227e-18
-7.52296e-18
-7.52274e-18
-7.52115e-18
-7.52294e-18
-7.51161e-18
-7.52919e-18
-7.63355e-18
-7.63832e-18
-7.63452e-18
-7.63836e-18
-7.63226e-18
-7.62902e-18
-7.6366e-18
-7.62641e-18
-7.63345e-18
-7.62855e-18
-7.62477e-18
-7.61384e-18
-7.6259e-18
-7.60647e-18
-7.60932e-18
-7.6033e-18
-7.59837e-18
-7.58679e-18
-7.58881e-18
-7.58201e-18
-7.57814e-18
-7.56556e-18
-7.56827e-18
-7.56043e-18
-7.55919e-18
-7.54973e-18
-7.54927e-18
-7.54343e-18
-7.54239e-18
-7.53615e-18
-7.52866e-18
-7.5291e-18
-7.52965e-18
-7.52479e-18
-7.52426e-18
-7.52108e-18
-7.52414e-18
-7.51724e-18
-7.52651e-18
-7.52104e-18
-7.51728e-18
-7.51842e-18
-7.52384e-18
-7.51218e-18
-7.52436e-18
-7.63505e-18
-7.63838e-18
-7.63739e-18
-7.64094e-18
-7.63382e-18
-7.63114e-18
-7.63417e-18
-7.62935e-18
-7.63975e-18
-7.62688e-18
-7.62147e-18
-7.62002e-18
-7.62525e-18
-7.61194e-18
-7.61196e-18
-7.60058e-18
-7.60121e-18
-7.58879e-18
-7.58855e-18
-7.57938e-18
-7.5762e-18
-7.56891e-18
-7.5666e-18
-7.56223e-18
-7.55895e-18
-7.55055e-18
-7.54948e-18
-7.54602e-18
-7.5412e-18
-7.53644e-18
-7.5302e-18
-7.52694e-18
-7.52721e-18
-7.5237e-18
-7.52542e-18
-7.51864e-18
-7.52146e-18
-7.51895e-18
-7.52743e-18
-7.52353e-18
-7.51626e-18
-7.5131e-18
-7.52109e-18
-7.51545e-18
-7.52387e-18
-7.63565e-18
-7.63707e-18
-7.63353e-18
-7.63491e-18
-7.63645e-18
-7.63236e-18
-7.62987e-18
-7.62704e-18
-7.63896e-18
-7.62519e-18
-7.62623e-18
-7.61886e-18
-7.62733e-18
-7.61202e-18
-7.61289e-18
-7.59987e-18
-7.60117e-18
-7.58892e-18
-7.58777e-18
-7.57793e-18
-7.57608e-18
-7.56834e-18
-7.56556e-18
-7.56106e-18
-7.55934e-18
-7.55219e-18
-7.55e-18
-7.54534e-18
-7.53886e-18
-7.53409e-18
-7.53051e-18
-7.52538e-18
-7.526e-18
-7.5226e-18
-7.52312e-18
-7.5185e-18
-7.52233e-18
-7.5194e-18
-7.52496e-18
-7.51997e-18