/*--------------------------------*- C++ -*----------------------------------*\
  =========                 |
  \\      /  F ield         | OpenFOAM: The Open Source CFD Toolbox
   \\    /   O peration     | Website:  https://openfoam.org
    \\  /    A nd           | Version:  7
     \\/     M anipulation  |
\*---------------------------------------------------------------------------*/
FoamFile
{
    version     2.0;
    format      ascii;
    class       volVectorField;
    location    "92000";
    object      U;
}
// * * * * * * * * * * * * * * * * * * * * * * * * * * * * * * * * * * * * * //

dimensions      [0 1 -1 0 0 0 0];

internalField   nonuniform List<vector> 
4838
(
(1.06479e-18 -7.52156e-19 -0.0158003)
(9.98758e-19 -9.26909e-19 -0.0158101)
(1.19395e-18 -7.76888e-19 -0.0158194)
(1.32555e-18 -5.7486e-19 -0.0158281)
(1.32023e-18 -7.4882e-19 -0.0158363)
(8.8161e-19 -9.40986e-19 -0.0158439)
(3.39723e-19 -1.12225e-18 -0.015851)
(2.15381e-19 -1.01904e-18 -0.0158576)
(3.62914e-19 -8.07464e-19 -0.0158637)
(2.39314e-19 -6.58372e-19 -0.0158694)
(2.53976e-19 -5.20099e-19 -0.0158746)
(5.99748e-19 -6.68633e-19 -0.0158793)
(5.46742e-19 -9.58099e-19 -0.0158836)
(5.07141e-19 -1.20869e-18 -0.0158876)
(1.2611e-18 -1.28699e-18 -0.0158911)
(2.26339e-18 -1.71327e-18 -0.0158942)
(2.29476e-18 -2.34228e-18 -0.015897)
(1.49161e-18 -3.2501e-18 -0.0158994)
(1.09936e-18 -3.80529e-18 -0.0159015)
(5.95009e-19 -3.99881e-18 -0.0159033)
(-3.8332e-19 -4.06671e-18 -0.0159047)
(-6.2978e-19 -4.00348e-18 -0.0159059)
(-6.23114e-19 -3.94788e-18 -0.0159068)
(-9.89322e-19 -4.0114e-18 -0.0159073)
(-1.41639e-18 -4.11088e-18 -0.0159076)
(-2.04886e-18 -3.97927e-18 -0.0159076)
(-2.58055e-18 -3.8297e-18 -0.0159073)
(-2.8866e-18 -3.20241e-18 -0.0159068)
(-3.23846e-18 -2.7111e-18 -0.0159059)
(-3.25755e-18 -2.28236e-18 -0.0159047)
(-3.55097e-18 -1.72848e-18 -0.0159033)
(-4.12783e-18 -1.04386e-18 -0.0159015)
(-4.0147e-18 -4.85814e-19 -0.0158994)
(-3.7236e-18 -1.10654e-21 -0.015897)
(-3.59453e-18 3.43338e-19 -0.0158942)
(-3.21111e-18 8.19851e-19 -0.0158911)
(-2.46653e-18 8.54696e-19 -0.0158876)
(-1.87017e-18 8.27661e-19 -0.0158836)
(-1.78433e-18 6.22193e-19 -0.0158793)
(-1.84428e-18 4.92758e-19 -0.0158746)
(-1.77788e-18 5.66507e-19 -0.0158694)
(-1.79963e-18 7.64599e-19 -0.0158637)
(-1.4559e-18 8.36531e-19 -0.0158576)
(-1.00066e-18 3.70086e-19 -0.015851)
(-1.40398e-18 2.25289e-19 -0.0158439)
(-1.77829e-18 2.99536e-19 -0.0158363)
(-1.41898e-18 2.39961e-19 -0.0158281)
(-9.76693e-19 -8.86152e-20 -0.0158194)
(-7.43423e-19 -3.24255e-19 -0.0158101)
(-6.41864e-19 -2.20511e-19 -0.0158003)
(5.33193e-19 -9.03296e-19 -0.0157833)
(7.12434e-19 -1.05896e-18 -0.0157931)
(9.60871e-19 -1.08236e-18 -0.0158025)
(1.23196e-18 -1.06723e-18 -0.0158115)
(1.38446e-18 -1.15641e-18 -0.0158201)
(1.15535e-18 -1.3458e-18 -0.0158281)
(6.64087e-19 -1.35539e-18 -0.0158357)
(3.83089e-19 -1.07943e-18 -0.0158427)
(2.46371e-19 -9.13674e-19 -0.0158493)
(1.25728e-19 -1.02946e-18 -0.0158553)
(2.06254e-19 -9.45861e-19 -0.0158609)
(4.6551e-19 -8.74318e-19 -0.0158661)
(4.04054e-19 -9.42935e-19 -0.0158707)
(3.02344e-19 -1.06132e-18 -0.015875)
(6.42553e-19 -1.14461e-18 -0.0158789)
(1.19326e-18 -1.59452e-18 -0.0158823)
(9.83674e-19 -2.5152e-18 -0.0158854)
(5.21351e-19 -3.31273e-18 -0.0158881)
(7.60478e-19 -3.57356e-18 -0.0158904)
(8.92511e-19 -3.70973e-18 -0.0158924)
(4.11348e-19 -3.5643e-18 -0.015894)
(-1.38493e-19 -3.29726e-18 -0.0158953)
(-7.00301e-19 -3.3143e-18 -0.0158962)
(-1.43304e-18 -3.58522e-18 -0.0158969)
(-1.76183e-18 -3.73197e-18 -0.0158972)
(-2.0604e-18 -3.6358e-18 -0.0158972)
(-1.98555e-18 -3.12031e-18 -0.0158969)
(-2.04979e-18 -2.58395e-18 -0.0158962)
(-2.77678e-18 -2.09685e-18 -0.0158953)
(-3.06329e-18 -1.60851e-18 -0.015894)
(-3.36073e-18 -1.36884e-18 -0.0158924)
(-3.96324e-18 -8.72513e-19 -0.0158904)
(-4.22866e-18 -3.19066e-19 -0.0158881)
(-3.89502e-18 -1.63595e-19 -0.0158854)
(-3.18301e-18 4.59372e-22 -0.0158823)
(-2.63235e-18 2.56598e-19 -0.0158789)
(-2.35606e-18 3.05904e-19 -0.015875)
(-2.03065e-18 -5.18006e-20 -0.0158708)
(-1.73756e-18 -2.24065e-19 -0.0158661)
(-1.48586e-18 -3.66058e-19 -0.0158609)
(-1.46428e-18 -2.91432e-19 -0.0158553)
(-1.61168e-18 -1.48966e-19 -0.0158493)
(-1.47294e-18 2.18131e-19 -0.0158427)
(-1.40967e-18 6.93661e-20 -0.0158357)
(-1.679e-18 -3.21293e-20 -0.0158281)
(-1.62494e-18 5.45331e-20 -0.0158201)
(-1.12447e-18 1.17536e-20 -0.0158115)
(-7.19483e-19 -1.36869e-19 -0.0158025)
(-3.97159e-19 -2.15963e-19 -0.0157931)
(-3.92096e-19 -2.53481e-19 -0.0157833)
(-9.13375e-20 -6.21254e-19 -0.0157647)
(3.12968e-19 -5.91664e-19 -0.0157749)
(6.43865e-19 -5.32471e-19 -0.0157847)
(8.49756e-19 -6.85126e-19 -0.015794)
(1.0272e-18 -7.85645e-19 -0.0158029)
(1.10151e-18 -1.25599e-18 -0.0158113)
(1.00027e-18 -1.38297e-18 -0.0158192)
(7.88509e-19 -1.41103e-18 -0.0158267)
(3.95777e-19 -1.55662e-18 -0.0158336)
(4.81574e-20 -1.68932e-18 -0.0158401)
(1.10243e-19 -1.42137e-18 -0.0158461)
(4.41016e-19 -1.09252e-18 -0.0158516)
(3.57018e-19 -1.16733e-18 -0.0158567)
(9.69982e-20 -1.23408e-18 -0.0158613)
(2.52151e-19 -1.27576e-18 -0.0158654)
(5.58229e-19 -1.55173e-18 -0.0158692)
(4.8258e-19 -1.96934e-18 -0.0158725)
(2.80424e-19 -2.13682e-18 -0.0158755)
(5.98782e-19 -2.24957e-18 -0.015878)
(8.17623e-19 -2.31066e-18 -0.0158802)
(4.16498e-19 -2.49314e-18 -0.015882)
(-1.54204e-19 -2.67651e-18 -0.0158834)
(-9.71043e-19 -2.83509e-18 -0.0158844)
(-1.68226e-18 -2.75082e-18 -0.0158851)
(-1.73606e-18 -2.58745e-18 -0.0158855)
(-1.52344e-18 -2.75377e-18 -0.0158855)
(-1.50944e-18 -2.61611e-18 -0.0158851)
(-2.01393e-18 -2.6002e-18 -0.0158844)
(-2.56465e-18 -2.229e-18 -0.0158834)
(-2.93465e-18 -1.74347e-18 -0.015882)
(-3.40546e-18 -1.40829e-18 -0.0158802)
(-3.70129e-18 -1.01194e-18 -0.015878)
(-3.76698e-18 -2.85152e-19 -0.0158755)
(-3.54417e-18 1.30824e-19 -0.0158725)
(-3.03629e-18 3.32269e-19 -0.0158692)
(-2.79684e-18 3.21318e-19 -0.0158654)
(-2.72967e-18 2.13773e-19 -0.0158613)
(-2.22743e-18 -2.09088e-19 -0.0158567)
(-1.8061e-18 -4.54127e-19 -0.0158516)
(-1.68838e-18 -5.98603e-19 -0.0158461)
(-1.53054e-18 -7.31594e-19 -0.0158401)
(-1.1612e-18 -6.96942e-19 -0.0158336)
(-9.78445e-19 -4.61871e-19 -0.0158267)
(-1.26919e-18 -3.47468e-19 -0.0158193)
(-1.44562e-18 -1.3625e-19 -0.0158113)
(-1.2022e-18 9.26723e-20 -0.0158029)
(-7.40644e-19 3.68536e-21 -0.015794)
(-3.66261e-19 -1.85697e-19 -0.0157847)
(-2.74007e-19 -8.69969e-20 -0.0157749)
(-6.48081e-19 -6.32114e-20 -0.0157647)
(-1.02183e-19 -7.77711e-20 -0.0157451)
(8.74696e-21 8.80105e-22 -0.0157558)
(2.63076e-19 1.77043e-19 -0.0157659)
(5.45789e-19 1.21333e-19 -0.0157756)
(5.10142e-19 -1.3068e-19 -0.0157848)
(4.51989e-19 -6.84659e-19 -0.0157936)
(5.81803e-19 -1.06251e-18 -0.0158019)
(4.64093e-19 -1.53966e-18 -0.0158097)
(2.73394e-19 -1.92275e-18 -0.015817)
(2.97922e-19 -1.79395e-18 -0.0158239)
(5.37249e-19 -1.30408e-18 -0.0158302)
(5.43497e-19 -1.23033e-18 -0.0158361)
(3.33711e-19 -1.60497e-18 -0.0158415)
(1.67562e-19 -1.73362e-18 -0.0158464)
(7.01445e-20 -1.51457e-18 -0.0158509)
(3.34981e-19 -1.46946e-18 -0.0158549)
(3.96663e-19 -1.44245e-18 -0.0158585)
(1.36603e-19 -1.5044e-18 -0.0158617)
(4.73193e-19 -1.49775e-18 -0.0158644)
(7.48524e-19 -1.69092e-18 -0.0158668)
(1.95058e-19 -1.89955e-18 -0.0158687)
(-3.95891e-19 -2.33609e-18 -0.0158703)
(-7.44633e-19 -2.61465e-18 -0.0158714)
(-1.26426e-18 -2.31422e-18 -0.0158722)
(-2.00165e-18 -2.06801e-18 -0.0158726)
(-2.31995e-18 -2.29557e-18 -0.0158726)
(-2.04514e-18 -2.65909e-18 -0.0158722)
(-1.92925e-18 -2.7473e-18 -0.0158714)
(-2.17434e-18 -2.34468e-18 -0.0158703)
(-2.60196e-18 -2.05171e-18 -0.0158687)
(-3.08645e-18 -1.77831e-18 -0.0158668)
(-3.19292e-18 -1.30662e-18 -0.0158644)
(-3.30819e-18 -6.3869e-19 -0.0158617)
(-3.35503e-18 -1.32999e-19 -0.0158585)
(-2.99833e-18 2.04893e-19 -0.0158549)
(-2.86001e-18 2.98657e-19 -0.0158509)
(-2.84944e-18 4.2375e-19 -0.0158464)
(-2.377e-18 4.18466e-19 -0.0158415)
(-1.82407e-18 2.31275e-19 -0.0158361)
(-1.51086e-18 1.45454e-19 -0.0158302)
(-1.11678e-18 1.75606e-19 -0.0158239)
(-8.27873e-19 2.35884e-19 -0.015817)
(-1.03021e-18 -3.02392e-20 -0.0158097)
(-1.23866e-18 -1.84571e-19 -0.0158019)
(-1.06113e-18 -1.65633e-19 -0.0157936)
(-8.54553e-19 -8.64513e-20 -0.0157848)
(-6.09836e-19 -2.87741e-19 -0.0157756)
(-2.53235e-19 -6.08978e-19 -0.0157659)
(-2.87804e-19 -5.89049e-19 -0.0157558)
(-5.22886e-19 -3.92219e-19 -0.0157451)
(-3.0762e-20 1.1397e-19 -0.0157245)
(8.75176e-20 2.72706e-19 -0.0157356)
(1.90625e-19 3.68674e-19 -0.0157462)
(2.30654e-19 2.41044e-19 -0.0157562)
(1.82798e-19 4.15482e-20 -0.0157658)
(-1.98127e-20 -2.50908e-19 -0.015775)
(-1.33486e-20 -7.12249e-19 -0.0157836)
(-5.27805e-20 -9.97674e-19 -0.0157918)
(4.51178e-20 -1.08802e-18 -0.0157995)
(3.65849e-19 -1.01466e-18 -0.0158067)
(4.4029e-19 -9.32447e-19 -0.0158134)
(1.38445e-19 -1.33438e-18 -0.0158196)
(-8.47532e-20 -1.83228e-18 -0.0158253)
(2.60771e-19 -1.99327e-18 -0.0158305)
(4.50973e-19 -1.53342e-18 -0.0158353)
(5.28766e-19 -1.27827e-18 -0.0158396)
(5.14338e-19 -1.39236e-18 -0.0158434)
(2.00125e-19 -1.4377e-18 -0.0158468)
(2.92736e-19 -1.36445e-18 -0.0158498)
(5.15489e-19 -1.82178e-18 -0.0158523)
(-8.57767e-20 -2.20872e-18 -0.0158543)
(-9.02162e-19 -2.59814e-18 -0.015856)
(-9.60384e-19 -3.01353e-18 -0.0158572)
(-1.12289e-18 -3.05773e-18 -0.0158581)
(-1.91163e-18 -2.74716e-18 -0.0158585)
(-2.45825e-18 -2.38993e-18 -0.0158585)
(-2.226e-18 -2.21001e-18 -0.0158581)
(-1.83702e-18 -2.04929e-18 -0.0158572)
(-2.04284e-18 -1.76772e-18 -0.015856)
(-2.69965e-18 -1.61452e-18 -0.0158543)
(-2.97995e-18 -1.37102e-18 -0.0158523)
(-2.77303e-18 -1.04983e-18 -0.0158498)
(-2.8195e-18 -8.68759e-19 -0.0158468)
(-2.80881e-18 -3.8348e-19 -0.0158434)
(-2.61722e-18 1.56609e-19 -0.0158396)
(-2.65668e-18 6.03457e-19 -0.0158353)
(-2.48229e-18 1.04434e-18 -0.0158305)
(-1.95202e-18 1.21876e-18 -0.0158253)
(-1.57373e-18 9.65403e-19 -0.0158196)
(-1.23684e-18 5.98989e-19 -0.0158134)
(-8.61064e-19 6.31263e-19 -0.0158067)
(-1.0903e-18 5.43827e-19 -0.0157995)
(-1.43128e-18 3.29213e-19 -0.0157918)
(-1.22113e-18 3.08416e-19 -0.0157836)
(-9.15988e-19 3.15032e-19 -0.015775)
(-8.3668e-19 2.0986e-19 -0.0157659)
(-5.80257e-19 1.17237e-19 -0.0157562)
(-1.56328e-19 -1.03621e-19 -0.0157462)
(-8.73994e-20 -4.63636e-19 -0.0157356)
(-2.53889e-19 -4.8832e-19 -0.0157245)
(-1.04545e-19 1.28785e-19 -0.015703)
(-4.41001e-20 2.64983e-19 -0.0157145)
(9.14472e-20 9.59195e-20 -0.0157255)
(2.28882e-19 -7.99076e-21 -0.015736)
(1.54973e-19 -1.45632e-19 -0.015746)
(-2.52807e-19 -4.15016e-19 -0.0157555)
(-2.52708e-19 -7.03329e-19 -0.0157645)
(-1.41487e-19 -6.64864e-19 -0.015773)
(-2.35466e-19 -5.27654e-19 -0.015781)
(3.03053e-20 -5.70805e-19 -0.0157885)
(1.78379e-19 -6.55918e-19 -0.0157956)
(-2.65674e-19 -1.05327e-18 -0.0158021)
(-5.25374e-19 -1.44465e-18 -0.0158081)
(1.80155e-19 -1.28148e-18 -0.0158136)
(6.87922e-19 -9.06707e-19 -0.0158186)
(4.50614e-19 -8.95178e-19 -0.0158232)
(3.42706e-19 -1.44639e-18 -0.0158272)
(2.59348e-19 -1.70165e-18 -0.0158308)
(4.77021e-20 -1.90208e-18 -0.015834)
(-3.39111e-20 -2.24464e-18 -0.0158367)
(-4.2455e-19 -2.56051e-18 -0.0158389)
(-1.26517e-18 -2.6387e-18 -0.0158406)
(-1.35575e-18 -2.80238e-18 -0.015842)
(-1.03491e-18 -2.86715e-18 -0.0158429)
(-1.40355e-18 -2.66633e-18 -0.0158433)
(-1.94082e-18 -2.20782e-18 -0.0158433)
(-1.80916e-18 -1.72042e-18 -0.0158429)
(-1.54718e-18 -1.51841e-18 -0.015842)
(-1.94279e-18 -1.46792e-18 -0.0158406)
(-2.49642e-18 -1.06591e-18 -0.0158389)
(-2.67743e-18 -4.7984e-19 -0.0158367)
(-2.80228e-18 -1.35232e-19 -0.015834)
(-2.79022e-18 -1.34023e-19 -0.0158308)
(-2.3616e-18 6.4197e-20 -0.0158272)
(-2.02994e-18 2.57507e-19 -0.0158232)
(-1.95725e-18 6.88293e-19 -0.0158186)
(-1.97222e-18 1.1925e-18 -0.0158136)
(-2.05262e-18 1.44788e-18 -0.0158081)
(-2.05775e-18 1.05748e-18 -0.0158021)
(-1.41727e-18 4.98452e-19 -0.0157956)
(-1.04308e-18 -2.54072e-20 -0.0157885)
(-1.38709e-18 -1.7479e-19 -0.015781)
(-1.258e-18 -1.54676e-19 -0.015773)
(-8.43315e-19 -1.00861e-19 -0.0157645)
(-7.79098e-19 2.2219e-20 -0.0157555)
(-6.52921e-19 1.17651e-19 -0.015746)
(-1.89212e-19 2.23799e-19 -0.015736)
(-7.45083e-20 3.11356e-19 -0.0157255)
(-3.70404e-19 9.3147e-20 -0.0157145)
(-5.96408e-19 -2.65118e-19 -0.015703)
(-9.54644e-20 3.87738e-19 -0.0156807)
(-2.07993e-19 4.48684e-19 -0.0156926)
(-2.77337e-19 2.39597e-19 -0.015704)
(-6.87405e-20 1.09902e-19 -0.0157149)
(9.39867e-20 -2.57951e-19 -0.0157252)
(-3.28878e-19 -5.92536e-19 -0.0157351)
(-4.37251e-19 -6.3253e-19 -0.0157445)
(-6.0968e-20 -7.05779e-19 -0.0157533)
(-1.01444e-19 -8.04635e-19 -0.0157617)
(-7.89593e-20 -7.09323e-19 -0.0157695)
(-5.36929e-21 -5.9699e-19 -0.0157768)
(-5.09715e-19 -7.00029e-19 -0.0157836)
(-7.03486e-19 -6.88054e-19 -0.0157899)
(1.7023e-19 -2.03179e-19 -0.0157957)
(6.65419e-19 -1.87591e-19 -0.015801)
(3.84515e-20 -5.76301e-19 -0.0158058)
(-2.75174e-19 -1.32185e-18 -0.0158101)
(-1.95159e-19 -1.76561e-18 -0.0158139)
(-1.76694e-19 -2.2324e-18 -0.0158172)
(-6.17532e-20 -2.46995e-18 -0.01582)
(-3.46233e-19 -2.67273e-18 -0.0158224)
(-1.16852e-18 -2.47271e-18 -0.0158242)
(-1.36078e-18 -1.97252e-18 -0.0158256)
(-1.08503e-18 -1.66961e-18 -0.0158266)
(-1.31497e-18 -1.84125e-18 -0.015827)
(-1.59614e-18 -1.80195e-18 -0.015827)
(-1.5857e-18 -1.3375e-18 -0.0158266)
(-1.66797e-18 -1.19676e-18 -0.0158256)
(-1.77131e-18 -1.20259e-18 -0.0158242)
(-1.88341e-18 -6.69804e-19 -0.0158224)
(-2.19455e-18 -1.10241e-19 -0.01582)
(-2.57783e-18 1.9741e-19 -0.0158172)
(-2.6282e-18 3.02039e-19 -0.0158139)
(-2.28834e-18 3.65793e-19 -0.0158101)
(-1.93466e-18 2.28366e-19 -0.0158058)
(-1.76307e-18 3.8025e-19 -0.015801)
(-1.87412e-18 3.1071e-19 -0.0157957)
(-2.22922e-18 6.02339e-19 -0.0157899)
(-2.2972e-18 5.3506e-19 -0.0157836)
(-1.79735e-18 5.56116e-19 -0.0157768)
(-1.5169e-18 -1.79401e-19 -0.0157695)
(-1.35782e-18 -4.63123e-19 -0.0157617)
(-1.08177e-18 -4.41702e-19 -0.0157533)
(-8.03825e-19 -5.81022e-19 -0.0157445)
(-6.3375e-19 -7.32484e-19 -0.0157351)
(-2.61167e-19 -5.10281e-19 -0.0157253)
(4.97077e-20 -2.41256e-19 -0.0157149)
(-2.36027e-19 -4.45133e-20 -0.015704)
(-7.21592e-19 -2.82677e-20 -0.0156926)
(-8.26698e-19 -3.57433e-19 -0.0156807)
(-8.67759e-20 5.3285e-19 -0.0156576)
(-2.45518e-19 5.84187e-19 -0.0156699)
(-4.35832e-19 3.74695e-19 -0.0156817)
(-5.30003e-19 1.01403e-19 -0.0156929)
(-3.51561e-19 -2.59932e-19 -0.0157037)
(-4.04412e-19 -2.64388e-19 -0.0157139)
(-7.02824e-19 -1.73697e-19 -0.0157236)
(-6.31294e-19 -3.86112e-19 -0.0157327)
(-3.15784e-19 -6.83145e-19 -0.0157414)
(1.00665e-19 -6.44806e-19 -0.0157496)
(3.04732e-19 -7.24126e-19 -0.0157572)
(-2.14157e-19 -6.60445e-19 -0.0157643)
(-5.31815e-19 -1.71607e-19 -0.0157708)
(3.5235e-20 1.04002e-19 -0.0157769)
(3.50691e-19 -4.49567e-19 -0.0157824)
(-4.05102e-19 -8.92703e-19 -0.0157874)
(-8.39638e-19 -1.12163e-18 -0.0157919)
(-7.36281e-19 -1.3126e-18 -0.0157959)
(-7.36017e-19 -1.55949e-18 -0.0157994)
(-4.8492e-19 -1.86119e-18 -0.0158024)
(-3.25365e-19 -2.18499e-18 -0.0158048)
(-5.42935e-19 -1.98813e-18 -0.0158068)
(-6.52656e-19 -1.55271e-18 -0.0158083)
(-1.00559e-18 -1.21304e-18 -0.0158093)
(-1.6449e-18 -1.31449e-18 -0.0158098)
(-1.53848e-18 -1.42346e-18 -0.0158098)
(-1.27816e-18 -1.07095e-18 -0.0158093)
(-1.49293e-18 -8.26358e-19 -0.0158083)
(-1.48853e-18 -6.63384e-19 -0.0158068)
(-1.51243e-18 -2.95136e-19 -0.0158048)
(-2.02695e-18 -2.23723e-20 -0.0158024)
(-2.63204e-18 -8.74139e-20 -0.0157994)
(-2.69953e-18 -9.34644e-21 -0.0157959)
(-2.35273e-18 1.63271e-19 -0.0157919)
(-1.93559e-18 9.93602e-20 -0.0157874)
(-1.95457e-18 3.24627e-20 -0.0157824)
(-2.09407e-18 -2.00585e-19 -0.0157769)
(-2.19784e-18 -9.18692e-20 -0.0157708)
(-2.04381e-18 1.8224e-19 -0.0157643)
(-1.73768e-18 4.0919e-19 -0.0157572)
(-1.7138e-18 1.04103e-19 -0.0157496)
(-1.31092e-18 -4.75126e-21 -0.0157414)
(-9.54194e-19 1.84964e-21 -0.0157328)
(-7.62505e-19 -2.85699e-19 -0.0157236)
(-3.9857e-19 -7.32923e-19 -0.0157139)
(1.33061e-19 -9.26987e-19 -0.0157037)
(1.57603e-19 -8.34957e-19 -0.0156929)
(-4.57138e-19 -5.11132e-19 -0.0156817)
(-1.0323e-18 -3.18123e-19 -0.0156699)
(-1.05041e-18 -3.22772e-19 -0.0156576)
(1.81197e-19 2.62757e-19 -0.0156337)
(-1.98971e-19 1.23618e-19 -0.0156465)
(-5.10124e-19 -2.39077e-19 -0.0156586)
(-6.48046e-19 -3.70503e-19 -0.0156702)
(-4.00677e-19 -2.21837e-19 -0.0156813)
(-2.52738e-19 -2.68187e-19 -0.0156918)
(-5.67071e-19 -5.30829e-19 -0.0157019)
(-8.55806e-19 -4.38096e-19 -0.0157114)
(-8.18611e-19 -5.27393e-19 -0.0157203)
(-4.4749e-19 -8.13889e-19 -0.0157288)
(1.39782e-19 -1.1474e-18 -0.0157367)
(2.90426e-19 -9.10793e-19 -0.015744)
(-1.79845e-19 -3.87236e-19 -0.0157509)
(-3.81576e-19 -3.75409e-19 -0.0157572)
(-7.3172e-20 -8.05684e-19 -0.0157629)
(-2.76888e-19 -9.0016e-19 -0.0157681)
(-7.25225e-19 -6.06315e-19 -0.0157728)
(-7.85718e-19 -7.42015e-19 -0.015777)
(-9.16379e-19 -6.57814e-19 -0.0157806)
(-8.78947e-19 -6.01961e-19 -0.0157838)
(-5.67902e-19 -8.71044e-19 -0.0157863)
(-6.02478e-19 -8.75463e-19 -0.0157884)
(-6.24494e-19 -9.82182e-19 -0.01579)
(-8.70703e-19 -9.53618e-19 -0.015791)
(-1.61264e-18 -8.56303e-19 -0.0157915)
(-1.43607e-18 -8.52329e-19 -0.0157915)
(-1.04528e-18 -6.62218e-19 -0.015791)
(-1.32002e-18 -4.39709e-19 -0.01579)
(-1.27681e-18 -2.90597e-19 -0.0157884)
(-1.37936e-18 -4.02926e-19 -0.0157863)
(-2.29823e-18 -4.00866e-19 -0.0157838)
(-2.87103e-18 -3.02477e-19 -0.0157806)
(-2.47831e-18 -1.00927e-20 -0.015777)
(-2.09393e-18 2.08292e-19 -0.0157728)
(-2.00518e-18 1.92589e-19 -0.0157681)
(-2.16824e-18 -3.37237e-20 -0.0157629)
(-2.15008e-18 -1.54784e-19 -0.0157572)
(-1.96626e-18 -1.25167e-19 -0.0157509)
(-1.71075e-18 2.03194e-19 -0.015744)
(-1.75661e-18 2.66373e-19 -0.0157367)
(-1.60648e-18 1.89454e-19 -0.0157288)
(-9.2805e-19 1.62973e-19 -0.0157203)
(-8.56926e-19 1.89297e-19 -0.0157114)
(-9.02871e-19 6.40218e-20 -0.0157019)
(-4.45081e-19 -3.03915e-19 -0.0156918)
(7.20659e-20 -8.48305e-19 -0.0156813)
(-3.16289e-20 -1.17774e-18 -0.0156702)
(-7.26443e-19 -1.04941e-18 -0.0156586)
(-1.1107e-18 -7.69322e-19 -0.0156465)
(-9.00823e-19 -5.9705e-19 -0.0156337)
(3.8066e-19 -1.73923e-19 -0.0156092)
(-5.01788e-20 -5.37253e-19 -0.0156223)
(-4.30343e-19 -7.29468e-19 -0.0156347)
(-5.74734e-19 -6.03508e-19 -0.0156467)
(-5.75809e-19 -4.69633e-19 -0.0156581)
(-5.54684e-19 -8.57379e-19 -0.015669)
(-4.55878e-19 -1.20667e-18 -0.0156793)
(-5.31642e-19 -9.57806e-19 -0.0156891)
(-9.07356e-19 -8.87321e-19 -0.0156984)
(-9.10803e-19 -8.5067e-19 -0.0157071)
(-1.48394e-19 -6.87982e-19 -0.0157153)
(4.8462e-19 -3.94751e-19 -0.015723)
(1.53553e-19 -3.79263e-19 -0.01573)
(-3.50197e-19 -4.39037e-19 -0.0157366)
(-1.61898e-19 -5.86004e-19 -0.0157426)
(-1.26822e-19 -4.35517e-19 -0.015748)
(-7.15035e-19 -1.59225e-19 -0.0157529)
(-8.61088e-19 -6.12237e-19 -0.0157572)
(-7.09834e-19 -6.05253e-19 -0.015761)
(-8.66116e-19 -4.39854e-19 -0.0157642)
(-7.29611e-19 -4.75126e-19 -0.0157669)
(-7.32811e-19 -2.23142e-19 -0.0157691)
(-7.69779e-19 -1.24836e-19 -0.0157707)
(-9.02718e-19 -2.79785e-19 -0.0157718)
(-1.62375e-18 -2.6065e-19 -0.0157723)
(-1.40532e-18 -1.54245e-19 -0.0157723)
(-9.02459e-19 -1.97838e-19 -0.0157718)
(-1.17291e-18 -1.26277e-19 -0.0157707)
(-1.4782e-18 -7.47878e-20 -0.0157691)
(-1.81253e-18 -5.60069e-19 -0.0157669)
(-2.29786e-18 -6.81539e-19 -0.0157642)
(-2.42523e-18 -6.395e-20 -0.015761)
(-2.14411e-18 3.26448e-19 -0.0157572)
(-2.10568e-18 3.48978e-19 -0.0157529)
(-2.20976e-18 2.18484e-19 -0.015748)
(-2.33374e-18 1.51928e-19 -0.0157426)
(-2.0907e-18 1.64345e-19 -0.0157366)
(-1.69469e-18 2.1837e-19 -0.01573)
(-1.58567e-18 4.38766e-19 -0.015723)
(-1.75059e-18 8.11001e-20 -0.0157153)
(-1.4236e-18 5.6641e-20 -0.0157071)
(-9.17313e-19 -4.48734e-20 -0.0156984)
(-9.94701e-19 -2.365e-19 -0.0156892)
(-8.94143e-19 -4.09055e-19 -0.0156793)
(-4.52086e-19 -5.6012e-19 -0.015669)
(-1.63497e-19 -9.04672e-19 -0.0156581)
(-3.88434e-19 -1.09081e-18 -0.0156467)
(-8.63722e-19 -1.0715e-18 -0.0156347)
(-9.01039e-19 -8.59071e-19 -0.0156223)
(-6.21927e-19 -7.59382e-19 -0.0156092)
(2.72622e-19 -2.9976e-19 -0.0155839)
(2.0913e-20 -7.18186e-19 -0.0155974)
(-2.61461e-19 -8.09132e-19 -0.0156102)
(-4.51577e-19 -7.24009e-19 -0.0156225)
(-6.68384e-19 -5.7149e-19 -0.0156342)
(-9.27655e-19 -6.78207e-19 -0.0156454)
(-7.46902e-19 -7.77523e-19 -0.0156561)
(-4.49777e-19 -8.50926e-19 -0.0156662)
(-6.61904e-19 -7.51659e-19 -0.0156757)
(-8.14757e-19 -2.78667e-19 -0.0156847)
(-3.14594e-19 2.09078e-19 -0.0156932)
(2.23635e-19 3.51557e-19 -0.0157011)
(-2.48865e-20 6.2968e-20 -0.0157084)
(-5.1698e-19 -2.25353e-19 -0.0157151)
(-2.03693e-19 -4.02552e-19 -0.0157213)
(1.73273e-19 -4.52299e-19 -0.015727)
(-7.71488e-19 -4.82143e-19 -0.015732)
(-1.22774e-18 -8.90091e-19 -0.0157365)
(-7.96507e-19 -8.17827e-19 -0.0157405)
(-7.88227e-19 -7.5978e-19 -0.0157438)
(-4.28297e-19 -6.15718e-19 -0.0157466)
(-3.19343e-19 -3.24965e-19 -0.0157489)
(-7.16911e-19 8.69063e-20 -0.0157505)
(-1.018e-18 -2.69089e-19 -0.0157517)
(-1.56539e-18 -3.78137e-19 -0.0157522)
(-1.41781e-18 -5.2546e-20 -0.0157522)
(-1.02046e-18 -4.14372e-20 -0.0157517)
(-1.2672e-18 -1.47816e-19 -0.0157505)
(-1.79207e-18 -4.46459e-19 -0.0157489)
(-2.12459e-18 -9.26662e-19 -0.0157466)
(-2.0594e-18 -9.77882e-19 -0.0157438)
(-2.04944e-18 -5.51688e-19 -0.0157405)
(-2.15511e-18 -3.49139e-19 -0.0157365)
(-2.30239e-18 -1.67887e-19 -0.015732)
(-2.32185e-18 -1.03436e-19 -0.015727)
(-2.23043e-18 -4.14159e-20 -0.0157213)
(-1.84069e-18 4.59292e-19 -0.0157151)
(-1.48941e-18 4.25059e-19 -0.0157084)
(-1.8057e-18 4.40877e-19 -0.0157011)
(-2.03435e-18 7.25502e-20 -0.0156932)
(-1.36963e-18 -4.81951e-20 -0.0156847)
(-9.9605e-19 -2.81189e-19 -0.0156757)
(-1.15375e-18 -2.77721e-19 -0.0156662)
(-9.07634e-19 -4.13711e-19 -0.0156561)
(-4.41762e-19 -7.62796e-19 -0.0156454)
(-2.29852e-19 -1.12646e-18 -0.0156342)
(-4.23351e-19 -1.12308e-18 -0.0156225)
(-7.3164e-19 -8.66525e-19 -0.0156102)
(-6.72834e-19 -7.75131e-19 -0.0155974)
(-4.5895e-19 -7.30273e-19 -0.0155839)
(9.49171e-20 -2.43706e-19 -0.0155581)
(-1.44064e-19 -5.96255e-19 -0.0155718)
(-3.05961e-19 -6.98534e-19 -0.0155849)
(-2.67622e-19 -8.27194e-19 -0.0155975)
(-3.93275e-19 -6.63896e-19 -0.0156096)
(-8.33931e-19 -7.60164e-19 -0.0156211)
(-1.05993e-18 -6.98879e-19 -0.015632)
(-6.96489e-19 -8.21857e-19 -0.0156424)
(-4.79185e-19 -5.81923e-19 -0.0156523)
(-5.1568e-19 -1.64452e-19 -0.0156615)
(-2.59807e-19 3.02903e-19 -0.0156703)
(1.29287e-19 3.34843e-19 -0.0156784)
(-1.70794e-19 5.41903e-20 -0.0156859)
(-7.3203e-19 -3.78852e-19 -0.0156929)
(-5.86495e-19 -3.97039e-19 -0.0156993)
(-3.27651e-20 -7.05141e-19 -0.0157051)
(-7.38831e-19 -1.00318e-18 -0.0157104)
(-1.1957e-18 -8.58887e-19 -0.015715)
(-7.45589e-19 -4.33753e-19 -0.0157191)
(-7.79569e-19 -4.42401e-19 -0.0157226)
(-4.23758e-19 -3.12887e-19 -0.0157255)
(-6.91043e-20 -5.07525e-19 -0.0157278)
(-6.77767e-19 -2.60774e-19 -0.0157295)
(-1.31696e-18 -5.79323e-19 -0.0157307)
(-1.48835e-18 -8.35423e-19 -0.0157313)
(-1.14875e-18 -5.18662e-19 -0.0157313)
(-9.99169e-19 -1.94196e-19 -0.0157307)
(-1.61759e-18 -3.50824e-19 -0.0157295)
(-2.32712e-18 -7.12345e-19 -0.0157278)
(-2.40417e-18 -1.02214e-18 -0.0157255)
(-2.07403e-18 -1.38126e-18 -0.0157226)
(-2.08522e-18 -1.6215e-18 -0.0157191)
(-2.08689e-18 -1.46616e-18 -0.015715)
(-2.13449e-18 -1.07478e-18 -0.0157104)
(-2.24067e-18 -6.69283e-19 -0.0157051)
(-1.88532e-18 -7.23501e-19 -0.0156993)
(-1.54649e-18 -1.6572e-19 -0.0156929)
(-1.75234e-18 -8.9275e-20 -0.0156859)
(-2.1937e-18 -2.92584e-19 -0.0156784)
(-2.04335e-18 -2.38828e-19 -0.0156703)
(-1.33682e-18 -3.37893e-19 -0.0156616)
(-1.06333e-18 -6.0141e-19 -0.0156523)
(-9.85574e-19 -2.04229e-19 -0.0156424)
(-7.82916e-19 -1.20013e-19 -0.0156321)
(-5.30325e-19 -5.2196e-19 -0.0156211)
(-3.00053e-19 -9.37548e-19 -0.0156096)
(-3.43453e-19 -1.00854e-18 -0.0155975)
(-5.71147e-19 -7.07851e-19 -0.0155849)
(-4.86427e-19 -6.18963e-19 -0.0155718)
(-2.83438e-19 -6.62029e-19 -0.0155581)
(-6.91061e-20 -1.7856e-19 -0.0155316)
(-2.3599e-19 -3.54172e-19 -0.0155456)
(-5.48104e-19 -5.05557e-19 -0.015559)
(-5.04451e-19 -7.16634e-19 -0.0155719)
(-3.93892e-19 -8.33502e-19 -0.0155843)
(-6.53328e-19 -1.12755e-18 -0.0155961)
(-9.37883e-19 -9.99011e-19 -0.0156073)
(-7.43483e-19 -8.20843e-19 -0.015618)
(-3.95516e-19 -5.106e-19 -0.0156281)
(-3.04317e-19 -2.83225e-19 -0.0156376)
(-1.67428e-19 -7.81992e-22 -0.0156466)
(6.72511e-20 -1.38929e-19 -0.0156549)
(-2.53251e-19 -5.49411e-19 -0.0156627)
(-7.30958e-19 -7.91571e-19 -0.0156699)
(-6.80132e-19 -5.07286e-19 -0.0156765)
(-3.07722e-19 -4.98691e-19 -0.0156825)
(-6.69101e-19 -8.07775e-19 -0.0156879)
(-8.67531e-19 -4.54638e-19 -0.0156927)
(-6.26172e-19 -1.36725e-19 -0.0156969)
(-8.03135e-19 -1.6751e-19 -0.0157005)
(-6.05821e-19 2.43783e-20 -0.0157035)
(-2.42064e-19 -2.75593e-19 -0.0157059)
(-6.87957e-19 -5.09715e-19 -0.0157077)
(-1.5175e-18 -4.89288e-19 -0.0157089)
(-1.57074e-18 -5.28053e-19 -0.0157095)
(-8.96798e-19 -5.15459e-19 -0.0157095)
(-9.15543e-19 -3.90084e-19 -0.0157089)
(-1.8438e-18 -4.58136e-19 -0.0157077)
(-2.51419e-18 -5.74554e-19 -0.0157059)
(-2.71528e-18 -4.96493e-19 -0.0157035)
(-2.57407e-18 -9.29715e-19 -0.0157005)
(-2.23794e-18 -1.45368e-18 -0.0156969)
(-1.85786e-18 -1.55321e-18 -0.0156927)
(-1.84505e-18 -1.42563e-18 -0.0156879)
(-2.11519e-18 -1.05173e-18 -0.0156825)
(-1.78468e-18 -1.04165e-18 -0.0156765)
(-1.47834e-18 -8.3428e-19 -0.0156699)
(-1.97253e-18 -6.77464e-19 -0.0156627)
(-2.25238e-18 -8.03724e-19 -0.0156549)
(-1.87576e-18 -5.29176e-19 -0.0156466)
(-1.3252e-18 -5.01725e-19 -0.0156376)
(-8.25576e-19 -8.85791e-19 -0.0156281)
(-6.5862e-19 -4.57364e-19 -0.015618)
(-8.11512e-19 -1.88386e-19 -0.0156073)
(-6.69311e-19 -6.0628e-19 -0.0155961)
(-2.4219e-19 -6.59743e-19 -0.0155843)
(-1.90523e-19 -7.23078e-19 -0.0155719)
(-3.42453e-19 -4.96289e-19 -0.015559)
(-2.68029e-19 -4.43083e-19 -0.0155456)
(-2.52538e-19 -5.37956e-19 -0.0155316)
(-1.31107e-19 -8.04235e-20 -0.0155044)
(-2.6845e-19 -2.78107e-19 -0.0155188)
(-5.82423e-19 -4.459e-19 -0.0155325)
(-7.68557e-19 -5.50213e-19 -0.0155457)
(-6.33795e-19 -9.88961e-19 -0.0155583)
(-6.90498e-19 -1.26176e-18 -0.0155704)
(-8.58091e-19 -9.96881e-19 -0.0155819)
(-7.37872e-19 -5.97811e-19 -0.0155929)
(-4.26691e-19 -2.52554e-19 -0.0156032)
(-3.02716e-19 -1.38608e-19 -0.015613)
(-2.70865e-19 -4.30131e-21 -0.0156222)
(-1.44492e-19 -4.43386e-19 -0.0156308)
(-2.89438e-19 -1.02268e-18 -0.0156388)
(-5.7743e-19 -8.10673e-19 -0.0156462)
(-5.20738e-19 -3.50938e-19 -0.0156529)
(-3.68154e-19 -2.00882e-19 -0.0156591)
(-6.84338e-19 -5.56471e-19 -0.0156647)
(-7.69037e-19 -3.47441e-19 -0.0156696)
(-5.78198e-19 -2.48912e-19 -0.0156739)
(-6.92408e-19 -2.83781e-19 -0.0156776)
(-5.93375e-19 -1.68629e-19 -0.0156807)
(-4.98464e-19 -3.59495e-19 -0.0156832)
(-7.74626e-19 -7.23747e-19 -0.0156851)
(-1.34912e-18 -6.42046e-19 -0.0156863)
(-1.57032e-18 -2.82838e-19 -0.0156869)
(-1.04032e-18 -2.69717e-19 -0.0156869)
(-1.00101e-18 -5.71854e-19 -0.0156863)
(-1.92663e-18 -7.38686e-19 -0.0156851)
(-2.52678e-18 -7.76573e-19 -0.0156832)
(-2.76486e-18 -4.7033e-19 -0.0156807)
(-2.8028e-18 -5.52562e-19 -0.0156776)
(-2.44381e-18 -7.81217e-19 -0.0156739)
(-1.96647e-18 -1.0745e-18 -0.0156696)
(-1.82966e-18 -1.34784e-18 -0.0156647)
(-2.00668e-18 -1.2347e-18 -0.0156591)
(-1.61977e-18 -1.21523e-18 -0.0156529)
(-1.44632e-18 -1.11202e-18 -0.0156462)
(-2.10982e-18 -9.76829e-19 -0.0156388)
(-2.15198e-18 -8.10121e-19 -0.0156308)
(-1.56093e-18 -6.20742e-19 -0.0156222)
(-1.16629e-18 -3.76138e-19 -0.015613)
(-7.13868e-19 -7.11502e-19 -0.0156032)
(-5.29142e-19 -7.08957e-19 -0.0155929)
(-8.64229e-19 -2.85779e-19 -0.0155819)
(-4.72515e-19 -3.79185e-19 -0.0155704)
(6.9739e-20 -5.21057e-19 -0.0155583)
(-1.79582e-20 -4.70796e-19 -0.0155457)
(-2.00771e-19 -3.15133e-19 -0.0155325)
(-2.75586e-19 -4.01905e-19 -0.0155188)
(-2.49965e-19 -5.9054e-19 -0.0155044)
(-1.2084e-19 -1.33303e-19 -0.0154767)
(-2.97421e-19 -3.42103e-19 -0.0154914)
(-5.79723e-19 -4.49379e-19 -0.0155054)
(-9.64549e-19 -6.56811e-19 -0.0155188)
(-9.26744e-19 -1.16871e-18 -0.0155317)
(-6.64371e-19 -1.22109e-18 -0.0155441)
(-5.85651e-19 -9.92103e-19 -0.0155559)
(-5.6862e-19 -5.17461e-19 -0.0155671)
(-3.95561e-19 -1.69242e-19 -0.0155777)
(-3.29568e-19 7.36978e-20 -0.0155877)
(-4.89792e-19 -1.77735e-20 -0.0155971)
(-6.41667e-19 -4.95817e-19 -0.0156059)
(-3.86699e-19 -9.20022e-19 -0.0156141)
(-2.81202e-19 -4.46387e-19 -0.0156217)
(-3.80807e-19 -2.68736e-20 -0.0156286)
(-5.04955e-19 -1.29366e-19 -0.015635)
(-7.85936e-19 -4.44868e-19 -0.0156407)
(-7.13794e-19 -2.52466e-19 -0.0156458)
(-6.08413e-19 -2.59015e-19 -0.0156502)
(-7.4015e-19 -4.32534e-19 -0.015654)
(-6.66727e-19 -4.39878e-19 -0.0156572)
(-6.48914e-19 -5.79075e-19 -0.0156598)
(-8.71486e-19 -7.18547e-19 -0.0156617)
(-1.17787e-18 -9.064e-19 -0.0156629)
(-1.32264e-18 -5.98948e-19 -0.0156636)
(-1.13123e-18 -2.82479e-19 -0.0156636)
(-1.33159e-18 -5.83448e-19 -0.0156629)
(-2.1641e-18 -1.05794e-18 -0.0156617)
(-2.47649e-18 -9.68431e-19 -0.0156598)
(-2.68257e-18 -7.52777e-19 -0.0156572)
(-2.85471e-18 -7.89794e-19 -0.015654)
(-2.51895e-18 -8.34295e-19 -0.0156502)
(-2.15515e-18 -1.0232e-18 -0.0156458)
(-1.98245e-18 -1.40361e-18 -0.0156407)
(-2.01026e-18 -1.35554e-18 -0.015635)
(-1.59066e-18 -1.38937e-18 -0.0156286)
(-1.53664e-18 -1.60841e-18 -0.0156217)
(-2.09797e-18 -1.48356e-18 -0.0156141)
(-1.85535e-18 -9.72567e-19 -0.0156059)
(-1.23637e-18 -6.51749e-19 -0.0155971)
(-1.00917e-18 -3.92587e-19 -0.0155877)
(-6.66265e-19 -5.77945e-19 -0.0155777)
(-4.52057e-19 -8.42096e-19 -0.0155671)
(-5.73624e-19 -4.79725e-19 -0.0155559)
(-1.69972e-19 -6.74993e-20 -0.0155441)
(9.7752e-20 -3.77364e-19 -0.0155317)
(7.68968e-21 -4.4635e-19 -0.0155188)
(-2.97645e-19 -4.09984e-19 -0.0155054)
(-3.8506e-19 -5.51501e-19 -0.0154914)
(-1.35665e-19 -6.31241e-19 -0.0154767)
(-1.8343e-19 -1.2965e-19 -0.0154485)
(-2.70237e-19 -3.549e-19 -0.0154634)
(-5.12179e-19 -5.32673e-19 -0.0154776)
(-1.11155e-18 -7.31432e-19 -0.0154914)
(-1.28101e-18 -9.29875e-19 -0.0155046)
(-1.01105e-18 -7.30189e-19 -0.0155172)
(-6.53204e-19 -5.6378e-19 -0.0155292)
(-3.69003e-19 -4.63755e-19 -0.0155406)
(-2.10523e-19 -1.26503e-19 -0.0155515)
(-3.01606e-19 1.65089e-19 -0.0155617)
(-6.21874e-19 -4.90536e-20 -0.0155713)
(-9.20875e-19 -2.22035e-19 -0.0155804)
(-5.64325e-19 -2.41937e-19 -0.0155888)
(-1.34425e-19 1.16423e-19 -0.0155965)