/*--------------------------------*- C++ -*----------------------------------*\
  =========                 |
  \\      /  F ield         | OpenFOAM: The Open Source CFD Toolbox
   \\    /   O peration     | Website:  https://openfoam.org
    \\  /    A nd           | Version:  7
     \\/     M anipulation  |
\*---------------------------------------------------------------------------*/
FoamFile
{
    version     2.0;
    format      ascii;
    class       volVectorField;
    location    "12000";
    object      vorticity;
}
// * * * * * * * * * * * * * * * * * * * * * * * * * * * * * * * * * * * * * //

dimensions      [0 0 -1 0 0 0 0];

internalField   nonuniform List<vector> 
4814
(
(-0.0286993 0.0833555 -1.14334e-17)
(-0.0259435 0.0838468 2.7303e-17)
(-0.0231939 0.0842854 4.13792e-18)
(-0.0204503 0.0846724 -2.10367e-17)
(-0.0694802 0.0730473 1.07272e-17)
(-0.0672479 0.0738203 -1.25873e-17)
(-0.0643279 0.0751989 5.53833e-18)
(-0.0614135 0.0764929 5.29123e-18)
(-0.0584997 0.0777103 3.91195e-17)
(-0.0555882 0.078853 -1.13808e-17)
(-0.0526806 0.0799232 -9.4983e-18)
(-0.0497779 0.0809229 -1.65163e-17)
(-0.046881 0.0818544 -2.81713e-17)
(-0.0439905 0.0827197 -3.99251e-17)
(-0.0411069 0.083521 2.61343e-17)
(-0.0382305 0.0842599 -5.84622e-18)
(-0.0353617 0.0849383 -1.17932e-17)
(-0.0325003 0.0855579 -2.43685e-18)
(-0.029646 0.0861201 -1.39335e-17)
(-0.0267988 0.0866268 2.56644e-17)
(-0.0239583 0.0870791 1.04059e-18)
(-0.0211239 0.0874782 -2.22356e-17)
(-0.0182953 0.0878252 -2.84427e-17)
(-0.0154719 0.0881209 5.09317e-19)
(-0.0126527 0.088366 5.27348e-18)
(-0.00983712 0.0885613 9.40502e-19)
(-0.00702445 0.0887072 -6.6235e-18)
(-0.00421383 0.0888044 4.69758e-18)
(-0.0014045 0.0888528 -5.01202e-18)
(0.00140438 0.0888528 1.38917e-17)
(0.0042137 0.0888044 3.60677e-18)
(0.00702426 0.0887073 1.53207e-17)
(0.00983692 0.0885611 2.65238e-18)
(0.0126525 0.0883659 1.15944e-17)
(0.0154718 0.0881207 2.26785e-17)
(0.0182954 0.0878249 2.93571e-18)
(0.0211241 0.0874779 -1.19516e-17)
(0.0239584 0.0870787 -1.08057e-17)
(-0.0718535 0.075501 6.18945e-18)
(-0.0695231 0.0763207 -1.91262e-17)
(-0.0665028 0.0777454 6.10825e-19)
(-0.0634883 0.0790828 -1.60476e-18)
(-0.0604746 0.0803408 3.37334e-17)
(-0.0574635 0.0815214 -1.44047e-17)
(-0.0544566 0.0826269 -1.25828e-17)
(-0.0514549 0.0836595 -2.04541e-17)
(-0.0484594 0.0846215 -3.3624e-17)
(-0.0454706 0.0855151 -4.85322e-17)
(-0.0424892 0.0863424 2.31162e-17)
(-0.0395153 0.0871052 -7.92343e-18)
(-0.0365494 0.0878055 -1.62354e-17)
(-0.0335913 0.088445 -7.34801e-18)
(-0.0306407 0.0890252 -1.41554e-17)
(-0.0276976 0.0895481 2.55461e-17)
(-0.0247615 0.0900148 7.88604e-20)
(-0.0218319 0.0904266 -2.14495e-17)
(-0.0189083 0.0907846 -3.00542e-17)
(-0.0159901 0.0910896 -1.50695e-18)
(-0.0130764 0.0913425 2.67428e-18)
(-0.0101665 0.0915439 9.59253e-19)
(-0.00725959 0.0916945 -8.71837e-18)
(-0.00435488 0.0917947 1.77007e-18)
(-0.00145151 0.0918446 -7.97643e-18)
(0.00145139 0.0918446 1.14932e-17)
(0.00435474 0.0917947 1.55828e-18)
(0.00725939 0.0916945 1.32812e-17)
(0.0101662 0.0915437 -1.28345e-19)
(0.0130762 0.0913424 9.10941e-18)
(0.01599 0.0910895 2.11463e-17)
(0.0189084 0.0907843 3.06935e-18)
(0.021832 0.0904262 -1.02481e-17)
(0.0247616 0.0900144 -1.08621e-17)
(0.0276977 0.0895477 2.22302e-17)
(0.0306408 0.0890248 -7.64886e-18)
(0.0335913 0.0884443 -3.00681e-17)
(0.0365494 0.087805 -1.80195e-17)
(0.0395154 0.0871048 -6.70404e-18)
(0.0424893 0.0863421 2.69181e-17)
(0.0454709 0.085515 -2.34322e-17)
(-0.074349 0.0780812 4.92502e-18)
(-0.0719156 0.07895 -2.18671e-17)
(-0.0687899 0.0804233 2.47327e-19)
(-0.0656702 0.0818064 -3.66481e-18)
(-0.0625516 0.0831072 3.42167e-17)
(-0.0594358 0.0843277 -1.35533e-17)
(-0.0563244 0.0854704 -1.23888e-17)
(-0.0532186 0.0865376 -1.95631e-17)
(-0.0501193 0.0875317 -3.61124e-17)
(-0.0470273 0.088455 -5.25859e-17)
(-0.0439429 0.0893097 2.37398e-17)
(-0.0408666 0.0900977 -6.35739e-18)
(-0.0377986 0.090821 -1.57435e-17)
(-0.0347389 0.0914815 -9.23992e-18)
(-0.031687 0.0920807 -1.3047e-17)
(-0.0286429 0.0926206 2.66381e-17)
(-0.0256063 0.0931025 8.26172e-19)
(-0.0225765 0.0935277 -1.98194e-17)
(-0.0195529 0.0938972 -3.09542e-17)
(-0.0165351 0.0942121 -2.3757e-18)
(-0.013522 0.0944731 1.54368e-18)
(-0.0105128 0.094681 2.04144e-18)
(-0.0075069 0.0948364 -9.20167e-18)
(-0.00450323 0.0949398 1.79589e-18)
(-0.00150096 0.0949914 -8.28922e-18)
(0.00150083 0.0949913 1.18201e-17)
(0.00450309 0.0949398 1.92608e-18)
(0.00750669 0.0948364 1.24985e-17)
(0.0105126 0.0946808 -2.11937e-18)
(0.0135218 0.094473 7.08754e-18)
(0.016535 0.094212 1.95277e-17)
(0.019553 0.093897 1.75087e-18)
(0.0225766 0.0935273 -9.6512e-18)
(0.0256064 0.0931021 -1.15019e-17)
(0.028643 0.0926201 2.12228e-17)
(0.031687 0.0920802 -8.78309e-18)
(0.0347388 0.0914808 -3.02065e-17)
(0.0377986 0.0908204 -1.65684e-17)
(0.0408666 0.0900973 -6.04067e-18)
(0.043943 0.0893094 2.91628e-17)
(0.0470275 0.088455 -2.30058e-17)
(0.0501197 0.0875319 -8.30569e-17)
(0.0532191 0.0865379 -1.44669e-17)
(0.0563249 0.0854707 -1.51206e-17)
(-0.0769755 0.0807968 5.46767e-18)
(-0.0744337 0.0817174 -2.19466e-17)
(-0.0711971 0.083242 1.86378e-18)
(-0.0679668 0.0846732 -2.62589e-18)
(-0.0647377 0.086019 3.89285e-17)
(-0.0615117 0.0872816 -1.09275e-17)
(-0.0582904 0.0884635 -9.99801e-18)
(-0.0550751 0.0895672 -1.60985e-17)
(-0.0518667 0.0905951 -3.58745e-17)
(-0.0486659 0.0915498 -5.30898e-17)
(-0.0454733 0.0924335 2.65276e-17)
(-0.0422891 0.0932479 -2.27121e-18)
(-0.0391136 0.0939954 -1.2773e-17)
(-0.0359469 0.0946781 -1.01027e-17)
(-0.0327884 0.0952973 -1.18354e-17)
(-0.0296381 0.0958552 2.79114e-17)
(-0.0264957 0.0963531 2.11973e-18)
(-0.0233603 0.0967924 -1.84176e-17)
(-0.0202316 0.097174 -3.13592e-17)
(-0.0171089 0.0974993 -2.36915e-18)
(-0.0139911 0.097769 1.54088e-18)
(-0.0108775 0.0979837 3.64156e-18)
(-0.00776727 0.0981442 -8.85988e-18)
(-0.0046594 0.098251 3.54613e-18)
(-0.00155301 0.0983042 -7.31602e-18)
(0.00155289 0.0983042 1.36027e-17)
(0.00465927 0.098251 3.69221e-18)
(0.00776705 0.0981442 1.24985e-17)
(0.0108773 0.0979834 -3.56823e-18)
(0.013991 0.0977689 5.61221e-18)
(0.0171088 0.0974993 1.81098e-17)
(0.0202317 0.0971739 -3.35317e-19)
(0.0233605 0.0967919 -9.5379e-18)
(0.0264958 0.0963526 -1.20417e-17)
(0.0296382 0.0958547 2.12961e-17)
(0.0327884 0.0952967 -7.49632e-18)
(0.0359468 0.0946773 -3.16505e-17)
(0.0391136 0.0939949 -1.74652e-17)
(0.0422891 0.0932475 -6.29001e-18)
(0.0454734 0.0924331 2.92718e-17)
(0.0486662 0.0915498 -2.34967e-17)
(0.0518671 0.0905953 -8.51028e-17)
(0.0550756 0.0895675 -1.34245e-17)
(0.0582909 0.0884637 -1.46235e-17)
(-0.0797422 0.0836574 5.86076e-18)
(-0.0770863 0.0846327 -2.20731e-17)
(-0.0737331 0.0862114 3.92079e-18)
(-0.0703863 0.0876934 -1.38283e-18)
(-0.0670409 0.0890868 4.42039e-17)
(-0.0636989 0.0903938 -8.18226e-18)
(-0.0603619 0.0916171 -7.89256e-18)
(-0.0570312 0.0927593 -1.35663e-17)
(-0.0537078 0.0938229 -3.5636e-17)
(-0.0503925 0.0948107 -5.33756e-17)
(-0.0470858 0.0957249 2.86261e-17)
(-0.043788 0.0965674 1.78755e-18)
(-0.0404993 0.0973404 -9.99374e-18)
(-0.0372198 0.0980465 -1.07426e-17)
(-0.033949 0.0986868 -1.0704e-17)
(-0.0306868 0.0992636 2.92424e-17)
(-0.0274328 0.0997784 3.56658e-18)
(-0.0241864 0.100233 -1.71773e-17)
(-0.0209468 0.100627 -3.15777e-17)
(-0.0177135 0.100963 -1.94219e-18)
(-0.0144855 0.101242 1.3324e-18)
(-0.0112618 0.101464 4.87066e-18)
(-0.00804165 0.10163 -8.70042e-18)
(-0.00482398 0.10174 5.02925e-18)
(-0.00160787 0.101795 -7.30795e-18)
(0.00160774 0.101795 1.48696e-17)
(0.00482385 0.10174 5.44237e-18)
(0.00804142 0.10163 1.24049e-17)
(0.0112616 0.101464 -4.99193e-18)
(0.0144853 0.101242 4.48993e-18)
(0.0177134 0.100963 1.70879e-17)
(0.0209469 0.100627 -2.30379e-18)
(0.0241865 0.100232 -9.17972e-18)
(0.0274329 0.099778 -1.16658e-17)
(0.0306868 0.0992631 2.19931e-17)
(0.033949 0.0986862 -5.20277e-18)
(0.0372197 0.0980457 -3.31461e-17)
(0.0404993 0.0973399 -2.00467e-17)
(0.043788 0.0965668 -6.95998e-18)
(0.0470859 0.0957245 2.83475e-17)
(0.0503929 0.0948107 -2.46006e-17)
(0.0537082 0.0938231 -8.73064e-17)
(0.0570317 0.0927596 -1.27801e-17)
(0.0603623 0.0916173 -1.6341e-17)
(-0.0826594 0.0866736 5.81318e-18)
(-0.0798834 0.0877067 -2.25414e-17)
(-0.0764071 0.0893426 6.36533e-18)
(-0.0729376 0.0908783 5.61481e-20)
(-0.0694697 0.0923219 4.94119e-17)
(-0.0660054 0.0936758 -5.81782e-18)
(-0.0625465 0.0949429 -6.11859e-18)
(-0.0590942 0.0961257 -1.17628e-17)
(-0.0556496 0.0972272 -3.55879e-17)
(-0.0522136 0.09825 -5.38371e-17)
(-0.0487866 0.0991964 3.12119e-17)
(-0.0453689 0.100068 5.13316e-18)
(-0.0419608 0.100869 -7.51881e-18)
(-0.0385625 0.101599 -1.09327e-17)
(-0.0351732 0.102262 -9.97906e-18)
(-0.031793 0.102859 3.00259e-17)
(-0.0284214 0.103391 4.72319e-18)
(-0.0250576 0.103861 -1.58488e-17)
(-0.0217012 0.104269 -3.16109e-17)
(-0.0183513 0.104617 -1.19068e-18)
(-0.015007 0.104906 1.06747e-18)
(-0.0116672 0.105135 5.69668e-18)
(-0.00833107 0.105307 -8.98065e-18)
(-0.00499758 0.105421 6.33684e-18)
(-0.00166574 0.105478 -7.85415e-18)
(0.0016656 0.105478 1.5654e-17)
(0.00499745 0.105421 7.1046e-18)
(0.00833083 0.105307 1.23893e-17)
(0.011667 0.105135 -6.30151e-18)
(0.0150068 0.104906 3.391e-18)
(0.0183512 0.104617 1.61176e-17)
(0.0217013 0.104269 -4.33725e-18)
(0.0250578 0.103861 -8.53949e-18)
(0.0284215 0.103391 -1.10549e-17)
(0.031793 0.102858 2.25543e-17)
(0.0351731 0.102261 -3.24924e-18)
(0.0385623 0.101598 -3.38668e-17)
(0.0419608 0.100868 -2.23871e-17)
(0.0453689 0.100068 -7.08315e-18)
(0.0487867 0.099196 2.79708e-17)
(0.0522139 0.09825 -2.55593e-17)
(0.05565 0.0972274 -8.88548e-17)
(0.0590947 0.0961261 -1.21184e-17)
(0.0625469 0.0949431 -1.88157e-17)
(-0.085738 0.0898568 5.31687e-18)
(-0.0828353 0.0909511 -2.35558e-17)
(-0.0792295 0.0926475 8.61504e-18)
(-0.0756305 0.09424 1.21023e-18)
(-0.0720335 0.0957368 5.40032e-17)
(-0.0684401 0.0971403 -3.83563e-18)
(-0.0648525 0.0984537 -5.72597e-18)
(-0.061272 0.0996797 -1.03518e-17)
(-0.0576995 0.100821 -3.57405e-17)
(-0.0541361 0.101881 -5.4413e-17)
(-0.0505821 0.102861 3.43227e-17)
(-0.047038 0.103765 7.73794e-18)
(-0.0435039 0.104594 -5.59499e-18)
(-0.0399801 0.105351 -1.10521e-17)
(-0.0364658 0.106037 -9.41955e-18)
(-0.0329609 0.106655 3.08155e-17)
(-0.0294651 0.107206 5.58983e-18)
(-0.0259776 0.107693 -1.47766e-17)
(-0.0224978 0.108115 -3.12684e-17)
(-0.0190248 0.108475 -4.16533e-19)
(-0.0155576 0.108774 6.88026e-19)
(-0.0120952 0.109012 6.50686e-18)
(-0.00863668 0.109189 -9.62872e-18)
(-0.0051809 0.109308 7.30686e-18)
(-0.00172683 0.109366 -8.81674e-18)
(0.0017267 0.109366 1.6052e-17)
(0.00518076 0.109307 8.53219e-18)
(0.00863643 0.109189 1.25672e-17)
(0.012095 0.109011 -7.24666e-18)
(0.0155575 0.108774 2.03458e-18)
(0.0190247 0.108476 1.50243e-17)
(0.0224979 0.108115 -5.81637e-18)
(0.0259778 0.107693 -7.85765e-18)
(0.0294652 0.107206 -1.0565e-17)
(0.0329609 0.106654 2.3256e-17)
(0.0364657 0.106036 -2.02125e-18)
(0.0399799 0.10535 -3.45059e-17)
(0.0435039 0.104593 -2.38711e-17)
(0.047038 0.103764 -7.4068e-18)
(0.0505823 0.102861 2.81848e-17)
(0.0541364 0.101881 -2.61728e-17)
(0.0577 0.100821 -9.05936e-17)
(0.0612725 0.09968 -1.09295e-17)
(0.064853 0.0984539 -2.10529e-17)
(0.0684404 0.0971409 3.09154e-17)
(-0.0889903 0.0932193 5.01327e-18)
(-0.0859539 0.0943786 -2.5166e-17)
(-0.0822113 0.0961391 1.03692e-17)
(-0.0784757 0.0977918 8.33723e-19)
(-0.0747423 0.099345 5.78584e-17)
(-0.0710128 0.100801 -1.83098e-18)
(-0.0672893 0.102164 -5.95149e-18)
(-0.0635733 0.103435 -9.06689e-18)
(-0.0598658 0.104619 -3.61209e-17)
(-0.0561678 0.105718 -5.49847e-17)
(-0.0524797 0.106735 3.71919e-17)
(-0.0488019 0.107671 1.05539e-17)
(-0.0451347 0.108531 -4.40664e-18)
(-0.0414783 0.109315 -1.16914e-17)
(-0.0378319 0.110027 -8.7009e-18)
(-0.0341954 0.110667 3.09984e-17)
(-0.0305684 0.111239 6.50634e-18)
(-0.02695 0.111743 -1.38963e-17)
(-0.0233397 0.112181 -3.04796e-17)
(-0.0197366 0.112554 5.7836e-19)
(-0.0161397 0.112863 8.74315e-20)
(-0.0125477 0.113109 7.0887e-18)
(-0.00895972 0.113293 -1.04289e-17)
(-0.00537467 0.113416 7.99655e-18)
(-0.00179142 0.113477 -9.97249e-18)
(0.00179127 0.113477 1.62093e-17)
(0.00537453 0.113416 9.33922e-18)
(0.00895946 0.113293 1.27641e-17)
(0.0125475 0.113109 -7.77586e-18)
(0.0161395 0.112863 4.80555e-19)
(0.0197366 0.112554 1.41497e-17)
(0.0233398 0.112181 -6.94516e-18)
(0.0269502 0.111742 -7.12769e-18)
(0.0305684 0.111238 -9.81361e-18)
(0.0341953 0.110666 2.37259e-17)
(0.0378318 0.110026 -8.18382e-19)
(0.0414781 0.109314 -3.49958e-17)
(0.0451348 0.10853 -2.49505e-17)
(0.048802 0.107671 -8.2872e-18)
(0.0524799 0.106734 2.86566e-17)
(0.0561681 0.105718 -2.62271e-17)
(0.0598663 0.104619 -9.1536e-17)
(0.0635738 0.103436 -9.90341e-18)
(0.0672898 0.102164 -2.33233e-17)
(0.071013 0.100802 3.19117e-17)
(-0.0924292 0.0967749 4.34993e-18)
(-0.0892517 0.0980031 -2.65632e-17)
(-0.0853647 0.0998317 1.15048e-17)
(-0.0814848 0.101548 -3.64403e-19)
(-0.0776073 0.103161 6.18798e-17)
(-0.0737339 0.104673 -1.32579e-19)
(-0.0698669 0.106088 -5.71925e-18)
(-0.0660077 0.107408 -8.0323e-18)
(-0.0621574 0.108637 -3.58896e-17)
(-0.0583171 0.109778 -5.50192e-17)
(-0.0544872 0.110833 3.93343e-17)
(-0.0506682 0.111804 1.21862e-17)
(-0.0468602 0.112696 -2.89737e-18)
(-0.0430635 0.11351 -1.22067e-17)
(-0.0392774 0.114248 -8.6001e-18)
(-0.0355015 0.114912 3.11002e-17)
(-0.0317357 0.115505 7.39613e-18)
(-0.0279789 0.116028 -1.32015e-17)
(-0.0242306 0.116482 -2.93924e-17)
(-0.0204898 0.116869 1.76036e-18)
(-0.0167555 0.11719 -8.61838e-19)
(-0.0130264 0.117445 7.66717e-18)
(-0.00930155 0.117636 -1.09796e-17)
(-0.00557971 0.117763 8.26601e-18)
(-0.00185975 0.117826 -1.103e-17)
(0.00185961 0.117826 1.61208e-17)
(0.00557956 0.117763 9.4137e-18)
(0.00930128 0.117636 1.30534e-17)
(0.0130262 0.117445 -8.19898e-18)
(0.0167554 0.11719 -1.25606e-18)
(0.0204898 0.116869 1.36875e-17)
(0.0242307 0.116482 -7.83491e-18)
(0.0279791 0.116028 -6.69529e-18)
(0.0317357 0.115505 -9.1365e-18)
(0.0355015 0.114912 2.40312e-17)
(0.0392772 0.114247 4.47058e-19)
(0.0430633 0.113509 -3.51451e-17)
(0.0468603 0.112695 -2.54338e-17)
(0.0506682 0.111804 -9.2622e-18)
(0.0544874 0.110832 2.88893e-17)
(0.0583174 0.109777 -2.54884e-17)
(0.0621579 0.108637 -9.23987e-17)
(0.0660082 0.107408 -8.89527e-18)
(0.0698673 0.106088 -2.55755e-17)
(0.0737341 0.104674 3.28798e-17)
(-0.0960691 0.100538 2.87313e-18)
(-0.0927425 0.10184 -2.67471e-17)
(-0.0887028 0.103741 1.24295e-17)
(-0.0846704 0.105525 -1.7912e-18)
(-0.0806406 0.107202 6.52102e-17)
(-0.076615 0.108773 1.22066e-18)
(-0.0725962 0.110243 -5.1563e-18)
(-0.0685854 0.111615 -7.75334e-18)
(-0.0645841 0.112891 -3.5354e-17)
(-0.0605933 0.114076 -5.45377e-17)
(-0.0566133 0.115172 4.15304e-17)
(-0.0526447 0.116182 1.26976e-17)
(-0.0486876 0.117108 -1.55097e-18)
(-0.0447425 0.117953 -1.26761e-17)
(-0.0408084 0.118719 -9.4558e-18)
(-0.036885 0.119409 3.13854e-17)
(-0.0329722 0.120025 8.32453e-18)
(-0.0290688 0.120567 -1.24143e-17)
(-0.0251743 0.121039 -2.81309e-17)
(-0.0212877 0.12144 2.52872e-18)
(-0.0174079 0.121773 -2.32421e-18)
(-0.0135336 0.122038 8.23499e-18)
(-0.00966366 0.122236 -1.11883e-17)
(-0.00579691 0.122368 8.40271e-18)
(-0.00193215 0.122434 -1.22195e-17)
(0.001932 0.122434 1.58758e-17)
(0.00579676 0.122368 9.11484e-18)
(0.00966339 0.122236 1.34014e-17)
(0.0135334 0.122038 -8.58771e-18)
(0.0174078 0.121773 -3.12179e-18)
(0.0212877 0.12144 1.3148e-17)
(0.0251745 0.121039 -8.71709e-18)
(0.029069 0.120567 -6.33013e-18)
(0.0329722 0.120024 -8.91691e-18)
(0.0368849 0.119408 2.40768e-17)
(0.0408082 0.118718 1.4733e-18)
(0.0447423 0.117952 -3.4993e-17)
(0.0486877 0.117107 -2.58387e-17)
(0.0526447 0.116181 -9.72378e-18)
(0.0566135 0.115172 2.91456e-17)
(0.0605936 0.114076 -2.47678e-17)
(0.0645846 0.112892 -9.30063e-17)
(0.0685859 0.111615 -7.66258e-18)
(0.0725966 0.110243 -2.82716e-17)
(0.0766152 0.108774 3.38197e-17)
(-0.0999256 0.104525 6.49614e-19)
(-0.0964411 0.105905 -2.6157e-17)
(-0.0922401 0.107883 1.3307e-17)
(-0.0880463 0.10974 -3.95042e-18)
(-0.0838553 0.111484 6.73718e-17)
(-0.0796687 0.113118 2.37982e-18)
(-0.0754891 0.114647 -4.85613e-18)
(-0.071318 0.116074 -7.49184e-18)
(-0.0671567 0.117402 -3.43459e-17)
(-0.0630063 0.118634 -5.36208e-17)
(-0.0588673 0.119773 4.36161e-17)
(-0.0547403 0.120823 1.29058e-17)
(-0.0506253 0.121785 -7.51423e-19)
(-0.0465227 0.122664 -1.28632e-17)
(-0.0424318 0.12346 -1.13619e-17)
(-0.0383521 0.124177 3.18529e-17)
(-0.0342834 0.124817 9.24822e-18)
(-0.0302246 0.125381 -1.1816e-17)
(-0.0261751 0.125871 -2.67154e-17)
(-0.0221339 0.126288 3.06768e-18)
(-0.0180998 0.126634 -3.79671e-18)
(-0.0140715 0.126909 8.90187e-18)
(-0.0100477 0.127115 -1.13612e-17)
(-0.00602727 0.127252 8.46575e-18)
(-0.00200893 0.12732 -1.34904e-17)
(0.00200876 0.12732 1.53317e-17)
(0.00602711 0.127252 8.53298e-18)
(0.0100474 0.127115 1.35376e-17)
(0.0140713 0.126909 -9.06458e-18)
(0.0180997 0.126634 -4.74162e-18)
(0.0221339 0.126288 1.22158e-17)
(0.0261752 0.125871 -9.57982e-18)
(0.0302247 0.125381 -6.24164e-18)
(0.0342834 0.124816 -8.85043e-18)
(0.038352 0.124177 2.35573e-17)
(0.0424316 0.12346 2.25163e-18)
(0.0465225 0.122663 -3.39695e-17)
(0.0506254 0.121785 -2.59281e-17)
(0.0547403 0.120822 -1.03635e-17)
(0.0588676 0.119773 2.93962e-17)
(0.0630066 0.118634 -2.44134e-17)
(0.0671572 0.117402 -9.21987e-17)
(0.0713185 0.116074 -6.12568e-18)
(0.0754895 0.114648 -3.10201e-17)
(-0.104016 0.108754 -1.77254e-18)
(-0.100364 0.110217 -2.48469e-17)
(-0.0959923 0.112277 1.42025e-17)
(-0.0916277 0.114211 -7.08488e-18)
(-0.0872659 0.116027 6.86745e-17)
(-0.0829088 0.117729 3.06722e-18)
(-0.0785588 0.119321 -4.82239e-18)
(-0.0742177 0.120806 -7.35625e-18)
(-0.0698868 0.122188 -3.2955e-17)
(-0.0655673 0.123471 -5.19838e-17)
(-0.0612597 0.124657 4.58494e-17)
(-0.0569646 0.125749 1.28212e-17)
(-0.052682 0.12675 1.72971e-19)
(-0.0484125 0.127665 -1.33676e-17)
(-0.0441551 0.128494 -1.34207e-17)
(-0.0399095 0.129239 3.33456e-17)
(-0.0356753 0.129905 1.01755e-17)
(-0.0314517 0.130491 -1.13868e-17)
(-0.0272377 0.131001 -2.52543e-17)
(-0.0230322 0.131435 3.46732e-18)
(-0.0188344 0.131795 -4.89191e-18)
(-0.0146425 0.132081 9.565e-18)
(-0.0104554 0.132295 -1.15285e-17)
(-0.00627185 0.132438 8.47641e-18)
(-0.00209045 0.132509 -1.48599e-17)
(0.00209028 0.132509 1.47168e-17)
(0.00627168 0.132438 7.85525e-18)
(0.0104551 0.132295 1.32934e-17)
(0.0146423 0.132081 -9.33972e-18)
(0.0188343 0.131795 -5.88349e-18)
(0.0230323 0.131435 1.09186e-17)
(0.0272378 0.131001 -1.06187e-17)
(0.0314518 0.130491 -6.06621e-18)
(0.0356753 0.129904 -8.52405e-18)
(0.0399094 0.129239 2.2749e-17)
(0.0441549 0.128493 2.45574e-18)
(0.0484123 0.127664 -3.29993e-17)
(0.0526821 0.12675 -2.59755e-17)
(0.0569646 0.125748 -1.09961e-17)
(0.06126 0.124656 3.00771e-17)
(0.0655676 0.123471 -2.37093e-17)
(0.0698873 0.122188 -9.0622e-17)
(0.0742181 0.120806 -5.28954e-18)
(0.0785592 0.119321 -3.39893e-17)
(-0.108357 0.113242 -2.92728e-18)
(-0.104529 0.114795 -2.38643e-17)
(-0.0999763 0.116942 1.45465e-17)
(-0.0954308 0.118958 -1.06197e-17)
(-0.0908881 0.120852 6.93015e-17)
(-0.0863501 0.122626 3.48488e-18)
(-0.0818195 0.124285 -4.68802e-18)
(-0.0772981 0.125833 -7.60484e-18)
(-0.0727872 0.127274 -3.12609e-17)
(-0.0682882 0.12861 -5.02167e-17)
(-0.0638017 0.129845 4.76516e-17)
(-0.0593281 0.130983 1.26035e-17)
(-0.0548676 0.132027 1.77349e-18)
(-0.0504207 0.132979 -1.4766e-17)
(-0.0459866 0.133843 -1.50508e-17)
(-0.0415647 0.134619 3.57368e-17)
(-0.0371548 0.135312 9.86462e-18)
(-0.0327559 0.135923 -1.10152e-17)
(-0.028367 0.136454 -2.35569e-17)
(-0.0239872 0.136906 3.73904e-18)
(-0.0196152 0.137281 -5.7254e-18)
(-0.0152495 0.137579 9.9415e-18)
(-0.0108888 0.137802 -1.15837e-17)
(-0.00653183 0.13795 8.8445e-18)
(-0.0021771 0.138024 -1.61108e-17)
(0.00217692 0.138024 1.38303e-17)
(0.00653166 0.13795 6.90382e-18)
(0.0108886 0.137801 1.26491e-17)
(0.0152493 0.137579 -9.19053e-18)
(0.0196151 0.137281 -6.81593e-18)
(0.0239872 0.136906 9.4201e-18)
(0.0283671 0.136454 -1.16657e-17)
(0.032756 0.135923 -5.56744e-18)
(0.0371548 0.135312 -8.03947e-18)
(0.0415646 0.134619 2.32547e-17)
(0.0459864 0.133842 2.54606e-18)
(0.0504206 0.132978 -3.31506e-17)
(0.0548678 0.132026 -2.59294e-17)
(0.0593282 0.130983 -1.14496e-17)
(0.0638019 0.129845 2.99219e-17)
(0.0682885 0.12861 -2.23996e-17)
(0.0727877 0.127274 -8.85545e-17)
(0.0772985 0.125834 -4.20944e-18)
(0.0818199 0.124286 -3.67403e-17)
(-0.112971 0.118012 -3.12592e-18)
(-0.108955 0.11966 -2.37564e-17)
(-0.104211 0.121902 1.34446e-17)
(-0.0994735 0.124006 -1.39569e-17)
(-0.0947389 0.125982 6.99415e-17)
(-0.0900092 0.127833 3.90746e-18)
(-0.0852868 0.129565 -4.52939e-18)
(-0.0805739 0.131179 -8.11613e-18)
(-0.075872 0.132682 -2.90888e-17)
(-0.0711823 0.134076 -4.86406e-17)
(-0.0665056 0.135365 4.89459e-17)
(-0.0618424 0.136552 1.20938e-17)
(-0.0571928 0.13764 3.81763e-18)
(-0.0525573 0.138633 -1.60848e-17)
(-0.0479353 0.139534 -1.77655e-17)
(-0.0433259 0.140344 3.76942e-17)
(-0.0387291 0.141066 8.83328e-18)
(-0.0341437 0.141703 -1.03641e-17)
(-0.0295688 0.142257 -2.18569e-17)
(-0.0250033 0.142728 3.97562e-18)
(-0.0204461 0.143119 -6.24806e-18)
(-0.0158955 0.14343 1.005e-17)
(-0.0113501 0.143662 -1.17618e-17)
(-0.00680852 0.143817 9.40797e-18)
(-0.00226932 0.143894 -1.72882e-17)
(0.00226913 0.143894 1.28429e-17)
(0.00680833 0.143816 5.66267e-18)
(0.0113498 0.143662 1.14978e-17)
(0.0158953 0.14343 -9.12726e-18)
(0.0204461 0.143119 -7.66544e-18)
(0.0250034 0.142728 7.68643e-18)
(0.0295689 0.142257 -1.28482e-17)
(0.0341438 0.141703 -4.66997e-18)
(0.038729 0.141066 -7.49331e-18)
(0.0433258 0.140343 2.42632e-17)
(0.0479351 0.139533 2.33814e-18)
(0.0525572 0.138632 -3.41557e-17)
(0.0571929 0.13764 -2.50918e-17)
(0.0618424 0.136551 -1.21153e-17)
(0.0665058 0.135365 2.9062e-17)
(0.0711826 0.134076 -2.06277e-17)
(0.0758724 0.132682 -8.58895e-17)
(0.0805743 0.13118 -3.06877e-18)
(0.0852872 0.129565 -3.93358e-17)
(-0.117879 0.123085 -3.15035e-18)
(-0.113664 0.124836 -2.49584e-17)
(-0.108716 0.127178 1.21213e-17)
(-0.103775 0.129376 -1.70058e-17)
(-0.0988371 0.131441 7.10117e-17)
(-0.0939036 0.133375 3.66197e-18)
(-0.0889776 0.135184 -4.644e-18)
(-0.0840613 0.136871 -8.9478e-18)
(-0.0791563 0.138441 -2.59582e-17)
(-0.0742639 0.139897 -4.66242e-17)
(-0.069385 0.141243 4.97698e-17)
(-0.06452 0.142482 1.13058e-17)
(-0.0596692 0.143619 5.82514e-18)
(-0.0548331 0.144656 -1.76738e-17)
(-0.050011 0.145596 -2.03518e-17)
(-0.045202 0.146442 3.91123e-17)
(-0.0404061 0.147196 7.8758e-18)
(-0.0356222 0.147861 -9.32492e-18)
(-0.0308492 0.148439 -2.02549e-17)
(-0.026086 0.148931 4.249e-18)
(-0.0213314 0.149339 -6.76882e-18)
(-0.0165838 0.149664 1.02187e-17)
(-0.0118416 0.149906 -1.19408e-17)
(-0.00710333 0.150067 9.97066e-18)
(-0.00236758 0.150148 -1.82415e-17)
(0.00236738 0.150148 1.19206e-17)
(0.00710313 0.150067 4.00417e-18)
(0.0118413 0.149906 1.01228e-17)
(0.0165836 0.149663 -9.26594e-18)
(0.0213314 0.149339 -8.732e-18)
(0.0260861 0.148931 5.89244e-18)
(0.0308493 0.148439 -1.36679e-17)
(0.0356222 0.147862 -3.75166e-18)
(0.040406 0.147196 -7.17907e-18)
(0.0452019 0.146441 2.49201e-17)
(0.0500107 0.145595 2.72591e-18)
(0.054833 0.144655 -3.57141e-17)
(0.0596694 0.143618 -2.39722e-17)
(0.0645201 0.142482 -1.29294e-17)
(0.0693852 0.141242 2.73229e-17)
(0.0742642 0.139896 -1.80724e-17)
(0.0791567 0.138441 -8.31498e-17)
(0.0840617 0.136871 -2.64987e-18)
(0.088978 0.135184 -4.23484e-17)
(-0.123103 0.128485 -3.01791e-18)
(-0.118678 0.130347 -2.59202e-17)
(-0.113514 0.132797 1.09085e-17)
(-0.108357 0.135097 -1.95578e-17)
(-0.103203 0.137257 7.2001e-17)
(-0.0980529 0.13928 2.34588e-18)
(-0.0929105 0.141172 -5.08828e-18)
(-0.0877779 0.142937 -9.32167e-18)
(-0.0826568 0.144578 -2.29653e-17)
(-0.0775488 0.146101 -4.44956e-17)
(-0.0724546 0.147509 5.08732e-17)
(-0.0673748 0.148805 1.04809e-17)
(-0.0623097 0.149993 7.18035e-18)
(-0.0572598 0.151078 -1.87524e-17)
(-0.0522245 0.152061 -2.21724e-17)
(-0.0472028 0.152945 4.04784e-17)
(-0.0421947 0.153734 7.71433e-18)
(-0.0371991 0.154429 -7.77174e-18)
(-0.0322149 0.155033 -1.90898e-17)
(-0.0272409 0.155548 4.08055e-18)
(-0.0222758 0.155974 -7.2388e-18)
(-0.017318 0.156314 1.04434e-17)
(-0.0123658 0.156567 -1.20637e-17)
(-0.00741783 0.156736 1.01814e-17)
(-0.00247241 0.15682 -1.91864e-17)
(0.0024722 0.15682 1.1207e-17)
(0.00741762 0.156735 2.05086e-18)
(0.0123656 0.156567 8.52823e-18)
(0.0173179 0.156313 -9.77783e-18)
(0.0222758 0.155974 -9.80278e-18)
(0.027241 0.155548 4.26599e-18)
(0.032215 0.155034 -1.44633e-17)
(0.0371992 0.15443 -2.72683e-18)
(0.0421947 0.153734 -5.93532e-18)
(0.0472027 0.152945 2.53829e-17)
(0.0522242 0.15206 2.36767e-18)
(0.0572597 0.151077 -3.6794e-17)
(0.0623099 0.149993 -2.34629e-17)
(0.0673749 0.148804 -1.41724e-17)
(0.0724548 0.147508 2.63326e-17)
(0.077549 0.146101 -1.45681e-17)
(0.0826572 0.144578 -8.04018e-17)
(0.0877782 0.142937 -1.83597e-18)
(0.0929108 0.141172 -4.58155e-17)
(-0.12867 0.134239 -2.69264e-18)
(-0.124021 0.13622 -2.69447e-17)
(-0.118629 0.138786 9.10762e-18)
(-0.113242 0.141195 -2.10158e-17)
(-0.107858 0.143458 7.21117e-17)
(-0.102478 0.145578 1.90496e-19)
(-0.0971054 0.147559 -5.91601e-18)
(-0.0917427 0.149407 -8.86323e-18)
(-0.0863916 0.151127 -2.01221e-17)
(-0.0810539 0.152722 -4.28228e-17)
(-0.0757304 0.154196 5.23842e-17)
(-0.0704217 0.155553 1.00475e-17)
(-0.0651282 0.156798 7.60646e-18)
(-0.0598503 0.157933 -1.9722e-17)
(-0.0545876 0.158963 -2.37972e-17)
(-0.0493391 0.159889 4.08155e-17)
(-0.0441045 0.160715 8.16376e-18)
(-0.038883 0.161443 -5.68115e-18)
(-0.0336733 0.162075 -1.81542e-17)
(-0.0284742 0.162614 3.53513e-18)
(-0.0232843 0.16306 -7.57839e-18)
(-0.0181022 0.163416 1.05396e-17)
(-0.0129258 0.163681 -1.23356e-17)
(-0.00775372 0.163858 1.01065e-17)
(-0.00258436 0.163946 -2.02898e-17)
(0.00258414 0.163945 1.05618e-17)
(0.0077535 0.163857 1.62871e-19)
(0.0129255 0.163681 6.72105e-18)
(0.018102 0.163415 -1.0475e-17)
(0.0232844 0.16306 -1.06868e-17)
(0.0284743 0.162614 2.06508e-18)
(0.0336734 0.162076 -1.56115e-17)
(0.038883 0.161443 -1.43467e-18)
(0.0441045 0.160715 -4.93982e-18)
(0.049339 0.159889 2.53844e-17)
(0.0545873 0.158962 1.86783e-18)
(0.0598503 0.157933 -3.75045e-17)
(0.0651283 0.156797 -2.32219e-17)
(0.0704218 0.155553 -1.56437e-17)
(0.0757306 0.154195 2.65534e-17)
(0.0810541 0.152721 -1.06076e-17)
(0.086392 0.151126 -7.7425e-17)
(0.0917429 0.149407 -3.18574e-19)
(0.0971056 0.147559 -4.90677e-17)
(-0.134606 0.140374 -2.11294e-18)
(-0.129719 0.142484 -2.93922e-17)
(-0.124084 0.145175 6.77859e-18)
(-0.118454 0.147703 -2.08216e-17)
(-0.112826 0.150076 7.19576e-17)
(-0.107201 0.1523 -2.07011e-18)
(-0.101584 0.154378 -6.79231e-18)
(-0.0959763 0.156317 -7.46137e-18)
(-0.0903803 0.15812 -1.84614e-17)
(-0.0847978 0.159793 -4.17325e-17)
(-0.0792298 0.16134 5.45973e-17)
(-0.073677 0.162763 9.33692e-18)
(-0.0681398 0.164069 7.99343e-18)
(-0.0626186 0.16526 -2.01505e-17)
(-0.0571131 0.16634 -2.60726e-17)
(-0.0516223 0.167311 4.04043e-17)
(-0.046146 0.168177 9.38662e-18)
(-0.040683 0.168941 -4.04231e-18)
(-0.0352324 0.169604 -1.74068e-17)
(-0.0297927 0.170168 3.33039e-18)
(-0.0243626 0.170636 -7.8452e-18)
(-0.0189405 0.171009 1.03415e-17)
(-0.0135245 0.171288 -1.27488e-17)
(-0.00811286 0.171473 1.00037e-17)
(-0.00270407 0.171565 -2.14508e-17)
(0.00270383 0.171565 9.85135e-18)
(0.00811264 0.171472 -1.60886e-18)
(0.0135242 0.171287 4.90102e-18)
(0.0189404 0.171009 -1.12138e-17)
(0.0243627 0.170636 -1.15863e-17)
(0.0297929 0.170169 -3.2907e-19)
(0.0352325 0.169604 -1.68377e-17)
(0.0406831 0.168941 -9.76383e-20)
(0.0461459 0.168177 -3.29619e-18)
(0.0516222 0.16731 2.46381e-17)
(0.0571129 0.166339 1.10038e-18)
(0.0626186 0.165259 -3.71751e-17)
(0.0681399 0.164068 -2.27444e-17)
(0.0736771 0.162763 -1.67868e-17)
(0.07923 0.161339 2.73193e-17)
(0.084798 0.159793 -7.80381e-18)
(0.0903806 0.15812 -7.53145e-17)
(0.0959765 0.156317 1.54226e-18)
(0.101584 0.154378 -5.17948e-17)
(-0.14094 0.146919 -3.22533e-19)
(-0.135801 0.149169 -3.2518e-17)
(-0.129909 0.151997 4.91617e-18)
(-0.12402 0.154652 -2.03844e-17)
(-0.118132 0.157145 7.21113e-17)
(-0.112248 0.159481 -4.98341e-18)
(-0.106369 0.161665 -8.31307e-18)
(-0.100501 0.163701 -6.39381e-18)
(-0.0946438 0.165596 -1.77832e-17)
(-0.0888005 0.167354 -4.05163e-17)
(-0.0829717 0.168978 5.6585e-17)
(-0.0771584 0.170474 8.81826e-18)
(-0.071361 0.171846 8.63398e-18)
(-0.0655799 0.173097 -2.01688e-17)
(-0.059815 0.174231 -2.85353e-17)
(-0.0540653 0.175252 3.9317e-17)
(-0.0483303 0.176162 1.02831e-17)
(-0.0426093 0.176964 -2.75136e-18)
(-0.0369009 0.177661 -1.70712e-17)
(-0.0312039 0.178254 3.12283e-18)
(-0.0255167 0.178746 -8.10735e-18)
(-0.0198379 0.179137 1.01902e-17)
(-0.0141653 0.17943 -1.32329e-17)
(-0.00849729 0.179624 9.8797e-18)
(-0.00283221 0.179721 -2.25574e-17)
(0.00283195 0.179721 8.97372e-18)
(0.00849706 0.179624 -3.53879e-18)
(0.014165 0.179429 3.24358e-18)
(0.0198377 0.179137 -1.20148e-17)
(0.0255168 0.178745 -1.2215e-17)
(0.031204 0.178254 -2.39241e-18)
(0.036901 0.177661 -1.82807e-17)
(0.0426093 0.176964 1.16091e-18)
(0.0483303 0.176162 -1.12327e-18)
(0.0540652 0.175251 2.31073e-17)
(0.0598148 0.174231 -1.44342e-19)
(0.06558 0.173096 -3.63865e-17)
(0.0713611 0.171845 -2.17518e-17)
(0.0771585 0.170474 -1.77066e-17)
(0.0829718 0.168978 2.81018e-17)
(0.0888006 0.167353 -5.41464e-18)
(0.0946442 0.165596 -7.38963e-17)
(0.100501 0.163701 2.95847e-18)
(0.10637 0.161664 -5.50112e-17)
(-0.147702 0.153906 1.19527e-18)
(-0.142296 0.156309 -3.54312e-17)
(-0.13613 0.159283 3.01447e-18)
(-0.129967 0.162077 -1.99989e-17)
(-0.123803 0.1647 7.22822e-17)
(-0.117642 0.167158 -7.65326e-18)
(-0.111487 0.169456 -1.04823e-17)
(-0.10534 0.171599 -6.763e-18)
(-0.0992049 0.173594 -1.65084e-17)
(-0.0930832 0.175444 -3.91348e-17)
(-0.0869761 0.177153 5.77243e-17)
(-0.0808846 0.178728 8.67909e-18)
(-0.0748093 0.180171 9.32855e-18)
(-0.0687505 0.181488 -1.97795e-17)
(-0.0627083 0.182682 -3.07734e-17)
(-0.0566815 0.183756 3.80271e-17)
(-0.0506699 0.184714 1.09868e-17)
(-0.0446726 0.185558 -1.85884e-18)
(-0.0386883 0.186292 -1.7039e-17)
(-0.0327156 0.186916 2.77404e-18)
(-0.0267532 0.187434 -8.42171e-18)
(-0.0207993 0.187846 1.01421e-17)
(-0.0148519 0.188154 -1.398e-17)
(-0.0089092 0.188358 9.53516e-18)
(-0.00296951 0.18846 -2.34666e-17)