/*--------------------------------*- C++ -*----------------------------------*\
  =========                 |
  \\      /  F ield         | OpenFOAM: The Open Source CFD Toolbox
   \\    /   O peration     | Website:  https://openfoam.org
    \\  /    A nd           | Version:  7
     \\/     M anipulation  |
\*---------------------------------------------------------------------------*/
FoamFile
{
    version     2.0;
    format      ascii;
    class       volScalarField;
    location    "24000";
    object      nut;
}
// * * * * * * * * * * * * * * * * * * * * * * * * * * * * * * * * * * * * * //

dimensions      [0 2 -1 0 0 0 0];

internalField   nonuniform List<scalar> 
4764
(
4.19756e-15
4.19931e-15
4.20089e-15
4.2023e-15
4.20353e-15
4.20459e-15
4.16465e-15
4.16802e-15
4.17123e-15
4.17428e-15
4.17714e-15
4.17984e-15
4.18235e-15
4.18467e-15
4.18681e-15
4.18885e-15
4.19063e-15
4.19223e-15
4.19365e-15
4.1949e-15
4.19595e-15
4.19675e-15
4.19743e-15
4.19792e-15
4.19821e-15
4.19829e-15
4.19818e-15
4.19788e-15
4.19739e-15
4.19671e-15
4.19586e-15
4.19486e-15
4.19372e-15
4.19241e-15
4.19094e-15
4.15557e-15
4.15899e-15
4.16225e-15
4.16533e-15
4.16823e-15
4.17095e-15
4.17349e-15
4.17585e-15
4.17804e-15
4.18011e-15
4.18194e-15
4.18356e-15
4.18499e-15
4.18624e-15
4.18729e-15
4.18807e-15
4.18875e-15
4.18923e-15
4.18952e-15
4.18961e-15
4.1895e-15
4.1892e-15
4.18871e-15
4.18804e-15
4.18718e-15
4.18618e-15
4.18502e-15
4.1837e-15
4.1822e-15
4.18046e-15
4.17862e-15
4.17662e-15
4.17445e-15
4.14644e-15
4.14992e-15
4.15322e-15
4.15634e-15
4.15928e-15
4.16204e-15
4.16462e-15
4.16701e-15
4.16924e-15
4.17135e-15
4.1732e-15
4.17485e-15
4.1763e-15
4.17755e-15
4.1786e-15
4.17938e-15
4.18005e-15
4.18053e-15
4.18082e-15
4.18091e-15
4.18081e-15
4.18051e-15
4.18002e-15
4.17935e-15
4.17849e-15
4.17748e-15
4.17631e-15
4.17496e-15
4.17343e-15
4.17165e-15
4.16977e-15
4.16773e-15
4.16552e-15
4.16306e-15
4.16049e-15
4.15775e-15
4.15484e-15
4.15176e-15
4.14853e-15
4.14513e-15
4.14158e-15
4.13787e-15
4.13401e-15
4.13004e-15
4.12604e-15
4.13723e-15
4.14076e-15
4.14412e-15
4.14729e-15
4.15027e-15
4.15307e-15
4.15568e-15
4.15812e-15
4.16038e-15
4.16252e-15
4.16441e-15
4.16608e-15
4.16754e-15
4.16881e-15
4.16985e-15
4.17065e-15
4.17131e-15
4.1718e-15
4.17209e-15
4.17219e-15
4.17208e-15
4.17178e-15
4.1713e-15
4.17062e-15
4.16976e-15
4.16874e-15
4.16755e-15
4.16618e-15
4.16462e-15
4.16281e-15
4.16089e-15
4.15881e-15
4.15655e-15
4.15403e-15
4.15141e-15
4.14862e-15
4.14567e-15
4.14254e-15
4.13925e-15
4.1358e-15
4.13219e-15
4.12843e-15
4.12452e-15
4.12051e-15
4.11653e-15
4.12787e-15
4.13148e-15
4.13489e-15
4.13812e-15
4.14116e-15
4.144e-15
4.14666e-15
4.14914e-15
4.15144e-15
4.1536e-15
4.15552e-15
4.15722e-15
4.15871e-15
4.15998e-15
4.16104e-15
4.16185e-15
4.16252e-15
4.163e-15
4.1633e-15
4.1634e-15
4.1633e-15
4.163e-15
4.16251e-15
4.16183e-15
4.16097e-15
4.15993e-15
4.15873e-15
4.15733e-15
4.15574e-15
4.1539e-15
4.15195e-15
4.14983e-15
4.14751e-15
4.14494e-15
4.14226e-15
4.13943e-15
4.13642e-15
4.13324e-15
4.12989e-15
4.12638e-15
4.1227e-15
4.11887e-15
4.11491e-15
4.11088e-15
4.1069e-15
4.11835e-15
4.12203e-15
4.12552e-15
4.12881e-15
4.13191e-15
4.13481e-15
4.13751e-15
4.14004e-15
4.14239e-15
4.14457e-15
4.14652e-15
4.14825e-15
4.14976e-15
4.15105e-15
4.15212e-15
4.15296e-15
4.15363e-15
4.15412e-15
4.15442e-15
4.15452e-15
4.15442e-15
4.15412e-15
4.15363e-15
4.15295e-15
4.15208e-15
4.15103e-15
4.1498e-15
4.14838e-15
4.14675e-15
4.1449e-15
4.1429e-15
4.14073e-15
4.13836e-15
4.13575e-15
4.13301e-15
4.13012e-15
4.12705e-15
4.12381e-15
4.1204e-15
4.11682e-15
4.11308e-15
4.10918e-15
4.10517e-15
4.10112e-15
4.09713e-15
4.10864e-15
4.11241e-15
4.11597e-15
4.11933e-15
4.12248e-15
4.12544e-15
4.12821e-15
4.13078e-15
4.13317e-15
4.13539e-15
4.13738e-15
4.13914e-15
4.14067e-15
4.14199e-15
4.14308e-15
4.14394e-15
4.14462e-15
4.14511e-15
4.14542e-15
4.14552e-15
4.14542e-15
4.14513e-15
4.14463e-15
4.14394e-15
4.14306e-15
4.142e-15
4.14075e-15
4.1393e-15
4.13764e-15
4.13576e-15
4.13372e-15
4.1315e-15
4.12907e-15
4.12642e-15
4.12362e-15
4.12066e-15
4.11753e-15
4.11423e-15
4.11075e-15
4.1071e-15
4.10329e-15
4.09934e-15
4.0953e-15
4.09122e-15
4.08723e-15
4.09874e-15
4.10259e-15
4.10623e-15
4.10965e-15
4.11287e-15
4.11589e-15
4.11871e-15
4.12134e-15
4.12378e-15
4.12603e-15
4.12806e-15
4.12985e-15
4.13142e-15
4.13276e-15
4.13387e-15
4.13476e-15
4.13545e-15
4.13596e-15
4.13627e-15
4.13637e-15
4.13628e-15
4.13598e-15
4.13548e-15
4.13478e-15
4.13389e-15
4.13281e-15
4.13153e-15
4.13005e-15
4.12836e-15
4.12645e-15
4.12436e-15
4.12209e-15
4.11961e-15
4.11691e-15
4.11406e-15
4.11103e-15
4.10784e-15
4.10447e-15
4.10093e-15
4.09722e-15
4.09336e-15
4.08938e-15
4.08531e-15
4.08124e-15
4.07727e-15
4.08869e-15
4.09262e-15
4.09632e-15
4.0998e-15
4.10308e-15
4.10616e-15
4.10903e-15
4.11171e-15
4.11419e-15
4.11648e-15
4.11854e-15
4.12038e-15
4.12198e-15
4.12334e-15
4.12448e-15
4.1254e-15
4.12611e-15
4.12662e-15
4.12694e-15
4.12705e-15
4.12695e-15
4.12665e-15
4.12615e-15
4.12544e-15
4.12454e-15
4.12343e-15
4.12213e-15
4.12062e-15
4.11889e-15
4.11695e-15
4.11482e-15
4.1125e-15
4.10997e-15
4.10722e-15
4.10431e-15
4.10123e-15
4.09798e-15
4.09456e-15
4.09097e-15
4.08722e-15
4.08334e-15
4.07934e-15
4.07529e-15
4.07126e-15
4.06733e-15
4.07857e-15
4.08256e-15
4.0863e-15
4.08982e-15
4.09314e-15
4.09626e-15
4.09917e-15
4.10189e-15
4.10442e-15
4.10674e-15
4.10884e-15
4.1107e-15
4.11233e-15
4.11373e-15
4.11489e-15
4.11583e-15
4.11656e-15
4.11709e-15
4.11741e-15
4.11753e-15
4.11743e-15
4.11713e-15
4.11662e-15
4.1159e-15
4.11498e-15
4.11386e-15
4.11253e-15
4.11099e-15
4.10923e-15
4.10726e-15
4.10509e-15
4.10272e-15
4.10015e-15
4.09737e-15
4.09441e-15
4.09129e-15
4.08801e-15
4.08455e-15
4.08094e-15
4.07718e-15
4.0733e-15
4.06933e-15
4.06533e-15
4.06138e-15
4.05755e-15
4.06848e-15
4.0725e-15
4.07626e-15
4.07979e-15
4.08312e-15
4.08626e-15
4.0892e-15
4.09195e-15
4.09449e-15
4.09684e-15
4.09896e-15
4.10085e-15
4.10251e-15
4.10393e-15
4.10512e-15
4.10608e-15
4.10682e-15
4.10736e-15
4.10769e-15
4.10781e-15
4.10772e-15
4.10741e-15
4.1069e-15
4.10617e-15
4.10524e-15
4.1041e-15
4.10275e-15
4.10118e-15
4.0994e-15
4.0974e-15
4.0952e-15
4.0928e-15
4.0902e-15
4.0874e-15
4.08442e-15
4.08128e-15
4.07799e-15
4.07453e-15
4.07093e-15
4.0672e-15
4.06337e-15
4.05947e-15
4.05557e-15
4.05174e-15
4.04805e-15
4.05859e-15
4.06259e-15
4.06632e-15
4.06983e-15
4.07314e-15
4.07627e-15
4.0792e-15
4.08195e-15
4.0845e-15
4.08685e-15
4.08898e-15
4.09089e-15
4.09256e-15
4.09399e-15
4.0952e-15
4.09617e-15
4.09693e-15
4.09748e-15
4.09781e-15
4.09794e-15
4.09784e-15
4.09754e-15
4.09702e-15
4.09629e-15
4.09535e-15
4.09419e-15
4.09283e-15
4.09125e-15
4.08945e-15
4.08744e-15
4.08523e-15
4.08282e-15
4.08021e-15
4.07741e-15
4.07444e-15
4.07132e-15
4.06804e-15
4.06462e-15
4.06107e-15
4.05741e-15
4.05367e-15
4.04989e-15
4.04613e-15
4.04246e-15
4.03893e-15
4.04463e-15
4.04902e-15
4.05296e-15
4.05662e-15
4.06007e-15
4.06333e-15
4.06641e-15
4.06931e-15
4.07202e-15
4.07455e-15
4.07688e-15
4.079e-15
4.0809e-15
4.08257e-15
4.08401e-15
4.08522e-15
4.0862e-15
4.08696e-15
4.08751e-15
4.08785e-15
4.08797e-15
4.08788e-15
4.08758e-15
4.08706e-15
4.08633e-15
4.08538e-15
4.08423e-15
4.08286e-15
4.08128e-15
4.07948e-15
4.07748e-15
4.07527e-15
4.07288e-15
4.07029e-15
4.06752e-15
4.0646e-15
4.06152e-15
4.05831e-15
4.05496e-15
4.05151e-15
4.04795e-15
4.04434e-15
4.0407e-15
4.03709e-15
4.03358e-15
4.0302e-15
4.03561e-15
4.03985e-15
4.04371e-15
4.04729e-15
4.05065e-15
4.05383e-15
4.05683e-15
4.05966e-15
4.06231e-15
4.06479e-15
4.06707e-15
4.06916e-15
4.07103e-15
4.07268e-15
4.0741e-15
4.0753e-15
4.07628e-15
4.07704e-15
4.07758e-15
4.07792e-15
4.07804e-15
4.07795e-15
4.07765e-15
4.07713e-15
4.07641e-15
4.07547e-15
4.07432e-15
4.07297e-15
4.0714e-15
4.06963e-15
4.06765e-15
4.06548e-15
4.06312e-15
4.06059e-15
4.05788e-15
4.05503e-15
4.05203e-15
4.04891e-15
4.04567e-15
4.04232e-15
4.0389e-15
4.03541e-15
4.03192e-15
4.02845e-15
4.02506e-15
4.02179e-15
4.02698e-15
4.0311e-15
4.03488e-15
4.03837e-15
4.04164e-15
4.04472e-15
4.04762e-15
4.05037e-15
4.05294e-15
4.05534e-15
4.05756e-15
4.05959e-15
4.06141e-15
4.06302e-15
4.06441e-15
4.06558e-15
4.06654e-15
4.06729e-15
4.06783e-15
4.06815e-15
4.06827e-15
4.06818e-15
4.06789e-15
4.06738e-15
4.06667e-15
4.06575e-15
4.06462e-15
4.06329e-15
4.06176e-15
4.06003e-15
4.0581e-15
4.05598e-15
4.05369e-15
4.05123e-15
4.04861e-15
4.04584e-15
4.04294e-15
4.03992e-15
4.03679e-15
4.03356e-15
4.03024e-15
4.02687e-15
4.02347e-15
4.02008e-15
4.01674e-15
4.01348e-15
4.01464e-15
4.01858e-15
4.02264e-15
4.02638e-15
4.02982e-15
4.03302e-15
4.03602e-15
4.03884e-15
4.0415e-15
4.04398e-15
4.0463e-15
4.04845e-15
4.05041e-15
4.05217e-15
4.05372e-15
4.05507e-15
4.05621e-15
4.05714e-15
4.05786e-15
4.05838e-15
4.0587e-15
4.05881e-15
4.05872e-15
4.05843e-15
4.05794e-15
4.05725e-15
4.05635e-15
4.05526e-15
4.05397e-15
4.05248e-15
4.0508e-15
4.04893e-15
4.04689e-15
4.04467e-15
4.04229e-15
4.03975e-15
4.03707e-15
4.03427e-15
4.03133e-15
4.02828e-15
4.02512e-15
4.02187e-15
4.01853e-15
4.01514e-15
4.01173e-15
4.0083e-15
4.00487e-15
4.00593e-15
4.01007e-15
4.0142e-15
4.01799e-15
4.02146e-15
4.02466e-15
4.02763e-15
4.03041e-15
4.033e-15
4.03543e-15
4.03768e-15
4.03976e-15
4.04165e-15
4.04335e-15
4.04486e-15
4.04616e-15
4.04725e-15
4.04815e-15
4.04885e-15
4.04935e-15
4.04965e-15
4.04976e-15
4.04967e-15
4.04939e-15
4.04891e-15
4.04824e-15
4.04738e-15
4.04632e-15
4.04507e-15
4.04363e-15
4.042e-15
4.04019e-15
4.03821e-15
4.03606e-15
4.03374e-15
4.03127e-15
4.02865e-15
4.0259e-15
4.023e-15
4.01997e-15
4.0168e-15
4.0135e-15
4.01009e-15
4.00656e-15
4.00294e-15
3.99921e-15
3.99536e-15
3.9923e-15
3.99637e-15
4.00092e-15
4.00532e-15
4.00932e-15
4.01295e-15
4.01626e-15
4.0193e-15
4.02211e-15
4.02471e-15
4.02713e-15
4.02936e-15
4.0314e-15
4.03325e-15
4.03492e-15
4.03638e-15
4.03765e-15
4.03871e-15
4.03958e-15
4.04026e-15
4.04074e-15
4.04103e-15
4.04114e-15
4.04105e-15
4.04077e-15
4.04031e-15
4.03966e-15
4.03882e-15
4.03779e-15
4.03657e-15
4.03517e-15
4.03358e-15
4.03181e-15
4.02986e-15
4.02774e-15
4.02545e-15
4.02299e-15
4.02037e-15
4.01759e-15
4.01463e-15
4.0115e-15
4.00819e-15
4.00469e-15
4.001e-15
3.9971e-15
3.99299e-15
3.98863e-15
3.98395e-15
3.97986e-15
3.98498e-15
3.99028e-15
3.99525e-15
3.99973e-15
4.00373e-15
4.00733e-15
4.01059e-15
4.01356e-15
4.01628e-15
4.01878e-15
4.02106e-15
4.02313e-15
4.025e-15
4.02667e-15
4.02813e-15
4.02939e-15
4.03045e-15
4.03131e-15
4.03198e-15
4.03245e-15
4.03274e-15
4.03284e-15
4.03275e-15
4.03248e-15
4.03202e-15
4.03138e-15
4.03055e-15
4.02953e-15
4.02832e-15
4.02693e-15
4.02534e-15
4.02357e-15
4.02161e-15
4.01946e-15
4.01711e-15
4.01458e-15
4.01185e-15
4.0089e-15
4.00574e-15
4.00233e-15
3.99867e-15
3.99471e-15
3.99043e-15
3.9858e-15
3.98075e-15
3.97522e-15
3.96905e-15
3.96327e-15
3.97014e-15
3.97679e-15
3.98283e-15
3.98819e-15
3.99291e-15
3.99709e-15
4.00081e-15
4.00414e-15
4.00715e-15
4.00987e-15
4.01233e-15
4.01453e-15
4.01651e-15
4.01825e-15
4.01977e-15
4.02108e-15
4.02217e-15
4.02305e-15
4.02374e-15
4.02422e-15
4.02452e-15
4.02462e-15
4.02453e-15
4.02426e-15
4.0238e-15
4.02315e-15
4.0223e-15
4.02126e-15
4.02002e-15
4.01858e-15
4.01694e-15
4.01509e-15
4.01302e-15
4.01074e-15
4.00822e-15
4.00547e-15
4.00245e-15
3.99915e-15
3.99554e-15
3.99157e-15
3.9872e-15
3.98237e-15
3.97702e-15
3.97105e-15
3.96435e-15
3.95678e-15
3.94808e-15
3.93956e-15
3.94929e-15
3.95822e-15
3.96614e-15
3.97304e-15
3.97903e-15
3.98425e-15
3.98883e-15
3.99285e-15
3.99642e-15
3.9996e-15
4.00242e-15
4.00493e-15
4.00714e-15
4.00908e-15
4.01076e-15
4.01219e-15
4.01337e-15
4.01433e-15
4.01507e-15
4.0156e-15
4.01592e-15
4.01604e-15
4.01595e-15
4.01567e-15
4.01518e-15
4.01449e-15
4.01359e-15
4.01247e-15
4.01114e-15
4.00958e-15
4.00778e-15
4.00574e-15
4.00343e-15
4.00085e-15
3.99797e-15
3.99476e-15
3.99119e-15
3.9872e-15
3.98275e-15
3.97776e-15
3.97213e-15
3.96577e-15
3.95854e-15
3.95029e-15
3.94082e-15
3.92987e-15
3.91712e-15
3.90424e-15
3.91844e-15
3.93108e-15
3.94209e-15
3.95158e-15
3.95973e-15
3.96675e-15
3.9728e-15
3.97806e-15
3.98263e-15
3.98664e-15
3.99015e-15
3.99322e-15
3.99589e-15
3.99821e-15
4.0002e-15
4.00188e-15
4.00327e-15
4.00439e-15
4.00525e-15
4.00587e-15
4.00624e-15
4.00639e-15
4.00631e-15
4.00599e-15
4.00545e-15
4.00467e-15
4.00365e-15
4.00238e-15
4.00085e-15
3.99903e-15
3.99693e-15
3.9945e-15
3.99174e-15
3.98859e-15
3.98503e-15
3.981e-15
3.97642e-15
3.97123e-15
3.96531e-15
3.95854e-15
3.95078e-15
3.94183e-15
3.9315e-15
3.91954e-15
3.90567e-15
3.88955e-15
3.87077e-15
3.82833e-15
3.8515e-15
3.87212e-15
3.89028e-15
3.90606e-15
3.91963e-15
3.93127e-15
3.94123e-15
3.94976e-15
3.95708e-15
3.96338e-15
3.96882e-15
3.97353e-15
3.97759e-15
3.9811e-15
3.9841e-15
3.98665e-15
3.98879e-15
3.99055e-15
3.99197e-15
3.99306e-15
3.99384e-15
3.99433e-15
3.99452e-15
3.99444e-15
3.99408e-15
3.99343e-15
3.99249e-15
3.99124e-15
3.98968e-15
3.98777e-15
3.9855e-15
3.98283e-15
3.97973e-15
3.97614e-15
3.972e-15
3.96725e-15
3.96178e-15
3.95549e-15
3.94825e-15
3.93988e-15
3.93018e-15
3.91896e-15
3.90593e-15
3.89082e-15
3.87332e-15
3.85309e-15
3.82977e-15
3.80301e-15
3.70797e-15
3.74331e-15
3.77539e-15
3.80413e-15
3.82966e-15
3.85205e-15
3.87149e-15
3.88829e-15
3.90273e-15
3.91512e-15
3.92574e-15
3.93484e-15
3.94265e-15
3.94936e-15
3.9551e-15
3.96002e-15
3.96419e-15
3.96772e-15
3.97066e-15
3.97308e-15
3.97502e-15
3.97651e-15
3.97758e-15
3.97825e-15
3.97855e-15
3.97847e-15
3.97801e-15
3.97718e-15
3.97595e-15
3.9743e-15
3.97222e-15
3.96967e-15
3.9666e-15
3.96296e-15
3.95868e-15
3.95369e-15
3.94788e-15
3.94113e-15
3.9333e-15
3.92422e-15
3.9137e-15
3.90149e-15
3.88733e-15
3.87096e-15
3.85206e-15
3.83031e-15
3.80541e-15
3.77709e-15
3.74506e-15
3.70914e-15
3.58653e-15
3.63087e-15
3.67203e-15
3.7096e-15
3.74359e-15
3.77396e-15
3.80082e-15
3.8244e-15
3.84497e-15
3.86281e-15
3.87823e-15
3.89152e-15
3.90295e-15
3.91278e-15
3.92119e-15
3.92836e-15
3.93445e-15
3.93958e-15
3.94385e-15
3.94736e-15
3.95017e-15
3.95233e-15
3.95389e-15
3.95489e-15
3.95535e-15
3.95527e-15
3.95466e-15
3.9535e-15
3.95179e-15
3.94947e-15
3.94653e-15
3.94289e-15
3.93849e-15
3.93325e-15
3.92707e-15
3.91982e-15
3.91135e-15
3.9015e-15
3.89006e-15
3.87681e-15
3.86151e-15
3.84386e-15
3.8236e-15
3.80044e-15
3.7741e-15
3.74432e-15
3.71092e-15
3.67376e-15
3.63275e-15
3.58795e-15
3.44113e-15
3.49272e-15
3.54161e-15
3.58723e-15
3.6294e-15
3.66794e-15
3.70279e-15
3.73404e-15
3.76185e-15
3.78642e-15
3.80798e-15
3.82681e-15
3.8432e-15
3.8574e-15
3.86964e-15
3.88014e-15
3.88909e-15
3.89664e-15
3.90296e-15
3.90815e-15
3.91232e-15
3.91554e-15
3.91789e-15
3.9194e-15
3.92011e-15
3.92003e-15
3.91917e-15
3.91751e-15
3.91502e-15
3.91166e-15
3.90736e-15
3.90204e-15
3.89561e-15
3.88795e-15
3.87892e-15
3.86836e-15
3.85607e-15
3.84184e-15
3.82547e-15
3.80669e-15
3.78526e-15
3.76091e-15
3.7334e-15
3.70255e-15
3.66818e-15
3.63018e-15
3.58853e-15
3.54328e-15
3.49456e-15
3.44262e-15
3.27818e-15
3.33441e-15
3.38864e-15
3.44025e-15
3.48894e-15
3.53441e-15
3.57644e-15
3.61497e-15
3.65e-15
3.68159e-15
3.70986e-15
3.73499e-15
3.75722e-15
3.77676e-15
3.7938e-15
3.80858e-15
3.82129e-15
3.83212e-15
3.84124e-15
3.84877e-15
3.85486e-15
3.85959e-15
3.86305e-15
3.8653e-15
3.86637e-15
3.8663e-15
3.86508e-15
3.86269e-15
3.8591e-15
3.85423e-15
3.84803e-15
3.84038e-15
3.83116e-15
3.82023e-15
3.80745e-15
3.79262e-15
3.77553e-15
3.75599e-15
3.73379e-15
3.70872e-15
3.6806e-15
3.64922e-15
3.61448e-15
3.57632e-15
3.53472e-15
3.48972e-15
3.44147e-15
3.39017e-15
3.33609e-15
3.27958e-15
3.10518e-15
3.16339e-15
3.22027e-15
3.27528e-15
3.32805e-15
3.37823e-15
3.42549e-15
3.46966e-15
3.51062e-15
3.54829e-15
3.58265e-15
3.61378e-15
3.64178e-15
3.6668e-15
3.68896e-15
3.70843e-15
3.72539e-15
3.73999e-15
3.7524e-15
3.76275e-15
3.77117e-15
3.77776e-15
3.78261e-15
3.78578e-15
3.78732e-15
3.78726e-15
3.78558e-15
3.78228e-15
3.77731e-15
3.7706e-15
3.76207e-15
3.75162e-15
3.73911e-15
3.72443e-15
3.70741e-15
3.6879e-15
3.66571e-15
3.6407e-15
3.61273e-15
3.58168e-15
3.54746e-15
3.50999e-15
3.4693e-15
3.42546e-15
3.37856e-15
3.32878e-15
3.27638e-15
3.22163e-15
3.16486e-15
3.10643e-15
2.92899e-15
2.98698e-15
3.04417e-15
3.10012e-15
3.15449e-15
3.20689e-15
3.25698e-15
3.30453e-15
3.34933e-15
3.39121e-15
3.43006e-15
3.46582e-15
3.49852e-15
3.52817e-15
3.55482e-15
3.57857e-15
3.5995e-15
3.61775e-15
3.6334e-15
3.64658e-15
3.65739e-15
3.66591e-15
3.67222e-15
3.67637e-15
3.6784e-15
3.67834e-15
3.67619e-15
3.67193e-15
3.66552e-15
3.65689e-15
3.64598e-15
3.63271e-15
3.61697e-15
3.59866e-15
3.57767e-15
3.5539e-15
3.52723e-15
3.49759e-15
3.46494e-15
3.42924e-15
3.39054e-15
3.34884e-15
3.30427e-15
3.25701e-15
3.20722e-15
3.15515e-15
3.10109e-15
3.04533e-15
2.98821e-15
2.93006e-15
2.75581e-15
2.81134e-15
2.86687e-15
2.92185e-15
2.97577e-15
3.02825e-15
3.07896e-15
3.12764e-15
3.17408e-15
3.21803e-15
3.25933e-15
3.29784e-15
3.33351e-15
3.36627e-15
3.39608e-15
3.42296e-15
3.44692e-15
3.46801e-15
3.48628e-15
3.5018e-15
3.51461e-15
3.52478e-15
3.53234e-15
3.53734e-15
3.53981e-15
3.53976e-15
3.53719e-15
3.53209e-15
3.52444e-15
3.51418e-15
3.50128e-15
3.48569e-15
3.46734e-15
3.44619e-15
3.42219e-15
3.39531e-15
3.36548e-15
3.33273e-15
3.29711e-15
3.25866e-15
3.21749e-15
3.1737e-15
3.12746e-15
3.07902e-15
3.02856e-15
2.97635e-15
2.92268e-15
2.86784e-15
2.8124e-15
2.75669e-15
2.58924e-15
2.64193e-15
2.69458e-15
2.74685e-15
2.79834e-15
2.84895e-15
2.89857e-15
2.9466e-15
2.9928e-15
3.03693e-15
3.0788e-15
3.1182e-15
3.15506e-15
3.18923e-15
3.22062e-15
3.2492e-15
3.27489e-15
3.2977e-15
3.3176e-15
3.33461e-15
3.34875e-15
3.36003e-15
3.36846e-15
3.37405e-15
3.37682e-15
3.37677e-15
3.37392e-15
3.36824e-15
3.35974e-15
3.34838e-15
3.33418e-15
3.3171e-15
3.29712e-15
3.27427e-15
3.24856e-15
3.21999e-15
3.18858e-15
3.15441e-15
3.11761e-15
3.07825e-15
3.03651e-15
2.99251e-15
2.94647e-15
2.89864e-15
2.84922e-15
2.79887e-15
2.74752e-15
2.69543e-15
2.64281e-15
2.58998e-15
2.4307e-15
2.48007e-15
2.5295e-15
2.57873e-15
2.62742e-15
2.67539e-15
2.72238e-15
2.76806e-15
2.81228e-15
2.85491e-15
2.89588e-15
2.93471e-15
2.97126e-15
3.0054e-15
3.03697e-15
3.06591e-15
3.09209e-15
3.11547e-15
3.13599e-15
3.15362e-15
3.16834e-15
3.18013e-15
3.18896e-15
3.19484e-15
3.19776e-15
3.19772e-15
3.19473e-15
3.18878e-15
3.17989e-15
3.16804e-15
3.15326e-15
3.13557e-15
3.11499e-15
3.09157e-15
3.06538e-15
3.03646e-15
3.00487e-15
2.97074e-15
2.93422e-15
2.89543e-15
2.85458e-15
2.81207e-15
2.76799e-15
2.72244e-15
2.67562e-15
2.62786e-15
2.57929e-15
2.5302e-15
2.48078e-15
2.4313e-15
2.26884e-15
2.32558e-15
2.37303e-15
2.41891e-15
2.46438e-15
2.50931e-15
2.55343e-15
2.59647e-15
2.63829e-15
2.67866e-15
2.71744e-15
2.75431e-15
2.78922e-15
2.82192e-15
2.85239e-15
2.88067e-15
2.90637e-15
2.92942e-15
2.94972e-15
2.96724e-15
2.9819e-15
2.99368e-15
3.00252e-15
3.00842e-15
3.01136e-15
3.01133e-15
3.00833e-15
3.00237e-15
2.99348e-15
2.98165e-15
2.96694e-15
2.94938e-15
2.92902e-15
2.90594e-15
2.88024e-15
2.85198e-15
2.82148e-15
2.78874e-15
2.75391e-15
2.71705e-15
2.67841e-15
2.63813e-15
2.59643e-15
2.55349e-15
2.5095e-15
2.46475e-15
2.41937e-15
2.37361e-15
2.32532e-15
2.26857e-15
2.10821e-15
2.15564e-15
2.20385e-15
2.25332e-15
2.30385e-15
2.35218e-15
2.39319e-15
2.43328e-15
2.47232e-15
2.5101e-15
2.54646e-15
2.58114e-15
2.61406e-15
2.64501e-15
2.67387e-15
2.7006e-15
2.72491e-15
2.74681e-15
2.76616e-15
2.78285e-15
2.79684e-15
2.80814e-15
2.81662e-15
2.82229e-15
2.82509e-15
2.82508e-15
2.82221e-15
2.81649e-15
2.80799e-15
2.79665e-15
2.78258e-15
2.76582e-15
2.74645e-15
2.72457e-15
2.70023e-15
2.67354e-15
2.64465e-15
2.61368e-15
2.58081e-15
2.54614e-15
2.5099e-15
2.47219e-15
2.43325e-15
2.39324e-15
2.35234e-15
2.30389e-15
2.25324e-15
2.20372e-15
2.15543e-15
2.108e-15
1.97096e-15
2.01121e-15
2.0519e-15
2.09343e-15
2.1356e-15
2.17835e-15
2.22154e-15
2.26492e-15
2.30832e-15
2.35075e-15
2.38449e-15
2.41673e-15
2.4474e-15
2.47628e-15
2.50327e-15
2.52828e-15
2.55109e-15
2.57167e-15
2.58987e-15
2.6056e-15
2.61882e-15
2.62949e-15
2.63751e-15
2.64288e-15
2.64554e-15
2.64553e-15
2.64281e-15
2.6374e-15
2.62937e-15
2.61866e-15
2.60538e-15
2.58959e-15
2.57136e-15
2.55081e-15
2.52798e-15
2.503e-15
2.47599e-15
2.44709e-15
2.41646e-15
2.38422e-15
2.35058e-15
2.30853e-15
2.26511e-15
2.22166e-15
2.17842e-15
2.13563e-15
2.09335e-15
2.0518e-15
2.01105e-15
1.97079e-15
1.85208e-15
1.88666e-15
1.92146e-15
1.95683e-15
1.99257e-15
2.02863e-15
2.0649e-15
2.10115e-15
2.13725e-15
2.17301e-15
2.20821e-15
2.24264e-15
2.27607e-15
2.30825e-15
2.33896e-15
2.36535e-15
2.3865e-15
2.4056e-15
2.42252e-15
2.43715e-15
2.44947e-15
2.45941e-15
2.46689e-15
2.4719e-15
2.47438e-15
2.47438e-15
2.47184e-15
2.4668e-15
2.45931e-15
2.44933e-15
2.43697e-15
2.42229e-15
2.40535e-15
2.38627e-15
2.36511e-15
2.33914e-15
2.30843e-15
2.27624e-15
2.24281e-15
2.20837e-15
2.17318e-15
2.13742e-15
2.10132e-15
2.065e-15
2.02869e-15
1.99259e-15
1.95676e-15
1.92138e-15
1.88653e-15
1.85194e-15
1.74793e-15
1.77795e-15
1.80805e-15
1.83852e-15
1.8692e-15
1.90002e-15
1.93092e-15
1.96167e-15
1.99218e-15
2.02227e-15
2.05178e-15
2.08053e-15
2.10835e-15
2.13502e-15
2.16038e-15
2.18423e-15
2.20634e-15
2.22656e-15
2.24472e-15
2.26058e-15
2.27408e-15
2.28504e-15
2.29336e-15
2.29897e-15
2.30178e-15
2.30181e-15
2.29899e-15
2.29341e-15
2.28512e-15
2.27416e-15
2.26067e-15
2.24479e-15
2.22666e-15
2.20648e-15
2.18437e-15
2.16052e-15
2.13516e-15
2.10848e-15
2.08067e-15
2.0519e-15
2.02241e-15
1.99232e-15
1.96181e-15
1.931e-15
1.90007e-15
1.86922e-15
1.83846e-15
1.80799e-15
1.77784e-15
1.74781e-15
1.6558e-15
1.6821e-15
1.70838e-15
1.73489e-15
1.76149e-15
1.78813e-15
1.81475e-15
1.84116e-15
1.86729e-15
1.89296e-15
1.91806e-15
1.94243e-15
1.96594e-15
1.98842e-15
2.00973e-15
2.02971e-15
2.04819e-15
2.06504e-15
2.08014e-15
2.09331e-15
2.1045e-15
2.11357e-15
2.12045e-15
2.12508e-15
2.1274e-15
2.12743e-15
2.1251e-15
2.12048e-15
2.11363e-15
2.10456e-15
2.09338e-15
2.08019e-15
2.06512e-15
2.0483e-15
2.02983e-15
2.00985e-15
1.98854e-15
1.96605e-15
1.94254e-15
1.91815e-15
1.89308e-15
1.8674e-15
1.84129e-15
1.81483e-15
1.78817e-15
1.7615e-15
1.73483e-15
1.70833e-15
1.68201e-15
1.65571e-15
1.57134e-15
1.59686e-15
1.61997e-15
1.64323e-15
1.66651e-15
1.68973e-15
1.7129e-15
1.73581e-15
1.75842e-15
1.78058e-15
1.80217e-15
1.82309e-15
1.84322e-15
1.86242e-15
1.88058e-15
1.89756e-15
1.91323e-15
1.92749e-15
1.94026e-15
1.95137e-15
1.9608e-15
1.96844e-15
1.97422e-15
1.97812e-15
1.98006e-15
1.9801e-15
1.97813e-15
1.97425e-15
1.96849e-15
1.96085e-15
1.95143e-15
1.9403e-15
1.92757e-15
1.91333e-15
1.89766e-15
1.88068e-15
1.86253e-15
1.84332e-15
1.82318e-15
1.80224e-15
1.78067e-15
1.75852e-15
1.73593e-15
1.71297e-15
1.68977e-15
1.66651e-15
1.64318e-15
1.61993e-15
1.59678e-15
1.57149e-15
1.47994e-15
1.50536e-15
1.53076e-15
1.55607e-15
1.58116e-15
1.60242e-15
1.62275e-15
1.6428e-15
1.66255e-15
1.68185e-15
1.70061e-15
1.71874e-15
1.73617e-15
1.75275e-15
1.7684e-15
1.78299e-15
1.79645e-15
1.80867e-15
1.8196e-15
1.8291e-15
1.83717e-15
1.84368e-15
1.84861e-15
1.85193e-15
1.85359e-15
1.85362e-15
1.85193e-15
1.84863e-15
1.84372e-15
1.8372e-15
1.82915e-15
1.81964e-15
1.80874e-15
1.79654e-15
1.78309e-15
1.76849e-15
1.75284e-15
1.73625e-15
1.71882e-15
1.70065e-15
1.68192e-15
1.66263e-15
1.64291e-15
1.62281e-15
1.60246e-15
1.58124e-15
1.55616e-15
1.53091e-15
1.50549e-15
1.48006e-15
1.39476e-15
1.41811e-15
1.44142e-15
1.46462e-15
1.48761e-15
1.51027e-15
1.53264e-15
1.55451e-15
1.57585e-15
1.5943e-15
1.61074e-15
1.62659e-15
1.64181e-15
1.65627e-15
1.66989e-15
1.68255e-15
1.69423e-15
1.7048e-15
1.71427e-15
1.72247e-15
1.72944e-15
1.73506e-15
1.73931e-15
1.74217e-15
1.7436e-15
1.74364e-15
1.74217e-15
1.73932e-15
1.73509e-15
1.72947e-15
1.72252e-15
1.71429e-15
1.70486e-15
1.6943e-15
1.68264e-15
1.66996e-15
1.65635e-15
1.64188e-15
1.62666e-15
1.61077e-15
1.59436e-15
1.57583e-15
1.55455e-15
1.53269e-15
1.51034e-15
1.48767e-15
1.46469e-15
1.44154e-15
1.41821e-15
1.39487e-15
1.31535e-15
1.33679e-15
1.35818e-15
1.37946e-15
1.40052e-15
1.42127e-15
1.44176e-15
1.46178e-15
1.4813e-15
1.50018e-15
1.51836e-15
1.53576e-15
1.55234e-15
1.56799e-15
1.58257e-15
1.59366e-15
1.60386e-15
1.6131e-15
1.62136e-15
1.62851e-15
1.6346e-15
1.63948e-15
1.64318e-15
1.64568e-15
1.64692e-15
1.64696e-15
1.64567e-15
1.64319e-15
1.63952e-15
1.63461e-15
1.62856e-15
1.62138e-15
1.61315e-15
1.60393e-15
1.59374e-15
1.58256e-15
1.56794e-15
1.55229e-15
1.5357e-15
1.51826e-15
1.50013e-15
1.48128e-15
1.46183e-15
1.44181e-15
1.42134e-15
1.40057e-15
1.3795e-15
1.35828e-15
1.33687e-15
1.31543e-15
1.24141e-15
1.26095e-15
1.28059e-15
1.30011e-15
1.31941e-15
1.33842e-15
1.35719e-15
1.37551e-15
1.39337e-15
1.41064e-15
1.42726e-15
1.44316e-15
1.45832e-15
1.47261e-15
1.48597e-15
1.49831e-15
1.50961e-15
1.51978e-15
1.52886e-15
1.53668e-15
1.5433e-15
1.54861e-15
1.55263e-15
1.55532e-15
1.55666e-15
1.5567e-15
1.55529e-15
1.55259e-15
1.5486e-15
1.54325e-15
1.53663e-15
1.52878e-15
1.51974e-15
1.50956e-15
1.49828e-15
1.48592e-15
1.47258e-15
1.45828e-15
1.44312e-15
1.42717e-15
1.4106e-15
1.39336e-15
1.37557e-15
1.35723e-15
1.33848e-15
1.31945e-15
1.30013e-15
1.28067e-15
1.26101e-15
1.24146e-15
1.173e-15
1.19097e-15
1.20879e-15
1.22647e-15
1.24397e-15
1.26122e-15
1.27843e-15
1.29519e-15
1.31155e-15
1.32735e-15
1.34256e-15
1.35709e-15
1.37094e-15
1.384e-15
1.3962e-15
1.40746e-15
1.41778e-15
1.42706e-15
1.43535e-15
1.44248e-15
1.44854e-15
1.45338e-15
1.45704e-15
1.4595e-15
1.46073e-15
1.46077e-15
1.45947e-15
1.45702e-15
1.45337e-15
1.44849e-15
1.44245e-15
1.43529e-15
1.42704e-15
1.41775e-15
1.40745e-15
1.39617e-15
1.38398e-15
1.37092e-15
1.35706e-15
1.34246e-15
1.32731e-15
1.31155e-15
1.29527e-15
1.27847e-15
1.26128e-15
1.24401e-15
1.22652e-15
1.20884e-15
1.191e-15
1.17303e-15
1.10874e-15
1.12535e-15
1.14181e-15
1.15813e-15
1.17425e-15
1.19013e-15
1.20569e-15
1.22089e-15
1.23566e-15
1.24993e-15
1.26373e-15
1.27701e-15
1.28968e-15
1.30162e-15
1.31277e-15
1.32305e-15
1.33248e-15
1.34094e-15
1.34852e-15
1.35502e-15
1.36056e-15
1.36497e-15
1.36832e-15
1.37056e-15
1.37167e-15
1.37172e-15
1.37053e-15
1.36829e-15
1.36497e-15
1.36051e-15
1.355e-15
1.34846e-15
1.34093e-15
1.33244e-15
1.32304e-15
1.31274e-15
1.3016e-15
1.28967e-15
1.27699e-15
1.26364e-15
1.24992e-15
1.23565e-15
1.22089e-15
1.2057e-15
1.19015e-15
1.17428e-15
1.15816e-15
1.14185e-15
1.12538e-15
1.10877e-15
1.04822e-15
1.06361e-15
1.07885e-15
1.09393e-15
1.10883e-15
1.12348e-15
1.13783e-15
1.15183e-15
1.16542e-15
1.17855e-15
1.19116e-15
1.2032e-15
1.21465e-15
1.22541e-15
1.23547e-15
1.24477e-15
1.25327e-15
1.26093e-15
1.26782e-15
1.27375e-15
1.27882e-15
1.28283e-15
1.28589e-15
1.28794e-15
1.28895e-15
1.28901e-15
1.28791e-15
1.28587e-15
1.28284e-15
1.27877e-15
1.27374e-15
1.26777e-15
1.26091e-15
1.25325e-15
1.24475e-15
1.23546e-15
1.2254e-15
1.21463e-15
1.2032e-15
1.19115e-15
1.17854e-15
1.16541e-15
1.15183e-15
1.13784e-15
1.1235e-15
1.10886e-15
1.09396e-15
1.07888e-15
1.06364e-15
1.04824e-15
9.91057e-16
1.00536e-15
1.01949e-15
1.03347e-15
1.04726e-15
1.06082e-15
1.07408e-15
1.08701e-15
1.09955e-15
1.11165e-15
1.12327e-15
1.13436e-15
1.14488e-15
1.15478e-15
1.16402e-15
1.17256e-15
1.18036e-15
1.18739e-15
1.19361e-15
1.199e-15
1.20353e-15
1.20718e-15
1.20994e-15
1.21178e-15
1.2127e-15
1.2127e-15
1.21177e-15
1.20993e-15
1.20718e-15
1.20352e-15
1.19898e-15
1.1936e-15
1.18737e-15
1.18034e-15
1.17255e-15
1.16401e-15
1.15477e-15
1.14487e-15
1.13435e-15
1.12326e-15
1.11164e-15
1.09954e-15
1.08701e-15
1.07409e-15
1.06083e-15
1.04729e-15
1.0335e-15
1.01952e-15
1.00537e-15
9.91074e-16
9.36923e-16
9.50232e-16
9.63375e-16
9.76366e-16
9.89165e-16
1.00173e-15
1.01402e-15
1.02599e-15
1.03759e-15
1.04877e-15
1.0595e-15
1.06973e-15
1.07944e-15
1.08856e-15
1.09708e-15
1.10494e-15
1.11211e-15
1.11858e-15
1.1243e-15
1.12926e-15
1.13341e-15
1.13677e-15
1.1393e-15
1.14099e-15
1.14184e-15
1.14184e-15
1.14099e-15
1.13929e-15
1.13677e-15
1.13341e-15
1.12924e-15
1.12429e-15
1.11857e-15
1.1121e-15
1.10493e-15
1.09707e-15
1.08856e-15
1.07943e-15
1.06973e-15
1.05949e-15
1.04876e-15
1.03758e-15
1.02599e-15
1.01403e-15
1.00175e-15
9.89184e-16
9.76384e-16
9.63396e-16
9.50246e-16
9.36936e-16
8.85521e-16
8.97933e-16
9.10181e-16
9.22275e-16
9.34181e-16
9.45862e-16
9.57272e-16
9.68374e-16
9.79129e-16
9.89491e-16
9.99426e-16
1.00889e-15
1.01787e-15
1.0263e-15
1.03416e-15
1.04142e-15
1.04804e-15
1.054e-15
1.05927e-15
1.06384e-15
1.06767e-15
1.07076e-15
1.0731e-15
1.07465e-15
1.07543e-15
1.07543e-15
1.07465e-15
1.07309e-15
1.07076e-15
1.06767e-15
1.06383e-15
1.05927e-15
1.05399e-15
1.04803e-15
1.04141e-15
1.03415e-15
1.0263e-15
1.01786e-15
1.00889e-15
9.9942e-16
9.89486e-16
9.79126e-16
9.68374e-16
9.57277e-16
9.45872e-16
9.34196e-16
9.2229e-16
9.10198e-16
8.97944e-16
8.85531e-16
8.36592e-16
8.48189e-16
8.59624e-16
8.70906e-16
8.82004e-16
8.92883e-16
9.03502e-16
9.13827e-16
9.23821e-16
9.33443e-16
9.42664e-16
9.51446e-16
9.59762e-16
9.67571e-16
9.74849e-16
9.81566e-16
9.87689e-16
9.93203e-16
9.98076e-16
1.0023e-15
1.00583e-15
1.00869e-15
1.01084e-15
1.01228e-15
1.013e-15
1.013e-15
1.01228e-15
1.01084e-15
1.00869e-15
1.00583e-15
1.00229e-15
9.9807e-16
9.93196e-16
9.87683e-16
9.81559e-16
9.74844e-16
9.67569e-16
9.59756e-16
9.51444e-16
9.42659e-16
9.3344e-16
9.23818e-16
9.13826e-16
9.03506e-16
8.92891e-16
8.82016e-16
8.70918e-16
8.59637e-16
8.48198e-16
8.36599e-16
7.89908e-16
8.00761e-16
8.11456e-16
8.21999e-16
8.32363e-16
8.42515e-16
8.52418e-16
8.62039e-16
8.71346e-16
8.80301e-16
8.88877e-16
8.9704e-16
9.04766e-16
9.12016e-16
9.1877e-16
9.25001e-16
9.30678e-16
9.35788e-16
9.40304e-16
9.44211e-16
9.47489e-16
9.50131e-16
9.52123e-16
9.53452e-16
9.54118e-16
9.54117e-16
9.53451e-16
9.52119e-16
9.50129e-16
9.47485e-16
9.44204e-16
9.40298e-16
9.35782e-16
9.30673e-16
9.24995e-16
9.18766e-16
9.12015e-16
9.04761e-16
8.97038e-16
8.88873e-16
8.80298e-16
8.71344e-16
8.62039e-16
8.52421e-16
8.42521e-16
8.32373e-16
8.22009e-16
8.11466e-16
8.00768e-16
7.89914e-16
7.45273e-16
7.55445e-16
7.65461e-16
7.7533e-16
7.85024e-16
7.94513e-16
8.03764e-16
8.12746e-16
8.21429e-16
8.2978e-16
8.37772e-16
8.45375e-16
8.52567e-16
8.59313e-16
8.65595e-16
8.71387e-16
8.76663e-16
8.81409e-16
8.85603e-16
8.8923e-16
8.92272e-16
8.94724e-16
8.96572e-16
8.97805e-16
8.98423e-16