/*--------------------------------*- C++ -*----------------------------------*\
  =========                 |
  \\      /  F ield         | OpenFOAM: The Open Source CFD Toolbox
   \\    /   O peration     | Website:  https://openfoam.org
    \\  /    A nd           | Version:  7
     \\/     M anipulation  |
\*---------------------------------------------------------------------------*/
FoamFile
{
    version     2.0;
    format      ascii;
    class       volVectorField;
    location    "24000";
    object      vorticity;
}
// * * * * * * * * * * * * * * * * * * * * * * * * * * * * * * * * * * * * * //

dimensions      [0 0 -1 0 0 0 0];

internalField   nonuniform List<vector> 
4764
(
(0.000305574 0.000109898 1.53929e-18)
(0.000306646 9.9237e-05 -2.29079e-18)
(0.000307943 8.87305e-05 -5.62734e-19)
(0.000309224 7.82747e-05 -2.19793e-18)
(0.000310488 6.7849e-05 -2.28457e-18)
(0.000311967 5.74809e-05 1.94083e-18)
(0.000290971 0.000211605 1.26154e-18)
(0.000293838 0.000200362 -6.27465e-18)
(0.000296621 0.000189188 -4.75092e-18)
(0.000299292 0.000178093 1.00831e-18)
(0.000301833 0.000167049 1.20867e-19)
(0.000304217 0.00015603 -4.37278e-18)
(0.000306394 0.000145014 -2.41327e-18)
(0.000308255 0.000133982 1.88679e-19)
(0.000309523 0.00012295 4.21915e-18)
(0.000309538 0.000111583 1.08601e-18)
(0.000310564 0.000100615 -2.77084e-18)
(0.000311824 8.99058e-05 -9.37587e-19)
(0.000313125 7.92853e-05 -2.33377e-18)
(0.000314466 6.8691e-05 -2.37425e-18)
(0.00031605 5.80714e-05 1.61693e-18)
(0.000318595 4.7647e-05 -1.10043e-19)
(0.000319805 3.7045e-05 -1.63555e-18)
(0.000320423 2.62703e-05 1.60345e-18)
(0.000320709 1.54823e-05 -9.43811e-19)
(0.000320773 4.71856e-06 -6.20769e-19)
(0.000320655 -6.01406e-06 4.13634e-18)
(0.000320372 -1.67169e-05 5.33616e-18)
(0.000319923 -2.73916e-05 4.93099e-18)
(0.0003193 -3.80332e-05 1.53921e-18)
(0.000318488 -4.85892e-05 3.12833e-18)
(0.000317617 -5.90746e-05 7.12635e-19)
(0.000316698 -6.96137e-05 1.62676e-18)
(0.00031569 -8.02291e-05 1.36054e-18)
(0.000314892 -9.09673e-05 -3.73338e-18)
(0.000295399 0.000215049 1.34018e-18)
(0.000298198 0.000203538 -6.33721e-18)
(0.000300892 0.000192089 -5.51672e-18)
(0.000303471 0.000180736 4.26146e-19)
(0.000305923 0.000169453 -4.73513e-19)
(0.00030822 0.000158217 -5.20511e-18)
(0.000310307 0.000147007 -2.72877e-18)
(0.000312077 0.000135816 9.70499e-20)
(0.000313317 0.000124706 3.8848e-18)
(0.000314032 0.000113401 8.64506e-19)
(0.000315092 0.000102176 -2.79269e-18)
(0.00031632 9.12441e-05 -7.57993e-19)
(0.000317618 8.04281e-05 -2.1234e-18)
(0.000318983 6.96377e-05 -2.40647e-18)
(0.00032053 5.87679e-05 1.38653e-18)
(0.000322349 4.8093e-05 -1.95053e-19)
(0.00032356 3.74495e-05 -1.56233e-18)
(0.000324242 2.6591e-05 1.7453e-18)
(0.000324575 1.56898e-05 -6.70102e-19)
(0.000324664 4.79938e-06 -5.63859e-19)
(0.000324558 -6.06538e-06 4.10708e-18)
(0.000324276 -1.69018e-05 5.54825e-18)
(0.000323823 -2.77095e-05 4.74116e-18)
(0.000323188 -3.84811e-05 1.07613e-18)
(0.00032236 -4.91753e-05 2.89101e-18)
(0.000321495 -5.98168e-05 5.79962e-19)
(0.000320642 -7.05255e-05 1.58512e-18)
(0.000319729 -8.13421e-05 1.09087e-18)
(0.000319032 -9.23908e-05 -4.02552e-18)
(0.000319373 -0.000103768 -4.14575e-18)
(0.000318423 -0.000114841 -3.20501e-18)
(0.000316992 -0.000125956 -7.65837e-19)
(0.000315634 -0.000137241 -6.26136e-19)
(0.000301118 0.000219357 1.53153e-18)
(0.000303786 0.000207488 -6.21046e-18)
(0.000306336 0.000195685 -6.21934e-18)
(0.00030877 0.000183998 8.4939e-21)
(0.000311083 0.000172408 -6.13212e-19)
(0.000313247 0.000160892 -5.62263e-18)
(0.000315209 0.000149433 -2.5453e-18)
(0.00031688 0.000138033 5.03502e-19)
(0.000318153 0.000126761 3.78964e-18)
(0.000319501 0.000115465 7.33991e-19)
(0.000320619 0.000104027 -2.52538e-18)
(0.000321813 9.28446e-05 -2.38953e-19)
(0.00032308 8.17936e-05 -1.84703e-18)
(0.000324415 7.07724e-05 -2.4511e-18)
(0.000325832 5.96744e-05 1.24796e-18)
(0.000326935 4.87215e-05 -2.98409e-19)
(0.000328048 3.7932e-05 -1.71243e-18)
(0.00032875 2.69573e-05 1.70565e-18)
(0.000329113 1.59229e-05 -3.84607e-19)
(0.000329223 4.88748e-06 -4.48338e-19)
(0.000329129 -6.12804e-06 4.17157e-18)
(0.000328854 -1.71174e-05 5.82207e-18)
(0.000328404 -2.80781e-05 4.698e-18)
(0.000327774 -3.90021e-05 7.99558e-19)
(0.000326963 -4.98617e-05 3.09307e-18)
(0.000326127 -6.06896e-05 9.9639e-19)
(0.000325332 -7.15947e-05 1.78865e-18)
(0.000324505 -8.26336e-05 9.27813e-19)
(0.000323823 -9.39509e-05 -3.99536e-18)
(0.000323489 -0.000105318 -4.18111e-18)
(0.000322625 -0.000116501 -3.34823e-18)
(0.000321385 -0.000127854 -7.76321e-19)
(0.000320223 -0.000139524 -4.32889e-19)
(0.00032009 -0.000151734 -2.83712e-18)
(0.000318625 -0.000163519 -6.88782e-18)
(0.000316588 -0.000175303 -2.95702e-18)
(0.000314276 -0.000187114 -3.06202e-18)
(0.000311809 -0.000198995 -9.01298e-19)
(0.000309243 -0.000210989 1.6623e-18)
(0.000306599 -0.000223132 3.59109e-18)
(0.000303856 -0.000235432 2.26914e-18)
(0.00030092 -0.000247812 2.2233e-18)
(0.000297576 -0.000259988 -4.29301e-19)
(0.000293465 -0.000271268 -7.73726e-20)
(0.000295427 -0.000273262 5.07936e-18)
(0.00030854 0.000224813 1.61492e-18)
(0.000311017 0.000212478 -5.9557e-18)
(0.000313381 0.00020023 -6.89773e-18)
(0.000315632 0.000188124 -4.57162e-19)
(0.000317767 0.000176146 -5.10033e-19)
(0.00031976 0.000164274 -5.80688e-18)
(0.000321566 0.000152495 -2.1631e-18)
(0.000323124 0.000140816 1.17797e-18)
(0.000324424 0.000129294 3.79952e-18)
(0.000326011 0.000117834 5.70716e-19)
(0.000327173 0.000106176 -2.08826e-18)
(0.00032832 9.47159e-05 3.70935e-19)
(0.000329523 8.33919e-05 -1.75185e-18)
(0.000330776 7.21073e-05 -2.51001e-18)
(0.000332014 6.07729e-05 1.19863e-18)
(0.000332747 4.95582e-05 -3.67109e-19)
(0.000333708 3.8547e-05 -1.99094e-18)
(0.000334388 2.74065e-05 1.51987e-18)
(0.000334763 1.62028e-05 -8.86794e-20)
(0.000334888 4.98974e-06 -2.18254e-19)
(0.000334806 -6.20876e-06 4.32559e-18)
(0.000334542 -1.73839e-05 6.02485e-18)
(0.000334106 -2.85317e-05 4.67607e-18)
(0.000333496 -3.96454e-05 6.66389e-19)
(0.000332731 -5.07106e-05 3.45212e-18)
(0.000331947 -6.17654e-05 1.66893e-18)
(0.000331211 -7.29061e-05 2.16899e-18)
(0.00033046 -8.41982e-05 7.95829e-19)
(0.000329763 -9.57456e-05 -3.75252e-18)
(0.000328814 -0.000107157 -3.97441e-18)
(0.000327975 -0.000118545 -3.40424e-18)
(0.000326906 -0.000130179 -9.57867e-19)
(0.000325866 -0.000142202 -4.8202e-19)
(0.000325159 -0.000154401 -2.54872e-18)
(0.000323861 -0.000166383 -6.82369e-18)
(0.000322051 -0.000178472 -3.30094e-18)
(0.000319964 -0.000190638 -4.21517e-18)
(0.000317715 -0.000202911 -1.58232e-18)
(0.000315358 -0.000215327 1.67064e-18)
(0.000312905 -0.000227911 3.25339e-18)
(0.000310315 -0.000240644 1.50265e-18)
(0.000307472 -0.000253402 2.06819e-18)
(0.000304156 -0.000265847 -3.06993e-20)
(0.00030009 -0.000277303 3.66122e-19)
(0.000302455 -0.000279756 4.71138e-18)
(0.00031754 0.000231357 1.42401e-18)
(0.00031979 0.000218464 -5.66305e-18)
(0.000321959 0.000205698 -7.63409e-18)
(0.000324022 0.000193107 -1.09833e-18)
(0.000325967 0.000180674 -3.67043e-19)
(0.000327773 0.000168379 -6.03791e-18)
(0.000329408 0.000156212 -1.91336e-18)
(0.00033084 0.000144184 1.93857e-18)
(0.000332128 0.000132334 3.91262e-18)
(0.000333724 0.000120587 4.57699e-19)
(0.00033489 0.000108668 -1.54152e-18)
(0.00033597 9.68958e-05 9.44183e-19)
(0.000337078 8.52587e-05 -1.83905e-18)
(0.000338209 7.36749e-05 -2.49681e-18)
(0.00033925 6.20769e-05 1.25797e-18)
(0.000339792 5.05899e-05 -4.56543e-19)
(0.000340586 3.93042e-05 -2.28442e-18)
(0.00034121 2.7947e-05 1.33873e-18)
(0.000341576 1.65341e-05 2.72068e-19)
(0.000341707 5.10764e-06 1.26838e-19)
(0.000341637 -6.30864e-06 4.49982e-18)
(0.00034139 -1.77048e-05 6.13706e-18)
(0.000340977 -2.90765e-05 4.75631e-18)
(0.000340407 -4.04196e-05 5.87924e-19)
(0.000339708 -5.17317e-05 3.68296e-18)
(0.000338996 -6.30538e-05 2.35694e-18)
(0.000338329 -7.44707e-05 2.53439e-18)
(0.000337652 -8.60476e-05 5.78173e-19)
(0.000336937 -9.78334e-05 -3.48563e-18)
(0.000335771 -0.000109445 -3.64065e-18)
(0.00033495 -0.000121126 -3.3793e-18)
(0.000334029 -0.000133094 -1.25347e-18)
(0.000333074 -0.00014544 -6.86195e-19)
(0.000331836 -0.0001577 -2.53572e-18)
(0.00033063 -0.000169977 -6.74045e-18)
(0.000329031 -0.000182431 -3.11443e-18)
(0.000327165 -0.000195011 -4.777e-18)
(0.000325125 -0.000207732 -1.77144e-18)
(0.000322952 -0.000220616 1.90206e-18)
(0.000320641 -0.000233667 2.84842e-18)
(0.000318132 -0.000246835 8.63426e-19)
(0.000315288 -0.000259951 2.33764e-18)
(0.000311901 -0.00027264 5.15283e-19)
(0.000307789 -0.000284296 1.11516e-18)
(0.000310393 -0.00028729 4.59261e-18)
(0.000327816 0.000238807 9.5649e-19)
(0.000329864 0.000225305 -5.35399e-18)
(0.000331894 0.000211992 -8.29232e-18)
(0.00033382 0.000198887 -1.73668e-18)
(0.000335616 0.000185963 -1.97379e-19)
(0.000337264 0.0001732 -6.33456e-18)
(0.000338745 0.000160594 -1.73623e-18)
(0.00034006 0.000148157 2.86876e-18)
(0.000341303 0.000135913 4.13224e-18)
(0.000342796 0.00012379 3.41235e-19)
(0.000343926 0.000111554 -9.25269e-19)
(0.000344923 9.94298e-05 1.43802e-18)
(0.000345914 8.74373e-05 -2.11616e-18)
(0.000346898 7.55145e-05 -2.42817e-18)
(0.000347749 6.36134e-05 1.46031e-18)
(0.000348181 5.18242e-05 -5.22177e-19)
(0.000348814 4.02197e-05 -2.51905e-18)
(0.00034936 2.85931e-05 1.14865e-18)
(0.000349699 1.69254e-05 6.40385e-19)
(0.000349827 5.24412e-06 5.6615e-19)
(0.000349767 -6.43012e-06 4.598e-18)
(0.000349541 -1.80877e-05 6.12537e-18)
(0.000349162 -2.97252e-05 5.01249e-18)
(0.000348645 -4.13421e-05 5.8235e-19)
(0.000348027 -5.29456e-05 3.76822e-18)
(0.000347401 -6.45784e-05 3.11149e-18)
(0.000346812 -7.6315e-05 2.86994e-18)
(0.000346208 -8.82131e-05 2.95035e-19)
(0.000345497 -0.000100276 -3.21444e-18)
(0.000344333 -0.000112199 -3.29579e-18)
(0.000343544 -0.000124244 -3.25532e-18)
(0.000342741 -0.000136592 -1.49296e-18)
(0.000341836 -0.000149272 -8.28003e-19)
(0.00034042 -0.000161793 -2.61444e-18)
(0.000339255 -0.000174448 -6.73131e-18)
(0.00033781 -0.000187319 -2.80082e-18)
(0.000336106 -0.000200354 -4.86242e-18)
(0.000334199 -0.000213547 -1.52819e-18)
(0.000332109 -0.0002269 2.39352e-18)
(0.000329809 -0.00024039 2.53284e-18)
(0.000327217 -0.000253929 4.31596e-19)
(0.000324183 -0.000267302 2.77689e-18)
(0.000320517 -0.000280117 1.03255e-18)
(0.000316135 -0.000291865 2.10759e-18)
(0.000318636 -0.000295221 4.57995e-18)
(0.000338744 0.000246762 2.12491e-19)
(0.00034072 0.000232678 -5.13794e-18)
(0.000342761 0.000218863 -8.86264e-18)
(0.000344689 0.000205278 -2.34225e-18)
(0.000346453 0.000191879 -1.43068e-19)
(0.000348039 0.000178648 -6.67121e-18)
(0.000349443 0.000165585 -1.63965e-18)
(0.000350693 0.000152704 3.83985e-18)
(0.000351899 0.000140021 4.45136e-18)
(0.000353271 0.000127467 1.9451e-19)
(0.000354352 0.00011486 -3.34145e-19)
(0.00035527 0.000102345 1.84528e-18)
(0.000356146 8.99565e-05 -2.4654e-18)
(0.000356984 7.76538e-05 -2.31282e-18)
(0.000357667 6.54044e-05 1.73537e-18)
(0.000358025 5.32724e-05 -5.36885e-19)
(0.000358517 4.13071e-05 -2.68071e-18)
(0.000358976 2.93577e-05 9.70112e-19)
(0.000359277 1.73851e-05 1.03261e-18)
(0.000359396 5.40213e-06 1.04313e-18)
(0.000359345 -6.57555e-06 4.5519e-18)
(0.000359141 -1.85401e-05 5.9719e-18)
(0.000358801 -3.04899e-05 5.38822e-18)
(0.000358344 -4.24286e-05 6.69079e-19)
(0.000357809 -5.43708e-05 3.83174e-18)
(0.000357271 -6.63595e-05 3.9647e-18)
(0.00035676 -7.84598e-05 3.16091e-18)
(0.00035622 -9.07184e-05 -2.23198e-20)
(0.000355529 -0.000103111 -2.97648e-18)
(0.000354458 -0.000115422 -3.04926e-18)
(0.0003537 -0.000127884 -3.02378e-18)
(0.000352964 -0.000140645 -1.61428e-18)
(0.000352061 -0.000153681 -9.15674e-19)
(0.00035061 -0.000166575 -2.68655e-18)
(0.000349414 -0.000179646 -6.86128e-18)
(0.000348006 -0.000192944 -2.78083e-18)
(0.000346329 -0.000206415 -4.81657e-18)
(0.000344393 -0.000220033 -1.16543e-18)
(0.000342191 -0.000233771 2.92916e-18)
(0.000339671 -0.000247574 2.29946e-18)
(0.00033673 -0.000261309 2.51619e-19)
(0.00033321 -0.00027472 3.17313e-18)
(0.000328955 -0.00028741 1.38039e-18)
(0.000323961 -0.000298973 3.17785e-18)
(0.000325869 -0.000302293 4.50481e-18)
(0.000349289 0.000254534 -9.15787e-19)
(0.00035146 0.00024001 -5.2104e-18)
(0.000353779 0.000225837 -9.54038e-18)
(0.00035595 0.000211896 -2.99023e-18)
(0.000357897 0.000198117 -2.72068e-19)
(0.000359606 0.000184482 -7.02975e-18)
(0.00036109 0.000170999 -1.6349e-18)
(0.000362399 0.000157689 4.66309e-18)
(0.000363645 0.000144562 4.91172e-18)
(0.00036496 0.000131559 1.18951e-19)
(0.000366033 0.000118548 1.85829e-19)
(0.000366916 0.000105615 2.12527e-18)
(0.000367717 9.28023e-05 -2.87355e-18)
(0.000368442 8.00861e-05 -2.14258e-18)
(0.000369003 6.74474e-05 2.04979e-18)
(0.000369316 5.4931e-05 -5.15574e-19)
(0.000369701 4.25658e-05 -2.81893e-18)
(0.00037008 3.02433e-05 7.82006e-19)
(0.000370342 1.79155e-05 1.42911e-18)
(0.000370449 5.58277e-06 1.50224e-18)
(0.000370404 -6.74543e-06 4.35876e-18)
(0.000370221 -1.90638e-05 5.67508e-18)
(0.000369917 -3.13731e-05 5.72868e-18)
(0.000369514 -4.36807e-05 8.39506e-19)
(0.00036905 -5.60066e-05 4.00288e-18)
(0.00036858 -6.83929e-05 4.92601e-18)
(0.000368122 -8.08952e-05 3.4382e-18)
(0.000367615 -9.35485e-05 -3.14931e-19)
(0.000366929 -0.000106315 -2.79824e-18)
(0.000365942 -0.000119058 -3.00677e-18)
(0.000365169 -0.000131962 -2.74531e-18)
(0.000364403 -0.000145142 -1.58324e-18)
(0.000363409 -0.000158538 -9.68601e-19)
(0.000361895 -0.000171833 -2.77099e-18)
(0.000360532 -0.000185296 -7.22614e-18)
(0.000358965 -0.000198961 -3.18834e-18)
(0.000357084 -0.00021277 -4.78949e-18)
(0.000354856 -0.000226672 -7.71535e-19)
(0.000352241 -0.000240608 3.34527e-18)
(0.000349167 -0.000254481 2.06844e-18)
(0.000345513 -0.000268115 2.74478e-19)
(0.000341129 -0.00028122 3.6297e-18)
(0.000335896 -0.000293411 1.76173e-18)
(0.000329883 -0.000304373 4.24505e-18)
(0.000330655 -0.000307145 4.38617e-18)
(0.000358013 0.000261146 -2.35216e-18)
(0.000360797 0.00024646 -5.54582e-18)
(0.000363764 0.000232192 -1.03969e-17)
(0.00036652 0.000218123 -3.62711e-18)
(0.000368961 0.000204154 -5.40479e-19)
(0.000371074 0.000190265 -7.45181e-18)
(0.000372885 0.000176477 -1.67544e-18)
(0.00037446 0.000162816 5.30876e-18)
(0.000375911 0.000149299 5.48647e-18)
(0.000377323 0.000135881 9.22547e-20)
(0.000378497 0.000122474 6.32048e-19)
(0.000379448 0.000109128 2.17972e-18)
(0.000380262 9.58871e-05 -3.37144e-18)
(0.000380957 8.27438e-05 -1.84581e-18)
(0.000381473 6.96908e-05 2.34149e-18)
(0.000381786 5.67603e-05 -5.49165e-19)
(0.000382117 4.39668e-05 -3.00648e-18)
(0.000382445 3.12322e-05 5.73522e-19)
(0.00038268 1.85074e-05 1.78301e-18)
(0.00038278 5.78321e-06 1.88542e-18)
(0.00038274 -6.93638e-06 4.08963e-18)
(0.00038257 -1.96489e-05 5.27903e-18)
(0.000382286 -3.23571e-05 5.88914e-18)
(0.000381911 -4.50716e-05 1.06235e-18)
(0.00038148 -5.78148e-05 4.25307e-18)
(0.000381032 -7.06263e-05 5.95878e-18)
(0.000380567 -8.35524e-05 3.78066e-18)
(0.000380021 -9.66161e-05 -5.82037e-19)
(0.000379273 -0.000109777 -2.64935e-18)
(0.000378273 -0.000122953 -3.14491e-18)
(0.000377371 -0.000136282 -2.55391e-18)
(0.000376417 -0.000149843 -1.44936e-18)
(0.000375166 -0.000163555 -9.51029e-19)
(0.000373418 -0.000177188 -2.80548e-18)
(0.000371664 -0.000190938 -7.91672e-18)
(0.000369652 -0.000204823 -3.97609e-18)
(0.000367242 -0.000218775 -4.84605e-18)
(0.000364365 -0.000232716 -3.73688e-19)
(0.000360955 -0.000246552 3.70738e-18)
(0.000356921 -0.000260145 1.80872e-18)
(0.000352142 -0.000273282 3.67883e-19)
(0.00034649 -0.000285654 4.13314e-18)
(0.000339902 -0.000296903 2.21558e-18)
(0.000332512 -0.0003068 5.22181e-18)
(0.000331698 -0.00030855 4.47778e-18)
(0.000363281 0.000265452 -3.80037e-18)
(0.000367184 0.000251008 -6.07974e-18)
(0.000371216 0.000237007 -1.14955e-17)
(0.000374947 0.000223132 -4.24847e-18)
(0.000378258 0.000209253 -9.788e-19)
(0.000381128 0.000195352 -8.06099e-18)
(0.000383591 0.000181457 -1.69745e-18)
(0.000385722 0.000167607 5.91113e-18)
(0.000387627 0.000153828 5.99957e-18)
(0.000389369 0.000140095 -9.24179e-20)
(0.000390834 0.000126358 9.32149e-19)
(0.00039202 0.000112652 1.89667e-18)
(0.000392997 9.90202e-05 -3.94028e-18)
(0.000393794 8.54725e-05 -1.33674e-18)
(0.000394382 7.20122e-05 2.5666e-18)
(0.000394776 5.86653e-05 -7.81348e-19)
(0.000395132 4.54385e-05 -3.28999e-18)
(0.00039546 3.22759e-05 3.62197e-19)
(0.000395698 1.91327e-05 1.99059e-18)
(0.000395803 5.99453e-06 2.09364e-18)
(0.000395765 -7.13901e-06 3.82332e-18)
(0.000395592 -2.02672e-05 4.85702e-18)
(0.000395299 -3.3394e-05 5.85737e-18)
(0.000394905 -4.65308e-05 1.33526e-18)
(0.00039444 -5.97003e-05 4.45053e-18)
(0.000393926 -7.29372e-05 6.97107e-18)
(0.000393352 -8.62773e-05 4.26553e-18)
(0.000392647 -9.97321e-05 -8.73822e-19)
(0.000391706 -0.000113263 -2.44184e-18)
(0.000390516 -0.00012682 -3.33958e-18)
(0.000389295 -0.000140497 -2.58473e-18)
(0.000387925 -0.000154338 -1.32369e-18)
(0.000386174 -0.000168251 -7.25755e-19)
(0.000383912 -0.00018207 -2.66142e-18)
(0.000381463 -0.000195913 -8.92279e-18)
(0.000378652 -0.000209779 -5.11806e-18)
(0.00037533 -0.000223588 -5.08048e-18)
(0.000371403 -0.000237234 4.06954e-20)
(0.000366794 -0.000250593 4.24766e-18)
(0.000361409 -0.000263495 1.65159e-18)
(0.000355147 -0.000275705 4.82377e-19)
(0.000347923 -0.000286923 4.58226e-18)
(0.000339748 -0.000296841 2.58405e-18)
(0.000330824 -0.000305317 6.09163e-18)
(0.000328256 -0.00030579 4.89392e-18)
(0.000363685 0.000266405 -5.06787e-18)
(0.000369147 0.000252669 -6.91525e-18)
(0.000374586 0.000239325 -1.28735e-17)
(0.000379637 0.000226005 -4.83844e-18)
(0.000384171 0.000212554 -1.5887e-18)
(0.000388156 0.000198947 -8.90934e-18)
(0.000391619 0.000185219 -1.66223e-18)
(0.000394634 0.000171417 6.51232e-18)
(0.000397296 0.000157579 6.29741e-18)
(0.000399658 0.000143704 -6.33747e-19)
(0.000401664 0.000129773 9.58944e-19)
(0.000403309 0.000115821 1.32421e-18)
(0.000404654 0.000101894 -4.53549e-18)
(0.000405734 8.80162e-05 -6.71107e-19)
(0.000406552 7.42036e-05 2.66743e-18)
(0.000407144 6.04814e-05 -1.33793e-18)
(0.000407628 4.68553e-05 -3.67501e-18)
(0.000408033 3.32874e-05 1.97613e-19)
(0.000408319 1.97407e-05 1.96858e-18)
(0.00040845 6.20007e-06 2.02123e-18)
(0.000408414 -7.3363e-06 3.61681e-18)
(0.000408215 -2.08677e-05 4.47355e-18)
(0.000407865 -3.4397e-05 5.72059e-18)
(0.000407382 -4.79342e-05 1.55858e-18)
(0.000406785 -6.14987e-05 4.43165e-18)
(0.000406084 -7.51176e-05 7.90566e-18)
(0.000405253 -8.88149e-05 4.85583e-18)
(0.000404222 -0.00010259 -1.2501e-18)
(0.000402898 -0.000116406 -2.18645e-18)
(0.00040128 -0.000130228 -3.53115e-18)
(0.000399491 -0.000144109 -2.91896e-18)
(0.000397425 -0.000158061 -1.25713e-18)
(0.00039488 -0.000171984 -2.12999e-19)
(0.000391771 -0.000185751 -2.24776e-18)
(0.000388294 -0.000199417 -1.00887e-17)
(0.000384329 -0.000212959 -6.47262e-18)
(0.000379735 -0.000226283 -5.61279e-18)
(0.000374419 -0.000239268 3.6428e-19)
(0.000368306 -0.00025177 4.98496e-18)
(0.000361327 -0.000263609 1.63944e-18)
(0.000353423 -0.000274556 6.47094e-19)
(0.000344579 -0.000284349 4.90549e-18)
(0.000334894 -0.000292763 2.57012e-18)
(0.000324638 -0.000299751 6.80934e-18)
(0.000320595 -0.000299085 5.65827e-18)
(0.000358644 0.000263462 -6.06147e-18)
(0.000365792 0.00025083 -7.95162e-18)
(0.000372745 0.000238445 -1.45361e-17)
(0.000379268 0.000225982 -5.51016e-18)
(0.00038523 0.00021327 -2.27274e-18)
(0.000390574 0.000200269 -1.00672e-17)
(0.00039531 0.000187007 -1.69339e-18)
(0.000399492 0.000173534 7.08308e-18)
(0.000403195 0.000159896 6.39134e-18)
(0.000406462 0.000146112 -1.58651e-18)
(0.00040927 0.000132189 6.2712e-19)
(0.000411618 0.000118169 5.93737e-19)
(0.000413557 0.000104103 -5.11536e-18)
(0.000415127 9.00293e-05 -3.43448e-20)
(0.000416354 7.5978e-05 2.58909e-18)
(0.000417287 6.19782e-05 -2.23592e-18)
(0.000418021 4.80401e-05 -4.14847e-18)
(0.000418595 3.41416e-05 1.14331e-19)
(0.000418989 2.02572e-05 1.68699e-18)
(0.000419175 6.37544e-06 1.61641e-18)
(0.000419139 -7.50357e-06 3.48842e-18)
(0.000418885 -2.13762e-05 4.16071e-18)
(0.00041842 -3.52417e-05 5.52415e-18)
(0.000417759 -4.91053e-05 1.61304e-18)
(0.000416913 -6.29796e-05 4.15295e-18)
(0.000415878 -7.68812e-05 8.72281e-18)
(0.00041462 -9.08207e-05 5.49704e-18)
(0.000413068 -0.000104786 -1.7257e-18)
(0.000411143 -0.000118737 -2.07858e-18)
(0.000408843 -0.000132643 -3.79208e-18)
(0.000406224 -0.000146521 -3.59542e-18)
(0.00040319 -0.000160353 -1.25412e-18)
(0.000399576 -0.00017404 5.51364e-19)
(0.000395329 -0.000187475 -1.54495e-18)
(0.000390563 -0.000200665 -1.13062e-17)
(0.0003852 -0.000213572 -7.8668e-18)
(0.000379132 -0.000226098 -6.50739e-18)
(0.000372286 -0.000238122 5.41894e-19)
(0.000364619 -0.000249505 5.81006e-18)
(0.000356107 -0.000260085 1.74316e-18)
(0.000346758 -0.000269673 8.33365e-19)
(0.000336644 -0.000278081 5.09437e-18)
(0.000325958 -0.000285195 2.09472e-18)
(0.000315036 -0.000291082 7.01353e-18)
(0.00031033 -0.000289913 6.49193e-18)
(0.000341167 0.000266381 1.07806e-18)
(0.000348891 0.000257083 -6.91247e-18)
(0.000357374 0.000245633 -9.24532e-18)
(0.00036556 0.000234273 -1.6498e-17)
(0.000373367 0.000222787 -6.07803e-18)
(0.000380665 0.000210991 -2.66466e-18)
(0.000387364 0.000198814 -1.16202e-17)
(0.000393436 0.000186262 -1.87061e-18)
(0.000398899 0.000173375 7.645e-18)
(0.000403796 0.000160196 6.21932e-18)
(0.000408152 0.000146755 -2.91723e-18)
(0.00041195 0.000133077 -3.27931e-20)
(0.000415192 0.00011921 -1.70189e-19)
(0.000417913 0.00010521 -5.7174e-18)
(0.000420154 9.11304e-05 3.8191e-19)
(0.000421952 7.70115e-05 2.42719e-18)
(0.000423361 6.28904e-05 -3.34595e-18)
(0.000424462 4.87858e-05 -4.81743e-18)
(0.000425295 3.4691e-05 7.18889e-20)
(0.000425856 2.05941e-05 1.19501e-18)
(0.000426125 6.49131e-06 9.1844e-19)
(0.000426089 -7.61142e-06 3.43201e-18)
(0.00042575 -2.17047e-05 3.89179e-18)
(0.000425114 -3.5781e-05 5.27325e-18)
(0.000424189 -4.98377e-05 1.38404e-18)
(0.00042298 -6.38776e-05 3.68587e-18)
(0.000421475 -7.79048e-05 9.4051e-18)
(0.000419635 -9.19151e-05 6.05598e-18)
(0.000417392 -0.000105884 -2.29844e-18)
(0.000414683 -0.000119769 -2.2227e-18)
(0.000411501 -0.000133534 -4.21853e-18)
(0.000407864 -0.00014717 -4.51794e-18)
(0.000403691 -0.000160635 -1.29036e-18)
(0.000398862 -0.000173835 1.34453e-18)
(0.000393353 -0.000186679 -8.77706e-19)
(0.00038724 -0.000199148 -1.26358e-17)
(0.000380489 -0.000211202 -8.79838e-18)
(0.000373043 -0.000222756 -7.57089e-18)
(0.000364875 -0.000233713 3.59111e-19)
(0.000355992 -0.000243968 6.668e-18)
(0.000346437 -0.000253406 2.13433e-18)
(0.000336295 -0.000261915 9.715e-19)
(0.00032573 -0.000269411 5.14453e-18)
(0.00031502 -0.000275914 1.30966e-18)
(0.00030456 -0.000281618 6.70759e-18)
(0.000300515 -0.000281106 7.25672e-18)
(0.0003279 0.00025719 6.91927e-19)
(0.000336823 0.000248912 -7.55924e-18)
(0.000345719 0.000238265 -1.02653e-17)
(0.000354388 0.000227639 -1.85214e-17)
(0.000362858 0.000216947 -6.47986e-18)
(0.000370997 0.00020599 -2.65641e-18)
(0.000378675 0.000194653 -1.36161e-17)
(0.000385815 0.0001829 -2.47695e-18)
(0.000392383 0.000170742 8.26864e-18)
(0.000398377 0.000158203 5.99269e-18)
(0.000403788 0.000145309 -4.40162e-18)
(0.000408588 0.00013209 -7.4823e-19)
(0.000412765 0.000118594 -9.36091e-19)
(0.000416335 0.00010488 -6.58395e-18)
(0.000419329 9.1008e-05 4.634e-19)
(0.000421782 7.70279e-05 2.28067e-18)
(0.000423745 6.29844e-05 -4.39004e-18)
(0.000425283 4.89057e-05 -5.70044e-18)
(0.000426435 3.47998e-05 -4.23908e-20)
(0.000427203 2.06691e-05 5.9263e-19)
(0.000427574 6.52027e-06 3.70829e-20)
(0.000427539 -7.63238e-06 3.37901e-18)
(0.000427096 -2.17712e-05 3.60629e-18)
(0.000426249 -3.58798e-05 5.02742e-18)
(0.000425006 -4.99455e-05 8.22285e-19)
(0.000423366 -6.39596e-05 3.12183e-18)
(0.000421313 -7.79128e-05 9.94808e-18)
(0.000418811 -9.17875e-05 6.47152e-18)
(0.000415805 -0.00010555 -2.89963e-18)
(0.000412247 -0.000119152 -2.64479e-18)
(0.000408134 -0.000132555 -4.88922e-18)
(0.00040347 -0.000145731 -5.49003e-18)
(0.000398203 -0.00015863 -1.38749e-18)
(0.000392261 -0.000171169 2.02526e-18)
(0.000385657 -0.000183278 -3.90321e-19)
(0.000378467 -0.000194937 -1.40616e-17)
(0.000370709 -0.000206121 -9.16867e-18)
(0.000362388 -0.000216783 -8.79979e-18)
(0.000353538 -0.000226874 8.30306e-20)
(0.000344233 -0.000236349 7.33031e-18)
(0.000334585 -0.000245174 2.48091e-18)
(0.000324759 -0.000253336 9.25103e-19)
(0.000315001 -0.000260882 5.60142e-18)
(0.000305656 -0.000267976 2.30651e-19)
(0.000297166 -0.000274963 5.74546e-18)
(0.000295553 -0.000276764 7.96273e-18)
(0.000318453 0.000250746 4.26718e-19)
(0.000326427 0.000241802 -8.16626e-18)
(0.000334335 0.000231037 -1.10146e-17)
(0.000342296 0.000220424 -2.04399e-17)
(0.000350377 0.00020997 -6.5323e-18)
(0.000358437 0.000199444 -2.3315e-18)
(0.000366308 0.000188673 -1.59834e-17)
(0.000373854 0.000177562 -3.29972e-18)
(0.000380985 0.000166068 9.09934e-18)
(0.000387641 0.000154183 5.88627e-18)
(0.000393769 0.000141911 -5.88599e-18)
(0.000399312 0.000129267 -1.49517e-18)
(0.000404231 0.000116292 -1.56696e-18)
(0.000408514 0.000103037 -7.71611e-18)
(0.000412169 8.95602e-05 1.81292e-19)
(0.000415219 7.59163e-05 2.31764e-18)
(0.000417697 6.21532e-05 -5.21274e-18)
(0.000419653 4.83065e-05 -6.79579e-18)
(0.000421116 3.43961e-05 -2.14625e-19)
(0.000422089 2.04371e-05 -5.44874e-20)
(0.000422563 6.44696e-06 -9.26085e-19)
(0.000422529 -7.5512e-06 3.26969e-18)
(0.000421983 -2.15309e-05 3.24953e-18)
(0.000420932 -3.54665e-05 4.84642e-18)
(0.00041938 -4.93355e-05 -5.28139e-20)
(0.000417329 -6.31184e-05 2.50767e-18)
(0.000414767 -7.67948e-05 1.02778e-17)
(0.000411668 -9.0337e-05 6.59002e-18)
(0.000407995 -0.000103706 -3.36692e-18)
(0.000403726 -0.000116855 -3.08542e-18)
(0.000398869 -0.000129744 -5.81598e-18)
(0.00039344 -0.000142342 -6.31235e-18)
(0.000387423 -0.000154604 -1.53754e-18)
(0.000380806 -0.000166473 2.55153e-18)
(0.000373643 -0.000177908 -7.4913e-20)
(0.000366037 -0.000188914 -1.56535e-17)
(0.000358063 -0.000199504 -9.04248e-18)
(0.000349795 -0.000209688 -1.01808e-17)
(0.000341333 -0.000219488 -4.54934e-19)
(0.000332819 -0.000228946 7.82754e-18)
(0.000324435 -0.000238129 2.78395e-18)
(0.000316417 -0.00024715 5.61928e-19)
(0.000309081 -0.000256206 6.39688e-18)
(0.000302835 -0.000265632 -1.33404e-18)
(0.000298174 -0.000275957 4.31065e-18)
(0.000301238 -0.000282301 8.40935e-18)
(0.000321255 0.000265624 1.9065e-17)
(0.000318547 0.000251325 2.85895e-19)
(0.00032316 0.000239666 -8.90783e-18)
(0.000328309 0.000227306 -1.10322e-17)
(0.000333999 0.000215533 -2.18541e-17)
(0.000340272 0.000204349 -6.03449e-18)
(0.000346967 0.000193475 -1.90846e-18)
(0.00035387 0.000182656 -1.87131e-17)
(0.000360794 0.000171719 -4.2289e-18)
(0.000367584 0.000160556 1.02393e-17)
(0.00037412 0.000149102 6.28409e-18)
(0.000380299 0.00013732 -7.4013e-18)
(0.00038602 0.000125197 -2.105e-18)
(0.00039121 0.00011275 -1.92827e-18)
(0.00039582 0.000100011 -9.34065e-18)
(0.000399826 8.70272e-05 -2.36889e-19)
(0.000403224 7.38459e-05 2.67892e-18)
(0.000406026 6.05125e-05 -5.73945e-18)
(0.000408257 4.70639e-05 -7.96129e-18)
(0.000409931 3.35264e-05 -5.53772e-19)
(0.000411047 1.99232e-05 -6.55184e-19)
(0.000411593 6.27915e-06 -1.78813e-18)
(0.000411559 -7.37581e-06 3.11053e-18)
(0.000410944 -2.10089e-05 2.92721e-18)
(0.000409752 -3.4588e-05 4.9272e-18)
(0.000407994 -4.80837e-05 -1.10565e-18)
(0.000405676 -6.14699e-05 1.82425e-18)
(0.000402798 -7.472e-05 1.03523e-17)
(0.000399351 -8.78034e-05 6.48849e-18)
(0.000395327 -0.000100683 -3.89182e-18)
(0.000390731 -0.000113321 -3.3083e-18)
(0.000385598 -0.000125687 -6.78302e-18)
(0.00037997 -0.000137761 -7.0046e-18)
(0.000373876 -0.00014952 -1.68881e-18)
(0.000367366 -0.000160944 2.8663e-18)
(0.000360543 -0.00017204 8.01937e-20)
(0.00035355 -0.000182857 -1.72902e-17)
(0.000346521 -0.000193467 -8.55509e-18)
(0.000339599 -0.000203958 -1.14329e-17)
(0.000332952 -0.000214447 -9.66214e-19)
(0.000326792 -0.000225085 8.00373e-18)
(0.000321372 -0.000236072 2.57771e-18)
(0.000317005 -0.000247679 7.33935e-20)
(0.000314088 -0.000260295 7.02384e-18)
(0.000313116 -0.000274485 -3.9054e-18)
(0.000314683 -0.000291058 2.4534e-18)
(0.000325497 -0.00030513 8.33469e-18)
(0.000343438 0.000284267 2.1023e-17)
(0.000335566 0.000264467 4.53205e-19)
(0.000334185 0.000247579 -9.87994e-18)
(0.000334349 0.000231502 -1.03393e-17)
(0.000335801 0.000216845 -2.23934e-17)
(0.000338492 0.000203497 -4.92777e-18)
(0.000342206 0.000191076 -1.75867e-18)
(0.000346672 0.000179219 -2.16347e-17)
(0.000351636 0.000167649 -4.59152e-18)
(0.00035688 0.000156168 1.155e-17)
(0.000362219 0.000144636 7.29165e-18)
(0.000367492 0.000132958 -8.71367e-18)
(0.000372553 0.000121072 -2.63225e-18)
(0.000377284 0.000108957 -2.12941e-18)
(0.000381595 9.6613e-05 -1.12319e-17)
(0.000385424 8.40621e-05 -6.23778e-19)
(0.000388733 7.13339e-05 3.43225e-18)
(0.000391505 5.84607e-05 -5.95879e-18)
(0.000393737 4.54723e-05 -9.14832e-18)
(0.000395423 3.23925e-05 -9.49532e-19)
(0.000396551 1.92448e-05 -1.05659e-18)
(0.000397105 6.05549e-06 -2.30678e-18)
(0.000397072 -7.14499e-06 3.02337e-18)
(0.000396452 -2.03231e-05 2.62067e-18)
(0.000395253 -3.34461e-05 5.17645e-18)
(0.000393488 -4.64843e-05 -2.36081e-18)
(0.000391178 -5.94119e-05 1.21523e-18)
(0.000388337 -7.22049e-05 1.03706e-17)
(0.000384981 -8.48391e-05 6.20388e-18)
(0.000381134 -9.72897e-05 -4.38734e-18)
(0.000376837 -0.000109537 -3.34287e-18)
(0.000372154 -0.000121574 -7.785e-18)
(0.000367167 -0.000133407 -7.53373e-18)
(0.000361957 -0.000145051 -1.93882e-18)
(0.000356633 -0.000156541 2.95743e-18)
(0.00035135 -0.000167945 5.44131e-19)
(0.000346304 -0.000179379 -1.88689e-17)
(0.000341693 -0.000190998 -8.12696e-18)
(0.000337732 -0.000202997 -1.25149e-17)
(0.000334673 -0.000215617 -1.34535e-18)
(0.000332813 -0.000229161 8.11326e-18)
(0.000332504 -0.000244015 1.56231e-18)
(0.000334178 -0.000260683 -5.03073e-19)
(0.00033837 -0.000279843 7.0312e-18)
(0.000345742 -0.00030243 -7.33457e-18)
(0.000357104 -0.00032973 5.12972e-19)
(0.000380438 -0.000356584 7.49614e-18)
(0.00042667 0.000367978 1.27615e-17)
(0.000398439 0.000329113 2.33275e-17)
(0.000380626 0.000298576 8.87599e-19)
(0.000369592 0.000272664 -1.08389e-17)
(0.00036164 0.000249686 -8.73746e-18)
(0.00035616 0.000229567 -2.17487e-17)
(0.000352915 0.000211928 -3.40822e-18)