/*--------------------------------*- C++ -*----------------------------------*\
  =========                 |
  \\      /  F ield         | OpenFOAM: The Open Source CFD Toolbox
   \\    /   O peration     | Website:  https://openfoam.org
    \\  /    A nd           | Version:  7
     \\/     M anipulation  |
\*---------------------------------------------------------------------------*/
FoamFile
{
    version     2.0;
    format      ascii;
    class       surfaceScalarField;
    location    "8000";
    object      phi;
}
// * * * * * * * * * * * * * * * * * * * * * * * * * * * * * * * * * * * * * //

dimensions      [0 3 -1 0 0 0 0];

internalField   nonuniform List<scalar> 
9540
(
-5.16271e-24
6.10259e-24
3.00709e-24
7.74772e-24
-4.51736e-24
5.04164e-24
4.36699e-24
-4.79749e-24
5.06049e-24
4.78127e-24
-5.02821e-24
3.17991e-24
2.51794e-24
-4.81398e-24
5.22065e-24
-4.99424e-24
4.54327e-24
-1.99372e-24
8.37298e-24
3.68672e-24
-4.29733e-24
4.11646e-24
2.9209e-24
-4.70243e-24
5.10189e-24
-4.28202e-24
5.34793e-24
-3.97086e-24
8.01091e-24
-2.95997e-24
5.67236e-24
8.23321e-24
-4.33273e-24
5.20521e-24
3.01741e-24
-4.33112e-24
6.6935e-24
-3.30175e-24
9.94814e-24
-4.6737e-24
8.24435e-24
-9.04398e-25
1.14126e-23
-2.27165e-24
8.89293e-24
1.43848e-23
-4.46281e-24
1.65073e-24
2.36951e-24
-2.80476e-24
7.233e-24
-4.71026e-24
9.02972e-24
-3.15983e-24
8.99962e-24
-2.3513e-24
1.04818e-23
-8.71075e-25
1.08179e-23
-1.59835e-24
1.02652e-23
-2.83872e-24
1.48234e-23
1.04136e-23
-3.64621e-24
7.7025e-24
4.18137e-24
-2.08051e-24
5.12849e-24
-4.79315e-24
9.72133e-24
-3.06146e-24
1.0427e-23
-1.75874e-24
8.62151e-24
-1.11189e-24
1.29987e-23
-3.01258e-25
1.20021e-23
-4.34012e-24
7.75986e-24
-4.60165e-24
9.21399e-24
8.68016e-24
-3.24307e-24
9.96811e-24
4.4283e-24
-1.70649e-24
1.28739e-23
-4.1846e-24
6.44582e-24
-3.84123e-24
9.9633e-24
-7.6467e-25
1.53447e-23
-1.27455e-24
1.16908e-23
-1.93574e-24
1.14244e-23
-4.29351e-24
7.93488e-24
-4.23571e-24
7.64385e-24
-3.56623e-24
6.66143e-24
-5.14411e-24
5.71821e-24
-4.03337e-24
6.9216e-24
-3.86341e-24
4.6789e-24
-1.7905e-24
-2.75178e-24
1.00374e-23
3.88567e-24
-3.5422e-24
7.11631e-24
-3.29823e-24
5.97421e-24
-3.27404e-24
7.69834e-24
-1.60379e-24
1.20832e-23
-1.70153e-24
1.11433e-23
-3.21856e-24
1.07921e-23
-4.27113e-24
7.79416e-24
-4.81048e-24
4.23177e-24
-3.72062e-24
5.1276e-24
-3.99923e-24
5.05818e-24
-5.14407e-24
3.7074e-24
-5.23897e-24
8.54658e-24
-7.13313e-24
9.05484e-24
-7.04733e-24
6.845e-24
-8.3179e-24
5.39946e-24
-8.73476e-24
6.32939e-24
5.76026e-24
-2.81852e-24
8.81671e-24
3.45881e-24
-3.4259e-24
8.04354e-24
-3.12486e-24
6.38805e-24
-2.25262e-24
1.04503e-23
-2.15271e-24
1.18174e-23
-2.09108e-24
9.83021e-24
-3.65567e-24
7.62581e-24
-4.53115e-24
7.1343e-24
-4.63737e-24
4.95343e-24
-4.30113e-24
4.34343e-24
-4.61415e-24
4.82843e-24
-4.70655e-24
2.76307e-24
-4.67293e-24
7.13012e-24
-7.32817e-24
6.61291e-24
-6.47756e-24
1.07819e-23
-7.93492e-24
7.15805e-24
-8.86245e-24
7.26407e-24
-6.50362e-24
4.69522e-24
-4.14256e-24
-4.23685e-25
-3.50538e-24
-3.23635e-24
8.81106e-24
3.45042e-24
-3.21765e-24
9.57462e-24
-2.4258e-24
7.06516e-24
-2.06831e-24
1.04576e-23
-2.46077e-24
1.03942e-23
-3.16554e-24
6.10341e-24
-3.96431e-24
4.35074e-24
-4.78743e-24
4.22083e-24
-4.56226e-24
4.41099e-24
-3.87807e-24
3.42336e-24
-4.73152e-24
5.20803e-24
-3.47914e-24
1.50721e-24
-4.66661e-24
4.25893e-24
-6.5394e-24
4.16936e-24
-6.70785e-24
1.32615e-23
-7.60616e-24
6.14832e-24
-9.61272e-24
8.64034e-24
-7.12953e-24
2.55239e-24
-5.24528e-24
-1.34138e-24
-6.9045e-24
-1.74293e-24
-6.11228e-24
1.79987e-25
-6.83953e-24
-3.62806e-24
-1.00731e-23
-8.71245e-24
-1.24131e-23
-3.20444e-24
9.62976e-24
3.6043e-24
-3.55618e-24
1.02552e-23
-2.51295e-24
6.8567e-24
-2.18862e-24
9.94417e-24
-2.83661e-24
1.05184e-23
-2.9008e-24
1.05257e-23
-3.79903e-24
4.62997e-24
-4.71979e-24
4.77329e-24
-4.83846e-24
3.60439e-24
-3.91317e-24
3.52829e-24
-5.95383e-24
-1.74047e-24
-3.1082e-24
4.31797e-24
-4.58062e-24
5.00951e-24
-4.98966e-24
4.17764e-24
-8.1955e-24
1.48956e-23
-7.29423e-24
4.07901e-24
-1.04354e-23
3.19947e-24
-7.44219e-24
1.97918e-25
-5.65657e-24
1.28355e-24
-5.89708e-24
7.72156e-24
-7.1805e-24
2.15098e-24
-7.51108e-24
-2.2651e-24
-1.08173e-23
-5.32808e-24
-4.11426e-24
-2.81278e-24
-1.04044e-23
-4.54507e-25
-2.1272e-23
4.89289e-24
-2.12914e-23
1.21205e-24
-1.96015e-23
7.65608e-25
-2.66018e-24
-2.5464e-24
7.86267e-24
3.63007e-24
-3.72955e-24
1.10089e-23
-1.73538e-24
1.4506e-23
-2.70625e-24
1.0861e-23
-3.16202e-24
1.18702e-23
-3.67672e-24
1.01736e-23
-4.28535e-24
8.8266e-24
-5.38388e-24
4.87942e-24
-4.30099e-24
4.24577e-24
-5.34582e-24
4.94459e-24
-4.70366e-24
2.53898e-24
-3.10993e-24
4.78275e-24
-5.04201e-24
2.17154e-24
-2.75544e-24
5.38705e-24
-1.0109e-23
5.886e-24
-6.89484e-24
1.72925e-23
-1.12361e-23
5.40145e-24
-7.20621e-24
1.17255e-23
-3.98026e-24
2.40406e-24
-6.54859e-24
2.42003e-24
-8.06333e-24
3.05535e-24
-7.42693e-24
6.60828e-24
-1.00812e-23
-1.64285e-24
-3.67807e-24
6.85851e-24
-9.42477e-24
3.91982e-24
-2.12841e-23
-5.64174e-24
-2.0892e-23
1.5296e-24
-2.00033e-23
3.62823e-24
-2.38259e-23
2.81654e-24
-2.91989e-23
-2.29453e-25
-3.11554e-23
-4.80708e-24
-2.14719e-23
-2.30065e-24
1.52307e-23
3.70801e-24
-2.80901e-24
6.88763e-24
-2.50114e-24
1.3786e-23
-2.11076e-24
1.92624e-23
-3.80069e-24
1.20211e-23
-4.04664e-24
6.61251e-24
-4.44224e-24
5.86673e-24
-5.05023e-24
6.31719e-24
-4.92283e-24
6.35112e-24
-4.96265e-24
5.29437e-24
-4.32302e-24
4.43681e-24
-3.92495e-24
5.402e-24
-3.98002e-24
3.15785e-24
-2.53695e-24
1.39327e-24
-8.14913e-24
-4.53252e-24
-8.72419e-24
6.41381e-24
-9.62262e-24
4.60506e-24
-8.68722e-24
9.52915e-24
-3.69717e-24
1.26207e-23
-6.7246e-24
5.97241e-24
-7.49167e-24
2.92749e-24
-8.94799e-24
7.29411e-24
-8.042e-24
-1.72043e-24
-4.19495e-24
3.61627e-24
-1.09424e-23
-2.56804e-25
-1.91805e-23
1.71976e-24
-2.04629e-23
3.72193e-24
-1.95293e-23
1.27896e-23
-2.41308e-23
8.95721e-24
-2.91887e-23
4.00963e-24
-3.43423e-23
-2.84821e-25
-3.85776e-23
-7.3805e-24
-4.75004e-23
-5.08898e-23
-9.24321e-23
-3.57314e-24
1.50447e-23
2.99431e-24
-1.98015e-24
1.44535e-23
-2.18327e-24
1.31725e-23
-3.34856e-24
1.99983e-23
-4.55628e-24
9.75713e-24
-3.53318e-24
7.80909e-24
-4.29657e-24
4.06633e-24
-4.93935e-24
3.18231e-24
-5.36361e-24
7.33391e-24
-4.75848e-24
4.7719e-24
-4.16104e-24
8.72654e-24
-4.02052e-24
9.77551e-24
-4.22633e-24
4.42753e-24
-3.71355e-24
2.36154e-25
-6.06743e-24
-3.87137e-24
-8.7394e-24
7.28004e-24
-9.21571e-24
2.76051e-24
-7.97187e-24
7.44627e-24
-5.70639e-24
1.11596e-23
-6.63195e-24
6.41237e-24
-6.54734e-24
2.22456e-24
-1.03069e-23
6.05757e-25
-6.64747e-24
1.09165e-23
-5.39255e-24
2.84226e-24
-1.03412e-23
2.99294e-24
-1.87181e-23
6.30514e-24
-1.83256e-23
4.48363e-24
-1.98822e-23
1.73325e-23
-2.41186e-23
1.24074e-23
-2.94745e-23
8.28322e-24
-3.49772e-23
4.69468e-24
-4.58368e-23
2.47771e-24
-5.97557e-23
-2.89758e-23
-8.65169e-23
-3.16035e-24
1.49299e-23
2.56344e-24
-2.38481e-24
9.68474e-24
-1.34737e-24
1.15008e-23
-4.7341e-24
1.51081e-23
-4.85036e-24
9.37355e-24
-4.90148e-24
7.93918e-24
-5.04475e-24
4.91371e-24
-4.40702e-24
2.90288e-24
-6.00328e-24
2.06024e-25
-4.3253e-24
3.11566e-24
-3.83966e-24
8.93792e-24
-4.5629e-24
1.2456e-24
-4.97879e-24
5.54381e-24
-4.514e-24
1.1398e-24
-4.76921e-24
-5.48392e-24
-9.11377e-24
-4.64434e-24
-8.46515e-24
-2.34369e-25
-7.02866e-24
1.95078e-24
-6.46636e-24
1.09993e-24
-6.73715e-24
6.27807e-24
-7.05336e-24
1.66048e-24
-8.25021e-24
-9.62351e-28
-8.18531e-24
3.31002e-25
-5.00272e-24
9.59174e-25
-9.23943e-24
5.66042e-24
-1.91057e-23
-6.37767e-24
-1.56417e-23
4.36838e-24
-2.05898e-23
6.93954e-24
-2.37743e-23
1.3974e-23
-2.98656e-23
3.45227e-24
-3.50358e-23
1.30448e-23
-5.08523e-23
1.23223e-23
-7.61779e-23
-1.62009e-24
-4.91502e-23
-4.00731e-24
1.57914e-23
1.98596e-24
-2.88893e-24
8.15632e-24
-7.86716e-25
1.01452e-23
-5.7132e-24
1.14983e-23
-5.38444e-24
4.72756e-24
-4.97887e-24
5.99012e-24
-4.79078e-24
4.30061e-24
-4.3405e-24
2.91963e-24
-5.6157e-24
-9.03654e-25
-3.14582e-24
1.72847e-24
-4.98364e-24
9.45142e-25
-3.41994e-24
3.54631e-24
-5.68913e-24
-2.03814e-24
-4.74133e-24
2.20586e-25
-4.87547e-24
-6.11023e-24
-7.63834e-24
-2.60478e-24
-8.28345e-24
-1.80188e-24
-7.06947e-24
2.57866e-25
-5.88141e-24
3.53228e-24
-7.38708e-24
6.65461e-24
-7.09978e-24
7.3454e-25
-7.76096e-24
-6.59782e-25
-8.65046e-24
1.08097e-23
-3.64105e-24
7.26358e-24
-1.10803e-23
-3.12884e-24
-1.69151e-23
-1.98101e-24
-1.52631e-23
1.28528e-23
-1.86151e-23
1.00875e-23
-2.49281e-23
8.70037e-24
-2.77764e-23
5.69059e-24
-3.48442e-23
1.92979e-23
-5.19889e-23
2.20003e-23
-8.3657e-23
2.93666e-23
8.28392e-23
-4.10564e-24
9.48734e-24
1.40717e-24
-2.63864e-24
7.63523e-24
-1.16026e-24
7.83957e-24
-5.76417e-24
6.74765e-24
-5.19446e-24
2.73975e-24
-5.32395e-24
5.67943e-24
-4.64711e-24
5.37866e-24
-4.67354e-24
2.8844e-24
-5.57822e-24
1.21864e-24
-3.35042e-24
1.17311e-24
-4.48088e-24
6.84495e-24
-4.15533e-24
2.96991e-24
-5.41856e-24
-1.38207e-24
-4.97168e-24
1.17519e-24
-5.03221e-24
-4.1538e-24
-6.63573e-24
-2.78608e-24
-7.71536e-24
-2.38903e-25
-6.50082e-24
7.4674e-24
-5.14153e-24
5.58102e-24
-7.88028e-24
8.54916e-24
-7.21958e-24
6.75227e-25
-6.03847e-24
-1.94608e-24
-9.11343e-24
-1.17865e-24
-4.83396e-24
1.28735e-23
-1.07328e-23
2.12987e-24
-1.46241e-23
5.26006e-25
-1.56432e-23
1.49028e-23
-1.78589e-23
1.15195e-23
-2.47976e-23
1.36266e-23
-2.51577e-23
2.08078e-23
-3.35027e-23
2.65936e-23
-4.87432e-23
3.38923e-23
-7.58441e-23
5.61755e-23
1.23251e-22
-4.18083e-24
9.22106e-24
1.18398e-24
-2.58622e-24
9.96763e-24
-1.56749e-24
7.59231e-24
-6.3916e-24
-4.67125e-25
-5.10063e-24
5.34002e-24
-5.63817e-24
2.48173e-24
-4.81789e-24
3.50954e-24
-5.48943e-24
4.13446e-24
-5.07667e-24
2.4676e-24
-3.14318e-24
9.93103e-24
-4.59004e-24
1.33466e-23
-5.2216e-24
-1.60912e-24
-5.10674e-24
-9.61122e-25
-5.1193e-24
4.15701e-25
-4.66877e-24
-6.52008e-25
-6.65209e-24
2.4363e-25
-6.33725e-24
-6.0308e-25
-6.59634e-24
2.58633e-24
-4.17877e-24
2.75493e-24
-8.91801e-24
3.7762e-24
-7.04845e-24
8.48285e-24
-6.11571e-24
-2.15229e-24
-6.99869e-24
3.86195e-24
-6.50237e-24
8.90011e-24
-1.02045e-23
4.70784e-24
-1.28469e-23
5.76572e-24
-1.57052e-23
8.42115e-24
-1.7378e-23
1.30655e-23
-2.29404e-23
1.84541e-23
-2.40456e-23
2.25983e-23
-3.09071e-23
3.229e-23
-4.36527e-23
4.38198e-23
-5.8633e-23
7.16171e-23
1.32594e-22
-3.71923e-24
6.12757e-24
1.93764e-24
-3.57819e-24
1.0269e-23
-3.13249e-24
6.81621e-24
-5.45425e-24
7.77361e-25
-5.12306e-24
5.59874e-24
-5.5321e-24
3.80369e-24
-4.76873e-24
6.40793e-24
-5.83113e-24
9.1177e-24
-3.751e-24
9.9381e-24
-3.18192e-24
1.3515e-23
-6.65576e-24
1.65833e-23
-5.40964e-24
1.01354e-24
-4.73115e-24
-1.62837e-25
-4.93148e-24
3.61144e-25
-4.48389e-24
1.64706e-25
-6.23196e-24
2.72583e-24
-5.84733e-24
7.68106e-24
-6.52755e-24
1.1155e-23
-4.17022e-24
1.54056e-23
-8.16125e-24
6.67072e-24
-8.19615e-24
9.41305e-24
-5.28172e-24
5.73594e-24
-6.12423e-24
5.58982e-24
-6.81122e-24
9.48091e-24
-9.5322e-24
9.91155e-24
-1.29175e-23
8.61039e-24
-1.45524e-23
1.37825e-23
-1.64033e-23
1.61391e-23
-2.19036e-23
2.068e-23
-2.22502e-23
3.31479e-23
-2.80014e-23
3.76676e-23
-3.84692e-23
5.18953e-23
-4.399e-23
8.82661e-23
1.32031e-22
-3.34497e-24
4.85837e-24
2.61156e-24
-3.79248e-24
1.02017e-23
-3.57153e-24
1.00582e-23
-4.75628e-24
1.37426e-24
-5.64323e-24
6.39093e-24
-4.84089e-24
6.10625e-24
-4.30534e-24
5.64582e-24
-5.0774e-24
5.99864e-24
-3.34441e-24
9.38871e-24
-2.03789e-24
1.03107e-23
-8.23682e-24
6.24916e-24
-5.39679e-24
3.17136e-24
-4.48912e-24
3.25986e-24
-4.96413e-24
1.61952e-24
-3.86219e-24
-3.91136e-25
-5.2132e-24
1.94782e-24
-5.40334e-24
8.47716e-24
-5.69204e-24
1.06739e-23
-5.23932e-24
1.19804e-23
-7.39765e-24
1.09808e-23
-8.32972e-24
1.00657e-23
-5.55109e-24
4.37772e-24
-5.58005e-24
6.64991e-24
-6.43536e-24
1.01035e-23
-9.52187e-24
1.19121e-23
-1.23753e-23
1.20928e-23
-1.39103e-23
1.61512e-23
-1.52156e-23
1.84689e-23
-1.9868e-23
2.45617e-23
-2.10325e-23
3.53571e-23
-2.52995e-23
4.19599e-23
-3.27939e-23
5.77795e-23
-3.47488e-23
9.24302e-23
1.13269e-22
-3.55396e-24
6.69501e-24
1.67854e-24
-3.96528e-24
6.01632e-24
-3.73295e-24
4.91137e-24
-3.63441e-24
5.80294e-24
-5.52388e-24
5.45141e-24
-4.96569e-24
3.27084e-24
-4.33179e-24
6.16806e-24
-4.83299e-24
7.45748e-24
-2.95325e-24
8.28055e-24
-3.11526e-24
1.09939e-23
-8.11513e-24
-2.26772e-24
-5.72222e-24
6.1293e-24
-4.15913e-24
6.14473e-24
-5.47036e-24
-1.25978e-24
-3.05386e-24
6.90416e-24
-4.15772e-24
-1.40254e-24
-5.13733e-24
9.09861e-24
-5.20569e-24
9.62285e-24
-5.58107e-24
6.44887e-24
-7.34905e-24
1.1246e-23
-9.0222e-24
1.09918e-23
-5.22389e-24
1.04753e-24
-5.01949e-24
7.92039e-24
-5.72374e-24
1.02395e-23
-9.55693e-24
1.55239e-23
-1.16072e-23
1.44989e-23
-1.35658e-23
1.91663e-23
-1.38035e-23
2.91686e-23
-1.86778e-23
2.78491e-23
-1.93247e-23
3.72136e-23
-2.25905e-23
4.50516e-23
-2.78507e-23
6.22159e-23
-2.94651e-23
8.65545e-23
1.0931e-22
-3.49329e-24
-5.19495e-25
9.51417e-25
-3.81099e-24
5.97307e-24
-4.3783e-24
2.36143e-24
-3.77362e-24
6.23962e-24
-4.80475e-24
2.8392e-24
-4.70164e-24
3.56368e-24
-4.15607e-24
9.65321e-24
-4.4444e-24
4.21969e-24
-3.03659e-24
1.29686e-23
-4.30818e-24
3.29791e-24
-7.30537e-24
1.27488e-24
-5.36902e-24
8.57295e-24
-4.936e-24
6.71251e-24
-4.61321e-24
-5.48724e-25
-3.54275e-24
9.15396e-24
-3.43814e-24
8.33148e-24
-4.57332e-24
8.90556e-24
-5.54562e-24
8.38052e-24
-4.97979e-24
4.57151e-24
-7.03092e-24
1.22338e-23
-1.03114e-23
4.94399e-24
-4.00379e-24
1.05732e-23
-4.89829e-24
1.00904e-23
-4.62744e-24
9.69428e-24
-9.7415e-24
-3.90395e-25
-1.08266e-23
1.43681e-23
-1.22906e-23
2.015e-23
-1.3303e-23
2.96625e-23
-1.78859e-23
2.12852e-23
-1.75183e-23
4.76359e-23
-2.02529e-23
4.74766e-23
-2.46943e-23
6.64521e-23
-2.49751e-23
8.5005e-23
-1.94078e-23
1.00486e-22
1.6573e-22
-2.74891e-24
2.29995e-24
1.01908e-24
-4.18302e-24
3.27277e-24
-3.5633e-24
2.06781e-24
-3.75865e-24
2.75296e-24
-4.87912e-24
1.86267e-24
-4.55561e-24
3.71492e-24
-5.09209e-24
1.00877e-23
-3.24055e-24
7.18413e-24
-4.79736e-24
5.56437e-24
-4.3469e-24
3.29372e-24
-6.58885e-24
3.75929e-24
-5.26877e-24
8.60401e-24
-5.80094e-24
3.12189e-24
-3.32144e-24
2.70705e-24
-3.6621e-24
6.75929e-24
-3.53109e-24
3.57203e-24
-4.58561e-24
5.56598e-24
-5.9653e-24
6.08793e-24
-3.67298e-24
1.21972e-23
-7.6377e-24
1.53616e-23
-9.93745e-24
1.15645e-23
-3.87101e-24
2.06012e-23
-4.78847e-24
1.2752e-23
-5.44164e-24
9.43315e-24
-8.25265e-24
1.83256e-24
-1.01714e-23
1.18603e-23
-1.10282e-23
1.71673e-23
-1.36835e-23
2.24045e-23
-1.51126e-23
2.1027e-23
-1.69745e-23
4.48699e-23
-1.76703e-23
4.72515e-23
-2.22681e-23
6.11598e-23
-2.13294e-23
8.3313e-23
-1.48294e-23
1.08753e-22
1.47896e-22
-2.41831e-24
7.1728e-24
1.53271e-24
-4.26712e-24
5.56307e-24
-3.79022e-24
2.27211e-24
-4.15205e-24
3.16511e-24
-4.53449e-24
3.65969e-24
-3.45578e-24
3.3122e-24
-5.51902e-24
3.06441e-24
-2.95293e-24
5.37323e-24
-4.76369e-24
8.6272e-24
-3.88578e-24
7.81466e-24
-6.30296e-24
7.3713e-24
-5.82576e-24
9.69137e-24
-5.8522e-24
5.24797e-24
-2.99254e-24
1.53358e-23
-3.58275e-24
1.2032e-23
-3.18498e-24
2.71847e-24
-4.19503e-24
6.39353e-24
-5.45772e-24
6.22232e-24
-3.42754e-24
1.31447e-23
-7.69836e-24
9.40356e-24
-8.91208e-24
1.16862e-23
-4.60704e-24
3.18386e-23
-5.25599e-24
1.42626e-23
-6.05421e-24
6.63739e-24
-7.22997e-24
1.80824e-24
-9.2254e-24
1.26306e-23
-1.06669e-23
1.74763e-23
-1.28832e-23
2.30422e-23
-1.28351e-23
1.92578e-23
-1.59795e-23
4.61509e-23
-1.60937e-23
4.62713e-23
-1.99829e-23
5.45695e-23
-1.74082e-23
8.01878e-23
-1.28538e-23
9.3282e-23
-2.208e-24
7.96944e-24
9.27219e-25
-4.32382e-24
6.60264e-24
-3.56488e-24
1.87769e-24
-4.15914e-24
4.70219e-24
-4.06819e-24
3.98799e-24
-3.66003e-24
3.90146e-24
-5.02592e-24
5.01533e-24
-2.84259e-24
1.40299e-23
-4.52678e-24
1.06424e-23
-3.53703e-24
8.47578e-24
-6.36692e-24
1.29329e-24
-5.94197e-24
9.7974e-24
-4.60947e-24
8.63898e-24
-3.58711e-24
1.03285e-23
-4.2499e-24
1.29619e-23
-3.27702e-24
1.12188e-23
-3.91618e-24
4.56279e-24
-4.76444e-24
5.02041e-24
-3.72512e-24
1.15994e-23
-7.39337e-24
1.11726e-23
-6.89288e-24
1.09666e-23
-6.4067e-24
2.07444e-23
-5.95655e-24
1.39957e-23
-6.2041e-24
8.5917e-24
-6.42985e-24
5.81887e-24
-8.58029e-24
1.44383e-23
-1.0217e-23
1.85949e-23
-1.2635e-23
2.4133e-23
-1.06448e-23
1.71164e-23
-1.51576e-23
3.44936e-23
-1.48135e-23
4.45378e-23
-1.68937e-23
5.49573e-23
-1.47533e-23
7.78271e-23
8.40842e-23
-2.03869e-24
8.8836e-24
1.89786e-25
-4.93629e-24
6.35655e-24
-3.05122e-24
3.59138e-24
-4.22832e-24
2.3392e-24
-3.92287e-24
4.70514e-24
-3.41214e-24
4.21302e-24
-3.63777e-24
4.4543e-24
-3.31329e-24
1.02157e-23
-5.28338e-24
3.05264e-24
-3.8661e-24
8.9325e-24
-5.76057e-24
2.11598e-24
-5.67835e-24
9.60457e-24
-4.45781e-24
8.81092e-24
-3.39394e-24
9.8209e-24
-4.00347e-24
1.25303e-23
-4.02009e-24
9.28071e-24
-3.2689e-24
1.29359e-23
-4.5289e-24
6.0105e-24
-3.58336e-24
9.05244e-24
-7.43797e-24
3.90452e-24
-6.05531e-24
9.67926e-24
-7.03762e-24
1.24914e-23
-6.51091e-24
1.3107e-23
-6.20464e-24
1.02124e-23
-5.54803e-24
7.68708e-24
-8.12011e-24
1.61833e-23
-9.55607e-24
1.95602e-23
-1.29222e-23
2.63547e-23
-9.10516e-24
2.94391e-23
-1.37034e-23
2.91451e-23
-1.36279e-23
4.31557e-23
-1.47004e-23
5.23783e-23
-1.32652e-23
7.26105e-23
7.94013e-23
-1.89714e-24
1.61185e-24
-6.69666e-25
-5.03783e-24
-9.23771e-25
-3.65214e-24
3.25385e-24
-4.1808e-24
3.76037e-24
-3.82364e-24
4.02593e-24
-3.29324e-24
1.44695e-23
-3.86469e-24
5.15731e-24
-3.68284e-24
1.5234e-23
-4.71098e-24
5.29036e-24
-4.2722e-24
1.00943e-23
-5.06027e-24
3.74555e-24
-5.68983e-24
1.03918e-23
-4.29961e-24
7.78088e-24
-3.54719e-24
6.14364e-24
-3.9402e-24
6.94267e-24
-3.89164e-24
9.95739e-24
-3.69513e-24
1.35663e-23
-4.10533e-24
5.80498e-24
-3.93761e-24
9.90117e-24
-6.79046e-24
5.11596e-24
-5.78076e-24
6.51362e-24
-6.68271e-24
1.29397e-23
-6.75001e-24
1.24687e-23
-6.34355e-24
1.29837e-23
-4.63102e-24
1.76545e-23
-8.0759e-24
9.17703e-24
-8.68546e-24
1.97405e-23
-1.23957e-23
1.48297e-23
-9.25536e-24
2.59302e-23
-1.20786e-23
2.97596e-23
-1.23717e-23
4.19642e-23
-1.32369e-23
5.37771e-23
-1.18918e-23
7.0177e-23
7.46274e-23
-2.28399e-24
2.88712e-24
1.51707e-27
-4.7273e-24
8.56937e-25
-3.47203e-24
6.87178e-24
-3.89839e-24
4.64075e-24
-3.10579e-24
1.13155e-23
-4.04989e-24
1.3326e-23
-3.26949e-24
4.57042e-24
-4.17939e-24
1.59045e-23
-4.55143e-24
1.59233e-23
-4.66622e-24
1.18802e-23
-4.28354e-24
2.45285e-24
-5.73627e-24
2.57328e-24
-4.1413e-24
1.06513e-23
-3.78335e-24
1.03323e-23
-3.54751e-24
5.85504e-24
-3.60587e-24
8.93731e-24
-3.93815e-24
4.60091e-24
-3.92761e-24
5.73686e-24
-4.12349e-24
4.40182e-24
-6.75632e-24
7.04091e-24
-5.15344e-24
2.10843e-23
-6.68464e-24
1.34064e-23
-6.66897e-24
1.21218e-23
-5.9787e-24
1.38598e-23
-4.97465e-24
1.85529e-23
-7.21203e-24
1.00822e-23
-8.9925e-24
2.0883e-23
-1.11783e-23
1.59182e-23
-9.09701e-24
2.33815e-23
-1.04886e-23
2.57062e-23
-1.13219e-23
4.14494e-23
-1.15948e-23
5.42187e-23
-1.08145e-23
6.53901e-23
-2.78269e-24
4.54139e-24
5.26963e-25
-4.11866e-24
4.48902e-25
-3.36965e-24
2.76703e-24
-3.60858e-24
7.62647e-24
-2.69304e-24
5.36366e-24
-4.28637e-24
5.24631e-24
-2.49818e-24
5.12072e-24
-4.13277e-24
8.06417e-24
-4.89248e-24
1.50967e-23
-4.8405e-24
1.26408e-23
-4.71461e-24
3.69221e-24
-4.95138e-24
2.46075e-24
-4.54826e-24
1.1105e-23
-3.90897e-24
9.72542e-24
-3.08359e-24
9.00558e-24
-4.00235e-24
6.95186e-24
-3.83698e-24
8.65612e-24
-4.02136e-24
6.62671e-24
-3.85271e-24
2.05072e-24
-5.65052e-24
7.93147e-24
-5.59663e-24
1.60357e-23
-6.67483e-24
1.39942e-23
-6.41358e-24
1.22935e-23
-5.79991e-24
1.47115e-23
-5.29019e-24
1.85014e-23
-6.46273e-24
1.04611e-23
-9.39893e-24
1.33153e-23
-1.03331e-23
1.48575e-23
-8.62658e-24
2.13666e-23
-9.02544e-24
2.38688e-23
-9.86683e-24
3.23879e-23
-1.07581e-23
5.0099e-23
6.27309e-23
-2.88745e-24
3.3154e-24
5.80903e-25
-4.02157e-24
1.92522e-24
-2.6213e-24
1.10645e-23
-3.70151e-24
9.75324e-24
-3.43871e-24
5.87627e-24
-3.64143e-24
8.93489e-24
-2.77063e-24
7.133e-24
-3.32547e-24
7.26649e-24
-5.31144e-24
8.80279e-24
-5.24368e-24
1.26315e-23
-4.86132e-24
4.08015e-24
-4.44146e-24
1.63777e-24
-4.83199e-24
7.03423e-24
-3.82659e-24
8.71025e-24
-3.33871e-24
6.0436e-24
-3.93868e-24
7.78211e-24
-3.73524e-24
6.90845e-24
-4.21878e-24
1.06556e-23
-3.09504e-24
6.28937e-24
-5.24498e-24
1.0573e-23
-5.42082e-24
1.22306e-23
-6.9298e-24
1.58353e-23
-6.11968e-24
1.14388e-23
-5.69585e-24
1.43798e-23
-5.44481e-24
1.74251e-23
-6.48271e-24
1.15353e-23
-9.12052e-24
4.71373e-24
-9.8517e-24
1.40085e-23
-8.14709e-24
2.28656e-23
-8.21774e-24
2.72837e-23
-8.08533e-24
3.17708e-23
-9.62197e-24
3.5413e-23
-2.91076e-24
-4.329e-24
7.0777e-25
-3.44932e-24
6.48413e-24
-3.09914e-24
9.37006e-24
-3.59191e-24
5.44221e-24
-3.05275e-24
5.21955e-24
-3.75325e-24
-9.90066e-25
-2.60437e-24
6.88357e-24
-3.01951e-24
7.29788e-24
-5.1054e-24
1.25965e-24
-6.11702e-24
9.18175e-24
-5.03514e-24
3.85206e-24
-4.00801e-24
1.57063e-24
-4.35464e-24
7.95806e-24
-4.01766e-24
8.65971e-24
-2.97011e-24
9.18263e-24
-3.91949e-24
8.63884e-24
-3.60693e-24
1.6397e-23
-4.22011e-24
1.24912e-23
-2.66536e-24
6.31938e-24
-5.14227e-24
3.2271e-24
-4.89266e-24
1.1253e-23
-7.26686e-24
9.18586e-24
-5.86747e-24
1.03609e-23
-5.60445e-24
1.36869e-23
-5.46969e-24
1.60664e-23
-7.18756e-24
1.04208e-23
-8.18489e-24
1.01846e-23
-9.34888e-24
1.4087e-23
-7.47178e-24
2.10018e-23
-7.97826e-24
2.36142e-23
-7.68312e-24
3.17666e-23
3.88078e-23
-2.3669e-24
-2.77167e-24
1.26602e-24
-3.23226e-24
7.54564e-24
-2.85158e-24
8.47689e-24
-3.31177e-24
1.48826e-23
-3.75144e-24
9.15734e-24
-3.46599e-24
3.30606e-24
-2.6151e-24
5.34119e-24
-3.21046e-24
4.02868e-24
-4.40073e-24
-2.0762e-24
-6.513e-24
1.63144e-24
-4.88184e-24
6.2724e-24
-3.60115e-24
1.12392e-24
-3.96586e-24
6.26924e-24
-3.79696e-24
7.67125e-24
-3.13607e-24
9.143e-24
-3.16524e-24
1.25202e-23
-3.87977e-24
1.26048e-23
-4.57462e-24
1.06876e-23
-2.9503e-24
6.00197e-24
-4.49116e-24
4.35045e-24
-4.98352e-24
7.23541e-24
-6.99521e-24
2.10712e-24
-5.60101e-24
9.49801e-24
-5.54875e-24
1.28294e-23
-5.66467e-24
1.17937e-23
-7.2374e-24
1.18489e-23
-7.84817e-24
1.03968e-23
-8.79499e-24
1.15389e-23
-7.0625e-24
1.90571e-23
-7.40242e-24
1.62683e-23
-6.81315e-24
2.76109e-23
4.0172e-23
-1.88919e-24
-3.18434e-24
1.99251e-24
-3.10474e-24
7.42241e-24
-2.54528e-24
6.66572e-24
-3.43143e-24
1.12807e-23
-4.02866e-24
1.08453e-23
-3.32789e-24
9.23221e-24
-2.70157e-24
9.07828e-24
-3.99495e-24
5.59608e-24
-4.63025e-24
-1.13353e-24
-5.86603e-24
3.28753e-24
-5.24183e-24
6.62465e-24
-2.87915e-24
1.51922e-23
-3.95561e-24
8.38765e-24
-3.94893e-24
8.57694e-24
-2.33398e-24
7.56237e-24
-3.14941e-24
8.564e-24
-3.96838e-24
1.28115e-23
-4.72409e-24
1.1607e-23
-2.86531e-24
9.33505e-24
-4.19975e-24
5.78513e-24
-5.42479e-24
8.51436e-24
-6.35791e-24
6.85044e-24
-5.38999e-24
9.08687e-24
-5.69892e-24
1.17182e-23
-5.47942e-24
9.76684e-24
-7.20433e-24
9.32733e-24
-7.88469e-24
1.217e-23
-8.18644e-24
1.69031e-23
-7.10331e-24
1.75866e-23
-6.53309e-24
1.21969e-23
-5.69872e-24
3.18014e-23
3.12856e-23
-1.80995e-24
-3.35378e-25
2.68407e-24
-2.508e-24
1.4779e-23
-2.22845e-24
5.98751e-24
-3.47901e-24
1.36857e-23
-4.26017e-24
3.63892e-24
-2.70661e-24
1.00075e-23
-2.81483e-24
9.71259e-24
-3.84868e-24
6.60036e-24
-4.58832e-24
4.83011e-24
-5.45969e-24
4.12735e-24
-4.76189e-24
7.98574e-24
-3.42073e-24
1.85505e-23
-3.90966e-24
1.03041e-23
-3.97826e-24
9.70308e-24
-2.43858e-24
6.39677e-24
-2.58101e-24
6.61797e-24
-3.99382e-24
9.22747e-24
-4.66272e-24
1.11971e-23
-3.21226e-24
9.14626e-24
-4.10939e-24
5.84075e-24
-5.47753e-24
7.50101e-24
-6.11055e-24
5.12148e-24
-5.11236e-24
5.6615e-24
-5.87547e-24
1.11224e-23
-5.3177e-24
1.13228e-23
-6.92521e-24
9.93461e-24
-7.6786e-24
1.3583e-23
-8.02913e-24
1.65469e-23
-7.42656e-24
1.71452e-23
-5.00112e-24
2.60449e-23
-5.4923e-24
3.08418e-23
3.13328e-23
-8.89035e-25
1.80304e-24
2.89546e-24
-2.56116e-24
1.98243e-23
-1.64066e-24
9.27076e-24
-3.97825e-24
7.00441e-24
-4.07792e-24
9.7916e-24
-2.64668e-24
9.23939e-24
-3.11294e-24
1.10795e-23
-4.318e-24
2.53999e-24
-4.15517e-24
4.6496e-24
-5.04293e-24
1.69396e-24
-4.0201e-24
7.77458e-24
-3.97333e-24
1.93175e-23
-3.91574e-24
9.15612e-24
-4.14429e-24
9.2027e-24
-2.08565e-24
1.41973e-23
-2.72574e-24
6.4133e-24
-3.83362e-24
8.84232e-24
-4.97005e-24
7.91604e-24
-3.31973e-24
7.19895e-24
-3.89464e-24
6.96742e-24
-5.60259e-24
4.28656e-24
-6.12143e-24
6.81837e-24
-4.63059e-24
8.5696e-24
-5.94182e-24
8.35533e-24
-5.26449e-24
1.27666e-23
-6.68289e-24
6.2811e-24
-7.40008e-24
1.44521e-23
-8.03845e-24
1.66893e-23
-6.81142e-24
1.77965e-23
-4.76551e-24
2.57564e-23
-4.9815e-24
3.21879e-23
3.14261e-23
-3.42235e-26
9.60402e-24
2.9881e-24
-2.81576e-24
6.59714e-24
-1.8499e-24
8.78438e-24
-3.8015e-24
6.62552e-24
-3.72546e-24
1.25058e-23
-2.5161e-24
1.0839e-23
-3.55874e-24
1.20818e-23
-4.10343e-24
7.38656e-24
-4.22104e-24
5.88643e-24
-4.81505e-24
-9.73171e-25
-3.21776e-24
5.21712e-24
-4.29985e-24
1.91765e-23
-4.06655e-24
8.8371e-24
-3.92717e-24
7.78218e-24
-2.37876e-24
1.13193e-23
-2.72644e-24
2.30171e-24
-3.50955e-24
8.18749e-24
-5.25774e-24
4.94182e-24
-3.15723e-24
8.5312e-24
-4.06678e-24
4.1202e-24
-5.43089e-24
4.27999e-24
-5.93077e-24
8.37088e-24
-4.47259e-24
1.26709e-23
-5.66984e-24
9.39226e-24
-5.57748e-24
1.11448e-23
-6.29365e-24
1.0281e-23
-7.16846e-24
1.61137e-23
-8.08269e-24
1.34233e-23
-5.96342e-24
2.06469e-23
-4.40654e-24
2.50531e-23
-4.83824e-24
3.10481e-23
2.69804e-23
-6.99931e-25
1.86587e-23
2.61209e-24
-2.31494e-24
4.60962e-24
-2.14163e-24
8.80935e-24
-3.22375e-24
6.86241e-24
-3.99143e-24
7.43057e-24
-2.723e-24
1.16347e-23
-3.72248e-24
3.43558e-24
-4.17892e-24
-8.73916e-25
-4.56629e-24
6.64637e-24
-4.44961e-24
2.52228e-24
-2.58451e-24
5.05743e-24
-5.20406e-24
1.09401e-23
-3.574e-24
1.69254e-23
-3.978e-24
7.60481e-24
-2.77155e-24
6.39535e-24
-2.51571e-24
1.08978e-24
-3.45912e-24
6.62185e-24
-5.27775e-24
5.76612e-24
-3.04756e-24
8.57374e-24
-3.8623e-24
4.06601e-24
-5.26824e-24
1.63573e-24
-5.59713e-24
9.53666e-24
-4.58749e-24
1.35387e-23
-5.60194e-24
1.10491e-23
-5.51499e-24
1.23091e-23
-5.97484e-24
1.18195e-23
-7.14037e-24
1.78482e-23
-7.71843e-24
1.43828e-23
-5.50731e-24
3.04117e-23
-4.26218e-24
2.80791e-23
-4.86933e-24
2.90896e-23
2.90362e-23
-1.09003e-24
1.3464e-23
2.25629e-24
-2.12487e-24
1.77721e-24
-2.10975e-24
6.90169e-24
-3.20614e-24
3.5193e-24
-3.52465e-24
4.52262e-24
-3.68059e-24
1.08378e-23
-3.64894e-24
2.88406e-24
-3.9225e-24
-1.63827e-25
-4.7433e-24
7.94563e-24
-4.1956e-24
1.69069e-24
-2.48076e-24
6.50608e-24
-4.62018e-24
1.28788e-23
-3.88652e-24
1.19446e-23
-4.2078e-24
4.07645e-24
-2.82732e-24
7.33087e-24
-2.2528e-24
3.32443e-24
-3.40215e-24
5.51358e-24
-5.21201e-24
4.81091e-24
-2.92629e-24
7.89809e-24
-3.94128e-24
1.457e-24
-4.89322e-24
1.45898e-24
-5.37112e-24
1.04997e-23
-4.67329e-24
1.46055e-23
-5.43324e-24
1.26438e-23
-5.48678e-24
1.2244e-23
-5.69531e-24
1.73998e-23
-7.19719e-24
2.05036e-23
-6.97789e-24
2.40229e-23
-5.37233e-24
3.09763e-23
-4.39295e-24
2.87413e-23
-4.64132e-24
3.18092e-23
4.07695e-23
-1.58333e-24
2.00175e-23
2.15512e-24
-1.87652e-24
5.16264e-24
-2.03377e-24
1.15846e-23
-3.27195e-24
4.74374e-24
-3.07024e-24
4.15525e-24
-4.1423e-24
3.0966e-24
-3.53191e-24
1.24663e-23
-3.8798e-24
-8.65299e-25
-4.56541e-24
4.43137e-24
-4.04234e-24
5.63765e-24
-2.15275e-24
9.45524e-24
-4.63143e-24
-3.70303e-25
-4.24157e-24
1.12153e-23
-4.31912e-24
3.76389e-24
-2.95743e-24
9.33892e-24
-2.19865e-24
1.65126e-24
-3.13368e-24
7.81776e-24
-5.21097e-24
4.25885e-24
-3.033e-24
1.55301e-23
-3.95709e-24
2.19964e-24
-4.46677e-24
1.347e-24
-5.17538e-24
1.17502e-23
-4.56965e-24
1.58595e-23
-5.42926e-24
1.70432e-23
-5.27307e-24
1.63088e-23
-5.57006e-24
1.89637e-23
-6.68571e-24
2.26546e-23
-6.88446e-24
2.4649e-23
-5.22454e-24
3.15178e-23
-4.36074e-24
2.99699e-23
-3.91714e-24
3.21098e-23
3.80489e-23
-2.3086e-24
1.18356e-23
1.53077e-24
-1.42182e-24
9.51564e-24
-2.60011e-24
8.83279e-24
-3.0085e-24
7.33623e-24
-3.24285e-24
8.74191e-24
-3.79167e-24
5.69445e-26
-3.8736e-24
8.58405e-24
-3.9644e-24
1.98737e-24
-4.40809e-24
2.26767e-24
-3.5667e-24
4.98251e-24
-2.39658e-24
8.04126e-24
-4.13421e-24
4.99838e-24
-4.40811e-24
6.74535e-24
-4.12332e-24
3.41316e-24
-2.97043e-24
6.72852e-24
-1.78365e-24
2.84143e-24
-3.26346e-24
4.24669e-24
-4.80656e-24
5.58241e-24
-3.65673e-24
1.39059e-23
-3.76029e-24
4.76233e-24
-3.82074e-24
2.03867e-24
-5.00445e-24
9.39567e-24
-4.34119e-24
1.55631e-23
-5.32325e-24
1.35202e-23
-5.1516e-24
1.64648e-23
-5.40343e-24
2.35187e-23
-6.28989e-24
2.35306e-23
-6.9523e-24
1.66484e-23
-5.09216e-24
3.2248e-23
-4.41871e-24
3.10735e-23
-3.48506e-24
3.21204e-23
3.78843e-23
-1.92223e-24
1.08821e-23
1.68632e-24
-1.63615e-24
4.78193e-24
-2.54646e-24
8.87362e-24
-2.98918e-24
4.17032e-24
-3.44653e-24
-6.506e-25
-3.32904e-24
4.42304e-24
-4.29867e-24
5.30794e-24
-4.08527e-24
2.15907e-24
-4.11204e-24
5.15881e-24
-3.27894e-24
3.99783e-24
-2.7631e-24
9.0797e-24
-3.97127e-24
4.88378e-24
-4.42185e-24
3.03121e-24
-3.76058e-24
7.46794e-24
-3.15706e-24
9.04155e-24
-1.63858e-24
1.0401e-23
-3.16556e-24
4.67621e-24
-4.19608e-24
5.45144e-24
-3.85649e-24
1.03629e-23
-3.90236e-24
6.81411e-24
-3.49135e-24
1.20392e-23
-4.71879e-24
1.05812e-23
-4.43429e-24
1.16387e-23
-5.09975e-24
1.4583e-23
-4.85067e-24
1.81891e-23
-5.34222e-24
2.44778e-23
-6.46327e-24
2.46346e-23
-6.32728e-24
1.74476e-23
-4.94684e-24
2.83068e-23
-4.40424e-24
3.11537e-23
-3.13504e-24
3.43574e-23
4.02835e-23
-2.00225e-24
1.52357e-23
1.89286e-24
-1.44839e-24
5.02623e-24
-2.55452e-24
1.39392e-23
-3.44873e-24
4.28411e-24
-3.33533e-24
3.37039e-24
-3.48138e-24
5.69879e-25
-4.06777e-24
8.05378e-24
-4.14964e-24
1.23851e-23
-3.93577e-24
1.34467e-23
-3.22227e-24
1.2444e-23
-2.37068e-24
1.79116e-23
-4.04854e-24
3.72761e-24
-3.98966e-24
6.83341e-24
-3.70347e-24
8.22545e-24
-3.36573e-24
8.75278e-24
-1.80864e-24
8.36929e-24
-2.98266e-24
1.75269e-24
-4.04513e-24
4.46351e-24
-3.68802e-24
1.42034e-23
-3.95443e-24
5.89435e-24
-3.48663e-24
1.44368e-23
-4.53318e-24
1.10325e-23
-4.28328e-24
1.2507e-23
-4.78635e-24
1.52958e-23
-4.60231e-24
1.81878e-23
-5.30228e-24
2.17871e-23
-6.73863e-24
2.57752e-23
-5.97337e-24
1.75081e-23
-4.61131e-24
2.83294e-23
-4.22121e-24
3.50493e-23
-2.90533e-24
3.69149e-23
4.80242e-23
-2.01052e-24
1.5723e-23
1.86724e-24
-1.68693e-24
8.236e-24
-2.56927e-24
2.00404e-23
-3.91301e-24
5.52564e-24
-2.97533e-24
1.32523e-23
-3.39982e-24
5.10568e-24