/*--------------------------------*- C++ -*----------------------------------*\
  =========                 |
  \\      /  F ield         | OpenFOAM: The Open Source CFD Toolbox
   \\    /   O peration     | Website:  https://openfoam.org
    \\  /    A nd           | Version:  7
     \\/     M anipulation  |
\*---------------------------------------------------------------------------*/
FoamFile
{
    version     2.0;
    format      ascii;
    class       volScalarField;
    location    "28000";
    object      nu;
}
// * * * * * * * * * * * * * * * * * * * * * * * * * * * * * * * * * * * * * //

dimensions      [0 2 -1 0 0 0 0];

internalField   nonuniform List<scalar> 
4782
(
2.63942e-06
2.6111e-06
2.58413e-06
2.55841e-06
2.53385e-06
2.51039e-06
2.48794e-06
2.46645e-06
2.44586e-06
2.42611e-06
0.000417055
0.000368138
0.000276302
0.000176238
0.000101127
5.69982e-05
3.40224e-05
2.23075e-05
1.60852e-05
1.2537e-05
1.03444e-05
8.88248e-06
7.84262e-06
7.06421e-06
6.45834e-06
5.97254e-06
5.57391e-06
5.24074e-06
4.95803e-06
4.71508e-06
4.50404e-06
4.31897e-06
4.15536e-06
4.00967e-06
3.87909e-06
3.76138e-06
3.65472e-06
3.55762e-06
3.46884e-06
3.38736e-06
3.3123e-06
3.24293e-06
3.17863e-06
3.11885e-06
3.06313e-06
3.01108e-06
2.96233e-06
2.91659e-06
2.87358e-06
2.83306e-06
2.79483e-06
2.75869e-06
2.72448e-06
2.69205e-06
2.66126e-06
2.63199e-06
2.60413e-06
2.57758e-06
2.55226e-06
2.52807e-06
2.50495e-06
2.48283e-06
2.46164e-06
2.44133e-06
2.42185e-06
0.000396972
0.000330994
0.00023331
0.000142016
8.03426e-05
4.61078e-05
2.85369e-05
1.94602e-05
1.45068e-05
1.15898e-05
9.72985e-06
8.45563e-06
7.52947e-06
6.8246e-06
6.26905e-06
5.81927e-06
5.44738e-06
5.13461e-06
4.86783e-06
4.63757e-06
4.43677e-06
4.26012e-06
4.10349e-06
3.96365e-06
3.83803e-06
3.72456e-06
3.62155e-06
3.52761e-06
3.44159e-06
3.36252e-06
3.28959e-06
3.22211e-06
3.15948e-06
3.10121e-06
3.04684e-06
2.996e-06
2.94835e-06
2.9036e-06
2.8615e-06
2.82181e-06
2.78433e-06
2.74888e-06
2.71531e-06
2.68346e-06
2.65321e-06
2.62444e-06
2.59705e-06
2.57093e-06
2.54601e-06
2.5222e-06
2.49942e-06
2.47762e-06
2.45674e-06
2.43671e-06
2.4175e-06
0.000370758
0.000289668
0.000191928
0.000112632
6.3678e-05
3.75768e-05
2.42075e-05
1.71573e-05
1.3189e-05
1.07729e-05
9.18427e-06
8.06765e-06
7.23959e-06
6.5997e-06
6.08948e-06
5.67266e-06
5.32552e-06
5.03183e-06
4.78007e-06
4.56184e-06
4.37083e-06
4.20225e-06
4.05235e-06
3.91817e-06
3.79736e-06
3.68801e-06
3.58856e-06
3.49771e-06
3.41439e-06
3.33769e-06
3.26686e-06
3.20125e-06
3.14028e-06
3.08349e-06
3.03046e-06
2.98083e-06
2.93427e-06
2.89052e-06
2.84931e-06
2.81045e-06
2.77372e-06
2.73897e-06
2.70603e-06
2.67477e-06
2.64507e-06
2.6168e-06
2.58987e-06
2.56418e-06
2.53966e-06
2.51623e-06
2.4938e-06
2.47233e-06
2.45176e-06
2.43202e-06
2.41307e-06
0.000336587
0.000245572
0.000153982
8.83667e-05
5.06226e-05
3.09556e-05
2.07882e-05
1.5282e-05
1.20774e-05
1.006e-05
8.69404e-06
7.71075e-06
6.96806e-06
6.3861e-06
5.91707e-06
5.53065e-06
5.20662e-06
4.93092e-06
4.69344e-06
4.48673e-06
4.30517e-06
4.1444e-06
4.00104e-06
3.8724e-06
3.75632e-06
3.65104e-06
3.5551e-06
3.46732e-06
3.38669e-06
3.31236e-06
3.24363e-06
3.17988e-06
3.12059e-06
3.0653e-06
3.01362e-06
2.9652e-06
2.91975e-06
2.877e-06
2.83671e-06
2.79869e-06
2.76273e-06
2.72869e-06
2.6964e-06
2.66574e-06
2.63659e-06
2.60883e-06
2.58238e-06
2.55714e-06
2.53303e-06
2.50998e-06
2.48792e-06
2.46679e-06
2.44653e-06
2.42709e-06
2.40842e-06
0.000336554
0.000245515
0.000153939
8.83443e-05
5.0613e-05
3.09518e-05
2.07867e-05
1.52814e-05
1.20771e-05
1.00599e-05
8.694e-06
7.71074e-06
6.96806e-06
6.38611e-06
5.91708e-06
5.53066e-06
5.20663e-06
4.93093e-06
4.69345e-06
4.48674e-06
4.30517e-06
4.14441e-06
4.00105e-06
3.87241e-06
3.75633e-06
3.65104e-06
3.55511e-06
3.46732e-06
3.38669e-06
3.31237e-06
3.24364e-06
3.17989e-06
3.12059e-06
3.0653e-06
3.01362e-06
2.9652e-06
2.91975e-06
2.877e-06
2.83672e-06
2.79869e-06
2.76273e-06
2.72869e-06
2.6964e-06
2.66574e-06
2.63659e-06
2.60884e-06
2.58238e-06
2.55714e-06
2.53304e-06
2.50998e-06
2.48792e-06
2.46679e-06
2.44653e-06
2.42709e-06
2.40842e-06
0.000370575
0.00028941
0.000191732
0.000112528
6.36335e-05
3.75597e-05
2.42011e-05
1.71549e-05
1.31881e-05
1.07726e-05
9.18421e-06
8.06766e-06
7.23963e-06
6.59975e-06
6.08954e-06
5.67271e-06
5.32556e-06
5.03187e-06
4.78011e-06
4.56187e-06
4.37087e-06
4.20228e-06
4.05237e-06
3.91819e-06
3.79738e-06
3.68803e-06
3.58858e-06
3.49772e-06
3.4144e-06
3.33771e-06
3.26688e-06
3.20126e-06
3.14029e-06
3.08351e-06
3.03047e-06
2.98084e-06
2.93428e-06
2.89052e-06
2.84932e-06
2.81046e-06
2.77373e-06
2.73898e-06
2.70604e-06
2.67478e-06
2.64507e-06
2.6168e-06
2.58987e-06
2.56419e-06
2.53967e-06
2.51623e-06
2.49381e-06
2.47234e-06
2.45176e-06
2.43202e-06
2.41307e-06
2.39486e-06
2.37735e-06
2.36051e-06
2.34429e-06
0.00039578
0.000329893
0.000232587
0.000141662
8.0203e-05
4.60588e-05
2.85205e-05
1.94548e-05
1.45052e-05
1.15893e-05
9.72984e-06
8.45575e-06
7.52961e-06
6.82473e-06
6.26917e-06
5.81938e-06
5.44747e-06
5.13469e-06
4.86791e-06
4.63763e-06
4.43683e-06
4.26018e-06
4.10354e-06
3.9637e-06
3.83807e-06
3.7246e-06
3.62158e-06
3.52764e-06
3.44161e-06
3.36254e-06
3.28961e-06
3.22213e-06
3.1595e-06
3.10123e-06
3.04686e-06
2.99602e-06
2.94837e-06
2.90362e-06
2.86151e-06
2.82182e-06
2.78434e-06
2.7489e-06
2.71532e-06
2.68347e-06
2.65322e-06
2.62445e-06
2.59706e-06
2.57094e-06
2.54602e-06
2.5222e-06
2.49943e-06
2.47763e-06
2.45674e-06
2.43672e-06
2.41749e-06
2.39903e-06
2.38129e-06
2.36422e-06
2.34779e-06
2.33196e-06
0.000412642
0.000364737
0.000274291
0.000175324
0.000100792
5.68913e-05
3.39907e-05
2.22987e-05
1.60832e-05
1.25368e-05
1.03447e-05
8.88286e-06
7.84296e-06
7.0645e-06
6.45858e-06
5.97274e-06
5.57408e-06
5.24089e-06
4.95816e-06
4.71519e-06
4.50413e-06
4.31906e-06
4.15544e-06
4.00973e-06
3.87915e-06
3.76144e-06
3.65477e-06
3.55767e-06
3.46889e-06
3.3874e-06
3.31234e-06
3.24297e-06
3.17866e-06
3.11888e-06
3.06316e-06
3.0111e-06
2.96236e-06
2.91661e-06
2.8736e-06
2.83308e-06
2.79485e-06
2.75871e-06
2.7245e-06
2.69207e-06
2.66128e-06
2.63201e-06
2.60415e-06
2.5776e-06
2.55227e-06
2.52809e-06
2.50497e-06
2.48284e-06
2.46165e-06
2.44134e-06
2.42185e-06
2.40314e-06
2.38516e-06
2.36786e-06
2.35122e-06
2.33519e-06
2.31975e-06
2.30486e-06
2.29049e-06
2.27662e-06
2.26322e-06
2.25028e-06
2.23776e-06
2.22564e-06
2.21392e-06
2.20256e-06
2.19156e-06
2.1809e-06
2.17057e-06
2.16054e-06
2.1508e-06
2.14136e-06
2.13218e-06
2.12327e-06
2.1146e-06
2.10618e-06
2.09799e-06
2.09002e-06
2.08226e-06
2.07471e-06
2.06736e-06
2.0602e-06
2.05322e-06
2.04642e-06
2.03979e-06
2.03332e-06
2.02702e-06
2.02087e-06
2.01487e-06
2.00901e-06
2.00329e-06
0.000422262
0.000392498
0.000314297
0.0002124
0.000125621
7.05057e-05
4.08864e-05
2.58139e-05
1.79767e-05
1.36382e-05
1.10388e-05
9.35315e-06
8.18134e-06
7.3196e-06
6.65784e-06
6.13266e-06
5.70518e-06
5.35021e-06
5.05061e-06
4.79432e-06
4.57254e-06
4.37872e-06
4.20787e-06
4.05613e-06
3.92046e-06
3.79841e-06
3.68802e-06
3.5877e-06
3.49612e-06
3.41219e-06
3.33497e-06
3.26369e-06
3.19769e-06
3.1364e-06
3.07933e-06
3.02605e-06
2.9762e-06
2.92946e-06
2.88555e-06
2.84421e-06
2.80522e-06
2.76839e-06
2.73355e-06
2.70053e-06
2.6692e-06
2.63943e-06
2.61112e-06
2.58414e-06
2.55842e-06
2.53386e-06
2.5104e-06
2.48795e-06
2.46646e-06
2.44587e-06
2.42611e-06
2.40715e-06
2.38894e-06
2.37142e-06
2.35458e-06
2.33835e-06
2.32273e-06
2.30766e-06
2.29313e-06
2.2791e-06
2.26556e-06
2.25247e-06
2.23981e-06
2.22757e-06
2.21573e-06
2.20426e-06
2.19315e-06
2.18238e-06
2.17195e-06
2.16182e-06
2.152e-06
2.14246e-06
2.13321e-06
2.12421e-06
2.11547e-06
2.10697e-06
2.09871e-06
2.09068e-06
2.08285e-06
2.07524e-06
2.06783e-06
2.06061e-06
2.05358e-06
2.04673e-06
2.04005e-06
2.03353e-06
2.02718e-06
2.02099e-06
2.01494e-06
2.00904e-06
2.00328e-06
0.000426212
0.000412808
0.000350262
0.000251078
0.000154395
8.72027e-05
4.94693e-05
3.01408e-05
2.02513e-05
1.49221e-05
1.1824e-05
9.87158e-06
8.54663e-06
7.59059e-06
6.86695e-06
6.29892e-06
5.84047e-06
5.46235e-06
5.14498e-06
4.87474e-06
4.64181e-06
4.43894e-06
4.26065e-06
4.10272e-06
3.96183e-06
3.83536e-06
3.7212e-06
3.61762e-06
3.52321e-06
3.43681e-06
3.35742e-06
3.28423e-06
3.21653e-06
3.15372e-06
3.09529e-06
3.0408e-06
2.98986e-06
2.94212e-06
2.89731e-06
2.85515e-06
2.81541e-06
2.7779e-06
2.74243e-06
2.70883e-06
2.67697e-06
2.64672e-06
2.61794e-06
2.59055e-06
2.56443e-06
2.53952e-06
2.51571e-06
2.49295e-06
2.47116e-06
2.45029e-06
2.43028e-06
2.41107e-06
2.39263e-06
2.3749e-06
2.35785e-06
2.34144e-06
2.32563e-06
2.31039e-06
2.2957e-06
2.28152e-06
2.26783e-06
2.2546e-06
2.24182e-06
2.22945e-06
2.21749e-06
2.20591e-06
2.19469e-06
2.18382e-06
2.17329e-06
2.16307e-06
2.15316e-06
2.14354e-06
2.1342e-06
2.12513e-06
2.11631e-06
2.10775e-06
2.09942e-06
2.09131e-06
2.08343e-06
2.07576e-06
2.06829e-06
2.06102e-06
2.05393e-06
2.04702e-06
2.0403e-06
2.03373e-06
2.02734e-06
2.0211e-06
2.01501e-06
2.00907e-06
2.00326e-06
0.000426097
0.000426213
0.000380615
0.000289356
0.000186427
0.000107178
6.00236e-05
3.54408e-05
2.29785e-05
1.6418e-05
1.27124e-05
1.04427e-05
8.94033e-06
7.87776e-06
7.08571e-06
6.47116e-06
5.97956e-06
5.57692e-06
5.2409e-06
4.95612e-06
4.71165e-06
4.49947e-06
4.31355e-06
4.14929e-06
4.00311e-06
3.87215e-06
3.75417e-06
3.6473e-06
3.55005e-06
3.46116e-06
3.3796e-06
3.30449e-06
3.23509e-06
3.17078e-06
3.111e-06
3.0553e-06
3.00326e-06
2.95455e-06
2.90884e-06
2.86587e-06
2.82539e-06
2.78721e-06
2.75112e-06
2.71695e-06
2.68457e-06
2.65383e-06
2.62461e-06
2.5968e-06
2.5703e-06
2.54503e-06
2.52089e-06
2.49782e-06
2.47574e-06
2.4546e-06
2.43433e-06
2.41489e-06
2.39622e-06
2.37828e-06
2.36103e-06
2.34443e-06
2.32844e-06
2.31304e-06
2.29819e-06
2.28386e-06
2.27003e-06
2.25667e-06
2.24376e-06
2.23127e-06
2.2192e-06
2.2075e-06
2.19618e-06
2.18522e-06
2.17459e-06
2.16428e-06
2.15428e-06
2.14458e-06
2.13516e-06
2.12602e-06
2.11713e-06
2.10849e-06
2.1001e-06
2.09193e-06
2.08399e-06
2.07626e-06
2.06873e-06
2.0614e-06
2.05427e-06
2.04731e-06
2.04053e-06
2.03393e-06
2.02749e-06
2.0212e-06
2.01507e-06
2.00909e-06
2.00325e-06
0.000423349
0.000433799
0.00040462
0.000325285
0.000220579
0.000130371
7.27842e-05
4.18787e-05
2.62358e-05
1.81579e-05
1.37165e-05
1.10711e-05
9.36387e-06
8.18125e-06
7.3138e-06
6.6489e-06
6.12194e-06
5.69347e-06
5.33797e-06
5.03812e-06
4.78176e-06
4.56002e-06
4.36632e-06
4.19564e-06
4.04409e-06
3.90861e-06
3.78678e-06
3.67661e-06
3.57651e-06
3.48514e-06
3.40141e-06
3.3244e-06
3.25331e-06
3.1875e-06
3.12639e-06
3.06949e-06
3.01638e-06
2.96669e-06
2.9201e-06
2.87633e-06
2.83513e-06
2.79628e-06
2.75958e-06
2.72486e-06
2.69196e-06
2.66075e-06
2.63109e-06
2.60287e-06
2.576e-06
2.55038e-06
2.52591e-06
2.50254e-06
2.48018e-06
2.45877e-06
2.43826e-06
2.41858e-06
2.3997e-06
2.38155e-06
2.36411e-06
2.34733e-06
2.33117e-06
2.31561e-06
2.3006e-06
2.28613e-06
2.27216e-06
2.25867e-06
2.24564e-06
2.23303e-06
2.22084e-06
2.20905e-06
2.19763e-06
2.18656e-06
2.17584e-06
2.16545e-06
2.15537e-06
2.14559e-06
2.13609e-06
2.12687e-06
2.11792e-06
2.10921e-06
2.10075e-06
2.09253e-06
2.08452e-06
2.07674e-06
2.06916e-06
2.06178e-06
2.05459e-06
2.04759e-06
2.04076e-06
2.03411e-06
2.02763e-06
2.0213e-06
2.01513e-06
2.00911e-06
2.00324e-06
0.000419132
0.000436894
0.000422325
0.000357249
0.000255309
0.00015631
8.7816e-05
4.95706e-05
3.00927e-05
2.01751e-05
1.48501e-05
1.1762e-05
9.81878e-06
8.50115e-06
7.55078e-06
6.83157e-06
6.26706e-06
5.81148e-06
5.43572e-06
5.12034e-06
4.85179e-06
4.62031e-06
4.41871e-06
4.24154e-06
4.08459e-06
3.94457e-06
3.81888e-06
3.70542e-06
3.60248e-06
3.50865e-06
3.42277e-06
3.34386e-06
3.27111e-06
3.20382e-06
3.14139e-06
3.08331e-06
3.02914e-06
2.9785e-06
2.93105e-06
2.8865e-06
2.84458e-06
2.80508e-06
2.76779e-06
2.73252e-06
2.69912e-06
2.66745e-06
2.63736e-06
2.60875e-06
2.58151e-06
2.55555e-06
2.53077e-06
2.5071e-06
2.48447e-06
2.46281e-06
2.44205e-06
2.42215e-06
2.40305e-06
2.38471e-06
2.36708e-06
2.35012e-06
2.3338e-06
2.31808e-06
2.30293e-06
2.28831e-06
2.27421e-06
2.2606e-06
2.24744e-06
2.23473e-06
2.22243e-06
2.21053e-06
2.19901e-06
2.18786e-06
2.17705e-06
2.16657e-06
2.15641e-06
2.14655e-06
2.13698e-06
2.12769e-06
2.11867e-06
2.1099e-06
2.10138e-06
2.0931e-06
2.08504e-06
2.0772e-06
2.06956e-06
2.06213e-06
2.0549e-06
2.04785e-06
2.04098e-06
2.03429e-06
2.02776e-06
2.0214e-06
2.01519e-06
2.00913e-06
2.00322e-06
0.00041428
0.000436772
0.000434375
0.000384324
0.000289154
0.000184344
0.00010512
5.8639e-05
3.46224e-05
2.24995e-05
1.61236e-05
1.25184e-05
1.03053e-05
8.83681e-06
7.7958e-06
7.01833e-06
6.41416e-06
5.9303e-06
5.53363e-06
5.20231e-06
4.92135e-06
4.68001e-06
4.47045e-06
4.28675e-06
4.12439e-06
3.97984e-06
3.85032e-06
3.73359e-06
3.62783e-06
3.53157e-06
3.44356e-06
3.3628e-06
3.28841e-06
3.21966e-06
3.15594e-06
3.09671e-06
3.04151e-06
2.98993e-06
2.94164e-06
2.89632e-06
2.85372e-06
2.81358e-06
2.77571e-06
2.73991e-06
2.70603e-06
2.6739e-06
2.64341e-06
2.61441e-06
2.58682e-06
2.56053e-06
2.53545e-06
2.51149e-06
2.48859e-06
2.46668e-06
2.44569e-06
2.42558e-06
2.40627e-06
2.38774e-06
2.36993e-06
2.3528e-06
2.33632e-06
2.32045e-06
2.30516e-06
2.29041e-06
2.27618e-06
2.26244e-06
2.24917e-06
2.23635e-06
2.22395e-06
2.21195e-06
2.20034e-06
2.1891e-06
2.1782e-06
2.16765e-06
2.15741e-06
2.14748e-06
2.13784e-06
2.12848e-06
2.11939e-06
2.11056e-06
2.10198e-06
2.09364e-06
2.08553e-06
2.07763e-06
2.06995e-06
2.06248e-06
2.05519e-06
2.0481e-06
2.04119e-06
2.03446e-06
2.02789e-06
2.02149e-06
2.01525e-06
2.00915e-06
2.00321e-06
0.000409366
0.000434538
0.000441719
0.000406178
0.000320793
0.00021357
0.000124508
6.9141e-05
3.98812e-05
2.51563e-05
1.75459e-05
1.33422e-05
1.08231e-05
9.18721e-06
8.04772e-06
7.20816e-06
6.56239e-06
6.04922e-06
5.63108e-06
5.28355e-06
4.99003e-06
4.73876e-06
4.52122e-06
4.33101e-06
4.16327e-06
4.01424e-06
3.88092e-06
3.76097e-06
3.65244e-06
3.55379e-06
3.4637e-06
3.38112e-06
3.30512e-06
3.23496e-06
3.16998e-06
3.10963e-06
3.05342e-06
3.00094e-06
2.95183e-06
2.90577e-06
2.86249e-06
2.82175e-06
2.78331e-06
2.74701e-06
2.71265e-06
2.68009e-06
2.6492e-06
2.61984e-06
2.5919e-06
2.56529e-06
2.53992e-06
2.51569e-06
2.49254e-06
2.47039e-06
2.44918e-06
2.42885e-06
2.40935e-06
2.39064e-06
2.37265e-06
2.35537e-06
2.33873e-06
2.32271e-06
2.30728e-06
2.29241e-06
2.27806e-06
2.2642e-06
2.25083e-06
2.2379e-06
2.2254e-06
2.21331e-06
2.20161e-06
2.19028e-06
2.1793e-06
2.16867e-06
2.15836e-06
2.14835e-06
2.13865e-06
2.12923e-06
2.12008e-06
2.11119e-06
2.10256e-06
2.09416e-06
2.08599e-06
2.07805e-06
2.07032e-06
2.0628e-06
2.05547e-06
2.04834e-06
2.04139e-06
2.03462e-06
2.02801e-06
2.02158e-06
2.0153e-06
2.00917e-06
2.00319e-06
0.000404763
0.000431081
0.000445408
0.000422975
0.000349184
0.000242901
0.00014555
8.10152e-05
4.58825e-05
2.81581e-05
1.91216e-05
1.42342e-05
1.13713e-05
9.55099e-06
8.30523e-06
7.39991e-06
6.71077e-06
6.16745e-06
5.72744e-06
5.36352e-06
5.05738e-06
4.79621e-06
4.57072e-06
4.37407e-06
4.20102e-06
4.04756e-06
3.91053e-06
3.78741e-06
3.67618e-06
3.57519e-06
3.48308e-06
3.39873e-06
3.32118e-06
3.24964e-06
3.18344e-06
3.122e-06
3.06482e-06
3.01147e-06
2.96157e-06
2.9148e-06
2.87088e-06
2.82954e-06
2.79057e-06
2.75377e-06
2.71897e-06
2.68599e-06
2.65472e-06
2.625e-06
2.59674e-06
2.56983e-06
2.54417e-06
2.51968e-06
2.49629e-06
2.47391e-06
2.45249e-06
2.43196e-06
2.41228e-06
2.39339e-06
2.37524e-06
2.3578e-06
2.34102e-06
2.32486e-06
2.3093e-06
2.2943e-06
2.27983e-06
2.26587e-06
2.25239e-06
2.23936e-06
2.22677e-06
2.21459e-06
2.20281e-06
2.1914e-06
2.18035e-06
2.16964e-06
2.15926e-06
2.14919e-06
2.13942e-06
2.12994e-06
2.12073e-06
2.11179e-06
2.1031e-06
2.09465e-06
2.08644e-06
2.07845e-06
2.07067e-06
2.06311e-06
2.05574e-06
2.04857e-06
2.04158e-06
2.03477e-06
2.02813e-06
2.02166e-06
2.01534e-06
2.00919e-06
2.00318e-06
0.000400671
0.000427055
0.000446433
0.000435249
0.000373733
0.000271306
0.000167675
9.41105e-05
5.26055e-05
3.15038e-05
2.08496e-05
1.51917e-05
1.19472e-05
9.92589e-06
8.5665e-06
7.59214e-06
6.85818e-06
6.28409e-06
5.82199e-06
5.44164e-06
5.12295e-06
4.85194e-06
4.61864e-06
4.41564e-06
4.2374e-06
4.07962e-06
3.93896e-06
3.81277e-06
3.69892e-06
3.59567e-06
3.5016e-06
3.41554e-06
3.33649e-06
3.26363e-06
3.19626e-06
3.13378e-06
3.07566e-06
3.02147e-06
2.97082e-06
2.92337e-06
2.87883e-06
2.83693e-06
2.79745e-06
2.76019e-06
2.72495e-06
2.69158e-06
2.65994e-06
2.62989e-06
2.60132e-06
2.57412e-06
2.5482e-06
2.52346e-06
2.49983e-06
2.47724e-06
2.45562e-06
2.4349e-06
2.41504e-06
2.39598e-06
2.37768e-06
2.36009e-06
2.34317e-06
2.32689e-06
2.3112e-06
2.29609e-06
2.28151e-06
2.26745e-06
2.25387e-06
2.24075e-06
2.22807e-06
2.2158e-06
2.20394e-06
2.19245e-06
2.18133e-06
2.17055e-06
2.1601e-06
2.14997e-06
2.14014e-06
2.1306e-06
2.12134e-06
2.11235e-06
2.10361e-06
2.09511e-06
2.08685e-06
2.07882e-06
2.071e-06
2.06339e-06
2.05599e-06
2.04878e-06
2.04175e-06
2.03491e-06
2.02824e-06
2.02173e-06
2.01539e-06
2.0092e-06
2.00317e-06
0.000397172
0.000422898
0.000445638
0.000443731
0.00039429
0.000297974
0.000190284
0.000108221
6.00064e-05
3.51801e-05
2.27206e-05
1.6208e-05
1.2546e-05
1.03085e-05
8.82912e-06
7.78308e-06
7.00329e-06
6.39813e-06
5.91394e-06
5.5173e-06
5.18621e-06
4.90557e-06
4.66462e-06
4.45545e-06
4.27216e-06
4.1102e-06
3.96605e-06
3.8369e-06
3.72052e-06
3.61511e-06
3.51916e-06
3.43146e-06
3.35098e-06
3.27687e-06
3.20838e-06
3.1449e-06
3.0859e-06
3.03091e-06
2.97955e-06
2.93145e-06
2.88632e-06
2.84389e-06
2.80393e-06
2.76622e-06
2.73057e-06
2.69683e-06
2.66485e-06
2.63449e-06
2.60562e-06
2.57815e-06
2.55197e-06
2.527e-06
2.50316e-06
2.48036e-06
2.45855e-06
2.43766e-06
2.41763e-06
2.39842e-06
2.37997e-06
2.36224e-06
2.34519e-06
2.32878e-06
2.31299e-06
2.29776e-06
2.28308e-06
2.26892e-06
2.25525e-06
2.24204e-06
2.22928e-06
2.21693e-06
2.20499e-06
2.19344e-06
2.18225e-06
2.1714e-06
2.16089e-06
2.1507e-06
2.14082e-06
2.13123e-06
2.12191e-06
2.11287e-06
2.10408e-06
2.09554e-06
2.08724e-06
2.07916e-06
2.07131e-06
2.06366e-06
2.05622e-06
2.04898e-06
2.04192e-06
2.03504e-06
2.02834e-06
2.0218e-06
2.01543e-06
2.00922e-06
2.00315e-06
0.000394279
0.0004189
0.000443699
0.000449185
0.000410987
0.000322278
0.000212714
0.000123032
6.79796e-05
3.91494e-05
2.47166e-05
1.72729e-05
1.31615e-05
1.06948e-05
9.0903e-06
7.97077e-06
7.14468e-06
6.50851e-06
6.00248e-06
5.58984e-06
5.24667e-06
4.95668e-06
4.70833e-06
4.49322e-06
4.30508e-06
4.13912e-06
3.99161e-06
3.85964e-06
3.74087e-06
3.63339e-06
3.53566e-06
3.44642e-06
3.36458e-06
3.28927e-06
3.21973e-06
3.15532e-06
3.09548e-06
3.03974e-06
2.9877e-06
2.939e-06
2.89332e-06
2.85039e-06
2.80997e-06
2.77184e-06
2.73582e-06
2.70173e-06
2.66942e-06
2.63876e-06
2.60963e-06
2.5819e-06
2.55549e-06
2.5303e-06
2.50625e-06
2.48326e-06
2.46127e-06
2.44022e-06
2.42004e-06
2.40068e-06
2.38209e-06
2.36424e-06
2.34707e-06
2.33055e-06
2.31464e-06
2.29932e-06
2.28454e-06
2.27029e-06
2.25653e-06
2.24324e-06
2.2304e-06
2.21798e-06
2.20597e-06
2.19435e-06
2.1831e-06
2.17219e-06
2.16163e-06
2.15138e-06
2.14145e-06
2.1318e-06
2.12244e-06
2.11335e-06
2.10452e-06
2.09594e-06
2.0876e-06
2.07949e-06
2.07159e-06
2.06391e-06
2.05644e-06
2.04916e-06
2.04207e-06
2.03516e-06
2.02843e-06
2.02187e-06
2.01547e-06
2.00923e-06
2.00314e-06
0.000391962
0.000415241
0.000441136
0.000452339
0.000424158
0.000343796
0.000234299
0.000138134
7.63548e-05
4.33437e-05
2.68075e-05
1.83712e-05
1.37852e-05
1.10798e-05
9.34691e-06
8.1531e-06
7.28085e-06
6.61411e-06
6.08676e-06
5.65862e-06
5.30381e-06
5.00484e-06
4.74943e-06
4.52866e-06
4.33592e-06
4.16616e-06
4.0155e-06
3.88087e-06
3.75983e-06
3.65041e-06
3.55101e-06
3.46031e-06
3.37721e-06
3.30079e-06
3.23026e-06
3.16497e-06
3.10435e-06
3.04792e-06
2.99525e-06
2.94598e-06
2.89979e-06
2.8564e-06
2.81555e-06
2.77704e-06
2.74066e-06
2.70625e-06
2.67365e-06
2.64271e-06
2.61332e-06
2.58536e-06
2.55873e-06
2.53334e-06
2.5091e-06
2.48594e-06
2.46379e-06
2.44258e-06
2.42225e-06
2.40276e-06
2.38405e-06
2.36607e-06
2.34879e-06
2.33217e-06
2.31616e-06
2.30075e-06
2.28588e-06
2.27154e-06
2.25771e-06
2.24434e-06
2.23143e-06
2.21895e-06
2.20688e-06
2.19519e-06
2.18388e-06
2.17292e-06
2.1623e-06
2.15201e-06
2.14202e-06
2.13233e-06
2.12293e-06
2.1138e-06
2.10493e-06
2.09631e-06
2.08793e-06
2.07978e-06
2.07185e-06
2.06414e-06
2.05664e-06
2.04933e-06
2.04221e-06
2.03527e-06
2.02852e-06
2.02193e-06
2.01551e-06
2.00924e-06
2.00313e-06
0.000390164
0.000412018
0.000438336
0.000453839
0.000434269
0.00036233
0.000254429
0.00015304
8.48846e-05
4.76546e-05
2.89483e-05
1.94833e-05
1.44074e-05
1.1458e-05
9.59555e-06
8.32781e-06
7.41022e-06
6.7138e-06
6.16594e-06
5.72299e-06
5.35711e-06
5.04966e-06
4.78759e-06
4.56151e-06
4.36445e-06
4.19115e-06
4.03753e-06
3.90042e-06
3.77728e-06
3.66607e-06
3.56512e-06
3.47308e-06
3.3888e-06
3.31134e-06
3.23991e-06
3.17381e-06
3.11248e-06
3.0554e-06
3.00216e-06
2.95237e-06
2.90571e-06
2.86189e-06
2.82065e-06
2.78179e-06
2.74509e-06
2.71038e-06
2.6775e-06
2.64631e-06
2.61669e-06
2.58851e-06
2.56168e-06
2.53611e-06
2.5117e-06
2.48838e-06
2.46607e-06
2.44473e-06
2.42427e-06
2.40465e-06
2.38583e-06
2.36775e-06
2.35036e-06
2.33364e-06
2.31755e-06
2.30205e-06
2.2871e-06
2.27269e-06
2.25878e-06
2.24535e-06
2.23237e-06
2.21983e-06
2.20769e-06
2.19596e-06
2.18459e-06
2.17358e-06
2.16292e-06
2.15257e-06
2.14255e-06
2.13282e-06
2.12337e-06
2.1142e-06
2.1053e-06
2.09664e-06
2.08823e-06
2.08005e-06
2.07209e-06
2.06435e-06
2.05682e-06
2.04948e-06
2.04233e-06
2.03538e-06
2.02859e-06
2.02198e-06
2.01554e-06
2.00925e-06
2.00312e-06
0.000388807
0.000409253
0.000435547
0.00045421
0.000441847
0.00037795
0.000272731
0.000167364
9.33542e-05
5.1984e-05
3.10912e-05
2.05844e-05
1.50149e-05
1.18222e-05
9.83197e-06
8.49225e-06
7.53103e-06
6.80635e-06
6.23911e-06
5.78226e-06
5.40606e-06
5.09071e-06
4.82247e-06
4.59148e-06
4.39045e-06
4.21388e-06
4.05756e-06
3.91818e-06
3.79312e-06
3.68026e-06
3.5779e-06
3.48463e-06
3.39928e-06
3.32089e-06
3.24863e-06
3.1818e-06
3.11981e-06
3.06215e-06
3.00839e-06
2.95812e-06
2.91104e-06
2.86683e-06
2.82525e-06
2.78606e-06
2.74907e-06
2.71409e-06
2.68096e-06
2.64955e-06
2.61972e-06
2.59135e-06
2.56434e-06
2.5386e-06
2.51403e-06
2.49057e-06
2.46813e-06
2.44666e-06
2.42608e-06
2.40636e-06
2.38743e-06
2.36925e-06
2.35177e-06
2.33497e-06
2.31879e-06
2.30321e-06
2.2882e-06
2.27371e-06
2.25974e-06
2.24625e-06
2.23321e-06
2.22061e-06
2.20843e-06
2.19664e-06
2.18523e-06
2.17417e-06
2.16346e-06
2.15308e-06
2.14302e-06
2.13325e-06
2.12377e-06
2.11457e-06
2.10563e-06
2.09694e-06
2.0885e-06
2.08029e-06
2.0723e-06
2.06454e-06
2.05698e-06
2.04962e-06
2.04245e-06
2.03547e-06
2.02866e-06
2.02203e-06
2.01557e-06
2.00926e-06
2.00311e-06
0.000387811
0.000406937
0.000432934
0.000453865
0.000447396
0.000390834
0.000288935
0.000180723
0.000101512
5.62069e-05
3.3178e-05
2.16467e-05
1.55938e-05
1.21647e-05
1.00519e-05
8.64376e-06
7.64155e-06
6.89054e-06
6.30539e-06
5.83578e-06
5.45014e-06
5.12761e-06
4.85377e-06
4.61833e-06
4.4137e-06
4.2342e-06
4.07544e-06
3.93402e-06
3.80723e-06
3.6929e-06
3.58927e-06
3.4949e-06
3.4086e-06
3.32937e-06
3.25637e-06
3.18889e-06
3.12632e-06
3.06814e-06
3.01391e-06
2.96323e-06
2.91576e-06
2.87121e-06
2.82931e-06
2.78984e-06
2.75259e-06
2.71737e-06
2.68403e-06
2.65241e-06
2.6224e-06
2.59386e-06
2.56669e-06
2.5408e-06
2.5161e-06
2.4925e-06
2.46995e-06
2.44836e-06
2.42768e-06
2.40786e-06
2.38884e-06
2.37057e-06
2.35302e-06
2.33614e-06
2.31989e-06
2.30424e-06
2.28916e-06
2.27462e-06
2.26059e-06
2.24704e-06
2.23396e-06
2.22131e-06
2.20908e-06
2.19724e-06
2.18579e-06
2.1747e-06
2.16395e-06
2.15353e-06
2.14343e-06
2.13363e-06
2.12412e-06
2.11488e-06
2.10592e-06
2.0972e-06
2.08873e-06
2.0805e-06
2.07249e-06
2.0647e-06
2.05712e-06
2.04974e-06
2.04255e-06
2.03555e-06
2.02872e-06
2.02208e-06
2.01559e-06
2.00927e-06
2.00311e-06
0.000387101
0.000405042
0.0004306
0.000453122
0.00045136
0.000401221
0.00030287
0.000192771
0.000109098
6.01849e-05
3.51435e-05
2.26396e-05
1.6129e-05
1.24779e-05
1.02508e-05
8.77972e-06
7.74007e-06
6.96523e-06
6.36398e-06
5.88294e-06
5.4889e-06
5.15998e-06
4.88119e-06
4.64182e-06
4.43403e-06
4.25193e-06
4.09103e-06
3.94782e-06
3.81951e-06
3.70389e-06
3.59916e-06
3.50383e-06
3.41669e-06
3.33673e-06
3.26309e-06
3.19503e-06
3.13196e-06
3.07333e-06
3.01869e-06
2.96765e-06
2.91985e-06
2.875e-06
2.83284e-06
2.79312e-06
2.75564e-06
2.72022e-06
2.68668e-06
2.65489e-06
2.62471e-06
2.59602e-06
2.56872e-06
2.5427e-06
2.51788e-06
2.49418e-06
2.47152e-06
2.44983e-06
2.42907e-06
2.40916e-06
2.39006e-06
2.37172e-06
2.35409e-06
2.33715e-06
2.32084e-06
2.30513e-06
2.29e-06
2.2754e-06
2.26132e-06
2.24773e-06
2.2346e-06
2.22191e-06
2.20964e-06
2.19777e-06
2.18627e-06
2.17515e-06
2.16437e-06
2.15392e-06
2.14379e-06
2.13396e-06
2.12442e-06
2.11516e-06
2.10617e-06
2.09743e-06
2.08894e-06
2.08068e-06
2.07265e-06
2.06484e-06
2.05724e-06
2.04984e-06
2.04263e-06
2.03562e-06
2.02878e-06
2.02211e-06
2.01562e-06
2.00928e-06
2.0031e-06
0.000386612
0.000403534
0.000428608
0.000452216
0.000454117
0.000409373
0.000314452
0.000203215
0.000115858
6.37754e-05
3.6919e-05
2.3531e-05
1.66053e-05
1.27539e-05
1.04246e-05
8.89759e-06
7.82499e-06
7.02933e-06
6.41409e-06
5.92319e-06
5.5219e-06
5.18751e-06
4.90447e-06
4.66173e-06
4.45124e-06
4.26694e-06
4.10422e-06
3.95948e-06
3.82989e-06
3.71317e-06
3.6075e-06
3.51136e-06
3.42352e-06
3.34294e-06
3.26875e-06
3.20021e-06
3.13671e-06
3.0777e-06
3.02272e-06
2.97136e-06
2.92329e-06
2.87819e-06
2.8358e-06
2.79587e-06
2.7582e-06
2.7226e-06
2.68891e-06
2.65697e-06
2.62666e-06
2.59784e-06
2.57042e-06
2.5443e-06
2.51938e-06
2.49558e-06
2.47283e-06
2.45107e-06
2.43023e-06
2.41025e-06
2.39108e-06
2.37268e-06
2.355e-06
2.33799e-06
2.32163e-06
2.30588e-06
2.29069e-06
2.27606e-06
2.26193e-06
2.2483e-06
2.23513e-06
2.22241e-06
2.21011e-06
2.1982e-06
2.18668e-06
2.17553e-06
2.16472e-06
2.15424e-06
2.14409e-06
2.13423e-06
2.12467e-06
2.11539e-06
2.10638e-06
2.09762e-06
2.08911e-06
2.08084e-06
2.07279e-06
2.06496e-06
2.05734e-06
2.04993e-06
2.04271e-06
2.03567e-06
2.02882e-06
2.02214e-06
2.01563e-06
2.00929e-06
2.00309e-06
0.000386287
0.000402377
0.000426994
0.000451319
0.000455971
0.000415541
0.000323661
0.00021182
0.000121564
6.68413e-05
3.84373e-05
2.42898e-05
1.70076e-05
1.29853e-05
1.05692e-05
8.99505e-06
7.89487e-06
7.08188e-06
6.45506e-06
5.95602e-06
5.54878e-06
5.20989e-06
4.92338e-06
4.6779e-06
4.4652e-06
4.2791e-06
4.1149e-06
3.96892e-06
3.83828e-06
3.72068e-06
3.61424e-06
3.51744e-06
3.42903e-06
3.34794e-06
3.27331e-06
3.20439e-06
3.14054e-06
3.08122e-06
3.02596e-06
2.97436e-06
2.92606e-06
2.88076e-06
2.83818e-06
2.79809e-06
2.76026e-06
2.72453e-06
2.6907e-06
2.65865e-06
2.62822e-06
2.59931e-06
2.57179e-06
2.54558e-06
2.52058e-06
2.49671e-06
2.47389e-06
2.45206e-06
2.43116e-06
2.41112e-06
2.3919e-06
2.37345e-06
2.35572e-06
2.33867e-06
2.32227e-06
2.30648e-06
2.29126e-06
2.27658e-06
2.26243e-06
2.24876e-06
2.23557e-06
2.22281e-06
2.21048e-06
2.19855e-06
2.18701e-06
2.17583e-06
2.165e-06
2.1545e-06
2.14433e-06
2.13445e-06
2.12488e-06
2.11558e-06
2.10655e-06
2.09777e-06
2.08925e-06
2.08096e-06
2.0729e-06
2.06506e-06
2.05743e-06
2.05e-06
2.04277e-06
2.03572e-06
2.02886e-06
2.02217e-06
2.01565e-06
2.00929e-06
2.00309e-06
0.000386081
0.000401538
0.000425772
0.000450549
0.000457159
0.000419951
0.000330514
0.000218412
0.000126022
6.92598e-05
3.96368e-05
2.48872e-05
1.73227e-05
1.31653e-05
1.06811e-05
9.07008e-06
7.94845e-06
7.12206e-06
6.48632e-06
5.98102e-06
5.56922e-06
5.2269e-06
4.93773e-06
4.69016e-06
4.47578e-06
4.28832e-06
4.12298e-06
3.97606e-06
3.84463e-06
3.72635e-06
3.61933e-06
3.52204e-06
3.43319e-06
3.35173e-06
3.27676e-06
3.20754e-06
3.14343e-06
3.08388e-06
3.02841e-06
2.97662e-06
2.92816e-06
2.8827e-06
2.83998e-06
2.79976e-06
2.76182e-06
2.72598e-06
2.69206e-06
2.65991e-06
2.6294e-06
2.60041e-06
2.57283e-06
2.54655e-06
2.52149e-06
2.49756e-06
2.47469e-06
2.45281e-06
2.43186e-06
2.41178e-06
2.39252e-06
2.37403e-06
2.35627e-06
2.33919e-06
2.32275e-06
2.30693e-06
2.29168e-06
2.27698e-06
2.2628e-06
2.24911e-06
2.23589e-06
2.22312e-06
2.21077e-06
2.19882e-06
2.18725e-06
2.17606e-06
2.16521e-06
2.1547e-06
2.14451e-06
2.13462e-06
2.12503e-06
2.11572e-06
2.10667e-06
2.09789e-06
2.08935e-06
2.08105e-06
2.07298e-06
2.06513e-06
2.05749e-06
2.05005e-06
2.04281e-06
2.03576e-06
2.02888e-06
2.02219e-06
2.01566e-06
2.0093e-06
2.00309e-06
0.000385957
0.000400989
0.000424951
0.000449989
0.00045785
0.000422779
0.000335048
0.000222867
0.000129079
7.09308e-05
4.0467e-05
2.52997e-05
1.75393e-05
1.32885e-05
1.07574e-05
9.12105e-06
7.98475e-06
7.14922e-06
6.50741e-06
5.99788e-06
5.58299e-06
5.23835e-06
4.94738e-06
4.6984e-06
4.48289e-06
4.2945e-06
4.12841e-06
3.98085e-06
3.84889e-06
3.73016e-06
3.62275e-06
3.52512e-06
3.43598e-06
3.35426e-06
3.27907e-06
3.20966e-06
3.14537e-06
3.08566e-06
3.03005e-06
2.97814e-06
2.92956e-06
2.884e-06
2.84118e-06
2.80088e-06
2.76286e-06
2.72695e-06
2.69296e-06
2.66076e-06
2.63019e-06
2.60115e-06
2.57352e-06
2.5472e-06
2.52209e-06
2.49813e-06
2.47522e-06
2.45331e-06
2.43233e-06
2.41223e-06
2.39294e-06
2.37442e-06
2.35663e-06
2.33953e-06
2.32307e-06
2.30723e-06
2.29196e-06
2.27725e-06
2.26305e-06
2.24934e-06
2.23611e-06
2.22332e-06
2.21096e-06
2.19899e-06
2.18742e-06
2.17621e-06
2.16535e-06
2.15483e-06
2.14463e-06
2.13473e-06
2.12513e-06
2.11581e-06
2.10676e-06
2.09797e-06
2.08942e-06
2.08111e-06
2.07303e-06
2.06518e-06
2.05753e-06
2.05009e-06
2.04284e-06
2.03578e-06
2.0289e-06
2.0222e-06
2.01567e-06
2.0093e-06
2.00308e-06
0.000385894
0.000400712
0.000424531
0.000449686
0.000458156
0.000424151
0.000337297
0.000225108
0.000130631
7.17839e-05
4.08913e-05
2.55103e-05
1.76497e-05
1.33512e-05
1.0796e-05
9.14683e-06
8.00308e-06
7.16291e-06
6.51804e-06
6.00636e-06
5.58991e-06
5.2441e-06
4.95223e-06
4.70254e-06
4.48646e-06
4.29761e-06
4.13113e-06
3.98326e-06
3.85103e-06
3.73207e-06
3.62447e-06
3.52667e-06
3.43738e-06
3.35553e-06
3.28023e-06
3.21072e-06
3.14634e-06
3.08655e-06
3.03087e-06
2.9789e-06
2.93026e-06
2.88465e-06
2.84179e-06
2.80144e-06
2.76338e-06
2.72743e-06
2.69342e-06
2.66118e-06
2.63059e-06
2.60152e-06
2.57387e-06
2.54752e-06
2.5224e-06
2.49841e-06
2.47549e-06
2.45356e-06
2.43257e-06
2.41245e-06
2.39315e-06
2.37462e-06
2.35682e-06
2.3397e-06
2.32323e-06
2.30738e-06
2.2921e-06
2.27738e-06
2.26317e-06