/*--------------------------------*- C++ -*----------------------------------*\
  =========                 |
  \\      /  F ield         | OpenFOAM: The Open Source CFD Toolbox
   \\    /   O peration     | Website:  https://openfoam.org
    \\  /    A nd           | Version:  7
     \\/     M anipulation  |
\*---------------------------------------------------------------------------*/
FoamFile
{
    version     2.0;
    format      ascii;
    class       volVectorField;
    location    "48000";
    object      vorticity;
}
// * * * * * * * * * * * * * * * * * * * * * * * * * * * * * * * * * * * * * //

dimensions      [0 0 -1 0 0 0 0];

internalField   nonuniform List<vector> 
1762
(
(0.0244781 0.0219433 6.09563e-18)
(0.0245582 0.0210824 -8.93673e-18)
(0.0252552 0.0195275 -4.65273e-18)
(0.0258837 0.017972 -2.17954e-17)
(0.0264523 0.0164114 -2.51493e-18)
(0.0269628 0.0148478 1.2537e-17)
(0.0274168 0.0132828 1.005e-18)
(0.0278161 0.0117174 -1.72593e-18)
(0.0281621 0.0101523 8.11752e-18)
(0.0284561 0.00858802 -6.48401e-19)
(0.0286993 0.00702467 -3.0911e-17)
(0.0288927 0.00546233 -9.01071e-18)
(0.0253004 0.0227291 2.56942e-18)
(0.0254102 0.0218106 -9.63004e-18)
(0.0261319 0.0202008 -6.78274e-18)
(0.0267828 0.0185902 -2.5677e-17)
(0.0273714 0.0169748 -2.16011e-18)
(0.0278998 0.0153566 1.29892e-17)
(0.0283697 0.0137372 1.12131e-18)
(0.0287828 0.0121176 -2.19269e-18)
(0.0291407 0.0104986 6.1282e-18)
(0.0294447 0.00888056 -3.10941e-18)
(0.0296961 0.00726371 -3.19051e-17)
(0.029896 0.00564806 -9.26265e-18)
(0.0261602 0.0235502 -6.06445e-19)
(0.0263007 0.0225718 -1.14067e-17)
(0.0270481 0.0209043 -8.2653e-18)
(0.0277222 0.0192363 -2.68623e-17)
(0.0283318 0.0175635 1.15222e-18)
(0.0288788 0.0158881 1.36573e-17)
(0.0293651 0.0142118 1.00489e-18)
(0.0297926 0.0125356 -1.3682e-18)
(0.0301627 0.0108603 6.92038e-18)
(0.0304771 0.00918611 -4.02422e-18)
(0.0307371 0.00751338 -3.24425e-17)
(0.0309437 0.00584203 -1.08581e-17)
(0.0270601 0.0244088 -3.91123e-18)
(0.0272322 0.0233679 -1.30195e-17)
(0.0280063 0.0216402 -9.32367e-18)
(0.0287048 0.019912 -2.60686e-17)
(0.0293362 0.0181791 5.52083e-18)
(0.0299026 0.016444 1.53514e-17)
(0.030406 0.0147081 1.2099e-18)
(0.0308483 0.0129727 3.47241e-19)
(0.0312313 0.0112384 8.35799e-18)
(0.0315565 0.00950556 -4.1309e-18)
(0.0318254 0.00777438 -3.18682e-17)
(0.032039 0.0060448 -1.29253e-17)
(0.0280026 0.0253076 -6.9537e-18)
(0.0282075 0.0242015 -1.45223e-17)
(0.0290096 0.0224107 -1.04299e-17)
(0.0297334 0.0206193 -2.51548e-17)
(0.0303875 0.0188235 8.73597e-18)
(0.0309741 0.0170257 1.75327e-17)
(0.0314953 0.0152276 8.30994e-19)
(0.0319531 0.0134301 1.43656e-18)
(0.0323495 0.0116341 9.75688e-18)
(0.0326859 0.00983984 -4.03659e-18)
(0.032964 0.0080475 -3.16383e-17)
(0.033185 0.00625699 -1.4486e-17)
(0.0289908 0.0262494 -1.00371e-17)
(0.0292297 0.0250752 -1.59804e-17)
(0.030061 0.023218 -1.07723e-17)
(0.0308112 0.0213604 -2.39911e-17)
(0.031489 0.0194987 1.07637e-17)
(0.0320967 0.0176352 1.98206e-17)
(0.0326365 0.0157718 3.20014e-20)
(0.0331105 0.0139093 2.10502e-18)
(0.0335207 0.0120486 1.09855e-17)
(0.0338689 0.01019 -4.27537e-18)
(0.0341566 0.00833358 -3.22066e-17)
(0.0343852 0.00647923 -1.53926e-17)
(0.030028 0.0272372 -1.25537e-17)
(0.030302 0.0259917 -1.75566e-17)
(0.0311639 0.0240649 -1.03945e-17)
(0.0319418 0.0221377 -2.34393e-17)
(0.0326444 0.0202068 1.21802e-17)
(0.0332741 0.0182745 2.20038e-17)
(0.0338333 0.0163424 -1.11166e-18)
(0.0343242 0.0144118 2.71337e-18)
(0.0347489 0.0124833 1.15631e-17)
(0.0351093 0.0105572 -5.20227e-18)
(0.035407 0.00863353 -3.25203e-17)
(0.0356435 0.00671224 -1.49259e-17)
(0.0311175 0.0282743 -1.3467e-17)
(0.0314281 0.0269541 -1.97617e-17)
(0.032322 0.0249541 -9.62e-18)
(0.0331288 0.0229539 -2.39763e-17)
(0.0338573 0.0209502 1.32914e-17)
(0.0345101 0.0189455 2.43038e-17)
(0.0350895 0.0169415 -2.62373e-18)
(0.0355981 0.0149393 2.77537e-18)
(0.0360379 0.0129395 1.19165e-17)
(0.0364111 0.0109425 -6.36898e-18)
(0.0367193 0.00894835 -3.25813e-17)
(0.0322631 0.0293643 -1.25208e-17)
(0.0326118 0.0279658 -2.24951e-17)
(0.0335393 0.0258887 -9.89486e-18)
(0.0343765 0.0238117 -2.45329e-17)
(0.0351322 0.0217316 1.38302e-17)
(0.035809 0.0196507 2.61153e-17)
(0.0364097 0.017571 -4.12637e-18)
(0.0369367 0.0154935 2.15832e-18)
(0.0373923 0.0134189 1.22884e-17)
(0.0377788 0.0113474 -6.95666e-18)
(0.038098 0.00927913 -3.25601e-17)
(0.0334691 0.0305111 -9.66616e-18)
(0.0338575 0.0290304 -2.64761e-17)
(0.0348203 0.0268722 -1.17971e-17)
(0.0356893 0.0247143 -2.44801e-17)
(0.0364735 0.0225536 1.34339e-17)
(0.0371756 0.0203927 2.78e-17)
(0.0377984 0.0182333 -4.51349e-18)
(0.0383447 0.0160765 1.36054e-18)
(0.038817 0.0139231 1.2617e-17)
(0.0392175 0.0117733 -6.85604e-18)
(0.0395481 0.00962704 -3.29285e-17)
(0.03474 0.0317191 -6.0051e-18)
(0.0351699 0.030152 -3.23967e-17)
(0.0361697 0.0279082 -1.35183e-17)
(0.0370722 0.025665 -2.31063e-17)
(0.0378862 0.0234194 1.18782e-17)
(0.0386149 0.0211741 2.95969e-17)
(0.039261 0.0189307 -3.07026e-18)
(0.0398276 0.0166905 3.04948e-19)
(0.0403172 0.0144542 1.21349e-17)
(0.0407323 0.0122218 -6.73634e-18)
(0.041075 0.0099934 -3.32204e-17)
(0.0360808 0.032993 -3.04459e-18)
(0.036554 0.0313348 -3.83274e-17)
(0.0375929 0.0290007 -1.48951e-17)
(0.0385305 0.0266676 -2.19363e-17)
(0.039376 0.0243324 9.77171e-18)
(0.0401325 0.021998 3.13369e-17)
(0.0408032 0.0196661 -1.33126e-18)
(0.041391 0.0173379 1.1556e-19)
(0.0418989 0.015014 1.09599e-17)
(0.0423293 0.0126946 -7.11907e-18)
(0.0426846 0.0103796 -3.35284e-17)
(0.037497 0.034338 -8.18594e-19)
(0.0380156 0.0325838 -4.24691e-17)
(0.0390957 0.0301543 -1.62749e-17)
(0.0400703 0.0277261 -2.22915e-17)
(0.0409489 0.0252963 7.77604e-18)
(0.0417347 0.0228678 3.27242e-17)
(0.0424311 0.0204424 9.10975e-19)
(0.0430413 0.0180213 1.15885e-18)
(0.0435683 0.015605 8.89325e-18)
(0.0440149 0.0131937 -8.02748e-18)
(0.0443834 0.0107873 -3.37872e-17)
(0.0389945 0.0357598 1.2289e-18)
(0.0395609 0.0339043 -4.53898e-17)
(0.0406843 0.0313738 -1.80513e-17)
(0.0416981 0.028845 -2.39937e-17)
(0.0426115 0.0263152 7.01042e-18)
(0.0434282 0.0237872 3.38565e-17)
(0.0441517 0.0212629 4.42883e-18)
(0.0447854 0.0187435 2.84527e-18)
(0.0453327 0.0162295 6.37276e-18)
(0.0457962 0.0137211 -8.90639e-18)
(0.0461787 0.0112181 -3.43049e-17)
(0.0405802 0.0372647 2.36261e-18)
(0.0411968 0.0353021 -4.84652e-17)
(0.042366 0.0326646 -2.00588e-17)
(0.043421 0.0300293 -2.488e-17)
(0.0443713 0.0273935 8.36566e-18)
(0.0452205 0.0247602 3.50525e-17)
(0.0459726 0.0221313 8.38635e-18)
(0.0466312 0.0195078 4.02302e-18)
(0.0471997 0.0168905 3.36175e-18)
(0.0476812 0.0142793 -1.01124e-17)
(0.0480783 0.0116739 -3.50175e-17)
(0.0422612 0.0388598 3.10198e-18)
(0.0429307 0.0367837 -5.19625e-17)
(0.0441485 0.0340327 -2.08779e-17)
(0.0452471 0.0312845 -2.46055e-17)
(0.0462363 0.0285364 9.59149e-18)
(0.04712 0.0257914 3.65941e-17)
(0.0479022 0.0230515 1.18352e-17)
(0.048587 0.0203178 4.32132e-18)
(0.049178 0.0175908 1.25721e-19)
(0.0496784 0.0148707 -1.21308e-17)
(0.0500909 0.012157 -3.5217e-17)
(0.0440459 0.0405526 3.64394e-18)
(0.0447713 0.0383563 -5.50892e-17)
(0.0460405 0.0354848 -2.03198e-17)
(0.0471853 0.0326166 -2.47591e-17)
(0.0482156 0.0297493 9.66734e-18)
(0.0491357 0.0268857 3.80034e-17)
(0.0499499 0.024028 1.43126e-17)
(0.0506624 0.0211772 4.28135e-18)
(0.0512771 0.0183339 -3.66834e-18)
(0.0517975 0.0154982 -1.40351e-17)
(0.0522264 0.0126695 -3.3827e-17)
(0.0459431 0.0423518 3.73892e-18)
(0.0467277 0.0400278 -5.82512e-17)
(0.0480515 0.0370281 -1.94004e-17)
(0.0492453 0.0340324 -2.55257e-17)
(0.0503193 0.0310383 9.61138e-18)
(0.051278 0.0280487 3.9355e-17)
(0.052126 0.0250657 1.5744e-17)
(0.0528679 0.0220905 4.48721e-18)
(0.0535077 0.0191236 -7.54889e-18)
(0.0540492 0.016165 -1.55731e-17)
(0.0544955 0.0132141 -3.08984e-17)
(0.0479631 0.0442669 2.98321e-18)
(0.0488104 0.041807 -6.16479e-17)
(0.0501922 0.038671 -1.82943e-17)
(0.0514381 0.0355395 -2.65268e-17)
(0.0525584 0.0324103 1.02556e-17)
(0.0535581 0.0292865 3.99711e-17)
(0.054442 0.0261702 1.63619e-17)
(0.0552151 0.0230625 5.68453e-18)
(0.0558816 0.019964 -1.0902e-17)
(0.0564455 0.0168746 -1.70526e-17)
(0.0569101 0.0137936 -2.72738e-17)
(0.050117 0.0463085 1.14528e-18)
(0.0510309 0.043704 -6.42729e-17)
(0.0524745 0.0404224 -1.69418e-17)
(0.0537758 0.0371461 -2.6932e-17)
(0.0549454 0.0338729 1.11105e-17)
(0.0559887 0.030606 4.03408e-17)
(0.0569108 0.0273475 1.70807e-17)
(0.057717 0.0240986 6.76923e-18)
(0.0584119 0.0208598 -1.4656e-17)
(0.0589996 0.017631 -1.82688e-17)
(0.0594837 0.0144113 -2.38787e-17)
(0.0524174 0.0484886 -1.42997e-19)
(0.0534022 0.0457297 -6.58554e-17)
(0.0549117 0.0422926 -1.55762e-17)
(0.0562721 0.0388616 -2.71368e-17)
(0.0574943 0.0354346 1.26823e-17)
(0.0585839 0.0320149 4.07878e-17)
(0.0595468 0.0286045 1.74287e-17)
(0.0603882 0.0252049 7.57913e-18)
(0.0611133 0.0218163 -1.85834e-17)
(0.0617264 0.0184385 -1.90186e-17)
(0.0622313 0.0150708 -2.05816e-17)
(0.0548783 0.0508205 1.09928e-18)
(0.0559388 0.0478964 -6.71368e-17)
(0.0575188 0.044293 -1.48293e-17)
(0.0589422 0.0406965 -2.80197e-17)
(0.0602206 0.037105 1.46563e-17)
(0.0613598 0.0335217 4.05743e-17)
(0.062366 0.029949 1.72708e-17)
(0.0632451 0.026388 8.11993e-18)
(0.0640024 0.0228391 -2.25197e-17)
(0.0646425 0.0193021 -1.97298e-17)
(0.0651696 0.0157761 -1.78684e-17)
(0.0575156 0.053319 3.74857e-18)
(0.058657 0.0502182 -6.97142e-17)
(0.0603124 0.0464365 -1.41503e-17)
(0.0618034 0.0426627 -2.98476e-17)
(0.0631418 0.0388948 1.69549e-17)
(0.064334 0.0351363 3.92712e-17)
(0.0653867 0.0313895 1.60767e-17)
(0.0663061 0.0276556 8.89642e-18)
(0.0670977 0.023935 -2.62434e-17)
(0.0677668 0.0202274 -2.09286e-17)
(0.0683176 0.0165317 -1.63832e-17)
(0.0603469 0.056001 5.6257e-18)
(0.0615751 0.0527107 -7.19799e-17)
(0.0633116 0.0487375 -1.405e-17)
(0.064875 0.0447733 -3.24462e-17)
(0.0662777 0.0408161 2.00895e-17)
(0.0675268 0.0368695 3.71118e-17)
(0.0686293 0.0329358 1.42368e-17)
(0.0695917 0.0290163 1.03483e-17)
(0.0704203 0.0251114 -2.92103e-17)
(0.0711204 0.0212206 -2.28374e-17)
(0.0716966 0.0173428 -1.60252e-17)
(0.0633925 0.0588856 6.21011e-18)
(0.064714 0.0553915 -7.36649e-17)
(0.0665375 0.0512125 -1.41113e-17)
(0.0681787 0.0470435 -3.52238e-17)
(0.0696507 0.0428826 2.36856e-17)
(0.0709608 0.0387336 3.44103e-17)
(0.0721168 0.0345989 1.13627e-17)
(0.0731256 0.0304798 1.23877e-17)
(0.0739938 0.0263766 -3.0928e-17)
(0.0747272 0.0222888 -2.55385e-17)
(0.0666749 0.0619943 6.63762e-18)
(0.0680969 0.0582806 -7.55216e-17)
(0.0700143 0.0538799 -1.44423e-17)
(0.0717395 0.0494902 -3.77181e-17)
(0.073286 0.0451098 2.81085e-17)
(0.0746619 0.0407427 3.19234e-17)
(0.0758755 0.0363913 7.88781e-18)
(0.0769342 0.0320571 1.34487e-17)
(0.0778451 0.0277402 -3.17259e-17)
(0.0786143 0.02344 -2.78926e-17)
(0.0702199 0.0653515 6.90219e-18)
(0.0717507 0.0614009 -7.65725e-17)
(0.0737695 0.0567607 -1.54786e-17)
(0.0755853 0.0521327 -3.82663e-17)
(0.0772124 0.0475153 3.29106e-17)
(0.0786594 0.0429126 2.91869e-17)
(0.0799351 0.0383273 4.43635e-18)
(0.0810477 0.0337606 1.35514e-17)
(0.0820047 0.0292129 -3.2762e-17)
(0.0828126 0.0246834 -2.99311e-17)
(0.074057 0.0689849 7.36286e-18)
(0.0757056 0.0647782 -7.59059e-17)
(0.0778343 0.0598789 -1.78574e-17)
(0.0797483 0.054993 -3.77477e-17)
(0.0814626 0.0501191 3.83932e-17)
(0.0829865 0.0452615 2.63234e-17)
(0.0843296 0.0404229 9.29705e-19)
(0.0855007 0.0356047 1.25896e-17)
(0.0865075 0.0308071 -3.42759e-17)
(0.0873573 0.0260294 -3.08994e-17)
(0.0782195 0.0729263 7.94422e-18)
(0.0799963 0.0684421 -7.4322e-17)
(0.0822444 0.0632619 -1.9708e-17)
(0.0842651 0.0580963 -3.69975e-17)
(0.0860741 0.0529442 4.30385e-17)
(0.0876817 0.0478101 2.41536e-17)
(0.089098 0.0426967 -1.82726e-18)
(0.0903324 0.0376057 1.05367e-17)
(0.0913935 0.032537 -3.58716e-17)
(0.0922888 0.0274899 -3.09777e-17)
(0.0827458 0.077212 9.18647e-18)
(0.0846623 0.0724263 -7.30964e-17)
(0.0870406 0.0669409 -2.04582e-17)
(0.0891776 0.0614715 -3.67208e-17)
(0.0910898 0.056017 4.73398e-17)
(0.0927885 0.0505821 2.25647e-17)
(0.0942846 0.04517 -5.30646e-18)
(0.0955881 0.0397822 8.17238e-18)
(0.0967083 0.0344188 -3.75543e-17)
(0.0976533 0.0290787 -3.03616e-17)
(0.0876797 0.0818836 1.06345e-17)
(0.0897492 0.0767697 -7.13754e-17)
(0.0922698 0.070952 -1.95363e-17)
(0.0945339 0.0651515 -3.61102e-17)
(0.0965591 0.0593675 5.13915e-17)
(0.0983575 0.053605 2.02522e-17)
(0.0999408 0.0478672 -9.78334e-18)
(0.10132 0.0421559 6.79226e-18)
(0.102505 0.036471 -3.8491e-17)
(0.103504 0.0308114 -2.92775e-17)
(0.0930716 0.0869888 1.07039e-17)
(0.0953092 0.0815168 -6.92511e-17)
(0.097986 0.0753365 -1.72553e-17)
(0.10039 0.0691745 -3.56843e-17)
(0.102539 0.0630306 5.38748e-17)
(0.104447 0.0569101 1.67419e-17)
(0.106126 0.0508165 -1.39985e-17)
(0.107588 0.0447516 6.66096e-18)
(0.108844 0.0387153 -3.90036e-17)
(0.109903 0.0327064 -2.85176e-17)
(0.0989794 0.0925825 9.46838e-18)
(0.101402 0.086719 -6.70488e-17)
(0.104251 0.080142 -1.33931e-17)
(0.106809 0.0735845 -3.45631e-17)
(0.109094 0.0670465 5.41872e-17)
(0.111123 0.0605339 1.2513e-17)
(0.112908 0.0540505 -1.76949e-17)
(0.114461 0.047598 6.44465e-18)
(0.115795 0.0411765 -4.0284e-17)
(0.11692 0.0347848 -2.74256e-17)
(0.10547 0.0987281 8.67214e-18)
(0.108098 0.0924356 -6.58342e-17)
(0.111137 0.0854237 -8.03112e-18)
(0.113865 0.0784321 -3.30774e-17)
(0.116302 0.0714617 5.23797e-17)
(0.118464 0.0645185 8.67767e-18)
(0.120366 0.0576068 -2.02307e-17)
(0.122021 0.0507285 5.94073e-18)
(0.123442 0.0438837 -4.19499e-17)
(0.124639 0.0370709 -2.69183e-17)
(0.11262 0.105499 7.50065e-18)
(0.115477 0.0987347 -6.56661e-17)
(0.118728 0.091245 -1.89491e-18)
(0.121644 0.0837763 -3.23215e-17)
(0.124249 0.0763299 4.90193e-17)
(0.12656 0.0689128 4.62542e-18)
(0.128592 0.0615294 -2.16528e-17)
(0.13036 0.0541818 5.5878e-18)
(0.131878 0.0468703 -4.40204e-17)
(0.133156 0.0395932 -2.71119e-17)
(0.120518 0.112977 6.50606e-18)
(0.12363 0.105695 -6.52167e-17)
(0.127117 0.0976793 3.57036e-18)
(0.130245 0.0896848 -3.25753e-17)
(0.133038 0.0817136 4.41795e-17)
(0.135515 0.0737733 4.30868e-19)
(0.137693 0.0658689 -2.20633e-17)
(0.139588 0.0580028 3.92482e-18)
(0.141213 0.0501754 -4.66296e-17)
(0.142583 0.0423849 -2.74191e-17)
(0.129264 0.121261 6.58694e-18)
(0.132664 0.113407 -6.34371e-17)
(0.136416 0.104811 6.95138e-18)
(0.139781 0.0962358 -3.26972e-17)
(0.142786 0.0876846 3.82125e-17)
(0.14545 0.0791655 -3.52387e-18)
(0.147792 0.0706843 -2.22941e-17)
(0.149829 0.0622438 8.01108e-19)
(0.151577 0.0538444 -4.93092e-17)
(0.15305 0.0454844 -2.69104e-17)
(0.138974 0.130457 6.84126e-18)
(0.142699 0.121973 -5.92184e-17)
(0.14675 0.112736 7.20872e-18)
(0.150384 0.103519 -3.33328e-17)
(0.153628 0.0943255 3.21743e-17)
(0.156504 0.0851649 -7.2017e-18)
(0.159032 0.0760436 -2.46696e-17)
(0.161231 0.066965 -2.8667e-18)
(0.163117 0.0579298 -5.08952e-17)
(0.164706 0.0489364 -2.6896e-17)
(0.149775 0.140688 7.38564e-18)
(0.15387 0.131509 -5.45303e-17)
(0.158261 0.121565 6.06067e-18)
(0.1622 0.111636 -3.53384e-17)
(0.165717 0.101731 2.54506e-17)
(0.168835 0.0918574 -1.17083e-17)
(0.171576 0.0820244 -2.92323e-17)
(0.17396 0.0722356 -7.40697e-18)
(0.176005 0.0624919 -5.18911e-17)
(0.177727 0.0527922 -2.8573e-17)
(0.161808 0.152088 6.93479e-18)
(0.166327 0.142142 -4.73183e-17)
(0.171107 0.131416 3.94242e-18)
(0.175396 0.120701 -3.92111e-17)
(0.179226 0.110005 1.79293e-17)
(0.182622 0.09934 -1.65199e-17)
(0.185608 0.0887147 -3.48518e-17)
(0.188205 0.0781339 -1.34997e-17)
(0.190433 0.0675995 -5.23645e-17)
(0.192309 0.0571103 -3.07541e-17)
(0.175219 0.164796 6.33835e-18)
(0.180227 0.154007 -4.00111e-17)
(0.185455 0.14242 1.69604e-18)
(0.190149 0.130835 -4.12149e-17)
(0.194342 0.119263 9.83329e-18)
(0.19806 0.107718 -2.27807e-17)
(0.20133 0.0962108 -4.15593e-17)
(0.204175 0.0847465 -2.08595e-17)
(0.206616 0.0733283 -5.33215e-17)
(0.208673 0.0619557 -3.31463e-17)
(0.190149 0.178946 3.70867e-18)
(0.195725 0.167236 -3.14258e-17)
(0.201474 0.154704 -1.458e-18)
(0.206639 0.142162 -4.06508e-17)
(0.211255 0.129623 1.51736e-19)
(0.215351 0.117102 -3.1924e-17)
(0.218955 0.104614 -4.92413e-17)
(0.222092 0.0921647 -2.99331e-17)
(0.224784 0.0797592 -5.52115e-17)
(0.227053 0.067398 -3.54339e-17)
(0.20671 0.194647 8.37418e-19)
(0.212952 0.18194 -1.98574e-17)
(0.21931 0.168382 -3.91011e-18)
(0.225028 0.154793 -3.93243e-17)
(0.230143 0.141191 -1.42332e-17)
(0.234685 0.127594 -4.2641e-17)
(0.238684 0.11402 -5.71281e-17)
(0.242167 0.100476 -4.09763e-17)
(0.245158 0.0869711 -5.65614e-17)
(0.24768 0.0735055 -3.82612e-17)
(0.224947 0.211942 -2.76445e-18)
(0.23197 0.198173 -6.20889e-18)
(0.239045 0.183517 -5.26673e-18)
(0.245417 0.168798 -3.58164e-17)
(0.251124 0.154041 -3.0314e-17)
(0.256198 0.139269 -5.72599e-17)
(0.26067 0.124501 -6.61395e-17)
(0.264568 0.109751 -5.41237e-17)
(0.267919 0.0950273 -5.82319e-17)
(0.270746 0.0803348 -4.22858e-17)
(0.244771 0.23075 -6.68281e-18)
(0.252713 0.215879 1.19632e-17)
(0.260633 0.200072 -8.59097e-18)
(0.26778 0.184159 -3.01983e-17)
(0.274193 0.16817 -4.7996e-17)
(0.279905 0.152133 -7.53717e-17)
(0.284946 0.136074 -7.48251e-17)
(0.289346 0.120009 -6.90986e-17)
(0.293133 0.103951 -6.16437e-17)
(0.296331 0.0879095 -4.75851e-17)
(0.265867 0.250776 -1.13259e-17)
(0.274885 0.234805 3.89656e-17)
(0.283796 0.217835 -1.20651e-17)
(0.291859 0.200699 -1.99574e-17)
(0.299112 0.183431 -6.94107e-17)
(0.305587 0.166069 -9.44324e-17)
(0.311313 0.148643 -8.31051e-17)
(0.316321 0.131176 -8.65281e-17)
(0.320637 0.113686 -6.50535e-17)
(0.324288 0.0961861 -5.27756e-17)
(0.287602 0.271425 -1.62381e-17)
(0.297855 0.254412 7.02084e-17)
(0.307907 0.236325 -1.58874e-17)
(0.317035 0.217991 -5.69014e-18)
(0.325273 0.199453 -8.90177e-17)
(0.332649 0.180754 -1.12339e-16)
(0.339191 0.161931 -9.10953e-17)
(0.344926 0.143016 -1.05232e-16)
(0.34988 0.124034 -6.91319e-17)
(0.354078 0.105005 -5.53645e-17)
(0.308965 0.291741 -1.99881e-17)
(0.320582 0.273812 1.05734e-16)
(0.331901 0.254726 -1.80254e-17)
(0.342226 0.235293 1.22764e-17)
(0.351581 0.215563 -1.0565e-16)
(0.359988 0.195587 -1.29291e-16)
(0.36747 0.17541 -9.51228e-17)
(0.37405 0.155071 -1.21655e-16)
(0.37975 0.134604 -7.13604e-17)
(0.384592 0.114036 -5.28413e-17)
(0.328655 0.310495 -1.97073e-17)
(0.341689 0.291831 1.45711e-16)
(0.354333 0.271928 -1.9101e-17)
(0.365921 0.251567 3.82145e-17)
(0.376469 0.230802 -1.17753e-16)
(0.385989 0.209692 -1.4346e-16)
(0.394496 0.188289 -9.67014e-17)
(0.402005 0.16664 -1.33355e-16)
(0.408531 0.144786 -6.60054e-17)
(0.414091 0.122766 -4.03315e-17)
(0.345379 0.326462 -1.62412e-17)
(0.359766 0.307263 1.8739e-16)
(0.373674 0.286759 -1.51734e-17)
(0.386483 0.265687 7.35147e-17)
(0.398197 0.244104 -1.26037e-16)
(0.408817 0.222073 -1.51679e-16)
(0.418346 0.199652 -9.19777e-17)
(0.426789 0.176893 -1.36249e-16)
(0.434153 0.153848 -5.01758e-17)
(0.440446 0.130563 -1.31332e-17)
(0.358291 0.338837 -5.34927e-18)
(0.373837 0.319275 2.33701e-16)
(0.388821 0.298373 -5.11378e-18)
(0.40268 0.276808 1.15675e-16)
(0.415408 0.254638 -1.28157e-16)
(0.426994 0.231929 -1.46674e-16)
(0.437429 0.20874 -7.48872e-17)
(0.446708 0.18513 -1.26205e-16)
(0.454826 0.161156 -1.65101e-17)
(0.461784 0.136872 3.20807e-17)
(0.367314 0.347542 1.57492e-17)
(0.383744 0.327734 2.85034e-16)
(0.399531 0.306585 1.61971e-17)
(0.414182 0.284702 1.70652e-16)
(0.42768 0.262145 -1.22438e-16)
(0.440004 0.238979 -1.25784e-16)
(0.451137 0.215264 -3.92014e-17)
(0.461064 0.191063 -9.44554e-17)
(0.469772 0.166435 4.17348e-17)
(0.477252 0.141442 9.70292e-17)
(0.373101 0.353187 5.53671e-17)
(0.390138 0.333194 3.4929e-16)
(0.406451 0.311891 5.82244e-17)
(0.421623 0.289808 2.50992e-16)
(0.43563 0.267006 -9.86543e-17)
(0.448445 0.243548 -7.78514e-17)
(0.460044 0.219498 2.89409e-17)
(0.470405 0.194917 -2.94707e-17)
(0.479509 0.16987 1.3786e-16)
(0.48734 0.144418 1.87021e-16)
(0.376662 0.356727 1.32648e-16)
(0.394095 0.336576 4.54697e-16)
(0.410721 0.315164 1.51465e-16)
(0.426202 0.292947 3.84475e-16)
(0.44051 0.269986 -2.90699e-17)
(0.453615 0.246343 3.27591e-17)
(0.465489 0.222082 1.65936e-16)
(0.476106 0.197265 1.01032e-16)
(0.485443 0.171958 2.90535e-16)
(0.493482 0.146226 3.06636e-16)
(0.378946 0.359056 2.8618e-16)
(0.396646 0.338757 6.48349e-16)
(0.413454 0.317259 3.51829e-16)
(0.429114 0.294942 6.2777e-16)
(0.443595 0.271866 1.34826e-16)
(0.456865 0.248096 2.60686e-16)
(0.468893 0.223693 4.3866e-16)
(0.479654 0.198722 3.47814e-16)
(0.489122 0.173248 5.29922e-16)
(0.497276 0.147338 4.6983e-16)
(0.380594 0.36078 5.73192e-16)
(0.398496 0.34034 9.99327e-16)
(0.415423 0.318768 7.42037e-16)
(0.431197 0.296367 1.06659e-15)
(0.445786 0.2732 4.74749e-16)
(0.459159 0.24933 6.92701e-16)
(0.471283 0.22482 9.42336e-16)
(0.48213 0.199735 7.83866e-16)
(0.491677 0.174141 9.07651e-16)
(0.4999 0.148104 7.11223e-16)
(0.381916 0.362193 -2.02748e-16)
(0.399989 0.341618 2.33729e-16)
(0.417005 0.319981 3.15093e-17)
(0.432863 0.297507 2.8169e-16)
(0.447533 0.274262 -2.0195e-16)
(0.46098 0.250308 2.85343e-17)
(0.473173 0.22571 7.4773e-17)
(0.484083 0.200532 3.36047e-17)
(0.493685 0.17484 1.33234e-16)
(0.501957 0.148702 -2.89841e-16)
(0.383017 0.363393 -1.85842e-16)
(0.401243 0.342693 2.96455e-16)
(0.418331 0.320998 1.42742e-16)
(0.434259 0.298461 4.02028e-16)
(0.448994 0.275148 -1.32294e-16)
(0.462501 0.251123 1.78221e-16)
(0.474749 0.22645 2.08693e-16)
(0.485709 0.201194 1.41994e-16)
(0.495356 0.175421 1.76123e-16)
(0.503666 0.149198 -4.51278e-16)
(-0.00234024 0.0291328 2.23945e-17)
(-0.000780029 0.0291807 -9.2331e-18)
(0.000780025 0.0291807 -9.58178e-18)
(0.00234024 0.0291328 -9.75706e-18)
(0.00390092 0.029037 1.11717e-17)
(0.00546233 0.0288927 4.90744e-18)
(0.00702467 0.0286993 1.94368e-18)
(0.00858802 0.0284561 1.8527e-17)
(0.0101523 0.0281621 4.11645e-18)
(0.0117174 0.0278161 -4.95456e-18)
(0.0132828 0.0274168 -9.52091e-18)
(0.0148478 0.0269628 1.67559e-17)
(0.0164114 0.0264523 -5.01596e-18)
(0.017972 0.0258837 -8.7746e-18)
(0.0195275 0.0252552 8.7133e-18)
(0.0210824 0.0245582 -1.43982e-17)
(0.0219433 0.0244781 2.9453e-18)
(-0.00241973 0.0301442 2.30239e-17)
(-0.000806518 0.0301936 -9.44392e-18)
(0.000806513 0.0301936 -8.04032e-18)
(0.00241973 0.0301442 -8.98081e-18)
(0.00403347 0.0300451 1.0808e-17)
(0.00564806 0.029896 5.397e-18)
(0.00726371 0.0296961 3.00071e-18)
(0.00888056 0.0294447 1.68158e-17)
(0.0104986 0.0291407 2.88849e-18)
(0.0121176 0.0287828 -3.18758e-18)
(0.0137372 0.0283697 -1.13028e-17)
(0.0153566 0.0278998 1.6406e-17)
(0.0169748 0.0273714 -3.59047e-18)
(0.0185902 0.0267828 -8.62273e-18)
(0.0202008 0.0261319 1.11334e-17)
(0.0218106 0.0254102 -1.36105e-17)
(0.0227291 0.0253004 -2.58947e-20)
(-0.00250274 0.0312003 2.44978e-17)
(-0.000834181 0.0312514 -9.79934e-18)
(0.000834176 0.0312514 -6.54132e-18)
(0.00250274 0.0312003 -8.0326e-18)
(0.00417191 0.0310979 1.03734e-17)
(0.00584203 0.0309437 6.07489e-18)
(0.00751337 0.0307371 3.4485e-18)
(0.00918611 0.0304771 1.5246e-17)
(0.0108603 0.0301627 1.79758e-18)
(0.0125356 0.0297926 -1.67949e-18)
(0.0142118 0.0293651 -1.23823e-17)
(0.0158881 0.0288788 1.58662e-17)
(0.0175635 0.0283318 -1.70518e-18)
(0.0192363 0.0277222 -7.73758e-18)
(0.0209043 0.0270481 1.28037e-17)
(0.0225718 0.0263007 -1.30759e-17)
(0.0235502 0.0261602 -1.65271e-18)
(-0.00777438 0.0318253 -3.21039e-17)
(-0.0060448 0.032039 -9.12891e-18)
(-0.00431662 0.0321984 2.90048e-17)
(-0.00258952 0.0323043 2.66344e-17)
(-0.000863099 0.0323571 -9.78158e-18)
(0.000863094 0.0323571 -5.47513e-18)
(0.00258952 0.0323043 -7.78998e-18)
(0.00431662 0.0321984 1.01328e-17)
(0.0060448 0.032039 6.81804e-18)
(0.00777438 0.0318253 3.48125e-18)
(0.00950556 0.0315565 1.37178e-17)
(0.0112384 0.0312313 6.67321e-19)
(0.0129727 0.0308483 -1.5129e-21)
(0.0147081 0.030406 -1.24523e-17)
(0.016444 0.0299026 1.52269e-17)
(0.0181791 0.0293362 -5.251e-19)
(0.019912 0.0287048 -6.49504e-18)
(0.0216402 0.0280063 1.47309e-17)
(0.0233679 0.0272322 -1.26289e-17)
(0.0244088 0.0270601 -3.07319e-18)
(-0.0080475 0.032964 -3.3369e-17)
(-0.00625699 0.033185 -1.16535e-17)
(-0.00446805 0.0333498 2.80694e-17)
(-0.00268032 0.0334593 2.88193e-17)
(-0.000893357 0.0335139 -8.85987e-18)
(0.000893351 0.0335139 -4.22561e-18)
(0.00268032 0.0334593 -8.19302e-18)
(0.00446805 0.0333498 9.04114e-18)
(0.00625698 0.033185 7.20427e-18)
(0.0080475 0.032964 3.85021e-18)
(0.00983984 0.0326859 1.22177e-17)
(0.0116341 0.0323495 -2.71701e-19)
(0.0134301 0.0319531 1.27029e-18)
(0.0152276 0.0314953 -1.30326e-17)
(0.0170257 0.0309741 1.54665e-17)
(0.0188235 0.0303875 -8.96656e-19)
(0.0206193 0.0297334 -5.34225e-18)
(0.0224107 0.0290096 1.67095e-17)
(0.0242015 0.0282075 -1.20657e-17)
(0.0253076 0.0280026 -5.1209e-18)
(-0.00833358 0.0341566 -3.3884e-17)
(-0.00647923 0.0343852 -1.23603e-17)
(-0.00462665 0.0345557 2.73216e-17)
(-0.00277542 0.0346689 3.03491e-17)
(-0.000925047 0.0347254 -7.06097e-18)
(0.000925042 0.0347254 -2.89928e-18)
(0.00277542 0.0346689 -9.46361e-18)
(0.00462665 0.0345557 7.51154e-18)
(0.00647923 0.0343852 7.87312e-18)
(0.00833358 0.0341566 4.37173e-18)
(0.01019 0.0338689 1.05737e-17)
(0.0120486 0.0335207 -7.43203e-19)
(0.0139093 0.0331105 2.41983e-18)
(0.0157718 0.0326365 -1.4401e-17)
(0.0176353 0.0320967 1.71456e-17)
(0.0194987 0.031489 -2.04919e-18)
(0.0213604 0.0308112 -4.62901e-18)
(0.023218 0.030061 2.01146e-17)
(0.0250752 0.0292297 -1.11424e-17)
(0.0262494 0.0289908 -7.49922e-18)
(-0.00863353 0.035407 -3.32083e-17)
(-0.00671224 0.0356435 -1.15165e-17)
(-0.00479293 0.0358199 2.683e-17)
(-0.00287513 0.035937 3.09218e-17)
(-0.000958273 0.0359955 -5.20517e-18)
(0.000958267 0.0359955 -1.39846e-18)
(0.00287513 0.035937 -1.08217e-17)
(0.00479293 0.0358199 6.28471e-18)
(0.00671224 0.0356435 8.72039e-18)
(0.00863353 0.035407 4.29982e-18)
(0.0105572 0.0351093 8.48278e-18)
(0.0124833 0.0347489 -9.86735e-19)
(0.0144118 0.0343241 4.0554e-18)
(0.0163424 0.0338333 -1.60305e-17)
(0.0182745 0.0332741 1.89331e-17)
(0.0202068 0.0326444 -3.58382e-18)
(0.0221377 0.0319418 -5.39236e-18)
(0.0240649 0.0311639 2.56128e-17)
(0.0259917 0.030302 -9.1562e-18)
(0.0272372 0.030028 -8.89615e-18)
(-0.00894835 0.0367193 -3.21328e-17)
(-0.0069568 0.0369641 -9.81037e-18)
(-0.00496745 0.0371467 2.69248e-17)
(-0.00297977 0.0372678 3.09069e-17)
(-0.000993142 0.0373283 -3.62996e-18)
(0.000993137 0.0373283 8.995e-20)
(0.00297977 0.0372678 -1.22649e-17)
(0.00496745 0.0371467 5.02563e-18)
(0.0069568 0.0369641 9.99395e-18)
(0.00894835 0.0367193 3.85849e-18)
(0.0109425 0.0364111 6.0563e-18)
(0.0129395 0.0360379 -8.21448e-19)
(0.0149393 0.0355981 5.44025e-18)
(0.0169415 0.0350895 -1.80671e-17)
(0.0189455 0.0345101 2.0452e-17)
(0.0209502 0.0338573 -5.54218e-18)
(0.0229539 0.0331288 -7.81207e-18)
(0.0249541 0.032322 3.0958e-17)
(0.0269541 0.0314281 -5.79211e-18)
(0.0282743 0.0311175 -8.04612e-18)
(-0.00927913 0.038098 -3.1676e-17)
(-0.00721374 0.0383515 -8.34744e-18)
(-0.0051508 0.0385404 2.75556e-17)
(-0.00308971 0.0386659 3.12717e-17)
(-0.00102978 0.0387285 -2.63874e-18)
(0.00102977 0.0387285 1.03898e-18)
(0.00308971 0.0386659 -1.39076e-17)
(0.0051508 0.0385405 3.67043e-18)
(0.00721374 0.0383515 1.09265e-17)
(0.00927913 0.038098 3.52217e-18)
(0.0113474 0.0377788 3.88623e-18)
(0.0134189 0.0373923 2.84905e-19)
(0.0154935 0.0369367 6.4793e-18)
(0.017571 0.0364097 -2.01101e-17)
(0.0196507 0.035809 2.23396e-17)
(0.0217316 0.0351322 -8.44563e-18)
(0.0238117 0.0343765 -1.09438e-17)
(0.0258887 0.0335393 3.42893e-17)
(0.0279658 0.0326118 -2.8786e-18)
(0.0293643 0.0322631 -5.65844e-18)
(-0.00962705 0.0395481 -3.21335e-17)
(-0.00748399 0.0398106 -7.88928e-18)
(-0.00534365 0.0400063 2.8902e-17)
(-0.00320534 0.0401362 3.24159e-17)
(-0.00106831 0.040201 -2.26126e-18)
(0.0010683 0.040201 1.4772e-18)
(0.00320534 0.0401362 -1.58559e-17)
(0.00534364 0.0400063 2.29129e-18)
(0.00748399 0.0398106 1.17748e-17)
(0.00962704 0.0395481 3.25603e-18)
(0.0117733 0.0392175 2.05332e-18)
(0.0139231 0.038817 2.0019e-18)
(0.0160765 0.0383447 7.65342e-18)
(0.0182333 0.0377984 -2.12755e-17)
(0.0203927 0.0371756 2.4988e-17)
(0.0225536 0.0364735 -1.21042e-17)
(0.0247143 0.0356893 -1.45497e-17)
(0.0268722 0.0348203 3.5742e-17)
(0.0290304 0.0338575 -2.06756e-18)
(0.0305111 0.0334691 -1.91771e-18)
(-0.0099934 0.041075 -3.23147e-17)
(-0.00776856 0.041347 -8.16059e-18)
(-0.0055467 0.0415497 3.04646e-17)
(-0.00332709 0.0416843 3.37606e-17)
(-0.00110888 0.0417514 -2.24097e-18)
(0.00110887 0.0417514 1.70456e-18)
(0.00332709 0.0416843 -1.77262e-17)
(0.0055467 0.0415497 6.99659e-19)
(0.00776856 0.041347 1.1924e-17)
(0.0099934 0.041075 2.47176e-18)
(0.0122218 0.0407323 1.04436e-18)
(0.0144542 0.0403172 4.12816e-18)
(0.0166905 0.0398276 8.66204e-18)
(0.0189307 0.039261 -2.17114e-17)
(0.0211741 0.0386149 2.79052e-17)
(0.0234194 0.0378862 -1.51167e-17)
(0.025665 0.0370722 -1.76002e-17)
(0.0279082 0.0361697 3.60932e-17)
(0.030152 0.0351699 -3.23148e-18)
(0.0317191 0.03474 2.79199e-18)
(-0.0103796 0.0426846 -3.23115e-17)
(-0.00806855 0.0429665 -8.01422e-18)
(-0.00576076 0.0431767 3.20661e-17)
(-0.00345544 0.0433161 3.44852e-17)
(-0.00115164 0.0433856 -2.56697e-18)
(0.00115164 0.0433856 2.00003e-18)
(0.00345544 0.0433161 -1.95865e-17)
(0.00576076 0.0431767 -1.12075e-18)
(0.00806855 0.0429665 1.19218e-17)
(0.0103796 0.0426846 1.1713e-18)
(0.0126946 0.0423293 -3.67646e-19)
(0.015014 0.0418989 6.42018e-18)
(0.0173379 0.041391 9.68559e-18)
(0.0196661 0.0408032 -2.20569e-17)
(0.021998 0.0401325 3.11682e-17)
(0.0243324 0.039376 -1.7746e-17)
(0.0266676 0.0385305 -1.95758e-17)
(0.0290007 0.0375929 3.58717e-17)
(0.0313348 0.036554 -5.24948e-18)
(0.032993 0.0360808 6.93513e-18)
(-0.0107873 0.0443834 -3.22585e-17)
(-0.00838518 0.0446758 -7.41605e-18)
(-0.00598669 0.0448937 3.32142e-17)
(-0.0035909 0.0450383 3.40309e-17)
(-0.00119678 0.0451104 -2.69509e-18)
(0.00119678 0.0451104 3.0197e-18)
(0.0035909 0.0450383 -2.15469e-17)
(0.00598669 0.0448937 -3.65229e-18)
(0.00838518 0.0446758 1.23438e-17)
(0.0107873 0.0443834 2.12405e-19)
(0.0131937 0.0440149 -2.75283e-18)
(0.015605 0.0435683 8.32871e-18)
(0.0180213 0.0430413 1.16598e-17)
(0.0204424 0.0424311 -2.26419e-17)
(0.0228678 0.0417347 3.36083e-17)
(0.0252963 0.0409489 -1.95816e-17)
(0.0277261 0.0400703 -2.15936e-17)
(0.0301543 0.0390957 3.48889e-17)
(0.0325838 0.0380156 -7.05559e-18)
(0.034338 0.037497 1.0675e-17)
(-0.0112181 0.0461787 -3.22891e-17)