/*--------------------------------*- C++ -*----------------------------------*\
  =========                 |
  \\      /  F ield         | OpenFOAM: The Open Source CFD Toolbox
   \\    /   O peration     | Website:  https://openfoam.org
    \\  /    A nd           | Version:  7
     \\/     M anipulation  |
\*---------------------------------------------------------------------------*/
FoamFile
{
    version     2.0;
    format      ascii;
    class       volScalarField;
    location    "236000";
    object      k;
}
// * * * * * * * * * * * * * * * * * * * * * * * * * * * * * * * * * * * * * //

dimensions      [0 2 -2 0 0 0 0];

internalField   nonuniform List<scalar> 
4782
(
1.2374e-06
1.23123e-06
1.22446e-06
1.21703e-06
1.20891e-06
1.20005e-06
1.1904e-06
1.1799e-06
1.16849e-06
1.15611e-06
1.18966e-06
1.19479e-06
1.19979e-06
1.20466e-06
1.20939e-06
1.21399e-06
1.21845e-06
1.22278e-06
1.22696e-06
1.231e-06
1.23489e-06
1.23864e-06
1.24224e-06
1.24569e-06
1.24898e-06
1.25211e-06
1.25508e-06
1.25787e-06
1.2605e-06
1.26294e-06
1.2652e-06
1.26727e-06
1.26914e-06
1.27081e-06
1.27227e-06
1.27351e-06
1.27454e-06
1.27532e-06
1.27587e-06
1.27618e-06
1.27622e-06
1.27599e-06
1.27549e-06
1.27469e-06
1.27358e-06
1.27216e-06
1.2704e-06
1.26828e-06
1.2658e-06
1.26293e-06
1.25965e-06
1.25594e-06
1.25177e-06
1.24711e-06
1.24195e-06
1.23623e-06
1.22994e-06
1.22304e-06
1.21547e-06
1.20721e-06
1.19821e-06
1.1884e-06
1.17774e-06
1.16617e-06
1.15362e-06
1.19192e-06
1.19699e-06
1.20193e-06
1.20674e-06
1.21141e-06
1.21595e-06
1.22036e-06
1.22462e-06
1.22874e-06
1.23272e-06
1.23656e-06
1.24024e-06
1.24378e-06
1.24717e-06
1.2504e-06
1.25347e-06
1.25637e-06
1.2591e-06
1.26166e-06
1.26403e-06
1.26622e-06
1.26822e-06
1.27002e-06
1.27162e-06
1.27301e-06
1.27418e-06
1.27512e-06
1.27584e-06
1.27631e-06
1.27653e-06
1.27649e-06
1.27618e-06
1.27559e-06
1.2747e-06
1.27351e-06
1.27199e-06
1.27013e-06
1.26793e-06
1.26534e-06
1.26237e-06
1.25898e-06
1.25516e-06
1.25088e-06
1.2461e-06
1.24082e-06
1.23498e-06
1.22856e-06
1.22152e-06
1.21381e-06
1.20541e-06
1.19625e-06
1.18628e-06
1.17546e-06
1.16372e-06
1.15099e-06
1.19419e-06
1.1992e-06
1.20408e-06
1.20882e-06
1.21344e-06
1.21792e-06
1.22226e-06
1.22646e-06
1.23052e-06
1.23444e-06
1.23821e-06
1.24183e-06
1.24531e-06
1.24863e-06
1.2518e-06
1.2548e-06
1.25763e-06
1.2603e-06
1.26278e-06
1.26509e-06
1.26721e-06
1.26913e-06
1.27086e-06
1.27238e-06
1.27369e-06
1.27479e-06
1.27565e-06
1.27629e-06
1.27668e-06
1.27682e-06
1.27669e-06
1.2763e-06
1.27562e-06
1.27464e-06
1.27335e-06
1.27174e-06
1.26979e-06
1.26748e-06
1.2648e-06
1.26172e-06
1.25822e-06
1.25429e-06
1.24989e-06
1.24499e-06
1.23958e-06
1.23361e-06
1.22706e-06
1.21988e-06
1.21203e-06
1.20347e-06
1.19416e-06
1.18403e-06
1.17304e-06
1.16112e-06
1.14821e-06
1.19647e-06
1.20141e-06
1.20623e-06
1.21091e-06
1.21546e-06
1.21987e-06
1.22414e-06
1.22828e-06
1.23228e-06
1.23613e-06
1.23984e-06
1.2434e-06
1.24681e-06
1.25006e-06
1.25316e-06
1.25609e-06
1.25885e-06
1.26144e-06
1.26386e-06
1.26609e-06
1.26813e-06
1.26998e-06
1.27163e-06
1.27308e-06
1.27431e-06
1.27533e-06
1.27611e-06
1.27666e-06
1.27697e-06
1.27702e-06
1.27681e-06
1.27633e-06
1.27556e-06
1.27449e-06
1.2731e-06
1.27139e-06
1.26934e-06
1.26693e-06
1.26414e-06
1.26095e-06
1.25734e-06
1.25329e-06
1.24877e-06
1.24375e-06
1.23821e-06
1.23211e-06
1.22542e-06
1.21809e-06
1.2101e-06
1.20139e-06
1.19191e-06
1.18162e-06
1.17045e-06
1.15835e-06
1.14526e-06
1.19647e-06
1.20141e-06
1.20623e-06
1.21091e-06
1.21546e-06
1.21987e-06
1.22414e-06
1.22828e-06
1.23228e-06
1.23613e-06
1.23984e-06
1.2434e-06
1.24681e-06
1.25006e-06
1.25316e-06
1.25609e-06
1.25885e-06
1.26144e-06
1.26386e-06
1.26609e-06
1.26813e-06
1.26998e-06
1.27163e-06
1.27308e-06
1.27431e-06
1.27533e-06
1.27611e-06
1.27666e-06
1.27697e-06
1.27702e-06
1.27681e-06
1.27633e-06
1.27556e-06
1.27449e-06
1.2731e-06
1.27139e-06
1.26934e-06
1.26693e-06
1.26414e-06
1.26095e-06
1.25734e-06
1.25329e-06
1.24877e-06
1.24375e-06
1.23821e-06
1.23211e-06
1.22542e-06
1.21809e-06
1.2101e-06
1.20139e-06
1.19191e-06
1.18162e-06
1.17045e-06
1.15835e-06
1.14526e-06
1.19419e-06
1.1992e-06
1.20408e-06
1.20882e-06
1.21344e-06
1.21792e-06
1.22226e-06
1.22646e-06
1.23052e-06
1.23444e-06
1.23821e-06
1.24183e-06
1.24531e-06
1.24863e-06
1.2518e-06
1.2548e-06
1.25763e-06
1.2603e-06
1.26278e-06
1.26509e-06
1.26721e-06
1.26913e-06
1.27086e-06
1.27238e-06
1.27369e-06
1.27479e-06
1.27565e-06
1.27629e-06
1.27668e-06
1.27682e-06
1.27669e-06
1.2763e-06
1.27562e-06
1.27464e-06
1.27335e-06
1.27174e-06
1.26979e-06
1.26748e-06
1.2648e-06
1.26172e-06
1.25822e-06
1.25429e-06
1.24989e-06
1.24499e-06
1.23958e-06
1.23361e-06
1.22706e-06
1.21988e-06
1.21203e-06
1.20347e-06
1.19416e-06
1.18403e-06
1.17304e-06
1.16112e-06
1.14821e-06
1.13424e-06
1.11913e-06
1.1028e-06
1.08517e-06
1.19192e-06
1.19699e-06
1.20193e-06
1.20674e-06
1.21141e-06
1.21595e-06
1.22036e-06
1.22462e-06
1.22874e-06
1.23272e-06
1.23656e-06
1.24024e-06
1.24378e-06
1.24717e-06
1.2504e-06
1.25347e-06
1.25637e-06
1.2591e-06
1.26166e-06
1.26403e-06
1.26622e-06
1.26822e-06
1.27002e-06
1.27162e-06
1.27301e-06
1.27418e-06
1.27512e-06
1.27584e-06
1.27631e-06
1.27653e-06
1.27649e-06
1.27618e-06
1.27559e-06
1.2747e-06
1.27351e-06
1.27199e-06
1.27013e-06
1.26793e-06
1.26534e-06
1.26237e-06
1.25898e-06
1.25516e-06
1.25088e-06
1.2461e-06
1.24082e-06
1.23498e-06
1.22856e-06
1.22151e-06
1.21381e-06
1.20541e-06
1.19625e-06
1.18628e-06
1.17546e-06
1.16372e-06
1.15099e-06
1.13721e-06
1.12229e-06
1.10617e-06
1.08874e-06
1.06992e-06
1.18966e-06
1.19479e-06
1.19979e-06
1.20466e-06
1.20939e-06
1.21399e-06
1.21845e-06
1.22278e-06
1.22696e-06
1.231e-06
1.23489e-06
1.23864e-06
1.24224e-06
1.24569e-06
1.24898e-06
1.25211e-06
1.25508e-06
1.25787e-06
1.2605e-06
1.26294e-06
1.2652e-06
1.26727e-06
1.26914e-06
1.27081e-06
1.27227e-06
1.27351e-06
1.27453e-06
1.27532e-06
1.27587e-06
1.27618e-06
1.27622e-06
1.27599e-06
1.27549e-06
1.27469e-06
1.27358e-06
1.27216e-06
1.2704e-06
1.26828e-06
1.2658e-06
1.26293e-06
1.25965e-06
1.25594e-06
1.25177e-06
1.24711e-06
1.24194e-06
1.23623e-06
1.22994e-06
1.22304e-06
1.21547e-06
1.20721e-06
1.19821e-06
1.1884e-06
1.17774e-06
1.16617e-06
1.15362e-06
1.14002e-06
1.1253e-06
1.10937e-06
1.09214e-06
1.07353e-06
1.05344e-06
1.03176e-06
1.00838e-06
9.83189e-07
9.56081e-07
9.26938e-07
8.95653e-07
8.62124e-07
8.26262e-07
7.88001e-07
7.47295e-07
7.04128e-07
6.58466e-07
6.10316e-07
5.59855e-07
5.07439e-07
4.53606e-07
3.99091e-07
3.44833e-07
2.91931e-07
2.41573e-07
1.9492e-07
1.52968e-07
1.16433e-07
8.56705e-08
6.06689e-08
4.10964e-08
2.63888e-08
1.58443e-08
8.70701e-09
4.22776e-09
1.70415e-09
5.04224e-10
8.26539e-11
3.55529e-12
1.18742e-06
1.1926e-06
1.19766e-06
1.20259e-06
1.20738e-06
1.21204e-06
1.21655e-06
1.22094e-06
1.22518e-06
1.22927e-06
1.23323e-06
1.23703e-06
1.24069e-06
1.2442e-06
1.24755e-06
1.25074e-06
1.25377e-06
1.25663e-06
1.25932e-06
1.26183e-06
1.26415e-06
1.26629e-06
1.26823e-06
1.26997e-06
1.2715e-06
1.27282e-06
1.27391e-06
1.27477e-06
1.2754e-06
1.27578e-06
1.2759e-06
1.27576e-06
1.27533e-06
1.27462e-06
1.2736e-06
1.27226e-06
1.2706e-06
1.26858e-06
1.26619e-06
1.26342e-06
1.26025e-06
1.25664e-06
1.25258e-06
1.24804e-06
1.24299e-06
1.2374e-06
1.23123e-06
1.22446e-06
1.21703e-06
1.20891e-06
1.20005e-06
1.1904e-06
1.1799e-06
1.16849e-06
1.15611e-06
1.14269e-06
1.12815e-06
1.11241e-06
1.09538e-06
1.07698e-06
1.05709e-06
1.03562e-06
1.01246e-06
9.87492e-07
9.60605e-07
9.31683e-07
9.00613e-07
8.67291e-07
8.31626e-07
7.93543e-07
7.52994e-07
7.09957e-07
6.64406e-07
6.16326e-07
5.65876e-07
5.13393e-07
4.59402e-07
4.04628e-07
3.50003e-07
2.96631e-07
2.45718e-07
1.98451e-07
1.55866e-07
1.18716e-07
8.73924e-08
6.19072e-08
4.19411e-08
2.6931e-08
1.61674e-08
8.88183e-09
4.31044e-09
1.73602e-09
5.12886e-10
8.38163e-11
3.58158e-12
1.18521e-06
1.19045e-06
1.19556e-06
1.20054e-06
1.20539e-06
1.2101e-06
1.21468e-06
1.21911e-06
1.22341e-06
1.22756e-06
1.23157e-06
1.23544e-06
1.23915e-06
1.24271e-06
1.24612e-06
1.24937e-06
1.25246e-06
1.25538e-06
1.25813e-06
1.26071e-06
1.2631e-06
1.2653e-06
1.2673e-06
1.26911e-06
1.27071e-06
1.2721e-06
1.27326e-06
1.2742e-06
1.2749e-06
1.27535e-06
1.27555e-06
1.27549e-06
1.27514e-06
1.27451e-06
1.27358e-06
1.27233e-06
1.27075e-06
1.26882e-06
1.26653e-06
1.26386e-06
1.26078e-06
1.25727e-06
1.25332e-06
1.24889e-06
1.24395e-06
1.23848e-06
1.23244e-06
1.22579e-06
1.21849e-06
1.21051e-06
1.20179e-06
1.19228e-06
1.18194e-06
1.17069e-06
1.15847e-06
1.14522e-06
1.13086e-06
1.1153e-06
1.09847e-06
1.08025e-06
1.06057e-06
1.03931e-06
1.01636e-06
9.91604e-07
9.64931e-07
9.36222e-07
9.05363e-07
8.72244e-07
8.36771e-07
7.98865e-07
7.58471e-07
7.15565e-07
6.70127e-07
6.22122e-07
5.71689e-07
5.19151e-07
4.65017e-07
4.10001e-07
3.5503e-07
3.01212e-07
2.49766e-07
2.01908e-07
1.58707e-07
1.20958e-07
8.9085e-08
6.31254e-08
4.27727e-08
2.74648e-08
1.64855e-08
9.05394e-09
4.39181e-09
1.76736e-09
5.21394e-10
8.49546e-11
3.60717e-12
1.18304e-06
1.18834e-06
1.1935e-06
1.19854e-06
1.20344e-06
1.2082e-06
1.21283e-06
1.21732e-06
1.22167e-06
1.22588e-06
1.22994e-06
1.23386e-06
1.23763e-06
1.24125e-06
1.24471e-06
1.24802e-06
1.25117e-06
1.25415e-06
1.25696e-06
1.25959e-06
1.26204e-06
1.26431e-06
1.26638e-06
1.26825e-06
1.26991e-06
1.27137e-06
1.2726e-06
1.27361e-06
1.27438e-06
1.27491e-06
1.27518e-06
1.27519e-06
1.27492e-06
1.27437e-06
1.27352e-06
1.27235e-06
1.27086e-06
1.26902e-06
1.26682e-06
1.26424e-06
1.26125e-06
1.25785e-06
1.254e-06
1.24967e-06
1.24484e-06
1.23948e-06
1.23356e-06
1.22703e-06
1.21986e-06
1.21201e-06
1.20342e-06
1.19406e-06
1.18386e-06
1.17276e-06
1.1607e-06
1.14762e-06
1.13342e-06
1.11804e-06
1.10139e-06
1.08337e-06
1.06388e-06
1.04282e-06
1.02007e-06
9.9552e-07
9.69055e-07
9.40553e-07
9.09897e-07
8.76976e-07
8.41691e-07
8.03957e-07
7.63717e-07
7.20942e-07
6.75618e-07
6.27691e-07
5.77282e-07
5.24699e-07
4.70436e-07
4.15196e-07
3.599e-07
3.05658e-07
2.53703e-07
2.05276e-07
1.61481e-07
1.2315e-07
9.07418e-08
6.43189e-08
4.35878e-08
2.79883e-08
1.67975e-08
9.22268e-09
4.47155e-09
1.79805e-09
5.29713e-10
8.60646e-11
3.63198e-12
1.18093e-06
1.18628e-06
1.19149e-06
1.19658e-06
1.20153e-06
1.20635e-06
1.21103e-06
1.21557e-06
1.21997e-06
1.22423e-06
1.22835e-06
1.23232e-06
1.23614e-06
1.23981e-06
1.24333e-06
1.24669e-06
1.24989e-06
1.25293e-06
1.2558e-06
1.25849e-06
1.261e-06
1.26332e-06
1.26545e-06
1.26739e-06
1.26912e-06
1.27064e-06
1.27194e-06
1.27301e-06
1.27385e-06
1.27445e-06
1.27479e-06
1.27487e-06
1.27468e-06
1.2742e-06
1.27343e-06
1.27234e-06
1.27093e-06
1.26917e-06
1.26706e-06
1.26457e-06
1.26168e-06
1.25836e-06
1.25461e-06
1.25038e-06
1.24566e-06
1.24041e-06
1.23459e-06
1.22818e-06
1.22113e-06
1.2134e-06
1.20495e-06
1.19572e-06
1.18566e-06
1.17471e-06
1.1628e-06
1.14987e-06
1.13584e-06
1.12063e-06
1.10415e-06
1.08631e-06
1.067e-06
1.04613e-06
1.02358e-06
9.99229e-07
9.72964e-07
9.44661e-07
9.14202e-07
8.81473e-07
8.4637e-07
8.08805e-07
7.68716e-07
7.2607e-07
6.80858e-07
6.33011e-07
5.82631e-07
5.30013e-07
4.75635e-07
4.2019e-07
3.6459e-07
3.09949e-07
2.5751e-07
2.08538e-07
1.64173e-07
1.2528e-07
9.2354e-08
6.54812e-08
4.4382e-08
2.84985e-08
1.71016e-08
9.38712e-09
4.54923e-09
1.82792e-09
5.378e-10
8.71403e-11
3.65583e-12
1.17888e-06
1.18428e-06
1.18954e-06
1.19468e-06
1.19968e-06
1.20454e-06
1.20927e-06
1.21387e-06
1.21832e-06
1.22263e-06
1.22679e-06
1.23082e-06
1.23469e-06
1.23841e-06
1.24198e-06
1.24539e-06
1.24865e-06
1.25174e-06
1.25466e-06
1.2574e-06
1.25997e-06
1.26235e-06
1.26455e-06
1.26654e-06
1.26833e-06
1.26991e-06
1.27127e-06
1.27241e-06
1.27331e-06
1.27398e-06
1.27439e-06
1.27454e-06
1.27442e-06
1.27401e-06
1.27331e-06
1.2723e-06
1.27097e-06
1.26929e-06
1.26726e-06
1.26485e-06
1.26205e-06
1.25882e-06
1.25516e-06
1.25103e-06
1.24641e-06
1.24125e-06
1.23555e-06
1.22924e-06
1.22231e-06
1.2147e-06
1.20637e-06
1.19726e-06
1.18733e-06
1.17652e-06
1.16476e-06
1.15197e-06
1.1381e-06
1.12305e-06
1.10673e-06
1.08906e-06
1.06993e-06
1.04924e-06
1.02687e-06
1.00271e-06
9.76638e-07
9.48525e-07
9.18255e-07
8.85709e-07
8.50781e-07
8.13379e-07
7.73437e-07
7.30914e-07
6.858e-07
6.38031e-07
5.87687e-07
5.35044e-07
4.80568e-07
4.24938e-07
3.69059e-07
3.14046e-07
2.61153e-07
2.11668e-07
1.66759e-07
1.27331e-07
9.39076e-08
6.66024e-08
4.51486e-08
2.89911e-08
1.73951e-08
9.54584e-09
4.62417e-09
1.85672e-09
5.45581e-10
8.8171e-11
3.67838e-12
1.17691e-06
1.18235e-06
1.18766e-06
1.19284e-06
1.19789e-06
1.2028e-06
1.20758e-06
1.21222e-06
1.21672e-06
1.22108e-06
1.22529e-06
1.22936e-06
1.23328e-06
1.23705e-06
1.24067e-06
1.24413e-06
1.24744e-06
1.25058e-06
1.25355e-06
1.25635e-06
1.25897e-06
1.26141e-06
1.26366e-06
1.26571e-06
1.26756e-06
1.26919e-06
1.27062e-06
1.27182e-06
1.27278e-06
1.27351e-06
1.27398e-06
1.2742e-06
1.27414e-06
1.27381e-06
1.27318e-06
1.27224e-06
1.27098e-06
1.26938e-06
1.26742e-06
1.26509e-06
1.26237e-06
1.25923e-06
1.25566e-06
1.25162e-06
1.24709e-06
1.24203e-06
1.23642e-06
1.23022e-06
1.2234e-06
1.2159e-06
1.20768e-06
1.1987e-06
1.18889e-06
1.17821e-06
1.16658e-06
1.15394e-06
1.14021e-06
1.12531e-06
1.10915e-06
1.09165e-06
1.07268e-06
1.05216e-06
1.02997e-06
1.00599e-06
9.80097e-07
9.52167e-07
9.22077e-07
8.89707e-07
8.54948e-07
8.17704e-07
7.77903e-07
7.35502e-07
6.90484e-07
6.42793e-07
5.92489e-07
5.39829e-07
4.85265e-07
4.29466e-07
3.73329e-07
3.17968e-07
2.64647e-07
2.14674e-07
1.69248e-07
1.29306e-07
9.54061e-08
6.76846e-08
4.58889e-08
2.94669e-08
1.76787e-08
9.69914e-09
4.69653e-09
1.88451e-09
5.5308e-10
8.91618e-11
3.69994e-12
1.17502e-06
1.1805e-06
1.18586e-06
1.19109e-06
1.19618e-06
1.20114e-06
1.20596e-06
1.21064e-06
1.21519e-06
1.21959e-06
1.22385e-06
1.22797e-06
1.23193e-06
1.23575e-06
1.23941e-06
1.24292e-06
1.24628e-06
1.24947e-06
1.25249e-06
1.25534e-06
1.25801e-06
1.2605e-06
1.2628e-06
1.2649e-06
1.2668e-06
1.2685e-06
1.26998e-06
1.27123e-06
1.27226e-06
1.27304e-06
1.27358e-06
1.27386e-06
1.27387e-06
1.27359e-06
1.27303e-06
1.27216e-06
1.27097e-06
1.26944e-06
1.26756e-06
1.2653e-06
1.26266e-06
1.2596e-06
1.25611e-06
1.25215e-06
1.24771e-06
1.24274e-06
1.23723e-06
1.23113e-06
1.2244e-06
1.21701e-06
1.2089e-06
1.20003e-06
1.19035e-06
1.17978e-06
1.16828e-06
1.15578e-06
1.14218e-06
1.12743e-06
1.11142e-06
1.09406e-06
1.07526e-06
1.0549e-06
1.03288e-06
1.00907e-06
9.83347e-07
9.5559e-07
9.25671e-07
8.93469e-07
8.58871e-07
8.21779e-07
7.82114e-07
7.39831e-07
6.94908e-07
6.47295e-07
5.97033e-07
5.44362e-07
4.89721e-07
4.33768e-07
3.77392e-07
3.21705e-07
2.67982e-07
2.17548e-07
1.71631e-07
1.312e-07
9.68445e-08
6.87243e-08
4.66005e-08
2.99244e-08
1.79514e-08
9.84654e-09
4.76607e-09
1.9112e-09
5.60276e-10
9.01104e-11
3.72049e-12
1.17322e-06
1.17875e-06
1.18415e-06
1.18941e-06
1.19455e-06
1.19955e-06
1.20441e-06
1.20914e-06
1.21373e-06
1.21817e-06
1.22248e-06
1.22663e-06
1.23065e-06
1.23451e-06
1.23822e-06
1.24177e-06
1.24517e-06
1.2484e-06
1.25147e-06
1.25437e-06
1.25709e-06
1.25962e-06
1.26197e-06
1.26413e-06
1.26608e-06
1.26783e-06
1.26936e-06
1.27067e-06
1.27175e-06
1.27259e-06
1.27318e-06
1.27352e-06
1.27359e-06
1.27338e-06
1.27287e-06
1.27207e-06
1.27094e-06
1.26948e-06
1.26767e-06
1.26548e-06
1.26291e-06
1.25993e-06
1.25651e-06
1.25264e-06
1.24828e-06
1.2434e-06
1.23797e-06
1.23196e-06
1.22533e-06
1.21804e-06
1.21003e-06
1.20127e-06
1.19169e-06
1.18125e-06
1.16987e-06
1.15748e-06
1.14402e-06
1.1294e-06
1.11353e-06
1.09632e-06
1.07767e-06
1.05746e-06
1.0356e-06
1.01195e-06
9.86386e-07
9.58792e-07
9.29036e-07
8.96993e-07
8.62549e-07
8.256e-07
7.86067e-07
7.43897e-07
6.99066e-07
6.5153e-07
6.01311e-07
5.48634e-07
4.93926e-07
4.37833e-07
3.81236e-07
3.25248e-07
2.71148e-07
2.20282e-07
1.73901e-07
1.33006e-07
9.82173e-08
6.97173e-08
4.72804e-08
3.03617e-08
1.8212e-08
9.98741e-09
4.83252e-09
1.93668e-09
5.67141e-10
9.10136e-11
3.73997e-12
1.17152e-06
1.17709e-06
1.18252e-06
1.18783e-06
1.193e-06
1.19804e-06
1.20295e-06
1.20772e-06
1.21234e-06
1.21683e-06
1.22118e-06
1.22537e-06
1.22943e-06
1.23333e-06
1.23708e-06
1.24067e-06
1.24411e-06
1.24739e-06
1.2505e-06
1.25344e-06
1.25621e-06
1.25879e-06
1.26119e-06
1.26339e-06
1.26539e-06
1.26719e-06
1.26877e-06
1.27013e-06
1.27126e-06
1.27215e-06
1.2728e-06
1.27319e-06
1.27332e-06
1.27316e-06
1.27272e-06
1.27197e-06
1.2709e-06
1.2695e-06
1.26776e-06
1.26564e-06
1.26314e-06
1.26022e-06
1.25688e-06
1.25308e-06
1.24879e-06
1.244e-06
1.23865e-06
1.23273e-06
1.22619e-06
1.21898e-06
1.21108e-06
1.20241e-06
1.19294e-06
1.1826e-06
1.17133e-06
1.15907e-06
1.14573e-06
1.13123e-06
1.11549e-06
1.09841e-06
1.0799e-06
1.05984e-06
1.03812e-06
1.01462e-06
9.89213e-07
9.61772e-07
9.32169e-07
9.00276e-07
8.65976e-07
8.29164e-07
7.89755e-07
7.47694e-07
7.02952e-07
6.5549e-07
6.05316e-07
5.52637e-07
4.9787e-07
4.4165e-07
3.84852e-07
3.28584e-07
2.74135e-07
2.22863e-07
1.76047e-07
1.34717e-07
9.95187e-08
7.06593e-08
4.79258e-08
3.07768e-08
1.84595e-08
1.01211e-08
4.89559e-09
1.96086e-09
5.73648e-10
9.1868e-11
3.75834e-12
1.16993e-06
1.17553e-06
1.181e-06
1.18635e-06
1.19156e-06
1.19663e-06
1.20158e-06
1.20638e-06
1.21105e-06
1.21557e-06
1.21995e-06
1.22419e-06
1.22828e-06
1.23222e-06
1.23601e-06
1.23965e-06
1.24312e-06
1.24644e-06
1.24959e-06
1.25257e-06
1.25538e-06
1.25801e-06
1.26045e-06
1.26269e-06
1.26474e-06
1.26658e-06
1.26821e-06
1.26962e-06
1.2708e-06
1.27174e-06
1.27244e-06
1.27288e-06
1.27305e-06
1.27295e-06
1.27256e-06
1.27187e-06
1.27086e-06
1.26952e-06
1.26783e-06
1.26577e-06
1.26333e-06
1.26049e-06
1.25721e-06
1.25348e-06
1.24927e-06
1.24454e-06
1.23927e-06
1.23343e-06
1.22697e-06
1.21985e-06
1.21203e-06
1.20346e-06
1.19409e-06
1.18385e-06
1.17268e-06
1.16052e-06
1.14729e-06
1.13291e-06
1.1173e-06
1.10035e-06
1.08196e-06
1.06204e-06
1.04045e-06
1.01709e-06
9.91827e-07
9.64529e-07
9.35068e-07
9.03316e-07
8.69152e-07
8.32467e-07
7.93176e-07
7.51216e-07
7.0656e-07
6.5917e-07
6.09039e-07
5.56363e-07
5.01545e-07
4.45211e-07
3.88228e-07
3.31704e-07
2.76932e-07
2.25285e-07
1.78063e-07
1.36324e-07
1.00743e-07
7.15462e-08
4.85337e-08
3.11679e-08
1.86927e-08
1.02471e-08
4.955e-09
1.98363e-09
5.79769e-10
9.26704e-11
3.77553e-12
1.16845e-06
1.17408e-06
1.17959e-06
1.18497e-06
1.19021e-06
1.19532e-06
1.2003e-06
1.20514e-06
1.20984e-06
1.2144e-06
1.21882e-06
1.22309e-06
1.22722e-06
1.23119e-06
1.23502e-06
1.23869e-06
1.2422e-06
1.24556e-06
1.24874e-06
1.25176e-06
1.25461e-06
1.25728e-06
1.25975e-06
1.26204e-06
1.26413e-06
1.26601e-06
1.26768e-06
1.26914e-06
1.27036e-06
1.27135e-06
1.27209e-06
1.27258e-06
1.2728e-06
1.27275e-06
1.27241e-06
1.27177e-06
1.27081e-06
1.26952e-06
1.26789e-06
1.26589e-06
1.26351e-06
1.26072e-06
1.25751e-06
1.25384e-06
1.24969e-06
1.24503e-06
1.23984e-06
1.23407e-06
1.22768e-06
1.22064e-06
1.21291e-06
1.20442e-06
1.19513e-06
1.18499e-06
1.17392e-06
1.16186e-06
1.14873e-06
1.13446e-06
1.11895e-06
1.10212e-06
1.08385e-06
1.06405e-06
1.04259e-06
1.01936e-06
9.94226e-07
9.6706e-07
9.37731e-07
9.06109e-07
8.72071e-07
8.35506e-07
7.96324e-07
7.54461e-07
7.09885e-07
6.62562e-07
6.12475e-07
5.59803e-07
5.04941e-07
4.48505e-07
3.91357e-07
3.34599e-07
2.7953e-07
2.27536e-07
1.7994e-07
1.37823e-07
1.01886e-07
7.23742e-08
4.91014e-08
3.15333e-08
1.89105e-08
1.03649e-08
5.01048e-09
2.00488e-09
5.85479e-10
9.34176e-11
3.79149e-12
1.16708e-06
1.17275e-06
1.17829e-06
1.1837e-06
1.18897e-06
1.19412e-06
1.19913e-06
1.204e-06
1.20873e-06
1.21332e-06
1.21777e-06
1.22208e-06
1.22623e-06
1.23024e-06
1.2341e-06
1.2378e-06
1.24135e-06
1.24474e-06
1.24796e-06
1.25102e-06
1.2539e-06
1.2566e-06
1.25912e-06
1.26144e-06
1.26357e-06
1.26549e-06
1.2672e-06
1.26869e-06
1.26995e-06
1.27098e-06
1.27177e-06
1.2723e-06
1.27257e-06
1.27256e-06
1.27226e-06
1.27167e-06
1.27076e-06
1.26952e-06
1.26794e-06
1.26599e-06
1.26366e-06
1.26093e-06
1.25777e-06
1.25416e-06
1.25007e-06
1.24548e-06
1.24035e-06
1.23464e-06
1.22833e-06
1.22136e-06
1.2137e-06
1.20529e-06
1.19608e-06
1.18602e-06
1.17504e-06
1.16307e-06
1.15003e-06
1.13586e-06
1.12045e-06
1.10372e-06
1.08557e-06
1.06588e-06
1.04454e-06
1.02142e-06
9.96409e-07
9.69365e-07
9.40157e-07
9.08655e-07
8.74732e-07
8.38277e-07
7.99196e-07
7.57422e-07
7.12921e-07
6.65663e-07
6.15617e-07
5.62951e-07
5.08052e-07
4.51526e-07
3.94228e-07
3.37258e-07
2.8192e-07
2.2961e-07
1.81671e-07
1.39207e-07
1.02941e-07
7.31396e-08
4.96264e-08
3.18713e-08
1.9112e-08
1.04737e-08
5.06179e-09
2.02453e-09
5.90753e-10
9.41067e-11
3.80617e-12
1.16584e-06
1.17154e-06
1.1771e-06
1.18254e-06
1.18785e-06
1.19302e-06
1.19806e-06
1.20296e-06
1.20772e-06
1.21234e-06
1.21682e-06
1.22115e-06
1.22534e-06
1.22938e-06
1.23327e-06
1.237e-06
1.24058e-06
1.244e-06
1.24725e-06
1.25034e-06
1.25325e-06
1.25598e-06
1.25853e-06
1.26089e-06
1.26305e-06
1.26501e-06
1.26675e-06
1.26828e-06
1.26958e-06
1.27065e-06
1.27147e-06
1.27204e-06
1.27235e-06
1.27238e-06
1.27213e-06
1.27157e-06
1.27071e-06
1.26951e-06
1.26797e-06
1.26607e-06
1.26379e-06
1.26111e-06
1.258e-06
1.25444e-06
1.25041e-06
1.24587e-06
1.2408e-06
1.23515e-06
1.2289e-06
1.222e-06
1.2144e-06
1.20606e-06
1.19693e-06
1.18694e-06
1.17604e-06
1.16415e-06
1.15121e-06
1.13712e-06
1.12181e-06
1.10517e-06
1.08711e-06
1.06752e-06
1.04629e-06
1.02328e-06
9.98377e-07
9.71442e-07
9.42344e-07
9.1095e-07
8.77133e-07
8.40778e-07
8.01789e-07
7.60097e-07
7.15665e-07
6.68466e-07
6.18459e-07
5.65802e-07
5.10871e-07
4.54265e-07
3.96834e-07
3.39675e-07
2.84094e-07
2.31499e-07
1.83249e-07
1.40469e-07
1.03905e-07
7.38388e-08
5.01062e-08
3.21802e-08
1.92962e-08
1.05732e-08
5.10868e-09
2.04248e-09
5.95568e-10
9.47351e-11
3.81951e-12
1.16473e-06
1.17045e-06
1.17604e-06
1.1815e-06
1.18683e-06
1.19203e-06
1.19709e-06
1.20202e-06
1.20681e-06
1.21146e-06
1.21596e-06
1.22032e-06
1.22454e-06
1.2286e-06
1.23252e-06
1.23628e-06
1.23988e-06
1.24333e-06
1.24661e-06
1.24972e-06
1.25266e-06
1.25543e-06
1.25801e-06
1.26039e-06
1.26259e-06
1.26457e-06
1.26635e-06
1.26791e-06
1.26924e-06
1.27034e-06
1.2712e-06
1.2718e-06
1.27215e-06
1.27222e-06
1.272e-06
1.27148e-06
1.27066e-06
1.2695e-06
1.268e-06
1.26614e-06
1.26391e-06
1.26127e-06
1.2582e-06
1.25469e-06
1.25071e-06
1.24622e-06
1.2412e-06
1.23561e-06
1.22941e-06
1.22257e-06
1.21503e-06
1.20675e-06
1.19768e-06
1.18776e-06
1.17693e-06
1.16512e-06
1.15224e-06
1.13824e-06
1.12301e-06
1.10646e-06
1.08849e-06
1.06899e-06
1.04784e-06
1.02493e-06
1.00013e-06
9.7329e-07
9.44291e-07
9.12994e-07
8.79271e-07
8.43006e-07
8.04101e-07
7.62482e-07
7.18113e-07
6.70968e-07
6.20997e-07
5.68348e-07
5.13391e-07
4.56717e-07
3.99168e-07
3.41841e-07
2.86045e-07
2.33196e-07
1.84667e-07
1.41605e-07
1.04772e-07
7.44687e-08
5.05386e-08
3.24586e-08
1.94623e-08
1.06629e-08
5.15094e-09
2.05865e-09
5.99904e-10
9.53002e-11
3.83149e-12
1.16374e-06
1.16949e-06
1.1751e-06
1.18059e-06
1.18594e-06
1.19116e-06
1.19625e-06
1.2012e-06
1.20601e-06
1.21068e-06
1.21521e-06
1.21959e-06
1.22383e-06
1.22792e-06
1.23185e-06
1.23564e-06
1.23927e-06
1.24274e-06
1.24604e-06
1.24918e-06
1.25215e-06
1.25494e-06
1.25754e-06
1.25996e-06
1.26217e-06
1.26419e-06
1.26599e-06
1.26758e-06
1.26894e-06
1.27007e-06
1.27096e-06
1.27159e-06
1.27197e-06
1.27207e-06
1.27188e-06
1.2714e-06
1.27061e-06
1.26949e-06
1.26803e-06
1.2662e-06
1.264e-06
1.2614e-06
1.25838e-06
1.25491e-06
1.25097e-06
1.24652e-06
1.24155e-06
1.236e-06
1.22985e-06
1.22306e-06
1.21557e-06
1.20735e-06
1.19834e-06
1.18848e-06
1.17771e-06
1.16596e-06
1.15315e-06
1.13921e-06
1.12406e-06
1.10758e-06
1.08969e-06
1.07027e-06
1.04921e-06
1.02638e-06
1.00166e-06
9.74909e-07
9.45996e-07
9.14784e-07
8.81145e-07
8.4496e-07
8.06128e-07
7.64575e-07
7.20262e-07
6.73165e-07
6.23227e-07
5.70587e-07
5.15607e-07
4.58874e-07
4.01224e-07
3.43751e-07
2.87766e-07
2.34694e-07
1.85921e-07
1.42609e-07
1.0554e-07
7.50264e-08
5.09216e-08
3.27053e-08
1.96093e-08
1.07424e-08
5.18837e-09
2.07296e-09
6.03741e-10
9.57997e-11
3.84205e-12
1.16289e-06
1.16866e-06
1.17429e-06
1.1798e-06
1.18517e-06
1.19041e-06
1.19551e-06
1.20048e-06
1.20531e-06
1.21e-06
1.21455e-06
1.21896e-06
1.22321e-06
1.22732e-06
1.23128e-06
1.23509e-06
1.23874e-06
1.24223e-06
1.24555e-06
1.24871e-06
1.2517e-06
1.25451e-06
1.25714e-06
1.25958e-06
1.26182e-06
1.26386e-06
1.26569e-06
1.2673e-06
1.26868e-06
1.26984e-06
1.27075e-06
1.27141e-06
1.27181e-06
1.27194e-06
1.27178e-06
1.27133e-06
1.27056e-06
1.26947e-06
1.26804e-06
1.26625e-06
1.26408e-06
1.26151e-06
1.25853e-06
1.25509e-06
1.25119e-06
1.24678e-06
1.24184e-06
1.23634e-06
1.23023e-06
1.22348e-06
1.21604e-06
1.20787e-06
1.1989e-06
1.18909e-06
1.17837e-06
1.16668e-06
1.15393e-06
1.14005e-06
1.12495e-06
1.10854e-06
1.09072e-06
1.07137e-06
1.05038e-06
1.02762e-06
1.00297e-06
9.76297e-07
9.47458e-07
9.16321e-07
8.82754e-07
8.46637e-07
8.07869e-07
7.66373e-07
7.22108e-07
6.75054e-07
6.25144e-07
5.72513e-07
5.17516e-07
4.60732e-07
4.02996e-07
3.45399e-07
2.89252e-07
2.35989e-07
1.87005e-07
1.43479e-07
1.06205e-07
7.55094e-08
5.12533e-08
3.29189e-08
1.97368e-08
1.08112e-08
5.22078e-09
2.08536e-09
6.07062e-10
9.62316e-11
3.85117e-12
1.16218e-06
1.16796e-06
1.17361e-06
1.17913e-06
1.18452e-06
1.18978e-06
1.1949e-06
1.19989e-06
1.20473e-06
1.20944e-06
1.214e-06
1.21843e-06
1.2227e-06
1.22683e-06
1.2308e-06
1.23462e-06
1.23829e-06
1.2418e-06
1.24514e-06
1.24832e-06
1.25133e-06
1.25416e-06
1.2568e-06
1.25926e-06
1.26152e-06
1.26358e-06
1.26543e-06
1.26706e-06
1.26847e-06
1.26964e-06
1.27057e-06
1.27126e-06
1.27168e-06
1.27183e-06
1.27169e-06
1.27126e-06
1.27052e-06
1.26946e-06
1.26805e-06
1.26629e-06
1.26415e-06
1.26161e-06
1.25865e-06
1.25524e-06
1.25137e-06
1.24699e-06
1.24209e-06
1.23662e-06
1.23054e-06
1.22383e-06
1.21643e-06
1.20829e-06
1.19937e-06
1.1896e-06
1.17893e-06
1.16728e-06
1.15458e-06
1.14075e-06
1.1257e-06
1.10934e-06
1.09157e-06
1.07228e-06
1.05135e-06
1.02865e-06
1.00407e-06
9.77454e-07
9.48678e-07
9.17602e-07
8.84096e-07
8.48037e-07
8.09322e-07
7.67874e-07
7.2365e-07
6.76631e-07
6.26746e-07
5.74123e-07
5.19111e-07
4.62287e-07
4.0448e-07
3.46779e-07
2.90498e-07
2.37075e-07
1.87915e-07
1.44208e-07
1.06763e-07
7.59153e-08
5.15322e-08
3.30986e-08
1.98439e-08
1.08691e-08
5.24804e-09
2.09578e-09
6.09853e-10
9.65942e-11
3.85881e-12
1.16161e-06
1.1674e-06
1.17307e-06
1.1786e-06
1.184e-06
1.18927e-06
1.19441e-06
1.1994e-06
1.20427e-06
1.20899e-06
1.21356e-06
1.218e-06
1.22229e-06
1.22643e-06
1.23042e-06
1.23425e-06
1.23793e-06
1.24145e-06
1.24481e-06
1.248e-06
1.25102e-06
1.25387e-06
1.25653e-06
1.259e-06
1.26128e-06
1.26335e-06
1.26521e-06
1.26686e-06
1.26829e-06
1.26948e-06
1.27043e-06
1.27113e-06
1.27157e-06
1.27174e-06
1.27162e-06
1.27121e-06
1.27049e-06
1.26945e-06
1.26806e-06
1.26632e-06
1.2642e-06
1.26168e-06
1.25874e-06
1.25536e-06
1.25151e-06
1.24716e-06
1.24228e-06
1.23684e-06
1.23079e-06
1.22411e-06
1.21674e-06
1.20863e-06
1.19974e-06
1.19001e-06
1.17937e-06
1.16775e-06
1.15509e-06
1.1413e-06
1.1263e-06
1.10998e-06
1.09226e-06
1.07301e-06
1.05213e-06
1.02948e-06
1.00494e-06
9.78379e-07
9.49653e-07
9.18627e-07
8.85169e-07
8.49156e-07
8.10485e-07
7.69075e-07
7.24885e-07
6.77895e-07
6.2803e-07
5.75413e-07
5.20391e-07
4.63535e-07
4.05671e-07
3.47888e-07
2.91499e-07
2.37948e-07
1.88647e-07
1.44796e-07
1.07213e-07
7.62422e-08
5.17567e-08
3.32433e-08
1.99302e-08
1.09157e-08
5.26999e-09
2.10418e-09
6.12099e-10
9.68859e-11
3.86495e-12
1.16118e-06
1.16698e-06
1.17266e-06
1.1782e-06
1.18361e-06
1.18889e-06
1.19403e-06
1.19904e-06
1.20391e-06
1.20864e-06
1.21323e-06
1.21768e-06
1.22197e-06
1.22613e-06
1.23012e-06
1.23397e-06
1.23766e-06
1.24119e-06
1.24456e-06
1.24776e-06
1.2508e-06
1.25365e-06
1.25632e-06
1.25881e-06
1.26109e-06
1.26318e-06
1.26506e-06
1.26672e-06
1.26815e-06
1.26936e-06
1.27032e-06
1.27104e-06
1.27149e-06
1.27167e-06
1.27157e-06
1.27117e-06
1.27046e-06
1.26943e-06
1.26806e-06
1.26634e-06
1.26423e-06
1.26173e-06
1.25881e-06
1.25545e-06
1.25161e-06
1.24728e-06
1.24242e-06
1.237e-06
1.23098e-06
1.22431e-06
1.21696e-06
1.20888e-06
1.20002e-06
1.19031e-06
1.17969e-06
1.16811e-06
1.15548e-06
1.14172e-06
1.12674e-06
1.11046e-06
1.09277e-06
1.07355e-06
1.05271e-06
1.0301e-06
1.0056e-06
9.7907e-07
9.50381e-07
9.19393e-07
8.85971e-07
8.49993e-07
8.11354e-07
7.69973e-07
7.25807e-07
6.78838e-07
6.28988e-07
5.76377e-07
5.21347e-07
4.64468e-07
4.06562e-07
3.48718e-07
2.92249e-07
2.38602e-07
1.89196e-07
1.45237e-07
1.0755e-07
7.64876e-08
5.19254e-08
3.3352e-08
1.9995e-08
1.09507e-08
5.28647e-09
2.11047e-09
6.13784e-10
9.71044e-11
3.86952e-12
1.16089e-06
1.1667e-06
1.17238e-06
1.17793e-06
1.18335e-06
1.18863e-06
1.19379e-06
1.1988e-06
1.20368e-06
1.20841e-06
1.21301e-06
1.21746e-06
1.22177e-06
1.22592e-06
1.22993e-06
1.23378e-06
1.23748e-06
1.24102e-06
1.24439e-06
1.2476e-06
1.25064e-06
1.25351e-06
1.25619e-06
1.25868e-06
1.26097e-06
1.26306e-06
1.26495e-06
1.26662e-06
1.26806e-06
1.26928e-06
1.27025e-06
1.27097e-06
1.27143e-06
1.27162e-06
1.27153e-06
1.27114e-06
1.27045e-06
1.26943e-06
1.26807e-06
1.26635e-06
1.26425e-06
1.26176e-06
1.25885e-06
1.2555e-06
1.25168e-06
1.24736e-06
1.24252e-06
1.23711e-06
1.2311e-06
1.22445e-06
1.21711e-06
1.20905e-06
1.2002e-06
1.19051e-06
1.17991e-06
1.16834e-06
1.15573e-06
1.14199e-06
1.12704e-06
1.11078e-06
1.09311e-06
1.07392e-06
1.05309e-06
1.0305e-06
1.00603e-06
9.79527e-07
9.50864e-07
9.199e-07
8.86503e-07
8.50548e-07
8.1193e-07
7.70569e-07
7.2642e-07
6.79463e-07
6.29623e-07
5.77016e-07
5.21982e-07
4.65087e-07
4.07154e-07
3.49269e-07
2.92748e-07
2.39038e-07
1.89561e-07
1.4553e-07
1.07775e-07
7.66511e-08
5.20378e-08
3.34244e-08
2.00382e-08
1.09741e-08
5.29745e-09
2.11467e-09
6.14905e-10
9.72496e-11
3.87253e-12
1.16075e-06
1.16656e-06
1.17224e-06
1.1778e-06
1.18322e-06
1.18851e-06
1.19366e-06
1.19868e-06
1.20356e-06
1.2083e-06
1.2129e-06
1.21735e-06
1.22166e-06
1.22582e-06
1.22983e-06
1.23369e-06
1.23739e-06
1.24093e-06
1.24431e-06
1.24752e-06
1.25057e-06
1.25343e-06
1.25612e-06
1.25861e-06
1.26091e-06
1.26301e-06
1.2649e-06
1.26657e-06
1.26802e-06
1.26923e-06
1.27021e-06
1.27094e-06
1.2714e-06
1.2716e-06
1.27151e-06
1.27113e-06
1.27044e-06
1.26942e-06
1.26807e-06
1.26635e-06
1.26426e-06
1.26178e-06
1.25888e-06
1.25553e-06
1.25172e-06
1.2474e-06
1.24256e-06
1.23716e-06
1.23116e-06
1.22452e-06
1.21719e-06
1.20913e-06
1.20029e-06
1.19061e-06
1.18002e-06
1.16846e-06
1.15586e-06
1.14213e-06
1.12718e-06
1.11093e-06
1.09327e-06
1.0741e-06
1.05328e-06
1.03071e-06
1.00624e-06
9.79756e-07