/*--------------------------------*- C++ -*----------------------------------*\
  =========                 |
  \\      /  F ield         | OpenFOAM: The Open Source CFD Toolbox
   \\    /   O peration     | Website:  https://openfoam.org
    \\  /    A nd           | Version:  7
     \\/     M anipulation  |
\*---------------------------------------------------------------------------*/
FoamFile
{
    version     2.0;
    format      ascii;
    class       volScalarField;
    location    "236000";
    object      p;
}
// * * * * * * * * * * * * * * * * * * * * * * * * * * * * * * * * * * * * * //

dimensions      [0 2 -2 0 0 0 0];

internalField   nonuniform List<scalar> 
4782
(
-9.33294e-19
-9.3417e-19
-9.34919e-19
-9.3611e-19
-9.37964e-19
-9.35163e-19
-9.33337e-19
-9.35466e-19
-9.37449e-19
-9.35099e-19
-9.18521e-19
-9.20975e-19
-9.33945e-19
-9.3428e-19
-9.29185e-19
-9.44669e-19
-9.36979e-19
-9.21864e-19
-9.24164e-19
-9.20003e-19
-9.20922e-19
-9.25906e-19
-9.26768e-19
-9.26656e-19
-9.25098e-19
-9.25641e-19
-9.24755e-19
-9.21925e-19
-9.21373e-19
-9.15307e-19
-9.19743e-19
-9.29523e-19
-9.3571e-19
-9.21102e-19
-9.16176e-19
-9.1007e-19
-9.10198e-19
-9.17617e-19
-9.20612e-19
-9.17295e-19
-9.11289e-19
-9.11471e-19
-9.21804e-19
-9.20572e-19
-9.19435e-19
-9.15209e-19
-9.19203e-19
-9.23548e-19
-9.17422e-19
-9.17775e-19
-9.2405e-19
-9.19493e-19
-9.19472e-19
-9.27815e-19
-9.27997e-19
-9.21241e-19
-9.18851e-19
-9.17789e-19
-9.26263e-19
-9.27752e-19
-9.27568e-19
-9.26568e-19
-9.22518e-19
-9.2166e-19
-9.29805e-19
-9.36355e-19
-9.37816e-19
-9.3418e-19
-9.35545e-19
-9.3727e-19
-9.39511e-19
-9.44235e-19
-9.44043e-19
-9.40298e-19
-9.48655e-19
-9.37647e-19
-9.36507e-19
-9.3774e-19
-9.35395e-19
-9.29587e-19
-9.39211e-19
-9.43741e-19
-9.42905e-19
-9.33144e-19
-9.33851e-19
-9.3036e-19
-9.33803e-19
-9.30313e-19
-9.24736e-19
-9.23954e-19
-9.26584e-19
-9.22673e-19
-9.12794e-19
-9.22542e-19
-9.27439e-19
-9.22702e-19
-9.21893e-19
-9.27142e-19
-9.2535e-19
-9.20736e-19
-9.19748e-19
-9.28914e-19
-9.32825e-19
-9.27993e-19
-9.26612e-19
-9.24322e-19
-9.29677e-19
-9.25342e-19
-9.28737e-19
-9.2581e-19
-9.29669e-19
-9.32905e-19
-9.31382e-19
-9.30509e-19
-9.31813e-19
-9.32333e-19
-9.35955e-19
-9.33564e-19
-9.31167e-19
-9.31479e-19
-9.24176e-19
-9.086e-19
-9.15705e-19
-9.15126e-19
-9.11696e-19
-9.15503e-19
-9.15485e-19
-9.20412e-19
-9.34441e-19
-9.26944e-19
-9.23272e-19
-9.20379e-19
-9.10587e-19
-9.07361e-19
-9.18757e-19
-9.24671e-19
-9.28175e-19
-9.261e-19
-9.25076e-19
-9.17439e-19
-9.20359e-19
-9.19779e-19
-9.23642e-19
-9.28156e-19
-9.27452e-19
-9.29584e-19
-9.24171e-19
-9.22447e-19
-9.19912e-19
-9.21922e-19
-9.27934e-19
-9.22006e-19
-9.25759e-19
-9.23154e-19
-9.22579e-19
-9.20844e-19
-9.3018e-19
-9.28735e-19
-9.2722e-19
-9.27303e-19
-9.27314e-19
-9.26654e-19
-9.26264e-19
-9.23423e-19
-9.25029e-19
-9.31198e-19
-9.28371e-19
-9.27752e-19
-9.30345e-19
-9.2673e-19
-9.24693e-19
-9.27455e-19
-9.28344e-19
-9.28923e-19
-9.27092e-19
-9.23298e-19
-9.32684e-19
-9.33263e-19
-9.26272e-19
-9.24185e-19
-9.17857e-19
-9.21427e-19
-9.33607e-19
-9.35033e-19
-9.3761e-19
-9.31286e-19
-9.2891e-19
-9.31724e-19
-9.42259e-19
-9.4494e-19
-9.424e-19
-9.41307e-19
-9.44287e-19
-9.36992e-19
-9.4147e-19
-9.44947e-19
-9.43859e-19
-9.33148e-19
-9.38569e-19
-9.42344e-19
-9.42952e-19
-9.31067e-19
-9.38294e-19
-9.41989e-19
-9.44332e-19
-9.44592e-19
-9.35243e-19
-9.35439e-19
-9.48803e-19
-9.4003e-19
-9.32273e-19
-9.37792e-19
-9.41206e-19
-9.39657e-19
-9.40509e-19
-9.35982e-19
-9.32842e-19
-9.32852e-19
-9.33163e-19
-9.37903e-19
-9.38543e-19
-9.42888e-19
-9.4059e-19
-9.33815e-19
-9.38059e-19
-9.37597e-19
-9.36694e-19
-9.35724e-19
-9.3612e-19
-9.37577e-19
-9.27725e-19
-9.205e-19
-9.22294e-19
-9.23804e-19
-9.25186e-19
-9.27587e-19
-9.278e-19
-9.31239e-19
-9.2389e-19
-9.12352e-19
-9.23327e-19
-9.32767e-19
-9.30345e-19
-9.17224e-19
-9.12945e-19
-9.19163e-19
-9.26764e-19
-9.21361e-19
-9.26307e-19
-9.2317e-19
-9.30477e-19
-9.25038e-19
-9.33774e-19
-9.31582e-19
-9.2931e-19
-9.31072e-19
-9.42916e-19
-9.31702e-19
-9.26555e-19
-9.29091e-19
-9.31835e-19
-9.32541e-19
-9.35757e-19
-9.25031e-19
-9.33928e-19
-9.41852e-19
-9.37226e-19
-9.36069e-19
-9.36218e-19
-9.36641e-19
-9.36683e-19
-9.37952e-19
-9.39809e-19
-9.4255e-19
-9.36676e-19
-9.36687e-19
-9.31581e-19
-9.33138e-19
-9.38382e-19
-9.35295e-19
-9.35343e-19
-9.361e-19
-9.37683e-19
-9.38733e-19
-9.36704e-19
-9.2356e-19
-9.32258e-19
-9.2596e-19
-9.25656e-19
-9.28779e-19
-9.31916e-19
-9.37346e-19
-9.34252e-19
-9.20446e-19
-9.26785e-19
-9.36494e-19
-9.39146e-19
-9.48591e-19
-9.52859e-19
-9.44925e-19
-9.35654e-19
-9.2876e-19
-9.33843e-19
-9.3673e-19
-9.44792e-19
-9.40444e-19
-9.38081e-19
-9.3856e-19
-9.38668e-19
-9.36697e-19
-9.33156e-19
-9.38738e-19
-9.35229e-19
-9.39627e-19
-9.33088e-19
-9.32094e-19
-9.38302e-19
-9.41464e-19
-9.43553e-19
-9.43227e-19
-9.45416e-19
-9.39588e-19
-9.39351e-19
-9.41171e-19
-9.41997e-19
-9.42533e-19
-9.42782e-19
-9.42451e-19
-9.47607e-19
-9.43794e-19
-9.38057e-19
-9.44683e-19
-9.43714e-19
-9.4064e-19
-9.43503e-19
-9.45823e-19
-9.40766e-19
-9.42805e-19
-9.41442e-19
-9.43435e-19
-9.4334e-19
-9.40416e-19
-9.38829e-19
-9.40723e-19
-9.2567e-19
-9.2472e-19
-9.22121e-19
-9.26148e-19
-9.28796e-19
-9.28885e-19
-9.27667e-19
-9.34797e-19
-9.30853e-19
-9.18492e-19
-9.2911e-19
-9.30108e-19
-9.27737e-19
-9.27346e-19
-9.35336e-19
-9.27318e-19
-9.25363e-19
-9.26494e-19
-9.30112e-19
-9.30669e-19
-9.35831e-19
-9.32712e-19
-9.35713e-19
-9.39526e-19
-9.35969e-19
-9.34055e-19
-9.43583e-19
-9.51688e-19
-9.39861e-19
-9.32172e-19
-9.34192e-19
-9.38381e-19
-9.3384e-19
-9.38136e-19
-9.47737e-19
-9.48717e-19
-9.37516e-19
-9.34375e-19
-9.41008e-19
-9.38586e-19
-9.41014e-19
-9.38953e-19
-9.42483e-19
-9.40136e-19
-9.42595e-19
-9.42667e-19
-9.39586e-19
-9.41281e-19
-9.42901e-19
-9.40743e-19
-9.4228e-19
-9.39671e-19
-9.38108e-19
-9.39218e-19
-9.40514e-19
-9.3968e-19
-9.41777e-19
-9.42726e-19
-9.43434e-19
-9.40092e-19
-9.42265e-19
-9.44028e-19
-9.38162e-19
-9.36306e-19
-9.45178e-19
-9.38978e-19
-9.4446e-19
-9.45003e-19
-9.3836e-19
-9.33157e-19
-9.33564e-19
-9.42425e-19
-9.52556e-19
-9.45971e-19
-9.45801e-19
-9.43449e-19
-9.44295e-19
-9.47332e-19
-9.4745e-19
-9.53353e-19
-9.49013e-19
-9.37312e-19
-9.32864e-19
-9.45816e-19
-9.44175e-19
-9.52397e-19
-9.55827e-19
-9.44787e-19
-9.38304e-19
-9.42157e-19
-9.47626e-19
-9.47859e-19
-9.37698e-19
-9.39541e-19
-9.40981e-19
-9.44506e-19
-9.38845e-19
-9.35315e-19
-9.44649e-19
-9.45248e-19
-9.39415e-19
-9.45171e-19
-9.45548e-19
-9.38603e-19
-9.39291e-19
-9.47301e-19
-9.47988e-19
-9.48163e-19
-9.43155e-19
-9.44197e-19
-9.43407e-19
-9.4316e-19
-9.45692e-19
-9.44534e-19
-9.42604e-19
-9.42243e-19
-9.42358e-19
-9.47102e-19
-9.44571e-19
-9.44211e-19
-9.41258e-19
-9.40705e-19
-9.41831e-19
-9.44628e-19
-9.43821e-19
-9.40751e-19
-9.42722e-19
-9.42015e-19
-9.42755e-19
-9.4268e-19
-9.43279e-19
-9.44291e-19
-9.43117e-19
-9.43462e-19
-9.42674e-19
-9.42999e-19
-9.43406e-19
-9.43886e-19
-9.43233e-19
-9.43297e-19
-9.4337e-19
-9.42992e-19
-9.42958e-19
-9.43119e-19
-9.42858e-19
-9.43283e-19
-9.43068e-19
-9.42833e-19
-9.43101e-19
-9.43259e-19
-9.43233e-19
-9.43088e-19
-9.43058e-19
-9.43006e-19
-9.42988e-19
-9.18452e-19
-9.27696e-19
-9.30184e-19
-9.27416e-19
-9.12734e-19
-9.1976e-19
-9.2151e-19
-9.29097e-19
-9.25086e-19
-9.2803e-19
-9.28401e-19
-9.26483e-19
-9.31414e-19
-9.36661e-19
-9.34414e-19
-9.35274e-19
-9.36874e-19
-9.31049e-19
-9.40378e-19
-9.4619e-19
-9.43165e-19
-9.40514e-19
-9.36522e-19
-9.35158e-19
-9.34935e-19
-9.34543e-19
-9.35597e-19
-9.41757e-19
-9.40931e-19
-9.35774e-19
-9.33294e-19
-9.38332e-19
-9.39788e-19
-9.43428e-19
-9.40115e-19
-9.42178e-19
-9.45129e-19
-9.43186e-19
-9.3925e-19
-9.36964e-19
-9.39168e-19
-9.41914e-19
-9.40778e-19
-9.40505e-19
-9.40188e-19
-9.42488e-19
-9.41789e-19
-9.42201e-19
-9.41458e-19
-9.3934e-19
-9.42217e-19
-9.43964e-19
-9.41618e-19
-9.40757e-19
-9.4274e-19
-9.41603e-19
-9.42518e-19
-9.40388e-19
-9.40957e-19
-9.39903e-19
-9.39348e-19
-9.40955e-19
-9.39534e-19
-9.41649e-19
-9.44931e-19
-9.42383e-19
-9.40833e-19
-9.41657e-19
-9.40953e-19
-9.42049e-19
-9.42439e-19
-9.42526e-19
-9.41274e-19
-9.40695e-19
-9.40909e-19
-9.41095e-19
-9.4093e-19
-9.41379e-19
-9.40932e-19
-9.41074e-19
-9.41634e-19
-9.41049e-19
-9.41409e-19
-9.41478e-19
-9.41515e-19
-9.41147e-19
-9.41001e-19
-9.41222e-19
-9.41101e-19
-9.41289e-19
-9.41335e-19
-9.41112e-19
-9.41318e-19
-9.41343e-19
-9.41323e-19
-9.42238e-19
-9.48022e-19
-9.52057e-19
-9.46386e-19
-9.46969e-19
-9.43829e-19
-9.44701e-19
-9.52638e-19
-9.50102e-19
-9.52271e-19
-9.40023e-19
-9.37556e-19
-9.55837e-19
-9.61136e-19
-9.53885e-19
-9.45185e-19
-9.49846e-19
-9.55598e-19
-9.47081e-19
-9.46663e-19
-9.47659e-19
-9.47824e-19
-9.46374e-19
-9.43809e-19
-9.45761e-19
-9.44434e-19
-9.39478e-19
-9.42075e-19
-9.4103e-19
-9.47963e-19
-9.46648e-19
-9.43189e-19
-9.44018e-19
-9.42666e-19
-9.47525e-19
-9.60667e-19
-9.52653e-19
-9.50446e-19
-9.5006e-19
-9.51746e-19
-9.49924e-19
-9.50473e-19
-9.52972e-19
-9.53036e-19
-9.51988e-19
-9.51053e-19
-9.4438e-19
-9.45804e-19
-9.49154e-19
-9.54941e-19
-9.49273e-19
-9.49239e-19
-9.51273e-19
-9.53814e-19
-9.51783e-19
-9.49621e-19
-9.51687e-19
-9.51408e-19
-9.49137e-19
-9.50025e-19
-9.46226e-19
-9.47124e-19
-9.47737e-19
-9.46597e-19
-9.48218e-19
-9.48325e-19
-9.48708e-19
-9.50325e-19
-9.49575e-19
-9.48664e-19
-9.47451e-19
-9.46932e-19
-9.47451e-19
-9.48031e-19
-9.48549e-19
-9.47449e-19
-9.47438e-19
-9.47735e-19
-9.47936e-19
-9.48266e-19
-9.47935e-19
-9.47412e-19
-9.4727e-19
-9.47805e-19
-9.47567e-19
-9.46946e-19
-9.46967e-19
-9.47129e-19
-9.47132e-19
-9.47318e-19
-9.47334e-19
-9.47184e-19
-9.47062e-19
-9.47212e-19
-9.47206e-19
-9.28544e-19
-9.33731e-19
-9.27561e-19
-9.39385e-19
-9.33447e-19
-9.31822e-19
-9.39842e-19
-9.41998e-19
-9.49384e-19
-9.47964e-19
-9.36729e-19
-9.38982e-19
-9.4516e-19
-9.44839e-19
-9.39135e-19
-9.44961e-19
-9.45275e-19
-9.41108e-19
-9.48004e-19
-9.44552e-19
-9.43811e-19
-9.3846e-19
-9.37854e-19
-9.34339e-19
-9.40171e-19
-9.4232e-19
-9.3513e-19
-9.37841e-19
-9.40775e-19
-9.48763e-19
-9.4124e-19
-9.39498e-19
-9.39209e-19
-9.47041e-19
-9.40785e-19
-9.37398e-19
-9.41983e-19
-9.44966e-19
-9.51262e-19
-9.43348e-19
-9.46004e-19
-9.46979e-19
-9.48244e-19
-9.46035e-19
-9.45331e-19
-9.48462e-19
-9.49767e-19
-9.48207e-19
-9.42767e-19
-9.44778e-19
-9.44801e-19
-9.4555e-19
-9.45475e-19
-9.47353e-19
-9.46477e-19
-9.4369e-19
-9.46913e-19
-9.44764e-19
-9.4525e-19
-9.47066e-19
-9.46654e-19
-9.43264e-19
-9.43435e-19
-9.44979e-19
-9.43831e-19
-9.44978e-19
-9.44802e-19
-9.43963e-19
-9.43288e-19
-9.44582e-19
-9.44208e-19
-9.43767e-19
-9.44602e-19
-9.4372e-19
-9.43963e-19
-9.44353e-19
-9.43855e-19
-9.43919e-19
-9.43047e-19
-9.43379e-19
-9.43411e-19
-9.43973e-19
-9.44055e-19
-9.43823e-19
-9.43822e-19
-9.4365e-19
-9.43669e-19
-9.43518e-19
-9.43544e-19
-9.43633e-19
-9.43712e-19
-9.4368e-19
-9.43582e-19
-9.43592e-19
-9.43646e-19
-9.62941e-19
-9.52633e-19
-9.45425e-19
-9.48116e-19
-9.37279e-19
-9.46199e-19
-9.48653e-19
-9.43561e-19
-9.52856e-19
-9.6118e-19
-9.51672e-19
-9.53332e-19
-9.58501e-19
-9.56905e-19
-9.56725e-19
-9.50028e-19
-9.53901e-19
-9.57977e-19
-9.47615e-19
-9.51528e-19
-9.49082e-19
-9.52665e-19
-9.58671e-19
-9.48615e-19
-9.55358e-19
-9.50313e-19
-9.44204e-19
-9.50653e-19
-9.52637e-19
-9.57121e-19
-9.55014e-19
-9.49625e-19
-9.4975e-19
-9.51474e-19
-9.54019e-19
-9.52651e-19
-9.52452e-19
-9.4883e-19
-9.52539e-19
-9.56571e-19
-9.45439e-19
-9.4584e-19
-9.50661e-19
-9.51976e-19
-9.50882e-19
-9.48938e-19
-9.51729e-19
-9.51329e-19
-9.48427e-19
-9.53285e-19
-9.55399e-19
-9.52833e-19
-9.50377e-19
-9.52996e-19
-9.54121e-19
-9.51709e-19
-9.49403e-19
-9.51214e-19
-9.52461e-19
-9.4999e-19
-9.47609e-19
-9.4852e-19
-9.4963e-19
-9.48849e-19
-9.48381e-19
-9.47773e-19
-9.47796e-19
-9.48408e-19
-9.4878e-19
-9.48247e-19
-9.47751e-19
-9.48766e-19
-9.49017e-19
-9.4773e-19
-9.48604e-19
-9.48166e-19
-9.48598e-19
-9.48681e-19
-9.48802e-19
-9.48342e-19
-9.48793e-19
-9.4837e-19
-9.48023e-19
-9.48253e-19
-9.48571e-19
-9.48178e-19
-9.47754e-19
-9.48125e-19
-9.4808e-19
-9.48101e-19
-9.48235e-19
-9.48258e-19
-9.48213e-19
-9.48198e-19
-9.4819e-19
-9.35756e-19
-9.40651e-19
-9.41195e-19
-9.36502e-19
-9.27816e-19
-9.35841e-19
-9.41948e-19
-9.39793e-19
-9.40601e-19
-9.48424e-19
-9.29142e-19
-9.3679e-19
-9.38601e-19
-9.38869e-19
-9.40764e-19
-9.38208e-19
-9.40181e-19
-9.45591e-19
-9.39152e-19
-9.44223e-19
-9.45317e-19
-9.42967e-19
-9.4613e-19
-9.45874e-19
-9.41118e-19
-9.44752e-19
-9.48107e-19
-9.49646e-19
-9.49434e-19
-9.42292e-19
-9.46102e-19
-9.48536e-19
-9.46682e-19
-9.40252e-19
-9.50431e-19
-9.56732e-19
-9.52213e-19
-9.43908e-19
-9.45674e-19
-9.49013e-19
-9.51532e-19
-9.50402e-19
-9.49922e-19
-9.46622e-19
-9.51921e-19
-9.49275e-19
-9.49321e-19
-9.52203e-19
-9.53035e-19
-9.50554e-19
-9.45131e-19
-9.49226e-19
-9.51128e-19
-9.50465e-19
-9.48324e-19
-9.4882e-19
-9.51365e-19
-9.48759e-19
-9.47634e-19
-9.4736e-19
-9.45194e-19
-9.44471e-19
-9.47633e-19
-9.47832e-19
-9.45719e-19
-9.45697e-19
-9.46256e-19
-9.45455e-19
-9.45775e-19
-9.4568e-19
-9.45272e-19
-9.45849e-19
-9.45638e-19
-9.46065e-19
-9.4578e-19
-9.45434e-19
-9.45201e-19
-9.45704e-19
-9.45638e-19
-9.45891e-19
-9.45061e-19
-9.45341e-19
-9.45771e-19
-9.45767e-19
-9.45412e-19
-9.45131e-19
-9.4537e-19
-9.45691e-19
-9.45855e-19
-9.45553e-19
-9.45416e-19
-9.45414e-19
-9.45497e-19
-9.45491e-19
-9.45475e-19
-9.62851e-19
-9.62062e-19
-9.63616e-19
-9.55515e-19
-9.48116e-19
-9.64102e-19
-9.58177e-19
-9.57303e-19
-9.63686e-19
-9.56567e-19
-9.52964e-19
-9.58347e-19
-9.54691e-19
-9.49363e-19
-9.58502e-19
-9.58806e-19
-9.59512e-19
-9.62473e-19
-9.58051e-19
-9.55465e-19
-9.63832e-19
-9.67999e-19
-9.61808e-19
-9.59174e-19
-9.53838e-19
-9.63841e-19
-9.63922e-19
-9.59828e-19
-9.58461e-19
-9.58129e-19
-9.56429e-19
-9.5297e-19
-9.56593e-19
-9.50531e-19
-9.57286e-19
-9.60382e-19
-9.53445e-19
-9.50888e-19
-9.53946e-19
-9.58737e-19
-9.62234e-19
-9.56986e-19
-9.51611e-19
-9.53922e-19
-9.58087e-19
-9.52892e-19
-9.57321e-19
-9.57129e-19
-9.55035e-19
-9.56078e-19
-9.56621e-19
-9.56185e-19
-9.55309e-19
-9.55271e-19
-9.54549e-19
-9.55084e-19
-9.5238e-19
-9.52945e-19
-9.54855e-19
-9.55469e-19
-9.54241e-19
-9.56237e-19
-9.54497e-19
-9.52178e-19
-9.50137e-19
-9.51921e-19
-9.52641e-19
-9.51871e-19
-9.5235e-19
-9.53295e-19
-9.52087e-19
-9.5209e-19
-9.51226e-19
-9.51653e-19
-9.51521e-19
-9.51178e-19
-9.51711e-19
-9.51996e-19
-9.52335e-19
-9.52126e-19
-9.52013e-19
-9.52011e-19
-9.52007e-19
-9.51773e-19
-9.513e-19
-9.51712e-19
-9.51869e-19
-9.51874e-19
-9.52142e-19
-9.51917e-19
-9.51913e-19
-9.51968e-19
-9.51901e-19
-9.51869e-19
-9.51876e-19
-9.2704e-19
-9.25996e-19
-9.34414e-19
-9.40572e-19
-9.4736e-19
-9.40242e-19
-9.43864e-19
-9.34591e-19
-9.42475e-19
-9.49793e-19
-9.41824e-19
-9.51612e-19
-9.46633e-19
-9.41633e-19
-9.54671e-19
-9.46545e-19
-9.51149e-19
-9.5373e-19
-9.4483e-19
-9.43336e-19
-9.36013e-19
-9.4433e-19
-9.40906e-19
-9.398e-19
-9.43177e-19
-9.40319e-19
-9.33384e-19
-9.46149e-19
-9.4242e-19
-9.47367e-19
-9.45282e-19
-9.42266e-19
-9.4065e-19
-9.47535e-19
-9.48987e-19
-9.55757e-19
-9.50155e-19
-9.52321e-19
-9.47146e-19
-9.47084e-19
-9.47546e-19
-9.47189e-19
-9.47035e-19
-9.51837e-19
-9.4844e-19
-9.44693e-19
-9.44207e-19
-9.46202e-19
-9.47739e-19
-9.47485e-19
-9.47151e-19
-9.46465e-19
-9.44667e-19
-9.47611e-19
-9.50409e-19
-9.49717e-19
-9.48989e-19
-9.47882e-19
-9.48406e-19
-9.4777e-19
-9.48659e-19
-9.50283e-19
-9.50037e-19
-9.50041e-19
-9.48248e-19
-9.47994e-19
-9.49169e-19
-9.50176e-19
-9.50231e-19
-9.49014e-19
-9.48398e-19
-9.50625e-19
-9.4959e-19
-9.48444e-19
-9.48945e-19
-9.49157e-19
-9.48936e-19
-9.48698e-19
-9.49331e-19
-9.4928e-19
-9.48256e-19
-9.48307e-19
-9.48671e-19
-9.48724e-19
-9.48626e-19
-9.48663e-19
-9.48676e-19
-9.48629e-19
-9.48563e-19
-9.48691e-19
-9.48653e-19
-9.48753e-19
-9.4866e-19
-9.48678e-19
-9.48652e-19
-9.47457e-19
-9.53836e-19
-9.53619e-19
-9.48046e-19
-9.47494e-19
-9.53986e-19
-9.60918e-19
-9.48143e-19
-9.48947e-19
-9.53046e-19
-9.51889e-19
-9.46712e-19
-9.43559e-19
-9.53702e-19
-9.498e-19
-9.49009e-19
-9.43402e-19
-9.40661e-19
-9.54114e-19
-9.55283e-19
-9.53496e-19
-9.52988e-19
-9.58972e-19
-9.55347e-19
-9.48137e-19
-9.49355e-19
-9.54021e-19
-9.6256e-19
-9.60126e-19
-9.59248e-19
-9.57359e-19
-9.56439e-19
-9.56864e-19
-9.5939e-19
-9.61333e-19
-9.5572e-19
-9.6289e-19
-9.56308e-19
-9.5479e-19
-9.59893e-19
-9.60048e-19
-9.60677e-19
-9.59842e-19
-9.62319e-19
-9.61152e-19
-9.52829e-19
-9.61695e-19
-9.63526e-19
-9.60341e-19
-9.58433e-19
-9.60173e-19
-9.59562e-19
-9.61137e-19
-9.58961e-19
-9.60359e-19
-9.59835e-19
-9.61959e-19
-9.61573e-19
-9.61381e-19
-9.60396e-19
-9.60016e-19
-9.59393e-19
-9.61993e-19
-9.62549e-19
-9.60822e-19
-9.62165e-19
-9.62127e-19
-9.61385e-19
-9.61599e-19
-9.61305e-19
-9.60913e-19
-9.59502e-19
-9.59484e-19
-9.59432e-19
-9.60355e-19
-9.6097e-19
-9.60795e-19
-9.60876e-19
-9.61392e-19
-9.61118e-19
-9.61301e-19
-9.60564e-19
-9.60586e-19
-9.60827e-19
-9.60686e-19
-9.6048e-19
-9.60215e-19
-9.60414e-19
-9.60535e-19
-9.60558e-19
-9.60463e-19
-9.60511e-19
-9.6057e-19
-9.60558e-19
-9.60528e-19
-9.36575e-19
-9.47723e-19
-9.45003e-19
-9.40791e-19
-9.39712e-19
-9.36982e-19
-9.44981e-19
-9.51233e-19
-9.52742e-19
-9.44326e-19
-9.47478e-19
-9.50287e-19
-9.49685e-19
-9.41631e-19
-9.40354e-19
-9.41731e-19
-9.45751e-19
-9.39765e-19
-9.45089e-19
-9.37711e-19
-9.3924e-19
-9.46292e-19
-9.48906e-19
-9.38707e-19
-9.40983e-19
-9.51156e-19
-9.54228e-19
-9.4456e-19
-9.41663e-19
-9.49443e-19
-9.49715e-19
-9.47882e-19
-9.43947e-19
-9.42108e-19
-9.46719e-19
-9.45881e-19
-9.46325e-19
-9.4829e-19
-9.45563e-19
-9.43085e-19
-9.46808e-19
-9.45326e-19
-9.48212e-19
-9.48668e-19
-9.5206e-19
-9.50394e-19
-9.48674e-19
-9.47437e-19
-9.53226e-19
-9.55164e-19
-9.52892e-19
-9.50868e-19
-9.54278e-19
-9.56509e-19
-9.58407e-19
-9.57083e-19
-9.56468e-19
-9.54204e-19
-9.54854e-19
-9.57289e-19
-9.54859e-19
-9.57261e-19
-9.56778e-19
-9.55407e-19
-9.56832e-19
-9.57002e-19
-9.56693e-19
-9.56279e-19
-9.56493e-19
-9.57056e-19
-9.56217e-19
-9.55382e-19
-9.56141e-19
-9.55851e-19
-9.55545e-19
-9.56184e-19
-9.56764e-19
-9.56723e-19
-9.55612e-19
-9.5555e-19
-9.55854e-19
-9.55385e-19
-9.55283e-19
-9.55565e-19
-9.55555e-19
-9.55219e-19
-9.55072e-19
-9.55139e-19
-9.55396e-19
-9.55471e-19
-9.55375e-19
-9.55125e-19
-9.55277e-19
-9.55367e-19
-9.55344e-19
-9.64273e-19
-9.66181e-19
-9.53164e-19
-9.54695e-19
-9.58842e-19
-9.57473e-19
-9.57562e-19
-9.66807e-19
-9.60876e-19
-9.5948e-19
-9.61629e-19
-9.68397e-19
-9.71385e-19
-9.6249e-19
-9.58187e-19
-9.57251e-19
-9.62504e-19
-9.64095e-19
-9.61306e-19
-9.66874e-19
-9.63912e-19
-9.62712e-19
-9.64475e-19
-9.64667e-19
-9.63896e-19
-9.6523e-19
-9.64265e-19
-9.72012e-19
-9.63501e-19
-9.60681e-19
-9.58084e-19
-9.64342e-19
-9.64151e-19
-9.68438e-19
-9.62123e-19
-9.62018e-19
-9.66457e-19
-9.58579e-19
-9.5901e-19
-9.64741e-19
-9.64503e-19
-9.63458e-19
-9.63925e-19
-9.65823e-19
-9.64733e-19
-9.65021e-19
-9.62769e-19
-9.63628e-19
-9.65465e-19
-9.65413e-19
-9.61646e-19
-9.65567e-19
-9.66106e-19
-9.61369e-19
-9.62294e-19
-9.63742e-19
-9.65918e-19
-9.62341e-19
-9.62511e-19
-9.67426e-19
-9.67832e-19
-9.63277e-19
-9.63004e-19
-9.64436e-19
-9.65602e-19
-9.64796e-19
-9.63626e-19
-9.64566e-19
-9.65195e-19
-9.64832e-19
-9.64602e-19
-9.63411e-19
-9.6494e-19
-9.65584e-19
-9.64411e-19
-9.64535e-19
-9.65262e-19
-9.64632e-19
-9.64018e-19
-9.64441e-19
-9.64782e-19
-9.64491e-19
-9.64493e-19
-9.64526e-19
-9.64353e-19
-9.64525e-19
-9.64515e-19
-9.64382e-19
-9.6434e-19
-9.64347e-19
-9.64333e-19
-9.64278e-19
-9.64313e-19
-9.64341e-19
-9.64363e-19
-9.59819e-19
-9.49142e-19
-9.53783e-19
-9.52428e-19
-9.60292e-19
-9.6094e-19
-9.60361e-19
-9.54119e-19
-9.63152e-19
-9.55701e-19
-9.49398e-19
-9.51409e-19
-9.5204e-19
-9.54381e-19
-9.53535e-19
-9.54618e-19
-9.52641e-19
-9.49526e-19
-9.55864e-19
-9.56347e-19
-9.57203e-19
-9.57502e-19
-9.55514e-19
-9.53499e-19
-9.48732e-19
-9.47733e-19
-9.42676e-19
-9.50068e-19
-9.54222e-19
-9.49248e-19
-9.49427e-19
-9.47477e-19
-9.47283e-19
-9.45001e-19
-9.48926e-19
-9.49669e-19
-9.51347e-19
-9.49295e-19
-9.47499e-19
-9.51767e-19
-9.5041e-19
-9.46973e-19
-9.4898e-19
-9.50808e-19
-9.51229e-19
-9.47263e-19
-9.5015e-19
-9.50819e-19
-9.51372e-19
-9.47017e-19
-9.49781e-19
-9.52914e-19
-9.50886e-19
-9.51105e-19
-9.51235e-19
-9.56155e-19
-9.55664e-19
-9.53272e-19
-9.52911e-19
-9.52062e-19
-9.51894e-19
-9.52165e-19
-9.52357e-19
-9.52963e-19
-9.54617e-19
-9.55622e-19
-9.54705e-19
-9.54626e-19
-9.54668e-19
-9.55137e-19
-9.55771e-19
-9.55252e-19
-9.54717e-19
-9.54764e-19
-9.55785e-19
-9.55334e-19
-9.55217e-19
-9.55887e-19
-9.5528e-19
-9.54994e-19
-9.54577e-19
-9.55257e-19
-9.55645e-19
-9.55195e-19
-9.55361e-19
-9.55612e-19
-9.55591e-19
-9.55669e-19
-9.55627e-19
-9.55478e-19
-9.55603e-19
-9.55626e-19
-9.55542e-19
-9.55522e-19
-9.55529e-19
-9.66755e-19
-9.55008e-19
-9.5321e-19
-9.58622e-19
-9.70118e-19
-9.68112e-19
-9.65272e-19
-9.61692e-19
-9.60739e-19
-9.53357e-19
-9.55752e-19
-9.54019e-19
-9.56507e-19
-9.51806e-19
-9.55392e-19
-9.56021e-19
-9.56641e-19
-9.54347e-19
-9.54051e-19
-9.52731e-19
-9.57012e-19
-9.52005e-19
-9.51118e-19
-9.5462e-19
-9.54976e-19
-9.52345e-19
-9.50673e-19
-9.51652e-19
-9.53045e-19
-9.55619e-19
-9.58181e-19
-9.57675e-19
-9.52641e-19
-9.5195e-19
-9.57346e-19
-9.56818e-19
-9.55281e-19
-9.59904e-19
-9.61776e-19
-9.59986e-19
-9.54956e-19
-9.57037e-19
-9.58482e-19
-9.57109e-19
-9.53639e-19
-9.56405e-19
-9.57381e-19
-9.58992e-19
-9.60353e-19
-9.58663e-19
-9.62057e-19
-9.62228e-19
-9.62198e-19
-9.61998e-19
-9.61885e-19
-9.62593e-19
-9.62156e-19
-9.61322e-19
-9.60334e-19
-9.62271e-19
-9.61759e-19
-9.64214e-19
-9.62343e-19
-9.61266e-19
-9.61117e-19
-9.62469e-19
-9.60824e-19
-9.61646e-19
-9.61573e-19
-9.63033e-19
-9.6372e-19
-9.62671e-19
-9.62048e-19
-9.62284e-19
-9.6241e-19
-9.62435e-19
-9.62717e-19
-9.62873e-19
-9.62375e-19
-9.62613e-19
-9.62285e-19
-9.62195e-19
-9.6258e-19
-9.62405e-19
-9.61898e-19
-9.62276e-19
-9.62528e-19
-9.62025e-19
-9.62175e-19
-9.62238e-19
-9.62244e-19
-9.62322e-19
-9.62232e-19
-9.62288e-19
-9.62268e-19
-9.5721e-19
-9.53848e-19
-9.50315e-19
-9.50031e-19
-9.5041e-19
-9.59484e-19
-9.50023e-19
-9.48152e-19
-9.4921e-19
-9.54205e-19
-9.50282e-19
-9.56815e-19
-9.52674e-19
-9.46242e-19
-9.47667e-19
-9.56806e-19
-9.56817e-19
-9.55846e-19
-9.57739e-19
-9.52934e-19
-9.53262e-19
-9.51122e-19
-9.57143e-19
-9.54584e-19
-9.53366e-19
-9.49918e-19
-9.48114e-19
-9.5087e-19
-9.54338e-19
-9.57741e-19
-9.48191e-19
-9.49311e-19
-9.52215e-19
-9.52339e-19
-9.51277e-19
-9.52329e-19
-9.51446e-19
-9.47985e-19
-9.4867e-19
-9.48856e-19
-9.54332e-19
-9.57012e-19
-9.50793e-19
-9.49718e-19
-9.52672e-19
-9.50905e-19
-9.50907e-19
-9.51725e-19
-9.51573e-19
-9.53303e-19
-9.5327e-19
-9.55861e-19
-9.52519e-19
-9.52007e-19
-9.50673e-19
-9.51732e-19
-9.54355e-19
-9.56149e-19
-9.55583e-19
-9.55105e-19
-9.55779e-19
-9.54737e-19
-9.5478e-19
-9.54487e-19
-9.54449e-19
-9.54833e-19
-9.55869e-19
-9.56071e-19
-9.55496e-19
-9.55069e-19
-9.55912e-19
-9.56174e-19
-9.56676e-19
-9.56998e-19
-9.56773e-19
-9.57205e-19
-9.57306e-19
-9.56945e-19
-9.57075e-19
-9.57545e-19
-9.57439e-19
-9.57649e-19
-9.57667e-19
-9.57495e-19
-9.57808e-19
-9.57868e-19
-9.57735e-19
-9.57809e-19
-9.57666e-19
-9.57729e-19
-9.57827e-19
-9.57719e-19
-9.57773e-19
-9.57845e-19
-9.5791e-19
-9.55339e-19
-9.62123e-19
-9.65304e-19
-9.67567e-19
-9.61039e-19
-9.56045e-19
-9.58916e-19
-9.59531e-19
-9.63659e-19
-9.65805e-19
-9.62664e-19
-9.61968e-19
-9.66749e-19
-9.70852e-19
-9.65272e-19
-9.59218e-19
-9.56342e-19
-9.61399e-19
-9.59782e-19
-9.62139e-19
-9.61874e-19
-9.5814e-19
-9.56927e-19
-9.56691e-19
-9.57851e-19
-9.60411e-19
-9.58362e-19
-9.5816e-19
-9.56383e-19
-9.57126e-19
-9.63151e-19
-9.59729e-19
-9.56907e-19
-9.59227e-19
-9.63123e-19
-9.60424e-19
-9.59364e-19
-9.57007e-19
-9.57619e-19
-9.60393e-19
-9.58481e-19
-9.59972e-19
-9.6179e-19
-9.56588e-19
-9.59721e-19
-9.59766e-19
-9.58677e-19
-9.62108e-19
-9.64388e-19
-9.61889e-19
-9.62829e-19
-9.64085e-19
-9.63521e-19
-9.61748e-19
-9.63619e-19
-9.62328e-19
-9.64009e-19
-9.6408e-19
-9.61597e-19
-9.59107e-19
-9.60893e-19
-9.62762e-19
-9.61085e-19
-9.60665e-19
-9.60856e-19
-9.62263e-19
-9.62599e-19
-9.62187e-19
-9.61737e-19
-9.62842e-19
-9.63329e-19
-9.62366e-19
-9.61824e-19
-9.61866e-19
-9.61995e-19
-9.61959e-19
-9.61424e-19
-9.62036e-19
-9.62662e-19
-9.62613e-19
-9.62124e-19
-9.62184e-19
-9.62115e-19
-9.62088e-19
-9.61879e-19
-9.61817e-19
-9.61944e-19
-9.62063e-19
-9.61968e-19
-9.61959e-19
-9.61959e-19
-9.61941e-19
-9.61828e-19
-9.618e-19
-9.6186e-19
-9.5454e-19
-9.64435e-19
-9.6464e-19
-9.51846e-19
-9.56441e-19
-9.64178e-19
-9.65071e-19
-9.60466e-19
-9.61512e-19
-9.66881e-19
-9.58038e-19
-9.5437e-19
-9.51392e-19
-9.50026e-19
-9.49151e-19
-9.53849e-19
-9.54241e-19
-9.51469e-19
-9.51255e-19
-9.50716e-19
-9.48913e-19
-9.4864e-19
-9.51253e-19
-9.52703e-19
-9.51739e-19
-9.53632e-19
-9.55735e-19
-9.55188e-19
-9.54981e-19
-9.52227e-19
-9.54234e-19
-9.50874e-19
-9.49772e-19
-9.52804e-19
-9.5188e-19
-9.50074e-19
-9.49977e-19
-9.50839e-19
-9.52271e-19
-9.51465e-19
-9.58046e-19
-9.58806e-19
-9.58564e-19
-9.55727e-19
-9.55433e-19
-9.54458e-19
-9.55855e-19
-9.5628e-19
-9.58369e-19
-9.58664e-19
-9.57815e-19
-9.58298e-19
-9.58461e-19
-9.547e-19
-9.5679e-19
-9.56314e-19
-9.55798e-19
-9.56171e-19
-9.58304e-19
-9.57149e-19
-9.57078e-19
-9.57398e-19
-9.57983e-19
-9.57847e-19
-9.57031e-19
-9.56677e-19
-9.57547e-19
-9.57595e-19
-9.57044e-19
-9.57444e-19
-9.5689e-19
-9.56919e-19
-9.56781e-19
-9.56425e-19
-9.56833e-19
-9.56775e-19
-9.5705e-19
-9.56908e-19
-9.56834e-19
-9.57186e-19
-9.56989e-19
-9.56744e-19
-9.56784e-19
-9.56903e-19
-9.56872e-19
-9.56931e-19
-9.56988e-19
-9.57059e-19
-9.57077e-19
-9.57034e-19
-9.56936e-19
-9.56919e-19
-9.56936e-19
-9.56957e-19
-9.56981e-19
-9.60877e-19
-9.60907e-19
-9.57057e-19
-9.58849e-19
-9.66363e-19
-9.64628e-19
-9.6174e-19
-9.60978e-19
-9.63409e-19
-9.69116e-19
-9.72645e-19
-9.7428e-19
-9.71043e-19
-9.68272e-19
-9.7099e-19
-9.66931e-19
-9.68094e-19
-9.73352e-19
-9.70185e-19
-9.6744e-19
-9.67858e-19
-9.69023e-19
-9.66793e-19
-9.65674e-19
-9.6827e-19
-9.67118e-19
-9.61006e-19
-9.62277e-19
-9.6361e-19
-9.64223e-19
-9.64593e-19
-9.61114e-19
-9.59394e-19
-9.6207e-19
-9.62165e-19
-9.61992e-19
-9.59361e-19
-9.64053e-19
-9.67352e-19
-9.63074e-19
-9.60342e-19
-9.58709e-19
-9.60727e-19
-9.62728e-19
-9.64453e-19
-9.63752e-19
-9.64061e-19
-9.65034e-19
-9.62286e-19
-9.61916e-19
-9.63536e-19
-9.63263e-19
-9.62509e-19
-9.61291e-19
-9.63431e-19
-9.64571e-19
-9.6381e-19
-9.63116e-19
-9.62024e-19
-9.62645e-19
-9.62304e-19
-9.61681e-19
-9.60998e-19
-9.62217e-19
-9.62181e-19
-9.61712e-19
-9.6101e-19
-9.60952e-19
-9.61903e-19
-9.6117e-19
-9.62017e-19
-9.62485e-19
-9.62321e-19
-9.61581e-19
-9.60958e-19
-9.61116e-19
-9.61225e-19
-9.61952e-19
-9.62318e-19
-9.6182e-19
-9.61529e-19
-9.61533e-19
-9.61388e-19
-9.61616e-19
-9.61826e-19
-9.61661e-19
-9.6148e-19
-9.6143e-19
-9.61674e-19
-9.61634e-19
-9.61533e-19
-9.61506e-19
-9.61508e-19
-9.6152e-19
-9.61519e-19
-9.71508e-19
-9.69032e-19
-9.68113e-19
-9.73447e-19
-9.68441e-19
-9.66855e-19
-9.68581e-19
-9.71489e-19
-9.65579e-19
-9.67312e-19
-9.68863e-19
-9.65947e-19
-9.62845e-19
-9.65727e-19
-9.67298e-19
-9.68639e-19
-9.69837e-19
-9.64047e-19
-9.59049e-19
-9.60477e-19
-9.62573e-19
-9.64003e-19
-9.67132e-19
-9.66197e-19
-9.62156e-19
-9.60679e-19
-9.60826e-19
-9.61345e-19
-9.59313e-19
-9.57193e-19
-9.58614e-19
-9.55911e-19
-9.54705e-19
-9.56492e-19
-9.59289e-19
-9.60139e-19
-9.59835e-19
-9.62735e-19
-9.6309e-19
-9.59221e-19
-9.56407e-19
-9.58942e-19
-9.60407e-19
-9.56646e-19
-9.58568e-19
-9.57896e-19
-9.58368e-19
-9.58162e-19
-9.58472e-19
-9.59003e-19
-9.59759e-19
-9.59091e-19
-9.58923e-19
-9.6001e-19
-9.60532e-19
-9.60517e-19
-9.59991e-19
-9.60153e-19
-9.60973e-19
-9.61981e-19
-9.61769e-19
-9.59884e-19
-9.60584e-19
-9.60273e-19
-9.60055e-19
-9.60845e-19
-9.5902e-19
-9.59397e-19
-9.58507e-19
-9.58191e-19
-9.59254e-19
-9.59234e-19
-9.58991e-19
-9.58882e-19
-9.5877e-19
-9.5847e-19
-9.58408e-19
-9.58671e-19
-9.58883e-19
-9.58826e-19
-9.58553e-19
-9.58353e-19
-9.58444e-19
-9.58483e-19
-9.58237e-19
-9.58219e-19
-9.58154e-19
-9.58297e-19
-9.5828e-19
-9.58121e-19
-9.58117e-19
-9.58168e-19
-9.58184e-19
-9.58187e-19
-9.58181e-19
-9.66915e-19
-9.62766e-19
-9.66866e-19
-9.70808e-19
-9.7825e-19
-9.77842e-19
-9.72066e-19
-9.73248e-19
-9.7779e-19
-9.76011e-19
-9.75622e-19
-9.7332e-19
-9.77568e-19
-9.81071e-19
-9.79762e-19
-9.80848e-19
-9.77298e-19
-9.76996e-19
-9.78941e-19
-9.76542e-19
-9.73555e-19
-9.70788e-19
-9.64079e-19
-9.68386e-19
-9.7051e-19
-9.6882e-19
-9.67734e-19
-9.65079e-19
-9.70081e-19
-9.68557e-19
-9.67241e-19
-9.6689e-19
-9.66716e-19
-9.65541e-19
-9.62206e-19
-9.653e-19
-9.68801e-19
-9.64435e-19
-9.66569e-19
-9.63488e-19
-9.65311e-19
-9.66543e-19
-9.67209e-19
-9.66994e-19
-9.67857e-19
-9.69429e-19
-9.68046e-19
-9.6679e-19
-9.67976e-19
-9.66087e-19
-9.67099e-19
-9.67078e-19
-9.67671e-19
-9.67554e-19
-9.65992e-19
-9.65029e-19
-9.6511e-19
-9.64534e-19
-9.64248e-19
-9.63673e-19
-9.63362e-19
-9.6267e-19
-9.62937e-19
-9.63126e-19
-9.63338e-19
-9.62743e-19
-9.62368e-19
-9.62289e-19
-9.62651e-19
-9.61906e-19
-9.61135e-19
-9.61811e-19
-9.61485e-19
-9.6112e-19
-9.61627e-19
-9.61571e-19
-9.61477e-19
-9.61736e-19
-9.6176e-19
-9.61451e-19
-9.61546e-19
-9.61606e-19
-9.61241e-19
-9.61241e-19
-9.61417e-19
-9.61353e-19
-9.61378e-19
-9.6123e-19
-9.61194e-19
-9.61123e-19
-9.61137e-19
-9.61213e-19
-9.61229e-19
-9.61177e-19
-9.61171e-19
-9.64418e-19
-9.70753e-19
-9.71236e-19
-9.68371e-19
-9.67983e-19
-9.69691e-19
-9.72303e-19
-9.74904e-19
-9.69764e-19
-9.68958e-19
-9.69155e-19
-9.71459e-19
-9.69599e-19
-9.70847e-19
-9.68881e-19
-9.65751e-19
-9.68501e-19
-9.68169e-19
-9.60931e-19
-9.6695e-19
-9.70887e-19
-9.65466e-19
-9.57765e-19
-9.61809e-19
-9.63937e-19
-9.63765e-19
-9.63958e-19
-9.63231e-19
-9.64964e-19
-9.60418e-19
-9.60306e-19
-9.58502e-19
-9.60545e-19
-9.62867e-19
-9.64364e-19
-9.59118e-19
-9.594e-19
-9.62123e-19
-9.64087e-19
-9.60088e-19
-9.56808e-19
-9.56188e-19
-9.57777e-19
-9.56986e-19
-9.58983e-19
-9.59954e-19
-9.59934e-19
-9.59858e-19
-9.60327e-19
-9.59598e-19
-9.57722e-19
-9.5828e-19
-9.57707e-19
-9.58133e-19
-9.56212e-19
-9.57004e-19
-9.57968e-19
-9.57691e-19
-9.58301e-19
-9.56862e-19
-9.57911e-19
-9.59113e-19