/*--------------------------------*- C++ -*----------------------------------*\
  =========                 |
  \\      /  F ield         | OpenFOAM: The Open Source CFD Toolbox
   \\    /   O peration     | Website:  https://openfoam.org
    \\  /    A nd           | Version:  7
     \\/     M anipulation  |
\*---------------------------------------------------------------------------*/
FoamFile
{
    version     2.0;
    format      ascii;
    class       surfaceScalarField;
    location    "60000";
    object      phi;
}
// * * * * * * * * * * * * * * * * * * * * * * * * * * * * * * * * * * * * * //

dimensions      [0 3 -1 0 0 0 0];

internalField   nonuniform List<scalar> 
9474
(
1.9222e-24
-5.56266e-23
-7.55694e-25
-7.17219e-23
2.49663e-24
3.89291e-23
1.32134e-23
-1.22318e-24
3.06556e-24
2.08381e-24
-1.79266e-24
2.72146e-23
-3.25864e-24
3.72974e-23
-1.99653e-24
3.72005e-23
-3.41007e-25
1.07416e-22
7.46809e-24
1.45838e-22
7.62862e-24
2.99433e-24
1.29078e-23
7.38103e-23
1.05555e-23
-9.74731e-23
1.13597e-23
8.92928e-23
6.99494e-24
-1.54188e-23
9.45668e-24
2.09469e-23
4.21472e-24
-1.31955e-22
4.40131e-24
-2.06421e-23
1.97234e-24
-3.59084e-23
-3.94325e-25
-6.43714e-23
2.37225e-24
4.66974e-24
5.07954e-24
-4.14898e-24
1.43826e-24
-4.75362e-23
-5.41614e-25
-6.98433e-23
-2.71237e-24
4.07454e-24
-2.4782e-24
6.99635e-24
-2.72262e-24
-6.16021e-23
-4.13649e-24
-2.4312e-23
-7.70544e-24
-9.56297e-23
-8.96677e-24
2.79389e-24
-1.01942e-23
-3.51193e-23
-8.80497e-24
-4.74795e-23
-1.08263e-23
-3.68214e-23
-1.26073e-23
-7.83589e-23
-1.23785e-23
3.91757e-23
-7.90588e-24
4.2629e-23
-6.71203e-24
4.52951e-23
-3.16699e-23
-1.10075e-24
-1.66535e-23
1.8132e-24
-1.65023e-24
5.49726e-23
-3.12325e-24
1.92478e-23
-1.85146e-24
4.30723e-23
-1.06181e-25
1.08717e-22
6.90555e-24
1.05633e-22
7.50498e-24
3.27088e-23
1.25976e-23
7.75438e-23
1.06045e-23
-9.18654e-23
1.13517e-23
7.97661e-23
6.53089e-24
-4.21369e-23
9.27478e-24
3.68518e-23
4.27521e-24
-1.58239e-22
4.31029e-24
-2.48354e-23
1.95837e-24
-5.50416e-23
-3.94292e-25
-7.99853e-23
2.55504e-24
-7.98055e-24
4.71995e-24
-5.30355e-24
1.50627e-24
-4.42103e-23
-4.19777e-25
-6.97542e-23
-2.80763e-24
1.54988e-24
-2.53875e-24
5.50923e-24
-2.8137e-24
-5.59561e-23
-4.14754e-24
-2.76477e-23
-7.47488e-24
-6.77538e-23
-8.87777e-24
1.89548e-25
-1.01686e-23
-5.43123e-23
-8.7187e-24
-4.24815e-23
-1.06284e-23
-2.41781e-23
-1.21649e-23
-8.10695e-23
-1.21933e-23
2.65969e-23
-7.79355e-24
4.70172e-23
-6.7726e-24
5.51585e-23
-8.30939e-24
-2.37399e-23
-7.82304e-24
2.37837e-23
-5.54685e-24
2.66225e-23
-4.94543e-24
1.4301e-23
-5.25661e-24
-1.03916e-24
-7.68214e-24
-1.47528e-23
-7.16201e-24
3.59379e-23
1.24713e-23
-9.34677e-25
-2.46543e-23
1.85892e-24
-1.84958e-24
3.78305e-23
-3.03666e-24
2.25187e-23
-1.66769e-24
7.18029e-23
-1.69462e-25
1.0544e-22
6.53928e-24
7.71743e-23
7.24312e-24
4.36512e-23
1.22046e-23
8.24067e-23
1.08734e-23
-5.76172e-23
1.11298e-23
9.33018e-23
6.38082e-24
-4.51193e-23
9.00539e-24
5.4694e-23
4.4002e-24
-1.53237e-22
4.00319e-24
-5.23523e-23
2.0541e-24
-5.58823e-23
-4.89722e-25
-7.18721e-23
2.67746e-24
-5.04335e-24
4.44398e-24
-4.39781e-24
1.53309e-24
-4.20397e-23
-3.11433e-25
-5.54533e-23
-2.77419e-24
-1.21564e-23
-2.66868e-24
-2.59437e-24
-2.84959e-24
-5.76753e-23
-4.05621e-24
-2.38708e-23
-7.33378e-24
-6.82949e-23
-8.84163e-24
-7.55537e-25
-1.00301e-23
-5.7366e-23
-8.63154e-24
-3.78903e-23
-1.04397e-23
-1.88925e-23
-1.17895e-23
-6.11435e-23
-1.18908e-23
2.2598e-23
-7.76429e-24
3.78853e-23
-6.71714e-24
5.23412e-23
-8.24257e-24
-7.20398e-24
-7.68477e-24
2.38096e-23
-5.30941e-24
3.81744e-23
-5.09836e-24
-1.81395e-24
-5.0503e-24
2.31563e-23
-7.51013e-24
-2.8023e-23
-7.20307e-24
2.03028e-23
-2.54893e-24
5.90931e-24
-3.86895e-24
4.98817e-23
-8.99329e-24
-5.61047e-23
1.01717e-23
-4.51869e-25
-2.63879e-23
2.14696e-24
-1.90255e-24
2.01388e-23
-2.59876e-24
3.83698e-23
-1.76396e-24
6.63688e-23
-3.10516e-25
1.03215e-22
6.5188e-24
7.38767e-23
7.10824e-24
4.49896e-23
1.18456e-23
6.01656e-23
1.103e-23
-4.62594e-23
1.07034e-23
9.03352e-23
6.36651e-24
-3.87054e-23
8.46171e-24
5.27788e-23
4.62729e-24
-1.49712e-22
3.91309e-24
-5.05107e-23
2.04857e-24
-4.72373e-23
-5.78727e-25
-5.93003e-23
2.71064e-24
-7.97352e-24
4.08298e-24
5.13336e-24
1.73277e-24
-3.95114e-23
-3.41845e-25
-6.83373e-23
-2.77052e-24
-5.78371e-24
-2.74593e-24
-8.97705e-24
-2.81852e-24
-3.79181e-23
-3.99607e-24
-2.56032e-23
-7.21621e-24
-8.13352e-23
-8.77524e-24
1.76901e-23
-9.84363e-24
-6.13576e-23
-8.53153e-24
-4.31812e-23
-1.01533e-23
-1.44461e-23
-1.16003e-23
-6.64751e-23
-1.15002e-23
2.27825e-23
-7.73737e-24
3.18519e-23
-6.52934e-24
6.87227e-23
-8.20888e-24
-7.71688e-24
-7.59124e-24
1.46641e-23
-5.29953e-24
4.91731e-23
-4.88233e-24
-3.01635e-23
-5.26283e-24
8.52402e-24
-7.23548e-24
-1.74006e-23
-7.12161e-24
1.5245e-23
-2.12596e-24
-3.8527e-25
-3.94779e-24
4.21182e-23
-8.79966e-24
-5.66411e-23
-1.51291e-23
-4.1734e-25
-2.70213e-23
2.09327e-24
-1.84422e-24
3.62019e-24
-2.45136e-24
2.02963e-23
-1.79054e-24
7.39605e-23
-4.01541e-25
6.85063e-23
6.32174e-24
8.36179e-23
6.83892e-24
5.74029e-23
1.17429e-23
5.94502e-23
1.10008e-23
-1.47971e-23
1.05366e-23
8.60762e-23
6.31315e-24
-4.25859e-23
7.87206e-24
2.07042e-23
4.72892e-24
-1.26058e-22
3.89657e-24
-4.04047e-23
1.97439e-24
-5.9714e-23
-6.03992e-25
-6.6791e-23
2.88645e-24
2.09841e-23
3.76195e-24
-1.3174e-23
1.70729e-24
-2.81004e-23
-2.58414e-25
-6.6454e-23
-2.73292e-24
-3.45067e-24
-2.73188e-24
-1.56651e-23
-2.85134e-24
-2.41859e-23
-3.96396e-24
-6.15403e-24
-6.96215e-24
-8.03035e-23
-8.79626e-24
1.43593e-23
-9.66454e-24
-4.27177e-23
-8.41611e-24
-4.57055e-23
-9.91963e-24
-1.7805e-23
-1.13734e-23
-6.36893e-23
-1.11142e-23
1.86343e-23
-7.64752e-24
2.66978e-23
-6.41281e-24
6.10501e-23
-8.31693e-24
-2.06605e-23
-7.5328e-24
1.38368e-23
-5.19733e-24
2.75537e-23
-4.73939e-24
-3.33797e-23
-5.16796e-24
-5.84508e-24
-7.06537e-24
-8.90941e-24
-7.05056e-24
1.69832e-24
-1.99468e-24
1.15689e-23
-3.91138e-24
1.20461e-23
-8.54351e-24
-4.77248e-23
-3.67371e-23
-3.16969e-25
-3.10474e-23
2.09322e-24
-1.66465e-24
2.40779e-23
-2.30308e-24
1.97306e-23
-1.87359e-24
6.96414e-23
-3.15696e-25
8.20557e-23
5.92327e-24
6.08828e-23
6.68156e-24
3.92745e-23
1.16653e-23
6.69751e-23
1.07989e-23
-5.36008e-23
1.04543e-23
4.59847e-23
6.07139e-24
-3.40987e-23
7.60884e-24
1.0033e-23
4.66946e-24
-1.13707e-22
3.94972e-24
-3.48779e-23
2.03506e-24
-5.33247e-23
-5.31481e-25
-5.18708e-23
2.8171e-24
2.08864e-23
3.59613e-24
-1.31533e-23
1.57594e-24
-6.52914e-24
-1.23841e-25
-6.00586e-23
-2.77296e-24
1.55576e-24
-2.64666e-24
-1.95705e-23
-2.89129e-24
-3.14362e-23
-3.99432e-24
-9.60187e-24
-6.74725e-24
-7.31064e-23
-8.6753e-24
1.75731e-23
-9.57158e-24
-4.38214e-23
-8.30281e-24
-3.80623e-23
-9.56037e-24
-1.55883e-23
-1.12243e-23
-7.48975e-23
-1.07274e-23
2.51492e-23
-7.53975e-24
1.52387e-23
-6.36079e-24
6.50188e-23
-8.25736e-24
-1.46432e-23
-7.4663e-24
4.18611e-24
-5.28505e-24
2.43844e-23
-4.63766e-24
-3.37147e-23
-5.01581e-24
-2.0836e-23
-6.89891e-24
-9.91412e-24
-6.96308e-24
2.61904e-24
-1.92451e-24
2.71291e-23
-3.72012e-24
2.68664e-23
-8.38738e-24
-5.97621e-23
-2.86624e-23
-8.57543e-26
-3.68178e-23
2.20157e-24
-1.63737e-24
-4.167e-24
-2.02662e-24
1.92291e-23
-1.91115e-24
7.09253e-23
-4.22716e-25
7.92219e-23
5.56937e-24
5.75291e-23
6.66847e-24
2.94991e-23
1.13456e-23
7.2139e-23
1.07814e-23
-4.54208e-23
1.02582e-23
7.08156e-23
5.80739e-24
-2.49118e-23
7.37175e-24
6.35035e-24
4.58062e-24
-1.51546e-22
3.87936e-24
-3.30382e-23
2.10792e-24
-5.23131e-23
-5.43302e-25
-4.50438e-23
2.68222e-24
3.74932e-23
3.42671e-24
-4.66598e-24
1.43607e-24
-9.83393e-24
-5.17779e-26
-5.3869e-23
-2.80633e-24
-1.38979e-23
-2.55148e-24
-2.12358e-23
-2.93362e-24
-2.8875e-23
-3.96239e-24
-1.04869e-23
-6.58018e-24
-5.77725e-23
-8.54649e-24
2.01277e-23
-9.46275e-24
-3.57196e-23
-8.18599e-24
-2.07474e-23
-9.31842e-24
-3.26241e-23
-1.09476e-23
-6.73474e-23
-1.03649e-23
2.56439e-23
-7.38214e-24
3.30172e-24
-6.16835e-24
6.57764e-23
-8.28631e-24
-2.77091e-23
-7.34788e-24
1.328e-23
-5.05583e-24
1.48899e-23
-4.70232e-24
-3.16577e-23
-4.93903e-24
-2.25133e-23
-6.61903e-24
-4.94993e-24
-6.90726e-24
4.16995e-24
-1.68772e-24
1.69711e-23
-3.78517e-24
2.55664e-23
-8.08653e-24
-5.68526e-23
-1.03557e-23
-1.8209e-23
-4.46178e-23
4.87042e-26
-2.23333e-23
2.26989e-24
-1.54569e-24
1.75715e-24
-2.00807e-24
-3.63281e-24
-1.81471e-24
7.19513e-23
-6.14398e-25
7.33515e-23
5.36774e-24
4.63635e-23
6.67578e-24
3.70986e-23
1.08738e-23
8.52493e-23
1.07894e-23
-2.62244e-23
1.00202e-23
6.77692e-23
5.41277e-24
-4.67571e-23
7.01653e-24
4.62364e-24
4.57771e-24
-1.36908e-22
3.88053e-24
-2.21807e-23
2.06294e-24
-6.89218e-23
-4.63974e-25
-4.71022e-23
2.60652e-24
2.8822e-23
3.29682e-24
1.56682e-24
1.3771e-24
-1.42047e-23
-3.20235e-26
-5.6754e-23
-2.84716e-24
-2.82029e-23
-2.45688e-24
-2.09707e-24
-2.97327e-24
-4.66413e-23
-3.82727e-24
-9.11367e-24
-6.46737e-24
-6.05009e-23
-8.40277e-24
1.54502e-23
-9.2923e-24
-2.60966e-23
-8.19975e-24
-2.03153e-23
-8.96256e-24
-3.17307e-23
-1.07283e-23
-6.02843e-23
-1.00712e-23
5.43305e-23
-7.24548e-24
2.64994e-24
-6.24419e-24
5.554e-23
-8.17391e-24
-1.46844e-23
-7.3357e-24
3.12466e-24
-4.83687e-24
2.48249e-23
-4.63001e-24
-2.06213e-23
-4.73593e-24
-1.35821e-23
-6.38963e-24
-1.00829e-23
-6.70167e-24
1.20238e-23
-1.4703e-24
4.06288e-23
-3.67468e-24
7.64193e-24
-7.91069e-24
-9.17185e-23
-1.00674e-23
-1.78053e-23
-5.69365e-23
1.26523e-25
-1.85924e-23
2.26882e-24
-1.46822e-24
-1.63207e-24
-1.85882e-24
-2.80107e-23
-1.79407e-24
5.5127e-23
-8.02172e-25
8.08839e-23
5.25093e-24
6.45975e-23
6.5549e-24
3.37706e-23
1.06923e-23
8.37707e-23
1.06265e-23
-6.91343e-24
9.73006e-24
6.49169e-23
5.39833e-24
-6.70496e-23
6.5839e-24
-3.19995e-24
4.75957e-24
-1.27044e-22
3.66942e-24
-3.41718e-23
2.16063e-24
-6.89285e-23
-4.58041e-25
-4.90921e-23
2.4195e-24
2.79142e-23
3.20571e-24
3.66069e-24
1.20603e-24
-3.59935e-23
-5.75372e-26
-5.00325e-23
-2.74042e-24
-2.40233e-23
-2.5097e-24
2.23914e-24
-2.9537e-24
-3.38478e-23
-3.70337e-24
-4.60557e-24
-6.33907e-24
-6.3903e-23
-8.21312e-24
7.98079e-24
-9.16405e-24
-2.17127e-23
-8.15119e-24
-2.03657e-23
-8.60652e-24
-3.23611e-23
-1.0455e-23
-5.27438e-23
-9.86897e-24
4.47602e-23
-7.05885e-24
2.5289e-24
-6.11866e-24
7.09593e-23
-8.12438e-24
-2.99998e-23
-7.27136e-24
3.13047e-23
-4.66237e-24
4.90524e-23
-4.46859e-24
1.13486e-23
-4.66031e-24
-1.80723e-23
-6.19884e-24
-2.36436e-23
-6.6246e-24
2.43584e-23
-1.38493e-24
3.12242e-23
-3.60829e-24
-2.31586e-25
-7.63073e-24
-8.16785e-23
-9.94041e-24
-1.81615e-23
-5.97452e-23
9.23818e-26
4.96936e-24
2.15367e-24
-1.44617e-24
3.47467e-24
-1.59296e-24
-2.74398e-23
-1.92818e-24
5.51228e-23
-8.46629e-25
7.78696e-23
5.04103e-24
7.49088e-23
6.47364e-24
3.01873e-23
1.03826e-23
8.83632e-23
1.04641e-23
-5.99929e-24
9.29683e-24
4.85135e-23
5.08975e-24
-6.24462e-23
6.27972e-24
1.92101e-24
4.78321e-24
-9.50685e-23
3.74232e-24
-5.16064e-23
2.07355e-24
-6.34876e-23
-3.22985e-25
-3.88026e-23
2.22462e-24
6.88833e-24
3.13675e-24
1.87406e-23
1.05746e-24
-4.70653e-23
-3.44878e-26
-5.01037e-23
-2.65254e-24
-1.84232e-23
-2.46919e-24
1.53373e-24
-2.94409e-24
-4.00937e-23
-3.6196e-24
-6.27641e-24
-6.1925e-24
-6.53786e-23
-8.00935e-24
5.89878e-24
-9.04775e-24
-1.14042e-23
-8.13537e-24
-1.4868e-24
-8.24e-24
-1.73931e-23
-1.01921e-23
-4.49565e-23
-9.64762e-24
3.99968e-23
-6.869e-24
1.07989e-23
-6.14956e-24
5.96587e-23
-7.94077e-24
-2.93404e-23
-7.10009e-24
3.51329e-23
-4.60732e-24
6.2726e-23
-4.55354e-24
5.59435e-24
-4.50779e-24
6.21795e-25
-5.77141e-24
-8.79921e-24
-6.43127e-24
2.50613e-23
-1.38275e-24
5.25588e-23
-3.39079e-24
-2.3716e-25
-7.48056e-24
-9.02866e-23
-9.73549e-24
-2.50232e-23
1.08349e-25
1.51024e-23
2.12647e-24
-1.39163e-24
-2.6583e-24
-1.46458e-24
-3.47767e-23
-1.8448e-24
6.12563e-23
-9.14238e-25
5.87472e-23
4.87443e-24
5.50151e-23
6.29992e-24
2.66625e-23
1.00403e-23
9.18026e-23
1.04207e-23
-4.70076e-24
8.93613e-24
5.38205e-23
4.91862e-24
-5.83037e-23
6.08234e-24
1.19421e-24
4.61025e-24
-7.88749e-23
3.63531e-24
-4.9043e-23
2.07734e-24
-4.50095e-23
-3.23472e-25
-3.06581e-23
2.13398e-24
-1.58849e-23
2.94106e-24
1.13061e-23
9.48142e-25
-4.64741e-23
5.16724e-26
-3.25445e-23
-2.61625e-24
-1.13184e-23
-2.43693e-24
6.55027e-25
-2.96396e-24
-4.48145e-23
-3.54188e-24
-9.55611e-24
-6.02667e-24
-6.53049e-23
-7.77714e-24
2.97472e-24
-8.87244e-24
-2.80326e-23
-8.11564e-24
1.46412e-24
-7.87513e-24
-1.04283e-24
-9.99833e-24
-5.90706e-23
-9.38843e-24
2.50732e-23
-6.67482e-24
1.22821e-23
-6.1079e-24
7.05346e-23
-7.66761e-24
-2.17892e-23
-6.97147e-24
2.52166e-23
-4.52417e-24
5.62788e-23
-4.46579e-24
3.59534e-25
-4.43548e-24
1.11952e-23
-5.62315e-24
-2.52222e-24
-6.19172e-24
2.60245e-23
-1.54821e-24
2.99786e-23
-3.30137e-24
-1.31472e-24
-7.20359e-24
-9.70568e-23
-1.8415e-23
3.68986e-26
-1.93912e-24
1.89035e-24
-1.42471e-24
-1.51247e-23
-1.2312e-24
-2.59817e-23
-1.82854e-24
3.11907e-23
-1.04901e-24
7.9712e-23
4.73256e-24
7.22711e-23
6.23591e-24
4.58551e-23
9.56776e-24
8.83633e-23
1.024e-23
3.3678e-23
8.58629e-24
2.62909e-23
4.73489e-24
-3.88229e-23
6.01424e-24
2.30912e-24
4.37892e-24
-5.98715e-23
3.68242e-24
-5.43599e-23
1.9322e-24
-2.74619e-23
-3.35314e-25
-2.49129e-23
2.08422e-24
-2.74589e-23
2.86569e-24
2.79221e-23
7.87223e-25
-4.86336e-23
5.73887e-26
-1.41396e-23
-2.6365e-24
-2.56368e-23
-2.4185e-24
4.39622e-25
-2.94899e-24
-3.16329e-23
-3.48047e-24
-1.07694e-23
-5.83858e-24
-7.04988e-23
-7.60955e-24
-4.63686e-24
-8.59952e-24
-2.45867e-23
-8.00338e-24
1.45942e-23
-7.66832e-24
-4.95126e-24
-9.71328e-24
-7.32634e-23
-9.09e-24
1.2747e-23
-6.47443e-24
1.3438e-23
-6.08499e-24
5.6078e-23
-7.52905e-24
-1.5823e-23
-6.81878e-24
1.78301e-23
-4.46282e-24
2.91734e-23
-4.42593e-24
3.54617e-24
-4.32787e-24
-1.16287e-23
-5.57143e-24
-1.17909e-23
-6.04765e-24
1.06996e-23
-1.43317e-24
5.95968e-23
-3.24011e-24
-2.56243e-23
-6.86478e-24
-9.47545e-23
-3.593e-23
7.84278e-27
-1.12674e-23
1.82027e-24
-1.40059e-24
-1.29594e-23
-1.23482e-24
-2.53576e-23
-1.72405e-24
4.68667e-23
-1.13318e-24
5.07132e-23
4.63236e-24
8.98524e-23
6.06251e-24
2.92161e-23
9.31898e-24
9.23688e-23
9.93568e-24
3.37145e-23
8.31172e-24
2.85945e-23
4.46529e-24
-5.09763e-23
5.86903e-24
2.22341e-24
4.27286e-24
-5.63421e-23
3.70029e-24
-6.11602e-23
1.80279e-24
-2.89608e-23
-3.89914e-25
-2.5677e-23
1.97548e-24
-1.55429e-23
2.7534e-24
4.94692e-23
7.95185e-25
-6.62738e-23
-3.89852e-26
-1.87215e-23
-2.57252e-24
-2.39361e-23
-2.37616e-24
1.14418e-24
-2.96344e-24
-3.41065e-23
-3.41598e-24
-7.9115e-24
-5.63209e-24
-6.89626e-23
-7.44652e-24
-1.16235e-23
-8.29817e-24
-2.19467e-23
-7.93855e-24
1.19424e-23
-7.52227e-24
-5.12558e-25
-9.39532e-24
-6.8351e-23
-8.83261e-24
7.46339e-24
-6.33146e-24
1.36015e-23
-5.9926e-24
4.06063e-23
-7.37378e-24
-2.02748e-23
-6.71612e-24
2.28889e-24
-4.39792e-24
2.49752e-23
-4.41231e-24
-5.96309e-24
-4.17729e-24
-8.65451e-24
-5.35774e-24
-1.47211e-23
-5.82379e-24
1.83985e-23
-1.54754e-24
5.35571e-23
-3.06743e-24
-1.59058e-23
-6.68957e-24
-1.06648e-22
-2.22446e-23
-3.1688e-26
-2.5643e-23
1.8902e-24
-1.31049e-24
-1.75625e-23
-1.0649e-24
-1.01253e-23
-1.71254e-24
4.7691e-23
-1.06529e-24
5.08502e-23
4.44497e-24
8.54224e-23
5.90772e-24
4.12762e-23
9.18952e-24
1.11701e-22
9.58793e-24
3.35519e-23
8.01271e-24
3.03174e-23
4.38364e-24
-4.96237e-23
5.56762e-24
-7.41423e-24
4.04325e-24
-5.64526e-23
3.78013e-24
-7.01523e-23
1.66747e-24
-2.88147e-23
-3.65004e-25
-2.88546e-23
1.93462e-24
-1.36622e-23
2.50787e-24
3.46076e-23
7.6177e-25
-5.11946e-23
-7.74196e-26
-1.67905e-23
-2.51423e-24
-2.28182e-23
-2.33881e-24
1.20576e-24
-2.95616e-24
-2.77727e-23
-3.3851e-24
-9.65113e-24
-5.43746e-24
-6.89887e-23
-7.22848e-24
-2.51774e-23
-8.01148e-24
-1.94333e-23
-7.826e-24
1.5571e-23
-7.381e-24
-2.78036e-24
-9.15876e-24
-6.42167e-23
-8.45866e-24
4.54182e-24
-6.25426e-24
1.44659e-23
-5.88138e-24
4.52754e-23
-7.28186e-24
-1.90372e-23
-6.57818e-24
7.87946e-24
-4.3701e-24
7.01746e-24
-4.23566e-24
-3.5227e-24
-3.96023e-24
-6.20195e-24
-5.2244e-24
-1.78167e-23
-5.57821e-24
3.14395e-23
-1.6589e-24
4.9858e-23
-3.10187e-24
-2.0938e-23
-6.4469e-24
-1.02614e-22
-3.56578e-23
-1.57983e-25
-3.90415e-23
1.91393e-24
-1.10178e-24
-8.96768e-24
-9.67659e-25
-2.08781e-23
-1.69967e-24
4.97191e-23
-1.18855e-24
3.726e-23
4.28803e-24
8.09688e-23
5.90844e-24
5.30558e-23
8.7645e-24
1.08969e-22
9.23574e-24
2.57489e-23
7.73343e-24
3.12275e-23
4.26108e-24
-5.72329e-23
5.39141e-24
-8.35947e-25
3.84941e-24
-5.55277e-23
3.84994e-24
-5.56071e-23
1.51234e-24
-3.6234e-23
-3.29421e-25
-3.95808e-23
1.84721e-24
-1.84476e-23
2.34863e-24
2.21594e-23
6.94663e-25
-5.81225e-23
-1.25985e-25
-1.20626e-23
-2.4591e-24
-1.52781e-23
-2.24985e-24
-5.00363e-24
-2.97977e-24
-3.51327e-23
-3.33201e-24
-1.11973e-23
-5.26135e-24
-6.13904e-23
-6.9694e-24
-2.40107e-23
-7.75237e-24
-1.93029e-23
-7.71184e-24
1.90374e-23
-7.23001e-24
4.13599e-24
-8.86932e-24
-4.67503e-23
-8.15083e-24
1.02111e-23
-6.17091e-24
2.18449e-23
-5.77284e-24
6.19362e-23
-7.08174e-24
-1.06143e-23
-6.5793e-24
-8.20938e-25
-4.15318e-24
1.03448e-23
-4.14711e-24
-2.38437e-24
-3.97313e-24
2.27419e-24
-4.96642e-24
-1.41621e-23
-5.43726e-24
4.49919e-23
-1.7167e-24
4.63092e-23
-2.98533e-24
-1.15598e-23
-6.25068e-24
-9.74341e-23
-3.46226e-23
-4.61747e-26
-4.03006e-23
2.00313e-24
-1.16099e-24
-1.91256e-23
-7.9114e-25
-6.64523e-24
-1.76966e-24
4.03653e-23
-1.21143e-24
2.44397e-23
4.07292e-24
5.79304e-23
5.74614e-24
4.45182e-23
8.40367e-24
8.56894e-23
8.9925e-24
2.53819e-23
7.29657e-24
3.22239e-23
4.07615e-24
-4.46177e-23
5.32198e-24
-1.79154e-24
3.66559e-24
-6.75025e-23
3.8462e-24
-3.57599e-23
1.37216e-24
-4.92459e-23
-3.3774e-25
-3.0347e-23
1.72073e-24
-1.6559e-23
2.24951e-24
8.61986e-24
6.53608e-25
-5.65744e-23
-1.87234e-25
-1.34479e-23
-2.39874e-24
-9.01065e-24
-2.22687e-24
-4.46402e-24
-2.93435e-24
-3.47104e-23
-3.30407e-24
-1.72802e-23
-5.06879e-24
-4.72349e-23
-6.7447e-24
-2.24735e-23
-7.43561e-24
-1.32185e-23
-7.60039e-24
9.7122e-24
-7.02644e-24
9.34121e-24
-8.60386e-24
-4.4958e-23
-7.86682e-24
8.79998e-24
-6.00792e-24
2.16347e-23
-5.71552e-24
4.79627e-23
-7.0168e-24
-1.59272e-23
-6.38341e-24
-4.26495e-24
-4.00753e-24
2.71216e-23
-4.15932e-24
-8.75055e-24
-3.85214e-24
1.75952e-23
-4.75037e-24
-5.02704e-24
-5.20517e-24
5.86261e-23
-1.87448e-24
2.95474e-23
-2.84855e-24
-1.5766e-23
-5.95608e-24
-7.96029e-23
-4.00719e-23
-4.69066e-26
-4.13035e-23
2.0502e-24
-1.09e-24
-2.20394e-23
-6.98122e-25
-5.16437e-25
-1.82954e-24
1.97351e-23
-1.17299e-24
1.71473e-23
4.08625e-24
3.5133e-23
5.5496e-24
3.71116e-23
8.16946e-24
7.59124e-23
8.67951e-24
1.25011e-23
7.05973e-24
4.97296e-23
3.94969e-24
-3.86628e-23
5.0627e-24
-8.79148e-24
3.57254e-24
-5.87259e-23
3.73891e-24
-4.37383e-23
1.26753e-24
-4.79828e-23
-3.0193e-25
-1.46346e-23
1.54601e-24
-2.04812e-23
2.18004e-24
2.2307e-23
6.37052e-25
-5.52874e-23
-2.41458e-25
-1.33703e-23
-2.35319e-24
-1.00978e-23
-2.21631e-24
-1.09434e-23
-2.86844e-24
-2.09165e-23
-3.21623e-24
-1.69981e-23
-4.89844e-24
-4.59683e-23
-6.51839e-24
-2.15562e-23
-7.17571e-24
-6.97051e-24
-7.42807e-24
8.51591e-25
-6.85964e-24
8.01928e-24
-8.30548e-24
-5.09737e-23
-7.57357e-24
1.98407e-24
-5.92952e-24
2.12469e-23
-5.66704e-24
4.09764e-23
-6.84954e-24
-1.35282e-23
-6.26807e-24
-2.11123e-23
-3.9584e-24
4.23937e-23
-3.94672e-24
-3.82008e-24
-3.69517e-24
1.56659e-23
-4.55799e-24
-2.3843e-24
-5.2064e-24
4.21607e-23
-1.95688e-24
1.38114e-23
-2.70837e-24
-1.68331e-24
-5.93249e-24
-7.45412e-23
-2.72506e-23
-7.17155e-26
-5.20765e-23
2.09177e-24
-9.40666e-25
-2.55692e-23
-6.94024e-25
1.09095e-23
-1.81493e-24
-8.00658e-25
-1.16356e-24
2.7401e-24
4.02732e-24
3.06967e-23
5.31684e-24
3.52145e-23
7.89534e-24
7.76957e-23
8.51215e-24
2.38878e-23
6.70201e-24
5.14015e-23
3.68736e-24
-3.31405e-23
4.93834e-24
-1.09279e-23
3.36619e-24
-5.025e-23
3.69996e-24
-5.11953e-23
1.22209e-24
-5.80344e-23
-3.64377e-25
-1.89769e-23
1.47578e-24
-1.88315e-23
1.98101e-24
4.57042e-24
6.55794e-25
-4.80529e-23
-3.03296e-25
-1.76439e-23
-2.27594e-24
-1.3818e-25
-2.14818e-24
-1.0619e-23
-2.85946e-24
-2.69092e-23
-3.11921e-24
-1.42847e-23
-4.71489e-24
-4.38011e-23
-6.26849e-24
-2.00674e-23
-6.97557e-24
-1.24308e-23
-7.20462e-24
3.03045e-24
-6.71189e-24
5.49575e-24
-8.04474e-24
-5.08802e-23
-7.26626e-24
-5.12141e-24
-5.83377e-24
1.51433e-23
-5.54997e-24
5.99637e-23
-6.73877e-24
-1.07029e-23
-6.05697e-24
-2.50626e-23
-3.92013e-24
3.81004e-23
-3.82963e-24
1.8961e-23
-3.49817e-24
9.61683e-24
-4.3997e-24
-5.93004e-25
-5.14372e-24
4.28694e-23
-1.9347e-24
9.62929e-24
-2.70524e-24
-1.15248e-23
-5.73102e-24
-8.11286e-23
-2.80631e-23
-1.57635e-25
-4.85378e-23
2.12425e-24
-8.15743e-25
-2.37351e-23
-7.47716e-25
1.27734e-23
-1.82261e-24
-2.43587e-24
-1.23323e-24
-6.69601e-24
3.97303e-24
2.60184e-23
5.17512e-24
3.29552e-23
7.64375e-24
7.02045e-23
8.38046e-24
2.30843e-23
6.3683e-24
3.67487e-23
3.4072e-24
-2.71485e-23
4.83696e-24
-2.39304e-24
3.09077e-24
-4.78723e-23
3.68485e-24
-5.27556e-23
1.17143e-24
-6.63118e-23
-3.46555e-25
-2.5176e-23
1.37097e-24
-2.03361e-23
1.86433e-24
-9.9124e-24
5.94223e-25
-4.19774e-23
-3.29989e-25
-1.5419e-23
-2.22664e-24
2.46711e-24
-2.09705e-24
-9.49798e-24
-2.80329e-24
-2.78616e-23
-3.0304e-24
-6.20344e-24
-4.51217e-24
-4.24368e-23
-6.04649e-24
-1.80367e-23
-6.74392e-24
-6.00971e-24
-7.00498e-24
4.11998e-24
-6.54672e-24
3.5411e-24
-7.7646e-24
-4.42727e-23
-6.97239e-24
-1.30224e-23
-5.66797e-24
4.08114e-24
-5.50077e-24
5.39297e-23
-6.6575e-24
-1.87447e-24
-5.84212e-24
-2.87604e-23
-3.77056e-24
4.63981e-23
-3.83587e-24
1.76651e-23
-3.33962e-24
9.70154e-24
-4.22531e-24
3.54291e-25
-5.07303e-24
3.88789e-23
-1.96752e-24
1.02918e-23
-2.69597e-24
1.42946e-23
-5.53274e-24
-7.50255e-23
-2.92954e-23
-1.57923e-25
-4.96795e-23
2.19551e-24
-7.85413e-25
-2.1183e-23
-7.25025e-25
-3.58056e-24
-1.9395e-24
1.23932e-23
-1.17956e-24
1.92503e-23
3.89418e-24
1.66801e-23
5.04312e-24
2.07264e-23
7.35106e-24
6.66708e-23
8.06216e-24
1.01286e-23
6.1777e-24
2.86827e-23
3.25634e-24
-2.68331e-23
4.61592e-24
-4.93633e-24
2.93003e-24
-3.4996e-23
3.60852e-24
-4.53271e-23
1.11911e-24
-6.30161e-23
-3.34488e-25
-4.36576e-23
1.27187e-24
-3.05024e-23
1.74456e-24
-2.21871e-23
6.2252e-25
-4.08179e-23
-3.76042e-25
-1.86516e-23
-2.18949e-24
4.18224e-24
-2.06948e-24
-2.95963e-24
-2.71462e-24
-3.5399e-23
-2.95837e-24
-1.19612e-23
-4.30023e-24
-4.09738e-23
-5.8221e-24
-1.61095e-23
-6.50009e-24
3.28655e-25
-6.80915e-24
4.0445e-24
-6.32856e-24
-3.69241e-24
-7.53498e-24
-4.43089e-23
-6.71361e-24
-2.45894e-24
-5.467e-24
-8.88901e-25
-5.43918e-24
5.91278e-23
-6.56378e-24
1.18632e-23
-5.62686e-24
-2.1931e-23
-3.65215e-24
4.94655e-23
-3.81293e-24
5.7289e-24
-3.25842e-24
5.45925e-24
-4.11334e-24
1.49416e-24
-5.05079e-24
2.9002e-23
-1.87186e-24
2.19939e-23
-2.60566e-24
1.09908e-23
-5.38813e-24
-7.01955e-23
-8.03347e-24
-9.2428e-26
-4.57173e-23
2.27956e-24
-7.80751e-25
-1.89964e-23
-6.23239e-25
6.92894e-25
-1.93528e-24
-8.19999e-24
-1.20781e-24
1.5556e-23
3.76334e-24
1.12334e-23
4.92458e-24
3.53164e-23
7.07207e-24
5.94037e-23
7.79213e-24
4.33981e-24
5.92035e-24
8.16239e-24
3.0118e-24
-3.73752e-23
4.46832e-24
1.66585e-23
2.79696e-24
-3.54085e-23
3.49366e-24
-3.70971e-23
1.00597e-24
-6.02791e-23
-3.00763e-25
-2.58281e-23
1.10492e-24
-3.95678e-23
1.72477e-24
-1.2992e-23
6.30222e-25
-4.03402e-23
-4.43129e-25
-1.62108e-23
-2.09302e-24
1.07458e-23
-2.06014e-24
-2.38763e-24
-2.61066e-24
-3.61683e-23
-2.86673e-24
-8.66664e-24
-4.09229e-24
-2.97149e-23
-5.5727e-24
-1.31676e-23
-6.27854e-24
1.30166e-24
-6.63607e-24
3.69018e-24
-6.11645e-24
-5.21098e-24
-7.30668e-24
-4.77869e-23
-6.44844e-24
-7.98597e-24
-5.28338e-24
3.12685e-24
-5.31489e-24
5.51264e-23
-6.46811e-24
2.65623e-23
-5.38968e-24
-1.56258e-23
-3.5872e-24
5.31926e-23
-3.78425e-24
1.24712e-23
-3.14622e-24
5.69442e-24
-3.98275e-24
-8.97057e-24
-4.83775e-24
3.40208e-23
-1.91296e-24
2.29986e-23
-2.56752e-24
1.37413e-23
-5.20414e-24
-5.60001e-23
-6.55739e-24
-1.70132e-23
-2.62361e-23
-7.48112e-26
-3.18273e-23
2.33052e-24
-7.72158e-25
-1.34086e-23
-6.42426e-25
5.01032e-24
-1.87051e-24
-6.53514e-24
-1.33284e-24
1.23158e-23
3.66831e-24
1.62664e-23
4.75928e-24
3.22177e-23
6.77422e-24
4.70124e-23
7.57249e-24
6.05732e-24
5.73797e-24
9.66831e-24
2.89175e-24
-2.84048e-23
4.2863e-24
2.49213e-23
2.66577e-24
-3.57719e-23
3.38548e-24
-4.51368e-23
9.63403e-25
-6.24611e-23
-3.38812e-25
-4.16928e-23
1.06748e-24
-2.61568e-23
1.64015e-24
-4.28412e-24
6.67076e-25
-4.01865e-23
-4.53609e-25
-1.34723e-23
-2.06147e-24
6.50653e-25
-2.03033e-24
-2.24e-24
-2.50643e-24
-3.08089e-23
-2.73731e-24
-9.17525e-24
-3.90753e-24
-4.06693e-23
-5.3276e-24
-1.04716e-23
-6.0535e-24
-1.41939e-24
-6.43524e-24
3.01207e-24
-5.92267e-24
1.04882e-23
-7.06479e-24
-4.18146e-23
-6.15373e-24
-1.67004e-24
-5.12153e-24
-1.52546e-24
-5.20644e-24
5.074e-23
-6.40576e-24
2.37389e-23
-5.23622e-24
4.36036e-24
-3.49797e-24
5.26458e-23
-3.74656e-24
2.59404e-23
-3.05418e-24
4.39328e-24
-3.85014e-24
-1.2576e-23
-4.77401e-24
2.4235e-23
-1.97095e-24
2.50234e-23
-2.51676e-24
2.06753e-23
-5.0488e-24
-3.92598e-23
-6.23718e-24
-2.07484e-23
-2.2692e-23
-1.07814e-26
-1.74996e-23
2.36419e-24
-6.9131e-25
-3.3577e-23
-6.41888e-25
-1.13089e-23
-1.86886e-24
-2.50547e-23
-1.32042e-24
1.07106e-23
3.70677e-24
3.18517e-23
4.52306e-24
3.00674e-23
6.53133e-24
4.78086e-23
7.24919e-24
2.51578e-24
5.44484e-24
7.84276e-24
2.80075e-24
-3.24858e-23
4.11122e-24
2.3047e-23
2.49441e-24
-3.5877e-23
3.3129e-24
-4.31011e-23
8.65145e-25
-5.92381e-23
-3.1886e-25
-4.51919e-23
9.73625e-25
-2.96416e-23
1.47266e-24
4.19198e-26
7.08265e-25
-2.98116e-23
-4.92186e-25
-2.15671e-23
-1.98902e-24
1.21993e-23
-2.01478e-24
-2.49292e-24
-2.39238e-24
-2.76808e-23
-2.62536e-24
-1.559e-23
-3.67956e-24
-4.47191e-23
-5.10604e-24
-9.62314e-24
-5.80907e-24
-3.63199e-26
-6.21377e-24
-7.56749e-24
-5.74451e-24
1.08924e-23
-6.79109e-24
-3.96367e-23
-5.90688e-24
-1.93452e-24
-4.87942e-24
-6.10611e-24
-5.06521e-24
3.45046e-23
-6.24793e-24
1.54609e-23
-5.13449e-24
1.16031e-23
-3.37226e-24
5.52468e-23
-3.73745e-24
2.28551e-23
-2.97511e-24
1.28442e-23
-3.68197e-24
-1.28834e-23
-4.64484e-24
3.07193e-23
-1.9457e-24
1.2914e-23
-2.43396e-24
1.85947e-23
-4.92559e-24
-3.48003e-23
-5.99541e-24
-1.49766e-23
-3.8929e-23
-1.13543e-25
-5.02128e-24
2.35569e-24
-6.99131e-25
-4.98988e-23
-6.52815e-25
-5.52209e-24
-1.83472e-24
-2.3737e-23
-1.39123e-24
-4.04759e-26
3.57429e-24
2.67438e-23
4.39967e-24
2.46081e-23
6.29348e-24
4.55805e-23
6.98751e-24
8.91037e-25
5.22075e-24
5.16324e-24
2.72155e-24
-2.07466e-23
3.9318e-24
3.72118e-23
2.35501e-24
-3.72142e-23
3.20055e-24
-3.38305e-23
8.01772e-25
-6.03595e-23
-3.19325e-25
-5.12176e-23
9.10409e-25
-3.28008e-23
1.41986e-24
-8.82856e-25
6.54452e-25
-2.74105e-23
-4.52142e-25
-1.9131e-23
-1.96207e-24
9.35412e-27
-1.94653e-24
1.69947e-24
-2.31355e-24
-2.81897e-23
-2.50709e-24
-1.73609e-23
-3.43971e-24
-4.23413e-23
-4.87473e-24
-6.39363e-24
-5.57545e-24
7.81474e-25
-5.95439e-24
-1.36344e-23
-5.56167e-24
9.88962e-24
-6.51802e-24
-3.45798e-23
-5.68054e-24
-1.12257e-24
-4.71222e-24
-6.09846e-24
-4.93938e-24
3.63642e-23
-6.0491e-24
1.76842e-23
-4.999e-24
1.21419e-23
-3.29517e-24
5.23205e-23
-3.68875e-24
2.26765e-23
-2.95654e-24
6.86192e-24
-3.5277e-24
-2.44082e-23
-4.556e-24
1.26889e-23
-1.93803e-24
1.05241e-23
-2.41882e-24
1.91883e-23
-4.86427e-24
-3.03232e-23
-5.71417e-24
-6.93074e-24
-1.48026e-25
-8.68596e-24
2.31615e-24
-5.88979e-25
-3.62425e-23
-5.66518e-25
-4.40272e-24
-1.80794e-24
-3.83423e-23
-1.30033e-24
7.83869e-24
3.42935e-24
3.80688e-23
4.30864e-24
2.32257e-23
5.96892e-24
3.83688e-23
6.71151e-24
-1.15504e-24
5.04271e-24
2.33224e-24
2.62751e-24
-2.04037e-23
3.69487e-24
3.61628e-23
2.26562e-24
-2.8086e-23
3.0711e-24
-3.48986e-23
7.24423e-25
-5.68037e-23
-2.73626e-25
-5.62006e-23
8.30466e-25
-4.0321e-23
1.36097e-24
7.73677e-24
6.35531e-25
-2.19684e-23
-4.77778e-25
-2.72491e-23
-1.86658e-24
-3.92594e-24
-1.90945e-24
1.50632e-24
-2.20808e-24
-1.88672e-23
-2.37895e-24
-1.86458e-23
-3.19655e-24
-3.51885e-23
-4.64337e-24
-1.42183e-23
-5.36164e-24
-2.7607e-24
-5.68438e-24
-1.48776e-23
-5.36695e-24
8.93558e-24
-6.27153e-24
-3.12346e-23
-5.44925e-24
-1.02544e-24
-4.50645e-24
-4.75546e-24
-4.81408e-24
2.71228e-23
-5.8455e-24
1.65735e-23
-4.87764e-24
2.34622e-23
-3.24623e-24
5.4343e-23
-3.63218e-24
2.734e-23
-2.91074e-24
9.32896e-24
-3.39886e-24
-1.58018e-23
-4.41108e-24
1.5543e-23
-1.91959e-24
1.16e-23
-2.34765e-24
9.97471e-24
-4.77922e-24
-4.40459e-23
-6.11271e-24
-1.35286e-25
-1.52645e-25
2.3383e-24
-5.94473e-25
-3.63931e-23
-5.60778e-25
-1.25378e-23
-1.73831e-24
-3.23429e-23
-1.26626e-24
1.48641e-23
3.29793e-24
3.20201e-23
4.11818e-24
2.15496e-23
5.71355e-24
2.12343e-23
6.50552e-24
-3.1173e-24
4.9004e-24
5.91751e-25
2.53863e-24
-2.33392e-23
3.51673e-24
3.27629e-23
2.1606e-24
-3.02496e-23
2.91526e-24
-3.64835e-23
6.61621e-25
-4.34009e-23
-2.47256e-25
-4.62447e-23
8.25463e-25
-4.28478e-23
1.3118e-24
1.43131e-23
5.77755e-25
-2.03405e-23
-4.64102e-25
-1.90826e-23
-1.76488e-24
-3.83861e-24
-1.84072e-24
-1.64241e-24
-2.1218e-24
-1.5019e-23
-2.23118e-24
-1.95601e-23
-2.98643e-24
-3.27888e-23
-4.39837e-24
-1.41005e-23
-5.13845e-24
-1.72751e-24
-5.41008e-24
-4.69918e-24
-5.15276e-24
8.46927e-24
-6.02842e-24
-2.62042e-23
-5.25009e-24
3.34018e-25
-4.30991e-24
3.57112e-25
-4.71466e-24
1.85054e-23
-5.63909e-24
1.77288e-23
-4.76483e-24
1.73133e-23
-3.15987e-24
5.22276e-23
-3.58161e-24
2.86387e-23
-2.88561e-24
-1.68355e-24
-3.25963e-24
-1.69712e-23
-4.35699e-24
1.51496e-23
-1.90632e-24
5.07765e-25
-2.34936e-24
1.48175e-24
-4.61e-24
-3.29945e-23
-8.9548e-24
-2.04538e-25
-2.87286e-24
2.31956e-24
-5.54559e-25
-2.8162e-23
-5.13757e-25
-1.7344e-23
-1.67832e-24
-2.27669e-23
-1.18969e-24
2.80021e-23
3.2016e-24
2.68482e-23
3.92324e-24
1.93621e-23
5.46425e-24
2.151e-23
6.31064e-24
-5.86549e-24
4.72057e-24
1.13831e-23
2.51668e-24
-8.35958e-24
3.35975e-24
1.13766e-23
2.08442e-24
-3.60691e-23
2.81447e-24
-3.74397e-23
6.32191e-25
-3.98552e-23
-2.59268e-25
-4.61406e-23
8.34919e-25
-2.95889e-23
1.23624e-24
1.24987e-23
5.23664e-25
-1.91949e-23
-4.3316e-25
-1.24309e-23
-1.69664e-24
-3.64255e-24
-1.74858e-24
-1.92022e-24
-2.03222e-24
-1.37906e-23
-2.08058e-24
-2.01935e-23
-2.77988e-24
-2.76822e-23
-4.14989e-24
-1.56902e-23
-4.88179e-24
-6.99777e-25
-5.15063e-24
-5.65355e-24