/*--------------------------------*- C++ -*----------------------------------*\
  =========                 |
  \\      /  F ield         | OpenFOAM: The Open Source CFD Toolbox
   \\    /   O peration     | Website:  https://openfoam.org
    \\  /    A nd           | Version:  7
     \\/     M anipulation  |
\*---------------------------------------------------------------------------*/
FoamFile
{
    version     2.0;
    format      ascii;
    class       volVectorField;
    location    "148000";
    object      vorticity;
}
// * * * * * * * * * * * * * * * * * * * * * * * * * * * * * * * * * * * * * //

dimensions      [0 0 -1 0 0 0 0];

internalField   nonuniform List<vector> 
4850
(
(0.00598349 0.00405617 4.48975e-18)
(0.00513168 0.0047221 1.55277e-17)
(0.00615324 0.00422891 8.0215e-18)
(0.00531106 0.00488537 1.65474e-17)
(0.00535117 0.00465648 1.30652e-17)
(0.00632264 0.0044018 1.49282e-17)
(0.00549029 0.00504847 1.7306e-17)
(0.00553549 0.00481423 1.44587e-17)
(0.00557466 0.00458363 1.24175e-17)
(0.00561027 0.00435428 9.94673e-18)
(0.00649186 0.00457491 2.02567e-17)
(0.00566948 0.00521154 1.71804e-17)
(0.00571974 0.00497187 1.45353e-17)
(0.0057639 0.00473559 1.30047e-17)
(0.00580435 0.00450043 1.18512e-17)
(0.00584121 0.00426651 7.67993e-18)
(0.00666107 0.00474832 2.15537e-17)
(0.00584876 0.00537468 1.77108e-17)
(0.00590404 0.00512951 1.40875e-17)
(0.00595315 0.00488749 1.30179e-17)
(0.00599837 0.00464646 1.24049e-17)
(0.00603985 0.00440653 7.55535e-18)
(0.00607773 0.00416784 5.41248e-18)
(0.00683039 0.00492212 2.06397e-17)
(0.00602826 0.00553799 1.80248e-17)
(0.00608851 0.00528726 1.34748e-17)
(0.00614251 0.00503945 1.24111e-17)
(0.00619247 0.00479248 1.13553e-17)
(0.00623851 0.00454649 6.49698e-18)
(0.00628077 0.00430161 5.13474e-18)
(0.00631941 0.00405793 6.1684e-18)
(0.0063546 0.00381555 8.61229e-18)
(0.00699998 0.00509637 1.94256e-17)
(0.00620808 0.0057016 1.53691e-17)
(0.00627327 0.00544522 1.22616e-17)
(0.00633213 0.00519155 1.17819e-17)
(0.00638677 0.00493859 1.03497e-17)
(0.00643732 0.00468649 5.21583e-18)
(0.00648392 0.00443537 5.0957e-18)
(0.00652672 0.00418533 8.2059e-18)
(0.00656587 0.00393645 1.12301e-17)
(0.00660154 0.00368882 9.70603e-18)
(0.00716996 0.00527118 1.70215e-17)
(0.00638835 0.0058656 1.21934e-17)
(0.00645845 0.00560351 1.17364e-17)
(0.00652212 0.00534391 1.16316e-17)
(0.0065814 0.00508491 9.28239e-18)
(0.00663642 0.00482663 4.15323e-18)
(0.00668731 0.00456922 5.15363e-18)
(0.00673421 0.00431276 9.34813e-18)
(0.00677729 0.00405736 1.1765e-17)
(0.00681669 0.00380308 1.0717e-17)
(0.00685258 0.00354999 8.88016e-18)
(0.00688513 0.00329811 8.0459e-18)
(0.0069145 0.00304748 5.31089e-18)
(0.00694085 0.00279809 5.61485e-18)
(0.00734047 0.00544661 1.37021e-17)
(0.00656917 0.0060301 1.07899e-17)
(0.00664415 0.00576221 1.11819e-17)
(0.00671261 0.00549663 1.09223e-17)
(0.00677649 0.00523151 7.66945e-18)
(0.00683593 0.00496701 3.68501e-18)
(0.00689107 0.00470324 5.64765e-18)
(0.00694203 0.00444033 9.6391e-18)
(0.00698898 0.00417835 1.13567e-17)
(0.00703207 0.00391739 1.10293e-17)
(0.00707145 0.0036575 1.00802e-17)
(0.00710729 0.00339873 9.43684e-18)
(0.00713974 0.0031411 6.83111e-18)
(0.00716896 0.00288462 7.42882e-18)
(0.00719511 0.00262927 8.87441e-18)
(0.00721834 0.00237502 8.2742e-18)
(0.00723879 0.00212183 8.81434e-18)
(0.00725659 0.00186963 5.24934e-18)
(0.00751162 0.00562276 9.75247e-18)
(0.00675066 0.00619519 1.0271e-17)
(0.00683049 0.00592144 1.05223e-17)
(0.0069037 0.00564979 1.01941e-17)
(0.00697215 0.0053785 6.43415e-18)
(0.00703599 0.00510771 3.9454e-18)
(0.00709533 0.00483754 5.98871e-18)
(0.00715032 0.00456811 9.22084e-18)
(0.0072011 0.00429952 1.09006e-17)
(0.00724783 0.00403183 1.0863e-17)
(0.00729066 0.00376511 1.01386e-17)
(0.00732974 0.00349941 9.36597e-18)
(0.00736523 0.00323476 6.81537e-18)
(0.00739729 0.00297116 7.56005e-18)
(0.00742605 0.0027086 9.76818e-18)
(0.00745168 0.00244706 9.19916e-18)
(0.0074743 0.00218651 9.66955e-18)
(0.00749405 0.00192688 8.05147e-18)
(0.00751105 0.0016681 1.30571e-18)
(0.0075254 0.00141009 1.31189e-18)
(0.00768354 0.0057997 6.24617e-18)
(0.00693292 0.00636098 9.70443e-18)
(0.00701758 0.00608128 1.05616e-17)
(0.00709551 0.00580351 9.70187e-18)
(0.00716851 0.00552597 5.70838e-18)
(0.0072367 0.00524883 4.66839e-18)
(0.00730021 0.0049722 6.52614e-18)
(0.00735919 0.00469621 8.3032e-18)
(0.00741378 0.00442094 1.04166e-17)
(0.00746411 0.00414648 1.05513e-17)
(0.00751035 0.00387289 9.77839e-18)
(0.00755264 0.00360023 8.28035e-18)
(0.00759113 0.00332852 6.28962e-18)
(0.00762598 0.00305777 6.83058e-18)
(0.00765733 0.00278798 9.66768e-18)
(0.00768531 0.00251914 9.69516e-18)
(0.00771008 0.0022512 1.01662e-17)
(0.00773174 0.00198413 1.02463e-17)
(0.00775043 0.00171784 3.24703e-18)
(0.00776623 0.00145227 1.96942e-18)
(0.00777926 0.00118733 2.49381e-18)
(0.00778958 0.000922916 -5.16698e-19)
(0.00779726 0.000658919 1.76835e-18)
(0.00780236 0.000395227 1.33674e-20)
(0.00785634 0.00597752 5.18808e-18)
(0.00711605 0.00652756 8.83189e-18)
(0.00720553 0.00624184 1.0574e-17)
(0.00728816 0.00595786 8.84634e-18)
(0.00736567 0.00567402 5.38141e-18)
(0.00743819 0.00539046 6.06693e-18)
(0.00750585 0.00510731 6.81182e-18)
(0.00756878 0.00482469 6.64626e-18)
(0.00762713 0.0045427 9.61779e-18)
(0.00768104 0.00426142 1.04376e-17)
(0.00773065 0.00398092 9.93666e-18)
(0.00777611 0.00370125 7.8581e-18)
(0.00781757 0.00342244 6.22741e-18)
(0.00785518 0.00314451 5.73845e-18)
(0.00788908 0.00286747 8.19634e-18)
(0.0079194 0.0025913 9.60779e-18)
(0.00794628 0.00231597 1.03531e-17)
(0.00796983 0.00204143 1.12523e-17)
(0.00799018 0.00176762 3.37596e-18)
(0.00800741 0.00149448 1.55343e-18)
(0.00802164 0.00122193 3.64886e-18)
(0.00803292 0.000949862 1.28318e-18)
(0.00804133 0.000678187 4.13149e-18)
(0.0080469 0.000406796 1.83926e-18)
(0.00804968 0.000135578 -5.0036e-19)
(0.00804968 -0.000135583 1.66528e-17)
(0.0080469 -0.000406802 2.65626e-17)
(0.00804133 -0.000678193 1.67896e-17)
(0.00803292 -0.000949868 1.42908e-17)
(0.00803013 0.00615632 7.05584e-18)
(0.00730016 0.00669502 7.44348e-18)
(0.00739445 0.00640321 9.92227e-18)
(0.00748175 0.00611295 8.00099e-18)
(0.00756376 0.00582273 4.9817e-18)
(0.00764058 0.00553268 7.21671e-18)
(0.00771236 0.00524295 6.60911e-18)
(0.00777922 0.00495364 5.39643e-18)
(0.0078413 0.00466487 9.34326e-18)
(0.00789874 0.00437672 1.05611e-17)
(0.00795169 0.00408925 9.73445e-18)
(0.0080003 0.00380253 7.04616e-18)
(0.0080447 0.00351659 5.93748e-18)
(0.00808504 0.00323146 5.04188e-18)
(0.00812145 0.00294713 6.93513e-18)
(0.00815408 0.0026636 9.69985e-18)
(0.00818304 0.00238084 1.03968e-17)
(0.00820846 0.00209882 1.10248e-17)
(0.00823045 0.00181747 2.73638e-18)
(0.0082491 0.00153675 6.78916e-19)
(0.0082645 0.00125657 3.53973e-18)
(0.00827673 0.000976839 1.97012e-18)
(0.00828585 0.000697476 4.85521e-18)
(0.00829191 0.000418377 2.25291e-18)
(0.00829492 0.000139439 2.922e-19)
(0.00829492 -0.000139445 1.74318e-17)
(0.00829191 -0.000418383 2.83033e-17)
(0.00828585 -0.000697482 1.91913e-17)
(0.00827674 -0.000976845 1.72746e-17)
(0.00826451 -0.00125657 2.18453e-17)
(0.0082491 -0.00153676 1.74038e-17)
(0.00823045 -0.00181748 1.28466e-17)
(0.00820504 0.00633617 9.20412e-18)
(0.00748537 0.00686348 6.8824e-18)
(0.00758444 0.00656548 9.50714e-18)
(0.00767641 0.00626887 7.60834e-18)
(0.00776288 0.00597219 4.45709e-18)
(0.00784399 0.00567559 7.69623e-18)
(0.00791986 0.0053792 6.78916e-18)
(0.00799062 0.00508315 5.56556e-18)
(0.0080564 0.00478754 9.68199e-18)
(0.00811736 0.00449245 1.04008e-17)
(0.00817362 0.00419798 9.40751e-18)
(0.00822534 0.00390416 6.51506e-18)
(0.00827265 0.00361104 5.60025e-18)
(0.00831569 0.00331866 4.60083e-18)
(0.0083546 0.003027 5.57698e-18)
(0.0083895 0.00273608 9.11913e-18)
(0.00842053 0.00244587 1.00585e-17)
(0.00844779 0.00215634 9.63084e-18)
(0.0084714 0.00186743 2.43547e-18)
(0.00849144 0.0015791 9.06929e-19)
(0.00850801 0.00129127 3.17226e-18)
(0.00852118 0.00100387 2.29301e-18)
(0.008531 0.0007168 4.7821e-18)
(0.00853752 0.000429979 1.46888e-18)
(0.00854078 0.000143307 5.0956e-19)
(0.00854078 -0.000143314 1.75268e-17)
(0.00853752 -0.000429985 2.82652e-17)
(0.008531 -0.000716806 1.97339e-17)
(0.00852118 -0.00100387 1.83102e-17)
(0.00850801 -0.00129128 2.43307e-17)
(0.00849144 -0.00157911 2.1799e-17)
(0.0084714 -0.00186744 2.04929e-17)
(0.00844779 -0.00215634 3.5322e-17)
(0.00842053 -0.00244587 3.60524e-17)
(0.00838115 0.00651717 9.26268e-18)
(0.00767176 0.007033 7.77473e-18)
(0.00777562 0.00672874 8.50426e-18)
(0.00787223 0.0064257 6.75982e-18)
(0.00796316 0.00612249 5.28035e-18)
(0.00804853 0.00581926 8.82881e-18)
(0.00812847 0.00551615 7.38514e-18)
(0.0082031 0.00521328 6.07681e-18)
(0.00827257 0.00491077 9.85288e-18)
(0.00833702 0.0046087 9.9791e-18)
(0.00839657 0.00430716 9.07719e-18)
(0.00845137 0.00400619 6.13012e-18)
(0.00850156 0.00370585 5.4173e-18)
(0.00854728 0.00340616 4.95391e-18)
(0.00858866 0.00310715 4.77914e-18)
(0.00862582 0.0028088 8.0625e-18)
(0.00865888 0.0025111 8.90378e-18)
(0.00868797 0.00221403 8.19592e-18)
(0.00871317 0.00191753 3.29642e-18)
(0.0087346 0.00162157 1.55698e-18)
(0.00875232 0.00132607 2.1194e-18)
(0.00876641 0.00103096 2.33374e-18)
(0.00877692 0.000736172 4.98083e-18)
(0.00878391 0.000441609 1.22648e-18)
(0.0087874 0.000147185 8.11656e-19)
(0.0087874 -0.000147192 1.71261e-17)
(0.00878391 -0.000441615 2.62822e-17)
(0.00877692 -0.000736178 1.87145e-17)
(0.00876641 -0.00103097 1.80723e-17)
(0.00875232 -0.00132607 2.40012e-17)
(0.0087346 -0.00162157 2.20003e-17)
(0.00871317 -0.00191754 2.4137e-17)
(0.00868797 -0.00221403 4.90979e-17)
(0.00865888 -0.0025111 6.67126e-17)
(0.00855859 0.0066994 8.36754e-18)
(0.00785944 0.00720371 8.79098e-18)
(0.00796808 0.00689309 7.51225e-18)
(0.00806932 0.00658354 6.60322e-18)
(0.0081647 0.00627371 6.93504e-18)
(0.00825432 0.00596378 9.17507e-18)
(0.00833831 0.00565388 7.95959e-18)
(0.0084168 0.00534413 7.04222e-18)
(0.00848993 0.00503465 9.76661e-18)
(0.00855784 0.00472553 9.27475e-18)
(0.00862066 0.00441686 8.21741e-18)
(0.00867852 0.00410869 5.97729e-18)
(0.00873157 0.00380107 5.61515e-18)
(0.00877995 0.00349404 6.02866e-18)
(0.00882377 0.00318762 4.5913e-18)
(0.00886316 0.0028818 7.08089e-18)
(0.00889825 0.00257657 8.15367e-18)
(0.00892913 0.00227192 7.57056e-18)
(0.00895592 0.0019678 3.67569e-18)
(0.00897871 0.00166418 1.73363e-18)
(0.00899757 0.00136098 1.86233e-18)
(0.00901257 0.00105815 2.18291e-18)
(0.00902378 0.000755605 4.76741e-18)
(0.00903122 0.000453275 8.53407e-19)
(0.00903494 0.000151075 9.99696e-19)
(0.00903494 -0.000151081 1.66117e-17)
(0.00903122 -0.000453282 2.36431e-17)
(0.00902378 -0.000755611 1.70919e-17)
(0.00901257 -0.00105815 1.83799e-17)
(0.00899757 -0.00136098 2.31226e-17)
(0.00897871 -0.00166418 2.01899e-17)
(0.00895592 -0.00196781 2.30224e-17)
(0.00892913 -0.00227193 5.4422e-17)
(0.00889824 -0.00257658 9.23229e-17)
(0.00873746 0.00688295 8.51858e-18)
(0.00804851 0.00737568 9.93976e-18)
(0.00816193 0.00705861 7.35051e-18)
(0.0082678 0.00674246 7.0352e-18)
(0.00836761 0.00642595 8.43687e-18)
(0.00846146 0.00610924 9.23731e-18)
(0.00854949 0.00579246 8.46737e-18)
(0.00863183 0.00547576 7.64494e-18)
(0.00870861 0.00515925 9.67522e-18)
(0.00877996 0.00484301 8.48876e-18)
(0.00884602 0.00452715 7.42834e-18)
(0.00890693 0.00421172 6.11869e-18)
(0.00896282 0.00389677 6.1207e-18)
(0.00901382 0.00358234 7.04014e-18)
(0.00906007 0.00326846 4.7474e-18)
(0.00910168 0.00295512 6.148e-18)
(0.00913876 0.00264233 7.85203e-18)
(0.00917144 0.00233006 7.78106e-18)
(0.00919979 0.00201829 3.03714e-18)
(0.00922393 0.00170696 1.07107e-18)
(0.00924392 0.00139603 2.10031e-18)
(0.00925982 0.00108544 2.11552e-18)
(0.00927171 0.000775112 4.24227e-18)
(0.0092796 0.000464986 5.16549e-19)
(0.00928355 0.00015498 1.9354e-18)
(0.00928355 -0.000154986 1.58199e-17)
(0.0092796 -0.000464992 2.08008e-17)
(0.00927171 -0.000775118 1.57021e-17)
(0.00925982 -0.00108544 1.83646e-17)
(0.00924392 -0.00139603 2.18648e-17)
(0.00922393 -0.00170696 1.87301e-17)
(0.00919979 -0.00201829 2.38361e-17)
(0.00917143 -0.00233007 6.54042e-17)
(0.00913876 -0.00264233 1.28497e-16)
(0.00891786 0.00706791 9.7238e-18)
(0.00823909 0.007549 1.15253e-17)
(0.00835728 0.0072254 6.93525e-18)
(0.00846778 0.00690258 7.63227e-18)
(0.00857201 0.00657929 9.52509e-18)
(0.00867009 0.00625571 8.98523e-18)
(0.00876215 0.00593199 8.95959e-18)
(0.00884831 0.00560826 7.74699e-18)
(0.00892871 0.00528464 9.95432e-18)
(0.00900349 0.00496122 8.24025e-18)
(0.00907278 0.0046381 6.69127e-18)
(0.00913671 0.00431534 6.18176e-18)
(0.00919543 0.003993 6.30526e-18)
(0.00924905 0.00367112 7.62223e-18)
(0.0092977 0.00334973 5.13742e-18)
(0.0093415 0.00302883 5.20951e-18)
(0.00938057 0.00270842 7.4611e-18)
(0.00941502 0.00238849 7.42768e-18)
(0.00944493 0.00206901 1.8053e-18)
(0.0094704 0.00174994 7.66723e-19)
(0.00949151 0.00143124 3.16861e-18)
(0.00950831 0.00111285 2.01123e-18)
(0.00952086 0.000794707 3.24121e-18)
(0.00952921 0.000476749 5.54161e-19)
(0.00953338 0.000158902 2.9849e-18)
(0.00953338 -0.000158908 1.43628e-17)
(0.00952921 -0.000476755 1.83441e-17)
(0.00952086 -0.000794713 1.52685e-17)
(0.00950831 -0.00111285 1.83224e-17)
(0.00949151 -0.00143124 2.03911e-17)
(0.0094704 -0.00174994 1.66846e-17)
(0.00944493 -0.00206901 2.17636e-17)
(0.00941502 -0.00238849 4.97777e-17)
(0.00938057 -0.00270842 9.80417e-17)
(0.00909989 0.00725438 1.06254e-17)
(0.00843126 0.00772379 1.25255e-17)
(0.00855423 0.00739356 6.9014e-18)
(0.00866935 0.00706396 8.74312e-18)
(0.008778 0.00673381 9.97675e-18)
(0.0088803 0.00640329 9.00851e-18)
(0.00897638 0.00607254 8.84478e-18)
(0.00906636 0.0057417 7.32402e-18)
(0.00915038 0.00541089 1.02165e-17)
(0.00922857 0.00508022 7.4898e-18)
(0.00930107 0.00474977 6.1897e-18)
(0.00936802 0.00441962 6.97158e-18)
(0.00942953 0.00408983 6.31326e-18)
(0.00948575 0.00376044 7.86555e-18)
(0.00953679 0.00343147 4.95722e-18)
(0.00958278 0.00310295 4.38447e-18)
(0.00962382 0.00277487 6.94322e-18)
(0.00966002 0.00244723 6.23205e-18)
(0.00969148 0.00212 6.0478e-19)
(0.00971828 0.00179314 1.33215e-18)
(0.00974049 0.00146663 4.99201e-18)
(0.00975818 0.0011404 2.15457e-18)
(0.0097714 0.000814401 1.52227e-18)
(0.00978019 0.000488571 7.76338e-20)
(0.00978458 0.000162844 3.79347e-18)
(0.00978458 -0.000162849 1.32696e-17)
(0.00978019 -0.000488577 1.67299e-17)
(0.0097714 -0.000814407 1.48173e-17)
(0.00975818 -0.00114041 1.76379e-17)
(0.00974049 -0.00146663 1.91713e-17)
(0.00971827 -0.00179315 1.53751e-17)
(0.00969148 -0.00212 2.04181e-17)
(0.00966002 -0.00244723 4.11692e-17)
(0.00962382 -0.00277488 7.62172e-17)
(0.00928368 0.00744244 1.00703e-17)
(0.00862513 0.00790012 1.26932e-17)
(0.00875289 0.00756316 7.85832e-18)
(0.00887264 0.0072267 9.69696e-18)
(0.00898571 0.0068896 9.68323e-18)
(0.00909222 0.00655204 8.7763e-18)
(0.00919231 0.00621418 8.39439e-18)
(0.0092861 0.00587615 6.99943e-18)
(0.00937372 0.00553808 9.89728e-18)
(0.00945532 0.00520008 6.42491e-18)
(0.00953102 0.00486223 6.72205e-18)
(0.00960096 0.00452462 7.95695e-18)
(0.00966527 0.00418731 5.58936e-18)
(0.00972407 0.00385034 7.48949e-18)
(0.00977749 0.00351374 4.83014e-18)
(0.00982565 0.00317754 3.76275e-18)
(0.00986865 0.00284174 6.10426e-18)
(0.0099066 0.00250633 5.28478e-18)
(0.00993958 0.00217129 1.80923e-19)
(0.00996769 0.0018366 1.65173e-18)
(0.009991 0.00150223 5.92074e-18)
(0.0100096 0.00116811 2.33372e-18)
(0.0100235 0.000834208 7.75041e-19)
(0.0100327 0.00050046 3.72329e-19)
(0.0100373 0.000166807 4.34676e-18)
(0.0100373 -0.000166813 1.24518e-17)
(0.0100327 -0.000500466 1.53481e-17)
(0.0100235 -0.000834213 1.39773e-17)
(0.0100096 -0.00116812 1.67641e-17)
(0.009991 -0.00150223 1.78554e-17)
(0.00996769 -0.00183661 1.40668e-17)
(0.00993958 -0.0021713 1.87118e-17)
(0.00990659 -0.00250633 3.20249e-17)
(0.00986865 -0.00284174 4.97898e-17)
(0.0094693 0.00763219 1.00933e-17)
(0.00882081 0.00807809 1.23338e-17)
(0.00895337 0.00773431 9.1433e-18)
(0.00907774 0.00739089 1.00622e-17)
(0.00919523 0.00704675 9.53639e-18)
(0.00930596 0.00670207 8.54625e-18)
(0.00941006 0.006357 7.63861e-18)
(0.00950765 0.0060117 6.11526e-18)
(0.00959887 0.00566628 8.9457e-18)
(0.00968387 0.00532087 5.71438e-18)
(0.00976276 0.00497555 8.07834e-18)
(0.00983568 0.0046304 9.25085e-18)
(0.00990277 0.00428549 5.22913e-18)
(0.00996415 0.00394088 6.98761e-18)
(0.0100199 0.00359658 4.695e-18)
(0.0100702 0.00325264 2.8409e-18)
(0.0101152 0.00290905 4.95091e-18)
(0.0101549 0.00256582 4.36003e-18)
(0.0101894 0.00222292 2.62108e-19)
(0.0102188 0.00188034 2.02311e-18)
(0.0102432 0.00153805 6.54244e-18)
(0.0102626 0.001196 3.10766e-18)
(0.0102772 0.000854138 8.40756e-19)
(0.0102869 0.000512424 3.17687e-19)
(0.0102917 0.000170796 4.17339e-18)
(0.0102917 -0.000170802 1.2018e-17)
(0.0102869 -0.000512429 1.45828e-17)
(0.0102772 -0.000854144 1.29699e-17)
(0.0102626 -0.001196 1.52837e-17)
(0.0102432 -0.00153805 1.65702e-17)
(0.0102188 -0.00188035 1.32556e-17)
(0.0101894 -0.00222293 1.65575e-17)
(0.0101549 -0.00256582 2.45761e-17)
(0.0101152 -0.00290905 3.23901e-17)
(0.00965689 0.00782372 1.03971e-17)
(0.0090184 0.0082578 1.20012e-17)
(0.00915577 0.0079071 9.84509e-18)
(0.00928478 0.00755662 9.3201e-18)
(0.00940669 0.00720534 9.32436e-18)
(0.00952163 0.00685344 8.32242e-18)
(0.00962974 0.00650108 7.11463e-18)
(0.00973113 0.00614841 5.79586e-18)
(0.00982595 0.00579557 8.22801e-18)
(0.00991433 0.00544266 5.99195e-18)
(0.0099964 0.00508978 8.93423e-18)
(0.0100723 0.00473702 9.3411e-18)
(0.0101422 0.00438445 5.31539e-18)
(0.0102061 0.00403211 7.29834e-18)
(0.0102642 0.00368005 4.44475e-18)
(0.0103167 0.0033283 1.70057e-18)
(0.0103636 0.00297686 3.34561e-18)
(0.010405 0.00262574 3.87089e-18)
(0.010441 0.00227492 9.87719e-19)
(0.0104717 0.00192439 2.18195e-18)
(0.0104972 0.00157412 7.1476e-18)
(0.0105175 0.00122407 4.02071e-18)
(0.0105327 0.000874206 9.87802e-19)
(0.0105428 0.000524469 2.59305e-19)
(0.0105479 0.000174812 3.66468e-18)
(0.0105479 -0.000174817 1.13603e-17)
(0.0105428 -0.000524474 1.39394e-17)
(0.0105327 -0.000874211 1.25252e-17)
(0.0105175 -0.00122408 1.42671e-17)
(0.0104972 -0.00157413 1.53388e-17)
(0.0104717 -0.0019244 1.21038e-17)
(0.010441 -0.00227492 1.4405e-17)
(0.010405 -0.00262574 1.93547e-17)
(0.0103636 -0.00297686 2.21444e-17)
(0.00984653 0.00801714 9.58743e-18)
(0.00921801 0.00843934 1.12875e-17)
(0.00936019 0.00808161 9.75803e-18)
(0.00949385 0.00772398 8.88623e-18)
(0.0096202 0.00736546 9.28015e-18)
(0.00973936 0.00700624 8.2819e-18)
(0.00985147 0.0066465 6.90734e-18)
(0.00995666 0.00628638 5.36534e-18)
(0.0100551 0.00592601 6.89123e-18)
(0.0101468 0.00556551 6.66471e-18)
(0.0102321 0.005205 9.39072e-18)
(0.010311 0.00484454 9.08838e-18)
(0.0103836 0.00448422 5.81345e-18)
(0.0104501 0.00412409 7.6395e-18)
(0.0105106 0.00376419 4.086e-18)
(0.0105652 0.00340455 7.66228e-19)
(0.010614 0.00304519 1.91356e-18)
(0.0106571 0.00268612 4.28511e-18)
(0.0106946 0.00232731 1.72326e-18)
(0.0107266 0.00196877 1.96262e-18)
(0.0107532 0.00161047 7.7248e-18)
(0.0107744 0.00125236 4.34155e-18)
(0.0107902 0.000894421 1.01257e-18)
(0.0108008 0.000536602 2.73094e-19)
(0.010806 0.000178857 3.03374e-18)
(0.010806 -0.000178863 1.05681e-17)
(0.0108008 -0.000536608 1.29461e-17)
(0.0107902 -0.000894427 1.22083e-17)
(0.0107744 -0.00125237 1.37414e-17)
(0.0107532 -0.00161047 1.42374e-17)
(0.0107266 -0.00196878 1.09895e-17)
(0.0106946 -0.00232732 1.31578e-17)
(0.0106571 -0.00268612 1.62483e-17)
(0.010614 -0.00304519 1.55016e-17)
(0.0105652 -0.00340455 4.22127e-18)
(0.0100383 0.00821253 6.61087e-18)
(0.00941973 0.00862282 1.01064e-17)
(0.00956676 0.00825795 9.627e-18)
(0.00970507 0.00789305 8.66062e-18)
(0.00983586 0.00752719 9.85103e-18)
(0.00995925 0.00716056 8.29276e-18)
(0.0100754 0.00679333 6.67427e-18)
(0.0101844 0.00642566 5.07222e-18)
(0.0102864 0.00605768 6.20424e-18)
(0.0103815 0.00568951 7.57388e-18)
(0.0104699 0.00532126 8.75928e-18)
(0.0105518 0.00495303 8.57638e-18)
(0.0106272 0.00458488 6.91129e-18)
(0.0106962 0.00421687 7.51908e-18)
(0.0107591 0.00384905 3.57003e-18)
(0.0108158 0.00348145 2.61511e-19)
(0.0108665 0.0031141 1.25313e-18)
(0.0109114 0.00274699 4.86026e-18)
(0.0109504 0.00238014 1.56543e-18)
(0.0109837 0.00201351 1.70536e-18)
(0.0110113 0.0016471 7.67931e-18)
(0.0110334 0.00128087 4.22241e-18)
(0.0110498 0.000914798 2.12242e-18)
(0.0110608 0.000548832 1.62695e-18)
(0.0110663 0.000182935 2.59299e-18)
(0.0110663 -0.00018294 8.76407e-18)
(0.0110608 -0.000548838 1.17828e-17)
(0.0110498 -0.000914803 1.22033e-17)
(0.0110334 -0.00128088 1.28785e-17)
(0.0110113 -0.0016471 1.278e-17)
(0.0109837 -0.00201351 1.01397e-17)
(0.0109504 -0.00238014 1.20233e-17)
(0.0109113 -0.002747 1.43462e-17)
(0.0108665 -0.0031141 1.13962e-17)
(0.0108158 -0.00348145 3.78742e-18)
(0.0102324 0.00841 3.53792e-18)
(0.00962369 0.00880833 9.0144e-18)
(0.00977558 0.00843621 9.78098e-18)
(0.00991856 0.00806394 8.51855e-18)
(0.0100538 0.00769063 1.03438e-17)
(0.0101814 0.00731648 7.83009e-18)
(0.0103016 0.00694167 6.83567e-18)
(0.0104144 0.00656634 5.07779e-18)
(0.01052 0.00619065 5.66453e-18)
(0.0106185 0.00581471 7.63923e-18)
(0.0107101 0.00543865 8.09406e-18)
(0.0107949 0.00506254 8.51055e-18)
(0.010873 0.00468647 7.76833e-18)
(0.0109446 0.0043105 7.08334e-18)
(0.0110098 0.00393468 3.55481e-18)
(0.0110687 0.00355904 5.23121e-19)
(0.0111213 0.00318361 9.70895e-19)
(0.0111679 0.00280841 4.47113e-18)
(0.0112084 0.00243342 6.66578e-19)
(0.011243 0.00205864 1.64195e-18)
(0.0112717 0.00168405 6.97403e-18)
(0.0112946 0.00130963 4.25098e-18)
(0.0113117 0.000935347 3.69343e-18)
(0.0113231 0.000561166 3.36692e-18)
(0.0113288 0.000187047 2.76982e-18)
(0.0113288 -0.000187052 7.19017e-18)
(0.0113231 -0.000561171 1.09639e-17)
(0.0113117 -0.000935352 1.22672e-17)
(0.0112946 -0.00130963 1.16882e-17)
(0.0112717 -0.00168405 1.11495e-17)
(0.011243 -0.00205864 9.68931e-18)
(0.0112084 -0.00243342 1.06326e-17)
(0.0111679 -0.00280841 1.20628e-17)
(0.0111213 -0.00318361 8.97689e-18)
(0.0110687 -0.00355904 4.32625e-18)
(0.0104289 0.00860965 2.0818e-18)
(0.00982999 0.00899596 8.25809e-18)
(0.00998675 0.00861648 9.72173e-18)
(0.0101344 0.00823673 8.30519e-18)
(0.0102741 0.00785587 1.08469e-17)
(0.010406 0.00747409 7.73085e-18)
(0.0105302 0.00709158 6.82427e-18)
(0.0106468 0.0067085 4.6078e-18)
(0.010756 0.006325 4.97002e-18)
(0.0108579 0.0059412 7.53691e-18)
(0.0109527 0.00555721 7.80354e-18)
(0.0110405 0.00517314 8.43675e-18)
(0.0111214 0.00478906 7.80425e-18)
(0.0111955 0.00440504 6.38801e-18)
(0.011263 0.00402113 4.06704e-18)
(0.011324 0.00363737 1.37224e-18)
(0.0113785 0.00325378 9.98131e-19)
(0.0114268 0.00287039 3.61477e-18)
(0.0114688 0.00248719 -2.47579e-19)
(0.0115047 0.00210417 1.31995e-18)
(0.0115345 0.00172133 5.57358e-18)
(0.0115582 0.00133864 4.71627e-18)
(0.011576 0.000956081 5.84458e-18)
(0.0115878 0.00057361 4.98157e-18)
(0.0115937 0.000191195 2.83155e-18)
(0.0115937 -0.0001912 5.78924e-18)
(0.0115878 -0.000573615 1.0389e-17)
(0.011576 -0.000956086 1.26316e-17)
(0.0115582 -0.00133865 1.08458e-17)
(0.0115344 -0.00172134 9.66835e-18)
(0.0115047 -0.00210418 9.33433e-18)
(0.0114688 -0.00248719 8.9887e-18)
(0.0114268 -0.00287039 1.00822e-17)
(0.0113785 -0.00325378 7.79126e-18)
(0.0106278 0.00881158 1.5795e-18)
(0.0100387 0.00918582 8.2901e-18)
(0.0102004 0.00879886 9.8816e-18)
(0.0103528 0.00841151 8.32405e-18)
(0.010497 0.00802298 1.11958e-17)
(0.0106331 0.00763347 7.72043e-18)
(0.0107613 0.00724316 5.54708e-18)
(0.0108818 0.00685222 3.87973e-18)
(0.0109946 0.00646079 5.13161e-18)
(0.0110999 0.00606902 7.74549e-18)
(0.0111978 0.00567702 7.64014e-18)
(0.0112886 0.00528488 8.24837e-18)
(0.0113722 0.0048927 7.70881e-18)
(0.0114489 0.00450053 6.12619e-18)
(0.0115188 0.00410844 4.68258e-18)
(0.0115819 0.00371647 1.45106e-18)
(0.0116383 0.00332464 8.42485e-19)
(0.0116883 0.00293297 3.44386e-18)
(0.0117318 0.00254148 -4.44382e-19)
(0.0117689 0.00215015 1.19496e-18)
(0.0117998 0.00175897 4.50259e-18)
(0.0118244 0.00136794 5.1072e-18)
(0.0118428 0.000977012 7.02062e-18)
(0.011855 0.000586172 5.81472e-18)
(0.0118612 0.000195383 2.78193e-18)
(0.0118612 -0.000195388 4.81948e-18)
(0.011855 -0.000586177 9.89388e-18)
(0.0118428 -0.000977017 1.30385e-17)
(0.0118244 -0.00136794 1.05705e-17)
(0.0117998 -0.00175898 8.5653e-18)
(0.0117689 -0.00215015 8.83932e-18)
(0.0117318 -0.00254148 7.90092e-18)
(0.0116883 -0.00293298 8.72362e-18)
(0.0116383 -0.00332464 7.267e-18)
(0.0108293 0.0090159 2.28084e-18)
(0.01025 0.00937802 9.07326e-18)
(0.0104166 0.00898345 9.72187e-18)
(0.0105738 0.00858839 8.35795e-18)
(0.0107225 0.00819207 1.10992e-17)
(0.0108629 0.00779471 7.28865e-18)
(0.0109951 0.00739648 4.48634e-18)
(0.0111194 0.00699757 3.48873e-18)
(0.0112358 0.00659812 5.51057e-18)
(0.0113446 0.00619827 7.82098e-18)
(0.0114457 0.00579815 7.35281e-18)
(0.0115394 0.00539784 8.08712e-18)
(0.0116258 0.00499745 7.51447e-18)
(0.011705 0.00459704 5.9241e-18)
(0.0117772 0.00419668 4.93687e-18)
(0.0118424 0.0037964 1.07252e-18)
(0.0119008 0.00339623 1.12696e-18)
(0.0119525 0.0029962 3.72044e-18)
(0.0119975 0.00259632 -3.18666e-19)
(0.0120359 0.00219659 1.15086e-18)
(0.0120678 0.00179699 3.94467e-18)
(0.0120933 0.00139752 5.33404e-18)
(0.0121123 0.000998152 7.19853e-18)
(0.012125 0.000598859 6.09284e-18)
(0.0121313 0.000199613 2.90853e-18)
(0.0121313 -0.000199618 4.22267e-18)
(0.012125 -0.000598864 9.38522e-18)
(0.0121123 -0.000998157 1.31589e-17)
(0.0120933 -0.00139753 1.05124e-17)
(0.0120678 -0.001797 7.98208e-18)
(0.0120359 -0.00219659 8.05302e-18)
(0.0119975 -0.00259632 6.91481e-18)
(0.0119525 -0.0029962 7.64264e-18)
(0.0119008 -0.00339623 8.1606e-18)
(0.0110336 0.00922271 2.96578e-18)
(0.010464 0.00957265 9.81124e-18)
(0.0106356 0.00917035 8.70269e-18)
(0.0107975 0.00876746 7.82245e-18)
(0.0109507 0.00836323 1.05489e-17)
(0.0110954 0.00795789 6.98354e-18)
(0.0112317 0.00755164 3.84885e-18)
(0.0113599 0.00714463 3.0305e-18)
(0.0114799 0.00673705 5.38483e-18)
(0.011592 0.00632901 7.5012e-18)
(0.0116964 0.00592065 7.18532e-18)
(0.0117931 0.00551208 7.82427e-18)
(0.0118822 0.00510338 7.4502e-18)
(0.011964 0.00469462 6.24757e-18)
(0.0120385 0.00428588 4.83006e-18)
(0.0121059 0.00387719 7.38067e-19)
(0.0121662 0.00346859 1.70323e-18)
(0.0122195 0.00306011 3.99289e-18)
(0.012266 0.00265175 -1.3372e-20)
(0.0123057 0.00224352 6.35093e-19)
(0.0123387 0.00183541 3.26872e-18)
(0.012365 0.00142742 5.34634e-18)
(0.0123847 0.00101951 6.96623e-18)
(0.0123978 0.000611679 5.94959e-18)
(0.0124043 0.000203887 3.46093e-18)
(0.0124043 -0.000203891 4.1196e-18)
(0.0123978 -0.000611683 9.00886e-18)
(0.0123847 -0.00101952 1.31039e-17)
(0.012365 -0.00142742 1.00715e-17)
(0.0123387 -0.00183542 7.62002e-18)
(0.0123057 -0.00224352 7.16705e-18)
(0.012266 -0.00265175 6.12652e-18)
(0.0122195 -0.00306011 7.28866e-18)
(0.0121662 -0.00346859 8.9534e-18)
(0.0112407 0.00943212 4.11066e-18)
(0.0106808 0.00976983 9.96815e-18)
(0.0108574 0.00935967 7.41219e-18)
(0.011024 0.00894881 7.7299e-18)
(0.0111818 0.00853655 9.96196e-18)
(0.0113308 0.00812312 6.47981e-18)
(0.0114713 0.00770871 3.02188e-18)
(0.0116033 0.0072935 2.87849e-18)
(0.011727 0.00687765 5.61604e-18)
(0.0118425 0.00646132 8.05599e-18)
(0.01195 0.00604461 7.71872e-18)
(0.0120497 0.00562766 7.44429e-18)
(0.0121416 0.00521053 7.26081e-18)
(0.012226 0.00479333 6.59219e-18)
(0.0123028 0.0043761 4.68737e-18)
(0.0123723 0.0039589 9.26078e-19)
(0.0124345 0.00354177 2.3435e-18)
(0.0124896 0.00312473 4.12675e-18)
(0.0125375 0.0027078 -1.90597e-19)
(0.0125785 0.00229097 -3.78981e-19)
(0.0126125 0.00187426 2.79984e-18)
(0.0126397 0.00145764 5.52891e-18)
(0.01266 0.00104111 6.78975e-18)
(0.0126736 0.000624639 5.67355e-18)
(0.0126803 0.000208207 4.23601e-18)
(0.0126803 -0.000208211 4.42024e-18)
(0.0126736 -0.000624643 8.7031e-18)
(0.01266 -0.00104111 1.31765e-17)
(0.0126397 -0.00145765 9.94208e-18)
(0.0126125 -0.00187426 7.25904e-18)
(0.0125785 -0.00229097 5.54639e-18)
(0.0125375 -0.0027078 4.94155e-18)
(0.0124896 -0.00312473 8.34181e-18)
(0.0114507 0.00964424 6.47887e-18)
(0.0109005 0.00996965 1.00637e-17)
(0.0110821 0.0095515 6.75631e-18)
(0.0112536 0.00913255 7.43025e-18)
(0.0114159 0.00871213 9.11406e-18)
(0.0115693 0.00829048 6.12213e-18)
(0.0117139 0.00786779 3.3059e-18)
(0.0118497 0.00744425 3.24166e-18)
(0.0119771 0.00702002 5.53302e-18)
(0.012096 0.00659526 8.38596e-18)
(0.0122068 0.0061701 8.44052e-18)
(0.0123095 0.00574464 7.06026e-18)
(0.0124042 0.00531898 6.95094e-18)
(0.0124911 0.00489321 6.52079e-18)
(0.0125703 0.00446739 4.38476e-18)
(0.0126419 0.00404158 1.37529e-18)
(0.012706 0.0036158 2.96951e-18)
(0.0127628 0.0031901 4.17867e-18)
(0.0128122 0.00276449 -8.21164e-19)
(0.0128545 0.00233897 -1.21447e-18)
(0.0128896 0.00191355 2.53754e-18)
(0.0129176 0.00148821 5.73614e-18)
(0.0129386 0.00106295 6.77532e-18)
(0.0129525 0.000637746 5.29602e-18)
(0.0129595 0.000212576 4.93509e-18)
(0.0129595 -0.000212581 5.3021e-18)
(0.0129525 -0.00063775 8.32e-18)
(0.0129386 -0.00106295 1.27817e-17)
(0.0129176 -0.00148821 1.00279e-17)
(0.0128896 -0.00191355 7.30507e-18)
(0.0128545 -0.00233897 4.21031e-18)
(0.0128122 -0.00276449 3.63494e-18)
(0.0127628 -0.0031901 9.91146e-18)
(0.0116638 0.00985919 9.21289e-18)
(0.0111232 0.0101722 9.56109e-18)
(0.0113099 0.00974596 6.21013e-18)
(0.0114862 0.00931878 7.02287e-18)
(0.0116532 0.00889007 7.95497e-18)
(0.0118109 0.00846006 5.5699e-18)
(0.0119596 0.00802896 4.01589e-18)
(0.0120994 0.00759696 3.23429e-18)
(0.0122304 0.00716423 5.45022e-18)
(0.0123528 0.00673092 8.38424e-18)
(0.0124668 0.00629717 8.88907e-18)
(0.0125725 0.00586309 6.899e-18)
(0.01267 0.00542879 6.38996e-18)
(0.0127595 0.00499433 6.29182e-18)
(0.012841 0.00455981 4.13955e-18)
(0.0129148 0.00412526 1.40399e-18)
(0.0129808 0.00369074 2.90209e-18)
(0.0130393 0.00325626 4.05306e-18)
(0.0130902 0.00282186 -9.96012e-19)
(0.0131338 0.00238754 -1.36235e-18)
(0.0131699 0.0019533 2.21478e-18)
(0.0131988 0.00151914 5.70017e-18)
(0.0132204 0.00108505 6.9087e-18)
(0.0132348 0.000651008 4.9822e-18)
(0.013242 0.000216998 5.55878e-18)
(0.013242 -0.000217002 6.45949e-18)
(0.0132348 -0.000651012 8.05304e-18)
(0.0132204 -0.00108505 1.19181e-17)
(0.0131988 -0.00151915 9.77843e-18)
(0.0131699 -0.00195331 7.6062e-18)
(0.0131338 -0.00238754 3.92082e-18)
(0.0130902 -0.00282186 2.94607e-18)