/*--------------------------------*- C++ -*----------------------------------*\
  =========                 |
  \\      /  F ield         | OpenFOAM: The Open Source CFD Toolbox
   \\    /   O peration     | Website:  https://openfoam.org
    \\  /    A nd           | Version:  7
     \\/     M anipulation  |
\*---------------------------------------------------------------------------*/
FoamFile
{
    version     2.0;
    format      ascii;
    class       volScalarField;
    location    "68000";
    object      nut;
}
// * * * * * * * * * * * * * * * * * * * * * * * * * * * * * * * * * * * * * //

dimensions      [0 2 -1 0 0 0 0];

internalField   nonuniform List<scalar> 
4844
(
1.2205e-06
1.22078e-06
1.22109e-06
1.22186e-06
1.22214e-06
1.22245e-06
1.22278e-06
1.22315e-06
1.22354e-06
1.22396e-06
1.2244e-06
1.22321e-06
1.22349e-06
1.2238e-06
1.22414e-06
1.22451e-06
1.2249e-06
1.22532e-06
1.22577e-06
1.22623e-06
1.22673e-06
1.22726e-06
1.22457e-06
1.22485e-06
1.22516e-06
1.2255e-06
1.22587e-06
1.22626e-06
1.22668e-06
1.22713e-06
1.2276e-06
1.22809e-06
1.22862e-06
1.22917e-06
1.22974e-06
1.23035e-06
1.23098e-06
1.23163e-06
1.22592e-06
1.22621e-06
1.22653e-06
1.22687e-06
1.22723e-06
1.22763e-06
1.22805e-06
1.22849e-06
1.22896e-06
1.22946e-06
1.22998e-06
1.23053e-06
1.2311e-06
1.23171e-06
1.23234e-06
1.23299e-06
1.22728e-06
1.22757e-06
1.22789e-06
1.22823e-06
1.2286e-06
1.22899e-06
1.22941e-06
1.22985e-06
1.23032e-06
1.23082e-06
1.23134e-06
1.23189e-06
1.23247e-06
1.23307e-06
1.2337e-06
1.23435e-06
1.22893e-06
1.22925e-06
1.22959e-06
1.22996e-06
1.23035e-06
1.23077e-06
1.23122e-06
1.23169e-06
1.23218e-06
1.23271e-06
1.23325e-06
1.23383e-06
1.23443e-06
1.23506e-06
1.23571e-06
1.2303e-06
1.23062e-06
1.23096e-06
1.23133e-06
1.23172e-06
1.23214e-06
1.23258e-06
1.23305e-06
1.23355e-06
1.23407e-06
1.23462e-06
1.23519e-06
1.23579e-06
1.23642e-06
1.23707e-06
1.23166e-06
1.23198e-06
1.23232e-06
1.23269e-06
1.23308e-06
1.2335e-06
1.23395e-06
1.23442e-06
1.23491e-06
1.23543e-06
1.23598e-06
1.23656e-06
1.23716e-06
1.23778e-06
1.23844e-06
1.23273e-06
1.23303e-06
1.23335e-06
1.23369e-06
1.23406e-06
1.23445e-06
1.23487e-06
1.23531e-06
1.23578e-06
1.23628e-06
1.2368e-06
1.23735e-06
1.23793e-06
1.23853e-06
1.23917e-06
1.23983e-06
1.2341e-06
1.2344e-06
1.23471e-06
1.23506e-06
1.23542e-06
1.23582e-06
1.23624e-06
1.23668e-06
1.23715e-06
1.23765e-06
1.23817e-06
1.23873e-06
1.23931e-06
1.23992e-06
1.24056e-06
1.24124e-06
1.23547e-06
1.23576e-06
1.23608e-06
1.23642e-06
1.23679e-06
1.23719e-06
1.23761e-06
1.23805e-06
1.23853e-06
1.23903e-06
1.23956e-06
1.24012e-06
1.24071e-06
1.24133e-06
1.24198e-06
1.24267e-06
1.23684e-06
1.23714e-06
1.23745e-06
1.2378e-06
1.23817e-06
1.23856e-06
1.23899e-06
1.23944e-06
1.23992e-06
1.24043e-06
1.24096e-06
1.24153e-06
1.24212e-06
1.24275e-06
1.24342e-06
1.24411e-06
1.23796e-06
1.23822e-06
1.23851e-06
1.23883e-06
1.23918e-06
1.23956e-06
1.23996e-06
1.24039e-06
1.24084e-06
1.24133e-06
1.24184e-06
1.24239e-06
1.24296e-06
1.24356e-06
1.2442e-06
1.24488e-06
1.24559e-06
1.23935e-06
1.23961e-06
1.23991e-06
1.24023e-06
1.24058e-06
1.24096e-06
1.24137e-06
1.2418e-06
1.24226e-06
1.24276e-06
1.24328e-06
1.24383e-06
1.24441e-06
1.24503e-06
1.24568e-06
1.24637e-06
1.24709e-06
1.24052e-06
1.24075e-06
1.24102e-06
1.24131e-06
1.24164e-06
1.242e-06
1.24238e-06
1.24279e-06
1.24324e-06
1.24371e-06
1.24421e-06
1.24474e-06
1.2453e-06
1.24589e-06
1.24652e-06
1.24719e-06
1.24789e-06
1.24864e-06
1.24194e-06
1.24217e-06
1.24244e-06
1.24274e-06
1.24307e-06
1.24343e-06
1.24383e-06
1.24424e-06
1.24469e-06
1.24517e-06
1.24568e-06
1.24622e-06
1.2468e-06
1.24741e-06
1.24805e-06
1.24874e-06
1.24947e-06
1.25023e-06
1.24337e-06
1.24361e-06
1.24388e-06
1.24419e-06
1.24452e-06
1.24489e-06
1.24529e-06
1.24572e-06
1.24618e-06
1.24667e-06
1.24719e-06
1.24775e-06
1.24834e-06
1.24897e-06
1.24963e-06
1.25034e-06
1.25109e-06
1.25188e-06
1.24482e-06
1.24506e-06
1.24534e-06
1.24566e-06
1.246e-06
1.24638e-06
1.24679e-06
1.24723e-06
1.2477e-06
1.2482e-06
1.24874e-06
1.24931e-06
1.24992e-06
1.25057e-06
1.25126e-06
1.25199e-06
1.25276e-06
1.25357e-06
1.2463e-06
1.24654e-06
1.24683e-06
1.24716e-06
1.24751e-06
1.2479e-06
1.24832e-06
1.24877e-06
1.24926e-06
1.24978e-06
1.25034e-06
1.25093e-06
1.25156e-06
1.25223e-06
1.25294e-06
1.25369e-06
1.25447e-06
1.25529e-06
1.2478e-06
1.24806e-06
1.24836e-06
1.24869e-06
1.24906e-06
1.24946e-06
1.2499e-06
1.25037e-06
1.25087e-06
1.25141e-06
1.25198e-06
1.2526e-06
1.25325e-06
1.25393e-06
1.25466e-06
1.25542e-06
1.25621e-06
1.25703e-06
1.24935e-06
1.24962e-06
1.24993e-06
1.25028e-06
1.25066e-06
1.25107e-06
1.25152e-06
1.25201e-06
1.25253e-06
1.25309e-06
1.25368e-06
1.25431e-06
1.25497e-06
1.25567e-06
1.2564e-06
1.25715e-06
1.25793e-06
1.25873e-06
1.25095e-06
1.25123e-06
1.25155e-06
1.25191e-06
1.25231e-06
1.25274e-06
1.2532e-06
1.2537e-06
1.25424e-06
1.25481e-06
1.25541e-06
1.25605e-06
1.25671e-06
1.2574e-06
1.25812e-06
1.25885e-06
1.2596e-06
1.26036e-06
1.2526e-06
1.25289e-06
1.25323e-06
1.2536e-06
1.254e-06
1.25445e-06
1.25492e-06
1.25543e-06
1.25597e-06
1.25655e-06
1.25715e-06
1.25778e-06
1.25843e-06
1.2591e-06
1.25978e-06
1.26048e-06
1.26118e-06
1.2619e-06
1.2543e-06
1.2546e-06
1.25494e-06
1.25532e-06
1.25573e-06
1.25618e-06
1.25666e-06
1.25717e-06
1.25771e-06
1.25827e-06
1.25886e-06
1.25946e-06
1.26008e-06
1.26072e-06
1.26136e-06
1.26201e-06
1.26267e-06
1.26334e-06
1.25603e-06
1.25634e-06
1.25668e-06
1.25706e-06
1.25747e-06
1.25791e-06
1.25838e-06
1.25888e-06
1.2594e-06
1.25994e-06
1.26049e-06
1.26106e-06
1.26164e-06
1.26223e-06
1.26283e-06
1.26344e-06
1.26408e-06
1.26474e-06
1.25777e-06
1.25807e-06
1.25841e-06
1.25877e-06
1.25917e-06
1.25959e-06
1.26004e-06
1.26052e-06
1.261e-06
1.26151e-06
1.26203e-06
1.26256e-06
1.2631e-06
1.26366e-06
1.26423e-06
1.26484e-06
1.26549e-06
1.26621e-06
1.25947e-06
1.25976e-06
1.26007e-06
1.26042e-06
1.26079e-06
1.26119e-06
1.26161e-06
1.26205e-06
1.26251e-06
1.26298e-06
1.26347e-06
1.26397e-06
1.2645e-06
1.26505e-06
1.26565e-06
1.2663e-06
1.26704e-06
1.26791e-06
1.2611e-06
1.26136e-06
1.26165e-06
1.26197e-06
1.26232e-06
1.26269e-06
1.26308e-06
1.2635e-06
1.26393e-06
1.26438e-06
1.26486e-06
1.26537e-06
1.26593e-06
1.26653e-06
1.26722e-06
1.26802e-06
1.26899e-06
1.27021e-06
1.26262e-06
1.26286e-06
1.26312e-06
1.26342e-06
1.26375e-06
1.26411e-06
1.26449e-06
1.26489e-06
1.26533e-06
1.2658e-06
1.26631e-06
1.26689e-06
1.26754e-06
1.2683e-06
1.26922e-06
1.27036e-06
1.27182e-06
1.27377e-06
1.26384e-06
1.26405e-06
1.26427e-06
1.26453e-06
1.26482e-06
1.26514e-06
1.2655e-06
1.2659e-06
1.26634e-06
1.26682e-06
1.26737e-06
1.26801e-06
1.26875e-06
1.26965e-06
1.27076e-06
1.27218e-06
1.27403e-06
1.2765e-06
1.27989e-06
1.26524e-06
1.26545e-06
1.26567e-06
1.26594e-06
1.26625e-06
1.26661e-06
1.26702e-06
1.26748e-06
1.26802e-06
1.26864e-06
1.26939e-06
1.27029e-06
1.27142e-06
1.27285e-06
1.2747e-06
1.27714e-06
1.28042e-06
1.28485e-06
1.29084e-06
1.26653e-06
1.26671e-06
1.26694e-06
1.2672e-06
1.26751e-06
1.26789e-06
1.26834e-06
1.26888e-06
1.26951e-06
1.27028e-06
1.27122e-06
1.27239e-06
1.27387e-06
1.27579e-06
1.27831e-06
1.28163e-06
1.28606e-06
1.29193e-06
1.29965e-06
1.30963e-06
1.26821e-06
1.26844e-06
1.26874e-06
1.26909e-06
1.26953e-06
1.27007e-06
1.27073e-06
1.27155e-06
1.27255e-06
1.27381e-06
1.27541e-06
1.27745e-06
1.28012e-06
1.2836e-06
1.28818e-06
1.29412e-06
1.30183e-06
1.31165e-06
1.32386e-06
1.33873e-06
1.27047e-06
1.27082e-06
1.27127e-06
1.27183e-06
1.27254e-06
1.27342e-06
1.27453e-06
1.27594e-06
1.2777e-06
1.27996e-06
1.28287e-06
1.2866e-06
1.29141e-06
1.2976e-06
1.30549e-06
1.31531e-06
1.32739e-06
1.34194e-06
1.35893e-06
1.37844e-06
1.27398e-06
1.27459e-06
1.27539e-06
1.27638e-06
1.27763e-06
1.27922e-06
1.28124e-06
1.2838e-06
1.28703e-06
1.29113e-06
1.29631e-06
1.30281e-06
1.31093e-06
1.32092e-06
1.33305e-06
1.34733e-06
1.36394e-06
1.38284e-06
1.40372e-06
1.4266e-06
1.28013e-06
1.28127e-06
1.28272e-06
1.28455e-06
1.28685e-06
1.28975e-06
1.2934e-06
1.29796e-06
1.30356e-06
1.31048e-06
1.31893e-06
1.32906e-06
1.34115e-06
1.35529e-06
1.37162e-06
1.38981e-06
1.40995e-06
1.43192e-06
1.45514e-06
1.47989e-06
1.29132e-06
1.2934e-06
1.296e-06
1.29924e-06
1.30325e-06
1.30819e-06
1.31424e-06
1.32159e-06
1.33026e-06
1.34057e-06
1.35263e-06
1.36645e-06
1.3822e-06
1.39978e-06
1.41926e-06
1.44003e-06
1.46223e-06
1.48576e-06
1.50992e-06
1.5352e-06
1.31078e-06
1.31424e-06
1.31847e-06
1.3236e-06
1.32981e-06
1.33725e-06
1.34606e-06
1.35642e-06
1.36815e-06
1.38155e-06
1.39666e-06
1.41333e-06
1.43163e-06
1.45137e-06
1.47262e-06
1.49452e-06
1.51749e-06
1.54133e-06
1.56542e-06
1.59032e-06
1.3411e-06
1.34614e-06
1.35213e-06
1.35923e-06
1.36759e-06
1.37737e-06
1.38856e-06
1.40141e-06
1.41544e-06
1.43101e-06
1.44807e-06
1.46633e-06
1.48591e-06
1.5066e-06
1.52842e-06
1.5504e-06
1.57315e-06
1.5966e-06
1.62e-06
1.63773e-06
1.38242e-06
1.38885e-06
1.39625e-06
1.4049e-06
1.41486e-06
1.4263e-06
1.439e-06
1.45344e-06
1.46872e-06
1.48543e-06
1.50331e-06
1.52214e-06
1.542e-06
1.56266e-06
1.58426e-06
1.60571e-06
1.6277e-06
1.63455e-06
1.62121e-06
1.60814e-06
1.43221e-06
1.43961e-06
1.44782e-06
1.45739e-06
1.46821e-06
1.48052e-06
1.49387e-06
1.50899e-06
1.52467e-06
1.54163e-06
1.55951e-06
1.57823e-06
1.59775e-06
1.61786e-06
1.63872e-06
1.62791e-06
1.61611e-06
1.60604e-06
1.59652e-06
1.58738e-06
1.48692e-06
1.49479e-06
1.50329e-06
1.51321e-06
1.52426e-06
1.53673e-06
1.55016e-06
1.56534e-06
1.58081e-06
1.59742e-06
1.61491e-06
1.63303e-06
1.63102e-06
1.62018e-06
1.61086e-06
1.60103e-06
1.59274e-06
1.5867e-06
1.58259e-06
1.57877e-06
1.54331e-06
1.55133e-06
1.55971e-06
1.56957e-06
1.58051e-06
1.59267e-06
1.60585e-06
1.62068e-06
1.63565e-06
1.62851e-06
1.61926e-06
1.61089e-06
1.60292e-06
1.59547e-06
1.58919e-06
1.58415e-06
1.5808e-06
1.57958e-06
1.58046e-06
1.58137e-06
1.59927e-06
1.60721e-06
1.61529e-06
1.62486e-06
1.63544e-06
1.62825e-06
1.62066e-06
1.61429e-06
1.60752e-06
1.60035e-06
1.59418e-06
1.58852e-06
1.58444e-06
1.58171e-06
1.57979e-06
1.5794e-06
1.58047e-06
1.58357e-06
1.58837e-06
1.5928e-06
1.62221e-06
1.61887e-06
1.61393e-06
1.60928e-06
1.60475e-06
1.59939e-06
1.59425e-06
1.5901e-06
1.58562e-06
1.5822e-06
1.58013e-06
1.57838e-06
1.57831e-06
1.5798e-06
1.58191e-06
1.58536e-06
1.5898e-06
1.59618e-06
1.60365e-06
1.61059e-06
1.59461e-06
1.59258e-06
1.58901e-06
1.58586e-06
1.58304e-06
1.58058e-06
1.57845e-06
1.57756e-06
1.57638e-06
1.57651e-06
1.57807e-06
1.57998e-06
1.58311e-06
1.58792e-06
1.59326e-06
1.59948e-06
1.60622e-06
1.6147e-06
1.62398e-06
1.63245e-06
1.57762e-06
1.57725e-06
1.57568e-06
1.57466e-06
1.57415e-06
1.57442e-06
1.57497e-06
1.57699e-06
1.5788e-06
1.58188e-06
1.58629e-06
1.59088e-06
1.59642e-06
1.60361e-06
1.61118e-06
1.6191e-06
1.62732e-06
1.63693e-06
1.64733e-06
1.65655e-06
1.57304e-06
1.57422e-06
1.57456e-06
1.57554e-06
1.57709e-06
1.57955e-06
1.5821e-06
1.5863e-06
1.59049e-06
1.59573e-06
1.60203e-06
1.60839e-06
1.61564e-06
1.62427e-06
1.63319e-06
1.64206e-06
1.65113e-06
1.66119e-06
1.67201e-06
1.6814e-06
1.57941e-06
1.5817e-06
1.58349e-06
1.58615e-06
1.58916e-06
1.5932e-06
1.59719e-06
1.60292e-06
1.60862e-06
1.61541e-06
1.62289e-06
1.63026e-06
1.63851e-06
1.64794e-06
1.65744e-06
1.66679e-06
1.67613e-06
1.68615e-06
1.69694e-06
1.70608e-06
1.59404e-06
1.59711e-06
1.5999e-06
1.60363e-06
1.6077e-06
1.61269e-06
1.61767e-06
1.62423e-06
1.63093e-06
1.63854e-06
1.64666e-06
1.65444e-06
1.66326e-06
1.673e-06
1.68259e-06
1.692e-06
1.70117e-06
1.71082e-06
1.72127e-06
1.72983e-06
1.61431e-06
1.61776e-06
1.62126e-06
1.62553e-06
1.63021e-06
1.63574e-06
1.64136e-06
1.64821e-06
1.65553e-06
1.66338e-06
1.67172e-06
1.67958e-06
1.68844e-06
1.69814e-06
1.70748e-06
1.71674e-06
1.72533e-06
1.73445e-06
1.74436e-06
1.75212e-06
1.63798e-06
1.64158e-06
1.64547e-06
1.64997e-06
1.65493e-06
1.66067e-06
1.66657e-06
1.67339e-06
1.68097e-06
1.68871e-06
1.69697e-06
1.70459e-06
1.71318e-06
1.72247e-06
1.73143e-06
1.74022e-06
1.74811e-06
1.75655e-06
1.76567e-06
1.77251e-06
1.66327e-06
1.66688e-06
1.6708e-06
1.67531e-06
1.68041e-06
1.68602e-06
1.69204e-06
1.6986e-06
1.70606e-06
1.71355e-06
1.72143e-06
1.72868e-06
1.73677e-06
1.74539e-06
1.75382e-06
1.76198e-06
1.76911e-06
1.77674e-06
1.78492e-06
1.79085e-06
1.68888e-06
1.69239e-06
1.69616e-06
1.70052e-06
1.70559e-06
1.7109e-06
1.71671e-06
1.72298e-06
1.73016e-06
1.73719e-06
1.74444e-06
1.75128e-06
1.75873e-06
1.7666e-06
1.77435e-06
1.78169e-06
1.78798e-06
1.79474e-06
1.80193e-06
1.80702e-06
1.72958e-06
1.73459e-06
1.73996e-06
1.74593e-06
1.7527e-06
1.75907e-06
1.76561e-06
1.77201e-06
1.77874e-06
1.78582e-06
1.79271e-06
1.79918e-06
1.80464e-06
1.81048e-06
1.81663e-06
1.82096e-06
1.77323e-06
1.77896e-06
1.78475e-06
1.79052e-06
1.79661e-06
1.80285e-06
1.80876e-06
1.81434e-06
1.81894e-06
1.82386e-06
1.82898e-06
1.83258e-06
1.23707e-06
1.2364e-06
1.23847e-06
1.23779e-06
1.23987e-06
1.2392e-06
1.24129e-06
1.24061e-06
1.23995e-06
1.24272e-06
1.24204e-06
1.24138e-06
1.24417e-06
1.24348e-06
1.24282e-06
1.24219e-06
1.24565e-06
1.24495e-06
1.24428e-06
1.24365e-06
1.24715e-06
1.24644e-06
1.24576e-06
1.24512e-06
1.2487e-06
1.24797e-06
1.24728e-06
1.24662e-06
1.246e-06
1.25029e-06
1.24954e-06
1.24883e-06
1.24816e-06
1.24752e-06
1.25194e-06
1.25117e-06
1.25044e-06
1.24975e-06
1.24909e-06
1.25363e-06
1.25284e-06
1.25209e-06
1.25138e-06
1.25071e-06
1.25536e-06
1.25456e-06
1.2538e-06
1.25307e-06
1.25238e-06
1.25709e-06
1.2563e-06
1.25554e-06
1.2548e-06
1.25411e-06
1.2588e-06
1.25803e-06
1.25728e-06
1.25656e-06
1.25586e-06
1.25519e-06
1.26043e-06
1.2597e-06
1.25899e-06
1.25829e-06
1.25761e-06
1.25695e-06
1.26197e-06
1.26129e-06
1.26062e-06
1.25996e-06
1.25932e-06
1.25869e-06
1.25808e-06
1.26342e-06
1.26278e-06
1.26215e-06
1.26154e-06
1.26094e-06
1.26035e-06
1.25978e-06
1.25921e-06
1.26482e-06
1.26419e-06
1.26359e-06
1.26302e-06
1.26246e-06
1.26191e-06
1.26138e-06
1.26086e-06
1.26034e-06
1.26629e-06
1.2656e-06
1.26499e-06
1.26443e-06
1.26389e-06
1.26338e-06
1.26288e-06
1.26241e-06
1.26193e-06
1.26145e-06
1.268e-06
1.26716e-06
1.26645e-06
1.26584e-06
1.26528e-06
1.26477e-06
1.2643e-06
1.26385e-06
1.26341e-06
1.26298e-06
1.27029e-06
1.26911e-06
1.26817e-06
1.26741e-06
1.26676e-06
1.2662e-06
1.26569e-06
1.26524e-06
1.26481e-06
1.26441e-06
1.27385e-06
1.27194e-06
1.27051e-06
1.26941e-06
1.26853e-06
1.26781e-06
1.2672e-06
1.26668e-06
1.26623e-06
1.26581e-06
1.27997e-06
1.27662e-06
1.27418e-06
1.27237e-06
1.27099e-06
1.26992e-06
1.26906e-06
1.26838e-06
1.2678e-06
1.26731e-06
1.29092e-06
1.28497e-06
1.28058e-06
1.27734e-06
1.27492e-06
1.27311e-06
1.27173e-06
1.27066e-06
1.26982e-06
1.26914e-06
1.3097e-06
1.29976e-06
1.29208e-06
1.28626e-06
1.28186e-06
1.27857e-06
1.2761e-06
1.27425e-06
1.27283e-06
1.27173e-06
1.3388e-06
1.32398e-06
1.3118e-06
1.30204e-06
1.29436e-06
1.28843e-06
1.28391e-06
1.2805e-06
1.27791e-06
1.27594e-06
1.37852e-06
1.35907e-06
1.34209e-06
1.32763e-06
1.31556e-06
1.30573e-06
1.29793e-06
1.29183e-06
1.28708e-06
1.28344e-06
1.42667e-06
1.40388e-06
1.383e-06
1.36424e-06
1.3476e-06
1.33329e-06
1.32128e-06
1.31139e-06
1.30335e-06
1.29695e-06
1.47996e-06
1.45538e-06
1.43208e-06
1.41038e-06
1.39012e-06
1.37186e-06
1.35569e-06
1.34169e-06
1.32968e-06
1.31966e-06
1.53533e-06
1.51026e-06
1.48599e-06
1.46282e-06
1.44043e-06
1.41952e-06
1.40023e-06
1.38282e-06
1.36716e-06
1.35346e-06
1.59059e-06
1.56591e-06
1.54168e-06
1.51828e-06
1.49507e-06
1.47292e-06
1.45188e-06
1.43236e-06
1.41413e-06
1.39759e-06
1.23707e-06
1.23846e-06
1.23986e-06
1.24127e-06
1.2427e-06
1.24415e-06
1.24563e-06
1.24714e-06
1.24868e-06
1.25027e-06
1.25192e-06
1.25361e-06
1.25534e-06
1.25707e-06
1.25877e-06
1.26041e-06
1.26195e-06
1.2634e-06
1.2648e-06
1.26627e-06
1.26798e-06
1.27028e-06
1.27383e-06
1.27996e-06
1.29092e-06
1.30973e-06
1.33886e-06
1.37865e-06
1.42693e-06
1.48033e-06
1.53577e-06
1.59104e-06
1.23638e-06
1.23777e-06
1.23917e-06
1.24057e-06
1.242e-06
1.24344e-06
1.2449e-06
1.24639e-06
1.24792e-06
1.24949e-06
1.25111e-06
1.25278e-06
1.2545e-06
1.25624e-06
1.25796e-06
1.25963e-06
1.26122e-06
1.2627e-06
1.26412e-06
1.26553e-06
1.26709e-06
1.26904e-06
1.27187e-06
1.27657e-06
1.28493e-06
1.29975e-06
1.32402e-06
1.3592e-06
1.40414e-06
1.45577e-06
1.51074e-06
1.56647e-06
1.62121e-06
1.23573e-06
1.23711e-06
1.2385e-06
1.2399e-06
1.24132e-06
1.24275e-06
1.2442e-06
1.24568e-06
1.2472e-06
1.24875e-06
1.25035e-06
1.252e-06
1.25369e-06
1.25543e-06
1.25716e-06
1.25886e-06
1.26049e-06
1.26202e-06
1.26346e-06
1.26486e-06
1.26632e-06
1.26804e-06
1.27038e-06
1.27406e-06
1.28046e-06
1.29197e-06
1.31171e-06
1.34205e-06
1.38304e-06
1.43226e-06
1.48628e-06
1.54205e-06
1.59746e-06
1.63539e-06
1.607e-06
1.58779e-06
1.58072e-06
1.58478e-06
1.23511e-06
1.23649e-06
1.23787e-06
1.23926e-06
1.24067e-06
1.2421e-06
1.24354e-06
1.24501e-06
1.24651e-06
1.24804e-06
1.24962e-06
1.25124e-06
1.25292e-06
1.25464e-06
1.25638e-06
1.25811e-06
1.25977e-06
1.26135e-06
1.26282e-06
1.26423e-06
1.26564e-06
1.26721e-06
1.26921e-06
1.27217e-06
1.27713e-06
1.28603e-06
1.30179e-06
1.32735e-06
1.3639e-06
1.40997e-06
1.46236e-06
1.51769e-06
1.57348e-06
1.62817e-06
1.61641e-06
1.59299e-06
1.58104e-06
1.58084e-06
1.23452e-06
1.23589e-06
1.23727e-06
1.23865e-06
1.24006e-06
1.24147e-06
1.24291e-06
1.24437e-06
1.24585e-06
1.24737e-06
1.24893e-06
1.25053e-06
1.25219e-06
1.2539e-06
1.25563e-06
1.25737e-06
1.25906e-06
1.26068e-06
1.2622e-06
1.26363e-06
1.26502e-06
1.2665e-06
1.26827e-06
1.27073e-06
1.27465e-06
1.28158e-06
1.29405e-06
1.31521e-06
1.34721e-06
1.38971e-06
1.43996e-06
1.49451e-06
1.55041e-06
1.60575e-06
1.62768e-06
1.60075e-06
1.58372e-06
1.57885e-06
1.23396e-06
1.23533e-06
1.2367e-06
1.23808e-06
1.23947e-06
1.24088e-06
1.24231e-06
1.24376e-06
1.24523e-06
1.24674e-06
1.24828e-06
1.24986e-06
1.2515e-06
1.25318e-06
1.25491e-06
1.25665e-06
1.25837e-06
1.26002e-06
1.26158e-06
1.26304e-06
1.26444e-06
1.26587e-06
1.26748e-06
1.26959e-06
1.27278e-06
1.27822e-06
1.28806e-06
1.30532e-06
1.33283e-06
1.37136e-06
1.41897e-06
1.47229e-06
1.52805e-06
1.58391e-06
1.6384e-06
1.6102e-06
1.58834e-06
1.57878e-06
1.58075e-06
1.23343e-06
1.23479e-06
1.23616e-06
1.23753e-06
1.23892e-06
1.24032e-06
1.24174e-06
1.24318e-06
1.24465e-06
1.24614e-06
1.24766e-06
1.24923e-06
1.25084e-06
1.25251e-06
1.25422e-06
1.25596e-06
1.25769e-06
1.25938e-06
1.26098e-06
1.26247e-06
1.26389e-06
1.26529e-06
1.2668e-06
1.26866e-06
1.27132e-06
1.27568e-06
1.28346e-06
1.29742e-06
1.32068e-06
1.35501e-06
1.39947e-06
1.45102e-06
1.50619e-06
1.56228e-06
1.61753e-06
1.61965e-06
1.59471e-06
1.58065e-06
1.57863e-06
1.23292e-06
1.23428e-06
1.23565e-06
1.23702e-06
1.2384e-06
1.2398e-06
1.24121e-06
1.24264e-06
1.24409e-06
1.24557e-06
1.24708e-06
1.24863e-06
1.25023e-06
1.25187e-06
1.25357e-06
1.2553e-06
1.25704e-06
1.25875e-06
1.26038e-06
1.26192e-06
1.26336e-06
1.26475e-06
1.2662e-06
1.26789e-06
1.27017e-06
1.27373e-06
1.27994e-06
1.29118e-06
1.31061e-06
1.34072e-06
1.38163e-06
1.43094e-06
1.48518e-06
1.54125e-06
1.59692e-06
1.6301e-06
1.60174e-06
1.58305e-06
1.57677e-06
1.23244e-06
1.2338e-06
1.23517e-06
1.23653e-06
1.23791e-06
1.2393e-06
1.2407e-06
1.24213e-06
1.24357e-06
1.24504e-06
1.24654e-06
1.24807e-06
1.24965e-06
1.25128e-06
1.25295e-06
1.25467e-06
1.25641e-06
1.25814e-06
1.2598e-06
1.26137e-06
1.26285e-06
1.26425e-06
1.26566e-06
1.26723e-06
1.26924e-06
1.27222e-06
1.27726e-06
1.28634e-06
1.30246e-06
1.32859e-06
1.36585e-06
1.41262e-06
1.46556e-06
1.52135e-06
1.57739e-06
1.63216e-06
1.60979e-06
1.58713e-06
1.57676e-06
1.23198e-06
1.23335e-06
1.23471e-06
1.23608e-06
1.23745e-06
1.23883e-06
1.24023e-06
1.24165e-06
1.24308e-06
1.24454e-06
1.24603e-06
1.24755e-06
1.24911e-06
1.25072e-06
1.25238e-06
1.25408e-06
1.25582e-06
1.25755e-06
1.25924e-06
1.26085e-06
1.26235e-06
1.26377e-06
1.26516e-06
1.26666e-06
1.26847e-06
1.27103e-06
1.27518e-06
1.28258e-06
1.29592e-06
1.31837e-06
1.35189e-06
1.39575e-06
1.44704e-06
1.50225e-06
1.55845e-06
1.6138e-06
1.61827e-06
1.59276e-06
1.57832e-06
1.23155e-06
1.23292e-06
1.23428e-06
1.23565e-06
1.23701e-06
1.23839e-06
1.23979e-06
1.2412e-06
1.24263e-06
1.24408e-06
1.24555e-06
1.24706e-06
1.2486e-06
1.2502e-06
1.25184e-06
1.25353e-06
1.25526e-06
1.25699e-06
1.2587e-06
1.26034e-06
1.26187e-06
1.26332e-06
1.26471e-06
1.26615e-06
1.26782e-06
1.27007e-06
1.27357e-06
1.27966e-06
1.29072e-06
1.30991e-06
1.33979e-06
1.38055e-06
1.42983e-06
1.4841e-06
1.54024e-06
1.59599e-06
1.62753e-06
1.59918e-06
1.58072e-06
1.23251e-06
1.23388e-06
1.23524e-06
1.23661e-06
1.23798e-06
1.23937e-06
1.24078e-06
1.2422e-06
1.24364e-06
1.24511e-06
1.24661e-06
1.24814e-06
1.24971e-06
1.25134e-06
1.25302e-06
1.25473e-06
1.25647e-06
1.25819e-06
1.25985e-06
1.26142e-06
1.26289e-06
1.26428e-06
1.26569e-06
1.26727e-06
1.26928e-06
1.27229e-06
1.27739e-06
1.28661e-06
1.30298e-06
1.32946e-06
1.36709e-06
1.41417e-06
1.46735e-06
1.52325e-06
1.57931e-06
1.63402e-06
1.606e-06
1.5837e-06
1.2335e-06
1.23486e-06
1.23623e-06
1.2376e-06
1.23899e-06
1.24039e-06
1.24181e-06
1.24324e-06
1.2447e-06
1.24619e-06
1.24771e-06
1.24927e-06
1.25088e-06
1.25254e-06
1.25425e-06
1.25598e-06
1.25771e-06
1.25939e-06
1.26099e-06
1.26248e-06
1.26389e-06
1.26528e-06
1.26679e-06
1.26864e-06
1.27128e-06
1.27561e-06
1.28338e-06
1.29736e-06
1.32074e-06
1.35527e-06
1.39998e-06
1.4518e-06
1.50716e-06
1.56335e-06
1.61853e-06
1.61231e-06
1.5878e-06
1.23315e-06
1.23452e-06
1.23588e-06
1.23725e-06
1.23863e-06
1.24003e-06
1.24144e-06
1.24288e-06
1.24433e-06
1.24581e-06
1.24731e-06
1.24886e-06
1.25046e-06
1.25211e-06
1.2538e-06
1.25553e-06
1.25726e-06
1.25896e-06
1.26058e-06
1.2621e-06
1.26353e-06
1.26491e-06
1.26637e-06
1.26809e-06
1.27046e-06
1.27421e-06
1.28084e-06
1.29285e-06
1.31349e-06
1.34507e-06
1.38739e-06
1.43772e-06
1.4925e-06
1.54869e-06
1.60426e-06
1.61952e-06
1.59258e-06
1.23419e-06
1.23556e-06
1.23693e-06
1.23831e-06
1.23971e-06
1.24111e-06
1.24254e-06
1.24399e-06
1.24546e-06
1.24696e-06
1.24849e-06
1.25008e-06
1.25171e-06
1.25339e-06
1.25511e-06
1.25685e-06
1.25855e-06
1.2602e-06
1.26174e-06
1.26319e-06
1.26458e-06
1.266e-06
1.26763e-06
1.26978e-06
1.27309e-06
1.27881e-06
1.2892e-06
1.30743e-06
1.33621e-06
1.37605e-06
1.42471e-06
1.47871e-06
1.53481e-06
1.59074e-06
1.62691e-06
1.59747e-06
1.23391e-06
1.23527e-06
1.23664e-06
1.23802e-06
1.23941e-06
1.24082e-06
1.24224e-06
1.24368e-06
1.24514e-06
1.24664e-06
1.24816e-06
1.24973e-06
1.25135e-06
1.25303e-06
1.25474e-06
1.25647e-06
1.25819e-06
1.25985e-06
1.26141e-06
1.26288e-06
1.26427e-06
1.26567e-06
1.26723e-06
1.26923e-06
1.27219e-06
1.27721e-06
1.28629e-06
1.30247e-06
1.32874e-06
1.36621e-06
1.41317e-06
1.46625e-06
1.52207e-06
1.57813e-06
1.6329e-06
1.60242e-06
1.23501e-06
1.23638e-06
1.23776e-06
1.23915e-06
1.24055e-06
1.24197e-06
1.24341e-06
1.24487e-06
1.24635e-06
1.24787e-06
1.24943e-06
1.25104e-06
1.2527e-06
1.2544e-06
1.25613e-06
1.25786e-06
1.25953e-06
1.26112e-06
1.2626e-06
1.264e-06
1.26539e-06
1.2669e-06
1.26877e-06
1.27148e-06
1.27595e-06
1.28399e-06
1.29847e-06
1.32254e-06
1.35783e-06
1.40317e-06
1.45535e-06
1.5109e-06
1.56703e-06
1.62214e-06
1.60708e-06
1.23615e-06
1.23753e-06
1.23892e-06
1.24032e-06
1.24173e-06
1.24317e-06
1.24462e-06
1.2461e-06
1.24761e-06
1.24917e-06
1.25076e-06
1.25241e-06
1.25411e-06
1.25584e-06
1.25756e-06
1.25925e-06
1.26085e-06
1.26236e-06
1.26377e-06
1.26515e-06
1.26663e-06
1.2684e-06
1.2709e-06
1.27495e-06
1.28216e-06
1.29524e-06
1.3174e-06
1.35069e-06
1.39444e-06
1.44567e-06
1.50087e-06
1.55714e-06
1.61253e-06
1.6116e-06
1.23595e-06
1.23733e-06
1.23872e-06
1.24012e-06
1.24153e-06
1.24296e-06
1.24441e-06
1.24589e-06
1.24739e-06
1.24894e-06
1.25053e-06
1.25217e-06
1.25386e-06
1.25558e-06
1.25731e-06
1.25901e-06
1.26063e-06
1.26214e-06
1.26357e-06
1.26495e-06
1.26639e-06
1.2681e-06
1.27044e-06
1.27416e-06
1.28071e-06
1.29263e-06
1.31315e-06
1.34462e-06
1.38687e-06
1.43719e-06
1.49201e-06
1.54829e-06
1.60398e-06
1.61601e-06
1.23578e-06
1.23716e-06
1.23855e-06
1.23995e-06
1.24136e-06
1.24279e-06
1.24424e-06
1.24571e-06
1.24721e-06
1.24875e-06
1.25033e-06
1.25197e-06
1.25365e-06
1.25537e-06
1.2571e-06
1.2588e-06
1.26043e-06
1.26196e-06
1.2634e-06
1.26478e-06
1.26621e-06
1.26786e-06
1.27008e-06
1.27354e-06
1.27959e-06
1.29059e-06
1.30977e-06
1.33973e-06
1.38069e-06
1.43016e-06
1.48457e-06
1.54078e-06
1.59664e-06
1.62045e-06
1.23564e-06
1.23702e-06
1.23841e-06
1.23981e-06
1.24122e-06
1.24265e-06
1.2441e-06
1.24557e-06
1.24707e-06
1.2486e-06
1.25018e-06
1.2518e-06
1.25348e-06
1.2552e-06
1.25693e-06
1.25863e-06
1.26027e-06
1.26182e-06
1.26326e-06
1.26465e-06
1.26606e-06
1.26767e-06
1.2698e-06
1.27307e-06
1.27871e-06
1.28899e-06
1.30708e-06
1.33574e-06
1.37553e-06
1.42422e-06
1.47829e-06
1.53449e-06
1.59052e-06
1.6243e-06
1.23691e-06
1.2383e-06
1.2397e-06
1.24112e-06
1.24255e-06
1.24399e-06
1.24546e-06
1.24695e-06
1.24848e-06
1.25006e-06
1.25168e-06
1.25335e-06
1.25507e-06
1.2568e-06
1.25851e-06
1.26015e-06
1.26171e-06
1.26316e-06
1.26454e-06
1.26595e-06
1.26753e-06
1.2696e-06
1.27272e-06
1.27807e-06
1.28781e-06
1.30506e-06
1.33272e-06
1.3716e-06
1.41965e-06
1.47341e-06
1.52955e-06
1.58565e-06
1.62783e-06
1.23683e-06
1.23822e-06
1.23963e-06
1.24105e-06
1.24247e-06
1.24392e-06
1.24539e-06
1.24688e-06
1.2484e-06
1.24997e-06
1.25159e-06
1.25326e-06
1.25497e-06
1.2567e-06
1.25841e-06
1.26007e-06
1.26163e-06
1.26309e-06
1.26447e-06
1.26587e-06
1.26744e-06
1.26945e-06
1.27247e-06
1.27762e-06
1.28697e-06
1.3036e-06
1.3305e-06
1.36865e-06
1.41621e-06
1.46969e-06
1.52575e-06
1.58192e-06
1.63039e-06
1.23818e-06
1.23959e-06
1.241e-06
1.24243e-06
1.24388e-06
1.24534e-06
1.24684e-06
1.24836e-06
1.24993e-06
1.25154e-06
1.25321e-06
1.25492e-06
1.25665e-06
1.25836e-06
1.26002e-06
1.26158e-06
1.26305e-06
1.26443e-06
1.26583e-06
1.26738e-06
1.26937e-06
1.27232e-06
1.27733e-06
1.28643e-06
1.30266e-06
1.32905e-06
1.36672e-06
1.41391e-06
1.46718e-06
1.52317e-06
1.57935e-06
1.63216e-06
1.23816e-06
1.23957e-06
1.24099e-06
1.24243e-06
1.24387e-06
1.24534e-06
1.24683e-06
1.24835e-06
1.24992e-06
1.25153e-06
1.2532e-06
1.25491e-06
1.25663e-06
1.25835e-06
1.26001e-06
1.26157e-06
1.26304e-06
1.26443e-06
1.26582e-06
1.26737e-06
1.26933e-06
1.27226e-06
1.2772e-06
1.28616e-06
1.30218e-06
1.3283e-06
1.3657e-06
1.41266e-06
1.46583e-06
1.52176e-06
1.57784e-06
1.63263e-06
1.23959e-06
1.24101e-06
1.24245e-06
1.2439e-06
1.24536e-06
1.24685e-06
1.24838e-06
1.24994e-06
1.25156e-06
1.25322e-06
1.25493e-06
1.25666e-06
1.25837e-06
1.26003e-06
1.2616e-06
1.26306e-06
1.26445e-06
1.26584e-06
1.26739e-06
1.26936e-06
1.27228e-06
1.27723e-06
1.28619e-06
1.30221e-06
1.32834e-06
1.36574e-06
1.41274e-06
1.46595e-06
1.52189e-06
1.57805e-06
1.63286e-06
1.23963e-06
1.24107e-06
1.2425e-06
1.24395e-06
1.24542e-06
1.24691e-06
1.24844e-06
1.25001e-06
1.25162e-06
1.25329e-06
1.255e-06
1.25673e-06
1.25844e-06
1.2601e-06
1.26166e-06
1.26312e-06
1.26451e-06
1.26591e-06
1.26746e-06
1.26944e-06
1.2724e-06
1.27741e-06
1.2865e-06
1.30273e-06
1.32912e-06
1.36677e-06
1.41394e-06
1.46724e-06
1.52316e-06
1.57929e-06
1.6323e-06
1.23971e-06
1.24115e-06
1.24259e-06
1.24404e-06
1.24551e-06
1.24701e-06
1.24853e-06
1.2501e-06
1.25172e-06
1.25339e-06
1.25511e-06
1.25683e-06
1.25855e-06
1.2602e-06
1.26176e-06
1.26322e-06
1.2646e-06
1.266e-06
1.26757e-06
1.26958e-06
1.2726e-06
1.27775e-06
1.2871e-06
1.30373e-06
1.33062e-06
1.36875e-06
1.41627e-06
1.46974e-06
1.52578e-06
1.58185e-06
1.63041e-06
1.23982e-06
1.24126e-06
1.2427e-06
1.24416e-06
1.24563e-06
1.24713e-06
1.24866e-06
1.25024e-06
1.25186e-06
1.25354e-06
1.25525e-06
1.25698e-06
1.25869e-06
1.26034e-06
1.26189e-06
1.26334e-06
1.26473e-06
1.26613e-06
1.26772e-06
1.26978e-06
1.27291e-06
1.27827e-06
1.28802e-06
1.30529e-06
1.33296e-06
1.37182e-06
1.41983e-06
1.47354e-06
1.52955e-06
1.58553e-06
1.62766e-06
1.23996e-06
1.2414e-06
1.24285e-06
1.24431e-06
1.24579e-06
1.24729e-06
1.24883e-06
1.25041e-06
1.25204e-06
1.25372e-06
1.25544e-06
1.25717e-06
1.25888e-06
1.26052e-06
1.26206e-06
1.26351e-06
1.26489e-06
1.26631e-06
1.26792e-06
1.27005e-06
1.27333e-06
1.27899e-06
1.2893e-06
1.30743e-06
1.33615e-06
1.37598e-06
1.4247e-06
1.4788e-06
1.53499e-06
1.59098e-06
1.62485e-06
1.24013e-06
1.24157e-06
1.24303e-06
1.24449e-06
1.24597e-06
1.24748e-06
1.24903e-06
1.25062e-06
1.25226e-06
1.25394e-06
1.25566e-06
1.2574e-06
1.2591e-06
1.26073e-06
1.26227e-06
1.2637e-06
1.26509e-06
1.26652e-06
1.26817e-06
1.2704e-06
1.27388e-06
1.27995e-06
1.29102e-06
1.31029e-06
1.34037e-06
1.38143e-06
1.43104e-06
1.48558e-06
1.54193e-06
1.59785e-06
1.62168e-06
1.24033e-06
1.24178e-06
1.24324e-06
1.2447e-06
1.24619e-06
1.24771e-06
1.24926e-06
1.25086e-06
1.25251e-06
1.2542e-06
1.25593e-06
1.25766e-06
1.25936e-06
1.26098e-06
1.2625e-06
1.26393e-06
1.26531e-06
1.26676e-06
1.26847e-06
1.27083e-06
1.27456e-06
1.28116e-06
1.29315e-06
1.31379e-06
1.34541e-06
1.3878e-06
1.43824e-06
1.49316e-06
1.54949e-06
1.60522e-06
1.61722e-06
1.24056e-06
1.24202e-06
1.24348e-06
1.24495e-06
1.24644e-06
1.24797e-06
1.24953e-06
1.25114e-06
1.25279e-06
1.2545e-06
1.25623e-06
1.25796e-06
1.25965e-06
1.26126e-06
1.26276e-06
1.26418e-06
1.26557e-06
1.26705e-06
1.26884e-06
1.27135e-06
1.27543e-06
1.28271e-06
1.29589e-06
1.31821e-06
1.3517e-06
1.39566e-06
1.44712e-06
1.50248e-06
1.55889e-06
1.61448e-06
1.61368e-06
1.24082e-06
1.24228e-06
1.24375e-06
1.24523e-06
1.24673e-06
1.24826e-06
1.24983e-06
1.25145e-06
1.25312e-06
1.25483e-06
1.25657e-06
1.25829e-06
1.25997e-06
1.26157e-06
1.26305e-06
1.26446e-06
1.26586e-06
1.26737e-06
1.26926e-06
1.27198e-06
1.2765e-06
1.28463e-06
1.29925e-06
1.32355e-06
1.35911e-06
1.40476e-06
1.45724e-06
1.51303e-06
1.56944e-06
1.62474e-06
1.60993e-06
1.24111e-06
1.24258e-06
1.24405e-06
1.24553e-06
1.24704e-06
1.24858e-06
1.25017e-06
1.2518e-06
1.25348e-06
1.2552e-06
1.25694e-06
1.25866e-06
1.26032e-06
1.2619e-06
1.26337e-06
1.26477e-06
1.26617e-06
1.26774e-06
1.26975e-06
1.27274e-06
1.27781e-06
1.287e-06
1.30335e-06
1.32986e-06
1.36763e-06
1.41491e-06
1.46831e-06
1.52445e-06
1.58072e-06
1.63562e-06
1.60527e-06
1.24143e-06
1.2429e-06
1.24438e-06
1.24587e-06
1.24739e-06
1.24894e-06
1.25053e-06
1.25218e-06
1.25387e-06
1.2556e-06
1.25734e-06
1.25905e-06
1.2607e-06
1.26225e-06
1.2637e-06
1.26509e-06
1.26652e-06
1.26816e-06
1.27033e-06
1.27367e-06
1.27945e-06
1.28994e-06
1.30834e-06
1.33734e-06
1.37742e-06
1.42632e-06
1.4805e-06
1.53675e-06