/*--------------------------------*- C++ -*----------------------------------*\
  =========                 |
  \\      /  F ield         | OpenFOAM: The Open Source CFD Toolbox
   \\    /   O peration     | Website:  https://openfoam.org
    \\  /    A nd           | Version:  7
     \\/     M anipulation  |
\*---------------------------------------------------------------------------*/
FoamFile
{
    version     2.0;
    format      ascii;
    class       volVectorField;
    location    "252000";
    object      vorticity;
}
// * * * * * * * * * * * * * * * * * * * * * * * * * * * * * * * * * * * * * //

dimensions      [0 0 -1 0 0 0 0];

internalField   nonuniform List<vector> 
4764
(
(0.0281329 0.00978542 4.60551e-18)
(0.0283101 0.00885183 -7.8484e-18)
(0.0284689 0.00791862 -4.59627e-18)
(0.0286093 0.00698581 -6.73234e-18)
(0.0287317 0.00605339 -1.20667e-17)
(0.0288363 0.00512135 1.40185e-18)
(0.0261951 0.0185651 4.49401e-18)
(0.0265614 0.017615 -1.65671e-17)
(0.0269053 0.0166634 -1.65167e-17)
(0.0272275 0.0157107 1.1912e-18)
(0.0275284 0.0147573 3.98916e-18)
(0.0278083 0.0138036 -5.7235e-18)
(0.0280678 0.0128496 -7.96761e-18)
(0.0283071 0.0118957 2.10877e-18)
(0.0285265 0.010942 1.42482e-17)
(0.0287266 0.0099885 3.32861e-18)
(0.0289075 0.00903542 -9.98142e-18)
(0.0290694 0.00808276 -6.5686e-18)
(0.0292128 0.00713053 -7.76213e-18)
(0.0293377 0.00617873 -1.29874e-17)
(0.0294444 0.00522735 -1.42601e-19)
(0.0295331 0.00427636 -2.55598e-19)
(0.0296039 0.0033257 -5.03419e-18)
(0.0296568 0.0023753 1.86153e-18)
(0.0296921 0.0014251 -4.03883e-18)
(0.0297097 0.000475022 -2.81516e-18)
(0.0297097 -0.000475017 8.20909e-18)
(0.0296921 -0.0014251 1.43671e-17)
(0.0296569 -0.0023753 1.35397e-17)
(0.0296039 -0.00332569 2.5713e-18)
(0.0295331 -0.00427635 1.12191e-17)
(0.0294444 -0.00522735 6.13694e-19)
(0.0293377 -0.00617873 -4.42807e-18)
(0.0292128 -0.00713052 9.25333e-19)
(0.0290694 -0.00808275 -1.17641e-17)
(0.0267515 0.0189562 3.51468e-18)
(0.0271255 0.0179856 -1.78694e-17)
(0.0274768 0.0170136 -1.83061e-17)
(0.0278059 0.0160405 1.01102e-19)
(0.0281131 0.0150668 4.52646e-18)
(0.0283989 0.0140928 -5.75512e-18)
(0.0286638 0.0131186 -7.91251e-18)
(0.0289081 0.0121445 3.12967e-18)
(0.0291322 0.0111706 1.37433e-17)
(0.0293364 0.0101971 1.8884e-18)
(0.029521 0.00922399 -1.04726e-17)
(0.0296863 0.00825134 -6.08529e-18)
(0.0298326 0.00727917 -7.31387e-18)
(0.0299601 0.00630747 -1.34692e-17)
(0.030069 0.00533623 -7.95731e-19)
(0.0301595 0.0043654 -1.25859e-18)
(0.0302317 0.00339492 -6.53304e-18)
(0.0302857 0.00242473 1.58988e-18)
(0.0303217 0.00145475 -3.66011e-18)
(0.0303397 0.000484905 -3.52378e-18)
(0.0303397 -0.0004849 7.4783e-18)
(0.0303217 -0.00145475 1.38321e-17)
(0.0302857 -0.00242473 1.29496e-17)
(0.0302317 -0.00339492 2.15558e-18)
(0.0301595 -0.00436539 1.26403e-17)
(0.030069 -0.00533622 2.92865e-18)
(0.0299601 -0.00630747 -3.40234e-18)
(0.0298326 -0.00727917 3.65062e-19)
(0.0296863 -0.00825134 -1.24476e-17)
(0.029521 -0.00922399 -1.39341e-17)
(0.0293363 -0.0101971 -5.6862e-18)
(0.0291322 -0.0111706 -5.53145e-18)
(0.0289081 -0.0121445 -8.75828e-18)
(0.0273232 0.0193581 3.27991e-18)
(0.0277054 0.0183665 -1.83016e-17)
(0.0280642 0.0173735 -2.04558e-17)
(0.0284002 0.0163795 -1.99197e-18)
(0.028714 0.0153849 3.79895e-18)
(0.0290059 0.01439 -7.23589e-18)
(0.0292763 0.013395 -8.16865e-18)
(0.0295257 0.0124002 3.90945e-18)
(0.0297544 0.0114056 1.272e-17)
(0.0299629 0.0104114 7.0895e-19)
(0.0301514 0.00941775 -9.67233e-18)
(0.0303201 0.00842457 -4.08164e-18)
(0.0304694 0.0074319 -6.55265e-18)
(0.0305995 0.00643975 -1.3524e-17)
(0.0307107 0.00544809 -5.66691e-19)
(0.030803 0.00445688 -1.31389e-18)
(0.0308767 0.00346604 -7.1254e-18)
(0.0309318 0.00247552 1.29452e-18)
(0.0309686 0.00148522 -3.27219e-18)
(0.0309869 0.00049506 -3.30534e-18)
(0.0309869 -0.000495055 8.19295e-18)
(0.0309686 -0.00148522 1.39436e-17)
(0.0309318 -0.00247551 1.20289e-17)
(0.0308767 -0.00346604 5.7589e-19)
(0.030803 -0.00445687 1.22935e-17)
(0.0307106 -0.00544809 4.25298e-18)
(0.0305995 -0.00643975 -2.6617e-18)
(0.0304694 -0.0074319 -6.60158e-19)
(0.0303201 -0.00842456 -1.26126e-17)
(0.0301513 -0.00941774 -1.45935e-17)
(0.0299629 -0.0104114 -7.23767e-18)
(0.0297544 -0.0114056 -7.48094e-18)
(0.0295257 -0.0124002 -1.04689e-17)
(0.0292763 -0.013395 -1.08775e-17)
(0.0290059 -0.01439 -1.98314e-17)
(0.028714 -0.0153849 -7.01707e-18)
(0.0284002 -0.0163795 -1.39716e-17)
(0.0280642 -0.0173735 -6.39594e-18)
(0.0277054 -0.0183665 -1.36452e-18)
(0.0273232 -0.0193581 7.34548e-18)
(0.0269174 -0.0203479 4.64615e-19)
(0.0264874 -0.0213351 -1.77498e-18)
(0.0260328 -0.0223188 -1.74322e-18)
(0.0255534 -0.0232973 2.56482e-18)
(0.0256601 -0.0236503 1.94981e-17)
(0.0279111 0.0197714 3.32083e-18)
(0.0283015 0.0187582 -1.79049e-17)
(0.028668 0.0177435 -2.25545e-17)
(0.0290113 0.016728 -4.42949e-18)
(0.0293317 0.0157119 3.03209e-18)
(0.0296298 0.0146955 -9.25916e-18)
(0.029906 0.0136792 -8.74207e-18)
(0.0301606 0.012663 4.55863e-18)
(0.0303941 0.0116472 1.20949e-17)
(0.0306069 0.0106318 -3.91813e-19)
(0.0307993 0.00961692 -8.28852e-18)
(0.0309715 0.00860262 -1.62866e-18)
(0.0311239 0.00758889 -6.39805e-18)
(0.0312567 0.00657572 -1.35907e-17)
(0.0313701 0.00556307 -1.96207e-19)
(0.0314644 0.0045509 -9.47378e-19)
(0.0315396 0.00353915 -7.23234e-18)
(0.0315959 0.00252772 1.13149e-18)
(0.0316334 0.00151654 -2.75759e-18)
(0.0316521 0.000505497 -2.36751e-18)
(0.0316521 -0.000505492 9.75431e-18)
(0.0316334 -0.00151653 1.43935e-17)
(0.0315959 -0.00252772 1.12459e-17)
(0.0315396 -0.00353914 -1.25784e-18)
(0.0314644 -0.0045509 1.09705e-17)
(0.0313701 -0.00556307 4.94041e-18)
(0.0312567 -0.00657571 -1.95279e-18)
(0.0311239 -0.00758889 -1.89849e-18)
(0.0309715 -0.00860262 -1.23836e-17)
(0.0307993 -0.00961691 -1.40206e-17)
(0.0306069 -0.0106318 -7.83881e-18)
(0.0303941 -0.0116472 -8.17995e-18)
(0.0301606 -0.012663 -1.04236e-17)
(0.0299059 -0.0136792 -1.28732e-17)
(0.0296298 -0.0146955 -2.14882e-17)
(0.0293317 -0.0157119 -8.45668e-18)
(0.0290113 -0.016728 -1.80235e-17)
(0.028668 -0.0177435 -9.57838e-18)
(0.0283015 -0.0187582 -2.80748e-18)
(0.0279111 -0.0197714 5.71635e-18)
(0.0274966 -0.0207829 -3.51376e-18)
(0.0270572 -0.0217917 -4.62247e-18)
(0.0265928 -0.0227973 -2.43341e-18)
(0.0261034 -0.0237976 1.52947e-18)
(0.0262034 -0.0241787 1.75306e-17)
(0.0285159 0.0201965 2.85541e-18)
(0.0289147 0.019161 -1.72258e-17)
(0.0292891 0.0181241 -2.45059e-17)
(0.0296398 0.0170864 -6.69034e-18)
(0.029967 0.0160482 3.08491e-18)
(0.0302714 0.0150098 -1.06808e-17)
(0.0305534 0.0139714 -9.20787e-18)
(0.0308134 0.0129333 5.71249e-18)
(0.0310519 0.0118956 1.20172e-17)
(0.0312691 0.0108583 -1.34672e-18)
(0.0314655 0.00982173 -6.32104e-18)
(0.0316414 0.00878572 4.74664e-19)
(0.0317969 0.00775032 -6.93801e-18)
(0.0319325 0.00671552 -1.35986e-17)
(0.0320482 0.0056813 4.19769e-19)
(0.0321444 0.00464759 -8.65065e-19)
(0.0322212 0.00361431 -7.37321e-18)
(0.0322786 0.00258139 9.81741e-19)
(0.0323169 0.00154873 -2.13207e-18)
(0.032336 0.000516228 -1.01125e-18)
(0.032336 -0.000516224 1.13934e-17)
(0.0323169 -0.00154873 1.45535e-17)
(0.0322786 -0.00258139 1.09235e-17)
(0.0322212 -0.00361431 -2.41822e-18)
(0.0321444 -0.00464758 9.81126e-18)
(0.0320482 -0.00568129 5.94182e-18)
(0.0319325 -0.00671552 -9.75227e-19)
(0.0317969 -0.00775032 -2.72389e-18)
(0.0316414 -0.00878572 -1.21673e-17)
(0.0314655 -0.00982172 -1.27298e-17)
(0.0312691 -0.0108583 -7.60369e-18)
(0.0310519 -0.0118956 -8.34349e-18)
(0.0308134 -0.0129333 -9.51038e-18)
(0.0305534 -0.0139714 -1.36579e-17)
(0.0302714 -0.0150098 -2.16863e-17)
(0.029967 -0.0160482 -7.25815e-18)
(0.0296398 -0.0170864 -1.9609e-17)
(0.0292891 -0.0181241 -1.10159e-17)
(0.0289147 -0.019161 -2.43528e-18)
(0.0285159 -0.0201965 5.56172e-18)
(0.0280923 -0.0212303 -4.83361e-18)
(0.0276434 -0.0222616 -4.7416e-18)
(0.0271689 -0.0232896 -1.04132e-18)
(0.02667 -0.0243138 3.39197e-18)
(0.0267659 -0.024726 1.79437e-17)
(0.0291382 0.020634 1.81381e-18)
(0.0295457 0.0195755 -1.61592e-17)
(0.0299281 0.0185158 -2.6357e-17)
(0.0302864 0.0174552 -8.11003e-18)
(0.0306206 0.0163942 3.67938e-18)
(0.0309315 0.0153331 -1.22076e-17)
(0.0312196 0.0142721 -9.47296e-18)
(0.0314851 0.0132114 7.60358e-18)
(0.0317285 0.0121511 1.21503e-17)
(0.0319504 0.0110914 -2.14228e-18)
(0.0321509 0.0100324 -4.44526e-18)
(0.0323304 0.00897407 2.07044e-18)
(0.0324892 0.00791638 -8.14459e-18)
(0.0326275 0.00685934 -1.36591e-17)
(0.0327457 0.00580291 1.44513e-18)
(0.0328439 0.00474704 -9.72858e-19)
(0.0329222 0.00369163 -7.2816e-18)
(0.0329809 0.00263661 1.00662e-18)
(0.0330199 0.00158185 -1.66494e-18)
(0.0330394 0.000527267 2.63456e-19)
(0.0330394 -0.000527263 1.27116e-17)
(0.0330199 -0.00158185 1.45518e-17)
(0.0329809 -0.0026366 1.13656e-17)
(0.0329222 -0.00369163 -3.21964e-18)
(0.0328439 -0.00474703 8.41817e-18)
(0.0327457 -0.00580291 7.57093e-18)
(0.0326275 -0.00685934 1.01515e-20)
(0.0324892 -0.00791638 -3.3832e-18)
(0.0323304 -0.00897407 -1.18308e-17)
(0.0321509 -0.0100324 -1.17385e-17)
(0.0319504 -0.0110914 -6.97736e-18)
(0.0317285 -0.0121511 -8.69931e-18)
(0.0314851 -0.0132114 -8.42664e-18)
(0.0312196 -0.0142721 -1.30814e-17)
(0.0309315 -0.0153331 -2.12163e-17)
(0.0306206 -0.0163942 -5.22449e-18)
(0.0302864 -0.0174552 -1.94736e-17)
(0.0299281 -0.0185158 -1.11584e-17)
(0.0295457 -0.0195755 -1.3096e-18)
(0.0291382 -0.020634 6.44351e-18)
(0.0287055 -0.0216909 -4.68703e-18)
(0.0282477 -0.0227459 -3.58028e-18)
(0.0277643 -0.0237985 7.78233e-19)
(0.0272568 -0.0248493 6.36549e-18)
(0.0273467 -0.0252918 1.93483e-17)
(0.0297803 0.0210853 9.34569e-19)
(0.0301954 0.0200024 -1.51202e-17)
(0.030586 0.0189189 -2.79533e-17)
(0.030952 0.0178348 -8.98851e-18)
(0.0312934 0.0167504 3.83897e-18)
(0.0316109 0.0156658 -1.37031e-17)
(0.0319052 0.0145815 -9.68916e-18)
(0.0321763 0.0134976 9.53842e-18)
(0.0324249 0.0124141 1.23959e-17)
(0.0326514 0.0113313 -2.75438e-18)
(0.0328562 0.0102492 -2.92191e-18)
(0.0330394 0.0091679 3.46034e-18)
(0.0332015 0.00808727 -9.66678e-18)
(0.0333428 0.00700734 -1.38473e-17)
(0.0334634 0.00592807 2.37701e-18)
(0.0335636 0.00484938 -9.67841e-19)
(0.0336436 0.0037712 -6.94336e-18)
(0.0337035 0.00269342 1.07923e-18)
(0.0337433 0.00161593 -1.24564e-18)
(0.0337632 0.000538626 1.29084e-18)
(0.0337632 -0.000538622 1.32899e-17)
(0.0337433 -0.00161593 1.42462e-17)
(0.0337035 -0.00269342 1.23513e-17)
(0.0336436 -0.0037712 -3.52046e-18)
(0.0335636 -0.00484938 7.30508e-18)
(0.0334634 -0.00592806 9.42956e-18)
(0.0333428 -0.00700733 6.67962e-19)
(0.0332015 -0.00808727 -3.93397e-18)
(0.0330394 -0.0091679 -1.13027e-17)
(0.0328562 -0.0102492 -1.11381e-17)
(0.0326514 -0.0113313 -6.30234e-18)
(0.0324249 -0.0124141 -8.69073e-18)
(0.0321763 -0.0134976 -7.51219e-18)
(0.0319051 -0.0145815 -1.28203e-17)
(0.0316109 -0.0156658 -2.14924e-17)
(0.0312934 -0.0167504 -4.1953e-18)
(0.030952 -0.0178348 -1.92809e-17)
(0.030586 -0.0189189 -1.10042e-17)
(0.0301954 -0.0200024 -5.33783e-19)
(0.0297803 -0.0210853 7.38874e-18)
(0.0293395 -0.0221671 -4.36429e-18)
(0.0288742 -0.0232481 -2.98451e-18)
(0.0283831 -0.0243276 1.32422e-18)
(0.027867 -0.0254065 9.24013e-18)
(0.027946 -0.0258758 2.01072e-17)
(0.0304462 0.0215536 -1.93859e-19)
(0.0308676 0.020444 -1.47274e-17)
(0.0312654 0.0193352 -2.92653e-17)
(0.031638 0.0182261 -1.00637e-17)
(0.0319863 0.0171172 3.53475e-18)
(0.0323106 0.0160085 -1.45924e-17)
(0.0326111 0.0149001 -9.82956e-18)
(0.032888 0.0137922 1.07094e-17)
(0.0331419 0.0126849 1.26338e-17)
(0.0333732 0.0115783 -2.85431e-18)
(0.0335823 0.0104725 -1.69259e-18)
(0.0337694 0.00936746 4.43952e-18)
(0.0339349 0.00826321 -1.1148e-17)
(0.0340791 0.0071597 -1.40018e-17)
(0.0342023 0.00605691 3.1253e-18)
(0.0343046 0.00495474 -6.82342e-19)
(0.0343862 0.00385311 -6.49243e-18)
(0.0344473 0.00275191 1.08434e-18)
(0.034488 0.00165102 -7.48101e-19)
(0.0345083 0.00055032 2.13695e-18)
(0.0345083 -0.000550316 1.32215e-17)
(0.034488 -0.00165102 1.3476e-17)
(0.0344473 -0.00275191 1.33216e-17)
(0.0343862 -0.00385311 -3.32439e-18)
(0.0343046 -0.00495474 6.94536e-18)
(0.0342023 -0.0060569 1.12309e-17)
(0.0340791 -0.0071597 9.25593e-19)
(0.0339349 -0.0082632 -4.23504e-18)
(0.0337694 -0.00936746 -1.09303e-17)
(0.0335823 -0.0104725 -1.10274e-17)
(0.0333732 -0.0115783 -5.44472e-18)
(0.0331419 -0.0126849 -8.40044e-18)
(0.032888 -0.0137922 -6.81705e-18)
(0.0326111 -0.0149001 -1.27106e-17)
(0.0323106 -0.0160085 -2.20102e-17)
(0.0319863 -0.0171172 -3.84034e-18)
(0.031638 -0.0182261 -1.95975e-17)
(0.0312654 -0.0193352 -1.08639e-17)
(0.0308676 -0.020444 -6.21553e-19)
(0.0304462 -0.0215536 7.84435e-18)
(0.0299988 -0.0226625 -3.75625e-18)
(0.0295258 -0.0237708 -2.42912e-18)
(0.0290263 -0.0248779 1.2531e-18)
(0.0284999 -0.0259843 1.17797e-17)
(0.0285643 -0.0264779 1.99348e-17)
(0.031139 0.022041 -1.86207e-18)
(0.0315673 0.020904 -1.45392e-17)
(0.0319708 0.0197676 -3.01756e-17)
(0.0323487 0.0186316 -1.11277e-17)
(0.0327027 0.0174965 3.68685e-18)
(0.0330329 0.0163622 -1.53108e-17)
(0.0333387 0.0152286 -1.05059e-17)
(0.0336212 0.0140958 1.07526e-17)
(0.0338805 0.0129639 1.31626e-17)
(0.0341166 0.0118327 -2.38122e-18)
(0.0343301 0.0107024 -4.9797e-19)
(0.0345212 0.009573 5.05412e-18)
(0.0346902 0.00844441 -1.26751e-17)
(0.0348374 0.00731663 -1.39189e-17)
(0.0349632 0.0061896 3.77241e-18)
(0.0350676 0.00506325 -3.72856e-19)
(0.035151 0.00393747 -6.30009e-18)
(0.0352133 0.00281215 9.9324e-19)
(0.0352548 0.00168715 -2.55895e-19)
(0.0352756 0.000562364 2.77865e-18)
(0.0352756 -0.00056236 1.28899e-17)
(0.0352548 -0.00168715 1.25703e-17)
(0.0352133 -0.00281214 1.38648e-17)
(0.035151 -0.00393747 -2.86449e-18)
(0.0350676 -0.00506325 7.08905e-18)
(0.0349632 -0.0061896 1.27672e-17)
(0.0348374 -0.00731662 1.10695e-18)
(0.0346902 -0.00844441 -4.28271e-18)
(0.0345212 -0.009573 -1.03169e-17)
(0.0343301 -0.0107024 -1.14801e-17)
(0.0341166 -0.0118327 -4.56479e-18)
(0.0338804 -0.0129639 -7.90101e-18)
(0.0336212 -0.0140958 -6.47481e-18)
(0.0333387 -0.0152286 -1.32067e-17)
(0.0330328 -0.0163622 -2.27128e-17)
(0.0327027 -0.0174965 -3.79516e-18)
(0.0323487 -0.0186316 -1.98902e-17)
(0.0319708 -0.0197676 -1.07881e-17)
(0.0315673 -0.020904 -1.29738e-18)
(0.031139 -0.022041 7.48943e-18)
(0.0306842 -0.0231777 -3.29892e-18)
(0.0302019 -0.0243133 -2.02448e-18)
(0.029692 -0.0254474 1.40585e-18)
(0.0291536 -0.0265807 1.40381e-17)
(0.029202 -0.0270984 1.91734e-17)
(0.0318579 0.0225469 -3.71619e-18)
(0.0322947 0.0213823 -1.3981e-17)
(0.0327047 0.0202178 -3.07777e-17)
(0.0330886 0.0190539 -1.20084e-17)
(0.0334478 0.0178911 3.71604e-18)
(0.0337825 0.0167295 -1.65461e-17)
(0.0340926 0.015569 -1.15241e-17)
(0.0343797 0.0144099 1.05936e-17)
(0.0346435 0.0132521 1.37563e-17)
(0.0348839 0.0120952 -1.79051e-18)
(0.0351012 0.0109395 9.0218e-19)
(0.035296 0.00978485 5.07221e-18)
(0.0354685 0.00863116 -1.466e-17)
(0.0356189 0.00747835 -1.34749e-17)
(0.0357472 0.00632635 4.44306e-18)
(0.0358539 0.00517507 -2.85025e-19)
(0.0359389 0.0040244 -6.33862e-18)
(0.0360026 0.00287422 8.87374e-19)
(0.036045 0.00172439 2.7634e-19)
(0.0360661 0.000574773 3.16453e-18)
(0.0360661 -0.000574769 1.24864e-17)
(0.036045 -0.00172438 1.18043e-17)
(0.0360026 -0.00287421 1.40462e-17)
(0.0359389 -0.00402439 -2.27698e-18)
(0.0358539 -0.00517506 7.48568e-18)
(0.0357472 -0.00632634 1.41259e-17)
(0.0356189 -0.00747834 1.35432e-18)
(0.0354685 -0.00863116 -4.36357e-18)
(0.035296 -0.00978484 -9.20548e-18)
(0.0351012 -0.0109395 -1.19524e-17)
(0.0348839 -0.0120952 -4.13905e-18)
(0.0346435 -0.0132521 -7.53713e-18)
(0.0343797 -0.0144099 -6.05956e-18)
(0.0340926 -0.015569 -1.39425e-17)
(0.0337825 -0.0167295 -2.39041e-17)
(0.0334478 -0.0178911 -4.16584e-18)
(0.0330886 -0.0190539 -2.0115e-17)
(0.0327047 -0.0202178 -1.03484e-17)
(0.0322947 -0.0213823 -1.78547e-18)
(0.0318579 -0.0225469 6.50437e-18)
(0.0313936 -0.0237111 -3.1988e-18)
(0.0309008 -0.024874 -1.38548e-18)
(0.0303791 -0.0260353 2.11829e-18)
(0.0298275 -0.0271953 1.57883e-17)
(0.0298597 -0.0277378 1.8227e-17)
(0.032601 0.0230698 -5.48185e-18)
(0.0330476 0.0218774 -1.28272e-17)
(0.033466 0.0206848 -3.14744e-17)
(0.0338577 0.0194929 -1.26454e-17)
(0.0342231 0.0183019 3.05472e-18)
(0.034563 0.0171121 -1.77953e-17)
(0.0348779 0.0159236 -1.19877e-17)
(0.035169 0.0147368 1.07483e-17)
(0.0354363 0.0135516 1.43304e-17)
(0.0356799 0.0123677 -1.734e-18)
(0.0359001 0.0111852 2.49104e-18)
(0.0360981 0.0100041 4.77771e-18)
(0.0362736 0.0088243 -1.65604e-17)
(0.0364266 0.00764549 -1.27226e-17)
(0.0365572 0.0064676 5.02109e-18)
(0.0366657 0.00529052 -6.3994e-19)
(0.0367522 0.00411412 -6.47992e-18)
(0.036817 0.00293826 8.06178e-19)
(0.0368601 0.0017628 7.70042e-19)
(0.0368816 0.000587574 3.37956e-18)
(0.0368816 -0.00058757 1.2082e-17)
(0.0368601 -0.00176279 1.11553e-17)
(0.036817 -0.00293826 1.42364e-17)
(0.0367522 -0.00411411 -1.49406e-18)
(0.0366657 -0.00529051 7.8333e-18)
(0.0365572 -0.00646759 1.50358e-17)
(0.0364266 -0.00764548 1.59699e-18)
(0.0362736 -0.0088243 -4.49159e-18)
(0.0360981 -0.0100041 -7.50739e-18)
(0.0359001 -0.0111852 -1.21005e-17)
(0.0356799 -0.0123677 -4.27359e-18)
(0.0354363 -0.0135516 -7.03201e-18)
(0.035169 -0.0147368 -5.43578e-18)
(0.0348779 -0.0159236 -1.37864e-17)
(0.034563 -0.0171121 -2.5089e-17)
(0.0342231 -0.0183019 -5.11437e-18)
(0.0338577 -0.0194929 -2.08357e-17)
(0.033466 -0.0206848 -9.63455e-18)
(0.0330476 -0.0218774 -1.89452e-18)
(0.032601 -0.0230698 5.13492e-18)
(0.0321261 -0.0242617 -3.55796e-18)
(0.0316217 -0.0254523 7.29909e-20)
(0.0310874 -0.0266412 3.20108e-18)
(0.030522 -0.0278283 1.70845e-17)
(0.030538 -0.0283968 1.72036e-17)
(0.0333679 0.0236094 -7.51215e-18)
(0.033825 0.0223886 -1.16501e-17)
(0.0342531 0.0211676 -3.20636e-17)
(0.0346535 0.0199472 -1.32432e-17)
(0.0350267 0.0187277 1.97358e-18)
(0.0353734 0.0175094 -1.88839e-17)
(0.0356945 0.0162926 -1.20805e-17)
(0.0359906 0.0150773 1.10162e-17)
(0.036262 0.0138637 1.48499e-17)
(0.0365092 0.0126517 -2.13639e-18)
(0.0367327 0.0114413 3.93048e-18)
(0.0369334 0.0102326 4.44182e-18)
(0.0371113 0.00902531 -1.82992e-17)
(0.0372662 0.00781929 -1.18e-17)
(0.0373985 0.00661437 5.64287e-18)
(0.0375084 0.00541041 -1.44521e-18)
(0.037596 0.00420724 -6.48218e-18)
(0.0376616 0.00300471 9.54169e-19)
(0.0377053 0.00180264 1.07037e-18)
(0.0377271 0.000600852 3.20635e-18)
(0.0377271 -0.000600848 1.18215e-17)
(0.0377053 -0.00180264 1.08634e-17)
(0.0376616 -0.00300471 1.46444e-17)
(0.037596 -0.00420724 -7.57457e-19)
(0.0375084 -0.0054104 7.83495e-18)
(0.0373985 -0.00661437 1.55397e-17)
(0.0372662 -0.00781929 1.63416e-18)
(0.0371113 -0.00902531 -4.45137e-18)
(0.0369334 -0.0102326 -5.36002e-18)
(0.0367327 -0.0114413 -1.20017e-17)
(0.0365092 -0.0126517 -4.88227e-18)
(0.036262 -0.0138637 -6.62516e-18)
(0.0359906 -0.0150773 -4.79753e-18)
(0.0356945 -0.0162926 -1.3114e-17)
(0.0353734 -0.0175094 -2.57101e-17)
(0.0350267 -0.0187277 -6.12294e-18)
(0.0346535 -0.0199472 -2.2102e-17)
(0.0342531 -0.0211676 -9.11398e-18)
(0.033825 -0.0223886 -1.62054e-18)
(0.0333679 -0.0236094 3.64666e-18)
(0.0328816 -0.0248296 -3.80776e-18)
(0.0323649 -0.0260486 1.67032e-18)
(0.0318174 -0.0272657 4.40803e-18)
(0.0312377 -0.0284805 1.84444e-17)
(0.0312376 -0.0290763 1.60215e-17)
(0.0336605 0.0254152 1.48133e-18)
(0.0341588 0.0241658 -9.83333e-18)
(0.034627 0.0229159 -1.08126e-17)
(0.0350654 0.0216659 -3.2573e-17)
(0.0354754 0.0204164 -1.38314e-17)
(0.0358572 0.0191678 3.80184e-19)
(0.0362118 0.0179204 -1.97124e-17)
(0.0365401 0.0166746 -1.20032e-17)
(0.0368423 0.0154302 1.12803e-17)
(0.0371192 0.0141877 1.57222e-17)
(0.0373713 0.012947 -2.95203e-18)
(0.0375992 0.0117079 4.88912e-18)
(0.0378032 0.0104705 4.55221e-18)
(0.0379837 0.00923476 -1.97633e-17)
(0.038141 0.00800044 -1.08207e-17)
(0.0382752 0.00676738 6.11066e-18)
(0.0383867 0.00553541 -2.4794e-18)
(0.0384757 0.00430436 -6.51836e-18)
(0.0385422 0.00307402 1.18451e-18)
(0.0385865 0.0018442 1.29628e-18)
(0.0386086 0.000614701 2.78761e-18)
(0.0386086 -0.000614697 1.18578e-17)
(0.0385865 -0.0018442 1.1101e-17)
(0.0385422 -0.00307402 1.50858e-17)
(0.0384757 -0.00430435 -4.25274e-19)
(0.0383867 -0.00553541 7.39761e-18)
(0.0382752 -0.00676738 1.57583e-17)
(0.038141 -0.00800043 1.54171e-18)
(0.0379837 -0.00923475 -4.34763e-18)
(0.0378032 -0.0104705 -3.01023e-18)
(0.0375992 -0.0117079 -1.17204e-17)
(0.0373713 -0.012947 -5.86744e-18)
(0.0371192 -0.0141877 -6.51105e-18)
(0.0368423 -0.0154302 -4.58409e-18)
(0.0365401 -0.0166746 -1.21361e-17)
(0.0362118 -0.0179204 -2.57789e-17)
(0.0358572 -0.0191678 -7.40826e-18)
(0.0354754 -0.0204164 -2.35133e-17)
(0.0350654 -0.0216659 -8.78693e-18)
(0.034627 -0.0229159 -1.32485e-18)
(0.0341588 -0.0241658 1.66488e-18)
(0.0336605 -0.0254152 -4.0479e-18)
(0.0331312 -0.0266632 2.87203e-18)
(0.0325701 -0.0279093 5.16651e-18)
(0.0319756 -0.0291527 1.98465e-17)
(0.0319596 -0.0297772 1.52127e-17)
(0.034464 0.0260191 -1.40038e-18)
(0.0349746 0.0247397 -1.19468e-17)
(0.0354543 0.0234599 -9.76864e-18)
(0.0359036 0.0221799 -3.31449e-17)
(0.0363235 0.0209006 -1.46351e-17)
(0.0367146 0.0196221 -1.52963e-18)
(0.0370777 0.0183449 -2.01084e-17)
(0.0374137 0.0170692 -1.12755e-17)
(0.0377229 0.0157952 1.15249e-17)
(0.038006 0.014523 1.65638e-17)
(0.0382638 0.0132526 -4.30015e-18)
(0.0384967 0.0119841 5.34948e-18)
(0.0387049 0.0107173 4.87017e-18)
(0.038889 0.00945213 -2.09162e-17)
(0.0390494 0.00818858 -1.0049e-17)
(0.0391863 0.00692639 6.45866e-18)
(0.0393 0.00566539 -3.39758e-18)
(0.0393906 0.00440537 -6.65621e-18)
(0.0394585 0.00314613 1.49306e-18)
(0.0395036 0.00188746 1.44233e-18)
(0.0395261 0.000629115 2.38076e-18)
(0.0395261 -0.000629111 1.22926e-17)
(0.0395036 -0.00188745 1.14432e-17)
(0.0394585 -0.00314613 1.52462e-17)
(0.0393906 -0.00440537 -3.88805e-19)
(0.0393 -0.00566538 6.9155e-18)
(0.0391863 -0.00692639 1.6192e-17)
(0.0390494 -0.00818857 1.51668e-18)
(0.038889 -0.00945213 -4.55627e-18)
(0.0387049 -0.0107173 -1.27297e-18)
(0.0384967 -0.0119841 -1.1419e-17)
(0.0382638 -0.0132526 -6.68271e-18)
(0.038006 -0.014523 -6.50231e-18)
(0.0377229 -0.0157952 -4.77315e-18)
(0.0374137 -0.0170692 -1.08503e-17)
(0.0370777 -0.0183449 -2.54625e-17)
(0.0367146 -0.0196221 -8.84608e-18)
(0.0363235 -0.0209006 -2.4423e-17)
(0.0359036 -0.0221799 -8.71526e-18)
(0.0354543 -0.0234599 -1.39483e-18)
(0.0349746 -0.0247397 -3.47736e-19)
(0.034464 -0.0260191 -4.69423e-18)
(0.0339215 -0.0272971 3.31461e-18)
(0.0333464 -0.0285732 5.37424e-18)
(0.032737 -0.0298463 2.15166e-17)
(0.032705 -0.0305006 1.49152e-17)
(0.0352931 0.0266422 -2.93446e-18)
(0.0358164 0.0253319 -1.37589e-17)
(0.0363079 0.0240211 -8.43114e-18)
(0.0367684 0.0227103 -3.32378e-17)
(0.0371987 0.0214001 -1.56122e-17)
(0.0375994 0.0200909 -3.53146e-18)
(0.0379715 0.018783 -2.02839e-17)
(0.0383156 0.0174767 -1.04845e-17)
(0.0386322 0.016172 1.18119e-17)
(0.0389222 0.0148693 1.70884e-17)
(0.039186 0.0135685 -5.95215e-18)
(0.0394244 0.0122696 5.44643e-18)
(0.0396374 0.0109724 5.26184e-18)
(0.0398256 0.00967703 -2.16594e-17)
(0.0399896 0.0083833 -9.50827e-18)
(0.0401295 0.00709102 7.05777e-18)
(0.0402457 0.00579999 -4.28159e-18)
(0.0403384 0.00451001 -6.72231e-18)
(0.0404077 0.00322084 1.90566e-18)
(0.0404538 0.00193227 1.21798e-18)
(0.0404769 0.000644051 2.11383e-18)
(0.0404769 -0.000644047 1.29103e-17)
(0.0404538 -0.00193226 1.15307e-17)
(0.0404077 -0.00322084 1.54179e-17)
(0.0403384 -0.00451 -3.07431e-19)
(0.0402457 -0.00579998 6.31399e-18)
(0.0401295 -0.00709101 1.69247e-17)
(0.0399896 -0.00838329 1.68176e-18)
(0.0398256 -0.00967702 -5.04246e-18)
(0.0396374 -0.0109724 -2.5934e-19)
(0.0394244 -0.0122696 -1.10174e-17)
(0.039186 -0.0135685 -7.12992e-18)
(0.0389222 -0.0148693 -6.63042e-18)
(0.0386322 -0.016172 -5.18315e-18)
(0.0383156 -0.0174767 -9.51481e-18)
(0.0379715 -0.018783 -2.53072e-17)
(0.0375994 -0.0200909 -1.02331e-17)
(0.0371987 -0.0214001 -2.46955e-17)
(0.0367684 -0.0227103 -8.46613e-18)
(0.0363079 -0.0240211 -1.75434e-18)
(0.0358164 -0.0253319 -2.05151e-18)
(0.0352931 -0.0266422 -5.2908e-18)
(0.0347372 -0.0279513 3.1687e-18)
(0.0341478 -0.0292583 5.18097e-18)
(0.0335232 -0.0305622 2.34508e-17)
(0.033475 -0.0312476 1.46011e-17)
(0.0355796 0.0286269 2.98488e-17)
(0.0361493 0.0272857 -3.23501e-18)
(0.0366856 0.0259433 -1.5169e-17)
(0.0371893 0.0246005 -6.92624e-18)
(0.0376612 0.0232578 -3.29217e-17)
(0.0381021 0.0219158 -1.63927e-17)
(0.0385128 0.0205748 -5.58875e-18)
(0.0388941 0.0192352 -2.05482e-17)
(0.0392467 0.0178973 -9.33235e-18)
(0.0395711 0.0165611 1.18707e-17)
(0.0398681 0.0152268 1.68706e-17)
(0.0401384 0.0138946 -7.39617e-18)
(0.0403825 0.0125644 5.78342e-18)
(0.0406006 0.011236 5.70287e-18)
(0.0407933 0.00990938 -2.23245e-17)
(0.0409611 0.00858452 -8.79519e-18)
(0.0411044 0.00726117 7.81584e-18)
(0.0412233 0.00593912 -5.13571e-18)
(0.0413181 0.00461817 -7.02259e-18)
(0.0413891 0.00329808 2.31502e-18)
(0.0414363 0.0019786 9.7819e-19)
(0.0414599 0.000659493 2.12292e-18)
(0.0414599 -0.000659489 1.35544e-17)
(0.0414363 -0.00197859 1.12987e-17)
(0.0413891 -0.00329807 1.56717e-17)
(0.0413181 -0.00461817 -1.49254e-19)
(0.0412233 -0.00593912 5.69842e-18)
(0.0411044 -0.00726116 1.78035e-17)
(0.0409612 -0.00858451 2.05758e-18)
(0.0407933 -0.00990938 -5.80694e-18)
(0.0406006 -0.011236 1.86812e-19)
(0.0403825 -0.0125644 -1.0468e-17)
(0.0401384 -0.0138946 -7.58829e-18)
(0.0398681 -0.0152268 -7.04288e-18)
(0.0395711 -0.0165611 -5.28502e-18)
(0.0392467 -0.0178973 -7.84637e-18)
(0.0388941 -0.0192352 -2.54908e-17)
(0.0385128 -0.0205748 -1.16587e-17)
(0.0381021 -0.0219158 -2.46735e-17)
(0.0376612 -0.0232578 -7.93481e-18)
(0.0371893 -0.0246005 -2.19107e-18)
(0.0366856 -0.0259433 -3.6125e-18)
(0.0361493 -0.0272857 -5.35262e-18)
(0.0355796 -0.0286269 2.41302e-18)
(0.0349756 -0.029966 4.99778e-18)
(0.0343355 -0.0313019 2.50212e-17)
(0.0342708 -0.0320195 1.45715e-17)
(0.0364504 0.0293251 2.8295e-17)
(0.0370341 0.0279506 -3.125e-18)
(0.0375837 0.026575 -1.65651e-17)
(0.0380999 0.0251991 -5.40327e-18)
(0.0385835 0.0238234 -3.2557e-17)
(0.0390354 0.0224484 -1.75403e-17)
(0.0394563 0.0210746 -7.45208e-18)
(0.0398469 0.0197022 -2.06854e-17)
(0.0402082 0.0183316 -8.21439e-18)
(0.0405407 0.0169628 1.17918e-17)
(0.040845 0.0155961 1.60145e-17)
(0.041122 0.0142315 -8.79924e-18)
(0.041372 0.0128688 6.60468e-18)
(0.0415954 0.0115082 6.03858e-18)
(0.0417929 0.0101494 -2.27271e-17)
(0.0419647 0.00879236 -8.18855e-18)
(0.0421114 0.00743693 8.23806e-18)
(0.0422332 0.00608286 -5.83863e-18)
(0.0423303 0.00472992 -7.43508e-18)
(0.042403 0.00337787 2.53241e-18)
(0.0424513 0.00202647 9.15098e-19)
(0.0424755 0.000675447 2.53955e-18)
(0.0424755 -0.000675443 1.42483e-17)
(0.0424513 -0.00202646 1.07484e-17)
(0.042403 -0.00337786 1.57209e-17)
(0.0423303 -0.00472991 2.23495e-19)
(0.0422332 -0.00608285 5.32911e-18)
(0.0421114 -0.00743692 1.84156e-17)
(0.0419647 -0.00879236 2.25033e-18)
(0.0417929 -0.0101494 -6.49793e-18)
(0.0415954 -0.0115082 3.2813e-19)
(0.041372 -0.0128688 -9.50265e-18)
(0.041122 -0.0142315 -8.21649e-18)
(0.040845 -0.0155961 -8.04403e-18)
(0.0405407 -0.0169628 -5.10433e-18)
(0.0402082 -0.0183316 -5.95387e-18)
(0.0398469 -0.0197022 -2.5403e-17)
(0.0394563 -0.0210746 -1.32516e-17)
(0.0390354 -0.0224484 -2.47001e-17)
(0.0385835 -0.0238234 -7.08454e-18)
(0.0380999 -0.0251991 -2.35825e-18)
(0.0375837 -0.026575 -5.19235e-18)
(0.0370342 -0.0279506 -4.93674e-18)
(0.0364504 -0.0293251 1.34206e-18)
(0.0358313 -0.0306975 4.71998e-18)
(0.0351754 -0.0320667 2.62909e-17)
(0.035094 -0.0328178 1.47221e-17)
(0.0367165 0.0314542 2.94227e-17)
(0.037351 0.0300472 2.77698e-17)
(0.0379493 0.0286383 -3.21956e-18)
(0.0385124 0.0272282 -1.77675e-17)
(0.0390414 0.025818 -3.91622e-18)
(0.039537 0.0244081 -3.27028e-17)
(0.0400001 0.022999 -1.91454e-17)
(0.0404314 0.0215911 -9.22002e-18)
(0.0408317 0.0201849 -2.00817e-17)
(0.0412019 0.0187804 -7.30821e-18)
(0.0415426 0.017378 1.16451e-17)
(0.0418545 0.0159776 1.47625e-17)
(0.0421382 0.0145794 -1.00567e-17)
(0.0423943 0.0131834 8.05843e-18)
(0.0426233 0.0117894 6.13491e-18)
(0.0428256 0.0103973 -2.28686e-17)
(0.0430016 0.0090071 -8.00822e-18)
(0.0431519 0.00761852 8.16409e-18)
(0.0432766 0.00623135 -6.18061e-18)
(0.0433761 0.00484537 -7.57317e-18)
(0.0434505 0.00346031 2.58743e-18)
(0.0435 0.00207592 8.98698e-19)
(0.0435248 0.00069193 3.06982e-18)
(0.0435248 -0.000691925 1.50672e-17)
(0.0435 -0.00207591 9.96406e-18)
(0.0434505 -0.0034603 1.54423e-17)
(0.0433761 -0.00484536 9.2816e-19)
(0.0432766 -0.00623135 5.62026e-18)
(0.0431519 -0.00761851 1.85692e-17)
(0.0430016 -0.0090071 1.85236e-18)
(0.0428256 -0.0103973 -7.14046e-18)
(0.0426233 -0.0117894 3.57217e-19)
(0.0423943 -0.0131834 -7.75559e-18)
(0.0421382 -0.0145794 -8.74486e-18)
(0.0418545 -0.0159776 -9.65015e-18)
(0.0415426 -0.017378 -5.21608e-18)
(0.0412019 -0.0187804 -3.96928e-18)
(0.0408317 -0.0201849 -2.43912e-17)
(0.0404314 -0.0215911 -1.50059e-17)
(0.0400001 -0.022999 -2.53669e-17)
(0.039537 -0.0244081 -6.29044e-18)
(0.0390414 -0.025818 -2.24437e-18)
(0.0385124 -0.0272282 -6.5393e-18)
(0.0379493 -0.0286383 -4.91687e-18)
(0.037351 -0.0300472 8.35091e-19)
(0.0367166 -0.0314542 4.88754e-18)
(0.0360444 -0.032858 2.7688e-17)
(0.0359459 -0.0336437 1.42116e-17)
(0.037633 0.0322375 2.94758e-17)
(0.0382832 0.0307947 2.75468e-17)
(0.0388964 0.0293499 -4.09278e-18)
(0.0394735 0.0279042 -1.88256e-17)
(0.0400156 0.0264583 -3.14693e-18)
(0.0405235 0.0250129 -3.3012e-17)
(0.040998 0.0235685 -2.05729e-17)
(0.04144 0.0221254 -1.06277e-17)
(0.0418502 0.020684 -1.91616e-17)
(0.0422295 0.0192446 -6.69465e-18)
(0.0425786 0.0178072 1.14819e-17)
(0.0428982 0.0163721 1.33168e-17)
(0.0431889 0.0149392 -1.08849e-17)
(0.0434513 0.0135086 9.74651e-18)
(0.0436858 0.0120801 6.22868e-18)
(0.0438931 0.0106536 -2.2839e-17)
(0.0440735 0.00922907 -8.21951e-18)
(0.0442274 0.00780622 7.64696e-18)
(0.0443552 0.00638485 -5.93743e-18)
(0.0444571 0.0049647 -6.897e-18)
(0.0445333 0.00354552 2.38337e-18)
(0.044584 0.00212703 4.70949e-19)
(0.0446093 0.000708967 3.31782e-18)
(0.0446093 -0.000708962 1.59728e-17)
(0.044584 -0.00212703 9.33424e-18)
(0.0445333 -0.00354552 1.4917e-17)
(0.0444571 -0.00496469 1.75761e-18)
(0.0443552 -0.00638484 6.37819e-18)
(0.0442274 -0.00780622 1.84907e-17)
(0.0440735 -0.00922907 1.14215e-18)
(0.0438931 -0.0106536 -7.69174e-18)
(0.0436858 -0.0120801 2.03957e-19)
(0.0434513 -0.0135086 -5.70846e-18)