/*--------------------------------*- C++ -*----------------------------------*\
  =========                 |
  \\      /  F ield         | OpenFOAM: The Open Source CFD Toolbox
   \\    /   O peration     | Website:  https://openfoam.org
    \\  /    A nd           | Version:  7
     \\/     M anipulation  |
\*---------------------------------------------------------------------------*/
FoamFile
{
    version     2.0;
    format      ascii;
    class       volScalarField;
    location    "156000";
    object      p;
}
// * * * * * * * * * * * * * * * * * * * * * * * * * * * * * * * * * * * * * //

dimensions      [0 2 -2 0 0 0 0];

internalField   nonuniform List<scalar> 
4838
(
-1.34064e-18
-1.36367e-18
-1.37073e-18
-1.40338e-18
-1.38226e-18
-1.4178e-18
-1.36951e-18
-1.34158e-18
-1.30865e-18
-1.41282e-18
-1.34519e-18
-1.3431e-18
-1.34896e-18
-1.30574e-18
-1.173e-18
-1.21611e-18
-1.48564e-18
-1.49606e-18
-1.39036e-18
-1.50852e-18
-1.48253e-18
-1.08811e-18
-1.23201e-18
-1.3088e-18
-1.33834e-18
-1.51179e-18
-1.31666e-18
-1.30007e-18
-1.23164e-18
-1.07938e-18
-1.42059e-18
-1.32985e-18
-1.19675e-18
-1.51395e-18
-1.40381e-18
-1.42043e-18
-1.27842e-18
-1.41985e-18
-1.3923e-18
-1.40919e-18
-1.31631e-18
-1.39345e-18
-1.29227e-18
-1.34779e-18
-1.41448e-18
-1.36375e-18
-1.33853e-18
-1.35552e-18
-1.35488e-18
-1.35951e-18
-1.35304e-18
-1.37913e-18
-1.33126e-18
-1.35757e-18
-1.35988e-18
-1.40411e-18
-1.36959e-18
-1.36052e-18
-1.35878e-18
-1.36808e-18
-1.3502e-18
-1.35276e-18
-1.36167e-18
-1.34283e-18
-1.3197e-18
-1.32062e-18
-1.41484e-18
-1.23224e-18
-1.15742e-18
-1.18232e-18
-1.29826e-18
-1.29061e-18
-1.33048e-18
-1.3818e-18
-1.18619e-18
-1.34829e-18
-1.10976e-18
-1.38563e-18
-1.32577e-18
-1.295e-18
-1.35598e-18
-1.4232e-18
-1.31048e-18
-1.23775e-18
-1.22745e-18
-1.32199e-18
-1.32703e-18
-1.34364e-18
-1.34976e-18
-1.36281e-18
-1.40886e-18
-1.40982e-18
-1.35426e-18
-1.35726e-18
-1.35818e-18
-1.33591e-18
-1.30645e-18
-1.33272e-18
-1.30854e-18
-1.35727e-18
-1.32028e-18
-1.31442e-18
-1.33628e-18
-1.34051e-18
-1.31896e-18
-1.34572e-18
-1.34971e-18
-1.37197e-18
-1.40903e-18
-1.3967e-18
-1.34457e-18
-1.32192e-18
-1.39623e-18
-1.3595e-18
-1.33005e-18
-1.27733e-18
-1.32629e-18
-1.29363e-18
-1.22438e-18
-1.27989e-18
-1.31177e-18
-1.333e-18
-1.38508e-18
-1.23278e-18
-1.17442e-18
-1.21561e-18
-1.36428e-18
-1.42392e-18
-1.35369e-18
-1.39166e-18
-1.34935e-18
-1.33431e-18
-1.32547e-18
-1.30752e-18
-1.30701e-18
-1.32685e-18
-1.31138e-18
-1.27376e-18
-1.31774e-18
-1.32131e-18
-1.31927e-18
-1.28916e-18
-1.33965e-18
-1.37533e-18
-1.35136e-18
-1.3408e-18
-1.34001e-18
-1.35249e-18
-1.36601e-18
-1.39021e-18
-1.3496e-18
-1.34111e-18
-1.31881e-18
-1.32208e-18
-1.37212e-18
-1.31933e-18
-1.3395e-18
-1.34652e-18
-1.33648e-18
-1.30671e-18
-1.30996e-18
-1.3778e-18
-1.3692e-18
-1.39061e-18
-1.34906e-18
-1.32601e-18
-1.34235e-18
-1.32769e-18
-1.268e-18
-1.3281e-18
-1.35183e-18
-1.34656e-18
-1.35385e-18
-1.39393e-18
-1.38898e-18
-1.30595e-18
-1.25936e-18
-1.30646e-18
-1.3193e-18
-1.33969e-18
-1.36487e-18
-1.33173e-18
-1.3757e-18
-1.32849e-18
-1.31845e-18
-1.32065e-18
-1.30775e-18
-1.2598e-18
-1.27138e-18
-1.27611e-18
-1.27541e-18
-1.28895e-18
-1.32587e-18
-1.30784e-18
-1.33041e-18
-1.34376e-18
-1.34142e-18
-1.347e-18
-1.39018e-18
-1.36517e-18
-1.3499e-18
-1.33155e-18
-1.37781e-18
-1.35869e-18
-1.36374e-18
-1.35297e-18
-1.34671e-18
-1.33347e-18
-1.29055e-18
-1.3193e-18
-1.33732e-18
-1.34912e-18
-1.33569e-18
-1.30072e-18
-1.32853e-18
-1.30857e-18
-1.37592e-18
-1.35262e-18
-1.34e-18
-1.35534e-18
-1.42605e-18
-1.38884e-18
-1.33925e-18
-1.38393e-18
-1.39339e-18
-1.32477e-18
-1.28327e-18
-1.26447e-18
-1.31184e-18
-1.30834e-18
-1.26206e-18
-1.26296e-18
-1.31515e-18
-1.30923e-18
-1.3246e-18
-1.31502e-18
-1.28091e-18
-1.27696e-18
-1.31262e-18
-1.31839e-18
-1.33418e-18
-1.37239e-18
-1.34062e-18
-1.3241e-18
-1.31824e-18
-1.33205e-18
-1.30478e-18
-1.28809e-18
-1.32345e-18
-1.35306e-18
-1.34855e-18
-1.34738e-18
-1.35761e-18
-1.35714e-18
-1.3826e-18
-1.36509e-18
-1.34639e-18
-1.34872e-18
-1.33952e-18
-1.31809e-18
-1.34065e-18
-1.34558e-18
-1.32501e-18
-1.26515e-18
-1.32308e-18
-1.33318e-18
-1.34327e-18
-1.35114e-18
-1.37713e-18
-1.35019e-18
-1.35848e-18
-1.33924e-18
-1.27267e-18
-1.27598e-18
-1.31921e-18
-1.30848e-18
-1.27574e-18
-1.30808e-18
-1.35107e-18
-1.31604e-18
-1.30068e-18
-1.29865e-18
-1.27326e-18
-1.27214e-18
-1.31034e-18
-1.32459e-18
-1.35397e-18
-1.33397e-18
-1.32507e-18
-1.3049e-18
-1.36091e-18
-1.34831e-18
-1.33534e-18
-1.34482e-18
-1.3761e-18
-1.34743e-18
-1.34596e-18
-1.37269e-18
-1.35676e-18
-1.35583e-18
-1.32415e-18
-1.34645e-18
-1.34526e-18
-1.32686e-18
-1.35559e-18
-1.37137e-18
-1.32446e-18
-1.3449e-18
-1.37449e-18
-1.34553e-18
-1.35015e-18
-1.34599e-18
-1.30376e-18
-1.27205e-18
-1.33455e-18
-1.34975e-18
-1.33327e-18
-1.33212e-18
-1.33377e-18
-1.33518e-18
-1.3676e-18
-1.35904e-18
-1.28715e-18
-1.28352e-18
-1.31111e-18
-1.30907e-18
-1.30821e-18
-1.31047e-18
-1.28902e-18
-1.31008e-18
-1.31689e-18
-1.32056e-18
-1.30778e-18
-1.30594e-18
-1.3122e-18
-1.33156e-18
-1.35951e-18
-1.36892e-18
-1.33067e-18
-1.31707e-18
-1.30671e-18
-1.32242e-18
-1.32735e-18
-1.33467e-18
-1.34221e-18
-1.34411e-18
-1.35656e-18
-1.36752e-18
-1.35636e-18
-1.33251e-18
-1.35007e-18
-1.35703e-18
-1.36065e-18
-1.37004e-18
-1.3461e-18
-1.33263e-18
-1.34296e-18
-1.32392e-18
-1.32108e-18
-1.32351e-18
-1.3567e-18
-1.37185e-18
-1.32422e-18
-1.33094e-18
-1.37567e-18
-1.39341e-18
-1.31657e-18
-1.32042e-18
-1.29851e-18
-1.29021e-18
-1.29329e-18
-1.29973e-18
-1.31766e-18
-1.35358e-18
-1.32174e-18
-1.28718e-18
-1.31149e-18
-1.31295e-18
-1.30409e-18
-1.32289e-18
-1.33641e-18
-1.34813e-18
-1.31349e-18
-1.30643e-18
-1.29448e-18
-1.34152e-18
-1.30453e-18
-1.34383e-18
-1.29808e-18
-1.32718e-18
-1.31651e-18
-1.30092e-18
-1.30406e-18
-1.30657e-18
-1.30541e-18
-1.33757e-18
-1.38038e-18
-1.39259e-18
-1.37964e-18
-1.33678e-18
-1.38197e-18
-1.39184e-18
-1.37851e-18
-1.35706e-18
-1.33287e-18
-1.37588e-18
-1.38396e-18
-1.37385e-18
-1.35486e-18
-1.36264e-18
-1.34095e-18
-1.3513e-18
-1.37089e-18
-1.34531e-18
-1.32227e-18
-1.3475e-18
-1.33194e-18
-1.32792e-18
-1.3227e-18
-1.30151e-18
-1.29476e-18
-1.31201e-18
-1.29524e-18
-1.32572e-18
-1.31521e-18
-1.27949e-18
-1.31014e-18
-1.30996e-18
-1.29215e-18
-1.34592e-18
-1.36946e-18
-1.31179e-18
-1.28392e-18
-1.30548e-18
-1.31131e-18
-1.32128e-18
-1.30909e-18
-1.3186e-18
-1.31419e-18
-1.34613e-18
-1.30397e-18
-1.32751e-18
-1.35299e-18
-1.33586e-18
-1.3133e-18
-1.3217e-18
-1.35287e-18
-1.38356e-18
-1.35684e-18
-1.35612e-18
-1.36778e-18
-1.39712e-18
-1.34029e-18
-1.34747e-18
-1.34971e-18
-1.36778e-18
-1.33107e-18
-1.35296e-18
-1.35526e-18
-1.32255e-18
-1.29083e-18
-1.31549e-18
-1.35039e-18
-1.34402e-18
-1.33105e-18
-1.34371e-18
-1.34452e-18
-1.33228e-18
-1.33596e-18
-1.35448e-18
-1.32535e-18
-1.32739e-18
-1.29776e-18
-1.32496e-18
-1.31735e-18
-1.26941e-18
-1.30806e-18
-1.31632e-18
-1.31957e-18
-1.31981e-18
-1.32042e-18
-1.29422e-18
-1.30812e-18
-1.31734e-18
-1.31762e-18
-1.31715e-18
-1.28858e-18
-1.308e-18
-1.30241e-18
-1.32645e-18
-1.31601e-18
-1.33469e-18
-1.33972e-18
-1.34249e-18
-1.35462e-18
-1.36001e-18
-1.34884e-18
-1.34977e-18
-1.33354e-18
-1.36737e-18
-1.35403e-18
-1.3563e-18
-1.34974e-18
-1.35274e-18
-1.35014e-18
-1.33394e-18
-1.30557e-18
-1.34225e-18
-1.3465e-18
-1.33876e-18
-1.31381e-18
-1.33619e-18
-1.34926e-18
-1.34656e-18
-1.31746e-18
-1.36159e-18
-1.38927e-18
-1.3347e-18
-1.32771e-18
-1.33056e-18
-1.30675e-18
-1.35033e-18
-1.33331e-18
-1.35035e-18
-1.34656e-18
-1.3114e-18
-1.31647e-18
-1.32439e-18
-1.34184e-18
-1.33191e-18
-1.31923e-18
-1.35613e-18
-1.34465e-18
-1.34182e-18
-1.32295e-18
-1.33446e-18
-1.29934e-18
-1.31772e-18
-1.34269e-18
-1.32299e-18
-1.30376e-18
-1.33622e-18
-1.33232e-18
-1.30771e-18
-1.31533e-18
-1.3229e-18
-1.34772e-18
-1.34842e-18
-1.34515e-18
-1.34221e-18
-1.37072e-18
-1.33714e-18
-1.3449e-18
-1.35356e-18
-1.37652e-18
-1.39134e-18
-1.36921e-18
-1.3439e-18
-1.34652e-18
-1.35164e-18
-1.3436e-18
-1.35388e-18
-1.37419e-18
-1.37123e-18
-1.33451e-18
-1.32775e-18
-1.37971e-18
-1.31177e-18
-1.31215e-18
-1.32316e-18
-1.30097e-18
-1.32893e-18
-1.35058e-18
-1.33102e-18
-1.3194e-18
-1.31105e-18
-1.32271e-18
-1.33661e-18
-1.31801e-18
-1.29058e-18
-1.30611e-18
-1.3336e-18
-1.32112e-18
-1.33728e-18
-1.32005e-18
-1.317e-18
-1.34812e-18
-1.34236e-18
-1.34318e-18
-1.31964e-18
-1.32278e-18
-1.35879e-18
-1.33337e-18
-1.31503e-18
-1.32688e-18
-1.32833e-18
-1.34094e-18
-1.34827e-18
-1.34395e-18
-1.3531e-18
-1.3456e-18
-1.35828e-18
-1.35395e-18
-1.32176e-18
-1.35482e-18
-1.3542e-18
-1.35408e-18
-1.32412e-18
-1.34157e-18
-1.34744e-18
-1.34922e-18
-1.36916e-18
-1.37959e-18
-1.35377e-18
-1.33697e-18
-1.334e-18
-1.34574e-18
-1.31312e-18
-1.34777e-18
-1.33207e-18
-1.31939e-18
-1.31189e-18
-1.34662e-18
-1.32591e-18
-1.29337e-18
-1.28856e-18
-1.33545e-18
-1.32472e-18
-1.31536e-18
-1.30446e-18
-1.28203e-18
-1.27105e-18
-1.296e-18
-1.31497e-18
-1.32618e-18
-1.28907e-18
-1.31825e-18
-1.324e-18
-1.31231e-18
-1.31304e-18
-1.29931e-18
-1.30839e-18
-1.3555e-18
-1.34932e-18
-1.3295e-18
-1.31584e-18
-1.32466e-18
-1.34527e-18
-1.34261e-18
-1.36407e-18
-1.35545e-18
-1.35608e-18
-1.36868e-18
-1.3611e-18
-1.36818e-18
-1.33281e-18
-1.34472e-18
-1.32505e-18
-1.33126e-18
-1.3319e-18
-1.34118e-18
-1.35295e-18
-1.36928e-18
-1.34333e-18
-1.32343e-18
-1.33945e-18
-1.35327e-18
-1.32714e-18
-1.33771e-18
-1.33105e-18
-1.33035e-18
-1.34203e-18
-1.33305e-18
-1.34026e-18
-1.31884e-18
-1.28975e-18
-1.33253e-18
-1.33535e-18
-1.32652e-18
-1.32973e-18
-1.30291e-18
-1.2947e-18
-1.28738e-18
-1.30739e-18
-1.31214e-18
-1.29888e-18
-1.33373e-18
-1.33512e-18
-1.29416e-18
-1.30664e-18
-1.31174e-18
-1.29881e-18
-1.36295e-18
-1.32382e-18
-1.30107e-18
-1.33247e-18
-1.34098e-18
-1.34963e-18
-1.3555e-18
-1.36863e-18
-1.36626e-18
-1.35492e-18
-1.34989e-18
-1.35968e-18
-1.35652e-18
-1.34265e-18
-1.329e-18
-1.34816e-18
-1.36043e-18
-1.34795e-18
-1.33382e-18
-1.34553e-18
-1.32381e-18
-1.32537e-18
-1.33798e-18
-1.34323e-18
-1.32627e-18
-1.31017e-18
-1.33453e-18
-1.32569e-18
-1.3253e-18
-1.32336e-18
-1.32129e-18
-1.32157e-18
-1.3297e-18
-1.30794e-18
-1.31959e-18
-1.32592e-18
-1.29173e-18
-1.32414e-18
-1.30482e-18
-1.30192e-18
-1.31552e-18
-1.30396e-18
-1.31769e-18
-1.28522e-18
-1.342e-18
-1.33293e-18
-1.30765e-18
-1.2986e-18
-1.31826e-18
-1.29799e-18
-1.33528e-18
-1.34593e-18
-1.32537e-18
-1.33542e-18
-1.34776e-18
-1.3632e-18
-1.35891e-18
-1.34883e-18
-1.35699e-18
-1.35421e-18
-1.37421e-18
-1.36109e-18
-1.33957e-18
-1.32227e-18
-1.32121e-18
-1.34686e-18
-1.3371e-18
-1.3552e-18
-1.36337e-18
-1.34317e-18
-1.30655e-18
-1.32346e-18
-1.35013e-18
-1.36117e-18
-1.3515e-18
-1.31644e-18
-1.34683e-18
-1.31215e-18
-1.32145e-18
-1.30869e-18
-1.32361e-18
-1.29848e-18
-1.29637e-18
-1.31438e-18
-1.33236e-18
-1.30511e-18
-1.29955e-18
-1.3104e-18
-1.29368e-18
-1.28488e-18
-1.29853e-18
-1.27716e-18
-1.29908e-18
-1.28342e-18
-1.30678e-18
-1.30231e-18
-1.3036e-18
-1.32854e-18
-1.33732e-18
-1.3036e-18
-1.31897e-18
-1.33049e-18
-1.33517e-18
-1.32935e-18
-1.34543e-18
-1.35738e-18
-1.32788e-18
-1.35291e-18
-1.35324e-18
-1.35304e-18
-1.3473e-18
-1.36817e-18
-1.34178e-18
-1.34702e-18
-1.35405e-18
-1.336e-18
-1.33847e-18
-1.35279e-18
-1.34487e-18
-1.33459e-18
-1.32242e-18
-1.34196e-18
-1.36712e-18
-1.34806e-18
-1.33922e-18
-1.33008e-18
-1.34105e-18
-1.32478e-18
-1.32912e-18
-1.33953e-18
-1.35167e-18
-1.30899e-18
-1.30153e-18
-1.32471e-18
-1.33881e-18
-1.28796e-18
-1.31049e-18
-1.32218e-18
-1.28244e-18
-1.30581e-18
-1.29541e-18
-1.27391e-18
-1.29954e-18
-1.30983e-18
-1.29389e-18
-1.27812e-18
-1.27997e-18
-1.31306e-18
-1.32222e-18
-1.31251e-18
-1.3047e-18
-1.31445e-18
-1.33394e-18
-1.34632e-18
-1.33254e-18
-1.33548e-18
-1.34531e-18
-1.35888e-18
-1.36405e-18
-1.35481e-18
-1.34447e-18
-1.36442e-18
-1.35748e-18
-1.35899e-18
-1.3754e-18
-1.33037e-18
-1.35624e-18
-1.35502e-18
-1.36195e-18
-1.3562e-18
-1.33367e-18
-1.34272e-18
-1.36552e-18
-1.34343e-18
-1.32193e-18
-1.33596e-18
-1.35291e-18
-1.32668e-18
-1.33726e-18
-1.33201e-18
-1.32522e-18
-1.30166e-18
-1.29495e-18
-1.29473e-18
-1.30713e-18
-1.29395e-18
-1.29294e-18
-1.2848e-18
-1.28567e-18
-1.29444e-18
-1.28671e-18
-1.28976e-18
-1.30763e-18
-1.29362e-18
-1.27961e-18
-1.28468e-18
-1.28722e-18
-1.3048e-18
-1.31076e-18
-1.30823e-18
-1.3395e-18
-1.31534e-18
-1.32938e-18
-1.32789e-18
-1.34538e-18
-1.33222e-18
-1.33974e-18
-1.3593e-18
-1.37305e-18
-1.35496e-18
-1.35103e-18
-1.34065e-18
-1.35388e-18
-1.35661e-18
-1.36207e-18
-1.34713e-18
-1.3405e-18
-1.35615e-18
-1.3646e-18
-1.35125e-18
-1.33842e-18
-1.34583e-18
-1.35881e-18
-1.34597e-18
-1.33225e-18
-1.34718e-18
-1.35238e-18
-1.31192e-18
-1.31206e-18
-1.33287e-18
-1.31775e-18
-1.32647e-18
-1.32215e-18
-1.3067e-18
-1.29911e-18
-1.30213e-18
-1.3298e-18
-1.29137e-18
-1.28538e-18
-1.28263e-18
-1.2635e-18
-1.29563e-18
-1.29088e-18
-1.27766e-18
-1.28544e-18
-1.29404e-18
-1.30403e-18
-1.29194e-18
-1.30969e-18
-1.32968e-18
-1.32862e-18
-1.32331e-18
-1.3266e-18
-1.34053e-18
-1.36893e-18
-1.34361e-18
-1.34843e-18
-1.3658e-18
-1.35626e-18
-1.35479e-18
-1.35454e-18
-1.35191e-18
-1.34083e-18
-1.34472e-18
-1.32361e-18
-1.36238e-18
-1.35443e-18
-1.35952e-18
-1.35152e-18
-1.37014e-18
-1.34997e-18
-1.34426e-18
-1.32983e-18
-1.33741e-18
-1.34665e-18
-1.31966e-18
-1.31801e-18
-1.31691e-18
-1.31036e-18
-1.32044e-18
-1.31429e-18
-1.32583e-18
-1.3009e-18
-1.30681e-18
-1.30505e-18
-1.29786e-18
-1.28286e-18
-1.26717e-18
-1.27738e-18
-1.29142e-18
-1.28113e-18
-1.27935e-18
-1.27311e-18
-1.28797e-18
-1.28505e-18
-1.30046e-18
-1.31769e-18
-1.34436e-18
-1.3443e-18
-1.32745e-18
-1.33504e-18
-1.34658e-18
-1.34914e-18
-1.34776e-18
-1.36189e-18
-1.3612e-18
-1.361e-18
-1.35753e-18
-1.36071e-18
-1.33041e-18
-1.32903e-18
-1.32612e-18
-1.3541e-18
-1.35368e-18
-1.3501e-18
-1.34557e-18
-1.36004e-18
-1.34727e-18
-1.33478e-18
-1.33631e-18
-1.33456e-18
-1.34476e-18
-1.31649e-18
-1.32062e-18
-1.30358e-18
-1.31361e-18
-1.32832e-18
-1.31339e-18
-1.32439e-18
-1.29694e-18
-1.3002e-18
-1.30064e-18
-1.28318e-18
-1.28761e-18
-1.26301e-18
-1.2751e-18
-1.27137e-18
-1.27616e-18
-1.27902e-18
-1.26649e-18
-1.28911e-18
-1.28551e-18
-1.30896e-18
-1.30937e-18
-1.32544e-18
-1.33043e-18
-1.33369e-18
-1.34059e-18
-1.3372e-18
-1.3356e-18
-1.34659e-18
-1.36321e-18
-1.37924e-18
-1.36607e-18
-1.35674e-18
-1.35336e-18
-1.34673e-18
-1.35408e-18
-1.36129e-18
-1.3491e-18
-1.33919e-18
-1.3671e-18
-1.3484e-18
-1.33024e-18
-1.34038e-18
-1.32402e-18
-1.34332e-18
-1.32507e-18
-1.32419e-18
-1.33569e-18
-1.31519e-18
-1.31975e-18
-1.32333e-18
-1.30311e-18
-1.28817e-18
-1.30148e-18
-1.26127e-18
-1.27491e-18
-1.27957e-18
-1.26572e-18
-1.27138e-18
-1.2656e-18
-1.26231e-18
-1.27838e-18
-1.2784e-18
-1.28861e-18
-1.27184e-18
-1.29726e-18
-1.3037e-18
-1.30283e-18
-1.31607e-18
-1.32267e-18
-1.34183e-18
-1.33285e-18
-1.33345e-18
-1.3486e-18
-1.36398e-18
-1.35262e-18
-1.37052e-18
-1.36882e-18
-1.35001e-18
-1.35914e-18
-1.3479e-18
-1.35041e-18
-1.34759e-18
-1.34916e-18
-1.34896e-18
-1.33242e-18
-1.35092e-18
-1.31855e-18
-1.33436e-18
-1.32694e-18
-1.3229e-18
-1.33121e-18
-1.30794e-18
-1.31849e-18
-1.30768e-18
-1.30064e-18
-1.26918e-18
-1.26749e-18
-1.2579e-18
-1.27725e-18
-1.2683e-18
-1.26168e-18
-1.26824e-18
-1.2589e-18
-1.26244e-18
-1.26714e-18
-1.27908e-18
-1.26833e-18
-1.26103e-18
-1.29673e-18
-1.30367e-18
-1.30634e-18
-1.31142e-18
-1.31841e-18
-1.32893e-18
-1.33649e-18
-1.33324e-18
-1.34284e-18
-1.35397e-18
-1.35201e-18
-1.36016e-18
-1.37465e-18
-1.36581e-18
-1.35095e-18
-1.3525e-18
-1.35203e-18
-1.34234e-18
-1.36044e-18
-1.34646e-18
-1.34892e-18
-1.31409e-18
-1.33e-18
-1.32067e-18
-1.32453e-18
-1.29765e-18
-1.28907e-18
-1.29104e-18
-1.30432e-18
-1.31331e-18
-1.28031e-18
-1.27725e-18
-1.28511e-18
-1.26855e-18
-1.2564e-18
-1.25355e-18
-1.26022e-18
-1.23829e-18
-1.26571e-18
-1.2564e-18
-1.2636e-18
-1.26815e-18
-1.27404e-18
-1.2941e-18
-1.27771e-18
-1.30315e-18
-1.31275e-18
-1.31887e-18
-1.32221e-18
-1.35503e-18
-1.33073e-18
-1.34642e-18
-1.35147e-18
-1.34611e-18
-1.35905e-18
-1.34871e-18
-1.35169e-18
-1.35245e-18
-1.35656e-18
-1.35835e-18
-1.35234e-18
-1.33616e-18
-1.3229e-18
-1.33078e-18
-1.31658e-18
-1.33639e-18
-1.2918e-18
-1.29973e-18
-1.29969e-18
-1.32205e-18
-1.30654e-18
-1.28165e-18
-1.28341e-18
-1.27353e-18
-1.26468e-18
-1.24149e-18
-1.22989e-18
-1.2655e-18
-1.25525e-18
-1.26055e-18
-1.25326e-18
-1.25945e-18
-1.26542e-18
-1.27806e-18
-1.27463e-18
-1.28682e-18
-1.30552e-18
-1.30877e-18
-1.32624e-18
-1.31604e-18
-1.33418e-18
-1.337e-18
-1.34979e-18
-1.35823e-18
-1.3494e-18
-1.36831e-18
-1.35187e-18
-1.36108e-18
-1.35875e-18
-1.35266e-18
-1.345e-18
-1.33903e-18
-1.30875e-18
-1.33115e-18
-1.35365e-18
-1.34226e-18
-1.29595e-18
-1.29321e-18
-1.30128e-18
-1.33173e-18
-1.32851e-18
-1.28134e-18
-1.29293e-18
-1.26812e-18
-1.25889e-18
-1.24251e-18
-1.22457e-18
-1.23687e-18
-1.24459e-18
-1.23934e-18
-1.2434e-18
-1.25852e-18
-1.25464e-18
-1.28606e-18
-1.26679e-18
-1.28209e-18
-1.31128e-18
-1.29645e-18
-1.30914e-18
-1.31777e-18
-1.33561e-18
-1.34152e-18
-1.34891e-18
-1.38071e-18
-1.36327e-18
-1.34802e-18
-1.34336e-18
-1.33934e-18
-1.30843e-18
-1.33103e-18
-1.33037e-18
-1.32002e-18
-1.31257e-18
-1.30907e-18
-1.30272e-18
-1.33201e-18
-1.29957e-18
-1.27043e-18
-1.27491e-18
-1.26469e-18
-1.25548e-18
-1.2443e-18
-1.23582e-18
-1.24456e-18
-1.23427e-18
-1.21918e-18
-1.23752e-18
-1.24387e-18
-1.25712e-18
-1.28869e-18
-1.26475e-18
-1.28359e-18
-1.3091e-18
-1.29143e-18
-1.30106e-18
-1.322e-18
-1.34379e-18
-1.34839e-18
-1.35349e-18
-1.35437e-18
-1.35632e-18
-1.33188e-18
-1.31679e-18
-1.30304e-18
-1.30872e-18
-1.31311e-18
-1.30079e-18
-1.30573e-18
-1.29501e-18
-1.27537e-18
-1.26741e-18
-1.26118e-18
-1.24654e-18
-1.23312e-18
-1.21718e-18
-1.20121e-18
-1.22265e-18
-1.21868e-18
-1.23152e-18
-1.23088e-18
-1.25454e-18
-1.26176e-18
-1.26133e-18
-1.27652e-18
-1.29618e-18
-1.29259e-18
-1.30953e-18
-1.32361e-18
-1.35291e-18
-1.34442e-18
-1.34713e-18
-1.34351e-18
-1.35033e-18
-1.31815e-18
-1.2991e-18
-1.31523e-18
-1.30061e-18
-1.31427e-18
-1.31107e-18
-1.27103e-18
-1.24742e-18
-1.25994e-18
-1.23122e-18
-1.21699e-18
-1.22301e-18
-1.19185e-18
-1.21579e-18
-1.22005e-18
-1.21928e-18
-1.22745e-18
-1.2555e-18
-1.25851e-18
-1.26385e-18
-1.27679e-18
-1.2866e-18
-1.29946e-18
-1.31852e-18
-1.32946e-18
-1.33287e-18
-1.33489e-18
-1.34579e-18
-1.34637e-18
-1.35684e-18
-1.30292e-18
-1.31197e-18
-1.25667e-18
-1.23695e-18
-1.25702e-18
-1.24254e-18
-1.22646e-18
-1.23223e-18
-1.217e-18
-1.21319e-18
-1.18615e-18
-1.19299e-18
-1.20131e-18
-1.2295e-18
-1.24889e-18
-1.25024e-18
-1.2929e-18
-1.29077e-18
-1.29023e-18
-1.31977e-18
-1.31123e-18
-1.32861e-18
-1.33064e-18
-1.34455e-18
-1.34458e-18
-1.36015e-18
-1.24251e-18
-1.21914e-18
-1.22879e-18
-1.19832e-18
-1.21512e-18
-1.15954e-18
-1.19959e-18
-1.20267e-18
-1.22024e-18
-1.23205e-18
-1.25228e-18
-1.29245e-18
-1.28807e-18
-1.301e-18
-1.31682e-18
-1.31398e-18
-1.32231e-18
-1.33036e-18
-1.34621e-18
-1.33983e-18
-1.36368e-18
-1.19041e-18
-1.18088e-18
-1.13645e-18
-1.19425e-18
-1.19152e-18
-1.21785e-18
-1.24291e-18
-1.26145e-18
-1.28636e-18
-1.28545e-18
-1.30804e-18
-1.31442e-18
-1.31733e-18
-1.32472e-18
-1.33158e-18
-1.34366e-18
-1.34661e-18
-1.36164e-18
-1.12403e-18
-1.17866e-18
-1.19404e-18
-1.20446e-18
-1.23824e-18
-1.26012e-18
-1.28235e-18
-1.28682e-18
-1.29506e-18
-1.30431e-18
-1.31164e-18
-1.32179e-18
-1.33423e-18
-1.33469e-18
-1.35099e-18
-1.35457e-18
-1.12507e-18
-1.19796e-18
-1.18562e-18
-1.21137e-18
-1.23294e-18
-1.2531e-18
-1.27642e-18
-1.28743e-18
-1.29855e-18
-1.3089e-18
-1.31627e-18
-1.30742e-18
-1.33052e-18
-1.32072e-18
-1.35817e-18
-1.35519e-18
-9.49604e-19
-1.19607e-18
-1.1724e-18
-1.21102e-18
-1.24105e-18
-1.24539e-18
-1.27597e-18
-1.29099e-18
-1.2992e-18
-1.30301e-18
-1.31559e-18
-1.32321e-18
-1.33535e-18
-1.3345e-18
-1.35574e-18
-1.35494e-18
-1.2046e-18
-1.22935e-18
-1.24403e-18
-1.27599e-18
-1.29821e-18
-1.29437e-18
-1.2882e-18
-1.32792e-18
-1.33479e-18
-1.32618e-18
-1.34648e-18
-1.33709e-18
-1.35227e-18
-1.29741e-18
-1.285e-18
-1.32484e-18
-1.32465e-18
-1.33421e-18
-1.35193e-18
-1.34061e-18
-1.35374e-18
-1.3264e-18
-1.32788e-18
-1.33383e-18
-1.35378e-18
-1.35107e-18
-1.38114e-18
-1.43527e-18
-1.4678e-18
-1.66771e-18
-1.45396e-18
-1.42581e-18
-1.37047e-18
-1.24353e-18
-1.57099e-18
-1.43077e-18
-1.27639e-18
-1.59931e-18
-1.45264e-18
-1.44779e-18
-1.28547e-18
-1.44074e-18
-1.39674e-18
-1.40284e-18
-1.31594e-18
-1.40835e-18
-1.31706e-18
-1.35594e-18
-1.41454e-18
-1.37587e-18
-1.36449e-18
-1.35384e-18
-1.34613e-18
-1.34642e-18
-1.41995e-18
-1.47564e-18
-1.27844e-18
-1.44239e-18
-1.21274e-18
-1.48171e-18
-1.42359e-18
-1.39563e-18
-1.44297e-18
-1.49045e-18
-1.3649e-18
-1.27226e-18
-1.25358e-18
-1.33516e-18
-1.34278e-18
-1.35675e-18
-1.3646e-18
-1.37787e-18
-1.42738e-18
-1.42254e-18
-1.36423e-18
-1.36641e-18
-1.36696e-18
-1.34439e-18
-1.30926e-18
-1.33226e-18
-1.30811e-18
-1.35298e-18
-1.43198e-18
-1.29546e-18
-1.24007e-18
-1.28277e-18
-1.43056e-18
-1.4906e-18
-1.42329e-18
-1.45753e-18
-1.40973e-18
-1.3915e-18
-1.37412e-18
-1.34792e-18
-1.34225e-18
-1.35898e-18
-1.34126e-18
-1.30515e-18
-1.34676e-18
-1.34822e-18
-1.34348e-18
-1.31226e-18
-1.35731e-18
-1.39033e-18
-1.36517e-18
-1.35207e-18
-1.3501e-18
-1.35776e-18
-1.36773e-18
-1.39005e-18
-1.38494e-18
-1.44019e-18
-1.43887e-18
-1.35832e-18
-1.31179e-18
-1.36239e-18
-1.37826e-18
-1.39577e-18
-1.41666e-18
-1.38074e-18
-1.42221e-18
-1.37145e-18
-1.35951e-18
-1.35801e-18
-1.34315e-18
-1.29474e-18
-1.30254e-18
-1.30477e-18
-1.30193e-18
-1.31371e-18
-1.34525e-18
-1.32475e-18
-1.34365e-18
-1.35687e-18
-1.35176e-18
-1.35383e-18
-1.39016e-18
-1.36137e-18
-1.36752e-18
-1.42412e-18
-1.4333e-18
-1.36938e-18
-1.32984e-18
-1.31303e-18
-1.36215e-18
-1.35937e-18
-1.31386e-18
-1.31355e-18
-1.36212e-18
-1.3528e-18
-1.36604e-18
-1.35449e-18
-1.31825e-18
-1.3119e-18
-1.34382e-18
-1.34834e-18
-1.3621e-18
-1.39793e-18
-1.36367e-18
-1.34288e-18
-1.33162e-18
-1.34523e-18
-1.31615e-18
-1.29402e-18
-1.32374e-18
-1.35165e-18
-1.31115e-18
-1.31311e-18
-1.35846e-18
-1.35014e-18
-1.31759e-18
-1.35097e-18
-1.39581e-18
-1.36338e-18
-1.34918e-18
-1.34775e-18
-1.32023e-18
-1.3147e-18
-1.35233e-18
-1.3662e-18
-1.39278e-18
-1.37022e-18
-1.35869e-18
-1.33683e-18
-1.39022e-18
-1.37508e-18
-1.35943e-18
-1.36631e-18
-1.39326e-18
-1.36176e-18
-1.3565e-18
-1.3787e-18
-1.35904e-18
-1.35132e-18
-1.32385e-18
-1.31973e-18
-1.34943e-18
-1.35068e-18
-1.35028e-18
-1.35285e-18
-1.33342e-18
-1.35589e-18
-1.36324e-18
-1.36656e-18
-1.35262e-18
-1.34842e-18
-1.35467e-18
-1.37316e-18
-1.39928e-18
-1.40655e-18
-1.36568e-18
-1.35149e-18
-1.33674e-18
-1.35043e-18
-1.35239e-18
-1.35637e-18
-1.36114e-18
-1.35912e-18
-1.36691e-18
-1.37422e-18
-1.36067e-18
-1.3199e-18
-1.35509e-18
-1.38644e-18
-1.35803e-18
-1.32729e-18
-1.35391e-18
-1.35737e-18
-1.34862e-18
-1.3681e-18
-1.38157e-18
-1.39225e-18
-1.35814e-18
-1.3508e-18
-1.33813e-18
-1.38411e-18
-1.3457e-18
-1.38347e-18
-1.33672e-18
-1.36317e-18
-1.3491e-18
-1.33075e-18
-1.32983e-18
-1.32854e-18
-1.32733e-18
-1.35272e-18
-1.38964e-18
-1.39937e-18
-1.38253e-18
-1.32712e-18
-1.33012e-18
-1.35924e-18
-1.35308e-18
-1.31966e-18
-1.3532e-18
-1.35419e-18
-1.33614e-18
-1.39122e-18
-1.41442e-18
-1.35651e-18
-1.32954e-18
-1.35221e-18
-1.35622e-18
-1.36519e-18
-1.35184e-18
-1.35983e-18
-1.35358e-18
-1.38423e-18
-1.33779e-18
-1.35517e-18
-1.3796e-18
-1.35959e-18
-1.33404e-18
-1.33592e-18
-1.36351e-18
-1.39125e-18
-1.35886e-18
-1.35758e-18
-1.31741e-18
-1.35721e-18
-1.35862e-18
-1.31283e-18
-1.35331e-18
-1.36164e-18
-1.36537e-18
-1.36682e-18
-1.36906e-18
-1.34232e-18
-1.35454e-18
-1.36507e-18
-1.36295e-18
-1.36262e-18
-1.33319e-18
-1.35072e-18
-1.34189e-18
-1.36509e-18
-1.35229e-18
-1.36499e-18
-1.3692e-18
-1.36756e-18
-1.37695e-18
-1.37609e-18
-1.3599e-18
-1.3547e-18
-1.33331e-18
-1.36924e-18
-1.3614e-18
-1.38417e-18
-1.3857e-18
-1.3546e-18
-1.36163e-18
-1.37048e-18
-1.38894e-18
-1.38039e-18
-1.36956e-18
-1.40451e-18
-1.39318e-18
-1.38956e-18
-1.37091e-18
-1.38241e-18
-1.3466e-18
-1.36274e-18
-1.38443e-18
-1.36351e-18
-1.34129e-18
-1.36949e-18
-1.36231e-18
-1.33257e-18
-1.33765e-18
-1.33984e-18
-1.35944e-18
-1.35443e-18
-1.34601e-18
-1.33724e-18
-1.38073e-18
-1.36685e-18
-1.36121e-18
-1.35567e-18
-1.36854e-18
-1.38343e-18
-1.36616e-18
-1.34015e-18
-1.35712e-18
-1.38473e-18
-1.37248e-18
-1.38836e-18
-1.37095e-18
-1.36798e-18
-1.39914e-18
-1.39043e-18
-1.38976e-18
-1.36292e-18
-1.36253e-18
-1.3941e-18
-1.36494e-18
-1.34243e-18
-1.35133e-18
-1.34615e-18
-1.35382e-18
-1.35505e-18
-1.34543e-18
-1.35113e-18
-1.37834e-18
-1.36353e-18
-1.33629e-18
-1.33573e-18
-1.38207e-18
-1.37201e-18
-1.36447e-18
-1.35509e-18
-1.33477e-18
-1.325e-18
-1.35059e-18
-1.36926e-18
-1.37976e-18
-1.34305e-18
-1.37082e-18
-1.37411e-18
-1.3607e-18
-1.35896e-18
-1.34167e-18
-1.34511e-18
-1.38907e-18
-1.37828e-18
-1.35379e-18
-1.33373e-18
-1.33962e-18
-1.35186e-18
-1.34331e-18
-1.35853e-18
-1.36625e-18
-1.3762e-18
-1.35962e-18
-1.34269e-18
-1.37901e-18
-1.38232e-18
-1.3768e-18
-1.38102e-18
-1.35811e-18
-1.35193e-18
-1.34582e-18
-1.365e-18
-1.36763e-18
-1.35688e-18
-1.3882e-18
-1.38676e-18
-1.34496e-18
-1.35606e-18
-1.35791e-18
-1.33947e-18
-1.39924e-18
-1.35406e-18
-1.32651e-18
-1.35318e-18
-1.35702e-18
-1.35841e-18
-1.35534e-18
-1.36606e-18
-1.36373e-18
-1.36287e-18
-1.37513e-18
-1.36563e-18
-1.37622e-18
-1.34671e-18
-1.39742e-18
-1.38496e-18
-1.36159e-18
-1.35251e-18
-1.36527e-18
-1.34196e-18
-1.37476e-18
-1.37652e-18
-1.35263e-18
-1.35923e-18
-1.36655e-18
-1.37521e-18
-1.3632e-18
-1.35014e-18
-1.38324e-18
-1.34797e-18
-1.35987e-18
-1.36274e-18
-1.36508e-18
-1.35708e-18
-1.36352e-18
-1.36949e-18
-1.334e-18
-1.35367e-18
-1.36691e-18
-1.37699e-18
-1.34781e-18
-1.34854e-18
-1.35241e-18
-1.35764e-18
-1.34422e-18
-1.34449e-18
-1.35739e-18
-1.42296e-18
-1.42475e-18
-1.43324e-18
-1.4172e-18
-1.40383e-18
-1.40568e-18
-1.39218e-18
-1.39213e-18
-1.41286e-18
-1.41893e-18
-1.42187e-18
-1.42576e-18
-1.44056e-18
-1.42853e-18
-1.42558e-18
-1.43799e-18
-1.44183e-18
-1.43753e-18
-1.43981e-18
-1.42981e-18
-1.42614e-18
-1.42259e-18
-1.43191e-18
-1.40532e-18
-1.41124e-18
-1.41429e-18
-1.41554e-18
-1.41744e-18
-1.42192e-18
-1.4347e-18
-1.40864e-18
-1.41236e-18
-1.40432e-18
-1.41504e-18
-1.42311e-18
-1.42062e-18
-1.42126e-18
-1.42271e-18
-1.41359e-18
-1.43361e-18
-1.42319e-18
-1.42642e-18
-1.43268e-18
-1.42958e-18
-1.42231e-18
-1.42867e-18
-1.41136e-18
-1.41042e-18
-1.40908e-18
-1.41054e-18
-1.40675e-18
-1.39772e-18
-1.415e-18
-1.41802e-18
-1.41841e-18
-1.42066e-18
-1.42342e-18
-1.42247e-18
-1.42913e-18
-1.4417e-18
-1.42783e-18
-1.42468e-18
-1.42321e-18
-1.41137e-18
-1.42328e-18
-1.43707e-18
-1.4321e-18
-1.41718e-18
-1.42051e-18
-1.43984e-18
-1.43646e-18
-1.41878e-18
-1.415e-18
-1.41915e-18
-1.42565e-18
-1.43501e-18
-1.42616e-18
-1.41549e-18
-1.40326e-18
-1.42139e-18
-1.43846e-18
-1.43095e-18
-1.43851e-18
-1.42769e-18
-1.42437e-18
-1.42232e-18
-1.41428e-18
-1.42157e-18
-1.42753e-18
-1.42522e-18
-1.42583e-18
-1.42667e-18
-1.41074e-18
-1.41177e-18
-1.41108e-18
-1.41095e-18
-1.41844e-18
-1.43857e-18
-1.44765e-18
-1.44599e-18
-1.42416e-18
-1.41078e-18
-1.43755e-18
-1.44633e-18
-1.4353e-18
-1.44209e-18
-1.42791e-18
-1.41447e-18
-1.42983e-18
-1.44434e-18
-1.43285e-18
-1.4323e-18
-1.43173e-18
-1.43168e-18
-1.4264e-18
-1.38932e-18
-1.39934e-18
-1.43536e-18
-1.42441e-18
-1.38216e-18
-1.39824e-18
-1.40573e-18
-1.39914e-18
-1.39974e-18
-1.40482e-18
-1.41531e-18
-1.40623e-18
-1.40642e-18
-1.41894e-18
-1.41089e-18
-1.41847e-18
-1.40963e-18
-1.40964e-18
-1.41664e-18
-1.42437e-18
-1.39684e-18
-1.41362e-18
-1.42457e-18
-1.40067e-18
-1.41253e-18
-1.42277e-18
-1.40285e-18
-1.41174e-18
-1.41703e-18
-1.4184e-18
-1.41997e-18
-1.4178e-18
-1.40641e-18
-1.41783e-18
-1.42353e-18
-1.42285e-18
-1.42304e-18
-1.42064e-18
-1.4104e-18
-1.41732e-18
-1.41202e-18
-1.42465e-18
-1.43098e-18
-1.37949e-18
-1.36643e-18
-1.4358e-18
-1.43426e-18
-1.40395e-18
-1.42095e-18
-1.42776e-18
-1.4106e-18
-1.40207e-18
-1.4048e-18
-1.40749e-18
-1.4007e-18
-1.39342e-18
-1.41578e-18
-1.40929e-18
-1.40829e-18
-1.40505e-18
-1.40655e-18
-1.41238e-18
-1.39077e-18
-1.38384e-18
-1.41091e-18
-1.43048e-18
-1.41798e-18
-1.41427e-18
-1.41423e-18
-1.41123e-18
-1.42176e-18
-1.42879e-18
-1.42557e-18
-1.42583e-18
-1.43036e-18
-1.44379e-18
-1.432e-18
-1.4284e-18
-1.42515e-18
-1.41869e-18
-1.44279e-18
-1.43747e-18
-1.43173e-18
-1.43131e-18
-1.43469e-18
-1.44823e-18
-1.39471e-18
-1.37145e-18
-1.42802e-18
-1.4161e-18
-1.4016e-18
-1.37759e-18
-1.39952e-18
-1.41517e-18
-1.38709e-18
-1.40426e-18
-1.41788e-18
-1.38932e-18
-1.39626e-18
-1.39492e-18
-1.41079e-18
-1.42273e-18
-1.38846e-18
-1.38947e-18
-1.43053e-18
-1.43647e-18
-1.4295e-18
-1.41303e-18
-1.41692e-18
-1.42463e-18
-1.40149e-18
-1.41773e-18
-1.43557e-18
-1.42199e-18
-1.40813e-18
-1.41362e-18
-1.40605e-18
-1.41759e-18
-1.42955e-18
-1.4428e-18
-1.4316e-18
-1.4335e-18
-1.45126e-18
-1.4566e-18
-1.45027e-18
-1.42012e-18
-1.41444e-18
-1.42914e-18
-1.43588e-18
-1.50696e-18
-1.39135e-18
-1.35319e-18
-1.38377e-18
-1.39258e-18
-1.45144e-18
-1.43916e-18
-1.40953e-18
-1.43149e-18
-1.42871e-18
-1.39276e-18
-1.37494e-18
-1.37834e-18
-1.39226e-18
-1.40294e-18
-1.40143e-18
-1.3744e-18
-1.40037e-18
-1.40881e-18
-1.42086e-18
-1.41245e-18
-1.40777e-18
-1.41149e-18
-1.43256e-18
-1.41773e-18
-1.42146e-18
-1.41141e-18
-1.41218e-18
-1.4104e-18
-1.3971e-18
-1.41207e-18
-1.41968e-18
-1.42503e-18
-1.43065e-18
-1.41466e-18
-1.42865e-18
-1.4173e-18
-1.43818e-18
-1.43283e-18
-1.42926e-18
-1.42972e-18
-1.43156e-18
-1.43309e-18
-1.43435e-18
-1.43362e-18
-1.43414e-18
-1.4366e-18
-1.43788e-18
-1.50912e-18
-1.29647e-18
-1.46106e-18
-1.3396e-18
-1.35009e-18
-1.45398e-18
-1.43963e-18
-1.36634e-18
-1.39928e-18
-1.40368e-18
-1.37421e-18
-1.39162e-18
-1.3956e-18
-1.38332e-18
-1.40924e-18
-1.42487e-18
-1.41e-18
-1.41804e-18
-1.39852e-18
-1.40369e-18
-1.39236e-18
-1.40324e-18
-1.40258e-18
-1.44367e-18
-1.42403e-18
-1.41677e-18
-1.41582e-18
-1.41744e-18
-1.41873e-18
-1.42277e-18
-1.43938e-18
-1.44168e-18
-1.42582e-18
-1.42301e-18
-1.42775e-18
-1.44511e-18
-1.44194e-18
-1.4193e-18
-1.42799e-18
-1.43304e-18
-1.43391e-18
-1.43326e-18
-1.43072e-18
-1.43484e-18
-1.4353e-18
-1.43561e-18
-1.43453e-18
-1.43759e-18
-1.74551e-18
-1.43688e-18
-1.4305e-18
-1.40921e-18
-1.40224e-18
-1.4445e-18
-1.40731e-18
-1.36691e-18