/*--------------------------------*- C++ -*----------------------------------*\
  =========                 |
  \\      /  F ield         | OpenFOAM: The Open Source CFD Toolbox
   \\    /   O peration     | Website:  https://openfoam.org
    \\  /    A nd           | Version:  7
     \\/     M anipulation  |
\*---------------------------------------------------------------------------*/
FoamFile
{
    version     2.0;
    format      ascii;
    class       volVectorField;
    location    "156000";
    object      U;
}
// * * * * * * * * * * * * * * * * * * * * * * * * * * * * * * * * * * * * * //

dimensions      [0 1 -1 0 0 0 0];

internalField   nonuniform List<vector> 
4838
(
(2.06993e-18 -9.50831e-19 -0.0158252)
(2.04784e-18 -9.98483e-19 -0.0158314)
(1.94128e-18 -1.03832e-18 -0.0158372)
(1.9717e-18 -9.67342e-19 -0.0158424)
(1.98517e-18 -1.25971e-18 -0.0158471)
(1.62472e-18 -1.58727e-18 -0.0158514)
(1.13658e-18 -1.79275e-18 -0.0158551)
(9.76291e-19 -1.64642e-18 -0.0158584)
(1.05945e-18 -1.27141e-18 -0.0158613)
(8.84605e-19 -9.28334e-19 -0.0158638)
(9.12355e-19 -6.39208e-19 -0.0158659)
(1.25134e-18 -7.73169e-19 -0.0158677)
(1.2311e-18 -9.94686e-19 -0.0158692)
(1.27709e-18 -1.0354e-18 -0.0158704)
(2.14538e-18 -1.01855e-18 -0.0158713)
(3.19677e-18 -1.76204e-18 -0.0158721)
(3.13109e-18 -2.7908e-18 -0.0158727)
(2.45399e-18 -3.75279e-18 -0.0158732)
(2.03451e-18 -4.28804e-18 -0.0158735)
(1.52542e-18 -4.56913e-18 -0.0158738)
(7.16482e-19 -4.6869e-18 -0.015874)
(4.16741e-19 -4.68938e-18 -0.0158742)
(4.00949e-19 -4.7305e-18 -0.0158743)
(3.08354e-21 -4.83338e-18 -0.0158744)
(-4.82608e-19 -4.92203e-18 -0.0158744)
(-1.16535e-18 -4.8254e-18 -0.0158744)
(-1.80931e-18 -4.64115e-18 -0.0158744)
(-2.26576e-18 -4.24493e-18 -0.0158743)
(-2.70825e-18 -3.84553e-18 -0.0158742)
(-2.77769e-18 -3.43806e-18 -0.015874)
(-3.09407e-18 -2.9324e-18 -0.0158738)
(-3.76355e-18 -2.1622e-18 -0.0158735)
(-3.71872e-18 -1.19302e-18 -0.0158732)
(-3.39653e-18 -2.96168e-19 -0.0158727)
(-3.28161e-18 2.55667e-19 -0.0158721)
(-2.96009e-18 8.36759e-19 -0.0158713)
(-2.28213e-18 9.65462e-19 -0.0158704)
(-1.66038e-18 9.41793e-19 -0.0158692)
(-1.60588e-18 5.92182e-19 -0.0158677)
(-1.82292e-18 3.20589e-19 -0.0158659)
(-1.91561e-18 3.16143e-19 -0.0158638)
(-1.98098e-18 5.5676e-19 -0.0158613)
(-1.67485e-18 7.40836e-19 -0.0158584)
(-1.14516e-18 3.59725e-19 -0.0158551)
(-1.44013e-18 2.45794e-19 -0.0158514)
(-1.77873e-18 3.70239e-19 -0.0158471)
(-1.3845e-18 2.61962e-19 -0.0158424)
(-9.38574e-19 -1.45925e-19 -0.0158372)
(-7.82783e-19 -4.40764e-19 -0.0158314)
(-7.54099e-19 -3.89185e-19 -0.0158252)
(1.5618e-18 -9.01078e-19 -0.0158144)
(1.69464e-18 -1.24683e-18 -0.0158208)
(1.71604e-18 -1.43358e-18 -0.0158268)
(1.83659e-18 -1.51738e-18 -0.0158325)
(1.94549e-18 -1.68729e-18 -0.0158378)
(1.74461e-18 -1.96555e-18 -0.0158426)
(1.3264e-18 -1.99122e-18 -0.015847)
(1.1051e-18 -1.69453e-18 -0.0158509)
(1.01929e-18 -1.41804e-18 -0.0158544)
(8.96767e-19 -1.41112e-18 -0.0158575)
(9.52745e-19 -1.14245e-18 -0.0158602)
(1.19895e-18 -9.69721e-19 -0.0158625)
(1.16061e-18 -9.3527e-19 -0.0158645)
(1.13399e-18 -9.08016e-19 -0.0158662)
(1.62283e-18 -9.09158e-19 -0.0158676)
(2.33577e-18 -1.62184e-18 -0.0158688)
(2.13108e-18 -2.83097e-18 -0.0158698)
(1.59611e-18 -3.68317e-18 -0.0158706)
(1.70857e-18 -4.05647e-18 -0.0158712)
(1.77916e-18 -4.28843e-18 -0.0158717)
(1.26814e-18 -4.30669e-18 -0.015872)
(7.04913e-19 -4.03078e-18 -0.0158723)
(2.12372e-19 -4.18151e-18 -0.0158725)
(-4.82098e-19 -4.53363e-18 -0.0158727)
(-8.17084e-19 -4.7216e-18 -0.0158727)
(-1.16695e-18 -4.71619e-18 -0.0158727)
(-1.46756e-18 -4.28095e-18 -0.0158727)
(-1.8407e-18 -3.81533e-18 -0.0158725)
(-2.55208e-18 -3.28623e-18 -0.0158723)
(-2.84633e-18 -2.75086e-18 -0.015872)
(-3.28853e-18 -2.53837e-18 -0.0158717)
(-3.83741e-18 -1.87686e-18 -0.0158712)
(-3.93334e-18 -1.03459e-18 -0.0158706)
(-3.67802e-18 -6.81883e-19 -0.0158698)
(-3.04583e-18 -3.56635e-19 -0.0158688)
(-2.50975e-18 -8.22181e-21 -0.0158676)
(-2.17264e-18 1.51855e-19 -0.0158662)
(-1.82749e-18 -2.19239e-19 -0.0158645)
(-1.65843e-18 -4.95277e-19 -0.0158625)
(-1.59658e-18 -6.22343e-19 -0.0158602)
(-1.68966e-18 -4.65668e-19 -0.0158575)
(-1.85845e-18 -2.61363e-19 -0.0158544)
(-1.63717e-18 1.22667e-19 -0.0158509)
(-1.40787e-18 -1.06502e-20 -0.015847)
(-1.63348e-18 -9.94694e-20 -0.0158426)
(-1.62864e-18 6.6953e-20 -0.0158378)
(-1.14948e-18 -2.19164e-22 -0.0158325)
(-7.36557e-19 -2.78302e-19 -0.0158268)
(-4.32497e-19 -4.91375e-19 -0.0158208)
(-4.35281e-19 -5.66838e-19 -0.0158144)
(9.03268e-19 -8.27035e-19 -0.0158016)
(1.26885e-18 -9.10872e-19 -0.0158087)
(1.43087e-18 -1.01427e-18 -0.0158152)
(1.45753e-18 -1.26647e-18 -0.0158214)
(1.51891e-18 -1.45948e-18 -0.0158272)
(1.59635e-18 -1.92778e-18 -0.0158325)
(1.56343e-18 -2.01034e-18 -0.0158374)
(1.43799e-18 -1.97463e-18 -0.0158419)
(1.12336e-18 -2.03602e-18 -0.015846)
(8.17143e-19 -2.0751e-18 -0.0158496)
(9.14441e-19 -1.69498e-18 -0.0158529)
(1.2892e-18 -1.2652e-18 -0.0158557)
(1.22528e-18 -1.2184e-18 -0.0158583)
(9.37383e-19 -1.17521e-18 -0.0158605)
(1.09269e-18 -1.15921e-18 -0.0158624)
(1.65945e-18 -1.46357e-18 -0.015864)
(1.71207e-18 -2.09774e-18 -0.0158654)
(1.34637e-18 -2.34153e-18 -0.0158665)
(1.54998e-18 -2.49069e-18 -0.0158674)
(1.75098e-18 -2.78167e-18 -0.0158682)
(1.35397e-18 -3.22476e-18 -0.0158688)
(7.08437e-19 -3.46338e-18 -0.0158692)
(-1.86023e-19 -3.72592e-18 -0.0158695)
(-9.43185e-19 -3.75576e-18 -0.0158698)
(-9.78987e-19 -3.59493e-18 -0.0158699)
(-8.33652e-19 -3.80638e-18 -0.0158699)
(-1.01957e-18 -3.70051e-18 -0.0158698)
(-1.73463e-18 -3.72537e-18 -0.0158695)
(-2.45189e-18 -3.35151e-18 -0.0158692)
(-2.8708e-18 -2.85682e-18 -0.0158688)
(-3.36907e-18 -2.53124e-18 -0.0158682)
(-3.68551e-18 -1.84573e-18 -0.0158674)
(-3.72616e-18 -1.00168e-18 -0.0158665)
(-3.48429e-18 -3.88108e-19 -0.0158654)
(-2.98355e-18 -2.39747e-20 -0.015864)
(-2.68677e-18 3.49433e-21 -0.0158624)
(-2.51468e-18 -6.30915e-20 -0.0158605)
(-2.04354e-18 -4.81027e-19 -0.0158583)
(-1.67578e-18 -7.52867e-19 -0.0158558)
(-1.63352e-18 -8.80992e-19 -0.0158529)
(-1.60026e-18 -9.21227e-19 -0.0158496)
(-1.29444e-18 -8.19425e-19 -0.015846)
(-1.00291e-18 -5.70517e-19 -0.0158419)
(-1.17802e-18 -4.84319e-19 -0.0158374)
(-1.36218e-18 -2.70644e-19 -0.0158325)
(-1.16964e-18 -1.41624e-20 -0.0158272)
(-7.35697e-19 -9.14916e-20 -0.0158214)
(-3.80179e-19 -3.26519e-19 -0.0158152)
(-2.99755e-19 -3.1821e-19 -0.0158087)
(-6.73777e-19 -3.68574e-19 -0.0158016)
(8.57746e-19 -3.26875e-19 -0.0157874)
(9.28955e-19 -3.26581e-19 -0.0157952)
(1.05368e-18 -3.03016e-19 -0.0158023)
(1.19085e-18 -4.62139e-19 -0.0158091)
(1.01869e-18 -7.91263e-19 -0.0158154)
(9.20351e-19 -1.33201e-18 -0.0158212)
(1.07258e-18 -1.6536e-18 -0.0158266)
(1.01376e-18 -2.06696e-18 -0.0158316)
(9.12652e-19 -2.35699e-18 -0.0158362)
(1.00205e-18 -2.17952e-18 -0.0158404)
(1.30581e-18 -1.65192e-18 -0.0158441)
(1.41741e-18 -1.47855e-18 -0.0158475)
(1.27048e-18 -1.75506e-18 -0.0158505)
(1.08167e-18 -1.75554e-18 -0.0158532)
(1.04962e-18 -1.42887e-18 -0.0158555)
(1.43522e-18 -1.25905e-18 -0.0158576)
(1.51929e-18 -1.42279e-18 -0.0158593)
(1.21122e-18 -1.551e-18 -0.0158608)
(1.48355e-18 -1.5944e-18 -0.0158621)
(1.74067e-18 -1.98856e-18 -0.0158631)
(1.21835e-18 -2.52615e-18 -0.0158639)
(5.36433e-19 -3.08235e-18 -0.0158646)
(-2.9322e-20 -3.4524e-18 -0.015865)
(-7.08452e-19 -3.12202e-18 -0.0158653)
(-1.44407e-18 -2.80995e-18 -0.0158655)
(-1.75032e-18 -3.09394e-18 -0.0158655)
(-1.57213e-18 -3.56782e-18 -0.0158653)
(-1.64233e-18 -3.82088e-18 -0.015865)
(-2.06358e-18 -3.47282e-18 -0.0158646)
(-2.58847e-18 -3.18349e-18 -0.0158639)
(-3.07837e-18 -2.89272e-18 -0.0158631)
(-3.19315e-18 -2.18909e-18 -0.0158621)
(-3.30557e-18 -1.34737e-18 -0.0158608)
(-3.31476e-18 -6.4903e-19 -0.0158593)
(-2.95391e-18 -1.73736e-19 -0.0158576)
(-2.76147e-18 5.87421e-21 -0.0158555)
(-2.63977e-18 1.9525e-19 -0.0158532)
(-2.12207e-18 2.06036e-19 -0.0158505)
(-1.59079e-18 4.38354e-20 -0.0158475)
(-1.37306e-18 -1.5675e-20 -0.0158441)
(-1.08304e-18 4.78454e-20 -0.0158404)
(-8.24562e-19 1.64257e-19 -0.0158362)
(-9.40931e-19 -7.43091e-20 -0.0158316)
(-1.07062e-18 -3.1118e-19 -0.0158266)
(-9.20827e-19 -2.97018e-19 -0.0158212)
(-7.92577e-19 -2.02486e-19 -0.0158154)
(-5.79378e-19 -3.76599e-19 -0.0158091)
(-2.43128e-19 -7.32655e-19 -0.0158023)
(-2.85656e-19 -7.79496e-19 -0.0157952)
(-5.69926e-19 -6.58896e-19 -0.0157874)
(8.87143e-19 -1.20274e-19 -0.015772)
(1.00748e-18 9.21879e-21 -0.0157804)
(1.00252e-18 -3.84717e-21 -0.0157882)
(9.10079e-19 -2.40579e-19 -0.0157955)
(7.21471e-19 -5.32458e-19 -0.0158023)
(4.74385e-19 -7.93169e-19 -0.0158087)
(4.68293e-19 -1.16363e-18 -0.0158146)
(4.49643e-19 -1.38146e-18 -0.0158201)
(5.72952e-19 -1.43437e-18 -0.0158252)
(9.00574e-19 -1.31074e-18 -0.0158298)
(1.10709e-18 -1.1921e-18 -0.015834)
(9.78823e-19 -1.51941e-18 -0.0158379)
(8.53634e-19 -1.92279e-18 -0.0158414)
(1.17989e-18 -1.99744e-18 -0.0158445)
(1.45282e-18 -1.49621e-18 -0.0158472)
(1.71113e-18 -1.2212e-18 -0.0158496)
(1.71203e-18 -1.39912e-18 -0.0158517)
(1.35212e-18 -1.51196e-18 -0.0158536)
(1.40664e-18 -1.51403e-18 -0.0158551)
(1.54087e-18 -2.11417e-18 -0.0158564)
(9.06593e-19 -2.77856e-18 -0.0158574)
(-5.13932e-20 -3.35676e-18 -0.0158583)
(-3.61714e-19 -3.84781e-18 -0.0158589)
(-6.39422e-19 -3.87235e-18 -0.0158593)
(-1.4956e-18 -3.53034e-18 -0.0158595)
(-2.06514e-18 -3.12235e-18 -0.0158595)
(-1.86184e-18 -2.95956e-18 -0.0158593)
(-1.58484e-18 -2.93013e-18 -0.0158589)
(-1.94403e-18 -2.72442e-18 -0.0158583)
(-2.76291e-18 -2.54982e-18 -0.0158574)
(-2.92077e-18 -2.25908e-18 -0.0158564)
(-2.5801e-18 -1.85613e-18 -0.0158551)
(-2.69685e-18 -1.50017e-18 -0.0158536)
(-2.69016e-18 -8.71247e-19 -0.0158517)
(-2.50484e-18 -2.31354e-19 -0.0158496)
(-2.49699e-18 3.36076e-19 -0.0158472)
(-2.25696e-18 8.64579e-19 -0.0158445)
(-1.71331e-18 1.0974e-18 -0.0158414)
(-1.33263e-18 9.07709e-19 -0.0158379)
(-1.06632e-18 6.99132e-19 -0.015834)
(-7.64186e-19 6.54561e-19 -0.0158298)
(-9.65766e-19 5.58717e-19 -0.0158252)
(-1.27936e-18 3.8426e-19 -0.0158201)
(-1.08099e-18 3.06798e-19 -0.0158146)
(-8.30532e-19 2.87903e-19 -0.0158087)
(-7.92759e-19 1.78679e-19 -0.0158023)
(-5.2215e-19 6.16294e-20 -0.0157955)
(-1.02109e-19 -2.17609e-19 -0.0157882)
(-6.94334e-20 -6.4848e-19 -0.0157804)
(-2.64288e-19 -7.39742e-19 -0.015772)
(7.62869e-19 -9.69966e-20 -0.0157554)
(8.61864e-19 2.0806e-20 -0.0157644)
(9.12566e-19 -2.63865e-19 -0.0157728)
(9.33408e-19 -4.68773e-19 -0.0157806)
(7.35625e-19 -6.6469e-19 -0.015788)
(2.99795e-19 -8.40148e-19 -0.0157949)
(2.81073e-19 -9.7562e-19 -0.0158013)
(3.46008e-19 -8.42687e-19 -0.0158073)
(3.05151e-19 -6.63733e-19 -0.0158128)
(5.76434e-19 -6.24205e-19 -0.015818)
(7.39666e-19 -6.68392e-19 -0.0158226)
(4.85247e-19 -1.02907e-18 -0.0158269)
(3.53057e-19 -1.34537e-18 -0.0158308)
(1.06542e-18 -1.17271e-18 -0.0158343)
(1.63727e-18 -8.51745e-19 -0.0158374)
(1.5954e-18 -9.19847e-19 -0.0158402)
(1.55748e-18 -1.5683e-18 -0.0158427)
(1.42884e-18 -1.91688e-18 -0.0158448)
(1.20772e-18 -2.19483e-18 -0.0158466)
(1.00596e-18 -2.70491e-18 -0.0158481)
(4.10438e-19 -3.23657e-18 -0.0158494)
(-5.97693e-19 -3.47778e-18 -0.0158504)
(-8.35139e-19 -3.60397e-18 -0.0158511)
(-6.24563e-19 -3.65446e-18 -0.0158516)
(-1.07798e-18 -3.44324e-18 -0.0158518)
(-1.61206e-18 -2.8626e-18 -0.0158518)
(-1.47534e-18 -2.32087e-18 -0.0158516)
(-1.26842e-18 -2.13895e-18 -0.0158511)
(-1.75449e-18 -2.10865e-18 -0.0158504)
(-2.42361e-18 -1.63693e-18 -0.0158494)
(-2.60049e-18 -8.82246e-19 -0.0158481)
(-2.64174e-18 -5.85708e-19 -0.0158466)
(-2.62205e-18 -5.55119e-19 -0.0158448)
(-2.21264e-18 -2.95997e-19 -0.0158427)
(-1.83121e-18 -3.13495e-20 -0.0158402)
(-1.71673e-18 5.2975e-19 -0.0158374)
(-1.74831e-18 1.10582e-18 -0.0158343)
(-1.79679e-18 1.39945e-18 -0.0158308)
(-1.6835e-18 1.01964e-18 -0.0158269)
(-1.22383e-18 5.70095e-19 -0.0158226)
(-1.02474e-18 1.64295e-19 -0.015818)
(-1.2694e-18 -1.60364e-20 -0.0158128)
(-1.15936e-18 6.1816e-20 -0.0158073)
(-7.73749e-19 1.02192e-19 -0.0158013)
(-7.14199e-19 1.48531e-19 -0.0157949)
(-5.92807e-19 2.31615e-19 -0.015788)
(-1.1228e-19 3.05529e-19 -0.0157806)
(-2.5714e-20 3.27872e-19 -0.0157728)
(-3.57095e-19 4.09176e-21 -0.0157644)
(-5.32914e-19 -4.66748e-19 -0.0157554)
(7.03114e-19 3.32215e-19 -0.0157378)
(6.46107e-19 3.28028e-19 -0.0157473)
(5.29245e-19 -7.28433e-20 -0.0157562)
(6.54316e-19 -3.02689e-19 -0.0157646)
(7.33928e-19 -6.87202e-19 -0.0157725)
(3.11621e-19 -9.00654e-19 -0.0157799)
(1.91895e-19 -7.75035e-19 -0.0157869)
(4.84395e-19 -7.01246e-19 -0.0157933)
(4.44183e-19 -6.74948e-19 -0.0157993)
(5.1619e-19 -5.11787e-19 -0.0158049)
(5.88373e-19 -3.72634e-19 -0.01581)
(1.72443e-19 -4.67646e-19 -0.0158147)
(9.16181e-20 -4.54255e-19 -0.015819)
(9.53211e-19 -4.56121e-20 -0.0158228)
(1.52303e-18 -6.6255e-20 -0.0158263)
(1.08553e-18 -5.33271e-19 -0.0158294)
(8.57705e-19 -1.4298e-18 -0.0158322)
(9.32663e-19 -2.02287e-18 -0.0158346)
(9.15012e-19 -2.56794e-18 -0.0158367)
(8.813e-19 -2.94443e-18 -0.0158384)
(4.01088e-19 -3.27668e-18 -0.0158399)
(-5.8372e-19 -3.1285e-18 -0.015841)
(-8.87268e-19 -2.56336e-18 -0.0158418)
(-7.06813e-19 -2.24485e-18 -0.0158424)
(-1.00084e-18 -2.3883e-18 -0.0158427)
(-1.28117e-18 -2.22594e-18 -0.0158427)
(-1.24175e-18 -1.75023e-18 -0.0158424)
(-1.3185e-18 -1.6398e-18 -0.0158418)
(-1.49519e-18 -1.6388e-18 -0.015841)
(-1.71784e-18 -1.02552e-18 -0.0158399)
(-2.07395e-18 -3.32079e-19 -0.0158384)
(-2.46067e-18 3.54673e-20 -0.0158367)
(-2.50925e-18 1.76499e-19 -0.0158346)
(-2.08294e-18 2.56012e-19 -0.0158322)
(-1.60641e-18 1.71051e-19 -0.0158294)
(-1.44969e-18 3.41731e-19 -0.0158263)
(-1.64299e-18 3.24446e-19 -0.0158228)
(-2.01099e-18 6.72176e-19 -0.015819)
(-2.08842e-18 6.44509e-19 -0.0158147)
(-1.66478e-18 6.43113e-19 -0.01581)
(-1.41086e-18 9.98374e-20 -0.0158049)
(-1.2219e-18 -1.52832e-19 -0.0157993)
(-9.65623e-19 -1.07269e-19 -0.0157933)
(-7.43924e-19 -2.18005e-19 -0.0157869)
(-5.7434e-19 -4.37122e-19 -0.0157799)
(-1.6631e-19 -2.69916e-19 -0.0157725)
(1.38385e-19 -5.17872e-20 -0.0157646)
(-2.15553e-19 9.30114e-20 -0.0157562)
(-7.24855e-19 1.85133e-20 -0.0157473)
(-6.56779e-19 -4.89936e-19 -0.0157378)
(6.29996e-19 7.42353e-19 -0.0157191)
(4.2903e-19 6.46077e-19 -0.0157291)
(2.4775e-19 1.79723e-19 -0.0157386)
(1.64613e-19 -1.64803e-19 -0.0157475)
(3.08625e-19 -5.44769e-19 -0.0157559)
(2.90041e-19 -4.442e-19 -0.0157638)
(5.29906e-20 -2.8031e-19 -0.0157712)
(7.3099e-20 -3.97604e-19 -0.0157781)
(3.24241e-19 -5.38529e-19 -0.0157846)
(7.12315e-19 -3.66519e-19 -0.0157906)
(9.17247e-19 -4.16441e-19 -0.0157961)
(4.59049e-19 -2.60532e-19 -0.0158012)
(2.24516e-19 2.24968e-19 -0.0158058)
(9.06216e-19 4.58356e-19 -0.0158101)
(1.30672e-18 -1.22747e-19 -0.0158139)
(5.54475e-19 -6.55347e-19 -0.0158173)
(1.05802e-19 -1.09082e-18 -0.0158204)
(2.39221e-19 -1.47887e-18 -0.0158231)
(2.68303e-19 -1.87493e-18 -0.0158254)
(3.68666e-19 -2.2539e-18 -0.0158273)
(3.28905e-19 -2.65412e-18 -0.0158289)
(-1.4835e-20 -2.48052e-18 -0.0158302)
(-2.0677e-19 -1.95057e-18 -0.0158312)
(-6.53761e-19 -1.6087e-18 -0.0158318)
(-1.32621e-18 -1.70293e-18 -0.0158321)
(-1.21455e-18 -1.71143e-18 -0.0158321)
(-9.4889e-19 -1.33995e-18 -0.0158318)
(-1.10565e-18 -1.14009e-18 -0.0158312)
(-1.09978e-18 -9.50911e-19 -0.0158302)
(-1.21214e-18 -5.39252e-19 -0.0158289)
(-1.84587e-18 -1.79472e-19 -0.0158273)
(-2.53172e-18 -1.14632e-19 -0.0158254)
(-2.58883e-18 1.81032e-19 -0.0158231)
(-2.10737e-18 3.50801e-19 -0.0158204)
(-1.5925e-18 2.89964e-19 -0.0158173)
(-1.67349e-18 2.07977e-19 -0.0158139)
(-1.90492e-18 1.70912e-20 -0.0158101)
(-2.05181e-18 1.65327e-19 -0.0158058)
(-1.89795e-18 4.85784e-19 -0.0158012)
(-1.57379e-18 7.72814e-19 -0.0157961)
(-1.5591e-18 5.93037e-19 -0.0157906)
(-1.17094e-18 5.20442e-19 -0.0157846)
(-8.47887e-19 4.81826e-19 -0.0157781)
(-6.91495e-19 2.12652e-19 -0.0157712)
(-3.05228e-19 -2.76271e-19 -0.0157638)
(2.50942e-19 -6.11278e-19 -0.0157559)
(2.30037e-19 -6.68822e-19 -0.0157475)
(-4.71802e-19 -3.67592e-19 -0.0157386)
(-1.03435e-18 -2.15094e-19 -0.0157291)
(-7.66958e-19 -3.39306e-19 -0.0157191)
(8.71934e-19 4.28948e-19 -0.0156994)
(3.52424e-19 1.49018e-19 -0.01571)
(1.95847e-20 -4.40135e-19 -0.0157199)
(-3.27575e-20 -5.22803e-19 -0.0157293)
(2.38695e-19 -3.06079e-19 -0.0157382)
(3.97098e-19 -2.97661e-19 -0.0157466)
(1.60502e-19 -6.6575e-19 -0.0157545)
(-4.68222e-20 -4.944e-19 -0.0157618)
(-6.90732e-21 -3.94656e-19 -0.0157687)
(2.77971e-19 -5.79187e-19 -0.0157751)
(8.35435e-19 -8.17609e-19 -0.015781)
(1.03325e-18 -4.82964e-19 -0.0157865)
(5.68247e-19 7.34124e-20 -0.0157915)
(4.6372e-19 6.93903e-20 -0.0157961)
(9.35681e-19 -4.55302e-19 -0.0158003)
(7.09256e-19 -6.43415e-19 -0.015804)
(1.50164e-19 -5.03522e-19 -0.0158073)
(1.11059e-19 -7.41468e-19 -0.0158102)
(9.06582e-20 -8.166e-19 -0.0158128)
(6.72334e-20 -8.68859e-19 -0.0158149)
(1.69433e-19 -1.19432e-18 -0.0158167)
(2.06575e-20 -1.22049e-18 -0.0158181)
(-1.04555e-19 -1.27962e-18 -0.0158191)
(-5.139e-19 -1.26725e-18 -0.0158198)
(-1.26465e-18 -1.14889e-18 -0.0158202)
(-1.02034e-18 -1.06903e-18 -0.0158202)
(-6.24473e-19 -8.47023e-19 -0.0158198)
(-8.28318e-19 -6.31733e-19 -0.0158191)
(-7.54383e-19 -4.79748e-19 -0.0158181)
(-9.73197e-19 -6.12054e-19 -0.0158167)
(-2.01198e-18 -5.49139e-19 -0.0158149)
(-2.567e-18 -3.21685e-19 -0.0158128)
(-2.24838e-18 2.43489e-19 -0.0158102)
(-1.89011e-18 6.11264e-19 -0.0158073)
(-1.69975e-18 6.02342e-19 -0.015804)
(-1.93195e-18 3.67158e-19 -0.0158003)
(-2.00373e-18 2.85738e-19 -0.0157961)
(-1.84909e-18 3.31439e-19 -0.0157915)
(-1.57155e-18 6.99374e-19 -0.0157865)
(-1.57016e-18 7.8894e-19 -0.015781)
(-1.43608e-18 7.84533e-19 -0.0157751)
(-8.22541e-19 8.33454e-19 -0.0157687)
(-7.71694e-19 8.40081e-19 -0.0157618)
(-8.13002e-19 6.95138e-19 -0.0157545)
(-3.93148e-19 2.79982e-19 -0.0157466)
(7.03844e-20 -4.52944e-19 -0.0157382)
(-5.38388e-20 -1.08256e-18 -0.0157293)
(-7.49635e-19 -1.02414e-18 -0.0157199)
(-1.01902e-18 -7.70742e-19 -0.01571)
(-5.65422e-19 -5.59655e-19 -0.0156994)
(1.09922e-18 -1.31555e-19 -0.0156788)
(4.89447e-19 -7.03742e-19 -0.0156898)
(3.62599e-20 -8.5409e-19 -0.0157003)
(4.41433e-20 -5.44693e-19 -0.0157101)
(4.72276e-20 -3.57453e-19 -0.0157195)
(-1.20551e-20 -9.03007e-19 -0.0157283)
(1.56793e-19 -1.27194e-18 -0.0157366)
(3.0375e-19 -8.6874e-19 -0.0157444)
(-4.34578e-20 -6.75987e-19 -0.0157517)
(-1.12184e-19 -6.04486e-19 -0.0157585)
(6.38673e-19 -3.38661e-19 -0.0157649)
(1.30907e-18 1.03895e-20 -0.0157707)
(9.50699e-19 7.36755e-20 -0.0157761)
(4.61746e-19 -5.57325e-21 -0.015781)
(7.91244e-19 -2.14768e-19 -0.0157854)
(8.36436e-19 -2.12876e-19 -0.0157894)
(1.58306e-19 -4.67877e-20 -0.015793)
(1.70366e-20 -4.89682e-19 -0.0157962)
(2.5151e-19 -5.54956e-19 -0.0157989)
(1.05581e-19 -5.30773e-19 -0.0158012)
(1.22782e-19 -6.2081e-19 -0.0158032)
(4.96527e-20 -3.87371e-19 -0.0158047)
(-7.499e-20 -2.95556e-19 -0.0158058)
(-3.89688e-19 -4.33289e-19 -0.0158066)
(-1.14277e-18 -3.59738e-19 -0.015807)
(-8.33898e-19 -2.33863e-19 -0.015807)
(-2.94188e-19 -2.49313e-19 -0.0158066)
(-5.14544e-19 -1.50908e-19 -0.0158058)
(-8.55245e-19 -1.19078e-19 -0.0158047)
(-1.30501e-18 -6.25309e-19 -0.0158032)
(-1.89896e-18 -6.97413e-19 -0.0158012)
(-2.03737e-18 2.57871e-20 -0.0157989)
(-1.77528e-18 5.4865e-19 -0.0157962)
(-1.77611e-18 8.14865e-19 -0.015793)
(-1.9235e-18 7.6554e-19 -0.0157894)
(-2.16811e-18 7.10871e-19 -0.0157854)
(-2.00091e-18 7.64212e-19 -0.015781)
(-1.61295e-18 8.18434e-19 -0.0157761)
(-1.46996e-18 1.03231e-18 -0.0157707)
(-1.59014e-18 7.13468e-19 -0.0157649)
(-1.25398e-18 6.91533e-19 -0.0157585)
(-7.86815e-19 6.46971e-19 -0.0157517)
(-9.20429e-19 4.71954e-19 -0.0157444)
(-8.86825e-19 1.69866e-19 -0.0157366)
(-5.37389e-19 -9.84666e-20 -0.0157283)
(-3.51763e-19 -5.99292e-19 -0.0157195)
(-4.92951e-19 -9.50911e-19 -0.0157101)
(-8.25841e-19 -1.04888e-18 -0.0157003)
(-6.47739e-19 -9.04029e-19 -0.0156898)
(-2.1974e-19 -9.00694e-19 -0.0156788)
(9.18272e-19 -9.88808e-20 -0.0156573)
(6.08219e-19 -8.07483e-19 -0.0156688)
(2.50664e-19 -6.85606e-19 -0.0156797)
(1.15454e-19 -4.90366e-19 -0.01569)
(-1.79131e-19 -3.32612e-19 -0.0156998)
(-4.82156e-19 -5.81332e-19 -0.0157091)
(-1.95724e-19 -4.97089e-19 -0.0157178)
(3.48715e-19 -5.71351e-19 -0.015726)
(2.06154e-19 -4.29482e-19 -0.0157337)
(-2.92441e-21 5.64487e-20 -0.0157409)
(5.10113e-19 6.23794e-19 -0.0157476)
(1.12337e-18 8.21426e-19 -0.0157538)
(8.24131e-19 4.89338e-19 -0.0157595)
(2.80412e-19 1.18505e-19 -0.0157647)
(6.96246e-19 -4.35483e-20 -0.0157694)
(1.09805e-18 -2.35105e-19 -0.0157737)
(1.02338e-19 -2.88163e-19 -0.0157776)
(-3.39871e-19 -7.23349e-19 -0.0157809)
(1.21666e-19 -6.66442e-19 -0.0157839)
(1.69624e-19 -7.24746e-19 -0.0157864)
(5.03571e-19 -6.03046e-19 -0.0157885)
(5.68664e-19 -3.36537e-19 -0.0157901)
(9.82951e-20 2.10534e-20 -0.0157913)
(-3.73197e-19 -3.07185e-19 -0.0157922)
(-1.00706e-18 -3.49784e-19 -0.0157926)
(-7.486e-19 -9.90762e-21 -0.0157926)
(-2.48022e-19 3.53875e-20 -0.0157922)
(-4.79611e-19 -6.29835e-20 -0.0157913)
(-1.06959e-18 -3.64646e-19 -0.0157901)
(-1.53357e-18 -7.67074e-19 -0.0157885)
(-1.58591e-18 -7.64412e-19 -0.0157864)
(-1.56587e-18 -2.07804e-19 -0.0157839)
(-1.66859e-18 6.37668e-20 -0.0157809)
(-1.90029e-18 3.67007e-19 -0.0157776)
(-2.05925e-18 4.84497e-19 -0.0157737)
(-2.11733e-18 5.88731e-19 -0.0157694)
(-1.80046e-18 1.13339e-18 -0.0157647)
(-1.45787e-18 1.12553e-18 -0.0157595)
(-1.70466e-18 1.09403e-18 -0.0157538)
(-1.88793e-18 7.5405e-19 -0.0157476)
(-1.21518e-18 6.17396e-19 -0.0157409)
(-8.71016e-19 4.47097e-19 -0.0157337)
(-1.21056e-18 4.93535e-19 -0.015726)
(-1.09894e-18 2.05226e-19 -0.0157178)
(-6.79272e-19 -3.04434e-19 -0.0157091)
(-4.12603e-19 -8.63528e-19 -0.0156998)
(-3.98702e-19 -9.80185e-19 -0.01569)
(-5.67561e-19 -7.87375e-19 -0.0156797)
(-3.55144e-19 -7.17322e-19 -0.0156688)
(9.43296e-21 -9.61647e-19 -0.0156573)
(5.40928e-19 -1.27624e-20 -0.015635)
(3.14912e-19 -4.67756e-19 -0.0156469)
(2.42085e-19 -4.09573e-19 -0.0156582)
(3.59958e-19 -5.39675e-19 -0.0156689)
(1.41558e-19 -4.39843e-19 -0.0156792)
(-3.66425e-19 -6.4773e-19 -0.0156888)
(-5.93348e-19 -4.58862e-19 -0.015698)
(-2.43035e-20 -6.21327e-19 -0.0157066)
(3.74599e-19 -2.77529e-19 -0.0157147)
(3.41907e-19 1.44355e-19 -0.0157222)
(6.36859e-19 7.06019e-19 -0.0157293)
(1.04742e-18 8.21486e-19 -0.0157358)
(6.48209e-19 4.19583e-19 -0.0157418)
(4.92865e-20 -5.02336e-20 -0.0157473)
(2.89342e-19 -7.17136e-20 -0.0157524)
(8.92517e-19 -4.34453e-19 -0.0157569)
(1.33784e-19 -8.10844e-19 -0.015761)
(-3.30154e-19 -7.27716e-19 -0.0157646)
(1.77561e-19 -2.44516e-19 -0.0157677)
(1.89505e-19 -3.23859e-19 -0.0157704)
(5.73062e-19 -2.43725e-19 -0.0157726)
(8.76963e-19 -4.64e-19 -0.0157744)
(2.1144e-19 -2.87832e-19 -0.0157757)
(-5.67977e-19 -6.06184e-19 -0.0157766)
(-8.38303e-19 -7.71807e-19 -0.015777)
(-3.60611e-19 -4.04778e-19 -0.015777)
(-1.00348e-19 -5.75849e-20 -0.0157766)
(-7.37989e-19 -2.27128e-19 -0.0157757)
(-1.49942e-18 -5.64292e-19 -0.0157744)
(-1.69859e-18 -7.50558e-19 -0.0157726)
(-1.4626e-18 -1.0533e-18 -0.0157704)
(-1.48981e-18 -1.1633e-18 -0.0157677)
(-1.56149e-18 -9.59427e-19 -0.0157646)
(-1.73688e-18 -4.95131e-19 -0.015761)
(-2.02104e-18 -4.61431e-20 -0.0157569)
(-1.81524e-18 -1.06194e-19 -0.0157524)
(-1.51672e-18 5.56228e-19 -0.0157473)
(-1.74823e-18 6.73716e-19 -0.0157418)
(-2.14374e-18 3.9517e-19 -0.0157358)
(-1.9495e-18 3.98697e-19 -0.0157293)
(-1.18177e-18 2.48483e-19 -0.0157222)
(-9.57075e-19 -4.5291e-21 -0.0157147)
(-1.11678e-18 6.64613e-19 -0.0157066)
(-1.03758e-18 7.5419e-19 -0.015698)
(-7.89229e-19 1.36706e-19 -0.0156888)
(-4.56479e-19 -4.73575e-19 -0.0156792)
(-2.66304e-19 -7.90476e-19 -0.0156689)
(-2.99162e-19 -5.86506e-19 -0.0156582)
(-1.12094e-19 -5.43984e-19 -0.0156469)
(7.23418e-20 -7.49809e-19 -0.015635)
(3.59176e-19 2.25953e-20 -0.0156118)
(1.79186e-19 -4.00073e-20 -0.0156241)
(-1.08242e-19 -1.76647e-19 -0.0156358)
(-8.48738e-21 -4.11184e-19 -0.015647)
(6.22998e-20 -7.01439e-19 -0.0156576)
(-1.54038e-19 -1.23443e-18 -0.0156677)
(-4.11194e-19 -9.73967e-19 -0.0156772)
(-8.74305e-20 -5.73787e-19 -0.0156862)
(4.62614e-19 -1.70949e-19 -0.0156947)
(5.88047e-19 -2.99017e-20 -0.0157026)
(8.56864e-19 2.53975e-19 -0.0157099)
(1.08438e-18 1.71193e-19 -0.0157168)
(5.99865e-19 -3.07198e-19 -0.0157231)
(3.42117e-20 -5.30197e-19 -0.0157289)
(1.8332e-19 -2.51468e-19 -0.0157342)
(5.83934e-19 -2.30161e-19 -0.015739)
(1.42475e-19 -7.15447e-19 -0.0157433)
(3.77505e-20 -3.63794e-19 -0.0157471)
(3.46454e-19 1.46232e-20 -0.0157505)
(1.5507e-19 -8.68485e-20 -0.0157533)
(4.33136e-19 9.20503e-20 -0.0157556)
(7.82892e-19 -1.91619e-19 -0.0157575)
(2.51291e-19 -4.82327e-19 -0.0157589)
(-6.79677e-19 -4.92231e-19 -0.0157598)
(-8.09351e-19 -4.15553e-19 -0.0157603)
(-1.32866e-22 -3.79063e-19 -0.0157603)
(8.91804e-20 -2.20328e-19 -0.0157598)
(-8.757e-19 -3.4134e-19 -0.0157589)
(-1.57598e-18 -4.1281e-19 -0.0157575)
(-1.9319e-18 -1.64988e-19 -0.0157556)
(-1.89964e-18 -5.79639e-19 -0.0157533)
(-1.56171e-18 -1.03337e-18 -0.0157505)
(-1.26398e-18 -1.04338e-18 -0.0157471)
(-1.4168e-18 -8.78652e-19 -0.0157433)
(-1.94448e-18 -3.79326e-19 -0.015739)
(-1.70644e-18 -3.51218e-19 -0.0157342)
(-1.38115e-18 -3.1918e-21 -0.0157289)
(-2.01274e-18 1.86153e-19 -0.0157231)
(-2.29589e-18 -6.80157e-20 -0.0157168)
(-1.84455e-18 1.4485e-19 -0.0157099)
(-1.2167e-18 1.34575e-19 -0.0157026)
(-6.42796e-19 -4.12013e-19 -0.0156947)
(-6.61558e-19 3.75678e-19 -0.0156862)
(-1.1718e-18 7.17456e-19 -0.0156772)
(-1.02289e-18 2.95826e-19 -0.0156677)
(-3.94254e-19 -1.2418e-20 -0.0156576)
(-1.66735e-20 -3.49261e-19 -0.015647)
(-1.0715e-21 -3.63515e-19 -0.0156358)
(4.41346e-20 -4.25783e-19 -0.0156241)
(-1.15269e-19 -6.42251e-19 -0.0156118)
(2.73e-19 1.57872e-19 -0.0155878)
(1.78188e-19 3.33708e-20 -0.0156005)
(-1.09917e-19 -1.20293e-19 -0.0156126)
(-3.39148e-19 -1.17638e-19 -0.0156242)
(-4.24888e-19 -7.17035e-19 -0.0156352)
(-4.19738e-19 -1.04335e-18 -0.0156457)
(-2.619e-19 -8.31584e-19 -0.0156556)
(-1.02484e-19 -4.75538e-20 -0.0156649)
(2.92772e-19 2.4978e-19 -0.0156737)
(4.38835e-19 2.24398e-19 -0.015682)
(7.33988e-19 1.05292e-19 -0.0156897)
(9.54333e-19 -3.26988e-19 -0.0156968)
(6.64396e-19 -1.02928e-18 -0.0157035)
(2.46566e-19 -7.43278e-19 -0.0157095)
(3.55868e-19 -7.90837e-20 -0.0157151)
(5.03277e-19 2.76629e-20 -0.0157201)
(8.84729e-20 -5.20723e-19 -0.0157247)
(1.54968e-19 -3.23961e-19 -0.0157287)
(4.21289e-19 -1.51928e-19 -0.0157321)
(3.18105e-19 -2.32693e-19 -0.0157351)
(5.57365e-19 -4.69839e-20 -0.0157376)
(6.15666e-19 -2.56182e-19 -0.0157396)
(2.08477e-19 -6.52147e-19 -0.0157411)
(-4.27832e-19 -5.94316e-19 -0.015742)
(-7.16795e-19 -1.49066e-19 -0.0157425)
(-3.64908e-20 -7.27234e-20 -0.0157425)
(8.66606e-20 -4.15386e-19 -0.015742)
(-9.18713e-19 -6.24212e-19 -0.0157411)
(-1.47094e-18 -7.07932e-19 -0.0157396)
(-1.89788e-18 -2.24394e-19 -0.0157376)
(-2.0927e-18 -2.127e-19 -0.0157351)
(-1.68036e-18 -3.54517e-19 -0.0157321)
(-1.32372e-18 -5.06288e-19 -0.0157287)
(-1.37811e-18 -8.49287e-19 -0.0157247)
(-1.7725e-18 -5.55303e-19 -0.0157201)
(-1.44787e-18 -4.4819e-19 -0.0157151)
(-1.31473e-18 -2.36287e-19 -0.0157095)
(-2.25654e-18 -1.6212e-20 -0.0157035)
(-2.27099e-18 7.6067e-20 -0.0156968)
(-1.50256e-18 1.98491e-19 -0.0156897)
(-1.04482e-18 4.82426e-19 -0.015682)
(-4.82672e-19 -1.13867e-19 -0.0156737)
(-6.13365e-19 -8.47349e-21 -0.0156649)
(-1.25475e-18 6.06145e-19 -0.0156556)
(-7.68632e-19 4.59151e-19 -0.0156457)
(-4.4574e-20 2.47697e-19 -0.0156352)
(1.449e-19 5.76415e-20 -0.0156242)
(2.03805e-20 -1.32509e-19 -0.0156126)
(-1.27966e-19 -4.74987e-19 -0.0156005)
(-2.57601e-19 -7.76963e-19 -0.0155878)
(2.33385e-19 1.03655e-19 -0.0155631)
(1.37805e-19 -8.25877e-20 -0.0155762)
(-4.57024e-20 -1.7364e-19 -0.0155887)
(-4.27307e-19 -2.379e-19 -0.0156006)
(-6.43323e-19 -7.99659e-19 -0.015612)
(-6.47683e-19 -6.97731e-19 -0.0156228)
(-2.06285e-19 -3.71593e-19 -0.015633)
(1.02484e-19 2.69073e-19 -0.0156427)
(2.4571e-19 3.94662e-19 -0.0156519)
(1.55712e-19 5.50142e-19 -0.0156604)
(2.35396e-19 4.13434e-19 -0.0156685)
(3.59003e-19 -2.99372e-19 -0.0156759)
(5.69271e-19 -9.18374e-19 -0.0156828)
(7.33558e-19 -2.71241e-19 -0.0156892)
(5.88895e-19 4.4174e-19 -0.015695)
(2.53928e-19 2.62332e-19 -0.0157003)
(-1.34468e-19 -2.18889e-19 -0.015705)
(2.40697e-19 -9.50102e-20 -0.0157092)
(4.5252e-19 3.52897e-21 -0.0157128)
(3.20654e-19 -2.97714e-19 -0.015716)
(5.39557e-19 -2.37611e-19 -0.0157186)
(5.20908e-19 -4.57151e-19 -0.0157206)
(1.74522e-19 -5.78053e-19 -0.0157222)
(-1.90407e-19 -8.89278e-19 -0.0157232)
(-3.38989e-19 -5.75226e-19 -0.0157237)
(-4.09092e-20 -5.92186e-20 -0.0157237)
(-2.11835e-19 -4.92957e-19 -0.0157232)
(-1.15688e-18 -9.88911e-19 -0.0157222)
(-1.38549e-18 -9.06716e-19 -0.0157206)
(-1.70625e-18 -6.74635e-19 -0.0157186)
(-2.04318e-18 -5.57787e-19 -0.015716)
(-1.63959e-18 -5.05144e-19 -0.0157128)
(-1.50866e-18 -5.67029e-19 -0.0157092)
(-1.53644e-18 -1.02279e-18 -0.015705)
(-1.70939e-18 -7.41339e-19 -0.0157003)
(-1.38219e-18 -6.51454e-19 -0.015695)
(-1.40973e-18 -9.31243e-19 -0.0156892)
(-2.28287e-18 -7.02451e-19 -0.0156828)
(-1.97648e-18 -5.33579e-20 -0.0156759)
(-1.10323e-18 3.84643e-19 -0.0156685)
(-9.00517e-19 6.83785e-19 -0.0156604)
(-5.60347e-19 2.59567e-19 -0.0156519)
(-5.45333e-19 -2.60328e-19 -0.0156427)
(-9.45864e-19 4.60387e-19 -0.015633)
(-5.11621e-19 7.57976e-19 -0.0156228)
(1.41985e-20 3.00991e-19 -0.015612)
(6.69249e-20 2.25055e-20 -0.0156006)
(-2.41188e-19 -2.001e-19 -0.0155887)
(-3.68005e-19 -6.10006e-19 -0.0155762)
(-1.9228e-19 -8.05232e-19 -0.0155631)
(1.50503e-19 7.96405e-20 -0.0155377)
(1.15057e-19 -1.07001e-19 -0.0155511)
(1.19979e-20 -2.34042e-19 -0.0155639)
(-5.0909e-19 -3.43318e-19 -0.0155762)
(-8.35929e-19 -5.77936e-19 -0.0155879)
(-7.81135e-19 -1.47152e-19 -0.0155991)
(-4.00841e-19 3.16096e-19 -0.0156097)
(7.23531e-20 2.27968e-19 -0.0156197)
(3.8062e-19 3.88732e-19 -0.0156292)
(3.18448e-19 6.41679e-19 -0.0156381)
(-5.95074e-20 5.14567e-19 -0.0156464)
(-2.09045e-19 1.35341e-20 -0.0156541)
(3.38303e-19 4.04043e-20 -0.0156613)
(9.93553e-19 5.90097e-19 -0.0156679)
(7.52227e-19 7.73303e-19 -0.015674)
(1.55012e-19 2.03475e-19 -0.0156795)
(-2.4788e-19 -6.23041e-20 -0.0156844)
(1.78403e-19 2.62145e-19 -0.0156887)
(2.89326e-19 1.74396e-19 -0.0156926)
(1.94483e-19 -9.6678e-20 -0.0156958)
(5.36342e-19 -2.18038e-20 -0.0156985)