/*--------------------------------*- C++ -*----------------------------------*\
  =========                 |
  \\      /  F ield         | OpenFOAM: The Open Source CFD Toolbox
   \\    /   O peration     | Website:  https://openfoam.org
    \\  /    A nd           | Version:  7
     \\/     M anipulation  |
\*---------------------------------------------------------------------------*/
FoamFile
{
    version     2.0;
    format      ascii;
    class       volScalarField;
    location    "128000";
    object      p;
}
// * * * * * * * * * * * * * * * * * * * * * * * * * * * * * * * * * * * * * //

dimensions      [0 2 -2 0 0 0 0];

internalField   nonuniform List<scalar> 
4783
(
-2.74205e-18
-2.75166e-18
-2.75469e-18
-2.78389e-18
-2.76621e-18
-2.78172e-18
-2.75378e-18
-2.73796e-18
-2.72119e-18
-2.76303e-18
-2.74679e-18
-2.74009e-18
-2.73619e-18
-2.72508e-18
-2.70405e-18
-2.71212e-18
-2.76407e-18
-2.76361e-18
-2.74145e-18
-2.75719e-18
-2.75255e-18
-2.7069e-18
-2.75285e-18
-2.76594e-18
-2.73171e-18
-2.75068e-18
-2.75236e-18
-2.77817e-18
-2.75691e-18
-2.75183e-18
-2.74765e-18
-2.74849e-18
-2.73833e-18
-2.73979e-18
-2.74307e-18
-2.73559e-18
-2.72864e-18
-2.73073e-18
-2.75596e-18
-2.70909e-18
-2.69263e-18
-2.69967e-18
-2.72077e-18
-2.72047e-18
-2.72769e-18
-2.72316e-18
-2.73994e-18
-2.74411e-18
-2.73012e-18
-2.74784e-18
-2.74772e-18
-2.76063e-18
-2.77704e-18
-2.76909e-18
-2.73764e-18
-2.72897e-18
-2.76081e-18
-2.74403e-18
-2.7331e-18
-2.71268e-18
-2.73189e-18
-2.72154e-18
-2.69785e-18
-2.71806e-18
-2.72192e-18
-2.72451e-18
-2.74966e-18
-2.74473e-18
-2.72887e-18
-2.73043e-18
-2.7645e-18
-2.73016e-18
-2.74326e-18
-2.74792e-18
-2.74102e-18
-2.7208e-18
-2.72202e-18
-2.75782e-18
-2.7512e-18
-2.76327e-18
-2.74272e-18
-2.72949e-18
-2.73677e-18
-2.73008e-18
-2.70324e-18
-2.72699e-18
-2.73341e-18
-2.72629e-18
-2.74812e-18
-2.73563e-18
-2.77069e-18
-2.75683e-18
-2.75922e-18
-2.75381e-18
-2.74941e-18
-2.74081e-18
-2.70851e-18
-2.73013e-18
-2.74173e-18
-2.74821e-18
-2.7384e-18
-2.71651e-18
-2.73646e-18
-2.72175e-18
-2.75321e-18
-2.73938e-18
-2.72957e-18
-2.73287e-18
-2.76962e-18
-2.74778e-18
-2.74919e-18
-2.74717e-18
-2.75779e-18
-2.75607e-18
-2.77436e-18
-2.76366e-18
-2.74851e-18
-2.75013e-18
-2.74464e-18
-2.72815e-18
-2.74498e-18
-2.74741e-18
-2.7313e-18
-2.69361e-18
-2.73182e-18
-2.73642e-18
-2.73824e-18
-2.73911e-18
-2.75149e-18
-2.73043e-18
-2.73676e-18
-2.72696e-18
-2.73825e-18
-2.7478e-18
-2.74899e-18
-2.73548e-18
-2.7564e-18
-2.76927e-18
-2.73163e-18
-2.74575e-18
-2.76497e-18
-2.74684e-18
-2.74882e-18
-2.74782e-18
-2.7153e-18
-2.69621e-18
-2.7418e-18
-2.75049e-18
-2.73467e-18
-2.72997e-18
-2.72744e-18
-2.7274e-18
-2.74742e-18
-2.74117e-18
-2.75819e-18
-2.75795e-18
-2.76036e-18
-2.77018e-18
-2.74945e-18
-2.73902e-18
-2.74503e-18
-2.7272e-18
-2.72501e-18
-2.7282e-18
-2.75292e-18
-2.76472e-18
-2.72914e-18
-2.73714e-18
-2.76745e-18
-2.77755e-18
-2.72429e-18
-2.72674e-18
-2.70816e-18
-2.70219e-18
-2.70474e-18
-2.71066e-18
-2.77716e-18
-2.78575e-18
-2.7739e-18
-2.75588e-18
-2.73702e-18
-2.773e-18
-2.77695e-18
-2.76657e-18
-2.75074e-18
-2.75589e-18
-2.74236e-18
-2.7466e-18
-2.76196e-18
-2.74532e-18
-2.72865e-18
-2.74185e-18
-2.73151e-18
-2.7326e-18
-2.72817e-18
-2.71027e-18
-2.70431e-18
-2.71737e-18
-2.76235e-18
-2.79047e-18
-2.74289e-18
-2.75006e-18
-2.75145e-18
-2.76449e-18
-2.73395e-18
-2.74956e-18
-2.74995e-18
-2.72771e-18
-2.70582e-18
-2.72215e-18
-2.74655e-18
-2.7424e-18
-2.73283e-18
-2.74e-18
-2.74114e-18
-2.73187e-18
-2.73632e-18
-2.74518e-18
-2.72537e-18
-2.72211e-18
-2.75495e-18
-2.75425e-18
-2.74907e-18
-2.75217e-18
-2.75121e-18
-2.7353e-18
-2.71126e-18
-2.74179e-18
-2.74545e-18
-2.73862e-18
-2.72168e-18
-2.73826e-18
-2.74387e-18
-2.74286e-18
-2.72188e-18
-2.75492e-18
-2.77554e-18
-2.73284e-18
-2.7292e-18
-2.73059e-18
-2.7116e-18
-2.7371e-18
-2.76843e-18
-2.73847e-18
-2.74487e-18
-2.74942e-18
-2.76917e-18
-2.7821e-18
-2.76342e-18
-2.74354e-18
-2.7458e-18
-2.74712e-18
-2.74139e-18
-2.74922e-18
-2.76234e-18
-2.75985e-18
-2.73267e-18
-2.72709e-18
-2.76765e-18
-2.71636e-18
-2.71844e-18
-2.72695e-18
-2.70794e-18
-2.72516e-18
-2.74134e-18
-2.76454e-18
-2.75324e-18
-2.72261e-18
-2.75033e-18
-2.75051e-18
-2.75053e-18
-2.72595e-18
-2.73962e-18
-2.74261e-18
-2.74448e-18
-2.76098e-18
-2.76866e-18
-2.7463e-18
-2.73466e-18
-2.73326e-18
-2.74245e-18
-2.71774e-18
-2.74585e-18
-2.7336e-18
-2.72247e-18
-2.7179e-18
-2.7553e-18
-2.75764e-18
-2.76955e-18
-2.76391e-18
-2.7628e-18
-2.73152e-18
-2.7406e-18
-2.72181e-18
-2.72596e-18
-2.72807e-18
-2.73662e-18
-2.74516e-18
-2.75836e-18
-2.7359e-18
-2.72291e-18
-2.73758e-18
-2.74948e-18
-2.72904e-18
-2.73873e-18
-2.73459e-18
-2.73216e-18
-2.73769e-18
-2.77055e-18
-2.75563e-18
-2.74403e-18
-2.75443e-18
-2.74783e-18
-2.73754e-18
-2.72594e-18
-2.74135e-18
-2.75225e-18
-2.73987e-18
-2.73066e-18
-2.73875e-18
-2.71999e-18
-2.72126e-18
-2.7335e-18
-2.73973e-18
-2.72667e-18
-2.71682e-18
-2.73586e-18
-2.72943e-18
-2.75624e-18
-2.75583e-18
-2.7749e-18
-2.75494e-18
-2.7275e-18
-2.71229e-18
-2.71092e-18
-2.73746e-18
-2.72886e-18
-2.74412e-18
-2.75254e-18
-2.73515e-18
-2.70265e-18
-2.71812e-18
-2.74087e-18
-2.75381e-18
-2.74754e-18
-2.72335e-18
-2.74358e-18
-2.75152e-18
-2.75208e-18
-2.74566e-18
-2.76114e-18
-2.73232e-18
-2.73749e-18
-2.74401e-18
-2.72153e-18
-2.72631e-18
-2.74093e-18
-2.73254e-18
-2.72717e-18
-2.71469e-18
-2.73111e-18
-2.7538e-18
-2.73983e-18
-2.73824e-18
-2.75742e-18
-2.75177e-18
-2.73964e-18
-2.75725e-18
-2.74659e-18
-2.74924e-18
-2.77034e-18
-2.71705e-18
-2.75052e-18
-2.74621e-18
-2.75638e-18
-2.75095e-18
-2.72083e-18
-2.72864e-18
-2.76035e-18
-2.75147e-18
-2.74376e-18
-2.73222e-18
-2.74304e-18
-2.74455e-18
-2.75203e-18
-2.73454e-18
-2.731e-18
-2.7474e-18
-2.75795e-18
-2.74197e-18
-2.75177e-18
-2.74121e-18
-2.74963e-18
-2.74316e-18
-2.74298e-18
-2.74042e-18
-2.73095e-18
-2.73372e-18
-2.71206e-18
-2.75303e-18
-2.75299e-18
-2.73764e-18
-2.75456e-18
-2.7481e-18
-2.74506e-18
-2.74569e-18
-2.71831e-18
-2.71856e-18
-2.71379e-18
-2.76507e-18
-2.75006e-18
-2.74674e-18
-2.73659e-18
-2.7408e-18
-2.74917e-18
-2.74084e-18
-2.73852e-18
-2.75563e-18
-2.748e-18
-2.74607e-18
-2.74599e-18
-2.73509e-18
-2.74468e-18
-2.75129e-18
-2.75551e-18
-2.74791e-18
-2.73315e-18
-2.74774e-18
-2.73144e-18
-2.7374e-18
-2.763e-18
-2.75123e-18
-2.73572e-18
-2.75105e-18
-2.73992e-18
-2.72368e-18
-2.74225e-18
-2.74372e-18
-2.74338e-18
-2.73536e-18
-2.73633e-18
-2.73663e-18
-2.74383e-18
-2.75292e-18
-2.7421e-18
-2.74091e-18
-2.74949e-18
-2.74738e-18
-2.74972e-18
-2.74841e-18
-2.74944e-18
-2.74142e-18
-2.74955e-18
-2.75206e-18
-2.74393e-18
-2.74865e-18
-2.7509e-18
-2.74162e-18
-2.74024e-18
-2.75516e-18
-2.73152e-18
-2.73334e-18
-2.76592e-18
-2.74333e-18
-2.74517e-18
-2.74678e-18
-2.74459e-18
-2.75126e-18
-2.74862e-18
-2.74413e-18
-2.75351e-18
-2.74844e-18
-2.74223e-18
-2.76113e-18
-2.7491e-18
-2.7355e-18
-2.77215e-18
-2.73774e-18
-2.74101e-18
-2.76941e-18
-2.74918e-18
-2.74396e-18
-2.75359e-18
-2.75274e-18
-2.74431e-18
-2.75505e-18
-2.75666e-18
-2.74624e-18
-2.76306e-18
-2.74806e-18
-2.73678e-18
-2.76469e-18
-2.75503e-18
-2.77963e-18
-2.75857e-18
-2.75895e-18
-2.76276e-18
-2.77156e-18
-2.75139e-18
-2.73325e-18
-2.74655e-18
-2.75364e-18
-2.74166e-18
-2.7673e-18
-2.75328e-18
-2.74072e-18
-2.75312e-18
-2.75619e-18
-2.74863e-18
-2.74377e-18
-2.75374e-18
-2.75368e-18
-2.74215e-18
-2.74855e-18
-2.74591e-18
-2.73493e-18
-2.75747e-18
-2.76757e-18
-2.76755e-18
-2.75857e-18
-2.75661e-18
-2.75688e-18
-2.76468e-18
-2.77084e-18
-2.76058e-18
-2.75832e-18
-2.75477e-18
-2.74711e-18
-2.73808e-18
-2.73984e-18
-2.75728e-18
-2.75773e-18
-2.75207e-18
-2.75543e-18
-2.73888e-18
-2.78246e-18
-2.76502e-18
-2.77351e-18
-2.75917e-18
-2.76594e-18
-2.75278e-18
-2.72233e-18
-2.71812e-18
-2.75282e-18
-2.76955e-18
-2.74204e-18
-2.75344e-18
-2.75669e-18
-2.75475e-18
-2.75719e-18
-2.75639e-18
-2.75562e-18
-2.7652e-18
-2.77077e-18
-2.75828e-18
-2.75707e-18
-2.75681e-18
-2.75344e-18
-2.75887e-18
-2.76053e-18
-2.75693e-18
-2.75569e-18
-2.75405e-18
-2.75557e-18
-2.75167e-18
-2.74167e-18
-2.76168e-18
-2.76124e-18
-2.75216e-18
-2.76071e-18
-2.77606e-18
-2.76145e-18
-2.75673e-18
-2.75316e-18
-2.76126e-18
-2.75136e-18
-2.7736e-18
-2.76611e-18
-2.78e-18
-2.7377e-18
-2.75143e-18
-2.75963e-18
-2.75135e-18
-2.73493e-18
-2.76722e-18
-2.76059e-18
-2.76462e-18
-2.75614e-18
-2.74169e-18
-2.76686e-18
-2.73541e-18
-2.7641e-18
-2.76986e-18
-2.76533e-18
-2.76e-18
-2.76154e-18
-2.76242e-18
-2.76121e-18
-2.77243e-18
-2.77045e-18
-2.76184e-18
-2.75225e-18
-2.75812e-18
-2.76418e-18
-2.76412e-18
-2.76588e-18
-2.77435e-18
-2.76622e-18
-2.76463e-18
-2.76553e-18
-2.76812e-18
-2.77479e-18
-2.77164e-18
-2.77109e-18
-2.77165e-18
-2.76861e-18
-2.7765e-18
-2.7231e-18
-2.75809e-18
-2.76667e-18
-2.781e-18
-2.75372e-18
-2.75767e-18
-2.77788e-18
-2.74202e-18
-2.75465e-18
-2.76306e-18
-2.75997e-18
-2.76174e-18
-2.78764e-18
-2.7448e-18
-2.75509e-18
-2.75444e-18
-2.7476e-18
-2.75327e-18
-2.77674e-18
-2.7644e-18
-2.76146e-18
-2.76933e-18
-2.76145e-18
-2.76118e-18
-2.76197e-18
-2.77055e-18
-2.76294e-18
-2.75546e-18
-2.76916e-18
-2.76564e-18
-2.76971e-18
-2.77352e-18
-2.77613e-18
-2.76183e-18
-2.75846e-18
-2.75777e-18
-2.75675e-18
-2.74769e-18
-2.76286e-18
-2.77166e-18
-2.77583e-18
-2.76317e-18
-2.74244e-18
-2.759e-18
-2.78207e-18
-2.74649e-18
-2.75012e-18
-2.73497e-18
-2.75656e-18
-2.76398e-18
-2.7763e-18
-2.76226e-18
-2.76342e-18
-2.74384e-18
-2.76264e-18
-2.74819e-18
-2.76219e-18
-2.78139e-18
-2.77864e-18
-2.76339e-18
-2.7657e-18
-2.76504e-18
-2.76286e-18
-2.76635e-18
-2.77221e-18
-2.77326e-18
-2.76176e-18
-2.7595e-18
-2.7704e-18
-2.77283e-18
-2.76902e-18
-2.77312e-18
-2.77541e-18
-2.77934e-18
-2.77242e-18
-2.76181e-18
-2.76775e-18
-2.76728e-18
-2.77286e-18
-2.78391e-18
-2.78106e-18
-2.78619e-18
-2.7855e-18
-2.78167e-18
-2.72731e-18
-2.73264e-18
-2.76281e-18
-2.78044e-18
-2.7585e-18
-2.74938e-18
-2.74578e-18
-2.7756e-18
-2.74276e-18
-2.74983e-18
-2.77817e-18
-2.73059e-18
-2.76043e-18
-2.77987e-18
-2.77359e-18
-2.79817e-18
-2.77337e-18
-2.76161e-18
-2.76296e-18
-2.7666e-18
-2.76231e-18
-2.75647e-18
-2.76081e-18
-2.76643e-18
-2.77751e-18
-2.77431e-18
-2.77082e-18
-2.76629e-18
-2.76481e-18
-2.75957e-18
-2.77225e-18
-2.77073e-18
-2.75901e-18
-2.75825e-18
-2.76311e-18
-2.77038e-18
-2.76905e-18
-2.75856e-18
-2.76182e-18
-2.76925e-18
-2.77982e-18
-2.7744e-18
-2.75427e-18
-2.75431e-18
-2.7659e-18
-2.76994e-18
-2.76603e-18
-2.76802e-18
-2.78313e-18
-2.76942e-18
-2.73781e-18
-2.78069e-18
-2.80105e-18
-2.74995e-18
-2.76227e-18
-2.77167e-18
-2.78693e-18
-2.79948e-18
-2.76785e-18
-2.73999e-18
-2.75679e-18
-2.77972e-18
-2.79882e-18
-2.76924e-18
-2.75674e-18
-2.77236e-18
-2.76107e-18
-2.75533e-18
-2.76393e-18
-2.76228e-18
-2.75121e-18
-2.75708e-18
-2.77601e-18
-2.78496e-18
-2.77548e-18
-2.78383e-18
-2.77771e-18
-2.77798e-18
-2.77736e-18
-2.78045e-18
-2.78429e-18
-2.78432e-18
-2.78364e-18
-2.79223e-18
-2.7754e-18
-2.76063e-18
-2.75267e-18
-2.76597e-18
-2.77421e-18
-2.76222e-18
-2.76726e-18
-2.78637e-18
-2.74688e-18
-2.76774e-18
-2.77173e-18
-2.7724e-18
-2.7892e-18
-2.78981e-18
-2.77051e-18
-2.77385e-18
-2.78924e-18
-2.79228e-18
-2.77594e-18
-2.77841e-18
-2.79357e-18
-2.77261e-18
-2.75734e-18
-2.76549e-18
-2.76478e-18
-2.75471e-18
-2.7667e-18
-2.76907e-18
-2.77064e-18
-2.76401e-18
-2.77015e-18
-2.77291e-18
-2.77148e-18
-2.76682e-18
-2.77183e-18
-2.77517e-18
-2.7763e-18
-2.77717e-18
-2.78248e-18
-2.772e-18
-2.77129e-18
-2.77236e-18
-2.78819e-18
-2.76083e-18
-2.7355e-18
-2.77347e-18
-2.8042e-18
-2.77173e-18
-2.74639e-18
-2.78762e-18
-2.76247e-18
-2.76615e-18
-2.76781e-18
-2.77e-18
-2.7752e-18
-2.78697e-18
-2.75984e-18
-2.78329e-18
-2.78538e-18
-2.76069e-18
-2.78013e-18
-2.79758e-18
-2.79575e-18
-2.77788e-18
-2.77774e-18
-2.75856e-18
-2.75018e-18
-2.7673e-18
-2.77019e-18
-2.76404e-18
-2.77031e-18
-2.77183e-18
-2.77099e-18
-2.76703e-18
-2.76868e-18
-2.77333e-18
-2.77292e-18
-2.78535e-18
-2.77867e-18
-2.77826e-18
-2.78702e-18
-2.77993e-18
-2.78438e-18
-2.7811e-18
-2.7454e-18
-2.75709e-18
-2.74317e-18
-2.79179e-18
-2.78537e-18
-2.78837e-18
-2.769e-18
-2.78496e-18
-2.75464e-18
-2.78737e-18
-2.77405e-18
-2.76609e-18
-2.77261e-18
-2.78502e-18
-2.77084e-18
-2.76938e-18
-2.77163e-18
-2.76541e-18
-2.76762e-18
-2.76096e-18
-2.76889e-18
-2.76912e-18
-2.76984e-18
-2.76332e-18
-2.77238e-18
-2.7709e-18
-2.77358e-18
-2.7733e-18
-2.77573e-18
-2.77693e-18
-2.77422e-18
-2.77614e-18
-2.77857e-18
-2.77715e-18
-2.77851e-18
-2.78102e-18
-2.78886e-18
-2.80316e-18
-2.7978e-18
-2.79416e-18
-2.78486e-18
-2.77579e-18
-2.75869e-18
-2.77195e-18
-2.77428e-18
-2.79136e-18
-2.77235e-18
-2.77255e-18
-2.76754e-18
-2.76159e-18
-2.77003e-18
-2.80979e-18
-2.79318e-18
-2.77435e-18
-2.7701e-18
-2.77659e-18
-2.78515e-18
-2.76133e-18
-2.78106e-18
-2.75528e-18
-2.75232e-18
-2.76464e-18
-2.76881e-18
-2.76498e-18
-2.77866e-18
-2.7793e-18
-2.78716e-18
-2.76641e-18
-2.76284e-18
-2.77033e-18
-2.77403e-18
-2.77371e-18
-2.7682e-18
-2.78103e-18
-2.78012e-18
-2.78167e-18
-2.77951e-18
-2.77564e-18
-2.78688e-18
-2.78904e-18
-2.7829e-18
-2.76168e-18
-2.76378e-18
-2.77946e-18
-2.76626e-18
-2.77224e-18
-2.78405e-18
-2.75265e-18
-2.76198e-18
-2.76869e-18
-2.76926e-18
-2.75094e-18
-2.76814e-18
-2.79264e-18
-2.77635e-18
-2.76534e-18
-2.75341e-18
-2.76863e-18
-2.77467e-18
-2.77672e-18
-2.78218e-18
-2.76031e-18
-2.76532e-18
-2.75887e-18
-2.76925e-18
-2.7728e-18
-2.772e-18
-2.77229e-18
-2.77417e-18
-2.77292e-18
-2.77202e-18
-2.76933e-18
-2.77543e-18
-2.77887e-18
-2.78624e-18
-2.7828e-18
-2.78256e-18
-2.792e-18
-2.77773e-18
-2.77647e-18
-2.77816e-18
-2.77801e-18
-2.80049e-18
-2.81135e-18
-2.80337e-18
-2.80375e-18
-2.79755e-18
-2.76988e-18
-2.76459e-18
-2.75088e-18
-2.76007e-18
-2.77355e-18
-2.78225e-18
-2.79846e-18
-2.78624e-18
-2.75426e-18
-2.76827e-18
-2.77049e-18
-2.75111e-18
-2.74568e-18
-2.7559e-18
-2.79353e-18
-2.80891e-18
-2.79769e-18
-2.79312e-18
-2.79027e-18
-2.77261e-18
-2.77595e-18
-2.78375e-18
-2.77598e-18
-2.77306e-18
-2.77117e-18
-2.76294e-18
-2.77375e-18
-2.78444e-18
-2.77715e-18
-2.76606e-18
-2.77221e-18
-2.76985e-18
-2.77718e-18
-2.78031e-18
-2.78007e-18
-2.77634e-18
-2.78187e-18
-2.78454e-18
-2.78764e-18
-2.79664e-18
-2.79994e-18
-2.78971e-18
-2.77924e-18
-2.78197e-18
-2.77806e-18
-2.77068e-18
-2.76365e-18
-2.74732e-18
-2.79721e-18
-2.81933e-18
-2.81817e-18
-2.77769e-18
-2.7748e-18
-2.77205e-18
-2.77156e-18
-2.75663e-18
-2.76943e-18
-2.77971e-18
-2.79448e-18
-2.79573e-18
-2.78242e-18
-2.78642e-18
-2.77227e-18
-2.74655e-18
-2.76151e-18
-2.75569e-18
-2.77348e-18
-2.78248e-18
-2.76869e-18
-2.76804e-18
-2.76099e-18
-2.78215e-18
-2.77187e-18
-2.7708e-18
-2.78216e-18
-2.79274e-18
-2.7948e-18
-2.78736e-18
-2.78552e-18
-2.78442e-18
-2.78623e-18
-2.78986e-18
-2.78901e-18
-2.7873e-18
-2.78798e-18
-2.7962e-18
-2.80534e-18
-2.81267e-18
-2.8026e-18
-2.77765e-18
-2.77429e-18
-2.76633e-18
-2.77718e-18
-2.77869e-18
-2.77333e-18
-2.75331e-18
-2.78994e-18
-2.78091e-18
-2.79599e-18
-2.78389e-18
-2.78156e-18
-2.79374e-18
-2.7803e-18
-2.77248e-18
-2.75785e-18
-2.75653e-18
-2.76014e-18
-2.76929e-18
-2.77238e-18
-2.77306e-18
-2.77457e-18
-2.76586e-18
-2.76646e-18
-2.77189e-18
-2.77663e-18
-2.77873e-18
-2.7799e-18
-2.76095e-18
-2.76802e-18
-2.75919e-18
-2.75894e-18
-2.77733e-18
-2.78531e-18
-2.79021e-18
-2.79434e-18
-2.80781e-18
-2.79853e-18
-2.79665e-18
-2.80868e-18
-2.81182e-18
-2.80614e-18
-2.80699e-18
-2.79679e-18
-2.79383e-18
-2.77494e-18
-2.7946e-18
-2.77616e-18
-2.78729e-18
-2.77516e-18
-2.76385e-18
-2.74033e-18
-2.77261e-18
-2.77421e-18
-2.76034e-18
-2.78839e-18
-2.78223e-18
-2.77804e-18
-2.7756e-18
-2.76155e-18
-2.7718e-18
-2.77563e-18
-2.7761e-18
-2.77687e-18
-2.77955e-18
-2.78839e-18
-2.78875e-18
-2.77606e-18
-2.76903e-18
-2.77621e-18
-2.77901e-18
-2.77974e-18
-2.7813e-18
-2.78356e-18
-2.78701e-18
-2.79902e-18
-2.77325e-18
-2.77668e-18
-2.77033e-18
-2.78254e-18
-2.79169e-18
-2.79002e-18
-2.79176e-18
-2.79409e-18
-2.7856e-18
-2.80396e-18
-2.79366e-18
-2.79675e-18
-2.80258e-18
-2.73941e-18
-2.74793e-18
-2.77318e-18
-2.7668e-18
-2.7561e-18
-2.77387e-18
-2.77848e-18
-2.79237e-18
-2.78118e-18
-2.77167e-18
-2.73834e-18
-2.74706e-18
-2.77231e-18
-2.76553e-18
-2.78913e-18
-2.76872e-18
-2.77787e-18
-2.7928e-18
-2.78372e-18
-2.79039e-18
-2.7816e-18
-2.7778e-18
-2.76879e-18
-2.76771e-18
-2.78059e-18
-2.77361e-18
-2.77747e-18
-2.77783e-18
-2.77869e-18
-2.77453e-18
-2.765e-18
-2.78207e-18
-2.78508e-18
-2.78592e-18
-2.78894e-18
-2.79237e-18
-2.79197e-18
-2.79909e-18
-2.81445e-18
-2.80094e-18
-2.79837e-18
-2.79753e-18
-2.78648e-18
-2.79941e-18
-2.81474e-18
-2.81217e-18
-2.7399e-18
-2.79277e-18
-2.7828e-18
-2.77559e-18
-2.76762e-18
-2.76993e-18
-2.77986e-18
-2.78465e-18
-2.77964e-18
-2.7784e-18
-2.7797e-18
-2.79863e-18
-2.79619e-18
-2.78422e-18
-2.79959e-18
-2.79436e-18
-2.78279e-18
-2.77606e-18
-2.76481e-18
-2.77521e-18
-2.78059e-18
-2.79143e-18
-2.79718e-18
-2.80075e-18
-2.79035e-18
-2.8025e-18
-2.80194e-18
-2.78781e-18
-2.78441e-18
-2.78922e-18
-2.79708e-18
-2.80366e-18
-2.79305e-18
-2.78411e-18
-2.77396e-18
-2.79231e-18
-2.81e-18
-2.80301e-18
-2.81149e-18
-2.80154e-18
-2.79926e-18
-2.79876e-18
-2.79292e-18
-2.79884e-18
-2.80423e-18
-2.80163e-18
-2.80174e-18
-2.75721e-18
-2.80881e-18
-2.80636e-18
-2.80011e-18
-2.77489e-18
-2.75564e-18
-2.77865e-18
-2.79839e-18
-2.78026e-18
-2.7725e-18
-2.78151e-18
-2.79487e-18
-2.76663e-18
-2.77392e-18
-2.77692e-18
-2.76767e-18
-2.77234e-18
-2.76203e-18
-2.75945e-18
-2.76198e-18
-2.76387e-18
-2.76669e-18
-2.77823e-18
-2.78131e-18
-2.78214e-18
-2.78305e-18
-2.78224e-18
-2.78143e-18
-2.78112e-18
-2.78771e-18
-2.8063e-18
-2.81197e-18
-2.8093e-18
-2.79175e-18
-2.78116e-18
-2.80799e-18
-2.81894e-18
-2.80773e-18
-2.815e-18
-2.80147e-18
-2.78658e-18
-2.80288e-18
-2.81807e-18
-2.80443e-18
-2.80557e-18
-2.80641e-18
-2.80794e-18
-2.73897e-18
-2.80103e-18
-2.78391e-18
-2.77758e-18
-2.7681e-18
-2.77255e-18
-2.7789e-18
-2.80384e-18
-2.79586e-18
-2.76016e-18
-2.77729e-18
-2.78254e-18
-2.77563e-18
-2.77747e-18
-2.78291e-18
-2.79402e-18
-2.78296e-18
-2.78182e-18
-2.79575e-18
-2.78838e-18
-2.79427e-18
-2.77919e-18
-2.78347e-18
-2.789e-18
-2.79688e-18
-2.77095e-18
-2.78403e-18
-2.79714e-18
-2.77523e-18
-2.78516e-18
-2.79367e-18
-2.77697e-18
-2.7853e-18
-2.79197e-18
-2.79134e-18
-2.79163e-18
-2.78847e-18
-2.7758e-18
-2.78822e-18
-2.79443e-18
-2.79398e-18
-2.79452e-18
-2.79267e-18
-2.78326e-18
-2.78937e-18
-2.78327e-18
-2.79463e-18
-2.74295e-18
-2.777e-18
-2.77689e-18
-2.76733e-18
-2.73342e-18
-2.76595e-18
-2.75675e-18
-2.80047e-18
-2.80063e-18
-2.77864e-18
-2.79446e-18
-2.80012e-18
-2.78579e-18
-2.77609e-18
-2.77818e-18
-2.78166e-18
-2.77461e-18
-2.76795e-18
-2.78996e-18
-2.78348e-18
-2.78308e-18
-2.7797e-18
-2.78506e-18
-2.78992e-18
-2.76935e-18
-2.76101e-18
-2.78281e-18
-2.80182e-18
-2.79192e-18
-2.78922e-18
-2.78998e-18
-2.78853e-18
-2.79596e-18
-2.79976e-18
-2.79724e-18
-2.79738e-18
-2.80114e-18
-2.81368e-18
-2.80319e-18
-2.79869e-18
-2.79462e-18
-2.78726e-18
-2.81071e-18
-2.80672e-18
-2.80252e-18
-2.80411e-18
-2.81238e-18
-2.79525e-18
-2.77561e-18
-2.77069e-18
-2.77017e-18
-2.74931e-18
-2.77393e-18
-2.76112e-18
-2.79485e-18
-2.78724e-18
-2.77733e-18
-2.76067e-18
-2.77677e-18
-2.78976e-18
-2.76412e-18
-2.77829e-18
-2.78935e-18
-2.76596e-18
-2.77083e-18
-2.76771e-18
-2.78135e-18
-2.79941e-18
-2.75713e-18
-2.7658e-18
-2.80443e-18
-2.81254e-18
-2.8065e-18
-2.79182e-18
-2.79513e-18
-2.80505e-18
-2.77954e-18
-2.79493e-18
-2.81221e-18
-2.79741e-18
-2.78267e-18
-2.78835e-18
-2.78151e-18
-2.78962e-18
-2.80063e-18
-2.81319e-18
-2.80109e-18
-2.8021e-18
-2.81656e-18
-2.82253e-18
-2.814e-18
-2.78512e-18
-2.78196e-18
-2.79832e-18
-2.80567e-18
-2.77915e-18
-2.76404e-18
-2.75253e-18
-2.7667e-18
-2.7724e-18
-2.80328e-18
-2.79929e-18
-2.78133e-18
-2.79889e-18
-2.79746e-18
-2.77084e-18
-2.75728e-18
-2.75899e-18
-2.76835e-18
-2.77561e-18
-2.77419e-18
-2.751e-18
-2.77307e-18
-2.77863e-18
-2.78593e-18
-2.77958e-18
-2.7756e-18
-2.78126e-18
-2.80381e-18
-2.79087e-18
-2.79199e-18
-2.78429e-18
-2.78701e-18
-2.7872e-18
-2.77591e-18
-2.78913e-18
-2.79563e-18
-2.80019e-18
-2.80529e-18
-2.78876e-18
-2.80289e-18
-2.79174e-18
-2.80924e-18
-2.80284e-18
-2.79846e-18
-2.79835e-18
-2.79962e-18
-2.80076e-18
-2.80154e-18
-2.80256e-18
-2.80489e-18
-2.80728e-18
-2.80876e-18
-2.77526e-18
-2.74978e-18
-2.78739e-18
-2.75075e-18
-2.75514e-18
-2.80502e-18
-2.79864e-18
-2.75574e-18
-2.77698e-18
-2.77976e-18
-2.7587e-18
-2.77116e-18
-2.77268e-18
-2.76055e-18
-2.78012e-18
-2.79153e-18
-2.77829e-18
-2.78402e-18
-2.76809e-18
-2.76897e-18
-2.75342e-18
-2.76662e-18
-2.76788e-18
-2.80605e-18
-2.79044e-18
-2.78495e-18
-2.78569e-18
-2.78876e-18
-2.7909e-18
-2.79596e-18
-2.81333e-18
-2.81582e-18
-2.79956e-18
-2.796e-18
-2.79979e-18
-2.81603e-18
-2.81096e-18
-2.79032e-18
-2.79632e-18
-2.80068e-18
-2.80268e-18
-2.80286e-18
-2.80105e-18
-2.80597e-18
-2.8074e-18
-2.80652e-18
-2.80403e-18
-2.80744e-18
-2.80901e-18
-2.80536e-18
-2.77295e-18
-2.77829e-18
-2.7755e-18
-2.77516e-18
-2.79817e-18
-2.77889e-18
-2.75586e-18
-2.77472e-18
-2.7902e-18
-2.76122e-18
-2.77915e-18
-2.79301e-18
-2.78242e-18
-2.80552e-18
-2.79883e-18
-2.777e-18
-2.76441e-18
-2.77356e-18
-2.77354e-18
-2.7686e-18
-2.75008e-18
-2.76985e-18
-2.78118e-18
-2.7797e-18
-2.7793e-18
-2.77836e-18
-2.76948e-18
-2.78196e-18
-2.7879e-18
-2.79707e-18
-2.81605e-18
-2.79316e-18
-2.80632e-18
-2.80097e-18
-2.79751e-18
-2.79892e-18
-2.79899e-18
-2.80019e-18
-2.80176e-18
-2.80256e-18
-2.80328e-18
-2.80361e-18
-2.80086e-18
-2.79249e-18
-2.80295e-18
-2.80707e-18
-2.80305e-18
-2.79133e-18
-2.80815e-18
-2.78723e-18
-2.77431e-18
-2.80285e-18
-2.7822e-18
-2.78149e-18
-2.77876e-18
-2.79232e-18
-2.77587e-18
-2.76099e-18
-2.77455e-18
-2.7923e-18
-2.77955e-18
-2.7721e-18
-2.76783e-18
-2.78713e-18
-2.77473e-18
-2.77599e-18
-2.78162e-18
-2.75313e-18
-2.76183e-18
-2.74833e-18
-2.7749e-18
-2.79533e-18
-2.78735e-18
-2.79819e-18
-2.80041e-18
-2.78926e-18
-2.79895e-18
-2.79138e-18
-2.78872e-18
-2.79552e-18
-2.80504e-18
-2.79686e-18
-2.79217e-18
-2.78196e-18
-2.79487e-18
-2.80017e-18
-2.80154e-18
-2.80823e-18
-2.82113e-18
-2.8069e-18
-2.79343e-18
-2.80558e-18
-2.81108e-18
-2.81647e-18
-2.8261e-18
-2.8132e-18
-2.81268e-18
-2.81795e-18
-2.78339e-18
-2.80942e-18
-2.75237e-18
-2.80074e-18
-2.7885e-18
-2.79697e-18
-2.77947e-18
-2.78034e-18
-2.7756e-18
-2.77203e-18
-2.77559e-18
-2.77336e-18
-2.75846e-18
-2.75698e-18
-2.76537e-18
-2.75442e-18
-2.74602e-18
-2.76989e-18
-2.77822e-18
-2.77303e-18
-2.77373e-18
-2.77612e-18
-2.79622e-18
-2.78971e-18
-2.77763e-18
-2.77804e-18
-2.77739e-18
-2.77746e-18
-2.78579e-18
-2.8001e-18
-2.79064e-18
-2.78893e-18
-2.79206e-18
-2.79908e-18
-2.81513e-18
-2.81805e-18
-2.80447e-18
-2.79331e-18
-2.80047e-18
-2.80449e-18
-2.80733e-18
-2.80649e-18
-2.80327e-18
-2.80731e-18
-2.80973e-18
-2.80995e-18
-2.80998e-18
-2.80753e-18
-2.79398e-18
-2.79601e-18
-2.76988e-18
-2.75224e-18
-2.74182e-18
-2.78203e-18
-2.79841e-18
-2.77815e-18
-2.77936e-18
-2.77967e-18
-2.7803e-18
-2.77448e-18
-2.77051e-18
-2.75864e-18
-2.76698e-18
-2.75516e-18
-2.75825e-18
-2.77325e-18
-2.78523e-18
-2.77827e-18
-2.76961e-18
-2.76062e-18
-2.76208e-18
-2.75534e-18
-2.79119e-18
-2.78008e-18
-2.77139e-18
-2.76146e-18
-2.7757e-18
-2.78251e-18
-2.79788e-18
-2.80736e-18
-2.8116e-18
-2.81422e-18
-2.81604e-18
-2.81078e-18
-2.78905e-18
-2.79537e-18
-2.8004e-18
-2.8008e-18
-2.8031e-18
-2.8088e-18
-2.82096e-18
-2.80643e-18
-2.7919e-18
-2.80287e-18
-2.80791e-18
-2.80512e-18
-2.7972e-18
-2.80762e-18
-2.81309e-18
-2.8136e-18
-2.77642e-18
-2.76547e-18
-2.76021e-18
-2.77459e-18
-2.77808e-18
-2.75724e-18
-2.79187e-18
-2.78432e-18
-2.79202e-18
-2.7739e-18
-2.75636e-18
-2.77062e-18
-2.77055e-18
-2.7591e-18
-2.784e-18
-2.7731e-18
-2.76268e-18
-2.78114e-18
-2.75272e-18
-2.76034e-18
-2.75328e-18
-2.79695e-18
-2.79676e-18
-2.76342e-18
-2.77035e-18
-2.77545e-18
-2.77682e-18
-2.77797e-18
-2.78238e-18
-2.78464e-18
-2.78629e-18
-2.78793e-18
-2.79013e-18
-2.79322e-18
-2.78854e-18
-2.77996e-18
-2.79303e-18
-2.79615e-18
-2.79905e-18
-2.80106e-18
-2.79867e-18
-2.78995e-18
-2.80202e-18
-2.80909e-18
-2.81598e-18
-2.82879e-18
-2.81822e-18
-2.81361e-18
-2.81775e-18
-2.82523e-18
-2.79642e-18
-2.77471e-18
-2.74714e-18
-2.76467e-18
-2.77709e-18
-2.77166e-18
-2.77854e-18
-2.77272e-18
-2.75535e-18
-2.76753e-18
-2.76085e-18
-2.78937e-18
-2.77608e-18
-2.75533e-18
-2.75636e-18
-2.76353e-18
-2.74934e-18
-2.78157e-18
-2.77058e-18
-2.75851e-18
-2.76759e-18
-2.77737e-18
-2.77507e-18
-2.77364e-18
-2.77559e-18
-2.77923e-18
-2.7783e-18
-2.78504e-18
-2.8001e-18
-2.78958e-18
-2.7875e-18
-2.78643e-18
-2.78815e-18
-2.78816e-18
-2.78069e-18
-2.79427e-18
-2.81437e-18
-2.80918e-18
-2.81775e-18
-2.80646e-18
-2.80674e-18
-2.81585e-18
-2.79403e-18
-2.79562e-18
-2.78992e-18
-2.80181e-18
-2.80317e-18
-2.79575e-18
-2.80881e-18
-2.81685e-18
-2.75174e-18
-2.76411e-18
-2.76147e-18
-2.75429e-18
-2.79668e-18
-2.77917e-18
-2.77511e-18
-2.76579e-18
-2.74035e-18
-2.77398e-18
-2.77188e-18
-2.77838e-18
-2.79365e-18
-2.77411e-18
-2.77107e-18
-2.77906e-18
-2.78392e-18
-2.77832e-18
-2.77409e-18
-2.76995e-18
-2.75894e-18
-2.76959e-18
-2.77307e-18
-2.77451e-18
-2.77475e-18
-2.77561e-18
-2.77537e-18
-2.78413e-18
-2.79588e-18
-2.78416e-18
-2.78474e-18
-2.79945e-18
-2.79443e-18
-2.79437e-18
-2.80735e-18
-2.79921e-18
-2.79697e-18
-2.79906e-18
-2.80062e-18
-2.80057e-18
-2.80294e-18
-2.8055e-18
-2.80566e-18
-2.80573e-18
-2.80773e-18
-2.81085e-18
-2.81135e-18
-2.80924e-18
-2.80685e-18
-2.81359e-18
-2.76579e-18
-2.74798e-18
-2.76744e-18
-2.7692e-18
-2.79904e-18
-2.77885e-18
-2.76982e-18
-2.75442e-18
-2.77534e-18
-2.78928e-18
-2.74295e-18
-2.75736e-18
-2.80281e-18
-2.78094e-18
-2.77402e-18
-2.7839e-18
-2.76323e-18
-2.77222e-18
-2.77963e-18
-2.78976e-18
-2.78938e-18
-2.78e-18
-2.777e-18
-2.77995e-18
-2.79462e-18
-2.79809e-18
-2.78602e-18
-2.79423e-18
-2.78575e-18
-2.77813e-18
-2.77178e-18
-2.79718e-18
-2.80402e-18
-2.78815e-18
-2.76819e-18
-2.76938e-18
-2.78548e-18
-2.79258e-18
-2.79462e-18
-2.79542e-18
-2.79721e-18
-2.79501e-18
-2.77972e-18
-2.78008e-18
-2.79547e-18
-2.80232e-18
-2.80299e-18
-2.80353e-18
-2.79576e-18
-2.79093e-18
-2.78884e-18
-2.77564e-18
-2.76997e-18
-2.74812e-18
-2.7779e-18
-2.7964e-18
-2.77533e-18
-2.77203e-18
-2.79365e-18
-2.77887e-18
-2.75226e-18
-2.76715e-18
-2.7794e-18
-2.78662e-18
-2.76205e-18
-2.77384e-18
-2.77564e-18
-2.77954e-18
-2.79685e-18
-2.77853e-18
-2.77546e-18
-2.77189e-18
-2.76327e-18
-2.77006e-18
-2.76265e-18
-2.78342e-18
-2.77001e-18
-2.7961e-18
-2.79635e-18
-2.76662e-18
-2.77426e-18
-2.77172e-18
-2.78772e-18
-2.80522e-18
-2.79341e-18
-2.79285e-18
-2.79668e-18
-2.8026e-18
-2.814e-18
-2.79914e-18
-2.78475e-18
-2.79599e-18
-2.79952e-18
-2.80192e-18
-2.79692e-18
-2.78886e-18
-2.79639e-18
-2.79623e-18
-2.79933e-18
-2.79216e-18
-2.72838e-18
-2.79862e-18
-2.77436e-18
-2.76337e-18
-2.77679e-18
-2.79791e-18
-2.77548e-18
-2.77523e-18
-2.77745e-18
-2.77132e-18
-2.75506e-18
-2.75659e-18
-2.76976e-18
-2.77229e-18
-2.77325e-18
-2.79204e-18
-2.79139e-18
-2.77163e-18
-2.75839e-18
-2.76012e-18
-2.78429e-18
-2.77836e-18
-2.77821e-18
-2.79166e-18
-2.76864e-18
-2.77337e-18
-2.77501e-18
-2.77497e-18
-2.7803e-18
-2.77725e-18
-2.769e-18
-2.7952e-18
-2.79091e-18
-2.78793e-18
-2.78768e-18
-2.78943e-18
-2.79315e-18
-2.79171e-18
-2.78889e-18
-2.78402e-18
-2.79929e-18
-2.80214e-18
-2.80888e-18
-2.78685e-18
-2.78582e-18
-2.79629e-18
-2.80116e-18
-2.79987e-18
-2.80137e-18
-2.80153e-18
-2.75507e-18
-2.80282e-18
-2.77438e-18
-2.7697e-18
-2.77055e-18
-2.77411e-18
-2.76922e-18
-2.7863e-18
-2.77468e-18
-2.77278e-18
-2.76832e-18
-2.76758e-18
-2.76014e-18
-2.76937e-18
-2.7621e-18
-2.77326e-18
-2.76888e-18
-2.75769e-18
-2.76844e-18
-2.77265e-18
-2.77462e-18
-2.77989e-18
-2.77264e-18
-2.76431e-18
-2.76189e-18
-2.77522e-18
-2.78549e-18
-2.77826e-18
-2.76225e-18
-2.77448e-18
-2.78115e-18
-2.78271e-18
-2.78582e-18
-2.78571e-18
-2.78712e-18
-2.78978e-18
-2.78845e-18
-2.78831e-18
-2.77856e-18
-2.7862e-18
-2.79866e-18
-2.81408e-18
-2.80459e-18
-2.78972e-18
-2.79361e-18
-2.79329e-18
-2.80183e-18
-2.79628e-18
-2.79517e-18
-2.7976e-18
-2.75028e-18
-2.77518e-18
-2.76646e-18
-2.76782e-18
-2.77379e-18
-2.76734e-18
-2.76533e-18
-2.75758e-18
-2.76915e-18
-2.77208e-18
-2.75819e-18
-2.76915e-18
-2.78904e-18
-2.77783e-18
-2.78757e-18
-2.7872e-18
-2.76066e-18
-2.77156e-18
-2.78553e-18
-2.77768e-18
-2.77292e-18
-2.76593e-18
-2.77027e-18
-2.77376e-18
-2.77145e-18
-2.77524e-18
-2.77698e-18
-2.77972e-18
-2.78187e-18
-2.79645e-18
-2.78738e-18
-2.79081e-18
-2.81327e-18
-2.80521e-18
-2.80956e-18
-2.79633e-18
-2.7917e-18
-2.78307e-18
-2.80677e-18
-2.80542e-18
-2.80853e-18
-2.79496e-18
-2.78925e-18
-2.79188e-18
-2.79745e-18
-2.788e-18
-2.79081e-18
-2.79206e-18
-2.79655e-18
-2.80221e-18
-2.78535e-18
-2.77268e-18
-2.77412e-18
-2.77465e-18
-2.79402e-18
-2.75176e-18
-2.74677e-18
-2.78101e-18
-2.77562e-18
-2.79324e-18
-2.78344e-18
-2.74269e-18
-2.76499e-18
-2.74935e-18
-2.73853e-18
-2.76488e-18
-2.774e-18
-2.78735e-18
-2.77812e-18
-2.78497e-18
-2.78482e-18
-2.76909e-18
-2.76123e-18
-2.77072e-18
-2.77083e-18
-2.76923e-18
-2.77799e-18
-2.78656e-18
-2.78938e-18
-2.8008e-18
-2.78879e-18
-2.78791e-18
-2.77707e-18
-2.77287e-18
-2.77871e-18
-2.78506e-18
-2.78811e-18
-2.7835e-18
-2.78185e-18
-2.79181e-18
-2.79658e-18
-2.78886e-18
-2.78433e-18
-2.78937e-18
-2.79484e-18
-2.79228e-18
-2.79529e-18
-2.79951e-18
-2.80654e-18
-2.79296e-18
-2.74451e-18
-2.76607e-18
-2.79233e-18
-2.80137e-18
-2.79787e-18
-2.76251e-18
-2.74086e-18
-2.7546e-18
-2.76957e-18
-2.77842e-18
-2.76734e-18
-2.74804e-18
-2.76148e-18
-2.74991e-18
-2.7504e-18
-2.77307e-18
-2.78881e-18
-2.77652e-18
-2.76917e-18
-2.77279e-18
-2.76932e-18
-2.76218e-18
-2.77506e-18
-2.77495e-18
-2.77684e-18
-2.78428e-18
-2.77795e-18
-2.7774e-18
-2.77324e-18
-2.79044e-18
-2.79438e-18
-2.7895e-18
-2.79384e-18
-2.7913e-18
-2.79179e-18
-2.79553e-18
-2.80127e-18
-2.79665e-18
-2.79584e-18
-2.79656e-18
-2.78917e-18
-2.79879e-18
-2.79768e-18
-2.80242e-18
-2.80433e-18
-2.80757e-18
-2.80734e-18
-2.79658e-18
-2.78761e-18
-2.78858e-18
-2.75578e-18
-2.7638e-18
-2.7694e-18
-2.79633e-18
-2.77536e-18
-2.76712e-18
-2.76772e-18
-2.78794e-18
-2.77402e-18
-2.78373e-18
-2.7506e-18
-2.74682e-18
-2.77125e-18
-2.78721e-18
-2.77421e-18
-2.77494e-18
-2.79104e-18
-2.78665e-18
-2.76175e-18
-2.77882e-18
-2.77605e-18
-2.78543e-18