/*--------------------------------*- C++ -*----------------------------------*\
  =========                 |
  \\      /  F ield         | OpenFOAM: The Open Source CFD Toolbox
   \\    /   O peration     | Website:  https://openfoam.org
    \\  /    A nd           | Version:  7
     \\/     M anipulation  |
\*---------------------------------------------------------------------------*/
FoamFile
{
    version     2.0;
    format      ascii;
    class       volScalarField;
    location    "56000";
    object      nu;
}
// * * * * * * * * * * * * * * * * * * * * * * * * * * * * * * * * * * * * * //

dimensions      [0 2 -1 0 0 0 0];

internalField   nonuniform List<scalar> 
1748
(
2.31205e-05
2.44514e-05
2.52285e-05
2.61846e-05
2.7285e-05
2.84803e-05
2.97403e-05
3.10365e-05
3.23358e-05
3.3598e-05
3.4775e-05
3.58126e-05
3.66549e-05
3.72505e-05
3.75592e-05
3.75592e-05
3.72505e-05
3.66549e-05
3.58126e-05
1.89757e-05
2.09979e-05
2.17391e-05
2.25825e-05
2.35257e-05
2.45399e-05
2.55962e-05
2.66661e-05
2.77193e-05
2.87227e-05
2.96402e-05
3.04346e-05
3.10694e-05
3.15127e-05
3.17407e-05
3.17407e-05
3.15127e-05
3.10694e-05
3.04346e-05
1.72821e-05
1.9149e-05
1.98685e-05
2.05896e-05
2.13449e-05
2.21357e-05
2.29492e-05
2.37663e-05
2.45645e-05
2.5319e-05
2.60035e-05
2.65918e-05
2.70589e-05
2.73835e-05
2.755e-05
2.755e-05
2.73835e-05
2.70589e-05
2.65918e-05
1.60858e-05
1.76037e-05
1.82641e-05
1.89072e-05
1.95499e-05
2.01992e-05
2.08518e-05
2.14971e-05
2.21204e-05
2.27041e-05
2.32297e-05
2.36782e-05
2.40325e-05
2.42777e-05
2.44031e-05
2.44031e-05
2.42777e-05
2.40325e-05
2.36782e-05
1.51062e-05
1.63383e-05
1.69113e-05
1.74756e-05
1.80319e-05
1.85819e-05
1.91237e-05
1.9651e-05
2.01539e-05
2.06203e-05
2.10368e-05
2.13901e-05
2.16676e-05
2.1859e-05
2.19567e-05
2.19567e-05
2.1859e-05
2.16676e-05
2.13901e-05
1.42688e-05
1.52843e-05
1.57761e-05
1.62653e-05
1.67472e-05
1.72195e-05
1.76789e-05
1.81206e-05
1.85372e-05
1.89201e-05
1.92595e-05
1.95456e-05
1.97693e-05
1.99231e-05
2.00014e-05
2.00014e-05
1.99231e-05
1.97693e-05
1.95456e-05
1.35378e-05
1.43875e-05
1.48123e-05
1.52365e-05
1.56549e-05
1.60634e-05
1.64581e-05
1.68344e-05
1.71864e-05
1.75075e-05
1.77903e-05
1.80274e-05
1.82121e-05
1.83387e-05
1.8403e-05
1.8403e-05
1.83387e-05
1.82121e-05
1.80274e-05
1.2891e-05
1.36116e-05
1.39822e-05
1.43524e-05
1.47175e-05
1.50732e-05
1.54156e-05
1.57402e-05
1.60422e-05
1.6316e-05
1.65558e-05
1.67561e-05
1.69115e-05
1.70178e-05
1.70717e-05
1.70717e-05
1.70178e-05
1.69115e-05
1.67561e-05
1.23128e-05
1.29309e-05
1.32575e-05
1.35833e-05
1.39042e-05
1.42163e-05
1.45159e-05
1.47989e-05
1.50609e-05
1.52975e-05
1.55039e-05
1.56756e-05
1.58085e-05
1.58992e-05
1.59451e-05
1.59451e-05
1.58992e-05
1.58085e-05
1.56756e-05
1.17916e-05
1.23273e-05
1.26178e-05
1.29068e-05
1.31911e-05
1.34671e-05
1.37313e-05
1.39802e-05
1.42099e-05
1.44166e-05
1.45963e-05
1.47455e-05
1.48606e-05
1.4939e-05
1.49787e-05
1.49787e-05
1.4939e-05
1.48606e-05
1.47455e-05
1.13187e-05
1.17871e-05
1.20474e-05
1.2306e-05
1.25597e-05
1.28055e-05
1.30404e-05
1.3261e-05
1.34642e-05
1.36465e-05
1.38047e-05
1.39355e-05
1.40364e-05
1.4105e-05
1.41397e-05
1.41397e-05
1.4105e-05
1.40364e-05
1.39355e-05
1.08868e-05
1.12997e-05
1.15348e-05
1.17677e-05
1.19957e-05
1.22162e-05
1.24265e-05
1.26236e-05
1.28047e-05
1.29668e-05
1.31072e-05
1.32231e-05
1.33123e-05
1.33729e-05
1.34035e-05
1.34035e-05
1.33729e-05
1.33123e-05
1.32231e-05
1.04904e-05
1.0857e-05
1.10706e-05
1.12817e-05
1.1488e-05
1.16871e-05
1.18766e-05
1.20539e-05
1.22165e-05
1.23618e-05
1.24873e-05
1.25908e-05
1.26704e-05
1.27243e-05
1.27516e-05
1.27516e-05
1.27243e-05
1.26704e-05
1.25908e-05
1.01247e-05
1.04523e-05
1.06475e-05
1.084e-05
1.10278e-05
1.12086e-05
1.13805e-05
1.15409e-05
1.16878e-05
1.18189e-05
1.19319e-05
1.20251e-05
1.20965e-05
1.2145e-05
1.21694e-05
1.21694e-05
1.2145e-05
1.20965e-05
1.20251e-05
9.78588e-06
1.00804e-05
1.02597e-05
1.04362e-05
1.06079e-05
1.07732e-05
1.09298e-05
1.10759e-05
1.12094e-05
1.13284e-05
1.14308e-05
1.15151e-05
2.31205e-05
2.44514e-05
2.52285e-05
2.61846e-05
2.7285e-05
2.84803e-05
2.97403e-05
3.10365e-05
3.23358e-05
3.3598e-05
3.4775e-05
3.58126e-05
3.6655e-05
3.72505e-05
3.75592e-05
3.75592e-05
3.72505e-05
3.66549e-05
3.58126e-05
3.4775e-05
3.3598e-05
3.23358e-05
3.10365e-05
2.97403e-05
2.84803e-05
2.7285e-05
2.61846e-05
2.52285e-05
2.44514e-05
2.31205e-05
1.89757e-05
2.09979e-05
2.17391e-05
2.25825e-05
2.35257e-05
2.45399e-05
2.55962e-05
2.66661e-05
2.77193e-05
2.87227e-05
2.96402e-05
3.04346e-05
3.10694e-05
3.15127e-05
3.17407e-05
3.17407e-05
3.15127e-05
3.10694e-05
3.04346e-05
2.96402e-05
2.87227e-05
2.77193e-05
2.66661e-05
2.55962e-05
2.45399e-05
2.35257e-05
2.25825e-05
2.17391e-05
2.09979e-05
1.89757e-05
1.72821e-05
1.9149e-05
1.98685e-05
2.05896e-05
2.13449e-05
2.21357e-05
2.29492e-05
2.37663e-05
2.45645e-05
2.53189e-05
2.60035e-05
2.65918e-05
2.70589e-05
2.73835e-05
2.755e-05
2.755e-05
2.73835e-05
2.70589e-05
2.65918e-05
2.60035e-05
2.53189e-05
2.45645e-05
2.37663e-05
2.29492e-05
2.21357e-05
2.13449e-05
2.05896e-05
1.98685e-05
1.9149e-05
1.72821e-05
1.60858e-05
1.76037e-05
1.82641e-05
1.89072e-05
1.95499e-05
2.01992e-05
2.08518e-05
2.14971e-05
2.21204e-05
2.27041e-05
2.32296e-05
2.36782e-05
2.40325e-05
2.42777e-05
2.44031e-05
2.44031e-05
2.42777e-05
2.40325e-05
2.36782e-05
2.32296e-05
2.27041e-05
2.21204e-05
2.14971e-05
2.08518e-05
2.01992e-05
1.95499e-05
1.89072e-05
1.82641e-05
1.76037e-05
1.60858e-05
1.51062e-05
1.63383e-05
1.69113e-05
1.74756e-05
1.80319e-05
1.85819e-05
1.91237e-05
1.9651e-05
2.01539e-05
2.06203e-05
2.10368e-05
2.13901e-05
2.16676e-05
2.1859e-05
2.19567e-05
2.19567e-05
2.1859e-05
2.16676e-05
2.13901e-05
2.10368e-05
2.06203e-05
2.01539e-05
1.9651e-05
1.91237e-05
1.85819e-05
1.80319e-05
1.74756e-05
1.69113e-05
1.63383e-05
1.51062e-05
1.42688e-05
1.52842e-05
1.57761e-05
1.62653e-05
1.67472e-05
1.72195e-05
1.76789e-05
1.81206e-05
1.85372e-05
1.89201e-05
1.92595e-05
1.95456e-05
1.97693e-05
1.99231e-05
2.00014e-05
2.00014e-05
1.99231e-05
1.97693e-05
1.95456e-05
1.92595e-05
1.89201e-05
1.85372e-05
1.81206e-05
1.76789e-05
1.72195e-05
1.67472e-05
1.62653e-05
1.57761e-05
1.52843e-05
1.42688e-05
1.35378e-05
1.43875e-05
1.48123e-05
1.52365e-05
1.56549e-05
1.60634e-05
1.64581e-05
1.68344e-05
1.71864e-05
1.75075e-05
1.77903e-05
1.80274e-05
1.82121e-05
1.83387e-05
1.8403e-05
1.8403e-05
1.83387e-05
1.82121e-05
1.80274e-05
1.77903e-05
1.75075e-05
1.71864e-05
1.68344e-05
1.64581e-05
1.60634e-05
1.56549e-05
1.52365e-05
1.48123e-05
1.43875e-05
1.35378e-05
1.2891e-05
1.36115e-05
1.39822e-05
1.43524e-05
1.47174e-05
1.50732e-05
1.54156e-05
1.57402e-05
1.60422e-05
1.6316e-05
1.65558e-05
1.67561e-05
1.69115e-05
1.70178e-05
1.70717e-05
1.70717e-05
1.70178e-05
1.69115e-05
1.67561e-05
1.65558e-05
1.6316e-05
1.60422e-05
1.57402e-05
1.54156e-05
1.50732e-05
1.47175e-05
1.43524e-05
1.39822e-05
1.36116e-05
1.2891e-05
1.23128e-05
1.29309e-05
1.32575e-05
1.35833e-05
1.39042e-05
1.42163e-05
1.45159e-05
1.47989e-05
1.50609e-05
1.52975e-05
1.55039e-05
1.56756e-05
1.58085e-05
1.58992e-05
1.59451e-05
1.59451e-05
1.58992e-05
1.58085e-05
1.56756e-05
1.55039e-05
1.52975e-05
1.50609e-05
1.47989e-05
1.45159e-05
1.42163e-05
1.39042e-05
1.35833e-05
1.32575e-05
1.29309e-05
1.23128e-05
1.17916e-05
1.23273e-05
1.26178e-05
1.29068e-05
1.31911e-05
1.34671e-05
1.37313e-05
1.39802e-05
1.42099e-05
1.44166e-05
1.45963e-05
1.47455e-05
1.48606e-05
1.4939e-05
1.49787e-05
1.49787e-05
1.4939e-05
1.48606e-05
1.47455e-05
1.45963e-05
1.44166e-05
1.42099e-05
1.39802e-05
1.37313e-05
1.34671e-05
1.31911e-05
1.29068e-05
1.26178e-05
1.23273e-05
1.17916e-05
1.13187e-05
1.17871e-05
1.20474e-05
1.2306e-05
1.25597e-05
1.28055e-05
1.30404e-05
1.3261e-05
1.34642e-05
1.36465e-05
1.38046e-05
1.39355e-05
1.40364e-05
1.4105e-05
1.41397e-05
1.41397e-05
1.4105e-05
1.40364e-05
1.39355e-05
1.38046e-05
1.36465e-05
1.34642e-05
1.3261e-05
1.30404e-05
1.28055e-05
1.25597e-05
1.2306e-05
1.20474e-05
1.17871e-05
1.13187e-05
1.08868e-05
1.12997e-05
1.15348e-05
1.17677e-05
1.19957e-05
1.22162e-05
1.24265e-05
1.26236e-05
1.28047e-05
1.29668e-05
1.31072e-05
1.32231e-05
1.33123e-05
1.33729e-05
1.34035e-05
1.34035e-05
1.33729e-05
1.33123e-05
1.32231e-05
1.31072e-05
1.29668e-05
1.28047e-05
1.26236e-05
1.24265e-05
1.22162e-05
1.19957e-05
1.17677e-05
1.15348e-05
1.12997e-05
1.08868e-05
1.04904e-05
1.0857e-05
1.10706e-05
1.12817e-05
1.1488e-05
1.16871e-05
1.18766e-05
1.20539e-05
1.22165e-05
1.23618e-05
1.24873e-05
1.25908e-05
1.26704e-05
1.27243e-05
1.27516e-05
1.27516e-05
1.27243e-05
1.26704e-05
1.25908e-05
1.24873e-05
1.23618e-05
1.22165e-05
1.20539e-05
1.18766e-05
1.16871e-05
1.1488e-05
1.12817e-05
1.10706e-05
1.0857e-05
1.04904e-05
1.01247e-05
1.04523e-05
1.06475e-05
1.084e-05
1.10278e-05
1.12086e-05
1.13804e-05
1.15409e-05
1.16878e-05
1.18189e-05
1.19319e-05
1.20251e-05
1.20965e-05
1.2145e-05
1.21694e-05
1.21694e-05
1.2145e-05
1.20965e-05
1.20251e-05
1.19319e-05
1.18189e-05
1.16878e-05
1.15409e-05
1.13805e-05
1.12086e-05
1.10278e-05
1.084e-05
1.06475e-05
1.04523e-05
1.01247e-05
9.78587e-06
1.00804e-05
1.02597e-05
1.04362e-05
1.06079e-05
1.07732e-05
1.09298e-05
1.10759e-05
1.12094e-05
1.13284e-05
1.14308e-05
1.15151e-05
1.15797e-05
1.16235e-05
1.16456e-05
1.16456e-05
1.16235e-05
1.15797e-05
1.15151e-05
1.14308e-05
1.13284e-05
1.12094e-05
1.10759e-05
1.09298e-05
1.07732e-05
1.06079e-05
1.04362e-05
1.02597e-05
1.00804e-05
9.78588e-06
9.47065e-06
9.7369e-06
9.90231e-06
1.00649e-05
1.02228e-05
1.03745e-05
1.05181e-05
1.06518e-05
1.07738e-05
1.08823e-05
1.09757e-05
1.10525e-05
1.11112e-05
1.1151e-05
1.11711e-05
1.11711e-05
1.1151e-05
1.11112e-05
1.10525e-05
1.09757e-05
1.08823e-05
1.07738e-05
1.06518e-05
9.17629e-06
9.41821e-06
9.57149e-06
9.72189e-06
9.86779e-06
1.00077e-05
1.01399e-05
1.02628e-05
1.03749e-05
1.04744e-05
1.056e-05
1.06302e-05
1.06839e-05
1.07203e-05
1.07387e-05
1.07387e-05
8.90049e-06
9.12131e-06
9.2639e-06
9.40359e-06
9.53891e-06
9.66844e-06
9.79073e-06
9.90428e-06
1.00076e-05
1.00993e-05
1.01781e-05
1.02427e-05
8.64123e-06
8.84367e-06
8.97679e-06
9.10701e-06
9.23299e-06
9.35341e-06
8.39681e-06
8.58314e-06
8.70782e-06
8.82963e-06
8.94731e-06
9.05967e-06
8.16575e-06
8.33789e-06
8.45501e-06
8.5693e-06
8.67959e-06
8.78476e-06
2.31205e-05
1.89757e-05
1.72821e-05
1.60858e-05
1.51062e-05
1.42688e-05
1.35378e-05
1.2891e-05
1.23128e-05
1.17916e-05
1.13187e-05
1.08868e-05
1.04904e-05
1.01247e-05
9.78587e-06
9.47065e-06
9.17629e-06
8.90049e-06
8.64123e-06
8.39681e-06
8.16575e-06
2.44514e-05
2.09979e-05
1.9149e-05
1.76037e-05
1.63383e-05
1.52842e-05
1.43875e-05
1.36115e-05
1.29309e-05
1.23273e-05
1.17871e-05
1.12997e-05
1.0857e-05
1.04523e-05
1.00804e-05
9.7369e-06
9.41821e-06
9.12131e-06
8.84367e-06
8.58314e-06
8.33789e-06
2.52285e-05
2.17391e-05
1.98685e-05
1.82641e-05
1.69113e-05
1.57761e-05
1.48123e-05
1.39822e-05
1.32575e-05
1.26178e-05
1.20474e-05
1.15348e-05
1.10706e-05
1.06475e-05
1.02597e-05
9.90231e-06
9.57149e-06
9.2639e-06
8.97679e-06
8.70782e-06
8.45501e-06
2.61846e-05
2.25825e-05
2.05896e-05
1.89072e-05
1.74756e-05
1.62653e-05
1.52365e-05
1.43524e-05
1.35833e-05
1.29068e-05
1.2306e-05
1.17677e-05
1.12817e-05
1.084e-05
1.04362e-05
1.00649e-05
9.72189e-06
9.40359e-06
9.10702e-06
8.82963e-06
8.5693e-06
8.32421e-06
2.7285e-05
2.35257e-05
2.13449e-05
1.95499e-05
1.80319e-05
1.67472e-05
1.56549e-05
1.47174e-05
1.39042e-05
1.31911e-05
1.25597e-05
1.19957e-05
1.1488e-05
1.10278e-05
1.06079e-05
1.02228e-05
9.86779e-06
9.53891e-06
9.23299e-06
8.94731e-06
8.67959e-06
8.42786e-06
8.19046e-06
7.96593e-06
2.84803e-05
2.45399e-05
2.21357e-05
2.01992e-05
1.85819e-05
1.72195e-05
1.60634e-05
1.50732e-05
1.42163e-05
1.34671e-05
1.28055e-05
1.22162e-05
1.16871e-05
1.12086e-05
1.07732e-05
1.03745e-05
1.00077e-05
9.66844e-06
9.35341e-06
9.05967e-06
8.78476e-06
8.5266e-06
8.28342e-06
8.05367e-06
2.97403e-05
2.55962e-05
2.29492e-05
2.08518e-05
1.91237e-05
1.76789e-05
1.64581e-05
1.54156e-05
1.45159e-05
1.37313e-05
1.30404e-05
1.24265e-05
1.18766e-05
1.13804e-05
1.09298e-05
1.05181e-05
1.01399e-05
9.79073e-06
9.46695e-06
9.16547e-06
8.88368e-06
8.61938e-06
8.37067e-06
8.13595e-06
3.10365e-05
2.66661e-05
2.37663e-05
2.14971e-05
1.9651e-05
1.81206e-05
1.68344e-05
1.57402e-05
1.47989e-05
1.39802e-05
1.3261e-05
1.26236e-05
1.20539e-05
1.15409e-05
1.10759e-05
1.06518e-05
1.02628e-05
9.90428e-06
9.57225e-06
9.26348e-06
8.97522e-06
8.70514e-06
8.45125e-06
8.21186e-06
3.23358e-05
2.77193e-05
2.45645e-05
2.21204e-05
2.01539e-05
1.85372e-05
1.71864e-05
1.60422e-05
1.50609e-05
1.42099e-05
1.34642e-05
1.28047e-05
1.22165e-05
1.16878e-05
1.12094e-05
1.07738e-05
1.03749e-05
1.00076e-05
9.66797e-06
9.35248e-06
9.05825e-06
8.78285e-06
8.52421e-06
8.28054e-06
3.3598e-05
2.87227e-05
2.53189e-05
2.27041e-05
2.06203e-05
1.89201e-05
1.75075e-05
1.6316e-05
1.52975e-05
1.44166e-05
1.36465e-05
1.29668e-05
1.23618e-05
1.18189e-05
1.13284e-05
1.08823e-05
1.04744e-05
1.00993e-05
9.75283e-06
9.43129e-06
9.13172e-06
8.85156e-06
8.58865e-06
8.34114e-06
3.4775e-05
2.96402e-05
2.60035e-05
2.32296e-05
2.10368e-05
1.92595e-05
1.77903e-05
1.65558e-05
1.55039e-05
1.45963e-05
1.38046e-05
1.31072e-05
1.24873e-05
1.19319e-05
1.14308e-05
1.09757e-05
1.056e-05
1.01781e-05
9.82562e-06
9.49885e-06
9.19463e-06
8.91034e-06
8.64374e-06
8.39293e-06
3.58126e-05
3.04346e-05
2.65918e-05
2.36782e-05
2.13901e-05
1.95456e-05
1.80274e-05
1.67561e-05
1.56756e-05
1.47455e-05
1.39355e-05
1.32231e-05
1.25908e-05
1.20251e-05
1.15151e-05
1.10525e-05
1.06302e-05
1.02427e-05
9.88527e-06
9.55416e-06
9.24611e-06
8.95841e-06
8.68877e-06
8.43522e-06
3.66549e-05
3.10693e-05
2.70589e-05
2.40325e-05
2.16676e-05
1.97693e-05
1.82121e-05
1.69115e-05
1.58085e-05
1.48606e-05
1.40364e-05
1.33123e-05
1.26704e-05
1.20965e-05
1.15797e-05
1.11112e-05
1.06839e-05
1.02921e-05
9.93087e-06
9.59641e-06
9.2854e-06
8.99508e-06
8.7231e-06
8.46745e-06
3.72505e-05
3.15127e-05
2.73835e-05
2.42777e-05
2.1859e-05
1.99231e-05
1.83387e-05
1.70178e-05
1.58992e-05
1.4939e-05
1.4105e-05
1.33729e-05
1.27243e-05
1.2145e-05
1.16235e-05
1.1151e-05
1.07203e-05
1.03255e-05
9.96168e-06
9.62495e-06
9.31194e-06
9.01984e-06
8.74626e-06
8.48919e-06
3.75592e-05
3.17407e-05
2.755e-05
2.44031e-05
2.19567e-05
2.00014e-05
1.8403e-05
1.70717e-05
1.59451e-05
1.49787e-05
1.41397e-05
1.34035e-05
1.27516e-05
1.21694e-05
1.16456e-05
1.11711e-05
1.07387e-05
1.03423e-05
9.97721e-06
9.63933e-06
9.32531e-06
9.03231e-06
8.75793e-06
8.50014e-06
3.75592e-05
3.17407e-05
2.755e-05
2.44031e-05
2.19567e-05
2.00014e-05
1.8403e-05
1.70717e-05
1.59451e-05
1.49787e-05
1.41397e-05
1.34035e-05
1.27516e-05
1.21694e-05
1.16456e-05
1.11711e-05
1.07387e-05
1.03423e-05
3.72505e-05
3.15127e-05
2.73835e-05
2.42777e-05
2.1859e-05
1.99231e-05
1.83387e-05
1.70178e-05
3.66549e-05
3.10693e-05
2.70589e-05
3.58126e-05
3.04346e-05
2.65918e-05
1.83882e-05
2.10293e-05
2.27378e-05
2.44407e-05
2.62642e-05
2.82256e-05
3.03205e-05
3.25278e-05
3.48061e-05
3.70896e-05
3.92858e-05
4.12784e-05
4.29362e-05
4.41306e-05
4.47573e-05
4.47573e-05
4.41306e-05
4.29362e-05
4.12784e-05
2.10293e-05
2.46983e-05
2.6654e-05
2.86542e-05
3.08166e-05
3.31612e-05
3.5686e-05
3.83671e-05
4.11541e-05
4.39644e-05
4.66808e-05
4.91556e-05
5.12222e-05
5.27158e-05
5.35011e-05
5.35011e-05
5.27158e-05
5.12222e-05
4.91556e-05
2.27378e-05
2.6654e-05
2.89106e-05
3.13223e-05
3.40142e-05
3.70139e-05
4.03323e-05
4.39567e-05
4.78383e-05
5.18781e-05
5.5915e-05
5.97198e-05
6.3002e-05
6.54412e-05
6.67483e-05
6.67483e-05
6.54412e-05
6.3002e-05
5.97198e-05
2.44407e-05
2.86542e-05
3.13223e-05
3.42548e-05
3.76255e-05
4.15018e-05
4.59412e-05
5.09826e-05
5.66251e-05
6.27966e-05
6.93104e-05
7.58115e-05
8.17361e-05
8.63436e-05
8.8887e-05
8.8887e-05
8.63436e-05
8.17361e-05
7.58115e-05
2.62642e-05
3.08166e-05
3.40142e-05
3.76255e-05
4.19043e-05
4.70058e-05
5.31027e-05
6.0385e-05
6.90376e-05
7.91815e-05
9.07425e-05
0.000103217
0.000115407
0.000125394
0.000131076
0.000131076
0.000125394
0.000115407
0.000103217
2.82256e-05
3.31612e-05
3.70139e-05
4.15018e-05
4.70058e-05
5.38567e-05
6.2493e-05
7.35122e-05
8.76974e-05
0.00010594
0.000128864
0.000155923
0.00018426
0.000208447
0.000222447
0.000222447
0.000208447
0.000184259
0.000155923
3.03205e-05
3.5686e-05
4.03323e-05
4.59412e-05
5.31027e-05
6.2493e-05
7.51522e-05
9.27378e-05
0.000117813
0.000153869
0.00020418
0.000268327
0.000337845
0.000396943
0.000430507
0.000430507
0.000396943
0.000337845
0.000268327
3.25278e-05
3.83671e-05
4.39567e-05
5.09826e-05
6.0385e-05
7.35122e-05
9.27378e-05
0.00012237
0.00016991
0.000246473
0.000361983
0.000509986
0.000654014
0.000758216
0.000811089
0.000811089
0.000758216
0.000654014
0.000509986
3.48061e-05
4.11541e-05
4.78383e-05
5.66251e-05
6.90376e-05
8.76974e-05
0.000117813
0.00016991
0.000263708
0.000426822
0.000664443
0.000902707
0.001
0.001
0.001
0.001
0.001
0.001
0.000902707
3.70896e-05
4.39644e-05
5.18781e-05
6.27966e-05
7.91815e-05
0.00010594
0.000153869
0.000246473
0.000426822
0.000726143
0.001
0.001
0.001
0.001
0.001
0.001
0.001
0.001
0.001
3.92858e-05
4.66808e-05
5.5915e-05
6.93104e-05
9.07425e-05
0.000128864
0.00020418
0.000361983
0.000664443
0.001
0.001
0.001
0.001
0.001
0.001
0.001
0.001
0.001
0.001
4.12784e-05
4.91556e-05
5.97198e-05
7.58115e-05
0.000103217
0.000155923
0.000268327
0.000509986
0.000902706
0.001
0.001
0.001
0.001
0.001
0.001
0.001
0.001
0.001
0.001
4.29362e-05
5.12222e-05
6.3002e-05
8.17361e-05
0.000115407
0.000184259
0.000337845
0.000654014
0.001
0.001
0.001
0.001
0.001
0.001
0.001
0.001
0.001
0.001
0.001
4.41306e-05
5.27158e-05
6.54412e-05
8.63436e-05
0.000125394
0.000208447
0.000396943
0.000758216
0.001
0.001
0.001
0.001
0.001
0.001
0.001
0.001
0.001
0.001
0.001
4.47573e-05
5.35011e-05
6.67483e-05
8.8887e-05
0.000131076
0.000222447
0.000430507
0.000811088
0.001
0.001
0.001
0.001
0.001
0.001
0.001
0.001
0.001
0.001
0.001
4.47573e-05
5.35011e-05
6.67483e-05
8.8887e-05
0.000131076
0.000222447
0.000430507
0.000811088
0.001
0.001
0.001
0.001
0.001
0.001
0.001
0.001
0.001
0.001
0.001
4.41306e-05
5.27158e-05
6.54412e-05
8.63436e-05
0.000125394
0.000208447
0.000396942
0.000758215
0.001
0.001
0.001
0.001
0.001
0.001
0.001
0.001
0.001
0.001
0.001
4.29362e-05
5.12222e-05
6.3002e-05
8.17361e-05
0.000115407
0.000184259
0.000337845
0.000654013
0.001
0.001
0.001
0.001
0.001
0.001
0.001
0.001
0.001
0.001
0.001
4.12784e-05
4.91556e-05
5.97198e-05
7.58115e-05
0.000103217
0.000155923
0.000268326
0.000509986
0.000902706
0.001
0.001
0.001
0.001
0.001
0.001
0.001
0.001
0.001
0.001
3.92858e-05
4.66808e-05
5.5915e-05
6.93104e-05
9.07424e-05
0.000128864
0.00020418
0.000361982
0.000664442
0.001
0.001
0.001
0.001
0.001
0.001
0.001
0.001
0.001
0.001
3.70896e-05
4.39644e-05
5.18781e-05
6.27966e-05
7.91814e-05
0.00010594
0.000153869
0.000246473
0.000426821
0.000726142
0.001
0.001
0.001
0.001
0.001
0.001
0.001
0.001
0.001
3.48061e-05
4.11541e-05
4.78383e-05
5.66251e-05
6.90375e-05
8.76974e-05
0.000117813
0.00016991
0.000263707
0.000426821
0.000664441
0.000902705
0.001
0.001
0.001
0.001
0.001
0.001
0.000902705
3.25278e-05
3.83671e-05
4.39567e-05
5.09826e-05
6.03849e-05
7.35122e-05
9.27377e-05
0.00012237
0.00016991
0.000246473
0.000361982
0.000509985
0.000654012
0.000758214
0.000811087
0.000811087
0.000758214
0.000654012
0.000509985
3.03205e-05
3.5686e-05
4.03322e-05
4.59412e-05
5.31027e-05
6.24929e-05
7.51522e-05
9.27377e-05
0.000117813
0.000153869
0.00020418
0.000268326
0.000337844
0.000396942
0.000430506
0.000430506
0.000396942
0.000337844
0.000268326
2.82255e-05
3.31612e-05
3.70138e-05
4.15018e-05
4.70058e-05
5.38567e-05
6.24929e-05
7.35122e-05
8.76974e-05
0.00010594
0.000128864
0.000155923
0.000184259
0.000208446
0.000222446
0.000222446
0.000208446
0.000184259
0.000155923
2.62642e-05
3.08166e-05
3.40142e-05
3.76255e-05
4.19042e-05
4.70058e-05
5.31027e-05
6.03849e-05
6.90375e-05
7.91814e-05
9.07424e-05
0.000103217
0.000115407
0.000125394
0.000131076
0.000131076
0.000125394
0.000115407
0.000103217
2.44407e-05
2.86542e-05
3.13223e-05
3.42548e-05
3.76255e-05
4.15018e-05
4.59412e-05
5.09826e-05
5.6625e-05
6.27966e-05
6.93103e-05
7.58114e-05
8.1736e-05
8.63435e-05
8.88869e-05
8.88869e-05
8.63435e-05
8.1736e-05
7.58114e-05
2.27378e-05
2.6654e-05
2.89106e-05
3.13223e-05
3.40142e-05
3.70138e-05
4.03322e-05
4.39567e-05
4.78383e-05
5.18781e-05
5.5915e-05
5.97197e-05
6.3002e-05
6.54411e-05
6.67483e-05
6.67483e-05
6.54411e-05
6.3002e-05
5.97197e-05
2.10293e-05
2.46983e-05
2.6654e-05
2.86542e-05
3.08166e-05
3.31612e-05
3.5686e-05
3.83671e-05
4.11541e-05
4.39643e-05
4.66808e-05
4.91556e-05
5.12222e-05
5.27157e-05
5.35011e-05
5.35011e-05
5.27157e-05
5.12222e-05
4.91556e-05
1.83882e-05
2.10293e-05
2.27378e-05
2.44407e-05
2.62642e-05
2.82255e-05
3.03205e-05
3.25278e-05
3.48061e-05
3.70896e-05
3.92858e-05
4.12784e-05
4.29362e-05
4.41306e-05
4.47573e-05
4.47573e-05
4.41306e-05
4.29362e-05
4.12784e-05
)
;

boundaryField
{
    inlet
    {
        type            cyclic;
    }
    outlet
    {
        type            cyclic;
    }
    wall
    {
        type            calculated;
        value           nonuniform 0();
    }
    procBoundary6to4
    {
        type            processor;
        value           nonuniform List<scalar> 
43
(
1.07203e-05
1.06839e-05
1.06302e-05
1.056e-05
1.02921e-05
1.03255e-05
1.03423e-05
1.07203e-05
1.03423e-05
9.46695e-06
9.57225e-06
9.66797e-06
9.75283e-06
9.82562e-06
1.02921e-05
9.88528e-06
9.46695e-06
9.16547e-06
7.94676e-06
8.10634e-06
8.21667e-06
8.32421e-06
8.42786e-06
8.88368e-06
8.5266e-06
7.94676e-06
8.10634e-06
8.21667e-06
8.21667e-06
8.09277e-06
8.09277e-06
7.87363e-06
7.75301e-06
7.83603e-06
7.91381e-06
7.9855e-06
8.0503e-06
8.10745e-06
8.15625e-06
8.19607e-06
8.22641e-06
8.24687e-06
8.25717e-06
)
;
    }
    procBoundary6to5
    {
        type            processor;
        value           nonuniform List<scalar> 
31
(
1.15797e-05
1.16235e-05
1.16456e-05
1.16456e-05
1.16235e-05
1.15797e-05
1.15151e-05
9.47065e-06
9.73691e-06
9.90232e-06
1.00649e-05
1.02228e-05
1.03745e-05
1.05181e-05
1.06518e-05
1.07738e-05
1.08823e-05
1.09757e-05
1.15797e-05
1.10525e-05
1.05181e-05
1.03745e-05
1.02229e-05
1.00649e-05
9.90232e-06
9.73691e-06
9.47065e-06
1.04744e-05
1.03749e-05
1.05181e-05
1.02628e-05
)
;
    }
    procBoundary6to7
    {
        type            processor;
        value           nonuniform List<scalar> 
72
(
3.4775e-05
2.96402e-05
2.60035e-05
2.32296e-05
2.10368e-05
1.92595e-05
1.77903e-05
1.65558e-05
1.55039e-05
1.45963e-05
1.38046e-05
1.31072e-05
1.24873e-05
1.19319e-05
9.97721e-06
9.63933e-06
9.32531e-06
9.03231e-06
8.75793e-06
8.50014e-06
1.58992e-05
1.4939e-05
1.4105e-05
1.33729e-05
1.27243e-05
1.2145e-05
1.16235e-05
1.1151e-05
1.07203e-05
9.97721e-06
1.03255e-05
2.40325e-05
2.16676e-05
1.97693e-05
1.82121e-05
1.58992e-05
1.69115e-05
2.40325e-05
3.4775e-05
2.96402e-05
2.36782e-05
2.60035e-05
3.92858e-05
4.66808e-05
5.5915e-05
6.93104e-05
9.07425e-05
0.000128864
0.00020418
0.000361983
0.000664443
0.001
0.001
0.001
0.001
0.001
0.001
0.001
0.001
0.001
0.001
0.001
0.001
0.000664441
0.000361982
0.00020418
0.000128864
9.07424e-05
6.93103e-05
5.5915e-05
4.66808e-05
3.92858e-05
)
;
    }
}


// ************************************************************************* //
