/*--------------------------------*- C++ -*----------------------------------*\
  =========                 |
  \\      /  F ield         | OpenFOAM: The Open Source CFD Toolbox
   \\    /   O peration     | Website:  https://openfoam.org
    \\  /    A nd           | Version:  7
     \\/     M anipulation  |
\*---------------------------------------------------------------------------*/
FoamFile
{
    version     2.0;
    format      ascii;
    class       volVectorField;
    location    "24000";
    object      U;
}
// * * * * * * * * * * * * * * * * * * * * * * * * * * * * * * * * * * * * * //

dimensions      [0 1 -1 0 0 0 0];

internalField   nonuniform List<vector> 
4814
(
(1.89843e-19 7.15914e-21 -0.00319355)
(1.92402e-19 -4.97867e-19 -0.00319939)
(-2.30348e-19 -3.40837e-19 -0.00320467)
(-1.35935e-19 -1.78016e-19 -0.00320935)
(4.61669e-19 -5.31967e-19 -0.00301014)
(2.83859e-19 -5.09777e-19 -0.00302319)
(3.00911e-19 -6.43906e-19 -0.0030359)
(2.42796e-19 -4.83562e-19 -0.00304823)
(1.14974e-19 -9.66475e-19 -0.00306014)
(-3.51544e-19 -4.26854e-19 -0.0030716)
(2.05547e-19 -2.63708e-19 -0.00308259)
(-2.55894e-19 -2.11454e-19 -0.00309308)
(2.18647e-19 4.93084e-20 -0.00310306)
(-1.37977e-19 7.95096e-20 -0.0031125)
(2.45092e-19 -4.12299e-19 -0.00312139)
(-2.95431e-19 -1.57898e-19 -0.00312973)
(5.44455e-19 7.55613e-20 -0.0031375)
(9.34084e-20 -3.07155e-19 -0.0031447)
(2.18891e-19 1.25161e-20 -0.00315131)
(2.50038e-19 -4.96825e-19 -0.00315733)
(-1.66486e-19 -3.26547e-19 -0.00316276)
(-9.73949e-20 -1.82843e-19 -0.0031676)
(1.05391e-19 3.28569e-20 -0.00317183)
(3.31294e-19 -3.01519e-19 -0.00317546)
(4.43644e-20 -3.26627e-19 -0.0031785)
(-1.11553e-19 -2.49197e-19 -0.00318092)
(2.63764e-19 -2.434e-19 -0.00318274)
(-2.5286e-20 -4.39102e-19 -0.00318396)
(4.33268e-19 -2.56844e-19 -0.00318457)
(2.15122e-20 -6.39252e-19 -0.00318457)
(-6.46114e-20 -3.2531e-19 -0.00318396)
(2.42263e-20 -4.97695e-19 -0.00318275)
(-9.7856e-20 -2.80573e-19 -0.00318093)
(-1.6411e-19 -2.05649e-19 -0.00317851)
(-4.03041e-19 -1.99177e-19 -0.00317548)
(-4.02985e-19 2.12533e-19 -0.00317185)
(-1.71972e-19 2.81555e-19 -0.00316762)
(1.47923e-21 3.0949e-19 -0.00316279)
(4.89116e-19 -4.94646e-19 -0.00296334)
(2.38468e-19 -5.36963e-19 -0.00297658)
(3.32215e-19 -6.23361e-19 -0.0029895)
(2.51658e-19 -4.62591e-19 -0.00300203)
(1.37013e-19 -9.58521e-19 -0.00301415)
(-2.64281e-19 -3.7821e-19 -0.00302582)
(1.80295e-19 -2.89455e-19 -0.00303701)
(-2.09412e-19 -1.89231e-19 -0.00304771)
(2.20173e-19 5.39874e-20 -0.00305789)
(-2.00022e-19 6.93788e-20 -0.00306753)
(2.96908e-19 -4.14585e-19 -0.00307662)
(-3.14496e-19 -1.7635e-19 -0.00308515)
(4.90144e-19 4.87844e-20 -0.0030931)
(9.33136e-20 -3.063e-19 -0.00310047)
(2.55658e-19 1.78845e-20 -0.00310725)
(2.81939e-19 -5.01534e-19 -0.00311342)
(-9.81885e-20 -3.08721e-19 -0.00311899)
(-7.56415e-20 -1.90098e-19 -0.00312396)
(1.1886e-19 3.75322e-20 -0.0031283)
(2.87005e-19 -3.16137e-19 -0.00313204)
(3.92748e-20 -3.33955e-19 -0.00313515)
(-1.40733e-19 -2.79818e-19 -0.00313765)
(2.75768e-19 -2.5597e-19 -0.00313952)
(-2.74628e-20 -4.63705e-19 -0.00314077)
(3.67384e-19 -2.67514e-19 -0.00314139)
(-1.23746e-20 -6.46739e-19 -0.0031414)
(-2.3766e-20 -3.34312e-19 -0.00314077)
(3.51596e-21 -5.09735e-19 -0.00313953)
(-1.03046e-19 -2.81874e-19 -0.00313766)
(-1.47018e-19 -2.07489e-19 -0.00313517)
(-3.96515e-19 -1.97883e-19 -0.00313206)
(-4.36437e-19 2.25081e-19 -0.00312833)
(-1.93914e-19 2.84517e-19 -0.00312398)
(-4.13037e-21 3.21805e-19 -0.00311902)
(-8.12024e-20 7.7326e-20 -0.00311345)
(-1.68982e-19 3.47533e-19 -0.00310728)
(1.03041e-19 4.12983e-19 -0.00310051)
(2.03388e-19 2.73273e-19 -0.00309314)
(3.08365e-19 1.41512e-19 -0.00308518)
(-6.38977e-20 -3.12981e-20 -0.00307665)
(-2.65467e-20 2.60393e-19 -0.00306756)
(5.27486e-19 -4.4965e-19 -0.00291521)
(2.15373e-19 -5.44788e-19 -0.00292861)
(3.45761e-19 -6.20009e-19 -0.00294169)
(2.07951e-19 -4.83697e-19 -0.0029544)
(1.63314e-19 -9.54099e-19 -0.00296669)
(-1.36698e-19 -2.99806e-19 -0.00297853)
(1.26008e-19 -3.29731e-19 -0.0029899)
(-2.07465e-19 -1.98415e-19 -0.00300078)
(1.92531e-19 4.29444e-20 -0.00301113)
(-2.40171e-19 6.96321e-20 -0.00302095)
(3.35924e-19 -4.21848e-19 -0.00303021)
(-3.69888e-19 -2.12885e-19 -0.0030389)
(5.22437e-19 5.4932e-20 -0.00304701)
(6.14081e-20 -3.17044e-19 -0.00305453)
(2.40876e-19 7.20296e-21 -0.00306145)
(2.75295e-19 -5.17732e-19 -0.00306776)
(-3.78131e-20 -2.92226e-19 -0.00307345)
(-7.29482e-20 -1.98522e-19 -0.00307853)
(1.35571e-19 4.26591e-20 -0.00308298)
(2.6368e-19 -3.26609e-19 -0.0030868)
(3.16772e-20 -3.41544e-19 -0.00308998)
(-1.33286e-19 -3.06126e-19 -0.00309254)
(2.69119e-19 -2.71125e-19 -0.00309445)
(-3.86342e-20 -4.85887e-19 -0.00309573)
(3.26719e-19 -2.7683e-19 -0.00309637)
(-4.53772e-20 -6.58343e-19 -0.00309638)
(1.62623e-20 -3.4402e-19 -0.00309574)
(-7.62088e-21 -5.19211e-19 -0.00309446)
(-1.227e-19 -2.80423e-19 -0.00309255)
(-1.51758e-19 -2.05014e-19 -0.00309)
(-3.69908e-19 -1.96262e-19 -0.00308681)
(-4.60589e-19 2.37263e-19 -0.003083)
(-2.00103e-19 2.84518e-19 -0.00307855)
(-3.97197e-20 3.4307e-19 -0.00307348)
(-7.84646e-20 7.95444e-20 -0.00306779)
(-2.11066e-19 3.70283e-19 -0.00306148)
(1.65354e-19 4.014e-19 -0.00305456)
(1.13543e-19 3.32504e-19 -0.00304704)
(2.71749e-19 1.85432e-19 -0.00303893)
(-5.0832e-20 -3.10548e-20 -0.00303024)
(-7.49175e-20 3.11182e-19 -0.00302097)
(1.78988e-19 7.4862e-19 -0.00301115)
(1.46267e-19 -1.09133e-19 -0.00300078)
(2.16265e-19 2.24332e-19 -0.00298989)
(5.37261e-19 -4.34999e-19 -0.00286581)
(2.40438e-19 -5.07049e-19 -0.00287935)
(3.31216e-19 -6.3585e-19 -0.00289256)
(1.56134e-19 -5.11214e-19 -0.0029054)
(2.11807e-19 -9.41514e-19 -0.00291784)
(-4.94808e-20 -2.4626e-19 -0.00292983)
(1.24248e-19 -3.29399e-19 -0.00294135)
(-1.82119e-19 -1.92466e-19 -0.00295237)
(1.09379e-19 2.63703e-21 -0.00296287)
(-2.37097e-19 8.81327e-20 -0.00297283)
(3.68813e-19 -4.27359e-19 -0.00298223)
(-3.97256e-19 -2.3722e-19 -0.00299106)
(5.30911e-19 5.03322e-20 -0.00299931)
(3.26115e-20 -3.20846e-19 -0.00300696)
(2.15877e-19 -7.47652e-21 -0.003014)
(2.58066e-19 -5.37579e-19 -0.00302042)
(-2.80144e-20 -2.87414e-19 -0.00302622)
(-6.62079e-20 -2.03778e-19 -0.00303139)
(1.25146e-19 4.30016e-20 -0.00303593)
(2.61671e-19 -3.30088e-19 -0.00303982)
(2.63079e-20 -3.47582e-19 -0.00304307)
(-9.52911e-20 -3.28444e-19 -0.00304568)
(2.46578e-19 -2.84414e-19 -0.00304764)
(-4.81286e-20 -5.06777e-19 -0.00304894)
(3.09878e-19 -2.84275e-19 -0.00304959)
(-7.17133e-20 -6.69315e-19 -0.0030496)
(2.41108e-20 -3.53295e-19 -0.00304895)
(-9.25431e-21 -5.26943e-19 -0.00304764)
(-1.35122e-19 -2.79696e-19 -0.00304569)
(-1.59792e-19 -2.04404e-19 -0.00304309)
(-3.31559e-19 -1.96265e-19 -0.00303984)
(-4.50558e-19 2.43014e-19 -0.00303595)
(-2.15908e-19 2.86083e-19 -0.00303142)
(-5.63942e-20 3.56452e-19 -0.00302625)
(-5.71853e-20 7.63722e-20 -0.00302045)
(-2.02676e-19 3.74251e-19 -0.00301403)
(2.67468e-19 3.80707e-19 -0.00300699)
(6.52656e-20 3.76717e-19 -0.00299934)
(2.85986e-19 2.03103e-19 -0.0029911)
(-3.65208e-20 -2.40908e-20 -0.00298226)
(-1.08548e-19 3.56503e-19 -0.00297285)
(2.56708e-19 7.44443e-19 -0.00296288)
(1.59851e-19 -1.07646e-19 -0.00295237)
(2.47811e-19 2.29236e-19 -0.00294133)
(5.1923e-19 -4.46887e-19 -0.00281521)
(2.38703e-19 -4.91344e-19 -0.00282885)
(3.02751e-19 -6.58025e-19 -0.00284217)
(1.41556e-19 -5.13325e-19 -0.00285512)
(2.76088e-19 -9.19965e-19 -0.00286767)
(-5.03482e-20 -2.52203e-19 -0.00287978)
(1.58062e-19 -3.06252e-19 -0.00289141)
(-1.57902e-19 -1.8123e-19 -0.00290255)
(3.67589e-20 -3.17944e-20 -0.00291317)
(-2.04234e-19 1.17026e-19 -0.00292325)
(3.65687e-19 -4.46401e-19 -0.00293278)
(-3.71578e-19 -2.36726e-19 -0.00294172)
(4.69511e-19 1.89876e-20 -0.00295008)
(4.44287e-20 -3.08818e-19 -0.00295783)
(2.41112e-19 -3.66728e-21 -0.00296498)
(2.38763e-19 -5.55947e-19 -0.0029715)
(-3.42074e-20 -2.88106e-19 -0.00297739)
(-5.36482e-20 -2.06909e-19 -0.00298264)
(1.21821e-19 4.54222e-20 -0.00298725)
(2.55727e-19 -3.34122e-19 -0.0029912)
(4.59623e-20 -3.49525e-19 -0.00299451)
(-3.67298e-20 -3.45253e-19 -0.00299716)
(2.38489e-19 -2.94239e-19 -0.00299915)
(-5.25948e-20 -5.26107e-19 -0.00300048)
(3.10212e-19 -2.89687e-19 -0.00300114)
(-1.13989e-19 -6.79488e-19 -0.00300114)
(8.31478e-21 -3.61788e-19 -0.00300048)
(-9.30031e-21 -5.34267e-19 -0.00299916)
(-1.12661e-19 -2.81275e-19 -0.00299717)
(-1.69153e-19 -2.04449e-19 -0.00299452)
(-2.97907e-19 -1.96864e-19 -0.00299122)
(-4.25981e-19 2.4653e-19 -0.00298727)
(-2.27028e-19 2.85774e-19 -0.00298266)
(-3.7913e-20 3.57035e-19 -0.00297741)
(-3.52334e-20 7.17735e-20 -0.00297153)
(-2.14941e-19 3.80274e-19 -0.00296501)
(3.12079e-19 3.80109e-19 -0.00295787)
(8.44065e-20 3.97192e-19 -0.00295011)
(2.88577e-19 2.22259e-19 -0.00294175)
(-7.02265e-21 -2.54313e-20 -0.0029328)
(-1.31082e-19 3.90081e-19 -0.00292328)
(3.45776e-19 7.33108e-19 -0.00291319)
(1.62992e-19 -9.40454e-20 -0.00290255)
(2.93213e-19 2.29259e-19 -0.00289139)
(5.1636e-19 -4.41998e-19 -0.00276348)
(1.99377e-19 -5.08058e-19 -0.00277719)
(2.93189e-19 -6.67284e-19 -0.00279059)
(1.80412e-19 -4.77405e-19 -0.00280362)
(3.24521e-19 -9.0579e-19 -0.00281625)
(-5.94671e-20 -2.63585e-19 -0.00282845)
(1.73454e-19 -2.96575e-19 -0.00284017)
(-1.99038e-19 -2.05056e-19 -0.00285141)
(4.51324e-20 -2.20453e-20 -0.00286212)
(-2.07723e-19 1.26693e-19 -0.00287229)
(3.40348e-19 -4.73863e-19 -0.00288191)
(-3.57209e-19 -2.39044e-19 -0.00289095)
(4.21725e-19 -6.98787e-21 -0.0028994)
(7.97758e-20 -2.92762e-19 -0.00290724)
(2.90711e-19 1.05045e-20 -0.00291446)
(2.29871e-19 -5.67572e-19 -0.00292106)
(-5.66954e-20 -2.92552e-19 -0.00292703)
(-6.30746e-20 -2.15409e-19 -0.00293234)
(1.29737e-19 5.05462e-20 -0.00293701)
(2.44991e-19 -3.37649e-19 -0.00294102)
(5.2643e-20 -3.5433e-19 -0.00294437)
(4.54807e-21 -3.62498e-19 -0.00294706)
(2.45924e-19 -2.99045e-19 -0.00294907)
(-5.9623e-20 -5.44992e-19 -0.00295042)
(3.16056e-19 -2.92179e-19 -0.00295109)
(-1.59519e-19 -6.86218e-19 -0.00295109)
(-1.80231e-20 -3.72213e-19 -0.00295042)
(-1.89168e-20 -5.42439e-19 -0.00294908)
(-8.30077e-20 -2.83302e-19 -0.00294707)
(-1.41907e-19 -2.09047e-19 -0.00294439)
(-3.02689e-19 -1.91595e-19 -0.00294104)
(-3.8106e-19 2.46211e-19 -0.00293703)
(-2.04064e-19 2.75729e-19 -0.00293237)
(-1.19274e-21 3.50562e-19 -0.00292705)
(-4.54325e-21 6.62291e-20 -0.00292109)
(-2.18839e-19 3.8363e-19 -0.00291449)
(2.6509e-19 4.09158e-19 -0.00290727)
(1.16888e-19 4.07204e-19 -0.00289943)
(3.17448e-19 2.26333e-19 -0.00289098)
(1.14325e-20 -2.01538e-20 -0.00288194)
(-1.01053e-19 3.93062e-19 -0.00287232)
(3.71935e-19 7.51613e-19 -0.00286213)
(2.14552e-19 -1.11732e-19 -0.0028514)
(3.31397e-19 2.25994e-19 -0.00284015)
(5.1234e-19 -4.37495e-19 -0.00271068)
(1.78199e-19 -5.07375e-19 -0.00272443)
(3.1518e-19 -6.54538e-19 -0.00273787)
(2.14757e-19 -4.45571e-19 -0.00275096)
(3.33496e-19 -9.17185e-19 -0.00276365)
(-2.74532e-20 -2.46059e-19 -0.0027759)
(1.57878e-19 -3.02656e-19 -0.00278769)
(-2.55578e-19 -2.41142e-19 -0.00279899)
(6.53306e-20 -9.14753e-21 -0.00280978)
(-2.25161e-19 1.32576e-19 -0.00282002)
(3.57006e-19 -4.80374e-19 -0.00282971)
(-3.34651e-19 -2.3951e-19 -0.00283882)
(4.51031e-19 -3.43572e-21 -0.00284733)
(6.50207e-20 -2.9592e-19 -0.00285524)
(2.87454e-19 8.92918e-21 -0.00286253)
(2.28208e-19 -5.72121e-19 -0.00286919)
(-6.96738e-20 -2.93765e-19 -0.00287521)
(-8.70135e-20 -2.28948e-19 -0.00288058)
(1.10801e-19 4.9311e-20 -0.0028853)
(2.38007e-19 -3.39574e-19 -0.00288935)
(6.87253e-20 -3.56949e-19 -0.00289274)
(1.40831e-20 -3.82157e-19 -0.00289545)
(2.66493e-19 -3.01551e-19 -0.00289749)
(-4.23435e-20 -5.61092e-19 -0.00289885)
(2.9299e-19 -2.93486e-19 -0.00289953)
(-1.60869e-19 -6.92114e-19 -0.00289953)
(-2.1375e-20 -3.83695e-19 -0.00289885)
(-7.92011e-20 -5.47299e-19 -0.0028975)
(-7.16681e-20 -2.85099e-19 -0.00289546)
(-1.14008e-19 -2.11272e-19 -0.00289275)
(-3.3123e-19 -1.82555e-19 -0.00288937)
(-3.27413e-19 2.40033e-19 -0.00288532)
(-1.78611e-19 2.64778e-19 -0.00288061)
(2.74525e-20 3.45052e-19 -0.00287524)
(3.49039e-20 5.8089e-20 -0.00286922)
(-1.57858e-19 3.68028e-19 -0.00286256)
(2.37336e-19 4.29303e-19 -0.00285527)
(1.45701e-19 4.13763e-19 -0.00284736)
(3.257e-19 2.38236e-19 -0.00283884)
(-2.36353e-20 7.34725e-21 -0.00282973)
(-8.35576e-20 4.00968e-19 -0.00282004)
(3.56072e-19 7.88261e-19 -0.00280979)
(2.66724e-19 -1.34715e-19 -0.00279899)
(3.34346e-19 2.47354e-19 -0.00278767)
(2.31665e-19 -3.85663e-19 -0.00277585)
(5.05815e-19 -4.36093e-19 -0.00265686)
(1.88678e-19 -4.80963e-19 -0.00267063)
(3.74342e-19 -6.11342e-19 -0.00268409)
(2.13158e-19 -4.38578e-19 -0.0026972)
(3.48383e-19 -9.24563e-19 -0.00270992)
(-2.29578e-20 -2.4827e-19 -0.00272221)
(1.69225e-19 -2.8736e-19 -0.00273404)
(-2.38504e-19 -2.33511e-19 -0.00274538)
(2.30122e-20 -3.2275e-20 -0.00275621)
(-2.11087e-19 1.51697e-19 -0.0027665)
(4.1887e-19 -4.65473e-19 -0.00277624)
(-3.28911e-19 -2.47545e-19 -0.0027854)
(5.07953e-19 1.47747e-20 -0.00279396)
(1.05498e-20 -3.09436e-19 -0.00280192)
(2.83489e-19 4.62478e-21 -0.00280926)
(2.48975e-19 -5.71148e-19 -0.00281596)
(-4.76601e-20 -2.83833e-19 -0.00282203)
(-8.65581e-20 -2.34482e-19 -0.00282744)
(7.24308e-20 4.27539e-20 -0.00283219)
(2.34789e-19 -3.4271e-19 -0.00283627)
(7.04384e-20 -3.60644e-19 -0.00283968)
(2.68803e-21 -4.03368e-19 -0.00284242)
(2.57462e-19 -3.06571e-19 -0.00284447)
(-3.11444e-20 -5.74162e-19 -0.00284585)
(2.6315e-19 -2.9363e-19 -0.00284653)
(-1.28375e-19 -6.98805e-19 -0.00284654)
(-3.10401e-20 -3.90821e-19 -0.00284585)
(-1.39761e-19 -5.5101e-19 -0.00284448)
(-6.17562e-20 -2.90001e-19 -0.00284243)
(-1.19411e-19 -2.07568e-19 -0.0028397)
(-3.53857e-19 -1.75538e-19 -0.00283629)
(-2.73972e-19 2.32549e-19 -0.00283221)
(-1.72831e-19 2.58304e-19 -0.00282746)
(5.14926e-20 3.38642e-19 -0.00282205)
(6.0832e-20 5.08327e-20 -0.00281599)
(-1.1822e-19 3.59524e-19 -0.00280928)
(2.70587e-19 4.28019e-19 -0.00280195)
(1.7546e-19 4.1866e-19 -0.00279399)
(3.52128e-19 2.43538e-19 -0.00278542)
(-7.19921e-20 4.18082e-20 -0.00277626)
(-9.83775e-20 4.22601e-19 -0.00276652)
(3.83759e-19 7.94986e-19 -0.00275622)
(2.69355e-19 -1.3044e-19 -0.00274538)
(3.22923e-19 2.79829e-19 -0.00273402)
(1.93282e-19 -3.61523e-19 -0.00272216)
(5.05833e-19 -4.26975e-19 -0.00260209)
(2.19875e-19 -4.39433e-19 -0.00261584)
(4.28229e-19 -5.69771e-19 -0.0026293)
(1.92646e-19 -4.44169e-19 -0.00264241)
(3.81304e-19 -9.16428e-19 -0.00265513)
(-6.74803e-20 -2.84368e-19 -0.00266743)
(1.67167e-19 -2.8558e-19 -0.00267928)
(-2.07941e-19 -2.12813e-19 -0.00269064)
(-2.61107e-20 -5.855e-20 -0.00270149)
(-1.98588e-19 1.63602e-19 -0.00271181)
(4.64128e-19 -4.54373e-19 -0.00272157)
(-3.07097e-19 -2.48894e-19 -0.00273075)
(4.92888e-19 3.84267e-21 -0.00273935)
(3.31915e-20 -2.92846e-19 -0.00274734)
(3.20674e-19 1.10553e-20 -0.00275471)
(2.46108e-19 -5.75412e-19 -0.00276144)
(-1.42825e-20 -2.70577e-19 -0.00276753)
(-7.81742e-20 -2.3646e-19 -0.00277297)
(7.72173e-20 4.47106e-20 -0.00277775)
(2.60456e-19 -3.40578e-19 -0.00278185)
(5.87027e-20 -3.64101e-19 -0.00278528)
(2.25345e-21 -4.21567e-19 -0.00278804)
(2.2678e-19 -3.13293e-19 -0.0027901)
(-2.82933e-20 -5.87501e-19 -0.00279148)
(2.34286e-19 -2.94973e-19 -0.00279217)
(-9.40707e-20 -7.04169e-19 -0.00279217)
(-6.14415e-20 -3.94536e-19 -0.00279149)
(-1.51985e-19 -5.59551e-19 -0.00279011)
(-4.94694e-20 -2.94668e-19 -0.00278805)
(-1.35357e-19 -2.00248e-19 -0.0027853)
(-3.70977e-19 -1.71764e-19 -0.00278187)
(-2.40567e-19 2.27059e-19 -0.00277777)
(-1.43692e-19 2.46943e-19 -0.00277299)
(5.48333e-20 3.36689e-19 -0.00276756)
(4.27625e-20 5.82644e-20 -0.00276147)
(-1.82138e-19 3.83304e-19 -0.00275473)
(2.38167e-19 4.4806e-19 -0.00274737)
(1.90306e-19 4.28608e-19 -0.00273938)
(3.62139e-19 2.57202e-19 -0.00273078)
(-8.29501e-20 5.91692e-20 -0.00272159)
(-1.13957e-19 4.37997e-19 -0.00271182)
(4.35351e-19 7.84583e-19 -0.0027015)
(2.83141e-19 -1.32324e-19 -0.00269063)
(3.56565e-19 2.79275e-19 -0.00267925)
(2.16401e-19 -3.80359e-19 -0.00266738)
(4.73151e-19 -4.48962e-19 -0.00254641)
(2.1896e-19 -4.27546e-19 -0.00256013)
(4.62233e-19 -5.41014e-19 -0.00257356)
(2.03579e-19 -4.24024e-19 -0.00258664)
(4.02171e-19 -9.15366e-19 -0.00259935)
(-9.62758e-20 -3.0772e-19 -0.00261163)
(1.25095e-19 -3.11276e-19 -0.00262347)
(-2.4515e-19 -2.33564e-19 -0.00263482)
(-4.24987e-20 -6.65314e-20 -0.00264567)
(-1.7777e-19 1.76713e-19 -0.00265599)
(4.74764e-19 -4.61538e-19 -0.00266576)
(-2.62287e-19 -2.36127e-19 -0.00267496)
(4.02249e-19 -3.88687e-20 -0.00268357)
(1.33826e-19 -2.51579e-19 -0.00269157)
(3.53623e-19 2.07511e-20 -0.00269895)
(2.19609e-19 -5.86214e-19 -0.0027057)
(4.74374e-20 -2.507e-19 -0.00271181)
(-7.77802e-20 -2.40589e-19 -0.00271726)
(1.2039e-19 5.16483e-20 -0.00272205)
(2.74499e-19 -3.39272e-19 -0.00272617)
(6.32614e-20 -3.63422e-19 -0.00272961)
(9.71662e-21 -4.37802e-19 -0.00273237)
(2.21398e-19 -3.17403e-19 -0.00273444)
(-1.30272e-20 -5.98599e-19 -0.00273583)
(2.10749e-19 -2.95767e-19 -0.00273652)
(-8.43808e-20 -7.07982e-19 -0.00273652)
(-8.42351e-20 -3.97511e-19 -0.00273583)
(-1.60135e-19 -5.68855e-19 -0.00273445)
(-8.42685e-20 -2.93434e-19 -0.00273238)
(-1.41995e-19 -1.93097e-19 -0.00272962)
(-3.49624e-19 -1.75027e-19 -0.00272618)
(-2.39943e-19 2.25865e-19 -0.00272207)
(-1.29983e-19 2.39671e-19 -0.00271728)
(2.93709e-20 3.45459e-19 -0.00271183)
(2.9647e-21 7.50649e-20 -0.00270573)
(-2.5718e-19 4.12659e-19 -0.00269898)
(1.61567e-19 4.79141e-19 -0.0026916)
(2.02843e-19 4.34259e-19 -0.00268359)
(3.16418e-19 2.92993e-19 -0.00267498)
(-5.27167e-20 5.69711e-20 -0.00266578)
(-1.23777e-19 4.48399e-19 -0.00265601)
(4.47209e-19 7.90542e-19 -0.00264568)
(3.23201e-19 -1.52965e-19 -0.00263482)
(3.80369e-19 2.83212e-19 -0.00262344)
(2.01699e-19 -3.66054e-19 -0.00261158)
(4.17697e-19 -4.87626e-19 -0.00248989)
(1.9318e-19 -4.43388e-19 -0.00250355)
(4.97461e-19 -5.15034e-19 -0.00251692)
(2.3631e-19 -3.85342e-19 -0.00252996)
(3.97288e-19 -9.29002e-19 -0.00254262)
(-1.02792e-19 -3.13771e-19 -0.00255487)
(1.01304e-19 -3.22929e-19 -0.00256667)
(-3.08168e-19 -2.71855e-19 -0.002578)
(-4.69665e-20 -7.38964e-20 -0.00258883)
(-1.59987e-19 1.8744e-19 -0.00259913)
(4.51914e-19 -4.82952e-19 -0.00260889)
(-2.32831e-19 -2.27238e-19 -0.00261807)
(3.21198e-19 -8.11524e-20 -0.00262667)
(1.87824e-19 -2.31926e-19 -0.00263467)
(3.30954e-19 1.6166e-20 -0.00264206)
(2.11927e-19 -5.91919e-19 -0.00264881)
(1.24379e-19 -2.27701e-19 -0.00265491)
(-6.22041e-20 -2.40316e-19 -0.00266037)
(1.63777e-19 5.87083e-20 -0.00266516)
(2.3897e-19 -3.45023e-19 -0.00266928)
(7.01427e-20 -3.61875e-19 -0.00267273)
(1.05271e-20 -4.53549e-19 -0.00267549)
(2.17486e-19 -3.21911e-19 -0.00267757)
(-1.55528e-20 -6.09255e-19 -0.00267895)
(1.90577e-19 -2.95449e-19 -0.00267965)
(-7.9886e-20 -7.10615e-19 -0.00267965)
(-7.52863e-20 -4.01185e-19 -0.00267896)
(-1.8044e-19 -5.74716e-19 -0.00267757)
(-1.62285e-19 -2.8739e-19 -0.0026755)
(-1.05304e-19 -1.95313e-19 -0.00267274)
(-2.94514e-19 -1.83407e-19 -0.0026693)
(-2.36484e-19 2.26027e-19 -0.00266518)
(-1.43455e-19 2.39422e-19 -0.00266039)
(1.40181e-20 3.50957e-19 -0.00265493)
(-1.0833e-20 8.45349e-20 -0.00264883)
(-2.49268e-19 4.13291e-19 -0.00264208)
(1.42887e-19 4.84918e-19 -0.0026347)
(2.11026e-19 4.41533e-19 -0.0026267)
(2.70304e-19 3.26758e-19 -0.0026181)
(-1.84083e-20 4.93045e-20 -0.00260891)
(-1.07855e-19 4.45827e-19 -0.00259915)
(4.56605e-19 7.93108e-19 -0.00258883)
(3.40999e-19 -1.60699e-19 -0.00257799)
(3.81822e-19 3.03787e-19 -0.00256664)
(4.10636e-19 -4.78496e-19 -0.00243257)
(2.28371e-19 -4.09683e-19 -0.00244615)
(5.33805e-19 -4.90642e-19 -0.00245944)
(2.47605e-19 -3.60585e-19 -0.0024724)
(3.83374e-19 -9.47078e-19 -0.002485)
(-1.19637e-19 -3.28787e-19 -0.00249719)
(1.09432e-19 -3.11983e-19 -0.00250894)
(-3.24579e-19 -2.82372e-19 -0.00252022)
(-8.38988e-20 -1.01658e-19 -0.00253101)
(-1.46908e-19 1.96272e-19 -0.00254128)
(4.35068e-19 -5.02437e-19 -0.002551)
(-2.09985e-19 -2.20687e-19 -0.00256016)
(2.75509e-19 -1.08114e-19 -0.00256874)
(1.85336e-19 -2.3352e-19 -0.00257672)
(2.61969e-19 -3.8171e-21 -0.00258408)
(2.15568e-19 -5.98669e-19 -0.00259082)
(1.65107e-19 -2.15181e-19 -0.00259691)
(-7.67356e-20 -2.46166e-19 -0.00260236)
(1.87862e-19 6.29275e-20 -0.00260715)
(1.79118e-19 -3.5386e-19 -0.00261126)
(8.72829e-20 -3.60164e-19 -0.0026147)
(9.38626e-21 -4.6852e-19 -0.00261746)
(2.21489e-19 -3.24519e-19 -0.00261954)
(-3.0559e-20 -6.18881e-19 -0.00262092)
(2.06597e-19 -2.94967e-19 -0.00262162)
(-7.96302e-20 -7.13794e-19 -0.00262162)
(-5.12121e-20 -4.03843e-19 -0.00262093)
(-1.98772e-19 -5.76326e-19 -0.00261954)
(-1.97097e-19 -2.88754e-19 -0.00261747)
(-6.40385e-20 -2.02031e-19 -0.00261471)
(-2.27818e-19 -1.91391e-19 -0.00261128)
(-2.28362e-19 2.27104e-19 -0.00260716)
(-1.34161e-19 2.33899e-19 -0.00260238)
(2.3185e-20 3.49259e-19 -0.00259693)
(2.12576e-20 7.82329e-20 -0.00259084)
(-2.00203e-19 3.99702e-19 -0.0025841)
(1.5725e-19 4.79898e-19 -0.00257674)
(2.05092e-19 4.54432e-19 -0.00256876)
(3.02364e-19 3.23319e-19 -0.00256018)
(3.36218e-21 4.55501e-20 -0.00255102)
(-1.23021e-19 4.58577e-19 -0.00254129)
(4.94011e-19 7.78278e-19 -0.00253101)
(3.28473e-19 -1.51e-19 -0.00252021)
(3.90507e-19 3.18409e-19 -0.00250891)
(4.59761e-19 -4.21085e-19 -0.0023745)
(3.00134e-19 -3.44187e-19 -0.00238797)
(5.45566e-19 -4.82452e-19 -0.00240117)
(2.16172e-19 -3.67075e-19 -0.00241404)
(3.96406e-19 -9.41946e-19 -0.00242655)
(-1.6237e-19 -3.62945e-19 -0.00243866)
(1.35369e-19 -2.91862e-19 -0.00245033)
(-3.05806e-19 -2.67945e-19 -0.00246155)
(-1.28824e-19 -1.35245e-19 -0.00247227)
(-1.02441e-19 2.17353e-19 -0.00248248)
(4.28474e-19 -5.14844e-19 -0.00249216)
(-2.04321e-19 -2.21108e-19 -0.00250127)
(3.01812e-19 -1.05874e-19 -0.00250981)
(1.93312e-19 -2.29826e-19 -0.00251776)
(2.25556e-19 -1.31255e-20 -0.00252509)
(2.40439e-19 -6.00464e-19 -0.0025318)
(1.19165e-19 -2.24251e-19 -0.00253787)
(-1.0311e-19 -2.55106e-19 -0.0025433)
(1.9127e-19 6.27413e-20 -0.00254807)
(1.49405e-19 -3.57923e-19 -0.00255217)
(1.11086e-19 -3.5859e-19 -0.0025556)
(5.07573e-21 -4.8247e-19 -0.00255835)
(2.1106e-19 -3.28071e-19 -0.00256042)
(-7.03541e-21 -6.27268e-19 -0.0025618)
(2.25319e-19 -2.9402e-19 -0.0025625)
(-6.73746e-20 -7.14819e-19 -0.0025625)
(-5.10422e-20 -4.04927e-19 -0.00256181)
(-1.97835e-19 -5.78555e-19 -0.00256043)
(-1.94461e-19 -2.94204e-19 -0.00255836)
(-5.19264e-20 -2.05884e-19 -0.00255561)
(-2.00034e-19 -1.91944e-19 -0.00255219)
(-2.22769e-19 2.30008e-19 -0.00254808)
(-1.11487e-19 2.24205e-19 -0.00254332)
(5.74019e-20 3.38752e-19 -0.00253789)
(5.02437e-20 7.22439e-20 -0.00253182)
(-1.55442e-19 3.88088e-19 -0.00252511)
(1.66459e-19 4.77248e-19 -0.00251778)
(1.81028e-19 4.71473e-19 -0.00250983)
(3.80926e-19 2.9766e-19 -0.00250129)
(-6.43429e-21 6.15835e-20 -0.00249218)
(-1.74682e-19 4.8794e-19 -0.0024825)
(5.25881e-19 7.62495e-19 -0.00247228)
(3.27495e-19 -1.46717e-19 -0.00246154)
(3.76855e-19 3.42851e-19 -0.00245031)
(5.09989e-19 -3.69402e-19 -0.00231574)
(3.20304e-19 -3.20201e-19 -0.00232908)
(5.24606e-19 -4.95461e-19 -0.00234216)
(1.6414e-19 -3.91112e-19 -0.00235491)
(4.2483e-19 -9.24901e-19 -0.00236732)
(-1.85295e-19 -3.84125e-19 -0.00237932)
(1.45466e-19 -2.85477e-19 -0.00239091)
(-3.31999e-19 -2.78718e-19 -0.00240203)
(-1.34741e-19 -1.48619e-19 -0.00241268)
(-8.21577e-20 2.2408e-19 -0.00242282)
(4.30106e-19 -5.20277e-19 -0.00243242)
(-1.98843e-19 -2.24796e-19 -0.00244147)
(3.5203e-19 -9.47154e-20 -0.00244996)
(2.27072e-19 -2.13631e-19 -0.00245785)
(2.297e-19 -9.47898e-21 -0.00246514)
(2.81455e-19 -5.9424e-19 -0.00247181)
(6.8044e-20 -2.3316e-19 -0.00247785)
(-9.90497e-20 -2.60179e-19 -0.00248325)
(2.03335e-19 6.30277e-20 -0.00248799)
(1.47705e-19 -3.57812e-19 -0.00249207)
(1.27999e-19 -3.57446e-19 -0.00249549)
(4.07941e-21 -4.93622e-19 -0.00249822)
(1.96181e-19 -3.33272e-19 -0.00250028)
(4.03412e-20 -6.34135e-19 -0.00250166)
(2.05483e-19 -2.92524e-19 -0.00250234)
(-2.89268e-20 -7.15163e-19 -0.00250235)
(-5.93086e-20 -4.04227e-19 -0.00250166)
(-2.08328e-19 -5.79361e-19 -0.00250029)
(-1.98925e-19 -2.98712e-19 -0.00249823)
(-5.05224e-20 -2.07202e-19 -0.0024955)
(-1.9891e-19 -1.87243e-19 -0.00249209)
(-2.08094e-19 2.29745e-19 -0.00248801)
(-1.23599e-19 2.21139e-19 -0.00248327)
(7.49312e-20 3.33082e-19 -0.00247787)
(6.9513e-20 6.89642e-20 -0.00247183)
(-1.1489e-19 3.77665e-19 -0.00246516)
(1.4339e-19 4.89007e-19 -0.00245787)
(1.38984e-19 4.91703e-19 -0.00244998)
(4.2339e-19 2.86394e-19 -0.0024415)
(-5.66507e-20 1.01555e-19 -0.00243244)
(-2.02841e-19 5.01545e-19 -0.00242283)
(5.37652e-19 7.5292e-19 -0.00241268)
(3.32777e-19 -1.45613e-19 -0.00240202)
(3.50277e-19 3.71646e-19 -0.00239088)
(5.30154e-19 -3.4712e-19 -0.00225632)
(2.94571e-19 -3.34711e-19 -0.00226952)
(5.07804e-19 -5.03208e-19 -0.00228245)
(1.40938e-19 -3.95148e-19 -0.00229508)
(4.68102e-19 -8.975e-19 -0.00230735)
(-1.76505e-19 -3.82426e-19 -0.00231924)
(1.07223e-19 -3.07149e-19 -0.00233071)
(-3.52026e-19 -2.86821e-19 -0.00234173)
(-1.19921e-19 -1.53681e-19 -0.00235228)
(-1.01196e-19 2.08661e-19 -0.00236232)
(4.43533e-19 -5.19802e-19 -0.00237184)
(-1.88898e-19 -2.2658e-19 -0.00238082)
(3.58337e-19 -1.03879e-19 -0.00238923)
(2.4818e-19 -2.01843e-19 -0.00239706)
(2.45036e-19 -1.63064e-21 -0.00240429)
(2.92915e-19 -5.95597e-19 -0.00241091)
(6.03871e-20 -2.29931e-19 -0.00241691)
(-4.79275e-20 -2.55553e-19 -0.00242226)
(2.15216e-19 6.2991e-20 -0.00242697)
(1.54354e-19 -3.55548e-19 -0.00243103)
(1.06989e-19 -3.61288e-19 -0.00243441)
(6.14377e-22 -5.03882e-19 -0.00243713)
(2.10787e-19 -3.37116e-19 -0.00243918)
(5.33335e-20 -6.41001e-19 -0.00244054)
(1.89641e-19 -2.90728e-19 -0.00244122)
(-1.30553e-21 -7.14888e-19 -0.00244123)
(-6.24474e-20 -4.00975e-19 -0.00244054)
(-2.41189e-19 -5.77502e-19 -0.00243918)
(-2.11275e-19 -3.02292e-19 -0.00243714)
(-6.66618e-20 -2.06261e-19 -0.00243442)
(-2.13771e-19 -1.80166e-19 -0.00243104)
(-2.15014e-19 2.35706e-19 -0.00242699)
(-1.63229e-19 2.25414e-19 -0.00242228)
(7.5008e-20 3.28594e-19 -0.00241693)
(8.50565e-20 6.55733e-20 -0.00241093)
(-8.87398e-20 3.74454e-19 -0.00240432)
(1.50107e-19 4.9105e-19 -0.00239708)
(1.19539e-19 4.99688e-19 -0.00238925)
(4.21958e-19 2.94474e-19 -0.00238084)
(-1.21247e-19 1.48914e-19 -0.00237186)
(-1.77494e-19 4.83542e-19 -0.00236233)
(5.48497e-19 7.41245e-19 -0.00235228)
(3.29999e-19 -1.38554e-19 -0.00234172)
(3.57123e-19 3.79257e-19 -0.00233068)
(5.42763e-19 -3.30518e-19 -0.0021963)
(2.80574e-19 -3.37856e-19 -0.00220933)
(4.86997e-19 -5.15806e-19 -0.00222211)
(1.59065e-19 -3.69337e-19 -0.00223457)
(5.19917e-19 -8.63317e-19 -0.0022467)
(-1.33806e-19 -3.5309e-19 -0.00225845)
(5.52388e-20 -3.38538e-19 -0.00226979)
(-3.02846e-19 -2.56823e-19 -0.00228069)
(-7.87042e-20 -1.42557e-19 -0.00229112)
(-1.26226e-19 1.89096e-19 -0.00230105)
(4.37805e-19 -5.28976e-19 -0.00231048)
(-1.63224e-19 -2.2099e-19 -0.00231936)
(3.59391e-19 -1.14998e-19 -0.00232769)
(1.98789e-19 -2.17375e-19 -0.00233544)
(2.63347e-19 7.29594e-21 -0.0023426)
(2.65232e-19 -6.07866e-19 -0.00234916)
(3.3181e-20 -2.35167e-19 -0.0023551)
(8.14694e-22 -2.51917e-19 -0.0023604)
(2.12359e-19 6.06555e-20 -0.00236507)
(1.61141e-19 -3.51691e-19 -0.00236908)
(8.25622e-20 -3.64328e-19 -0.00237244)
(1.05262e-21 -5.15403e-19 -0.00237514)
(2.19672e-19 -3.40704e-19 -0.00237716)
(5.19043e-20 -6.46659e-19 -0.00237852)
(1.7564e-19 -2.89396e-19 -0.00237919)
(-1.60871e-21 -7.13216e-19 -0.00237919)
(-6.15007e-20 -3.95594e-19 -0.00237852)
(-2.28131e-19 -5.77732e-19 -0.00237717)
(-1.98426e-19 -3.08564e-19 -0.00237515)
(-7.05341e-20 -2.05444e-19 -0.00237245)
(-2.32229e-19 -1.71236e-19 -0.0023691)
(-2.23102e-19 2.41206e-19 -0.00236508)
(-1.42253e-19 2.1355e-19 -0.00236042)
(8.96591e-20 3.19453e-19 -0.00235511)
(6.99595e-20 7.10554e-20 -0.00234918)
(-9.22053e-20 3.78686e-19 -0.00234262)
(1.8078e-19 4.8407e-19 -0.00233546)
(1.12816e-19 5.03302e-19 -0.00232771)
(3.84236e-19 3.20598e-19 -0.00231938)
(-1.76319e-19 1.89128e-19 -0.00231049)
(-1.27786e-19 4.48408e-19 -0.00230107)
(5.29451e-19 7.4645e-19 -0.00229112)
(2.95228e-19 -1.13915e-19 -0.00228068)
(3.96983e-19 3.64267e-19 -0.00226976)
(5.52379e-19 -3.183e-19 -0.00213572)
(2.99402e-19 -3.10133e-19 -0.00214857)
(4.53005e-19 -5.40019e-19 -0.00216116)
(2.05006e-19 -3.25435e-19 -0.00217345)
(5.64839e-19 -8.33993e-19 -0.00218542)
(-8.44479e-20 -3.15754e-19 -0.00219701)
(4.82842e-20 -3.41639e-19 -0.0022082)
(-2.57297e-19 -2.3287e-19 -0.00221895)
(-2.23298e-20 -1.20606e-19 -0.00222925)
(-1.77534e-19 1.5745e-19 -0.00223907)
(4.28796e-19 -5.41305e-19 -0.00224837)
(-1.27452e-19 -2.12038e-19 -0.00225715)
(3.5692e-19 -1.23711e-19 -0.00226538)
(1.70157e-19 -2.25886e-19 -0.00227304)
(2.89049e-19 1.72491e-20 -0.00228012)
(2.28925e-19 -6.19491e-19 -0.0022866)
(1.70513e-20 -2.39252e-19 -0.00229247)
(1.31377e-21 -2.61096e-19 -0.00229772)
(1.99577e-19 5.64097e-20 -0.00230233)
(1.65045e-19 -3.48398e-19 -0.00230631)
(7.61595e-20 -3.64854e-19 -0.00230963)
(1.37088e-20 -5.24463e-19 -0.00231229)
(1.92061e-19 -3.46955e-19 -0.0023143)
(6.64327e-20 -6.50355e-19 -0.00231564)
(1.48791e-19 -2.87243e-19 -0.00231631)
(-1.27132e-20 -7.11141e-19 -0.00231631)
(-6.72733e-20 -3.91369e-19 -0.00231564)
(-1.75788e-19 -5.81252e-19 -0.0023143)
(-1.7933e-19 -3.1338e-19 -0.0023123)
(-4.75897e-20 -2.06839e-19 -0.00230964)
(-2.19102e-19 -1.6755e-19 -0.00230632)
(-2.08125e-19 2.39961e-19 -0.00230235)
(-9.84977e-20 1.96221e-19 -0.00229774)
(9.71867e-20 3.14148e-19 -0.00229249)
(8.84219e-20 6.77546e-20 -0.00228662)
(-1.43992e-19 3.97681e-19 -0.00228014)
(1.64968e-19 4.93333e-19 -0.00227306)
(1.03335e-19 5.09399e-19 -0.0022654)
(3.44534e-19 3.47717e-19 -0.00225717)
(-1.65307e-19 1.93109e-19 -0.00224839)
(-6.08492e-20 4.03981e-19 -0.00223908)
(4.77342e-19 7.71716e-19 -0.00222926)
(2.62768e-19 -9.40021e-20 -0.00221894)
(4.04635e-19 3.67894e-19 -0.00220817)
(5.56183e-19 -3.13901e-19 -0.00207462)
(3.20666e-19 -2.783e-19 -0.00208726)
(4.28411e-19 -5.56883e-19 -0.00209965)
(2.58053e-19 -2.79608e-19 -0.00211176)
(6.08115e-19 -8.03515e-19 -0.00212354)
(-4.02592e-20 -2.81261e-19 -0.00213496)
(7.48559e-20 -3.22796e-19 -0.00214598)
(-2.39669e-19 -2.27233e-19 -0.00215658)
(-5.59029e-21 -1.17917e-19 -0.00216673)
(-2.26555e-19 1.28147e-19 -0.0021764)
(4.15406e-19 -5.58823e-19 -0.00218558)
(-1.13929e-19 -2.12245e-19 -0.00219424)