/*--------------------------------*- C++ -*----------------------------------*\
  =========                 |
  \\      /  F ield         | OpenFOAM: The Open Source CFD Toolbox
   \\    /   O peration     | Website:  https://openfoam.org
    \\  /    A nd           | Version:  7
     \\/     M anipulation  |
\*---------------------------------------------------------------------------*/
FoamFile
{
    version     2.0;
    format      ascii;
    class       volScalarField;
    location    "132000";
    object      omega;
}
// * * * * * * * * * * * * * * * * * * * * * * * * * * * * * * * * * * * * * //

dimensions      [0 0 -1 0 0 0 0];

internalField   nonuniform List<scalar> 
4764
(
0.0967881
0.096388
0.0960275
0.0957067
0.0954258
0.0951849
0.104266
0.103507
0.102785
0.102101
0.101454
0.100847
0.100279
0.09975
0.099261
0.098812
0.0984033
0.0980351
0.0977075
0.0974206
0.0971745
0.0969693
0.0968051
0.0966819
0.0965998
0.0965587
0.0965587
0.0965998
0.096682
0.0968051
0.0969693
0.0971745
0.0974206
0.0977074
0.0980351
0.106466
0.10569
0.104952
0.104253
0.103592
0.102972
0.102391
0.101851
0.101351
0.100892
0.100475
0.100099
0.099764
0.0994709
0.0992196
0.09901
0.0988423
0.0987164
0.0986325
0.0985906
0.0985906
0.0986325
0.0987164
0.0988423
0.09901
0.0992196
0.0994709
0.099764
0.100099
0.100475
0.100892
0.101351
0.101851
0.108729
0.107935
0.107181
0.106466
0.105791
0.105156
0.104563
0.104011
0.1035
0.103032
0.102605
0.102221
0.101879
0.101579
0.101322
0.101108
0.100937
0.100808
0.100723
0.10068
0.10068
0.100723
0.100808
0.100937
0.101108
0.101322
0.101579
0.101879
0.102221
0.102605
0.103032
0.1035
0.104011
0.104563
0.105156
0.105791
0.106466
0.107181
0.107935
0.108729
0.10956
0.110429
0.111335
0.112277
0.113255
0.111057
0.110246
0.109474
0.108743
0.108053
0.107404
0.106797
0.106233
0.105711
0.105232
0.104796
0.104403
0.104054
0.103748
0.103485
0.103266
0.103091
0.10296
0.102872
0.102828
0.102828
0.102872
0.10296
0.103091
0.103266
0.103485
0.103748
0.104054
0.104403
0.104796
0.105232
0.105711
0.106233
0.106797
0.107404
0.108053
0.108743
0.109474
0.110246
0.111057
0.111908
0.112798
0.113724
0.114688
0.11569
0.113455
0.112625
0.111835
0.111087
0.110381
0.109717
0.109097
0.10852
0.107986
0.107496
0.10705
0.106649
0.106292
0.105979
0.10571
0.105487
0.105308
0.105173
0.105084
0.105039
0.105039
0.105084
0.105173
0.105308
0.105487
0.10571
0.105979
0.106292
0.106649
0.10705
0.107496
0.107986
0.10852
0.109097
0.109717
0.110381
0.111087
0.111835
0.112625
0.113455
0.114326
0.115236
0.116185
0.117171
0.118196
0.115925
0.115075
0.114267
0.113501
0.112778
0.1121
0.111465
0.110874
0.110328
0.109827
0.109371
0.108961
0.108595
0.108275
0.108001
0.107772
0.107589
0.107452
0.10736
0.107315
0.107315
0.10736
0.107452
0.107589
0.107772
0.108001
0.108275
0.108595
0.108961
0.109371
0.109827
0.110328
0.110874
0.111465
0.1121
0.112778
0.113501
0.114267
0.115075
0.115925
0.116816
0.117747
0.118718
0.119728
0.120777
0.118469
0.117599
0.116772
0.115988
0.115249
0.114554
0.113904
0.1133
0.112741
0.112229
0.111762
0.111342
0.110968
0.11064
0.11036
0.110126
0.109939
0.109798
0.109705
0.109658
0.109658
0.109705
0.109798
0.109939
0.110126
0.11036
0.11064
0.110968
0.111342
0.111762
0.112228
0.112741
0.1133
0.113904
0.114554
0.115249
0.115988
0.116772
0.117599
0.118469
0.119381
0.120334
0.121328
0.122362
0.123435
0.121091
0.1202
0.119354
0.118551
0.117795
0.117083
0.116418
0.1158
0.115228
0.114703
0.114225
0.113795
0.113413
0.113078
0.11279
0.112551
0.112359
0.112216
0.11212
0.112072
0.112072
0.11212
0.112216
0.112359
0.112551
0.11279
0.113078
0.113413
0.113795
0.114225
0.114703
0.115228
0.1158
0.116418
0.117083
0.117795
0.118551
0.119354
0.1202
0.121091
0.122024
0.123
0.124017
0.125075
0.126174
0.123793
0.122882
0.122015
0.121194
0.120419
0.119691
0.11901
0.118377
0.117791
0.117254
0.116765
0.116325
0.115933
0.11559
0.115296
0.115051
0.114855
0.114708
0.11461
0.114561
0.114561
0.11461
0.114708
0.114855
0.115051
0.115296
0.11559
0.115933
0.116325
0.116765
0.117254
0.117791
0.118377
0.11901
0.119691
0.120419
0.121194
0.122015
0.122882
0.123793
0.124749
0.125748
0.126789
0.127872
0.128997
0.12658
0.125646
0.124759
0.123918
0.123125
0.122379
0.121682
0.121034
0.120435
0.119885
0.119384
0.118933
0.118532
0.118181
0.11788
0.117629
0.117428
0.117278
0.117177
0.117127
0.117127
0.117177
0.117278
0.117428
0.117629
0.11788
0.118181
0.118532
0.118933
0.119384
0.119885
0.120435
0.121034
0.121682
0.122379
0.123125
0.123918
0.124759
0.125646
0.12658
0.127558
0.128581
0.129647
0.130756
0.131908
0.129453
0.128498
0.127589
0.126728
0.125916
0.125153
0.124439
0.123775
0.123161
0.122598
0.122086
0.121624
0.121213
0.120854
0.120545
0.120288
0.120083
0.119929
0.119826
0.119774
0.119774
0.119826
0.119929
0.120083
0.120288
0.120545
0.120854
0.121213
0.121624
0.122085
0.122598
0.123161
0.123775
0.124439
0.125153
0.125916
0.126728
0.127589
0.128498
0.129453
0.130455
0.131503
0.132595
0.13373
0.13491
0.132418
0.131439
0.130509
0.129627
0.128795
0.128014
0.127283
0.126603
0.125975
0.125398
0.124873
0.1244
0.123979
0.123611
0.123296
0.123032
0.122822
0.122664
0.122559
0.122506
0.122506
0.122559
0.122664
0.122822
0.123032
0.123296
0.123611
0.123979
0.1244
0.124873
0.125398
0.125974
0.126603
0.127283
0.128014
0.128795
0.129627
0.130509
0.131439
0.132418
0.133445
0.134517
0.135636
0.136799
0.138007
0.13653
0.135478
0.134475
0.133522
0.132619
0.131767
0.130967
0.130218
0.129522
0.128878
0.128287
0.12775
0.127265
0.126835
0.126458
0.126134
0.125865
0.125649
0.125487
0.125379
0.125325
0.125325
0.125379
0.125487
0.125649
0.125865
0.126134
0.126458
0.126835
0.127265
0.12775
0.128287
0.128878
0.129522
0.130218
0.130967
0.131767
0.132619
0.133522
0.134475
0.135478
0.13653
0.137629
0.138774
0.139966
0.141204
0.139715
0.138638
0.13761
0.136634
0.135708
0.134836
0.134016
0.133249
0.132535
0.131876
0.131271
0.13072
0.130224
0.129783
0.129396
0.129065
0.128789
0.128568
0.128402
0.128292
0.128237
0.128237
0.128292
0.128402
0.128568
0.128789
0.129065
0.129396
0.129783
0.130224
0.13072
0.131271
0.131876
0.132535
0.133249
0.134016
0.134836
0.135709
0.136634
0.13761
0.138638
0.139715
0.140841
0.142015
0.143236
0.144504
0.143005
0.141901
0.140848
0.139847
0.138899
0.138005
0.137164
0.136379
0.135648
0.134972
0.134352
0.133788
0.133279
0.132827
0.132431
0.132092
0.131809
0.131583
0.131413
0.1313
0.131243
0.131243
0.1313
0.131413
0.131583
0.131809
0.132092
0.132431
0.132827
0.133279
0.133788
0.134352
0.134972
0.135648
0.136379
0.137164
0.138005
0.138899
0.139847
0.140848
0.141901
0.143005
0.144159
0.145362
0.146613
0.147914
0.147587
0.146404
0.145273
0.144193
0.143168
0.142196
0.141279
0.140418
0.139613
0.138864
0.138171
0.137536
0.136957
0.136436
0.135973
0.135567
0.13522
0.13493
0.134698
0.134524
0.134408
0.13435
0.13435
0.134408
0.134524
0.134698
0.13493
0.13522
0.135567
0.135973
0.136436
0.136957
0.137536
0.138171
0.138864
0.139613
0.140418
0.141279
0.142196
0.143168
0.144193
0.145273
0.146404
0.147587
0.14882
0.150104
0.151437
0.151131
0.149918
0.148758
0.147652
0.1466
0.145604
0.144664
0.143781
0.142956
0.142188
0.141478
0.140826
0.140234
0.1397
0.139225
0.138809
0.138452
0.138155
0.137918
0.137739
0.13762
0.137561
0.137561
0.13762
0.137739
0.137918
0.138155
0.138452
0.138809
0.139225
0.1397
0.140234
0.140826
0.141478
0.142188
0.142956
0.143781
0.144664
0.145604
0.1466
0.147652
0.148758
0.149918
0.151131
0.152396
0.153712
0.155079
0.156094
0.154797
0.153553
0.152363
0.151228
0.15015
0.149128
0.148165
0.147259
0.146413
0.145625
0.144897
0.144229
0.143622
0.143074
0.142587
0.142161
0.141795
0.141491
0.141247
0.141064
0.140942
0.140881
0.140881
0.140942
0.141064
0.141247
0.141491
0.141795
0.142161
0.142587
0.143074
0.143622
0.144229
0.144897
0.145625
0.146413
0.147259
0.148165
0.149128
0.15015
0.151228
0.152363
0.153553
0.154797
0.156094
0.157444
0.158847
0.15992
0.158589
0.157313
0.156092
0.154928
0.153822
0.152774
0.151786
0.150857
0.149989
0.149182
0.148435
0.14775
0.147127
0.146565
0.146066
0.145628
0.145254
0.144941
0.144691
0.144504
0.144379
0.144316
0.144316
0.144379
0.144504
0.144691
0.144941
0.145254
0.145628
0.146066
0.146565
0.147127
0.14775
0.148435
0.149182
0.149989
0.150857
0.151786
0.152774
0.153822
0.154928
0.156092
0.157313
0.15859
0.15992
0.161305
0.162745
0.163881
0.162516
0.161206
0.159953
0.158759
0.157624
0.156549
0.155535
0.154582
0.153691
0.152863
0.152097
0.151394
0.150754
0.150178
0.149666
0.149217
0.148833
0.148512
0.148256
0.148064
0.147935
0.147871
0.147871
0.147935
0.148064
0.148256
0.148512
0.148833
0.149217
0.149666
0.150178
0.150754
0.151394
0.152097
0.152863
0.153691
0.154582
0.155535
0.156549
0.157624
0.158759
0.159953
0.161206
0.162516
0.163881
0.165303
0.166781
0.167984
0.166582
0.165237
0.163952
0.162726
0.161561
0.160457
0.159417
0.158439
0.157525
0.156674
0.155888
0.155167
0.154511
0.15392
0.153394
0.152934
0.152539
0.15221
0.151947
0.15175
0.151618
0.151552
0.151552
0.151618
0.15175
0.151947
0.15221
0.152539
0.152934
0.153394
0.15392
0.154511
0.155167
0.155888
0.156674
0.157525
0.158439
0.159417
0.160457
0.161561
0.162726
0.163952
0.165238
0.166582
0.167984
0.169443
0.170961
0.172235
0.170796
0.169415
0.168095
0.166836
0.16564
0.164507
0.163439
0.162435
0.161497
0.160624
0.159817
0.159076
0.158403
0.157796
0.157256
0.156784
0.156379
0.156041
0.155771
0.155569
0.155433
0.155366
0.155366
0.155433
0.155569
0.155771
0.156041
0.156379
0.156784
0.157256
0.157796
0.158403
0.159076
0.159817
0.160624
0.161497
0.162435
0.163439
0.164507
0.16564
0.166836
0.168095
0.169415
0.170796
0.172235
0.173734
0.175293
0.178182
0.176643
0.175164
0.173746
0.17239
0.171097
0.169869
0.168706
0.167608
0.166578
0.165614
0.164718
0.163889
0.163129
0.162437
0.161814
0.16126
0.160775
0.160359
0.160012
0.159735
0.159527
0.159388
0.159319
0.159319
0.159388
0.159527
0.159735
0.160012
0.160359
0.160775
0.16126
0.161814
0.162437
0.163129
0.163889
0.164718
0.165614
0.166578
0.167608
0.168706
0.169869
0.171097
0.17239
0.173746
0.175164
0.176643
0.178182
0.179784
0.184444
0.182797
0.181215
0.179696
0.178239
0.176845
0.175517
0.174255
0.17306
0.171933
0.170874
0.169884
0.168964
0.168112
0.167332
0.166621
0.165981
0.165412
0.164914
0.164486
0.16413
0.163845
0.163632
0.163489
0.163418
0.163418
0.163489
0.163632
0.163845
0.16413
0.164486
0.164914
0.165412
0.165981
0.166621
0.167331
0.168112
0.168964
0.169884
0.170874
0.171933
0.17306
0.174255
0.175517
0.176846
0.178239
0.179696
0.181215
0.182797
0.184444
0.18928
0.187587
0.185961
0.184399
0.182901
0.18147
0.180105
0.178808
0.17758
0.176421
0.175333
0.174316
0.17337
0.172495
0.171693
0.170963
0.170305
0.16972
0.169208
0.168769
0.168404
0.168111
0.167891
0.167745
0.167672
0.167672
0.167745
0.167891
0.168111
0.168404
0.168769
0.169208
0.16972
0.170305
0.170963
0.171693
0.172495
0.17337
0.174316
0.175333
0.176421
0.17758
0.178808
0.180105
0.18147
0.182901
0.184399
0.185961
0.187587
0.18928
0.194302
0.192561
0.190889
0.189283
0.187743
0.186271
0.184868
0.183535
0.182272
0.181081
0.179963
0.178917
0.177945
0.177046
0.176221
0.17547
0.174794
0.174193
0.173667
0.173216
0.17284
0.172539
0.172314
0.172163
0.172088
0.172088
0.172163
0.172314
0.172539
0.17284
0.173216
0.173667
0.174193
0.174794
0.17547
0.176221
0.177046
0.177945
0.178917
0.179963
0.181081
0.182272
0.183535
0.184868
0.186271
0.187743
0.189283
0.190889
0.192561
0.194302
0.199522
0.19773
0.19601
0.194358
0.192774
0.19126
0.189817
0.188446
0.187148
0.185923
0.184773
0.183698
0.182698
0.181773
0.180925
0.180153
0.179458
0.17884
0.178299
0.177836
0.177449
0.17714
0.176908
0.176753
0.176675
0.176675
0.176753
0.176908
0.17714
0.177449
0.177836
0.178299
0.17884
0.179458
0.180153
0.180925
0.181773
0.182698
0.183698
0.184773
0.185923
0.187148
0.188446
0.189817
0.19126
0.192775
0.194358
0.19601
0.19773
0.199522
0.204948
0.203104
0.201334
0.199635
0.198005
0.196448
0.194963
0.193552
0.192216
0.190957
0.189774
0.188667
0.187639
0.186688
0.185815
0.185021
0.184307
0.183671
0.183114
0.182637
0.18224
0.181921
0.181683
0.181524
0.181444
0.181444
0.181524
0.181683
0.181921
0.18224
0.182637
0.183114
0.183671
0.184307
0.185021
0.185815
0.186688
0.187639
0.188667
0.189774
0.190957
0.192217
0.193552
0.194963
0.196448
0.198005
0.199635
0.201334
0.203105
0.204948
0.210594
0.208696
0.206874
0.205124
0.203447
0.201844
0.200316
0.198864
0.197489
0.196193
0.194975
0.193837
0.192778
0.1918
0.190902
0.190085
0.189349
0.188695
0.188123
0.187632
0.187222
0.186895
0.186649
0.186486
0.186404
0.186404
0.186486
0.186649
0.186895
0.187222
0.187632
0.188123
0.188695
0.189349
0.190085
0.190902
0.1918
0.192778
0.193837
0.194975
0.196193
0.197489
0.198864
0.200316
0.201844
0.203447
0.205124
0.206874
0.208696
0.210594
0.216472
0.214517
0.21264
0.210838
0.209112
0.207461
0.205888
0.204393
0.202978
0.201643
0.200389
0.199218
0.198128
0.19712
0.196196
0.195355
0.194598
0.193924
0.193335
0.19283
0.192408
0.192071
0.191819
0.19165
0.191566
0.191566
0.19165
0.191819
0.192071
0.192408
0.19283
0.193335
0.193924
0.194598
0.195355
0.196196
0.19712
0.198128
0.199218
0.200389
0.201643
0.202978
0.204393
0.205888
0.207461
0.209112
0.210838
0.21264
0.214517
0.216472
0.222595
0.22058
0.218647
0.216791
0.215012
0.213312
0.211692
0.210152
0.208695
0.20732
0.206029
0.204822
0.203699
0.202662
0.20171
0.200844
0.200064
0.199371
0.198764
0.198243
0.197809
0.197462
0.197202
0.197029
0.196942
0.196942
0.197029
0.197202
0.197462
0.197809
0.198243
0.198764
0.199371
0.200064
0.200844
0.20171
0.202662
0.203699
0.204822
0.206029
0.20732
0.208695
0.210152
0.211692
0.213312
0.215012
0.216791
0.218647
0.22058
0.222595
0.228978
0.226901
0.224908
0.222996
0.221163
0.219411
0.217741
0.216155
0.214653
0.213237
0.211907
0.210663
0.209507
0.208438
0.207457
0.206565
0.205761
0.205047
0.204421
0.203885
0.203438
0.203081
0.202813
0.202634
0.202544
0.202544
0.202634
0.202813
0.203081
0.203438
0.203885
0.204421
0.205047
0.205761
0.206565
0.207457
0.208438
0.209507
0.210663
0.211907
0.213237
0.214653
0.216155
0.217741
0.219411
0.221163
0.222996
0.224908
0.226901
0.228978
0.235636
0.233494
0.23144
0.229468
0.227579
0.225773
0.224051
0.222416
0.220868
0.219408
0.218037
0.216755
0.215563
0.214461
0.213451
0.212531
0.211703
0.210966
0.210322
0.209769
0.209309
0.20894
0.208664
0.208479
0.208387
0.208387
0.208479
0.208664
0.20894
0.209309
0.209769
0.210322
0.210966
0.211703
0.212531
0.213451
0.214461
0.215563
0.216755
0.218037
0.219408
0.220868
0.222416
0.224051
0.225773
0.227579
0.229468
0.23144
0.233494
0.235636
0.242587
0.240377
0.238258
0.236224
0.234276
0.232413
0.230638
0.228952
0.227355
0.22585
0.224436
0.223114
0.221885
0.220749
0.219706
0.218758
0.217904
0.217144
0.21648
0.21591
0.215435
0.215055
0.21477
0.21458
0.214485
0.214485
0.21458
0.21477
0.215055
0.215435
0.21591
0.21648
0.217144
0.217904
0.218758
0.219706
0.220749
0.221885
0.223114
0.224436
0.22585
0.227355
0.228952
0.230638
0.232413
0.234276
0.236224
0.238258
0.240377
0.242587
0.249848
0.247566
0.24538
0.243282
0.241271
0.23935
0.237518
0.235778
0.234131
0.232578
0.231119
0.229756
0.228487
0.227315
0.22624
0.225262
0.224381
0.223597
0.222912
0.222324
0.221834
0.221442
0.221148
0.220952
0.220854
0.220854
0.220952
0.221148
0.221442
0.221834
0.222324
0.222912
0.223597
0.224381
0.225262
0.22624
0.227315
0.228487
0.229756
0.231119
0.232578
0.234131
0.235778
0.237518
0.23935
0.241271
0.243282
0.24538
0.247566
0.249848
0.257438
0.255083
0.252826
0.25066
0.248584
0.246601
0.24471
0.242915
0.241215
0.239611
0.238106
0.236698
0.235389
0.234179
0.23307
0.23206
0.231151
0.230342
0.229634
0.229028
0.228522
0.228117
0.227814
0.227612
0.227511
0.227511
0.227612
0.227814
0.228117
0.228522
0.229028
0.229634
0.230342
0.231151
0.23206
0.23307
0.234179
0.235389
0.236698
0.238106
0.239611
0.241215
0.242915
0.244711
0.246601
0.248584
0.25066
0.252826
0.255083
0.257438
0.26538
0.262946
0.260615
0.258379
0.256236
0.254187
0.252235
0.250381
0.248625
0.246969
0.245415
0.243961
0.242609
0.24136
0.240214
0.239171
0.238233
0.237398
0.236667
0.23604
0.235518
0.235101
0.234787
0.234578
0.234474
0.234474
0.234578
0.234787
0.235101
0.235518
0.23604
0.236667
0.237398
0.238233
0.239171
0.240214
0.24136
0.242609
0.243961
0.245415
0.246969
0.248625
0.250381
0.252235
0.254187
0.256236
0.258379
0.260615
0.262946
0.26538
0.273695
0.27118
0.268772
0.266461
0.264247
0.26213
0.260113
0.258198
0.256384
0.254673
0.253067
0.251565
0.250169
0.248878
0.247694
0.246617
0.245647
0.244784
0.24403
0.243382
0.242843
0.242411
0.242088
0.241872
0.241764
0.241764
0.241872
0.242088
0.242411
0.242843
0.243382
0.24403
0.244785
0.245647
0.246617
0.247694
0.248878
0.250169
0.251565
0.253067
0.254673
0.256384
0.258198
0.260113
0.26213
0.264247
0.266461
0.268772
0.27118
0.273695
0.282409
0.279809
0.277319
0.27493
0.272642
0.270454
0.268369
0.266389
0.264514
0.262746
0.261086
0.259533
0.25809
0.256756
0.255532
0.254419
0.253416
0.252525
0.251744
0.251075
0.250518
0.250072
0.249737
0.249514
0.249403
0.249403
0.249514
0.249737
0.250072
0.250518
0.251075
0.251744
0.252525
0.253416
0.254419
0.255532
0.256756
0.25809
0.259533
0.261086
0.262746
0.264514
0.266389
0.268369
0.270454
0.272642
0.274931
0.277319
0.279809
0.282409
0.291549
0.288859
0.286284
0.283814
0.281447
0.279184
0.277028
0.27498
0.273041
0.271213
0.269496
0.26789
0.266398
0.265018
0.263752
0.262601
0.261564
0.260642
0.259835
0.259143
0.258567
0.258106
0.25776
0.257529
0.257414
0.257414
0.257529
0.25776
0.258106
0.258567
0.259143
0.259835
0.260642
0.261564
0.262601
0.263752
0.265018
0.266398
0.26789
0.269496
0.271213
0.273041
0.27498
0.277028
0.279184
0.281447
0.283814
0.286284
0.288859
0.291549
0.301144
0.29836
0.295695
0.293139
0.29069
0.288349
0.286118
0.283999
0.281993
0.280101
0.278324
0.276663
0.275118
0.273691
0.272381
0.27119
0.270117
0.269163
0.268328
0.267612
0.267016
0.266538
0.26618
0.265942
0.265822
0.265822
0.265942
0.26618
0.266538
0.267016
0.267612
0.268328
0.269163
0.270117
0.27119
0.272381
0.273691
0.275118
0.276663
0.278324
0.280101
0.281993
0.283999
0.286118
0.288349
0.29069
0.293139
0.295695
0.29836
0.301144
0.311225
0.308342
0.305584
0.302937
0.300402
0.297978
0.295669
0.293475
0.291398
0.289439
0.2876
0.28588
0.284281
0.282803
0.281447
0.280214
0.279103
0.278116
0.277251
0.27651
0.275893
0.275399
0.275028
0.274781
0.274657
0.274657
0.274781
0.275028
0.275399
0.275893
0.27651
0.277251
0.278116
0.279103
0.280214
0.281447
0.282803
0.284281
0.28588
0.2876
0.289439
0.291398
0.293475
0.295669
0.297978
0.300402
0.302937
0.305584
0.308342
0.311225
0.321828
0.318841
0.315984
0.313243
0.310616
0.308106
0.305714
0.303441
0.30129
0.299261
0.297355
0.295574
0.293918
0.292387
0.290982
0.289704
0.288554
0.287531
0.286636
0.285868
0.285229
0.284717
0.284333
0.284077
0.283949
0.283949
0.284077
0.284333
0.284717
0.285229
0.285868
0.286636
0.287531
0.288554
0.289704
0.290982
0.292387
0.293917
0.295574
0.297355
0.299261
0.30129
0.303441
0.305714
0.308106
0.310616
0.313243
0.315984
0.318841
0.321828
0.33299
0.329894
0.326932
0.324092
0.32137
0.318768
0.316289
0.313934
0.311704
0.309601
0.307626
0.305779
0.304063
0.302476
0.30102
0.299696
0.298504
0.297443
0.296516
0.29572
0.295057
0.294526
0.294129
0.293863
0.293731
0.293731
0.293863
0.294129
0.294526
0.295057
0.29572
0.296516
0.297443
0.298504
0.299696
0.30102
0.302476
0.304063
0.305779
0.307626
0.309601
0.311704
0.313934
0.316289
0.318768
0.32137
0.324092
0.326932
0.329894
0.33299
0.344753
0.341541
0.33847
0.335525
0.332702
0.330005
0.327434
0.324991
0.322679
0.320498
0.318449
0.316535
0.314754
0.313109
0.311599
0.310226
0.308989
0.30789
0.306927
0.306102
0.305415
0.304864
0.304452
0.304177
0.304039
0.304039
0.304177
0.304452
0.304864
0.305415
0.306102
0.306927
0.30789
0.308989
0.310226
0.311599
0.313108
0.314754
0.316535
0.318449
0.320498
0.322679
0.324991
0.327434
0.330005
0.332702
0.335525
0.338471
0.341541
0.344753
0.357162
0.353829
0.350643
0.347587
0.344658
0.341859
0.339191
0.336657
0.334257
0.331994
0.329868
0.327881
0.326033
0.324326
0.322759
0.321334
0.320051
0.31891
0.317912
0.317055
0.316342
0.315771
0.315343
0.315057
0.314914
0.314914
0.315057
0.315343
0.315771
0.316342
0.317055
0.317912
0.31891
0.320051
0.321334
0.322759
0.324326
0.326033
0.327881
0.329868
0.331994
0.334257
0.336657
0.339191
0.341859
0.344658
0.347587
0.350643
0.353829
0.357162
0.370267
0.366806
0.363498
0.360325
0.357285
0.354379
0.351609
0.348977
0.346486
0.344135
0.341928
0.339865
0.337946
0.336173
0.334547
0.333067
0.331735
0.33055
0.329513
0.328624
0.327883
0.32729
0.326846
0.326549
0.326401
0.326401
0.326549
0.326846
0.32729
0.327883
0.328624
0.329513
0.33055
0.331735
0.333067
0.334547
0.336173
0.337946
0.339865
0.341928
0.344135
0.346486
0.348977
0.351609
0.354379
0.357285
0.360325
0.363498
0.366806
0.370267
0.384123
0.380527
0.377091
0.373794
0.370636
0.367616
0.364739
0.362005
0.359416
0.356974
0.354681
0.352537
0.350543
0.348701
0.347011
0.345473
0.344089
0.342858
0.341781
0.340857
0.340087
0.339471
0.339009
0.338701
0.338547
0.338547
0.338701
0.339009
0.339471
0.340087
0.340857
0.341781
0.342858
0.344089
0.345473
0.347011
0.348701
0.350543
0.352537
0.354681
0.356974
0.359416
0.362005
0.364739
0.367616
0.370636
0.373795
0.377091
0.380527
0.384123
0.39879
0.395052
0.391479
0.388053
0.384769
0.38163
0.378639
0.375796
0.373105
0.370566
0.368181
0.365952
0.363879
0.361964
0.360207
0.358608
0.357169
0.355889
0.354768
0.353808
0.353007
0.352367
0.351886
0.351566
0.351406
0.351406
0.351566
0.351886
0.352367
0.353007
0.353808
0.354768
0.355889
0.357169
0.358608
0.360207
0.361964
0.363879
0.365952
0.368181
0.370566
0.373105
0.375796
0.378639
0.38163
0.384769
0.388053
0.391479
0.395052
0.39879
0.414335
0.410446
0.40673
0.403166
0.39975
0.396485
0.393372
0.390415
0.387614
0.384973
0.382492
0.380173
0.378016
0.376023
0.374194
0.372531
0.371034
0.369702
0.368536
0.367537
0.366704
0.366037
0.365537
0.365204
0.365038
0.365038
0.365204
0.365537
0.366037
0.366704
0.367537
0.368536
0.369702
0.371034
0.372531
0.374194
0.376023
0.378016
0.380173
0.382492
0.384973
0.387614
0.390415
0.393372
0.396485
0.39975
0.403166
0.40673
0.410446
0.414335
0.430832
0.426784
0.422916
0.419206
0.41565
0.41225
0.40901
0.405931
0.403015
0.400265
0.397681
0.395266
0.393021
0.390946
0.389042
0.38731
0.38575
0.384364
0.38315
0.382109
0.381242
0.380548
0.380027
0.37968
0.379507
0.379507
0.37968
0.380028
0.380548
0.381242
0.382109
0.38315
0.384364
0.38575
0.38731
0.389042
0.390946
0.393021
0.395266
0.397681
0.400265
0.403015
0.405931
0.40901
0.41225
0.41565
0.419206
0.422916
0.426784
0.430832
0.448364
0.444146
0.440117
0.436252
0.432547
0.429006
0.42563
0.422422
0.419383
0.416517
0.413826
0.411309
0.408969
0.406807
0.404823
0.403018
0.401393
0.399948
0.398683
0.397599
0.396695
0.395972
0.39543
0.395068
0.394887
0.394887
0.395068
0.39543
0.395972
0.396695
0.397599
0.398684
0.399948
0.401393
0.403018
0.404823
0.406807
0.408969
0.411309
0.413826
0.416517
0.419383
0.422422
0.42563
0.429006
0.432547
0.436252
0.440117
0.444146
0.448364
0.467022
0.462624
0.458424
0.454395
0.450532
0.446839
0.443319
0.439974
0.436806
0.433817
0.43101
0.428385
0.425945
0.42369
0.421621
0.419739
0.418045
0.416538
0.415219
0.414088
0.413145
0.412391
0.411825
0.411448
0.411259
0.411259
0.411448
0.411825
0.412391
0.413145
0.414088
0.415219
0.416538
0.418045
0.419739
0.421621
0.42369
0.425945
0.428385
0.43101
0.433817
0.436806
0.439974
0.443319
0.446839
0.450532
0.454395
0.458424
0.462625
0.467022
0.486908
0.48232
0.477938
0.473733
0.469702
0.465849
0.462175
0.458684
0.455378
0.452258
0.449328
0.446589
0.444042
0.441689
0.439529
0.437565
0.435796
0.434223
0.432847
0.431666
0.430682
0.429895
0.429304
0.428911
0.428714
0.428714
0.428911
0.429304
0.429895
0.430682
0.431666
0.432847
0.434223
0.435796
0.437565
0.439529
0.441689
0.444042
0.446589
0.449328
0.452258
0.455378
0.458684
0.462176
0.465849
0.469702
0.473733
0.477938
0.48232
0.486908
0.508138
0.503347
0.49877
0.494379
0.49017
0.486145
0.482308
0.478661
0.475207
0.471949
0.468888
0.466026
0.463366
0.460907
0.458651
0.456599
0.454752
0.453109
0.45167
0.450437
0.449409
0.448587
0.44797
0.447558
0.447353
0.447353
0.447558
0.44797
0.448587
0.449409
0.450437
0.45167
0.453109
0.454752
0.456599
0.458651
0.460907
0.463366
0.466026
0.468888
0.471949
0.475207
0.478661
0.482308
0.486145
0.49017
0.494379
0.49877
0.503347
0.508138
0.530841
0.525833
0.52105
0.51646
0.512059
0.507852
0.50384
0.500027
0.496416
0.493009
0.489808
0.486816
0.484034
0.481463
0.479105
0.476959
0.475027
0.473309
0.471805
0.470515
0.46944
0.46858
0.467935
0.467505
0.46729
0.46729
0.467505
0.467935
0.46858
0.46944
0.470515
0.471805
0.473309
0.475027
0.476959
0.479105
0.481463
0.484034
0.486816
0.489808
0.493009
0.496416
0.500027
0.50384
0.507852
0.512059
0.51646
0.52105
0.525833
0.530841
0.555165
0.549925
0.54492
0.540117
0.535512
0.531109
0.526911
0.52292
0.51914
0.515574
0.512224
0.509092
0.50618
0.50349
0.501021
0.498775
0.496753
0.494955
0.49338
0.492031
0.490905
0.490005
0.48933
0.48888
0.488655
0.488655
0.48888
0.48933
0.490005
0.490905
0.492031
0.49338
0.494955
0.496753
0.498775
0.501021
0.50349
0.50618
0.509092
0.512224
0.515574
0.51914
0.52292
0.526911
0.531109
0.535512
0.540117
0.54492
0.549925
0.555165
0.581277
0.575789
0.570546
0.565514
0.56069
0.556077
0.551678
0.547497
0.543537
0.5398
0.53629
0.533008
0.529957
0.527138
0.524551
0.522198
0.520079
0.518195
0.516545
0.515131
0.513952
0.513008
0.512301
0.511829
0.511593
0.511593
0.511829
0.512301
0.513008
0.513952
0.515131
0.516545
0.518195
0.520079
0.522198
0.524551
0.527138
0.529957
0.533008
0.53629
0.5398
0.543537
0.547497
0.551678
0.556077
0.56069
0.565514
0.570546
0.575789
0.581277
0.609369
0.603613
0.598115
0.592837
0.587776
0.582938
0.578324
0.573938
0.569783
0.565863
0.56218
0.558738
0.555537
0.552579
0.549866
0.547398
0.545175
0.543198
0.541468
0.539984
0.538747
0.537757
0.537015
0.53652
0.536273
0.536273
0.53652
0.537015
0.537757
0.538747
0.539984
0.541468
0.543198
0.545175
0.547398
0.549866
0.552579
0.555537
0.558738
0.56218
0.565863
0.569783
0.573938
0.578324
0.582938
0.587776
0.592837
0.598115
0.603613
0.609369
0.639662
0.633618
0.627843
0.622299
0.616984
0.611902
0.607056
0.602449
0.598085
0.593967
0.590098
0.586481
0.583119
0.580013
0.577163
0.57457
0.572236
0.570159
0.568341
0.566783
0.565484
0.564444
0.563664
0.563144
0.562884
0.562884
0.563144
0.563664
0.564444
0.565484
0.566783
0.568341
0.570159
0.572236
0.57457
0.577163
0.580013
0.583119
0.586481
0.590098
0.593967
0.598085
0.602449
0.607056
0.611903
0.616985
0.622299
0.627843
0.633618
0.639662
0.672415
0.666058
0.659983
0.654151
0.64856
0.643214
0.638116
0.633269
0.628678
0.624346
0.620275
0.616471
0.612934
0.609666
0.606669
0.603942
0.601486
0.599302
0.59739
0.59575
0.594384
0.59329
0.59247
0.591923
0.591649
0.591649
0.591923
0.59247
0.59329
0.594384
0.59575
0.59739
0.599302
0.601486
0.603942
0.606669
0.609666
0.612934
0.616471
0.620275
0.624346
0.628678
0.633269
0.638116
0.643214
0.64856
0.654151
0.659983
0.666058
0.672415
0.70793
0.701232
0.69483
0.688683
0.682792
0.677158
0.671786
0.666678
0.66184
0.657274
0.652985
0.648976
0.645249
0.641807
0.638649
0.635776
0.633188
0.630887
0.628873
0.627145
0.625705
0.624553
0.623689
0.623113
0.622825
0.622825
0.623113
0.623689
0.624553
0.625705
0.627145
0.628873
0.630887
0.633188
0.635776
0.638649
0.641807
0.645249
0.648976
0.652985
0.657274
0.66184
0.666678
0.671786
0.677158
0.682792
0.688683
0.69483
0.701232
0.70793
0.746565
0.739493
0.732732
0.72624
0.720019
0.714071
0.708398
0.703005
0.697897
0.693077
0.688548
0.684315
0.680381
0.676747
0.673414
0.670382
0.66765
0.665222
0.663095
0.661272
0.659753
0.658537
0.657624
0.657016
0.656712
0.656712
0.657016
0.657624
0.658537
0.659753
0.661272
0.663095
0.665222
0.667651
0.670382
0.673414
0.676747
0.680381
0.684315
0.688548
0.693077
0.697897
0.703005
0.708398
0.714071
0.72002
0.72624
0.732732
0.739493
0.746565
0.78875
0.781265
0.774108
0.767235
0.76065
0.754355
0.748351
0.742644
0.737238
0.732137
0.727345
0.722865
0.718704
0.71486
0.711334
0.708126
0.705238
0.702669
0.70042
0.698492
0.696884
0.695598
0.694633
0.69399
0.693669
0.693669
0.69399
0.694633
0.695598
0.696884
0.698492
0.70042
0.702669
0.705238
0.708126
0.711334
0.71486
0.718704
0.722865
0.727345
0.732137
0.737238
0.742644
0.748351
0.754355
0.76065
0.767235
0.774108
0.781265
0.78875
0.835012
0.827065
0.819465
0.812165
0.805177
0.798495
0.792123
0.786067
0.78033
0.774918
0.769834
0.765082
0.760667
0.756591
0.752852
0.749451
0.746388
0.743664
0.74128
0.739235
0.737531
0.736167
0.735145
0.734463
0.734122
0.734122
0.734463
0.735145
0.736168
0.737531
0.739235
0.74128
0.743664
0.746388
0.749451
0.752852
0.756591
0.760667
0.765082
0.769834
0.774918
0.78033
0.786067
0.792124
0.798495
0.805177
0.812165
0.819465
0.827065
0.835012
0.886015
0.877543
0.869437
0.861653
0.854209
0.847093
0.840308
0.833858
0.827751
0.821989
0.816576
0.811518
0.806821
0.802486
0.798509
0.794892
0.791634
0.788738
0.786202
0.784028
0.782216
0.780766
0.779679
0.778953
0.778591
0.778591
0.778953
0.779679
0.780766
0.782216
0.784028
0.786202
0.788738
0.791634
0.794892
0.798509
0.802486
0.806821
0.811518
0.816576
0.821989
0.827751
0.833858
0.840308
0.847093
0.854209
0.861653
0.869437
0.877543
0.886015
0.94259
0.933518
0.924838
0.9165
0.908534
0.900919
0.893659
0.88676
0.880227
0.874065
0.868278
0.86287
0.857852
0.853223
0.848978
0.845116
0.841639
0.838547
0.835841
0.833521
0.831587
0.83004
0.828879
0.828105
0.827718
0.827718
0.828105
0.828879
0.83004
0.831587
0.833521
0.835841
0.838547
0.841639
0.845116
0.848978
0.853223
0.857852
0.86287
0.868278
0.874065
0.880227
0.88676
0.893659
0.900919
0.908534
0.916501
0.924838
0.933518
0.94259
1.00573
0.995976
0.986643
0.977681
0.969113
0.960925
0.95312
0.945705
0.938684
0.932064
0.925847
0.920039
0.914652
0.909685
0.905129
0.900986
0.897256
0.893939
0.891036
0.888547
0.886473
0.884814
0.883569
0.882739
0.882325
0.882325
0.882739
0.883569
0.884814
0.886473
0.888547
0.891036
0.893939
0.897256
0.900986
0.905129
0.909685
0.914652
0.920039
0.925847
0.932064
0.938684
0.945705
0.95312
0.960925
0.969113
0.977681
0.986643
0.995976
1.00573
1.07662
1.06609
1.05602
1.04634
1.03709