/*--------------------------------*- C++ -*----------------------------------*\
  =========                 |
  \\      /  F ield         | OpenFOAM: The Open Source CFD Toolbox
   \\    /   O peration     | Website:  https://openfoam.org
    \\  /    A nd           | Version:  7
     \\/     M anipulation  |
\*---------------------------------------------------------------------------*/
FoamFile
{
    version     2.0;
    format      ascii;
    class       volScalarField;
    location    "116000";
    object      nu;
}
// * * * * * * * * * * * * * * * * * * * * * * * * * * * * * * * * * * * * * //

dimensions      [0 2 -1 0 0 0 0];

internalField   nonuniform List<scalar> 
4814
(
2.44493e-06
2.44998e-06
2.45456e-06
2.45866e-06
2.29942e-06
2.30928e-06
2.31874e-06
2.32795e-06
2.33691e-06
2.3456e-06
2.35399e-06
2.36206e-06
2.3698e-06
2.37719e-06
2.3842e-06
2.39083e-06
2.39706e-06
2.40288e-06
2.40826e-06
2.41319e-06
2.41767e-06
2.42167e-06
2.4252e-06
2.42824e-06
2.43078e-06
2.43282e-06
2.43436e-06
2.43539e-06
2.4359e-06
2.4359e-06
2.43539e-06
2.43436e-06
2.43282e-06
2.43078e-06
2.42824e-06
2.4252e-06
2.42167e-06
2.41767e-06
2.26554e-06
2.27517e-06
2.28441e-06
2.29341e-06
2.30217e-06
2.31065e-06
2.31885e-06
2.32674e-06
2.3343e-06
2.34151e-06
2.34837e-06
2.35485e-06
2.36093e-06
2.36661e-06
2.37187e-06
2.37669e-06
2.38107e-06
2.38498e-06
2.38843e-06
2.3914e-06
2.39388e-06
2.39588e-06
2.39738e-06
2.39838e-06
2.39888e-06
2.39888e-06
2.39838e-06
2.39738e-06
2.39588e-06
2.39388e-06
2.3914e-06
2.38843e-06
2.38498e-06
2.38107e-06
2.37669e-06
2.37187e-06
2.36661e-06
2.36093e-06
2.35485e-06
2.34837e-06
2.34151e-06
2.23193e-06
2.24133e-06
2.25036e-06
2.25915e-06
2.2677e-06
2.27598e-06
2.28398e-06
2.29169e-06
2.29907e-06
2.30612e-06
2.31282e-06
2.31914e-06
2.32509e-06
2.33064e-06
2.33577e-06
2.34048e-06
2.34475e-06
2.34858e-06
2.35194e-06
2.35484e-06
2.35727e-06
2.35922e-06
2.36068e-06
2.36166e-06
2.36215e-06
2.36215e-06
2.36166e-06
2.36068e-06
2.35922e-06
2.35727e-06
2.35484e-06
2.35194e-06
2.34858e-06
2.34475e-06
2.34048e-06
2.33577e-06
2.33064e-06
2.32509e-06
2.31914e-06
2.31282e-06
2.30612e-06
2.29907e-06
2.29169e-06
2.28398e-06
2.19859e-06
2.20776e-06
2.21657e-06
2.22515e-06
2.23349e-06
2.24158e-06
2.2494e-06
2.25692e-06
2.26412e-06
2.27101e-06
2.27754e-06
2.28372e-06
2.28952e-06
2.29494e-06
2.29995e-06
2.30455e-06
2.30872e-06
2.31245e-06
2.31574e-06
2.31857e-06
2.32094e-06
2.32284e-06
2.32428e-06
2.32523e-06
2.32571e-06
2.32571e-06
2.32523e-06
2.32428e-06
2.32284e-06
2.32094e-06
2.31857e-06
2.31574e-06
2.31245e-06
2.30872e-06
2.30455e-06
2.29996e-06
2.29494e-06
2.28952e-06
2.28372e-06
2.27754e-06
2.27101e-06
2.26412e-06
2.25692e-06
2.2494e-06
2.16551e-06
2.17446e-06
2.18305e-06
2.19142e-06
2.19956e-06
2.20746e-06
2.21508e-06
2.22242e-06
2.22945e-06
2.23617e-06
2.24254e-06
2.24857e-06
2.25424e-06
2.25952e-06
2.26442e-06
2.2689e-06
2.27297e-06
2.27661e-06
2.27982e-06
2.28258e-06
2.2849e-06
2.28675e-06
2.28815e-06
2.28908e-06
2.28955e-06
2.28955e-06
2.28908e-06
2.28815e-06
2.28675e-06
2.2849e-06
2.28258e-06
2.27982e-06
2.27661e-06
2.27297e-06
2.2689e-06
2.26442e-06
2.25952e-06
2.25424e-06
2.24857e-06
2.24254e-06
2.23617e-06
2.22945e-06
2.22242e-06
2.21508e-06
2.1327e-06
2.14143e-06
2.1498e-06
2.15796e-06
2.1659e-06
2.1736e-06
2.18103e-06
2.18819e-06
2.19505e-06
2.2016e-06
2.20782e-06
2.2137e-06
2.21922e-06
2.22438e-06
2.22915e-06
2.23353e-06
2.2375e-06
2.24105e-06
2.24418e-06
2.24688e-06
2.24913e-06
2.25094e-06
2.25231e-06
2.25322e-06
2.25367e-06
2.25367e-06
2.25322e-06
2.25231e-06
2.25094e-06
2.24913e-06
2.24687e-06
2.24418e-06
2.24105e-06
2.2375e-06
2.23353e-06
2.22915e-06
2.22438e-06
2.21922e-06
2.2137e-06
2.20782e-06
2.2016e-06
2.19505e-06
2.18819e-06
2.18103e-06
2.10015e-06
2.10865e-06
2.11682e-06
2.12477e-06
2.13251e-06
2.14001e-06
2.14725e-06
2.15423e-06
2.16092e-06
2.1673e-06
2.17337e-06
2.1791e-06
2.18448e-06
2.18951e-06
2.19416e-06
2.19843e-06
2.2023e-06
2.20577e-06
2.20881e-06
2.21144e-06
2.21364e-06
2.21541e-06
2.21674e-06
2.21762e-06
2.21807e-06
2.21807e-06
2.21762e-06
2.21674e-06
2.21541e-06
2.21364e-06
2.21144e-06
2.20881e-06
2.20577e-06
2.2023e-06
2.19843e-06
2.19417e-06
2.18951e-06
2.18448e-06
2.1791e-06
2.17337e-06
2.1673e-06
2.16092e-06
2.15423e-06
2.14725e-06
2.14001e-06
2.06787e-06
2.07615e-06
2.0841e-06
2.09185e-06
2.09938e-06
2.10669e-06
2.11374e-06
2.12054e-06
2.12706e-06
2.13328e-06
2.13918e-06
2.14477e-06
2.15002e-06
2.15492e-06
2.15945e-06
2.16361e-06
2.16738e-06
2.17075e-06
2.17372e-06
2.17629e-06
2.17843e-06
2.18015e-06
2.18144e-06
2.18231e-06
2.18274e-06
2.18274e-06
2.18231e-06
2.18144e-06
2.18015e-06
2.17843e-06
2.17629e-06
2.17372e-06
2.17075e-06
2.16738e-06
2.16361e-06
2.15945e-06
2.15492e-06
2.15002e-06
2.14477e-06
2.13919e-06
2.13328e-06
2.12706e-06
2.12054e-06
2.11374e-06
2.10669e-06
2.03586e-06
2.04391e-06
2.05165e-06
2.05919e-06
2.06652e-06
2.07363e-06
2.0805e-06
2.08712e-06
2.09346e-06
2.09952e-06
2.10527e-06
2.11071e-06
2.11582e-06
2.12059e-06
2.12501e-06
2.12906e-06
2.13273e-06
2.13601e-06
2.13891e-06
2.1414e-06
2.14349e-06
2.14517e-06
2.14643e-06
2.14727e-06
2.14769e-06
2.14769e-06
2.14727e-06
2.14643e-06
2.14517e-06
2.14349e-06
2.1414e-06
2.13891e-06
2.13601e-06
2.13273e-06
2.12906e-06
2.12501e-06
2.12059e-06
2.11582e-06
2.11071e-06
2.10527e-06
2.09952e-06
2.09346e-06
2.08712e-06
2.0805e-06
2.07363e-06
2.00411e-06
2.01194e-06
2.01947e-06
2.0268e-06
2.03393e-06
2.04085e-06
2.04754e-06
2.05397e-06
2.06014e-06
2.06604e-06
2.07164e-06
2.07693e-06
2.0819e-06
2.08654e-06
2.09084e-06
2.09478e-06
2.09835e-06
2.10155e-06
2.10437e-06
2.10679e-06
2.10882e-06
2.11046e-06
2.11168e-06
2.1125e-06
2.11291e-06
2.11291e-06
2.1125e-06
2.11168e-06
2.11046e-06
2.10882e-06
2.10679e-06
2.10437e-06
2.10155e-06
2.09835e-06
2.09478e-06
2.09084e-06
2.08654e-06
2.0819e-06
2.07693e-06
2.07164e-06
2.06604e-06
2.06014e-06
2.05397e-06
2.04754e-06
2.04085e-06
1.97264e-06
1.98025e-06
1.98756e-06
1.99468e-06
2.00162e-06
2.00834e-06
2.01484e-06
2.02109e-06
2.0271e-06
2.03283e-06
2.03827e-06
2.04341e-06
2.04825e-06
2.05276e-06
2.05694e-06
2.06077e-06
2.06425e-06
2.06736e-06
2.0701e-06
2.07246e-06
2.07443e-06
2.07602e-06
2.07721e-06
2.07801e-06
2.07841e-06
2.07841e-06
2.07801e-06
2.07721e-06
2.07602e-06
2.07443e-06
2.07246e-06
2.0701e-06
2.06736e-06
2.06425e-06
2.06077e-06
2.05694e-06
2.05276e-06
2.04825e-06
2.04341e-06
2.03827e-06
2.03283e-06
2.0271e-06
2.02109e-06
2.01484e-06
1.94144e-06
1.94882e-06
1.95593e-06
1.96284e-06
1.96958e-06
1.97611e-06
1.98242e-06
1.98849e-06
1.99432e-06
1.99989e-06
2.00518e-06
2.01018e-06
2.01488e-06
2.01926e-06
2.02332e-06
2.02704e-06
2.03042e-06
2.03344e-06
2.0361e-06
2.0384e-06
2.04032e-06
2.04186e-06
2.04302e-06
2.04379e-06
2.04418e-06
2.04418e-06
2.04379e-06
2.04302e-06
2.04186e-06
2.04032e-06
2.0384e-06
2.0361e-06
2.03344e-06
2.03042e-06
2.02704e-06
2.02332e-06
2.01926e-06
2.01488e-06
2.01018e-06
2.00518e-06
1.99989e-06
1.99432e-06
1.98849e-06
1.98242e-06
1.91052e-06
1.91768e-06
1.92457e-06
1.93128e-06
1.93781e-06
1.94415e-06
1.95027e-06
1.95617e-06
1.96183e-06
1.96723e-06
1.97237e-06
1.97722e-06
1.98178e-06
1.98604e-06
1.98998e-06
1.99359e-06
1.99687e-06
1.99981e-06
2.00239e-06
2.00462e-06
2.00648e-06
2.00798e-06
2.00911e-06
2.00986e-06
2.01023e-06
2.01023e-06
2.00986e-06
2.00911e-06
2.00798e-06
2.00648e-06
2.00462e-06
2.00239e-06
1.99981e-06
1.99687e-06
1.99359e-06
1.98998e-06
1.98604e-06
1.98178e-06
1.97722e-06
1.97237e-06
1.96723e-06
1.96183e-06
1.95617e-06
1.95027e-06
1.87989e-06
1.88683e-06
1.8935e-06
1.90001e-06
1.90634e-06
1.91248e-06
1.91842e-06
1.92413e-06
1.92962e-06
1.93486e-06
1.93984e-06
1.94455e-06
1.94897e-06
1.9531e-06
1.95692e-06
1.96043e-06
1.96361e-06
1.96645e-06
1.96896e-06
1.97112e-06
1.97293e-06
1.97438e-06
1.97547e-06
1.9762e-06
1.97657e-06
1.97657e-06
1.9762e-06
1.97547e-06
1.97438e-06
1.97293e-06
1.97112e-06
1.96896e-06
1.96645e-06
1.96361e-06
1.96043e-06
1.95692e-06
1.9531e-06
1.94897e-06
1.94455e-06
1.93984e-06
1.93486e-06
1.92962e-06
1.92413e-06
1.91842e-06
1.84956e-06
1.85627e-06
1.86273e-06
1.86903e-06
1.87516e-06
1.8811e-06
1.88685e-06
1.89239e-06
1.8977e-06
1.90278e-06
1.9076e-06
1.91216e-06
1.91645e-06
1.92045e-06
1.92415e-06
1.92755e-06
1.93063e-06
1.93339e-06
1.93582e-06
1.93791e-06
1.93966e-06
1.94107e-06
1.94213e-06
1.94284e-06
1.94319e-06
1.94319e-06
1.94284e-06
1.94213e-06
1.94107e-06
1.93966e-06
1.93791e-06
1.93582e-06
1.93339e-06
1.93063e-06
1.92755e-06
1.92415e-06
1.92045e-06
1.91645e-06
1.91216e-06
1.9076e-06
1.90278e-06
1.8977e-06
1.89239e-06
1.88685e-06
1.81954e-06
1.82602e-06
1.83227e-06
1.83835e-06
1.84428e-06
1.85003e-06
1.85559e-06
1.86095e-06
1.86609e-06
1.871e-06
1.87567e-06
1.88008e-06
1.88422e-06
1.8881e-06
1.89168e-06
1.89497e-06
1.89795e-06
1.90062e-06
1.90297e-06
1.905e-06
1.90669e-06
1.90806e-06
1.90908e-06
1.90977e-06
1.91011e-06
1.91011e-06
1.90977e-06
1.90908e-06
1.90806e-06
1.90669e-06
1.905e-06
1.90297e-06
1.90062e-06
1.89795e-06
1.89497e-06
1.89168e-06
1.8881e-06
1.88422e-06
1.88008e-06
1.87567e-06
1.871e-06
1.86609e-06
1.86095e-06
1.85559e-06
1.78983e-06
1.79609e-06
1.80212e-06
1.80799e-06
1.81372e-06
1.81927e-06
1.82464e-06
1.82982e-06
1.83478e-06
1.83953e-06
1.84404e-06
1.8483e-06
1.85231e-06
1.85605e-06
1.85952e-06
1.86269e-06
1.86558e-06
1.86816e-06
1.87043e-06
1.87239e-06
1.87403e-06
1.87535e-06
1.87634e-06
1.877e-06
1.87733e-06
1.87733e-06
1.877e-06
1.87634e-06
1.87535e-06
1.87403e-06
1.87239e-06
1.87043e-06
1.86816e-06
1.86558e-06
1.86269e-06
1.85952e-06
1.85605e-06
1.85231e-06
1.8483e-06
1.84404e-06
1.83953e-06
1.83478e-06
1.82982e-06
1.82464e-06
1.76046e-06
1.76649e-06
1.7723e-06
1.77796e-06
1.78348e-06
1.78884e-06
1.79402e-06
1.79901e-06
1.8038e-06
1.80838e-06
1.81273e-06
1.81685e-06
1.82071e-06
1.82433e-06
1.82767e-06
1.83074e-06
1.83352e-06
1.83601e-06
1.83821e-06
1.8401e-06
1.84168e-06
1.84295e-06
1.84391e-06
1.84455e-06
1.84487e-06
1.84487e-06
1.84455e-06
1.84391e-06
1.84295e-06
1.84168e-06
1.8401e-06
1.83821e-06
1.83601e-06
1.83352e-06
1.83074e-06
1.82767e-06
1.82433e-06
1.82071e-06
1.81685e-06
1.81273e-06
1.80838e-06
1.8038e-06
1.79901e-06
1.79402e-06
1.73144e-06
1.73724e-06
1.74283e-06
1.74828e-06
1.75359e-06
1.75875e-06
1.76374e-06
1.76855e-06
1.77316e-06
1.77757e-06
1.78176e-06
1.78573e-06
1.78945e-06
1.79294e-06
1.79616e-06
1.79911e-06
1.8018e-06
1.8042e-06
1.80631e-06
1.80814e-06
1.80966e-06
1.81089e-06
1.81181e-06
1.81243e-06
1.81273e-06
1.81273e-06
1.81243e-06
1.81181e-06
1.81089e-06
1.80966e-06
1.80814e-06
1.80631e-06
1.8042e-06
1.8018e-06
1.79911e-06
1.79616e-06
1.79294e-06
1.78945e-06
1.78573e-06
1.78176e-06
1.77757e-06
1.77316e-06
1.76855e-06
1.76374e-06
1.7028e-06
1.70837e-06
1.71373e-06
1.71896e-06
1.72407e-06
1.72903e-06
1.73382e-06
1.73844e-06
1.74288e-06
1.74712e-06
1.75115e-06
1.75496e-06
1.75855e-06
1.7619e-06
1.765e-06
1.76784e-06
1.77042e-06
1.77273e-06
1.77477e-06
1.77652e-06
1.77799e-06
1.77917e-06
1.78006e-06
1.78065e-06
1.78095e-06
1.78095e-06
1.78065e-06
1.78006e-06
1.77917e-06
1.77799e-06
1.77652e-06
1.77477e-06
1.77273e-06
1.77042e-06
1.76784e-06
1.765e-06
1.7619e-06
1.75855e-06
1.75496e-06
1.75115e-06
1.74712e-06
1.74288e-06
1.73844e-06
1.73382e-06
1.67455e-06
1.67988e-06
1.68503e-06
1.69004e-06
1.69494e-06
1.69969e-06
1.70429e-06
1.70872e-06
1.71298e-06
1.71705e-06
1.72092e-06
1.72458e-06
1.72802e-06
1.73123e-06
1.73421e-06
1.73694e-06
1.73942e-06
1.74164e-06
1.74359e-06
1.74528e-06
1.74669e-06
1.74782e-06
1.74867e-06
1.74924e-06
1.74953e-06
1.74953e-06
1.74924e-06
1.74867e-06
1.74782e-06
1.74669e-06
1.74528e-06
1.74359e-06
1.74164e-06
1.73942e-06
1.73694e-06
1.73421e-06
1.73123e-06
1.72802e-06
1.72458e-06
1.72092e-06
1.71705e-06
1.71298e-06
1.70872e-06
1.70429e-06
1.69969e-06
1.64673e-06
1.65182e-06
1.65674e-06
1.66153e-06
1.66622e-06
1.67076e-06
1.67516e-06
1.67941e-06
1.68348e-06
1.68738e-06
1.69109e-06
1.69459e-06
1.69789e-06
1.70097e-06
1.70382e-06
1.70643e-06
1.70881e-06
1.71093e-06
1.71281e-06
1.71442e-06
1.71577e-06
1.71686e-06
1.71768e-06
1.71822e-06
1.7185e-06
1.7185e-06
1.71822e-06
1.71768e-06
1.71686e-06
1.71577e-06
1.71442e-06
1.71281e-06
1.71093e-06
1.70881e-06
1.70643e-06
1.70382e-06
1.70097e-06
1.69789e-06
1.69459e-06
1.69109e-06
1.68738e-06
1.68348e-06
1.67941e-06
1.67516e-06
1.67076e-06
1.61934e-06
1.6242e-06
1.62889e-06
1.63347e-06
1.63794e-06
1.64228e-06
1.64648e-06
1.65053e-06
1.65442e-06
1.65814e-06
1.66169e-06
1.66503e-06
1.66818e-06
1.67113e-06
1.67385e-06
1.67635e-06
1.67862e-06
1.68065e-06
1.68244e-06
1.68399e-06
1.68528e-06
1.68632e-06
1.6871e-06
1.68762e-06
1.68789e-06
1.68789e-06
1.68762e-06
1.6871e-06
1.68632e-06
1.68528e-06
1.68399e-06
1.68244e-06
1.68065e-06
1.67862e-06
1.67635e-06
1.67385e-06
1.67113e-06
1.66818e-06
1.66503e-06
1.66169e-06
1.65814e-06
1.65442e-06
1.65053e-06
1.64648e-06
1.64228e-06
1.59237e-06
1.59701e-06
1.60149e-06
1.60586e-06
1.61012e-06
1.61425e-06
1.61825e-06
1.62211e-06
1.62582e-06
1.62937e-06
1.63274e-06
1.63594e-06
1.63894e-06
1.64174e-06
1.64434e-06
1.64672e-06
1.64889e-06
1.65083e-06
1.65253e-06
1.65401e-06
1.65524e-06
1.65623e-06
1.65697e-06
1.65747e-06
1.65772e-06
1.65772e-06
1.65747e-06
1.65698e-06
1.65623e-06
1.65524e-06
1.65401e-06
1.65253e-06
1.65083e-06
1.64889e-06
1.64672e-06
1.64434e-06
1.64174e-06
1.63894e-06
1.63594e-06
1.63274e-06
1.62937e-06
1.62582e-06
1.62211e-06
1.61825e-06
1.61425e-06
1.56559e-06
1.57007e-06
1.57441e-06
1.57864e-06
1.5827e-06
1.58663e-06
1.59044e-06
1.59412e-06
1.59766e-06
1.60104e-06
1.60426e-06
1.60731e-06
1.61017e-06
1.61283e-06
1.6153e-06
1.61757e-06
1.61963e-06
1.62147e-06
1.6231e-06
1.6245e-06
1.62567e-06
1.62661e-06
1.62732e-06
1.6278e-06
1.62803e-06
1.62803e-06
1.6278e-06
1.62732e-06
1.62661e-06
1.62567e-06
1.6245e-06
1.6231e-06
1.62147e-06
1.61963e-06
1.61757e-06
1.6153e-06
1.61283e-06
1.61017e-06
1.60731e-06
1.60426e-06
1.60104e-06
1.59766e-06
1.59412e-06
1.59044e-06
1.53864e-06
1.543e-06
1.54724e-06
1.55137e-06
1.55529e-06
1.55909e-06
1.56277e-06
1.56633e-06
1.56975e-06
1.57302e-06
1.57613e-06
1.57907e-06
1.58181e-06
1.58434e-06
1.58669e-06
1.58885e-06
1.59081e-06
1.59256e-06
1.59411e-06
1.59544e-06
1.59656e-06
1.59745e-06
1.59813e-06
1.59858e-06
1.5988e-06
1.5988e-06
1.59858e-06
1.59813e-06
1.59745e-06
1.59656e-06
1.59544e-06
1.59411e-06
1.59256e-06
1.59081e-06
1.58885e-06
1.58669e-06
1.58434e-06
1.58181e-06
1.57907e-06
1.57613e-06
1.57302e-06
1.56975e-06
1.56633e-06
1.56277e-06
1.51154e-06
1.51572e-06
1.51979e-06
1.52376e-06
1.52758e-06
1.53128e-06
1.53488e-06
1.53835e-06
1.54168e-06
1.54487e-06
1.5479e-06
1.55078e-06
1.55343e-06
1.55587e-06
1.55814e-06
1.56022e-06
1.5621e-06
1.56379e-06
1.56528e-06
1.56657e-06
1.56765e-06
1.56851e-06
1.56916e-06
1.5696e-06
1.56982e-06
1.56982e-06
1.5696e-06
1.56916e-06
1.56851e-06
1.56765e-06
1.56657e-06
1.56528e-06
1.56379e-06
1.5621e-06
1.56022e-06
1.55814e-06
1.55587e-06
1.55343e-06
1.55078e-06
1.5479e-06
1.54487e-06
1.54168e-06
1.53835e-06
1.53488e-06
1.48479e-06
1.48872e-06
1.49255e-06
1.49629e-06
1.49994e-06
1.50349e-06
1.50692e-06
1.51024e-06
1.51344e-06
1.51649e-06
1.5194e-06
1.52215e-06
1.52472e-06
1.52709e-06
1.5293e-06
1.53132e-06
1.53316e-06
1.5348e-06
1.53625e-06
1.5375e-06
1.53855e-06
1.53939e-06
1.54003e-06
1.54045e-06
1.54066e-06
1.54066e-06
1.54045e-06
1.54003e-06
1.53939e-06
1.53855e-06
1.5375e-06
1.53625e-06
1.5348e-06
1.53316e-06
1.53132e-06
1.5293e-06
1.52709e-06
1.52472e-06
1.52215e-06
1.5194e-06
1.51649e-06
1.51344e-06
1.51024e-06
1.50692e-06
1.45873e-06
1.4624e-06
1.46596e-06
1.46946e-06
1.47287e-06
1.4762e-06
1.47942e-06
1.48253e-06
1.48553e-06
1.48839e-06
1.49112e-06
1.49371e-06
1.49614e-06
1.49841e-06
1.50051e-06
1.50244e-06
1.50419e-06
1.50576e-06
1.50715e-06
1.50834e-06
1.50934e-06
1.51015e-06
1.51075e-06
1.51116e-06
1.51136e-06
1.51136e-06
1.51116e-06
1.51075e-06
1.51015e-06
1.50934e-06
1.50834e-06
1.50715e-06
1.50576e-06
1.50419e-06
1.50244e-06
1.50051e-06
1.49841e-06
1.49614e-06
1.49371e-06
1.49112e-06
1.48839e-06
1.48553e-06
1.48253e-06
1.47942e-06
1.43355e-06
1.43693e-06
1.44022e-06
1.44346e-06
1.44662e-06
1.4497e-06
1.45268e-06
1.45557e-06
1.45836e-06
1.46102e-06
1.46356e-06
1.46597e-06
1.46823e-06
1.47035e-06
1.47231e-06
1.47411e-06
1.47575e-06
1.47721e-06
1.47851e-06
1.47962e-06
1.48056e-06
1.48131e-06
1.48188e-06
1.48226e-06
1.48245e-06
1.48245e-06
1.48226e-06
1.48188e-06
1.48131e-06
1.48056e-06
1.47962e-06
1.47851e-06
1.47721e-06
1.47575e-06
1.47411e-06
1.47231e-06
1.47035e-06
1.46823e-06
1.46597e-06
1.46356e-06
1.46102e-06
1.45836e-06
1.45557e-06
1.45268e-06
1.40944e-06
1.41252e-06
1.41553e-06
1.41848e-06
1.42137e-06
1.42419e-06
1.42693e-06
1.42958e-06
1.43214e-06
1.43459e-06
1.43692e-06
1.43914e-06
1.44122e-06
1.44317e-06
1.44498e-06
1.44665e-06
1.44816e-06
1.44951e-06
1.45071e-06
1.45174e-06
1.45261e-06
1.4533e-06
1.45382e-06
1.45417e-06
1.45435e-06
1.45435e-06
1.45417e-06
1.45382e-06
1.4533e-06
1.45261e-06
1.45174e-06
1.45071e-06
1.44951e-06
1.44816e-06
1.44665e-06
1.44498e-06
1.44317e-06
1.44122e-06
1.43914e-06
1.43692e-06
1.43459e-06
1.43214e-06
1.42958e-06
1.42693e-06
1.38666e-06
1.38942e-06
1.39212e-06
1.39478e-06
1.39738e-06
1.39993e-06
1.4024e-06
1.4048e-06
1.40711e-06
1.40933e-06
1.41145e-06
1.41346e-06
1.41535e-06
1.41713e-06
1.41877e-06
1.42029e-06
1.42166e-06
1.4229e-06
1.42399e-06
1.42493e-06
1.42572e-06
1.42636e-06
1.42683e-06
1.42715e-06
1.42731e-06
1.42731e-06
1.42715e-06
1.42683e-06
1.42636e-06
1.42572e-06
1.42493e-06
1.42399e-06
1.4229e-06
1.42166e-06
1.42029e-06
1.41877e-06
1.41713e-06
1.41535e-06
1.41346e-06
1.41145e-06
1.40933e-06
1.40711e-06
1.4048e-06
1.4024e-06
1.36545e-06
1.36788e-06
1.37026e-06
1.3726e-06
1.37491e-06
1.37716e-06
1.37936e-06
1.38149e-06
1.38354e-06
1.38552e-06
1.38741e-06
1.3892e-06
1.39089e-06
1.39248e-06
1.39395e-06
1.39531e-06
1.39655e-06
1.39765e-06
1.39863e-06
1.39948e-06
1.40018e-06
1.40075e-06
1.40118e-06
1.40147e-06
1.40161e-06
1.40161e-06
1.40147e-06
1.40118e-06
1.40075e-06
1.40018e-06
1.39948e-06
1.39863e-06
1.39765e-06
1.39655e-06
1.39531e-06
1.39395e-06
1.39248e-06
1.39089e-06
1.3892e-06
1.38741e-06
1.38552e-06
1.38354e-06
1.38149e-06
1.37936e-06
1.37716e-06
1.34608e-06
1.34817e-06
1.35022e-06
1.35224e-06
1.35424e-06
1.35619e-06
1.3581e-06
1.35995e-06
1.36174e-06
1.36346e-06
1.36511e-06
1.36668e-06
1.36816e-06
1.36955e-06
1.37084e-06
1.37203e-06
1.37311e-06
1.37409e-06
1.37495e-06
1.37569e-06
1.37631e-06
1.37681e-06
1.37719e-06
1.37744e-06
1.37757e-06
1.37757e-06
1.37744e-06
1.37719e-06
1.37681e-06
1.37631e-06
1.37569e-06
1.37495e-06
1.37409e-06
1.37311e-06
1.37203e-06
1.37084e-06
1.36955e-06
1.36816e-06
1.36668e-06
1.36511e-06
1.36346e-06
1.36174e-06
1.35995e-06
1.3581e-06
1.35619e-06
1.3288e-06
1.33055e-06
1.33227e-06
1.33397e-06
1.33565e-06
1.3373e-06
1.33891e-06
1.34048e-06
1.342e-06
1.34346e-06
1.34486e-06
1.3462e-06
1.34746e-06
1.34865e-06
1.34975e-06
1.35077e-06
1.3517e-06
1.35254e-06
1.35327e-06
1.35391e-06
1.35445e-06
1.35488e-06
1.3552e-06
1.35542e-06
1.35553e-06
1.35553e-06
1.35542e-06
1.3552e-06
1.35488e-06
1.35445e-06
1.35391e-06
1.35327e-06
1.35254e-06
1.3517e-06
1.35077e-06
1.34975e-06
1.34865e-06
1.34746e-06
1.3462e-06
1.34486e-06
1.34346e-06
1.342e-06
1.34048e-06
1.33891e-06
1.3373e-06
1.31382e-06
1.31523e-06
1.31663e-06
1.31801e-06
1.31939e-06
1.32074e-06
1.32206e-06
1.32335e-06
1.3246e-06
1.32581e-06
1.32696e-06
1.32807e-06
1.32911e-06
1.3301e-06
1.33101e-06
1.33186e-06
1.33263e-06
1.33333e-06
1.33394e-06
1.33447e-06
1.33492e-06
1.33528e-06
1.33555e-06
1.33573e-06
1.33582e-06
1.33582e-06
1.33573e-06
1.33555e-06
1.33528e-06
1.33492e-06
1.33447e-06
1.33394e-06
1.33333e-06
1.33263e-06
1.33186e-06
1.33101e-06
1.3301e-06
1.32911e-06
1.32807e-06
1.32696e-06
1.32581e-06
1.3246e-06
1.32335e-06
1.32206e-06
1.32074e-06
1.31939e-06
1.30122e-06
1.30233e-06
1.30343e-06
1.30452e-06
1.30561e-06
1.30668e-06
1.30773e-06
1.30875e-06
1.30975e-06
1.31071e-06
1.31163e-06
1.31251e-06
1.31335e-06
1.31414e-06
1.31487e-06
1.31555e-06
1.31617e-06
1.31673e-06
1.31723e-06
1.31765e-06
1.31801e-06
1.3183e-06
1.31852e-06
1.31867e-06
1.31874e-06
1.31874e-06
1.31867e-06
1.31852e-06
1.3183e-06
1.31801e-06
1.31765e-06
1.31723e-06
1.31673e-06
1.31617e-06
1.31555e-06
1.31487e-06
1.31414e-06
1.31335e-06
1.31251e-06
1.31163e-06
1.31071e-06
1.30975e-06
1.30875e-06
1.30773e-06
1.30668e-06
1.30561e-06
1.29102e-06
1.29185e-06
1.29269e-06
1.29352e-06
1.29435e-06
1.29517e-06
1.29597e-06
1.29676e-06
1.29752e-06
1.29826e-06
1.29897e-06
1.29965e-06
1.30029e-06
1.3009e-06
1.30147e-06
1.302e-06
1.30248e-06
1.30291e-06
1.30329e-06
1.30362e-06
1.3039e-06
1.30413e-06
1.3043e-06
1.30441e-06
1.30447e-06
1.30447e-06
1.30441e-06
1.3043e-06
1.30413e-06
1.3039e-06
1.30362e-06
1.30329e-06
1.30291e-06
1.30248e-06
1.302e-06
1.30147e-06
1.3009e-06
1.30029e-06
1.29965e-06
1.29897e-06
1.29826e-06
1.29752e-06
1.29676e-06
1.29597e-06
1.29517e-06
1.29435e-06
1.29352e-06
1.28307e-06
1.28368e-06
1.28429e-06
1.2849e-06
1.28551e-06
1.28612e-06
1.28671e-06
1.28729e-06
1.28786e-06
1.28841e-06
1.28893e-06
1.28943e-06
1.28991e-06
1.29037e-06
1.29079e-06
1.29118e-06
1.29154e-06
1.29187e-06
1.29215e-06
1.2924e-06
1.29261e-06
1.29278e-06
1.2929e-06
1.29299e-06
1.29303e-06
1.29303e-06
1.29299e-06
1.2929e-06
1.29278e-06
1.29261e-06
1.2924e-06
1.29215e-06
1.29187e-06
1.29154e-06
1.29118e-06
1.29079e-06
1.29037e-06
1.28991e-06
1.28943e-06
1.28893e-06
1.28841e-06
1.28786e-06
1.28729e-06
1.28671e-06
1.28612e-06
1.28551e-06
1.2849e-06
1.27712e-06
1.27755e-06
1.27798e-06
1.27842e-06
1.27886e-06
1.2793e-06
1.27973e-06
1.28014e-06
1.28055e-06
1.28094e-06
1.28132e-06
1.28168e-06
1.28203e-06
1.28236e-06
1.28266e-06
1.28295e-06
1.2832e-06
1.28344e-06
1.28364e-06
1.28382e-06
1.28397e-06
1.28409e-06
1.28418e-06
1.28425e-06
1.28428e-06
1.28428e-06
1.28425e-06
1.28418e-06
1.28409e-06
1.28397e-06
1.28382e-06
1.28364e-06
1.28344e-06
1.2832e-06
1.28295e-06
1.28266e-06
1.28236e-06
1.28203e-06
1.28168e-06
1.28132e-06
1.28094e-06
1.28055e-06
1.28014e-06
1.27973e-06
1.2793e-06
1.27886e-06
1.27842e-06
1.27284e-06
1.27314e-06
1.27344e-06
1.27375e-06
1.27407e-06
1.27438e-06
1.27468e-06
1.27498e-06
1.27526e-06
1.27554e-06
1.27581e-06
1.27606e-06
1.27631e-06
1.27654e-06
1.27675e-06
1.27695e-06
1.27714e-06
1.2773e-06
1.27745e-06
1.27757e-06
1.27768e-06
1.27776e-06
1.27783e-06
1.27787e-06
1.27789e-06
1.27789e-06
1.27787e-06
1.27783e-06
1.27776e-06
1.27768e-06
1.27757e-06
1.27745e-06
1.2773e-06
1.27714e-06
1.27695e-06
1.27675e-06
1.27654e-06
1.27631e-06
1.27606e-06
1.27581e-06
1.27554e-06
1.27526e-06
1.27498e-06
1.27468e-06
1.27438e-06
1.27407e-06
1.27375e-06
1.26987e-06
1.27008e-06
1.27029e-06
1.27051e-06
1.27074e-06
1.27096e-06
1.27118e-06
1.27139e-06
1.27159e-06
1.27179e-06
1.27198e-06
1.27216e-06
1.27233e-06
1.27249e-06
1.27265e-06
1.27279e-06
1.27292e-06
1.27303e-06
1.27313e-06
1.27322e-06
1.2733e-06
1.27336e-06
1.2734e-06
1.27343e-06
1.27345e-06
1.27345e-06
1.27343e-06
1.2734e-06
1.27336e-06
1.2733e-06
1.27322e-06
1.27313e-06
1.27303e-06
1.27292e-06
1.27279e-06
1.27265e-06
1.27249e-06
1.27233e-06
1.27216e-06
1.27198e-06
1.27179e-06
1.27159e-06
1.27139e-06
1.27118e-06
1.27096e-06
1.27074e-06
1.27051e-06
1.26785e-06
1.268e-06
1.26816e-06
1.26832e-06
1.26849e-06
1.26865e-06
1.26881e-06
1.26897e-06
1.26912e-06
1.26927e-06
1.2694e-06
1.26953e-06
1.26966e-06
1.26978e-06
1.26989e-06
1.27e-06
1.27009e-06
1.27017e-06
1.27025e-06
1.27031e-06
1.27036e-06
1.27041e-06
1.27044e-06
1.27046e-06
1.27047e-06
1.27047e-06
1.27046e-06
1.27044e-06
1.27041e-06
1.27036e-06
1.27031e-06
1.27025e-06
1.27017e-06
1.27009e-06
1.27e-06
1.26989e-06
1.26978e-06
1.26966e-06
1.26953e-06
1.2694e-06
1.26927e-06
1.26912e-06
1.26897e-06
1.26881e-06
1.26865e-06
1.26849e-06
1.26832e-06
1.26816e-06
1.26648e-06
1.2666e-06
1.26672e-06
1.26685e-06
1.26698e-06
1.26711e-06
1.26724e-06
1.26736e-06
1.26748e-06
1.26759e-06
1.2677e-06
1.2678e-06
1.2679e-06
1.26799e-06
1.26808e-06
1.26816e-06
1.26823e-06
1.26829e-06
1.26835e-06
1.2684e-06
1.26844e-06
1.26847e-06
1.2685e-06
1.26852e-06
1.26852e-06
1.26852e-06
1.26852e-06
1.2685e-06
1.26847e-06
1.26844e-06
1.2684e-06
1.26835e-06
1.26829e-06
1.26823e-06
1.26816e-06
1.26808e-06
1.26799e-06
1.2679e-06
1.2678e-06
1.2677e-06
1.26759e-06
1.26748e-06
1.26736e-06
1.26724e-06
1.26711e-06
1.26698e-06
1.26685e-06
1.26672e-06
1.26552e-06
1.26561e-06
1.26572e-06
1.26583e-06
1.26594e-06
1.26605e-06
1.26616e-06
1.26626e-06
1.26636e-06
1.26645e-06
1.26654e-06
1.26663e-06
1.26671e-06
1.26679e-06
1.26686e-06
1.26693e-06
1.26699e-06
1.26704e-06
1.26709e-06
1.26713e-06
1.26716e-06
1.26719e-06
1.26721e-06
1.26722e-06
1.26723e-06
1.26723e-06
1.26722e-06
1.26721e-06
1.26719e-06
1.26716e-06
1.26713e-06
1.26709e-06
1.26704e-06
1.26699e-06
1.26693e-06
1.26686e-06
1.26679e-06
1.26671e-06
1.26663e-06
1.26654e-06
1.26645e-06
1.26636e-06
1.26626e-06
1.26616e-06
1.26605e-06
1.26594e-06
1.26583e-06
1.26572e-06
1.2648e-06
1.26488e-06
1.26497e-06
1.26507e-06
1.26517e-06
1.26527e-06
1.26536e-06
1.26546e-06
1.26555e-06
1.26563e-06
1.26571e-06
1.26578e-06
1.26586e-06
1.26593e-06
1.26599e-06
1.26605e-06
1.26611e-06
1.26615e-06
1.26619e-06
1.26623e-06
1.26626e-06
1.26628e-06
1.2663e-06
1.26631e-06
1.26632e-06
1.26632e-06
1.26631e-06
1.2663e-06
1.26628e-06
1.26626e-06
1.26623e-06
1.26619e-06
1.26615e-06
1.26611e-06
1.26605e-06
1.26599e-06
1.26593e-06
1.26586e-06
1.26578e-06
1.26571e-06
1.26563e-06
1.26555e-06
1.26546e-06
1.26536e-06
1.26527e-06
1.26517e-06
1.26507e-06
1.26497e-06
1.2642e-06
1.26427e-06
1.26435e-06
1.26444e-06
1.26454e-06
1.26463e-06
1.26472e-06
1.26481e-06
1.26489e-06
1.26497e-06
1.26504e-06
1.26511e-06
1.26518e-06
1.26524e-06
1.2653e-06
1.26536e-06
1.26541e-06
1.26545e-06
1.26549e-06
1.26553e-06
1.26555e-06
1.26558e-06
1.26559e-06
1.2656e-06
1.26561e-06
1.26561e-06
1.2656e-06
1.26559e-06
1.26558e-06
1.26555e-06
1.26553e-06
1.26549e-06
1.26545e-06
1.26541e-06
1.26536e-06
1.2653e-06
1.26524e-06
1.26518e-06
1.26511e-06
1.26504e-06
1.26497e-06
1.26489e-06
1.26481e-06
1.26472e-06
1.26463e-06
1.26454e-06
1.26444e-06
1.26435e-06
1.26366e-06
1.26372e-06
1.2638e-06
1.26388e-06
1.26397e-06
1.26406e-06
1.26415e-06
1.26423e-06
1.26431e-06
1.26438e-06
1.26445e-06
1.26452e-06
1.26458e-06
1.26464e-06
1.2647e-06
1.26475e-06
1.2648e-06
1.26484e-06
1.26488e-06
1.26491e-06
1.26494e-06
1.26496e-06
1.26497e-06
1.26498e-06
1.26499e-06
1.26499e-06
1.26498e-06
1.26497e-06
1.26496e-06
1.26494e-06
1.26491e-06
1.26488e-06
1.26484e-06
1.2648e-06
1.26475e-06
1.2647e-06
1.26464e-06
1.26458e-06
1.26452e-06
1.26445e-06
1.26438e-06
1.26431e-06
1.26423e-06
1.26415e-06
1.26406e-06
1.26397e-06
1.26388e-06
1.2638e-06
1.26314e-06
1.2632e-06
1.26327e-06
1.26335e-06
1.26344e-06
1.26352e-06
1.26361e-06
1.26368e-06
1.26376e-06
1.26383e-06
1.2639e-06
1.26396e-06
1.26402e-06
1.26408e-06
1.26413e-06
1.26418e-06
1.26423e-06
1.26427e-06
1.2643e-06
1.26433e-06
1.26436e-06
1.26438e-06
1.26439e-06
1.2644e-06
1.26441e-06
1.26441e-06
1.2644e-06
1.26439e-06
1.26438e-06
1.26436e-06
1.26433e-06
1.2643e-06
1.26427e-06
1.26423e-06
1.26418e-06
1.26413e-06
1.26408e-06
1.26402e-06
1.26396e-06
1.2639e-06
1.26383e-06
1.26376e-06
1.26368e-06
1.26361e-06
1.26352e-06
1.26344e-06
1.26335e-06
1.26327e-06
1.26264e-06
1.26269e-06
1.26276e-06
1.26284e-06
1.26292e-06
1.263e-06
1.26308e-06
1.26315e-06
1.26322e-06
1.26329e-06
1.26335e-06
1.26341e-06
1.26347e-06
1.26353e-06
1.26358e-06
1.26363e-06
1.26367e-06
1.26371e-06
1.26374e-06
1.26377e-06
1.26379e-06
1.26381e-06
1.26383e-06
1.26384e-06
1.26384e-06
1.26384e-06
1.26384e-06
1.26383e-06
1.26381e-06
1.26379e-06
1.26377e-06
1.26374e-06
1.26371e-06
1.26367e-06
1.26363e-06
1.26358e-06
1.26353e-06
1.26347e-06
1.26341e-06
1.26335e-06
1.26329e-06
1.26322e-06
1.26315e-06
1.26308e-06
1.263e-06
1.26292e-06
1.26284e-06
1.26276e-06
2.29942e-06
2.26554e-06
2.23193e-06
2.19859e-06
2.16551e-06
2.1327e-06
2.10015e-06
2.06787e-06
2.03586e-06
2.00411e-06
1.97264e-06
1.94144e-06
1.91052e-06
1.87989e-06
1.84956e-06
1.81954e-06
1.78983e-06
1.76046e-06
1.73144e-06
1.7028e-06
1.67455e-06
1.64673e-06
1.61934e-06
1.59237e-06
1.56559e-06
1.53864e-06
1.51154e-06
1.48479e-06
1.45873e-06
1.43355e-06
1.40944e-06
1.38666e-06
1.36545e-06
1.34608e-06
1.3288e-06
1.31382e-06
1.30122e-06
1.29102e-06
1.28307e-06
1.27712e-06
1.27284e-06
1.26987e-06
1.26785e-06
1.26648e-06
1.26552e-06
1.2648e-06
1.2642e-06
1.26366e-06
1.26314e-06
1.26264e-06
2.30928e-06
2.27517e-06
2.24133e-06
2.20776e-06
2.17446e-06
2.14143e-06
2.10865e-06
2.07615e-06
2.04391e-06
2.01194e-06
1.98025e-06
1.94882e-06
1.91768e-06
1.88683e-06
1.85627e-06
1.82602e-06
1.79609e-06
1.76649e-06
1.73724e-06
1.70837e-06
1.67988e-06
1.65182e-06
1.6242e-06
1.59701e-06
1.57007e-06
1.543e-06
1.51572e-06
1.48872e-06
1.4624e-06
1.43693e-06
1.41252e-06
1.38942e-06
1.36788e-06
1.34817e-06
1.33055e-06
1.31523e-06
1.30233e-06
1.29185e-06
1.28368e-06
1.27755e-06
1.27314e-06
1.27008e-06
1.268e-06
1.2666e-06
1.26561e-06
1.26488e-06
1.26427e-06
1.26372e-06
1.2632e-06
1.26269e-06
2.31874e-06
2.28441e-06
2.25036e-06
2.21657e-06
2.18305e-06
2.1498e-06
2.11682e-06
2.0841e-06
2.05165e-06
2.01947e-06
1.98756e-06
1.95593e-06
1.92457e-06
1.8935e-06
1.86273e-06
1.83227e-06
1.80212e-06
1.7723e-06
1.74283e-06
1.71373e-06
1.68503e-06
1.65674e-06
1.62889e-06
1.60149e-06
1.57441e-06
1.54724e-06
1.51979e-06
1.49255e-06
1.46596e-06
1.44022e-06
1.41553e-06
1.39212e-06
1.37026e-06
1.35022e-06
1.33227e-06
1.31663e-06
1.30343e-06
1.29269e-06
1.28429e-06
1.27798e-06
1.27344e-06
1.27029e-06
1.26816e-06
1.26672e-06
1.26572e-06
1.26497e-06
1.26435e-06
1.2638e-06
1.26327e-06
1.26276e-06
2.32795e-06
2.29341e-06
2.25915e-06
2.22515e-06
2.19142e-06
2.15797e-06
2.12477e-06
2.09185e-06
2.05919e-06
2.0268e-06
1.99468e-06
1.96284e-06
1.93128e-06
1.90001e-06
1.86903e-06
1.83835e-06
1.80799e-06
1.77796e-06
1.74828e-06
1.71896e-06
1.69004e-06
1.66153e-06
1.63347e-06
1.60586e-06
1.57864e-06
1.55137e-06
1.52376e-06
1.49629e-06
1.46946e-06
1.44346e-06
1.41848e-06
1.39478e-06
1.3726e-06
1.35224e-06
1.33397e-06
1.31801e-06
1.30452e-06
1.29352e-06
1.2849e-06
1.27842e-06
1.27375e-06
1.27051e-06
1.26832e-06
1.26685e-06
1.26583e-06
1.26507e-06
1.26444e-06
1.26388e-06
1.26335e-06
1.26284e-06
2.33691e-06
2.30217e-06
2.2677e-06
2.2335e-06
2.19956e-06
2.1659e-06
2.13251e-06
2.09938e-06
2.06652e-06
2.03393e-06