/*--------------------------------*- C++ -*----------------------------------*\
  =========                 |
  \\      /  F ield         | OpenFOAM: The Open Source CFD Toolbox
   \\    /   O peration     | Website:  https://openfoam.org
    \\  /    A nd           | Version:  7
     \\/     M anipulation  |
\*---------------------------------------------------------------------------*/
FoamFile
{
    version     2.0;
    format      ascii;
    class       volScalarField;
    location    "4000";
    object      nu;
}
// * * * * * * * * * * * * * * * * * * * * * * * * * * * * * * * * * * * * * //

dimensions      [0 2 -1 0 0 0 0];

internalField   nonuniform List<scalar> 
4825
(
0.000350345
0.000352708
0.000345729
0.000347865
0.000349612
0.000353108
0.000357146
0.000340392
0.000342616
0.000344969
0.000348293
0.000352194
0.000334229
0.000336683
0.000339637
0.000342885
0.000346664
0.000327562
0.000330263
0.000333459
0.000336653
0.00034029
0.000320603
0.000323487
0.000326713
0.000329808
0.000333244
0.00031349
0.000316453
0.000319574
0.000322485
0.00032562
0.000306317
0.000309241
0.000312156
0.000314785
0.000317502
0.000299149
0.000301919
0.000304533
0.000306799
0.000309034
0.00029203
0.000294545
0.000296762
0.000298625
0.000300488
0.000284987
0.000287172
0.000288897
0.000290383
0.000292304
0.000278031
0.000279846
0.000280998
0.000282227
0.000285093
0.00027115
0.000272606
0.000273149
0.000274375
0.00027885
0.000264312
0.000265478
0.000265472
0.000267137
0.000257471
0.00025847
0.000258147
0.000260946
0.000250573
0.00025157
0.00025143
0.000255693
0.000243579
0.00024475
0.000245661
0.000236485
0.000237988
0.000240667
0.000229352
0.000231311
0.000222322
0.000224841
0.000215628
0.000218835
0.000209582
0.000213666
0.000204543
0.000209291
0.000200425
0.000499793
0.000505266
0.000510476
0.000515983
0.000521641
0.000527315
0.000532886
0.000538254
0.000543343
0.000548105
0.000552277
0.000555974
0.000559597
0.000563222
0.000566929
0.000570768
0.000574753
0.000578869
0.000583052
0.000587129
0.00049325
0.000498909
0.000504113
0.000509537
0.000515095
0.000520678
0.000526179
0.00053151
0.00053661
0.000541439
0.000545701
0.000549429
0.000553081
0.000556709
0.000560362
0.000564059
0.00056776
0.000571324
0.000574416
0.000576302
0.000485576
0.000491511
0.000496766
0.000502135
0.000507601
0.00051309
0.000518512
0.000523789
0.000528865
0.000533693
0.000538005
0.000541797
0.000545467
0.000549076
0.000552649
0.000556168
0.000559531
0.000562478
0.000564445
0.000564291
0.000476668
0.000482852
0.000488185
0.000493518
0.000498899
0.000504289
0.000509619
0.000514821
0.00051984
0.000524615
0.000528941
0.000532796
0.000536471
0.000540039
0.000543506
0.000546821
0.000549827
0.000552177
0.00055316
0.000551426
0.0004671
0.000473439
0.00047885
0.000484162
0.000489468
0.000494761
0.000499994
0.000505108
0.00051005
0.000514752
0.000519064
0.00052296
0.000526628
0.000530139
0.000533486
0.000536592
0.000539263
0.000541108
0.000541383
0.00053875
0.000457239
0.000463608
0.000469071
0.000474367
0.000479606
0.000484809
0.000489944
0.000494964
0.000499818
0.000504439
0.000508718
0.000512626
0.000516274
0.00051972
0.000522945
0.000525855
0.000528242
0.000529718
0.000529616
0.000526856
0.000447304
0.000453587
0.000459059
0.000464332
0.000469511
0.000474628
0.000479667
0.000484591
0.000489352
0.000493888
0.000498119
0.000502015
0.000505632
0.000509008
0.000512117
0.000514857
0.000517026
0.000518283
0.000518119
0.0005159
0.000437421
0.000443523
0.000448956
0.000454194
0.000459312
0.000464348
0.000469294
0.000474122
0.000478789
0.00048324
0.000487413
0.000491277
0.000494853
0.000498159
0.000501162
0.000503764
0.000505786
0.000506959
0.000506975
0.000505709
0.000503649
0.000501306
0.000500003
0.000499558
0.000499526
0.000499554
0.000499425
0.00049903
0.000498327
0.000497314
0.000496009
0.000494427
0.00049256
0.000490298
0.00048723
0.000427654
0.000433515
0.000438864
0.000444047
0.000449102
0.000454059
0.000458915
0.000463649
0.000468222
0.000472589
0.000476696
0.000480514
0.000484041
0.000487279
0.000490191
0.000492688
0.000494626
0.000495824
0.000496163
0.000495929
0.000496647
0.000495316
0.000494208
0.000493667
0.000493485
0.00049339
0.000493182
0.000492745
0.000492025
0.000491009
0.0004897
0.000488096
0.000486157
0.000483736
0.00048043
0.000475152
0.000470631
0.000418029
0.000423622
0.000428851
0.00043396
0.000438946
0.000443823
0.000448592
0.000453234
0.000457716
0.000461998
0.000466036
0.000469798
0.000473271
0.000476445
0.00047928
0.000481704
0.00048361
0.000484901
0.000485617
0.000486265
0.000488516
0.000488155
0.00048738
0.000486858
0.000486589
0.000486398
0.000486118
0.000485639
0.000484898
0.000483873
0.000482553
0.00048092
0.000478915
0.000476385
0.00047305
0.000468723
0.000463968
0.000457341
0.000408559
0.000413881
0.000418963
0.00042398
0.000428889
0.000433686
0.000438369
0.000442921
0.000447314
0.000451512
0.000455478
0.000459179
0.000462596
0.000465709
0.000468483
0.000470859
0.000472771
0.000474192
0.000475268
0.000476567
0.000479255
0.000479657
0.000479266
0.000478842
0.000478542
0.000478285
0.000477947
0.000477428
0.000476667
0.00047563
0.000474297
0.000472637
0.000470584
0.000468007
0.00046477
0.000461325
0.000456679
0.00045096
0.000444144
0.000438686
0.000399245
0.000404308
0.000409232
0.000414142
0.000418965
0.00042368
0.000428278
0.000432742
0.000437048
0.000441165
0.000445057
0.000448694
0.000452053
0.00045511
0.000457833
0.000460182
0.000462123
0.000463683
0.000465063
0.000466777
0.000469442
0.000470365
0.000470337
0.000470056
0.00046977
0.000469476
0.000469094
0.000468541
0.000467759
0.000466709
0.000465363
0.000463684
0.000461604
0.000459032
0.000455954
0.000452868
0.000448514
0.000443825
0.000438142
0.000432583
0.000425903
0.000420415
0.000390087
0.000394915
0.000399674
0.000404467
0.000409197
0.000413828
0.000418341
0.000422719
0.00042694
0.000430976
0.000434794
0.000438367
0.000441667
0.000444673
0.000447356
0.00044969
0.000451671
0.00045336
0.000454971
0.000456912
0.000459402
0.000460635
0.000460912
0.00046079
0.000460547
0.000460241
0.000459829
0.00045925
0.000458449
0.000457388
0.000456031
0.000454339
0.000452253
0.000449723
0.000446806
0.000443851
0.000439855
0.000435772
0.00043119
0.000425856
0.000420099
0.000414515
0.000407931
0.00040286
0.000397848
0.000381086
0.000385703
0.000390301
0.00039497
0.000399602
0.000404145
0.000408573
0.000412867
0.000417005
0.000420961
0.000424706
0.000428213
0.000431457
0.000434414
0.000437064
0.000439393
0.000441414
0.000443211
0.000444981
0.000447017
0.000449311
0.000450702
0.000451211
0.000451242
0.000451061
0.00045076
0.000450333
0.000449734
0.000448918
0.000447847
0.000446483
0.000444786
0.000442714
0.000440244
0.000437466
0.00043457
0.000430909
0.000427213
0.000423218
0.000418268
0.000413436
0.000408047
0.000402392
0.000397267
0.000392019
0.000385464
0.000379882
0.000372243
0.000376674
0.000381117
0.00038566
0.000390189
0.000394641
0.000398984
0.000403195
0.000407251
0.000411129
0.000414802
0.000418245
0.000421433
0.000424345
0.000426966
0.000429292
0.00043135
0.000433228
0.000435096
0.000437145
0.000439264
0.000440713
0.000441387
0.000441551
0.000441439
0.000441158
0.000440725
0.000440114
0.000439288
0.000438209
0.000436842
0.00043515
0.000433103
0.000430703
0.000428038
0.000425192
0.000421812
0.000418375
0.000414698
0.000410165
0.000405824
0.000400778
0.000396016
0.00039098
0.000385716
0.00037995
0.000374296
0.00036769
0.000362579
0.000357651
0.00036356
0.000367827
0.000372123
0.000376541
0.000380964
0.000385324
0.000389581
0.000393709
0.000397685
0.000401487
0.000405089
0.000408468
0.000411602
0.000414471
0.000417065
0.000419389
0.000421475
0.000423409
0.000425327
0.000427341
0.000429314
0.000430763
0.000431545
0.000431818
0.000431773
0.00043152
0.000431091
0.000430474
0.000429641
0.000428559
0.000427193
0.000425515
0.000423502
0.000421173
0.0004186
0.000415813
0.000412654
0.0004094
0.000405912
0.000401753
0.000397691
0.000393021
0.000388709
0.000383842
0.000378717
0.000373729
0.00036825
0.000362533
0.000357518
0.000352693
0.000355039
0.000359159
0.000363319
0.000367614
0.000371931
0.000376197
0.000380367
0.000384413
0.000388311
0.000392037
0.00039557
0.000398887
0.000401967
0.000404795
0.000407363
0.000409682
0.000411787
0.000413754
0.000415685
0.000417643
0.000419495
0.000420912
0.000421757
0.000422114
0.000422131
0.00042191
0.000421491
0.000420874
0.000420039
0.000418956
0.000417598
0.000415938
0.000413965
0.000411703
0.000409209
0.000406492
0.000403501
0.000400384
0.000397027
0.00039317
0.000389294
0.000384963
0.000380875
0.000376206
0.000371303
0.000366714
0.000361538
0.000356689
0.000351888
0.000347269
0.000346682
0.00035067
0.000354703
0.000358878
0.000363089
0.000367261
0.000371345
0.000375309
0.000379129
0.000382782
0.000386247
0.000389502
0.00039253
0.000395317
0.000397859
0.000400169
0.000402282
0.000404263
0.000406185
0.000408077
0.000409826
0.000411197
0.000412072
0.000412492
0.000412563
0.000412373
0.000411969
0.000411357
0.000410523
0.000409445
0.000408097
0.00040646
0.00040453
0.000402332
0.000399907
0.000397265
0.000394402
0.000391391
0.000388141
0.000384517
0.000380787
0.00037673
0.000372767
0.000368298
0.000363637
0.000359265
0.000354429
0.000350059
0.000345521
0.000341153
0.00033849
0.000342358
0.000346272
0.000350333
0.000354439
0.000358516
0.000362514
0.000366397
0.00037014
0.000373721
0.000377118
0.000380314
0.00038329
0.000386037
0.000388552
0.000390849
0.00039296
0.000394939
0.000396837
0.000398661
0.000400321
0.000401641
0.000402525
0.000402988
0.000403102
0.000402944
0.000402556
0.000401952
0.000401124
0.000400053
0.00039872
0.00039711
0.000395224
0.000393084
0.000390724
0.000388155
0.000385393
0.000382468
0.000379313
0.000375866
0.000372263
0.000368417
0.000364544
0.000360261
0.000355828
0.000351599
0.000347077
0.000342977
0.000338702
0.000334585
0.000330466
0.000334221
0.000338025
0.000341975
0.000345979
0.000349962
0.000353873
0.000357676
0.000361343
0.000364853
0.000368184
0.000371321
0.000374246
0.000376952
0.000379439
0.000381718
0.00038382
0.000385786
0.00038765
0.000389409
0.000390989
0.000392258
0.000393138
0.000393627
0.000393776
0.000393646
0.000393276
0.000392683
0.000391863
0.000390803
0.000389488
0.000387907
0.000386064
0.000383979
0.00038168
0.000379181
0.000376501
0.000373651
0.000370582
0.00036727
0.000363782
0.000360097
0.000356305
0.000352189
0.000347956
0.000343846
0.000339587
0.000335656
0.000331618
0.000327727
0.00032261
0.000326258
0.000329958
0.000333803
0.000337707
0.000341597
0.000345422
0.000349145
0.000352737
0.000356176
0.000359444
0.000362522
0.000365397
0.000368062
0.000370518
0.000372776
0.000374861
0.000376805
0.00037863
0.000380327
0.000381837
0.000383056
0.000383922
0.000384427
0.000384603
0.000384497
0.000384146
0.000383566
0.000382757
0.00038171
0.000380415
0.000378864
0.000377064
0.000375031
0.000372789
0.000370355
0.000367745
0.000364961
0.000361971
0.000358768
0.000355383
0.000351822
0.000348112
0.000344145
0.000340083
0.000336084
0.000332037
0.000328228
0.000324395
0.000320694
0.000314921
0.000318468
0.000322069
0.000325814
0.000329619
0.000333419
0.000337159
0.000340802
0.00034432
0.00034769
0.000350894
0.000353914
0.00035674
0.000359364
0.000361787
0.00036402
0.000366083
0.000368
0.000369784
0.000371422
0.000372869
0.00037404
0.000374889
0.0003754
0.000375595
0.000375511
0.000375177
0.000374611
0.000373815
0.000372784
0.00037151
0.000369991
0.000368232
0.000366249
0.000364062
0.000361687
0.000359139
0.000356416
0.000353499
0.000350386
0.000347094
0.000343633
0.000340006
0.000336172
0.000332254
0.000328365
0.000324485
0.000320783
0.000317125
0.000313575
0.000307399
0.000310848
0.000314355
0.000318003
0.000321714
0.000325424
0.000329081
0.000332646
0.00033609
0.000339392
0.000342533
0.000345497
0.000348273
0.000350855
0.000353243
0.000355448
0.000357485
0.00035937
0.000361112
0.000362696
0.000364085
0.000365214
0.000366041
0.000366553
0.000366762
0.000366695
0.000366377
0.000365826
0.000365044
0.000364031
0.000362781
0.000361293
0.000359574
0.000357638
0.000355502
0.000353184
0.000350692
0.000348027
0.000345176
0.000342141
0.000338932
0.000335558
0.000332015
0.000328298
0.000324506
0.000320724
0.000316981
0.000313381
0.000309872
0.000306443
0.000300041
0.000303396
0.000306813
0.000310369
0.000313988
0.00031761
0.000321184
0.000324672
0.000328044
0.000331279
0.000334357
0.000337265
0.000339992
0.000342531
0.000344884
0.000347059
0.000349066
0.000350917
0.000352617
0.000354151
0.000355488
0.000356576
0.000357381
0.000357889
0.000358107
0.000358054
0.000357752
0.000357215
0.00035645
0.000355455
0.000354229
0.000352772
0.000351093
0.000349202
0.000347116
0.000344849
0.00034241
0.0003398
0.000337011
0.000334046
0.000330913
0.000327616
0.000324155
0.000320545
0.000316865
0.000313187
0.000309565
0.000306068
0.00030269
0.000299354
0.000292844
0.000296108
0.000299439
0.000302906
0.000306437
0.000309973
0.000313466
0.000316878
0.000320179
0.000323347
0.000326364
0.000329216
0.000331894
0.00033439
0.000336707
0.000338848
0.000340823
0.00034264
0.000344298
0.000345786
0.000347075
0.000348126
0.000348908
0.00034941
0.000349633
0.000349592
0.000349304
0.000348782
0.000348032
0.000347057
0.000345856
0.000344431
0.000342789
0.000340942
0.000338903
0.000336686
0.000334297
0.000331739
0.00032901
0.000326109
0.000323045
0.000319821
0.000316441
0.000312929
0.000309352
0.000305777
0.000302268
0.000298879
0.000295615
0.000292347
0.000285804
0.000288981
0.000292229
0.000295609
0.000299055
0.000302508
0.000305922
0.000309259
0.00031249
0.000315593
0.000318549
0.000321346
0.000323974
0.000326428
0.000328706
0.000330813
0.000332755
0.000334536
0.000336154
0.000337598
0.000338845
0.00033986
0.000340621
0.000341114
0.000341339
0.000341308
0.000341032
0.000340525
0.000339792
0.000338837
0.000337661
0.000336267
0.000334662
0.000332857
0.000330863
0.000328693
0.000326353
0.000323847
0.000321173
0.000318334
0.000315335
0.00031218
0.000308879
0.000305461
0.000301984
0.000298514
0.000295117
0.000291839
0.000288675
0.000285448
0.000278917
0.000282009
0.000285177
0.000288475
0.000291838
0.00029521
0.000298547
0.00030181
0.000304972
0.00030801
0.000310907
0.00031365
0.000316229
0.000318638
0.000320878
0.00032295
0.000324857
0.000326602
0.000328182
0.000329586
0.000330793
0.000331776
0.000332516
0.000332999
0.000333225
0.0003332
0.000332936
0.000332443
0.000331728
0.000330793
0.000329642
0.000328278
0.000326709
0.000324944
0.000322994
0.000320871
0.000318578
0.000316121
0.000313502
0.000310721
0.000307785
0.000304698
0.000301475
0.000298148
0.000294773
0.000291411
0.000288131
0.000284963
0.00028188
0.000278661
0.000272178
0.000275188
0.000278278
0.000281497
0.00028478
0.000288074
0.000291334
0.000294526
0.00029762
0.000300595
0.000303433
0.000306121
0.000308651
0.000311017
0.000313217
0.000315252
0.000317125
0.000318835
0.000320378
0.000321743
0.000322914
0.000323868
0.000324587
0.00032506
0.000325284
0.000325266
0.000325012
0.000324533
0.000323834
0.00032292
0.000321794
0.00032046
0.000318927
0.000317201
0.000315294
0.000313214
0.000310969
0.000308561
0.000305994
0.000303269
0.000300394
0.000297375
0.000294231
0.000290997
0.000287726
0.000284479
0.00028132
0.000278256
0.000275225
0.000271971
0.000265581
0.000268511
0.000271527
0.000274669
0.000277874
0.000281092
0.000284279
0.0002874
0.000290428
0.00029334
0.000296121
0.000298755
0.000301236
0.000303557
0.000305717
0.000307715
0.000309553
0.000311228
0.000312735
0.000314066
0.000315203
0.00031613
0.000316829
0.000317291
0.000317514
0.000317499
0.000317256
0.000316789
0.000316107
0.000315213
0.000314112
0.000312809
0.000311309
0.000309622
0.000307756
0.000305721
0.000303521
0.000301162
0.000298646
0.000295977
0.000293163
0.000290212
0.000287148
0.000284009
0.000280848
0.000277721
0.000274682
0.000271703
0.000268684
0.000265343
0.000259121
0.000261975
0.000264918
0.000267985
0.000271116
0.000274259
0.000277374
0.000280427
0.000283389
0.000286241
0.000288964
0.000291545
0.000293977
0.000296254
0.000298372
0.000300333
0.000302135
0.000303776
0.00030525
0.000306547
0.000307654
0.000308554
0.000309235
0.000309687
0.000309906
0.000309896
0.00030966
0.000309207
0.000308541
0.000307668
0.000306591
0.000305317
0.000303851
0.000302202
0.000300377
0.000298385
0.000296231
0.000293919
0.000291454
0.00028884
0.000286086
0.000283204
0.000280222
0.00027718
0.000274134
0.000271131
0.000268202
0.000265276
0.000262215
0.000258727
0.000252797
0.000255575
0.000258447
0.000261442
0.0002645
0.000267571
0.000270616
0.000273601
0.000276499
0.00027929
0.000281957
0.000284487
0.00028687
0.000289101
0.000291178
0.000293101
0.000294867
0.000296474
0.000297916
0.000299182
0.00030026
0.000301136
0.000301799
0.00030224
0.000302456
0.000302449
0.000302221
0.00030178
0.00030113
0.000300277
0.000299225
0.000297979
0.000296547
0.000294935
0.00029315
0.000291201
0.000289092
0.000286827
0.000284413
0.000281854
0.000279161
0.000276349
0.00027345
0.000270508
0.000267577
0.000264693
0.000261849
0.000258924
0.000255756
0.000252063
0.000246606
0.00024931
0.000252112
0.000255037
0.000258023
0.000261024
0.000264
0.000266918
0.000269754
0.000272486
0.000275097
0.000277575
0.00027991
0.000282096
0.000284132
0.000286015
0.000287746
0.00028932
0.00029073
0.000291966
0.000293017
0.000293871
0.000294516
0.000294947
0.000295159
0.000295153
0.000294933
0.000294504
0.00029387
0.000293036
0.000292008
0.000290791
0.000289392
0.000287816
0.000286072
0.000284165
0.0002821
0.000279883
0.000277518
0.000275014
0.000272383
0.000269643
0.000266827
0.000263982
0.00026116
0.000258378
0.000255574
0.000252582
0.000249237
0.000245297
0.000240552
0.000243181
0.000245915
0.000248769
0.000251686
0.000254617
0.000257525
0.000260379
0.000263152
0.000265826
0.000268382
0.000270809
0.000273097
0.000275239
0.000277232
0.000279077
0.000280771
0.000282312
0.000283691
0.000284898
0.000285923
0.000286754
0.000287383
0.000287804
0.000288012
0.000288008
0.000287794
0.000287376
0.000286758
0.000285944
0.000284939
0.00028375
0.000282383
0.000280844
0.000279139
0.000277273
0.000275252
0.000273081
0.000270767
0.000268318
0.000265749
0.00026308
0.000260347
0.000257593
0.000254863
0.000252148
0.000249317
0.000246177
0.000242592
0.000238395
0.000234639
0.000237193
0.000239858
0.000242643
0.000245491
0.000248354
0.000251195
0.000253984
0.000256696
0.000259311
0.000261814
0.000264191
0.000266432
0.00026853
0.000270483
0.000272288
0.000273946
0.000275453
0.0002768
0.000277979
0.000278978
0.000279788
0.0002804
0.00028081
0.000281014
0.000281011
0.000280805
0.000280397
0.000279794
0.000278999
0.000278018
0.000276857
0.00027552
0.000274016
0.00027235
0.000270525
0.000268547
0.000266422
0.000264157
0.000261764
0.000259257
0.00025666
0.000254004
0.000251329
0.00024866
0.000245956
0.000243008
0.000239638
0.000235773
0.000231362
0.000228874
0.000231352
0.000233948
0.000236664
0.000239443
0.000242238
0.000245014
0.000247739
0.00025039
0.000252948
0.000255397
0.000257725
0.000259921
0.000261977
0.000263889
0.000265656
0.000267277
0.000268749
0.000270064
0.000271213
0.000272186
0.000272975
0.000273571
0.000273971
0.00027417
0.000274168
0.000273968
0.000273571
0.000272982
0.000272207
0.000271249
0.000270114
0.000268808
0.000267338
0.000265709
0.000263923
0.000261987
0.000259907
0.000257692
0.000255354
0.000252909
0.00025038
0.000247796
0.00024518
0.000242526
0.000239749
0.000236583
0.000232914
0.000228771
0.000224257
0.000223267
0.000225669
0.000228194
0.000230842
0.000233552
0.000236281
0.00023899
0.000241652
0.000244243
0.000246743
0.000249139
0.000251418
0.00025357
0.000255587
0.00025746
0.00025919
0.000260774
0.00026221
0.000263492
0.00026461
0.000265556
0.000266323
0.000266904
0.000267293
0.000267488
0.000267487
0.000267292
0.000266905
0.000266331
0.000265574
0.000264638
0.000263529
0.000262253
0.000260815
0.000259221
0.000257473
0.000255577
0.000253542
0.000251376
0.000249093
0.000246708
0.000244244
0.000241719
0.000239138
0.00023644
0.000233481
0.000229996
0.000225995
0.000221635
0.0002172
0.000217829
0.000220152
0.000222607
0.000225186
0.000227828
0.00023049
0.000233134
0.000235733
0.000238264
0.000240708
0.000243051
0.000245282
0.000247391
0.00024937
0.000251207
0.000252902
0.00025445
0.000255847
0.000257094
0.000258179
0.000259098
0.000259844
0.000260409
0.000260788
0.000260977
0.000260977
0.000260787
0.000260411
0.000259851
0.000259112
0.000258198
0.000257114
0.000255865
0.000254457
0.000252896
0.000251183
0.000249327
0.000247335
0.000245219
0.000242989
0.000240661
0.000238254
0.000235776
0.0002332
0.000230392
0.000227119
0.000223237
0.00021893
0.000214485
0.000210377
0.000212565
0.00021481
0.000217195
0.000219705
0.000222281
0.000224876
0.000227456
0.000229993
0.000232464
0.000234852
0.000237143
0.000239326
0.000241394
0.000243336
0.000245141
0.000246803
0.000248314
0.000249673
0.000250882
0.000251934
0.000252825
0.000253549
0.000254098
0.000254467
0.000254652
0.000254651
0.000254467
0.0002541
0.000253554
0.000252833
0.00025194
0.00025088
0.000249657
0.000248276
0.000246745
0.000245065
0.000243246
0.000241298
0.000239229
0.000237051
0.000234776
0.000232419
0.000229971
0.000227366
0.000224383
0.000220655
0.000216351
0.000211842
0.00020752
0.000204027
0.00020748
0.000209648
0.000211963
0.000214405
0.000216915
0.000219446
0.000221963
0.000224438
0.000226851
0.000229183
0.000231422
0.000233558
0.000235584
0.000237492
0.000239267
0.000240898
0.000242375
0.000243696
0.000244866
0.000245883
0.000246746
0.000247449
0.000247982
0.000248341
0.000248521
0.000248521
0.000248341
0.000247984
0.000247451
0.000246747
0.000245875
0.000244838
0.000243639
0.000242283
0.000240778
0.000239129
0.000237347
0.000235441
0.000233419
0.00023129
0.000229062
0.000226744
0.000224307
0.000221644
0.000218431
0.000214122
0.00020945
0.000204928
0.000201007
0.000198429
0.000202565
0.00020466
0.000206908
0.000209285
0.000211731
0.000214198
0.000216654
0.00021907
0.000221426
0.000223704
0.000225891
0.00022798
0.000229964
0.000231837
0.000233584
0.000235186
0.000236632
0.000237916
0.000239047
0.00024003
0.000240867
0.000241549
0.000242068
0.000242417
0.000242592
0.000242592
0.000242417
0.000242068
0.000241548
0.000240861
0.000240008
0.000238993
0.000237817
0.000236484
0.000235003
0.000233383
0.000231637
0.000229774
0.000227797
0.000225713
0.000223526
0.000221235
0.000218791
0.000216043
0.000212568
0.000207602
0.00020272
0.000198458
0.000195258
0.000193878
0.000197804
0.000199833
0.000202017
0.000204333
0.000206716
0.000209124
0.00021152
0.000213879
0.00021618
0.000218405
0.000220543
0.000222584
0.000224524
0.000226361
0.00022808
0.000229653
0.000231069
0.000232321
0.000233416
0.00023437
0.000235183
0.000235846
0.00023635
0.00023669
0.00023686
0.00023686
0.000236689
0.000236349
0.000235842
0.00023517
0.000234336
0.000233342
0.000232189
0.000230878
0.000229419
0.000227828
0.000226119
0.000224297
0.000222363
0.000220321
0.000218169
0.000215893
0.000213425
0.000210572
0.000206834
0.000201232
0.00019641
0.000192743
0.000190598
0.000190242
0.000193164
0.000195136
0.000197264
0.000199521
0.000201847
0.000204197
0.000206538
0.000208843
0.000211091
0.000213266
0.000215355
0.00021735
0.000219244
0.000221039
0.000222725
0.000224269
0.000225658
0.000226885
0.000227951
0.000228881
0.000229675
0.000230321
0.000230813
0.000231143
0.00023131
0.000231309
0.000231143
0.000230811
0.000230315
0.000229658
0.000228843
0.000227869
0.000226739
0.000225451
0.000224015
0.000222456
0.000220785
0.000219003
0.000217111
0.000215107
0.000212983
0.000210711
0.000208205
0.000205235
0.000201267
0.000195207
0.000190814
0.000188102
0.000186916
0.0001886
0.000190526
0.000192604
0.000194809
0.000197082
0.00019938
0.000201669
0.000203923
0.000206122
0.00020825
0.000210292
0.00021224
0.000214086
0.00021583
0.000217475
0.000218984
0.00022035
0.000221562
0.000222612
0.000223529
0.000224308
0.00022494
0.000225421
0.000225744
0.000225906
0.000225905
0.000225743
0.000225418
0.000224934
0.000224291
0.000223493
0.000222541
0.000221434
0.000220174
0.000218766
0.000217243
0.000215612
0.00021387
0.000212017
0.000210048
0.000207947
0.000205672
0.000203121
0.00020003
0.000195892
0.000189767
0.000186237
0.000184426
0.000184051
0.000185945
0.000187982
0.000190141
0.000192367
0.000194617
0.000196858
0.000199066
0.000201219
0.000203302
0.0002053
0.000207202
0.000208996
0.000210681
0.000212269
0.000213736
0.000215079
0.000216289
0.000217343
0.000218259
0.00021903
0.000219652
0.000220122
0.000220438
0.000220596
0.000220596
0.000220437
0.00022012
0.000219646
0.000219017
0.000218236
0.000217305
0.000216226
0.000214999
0.000213629
0.000212151
0.000210562
0.000208859
0.000207042
0.000205105
0.000203026
0.000200746
0.000198148
0.000194944
0.000190708
0.00018518
0.000182564
0.000179452
0.000181326
0.000183331
0.000185451
0.000187634
0.00018984
0.000192039
0.000194204
0.000196315
0.000198356
0.000200312
0.000202169
0.000203909
0.000205524
0.000207033
0.000208448
0.000209771
0.000210989
0.000212072
0.000213002
0.000213771
0.000214386
0.000214848
0.000215158
0.000215313
0.000215313
0.000215157
0.000214846
0.000214382
0.000213767
0.000213003
0.000212094
0.000211046
0.000209862
0.000208547
0.000207123
0.000205579
0.000203914
0.000202132
0.000200225
0.000198168
0.000195889
0.000193252
0.000189954
0.000185684
0.000181324
0.000174735
0.000176601
0.000178581
0.000180666
0.000182812
0.000184979
0.000187138
0.000189263
0.000191335
0.000193338
0.000195254
0.000197066
0.000198753
0.000200288
0.000201692
0.000203045
0.000204345
0.000205583
0.000206724
0.00020768
0.000208454
0.000209064
0.000209519
0.000209824
0.000209976
0.000209976
0.000209823
0.000209519
0.000209065
0.000208462
0.000207716
0.000206831
0.000205816
0.000204688
0.000203449
0.00020209
0.000200592
0.000198965
0.000197215
0.000195339
0.000193309
0.000191045
0.000188388
0.000185026
0.000180761
0.000169846
0.00017171
0.00017367
0.000175725
0.000177836
0.000179966
0.000182087
0.000184175
0.00018621
0.000188175
0.000190052
0.000191823
0.000193456
0.000194909
0.000196179
0.000197462
0.000198738
0.0002
0.000201227
0.000202219
0.000202999
0.000203606
0.000204056
0.000204356
0.000204505
0.000204505
0.000204356
0.000204058
0.000203613
0.000203024
0.000202296
0.000201435
0.000200459
0.000199396
0.00019826
0.000196974
0.000195524
0.000193933
0.000192214
0.00019037
0.000188375
0.000186151
0.000183502
0.000180125
0.000175884
0.000164758
0.000166619
0.00016856
0.000170586
0.000172662
0.000174756
0.00017684
0.00017889
0.000180887
0.000182815
0.000184654
0.000186384
0.000187968
0.000189342
0.000190457
0.000191669
0.000192916
0.000194196
0.000195532
0.000196559
0.000197346
0.00019795
0.000198395
0.00019869
0.000198837
0.000198837
0.000198691
0.0001984
0.000197965
0.000197389
0.000196679
0.000195844
0.000194909
0.000193918
0.000192912
0.000191703
0.000190299
0.000188743
0.000187057
0.000185246
0.000183298
0.000181147
0.00017854
0.000175214
0.000171032
0.000159482
0.000161332
0.000163249
0.000165244
0.000167283
0.000169338
0.000171382
0.000173393
0.000175351
0.000177239
0.000179039
0.000180729
0.000182269
0.000183577
0.000184534
0.000185679
0.000186894
0.000188177
0.000189624
0.000190676
0.000191466
0.000192066
0.000192505
0.000192795
0.00019294
0.00019294
0.000192798
0.000192513
0.000192088
0.000191527
0.000190835
0.000190027
0.000189132
0.000188215
0.000187359
0.000186223
0.000184863
0.000183341
0.000181687
0.000179914
0.000178023
0.000175982
0.000173457
0.000170269
0.000166254
0.000154081
0.000155905
0.000157789
0.000159745
0.000161742
0.000163753
0.000165752
0.000167718
0.000169633
0.000171478
0.000173237
0.000174887
0.000176389
0.000177654
0.000178477
0.000179572
0.00018075
0.000182011
0.000183541
0.000184597
0.000185381
0.000185974
0.000186406
0.000186691
0.000186833
0.000186834
0.000186695
0.000186418
0.000186003
0.000185457
0.000184785
0.000184004
0.000183147
0.000182294
0.000181592
0.000180515
0.000179194
0.000177707
0.000176089
0.000174357
0.000172533
0.000170634
0.000168228
0.000165276
0.000161675
0.000148676
0.000150449
0.000152288
0.000154195
0.000156141
0.0001581
0.000160047
0.000161963
0.000163828
0.000165626
0.00016734
0.000168949
0.000170418
0.000171669
0.000172425
0.000173494
0.000174633
0.00017584
0.00017738
0.000178408
0.000179177
0.00017976
0.000180184
0.000180463
0.000180603
0.000180604
0.000180469
0.000180199
0.000179796
0.000179265
0.000178613
0.000177858
0.000177035
0.000176227
0.000175652
0.000174615
0.000173327
0.000171876
0.000170297
0.000168612
0.000166857
0.000165122
0.000162863
0.000160243
0.000157492
0.00014344
0.000145137
0.000146913
0.000148759
0.000150644
0.000152541
0.000154428
0.000156285
0.000158094
0.000159839
0.000161504
0.00016307
0.000164512
0.000165777
0.000166581
0.000167653
0.000168752
0.000169875
0.000171303
0.000172268
0.00017301
0.000173578
0.000173993
0.000174266
0.000174402
0.000174404
0.000174273
0.000174011
0.00017362
0.000173105
0.000172474
0.000171744
0.000170947
0.000170158
0.000169645
0.000168618
0.00016736
0.000165948
0.000164413
0.000162778
0.00016109
0.000159513
0.000157417
0.0001552
0.000153641
0.000138592
0.000140185
0.000141881
0.000143653
0.000145466
0.000147292
0.00014911
0.000150901
0.000152647
0.000154333
0.000155944
0.000157465
0.000158882
0.000160182
0.000161203
0.000162303
0.000163365
0.000164381
0.00016552
0.000166393
0.000167099
0.000167649
0.000168053
0.000168319
0.000168452
0.000168454
0.000168327
0.000168073
0.000167694
0.000167195
0.000166585
0.000165878
0.000165099
0.000164301
0.000163735
0.000162693
0.000161461
0.00016009
0.000158604
0.000157023
0.000155393
0.000153931
0.000151999
0.000150211
0.000134375
0.000135842
0.000137442
0.000139128
0.000140858
0.000142605
0.000144347
0.000146065
0.000147742
0.000149364
0.000150918
0.000152392
0.000153785
0.000155127
0.000156575
0.000157719
0.000158747
0.000159651
0.000160283
0.000161044
0.000161708
0.000162237
0.000162629
0.000162888
0.000163017
0.00016302
0.000162897
0.000162651
0.000162284
0.000161801
0.000161211
0.000160524
0.000159757
0.000158923
0.000158139
0.000157063
0.000155856
0.000154531
0.000153098
0.000151574
0.000149989
0.000148556
0.000146776
0.000145385
0.000131039
0.000132363
0.000133855
0.000135444
0.000137084
0.000138745
0.000140405