/*--------------------------------*- C++ -*----------------------------------*\
  =========                 |
  \\      /  F ield         | OpenFOAM: The Open Source CFD Toolbox
   \\    /   O peration     | Website:  https://openfoam.org
    \\  /    A nd           | Version:  7
     \\/     M anipulation  |
\*---------------------------------------------------------------------------*/
FoamFile
{
    version     2.0;
    format      ascii;
    class       volScalarField;
    location    "156000";
    object      nut;
}
// * * * * * * * * * * * * * * * * * * * * * * * * * * * * * * * * * * * * * //

dimensions      [0 2 -1 0 0 0 0];

internalField   nonuniform List<scalar> 
4844
(
2.63315e-05
2.62867e-05
2.62376e-05
2.61436e-05
2.60982e-05
2.60484e-05
2.59941e-05
2.59354e-05
2.58725e-05
2.58053e-05
2.57339e-05
2.59526e-05
2.59065e-05
2.5856e-05
2.5801e-05
2.57416e-05
2.56778e-05
2.56098e-05
2.55375e-05
2.54611e-05
2.53806e-05
2.52961e-05
2.57584e-05
2.57117e-05
2.56606e-05
2.56049e-05
2.55448e-05
2.54803e-05
2.54114e-05
2.53383e-05
2.5261e-05
2.51796e-05
2.50942e-05
2.5005e-05
2.49119e-05
2.48153e-05
2.47151e-05
2.46115e-05
2.55612e-05
2.5514e-05
2.54622e-05
2.54059e-05
2.53451e-05
2.52799e-05
2.52103e-05
2.51364e-05
2.50583e-05
2.49761e-05
2.48898e-05
2.47997e-05
2.47058e-05
2.46082e-05
2.45072e-05
2.44027e-05
2.53611e-05
2.53134e-05
2.52611e-05
2.52042e-05
2.51427e-05
2.50768e-05
2.50065e-05
2.49319e-05
2.4853e-05
2.477e-05
2.46829e-05
2.4592e-05
2.44972e-05
2.43989e-05
2.4297e-05
2.41917e-05
2.51101e-05
2.50572e-05
2.49997e-05
2.49376e-05
2.48711e-05
2.48001e-05
2.47248e-05
2.46452e-05
2.45614e-05
2.44737e-05
2.43819e-05
2.42864e-05
2.41873e-05
2.40846e-05
2.39785e-05
2.4904e-05
2.48507e-05
2.47926e-05
2.473e-05
2.46629e-05
2.45913e-05
2.45153e-05
2.4435e-05
2.43506e-05
2.42621e-05
2.41696e-05
2.40734e-05
2.39735e-05
2.38702e-05
2.37634e-05
2.46955e-05
2.46416e-05
2.45831e-05
2.45199e-05
2.44522e-05
2.438e-05
2.43034e-05
2.42225e-05
2.41374e-05
2.40483e-05
2.39552e-05
2.38583e-05
2.37577e-05
2.36537e-05
2.35462e-05
2.4534e-05
2.44845e-05
2.44302e-05
2.43712e-05
2.43075e-05
2.42392e-05
2.41665e-05
2.40893e-05
2.40078e-05
2.39222e-05
2.38324e-05
2.37387e-05
2.36411e-05
2.354e-05
2.34353e-05
2.33272e-05
2.4321e-05
2.42711e-05
2.42164e-05
2.41569e-05
2.40928e-05
2.4024e-05
2.39508e-05
2.38731e-05
2.37911e-05
2.37048e-05
2.36145e-05
2.35202e-05
2.34221e-05
2.33203e-05
2.32151e-05
2.31065e-05
2.41057e-05
2.40554e-05
2.40003e-05
2.39405e-05
2.38759e-05
2.38067e-05
2.3733e-05
2.36548e-05
2.35722e-05
2.34855e-05
2.33946e-05
2.32998e-05
2.32012e-05
2.30989e-05
2.29932e-05
2.2884e-05
2.38882e-05
2.38376e-05
2.37821e-05
2.37219e-05
2.36569e-05
2.35873e-05
2.35131e-05
2.34345e-05
2.33515e-05
2.32643e-05
2.31729e-05
2.30776e-05
2.29785e-05
2.28758e-05
2.27696e-05
2.26599e-05
2.37145e-05
2.36686e-05
2.36177e-05
2.35619e-05
2.35013e-05
2.3436e-05
2.33659e-05
2.32914e-05
2.32123e-05
2.31289e-05
2.30412e-05
2.29495e-05
2.28537e-05
2.27542e-05
2.2651e-05
2.25444e-05
2.24343e-05
2.34932e-05
2.34469e-05
2.33958e-05
2.33397e-05
2.32788e-05
2.32131e-05
2.31427e-05
2.30678e-05
2.29884e-05
2.29046e-05
2.28165e-05
2.27243e-05
2.26282e-05
2.25283e-05
2.24247e-05
2.23177e-05
2.22073e-05
2.33113e-05
2.32699e-05
2.32234e-05
2.3172e-05
2.31156e-05
2.30544e-05
2.29884e-05
2.29177e-05
2.28424e-05
2.27627e-05
2.26785e-05
2.25901e-05
2.24976e-05
2.24011e-05
2.23009e-05
2.21969e-05
2.20896e-05
2.19789e-05
2.30863e-05
2.30447e-05
2.2998e-05
2.29463e-05
2.28897e-05
2.28282e-05
2.2762e-05
2.2691e-05
2.26154e-05
2.25354e-05
2.24509e-05
2.23622e-05
2.22694e-05
2.21726e-05
2.2072e-05
2.19678e-05
2.18602e-05
2.17492e-05
2.28595e-05
2.28177e-05
2.27708e-05
2.2719e-05
2.26621e-05
2.26004e-05
2.25339e-05
2.24627e-05
2.23869e-05
2.23065e-05
2.22218e-05
2.21328e-05
2.20397e-05
2.19427e-05
2.18418e-05
2.17373e-05
2.16295e-05
2.15183e-05
2.2631e-05
2.25891e-05
2.2542e-05
2.249e-05
2.24329e-05
2.2371e-05
2.23043e-05
2.22328e-05
2.21568e-05
2.20762e-05
2.19913e-05
2.1902e-05
2.18087e-05
2.17114e-05
2.16104e-05
2.15057e-05
2.13976e-05
2.12862e-05
2.24009e-05
2.23588e-05
2.23116e-05
2.22594e-05
2.22022e-05
2.21401e-05
2.20732e-05
2.20015e-05
2.19253e-05
2.18445e-05
2.17594e-05
2.16699e-05
2.15764e-05
2.1479e-05
2.13777e-05
2.12728e-05
2.11646e-05
2.10531e-05
2.21693e-05
2.2127e-05
2.20797e-05
2.20274e-05
2.197e-05
2.19077e-05
2.18407e-05
2.17689e-05
2.16924e-05
2.16115e-05
2.15262e-05
2.14366e-05
2.13429e-05
2.12453e-05
2.11439e-05
2.10389e-05
2.09306e-05
2.08189e-05
2.19361e-05
2.18938e-05
2.18464e-05
2.17939e-05
2.17364e-05
2.1674e-05
2.16068e-05
2.15349e-05
2.14583e-05
2.13773e-05
2.12918e-05
2.12021e-05
2.11083e-05
2.10106e-05
2.09091e-05
2.0804e-05
2.06956e-05
2.05839e-05
2.17016e-05
2.16592e-05
2.16117e-05
2.15591e-05
2.15016e-05
2.14391e-05
2.13718e-05
2.12997e-05
2.12231e-05
2.11419e-05
2.10563e-05
2.09666e-05
2.08727e-05
2.07749e-05
2.06733e-05
2.05682e-05
2.04597e-05
2.0348e-05
2.14658e-05
2.14234e-05
2.13758e-05
2.13231e-05
2.12655e-05
2.12029e-05
2.11355e-05
2.10634e-05
2.09867e-05
2.09054e-05
2.08198e-05
2.073e-05
2.06361e-05
2.05382e-05
2.04366e-05
2.03315e-05
2.0223e-05
2.01113e-05
2.12288e-05
2.11863e-05
2.11387e-05
2.1086e-05
2.10282e-05
2.09656e-05
2.08982e-05
2.0826e-05
2.07492e-05
2.0668e-05
2.05823e-05
2.04925e-05
2.03985e-05
2.03007e-05
2.01991e-05
2.0094e-05
1.99856e-05
1.98739e-05
2.09907e-05
2.09481e-05
2.09004e-05
2.08477e-05
2.07899e-05
2.07273e-05
2.06598e-05
2.05876e-05
2.05108e-05
2.04296e-05
2.03439e-05
2.02541e-05
2.01602e-05
2.00623e-05
1.99608e-05
1.98558e-05
1.97474e-05
1.96359e-05
2.07514e-05
2.07089e-05
2.06612e-05
2.06084e-05
2.05506e-05
2.0488e-05
2.04205e-05
2.03483e-05
2.02716e-05
2.01903e-05
2.01047e-05
2.00149e-05
1.9921e-05
1.98233e-05
1.97218e-05
1.96169e-05
1.95087e-05
1.93973e-05
2.05112e-05
2.04686e-05
2.04209e-05
2.03682e-05
2.03104e-05
2.02478e-05
2.01803e-05
2.01082e-05
2.00314e-05
1.99502e-05
1.98647e-05
1.9775e-05
1.96812e-05
1.95836e-05
1.94822e-05
1.93774e-05
1.92694e-05
1.91582e-05
2.027e-05
2.02275e-05
2.01798e-05
2.01271e-05
2.00694e-05
2.00068e-05
1.99394e-05
1.98673e-05
1.97906e-05
1.97095e-05
1.9624e-05
1.95344e-05
1.94407e-05
1.93433e-05
1.92421e-05
1.91374e-05
1.90296e-05
1.89186e-05
2.0028e-05
1.99855e-05
1.99379e-05
1.98852e-05
1.98275e-05
1.9765e-05
1.96976e-05
1.96256e-05
1.9549e-05
1.9468e-05
1.93827e-05
1.92932e-05
1.91997e-05
1.91024e-05
1.90014e-05
1.8897e-05
1.87893e-05
1.86786e-05
1.98226e-05
1.97852e-05
1.97428e-05
1.96952e-05
1.96425e-05
1.95849e-05
1.95225e-05
1.94553e-05
1.93833e-05
1.93069e-05
1.9226e-05
1.91408e-05
1.90515e-05
1.89582e-05
1.88611e-05
1.87603e-05
1.86561e-05
1.85487e-05
1.84383e-05
1.9579e-05
1.95417e-05
1.94993e-05
1.94518e-05
1.93992e-05
1.93417e-05
1.92794e-05
1.92123e-05
1.91405e-05
1.90642e-05
1.89835e-05
1.88985e-05
1.88094e-05
1.87163e-05
1.86194e-05
1.85189e-05
1.8415e-05
1.83078e-05
1.81977e-05
1.93668e-05
1.93348e-05
1.92976e-05
1.92552e-05
1.92078e-05
1.91554e-05
1.9098e-05
1.90357e-05
1.89687e-05
1.88971e-05
1.8821e-05
1.87405e-05
1.86557e-05
1.85668e-05
1.84739e-05
1.83773e-05
1.82771e-05
1.81735e-05
1.80667e-05
1.79569e-05
1.91219e-05
1.909e-05
1.90529e-05
1.90106e-05
1.89633e-05
1.89109e-05
1.88537e-05
1.87916e-05
1.87248e-05
1.86533e-05
1.85774e-05
1.84971e-05
1.84125e-05
1.83239e-05
1.82313e-05
1.8135e-05
1.80351e-05
1.79318e-05
1.78254e-05
1.77159e-05
1.88765e-05
1.88447e-05
1.88076e-05
1.87655e-05
1.87183e-05
1.8666e-05
1.86089e-05
1.8547e-05
1.84804e-05
1.84091e-05
1.83334e-05
1.82533e-05
1.81691e-05
1.80807e-05
1.79884e-05
1.78924e-05
1.77929e-05
1.76899e-05
1.75839e-05
1.74749e-05
1.86307e-05
1.85989e-05
1.8562e-05
1.85199e-05
1.84728e-05
1.84208e-05
1.83638e-05
1.83021e-05
1.82356e-05
1.81646e-05
1.80892e-05
1.80093e-05
1.79253e-05
1.78373e-05
1.77454e-05
1.76497e-05
1.75505e-05
1.7448e-05
1.73424e-05
1.72338e-05
1.83844e-05
1.83527e-05
1.83159e-05
1.8274e-05
1.8227e-05
1.81751e-05
1.81184e-05
1.80568e-05
1.79906e-05
1.79199e-05
1.78447e-05
1.77651e-05
1.76814e-05
1.75937e-05
1.75022e-05
1.74069e-05
1.73081e-05
1.7206e-05
1.71008e-05
1.69927e-05
1.81378e-05
1.81062e-05
1.80695e-05
1.80277e-05
1.7981e-05
1.79292e-05
1.78727e-05
1.78114e-05
1.77454e-05
1.76749e-05
1.76e-05
1.75208e-05
1.74374e-05
1.73501e-05
1.72589e-05
1.7164e-05
1.70657e-05
1.6964e-05
1.68593e-05
1.67517e-05
1.78909e-05
1.78594e-05
1.78229e-05
1.77813e-05
1.77346e-05
1.76831e-05
1.76268e-05
1.75657e-05
1.75e-05
1.74298e-05
1.73552e-05
1.72763e-05
1.71933e-05
1.71064e-05
1.70156e-05
1.69211e-05
1.68233e-05
1.67221e-05
1.66179e-05
1.65108e-05
1.76438e-05
1.76125e-05
1.7576e-05
1.75346e-05
1.74882e-05
1.74368e-05
1.73807e-05
1.73199e-05
1.72545e-05
1.71846e-05
1.71103e-05
1.70318e-05
1.69492e-05
1.68627e-05
1.67723e-05
1.66783e-05
1.65809e-05
1.64803e-05
1.63766e-05
1.62701e-05
1.73965e-05
1.73653e-05
1.73291e-05
1.72878e-05
1.72416e-05
1.71905e-05
1.71346e-05
1.70741e-05
1.7009e-05
1.69394e-05
1.68655e-05
1.67873e-05
1.67051e-05
1.6619e-05
1.65291e-05
1.64357e-05
1.63388e-05
1.62387e-05
1.61356e-05
1.60296e-05
1.71492e-05
1.71181e-05
1.7082e-05
1.70409e-05
1.69949e-05
1.69441e-05
1.68885e-05
1.68282e-05
1.67634e-05
1.66942e-05
1.66206e-05
1.65429e-05
1.64612e-05
1.63755e-05
1.62861e-05
1.61931e-05
1.60968e-05
1.59972e-05
1.58947e-05
1.57894e-05
1.69018e-05
1.68709e-05
1.68349e-05
1.6794e-05
1.67483e-05
1.66977e-05
1.66424e-05
1.65824e-05
1.6518e-05
1.64491e-05
1.63759e-05
1.62986e-05
1.62173e-05
1.61322e-05
1.60433e-05
1.59508e-05
1.58551e-05
1.57561e-05
1.56542e-05
1.55495e-05
1.66544e-05
1.66236e-05
1.65879e-05
1.65472e-05
1.65017e-05
1.64513e-05
1.63963e-05
1.63367e-05
1.62726e-05
1.62041e-05
1.61314e-05
1.60545e-05
1.59737e-05
1.5889e-05
1.58007e-05
1.57088e-05
1.56136e-05
1.55153e-05
1.5414e-05
1.531e-05
1.64071e-05
1.63765e-05
1.63409e-05
1.63005e-05
1.62552e-05
1.62051e-05
1.61504e-05
1.60912e-05
1.60274e-05
1.59594e-05
1.58871e-05
1.58107e-05
1.57303e-05
1.56462e-05
1.55584e-05
1.54671e-05
1.53725e-05
1.52748e-05
1.51742e-05
1.50709e-05
1.61599e-05
1.61295e-05
1.60941e-05
1.60539e-05
1.60089e-05
1.59591e-05
1.59048e-05
1.58458e-05
1.57825e-05
1.57148e-05
1.5643e-05
1.55671e-05
1.54873e-05
1.54037e-05
1.53164e-05
1.52258e-05
1.51318e-05
1.50348e-05
1.49349e-05
1.48323e-05
1.59129e-05
1.58826e-05
1.58475e-05
1.58075e-05
1.57628e-05
1.57133e-05
1.56593e-05
1.56008e-05
1.55378e-05
1.54706e-05
1.53992e-05
1.53238e-05
1.52445e-05
1.51615e-05
1.50749e-05
1.49849e-05
1.48916e-05
1.47952e-05
1.4696e-05
1.45942e-05
1.56661e-05
1.5636e-05
1.56011e-05
1.55614e-05
1.5517e-05
1.54678e-05
1.54142e-05
1.5356e-05
1.52935e-05
1.52267e-05
1.51558e-05
1.5081e-05
1.50022e-05
1.49198e-05
1.48338e-05
1.47444e-05
1.46518e-05
1.45562e-05
1.44577e-05
1.43567e-05
1.54196e-05
1.53898e-05
1.53551e-05
1.53156e-05
1.52715e-05
1.52227e-05
1.51694e-05
1.51116e-05
1.50495e-05
1.49832e-05
1.49129e-05
1.48385e-05
1.47604e-05
1.46785e-05
1.45932e-05
1.45045e-05
1.44126e-05
1.43177e-05
1.422e-05
1.41197e-05
1.51734e-05
1.51438e-05
1.51094e-05
1.50702e-05
1.50263e-05
1.49779e-05
1.4925e-05
1.48676e-05
1.4806e-05
1.47402e-05
1.46703e-05
1.45966e-05
1.4519e-05
1.44378e-05
1.43531e-05
1.42651e-05
1.41739e-05
1.40798e-05
1.39828e-05
1.38834e-05
1.49277e-05
1.48982e-05
1.48641e-05
1.48252e-05
1.47816e-05
1.47336e-05
1.4681e-05
1.46241e-05
1.45629e-05
1.44976e-05
1.44283e-05
1.43551e-05
1.42782e-05
1.41976e-05
1.41136e-05
1.40263e-05
1.39359e-05
1.38425e-05
1.37464e-05
1.36478e-05
1.46823e-05
1.46531e-05
1.46192e-05
1.45806e-05
1.45374e-05
1.44897e-05
1.44376e-05
1.43811e-05
1.43204e-05
1.42556e-05
1.41869e-05
1.41143e-05
1.40379e-05
1.3958e-05
1.38747e-05
1.37882e-05
1.36985e-05
1.36059e-05
1.35106e-05
1.34129e-05
1.44375e-05
1.44085e-05
1.43748e-05
1.43365e-05
1.42937e-05
1.42464e-05
1.41946e-05
1.41386e-05
1.40785e-05
1.40142e-05
1.3946e-05
1.3874e-05
1.37983e-05
1.37191e-05
1.36365e-05
1.35507e-05
1.34618e-05
1.33701e-05
1.32756e-05
1.31757e-05
1.41932e-05
1.41644e-05
1.4131e-05
1.4093e-05
1.40505e-05
1.40036e-05
1.39523e-05
1.38968e-05
1.38371e-05
1.37734e-05
1.37058e-05
1.36344e-05
1.35594e-05
1.34809e-05
1.3399e-05
1.3314e-05
1.32259e-05
1.3135e-05
1.30414e-05
1.29362e-05
1.39494e-05
1.39209e-05
1.38878e-05
1.38501e-05
1.3808e-05
1.37615e-05
1.37106e-05
1.36556e-05
1.35964e-05
1.35333e-05
1.34663e-05
1.33955e-05
1.33212e-05
1.32434e-05
1.31623e-05
1.30781e-05
1.29908e-05
1.29007e-05
1.2808e-05
1.26964e-05
1.35661e-05
1.352e-05
1.34696e-05
1.34151e-05
1.33564e-05
1.32939e-05
1.32275e-05
1.31574e-05
1.30837e-05
1.30067e-05
1.29264e-05
1.28429e-05
1.27565e-05
1.26657e-05
1.25701e-05
1.24572e-05
1.31172e-05
1.30552e-05
1.29894e-05
1.292e-05
1.28471e-05
1.27708e-05
1.26913e-05
1.26065e-05
1.25179e-05
1.24259e-05
1.23299e-05
1.22191e-05
2.37634e-05
2.38702e-05
2.35462e-05
2.36537e-05
2.33273e-05
2.34353e-05
2.31065e-05
2.32151e-05
2.33204e-05
2.2884e-05
2.29932e-05
2.30989e-05
2.266e-05
2.27696e-05
2.28758e-05
2.29785e-05
2.24344e-05
2.25444e-05
2.2651e-05
2.27542e-05
2.22073e-05
2.23177e-05
2.24247e-05
2.25283e-05
2.19789e-05
2.20896e-05
2.2197e-05
2.23009e-05
2.24012e-05
2.17492e-05
2.18602e-05
2.19678e-05
2.2072e-05
2.21726e-05
2.15183e-05
2.16295e-05
2.17374e-05
2.18418e-05
2.19427e-05
2.12862e-05
2.13976e-05
2.15057e-05
2.16104e-05
2.17114e-05
2.10531e-05
2.11646e-05
2.12729e-05
2.13777e-05
2.1479e-05
2.0819e-05
2.09306e-05
2.1039e-05
2.11439e-05
2.12453e-05
2.05839e-05
2.06956e-05
2.0804e-05
2.09091e-05
2.10106e-05
2.11084e-05
2.0348e-05
2.04597e-05
2.05682e-05
2.06733e-05
2.07749e-05
2.08727e-05
2.01114e-05
2.0223e-05
2.03315e-05
2.04366e-05
2.05382e-05
2.06361e-05
2.073e-05
1.9874e-05
1.99856e-05
2.0094e-05
2.01991e-05
2.03007e-05
2.03985e-05
2.04925e-05
2.05823e-05
1.96359e-05
1.97474e-05
1.98558e-05
1.99608e-05
2.00624e-05
2.01602e-05
2.02541e-05
2.03439e-05
2.04296e-05
1.93973e-05
1.95087e-05
1.96169e-05
1.97219e-05
1.98233e-05
1.9921e-05
2.00149e-05
2.01047e-05
2.01903e-05
2.02716e-05
1.91582e-05
1.92694e-05
1.93775e-05
1.94823e-05
1.95836e-05
1.96812e-05
1.9775e-05
1.98647e-05
1.99503e-05
2.00315e-05
1.89186e-05
1.90296e-05
1.91375e-05
1.92421e-05
1.93433e-05
1.94408e-05
1.95344e-05
1.9624e-05
1.97095e-05
1.97906e-05
1.86786e-05
1.87893e-05
1.8897e-05
1.90014e-05
1.91024e-05
1.91997e-05
1.92932e-05
1.93827e-05
1.9468e-05
1.95491e-05
1.84383e-05
1.85487e-05
1.86562e-05
1.87603e-05
1.88611e-05
1.89582e-05
1.90515e-05
1.91409e-05
1.9226e-05
1.93069e-05
1.81977e-05
1.83078e-05
1.8415e-05
1.85189e-05
1.86194e-05
1.87163e-05
1.88094e-05
1.88985e-05
1.89835e-05
1.90642e-05
1.79569e-05
1.80667e-05
1.81735e-05
1.82771e-05
1.83773e-05
1.8474e-05
1.85668e-05
1.86557e-05
1.87405e-05
1.8821e-05
1.77159e-05
1.78254e-05
1.79318e-05
1.80351e-05
1.8135e-05
1.82313e-05
1.83239e-05
1.84125e-05
1.84971e-05
1.85774e-05
1.74749e-05
1.75839e-05
1.769e-05
1.77929e-05
1.78924e-05
1.79884e-05
1.80807e-05
1.81691e-05
1.82534e-05
1.83334e-05
1.72338e-05
1.73424e-05
1.7448e-05
1.75505e-05
1.76497e-05
1.77454e-05
1.78373e-05
1.79254e-05
1.80094e-05
1.80892e-05
1.69927e-05
1.71008e-05
1.7206e-05
1.73081e-05
1.74069e-05
1.75022e-05
1.75937e-05
1.76815e-05
1.77651e-05
1.78447e-05
1.67517e-05
1.68593e-05
1.6964e-05
1.70657e-05
1.7164e-05
1.72589e-05
1.73501e-05
1.74374e-05
1.75208e-05
1.76e-05
1.65108e-05
1.66179e-05
1.67221e-05
1.68233e-05
1.69212e-05
1.70156e-05
1.71064e-05
1.71933e-05
1.72763e-05
1.73552e-05
2.37634e-05
2.35462e-05
2.33273e-05
2.31065e-05
2.2884e-05
2.266e-05
2.24344e-05
2.22073e-05
2.19789e-05
2.17492e-05
2.15183e-05
2.12862e-05
2.10531e-05
2.0819e-05
2.05839e-05
2.0348e-05
2.01114e-05
1.9874e-05
1.96359e-05
1.93973e-05
1.91582e-05
1.89186e-05
1.86786e-05
1.84383e-05
1.81977e-05
1.79569e-05
1.77159e-05
1.74749e-05
1.72338e-05
1.69927e-05
1.67517e-05
1.65108e-05
2.38702e-05
2.36537e-05
2.34353e-05
2.32151e-05
2.29932e-05
2.27696e-05
2.25444e-05
2.23177e-05
2.20896e-05
2.18602e-05
2.16295e-05
2.13976e-05
2.11646e-05
2.09306e-05
2.06956e-05
2.04597e-05
2.0223e-05
1.99856e-05
1.97474e-05
1.95087e-05
1.92694e-05
1.90296e-05
1.87893e-05
1.85487e-05
1.83078e-05
1.80667e-05
1.78254e-05
1.75839e-05
1.73424e-05
1.71008e-05
1.68593e-05
1.66179e-05
1.63766e-05
2.39735e-05
2.37577e-05
2.354e-05
2.33203e-05
2.30989e-05
2.28758e-05
2.2651e-05
2.24247e-05
2.2197e-05
2.19678e-05
2.17374e-05
2.15057e-05
2.12729e-05
2.1039e-05
2.0804e-05
2.05682e-05
2.03315e-05
2.0094e-05
1.98558e-05
1.96169e-05
1.93775e-05
1.91375e-05
1.8897e-05
1.86562e-05
1.8415e-05
1.81735e-05
1.79318e-05
1.769e-05
1.7448e-05
1.7206e-05
1.6964e-05
1.67221e-05
1.64803e-05
1.62387e-05
1.59973e-05
1.57561e-05
1.55153e-05
1.52748e-05
2.40734e-05
2.38583e-05
2.36412e-05
2.34221e-05
2.32012e-05
2.29785e-05
2.27542e-05
2.25283e-05
2.23009e-05
2.2072e-05
2.18418e-05
2.16104e-05
2.13777e-05
2.11439e-05
2.09091e-05
2.06733e-05
2.04366e-05
2.01991e-05
1.99608e-05
1.97219e-05
1.94823e-05
1.92421e-05
1.90014e-05
1.87603e-05
1.85189e-05
1.82771e-05
1.80351e-05
1.77929e-05
1.75505e-05
1.73081e-05
1.70657e-05
1.68233e-05
1.65809e-05
1.63388e-05
1.60968e-05
1.58551e-05
1.56136e-05
1.53725e-05
2.41697e-05
2.39552e-05
2.37387e-05
2.35202e-05
2.32998e-05
2.30776e-05
2.28538e-05
2.26282e-05
2.24012e-05
2.21726e-05
2.19427e-05
2.17114e-05
2.1479e-05
2.12453e-05
2.10106e-05
2.07749e-05
2.05382e-05
2.03007e-05
2.00624e-05
1.98233e-05
1.95836e-05
1.93433e-05
1.91024e-05
1.88611e-05
1.86194e-05
1.83773e-05
1.8135e-05
1.78924e-05
1.76497e-05
1.74069e-05
1.7164e-05
1.69212e-05
1.66784e-05
1.64357e-05
1.61931e-05
1.59509e-05
1.57088e-05
1.54671e-05
2.42621e-05
2.40483e-05
2.38324e-05
2.36145e-05
2.33946e-05
2.31729e-05
2.29495e-05
2.27244e-05
2.24976e-05
2.22694e-05
2.20397e-05
2.18087e-05
2.15764e-05
2.1343e-05
2.11083e-05
2.08727e-05
2.06361e-05
2.03985e-05
2.01602e-05
1.9921e-05
1.96812e-05
1.94408e-05
1.91997e-05
1.89582e-05
1.87163e-05
1.8474e-05
1.82313e-05
1.79884e-05
1.77454e-05
1.75022e-05
1.72589e-05
1.70156e-05
1.67723e-05
1.65291e-05
1.62861e-05
1.60433e-05
1.58007e-05
1.55584e-05
1.53165e-05
2.43506e-05
2.41375e-05
2.39222e-05
2.37048e-05
2.34855e-05
2.32643e-05
2.30413e-05
2.28165e-05
2.25902e-05
2.23622e-05
2.21328e-05
2.19021e-05
2.167e-05
2.14366e-05
2.12021e-05
2.09666e-05
2.073e-05
2.04925e-05
2.02541e-05
2.00149e-05
1.9775e-05
1.95344e-05
1.92932e-05
1.90515e-05
1.88094e-05
1.85668e-05
1.83239e-05
1.80807e-05
1.78373e-05
1.75937e-05
1.73501e-05
1.71064e-05
1.68627e-05
1.6619e-05
1.63755e-05
1.61322e-05
1.5889e-05
1.56462e-05
1.54037e-05
2.4435e-05
2.42225e-05
2.40079e-05
2.37911e-05
2.35722e-05
2.33515e-05
2.31289e-05
2.29046e-05
2.26785e-05
2.24509e-05
2.22218e-05
2.19913e-05
2.17594e-05
2.15262e-05
2.12918e-05
2.10564e-05
2.08198e-05
2.05823e-05
2.03439e-05
2.01047e-05
1.98647e-05
1.9624e-05
1.93827e-05
1.91408e-05
1.88985e-05
1.86557e-05
1.84125e-05
1.81691e-05
1.79254e-05
1.76815e-05
1.74374e-05
1.71933e-05
1.69492e-05
1.67051e-05
1.64612e-05
1.62173e-05
1.59737e-05
1.57303e-05
1.54873e-05
2.45153e-05
2.43034e-05
2.40893e-05
2.38731e-05
2.36548e-05
2.34345e-05
2.32123e-05
2.29884e-05
2.27627e-05
2.25354e-05
2.23065e-05
2.20762e-05
2.18445e-05
2.16115e-05
2.13773e-05
2.11419e-05
2.09054e-05
2.0668e-05
2.04296e-05
2.01903e-05
1.99502e-05
1.97095e-05
1.9468e-05
1.9226e-05
1.89835e-05
1.87405e-05
1.84971e-05
1.82534e-05
1.80094e-05
1.77651e-05
1.75208e-05
1.72763e-05
1.70318e-05
1.67873e-05
1.65429e-05
1.62986e-05
1.60545e-05
1.58107e-05
1.55671e-05
2.45913e-05
2.438e-05
2.41665e-05
2.39508e-05
2.3733e-05
2.35131e-05
2.32914e-05
2.30678e-05
2.28425e-05
2.26155e-05
2.23869e-05
2.21568e-05
2.19253e-05
2.16925e-05
2.14584e-05
2.12231e-05
2.09867e-05
2.07492e-05
2.05108e-05
2.02716e-05
2.00315e-05
1.97906e-05
1.95491e-05
1.93069e-05
1.90642e-05
1.8821e-05
1.85774e-05
1.83334e-05
1.80892e-05
1.78447e-05
1.76e-05
1.73552e-05
1.71103e-05
1.68655e-05
1.66207e-05
1.63759e-05
1.61314e-05
1.58871e-05
1.5643e-05
2.46629e-05
2.44522e-05
2.42392e-05
2.4024e-05
2.38067e-05
2.35873e-05
2.3366e-05
2.31427e-05
2.29177e-05
2.2691e-05
2.24627e-05
2.22329e-05
2.20016e-05
2.17689e-05
2.15349e-05
2.12997e-05
2.10634e-05
2.0826e-05
2.05876e-05
2.03483e-05
2.01082e-05
1.98673e-05
1.96256e-05
1.93834e-05
1.91405e-05
1.88971e-05
1.86533e-05
1.84091e-05
1.81646e-05
1.79199e-05
1.76749e-05
1.74298e-05
1.71846e-05
1.69394e-05
1.66942e-05
1.64491e-05
1.62041e-05
1.59594e-05
1.57148e-05
2.45199e-05
2.43075e-05
2.40928e-05
2.38759e-05
2.36569e-05
2.3436e-05
2.32131e-05
2.29884e-05
2.2762e-05
2.25339e-05
2.23043e-05
2.20732e-05
2.18407e-05
2.16068e-05
2.13718e-05
2.11355e-05
2.08982e-05
2.06598e-05
2.04205e-05
2.01803e-05
1.99394e-05
1.96976e-05
1.94553e-05
1.92123e-05
1.89688e-05
1.87248e-05
1.84804e-05
1.82356e-05
1.79906e-05
1.77454e-05
1.75e-05
1.72545e-05
1.7009e-05
1.67634e-05
1.6518e-05
1.62726e-05
1.60274e-05
1.57825e-05
2.43712e-05
2.41569e-05
2.39405e-05
2.37219e-05
2.35013e-05
2.32788e-05
2.30544e-05
2.28283e-05
2.26004e-05
2.2371e-05
2.21401e-05
2.19078e-05
2.16741e-05
2.14391e-05
2.12029e-05
2.09656e-05
2.07273e-05
2.0488e-05
2.02478e-05
2.00068e-05
1.9765e-05
1.95225e-05
1.92794e-05
1.90357e-05
1.87916e-05
1.8547e-05
1.83021e-05
1.80568e-05
1.78114e-05
1.75657e-05
1.73199e-05
1.70741e-05
1.68282e-05
1.65824e-05
1.63367e-05
1.60912e-05
1.58458e-05
2.44302e-05
2.42164e-05
2.40003e-05
2.37821e-05
2.35619e-05
2.33397e-05
2.31156e-05
2.28897e-05
2.26621e-05
2.24329e-05
2.22022e-05
2.197e-05
2.17364e-05
2.15016e-05
2.12655e-05
2.10283e-05
2.07899e-05
2.05507e-05
2.03104e-05
2.00694e-05
1.98275e-05
1.9585e-05
1.93418e-05
1.9098e-05
1.88537e-05
1.86089e-05
1.83638e-05
1.81184e-05
1.78727e-05
1.76268e-05
1.73807e-05
1.71346e-05
1.68885e-05
1.66424e-05
1.63963e-05
1.61504e-05
1.59048e-05
2.42711e-05
2.40554e-05
2.38376e-05
2.36177e-05
2.33958e-05
2.3172e-05
2.29463e-05
2.2719e-05
2.249e-05
2.22594e-05
2.20274e-05
2.17939e-05
2.15591e-05
2.13231e-05
2.1086e-05
2.08477e-05
2.06084e-05
2.03682e-05
2.01271e-05
1.98852e-05
1.96425e-05
1.93993e-05
1.91554e-05
1.89109e-05
1.86661e-05
1.84208e-05
1.81751e-05
1.79292e-05
1.76831e-05
1.74369e-05
1.71905e-05
1.69441e-05
1.66977e-05
1.64513e-05
1.62052e-05
1.59591e-05
2.4321e-05
2.41057e-05
2.38882e-05
2.36686e-05
2.3447e-05
2.32234e-05
2.2998e-05
2.27709e-05
2.2542e-05
2.23116e-05
2.20797e-05
2.18464e-05
2.16117e-05
2.13758e-05
2.11387e-05
2.09004e-05
2.06612e-05
2.04209e-05
2.01798e-05
1.99379e-05
1.96952e-05
1.94518e-05
1.92078e-05
1.89633e-05
1.87183e-05
1.84728e-05
1.8227e-05
1.7981e-05
1.77346e-05
1.74882e-05
1.72416e-05
1.69949e-05
1.67483e-05
1.65017e-05
1.62552e-05
1.60089e-05
2.41511e-05
2.39339e-05
2.37145e-05
2.34932e-05
2.32699e-05
2.30447e-05
2.28177e-05
2.25891e-05
2.23588e-05
2.21271e-05
2.18938e-05
2.16593e-05
2.14234e-05
2.11863e-05
2.09481e-05
2.07089e-05
2.04686e-05
2.02275e-05
1.99855e-05
1.97428e-05
1.94993e-05
1.92553e-05
1.90106e-05
1.87655e-05
1.85199e-05
1.8274e-05
1.80277e-05
1.77813e-05
1.75346e-05
1.72878e-05
1.70409e-05
1.6794e-05
1.65472e-05
1.63005e-05
1.60539e-05
2.39746e-05
2.37555e-05
2.35344e-05
2.33113e-05
2.30863e-05
2.28595e-05
2.2631e-05
2.24009e-05
2.21693e-05
2.19361e-05
2.17016e-05
2.14659e-05
2.12288e-05
2.09907e-05
2.07514e-05
2.05112e-05
2.027e-05
2.0028e-05
1.97853e-05
1.95418e-05
1.92976e-05
1.90529e-05
1.88076e-05
1.8562e-05
1.83159e-05
1.80695e-05
1.78229e-05
1.7576e-05
1.73291e-05
1.7082e-05
1.68349e-05
1.65879e-05
1.63409e-05
1.60941e-05
2.40103e-05
2.37915e-05
2.35705e-05
2.33476e-05
2.31228e-05
2.28962e-05
2.26678e-05
2.24379e-05
2.22063e-05
2.19733e-05
2.17389e-05
2.15031e-05
2.12662e-05
2.1028e-05
2.07888e-05
2.05486e-05
2.03074e-05
2.00654e-05
1.98226e-05
1.9579e-05
1.93348e-05
1.909e-05
1.88447e-05
1.85989e-05
1.83527e-05
1.81062e-05
1.78595e-05
1.76125e-05
1.73653e-05
1.71181e-05
1.68709e-05
1.66236e-05
1.63765e-05
1.61295e-05
2.4041e-05
2.38223e-05
2.36016e-05
2.33788e-05
2.31542e-05
2.29277e-05
2.26995e-05
2.24696e-05
2.22381e-05
2.20052e-05
2.17708e-05
2.15352e-05
2.12982e-05
2.10601e-05
2.08209e-05
2.05807e-05
2.03395e-05
2.00975e-05
1.98546e-05
1.9611e-05
1.93668e-05
1.91219e-05
1.88765e-05
1.86307e-05
1.83844e-05
1.81378e-05
1.78909e-05
1.76438e-05
1.73965e-05
1.71492e-05
1.69018e-05
1.66544e-05
1.64071e-05
1.61599e-05
2.40666e-05
2.38481e-05
2.36275e-05
2.34049e-05
2.31804e-05
2.2954e-05
2.27259e-05
2.24961e-05
2.22647e-05
2.20319e-05
2.17976e-05
2.15619e-05
2.1325e-05
2.1087e-05
2.08478e-05
2.06076e-05
2.03664e-05
2.01243e-05
1.98814e-05
1.96378e-05
1.93935e-05
1.91486e-05
1.89031e-05
1.86572e-05
1.84109e-05
1.81642e-05
1.79172e-05
1.767e-05
1.74226e-05
1.71751e-05
1.69276e-05
1.66801e-05
1.64326e-05
1.61853e-05
2.38688e-05
2.36483e-05
2.34258e-05
2.32014e-05
2.29751e-05
2.27471e-05
2.25173e-05
2.2286e-05
2.20532e-05
2.1819e-05
2.15834e-05
2.13465e-05
2.11085e-05
2.08693e-05
2.06291e-05
2.03879e-05
2.01458e-05
1.99029e-05
1.96593e-05
1.94149e-05
1.917e-05
1.89245e-05
1.86785e-05
1.84321e-05
1.81853e-05
1.79383e-05
1.7691e-05
1.74435e-05
1.7196e-05
1.69483e-05
1.67007e-05
1.64532e-05
1.62057e-05
2.38843e-05
2.36639e-05
2.34415e-05
2.32171e-05
2.29909e-05
2.2763e-05
2.25333e-05
2.2302e-05
2.20693e-05
2.18351e-05
2.15995e-05
2.13627e-05
2.11246e-05
2.08855e-05
2.06452e-05
2.04041e-05
2.0162e-05
1.99191e-05
1.96754e-05
1.9431e-05
1.91861e-05
1.89405e-05
1.86945e-05
1.8448e-05
1.82012e-05
1.79541e-05
1.77068e-05
1.74593e-05
1.72116e-05
1.69639e-05
1.67162e-05
1.64686e-05
1.6221e-05
2.36743e-05
2.3452e-05
2.32277e-05
2.30015e-05
2.27736e-05
2.25439e-05
2.23127e-05
2.208e-05
2.18458e-05
2.16102e-05
2.13734e-05
2.11354e-05
2.08962e-05
2.0656e-05
2.04148e-05
2.01728e-05
1.99298e-05
1.96862e-05
1.94418e-05
1.91968e-05
1.89512e-05
1.87052e-05
1.84587e-05
1.82118e-05
1.79647e-05
1.77173e-05
1.74697e-05
1.72221e-05
1.69743e-05
1.67266e-05
1.64789e-05
1.62313e-05
2.36795e-05
2.34572e-05
2.32329e-05
2.30068e-05
2.27789e-05
2.25493e-05
2.23181e-05
2.20853e-05
2.18512e-05
2.16156e-05
2.13788e-05
2.11408e-05
2.09016e-05
2.06614e-05
2.04202e-05
2.01782e-05
1.99352e-05
1.96915e-05
1.94472e-05
1.92021e-05
1.89566e-05
1.87105e-05
1.8464e-05
1.82172e-05
1.797e-05
1.77226e-05
1.7475e-05
1.72273e-05
1.69795e-05
1.67317e-05
1.6484e-05
1.62364e-05
2.34572e-05
2.32329e-05
2.30068e-05
2.27789e-05
2.25493e-05
2.23181e-05
2.20853e-05
2.18512e-05
2.16156e-05
2.13788e-05
2.11408e-05
2.09016e-05
2.06614e-05
2.04202e-05
2.01782e-05
1.99352e-05
1.96915e-05
1.94472e-05
1.92022e-05
1.89566e-05
1.87105e-05
1.8464e-05
1.82172e-05
1.797e-05
1.77226e-05
1.7475e-05
1.72273e-05
1.69795e-05
1.67317e-05
1.6484e-05
1.62364e-05
2.3452e-05
2.32277e-05
2.30015e-05
2.27736e-05
2.25439e-05
2.23127e-05
2.208e-05
2.18458e-05
2.16102e-05
2.13734e-05
2.11354e-05
2.08962e-05
2.0656e-05
2.04149e-05
2.01728e-05
1.99298e-05
1.96862e-05
1.94418e-05
1.91968e-05
1.89512e-05
1.87052e-05
1.84587e-05
1.82118e-05
1.79647e-05
1.77173e-05
1.74697e-05
1.72221e-05
1.69743e-05
1.67266e-05
1.64789e-05
1.62313e-05
2.34415e-05
2.32171e-05
2.29909e-05
2.2763e-05
2.25333e-05
2.2302e-05
2.20693e-05
2.18351e-05
2.15995e-05
2.13627e-05
2.11246e-05
2.08855e-05
2.06452e-05
2.04041e-05
2.0162e-05
1.99191e-05
1.96754e-05
1.9431e-05
1.91861e-05
1.89405e-05
1.86945e-05
1.8448e-05
1.82012e-05
1.79541e-05
1.77068e-05
1.74593e-05
1.72116e-05
1.69639e-05
1.67162e-05
1.64686e-05
1.6221e-05
2.34258e-05
2.32014e-05
2.29751e-05
2.27471e-05
2.25173e-05
2.2286e-05
2.20532e-05
2.1819e-05
2.15834e-05
2.13465e-05
2.11085e-05
2.08693e-05
2.06291e-05
2.03879e-05
2.01458e-05
1.99029e-05
1.96593e-05
1.94149e-05
1.917e-05
1.89245e-05
1.86785e-05
1.84321e-05
1.81853e-05
1.79383e-05
1.7691e-05
1.74435e-05
1.7196e-05
1.69483e-05
1.67007e-05
1.64532e-05
1.62057e-05
2.34049e-05
2.31804e-05
2.2954e-05
2.27259e-05
2.24961e-05
2.22647e-05
2.20319e-05
2.17976e-05
2.15619e-05
2.1325e-05
2.1087e-05
2.08478e-05
2.06076e-05
2.03664e-05
2.01243e-05
1.98814e-05
1.96378e-05
1.93935e-05
1.91486e-05
1.89031e-05
1.86572e-05
1.84109e-05
1.81642e-05
1.79172e-05
1.767e-05
1.74226e-05
1.71751e-05
1.69276e-05
1.66801e-05
1.64326e-05
1.61853e-05
2.33788e-05
2.31542e-05
2.29277e-05
2.26995e-05
2.24696e-05
2.22381e-05
2.20052e-05
2.17709e-05
2.15352e-05
2.12982e-05
2.10601e-05
2.08209e-05
2.05807e-05
2.03395e-05
2.00975e-05
1.98546e-05
1.9611e-05
1.93668e-05
1.91219e-05
1.88765e-05
1.86307e-05
1.83844e-05
1.81378e-05
1.78909e-05
1.76438e-05
1.73965e-05
1.71492e-05
1.69018e-05
1.66544e-05
1.64071e-05
1.61599e-05
2.33476e-05
2.31228e-05
2.28962e-05
2.26678e-05
2.24379e-05
2.22063e-05
2.19733e-05
2.17389e-05
2.15031e-05
2.12662e-05
2.1028e-05
2.07888e-05
2.05486e-05
2.03074e-05
2.00654e-05
1.98226e-05
1.9579e-05
1.93348e-05
1.909e-05
1.88447e-05
1.85989e-05
1.83527e-05
1.81062e-05
1.78595e-05
1.76125e-05
1.73653e-05
1.71181e-05
1.68709e-05
1.66236e-05
1.63765e-05
1.61295e-05
2.33113e-05
2.30863e-05
2.28595e-05
2.2631e-05
2.24009e-05
2.21693e-05
2.19361e-05
2.17017e-05
2.14659e-05
2.12288e-05
2.09907e-05
2.07514e-05
2.05112e-05
2.027e-05
2.0028e-05
1.97853e-05
1.95417e-05
1.92976e-05
1.90529e-05
1.88076e-05
1.8562e-05
1.83159e-05
1.80695e-05
1.78229e-05
1.7576e-05
1.73291e-05
1.7082e-05
1.68349e-05
1.65879e-05
1.63409e-05
1.60941e-05
2.32699e-05
2.30447e-05
2.28177e-05
2.25891e-05
2.23588e-05
2.21271e-05
2.18938e-05
2.16593e-05
2.14234e-05
2.11863e-05
2.09481e-05
2.07089e-05
2.04686e-05
2.02275e-05
1.99855e-05
1.97428e-05
1.94993e-05
1.92553e-05
1.90106e-05
1.87655e-05
1.85199e-05
1.8274e-05
1.80277e-05
1.77813e-05
1.75346e-05
1.72878e-05
1.70409e-05
1.6794e-05
1.65472e-05
1.63005e-05
1.60539e-05
2.32234e-05
2.2998e-05
2.27709e-05
2.2542e-05
2.23116e-05
2.20797e-05
2.18464e-05
2.16117e-05
2.13758e-05
2.11387e-05
2.09004e-05
2.06612e-05
2.04209e-05
2.01798e-05
1.99379e-05
1.96952e-05
1.94518e-05
1.92078e-05
1.89633e-05
1.87183e-05
1.84728e-05
1.8227e-05
1.7981e-05
1.77346e-05
1.74882e-05
1.72416e-05
1.69949e-05
1.67483e-05
1.65017e-05
1.62552e-05
1.60089e-05
2.3172e-05
2.29463e-05
2.2719e-05
2.249e-05
2.22594e-05
2.20274e-05
2.17939e-05
2.15591e-05
2.13231e-05
2.1086e-05
2.08477e-05
2.06084e-05
2.03682e-05
2.01271e-05
1.98852e-05
1.96425e-05
1.93993e-05
1.91554e-05
1.89109e-05
1.86661e-05
1.84208e-05
1.81751e-05
1.79292e-05
1.76831e-05
1.74368e-05
1.71905e-05
1.69441e-05
1.66977e-05
1.64513e-05
1.62051e-05
1.59591e-05
2.31156e-05