/*--------------------------------*- C++ -*----------------------------------*\
  =========                 |
  \\      /  F ield         | OpenFOAM: The Open Source CFD Toolbox
   \\    /   O peration     | Website:  https://openfoam.org
    \\  /    A nd           | Version:  7
     \\/     M anipulation  |
\*---------------------------------------------------------------------------*/
FoamFile
{
    version     2.0;
    format      ascii;
    class       volScalarField;
    location    "104000";
    object      omega;
}
// * * * * * * * * * * * * * * * * * * * * * * * * * * * * * * * * * * * * * //

dimensions      [0 0 -1 0 0 0 0];

internalField   nonuniform List<scalar> 
4783
(
0.0216921
0.0215385
0.0213938
0.0212579
0.0211305
0.0210115
0.0209005
0.0207972
0.0207014
0.0206128
0.0205312
0.0204563
0.020388
0.020326
0.0202701
0.02022
0.0201756
0.0201366
0.020103
0.0200745
0.0200509
0.0200323
0.0219549
0.0218032
0.0216562
0.0215154
0.0213821
0.0212567
0.0211391
0.0210293
0.0209272
0.0208325
0.020745
0.0206645
0.0205909
0.0205239
0.0204633
0.0204089
0.0203606
0.0203181
0.0202813
0.0202501
0.0202243
0.0202038
0.0222458
0.0220862
0.0219343
0.0217888
0.0216501
0.0215187
0.021395
0.021279
0.0211707
0.02107
0.0209767
0.0208906
0.0208117
0.0207396
0.0206744
0.0206157
0.0205634
0.0205173
0.0204774
0.0204434
0.0204153
0.020393
0.0225548
0.0223867
0.0222279
0.0220764
0.021932
0.021795
0.0216655
0.0215436
0.0214295
0.021323
0.0212242
0.0211328
0.0210487
0.0209718
0.0209021
0.0208392
0.0207831
0.0207336
0.0206906
0.020654
0.0206237
0.0205995
0.0228797
0.0227037
0.0225374
0.0223791
0.0222286
0.0220856
0.0219504
0.0218229
0.0217031
0.0215912
0.021487
0.0213904
0.0213015
0.02122
0.0211459
0.021079
0.0210192
0.0209664
0.0209205
0.0208813
0.0208488
0.0208229
0.0232194
0.0230358
0.0228622
0.022697
0.02254
0.022391
0.0222499
0.0221168
0.0219915
0.0218743
0.0217649
0.0216634
0.0215697
0.0214838
0.0214055
0.0213347
0.0212713
0.0212153
0.0211666
0.021125
0.0210904
0.0210629
0.0235732
0.0233825
0.0232018
0.0230297
0.0228662
0.022711
0.022564
0.0224252
0.0222946
0.0221721
0.0220577
0.0219514
0.0218531
0.0217629
0.0216805
0.021606
0.0215392
0.0214801
0.0214286
0.0213846
0.0213481
0.0213189
0.0239407
0.023743
0.0235555
0.0233768
0.0232068
0.0230454
0.0228926
0.0227481
0.0226121
0.0224844
0.0223651
0.0222541
0.0221514
0.0220569
0.0219706
0.0218925
0.0218224
0.0217603
0.0217061
0.0216598
0.0216214
0.0215907
0.0243213
0.024117
0.0239228
0.0237376
0.0235613
0.0233939
0.0232352
0.0230852
0.0229438
0.022811
0.0226869
0.0225712
0.0224642
0.0223656
0.0222755
0.0221938
0.0221205
0.0220555
0.0219988
0.0219503
0.02191
0.0218777
0.0247146
0.0245039
0.0243033
0.0241118
0.0239294
0.023756
0.0235916
0.023436
0.0232894
0.0231516
0.0230227
0.0229026
0.0227912
0.0226887
0.0225949
0.0225097
0.0224333
0.0223655
0.0223063
0.0222556
0.0222134
0.0221798
0.0251204
0.0249034
0.0246966
0.024499
0.0243106
0.0241314
0.0239614
0.0238004
0.0236486
0.0235059
0.0233723
0.0232478
0.0231322
0.0230258
0.0229283
0.0228399
0.0227604
0.0226898
0.0226282
0.0225754
0.0225315
0.0224964
0.0255384
0.0253153
0.0251024
0.0248989
0.0247046
0.0245198
0.0243442
0.024178
0.0240212
0.0238736
0.0237354
0.0236065
0.0234869
0.0233766
0.0232756
0.0231839
0.0231014
0.0230282
0.0229642
0.0229094
0.0228637
0.0228272
0.0259683
0.0257392
0.0255204
0.0253111
0.0251112
0.0249208
0.0247399
0.0245685
0.0244067
0.0242544
0.0241117
0.0239785
0.0238549
0.0237409
0.0236364
0.0235415
0.0234561
0.0233803
0.0233139
0.0232571
0.0232098
0.023172
0.0264099
0.026175
0.0259505
0.0257354
0.02553
0.0253341
0.025148
0.0249716
0.0248049
0.024648
0.0245008
0.0243635
0.024236
0.0241183
0.0240104
0.0239123
0.0238241
0.0237457
0.0236772
0.0236184
0.0235695
0.0235304
0.026863
0.0266224
0.0263922
0.0261716
0.0259608
0.0257596
0.0255684
0.025387
0.0252155
0.0250541
0.0249026
0.0247612
0.0246298
0.0245085
0.0243973
0.0242962
0.0242052
0.0241243
0.0240536
0.0239929
0.0273275
0.0270813
0.0268456
0.0266195
0.0264033
0.026197
0.0260007
0.0258145
0.0256384
0.0254725
0.0253168
0.0251713
0.0250362
0.0249114
0.0247969
0.0246928
0.0245991
0.0245158
0.0244429
0.0278032
0.0275515
0.0273103
0.0270789
0.0268575
0.0266461
0.0264449
0.0262539
0.0260732
0.0259029
0.0257431
0.0255937
0.0254548
0.0253266
0.0252089
0.0251019
0.0250055
0.02829
0.0280328
0.0277863
0.0275497
0.0273231
0.0271068
0.0269007
0.026705
0.0265198
0.0263452
0.0261813
0.0260281
0.0258856
0.0257539
0.0287878
0.0285253
0.0282735
0.0280317
0.0278001
0.0275788
0.0273679
0.0271677
0.0269781
0.0267993
0.0266313
0.0264743
0.0292965
0.0290287
0.0287717
0.0285248
0.0282882
0.028062
0.0278465
0.0276417
0.0274478
0.0272648
0.0298161
0.0295431
0.0292809
0.029029
0.0287874
0.0285565
0.0283363
0.0281271
0.0279288
0.0303466
0.0300684
0.0298011
0.0295441
0.0292977
0.029062
0.0288373
0.0286236
0.0308879
0.0306045
0.0303321
0.0300702
0.0298189
0.0295786
0.0293493
0.03144
0.0311514
0.030874
0.0306071
0.0303511
0.0301061
0.0320029
0.0317093
0.0314268
0.031155
0.0308942
0.0306446
0.0325768
0.032278
0.0319905
0.0317138
0.0314483
0.0331615
0.0328576
0.0325651
0.0322836
0.0337573
0.0334482
0.0331507
0.0328643
0.0343641
0.0340499
0.0337474
0.0349821
0.0346628
0.0343552
0.0356114
0.0352869
0.0349743
0.0362521
0.0359224
0.0356047
0.0369044
0.0365694
0.0362466
0.0375684
0.0372281
0.0369001
0.0382443
0.0378987
0.0375654
0.0389323
0.0385812
0.0382427
0.0396326
0.039276
0.0389321
0.0403454
0.0399832
0.039634
0.0410709
0.0407031
0.0403483
0.0418093
0.0414358
0.0410756
0.042561
0.0421817
0.0418158
0.0433263
0.0429411
0.0425694
0.0216921
0.0219549
0.0222458
0.0225548
0.0228797
0.0232194
0.0235732
0.0239407
0.0243213
0.0247146
0.0251204
0.0255384
0.0259683
0.0264099
0.026863
0.0273275
0.0278032
0.02829
0.0287878
0.0292965
0.0298161
0.0303466
0.0308879
0.03144
0.0320029
0.0325768
0.0331615
0.0337573
0.0343641
0.0349821
0.0356114
0.0362522
0.0369044
0.0375684
0.0382443
0.0389323
0.0396326
0.0403454
0.0410709
0.0418093
0.0425611
0.0433263
0.0215385
0.0218032
0.0220862
0.0223868
0.0227037
0.0230358
0.0233825
0.023743
0.024117
0.0245039
0.0249034
0.0253153
0.0257392
0.026175
0.0266224
0.0270813
0.0275515
0.0280329
0.0285253
0.0290287
0.0295431
0.0300684
0.0306045
0.0311515
0.0317093
0.032278
0.0328576
0.0334483
0.03405
0.0346628
0.0352869
0.0359224
0.0365694
0.0372281
0.0378987
0.0385812
0.039276
0.0399832
0.0407031
0.0414359
0.0421818
0.0429411
0.0213938
0.0216562
0.0219343
0.0222279
0.0225374
0.0228622
0.0232018
0.0235555
0.0239228
0.0243033
0.0246966
0.0251024
0.0255205
0.0259505
0.0263922
0.0268456
0.0273103
0.0277863
0.0282735
0.0287717
0.0292809
0.0298011
0.0303321
0.030874
0.0314268
0.0319905
0.0325651
0.0331507
0.0337474
0.0343552
0.0349743
0.0356047
0.0362466
0.0369001
0.0375654
0.0382427
0.0389322
0.039634
0.0403484
0.0410756
0.0418158
0.0425694
0.0212579
0.0215155
0.0217888
0.0220764
0.0223791
0.022697
0.0230297
0.0233768
0.0237376
0.0241118
0.024499
0.0248989
0.0253111
0.0257354
0.0261717
0.0266196
0.027079
0.0275497
0.0280317
0.0285248
0.029029
0.0295441
0.0300702
0.0306072
0.0311551
0.0317139
0.0322836
0.0328643
0.0334561
0.034059
0.0346732
0.0352986
0.0359355
0.0365841
0.0372443
0.0379165
0.0386008
0.0392974
0.0400065
0.0407283
0.0414631
0.0422112
0.0211305
0.0213821
0.0216501
0.021932
0.0222286
0.02254
0.0228662
0.0232068
0.0235613
0.0239294
0.0243106
0.0247047
0.0251112
0.02553
0.0259608
0.0264034
0.0268575
0.0273232
0.0278001
0.0282882
0.0287875
0.0292977
0.029819
0.0303511
0.0308943
0.0314483
0.0320133
0.0325893
0.0331763
0.0337745
0.0343839
0.0350046
0.0356367
0.0362803
0.0369357
0.0376029
0.0382822
0.0389738
0.0396778
0.0403944
0.041124
0.0418668
0.0210115
0.0212567
0.0215187
0.021795
0.0220857
0.022391
0.022711
0.0230454
0.0233939
0.023756
0.0241314
0.0245198
0.0249208
0.0253342
0.0257597
0.0261971
0.0266462
0.0271068
0.0275788
0.0280621
0.0285565
0.0290621
0.0295786
0.0301061
0.0306446
0.0311941
0.0317545
0.0323259
0.0329084
0.0335019
0.0341067
0.0347228
0.0353502
0.0359892
0.0366399
0.0373024
0.0379769
0.0386636
0.0393627
0.0400744
0.0407989
0.0415365
0.0209005
0.0211391
0.021395
0.0216655
0.0219504
0.0222499
0.0225641
0.0228926
0.0232352
0.0235916
0.0239614
0.0243442
0.0247399
0.025148
0.0255684
0.0260008
0.0264449
0.0269007
0.027368
0.0278465
0.0283364
0.0288373
0.0293493
0.0298724
0.0304064
0.0309514
0.0315074
0.0320744
0.0326525
0.0332416
0.033842
0.0344536
0.0350766
0.0357111
0.0363572
0.0370152
0.0376851
0.0383671
0.0390615
0.0397684
0.0404881
0.0412209
0.0207972
0.0210293
0.021279
0.0215437
0.0218229
0.0221168
0.0224253
0.0227481
0.0230852
0.0234361
0.0238005
0.0241781
0.0245685
0.0249716
0.025387
0.0258145
0.0262539
0.026705
0.0271677
0.0276418
0.0281271
0.0286236
0.0291313
0.02965
0.0301797
0.0307205
0.0312722
0.031835
0.0324088
0.0329937
0.0335899
0.0341972
0.0348159
0.0354462
0.036088
0.0367415
0.037407
0.0380846
0.0387745
0.0394769
0.040192
0.0409201
0.0207014
0.0209272
0.0211707
0.0214295
0.0217032
0.0219916
0.0222946
0.0226121
0.0229438
0.0232894
0.0236487
0.0240212
0.0244067
0.0248049
0.0252156
0.0256384
0.0260733
0.0265199
0.0269781
0.0274478
0.0279289
0.0284212
0.0289247
0.0294392
0.0299649
0.0305015
0.0310492
0.0316079
0.0321777
0.0327586
0.0333506
0.0339539
0.0345686
0.0351947
0.0358324
0.0364818
0.0371431
0.0378165
0.0385021
0.0392001
0.0399109
0.0406345
0.0206128
0.0208325
0.02107
0.0213231
0.0215912
0.0218743
0.0221721
0.0224844
0.0228111
0.0231517
0.023506
0.0238737
0.0242544
0.024648
0.0250541
0.0254725
0.025903
0.0263453
0.0267993
0.0272649
0.0277418
0.0282301
0.0287296
0.0292402
0.0297619
0.0302947
0.0308385
0.0313933
0.0319592
0.0325363
0.0331245
0.0337239
0.0343347
0.0349569
0.0355907
0.0362362
0.0368935
0.0375629
0.0382444
0.0389384
0.0396449
0.0403644
0.0205312
0.020745
0.0209767
0.0212242
0.021487
0.0217649
0.0220577
0.0223651
0.0226869
0.0230227
0.0233724
0.0237354
0.0241117
0.0245009
0.0249027
0.0253168
0.0257431
0.0261814
0.0266314
0.027093
0.0275661
0.0280505
0.0285462
0.029053
0.029571
0.0301001
0.0306402
0.0311914
0.0317537
0.0323271
0.0329116
0.0335074
0.0341145
0.0347331
0.0353632
0.0360049
0.0366585
0.0373241
0.0380018
0.0386919
0.0393945
0.04011
0.0204564
0.0206646
0.0208906
0.0211328
0.0213905
0.0216634
0.0219514
0.0222541
0.0225713
0.0229026
0.0232478
0.0236065
0.0239786
0.0243635
0.0247612
0.0251714
0.0255937
0.0260281
0.0264743
0.0269322
0.0274016
0.0278824
0.0283745
0.0288778
0.0293923
0.0299179
0.0304545
0.0310023
0.0315611
0.0321311
0.0327122
0.0333046
0.0339083
0.0345233
0.0351499
0.0357882
0.0364383
0.0371003
0.0377744
0.0384609
0.0391599
0.0398716
0.0405963
0.020388
0.0205909
0.0208117
0.0210487
0.0213015
0.0215698
0.0218532
0.0221514
0.0224642
0.0227913
0.0231323
0.023487
0.023855
0.024236
0.0246299
0.0250362
0.0254549
0.0258857
0.0263283
0.0267827
0.0272487
0.027726
0.0282148
0.0287148
0.0292259
0.0297482
0.0302817
0.0308262
0.0313818
0.0319485
0.0325265
0.0331156
0.0337161
0.0343279
0.0349513
0.0355863
0.036233
0.0368917
0.0375625
0.0382456
0.0389411
0.0396494
0.0403706
0.041105
0.020326
0.0205239
0.0207397
0.0209719
0.02122
0.0214838
0.0217629
0.0220569
0.0223657
0.0226887
0.0230258
0.0233767
0.0237409
0.0241183
0.0245086
0.0249114
0.0253267
0.025754
0.0261934
0.0266445
0.0271072
0.0275814
0.028067
0.0285639
0.029072
0.0295912
0.0301216
0.0306631
0.0312158
0.0317795
0.0323545
0.0329406
0.0335381
0.0341469
0.0347673
0.0353992
0.0360429
0.0366985
0.0373662
0.0380462
0.0387385
0.0394436
0.0401615
0.0408926
0.0202701
0.0204633
0.0206744
0.0209021
0.0211459
0.0214055
0.0216805
0.0219707
0.0222756
0.0225949
0.0229284
0.0232757
0.0236365
0.0240105
0.0243974
0.024797
0.025209
0.0256332
0.0260695
0.0265176
0.0269773
0.0274486
0.0279313
0.0284253
0.0289306
0.029447
0.0299746
0.0305133
0.0310632
0.0316242
0.0321964
0.0327798
0.0333745
0.0339805
0.0345981
0.0352273
0.0358682
0.0365209
0.0371858
0.0378628
0.0385523
0.0392544
0.0399693
0.0406974
0.0414388
0.02022
0.0204089
0.0206157
0.0208392
0.021079
0.0213347
0.021606
0.0218925
0.0221939
0.0225098
0.0228399
0.0231839
0.0235415
0.0239124
0.0242963
0.0246929
0.025102
0.0255233
0.0259568
0.0264021
0.0268591
0.0273276
0.0278077
0.0282991
0.0288017
0.0293156
0.0298406
0.0303768
0.0309241
0.0314826
0.0320523
0.0326332
0.0332253
0.0338289
0.0344439
0.0350705
0.0357088
0.036359
0.0370212
0.0376957
0.0383825
0.0390819
0.0397941
0.0405194
0.041258
0.0201756
0.0203606
0.0205634
0.0207831
0.0210192
0.0212714
0.0215393
0.0218224
0.0221206
0.0224334
0.0227605
0.0231015
0.0234562
0.0238242
0.0242053
0.0245992
0.0250056
0.0254244
0.0258552
0.026298
0.0267525
0.0272187
0.0276963
0.0281853
0.0286856
0.0291971
0.0297198
0.0302537
0.0307988
0.0313549
0.0319223
0.0325009
0.0330908
0.0336921
0.0343048
0.0349291
0.0355651
0.036213
0.0368728
0.0375449
0.0382293
0.0389262
0.039636
0.0403588
0.0410949
0.0418445
0.0201367
0.0203181
0.0205174
0.0207336
0.0209664
0.0212154
0.0214802
0.0217603
0.0220556
0.0223656
0.0226899
0.0230283
0.0233803
0.0237458
0.0241244
0.0245159
0.0249199
0.0253363
0.0257649
0.0262054
0.0266577
0.0271217
0.0275971
0.028084
0.0285822
0.0290916
0.0296123
0.0301441
0.0306871
0.0312412
0.0318066
0.0323831
0.032971
0.0335702
0.0341809
0.0348032
0.0354371
0.0360829
0.0367406
0.0374105
0.0380928
0.0387876
0.0394952
0.0402157
0.0409496
0.0416969
0.0424581
0.020103
0.0202813
0.0204774
0.0206906
0.0209205
0.0211666
0.0214287
0.0217062
0.0219989
0.0223064
0.0226283
0.0229643
0.023314
0.0236773
0.0240537
0.024443
0.0248449
0.0252593
0.0256858
0.0261243
0.0265747
0.0270367
0.0275103
0.0279953
0.0284916
0.0289992
0.029518
0.0300481
0.0305892
0.0311416
0.0317051
0.0322799
0.032866
0.0334634
0.0340723
0.0346928
0.0353249
0.0359688
0.0366247
0.0372928
0.0379732
0.0386661
0.0393717
0.0400903
0.0408222
0.0415675
0.0423267
0.0200745
0.0202501
0.0204435
0.020654
0.0208814
0.021125
0.0213847
0.0216599
0.0219504
0.0222557
0.0225755
0.0229095
0.0232572
0.0236185
0.023993
0.0243805
0.0247806
0.0251932
0.025618
0.0260548
0.0265034
0.0269638
0.0274357
0.0279191
0.0284139
0.0289199
0.0294372
0.0299656
0.0305052
0.0310561
0.0316181
0.0321913
0.0327758
0.0333717
0.0339791
0.034598
0.0352285
0.0358709
0.0365252
0.0371917
0.0378704
0.0385617
0.0392657
0.0399827
0.0407128
0.0414565
0.0422138
0.020051
0.0202243
0.0204154
0.0206237
0.0208489
0.0210905
0.0213481
0.0216214
0.02191
0.0222135
0.0225316
0.0228638
0.0232099
0.0235696
0.0239425
0.0243284
0.024727
0.0251381
0.0255614
0.0259968
0.0264441
0.026903
0.0273736
0.0278556
0.028349
0.0288537
0.0293697
0.0298968
0.0304352
0.0309847
0.0315454
0.0321174
0.0327006
0.0332952
0.0339013
0.0345189
0.0351481
0.0357892
0.0364422
0.0371073
0.0377847
0.0384746
0.0391773
0.0398928
0.0406216
0.0413638
0.0421197
0.0200323
0.0202038
0.020393
0.0205996
0.020823
0.0210629
0.021319
0.0215907
0.0218778
0.0221799
0.0224965
0.0228274
0.0231721
0.0235305
0.0239021
0.0242868
0.0246841
0.025094
0.0255162
0.0259504
0.0263965
0.0268544
0.0273238
0.0278048
0.0282971
0.0288008
0.0293157
0.0298418
0.0303791
0.0309275
0.0314872
0.0320582
0.0326404
0.0332339
0.033839
0.0344555
0.0350837
0.0357237
0.0363757
0.0370397
0.0377161
0.0384049
0.0391064
0.0398209
0.0405485
0.0412895
0.0420443
0.042813
0.0200184
0.0201885
0.0203764
0.0205815
0.0208037
0.0210423
0.0212972
0.0215677
0.0218537
0.0221546
0.0224702
0.0228
0.0231438
0.0235011
0.0238718
0.0242555
0.024652
0.0250609
0.0254822
0.0259156
0.0263608
0.0268179
0.0272865
0.0277666
0.0282582
0.028761
0.0292751
0.0298004
0.0303369
0.0308846
0.0314436
0.0320137
0.0325952
0.033188
0.0337922
0.034408
0.0350354
0.0356746
0.0363258
0.036989
0.0376646
0.0383526
0.0390533
0.0397669
0.0404936
0.0412338
0.0419877
0.0427556
0.0200092
0.0201784
0.0203653
0.0205695
0.0207908
0.0210286
0.0212826
0.0215524
0.0218376
0.0221378
0.0224527
0.0227818
0.0231249
0.0234816
0.0238516
0.0242347
0.0246305
0.0250389
0.0254596
0.0258924
0.0263371
0.0267935
0.0272616
0.0277412
0.0282322
0.0287345
0.0292481
0.0297729
0.0303088
0.030856
0.0314144
0.0319841
0.032565
0.0331573
0.033761
0.0343763
0.0350032
0.0356419
0.0362925
0.0369552
0.0376302
0.0383177
0.0390178
0.0397308
0.040457
0.0411967
0.04195
0.0427172
0.0434988
0.0200046
0.0201733
0.0203597
0.0205636
0.0207844
0.0210218
0.0212754
0.0215448
0.0218296
0.0221294
0.0224439
0.0227727
0.0231154
0.0234718
0.0238415
0.0242243
0.0246198
0.0250279
0.0254483
0.0258807
0.0263252
0.0267813
0.0272492
0.0277285
0.0282192
0.0287212
0.0292345
0.0297591
0.0302948
0.0308417
0.0313999
0.0319692
0.0325499
0.0331419
0.0337454
0.0343604
0.034987
0.0356255
0.0362758
0.0369383
0.037613
0.0383002
0.0390001
0.0397128
0.0404387
0.0411781
0.0419311
0.042698
0.0434793
0.0200046
0.0201733
0.0203597
0.0205636
0.0207844
0.0210218
0.0212754
0.0215448
0.0218296
0.0221294
0.0224439
0.0227727
0.0231154
0.0234718
0.0238415
0.0242243
0.0246198
0.0250279
0.0254483
0.0258808
0.0263252
0.0267813
0.0272492
0.0277285
0.0282192
0.0287212
0.0292345
0.0297591
0.0302948
0.0308417
0.0313999
0.0319692
0.0325499
0.0331419
0.0337454
0.0343604
0.034987
0.0356255
0.0362758
0.0369383
0.037613
0.0383002
0.0390001
0.0397128
0.0404387
0.0411781
0.0419311
0.042698
0.0434793
0.0442751
0.0200092
0.0201784
0.0203653
0.0205695
0.0207908
0.0210286
0.0212826
0.0215524
0.0218376
0.0221378
0.0224527
0.0227818
0.0231249
0.0234816
0.0238516
0.0242347
0.0246305
0.0250389
0.0254596
0.0258924
0.0263371
0.0267935
0.0272616
0.0277412
0.0282322
0.0287345
0.0292481
0.0297729
0.0303088
0.030856
0.0314144
0.0319841
0.032565
0.0331573
0.033761
0.0343763
0.0350032
0.0356419
0.0362925
0.0369552
0.0376302
0.0383177
0.0390178
0.0397308
0.040457
0.0411967
0.04195
0.0427172
0.0434988
0.0442949
0.0200184
0.0201885
0.0203764
0.0205815
0.0208037
0.0210423
0.0212972
0.0215677
0.0218537
0.0221546
0.0224702
0.0228
0.0231438
0.0235011
0.0238718
0.0242555
0.024652
0.025061
0.0254822
0.0259156
0.0263608
0.0268179
0.0272865
0.0277666
0.0282582
0.028761
0.0292751
0.0298004
0.0303369
0.0308847
0.0314436
0.0320137
0.0325952
0.033188
0.0337922
0.034408
0.0350354
0.0356746
0.0363258
0.036989
0.0376646
0.0383526
0.0390533
0.0397669
0.0404936
0.0412338
0.0419877
0.0427556
0.0435377
0.0443345
0.0200323
0.0202038
0.020393
0.0205996
0.020823
0.0210629
0.021319
0.0215907
0.0218778
0.0221799
0.0224965
0.0228274
0.0231721
0.0235305
0.0239021
0.0242868
0.0246841
0.025094
0.0255162
0.0259504
0.0263965
0.0268544
0.0273238
0.0278048
0.0282971
0.0288008
0.0293157
0.0298418
0.0303791
0.0309275
0.0314872
0.0320582
0.0326404
0.033234
0.033839
0.0344555
0.0350837
0.0357237
0.0363757
0.0370397
0.0377161
0.0384049
0.0391064
0.0398209
0.0405485
0.0412895
0.0420443
0.0428131
0.0435961
0.0443938
0.020051
0.0202243
0.0204154
0.0206237
0.0208489
0.0210905
0.0213481
0.0216215
0.02191
0.0222135
0.0225316
0.0228638
0.02321
0.0235696
0.0239425
0.0243284
0.024727
0.0251381
0.0255614
0.0259968
0.0264441
0.026903
0.0273736
0.0278556
0.028349
0.0288537
0.0293697
0.0298968
0.0304352
0.0309847
0.0315454
0.0321174
0.0327006
0.0332952
0.0339013
0.0345189
0.0351481
0.0357892
0.0364422
0.0371073
0.0377847
0.0384747
0.0391773
0.0398928
0.0406216
0.0413638
0.0421197
0.0428896
0.0436739
0.0444728
0.0200745
0.0202501
0.0204435
0.020654
0.0208814
0.021125
0.0213847
0.0216599
0.0219504
0.0222557
0.0225755
0.0229095
0.0232573
0.0236186
0.0239931
0.0243805
0.0247806
0.0251932
0.025618
0.0260548
0.0265035
0.0269638
0.0274358
0.0279191
0.0284139
0.0289199
0.0294372
0.0299656
0.0305053
0.0310561
0.0316181
0.0321913
0.0327758
0.0333717
0.0339791
0.034598
0.0352285
0.0358709
0.0365252
0.0371917
0.0378705
0.0385617
0.0392657
0.0399827
0.0407128
0.0414565
0.0422139
0.0429853
0.043771
0.0445715
0.020103
0.0202814
0.0204775
0.0206906
0.0209205
0.0211666
0.0214287
0.0217062
0.0219989
0.0223064
0.0226283
0.0229643
0.0233141
0.0236773
0.0240537
0.024443
0.0248449
0.0252593
0.0256858
0.0261243
0.0265747
0.0270367
0.0275103
0.0279953
0.0284916
0.0289992
0.0295181
0.0300481
0.0305893
0.0311416
0.0317052
0.0322799
0.032866
0.0334634
0.0340723
0.0346928
0.0353249
0.0359688
0.0366247
0.0372928
0.0379732
0.0386661
0.0393717
0.0400904
0.0408222
0.0415676
0.0423267
0.0430999
0.0438874
0.0446897
0.0201367
0.0203181
0.0205174
0.0207336
0.0209664
0.0212154
0.0214802
0.0217604
0.0220556
0.0223656
0.0226899
0.0230283
0.0233804
0.0237458
0.0241244
0.0245159
0.0249199
0.0253363
0.0257649
0.0262054
0.0266577
0.0271217
0.0275972
0.028084
0.0285822
0.0290917
0.0296123
0.0301441
0.0306871
0.0312413
0.0318066
0.0323832
0.032971
0.0335703
0.0341809
0.0348032
0.0354371
0.0360829
0.0367406
0.0374106
0.0380928
0.0387876
0.0394952
0.0402158
0.0409496
0.0416969
0.0424581
0.0432334
0.044023
0.0448274
0.0201756
0.0203606
0.0205634
0.0207831
0.0210192
0.0212714
0.0215393
0.0218224
0.0221206
0.0224334
0.0227605
0.0231015
0.0234562
0.0238242
0.0242053
0.0245992
0.0250056
0.0254244
0.0258552
0.026298
0.0267525
0.0272187
0.0276963
0.0281853
0.0286856
0.0291972
0.0297199
0.0302538
0.0307988
0.031355
0.0319223
0.032501
0.0330908
0.0336921
0.0343048
0.0349292
0.0355652
0.036213
0.0368729
0.0375449
0.0382293
0.0389263
0.039636
0.0403588
0.0410949
0.0418445
0.042608
0.0433856
0.0441777
0.0449846
0.02022
0.0204089
0.0206157
0.0208392
0.021079
0.0213347
0.021606
0.0218925
0.0221939
0.0225098
0.0228399
0.023184
0.0235416
0.0239124
0.0242963
0.0246929
0.025102
0.0255234
0.0259568
0.0264021
0.0268591
0.0273277
0.0278077
0.0282991
0.0288018
0.0293156
0.0298407
0.0303769
0.0309242
0.0314827
0.0320523
0.0326332
0.0332254
0.0338289
0.0344439
0.0350706
0.0357089
0.0363591
0.0370213
0.0376957
0.0383825
0.0390819
0.0397941
0.0405194
0.041258
0.0420102
0.0427763
0.0435566
0.0443513
0.0451609
0.0202701
0.0204633
0.0206744
0.0209021
0.0211459
0.0214055
0.0216805
0.0219707
0.0222756
0.0225949
0.0229284
0.0232757
0.0236365
0.0240105
0.0243974
0.024797
0.025209
0.0256333
0.0260695
0.0265176
0.0269773
0.0274486
0.0279313
0.0284253
0.0289306
0.029447
0.0299746
0.0305134
0.0310632
0.0316242
0.0321964
0.0327798
0.0333745
0.0339806
0.0345981
0.0352273
0.0358682
0.036521
0.0371858
0.0378628
0.0385523
0.0392544
0.0399694
0.0406974
0.0414388
0.0421939
0.0429629
0.0437461
0.0445438
0.0453565
0.020326
0.0205239
0.0207397
0.0209719
0.0212201
0.0214838
0.0217629
0.022057
0.0223657
0.0226887
0.0230258
0.0233767
0.0237409
0.0241183
0.0245086
0.0249115
0.0253267
0.0257541
0.0261934
0.0266445
0.0271072
0.0275814
0.028067
0.0285639
0.029072
0.0295913
0.0301217
0.0306632
0.0312158
0.0317796
0.0323545
0.0329407
0.0335381
0.034147
0.0347673
0.0353993
0.036043
0.0366986
0.0373663
0.0380462
0.0387386
0.0394437
0.0401616
0.0408927
0.0416372
0.0423954
0.0431675
0.043954
0.044755
0.045571
0.0203881
0.0205909
0.0208117
0.0210487
0.0213015
0.0215698
0.0218532
0.0221514
0.0224642
0.0227913
0.0231323
0.023487
0.023855
0.024236
0.0246299
0.0250363
0.0254549
0.0258857
0.0263284
0.0267827
0.0272487
0.0277261
0.0282148
0.0287148
0.029226
0.0297483
0.0302817
0.0308262
0.0313818
0.0319486
0.0325265
0.0331156
0.0337161
0.034328
0.0349513
0.0355863
0.0362331
0.0368918
0.0375626
0.0382456
0.0389412
0.0396495
0.0403707
0.0411051
0.0418529
0.0426145
0.0433901
0.04418
0.0449847
0.0458043
0.0204564
0.0206646
0.0208907
0.0211328
0.0213905
0.0216635
0.0219514
0.0222541
0.0225713
0.0229026
0.0232478
0.0236066
0.0239786
0.0243636
0.0247613
0.0251714
0.0255938
0.0260282
0.0264744
0.0269323
0.0274017
0.0278825
0.0283746
0.0288779
0.0293924
0.0299179
0.0304546
0.0310023
0.0315612
0.0321311
0.0327123
0.0333046
0.0339083
0.0345234
0.03515
0.0357883
0.0364383
0.0371003
0.0377745
0.0384609
0.0391599
0.0398717
0.0405964
0.0413343
0.0420858
0.0428511
0.0436304
0.0444241
0.0452326
0.0460562
0.0205312
0.020745
0.0209767
0.0212242
0.021487
0.0217649
0.0220577
0.0223651
0.0226869
0.0230228
0.0233724
0.0237355
0.0241117
0.0245009
0.0249027
0.0253168
0.0257431
0.0261814
0.0266314
0.027093
0.0275661
0.0280505
0.0285462
0.0290531
0.0295711
0.0301001
0.0306403
0.0311914
0.0317537
0.0323271
0.0329117
0.0335075
0.0341146
0.0347331
0.0353632
0.036005
0.0366586
0.0373241
0.0380018
0.0386919
0.0393946
0.0401101
0.0408385
0.0415803
0.0423357
0.0431049
0.0438882
0.0446861
0.0454987
0.0463265
0.0206128
0.0208325
0.02107
0.0213231
0.0215912
0.0218743
0.0221721
0.0224845
0.0228111
0.0231517
0.023506
0.0238737
0.0242545
0.024648
0.0250541
0.0254725
0.025903
0.0263453
0.0267994
0.0272649
0.0277419
0.0282302
0.0287296
0.0292403
0.029762
0.0302947
0.0308385
0.0313934
0.0319593
0.0325363
0.0331245
0.033724
0.0343348
0.034957
0.0355908
0.0362362
0.0368936
0.0375629
0.0382445
0.0389384
0.039645
0.0403644
0.0410969
0.0418428
0.0426023
0.0433757
0.0441633
0.0449655
0.0457826
0.0466149
0.0207014
0.0209272
0.0211707
0.0214295
0.0217032
0.0219916
0.0222946
0.0226121
0.0229438
0.0232895
0.0236487
0.0240212
0.0244067
0.024805
0.0252156
0.0256385
0.0260733
0.0265199
0.0269782
0.0274479
0.0279289
0.0284213
0.0289247
0.0294393
0.0299649
0.0305016
0.0310492
0.031608
0.0321777
0.0327586
0.0333507
0.033954
0.0345686
0.0351947
0.0358324
0.0364819
0.0371432
0.0378165
0.0385021
0.0392002
0.0399109
0.0406345
0.0413713
0.0421215
0.0428854
0.0436633
0.0444555
0.0452623
0.046084
0.0469212
0.0207972
0.0210293
0.0212791
0.0215437
0.0218229
0.0221168
0.0224253
0.0227482
0.0230852
0.0234361
0.0238005
0.0241781
0.0245686
0.0249716
0.025387
0.0258146
0.026254
0.0267051
0.0271677
0.0276418
0.0281272
0.0286237
0.0291313
0.0296501
0.0301798
0.0307205
0.0312723
0.031835
0.0324089
0.0329938
0.0335899
0.0341973
0.034816
0.0354462
0.036088
0.0367416
0.0374071
0.0380847
0.0387746
0.039477
0.0401921
0.0409201
0.0416614
0.0424162
0.0431847
0.0439673
0.0447643
0.045576
0.0464028
0.047245
0.0209005
0.0211391
0.021395
0.0216655
0.0219504
0.02225
0.0225641
0.0228926
0.0232352
0.0235916
0.0239614
0.0243443
0.0247399
0.0251481
0.0255684
0.0260008
0.026445
0.0269008
0.027368
0.0278466
0.0283364
0.0288374
0.0293494
0.0298724
0.0304064
0.0309515
0.0315074
0.0320745
0.0326525
0.0332417
0.033842
0.0344536
0.0350766
0.0357111
0.0363573
0.0370152
0.0376851
0.0383672
0.0390615
0.0397685
0.0404882
0.0412209
0.041967
0.0427265
0.0435
0.0442875
0.0450896
0.0459064
0.0467385
0.047586
0.0210115
0.0212567
0.0215187
0.021795
0.0220857
0.022391
0.022711
0.0230455
0.0233939
0.023756
0.0241314
0.0245198
0.0249208
0.0253342
0.0257597
0.0261971
0.0266462
0.0271068
0.0275788
0.0280621
0.0285566
0.0290621
0.0295787
0.0301062
0.0306447
0.0311941
0.0317545
0.032326
0.0329084
0.033502
0.0341068
0.0347228
0.0353503
0.0359893
0.03664
0.0373025
0.037977
0.0386636
0.0393627
0.0400744
0.040799
0.0415366
0.0422876
0.0430522
0.0438308
0.0446236
0.045431
0.0462532
0.0470908
0.0479439
0.0211305
0.0213821
0.0216501
0.021932
0.0222286
0.02254
0.0228662
0.0232068
0.0235614
0.0239294
0.0243106
0.0247047
0.0251112
0.02553
0.0259608
0.0264034
0.0268576
0.0273232
0.0278001
0.0282883
0.0287875
0.0292978
0.029819
0.0303512
0.0308943
0.0314484
0.0320134
0.0325894
0.0331764
0.0337746
0.0343839
0.0350046
0.0356367
0.0362804
0.0369358
0.037603
0.0382823
0.0389738
0.0396778
0.0403945
0.0411241
0.0418668
0.042623
0.0433929
0.0441769
0.0449751
0.045788
0.046616
0.0474593
0.0483183
0.0212579
0.0215155
0.0217888
0.0220764
0.0223791
0.022697
0.0230298
0.0233768
0.0237376
0.0241118
0.024499
0.0248989
0.0253111
0.0257355
0.0261717
0.0266196
0.027079
0.0275498
0.0280318
0.0285249
0.029029
0.0295442
0.0300702
0.0306072
0.0311551
0.0317139
0.0322837
0.0328644
0.0334562
0.0340591
0.0346732
0.0352987
0.0359356
0.0365841
0.0372444
0.0379166
0.0386009
0.0392974
0.0400065
0.0407284
0.0414632
0.0422113
0.0429729
0.0437483
0.0445378
0.0453417
0.0461605
0.0469943
0.0478436
0.0487088
0.0213939
0.0216562
0.0219344
0.0222279
0.0225374
0.0228622
0.0232018
0.0235555
0.0239228
0.0243033
0.0246966
0.0251025
0.0255205
0.0259505
0.0263923
0.0268456
0.0273104
0.0277864
0.0282735
0.0287718
0.029281
0.0298011
0.0303322
0.0308741
0.0314269
0.0319906
0.0325652
0.0331508
0.0337475
0.0343553
0.0349744
0.0356048
0.0362467
0.0369002
0.0375655
0.0382428
0.0389322
0.0396341
0.0403484
0.0410757
0.0418159
0.0425695
0.0433367
0.0441179
0.0449132
0.045723
0.0465478
0.0473877
0.0482433
0.0491149
0.0215385
0.0218032
0.0220862
0.0223868
0.0227037
0.0230359
0.0233825
0.0237431
0.024117
0.0245039
0.0249034
0.0253153
0.0257392
0.026175
0.0266224
0.0270813
0.0275515
0.0280329
0.0285253
0.0290288
0.0295432
0.0300684
0.0306045
0.0311515
0.0317093
0.032278
0.0328577
0.0334483
0.03405
0.0346629
0.035287
0.0359225
0.0365695
0.0372282
0.0378988
0.0385813
0.0392761
0.0399833
0.0407032
0.0414359
0.0421818
0.0429412
0.0437142
0.0445012
0.0453026
0.0461186
0.0469495
0.0477959
0.0486579
0.0495361
0.0216921
0.0219549
0.0222458
0.0225548
0.0228797
0.0232194
0.0235733
0.0239407
0.0243213
0.0247146
0.0251204
0.0255384
0.0259683
0.0264099
0.026863
0.0273275
0.0278032
0.02829
0.0287878
0.0292966
0.0298162
0.0303467
0.0308879
0.03144
0.032003
0.0325768
0.0331616
0.0337573
0.0343642
0.0349822
0.0356115
0.0362522
0.0369045
0.0375685
0.0382444
0.0389324
0.0396327
0.0403455
0.041071
0.0418094
0.0425611
0.0433264
0.0441054
0.0448985
0.0457061
0.0465284
0.0473658
0.0482187
0.0490875
0.0499726
0.0216921
0.0219549
0.0222458
0.0225548
0.0228797
0.0232194
0.0235733
0.0239407
0.0243213
0.0247146
0.0251204
0.0255384
0.0259683
0.0264099
0.026863
0.0273275
0.0278032
0.02829
0.0287878
0.0292966
0.0298162
0.0303467
0.0308879
0.03144
0.032003
0.0325768
0.0331616
0.0337573
0.0343642
0.0349822
0.0356115
0.0362522
0.0369045
0.0375685
0.0382444
0.0389324
0.0396327
0.0403454
0.0410709
0.0418094
0.0425611
0.0433264
0.0441054
0.0448985
0.0457061
0.0465284
0.0473658
0.0482187
0.0490875
0.0499726
0.0215385
0.0218032
0.0220862
0.0223868
0.0227037
0.0230359
0.0233825
0.0237431
0.024117
0.0245039
0.0249034
0.0253153
0.0257392
0.026175
0.0266224
0.0270813
0.0275515
0.0280329
0.0285253
0.0290288
0.0295432
0.0300684
0.0306045
0.0311515
0.0317093
0.032278
0.0328577
0.0334483
0.03405
0.0346629
0.035287
0.0359225
0.0365695
0.0372282
0.0378987
0.0385813
0.0392761
0.0399833
0.0407032
0.0414359
0.0421818
0.0429412
0.0437142
0.0445012
0.0453026
0.0461185
0.0469495
0.0477958
0.0486579
0.0495361
0.0213938
0.0216562
0.0219344
0.0222279
0.0225374
0.0228622
0.0232018
0.0235555
0.0239228
0.0243033
0.0246966
0.0251024
0.0255205