/*--------------------------------*- C++ -*----------------------------------*\
  =========                 |
  \\      /  F ield         | OpenFOAM: The Open Source CFD Toolbox
   \\    /   O peration     | Website:  https://openfoam.org
    \\  /    A nd           | Version:  7
     \\/     M anipulation  |
\*---------------------------------------------------------------------------*/
FoamFile
{
    version     2.0;
    format      ascii;
    class       volVectorField;
    location    "148000";
    object      U;
}
// * * * * * * * * * * * * * * * * * * * * * * * * * * * * * * * * * * * * * //

dimensions      [0 1 -1 0 0 0 0];

internalField   nonuniform List<vector> 
4814
(
(1.86265e-22 1.04481e-18 -0.0101174)
(6.77097e-20 9.53473e-20 -0.0101297)
(-9.7008e-19 5.43565e-19 -0.0101408)
(-6.59762e-19 1.10183e-18 -0.0101507)
(-1.26863e-20 1.93404e-19 -0.00974614)
(-9.96969e-19 -1.9666e-19 -0.00977194)
(-8.66675e-19 -2.2239e-19 -0.00979712)
(-6.93618e-19 3.93234e-19 -0.00982158)
(-1.02423e-18 -9.32512e-19 -0.00984525)
(-2.21118e-18 3.38228e-20 -0.00986807)
(-7.43466e-19 7.91574e-19 -0.00989)
(-1.51909e-18 9.85644e-19 -0.00991101)
(-3.39514e-19 1.78818e-18 -0.00993105)
(-1.14838e-18 1.79372e-18 -0.00995008)
(-2.9575e-19 3.49243e-19 -0.00996807)
(-7.7259e-19 7.15187e-19 -0.00998498)
(8.85095e-19 1.21297e-18 -0.0100008)
(-4.31342e-19 4.12969e-19 -0.0100155)
(5.53537e-20 1.05043e-18 -0.010029)
(3.43631e-19 1.82692e-19 -0.0100414)
(-8.83224e-19 5.75285e-19 -0.0100525)
(-4.47804e-19 1.12057e-18 -0.0100625)
(1.51817e-19 1.23202e-18 -0.0100713)
(7.0458e-19 4.67703e-19 -0.0100788)
(1.08654e-19 2.02663e-19 -0.0100851)
(1.54489e-19 1.66744e-19 -0.0100901)
(5.96138e-19 2.69637e-19 -0.0100939)
(2.0794e-19 -5.46882e-19 -0.0100964)
(7.85484e-19 -4.60889e-19 -0.0100977)
(-7.0294e-21 -7.80598e-19 -0.0100977)
(2.47474e-19 -3.74503e-19 -0.0100964)
(2.86289e-19 -8.29511e-19 -0.0100939)
(5.24485e-19 -5.67809e-19 -0.0100901)
(2.86009e-19 -8.1885e-19 -0.0100851)
(-3.28506e-19 -1.05615e-18 -0.0100788)
(-5.35279e-19 -4.43236e-19 -0.0100713)
(-3.27687e-19 -1.58322e-19 -0.0100625)
(6.10289e-20 -2.87825e-19 -0.0100525)
(1.23115e-19 3.51257e-19 -0.00965403)
(-1.05369e-18 -2.0066e-19 -0.00968002)
(-6.40391e-19 -7.76689e-20 -0.00970537)
(-7.42402e-19 3.71315e-19 -0.00972999)
(-9.89782e-19 -9.01685e-19 -0.00975381)
(-1.94751e-18 1.62533e-19 -0.00977678)
(-7.90376e-19 7.18381e-19 -0.00979886)
(-1.45044e-18 1.00137e-18 -0.00982)
(-2.80052e-19 1.82582e-18 -0.00984016)
(-1.35072e-18 1.75486e-18 -0.00985931)
(-5.34928e-20 4.23628e-19 -0.00987741)
(-7.83493e-19 6.59357e-19 -0.00989443)
(8.06634e-19 1.18185e-18 -0.00991034)
(-4.855e-19 4.10198e-19 -0.00992511)
(9.25786e-20 1.03612e-18 -0.00993873)
(4.58907e-19 2.15439e-19 -0.00995116)
(-7.39894e-19 6.1816e-19 -0.0099624)
(-2.48358e-19 1.13946e-18 -0.00997243)
(2.43718e-19 1.24435e-18 -0.00998124)
(5.48495e-19 4.41767e-19 -0.00998881)
(1.15985e-19 2.14151e-19 -0.00999513)
(-1.10707e-20 1.24212e-19 -0.0100002)
(6.36368e-19 2.69321e-19 -0.010004)
(2.00435e-19 -5.66336e-19 -0.0100065)
(5.82223e-19 -4.64456e-19 -0.0100078)
(2.46502e-20 -7.86614e-19 -0.0100078)
(4.64323e-19 -4.04339e-19 -0.0100065)
(2.76668e-19 -8.56306e-19 -0.010004)
(4.38097e-19 -5.63825e-19 -0.0100002)
(2.43398e-19 -8.01928e-19 -0.00999513)
(-2.27688e-19 -1.06482e-18 -0.00998881)
(-7.22045e-19 -4.08859e-19 -0.00998124)
(-3.56665e-19 -1.73601e-19 -0.00997243)
(7.18215e-20 -2.7801e-19 -0.0099624)
(-6.43631e-19 -7.13131e-19 -0.00995116)
(-7.45881e-19 -1.30531e-19 -0.00993873)
(-1.72092e-19 -2.87691e-20 -0.00992511)
(8.37103e-20 -4.33251e-19 -0.00991034)
(-1.065e-19 -4.24004e-19 -0.00989443)
(-7.64201e-19 -7.81461e-19 -0.00987741)
(-5.10685e-19 -1.69607e-19 -0.00985931)
(2.33452e-19 4.75933e-19 -0.0095599)
(-1.09877e-18 -1.97131e-19 -0.00958607)
(-4.81061e-19 9.11944e-21 -0.0096116)
(-8.6938e-19 3.01954e-19 -0.00963639)
(-9.30749e-19 -8.76787e-19 -0.00966037)
(-1.43293e-18 4.77563e-19 -0.0096835)
(-1.04026e-18 5.38849e-19 -0.00970572)
(-1.53038e-18 9.12627e-19 -0.00972699)
(-3.87003e-19 1.77385e-18 -0.00974729)
(-1.48053e-18 1.74294e-18 -0.00976656)
(1.33336e-19 4.69744e-19 -0.00978478)
(-9.85061e-19 5.18496e-19 -0.00980191)
(9.55387e-19 1.22873e-18 -0.00981792)
(-4.80774e-19 4.36496e-19 -0.00983279)
(6.03305e-20 9.96518e-19 -0.00984649)
(4.72572e-19 2.11768e-19 -0.009859)
(-5.19292e-19 6.76969e-19 -0.00987031)
(-2.09686e-19 1.11852e-18 -0.0098804)
(3.3229e-19 1.26732e-18 -0.00988926)
(4.16174e-19 4.26012e-19 -0.00989688)
(1.39006e-19 2.24538e-19 -0.00990324)
(-4.78898e-20 9.24568e-20 -0.00990834)
(6.31425e-19 2.60259e-19 -0.00991217)
(2.45156e-19 -5.75861e-19 -0.00991473)
(3.82386e-19 -4.70534e-19 -0.00991601)
(1.91189e-20 -8.13573e-19 -0.00991601)
(5.80076e-19 -4.30082e-19 -0.00991473)
(2.94065e-19 -8.67122e-19 -0.00991217)
(2.59299e-19 -5.45434e-19 -0.00990834)
(1.94753e-19 -7.98128e-19 -0.00990324)
(-1.37272e-19 -1.07643e-18 -0.00989688)
(-6.88596e-19 -4.08476e-19 -0.00988926)
(-4.6622e-19 -1.68544e-19 -0.0098804)
(-5.82555e-20 -2.36931e-19 -0.00987031)
(-5.96937e-19 -7.26384e-19 -0.009859)
(-7.6812e-19 -1.3742e-19 -0.00984649)
(8.58047e-20 -1.3088e-19 -0.00983279)
(-1.98185e-19 -3.0043e-19 -0.00981792)
(-2.0265e-19 -3.56601e-19 -0.00980191)
(-7.81664e-19 -7.93239e-19 -0.00978478)
(-7.15608e-19 -3.75302e-20 -0.00976656)
(-1.31541e-19 7.52139e-19 -0.00974729)
(-2.36947e-19 -1.01319e-18 -0.00972699)
(-8.29648e-20 -6.56729e-19 -0.00970572)
(1.77925e-19 4.37793e-19 -0.00946363)
(-1.02441e-18 -8.55904e-20 -0.00948999)
(-5.42782e-19 -7.63941e-20 -0.00951571)
(-9.41565e-19 2.73482e-19 -0.00954067)
(-8.32201e-19 -8.64535e-19 -0.00956482)
(-1.03088e-18 7.27023e-19 -0.00958811)
(-1.10069e-18 5.11024e-19 -0.00961048)
(-1.43004e-18 9.28813e-19 -0.00963189)
(-6.95271e-19 1.60763e-18 -0.00965233)
(-1.43766e-18 1.81028e-18 -0.00967173)
(2.32184e-19 4.80209e-19 -0.00969007)
(-1.07075e-18 4.25829e-19 -0.00970731)
(9.52097e-19 1.20552e-18 -0.00972342)
(-5.57287e-19 4.41588e-19 -0.00973839)
(3.63014e-20 9.60356e-19 -0.00975218)
(4.12081e-19 1.70473e-19 -0.00976477)
(-3.92212e-19 7.13816e-19 -0.00977615)
(-2.28765e-19 1.09469e-18 -0.00978631)
(3.28952e-19 1.2724e-18 -0.00979523)
(4.57214e-19 4.37948e-19 -0.00980289)
(1.94277e-19 2.35711e-19 -0.00980929)
(-2.10177e-20 6.94893e-20 -0.00981442)
(4.83784e-19 2.38972e-19 -0.00981828)
(2.66148e-19 -5.8164e-19 -0.00982086)
(4.44974e-19 -4.67567e-19 -0.00982214)
(-9.80746e-20 -8.41853e-19 -0.00982214)
(5.06488e-19 -4.49463e-19 -0.00982086)
(3.1626e-19 -8.75063e-19 -0.00981828)
(2.13348e-19 -5.38599e-19 -0.00981442)
(1.79456e-19 -8.03257e-19 -0.00980929)
(-5.34326e-20 -1.0883e-18 -0.00980289)
(-6.06355e-19 -4.13322e-19 -0.00979523)
(-4.9126e-19 -1.74452e-19 -0.00978631)
(-1.56242e-19 -2.10131e-19 -0.00977615)
(-4.6282e-19 -7.77178e-19 -0.00976477)
(-6.3806e-19 -2.02994e-19 -0.00975218)
(3.94806e-19 -2.34392e-19 -0.00973839)
(-3.01912e-19 -2.32834e-19 -0.00972342)
(-2.27681e-19 -3.40881e-19 -0.00970731)
(-7.27294e-19 -8.26083e-19 -0.00969007)
(-8.73204e-19 6.97236e-20 -0.00967173)
(1.2214e-19 6.55796e-19 -0.00965233)
(-1.86239e-19 -1.05799e-18 -0.00963189)
(-6.374e-20 -6.57567e-19 -0.00961048)
(1.2746e-19 3.98317e-19 -0.00936511)
(-9.55947e-19 2.35283e-20 -0.00939168)
(-5.38006e-19 -1.02642e-19 -0.00941758)
(-9.26105e-19 3.004e-19 -0.00944273)
(-6.327e-19 -7.89465e-19 -0.00946705)
(-1.01253e-18 7.12543e-19 -0.0094905)
(-1.02207e-18 5.67237e-19 -0.00951302)
(-1.27688e-18 9.99174e-19 -0.00953459)
(-9.33006e-19 1.48768e-18 -0.00955516)
(-1.28451e-18 1.91494e-18 -0.0095747)
(2.56361e-19 4.61371e-19 -0.00959316)
(-9.98005e-19 4.10516e-19 -0.00961052)
(7.13015e-19 1.09186e-18 -0.00962674)
(-5.52488e-19 4.72089e-19 -0.00964181)
(2.22467e-19 9.92722e-19 -0.00965569)
(2.36521e-19 9.6622e-20 -0.00966837)
(-4.41711e-19 6.97784e-19 -0.00967983)
(-1.6125e-19 1.08938e-18 -0.00969005)
(2.78681e-19 1.2645e-18 -0.00969903)
(6.36088e-19 4.72031e-19 -0.00970674)
(2.15064e-19 2.4698e-19 -0.00971318)
(3.38723e-20 5.97626e-20 -0.00971835)
(2.75363e-19 2.15455e-19 -0.00972223)
(2.29139e-19 -6.08481e-19 -0.00972482)
(5.84385e-19 -4.55925e-19 -0.00972612)
(-2.45365e-19 -8.56539e-19 -0.00972612)
(4.13173e-19 -4.75194e-19 -0.00972482)
(3.34739e-19 -8.85858e-19 -0.00972223)
(2.95015e-19 -5.41631e-19 -0.00971835)
(1.7166e-19 -8.10765e-19 -0.00971318)
(1.30951e-20 -1.09908e-18 -0.00970674)
(-5.19423e-19 -4.12528e-19 -0.00969903)
(-5.37347e-19 -1.69753e-19 -0.00969005)
(-1.1972e-19 -2.24049e-19 -0.00967983)
(-3.32484e-19 -8.34092e-19 -0.00966837)
(-6.07776e-19 -2.42458e-19 -0.00965569)
(5.0318e-19 -2.60981e-19 -0.00964181)
(-1.73395e-19 -2.38908e-19 -0.00962674)
(-3.26834e-19 -2.87327e-19 -0.00961052)
(-7.30973e-19 -8.33496e-19 -0.00959316)
(-9.07661e-19 9.92537e-20 -0.0095747)
(3.5108e-19 5.67481e-19 -0.00955516)
(-1.19044e-19 -1.09951e-18 -0.00953459)
(4.67343e-20 -7.07511e-19 -0.00951302)
(1.58649e-19 4.34384e-19 -0.00926423)
(-1.04238e-18 -8.50649e-21 -0.009291)
(-5.02401e-19 -1.00705e-19 -0.0093171)
(-9.04151e-19 3.26792e-19 -0.00934243)
(-4.66384e-19 -7.34127e-19 -0.00936694)
(-1.08641e-18 6.41339e-19 -0.00939055)
(-9.71999e-19 5.9492e-19 -0.00941324)
(-1.41411e-18 9.00824e-19 -0.00943496)
(-8.62127e-19 1.53389e-18 -0.00945568)
(-1.31281e-18 1.92708e-18 -0.00947535)
(2.06253e-19 4.099e-19 -0.00949394)
(-8.89084e-19 4.21272e-19 -0.00951142)
(5.29222e-19 9.97563e-19 -0.00952776)
(-4.3499e-19 5.18663e-19 -0.00954293)
(3.70029e-19 1.02766e-18 -0.0095569)
(9.13544e-20 4.5504e-20 -0.00956967)
(-5.06943e-19 6.65414e-19 -0.00958121)
(-1.80117e-19 1.06503e-18 -0.0095915)
(1.75066e-19 1.24258e-18 -0.00960054)
(7.0066e-19 4.83537e-19 -0.00960831)
(2.033e-19 2.58456e-19 -0.00961479)
(5.61625e-20 5.0884e-20 -0.00962)
(2.45371e-19 2.10986e-19 -0.0096239)
(1.62539e-19 -6.41525e-19 -0.00962651)
(5.61126e-19 -4.43585e-19 -0.00962782)
(-3.29965e-19 -8.68714e-19 -0.00962782)
(3.23921e-19 -5.05515e-19 -0.00962651)
(3.94007e-19 -9.06704e-19 -0.0096239)
(4.00204e-19 -5.45167e-19 -0.00962)
(2.58438e-19 -8.25457e-19 -0.00961479)
(-3.4078e-20 -1.09167e-18 -0.00960831)
(-5.39706e-19 -3.84814e-19 -0.00960054)
(-5.45493e-19 -1.75272e-19 -0.0095915)
(-2.91119e-20 -2.60307e-19 -0.00958121)
(-1.97557e-19 -8.84358e-19 -0.00956967)
(-6.49526e-19 -2.50086e-19 -0.0095569)
(3.24271e-19 -1.88283e-19 -0.00954293)
(-1.4051e-19 -2.07439e-19 -0.00952776)
(-3.38872e-19 -2.6897e-19 -0.00951142)
(-7.56044e-19 -8.35131e-19 -0.00949394)
(-8.07214e-19 5.58425e-20 -0.00947535)
(3.19085e-19 6.2327e-19 -0.00945567)
(1.36136e-20 -1.1856e-18 -0.00943496)
(2.04821e-19 -7.93387e-19 -0.00941324)
(1.90603e-19 4.74817e-19 -0.00916085)
(-1.12983e-18 -3.1367e-20 -0.00918783)
(-4.78532e-19 -1.20062e-19 -0.00921414)
(-8.46323e-19 3.75369e-19 -0.00923966)
(-4.28452e-19 -7.7354e-19 -0.00926435)
(-9.84781e-19 6.88589e-19 -0.00928814)
(-1.01072e-18 5.79923e-19 -0.00931099)
(-1.65687e-18 7.32222e-19 -0.00933287)
(-8.32655e-19 1.55349e-18 -0.00935374)
(-1.4257e-18 1.90763e-18 -0.00937356)
(2.88842e-19 4.09437e-19 -0.00939229)
(-8.51837e-19 3.98276e-19 -0.00940989)
(6.72373e-19 1.03443e-18 -0.00942634)
(-5.01383e-19 4.99766e-19 -0.00944162)
(3.05107e-19 9.95584e-19 -0.0094557)
(2.86247e-20 2.05666e-20 -0.00946855)
(-6.35551e-19 6.1935e-19 -0.00948017)
(-2.80835e-19 1.02199e-18 -0.00949054)
(6.21806e-20 1.21675e-18 -0.00949964)
(6.07716e-19 4.64579e-19 -0.00950746)
(1.57183e-19 2.64138e-19 -0.009514)
(3.27347e-20 3.28649e-20 -0.00951923)
(3.92595e-19 2.22836e-19 -0.00952317)
(1.32877e-19 -6.67915e-19 -0.0095258)
(5.15497e-19 -4.30774e-19 -0.00952711)
(-3.47848e-19 -8.80382e-19 -0.00952711)
(1.7936e-19 -5.39342e-19 -0.0095258)
(3.18661e-19 -9.21804e-19 -0.00952317)
(4.35488e-19 -5.4114e-19 -0.00951923)
(3.65508e-19 -8.35359e-19 -0.009514)
(-1.4541e-19 -1.06165e-18 -0.00950746)
(-6.05661e-19 -3.52597e-19 -0.00949964)
(-4.30309e-19 -2.1672e-19 -0.00949054)
(3.88901e-20 -2.93101e-19 -0.00948017)
(-1.08776e-19 -9.18459e-19 -0.00946855)
(-4.69908e-19 -3.1774e-19 -0.0094557)
(2.01847e-19 -1.32878e-19 -0.00944162)
(-1.46323e-19 -1.69088e-19 -0.00942634)
(-3.41868e-19 -2.55893e-19 -0.00940989)
(-8.35612e-19 -8.17503e-19 -0.00939229)
(-7.77671e-19 5.52678e-20 -0.00937356)
(1.7392e-19 7.41124e-19 -0.00935374)
(1.5197e-19 -1.28945e-18 -0.00933287)
(2.38967e-19 -7.96023e-19 -0.00931099)
(-5.8955e-19 -1.81228e-18 -0.00928814)
(1.26002e-19 4.23898e-19 -0.00905483)
(-1.05463e-18 8.75123e-20 -0.00908204)
(-2.91017e-19 -5.32605e-21 -0.00910855)
(-8.76009e-19 3.61541e-19 -0.00913428)
(-3.81073e-19 -8.14921e-19 -0.00915916)
(-9.89173e-19 6.64767e-19 -0.00918313)
(-1.01972e-18 6.00152e-19 -0.00920615)
(-1.68848e-18 6.90898e-19 -0.00922819)
(-1.00069e-18 1.45508e-18 -0.00924922)
(-1.3833e-18 1.95599e-18 -0.00926918)
(5.0208e-19 4.71644e-19 -0.00928805)
(-8.84847e-19 3.40104e-19 -0.00930579)
(7.68721e-19 1.05724e-18 -0.00932236)
(-7.42227e-19 4.30904e-19 -0.00933775)
(3.07806e-19 9.82286e-19 -0.00935193)
(-1.6846e-19 -4.20909e-20 -0.00936488)
(-7.94358e-19 5.64925e-19 -0.00937658)
(-3.79461e-19 9.76973e-19 -0.00938703)
(-1.50728e-20 1.19963e-18 -0.00939619)
(5.01233e-19 4.41371e-19 -0.00940407)
(2.23502e-19 2.82096e-19 -0.00941065)
(-6.21424e-21 3.40274e-21 -0.00941593)
(4.91154e-19 2.30496e-19 -0.00941989)
(1.56108e-19 -6.83344e-19 -0.00942254)
(4.74989e-19 -4.17098e-19 -0.00942386)
(-2.77392e-19 -8.87999e-19 -0.00942386)
(1.30599e-19 -5.68316e-19 -0.00942254)
(1.38723e-19 -9.35176e-19 -0.00941989)
(4.35891e-19 -5.43038e-19 -0.00941593)
(3.79105e-19 -8.26406e-19 -0.00941065)
(-2.667e-19 -1.02702e-18 -0.00940407)
(-5.46804e-19 -3.54661e-19 -0.00939619)
(-3.19806e-19 -2.59847e-19 -0.00938703)
(8.90974e-20 -3.16557e-19 -0.00937658)
(-1.73045e-19 -9.16405e-19 -0.00936488)
(-3.48146e-19 -3.64902e-19 -0.00935193)
(2.89463e-19 -1.43589e-19 -0.00933775)
(-9.52075e-20 -1.51742e-19 -0.00932236)
(-1.99586e-19 -3.01685e-19 -0.00930579)
(-9.71502e-19 -7.70686e-19 -0.00928805)
(-8.90058e-19 1.29376e-19 -0.00926918)
(1.57605e-19 7.79685e-19 -0.00924922)
(1.99276e-19 -1.34463e-18 -0.00922819)
(1.91414e-19 -7.33768e-19 -0.00920615)
(-6.07718e-19 -1.81419e-18 -0.00918313)
(1.21002e-20 3.22638e-19 -0.00894604)
(-9.17825e-19 2.43064e-19 -0.00897348)
(-5.78713e-20 1.6124e-19 -0.00900021)
(-9.46341e-19 3.26807e-19 -0.00902614)
(-2.88943e-19 -8.23015e-19 -0.00905121)
(-1.28135e-18 4.39541e-19 -0.00907536)
(-1.0029e-18 6.23015e-19 -0.00909857)
(-1.66206e-18 6.96718e-19 -0.00912078)
(-1.20791e-18 1.33628e-18 -0.00914196)
(-1.30147e-18 2.00997e-18 -0.00916208)
(6.90107e-19 5.26496e-19 -0.00918109)
(-7.80572e-19 3.535e-19 -0.00919896)
(6.64779e-19 1.00658e-18 -0.00921566)
(-6.96403e-19 4.62146e-19 -0.00923117)
(4.38957e-19 1.01328e-18 -0.00924545)
(-3.57677e-19 -9.41536e-20 -0.0092585)
(-7.69959e-19 5.52906e-19 -0.00927029)
(-4.36583e-19 9.37285e-19 -0.00928081)
(7.41391e-21 1.20064e-18 -0.00929005)
(4.86085e-19 4.24608e-19 -0.00929799)
(3.23965e-19 3.04091e-19 -0.00930462)
(-7.91389e-20 -2.29342e-20 -0.00930993)
(4.89241e-19 2.28538e-19 -0.00931393)
(2.94334e-19 -6.92523e-19 -0.00931659)
(4.45989e-19 -4.05087e-19 -0.00931793)
(-1.80543e-19 -9.00654e-19 -0.00931793)
(1.38856e-19 -5.9275e-19 -0.00931659)
(7.44196e-20 -9.54057e-19 -0.00931393)
(3.84708e-19 -5.4079e-19 -0.00930993)
(3.64987e-19 -8.07338e-19 -0.00930462)
(-4.03035e-19 -9.93938e-19 -0.00929799)
(-5.13787e-19 -3.5692e-19 -0.00929005)
(-3.19327e-19 -2.74002e-19 -0.00928081)
(1.32492e-20 -2.99072e-19 -0.00927029)
(-4.15364e-19 -8.5679e-19 -0.0092585)
(-6.53648e-19 -2.81736e-19 -0.00924545)
(1.92102e-19 -9.12485e-20 -0.00923117)
(1.58029e-20 -1.63495e-19 -0.00921566)
(5.31785e-20 -3.87466e-19 -0.00919896)
(-1.00313e-18 -7.57156e-19 -0.00918109)
(-9.74848e-19 1.79374e-19 -0.00916208)
(2.50724e-19 7.51618e-19 -0.00914196)
(2.36972e-19 -1.3898e-18 -0.00912078)
(1.89375e-19 -7.02312e-19 -0.00909857)
(-5.42605e-19 -1.8797e-18 -0.00907536)
(-1.01354e-19 2.22668e-19 -0.00883432)
(-8.77303e-19 2.99228e-19 -0.00886199)
(6.81884e-20 2.46192e-19 -0.00888894)
(-9.20573e-19 3.75402e-19 -0.00891508)
(-2.22152e-19 -8.35233e-19 -0.00894035)
(-1.54387e-18 2.39314e-19 -0.0089647)
(-1.07872e-18 5.70666e-19 -0.00898808)
(-1.774e-18 6.24934e-19 -0.00901047)
(-1.33027e-18 1.25865e-18 -0.00903182)
(-1.2731e-18 2.02135e-18 -0.0090521)
(7.58775e-19 5.16975e-19 -0.00907126)
(-5.98531e-19 4.10766e-19 -0.00908926)
(5.43351e-19 9.4421e-19 -0.00910609)
(-3.73034e-19 5.861e-19 -0.00912172)
(5.33568e-19 1.04816e-18 -0.00913611)
(-4.20568e-19 -1.08512e-19 -0.00914926)
(-4.34614e-19 6.21571e-19 -0.00916115)
(-5.39316e-19 8.90264e-19 -0.00917175)
(9.63079e-20 1.21254e-18 -0.00918105)
(4.64013e-19 4.08562e-19 -0.00918905)
(2.94679e-19 3.13758e-19 -0.00919573)
(-1.15695e-19 -4.62183e-20 -0.00920109)
(6.19159e-19 2.26112e-19 -0.00920511)
(4.16512e-19 -7.01341e-19 -0.0092078)
(4.44175e-19 -3.86431e-19 -0.00920915)
(-1.84734e-19 -9.09336e-19 -0.00920915)
(6.25926e-20 -6.09759e-19 -0.0092078)
(5.28501e-20 -9.75897e-19 -0.00920511)
(2.51373e-19 -5.29961e-19 -0.00920109)
(3.93944e-19 -7.90703e-19 -0.00919573)
(-4.38212e-19 -9.76008e-19 -0.00918905)
(-4.25133e-19 -3.73788e-19 -0.00918105)
(-3.73741e-19 -2.70691e-19 -0.00917175)
(-1.237e-19 -2.55784e-19 -0.00916115)
(-5.4839e-19 -8.18765e-19 -0.00914926)
(-9.87063e-19 -1.87478e-19 -0.00913611)
(-1.37495e-19 2.29229e-20 -0.00912172)
(1.00634e-19 -1.85159e-19 -0.00910609)
(1.40594e-19 -3.98296e-19 -0.00908926)
(-8.8074e-19 -8.09151e-19 -0.00907126)
(-9.57367e-19 1.75364e-19 -0.0090521)
(3.2741e-19 7.26887e-19 -0.00903182)
(3.28735e-19 -1.46599e-18 -0.00901047)
(2.65179e-19 -7.16968e-19 -0.00898808)
(-5.39669e-19 -1.89705e-18 -0.0089647)
(-2.27489e-19 1.20941e-19 -0.00871949)
(-9.3109e-19 2.61547e-19 -0.0087474)
(1.57251e-19 2.93749e-19 -0.00877458)
(-7.87323e-19 5.10347e-19 -0.00880093)
(-2.08653e-19 -8.7893e-19 -0.00882641)
(-1.59706e-18 1.86904e-19 -0.00885096)
(-1.10091e-18 5.53267e-19 -0.00887453)
(-1.89359e-18 5.46461e-19 -0.00889709)
(-1.38823e-18 1.21141e-18 -0.00891862)
(-1.24519e-18 2.03166e-18 -0.00893906)
(6.72756e-19 4.26075e-19 -0.00895837)
(-5.41828e-19 4.15367e-19 -0.00897652)
(2.85245e-19 8.19506e-19 -0.00899348)
(-2.17624e-19 6.42126e-19 -0.00900923)
(3.86907e-19 1.01396e-18 -0.00902374)
(-4.42221e-19 -1.25821e-19 -0.009037)
(-1.17641e-19 6.90204e-19 -0.00904897)
(-6.63392e-19 8.49765e-19 -0.00905966)
(2.32249e-19 1.2288e-18 -0.00906904)
(3.47158e-19 3.80359e-19 -0.0090771)
(2.32029e-19 3.15942e-19 -0.00908383)
(-6.78008e-20 -7.02732e-20 -0.00908923)
(7.38197e-19 2.23786e-19 -0.00909329)
(3.66221e-19 -7.10811e-19 -0.009096)
(4.76296e-19 -3.6377e-19 -0.00909735)
(-2.57686e-19 -9.14502e-19 -0.00909735)
(8.86001e-20 -6.33645e-19 -0.009096)
(2.30006e-21 -9.92378e-19 -0.00909329)
(7.16905e-20 -5.15679e-19 -0.00908923)
(4.72454e-19 -7.86969e-19 -0.00908383)
(-3.72836e-19 -9.80278e-19 -0.0090771)
(-3.16796e-19 -3.89832e-19 -0.00906904)
(-5.18982e-19 -2.35088e-19 -0.00905966)
(-1.57358e-19 -2.43357e-19 -0.00904897)
(-4.52534e-19 -8.47499e-19 -0.009037)
(-9.8354e-19 -1.95583e-19 -0.00902374)
(-3.48388e-19 8.70212e-20 -0.00900923)
(4.09557e-20 -1.57974e-19 -0.00899348)
(5.37859e-20 -3.35619e-19 -0.00897652)
(-7.98694e-19 -8.46442e-19 -0.00895837)
(-9.16681e-19 1.61227e-19 -0.00893906)
(3.83398e-19 7.1096e-19 -0.00891862)
(4.25268e-19 -1.54788e-18 -0.00889709)
(3.16549e-19 -7.06726e-19 -0.00887453)
(-2.55863e-19 1.25335e-19 -0.00860139)
(-9.16128e-19 2.7295e-19 -0.00862954)
(2.27719e-19 3.11772e-19 -0.00865695)
(-6.86085e-19 6.30011e-19 -0.00868353)
(-1.98259e-19 -9.18793e-19 -0.00870922)
(-1.65166e-18 1.29286e-19 -0.00873397)
(-1.05775e-18 5.80957e-19 -0.00875773)
(-1.90004e-18 5.39742e-19 -0.00878048)
(-1.49049e-18 1.13216e-18 -0.00880218)
(-1.11174e-18 2.09881e-18 -0.00882279)
(6.0098e-19 3.43161e-19 -0.00884226)
(-5.51197e-19 3.98463e-19 -0.00886056)
(5.85443e-20 7.05266e-19 -0.00887766)
(-1.6548e-19 6.56453e-19 -0.00889353)
(8.86856e-20 9.3063e-19 -0.00890816)
(-4.3248e-19 -1.50577e-19 -0.00892152)
(2.31004e-20 7.12568e-19 -0.00893359)
(-7.80136e-19 8.0972e-19 -0.00894437)
(3.78304e-19 1.2488e-18 -0.00895382)
(2.70498e-19 3.66233e-19 -0.00896195)
(3.00515e-19 3.30412e-19 -0.00896874)
(-3.95765e-20 -9.92421e-20 -0.00897418)
(7.29566e-19 2.17069e-19 -0.00897827)
(3.01697e-19 -7.22854e-19 -0.008981)
(5.38726e-19 -3.4115e-19 -0.00898236)
(-2.88705e-19 -9.22252e-19 -0.00898236)
(1.56759e-19 -6.58243e-19 -0.008981)
(-8.99506e-20 -9.95588e-19 -0.00897827)
(-4.37628e-20 -5.14355e-19 -0.00897418)
(5.01575e-19 -7.83621e-19 -0.00896874)
(-1.91192e-19 -1.00047e-18 -0.00896195)
(-3.36427e-19 -3.70195e-19 -0.00895382)
(-5.34642e-19 -2.31068e-19 -0.00894437)
(-8.70726e-20 -2.71096e-19 -0.00893359)
(-2.45402e-19 -9.14844e-19 -0.00892152)
(-7.54905e-19 -2.69963e-19 -0.00890816)
(-3.36597e-19 7.75427e-20 -0.00889353)
(-5.61891e-21 -1.35095e-19 -0.00887766)
(1.03878e-19 -3.38864e-19 -0.00886056)
(-8.18713e-19 -8.41329e-19 -0.00884226)
(-9.99208e-19 2.09109e-19 -0.00882279)
(5.08486e-19 6.51248e-19 -0.00880218)
(4.61793e-19 -1.59242e-18 -0.00878048)
(3.27654e-19 -6.65015e-19 -0.00875773)
(-1.14046e-19 2.80218e-19 -0.00847982)
(-7.18438e-19 4.47912e-19 -0.00850822)
(2.1337e-19 2.62352e-19 -0.00853587)
(-7.68428e-19 6.06905e-19 -0.00856267)
(-1.52003e-19 -9.25303e-19 -0.00858857)
(-1.75487e-18 3.66372e-20 -0.00861353)
(-9.843e-19 6.18719e-19 -0.00863749)
(-1.91689e-18 5.34105e-19 -0.00866043)
(-1.59601e-18 1.04487e-18 -0.00868231)
(-9.19568e-19 2.19062e-18 -0.00870309)
(6.2819e-19 3.13267e-19 -0.00872272)
(-6.04832e-19 3.64011e-19 -0.00874117)
(1.03092e-19 6.96774e-19 -0.00875841)
(-1.02613e-20 7.168e-19 -0.00877442)
(-9.71977e-20 8.8917e-19 -0.00878917)
(-3.54796e-19 -1.70389e-19 -0.00880264)
(1.13156e-20 6.99485e-19 -0.00881482)
(-9.3644e-19 7.59735e-19 -0.00882568)
(4.64743e-19 1.24939e-18 -0.00883521)
(2.43723e-19 3.56555e-19 -0.0088434)
(4.88125e-19 3.62173e-19 -0.00885025)
(-3.68626e-20 -1.24635e-19 -0.00885573)
(6.71086e-19 2.06787e-19 -0.00885986)
(3.21738e-19 -7.34016e-19 -0.00886261)
(6.12995e-19 -3.18475e-19 -0.00886399)
(-2.02226e-19 -9.3011e-19 -0.00886399)
(1.26011e-19 -6.7507e-19 -0.00886261)
(-1.97434e-19 -9.95781e-19 -0.00885986)
(-1.25129e-19 -5.18437e-19 -0.00885573)
(5.27526e-19 -7.89651e-19 -0.00885025)
(-5.62909e-20 -1.0121e-18 -0.0088434)
(-3.77113e-19 -3.41894e-19 -0.00883521)
(-3.55637e-19 -2.78027e-19 -0.00882568)
(-6.24582e-21 -3.04707e-19 -0.00881482)
(-6.02962e-20 -9.81127e-19 -0.00880264)
(-5.18652e-19 -3.42515e-19 -0.00878917)
(-2.29798e-19 4.15083e-20 -0.00877442)
(-5.28594e-20 -1.15315e-19 -0.00875841)
(3.69877e-19 -4.34157e-19 -0.00874117)
(-8.8495e-19 -7.99811e-19 -0.00872272)
(-1.17842e-18 2.96859e-19 -0.00870309)
(6.03063e-19 6.00894e-19 -0.00868231)
(4.39237e-19 -1.59495e-18 -0.00866043)
(3.04149e-19 -6.05764e-19 -0.00863749)
(8.58384e-20 4.60993e-19 -0.00835458)
(-5.68506e-19 5.94143e-19 -0.00838324)
(1.59034e-19 2.02636e-19 -0.00841112)
(-9.47327e-19 5.07094e-19 -0.00843816)
(-7.32836e-20 -9.11808e-19 -0.00846428)
(-1.81768e-18 -3.22975e-20 -0.00848945)
(-9.7915e-19 6.12894e-19 -0.00851361)
(-2.05335e-18 4.63168e-19 -0.00853674)
(-1.6349e-18 9.80392e-19 -0.00855881)
(-8.4208e-19 2.21554e-18 -0.00857976)
(6.75517e-19 3.02726e-19 -0.00859956)
(-6.52196e-19 3.28003e-19 -0.00861817)
(2.38291e-19 7.11613e-19 -0.00863555)
(1.63364e-19 7.92641e-19 -0.00865169)
(-8.41623e-20 9.19539e-19 -0.00866657)
(-1.97273e-19 -1.66236e-19 -0.00868015)
(-1.40114e-19 6.57831e-19 -0.00869243)
(-9.6438e-19 7.3293e-19 -0.00870338)
(5.0373e-19 1.23609e-18 -0.00871299)
(2.06285e-19 3.40846e-19 -0.00872126)
(5.5693e-19 3.75364e-19 -0.00872816)
(-2.61738e-20 -1.41136e-19 -0.00873369)
(5.83849e-19 1.92656e-19 -0.00873785)
(3.38144e-19 -7.51713e-19 -0.00874063)
(6.46924e-19 -2.99338e-19 -0.00874202)
(-5.19489e-20 -9.33785e-19 -0.00874202)
(7.33715e-20 -6.81107e-19 -0.00874063)
(-2.75897e-19 -9.96373e-19 -0.00873785)
(-1.96516e-19 -5.30772e-19 -0.00873369)
(5.4947e-19 -7.97309e-19 -0.00872816)
(-1.08847e-19 -9.86265e-19 -0.00872126)
(-4.26349e-19 -3.18008e-19 -0.00871299)
(-3.03593e-19 -2.98633e-19 -0.00870338)
(1.43721e-20 -3.2058e-19 -0.00869243)
(2.82456e-20 -1.02368e-18 -0.00868015)
(-3.89201e-19 -3.78018e-19 -0.00866657)
(-2.43545e-19 6.03893e-20 -0.00865169)
(-1.56643e-19 -8.10665e-20 -0.00863555)
(5.68339e-19 -5.01589e-19 -0.00861817)
(-1.00231e-18 -7.16587e-19 -0.00859956)
(-1.24736e-18 3.21907e-19 -0.00857976)
(6.1628e-19 5.86777e-19 -0.00855881)
(4.30144e-19 -1.60281e-18 -0.00853674)
(2.47379e-19 -5.29074e-19 -0.00851361)
(2.15987e-19 5.66184e-19 -0.00822546)
(-6.27e-19 5.6441e-19 -0.00825438)
(1.54423e-19 1.92908e-19 -0.00828251)
(-1.02313e-18 4.83312e-19 -0.00830977)
(7.71881e-20 -8.51284e-19 -0.00833612)
(-1.82211e-18 -5.39052e-20 -0.0083615)
(-1.10146e-18 5.28174e-19 -0.00838587)
(-2.08882e-18 4.51088e-19 -0.0084092)
(-1.59863e-18 9.50816e-19 -0.00843145)
(-9.18195e-19 2.1582e-18 -0.00845258)
(7.0451e-19 2.8003e-19 -0.00847255)
(-6.65941e-19 3.04036e-19 -0.00849131)
(2.73252e-19 6.79792e-19 -0.00850885)
(9.62816e-20 7.79125e-19 -0.00852513)
(3.46648e-20 9.85545e-19 -0.00854013)
(-1.37321e-19 -1.83846e-19 -0.00855383)
(-2.51554e-19 6.30394e-19 -0.00856621)
(-7.88705e-19 7.46145e-19 -0.00857726)
(4.81208e-19 1.21161e-18 -0.00858695)
(1.60195e-19 3.24868e-19 -0.00859528)
(4.53571e-19 3.63316e-19 -0.00860225)
(-1.26043e-20 -1.5657e-19 -0.00860783)
(5.45848e-19 1.83179e-19 -0.00861202)
(3.03228e-19 -7.74381e-19 -0.00861482)
(5.69123e-19 -2.86376e-19 -0.00861622)
(2.38162e-20 -9.35733e-19 -0.00861622)
(3.27788e-20 -6.82229e-19 -0.00861482)
(-3.26717e-19 -9.98813e-19 -0.00861202)
(-2.25642e-19 -5.47388e-19 -0.00860783)
(4.72443e-19 -7.88912e-19 -0.00860225)
(-2.03864e-19 -9.52241e-19 -0.00859529)
(-4.34197e-19 -3.02159e-19 -0.00858695)
(-4.09051e-19 -2.84601e-19 -0.00857726)
(2.94546e-21 -3.33412e-19 -0.00856621)
(6.59495e-20 -1.05386e-18 -0.00855383)
(-3.71498e-19 -3.69618e-19 -0.00854013)
(-2.15992e-19 6.98338e-20 -0.00852513)
(-2.25514e-19 -6.96234e-20 -0.00850885)
(5.62988e-19 -4.74075e-19 -0.00849131)
(-1.21362e-18 -5.86096e-19 -0.00847255)
(-1.15438e-18 2.53905e-19 -0.00845258)
(6.14998e-19 5.79298e-19 -0.00843145)
(3.83214e-19 -1.58444e-18 -0.0084092)
(2.61361e-19 -4.94723e-19 -0.00838587)
(2.76443e-19 6.05707e-19 -0.00809223)
(-6.59958e-19 5.60115e-19 -0.00812141)
(1.49876e-19 1.75932e-19 -0.00814978)
(-9.34925e-19 5.84894e-19 -0.00817728)
(2.6547e-19 -7.64607e-19 -0.00820385)
(-1.66666e-18 4.73168e-20 -0.00822945)
(-1.24405e-18 4.28009e-19 -0.00825403)
(-1.93544e-18 5.44034e-19 -0.00827756)
(-1.46474e-18 9.78545e-19 -0.0083)
(-1.02479e-18 2.08374e-18 -0.00832132)
(7.29572e-19 2.51917e-19 -0.00834145)
(-6.32443e-19 3.01849e-19 -0.00836038)
(2.73416e-19 6.38793e-19 -0.00837806)
(-1.55115e-19 6.90955e-19 -0.00839448)
(1.50116e-19 1.04521e-18 -0.00840961)
(-1.96214e-19 -2.33464e-19 -0.00842343)
(-2.98264e-19 6.098e-19 -0.00843592)
(-5.92069e-19 7.63741e-19 -0.00844706)
(4.444e-19 1.1925e-18 -0.00845684)
(1.04915e-19 3.09715e-19 -0.00846525)
(2.97468e-19 3.40996e-19 -0.00847227)
(1.35844e-20 -1.76222e-19 -0.0084779)
(5.23215e-19 1.76384e-19 -0.00848213)
(3.00225e-19 -7.92497e-19 -0.00848495)
(4.13357e-19 -2.76621e-19 -0.00848637)
(2.95717e-20 -9.38949e-19 -0.00848637)
(-4.77937e-20 -6.77285e-19 -0.00848495)
(-3.43922e-19 -1.00372e-18 -0.00848213)
(-3.06757e-19 -5.58011e-19 -0.0084779)
(4.26365e-19 -7.8168e-19 -0.00847227)
(-2.64862e-19 -9.27048e-19 -0.00846525)
(-4.53279e-19 -2.82687e-19 -0.00845684)
(-4.34814e-19 -2.88696e-19 -0.00844706)
(2.43713e-20 -3.59722e-19 -0.00843592)
(7.31209e-20 -1.07547e-18 -0.00842343)
(-5.09827e-19 -3.13615e-19 -0.00840961)
(-4.83591e-20 2.80471e-20 -0.00839448)
(-3.019e-19 -4.7205e-20 -0.00837806)
(4.03238e-19 -3.70419e-19 -0.00836038)
(-1.38226e-18 -4.84999e-19 -0.00834145)
(-9.51703e-19 1.16412e-19 -0.00832132)
(5.37189e-19 6.21146e-19 -0.0083)
(2.11511e-19 -1.49544e-18 -0.00827756)
(3.9331e-19 -5.36282e-19 -0.00825403)
(3.01253e-19 6.04639e-19 -0.00795465)
(-5.44961e-19 6.89449e-19 -0.00798409)
(7.35174e-20 9.49773e-20 -0.00801271)
(-7.12325e-19 7.8311e-19 -0.00804045)
(4.60381e-19 -6.77696e-19 -0.00806724)
(-1.43193e-18 2.17077e-19 -0.00809306)
(-1.24839e-18 4.18421e-19 -0.00811785)
(-1.76714e-18 6.32836e-19 -0.00814157)
(-1.24612e-18 1.06347e-18 -0.00816421)
(-1.19054e-18 1.98237e-18 -0.00818571)
(7.59362e-19 2.1654e-19 -0.00820602)
(-5.44954e-19 3.23507e-19 -0.00822511)
(2.49236e-19 5.97568e-19 -0.00824295)
(-2.41266e-19 6.62088e-19 -0.00825951)
(2.33647e-19 1.08923e-18 -0.00827477)
(-2.65025e-19 -2.81985e-19 -0.00828871)
(-3.09686e-19 5.9251e-19 -0.00830131)
(-5.68514e-19 7.3716e-19 -0.00831254)
(4.39505e-19 1.18342e-18 -0.00832241)
(1.02196e-19 3.06746e-19 -0.00833089)
(2.29807e-19 3.28573e-19 -0.00833797)
(5.40415e-20 -1.9794e-19 -0.00834365)
(4.50533e-19 1.65207e-19 -0.00834792)
(3.28934e-19 -8.05914e-19 -0.00835077)
(2.87636e-19 -2.64955e-19 -0.00835219)
(1.59786e-20 -9.43781e-19 -0.00835219)
(-1.54492e-19 -6.71416e-19 -0.00835077)
(-2.92709e-19 -1.0129e-18 -0.00834792)
(-3.71934e-19 -5.69613e-19 -0.00834365)
(4.62489e-19 -7.88915e-19 -0.00833797)
(-2.26179e-19 -9.15692e-19 -0.00833089)
(-4.85613e-19 -2.62849e-19 -0.00832241)
(-3.18014e-19 -3.3178e-19 -0.00831255)
(6.49551e-20 -3.90624e-19 -0.00830131)
(1.3415e-19 -1.10388e-18 -0.00828871)
(-8.17371e-19 -2.05681e-19 -0.00827477)
(-4.45877e-20 4.27597e-20 -0.00825951)
(-3.72905e-19 -1.44014e-20 -0.00824295)
(2.48957e-19 -2.69021e-19 -0.00822511)
(-1.31838e-18 -5.14053e-19 -0.00820602)
(-7.00364e-19 -4.75587e-20 -0.00818571)
(3.62753e-19 7.32393e-19 -0.00816421)
(5.5829e-20 -1.42839e-18 -0.00814157)
(3.93601e-19 -4.92078e-19 -0.00811785)
(3.27873e-19 5.94243e-19 -0.00781248)
(-4.31945e-19 8.23389e-19 -0.00784217)
(2.36785e-21 1.45784e-20 -0.00787104)
(-4.99781e-19 9.60452e-19 -0.007899)
(6.51345e-19 -5.91011e-19 -0.00792603)
(-1.25032e-18 3.53907e-19 -0.00795206)
(-1.12669e-18 4.93707e-19 -0.00797706)
(-1.70921e-18 6.48627e-19 -0.00800098)
(-1.1554e-18 1.08567e-18 -0.00802382)
(-1.34835e-18 1.89069e-18 -0.0080455)
(7.31351e-19 1.41449e-19 -0.00806598)
(-5.14727e-19 3.21418e-19 -0.00808523)
(1.70532e-19 5.33248e-19 -0.00810323)
(-1.12096e-19 7.07323e-19 -0.00811993)