/*--------------------------------*- C++ -*----------------------------------*\
  =========                 |
  \\      /  F ield         | OpenFOAM: The Open Source CFD Toolbox
   \\    /   O peration     | Website:  https://openfoam.org
    \\  /    A nd           | Version:  7
     \\/     M anipulation  |
\*---------------------------------------------------------------------------*/
FoamFile
{
    version     2.0;
    format      ascii;
    class       surfaceScalarField;
    location    "76000";
    object      phi;
}
// * * * * * * * * * * * * * * * * * * * * * * * * * * * * * * * * * * * * * //

dimensions      [0 3 -1 0 0 0 0];

internalField   nonuniform List<scalar> 
9540
(
-5.7517e-23
2.50328e-23
4.3881e-23
3.13244e-23
-5.4217e-23
2.96403e-23
5.57304e-23
-3.5123e-23
4.71241e-23
2.66091e-23
-5.31746e-23
1.64264e-23
3.50459e-23
-4.15833e-23
3.64588e-23
-3.91229e-23
2.7387e-23
-2.68578e-23
5.53516e-23
5.81534e-23
-4.59421e-23
3.19454e-23
3.53778e-23
-3.98055e-23
4.07992e-23
-3.34702e-23
2.08577e-23
-3.04008e-23
5.98206e-23
-4.10004e-23
4.50406e-23
6.52815e-23
-4.30282e-23
4.92507e-23
3.24784e-23
-4.24069e-23
4.65163e-23
-2.41932e-23
4.17402e-23
-3.59027e-23
8.05635e-23
-2.24942e-23
7.21567e-23
-1.63682e-23
6.30131e-23
1.28828e-22
-5.00893e-23
-2.01153e-24
2.80056e-23
-3.95746e-23
4.12819e-23
-2.35107e-23
6.01033e-23
-2.86727e-23
7.10148e-23
-2.94921e-23
7.92453e-23
1.72447e-24
8.33192e-23
-2.31112e-23
7.43562e-23
-2.12584e-23
1.07373e-22
4.93697e-23
-4.64603e-23
3.49416e-23
4.12528e-23
-2.98759e-23
2.96307e-23
-2.38593e-23
5.99328e-23
-2.87408e-23
6.41812e-23
-2.19245e-23
7.88655e-23
-1.99275e-24
1.04599e-22
-1.23788e-23
7.02077e-23
-4.06064e-23
4.55248e-23
-5.4677e-23
5.07779e-23
6.38268e-23
-4.03502e-23
6.41375e-23
4.32719e-23
-2.84152e-23
6.37027e-23
-1.93853e-23
6.97727e-23
-2.49112e-23
6.88874e-23
-1.49748e-23
9.53727e-23
-8.97114e-24
9.5293e-23
-2.2404e-23
8.37475e-23
-3.99713e-23
5.84497e-23
-4.48284e-23
5.43185e-23
-3.05762e-23
5.46814e-23
-4.38105e-23
3.94787e-23
-2.61365e-23
6.25866e-23
-3.43366e-23
5.04836e-23
-1.04552e-23
-4.13049e-23
4.38244e-23
3.63352e-23
-2.6392e-23
7.08733e-23
-1.83156e-23
6.77443e-23
-2.61044e-23
5.48621e-23
-1.39167e-23
8.84762e-23
-1.29265e-23
9.48352e-23
-3.28089e-23
1.01343e-22
-3.84489e-23
6.54535e-23
-4.80482e-23
3.29581e-23
-3.36425e-23
4.51199e-23
-2.98389e-23
3.87374e-23
-3.22942e-23
2.76214e-23
-4.56673e-23
5.15392e-23
-5.9312e-23
7.63094e-23
-6.33521e-23
5.43399e-23
-7.62534e-23
2.35012e-23
-7.78199e-23
2.78235e-23
3.77611e-23
-2.86084e-23
5.35482e-23
2.94876e-23
-2.51331e-23
7.83835e-23
-2.22833e-23
7.22597e-23
-1.86181e-23
1.01989e-22
-1.30269e-23
8.68588e-23
-1.24401e-23
9.22427e-23
-3.82649e-23
3.34176e-23
-3.85029e-23
6.50267e-23
-4.61246e-23
4.06091e-23
-3.82795e-23
4.72706e-23
-3.47558e-23
4.34634e-23
-3.15531e-23
2.89111e-23
-3.55716e-23
4.77171e-23
-6.32415e-23
3.73777e-23
-6.1905e-23
8.47862e-23
-7.49786e-23
3.4144e-23
-7.70574e-23
3.89889e-23
-6.0475e-23
2.56302e-23
-3.26853e-23
-9.11867e-24
-1.42841e-24
-2.52683e-23
6.02616e-23
2.67146e-23
-2.12469e-23
8.88935e-23
-1.60056e-23
7.80339e-23
-2.27129e-23
1.11495e-22
-1.00189e-23
1.20169e-22
-2.90514e-23
7.61249e-23
-3.29255e-23
5.80643e-23
-4.1359e-23
4.38367e-23
-4.46198e-23
4.16982e-23
-3.5162e-23
4.50395e-23
-3.61368e-23
4.4883e-23
-2.28654e-23
1.90276e-23
-3.72783e-23
2.01705e-23
-5.53041e-23
-5.9134e-24
-6.84312e-23
4.9091e-23
-7.18652e-23
3.4601e-23
-8.20654e-23
5.4527e-23
-6.43122e-23
2.13555e-23
-3.45036e-23
-2.86693e-23
-4.88554e-23
1.30446e-23
-4.39828e-23
5.04285e-23
-3.52294e-23
3.42449e-23
-4.92711e-23
-1.01029e-23
-7.49168e-23
-2.09487e-23
6.64183e-23
2.72061e-23
-2.18059e-23
9.97676e-23
-1.79104e-23
7.81683e-23
-2.0899e-23
1.06906e-22
-1.6559e-23
1.09083e-22
-2.61628e-23
1.29389e-22
-3.52067e-23
5.92097e-23
-4.0657e-23
4.54775e-23
-4.62653e-23
5.83311e-23
-3.82412e-23
3.73445e-23
-4.59954e-23
7.98877e-24
-2.41032e-23
3.17201e-23
-4.24159e-23
3.26253e-23
-4.94072e-23
-6.71224e-24
-7.01473e-23
5.26849e-23
-6.99939e-23
3.57309e-23
-8.53821e-23
1.63694e-23
-7.03968e-23
2.13416e-23
-2.85959e-23
3.7602e-23
-3.75113e-23
1.30985e-22
-4.88426e-23
6.42772e-23
-4.23494e-23
3.32038e-23
-6.39833e-23
9.30394e-24
-3.48447e-23
-1.86144e-23
-8.59183e-23
-3.75762e-24
-1.63502e-22
2.56381e-23
-1.72981e-22
3.01725e-23
-1.52823e-22
-6.78692e-26
1.61026e-23
-1.0707e-23
6.18034e-23
2.82227e-23
-2.15741e-23
1.15066e-22
-1.17711e-23
1.08204e-22
-2.58638e-23
1.1281e-22
-1.64824e-23
1.44849e-22
-3.44381e-23
1.32949e-22
-4.20087e-23
1.0223e-22
-4.23188e-23
5.25578e-23
-4.53094e-23
3.39206e-23
-4.78878e-23
4.14037e-23
-4.1504e-23
3.44244e-23
-2.66742e-23
1.83069e-23
-5.0231e-23
1.01631e-23
-3.82532e-23
8.79713e-24
-7.1758e-23
3.74253e-23
-6.83851e-23
1.19226e-22
-8.7535e-23
4.14591e-23
-6.529e-23
1.03769e-22
-8.94775e-24
9.23891e-23
-4.75691e-23
4.59161e-23
-5.50872e-23
6.66922e-23
-4.24209e-23
1.0909e-22
-6.97582e-23
2.58266e-23
-3.22131e-23
7.28768e-23
-8.25331e-23
4.25643e-23
-1.61009e-22
1.00338e-23
-1.80415e-22
3.306e-23
-1.50321e-22
4.81112e-23
-1.86325e-22
4.92305e-23
-2.19205e-22
4.8515e-23
-2.37578e-22
2.46257e-23
-7.20043e-23
-2.93676e-24
1.33111e-22
2.76611e-23
-2.06059e-23
5.09482e-23
-1.06242e-23
1.05847e-22
-1.5352e-23
1.52548e-22
-2.06526e-23
1.29594e-22
-4.15911e-23
9.50285e-23
-4.48343e-23
6.69053e-23
-4.30765e-23
6.21639e-23
-4.9966e-23
1.67405e-23
-4.37071e-23
4.09104e-23
-4.37544e-23
3.4934e-23
-3.32835e-23
9.47157e-25
-4.53758e-23
1.33906e-23
-3.11223e-23
2.48032e-23
-6.11989e-23
-2.75057e-23
-7.86599e-23
3.86843e-23
-7.49203e-23
4.1155e-23
-6.28368e-23
1.04799e-22
-1.78212e-23
1.59531e-22
-4.52532e-23
7.27286e-23
-4.90037e-23
6.69082e-23
-5.66576e-23
1.12131e-22
-6.11029e-23
3.24916e-23
-3.7083e-23
5.56521e-23
-8.76197e-23
1.19223e-23
-1.57414e-22
5.99305e-23
-1.83289e-22
4.34774e-23
-1.46614e-22
1.37103e-22
-1.90261e-22
9.757e-23
-2.21528e-22
8.04369e-23
-2.63762e-22
5.3112e-23
-2.78239e-22
3.94636e-23
-3.45971e-22
-2.87995e-22
-5.28845e-22
-1.4316e-23
1.2553e-22
2.15391e-23
-1.55278e-23
8.77955e-23
-8.14374e-24
1.00678e-22
-1.79002e-23
1.59422e-22
-2.5233e-23
8.34065e-23
-4.13576e-23
4.7949e-23
-4.56655e-23
4.71732e-23
-5.26434e-23
3.1491e-23
-4.73534e-23
1.14039e-23
-4.26743e-23
3.53059e-23
-4.96957e-23
7.48144e-23
-2.88839e-23
7.33335e-23
-4.26364e-23
2.46779e-23
-4.00889e-23
2.46083e-23
-5.14995e-23
-1.79328e-23
-7.43694e-23
5.6604e-23
-6.80923e-23
4.30245e-23
-5.26962e-23
9.46497e-23
-4.12701e-23
7.29161e-23
-4.15952e-23
7.36351e-23
-4.14731e-23
5.67105e-23
-6.77522e-23
4.72931e-23
-5.75664e-23
1.186e-22
-4.8533e-23
5.23163e-23
-7.68132e-23
3.56112e-23
-1.62277e-22
5.4502e-23
-1.67295e-22
3.16543e-23
-1.52521e-22
2.01131e-22
-1.94523e-22
1.40392e-22
-2.25865e-22
1.13939e-22
-2.68691e-22
8.02403e-23
-3.33768e-22
1.00627e-22
-4.31901e-22
-1.31771e-22
-4.62579e-22
-1.46637e-23
1.13469e-22
2.00499e-23
-1.54147e-23
5.93246e-23
-2.07004e-24
8.68132e-23
-2.67913e-23
1.07525e-22
-3.34312e-23
6.85134e-23
-4.82145e-23
3.78352e-23
-5.44589e-23
4.15634e-23
-5.81134e-23
3.18439e-23
-4.54033e-23
2.1209e-23
-3.82579e-23
2.97417e-23
-4.83616e-23
8.74774e-23
-3.45718e-23
6.9583e-23
-4.39682e-23
3.23846e-23
-4.6301e-23
3.1927e-23
-4.53728e-23
-1.66804e-23
-7.40674e-23
-1.13838e-23
-5.93039e-23
2.53276e-23
-5.69879e-23
2.25744e-24
-3.93519e-23
-2.1979e-24
-4.10084e-23
7.81648e-23
-4.54924e-23
5.42124e-23
-5.40121e-23
5.17009e-23
-7.20718e-23
7.38431e-24
-4.95484e-23
4.49713e-23
-6.94137e-23
5.89177e-23
-1.71331e-22
-3.95879e-23
-1.38139e-22
7.95736e-23
-1.62612e-22
1.24199e-22
-1.9534e-22
1.7753e-22
-2.33624e-22
1.1616e-22
-2.70246e-22
1.65098e-22
-3.72449e-22
1.62039e-22
-5.48636e-22
6.39098e-23
-1.85219e-22
-2.36377e-23
1.08077e-22
1.78559e-23
-1.98896e-23
5.6502e-23
-2.39327e-25
6.85255e-23
-3.38616e-23
8.4968e-23
-4.17145e-23
2.35629e-23
-4.31707e-23
6.49214e-23
-5.17026e-23
4.10376e-23
-5.55899e-23
3.59943e-23
-4.49493e-23
5.29401e-23
-2.68567e-23
2.75893e-23
-4.98493e-23
3.94704e-23
-3.72963e-23
3.29616e-23
-4.45827e-23
1.38753e-23
-4.63103e-23
3.09914e-23
-4.63977e-23
-2.29896e-23
-6.41506e-23
1.55316e-24
-6.51776e-23
1.98063e-23
-5.93805e-23
6.4691e-24
-2.76598e-23
6.1699e-23
-4.49556e-23
9.11645e-23
-4.4521e-23
4.40789e-23
-5.98428e-23
3.5821e-23
-6.98028e-23
1.19285e-22
-4.42048e-23
1.30679e-22
-8.44059e-23
5.78726e-23
-1.53056e-22
2.87597e-23
-1.32853e-22
1.82769e-22
-1.50783e-22
1.39265e-22
-2.04664e-22
1.00404e-22
-2.26443e-22
1.40913e-22
-2.73666e-22
2.11536e-22
-3.82946e-22
2.32112e-22
-6.05757e-22
3.12235e-22
6.92302e-22
-2.32346e-23
7.12631e-23
1.53062e-23
-1.9771e-23
5.77468e-23
-2.85874e-24
8.79726e-23
-3.67183e-23
6.58867e-23
-3.6047e-23
2.25385e-24
-4.77677e-23
5.49239e-23
-4.9867e-23
3.69809e-23
-5.04519e-23
4.18398e-23
-5.26434e-23
6.20491e-23
-2.62311e-23
1.44052e-23
-4.86054e-23
5.31566e-23
-3.93883e-23
3.08757e-23
-4.36264e-23
2.56604e-23
-4.81758e-23
3.865e-23
-4.82562e-23
-2.74663e-23
-5.5875e-23
5.68291e-24
-6.53962e-23
2.45022e-23
-5.07906e-23
8.39693e-23
-2.22414e-23
1.28285e-22
-4.82277e-23
1.15335e-22
-4.60619e-23
2.68901e-23
-4.96887e-23
4.07546e-23
-6.81854e-23
3.02041e-23
-5.28167e-23
2.09674e-22
-8.71642e-23
9.71042e-23
-1.32754e-22
7.28074e-23
-1.40726e-22
1.85638e-22
-1.53498e-22
1.48348e-22
-1.96212e-22
1.46089e-22
-2.15303e-22
1.96243e-22
-2.67681e-22
2.68969e-22
-3.61411e-22
3.32547e-22
-5.47293e-22
5.13357e-22
9.86308e-22
-2.60837e-23
4.72015e-23
1.11621e-23
-1.66302e-23
9.16825e-23
-8.19352e-24
8.49477e-23
-4.76833e-23
1.71988e-23
-3.1187e-23
6.47142e-23
-5.26406e-23
2.56643e-23
-4.82514e-23
2.76862e-23
-5.28361e-23
4.18592e-23
-5.42986e-23
6.73025e-23
-2.73668e-23
9.17573e-23
-4.67625e-23
1.2352e-22
-4.47919e-23
-5.64429e-24
-4.29047e-23
3.16265e-23
-5.28364e-23
4.60952e-23
-4.15906e-23
4.10472e-23
-5.79698e-23
2.07057e-23
-5.51251e-23
1.60265e-23
-4.33037e-23
4.53687e-23
-2.18364e-23
1.07992e-22
-6.11688e-23
1.07746e-22
-4.09245e-23
1.3212e-22
-5.35862e-23
4.44908e-23
-4.24616e-23
1.13875e-22
-6.97399e-23
1.04862e-22
-8.62601e-23
1.17073e-22
-1.21694e-22
8.54552e-23
-1.43076e-22
1.17529e-22
-1.55555e-22
1.52249e-22
-1.85911e-22
1.79217e-22
-2.04918e-22
2.15449e-22
-2.5052e-22
3.11043e-22
-3.28218e-22
4.09515e-22
-4.26783e-22
6.31063e-22
1.04829e-21
-1.86137e-23
6.50696e-23
1.64927e-23
-2.26153e-23
1.00458e-22
-2.05397e-23
8.35325e-23
-4.02057e-23
3.59108e-23
-3.3471e-23
5.12882e-23
-5.25355e-23
4.24302e-23
-4.68559e-23
5.66544e-23
-5.04604e-23
8.20528e-23
-4.76026e-23
1.02669e-22
-2.80338e-23
1.1846e-22
-6.33045e-23
1.65186e-22
-4.22414e-23
2.62339e-23
-4.04634e-23
3.9729e-23
-5.05097e-23
4.75673e-23
-4.47724e-23
3.67686e-23
-5.60117e-23
3.39321e-23
-5.19815e-23
9.90727e-23
-3.4978e-23
1.56579e-22
-2.17088e-23
1.74315e-22
-5.8163e-23
1.33072e-22
-5.02809e-23
1.21173e-22
-4.54027e-23
8.19427e-23
-4.50503e-23
1.15711e-22
-6.42052e-23
1.21479e-22
-8.88208e-23
1.26139e-22
-1.21926e-22
1.2381e-22
-1.35585e-22
1.58397e-22
-1.5274e-22
1.71719e-22
-1.80376e-22
2.31649e-22
-1.89778e-22
3.15155e-22
-2.30423e-22
3.57414e-22
-2.93928e-22
4.77882e-22
-3.2661e-22
7.79081e-22
1.05804e-21
-1.5754e-23
6.60945e-23
1.82666e-23
-2.21704e-23
1.07307e-22
-2.41846e-23
1.12504e-22
-3.7414e-23
4.78283e-23
-3.65998e-23
4.89717e-23
-4.73634e-23
2.2703e-23
-4.23448e-23
5.81755e-23
-4.22871e-23
9.08901e-23
-4.47957e-23
1.06925e-22
-1.52985e-23
1.34333e-22
-7.72623e-23
9.58123e-23
-3.88168e-23
9.11716e-23
-3.92873e-23
8.53014e-23
-5.15889e-23
5.65702e-23
-4.34555e-23
1.33815e-23
-4.42213e-23
2.92407e-23
-4.48491e-23
9.72884e-23
-3.25059e-23
1.38378e-22
-2.58685e-23
1.59409e-22
-5.91386e-23
8.85538e-23
-5.172e-23
1.08763e-22
-4.52897e-23
7.9773e-23
-4.49449e-23
1.1837e-22
-6.11671e-23
1.25165e-22
-8.8963e-23
1.51879e-22
-1.19281e-22
1.45807e-22
-1.32303e-22
1.64669e-22
-1.42277e-22
1.89528e-22
-1.68858e-22
2.48954e-22
-1.80532e-22
3.26681e-22
-2.10608e-22
3.8456e-22
-2.52846e-22
5.27084e-22
-2.66478e-22
8.03626e-22
9.4496e-22
-1.84955e-23
6.96849e-23
1.05e-23
-2.27514e-23
8.37793e-23
-2.46119e-23
7.38664e-23
-3.22484e-23
9.57134e-23
-3.79178e-23
9.50616e-23
-4.3564e-23
5.8414e-23
-3.83861e-23
5.87783e-23
-4.23658e-23
9.92828e-23
-3.70461e-23
9.85881e-23
-2.60662e-23
1.3242e-22
-7.31101e-23
2.41775e-23
-4.32964e-23
1.11634e-22
-3.9249e-23
1.11613e-22
-5.8772e-23
2.52293e-23
-3.85419e-23
1.98948e-23
-3.3316e-23
-9.74286e-24
-4.1284e-23
1.06269e-22
-2.80172e-23
1.18089e-22
-3.67406e-23
6.63668e-23
-5.61815e-23
1.08452e-22
-5.44179e-23
1.11775e-22
-4.26667e-23
7.72515e-23
-4.33674e-23
1.1547e-22
-5.45996e-23
1.29641e-22
-9.08639e-23
1.92064e-22
-1.15721e-22
1.66107e-22
-1.30357e-22
1.80026e-22
-1.30361e-22
2.86364e-22
-1.62685e-22
2.74099e-22
-1.67389e-22
3.32858e-22
-1.893e-22
4.03862e-22
-2.1722e-22
5.54961e-22
-2.27814e-22
7.30914e-22
9.11289e-22
-1.63621e-23
3.39959e-23
5.15372e-24
-2.13434e-23
8.3958e-23
-2.8324e-23
6.25374e-23
-3.33444e-23
9.40959e-23
-3.33257e-23
6.12523e-23
-4.48013e-23
6.67572e-23
-3.22593e-23
1.333e-22
-4.07851e-23
7.64296e-23
-3.69285e-23
1.33014e-22
-3.59105e-23
1.06699e-22
-6.39736e-23
4.72919e-23
-4.05433e-23
1.30822e-22
-4.93346e-23
1.25958e-22
-6.0177e-23
3.20321e-23
-3.82206e-23
7.26831e-23
-2.37967e-23
1.07287e-22
-3.64884e-23
1.20751e-22
-3.47953e-23
1.07284e-22
-3.13881e-23
5.61963e-23
-5.3578e-23
1.28645e-22
-5.8894e-23
8.68283e-23
-3.68396e-23
1.55642e-22
-4.35473e-23
1.27337e-22
-4.40071e-23
1.20712e-22
-9.48173e-23
6.88038e-24
-1.12299e-22
1.73329e-22
-1.19235e-22
1.85054e-22
-1.26517e-22
2.92213e-22
-1.59953e-22
2.22039e-22
-1.52594e-22
4.08679e-22
-1.70824e-22
4.22158e-22
-1.96329e-22
5.7791e-22
-1.92303e-22
7.27898e-22
-1.46055e-22
8.64952e-22
1.29743e-21
-1.23705e-23
3.52292e-23
5.88156e-24
-2.41646e-23
6.66949e-23
-2.19095e-23
5.41294e-23
-3.35324e-23
7.38112e-23
-3.35326e-23
9.21445e-23
-4.30496e-23
7.20325e-23
-4.10171e-23
1.32805e-22
-3.28916e-23
1.11087e-22
-4.54189e-23
1.06189e-22
-4.03272e-23
1.03309e-22
-5.6055e-23
5.85154e-23
-3.81465e-23
1.20152e-22
-5.9922e-23
1.19018e-22
-5.48498e-23
7.10741e-23
-3.47196e-23
1.22699e-22
-2.41296e-23
8.99544e-23
-3.8335e-23
4.64523e-23
-4.16866e-23
8.20991e-23
-2.00072e-23
1.63617e-22
-5.57116e-23
1.60681e-22
-5.43799e-23
1.35765e-22
-3.91108e-23
2.28389e-22
-4.38612e-23
1.32061e-22
-5.49118e-23
1.25378e-22
-7.77486e-23
2.21567e-23
-1.10795e-22
1.22907e-22
-1.06478e-22
2.03527e-22
-1.29951e-22
2.33741e-22
-1.41594e-22
2.27588e-22
-1.47225e-22
3.81598e-22
-1.49894e-22
4.21841e-22
-1.77478e-22
5.04346e-22
-1.61478e-22
7.04936e-22
-1.19773e-22
8.59845e-22
1.18814e-21
-9.40759e-24
5.8946e-23
1.07528e-23
-2.46136e-23
7.43362e-23
-2.29886e-23
4.2277e-23
-3.38503e-23
8.28278e-23
-3.47015e-23
9.27079e-23
-3.37342e-23
6.81901e-23
-4.31728e-23
9.84614e-23
-2.92493e-23
1.0166e-22
-4.42116e-23
1.15552e-22
-4.12355e-23
1.29595e-22
-5.22533e-23
6.7912e-23
-3.8492e-23
1.17914e-22
-6.40093e-23
6.53121e-23
-5.04867e-23
9.65546e-23
-3.41399e-23
1.35311e-22
-2.97404e-23
7.42878e-23
-3.12743e-23
5.01899e-23
-3.38871e-23
8.26842e-23
-2.22306e-23
1.2751e-22
-5.47455e-23
1.11856e-22
-4.62284e-23
1.40074e-22
-4.73627e-23
2.71772e-22
-4.73559e-23
1.35975e-22
-6.36892e-23
1.08327e-22
-6.75963e-23
1.2052e-23
-9.82571e-23
1.37756e-22
-1.06116e-22
2.01725e-22
-1.23059e-22
2.40175e-22
-1.27688e-22
2.31283e-22
-1.37524e-22
3.96317e-22
-1.41135e-22
4.18749e-22
-1.57638e-22
4.7345e-22
-1.34728e-22
6.77581e-22
-1.01921e-22
7.35022e-22
-6.40204e-24
5.57972e-23
5.19207e-24
-2.48418e-23
7.62153e-23
-1.93187e-23
3.44653e-23
-3.33183e-23
9.32948e-23
-3.30064e-23
8.74548e-23
-3.26891e-23
7.20504e-23
-4.09837e-23
9.78527e-23
-2.92123e-23
1.7245e-22
-4.01684e-23
1.18206e-22
-4.39281e-23
1.29393e-22
-4.99596e-23
3.64806e-23
-4.12037e-23
1.17514e-22
-5.94018e-23
6.83638e-23
-4.78236e-23
1.07965e-22
-3.82085e-23
1.2554e-22
-3.6601e-23
1.05069e-22
-2.60358e-23
1.16838e-22
-3.01985e-23
8.2608e-23
-2.34991e-23
1.12863e-22
-5.04686e-23
1.40983e-22
-3.53681e-23
1.3852e-22
-5.83354e-23
1.85059e-22
-5.16629e-23
1.29417e-22
-7.01267e-23
1.22632e-22
-5.82685e-23
1.28951e-22
-9.00578e-23
1.53302e-22
-1.03388e-22
2.00787e-22
-1.1879e-22
2.49487e-22
-1.16229e-22
2.25253e-22
-1.28466e-22
3.78358e-22
-1.31563e-22
4.08368e-22
-1.34456e-22
4.56484e-22
-1.17301e-22
6.55862e-22
6.6447e-22
-3.0238e-24
5.73215e-23
-2.73044e-24
-3.00975e-23
5.66528e-23
-1.25266e-23
4.78928e-23
-3.32743e-23
7.15493e-23
-3.31896e-23
9.27753e-23
-2.85827e-23
6.5265e-23
-2.96322e-23
9.0094e-23
-3.50306e-23
1.33387e-22
-4.49838e-23
8.61132e-23
-4.92265e-23
1.28088e-22
-4.53742e-23
1.09309e-22
-4.21962e-23
1.16009e-22
-5.64951e-23
8.93903e-23
-4.38323e-23
1.05951e-22
-3.92922e-23
1.20571e-22
-3.47978e-23
9.94728e-23
-2.62121e-23
1.42159e-22
-3.01369e-23
8.80954e-23
-1.91913e-23
9.68782e-23
-5.14868e-23
4.68679e-23
-3.33622e-23
1.33371e-22
-6.14468e-23
9.03532e-23
-5.36192e-23
1.24659e-22
-6.63157e-23
1.22665e-22
-5.65345e-23
1.18913e-22
-8.49877e-23
1.68889e-22
-9.79069e-23
2.02674e-22
-1.17872e-22
2.59872e-22
-1.01835e-22
2.95373e-22
-1.23585e-22
3.2383e-22
-1.25221e-22
3.98977e-22
-1.16341e-22
4.73236e-22
-1.0834e-22
5.60334e-22
6.43101e-22
2.37107e-25
5.90718e-23
-1.91931e-24
-2.99485e-23
-1.24998e-23
-1.54026e-23
2.96368e-23
-3.26046e-23
8.86897e-23
-3.5025e-23
9.45672e-23
-2.51178e-23
1.45346e-22
-3.30156e-23
9.57035e-23
-3.57857e-23
1.71442e-22
-4.15514e-23
8.60123e-23
-4.7706e-23
1.3335e-22
-4.66834e-23
1.04503e-22
-4.29869e-23
1.05068e-22
-5.62265e-23
1.08048e-22
-4.40411e-23
1.00507e-22
-3.95052e-23
8.62058e-23
-3.19723e-23
9.35523e-23
-3.02238e-23
9.56152e-23
-2.70778e-23
8.56256e-23
-2.3612e-23
9.70718e-23
-4.23971e-23
6.66439e-23
-3.87931e-23
1.28835e-22
-5.46461e-23
1.12122e-22
-5.39626e-23
1.24528e-22
-6.58084e-23
1.29222e-22
-5.11225e-23
1.83737e-22
-8.38605e-23
1.00736e-22
-9.08879e-23
1.95224e-22
-1.13426e-22
1.85629e-22
-9.84408e-23
2.77952e-22
-1.15579e-22
3.31082e-22
-1.13934e-22
3.79904e-22
-1.13414e-22
4.64921e-22
-9.40368e-23
5.445e-22
6.3189e-22
-6.05737e-24
5.49432e-23
1.31293e-24
-2.80391e-23
9.18524e-25
-1.03423e-23
9.37581e-23
-2.85933e-23
1.04355e-22
-3.23348e-23
1.2606e-22
-2.96059e-23
1.19289e-22
-2.88499e-23
8.74215e-23
-3.93828e-23
1.78264e-22
-3.96623e-23
1.75595e-22
-4.77285e-23
1.45507e-22
-4.65355e-23
9.03226e-23
-4.04626e-23
1.13684e-22
-5.43575e-23
1.15998e-22
-4.76068e-23
1.23372e-22
-3.73923e-23
7.38912e-23
-3.23152e-23
8.49965e-23
-2.76131e-23
9.89126e-23
-2.85029e-23
8.8443e-23
-2.50653e-23
5.26806e-23
-3.72633e-23
7.74754e-23
-4.10173e-23
1.62708e-22
-5.15328e-23
1.23091e-22
-5.33352e-23
1.19716e-22
-6.10916e-23
1.25791e-22
-5.62889e-23
1.80141e-22
-7.57194e-23
1.14582e-22
-9.06626e-23
1.97276e-22
-1.04154e-22
1.92636e-22
-9.38069e-23
2.57064e-22
-1.08592e-22
2.50859e-22
-1.05665e-22
3.65316e-22
-1.05225e-22
4.55281e-22
-8.06706e-23
5.39584e-22
-1.22339e-23
5.33989e-23
4.87688e-24
-1.98826e-23
7.81899e-24
-8.53619e-24
4.81646e-23
-2.95121e-23
8.52609e-23
-2.9936e-23
8.0443e-23
-2.8485e-23
1.26119e-22
-2.19785e-23
1.58948e-22
-3.87077e-23
9.57074e-23
-4.17633e-23
1.46833e-22
-4.65658e-23
1.5443e-22
-4.88583e-23
9.9038e-23
-4.00643e-23
1.04478e-22
-5.58918e-23
1.37783e-22
-4.99463e-23
1.16868e-22
-3.5447e-23
1.07544e-22
-3.12551e-23
1.17339e-22
-2.85869e-23
1.25189e-22
-3.19338e-23
8.80858e-23
-2.23334e-23
7.79633e-23
-3.12923e-23
8.81458e-23
-4.34634e-23
1.39037e-22
-5.02666e-23
1.21989e-22
-5.18707e-23
1.23163e-22
-5.80802e-23
1.19653e-22
-5.98709e-23
1.70485e-22
-6.94685e-23
1.16601e-22
-9.06203e-23
1.34782e-22
-9.74542e-23
1.82847e-22
-9.12753e-23
2.41779e-22
-9.88174e-23
2.41634e-22
-9.47568e-23
3.25344e-22
-9.89924e-23
4.19837e-22
5.33416e-22
-1.32146e-23
1.80622e-23
6.54739e-24
-1.75053e-23
1.47243e-23
-3.25954e-24
8.49275e-23
-2.95427e-23
1.07969e-22
-3.10458e-23
8.48041e-23
-2.0695e-23
1.58416e-22
-3.19336e-23
1.11414e-22
-3.21135e-23
1.04709e-22
-4.3409e-23
1.21967e-22
-4.78471e-23
1.61212e-22
-4.85235e-23
1.07527e-22
-3.96472e-23
9.75194e-23
-5.86471e-23
8.53227e-23
-5.01702e-23
1.08784e-22
-3.50521e-23
1.15329e-22
-3.05106e-23
1.1678e-22
-2.95972e-23
1.23745e-22
-3.21456e-23
1.27642e-22
-1.95468e-23
9.95739e-23
-3.04341e-23
1.00955e-22
-4.23171e-23
1.04394e-22
-5.07038e-23
1.29402e-22
-5.05445e-23
1.25716e-22
-5.58308e-23
1.14822e-22
-6.08214e-23
1.62453e-22
-6.96884e-23
1.176e-22
-8.52435e-23
1.11251e-22
-9.3619e-23
1.73944e-22
-8.88848e-23
2.47208e-22
-9.05216e-23
2.69284e-22
-8.45487e-23
3.17637e-22
-8.85295e-23
3.79576e-22
-1.24941e-23
-1.63912e-23
8.98961e-24
-1.3586e-23
5.92267e-23
-4.74306e-24
8.45069e-23
-2.91186e-23
5.54883e-23
-2.31857e-23
7.91838e-23
-2.39357e-23
7.61035e-23
-3.15004e-23
1.09793e-22
-2.93143e-23
1.35619e-22
-4.14684e-23
9.70903e-23
-5.26459e-23
1.39834e-22
-4.91305e-23
1.15084e-22
-4.116e-23
9.34157e-23
-5.23555e-23
1.04616e-22
-4.89984e-23
1.14428e-22
-3.34088e-23
1.46961e-22
-2.9739e-23
1.1108e-22
-3.06944e-23
1.64056e-22
-3.21729e-23
1.35449e-22
-1.88875e-23
9.46761e-23
-3.07895e-23
7.66996e-23
-3.84422e-23
1.05273e-22
-5.12825e-23
1.02316e-22
-5.0044e-23
1.2423e-22
-5.38516e-23
1.13503e-22
-6.10876e-23
1.64168e-22
-7.10833e-23
1.22206e-22
-7.86832e-23
1.48877e-22
-8.95418e-23
1.68177e-22
-8.44479e-23
2.3315e-22
-8.75322e-23
2.30031e-22
-7.91199e-23
3.17693e-22
3.4815e-22
-9.2038e-24
-1.98458e-23
1.21045e-23
-1.26697e-23
7.75017e-23
-1.86008e-24
8.49886e-23
-2.51128e-23
1.11806e-22
-2.48683e-23
1.129e-22
-2.36532e-23
1.19108e-22
-2.95194e-23
7.4162e-23
-2.96992e-23
9.78504e-23
-3.69716e-23
6.083e-23
-5.38632e-23
1.11533e-22
-4.77269e-23
1.56731e-22
-4.14005e-23
9.72845e-23
-4.79889e-23
1.11869e-22
-4.49704e-23
1.15342e-22
-3.69887e-23
1.4845e-22
-2.47602e-23
1.77024e-22
-3.2395e-23
1.43867e-22
-3.50764e-23
1.2179e-22
-2.09136e-23
8.20051e-23
-2.93449e-23
8.11458e-23
-3.73388e-23
6.39265e-23
-4.89639e-23
8.23918e-23
-4.93947e-23
1.23176e-22
-5.15455e-23
1.13868e-22
-6.22678e-23
1.4054e-22
-6.93468e-23
1.24883e-22
-7.69137e-23
1.42333e-22
-8.40705e-23
1.26945e-22
-8.29814e-23
2.17835e-22
-8.11542e-23
2.22875e-22
-7.43024e-23
2.79487e-22
3.59972e-22
-4.60776e-24
-2.91406e-23
1.74415e-23
-1.1948e-23
1.02846e-22
-1.00241e-24
8.21509e-23
-2.29353e-23
8.62411e-23
-2.35356e-23
1.21753e-22
-2.58495e-23
1.52609e-22
-2.73301e-23
1.05604e-22
-3.57288e-23
1.12918e-22
-3.74141e-23
6.3864e-23
-4.82026e-23
1.16976e-22
-5.11574e-23
1.63338e-22
-3.77016e-23
1.75801e-22
-4.75074e-23
1.32096e-22
-4.50066e-23
1.18752e-22
-3.02279e-23
1.43559e-22
-2.80587e-23
1.37439e-22
-3.26914e-23
1.51148e-22
-3.65102e-23
1.23758e-22
-1.96426e-23
1.11621e-22
-3.09885e-23
9.07694e-23
-3.54868e-23
6.08287e-23
-4.63489e-23
1.28743e-22
-4.91971e-23
1.26704e-22
-5.08087e-23
1.13592e-22
-6.15055e-23
1.51535e-22
-6.71749e-23
8.63839e-23
-7.8604e-23
1.4008e-22
-7.72465e-23
1.9409e-22
-8.03107e-23
2.11798e-22
-7.77365e-23
2.14566e-22
-6.66864e-23
3.17576e-22
3.13046e-22
-1.27717e-24
-8.76055e-25
2.27485e-23
-7.44084e-24
1.54085e-22
-1.10652e-24
8.49762e-23
-2.16575e-23
1.0825e-22
-2.26142e-23
8.38834e-23
-2.25681e-23
1.48777e-22
-2.63671e-23
1.00866e-22
-3.41181e-23
1.13559e-22
-3.4962e-23
9.39831e-23
-4.36033e-23
1.22346e-22
-5.04914e-23
1.39755e-22
-4.19072e-23
2.05083e-22
-4.75168e-23
1.42871e-22
-4.32792e-23
1.23999e-22
-3.18312e-23
1.36339e-22
-2.54531e-23
1.27777e-22
-3.39064e-23
1.26819e-22
-3.57192e-23
1.26916e-22
-2.24693e-23
1.09975e-22
-3.39497e-23
1.02925e-22
-3.00534e-23
1.35323e-22
-4.65879e-23
6.71925e-23
-4.81665e-23
4.95632e-23
-4.85698e-23
1.08914e-22
-6.40309e-23
1.33e-22
-6.39006e-23
7.26783e-23
-7.48508e-23
1.44646e-22
-7.61572e-23
1.79674e-22
-7.81576e-23
2.10492e-22
-7.04022e-23
2.8932e-22
-6.39641e-23
2.87488e-22
3.16161e-22
7.64715e-24
2.92019e-23
2.42906e-23
-7.37576e-24
2.13371e-22
8.03386e-25
1.13103e-22
-2.30889e-23
9.52153e-23
-2.08875e-23
1.28148e-22
-2.44184e-23
1.38183e-22
-2.6922e-23
9.52011e-23
-3.81702e-23
8.34449e-23
-2.8433e-23
1.2054e-22
-4.18897e-23
5.73502e-23
-4.51875e-23
1.39086e-22
-4.63805e-23
1.97049e-22
-4.76132e-23
1.39234e-22
-4.22854e-23
1.15557e-22
-2.90334e-23
1.56301e-22
-2.92848e-23
1.17166e-22
-3.34617e-23
1.27603e-22
-3.8127e-23
9.57817e-23
-2.28283e-23
1.00826e-22
-3.0159e-23
1.09697e-22
-3.47932e-23
1.03033e-22
-4.81856e-23
8.52448e-23
-4.28869e-23
7.74123e-23
-4.83186e-23
7.66581e-23
-6.62145e-23
1.09449e-22
-5.95354e-23
7.24532e-23
-7.06789e-23
1.48107e-22
-7.48636e-23
1.78788e-22
-7.20465e-23
2.06441e-22
-7.17172e-23
2.49539e-22
-5.7115e-23
2.58778e-22
3.09631e-22
1.58449e-23
8.12989e-23
2.52024e-23
-1.03582e-23
1.6386e-22
-1.44088e-24
1.14009e-22
-2.22658e-23
1.11969e-22
-1.70356e-23
1.19615e-22
-2.56619e-23
1.09583e-22
-2.77274e-23
9.21868e-23
-3.42493e-23
1.21796e-22
-3.14403e-23
1.19471e-22
-3.8202e-23
3.3914e-23
-4.01973e-23
1.33688e-22
-4.74316e-23
1.95666e-22
-4.99314e-23
1.37099e-22
-4.09986e-23
1.02142e-22
-2.8973e-23
1.39852e-22
-3.07229e-23
7.11844e-23
-3.19063e-23
1.29901e-22
-4.01701e-23
7.40156e-23
-2.07879e-23
1.77844e-22
-3.03713e-23
8.17342e-23
-3.63757e-23
1.04091e-22
-4.8821e-23
9.1615e-23
-4.0611e-23
1.43988e-22
-4.66011e-23
8.1553e-23
-6.68147e-23
1.41957e-22
-5.62117e-23
1.37546e-22
-6.75201e-23
1.59971e-22
-7.42335e-23
1.50041e-22
-6.69149e-23
2.25024e-22
-7.10261e-23
2.54655e-22
-5.07688e-23
3.07347e-22
2.59816e-22
1.514e-23
1.3158e-22
2.34567e-23
-9.96765e-24
1.18903e-22
-2.91833e-24
1.21063e-22
-2.00875e-23
1.4059e-22
-1.93719e-23
7.702e-23
-2.76688e-23
7.8994e-23
-2.56577e-23
9.17839e-23
-3.34526e-23
3.98762e-23
-3.6371e-23
1.09724e-22
-3.25067e-23
1.06269e-22
-3.73365e-23
9.43002e-23
-5.37106e-23
1.1106e-22
-4.65273e-23
1.64491e-22
-4.14721e-23
9.96572e-23
-3.06524e-23
1.41194e-22
-2.97797e-23
6.19335e-23
-3.24059e-23
1.29134e-22
-3.57667e-23
7.42563e-23
-2.34127e-23
1.9416e-22
-2.80607e-23
8.81273e-23
-3.72203e-23
7.36437e-23
-4.56781e-23
9.38394e-23
-4.29e-23
1.43436e-22
-4.38847e-23
8.1737e-23
-6.50249e-23
8.48259e-23
-5.57527e-23
1.27472e-22
-6.64232e-23
1.70929e-22
-7.04301e-23
1.53377e-22
-6.37236e-23
3.06658e-22
-6.87667e-23
2.89246e-22
-5.10472e-23
3.49927e-22
2.91937e-22
1.67334e-23
5.36308e-23
2.38305e-23
-9.50327e-24
8.10829e-23
-9.13455e-25
1.07506e-22
-2.42462e-23
8.78588e-23
-1.75532e-23
1.06797e-22
-2.96998e-23
1.43441e-22
-2.65133e-23
9.57679e-23
-3.03006e-23
4.4494e-23
-3.56767e-23
1.02489e-22
-3.29413e-23
9.63114e-23
-3.72492e-23
4.23869e-23
-4.94984e-23
1.1233e-22
-4.71955e-23
1.30455e-22
-4.05351e-23
8.19451e-23
-3.22642e-23
1.2594e-22
-2.80474e-23
9.66503e-23
-3.37195e-23
1.30958e-22
-2.99135e-23
1.0429e-22
-2.60907e-23
1.54907e-22
-2.91187e-23
1.03605e-22
-3.61985e-23
7.77828e-23
-4.3642e-23
8.85666e-23
-4.49029e-23
1.39418e-22
-4.46231e-23
8.29436e-23
-6.00903e-23
1.07666e-22
-5.43825e-23
1.60312e-22
-6.58515e-23
1.88974e-22
-6.30844e-23
2.27754e-22
-6.26339e-23
3.0858e-22
-6.53629e-23
2.91527e-22
-5.21659e-23
3.18866e-22
3.0695e-22
1.84728e-23
1.86371e-22
2.88738e-23
-8.47111e-24
6.04286e-23
-1.96215e-25
1.51745e-22
-2.43925e-23
1.28052e-22
-1.47317e-23
9.92955e-23
-3.18952e-23
8.71619e-23
-2.65054e-23
1.91738e-22
-3.02276e-23
4.44336e-23
-3.18759e-23
5.91566e-23
-3.78537e-23
1.01023e-22
-3.20989e-23
1.092e-22
-4.91271e-23
-2.48508e-24
-4.86137e-23
1.19565e-22
-4.01914e-23
7.89773e-23
-3.2156e-23
1.48335e-22
-2.81638e-23
9.83451e-23
-3.10191e-23
1.52702e-22
-3.02116e-23
1.30026e-22
-2.56592e-23
1.8286e-22
-3.17863e-23
1.14704e-22
-3.5422e-23
7.37044e-23
-4.17905e-23
9.14949e-23
-4.5266e-23
1.35449e-22
-4.44154e-23
1.65218e-22
-5.56284e-23
1.58115e-22
-5.40875e-23
1.66113e-22
-6.07792e-23
2.01755e-22
-6.08817e-23
2.18096e-22
-6.14397e-23
3.10561e-22
-6.32883e-23
2.85589e-22
-5.17478e-23
2.86054e-22
2.99505e-22
1.14069e-23
1.55443e-22
2.54468e-23
-3.18861e-24
1.08897e-22
-3.42487e-24
7.92356e-23
-2.34963e-23
7.13892e-23
-1.59037e-23
1.27649e-22
-2.76081e-23
7.19979e-23
-3.06973e-23
1.7915e-22
-3.24075e-23
8.4628e-23
-2.87431e-23
8.75068e-23
-3.54403e-23
1.02469e-22
-3.45393e-23
1.0442e-22
-4.43103e-23
4.47484e-23
-4.8292e-23
8.98577e-23
-3.6609e-23
6.87953e-23
-3.09485e-23
1.42724e-22
-2.62799e-23
1.35334e-22
-2.94656e-23
1.09333e-22
-3.14516e-23
1.21765e-22
-2.65312e-23
1.755e-22
-3.35889e-23
9.8932e-23
-3.28116e-23
7.3607e-23
-4.00989e-23
6.21744e-23
-4.16187e-23
1.40525e-22
-4.49839e-23
1.18812e-22
-5.37682e-23
1.68827e-22
-5.30668e-23
2.1461e-22
-5.7208e-23
2.02685e-22
-5.96214e-23
1.72519e-22
-6.11478e-23
2.75778e-22
-6.27801e-23
2.74857e-22
-5.11566e-23
2.62271e-22
3.41329e-22
1.2756e-23
1.92587e-22
2.65695e-23
-6.945e-24
7.99645e-23
-2.9448e-24
8.48397e-23
-2.14969e-23
1.9335e-23
-1.65691e-23
3.21202e-23
-2.23821e-23
1.20204e-22
-3.50892e-23
1.21342e-22
-3.27308e-23
8.90096e-23
-2.65819e-23
1.0759e-22
-3.501e-23
1.07366e-22
-3.81686e-23
9.96217e-23
-4.12915e-23
5.32822e-23
-4.7939e-23
5.74073e-23
-3.07461e-23
1.35853e-22
-3.08302e-23
1.36445e-22
-2.83585e-23
1.14786e-22
-2.68688e-23
9.57772e-23
-2.96115e-23
1.13467e-22
-2.67985e-23
1.22938e-22
-3.56709e-23
8.00771e-23
-3.29511e-23
1.55968e-22
-3.65952e-23
6.48651e-23
-4.18727e-23
9.92747e-23
-4.24108e-23
1.10899e-22
-5.09371e-23
1.34175e-22
-5.38922e-23
2.25263e-22
-5.63332e-23
2.01026e-22
-5.68617e-23
1.74447e-22
-5.88442e-23
2.34929e-22
-6.19662e-23
2.65881e-22
-4.78441e-23
2.81787e-22
3.8239e-22
8.32408e-24
2.20501e-22
2.50679e-23
-7.92468e-24
3.79212e-23
-3.81564e-24
1.32884e-22
-2.30243e-23
4.08065e-23
-1.3436e-23
8.80355e-23
-2.40913e-23
9.80267e-23
-3.2406e-23
1.54771e-22
-3.36177e-23
1.70046e-22
-2.3947e-23
2.15331e-22
-3.73167e-23
1.53311e-22
-3.51791e-23
1.75802e-22
-4.0973e-23
1.02615e-22
-4.1945e-23
1.40898e-22
-3.08772e-23
1.20258e-22
-3.40821e-23
1.42998e-22
-2.87353e-23
1.1566e-22
-2.33435e-23
1.13341e-22
-3.1588e-23
1.15552e-22
-2.53796e-23
1.94062e-22
-3.49564e-23
8.59388e-23
-3.59098e-23
1.2021e-22
-3.44874e-23
6.18716e-23
-4.02356e-23
6.25614e-23
-4.13556e-23
9.97665e-23
-4.57544e-23
1.33938e-22
-5.54066e-23
1.57459e-22
-5.57436e-23
1.98439e-22
-5.67184e-23
1.71493e-22
-5.48998e-23
2.21617e-22
-5.95454e-23
2.4922e-22
-4.41195e-23
3.11382e-22
4.15555e-22
3.09325e-24
1.75504e-22
2.14981e-23
-1.00025e-23
6.49229e-23
-4.49394e-24
2.0453e-22
-2.39994e-23
5.73822e-23
-9.93956e-24
1.99266e-22
-2.40208e-23
1.38435e-22
-2.86029e-23
2.03544e-22
-3.20858e-23
1.77127e-22
-2.54872e-23