/*--------------------------------*- C++ -*----------------------------------*\
  =========                 |
  \\      /  F ield         | OpenFOAM: The Open Source CFD Toolbox
   \\    /   O peration     | Website:  https://openfoam.org
    \\  /    A nd           | Version:  7
     \\/     M anipulation  |
\*---------------------------------------------------------------------------*/
FoamFile
{
    version     2.0;
    format      ascii;
    class       volScalarField;
    location    "64000";
    object      nu;
}
// * * * * * * * * * * * * * * * * * * * * * * * * * * * * * * * * * * * * * //

dimensions      [0 2 -1 0 0 0 0];

internalField   nonuniform List<scalar> 
4814
(
2.45878e-06
2.46369e-06
2.46817e-06
2.47213e-06
2.3166e-06
2.32616e-06
2.33531e-06
2.34424e-06
2.35297e-06
2.36143e-06
2.36964e-06
2.37753e-06
2.38511e-06
2.39233e-06
2.39916e-06
2.40567e-06
2.41173e-06
2.41743e-06
2.42274e-06
2.42753e-06
2.4319e-06
2.43575e-06
2.43914e-06
2.44206e-06
2.44453e-06
2.44648e-06
2.44799e-06
2.44899e-06
2.44951e-06
2.44951e-06
2.44899e-06
2.448e-06
2.44656e-06
2.44456e-06
2.44212e-06
2.43923e-06
2.43587e-06
2.432e-06
2.28364e-06
2.29295e-06
2.30186e-06
2.31056e-06
2.31906e-06
2.32731e-06
2.33532e-06
2.34301e-06
2.3504e-06
2.35742e-06
2.36407e-06
2.37042e-06
2.37634e-06
2.3819e-06
2.38707e-06
2.39175e-06
2.39599e-06
2.39974e-06
2.40305e-06
2.40591e-06
2.4083e-06
2.41021e-06
2.41168e-06
2.41265e-06
2.41317e-06
2.41317e-06
2.41266e-06
2.41169e-06
2.4103e-06
2.40833e-06
2.40594e-06
2.40313e-06
2.39986e-06
2.39609e-06
2.39186e-06
2.38718e-06
2.38206e-06
2.37648e-06
2.37049e-06
2.36415e-06
2.35744e-06
2.25104e-06
2.2601e-06
2.26878e-06
2.27724e-06
2.28551e-06
2.29356e-06
2.30136e-06
2.30886e-06
2.31605e-06
2.32288e-06
2.32935e-06
2.33554e-06
2.34132e-06
2.34672e-06
2.35176e-06
2.35633e-06
2.36045e-06
2.36411e-06
2.36734e-06
2.37012e-06
2.37244e-06
2.37432e-06
2.37575e-06
2.37669e-06
2.3772e-06
2.37721e-06
2.3767e-06
2.37576e-06
2.37441e-06
2.37248e-06
2.37014e-06
2.3674e-06
2.36421e-06
2.36055e-06
2.35643e-06
2.35187e-06
2.34688e-06
2.34145e-06
2.33561e-06
2.32943e-06
2.32289e-06
2.31601e-06
2.30879e-06
2.30131e-06
2.21881e-06
2.22763e-06
2.23607e-06
2.24429e-06
2.25234e-06
2.26019e-06
2.26777e-06
2.27508e-06
2.28207e-06
2.28871e-06
2.295e-06
2.30102e-06
2.30667e-06
2.31192e-06
2.31682e-06
2.32128e-06
2.32529e-06
2.32886e-06
2.332e-06
2.33471e-06
2.33695e-06
2.3388e-06
2.34019e-06
2.34111e-06
2.3416e-06
2.34161e-06
2.34112e-06
2.3402e-06
2.33888e-06
2.33699e-06
2.33471e-06
2.33204e-06
2.32895e-06
2.32539e-06
2.32138e-06
2.31694e-06
2.31207e-06
2.30678e-06
2.3011e-06
2.29508e-06
2.28871e-06
2.28202e-06
2.27499e-06
2.26772e-06
2.18696e-06
2.19553e-06
2.20373e-06
2.21173e-06
2.21955e-06
2.22719e-06
2.23456e-06
2.24167e-06
2.24846e-06
2.25492e-06
2.26104e-06
2.26689e-06
2.2724e-06
2.27749e-06
2.28226e-06
2.28661e-06
2.2905e-06
2.29398e-06
2.29705e-06
2.29968e-06
2.30185e-06
2.30365e-06
2.30501e-06
2.3059e-06
2.30637e-06
2.30638e-06
2.30592e-06
2.30502e-06
2.30373e-06
2.30189e-06
2.29967e-06
2.29706e-06
2.29405e-06
2.29059e-06
2.2867e-06
2.28238e-06
2.27764e-06
2.27249e-06
2.26697e-06
2.2611e-06
2.2549e-06
2.24841e-06
2.24158e-06
2.23451e-06
2.15549e-06
2.16381e-06
2.17178e-06
2.17955e-06
2.18715e-06
2.19457e-06
2.20173e-06
2.20864e-06
2.21524e-06
2.22151e-06
2.22746e-06
2.23314e-06
2.2385e-06
2.24344e-06
2.24808e-06
2.25231e-06
2.2561e-06
2.2595e-06
2.26247e-06
2.26503e-06
2.26713e-06
2.26889e-06
2.2702e-06
2.27108e-06
2.27153e-06
2.27154e-06
2.2711e-06
2.27023e-06
2.26896e-06
2.26717e-06
2.26501e-06
2.26247e-06
2.25954e-06
2.25618e-06
2.2524e-06
2.2482e-06
2.2436e-06
2.23859e-06
2.23323e-06
2.22751e-06
2.22149e-06
2.21518e-06
2.20855e-06
2.20168e-06
2.12441e-06
2.13248e-06
2.14022e-06
2.14776e-06
2.15513e-06
2.16234e-06
2.16929e-06
2.176e-06
2.1824e-06
2.18848e-06
2.19426e-06
2.19978e-06
2.205e-06
2.20979e-06
2.21429e-06
2.21841e-06
2.22209e-06
2.2254e-06
2.22828e-06
2.23077e-06
2.23281e-06
2.23452e-06
2.23579e-06
2.23664e-06
2.23707e-06
2.23708e-06
2.23666e-06
2.23582e-06
2.23458e-06
2.23284e-06
2.23075e-06
2.22827e-06
2.22542e-06
2.22216e-06
2.2185e-06
2.21441e-06
2.20994e-06
2.20507e-06
2.19987e-06
2.19431e-06
2.18846e-06
2.18234e-06
2.17591e-06
2.16924e-06
2.16231e-06
2.09373e-06
2.10155e-06
2.10905e-06
2.11637e-06
2.12351e-06
2.13051e-06
2.13725e-06
2.14375e-06
2.14996e-06
2.15585e-06
2.16147e-06
2.16682e-06
2.17188e-06
2.17653e-06
2.1809e-06
2.18489e-06
2.18847e-06
2.19169e-06
2.19449e-06
2.1969e-06
2.19888e-06
2.20054e-06
2.20177e-06
2.20259e-06
2.20301e-06
2.20301e-06
2.20262e-06
2.20181e-06
2.20059e-06
2.19891e-06
2.19688e-06
2.19447e-06
2.1917e-06
2.18854e-06
2.18499e-06
2.18101e-06
2.17668e-06
2.17195e-06
2.16691e-06
2.16151e-06
2.15584e-06
2.1499e-06
2.14367e-06
2.1372e-06
2.13048e-06
2.06346e-06
2.07103e-06
2.0783e-06
2.08539e-06
2.09231e-06
2.09908e-06
2.10562e-06
2.11191e-06
2.11792e-06
2.12363e-06
2.12908e-06
2.13427e-06
2.13917e-06
2.14368e-06
2.14791e-06
2.15179e-06
2.15525e-06
2.15838e-06
2.1611e-06
2.16344e-06
2.16535e-06
2.16696e-06
2.16815e-06
2.16895e-06
2.16936e-06
2.16936e-06
2.16898e-06
2.1682e-06
2.16701e-06
2.16538e-06
2.16341e-06
2.16107e-06
2.15839e-06
2.15532e-06
2.15188e-06
2.14802e-06
2.14383e-06
2.13923e-06
2.13435e-06
2.12912e-06
2.12363e-06
2.11787e-06
2.11184e-06
2.10557e-06
2.09905e-06
2.03362e-06
2.04093e-06
2.04796e-06
2.05483e-06
2.06152e-06
2.06807e-06
2.0744e-06
2.08049e-06
2.0863e-06
2.09182e-06
2.09711e-06
2.10213e-06
2.10688e-06
2.11125e-06
2.11534e-06
2.1191e-06
2.12245e-06
2.12549e-06
2.12812e-06
2.13039e-06
2.13224e-06
2.13379e-06
2.13495e-06
2.13572e-06
2.13612e-06
2.13612e-06
2.13576e-06
2.135e-06
2.13384e-06
2.13227e-06
2.13036e-06
2.12809e-06
2.12549e-06
2.12252e-06
2.11918e-06
2.11543e-06
2.11138e-06
2.10694e-06
2.10221e-06
2.09714e-06
2.09183e-06
2.08626e-06
2.08042e-06
2.07435e-06
2.06804e-06
2.0042e-06
2.01127e-06
2.01806e-06
2.0247e-06
2.03116e-06
2.0375e-06
2.04361e-06
2.04949e-06
2.05511e-06
2.06045e-06
2.06557e-06
2.07042e-06
2.07502e-06
2.07924e-06
2.08319e-06
2.08683e-06
2.09009e-06
2.09302e-06
2.09557e-06
2.09777e-06
2.09956e-06
2.10105e-06
2.10217e-06
2.10292e-06
2.1033e-06
2.1033e-06
2.10295e-06
2.10223e-06
2.10109e-06
2.09958e-06
2.09773e-06
2.09554e-06
2.09302e-06
2.09014e-06
2.08691e-06
2.08328e-06
2.07937e-06
2.07507e-06
2.07049e-06
2.06559e-06
2.06047e-06
2.05508e-06
2.04943e-06
2.04356e-06
1.97524e-06
1.98206e-06
1.98862e-06
1.99503e-06
2.00126e-06
2.00736e-06
2.01327e-06
2.01894e-06
2.02436e-06
2.02952e-06
2.03447e-06
2.03915e-06
2.0436e-06
2.04768e-06
2.05149e-06
2.05501e-06
2.05816e-06
2.06099e-06
2.06346e-06
2.06559e-06
2.06732e-06
2.06876e-06
2.06984e-06
2.07056e-06
2.07093e-06
2.07093e-06
2.07059e-06
2.0699e-06
2.06879e-06
2.06734e-06
2.06554e-06
2.06342e-06
2.06098e-06
2.0582e-06
2.05508e-06
2.05157e-06
2.04779e-06
2.04365e-06
2.03921e-06
2.03449e-06
2.02955e-06
2.02434e-06
2.01889e-06
2.01322e-06
1.94675e-06
1.95332e-06
1.95964e-06
1.96581e-06
1.97181e-06
1.97769e-06
1.98338e-06
1.98884e-06
1.99407e-06
1.99905e-06
2.00383e-06
2.00834e-06
2.01263e-06
2.01658e-06
2.02024e-06
2.02364e-06
2.02668e-06
2.02942e-06
2.0318e-06
2.03386e-06
2.03553e-06
2.03691e-06
2.03796e-06
2.03865e-06
2.03901e-06
2.03902e-06
2.03868e-06
2.03801e-06
2.03694e-06
2.03555e-06
2.03381e-06
2.03176e-06
2.0294e-06
2.02672e-06
2.02371e-06
2.02032e-06
2.01667e-06
2.01268e-06
2.0084e-06
2.00385e-06
1.99908e-06
1.99406e-06
1.98881e-06
1.98334e-06
1.91875e-06
1.92507e-06
1.93114e-06
1.93708e-06
1.94285e-06
1.9485e-06
1.95397e-06
1.95923e-06
1.96427e-06
1.96906e-06
1.97366e-06
1.97801e-06
1.98214e-06
1.98595e-06
1.98947e-06
1.99275e-06
1.99568e-06
1.99831e-06
2.00061e-06
2.00259e-06
2.00421e-06
2.00553e-06
2.00655e-06
2.00722e-06
2.00756e-06
2.00757e-06
2.00725e-06
2.0066e-06
2.00556e-06
2.00422e-06
2.00255e-06
2.00057e-06
1.99829e-06
1.99572e-06
1.9928e-06
1.98954e-06
1.98602e-06
1.98218e-06
1.97806e-06
1.97368e-06
1.96909e-06
1.96425e-06
1.9592e-06
1.95394e-06
1.89125e-06
1.89732e-06
1.90315e-06
1.90886e-06
1.91439e-06
1.91981e-06
1.92506e-06
1.93012e-06
1.93496e-06
1.93957e-06
1.94399e-06
1.94817e-06
1.95214e-06
1.95581e-06
1.95919e-06
1.96235e-06
1.96517e-06
1.9677e-06
1.96991e-06
1.97182e-06
1.97339e-06
1.97465e-06
1.97562e-06
1.97628e-06
1.97661e-06
1.97661e-06
1.97631e-06
1.97567e-06
1.97467e-06
1.97339e-06
1.97178e-06
1.96987e-06
1.96767e-06
1.9652e-06
1.96239e-06
1.95926e-06
1.95587e-06
1.95218e-06
1.94822e-06
1.94401e-06
1.9396e-06
1.93495e-06
1.9301e-06
1.92504e-06
1.86428e-06
1.87009e-06
1.87568e-06
1.88115e-06
1.88645e-06
1.89164e-06
1.89668e-06
1.90152e-06
1.90617e-06
1.9106e-06
1.91483e-06
1.91885e-06
1.92266e-06
1.92619e-06
1.92943e-06
1.93246e-06
1.93517e-06
1.9376e-06
1.93973e-06
1.94155e-06
1.94307e-06
1.94428e-06
1.94521e-06
1.94584e-06
1.94616e-06
1.94617e-06
1.94587e-06
1.94525e-06
1.9443e-06
1.94307e-06
1.94152e-06
1.93968e-06
1.93757e-06
1.93519e-06
1.9325e-06
1.9295e-06
1.92624e-06
1.9227e-06
1.91889e-06
1.91486e-06
1.91063e-06
1.90617e-06
1.90151e-06
1.89667e-06
1.83786e-06
1.84342e-06
1.84876e-06
1.85399e-06
1.85907e-06
1.86402e-06
1.86884e-06
1.87348e-06
1.87793e-06
1.88216e-06
1.88622e-06
1.89007e-06
1.89371e-06
1.8971e-06
1.90021e-06
1.9031e-06
1.9057e-06
1.90803e-06
1.91007e-06
1.91183e-06
1.91328e-06
1.91444e-06
1.91534e-06
1.91594e-06
1.91625e-06
1.91625e-06
1.91597e-06
1.91537e-06
1.91446e-06
1.91328e-06
1.91179e-06
1.91003e-06
1.908e-06
1.90572e-06
1.90313e-06
1.90027e-06
1.89714e-06
1.89375e-06
1.89011e-06
1.88625e-06
1.8822e-06
1.87793e-06
1.87347e-06
1.86884e-06
1.812e-06
1.8173e-06
1.82241e-06
1.8274e-06
1.83225e-06
1.83698e-06
1.84157e-06
1.846e-06
1.85025e-06
1.85429e-06
1.85817e-06
1.86186e-06
1.86533e-06
1.86858e-06
1.87155e-06
1.87431e-06
1.8768e-06
1.87902e-06
1.88098e-06
1.88266e-06
1.88405e-06
1.88516e-06
1.88602e-06
1.8866e-06
1.88689e-06
1.8869e-06
1.88663e-06
1.88605e-06
1.88518e-06
1.88406e-06
1.88262e-06
1.88094e-06
1.879e-06
1.87681e-06
1.87433e-06
1.8716e-06
1.86861e-06
1.86537e-06
1.86189e-06
1.8582e-06
1.85433e-06
1.85025e-06
1.846e-06
1.84157e-06
1.78664e-06
1.7917e-06
1.79658e-06
1.80136e-06
1.806e-06
1.81051e-06
1.81488e-06
1.8191e-06
1.82315e-06
1.82701e-06
1.83071e-06
1.83423e-06
1.83754e-06
1.84064e-06
1.84347e-06
1.84611e-06
1.84848e-06
1.85061e-06
1.85247e-06
1.85408e-06
1.85541e-06
1.85647e-06
1.85729e-06
1.85784e-06
1.85812e-06
1.85813e-06
1.85787e-06
1.85731e-06
1.85648e-06
1.85541e-06
1.85405e-06
1.85243e-06
1.85058e-06
1.84849e-06
1.84613e-06
1.84352e-06
1.84066e-06
1.83758e-06
1.83425e-06
1.83074e-06
1.82705e-06
1.82316e-06
1.81911e-06
1.81489e-06
1.76136e-06
1.76628e-06
1.77104e-06
1.77569e-06
1.78022e-06
1.78454e-06
1.78871e-06
1.79274e-06
1.7966e-06
1.80029e-06
1.80383e-06
1.80719e-06
1.81035e-06
1.8133e-06
1.816e-06
1.8185e-06
1.82077e-06
1.82279e-06
1.82456e-06
1.8261e-06
1.82737e-06
1.82838e-06
1.82916e-06
1.82969e-06
1.82996e-06
1.82997e-06
1.82971e-06
1.82918e-06
1.82839e-06
1.82738e-06
1.82608e-06
1.82453e-06
1.82276e-06
1.82077e-06
1.81852e-06
1.81604e-06
1.81331e-06
1.81038e-06
1.80721e-06
1.80386e-06
1.80033e-06
1.79662e-06
1.79275e-06
1.78872e-06
1.73576e-06
1.7406e-06
1.7453e-06
1.74989e-06
1.75437e-06
1.75859e-06
1.76265e-06
1.76656e-06
1.77032e-06
1.77392e-06
1.77736e-06
1.78063e-06
1.78368e-06
1.78649e-06
1.78906e-06
1.79145e-06
1.79361e-06
1.79554e-06
1.79723e-06
1.7987e-06
1.79991e-06
1.80088e-06
1.80162e-06
1.80212e-06
1.80238e-06
1.80239e-06
1.80215e-06
1.80164e-06
1.80089e-06
1.79991e-06
1.79868e-06
1.7972e-06
1.79551e-06
1.7936e-06
1.79146e-06
1.7891e-06
1.7865e-06
1.78371e-06
1.78065e-06
1.77739e-06
1.77396e-06
1.77034e-06
1.76657e-06
1.76265e-06
1.7586e-06
1.71017e-06
1.71483e-06
1.71936e-06
1.7238e-06
1.72813e-06
1.73226e-06
1.73627e-06
1.74013e-06
1.74384e-06
1.74738e-06
1.75079e-06
1.75401e-06
1.75699e-06
1.75972e-06
1.76221e-06
1.76453e-06
1.76663e-06
1.76851e-06
1.77015e-06
1.77158e-06
1.77277e-06
1.77372e-06
1.77443e-06
1.77492e-06
1.77517e-06
1.77518e-06
1.77494e-06
1.77445e-06
1.77372e-06
1.77277e-06
1.77157e-06
1.77014e-06
1.76849e-06
1.76663e-06
1.76454e-06
1.76225e-06
1.75972e-06
1.75702e-06
1.75402e-06
1.7508e-06
1.74742e-06
1.74385e-06
1.74014e-06
1.73627e-06
1.73228e-06
1.68518e-06
1.68956e-06
1.69383e-06
1.69801e-06
1.70209e-06
1.70605e-06
1.70991e-06
1.71362e-06
1.7172e-06
1.72062e-06
1.72389e-06
1.727e-06
1.7299e-06
1.73258e-06
1.73504e-06
1.73732e-06
1.73939e-06
1.74124e-06
1.74287e-06
1.74427e-06
1.74545e-06
1.74638e-06
1.74709e-06
1.74757e-06
1.74781e-06
1.74782e-06
1.74758e-06
1.7471e-06
1.74638e-06
1.74544e-06
1.74426e-06
1.74285e-06
1.74122e-06
1.73939e-06
1.73733e-06
1.73507e-06
1.73259e-06
1.72992e-06
1.72701e-06
1.72391e-06
1.72065e-06
1.71721e-06
1.71363e-06
1.70991e-06
1.70607e-06
1.66104e-06
1.66513e-06
1.66912e-06
1.67302e-06
1.67684e-06
1.68055e-06
1.68417e-06
1.68766e-06
1.69102e-06
1.69423e-06
1.69732e-06
1.70024e-06
1.70299e-06
1.70557e-06
1.70793e-06
1.71012e-06
1.71211e-06
1.71389e-06
1.71545e-06
1.71681e-06
1.71794e-06
1.71884e-06
1.71952e-06
1.71998e-06
1.72022e-06
1.72023e-06
1.72e-06
1.71953e-06
1.71884e-06
1.71794e-06
1.7168e-06
1.71544e-06
1.71387e-06
1.7121e-06
1.71012e-06
1.70795e-06
1.70557e-06
1.70301e-06
1.70025e-06
1.69733e-06
1.69426e-06
1.69103e-06
1.68767e-06
1.68418e-06
1.68058e-06
1.6379e-06
1.64168e-06
1.64537e-06
1.64899e-06
1.65254e-06
1.65598e-06
1.65935e-06
1.66259e-06
1.66572e-06
1.66872e-06
1.67159e-06
1.67432e-06
1.67689e-06
1.6793e-06
1.68151e-06
1.68356e-06
1.68543e-06
1.68709e-06
1.68856e-06
1.68984e-06
1.69089e-06
1.69174e-06
1.69238e-06
1.69281e-06
1.69304e-06
1.69304e-06
1.69283e-06
1.69239e-06
1.69174e-06
1.69089e-06
1.68983e-06
1.68855e-06
1.68708e-06
1.68542e-06
1.68356e-06
1.68152e-06
1.6793e-06
1.6769e-06
1.67432e-06
1.6716e-06
1.66874e-06
1.66573e-06
1.6626e-06
1.65936e-06
1.61588e-06
1.61935e-06
1.62273e-06
1.62606e-06
1.62931e-06
1.63248e-06
1.63558e-06
1.63857e-06
1.64146e-06
1.64423e-06
1.64688e-06
1.6494e-06
1.65178e-06
1.65401e-06
1.65606e-06
1.65796e-06
1.6597e-06
1.66124e-06
1.66261e-06
1.6638e-06
1.66478e-06
1.66558e-06
1.66617e-06
1.66657e-06
1.66678e-06
1.66678e-06
1.66658e-06
1.66617e-06
1.66557e-06
1.66478e-06
1.66379e-06
1.6626e-06
1.66123e-06
1.65969e-06
1.65796e-06
1.65607e-06
1.65402e-06
1.6518e-06
1.64941e-06
1.6469e-06
1.64425e-06
1.64147e-06
1.63858e-06
1.6356e-06
1.59511e-06
1.59826e-06
1.60133e-06
1.60435e-06
1.60731e-06
1.6102e-06
1.61302e-06
1.61575e-06
1.61839e-06
1.62092e-06
1.62335e-06
1.62566e-06
1.62783e-06
1.62988e-06
1.63176e-06
1.63351e-06
1.6351e-06
1.63652e-06
1.63778e-06
1.63888e-06
1.63978e-06
1.64051e-06
1.64106e-06
1.64143e-06
1.64162e-06
1.64162e-06
1.64144e-06
1.64106e-06
1.6405e-06
1.63978e-06
1.63886e-06
1.63777e-06
1.63651e-06
1.63509e-06
1.6335e-06
1.63177e-06
1.62988e-06
1.62785e-06
1.62566e-06
1.62336e-06
1.62094e-06
1.6184e-06
1.61576e-06
1.61304e-06
1.57574e-06
1.57856e-06
1.58131e-06
1.58402e-06
1.58668e-06
1.58928e-06
1.59182e-06
1.59428e-06
1.59666e-06
1.59895e-06
1.60114e-06
1.60323e-06
1.6052e-06
1.60705e-06
1.60876e-06
1.61035e-06
1.61179e-06
1.61309e-06
1.61424e-06
1.61523e-06
1.61606e-06
1.61673e-06
1.61723e-06
1.61756e-06
1.61774e-06
1.61774e-06
1.61757e-06
1.61723e-06
1.61672e-06
1.61605e-06
1.61522e-06
1.61423e-06
1.61308e-06
1.61178e-06
1.61034e-06
1.60877e-06
1.60705e-06
1.60521e-06
1.60323e-06
1.60115e-06
1.59896e-06
1.59667e-06
1.59429e-06
1.59184e-06
1.55789e-06
1.56037e-06
1.5628e-06
1.5652e-06
1.56756e-06
1.56986e-06
1.57212e-06
1.57431e-06
1.57643e-06
1.57847e-06
1.58042e-06
1.58228e-06
1.58404e-06
1.5857e-06
1.58723e-06
1.58865e-06
1.58995e-06
1.59111e-06
1.59214e-06
1.59304e-06
1.59379e-06
1.59439e-06
1.59484e-06
1.59514e-06
1.5953e-06
1.5953e-06
1.59514e-06
1.59484e-06
1.59438e-06
1.59378e-06
1.59303e-06
1.59214e-06
1.5911e-06
1.58994e-06
1.58864e-06
1.58723e-06
1.5857e-06
1.58405e-06
1.58228e-06
1.58043e-06
1.57848e-06
1.57644e-06
1.57432e-06
1.57214e-06
1.54165e-06
1.54381e-06
1.54592e-06
1.54801e-06
1.55007e-06
1.55208e-06
1.55405e-06
1.55597e-06
1.55783e-06
1.55962e-06
1.56134e-06
1.56297e-06
1.56452e-06
1.56598e-06
1.56733e-06
1.56858e-06
1.56973e-06
1.57076e-06
1.57167e-06
1.57247e-06
1.57313e-06
1.57367e-06
1.57407e-06
1.57434e-06
1.57448e-06
1.57447e-06
1.57433e-06
1.57406e-06
1.57365e-06
1.57312e-06
1.57246e-06
1.57167e-06
1.57075e-06
1.56972e-06
1.56857e-06
1.56732e-06
1.56597e-06
1.56452e-06
1.56297e-06
1.56134e-06
1.55963e-06
1.55784e-06
1.55599e-06
1.55408e-06
1.52711e-06
1.52895e-06
1.53076e-06
1.53255e-06
1.53431e-06
1.53604e-06
1.53773e-06
1.53938e-06
1.54098e-06
1.54253e-06
1.54401e-06
1.54542e-06
1.54676e-06
1.54803e-06
1.5492e-06
1.55028e-06
1.55128e-06
1.55218e-06
1.55298e-06
1.55367e-06
1.55425e-06
1.55472e-06
1.55507e-06
1.55531e-06
1.55543e-06
1.55542e-06
1.5553e-06
1.55506e-06
1.5547e-06
1.55424e-06
1.55366e-06
1.55297e-06
1.55217e-06
1.55127e-06
1.55027e-06
1.54919e-06
1.54802e-06
1.54676e-06
1.54542e-06
1.54401e-06
1.54253e-06
1.541e-06
1.5394e-06
1.53776e-06
1.51429e-06
1.51584e-06
1.51736e-06
1.51886e-06
1.52034e-06
1.5218e-06
1.52323e-06
1.52462e-06
1.52598e-06
1.52729e-06
1.52855e-06
1.52974e-06
1.53088e-06
1.53195e-06
1.53295e-06
1.53387e-06
1.53472e-06
1.53549e-06
1.53618e-06
1.53677e-06
1.53728e-06
1.53768e-06
1.53798e-06
1.53818e-06
1.53828e-06
1.53828e-06
1.53817e-06
1.53797e-06
1.53766e-06
1.53726e-06
1.53676e-06
1.53617e-06
1.53549e-06
1.53471e-06
1.53386e-06
1.53294e-06
1.53194e-06
1.53087e-06
1.52974e-06
1.52854e-06
1.52729e-06
1.52599e-06
1.52464e-06
1.52326e-06
1.50319e-06
1.50447e-06
1.50572e-06
1.50696e-06
1.50818e-06
1.50939e-06
1.51057e-06
1.51172e-06
1.51285e-06
1.51394e-06
1.51498e-06
1.51598e-06
1.51692e-06
1.51781e-06
1.51865e-06
1.51942e-06
1.52013e-06
1.52078e-06
1.52136e-06
1.52186e-06
1.52228e-06
1.52262e-06
1.52288e-06
1.52305e-06
1.52313e-06
1.52312e-06
1.52303e-06
1.52286e-06
1.5226e-06
1.52226e-06
1.52185e-06
1.52135e-06
1.52077e-06
1.52012e-06
1.51941e-06
1.51863e-06
1.5178e-06
1.51691e-06
1.51597e-06
1.51498e-06
1.51394e-06
1.51287e-06
1.51175e-06
1.5106e-06
1.50942e-06
1.49375e-06
1.49478e-06
1.49579e-06
1.4968e-06
1.49779e-06
1.49877e-06
1.49973e-06
1.50066e-06
1.50158e-06
1.50247e-06
1.50332e-06
1.50413e-06
1.50489e-06
1.50562e-06
1.50631e-06
1.50694e-06
1.50752e-06
1.50805e-06
1.50853e-06
1.50895e-06
1.5093e-06
1.50958e-06
1.50979e-06
1.50993e-06
1.51e-06
1.51e-06
1.50992e-06
1.50978e-06
1.50956e-06
1.50928e-06
1.50894e-06
1.50852e-06
1.50805e-06
1.50751e-06
1.50693e-06
1.50629e-06
1.50561e-06
1.50488e-06
1.50412e-06
1.50332e-06
1.50247e-06
1.5016e-06
1.50069e-06
1.49976e-06
1.49881e-06
1.48585e-06
1.48667e-06
1.48748e-06
1.48828e-06
1.48907e-06
1.48985e-06
1.49061e-06
1.49136e-06
1.49209e-06
1.4928e-06
1.49348e-06
1.49413e-06
1.49474e-06
1.49532e-06
1.49587e-06
1.49637e-06
1.49684e-06
1.49728e-06
1.49766e-06
1.498e-06
1.49829e-06
1.49852e-06
1.49869e-06
1.49881e-06
1.49886e-06
1.49885e-06
1.49879e-06
1.49867e-06
1.4985e-06
1.49827e-06
1.49799e-06
1.49765e-06
1.49727e-06
1.49684e-06
1.49636e-06
1.49585e-06
1.4953e-06
1.49472e-06
1.49412e-06
1.49348e-06
1.4928e-06
1.49211e-06
1.49139e-06
1.49065e-06
1.48989e-06
1.47935e-06
1.48e-06
1.48063e-06
1.48126e-06
1.48188e-06
1.48249e-06
1.48309e-06
1.48368e-06
1.48425e-06
1.48481e-06
1.48534e-06
1.48585e-06
1.48632e-06
1.48678e-06
1.48722e-06
1.48761e-06
1.48798e-06
1.48833e-06
1.48864e-06
1.48891e-06
1.48914e-06
1.48933e-06
1.48947e-06
1.48956e-06
1.4896e-06
1.48959e-06
1.48954e-06
1.48944e-06
1.48931e-06
1.48912e-06
1.4889e-06
1.48863e-06
1.48832e-06
1.48798e-06
1.4876e-06
1.48719e-06
1.48676e-06
1.48631e-06
1.48584e-06
1.48534e-06
1.48481e-06
1.48427e-06
1.48371e-06
1.48312e-06
1.48253e-06
1.48192e-06
1.47408e-06
1.47458e-06
1.47507e-06
1.47556e-06
1.47604e-06
1.47651e-06
1.47698e-06
1.47743e-06
1.47788e-06
1.47832e-06
1.47873e-06
1.47911e-06
1.47948e-06
1.47984e-06
1.48017e-06
1.48048e-06
1.48077e-06
1.48104e-06
1.48129e-06
1.4815e-06
1.48169e-06
1.48184e-06
1.48195e-06
1.48202e-06
1.48205e-06
1.48204e-06
1.482e-06
1.48192e-06
1.48181e-06
1.48167e-06
1.48149e-06
1.48128e-06
1.48104e-06
1.48076e-06
1.48047e-06
1.48015e-06
1.47982e-06
1.47946e-06
1.4791e-06
1.47872e-06
1.47831e-06
1.4779e-06
1.47746e-06
1.47701e-06
1.47656e-06
1.47609e-06
1.46983e-06
1.47022e-06
1.4706e-06
1.47098e-06
1.47135e-06
1.47171e-06
1.47207e-06
1.47242e-06
1.47277e-06
1.4731e-06
1.47342e-06
1.47372e-06
1.474e-06
1.47427e-06
1.47453e-06
1.47476e-06
1.47499e-06
1.4752e-06
1.4754e-06
1.47557e-06
1.47572e-06
1.47584e-06
1.47592e-06
1.47598e-06
1.476e-06
1.47599e-06
1.47596e-06
1.4759e-06
1.47581e-06
1.47569e-06
1.47555e-06
1.47539e-06
1.4752e-06
1.47498e-06
1.47475e-06
1.47451e-06
1.47425e-06
1.47398e-06
1.4737e-06
1.47341e-06
1.4731e-06
1.47279e-06
1.47245e-06
1.47211e-06
1.47176e-06
1.4714e-06
1.47103e-06
1.46641e-06
1.46672e-06
1.46701e-06
1.46731e-06
1.4676e-06
1.46788e-06
1.46816e-06
1.46843e-06
1.46869e-06
1.46896e-06
1.4692e-06
1.46943e-06
1.46964e-06
1.46985e-06
1.47005e-06
1.47023e-06
1.4704e-06
1.47057e-06
1.47073e-06
1.47086e-06
1.47098e-06
1.47108e-06
1.47115e-06
1.47119e-06
1.47121e-06
1.4712e-06
1.47117e-06
1.47112e-06
1.47105e-06
1.47096e-06
1.47085e-06
1.47072e-06
1.47057e-06
1.4704e-06
1.47022e-06
1.47002e-06
1.46982e-06
1.46962e-06
1.46941e-06
1.46919e-06
1.46895e-06
1.46871e-06
1.46846e-06
1.46819e-06
1.46792e-06
1.46765e-06
1.46736e-06
1.46365e-06
1.46389e-06
1.46413e-06
1.46436e-06
1.46459e-06
1.46481e-06
1.46502e-06
1.46524e-06
1.46545e-06
1.46565e-06
1.46584e-06
1.46602e-06
1.46618e-06
1.46634e-06
1.4665e-06
1.46664e-06
1.46678e-06
1.46691e-06
1.46703e-06
1.46714e-06
1.46725e-06
1.46732e-06
1.46738e-06
1.46741e-06
1.46742e-06
1.46742e-06
1.46739e-06
1.46735e-06
1.4673e-06
1.46722e-06
1.46713e-06
1.46703e-06
1.4669e-06
1.46677e-06
1.46662e-06
1.46647e-06
1.46632e-06
1.46616e-06
1.466e-06
1.46583e-06
1.46565e-06
1.46547e-06
1.46527e-06
1.46506e-06
1.46485e-06
1.46464e-06
1.46441e-06
1.46139e-06
1.46158e-06
1.46177e-06
1.46195e-06
1.46214e-06
1.46232e-06
1.46249e-06
1.46266e-06
1.46283e-06
1.46299e-06
1.46314e-06
1.46328e-06
1.46341e-06
1.46353e-06
1.46366e-06
1.46377e-06
1.46388e-06
1.46399e-06
1.46409e-06
1.46418e-06
1.46427e-06
1.46433e-06
1.46438e-06
1.46441e-06
1.46442e-06
1.46441e-06
1.46439e-06
1.46436e-06
1.46431e-06
1.46424e-06
1.46417e-06
1.46409e-06
1.46399e-06
1.46387e-06
1.46376e-06
1.46363e-06
1.46351e-06
1.46338e-06
1.46326e-06
1.46313e-06
1.46299e-06
1.46285e-06
1.46269e-06
1.46253e-06
1.46236e-06
1.46219e-06
1.46201e-06
1.45948e-06
1.45964e-06
1.45979e-06
1.45995e-06
1.4601e-06
1.46025e-06
1.46039e-06
1.46053e-06
1.46066e-06
1.4608e-06
1.46092e-06
1.46103e-06
1.46113e-06
1.46124e-06
1.46134e-06
1.46143e-06
1.46152e-06
1.46162e-06
1.46171e-06
1.46178e-06
1.46186e-06
1.46191e-06
1.46195e-06
1.46197e-06
1.46198e-06
1.46198e-06
1.46196e-06
1.46193e-06
1.46189e-06
1.46183e-06
1.46177e-06
1.4617e-06
1.46161e-06
1.46152e-06
1.46142e-06
1.46132e-06
1.46122e-06
1.46111e-06
1.46102e-06
1.46091e-06
1.4608e-06
1.46068e-06
1.46056e-06
1.46042e-06
1.46029e-06
1.46015e-06
1.46e-06
1.45782e-06
1.45795e-06
1.45808e-06
1.45822e-06
1.45834e-06
1.45847e-06
1.45859e-06
1.45871e-06
1.45882e-06
1.45894e-06
1.45904e-06
1.45913e-06
1.45922e-06
1.4593e-06
1.45939e-06
1.45947e-06
1.45954e-06
1.45962e-06
1.4597e-06
1.45977e-06
1.45984e-06
1.45989e-06
1.45992e-06
1.45994e-06
1.45995e-06
1.45994e-06
1.45992e-06
1.4599e-06
1.45986e-06
1.45981e-06
1.45976e-06
1.45969e-06
1.45962e-06
1.45954e-06
1.45945e-06
1.45937e-06
1.45928e-06
1.4592e-06
1.45912e-06
1.45903e-06
1.45894e-06
1.45884e-06
1.45874e-06
1.45863e-06
1.45851e-06
1.45839e-06
1.45827e-06
1.45815e-06
1.45633e-06
1.45644e-06
1.45656e-06
1.45667e-06
1.45678e-06
1.45689e-06
1.45699e-06
1.45709e-06
1.4572e-06
1.4573e-06
1.45739e-06
1.45746e-06
1.45753e-06
1.45761e-06
1.45768e-06
1.45775e-06
1.45782e-06
1.45789e-06
1.45796e-06
1.45802e-06
1.45808e-06
1.45813e-06
1.45816e-06
1.45817e-06
1.45818e-06
1.45817e-06
1.45816e-06
1.45813e-06
1.4581e-06
1.45806e-06
1.45801e-06
1.45795e-06
1.45788e-06
1.45781e-06
1.45774e-06
1.45766e-06
1.45759e-06
1.45751e-06
1.45745e-06
1.45738e-06
1.45729e-06
1.45721e-06
1.45713e-06
1.45703e-06
1.45693e-06
1.45683e-06
1.45673e-06
1.45662e-06
1.45495e-06
1.45505e-06
1.45515e-06
1.45525e-06
1.45535e-06
1.45544e-06
1.45553e-06
1.45562e-06
1.45571e-06
1.4558e-06
1.45588e-06
1.45594e-06
1.456e-06
1.45607e-06
1.45614e-06
1.45619e-06
1.45625e-06
1.45632e-06
1.45638e-06
1.45644e-06
1.4565e-06
1.45654e-06
1.45657e-06
1.45658e-06
1.45658e-06
1.45658e-06
1.45656e-06
1.45654e-06
1.45651e-06
1.45647e-06
1.45643e-06
1.45637e-06
1.45631e-06
1.45625e-06
1.45618e-06
1.45611e-06
1.45605e-06
1.45598e-06
1.45593e-06
1.45587e-06
1.4558e-06
1.45573e-06
1.45565e-06
1.45557e-06
1.45548e-06
1.4554e-06
1.4553e-06
1.45521e-06
1.45364e-06
1.45372e-06
1.45381e-06
1.4539e-06
1.45399e-06
1.45407e-06
1.45415e-06
1.45423e-06
1.45431e-06
1.45439e-06
1.45446e-06
1.45451e-06
1.45457e-06
1.45462e-06
1.45468e-06
1.45473e-06
1.45479e-06
1.45485e-06
1.45491e-06
1.45496e-06
1.45501e-06
1.45505e-06
1.45508e-06
1.45509e-06
1.45509e-06
1.45509e-06
1.45507e-06
1.45505e-06
1.45503e-06
1.45499e-06
1.45495e-06
1.4549e-06
1.45484e-06
1.45478e-06
1.45472e-06
1.45466e-06
1.4546e-06
1.45455e-06
1.4545e-06
1.45445e-06
1.45439e-06
1.45433e-06
1.45426e-06
1.45419e-06
1.45411e-06
1.45404e-06
1.45396e-06
1.45388e-06
1.45237e-06
1.45244e-06
1.45252e-06
1.4526e-06
1.45268e-06
1.45275e-06
1.45282e-06
1.45289e-06
1.45296e-06
1.45303e-06
1.45309e-06
1.45314e-06
1.45319e-06
1.45324e-06
1.45329e-06
1.45334e-06
1.45339e-06
1.45344e-06
1.4535e-06
1.45355e-06
1.45359e-06
1.45363e-06
1.45366e-06
1.45367e-06
1.45367e-06
1.45366e-06
1.45365e-06
1.45363e-06
1.4536e-06
1.45357e-06
1.45353e-06
1.45349e-06
1.45344e-06
1.45338e-06
1.45332e-06
1.45327e-06
1.45322e-06
1.45317e-06
1.45313e-06
1.45308e-06
1.45303e-06
1.45298e-06
1.45292e-06
1.45286e-06
1.45279e-06
1.45273e-06
1.45266e-06
1.45259e-06
1.45114e-06
1.4512e-06
1.45127e-06
1.45133e-06
1.4514e-06
1.45147e-06
1.45153e-06
1.45159e-06
1.45165e-06
1.45171e-06
1.45176e-06
1.45181e-06
1.45185e-06
1.45189e-06
1.45194e-06
1.45198e-06
1.45202e-06
1.45207e-06
1.45212e-06
1.45217e-06
1.45222e-06
1.45225e-06
1.45227e-06
1.45228e-06
1.45229e-06
1.45228e-06
1.45227e-06
1.45225e-06
1.45222e-06
1.45219e-06
1.45216e-06
1.45212e-06
1.45207e-06
1.45202e-06
1.45197e-06
1.45192e-06
1.45187e-06
1.45183e-06
1.45179e-06
1.45175e-06
1.45171e-06
1.45167e-06
1.45162e-06
1.45156e-06
1.45151e-06
1.45145e-06
1.45139e-06
1.45133e-06
1.44993e-06
1.44997e-06
1.45003e-06
1.45009e-06
1.45015e-06
1.4502e-06
1.45026e-06
1.45031e-06
1.45036e-06
1.45042e-06
1.45046e-06
1.4505e-06
1.45053e-06
1.45057e-06
1.45061e-06
1.45065e-06
1.45069e-06
1.45073e-06
1.45078e-06
1.45082e-06
1.45087e-06
1.4509e-06
1.45092e-06
1.45093e-06
1.45093e-06
1.45092e-06
1.45091e-06
1.45089e-06
1.45087e-06
1.45084e-06
1.45081e-06
1.45077e-06
1.45073e-06
1.45068e-06
1.45063e-06
1.45059e-06
1.45055e-06
1.45051e-06
1.45049e-06
1.45045e-06
1.45042e-06
1.45038e-06
1.45034e-06
1.45029e-06
1.45025e-06
1.4502e-06
1.45015e-06
1.4501e-06
1.44873e-06
1.44877e-06
1.44882e-06
1.44887e-06
1.44892e-06
1.44896e-06
1.44901e-06
1.44905e-06
1.4491e-06
1.44915e-06
1.44918e-06
1.44921e-06
1.44924e-06
1.44927e-06
1.44931e-06
1.44934e-06
1.44937e-06
1.44942e-06
1.44946e-06
1.4495e-06
1.44954e-06
1.44957e-06
1.44959e-06
1.4496e-06
1.4496e-06
1.44959e-06
1.44958e-06
1.44956e-06
1.44954e-06
1.44951e-06
1.44948e-06
1.44945e-06
1.44941e-06
1.44937e-06
1.44933e-06
1.44929e-06
1.44925e-06
1.44922e-06
1.4492e-06
1.44917e-06
1.44914e-06
1.44912e-06
1.44908e-06
1.44904e-06
1.44901e-06
1.44897e-06
1.44892e-06
1.44888e-06
2.31661e-06
2.28365e-06
2.25105e-06
2.21883e-06
2.18698e-06
2.15551e-06
2.12443e-06
2.09375e-06
2.06348e-06
2.03364e-06
2.00423e-06
1.97528e-06
1.94679e-06
1.91878e-06
1.89129e-06
1.86432e-06
1.83789e-06
1.81203e-06
1.78666e-06
1.76137e-06
1.73577e-06
1.71017e-06
1.68518e-06
1.66104e-06
1.6379e-06
1.61587e-06
1.59511e-06
1.57574e-06
1.55788e-06
1.54164e-06
1.5271e-06
1.51428e-06
1.50318e-06
1.49374e-06
1.48584e-06
1.47935e-06
1.47407e-06
1.46982e-06
1.46641e-06
1.46365e-06
1.46138e-06
1.45947e-06
1.45781e-06
1.45632e-06
1.45494e-06
1.45363e-06
1.45237e-06
1.45113e-06
1.44992e-06
1.44873e-06
2.32625e-06
2.29304e-06
2.26018e-06
2.2277e-06
2.1956e-06
2.16388e-06
2.13255e-06
2.10162e-06
2.0711e-06
2.041e-06
2.01134e-06
1.98213e-06
1.95338e-06
1.92512e-06
1.89736e-06
1.87013e-06
1.84345e-06
1.81733e-06
1.79173e-06
1.7663e-06
1.74062e-06
1.71485e-06
1.68957e-06
1.66514e-06
1.64169e-06
1.61935e-06
1.59826e-06
1.57855e-06
1.56036e-06
1.5438e-06
1.52894e-06
1.51582e-06
1.50445e-06
1.49476e-06
1.48665e-06
1.47998e-06
1.47456e-06
1.4702e-06
1.4667e-06
1.46387e-06
1.46156e-06
1.45961e-06
1.45793e-06
1.45642e-06
1.45502e-06
1.4537e-06
1.45242e-06
1.45117e-06
1.44995e-06
1.44875e-06
2.3355e-06
2.30205e-06
2.26896e-06
2.23624e-06
2.2039e-06
2.17194e-06
2.14037e-06
2.10919e-06
2.07843e-06
2.04809e-06
2.01818e-06
1.98872e-06
1.95973e-06
1.93122e-06
1.90322e-06
1.87574e-06
1.84881e-06
1.82245e-06
1.79661e-06
1.77106e-06
1.74531e-06
1.71938e-06
1.69384e-06
1.66912e-06
1.64537e-06
1.62272e-06
1.60132e-06
1.58129e-06
1.56278e-06
1.5459e-06
1.53073e-06
1.51733e-06
1.50569e-06
1.49576e-06
1.48745e-06
1.4806e-06
1.47504e-06
1.47056e-06
1.46698e-06
1.46409e-06
1.46173e-06
1.45976e-06
1.45805e-06
1.45652e-06
1.45511e-06
1.45378e-06
1.45249e-06
1.45123e-06
1.45e-06
1.44878e-06
2.34449e-06
2.31082e-06
2.27751e-06
2.24456e-06
2.21199e-06
2.17979e-06
2.14799e-06
2.11658e-06
2.08558e-06
2.055e-06
2.02485e-06
1.99515e-06
1.96592e-06
1.93717e-06
1.90893e-06
1.88121e-06
1.85404e-06
1.82743e-06
1.80138e-06
1.77571e-06
1.74991e-06
1.72381e-06
1.69801e-06
1.67302e-06
1.64898e-06
1.62604e-06
1.60433e-06
1.584e-06
1.56517e-06
1.54798e-06
1.53251e-06
1.51882e-06
1.50692e-06
1.49676e-06
1.48824e-06
1.48122e-06
1.47552e-06
1.47093e-06
1.46726e-06
1.46431e-06
1.46191e-06
1.4599e-06
1.45817e-06
1.45663e-06
1.4552e-06
1.45386e-06
1.45256e-06
1.45129e-06
1.45005e-06
1.44883e-06
2.35321e-06
2.3193e-06
2.28577e-06
2.2526e-06
2.2198e-06
2.18739e-06
2.15536e-06
2.12373e-06
2.0925e-06
2.0617e-06
2.03133e-06
2.0014e-06
1.97194e-06