/*--------------------------------*- C++ -*----------------------------------*\
  =========                 |
  \\      /  F ield         | OpenFOAM: The Open Source CFD Toolbox
   \\    /   O peration     | Website:  https://openfoam.org
    \\  /    A nd           | Version:  7
     \\/     M anipulation  |
\*---------------------------------------------------------------------------*/
FoamFile
{
    version     2.0;
    format      ascii;
    class       volVectorField;
    location    "124000";
    object      vorticity;
}
// * * * * * * * * * * * * * * * * * * * * * * * * * * * * * * * * * * * * * //

dimensions      [0 0 -1 0 0 0 0];

internalField   nonuniform List<vector> 
4844
(
(0.00949872 -0.00308371 7.1617e-18)
(0.00944875 -0.00340828 -1.10795e-16)
(0.00939356 -0.00373278 -6.11271e-17)
(0.00972261 -0.00315202 1.92376e-17)
(0.0096708 -0.00348371 -6.54611e-17)
(0.00961359 -0.0038153 -4.56854e-17)
(0.00955091 -0.00414676 -2.80324e-17)
(0.00948269 -0.00447805 -2.50512e-17)
(0.00940887 -0.00480912 -2.34476e-17)
(0.00932938 -0.00513989 -2.15589e-17)
(0.00924413 -0.00547031 -1.37709e-17)
(0.00994863 -0.00322101 1.06395e-17)
(0.00989499 -0.00355988 -5.27192e-17)
(0.00983576 -0.00389864 -4.18922e-17)
(0.00977087 -0.00423724 -3.19169e-17)
(0.00970026 -0.00457564 -2.80904e-17)
(0.00962386 -0.00491378 -2.69882e-17)
(0.00954159 -0.0052516 -2.46814e-17)
(0.00945337 -0.00558902 -1.7131e-17)
(0.00935912 -0.00592597 -1.24529e-17)
(0.00925877 -0.00626233 -1.13901e-17)
(0.00915222 -0.00659801 -1.18364e-17)
(0.0101769 -0.0032907 8.34907e-18)
(0.0101214 -0.00363683 -3.07516e-17)
(0.0100602 -0.00398283 -3.35473e-17)
(0.00999309 -0.00432865 -3.06667e-17)
(0.00992008 -0.00467425 -2.75574e-17)
(0.00984109 -0.00501955 -2.73787e-17)
(0.00975603 -0.0053645 -2.47224e-17)
(0.00966483 -0.00570902 -1.82239e-17)
(0.00956741 -0.00605301 -1.56362e-17)
(0.00946368 -0.00639638 -1.2687e-17)
(0.00935356 -0.00673902 -1.27784e-17)
(0.00923696 -0.00708081 -1.01636e-17)
(0.00911378 -0.0074216 -1.07058e-17)
(0.00898396 -0.00776125 -1.31553e-17)
(0.00884617 -0.00810092 -9.27155e-18)
(0.00951368 -0.00762656 -6.52753e-18)
(0.0104076 -0.00336112 5.896e-18)
(0.0103503 -0.0037146 -1.62583e-17)
(0.010287 -0.00406793 -2.51709e-17)
(0.0102177 -0.00442106 -2.61936e-17)
(0.0101423 -0.00477393 -2.46531e-17)
(0.0100607 -0.00512648 -2.57475e-17)
(0.00997281 -0.00547865 -2.30587e-17)
(0.00987863 -0.00583034 -1.75385e-17)
(0.00977802 -0.00618148 -1.66172e-17)
(0.00967091 -0.00653196 -1.30233e-17)
(0.00955719 -0.00688165 -1.26025e-17)
(0.00943679 -0.00723044 -1.12404e-17)
(0.00930962 -0.00757818 -1.25306e-17)
(0.00917558 -0.00792471 -1.46119e-17)
(0.00903341 -0.00827116 -1.05623e-17)
(0.00969003 -0.0078098 -9.21877e-18)
(0.0106407 -0.00343231 4.66792e-18)
(0.0105816 -0.00379323 -8.12012e-18)
(0.0105162 -0.00415397 -1.78688e-17)
(0.0104447 -0.00451449 -2.17394e-17)
(0.0103669 -0.00487473 -2.14639e-17)
(0.0102827 -0.00523462 -2.34949e-17)
(0.010192 -0.0055941 -2.1037e-17)
(0.0100949 -0.00595307 -1.64852e-17)
(0.00999105 -0.00631145 -1.53904e-17)
(0.00988054 -0.00666912 -1.23081e-17)
(0.00976322 -0.00702597 -1.17326e-17)
(0.00963901 -0.00738186 -1.09194e-17)
(0.00950781 -0.00773665 -1.26219e-17)
(0.00936954 -0.00809017 -1.39712e-17)
(0.00922295 -0.0084435 -9.62816e-18)
(0.0098688 -0.00799509 -9.97764e-18)
(0.0108154 -0.00387276 -3.26118e-18)
(0.0107481 -0.004241 -1.19611e-17)
(0.0106743 -0.004609 -1.8046e-17)
(0.0105941 -0.0049767 -1.89292e-17)
(0.0105073 -0.00534403 -2.1005e-17)
(0.0104138 -0.00571091 -1.84686e-17)
(0.0103136 -0.00607726 -1.52109e-17)
(0.0102066 -0.00644298 -1.38451e-17)
(0.0100927 -0.00680795 -1.11266e-17)
(0.00997174 -0.00717205 -1.09539e-17)
(0.0098437 -0.00753515 -9.96288e-18)
(0.00970845 -0.00789709 -1.13066e-17)
(0.00956592 -0.00825771 -1.25109e-17)
(0.00941489 -0.00861802 -8.49313e-18)
(0.0100501 -0.00818254 -9.98196e-18)
(0.011052 -0.00395322 -1.02721e-19)
(0.0109826 -0.00432906 -8.0285e-18)
(0.0109067 -0.00470464 -1.54017e-17)
(0.010824 -0.0050799 -1.71331e-17)
(0.0107345 -0.00545476 -1.90846e-17)
(0.0106383 -0.00582915 -1.67648e-17)
(0.010535 -0.00620297 -1.3712e-17)
(0.0104248 -0.00657613 -1.23391e-17)
(0.0103074 -0.0069485 -9.96035e-18)
(0.0101829 -0.00731996 -9.57308e-18)
(0.010051 -0.00769037 -8.84595e-18)
(0.00991164 -0.00805957 -1.01157e-17)
(0.00976482 -0.0084274 -1.01666e-17)
(0.00960931 -0.00879481 -7.49374e-18)
(0.010234 -0.00837222 -1.18644e-17)
(0.0112915 -0.00403466 1.89566e-18)
(0.01122 -0.0044182 -5.38256e-18)
(0.0111418 -0.00480146 -1.37319e-17)
(0.0110567 -0.00518437 -1.57397e-17)
(0.0109646 -0.00556687 -1.73903e-17)
(0.0108655 -0.00594887 -1.58345e-17)
(0.0107592 -0.00633027 -1.21819e-17)
(0.0106457 -0.00671097 -1.08403e-17)
(0.0105249 -0.00709085 -9.10623e-18)
(0.0103967 -0.00746978 -8.66423e-18)
(0.0102609 -0.00784761 -7.02463e-18)
(0.0101175 -0.00822419 -9.21731e-18)
(0.00996634 -0.00859933 -8.41044e-18)
(0.00980633 -0.00897396 -7.46448e-18)
(0.0104205 -0.00856424 -1.38998e-17)
(0.0116004 -0.00372553 5.29255e-18)
(0.0115338 -0.00411711 3.0776e-18)
(0.0114603 -0.00450846 -4.11298e-18)
(0.0113798 -0.0048995 -1.28673e-17)
(0.0112923 -0.00529017 -1.45433e-17)
(0.0111975 -0.00568041 -1.57005e-17)
(0.0110956 -0.00607012 -1.53008e-17)
(0.0109863 -0.00645921 -1.0861e-17)
(0.0108695 -0.00684757 -9.14464e-18)
(0.0107452 -0.00723507 -8.5896e-18)
(0.0106133 -0.00762158 -7.85996e-18)
(0.0104736 -0.00800695 -5.18861e-18)
(0.0103261 -0.00839102 -7.84866e-18)
(0.0101706 -0.00877359 -7.39597e-18)
(0.010006 -0.00915555 -7.25755e-18)
(0.0106099 -0.00875869 -1.40649e-17)
(0.0118477 -0.00380114 5.72785e-18)
(0.0117793 -0.00420063 3.2408e-18)
(0.0117037 -0.00459988 -3.72584e-18)
(0.011621 -0.00499881 -1.22085e-17)
(0.0115309 -0.00539736 -1.35669e-17)
(0.0114335 -0.00579544 -1.40588e-17)
(0.0113287 -0.00619298 -1.42659e-17)
(0.0112163 -0.00658987 -9.83708e-18)
(0.0110963 -0.006986 -7.78542e-18)
(0.0109685 -0.00738124 -8.44441e-18)
(0.0108328 -0.00777545 -7.10345e-18)
(0.0106892 -0.00816847 -3.84008e-18)
(0.0105375 -0.00856014 -6.28441e-18)
(0.0103777 -0.00895027 -5.82606e-18)
(0.0102085 -0.00933969 -6.61008e-18)
(0.0108021 -0.00895567 -1.18913e-17)
(0.0120983 -0.00387773 6.74711e-18)
(0.0120279 -0.00428526 2.69137e-18)
(0.0119503 -0.00469252 -4.0004e-18)
(0.0118652 -0.00509945 -1.15645e-17)
(0.0117727 -0.00550598 -1.25304e-17)
(0.0116727 -0.00591203 -1.30263e-17)
(0.0115649 -0.00631751 -1.27637e-17)
(0.0114494 -0.00672232 -8.60539e-18)
(0.0113261 -0.00712633 -6.80338e-18)
(0.0111948 -0.00752943 -8.32525e-18)
(0.0110554 -0.00793145 -6.83779e-18)
(0.0109078 -0.00833225 -3.20812e-18)
(0.010752 -0.00873165 -5.61432e-18)
(0.0105877 -0.00912946 -4.34976e-18)
(0.0104139 -0.00952646 -5.62016e-18)
(0.0109973 -0.00915529 -9.26756e-18)
(0.0123522 -0.00395536 7.77874e-18)
(0.0122799 -0.00437103 2.4051e-18)
(0.0122002 -0.00478642 -4.37969e-18)
(0.0121128 -0.00520146 -1.12056e-17)
(0.0120178 -0.00561609 -1.13985e-17)
(0.011915 -0.00603023 -1.25962e-17)
(0.0118044 -0.00644377 -1.186e-17)
(0.0116858 -0.00685661 -7.67497e-18)
(0.0115591 -0.00726864 -6.3784e-18)
(0.0114243 -0.00767971 -7.89822e-18)
(0.0112811 -0.00808968 -6.1276e-18)
(0.0111296 -0.00849838 -2.26341e-18)
(0.0109695 -0.00890564 -4.73371e-18)
(0.0108007 -0.00931124 -3.91644e-18)
(0.0106223 -0.00971596 -4.44872e-18)
(0.0111955 -0.00935764 -7.36772e-18)
(0.012676 -0.00360991 1.45768e-17)
(0.0126095 -0.00403407 8.44709e-18)
(0.0125354 -0.00445799 1.76373e-18)
(0.0124535 -0.00488163 -4.6615e-18)
(0.0123638 -0.00530491 -1.07082e-17)
(0.0122663 -0.00572776 -1.00877e-17)
(0.0121608 -0.0061501 -1.15528e-17)
(0.0120473 -0.00657183 -1.10752e-17)
(0.0119255 -0.00699283 -6.90389e-18)
(0.0117955 -0.00741299 -6.57143e-18)
(0.0116571 -0.00783217 -8.21476e-18)
(0.0115101 -0.00825021 -5.70688e-18)
(0.0113545 -0.00866694 -2.20832e-18)
(0.0111902 -0.00908218 -4.28231e-18)
(0.0110169 -0.00949573 -4.08197e-18)
(0.0108338 -0.00990829 -3.83865e-18)
(0.011397 -0.00956283 -5.06786e-18)
(0.0129387 -0.00368135 1.56041e-17)
(0.0128705 -0.0041139 8.29051e-18)
(0.0127944 -0.0045462 6.98892e-19)
(0.0127104 -0.0049782 -4.81998e-18)
(0.0126184 -0.00540984 -9.91798e-18)
(0.0125184 -0.00584104 -9.50186e-18)
(0.0124101 -0.00627171 -1.0406e-17)
(0.0122936 -0.00670175 -1.02104e-17)
(0.0121687 -0.00713104 -5.9069e-18)
(0.0120353 -0.00755947 -5.95065e-18)
(0.0118933 -0.00798688 -8.97799e-18)
(0.0117425 -0.00841313 -5.53899e-18)
(0.0115828 -0.00883802 -2.17565e-18)
(0.0114142 -0.00926139 -4.30367e-18)
(0.0112364 -0.009683 -4.34178e-18)
(0.0110484 -0.0101036 -3.67359e-18)
(0.0116017 -0.00977098 -2.89908e-18)
(0.0132672 -0.00331257 1.24427e-17)
(0.0132051 -0.00375383 1.53925e-17)
(0.0131352 -0.00419488 7.46356e-18)
(0.0130571 -0.00463569 -2.4575e-20)
(0.012971 -0.00507619 -4.48768e-18)
(0.0128767 -0.00551632 -8.63327e-18)
(0.0127741 -0.00595599 -9.40793e-18)
(0.0126631 -0.00639512 -9.43313e-18)
(0.0125436 -0.0068336 -9.45562e-18)
(0.0124155 -0.00727132 -5.3978e-18)
(0.0122787 -0.00770815 -4.6638e-18)
(0.012133 -0.00814394 -9.16788e-18)
(0.0119784 -0.00857852 -5.91371e-18)
(0.0118146 -0.00901172 -2.63704e-18)
(0.0116416 -0.00944334 -4.5353e-18)
(0.0114592 -0.00987317 -3.88412e-18)
(0.0112665 -0.0103018 -3.42769e-18)
(0.0118098 -0.00998219 -8.95906e-19)
(0.0135391 -0.00337747 1.23461e-17)
(0.0134755 -0.00382737 1.41909e-17)
(0.0134037 -0.00427707 6.77389e-18)
(0.0133238 -0.00472651 -4.1535e-19)
(0.0132355 -0.00517564 -4.52711e-18)
(0.0131388 -0.00562439 -7.37789e-18)
(0.0130336 -0.00607267 -9.00686e-18)
(0.0129199 -0.0065204 -8.713e-18)
(0.0127974 -0.00696746 -8.53201e-18)
(0.0126661 -0.00741375 -5.32969e-18)
(0.0125258 -0.00785912 -3.31683e-18)
(0.0123764 -0.00830342 -8.52822e-18)
(0.0122179 -0.00874648 -6.34065e-18)
(0.01205 -0.00918813 -2.90093e-18)
(0.0118726 -0.00962815 -4.91638e-18)
(0.0116856 -0.0100663 -3.56386e-18)
(0.011488 -0.0105033 -3.30412e-18)
(0.0120215 -0.0101966 -1.59401e-19)
(0.013815 -0.00344336 1.12927e-17)
(0.0137499 -0.00390204 1.25285e-17)
(0.0136764 -0.00436051 5.90931e-18)
(0.0135944 -0.00481872 -1.03363e-19)
(0.013504 -0.00527662 -4.1978e-18)
(0.0134049 -0.00573412 -6.85941e-18)
(0.0132971 -0.00619115 -8.84907e-18)
(0.0131805 -0.00664762 -8.73068e-18)
(0.013055 -0.00710341 -7.4026e-18)
(0.0129205 -0.00755839 -4.71964e-18)
(0.0127767 -0.00801245 -2.35054e-18)
(0.0126237 -0.0084654 -8.06732e-18)
(0.0124612 -0.0089171 -6.24577e-18)
(0.0122891 -0.00936734 -2.54632e-18)
(0.0121072 -0.00981592 -4.9845e-18)
(0.0119155 -0.0102626 -3.85643e-18)
(0.011713 -0.010708 -2.89098e-18)
(0.0122367 -0.0104143 1.14927e-19)
(0.0140952 -0.00351026 9.29481e-18)
(0.0140285 -0.00397786 1.04707e-17)
(0.0139532 -0.00444524 4.97617e-18)
(0.0138693 -0.00491237 6.17083e-19)
(0.0137766 -0.00537917 -3.38986e-18)
(0.0136751 -0.00584557 -6.45931e-18)
(0.0135647 -0.0063115 -8.66594e-18)
(0.0134453 -0.00677684 -8.7634e-18)
(0.0133167 -0.0072415 -6.40888e-18)
(0.0131789 -0.00770534 -3.85924e-18)
(0.0130316 -0.00816823 -1.9818e-18)
(0.0128748 -0.00862999 -8.06334e-18)
(0.0127084 -0.00909047 -6.38932e-18)
(0.012532 -0.00954945 -1.69051e-18)
(0.0123457 -0.0100067 -3.95497e-18)
(0.0121493 -0.0104621 -4.39913e-18)
(0.0119418 -0.010916 -2.88037e-18)
(0.0124557 -0.0106354 5.82126e-19)
(0.0143797 -0.00357822 7.09228e-18)
(0.0143114 -0.00405488 8.84472e-18)
(0.0142343 -0.00453132 4.35677e-18)
(0.0141484 -0.0050075 8.4015e-19)
(0.0140535 -0.00548336 -2.81712e-18)
(0.0139496 -0.00595881 -5.70506e-18)
(0.0138366 -0.00643377 -8.12149e-18)
(0.0137143 -0.00690815 -8.66778e-18)
(0.0135826 -0.00738183 -5.84088e-18)
(0.0134415 -0.00785467 -3.02758e-18)
(0.0132907 -0.00832654 -1.92329e-18)
(0.0131301 -0.00879728 -8.30312e-18)
(0.0129596 -0.00926669 -6.80265e-18)
(0.012779 -0.00973457 -1.53151e-18)
(0.0125881 -0.0102007 -3.09522e-18)
(0.0123869 -0.0106649 -4.11082e-18)
(0.0121743 -0.0111276 -3.04906e-18)
(0.0126786 -0.01086 1.2309e-18)
(0.0146688 -0.00364727 4.70543e-18)
(0.0145989 -0.00413313 7.43994e-18)
(0.01452 -0.00461879 4.55833e-18)
(0.014432 -0.00510418 1.77162e-18)
(0.0143349 -0.00558923 -2.53543e-18)
(0.0142286 -0.00607389 -5.62175e-18)
(0.0141128 -0.00655804 -7.59707e-18)
(0.0139877 -0.00704161 -8.02124e-18)
(0.0138529 -0.00752446 -5.04368e-18)
(0.0137084 -0.00800647 -2.83313e-18)
(0.013554 -0.00848749 -1.95201e-18)
(0.0133896 -0.00896735 -8.16706e-18)
(0.013215 -0.00944585 -7.03793e-18)
(0.0130301 -0.0099228 -1.8524e-18)
(0.0128346 -0.010398 -2.60908e-18)
(0.0126285 -0.0108711 -3.64919e-18)
(0.0124109 -0.0113427 -2.7802e-18)
(0.0129054 -0.0110883 1.74373e-18)
(0.0149625 -0.00371745 2.5307e-18)
(0.014891 -0.00421268 6.19578e-18)
(0.0148103 -0.0047077 4.55324e-18)
(0.0147203 -0.00520245 2.97691e-18)
(0.0146209 -0.00569686 -1.91272e-18)
(0.0145121 -0.00619088 -5.44773e-18)
(0.0143937 -0.00668439 -7.11184e-18)
(0.0142656 -0.0071773 -7.52879e-18)
(0.0141276 -0.00766949 -4.35874e-18)
(0.0139797 -0.00816083 -2.73009e-18)
(0.0138217 -0.00865116 -1.61173e-18)
(0.0136534 -0.0091403 -7.62583e-18)
(0.0134747 -0.00962807 -7.05529e-18)
(0.0132854 -0.0101143 -2.00463e-18)
(0.0130853 -0.0105986 -2.47237e-18)
(0.0128743 -0.0110809 -2.98567e-18)
(0.0126515 -0.0115616 -2.02615e-18)
(0.0131364 -0.0113204 2.3648e-18)
(0.0152612 -0.00378881 7.29159e-19)
(0.015188 -0.00429356 5.05152e-18)
(0.0151054 -0.0047981 4.24897e-18)
(0.0150133 -0.00530237 3.44909e-18)
(0.0149117 -0.00580631 -1.39919e-18)
(0.0148003 -0.00630984 -5.1491e-18)
(0.0146792 -0.00681288 -6.55326e-18)
(0.0145481 -0.0073153 -6.71225e-18)
(0.014407 -0.007817 -3.82738e-18)
(0.0142557 -0.00831783 -2.94396e-18)
(0.014094 -0.00881764 -1.11144e-18)
(0.0139218 -0.00931624 -6.42089e-18)
(0.0137389 -0.00981345 -7.23186e-18)
(0.0135452 -0.010309 -2.56572e-18)
(0.0133404 -0.0108028 -2.46187e-18)
(0.0131244 -0.0112944 -2.25641e-18)
(0.0128964 -0.0117843 -8.7193e-19)
(0.0133716 -0.0115564 2.51891e-18)
(0.0155648 -0.00386138 -3.00154e-19)
(0.01549 -0.00437582 3.92509e-18)
(0.0154055 -0.00489004 4.05806e-18)
(0.0153114 -0.00540401 3.44504e-18)
(0.0152074 -0.00591764 -1.34954e-18)
(0.0150935 -0.00643086 -4.85285e-18)
(0.0149696 -0.00694358 -5.9194e-18)
(0.0148356 -0.0074557 -5.75961e-18)
(0.0146912 -0.00796707 -3.64232e-18)
(0.0145364 -0.00847757 -3.0055e-18)
(0.014371 -0.00898703 -1.81142e-19)
(0.0141949 -0.00949528 -5.07687e-18)
(0.0140078 -0.0100021 -7.70454e-18)
(0.0138095 -0.0105073 -3.18592e-18)
(0.0136 -0.0110105 -2.37027e-18)
(0.013379 -0.0115117 -3.07195e-18)
(0.0131456 -0.012011 3.30463e-19)
(0.0136112 -0.0117965 3.81152e-18)
(0.0158737 -0.00393521 -9.79413e-19)
(0.0157972 -0.0044595 3.02792e-18)
(0.0157108 -0.00498359 3.84137e-18)
(0.0156146 -0.00550742 2.75575e-18)
(0.0155083 -0.00603091 -1.64274e-18)
(0.0153918 -0.006554 -3.94378e-18)
(0.0152651 -0.00707659 -5.44188e-18)
(0.015128 -0.00759856 -5.41621e-18)
(0.0149804 -0.0081198 -3.2342e-18)
(0.0148221 -0.00864014 -2.82224e-18)
(0.0146529 -0.00915944 8.66131e-19)
(0.0144728 -0.0096775 -3.50982e-18)
(0.0142814 -0.0101941 -8.17082e-18)
(0.0140786 -0.0107091 -3.92666e-18)
(0.0138643 -0.0112221 -1.95385e-18)
(0.0136381 -0.0117329 -3.56623e-18)
(0.0133994 -0.0122419 4.12922e-19)
(0.0138554 -0.0120408 5.78652e-18)
(0.016188 -0.00401035 -1.20282e-18)
(0.0161098 -0.00454467 2.34747e-18)
(0.0160215 -0.0050788 3.93752e-18)
(0.0159231 -0.00561266 1.99153e-18)
(0.0158144 -0.0061462 -2.5041e-18)
(0.0156954 -0.00667934 -3.57057e-18)
(0.0155659 -0.00721197 -5.06963e-18)
(0.0154257 -0.00774399 -4.93869e-18)
(0.0152748 -0.00827527 -3.05676e-18)
(0.0151129 -0.00880565 -2.52406e-18)
(0.0149399 -0.00933497 1.79722e-18)
(0.0147557 -0.00986304 -2.15973e-18)
(0.01456 -0.0103896 -8.94385e-18)
(0.0143526 -0.0109145 -4.55379e-18)
(0.0141334 -0.0114375 -1.19764e-18)
(0.013902 -0.0119582 -2.51174e-18)
(0.0136578 -0.012477 4.89383e-20)
(0.0141043 -0.0122895 6.30242e-18)
(0.0165078 -0.00408683 -9.88046e-19)
(0.0164279 -0.00463137 2.00136e-18)
(0.0163377 -0.00517572 3.90663e-18)
(0.0162372 -0.00571981 1.77176e-18)
(0.0161261 -0.00626358 -3.02278e-18)
(0.0160044 -0.00680695 -3.7361e-18)
(0.0158721 -0.00734982 -5.04441e-18)
(0.0157288 -0.00789207 -4.45397e-18)
(0.0155745 -0.00843358 -3.28833e-18)
(0.015409 -0.00897419 -2.23057e-18)
(0.0152322 -0.00951373 2.37834e-18)
(0.0150438 -0.010052 -1.65183e-18)
(0.0148437 -0.0105888 -9.5587e-18)
(0.0146317 -0.0111238 -5.08143e-18)
(0.0144075 -0.0116569 -5.56806e-19)
(0.0141709 -0.0121877 -1.14308e-18)
(0.0139211 -0.0127165 3.71411e-19)
(0.014358 -0.0125427 5.58896e-18)
(0.0168335 -0.00416471 -4.69472e-19)
(0.0167519 -0.00471966 1.94409e-18)
(0.0166597 -0.00527441 3.63346e-18)
(0.0165569 -0.00582892 2.05069e-18)
(0.0164435 -0.00638311 -2.89492e-18)
(0.0163191 -0.00693691 -4.65617e-18)
(0.0161838 -0.00749021 -4.71873e-18)
(0.0160374 -0.00804289 -3.19441e-18)
(0.0158797 -0.00859483 -3.16734e-18)
(0.0157106 -0.00914587 -2.49611e-18)
(0.0155299 -0.00969583 2.82051e-18)
(0.0153373 -0.0102445 -1.62205e-18)
(0.0151328 -0.0107917 -9.4523e-18)
(0.014916 -0.0113371 -5.36018e-18)
(0.0146867 -0.0118805 8.82768e-20)
(0.0144448 -0.0124215 -5.32097e-19)
(0.0141894 -0.0129606 7.99808e-19)
(0.0146167 -0.0128006 4.91963e-18)
(0.0171652 -0.00424404 2.15535e-19)
(0.0170818 -0.00480958 2.0277e-18)
(0.0169876 -0.00537495 3.2421e-18)
(0.0168826 -0.00594007 2.19338e-18)
(0.0167667 -0.00650488 -2.3078e-18)
(0.0166397 -0.00706931 -5.84768e-18)
(0.0165015 -0.00763323 -4.54685e-18)
(0.0163519 -0.00819655 -1.73835e-18)
(0.0161907 -0.00875913 -2.59297e-18)
(0.0160179 -0.00932079 -2.8711e-18)
(0.0158332 -0.00988138 3.11643e-18)
(0.0156364 -0.0104407 -1.67104e-18)
(0.0154273 -0.0109984 -8.50249e-18)
(0.0152057 -0.0115544 -5.23868e-18)
(0.0149713 -0.0121083 4.74027e-19)
(0.014724 -0.0126599 -1.66352e-19)
(0.0144629 -0.0132094 5.06941e-19)
(0.0148806 -0.0130633 4.57371e-18)
(0.0175031 -0.00432486 3.71573e-19)
(0.0174179 -0.00490121 1.79206e-18)
(0.0173217 -0.00547738 2.71363e-18)
(0.0172145 -0.00605333 2.20796e-18)
(0.0170961 -0.00662897 -8.95599e-19)
(0.0169663 -0.00720422 -6.74654e-18)
(0.0168251 -0.00777899 -5.15774e-18)
(0.0166722 -0.00835315 -5.06117e-19)
(0.0165076 -0.00892657 -1.50451e-18)
(0.016331 -0.00949908 -3.22492e-18)
(0.0161423 -0.0100705 2.57253e-18)
(0.0159412 -0.0106406 -1.73415e-18)
(0.0157275 -0.0112092 -7.41483e-18)
(0.015501 -0.011776 -4.54388e-18)
(0.0152615 -0.0123406 5.93764e-19)
(0.0150087 -0.0129029 4.85091e-19)
(0.0147417 -0.013463 -2.5088e-19)
(0.0151499 -0.013331 3.83692e-18)
(0.0179233 -0.00381976 9.77316e-19)
(0.0178474 -0.00440724 1.90635e-19)
(0.0177604 -0.0049946 1.62549e-18)
(0.0176622 -0.00558179 2.20041e-18)
(0.0175527 -0.00616876 1.63192e-18)
(0.0174317 -0.00675544 3.83344e-19)
(0.0172992 -0.00734174 -6.67663e-18)
(0.0171549 -0.00792757 -5.50018e-18)
(0.0169988 -0.00851279 -1.64477e-19)
(0.0168306 -0.00909727 -1.29277e-18)
(0.0166502 -0.00968084 -3.25019e-18)
(0.0164574 -0.0102633 1.916e-18)
(0.0162519 -0.0108445 -1.61465e-18)
(0.0160336 -0.0114241 -6.76208e-18)
(0.0158022 -0.0120019 -4.12155e-18)
(0.0155574 -0.0125775 1.00814e-18)
(0.015299 -0.0131507 1.92938e-18)
(0.0150261 -0.0137217 -9.19558e-19)
(0.0154246 -0.0136039 2.80557e-18)
(0.0182759 -0.00389252 1.36626e-18)
(0.0181984 -0.00449122 -1.06993e-19)
(0.0181095 -0.0050898 1.90901e-18)
(0.0180092 -0.00568824 1.85317e-18)
(0.0178974 -0.00628646 2.44386e-19)
(0.0177739 -0.00688439 9.29799e-19)
(0.0176386 -0.00748197 -6.14032e-18)
(0.0174912 -0.00807906 -5.22376e-18)
(0.0173318 -0.00867557 3.46724e-19)
(0.01716 -0.00927134 -1.63033e-18)
(0.0169757 -0.00986621 -3.37145e-18)
(0.0167788 -0.01046 1.35005e-18)
(0.0165688 -0.0110524 -1.58717e-18)
(0.0163458 -0.0116433 -6.15794e-18)
(0.0161093 -0.0122323 -3.57755e-18)
(0.0158592 -0.0128192 1.63354e-18)
(0.0155951 -0.0134035 3.17361e-18)
(0.0153163 -0.0139856 -5.43789e-19)
(0.0157051 -0.0138822 2.24831e-18)
(0.018703 -0.00335651 4.16992e-18)
(0.0186354 -0.00396672 1.49598e-18)
(0.0185562 -0.00457685 -1.55252e-19)
(0.0184655 -0.00518689 2.71657e-18)
(0.0183632 -0.00579679 1.66662e-18)
(0.018249 -0.00640649 -1.33635e-18)
(0.0181229 -0.00701591 8.74078e-19)
(0.0179847 -0.00762498 -5.91809e-18)
(0.0178342 -0.00823359 -4.90485e-18)
(0.0176714 -0.00884161 6.11543e-19)
(0.017496 -0.0094489 -1.9026e-18)
(0.0173077 -0.0100553 -3.23149e-18)
(0.0171065 -0.0106606 1.24332e-18)
(0.0168921 -0.0112645 -1.91087e-18)
(0.0166643 -0.0118669 -5.96397e-18)
(0.0164227 -0.0124674 -3.02726e-18)
(0.0161671 -0.0130657 2.54129e-18)
(0.0158973 -0.0136615 3.77173e-18)
(0.0156123 -0.014255 2.37012e-19)
(0.0159915 -0.014166 3.13707e-18)
(0.0190711 -0.00342054 4.70225e-18)
(0.019002 -0.0040424 1.77755e-18)
(0.0189212 -0.00466421 -2.08186e-19)
(0.0188287 -0.00528594 3.49383e-18)
(0.0187241 -0.00590753 1.60059e-18)
(0.0186076 -0.00652894 -2.68873e-18)
(0.0184788 -0.00715008 9.22478e-19)
(0.0183377 -0.00777089 -6.11336e-18)
(0.0181841 -0.00839124 -4.94627e-18)
(0.0180178 -0.00901102 6.39516e-19)
(0.0178387 -0.00963007 -2.03906e-18)
(0.0176465 -0.0102482 -2.90309e-18)
(0.017441 -0.0108653 1.45566e-18)
(0.017222 -0.011481 -2.16826e-18)
(0.0169893 -0.0120951 -6.1687e-18)
(0.0167425 -0.0127074 -2.62701e-18)
(0.0164814 -0.0133174 3.53103e-18)
(0.0162057 -0.0139248 4.65081e-18)
(0.0159145 -0.0145299 2.3894e-19)
(0.016284 -0.0144555 4.38752e-18)
(0.0194466 -0.00348586 4.31128e-18)
(0.0193761 -0.00411963 2.40425e-18)
(0.0192936 -0.00475335 1.00796e-20)
(0.0191991 -0.005387 3.892e-18)
(0.0190925 -0.00602053 1.36131e-18)
(0.0189735 -0.00665389 -3.81671e-18)
(0.018842 -0.007287 1.06948e-18)
(0.018698 -0.00791978 -6.19491e-18)
(0.0185412 -0.00855213 -5.05994e-18)
(0.0183714 -0.00918391 1.83894e-19)
(0.0181885 -0.00981498 -2.52228e-18)
(0.0179922 -0.0104452 -2.52309e-18)
(0.0177824 -0.0110742 2.00709e-18)
(0.0175587 -0.011702 -1.98954e-18)
(0.017321 -0.0123281 -6.26734e-18)
(0.0170689 -0.0129523 -2.57658e-18)
(0.0168022 -0.0135743 3.74216e-18)
(0.0165205 -0.0141936 5.50712e-18)
(0.016223 -0.0148105 5.78661e-20)
(0.0165828 -0.014751 4.82425e-18)
(0.0198297 -0.00355253 3.49131e-18)
(0.0197578 -0.00419845 2.88203e-18)
(0.0196737 -0.00484433 6.79211e-19)
(0.0195772 -0.00549015 4.45203e-18)
(0.0194684 -0.00613587 1.57365e-18)
(0.0193469 -0.00678143 -5.03237e-18)
(0.0192127 -0.00742676 9.52896e-19)
(0.0190657 -0.00807178 -6.00359e-18)
(0.0189056 -0.00871637 -5.21584e-18)
(0.0187323 -0.00936041 -6.44146e-19)
(0.0185455 -0.0100038 -3.32898e-18)
(0.0183451 -0.0106462 -2.26423e-18)
(0.0181309 -0.0112876 2.27795e-18)
(0.0179025 -0.0119276 -1.6575e-18)
(0.0176597 -0.012566 -5.66958e-18)
(0.0174023 -0.0132025 -2.27705e-18)
(0.0171298 -0.0138367 3.43167e-18)
(0.0168421 -0.0144682 5.83441e-18)
(0.0165382 -0.0150972 1.31738e-19)
(0.0168881 -0.0150527 4.0594e-18)
(0.0202209 -0.0036206 2.99614e-18)
(0.0201475 -0.00427892 3.11959e-18)
(0.0200617 -0.00493722 1.59121e-18)
(0.0199632 -0.00559547 4.74489e-18)
(0.0198521 -0.00625364 1.63356e-18)
(0.0197282 -0.00691166 -6.328e-18)
(0.0195912 -0.00756947 6.96993e-19)
(0.0194411 -0.00822698 -5.48078e-18)
(0.0192777 -0.00888409 -5.36954e-18)
(0.0191008 -0.00954065 -1.52749e-18)
(0.0189101 -0.0101965 -3.96143e-18)
(0.0187055 -0.0108515 -2.29922e-18)
(0.0184868 -0.0115054 2.72896e-18)
(0.0182535 -0.012158 -1.19375e-18)
(0.0180056 -0.012809 -5.19327e-18)
(0.0177427 -0.013458 -1.54032e-18)
(0.0174645 -0.0141047 3.74229e-18)
(0.0171706 -0.0147486 5.43833e-18)
(0.0168601 -0.01539 -1.40085e-20)
(0.0172001 -0.0153608 3.49665e-18)
(0.0206203 -0.00369011 2.92294e-18)
(0.0205455 -0.0043611 3.18095e-18)
(0.0204578 -0.00503208 2.56833e-18)
(0.0203574 -0.00570303 5.23258e-18)
(0.020244 -0.00637391 1.25431e-18)
(0.0201175 -0.00704467 -7.71454e-18)
(0.0199778 -0.00771523 -6.46762e-20)
(0.0198246 -0.00838551 -4.82511e-18)
(0.0196578 -0.0090554 -4.98736e-18)
(0.0194772 -0.00972476 -2.30318e-18)
(0.0192826 -0.0103935 -4.36192e-18)
(0.0190737 -0.0110613 -2.50824e-18)
(0.0188503 -0.011728 2.99845e-18)
(0.0186122 -0.0123934 -2.24192e-19)
(0.0183591 -0.0130572 -4.22812e-18)
(0.0180906 -0.013719 -6.92961e-19)
(0.0178064 -0.0143785 4.58781e-18)
(0.0175062 -0.0150352 5.38022e-18)
(0.0171891 -0.0156892 -6.44815e-19)
(0.0175191 -0.0156754 2.94811e-18)
(0.0210283 -0.00376112 3.23838e-18)
(0.0209519 -0.00444505 3.01899e-18)
(0.0208625 -0.00512899 3.19197e-18)
(0.0207601 -0.00581292 5.63519e-18)
(0.0206443 -0.00649679 6.13603e-19)
(0.0205153 -0.00718056 -8.62985e-18)
(0.0203726 -0.00786415 -5.89138e-19)
(0.0202163 -0.00854747 -4.20192e-18)
(0.0200461 -0.00923043 -4.74353e-18)
(0.0198617 -0.00991288 -3.53483e-18)
(0.0196631 -0.0105947 -4.815e-18)
(0.0194498 -0.0112756 -2.45339e-18)
(0.0192218 -0.0119555 2.77149e-18)
(0.0189787 -0.012634 5.1449e-19)
(0.0187202 -0.0133109 -2.42798e-18)
(0.0184461 -0.0139858 1.49184e-19)
(0.0181559 -0.0146584 5.05132e-18)
(0.0178493 -0.0153281 6.46348e-18)
(0.0175253 -0.0159951 -8.7701e-19)
(0.0178454 -0.0159969 2.28045e-18)
(0.0214452 -0.00383368 3.52006e-18)
(0.0213672 -0.00453084 2.88756e-18)
(0.021276 -0.00522802 4.04133e-18)
(0.0211715 -0.00592521 5.52358e-18)
(0.0210534 -0.00662236 -4.78649e-19)
(0.0209217 -0.00731942 -8.99968e-18)
(0.0207762 -0.00801633 -5.29324e-19)
(0.0206166 -0.008713 -3.78892e-18)
(0.0204429 -0.00940931 -4.99032e-18)
(0.0202547 -0.0101051 -4.52255e-18)
(0.020052 -0.0108003 -4.97214e-18)
(0.0198343 -0.0114947 -2.76412e-18)
(0.0196015 -0.012188 2.23509e-18)
(0.0193533 -0.0128799 4.64684e-19)
(0.0190894 -0.0135703 -5.23752e-19)
(0.0188095 -0.0142586 1.34719e-18)
(0.0185132 -0.0149445 4.93521e-18)
(0.0182 -0.0156276 6.6892e-18)
(0.0178691 -0.0163078 -1.19165e-18)
(0.0181791 -0.0163254 2.33703e-18)
(0.0218712 -0.00390785 3.95525e-18)
(0.0217917 -0.00461853 3.03319e-18)
(0.0216987 -0.00532925 5.07734e-18)
(0.021592 -0.00603999 4.68762e-18)
(0.0214715 -0.00675072 -1.9023e-18)
(0.0213371 -0.00746138 -8.82395e-18)
(0.0211886 -0.00817191 -5.67292e-19)
(0.0210258 -0.00888221 -3.4355e-18)
(0.0208485 -0.00959219 -5.22767e-18)
(0.0206565 -0.0103017 -5.33663e-18)
(0.0204495 -0.0110106 -4.76078e-18)
(0.0202273 -0.0117187 -3.28535e-18)
(0.0199897 -0.0124257 2.14156e-18)
(0.0197363 -0.0131314 5.47309e-19)
(0.0194669 -0.0138354 1.45801e-18)
(0.0191811 -0.0145375 2.80324e-18)
(0.0188785 -0.0152371 4.87944e-18)
(0.0185587 -0.0159338 6.72503e-18)
(0.0182208 -0.0166276 -1.72276e-18)
(0.0185206 -0.0166613 2.12205e-18)
(0.0223068 -0.00398369 3.87573e-18)
(0.0222256 -0.00470819 2.87529e-18)
(0.0221307 -0.00543275 6.10558e-18)
(0.0220219 -0.00615736 3.45531e-18)
(0.021899 -0.00688197 -3.65003e-18)
(0.0217619 -0.00760654 -8.60066e-18)
(0.0216104 -0.008331 -7.94841e-19)
(0.0214442 -0.00905526 -3.29147e-18)
(0.0212633 -0.00977921 -5.21838e-18)
(0.0210673 -0.0105027 -5.85683e-18)
(0.0208561 -0.0112256 -4.56912e-18)
(0.0206293 -0.0119477 -4.28699e-18)
(0.0203867 -0.0126688 2.07503e-18)
(0.020128 -0.0133886 9.94626e-19)
(0.019853 -0.0141067 3.17693e-18)
(0.0195611 -0.0148228 4.39681e-18)
(0.0192522 -0.0155365 5.10589e-18)
(0.0189257 -0.0162471 7.1013e-18)
(0.0185805 -0.0169548 -2.24229e-18)
(0.01887 -0.0170048 1.38387e-18)
(0.0227522 -0.00406125 3.54243e-18)
(0.0226694 -0.00479989 2.59313e-18)
(0.0225726 -0.00553861 7.26171e-18)
(0.0224616 -0.0062774 2.34024e-18)
(0.0223362 -0.00701622 -5.42639e-18)
(0.0221963 -0.00775501 -8.41505e-18)
(0.0220417 -0.00849372 -1.10008e-18)
(0.0218722 -0.00923226 -3.28841e-18)
(0.0216876 -0.00997052 -5.36993e-18)
(0.0214876 -0.0107084 -6.43204e-18)
(0.021272 -0.0114456 -4.16798e-18)
(0.0210405 -0.0121821 -5.01641e-18)
(0.0207929 -0.0129176 1.41828e-18)
(0.0205288 -0.0136517 1.13326e-18)
(0.020248 -0.0143842 4.73082e-18)
(0.01995 -0.0151147 5.7524e-18)
(0.0196346 -0.0158427 5.42525e-18)
(0.0193012 -0.0165677 7.96131e-18)
(0.0189487 -0.0172896 -2.30897e-18)
(0.0192277 -0.0173561 9.54569e-19)
(0.0232078 -0.0041406 3.06441e-18)
(0.0231234 -0.00489371 2.12182e-18)
(0.0230247 -0.00564692 8.18125e-18)
(0.0229114 -0.00640022 1.45747e-18)
(0.0227835 -0.00715357 -6.65369e-18)
(0.0226408 -0.00790693 -7.89992e-18)
(0.022483 -0.00866022 -1.59944e-18)
(0.02231 -0.00941337 -3.19235e-18)
(0.0221216 -0.0101663 -5.45959e-18)
(0.0219175 -0.0109188 -7.24552e-18)
(0.0216975 -0.0116707 -3.96206e-18)
(0.0214612 -0.0124219 -5.45153e-18)
(0.0212085 -0.0131721 6.1521e-19)
(0.0209389 -0.013921 9.8632e-19)
(0.0206522 -0.0146683 6.44499e-18)
(0.020348 -0.0154135 6.87486e-18)
(0.020026 -0.0161563 5.4373e-18)
(0.0196856 -0.0168959 8.93753e-18)
(0.0193256 -0.0176323 -1.67129e-18)
(0.019594 -0.0177156 1.34305e-18)
(0.0236741 -0.0042218 2.36216e-18)
(0.023588 -0.00498972 1.45812e-18)
(0.0234873 -0.00575776 8.5461e-18)
(0.0233717 -0.00652591 8.27695e-19)
(0.0232412 -0.00729414 -7.19506e-18)
(0.0230956 -0.0080624 -7.16559e-18)
(0.0229347 -0.00883063 -2.18431e-18)
(0.0227582 -0.00959874 -3.15372e-18)
(0.0225659 -0.0103666 -5.51358e-18)
(0.0223576 -0.0111342 -8.3085e-18)
(0.0221331 -0.0119011 -3.51597e-18)
(0.0218919 -0.0126674 -5.32495e-18)
(0.0216339 -0.0134327 -4.7738e-19)
(0.0213587 -0.0141967 2.80985e-19)
(0.0210661 -0.0149591 7.96602e-18)
(0.0207555 -0.0157194 7.67188e-18)
(0.0204267 -0.0164772 5.22733e-18)
(0.0200791 -0.0172319 9.12371e-18)
(0.0197115 -0.0179832 -1.23837e-18)
(0.0199692 -0.0180835 2.20662e-18)
(0.0241514 -0.00430493 1.63719e-18)
(0.0240635 -0.00508801 7.14856e-19)
(0.0239608 -0.00587123 8.45365e-18)
(0.0238429 -0.00665459 2.54585e-19)
(0.0237098 -0.00743805 -7.6604e-18)
(0.0235612 -0.00822158 -6.30254e-18)
(0.023397 -0.0090051 -2.5559e-18)
(0.0232169 -0.00978853 -3.12634e-18)
(0.0230207 -0.0105718 -5.58444e-18)
(0.0228082 -0.0113547 -9.74459e-18)
(0.022579 -0.0121371 -2.82528e-18)
(0.0223329 -0.0129188 -4.42949e-18)
(0.0220695 -0.0136995 -1.44324e-18)
(0.0217886 -0.014479 -2.39494e-19)
(0.0214898 -0.0152568 9.10156e-18)
(0.0211728 -0.0160327 7.91732e-18)
(0.020837 -0.016806 4.79754e-18)
(0.0204821 -0.0175761 8.99539e-18)
(0.0201068 -0.0183426 -7.95989e-19)
(0.0203536 -0.0184602 3.48698e-18)
(0.02464 -0.00439006 1.23742e-18)
(0.0245505 -0.00518866 2.69524e-19)
(0.0244456 -0.00598743 8.0081e-18)
(0.0243254 -0.00678636 -2.89948e-19)
(0.0241896 -0.00758543 -8.30256e-18)
(0.024038 -0.00838459 -5.51253e-18)
(0.0238705 -0.00918377 -2.70935e-18)
(0.0236867 -0.00998289 -3.2446e-18)
(0.0234865 -0.0107819 -5.83685e-18)
(0.0232696 -0.0115805 -1.12208e-17)