/*--------------------------------*- C++ -*----------------------------------*\
  =========                 |
  \\      /  F ield         | OpenFOAM: The Open Source CFD Toolbox
   \\    /   O peration     | Website:  https://openfoam.org
    \\  /    A nd           | Version:  7
     \\/     M anipulation  |
\*---------------------------------------------------------------------------*/
FoamFile
{
    version     2.0;
    format      ascii;
    class       volScalarField;
    location    "16000";
    object      nut;
}
// * * * * * * * * * * * * * * * * * * * * * * * * * * * * * * * * * * * * * //

dimensions      [0 2 -1 0 0 0 0];

internalField   nonuniform List<scalar> 
4838
(
3.62613e-05
3.63734e-05
3.64792e-05
3.658e-05
3.66758e-05
3.67669e-05
3.68532e-05
3.69349e-05
3.70121e-05
3.70849e-05
3.7153e-05
3.72167e-05
3.72759e-05
3.73306e-05
3.73807e-05
3.74264e-05
3.74676e-05
3.75042e-05
3.75362e-05
3.75638e-05
3.75866e-05
3.7605e-05
3.76188e-05
3.76282e-05
3.76328e-05
3.7633e-05
3.76284e-05
3.76194e-05
3.76056e-05
3.75873e-05
3.75645e-05
3.75371e-05
3.75049e-05
3.74684e-05
3.74272e-05
3.73815e-05
3.73312e-05
3.72764e-05
3.72171e-05
3.71534e-05
3.70849e-05
3.70121e-05
3.69345e-05
3.68526e-05
3.67661e-05
3.66749e-05
3.65791e-05
3.64784e-05
3.63726e-05
3.62608e-05
3.60697e-05
3.61783e-05
3.62837e-05
3.63856e-05
3.64831e-05
3.65761e-05
3.66643e-05
3.67481e-05
3.68273e-05
3.69019e-05
3.69719e-05
3.70374e-05
3.70984e-05
3.71545e-05
3.72061e-05
3.7253e-05
3.72954e-05
3.7333e-05
3.7366e-05
3.73944e-05
3.74183e-05
3.74373e-05
3.74514e-05
3.74611e-05
3.74658e-05
3.7466e-05
3.74612e-05
3.7452e-05
3.74378e-05
3.74188e-05
3.73952e-05
3.73671e-05
3.7334e-05
3.72962e-05
3.72538e-05
3.72068e-05
3.71551e-05
3.70986e-05
3.70377e-05
3.69723e-05
3.69021e-05
3.68272e-05
3.67477e-05
3.66638e-05
3.65753e-05
3.64822e-05
3.63847e-05
3.62829e-05
3.61774e-05
3.6069e-05
3.58701e-05
3.59796e-05
3.60855e-05
3.61881e-05
3.62868e-05
3.63813e-05
3.64713e-05
3.65567e-05
3.66377e-05
3.6714e-05
3.67856e-05
3.68528e-05
3.69153e-05
3.69728e-05
3.70258e-05
3.70739e-05
3.71174e-05
3.71561e-05
3.719e-05
3.72193e-05
3.72436e-05
3.72633e-05
3.72781e-05
3.72878e-05
3.72927e-05
3.72928e-05
3.72881e-05
3.72784e-05
3.72638e-05
3.72443e-05
3.72201e-05
3.71911e-05
3.71572e-05
3.71183e-05
3.70747e-05
3.70264e-05
3.69733e-05
3.69155e-05
3.68532e-05
3.6786e-05
3.6714e-05
3.66374e-05
3.65563e-05
3.64707e-05
3.63805e-05
3.6286e-05
3.61873e-05
3.60848e-05
3.5979e-05
3.58694e-05
3.56644e-05
3.57759e-05
3.58831e-05
3.59868e-05
3.60867e-05
3.61825e-05
3.6274e-05
3.63609e-05
3.64435e-05
3.65213e-05
3.65946e-05
3.66633e-05
3.67271e-05
3.67861e-05
3.68404e-05
3.68896e-05
3.69341e-05
3.69738e-05
3.70086e-05
3.70387e-05
3.70636e-05
3.70837e-05
3.7099e-05
3.7109e-05
3.71141e-05
3.7114e-05
3.7109e-05
3.70992e-05
3.70843e-05
3.70644e-05
3.70396e-05
3.70097e-05
3.69748e-05
3.69351e-05
3.68904e-05
3.68409e-05
3.67866e-05
3.67274e-05
3.66635e-05
3.65947e-05
3.65213e-05
3.64432e-05
3.63606e-05
3.62734e-05
3.61817e-05
3.60859e-05
3.5986e-05
3.58823e-05
3.57752e-05
3.56637e-05
3.54536e-05
3.55672e-05
3.56762e-05
3.57813e-05
3.58825e-05
3.59797e-05
3.60726e-05
3.61609e-05
3.62448e-05
3.63242e-05
3.63989e-05
3.64689e-05
3.6534e-05
3.65943e-05
3.66498e-05
3.67002e-05
3.67459e-05
3.67864e-05
3.6822e-05
3.68527e-05
3.68785e-05
3.6899e-05
3.69144e-05
3.69248e-05
3.693e-05
3.693e-05
3.69248e-05
3.69146e-05
3.68994e-05
3.68792e-05
3.68537e-05
3.68231e-05
3.67875e-05
3.67468e-05
3.67012e-05
3.66508e-05
3.65953e-05
3.65347e-05
3.64694e-05
3.63992e-05
3.63243e-05
3.62449e-05
3.61607e-05
3.60721e-05
3.5979e-05
3.58818e-05
3.57805e-05
3.56753e-05
3.55664e-05
3.54529e-05
3.52386e-05
3.53541e-05
3.54647e-05
3.55714e-05
3.56742e-05
3.57728e-05
3.5867e-05
3.59567e-05
3.6042e-05
3.61227e-05
3.61989e-05
3.627e-05
3.63364e-05
3.63978e-05
3.64544e-05
3.6506e-05
3.65525e-05
3.65941e-05
3.66306e-05
3.66618e-05
3.6688e-05
3.6709e-05
3.67248e-05
3.67353e-05
3.67407e-05
3.67407e-05
3.67355e-05
3.67252e-05
3.67097e-05
3.66889e-05
3.6663e-05
3.66317e-05
3.65952e-05
3.65537e-05
3.65073e-05
3.64557e-05
3.63991e-05
3.63374e-05
3.62707e-05
3.61991e-05
3.6123e-05
3.60421e-05
3.59567e-05
3.58666e-05
3.57723e-05
3.56737e-05
3.55708e-05
3.5464e-05
3.53533e-05
3.52379e-05
3.50197e-05
3.5137e-05
3.52493e-05
3.53575e-05
3.54617e-05
3.55618e-05
3.56573e-05
3.57484e-05
3.58352e-05
3.59171e-05
3.59945e-05
3.6067e-05
3.61345e-05
3.61971e-05
3.62548e-05
3.63073e-05
3.63547e-05
3.63971e-05
3.64342e-05
3.64662e-05
3.6493e-05
3.65144e-05
3.65305e-05
3.65412e-05
3.65467e-05
3.65466e-05
3.65413e-05
3.65309e-05
3.65149e-05
3.64938e-05
3.64673e-05
3.64355e-05
3.63982e-05
3.6356e-05
3.63086e-05
3.62562e-05
3.61984e-05
3.61356e-05
3.60676e-05
3.59949e-05
3.59174e-05
3.58353e-05
3.57486e-05
3.56573e-05
3.55615e-05
3.54613e-05
3.53572e-05
3.52488e-05
3.51363e-05
3.50189e-05
3.47973e-05
3.49163e-05
3.50302e-05
3.514e-05
3.52456e-05
3.53469e-05
3.54439e-05
3.55363e-05
3.56243e-05
3.57076e-05
3.57864e-05
3.58601e-05
3.59287e-05
3.59924e-05
3.6051e-05
3.61045e-05
3.61526e-05
3.61957e-05
3.62335e-05
3.62661e-05
3.62931e-05
3.63149e-05
3.63314e-05
3.63425e-05
3.6348e-05
3.63479e-05
3.63426e-05
3.6332e-05
3.63158e-05
3.62943e-05
3.62673e-05
3.62348e-05
3.61969e-05
3.61539e-05
3.61056e-05
3.60522e-05
3.59933e-05
3.59295e-05
3.58605e-05
3.57868e-05
3.5708e-05
3.56246e-05
3.55366e-05
3.54438e-05
3.53467e-05
3.52452e-05
3.51396e-05
3.50297e-05
3.49156e-05
3.47965e-05
3.45716e-05
3.46921e-05
3.48076e-05
3.49188e-05
3.50258e-05
3.51286e-05
3.52269e-05
3.53206e-05
3.54097e-05
3.54942e-05
3.55741e-05
3.5649e-05
3.57188e-05
3.57834e-05
3.58429e-05
3.58973e-05
3.59465e-05
3.59901e-05
3.60285e-05
3.60615e-05
3.60891e-05
3.61113e-05
3.6128e-05
3.61393e-05
3.61448e-05
3.61448e-05
3.61395e-05
3.61286e-05
3.61121e-05
3.60904e-05
3.60628e-05
3.60297e-05
3.59912e-05
3.59475e-05
3.58985e-05
3.58441e-05
3.57842e-05
3.57195e-05
3.56494e-05
3.55747e-05
3.54947e-05
3.54101e-05
3.53209e-05
3.52268e-05
3.51283e-05
3.50255e-05
3.49184e-05
3.48071e-05
3.46914e-05
3.45707e-05
3.43428e-05
3.44647e-05
3.45816e-05
3.46943e-05
3.48027e-05
3.49067e-05
3.50061e-05
3.51011e-05
3.51916e-05
3.52772e-05
3.5358e-05
3.5434e-05
3.5505e-05
3.55707e-05
3.5631e-05
3.56862e-05
3.57361e-05
3.57806e-05
3.58197e-05
3.58532e-05
3.58811e-05
3.59036e-05
3.59206e-05
3.59321e-05
3.59377e-05
3.59377e-05
3.59323e-05
3.59212e-05
3.59044e-05
3.58822e-05
3.58541e-05
3.58205e-05
3.57815e-05
3.57371e-05
3.56873e-05
3.56319e-05
3.55713e-05
3.55055e-05
3.54346e-05
3.53588e-05
3.52778e-05
3.51921e-05
3.51016e-05
3.50064e-05
3.49066e-05
3.48024e-05
3.46939e-05
3.4581e-05
3.44639e-05
3.4342e-05
3.41111e-05
3.42341e-05
3.43525e-05
3.44665e-05
3.45763e-05
3.46815e-05
3.47822e-05
3.48783e-05
3.49699e-05
3.50568e-05
3.51386e-05
3.52155e-05
3.52874e-05
3.53541e-05
3.54153e-05
3.54715e-05
3.55221e-05
3.5567e-05
3.56066e-05
3.56406e-05
3.5669e-05
3.5692e-05
3.57092e-05
3.57208e-05
3.57265e-05
3.57265e-05
3.5721e-05
3.57097e-05
3.56927e-05
3.567e-05
3.56415e-05
3.56077e-05
3.55682e-05
3.55229e-05
3.54723e-05
3.54164e-05
3.53548e-05
3.52881e-05
3.52164e-05
3.51393e-05
3.50572e-05
3.49704e-05
3.48787e-05
3.47823e-05
3.46813e-05
3.45759e-05
3.44661e-05
3.43519e-05
3.42334e-05
3.41102e-05
3.38767e-05
3.40009e-05
3.41205e-05
3.42357e-05
3.43469e-05
3.44533e-05
3.45552e-05
3.46524e-05
3.4745e-05
3.48329e-05
3.49158e-05
3.49937e-05
3.50665e-05
3.51342e-05
3.51961e-05
3.52529e-05
3.53043e-05
3.53498e-05
3.53899e-05
3.54246e-05
3.54533e-05
3.54764e-05
3.5494e-05
3.55055e-05
3.55114e-05
3.55115e-05
3.55059e-05
3.54945e-05
3.5477e-05
3.5454e-05
3.54252e-05
3.5391e-05
3.53509e-05
3.53052e-05
3.52538e-05
3.51971e-05
3.51349e-05
3.50674e-05
3.49946e-05
3.49166e-05
3.48335e-05
3.47456e-05
3.46528e-05
3.45552e-05
3.4453e-05
3.43464e-05
3.42354e-05
3.41199e-05
3.40001e-05
3.38757e-05
3.36396e-05
3.37652e-05
3.38859e-05
3.40022e-05
3.41144e-05
3.42221e-05
3.43251e-05
3.44233e-05
3.4517e-05
3.4606e-05
3.469e-05
3.47688e-05
3.48425e-05
3.49108e-05
3.49736e-05
3.50311e-05
3.5083e-05
3.51292e-05
3.51699e-05
3.52047e-05
3.52341e-05
3.52574e-05
3.52751e-05
3.52867e-05
3.52927e-05
3.52927e-05
3.5287e-05
3.52754e-05
3.52579e-05
3.52346e-05
3.52055e-05
3.51706e-05
3.513e-05
3.50838e-05
3.50319e-05
3.49743e-05
3.49114e-05
3.4843e-05
3.47694e-05
3.46904e-05
3.46064e-05
3.45176e-05
3.4424e-05
3.43253e-05
3.42219e-05
3.4114e-05
3.40019e-05
3.38851e-05
3.37642e-05
3.36388e-05
3.34002e-05
3.35268e-05
3.36488e-05
3.37661e-05
3.38793e-05
3.39881e-05
3.40921e-05
3.41914e-05
3.42861e-05
3.43759e-05
3.44608e-05
3.45405e-05
3.46149e-05
3.46841e-05
3.47478e-05
3.48061e-05
3.48584e-05
3.49052e-05
3.49463e-05
3.49816e-05
3.50113e-05
3.5035e-05
3.50526e-05
3.50646e-05
3.50706e-05
3.50707e-05
3.50649e-05
3.50531e-05
3.50354e-05
3.50119e-05
3.49823e-05
3.49471e-05
3.49059e-05
3.48592e-05
3.48066e-05
3.47484e-05
3.46848e-05
3.46157e-05
3.45411e-05
3.44613e-05
3.43766e-05
3.42869e-05
3.41921e-05
3.40924e-05
3.39879e-05
3.3879e-05
3.37656e-05
3.36478e-05
3.35258e-05
3.33993e-05
3.31584e-05
3.3286e-05
3.34091e-05
3.35276e-05
3.36418e-05
3.37516e-05
3.38566e-05
3.39569e-05
3.40524e-05
3.41431e-05
3.42289e-05
3.43094e-05
3.43846e-05
3.44545e-05
3.4519e-05
3.45778e-05
3.46308e-05
3.46781e-05
3.47197e-05
3.47552e-05
3.4785e-05
3.48091e-05
3.4827e-05
3.48391e-05
3.48453e-05
3.48453e-05
3.48395e-05
3.48277e-05
3.48097e-05
3.47859e-05
3.47559e-05
3.47202e-05
3.46787e-05
3.46312e-05
3.45783e-05
3.45194e-05
3.44553e-05
3.43853e-05
3.431e-05
3.42294e-05
3.41438e-05
3.40532e-05
3.39574e-05
3.38566e-05
3.37513e-05
3.36414e-05
3.3527e-05
3.34081e-05
3.3285e-05
3.31575e-05
3.29143e-05
3.30429e-05
3.3167e-05
3.32866e-05
3.34018e-05
3.35124e-05
3.36184e-05
3.37198e-05
3.38161e-05
3.39075e-05
3.3994e-05
3.40753e-05
3.41512e-05
3.42218e-05
3.4287e-05
3.43464e-05
3.44001e-05
3.44477e-05
3.44898e-05
3.45257e-05
3.45559e-05
3.45801e-05
3.45983e-05
3.46106e-05
3.46168e-05
3.46169e-05
3.46111e-05
3.4599e-05
3.45809e-05
3.45566e-05
3.45266e-05
3.44904e-05
3.44484e-05
3.44004e-05
3.4347e-05
3.42875e-05
3.42226e-05
3.41522e-05
3.40761e-05
3.39948e-05
3.39082e-05
3.38168e-05
3.37201e-05
3.36184e-05
3.35122e-05
3.34013e-05
3.32858e-05
3.3166e-05
3.3042e-05
3.29136e-05
3.26682e-05
3.27977e-05
3.29226e-05
3.30432e-05
3.31593e-05
3.32709e-05
3.33778e-05
3.34799e-05
3.35771e-05
3.36694e-05
3.37566e-05
3.38386e-05
3.39152e-05
3.39864e-05
3.40523e-05
3.41122e-05
3.41664e-05
3.42145e-05
3.4257e-05
3.42934e-05
3.43238e-05
3.43484e-05
3.43667e-05
3.43791e-05
3.43854e-05
3.43854e-05
3.43796e-05
3.43673e-05
3.4349e-05
3.43246e-05
3.4294e-05
3.42576e-05
3.4215e-05
3.41668e-05
3.41127e-05
3.40528e-05
3.39872e-05
3.39163e-05
3.38394e-05
3.37573e-05
3.367e-05
3.35777e-05
3.34801e-05
3.33777e-05
3.32706e-05
3.31587e-05
3.30423e-05
3.29216e-05
3.27968e-05
3.26676e-05
3.24203e-05
3.25505e-05
3.26762e-05
3.27977e-05
3.29147e-05
3.30271e-05
3.31349e-05
3.32377e-05
3.33357e-05
3.34288e-05
3.35169e-05
3.35995e-05
3.36766e-05
3.37484e-05
3.38149e-05
3.38752e-05
3.39299e-05
3.39785e-05
3.40215e-05
3.40584e-05
3.4089e-05
3.41137e-05
3.41324e-05
3.41447e-05
3.4151e-05
3.41511e-05
3.41452e-05
3.41329e-05
3.41143e-05
3.40897e-05
3.40588e-05
3.40219e-05
3.39791e-05
3.39304e-05
3.38758e-05
3.38154e-05
3.37492e-05
3.36776e-05
3.36002e-05
3.35174e-05
3.34293e-05
3.33362e-05
3.3238e-05
3.31347e-05
3.30268e-05
3.2914e-05
3.27967e-05
3.26751e-05
3.25497e-05
3.24195e-05
3.21702e-05
3.23014e-05
3.24279e-05
3.25501e-05
3.26679e-05
3.27813e-05
3.28896e-05
3.29933e-05
3.30921e-05
3.31857e-05
3.32746e-05
3.33579e-05
3.34356e-05
3.3508e-05
3.35748e-05
3.36357e-05
3.3691e-05
3.374e-05
3.37833e-05
3.38204e-05
3.38515e-05
3.38762e-05
3.3895e-05
3.39078e-05
3.39141e-05
3.39141e-05
3.39079e-05
3.38955e-05
3.38769e-05
3.38521e-05
3.3821e-05
3.37836e-05
3.37406e-05
3.36915e-05
3.36364e-05
3.35755e-05
3.35087e-05
3.34364e-05
3.33584e-05
3.32751e-05
3.31863e-05
3.30925e-05
3.29934e-05
3.28895e-05
3.27807e-05
3.26672e-05
3.25491e-05
3.24267e-05
3.23005e-05
3.21695e-05
3.21777e-05
3.23008e-05
3.24192e-05
3.25332e-05
3.26423e-05
3.27468e-05
3.28461e-05
3.29405e-05
3.30298e-05
3.31138e-05
3.31922e-05
3.3265e-05
3.33323e-05
3.33936e-05
3.34494e-05
3.34988e-05
3.35426e-05
3.35799e-05
3.36112e-05
3.36362e-05
3.36551e-05
3.3668e-05
3.36743e-05
3.36745e-05
3.36681e-05
3.36557e-05
3.36369e-05
3.36118e-05
3.35804e-05
3.35428e-05
3.34994e-05
3.34502e-05
3.33947e-05
3.33333e-05
3.32659e-05
3.3193e-05
3.31144e-05
3.30303e-05
3.29411e-05
3.28465e-05
3.27466e-05
3.2642e-05
3.25325e-05
3.24182e-05
3.22994e-05
3.21763e-05
3.20494e-05
3.19178e-05
3.20494e-05
3.21687e-05
3.22833e-05
3.23929e-05
3.2498e-05
3.2598e-05
3.2693e-05
3.27829e-05
3.28674e-05
3.29466e-05
3.30199e-05
3.30875e-05
3.31493e-05
3.32055e-05
3.32553e-05
3.32994e-05
3.33371e-05
3.33685e-05
3.33938e-05
3.34128e-05
3.34255e-05
3.3432e-05
3.34323e-05
3.34258e-05
3.34131e-05
3.33942e-05
3.33688e-05
3.33374e-05
3.32997e-05
3.3256e-05
3.32063e-05
3.31503e-05
3.30885e-05
3.30206e-05
3.29472e-05
3.28682e-05
3.27834e-05
3.26935e-05
3.25982e-05
3.24977e-05
3.23924e-05
3.22822e-05
3.21672e-05
3.20478e-05
3.19241e-05
3.17964e-05
3.16642e-05
3.20313e-05
3.21417e-05
3.22473e-05
3.23481e-05
3.24435e-05
3.2534e-05
3.2619e-05
3.26986e-05
3.27726e-05
3.28406e-05
3.29028e-05
3.29591e-05
3.30094e-05
3.30538e-05
3.30917e-05
3.31235e-05
3.31488e-05
3.3168e-05
3.31807e-05
3.31874e-05
3.31876e-05
3.31812e-05
3.31682e-05
3.3149e-05
3.31235e-05
3.30919e-05
3.30541e-05
3.30102e-05
3.29599e-05
3.29037e-05
3.28415e-05
3.27732e-05
3.26994e-05
3.26198e-05
3.25344e-05
3.2444e-05
3.23478e-05
3.22467e-05
3.21408e-05
3.203e-05
3.19144e-05
3.17945e-05
3.16703e-05
3.15419e-05
3.1409e-05
3.18886e-05
3.19948e-05
3.20961e-05
3.2192e-05
3.22829e-05
3.23685e-05
3.24486e-05
3.2523e-05
3.25916e-05
3.26542e-05
3.27109e-05
3.27613e-05
3.28058e-05
3.28442e-05
3.2876e-05
3.29016e-05
3.29208e-05
3.29336e-05
3.29403e-05
3.29407e-05
3.2934e-05
3.29211e-05
3.29016e-05
3.28761e-05
3.28442e-05
3.28063e-05
3.2762e-05
3.27115e-05
3.2655e-05
3.25923e-05
3.25236e-05
3.24492e-05
3.23692e-05
3.22834e-05
3.21923e-05
3.20956e-05
3.19939e-05
3.18874e-05
3.17762e-05
3.166e-05
3.15395e-05
3.14146e-05
3.12855e-05
3.11521e-05
3.17402e-05
3.18422e-05
3.19387e-05
3.20301e-05
3.21161e-05
3.21967e-05
3.22716e-05
3.23406e-05
3.24036e-05
3.24603e-05
3.25111e-05
3.25558e-05
3.25945e-05
3.26264e-05
3.26519e-05
3.26713e-05
3.26843e-05
3.26912e-05
3.26914e-05
3.26847e-05
3.26718e-05
3.26521e-05
3.26264e-05
3.25943e-05
3.25563e-05
3.25119e-05
3.2461e-05
3.24042e-05
3.23411e-05
3.2272e-05
3.21972e-05
3.21166e-05
3.20305e-05
3.19388e-05
3.18416e-05
3.17393e-05
3.16323e-05
3.15205e-05
3.14038e-05
3.12828e-05
3.11574e-05
3.10278e-05
3.08938e-05
3.16836e-05
3.17755e-05
3.18618e-05
3.1943e-05
3.20183e-05
3.20876e-05
3.21508e-05
3.22077e-05
3.22589e-05
3.23039e-05
3.23426e-05
3.23748e-05
3.24004e-05
3.24198e-05
3.2433e-05
3.24397e-05
3.244e-05
3.24332e-05
3.24202e-05
3.24005e-05
3.23746e-05
3.23424e-05
3.23043e-05
3.22596e-05
3.22086e-05
3.21514e-05
3.2088e-05
3.20185e-05
3.19433e-05
3.18623e-05
3.17757e-05
3.16835e-05
3.15858e-05
3.1483e-05
3.13754e-05
3.12631e-05
3.11461e-05
3.10246e-05
3.08988e-05
3.07686e-05
3.06342e-05
3.1519e-05
3.16058e-05
3.16872e-05
3.17631e-05
3.18326e-05
3.1896e-05
3.19533e-05
3.20047e-05
3.205e-05
3.20889e-05
3.2121e-05
3.21469e-05
3.21665e-05
3.21797e-05
3.21865e-05
3.21865e-05
3.21798e-05
3.21666e-05
3.21469e-05
3.21209e-05
3.20885e-05
3.20501e-05
3.20052e-05
3.1954e-05
3.18966e-05
3.18328e-05
3.17632e-05
3.16875e-05
3.16062e-05
3.15191e-05
3.14264e-05
3.13285e-05
3.12252e-05
3.11171e-05
3.10043e-05
3.08869e-05
3.0765e-05
3.06386e-05
3.0508e-05
3.03731e-05
3.15758e-05
3.16395e-05
3.16971e-05
3.17489e-05
3.17941e-05
3.18332e-05
3.18655e-05
3.18915e-05
3.19113e-05
3.19245e-05
3.19314e-05
3.19312e-05
3.19243e-05
3.1911e-05
3.18913e-05
3.18652e-05
3.18328e-05
3.17944e-05
3.17492e-05
3.16975e-05
3.16398e-05
3.15759e-05
3.1506e-05
3.143e-05
3.13483e-05
3.12608e-05
3.11677e-05
3.10695e-05
3.09657e-05
3.08572e-05
3.07441e-05
3.06262e-05
3.05039e-05
3.03771e-05
3.0246e-05
3.01107e-05
3.15364e-05
3.15756e-05
3.16081e-05
3.16342e-05
3.16542e-05
3.16675e-05
3.16743e-05
3.1674e-05
3.1667e-05
3.16538e-05
3.1634e-05
3.16079e-05
3.15753e-05
3.15367e-05
3.14914e-05
3.14395e-05
3.13815e-05
3.13174e-05
3.12471e-05
3.11708e-05
3.10887e-05
3.10009e-05
3.09075e-05
3.08089e-05
3.07048e-05
3.05958e-05
3.04822e-05
3.03641e-05
3.02413e-05
3.01141e-05
2.99827e-05
2.98471e-05
3.1349e-05
3.13753e-05
3.13953e-05
3.14088e-05
3.14154e-05
3.14151e-05
3.14081e-05
3.13948e-05
3.13751e-05
3.13486e-05
3.1316e-05
3.12771e-05
3.12318e-05
3.11798e-05
3.11216e-05
3.10572e-05
3.09867e-05
3.09101e-05
3.08276e-05
3.07395e-05
3.06458e-05
3.05469e-05
3.04424e-05
3.03331e-05
3.0219e-05
3.01004e-05
2.99775e-05
2.985e-05
2.97182e-05
2.95825e-05
3.11547e-05
3.11544e-05
3.11475e-05
3.11342e-05
3.11143e-05
3.10877e-05
3.10551e-05
3.10161e-05
3.09706e-05
3.09184e-05
3.086e-05
3.07953e-05
3.07246e-05
3.06478e-05
3.0565e-05
3.04766e-05
3.03827e-05
3.02833e-05
3.01788e-05
3.0069e-05
2.99546e-05
2.98357e-05
2.97124e-05
2.95846e-05
2.94527e-05
2.93166e-05
3.08253e-05
3.07927e-05
3.07536e-05
3.07078e-05
3.06556e-05
3.05969e-05
3.05319e-05
3.04609e-05
3.03838e-05
3.0301e-05
3.02125e-05
3.01182e-05
3.00186e-05
2.99137e-05
2.98037e-05
2.9689e-05
2.95698e-05
2.94463e-05
2.93181e-05
2.9186e-05
2.90497e-05
3.04435e-05
3.03915e-05
3.03325e-05
3.02672e-05
3.0196e-05
3.01187e-05
3.00357e-05
2.99469e-05
2.98524e-05
2.97526e-05
2.96473e-05
2.95372e-05
2.94222e-05
2.93028e-05
2.91789e-05
2.90506e-05
2.89183e-05
2.87818e-05
3.00665e-05
3.00012e-05
2.993e-05
2.98523e-05
2.97692e-05
2.96802e-05
2.95854e-05
2.94853e-05
2.93798e-05
2.92695e-05
2.91544e-05
2.90348e-05
2.89107e-05
2.87822e-05
2.86496e-05
2.85129e-05
2.97994e-05
2.97341e-05
2.96626e-05
2.95847e-05
2.95015e-05
2.94122e-05
2.93173e-05
2.9217e-05
2.91113e-05
2.90009e-05
2.88856e-05
2.87658e-05
2.86415e-05
2.85129e-05
2.83801e-05
2.82432e-05
2.9531e-05
2.94657e-05
2.9394e-05
2.93159e-05
2.92325e-05
2.91432e-05
2.90481e-05
2.89476e-05
2.88419e-05
2.87312e-05
2.86158e-05
2.84957e-05
2.83714e-05
2.82426e-05
2.81098e-05
2.79727e-05
2.90461e-05
2.89624e-05
2.8873e-05
2.87779e-05
2.86773e-05
2.85714e-05
2.84605e-05
2.83451e-05
2.82248e-05
2.81003e-05
2.79715e-05
2.78385e-05
2.77016e-05
2.83001e-05
2.81891e-05
2.80737e-05
2.79531e-05
2.78286e-05
2.76997e-05
2.75667e-05
2.74297e-05
2.76806e-05
2.75561e-05
2.74271e-05
2.72943e-05
2.71572e-05
3.76242e-05
3.76329e-05
3.76371e-05
3.76368e-05
3.76319e-05
3.76227e-05
3.76087e-05
3.75902e-05
3.75674e-05
3.75399e-05
3.75077e-05
3.74711e-05
3.74299e-05
3.7384e-05
3.73335e-05
3.72787e-05
3.72191e-05
3.71553e-05
3.70868e-05
3.70138e-05
3.69362e-05
3.68541e-05
3.67674e-05
3.66761e-05
3.65801e-05
3.64793e-05
3.63735e-05
3.62616e-05
3.74569e-05
3.74661e-05
3.74703e-05
3.74701e-05
3.74651e-05
3.74555e-05
3.74412e-05
3.7422e-05
3.73983e-05
3.73699e-05
3.73369e-05
3.72989e-05
3.72564e-05
3.72093e-05
3.71574e-05
3.71008e-05
3.70398e-05
3.69742e-05
3.69039e-05
3.68289e-05
3.67493e-05
3.66652e-05
3.65766e-05
3.64834e-05
3.63858e-05
3.62839e-05
3.61784e-05
3.60699e-05
3.72837e-05
3.7293e-05
3.72976e-05
3.72972e-05
3.72922e-05
3.72822e-05
3.72674e-05
3.72478e-05
3.72233e-05
3.71941e-05
3.71601e-05
3.71211e-05
3.70774e-05
3.70289e-05
3.69757e-05
3.69177e-05
3.68553e-05
3.67879e-05
3.67158e-05
3.66391e-05
3.65579e-05
3.64722e-05
3.63818e-05
3.62872e-05
3.61884e-05
3.60858e-05
3.59799e-05
3.58704e-05
3.71048e-05
3.71145e-05
3.71191e-05
3.71187e-05
3.71133e-05
3.71031e-05
3.70881e-05
3.70679e-05
3.70429e-05
3.70128e-05
3.69779e-05
3.69379e-05
3.68931e-05
3.68434e-05
3.6789e-05
3.67297e-05
3.66656e-05
3.65967e-05
3.65231e-05
3.64449e-05
3.63621e-05
3.62748e-05
3.61831e-05
3.60871e-05
3.59871e-05
3.58834e-05
3.57762e-05
3.56646e-05
3.69203e-05
3.69303e-05
3.69352e-05
3.69348e-05
3.69292e-05
3.69187e-05
3.69033e-05
3.68828e-05
3.6857e-05
3.68262e-05
3.67905e-05
3.67496e-05
3.6704e-05
3.66533e-05
3.65976e-05
3.6537e-05
3.64715e-05
3.64011e-05
3.63261e-05
3.62465e-05
3.61623e-05
3.60736e-05
3.59803e-05
3.5883e-05
3.57816e-05
3.56764e-05
3.55674e-05
3.54538e-05
3.67308e-05
3.67409e-05
3.67459e-05
3.67455e-05
3.67399e-05
3.67294e-05
3.67136e-05
3.66925e-05
3.66664e-05
3.66349e-05
3.65982e-05
3.65565e-05
3.65099e-05
3.64582e-05
3.64015e-05
3.63396e-05
3.62727e-05
3.62011e-05
3.61248e-05
3.60437e-05
3.59582e-05
3.58681e-05
3.57737e-05
3.56749e-05
3.5572e-05
3.54651e-05
3.53544e-05
3.52389e-05
3.65367e-05
3.65469e-05
3.6552e-05
3.65515e-05
3.65459e-05
3.65352e-05
3.65189e-05
3.64974e-05
3.64708e-05
3.64388e-05
3.64012e-05
3.63588e-05
3.63112e-05
3.62586e-05
3.62007e-05
3.61378e-05
3.60696e-05
3.59968e-05
3.59192e-05
3.58369e-05
3.57501e-05
3.56587e-05
3.55628e-05
3.54626e-05
3.53584e-05
3.52499e-05
3.51373e-05
3.50199e-05
3.63376e-05
3.63483e-05
3.63534e-05
3.63528e-05
3.63472e-05
3.63363e-05
3.63197e-05
3.6298e-05
3.62708e-05
3.62381e-05
3.61999e-05
3.61567e-05
3.61082e-05
3.60546e-05
3.59956e-05
3.59317e-05
3.58625e-05
3.57887e-05
3.57097e-05
3.56262e-05
3.55382e-05
3.54453e-05
3.5348e-05
3.52465e-05
3.51408e-05
3.50309e-05
3.49167e-05
3.47975e-05
3.61342e-05
3.6145e-05
3.61502e-05
3.61498e-05
3.61441e-05
3.61329e-05
3.61161e-05
3.60941e-05
3.60663e-05
3.60328e-05
3.59941e-05
3.59502e-05
3.59011e-05
3.58465e-05
3.57864e-05
3.57216e-05
3.56514e-05
3.55765e-05
3.54964e-05
3.54118e-05
3.53224e-05
3.52283e-05
3.51297e-05
3.50268e-05
3.49196e-05
3.48082e-05
3.46925e-05
3.45719e-05
3.59268e-05
3.59379e-05
3.5943e-05
3.59426e-05
3.59369e-05
3.59255e-05
3.59084e-05
3.58859e-05
3.58575e-05
3.58237e-05
3.57844e-05
3.57398e-05
3.56898e-05
3.56343e-05
3.55735e-05
3.55076e-05
3.54366e-05
3.53606e-05
3.52795e-05
3.51937e-05
3.51031e-05
3.50078e-05
3.49079e-05
3.48037e-05
3.46951e-05
3.45822e-05
3.4465e-05
3.43431e-05
3.57155e-05
3.57266e-05
3.57319e-05
3.57314e-05
3.57255e-05
3.57139e-05
3.56967e-05
3.56737e-05
3.56449e-05
3.56108e-05
3.5571e-05
3.55255e-05
3.54748e-05
3.54187e-05
3.5357e-05
3.52902e-05
3.52183e-05
3.51411e-05
3.50589e-05
3.4972e-05
3.48802e-05
3.47837e-05
3.46826e-05
3.45771e-05
3.44673e-05
3.43531e-05
3.42345e-05
3.41113e-05
3.55002e-05
3.55112e-05
3.55167e-05
3.55164e-05
3.55105e-05
3.54987e-05
3.54809e-05
3.54575e-05
3.54285e-05
3.5394e-05
3.53538e-05
3.53078e-05
3.52563e-05
3.51994e-05
3.51371e-05
3.50694e-05
3.49965e-05
3.49184e-05
3.48351e-05
3.47472e-05
3.46543e-05
3.45567e-05
3.44544e-05
3.43477e-05
3.42366e-05
3.4121e-05
3.40012e-05
3.38767e-05
3.52812e-05
3.52923e-05
3.52979e-05
3.52977e-05
3.52916e-05
3.52796e-05
3.52618e-05
3.52381e-05
3.52087e-05
3.51736e-05
3.51328e-05
3.50864e-05
3.50343e-05
3.49765e-05
3.49135e-05
3.4845e-05
3.47712e-05
3.46921e-05
3.46081e-05
3.45192e-05
3.44255e-05
3.43267e-05
3.42232e-05
3.41153e-05
3.40031e-05
3.38862e-05
3.37652e-05
3.36397e-05
3.50586e-05
3.50701e-05
3.50757e-05
3.50754e-05
3.50693e-05
3.50573e-05
3.50393e-05
3.50154e-05
3.49854e-05
3.495e-05
3.49088e-05
3.48617e-05
3.48089e-05
3.47506e-05
3.46869e-05
3.46176e-05
3.45429e-05
3.44631e-05
3.43782e-05
3.42884e-05
3.41936e-05
3.40937e-05
3.39892e-05
3.38802e-05
3.37668e-05
3.36489e-05
3.35268e-05
3.34002e-05
3.47589e-05
3.4723e-05
3.46814e-05
3.46337e-05
3.45804e-05
3.45215e-05
3.44572e-05
3.43872e-05
3.43118e-05
3.42312e-05
3.41453e-05
3.40545e-05
3.39588e-05
3.3858e-05
3.37526e-05
3.36425e-05
3.35281e-05
3.34092e-05
3.32859e-05
3.31583e-05
3.39097e-05
3.38181e-05
3.37215e-05
3.36198e-05
3.35134e-05
3.34023e-05
3.32869e-05
3.3167e-05
3.30428e-05
3.29143e-05
3.32718e-05
3.316e-05
3.30434e-05
3.29225e-05
3.27976e-05
3.26683e-05
3.2676e-05
3.25504e-05
3.24202e-05
2.6376e-05
2.60971e-05
2.58178e-05
3.10597e-05
3.07974e-05
3.05336e-05
3.02686e-05
3.00023e-05
2.97348e-05
2.94659e-05
2.91959e-05
2.8925e-05
2.86532e-05
2.83802e-05
2.81064e-05
2.78316e-05
2.75561e-05
2.72799e-05
2.70028e-05
2.67252e-05
2.64471e-05
2.61683e-05
2.5889e-05
3.19003e-05
3.16432e-05
3.13845e-05
3.11239e-05
3.08619e-05
3.05985e-05
3.03335e-05
3.00673e-05
2.97997e-05
2.9531e-05
2.92611e-05
2.89903e-05
2.87185e-05
2.84456e-05
2.81718e-05
2.78971e-05
2.76215e-05
2.73451e-05
2.7068e-05
2.67902e-05
2.65119e-05
2.6233e-05
2.59538e-05
3.19581e-05
3.17011e-05
3.14423e-05
3.11821e-05
3.09201e-05
3.06568e-05
3.03921e-05
3.01258e-05
2.98584e-05
2.95898e-05
2.932e-05
2.90491e-05
2.87772e-05
2.85044e-05
2.82307e-05
2.7956e-05
2.76805e-05
2.74042e-05
2.7127e-05
2.68493e-05
2.65709e-05
2.62919e-05
2.60124e-05
3.20092e-05
3.17522e-05
3.14937e-05
3.12336e-05
3.09719e-05
3.07088e-05
3.04443e-05
3.01782e-05
2.99108e-05
2.96423e-05
2.93725e-05
2.91017e-05
2.88299e-05
2.85571e-05
2.82832e-05
2.80085e-05
2.7733e-05
2.74566e-05
2.71796e-05
2.6902e-05
2.66236e-05
2.63447e-05
2.60651e-05
3.20537e-05
3.17972e-05
3.1539e-05
3.1279e-05
3.10174e-05
3.07544e-05
3.04899e-05
3.0224e-05
2.99568e-05
2.96884e-05
2.94187e-05
2.91478e-05
2.8876e-05
2.86031e-05
2.83294e-05
2.80547e-05
2.77793e-05
2.7503e-05
2.7226e-05
2.69482e-05
2.66698e-05
2.63908e-05
2.61112e-05
3.66688e-05
3.6473e-05
3.62729e-05
3.60684e-05
3.58595e-05
3.5647e-05
3.54308e-05
3.52111e-05
3.49878e-05
3.47613e-05
3.45318e-05
3.42993e-05
3.40637e-05
3.38257e-05
3.3585e-05
3.33417e-05
3.30961e-05
3.28482e-05
3.25983e-05
3.23462e-05
3.20918e-05
3.18357e-05
3.15778e-05
3.13179e-05
3.10566e-05
3.07938e-05
3.05294e-05
3.02637e-05
2.99965e-05
2.97282e-05
2.94586e-05
2.91879e-05
2.89161e-05
2.86431e-05
2.83693e-05
2.80946e-05
2.78191e-05
2.75429e-05
2.72658e-05
2.6988e-05
2.67094e-05
2.64304e-05
2.61507e-05
3.66948e-05
3.64993e-05
3.62997e-05
3.60955e-05
3.58872e-05
3.56751e-05
3.54592e-05
3.52396e-05
3.50168e-05
3.47908e-05
3.45616e-05
3.43293e-05
3.40939e-05
3.3856e-05
3.36155e-05
3.33725e-05
3.31272e-05
3.28796e-05
3.26298e-05
3.23779e-05
3.21239e-05
3.18679e-05
3.16102e-05
3.13506e-05
3.10896e-05
3.08268e-05
3.05624e-05
3.02968e-05
3.00297e-05
2.97615e-05
2.9492e-05
2.92213e-05
2.89496e-05
2.86766e-05
2.84028e-05
2.81281e-05
2.78526e-05
2.75761e-05
2.7299e-05
2.70213e-05
2.67427e-05
2.64636e-05
2.6184e-05
3.67153e-05
3.65202e-05
3.63209e-05
3.6117e-05
3.5909e-05
3.56972e-05
3.54818e-05
3.52626e-05
3.50399e-05
3.48141e-05
3.45851e-05
3.43532e-05
3.41181e-05
3.38805e-05
3.36401e-05
3.33973e-05
3.31523e-05
3.29049e-05
3.26554e-05
3.24037e-05
3.21498e-05
3.18939e-05
3.16363e-05
3.13769e-05
3.11158e-05
3.08531e-05
3.05889e-05
3.03234e-05
3.00565e-05
2.97885e-05
2.9519e-05
2.92483e-05
2.89764e-05
2.87035e-05
2.84297e-05
2.8155e-05
2.78794e-05
2.7603e-05
2.73259e-05
2.70481e-05
2.67696e-05
2.64903e-05
2.62106e-05
3.76242e-05
3.74571e-05
3.72838e-05
3.71048e-05
3.69204e-05
3.67306e-05
3.65357e-05
3.63366e-05
3.61331e-05
3.59253e-05
3.57137e-05
3.54985e-05
3.52796e-05
3.50574e-05
3.48317e-05
3.46029e-05
3.4371e-05
3.41361e-05
3.38986e-05
3.36584e-05
3.34159e-05
3.3171e-05
3.29238e-05
3.26745e-05
3.24229e-05
3.21691e-05
3.19133e-05
3.16557e-05
3.13964e-05
3.11355e-05
3.08729e-05
3.06088e-05
3.03433e-05
3.00765e-05
2.98084e-05
2.95389e-05
2.92683e-05
2.89966e-05
2.87239e-05
2.84501e-05
2.81755e-05
2.78999e-05
2.76235e-05
2.73463e-05
2.70685e-05
2.67899e-05
2.65106e-05
2.62309e-05
3.76327e-05
3.74658e-05
3.72929e-05
3.7114e-05
3.69298e-05
3.67405e-05
3.65461e-05
3.63469e-05
3.61435e-05
3.5936e-05
3.57246e-05
3.55097e-05
3.5291e-05
3.50687e-05
3.48433e-05
3.46146e-05
3.43827e-05
3.41481e-05
3.39106e-05
3.36706e-05
3.34283e-05
3.31836e-05
3.29365e-05
3.26871e-05
3.24355e-05
3.21819e-05
3.19263e-05
3.16689e-05
3.14095e-05
3.11487e-05
3.08863e-05
3.06222e-05
3.03568e-05
3.00899e-05
2.98218e-05
2.95525e-05
2.92819e-05
2.90103e-05
2.87375e-05
2.84638e-05
2.8189e-05
2.79134e-05
2.7637e-05
2.73597e-05
2.70817e-05
2.68031e-05
2.6524e-05
2.62441e-05
3.76368e-05
3.747e-05
3.72971e-05
3.71185e-05
3.69344e-05
3.67452e-05
3.65508e-05
3.63518e-05
3.61485e-05
3.59413e-05
3.57298e-05
3.55149e-05
3.52962e-05
3.5074e-05
3.48487e-05
3.46201e-05
3.43883e-05
3.41538e-05
3.39164e-05
3.36766e-05
3.34343e-05
3.31895e-05
3.29424e-05
3.26932e-05
3.24416e-05
3.21882e-05
3.19327e-05
3.16753e-05
3.14163e-05
3.11554e-05
3.08931e-05
3.06291e-05
3.03635e-05
3.00967e-05
2.98285e-05
2.95591e-05
2.92887e-05
2.90171e-05
2.87443e-05
2.84704e-05
2.81956e-05
2.792e-05
2.76436e-05
2.73664e-05
2.70885e-05
2.68099e-05
2.65307e-05
2.62509e-05
3.76364e-05
3.74696e-05
3.72968e-05
3.71182e-05
3.69341e-05
3.67447e-05
3.65504e-05
3.63516e-05
3.61481e-05
3.59407e-05
3.57294e-05
3.55145e-05
3.52957e-05
3.50735e-05
3.48481e-05
3.46196e-05
3.43879e-05
3.41532e-05
3.39159e-05
3.3676e-05
3.34337e-05
3.31891e-05
3.29419e-05
3.26927e-05
3.24412e-05
3.21877e-05
3.19324e-05
3.16752e-05
3.14161e-05
3.11554e-05
3.0893e-05
3.06289e-05
3.03634e-05
3.00966e-05
2.98285e-05
2.95593e-05
2.92887e-05
2.90171e-05
2.87443e-05
2.84704e-05
2.81956e-05
2.792e-05
2.76437e-05
2.73664e-05
2.70884e-05
2.68098e-05
2.65306e-05
2.62509e-05
3.76315e-05
3.74645e-05
3.72913e-05
3.71127e-05
3.69284e-05
3.6739e-05
3.65447e-05
3.63457e-05
3.61422e-05
3.59346e-05
3.57232e-05
3.55081e-05
3.52895e-05
3.50673e-05
3.48416e-05
3.46129e-05
3.43811e-05
3.41465e-05
3.39093e-05
3.36694e-05
3.34271e-05
3.31822e-05
3.2935e-05
3.26858e-05
3.24344e-05
3.21809e-05
3.19255e-05
3.16684e-05
3.14093e-05
3.11486e-05
3.08861e-05
3.0622e-05
3.03566e-05
3.00897e-05
2.98215e-05
2.95522e-05
2.92818e-05
2.90102e-05
2.87375e-05
2.84636e-05
2.8189e-05
2.79134e-05
2.7637e-05
2.73598e-05
2.70818e-05
2.68032e-05
2.65239e-05
2.6244e-05
3.76219e-05
3.74545e-05
3.72811e-05
3.71022e-05
3.69178e-05
3.6728e-05
3.65334e-05
3.63342e-05
3.61307e-05
3.5923e-05
3.57115e-05
3.54962e-05
3.52775e-05
3.5055e-05
3.48294e-05
3.46005e-05
3.43687e-05
3.41339e-05
3.38966e-05
3.36566e-05
3.3414e-05
3.31692e-05
3.29219e-05
3.26725e-05
3.2421e-05
3.21676e-05
3.19122e-05
3.16548e-05
3.13958e-05
3.11349e-05
3.08725e-05
3.06084e-05
3.0343e-05
3.00762e-05
2.98081e-05
2.95387e-05
2.92681e-05
2.89964e-05
2.87238e-05
2.84501e-05
2.81753e-05
2.78998e-05
2.76234e-05
2.73462e-05
2.70681e-05
2.67895e-05
2.65103e-05
2.62304e-05
3.76079e-05
3.744e-05
3.72662e-05
3.70868e-05
3.6902e-05
3.67118e-05
3.65171e-05