/*--------------------------------*- C++ -*----------------------------------*\
  =========                 |
  \\      /  F ield         | OpenFOAM: The Open Source CFD Toolbox
   \\    /   O peration     | Website:  https://openfoam.org
    \\  /    A nd           | Version:  7
     \\/     M anipulation  |
\*---------------------------------------------------------------------------*/
FoamFile
{
    version     2.0;
    format      ascii;
    class       volVectorField;
    location    "124000";
    object      vorticity;
}
// * * * * * * * * * * * * * * * * * * * * * * * * * * * * * * * * * * * * * //

dimensions      [0 0 -1 0 0 0 0];

internalField   nonuniform List<vector> 
4825
(
(0.0241002 0.0221323 2.33622e-17)
(0.0239587 0.0218466 1.9081e-17)
(0.0245956 0.0226146 2.34863e-17)
(0.0244645 0.0223062 1.9602e-17)
(0.0249229 0.0213706 2.19439e-17)
(0.0253576 0.0204298 9.20333e-18)
(0.025769 0.0194856 1.1426e-17)
(0.025109 0.0231142 2.29922e-17)
(0.0249842 0.0227789 2.04084e-17)
(0.0254519 0.0218227 2.28812e-17)
(0.025896 0.0208613 1.06174e-17)
(0.0263162 0.0198966 1.065e-17)
(0.02564 0.0236314 2.18559e-17)
(0.025519 0.0232662 2.17406e-17)
(0.0259959 0.0222875 2.35677e-17)
(0.0264495 0.0213049 1.16433e-17)
(0.0268787 0.0203191 1.03563e-17)
(0.026188 0.0241656 2.10717e-17)
(0.0260725 0.0237714 2.33012e-17)
(0.0265575 0.0227674 2.37714e-17)
(0.0270195 0.0217618 1.31429e-17)
(0.0274573 0.0207536 1.05647e-17)
(0.0267529 0.0247165 2.16203e-17)
(0.0266479 0.0242969 2.46308e-17)
(0.0271407 0.0232662 2.37462e-17)
(0.0276098 0.022235 1.49211e-17)
(0.0280548 0.0212024 1.04557e-17)
(0.0273353 0.0252841 2.2911e-17)
(0.0272444 0.0248416 2.53199e-17)
(0.0277467 0.0237847 2.36391e-17)
(0.0282237 0.0227275 1.65539e-17)
(0.0286757 0.021669 9.82564e-18)
(0.0279355 0.0258686 2.3891e-17)
(0.02786 0.0254034 2.55658e-17)
(0.0283737 0.0243213 2.3526e-17)
(0.0288605 0.0232384 1.83404e-17)
(0.029321 0.0221541 8.93337e-18)
(0.0285539 0.0264703 2.36333e-17)
(0.0284941 0.0259818 2.5679e-17)
(0.0290204 0.0248747 2.36393e-17)
(0.0295183 0.0237662 1.99097e-17)
(0.0299887 0.0226561 8.39644e-18)
(0.0291911 0.0270897 2.22481e-17)
(0.0291468 0.0265769 2.5601e-17)
(0.0296864 0.0254445 2.42981e-17)
(0.0301962 0.0243102 2.17816e-17)
(0.0306775 0.023174 7.9183e-18)
(0.0298476 0.0277277 2.0281e-17)
(0.0298188 0.0271893 2.53366e-17)
(0.030372 0.026031 2.5753e-17)
(0.0308944 0.0248703 2.37566e-17)
(0.0313872 0.0237076 6.92957e-18)
(0.0305244 0.0283851 1.80645e-17)
(0.0305109 0.0278198 2.47217e-17)
(0.031078 0.0266348 2.75487e-17)
(0.0316133 0.0254471 2.60044e-17)
(0.0321182 0.0242572 5.78627e-18)
(0.0312223 0.0290628 1.61794e-17)
(0.0312241 0.0284695 2.4497e-17)
(0.0318054 0.0272569 2.92938e-17)
(0.032354 0.0260412 2.84419e-17)
(0.0328713 0.0248233 4.7139e-18)
(0.0319425 0.0297618 1.47037e-17)
(0.0319597 0.0291395 2.48585e-17)
(0.0325554 0.0278982 3.04863e-17)
(0.0331175 0.0266536 3.0275e-17)
(0.032686 0.0304833 1.36488e-17)
(0.0327189 0.0298308 2.47288e-17)
(0.0333292 0.0285597 3.12629e-17)
(0.0339051 0.0272853 3.16031e-17)
(0.0334541 0.0312286 1.3002e-17)
(0.033503 0.0305448 2.42926e-17)
(0.0341282 0.0292428 3.16879e-17)
(0.0347181 0.0279373 3.21001e-17)
(0.0342482 0.0319988 1.20243e-17)
(0.0343133 0.0312826 2.37507e-17)
(0.0349537 0.0299485 3.11787e-17)
(0.0350697 0.0327954 1.08077e-17)
(0.0351514 0.0320457 2.36555e-17)
(0.0358074 0.0306782 3.08972e-17)
(0.03592 0.0336198 9.74624e-18)
(0.0360186 0.0328353 2.41547e-17)
(0.0368007 0.0344736 8.52784e-18)
(0.0369168 0.0336531 2.57099e-17)
(0.0377135 0.0353582 7.40395e-18)
(0.0378475 0.0345005 2.78138e-17)
(0.0386602 0.0362755 6.48423e-18)
(0.0388126 0.0353791 2.84142e-17)
(0.0396427 0.0372273 4.22091e-18)
(0.0398139 0.0362908 2.83085e-17)
(0.0406629 0.0382155 5.81451e-19)
(-0.0162036 0.0180423 9.55782e-18)
(-0.016186 0.0177335 3.33421e-18)
(-0.0155106 0.0180612 4.1546e-18)
(-0.0148323 0.0183714 -2.99804e-18)
(-0.0141513 0.0186649 -3.54513e-19)
(-0.0134679 0.0189421 2.09253e-18)
(-0.0127825 0.0192033 -5.56253e-18)
(-0.0120955 0.0194489 -6.14932e-18)
(-0.0114073 0.0196792 -7.31961e-18)
(-0.0107179 0.0198945 -9.52696e-18)
(-0.0100278 0.020095 -8.06313e-18)
(-0.00933702 0.020281 -6.81261e-18)
(-0.00864583 0.0204527 1.78539e-18)
(-0.00795432 0.0206103 8.23528e-19)
(-0.00726262 0.0207541 -5.62717e-18)
(-0.0065708 0.0208842 -1.40814e-17)
(-0.00587894 0.0210008 -1.54596e-17)
(-0.00518709 0.0211041 -1.49132e-17)
(-0.00449528 0.0211941 -9.94212e-18)
(-0.00380353 0.0212711 -7.9914e-18)
(-0.0165376 0.0183819 8.80053e-18)
(-0.0165042 0.0180832 4.18977e-18)
(-0.0158153 0.018418 4.84689e-18)
(-0.0151235 0.0187349 -3.94579e-18)
(-0.0144289 0.0190347 7.60093e-19)
(-0.0137319 0.0193178 2.10678e-18)
(-0.0130329 0.0195847 -5.74622e-18)
(-0.0123323 0.0198355 -7.5451e-18)
(-0.0116304 0.0200707 -7.65268e-18)
(-0.0109275 0.0202906 -8.79694e-18)
(-0.0102237 0.0204954 -9.56875e-18)
(-0.00951936 0.0206853 -7.8393e-18)
(-0.00881458 0.0208607 1.54717e-18)
(-0.0081095 0.0210216 -9.48424e-19)
(-0.00740423 0.0211685 -7.08655e-18)
(-0.00669887 0.0213013 -1.50987e-17)
(-0.00599348 0.0214204 -1.51429e-17)
(-0.00528811 0.0215258 -1.46909e-17)
(-0.0045828 0.0216177 -1.08484e-17)
(-0.00387757 0.0216963 -8.69067e-18)
(-0.016879 0.0187293 8.00905e-18)
(-0.0168294 0.0184407 5.58796e-18)
(-0.0161268 0.0187828 6.11229e-18)
(-0.0154212 0.0191065 -4.0633e-18)
(-0.0147127 0.0194128 2.20659e-18)
(-0.0140018 0.019702 2.37058e-18)
(-0.0132889 0.0199745 -5.70322e-18)
(-0.0125744 0.0202307 -9.31604e-18)
(-0.0118585 0.0204709 -7.79469e-18)
(-0.0111416 0.0206954 -7.0898e-18)
(-0.010424 0.0209045 -9.92854e-18)
(-0.0097057 0.0210985 -7.96968e-18)
(-0.00898702 0.0212775 1.23057e-18)
(-0.00826806 0.0214419 -2.35727e-18)
(-0.00754894 0.0215918 -7.75634e-18)
(-0.00682973 0.0217274 -1.45468e-17)
(-0.00611052 0.021849 -1.38356e-17)
(-0.00539134 0.0219566 -1.38361e-17)
(-0.00467223 0.0220505 -1.09049e-17)
(-0.00395321 0.0221307 -8.03697e-18)
(-0.0172281 0.0190846 7.75014e-18)
(-0.0171621 0.0188064 7.38864e-18)
(-0.0164454 0.0191559 7.38264e-18)
(-0.0157256 0.0194866 -3.66408e-18)
(-0.0150029 0.0197994 3.27854e-18)
(-0.0142778 0.0200947 3.13673e-18)
(-0.0135506 0.020373 -5.6361e-18)
(-0.0128218 0.0206347 -1.13226e-17)
(-0.0120917 0.02088 -7.48517e-18)
(-0.0113606 0.0211093 -4.99063e-18)
(-0.0106287 0.0213228 -1.01633e-17)
(-0.00989618 0.0215208 -7.9309e-18)
(-0.00916329 0.0217036 9.55834e-19)
(-0.00843014 0.0218714 -3.55955e-18)
(-0.00769684 0.0220245 -7.77232e-18)
(-0.00696349 0.022163 -1.32694e-17)
(-0.00623013 0.0222871 -1.22699e-17)
(-0.00549683 0.0223969 -1.25973e-17)
(-0.00476362 0.0224927 -1.06152e-17)
(-0.00403051 0.0225746 -6.80851e-18)
(-0.0175852 0.0194484 7.62744e-18)
(-0.0175025 0.0191806 9.087e-18)
(-0.0167713 0.0195376 8.86439e-18)
(-0.0160371 0.0198754 -3.50223e-18)
(-0.0152998 0.0201948 3.85872e-18)
(-0.0145601 0.0204965 4.12394e-18)
(-0.0138183 0.0207807 -5.94026e-18)
(-0.0130749 0.0210479 -1.35003e-17)
(-0.0123302 0.0212984 -7.24842e-18)
(-0.0115845 0.0215325 -3.58114e-18)
(-0.010838 0.0217505 -1.06118e-17)
(-0.010091 0.0219527 -7.93905e-18)
(-0.00934353 0.0221393 7.57222e-19)
(-0.00859587 0.0223106 -4.24965e-18)
(-0.00784807 0.0224669 -7.60606e-18)
(-0.00710024 0.0226082 -1.2079e-17)
(-0.00635243 0.0227349 -1.1161e-17)
(-0.00560469 0.022847 -1.18406e-17)
(-0.00485706 0.0229448 -1.07225e-17)
(-0.00410955 0.0230284 -5.77325e-18)
(-0.0179504 0.0198208 7.38838e-18)
(-0.0178508 0.0195635 1.05546e-17)
(-0.0171049 0.0199282 1.03751e-17)
(-0.0163558 0.0202732 -4.40725e-18)
(-0.0156036 0.0205995 4.3287e-18)
(-0.0148489 0.0209075 4.71259e-18)
(-0.0140922 0.0211978 -6.93315e-18)
(-0.0133339 0.0214706 -1.49988e-17)
(-0.0125742 0.0217264 -6.86385e-18)
(-0.0118136 0.0219654 -2.9042e-18)
(-0.0110522 0.022188 -1.12272e-17)
(-0.0102902 0.0223944 -7.71942e-18)
(-0.0095279 0.022585 6.4107e-19)
(-0.00876538 0.0227598 -4.65794e-18)
(-0.00800275 0.0229193 -7.28506e-18)
(-0.00724011 0.0230636 -1.11306e-17)
(-0.00647751 0.0231929 -1.04234e-17)
(-0.00571501 0.0233074 -1.16851e-17)
(-0.00495263 0.0234072 -1.10596e-17)
(-0.00419038 0.0234925 -4.70758e-18)
(-0.0183243 0.0202022 6.75056e-18)
(-0.0182074 0.0199556 1.11518e-17)
(-0.0174463 0.0203281 1.22016e-17)
(-0.016682 0.0206804 -5.08973e-18)
(-0.0159146 0.0210136 5.08318e-18)
(-0.0151446 0.0213282 4.38707e-18)
(-0.0143726 0.0216246 -8.1229e-18)
(-0.0135989 0.0219032 -1.52818e-17)
(-0.0128239 0.0221644 -6.23477e-18)
(-0.012048 0.0224084 -2.82413e-18)
(-0.0112713 0.0226357 -1.23746e-17)
(-0.0104941 0.0228464 -7.05671e-18)
(-0.00971655 0.0230409 6.19598e-19)
(-0.00893882 0.0232194 -5.06343e-18)
(-0.00816102 0.0233822 -6.53888e-18)
(-0.00738321 0.0235295 -1.01672e-17)
(-0.00660548 0.0236615 -1.00549e-17)
(-0.00582787 0.0237783 -1.19623e-17)
(-0.00505039 0.0238802 -1.12401e-17)
(-0.00427307 0.0239672 -3.76258e-18)
(-0.018707 0.0205928 5.73895e-18)
(-0.0185726 0.0203571 1.16924e-17)
(-0.017796 0.0207376 1.41794e-17)
(-0.0170161 0.0210974 -5.26569e-18)
(-0.016233 0.0214377 5.22993e-18)
(-0.0154473 0.0217589 3.14117e-18)
(-0.0146596 0.0220616 -9.23671e-18)
(-0.0138702 0.0223461 -1.47208e-17)
(-0.0130795 0.0226128 -5.59091e-18)
(-0.0122879 0.0228619 -3.05334e-18)
(-0.0114956 0.0230939 -1.39742e-17)
(-0.0107028 0.0233091 -6.38785e-18)
(-0.00990965 0.0235076 5.90893e-19)
(-0.00911635 0.0236898 -4.82752e-18)
(-0.008323 0.023856 -5.58112e-18)
(-0.00752968 0.0240063 -9.40611e-18)
(-0.00673645 0.024141 -9.83933e-18)
(-0.00594337 0.0242602 -1.27377e-17)
(-0.00515045 0.0243642 -1.1681e-17)
(-0.0043577 0.024453 -2.91537e-18)
(-0.00356511 0.0245269 -9.11439e-18)
(-0.00277268 0.0245858 -8.44204e-18)
(-0.00198038 0.0246299 -5.02356e-18)
(-0.00118817 0.0246593 -1.05532e-17)
(-0.000396018 0.024674 -1.79937e-18)
(0.00039611 0.024674 1.09731e-17)
(0.00118826 0.0246593 2.28755e-18)
(0.00198046 0.02463 5.36246e-18)
(0.00277276 0.0245858 3.50144e-18)
(0.00356517 0.0245269 2.49132e-18)
(0.00435775 0.0244531 -1.6071e-18)
(0.00515049 0.0243642 -3.2436e-18)
(0.00594341 0.0242603 6.85249e-18)
(0.0067365 0.0241411 1.38144e-19)
(0.00752972 0.0240064 -3.84016e-18)
(-0.0190989 0.0209932 4.58168e-18)
(-0.0189467 0.0207685 1.23227e-17)
(-0.0181543 0.0211571 1.52677e-17)
(-0.0173583 0.0215246 -5.52383e-18)
(-0.0165591 0.021872 4.31265e-18)
(-0.0157573 0.0222001 1.73236e-18)
(-0.0149535 0.0225092 -9.75423e-18)
(-0.0141481 0.0227997 -1.4054e-17)
(-0.0133413 0.0230719 -5.12777e-18)
(-0.0125337 0.0233263 -3.26259e-18)
(-0.0117253 0.0235632 -1.53975e-17)
(-0.0109165 0.0237828 -5.85153e-18)
(-0.0101074 0.0239854 5.60074e-19)
(-0.00929812 0.0241714 -3.65997e-18)
(-0.00848885 0.024341 -5.00111e-18)
(-0.00767964 0.0244944 -9.20153e-18)
(-0.00687055 0.0246319 -9.77604e-18)
(-0.00606162 0.0247536 -1.31312e-17)
(-0.00525288 0.0248597 -1.22207e-17)
(-0.00444434 0.0249503 -2.4056e-18)
(-0.00363597 0.0250257 -1.03178e-17)
(-0.00282778 0.0250858 -1.05645e-17)
(-0.00201972 0.0251308 -5.48514e-18)
(-0.00121177 0.0251608 -9.97489e-18)
(-0.000403885 0.0251758 -2.33423e-18)
(0.000403978 0.0251758 9.26242e-18)
(0.00121186 0.0251608 1.93392e-18)
(0.00201981 0.0251309 5.54085e-18)
(0.00282785 0.0250859 3.14664e-18)
(0.00363603 0.0250257 2.75758e-18)
(0.00444438 0.0249504 -1.54173e-18)
(0.00525293 0.0248597 -3.52492e-18)
(0.00606166 0.0247536 6.63455e-18)
(0.00687059 0.024632 -6.96922e-20)
(0.00767968 0.0244945 -3.9178e-18)
(0.00848888 0.0243411 -7.68875e-19)
(0.00929814 0.0241716 1.02361e-18)
(-0.0195004 0.0214036 3.72881e-18)
(-0.01933 0.0211901 1.31362e-17)
(-0.0185214 0.021587 1.59721e-17)
(-0.017709 0.0219622 -5.72454e-18)
(-0.0168933 0.0223171 3.24087e-18)
(-0.016075 0.0226521 1.30225e-18)
(-0.0152547 0.0229677 -9.20986e-18)
(-0.0144327 0.0232643 -1.36157e-17)
(-0.0136095 0.0235423 -4.17893e-18)
(-0.0127854 0.023802 -3.41734e-18)
(-0.0119606 0.0240438 -1.60394e-17)
(-0.0111354 0.024268 -5.44976e-18)
(-0.0103099 0.0244748 8.11267e-20)
(-0.0094843 0.0246647 -1.80909e-18)
(-0.00865872 0.0248378 -4.33035e-18)
(-0.00783322 0.0249944 -9.80872e-18)
(-0.00700788 0.0251346 -9.93383e-18)
(-0.00618273 0.0252588 -1.28369e-17)
(-0.00535779 0.0253671 -1.29166e-17)
(-0.00453306 0.0254596 -2.11749e-18)
(-0.00370854 0.0255365 -9.77544e-18)
(-0.0028842 0.0255978 -1.12136e-17)
(-0.00206002 0.0256438 -4.93957e-18)
(-0.00123594 0.0256744 -9.05902e-18)
(-0.00041194 0.0256897 -2.68709e-18)
(0.000412036 0.0256897 8.14034e-18)
(0.00123604 0.0256744 2.53243e-18)
(0.00206011 0.0256438 6.35839e-18)
(0.00288428 0.0255979 2.48874e-18)
(0.0037086 0.0255365 2.8815e-18)
(0.00453311 0.0254596 -7.71999e-19)
(0.00535783 0.0253671 -3.09413e-18)
(0.00618277 0.0252589 5.94964e-18)
(0.00700792 0.0251347 -9.30637e-19)
(0.00783326 0.0249944 -4.27835e-18)
(0.00865874 0.0248379 3.34912e-19)
(0.00948432 0.0246648 2.44739e-18)
(0.0103099 0.024475 -4.0509e-19)
(-0.0199118 0.0218244 4.12675e-18)
(-0.0197231 0.0216223 1.3277e-17)
(-0.0188977 0.0220276 1.6827e-17)
(-0.0180684 0.0224108 -5.57887e-18)
(-0.0172358 0.0227732 3.17893e-18)
(-0.0164006 0.0231153 1.90772e-18)
(-0.0155633 0.0234376 -8.82156e-18)
(-0.0147244 0.0237405 -1.3741e-17)
(-0.0138844 0.0240243 -3.39287e-18)
(-0.0130433 0.0242894 -3.88823e-18)
(-0.0122017 0.0245363 -1.62066e-17)
(-0.0113597 0.0247651 -5.66192e-18)
(-0.0105174 0.0249763 -2.14777e-19)
(-0.00967506 0.0251701 2.43089e-19)
(-0.00883275 0.0253467 -4.13623e-18)
(-0.00799057 0.0255065 -1.06998e-17)
(-0.00714858 0.0256497 -1.00873e-17)
(-0.0063068 0.0257764 -1.2455e-17)
(-0.00546526 0.0258869 -1.36331e-17)
(-0.00462396 0.0259813 -1.73256e-18)
(-0.00378288 0.0260597 -8.351e-18)
(-0.00294201 0.0261223 -1.11254e-17)
(-0.0021013 0.0261692 -3.99873e-18)
(-0.0012607 0.0262004 -8.24459e-18)
(-0.000420192 0.026216 -2.78103e-18)
(0.00042029 0.026216 7.63782e-18)
(0.0012608 0.0262004 3.59648e-18)
(0.00210138 0.0261692 7.47511e-18)
(0.00294208 0.0261224 1.831e-18)
(0.00378294 0.0260597 2.98015e-18)
(0.00462401 0.0259813 8.4554e-20)
(0.0054653 0.0258869 -2.45718e-18)
(0.00630685 0.0257764 4.7466e-18)
(0.00714862 0.0256497 -1.93968e-18)
(0.00799062 0.0255066 -4.50221e-18)
(0.00883278 0.0253468 6.58672e-19)
(0.00967508 0.0251702 3.0988e-18)
(0.0105174 0.0249764 4.9703e-19)
(0.0113597 0.0247653 -5.80373e-18)
(0.0122017 0.0245364 -1.56662e-17)
(-0.0203336 0.0222561 5.12706e-18)
(-0.0201261 0.0220656 1.28714e-17)
(-0.0192836 0.0224795 1.74448e-17)
(-0.0184369 0.0228708 -4.52642e-18)
(-0.017587 0.0232409 3.73286e-18)
(-0.0167344 0.0235902 2.43053e-18)
(-0.0158797 0.0239194 -9.39949e-18)
(-0.0150235 0.0242286 -1.44551e-17)
(-0.0141661 0.0245184 -2.73185e-18)
(-0.0133078 0.0247891 -3.95838e-18)
(-0.0124489 0.0250411 -1.63005e-17)
(-0.0115896 0.0252747 -6.544e-18)
(-0.0107301 0.0254902 -6.23676e-19)
(-0.00987058 0.025688 1.66548e-18)
(-0.00901113 0.0258683 -4.29413e-18)
(-0.00815185 0.0260314 -1.12449e-17)
(-0.00729278 0.0261775 -9.61803e-18)
(-0.00643396 0.0263068 -1.1993e-17)
(-0.00557541 0.0264195 -1.44443e-17)
(-0.00471712 0.0265159 -1.34715e-18)
(-0.00385907 0.0265959 -7.24033e-18)
(-0.00300125 0.0266598 -1.11299e-17)
(-0.0021436 0.0267076 -3.2082e-18)
(-0.00128608 0.0267395 -7.81719e-18)
(-0.000428649 0.0267554 -2.86156e-18)
(0.000428749 0.0267554 7.29558e-18)
(0.00128618 0.0267395 4.67086e-18)
(0.00214369 0.0267077 8.50902e-18)
(0.00300132 0.0266598 1.25962e-18)
(0.00385913 0.0265959 3.13254e-18)
(0.00471716 0.0265159 3.7428e-19)
(0.00557545 0.0264196 -1.72576e-18)
(0.006434 0.0263068 4.00587e-18)
(0.00729283 0.0261775 -2.87407e-18)
(0.00815189 0.0260315 -4.36588e-18)
(0.00901116 0.0258684 2.45452e-19)
(0.0098706 0.0256881 2.88074e-18)
(0.0107301 0.0254903 5.12539e-19)
(0.0115896 0.0252748 -5.75119e-18)
(0.0124489 0.0250412 -1.65877e-17)
(0.0133078 0.0247892 2.80652e-18)
(0.0141661 0.0245185 3.40026e-18)
(-0.020766 0.022699 6.33863e-18)
(-0.0205395 0.0225204 1.21139e-17)
(-0.0196794 0.022943 1.78876e-17)
(-0.018815 0.0233426 -3.1762e-18)
(-0.0179472 0.0237205 4.26852e-18)
(-0.0170767 0.0240773 2.26846e-18)
(-0.0162043 0.0244134 -1.11696e-17)
(-0.0153302 0.0247292 -1.5058e-17)
(-0.014455 0.0250251 -1.08494e-18)
(-0.0135789 0.0253014 -3.77718e-18)
(-0.0127023 0.0255587 -1.6706e-17)
(-0.0118253 0.0257972 -7.55896e-18)
(-0.0109482 0.0260172 -1.41781e-18)
(-0.010071 0.026219 2.35009e-18)
(-0.00919402 0.0264031 -3.80362e-18)
(-0.00831719 0.0265695 -1.11639e-17)
(-0.00744062 0.0267186 -8.92259e-18)
(-0.00656432 0.0268506 -1.15927e-17)
(-0.00568833 0.0269656 -1.55019e-17)
(-0.00481262 0.0270639 -1.02172e-18)
(-0.00393718 0.0271456 -6.34053e-18)
(-0.00306198 0.0272107 -1.11656e-17)
(-0.00218697 0.0272595 -2.57606e-18)
(-0.00131209 0.027292 -7.58747e-18)
(-0.000437318 0.0273083 -3.1204e-18)
(0.00043742 0.0273083 7.12683e-18)
(0.0013122 0.0272921 5.82883e-18)
(0.00218705 0.0272596 9.44377e-18)
(0.00306205 0.0272108 8.66732e-19)
(0.00393723 0.0271456 3.4692e-18)
(0.00481266 0.0270639 4.17604e-19)
(0.00568837 0.0269656 -1.53697e-18)
(0.00656437 0.0268506 3.46909e-18)
(0.00744067 0.0267186 -3.75402e-18)
(0.00831724 0.0265696 -3.97946e-18)
(0.00919405 0.0264032 1.91436e-19)
(0.0100711 0.0262192 2.43326e-18)
(0.0109482 0.0260173 -7.60152e-20)
(0.0118253 0.0257973 -6.20499e-18)
(0.0127023 0.0255588 -1.75434e-17)
(0.0135789 0.0253016 2.91705e-18)
(0.014455 0.0250252 2.52599e-18)
(0.0153302 0.0247293 5.98316e-18)
(0.0162043 0.0244135 8.85223e-18)
(0.0170767 0.0240774 1.6862e-17)
(-0.0212096 0.0231535 7.4629e-18)
(-0.0209638 0.0229872 1.12681e-17)
(-0.0200856 0.0234185 1.843e-17)
(-0.0192029 0.0238266 -1.99581e-18)
(-0.0183167 0.0242127 4.54504e-18)
(-0.017428 0.024577 2.15939e-18)
(-0.0165372 0.0249202 -1.29798e-17)
(-0.0156449 0.0252427 -1.55319e-17)
(-0.0147514 0.0255448 3.16899e-19)
(-0.0138571 0.025827 -3.42927e-18)
(-0.0129623 0.0260896 -1.69841e-17)
(-0.0120671 0.0263331 -8.91127e-18)
(-0.0111719 0.0265576 -2.5396e-18)
(-0.0102767 0.0267637 3.02882e-18)
(-0.00938161 0.0269515 -2.7225e-18)
(-0.00848678 0.0271214 -1.09594e-17)
(-0.00759224 0.0272735 -8.66363e-18)
(-0.00669803 0.0274082 -1.13908e-17)
(-0.00580413 0.0275256 -1.65648e-17)
(-0.00491056 0.0276259 -8.39721e-19)
(-0.00401727 0.0277092 -5.50046e-18)
(-0.00312425 0.0277757 -1.12334e-17)
(-0.00223144 0.0278255 -2.14054e-18)
(-0.00133877 0.0278587 -7.17173e-18)
(-0.000446209 0.0278752 -3.50244e-18)
(0.000446313 0.0278752 7.00039e-18)
(0.00133887 0.0278587 6.98467e-18)
(0.00223153 0.0278255 1.02136e-17)
(0.00312432 0.0277757 5.43661e-19)
(0.00401733 0.0277092 3.94023e-18)
(0.0049106 0.0276259 6.25835e-19)
(0.00580417 0.0275256 -1.40139e-18)
(0.00669807 0.0274082 3.22397e-18)
(0.0075923 0.0272736 -4.93711e-18)
(0.00848682 0.0271214 -3.99438e-18)
(0.00938163 0.0269516 6.30184e-19)
(0.0102767 0.0267638 2.16536e-18)
(0.0111719 0.0265578 -8.48487e-19)
(0.0120671 0.0263332 -6.79487e-18)
(0.0129623 0.0260898 -1.77551e-17)
(0.0138571 0.0258271 2.81605e-18)
(0.0147514 0.0255449 2.07488e-18)
(0.0156449 0.0252428 4.95339e-18)
(0.0165372 0.0249203 7.59253e-18)
(0.017428 0.0245771 1.43706e-17)
(0.0183168 0.0242128 1.88645e-17)
(0.0192029 0.0238267 1.75922e-17)
(-0.0216648 0.0236203 8.42738e-18)
(-0.0213993 0.0234664 1.11343e-17)
(-0.0205026 0.0239067 1.87715e-17)
(-0.019601 0.0243235 -1.02574e-18)
(-0.0186961 0.0247177 4.58209e-18)
(-0.0177885 0.0250899 2.95641e-18)
(-0.0168789 0.0254404 -1.44396e-17)
(-0.0159678 0.0257697 -1.66119e-17)
(-0.0150555 0.0260782 1.0941e-18)
(-0.0141425 0.0263663 -2.6872e-18)
(-0.013229 0.0266344 -1.72768e-17)
(-0.0123153 0.0268829 -1.04756e-17)
(-0.0114014 0.0271122 -3.21159e-18)
(-0.0104876 0.0273225 3.74694e-18)
(-0.00957407 0.0275142 -1.64673e-18)
(-0.00866078 0.0276876 -1.08774e-17)
(-0.00774781 0.0278428 -8.8283e-18)
(-0.0068352 0.0279803 -1.12361e-17)
(-0.00592294 0.0281 -1.71794e-17)
(-0.00501103 0.0282024 -7.3833e-19)
(-0.00409945 0.0282874 -4.80258e-18)
(-0.00318815 0.0283553 -1.153e-17)
(-0.00227707 0.0284061 -1.78363e-18)
(-0.00136614 0.0284399 -6.35761e-18)
(-0.000455331 0.0284568 -3.83876e-18)
(0.000455436 0.0284568 6.84459e-18)
(0.00136625 0.0284399 7.97019e-18)
(0.00227715 0.0284061 1.07211e-17)
(0.00318821 0.0283553 1.79724e-19)
(0.00409951 0.0282874 4.4353e-18)
(0.00501108 0.0282024 1.0439e-18)
(0.00592298 0.0281001 -1.27258e-18)
(0.00683524 0.0279803 3.08913e-18)
(0.00774786 0.0278429 -5.91452e-18)
(0.00866082 0.0276876 -4.50254e-18)
(0.0095741 0.0275143 1.09545e-18)
(0.0104877 0.0273226 1.86674e-18)
(0.0114014 0.0271123 -1.82046e-18)
(0.0123153 0.0268831 -7.33822e-18)
(0.013229 0.0266346 -1.71422e-17)
(0.0141425 0.0263664 2.63665e-18)
(0.0150555 0.0260783 1.74959e-18)
(0.0159677 0.0257698 4.68409e-18)
(0.0168789 0.0254405 7.25173e-18)
(0.0177885 0.02509 1.32846e-17)
(0.0186961 0.0247178 1.78573e-17)
(0.019601 0.0243236 1.71374e-17)
(0.0205025 0.0239068 7.56335e-18)
(0.0213993 0.0234665 6.05995e-18)
(0.0216647 0.0236203 3.21236e-17)
(-0.0221324 0.0241002 9.37183e-18)
(-0.0218466 0.0239587 1.08725e-17)
(-0.0209308 0.024408 1.91073e-17)
(-0.0200099 0.0248336 2.19591e-20)
(-0.0190855 0.0252363 5.03451e-18)
(-0.0181586 0.0256164 3.74892e-18)
(-0.0172297 0.0259744 -1.53163e-17)
(-0.0162993 0.0263107 -1.78629e-17)
(-0.0153678 0.0266257 1.32461e-18)
(-0.0144355 0.0269199 -1.91727e-18)
(-0.0135028 0.0271936 -1.76024e-17)
(-0.0125699 0.0274474 -1.1531e-17)
(-0.011637 0.0276814 -3.50096e-18)
(-0.0107042 0.027896 4.29635e-18)
(-0.00977161 0.0280917 -3.79232e-19)
(-0.00883936 0.0282686 -1.08134e-17)
(-0.00790747 0.0284271 -9.40795e-18)
(-0.00697598 0.0285674 -1.10046e-17)
(-0.00604488 0.0286896 -1.7501e-17)
(-0.00511416 0.028794 -1.19227e-18)
(-0.00418378 0.0288808 -4.21674e-18)
(-0.00325372 0.0289501 -1.17286e-17)
(-0.00232389 0.0290019 -1.1794e-18)
(-0.00139423 0.0290364 -5.27757e-18)
(-0.000464693 0.0290537 -4.46639e-18)
(0.000464798 0.0290537 6.54937e-18)
(0.00139433 0.0290364 9.02798e-18)
(0.00232397 0.0290019 1.09577e-17)
(0.00325378 0.0289501 -4.49281e-19)
(0.00418384 0.0288808 5.14877e-18)
(0.00511421 0.028794 1.76145e-18)
(0.00604492 0.0286896 -1.07659e-18)
(0.00697603 0.0285674 3.01166e-18)
(0.00790753 0.0284271 -6.63351e-18)
(0.00883941 0.0282687 -5.17778e-18)
(0.00977165 0.0280918 1.24735e-18)
(0.0107042 0.0278961 1.48719e-18)
(0.011637 0.0276815 -2.54101e-18)
(0.01257 0.0274475 -7.73272e-18)
(0.0135028 0.0271938 -1.63542e-17)
(0.0144355 0.02692 2.51065e-18)
(0.0153678 0.0266258 1.03468e-18)
(0.0162992 0.0263108 4.88834e-18)
(0.0172297 0.0259745 7.41124e-18)
(0.0181586 0.0256165 1.30472e-17)
(0.0190855 0.0252364 1.73111e-17)
(0.0200099 0.0248337 1.72313e-17)
(0.0209307 0.0244081 6.22745e-18)
(0.0218466 0.0239588 5.7525e-18)
(0.0221323 0.0241002 3.26659e-17)
(-0.0226146 0.0245956 1.01569e-17)
(-0.0223062 0.0244645 1.04324e-17)
(-0.0213706 0.0249229 1.92092e-17)
(-0.0204298 0.0253576 1.23737e-18)
(-0.0194855 0.025769 5.89962e-18)
(-0.0185387 0.0261572 4.12391e-18)
(-0.0175899 0.0265228 -1.57097e-17)
(-0.0166397 0.0268663 -1.92227e-17)
(-0.0156884 0.027188 1.02261e-18)
(-0.0147364 0.0274883 -1.31469e-18)
(-0.013784 0.0277679 -1.78121e-17)
(-0.0128315 0.0280269 -1.19356e-17)
(-0.0118789 0.0282658 -3.55971e-18)
(-0.0109265 0.0284849 4.15809e-18)
(-0.00997445 0.0286847 1.91279e-19)
(-0.00902272 0.0288652 -1.05459e-17)
(-0.0080714 0.029027 -9.49822e-18)
(-0.00712052 0.0291701 -1.05121e-17)
(-0.00617007 0.0292948 -1.78598e-17)
(-0.00522003 0.0294014 -1.84155e-18)
(-0.00427037 0.02949 -3.84274e-18)
(-0.00332104 0.0295606 -1.20249e-17)
(-0.00237196 0.0296135 -5.95768e-19)
(-0.00142307 0.0296488 -4.13088e-18)
(-0.000474305 0.0296663 -5.12021e-18)
(0.00047441 0.0296664 6.28027e-18)
(0.00142317 0.0296488 1.0224e-17)
(0.00237204 0.0296135 1.11191e-17)
(0.0033211 0.0295606 -1.29874e-18)
(0.00427043 0.0294899 5.80188e-18)
(0.00522008 0.0294014 2.75429e-18)
(0.00617011 0.0292949 -7.5667e-19)
(0.00712057 0.0291701 2.8016e-18)
(0.00807146 0.029027 -6.99178e-18)
(0.00902277 0.0288653 -5.48769e-18)
(0.00997448 0.0286847 1.30702e-18)
(0.0109266 0.028485 7.21485e-19)
(0.0118789 0.0282659 -3.05687e-18)
(0.0128315 0.028027 -7.73224e-18)
(0.013784 0.027768 -1.59519e-17)
(0.0147364 0.0274885 2.07346e-18)
(0.0156884 0.0271881 -2.20538e-19)
(0.0166397 0.0268664 4.71717e-18)
(0.0175899 0.0265229 8.32462e-18)
(0.0185387 0.0261573 1.36288e-17)
(0.0194856 0.025769 1.67974e-17)
(0.0204298 0.0253577 1.78121e-17)
(0.0213706 0.0249229 6.11572e-18)
(0.0223062 0.0244646 5.82511e-18)
(0.0226146 0.0245957 3.20106e-17)
(-0.0231142 0.0251089 1.01838e-17)
(-0.0227789 0.0249842 1.0392e-17)
(-0.0218227 0.0254519 1.94374e-17)
(-0.0208613 0.025896 2.35539e-18)
(-0.0198966 0.0263162 6.62655e-18)
(-0.0189293 0.0267128 4.57895e-18)
(-0.0179601 0.0270863 -1.60697e-17)
(-0.0169894 0.027437 -2.09913e-17)
(-0.0160178 0.0277656 3.46576e-20)
(-0.0150455 0.0280723 -1.01163e-18)
(-0.0140729 0.0283577 -1.80044e-17)
(-0.0131001 0.0286222 -1.20407e-17)
(-0.0121274 0.0288661 -3.38273e-18)
(-0.0111549 0.0290898 3.53316e-18)
(-0.0101828 0.0292937 2.87931e-21)
(-0.00921106 0.029478 -9.95392e-18)
(-0.00823978 0.0296431 -8.70942e-18)
(-0.00726898 0.0297891 -9.97717e-18)
(-0.00629865 0.0299164 -1.84146e-17)
(-0.00532876 0.0300252 -2.40522e-18)
(-0.00435929 0.0301156 -3.77315e-18)
(-0.00339018 0.0301877 -1.24645e-17)
(-0.00242133 0.0302417 -1.69038e-19)
(-0.00145269 0.0302776 -2.9645e-18)
(-0.000484176 0.0302956 -5.56354e-18)
(0.000484281 0.0302956 6.36152e-18)
(0.00145279 0.0302776 1.13844e-17)
(0.00242141 0.0302416 1.10557e-17)
(0.00339024 0.0301877 -2.25988e-18)
(0.00435935 0.0301155 6.35473e-18)
(0.00532882 0.0300252 3.79766e-18)
(0.0062987 0.0299165 -1.67066e-19)
(0.00726903 0.0297892 2.5894e-18)
(0.00823984 0.0296431 -7.00411e-18)
(0.00921111 0.029478 -5.7029e-18)
(0.0101828 0.0292937 1.09401e-18)
(0.0111549 0.0290899 -3.11925e-19)
(0.0121274 0.0288662 -3.43686e-18)
(0.0131001 0.0286223 -7.3938e-18)
(0.0140729 0.0283578 -1.56039e-17)
(0.0150455 0.0280724 1.3791e-18)
(0.0160178 0.0277657 -2.20674e-18)
(0.0169894 0.0274371 3.73192e-18)
(0.0179601 0.0270864 9.00417e-18)
(0.0189293 0.0267129 1.48507e-17)
(0.0198966 0.0263163 1.57686e-17)
(0.0208613 0.0258961 1.82417e-17)
(0.0218226 0.025452 7.39953e-18)
(0.0227789 0.0249843 6.29525e-18)
(0.0231142 0.025109 3.05875e-17)
(-0.0236313 0.02564 9.61074e-18)
(-0.0232662 0.025519 1.14172e-17)
(-0.0222875 0.0259959 1.96304e-17)
(-0.0213049 0.0264495 3.3042e-18)
(-0.020319 0.0268787 7.09579e-18)
(-0.0193307 0.0272838 5.09035e-18)
(-0.0183405 0.0276654 -1.6099e-17)
(-0.0173489 0.0280236 -2.28154e-17)
(-0.0163564 0.0283592 -1.47618e-18)
(-0.0153632 0.0286724 -8.54786e-19)
(-0.0143697 0.0289639 -1.83074e-17)
(-0.0133762 0.0292339 -1.1828e-17)
(-0.0123828 0.0294829 -2.42296e-18)
(-0.0113896 0.0297113 2.64178e-18)
(-0.0103969 0.0299194 -9.15259e-19)
(-0.00940458 0.0301076 -8.93743e-18)
(-0.00841279 0.0302761 -7.42565e-18)
(-0.00742153 0.0304251 -9.91627e-18)
(-0.00643077 0.0305551 -1.88506e-17)
(-0.00544049 0.0306661 -2.82267e-18)
(-0.00445066 0.0307583 -3.83283e-18)
(-0.00346121 0.0308319 -1.29446e-17)
(-0.00247206 0.030887 -9.51188e-20)
(-0.00148312 0.0309237 -1.84892e-18)
(-0.000494319 0.030942 -5.59242e-18)
(0.000494422 0.030942 6.84488e-18)
(0.00148321 0.0309236 1.22456e-17)
(0.00247213 0.0308869 1.08256e-17)
(0.00346127 0.0308319 -3.08362e-18)
(0.00445072 0.0307583 7.11706e-18)
(0.00544055 0.0306661 4.82507e-18)
(0.00643081 0.0305551 4.26075e-19)
(0.00742157 0.0304252 2.29181e-18)
(0.00841284 0.0302761 -6.86425e-18)
(0.00940463 0.0301076 -5.36768e-18)
(0.0103969 0.0299195 6.4387e-19)
(0.0113896 0.0297114 -1.22683e-18)
(0.0123828 0.029483 -3.59342e-18)
(0.0133762 0.029234 -6.73412e-18)
(0.0143697 0.028964 -1.53371e-17)
(0.0153632 0.0286725 1.09593e-18)
(0.0163564 0.0283593 -4.50334e-18)
(0.0173489 0.0280237 2.68884e-18)
(0.0183405 0.0276655 9.04516e-18)
(0.0193307 0.0272839 1.55549e-17)
(0.020319 0.0268788 1.45933e-17)
(0.0213049 0.0264496 1.82707e-17)
(0.0222875 0.025996 9.48467e-18)
(0.0232662 0.0255191 7.54689e-18)
(0.0236313 0.0256401 2.89322e-17)
(-0.0241655 0.0261879 8.92947e-18)
(-0.0237713 0.0260724 1.28671e-17)
(-0.0227674 0.0265574 1.97474e-17)
(-0.0217618 0.0270195 4.44514e-18)
(-0.0207536 0.0274573 7.86233e-18)
(-0.0197435 0.0278711 5.44856e-18)
(-0.0187317 0.0282608 -1.57519e-17)
(-0.0177185 0.0286267 -2.45629e-17)
(-0.0167044 0.0289695 -3.44614e-18)
(-0.0156898 0.0292894 -4.36215e-19)
(-0.0146749 0.029587 -1.86002e-17)
(-0.01366 0.0298628 -1.18321e-17)
(-0.0126453 0.030117 -1.30636e-18)
(-0.0116309 0.0303502 2.14254e-18)
(-0.0106169 0.0305626 -2.01139e-18)
(-0.0096035 0.0307547 -7.63583e-18)
(-0.00859062 0.0309267 -5.77702e-18)
(-0.00757832 0.0310788 -1.02637e-17)
(-0.00656656 0.0312115 -1.90594e-17)
(-0.00555532 0.0313248 -3.1932e-18)
(-0.00454456 0.0314189 -4.27152e-18)
(-0.00353422 0.031494 -1.3509e-17)
(-0.0025242 0.0315502 -1.16196e-19)
(-0.00151439 0.0315876 -7.72955e-19)
(-0.000504744 0.0316063 -5.08037e-18)
(0.000504846 0.0316063 7.57182e-18)
(0.00151449 0.0315876 1.24909e-17)
(0.00252427 0.0315502 1.05666e-17)
(0.00353428 0.031494 -3.71685e-18)
(0.00454463 0.0314188 7.63848e-18)
(0.00555538 0.0313247 5.77392e-18)
(0.0065666 0.0312115 9.06233e-19)
(0.00757836 0.0310789 1.7353e-18)
(0.00859068 0.0309267 -6.51166e-18)
(0.00960355 0.0307547 -4.31993e-18)
(0.010617 0.0305627 1.27401e-20)
(0.0116309 0.0303502 -2.0785e-18)
(0.0126453 0.0301171 -3.66811e-18)
(0.01366 0.0298629 -6.36456e-18)
(0.0146749 0.0295871 -1.47967e-17)
(0.0156898 0.0292895 1.44588e-18)
(0.0167044 0.0289696 -6.97802e-18)
(0.0177184 0.0286268 1.28232e-18)
(0.0187317 0.0282609 8.92689e-18)
(0.0197435 0.0278712 1.56507e-17)
(0.0207536 0.0274574 1.34264e-17)
(0.0217618 0.0270196 1.77189e-17)
(0.0227674 0.0265576 1.12108e-17)
(0.0237714 0.0260726 9.3141e-18)
(0.0241656 0.026188 2.78429e-17)
(-0.0247165 0.0267528 9.40389e-18)
(-0.0242968 0.0266478 1.44704e-17)
(-0.0232662 0.0271406 1.96372e-17)
(-0.022235 0.0276097 5.75522e-18)
(-0.0212024 0.0280548 8.21682e-18)
(-0.0201688 0.0284762 5.03681e-18)
(-0.0191341 0.0288734 -1.53368e-17)
(-0.0180986 0.0292471 -2.64261e-17)
(-0.0170624 0.0295972 -5.69765e-18)
(-0.0160257 0.0299238 2.79579e-19)
(-0.0149887 0.0302278 -1.90354e-17)
(-0.0139519 0.0305094 -1.22287e-17)
(-0.0129152 0.030769 -5.22945e-20)
(-0.011879 0.0310071 1.84858e-18)
(-0.0108432 0.031224 -3.04654e-18)
(-0.00980806 0.0314201 -5.83158e-18)
(-0.00877349 0.0315957 -4.24583e-18)