/*--------------------------------*- C++ -*----------------------------------*\
  =========                 |
  \\      /  F ield         | OpenFOAM: The Open Source CFD Toolbox
   \\    /   O peration     | Website:  https://openfoam.org
    \\  /    A nd           | Version:  7
     \\/     M anipulation  |
\*---------------------------------------------------------------------------*/
FoamFile
{
    version     2.0;
    format      ascii;
    class       volScalarField;
    location    "276000";
    object      nu;
}
// * * * * * * * * * * * * * * * * * * * * * * * * * * * * * * * * * * * * * //

dimensions      [0 2 -1 0 0 0 0];

internalField   nonuniform List<scalar> 
4783
(
2.31196e-05
2.39573e-05
2.4244e-05
2.46676e-05
2.51618e-05
2.56971e-05
2.62613e-05
2.68486e-05
2.74548e-05
2.80765e-05
2.871e-05
2.9351e-05
2.99947e-05
3.06356e-05
3.1267e-05
3.1882e-05
3.24724e-05
3.30296e-05
3.35447e-05
3.40084e-05
3.44116e-05
3.4746e-05
1.93795e-05
2.12e-05
2.15059e-05
2.19092e-05
2.23894e-05
2.2922e-05
2.349e-05
2.40826e-05
2.46924e-05
2.53139e-05
2.59421e-05
2.65721e-05
2.71989e-05
2.78168e-05
2.84197e-05
2.90011e-05
2.95539e-05
3.00708e-05
3.05444e-05
3.09672e-05
3.13322e-05
3.16329e-05
1.81852e-05
2.00512e-05
2.04526e-05
2.08433e-05
2.12609e-05
2.17125e-05
2.21939e-05
2.26983e-05
2.32194e-05
2.37515e-05
2.42897e-05
2.4829e-05
2.53646e-05
2.58914e-05
2.64041e-05
2.68971e-05
2.73645e-05
2.78002e-05
2.81983e-05
2.85527e-05
2.88579e-05
2.91089e-05
1.73958e-05
1.9026e-05
1.94602e-05
1.9865e-05
2.02641e-05
2.06726e-05
2.10963e-05
2.1535e-05
2.19859e-05
2.24451e-05
2.29085e-05
2.33719e-05
2.3831e-05
2.42815e-05
2.47186e-05
2.51377e-05
2.55339e-05
2.59023e-05
2.62378e-05
2.65359e-05
2.67921e-05
2.70023e-05
1.67308e-05
1.81372e-05
1.85486e-05
1.89442e-05
1.93289e-05
1.9711e-05
2.00969e-05
2.04891e-05
2.08875e-05
2.12904e-05
2.16951e-05
2.20983e-05
2.24965e-05
2.2886e-05
2.3263e-05
2.36233e-05
2.3963e-05
2.42781e-05
2.45644e-05
2.48181e-05
2.50358e-05
2.52141e-05
1.61385e-05
1.73597e-05
1.77348e-05
1.81046e-05
1.84674e-05
1.88253e-05
1.91816e-05
1.95386e-05
1.98969e-05
2.02562e-05
2.06146e-05
2.09699e-05
2.13195e-05
2.16602e-05
2.1989e-05
2.23024e-05
2.2597e-05
2.28696e-05
2.31168e-05
2.33355e-05
2.35227e-05
2.36758e-05
1.55996e-05
1.66685e-05
1.70085e-05
1.7348e-05
1.76843e-05
1.80169e-05
1.83464e-05
1.86738e-05
1.89997e-05
1.93238e-05
1.96451e-05
1.99619e-05
2.02722e-05
2.05735e-05
2.08633e-05
2.11387e-05
2.13971e-05
2.16355e-05
2.18513e-05
2.20418e-05
2.22046e-05
2.23376e-05
1.51037e-05
1.60459e-05
1.63552e-05
1.66656e-05
1.6975e-05
1.7282e-05
1.75861e-05
1.78872e-05
1.81853e-05
1.848e-05
1.87706e-05
1.90558e-05
1.93338e-05
1.96029e-05
1.98608e-05
2.01052e-05
2.03339e-05
2.05445e-05
2.07347e-05
2.09023e-05
2.10453e-05
2.11621e-05
1.46441e-05
1.54799e-05
1.57626e-05
1.6047e-05
1.63311e-05
1.66138e-05
1.6894e-05
1.71711e-05
1.74447e-05
1.77142e-05
1.79787e-05
1.82372e-05
1.84884e-05
1.87306e-05
1.8962e-05
1.91808e-05
1.93849e-05
1.95725e-05
1.97416e-05
1.98904e-05
2.00173e-05
2.01206e-05
1.4216e-05
1.49615e-05
1.52213e-05
1.54826e-05
1.5744e-05
1.60044e-05
1.62626e-05
1.65179e-05
1.67696e-05
1.70168e-05
1.72588e-05
1.74945e-05
1.77228e-05
1.79423e-05
1.81515e-05
1.83487e-05
1.85324e-05
1.87008e-05
1.88523e-05
1.89855e-05
1.90988e-05
1.91911e-05
1.38156e-05
1.4484e-05
1.47237e-05
1.49647e-05
1.52059e-05
1.54462e-05
1.56846e-05
1.59202e-05
1.61522e-05
1.63797e-05
1.66019e-05
1.68179e-05
1.70265e-05
1.72266e-05
1.74167e-05
1.75957e-05
1.7762e-05
1.79142e-05
1.80509e-05
1.81709e-05
1.82729e-05
1.83559e-05
1.34399e-05
1.40419e-05
1.42641e-05
1.44872e-05
1.47104e-05
1.49328e-05
1.51534e-05
1.53712e-05
1.55856e-05
1.57956e-05
1.60004e-05
1.6199e-05
1.63904e-05
1.65737e-05
1.67475e-05
1.69107e-05
1.70622e-05
1.72006e-05
1.73247e-05
1.74335e-05
1.75259e-05
1.76009e-05
1.30865e-05
1.36309e-05
1.38376e-05
1.40449e-05
1.42522e-05
1.44585e-05
1.46631e-05
1.48651e-05
1.50637e-05
1.52581e-05
1.54473e-05
1.56306e-05
1.5807e-05
1.59756e-05
1.61352e-05
1.62848e-05
1.64234e-05
1.65499e-05
1.66632e-05
1.67624e-05
1.68465e-05
1.69149e-05
1.27531e-05
1.32475e-05
1.34403e-05
1.36336e-05
1.38267e-05
1.40187e-05
1.4209e-05
1.43968e-05
1.45813e-05
1.47617e-05
1.49371e-05
1.51068e-05
1.52699e-05
1.54255e-05
1.55727e-05
1.57104e-05
1.58379e-05
1.5954e-05
1.60579e-05
1.61488e-05
1.62258e-05
1.62883e-05
1.2438e-05
1.28886e-05
1.3069e-05
1.32498e-05
1.34301e-05
1.36094e-05
1.37869e-05
1.39619e-05
1.41337e-05
1.43016e-05
1.44647e-05
1.46223e-05
1.47736e-05
1.49177e-05
1.50539e-05
1.51812e-05
1.52988e-05
1.54059e-05
1.55016e-05
1.55852e-05
1.21395e-05
1.25515e-05
1.27209e-05
1.28904e-05
1.30593e-05
1.32271e-05
1.33931e-05
1.35567e-05
1.37171e-05
1.38737e-05
1.40258e-05
1.41726e-05
1.43133e-05
1.44473e-05
1.45737e-05
1.46918e-05
1.48007e-05
1.48998e-05
1.49883e-05
1.18562e-05
1.22343e-05
1.23937e-05
1.2553e-05
1.27116e-05
1.28691e-05
1.30247e-05
1.3178e-05
1.33282e-05
1.34747e-05
1.36168e-05
1.37539e-05
1.38852e-05
1.401e-05
1.41277e-05
1.42376e-05
1.43388e-05
1.1587e-05
1.19348e-05
1.20851e-05
1.22352e-05
1.23846e-05
1.25327e-05
1.2679e-05
1.28229e-05
1.29639e-05
1.31013e-05
1.32344e-05
1.33628e-05
1.34856e-05
1.36023e-05
1.13305e-05
1.16515e-05
1.17936e-05
1.19354e-05
1.20763e-05
1.22159e-05
1.23538e-05
1.24893e-05
1.26218e-05
1.2751e-05
1.2876e-05
1.29965e-05
1.10859e-05
1.1383e-05
1.15176e-05
1.16517e-05
1.1785e-05
1.19169e-05
1.2047e-05
1.21748e-05
1.22998e-05
1.24215e-05
1.08523e-05
1.11279e-05
1.12556e-05
1.13828e-05
1.1509e-05
1.16339e-05
1.1757e-05
1.18779e-05
1.19959e-05
1.06289e-05
1.08851e-05
1.10065e-05
1.11273e-05
1.12472e-05
1.13656e-05
1.14823e-05
1.15968e-05
1.04148e-05
1.06536e-05
1.07692e-05
1.08842e-05
1.09982e-05
1.11107e-05
1.12215e-05
1.02096e-05
1.04326e-05
1.05429e-05
1.06524e-05
1.0761e-05
1.08681e-05
1.00125e-05
1.02212e-05
1.03265e-05
1.04311e-05
1.05346e-05
1.06368e-05
9.82297e-06
1.00187e-05
1.01195e-05
1.02194e-05
1.03183e-05
9.6406e-06
9.82454e-06
9.92101e-06
1.00167e-05
9.46488e-06
9.63802e-06
9.73053e-06
9.82224e-06
9.29542e-06
9.45865e-06
9.54747e-06
9.13181e-06
9.28597e-06
9.37134e-06
8.97372e-06
9.11953e-06
9.20168e-06
8.8208e-06
8.95894e-06
9.03806e-06
8.67278e-06
8.80382e-06
8.88011e-06
8.52937e-06
8.65385e-06
8.72747e-06
8.39031e-06
8.50872e-06
8.57983e-06
8.25537e-06
8.36815e-06
8.43689e-06
8.12433e-06
8.23188e-06
8.29838e-06
7.99699e-06
8.09967e-06
8.16406e-06
7.87315e-06
7.97129e-06
8.03368e-06
7.75264e-06
7.84655e-06
7.90704e-06
7.6353e-06
7.72525e-06
7.78395e-06
7.52097e-06
7.60722e-06
7.6642e-06
2.31196e-05
1.93795e-05
1.81852e-05
1.73958e-05
1.67308e-05
1.61385e-05
1.55996e-05
1.51037e-05
1.46441e-05
1.4216e-05
1.38156e-05
1.34399e-05
1.30865e-05
1.27531e-05
1.2438e-05
1.21395e-05
1.18562e-05
1.1587e-05
1.13305e-05
1.10859e-05
1.08523e-05
1.06289e-05
1.04148e-05
1.02096e-05
1.00125e-05
9.82297e-06
9.6406e-06
9.46488e-06
9.29542e-06
9.13181e-06
8.97371e-06
8.8208e-06
8.67278e-06
8.52937e-06
8.39031e-06
8.25537e-06
8.12433e-06
7.99699e-06
7.87315e-06
7.75264e-06
7.6353e-06
7.52097e-06
2.39573e-05
2.12e-05
2.00512e-05
1.9026e-05
1.81372e-05
1.73597e-05
1.66685e-05
1.60459e-05
1.54799e-05
1.49615e-05
1.4484e-05
1.40419e-05
1.36309e-05
1.32475e-05
1.28886e-05
1.25515e-05
1.22343e-05
1.19348e-05
1.16515e-05
1.1383e-05
1.11279e-05
1.08851e-05
1.06536e-05
1.04326e-05
1.02212e-05
1.00187e-05
9.82454e-06
9.63802e-06
9.45865e-06
9.28597e-06
9.11953e-06
8.95894e-06
8.80382e-06
8.65385e-06
8.50872e-06
8.36815e-06
8.23188e-06
8.09967e-06
7.97129e-06
7.84655e-06
7.72525e-06
7.60722e-06
2.4244e-05
2.15059e-05
2.04526e-05
1.94602e-05
1.85486e-05
1.77347e-05
1.70085e-05
1.63552e-05
1.57626e-05
1.52213e-05
1.47237e-05
1.42641e-05
1.38376e-05
1.34403e-05
1.3069e-05
1.27209e-05
1.23937e-05
1.20851e-05
1.17936e-05
1.15176e-05
1.12556e-05
1.10065e-05
1.07692e-05
1.05429e-05
1.03265e-05
1.01195e-05
9.92101e-06
9.73053e-06
9.54747e-06
9.37134e-06
9.20168e-06
9.03806e-06
8.88011e-06
8.72747e-06
8.57983e-06
8.43689e-06
8.29838e-06
8.16406e-06
8.03368e-06
7.90704e-06
7.78395e-06
7.6642e-06
2.46676e-05
2.19092e-05
2.08433e-05
1.9865e-05
1.89442e-05
1.81046e-05
1.7348e-05
1.66656e-05
1.6047e-05
1.54826e-05
1.49647e-05
1.44872e-05
1.40449e-05
1.36336e-05
1.32498e-05
1.28904e-05
1.2553e-05
1.22352e-05
1.19354e-05
1.16517e-05
1.13828e-05
1.11273e-05
1.08842e-05
1.06524e-05
1.04311e-05
1.02194e-05
1.00167e-05
9.82224e-06
9.63548e-06
9.45589e-06
9.283e-06
9.11635e-06
8.95556e-06
8.80025e-06
8.6501e-06
8.50479e-06
8.36405e-06
8.22762e-06
8.09525e-06
7.96672e-06
7.84183e-06
7.72039e-06
2.51618e-05
2.23894e-05
2.12609e-05
2.02641e-05
1.93289e-05
1.84674e-05
1.76843e-05
1.6975e-05
1.63311e-05
1.5744e-05
1.52059e-05
1.47104e-05
1.42522e-05
1.38267e-05
1.34301e-05
1.30593e-05
1.27116e-05
1.23846e-05
1.20763e-05
1.1785e-05
1.1509e-05
1.12472e-05
1.09982e-05
1.0761e-05
1.05346e-05
1.03183e-05
1.01113e-05
9.91287e-06
9.72241e-06
9.53936e-06
9.36323e-06
9.19356e-06
9.02993e-06
8.87197e-06
8.71932e-06
8.57166e-06
8.42869e-06
8.29016e-06
8.15581e-06
8.0254e-06
7.89873e-06
7.7756e-06
2.5697e-05
2.2922e-05
2.17125e-05
2.06726e-05
1.9711e-05
1.88253e-05
1.80169e-05
1.7282e-05
1.66138e-05
1.60044e-05
1.54462e-05
1.49328e-05
1.44585e-05
1.40187e-05
1.36094e-05
1.32271e-05
1.28691e-05
1.25327e-05
1.22159e-05
1.19169e-05
1.16339e-05
1.13656e-05
1.11107e-05
1.08681e-05
1.06368e-05
1.04159e-05
1.02045e-05
1.00021e-05
9.80797e-06
9.62147e-06
9.44213e-06
9.26945e-06
9.10301e-06
8.9424e-06
8.78727e-06
8.63727e-06
8.49211e-06
8.35149e-06
8.21518e-06
8.08291e-06
7.95448e-06
7.82968e-06
2.62613e-05
2.349e-05
2.21939e-05
2.10963e-05
2.00969e-05
1.91816e-05
1.83463e-05
1.75861e-05
1.6894e-05
1.62626e-05
1.56846e-05
1.51534e-05
1.46631e-05
1.4209e-05
1.37869e-05
1.33931e-05
1.30247e-05
1.2679e-05
1.23538e-05
1.2047e-05
1.1757e-05
1.14823e-05
1.12215e-05
1.09735e-05
1.07372e-05
1.05117e-05
1.02961e-05
1.00897e-05
9.89188e-06
9.70197e-06
9.51944e-06
9.34378e-06
9.17455e-06
9.01132e-06
8.85373e-06
8.70143e-06
8.55409e-06
8.41142e-06
8.27317e-06
8.13907e-06
8.0089e-06
7.88245e-06
2.68486e-05
2.40826e-05
2.26983e-05
2.1535e-05
2.04891e-05
1.95386e-05
1.86738e-05
1.78872e-05
1.71711e-05
1.65179e-05
1.59202e-05
1.53712e-05
1.48651e-05
1.43968e-05
1.39619e-05
1.35567e-05
1.3178e-05
1.28229e-05
1.24893e-05
1.21748e-05
1.18779e-05
1.15967e-05
1.13301e-05
1.10767e-05
1.08355e-05
1.06054e-05
1.03856e-05
1.01753e-05
9.97385e-06
9.78056e-06
9.59488e-06
9.41629e-06
9.2443e-06
9.0785e-06
8.91849e-06
8.76391e-06
8.61443e-06
8.46975e-06
8.32958e-06
8.19369e-06
8.06181e-06
7.93375e-06
2.74548e-05
2.46924e-05
2.32194e-05
2.19859e-05
2.08875e-05
1.98969e-05
1.89997e-05
1.81853e-05
1.74447e-05
1.67696e-05
1.61522e-05
1.55856e-05
1.50637e-05
1.45813e-05
1.41337e-05
1.37171e-05
1.33282e-05
1.29639e-05
1.26218e-05
1.22998e-05
1.19959e-05
1.17085e-05
1.14361e-05
1.11774e-05
1.09313e-05
1.06967e-05
1.04727e-05
1.02586e-05
1.00536e-05
9.85697e-06
9.66819e-06
9.48671e-06
9.31202e-06
9.14369e-06
8.98131e-06
8.8245e-06
8.67292e-06
8.52627e-06
8.38424e-06
8.24658e-06
8.11304e-06
7.9834e-06
2.80765e-05
2.53139e-05
2.37515e-05
2.24451e-05
2.12904e-05
2.02561e-05
1.93238e-05
1.848e-05
1.77142e-05
1.70168e-05
1.63797e-05
1.57956e-05
1.52581e-05
1.47616e-05
1.43016e-05
1.38737e-05
1.34747e-05
1.31013e-05
1.2751e-05
1.24215e-05
1.21108e-05
1.18171e-05
1.1539e-05
1.12751e-05
1.10242e-05
1.07852e-05
1.05572e-05
1.03393e-05
1.01308e-05
9.9309e-06
9.73909e-06
9.55479e-06
9.37746e-06
9.20667e-06
9.04197e-06
8.88299e-06
8.72937e-06
8.58078e-06
8.43694e-06
8.29757e-06
8.16241e-06
8.03123e-06
2.871e-05
2.59421e-05
2.42897e-05
2.29085e-05
2.16951e-05
2.06146e-05
1.96451e-05
1.87706e-05
1.79787e-05
1.72588e-05
1.66019e-05
1.60003e-05
1.54473e-05
1.49371e-05
1.44647e-05
1.40258e-05
1.36168e-05
1.32344e-05
1.2876e-05
1.25392e-05
1.22218e-05
1.19221e-05
1.16385e-05
1.13695e-05
1.11139e-05
1.08706e-05
1.06386e-05
1.0417e-05
1.02051e-05
1.0002e-05
9.8073e-06
9.62025e-06
9.44037e-06
9.26718e-06
9.10023e-06
8.93914e-06
8.78354e-06
8.63309e-06
8.48749e-06
8.34646e-06
8.20973e-06
8.07707e-06
2.9351e-05
2.65721e-05
2.4829e-05
2.33719e-05
2.20983e-05
2.09699e-05
1.99619e-05
1.90558e-05
1.82372e-05
1.74945e-05
1.68179e-05
1.6199e-05
1.56306e-05
1.51068e-05
1.46223e-05
1.41726e-05
1.37538e-05
1.33628e-05
1.29965e-05
1.26525e-05
1.23286e-05
1.2023e-05
1.1734e-05
1.146e-05
1.11999e-05
1.09524e-05
1.07166e-05
1.04914e-05
1.02762e-05
1.00701e-05
9.87254e-06
9.68284e-06
9.50049e-06
9.32498e-06
9.15587e-06
8.99275e-06
8.83524e-06
8.683e-06
8.53571e-06
8.39308e-06
8.25484e-06
8.12075e-06
7.99058e-06
2.99947e-05
2.71989e-05
2.53646e-05
2.3831e-05
2.24965e-05
2.13195e-05
2.02722e-05
1.93338e-05
1.84884e-05
1.77228e-05
1.70265e-05
1.63904e-05
1.5807e-05
1.52699e-05
1.47736e-05
1.43133e-05
1.38852e-05
1.34856e-05
1.31117e-05
1.27608e-05
1.24306e-05
1.21193e-05
1.18251e-05
1.15464e-05
1.12819e-05
1.10304e-05
1.07908e-05
1.05623e-05
1.03439e-05
1.01349e-05
9.93454e-06
9.7423e-06
9.55757e-06
9.37985e-06
9.20867e-06
9.0436e-06
8.88427e-06
8.73031e-06
8.5814e-06
8.43724e-06
8.29757e-06
8.16211e-06
8.03065e-06
7.90297e-06
3.06355e-05
2.78167e-05
2.58914e-05
2.42815e-05
2.2886e-05
2.16602e-05
2.05735e-05
1.96029e-05
1.87306e-05
1.79423e-05
1.72265e-05
1.65736e-05
1.59756e-05
1.54255e-05
1.49177e-05
1.44473e-05
1.401e-05
1.36023e-05
1.3221e-05
1.28635e-05
1.25273e-05
1.22105e-05
1.19113e-05
1.1628e-05
1.13594e-05
1.1104e-05
1.0861e-05
1.06292e-05
1.04077e-05
1.01959e-05
9.99301e-06
9.79835e-06
9.61137e-06
9.43154e-06
9.25839e-06
9.09148e-06
8.93041e-06
8.77482e-06
8.62438e-06
8.47878e-06
8.33774e-06
8.20099e-06
8.06831e-06
7.93946e-06
3.1267e-05
2.84197e-05
2.64041e-05
2.47186e-05
2.32629e-05
2.1989e-05
2.08633e-05
1.98608e-05
1.8962e-05
1.81515e-05
1.74167e-05
1.67475e-05
1.61352e-05
1.55727e-05
1.50539e-05
1.45737e-05
1.41277e-05
1.37122e-05
1.33239e-05
1.29601e-05
1.26182e-05
1.22962e-05
1.19923e-05
1.17047e-05
1.14321e-05
1.11731e-05
1.09267e-05
1.06918e-05
1.04675e-05
1.02531e-05
1.00477e-05
9.85076e-06
9.66165e-06
9.47984e-06
9.30483e-06
9.13618e-06
8.97348e-06
8.81636e-06
8.66448e-06
8.51752e-06
8.37519e-06
8.23723e-06
8.1034e-06
7.97347e-06
7.84723e-06
3.1882e-05
2.90011e-05
2.68971e-05
2.51377e-05
2.36233e-05
2.23023e-05
2.11387e-05
2.01052e-05
1.91807e-05
1.83487e-05
1.75957e-05
1.69107e-05
1.62848e-05
1.57104e-05
1.51812e-05
1.46918e-05
1.42376e-05
1.38147e-05
1.34198e-05
1.305e-05
1.27028e-05
1.23759e-05
1.20675e-05
1.17759e-05
1.14995e-05
1.12372e-05
1.09876e-05
1.07498e-05
1.05229e-05
1.0306e-05
1.00983e-05
9.89927e-06
9.70818e-06
9.52452e-06
9.34778e-06
9.17751e-06
9.0133e-06
8.85475e-06
8.70152e-06
8.5533e-06
8.40978e-06
8.27069e-06
8.1358e-06
8.00485e-06
7.87765e-06
3.24723e-05
2.95539e-05
2.73644e-05
2.55339e-05
2.3963e-05
2.2597e-05
2.13971e-05
2.03339e-05
1.93849e-05
1.85324e-05
1.7762e-05
1.70622e-05
1.64234e-05
1.58378e-05
1.52988e-05
1.48007e-05
1.43388e-05
1.39091e-05
1.35081e-05
1.31327e-05
1.27805e-05
1.24491e-05
1.21366e-05
1.18412e-05
1.15614e-05
1.12959e-05
1.10435e-05
1.08031e-05
1.05737e-05
1.03545e-05
1.01447e-05
9.94367e-06
9.75075e-06
9.56538e-06
9.38705e-06
9.21529e-06
9.04968e-06
8.88982e-06
8.73535e-06
8.58597e-06
8.44135e-06
8.30123e-06
8.16536e-06
8.03349e-06
7.90541e-06
7.78091e-06
3.30296e-05
3.00708e-05
2.78002e-05
2.59022e-05
2.42781e-05
2.28696e-05
2.16355e-05
2.05445e-05
1.95725e-05
1.87008e-05
1.79142e-05
1.72005e-05
1.65499e-05
1.5954e-05
1.54059e-05
1.48998e-05
1.44308e-05
1.39948e-05
1.35881e-05
1.32077e-05
1.28509e-05
1.25154e-05
1.21991e-05
1.19003e-05
1.16174e-05
1.13491e-05
1.1094e-05
1.08511e-05
1.06195e-05
1.03982e-05
1.01865e-05
9.98372e-06
9.78915e-06
9.60223e-06
9.42246e-06
9.24934e-06
9.08246e-06
8.92141e-06
8.76583e-06
8.61539e-06
8.46978e-06
8.32872e-06
8.19196e-06
8.05925e-06
7.93037e-06
7.80513e-06
7.68332e-06
3.35447e-05
3.05444e-05
2.81982e-05
2.62378e-05
2.45644e-05
2.31168e-05
2.18512e-05
2.07346e-05
1.97416e-05
1.88523e-05
1.80509e-05
1.73247e-05
1.66632e-05
1.60579e-05
1.55016e-05
1.49883e-05
1.45129e-05
1.40712e-05
1.36595e-05
1.32745e-05
1.29136e-05
1.25744e-05
1.22547e-05
1.19529e-05
1.16672e-05
1.13962e-05
1.11388e-05
1.08938e-05
1.06602e-05
1.0437e-05
1.02236e-05
1.00192e-05
9.82319e-06
9.63489e-06
9.45383e-06
9.27951e-06
9.1115e-06
8.94939e-06
8.79281e-06
8.64143e-06
8.49494e-06
8.35305e-06
8.2155e-06
8.08204e-06
7.95246e-06
7.82654e-06
7.70409e-06
3.40084e-05
3.09672e-05
2.85527e-05
2.65359e-05
2.48181e-05
2.33355e-05
2.20417e-05
2.09023e-05
1.98904e-05
1.89855e-05
1.81709e-05
1.74335e-05
1.67624e-05
1.61487e-05
1.55852e-05
1.50655e-05
1.45846e-05
1.41379e-05
1.37217e-05
1.33327e-05
1.29682e-05
1.26257e-05
1.23031e-05
1.19986e-05
1.17104e-05
1.14372e-05
1.11777e-05
1.09308e-05
1.06955e-05
1.04707e-05
1.02558e-05
1.005e-05
9.8527e-06
9.6632e-06
9.48101e-06
9.30565e-06
9.13665e-06
8.97362e-06
8.81617e-06
8.66398e-06
8.51672e-06
8.3741e-06
8.23586e-06
8.10176e-06
7.97156e-06
7.84506e-06
7.72206e-06
3.44116e-05
3.13322e-05
2.88579e-05
2.67921e-05
2.50358e-05
2.35227e-05
2.22046e-05
2.10453e-05
2.00172e-05
1.90988e-05
1.82729e-05
1.75259e-05
1.68465e-05
1.62258e-05
1.5656e-05
1.51309e-05
1.46451e-05
1.41942e-05
1.37742e-05
1.33818e-05
1.30143e-05
1.2669e-05
1.23439e-05
1.20371e-05
1.17469e-05
1.14718e-05
1.12105e-05
1.0962e-05
1.07252e-05
1.04991e-05
1.02829e-05
1.0076e-05
9.87753e-06
9.68701e-06
9.50388e-06
9.32763e-06
9.1578e-06
8.99399e-06
8.83581e-06
8.68293e-06
8.53502e-06
8.39179e-06
8.25298e-06
8.11832e-06
7.98761e-06
7.86061e-06
7.73715e-06
3.4746e-05
3.16329e-05
2.91089e-05
2.70022e-05
2.52141e-05
2.36758e-05
2.23376e-05
2.1162e-05
2.01206e-05
1.91911e-05
1.83559e-05
1.76009e-05
1.69148e-05
1.62882e-05
1.57134e-05
1.51839e-05
1.46942e-05
1.42398e-05
1.38167e-05
1.34216e-05
1.30515e-05
1.2704e-05
1.23769e-05
1.20682e-05
1.17763e-05
1.14997e-05
1.1237e-05
1.09872e-05
1.07492e-05
1.0522e-05
1.03048e-05
1.00969e-05
9.89755e-06
9.70622e-06
9.52231e-06
9.34534e-06
9.17485e-06
9.0104e-06
8.85164e-06
8.6982e-06
8.54976e-06
8.40604e-06
8.26676e-06
8.13166e-06
8.00053e-06
7.87314e-06
7.74929e-06
7.62881e-06
3.5004e-05
3.18637e-05
2.93012e-05
2.71631e-05
2.53503e-05
2.37927e-05
2.2439e-05
2.1251e-05
2.01993e-05
1.92612e-05
1.84189e-05
1.76579e-05
1.69667e-05
1.63356e-05
1.57569e-05
1.5224e-05
1.47313e-05
1.42743e-05
1.38488e-05
1.34516e-05
1.30797e-05
1.27305e-05
1.24018e-05
1.20917e-05
1.17985e-05
1.15207e-05
1.1257e-05
1.10062e-05
1.07673e-05
1.05392e-05
1.03213e-05
1.01126e-05
9.91266e-06
9.7207e-06
9.53622e-06
9.35871e-06
9.1877e-06
9.02279e-06
8.86357e-06
8.70971e-06
8.56088e-06
8.41678e-06
8.27715e-06
8.14172e-06
8.01027e-06
7.88258e-06
7.75845e-06
7.63769e-06
3.51796e-05
3.20202e-05
2.94314e-05
2.72719e-05
2.54424e-05
2.38716e-05
2.25074e-05
2.13109e-05
2.02523e-05
1.93085e-05
1.84613e-05
1.76963e-05
1.70015e-05
1.63675e-05
1.57862e-05
1.5251e-05
1.47563e-05
1.42974e-05
1.38704e-05
1.34718e-05
1.30986e-05
1.27482e-05
1.24185e-05
1.21075e-05
1.18134e-05
1.15349e-05
1.12704e-05
1.1019e-05
1.07794e-05
1.05508e-05
1.03323e-05
1.01232e-05
9.92278e-06
9.73041e-06
9.54553e-06
9.36766e-06
9.19631e-06
9.03107e-06
8.87156e-06
8.71742e-06
8.56832e-06
8.42397e-06
8.2841e-06
8.14845e-06
8.01678e-06
7.88889e-06
7.76457e-06
7.64363e-06
7.52591e-06
3.52684e-05
3.20993e-05
2.94971e-05
2.73267e-05
2.54888e-05
2.39114e-05
2.25419e-05
2.13411e-05
2.02789e-05
1.93322e-05
1.84826e-05
1.77155e-05
1.7019e-05
1.63835e-05
1.58008e-05
1.52645e-05
1.47688e-05
1.43091e-05
1.38813e-05
1.34819e-05
1.3108e-05
1.27571e-05
1.24269e-05
1.21154e-05
1.18209e-05
1.15419e-05
1.12772e-05
1.10254e-05
1.07855e-05
1.05566e-05
1.03379e-05
1.01285e-05
9.92785e-06
9.73527e-06
9.5502e-06
9.37214e-06
9.20062e-06
9.03523e-06
8.87556e-06
8.72128e-06
8.57205e-06
8.42757e-06
8.28758e-06
8.15182e-06
8.02005e-06
7.89205e-06
7.76764e-06
7.64661e-06
7.5288e-06
3.52684e-05
3.20993e-05
2.94971e-05
2.73267e-05
2.54888e-05
2.39114e-05
2.25419e-05
2.13411e-05
2.02789e-05
1.93322e-05
1.84826e-05
1.77155e-05
1.7019e-05
1.63835e-05
1.58008e-05
1.52645e-05
1.47688e-05
1.43091e-05
1.38813e-05
1.34819e-05
1.3108e-05
1.27571e-05
1.24269e-05
1.21154e-05
1.18209e-05
1.15419e-05
1.12772e-05
1.10254e-05
1.07855e-05
1.05566e-05
1.03379e-05
1.01285e-05
9.92785e-06
9.73527e-06
9.5502e-06
9.37214e-06
9.20062e-06
9.03523e-06
8.87556e-06
8.72128e-06
8.57205e-06
8.42757e-06
8.28758e-06
8.15182e-06
8.02005e-06
7.89205e-06
7.76764e-06
7.64661e-06
7.5288e-06
7.41405e-06
3.51796e-05
3.20202e-05
2.94314e-05
2.72719e-05
2.54424e-05
2.38716e-05
2.25074e-05
2.13109e-05
2.02523e-05
1.93085e-05
1.84613e-05
1.76963e-05
1.70015e-05
1.63675e-05
1.57862e-05
1.5251e-05
1.47563e-05
1.42974e-05
1.38704e-05
1.34718e-05
1.30986e-05
1.27482e-05
1.24185e-05
1.21075e-05
1.18134e-05
1.15349e-05
1.12704e-05
1.1019e-05
1.07794e-05
1.05508e-05
1.03323e-05
1.01232e-05
9.92278e-06
9.73041e-06
9.54553e-06
9.36766e-06
9.19631e-06
9.03107e-06
8.87156e-06
8.71742e-06
8.56832e-06
8.42397e-06
8.2841e-06
8.14845e-06
8.01678e-06
7.88889e-06
7.76457e-06
7.64363e-06
7.52591e-06
7.41124e-06
3.5004e-05
3.18637e-05
2.93012e-05
2.71631e-05
2.53503e-05
2.37927e-05
2.2439e-05
2.1251e-05
2.01993e-05
1.92612e-05
1.84189e-05
1.76579e-05
1.69667e-05
1.63356e-05
1.57569e-05
1.5224e-05
1.47313e-05
1.42743e-05
1.38488e-05
1.34516e-05
1.30797e-05
1.27305e-05
1.24018e-05
1.20917e-05
1.17985e-05
1.15207e-05
1.1257e-05
1.10062e-05
1.07673e-05
1.05392e-05
1.03213e-05
1.01126e-05
9.91266e-06
9.7207e-06
9.53622e-06
9.35871e-06
9.1877e-06
9.02279e-06
8.86357e-06
8.70971e-06
8.56088e-06
8.41678e-06
8.27715e-06
8.14172e-06
8.01027e-06
7.88257e-06
7.75845e-06
7.63769e-06
7.52014e-06
7.40564e-06
3.4746e-05
3.16329e-05
2.91089e-05
2.70023e-05
2.52141e-05
2.36758e-05
2.23376e-05
2.1162e-05
2.01206e-05
1.91911e-05
1.83559e-05
1.76009e-05
1.69148e-05
1.62882e-05
1.57134e-05
1.51839e-05
1.46942e-05
1.42398e-05
1.38167e-05
1.34216e-05
1.30515e-05
1.2704e-05
1.23769e-05
1.20682e-05
1.17763e-05
1.14997e-05
1.1237e-05
1.09872e-05
1.07492e-05
1.0522e-05
1.03048e-05
1.00969e-05
9.89755e-06
9.70621e-06
9.52231e-06
9.34534e-06
9.17484e-06
9.0104e-06
8.85164e-06
8.6982e-06
8.54976e-06
8.40604e-06
8.26676e-06
8.13166e-06
8.00053e-06
7.87314e-06
7.74929e-06
7.62881e-06
7.51152e-06
7.39726e-06
3.44116e-05
3.13322e-05
2.88579e-05
2.67921e-05
2.50358e-05
2.35227e-05
2.22046e-05
2.10453e-05
2.00172e-05
1.90988e-05
1.82729e-05
1.75259e-05
1.68465e-05
1.62258e-05
1.5656e-05
1.51309e-05
1.46451e-05
1.41942e-05
1.37742e-05
1.33818e-05
1.30143e-05
1.2669e-05
1.23439e-05
1.20371e-05
1.17468e-05
1.14718e-05
1.12105e-05
1.0962e-05
1.07252e-05
1.04991e-05
1.02829e-05
1.0076e-05
9.87753e-06
9.68701e-06
9.50388e-06
9.32763e-06
9.1578e-06
8.99399e-06
8.83581e-06
8.68293e-06
8.53502e-06
8.39179e-06
8.25297e-06
8.11832e-06
7.98761e-06
7.86061e-06
7.73714e-06
7.61702e-06
7.50007e-06
7.38614e-06
3.40084e-05
3.09672e-05
2.85527e-05
2.65359e-05
2.48181e-05
2.33355e-05
2.20417e-05
2.09023e-05
1.98904e-05
1.89855e-05
1.81709e-05
1.74335e-05
1.67624e-05
1.61487e-05
1.55852e-05
1.50655e-05
1.45846e-05
1.41379e-05
1.37217e-05
1.33327e-05
1.29682e-05
1.26257e-05
1.23031e-05
1.19986e-05
1.17104e-05
1.14372e-05
1.11777e-05
1.09308e-05
1.06955e-05
1.04707e-05
1.02558e-05
1.005e-05
9.85269e-06
9.6632e-06
9.48101e-06
9.30565e-06
9.13665e-06
8.97362e-06
8.81617e-06
8.66398e-06
8.51672e-06
8.3741e-06
8.23586e-06
8.10176e-06
7.97156e-06
7.84506e-06
7.72206e-06
7.60238e-06
7.48585e-06
7.37232e-06
3.35447e-05
3.05444e-05
2.81983e-05
2.62378e-05
2.45644e-05
2.31168e-05
2.18512e-05
2.07346e-05
1.97416e-05
1.88523e-05
1.80509e-05
1.73247e-05
1.66632e-05
1.60579e-05
1.55016e-05
1.49883e-05
1.45129e-05
1.40712e-05
1.36595e-05
1.32745e-05
1.29136e-05
1.25744e-05
1.22547e-05
1.19529e-05
1.16672e-05
1.13962e-05
1.11388e-05
1.08938e-05
1.06602e-05
1.0437e-05
1.02236e-05
1.00192e-05
9.82318e-06
9.63489e-06
9.45383e-06
9.27951e-06
9.1115e-06
8.94939e-06
8.79281e-06
8.64143e-06
8.49494e-06
8.35305e-06
8.2155e-06
8.08204e-06
7.95246e-06
7.82654e-06
7.70409e-06
7.58494e-06
7.46891e-06
7.35586e-06
3.30296e-05
3.00708e-05
2.78002e-05
2.59022e-05
2.42781e-05
2.28696e-05
2.16355e-05
2.05445e-05
1.95725e-05
1.87008e-05
1.79142e-05
1.72006e-05
1.65499e-05
1.5954e-05
1.54059e-05
1.48998e-05
1.44308e-05
1.39948e-05
1.35881e-05
1.32077e-05
1.28509e-05
1.25154e-05
1.21991e-05
1.19003e-05
1.16174e-05
1.1349e-05
1.1094e-05
1.08511e-05
1.06195e-05
1.03982e-05
1.01865e-05
9.98372e-06
9.78915e-06
9.60223e-06
9.42246e-06
9.24934e-06
9.08246e-06
8.92141e-06
8.76583e-06
8.61539e-06
8.46978e-06
8.32872e-06
8.19196e-06
8.05925e-06
7.93037e-06
7.80513e-06
7.68332e-06
7.56477e-06
7.44932e-06
7.33682e-06
3.24723e-05
2.95539e-05
2.73645e-05
2.55339e-05
2.3963e-05
2.2597e-05
2.13971e-05
2.03339e-05
1.93849e-05
1.85324e-05
1.7762e-05
1.70622e-05
1.64234e-05
1.58378e-05
1.52988e-05
1.48007e-05
1.43388e-05
1.39091e-05
1.35081e-05
1.31327e-05
1.27805e-05
1.24491e-05
1.21366e-05
1.18412e-05
1.15614e-05
1.12959e-05
1.10435e-05
1.0803e-05
1.05737e-05
1.03545e-05
1.01447e-05
9.94367e-06
9.75075e-06
9.56538e-06
9.38705e-06
9.21529e-06
9.04968e-06
8.88982e-06
8.73535e-06
8.58597e-06
8.44135e-06
8.30123e-06
8.16536e-06
8.03349e-06
7.90541e-06
7.78091e-06
7.65982e-06
7.54196e-06
7.42716e-06
7.31527e-06
3.1882e-05
2.90011e-05
2.68971e-05
2.51377e-05
2.36233e-05
2.23024e-05
2.11387e-05
2.01052e-05
1.91807e-05
1.83487e-05
1.75957e-05
1.69107e-05
1.62848e-05
1.57104e-05
1.51812e-05
1.46918e-05
1.42376e-05
1.38147e-05
1.34198e-05
1.305e-05
1.27028e-05
1.23759e-05
1.20675e-05
1.17759e-05
1.14995e-05
1.12372e-05
1.09876e-05
1.07498e-05
1.05229e-05
1.0306e-05
1.00983e-05
9.89927e-06
9.70818e-06
9.52452e-06
9.34778e-06
9.17751e-06
9.01329e-06
8.85475e-06
8.70152e-06
8.55329e-06
8.40978e-06
8.27069e-06
8.1358e-06
8.00485e-06
7.87765e-06
7.75399e-06
7.6337e-06
7.51659e-06
7.40251e-06
7.29131e-06
3.1267e-05
2.84197e-05
2.64041e-05
2.47186e-05
2.32629e-05
2.1989e-05
2.08633e-05
1.98608e-05
1.8962e-05
1.81515e-05
1.74167e-05
1.67475e-05
1.61352e-05
1.55727e-05
1.50539e-05
1.45737e-05
1.41277e-05
1.37122e-05
1.33239e-05
1.29601e-05
1.26182e-05
1.22962e-05
1.19923e-05
1.17047e-05
1.14321e-05
1.11731e-05
1.09267e-05
1.06918e-05
1.04675e-05
1.02531e-05
1.00477e-05
9.85076e-06
9.66165e-06
9.47984e-06
9.30483e-06
9.13618e-06
8.97348e-06
8.81636e-06
8.66447e-06
8.51751e-06
8.37519e-06
8.23723e-06
8.1034e-06
7.97347e-06
7.84723e-06
7.72448e-06
7.60505e-06
7.48876e-06
7.37546e-06
7.26501e-06
3.06356e-05
2.78168e-05
2.58914e-05
2.42815e-05
2.2886e-05
2.16602e-05
2.05735e-05
1.96029e-05
1.87306e-05
1.79423e-05
1.72265e-05
1.65736e-05
1.59756e-05
1.54255e-05
1.49177e-05
1.44473e-05
1.401e-05
1.36023e-05
1.3221e-05
1.28635e-05
1.25273e-05
1.22105e-05
1.19113e-05
1.1628e-05
1.13594e-05
1.1104e-05
1.0861e-05
1.06292e-05
1.04077e-05
1.01959e-05
9.99301e-06
9.79835e-06
9.61137e-06
9.43154e-06
9.25839e-06
9.09148e-06
8.93041e-06
8.77482e-06
8.62438e-06
8.47878e-06
8.33773e-06
8.20099e-06
8.06831e-06
7.93946e-06
7.81425e-06
7.69248e-06
7.57398e-06
7.45858e-06
7.34613e-06
7.23648e-06
2.99947e-05
2.71989e-05
2.53646e-05
2.3831e-05
2.24965e-05
2.13195e-05
2.02722e-05
1.93338e-05
1.84884e-05
1.77228e-05
1.70265e-05
1.63904e-05
1.5807e-05
1.52699e-05
1.47736e-05
1.43133e-05
1.38852e-05
1.34856e-05
1.31117e-05
1.27608e-05
1.24306e-05
1.21193e-05
1.18251e-05
1.15464e-05
1.12819e-05
1.10304e-05
1.07908e-05
1.05623e-05
1.03439e-05
1.01349e-05
9.93453e-06
9.74229e-06
9.55757e-06
9.37985e-06
9.20866e-06
9.0436e-06
8.88426e-06
8.7303e-06
8.5814e-06
8.43724e-06
8.29756e-06
8.16211e-06
8.03065e-06
7.90296e-06
7.77885e-06
7.65813e-06
7.54062e-06
7.42616e-06
7.31461e-06
7.20583e-06
2.9351e-05
2.65721e-05
2.4829e-05
2.33719e-05
2.20983e-05
2.09699e-05
1.99619e-05
1.90558e-05
1.82372e-05
1.74945e-05
1.68179e-05
1.6199e-05
1.56306e-05
1.51068e-05
1.46223e-05
1.41726e-05
1.37538e-05
1.33628e-05
1.29965e-05
1.26525e-05
1.23286e-05
1.2023e-05
1.1734e-05
1.146e-05
1.11999e-05
1.09524e-05
1.07166e-05
1.04914e-05
1.02762e-05
1.00701e-05
9.87254e-06
9.68284e-06
9.50049e-06
9.32498e-06
9.15587e-06
8.99275e-06
8.83524e-06
8.683e-06
8.53571e-06
8.39308e-06
8.25484e-06
8.12075e-06
7.99058e-06
7.86412e-06
7.74117e-06
7.62154e-06
7.50508e-06
7.39163e-06
7.28103e-06
7.17315e-06
2.871e-05
2.59421e-05
2.42897e-05
2.29085e-05
2.16951e-05
2.06146e-05
1.96451e-05
1.87706e-05
1.79787e-05
1.72588e-05
1.66019e-05
1.60004e-05
1.54473e-05
1.49371e-05
1.44647e-05
1.40258e-05
1.36168e-05
1.32344e-05
1.2876e-05
1.25392e-05
1.22218e-05
1.19221e-05
1.16385e-05
1.13695e-05
1.11139e-05
1.08706e-05
1.06386e-05
1.0417e-05
1.02051e-05
1.0002e-05
9.8073e-06
9.62025e-06
9.44037e-06
9.26717e-06
9.10023e-06
8.93914e-06
8.78354e-06
8.63309e-06
8.48749e-06
8.34646e-06
8.20973e-06
8.07707e-06
7.94825e-06
7.82307e-06
7.70133e-06
7.58287e-06
7.46751e-06
7.3551e-06
7.24551e-06
7.13858e-06
2.80765e-05
2.53139e-05
2.37515e-05
2.24451e-05
2.12904e-05
2.02561e-05
1.93238e-05
1.848e-05
1.77142e-05
1.70168e-05
1.63797e-05
1.57956e-05
1.52581e-05
1.47616e-05
1.43016e-05
1.38737e-05
1.34747e-05
1.31013e-05
1.2751e-05
1.24215e-05
1.21108e-05
1.18171e-05
1.1539e-05
1.12751e-05
1.10242e-05
1.07852e-05
1.05572e-05
1.03393e-05
1.01308e-05
9.93089e-06
9.73909e-06
9.55478e-06
9.37746e-06
9.20666e-06
9.04197e-06
8.88298e-06
8.72936e-06
8.58078e-06
8.43694e-06
8.29757e-06
8.16241e-06
8.03123e-06
7.90381e-06
7.77997e-06
7.6595e-06
7.54224e-06
7.42803e-06
7.31672e-06
7.20816e-06
7.10224e-06
2.74548e-05
2.46924e-05
2.32194e-05
2.19859e-05
2.08875e-05
1.98969e-05
1.89997e-05
1.81853e-05
1.74447e-05
1.67696e-05
1.61522e-05
1.55856e-05
1.50637e-05
1.45813e-05
1.41337e-05
1.37171e-05
1.33282e-05
1.29639e-05
1.26218e-05
1.22998e-05
1.19959e-05
1.17085e-05
1.14361e-05
1.11774e-05
1.09313e-05
1.06967e-05
1.04727e-05
1.02586e-05
1.00536e-05
9.85697e-06
9.66819e-06
9.48671e-06
9.31202e-06
9.14369e-06
8.98131e-06
8.8245e-06
8.67292e-06
8.52627e-06
8.38424e-06
8.24658e-06
8.11304e-06
7.9834e-06
7.85744e-06
7.73497e-06
7.61582e-06
7.49981e-06
7.38678e-06
7.2766e-06
7.16913e-06
7.06424e-06
2.68486e-05
2.40826e-05
2.26983e-05
2.1535e-05
2.04891e-05
1.95386e-05
1.86738e-05
1.78872e-05
1.71711e-05
1.65179e-05
1.59202e-05
1.53712e-05
1.48651e-05