/*--------------------------------*- C++ -*----------------------------------*\
  =========                 |
  \\      /  F ield         | OpenFOAM: The Open Source CFD Toolbox
   \\    /   O peration     | Website:  https://openfoam.org
    \\  /    A nd           | Version:  7
     \\/     M anipulation  |
\*---------------------------------------------------------------------------*/
FoamFile
{
    version     2.0;
    format      ascii;
    class       volScalarField;
    location    "52000";
    object      nut;
}
// * * * * * * * * * * * * * * * * * * * * * * * * * * * * * * * * * * * * * //

dimensions      [0 2 -1 0 0 0 0];

internalField   nonuniform List<scalar> 
1762
(
1.19407e-05
1.2084e-05
1.22194e-05
1.23467e-05
1.24655e-05
1.25752e-05
1.26754e-05
1.27657e-05
1.28456e-05
1.29148e-05
1.2973e-05
1.30199e-05
1.15935e-05
1.17348e-05
1.18683e-05
1.19939e-05
1.2111e-05
1.22192e-05
1.23182e-05
1.24073e-05
1.24863e-05
1.25547e-05
1.26121e-05
1.26584e-05
1.12482e-05
1.13873e-05
1.15188e-05
1.16425e-05
1.17579e-05
1.18647e-05
1.19622e-05
1.20502e-05
1.21281e-05
1.21956e-05
1.22524e-05
1.22981e-05
1.09048e-05
1.10417e-05
1.11711e-05
1.12929e-05
1.14065e-05
1.15117e-05
1.16078e-05
1.16945e-05
1.17713e-05
1.18379e-05
1.18939e-05
1.1939e-05
1.05636e-05
1.06982e-05
1.08254e-05
1.09451e-05
1.1057e-05
1.11604e-05
1.12551e-05
1.13405e-05
1.14162e-05
1.14817e-05
1.15369e-05
1.15814e-05
1.02247e-05
1.03568e-05
1.04818e-05
1.05995e-05
1.07094e-05
1.08112e-05
1.09043e-05
1.09883e-05
1.10628e-05
1.11273e-05
1.11817e-05
1.12254e-05
9.88825e-06
1.00179e-05
1.01406e-05
1.02561e-05
1.03641e-05
1.0464e-05
1.05556e-05
1.06382e-05
1.07114e-05
1.07749e-05
1.08283e-05
1.08714e-05
9.55446e-06
9.6816e-06
9.80188e-06
9.91517e-06
1.00211e-05
1.01192e-05
1.02091e-05
1.02902e-05
1.03622e-05
1.04246e-05
1.04771e-05
9.22348e-06
9.34801e-06
9.46584e-06
9.57686e-06
9.68072e-06
9.77696e-06
9.86511e-06
9.94471e-06
1.00153e-05
1.00766e-05
1.01281e-05
8.89547e-06
9.01732e-06
9.13264e-06
9.24133e-06
9.34305e-06
9.43735e-06
9.52374e-06
9.60178e-06
9.67103e-06
9.73111e-06
9.78169e-06
8.57058e-06
8.6897e-06
8.80245e-06
8.90876e-06
9.00829e-06
9.10059e-06
9.18518e-06
9.26162e-06
9.32946e-06
9.38833e-06
9.4379e-06
8.24896e-06
8.36529e-06
8.47542e-06
8.5793e-06
8.67659e-06
8.76685e-06
8.8496e-06
8.92438e-06
8.99078e-06
9.04841e-06
9.09694e-06
7.93076e-06
8.04424e-06
8.1517e-06
8.2531e-06
8.34811e-06
8.43629e-06
8.51715e-06
8.59025e-06
8.65517e-06
8.71152e-06
8.75898e-06
7.61611e-06
7.72671e-06
7.83145e-06
7.93033e-06
8.02302e-06
8.10907e-06
8.18801e-06
8.25938e-06
8.32278e-06
8.37783e-06
8.42421e-06
7.30517e-06
7.41283e-06
7.51482e-06
7.61113e-06
7.70146e-06
7.78534e-06
7.86232e-06
7.93194e-06
7.9938e-06
8.04751e-06
8.09277e-06
6.99806e-06
7.10274e-06
7.20194e-06
7.29566e-06
7.38358e-06
7.46526e-06
7.54025e-06
7.60808e-06
7.66836e-06
7.72072e-06
7.76484e-06
6.69493e-06
6.7966e-06
6.89296e-06
6.98405e-06
7.06954e-06
7.14899e-06
7.22194e-06
7.28796e-06
7.34664e-06
7.39761e-06
7.44058e-06
6.39591e-06
6.49452e-06
6.58803e-06
6.67645e-06
6.75947e-06
6.83666e-06
6.90756e-06
6.97173e-06
7.02878e-06
7.07835e-06
7.12014e-06
6.10113e-06
6.19666e-06
6.28728e-06
6.37301e-06
6.45354e-06
6.52843e-06
6.59724e-06
6.65955e-06
6.71494e-06
6.76309e-06
6.80368e-06
5.81072e-06
5.90315e-06
5.99085e-06
6.07386e-06
6.15187e-06
6.22445e-06
6.29115e-06
6.35156e-06
6.40528e-06
6.45198e-06
6.49135e-06
5.52483e-06
5.61412e-06
5.69888e-06
5.77915e-06
5.85462e-06
5.92485e-06
5.98942e-06
6.04791e-06
6.09994e-06
6.14517e-06
6.18331e-06
5.24357e-06
5.32971e-06
5.41151e-06
5.48903e-06
5.56193e-06
5.6298e-06
5.69221e-06
5.74876e-06
5.79907e-06
5.84282e-06
5.87972e-06
4.96708e-06
5.05006e-06
5.12888e-06
5.20362e-06
5.27394e-06
5.33942e-06
5.39966e-06
5.45426e-06
5.50284e-06
5.54509e-06
5.58073e-06
4.6955e-06
4.77529e-06
4.85114e-06
4.92308e-06
4.99079e-06
5.05388e-06
5.11193e-06
5.16455e-06
5.21139e-06
5.25213e-06
5.2865e-06
4.42897e-06
4.50556e-06
4.57841e-06
4.64754e-06
4.71265e-06
4.77332e-06
4.82916e-06
4.87979e-06
4.92487e-06
4.96409e-06
4.16762e-06
4.24101e-06
4.31085e-06
4.37717e-06
4.43964e-06
4.49789e-06
4.55151e-06
4.60015e-06
4.64345e-06
4.68113e-06
3.91159e-06
3.98178e-06
4.04861e-06
4.1121e-06
4.17194e-06
4.22775e-06
4.27914e-06
4.32576e-06
4.36729e-06
4.40343e-06
3.66104e-06
3.72802e-06
3.79183e-06
3.8525e-06
3.9097e-06
3.96306e-06
4.01221e-06
4.05681e-06
4.09655e-06
4.13113e-06
3.41611e-06
3.47989e-06
3.54069e-06
3.59852e-06
3.65307e-06
3.70398e-06
3.75089e-06
3.79347e-06
3.8314e-06
3.86443e-06
3.17697e-06
3.23755e-06
3.29534e-06
3.35034e-06
3.40224e-06
3.45069e-06
3.49535e-06
3.53589e-06
3.57203e-06
3.60349e-06
2.94378e-06
3.00117e-06
3.05596e-06
3.10812e-06
3.15738e-06
3.20337e-06
3.24578e-06
3.28429e-06
3.31861e-06
3.34851e-06
2.71673e-06
2.77093e-06
2.82272e-06
2.87207e-06
2.91867e-06
2.96221e-06
3.00236e-06
3.03883e-06
3.07135e-06
3.09968e-06
2.49599e-06
2.54704e-06
2.59584e-06
2.64236e-06
2.68632e-06
2.72741e-06
2.76531e-06
2.79975e-06
2.83046e-06
2.85722e-06
2.28178e-06
2.32968e-06
2.37551e-06
2.41922e-06
2.46055e-06
2.49919e-06
2.53484e-06
2.56725e-06
2.59615e-06
2.62134e-06
2.07432e-06
2.11909e-06
2.16196e-06
2.20288e-06
2.24158e-06
2.27778e-06
2.31119e-06
2.34157e-06
2.36867e-06
2.3923e-06
1.87385e-06
1.91551e-06
1.95544e-06
1.99358e-06
2.02967e-06
2.06344e-06
2.09462e-06
2.12297e-06
2.14828e-06
2.17035e-06
1.68063e-06
1.71921e-06
1.75623e-06
1.7916e-06
1.82509e-06
1.85644e-06
1.8854e-06
1.91175e-06
1.93527e-06
1.95578e-06
1.49496e-06
1.5305e-06
1.56462e-06
1.59725e-06
1.62816e-06
1.65711e-06
1.68386e-06
1.7082e-06
1.72994e-06
1.74891e-06
1.31719e-06
1.34971e-06
1.38096e-06
1.41087e-06
1.43922e-06
1.46578e-06
1.49034e-06
1.5127e-06
1.53267e-06
1.5501e-06
1.1477e-06
1.17724e-06
1.20565e-06
1.23286e-06
1.25867e-06
1.28287e-06
1.30525e-06
1.32563e-06
1.34385e-06
1.35976e-06
9.86949e-07
1.01353e-06
1.03913e-06
1.06368e-06
1.08697e-06
1.10882e-06
1.12905e-06
1.14748e-06
1.16396e-06
1.17835e-06
8.35472e-07
8.59141e-07
8.81963e-07
9.03863e-07
9.24666e-07
9.44197e-07
9.62288e-07
9.78782e-07
9.93539e-07
1.00643e-06
6.93917e-07
7.14708e-07
7.34783e-07
7.5407e-07
7.7241e-07
7.89644e-07
8.0562e-07
8.20198e-07
8.33247e-07
8.44654e-07
5.63069e-07
5.81021e-07
5.98383e-07
6.15088e-07
6.30993e-07
6.45956e-07
6.59841e-07
6.72523e-07
6.83884e-07
6.93822e-07
4.43876e-07
4.59035e-07
4.73723e-07
4.87881e-07
5.01384e-07
5.14105e-07
5.25926e-07
5.36734e-07
5.46428e-07
5.54914e-07
3.37464e-07
3.49886e-07
3.61954e-07
3.73612e-07
3.84754e-07
3.95271e-07
4.05061e-07
4.14025e-07
4.22076e-07
4.29132e-07
2.45086e-07
2.54863e-07
2.6439e-07
2.73621e-07
2.82467e-07
2.90837e-07
2.98646e-07
3.05811e-07
3.12256e-07
3.17914e-07
1.67975e-07
1.75257e-07
1.8238e-07
1.89307e-07
1.95968e-07
2.0229e-07
2.08204e-07
2.13645e-07
2.1855e-07
2.22864e-07
1.07006e-07
1.12041e-07
1.16988e-07
1.21819e-07
1.26483e-07
1.30927e-07
1.35098e-07
1.38947e-07
1.42427e-07
1.45495e-07
6.22068e-08
6.53615e-08
6.84754e-08
7.1531e-08
7.44939e-08
7.73286e-08
7.99996e-08
8.24728e-08
8.47156e-08
8.66985e-08
3.22865e-08
3.4028e-08
3.57547e-08
3.74568e-08
3.91145e-08
4.07069e-08
4.22131e-08
4.36126e-08
4.48858e-08
4.60145e-08
1.45626e-08
1.53829e-08
1.61991e-08
1.70066e-08
1.7796e-08
1.85569e-08
1.9279e-08
1.99519e-08
2.05657e-08
2.11112e-08
5.50201e-09
5.81866e-09
6.13441e-09
6.44759e-09
6.75444e-09
7.05091e-09
7.33285e-09
7.59614e-09
7.83676e-09
8.05094e-09
1.64327e-09
1.73763e-09
1.83176e-09
1.9252e-09
2.01683e-09
2.10543e-09
2.18976e-09
2.26857e-09
2.34065e-09
2.40485e-09
3.49458e-10
3.68928e-10
3.88321e-10
4.07553e-10
4.26395e-10
4.44601e-10
4.61917e-10
4.78091e-10
4.92876e-10
5.06039e-10
4.27628e-11
4.49755e-11
4.717e-11
4.93392e-11
5.1458e-11
5.34996e-11
5.54365e-11
5.72414e-11
5.88879e-11
6.03512e-11
1.83917e-12
1.9186e-12
1.99663e-12
2.07318e-12
2.14742e-12
2.2185e-12
2.28552e-12
2.34764e-12
2.40404e-12
2.45395e-12
8.15258e-15
8.35562e-15
8.55028e-15
8.738e-15
8.91726e-15
9.0864e-15
9.2438e-15
9.38794e-15
9.51739e-15
9.63089e-15
1.30789e-05
1.30907e-05
1.30907e-05
1.30789e-05
1.30552e-05
1.30199e-05
1.2973e-05
1.29148e-05
1.28456e-05
1.27657e-05
1.26754e-05
1.25752e-05
1.24655e-05
1.23467e-05
1.22194e-05
1.2084e-05
1.19407e-05
1.27167e-05
1.27285e-05
1.27285e-05
1.27167e-05
1.26934e-05
1.26584e-05
1.26121e-05
1.25547e-05
1.24863e-05
1.24073e-05
1.23182e-05
1.22192e-05
1.2111e-05
1.19938e-05
1.18683e-05
1.17348e-05
1.15935e-05
1.23557e-05
1.23672e-05
1.23672e-05
1.23557e-05
1.23326e-05
1.22981e-05
1.22524e-05
1.21956e-05
1.21281e-05
1.20502e-05
1.19622e-05
1.18647e-05
1.17579e-05
1.16425e-05
1.15188e-05
1.13873e-05
1.12482e-05
1.18939e-05
1.1939e-05
1.1973e-05
1.19958e-05
1.20072e-05
1.20072e-05
1.19958e-05
1.1973e-05
1.1939e-05
1.18939e-05
1.18379e-05
1.17713e-05
1.16945e-05
1.16078e-05
1.15117e-05
1.14065e-05
1.12929e-05
1.11711e-05
1.10417e-05
1.09048e-05
1.15369e-05
1.15814e-05
1.16149e-05
1.16374e-05
1.16486e-05
1.16486e-05
1.16374e-05
1.16149e-05
1.15814e-05
1.15369e-05
1.14817e-05
1.14162e-05
1.13405e-05
1.12551e-05
1.11604e-05
1.1057e-05
1.09451e-05
1.08254e-05
1.06981e-05
1.05636e-05
1.11817e-05
1.12254e-05
1.12585e-05
1.12806e-05
1.12917e-05
1.12917e-05
1.12806e-05
1.12585e-05
1.12254e-05
1.11817e-05
1.11273e-05
1.10628e-05
1.09883e-05
1.09043e-05
1.08112e-05
1.07094e-05
1.05995e-05
1.04818e-05
1.03568e-05
1.02247e-05
1.08283e-05
1.08714e-05
1.09039e-05
1.09257e-05
1.09366e-05
1.09366e-05
1.09257e-05
1.09039e-05
1.08714e-05
1.08283e-05
1.07749e-05
1.07114e-05
1.06382e-05
1.05556e-05
1.0464e-05
1.03641e-05
1.02561e-05
1.01406e-05
1.00179e-05
9.88825e-06
1.04771e-05
1.05194e-05
1.05514e-05
1.05728e-05
1.05835e-05
1.05835e-05
1.05728e-05
1.05514e-05
1.05194e-05
1.04771e-05
1.04246e-05
1.03622e-05
1.02902e-05
1.02091e-05
1.01192e-05
1.00211e-05
9.91517e-06
9.80188e-06
9.68159e-06
9.55446e-06
1.01281e-05
1.01697e-05
1.02011e-05
1.02221e-05
1.02327e-05
1.02327e-05
1.02221e-05
1.02011e-05
1.01697e-05
1.01282e-05
1.00766e-05
1.00153e-05
9.94471e-06
9.86511e-06
9.77696e-06
9.68072e-06
9.57686e-06
9.46584e-06
9.34801e-06
9.22348e-06
9.78169e-06
9.82249e-06
9.85329e-06
9.87392e-06
9.88425e-06
9.88425e-06
9.87391e-06
9.85329e-06
9.8225e-06
9.7817e-06
9.73112e-06
9.67103e-06
9.60178e-06
9.52375e-06
9.43735e-06
9.34305e-06
9.24133e-06
9.13264e-06
9.01732e-06
8.89547e-06
9.4379e-06
9.47789e-06
9.50808e-06
9.5283e-06
9.53843e-06
9.53843e-06
9.52829e-06
9.50808e-06
9.47789e-06
9.4379e-06
9.38833e-06
9.32946e-06
9.26162e-06
9.18519e-06
9.10059e-06
9.00829e-06
8.90876e-06
8.80245e-06
8.6897e-06
8.57058e-06
9.09694e-06
9.13609e-06
9.16566e-06
9.18546e-06
9.19539e-06
9.19538e-06
9.18546e-06
9.16566e-06
9.1361e-06
9.09694e-06
9.04841e-06
8.99078e-06
8.92438e-06
8.8496e-06
8.76685e-06
8.67659e-06
8.5793e-06
8.47542e-06
8.36529e-06
8.24896e-06
8.75898e-06
8.79729e-06
8.82621e-06
8.84558e-06
8.85529e-06
8.85529e-06
8.84558e-06
8.82621e-06
8.79729e-06
8.75898e-06
8.71152e-06
8.65517e-06
8.59025e-06
8.51715e-06
8.43629e-06
8.34811e-06
8.2531e-06
8.1517e-06
8.04424e-06
7.93076e-06
8.42421e-06
8.46163e-06
8.4899e-06
8.50883e-06
8.51832e-06
8.51832e-06
8.50883e-06
8.4899e-06
8.46163e-06
8.42421e-06
8.37783e-06
8.32279e-06
8.25938e-06
8.18801e-06
8.10907e-06
8.02302e-06
7.93033e-06
7.83145e-06
7.72671e-06
7.61611e-06
8.09277e-06
8.1293e-06
8.15689e-06
8.17538e-06
8.18464e-06
8.18464e-06
8.17538e-06
8.15689e-06
8.12931e-06
8.09277e-06
8.04752e-06
7.9938e-06
7.93194e-06
7.86232e-06
7.78534e-06
7.70146e-06
7.61113e-06
7.51481e-06
7.41283e-06
7.30517e-06
7.76484e-06
7.80046e-06
7.82736e-06
7.84539e-06
7.85442e-06
7.85442e-06
7.84539e-06
7.82736e-06
7.80046e-06
7.76484e-06
7.72072e-06
7.66836e-06
7.60808e-06
7.54025e-06
7.46526e-06
7.38358e-06
7.29566e-06
7.20194e-06
7.10274e-06
6.99806e-06
7.44058e-06
7.47527e-06
7.50147e-06
7.51902e-06
7.52783e-06
7.52782e-06
7.51902e-06
7.50147e-06
7.47527e-06
7.44058e-06
7.39762e-06
7.34664e-06
7.28796e-06
7.22194e-06
7.14899e-06
7.06954e-06
6.98405e-06
6.89296e-06
6.7966e-06
6.69493e-06
7.12014e-06
7.15388e-06
7.17936e-06
7.19644e-06
7.20501e-06
7.20501e-06
7.19644e-06
7.17936e-06
7.15388e-06
7.12014e-06
7.07835e-06
7.02878e-06
6.97173e-06
6.90756e-06
6.83666e-06
6.75947e-06
6.67645e-06
6.58803e-06
6.49452e-06
6.39591e-06
6.80368e-06
6.83645e-06
6.86122e-06
6.87781e-06
6.88613e-06
6.88613e-06
6.87781e-06
6.86122e-06
6.83645e-06
6.80368e-06
6.76309e-06
6.71494e-06
6.65955e-06
6.59724e-06
6.52843e-06
6.45354e-06
6.37301e-06
6.28728e-06
6.19666e-06
6.10113e-06
6.49135e-06
6.52315e-06
6.54718e-06
6.56328e-06
6.57136e-06
6.57136e-06
6.56328e-06
6.54718e-06
6.52315e-06
6.49135e-06
6.45198e-06
6.40528e-06
6.35156e-06
6.29115e-06
6.22445e-06
6.15187e-06
6.07386e-06
5.99085e-06
5.90315e-06
5.81072e-06
6.18331e-06
6.21413e-06
6.23741e-06
6.25301e-06
6.26084e-06
6.26084e-06
6.25301e-06
6.23741e-06
6.21413e-06
6.18332e-06
6.14517e-06
6.09994e-06
6.04791e-06
5.98942e-06
5.92485e-06
5.85462e-06
5.77915e-06
5.69888e-06
5.61412e-06
5.52483e-06
5.87972e-06
5.90953e-06
5.93206e-06
5.94716e-06
5.95473e-06
5.95473e-06
5.94716e-06
5.93206e-06
5.90953e-06
5.87972e-06
5.84283e-06
5.79907e-06
5.74876e-06
5.69221e-06
5.6298e-06
5.56193e-06
5.48903e-06
5.41151e-06
5.32971e-06
5.24357e-06
5.58073e-06
5.60953e-06
5.63129e-06
5.64588e-06
5.6532e-06
5.6532e-06
5.64588e-06
5.63129e-06
5.60953e-06
5.58073e-06
5.54509e-06
5.50284e-06
5.45426e-06
5.39966e-06
5.33942e-06
5.27394e-06
5.20362e-06
5.12888e-06
5.05005e-06
4.96708e-06
5.2865e-06
5.31427e-06
5.33527e-06
5.34934e-06
5.3564e-06
5.3564e-06
5.34934e-06
5.33526e-06
5.31427e-06
5.2865e-06
5.25213e-06
5.21139e-06
5.16455e-06
5.11193e-06
5.05388e-06
4.99079e-06
4.92308e-06
4.85114e-06
4.77529e-06
4.6955e-06
4.99718e-06
5.02392e-06
5.04414e-06
5.05769e-06
5.06448e-06
5.06448e-06
5.05769e-06
5.04414e-06
5.02392e-06
4.99718e-06
4.96409e-06
4.92487e-06
4.87979e-06
4.82916e-06
4.77332e-06
4.71265e-06
4.64754e-06
4.57841e-06
4.50556e-06
4.42897e-06
4.71293e-06
4.73864e-06
4.75807e-06
4.77109e-06
4.77763e-06
4.77763e-06
4.77109e-06
4.75807e-06
4.73864e-06
4.71293e-06
4.68113e-06
4.64345e-06
4.60015e-06
4.55151e-06
4.49789e-06
4.43964e-06
4.37717e-06
4.31085e-06
4.24101e-06
4.16762e-06
4.43393e-06
4.45858e-06
4.47722e-06
4.48972e-06
4.49599e-06
4.49599e-06
4.48972e-06
4.47722e-06
4.45858e-06
4.43393e-06
4.40343e-06
4.36729e-06
4.32576e-06
4.27914e-06
4.22775e-06
4.17194e-06
4.1121e-06
4.04861e-06
3.98178e-06
3.91159e-06
4.16033e-06
4.18393e-06
4.20178e-06
4.21374e-06
4.21975e-06
4.21975e-06
4.21374e-06
4.20178e-06
4.18393e-06
4.16033e-06
4.13113e-06
4.09655e-06
4.05681e-06
4.01221e-06
3.96306e-06
3.9097e-06
3.8525e-06
3.79183e-06
3.72802e-06
3.66104e-06
3.89231e-06
3.91486e-06
3.93191e-06
3.94334e-06
3.94907e-06
3.94907e-06
3.94334e-06
3.93191e-06
3.91486e-06
3.89231e-06
3.86443e-06
3.8314e-06
3.79347e-06
3.75089e-06
3.70398e-06
3.65307e-06
3.59852e-06
3.54069e-06
3.47989e-06
3.41611e-06
3.63006e-06
3.65154e-06
3.66779e-06
3.67869e-06
3.68415e-06
3.68415e-06
3.67869e-06
3.66779e-06
3.65154e-06
3.63006e-06
3.60349e-06
3.57203e-06
3.53589e-06
3.49535e-06
3.45069e-06
3.40224e-06
3.35034e-06
3.29534e-06
3.23755e-06
3.17697e-06
3.37376e-06
3.39418e-06
3.40962e-06
3.41998e-06
3.42518e-06
3.42518e-06
3.41998e-06
3.40962e-06
3.39418e-06
3.37376e-06
3.34851e-06
3.31861e-06
3.28429e-06
3.24578e-06
3.20337e-06
3.15738e-06
3.10812e-06
3.05596e-06
3.00117e-06
2.94378e-06
3.12361e-06
3.14296e-06
3.1576e-06
3.16742e-06
3.17235e-06
3.17235e-06
3.16742e-06
3.1576e-06
3.14296e-06
3.12361e-06
3.09968e-06
3.07135e-06
3.03883e-06
3.00236e-06
2.96221e-06
2.91867e-06
2.87207e-06
2.82272e-06
2.77093e-06
2.71673e-06
2.87982e-06
2.89811e-06
2.91195e-06
2.92122e-06
2.92588e-06
2.92588e-06
2.92122e-06
2.91195e-06
2.89811e-06
2.87982e-06
2.85722e-06
2.83046e-06
2.79975e-06
2.76531e-06
2.72741e-06
2.68632e-06
2.64236e-06
2.59584e-06
2.54703e-06
2.49599e-06
2.64263e-06
2.65985e-06
2.67288e-06
2.68162e-06
2.686e-06
2.686e-06
2.68162e-06
2.67288e-06
2.65985e-06
2.64263e-06
2.62134e-06
2.59615e-06
2.56725e-06
2.53484e-06
2.49919e-06
2.46055e-06
2.41922e-06
2.37551e-06
2.32968e-06
2.28178e-06
2.41226e-06
2.42842e-06
2.44065e-06
2.44885e-06
2.45297e-06
2.45297e-06
2.44885e-06
2.44065e-06
2.42842e-06
2.41227e-06
2.3923e-06
2.36867e-06
2.34157e-06
2.31119e-06
2.27778e-06
2.24158e-06
2.20288e-06
2.16196e-06
2.11909e-06
2.07432e-06
2.189e-06
2.20409e-06
2.21552e-06
2.22318e-06
2.22703e-06
2.22703e-06
2.22318e-06
2.21552e-06
2.20409e-06
2.189e-06
2.17035e-06
2.14828e-06
2.12297e-06
2.09462e-06
2.06344e-06
2.02967e-06
1.99358e-06
1.95544e-06
1.91551e-06
1.87385e-06
1.97312e-06
1.98716e-06
1.99778e-06
2.00491e-06
2.00849e-06
2.00849e-06
2.00491e-06
1.99778e-06
1.98716e-06
1.97312e-06
1.95578e-06
1.93527e-06
1.91175e-06
1.8854e-06
1.85644e-06
1.82509e-06
1.7916e-06
1.75623e-06
1.71921e-06
1.68063e-06
1.76495e-06
1.77793e-06
1.78776e-06
1.79436e-06
1.79767e-06
1.79767e-06
1.79436e-06
1.78776e-06
1.77793e-06
1.76495e-06
1.74891e-06
1.72994e-06
1.7082e-06
1.68386e-06
1.65711e-06
1.62816e-06
1.59725e-06
1.56462e-06
1.5305e-06
1.49496e-06
1.56484e-06
1.57678e-06
1.58582e-06
1.59189e-06
1.59493e-06
1.59493e-06
1.59189e-06
1.58582e-06
1.57678e-06
1.56484e-06
1.5501e-06
1.53267e-06
1.5127e-06
1.49034e-06
1.46578e-06
1.43922e-06
1.41087e-06
1.38096e-06
1.34971e-06
1.31719e-06
1.37321e-06
1.38411e-06
1.39237e-06
1.39791e-06
1.40069e-06
1.40069e-06
1.39791e-06
1.39237e-06
1.38411e-06
1.37321e-06
1.35976e-06
1.34385e-06
1.32563e-06
1.30525e-06
1.28287e-06
1.25867e-06
1.23286e-06
1.20565e-06
1.17724e-06
1.1477e-06
1.19053e-06
1.2004e-06
1.20787e-06
1.21289e-06
1.21541e-06
1.21541e-06
1.21289e-06
1.20787e-06
1.2004e-06
1.19053e-06
1.17835e-06
1.16396e-06
1.14748e-06
1.12905e-06
1.10882e-06
1.08697e-06
1.06368e-06
1.03913e-06
1.01353e-06
9.86949e-07
1.01735e-06
1.02619e-06
1.03289e-06
1.03739e-06
1.03965e-06
1.03965e-06
1.03739e-06
1.03289e-06
1.02619e-06
1.01735e-06
1.00643e-06
9.93539e-07
9.78782e-07
9.62288e-07
9.44197e-07
9.24666e-07
9.03863e-07
8.81963e-07
8.59141e-07
8.35471e-07
8.54317e-07
8.62152e-07
8.68089e-07
8.72076e-07
8.74078e-07
8.74078e-07
8.72076e-07
8.68089e-07
8.62152e-07
8.54318e-07
8.44654e-07
8.33248e-07
8.20198e-07
8.0562e-07
7.89644e-07
7.7241e-07
7.5407e-07
7.34783e-07
7.14708e-07
6.93917e-07
7.02246e-07
7.09079e-07
7.14259e-07
7.17738e-07
7.19486e-07
7.19486e-07
7.17738e-07
7.14259e-07
7.09079e-07
7.02246e-07
6.93822e-07
6.83884e-07
6.72523e-07
6.59841e-07
6.45956e-07
6.30993e-07
6.15088e-07
5.98383e-07
5.81021e-07
5.63068e-07
5.62113e-07
5.67955e-07
5.72387e-07
5.75364e-07
5.7686e-07
5.7686e-07
5.75364e-07
5.72387e-07
5.67955e-07
5.62113e-07
5.54914e-07
5.46428e-07
5.36734e-07
5.25926e-07
5.14105e-07
5.01384e-07
4.87881e-07
4.73723e-07
4.59035e-07
4.43876e-07
4.35123e-07
4.3999e-07
4.43683e-07
4.46166e-07
4.47414e-07
4.47414e-07
4.46166e-07
4.43683e-07
4.3999e-07
4.35123e-07
4.29132e-07
4.22076e-07
4.14025e-07
4.05061e-07
3.95271e-07
3.84754e-07
3.73612e-07
3.61954e-07
3.49886e-07
3.37464e-07
3.22724e-07
3.26636e-07
3.29606e-07
3.31604e-07
3.32609e-07
3.32609e-07
3.31604e-07
3.29606e-07
3.26636e-07
3.22724e-07
3.17914e-07
3.12256e-07
3.05811e-07
2.98646e-07
2.90837e-07
2.82467e-07
2.73621e-07
2.6439e-07
2.54863e-07
2.45086e-07
2.26538e-07
2.29529e-07
2.31803e-07
2.33334e-07
2.34104e-07
2.34104e-07
2.33334e-07
2.31803e-07
2.29529e-07
2.26538e-07
2.22864e-07
2.1855e-07
2.13645e-07
2.08204e-07
2.0229e-07
1.95968e-07
1.89307e-07
1.8238e-07
1.75257e-07
1.67975e-07
1.48112e-07
1.50247e-07
1.51872e-07
1.52968e-07
1.53519e-07
1.53519e-07
1.52968e-07
1.51872e-07
1.50247e-07
1.48112e-07
1.45495e-07
1.42427e-07
1.38947e-07
1.35098e-07
1.30927e-07
1.26483e-07
1.21819e-07
1.16988e-07
1.12041e-07
1.07006e-07
8.83941e-08
8.97799e-08
9.08363e-08
9.15489e-08
9.19077e-08
9.19077e-08
9.15489e-08
9.08363e-08
8.97799e-08
8.83942e-08
8.66984e-08
8.47157e-08
8.24728e-08
7.99996e-08
7.73286e-08
7.44939e-08
7.1531e-08
6.84754e-08
6.53615e-08
6.22068e-08
4.6982e-08
4.77742e-08
4.83791e-08
4.87876e-08
4.89934e-08
4.89934e-08
4.87876e-08
4.83791e-08
4.77742e-08
4.6982e-08
4.60144e-08
4.48858e-08
4.36126e-08
4.22132e-08
4.07069e-08
3.91145e-08
3.74569e-08
3.57547e-08
3.4028e-08
3.22865e-08
2.15797e-08
2.1964e-08
2.22579e-08
2.24565e-08
2.25567e-08
2.25567e-08
2.24565e-08
2.22579e-08
2.19641e-08
2.15797e-08
2.11111e-08
2.05657e-08
1.99519e-08
1.9279e-08
1.85569e-08
1.7796e-08
1.70066e-08
1.61991e-08
1.53829e-08
1.45626e-08
8.23518e-09
8.38649e-09
8.5023e-09
8.58062e-09
8.62013e-09
8.62013e-09
8.58063e-09
8.5023e-09
8.38649e-09
8.23519e-09
8.05093e-09
7.83676e-09
7.59614e-09
7.33286e-09
7.05091e-09
6.75444e-09
6.44759e-09
6.13441e-09
5.81866e-09
5.50201e-09
2.46011e-09
2.50552e-09
2.54028e-09
2.5638e-09
2.57567e-09
2.57567e-09
2.5638e-09
2.54028e-09
2.50552e-09
2.46011e-09
2.40485e-09
2.34065e-09
2.26857e-09
2.18976e-09
2.10543e-09
2.01683e-09
1.9252e-09
1.83176e-09
1.73763e-09
1.64327e-09
5.17365e-10
5.26669e-10
5.33791e-10
5.38609e-10
5.41039e-10
5.41039e-10
5.38609e-10
5.33791e-10
5.26669e-10
5.17366e-10
5.06039e-10
4.92876e-10
4.78091e-10
4.61917e-10
4.44601e-10
4.26395e-10
4.07553e-10
3.88321e-10
3.68928e-10
3.49457e-10
6.16083e-11
6.26398e-11
6.34285e-11
6.39617e-11
6.42306e-11
6.42306e-11
6.39617e-11
6.34285e-11
6.26398e-11
6.16084e-11
6.03511e-11
5.88879e-11
5.72414e-11
5.54365e-11
5.34996e-11
5.1458e-11
4.93392e-11
4.717e-11
4.49755e-11
4.27628e-11
2.49667e-12
2.53162e-12
2.55828e-12
2.57628e-12
2.58534e-12
2.58534e-12
2.57628e-12
2.55828e-12
2.53162e-12
2.49667e-12
2.45395e-12
2.40404e-12
2.34764e-12
2.28552e-12
2.2185e-12
2.14742e-12
2.07318e-12
1.99663e-12
1.9186e-12
1.83917e-12
9.72725e-15
9.80557e-15
9.86501e-15
9.90497e-15
9.92506e-15
9.92506e-15
9.90497e-15
9.86501e-15
9.80557e-15
9.72726e-15
9.63088e-15
9.5174e-15
9.38794e-15
9.2438e-15
9.0864e-15
8.91726e-15
8.738e-15
8.55028e-15
8.35562e-15
8.15257e-15
)
;

boundaryField
{
    inlet
    {
        type            cyclic;
    }
    outlet
    {
        type            cyclic;
    }
    wall
    {
        type            fixedValue;
        value           uniform 1e-30;
    }
    procBoundary3to0
    {
        type            processor;
        value           nonuniform List<scalar> 
32
(
4.40343e-06
4.13113e-06
3.86443e-06
3.60349e-06
3.34851e-06
3.09968e-06
2.85722e-06
2.62134e-06
2.3923e-06
2.17035e-06
1.95578e-06
1.74891e-06
1.5501e-06
1.35976e-06
1.17835e-06
1.00643e-06
8.44654e-07
6.93822e-07
5.54914e-07
4.29132e-07
3.17914e-07
2.22864e-07
1.45495e-07
8.66985e-08
4.60145e-08
2.11112e-08
8.05094e-09
2.40485e-09
5.06039e-10
6.03512e-11
2.45395e-12
9.63089e-15
)
;
    }
    procBoundary3to1
    {
        type            processor;
        value           nonuniform List<scalar> 
23
(
1.18379e-05
1.14817e-05
1.11273e-05
1.07749e-05
1.04246e-05
1.00766e-05
9.73111e-06
9.38833e-06
9.04841e-06
8.71152e-06
8.37783e-06
8.04751e-06
7.72072e-06
7.39762e-06
7.07835e-06
6.76309e-06
6.45198e-06
6.14517e-06
5.84282e-06
5.54509e-06
5.25213e-06
4.96409e-06
4.68113e-06
)
;
    }
    procBoundary3to2
    {
        type            processor;
        value           nonuniform List<scalar> 
60
(
1.30552e-05
1.26934e-05
1.23326e-05
1.1973e-05
1.16149e-05
1.12585e-05
1.09039e-05
1.05194e-05
1.05194e-05
1.01697e-05
9.82249e-06
9.47789e-06
9.13609e-06
8.79729e-06
8.46163e-06
8.12931e-06
7.80046e-06
7.47527e-06
7.15388e-06
6.83645e-06
6.52315e-06
6.21413e-06
5.90953e-06
5.60953e-06
5.31427e-06
4.99718e-06
4.99718e-06
4.71293e-06
4.43393e-06
4.16033e-06
3.89231e-06
3.63006e-06
3.37376e-06
3.12361e-06
2.87982e-06
2.64263e-06
2.41226e-06
2.189e-06
1.97312e-06
1.76495e-06
1.56484e-06
1.37321e-06
1.19053e-06
1.01735e-06
8.54317e-07
7.02246e-07
5.62113e-07
4.35123e-07
3.22724e-07
2.26538e-07
1.48112e-07
8.83941e-08
4.6982e-08
2.15797e-08
8.23518e-09
2.46011e-09
5.17365e-10
6.16083e-11
2.49667e-12
9.72725e-15
)
;
    }
    procBoundary3to4
    {
        type            processor;
        value           nonuniform List<scalar> 
13
(
1.34417e-05
1.34537e-05
1.34537e-05
1.34417e-05
1.34178e-05
1.33821e-05
1.33348e-05
1.30552e-05
1.26934e-05
1.22524e-05
1.22981e-05
1.23326e-05
1.23326e-05
)
;
    }
    procBoundary3to5
    {
        type            processor;
        value           nonuniform List<scalar> 
22
(
1.22894e-05
1.24346e-05
1.25719e-05
1.27009e-05
1.28212e-05
1.29323e-05
1.30337e-05
1.31251e-05
1.32059e-05
1.32759e-05
1.33347e-05
1.33821e-05
1.32759e-05
1.32059e-05
1.31251e-05
1.30337e-05
1.29323e-05
1.28212e-05
1.27009e-05
1.25719e-05
1.24346e-05
1.22894e-05
)
;
    }
}


// ************************************************************************* //
