/*--------------------------------*- C++ -*----------------------------------*\
  =========                 |
  \\      /  F ield         | OpenFOAM: The Open Source CFD Toolbox
   \\    /   O peration     | Website:  https://openfoam.org
    \\  /    A nd           | Version:  7
     \\/     M anipulation  |
\*---------------------------------------------------------------------------*/
FoamFile
{
    version     2.0;
    format      ascii;
    class       volScalarField;
    location    "52000";
    object      strainRate;
}
// * * * * * * * * * * * * * * * * * * * * * * * * * * * * * * * * * * * * * //

dimensions      [0 0 -1 0 0 0 0];

internalField   nonuniform List<scalar> 
1762
(
0.0328738
0.0323662
0.0319241
0.0315112
0.0311297
0.0307807
0.030465
0.0301834
0.0299362
0.0297238
0.0295465
0.0294045
0.0340107
0.0334871
0.0330295
0.0326024
0.0322078
0.0318469
0.0315207
0.0312296
0.0309742
0.0307548
0.0305716
0.0304248
0.035199
0.0346585
0.0341846
0.0337425
0.0333342
0.0329609
0.0326234
0.0323224
0.0320583
0.0318315
0.0316421
0.0314904
0.0364423
0.0358839
0.0353929
0.034935
0.0345122
0.0341258
0.0337765
0.033465
0.0331918
0.0329571
0.0327612
0.0326043
0.0377442
0.0371669
0.0366578
0.0361833
0.0357453
0.035345
0.0349833
0.0346608
0.0343779
0.0341349
0.0339321
0.0337697
0.0391089
0.0385116
0.0379834
0.0374913
0.0370373
0.0366224
0.0362476
0.0359135
0.0356204
0.0353687
0.0351586
0.0349904
0.0405407
0.0399222
0.039374
0.0388633
0.0383923
0.0379621
0.0375735
0.037227
0.0369231
0.0366622
0.0364444
0.0362701
0.0420444
0.0414035
0.0408341
0.0403039
0.039815
0.0393685
0.0389652
0.0386058
0.0382905
0.0380198
0.037794
0.0436254
0.0429606
0.0423688
0.041818
0.0413102
0.0408465
0.0404278
0.0400546
0.0397273
0.0394463
0.0392118
0.0452892
0.0445993
0.0439838
0.0434111
0.0428833
0.0424015
0.0419664
0.0415786
0.0412385
0.0409466
0.040703
0.0470423
0.0463256
0.045685
0.0450893
0.0445403
0.0440392
0.0435867
0.0431835
0.0428299
0.0425264
0.0422732
0.0488914
0.0481463
0.0474792
0.046859
0.0462876
0.0457661
0.0452952
0.0448756
0.0445077
0.0441919
0.0439285
0.0508441
0.0500689
0.0493736
0.0487275
0.0481323
0.0475891
0.0470987
0.0466618
0.0462787
0.0459499
0.0456755
0.0529088
0.0521016
0.0513764
0.0507027
0.0500823
0.0495161
0.049005
0.0485495
0.0481503
0.0478076
0.0475218
0.0550946
0.0542533
0.0534964
0.0527934
0.0521461
0.0515555
0.0510223
0.0505473
0.0501308
0.0497734
0.0494753
0.0574116
0.056534
0.0557434
0.0550093
0.0543334
0.0537168
0.0531601
0.0526642
0.0522294
0.0518563
0.0515451
0.0598711
0.0589548
0.0581283
0.0573611
0.0566548
0.0560104
0.0554287
0.0549105
0.0544562
0.0540664
0.0537412
0.0624856
0.061528
0.0606633
0.0598607
0.059122
0.0584479
0.0578396
0.0572976
0.0568225
0.0564148
0.0560747
0.0652688
0.0642673
0.0633617
0.0625214
0.061748
0.0610423
0.0604054
0.059838
0.0593407
0.0589139
0.0585579
0.0682364
0.0671877
0.0662385
0.065358
0.0645475
0.063808
0.0631406
0.062546
0.0620248
0.0615776
0.0612046
0.0714054
0.0703065
0.0693106
0.0683869
0.0675367
0.066761
0.0660609
0.0654372
0.0648906
0.0644215
0.0640302
0.0747954
0.0736425
0.0725967
0.0716268
0.070734
0.0699195
0.0691843
0.0685294
0.0679554
0.0674628
0.067052
0.0784281
0.0772173
0.076118
0.0750984
0.0741599
0.0733037
0.0725309
0.0718424
0.071239
0.0707212
0.0702894
0.0823279
0.081055
0.0798981
0.0788252
0.0778376
0.0769366
0.0761232
0.0753987
0.0747637
0.0742188
0.0737643
0.0865224
0.0851828
0.083964
0.0828338
0.0817933
0.0808439
0.079987
0.0792236
0.0785545
0.0779804
0.0910431
0.0896316
0.0883462
0.0871541
0.0860566
0.0850551
0.0841512
0.0833459
0.0826401
0.0820344
0.0959253
0.0944365
0.0930791
0.0918203
0.0906612
0.0896035
0.0886488
0.0877982
0.0870527
0.086413
0.10121
0.0996372
0.0982022
0.0968712
0.0956456
0.0945271
0.0935174
0.0926178
0.0918294
0.0911528
0.106942
0.105279
0.10376
0.102351
0.101054
0.0998694
0.0988001
0.0978475
0.0970126
0.096296
0.113175
0.111415
0.109805
0.108312
0.106936
0.10568
0.104546
0.103536
0.102651
0.101891
0.119969
0.118104
0.116396
0.11481
0.11335
0.112017
0.110813
0.10974
0.1088
0.107993
0.127395
0.125415
0.1236
0.121915
0.120362
0.118945
0.117665
0.116524
0.115524
0.114666
0.13553
0.133427
0.131496
0.129703
0.12805
0.126541
0.125178
0.123964
0.122899
0.121985
0.144469
0.142231
0.140174
0.138264
0.136503
0.134894
0.133441
0.132146
0.13101
0.130036
0.154315
0.151933
0.149739
0.147702
0.145822
0.144106
0.142555
0.141172
0.139959
0.138918
0.165192
0.162653
0.160312
0.158136
0.156129
0.154295
0.152637
0.151159
0.149863
0.14875
0.177238
0.174531
0.172031
0.169706
0.16756
0.165599
0.163826
0.162244
0.160857
0.159665
0.190612
0.187724
0.185054
0.182569
0.180274
0.178176
0.176278
0.174584
0.173099
0.171822
0.205489
0.202412
0.199561
0.196905
0.194451
0.192206
0.190174
0.188361
0.18677
0.185402
0.222065
0.21879
0.215749
0.212915
0.210293
0.207893
0.20572
0.203779
0.202075
0.20061
0.24054
0.237065
0.233831
0.230813
0.228019
0.225458
0.223138
0.221064
0.219243
0.217676
0.26111
0.257442
0.254019
0.250819
0.247853
0.245131
0.242663
0.240456
0.238515
0.236845
0.283931
0.28009
0.276495
0.273128
0.270001
0.267128
0.26452
0.262184
0.260128
0.258357
0.309065
0.305095
0.301365
0.297863
0.294605
0.291605
0.288876
0.286429
0.284273
0.282413
0.33639
0.332367
0.32857
0.324994
0.321657
0.318577
0.315769
0.313247
0.311019
0.309096
0.365479
0.361519
0.35776
0.354206
0.350878
0.347797
0.344979
0.342441
0.340195
0.338252
0.395458
0.391719
0.388145
0.384749
0.381555
0.378587
0.375862
0.3734
0.371215
0.36932
0.424939
0.4216
0.418383
0.415309
0.412404
0.40969
0.40719
0.404921
0.402901
0.401143
0.452131
0.449353
0.446652
0.444055
0.441587
0.439272
0.437128
0.435175
0.43343
0.431907
0.475253
0.473121
0.471025
0.468998
0.467064
0.465241
0.463546
0.461997
0.460608
0.459391
0.493138
0.491622
0.490112
0.488646
0.487244
0.485918
0.484683
0.483552
0.482535
0.481643
0.505674
0.504649
0.503608
0.502596
0.501629
0.500715
0.499865
0.499086
0.498386
0.497772
0.513757
0.513057
0.512328
0.511621
0.510948
0.510314
0.509727
0.509191
0.50871
0.50829
0.518777
0.518262
0.517708
0.517173
0.516666
0.516191
0.515754
0.515356
0.515002
0.514693
0.522037
0.521618
0.521152
0.520703
0.520278
0.519883
0.51952
0.519192
0.5189
0.518646
0.52442
0.524054
0.523633
0.523227
0.522844
0.522488
0.522162
0.521868
0.521606
0.52138
0.526351
0.526019
0.525626
0.525246
0.524888
0.524555
0.524251
0.523976
0.523733
0.523521
0.527976
0.527671
0.527297
0.526936
0.526597
0.526281
0.525993
0.525732
0.525501
0.525301
0.0292267
0.0291911
0.0291911
0.0292267
0.0292978
0.0294045
0.0295465
0.0297238
0.0299362
0.0301834
0.030465
0.0307807
0.0311297
0.0315112
0.0319241
0.0323662
0.0328738
0.0302412
0.0302044
0.0302044
0.0302412
0.0303147
0.0304248
0.0305716
0.0307547
0.0309742
0.0312296
0.0315207
0.0318469
0.0322078
0.0326024
0.0330295
0.0334871
0.0340107
0.0313006
0.0312626
0.0312626
0.0313006
0.0313765
0.0314904
0.0316421
0.0318315
0.0320583
0.0323224
0.0326234
0.0329609
0.0333342
0.0337425
0.0341846
0.0346585
0.035199
0.0327612
0.0326043
0.0324865
0.0324079
0.0323686
0.0323686
0.0324079
0.0324865
0.0326043
0.0327612
0.0329571
0.0331918
0.033465
0.0337765
0.0341258
0.0345122
0.034935
0.0353929
0.0358839
0.0364423
0.0339321
0.0337697
0.0336478
0.0335665
0.0335258
0.0335258
0.0335665
0.0336478
0.0337697
0.0339321
0.0341349
0.0343779
0.0346608
0.0349833
0.035345
0.0357453
0.0361833
0.0366578
0.0371669
0.0377442
0.0351586
0.0349904
0.0348641
0.0347799
0.0347377
0.0347377
0.0347799
0.0348641
0.0349904
0.0351586
0.0353686
0.0356204
0.0359135
0.0362476
0.0366224
0.0370373
0.0374913
0.0379834
0.0385116
0.0391089
0.0364444
0.0362701
0.0361392
0.0360519
0.0360082
0.0360082
0.0360519
0.0361392
0.0362701
0.0364444
0.0366622
0.0369231
0.037227
0.0375735
0.0379621
0.0383923
0.0388633
0.039374
0.0399222
0.0405407
0.037794
0.0376131
0.0374773
0.0373868
0.0373415
0.0373415
0.0373868
0.0374773
0.0376131
0.037794
0.0380198
0.0382905
0.0386058
0.0389652
0.0393685
0.039815
0.0403039
0.0408341
0.0414035
0.0420444
0.0392118
0.039024
0.0388831
0.0387892
0.0387422
0.0387422
0.0387892
0.0388831
0.039024
0.0392118
0.0394462
0.0397273
0.0400545
0.0404278
0.0408465
0.0413102
0.041818
0.0423688
0.0429606
0.0436254
0.040703
0.040508
0.0403616
0.040264
0.0402152
0.0402152
0.040264
0.0403616
0.040508
0.040703
0.0409466
0.0412385
0.0415786
0.0419664
0.0424015
0.0428833
0.0434111
0.0439838
0.0445993
0.0452892
0.0422732
0.0420705
0.0419183
0.0418169
0.0417661
0.0417661
0.0418169
0.0419183
0.0420705
0.0422732
0.0425264
0.0428299
0.0431835
0.0435867
0.0440392
0.0445403
0.0450893
0.045685
0.0463256
0.0470423
0.0439285
0.0437176
0.0435593
0.0434537
0.0434009
0.0434009
0.0434537
0.0435593
0.0437176
0.0439285
0.0441919
0.0445077
0.0448756
0.0452952
0.0457661
0.0462876
0.046859
0.0474792
0.0481463
0.0488914
0.0456755
0.0454559
0.0452911
0.0451812
0.0451263
0.0451263
0.0451812
0.0452911
0.0454559
0.0456755
0.0459499
0.0462787
0.0466618
0.0470987
0.0475891
0.0481323
0.0487275
0.0493736
0.0500689
0.0508441
0.0475218
0.0472929
0.0471212
0.0470067
0.0469494
0.0469494
0.0470067
0.0471212
0.0472929
0.0475218
0.0478076
0.0481503
0.0485495
0.049005
0.0495161
0.0500823
0.0507027
0.0513764
0.0521016
0.0529088
0.0494753
0.0492366
0.0490575
0.0489381
0.0488783
0.0488783
0.0489381
0.0490575
0.0492366
0.0494753
0.0497734
0.0501308
0.0505473
0.0510223
0.0515555
0.0521461
0.0527934
0.0534964
0.0542533
0.0550946
0.0515451
0.0512959
0.051109
0.0509843
0.050922
0.050922
0.0509843
0.051109
0.0512959
0.0515451
0.0518563
0.0522294
0.0526642
0.0531601
0.0537168
0.0543334
0.0550093
0.0557434
0.056534
0.0574116
0.0537412
0.0534809
0.0532856
0.0531553
0.0530902
0.0530902
0.0531553
0.0532856
0.0534809
0.0537412
0.0540664
0.0544562
0.0549105
0.0554287
0.0560104
0.0566548
0.0573611
0.0581283
0.0589548
0.0598711
0.0560747
0.0558025
0.0555982
0.055462
0.0553939
0.0553939
0.055462
0.0555982
0.0558025
0.0560747
0.0564148
0.0568225
0.0572975
0.0578396
0.0584479
0.059122
0.0598607
0.0606633
0.061528
0.0624856
0.0585579
0.058273
0.0580592
0.0579166
0.0578453
0.0578453
0.0579166
0.0580592
0.058273
0.0585579
0.0589139
0.0593407
0.059838
0.0604054
0.0610423
0.061748
0.0625214
0.0633617
0.0642673
0.0652688
0.0612046
0.060906
0.060682
0.0605327
0.060458
0.060458
0.0605327
0.060682
0.0609061
0.0612046
0.0615776
0.0620248
0.062546
0.0631406
0.063808
0.0645475
0.065358
0.0662385
0.0671877
0.0682364
0.0640302
0.0637171
0.0634821
0.0633254
0.0632471
0.0632471
0.0633254
0.0634821
0.0637171
0.0640302
0.0644215
0.0648906
0.0654372
0.0660609
0.066761
0.0675367
0.0683869
0.0693106
0.0703065
0.0714054
0.067052
0.0667232
0.0664765
0.066312
0.0662297
0.0662297
0.066312
0.0664765
0.0667232
0.067052
0.0674628
0.0679554
0.0685294
0.0691843
0.0699195
0.070734
0.0716268
0.0725967
0.0736425
0.0747954
0.0702894
0.0699438
0.0696844
0.0695115
0.0694251
0.0694251
0.0695115
0.0696844
0.0699438
0.0702894
0.0707212
0.071239
0.0718424
0.0725309
0.0733037
0.0741599
0.0750984
0.076118
0.0772173
0.0784281
0.0737643
0.0734006
0.0731277
0.0729457
0.0728548
0.0728548
0.0729457
0.0731277
0.0734006
0.0737643
0.0742188
0.0747637
0.0753987
0.0761232
0.0769365
0.0778376
0.0788252
0.0798981
0.081055
0.0823279
0.0775016
0.0771184
0.0768308
0.0766391
0.0765433
0.0765433
0.0766391
0.0768308
0.0771184
0.0775016
0.0779804
0.0785545
0.0792236
0.079987
0.0808439
0.0817933
0.0828338
0.083964
0.0851828
0.0865224
0.0815293
0.081125
0.0808217
0.0806195
0.0805184
0.0805184
0.0806195
0.0808217
0.081125
0.0815293
0.0820344
0.0826401
0.0833459
0.0841512
0.0850551
0.0860566
0.0871541
0.0883462
0.0896316
0.0910431
0.0858795
0.0854525
0.0851321
0.0849185
0.0848117
0.0848117
0.0849185
0.0851321
0.0854525
0.0858795
0.086413
0.0870527
0.0877982
0.0886488
0.0896035
0.0906612
0.0918203
0.0930791
0.0944365
0.0959253
0.0905886
0.090137
0.0897982
0.0895722
0.0894593
0.0894593
0.0895723
0.0897982
0.090137
0.0905886
0.0911528
0.0918294
0.0926178
0.0935174
0.0945271
0.0956456
0.0968712
0.0982022
0.0996372
0.10121
0.0956985
0.0952202
0.0948614
0.0946221
0.0945025
0.0945025
0.0946221
0.0948614
0.0952202
0.0956985
0.096296
0.0970126
0.0978475
0.0988001
0.0998694
0.101054
0.102351
0.10376
0.105279
0.106942
0.101257
0.10075
0.100369
0.100116
0.0999887
0.0999887
0.100116
0.100369
0.10075
0.101257
0.101891
0.102651
0.103536
0.104546
0.10568
0.106936
0.108312
0.109805
0.111415
0.113175
0.10732
0.106781
0.106377
0.106107
0.105973
0.105973
0.106107
0.106377
0.106781
0.10732
0.107993
0.1088
0.10974
0.110813
0.112017
0.11335
0.11481
0.116396
0.118104
0.119969
0.11395
0.113377
0.112947
0.112661
0.112517
0.112517
0.112661
0.112947
0.113377
0.11395
0.114666
0.115524
0.116524
0.117665
0.118945
0.120362
0.121915
0.1236
0.125415
0.127395
0.121222
0.120612
0.120154
0.119849
0.119696
0.119696
0.119849
0.120154
0.120612
0.121222
0.121985
0.122899
0.123964
0.125178
0.126541
0.12805
0.129703
0.131496
0.133427
0.13553
0.129222
0.128572
0.128083
0.127757
0.127595
0.127595
0.127757
0.128083
0.128572
0.129222
0.130036
0.13101
0.132146
0.133441
0.134894
0.136503
0.138264
0.140174
0.142231
0.144469
0.13805
0.137355
0.136833
0.136485
0.136311
0.136311
0.136485
0.136833
0.137355
0.13805
0.138918
0.139959
0.141172
0.142555
0.144106
0.145822
0.147702
0.149739
0.151933
0.154315
0.147821
0.147077
0.14652
0.146147
0.145961
0.145961
0.146147
0.14652
0.147077
0.147821
0.14875
0.149863
0.151159
0.152637
0.154295
0.156129
0.158136
0.160312
0.162653
0.165192
0.158671
0.157875
0.157278
0.156879
0.15668
0.15668
0.156879
0.157278
0.157875
0.158671
0.159665
0.160857
0.162244
0.163826
0.165599
0.16756
0.169706
0.172031
0.174531
0.177238
0.170757
0.169904
0.169264
0.168837
0.168623
0.168623
0.168837
0.169264
0.169904
0.170757
0.171822
0.173099
0.174584
0.176278
0.178176
0.180274
0.182569
0.185054
0.187724
0.190612
0.18426
0.183346
0.18266
0.182202
0.181973
0.181973
0.182202
0.18266
0.183346
0.18426
0.185402
0.18677
0.188361
0.190174
0.192206
0.194451
0.196905
0.199561
0.202412
0.205489
0.199387
0.198407
0.197671
0.19718
0.196935
0.196935
0.19718
0.197671
0.198407
0.199387
0.20061
0.202075
0.203779
0.20572
0.207893
0.210293
0.212915
0.215749
0.21879
0.222065
0.216368
0.215319
0.214531
0.214005
0.213742
0.213742
0.214005
0.214531
0.215319
0.216367
0.217676
0.219243
0.221064
0.223138
0.225458
0.228019
0.230813
0.233831
0.237065
0.24054
0.235449
0.234329
0.233488
0.232927
0.232646
0.232646
0.232927
0.233488
0.234329
0.235449
0.236845
0.238515
0.240456
0.242663
0.245131
0.247853
0.250819
0.254019
0.257442
0.26111
0.256876
0.255688
0.254794
0.254198
0.2539
0.2539
0.254198
0.254794
0.255688
0.256876
0.258357
0.260128
0.262184
0.26452
0.267128
0.270001
0.273128
0.276495
0.28009
0.283931
0.280856
0.279606
0.278665
0.278037
0.277723
0.277723
0.278037
0.278665
0.279606
0.280856
0.282413
0.284273
0.286429
0.288876
0.291605
0.294605
0.297863
0.301365
0.305095
0.309065
0.307483
0.306187
0.305211
0.304559
0.304233
0.304233
0.304559
0.305211
0.306187
0.307483
0.309096
0.311019
0.313247
0.315769
0.318577
0.321657
0.324994
0.32857
0.332367
0.33639
0.33662
0.335307
0.334317
0.333655
0.333323
0.333323
0.333655
0.334317
0.335307
0.33662
0.338252
0.340195
0.342441
0.344979
0.347797
0.350878
0.354206
0.35776
0.361519
0.365479
0.367725
0.366439
0.365469
0.36482
0.364494
0.364494
0.36482
0.365469
0.366439
0.367725
0.36932
0.371215
0.3734
0.375862
0.378587
0.381555
0.384749
0.388145
0.391719
0.395458
0.399661
0.398463
0.397558
0.396951
0.396647
0.396647
0.396951
0.397558
0.398463
0.399661
0.401143
0.402901
0.404921
0.40719
0.40969
0.412404
0.415309
0.418383
0.4216
0.424939
0.430618
0.429575
0.428785
0.428255
0.427989
0.427989
0.428255
0.428785
0.429575
0.430618
0.431907
0.43343
0.435175
0.437128
0.439272
0.441587
0.444055
0.446652
0.449353
0.452131
0.45836
0.457523
0.456888
0.456462
0.456247
0.456247
0.456462
0.456888
0.457523
0.45836
0.459391
0.460608
0.461997
0.463546
0.465241
0.467064
0.468998
0.471025
0.473121
0.475253
0.480885
0.480269
0.479802
0.479487
0.479329
0.479329
0.479487
0.479802
0.480269
0.480885
0.481643
0.482535
0.483552
0.484683
0.485918
0.487244
0.488646
0.490112
0.491622
0.493138
0.49725
0.496826
0.496504
0.496288
0.496179
0.496179
0.496288
0.496504
0.496826
0.49725
0.497772
0.498386
0.499086
0.499865
0.500715
0.501629
0.502596
0.503608
0.504649
0.505674
0.507934
0.507644
0.507425
0.507278
0.507204
0.507204
0.507278
0.507425
0.507644
0.507934
0.50829
0.50871
0.509191
0.509727
0.510314
0.510948
0.511621
0.512328
0.513057
0.513757
0.514432
0.51422
0.51406
0.513953
0.513899
0.513899
0.513953
0.51406
0.51422
0.514432
0.514693
0.515002
0.515356
0.515754
0.516191
0.516666
0.517173
0.517708
0.518262
0.518777
0.518432
0.51826
0.518129
0.518042
0.517998
0.517998
0.518042
0.518129
0.51826
0.518432
0.518646
0.5189
0.519192
0.51952
0.519883
0.520278
0.520703
0.521152
0.521618
0.522037
0.521189
0.521035
0.520919
0.520841
0.520802
0.520802
0.520841
0.520919
0.521035
0.521189
0.52138
0.521606
0.521868
0.522162
0.522488
0.522844
0.523227
0.523633
0.524054
0.52442
0.523344
0.523201
0.523092
0.52302
0.522984
0.522984
0.52302
0.523092
0.523201
0.523344
0.523521
0.523733
0.523976
0.524251
0.524555
0.524888
0.525246
0.525626
0.526019
0.526351
0.525133
0.524997
0.524895
0.524826
0.524792
0.524792
0.524827
0.524895
0.524997
0.525133
0.525301
0.525501
0.525732
0.525993
0.526281
0.526597
0.526936
0.527297
0.527671
0.527976
)
;

boundaryField
{
    inlet
    {
        type            cyclic;
    }
    outlet
    {
        type            cyclic;
    }
    wall
    {
        type            calculated;
        value           nonuniform List<scalar> 
30
(
0.52595
0.525818
0.525719
0.525652
0.525619
0.525619
0.525652
0.525719
0.525818
0.52595
0.526114
0.526309
0.526534
0.526787
0.527068
0.527375
0.527706
0.528058
0.528421
0.528713
0.528713
0.528421
0.528058
0.527706
0.527375
0.527068
0.526787
0.526534
0.526309
0.526114
)
;
    }
    procBoundary3to0
    {
        type            processor;
        value           nonuniform List<scalar> 
32
(
0.086413
0.0911528
0.096296
0.101891
0.107993
0.114666
0.121985
0.130036
0.138918
0.14875
0.159665
0.171822
0.185402
0.20061
0.217676
0.236845
0.258357
0.282413
0.309096
0.338252
0.36932
0.401143
0.431907
0.459391
0.481643
0.497772
0.50829
0.514693
0.518646
0.52138
0.523521
0.525301
)
;
    }
    procBoundary3to1
    {
        type            processor;
        value           nonuniform List<scalar> 
23
(
0.0329571
0.0341349
0.0353686
0.0366622
0.0380198
0.0394462
0.0409466
0.0425264
0.0441919
0.0459499
0.0478076
0.0497734
0.0518563
0.0540664
0.0564148
0.0589139
0.0615776
0.0644215
0.0674628
0.0707212
0.0742188
0.0779804
0.0820344
)
;
    }
    procBoundary3to2
    {
        type            processor;
        value           nonuniform List<scalar> 
60
(
0.0292978
0.0303147
0.0313765
0.0324865
0.0336478
0.0348641
0.0361392
0.0376131
0.0376131
0.039024
0.040508
0.0420705
0.0437176
0.0454559
0.0472929
0.0492366
0.0512959
0.0534809
0.0558025
0.058273
0.060906
0.0637171
0.0667232
0.0699438
0.0734006
0.0775016
0.0775016
0.0815293
0.0858795
0.0905886
0.0956985
0.101257
0.10732
0.11395
0.121222
0.129222
0.13805
0.147821
0.158671
0.170757
0.18426
0.199387
0.216368
0.235449
0.256876
0.280856
0.307483
0.33662
0.367725
0.399661
0.430618
0.45836
0.480885
0.49725
0.507934
0.514432
0.518432
0.521189
0.523344
0.525133
)
;
    }
    procBoundary3to4
    {
        type            processor;
        value           nonuniform List<scalar> 
13
(
0.0282543
0.0282198
0.0282198
0.0282543
0.0283232
0.0284266
0.0285641
0.0292978
0.0303147
0.0316421
0.0314904
0.0313765
0.0313765
)
;
    }
    procBoundary3to5
    {
        type            processor;
        value           nonuniform List<scalar> 
22
(
0.0317853
0.0312928
0.0308653
0.030466
0.0300969
0.0297591
0.0294536
0.0291809
0.0289416
0.0287359
0.0285642
0.0284266
0.0287359
0.0289416
0.0291809
0.0294536
0.0297591
0.0300969
0.030466
0.0308653
0.0312928
0.0317853
)
;
    }
}


// ************************************************************************* //
