/*--------------------------------*- C++ -*----------------------------------*\
  =========                 |
  \\      /  F ield         | OpenFOAM: The Open Source CFD Toolbox
   \\    /   O peration     | Website:  https://openfoam.org
    \\  /    A nd           | Version:  7
     \\/     M anipulation  |
\*---------------------------------------------------------------------------*/
FoamFile
{
    version     2.0;
    format      ascii;
    class       volVectorField;
    location    "32000";
    object      U;
}
// * * * * * * * * * * * * * * * * * * * * * * * * * * * * * * * * * * * * * //

dimensions      [0 1 -1 0 0 0 0];

internalField   nonuniform List<vector> 
4838
(
(-7.46633e-20 -3.89847e-19 -0.00612512)
(-2.02739e-20 -3.00084e-19 -0.00612516)
(-2.86843e-20 -3.49837e-19 -0.0061252)
(-1.12283e-20 -2.91821e-19 -0.00612525)
(4.9334e-20 -2.63084e-19 -0.0061253)
(3.69466e-22 -2.45088e-19 -0.00612535)
(-1.09277e-19 -3.39267e-19 -0.0061254)
(-1.44926e-19 -3.54018e-19 -0.00612545)
(-1.35632e-19 -3.258e-19 -0.0061255)
(-1.53088e-19 -2.6307e-19 -0.00612555)
(-1.40986e-19 -2.15326e-19 -0.00612559)
(-1.2244e-19 -2.31887e-19 -0.00612564)
(-1.54582e-19 -2.6112e-19 -0.00612568)
(-1.54793e-19 -3.22678e-19 -0.00612572)
(3.68034e-20 -3.25388e-19 -0.00612575)
(1.01202e-19 -4.19259e-19 -0.00612579)
(-1.05395e-19 -5.84524e-19 -0.00612582)
(-1.54518e-19 -7.43942e-19 -0.00612585)
(-1.30466e-19 -8.20463e-19 -0.00612587)
(-5.93902e-20 -8.06328e-19 -0.00612589)
(-8.45197e-20 -6.91408e-19 -0.00612591)
(-1.55059e-19 -6.60335e-19 -0.00612593)
(-1.56932e-19 -6.6492e-19 -0.00612594)
(-3.24811e-19 -7.01451e-19 -0.00612595)
(-5.25516e-19 -7.38524e-19 -0.00612595)
(-5.57443e-19 -7.94448e-19 -0.00612596)
(-5.28497e-19 -8.17544e-19 -0.00612596)
(-6.58282e-19 -7.20085e-19 -0.00612595)
(-8.11437e-19 -6.41868e-19 -0.00612594)
(-8.59962e-19 -5.95372e-19 -0.00612593)
(-7.6733e-19 -5.38676e-19 -0.00612592)
(-8.01322e-19 -4.3688e-19 -0.0061259)
(-7.93403e-19 -4.04602e-19 -0.00612588)
(-7.62344e-19 -2.82508e-19 -0.00612585)
(-8.44087e-19 -3.35958e-19 -0.00612583)
(-7.37531e-19 -3.46661e-19 -0.0061258)
(-7.34813e-19 -2.95445e-19 -0.00612577)
(-7.06558e-19 -3.10353e-19 -0.00612573)
(-5.44896e-19 -3.76757e-19 -0.0061257)
(-4.4753e-19 -4.02254e-19 -0.00612566)
(-3.98837e-19 -4.27363e-19 -0.00612562)
(-4.57373e-19 -3.36913e-19 -0.00612557)
(-3.67653e-19 -2.39832e-19 -0.00612553)
(-2.27754e-19 -2.86594e-19 -0.00612548)
(-2.5728e-19 -3.33829e-19 -0.00612544)
(-2.693e-19 -3.24013e-19 -0.00612539)
(-1.4333e-19 -3.48103e-19 -0.00612535)
(-1.41257e-20 -4.16791e-19 -0.0061253)
(8.94802e-20 -4.92046e-19 -0.00612526)
(1.81809e-19 -5.44783e-19 -0.00612523)
(-1.42288e-19 -3.78193e-19 -0.00612506)
(-8.54765e-20 -3.87133e-19 -0.0061251)
(-3.93119e-20 -3.72113e-19 -0.00612515)
(4.90087e-20 -2.68669e-19 -0.00612521)
(1.09592e-19 -2.84233e-19 -0.00612526)
(3.49136e-20 -3.6618e-19 -0.00612532)
(-1.18076e-19 -4.51778e-19 -0.00612538)
(-1.41664e-19 -3.94887e-19 -0.00612544)
(-1.2979e-19 -3.89479e-19 -0.0061255)
(-1.28753e-19 -3.86885e-19 -0.00612555)
(-1.15742e-19 -3.48173e-19 -0.00612561)
(-7.69917e-20 -2.05535e-19 -0.00612566)
(-1.55787e-19 -2.4339e-19 -0.00612571)
(-2.47717e-19 -3.18168e-19 -0.00612575)
(-2.12294e-19 -3.85011e-19 -0.0061258)
(-1.53498e-19 -5.78344e-19 -0.00612584)
(-2.54313e-19 -6.18877e-19 -0.00612588)
(-3.03091e-19 -6.08847e-19 -0.00612591)
(-1.29956e-19 -5.90247e-19 -0.00612594)
(1.09464e-19 -4.74928e-19 -0.00612597)
(9.83626e-20 -4.85401e-19 -0.00612599)
(-1.14638e-19 -4.83262e-19 -0.00612601)
(-2.64193e-19 -6.1617e-19 -0.00612602)
(-4.1477e-19 -6.31812e-19 -0.00612603)
(-5.66792e-19 -6.58091e-19 -0.00612604)
(-6.60014e-19 -6.30967e-19 -0.00612604)
(-5.51123e-19 -6.70854e-19 -0.00612604)
(-5.24174e-19 -6.45707e-19 -0.00612603)
(-6.95625e-19 -6.03252e-19 -0.00612602)
(-7.46648e-19 -5.51216e-19 -0.00612601)
(-7.2243e-19 -5.02376e-19 -0.00612599)
(-8.45668e-19 -5.23135e-19 -0.00612597)
(-8.64663e-19 -4.93624e-19 -0.00612594)
(-8.59951e-19 -5.28917e-19 -0.00612592)
(-8.60458e-19 -4.93676e-19 -0.00612588)
(-7.50216e-19 -4.67233e-19 -0.00612585)
(-7.59446e-19 -5.01423e-19 -0.00612581)
(-6.41279e-19 -4.57621e-19 -0.00612576)
(-4.49813e-19 -4.83291e-19 -0.00612572)
(-4.26777e-19 -4.43867e-19 -0.00612567)
(-3.90675e-19 -4.36378e-19 -0.00612562)
(-2.59722e-19 -4.47298e-19 -0.00612557)
(-2.22341e-19 -3.08946e-19 -0.00612552)
(-2.94386e-19 -2.43841e-19 -0.00612546)
(-3.21913e-19 -2.62805e-19 -0.00612541)
(-2.51021e-19 -2.74999e-19 -0.00612536)
(-9.71727e-20 -3.2116e-19 -0.00612531)
(5.01957e-20 -4.18471e-19 -0.00612526)
(1.44407e-19 -4.59384e-19 -0.00612521)
(1.66393e-19 -5.22166e-19 -0.00612517)
(-2.50431e-19 -2.90703e-19 -0.006125)
(-1.11398e-19 -2.7872e-19 -0.00612505)
(-2.9086e-20 -2.17946e-19 -0.0061251)
(-2.92075e-20 -2.51459e-19 -0.00612516)
(-2.11196e-20 -3.27609e-19 -0.00612522)
(2.07194e-21 -4.32375e-19 -0.00612529)
(-1.70879e-20 -4.47459e-19 -0.00612535)
(-7.78276e-20 -4.7645e-19 -0.00612542)
(-1.4725e-19 -5.37166e-19 -0.00612548)
(-1.26623e-19 -5.29749e-19 -0.00612555)
(2.88538e-20 -3.99097e-19 -0.00612561)
(7.08255e-21 -3.54109e-19 -0.00612567)
(-2.23478e-19 -4.37826e-19 -0.00612573)
(-3.27903e-19 -4.22459e-19 -0.00612578)
(-3.60503e-19 -4.42414e-19 -0.00612583)
(-2.2968e-19 -4.2763e-19 -0.00612588)
(-1.52409e-19 -3.96599e-19 -0.00612592)
(-2.02536e-19 -3.23039e-19 -0.00612596)
(-9.02333e-20 -2.678e-19 -0.006126)
(1.31542e-20 -2.5699e-19 -0.00612603)
(-6.42405e-20 -3.57584e-19 -0.00612606)
(-2.78881e-19 -4.62254e-19 -0.00612608)
(-3.36144e-19 -5.43386e-19 -0.00612609)
(-3.90121e-19 -6.03428e-19 -0.00612611)
(-5.54226e-19 -5.80423e-19 -0.00612611)
(-6.07867e-19 -5.94305e-19 -0.00612612)
(-5.73411e-19 -6.36952e-19 -0.00612611)
(-6.10324e-19 -6.90596e-19 -0.00612611)
(-7.36876e-19 -6.78434e-19 -0.00612609)
(-7.60171e-19 -6.25387e-19 -0.00612608)
(-7.88738e-19 -5.97788e-19 -0.00612606)
(-8.58036e-19 -6.49181e-19 -0.00612603)
(-8.45982e-19 -6.13498e-19 -0.006126)
(-8.04196e-19 -5.62428e-19 -0.00612596)
(-7.6034e-19 -4.71102e-19 -0.00612593)
(-7.46907e-19 -4.34107e-19 -0.00612588)
(-7.11576e-19 -4.4566e-19 -0.00612584)
(-5.65337e-19 -4.4341e-19 -0.00612579)
(-4.39414e-19 -4.42758e-19 -0.00612573)
(-3.71372e-19 -4.52952e-19 -0.00612568)
(-3.04056e-19 -3.18352e-19 -0.00612562)
(-2.2112e-19 -3.33397e-19 -0.00612556)
(-1.86399e-19 -4.28318e-19 -0.0061255)
(-2.55834e-19 -3.67167e-19 -0.00612544)
(-2.68385e-19 -2.76145e-19 -0.00612538)
(-1.67343e-19 -2.36555e-19 -0.00612532)
(-4.44415e-20 -2.75036e-19 -0.00612526)
(6.76345e-20 -3.80792e-19 -0.00612521)
(1.20241e-19 -4.22094e-19 -0.00612516)
(1.2683e-19 -4.55567e-19 -0.00612512)
(-2.90114e-19 -1.66583e-19 -0.00612494)
(-2.24014e-19 -1.86578e-19 -0.00612499)
(-1.07652e-19 -1.18971e-19 -0.00612505)
(-8.2598e-20 -1.22936e-19 -0.00612511)
(-1.08143e-19 -1.52445e-19 -0.00612518)
(-1.03887e-19 -2.5249e-19 -0.00612525)
(-1.21885e-19 -3.82698e-19 -0.00612532)
(-1.57828e-19 -5.28028e-19 -0.00612539)
(-1.5295e-19 -6.63908e-19 -0.00612547)
(-7.24915e-20 -5.67713e-19 -0.00612554)
(4.96635e-21 -4.65619e-19 -0.00612561)
(-2.53841e-21 -5.35155e-19 -0.00612567)
(-9.59828e-20 -5.758e-19 -0.00612574)
(-2.27178e-19 -5.27554e-19 -0.0061258)
(-2.87872e-19 -5.02913e-19 -0.00612586)
(-2.15844e-19 -3.02241e-19 -0.00612591)
(-1.76268e-19 -3.50793e-19 -0.00612596)
(-1.95965e-19 -3.12748e-19 -0.006126)
(-1.30228e-19 -2.83e-19 -0.00612604)
(-3.65612e-20 -2.97304e-19 -0.00612608)
(-1.41614e-19 -3.66964e-19 -0.00612611)
(-3.34261e-19 -4.76707e-19 -0.00612613)
(-4.49684e-19 -5.24628e-19 -0.00612615)
(-4.68239e-19 -5.85264e-19 -0.00612617)
(-5.69166e-19 -5.66657e-19 -0.00612617)
(-7.50722e-19 -6.344e-19 -0.00612618)
(-6.98786e-19 -7.3969e-19 -0.00612617)
(-6.25309e-19 -7.79779e-19 -0.00612616)
(-6.64195e-19 -7.46645e-19 -0.00612615)
(-6.9e-19 -7.038e-19 -0.00612613)
(-8.11338e-19 -7.00957e-19 -0.00612611)
(-9.1016e-19 -6.43607e-19 -0.00612608)
(-7.76817e-19 -6.00707e-19 -0.00612604)
(-6.90307e-19 -5.11024e-19 -0.006126)
(-7.11027e-19 -4.60944e-19 -0.00612596)
(-7.21938e-19 -3.87205e-19 -0.00612591)
(-7.11157e-19 -3.64698e-19 -0.00612586)
(-5.22912e-19 -3.3696e-19 -0.0061258)
(-3.66126e-19 -3.46554e-19 -0.00612574)
(-2.18751e-19 -3.62299e-19 -0.00612568)
(-1.68625e-19 -3.17362e-19 -0.00612561)
(-2.83618e-19 -1.841e-19 -0.00612555)
(-2.76731e-19 -3.36366e-19 -0.00612548)
(-2.00914e-19 -4.3265e-19 -0.00612541)
(-1.38113e-19 -3.91201e-19 -0.00612534)
(-9.11162e-20 -3.30518e-19 -0.00612528)
(-4.33805e-20 -2.9904e-19 -0.00612522)
(5.68753e-20 -4.62348e-19 -0.00612516)
(1.52592e-19 -5.00827e-19 -0.00612511)
(1.71949e-19 -5.00528e-19 -0.00612506)
(-3.16284e-19 -1.59518e-19 -0.00612487)
(-2.4618e-19 -1.35098e-19 -0.00612493)
(-1.27453e-19 -3.96798e-20 -0.00612499)
(-1.03787e-19 -8.02544e-20 -0.00612505)
(-1.6977e-19 -1.04287e-19 -0.00612513)
(-2.44083e-19 -2.05313e-19 -0.0061252)
(-2.77731e-19 -3.07077e-19 -0.00612528)
(-3.59328e-19 -4.12304e-19 -0.00612536)
(-2.54954e-19 -4.31208e-19 -0.00612544)
(-2.05383e-20 -4.12954e-19 -0.00612552)
(1.70769e-20 -4.06446e-19 -0.00612559)
(-7.17093e-20 -4.96902e-19 -0.00612567)
(-1.26596e-19 -6.23919e-19 -0.00612574)
(-1.77555e-19 -6.89817e-19 -0.00612581)
(-1.24514e-19 -6.32808e-19 -0.00612587)
(-1.22389e-19 -4.52922e-19 -0.00612593)
(-1.9913e-19 -4.46863e-19 -0.00612598)
(-1.63792e-19 -4.01394e-19 -0.00612603)
(-1.32294e-19 -3.56974e-19 -0.00612608)
(-1.0174e-19 -4.34221e-19 -0.00612611)
(-2.44476e-19 -5.41113e-19 -0.00612615)
(-4.41165e-19 -6.37921e-19 -0.00612617)
(-4.65595e-19 -7.86221e-19 -0.00612619)
(-4.54193e-19 -7.02031e-19 -0.00612621)
(-6.31912e-19 -6.76991e-19 -0.00612622)
(-8.34063e-19 -6.49839e-19 -0.00612622)
(-7.60067e-19 -6.23912e-19 -0.00612622)
(-6.39216e-19 -6.60843e-19 -0.00612621)
(-6.73811e-19 -6.46093e-19 -0.00612619)
(-7.53725e-19 -5.8678e-19 -0.00612617)
(-7.96107e-19 -6.57671e-19 -0.00612614)
(-7.63096e-19 -5.78277e-19 -0.00612611)
(-6.621e-19 -4.93012e-19 -0.00612607)
(-6.42275e-19 -4.13761e-19 -0.00612602)
(-6.43076e-19 -3.70248e-19 -0.00612598)
(-6.51266e-19 -2.87124e-19 -0.00612592)
(-5.8244e-19 -2.27026e-19 -0.00612586)
(-3.93505e-19 -1.69934e-19 -0.0061258)
(-3.07521e-19 -2.1719e-19 -0.00612574)
(-2.15794e-19 -2.09372e-19 -0.00612567)
(-1.5072e-19 -3.82934e-19 -0.0061256)
(-2.84538e-19 -3.08635e-19 -0.00612552)
(-3.61379e-19 -2.51698e-19 -0.00612545)
(-2.02238e-19 -2.96099e-19 -0.00612537)
(-7.85521e-20 -2.95938e-19 -0.0061253)
(-1.2898e-20 -3.83735e-19 -0.00612523)
(-4.04982e-20 -3.06598e-19 -0.00612516)
(6.47321e-20 -3.3228e-19 -0.0061251)
(2.01949e-19 -4.5132e-19 -0.00612505)
(2.03884e-19 -5.32858e-19 -0.006125)
(-3.60039e-19 -1.82565e-19 -0.0061248)
(-2.96024e-19 -1.35081e-19 -0.00612485)
(-1.87622e-19 -1.32539e-19 -0.00612492)
(-1.27519e-19 -1.73722e-19 -0.00612499)
(-1.43725e-19 -2.07014e-19 -0.00612507)
(-2.43023e-19 -2.5078e-19 -0.00612515)
(-2.90319e-19 -2.47215e-19 -0.00612523)
(-3.41986e-19 -2.45919e-19 -0.00612532)
(-3.9527e-19 -2.0138e-19 -0.0061254)
(-2.26206e-19 -2.55762e-19 -0.00612549)
(-8.31445e-20 -2.91773e-19 -0.00612557)
(-1.85404e-19 -4.22532e-19 -0.00612565)
(-2.72368e-19 -5.67893e-19 -0.00612573)
(-2.47037e-19 -5.70527e-19 -0.0061258)
(-7.36401e-20 -4.20351e-19 -0.00612587)
(-1.01223e-20 -3.97762e-19 -0.00612593)
(-1.27192e-19 -4.37213e-19 -0.00612599)
(-1.3092e-19 -4.94049e-19 -0.00612605)
(-1.88682e-19 -5.56678e-19 -0.00612609)
(-2.27168e-19 -6.54329e-19 -0.00612613)
(-3.27483e-19 -6.94004e-19 -0.00612617)
(-5.90743e-19 -7.27536e-19 -0.0061262)
(-5.28277e-19 -7.02535e-19 -0.00612622)
(-3.55741e-19 -6.32267e-19 -0.00612624)
(-5.29355e-19 -6.80491e-19 -0.00612625)
(-7.13056e-19 -6.12221e-19 -0.00612625)
(-7.19999e-19 -5.23407e-19 -0.00612625)
(-6.62154e-19 -5.4581e-19 -0.00612623)
(-6.13217e-19 -5.56389e-19 -0.00612622)
(-7.40895e-19 -5.19152e-19 -0.00612619)
(-8.17035e-19 -4.29645e-19 -0.00612616)
(-7.09402e-19 -3.97494e-19 -0.00612613)
(-5.82568e-19 -4.15222e-19 -0.00612608)
(-5.67249e-19 -4.14383e-19 -0.00612603)
(-5.86109e-19 -3.19842e-19 -0.00612598)
(-5.55578e-19 -2.67621e-19 -0.00612592)
(-4.89558e-19 -2.28848e-19 -0.00612586)
(-3.90839e-19 -1.62381e-19 -0.00612579)
(-3.17376e-19 -2.67126e-19 -0.00612572)
(-3.0591e-19 -3.66117e-19 -0.00612564)
(-3.13422e-19 -4.51568e-19 -0.00612557)
(-3.03274e-19 -5.39707e-19 -0.00612549)
(-2.32841e-19 -4.4592e-19 -0.00612541)
(-7.48566e-20 -4.17647e-19 -0.00612533)
(-8.27867e-20 -3.82711e-19 -0.00612525)
(-5.67925e-20 -3.54853e-19 -0.00612518)
(7.19043e-20 -3.66907e-19 -0.0061251)
(1.61102e-19 -2.6433e-19 -0.00612504)
(1.43596e-19 -3.52209e-19 -0.00612498)
(1.34739e-19 -4.93145e-19 -0.00612493)
(-4.12605e-19 -1.62593e-19 -0.00612471)
(-3.62803e-19 -1.35889e-19 -0.00612477)
(-2.84613e-19 -1.51954e-19 -0.00612484)
(-1.98634e-19 -2.00779e-19 -0.00612492)
(-1.61665e-19 -2.57565e-19 -0.006125)
(-2.03786e-19 -2.56292e-19 -0.00612509)
(-2.54973e-19 -2.09149e-19 -0.00612518)
(-3.02359e-19 -2.60017e-19 -0.00612527)
(-3.60291e-19 -2.81697e-19 -0.00612536)
(-3.04716e-19 -2.07516e-19 -0.00612545)
(-2.10959e-19 -1.93536e-19 -0.00612553)
(-3.04071e-19 -3.00132e-19 -0.00612562)
(-2.85601e-19 -4.58807e-19 -0.0061257)
(-1.47585e-19 -2.86222e-19 -0.00612578)
(-7.75777e-20 -1.16321e-19 -0.00612585)
(-1.55572e-19 -2.06547e-19 -0.00612592)
(-2.80636e-19 -3.55287e-19 -0.00612599)
(-2.84034e-19 -4.9621e-19 -0.00612604)
(-2.84557e-19 -6.45727e-19 -0.0061261)
(-2.30066e-19 -7.5949e-19 -0.00612614)
(-2.86805e-19 -8.25564e-19 -0.00612618)
(-4.44352e-19 -6.94858e-19 -0.00612621)
(-4.0067e-19 -4.98878e-19 -0.00612623)
(-4.44945e-19 -5.00182e-19 -0.00612625)
(-6.11248e-19 -5.73277e-19 -0.00612626)
(-6.77136e-19 -5.41649e-19 -0.00612626)
(-7.01305e-19 -5.01924e-19 -0.00612626)
(-6.81419e-19 -4.77741e-19 -0.00612625)
(-6.72108e-19 -4.85017e-19 -0.00612623)
(-6.65422e-19 -4.70124e-19 -0.0061262)
(-6.67469e-19 -3.07753e-19 -0.00612617)
(-7.04964e-19 -2.92921e-19 -0.00612613)
(-6.56488e-19 -3.64684e-19 -0.00612608)
(-5.56659e-19 -4.32632e-19 -0.00612603)
(-4.96084e-19 -3.54773e-19 -0.00612597)
(-5.36453e-19 -2.92653e-19 -0.00612591)
(-4.35352e-19 -3.56166e-19 -0.00612584)
(-3.87265e-19 -3.8333e-19 -0.00612577)
(-4.92195e-19 -4.17863e-19 -0.00612569)
(-4.24789e-19 -5.2306e-19 -0.00612561)
(-3.43938e-19 -5.89319e-19 -0.00612553)
(-2.72849e-19 -5.75752e-19 -0.00612544)
(-1.66296e-19 -5.92992e-19 -0.00612536)
(-8.81257e-20 -5.2089e-19 -0.00612528)
(-6.47989e-20 -6.88052e-19 -0.00612519)
(8.26995e-20 -5.48285e-19 -0.00612511)
(1.76083e-19 -4.4195e-19 -0.00612503)
(1.45411e-19 -3.63113e-19 -0.00612496)
(5.68993e-20 -3.16062e-19 -0.0061249)
(1.14721e-19 -4.84167e-19 -0.00612484)
(-5.02411e-19 -1.91624e-19 -0.00612461)
(-4.15676e-19 -1.44231e-19 -0.00612468)
(-3.74503e-19 -1.69359e-19 -0.00612475)
(-3.11835e-19 -2.1235e-19 -0.00612484)
(-2.0741e-19 -2.21516e-19 -0.00612492)
(-1.74717e-19 -2.10033e-19 -0.00612501)
(-2.78919e-19 -1.2866e-19 -0.00612511)
(-3.79684e-19 -1.83931e-19 -0.0061252)
(-3.71556e-19 -1.97851e-19 -0.0061253)
(-2.60155e-19 -1.30803e-19 -0.00612539)
(-2.09128e-19 -2.01747e-19 -0.00612549)
(-4.29358e-19 -3.31026e-19 -0.00612558)
(-3.6463e-19 -2.44547e-19 -0.00612567)
(-4.4316e-20 -1.18485e-19 -0.00612575)
(-3.31875e-20 -1.30304e-19 -0.00612583)
(-2.22903e-19 -2.24598e-19 -0.0061259)
(-4.10503e-19 -3.01664e-19 -0.00612597)
(-4.47226e-19 -3.72149e-19 -0.00612603)
(-4.82498e-19 -4.60213e-19 -0.00612608)
(-4.28758e-19 -4.90145e-19 -0.00612613)
(-2.45809e-19 -6.62178e-19 -0.00612617)
(-2.52654e-19 -5.69596e-19 -0.0061262)
(-3.42208e-19 -5.34627e-19 -0.00612623)
(-4.42658e-19 -5.48502e-19 -0.00612625)
(-5.87135e-19 -5.54075e-19 -0.00612626)
(-6.59684e-19 -5.83897e-19 -0.00612626)
(-6.71606e-19 -4.92441e-19 -0.00612626)
(-6.59824e-19 -4.08767e-19 -0.00612624)
(-6.20126e-19 -3.57655e-19 -0.00612622)
(-5.68115e-19 -2.88021e-19 -0.00612619)
(-6.4795e-19 -2.25679e-19 -0.00612616)
(-7.82186e-19 -4.18757e-19 -0.00612612)
(-7.08645e-19 -4.43306e-19 -0.00612607)
(-5.2766e-19 -4.18188e-19 -0.00612601)
(-4.56765e-19 -4.29539e-19 -0.00612595)
(-5.52705e-19 -4.26892e-19 -0.00612588)
(-5.47605e-19 -4.3058e-19 -0.00612581)
(-5.1758e-19 -5.44945e-19 -0.00612573)
(-4.9722e-19 -5.26973e-19 -0.00612565)
(-4.29123e-19 -5.54668e-19 -0.00612557)
(-3.23585e-19 -6.71385e-19 -0.00612548)
(-2.34632e-19 -6.47935e-19 -0.00612539)
(-9.96552e-20 -5.46628e-19 -0.0061253)
(-1.07966e-19 -5.03245e-19 -0.00612521)
(-4.60812e-20 -6.6481e-19 -0.00612512)
(2.25666e-19 -7.55634e-19 -0.00612504)
(2.22066e-19 -6.38149e-19 -0.00612496)
(1.43472e-19 -5.53065e-19 -0.00612488)
(2.95256e-20 -4.52801e-19 -0.00612481)
(1.82073e-20 -3.85649e-19 -0.00612475)
(-4.71622e-19 -2.27398e-19 -0.0061245)
(-4.63751e-19 -2.29517e-19 -0.00612457)
(-4.22798e-19 -2.62041e-19 -0.00612465)
(-3.69205e-19 -2.26239e-19 -0.00612474)
(-2.80429e-19 -1.88385e-19 -0.00612483)
(-1.40174e-19 -1.28776e-19 -0.00612493)
(-1.81746e-19 -5.86029e-20 -0.00612503)
(-3.67131e-19 -8.38462e-20 -0.00612513)
(-4.22683e-19 -7.86381e-20 -0.00612523)
(-3.95871e-19 -2.29346e-19 -0.00612533)
(-3.15699e-19 -3.79612e-19 -0.00612543)
(-2.89793e-19 -3.46719e-19 -0.00612552)
(-2.91844e-19 -6.64194e-20 -0.00612562)
(-1.87695e-19 -1.06835e-19 -0.0061257)
(-1.20603e-19 -2.30461e-19 -0.00612579)
(-2.24065e-19 -2.68726e-19 -0.00612586)
(-3.95596e-19 -2.38636e-19 -0.00612593)
(-4.61897e-19 -2.56665e-19 -0.006126)
(-4.48404e-19 -2.58651e-19 -0.00612606)
(-5.07594e-19 -2.27636e-19 -0.00612611)
(-4.22009e-19 -2.53602e-19 -0.00612615)
(-3.26812e-19 -3.02737e-19 -0.00612618)
(-3.79276e-19 -3.47044e-19 -0.00612621)
(-4.69153e-19 -4.25636e-19 -0.00612623)
(-6.57324e-19 -4.8109e-19 -0.00612624)
(-6.33367e-19 -5.91358e-19 -0.00612624)
(-5.43331e-19 -4.32072e-19 -0.00612624)
(-5.58272e-19 -3.04911e-19 -0.00612622)
(-5.509e-19 -2.22821e-19 -0.0061262)
(-5.46147e-19 -2.90058e-19 -0.00612617)
(-8.41411e-19 -3.22406e-19 -0.00612614)
(-9.43185e-19 -3.46893e-19 -0.00612609)
(-6.18477e-19 -3.6634e-19 -0.00612604)
(-4.938e-19 -4.0356e-19 -0.00612598)
(-5.30121e-19 -4.77211e-19 -0.00612591)
(-5.90099e-19 -5.28572e-19 -0.00612584)
(-5.54218e-19 -4.87855e-19 -0.00612577)
(-4.86453e-19 -5.42325e-19 -0.00612568)
(-4.72696e-19 -4.47519e-19 -0.0061256)
(-4.68573e-19 -4.34756e-19 -0.00612551)
(-3.22362e-19 -4.87916e-19 -0.00612542)
(-4.97173e-20 -5.60899e-19 -0.00612532)
(4.43723e-20 -4.67571e-19 -0.00612523)
(-1.28844e-19 -4.27574e-19 -0.00612513)
(-1.55753e-20 -4.16666e-19 -0.00612504)
(2.273e-19 -7.52517e-19 -0.00612495)
(2.28793e-19 -7.84292e-19 -0.00612487)
(1.09907e-19 -6.75387e-19 -0.00612478)
(3.16201e-20 -6.45521e-19 -0.00612471)
(1.18806e-19 -5.1807e-19 -0.00612464)
(-4.35531e-19 -3.22189e-19 -0.00612438)
(-4.83056e-19 -3.22716e-19 -0.00612446)
(-4.52114e-19 -2.85359e-19 -0.00612455)
(-3.83704e-19 -1.89082e-19 -0.00612464)
(-3.03602e-19 -1.52892e-19 -0.00612473)
(-1.75912e-19 -9.3274e-20 -0.00612484)
(-1.17251e-19 -2.7743e-19 -0.00612494)
(-2.61942e-19 -3.23861e-19 -0.00612504)
(-4.71448e-19 -3.34062e-19 -0.00612515)
(-5.45053e-19 -3.75679e-19 -0.00612525)
(-3.58779e-19 -3.11245e-19 -0.00612536)
(-1.94232e-19 -2.06981e-19 -0.00612546)
(-2.20148e-19 -1.11636e-19 -0.00612555)
(-2.6287e-19 -1.46494e-19 -0.00612564)
(-1.69241e-19 -2.70563e-19 -0.00612573)
(-1.70601e-19 -2.36901e-19 -0.00612581)
(-3.66886e-19 -1.98216e-19 -0.00612589)
(-4.79337e-19 -2.51211e-19 -0.00612595)
(-4.74986e-19 -2.82866e-19 -0.00612601)
(-4.53396e-19 -2.91076e-19 -0.00612607)
(-3.84157e-19 -1.26192e-19 -0.00612611)
(-3.7938e-19 -1.44403e-19 -0.00612615)
(-4.69067e-19 -1.87036e-19 -0.00612618)
(-5.75944e-19 -2.9327e-19 -0.0061262)
(-7.55812e-19 -2.58368e-19 -0.00612621)
(-6.2283e-19 -3.05114e-19 -0.00612621)
(-4.05817e-19 -2.53656e-19 -0.0061262)
(-4.68689e-19 -1.73264e-19 -0.00612619)
(-6.07267e-19 -1.02909e-19 -0.00612617)
(-7.16066e-19 -2.89015e-19 -0.00612614)
(-7.91363e-19 -4.18905e-19 -0.0061261)
(-7.83469e-19 -1.95481e-19 -0.00612605)
(-6.62231e-19 -1.90573e-19 -0.00612599)
(-6.13368e-19 -3.96378e-19 -0.00612593)
(-6.05426e-19 -4.73991e-19 -0.00612586)
(-5.82973e-19 -5.08881e-19 -0.00612579)
(-5.22896e-19 -3.78602e-19 -0.00612571)
(-4.45625e-19 -4.39274e-19 -0.00612562)
(-3.86763e-19 -4.20564e-19 -0.00612553)
(-3.80841e-19 -3.93864e-19 -0.00612544)
(-2.0964e-19 -4.27111e-19 -0.00612534)
(4.21963e-21 -3.89355e-19 -0.00612524)
(-7.05394e-21 -4.70154e-19 -0.00612515)
(-7.89898e-20 -4.81563e-19 -0.00612505)
(-3.64739e-20 -3.98427e-19 -0.00612495)
(1.1686e-19 -6.54627e-19 -0.00612485)
(2.11223e-19 -7.3395e-19 -0.00612476)
(1.18474e-19 -6.59922e-19 -0.00612468)
(1.36396e-19 -6.04567e-19 -0.0061246)
(2.43814e-19 -4.7821e-19 -0.00612453)
(-4.12484e-19 -2.35667e-19 -0.00612425)
(-4.56247e-19 -3.10593e-19 -0.00612434)
(-4.46745e-19 -2.16962e-19 -0.00612443)
(-3.97293e-19 -2.08023e-19 -0.00612452)
(-3.43443e-19 -1.85178e-19 -0.00612462)
(-3.43683e-19 -1.55347e-19 -0.00612473)
(-2.73929e-19 -3.35583e-19 -0.00612484)
(-1.83984e-19 -4.61575e-19 -0.00612495)
(-3.03586e-19 -4.20443e-19 -0.00612506)
(-4.46549e-19 -2.69548e-19 -0.00612517)
(-3.70513e-19 -1.35841e-19 -0.00612527)
(-2.27625e-19 -6.02886e-20 -0.00612538)
(-2.32418e-19 -8.56294e-20 -0.00612548)
(-3.5365e-19 -1.32875e-19 -0.00612557)
(-2.46682e-19 -1.79757e-19 -0.00612566)
(-1.29712e-19 -2.20176e-19 -0.00612575)
(-3.61373e-19 -1.60254e-19 -0.00612582)
(-5.27901e-19 -3.07139e-19 -0.00612589)
(-4.95884e-19 -3.6171e-19 -0.00612596)
(-3.85697e-19 -3.33664e-19 -0.00612601)
(-3.05301e-19 -3.55368e-19 -0.00612606)
(-3.86618e-19 -3.12188e-19 -0.0061261)
(-5.17706e-19 -2.76027e-19 -0.00612613)
(-5.46705e-19 -3.09378e-19 -0.00612615)
(-6.85587e-19 -2.88816e-19 -0.00612616)
(-6.34035e-19 -1.53149e-19 -0.00612616)
(-4.23175e-19 -1.26652e-19 -0.00612616)
(-4.42295e-19 -1.17209e-19 -0.00612614)
(-6.97083e-19 -2.51088e-19 -0.00612612)
(-8.74209e-19 -3.5437e-19 -0.00612608)
(-7.86563e-19 -4.70754e-19 -0.00612604)
(-7.29922e-19 -4.12473e-19 -0.00612599)
(-7.88392e-19 -4.93009e-19 -0.00612594)
(-7.61509e-19 -6.13277e-19 -0.00612587)
(-6.37886e-19 -5.86748e-19 -0.0061258)
(-5.02547e-19 -6.26346e-19 -0.00612572)
(-4.56763e-19 -4.88161e-19 -0.00612564)
(-4.63578e-19 -4.31281e-19 -0.00612555)
(-4.13429e-19 -4.57921e-19 -0.00612545)
(-4.04608e-19 -4.78491e-19 -0.00612536)
(-1.524e-19 -5.08094e-19 -0.00612526)
(9.38224e-21 -5.77586e-19 -0.00612515)
(-7.01827e-20 -5.39134e-19 -0.00612505)
(-1.0073e-19 -5.50572e-19 -0.00612495)
(-5.30043e-20 -5.34687e-19 -0.00612485)
(1.56809e-19 -6.207e-19 -0.00612475)
(2.63094e-19 -6.96912e-19 -0.00612465)
(1.91444e-19 -6.41004e-19 -0.00612456)
(2.69309e-19 -6.43805e-19 -0.00612448)
(3.02734e-19 -6.40548e-19 -0.0061244)
(-4.57407e-19 -2.17882e-19 -0.00612411)
(-5.28646e-19 -1.81989e-19 -0.0061242)
(-5.03259e-19 -1.1733e-19 -0.0061243)
(-4.23774e-19 -2.71875e-19 -0.0061244)
(-3.0802e-19 -2.00908e-19 -0.0061245)
(-3.03524e-19 -2.86379e-19 -0.00612461)
(-4.19728e-19 -3.64786e-19 -0.00612473)
(-2.89277e-19 -4.97474e-19 -0.00612484)
(-2.24881e-19 -3.67278e-19 -0.00612495)
(-3.35812e-19 -2.49131e-19 -0.00612507)
(-3.1921e-19 -1.32826e-19 -0.00612518)
(-2.34716e-19 -9.64118e-20 -0.00612528)
(-2.45448e-19 -1.976e-19 -0.00612539)
(-3.47854e-19 -1.93252e-19 -0.00612549)
(-3.35844e-19 -1.37216e-19 -0.00612558)
(-1.44602e-19 -2.25046e-19 -0.00612567)
(-3.58938e-19 -3.12814e-19 -0.00612575)
(-6.30108e-19 -3.74263e-19 -0.00612582)
(-5.32469e-19 -2.94443e-19 -0.00612589)
(-4.85638e-19 -2.92999e-19 -0.00612594)
(-3.6168e-19 -4.13019e-19 -0.00612599)
(-2.9291e-19 -4.16023e-19 -0.00612603)
(-4.63007e-19 -3.79298e-19 -0.00612606)
(-5.94933e-19 -4.12437e-19 -0.00612608)
(-6.28999e-19 -4.52402e-19 -0.0061261)
(-4.8968e-19 -2.60916e-19 -0.0061261)
(-3.79412e-19 -1.07625e-19 -0.00612609)
(-6.08029e-19 -1.75137e-19 -0.00612608)
(-8.77149e-19 -3.61338e-19 -0.00612605)
(-9.36754e-19 -4.10604e-19 -0.00612602)
(-8.47478e-19 -6.00791e-19 -0.00612598)
(-8.6124e-19 -7.71867e-19 -0.00612592)
(-9.09101e-19 -8.17744e-19 -0.00612586)
(-7.1154e-19 -7.69579e-19 -0.0061258)
(-5.88564e-19 -7.17964e-19 -0.00612572)
(-4.96394e-19 -8.25941e-19 -0.00612564)
(-4.05596e-19 -7.58101e-19 -0.00612555)
(-4.34877e-19 -6.1564e-19 -0.00612546)
(-4.38551e-19 -6.08392e-19 -0.00612536)
(-3.5328e-19 -6.01083e-19 -0.00612526)
(-1.39938e-19 -5.84279e-19 -0.00612516)
(-3.15129e-20 -6.8493e-19 -0.00612505)
(-5.18079e-20 -6.08023e-19 -0.00612495)
(-7.15576e-20 -5.54353e-19 -0.00612484)
(1.65682e-20 -5.91607e-19 -0.00612473)
(2.18471e-19 -5.38711e-19 -0.00612463)
(2.73247e-19 -6.08434e-19 -0.00612453)
(2.07703e-19 -6.03272e-19 -0.00612443)
(2.41472e-19 -6.07381e-19 -0.00612435)
(2.70915e-19 -7.43466e-19 -0.00612426)
(-4.20495e-19 -1.43695e-19 -0.00612396)
(-4.91118e-19 -1.75796e-20 -0.00612406)
(-6.47155e-19 -5.98996e-20 -0.00612416)
(-5.79798e-19 -2.06276e-19 -0.00612426)
(-4.43538e-19 -1.74459e-19 -0.00612437)
(-3.44525e-19 -5.01962e-19 -0.00612449)
(-4.10591e-19 -4.98314e-19 -0.0061246)
(-2.98011e-19 -4.28454e-19 -0.00612472)
(-1.6186e-19 -2.48081e-19 -0.00612484)
(-2.67211e-19 -1.85068e-19 -0.00612495)
(-2.92153e-19 -1.94203e-19 -0.00612507)
(-2.84354e-19 -2.4532e-19 -0.00612518)
(-2.46756e-19 -3.63011e-19 -0.00612529)
(-2.71965e-19 -3.1514e-19 -0.00612539)
(-3.39334e-19 -1.82287e-19 -0.00612549)
(-2.78374e-19 -2.68487e-19 -0.00612558)
(-3.59244e-19 -5.4291e-19 -0.00612566)
(-4.85489e-19 -4.44491e-19 -0.00612574)
(-4.76723e-19 -3.0113e-19 -0.0061258)
(-5.27782e-19 -3.07221e-19 -0.00612586)
(-4.49884e-19 -2.56229e-19 -0.00612591)
(-3.59945e-19 -3.07323e-19 -0.00612595)
(-4.98801e-19 -3.94971e-19 -0.00612598)
(-6.13779e-19 -4.85576e-19 -0.00612601)
(-5.71179e-19 -4.33399e-19 -0.00612602)
(-3.51594e-19 -2.85261e-19 -0.00612602)
(-3.7155e-19 -1.53218e-19 -0.00612602)
(-7.04349e-19 -1.61948e-19 -0.006126)
(-9.36155e-19 -2.20574e-19 -0.00612597)
(-1.07328e-18 -2.46178e-19 -0.00612594)
(-1.09169e-18 -5.17064e-19 -0.00612589)
(-9.65135e-19 -7.83151e-19 -0.00612584)
(-7.95244e-19 -7.81375e-19 -0.00612578)
(-6.41044e-19 -7.79025e-19 -0.00612571)
(-6.64694e-19 -8.04205e-19 -0.00612563)
(-5.19824e-19 -8.56562e-19 -0.00612555)
(-3.29327e-19 -8.62415e-19 -0.00612546)
(-4.09122e-19 -7.68379e-19 -0.00612536)
(-4.17752e-19 -7.24165e-19 -0.00612526)
(-3.06663e-19 -6.81617e-19 -0.00612516)
(-1.13807e-19 -6.78143e-19 -0.00612505)
(9.0096e-21 -7.29237e-19 -0.00612494)
(-2.42582e-20 -7.42883e-19 -0.00612483)
(-5.19648e-20 -5.97724e-19 -0.00612472)
(6.06374e-20 -7.51985e-19 -0.00612461)
(2.66608e-19 -7.23511e-19 -0.0061245)
(2.49399e-19 -6.48794e-19 -0.0061244)
(2.27103e-19 -5.54125e-19 -0.0061243)
(2.80059e-19 -5.39964e-19 -0.0061242)
(2.75574e-19 -5.96827e-19 -0.00612412)
(-4.23032e-19 3.88397e-20 -0.00612381)
(-4.31743e-19 -8.54652e-21 -0.0061239)
(-6.33537e-19 -4.07765e-20 -0.00612401)
(-6.80449e-19 -1.20471e-19 -0.00612412)
(-6.23471e-19 -3.02178e-19 -0.00612423)
(-5.20566e-19 -4.59066e-19 -0.00612435)
(-3.99689e-19 -3.93745e-19 -0.00612447)
(-3.1898e-19 -1.49775e-19 -0.00612459)
(-1.62899e-19 -3.96197e-20 -0.00612471)
(-2.85414e-19 -1.49419e-19 -0.00612483)
(-3.63725e-19 -1.88713e-19 -0.00612495)
(-3.5089e-19 -3.14109e-19 -0.00612506)
(-2.83471e-19 -4.04909e-19 -0.00612517)
(-1.71695e-19 -3.88253e-19 -0.00612528)
(-2.93249e-19 -2.6183e-19 -0.00612538)
(-4.27592e-19 -3.05682e-19 -0.00612547)
(-4.50888e-19 -5.04632e-19 -0.00612556)
(-4.1593e-19 -4.96003e-19 -0.00612564)
(-4.26406e-19 -3.59785e-19 -0.00612571)
(-4.65676e-19 -3.55337e-19 -0.00612577)
(-4.06881e-19 -2.6003e-19 -0.00612582)
(-4.23038e-19 -3.16392e-19 -0.00612586)
(-6.02697e-19 -3.74764e-19 -0.00612589)
(-6.3748e-19 -3.99971e-19 -0.00612592)
(-4.84549e-19 -3.58433e-19 -0.00612593)
(-2.75658e-19 -2.53267e-19 -0.00612593)
(-3.1437e-19 -2.96803e-19 -0.00612592)
(-7.13745e-19 -2.94999e-19 -0.00612591)
(-9.89654e-19 -3.66388e-19 -0.00612588)
(-1.1993e-18 -3.06226e-19 -0.00612584)
(-1.26796e-18 -4.48419e-19 -0.0061258)
(-1.01853e-18 -5.56179e-19 -0.00612574)
(-8.27781e-19 -6.2449e-19 -0.00612568)
(-7.13693e-19 -8.05211e-19 -0.00612561)
(-6.54046e-19 -9.06295e-19 -0.00612553)
(-4.65681e-19 -8.58024e-19 -0.00612544)
(-3.23734e-19 -8.44219e-19 -0.00612535)
(-3.98424e-19 -8.69194e-19 -0.00612525)
(-3.76527e-19 -8.34397e-19 -0.00612515)
(-2.24407e-19 -7.14214e-19 -0.00612504)
(-5.72013e-20 -6.43738e-19 -0.00612493)
(-3.28736e-20 -7.23336e-19 -0.00612481)
(1.28721e-20 -7.03907e-19 -0.0061247)
(-2.53271e-20 -5.87376e-19 -0.00612459)
(9.20226e-20 -6.39414e-19 -0.00612447)
(3.28553e-19 -7.9768e-19 -0.00612436)
(3.4519e-19 -7.49606e-19 -0.00612425)
(3.20893e-19 -5.93018e-19 -0.00612415)
(3.08113e-19 -4.96596e-19 -0.00612405)
(2.84308e-19 -5.99672e-19 -0.00612396)
(-4.3389e-19 3.23388e-20 -0.00612364)
(-4.29965e-19 -4.54844e-20 -0.00612374)
(-5.76314e-19 -1.57069e-19 -0.00612385)
(-7.80355e-19 -2.0734e-19 -0.00612396)
(-6.97401e-19 -4.21951e-19 -0.00612408)
(-5.80642e-19 -3.39876e-19 -0.0061242)
(-3.68349e-19 -2.87655e-19 -0.00612432)
(-2.725e-19 -2.828e-20 -0.00612445)
(-2.47003e-19 -5.60932e-20 -0.00612457)
(-3.34125e-19 -1.16007e-19 -0.0061247)
(-4.28781e-19 -9.6212e-20 -0.00612482)
(-4.70312e-19 -3.04181e-19 -0.00612494)
(-3.56398e-19 -4.19315e-19 -0.00612505)
(-1.79973e-19 -3.30414e-19 -0.00612516)
(-2.27124e-19 -2.17218e-19 -0.00612526)
(-4.45453e-19 -2.4574e-19 -0.00612536)
(-5.5583e-19 -2.92125e-19 -0.00612544)
(-4.06833e-19 -3.53653e-19 -0.00612552)
(-3.85201e-19 -2.18374e-19 -0.00612559)
(-4.68379e-19 -2.6355e-19 -0.00612566)
(-4.36869e-19 -2.63196e-19 -0.00612571)
(-4.50967e-19 -3.11015e-19 -0.00612575)
(-5.71403e-19 -2.68928e-19 -0.00612579)
(-6.23075e-19 -3.19899e-19 -0.00612581)
(-4.76527e-19 -3.05909e-19 -0.00612582)
(-3.16861e-19 -2.0649e-19 -0.00612583)
(-4.36733e-19 -3.06489e-19 -0.00612582)
(-8.20216e-19 -5.48846e-19 -0.0061258)
(-1.01477e-18 -5.72064e-19 -0.00612577)
(-1.20307e-18 -5.81749e-19 -0.00612574)
(-1.28046e-18 -5.61017e-19 -0.00612569)
(-1.0304e-18 -5.67632e-19 -0.00612563)
(-9.33517e-19 -7.17151e-19 -0.00612557)
(-8.35411e-19 -8.50559e-19 -0.00612549)
(-6.71313e-19 -9.39556e-19 -0.00612541)
(-4.11958e-19 -9.8071e-19 -0.00612532)
(-3.53774e-19 -1.05592e-18 -0.00612523)
(-4.68716e-19 -1.057e-18 -0.00612513)
(-3.04746e-19 -1.01889e-18 -0.00612502)
(-7.5357e-20 -7.96229e-19 -0.00612491)
(-2.97879e-20 -6.22901e-19 -0.00612479)