/*--------------------------------*- C++ -*----------------------------------*\
  =========                 |
  \\      /  F ield         | OpenFOAM: The Open Source CFD Toolbox
   \\    /   O peration     | Website:  https://openfoam.org
    \\  /    A nd           | Version:  7
     \\/     M anipulation  |
\*---------------------------------------------------------------------------*/
FoamFile
{
    version     2.0;
    format      ascii;
    class       volVectorField;
    location    "216000";
    object      U;
}
// * * * * * * * * * * * * * * * * * * * * * * * * * * * * * * * * * * * * * //

dimensions      [0 1 -1 0 0 0 0];

internalField   nonuniform List<vector> 
4825
(
(-2.08829e-18 -6.82578e-19 -0.0125151)
(-1.66269e-18 -1.43106e-18 -0.0125369)
(-2.23158e-18 -5.69057e-19 -0.0124617)
(-1.71135e-18 -1.367e-18 -0.0124836)
(-2.53991e-18 -4.48944e-19 -0.0125049)
(-1.28256e-18 -4.60472e-19 -0.0125257)
(-1.37621e-18 -1.09984e-18 -0.0125458)
(-2.33265e-18 -4.43664e-19 -0.0124079)
(-1.78752e-18 -1.32021e-18 -0.0124298)
(-2.46833e-18 -5.53145e-19 -0.0124511)
(-1.47592e-18 -3.72282e-19 -0.012472)
(-1.30006e-18 -1.22072e-18 -0.0124921)
(-2.41571e-18 -3.38453e-19 -0.0123536)
(-1.75638e-18 -1.41236e-18 -0.0123755)
(-2.56107e-18 -4.36034e-19 -0.012397)
(-1.5849e-18 -3.80898e-19 -0.0124178)
(-1.44854e-18 -1.02899e-18 -0.012438)
(-2.43876e-18 -3.55248e-19 -0.0122989)
(-1.53472e-18 -1.72415e-18 -0.0123208)
(-2.60402e-18 -3.65557e-19 -0.0123423)
(-1.78512e-18 -2.67983e-19 -0.0123632)
(-1.54963e-18 -8.75615e-19 -0.0123835)
(-2.26636e-18 -6.64993e-19 -0.0122437)
(-1.28584e-18 -2.06641e-18 -0.0122657)
(-2.43055e-18 -4.75996e-19 -0.0122872)
(-1.82377e-18 -3.56072e-19 -0.0123082)
(-1.5434e-18 -8.65021e-19 -0.0123285)
(-2.08088e-18 -1.00585e-18 -0.012188)
(-1.34254e-18 -2.01709e-18 -0.0122101)
(-2.20529e-18 -6.76396e-19 -0.0122316)
(-1.64427e-18 -7.24578e-19 -0.0122526)
(-1.39281e-18 -9.8455e-19 -0.012273)
(-2.14812e-18 -1.0161e-18 -0.0121317)
(-1.55665e-18 -1.79039e-18 -0.0121539)
(-2.10947e-18 -7.78081e-19 -0.0121755)
(-1.6029e-18 -9.01744e-19 -0.0121966)
(-1.19376e-18 -1.15412e-18 -0.012217)
(-2.30925e-18 -8.39721e-19 -0.012075)
(-1.85314e-18 -1.48719e-18 -0.0120972)
(-2.05657e-18 -8.46615e-19 -0.0121189)
(-1.62414e-18 -1.02119e-18 -0.0121401)
(-1.07984e-18 -1.27661e-18 -0.0121606)
(-2.29518e-18 -8.00471e-19 -0.0120176)
(-2.30816e-18 -1.02872e-18 -0.01204)
(-2.02845e-18 -9.5204e-19 -0.0120618)
(-1.71912e-18 -1.03013e-18 -0.012083)
(-1.03668e-18 -1.25796e-18 -0.0121035)
(-2.01266e-18 -1.00879e-18 -0.0119597)
(-2.72398e-18 -6.02304e-19 -0.0119822)
(-2.12669e-18 -9.35057e-19 -0.012004)
(-1.96483e-18 -8.29232e-19 -0.0120253)
(-1.06935e-18 -1.16841e-18 -0.012046)
(-1.68827e-18 -1.2415e-18 -0.0119013)
(-2.84475e-18 -4.69886e-19 -0.0119238)
(-2.22181e-18 -9.35324e-19 -0.0119457)
(-2.13577e-18 -7.33242e-19 -0.0119671)
(-1.08366e-18 -1.10704e-18 -0.0119878)
(-1.5445e-18 -1.29159e-18 -0.0118422)
(-2.6284e-18 -7.18118e-19 -0.0118648)
(-2.17068e-18 -1.10771e-18 -0.0118868)
(-2.21118e-18 -7.67366e-19 -0.0119082)
(-1.08052e-18 -1.08235e-18 -0.011929)
(-1.47522e-18 -1.31788e-18 -0.0117825)
(-2.37368e-18 -1.03429e-18 -0.0118052)
(-1.96548e-18 -1.42789e-18 -0.0118273)
(-2.25201e-18 -8.2026e-19 -0.0118488)
(-1.33581e-18 -1.45216e-18 -0.0117222)
(-2.33398e-18 -1.1215e-18 -0.0117449)
(-1.81154e-18 -1.66517e-18 -0.0117671)
(-2.4089e-18 -6.74185e-19 -0.0117887)
(-1.23234e-18 -1.54494e-18 -0.0116612)
(-2.42071e-18 -1.04468e-18 -0.011684)
(-1.80833e-18 -1.68229e-18 -0.0117063)
(-2.6624e-18 -3.82659e-19 -0.0117279)
(-1.20362e-18 -1.53064e-18 -0.0115996)
(-2.55553e-18 -9.02686e-19 -0.0116225)
(-1.83942e-18 -1.64428e-18 -0.0116448)
(-1.12544e-18 -1.5853e-18 -0.0115373)
(-2.6422e-18 -8.13603e-19 -0.0115602)
(-1.76717e-18 -1.74204e-18 -0.0115826)
(-1.13542e-18 -1.56003e-18 -0.0114742)
(-2.66425e-18 -8.06372e-19 -0.0114973)
(-1.20623e-18 -1.45253e-18 -0.0114104)
(-2.71679e-18 -8.06316e-19 -0.0114335)
(-1.10381e-18 -1.50978e-18 -0.0113459)
(-2.74439e-18 -8.34e-19 -0.0113691)
(-1.07889e-18 -1.49488e-18 -0.0112805)
(-2.63924e-18 -9.99815e-19 -0.0113038)
(-1.3587e-18 -1.16695e-18 -0.0112144)
(-2.52139e-18 -1.21042e-18 -0.0112377)
(-1.61938e-18 -8.67279e-19 -0.0111473)
(-6.83725e-19 -2.91449e-20 -0.0132705)
(-9.22046e-19 3.71529e-19 -0.0132917)
(-6.25692e-19 2.14832e-19 -0.0133123)
(-1.63667e-18 5.55165e-19 -0.0133323)
(-1.5655e-18 1.93203e-19 -0.0133517)
(-6.10912e-19 2.07132e-19 -0.0133705)
(-1.21427e-18 3.01017e-19 -0.0133886)
(-5.25361e-19 4.66957e-19 -0.0134059)
(-1.47638e-18 3.16905e-19 -0.0134224)
(-7.55704e-19 1.05697e-18 -0.0134382)
(-9.09817e-19 1.0369e-18 -0.0134531)
(-1.10387e-18 4.50038e-19 -0.0134671)
(-5.28878e-19 -4.44401e-19 -0.0134802)
(-6.00044e-19 -2.02636e-19 -0.0134924)
(-1.62379e-18 2.52336e-19 -0.0135037)
(-1.69566e-18 1.103e-18 -0.013514)
(-1.31493e-18 7.4741e-19 -0.0135233)
(-5.63958e-19 9.3564e-19 -0.0135316)
(-4.13027e-19 9.27453e-19 -0.013539)
(-7.74116e-20 9.03548e-19 -0.0135453)
(-6.7942e-19 1.71508e-20 -0.0132226)
(-1.0553e-18 2.3497e-19 -0.0132438)
(-4.94908e-19 3.42637e-19 -0.0132644)
(-1.63558e-18 6.21089e-19 -0.0132845)
(-1.00926e-18 5.06159e-19 -0.013304)
(-5.91973e-19 2.24683e-19 -0.0133228)
(-1.20476e-18 3.03619e-19 -0.0133409)
(-5.96737e-19 4.78049e-19 -0.0133583)
(-1.69019e-18 2.19239e-19 -0.0133748)
(-6.95265e-19 1.0019e-18 -0.0133906)
(-7.64985e-19 1.15421e-18 -0.0134055)
(-7.83975e-19 5.89743e-19 -0.0134196)
(-2.32937e-20 -2.63694e-19 -0.0134328)
(-7.29337e-19 -1.36589e-19 -0.013445)
(-1.61348e-18 3.45995e-19 -0.0134563)
(-1.96873e-18 1.01199e-18 -0.0134666)
(-1.17979e-18 7.00981e-19 -0.013476)
(-7.41212e-19 8.57864e-19 -0.0134843)
(-5.81863e-19 8.67226e-19 -0.0134917)
(-3.59559e-19 8.21988e-19 -0.013498)
(-8.10767e-19 4.86682e-20 -0.0131743)
(-1.16557e-18 7.4605e-20 -0.0131955)
(-3.11328e-19 4.58063e-19 -0.0132162)
(-1.58053e-18 6.66649e-19 -0.0132364)
(-6.50599e-19 6.73047e-19 -0.0132559)
(-5.51637e-19 3.06141e-19 -0.0132747)
(-1.03532e-18 4.1104e-19 -0.0132929)
(-6.43584e-19 5.32453e-19 -0.0133103)
(-1.85931e-18 1.32741e-19 -0.0133269)
(-5.86937e-19 9.35781e-19 -0.0133427)
(-6.7664e-19 1.22063e-18 -0.0133577)
(-6.66349e-19 6.26544e-19 -0.0133718)
(-1.02197e-19 -2.59135e-19 -0.013385)
(-8.63689e-19 -5.28974e-20 -0.0133973)
(-1.46401e-18 4.75496e-19 -0.0134086)
(-1.84425e-18 1.02315e-18 -0.013419)
(-1.02316e-18 6.67439e-19 -0.0134283)
(-7.35155e-19 8.38912e-19 -0.0134367)
(-6.39382e-19 8.52422e-19 -0.0134441)
(-6.25705e-19 7.30943e-19 -0.0134504)
(-6.96899e-19 2.75077e-19 -0.0131257)
(-8.77634e-19 2.07618e-19 -0.013147)
(-1.22721e-19 5.72789e-19 -0.0131677)
(-1.29899e-18 8.91391e-19 -0.0131879)
(-6.17669e-19 6.38006e-19 -0.0132075)
(-4.7195e-19 3.94896e-19 -0.0132264)
(-7.41626e-19 5.94222e-19 -0.0132446)
(-4.07634e-19 7.88563e-19 -0.013262)
(-1.87186e-18 1.2175e-19 -0.0132787)
(-5.21416e-19 8.26603e-19 -0.0132945)
(-9.78513e-19 1.13201e-18 -0.0133096)
(-7.25176e-19 6.47825e-19 -0.0133237)
(-4.47042e-19 -3.50133e-19 -0.0133369)
(-8.38775e-19 1.89027e-20 -0.0133492)
(-1.31897e-18 5.69575e-19 -0.0133606)
(-1.57147e-18 1.08911e-18 -0.013371)
(-8.39108e-19 6.53986e-19 -0.0133804)
(-6.38717e-19 8.55886e-19 -0.0133887)
(-6.96296e-19 8.64238e-19 -0.0133961)
(-7.6943e-19 6.20613e-19 -0.0134025)
(-4.35499e-19 5.5931e-19 -0.0130768)
(-7.99817e-19 1.94484e-19 -0.0130981)
(-4.71842e-20 5.92499e-19 -0.0131189)
(-1.08814e-18 1.08565e-18 -0.0131391)
(-6.60135e-19 5.85202e-19 -0.0131587)
(-3.40111e-19 4.63596e-19 -0.0131777)
(-7.36458e-19 5.64583e-19 -0.0131959)
(-2.46765e-19 1.02779e-18 -0.0132134)
(-1.72308e-18 2.54637e-19 -0.0132301)
(-4.37982e-19 8.0023e-19 -0.013246)
(-1.29293e-18 1.03189e-18 -0.0132611)
(-7.0863e-19 6.53304e-19 -0.0132752)
(-4.94896e-19 -3.49678e-19 -0.0132885)
(-8.34809e-19 5.5418e-20 -0.0133008)
(-1.31089e-18 6.12133e-19 -0.0133122)
(-1.3138e-18 1.13602e-18 -0.0133226)
(-5.58791e-19 6.82824e-19 -0.013332)
(-6.49456e-19 8.72303e-19 -0.0133404)
(-6.73334e-19 9.11534e-19 -0.0133478)
(-8.3049e-19 5.1263e-19 -0.0133542)
(-3.4124e-19 7.12575e-19 -0.0130275)
(-9.4784e-19 3.97528e-20 -0.0130489)
(-7.01571e-20 4.98896e-19 -0.0130698)
(-1.12739e-18 1.11108e-18 -0.01309)
(-6.90799e-19 5.31998e-19 -0.0131097)
(-2.85979e-19 5.21596e-19 -0.0131287)
(-1.18507e-18 2.9475e-19 -0.0131469)
(-3.48767e-19 1.06539e-18 -0.0131645)
(-1.50574e-18 3.96716e-19 -0.0131812)
(-4.40913e-19 7.53725e-19 -0.0131971)
(-1.52358e-18 9.80924e-19 -0.0132122)
(-7.74898e-19 6.19788e-19 -0.0132264)
(-3.35245e-19 -2.53044e-19 -0.0132397)
(-9.04967e-19 8.37068e-20 -0.0132521)
(-1.37952e-18 5.9605e-19 -0.0132635)
(-1.12349e-18 1.13429e-18 -0.0132739)
(-2.61142e-19 7.42296e-19 -0.0132834)
(-8.5359e-19 8.65459e-19 -0.0132918)
(-8.43718e-19 9.16026e-19 -0.0132992)
(-8.59158e-19 4.11497e-19 -0.0133056)
(-2.83266e-19 7.99933e-19 -0.0129779)
(-9.29669e-19 2.59655e-20 -0.0129994)
(-1.94444e-19 3.26537e-19 -0.0130202)
(-1.09518e-18 1.17623e-18 -0.0130406)
(-7.13608e-19 4.71016e-19 -0.0130603)
(-2.07419e-19 6.42462e-19 -0.0130793)
(-1.6065e-18 4.70657e-20 -0.0130976)
(-3.7189e-19 1.06329e-18 -0.0131152)
(-1.38286e-18 5.06516e-19 -0.013132)
(-3.12264e-19 8.35298e-19 -0.0131479)
(-1.82191e-18 8.966e-19 -0.0131631)
(-8.3684e-19 5.21097e-19 -0.0131773)
(-2.78201e-19 -2.14837e-19 -0.0131906)
(-1.04393e-18 1.15433e-19 -0.013203)
(-1.22741e-18 6.39293e-19 -0.0132144)
(-1.0014e-18 1.07975e-18 -0.0132249)
(1.21155e-19 8.60069e-19 -0.0132344)
(-9.95495e-19 9.31491e-19 -0.0132428)
(-7.47213e-19 9.52291e-19 -0.0132502)
(-8.3518e-19 3.08522e-19 -0.0132566)
(-3.39092e-19 7.37567e-19 -0.012928)
(-7.98908e-19 1.51529e-19 -0.0129495)
(-3.42553e-19 1.24606e-19 -0.0129704)
(-8.52818e-19 1.37286e-18 -0.0129908)
(-7.4115e-19 4.03399e-19 -0.0130105)
(-3.99948e-19 6.25551e-19 -0.0130296)
(-1.8295e-18 -5.88855e-20 -0.0130479)
(-3.01602e-19 1.07757e-18 -0.0130655)
(-1.54081e-18 4.24831e-19 -0.0130824)
(3.08623e-20 1.03513e-18 -0.0130984)
(-1.92123e-18 9.47682e-19 -0.0131135)
(-6.95399e-19 5.07006e-19 -0.0131278)
(-5.74114e-19 -2.82769e-19 -0.0131412)
(-1.2024e-18 9.74287e-20 -0.0131536)
(-9.4011e-19 6.92868e-19 -0.013165)
(-9.17446e-19 1.00744e-18 -0.0131755)
(1.01318e-19 8.77745e-19 -0.013185)
(-9.65166e-19 1.02528e-18 -0.0131935)
(-3.40995e-19 1.04427e-18 -0.0132009)
(-8.66731e-19 2.56928e-19 -0.0132073)
(3.91028e-20 6.91938e-19 -0.0132127)
(-1.16238e-20 2.72836e-19 -0.013217)
(-4.45438e-19 4.24164e-19 -0.0132202)
(-1.37249e-19 1.02929e-18 -0.0132223)
(2.06274e-19 5.33428e-19 -0.0132234)
(-6.58688e-20 -2.47976e-19 -0.0132234)
(-2.43281e-19 5.28886e-19 -0.0132223)
(3.64159e-19 -3.05394e-19 -0.0132202)
(-1.75889e-19 -2.56404e-19 -0.013217)
(3.14309e-19 -1.87318e-19 -0.0132127)
(1.34898e-19 -1.96522e-19 -0.0132073)
(-1.682e-19 -3.6506e-19 -0.0132009)
(-5.13443e-19 -1.18202e-18 -0.0131935)
(-5.31859e-19 -4.4739e-19 -0.013185)
(-2.45027e-19 1.04494e-19 -0.0131755)
(-8.02878e-19 3.37895e-19 -0.0128777)
(-5.7068e-19 3.36296e-19 -0.0128992)
(-4.28625e-19 -4.67396e-20 -0.0129202)
(-6.37646e-19 1.53609e-18 -0.0129406)
(-9.74285e-19 2.87754e-19 -0.0129604)
(-6.85915e-19 5.51904e-19 -0.0129795)
(-1.61097e-18 3.06011e-20 -0.0129979)
(-2.27907e-19 1.11444e-18 -0.0130156)
(-1.45609e-18 4.55143e-19 -0.0130324)
(-1.00931e-20 1.01736e-18 -0.0130485)
(-2.00316e-18 1.00768e-18 -0.0130637)
(-1.74112e-19 6.85449e-19 -0.013078)
(-9.55448e-19 -3.6071e-19 -0.0130913)
(-1.04854e-18 1.27403e-19 -0.0131038)
(-5.98e-19 7.57004e-19 -0.0131153)
(-7.0677e-19 1.02784e-18 -0.0131258)
(-3.02514e-19 8.00382e-19 -0.0131353)
(-9.75407e-19 1.05025e-18 -0.0131438)
(6.20796e-20 1.15429e-18 -0.0131512)
(-9.31655e-19 2.49953e-19 -0.0131577)
(8.46444e-20 6.42219e-19 -0.013163)
(-8.86265e-20 3.10816e-19 -0.0131673)
(-5.2187e-19 4.15526e-19 -0.0131706)
(5.93646e-20 1.00409e-18 -0.0131727)
(1.94389e-19 5.47006e-19 -0.0131738)
(-8.21248e-20 -2.22366e-19 -0.0131738)
(-3.56525e-19 4.78865e-19 -0.0131727)
(5.62566e-19 -3.35297e-19 -0.0131706)
(-3.17072e-19 -2.24405e-19 -0.0131673)
(8.04399e-20 -1.91184e-19 -0.013163)
(1.41057e-19 -1.81663e-19 -0.0131577)
(2.09147e-19 -3.94972e-19 -0.0131512)
(-3.42852e-19 -1.17411e-18 -0.0131438)
(-4.98888e-19 -4.60526e-19 -0.0131353)
(-6.68848e-20 7.88514e-20 -0.0131258)
(-3.96145e-19 3.44624e-20 -0.0131153)
(1.88742e-20 -5.24962e-19 -0.0131038)
(-1.09261e-18 1.01221e-19 -0.0128271)
(-2.44963e-19 5.36785e-19 -0.0128486)
(-7.24131e-19 -3.58319e-19 -0.0128696)
(-5.65445e-19 1.62841e-18 -0.0128901)
(-1.18754e-18 1.95418e-19 -0.0129099)
(-5.82946e-19 6.36392e-19 -0.0129291)
(-1.24497e-18 2.07866e-19 -0.0129475)
(-2.6992e-19 1.08848e-18 -0.0129652)
(-1.27908e-18 5.64313e-19 -0.0129821)
(-3.11041e-19 9.32564e-19 -0.0129982)
(-2.00866e-18 1.00315e-18 -0.0130134)
(2.38502e-19 8.38934e-19 -0.0130277)
(-1.12063e-18 -3.15466e-19 -0.0130412)
(-7.07856e-19 1.56999e-19 -0.0130536)
(-3.66415e-19 7.84801e-19 -0.0130652)
(-7.86561e-19 1.03256e-18 -0.0130757)
(-4.77506e-19 8.12376e-19 -0.0130852)
(-7.80078e-19 1.04847e-18 -0.0130937)
(3.17306e-19 1.22995e-18 -0.0131012)
(-8.59461e-19 2.73849e-19 -0.0131076)
(4.55036e-19 6.36438e-19 -0.013113)
(-5.21178e-20 3.90591e-19 -0.0131173)
(-4.47938e-19 4.09706e-19 -0.0131206)
(1.04195e-19 9.68553e-19 -0.0131227)
(1.75489e-19 5.75703e-19 -0.0131238)
(-6.78821e-20 -1.89916e-19 -0.0131238)
(-3.59356e-19 4.25999e-19 -0.0131227)
(6.41482e-19 -3.52921e-19 -0.0131206)
(-3.9639e-19 -1.69077e-19 -0.0131173)
(-1.56014e-19 -2.007e-19 -0.013113)
(1.34295e-19 -2.1505e-19 -0.0131076)
(3.1381e-19 -3.99725e-19 -0.0131012)
(-3.34993e-20 -1.19503e-18 -0.0130937)
(-6.38853e-19 -4.04731e-19 -0.0130852)
(9.52531e-20 4.27488e-20 -0.0130757)
(-9.80921e-20 -9.05753e-20 -0.0130652)
(1.82426e-19 -5.80072e-19 -0.0130536)
(-2.42426e-19 -6.26569e-19 -0.0130412)
(-1.03597e-18 1.3945e-19 -0.012776)
(9.93481e-21 7.54596e-19 -0.0127976)
(-1.0974e-18 -7.02164e-19 -0.0128187)
(-5.61677e-19 1.60673e-18 -0.0128392)
(-9.56719e-19 3.8752e-19 -0.012859)
(-3.22944e-19 7.9581e-19 -0.0128783)
(-9.78129e-19 3.55974e-19 -0.0128967)
(-5.74395e-19 9.47891e-19 -0.0129145)
(-1.02698e-18 7.22538e-19 -0.0129314)
(-4.36212e-19 9.11407e-19 -0.0129475)
(-1.8031e-18 1.06826e-18 -0.0129628)
(1.92464e-19 8.07566e-19 -0.0129772)
(-1.1597e-18 -2.47907e-19 -0.0129906)
(-4.83629e-19 1.48238e-19 -0.0130031)
(-5.73416e-19 7.43114e-19 -0.0130147)
(-1.16725e-18 9.51011e-19 -0.0130252)
(-5.15239e-19 7.84837e-19 -0.0130348)
(-6.23699e-19 1.04198e-18 -0.0130433)
(3.24207e-19 1.28466e-18 -0.0130508)
(-7.69039e-19 2.75463e-19 -0.0130573)
(5.64894e-19 5.98724e-19 -0.0130626)
(-1.25325e-19 4.74344e-19 -0.013067)
(-2.87716e-19 4.18743e-19 -0.0130702)
(1.41903e-19 9.50661e-19 -0.0130724)
(1.06089e-19 5.92986e-19 -0.0130735)
(5.86743e-20 -1.68302e-19 -0.0130735)
(-3.60616e-19 3.59118e-19 -0.0130724)
(8.43824e-19 -3.73005e-19 -0.0130702)
(-4.42335e-19 -9.72901e-20 -0.013067)
(4.31962e-20 -2.74603e-19 -0.0130626)
(1.91946e-19 -2.64412e-19 -0.0130573)
(2.21279e-19 -3.91598e-19 -0.0130508)
(1.06626e-19 -1.13949e-18 -0.0130433)
(-7.77283e-19 -3.4847e-19 -0.0130348)
(3.90552e-19 -8.93039e-20 -0.0130252)
(2.05161e-19 -1.9526e-19 -0.0130147)
(1.67414e-19 -5.85616e-19 -0.0130031)
(-5.23539e-20 -6.73579e-19 -0.0129906)
(-3.01582e-19 -5.95712e-19 -0.0129772)
(-7.42165e-19 3.24268e-19 -0.0129628)
(-9.70431e-19 1.6373e-19 -0.0127246)
(1.59071e-19 9.2148e-19 -0.0127463)
(-1.06332e-18 -7.02002e-19 -0.0127674)
(-5.68371e-19 1.49968e-18 -0.0127879)
(-5.54976e-19 6.51647e-19 -0.0128078)
(-1.99639e-19 8.91094e-19 -0.0128271)
(-8.09351e-19 5.24325e-19 -0.0128456)
(-1.12516e-18 6.41214e-19 -0.0128634)
(-6.92636e-19 8.76279e-19 -0.0128804)
(-3.48065e-19 1.02722e-18 -0.0128965)
(-1.44392e-18 1.21602e-18 -0.0129118)
(1.08469e-21 7.50627e-19 -0.0129262)
(-9.53078e-19 -1.05353e-19 -0.0129397)
(-6.30394e-19 3.89211e-20 -0.0129522)
(-9.05522e-19 6.89763e-19 -0.0129638)
(-1.28997e-18 9.16869e-19 -0.0129744)
(-6.28511e-19 7.28491e-19 -0.012984)
(-6.23658e-19 9.89552e-19 -0.0129925)
(1.73701e-20 1.26467e-18 -0.013)
(-7.05732e-19 2.8457e-19 -0.0130065)
(3.61426e-19 5.40992e-19 -0.0130119)
(-3.04187e-19 5.22786e-19 -0.0130162)
(-1.93012e-19 3.99459e-19 -0.0130195)
(2.01674e-19 9.50355e-19 -0.0130216)
(3.8623e-20 6.04875e-19 -0.0130227)
(8.42111e-20 -1.49293e-19 -0.0130227)
(-3.47615e-19 2.88097e-19 -0.0130216)
(9.55902e-19 -3.90235e-19 -0.0130195)
(-4.28306e-19 -5.30633e-20 -0.0130162)
(2.90327e-19 -3.67794e-19 -0.0130119)
(-5.82703e-21 -2.24945e-19 -0.0130065)
(6.90041e-20 -3.59484e-19 -0.013)
(-4.42158e-20 -1.0493e-18 -0.0129925)
(-8.3721e-19 -3.40716e-19 -0.012984)
(4.01657e-19 -1.56973e-19 -0.0129744)
(4.64547e-19 -2.57008e-19 -0.0129638)
(1.46815e-19 -5.59622e-19 -0.0129522)
(1.83719e-20 -6.52688e-19 -0.0129397)
(-2.92585e-19 -5.12959e-19 -0.0129262)
(-3.08734e-19 2.14507e-19 -0.0129118)
(-1.09713e-18 -1.08359e-18 -0.0128965)
(-8.62211e-19 -1.01127e-18 -0.0128804)
(-9.11996e-19 1.66939e-19 -0.0126729)
(8.50311e-20 8.81047e-19 -0.0126945)
(-9.09734e-19 -5.93135e-19 -0.0127157)
(-5.79706e-19 1.38575e-18 -0.0127363)
(-3.29659e-19 7.98243e-19 -0.0127562)
(-2.39939e-19 9.01348e-19 -0.0127755)
(-6.88531e-19 7.18423e-19 -0.0127941)
(-1.58679e-18 3.91064e-19 -0.0128119)
(-6.92966e-19 7.78484e-19 -0.0128289)
(-2.32109e-19 1.11886e-18 -0.0128451)
(-1.02917e-18 1.42712e-18 -0.0128605)
(-1.00697e-19 7.21969e-19 -0.0128749)
(-7.40305e-19 5.39729e-20 -0.0128884)
(-1.02562e-18 -9.56499e-20 -0.012901)
(-1.12416e-18 6.36804e-19 -0.0129126)
(-1.14972e-18 9.49235e-19 -0.0129232)
(-7.46338e-19 6.6448e-19 -0.0129328)
(-5.09149e-19 1.00177e-18 -0.0129413)
(-4.03294e-19 1.22659e-18 -0.0129489)
(-6.2786e-19 2.70754e-19 -0.0129553)
(1.33717e-19 4.93903e-19 -0.0129607)
(-1.42172e-19 5.82772e-19 -0.0129651)
(-2.52583e-19 3.57414e-19 -0.0129683)
(2.46501e-19 9.56757e-19 -0.0129705)
(3.56702e-20 6.26833e-19 -0.0129716)
(2.49634e-19 -1.42368e-19 -0.0129716)
(-1.84087e-19 1.95684e-19 -0.0129705)
(9.17274e-19 -3.97364e-19 -0.0129683)
(-4.11359e-19 -1.07535e-20 -0.0129651)
(2.97072e-19 -3.87618e-19 -0.0129607)
(-1.91658e-19 -1.74455e-19 -0.0129553)
(9.95245e-20 -3.81422e-19 -0.0129489)
(-1.71588e-19 -9.51069e-19 -0.0129413)
(-8.47862e-19 -3.45009e-19 -0.0129328)
(-2.81956e-20 -1.35192e-19 -0.0129232)
(4.86607e-19 -2.6609e-19 -0.0129126)
(1.46041e-19 -5.38843e-19 -0.012901)
(-2.46668e-21 -6.21163e-19 -0.0128884)
(-1.21421e-19 -5.33526e-19 -0.0128749)
(1.09255e-19 8.90306e-20 -0.0128604)
(-6.4842e-19 -1.29524e-18 -0.0128451)
(-6.71583e-19 -1.13682e-18 -0.0128289)
(-6.3844e-19 -1.82488e-18 -0.0128119)
(-7.38411e-19 -1.97085e-18 -0.0127941)
(-9.70484e-19 -1.81826e-18 -0.0127755)
(-8.17456e-19 2.20017e-19 -0.0126207)
(-1.47315e-19 7.14443e-19 -0.0126424)
(-8.16038e-19 -5.49565e-19 -0.0126636)
(-6.80975e-19 1.19357e-18 -0.0126842)
(-4.26306e-19 7.14695e-19 -0.0127042)
(-5.33734e-19 7.40904e-19 -0.0127236)
(-4.91178e-19 9.88096e-19 -0.0127422)
(-1.71659e-18 3.60032e-19 -0.01276)
(-8.59881e-19 5.63747e-19 -0.0127771)
(-5.6124e-19 9.51471e-19 -0.0127933)
(-7.21871e-19 1.59135e-18 -0.0128087)
(-2.6449e-19 7.11447e-19 -0.0128232)
(-1.08928e-18 3.55969e-20 -0.0128367)
(-1.10921e-18 -1.10896e-19 -0.0128493)
(-1.07233e-18 6.16382e-19 -0.0128609)
(-8.86686e-19 1.01e-18 -0.0128715)
(-6.35202e-19 6.6947e-19 -0.0128812)
(-6.39524e-19 9.64251e-19 -0.0128898)
(-6.26329e-19 1.22919e-18 -0.0128973)
(-4.85136e-19 2.65554e-19 -0.0129038)
(-8.7503e-20 4.18704e-19 -0.0129092)
(4.96729e-20 6.41323e-19 -0.0129136)
(-4.32461e-19 3.35831e-19 -0.0129168)
(3.67147e-19 9.50416e-19 -0.012919)
(1.61907e-19 6.24e-19 -0.0129201)
(5.01608e-19 -1.52692e-19 -0.0129201)
(3.11929e-20 1.40479e-19 -0.012919)
(7.82214e-19 -3.78568e-19 -0.0129168)
(-3.81465e-19 2.47354e-20 -0.0129136)
(1.59506e-19 -4.03084e-19 -0.0129092)
(-8.78867e-20 -1.88413e-19 -0.0129038)
(2.53033e-19 -4.14508e-19 -0.0128973)
(-1.97001e-19 -8.83749e-19 -0.0128897)
(-6.38771e-19 -3.62138e-19 -0.0128812)
(-2.73606e-19 -1.34983e-19 -0.0128715)
(3.47331e-19 -2.67583e-19 -0.0128609)
(1.89645e-19 -5.28841e-19 -0.0128493)
(6.06081e-20 -6.24354e-19 -0.0128367)
(-2.67549e-19 -4.58451e-19 -0.0128232)
(1.9742e-19 8.11655e-20 -0.0128087)
(-1.0182e-19 -1.54874e-18 -0.0127933)
(-5.7096e-19 -1.2146e-18 -0.0127771)
(-3.01662e-19 -2.05747e-18 -0.01276)
(-5.52686e-19 -2.08048e-18 -0.0127422)
(-6.74109e-19 -1.8846e-18 -0.0127236)
(-1.80131e-18 -9.4146e-19 -0.0127042)
(-1.44684e-18 -1.57729e-18 -0.0126842)
(-7.63436e-19 2.413e-19 -0.0125681)
(-2.03935e-19 6.90855e-19 -0.0125899)
(-6.99908e-19 -4.84909e-19 -0.0126111)
(-7.88312e-19 1.04517e-18 -0.0126318)
(-6.41889e-19 5.83733e-19 -0.0126518)
(-7.86847e-19 5.42277e-19 -0.0126712)
(-4.00137e-19 1.13372e-18 -0.0126899)
(-1.56209e-18 5.43134e-19 -0.0127078)
(-1.0462e-18 4.06072e-19 -0.0127249)
(-9.91204e-19 6.85281e-19 -0.0127411)
(-7.77321e-19 1.56013e-18 -0.0127565)
(-5.46663e-19 7.16563e-19 -0.012771)
(-1.30523e-18 2.33607e-20 -0.0127846)
(-8.32219e-19 -7.14445e-20 -0.0127972)
(-8.90651e-19 6.33291e-19 -0.0128089)
(-7.02631e-19 1.04569e-18 -0.0128195)
(-4.70236e-19 7.3774e-19 -0.0128292)
(-7.5606e-19 9.72565e-19 -0.0128378)
(-3.56633e-19 1.28394e-18 -0.0128453)
(-3.4709e-19 2.64716e-19 -0.0128518)
(-4.14315e-19 3.48348e-19 -0.0128573)
(-5.56657e-20 6.65264e-19 -0.0128616)
(-5.78581e-19 2.9875e-19 -0.0128649)
(4.79483e-19 9.1504e-19 -0.0128671)
(3.51677e-19 6.30614e-19 -0.0128682)
(5.55431e-19 -1.58352e-19 -0.0128682)
(1.27841e-19 1.02915e-19 -0.0128671)
(6.67847e-19 -3.55849e-19 -0.0128649)
(-4.40403e-19 7.45964e-20 -0.0128616)
(-1.08185e-19 -4.01725e-19 -0.0128573)
(-1.80857e-20 -2.23025e-19 -0.0128518)
(1.47524e-19 -3.88459e-19 -0.0128453)
(-1.40843e-19 -8.36111e-19 -0.0128378)
(-3.69787e-19 -4.04976e-19 -0.0128292)
(-1.10872e-19 -2.26492e-19 -0.0128195)
(1.73465e-19 -2.58231e-19 -0.0128089)
(1.36226e-19 -5.2003e-19 -0.0127972)
(7.0588e-20 -5.73971e-19 -0.0127846)
(-4.84526e-19 -3.22781e-19 -0.012771)
(1.34234e-19 5.16949e-20 -0.0127565)
(3.44932e-19 -1.76489e-18 -0.0127411)
(-5.48905e-19 -1.21896e-18 -0.0127249)
(-1.06246e-19 -2.21426e-18 -0.0127078)
(-6.90858e-19 -1.97318e-18 -0.0126899)
(-3.57265e-19 -2.01722e-18 -0.0126712)
(-1.37221e-18 -1.22664e-18 -0.0126518)
(-1.39108e-18 -1.65299e-18 -0.0126318)
(-1.54102e-18 -1.29443e-18 -0.0126111)
(-1.73749e-18 -6.43962e-19 -0.0125899)
(-2.32368e-18 -1.6412e-18 -0.0125681)
(-8.12538e-19 1.55332e-19 -0.0125151)
(-7.64509e-20 8.06377e-19 -0.0125369)
(-6.16057e-19 -4.29771e-19 -0.0125582)
(-8.04884e-19 9.7554e-19 -0.0125789)
(-3.99361e-19 7.55788e-19 -0.012599)
(-7.22217e-19 5.41108e-19 -0.0126184)
(-4.27025e-19 1.18384e-18 -0.0126371)
(-1.244e-18 8.25949e-19 -0.0126551)
(-1.08583e-18 3.70957e-19 -0.0126722)
(-9.42469e-19 6.712e-19 -0.0126885)
(-1.0426e-18 1.43134e-18 -0.012704)
(-7.14106e-19 7.28961e-19 -0.0127185)
(-9.51925e-19 1.91206e-19 -0.0127321)
(-6.1984e-19 -4.39242e-20 -0.0127448)
(-9.51521e-19 5.88438e-19 -0.0127564)
(-8.98481e-19 9.77673e-19 -0.0127671)
(-4.32755e-19 7.69576e-19 -0.0127768)
(-6.2977e-19 9.77261e-19 -0.0127854)
(-2.97441e-20 1.35636e-18 -0.012793)
(-3.81453e-19 3.19414e-19 -0.0127995)
(-6.27268e-19 3.07697e-19 -0.0128049)
(-2.75648e-19 6.54479e-19 -0.0128093)
(-6.35557e-19 2.54392e-19 -0.0128126)
(4.40768e-19 8.52839e-19 -0.0128148)
(4.84891e-19 6.38519e-19 -0.0128159)
(4.68917e-19 -1.5057e-19 -0.0128159)
(1.0617e-19 7.78062e-20 -0.0128148)
(5.84356e-19 -3.21071e-19 -0.0128126)
(-3.63518e-19 1.27235e-19 -0.0128093)
(-3.43625e-19 -4.26115e-19 -0.0128049)
(-1.53538e-19 -2.23211e-19 -0.0127995)
(7.14682e-20 -3.72331e-19 -0.012793)
(-2.63726e-20 -8.56901e-19 -0.0127854)
(-2.34311e-19 -4.2222e-19 -0.0127768)
(4.42029e-20 -2.71145e-19 -0.0127671)
(9.71148e-20 -2.46114e-19 -0.0127564)
(1.17357e-19 -5.12818e-19 -0.0127448)
(-5.7875e-20 -4.74022e-19 -0.0127321)
(-4.38663e-19 -3.22284e-19 -0.0127185)
(1.97971e-19 -6.21594e-20 -0.012704)
(6.38669e-19 -1.9066e-18 -0.0126885)
(-5.67716e-19 -1.19165e-18 -0.0126722)
(-1.7489e-19 -2.18786e-18 -0.0126551)
(-1.0919e-18 -1.74413e-18 -0.0126371)
(-8.44876e-20 -2.18052e-18 -0.0126184)
(-1.03376e-18 -1.39573e-18 -0.012599)
(-1.46618e-18 -1.63423e-18 -0.0125789)
(-1.39651e-18 -1.36739e-18 -0.0125582)
(-1.21351e-18 -1.05291e-18 -0.0125369)
(-2.17407e-18 -1.81596e-18 -0.0125151)
(-9.01119e-19 1.44406e-20 -0.0124617)
(1.10536e-20 8.69881e-19 -0.0124836)
(-4.64875e-19 -3.02307e-19 -0.0125049)
(-8.64935e-19 8.28496e-19 -0.0125257)
(1.48852e-20 1.03565e-18 -0.0125458)
(-6.83742e-19 5.70587e-19 -0.0125653)
(-3.55871e-19 1.26192e-18 -0.012584)
(-1.06449e-18 1.03363e-18 -0.012602)
(-1.0819e-18 3.69797e-19 -0.0126192)
(-9.15281e-19 6.61504e-19 -0.0126355)
(-1.26971e-18 1.35121e-18 -0.012651)
(-8.64111e-19 6.87186e-19 -0.0126656)
(-4.90676e-19 3.82882e-19 -0.0126792)
(-5.385e-19 -6.71803e-21 -0.0126919)
(-1.22704e-18 5.19792e-19 -0.0127036)
(-1.15549e-18 8.73058e-19 -0.0127143)
(-4.47149e-19 7.47208e-19 -0.0127239)
(-6.89162e-19 9.5409e-19 -0.0127326)
(-1.05768e-19 1.36639e-18 -0.0127402)
(-4.42579e-19 3.66914e-19 -0.0127467)
(-5.46693e-19 3.17632e-19 -0.0127522)
(-4.28277e-19 6.50865e-19 -0.0127566)
(-6.99753e-19 1.96957e-19 -0.0127599)
(2.27906e-19 7.75434e-19 -0.012762)
(5.19704e-19 6.52161e-19 -0.0127631)
(2.96234e-19 -1.30826e-19 -0.0127631)
(1.36847e-19 3.89915e-20 -0.012762)
(4.25366e-19 -3.09926e-19 -0.0127599)
(-1.59471e-19 1.72075e-19 -0.0127566)
(-4.20212e-19 -4.23409e-19 -0.0127522)
(-3.41552e-19 -2.40369e-19 -0.0127467)
(1.89379e-19 -4.24171e-19 -0.0127402)
(1.11127e-19 -8.59733e-19 -0.0127326)
(-2.37651e-19 -4.01789e-19 -0.0127239)
(1.19747e-20 -2.73282e-19 -0.0127143)
(1.82348e-19 -2.91979e-19 -0.0127036)
(3.29655e-19 -5.84359e-19 -0.0126919)
(-2.31159e-20 -4.42519e-19 -0.0126792)
(-8.72115e-21 -4.96253e-19 -0.0126656)
(3.30389e-19 -2.22938e-19 -0.012651)
(7.95609e-19 -1.96211e-18 -0.0126355)
(-3.74081e-19 -1.22244e-18 -0.0126192)
(-3.30858e-19 -2.07821e-18 -0.012602)
(-1.38448e-18 -1.60119e-18 -0.012584)
(-1.42081e-19 -2.2055e-18 -0.0125653)
(-8.78565e-19 -1.43269e-18 -0.0125458)
(-1.6715e-18 -1.48792e-18 -0.0125257)
(-1.40101e-18 -1.41433e-18 -0.0125049)
(-6.29533e-19 -1.54429e-18 -0.0124836)
(-1.82389e-18 -2.06481e-18 -0.0124617)
(-1.03519e-18 -1.55883e-19 -0.0124079)
(-2.11952e-19 6.38128e-19 -0.0124298)
(-3.48501e-19 -1.8365e-19 -0.0124511)
(-9.97331e-19 6.24775e-19 -0.012472)
(1.31222e-19 1.09205e-18 -0.0124921)
(-7.28178e-19 5.58305e-19 -0.0125117)
(-2.73414e-19 1.34374e-18 -0.0125304)
(-1.07562e-18 1.1495e-18 -0.0125485)
(-1.18166e-18 3.39136e-19 -0.0125657)
(-1.06585e-18 5.8679e-19 -0.0125821)
(-1.37436e-18 1.32208e-18 -0.0125976)
(-1.06223e-18 5.78369e-19 -0.0126122)
(-2.45774e-19 4.73313e-19 -0.0126258)
(-2.41246e-19 1.62737e-19 -0.0126386)
(-1.43782e-18 4.80407e-19 -0.0126503)
(-1.17184e-18 8.19566e-19 -0.012661)
(-3.98937e-19 7.51569e-19 -0.0126707)
(-6.94375e-19 9.35731e-19 -0.0126794)
(-2.3614e-19 1.35105e-18 -0.012687)
(-3.45169e-19 4.22633e-19 -0.0126935)
(-4.05519e-19 3.36929e-19 -0.012699)
(-3.53869e-19 6.90752e-19 -0.0127034)
(-8.79082e-19 1.51268e-19 -0.0127067)
(1.97716e-19 6.98841e-19 -0.0127089)
(4.92146e-19 6.54895e-19 -0.01271)
(4.24092e-19 -1.24918e-19 -0.01271)
(1.69868e-19 5.18316e-21 -0.0127089)
(2.66506e-19 -2.94383e-19 -0.0127067)
(-4.4001e-20 2.11343e-19 -0.0127034)
(-4.25957e-19 -4.26236e-19 -0.012699)
(-2.32478e-19 -3.11364e-19 -0.0126935)
(2.80451e-19 -4.85321e-19 -0.012687)
(2.44519e-19 -8.65498e-19 -0.0126794)
(-3.462e-19 -3.34534e-19 -0.0126707)
(7.06005e-20 -3.04391e-19 -0.012661)
(3.14754e-19 -3.80935e-19 -0.0126503)
(4.9552e-19 -6.28666e-19 -0.0126386)
(2.53075e-20 -4.4437e-19 -0.0126258)
(4.39127e-19 -6.90336e-19 -0.0126122)
(2.66416e-19 -2.34905e-19 -0.0125976)
(8.70673e-19 -1.99522e-18 -0.0125821)
(4.72813e-21 -1.34588e-18 -0.0125657)
(-3.58927e-19 -1.99505e-18 -0.0125485)
(-1.47905e-18 -1.5792e-18 -0.0125304)
(-5.38281e-19 -2.01464e-18 -0.0125117)
(-9.82262e-19 -1.26207e-18 -0.0124921)
(-1.91098e-18 -1.32803e-18 -0.012472)
(-1.37854e-18 -1.55904e-18 -0.0124511)
(-5.56645e-19 -1.65131e-18 -0.0124298)
(-1.58356e-18 -2.16218e-18 -0.0124079)
(-1.21915e-18 -3.1412e-19 -0.0123536)
(-3.70001e-19 4.35538e-19 -0.0123755)
(-5.59246e-19 -3.5218e-19 -0.012397)
(-1.18e-18 3.92805e-19 -0.0124178)
(2.90458e-20 9.90449e-19 -0.0124381)
(-7.98152e-19 5.17544e-19 -0.0124576)
(-4.02604e-19 1.28635e-18 -0.0124764)
(-1.01591e-18 1.32536e-18 -0.0124945)
(-1.32601e-18 2.94431e-19 -0.0125118)
(-1.17223e-18 5.13916e-19 -0.0125282)
(-1.27418e-18 1.40011e-18 -0.0125437)
(-1.3226e-18 4.37158e-19 -0.0125584)
(-2.4153e-19 4.0908e-19 -0.0125721)
(8.79721e-21 3.25928e-19 -0.0125848)
(-1.44535e-18 5.49295e-19 -0.0125965)
(-1.22385e-18 7.3854e-19 -0.0126073)
(-1.54996e-19 7.89395e-19 -0.012617)
(-5.07299e-19 9.89338e-19 -0.0126257)
(-4.26451e-19 1.3255e-18 -0.0126333)
(-8.56896e-20 4.86098e-19 -0.0126399)
(-5.94112e-19 3.14601e-19 -0.0126454)
(-1.96855e-20 7.8138e-19 -0.0126498)
(-8.86155e-19 1.13073e-19 -0.0126531)
(2.20026e-19 6.10323e-19 -0.0126553)
(4.26885e-19 6.47419e-19 -0.0126564)
(6.80381e-19 -1.19748e-19 -0.0126564)
(2.26533e-19 1.07425e-23 -0.0126553)
(1.24046e-19 -2.94929e-19 -0.0126531)
(1.19445e-19 2.41765e-19 -0.0126498)
(-3.27002e-19 -4.49334e-19 -0.0126454)
(8.4465e-20 -4.27334e-19 -0.0126399)
(3.51335e-19 -5.31223e-19 -0.0126333)
(1.68942e-19 -7.89865e-19 -0.0126257)
(-6.86894e-19 -2.20461e-19 -0.012617)
(3.06687e-19 -4.20396e-19 -0.0126073)
(4.38285e-19 -4.52229e-19 -0.0125965)
(4.18007e-19 -5.81677e-19 -0.0125848)
(1.50326e-19 -4.92773e-19 -0.0125721)
(4.91981e-19 -6.96561e-19 -0.0125584)
(1.16983e-19 -2.08576e-19 -0.0125437)
(1.01258e-18 -2.10716e-18 -0.0125282)
(2.33477e-19 -1.36902e-18 -0.0125118)
(-3.3592e-19 -1.91045e-18 -0.0124945)
(-1.2854e-18 -1.67411e-18 -0.0124764)
(-9.82885e-19 -1.77756e-18 -0.0124576)
(-1.12484e-18 -1.1126e-18 -0.012438)
(-1.79793e-18 -1.45804e-18 -0.0124178)
(-1.41421e-18 -1.64765e-18 -0.012397)
(-7.27075e-19 -1.54326e-18 -0.0123755)
(-1.69243e-18 -1.9612e-18 -0.0123536)
(-1.24921e-18 -3.15491e-19 -0.0122989)
(-2.27986e-19 5.0492e-19 -0.0123208)
(-7.66751e-19 -4.8233e-19 -0.0123423)
(-1.29163e-18 1.84518e-19 -0.0123632)
(-6.25266e-20 8.7406e-19 -0.0123835)
(-9.59106e-19 4.27683e-19 -0.0124031)
(-7.5899e-19 1.06932e-18 -0.012422)
(-9.88213e-19 1.46803e-18 -0.0124401)