/*--------------------------------*- C++ -*----------------------------------*\
  =========                 |
  \\      /  F ield         | OpenFOAM: The Open Source CFD Toolbox
   \\    /   O peration     | Website:  https://openfoam.org
    \\  /    A nd           | Version:  7
     \\/     M anipulation  |
\*---------------------------------------------------------------------------*/
FoamFile
{
    version     2.0;
    format      ascii;
    class       volScalarField;
    location    "144000";
    object      nut;
}
// * * * * * * * * * * * * * * * * * * * * * * * * * * * * * * * * * * * * * //

dimensions      [0 2 -1 0 0 0 0];

internalField   nonuniform List<scalar> 
4782
(
4.18323e-06
4.0222e-06
3.8629e-06
3.70541e-06
3.54979e-06
3.3961e-06
3.24442e-06
3.09481e-06
2.94736e-06
2.80215e-06
1.25047e-05
1.23082e-05
1.21118e-05
1.19154e-05
1.17193e-05
1.15233e-05
1.13275e-05
1.1132e-05
1.09369e-05
1.0742e-05
1.05476e-05
1.03516e-05
1.01526e-05
9.95309e-06
9.75399e-06
9.55583e-06
9.35885e-06
9.16312e-06
8.96863e-06
8.77534e-06
8.5832e-06
8.39216e-06
8.2022e-06
8.01328e-06
7.82537e-06
7.63849e-06
7.45262e-06
7.26776e-06
7.08394e-06
6.90116e-06
6.71945e-06
6.53883e-06
6.35932e-06
6.18096e-06
6.00377e-06
5.82778e-06
5.65304e-06
5.47958e-06
5.30743e-06
5.13664e-06
4.96725e-06
4.7993e-06
4.63284e-06
4.46792e-06
4.30458e-06
4.14289e-06
3.98288e-06
3.82463e-06
3.6682e-06
3.51363e-06
3.36101e-06
3.21041e-06
3.06188e-06
2.91552e-06
2.77141e-06
1.24277e-05
1.22317e-05
1.20357e-05
1.18399e-05
1.16442e-05
1.14488e-05
1.12536e-05
1.10587e-05
1.08641e-05
1.06699e-05
1.04761e-05
1.02783e-05
1.00792e-05
9.88017e-06
9.68189e-06
9.48472e-06
9.2888e-06
9.09414e-06
8.9007e-06
8.70843e-06
8.51729e-06
8.32722e-06
8.13821e-06
7.95022e-06
7.76324e-06
7.57727e-06
7.39231e-06
7.20838e-06
7.02547e-06
6.84362e-06
6.66284e-06
6.48316e-06
6.30459e-06
6.12719e-06
5.95096e-06
5.77595e-06
5.60219e-06
5.42972e-06
5.25858e-06
5.0888e-06
4.92043e-06
4.75351e-06
4.58809e-06
4.42422e-06
4.26194e-06
4.10131e-06
3.94239e-06
3.78522e-06
3.62988e-06
3.47642e-06
3.32491e-06
3.17542e-06
3.02802e-06
2.88279e-06
2.73981e-06
1.23483e-05
1.21527e-05
1.19573e-05
1.1762e-05
1.15668e-05
1.13719e-05
1.11773e-05
1.0983e-05
1.07891e-05
1.05955e-05
1.04001e-05
1.02018e-05
1.0003e-05
9.80472e-06
9.60751e-06
9.41151e-06
9.21678e-06
9.02327e-06
8.83093e-06
8.63973e-06
8.4496e-06
8.26052e-06
8.07246e-06
7.88541e-06
7.69937e-06
7.51433e-06
7.33031e-06
7.14731e-06
6.96534e-06
6.78443e-06
6.60461e-06
6.42588e-06
6.24829e-06
6.07186e-06
5.89663e-06
5.72262e-06
5.54987e-06
5.37842e-06
5.20831e-06
5.03957e-06
4.87226e-06
4.7064e-06
4.54205e-06
4.37926e-06
4.21808e-06
4.05855e-06
3.90074e-06
3.74469e-06
3.59048e-06
3.43816e-06
3.28779e-06
3.13946e-06
2.99322e-06
2.84916e-06
2.70736e-06
1.22667e-05
1.20716e-05
1.18766e-05
1.16819e-05
1.14873e-05
1.1293e-05
1.1099e-05
1.09043e-05
1.07072e-05
1.05093e-05
1.03115e-05
1.01139e-05
9.91704e-06
9.72094e-06
9.52577e-06
9.33161e-06
9.1385e-06
8.94646e-06
8.75547e-06
8.56552e-06
8.37661e-06
8.1887e-06
8.00179e-06
7.81587e-06
7.63094e-06
7.44702e-06
7.26409e-06
7.08219e-06
6.90133e-06
6.72152e-06
6.5428e-06
6.36518e-06
6.18871e-06
6.01339e-06
5.83927e-06
5.66639e-06
5.49477e-06
5.32446e-06
5.15548e-06
4.98789e-06
4.82173e-06
4.65704e-06
4.49386e-06
4.33224e-06
4.17223e-06
4.01389e-06
3.85727e-06
3.70243e-06
3.54942e-06
3.39832e-06
3.24917e-06
3.10206e-06
2.95706e-06
2.81424e-06
2.67368e-06
1.22667e-05
1.20716e-05
1.18766e-05
1.16819e-05
1.14873e-05
1.1293e-05
1.1099e-05
1.09043e-05
1.07072e-05
1.05093e-05
1.03115e-05
1.01139e-05
9.91704e-06
9.72094e-06
9.52577e-06
9.33161e-06
9.1385e-06
8.94645e-06
8.75547e-06
8.56552e-06
8.3766e-06
8.1887e-06
8.00179e-06
7.81587e-06
7.63094e-06
7.44702e-06
7.26409e-06
7.08219e-06
6.90133e-06
6.72152e-06
6.5428e-06
6.36518e-06
6.1887e-06
6.01339e-06
5.83927e-06
5.66639e-06
5.49477e-06
5.32445e-06
5.15548e-06
4.98789e-06
4.82173e-06
4.65703e-06
4.49385e-06
4.33224e-06
4.17223e-06
4.01389e-06
3.85727e-06
3.70243e-06
3.54942e-06
3.39832e-06
3.24917e-06
3.10206e-06
2.95706e-06
2.81424e-06
2.67368e-06
1.23483e-05
1.21527e-05
1.19573e-05
1.1762e-05
1.15668e-05
1.13719e-05
1.11773e-05
1.0983e-05
1.07891e-05
1.05955e-05
1.04001e-05
1.02018e-05
1.0003e-05
9.80472e-06
9.6075e-06
9.41151e-06
9.21677e-06
9.02327e-06
8.83093e-06
8.63972e-06
8.4496e-06
8.26051e-06
8.07246e-06
7.88541e-06
7.69937e-06
7.51433e-06
7.33031e-06
7.1473e-06
6.96534e-06
6.78443e-06
6.6046e-06
6.42588e-06
6.24829e-06
6.07186e-06
5.89663e-06
5.72262e-06
5.54987e-06
5.37842e-06
5.20831e-06
5.03957e-06
4.87225e-06
4.7064e-06
4.54205e-06
4.37926e-06
4.21808e-06
4.05855e-06
3.90074e-06
3.74469e-06
3.59048e-06
3.43816e-06
3.28779e-06
3.13946e-06
2.99322e-06
2.84916e-06
2.70736e-06
2.5679e-06
2.43086e-06
2.29634e-06
2.16443e-06
1.24277e-05
1.22317e-05
1.20357e-05
1.18399e-05
1.16442e-05
1.14488e-05
1.12536e-05
1.10587e-05
1.08641e-05
1.06699e-05
1.04761e-05
1.02783e-05
1.00792e-05
9.88016e-06
9.68188e-06
9.48472e-06
9.2888e-06
9.09413e-06
8.90069e-06
8.70843e-06
8.51728e-06
8.32722e-06
8.1382e-06
7.95021e-06
7.76323e-06
7.57727e-06
7.39231e-06
7.20837e-06
7.02547e-06
6.84361e-06
6.66283e-06
6.48315e-06
6.30459e-06
6.12718e-06
5.95096e-06
5.77595e-06
5.60219e-06
5.42972e-06
5.25858e-06
5.0888e-06
4.92043e-06
4.75351e-06
4.58809e-06
4.42422e-06
4.26194e-06
4.10131e-06
3.94239e-06
3.78522e-06
3.62988e-06
3.47642e-06
3.32491e-06
3.17542e-06
3.02802e-06
2.88279e-06
2.73981e-06
2.59916e-06
2.46093e-06
2.32522e-06
2.19212e-06
2.06173e-06
1.25047e-05
1.23082e-05
1.21118e-05
1.19154e-05
1.17193e-05
1.15233e-05
1.13275e-05
1.1132e-05
1.09369e-05
1.0742e-05
1.05476e-05
1.03515e-05
1.01526e-05
9.95309e-06
9.75398e-06
9.55582e-06
9.35884e-06
9.16311e-06
8.96862e-06
8.77533e-06
8.58319e-06
8.39216e-06
8.20219e-06
8.01327e-06
7.82537e-06
7.63848e-06
7.45261e-06
7.26776e-06
7.08393e-06
6.90115e-06
6.71944e-06
6.53882e-06
6.35931e-06
6.18095e-06
6.00376e-06
5.82778e-06
5.65304e-06
5.47958e-06
5.30743e-06
5.13664e-06
4.96725e-06
4.7993e-06
4.63284e-06
4.46792e-06
4.30458e-06
4.14288e-06
3.98288e-06
3.82463e-06
3.6682e-06
3.51363e-06
3.36101e-06
3.21041e-06
3.06188e-06
2.91552e-06
2.7714e-06
2.62961e-06
2.49024e-06
2.35337e-06
2.21911e-06
2.08756e-06
1.95883e-06
1.83303e-06
1.71027e-06
1.59068e-06
1.47438e-06
1.3615e-06
1.25218e-06
1.14655e-06
1.04475e-06
9.46894e-07
8.53e-07
7.62692e-07
6.72441e-07
5.82799e-07
4.9808e-07
4.18848e-07
3.457e-07
2.79233e-07
2.19997e-07
1.68434e-07
1.24798e-07
8.90789e-08
6.09485e-08
3.97498e-08
2.45495e-08
1.42418e-08
7.67835e-09
3.79045e-09
1.67628e-09
6.42126e-10
2.01691e-10
4.71857e-11
6.82698e-12
4.04923e-13
3.46655e-15
1.25791e-05
1.23822e-05
1.21853e-05
1.19885e-05
1.17918e-05
1.15953e-05
1.1399e-05
1.1203e-05
1.10072e-05
1.08118e-05
1.06168e-05
1.04221e-05
1.02234e-05
1.00235e-05
9.82366e-06
9.62463e-06
9.42669e-06
9.22997e-06
9.03448e-06
8.84021e-06
8.64711e-06
8.45514e-06
8.26425e-06
8.07442e-06
7.88561e-06
7.69783e-06
7.51107e-06
7.32532e-06
7.1406e-06
6.95692e-06
6.77431e-06
6.59278e-06
6.41235e-06
6.23306e-06
6.05494e-06
5.87802e-06
5.70233e-06
5.52791e-06
5.35479e-06
5.18303e-06
5.01265e-06
4.84371e-06
4.67625e-06
4.51031e-06
4.34596e-06
4.18323e-06
4.02219e-06
3.8629e-06
3.70541e-06
3.54978e-06
3.3961e-06
3.24441e-06
3.09481e-06
2.94736e-06
2.80214e-06
2.65925e-06
2.51877e-06
2.38079e-06
2.24541e-06
2.11274e-06
1.98288e-06
1.85595e-06
1.73207e-06
1.61134e-06
1.49392e-06
1.37992e-06
1.26948e-06
1.16274e-06
1.05984e-06
9.60899e-07
8.65961e-07
7.74737e-07
6.84457e-07
5.93747e-07
5.07939e-07
4.27602e-07
3.5334e-07
2.85764e-07
2.25442e-07
1.72839e-07
1.28238e-07
9.16567e-08
6.27896e-08
4.09947e-08
2.53407e-08
1.47104e-08
7.93429e-09
3.91741e-09
1.73225e-09
6.63308e-10
2.08189e-10
4.86437e-11
7.02191e-12
4.14593e-13
3.51504e-15
1.26508e-05
1.24534e-05
1.22561e-05
1.20589e-05
1.18618e-05
1.16648e-05
1.1468e-05
1.12714e-05
1.10751e-05
1.08791e-05
1.06835e-05
1.04883e-05
1.02911e-05
1.00913e-05
9.89103e-06
9.69121e-06
9.49234e-06
9.29465e-06
9.09819e-06
8.90295e-06
8.70892e-06
8.51602e-06
8.32423e-06
8.13351e-06
7.94384e-06
7.75519e-06
7.56756e-06
7.38094e-06
7.19536e-06
7.01082e-06
6.82733e-06
6.64492e-06
6.46361e-06
6.28344e-06
6.10442e-06
5.92659e-06
5.74998e-06
5.57464e-06
5.4006e-06
5.22789e-06
5.05657e-06
4.88667e-06
4.71825e-06
4.55134e-06
4.38601e-06
4.2223e-06
4.06026e-06
3.89996e-06
3.74146e-06
3.58482e-06
3.43011e-06
3.27739e-06
3.12674e-06
2.97824e-06
2.83198e-06
2.68802e-06
2.54647e-06
2.40742e-06
2.27096e-06
2.13721e-06
2.00627e-06
1.87825e-06
1.75327e-06
1.63146e-06
1.51295e-06
1.39786e-06
1.28634e-06
1.17852e-06
1.07455e-06
9.7456e-07
8.78609e-07
7.86499e-07
6.9619e-07
6.04446e-07
5.17583e-07
4.36173e-07
3.6083e-07
2.92176e-07
2.30797e-07
1.7718e-07
1.31635e-07
9.42062e-08
6.46138e-08
4.22304e-08
2.61273e-08
1.51769e-08
8.18924e-09
4.04395e-09
1.78804e-09
6.84419e-10
2.14662e-10
5.00943e-11
7.21544e-12
4.24151e-13
3.56252e-15
1.27196e-05
1.25219e-05
1.23242e-05
1.21266e-05
1.1929e-05
1.17315e-05
1.15342e-05
1.13372e-05
1.11404e-05
1.09439e-05
1.07477e-05
1.05519e-05
1.03561e-05
1.01564e-05
9.95576e-06
9.75525e-06
9.55555e-06
9.35694e-06
9.15956e-06
8.96341e-06
8.76846e-06
8.57468e-06
8.38202e-06
8.19044e-06
7.99992e-06
7.81043e-06
7.62197e-06
7.43453e-06
7.24811e-06
7.06274e-06
6.87841e-06
6.69516e-06
6.51301e-06
6.33197e-06
6.1521e-06
5.9734e-06
5.79592e-06
5.6197e-06
5.44476e-06
5.27116e-06
5.09893e-06
4.92812e-06
4.75877e-06
4.59094e-06
4.42467e-06
4.26001e-06
4.09702e-06
3.93576e-06
3.77629e-06
3.61867e-06
3.46297e-06
3.30926e-06
3.15762e-06
3.00811e-06
2.86083e-06
2.71586e-06
2.57328e-06
2.4332e-06
2.29571e-06
2.16091e-06
2.02892e-06
1.89986e-06
1.77383e-06
1.65097e-06
1.5314e-06
1.41526e-06
1.3027e-06
1.19384e-06
1.08884e-06
9.87832e-07
8.90903e-07
7.97939e-07
7.07601e-07
6.14859e-07
5.26977e-07
4.44531e-07
3.68143e-07
2.98445e-07
2.3604e-07
1.81438e-07
1.34972e-07
9.67162e-08
6.64131e-08
4.34513e-08
2.69056e-08
1.5639e-08
8.44203e-09
4.16948e-09
1.8434e-09
7.0536e-10
2.21079e-10
5.15308e-11
7.40669e-12
4.33557e-13
3.60882e-15
1.27856e-05
1.25875e-05
1.23894e-05
1.21914e-05
1.19934e-05
1.17955e-05
1.15977e-05
1.14002e-05
1.12029e-05
1.10059e-05
1.08092e-05
1.06129e-05
1.04169e-05
1.02184e-05
1.00178e-05
9.81674e-06
9.61628e-06
9.41682e-06
9.21853e-06
9.02148e-06
8.82565e-06
8.63101e-06
8.4375e-06
8.2451e-06
8.05376e-06
7.86347e-06
7.6742e-06
7.48597e-06
7.29876e-06
7.11258e-06
6.92746e-06
6.7434e-06
6.56044e-06
6.37859e-06
6.19789e-06
6.01837e-06
5.84006e-06
5.66299e-06
5.48721e-06
5.31275e-06
5.13966e-06
4.96797e-06
4.79775e-06
4.62902e-06
4.46185e-06
4.29629e-06
4.13239e-06
3.97021e-06
3.80981e-06
3.65126e-06
3.49462e-06
3.33996e-06
3.18735e-06
3.03688e-06
2.88863e-06
2.74268e-06
2.59912e-06
2.45804e-06
2.31956e-06
2.18376e-06
2.05077e-06
1.9207e-06
1.79366e-06
1.66979e-06
1.54921e-06
1.43207e-06
1.3185e-06
1.20864e-06
1.10265e-06
1.00066e-06
9.02788e-07
8.08995e-07
7.18571e-07
6.24939e-07
5.36079e-07
4.52638e-07
3.75244e-07
3.04541e-07
2.41147e-07
1.85591e-07
1.38234e-07
9.91738e-08
6.8178e-08
4.46508e-08
2.76713e-08
1.60942e-08
8.69124e-09
4.29329e-09
1.898e-09
7.26016e-10
2.27405e-10
5.29453e-11
7.59463e-12
4.42761e-13
3.65371e-15
1.28485e-05
1.26501e-05
1.24517e-05
1.22532e-05
1.20548e-05
1.18565e-05
1.16584e-05
1.14604e-05
1.12626e-05
1.10651e-05
1.08679e-05
1.06711e-05
1.04746e-05
1.02774e-05
1.00769e-05
9.87545e-06
9.67432e-06
9.47406e-06
9.27493e-06
9.07703e-06
8.88035e-06
8.68488e-06
8.49057e-06
8.29737e-06
8.10525e-06
7.91419e-06
7.72416e-06
7.53517e-06
7.3472e-06
7.16026e-06
6.97438e-06
6.78956e-06
6.60583e-06
6.42321e-06
6.24172e-06
6.06141e-06
5.88231e-06
5.70444e-06
5.52785e-06
5.35257e-06
5.17866e-06
5.00614e-06
4.83508e-06
4.66551e-06
4.49749e-06
4.33106e-06
4.16629e-06
4.00324e-06
3.84195e-06
3.68251e-06
3.52496e-06
3.3694e-06
3.21588e-06
3.06449e-06
2.9153e-06
2.76842e-06
2.62392e-06
2.4819e-06
2.34246e-06
2.20571e-06
2.07175e-06
1.94071e-06
1.81271e-06
1.68787e-06
1.56633e-06
1.44822e-06
1.33368e-06
1.22286e-06
1.11592e-06
1.01299e-06
9.14186e-07
8.19496e-07
7.28274e-07
6.34587e-07
5.44803e-07
4.6042e-07
3.82072e-07
3.10412e-07
2.46074e-07
1.89606e-07
1.41393e-07
1.01559e-07
6.98938e-08
4.58191e-08
2.84182e-08
1.65387e-08
8.9348e-09
4.41436e-09
1.95141e-09
7.46212e-10
2.33586e-10
5.4326e-11
7.77766e-12
4.51683e-13
3.69669e-15
1.29083e-05
1.27095e-05
1.25108e-05
1.2312e-05
1.21132e-05
1.19145e-05
1.1716e-05
1.15176e-05
1.13194e-05
1.11214e-05
1.09238e-05
1.07265e-05
1.05295e-05
1.0333e-05
1.01329e-05
9.93122e-06
9.72954e-06
9.52857e-06
9.32866e-06
9.12994e-06
8.93247e-06
8.7362e-06
8.54112e-06
8.34716e-06
8.1543e-06
7.9625e-06
7.77175e-06
7.58203e-06
7.39334e-06
7.20568e-06
7.01908e-06
6.83353e-06
6.64907e-06
6.46572e-06
6.2835e-06
6.10244e-06
5.92258e-06
5.74395e-06
5.5666e-06
5.39055e-06
5.21585e-06
5.04255e-06
4.87069e-06
4.70032e-06
4.53148e-06
4.36424e-06
4.19865e-06
4.03476e-06
3.87263e-06
3.71234e-06
3.55394e-06
3.39751e-06
3.24312e-06
3.09085e-06
2.94079e-06
2.79301e-06
2.64761e-06
2.50469e-06
2.36434e-06
2.22668e-06
2.09181e-06
1.95986e-06
1.83093e-06
1.70517e-06
1.5827e-06
1.46367e-06
1.34821e-06
1.23648e-06
1.12863e-06
1.0248e-06
9.25109e-07
8.29561e-07
7.37581e-07
6.43846e-07
5.53181e-07
4.679e-07
3.88641e-07
3.16067e-07
2.50826e-07
1.93485e-07
1.44449e-07
1.0387e-07
7.15597e-08
4.6955e-08
2.91454e-08
1.69719e-08
9.1724e-09
4.53252e-09
2.00354e-09
7.65924e-10
2.39616e-10
5.56715e-11
7.95571e-12
4.60329e-13
3.73801e-15
1.29648e-05
1.27658e-05
1.25667e-05
1.23676e-05
1.21685e-05
1.19694e-05
1.17705e-05
1.15717e-05
1.13731e-05
1.11748e-05
1.09767e-05
1.07789e-05
1.05815e-05
1.03845e-05
1.01855e-05
9.98396e-06
9.78189e-06
9.58028e-06
9.37963e-06
9.18015e-06
8.9819e-06
8.78488e-06
8.58905e-06
8.39437e-06
8.2008e-06
8.00831e-06
7.81686e-06
7.62646e-06
7.43709e-06
7.24876e-06
7.06147e-06
6.87524e-06
6.69009e-06
6.50604e-06
6.32312e-06
6.14136e-06
5.96079e-06
5.78145e-06
5.60337e-06
5.42659e-06
5.25116e-06
5.07711e-06
4.9045e-06
4.73337e-06
4.56377e-06
4.39575e-06
4.22938e-06
4.0647e-06
3.90178e-06
3.74068e-06
3.58147e-06
3.42423e-06
3.26902e-06
3.11592e-06
2.96501e-06
2.81639e-06
2.67015e-06
2.52637e-06
2.38517e-06
2.24664e-06
2.11091e-06
1.97808e-06
1.84828e-06
1.72165e-06
1.5983e-06
1.47839e-06
1.36207e-06
1.24947e-06
1.14075e-06
1.03606e-06
9.35532e-07
8.39171e-07
7.46471e-07
6.5269e-07
5.6119e-07
4.75055e-07
3.94931e-07
3.21489e-07
2.55388e-07
1.97213e-07
1.47392e-07
1.06099e-07
7.31684e-08
4.80535e-08
2.98496e-08
1.73919e-08
9.4029e-09
4.64721e-09
2.05415e-09
7.85057e-10
2.45467e-10
5.69757e-11
8.128e-12
4.68667e-13
3.77757e-15
1.3018e-05
1.28187e-05
1.26193e-05
1.24199e-05
1.22205e-05
1.20211e-05
1.18218e-05
1.16227e-05
1.14237e-05
1.1225e-05
1.10265e-05
1.08283e-05
1.06305e-05
1.0433e-05
1.02351e-05
1.00336e-05
9.83114e-06
9.62897e-06
9.42766e-06
9.22747e-06
9.02851e-06
8.83078e-06
8.63426e-06
8.4389e-06
8.24466e-06
8.05151e-06
7.85942e-06
7.66837e-06
7.47836e-06
7.28938e-06
7.10145e-06
6.91458e-06
6.72878e-06
6.54409e-06
6.36051e-06
6.17809e-06
5.99686e-06
5.81684e-06
5.63808e-06
5.46062e-06
5.28449e-06
5.10975e-06
4.93643e-06
4.76459e-06
4.59427e-06
4.42552e-06
4.25841e-06
4.09299e-06
3.92933e-06
3.76747e-06
3.6075e-06
3.44949e-06
3.2935e-06
3.13962e-06
2.98793e-06
2.83852e-06
2.69148e-06
2.5469e-06
2.40488e-06
2.26554e-06
2.12899e-06
1.99534e-06
1.86472e-06
1.73726e-06
1.61309e-06
1.49235e-06
1.3752e-06
1.26178e-06
1.15225e-06
1.04675e-06
9.45426e-07
8.48296e-07
7.54917e-07
6.61091e-07
5.68802e-07
4.81862e-07
4.0092e-07
3.26655e-07
2.5974e-07
2.00775e-07
1.50207e-07
1.08234e-07
7.47121e-08
4.91092e-08
3.05272e-08
1.77964e-08
9.62506e-09
4.75779e-09
2.10296e-09
8.03507e-10
2.51106e-10
5.82318e-11
8.29368e-12
4.76659e-13
3.81522e-15
1.30677e-05
1.28682e-05
1.26686e-05
1.24689e-05
1.22692e-05
1.20695e-05
1.18699e-05
1.16704e-05
1.14711e-05
1.1272e-05
1.10731e-05
1.08746e-05
1.06763e-05
1.04785e-05
1.0281e-05
1.00798e-05
9.87721e-06
9.67459e-06
9.47268e-06
9.27184e-06
9.07221e-06
8.87382e-06
8.67665e-06
8.48065e-06
8.28579e-06
8.09202e-06
7.89932e-06
7.70767e-06
7.51706e-06
7.32749e-06
7.13896e-06
6.95148e-06
6.76508e-06
6.57978e-06
6.39559e-06
6.21256e-06
6.0307e-06
5.85006e-06
5.67066e-06
5.49256e-06
5.31579e-06
5.14039e-06
4.96641e-06
4.7939e-06
4.62291e-06
4.45348e-06
4.28569e-06
4.11957e-06
3.95521e-06
3.79265e-06
3.63197e-06
3.47323e-06
3.31652e-06
3.16191e-06
3.00948e-06
2.85933e-06
2.71153e-06
2.5662e-06
2.42343e-06
2.28333e-06
2.14601e-06
2.01159e-06
1.8802e-06
1.75196e-06
1.62702e-06
1.50551e-06
1.38758e-06
1.27339e-06
1.16309e-06
1.05683e-06
9.54759e-07
8.56906e-07
7.6289e-07
6.69021e-07
5.7599e-07
4.88294e-07
4.06584e-07
3.31547e-07
2.63865e-07
2.04154e-07
1.52882e-07
1.10266e-07
7.61831e-08
5.01165e-08
3.11744e-08
1.81832e-08
9.83763e-09
4.86365e-09
2.14968e-09
8.2117e-10
2.56502e-10
5.94329e-11
8.45186e-12
4.84266e-13
3.85085e-15
1.3114e-05
1.29142e-05
1.27144e-05
1.25144e-05
1.23144e-05
1.21145e-05
1.19146e-05
1.17148e-05
1.15152e-05
1.13157e-05
1.11165e-05
1.09176e-05
1.0719e-05
1.05208e-05
1.03229e-05
1.01226e-05
9.92004e-06
9.71708e-06
9.51465e-06
9.31321e-06
9.11295e-06
8.91393e-06
8.71614e-06
8.51955e-06
8.3241e-06
8.12975e-06
7.93649e-06
7.74428e-06
7.55311e-06
7.36298e-06
7.1739e-06
6.98587e-06
6.79891e-06
6.61304e-06
6.42829e-06
6.24468e-06
6.06224e-06
5.88101e-06
5.70103e-06
5.52234e-06
5.34496e-06
5.16896e-06
4.99437e-06
4.82124e-06
4.64962e-06
4.47957e-06
4.31113e-06
4.14438e-06
3.97936e-06
3.81615e-06
3.6548e-06
3.4954e-06
3.33801e-06
3.18272e-06
3.02961e-06
2.87876e-06
2.73027e-06
2.58424e-06
2.44076e-06
2.29995e-06
2.16191e-06
2.02678e-06
1.89467e-06
1.76571e-06
1.64004e-06
1.51781e-06
1.39916e-06
1.28425e-06
1.17324e-06
1.06627e-06
9.635e-07
8.64972e-07
7.70362e-07
6.76452e-07
5.82731e-07
4.94329e-07
4.11902e-07
3.36143e-07
2.67745e-07
2.07337e-07
1.55405e-07
1.12185e-07
7.75737e-08
5.10699e-08
3.17877e-08
1.855e-08
1.00394e-08
4.96416e-09
2.19406e-09
8.37942e-10
2.61625e-10
6.05722e-11
8.6017e-12
4.91452e-13
3.8843e-15
1.31566e-05
1.29567e-05
1.27566e-05
1.25564e-05
1.23562e-05
1.2156e-05
1.19559e-05
1.17558e-05
1.15559e-05
1.13561e-05
1.11566e-05
1.09574e-05
1.07584e-05
1.05598e-05
1.03617e-05
1.01621e-05
9.95955e-06
9.75628e-06
9.55339e-06
9.35142e-06
9.15059e-06
8.951e-06
8.75265e-06
8.5555e-06
8.35951e-06
8.16463e-06
7.97085e-06
7.77812e-06
7.58644e-06
7.3958e-06
7.2062e-06
7.01766e-06
6.83018e-06
6.64379e-06
6.45852e-06
6.27438e-06
6.09141e-06
5.90965e-06
5.72913e-06
5.54988e-06
5.37196e-06
5.1954e-06
5.02024e-06
4.84654e-06
4.67435e-06
4.50371e-06
4.33469e-06
4.16734e-06
4.00172e-06
3.8379e-06
3.67595e-06
3.51593e-06
3.35792e-06
3.202e-06
3.04826e-06
2.89677e-06
2.74764e-06
2.60096e-06
2.45683e-06
2.31536e-06
2.17667e-06
2.04087e-06
1.90809e-06
1.77847e-06
1.65213e-06
1.52923e-06
1.40992e-06
1.29434e-06
1.18266e-06
1.07504e-06
9.71621e-07
8.72468e-07
7.77308e-07
6.83359e-07
5.88999e-07
4.99944e-07
4.16853e-07
3.40426e-07
2.71364e-07
2.10309e-07
1.57763e-07
1.1398e-07
7.88768e-08
5.19643e-08
3.23637e-08
1.88948e-08
1.02291e-08
5.05873e-09
2.23582e-09
8.53724e-10
2.66443e-10
6.16431e-11
8.74237e-12
4.98181e-13
3.91545e-15
1.31956e-05
1.29955e-05
1.27952e-05
1.25949e-05
1.23944e-05
1.2194e-05
1.19936e-05
1.17933e-05
1.15931e-05
1.13931e-05
1.11933e-05
1.09937e-05
1.07945e-05
1.05956e-05
1.03971e-05
1.01982e-05
9.99567e-06
9.79214e-06
9.58884e-06
9.38638e-06
9.18505e-06
8.98494e-06
8.78608e-06
8.58842e-06
8.39194e-06
8.19658e-06
8.00232e-06
7.80912e-06
7.61697e-06
7.42586e-06
7.2358e-06
7.04678e-06
6.85884e-06
6.67197e-06
6.48622e-06
6.3016e-06
6.11815e-06
5.9359e-06
5.75488e-06
5.57514e-06
5.39671e-06
5.21964e-06
5.04397e-06
4.86975e-06
4.69702e-06
4.52586e-06
4.3563e-06
4.18841e-06
4.02224e-06
3.85787e-06
3.69535e-06
3.53477e-06
3.37619e-06
3.2197e-06
3.06537e-06
2.91331e-06
2.76358e-06
2.61631e-06
2.47158e-06
2.32951e-06
2.19022e-06
2.05381e-06
1.92042e-06
1.79019e-06
1.66324e-06
1.53973e-06
1.4198e-06
1.30362e-06
1.19133e-06
1.08311e-06
9.79093e-07
8.79367e-07
7.83703e-07
6.89717e-07
5.94771e-07
5.05118e-07
4.21418e-07
3.44378e-07
2.74706e-07
2.13056e-07
1.59944e-07
1.15644e-07
8.00853e-08
5.27947e-08
3.28989e-08
1.92154e-08
1.04057e-08
5.14676e-09
2.27469e-09
8.68416e-10
2.70927e-10
6.26391e-11
8.87305e-12
5.04417e-13
3.94418e-15
1.32309e-05
1.30306e-05
1.28302e-05
1.26296e-05
1.2429e-05
1.22284e-05
1.20278e-05
1.18272e-05
1.16268e-05
1.14265e-05
1.12265e-05
1.10267e-05
1.08272e-05
1.0628e-05
1.04292e-05
1.02308e-05
1.00283e-05
9.82458e-06
9.62093e-06
9.41805e-06
9.21626e-06
9.0157e-06
8.81637e-06
8.61826e-06
8.42133e-06
8.22554e-06
8.03084e-06
7.83721e-06
7.64464e-06
7.45311e-06
7.26262e-06
7.07318e-06
6.88481e-06
6.69752e-06
6.51134e-06
6.32629e-06
6.1424e-06
5.9597e-06
5.77824e-06
5.59804e-06
5.41916e-06
5.24162e-06
5.06549e-06
4.89079e-06
4.7176e-06
4.54595e-06
4.37591e-06
4.20752e-06
4.04086e-06
3.87599e-06
3.71297e-06
3.55187e-06
3.39278e-06
3.23577e-06
3.08092e-06
2.92832e-06
2.77807e-06
2.63025e-06
2.48499e-06
2.34237e-06
2.20253e-06
2.06557e-06
1.93163e-06
1.80084e-06
1.67334e-06
1.54927e-06
1.42879e-06
1.31205e-06
1.19921e-06
1.09044e-06
9.85891e-07
8.85646e-07
7.89525e-07
6.95504e-07
6.00027e-07
5.09831e-07
4.2558e-07
3.47983e-07
2.77757e-07
2.15566e-07
1.6194e-07
1.17167e-07
8.11928e-08
5.35564e-08
3.33903e-08
1.951e-08
1.0568e-08
5.22772e-09
2.31045e-09
8.81928e-10
2.7505e-10
6.35544e-11
8.99301e-12
5.10129e-13
3.97038e-15
1.32624e-05
1.3062e-05
1.28614e-05
1.26607e-05
1.24599e-05
1.22591e-05
1.20583e-05
1.18575e-05
1.16569e-05
1.14564e-05
1.12562e-05
1.10561e-05
1.08564e-05
1.06569e-05
1.04579e-05
1.02592e-05
1.00573e-05
9.85355e-06
9.64965e-06
9.44642e-06
9.24422e-06
9.04323e-06
8.84349e-06
8.64497e-06
8.44763e-06
8.25144e-06
8.05635e-06
7.86234e-06
7.66939e-06
7.47748e-06
7.28661e-06
7.0968e-06
6.90805e-06
6.72038e-06
6.53381e-06
6.34837e-06
6.16409e-06
5.981e-06
5.79914e-06
5.61854e-06
5.43925e-06
5.2613e-06
5.08475e-06
4.90964e-06
4.73602e-06
4.56394e-06
4.39346e-06
4.22464e-06
4.05754e-06
3.89221e-06
3.72874e-06
3.56719e-06
3.40764e-06
3.25016e-06
3.09484e-06
2.94177e-06
2.79104e-06
2.64275e-06
2.497e-06
2.3539e-06
2.21356e-06
2.07612e-06
1.94168e-06
1.8104e-06
1.6824e-06
1.55783e-06
1.43685e-06
1.31962e-06
1.20629e-06
1.09703e-06
9.91994e-07
8.91283e-07
7.94753e-07
7.00701e-07
6.04748e-07
5.14067e-07
4.29321e-07
3.51226e-07
2.80503e-07
2.17827e-07
1.63739e-07
1.18541e-07
8.21933e-08
5.42452e-08
3.3835e-08
1.97768e-08
1.0715e-08
5.30108e-09
2.34286e-09
8.94173e-10
2.78786e-10
6.43833e-11
9.10154e-12
5.15286e-13
3.99394e-15
1.32901e-05
1.30896e-05
1.28889e-05
1.2688e-05
1.24871e-05
1.22861e-05
1.20851e-05
1.18842e-05
1.16834e-05
1.14827e-05
1.12822e-05
1.1082e-05
1.0882e-05
1.06824e-05
1.04831e-05
1.02842e-05
1.00827e-05
9.87899e-06
9.67489e-06
9.47136e-06
9.26881e-06
9.06746e-06
8.86734e-06
8.66846e-06
8.47077e-06
8.27423e-06
8.0788e-06
7.88445e-06
7.69116e-06
7.49892e-06
7.30773e-06
7.11758e-06
6.9285e-06
6.74049e-06
6.55359e-06
6.36781e-06
6.18318e-06
5.99975e-06
5.81753e-06
5.63658e-06
5.45693e-06
5.27862e-06
5.10171e-06
4.92623e-06
4.75223e-06
4.57978e-06
4.40892e-06
4.23971e-06
4.07222e-06
3.90651e-06
3.74264e-06
3.58069e-06
3.42073e-06
3.26284e-06
3.10711e-06
2.95363e-06
2.80248e-06
2.65376e-06
2.50759e-06
2.36406e-06
2.22329e-06
2.08541e-06
1.95054e-06
1.81882e-06
1.69039e-06
1.56538e-06
1.44397e-06
1.3263e-06
1.21253e-06
1.10284e-06
9.97379e-07
8.96258e-07
7.99369e-07
7.05288e-07
6.08917e-07
5.17808e-07
4.32627e-07
3.54093e-07
2.82933e-07
2.19829e-07
1.65333e-07
1.1976e-07
8.30812e-08
5.48569e-08
3.42302e-08
2.0014e-08
1.08459e-08
5.36637e-09
2.3717e-09
9.05073e-10
2.8211e-10
6.51205e-11
9.19799e-12
5.19862e-13
4.01476e-15
1.3314e-05
1.31133e-05
1.29125e-05
1.27115e-05
1.25104e-05
1.23093e-05
1.21082e-05
1.19071e-05
1.17062e-05
1.15053e-05
1.13047e-05
1.11043e-05
1.09041e-05
1.07043e-05
1.05048e-05
1.03057e-05
1.01046e-05
9.90087e-06
9.69661e-06
9.49281e-06
9.28997e-06
9.08831e-06
8.88788e-06
8.68868e-06
8.49069e-06
8.29385e-06
8.09813e-06
7.90349e-06
7.70992e-06
7.51739e-06
7.32591e-06
7.13548e-06
6.94611e-06
6.75782e-06
6.57062e-06
6.38455e-06
6.19963e-06
6.0159e-06
5.83338e-06
5.65213e-06
5.47217e-06
5.29355e-06
5.11632e-06
4.94052e-06
4.76621e-06
4.59343e-06
4.42224e-06
4.2527e-06
4.08488e-06
3.91882e-06
3.75461e-06
3.59232e-06
3.43201e-06
3.27378e-06
3.11769e-06
2.96385e-06
2.81234e-06
2.66326e-06
2.51672e-06
2.37282e-06
2.23168e-06
2.09343e-06
1.95819e-06
1.82609e-06
1.69728e-06
1.5719e-06
1.45011e-06
1.33206e-06
1.21792e-06
1.10786e-06
1.00203e-06
9.00555e-07
8.03356e-07
7.0925e-07
6.12519e-07
5.21042e-07
4.35486e-07
3.56573e-07
2.85036e-07
2.21563e-07
1.66715e-07
1.20816e-07
8.38517e-08
5.53881e-08
3.45736e-08
2.02203e-08
1.09596e-08
5.42316e-09
2.3968e-09
9.14554e-10
2.85002e-10
6.57615e-11
9.28178e-12
5.23831e-13
4.03276e-15
1.33339e-05
1.31331e-05
1.29322e-05
1.27311e-05
1.253e-05
1.23287e-05
1.21275e-05
1.19263e-05
1.17252e-05
1.15242e-05
1.13235e-05
1.11229e-05
1.09226e-05
1.07226e-05
1.0523e-05
1.03237e-05
1.01229e-05
9.91918e-06
9.71477e-06
9.51076e-06
9.30767e-06
9.10575e-06
8.90505e-06
8.7056e-06
8.50735e-06
8.31027e-06
8.1143e-06
7.91942e-06
7.72561e-06
7.53284e-06
7.34112e-06
7.15046e-06
6.96085e-06
6.77231e-06
6.58487e-06
6.39856e-06
6.21339e-06
6.02941e-06
5.84664e-06
5.66513e-06
5.48492e-06
5.30604e-06
5.12855e-06
4.95249e-06
4.7779e-06
4.60485e-06
4.43339e-06
4.26358e-06
4.09547e-06
3.92914e-06
3.76464e-06
3.60206e-06
3.44146e-06
3.28293e-06
3.12655e-06
2.97241e-06
2.8206e-06
2.67121e-06
2.52437e-06
2.38016e-06
2.23871e-06
2.10015e-06
1.96459e-06
1.83218e-06
1.70305e-06
1.57736e-06
1.45525e-06
1.33689e-06
1.22244e-06
1.11206e-06
1.00593e-06
9.04158e-07
8.067e-07
7.12574e-07
6.15541e-07
5.23755e-07
4.37885e-07
3.58656e-07
2.86802e-07
2.2302e-07
1.67876e-07
1.21706e-07
8.45005e-08
5.58357e-08
3.48631e-08
2.03942e-08
1.10556e-08
5.47108e-09
2.41797e-09
9.22555e-10
2.87441e-10
6.63021e-11
9.35241e-12
5.27172e-13
4.04788e-15
1.33498e-05
1.3149e-05
1.2948e-05
1.27469e-05
1.25456e-05
1.23443e-05
1.2143e-05
1.19417e-05
1.17405e-05
1.15394e-05
1.13385e-05
1.11378e-05
1.09374e-05
1.07373e-05
1.05375e-05
1.03381e-05
1.01376e-05
9.93386e-06
9.72934e-06
9.52516e-06
9.32188e-06
9.11974e-06
8.91884e-06
8.71918e-06
8.52073e-06
8.32344e-06
8.12728e-06
7.93221e-06
7.7382e-06
7.54524e-06
7.35333e-06
7.16247e-06
6.97267e-06
6.78395e-06
6.59631e-06
6.4098e-06
6.22444e-06
6.04026e-06
5.85729e-06
5.67558e-06
5.49516e-06
5.31607e-06
5.13837e-06
4.96209e-06
4.78729e-06
4.61403e-06
4.44235e-06
4.27231e-06
4.10398e-06
3.93742e-06
3.77269e-06
3.60988e-06
3.44905e-06
3.29028e-06
3.13366e-06
2.97928e-06
2.82723e-06
2.6776e-06
2.53051e-06
2.38606e-06
2.24436e-06
2.10555e-06
1.96974e-06
1.83707e-06
1.70769e-06
1.58175e-06
1.45938e-06
1.34077e-06
1.22607e-06
1.11544e-06
1.00906e-06
9.07054e-07
8.09388e-07
7.15245e-07
6.1797e-07
5.25937e-07
4.39816e-07
3.60331e-07
2.88224e-07
2.24194e-07
1.68812e-07
1.22423e-07
8.50238e-08
5.61968e-08
3.50968e-08
2.05347e-08
1.11331e-08
5.5098e-09
2.43508e-09
9.2902e-10
2.89412e-10
6.67388e-11
9.40942e-12
5.29867e-13
4.06004e-15
1.33618e-05
1.3161e-05
1.29599e-05
1.27587e-05
1.25574e-05
1.2356e-05
1.21546e-05
1.19532e-05
1.1752e-05
1.15508e-05
1.13498e-05
1.11491e-05
1.09486e-05
1.07484e-05
1.05485e-05
1.0349e-05
1.01487e-05
9.9449e-06
9.7403e-06
9.53599e-06
9.33255e-06
9.13026e-06
8.9292e-06
8.72939e-06
8.53079e-06
8.33335e-06
8.13704e-06
7.94182e-06
7.74767e-06
7.55457e-06
7.36252e-06
7.17151e-06
6.98157e-06
6.7927e-06
6.60492e-06
6.41826e-06
6.23275e-06
6.04842e-06
5.8653e-06
5.68343e-06
5.50286e-06
5.32362e-06
5.14575e-06
4.96932e-06
4.79436e-06
4.62093e-06
4.44908e-06
4.27888e-06
4.11038e-06
3.94365e-06
3.77875e-06
3.61576e-06
3.45476e-06
3.29581e-06
3.13901e-06
2.98445e-06
2.83221e-06
2.68241e-06
2.53513e-06
2.39049e-06
2.24861e-06
2.1096e-06
1.97361e-06
1.84075e-06
1.71118e-06
1.58504e-06
1.46249e-06
1.34369e-06
1.2288e-06
1.11798e-06
1.01142e-06
9.09231e-07
8.11403e-07
7.17211e-07
6.19795e-07
5.27577e-07
4.41267e-07
3.61592e-07
2.89294e-07
2.25077e-07
1.69517e-07
1.22963e-07
8.54182e-08
5.64691e-08
3.52731e-08
2.06407e-08
1.11917e-08
5.53903e-09
2.448e-09
9.339e-10
2.90899e-10
6.70683e-11
9.45243e-12
5.31897e-13
4.06918e-15
1.33698e-05
1.3169e-05
1.29679e-05
1.27666e-05
1.25652e-05
1.23638e-05
1.21624e-05
1.1961e-05
1.17596e-05
1.15584e-05
1.13574e-05
1.11566e-05
1.0956e-05
1.07557e-05
1.05558e-05
1.03562e-05
1.0156e-05
9.95227e-06
9.74761e-06
9.54321e-06
9.33968e-06
9.13729e-06
8.93613e-06
8.73621e-06
8.5375e-06
8.33997e-06
8.14356e-06
7.94824e-06
7.75399e-06
7.5608e-06
7.36865e-06
7.17755e-06
6.98751e-06
6.79854e-06
6.61067e-06
6.42391e-06
6.2383e-06
6.05387e-06
5.87065e-06
5.68868e-06
5.508e-06
5.32865e-06
5.15069e-06
4.97414e-06
4.79908e-06
4.62554e-06
4.45358e-06
4.28327e-06
4.11465e-06
3.94781e-06
3.7828e-06
3.61969e-06
3.45857e-06
3.29951e-06
3.14259e-06
2.9879e-06
2.83555e-06
2.68561e-06
2.53821e-06
2.39345e-06
2.25144e-06
2.11231e-06
1.97619e-06
1.84321e-06
1.71351e-06
1.58725e-06
1.46457e-06
1.34563e-06
1.23062e-06
1.11968e-06
1.01299e-06
9.10679e-07
8.12733e-07
7.18435e-07
6.21007e-07
5.28666e-07
4.42231e-07
3.6243e-07
2.90007e-07
2.25665e-07
1.69987e-07
1.23323e-07
8.56813e-08
5.66509e-08
3.53907e-08
2.07114e-08
1.12307e-08
5.55855e-09
2.45663e-09
9.37159e-10
2.91892e-10
6.72882e-11
9.48111e-12
5.33249e-13
4.07523e-15
1.33738e-05
1.31729e-05
1.29718e-05
1.27706e-05
1.25692e-05
1.23677e-05
1.21663e-05
1.19648e-05
1.17635e-05
1.15622e-05
1.13612e-05
1.11603e-05
1.09597e-05
1.07594e-05
1.05595e-05
1.03599e-05
1.01597e-05
9.95596e-06
9.75127e-06
9.54683e-06
9.34325e-06
9.1408e-06
8.93959e-06
8.73962e-06
8.54086e-06
8.34328e-06
8.14682e-06
7.95146e-06
7.75716e-06
7.56392e-06
7.37172e-06
7.18057e-06
6.99048e-06
6.80147e-06
6.61354e-06
6.42674e-06
6.24108e-06
6.05659e-06
5.87332e-06
5.6913e-06
5.51057e-06
5.33118e-06
5.15316e-06
4.97656e-06
4.80144e-06
4.62784e-06
4.45583e-06
4.28546e-06
4.11679e-06
3.94989e-06
3.78482e-06
3.62166e-06
3.46048e-06
3.30135e-06
3.14438e-06
2.98963e-06
2.83721e-06
2.68722e-06
2.53976e-06
2.39493e-06
2.25286e-06
2.11367e-06
1.97748e-06
1.84444e-06