/*--------------------------------*- C++ -*----------------------------------*\
  =========                 |
  \\      /  F ield         | OpenFOAM: The Open Source CFD Toolbox
   \\    /   O peration     | Website:  https://openfoam.org
    \\  /    A nd           | Version:  7
     \\/     M anipulation  |
\*---------------------------------------------------------------------------*/
FoamFile
{
    version     2.0;
    format      ascii;
    class       volScalarField;
    location    "144000";
    object      p;
}
// * * * * * * * * * * * * * * * * * * * * * * * * * * * * * * * * * * * * * //

dimensions      [0 2 -2 0 0 0 0];

internalField   nonuniform List<scalar> 
4782
(
-8.83468e-19
-8.83783e-19
-8.84022e-19
-8.8475e-19
-8.86185e-19
-8.83007e-19
-8.80583e-19
-8.82408e-19
-8.83873e-19
-8.81287e-19
-8.82609e-19
-8.80317e-19
-8.92024e-19
-8.91042e-19
-8.84585e-19
-8.9753e-19
-8.88394e-19
-8.73984e-19
-8.76939e-19
-8.72352e-19
-8.73891e-19
-8.79502e-19
-8.81019e-19
-8.79586e-19
-8.78261e-19
-8.79574e-19
-8.79036e-19
-8.7615e-19
-8.75618e-19
-8.69189e-19
-8.73338e-19
-8.84254e-19
-8.91204e-19
-8.77448e-19
-8.72601e-19
-8.66247e-19
-8.66222e-19
-8.73582e-19
-8.76616e-19
-8.74221e-19
-8.69212e-19
-8.68168e-19
-8.77738e-19
-8.7619e-19
-8.74796e-19
-8.70008e-19
-8.73486e-19
-8.77359e-19
-8.71143e-19
-8.7144e-19
-8.77371e-19
-8.72195e-19
-8.71907e-19
-8.7971e-19
-8.79099e-19
-8.72188e-19
-8.69669e-19
-8.68227e-19
-8.76077e-19
-8.77254e-19
-8.76529e-19
-8.7451e-19
-8.69736e-19
-8.68186e-19
-8.75546e-19
-9.08342e-19
-9.09817e-19
-9.01779e-19
-9.00083e-19
-8.98843e-19
-8.9818e-19
-9.02263e-19
-9.01426e-19
-8.9701e-19
-9.05717e-19
-8.94001e-19
-8.92145e-19
-8.92651e-19
-8.89567e-19
-8.84496e-19
-8.94354e-19
-8.99131e-19
-8.98101e-19
-8.88194e-19
-8.88808e-19
-8.85295e-19
-8.89233e-19
-8.86302e-19
-8.81345e-19
-8.81257e-19
-8.84245e-19
-8.80379e-19
-8.70243e-19
-8.80627e-19
-8.85861e-19
-8.81165e-19
-8.79722e-19
-8.84068e-19
-8.81477e-19
-8.76158e-19
-8.7455e-19
-8.82484e-19
-8.85251e-19
-8.79352e-19
-8.77293e-19
-8.75023e-19
-8.80116e-19
-8.74943e-19
-8.77237e-19
-8.7385e-19
-8.76981e-19
-8.79518e-19
-8.77604e-19
-8.76083e-19
-8.76762e-19
-8.77202e-19
-8.80244e-19
-8.77297e-19
-8.74485e-19
-8.74397e-19
-8.94622e-19
-8.78819e-19
-8.85673e-19
-8.83743e-19
-8.77926e-19
-8.80576e-19
-8.81698e-19
-8.85662e-19
-8.9886e-19
-8.89619e-19
-8.84326e-19
-8.79924e-19
-8.68735e-19
-8.65732e-19
-8.75992e-19
-8.80414e-19
-8.82532e-19
-8.79145e-19
-8.76857e-19
-8.67982e-19
-8.70566e-19
-8.70084e-19
-8.73596e-19
-8.76894e-19
-8.76243e-19
-8.77986e-19
-8.72577e-19
-8.70834e-19
-8.6826e-19
-8.70606e-19
-8.7616e-19
-8.6901e-19
-8.72279e-19
-8.69545e-19
-8.67749e-19
-8.64789e-19
-8.73922e-19
-8.7225e-19
-8.70486e-19
-8.69973e-19
-8.69701e-19
-8.69057e-19
-8.68977e-19
-8.6613e-19
-8.67728e-19
-8.73309e-19
-8.69909e-19
-8.69005e-19
-8.70772e-19
-8.66611e-19
-8.64297e-19
-8.67288e-19
-8.68152e-19
-8.68828e-19
-8.6686e-19
-8.94608e-19
-9.02818e-19
-9.03446e-19
-8.94259e-19
-8.91155e-19
-8.86079e-19
-8.89835e-19
-8.98994e-19
-8.98536e-19
-8.9925e-19
-8.9106e-19
-8.8628e-19
-8.86142e-19
-8.95128e-19
-8.96112e-19
-8.92695e-19
-8.91534e-19
-8.94319e-19
-8.86731e-19
-8.9083e-19
-8.93863e-19
-8.91387e-19
-8.7966e-19
-8.83985e-19
-8.87018e-19
-8.8722e-19
-8.74855e-19
-8.81924e-19
-8.84599e-19
-8.8742e-19
-8.87319e-19
-8.77178e-19
-8.76535e-19
-8.89742e-19
-8.81131e-19
-8.735e-19
-8.79122e-19
-8.82627e-19
-8.80495e-19
-8.80764e-19
-8.75975e-19
-8.72253e-19
-8.71986e-19
-8.71709e-19
-8.76445e-19
-8.77064e-19
-8.81377e-19
-8.79042e-19
-8.71961e-19
-8.75639e-19
-8.75144e-19
-8.73961e-19
-8.72843e-19
-8.73218e-19
-8.74775e-19
-8.95867e-19
-8.8866e-19
-8.90427e-19
-8.919e-19
-8.93278e-19
-8.95747e-19
-8.94983e-19
-8.964e-19
-8.88168e-19
-8.76887e-19
-8.87185e-19
-8.95581e-19
-8.93284e-19
-8.80471e-19
-8.74731e-19
-8.79708e-19
-8.86279e-19
-8.8004e-19
-8.84321e-19
-8.80223e-19
-8.86715e-19
-8.8105e-19
-8.88831e-19
-8.85415e-19
-8.82496e-19
-8.83337e-19
-8.9398e-19
-8.81697e-19
-8.75588e-19
-8.77266e-19
-8.79629e-19
-8.79664e-19
-8.81557e-19
-8.6997e-19
-8.77717e-19
-8.8456e-19
-8.79608e-19
-8.78171e-19
-8.78085e-19
-8.77996e-19
-8.7758e-19
-8.78133e-19
-8.79645e-19
-8.82094e-19
-8.75984e-19
-8.75518e-19
-8.69424e-19
-8.70048e-19
-8.74681e-19
-8.71021e-19
-8.70528e-19
-8.70773e-19
-8.71745e-19
-8.72327e-19
-8.70197e-19
-8.93097e-19
-9.01338e-19
-8.93447e-19
-8.92745e-19
-8.94386e-19
-8.97226e-19
-9.02421e-19
-8.98076e-19
-8.8204e-19
-8.86211e-19
-8.94814e-19
-8.97379e-19
-9.06236e-19
-9.10437e-19
-9.01475e-19
-8.90729e-19
-8.82884e-19
-8.87058e-19
-8.89552e-19
-8.9727e-19
-8.91741e-19
-8.88266e-19
-8.87694e-19
-8.86809e-19
-8.83906e-19
-8.79908e-19
-8.8509e-19
-8.80842e-19
-8.84167e-19
-8.76629e-19
-8.747e-19
-8.80028e-19
-8.82364e-19
-8.84049e-19
-8.83013e-19
-8.84197e-19
-8.77082e-19
-8.75609e-19
-8.76902e-19
-8.76899e-19
-8.75988e-19
-8.74823e-19
-8.7403e-19
-8.78722e-19
-8.74444e-19
-8.68236e-19
-8.7381e-19
-8.72352e-19
-8.70146e-19
-8.73045e-19
-8.75133e-19
-8.70098e-19
-8.72398e-19
-8.71407e-19
-8.73764e-19
-8.73798e-19
-8.71261e-19
-8.6998e-19
-8.71996e-19
-8.96273e-19
-8.93522e-19
-8.88238e-19
-8.89806e-19
-8.90169e-19
-8.88116e-19
-8.85953e-19
-8.92187e-19
-8.874e-19
-8.74268e-19
-8.84219e-19
-8.8365e-19
-8.79821e-19
-8.7806e-19
-8.84744e-19
-8.75486e-19
-8.71868e-19
-8.71394e-19
-8.73918e-19
-8.73412e-19
-8.77531e-19
-8.72941e-19
-8.74918e-19
-8.77702e-19
-8.73114e-19
-8.69742e-19
-8.79036e-19
-8.8648e-19
-8.73983e-19
-8.65214e-19
-8.66525e-19
-8.69984e-19
-8.64326e-19
-8.67854e-19
-8.76299e-19
-8.76811e-19
-8.65464e-19
-8.62148e-19
-8.68244e-19
-8.6527e-19
-8.66478e-19
-8.64138e-19
-8.67984e-19
-8.65618e-19
-8.68329e-19
-8.68044e-19
-8.64593e-19
-8.66186e-19
-8.67689e-19
-8.65662e-19
-8.67565e-19
-8.65046e-19
-8.63553e-19
-8.6484e-19
-8.66175e-19
-8.65364e-19
-8.67582e-19
-8.68744e-19
-8.69754e-19
-8.66696e-19
-8.96954e-19
-8.9848e-19
-8.92203e-19
-8.88674e-19
-8.95788e-19
-8.88886e-19
-8.93609e-19
-8.93353e-19
-8.85884e-19
-8.78765e-19
-8.77227e-19
-8.85127e-19
-8.9425e-19
-8.8663e-19
-8.84906e-19
-8.81471e-19
-8.80733e-19
-8.82653e-19
-8.81653e-19
-8.86424e-19
-8.8138e-19
-8.69391e-19
-8.64622e-19
-8.76786e-19
-8.74335e-19
-8.81717e-19
-8.83868e-19
-8.72335e-19
-8.65716e-19
-8.68998e-19
-8.74263e-19
-8.73895e-19
-8.63133e-19
-8.64372e-19
-8.65577e-19
-8.68517e-19
-8.62288e-19
-8.58892e-19
-8.6836e-19
-8.69106e-19
-8.63441e-19
-8.69395e-19
-8.7001e-19
-8.63339e-19
-8.64036e-19
-8.7209e-19
-8.72575e-19
-8.72871e-19
-8.68296e-19
-8.69258e-19
-8.67901e-19
-8.67643e-19
-8.70188e-19
-8.69067e-19
-8.66955e-19
-8.66435e-19
-8.66522e-19
-8.71251e-19
-8.68507e-19
-8.67946e-19
-8.64704e-19
-8.64186e-19
-8.65461e-19
-8.68424e-19
-8.67711e-19
-8.64669e-19
-8.66768e-19
-8.66205e-19
-8.66872e-19
-8.66748e-19
-8.67318e-19
-8.68253e-19
-8.67219e-19
-8.67654e-19
-8.67028e-19
-8.67465e-19
-8.67994e-19
-8.68553e-19
-8.6794e-19
-8.68056e-19
-8.68189e-19
-8.6784e-19
-8.67823e-19
-8.6801e-19
-8.67782e-19
-8.6823e-19
-8.68028e-19
-8.67818e-19
-8.68093e-19
-8.68256e-19
-8.68241e-19
-8.681e-19
-8.68069e-19
-8.68014e-19
-8.67994e-19
-8.68495e-19
-8.77082e-19
-8.77615e-19
-8.73938e-19
-8.58248e-19
-8.64189e-19
-8.64787e-19
-8.71158e-19
-8.65891e-19
-8.67537e-19
-8.66554e-19
-8.63232e-19
-8.66696e-19
-8.7043e-19
-8.67129e-19
-8.66416e-19
-8.66424e-19
-8.58993e-19
-8.68091e-19
-8.74567e-19
-8.71273e-19
-8.68346e-19
-8.64515e-19
-8.63301e-19
-8.62801e-19
-8.62138e-19
-8.62934e-19
-8.68443e-19
-8.66584e-19
-8.60408e-19
-8.56913e-19
-8.60536e-19
-8.60927e-19
-8.63832e-19
-8.5974e-19
-8.60975e-19
-8.63051e-19
-8.60882e-19
-8.56669e-19
-8.53391e-19
-8.54232e-19
-8.56526e-19
-8.55498e-19
-8.55258e-19
-8.54907e-19
-8.5711e-19
-8.56834e-19
-8.57323e-19
-8.56606e-19
-8.54736e-19
-8.57808e-19
-8.59963e-19
-8.57978e-19
-8.57432e-19
-8.59687e-19
-8.58787e-19
-8.59907e-19
-8.57954e-19
-8.58886e-19
-8.58167e-19
-8.57715e-19
-8.59505e-19
-8.58342e-19
-8.60601e-19
-8.64008e-19
-8.61655e-19
-8.60283e-19
-8.61183e-19
-8.60543e-19
-8.61688e-19
-8.62115e-19
-8.62364e-19
-8.61325e-19
-8.61002e-19
-8.61511e-19
-8.618e-19
-8.61724e-19
-8.62328e-19
-8.61996e-19
-8.62171e-19
-8.62821e-19
-8.62252e-19
-8.6264e-19
-8.62749e-19
-8.62817e-19
-8.62489e-19
-8.6236e-19
-8.62613e-19
-8.62509e-19
-8.62709e-19
-8.62761e-19
-8.62544e-19
-8.62751e-19
-8.6278e-19
-8.62761e-19
-8.93168e-19
-8.98827e-19
-9.00636e-19
-8.93007e-19
-8.91881e-19
-8.87277e-19
-8.86892e-19
-8.92657e-19
-8.88116e-19
-8.90542e-19
-8.77605e-19
-8.74579e-19
-8.90365e-19
-8.93281e-19
-8.83728e-19
-8.73264e-19
-8.76179e-19
-8.8115e-19
-8.71857e-19
-8.7158e-19
-8.72692e-19
-8.72508e-19
-8.71147e-19
-8.68662e-19
-8.70685e-19
-8.68997e-19
-8.6409e-19
-8.66725e-19
-8.649e-19
-8.7184e-19
-8.70912e-19
-8.6822e-19
-8.69069e-19
-8.66654e-19
-8.7086e-19
-8.83379e-19
-8.74078e-19
-8.70966e-19
-8.69699e-19
-8.70857e-19
-8.69509e-19
-8.69577e-19
-8.71303e-19
-8.70311e-19
-8.69134e-19
-8.67778e-19
-8.60694e-19
-8.61709e-19
-8.64926e-19
-8.70571e-19
-8.65286e-19
-8.65873e-19
-8.68252e-19
-8.70631e-19
-8.68436e-19
-8.66222e-19
-8.68342e-19
-8.68329e-19
-8.66201e-19
-8.67323e-19
-8.63744e-19
-8.64748e-19
-8.65551e-19
-8.64588e-19
-8.66371e-19
-8.66628e-19
-8.67147e-19
-8.68889e-19
-8.68408e-19
-8.6775e-19
-8.66632e-19
-8.66268e-19
-8.66932e-19
-8.67583e-19
-8.68287e-19
-8.6736e-19
-8.67484e-19
-8.67905e-19
-8.68197e-19
-8.68611e-19
-8.68358e-19
-8.67907e-19
-8.67851e-19
-8.68466e-19
-8.6832e-19
-8.67779e-19
-8.67842e-19
-8.68043e-19
-8.68076e-19
-8.68276e-19
-8.68305e-19
-8.68164e-19
-8.6805e-19
-8.682e-19
-8.68195e-19
-8.68499e-19
-8.72493e-19
-8.64987e-19
-8.7419e-19
-8.65503e-19
-8.63231e-19
-8.70443e-19
-8.71664e-19
-8.79106e-19
-8.77692e-19
-8.65376e-19
-8.67561e-19
-8.73636e-19
-8.72198e-19
-8.65414e-19
-8.70209e-19
-8.70018e-19
-8.64902e-19
-8.71816e-19
-8.67934e-19
-8.66763e-19
-8.60965e-19
-8.59889e-19
-8.56316e-19
-8.6248e-19
-8.64922e-19
-8.57577e-19
-8.60923e-19
-8.64456e-19
-8.73021e-19
-8.65284e-19
-8.6332e-19
-8.62408e-19
-8.69968e-19
-8.63427e-19
-8.59381e-19
-8.63651e-19
-8.65961e-19
-8.71236e-19
-8.62973e-19
-8.65262e-19
-8.66501e-19
-8.67371e-19
-8.64759e-19
-8.6334e-19
-8.66047e-19
-8.67208e-19
-8.65772e-19
-8.60437e-19
-8.62534e-19
-8.62631e-19
-8.63181e-19
-8.62901e-19
-8.64809e-19
-8.63949e-19
-8.61166e-19
-8.64376e-19
-8.62315e-19
-8.62982e-19
-8.64856e-19
-8.64593e-19
-8.61437e-19
-8.61825e-19
-8.6357e-19
-8.62612e-19
-8.6411e-19
-8.64101e-19
-8.63258e-19
-8.62575e-19
-8.63934e-19
-8.6362e-19
-8.63232e-19
-8.64048e-19
-8.6321e-19
-8.6343e-19
-8.63794e-19
-8.63324e-19
-8.6341e-19
-8.62579e-19
-8.62923e-19
-8.6294e-19
-8.63503e-19
-8.63602e-19
-8.63401e-19
-8.63424e-19
-8.63247e-19
-8.63263e-19
-8.63129e-19
-8.63167e-19
-8.6327e-19
-8.63355e-19
-8.63324e-19
-8.6323e-19
-8.63237e-19
-8.63282e-19
-9.01282e-19
-8.88801e-19
-8.79467e-19
-8.8122e-19
-8.69511e-19
-8.7654e-19
-8.77216e-19
-8.70438e-19
-8.78123e-19
-8.84893e-19
-8.74937e-19
-8.76171e-19
-8.80963e-19
-8.78012e-19
-8.76514e-19
-8.705e-19
-8.74579e-19
-8.78905e-19
-8.68865e-19
-8.73637e-19
-8.72147e-19
-8.75438e-19
-8.81274e-19
-8.71614e-19
-8.78434e-19
-8.73587e-19
-8.67794e-19
-8.7467e-19
-8.76783e-19
-8.81094e-19
-8.79299e-19
-8.74693e-19
-8.74537e-19
-8.75701e-19
-8.77402e-19
-8.75998e-19
-8.75837e-19
-8.71976e-19
-8.75518e-19
-8.79121e-19
-8.67305e-19
-8.68057e-19
-8.72635e-19
-8.73761e-19
-8.72529e-19
-8.70494e-19
-8.7353e-19
-8.73129e-19
-8.69705e-19
-8.74082e-19
-8.75755e-19
-8.73049e-19
-8.70991e-19
-8.73525e-19
-8.74591e-19
-8.72382e-19
-8.70064e-19
-8.71769e-19
-8.72931e-19
-8.70394e-19
-8.67961e-19
-8.68833e-19
-8.69915e-19
-8.6902e-19
-8.68449e-19
-8.67658e-19
-8.6759e-19
-8.68114e-19
-8.6848e-19
-8.6794e-19
-8.67435e-19
-8.68299e-19
-8.68469e-19
-8.67167e-19
-8.68084e-19
-8.67741e-19
-8.68233e-19
-8.68424e-19
-8.68618e-19
-8.68227e-19
-8.68717e-19
-8.68309e-19
-8.67954e-19
-8.68212e-19
-8.68537e-19
-8.68132e-19
-8.67703e-19
-8.68074e-19
-8.68028e-19
-8.68046e-19
-8.68178e-19
-8.68195e-19
-8.68145e-19
-8.68125e-19
-8.6811e-19
-8.69781e-19
-8.74488e-19
-8.73569e-19
-8.66204e-19
-8.54793e-19
-8.61131e-19
-8.65429e-19
-8.61349e-19
-8.60117e-19
-8.65774e-19
-8.46316e-19
-8.51527e-19
-8.52816e-19
-8.52402e-19
-8.54477e-19
-8.5197e-19
-8.52885e-19
-8.57592e-19
-8.50788e-19
-8.54865e-19
-8.56183e-19
-8.53882e-19
-8.56932e-19
-8.56406e-19
-8.51654e-19
-8.54704e-19
-8.58162e-19
-8.60474e-19
-8.60879e-19
-8.54217e-19
-8.58383e-19
-8.61066e-19
-8.59357e-19
-8.53731e-19
-8.63515e-19
-8.69001e-19
-8.6468e-19
-8.56497e-19
-8.58315e-19
-8.62314e-19
-8.65092e-19
-8.64485e-19
-8.64144e-19
-8.6093e-19
-8.66874e-19
-8.64221e-19
-8.64518e-19
-8.67902e-19
-8.6892e-19
-8.66052e-19
-8.60233e-19
-8.64182e-19
-8.66435e-19
-8.66093e-19
-8.64247e-19
-8.65012e-19
-8.67801e-19
-8.65419e-19
-8.64605e-19
-8.6462e-19
-8.62618e-19
-8.62041e-19
-8.65427e-19
-8.65927e-19
-8.64096e-19
-8.64337e-19
-8.65141e-19
-8.64489e-19
-8.64945e-19
-8.65053e-19
-8.64761e-19
-8.65445e-19
-8.654e-19
-8.65919e-19
-8.65596e-19
-8.65329e-19
-8.65169e-19
-8.65766e-19
-8.65763e-19
-8.66051e-19
-8.65253e-19
-8.65583e-19
-8.6606e-19
-8.66099e-19
-8.65785e-19
-8.65534e-19
-8.65793e-19
-8.66148e-19
-8.66336e-19
-8.66043e-19
-8.65922e-19
-8.65938e-19
-8.66035e-19
-8.66034e-19
-8.66022e-19
-9.02462e-19
-8.99105e-19
-8.98264e-19
-8.87895e-19
-8.78338e-19
-8.93432e-19
-8.85602e-19
-8.82938e-19
-8.87654e-19
-8.80081e-19
-8.75104e-19
-8.79255e-19
-8.73491e-19
-8.67223e-19
-8.76544e-19
-8.76147e-19
-8.76249e-19
-8.78711e-19
-8.74375e-19
-8.71513e-19
-8.78795e-19
-8.82437e-19
-8.76697e-19
-8.74134e-19
-8.68504e-19
-8.78277e-19
-8.782e-19
-8.74011e-19
-8.72189e-19
-8.71448e-19
-8.69375e-19
-8.6557e-19
-8.6887e-19
-8.62503e-19
-8.68583e-19
-8.72108e-19
-8.65244e-19
-8.6241e-19
-8.65882e-19
-8.71414e-19
-8.76302e-19
-8.7145e-19
-8.6647e-19
-8.68859e-19
-8.72792e-19
-8.67062e-19
-8.70945e-19
-8.70484e-19
-8.68095e-19
-8.6909e-19
-8.69555e-19
-8.69801e-19
-8.69309e-19
-8.6937e-19
-8.68968e-19
-8.70034e-19
-8.67598e-19
-8.68748e-19
-8.71103e-19
-8.72247e-19
-8.71421e-19
-8.73798e-19
-8.72422e-19
-8.70452e-19
-8.68655e-19
-8.70759e-19
-8.71702e-19
-8.71146e-19
-8.71832e-19
-8.72976e-19
-8.71961e-19
-8.7208e-19
-8.71193e-19
-8.71599e-19
-8.71447e-19
-8.71025e-19
-8.7154e-19
-8.71779e-19
-8.72048e-19
-8.71794e-19
-8.71704e-19
-8.71721e-19
-8.71732e-19
-8.7151e-19
-8.71044e-19
-8.71461e-19
-8.71628e-19
-8.71646e-19
-8.71918e-19
-8.71699e-19
-8.71698e-19
-8.71763e-19
-8.71699e-19
-8.71671e-19
-8.71678e-19
-8.63892e-19
-8.60341e-19
-8.67398e-19
-8.72137e-19
-8.76283e-19
-8.68752e-19
-8.70766e-19
-8.58757e-19
-8.64984e-19
-8.70627e-19
-8.60964e-19
-8.69029e-19
-8.6229e-19
-8.56487e-19
-8.68653e-19
-8.60582e-19
-8.64184e-19
-8.65731e-19
-8.56212e-19
-8.54004e-19
-8.46794e-19
-8.55581e-19
-8.5255e-19
-8.51327e-19
-8.54528e-19
-8.51438e-19
-8.44644e-19
-8.57073e-19
-8.5297e-19
-8.57504e-19
-8.55378e-19
-8.51503e-19
-8.50149e-19
-8.5687e-19
-8.57752e-19
-8.64649e-19
-8.59492e-19
-8.62059e-19
-8.576e-19
-8.5822e-19
-8.59335e-19
-8.59274e-19
-8.60037e-19
-8.65727e-19
-8.632e-19
-8.60314e-19
-8.60392e-19
-8.62382e-19
-8.64226e-19
-8.64025e-19
-8.64317e-19
-8.6348e-19
-8.61563e-19
-8.64413e-19
-8.67388e-19
-8.66645e-19
-8.65881e-19
-8.65093e-19
-8.65938e-19
-8.65518e-19
-8.66624e-19
-8.68365e-19
-8.6814e-19
-8.68169e-19
-8.66402e-19
-8.66176e-19
-8.67291e-19
-8.68239e-19
-8.68475e-19
-8.67354e-19
-8.66753e-19
-8.68918e-19
-8.68095e-19
-8.67083e-19
-8.67708e-19
-8.68095e-19
-8.68038e-19
-8.67956e-19
-8.68736e-19
-8.68824e-19
-8.67909e-19
-8.68001e-19
-8.68423e-19
-8.68552e-19
-8.68525e-19
-8.68615e-19
-8.68678e-19
-8.68672e-19
-8.68633e-19
-8.68786e-19
-8.68768e-19
-8.68882e-19
-8.688e-19
-8.68826e-19
-8.68809e-19
-8.85563e-19
-8.89948e-19
-8.89179e-19
-8.83301e-19
-8.8155e-19
-8.8602e-19
-8.90084e-19
-8.74673e-19
-8.73021e-19
-8.74812e-19
-8.71455e-19
-8.65207e-19
-8.63126e-19
-8.71334e-19
-8.66595e-19
-8.65013e-19
-8.56664e-19
-8.55063e-19
-8.69179e-19
-8.70575e-19
-8.68595e-19
-8.67474e-19
-8.72862e-19
-8.69082e-19
-8.61705e-19
-8.62739e-19
-8.67204e-19
-8.75101e-19
-8.71594e-19
-8.69614e-19
-8.68176e-19
-8.67645e-19
-8.68021e-19
-8.70072e-19
-8.72609e-19
-8.66804e-19
-8.73734e-19
-8.6722e-19
-8.65713e-19
-8.70766e-19
-8.71145e-19
-8.71932e-19
-8.71515e-19
-8.74342e-19
-8.73151e-19
-8.64746e-19
-8.73764e-19
-8.75397e-19
-8.72248e-19
-8.7032e-19
-8.71987e-19
-8.71785e-19
-8.73717e-19
-8.72105e-19
-8.74022e-19
-8.73734e-19
-8.7583e-19
-8.75623e-19
-8.75696e-19
-8.75165e-19
-8.75209e-19
-8.7488e-19
-8.77653e-19
-8.78363e-19
-8.76869e-19
-8.78516e-19
-8.78677e-19
-8.7812e-19
-8.78507e-19
-8.78373e-19
-8.78132e-19
-8.76933e-19
-8.77048e-19
-8.77054e-19
-8.78028e-19
-8.78689e-19
-8.78611e-19
-8.78781e-19
-8.79352e-19
-8.7915e-19
-8.79374e-19
-8.78714e-19
-8.78806e-19
-8.79107e-19
-8.79003e-19
-8.78827e-19
-8.78595e-19
-8.78836e-19
-8.78978e-19
-8.79011e-19
-8.78925e-19
-8.78981e-19
-8.79044e-19
-8.79033e-19
-8.78997e-19
-8.67783e-19
-8.75317e-19
-8.71375e-19
-8.65886e-19
-8.62279e-19
-8.5807e-19
-8.65631e-19
-8.7141e-19
-8.71334e-19
-8.62391e-19
-8.64969e-19
-8.67165e-19
-8.65914e-19
-8.58166e-19
-8.5714e-19
-8.58738e-19
-8.62954e-19
-8.54261e-19
-8.59756e-19
-8.52961e-19
-8.54996e-19
-8.6249e-19
-8.65957e-19
-8.55694e-19
-8.57886e-19
-8.67957e-19
-8.71341e-19
-8.6156e-19
-8.58553e-19
-8.6664e-19
-8.67241e-19
-8.6576e-19
-8.622e-19
-8.61144e-19
-8.65817e-19
-8.65083e-19
-8.65666e-19
-8.67806e-19
-8.65288e-19
-8.63049e-19
-8.66708e-19
-8.65207e-19
-8.6811e-19
-8.68616e-19
-8.71773e-19
-8.696e-19
-8.67401e-19
-8.66002e-19
-8.71646e-19
-8.73176e-19
-8.70243e-19
-8.67844e-19
-8.7088e-19
-8.72992e-19
-8.74762e-19
-8.73305e-19
-8.72547e-19
-8.70134e-19
-8.70735e-19
-8.73325e-19
-8.70928e-19
-8.73446e-19
-8.73064e-19
-8.71873e-19
-8.73366e-19
-8.73588e-19
-8.73317e-19
-8.72925e-19
-8.73149e-19
-8.73785e-19
-8.73079e-19
-8.72359e-19
-8.73216e-19
-8.73008e-19
-8.72706e-19
-8.73397e-19
-8.74188e-19
-8.74337e-19
-8.73397e-19
-8.73464e-19
-8.73836e-19
-8.73445e-19
-8.73431e-19
-8.73807e-19
-8.73862e-19
-8.73613e-19
-8.73544e-19
-8.73648e-19
-8.73943e-19
-8.74033e-19
-8.73948e-19
-8.73711e-19
-8.73872e-19
-8.73966e-19
-8.73941e-19
-8.894e-19
-8.88758e-19
-8.74202e-19
-8.75185e-19
-8.7746e-19
-8.74083e-19
-8.72043e-19
-8.8128e-19
-8.77431e-19
-8.76961e-19
-8.7999e-19
-8.86552e-19
-8.90364e-19
-8.81252e-19
-8.76715e-19
-8.76515e-19
-8.81473e-19
-8.81752e-19
-8.80516e-19
-8.87583e-19
-8.84683e-19
-8.83529e-19
-8.85774e-19
-8.8597e-19
-8.85181e-19
-8.86478e-19
-8.85038e-19
-8.92298e-19
-8.83707e-19
-8.80789e-19
-8.78078e-19
-8.84201e-19
-8.84245e-19
-8.88746e-19
-8.82627e-19
-8.82689e-19
-8.87625e-19
-8.8021e-19
-8.81065e-19
-8.86153e-19
-8.85246e-19
-8.84487e-19
-8.85189e-19
-8.87276e-19
-8.86334e-19
-8.86734e-19
-8.84264e-19
-8.84588e-19
-8.86448e-19
-8.86392e-19
-8.83148e-19
-8.87295e-19
-8.88048e-19
-8.8275e-19
-8.8337e-19
-8.84513e-19
-8.86621e-19
-8.83204e-19
-8.83414e-19
-8.88146e-19
-8.88584e-19
-8.83956e-19
-8.83709e-19
-8.85261e-19
-8.86448e-19
-8.85662e-19
-8.84427e-19
-8.85387e-19
-8.86037e-19
-8.85696e-19
-8.85564e-19
-8.84469e-19
-8.86023e-19
-8.86693e-19
-8.85547e-19
-8.85699e-19
-8.86454e-19
-8.85881e-19
-8.85321e-19
-8.85772e-19
-8.86141e-19
-8.85899e-19
-8.85928e-19
-8.86007e-19
-8.8586e-19
-8.86074e-19
-8.86114e-19
-8.85983e-19
-8.85944e-19
-8.85954e-19
-8.85945e-19
-8.85898e-19
-8.85935e-19
-8.85965e-19
-8.85988e-19
-8.89305e-19
-8.77429e-19
-8.79853e-19
-8.76424e-19
-8.83453e-19
-8.81012e-19
-8.77377e-19
-8.70315e-19
-8.79544e-19
-8.74333e-19
-8.69055e-19
-8.71974e-19
-8.73411e-19
-8.76455e-19
-8.76245e-19
-8.77901e-19
-8.7644e-19
-8.73798e-19
-8.81548e-19
-8.83421e-19
-8.83775e-19
-8.84026e-19
-8.82886e-19
-8.80811e-19
-8.75982e-19
-8.74048e-19
-8.68477e-19
-8.75334e-19
-8.79346e-19
-8.73802e-19
-8.73794e-19
-8.71635e-19
-8.70438e-19
-8.68671e-19
-8.73455e-19
-8.75404e-19
-8.7791e-19
-8.76686e-19
-8.75724e-19
-8.80491e-19
-8.7966e-19
-8.7645e-19
-8.78394e-19
-8.79878e-19
-8.80305e-19
-8.76678e-19
-8.79022e-19
-8.79184e-19
-8.79838e-19
-8.75328e-19
-8.7796e-19
-8.80716e-19
-8.78338e-19
-8.77975e-19
-8.78051e-19
-8.82685e-19
-8.8193e-19
-8.79294e-19
-8.78815e-19
-8.7775e-19
-8.77272e-19
-8.77351e-19
-8.77361e-19
-8.77695e-19
-8.79087e-19
-8.79836e-19
-8.78672e-19
-8.78435e-19
-8.7832e-19
-8.7879e-19
-8.79345e-19
-8.78672e-19
-8.78053e-19
-8.78146e-19
-8.79203e-19
-8.78782e-19
-8.78687e-19
-8.79318e-19
-8.78642e-19
-8.78357e-19
-8.77935e-19
-8.78603e-19
-8.78994e-19
-8.78542e-19
-8.78698e-19
-8.78934e-19
-8.78884e-19
-8.7896e-19
-8.78917e-19
-8.78761e-19
-8.78874e-19
-8.78888e-19
-8.788e-19
-8.78781e-19
-8.78787e-19
-8.94657e-19
-8.80351e-19
-8.78415e-19
-8.83675e-19
-8.95041e-19
-8.91805e-19
-8.87794e-19
-8.85352e-19
-8.85576e-19
-8.79412e-19
-8.83028e-19
-8.82544e-19
-8.86327e-19
-8.80898e-19
-8.85829e-19
-8.86815e-19
-8.87834e-19
-8.86003e-19
-8.86241e-19
-8.8551e-19
-8.90423e-19
-8.85179e-19
-8.84122e-19
-8.87955e-19
-8.8825e-19
-8.85614e-19
-8.84e-19
-8.85109e-19
-8.85458e-19
-8.87474e-19
-8.89544e-19
-8.88209e-19
-8.82398e-19
-8.81357e-19
-8.86809e-19
-8.86353e-19
-8.84531e-19
-8.89582e-19
-8.91519e-19
-8.89786e-19
-8.85141e-19
-8.87252e-19
-8.88708e-19
-8.87649e-19
-8.84791e-19
-8.87532e-19
-8.88176e-19
-8.89453e-19
-8.90478e-19
-8.88446e-19
-8.91758e-19
-8.91294e-19
-8.90624e-19
-8.90549e-19
-8.90541e-19
-8.90847e-19
-8.90239e-19
-8.89456e-19
-8.8839e-19
-8.90237e-19
-8.8952e-19
-8.91971e-19
-8.90191e-19
-8.89002e-19
-8.88834e-19
-8.90164e-19
-8.88496e-19
-8.89381e-19
-8.89287e-19
-8.90809e-19
-8.91481e-19
-8.90495e-19
-8.89867e-19
-8.90101e-19
-8.90232e-19
-8.90328e-19
-8.90682e-19
-8.90914e-19
-8.90467e-19
-8.90786e-19
-8.90542e-19
-8.90516e-19
-8.9093e-19
-8.90769e-19
-8.90248e-19
-8.90602e-19
-8.90856e-19
-8.90362e-19
-8.90514e-19
-8.90572e-19
-8.90574e-19
-8.90639e-19
-8.9055e-19
-8.90605e-19
-8.90592e-19
-8.78813e-19
-8.7706e-19
-8.74961e-19
-8.74787e-19
-8.73987e-19
-8.84075e-19
-8.7555e-19
-8.7572e-19
-8.78831e-19
-8.85939e-19
-8.82066e-19
-8.88752e-19
-8.85887e-19
-8.80781e-19
-8.82595e-19
-8.91183e-19
-8.89733e-19
-8.88344e-19
-8.90818e-19
-8.86625e-19
-8.876e-19
-8.84763e-19
-8.90595e-19
-8.88343e-19
-8.87029e-19
-8.83096e-19
-8.8085e-19
-8.83625e-19
-8.86732e-19
-8.89815e-19
-8.79991e-19
-8.81265e-19
-8.83962e-19
-8.83918e-19
-8.83095e-19
-8.84405e-19
-8.83801e-19
-8.80283e-19
-8.80932e-19
-8.81101e-19
-8.87254e-19
-8.90617e-19
-8.84445e-19
-8.83438e-19
-8.86483e-19
-8.84823e-19
-8.84649e-19
-8.85904e-19
-8.86206e-19
-8.88413e-19
-8.8778e-19
-8.90087e-19
-8.86502e-19
-8.8604e-19
-8.84536e-19
-8.85456e-19
-8.87976e-19
-8.89698e-19
-8.88978e-19
-8.88154e-19
-8.88408e-19
-8.86873e-19
-8.86552e-19
-8.86016e-19
-8.85754e-19
-8.85929e-19
-8.86595e-19
-8.86615e-19
-8.85868e-19
-8.852e-19
-8.85889e-19
-8.85932e-19
-8.86154e-19
-8.86209e-19
-8.85855e-19
-8.86102e-19
-8.86082e-19
-8.85603e-19
-8.85592e-19
-8.85924e-19
-8.85707e-19
-8.85851e-19
-8.8576e-19
-8.85519e-19
-8.85798e-19
-8.85803e-19
-8.85628e-19
-8.85681e-19
-8.85504e-19
-8.85537e-19
-8.85627e-19
-8.85512e-19
-8.85565e-19
-8.85633e-19
-8.85688e-19
-8.82268e-19
-8.90276e-19
-8.9482e-19
-8.97442e-19
-8.90339e-19
-8.85008e-19
-8.87733e-19
-8.88341e-19
-8.92558e-19
-8.94853e-19
-8.91892e-19
-8.92461e-19
-8.98526e-19
-9.02908e-19
-8.9869e-19
-8.91057e-19
-8.87702e-19
-8.92369e-19
-8.90443e-19
-8.9253e-19
-8.92004e-19
-8.88023e-19
-8.86583e-19
-8.86138e-19
-8.87089e-19
-8.89427e-19
-8.86711e-19
-8.85821e-19
-8.84155e-19
-8.84965e-19
-8.91419e-19
-8.88392e-19
-8.8593e-19
-8.88959e-19
-8.93534e-19
-8.9112e-19
-8.90326e-19
-8.88214e-19
-8.89049e-19
-8.92028e-19
-8.90304e-19
-8.91963e-19
-8.93928e-19
-8.88536e-19
-8.92096e-19
-8.92242e-19
-8.90942e-19
-8.9386e-19
-8.95913e-19
-8.93177e-19
-8.93864e-19
-8.95398e-19
-8.9483e-19
-8.93042e-19
-8.9438e-19
-8.92802e-19
-8.94425e-19
-8.94657e-19
-8.92433e-19
-8.89965e-19
-8.91977e-19
-8.93956e-19
-8.92183e-19
-8.91668e-19
-8.91859e-19
-8.93357e-19
-8.93693e-19
-8.93284e-19
-8.92758e-19
-8.93712e-19
-8.94056e-19
-8.9296e-19
-8.9222e-19
-8.92144e-19
-8.9229e-19
-8.92334e-19
-8.9182e-19
-8.92345e-19
-8.92866e-19
-8.92745e-19
-8.92261e-19
-8.92329e-19
-8.92333e-19
-8.92337e-19
-8.92126e-19
-8.92066e-19
-8.92189e-19
-8.92308e-19
-8.92215e-19
-8.92206e-19
-8.92215e-19
-8.92203e-19
-8.92095e-19
-8.9207e-19
-8.92133e-19
-8.80661e-19
-8.90252e-19
-8.88854e-19
-8.74302e-19
-8.79267e-19
-8.87203e-19
-8.89321e-19
-8.84726e-19
-8.85739e-19
-8.91057e-19
-8.83257e-19
-8.80645e-19
-8.77671e-19
-8.75264e-19
-8.72284e-19
-8.76822e-19
-8.76955e-19
-8.74789e-19
-8.76045e-19
-8.76898e-19
-8.73612e-19
-8.7274e-19
-8.75137e-19
-8.77638e-19
-8.77632e-19
-8.79966e-19
-8.82451e-19
-8.82241e-19
-8.82336e-19
-8.79851e-19
-8.82094e-19
-8.78938e-19
-8.79179e-19
-8.82356e-19
-8.8194e-19
-8.80626e-19
-8.81014e-19
-8.82715e-19
-8.84281e-19
-8.83978e-19
-8.90739e-19
-8.91366e-19
-8.91011e-19
-8.87754e-19
-8.87365e-19
-8.86289e-19
-8.87576e-19
-8.87882e-19
-8.89548e-19
-8.8941e-19
-8.88392e-19
-8.88685e-19
-8.88902e-19
-8.85431e-19
-8.87526e-19
-8.87037e-19
-8.86251e-19
-8.86342e-19
-8.88405e-19
-8.87384e-19
-8.87317e-19
-8.8762e-19
-8.8817e-19
-8.87983e-19
-8.87102e-19
-8.86667e-19
-8.87355e-19
-8.87295e-19
-8.86872e-19
-8.8722e-19
-8.86526e-19
-8.8648e-19
-8.86327e-19
-8.85943e-19
-8.86377e-19
-8.8627e-19
-8.86546e-19
-8.86394e-19
-8.86299e-19
-8.86671e-19
-8.86508e-19
-8.86307e-19
-8.86339e-19
-8.86462e-19
-8.86446e-19
-8.8651e-19
-8.86558e-19
-8.86628e-19
-8.86653e-19
-8.86624e-19
-8.86532e-19
-8.86518e-19
-8.86535e-19
-8.86558e-19
-8.8658e-19
-8.88913e-19
-8.88666e-19
-8.84497e-19
-8.86003e-19
-8.90986e-19
-8.87923e-19
-8.84831e-19
-8.82668e-19
-8.83607e-19
-8.87687e-19
-8.91601e-19
-8.94521e-19
-8.91373e-19
-8.89612e-19
-8.91209e-19
-8.88028e-19
-8.91034e-19
-8.96167e-19
-8.92874e-19
-8.90926e-19
-8.92098e-19
-8.94001e-19
-8.9251e-19
-8.92589e-19
-8.96392e-19
-8.9515e-19
-8.89404e-19
-8.91051e-19
-8.92779e-19
-8.93805e-19
-8.9461e-19
-8.9159e-19
-8.90354e-19
-8.92371e-19
-8.91833e-19
-8.91036e-19
-8.88877e-19
-8.92935e-19
-8.95228e-19
-8.90966e-19
-8.88885e-19
-8.87852e-19
-8.90425e-19
-8.93587e-19
-8.96121e-19
-8.95901e-19
-8.96683e-19
-8.98425e-19
-8.96157e-19
-8.96277e-19
-8.97849e-19
-8.97559e-19
-8.96817e-19
-8.9564e-19
-8.97845e-19
-8.99077e-19
-8.98433e-19
-8.97415e-19
-8.96262e-19
-8.96849e-19
-8.96391e-19
-8.95574e-19
-8.94722e-19
-8.95896e-19
-8.95742e-19
-8.95268e-19
-8.94492e-19
-8.94292e-19
-8.95124e-19
-8.94371e-19
-8.95213e-19
-8.95543e-19
-8.95333e-19
-8.9456e-19
-8.93984e-19
-8.94016e-19
-8.94074e-19
-8.94709e-19
-8.94973e-19
-8.94388e-19
-8.94024e-19
-8.93969e-19
-8.93797e-19
-8.93967e-19
-8.94132e-19
-8.93897e-19
-8.93688e-19
-8.93611e-19
-8.93822e-19
-8.93762e-19
-8.93654e-19
-8.93619e-19
-8.93616e-19
-8.93625e-19
-8.93626e-19
-9.03738e-19
-9.00655e-19
-8.96884e-19
-8.99469e-19
-8.94085e-19
-8.92146e-19
-8.9357e-19
-8.96251e-19
-8.90196e-19
-8.90789e-19
-8.91283e-19
-8.87375e-19
-8.84372e-19
-8.86331e-19
-8.86979e-19
-8.88376e-19
-8.89547e-19
-8.85603e-19
-8.81412e-19
-8.82668e-19
-8.85512e-19
-8.8765e-19
-8.91446e-19
-8.91143e-19
-8.87693e-19
-8.86761e-19
-8.8742e-19
-8.87997e-19
-8.86003e-19
-8.83903e-19
-8.85725e-19
-8.83395e-19
-8.82537e-19
-8.8426e-19
-8.8736e-19
-8.88505e-19
-8.88491e-19
-8.91672e-19
-8.91959e-19
-8.88393e-19
-8.85906e-19
-8.8879e-19
-8.90629e-19
-8.87591e-19
-8.89307e-19
-8.88463e-19
-8.88791e-19
-8.8876e-19
-8.88966e-19
-8.89406e-19
-8.90081e-19
-8.89338e-19
-8.89101e-19
-8.90123e-19
-8.90581e-19
-8.90498e-19
-8.89899e-19
-8.89978e-19
-8.90934e-19
-8.91952e-19
-8.91738e-19
-8.89734e-19
-8.90405e-19
-8.90051e-19
-8.89779e-19
-8.90503e-19
-8.88778e-19
-8.89237e-19
-8.8833e-19
-8.87986e-19
-8.89009e-19
-8.88936e-19
-8.88701e-19
-8.88587e-19
-8.88458e-19
-8.88191e-19
-8.88091e-19
-8.88306e-19
-8.88514e-19
-8.88466e-19
-8.88169e-19
-8.87959e-19
-8.88072e-19
-8.88121e-19
-8.87877e-19
-8.87869e-19
-8.87804e-19
-8.87955e-19
-8.87946e-19
-8.87786e-19
-8.87792e-19
-8.87849e-19
-8.87866e-19
-8.8787e-19
-8.8786e-19
-8.95736e-19
-8.89877e-19
-8.93325e-19
-8.96508e-19
-9.03155e-19
-9.01936e-19
-8.9422e-19
-8.95732e-19
-8.99512e-19
-8.99253e-19
-8.97253e-19
-8.93471e-19
-8.97371e-19
-9.00561e-19
-9.01029e-19
-9.03931e-19
-9.00264e-19
-8.98918e-19
-8.99822e-19
-8.98272e-19
-8.96105e-19
-8.94142e-19
-8.87759e-19
-8.92819e-19
-8.95225e-19
-8.93792e-19
-8.92937e-19
-8.90069e-19
-8.94422e-19
-8.93477e-19
-8.92302e-19
-8.92065e-19
-8.91975e-19
-8.90857e-19
-8.87553e-19
-8.914e-19
-8.95255e-19
-8.90497e-19
-8.9151e-19
-8.87636e-19
-8.89311e-19
-8.90345e-19
-8.90764e-19
-8.9025e-19
-8.90751e-19
-8.92216e-19
-8.91275e-19
-8.90101e-19
-8.91315e-19
-8.89689e-19
-8.90912e-19
-8.91056e-19
-8.91769e-19
-8.9225e-19
-8.91493e-19
-8.91289e-19
-8.91847e-19
-8.9172e-19
-8.91855e-19
-8.91789e-19
-8.91858e-19
-8.91529e-19
-8.91944e-19
-8.92273e-19
-8.92621e-19
-8.92249e-19
-8.92092e-19
-8.92139e-19
-8.92624e-19
-8.9208e-19
-8.91507e-19
-8.92301e-19
-8.92024e-19
-8.9171e-19
-8.92204e-19
-8.92204e-19
-8.92166e-19
-8.92483e-19
-8.92566e-19
-8.92269e-19
-8.92357e-19
-8.92413e-19
-8.92092e-19
-8.92117e-19
-8.92321e-19
-8.92271e-19
-8.92329e-19
-8.92209e-19
-8.92189e-19
-8.92144e-19
-8.92173e-19
-8.92258e-19
-8.92284e-19
-8.92241e-19
-8.92247e-19
-8.96039e-19
-9.01027e-19
-9.00337e-19
-8.95267e-19
-8.92784e-19
-8.91283e-19
-8.91805e-19
-8.92221e-19
-8.83613e-19
-8.81303e-19
-8.8184e-19
-8.85245e-19
-8.84209e-19
-8.86039e-19
-8.85468e-19
-8.83517e-19
-8.88237e-19
-8.89716e-19
-8.82239e-19
-8.87939e-19
-8.91469e-19
-8.87405e-19
-8.80498e-19
-8.85258e-19
-8.88041e-19
-8.88042e-19
-8.87513e-19
-8.8646e-19
-8.87829e-19
-8.8412e-19
-8.8439e-19
-8.82932e-19
-8.84895e-19
-8.8711e-19
-8.88474e-19
-8.83817e-19
-8.8465e-19
-8.87533e-19
-8.89641e-19
-8.85782e-19
-8.82304e-19
-8.81158e-19
-8.83221e-19
-8.82911e-19
-8.84449e-19
-8.84992e-19
-8.84874e-19
-8.85016e-19
-8.85713e-19
-8.84654e-19
-8.82749e-19
-8.83834e-19
-8.83788e-19
-8.83964e-19
-8.8232e-19
-8.83635e-19
-8.84873e-19
-8.84867e-19
-8.85514e-19
-8.8411e-19
-8.8519e-19
-8.8652e-19
-8.84835e-19
-8.84939e-19
-8.85095e-19
-8.85765e-19