/*--------------------------------*- C++ -*----------------------------------*\
  =========                 |
  \\      /  F ield         | OpenFOAM: The Open Source CFD Toolbox
   \\    /   O peration     | Website:  https://openfoam.org
    \\  /    A nd           | Version:  7
     \\/     M anipulation  |
\*---------------------------------------------------------------------------*/
FoamFile
{
    version     2.0;
    format      ascii;
    class       surfaceScalarField;
    location    "272000";
    object      phi;
}
// * * * * * * * * * * * * * * * * * * * * * * * * * * * * * * * * * * * * * //

dimensions      [0 3 -1 0 0 0 0];

internalField   nonuniform List<scalar> 
9540
(
-8.05351e-23
-2.52831e-23
4.85893e-23
-8.29577e-24
-7.31881e-23
-1.53108e-23
6.26571e-23
-5.25858e-23
1.23797e-23
-9.179e-24
-6.92213e-23
-2.76705e-23
4.05469e-23
-5.93139e-23
3.6443e-24
-5.25617e-23
-5.70317e-24
-4.054e-23
1.84483e-23
8.31222e-24
-5.88491e-23
-5.07716e-24
4.04794e-23
-5.78858e-23
7.61343e-24
-4.91352e-23
-8.90404e-24
-4.90438e-23
2.36229e-23
-3.41239e-23
2.70402e-23
2.45573e-23
-5.63546e-23
1.81165e-23
3.70008e-23
-6.01486e-23
1.42992e-23
-4.16077e-23
1.23172e-23
-4.95274e-23
3.05474e-23
-2.33708e-23
4.58927e-23
-2.41115e-23
3.33976e-23
1.00131e-22
-6.38142e-23
-7.28417e-23
2.88245e-23
-5.63005e-23
8.39184e-24
-4.80423e-23
4.48583e-23
-3.62235e-23
4.16358e-23
-3.33315e-23
5.18567e-23
-7.13899e-24
5.82439e-23
-2.89006e-23
8.84648e-23
-3.26452e-23
9.36558e-23
3.49833e-23
-5.01208e-23
-2.70575e-23
4.76034e-23
-4.24729e-23
-1.75383e-24
-5.22756e-23
5.49974e-23
-3.70795e-23
6.06723e-23
-2.66747e-23
4.91726e-23
-5.0906e-25
7.59101e-23
-2.59921e-23
3.88205e-23
-5.13132e-23
3.4772e-23
-6.35255e-23
4.31008e-23
4.65283e-23
-3.44816e-23
-1.08062e-23
5.31261e-23
-3.48742e-23
3.53873e-23
-4.60514e-23
2.2376e-23
-4.17905e-23
6.03724e-23
-1.95893e-23
6.99022e-23
-8.76815e-24
6.18699e-23
-3.15753e-23
5.48695e-23
-5.06379e-23
4.51236e-23
-5.68907e-23
4.60553e-23
-4.56486e-23
3.84789e-23
-6.12113e-23
1.58198e-23
-5.48567e-23
2.77929e-23
-6.21894e-23
1.88132e-24
-2.08181e-23
-2.42711e-23
3.93493e-23
5.10772e-23
-3.9498e-23
2.99882e-24
-3.43085e-23
1.05917e-23
-4.86233e-23
-3.74319e-24
-2.06049e-23
4.48623e-23
-1.34714e-23
5.0435e-23
-3.94088e-23
7.16664e-23
-4.85099e-23
4.06365e-23
-6.2405e-23
9.68992e-24
-5.07879e-23
2.37398e-23
-5.0453e-23
1.31369e-23
-6.55537e-23
-4.57531e-24
-6.41121e-23
2.86911e-23
-8.64791e-23
3.39302e-23
-9.22135e-23
1.37721e-23
-9.67486e-23
3.06166e-23
-9.39597e-23
5.63823e-23
7.15998e-23
-2.6972e-23
2.20136e-23
4.24054e-23
-3.70098e-23
9.21781e-24
-3.90428e-23
1.5266e-24
-3.91393e-23
2.53288e-23
-2.17636e-23
2.64836e-23
-1.09776e-23
3.86915e-23
-4.44766e-23
4.09761e-24
-4.92163e-23
3.21784e-23
-6.05024e-23
1.24867e-23
-5.76461e-23
1.69471e-23
-5.80738e-23
6.99352e-24
-6.30907e-23
-4.60637e-24
-6.04736e-23
2.23498e-23
-8.8729e-23
1.91269e-23
-7.84562e-23
7.97055e-23
-9.06709e-23
3.79043e-23
-9.26931e-23
6.45614e-23
-7.248e-23
6.28672e-23
-5.34296e-23
1.26332e-23
-1.21582e-23
-3.30526e-23
1.12055e-23
4.16164e-23
-3.55206e-23
9.47844e-24
-3.55564e-23
-5.7333e-24
-4.11472e-23
1.95515e-23
-1.90447e-23
3.80755e-23
-2.4403e-23
1.05432e-23
-4.10717e-23
-2.63526e-23
-5.15551e-23
-9.55951e-24
-5.91113e-23
8.56109e-24
-5.58443e-23
4.60971e-24
-5.961e-23
3.8637e-24
-5.11912e-23
-1.66053e-23
-6.16805e-23
-6.7169e-24
-7.60857e-23
-1.46792e-23
-8.39246e-23
3.70191e-23
-8.27557e-23
3.63259e-23
-9.63424e-23
7.6152e-23
-7.98637e-23
5.02768e-23
-6.00364e-23
-5.90487e-24
-7.93868e-23
4.9092e-24
-7.84628e-23
1.51852e-23
-8.56575e-23
2.91745e-24
-1.20117e-22
-2.22989e-23
-2.79953e-23
-3.54351e-23
2.21116e-24
4.37986e-23
-3.8606e-23
1.64916e-23
-4.00186e-23
-4.03549e-24
-3.82514e-23
1.48691e-23
-2.37323e-23
1.22581e-23
-2.5872e-23
4.93358e-23
-3.69196e-23
-1.76186e-23
-4.69944e-23
-6.84676e-24
-6.28669e-23
1.70727e-23
-5.94534e-23
-2.48175e-24
-6.83573e-23
-3.24812e-23
-4.95621e-23
4.03221e-24
-6.46217e-23
1.3446e-23
-6.90325e-23
-1.65613e-23
-8.43349e-23
4.82279e-23
-7.68208e-23
2.88e-23
-9.888e-23
1.7887e-23
-8.81085e-23
3.58864e-23
-5.90886e-23
3.52694e-23
-7.23678e-23
7.98948e-23
-8.21434e-23
3.19567e-23
-8.68886e-23
4.69301e-24
-1.19568e-22
-5.60504e-24
-8.7256e-23
9.42045e-24
-1.27231e-22
1.96242e-23
-2.20045e-22
9.59424e-23
-2.10821e-22
4.96962e-23
-1.58636e-22
4.66669e-23
3.87001e-23
-2.86954e-23
-1.67533e-23
4.71182e-23
-3.91021e-23
3.5994e-23
-3.4931e-23
2.27883e-23
-4.40193e-23
2.54773e-23
-2.1655e-23
6.89427e-23
-3.43765e-23
5.89989e-23
-3.9478e-23
2.9649e-23
-4.6281e-23
-5.22471e-24
-6.1236e-23
-1.2049e-23
-6.92566e-23
2.80776e-24
-6.10081e-23
1.45268e-25
-5.0364e-23
-1.11726e-23
-7.16083e-23
-3.85712e-24
-5.45205e-23
-6.343e-24
-8.7404e-23
-9.05327e-24
-7.38635e-23
1.0848e-22
-1.00064e-22
3.56741e-23
-8.68782e-23
1.04465e-22
-4.76815e-23
7.85536e-23
-7.68502e-23
4.58465e-23
-8.66761e-23
3.85407e-23
-8.21515e-23
7.82931e-23
-1.14058e-22
1.25329e-23
-8.26009e-23
6.3123e-23
-1.12544e-22
5.25647e-23
-2.2531e-22
-3.6987e-23
-2.0982e-22
5.17036e-23
-1.58971e-22
9.78293e-23
-1.85454e-22
7.91975e-23
-2.22455e-22
6.49127e-23
-2.2132e-22
5.30246e-23
-4.28718e-23
-2.15199e-23
5.27398e-23
4.91884e-23
-3.88702e-23
-2.88415e-23
-3.34067e-23
1.7701e-23
-3.06221e-23
5.49391e-23
-2.58034e-23
6.15249e-23
-4.24968e-23
2.54744e-23
-3.93579e-23
-1.77273e-23
-4.45808e-23
-3.59715e-24
-6.54746e-23
-3.37573e-23
-6.29376e-23
-4.99299e-25
-6.15766e-23
-2.94025e-24
-5.37221e-23
-1.82313e-23
-6.65911e-23
5.36022e-24
-5.31431e-23
1.74704e-23
-7.03711e-23
-2.33907e-23
-8.35818e-23
3.45784e-23
-8.69625e-23
3.3161e-23
-8.67369e-23
9.45802e-23
-5.18271e-23
1.29565e-22
-7.84626e-23
6.93964e-23
-7.94972e-23
4.6526e-23
-9.27927e-23
8.40086e-23
-1.02858e-22
7.52307e-24
-8.02147e-23
5.13605e-23
-1.26691e-22
1.58863e-23
-2.04835e-22
5.58197e-23
-2.0304e-22
7.43387e-23
-1.57729e-22
1.59528e-22
-1.90106e-22
1.19206e-22
-2.22324e-22
1.0401e-22
-2.44962e-22
7.92084e-23
-2.47687e-22
7.83907e-23
-2.94412e-22
-2.53136e-22
-3.99201e-22
-3.33115e-23
5.34926e-23
4.48592e-23
-3.3864e-23
2.0055e-23
-3.29347e-23
1.70192e-23
-2.82462e-23
4.78718e-23
-3.07384e-23
1.8951e-23
-4.55584e-23
-2.79726e-24
-3.62424e-23
4.07744e-24
-5.13242e-23
-2.97204e-23
-6.15307e-23
-2.58297e-23
-6.05467e-23
-9.77474e-25
-6.34141e-23
3.62021e-23
-4.72265e-23
5.73092e-23
-6.26499e-23
1.66173e-23
-6.02244e-23
1.40271e-23
-6.20149e-23
-1.62172e-23
-8.05235e-23
5.87794e-23
-8.13409e-23
3.06255e-23
-7.89514e-23
8.24175e-23
-6.95784e-23
7.34919e-23
-7.66232e-23
5.64921e-23
-7.12647e-23
3.68375e-23
-1.02046e-22
2.30968e-23
-9.2958e-23
7.09294e-23
-8.71633e-23
5.41779e-23
-1.15878e-22
4.99092e-23
-2.01545e-22
5.83265e-23
-1.85201e-22
6.86421e-23
-1.62054e-22
2.06143e-22
-1.90614e-22
1.53998e-22
-2.27018e-22
1.41443e-22
-2.45177e-22
1.02195e-22
-3.09028e-22
1.45804e-22
-3.6986e-22
-8.11931e-23
-3.62298e-22
-3.39505e-23
5.24008e-23
4.3299e-23
-3.45322e-23
2.34913e-24
-3.13434e-23
2.50496e-23
-2.98598e-23
7.25356e-23
-3.66048e-23
2.15722e-23
-5.19894e-23
6.28102e-24
-4.82373e-23
-4.2452e-25
-5.31501e-23
-2.91656e-23
-5.95242e-23
-5.77522e-23
-5.61303e-23
-1.15484e-23
-5.70454e-23
2.88236e-23
-5.21961e-23
9.64411e-24
-6.35379e-23
2.14383e-23
-6.49005e-23
1.6545e-23
-5.65062e-23
-2.14267e-23
-8.23921e-23
-7.66008e-24
-7.30976e-23
1.14606e-23
-7.99028e-23
-1.81829e-23
-6.94928e-23
-5.24862e-23
-7.5315e-23
5.17071e-23
-7.45308e-23
3.90217e-23
-9.05397e-23
3.93941e-23
-9.75085e-23
-4.47554e-24
-8.22203e-23
4.29904e-23
-1.08645e-22
6.77842e-23
-2.02826e-22
-3.54804e-23
-1.57958e-22
1.05277e-22
-1.69174e-22
1.3845e-22
-1.86856e-22
1.71819e-22
-2.36398e-22
9.85665e-23
-2.40802e-22
1.97398e-22
-3.51252e-22
1.60894e-22
-4.86628e-22
6.57368e-23
-1.63766e-22
-4.26269e-23
5.82733e-23
4.16338e-23
-3.85722e-23
1.02552e-23
-2.34743e-23
1.25204e-23
-3.98447e-23
5.24884e-23
-4.27032e-23
-1.56953e-23
-4.84463e-23
2.23238e-24
-4.79427e-23
-5.32724e-24
-5.33383e-23
-2.17699e-23
-5.37898e-23
-1.69068e-23
-4.73082e-23
-1.94124e-23
-5.86631e-23
-1.17004e-23
-4.65116e-23
2.0626e-23
-6.37892e-23
-4.8538e-24
-6.31221e-23
2.2082e-23
-5.67156e-23
-2.47404e-23
-7.42325e-23
1.03118e-23
-8.0196e-23
1.35932e-23
-8.62237e-23
-2.22195e-23
-5.29749e-23
4.32716e-23
-7.71232e-23
6.17134e-23
-7.07595e-23
2.16924e-23
-9.31377e-23
-1.40361e-23
-9.34506e-23
6.41593e-23
-7.21831e-23
8.57187e-23
-1.22805e-22
2.86793e-23
-1.78622e-22
2.12254e-23
-1.52161e-22
1.62973e-22
-1.58536e-22
1.48698e-22
-1.96415e-22
1.24578e-22
-2.20472e-22
1.13086e-22
-2.49457e-22
2.16769e-22
-3.64807e-22
1.80953e-22
-5.45818e-22
2.65404e-22
6.11385e-22
-4.14902e-23
2.02345e-23
3.95614e-23
-3.82016e-23
1.82737e-23
-2.17647e-23
4.29815e-23
-4.37023e-23
3.71999e-23
-4.08834e-23
-1.82649e-23
-5.0662e-23
4.04266e-24
-4.75564e-23
-1.00962e-23
-4.99479e-23
-1.15087e-23
-5.93316e-23
-6.28295e-24
-4.62515e-23
-3.69429e-23
-5.19062e-23
3.22703e-23
-4.92699e-23
1.13706e-23
-6.12432e-23
1.87341e-24
-6.37998e-23
3.37132e-23
-5.72995e-23
-2.10179e-23
-6.72106e-23
2.02707e-23
-8.35199e-23
2.35492e-23
-7.52379e-23
9.06731e-23
-4.84993e-23
1.00271e-22
-7.89338e-23
8.60296e-23
-7.51819e-23
1.35138e-23
-8.17564e-23
-1.21166e-23
-8.79825e-23
5.60722e-25
-7.6138e-23
1.41137e-22
-1.20778e-22
6.01212e-23
-1.57734e-22
5.34814e-23
-1.52951e-22
1.63081e-22
-1.55816e-22
1.43727e-22
-1.95758e-22
1.54534e-22
-2.03301e-22
2.03633e-22
-2.51235e-22
2.5312e-22
-3.43107e-22
2.77503e-22
-5.01375e-22
4.37719e-22
8.08452e-22
-4.42622e-23
4.47902e-23
3.585e-23
-3.4715e-23
5.51426e-23
-2.51276e-23
3.25031e-23
-5.4322e-23
-2.26913e-23
-4.07066e-23
8.26307e-24
-5.52077e-23
-1.89673e-23
-4.68749e-23
-1.39999e-23
-5.48675e-23
5.72072e-24
-5.91286e-23
2.84118e-24
-4.22196e-23
3.32608e-23
-5.11148e-23
7.90851e-23
-5.42811e-23
-3.11334e-23
-5.7507e-23
4.28375e-24
-6.64436e-23
4.00085e-23
-4.95554e-23
5.93207e-23
-7.26696e-23
4.39324e-23
-7.12869e-23
1.99338e-23
-7.13235e-23
6.02643e-23
-4.68416e-23
6.43498e-23
-8.88895e-23
2.82269e-23
-7.38308e-23
8.64526e-23
-7.98283e-23
-1.11758e-23
-6.61667e-23
8.30562e-23
-8.7662e-23
5.94878e-23
-1.14926e-22
7.36791e-23
-1.44503e-22
5.1355e-23
-1.51749e-22
7.32115e-23
-1.53136e-22
1.39106e-22
-1.84301e-22
1.73658e-22
-1.95424e-22
2.00926e-22
-2.39037e-22
2.78905e-22
-3.12359e-22
3.49244e-22
-3.98371e-22
5.35609e-22
8.62257e-22
-4.15788e-23
1.60807e-23
3.70164e-23
-4.21825e-23
6.1173e-23
-3.62799e-23
2.80916e-23
-5.02243e-23
-6.38519e-24
-4.072e-23
3.0018e-24
-5.48237e-23
3.38231e-24
-4.53203e-23
1.5291e-23
-5.5692e-23
5.75582e-23
-5.21366e-23
4.48633e-23
-4.01324e-23
6.38032e-23
-6.66651e-23
1.00174e-22
-5.03152e-23
-1.07437e-23
-5.26846e-23
8.92584e-24
-6.04651e-23
4.16873e-23
-5.25046e-23
5.62114e-23
-7.21511e-23
6.1593e-23
-6.50378e-23
9.61435e-23
-7.01837e-23
9.92232e-23
-5.2638e-23
1.2688e-22
-8.04642e-23
5.32829e-23
-8.32545e-23
8.46565e-23
-6.54343e-23
6.38723e-23
-6.83852e-23
7.65023e-23
-8.17513e-23
7.1807e-23
-1.13794e-22
6.98728e-23
-1.44436e-22
7.12355e-23
-1.37644e-22
1.38356e-22
-1.46425e-22
1.35685e-22
-1.79521e-22
1.69973e-22
-1.81148e-22
2.75634e-22
-2.21995e-22
3.00505e-22
-2.82418e-22
3.99413e-22
-3.09409e-22
6.6916e-22
8.57468e-22
-3.69457e-23
2.08859e-23
4.07009e-23
-4.38666e-23
7.06244e-23
-3.83196e-23
5.40284e-23
-4.90031e-23
5.48407e-24
-4.29775e-23
3.2806e-24
-4.96238e-23
-1.72052e-23
-3.92803e-23
1.61412e-23
-5.11346e-23
2.81004e-23
-4.96764e-23
4.78418e-23
-2.70042e-23
8.32534e-23
-7.80538e-23
4.22663e-23
-4.49852e-23
4.10795e-23
-4.8851e-23
4.74704e-23
-5.75167e-23
4.75849e-23
-4.97469e-23
4.94787e-23
-6.47472e-23
7.50776e-23
-6.49706e-23
9.30405e-23
-6.4421e-23
9.99118e-23
-6.04417e-23
1.17014e-22
-7.47929e-23
8.52575e-23
-8.06046e-23
8.81653e-23
-6.59491e-23
5.29739e-23
-6.74606e-23
7.68336e-23
-7.91695e-23
7.4224e-23
-1.10606e-22
9.08244e-23
-1.36591e-22
9.50127e-23
-1.34687e-22
1.31164e-22
-1.3798e-22
1.30378e-22
-1.6384e-22
1.85949e-22
-1.72673e-22
2.6646e-22
-2.03435e-22
3.16812e-22
-2.45086e-22
4.3778e-22
-2.60899e-22
6.87299e-22
7.36284e-22
-3.85644e-23
2.47699e-23
3.38208e-23
-4.68739e-23
3.57793e-23
-3.68205e-23
1.06032e-23
-4.45743e-23
5.70083e-23
-4.41601e-23
4.07951e-23
-4.56082e-23
3.18305e-23
-3.91775e-23
1.19537e-23
-5.07047e-23
4.32367e-23
-4.04865e-23
4.46562e-23
-3.82375e-23
8.23112e-23
-7.4253e-23
-2.52547e-24
-4.80679e-23
9.07675e-23
-4.43957e-23
8.68182e-23
-5.98794e-23
1.78402e-23
-4.19307e-23
7.02956e-23
-6.06473e-23
5.0891e-24
-6.41314e-23
9.8667e-23
-5.90209e-23
9.58041e-23
-6.50337e-23
3.23117e-23
-7.44944e-23
8.94401e-23
-8.22858e-23
9.28612e-23
-6.33026e-23
3.92408e-23
-6.5285e-23
7.54187e-23
-7.3239e-23
7.24246e-23
-1.09284e-22
1.20145e-22
-1.29828e-22
1.13286e-22
-1.33907e-22
1.28797e-22
-1.25259e-22
2.07675e-22
-1.55848e-22
2.117e-22
-1.59309e-22
2.58444e-22
-1.83504e-22
3.27249e-22
-2.12764e-22
4.62862e-22
-2.34009e-22
5.96415e-22
7.20794e-22
-3.5756e-23
-8.92965e-24
2.92773e-23
-4.69453e-23
4.17057e-23
-3.88459e-23
4.79239e-23
-4.7344e-23
6.83922e-23
-3.76099e-23
4.52644e-23
-4.88564e-23
4.37289e-23
-3.46502e-23
9.06034e-23
-4.83854e-23
2.19637e-23
-4.00798e-23
7.81456e-23
-4.48441e-23
4.44219e-23
-6.47613e-23
7.39243e-24
-4.58265e-23
1.05866e-22
-5.13853e-23
8.80653e-23
-5.48529e-23
2.24778e-23
-4.40253e-23
1.00434e-22
-5.47868e-23
4.57689e-23
-5.96859e-23
1.0538e-22
-6.621e-23
1.01087e-22
-5.60973e-23
2.22622e-23
-7.22256e-23
1.01403e-22
-8.77525e-23
9.53466e-24
-5.57268e-23
9.55749e-23
-6.62768e-23
8.02563e-23
-6.32352e-23
6.32995e-23
-1.0964e-22
-3.61871e-23
-1.24764e-22
1.22357e-22
-1.24517e-22
1.22423e-22
-1.18699e-22
1.9708e-22
-1.53457e-22
1.49283e-22
-1.4325e-22
3.78184e-22
-1.65575e-22
3.39433e-22
-1.96504e-22
4.89621e-22
-2.05871e-22
5.92437e-22
-1.68354e-22
6.88112e-22
1.17911e-21
-3.04282e-23
-1.05989e-23
2.71331e-23
-4.74193e-23
1.31904e-23
-3.40761e-23
3.3692e-23
-4.56118e-23
4.34453e-23
-4.01867e-23
7.76714e-23
-4.84638e-23
4.89576e-23
-4.58029e-23
8.49312e-23
-4.07691e-23
5.46025e-23
-5.00202e-23
4.98052e-23
-4.62037e-23
3.75697e-23
-5.51488e-23
1.38116e-23
-4.516e-23
8.39565e-23
-5.88444e-23
6.52561e-23
-4.60503e-23
5.34106e-23
-4.97105e-23
8.65076e-23
-4.88276e-23
1.44433e-23
-5.96127e-23
1.96065e-23
-7.61036e-23
2.14246e-23
-4.16331e-23
1.13146e-22
-8.10301e-23
1.30066e-22
-7.98162e-23
1.3442e-22
-5.46852e-23
1.5369e-22
-6.63864e-23
8.86783e-23
-7.10798e-23
5.71849e-23
-9.28017e-23
-2.27334e-23
-1.23113e-22
6.04708e-23
-1.13701e-22
1.33367e-22
-1.18599e-22
1.7192e-22
-1.28831e-22
1.54301e-22
-1.428e-22
2.94394e-22
-1.44714e-22
3.28964e-22
-1.82353e-22
4.34728e-22
-1.80044e-22
5.86014e-22
-1.37016e-22
7.50768e-22
1.07508e-21
-2.70136e-23
2.29343e-23
3.06775e-23
-4.53934e-23
2.07013e-23
-3.61541e-23
2.43689e-23
-4.46493e-23
5.676e-23
-4.35462e-23
7.42572e-23
-4.12518e-23
4.19273e-23
-4.97169e-23
4.54689e-23
-3.70903e-23
3.71769e-23
-4.91301e-23
6.33855e-23
-4.46666e-23
7.33021e-23
-5.05433e-23
1.85672e-23
-4.82298e-23
7.2352e-23
-5.84491e-23
3.07432e-23
-4.49941e-23
1.31551e-22
-5.18449e-23
8.31071e-23
-4.79993e-23
1.48945e-23
-5.54603e-23
2.51554e-23
-6.69398e-23
2.73589e-23
-4.00046e-23
1.09366e-22
-7.66932e-23
7.24675e-23
-7.89002e-23
1.23565e-22
-5.82267e-23
2.64806e-22
-7.1296e-23
9.96603e-23
-7.59667e-23
7.69386e-23
-8.38606e-23
-2.10694e-23
-1.09915e-22
8.00924e-23
-1.10792e-22
1.28948e-22
-1.12519e-22
1.76977e-22
-1.15298e-22
1.50942e-22
-1.31876e-22
2.98743e-22
-1.33041e-22
3.19682e-22
-1.66973e-22
3.73823e-22
-1.53077e-22
5.69018e-22
-1.20255e-22
6.32743e-22
-2.42585e-23
1.82971e-23
2.45276e-23
-4.27513e-23
3.31586e-23
-3.26675e-23
1.68618e-23
-4.39462e-23
6.29995e-23
-4.27575e-23
7.49443e-23
-4.29565e-23
3.86904e-23
-4.86232e-23
5.05504e-23
-3.66211e-23
1.15003e-22
-4.43885e-23
6.83295e-23
-4.69798e-23
7.78376e-23
-4.7191e-23
2.43812e-23
-5.06444e-23
7.20894e-23
-4.54998e-23
6.112e-23
-5.35204e-23
6.0489e-23
-5.48606e-23
8.55263e-23
-5.07252e-23
5.37106e-23
-5.31555e-23
6.14652e-23
-5.84905e-23
2.85795e-23
-4.22405e-23
8.83904e-23
-6.9485e-23
9.20618e-23
-6.62105e-23
1.0912e-22
-7.15306e-23
1.81757e-22
-7.3396e-23
9.53496e-23
-8.20997e-23
7.46782e-23
-7.61771e-23
6.28827e-23
-1.01471e-22
9.77573e-23
-1.05706e-22
1.33392e-22
-1.09799e-22
1.89025e-22
-1.04854e-22
1.40416e-22
-1.21288e-22
2.22735e-22
-1.23447e-22
3.15206e-22
-1.42524e-22
3.91402e-22
-1.35014e-22
5.60168e-22
5.64322e-22
-2.09804e-23
1.90157e-23
1.6866e-23
-4.60783e-23
1.37684e-23
-2.62539e-23
3.30418e-23
-4.34489e-23
4.27676e-23
-4.55998e-23
7.5949e-23
-3.97054e-23
3.53151e-23
-3.75007e-23
4.5188e-23
-4.26317e-23
8.04214e-23
-4.87376e-23
3.76358e-23
-4.84481e-23
7.71003e-23
-4.57245e-23
5.03242e-23
-4.8893e-23
7.07376e-23
-4.61837e-23
5.65948e-23
-4.99024e-23
6.65215e-23
-5.52652e-23
8.98824e-23
-4.90048e-23
5.6542e-23
-5.20327e-23
1.12504e-22
-5.50144e-23
3.36106e-23
-3.98569e-23
6.4016e-23
-6.69437e-23
2.30297e-23
-6.09692e-23
8.97747e-23
-7.72084e-23
9.63892e-23
-7.53146e-23
9.04045e-23
-8.00868e-23
7.1943e-23
-7.15153e-23
4.37439e-23
-9.63243e-23
1.12875e-22
-9.88325e-23
1.34296e-22
-1.1015e-22
1.98245e-22
-9.73516e-23
2.1062e-22
-1.08122e-22
2.53932e-22
-1.14222e-22
3.10927e-22
-1.26278e-22
3.75179e-22
-1.2636e-22
4.76621e-22
5.3773e-22
-1.82365e-23
-4.26998e-24
1.50435e-23
-4.37444e-23
-4.75235e-23
-3.06062e-23
1.69333e-23
-4.20467e-23
5.46141e-23
-4.95603e-23
8.45554e-23
-3.71018e-23
1.0382e-22
-4.15057e-23
5.1596e-23
-4.34e-23
1.2937e-22
-4.51773e-23
4.1583e-23
-4.80183e-23
7.83635e-23
-4.51959e-23
3.90513e-23
-4.90754e-23
7.35021e-23
-4.59343e-23
5.2627e-23
-5.08879e-23
2.86512e-23
-5.53185e-23
5.19915e-23
-4.43432e-23
5.23437e-23
-5.72158e-23
9.02998e-23
-4.92918e-23
2.57378e-23
-4.26339e-23
2.61571e-23
-5.83398e-23
3.47977e-23
-6.17349e-23
4.14795e-23
-7.34187e-23
9.65369e-23
-7.57084e-23
8.88688e-23
-8.18183e-23
1.0021e-22
-6.25288e-23
1.51803e-22
-9.52924e-23
4.72624e-23
-9.06845e-23
1.31141e-22
-1.06247e-22
1.2396e-22
-9.21024e-23
1.93537e-22
-1.01026e-22
2.52222e-22
-1.03988e-22
3.0609e-22
-1.20877e-22
3.87201e-22
-1.13168e-22
4.75567e-22
5.1889e-22
-2.30851e-23
-7.82784e-24
1.77981e-23
-3.97309e-23
-3.64919e-23
-2.71049e-23
3.51092e-23
-3.60301e-23
7.22652e-23
-5.01876e-23
7.4065e-23
-4.1681e-23
1.22853e-22
-3.70261e-23
4.10913e-23
-4.76046e-23
1.36672e-22
-4.40884e-23
1.19904e-22
-4.91996e-23
7.81316e-23
-4.14779e-23
3.67977e-23
-4.94203e-23
3.89954e-23
-4.5064e-23
8.5361e-23
-5.1333e-23
7.04884e-23
-5.28648e-23
5.13824e-23
-4.0878e-23
4.74383e-23
-5.88248e-23
-8.27333e-24
-5.17355e-23
2.30076e-23
-3.98829e-23
2.27027e-23
-5.67551e-23
4.75211e-23
-5.71627e-23
1.30438e-22
-7.1654e-23
9.39902e-23
-7.35677e-23
8.83451e-23
-7.64685e-23
9.18221e-23
-6.86334e-23
1.38411e-22
-8.66487e-23
6.16326e-23
-8.97931e-23
1.36984e-22
-9.7434e-23
1.31067e-22
-8.68031e-23
1.76501e-22
-9.23404e-23
2.08691e-22
-9.58031e-23
3.03867e-22
-1.10835e-22
4.01806e-22
-1.03033e-22
4.75905e-22
-2.83509e-23
-7.31235e-24
2.08825e-23
-3.30004e-23
-3.69134e-23
-2.2556e-23
-7.49198e-24
-3.92639e-23
9.91446e-24
-4.2466e-23
3.29264e-23
-4.5331e-23
7.52905e-23
-2.92766e-23
9.06219e-23
-4.87329e-23
6.42934e-23
-4.69514e-23
8.10109e-23
-4.73668e-23
8.0982e-23
-4.56462e-23
4.14636e-23
-4.51708e-23
3.26146e-23
-4.9261e-23
8.63955e-23
-5.09093e-23
6.99417e-23
-5.1974e-23
8.82693e-23
-4.565e-23
8.37389e-23
-5.49749e-23
5.30644e-23
-5.14075e-23
2.69138e-23
-3.69274e-23
4.39534e-23
-4.90438e-23
5.97797e-23
-5.92345e-23
1.08574e-22
-6.99223e-23
9.50488e-23
-7.15375e-23
8.05091e-23
-7.28893e-23
8.50877e-23
-7.26738e-23
1.33665e-22
-8.00589e-23
6.91115e-23
-8.90913e-23
1.13053e-22
-9.1171e-23
1.30761e-22
-8.00438e-23
1.65209e-22
-8.37306e-23
1.92833e-22
-8.36052e-23
2.51391e-22
-1.04768e-22
3.68363e-22
4.64158e-22
-2.93468e-23
-3.90498e-23
2.13941e-23
-3.08451e-23
-3.86169e-23
-1.90049e-23
2.21665e-23
-3.71474e-23
3.5014e-23
-4.42158e-23
3.8263e-23
-3.95088e-23
1.06351e-22
-3.62175e-23
4.71848e-23
-4.46039e-23
2.18397e-23
-4.90533e-23
4.39736e-23
-4.81136e-23
7.86013e-23
-4.64441e-23
4.67594e-23
-4.33138e-23
2.46788e-23
-5.24358e-23
5.19664e-23
-4.817e-23
6.77533e-23
-5.26669e-23
4.85369e-23
-4.78742e-23
8.13e-23
-5.39189e-23
6.48673e-23
-4.83817e-23
7.55751e-23
-3.33557e-23
7.51194e-23
-4.66547e-23
7.90212e-23
-5.74957e-23
8.0771e-23
-7.13414e-23
9.95642e-23
-6.8811e-23
7.37548e-23
-6.9768e-23
7.51293e-23
-7.36775e-23
1.28515e-22
-7.66692e-23
7.4127e-23
-8.56423e-23
5.62022e-23
-8.85208e-23
1.28008e-22
-7.484e-23
1.91264e-22
-7.71212e-23
2.22222e-22
-7.09449e-23
2.34275e-22
-9.4872e-23
2.64167e-22
-2.95745e-23
-7.62318e-23
2.30521e-23
-2.71161e-23
-9.23128e-24
-2.27148e-23
2.05927e-23
-3.4153e-23
6.77209e-24
-3.69182e-23
4.16633e-23
-4.35798e-23
3.85444e-23
-3.64943e-23
3.80179e-23
-4.08301e-23
5.39524e-23
-4.76339e-23
1.51072e-23
-5.25371e-23
5.15533e-23
-4.78115e-23
5.10778e-23
-4.14571e-23
2.04156e-23
-4.75918e-23
5.12114e-23
-4.87646e-23
7.0513e-23
-4.80623e-23
9.17114e-23
-4.84357e-23
8.22783e-23
-5.39008e-23
1.20687e-22
-4.51413e-23
7.60221e-23
-3.22917e-23
7.2952e-23
-4.55159e-23
6.44395e-23
-5.37763e-23
7.97037e-23
-7.34094e-23
7.00166e-23
-6.66349e-23
6.15023e-23
-6.62895e-23
6.82177e-23
-7.4128e-23
1.3058e-22
-7.8149e-23
9.74432e-23
-7.79249e-23
9.96082e-23
-8.40894e-23
1.30366e-22
-6.91791e-23
1.6897e-22
-7.63415e-23
1.79499e-22
-6.80965e-23
2.22565e-22
2.37168e-22
-2.80557e-23
-7.46468e-23
2.54619e-23
-2.54869e-23
-1.2716e-23
-1.91951e-23
2.18486e-23
-2.8671e-23
1.04883e-22
-3.91362e-23
4.75538e-23
-4.58468e-23
9.33479e-23
-3.49647e-23
3.66244e-23
-4.13682e-23
1.50638e-23
-4.34232e-23
-1.93695e-23
-5.29093e-23
3.3383e-23
-4.6699e-23
8.67266e-23
-4.0136e-23
1.83104e-23
-4.32777e-23
4.72252e-23
-4.47447e-23
6.56387e-23
-4.96407e-23
1.00737e-22
-4.41915e-23
1.12392e-22
-5.59485e-23
1.04543e-22
-4.42164e-23
1.08532e-22
-3.34915e-23
6.755e-23
-4.37185e-23
7.14916e-23
-5.26879e-23
3.80114e-23
-7.31276e-23
5.05442e-23
-6.3936e-23
5.1109e-23
-6.26411e-23
6.36572e-23
-7.37393e-23
1.00164e-22
-7.74597e-23
9.61411e-23
-7.44132e-23
1.07117e-22
-7.99619e-23
9.20054e-23
-6.6564e-23
1.51677e-22
-7.24785e-23
1.5833e-22
-6.43413e-23
1.58236e-22
2.41955e-22
-2.63804e-23
-7.59552e-23
2.95029e-23
-2.32131e-23
-1.52822e-23
-1.48149e-23
2.19785e-23
-2.97572e-23
4.33101e-23
-3.57291e-23
6.24096e-23
-4.88945e-23
9.57185e-23
-3.53074e-23
9.99609e-23
-4.7679e-23
2.65068e-23
-4.36894e-23
-1.68483e-23
-4.71198e-23
5.10326e-23
-5.11104e-23
9.64793e-23
-3.4781e-23
9.54788e-23
-4.28518e-23
5.91694e-23
-4.38936e-23
6.73402e-23
-4.35854e-23
1.05149e-22
-4.51804e-23
8.15055e-23
-5.31969e-23
1.16072e-22
-4.53705e-23
1.07803e-22
-3.18485e-23
9.2128e-23
-4.52534e-23
8.42717e-23
-5.09666e-23
3.74824e-23
-7.29235e-23
4.5774e-23
-6.15863e-23
3.68231e-23
-6.0463e-23
5.90953e-23
-7.12334e-23
1.13912e-22
-7.52636e-23
6.14067e-23
-7.52472e-23
1.07381e-22
-7.47162e-23
1.28561e-22
-6.35838e-23
1.40953e-22
-7.19875e-23
9.32197e-23
-5.69275e-23
1.71455e-22
1.94855e-22
-2.8079e-23
-4.14507e-23
3.56587e-23
-1.48869e-23
9.67007e-23
-1.37496e-23
2.49373e-23
-2.88111e-23
7.00237e-23
-3.5692e-23
-4.25892e-24
-4.12419e-23
9.73845e-23
-3.84209e-23
8.48751e-23
-4.5807e-23
3.88403e-23
-4.05566e-23
2.06912e-23
-4.25447e-23
6.06735e-23
-5.21248e-23
7.29146e-23
-3.80498e-23
1.35797e-22
-4.23594e-23
6.98123e-23
-4.02417e-23
6.6921e-23
-4.66765e-23
1.08439e-22
-4.06207e-23
7.56994e-23
-5.21762e-23
8.6442e-23
-4.40347e-23
1.07845e-22
-3.40701e-23
8.81028e-23
-4.78815e-23
9.65937e-23
-4.9528e-23
8.36273e-23
-7.30043e-23
-5.65675e-25
-5.78634e-23
3.40263e-23
-5.64338e-23
5.97969e-23
-7.21574e-23
9.24027e-23
-7.17165e-23
5.42884e-23
-7.33151e-23
1.09943e-22
-7.32488e-23
1.21245e-22
-6.54059e-23
1.29407e-22
-6.45761e-23
1.77522e-22
-5.27076e-23
1.91329e-22
1.89968e-22
-1.95787e-23
-4.56217e-24
3.66726e-23
-1.53383e-23
1.83923e-22
-1.11367e-23
6.21448e-23
-3.24552e-23
1.73827e-24
-3.23766e-23
3.6182e-23
-4.06152e-23
9.73594e-23
-4.16778e-23
7.33312e-23
-5.0293e-23
1.02157e-23
-3.33701e-23
3.8512e-23
-4.08392e-23
4.16358e-23
-4.7761e-23
8.82002e-23
-4.21341e-23
1.42389e-22
-4.21617e-23
7.73042e-23
-3.62986e-23
5.81701e-23
-4.55937e-23
9.33002e-23
-4.29949e-23
6.57072e-23
-5.01131e-23
9.305e-23
-4.55233e-23
7.7947e-23
-3.39632e-23
8.56457e-23
-4.61744e-23
1.06579e-22
-5.46946e-23
5.1781e-23
-7.01166e-23
2.41895e-23
-5.42714e-23
5.63305e-23
-5.51451e-23
2.83606e-23
-7.24642e-23
5.75775e-23
-6.77915e-23
6.26269e-23
-7.03671e-23
1.07236e-22
-7.27328e-23
1.24145e-22
-6.15873e-23
1.13165e-22
-6.33532e-23
1.29482e-22
-4.85064e-23
1.73166e-22
1.90931e-22
-1.05481e-23
5.88398e-23
3.6477e-23
-2.00989e-23
1.09728e-22
-1.65889e-23
5.95851e-23
-3.02837e-23
5.76324e-23
-2.594e-23
7.32176e-23
-4.01326e-23
5.84922e-23
-4.51813e-23
6.53401e-23
-4.66792e-23
4.60629e-23
-3.29511e-23
3.12239e-23
-3.93208e-23
-3.11569e-23
-4.37991e-23
1.01663e-22
-4.27133e-23
1.50396e-22
-4.47755e-23
7.82363e-23
-3.4862e-23
4.10562e-23
-4.47971e-23
1.09123e-22
-4.22208e-23
1.71016e-23
-4.74936e-23
8.91883e-23
-4.60435e-23
4.1452e-23
-3.20103e-23
1.62073e-22
-4.84956e-23
7.35818e-23
-5.59174e-23
6.69075e-23
-6.7344e-23
4.14432e-23
-5.35848e-23
8.31352e-23
-5.32843e-23
2.63375e-23
-6.99675e-23
6.88288e-23
-6.55787e-23
8.68313e-23
-6.80769e-23
1.09351e-22
-7.37874e-23
9.55871e-23
-5.80287e-23
1.30063e-22
-5.91355e-23
1.276e-22
-4.52533e-23
1.94885e-22
1.45992e-22
-1.24421e-23
1.29327e-22
3.27281e-23
-2.05385e-23
8.85147e-23
-1.86198e-23
5.94429e-23
-2.69325e-23
6.37199e-23
-2.93489e-23
3.47774e-23
-4.03824e-23
1.35899e-23
-4.59418e-23
2.9013e-23
-4.61149e-23
-4.39463e-23
-3.72728e-23
2.96674e-23
-3.13156e-23
8.32014e-24
-4.24573e-23
3.55994e-23
-4.9083e-23
7.51296e-23
-4.15414e-23
1.10182e-22
-3.35685e-23
3.54199e-23
-4.79687e-23
9.33867e-23
-3.94944e-23
1.03365e-23
-4.80214e-23
8.7466e-23
-3.92713e-23
3.55659e-23
-3.4459e-23
1.32229e-22
-4.68921e-23
8.11247e-23
-5.70583e-23
4.45884e-23
-6.40052e-23
5.10171e-23
-5.53985e-23
7.64086e-23
-5.09134e-23
2.4463e-23
-6.71582e-23
4.09855e-23
-6.37176e-23
7.94544e-23
-6.7118e-23
1.09087e-22
-7.15242e-23
1.02129e-22
-5.68256e-23
2.11509e-22
-5.5184e-23
1.62642e-22
-4.60864e-23
2.19775e-22
1.75782e-22
-1.12408e-23
8.00783e-23
2.97578e-23
-2.28009e-23
2.6689e-23
-1.74225e-23
2.76934e-23
-2.90181e-23
3.29408e-23
-2.90163e-23
6.73724e-23
-4.26761e-23
5.51886e-23
-4.77002e-23
2.03581e-23
-4.26404e-23
-4.13919e-23
-3.77145e-23
4.02493e-23
-2.90979e-23
1.03618e-23
-4.20309e-23
-3.00047e-23
-4.48209e-23
8.0897e-23
-4.31708e-23
7.98849e-23
-3.17682e-23
4.57209e-23
-4.94745e-23
4.08189e-23
-3.59221e-23
3.90138e-23
-4.9625e-23
9.55656e-23
-3.39728e-23
6.28242e-23
-3.37642e-23
9.86107e-23
-4.84137e-23
6.16823e-23
-5.62108e-23
4.87659e-23
-6.23759e-23
5.71359e-23
-5.71087e-23
7.29396e-23
-4.94532e-23
1.15825e-23
-6.33461e-23
5.21747e-23
-6.17184e-23
1.08111e-22
-6.61322e-23
1.15113e-22
-6.57296e-23
1.31748e-22
-5.75266e-23
2.10522e-22
-5.20213e-23
1.58236e-22
-4.66272e-23
1.91557e-22
2.50769e-22
-1.27715e-23
1.442e-22
2.97166e-23
-2.33048e-23
6.43713e-24
-1.55368e-23
6.47663e-23
-2.90775e-23
3.57479e-23
-2.88758e-23
6.25356e-23
-4.42175e-23
2.02155e-23
-4.80452e-23
5.66686e-23
-4.10058e-23
-4.01323e-23
-3.48346e-23
-4.14712e-23
-3.33136e-23
-4.33939e-25
-3.54478e-23
2.08882e-23
-4.39986e-23
3.3319e-24
-4.44616e-23
8.05957e-23
-3.50744e-23
3.61551e-23
-4.76631e-23
9.05082e-23
-3.35555e-23
2.45318e-23
-4.76816e-23
7.69313e-23
-3.39602e-23
8.56505e-23
-3.26643e-23
1.41234e-22
-4.96353e-23
7.46572e-23
-5.52334e-23
4.48506e-23
-6.15398e-23
6.13856e-23
-5.79193e-23
6.16629e-23
-4.72019e-23
9.36689e-23
-5.97226e-23
9.78638e-23
-6.08935e-23
1.0158e-22
-6.30412e-23
1.19207e-22
-6.21197e-23
1.2577e-22
-5.80874e-23
2.11422e-22
-5.00484e-23
1.52812e-22
-4.14462e-23
1.7718e-22
2.25882e-22
-2.00734e-23
6.05528e-23
2.51898e-23
-1.9686e-23
4.20321e-23
-1.94927e-23
2.08656e-23
-2.59566e-23
-9.46407e-24
-3.1433e-23
1.01602e-22
-4.35923e-23
-1.96947e-23
-4.91763e-23
8.05733e-23
-4.38618e-23
5.27892e-24
-3.19273e-23
-1.02686e-24
-3.03969e-23
1.75047e-23
-3.29802e-23
3.25175e-23
-4.0917e-23
4.43669e-23
-4.4365e-23
3.64035e-23
-3.29185e-23
2.14056e-23
-4.67954e-23
1.06754e-22
-3.07793e-23
4.56479e-23
-4.51056e-23
6.15336e-23
-3.40327e-23
8.27565e-23
-3.37026e-23
1.42346e-22
-4.95716e-23
5.00338e-23
-5.23245e-23
4.0237e-23
-6.13967e-23
2.87112e-23
-5.42028e-23
5.14868e-23
-4.60654e-23
9.64288e-23
-5.86815e-23
1.1008e-22
-5.94021e-23
1.38794e-22
-6.0807e-23
1.18253e-22
-5.96351e-23
8.07871e-23
-5.94156e-23
1.75903e-22
-4.9196e-23
1.41729e-22
-3.78895e-23
1.59305e-22
2.29703e-22
-1.64098e-23
9.747e-23
2.84698e-23
-2.26177e-23
1.21478e-23
-2.01348e-23
2.63763e-23
-2.24665e-23
-5.3735e-23
-3.41881e-23
1.73013e-23
-3.82373e-23
2.12426e-23
-5.35378e-23
6.02309e-23
-4.41478e-23
4.2252e-24
-2.97027e-23
4.13948e-23
-2.91953e-23
4.00725e-23
-3.30599e-23
5.39e-23
-4.04961e-23
4.97354e-23
-4.3654e-23
6.55592e-26
-2.76907e-23
8.98056e-23
-4.86943e-23
5.25357e-23
-2.98329e-23
6.56008e-23
-4.2485e-23
8.29078e-23
-3.02485e-23
7.57059e-23
-3.51573e-23
7.65236e-23
-5.01024e-23
2.03474e-23
-5.23495e-23
1.27288e-22
-5.95826e-23
3.06093e-23
-5.12053e-23
5.55701e-23
-4.4761e-23
9.74057e-23
-5.71893e-23
7.47727e-23
-5.92801e-23
1.47115e-22
-6.11164e-23
1.25276e-22
-5.55013e-23
8.04446e-23
-5.87359e-23
1.49407e-22
-4.77479e-23
1.22669e-22
-3.42353e-23
1.87596e-22
2.54241e-22
-1.85132e-23
8.5041e-23
2.93948e-23
-2.28703e-23
-2.81857e-23
-2.13799e-23
6.38846e-23
-2.26232e-23
-5.50972e-23
-3.41455e-23
8.67831e-24
-3.76034e-23
-1.03992e-23
-5.281e-23
3.89066e-23
-4.30778e-23
9.69146e-23
-2.73205e-23
1.27532e-22
-3.08239e-23
1.01666e-22
-2.77021e-23
1.36153e-22
-4.27947e-23
9.77205e-23
-3.65122e-23
1.21099e-22
-3.11984e-23
8.32005e-23
-4.88918e-23
6.7099e-23
-2.83283e-23
5.61512e-23
-4.07315e-23
2.03552e-23
-3.18437e-23
7.94472e-23
-3.40581e-23
1.25798e-22
-4.72818e-23
2.22312e-23
-5.54219e-23
9.23537e-23
-5.63019e-23
2.67602e-23
-4.87496e-23
6.76727e-23
-4.50369e-23
1.01848e-22
-5.31201e-23
8.77807e-23
-5.96712e-23
8.47159e-23
-6.20528e-23
1.43094e-22
-5.33296e-23
7.25807e-23
-5.75066e-23
1.54871e-22
-4.35543e-23
1.84488e-22
-3.15721e-23
2.02769e-22
3.14054e-22
-1.91694e-23
8.29433e-23
3.12996e-23
-2.48284e-23
1.8653e-23
-2.22518e-23
1.05791e-22
-2.49715e-23
-6.2205e-23