/*--------------------------------*- C++ -*----------------------------------*\
  =========                 |
  \\      /  F ield         | OpenFOAM: The Open Source CFD Toolbox
   \\    /   O peration     | Website:  https://openfoam.org
    \\  /    A nd           | Version:  7
     \\/     M anipulation  |
\*---------------------------------------------------------------------------*/
FoamFile
{
    version     2.0;
    format      ascii;
    class       volScalarField;
    location    "80000";
    object      omega;
}
// * * * * * * * * * * * * * * * * * * * * * * * * * * * * * * * * * * * * * //

dimensions      [0 0 -1 0 0 0 0];

internalField   nonuniform List<scalar> 
4844
(
0.0312998
0.0313063
0.0313134
0.0313236
0.0313301
0.0313371
0.0313448
0.0313528
0.0313613
0.0313703
0.0313798
0.0313475
0.031354
0.031361
0.0313685
0.0313765
0.031385
0.031394
0.0314035
0.0314135
0.0314238
0.0314345
0.0313715
0.0313779
0.0313847
0.0313922
0.0314002
0.0314086
0.0314176
0.0314271
0.031437
0.0314473
0.031458
0.0314691
0.0314804
0.0314919
0.0315037
0.0315156
0.0313955
0.0314017
0.0314085
0.0314159
0.0314238
0.0314323
0.0314412
0.0314506
0.0314605
0.0314708
0.0314814
0.0314924
0.0315037
0.0315152
0.0315269
0.0315387
0.0314195
0.0314255
0.0314323
0.0314396
0.0314475
0.0314559
0.0314648
0.0314741
0.031484
0.0314942
0.0315047
0.0315157
0.0315269
0.0315384
0.03155
0.0315623
0.0314493
0.031456
0.0314633
0.0314711
0.0314794
0.0314883
0.0314976
0.0315074
0.0315175
0.031528
0.0315389
0.03155
0.0315618
0.0315745
0.0315892
0.031473
0.0314796
0.0314869
0.0314946
0.0315029
0.0315117
0.031521
0.0315307
0.0315408
0.0315513
0.0315625
0.0315746
0.0315884
0.0316053
0.031627
0.0314967
0.0315032
0.0315104
0.0315181
0.0315264
0.0315352
0.0315443
0.031554
0.0315646
0.0315762
0.0315894
0.0316056
0.0316257
0.0316525
0.0316894
0.0315144
0.0315202
0.0315268
0.0315339
0.0315415
0.0315498
0.0315587
0.0315686
0.0315796
0.0315926
0.0316082
0.0316277
0.0316534
0.0316878
0.0317356
0.0318025
0.0315378
0.0315437
0.0315502
0.0315576
0.0315658
0.031575
0.0315856
0.0315984
0.0316139
0.0316333
0.0316586
0.0316923
0.0317383
0.0318016
0.0318889
0.0320077
0.0315619
0.0315684
0.0315759
0.0315847
0.0315953
0.031608
0.0316236
0.0316435
0.0316693
0.0317033
0.0317491
0.0318113
0.0318959
0.0320098
0.0321601
0.032354
0.0315906
0.0315994
0.03161
0.031623
0.0316396
0.0316605
0.0316874
0.031723
0.0317702
0.0318332
0.0319175
0.0320292
0.0321753
0.0323621
0.0325933
0.0328723
0.0316215
0.031633
0.0316472
0.031665
0.0316877
0.0317172
0.0317554
0.0318054
0.0318712
0.0319576
0.0320697
0.032214
0.032396
0.0326198
0.0328886
0.0332018
0.033559
0.0316862
0.0317065
0.0317323
0.0317652
0.0318075
0.0318621
0.0319325
0.0320227
0.0321377
0.0322829
0.0324622
0.03268
0.0329396
0.0332408
0.0335839
0.0339696
0.0343964
0.0317757
0.031806
0.0318437
0.0318915
0.031952
0.0320282
0.032124
0.0322435
0.0323907
0.0325691
0.0327828
0.0330339
0.0333226
0.0336516
0.0340211
0.0344297
0.0348762
0.0353594
0.0319731
0.0320269
0.0320935
0.0321761
0.0322778
0.0324015
0.0325507
0.0327285
0.0329381
0.0331807
0.0334577
0.0337721
0.0341236
0.034513
0.0349391
0.0354004
0.0358948
0.0364218
0.0323144
0.0324012
0.0325059
0.0326313
0.0327804
0.032956
0.0331592
0.0333915
0.0336566
0.0339557
0.0342888
0.0346569
0.03506
0.0354972
0.0359679
0.0364699
0.0370014
0.0375621
0.0328353
0.0329577
0.0331015
0.0332682
0.0334608
0.0336819
0.0339328
0.0342136
0.0345266
0.0348723
0.0352505
0.0356613
0.0361045
0.0365786
0.0370832
0.0376163
0.0381766
0.0387631
0.0335332
0.0336867
0.0338648
0.0340683
0.0342992
0.0345596
0.0348499
0.0351698
0.0355208
0.0359027
0.0363158
0.0367595
0.0372332
0.0377356
0.0382663
0.038823
0.0394051
0.040011
0.0343884
0.0345685
0.0347749
0.0350083
0.0352701
0.0355612
0.0358823
0.0362323
0.0366126
0.0370222
0.0374618
0.0379303
0.0384274
0.0389513
0.0395017
0.0400767
0.0406749
0.0412952
0.0353739
0.0355746
0.0358032
0.0360598
0.0363454
0.0366601
0.0370046
0.0373776
0.0377801
0.0382107
0.0386703
0.0391578
0.0396724
0.0402129
0.0407777
0.0413664
0.0419766
0.0426079
0.0364618
0.0366783
0.0369239
0.0371983
0.0375019
0.0378344
0.0381967
0.0385871
0.0390064
0.0394528
0.0399275
0.0404293
0.0409568
0.0415098
0.0420857
0.0426843
0.0433033
0.0439427
0.0376297
0.037858
0.0381164
0.038404
0.0387214
0.0390671
0.039443
0.0398465
0.0402783
0.0407368
0.0412229
0.0417347
0.0422724
0.0428346
0.0434182
0.0440242
0.04465
0.0452954
0.0388592
0.0390967
0.0393645
0.0396623
0.0399902
0.0403456
0.0407312
0.0411449
0.0415857
0.0420531
0.0425476
0.0430671
0.0436122
0.044181
0.0447701
0.0453815
0.0460124
0.0466623
0.0401364
0.0403808
0.040656
0.0409614
0.041297
0.0416595
0.0420523
0.0424733
0.042921
0.043395
0.0438955
0.0444206
0.0449708
0.0455444
0.0461379
0.046753
0.0473878
0.0480412
0.0414511
0.0417006
0.0419811
0.0422918
0.0426332
0.043001
0.0433991
0.0438253
0.044278
0.0447569
0.0452615
0.045791
0.046345
0.046922
0.0475188
0.0481372
0.0487748
0.0494314
0.0427949
0.0430478
0.0433321
0.0436471
0.0439924
0.0443641
0.0447662
0.0451958
0.0456521
0.0461346
0.0466423
0.047175
0.0477318
0.0483116
0.0489113
0.0495328
0.0501732
0.0508332
0.0441611
0.0444169
0.0447039
0.045022
0.0453701
0.0457445
0.0461492
0.0465816
0.0470407
0.0475255
0.0480361
0.0485712
0.0491306
0.0497126
0.0503154
0.0509399
0.0515841
0.0522487
0.0455453
0.0458034
0.0460923
0.0464124
0.0467626
0.0471392
0.0475456
0.0479801
0.0484414
0.0489286
0.0494413
0.0499788
0.050541
0.0511257
0.0517319
0.052361
0.0530123
0.0536858
0.0467143
0.0469443
0.047204
0.0474943
0.047816
0.0481679
0.0485462
0.0489543
0.0493906
0.0498538
0.0503432
0.0508583
0.0513988
0.0519642
0.0525544
0.053167
0.053804
0.0544656
0.055151
0.0481259
0.0483564
0.0486171
0.0489089
0.0492319
0.0495849
0.0499651
0.0503749
0.0508133
0.0512784
0.0517707
0.0522897
0.0528357
0.0534076
0.0540058
0.0546282
0.055276
0.0559484
0.0566459
0.0493521
0.0495495
0.0497806
0.050042
0.050335
0.0506597
0.0510142
0.0513963
0.0518088
0.0522499
0.0527195
0.0532173
0.0537432
0.0542975
0.0548787
0.0554864
0.0561194
0.0567777
0.0574608
0.058169
0.0507872
0.0509856
0.0512173
0.0514797
0.0517745
0.0521013
0.0524587
0.0528452
0.0532621
0.0537086
0.0541853
0.0546912
0.0552259
0.0557889
0.05638
0.0569972
0.0576399
0.0583079
0.0590009
0.0597192
0.0522366
0.052437
0.0526707
0.0529358
0.0532338
0.0535639
0.0539265
0.0543191
0.0547429
0.0551965
0.0556812
0.0561954
0.0567391
0.0573104
0.0579105
0.0585367
0.0591884
0.0598657
0.0605676
0.0612955
0.0537081
0.0539116
0.0541487
0.0544179
0.0547207
0.0550559
0.0554244
0.0558234
0.0562542
0.0567154
0.0572078
0.0577298
0.0582814
0.0588608
0.0594692
0.0601035
0.0607638
0.0614501
0.062161
0.0628984
0.0552099
0.0554168
0.0556571
0.055931
0.0562385
0.0565791
0.0569533
0.0573586
0.057796
0.0582643
0.0587636
0.0592925
0.0598516
0.0604387
0.0610549
0.0616973
0.0623661
0.0630616
0.0637821
0.0645298
0.0567434
0.0569534
0.0571972
0.0574752
0.0577872
0.0581328
0.058512
0.0589231
0.0593665
0.0598412
0.0603471
0.0608828
0.061449
0.0620438
0.0626678
0.0633189
0.0639967
0.0647023
0.0654335
0.0661923
0.0583072
0.0585201
0.0587669
0.0590488
0.0593653
0.0597154
0.0600991
0.0605158
0.0609648
0.0614456
0.061958
0.0625008
0.0630744
0.0636773
0.06431
0.0649702
0.0656583
0.0663749
0.0671181
0.0678893
0.0598998
0.0601155
0.0603654
0.060651
0.0609715
0.0613262
0.0617145
0.0621366
0.0625911
0.0630782
0.0635976
0.0641477
0.0647295
0.0653416
0.0659837
0.0666546
0.0673541
0.068083
0.0688395
0.0696244
0.0615209
0.0617394
0.0619924
0.0622817
0.0626063
0.0629654
0.0633587
0.0637866
0.0642471
0.0647412
0.0652681
0.0658266
0.0664174
0.0670396
0.0676926
0.0683754
0.0690876
0.0698299
0.0706008
0.0714002
0.0631711
0.0633924
0.0636487
0.0639419
0.0642711
0.0646351
0.065034
0.065468
0.0659357
0.0664374
0.0669727
0.0675407
0.0681417
0.068775
0.0694402
0.0701359
0.0708618
0.0716185
0.0724042
0.0732186
0.0648527
0.0650769
0.0653371
0.0656345
0.0659687
0.0663384
0.0667436
0.0671847
0.0676602
0.0681705
0.0687153
0.0692936
0.0699057
0.0705512
0.0712293
0.0719387
0.0726787
0.0734501
0.0742505
0.0750794
0.0665685
0.0667961
0.0670606
0.0673628
0.0677026
0.0680788
0.068491
0.06894
0.0694242
0.0699441
0.070499
0.0710885
0.0717125
0.0723705
0.0730619
0.0737852
0.0745389
0.0753242
0.0761382
0.07698
0.0683224
0.0685538
0.0688231
0.0691307
0.0694767
0.0698597
0.0702798
0.0707374
0.0712308
0.0717609
0.0723264
0.0729275
0.0735633
0.0742338
0.0749379
0.075674
0.0764402
0.0772378
0.0780632
0.0789156
0.0701181
0.0703539
0.0706281
0.0709414
0.071294
0.0716844
0.0721126
0.0725789
0.0730819
0.0736223
0.0741982
0.0748104
0.0754576
0.0761394
0.0768547
0.0776018
0.0783784
0.0791857
0.0800201
0.0808813
0.0719582
0.0721986
0.0724778
0.0727972
0.0731565
0.0735542
0.0739905
0.0744654
0.0749774
0.0755273
0.0761129
0.076735
0.0773919
0.0780832
0.0788077
0.0795635
0.0803482
0.0811631
0.0820052
0.082874
0.0738442
0.0740891
0.0743733
0.0746983
0.0750639
0.0754686
0.0759125
0.0763949
0.0769148
0.0774728
0.0780666
0.0786964
0.079361
0.0800601
0.0807916
0.0815542
0.0823458
0.0831674
0.0840169
0.0848935
0.0757749
0.076024
0.0763127
0.0766426
0.0770137
0.0774243
0.0778743
0.0783629
0.0788892
0.0794534
0.0800535
0.0806894
0.0813601
0.0820654
0.0828032
0.083572
0.0843705
0.0851991
0.0860565
0.0869416
0.0777467
0.077999
0.0782914
0.0786254
0.0790006
0.0794159
0.0798704
0.080364
0.0808951
0.0814645
0.0820697
0.0827107
0.0833871
0.0840983
0.0848422
0.0856179
0.0864239
0.0872603
0.0881263
0.0890208
0.0797539
0.0800088
0.080304
0.080641
0.0810196
0.0814384
0.0818967
0.0823941
0.0829297
0.0835036
0.0841137
0.08476
0.0854424
0.08616
0.0869109
0.0876941
0.0885083
0.0893535
0.090229
0.0911339
0.081792
0.0820487
0.0823465
0.0826858
0.0830674
0.0834894
0.0839514
0.0844525
0.0849928
0.0855715
0.086187
0.0868391
0.0875282
0.088253
0.0890116
0.0898034
0.0906265
0.0914815
0.0923675
0.0932836
0.083859
0.0841176
0.0844177
0.0847598
0.0851443
0.0855699
0.0860358
0.0865412
0.0870866
0.0876707
0.0882923
0.088951
0.0896473
0.09038
0.0911472
0.0919483
0.0927813
0.0936469
0.0945442
0.0954724
0.0859561
0.0862168
0.0865196
0.0868645
0.0872526
0.0876821
0.0881525
0.0886628
0.0892138
0.089804
0.0904323
0.0910983
0.0918027
0.0925439
0.0933205
0.0941317
0.0949755
0.0958526
0.0967619
0.0977032
0.0880857
0.088349
0.0886547
0.089003
0.0893952
0.0898289
0.0903042
0.0908202
0.0913773
0.0919742
0.0926098
0.093284
0.0939971
0.0947477
0.0955345
0.0963564
0.0972118
0.0981011
0.0990235
0.0999789
0.0915747
0.0920134
0.092494
0.0930163
0.0935801
0.0941841
0.0948278
0.0955108
0.0962334
0.0969941
0.0977917
0.0986253
0.0994931
0.100395
0.101332
0.102302
0.095825
0.0964369
0.0970893
0.0977817
0.0985145
0.099286
0.100095
0.100941
0.101822
0.102739
0.103689
0.104676
0.0316243
0.0316016
0.0316877
0.0316497
0.031802
0.0317339
0.0320084
0.0318885
0.0317998
0.0323557
0.0321611
0.0320094
0.0328748
0.0325954
0.032363
0.0321741
0.0335621
0.0332049
0.0328906
0.0326201
0.0344
0.0339735
0.0335869
0.0332422
0.0353636
0.0348809
0.0344335
0.0340236
0.0336517
0.0364268
0.0359002
0.035405
0.0349426
0.0345141
0.037568
0.0370078
0.0364752
0.0359725
0.0354993
0.03877
0.0381839
0.0376229
0.037089
0.0365816
0.0400189
0.0394133
0.0388305
0.038273
0.0377395
0.0413043
0.0406845
0.0400852
0.0395094
0.0389563
0.0426185
0.0419878
0.0413764
0.0407871
0.0402191
0.0396747
0.0439553
0.0433161
0.0426959
0.0420969
0.0415176
0.0409616
0.0453094
0.0446646
0.0440377
0.0434313
0.0428441
0.0422791
0.0417374
0.0466781
0.0460287
0.0453973
0.0447854
0.0441919
0.0436205
0.0430722
0.0425493
0.0480588
0.0474061
0.0467709
0.046155
0.0455573
0.0449806
0.0444276
0.0438987
0.0433959
0.049451
0.0487949
0.0481571
0.0475376
0.0469366
0.0463564
0.0457995
0.0452662
0.0447588
0.044278
0.0508546
0.0501949
0.0495545
0.048932
0.0483279
0.0477449
0.047185
0.0466489
0.046138
0.0456538
0.0522719
0.0516073
0.0509632
0.0503376
0.0497309
0.0491453
0.0485825
0.0480441
0.0475306
0.0470438
0.0537105
0.0530371
0.0523858
0.0517556
0.0511456
0.0505569
0.0499916
0.0494511
0.0489354
0.048446
0.0551775
0.0544916
0.0538297
0.0531918
0.0525753
0.0519815
0.0514132
0.0508699
0.0503514
0.0498596
0.0566738
0.0559759
0.0553026
0.0546539
0.0540277
0.0534259
0.0528512
0.0523025
0.0517805
0.0512856
0.0581989
0.0574896
0.0568057
0.0561458
0.0555092
0.0548979
0.0543136
0.0537566
0.0532284
0.0527281
0.0597509
0.0590316
0.0583376
0.0576678
0.0570211
0.0564
0.0558058
0.0552399
0.054703
0.0541948
0.0613292
0.0606006
0.059897
0.0592181
0.058562
0.0579318
0.0573285
0.0567536
0.056208
0.0556916
0.0629343
0.0621962
0.0614833
0.0607954
0.0601305
0.0594918
0.0588801
0.058297
0.0577431
0.0572188
0.0645682
0.0638199
0.063097
0.0623999
0.0617261
0.061079
0.0604592
0.0598687
0.0593069
0.0587751
0.0662333
0.0654739
0.06474
0.0640328
0.0633497
0.062694
0.0620659
0.0614678
0.0608985
0.0603594
0.0679334
0.0671613
0.0664155
0.0656971
0.0650035
0.0643382
0.0637013
0.0630949
0.0625178
0.0619715
0.0316249
0.0316882
0.0318024
0.0320088
0.032356
0.032875
0.0335622
0.0344001
0.0353636
0.0364269
0.037568
0.0387695
0.0400184
0.0413043
0.0426184
0.0439548
0.0453092
0.0466779
0.0480591
0.0494514
0.0508549
0.0522722
0.0537107
0.0551774
0.0566739
0.0581987
0.0597509
0.0613295
0.0629349
0.0645688
0.066234
0.0679343
0.0316033
0.0316513
0.0317354
0.0318898
0.0321622
0.0325963
0.0332056
0.033974
0.0348811
0.0359004
0.0370075
0.0381831
0.0394123
0.0406827
0.0419856
0.0433139
0.0446618
0.0460259
0.0474033
0.0487925
0.0501931
0.0516058
0.0530356
0.0544905
0.0559747
0.0574885
0.0590302
0.0605988
0.0621943
0.0638176
0.0654712
0.0671583
0.0688825
0.0315868
0.0316247
0.0316876
0.0318023
0.0320116
0.0323648
0.0328921
0.033588
0.0344343
0.0354055
0.0364757
0.0376231
0.0388306
0.0400848
0.0413754
0.0426942
0.0440351
0.0453936
0.0467669
0.0481523
0.0495492
0.0509578
0.0523805
0.0538248
0.0552974
0.0567998
0.0583311
0.0598899
0.0614751
0.0630876
0.064729
0.0664023
0.068111
0.0698584
0.0716474
0.0734793
0.0753536
0.0772676
0.0315733
0.0316047
0.0316531
0.0317388
0.0318973
0.0321776
0.0326229
0.0332445
0.0340253
0.0349438
0.0359729
0.0370889
0.0382725
0.0395088
0.0407856
0.0420941
0.0434276
0.0447806
0.0461496
0.0475318
0.0489255
0.0503307
0.0517484
0.0531845
0.0546465
0.0561383
0.0576594
0.0592084
0.0607846
0.0623877
0.0640192
0.0656814
0.067378
0.0691121
0.0708871
0.0727048
0.074566
0.0764686
0.0315617
0.0315889
0.0316277
0.0316928
0.0318126
0.0320313
0.032399
0.0329434
0.033656
0.034518
0.035503
0.0365849
0.0377424
0.0389587
0.0402207
0.0415182
0.0428434
0.0441905
0.0455548
0.0469335
0.0483246
0.0497268
0.051141
0.0525704
0.0540225
0.0555039
0.0570152
0.0585554
0.060123
0.0617177
0.06334
0.0649922
0.0666773
0.068399
0.0701605
0.0719646
0.0738124
0.075703
0.031551
0.031576
0.0316083
0.0316592
0.0317503
0.0319194
0.0322167
0.0326835
0.0333267
0.0341284
0.0350653
0.0361101
0.0372393
0.038434
0.0396799
0.0409653
0.0422817
0.0436225
0.0449824
0.0463575
0.0477458
0.0491455
0.0505569
0.0519815
0.0534255
0.0548969
0.0563986
0.0579298
0.059489
0.0610752
0.0626887
0.0643313
0.0660056
0.0677153
0.0694636
0.0712536
0.0730873
0.0749644
0.0768825
0.0315409
0.0315648
0.031593
0.031634
0.0317044
0.0318349
0.0320721
0.0324654
0.0330377
0.0337765
0.0346619
0.0356668
0.0367656
0.0379374
0.0391659
0.0404385
0.0417451
0.0430783
0.0444328
0.0458042
0.0471895
0.0485871
0.0499957
0.0514165
0.0528543
0.0543167
0.055809
0.0573311
0.0588821
0.0604606
0.0620663
0.0637004
0.0653653
0.0670644
0.0688008
0.0705781
0.0723988
0.0742635
0.0761709
0.0315313
0.0315547
0.0315803
0.0316148
0.0316705
0.0317719
0.0319599
0.0322857
0.0327862
0.0334616
0.0342932
0.0352556
0.0363216
0.0374685
0.0386781
0.0399367
0.0412332
0.0425591
0.0439084
0.0452759
0.0466581
0.048053
0.0494594
0.0508774
0.0523097
0.0537638
0.0552469
0.0567606
0.0583036
0.0598744
0.0614726
0.063099
0.0647553
0.0664445
0.06817
0.0699356
0.071744
0.0735967
0.0754932
0.0315219
0.0315453
0.0315697
0.0315997
0.031645
0.0317248
0.0318735
0.0321405
0.0325725
0.0331846
0.0339601
0.0348773
0.0359086
0.0370289
0.0382183
0.0394615
0.0407467
0.0420645
0.0434078
0.0447713
0.0461504
0.0475428
0.048947
0.050363
0.0517918
0.0532395
0.0547143
0.0562193
0.0577544
0.0593181
0.0609094
0.0625284
0.0641767
0.0658569
0.0675724
0.069327
0.0711238
0.0729649
0.0748503
0.0315131
0.0315365
0.0315601
0.0315872
0.0316253
0.0316894
0.0318079
0.0320256
0.0323941
0.0329421
0.0336612
0.0345317
0.0355264
0.0366188
0.0377874
0.0390149
0.040288
0.0415972
0.0429341
0.0442926
0.0456684
0.0470582
0.0484604
0.0498744
0.0513006
0.0527431
0.0542097
0.0557062
0.0572335
0.0587902
0.060375
0.0619877
0.0636289
0.0653011
0.0670076
0.0687521
0.0705381
0.072368
0.0742428
0.0315046
0.0315281
0.0315515
0.0315768
0.03161
0.0316627
0.031758
0.0319355
0.0322469
0.0327323
0.0333957
0.0342182
0.0351751
0.0362384
0.0373847
0.0385952
0.0398561
0.041156
0.0424858
0.0438396
0.0452119
0.0465993
0.0479995
0.0494117
0.0508357
0.0522737
0.0537335
0.0552225
0.0567428
0.0582928
0.0598712
0.0614773
0.0631119
0.0647769
0.0664756
0.068211
0.069987
0.0718062
0.0736706
0.0315202
0.0315436
0.031568
0.0315976
0.0316421
0.0317199
0.0318652
0.0321274
0.0325545
0.0331632
0.0339371
0.0348548
0.0358878
0.0370112
0.0382044
0.039452
0.040742
0.0420651
0.0434134
0.0447818
0.0461662
0.0475641
0.0489743
0.0503964
0.0518318
0.0532866
0.0547687
0.0562818
0.0578252
0.0593976
0.0609978
0.0626265
0.064285
0.0659762
0.0677031
0.0694695
0.0712787
0.0731329
0.0315364
0.0315601
0.0315873
0.0316258
0.0316907
0.0318108
0.0320318
0.0324055
0.0329603
0.0336868
0.0345651
0.0355675
0.0366673
0.0378427
0.0390772
0.0403571
0.0416723
0.0430153
0.0443798
0.0457614
0.0471577
0.0485662
0.0499868
0.0514202
0.052871
0.0543469
0.0558531
0.05739
0.0589563
0.0605509
0.0621736
0.0638258
0.0655097
0.067229
0.068987
0.0707873
0.0726323
0.0315293
0.0315528
0.0315786
0.0316128
0.0316681
0.0317686
0.0319557
0.0322818
0.0327849
0.0334658
0.034305
0.0352767
0.0363531
0.0375108
0.0387317
0.0400016
0.0413095
0.042647
0.0440075
0.0453864
0.0467802
0.0481872
0.0496064
0.0510379
0.0524848
0.0539548
0.0554548
0.0569857
0.0585467
0.0601362
0.0617538
0.0634004
0.0650781
0.0667903
0.0685405
0.0703324
0.0721689
0.0315463
0.0315712
0.0316024
0.0316504
0.0317357
0.0318953
0.0321802
0.0326358
0.0332731
0.0340739
0.0350147
0.0360673
0.0372071
0.0384147
0.0396747
0.0409753
0.0423072
0.0436637
0.0450401
0.0464326
0.0478383
0.0492564
0.0506864
0.0521302
0.0535953
0.0550892
0.0566144
0.0581698
0.0597542
0.0613671
0.0630088
0.0646811
0.0663872
0.0681306
0.0699146
0.071743
0.0315403
0.0315646
0.0315935
0.0316362
0.0317099
0.0318475
0.0320976
0.0325104
0.0331065
0.0338706
0.0347817
0.0358113
0.0369336
0.0381277
0.0393777
0.0406708
0.0419974
0.0433502
0.0447237
0.046114
0.0475179
0.0489346
0.0503634
0.0518057
0.053267
0.0547556
0.0562751
0.0578253
0.0594049
0.0610133
0.0626503
0.0643178
0.0660185
0.0677556
0.069533
0.0713541
0.0315588
0.0315861
0.0316247
0.0316897
0.0318098
0.0320311
0.0324059
0.0329629
0.0336927
0.0345752
0.0355825
0.0366876
0.0378686
0.0391087
0.0403948
0.0417162
0.0430656
0.0444365
0.0458247
0.0472276
0.0486432
0.0500708
0.0515114
0.0529695
0.0544537
0.0559685
0.0575145
0.0590904
0.0606948
0.062328
0.063991
0.0656867
0.0674182
0.0691894
0.0710039
0.0315798
0.0316155
0.0316737
0.0317802
0.0319779
0.0323196
0.032841
0.0335395
0.0343955
0.0353821
0.0364715
0.0376406
0.0388716
0.0401506
0.0414672
0.0428125
0.044181
0.0455677
0.0469693
0.0483836
0.0498102
0.0512495
0.0527052
0.0541852
0.0556958
0.0572379
0.05881
0.0604111
0.0620406
0.0636997
0.065391
0.0671177
0.0688835
0.0706924
0.0315745
0.031608
0.0316611
0.0317568
0.0319354
0.0322493
0.0327396
0.0334102
0.0342419
0.0352092
0.0362839
0.0374421
0.038665
0.039938
0.04125
0.0425921
0.0439579
0.0453423
0.0467425
0.0481562
0.0495818
0.0510199
0.052473
0.0539493
0.0554561
0.0569942
0.058563
0.0601609
0.0617874
0.0634433
0.0651309
0.0668534
0.0686145
0.070418
0.0315699
0.0316018
0.0316509
0.0317384
0.0319018
0.0321929
0.0326565
0.0333027
0.0341126
0.0350627
0.0361239
0.037272
0.0384872
0.0397548
0.0410627
0.042402
0.0437659
0.0451493
0.0465483
0.0479607
0.0493856
0.050823
0.0522746
0.053748
0.0552515
0.0567866
0.0583526
0.0599477
0.0615715
0.0632245
0.0649088
0.0666278
0.0683849
0.0701841
0.031566
0.0315966
0.0316429
0.0317242
0.0318758
0.0321486
0.0325902
0.0332156
0.0340071
0.034942
0.0359919
0.0371311
0.0383396
0.0396019
0.0409059
0.0422426
0.0436047
0.0449868
0.0463849
0.0477969
0.0492211
0.0506577
0.0521081
0.0535799
0.0550808
0.0566132
0.0581764
0.0597693
0.0613908
0.0630416
0.0647235
0.0664395
0.0681933
0.0699889
0.0315926
0.0316368
0.0317134
0.0318562
0.0321149
0.032539
0.0331474
0.0339236
0.0348461
0.0358862
0.0370182
0.0382212
0.0394797
0.0407808
0.0421151
0.0434757
0.0448567
0.0462543
0.0476657
0.0490894
0.0505253
0.0519749
0.0534451
0.0549438
0.0564742
0.0580354
0.0596264
0.0612459
0.0628945
0.0645742
0.0662878
0.068039
0.0698317
0.0315893
0.031632
0.0317055
0.031842
0.0320905
0.0325016
0.0330971
0.0338619
0.0347751
0.035808
0.0369345
0.0381333
0.0393885
0.040687
0.0420199
0.0433789
0.0447586
0.0461554
0.0475666
0.0489901
0.0504257
0.0518749
0.0533443
0.0548415
0.05637
0.0579295
0.059519
0.061137
0.0627842
0.0644622
0.066174
0.0679233
0.0697138
0.0316286
0.0317001
0.0318327
0.0320746
0.0324771
0.0330638
0.0338209
0.0347278
0.0357558
0.0368785
0.0380746
0.0393276
0.0406247
0.0419563
0.0433145
0.0446937
0.04609
0.0475008
0.0489239
0.0503593
0.051808
0.0532763
0.0547722
0.0562995
0.057858
0.0594461
0.0610633
0.0627094
0.0643863
0.0660969
0.0678449
0.0696341
0.0316264
0.031697
0.0318277
0.0320664
0.0324648
0.0330471
0.0338003
0.0347038
0.0357294
0.0368502
0.0380449
0.0392969
0.0405933
0.0419242
0.0432819
0.0446609
0.0460567
0.0474671
0.04889
0.0503249
0.0517736
0.0532415
0.054737
0.0562637
0.0578218
0.0594094
0.0610258
0.0626713
0.0643477
0.0660579
0.0678051
0.0695937
0.0316962
0.031827
0.0320659
0.0324644
0.0330468
0.0337999
0.0347033
0.0357287
0.0368493
0.0380437
0.0392956
0.0405921
0.041923
0.043281
0.0446602
0.0460563
0.0474665
0.0488893
0.0503243
0.051773
0.053241
0.0547367
0.0562634
0.0578214
0.0594091
0.0610257
0.0626713
0.0643478
0.0660577
0.067805
0.0695935
0.0316977
0.0318307
0.0320731
0.0324761
0.0330631
0.0338202
0.0347268
0.0357546
0.036877
0.0380727
0.0393257
0.0406228
0.0419542
0.0433125
0.0446917
0.0460882
0.0474987
0.0489218
0.050357
0.0518059
0.0532744
0.0547707
0.0562981
0.0578565
0.0594446
0.0610618
0.062708
0.0643851
0.0660957
0.0678435
0.0696327
0.0317018
0.031839
0.0320882
0.0325001
0.0330961
0.033861
0.0347742
0.0358069
0.036933
0.0381318
0.0393867
0.0406852
0.0420179
0.043377
0.0447568
0.0461536
0.0475642
0.0489875
0.0504232
0.0518726
0.0533416
0.0548386
0.056367
0.0579264
0.0595154
0.0611333
0.0627805
0.0644585
0.0661704
0.0679195
0.0697103
0.0317087
0.0318523
0.032112
0.0325372
0.0331463
0.033923
0.0348457
0.0358858
0.0370176
0.0382205
0.0394784
0.0407794
0.0421136
0.043474
0.0448552
0.0462526
0.0476638
0.0490874
0.0505231
0.0519725
0.0534426
0.0549411
0.0564713
0.0580324
0.0596229
0.0612422
0.0628906
0.0645701
0.0662836
0.0680347
0.0698276
0.0317186
0.0318713
0.0321453
0.0325881
0.0332143
0.0340063
0.0349415
0.0359913
0.0371304
0.0383388
0.0396008
0.0409049
0.0422411
0.0436029
0.0449846
0.0463825
0.0477943
0.0492185
0.050655
0.0521056
0.053577
0.0550775
0.0566095
0.0581726
0.0597653
0.0613864
0.0630369
0.0647186
0.0664345
0.0681882
0.0699839
0.031732
0.0318966
0.0321892
0.0326542
0.0333014
0.034112
0.0350622
0.0361237
0.0372717
0.0384871
0.0397544
0.041062
0.0424014
0.043765
0.0451479
0.0465465
0.047959
0.0493838
0.050821
0.0522724
0.0537459
0.0552492
0.0567843
0.05835
0.0599451
0.0615685
0.0632214
0.0649056
0.0666243
0.0683812
0.0701804
0.0317496
0.0319296
0.0322453
0.0327371
0.0334088
0.0342412
0.035209
0.0362839
0.0374422
0.0386651
0.0399384
0.0412503
0.0425924
0.043958
0.0453428
0.0467428
0.0481562
0.0495817
0.0510194
0.0524725
0.0539489
0.0554554
0.0569934
0.0585619
0.0601594
0.0617853
0.0634408
0.0651282
0.0668505
0.0686116
0.0704149
0.0317724
0.0319718
0.0323155
0.0328387
0.0335385
0.0343953
0.0353823
0.0364721
0.0376414
0.0388728
0.0401523
0.0414687
0.042814
0.0441823
0.0455689
0.0469705
0.0483847
0.049811
0.0512501
0.0527055
0.0541854
0.0556959
0.0572374
0.0588092
0.0604097
0.0620386
0.0636976
0.0653885
0.067115
0.0688805
0.0706888
0.0318018
0.032025
0.0324019
0.0329608
0.0336919
0.0345754
0.0355836
0.0366897
0.0378714
0.0391119
0.040398
0.0417195
0.0430686
0.0444393
0.0458273
0.04723
0.0486451
0.0500725
0.0515131
0.0529712
0.0544551
0.0559696
0.057515
0.0590905
0.0606944
0.0623269
0.0639897
0.0656847
0.0674159
0.0691866
0.0710008
0.0318393
0.0320915
0.0325064
0.0331043
0.0338696
0.0347817
0.035812
0.036935
0.0381294
0.0393795
0.0406728
0.0419994
0.0433525
0.044726
0.0461159
0.0475201
0.0489364
0.0503649
0.0518067
0.0532677
0.0547559
0.0562754
0.0578254
0.0594048
0.0610128
0.0626494
0.0643163
0.0660161
0.0677527
0.0695295
0.0713502
0.0318871
0.0321741
0.0326319
0.033271
0.0340731
0.0350151
0.0360686
0.0372088
0.0384168
0.0396768
0.0409774
0.0423095
0.0436662
0.0450422
0.0464344
0.04784
0.0492575
0.0506871
0.0521305
0.0535951
0.0550889
0.0566137
0.0581688
0.0597528
0.0613651
0.0630062
0.064678
0.0663836
0.0681265
0.0699103
0.071738
0.0319475
0.0322759
0.0327812
0.0334637
0.0343043
0.0352769
0.0363539
0.037512
0.0387332
0.040003
0.0413109
0.042648
0.0440086
0.0453873
0.0467812
0.0481881
0.0496071
0.0510383
0.0524848
0.0539542
0.0554534
0.0569839
0.0585443
0.0601335
0.0617506
0.0633969
0.0650743
0.066786
0.0685357
0.0703271
0.0721631
0.0320238
0.0323999
0.0329569
0.033685
0.0345644
0.0355677
0.036668
0.0378441
0.0390791
0.0403593
0.0416747
0.0430175
0.0443818
0.0457637
0.0471596
0.048568
0.0499881
0.051421
0.0528709
0.0543461
0.0558515
0.0573876
0.0589533
0.0605473
0.0621694
0.063821
0.0655045
0.0672231
0.0689807
0.0707804
0.0726253
0.0321196
0.032549
0.0331598
0.0339353
0.0348538
0.0358876
0.0370113
0.0382051
0.0394532
0.0407436
0.0420665
0.0434147
0.0447827
0.0461673
0.0475656
0.0489758
0.0503976
0.0518324
0.0532865
0.0547679
0.0562801
0.0578226
0.0593942
0.0609938
0.0626217
0.0642794
0.0659696
0.067696
0.0694621
0.0712711
0.0731253
0.0322393
0.0327271
0.0333924
0.0342164
0.0351741
0.0362383
0.0373851
0.0385962
0.0398571
0.0411569
0.0424867
0.0438401
0.045212
0.0465991
0.0479994
0.0494111
0.0508346
0.0522723
0.0537314
0.0552201
0.0567394
0.0582886
0.0598664
0.061472
0.0631061
0.0647704
0.0664683
0.0682032
0.0699786
0.0717975
0.0736615
0.0323868
0.0329372
0.033658
0.0345298
0.0355254
0.0366183
0.0377872
0.0390148
0.0402883
0.0415975
0.0429339
0.0442921
0.0456677
0.0470573
0.0484594
0.049873
0.051299
0.0527412
0.0542073
0.0557034
0.0572299
0.0587858
0.06037
0.0619819
0.0636226
0.0652944
0.0670007
0.0687448
0.0705304
0.0723597
0.0742339
0.0325656
0.0331799
0.0339571
0.0348757
0.035908
0.037029
0.0382192
0.0394631
0.0407484
0.0420661
0.0434088
0.0447713
0.04615
0.0475423
0.0489463
0.0503617
0.0517902
0.0532375
0.0547115
0.0562159
0.0577503
0.0593135
0.0609042
0.0625228
0.0641708
0.0658507
0.067566
0.0693203
0.0711167
0.072957
0.0748419
0.0327795
0.033457
0.0342903
0.035254
0.0363212
0.0374688
0.0386791
0.0399379
0.0412342
0.0425602
0.0439089
0.0452761
0.0466581
0.0480525
0.0494585
0.0508763
0.0523079
0.0537611
0.0552433
0.0567561
0.0582986
0.0598692
0.0614671
0.0630929
0.0647489
0.0664378
0.0681632
0.0699286
0.0717367
0.073589
0.0754847
0.0330313
0.0337721
0.0346594
0.0356655
0.036765
0.0379374
0.0391663
0.040439
0.0417462
0.0430796
0.0444338
0.0458045
0.0471893
0.0485859
0.0499939
0.051414
0.0528509
0.0543123
0.0558037
0.0573254
0.0588758
0.0604537
0.0620589
0.0636926
0.0653572
0.067056
0.0687922
0.0705691
0.0723894
0.0742536
0.0761603
0.0333204
0.034124
0.0350624
0.0361083
0.0372382
0.0384333
0.0396796
0.0409655
0.0422818
0.043622
0.0449814
0.0463559
0.0477435
0.0491424
0.0505527
0.0519762
0.0534192
0.0548897
0.0563904
0.0579208
0.0594792
0.0610649
0.0626781
0.0643204
0.0659946
0.067704
0.0694521
0.0712418
0.0730749
0.0749514
0.076869
0.0336491
0.0345129
0.0354992
0.036582
0.03774
0.0389565
0.0402184
0.0415159
0.0428408
0.0441874
0.0455513
0.0469295
0.0483198
0.0497214
0.0511346
0.0525628
0.054014
0.0554945
0.0570048
0.0585442
0.0601111
0.0617049
0.0633265
0.0649781
0.0666625
0.0683833
0.0701439
0.0719468
0.0737932
0.075682
0.0776099
0.0340177
0.034938
0.0359683
0.0370852
0.038269
0.0395051
0.0407821
0.0420905
0.0434239
0.0447769
0.0461453
0.0475268
0.0489197
0.0503237
0.0517403
0.053175
0.0546359
0.0561264
0.0576466
0.0591948
0.0607698
0.0623721
0.0640027
0.0656641
0.0673596
0.0690927
0.0708665
0.0726829
0.0745424
0.0764432
0.0783806
0.0803495
0.0823461
0.0843698
0.086422
0.0344259
0.0353983
0.0364692
0.0376172
0.0388247
0.0400787
0.0413689
0.0426872
0.0440277
0.0453859
0.0467586
0.0481431
0.0495387
0.050946
0.0523674
0.0538102
0.0552815
0.0567826
0.0583127
0.0598699
0.0614537
0.0630648
0.064705
0.0663774
0.068085
0.0698316
0.0716195
0.0734504
0.0753238
0.0772365
0.0791836
0.0811603
0.083164
0.085195
0.0872554
0.0348725
0.0358927
0.0370004
0.0381761
0.0394047
0.0406749
0.0419773
0.0433049
0.0446519
0.0460149
0.047391
0.0487788
0.0501775
0.0515882
0.0530162
0.0544695
0.055952
0.0574638
0.0590036
0.0605702
0.0621632
0.063784
0.0654347
0.0671188
0.0688397
0.0706004
0.0724035
0.0742493
0.0761364
0.0780606
0.0800169
0.082001
0.0840116
0.0860504
0.0881195
0.0353544
0.0364184
0.0375596
0.038761
0.0400094
0.0412946
0.0426079
0.0439437
0.0452968
0.0466641
0.0480435
0.0494337
0.0508351
0.0522507
0.0536875
0.0551526
0.056647
0.05817
0.0597197
0.0612957
0.0628982
0.064529
0.0661911
0.0678878
0.0696223
0.0713978
0.0732159
0.0750763
0.0769765
0.0789118
0.080877
0.082869
0.0848878
0.0869355
0.0890142
0.035354
0.036418
0.0375593
0.0387606
0.040009
0.0412942
0.0426074
0.0439427
0.0452958
0.046663
0.0480425
0.0494329
0.0508345
0.0522501
0.0536869
0.0551518
0.0566464
0.0581692
0.059719
0.061295
0.0628976
0.0645285
0.0661906
0.0678873
0.0696219
0.0713974
0.0732154
0.0750759
0.0769761
0.0789114
0.0808766
0.0828689
0.0848879
0.0869356
0.0890145
0.0348717
0.0358918
0.0369992
0.0381747
0.0394035
0.0406732
0.0419753
0.0433026
0.0446493
0.046012
0.0473879
0.0487755
0.0501744
0.0515854
0.0530136