/*--------------------------------*- C++ -*----------------------------------*\
  =========                 |
  \\      /  F ield         | OpenFOAM: The Open Source CFD Toolbox
   \\    /   O peration     | Website:  https://openfoam.org
    \\  /    A nd           | Version:  7
     \\/     M anipulation  |
\*---------------------------------------------------------------------------*/
FoamFile
{
    version     2.0;
    format      ascii;
    class       volScalarField;
    location    "224000";
    object      strainRate;
}
// * * * * * * * * * * * * * * * * * * * * * * * * * * * * * * * * * * * * * //

dimensions      [0 0 -1 0 0 0 0];

internalField   nonuniform List<scalar> 
4838
(
0.00332982
0.00319973
0.00315749
0.00309705
0.00302937
0.00295929
0.0028888
0.00281888
0.00275014
0.002683
0.00261785
0.00255503
0.00249489
0.00243774
0.0023839
0.00233369
0.00228742
0.00224538
0.00220787
0.00217514
0.00214745
0.00212502
0.00210802
0.00209661
0.00209088
0.00209088
0.00209661
0.00210802
0.00212502
0.00214745
0.00217514
0.00220787
0.00224538
0.00228742
0.00233369
0.0023839
0.00243774
0.00249489
0.00255504
0.00261785
0.002683
0.00275014
0.00281888
0.0028888
0.00295929
0.00302937
0.00309705
0.00315749
0.00319974
0.00332982
0.00406558
0.00367126
0.00361229
0.00353735
0.00345203
0.00336203
0.00327101
0.00318111
0.00309356
0.00300911
0.00292825
0.00285137
0.00277874
0.00271064
0.00264731
0.00258894
0.00253576
0.00248796
0.0024457
0.00240916
0.00237847
0.00235377
0.00233515
0.00232269
0.00231644
0.00231644
0.00232269
0.00233515
0.00235377
0.00237847
0.00240916
0.0024457
0.00248796
0.00253577
0.00258894
0.00264731
0.00271065
0.00277874
0.00285137
0.00292825
0.00300911
0.00309356
0.00318111
0.00327101
0.00336203
0.00345203
0.00353735
0.00361229
0.00367126
0.00406558
0.00437295
0.00391075
0.00382364
0.00374245
0.00365935
0.0035735
0.00348627
0.00339925
0.00331376
0.00323072
0.00315084
0.0030746
0.00300242
0.00293462
0.00287148
0.00281325
0.00276016
0.00271243
0.00267022
0.00263372
0.00260308
0.0025784
0.00255981
0.00254736
0.00254113
0.00254113
0.00254736
0.00255981
0.0025784
0.00260308
0.00263372
0.00267022
0.00271243
0.00276016
0.00281325
0.00287148
0.00293462
0.00300242
0.00307461
0.00315084
0.00323073
0.00331376
0.00339925
0.00348627
0.0035735
0.00365935
0.00374245
0.00382364
0.00391075
0.00437295
0.00460254
0.00415204
0.00404635
0.00395248
0.00386406
0.00377749
0.00369166
0.00360676
0.00352344
0.00344239
0.00336425
0.00328953
0.00321867
0.00315203
0.00308991
0.00303258
0.00298029
0.00293325
0.00289166
0.00285567
0.00282546
0.00280113
0.00278279
0.00277052
0.00276437
0.00276437
0.00277052
0.00278279
0.00280113
0.00282546
0.00285567
0.00289166
0.00293325
0.00298029
0.00303258
0.00308991
0.00315203
0.00321868
0.00328954
0.00336425
0.00344239
0.00352344
0.00360677
0.00369167
0.00377749
0.00386407
0.00395249
0.00404635
0.00415204
0.00460254
0.00481515
0.00438627
0.00427471
0.00417256
0.00407775
0.00398767
0.00390063
0.00381591
0.00373348
0.00365362
0.00357674
0.00350325
0.00343354
0.00336795
0.0033068
0.00325036
0.00319886
0.00315252
0.00311155
0.0030761
0.00304633
0.00302237
0.0030043
0.00299221
0.00298616
0.00298616
0.00299221
0.0030043
0.00302237
0.00304633
0.0030761
0.00311155
0.00315252
0.00319886
0.00325036
0.0033068
0.00336795
0.00343354
0.00350325
0.00357674
0.00365362
0.00373348
0.00381591
0.00390063
0.00398767
0.00407775
0.00417257
0.00427471
0.00438627
0.00481515
0.00502151
0.0046136
0.00450112
0.00439538
0.00429628
0.00420274
0.00411353
0.00402783
0.00394526
0.00386578
0.00378956
0.00371686
0.00364799
0.00358324
0.00352288
0.00346718
0.00341637
0.00337067
0.00333025
0.00329529
0.00326593
0.00324229
0.00322447
0.00321256
0.00320659
0.00320659
0.00321256
0.00322448
0.00324229
0.00326593
0.00329529
0.00333025
0.00337067
0.00341637
0.00346718
0.00352288
0.00358324
0.00364799
0.00371686
0.00378956
0.00386578
0.00394526
0.00402784
0.00411354
0.00420274
0.00429628
0.00439538
0.00450113
0.0046136
0.00502151
0.00522495
0.0048361
0.00472409
0.00461721
0.00451593
0.00442001
0.00432885
0.00424185
0.00415862
0.00407897
0.00400294
0.00393065
0.00386231
0.00379814
0.00373839
0.00368329
0.00363304
0.00358786
0.00354792
0.00351338
0.00348437
0.00346103
0.00344344
0.00343167
0.00342577
0.00342577
0.00343167
0.00344344
0.00346103
0.00348437
0.00351338
0.00354792
0.00358786
0.00363305
0.00368329
0.00373839
0.00379814
0.00386231
0.00393065
0.00400294
0.00407898
0.00415862
0.00424185
0.00432885
0.00442001
0.00451593
0.00461721
0.00472409
0.0048361
0.00522495
0.00542699
0.00505534
0.00494404
0.00483706
0.00473487
0.0046376
0.00454506
0.00445694
0.00437294
0.0042929
0.00421677
0.00414461
0.00407655
0.00401277
0.00395344
0.00389879
0.00384899
0.00380423
0.00376468
0.00373049
0.00370179
0.0036787
0.00366129
0.00364965
0.00364382
0.00364382
0.00364965
0.00366129
0.0036787
0.00370179
0.00373049
0.00376468
0.00380423
0.00384899
0.00389879
0.00395344
0.00401277
0.00407655
0.00414461
0.00421677
0.0042929
0.00437294
0.00445694
0.00454506
0.0046376
0.00473487
0.00483706
0.00494404
0.00505534
0.00542699
0.00562843
0.00527234
0.00516171
0.00505497
0.00495252
0.0048546
0.00476122
0.00467228
0.00458763
0.00450716
0.00443081
0.00435862
0.00429068
0.00422711
0.00416808
0.00411375
0.00406429
0.00401986
0.00398063
0.00394673
0.00391828
0.00389539
0.00387815
0.00386662
0.00386084
0.00386084
0.00386662
0.00387815
0.00389539
0.00391828
0.00394673
0.00398063
0.00401987
0.00406429
0.00411375
0.00416808
0.00422711
0.00429068
0.00435863
0.00443081
0.00450716
0.00458763
0.00467228
0.00476122
0.0048546
0.00495252
0.00505497
0.00516171
0.00527234
0.00562843
0.00582975
0.00548778
0.00537771
0.00527129
0.00516887
0.00507068
0.00497684
0.00488738
0.00480225
0.0047214
0.00464482
0.00457254
0.00450461
0.00444116
0.00438231
0.00432821
0.004279
0.00423483
0.00419585
0.00416218
0.00413394
0.00411122
0.00409411
0.00408267
0.00407694
0.00407694
0.00408267
0.00409411
0.00411122
0.00413394
0.00416218
0.00419585
0.00423483
0.004279
0.00432821
0.00438231
0.00444116
0.00450462
0.00457254
0.00464482
0.0047214
0.00480225
0.00488738
0.00497685
0.00507068
0.00516887
0.00527129
0.00537771
0.00548778
0.00582975
0.00603124
0.00570212
0.0055925
0.0054864
0.0053841
0.00528585
0.00519179
0.00510201
0.00501655
0.00493542
0.00485864
0.00478623
0.00471829
0.00465489
0.00459615
0.0045422
0.00449317
0.0044492
0.00441041
0.00437692
0.00434884
0.00432627
0.00430927
0.0042979
0.00429221
0.00429221
0.0042979
0.00430927
0.00432627
0.00434885
0.00437692
0.00441041
0.0044492
0.00449317
0.0045422
0.00459615
0.00465489
0.00471829
0.00478624
0.00485864
0.00493542
0.00501655
0.00510201
0.00519179
0.00528585
0.0053841
0.0054864
0.0055925
0.00570213
0.00603124
0.00623311
0.00591572
0.00580645
0.00570061
0.00559846
0.00550023
0.00540608
0.00531612
0.00523045
0.00514911
0.00507216
0.00499966
0.00493167
0.00486828
0.0048096
0.00475576
0.00470686
0.00466303
0.00462439
0.00459105
0.0045631
0.00454064
0.00452372
0.00451242
0.00450676
0.00450676
0.00451242
0.00452372
0.00454064
0.0045631
0.00459105
0.00462439
0.00466303
0.00470686
0.00475576
0.00480961
0.00486828
0.00493167
0.00499966
0.00507217
0.00514912
0.00523045
0.00531612
0.00540608
0.00550023
0.00559847
0.00570061
0.00580645
0.00591573
0.00623312
0.00643552
0.00612886
0.00601984
0.0059142
0.00581219
0.005714
0.00561981
0.00552976
0.00544395
0.00536247
0.00528539
0.00521279
0.00514475
0.00508136
0.00502272
0.00496894
0.00492013
0.0048764
0.00483787
0.00480464
0.0047768
0.00475442
0.00473758
0.00472632
0.00472069
0.00472069
0.00472632
0.00473758
0.00475442
0.0047768
0.00480464
0.00483787
0.0048764
0.00492013
0.00496894
0.00502272
0.00508136
0.00514475
0.00521279
0.0052854
0.00536247
0.00544395
0.00552976
0.00561982
0.00571401
0.00581219
0.0059142
0.00601984
0.00612886
0.00643552
0.00663859
0.00634175
0.0062329
0.00612741
0.0060255
0.00592735
0.00583315
0.00574303
0.00565713
0.00557554
0.00549836
0.00542568
0.00535758
0.00529417
0.00523554
0.0051818
0.00513305
0.0050894
0.00505095
0.0050178
0.00499003
0.00496772
0.00495094
0.00493972
0.0049341
0.0049341
0.00493972
0.00495094
0.00496772
0.00499003
0.0050178
0.00505095
0.0050894
0.00513305
0.0051818
0.00523554
0.00529417
0.00535758
0.00542568
0.00549836
0.00557554
0.00565713
0.00574303
0.00583315
0.00592735
0.0060255
0.00612741
0.0062329
0.00634175
0.00663859
0.00684242
0.0065546
0.00644585
0.00634044
0.00623858
0.00614045
0.00604623
0.00595606
0.00587007
0.0057884
0.00571113
0.00563837
0.00557022
0.00550678
0.00544814
0.00539441
0.0053457
0.0053021
0.0052637
0.00523061
0.0052029
0.00518065
0.0051639
0.00515271
0.00514711
0.00514711
0.00515271
0.0051639
0.00518065
0.0052029
0.00523061
0.0052637
0.0053021
0.0053457
0.00539441
0.00544814
0.00550678
0.00557022
0.00563837
0.00571113
0.0057884
0.00587007
0.00595606
0.00604623
0.00614045
0.00623858
0.00634044
0.00644585
0.0065546
0.00684242
0.00704711
0.00676758
0.00665885
0.00655346
0.00645161
0.00635347
0.0062592
0.00616897
0.00608291
0.00600115
0.0059238
0.00585096
0.00578275
0.00571927
0.00566061
0.00560688
0.00555817
0.0055146
0.00547624
0.00544319
0.00541552
0.0053933
0.00537658
0.00536541
0.00535982
0.00535982
0.00536541
0.00537658
0.0053933
0.00541552
0.00544319
0.00547624
0.0055146
0.00555817
0.00560688
0.00566061
0.00571927
0.00578275
0.00585096
0.0059238
0.00600115
0.00608291
0.00616897
0.00625921
0.00635347
0.00645161
0.00655346
0.00665886
0.00676758
0.00704711
0.00725275
0.00698084
0.00687208
0.00676665
0.00666476
0.00656656
0.00647223
0.00638192
0.00629577
0.00621391
0.00613647
0.00606355
0.00599527
0.00593173
0.00587303
0.00581928
0.00577057
0.005727
0.00568866
0.00565562
0.00562798
0.00560578
0.00558908
0.00557793
0.00557234
0.00557234
0.00557793
0.00558908
0.00560578
0.00562798
0.00565563
0.00568866
0.005727
0.00577057
0.00581928
0.00587303
0.00593173
0.00599527
0.00606355
0.00613647
0.00621391
0.00629577
0.00638192
0.00647223
0.00656656
0.00666476
0.00676666
0.00687209
0.00698085
0.00725275
0.00745942
0.00719455
0.00708569
0.00698016
0.00687817
0.00677988
0.00668545
0.00659503
0.00650877
0.0064268
0.00634925
0.00627624
0.00620787
0.00614426
0.00608551
0.00603172
0.00598299
0.0059394
0.00590106
0.00586803
0.00584039
0.00581821
0.00580152
0.00579037
0.00578479
0.00578479
0.00579037
0.00580152
0.00581821
0.0058404
0.00586803
0.00590106
0.00593941
0.00598299
0.00603172
0.00608551
0.00614426
0.00620787
0.00627624
0.00634925
0.0064268
0.00650877
0.00659503
0.00668545
0.00677988
0.00687817
0.00698017
0.00708569
0.00719455
0.00745943
0.00766722
0.00740882
0.0072998
0.00719413
0.00709199
0.00699356
0.00689899
0.00680843
0.00672204
0.00663994
0.00656227
0.00648914
0.00642067
0.00635698
0.00629815
0.00624431
0.00619553
0.00615192
0.00611356
0.00608052
0.00605288
0.00603069
0.006014
0.00600286
0.00599728
0.00599728
0.00600286
0.006014
0.00603069
0.00605288
0.00608052
0.00611356
0.00615192
0.00619553
0.00624431
0.00629816
0.00635698
0.00642068
0.00648914
0.00656227
0.00663994
0.00672204
0.00680844
0.00689899
0.00699356
0.00709199
0.00719413
0.00729981
0.00740883
0.00766722
0.00751456
0.00740868
0.00730636
0.00720774
0.00711299
0.00702227
0.00693571
0.00685345
0.00677564
0.00670237
0.00663379
0.00656998
0.00651107
0.00645715
0.00640831
0.00636466
0.00632626
0.0062932
0.00626553
0.00624333
0.00622664
0.00621549
0.00620991
0.00620991
0.00621549
0.00622664
0.00624334
0.00626554
0.0062932
0.00632626
0.00636466
0.00640832
0.00645715
0.00651107
0.00656998
0.00663379
0.00670238
0.00677564
0.00685346
0.00693571
0.00702227
0.00711299
0.00720774
0.00730636
0.00740869
0.00751457
0.0076238
0.00787622
0.00762396
0.00752139
0.00742254
0.00732758
0.00723665
0.0071499
0.00706746
0.00698947
0.00691605
0.00684732
0.00678339
0.00672437
0.00667035
0.00662144
0.00657772
0.00653927
0.00650617
0.00647848
0.00645626
0.00643955
0.00642839
0.00642281
0.00642281
0.00642839
0.00643955
0.00645626
0.00647848
0.00650617
0.00653927
0.00657772
0.00662144
0.00667036
0.00672437
0.00678339
0.00684732
0.00691605
0.00698947
0.00706746
0.0071499
0.00723665
0.00732758
0.00742255
0.00752139
0.00762396
0.0077301
0.00783961
0.0080865
0.0076381
0.00754288
0.00745171
0.00736473
0.00728207
0.00720389
0.00713029
0.00706139
0.00699731
0.00693816
0.00688403
0.00683502
0.00679122
0.00675271
0.00671955
0.00669182
0.00666957
0.00665284
0.00664167
0.00663608
0.00663608
0.00664167
0.00665284
0.00666957
0.00669182
0.00671955
0.00675271
0.00679122
0.00683503
0.00688403
0.00693816
0.00699731
0.00706139
0.00713029
0.00720389
0.00728208
0.00736473
0.00745171
0.00754288
0.00763811
0.00773722
0.00784008
0.00794652
0.00805636
0.00829815
0.00775901
0.00766756
0.00758031
0.00749742
0.007419
0.00734519
0.00727611
0.00721186
0.00715256
0.0070983
0.00704917
0.00700527
0.00696668
0.00693346
0.00690567
0.00688338
0.00686662
0.00685543
0.00684983
0.00684983
0.00685543
0.00686662
0.00688338
0.00690567
0.00693346
0.00696668
0.00700527
0.00704917
0.0070983
0.00715256
0.00721186
0.00727611
0.00734519
0.007419
0.00749742
0.00758032
0.00766756
0.00775901
0.00785454
0.00795397
0.00805717
0.00816396
0.00827417
0.00851126
0.00788432
0.00779678
0.0077136
0.00763493
0.00756089
0.00749159
0.00742714
0.00736767
0.00731325
0.007264
0.00721998
0.00718129
0.00714799
0.00712014
0.0070978
0.007081
0.00706979
0.00706417
0.00706417
0.00706979
0.007081
0.0070978
0.00712014
0.00714799
0.00718129
0.00721999
0.007264
0.00731326
0.00736767
0.00742715
0.00749159
0.00756089
0.00763493
0.00771361
0.00779678
0.00788432
0.0079761
0.00807195
0.00817175
0.00827533
0.00838253
0.00849317
0.00872591
0.00793075
0.00785179
0.00777748
0.00770794
0.00764328
0.00758361
0.00752902
0.00747961
0.00743546
0.00739666
0.00736326
0.00733534
0.00731294
0.0072961
0.00728485
0.00727923
0.00727923
0.00728485
0.0072961
0.00731294
0.00733534
0.00736327
0.00739666
0.00743547
0.00747961
0.00752902
0.00758361
0.00764328
0.00770794
0.00777748
0.00785179
0.00793075
0.00801424
0.00810211
0.00819424
0.00829048
0.00839068
0.00849468
0.00860234
0.00871345
0.00894219
0.00806969
0.00799509
0.00792528
0.00786037
0.00780048
0.0077457
0.00769612
0.00765182
0.00761289
0.00757939
0.00755138
0.00752891
0.00751202
0.00750074
0.0074951
0.0074951
0.00750074
0.00751202
0.00752891
0.00755138
0.00757939
0.00761289
0.00765183
0.00769612
0.0077457
0.00780048
0.00786037
0.00792528
0.00799509
0.00806969
0.00814897
0.0082328
0.00832104
0.00841356
0.00851022
0.00861087
0.00871535
0.0088235
0.00893514
0.00916019
0.0080184
0.0079634
0.00791363
0.00786917
0.0078301
0.00779648
0.00776837
0.00774582
0.00772887
0.00771755
0.00771189
0.00771189
0.00771755
0.00772887
0.00774582
0.00776837
0.00779648
0.0078301
0.00786917
0.00791364
0.00796341
0.00801841
0.00807854
0.00814371
0.00821381
0.00828874
0.00836837
0.00845257
0.00854122
0.00863418
0.0087313
0.00883244
0.00893743
0.00904613
0.00915835
0.00938
0.00804839
0.00801463
0.00798641
0.00796378
0.00794676
0.00793541
0.00792972
0.00792972
0.00793541
0.00794677
0.00796378
0.00798641
0.00801463
0.00804839
0.00808762
0.00813227
0.00818225
0.00823749
0.00829788
0.00836335
0.00843378
0.00850905
0.00858906
0.00867368
0.00876277
0.0088562
0.00895382
0.00905549
0.00916105
0.00927034
0.00938318
0.0096017
0.00820563
0.0081829
0.00816581
0.00815441
0.0081487
0.0081487
0.00815441
0.00816581
0.0081829
0.00820563
0.00823397
0.00826787
0.00830728
0.00835213
0.00840234
0.00845783
0.00851852
0.0085843
0.00865508
0.00873074
0.00881116
0.00889622
0.00898579
0.00907973
0.0091779
0.00928014
0.00938631
0.00949624
0.00960975
0.00982539
0.00836893
0.00836893
0.00837467
0.00838612
0.00840329
0.00842612
0.0084546
0.00848866
0.00852826
0.00857332
0.00862378
0.00867956
0.00874056
0.00880669
0.00887784
0.00895391
0.00903478
0.00912032
0.0092104
0.00930489
0.00940364
0.0095065
0.00961332
0.00972393
0.00983816
0.0100512
0.008648
0.00867662
0.00871086
0.00875066
0.00879596
0.00884669
0.00890277
0.00896411
0.00903061
0.00910217
0.00917868
0.00926002
0.00934608
0.00943671
0.00953178
0.00963116
0.00973468
0.00984219
0.00995353
0.0100685
0.0102791
0.0089746
0.00902016
0.00907118
0.00912758
0.00918927
0.00925617
0.00932817
0.00940515
0.00948701
0.00957361
0.00966483
0.00976053
0.00986056
0.00996478
0.010073
0.0101852
0.010301
0.0105094
0.00929735
0.00935409
0.00941618
0.0094835
0.00955595
0.00963344
0.00971584
0.00980302
0.00989486
0.00999123
0.010092
0.0101969
0.010306
0.0104189
0.0105356
0.010742
0.00952531
0.00958243
0.00964492
0.00971269
0.00978564
0.00986366
0.00994663
0.0100344
0.0101269
0.010224
0.0103255
0.0104312
0.0105411
0.0106549
0.0107725
0.0109771
0.00975519
0.0098127
0.00987562
0.00994386
0.0100173
0.0100959
0.0101795
0.0102679
0.0103611
0.0104589
0.0105612
0.0106678
0.0107785
0.0108932
0.0110118
0.0112148
0.0101771
0.0102511
0.0103303
0.0104145
0.0105037
0.0105976
0.0106962
0.0107993
0.0109067
0.0110184
0.0111341
0.0112536
0.0114552
0.0108365
0.0109359
0.0110398
0.0111482
0.0112608
0.0113775
0.011498
0.0116983
0.0113922
0.0115058
0.0116236
0.0117452
0.0119444
0.00210803
0.00209661
0.00209088
0.00209088
0.00209661
0.00210802
0.00212502
0.00214745
0.00217514
0.00220787
0.00224538
0.00228742
0.00233369
0.0023839
0.00243774
0.00249489
0.00255503
0.00261785
0.002683
0.00275014
0.00281888
0.0028888
0.00295929
0.00302937
0.00309705
0.00315749
0.00319973
0.00332982
0.00233515
0.00232269
0.00231644
0.00231644
0.00232269
0.00233515
0.00235377
0.00237848
0.00240916
0.0024457
0.00248796
0.00253577
0.00258894
0.00264731
0.00271064
0.00277874
0.00285137
0.00292825
0.00300911
0.00309356
0.00318111
0.00327101
0.00336203
0.00345203
0.00353735
0.00361229
0.00367126
0.00406558
0.00255981
0.00254736
0.00254113
0.00254113
0.00254736
0.00255981
0.0025784
0.00260308
0.00263372
0.00267022
0.00271243
0.00276016
0.00281325
0.00287148
0.00293462
0.00300242
0.0030746
0.00315084
0.00323072
0.00331376
0.00339925
0.00348627
0.0035735
0.00365935
0.00374245
0.00382364
0.00391075
0.00437295
0.00278279
0.00277052
0.00276437
0.00276437
0.00277052
0.00278279
0.00280113
0.00282546
0.00285567
0.00289166
0.00293325
0.00298029
0.00303258
0.00308991
0.00315203
0.00321867
0.00328953
0.00336425
0.00344239
0.00352344
0.00360676
0.00369166
0.00377749
0.00386406
0.00395248
0.00404635
0.00415204
0.00460254
0.0030043
0.00299221
0.00298616
0.00298616
0.00299221
0.0030043
0.00302237
0.00304633
0.0030761
0.00311155
0.00315252
0.00319886
0.00325035
0.0033068
0.00336795
0.00343354
0.00350325
0.00357674
0.00365362
0.00373348
0.00381591
0.00390063
0.00398767
0.00407775
0.00417256
0.00427471
0.00438627
0.00481515
0.00322447
0.00321256
0.00320659
0.00320659
0.00321256
0.00322447
0.00324229
0.00326592
0.00329528
0.00333025
0.00337066
0.00341637
0.00346718
0.00352288
0.00358324
0.00364799
0.00371686
0.00378955
0.00386578
0.00394526
0.00402783
0.00411353
0.00420274
0.00429628
0.00439538
0.00450112
0.0046136
0.00502151
0.00344344
0.00343167
0.00342577
0.00342577
0.00343167
0.00344343
0.00346103
0.00348437
0.00351338
0.00354792
0.00358786
0.00363304
0.00368329
0.00373839
0.00379814
0.00386231
0.00393065
0.00400294
0.00407897
0.00415862
0.00424185
0.00432885
0.00442001
0.00451593
0.00461721
0.00472409
0.0048361
0.00522495
0.00366129
0.00364965
0.00364382
0.00364382
0.00364965
0.00366129
0.00367869
0.00370179
0.00373049
0.00376468
0.00380423
0.00384899
0.00389879
0.00395344
0.00401276
0.00407655
0.00414461
0.00421677
0.0042929
0.00437294
0.00445694
0.00454506
0.0046376
0.00473487
0.00483706
0.00494404
0.00505534
0.00542699
0.00387815
0.00386662
0.00386084
0.00386084
0.00386662
0.00387815
0.00389539
0.00391828
0.00394673
0.00398063
0.00401986
0.00406429
0.00411375
0.00416808
0.00422711
0.00429068
0.00435862
0.00443081
0.00450716
0.00458763
0.00467228
0.00476122
0.0048546
0.00495252
0.00505497
0.00516171
0.00527234
0.00562843
0.00409411
0.00408267
0.00407694
0.00407694
0.00408267
0.00409411
0.00411122
0.00413393
0.00416218
0.00419585
0.00423483
0.004279
0.00432821
0.00438231
0.00444116
0.00450461
0.00457254
0.00464482
0.0047214
0.00480225
0.00488738
0.00497684
0.00507068
0.00516887
0.00527129
0.00537771
0.00548778
0.00582975
0.00430927
0.0042979
0.00429221
0.00429221
0.0042979
0.00430927
0.00432627
0.00434884
0.00437692
0.00441041
0.00444919
0.00449317
0.0045422
0.00459615
0.00465489
0.00471829
0.00478623
0.00485863
0.00493542
0.00501655
0.00510201
0.00519179
0.00528585
0.0053841
0.0054864
0.0055925
0.00570212
0.00603124
0.00452372
0.00451242
0.00450675
0.00450675
0.00451242
0.00452372
0.00454063
0.0045631
0.00459104
0.00462439
0.00466303
0.00470686
0.00475575
0.0048096
0.00486828
0.00493166
0.00499966
0.00507216
0.00514911
0.00523045
0.00531612
0.00540607
0.00550023
0.00559846
0.00570061
0.00580645
0.00591572
0.00623311
0.00473758
0.00472632
0.00472068
0.00472068
0.00472632
0.00473758
0.00475442
0.00477679
0.00480464
0.00483787
0.0048764
0.00492012
0.00496893
0.00502271
0.00508136
0.00514475
0.00521279
0.00528539
0.00536247
0.00544395
0.00552976
0.00561981
0.005714
0.00581219
0.0059142
0.00601983
0.00612885
0.00643552
0.00495093
0.00493971
0.0049341
0.0049341
0.00493971
0.00495093
0.00496772
0.00499003
0.00501779
0.00505094
0.00508939
0.00513304
0.00518179
0.00523554
0.00529417
0.00535758
0.00542567
0.00549836
0.00557554
0.00565712
0.00574303
0.00583315
0.00592735
0.00602549
0.00612741
0.0062329
0.00634175
0.00663859
0.00523061
0.0052637
0.00530209
0.00534569
0.00539441
0.00544814
0.00550677
0.00557022
0.00563837
0.00571113
0.00578839
0.00587007
0.00595605
0.00604622
0.00614045
0.00623857
0.00634043
0.00644585
0.0065546
0.00684242
0.00600115
0.00608291
0.00616897
0.0062592
0.00635347
0.00645161
0.00655346
0.00665885
0.00676758
0.00704711
0.00656656
0.00666476
0.00676665
0.00687208
0.00698084
0.00725275
0.00708569
0.00719455
0.00745942
0.0125755
0.0128389
0.0131058
0.00845783
0.00867956
0.00890277
0.00912758
0.0093541
0.00958243
0.0098127
0.010045
0.0102795
0.0105162
0.0107553
0.010997
0.0112412
0.0114882
0.0117381
0.011991
0.012247
0.0125062
0.0127688
0.013035
0.0077457
0.00796341
0.00818225
0.00840234
0.00862378
0.00884669
0.00907118
0.00929735
0.00952532
0.00975519
0.00998709
0.0102211
0.0104574
0.010696
0.0109372
0.0111809
0.0114274
0.0116767
0.0119289
0.0121843
0.0124429
0.0127048
0.0129703
0.00769612
0.00791364
0.00813227
0.00835213
0.00857332
0.00879597
0.00902016
0.00924602
0.00947366
0.00970319
0.00993472
0.0101684
0.0104042
0.0106424
0.0108831
0.0111264
0.0113723
0.0116211
0.0118729
0.0121277
0.0123857
0.0126471
0.0129119
0.00765183
0.00786918
0.00808763
0.00830728
0.00852826
0.00875066
0.00897461
0.0092002
0.00942755
0.00965677
0.00988797
0.0101213
0.0103568
0.0105946
0.0108349
0.0110777
0.0113233
0.0115716
0.0118229
0.0120772
0.0123347
0.0125955
0.0128598
0.00761289
0.0078301
0.00804839
0.00826788
0.00848866
0.00871086
0.00893458
0.00915994
0.00938704
0.00961599
0.00984691
0.0100799
0.0103151
0.0105526
0.0107925
0.011035
0.0112802
0.0115281
0.011779
0.0120329
0.0122899
0.0125503
0.0128141
0.00329529
0.00351338
0.00373049
0.00394673
0.00416218
0.00437692
0.00459105
0.00480464
0.0050178
0.00523061
0.00544319
0.00565563
0.00586803
0.00608052
0.0062932
0.00650617
0.00671955
0.00693346
0.00714799
0.00736327
0.00757939
0.00779648
0.00801464
0.00823397
0.0084546
0.00867663
0.00890016
0.00912531
0.0093522
0.00958092
0.0098116
0.0100443
0.0102793
0.0105165
0.0107561
0.0109983
0.0112431
0.0114907
0.0117412
0.0119948
0.0122514
0.0125114
0.0127748
0.00326593
0.00348438
0.00370179
0.00391828
0.00413394
0.00434885
0.0045631
0.0047768
0.00499003
0.0052029
0.00541552
0.00562798
0.0058404
0.00605288
0.00626554
0.00647848
0.00669182
0.00690567
0.00712014
0.00733534
0.00755138
0.00776837
0.00798642
0.00820563
0.00842613
0.00864801
0.00887139
0.00909638
0.00932308
0.00955162
0.0097821
0.0100146
0.0102493
0.0104863
0.0107257
0.0109676
0.0112122
0.0114595
0.0117097
0.0119629
0.0122193
0.012479
0.012742
0.00324229
0.00346103
0.0036787
0.0038954
0.00411122
0.00432627
0.00454064
0.00475442
0.00496772
0.00518065
0.0053933
0.00560578
0.00581821
0.00603069
0.00624334
0.00645626
0.00666957
0.00688338
0.0070978
0.00731294
0.00752891
0.00774582
0.00796378
0.0081829
0.00840329
0.00862506
0.00884832
0.00907317
0.00929974
0.00952812
0.00975844
0.00999081
0.0102253
0.0104621
0.0107013
0.010943
0.0111874
0.0114345
0.0116845
0.0119374
0.0121936
0.0124529
0.0127157
0.00210803
0.00233515
0.00255981
0.00278279
0.0030043
0.00322448
0.00344344
0.00366129
0.00387815
0.00409411
0.00430927
0.00452373
0.00473758
0.00495094
0.0051639
0.00537658
0.00558908
0.00580152
0.006014
0.00622664
0.00643955
0.00665284
0.00686662
0.007081
0.0072961
0.00751202
0.00772887
0.00794677
0.00816582
0.00838613
0.00860781
0.00883098
0.00905573
0.0092822
0.00951047
0.00974067
0.00997291
0.0102073
0.010444
0.010683
0.0109246
0.0111688
0.0114157
0.0116655
0.0119183
0.0121742
0.0124334
0.012696
0.00209661
0.00232269
0.00254737
0.00277052
0.00299222
0.00321256
0.00343167
0.00364965
0.00386662
0.00408267
0.0042979
0.00451242
0.00472632
0.00493972
0.00515271
0.00536541
0.00557793
0.00579038
0.00600286
0.0062155
0.0064284
0.00664167
0.00685543
0.00706979
0.00728486
0.00750074
0.00771756
0.00793541
0.00815441
0.00837467
0.0085963
0.0088194
0.0090441
0.00927049
0.00949869
0.00972881
0.00996097
0.0101953
0.0104318
0.0106708
0.0109123
0.0111563
0.0114031
0.0116528
0.0119055
0.0121613
0.0124204
0.0126828
0.00209088
0.00231644
0.00254113
0.00276438
0.00298616
0.00320659
0.00342577
0.00364382
0.00386084
0.00407694
0.00429221
0.00450676
0.00472069
0.0049341
0.00514711
0.00535982
0.00557235
0.0057848
0.00599728
0.00620992
0.00642281
0.00663608
0.00684983
0.00706418
0.00727923
0.0074951
0.00771189
0.00792973
0.00814871
0.00836894
0.00859054
0.00881361
0.00903827
0.00926463
0.00949279
0.00972287
0.00995499
0.0101893
0.0104258
0.0106647
0.0109061
0.0111501
0.0113969
0.0116465
0.0118991
0.0121549
0.0124138
0.0126762
0.00209088
0.00231644
0.00254113
0.00276438
0.00298616
0.00320659
0.00342577
0.00364382
0.00386084
0.00407694
0.00429221
0.00450676
0.00472069
0.0049341
0.00514711
0.00535982
0.00557235
0.0057848
0.00599728
0.00620992
0.00642281
0.00663608
0.00684983
0.00706418
0.00727923
0.0074951
0.0077119
0.00792973
0.00814871
0.00836894
0.00859054
0.00881361
0.00903827
0.00926463
0.00949279
0.00972287
0.00995499
0.0101893
0.0104258
0.0106647
0.0109061
0.0111501
0.0113969
0.0116465
0.0118991
0.0121549
0.0124138
0.0126762
0.00209661
0.00232269
0.00254737
0.00277052
0.00299222
0.00321256
0.00343167
0.00364965
0.00386662
0.00408267
0.0042979
0.00451242
0.00472632
0.00493972
0.00515271
0.00536541
0.00557793
0.00579038
0.00600286
0.0062155
0.0064284
0.00664167
0.00685543
0.00706979
0.00728486
0.00750074
0.00771756
0.00793541
0.00815441
0.00837467
0.0085963
0.0088194
0.0090441
0.00927049
0.00949869
0.00972881
0.00996097
0.0101953
0.0104318
0.0106708
0.0109123
0.0111563
0.0114031
0.0116528
0.0119055
0.0121613
0.0124204
0.0126828
0.00210803
0.00233515
0.00255981
0.00278279
0.0030043
0.00322448
0.00344344
0.00366129
0.00387815
0.00409411
0.00430927
0.00452373
0.00473758
0.00495094
0.0051639
0.00537658
0.00558908
0.00580152
0.006014
0.00622664
0.00643955
0.00665284
0.00686662
0.00708101
0.0072961
0.00751202
0.00772887
0.00794677
0.00816582
0.00838613
0.00860781
0.00883098
0.00905574
0.0092822
0.00951047
0.00974067
0.00997291
0.0102073
0.010444
0.010683
0.0109246
0.0111688
0.0114157
0.0116655
0.0119183
0.0121742
0.0124334
0.012696
0.00212502
0.00235377
0.0025784
0.00280113
0.00302237
0.00324229
0.00346103
0.0036787
0.0038954
0.00411122
0.00432627
0.00454064
0.00475442
0.00496772
0.00518065
0.0053933
0.00560578
0.00581821
0.00603069
0.00624334
0.00645626
0.00666957
0.00688338
0.0070978
0.00731294
0.00752891
0.00774582
0.00796378
0.0081829
0.00840329
0.00862506
0.00884832
0.00907317
0.00929974
0.00952812
0.00975844
0.00999081
0.0102253
0.0104621
0.0107013
0.010943
0.0111874
0.0114345
0.0116845
0.0119374
0.0121936
0.0124529
0.0127157
0.00214745
0.00237848
0.00260308
0.00282546
0.00304633
0.00326593
0.00348438
0.00370179
0.00391828
0.00413394
0.00434885
0.0045631
0.0047768
0.00499003
0.0052029
0.00541552
0.00562798
0.0058404
0.00605288
0.00626554
0.00647848
0.00669182
0.00690568
0.00712014
0.00733534
0.00755138
0.00776837
0.00798642
0.00820563
0.00842613
0.00864801
0.00887139
0.00909638
0.00932308
0.00955162
0.0097821
0.0100146
0.0102493
0.0104863
0.0107257
0.0109676
0.0112122
0.0114595
0.0117097
0.0119629
0.0122193
0.012479
0.012742
0.00217514
0.00240916
0.00263373
0.00285568
0.0030761
0.00329529
0.00351338
0.00373049
0.00394673
0.00416218
0.00437692
0.00459105
0.00480464
0.0050178
0.00523061
0.00544319
0.00565563
0.00586803
0.00608052
0.0062932
0.00650617
0.00671956
0.00693346
0.00714799
0.00736327
0.00757939
0.00779648
0.00801464
0.00823397
0.0084546
0.00867663
0.00890016
0.00912531
0.0093522
0.00958092
0.0098116
0.0100443
0.0102793
0.0105165
0.0107561
0.0109983
0.0112431
0.0114907
0.0117412
0.0119948
0.0122514
0.0125114
0.0127748
0.00220787
0.00244571
0.00267022
0.00289166
0.00311155
0.00333025
0.00354792
0.00376468
0.00398063
0.00419585
0.00441041
0.00462439
0.00483788
0.00505095
0.0052637
0.00547624
0.00568866
0.00590106
0.00611356
0.00632626
0.00653927
0.00675271
0.00696668
0.00718129
0.00739666
0.0076129
0.0078301
0.00804839
0.00826788
0.00848866
0.00871086
0.00893459
0.00915994
0.00938704
0.00961599
0.00984691
0.0100799
0.0103151
0.0105526
0.0107925
0.011035
0.0112802
0.0115281
0.011779
0.0120329
0.0122899
0.0125503
0.0128141
0.00224539
0.00248796
0.00271243
0.00293325
0.00315252
0.00337067
0.00358786
0.00380423
0.00401987
0.00423483
0.0044492
0.00466303
0.0048764
0.0050894
0.0053021
0.0055146
0.005727
0.00593941
0.00615192
0.00636466
0.00657772
0.00679123
0.00700528
0.00721999
0.00743547
0.00765183
0.00786918
0.00808763
0.00830728
0.00852826
0.00875066
0.00897461
0.0092002
0.00942755
0.00965677
0.00988797
0.0101213
0.0103568
0.0105946
0.0108349
0.0110777
0.0113233
0.0115716
0.0118229
0.0120772
0.0123347
0.0125955
0.0128598
0.00228742
0.00253577
0.00276016
0.00298029
0.00319886
0.00341637
0.00363305
0.00384899
0.00406429
0.004279
0.00449317
0.00470686
0.00492013
0.00513305
0.0053457
0.00555817
0.00577057
0.00598299
0.00619553
0.00640832