/*--------------------------------*- C++ -*----------------------------------*\
  =========                 |
  \\      /  F ield         | OpenFOAM: The Open Source CFD Toolbox
   \\    /   O peration     | Website:  https://openfoam.org
    \\  /    A nd           | Version:  7
     \\/     M anipulation  |
\*---------------------------------------------------------------------------*/
FoamFile
{
    version     2.0;
    format      ascii;
    class       volVectorField;
    location    "224000";
    object      U;
}
// * * * * * * * * * * * * * * * * * * * * * * * * * * * * * * * * * * * * * //

dimensions      [0 1 -1 0 0 0 0];

internalField   nonuniform List<vector> 
4838
(
(4.79266e-19 -1.13278e-18 -0.0159652)
(4.27488e-19 -1.26877e-18 -0.0159757)
(4.48347e-19 -1.14978e-18 -0.0159855)
(5.8335e-19 -8.76006e-19 -0.0159948)
(6.74268e-19 -1.01741e-18 -0.0160036)
(3.50317e-19 -1.20125e-18 -0.0160118)
(-6.78357e-20 -1.37843e-18 -0.0160195)
(-1.69089e-20 -1.24275e-18 -0.0160267)
(1.18096e-19 -1.127e-18 -0.0160335)
(-8.83924e-20 -1.12434e-18 -0.0160397)
(-3.42702e-20 -1.00997e-18 -0.0160455)
(3.10112e-19 -1.12941e-18 -0.0160508)
(2.07999e-19 -1.34243e-18 -0.0160557)
(7.9969e-20 -1.52572e-18 -0.0160601)
(7.80042e-19 -1.53187e-18 -0.0160641)
(1.76588e-18 -1.82333e-18 -0.0160678)
(1.71312e-18 -2.29895e-18 -0.016071)
(1.06373e-18 -3.02637e-18 -0.0160738)
(8.0754e-19 -3.45804e-18 -0.0160763)
(4.94454e-19 -3.55975e-18 -0.0160784)
(-2.27827e-19 -3.51883e-18 -0.0160801)
(-5.09349e-19 -3.41409e-18 -0.0160815)
(-4.57492e-19 -3.32141e-18 -0.0160825)
(-7.13779e-19 -3.39835e-18 -0.0160832)
(-1.00747e-18 -3.50999e-18 -0.0160835)
(-1.58169e-18 -3.37015e-18 -0.0160835)
(-2.1383e-18 -3.19104e-18 -0.0160832)
(-2.43002e-18 -2.7412e-18 -0.0160825)
(-2.72274e-18 -2.38292e-18 -0.0160815)
(-2.74601e-18 -2.06908e-18 -0.0160801)
(-2.82696e-18 -1.67663e-18 -0.0160784)
(-3.22327e-18 -1.17443e-18 -0.0160763)
(-3.20003e-18 -7.94971e-19 -0.0160738)
(-2.98317e-18 -4.79415e-19 -0.016071)
(-2.96048e-18 -2.48097e-19 -0.0160678)
(-2.69265e-18 1.75547e-19 -0.0160641)
(-2.08775e-18 1.9528e-19 -0.0160601)
(-1.62024e-18 2.04048e-19 -0.0160557)
(-1.62296e-18 3.45661e-20 -0.0160508)
(-1.76201e-18 -5.76647e-20 -0.0160455)
(-1.70476e-18 2.72969e-20 -0.0160397)
(-1.68428e-18 2.45715e-19 -0.0160335)
(-1.31794e-18 3.64558e-19 -0.0160267)
(-8.08671e-19 -1.63602e-21 -0.0160195)
(-1.07651e-18 -4.97441e-20 -0.0160118)
(-1.31901e-18 1.11575e-19 -0.0160036)
(-9.02188e-19 8.72064e-20 -0.0159948)
(-4.97001e-19 -2.07907e-19 -0.0159855)
(-3.36494e-19 -4.0928e-19 -0.0159757)
(-2.52701e-19 -2.91937e-19 -0.0159652)
(3.98896e-20 -1.32071e-18 -0.0159472)
(2.02644e-19 -1.56076e-18 -0.0159575)
(4.12242e-19 -1.48085e-18 -0.0159675)
(6.01953e-19 -1.40255e-18 -0.0159771)
(7.55304e-19 -1.46327e-18 -0.0159862)
(6.13004e-19 -1.61892e-18 -0.0159948)
(2.31015e-19 -1.60329e-18 -0.0160029)
(4.81279e-20 -1.34275e-18 -0.0160105)
(-5.31184e-20 -1.27167e-18 -0.0160176)
(-1.44788e-19 -1.38955e-18 -0.0160242)
(-2.62325e-20 -1.31567e-18 -0.0160303)
(2.68958e-19 -1.24989e-18 -0.016036)
(2.17024e-19 -1.27457e-18 -0.0160412)
(4.54173e-20 -1.33372e-18 -0.0160459)
(3.14545e-19 -1.33826e-18 -0.0160502)
(8.72278e-19 -1.74189e-18 -0.0160541)
(6.94966e-19 -2.4116e-18 -0.0160576)
(2.2819e-19 -2.99872e-18 -0.0160606)
(4.88533e-19 -3.24287e-18 -0.0160633)
(7.58436e-19 -3.23488e-18 -0.0160655)
(4.43895e-19 -3.12782e-18 -0.0160674)
(-1.58152e-20 -2.85318e-18 -0.0160689)
(-5.4094e-19 -2.78079e-18 -0.01607)
(-1.18416e-18 -3.18921e-18 -0.0160707)
(-1.32733e-18 -3.41374e-18 -0.0160711)
(-1.4577e-18 -3.38249e-18 -0.0160711)
(-1.54751e-18 -2.8849e-18 -0.0160707)
(-1.73938e-18 -2.3967e-18 -0.01607)
(-2.2997e-18 -2.00144e-18 -0.0160689)
(-2.48135e-18 -1.60791e-18 -0.0160674)
(-2.67555e-18 -1.41873e-18 -0.0160655)
(-3.23587e-18 -1.13261e-18 -0.0160633)
(-3.5355e-18 -7.2882e-19 -0.0160606)
(-3.22567e-18 -6.98137e-19 -0.0160576)
(-2.56505e-18 -6.14955e-19 -0.0160541)
(-2.12799e-18 -3.83145e-19 -0.0160502)
(-1.98983e-18 -3.27232e-19 -0.0160459)
(-1.79125e-18 -6.24563e-19 -0.0160412)
(-1.60925e-18 -7.26911e-19 -0.016036)
(-1.44132e-18 -7.85989e-19 -0.0160303)
(-1.39643e-18 -6.7063e-19 -0.0160242)
(-1.46988e-18 -4.86563e-19 -0.0160176)
(-1.26417e-18 -1.06536e-19 -0.0160105)
(-1.07602e-18 -2.17462e-19 -0.0160029)
(-1.21756e-18 -2.72263e-19 -0.0159948)
(-1.13799e-18 -1.36127e-19 -0.0159862)
(-6.88051e-19 -1.7085e-19 -0.0159771)
(-3.41232e-19 -3.35528e-19 -0.0159675)
(-2.84499e-20 -4.20567e-19 -0.0159575)
(-1.60895e-20 -4.10382e-19 -0.0159472)
(-4.78851e-19 -1.16402e-18 -0.0159278)
(-6.82038e-20 -1.08328e-18 -0.0159384)
(2.60826e-19 -1.00566e-18 -0.0159486)
(3.59056e-19 -1.17537e-18 -0.0159585)
(4.84508e-19 -1.23385e-18 -0.0159679)
(6.12648e-19 -1.59998e-18 -0.0159768)
(5.87763e-19 -1.64218e-18 -0.0159853)
(4.7297e-19 -1.60998e-18 -0.0159932)
(1.26631e-19 -1.74162e-18 -0.0160007)
(-2.08837e-19 -1.86771e-18 -0.0160076)
(-1.26374e-19 -1.60417e-18 -0.0160141)
(2.48083e-19 -1.27736e-18 -0.0160201)
(2.22906e-19 -1.36083e-18 -0.0160256)
(-6.66125e-20 -1.41595e-18 -0.0160306)
(-4.95781e-20 -1.4292e-18 -0.0160352)
(3.57748e-19 -1.58452e-18 -0.0160394)
(3.96342e-19 -1.87011e-18 -0.0160431)
(6.84234e-20 -2.00382e-18 -0.0160463)
(3.91065e-19 -2.05421e-18 -0.0160492)
(7.04176e-19 -2.05129e-18 -0.0160516)
(4.29166e-19 -2.22272e-18 -0.0160536)
(5.20361e-20 -2.40289e-18 -0.0160552)
(-8.60901e-19 -2.59346e-18 -0.0160564)
(-1.63088e-18 -2.53503e-18 -0.0160572)
(-1.42352e-18 -2.42117e-18 -0.0160576)
(-1.06009e-18 -2.68515e-18 -0.0160576)
(-1.04494e-18 -2.67586e-18 -0.0160572)
(-1.57487e-18 -2.61751e-18 -0.0160564)
(-2.06772e-18 -2.28213e-18 -0.0160552)
(-2.36611e-18 -1.87132e-18 -0.0160536)
(-2.76699e-18 -1.63491e-18 -0.0160516)
(-3.02604e-18 -1.35786e-18 -0.0160492)
(-3.09834e-18 -7.24112e-19 -0.0160463)
(-2.90336e-18 -3.82769e-19 -0.0160431)
(-2.4559e-18 -2.48241e-19 -0.0160394)
(-2.31848e-18 -2.849e-19 -0.0160352)
(-2.36629e-18 -3.8226e-19 -0.0160306)
(-1.97273e-18 -7.58959e-19 -0.0160256)
(-1.63515e-18 -9.24683e-19 -0.0160201)
(-1.57447e-18 -9.46889e-19 -0.0160141)
(-1.39317e-18 -9.68776e-19 -0.0160076)
(-9.84295e-19 -8.03064e-19 -0.0160007)
(-7.56346e-19 -6.60343e-19 -0.0159932)
(-9.08583e-19 -5.88289e-19 -0.0159853)
(-9.93564e-19 -4.20778e-19 -0.0159768)
(-7.78734e-19 -1.8559e-19 -0.0159679)
(-3.89478e-19 -2.49875e-19 -0.0159585)
(-4.25678e-20 -4.29829e-19 -0.0159486)
(7.38897e-20 -3.26305e-19 -0.0159384)
(-2.61684e-19 -2.84656e-19 -0.0159278)
(-4.09039e-19 -5.96365e-19 -0.0159072)
(-3.40959e-19 -5.1772e-19 -0.0159183)
(-1.04769e-19 -3.72414e-19 -0.0159289)
(1.48665e-19 -4.37258e-19 -0.0159391)
(1.13666e-19 -6.28358e-19 -0.0159488)
(1.04927e-19 -1.06911e-18 -0.015958)
(2.83946e-19 -1.33224e-18 -0.0159668)
(2.24167e-19 -1.70999e-18 -0.0159751)
(7.14754e-20 -2.05298e-18 -0.0159829)
(1.10382e-19 -1.88644e-18 -0.0159902)
(3.45115e-19 -1.40044e-18 -0.0159969)
(3.49387e-19 -1.33194e-18 -0.0160032)
(1.93987e-19 -1.73539e-18 -0.0160091)
(6.70054e-20 -1.89138e-18 -0.0160144)
(-5.40416e-20 -1.59288e-18 -0.0160192)
(2.12915e-19 -1.39658e-18 -0.0160236)
(2.73849e-19 -1.36516e-18 -0.0160276)
(-3.80644e-20 -1.39378e-18 -0.016031)
(2.67771e-19 -1.34107e-18 -0.016034)
(5.85334e-19 -1.52026e-18 -0.0160366)
(1.43907e-19 -1.72133e-18 -0.0160388)
(-3.45795e-19 -2.155e-18 -0.0160405)
(-6.28589e-19 -2.61557e-18 -0.0160417)
(-1.06728e-18 -2.20964e-18 -0.0160426)
(-1.68688e-18 -1.94374e-18 -0.016043)
(-1.91723e-18 -2.2214e-18 -0.016043)
(-1.6261e-18 -2.66031e-18 -0.0160426)
(-1.49638e-18 -2.79841e-18 -0.0160417)
(-1.69204e-18 -2.44285e-18 -0.0160405)
(-2.07179e-18 -2.20416e-18 -0.0160388)
(-2.49922e-18 -2.00994e-18 -0.0160366)
(-2.56185e-18 -1.64451e-18 -0.016034)
(-2.67426e-18 -1.06488e-18 -0.016031)
(-2.75093e-18 -6.27341e-19 -0.0160276)
(-2.45637e-18 -3.40435e-19 -0.0160236)
(-2.41054e-18 -2.69074e-19 -0.0160192)
(-2.50645e-18 -1.36171e-19 -0.0160144)
(-2.11833e-18 -1.14108e-19 -0.0160091)
(-1.60516e-18 -2.33627e-19 -0.0160032)
(-1.30354e-18 -2.23917e-19 -0.0159969)
(-8.3828e-19 -1.6387e-19 -0.0159902)
(-6.75683e-19 -2.6054e-20 -0.0159829)
(-9.18695e-19 -2.41441e-19 -0.0159751)
(-9.18187e-19 -5.13558e-19 -0.0159668)
(-6.66676e-19 -5.94878e-19 -0.015958)
(-4.82127e-19 -5.38219e-19 -0.0159488)
(-2.90736e-19 -6.97227e-19 -0.0159391)
(6.04645e-20 -9.65794e-19 -0.0159289)
(7.76141e-20 -9.27459e-19 -0.0159183)
(-9.59923e-20 -7.18386e-19 -0.0159072)
(-3.17247e-19 -3.55754e-19 -0.0158858)
(-2.05909e-19 -1.76164e-19 -0.0158974)
(-1.30998e-19 -9.00143e-20 -0.0159083)
(-1.29999e-19 -2.61452e-19 -0.0159188)
(-1.60381e-19 -4.52256e-19 -0.0159289)
(-2.74364e-19 -6.56521e-19 -0.0159384)
(-1.94714e-19 -1.00076e-18 -0.0159475)
(-1.88736e-19 -1.18299e-18 -0.0159561)
(-7.52856e-20 -1.20978e-18 -0.0159642)
(2.27822e-19 -1.10066e-18 -0.0159718)
(2.73983e-19 -1.04304e-18 -0.0159789)
(-4.76192e-20 -1.45777e-18 -0.0159855)
(-2.54569e-19 -1.98529e-18 -0.0159916)
(2.06204e-19 -2.22307e-18 -0.0159972)
(4.41023e-19 -1.57776e-18 -0.0160023)
(4.97235e-19 -1.24431e-18 -0.0160069)
(4.58581e-19 -1.31964e-18 -0.0160111)
(6.97949e-20 -1.33235e-18 -0.0160147)
(1.01091e-19 -1.22605e-18 -0.0160179)
(3.34219e-19 -1.65573e-18 -0.0160207)
(-1.38321e-19 -2.03933e-18 -0.0160229)
(-9.40944e-19 -2.49784e-18 -0.0160247)
(-9.26157e-19 -3.06381e-18 -0.0160261)
(-8.76679e-19 -3.01454e-18 -0.016027)
(-1.57521e-18 -2.67777e-18 -0.0160274)
(-2.07862e-18 -2.36203e-18 -0.0160274)
(-1.85108e-18 -2.2464e-18 -0.016027)
(-1.44367e-18 -2.13286e-18 -0.0160261)
(-1.57467e-18 -1.9079e-18 -0.0160247)
(-2.17596e-18 -1.79408e-18 -0.0160229)
(-2.43308e-18 -1.59758e-18 -0.0160207)
(-2.21063e-18 -1.35903e-18 -0.0160179)
(-2.24318e-18 -1.26784e-18 -0.0160147)
(-2.25069e-18 -8.48813e-19 -0.0160111)
(-2.11627e-18 -3.48674e-19 -0.0160069)
(-2.23836e-18 8.07031e-20 -0.0160023)
(-2.15464e-18 5.29873e-19 -0.0159972)
(-1.67965e-18 7.13551e-19 -0.0159916)
(-1.30522e-18 5.23223e-19 -0.0159855)
(-1.00638e-18 3.41447e-19 -0.0159789)
(-7.05273e-19 3.33689e-19 -0.0159718)
(-9.6001e-19 1.49629e-19 -0.0159642)
(-1.24259e-18 2.29642e-20 -0.0159561)
(-9.61726e-19 -5.75695e-20 -0.0159475)
(-6.01315e-19 -1.42196e-19 -0.0159384)
(-5.05997e-19 -2.97802e-19 -0.0159289)
(-2.50012e-19 -3.59311e-19 -0.0159188)
(2.01305e-19 -5.25159e-19 -0.0159083)
(3.12655e-19 -8.70128e-19 -0.0158974)
(2.50256e-19 -9.15342e-19 -0.0158858)
(-3.94839e-19 -2.41054e-19 -0.0158635)
(-3.12716e-19 -8.73914e-20 -0.0158755)
(-2.33477e-19 -3.05242e-19 -0.0158869)
(-1.33254e-19 -4.84431e-19 -0.0158978)
(-1.64543e-19 -6.17017e-19 -0.0159081)
(-4.44367e-19 -8.05102e-19 -0.015918)
(-3.36693e-19 -9.86455e-19 -0.0159274)
(-1.6984e-19 -8.55649e-19 -0.0159363)
(-2.51594e-19 -6.54067e-19 -0.0159447)
(-4.25315e-20 -6.80173e-19 -0.0159526)
(3.81362e-20 -7.78805e-19 -0.01596)
(-4.40251e-19 -1.17154e-18 -0.0159669)
(-7.64113e-19 -1.57461e-18 -0.0159733)
(1.69153e-19 -1.3021e-18 -0.0159791)
(8.47275e-19 -8.28917e-19 -0.0159845)
(4.75745e-19 -8.142e-19 -0.0159893)
(3.16426e-19 -1.361e-18 -0.0159936)
(1.70549e-19 -1.59238e-18 -0.0159975)
(-1.12803e-19 -1.76103e-18 -0.0160008)
(-2.23679e-19 -2.06992e-18 -0.0160037)
(-5.91574e-19 -2.37676e-18 -0.0160061)
(-1.45847e-18 -2.5288e-18 -0.016008)
(-1.3087e-18 -2.64197e-18 -0.0160094)
(-6.96613e-19 -2.71787e-18 -0.0160104)
(-1.06024e-18 -2.57415e-18 -0.0160109)
(-1.59966e-18 -2.18955e-18 -0.0160109)
(-1.4681e-18 -1.77655e-18 -0.0160104)
(-1.18361e-18 -1.61296e-18 -0.0160094)
(-1.50521e-18 -1.6167e-18 -0.016008)
(-1.98942e-18 -1.26726e-18 -0.0160061)
(-2.15831e-18 -7.35525e-19 -0.0160037)
(-2.28966e-18 -4.39021e-19 -0.0160008)
(-2.26858e-18 -4.98777e-19 -0.0159975)
(-1.84462e-18 -3.61696e-19 -0.0159936)
(-1.56361e-18 -2.12759e-19 -0.0159893)
(-1.5662e-18 1.86071e-19 -0.0159845)
(-1.67374e-18 6.7429e-19 -0.0159791)
(-1.77141e-18 9.18393e-19 -0.0159733)
(-1.65801e-18 5.22276e-19 -0.0159669)
(-1.17247e-18 8.40713e-20 -0.01596)
(-9.96161e-19 -3.08548e-19 -0.0159526)
(-1.27798e-18 -4.61149e-19 -0.0159447)
(-1.09723e-18 -4.46291e-19 -0.0159363)
(-6.31149e-19 -4.49227e-19 -0.0159274)
(-4.9899e-19 -3.8575e-19 -0.015918)
(-3.17771e-19 -3.42331e-19 -0.0159081)
(1.86182e-19 -2.29765e-19 -0.0158977)
(3.03301e-19 -1.03757e-19 -0.0158869)
(5.0063e-20 -3.01324e-19 -0.0158755)
(-1.19081e-20 -7.05252e-19 -0.0158635)
(-4.36867e-19 2.51469e-19 -0.0158405)
(-4.74554e-19 2.71203e-19 -0.0158529)
(-5.97336e-19 -7.28877e-20 -0.0158646)
(-4.45276e-19 -3.03623e-19 -0.0158758)
(-2.51762e-19 -5.94184e-19 -0.0158866)
(-5.18226e-19 -8.62299e-19 -0.0158968)
(-4.67288e-19 -8.54414e-19 -0.0159065)
(-1.24543e-20 -8.64027e-19 -0.0159157)
(-4.37427e-20 -9.14163e-19 -0.0159244)
(-8.16524e-20 -8.21084e-19 -0.0159326)
(-7.6667e-20 -7.13454e-19 -0.0159403)
(-6.13164e-19 -8.01233e-19 -0.0159474)
(-7.92427e-19 -7.34211e-19 -0.015954)
(1.88111e-19 -6.19509e-20 -0.0159601)
(7.57175e-19 -1.10104e-19 -0.0159657)
(8.60513e-20 -5.09823e-19 -0.0159708)
(-2.68164e-19 -1.24562e-18 -0.0159753)
(-2.41393e-19 -1.66633e-18 -0.0159793)
(-2.94934e-19 -2.0949e-18 -0.0159828)
(-2.21007e-19 -2.30044e-18 -0.0159859)
(-4.86343e-19 -2.46826e-18 -0.0159884)
(-1.24347e-18 -2.23065e-18 -0.0159903)
(-1.30791e-18 -1.5967e-18 -0.0159918)
(-9.04655e-19 -1.40693e-18 -0.0159928)
(-1.07818e-18 -1.69578e-18 -0.0159933)
(-1.33037e-18 -1.76423e-18 -0.0159933)
(-1.29258e-18 -1.37713e-18 -0.0159928)
(-1.33473e-18 -1.28465e-18 -0.0159918)
(-1.36679e-18 -1.33201e-18 -0.0159903)
(-1.41943e-18 -8.56819e-19 -0.0159884)
(-1.70853e-18 -3.65497e-19 -0.0159859)
(-2.08642e-18 -9.85256e-20 -0.0159828)
(-2.14154e-18 -2.72272e-20 -0.0159793)
(-1.82618e-18 -7.98274e-21 -0.0159753)
(-1.5339e-18 -1.85552e-19 -0.0159708)
(-1.44718e-18 -6.69705e-20 -0.0159657)
(-1.62694e-18 -1.69839e-19 -0.0159601)
(-1.95272e-18 1.25562e-19 -0.015954)
(-1.97211e-18 4.80706e-20 -0.0159474)
(-1.55772e-18 1.56967e-20 -0.0159403)
(-1.36108e-18 -5.46509e-19 -0.0159326)
(-1.21922e-18 -7.50615e-19 -0.0159244)
(-9.34414e-19 -7.14419e-19 -0.0159157)
(-6.14107e-19 -8.94627e-19 -0.0159065)
(-3.60133e-19 -1.0828e-18 -0.0158968)
(8.55568e-20 -8.76525e-19 -0.0158866)
(4.40289e-19 -5.83129e-19 -0.0158758)
(1.91472e-19 -3.15989e-19 -0.0158646)
(-2.16901e-19 -2.79622e-19 -0.0158529)
(-1.54209e-19 -6.40205e-19 -0.0158405)
(-5.32858e-19 6.88866e-19 -0.0158168)
(-6.72286e-19 6.05047e-19 -0.0158295)
(-8.52028e-19 1.62459e-19 -0.0158416)
(-9.00343e-19 -7.36202e-20 -0.0158532)
(-6.81678e-19 -3.69361e-19 -0.0158642)
(-6.68208e-19 -3.71959e-19 -0.0158748)
(-7.65908e-19 -3.21702e-19 -0.0158848)
(-5.38791e-19 -4.8667e-19 -0.0158943)
(-1.95108e-19 -7.4167e-19 -0.0159033)
(1.45068e-19 -7.11595e-19 -0.0159118)
(2.70152e-19 -8.15032e-19 -0.0159197)
(-2.68406e-19 -7.3183e-19 -0.0159271)
(-5.41489e-19 -1.80844e-19 -0.015934)
(1.06345e-19 1.62126e-19 -0.0159403)
(4.4775e-19 -4.28258e-19 -0.0159461)
(-3.35038e-19 -8.60159e-19 -0.0159514)
(-7.93705e-19 -1.07356e-18 -0.0159561)
(-7.26098e-19 -1.25132e-18 -0.0159603)
(-8.00074e-19 -1.47286e-18 -0.0159639)
(-6.0531e-19 -1.72619e-18 -0.0159671)
(-4.26409e-19 -1.98995e-18 -0.0159697)
(-5.57676e-19 -1.73091e-18 -0.0159718)
(-5.85319e-19 -1.24566e-18 -0.0159733)
(-9.04565e-19 -9.61339e-19 -0.0159744)
(-1.51134e-18 -1.15921e-18 -0.0159749)
(-1.35813e-18 -1.3825e-18 -0.0159749)
(-1.0382e-18 -1.10923e-18 -0.0159744)
(-1.19094e-18 -9.16615e-19 -0.0159733)
(-1.11379e-18 -7.9589e-19 -0.0159718)
(-1.09365e-18 -4.65259e-19 -0.0159697)
(-1.58178e-18 -2.66975e-19 -0.0159671)
(-2.15983e-18 -3.66883e-19 -0.0159639)
(-2.23516e-18 -3.11453e-19 -0.0159603)
(-1.92767e-18 -1.63849e-19 -0.0159561)
(-1.57967e-18 -2.39763e-19 -0.0159514)
(-1.68002e-18 -3.00863e-19 -0.0159461)
(-1.84361e-18 -5.24502e-19 -0.0159403)
(-1.89975e-18 -4.01272e-19 -0.015934)
(-1.7389e-18 -1.73167e-19 -0.0159271)
(-1.48872e-18 4.73493e-20 -0.0159197)
(-1.51949e-18 -1.86312e-19 -0.0159118)
(-1.15541e-18 -2.24359e-19 -0.0159033)
(-8.17421e-19 -1.81648e-19 -0.0158943)
(-5.6801e-19 -4.90935e-19 -0.0158848)
(-8.15622e-20 -9.7992e-19 -0.0158748)
(5.42466e-19 -1.22493e-18 -0.0158642)
(6.51752e-19 -1.16585e-18 -0.0158532)
(7.24399e-20 -7.06738e-19 -0.0158416)
(-4.58712e-19 -4.50269e-19 -0.0158295)
(-2.16479e-19 -4.9719e-19 -0.0158168)
(-3.49086e-19 4.92749e-19 -0.0157923)
(-7.92823e-19 2.44658e-19 -0.0158053)
(-1.01821e-18 -3.242e-19 -0.0158178)
(-1.04204e-18 -3.31614e-19 -0.0158297)
(-7.75467e-19 -1.90641e-19 -0.0158411)
(-6.0909e-19 -2.61348e-19 -0.015852)
(-7.30169e-19 -6.1949e-19 -0.0158623)
(-7.64073e-19 -4.79054e-19 -0.0158721)
(-6.43571e-19 -5.47775e-19 -0.0158814)
(-3.44174e-19 -8.8375e-19 -0.0158901)
(1.49777e-19 -1.18818e-18 -0.0158983)
(2.84782e-19 -9.02249e-19 -0.015906)
(-1.61674e-19 -3.37623e-19 -0.0159131)
(-3.27927e-19 -3.29595e-19 -0.0159197)
(2.72288e-20 -7.86726e-19 -0.0159257)
(-1.62908e-19 -8.56033e-19 -0.0159311)
(-6.52139e-19 -5.59691e-19 -0.015936)
(-7.50075e-19 -7.1599e-19 -0.0159404)
(-9.21665e-19 -6.30395e-19 -0.0159442)
(-9.15732e-19 -5.1555e-19 -0.0159474)
(-5.8882e-19 -7.1464e-19 -0.0159502)
(-5.62581e-19 -6.57152e-19 -0.0159523)
(-5.64125e-19 -7.56886e-19 -0.015954)
(-8.31588e-19 -7.40713e-19 -0.015955)
(-1.57027e-18 -6.92162e-19 -0.0159556)
(-1.34179e-18 -8.17484e-19 -0.0159556)
(-8.58989e-19 -7.01633e-19 -0.015955)
(-1.0516e-18 -5.3197e-19 -0.015954)
(-9.21746e-19 -4.35038e-19 -0.0159523)
(-9.98247e-19 -5.67182e-19 -0.0159502)
(-1.88779e-18 -6.00551e-19 -0.0159474)
(-2.40659e-18 -5.43675e-19 -0.0159442)
(-2.02899e-18 -2.71777e-19 -0.0159404)
(-1.6867e-18 -7.37655e-20 -0.015936)
(-1.65382e-18 -8.87726e-20 -0.0159311)
(-1.87524e-18 -2.85211e-19 -0.0159257)
(-1.87534e-18 -3.80145e-19 -0.0159197)
(-1.70261e-18 -3.55502e-19 -0.0159131)
(-1.46246e-18 -7.64913e-20 -0.015906)
(-1.50846e-18 -5.26297e-21 -0.0158983)
(-1.38617e-18 -3.06655e-20 -0.0158901)
(-7.47182e-19 2.47038e-20 -0.0158814)
(-6.93333e-19 1.07239e-19 -0.0158721)
(-6.73953e-19 -2.57067e-20 -0.0158623)
(-1.14661e-19 -3.94465e-19 -0.015852)
(4.59427e-19 -1.03659e-18 -0.0158411)
(4.7659e-19 -1.53387e-18 -0.0158297)
(-1.53115e-19 -1.39356e-18 -0.0158178)
(-4.51706e-19 -1.05282e-18 -0.0158053)
(-8.46252e-20 -7.45072e-19 -0.0157923)
(-1.20509e-19 6.27628e-20 -0.0157672)
(-7.03423e-19 -4.99893e-19 -0.0157805)
(-1.05582e-18 -6.74797e-19 -0.0157933)
(-9.76388e-19 -4.05824e-19 -0.0158056)
(-9.71133e-19 -2.66173e-19 -0.0158173)
(-9.97129e-19 -8.31198e-19 -0.0158285)
(-7.51041e-19 -1.19757e-18 -0.0158391)
(-5.03399e-19 -8.80918e-19 -0.0158492)
(-7.60473e-19 -8.15869e-19 -0.0158587)
(-7.56854e-19 -8.33832e-19 -0.0158678)
(-3.72579e-20 -6.38173e-19 -0.0158762)
(5.35025e-19 -3.25957e-19 -0.0158841)
(1.85094e-19 -2.95571e-19 -0.0158914)
(-3.00436e-19 -3.64409e-19 -0.0158982)
(-5.7682e-20 -5.15203e-19 -0.0159044)
(2.07973e-21 -3.5494e-19 -0.01591)
(-6.43329e-19 -6.15719e-20 -0.0159151)
(-8.26376e-19 -5.86444e-19 -0.0159196)
(-6.81126e-19 -5.88934e-19 -0.0159236)
(-8.41673e-19 -3.87045e-19 -0.015927)
(-6.93767e-19 -3.75603e-19 -0.0159298)
(-6.66376e-19 -1.00824e-19 -0.015932)
(-6.88408e-19 -2.16489e-20 -0.0159337)
(-8.51029e-19 -1.14123e-19 -0.0159348)
(-1.64948e-18 -1.98921e-20 -0.0159354)
(-1.40198e-18 -9.78799e-20 -0.0159354)
(-7.63037e-19 -2.23649e-19 -0.0159348)
(-9.42894e-19 -1.9494e-19 -0.0159337)
(-1.14489e-18 -1.78701e-19 -0.015932)
(-1.42473e-18 -6.94242e-19 -0.0159298)
(-1.89427e-18 -8.28132e-19 -0.015927)
(-1.98809e-18 -2.75116e-19 -0.0159236)
(-1.71797e-18 8.62662e-20 -0.0159196)
(-1.71834e-18 9.13182e-20 -0.0159151)
(-1.86286e-18 -3.52524e-20 -0.01591)
(-2.04458e-18 -8.63183e-20 -0.0159044)
(-1.84953e-18 -6.13939e-20 -0.0158982)
(-1.48044e-18 -2.35839e-20 -0.0158914)
(-1.34601e-18 1.9209e-19 -0.0158841)
(-1.48152e-18 -1.53943e-19 -0.0158762)
(-1.17107e-18 -1.42488e-19 -0.0158678)
(-6.99462e-19 -1.46603e-19 -0.0158587)
(-8.20458e-19 -2.85575e-19 -0.0158492)
(-6.57603e-19 -5.61301e-19 -0.0158391)
(-1.6341e-19 -7.83259e-19 -0.0158285)
(1.09693e-19 -1.18586e-18 -0.0158173)
(6.20808e-20 -1.4329e-18 -0.0158056)
(-2.66619e-19 -1.43986e-18 -0.0157933)
(-1.39475e-19 -1.23018e-18 -0.0157805)
(1.83e-19 -1.15501e-18 -0.0157672)
(-2.89087e-19 1.54349e-20 -0.0157414)
(-5.78779e-19 -6.39391e-19 -0.0157551)
(-8.67004e-19 -5.24218e-19 -0.0157682)
(-9.05158e-19 -3.79787e-19 -0.0157807)
(-1.17072e-18 -2.40501e-19 -0.0157928)
(-1.47379e-18 -4.92041e-19 -0.0158042)
(-1.12972e-18 -4.79171e-19 -0.0158152)
(-5.0011e-19 -6.26136e-19 -0.0158255)
(-5.51686e-19 -5.77607e-19 -0.0158354)
(-6.68996e-19 -2.00163e-19 -0.0158446)
(-1.74553e-19 2.6412e-19 -0.0158533)
(3.17761e-19 4.28718e-19 -0.0158614)
(3.41952e-20 1.53998e-19 -0.015869)
(-4.64428e-19 -1.34918e-19 -0.015876)
(-9.27139e-20 -3.11284e-19 -0.0158824)
(3.47112e-19 -3.64132e-19 -0.0158882)
(-7.15669e-19 -2.40786e-19 -0.0158934)
(-1.22809e-18 -8.5841e-19 -0.0158981)
(-7.5044e-19 -7.93681e-19 -0.0159022)
(-7.24704e-19 -7.12867e-19 -0.0159057)
(-3.65045e-19 -5.48004e-19 -0.0159086)
(-2.52852e-19 -2.72129e-19 -0.0159109)
(-5.93455e-19 2.77818e-20 -0.0159127)
(-8.45739e-19 -2.25393e-19 -0.0159138)
(-1.61401e-18 -3.36888e-19 -0.0159144)
(-1.5497e-18 -4.2309e-20 -0.0159144)
(-9.28331e-19 -7.19878e-20 -0.0159138)
(-1.04245e-18 -1.99235e-19 -0.0159127)
(-1.46405e-18 -4.96605e-19 -0.0159109)
(-1.75646e-18 -9.94566e-19 -0.0159086)
(-1.69478e-18 -1.0827e-18 -0.0159057)
(-1.65232e-18 -7.01641e-19 -0.0159022)
(-1.75399e-18 -5.64887e-19 -0.0158981)
(-1.93041e-18 -4.21572e-19 -0.0158934)
(-1.99595e-18 -3.76186e-19 -0.0158882)
(-1.9788e-18 -3.62123e-19 -0.0158824)
(-1.63041e-18 1.84171e-19 -0.015876)
(-1.2828e-18 1.75996e-19 -0.015869)
(-1.56327e-18 2.04907e-19 -0.0158614)
(-1.77377e-18 -1.7576e-19 -0.0158533)
(-1.10204e-18 -2.9636e-19 -0.0158446)
(-7.68479e-19 -4.02154e-19 -0.0158354)
(-1.05426e-18 -2.90816e-19 -0.0158255)
(-8.038e-19 -5.15255e-19 -0.0158152)
(-2.65205e-19 -1.0095e-18 -0.0158042)
(7.42647e-20 -1.50992e-18 -0.0157928)
(1.54942e-19 -1.54348e-18 -0.0157807)
(-2.92228e-20 -1.23237e-18 -0.0157682)
(6.80904e-20 -1.05426e-18 -0.0157551)
(3.4273e-19 -1.22135e-18 -0.0157414)
(-5.86333e-19 3.07749e-20 -0.015715)
(-8.28942e-19 -2.51168e-19 -0.015729)
(-9.00187e-19 -2.49298e-19 -0.0157424)
(-7.02131e-19 -4.26656e-19 -0.0157552)
(-8.25969e-19 -3.73151e-19 -0.0157675)
(-1.33356e-18 -6.42403e-19 -0.0157793)
(-1.54346e-18 -5.3694e-19 -0.0157905)
(-9.09041e-19 -7.66512e-19 -0.0158012)
(-4.4745e-19 -5.29876e-19 -0.0158112)
(-3.87378e-19 -1.91984e-19 -0.0158208)
(-5.97982e-20 3.04988e-19 -0.0158297)
(2.84653e-19 4.28205e-19 -0.015838)
(-7.25027e-20 1.30884e-19 -0.0158458)
(-6.5318e-19 -3.42002e-19 -0.015853)
(-4.75852e-19 -3.35673e-19 -0.0158596)
(2.60268e-19 -5.54225e-19 -0.0158656)
(-6.42694e-19 -9.33477e-19 -0.015871)
(-1.30244e-18 -8.95789e-19 -0.0158758)
(-6.88536e-19 -3.63058e-19 -0.01588)
(-6.92268e-19 -3.73251e-19 -0.0158836)
(-3.56221e-19 -2.3809e-19 -0.0158866)
(-8.88812e-20 -4.4571e-19 -0.015889)
(-5.88836e-19 -2.13932e-19 -0.0158908)
(-1.16555e-18 -5.89995e-19 -0.015892)
(-1.5308e-18 -9.73027e-19 -0.0158926)
(-1.19796e-18 -5.80558e-19 -0.0158926)
(-8.95169e-19 -2.4829e-19 -0.015892)
(-1.37808e-18 -4.50214e-19 -0.0158908)
(-1.97906e-18 -7.78098e-19 -0.015889)
(-2.04371e-18 -1.06694e-18 -0.0158866)
(-1.72867e-18 -1.49356e-18 -0.0158836)
(-1.73071e-18 -1.76379e-18 -0.01588)
(-1.7563e-18 -1.67016e-18 -0.0158758)
(-1.82515e-18 -1.34583e-18 -0.015871)
(-2.00688e-18 -9.76137e-19 -0.0158656)
(-1.68501e-18 -1.15609e-18 -0.0158596)
(-1.30899e-18 -5.05671e-19 -0.015853)
(-1.53855e-18 -3.64256e-19 -0.0158458)
(-1.98285e-18 -5.9886e-19 -0.015838)
(-1.83238e-18 -5.94942e-19 -0.0158297)
(-1.07004e-18 -7.43534e-19 -0.0158208)
(-8.27764e-19 -9.53812e-19 -0.0158112)
(-8.91799e-19 -1.99235e-19 -0.0158012)
(-6.94709e-19 -8.96253e-20 -0.0157905)
(-3.74024e-19 -6.78706e-19 -0.0157793)
(2.25971e-20 -1.24171e-18 -0.0157675)
(2.88462e-19 -1.44908e-18 -0.0157552)
(1.92768e-19 -1.09309e-18 -0.0157424)
(2.42408e-19 -9.55562e-19 -0.015729)
(4.17022e-19 -1.00206e-18 -0.015715)
(-7.38065e-19 2.08037e-19 -0.015688)
(-8.4653e-19 1.42053e-19 -0.0157023)
(-1.25306e-18 -5.9741e-20 -0.0157159)
(-1.12294e-18 -2.72778e-19 -0.0157291)
(-9.46674e-19 -7.13756e-19 -0.0157417)
(-1.11669e-18 -1.349e-18 -0.0157537)
(-1.34498e-18 -1.15363e-18 -0.0157652)
(-9.90623e-19 -8.24724e-19 -0.0157761)
(-3.96777e-19 -4.66444e-19 -0.0157864)
(-1.73988e-19 -3.24926e-19 -0.0157962)
(1.39529e-19 -5.86191e-20 -0.0158054)
(3.24928e-19 -1.5574e-19 -0.0158139)
(-1.50513e-19 -5.92357e-19 -0.0158219)
(-6.3402e-19 -8.41515e-19 -0.0158293)
(-4.78039e-19 -4.78806e-19 -0.0158361)
(-8.96927e-20 -3.90275e-19 -0.0158422)
(-6.02793e-19 -9.79842e-19 -0.0158478)
(-8.11253e-19 -5.18612e-19 -0.0158527)
(-4.97079e-19 -5.66128e-20 -0.015857)
(-7.09287e-19 -8.26007e-20 -0.0158608)
(-5.15223e-19 1.43783e-19 -0.0158638)
(-1.81169e-19 -1.13209e-19 -0.0158663)
(-6.29821e-19 -2.75188e-19 -0.0158682)
(-1.49552e-18 -4.28399e-19 -0.0158694)
(-1.64951e-18 -5.25484e-19 -0.01587)
(-9.4204e-19 -5.43774e-19 -0.01587)
(-8.33003e-19 -3.6071e-19 -0.0158694)
(-1.59938e-18 -5.53041e-19 -0.0158682)
(-2.1133e-18 -6.65983e-19 -0.0158663)
(-2.37303e-18 -5.45135e-19 -0.0158638)
(-2.29111e-18 -1.08551e-18 -0.0158608)
(-1.93105e-18 -1.68708e-18 -0.015857)
(-1.58748e-18 -1.80269e-18 -0.0158527)
(-1.60388e-18 -1.75403e-18 -0.0158478)
(-1.97283e-18 -1.36082e-18 -0.0158422)
(-1.59408e-18 -1.41141e-18 -0.0158361)
(-1.17132e-18 -1.10835e-18 -0.0158293)
(-1.78188e-18 -8.99988e-19 -0.0158219)
(-2.11501e-18 -1.06542e-18 -0.0158139)
(-1.72695e-18 -8.86828e-19 -0.0158054)
(-1.10389e-18 -8.78357e-19 -0.0157962)
(-4.88486e-19 -1.42127e-18 -0.0157864)
(-4.10957e-19 -5.70346e-19 -0.0157761)
(-8.34119e-19 -2.28227e-19 -0.0157652)
(-6.03689e-19 -6.53987e-19 -0.0157537)
(1.28373e-19 -8.62985e-19 -0.0157417)
(5.71543e-19 -1.06138e-18 -0.0157291)
(4.90314e-19 -7.84672e-19 -0.0157159)
(4.47033e-19 -7.24125e-19 -0.0157023)
(3.25405e-19 -8.73359e-19 -0.015688)
(-8.73198e-19 3.19908e-19 -0.0156604)
(-8.19685e-19 1.52962e-20 -0.015675)
(-1.1024e-18 -1.61369e-19 -0.0156889)
(-1.4186e-18 -2.40896e-19 -0.0157023)
(-1.46354e-18 -9.77367e-19 -0.0157152)
(-1.37121e-18 -1.29308e-18 -0.0157275)
(-1.18246e-18 -1.09071e-18 -0.0157393)
(-9.949e-19 -2.8511e-19 -0.0157504)
(-5.73365e-19 5.41818e-20 -0.015761)
(-3.4981e-19 6.29563e-20 -0.015771)
(-1.82662e-20 -6.34076e-20 -0.0157804)
(1.72474e-19 -5.21922e-19 -0.0157891)
(-8.21276e-20 -1.2097e-18 -0.0157973)
(-4.22407e-19 -8.10614e-19 -0.0158049)
(-2.76899e-19 -2.21598e-19 -0.0158118)
(-1.62433e-19 -9.16221e-20 -0.0158182)
(-6.37906e-19 -6.55655e-19 -0.0158239)
(-6.40458e-19 -4.01681e-19 -0.0158289)
(-3.73042e-19 -1.35343e-19 -0.0158334)
(-5.37572e-19 -1.69578e-19 -0.0158372)
(-4.37045e-19 1.06793e-20 -0.0158404)
(-4.00012e-19 -1.46862e-19 -0.0158429)
(-7.55536e-19 -5.02951e-19 -0.0158448)
(-1.38126e-18 -5.22625e-19 -0.0158461)
(-1.68029e-18 -1.55708e-19 -0.0158467)
(-1.05754e-18 -1.50512e-19 -0.0158467)
(-9.29423e-19 -4.72368e-19 -0.0158461)
(-1.7457e-18 -7.28683e-19 -0.0158448)
(-2.11585e-18 -9.30276e-19 -0.0158429)
(-2.46463e-18 -6.46751e-19 -0.0158404)
(-2.62063e-18 -8.0947e-19 -0.0158372)
(-2.18995e-18 -1.10742e-18 -0.0158334)
(-1.74703e-18 -1.35614e-18 -0.0158289)
(-1.63585e-18 -1.76942e-18 -0.0158239)
(-1.84718e-18 -1.55884e-18 -0.0158182)
(-1.36983e-18 -1.57e-18 -0.0158118)
(-1.11559e-18 -1.36841e-18 -0.0158049)
(-1.96834e-18 -1.17438e-18 -0.0157973)
(-2.08527e-18 -1.05939e-18 -0.0157891)
(-1.42002e-18 -8.72649e-19 -0.0157804)
(-9.53336e-19 -5.80506e-19 -0.015771)
(-3.41485e-19 -1.19319e-18 -0.015761)
(-3.54836e-19 -1.04694e-18 -0.0157504)
(-9.00778e-19 -3.93849e-19 -0.0157393)
(-2.84165e-19 -5.1185e-19 -0.0157275)
(5.71933e-19 -6.27373e-19 -0.0157152)
(8.5791e-19 -6.58897e-19 -0.0157023)
(6.32912e-19 -4.86582e-19 -0.0156889)
(3.07862e-19 -6.24966e-19 -0.015675)
(1.02141e-19 -9.70467e-19 -0.0156604)
(-7.59709e-19 1.15005e-19 -0.0156322)
(-9.33255e-19 -1.6224e-19 -0.0156471)
(-1.08896e-18 -2.45502e-19 -0.0156613)
(-1.4644e-18 -5.02658e-19 -0.015675)
(-1.61995e-18 -1.1509e-18 -0.0156881)
(-1.51898e-18 -1.00735e-18 -0.0157007)
(-1.04892e-18 -6.32463e-19 -0.0157127)
(-7.35277e-19 1.09281e-19 -0.0157241)
(-5.98668e-19 2.71575e-19 -0.0157349)
(-6.44587e-19 4.95142e-19 -0.0157451)
(-5.37776e-19 3.6864e-19 -0.0157547)
(-4.44802e-19 -3.60505e-19 -0.0157637)
(-1.22845e-19 -1.02916e-18 -0.0157721)
(7.81985e-20 -3.99091e-19 -0.0157798)
(-9.61532e-20 2.99654e-19 -0.0157869)
(-3.99968e-19 1.52854e-19 -0.0157934)
(-8.28927e-19 -3.17484e-19 -0.0157992)
(-5.04747e-19 -8.68162e-20 -0.0158044)
(-3.35344e-19 7.44651e-20 -0.015809)
(-5.59465e-19 -2.4244e-19 -0.0158129)
(-4.70227e-19 -1.76289e-19 -0.0158162)
(-5.21871e-19 -3.24329e-19 -0.0158188)
(-8.63875e-19 -4.40131e-19 -0.0158207)
(-1.21919e-18 -7.56856e-19 -0.015822)
(-1.39583e-18 -4.81879e-19 -0.0158227)
(-1.18798e-18 -4.62158e-20 -0.0158227)
(-1.31855e-18 -4.30773e-19 -0.015822)
(-2.07669e-18 -9.63342e-19 -0.0158207)
(-2.19158e-18 -1.06045e-18 -0.0158188)
(-2.44958e-18 -1.05197e-18 -0.0158162)
(-2.71478e-18 -1.18491e-18 -0.0158129)
(-2.25507e-18 -1.27694e-18 -0.015809)
(-2.00713e-18 -1.46393e-18 -0.0158044)
(-1.84258e-18 -1.98353e-18 -0.0157992)
(-1.8505e-18 -1.79074e-18 -0.0157934)
(-1.3426e-18 -1.79856e-18 -0.0157869)
(-1.20493e-18 -2.06101e-18 -0.0157798)
(-2.04473e-18 -1.81576e-18 -0.0157721)
(-1.80743e-18 -1.27364e-18 -0.0157637)
(-9.92134e-19 -7.81825e-19 -0.0157547)
(-8.412e-19 -4.67044e-19 -0.0157451)
(-4.32287e-19 -9.20715e-19 -0.0157349)
(-2.5019e-19 -1.35544e-18 -0.0157241)
(-5.30135e-19 -6.27033e-19 -0.0157127)
(6.2511e-20 -2.39788e-19 -0.0157007)
(7.30309e-19 -6.20019e-19 -0.0156881)
(8.78564e-19 -7.90239e-19 -0.015675)
(3.27024e-19 -7.64668e-19 -0.0156613)
(-1.14736e-19 -9.40356e-19 -0.0156471)
(1.78299e-19 -1.12919e-18 -0.0156322)
(-7.6637e-19 -4.91673e-21 -0.0156036)
(-8.33818e-19 -1.58297e-19 -0.0156186)
(-1.04859e-18 -2.89915e-19 -0.0156331)
(-1.69177e-18 -5.65481e-19 -0.0156471)
(-1.90342e-18 -8.12635e-19 -0.0156605)
(-1.683e-18 -2.67704e-19 -0.0156733)
(-1.22734e-18 2.85771e-19 -0.0156855)
(-7.03803e-19 1.18405e-19 -0.0156971)
(-4.39461e-19 3.76658e-19 -0.0157082)
(-4.71511e-19 7.50834e-19 -0.0157186)
(-8.32164e-19 5.9263e-19 -0.0157284)
(-1.05985e-18 6.52658e-21 -0.0157376)
(-4.60484e-19 -1.62394e-19 -0.0157461)