/*--------------------------------*- C++ -*----------------------------------*\
  =========                 |
  \\      /  F ield         | OpenFOAM: The Open Source CFD Toolbox
   \\    /   O peration     | Website:  https://openfoam.org
    \\  /    A nd           | Version:  7
     \\/     M anipulation  |
\*---------------------------------------------------------------------------*/
FoamFile
{
    version     2.0;
    format      ascii;
    class       surfaceScalarField;
    location    "36000";
    object      phi;
}
// * * * * * * * * * * * * * * * * * * * * * * * * * * * * * * * * * * * * * //

dimensions      [0 3 -1 0 0 0 0];

internalField   nonuniform List<scalar> 
3434
(
1.33775e-23
1.87234e-22
1.32844e-23
4.92108e-25
2.61112e-22
2.65318e-23
5.17998e-23
1.80134e-23
4.70251e-22
-1.08603e-24
3.38916e-22
-2.09845e-23
1.18546e-22
6.80436e-25
2.66343e-22
-2.54577e-23
-8.60358e-24
-4.22868e-23
3.49509e-23
-5.11696e-24
1.62286e-22
4.77425e-25
4.01613e-22
-6.52289e-23
1.21267e-23
9.04455e-23
5.07729e-24
-2.42359e-25
1.78087e-22
2.76389e-23
3.6299e-22
2.25012e-23
4.47738e-22
-5.7504e-24
1.71282e-22
-1.71597e-23
2.71924e-22
-6.23717e-24
2.68258e-22
-1.78627e-23
3.30691e-22
-4.34201e-23
-1.32064e-22
3.58195e-24
3.08104e-22
-5.74282e-24
-1.10626e-23
-2.28292e-23
1.60003e-23
1.45862e-22
3.18748e-24
5.48545e-24
2.54348e-22
2.71778e-23
4.14092e-22
2.19217e-23
5.45411e-22
-1.18452e-23
3.57048e-22
-1.63289e-23
3.14408e-22
-4.58228e-24
2.76138e-22
-2.38484e-23
3.03172e-22
-3.95764e-23
-1.29257e-22
7.40119e-25
2.68775e-22
-8.18303e-25
2.43457e-23
-3.40476e-22
1.72804e-23
4.69223e-23
-1.66828e-24
8.82772e-24
2.32688e-22
2.92919e-23
3.00556e-22
2.08875e-23
4.89596e-22
-1.08317e-23
2.88519e-22
-1.8566e-23
2.42274e-22
-2.48111e-24
2.8931e-22
-3.00678e-23
2.82651e-22
-3.25744e-23
3.32963e-23
-1.55712e-24
2.53014e-22
-3.81658e-24
9.13127e-23
-3.36946e-22
2.1608e-23
4.11629e-23
-2.58128e-24
7.84579e-24
2.58324e-22
2.97655e-23
3.00948e-22
2.02355e-23
2.406e-22
-1.30224e-23
3.29019e-22
-1.7999e-23
2.56805e-22
-3.89483e-24
2.80159e-22
-2.89073e-23
2.38859e-22
-3.41999e-23
1.69775e-23
-1.33217e-24
2.53484e-22
-7.12372e-24
-1.09916e-23
3.61562e-23
2.25257e-23
3.1517e-23
-6.14975e-24
1.13057e-23
1.48088e-22
2.86991e-23
2.31793e-22
2.03468e-23
9.50075e-24
-1.39382e-23
2.13907e-22
-1.74484e-23
2.35831e-22
-3.93973e-24
4.07533e-22
-3.0827e-23
2.58058e-22
-3.45202e-23
-8.38348e-23
-2.78043e-24
3.05323e-22
-4.4248e-24
-2.19551e-23
1.93252e-23
2.57272e-23
3.24018e-23
-1.01393e-23
1.15949e-23
8.18443e-23
2.6177e-23
2.48443e-22
2.56634e-23
-5.40242e-23
-1.68003e-23
3.82663e-22
-1.51054e-23
2.02606e-22
-6.68379e-24
2.94718e-22
-3.04032e-23
3.61875e-22
-3.29013e-23
2.61318e-25
-3.91944e-24
4.25789e-22
-6.1554e-25
6.37072e-23
2.81097e-23
-2.17387e-22
-1.10426e-23
1.02506e-23
-1.48657e-22
2.63023e-23
6.38921e-23
2.85055e-23
-3.70443e-23
-2.02527e-23
9.96527e-23
-1.37935e-23
2.71812e-22
-7.91753e-24
2.75772e-22
-3.03361e-23
1.30746e-22
-3.09264e-23
1.10174e-22
-3.63755e-24
5.12935e-22
5.2594e-23
2.99731e-23
-2.00682e-22
-7.7305e-24
8.69776e-24
-3.16073e-22
2.90766e-23
1.73967e-22
3.27797e-23
-1.35957e-22
-2.12611e-23
-4.28715e-23
-1.21239e-23
2.37827e-22
-9.53276e-24
2.79607e-22
-2.87211e-23
9.33526e-23
-2.96963e-23
1.63041e-22
-5.73582e-24
2.42214e-22
4.37339e-23
2.82717e-23
-2.68167e-22
-4.2116e-24
1.31681e-23
-2.29364e-22
2.7134e-23
2.99357e-22
3.27834e-23
1.20039e-22
-2.08679e-23
-2.31241e-22
-9.02498e-24
4.85127e-22
-1.40054e-23
8.71148e-23
-2.69033e-23
-1.25249e-22
-3.22177e-23
1.1198e-23
-2.95737e-24
3.35051e-22
-3.39648e-23
3.10165e-23
-2.02179e-22
4.72839e-25
1.6123e-23
-3.001e-22
2.75875e-23
2.61966e-22
2.99021e-23
1.17622e-22
-1.78907e-23
-1.62501e-22
-1.15285e-23
3.7932e-22
-1.56986e-23
7.36286e-23
-2.25978e-23
-6.81577e-23
-3.33529e-23
5.79256e-23
-3.56246e-24
3.00638e-22
-5.49539e-23
3.30678e-23
4.14409e-24
5.1203e-24
1.90303e-23
-2.85888e-22
2.53456e-23
2.15955e-22
2.98866e-23
1.82269e-22
-1.52056e-23
-1.09652e-22
-1.29604e-23
3.6252e-22
-1.87756e-23
1.77733e-22
-1.98323e-23
-2.48409e-23
-3.2392e-23
-9.19551e-23
-3.52542e-24
3.33605e-22
-5.20436e-23
3.01956e-23
1.48112e-22
5.80245e-24
2.40873e-23
-1.03094e-22
2.41852e-23
8.13553e-23
3.09071e-23
1.7982e-22
-1.47016e-23
-8.50273e-23
-1.31023e-23
5.1049e-22
-1.97084e-23
2.89981e-22
-2.00908e-23
-1.26228e-23
-3.01243e-23
2.02447e-23
-3.33934e-24
3.15369e-22
-5.02499e-23
2.91498e-23
4.73463e-23
5.99147e-24
2.72271e-23
1.70264e-22
2.61314e-23
5.93288e-23
3.04364e-23
3.21283e-22
-1.45843e-23
-2.80655e-22
-1.53353e-23
2.77852e-22
-2.26412e-23
1.59421e-22
-1.79064e-23
-9.17801e-23
-2.90528e-23
5.86818e-23
-1.93615e-24
3.87351e-22
-5.89664e-23
3.00732e-23
-4.94111e-23
6.8298e-24
2.63415e-23
6.50351e-23
2.44725e-23
1.60537e-22
2.87682e-23
3.17523e-22
-1.5782e-23
-1.98599e-22
-1.40725e-23
3.0303e-22
-2.51513e-23
2.54643e-23
-1.4615e-23
5.36093e-23
-2.87397e-23
-8.33479e-23
-9.46026e-25
3.5401e-22
1.33261e-23
2.96801e-23
7.00428e-23
8.20954e-24
2.9491e-23
3.23826e-23
2.47478e-23
-8.95748e-23
2.5312e-23
2.25543e-22
-1.32512e-23
-1.42574e-22
-1.55331e-23
2.53535e-22
-2.35664e-23
-1.35453e-23
-1.55864e-23
2.10479e-22
-2.63835e-23
3.65134e-23
8.04349e-26
5.01998e-22
-1.15412e-23
2.97017e-23
-1.03531e-22
9.30157e-24
3.0998e-23
2.64306e-22
2.38985e-23
-1.37791e-22
2.48932e-23
1.46365e-22
-1.29357e-23
-1.13662e-22
-1.66264e-23
2.90679e-22
-2.21112e-23
-1.21525e-22
-1.70172e-23
2.34336e-22
-2.39264e-23
5.56235e-23
-1.32344e-24
4.8831e-22
-4.31442e-23
2.83697e-23
-1.5703e-22
9.81085e-24
3.30982e-23
4.0513e-22
2.42039e-23
-1.68455e-22
2.68625e-23
3.56434e-22
-1.42936e-23
-2.78331e-22
-1.78952e-23
1.52299e-22
-2.0859e-23
5.46518e-23
-1.67998e-23
2.42091e-22
-2.17214e-23
6.56736e-23
-2.32362e-24
5.0891e-22
-7.31627e-23
2.98548e-23
-1.52913e-22
1.07808e-23
3.29482e-23
4.52204e-22
2.44443e-23
-2.68788e-22
2.40791e-23
2.7482e-22
-1.50265e-23
-3.8901e-22
-1.66844e-23
1.25556e-22
-2.04648e-23
6.93323e-24
-1.63292e-23
1.25877e-22
-1.9107e-23
6.85858e-23
-3.45876e-24
5.09351e-22
-9.78347e-23
3.02642e-23
-9.98197e-23
9.84878e-24
3.26648e-23
3.94278e-22
2.51034e-23
-1.45052e-23
2.23046e-23
3.68229e-22
-1.62083e-23
-3.40645e-22
-1.55798e-23
3.73842e-23
-2.0767e-23
-1.7752e-23
-1.62808e-23
1.44734e-22
-1.86111e-23
1.28832e-22
-3.50718e-24
4.86416e-22
-9.40363e-23
3.01282e-23
-1.20067e-22
8.42053e-24
3.26132e-23
1.62732e-22
2.47706e-23
-2.2701e-22
2.17529e-23
1.88263e-22
-1.65664e-23
-4.34336e-22
-1.475e-23
4.53298e-23
-2.05711e-23
-2.0991e-22
-1.43976e-23
7.51335e-23
-1.84756e-23
5.97872e-23
-3.35771e-24
4.84449e-22
-1.45106e-22
2.90048e-23
-3.26683e-22
6.77151e-24
3.37499e-23
1.74709e-22
2.45411e-23
-4.47732e-22
2.05602e-23
2.55413e-22
-1.67694e-23
-5.38913e-22
-1.52367e-23
-7.15271e-23
-1.92759e-23
-2.01441e-22
-1.32217e-23
8.80675e-23
-1.72808e-23
4.21548e-23
-4.18775e-24
3.53624e-22
-1.13871e-22
2.92496e-23
-3.40329e-22
9.48626e-24
3.41694e-23
1.76617e-22
2.41087e-23
-5.77534e-22
1.91041e-23
2.54894e-22
-1.65426e-23
-4.80503e-22
-1.46722e-23
-1.09182e-22
-1.96537e-23
-2.1575e-22
-1.04951e-23
1.02226e-22
-1.74633e-23
2.89836e-23
-3.83969e-24
3.32012e-22
3.51447e-23
3.05689e-23
-2.26672e-22
1.22327e-23
3.31776e-23
2.11804e-22
2.55973e-23
-5.08763e-22
1.70565e-23
1.29174e-22
-1.55518e-23
-5.85755e-22
-1.47819e-23
-2.22148e-22
-1.94458e-23
-1.21293e-22
-9.54084e-24
2.92648e-22
-1.64527e-23
-2.283e-22
-2.29472e-24
2.58537e-22
2.97247e-23
-9.67994e-23
1.19235e-23
3.40843e-23
2.04249e-22
2.53918e-23
-5.20782e-22
1.62816e-23
2.4241e-22
-1.66127e-23
-5.57697e-22
-1.26697e-23
-1.88894e-22
-1.92518e-23
-1.49171e-22
-9.75575e-24
3.64165e-22
-1.40835e-23
-1.88984e-23
2.44559e-22
3.0301e-23
4.87289e-23
1.34117e-23
3.30821e-23
2.05012e-22
2.6014e-23
-4.67885e-22
1.47154e-23
1.47604e-22
-1.62959e-23
-6.05737e-22
-1.16538e-23
-5.45868e-23
-1.85392e-23
-2.80339e-22
-9.22082e-24
3.69765e-22
-1.26209e-23
-3.33862e-23
1.38713e-22
2.93076e-23
1.71912e-22
1.37146e-23
3.37144e-23
9.0678e-23
2.55413e-23
-4.50379e-22
1.28233e-23
2.66772e-22
-1.60061e-23
-6.38466e-22
-1.29513e-23
-1.41205e-22
-1.70334e-23
-3.24249e-22
-9.71002e-24
4.41087e-22
-1.23111e-23
5.21215e-23
2.77323e-22
2.97782e-23
2.81152e-22
1.46235e-23
3.40285e-23
1.04104e-22
2.75748e-23
-3.93746e-22
9.91277e-24
1.87411e-22
-1.57044e-23
-5.09461e-22
-1.2157e-23
-2.08829e-22
-1.55151e-23
-2.92903e-22
-9.51576e-24
3.60657e-22
-1.10458e-23
1.84071e-22
3.79612e-22
2.87918e-23
4.63815e-22
1.48902e-23
3.41317e-23
-1.62594e-23
2.73742e-23
-2.90775e-22
8.3697e-24
3.77559e-23
-1.55597e-23
-3.92268e-22
-1.23604e-23
-2.08303e-22
-1.42835e-23
-2.36709e-22
-8.32163e-24
2.75206e-22
-9.79702e-24
2.21656e-22
2.56153e-22
2.73207e-23
3.62766e-22
1.38788e-23
3.36504e-23
7.04474e-24
2.71726e-23
-2.79019e-22
8.33788e-24
-7.99096e-23
-1.74988e-23
-4.8284e-22
-1.1412e-23
-2.09142e-22
-1.35648e-23
-2.41247e-22
-7.22921e-24
1.90934e-22
-9.25171e-24
2.29228e-22
1.50627e-22
2.66156e-23
3.37113e-22
1.40843e-23
3.33176e-23
4.44261e-25
2.7162e-23
-3.4954e-22
7.84846e-24
-7.16438e-23
-1.8182e-23
-4.33093e-22
-1.0843e-23
-2.14869e-22
-1.21411e-23
-2.37448e-22
-6.22371e-24
1.84554e-22
-8.98526e-24
5.98867e-23
4.21165e-23
2.60634e-23
3.65706e-22
1.48222e-23
3.21044e-23
2.26861e-22
2.75505e-23
-3.56598e-22
6.92067e-24
-2.34653e-22
-1.85976e-23
-4.53002e-22
-1.043e-23
-2.30335e-22
-1.12627e-23
-2.19801e-22
-6.16217e-24
1.8679e-22
-8.04005e-24
6.43927e-23
3.08877e-23
2.53085e-23
2.29232e-22
1.39681e-23
3.11461e-23
2.05266e-22
2.72076e-23
-1.71984e-22
5.95198e-24
-3.88955e-22
-1.85524e-23
-3.3718e-22
-9.80575e-24
-1.1808e-22
-1.04763e-23
-2.01089e-22
-6.01909e-24
1.12819e-22
-6.81452e-24
-1.07833e-22
7.171e-23
2.57391e-23
1.86715e-22
1.39285e-23
3.03181e-23
9.76997e-23
2.54726e-23
-1.89732e-22
6.16344e-24
-4.07511e-22
-1.8959e-23
-2.4554e-22
-9.52886e-24
5.2939e-23
-1.00509e-23
-1.74807e-22
-5.94204e-24
1.08078e-22
-5.95093e-24
-1.10288e-22
3.26913e-23
2.5784e-23
1.36263e-22
1.38751e-23
2.93577e-23
7.2249e-23
2.48026e-23
-1.6202e-22
6.8019e-24
-3.15015e-22
-1.91998e-23
-1.56258e-22
-9.71881e-24
9.79704e-23
-9.21793e-24
-2.12578e-22
-5.72002e-24
8.56042e-23
-4.70014e-24
6.32957e-23
2.09231e-23
2.51946e-23
9.2703e-23
1.36862e-23
2.90898e-23
-1.65835e-23
2.39288e-23
-1.30265e-22
6.33094e-24
-1.45e-22
-1.87042e-23
-1.26825e-22
-1.01074e-23
-2.95067e-23
-9.02271e-24
-1.87818e-22
-6.0034e-24
-3.6347e-23
-3.99278e-24
6.3793e-23
1.31215e-23
2.56274e-23
1.18223e-22
1.45585e-23
2.83529e-23
-1.09289e-22
2.36289e-23
-2.68204e-22
6.2383e-24
-2.34072e-22
-1.85853e-23
-1.03892e-22
-1.01903e-23
3.96757e-23
-9.1868e-24
-2.19535e-22
-4.73234e-24
1.01754e-24
-3.38519e-24
-2.65985e-24
-5.62328e-23
2.49773e-23
7.88051e-23
1.45847e-23
2.78472e-23
-2.09035e-22
2.31955e-23
-1.14858e-22
6.20409e-24
-2.68788e-22
-1.89357e-23
-2.00913e-22
-1.04108e-23
4.95603e-23
-8.85861e-24
-2.45992e-22
-4.44906e-24
1.04503e-22
-3.13236e-24
-1.23876e-23
-5.05382e-23
2.38623e-23
1.54903e-22
1.47856e-23
2.80821e-23
-2.7517e-22
2.18547e-23
-2.30264e-22
6.84003e-24
-1.35614e-22
-1.94108e-23
-1.21418e-22
-1.01877e-23
5.56313e-23
-8.49537e-24
-2.78938e-22
-4.7345e-24
1.52111e-22
-2.4929e-24
9.58188e-23
-1.05215e-22
2.28161e-23
7.12875e-23
1.46002e-23
2.71462e-23
-1.88776e-22
2.17823e-23
-2.27456e-22
6.35049e-24
-2.33578e-22
-1.95074e-23
-1.02765e-22
-1.03191e-23
2.77379e-24
-7.93853e-24
-2.58181e-22
-4.43952e-24
8.68051e-23
-2.60494e-24
3.42963e-23
-4.65117e-23
2.22222e-23
1.37984e-22
1.55985e-23
2.63402e-23
-1.88241e-22
2.13757e-23
-1.27882e-22
6.36726e-24
-2.07203e-22
-1.93018e-23
-1.36054e-22
-1.05692e-23
4.35673e-24
-7.37579e-24
-1.44135e-22
-4.7853e-24
2.88023e-23
-2.71194e-24
8.48682e-23
1.13147e-24
2.19369e-23
9.81025e-24
1.60234e-23
2.56508e-23
-9.22015e-23
2.03952e-23
-2.26854e-22
6.22718e-24
-2.50678e-22
-1.92293e-23
-1.13556e-22
-1.04441e-23
9.79202e-23
-7.55086e-24
-1.4609e-22
-4.09239e-24
5.26749e-23
-2.5108e-24
8.92788e-23
-3.88634e-23
2.14744e-23
5.70357e-23
1.64878e-23
2.43079e-23
-1.57381e-22
1.96405e-23
-1.0613e-22
6.16366e-24
-1.78369e-22
-1.91804e-23
-1.05855e-22
-1.02775e-23
-5.66902e-24
-7.61916e-24
-1.93857e-22
-4.25992e-24
9.71275e-23
-2.88083e-24
-7.82774e-24
-6.78226e-23
2.0342e-23
1.29841e-22
1.70321e-23
2.3292e-23
-8.28726e-23
1.85046e-23
-8.36254e-23
6.10976e-24
-7.81697e-23
-1.88996e-23
-1.89227e-22
-1.02896e-23
7.95829e-23
-6.90665e-24
-1.12277e-22
-4.57795e-24
8.64684e-23
-3.20032e-24
-1.82019e-23
-4.94966e-24
1.94751e-23
2.02756e-22
1.73224e-23
2.24634e-23
-1.19622e-22
1.74793e-23
-9.00759e-23
5.44688e-24
-1.74918e-22
-1.8438e-23
-1.55651e-22
-1.01796e-23
7.11201e-23
-7.14976e-24
-1.31297e-22
-4.88499e-24
3.93762e-23
-3.63432e-24
4.49883e-23
-1.39063e-23
1.84663e-23
1.79784e-22
1.73526e-23
2.12381e-23
-1.80414e-22
1.63772e-23
-8.96941e-23
5.4513e-24
-8.50035e-23
-1.76573e-23
-1.26803e-22
-1.01115e-23
-1.14859e-23
-7.01689e-24
-7.39976e-23
-5.09817e-24
4.72745e-23
-4.39718e-24
7.95118e-23
-4.7527e-25
1.73741e-23
2.18946e-22
1.73731e-23
1.98611e-23
-1.18894e-22
1.54732e-23
-9.56747e-23
4.79389e-24
-7.00452e-23
-1.71137e-23
-3.66639e-23
-1.01716e-23
-2.43966e-23
-6.96046e-24
1.36373e-24
-5.41426e-24
5.39925e-23
-5.24059e-24
7.08169e-23
2.3661e-23
1.6226e-23
1.13134e-22
1.72044e-23
1.87599e-23
-1.71466e-22
1.46518e-23
-1.30855e-22
4.50409e-24
-5.80087e-23
-1.65678e-23
-2.01238e-23
-9.7984e-24
7.76569e-24
-7.29317e-24
-5.39475e-23
-5.96423e-24
7.62552e-23
-6.3387e-24
5.89535e-23
1.4227e-23
1.52917e-23
8.11943e-23
1.69856e-23
1.74749e-23
-5.24573e-23
1.36794e-23
3.21056e-24
4.23618e-24
-3.98882e-23
-1.57613e-23
-4.72682e-23
-9.74045e-24
8.01361e-24
-7.66849e-24
-7.01717e-23
-6.80537e-24
2.09283e-23
-7.63199e-24
3.64452e-23
-1.00862e-23
1.42675e-23
5.24324e-23
1.67628e-23
1.61857e-23
-3.92527e-23
1.25149e-23
-4.84689e-23
3.90599e-24
-2.71743e-23
-1.484e-23
-4.65845e-23
-9.89074e-24
-1.09043e-22
-8.37174e-24
-7.13786e-23
-7.87697e-24
5.34338e-23
-9.34379e-24
1.0609e-23
-2.8709e-23
1.32852e-23
7.51259e-23
1.62584e-23
1.48345e-23
-4.3879e-23
1.15285e-23
-3.89525e-23
3.53602e-24
-7.44415e-23
-1.40469e-23
-3.2692e-23
-1.02632e-23
-5.44764e-23
-9.53004e-24
-2.29575e-23
-9.36466e-24
-9.17881e-24
-1.16608e-23
4.87743e-25
2.19933e-23
1.23135e-23
5.32833e-23
1.56214e-23
1.33732e-23
-3.65463e-23
1.04594e-23
-2.26373e-24
2.99626e-24
-5.10856e-23
-1.36219e-23
-1.94618e-23
-1.11644e-23
-5.72264e-23
-1.14772e-23
-4.61325e-23
-1.15795e-23
-6.826e-24
-1.45516e-23
1.01959e-23
1.17947e-23
1.12353e-23
6.94707e-23
1.49853e-23
1.19269e-23
2.03675e-24
9.13165e-24
-4.44477e-23
2.05809e-24
-4.09042e-23
-1.35508e-23
-6.77764e-24
-1.28545e-23
-3.57678e-23
-1.43305e-23
-4.49527e-23
-1.48039e-23
1.18502e-23
-1.85024e-23
-1.03675e-23
1.42356e-23
9.92303e-24
4.75054e-23
1.43651e-23
1.03167e-23
5.38554e-24
7.76495e-24
-4.27252e-23
5.81838e-25
-1.60172e-23
-1.43776e-23
5.80466e-24
-1.56394e-23
-5.67295e-24
-1.83548e-23
-4.40541e-23
-1.95441e-23
5.36146e-24
-2.39639e-23
-2.12081e-23
1.37766e-23
8.37473e-24
3.35182e-23
1.40291e-23
8.49924e-24
-1.26703e-23
6.25689e-24
-2.68904e-23
-1.80206e-24
-2.86555e-23
-1.6233e-23
-9.20445e-24
-1.97252e-23
-1.77951e-23
-2.37737e-23
-7.14267e-24
-2.61068e-23
-1.16986e-24
-3.11431e-23
-1.3755e-23
1.66257e-23
6.26619e-24
2.6011e-23
1.42274e-23
6.47662e-24
6.10458e-24
4.39103e-24
-6.25741e-24
-5.15411e-24
-1.12828e-23
-1.95509e-23
-1.60701e-23
-2.51605e-23
-1.1652e-23
-3.06865e-23
-2.51736e-24
-3.45592e-23
-4.9651e-24
-4.04236e-23
-8.17347e-24
1.20484e-23
3.525e-24
1.66911e-24
1.53856e-23
4.10469e-24
4.58561e-25
2.08887e-24
-4.45128e-26
-9.91093e-24
5.9635e-25
-2.46522e-23
-7.47891e-24
-3.2059e-23
-1.38228e-24
-3.89481e-23
-1.02158e-24
-4.49215e-23
-5.8807e-25
-5.20021e-23
-2.32263e-24
-2.41028e-24
1.93286e-24
8.99709e-25
1.50042e-24
1.13271e-24
1.36973e-24
-5.50332e-25
-9.7838e-25
-2.04743e-24
-1.50221e-24
-2.2001e-24
-7.64486e-25
2.30586e-22
-1.45275e-24
3.95009e-22
-5.61205e-24
-6.7925e-24
-4.12072e-24
-3.64162e-23
-3.1614e-23
-2.46269e-22
-5.71645e-24
1.14544e-22
-4.49042e-23
-2.65877e-22
-3.60181e-23
1.23976e-22
-1.63703e-23
2.73776e-22
9.33701e-24
1.01245e-22
-2.47899e-23
-2.03052e-22
-1.99157e-23
2.80723e-22
6.14511e-24
-1.16413e-22
-5.54694e-24
1.10072e-22
7.68216e-24
-2.13536e-22
1.29938e-23
-2.26172e-22
-4.43893e-22
-7.12666e-25
1.75117e-22
-5.55955e-24
3.4806e-22
-7.25466e-24
2.26542e-22
-6.36915e-24
-4.81476e-23
-2.88673e-23
-2.06917e-22
-1.01464e-23
4.80711e-23
-3.90894e-23
-2.70151e-22
-3.64392e-23
-7.73486e-23
-1.68014e-23
2.19772e-22
6.75675e-24
3.32085e-22
-2.24344e-23
-1.70647e-22
-2.2582e-23
2.70382e-22
5.44241e-24
8.25522e-23
-9.3862e-24
1.16724e-22
8.87249e-24
-3.14863e-22
1.36195e-23
-1.18164e-22
-2.51509e-22
-1.87465e-24
1.13471e-22
-5.29161e-24
1.31568e-22
-1.20446e-23
-1.78334e-23
-7.67885e-24
-5.4748e-23
-2.93547e-23
-1.65231e-22
-1.25447e-23
-9.31223e-23
-3.43812e-23
-2.71813e-22
-3.53868e-23
-6.58085e-23
-1.47449e-23
1.71588e-22
4.0745e-24
3.08783e-22
-1.92033e-23
-1.16743e-22
-2.154e-23
9.92441e-23
5.35716e-24
-8.19407e-23
-1.48637e-23
-1.19924e-22
1.07247e-23
-2.62619e-22
1.30574e-23
-1.45975e-22
-3.2784e-22
1.24826e-23
2.89857e-22
-3.38591e-23
-1.43584e-23
-4.7119e-23
2.03231e-22
-2.72069e-24
2.2878e-22
-6.3384e-24
1.03094e-22
-1.22543e-23
-5.83933e-23
-9.54477e-24
-1.90643e-22
-3.02081e-23
-1.35518e-22
-1.1871e-23
1.21023e-22
-3.25473e-23
-2.88828e-22
-3.20978e-23
-5.07767e-23
-1.37154e-23
1.58235e-22
1.22329e-24
3.07118e-23
-2.08552e-23
9.34704e-24
-2.03156e-23
1.12093e-22
-1.34288e-24
4.90019e-23
-1.47173e-23
-8.45186e-23
1.12204e-23
-4.69569e-23
1.17446e-23
-1.72305e-22
-2.53679e-22
1.19151e-23
1.9512e-22
-3.27306e-23
9.07834e-23
-4.59488e-23
1.03408e-22
-6.23354e-24
3.48132e-22
-7.43782e-24
8.64784e-23
-1.38633e-23
-1.62612e-22
-8.06594e-24
-1.65388e-22
-2.94151e-23
-1.28412e-22
-1.53081e-23
7.6784e-23
-2.99278e-23
-2.8043e-22
-2.76704e-23
-4.13614e-23
-1.63397e-23
1.54573e-22
3.02713e-24
1.24291e-22
-2.29366e-23
1.94846e-22
-1.76506e-23
1.14859e-22
-6.3314e-24
-1.84504e-22
-1.14548e-23
2.48288e-22
9.02593e-24
-1.63875e-22
1.36397e-23
-2.44398e-22
-3.16199e-22
1.25499e-23
2.315e-22
-3.50389e-23
8.46119e-24
-4.34084e-23
3.78115e-23
-9.98215e-24
3.11003e-22
-9.79754e-24
1.77275e-22
-1.39478e-23
-1.62053e-22
-7.32554e-24
-1.36027e-22
-2.56684e-23
-1.47215e-22
-1.92423e-23
4.25672e-23
-2.64065e-23
-2.68917e-22
-2.51468e-23
5.58991e-23
-1.61242e-23
2.37167e-22
6.82989e-24
-2.73531e-23
-2.58241e-23
3.35962e-23
-2.02797e-23
1.35123e-22
-2.62431e-25
-8.69141e-23
-1.8858e-23
3.74145e-22
7.87823e-24
-6.41091e-23
1.38391e-23
-2.46018e-22
-3.19929e-22
1.26838e-23
2.46941e-22
-3.60387e-23
1.01567e-22
-4.24058e-23
-6.15299e-23
-1.10699e-23
2.78169e-22
-1.33578e-23
1.72148e-22
-1.38341e-23
-1.02516e-22
-7.28059e-24
-1.21566e-22
-2.32169e-23
-1.69216e-22
-2.17668e-23
5.99116e-23
-2.34194e-23
-3.72725e-22
-2.25402e-23
2.21824e-23
-1.93682e-23
5.82166e-23
8.8209e-24
-1.30872e-22
-2.59023e-23
3.83196e-23
-2.03294e-23
1.6137e-22
2.2391e-24
-2.60077e-24
-2.38837e-23
4.1628e-22
4.88484e-24
1.0991e-22
1.14847e-23
-1.8168e-23
-2.07376e-22
1.16291e-23
2.42518e-22
-3.68498e-23
7.14869e-23
-4.07894e-23
-1.47836e-22
-1.1895e-23
2.74256e-22
-1.51149e-23
1.43358e-22
-1.58487e-23
-1.17064e-22
-6.32811e-24
-4.5447e-23
-2.1854e-23
-2.40308e-22
-2.39465e-23
2.79116e-23
-2.13446e-23
-2.29146e-22
-2.17711e-23
1.06695e-22
-1.89451e-23
7.49355e-23
9.49686e-24
-5.00707e-23
-2.46951e-23
-5.86302e-24
-2.03965e-23
2.9917e-23
5.63276e-24
1.3796e-22
-2.50342e-23
3.51727e-22
6.10383e-25
4.08814e-22
9.40323e-24
1.26548e-22
-5.38992e-24
1.04144e-23
2.12018e-22
-3.74301e-23
1.38652e-22
-3.85808e-23
7.36568e-23
-1.32621e-23
1.86998e-22
-1.64967e-23
1.32824e-23
-1.63949e-23
-8.32683e-23
-7.13458e-24
1.89819e-23
-2.01885e-23
-1.09183e-22
-2.4733e-23
-2.22111e-24
-1.88663e-23
-2.77676e-22
-2.13676e-23
9.57105e-23
-1.98165e-23
9.76312e-23
1.05145e-23
-1.46746e-22
-2.30693e-23
2.72446e-24
-1.87143e-23
-2.01469e-22
3.66504e-24
5.8652e-23
-2.3915e-23
3.47931e-22
-2.34507e-24
3.09167e-22
7.13994e-24
1.97722e-22
1.86946e-22
1.03992e-23
1.25904e-22
-3.80398e-23
5.9354e-23
-3.97328e-23
4.71044e-23
-1.49941e-23
1.7016e-22
-1.61526e-23
9.55445e-24
-1.6517e-23
-1.29219e-22
-5.86577e-24
-4.51125e-24
-2.03895e-23
-2.05219e-22
-2.4359e-23
-2.08779e-23
-1.82073e-23
-1.54074e-22
-1.97354e-23
5.01745e-23
-2.10792e-23
1.26679e-22
1.26125e-23
-5.80778e-23
-2.27081e-23
1.94282e-22
-1.85896e-23
-1.74419e-22
8.38045e-24
1.98505e-22
-2.20142e-23
2.04217e-22
-5.12672e-24
2.16421e-22
6.71302e-24
2.05872e-22
2.97529e-22
1.10653e-23
1.12306e-22
-3.62526e-23
4.15758e-23
-4.10988e-23
-9.75585e-23
-1.74902e-23
1.65833e-22
-1.5969e-23
1.44136e-23
-1.60527e-23
-1.27852e-22
-5.42485e-24
-2.50757e-23
-2.07302e-23
-2.30178e-22
-2.1677e-23
3.48026e-23
-1.8891e-23
-2.59462e-22
-1.74391e-23
2.90978e-22
-2.09596e-23
4.44345e-23
1.13352e-23
8.8875e-23
-2.36639e-23
1.94576e-22
-1.47788e-23
-1.40389e-22
8.54211e-24
1.8197e-22
-2.03217e-23
1.04224e-22
-6.15142e-24
1.22916e-22
5.02671e-24
3.57234e-22
3.9137e-22
1.03823e-23
7.55109e-23
-3.54266e-23
-3.67356e-23
-4.13481e-23
-1.84407e-22
-1.88382e-23
2.1512e-22
-1.60711e-23
7.74117e-23
-1.60194e-23
-1.30772e-22
-5.32113e-24
-1.31285e-22
-1.98709e-23
-2.8767e-22
-2.10281e-23
4.67328e-23
-1.44163e-23
-2.78883e-22
-2.01978e-23
1.8888e-22
-1.93666e-23
1.33057e-22
1.20558e-23
9.18815e-23
-2.49803e-23
2.88039e-23
-1.45406e-23
-4.277e-23
1.03551e-23
3.20698e-22
-2.18686e-23
-3.5523e-23
-2.85025e-24
6.38615e-23
3.16564e-24
5.17995e-22
1.74764e-22
9.38937e-24
4.68943e-23
-3.56484e-23
-4.33388e-23
-3.99663e-23
-6.21215e-23
-1.99488e-23
2.54662e-22
-1.6855e-23
2.16453e-23
-1.69727e-23
-1.05384e-22
-3.19169e-24
-1.47854e-22
-2.08155e-23
-4.96682e-22
-1.80674e-23
1.356e-22
-1.33643e-23
-3.81859e-22
-1.86458e-23
2.22014e-22
-1.98814e-23
7.77958e-23
8.36319e-24
4.65823e-23
-2.3231e-23
-1.69044e-22
-1.36469e-23
-1.3863e-22
1.07611e-23
1.91045e-22
-2.20458e-23
-1.90006e-22
-7.05087e-25
9.29713e-23
8.93845e-25
4.7491e-22
2.96662e-22
8.57406e-24
1.23583e-23
-3.34655e-23
4.9051e-23
-3.95702e-23
-1.00248e-22
-2.20836e-23
2.38084e-22
-1.72127e-23
-3.91364e-23
-1.83293e-23
-9.88553e-23
-2.40146e-24
-1.8312e-22
-1.87452e-23
-5.22996e-22
-1.88617e-23
1.75005e-22
-1.14927e-23
-3.86519e-22
-1.7677e-23
1.28078e-22
-2.06839e-23
8.50245e-23
4.90201e-24
2.20359e-22
-1.90899e-23
-1.57518e-22
-1.2478e-23
-1.23406e-22
9.7712e-24
3.42752e-22
-2.06767e-23
-2.3528e-22
-1.93272e-25
1.95464e-22
-9.66762e-25
1.67775e-22
1.94826e-22
8.68268e-24
1.31774e-22
-3.26332e-23
2.10257e-22
-3.94555e-23
-1.41994e-22
-2.39765e-23
3.36374e-22
-1.68535e-23
-6.8978e-23
-2.03265e-23
-1.22381e-22
-1.51555e-24
-1.21e-22
-1.65696e-23
-6.09932e-22
-1.96853e-23
2.1303e-22
-9.46052e-24
-3.66579e-22
-1.74178e-23
1.68569e-22
-1.86656e-23
7.08634e-23
-6.02932e-25
2.29191e-22
-1.65106e-23
-1.23108e-22
-1.15921e-23
-1.43792e-22
9.03419e-24
3.17826e-22
-1.50184e-23
-2.20717e-22
2.34748e-25
1.79207e-22
-1.06693e-24
2.72573e-22
3.34839e-22
9.31021e-24
9.11642e-23
-3.40222e-23
7.7412e-23
-3.86008e-23
6.68933e-24
-2.69958e-23
2.94392e-22
-1.68212e-23
-8.47364e-23
-2.12415e-23
-1.37344e-22
-3.44774e-25
1.41341e-23
-1.44115e-23
-5.88539e-22
-2.04912e-23
2.36909e-22
-6.34118e-24
-1.83408e-22
-1.70119e-23
1.07889e-22
-1.83981e-23
1.08531e-22
-2.55075e-24
2.60299e-22
-1.65115e-23
-9.8973e-23
-1.17392e-23
-1.54742e-22
9.26663e-24
3.77696e-22
-1.46154e-23
-1.93608e-22
7.29933e-25
1.47672e-22
-1.77788e-24
1.99592e-22
1.98855e-22
9.43071e-24
4.95595e-23
-3.32494e-23
-1.02695e-22
-3.89271e-23
-2.76236e-24
-2.92837e-23
2.77673e-22
-1.6556e-23
5.50377e-23
-2.11604e-23
-1.39419e-22
-1.27208e-25
2.17136e-22
-1.30706e-23
-5.06277e-22
-1.90301e-23
2.40525e-22
-5.2132e-24
-2.34899e-22
-1.44813e-23
1.22898e-22
-1.77403e-23
8.84145e-23
-5.15141e-24
2.84962e-22
-1.55174e-23
6.31311e-23
-1.1965e-23
-1.52021e-22
9.88884e-24
3.6352e-22
-1.46438e-23
-2.14202e-22
3.09353e-24
2.5638e-22
-3.97948e-24
-3.66025e-23
2.90287e-22
8.5848e-24
2.1496e-23
-3.17512e-23
-1.62645e-22
-3.90758e-23
7.91445e-24
-3.0318e-23
2.71864e-22
-1.77075e-23
9.33918e-23
-1.96366e-23
-1.04611e-22
-6.94929e-25
1.6675e-22
-1.14757e-23
-4.53111e-22
-1.8725e-23
1.52108e-22
-3.84117e-24
-2.18008e-22
-1.43955e-23
2.3222e-22
-1.64414e-23
2.42285e-22
-6.40622e-24
4.12632e-22
-1.56246e-23
9.8066e-23
-1.1343e-23
-4.11053e-23
9.18285e-24
4.22367e-22
-1.43403e-23
-3.95282e-22
1.02364e-24
2.70133e-22
-2.4664e-24
-1.68019e-22
3.30212e-22
7.43454e-24
-4.04096e-24
-2.94635e-23
-1.4294e-22
-3.98057e-23
-2.39227e-22
-3.0833e-23
2.84885e-22
-1.85989e-23
7.9942e-23
-1.87679e-23
-2.03296e-23
-5.04142e-25
2.85896e-22
-1.07408e-23
-4.46556e-22
-1.85769e-23
1.53212e-22
-1.76e-24
-2.13905e-22
-1.32862e-23
2.28333e-22
-1.77286e-23
1.32699e-22
-7.58606e-24
4.45289e-22
-1.5234e-23
2.28982e-22
-1.2168e-23
-6.39496e-24
9.59361e-24
4.9431e-22
-1.1486e-23
-5.96983e-22
-6.64816e-25
4.22542e-22
-1.11959e-24
-1.98779e-23
2.71986e-22
6.47151e-24
-3.51225e-23
-2.91395e-23
-1.3524e-22
-3.84991e-23
-3.09388e-22
-3.14461e-23
3.03975e-22
-1.88224e-23
1.30103e-22
-1.74556e-23
-6.27437e-23
-1.93877e-24
2.46897e-22
-9.47847e-24
-4.52594e-22
-1.90288e-23
-4.43742e-23
1.97511e-24
-1.38335e-22
-1.35104e-23
1.41609e-22
-1.62142e-23
3.26909e-23
-7.73038e-24
3.23382e-22
-1.60885e-23
1.97849e-22
-1.18919e-23
1.13148e-22
7.74957e-24
6.1207e-22
-9.1042e-24
-7.87868e-22
-1.31226e-24
1.82328e-22
-1.7396e-24
2.13003e-23
1.30319e-22
5.20919e-24
-1.03242e-23
-2.92881e-23
-5.47132e-23
-3.63864e-23
-3.25913e-22
-3.18057e-23
3.71679e-22
-1.98928e-23
1.18759e-22
-1.61394e-23
-5.59291e-23
-2.92294e-24
1.92923e-22
-8.8499e-24
-4.71844e-22
-1.84582e-23
-1.03699e-22
4.22969e-24
-1.48976e-22
-1.23718e-23
7.62874e-23
-1.71495e-23
7.44079e-23
-6.5007e-24
5.68422e-22
-1.67852e-23
3.16993e-22
-1.27928e-23
2.1891e-22
5.0786e-24
5.55035e-22
-7.64062e-24
-6.47041e-22
-2.37434e-24
2.04863e-22
-2.16173e-24
1.41152e-22
1.21128e-22
4.70203e-24
-2.37137e-23
-2.97849e-23
-4.80047e-23
-3.44471e-23
-4.03709e-22
-3.21293e-23
2.12784e-22
-2.08401e-23
1.07152e-22
-1.50363e-23
-6.52965e-23
-4.0645e-24
1.67163e-22
-8.55936e-24
-4.71091e-22
-1.79475e-23
-9.11904e-23
6.04926e-24
9.14596e-23
-1.1318e-23
9.06023e-23
-1.53868e-23
4.18734e-23
-6.90845e-24
3.88842e-22
-1.722e-23
2.79779e-22
-1.30214e-23
4.76669e-22
3.75146e-24
5.02699e-22
-6.91495e-24
-8.48316e-22
-1.55279e-24
4.54986e-22
-5.87282e-24
1.64592e-22
3.01275e-22
3.40278e-24
1.29883e-22
-3.02101e-23
-8.18812e-23
-3.33183e-23
-3.29122e-22
-3.17102e-23
2.07464e-22
-2.19266e-23
1.19722e-22
-1.37777e-23
-5.84603e-23
-5.33789e-24
1.61056e-22
-7.57476e-24
-3.30025e-22
-1.70378e-23
-1.64036e-22
7.82659e-24
1.40321e-22
-9.78063e-24
-4.4025e-23
-1.56428e-23
9.78526e-23
-5.6162e-24
3.96552e-22
-1.68682e-23
1.76902e-22
-1.5819e-23
3.36723e-22
2.65645e-24
4.29815e-22
-5.12103e-24
-7.50097e-22
-3.342e-25
5.71293e-22
-6.46383e-24
1.75881e-22
2.95867e-22
9.33954e-25
1.30122e-22
-2.93842e-23
-7.86728e-23
-3.31978e-23
-2.89156e-22
-3.08109e-23
2.18414e-22
-2.30039e-23
9.35516e-23
-1.26733e-23
-6.84355e-23
-5.90983e-24
1.78076e-22
-7.84136e-24
-3.82977e-22
-1.48908e-23
-1.69895e-22
7.38219e-24
3.62775e-23
-7.74232e-24
2.76656e-23
-1.62146e-23
1.04943e-22
-5.41838e-24
3.31396e-22
-1.5102e-23
2.11735e-22
-1.93135e-23
2.0709e-22
1.39014e-24
4.48649e-22
-2.06637e-24
-7.28768e-22
-3.44016e-25
3.87525e-22
-7.12495e-24
6.23438e-23
1.92545e-22
-8.89365e-25
1.98189e-22
-2.92511e-23
-7.76256e-23
-3.29602e-23
-2.46209e-22
-3.01616e-23
2.28244e-22
-2.39304e-23
8.8911e-23
-1.14944e-23
7.69268e-23
-6.40628e-24
1.9196e-22
-8.10159e-24
-3.85012e-22
-1.31248e-23
-1.8749e-22
7.51415e-24
1.88589e-23
-4.7942e-24
6.00433e-23
-1.78285e-23
-1.67757e-22
-5.2158e-24
2.96878e-22
-1.52926e-23
1.14426e-22
-2.03605e-23
2.84867e-22
1.24383e-24
4.23555e-22
-9.47114e-25
-8.60403e-22
-4.7754e-25
3.25505e-22
-8.54304e-24
7.6412e-23
7.10135e-23
-2.12627e-24
1.49563e-22
-2.88622e-23
-7.00107e-23
-3.27312e-23
-2.55259e-22
-2.94994e-23
2.27382e-22
-2.38859e-23
-2.0181e-23
-1.13422e-23
1.34877e-23
-7.41411e-24
2.14514e-22
-8.00278e-24
-3.29756e-22
-1.2257e-23
-1.71817e-22
8.6741e-24
-7.78182e-23
-4.9971e-24
1.66659e-23
-1.80129e-23
-1.41216e-22
-5.27632e-24
2.66204e-22
-1.42721e-23
1.19576e-22
-2.29268e-23
1.30061e-22
1.31275e-25
4.0322e-22
8.55584e-25
-6.93818e-22
-6.88153e-25
3.36482e-22
-7.67816e-24
8.87321e-23
4.70474e-23
-4.04922e-24
-9.33872e-24
-2.79729e-23
-2.18839e-22
-3.25132e-23
-2.61197e-22
-2.94035e-23
2.09442e-22
-2.37634e-23
-3.92634e-23
-1.05871e-23
6.77874e-23
-8.46542e-24
1.53974e-22
-8.17853e-24
-3.45721e-22
-1.16448e-23
-1.27175e-22
9.51105e-24
-3.36199e-23
-3.48869e-24
3.12339e-23
-1.77773e-23
-2.10522e-22
-4.52129e-24
3.05953e-22
-1.30205e-23
1.18069e-22
-2.46441e-23
-3.0894e-23
4.04261e-25
5.61174e-22
1.4626e-24
-6.38337e-22
7.20401e-25
3.39674e-22
-8.18967e-24
9.99067e-23
-3.26717e-25
-5.28927e-24
7.68235e-23
-2.71099e-23
-1.35726e-22
-3.27261e-23
-1.98342e-22
-2.93043e-23
1.35626e-22
-2.32285e-23
-4.89921e-23
-1.04844e-23
2.66382e-23
-8.64017e-24
1.58747e-22
-8.56144e-24
-3.59464e-22
-1.04898e-23
-1.02786e-22
9.35684e-24
-4.89401e-23
-2.46406e-24
-8.21184e-23
-1.73594e-23
-2.3348e-22
-4.56099e-24
2.79029e-22
-1.35434e-23
5.23998e-23
-2.41792e-23
3.60998e-23
-1.70912e-24
6.03032e-22
2.60125e-24
-4.67995e-22
6.2402e-25
1.64701e-22
-8.91273e-24
-8.68602e-23
8.84096e-23
-6.62075e-24
-2.81611e-23
-2.61439e-23
-9.02984e-23
-3.31602e-23
-1.94421e-22
-2.87832e-23
2.5767e-22
-2.29611e-23
8.65543e-24
-1.02257e-23
1.15719e-22
-9.27551e-24
8.92189e-23
-8.36884e-24
-3.69508e-22
-9.431e-24
5.99559e-23
8.78852e-24
-2.7088e-23
-1.08028e-24
-7.92181e-23
-1.67682e-23
-2.93993e-22
-5.10123e-24
2.62776e-22
-1.25669e-23
6.17329e-23
-2.47754e-23
-1.10312e-23
-2.27379e-24
4.15619e-22
2.87489e-24
-5.21875e-22
1.4903e-24
-1.79947e-23
-8.63018e-24
5.51707e-23
-1.16749e-22
-7.56549e-24
-1.30782e-22
-2.52851e-23
-2.40746e-23
-3.264e-23
-1.91652e-22
-2.87862e-23
2.55546e-22
-2.23808e-23
7.36856e-23
-1.0707e-23
1.0419e-22
-9.74028e-24
2.02632e-22
-8.0773e-24
-2.63914e-22
-8.78812e-24
7.09083e-23
8.60547e-24
1.03805e-22
2.87755e-25
6.20604e-23
-1.59943e-23
-2.76297e-22
-4.54992e-24
2.53516e-22
-1.29825e-23
8.05222e-23
-2.48568e-23
3.24336e-23
-2.48554e-24