/*--------------------------------*- C++ -*----------------------------------*\
  =========                 |
  \\      /  F ield         | OpenFOAM: The Open Source CFD Toolbox
   \\    /   O peration     | Website:  https://openfoam.org
    \\  /    A nd           | Version:  7
     \\/     M anipulation  |
\*---------------------------------------------------------------------------*/
FoamFile
{
    version     2.0;
    format      ascii;
    class       volScalarField;
    location    "96000";
    object      strainRate;
}
// * * * * * * * * * * * * * * * * * * * * * * * * * * * * * * * * * * * * * //

dimensions      [0 0 -1 0 0 0 0];

internalField   nonuniform List<scalar> 
4838
(
6.66619e-05
6.47742e-05
6.40215e-05
6.28651e-05
6.14883e-05
5.99956e-05
5.84342e-05
5.68313e-05
5.52065e-05
5.35756e-05
5.19527e-05
5.03509e-05
4.87827e-05
4.72605e-05
4.5797e-05
4.44048e-05
4.30968e-05
4.18862e-05
4.07862e-05
3.98099e-05
3.89698e-05
3.82775e-05
3.77434e-05
3.73757e-05
3.71804e-05
3.71609e-05
3.73172e-05
3.76468e-05
3.81442e-05
3.88012e-05
3.96081e-05
4.05533e-05
4.16243e-05
4.28081e-05
4.40914e-05
4.54608e-05
4.69033e-05
4.84061e-05
4.99562e-05
5.15412e-05
5.31481e-05
5.47636e-05
5.63736e-05
5.79618e-05
5.95084e-05
6.09856e-05
6.23458e-05
6.34879e-05
6.42249e-05
6.64767e-05
7.85103e-05
7.2473e-05
7.17116e-05
7.0451e-05
6.8867e-05
6.71034e-05
6.52453e-05
6.33422e-05
6.14249e-05
5.95145e-05
5.76273e-05
5.57773e-05
5.39772e-05
5.22396e-05
5.05769e-05
4.90018e-05
4.75274e-05
4.61671e-05
4.49345e-05
4.3843e-05
4.29057e-05
4.21348e-05
4.1541e-05
4.1133e-05
4.09172e-05
4.0897e-05
4.10725e-05
4.1441e-05
4.19967e-05
4.27311e-05
4.36339e-05
4.46929e-05
4.58953e-05
4.72275e-05
4.86758e-05
5.02268e-05
5.18672e-05
5.35841e-05
5.53647e-05
5.71964e-05
5.90662e-05
6.09599e-05
6.28611e-05
6.47484e-05
6.6591e-05
6.83397e-05
6.99102e-05
7.11621e-05
7.19181e-05
7.82023e-05
8.19811e-05
7.49595e-05
7.39139e-05
7.27516e-05
7.13731e-05
6.98148e-05
6.81333e-05
6.63767e-05
6.45812e-05
6.27737e-05
6.09751e-05
5.92028e-05
5.74721e-05
5.57973e-05
5.41922e-05
5.26705e-05
5.12457e-05
4.99316e-05
4.87414e-05
4.76885e-05
4.67853e-05
4.60433e-05
4.54724e-05
4.50807e-05
4.48739e-05
4.48551e-05
4.50246e-05
4.53796e-05
4.59148e-05
4.66226e-05
4.74931e-05
4.85151e-05
4.96761e-05
5.0963e-05
5.23623e-05
5.38602e-05
5.5443e-05
5.70968e-05
5.88078e-05
6.05615e-05
6.23423e-05
6.41327e-05
6.59119e-05
6.76529e-05
6.93199e-05
7.08653e-05
7.22339e-05
7.33925e-05
7.44385e-05
8.17001e-05
8.54044e-05
7.83177e-05
7.69072e-05
7.55978e-05
7.42306e-05
7.27585e-05
7.11868e-05
6.95405e-05
6.78473e-05
6.61324e-05
6.44173e-05
6.27208e-05
6.10596e-05
5.9449e-05
5.79037e-05
5.64379e-05
5.50655e-05
5.38e-05
5.26548e-05
5.16424e-05
5.07749e-05
5.00628e-05
4.95157e-05
4.91407e-05
4.89432e-05
4.89259e-05
4.90889e-05
4.943e-05
4.99441e-05
5.06241e-05
5.1461e-05
5.24441e-05
5.35617e-05
5.4801e-05
5.61487e-05
5.75913e-05
5.91147e-05
6.07047e-05
6.23464e-05
6.40244e-05
6.57218e-05
6.74199e-05
6.90973e-05
7.07289e-05
7.22875e-05
7.37489e-05
7.51089e-05
7.64168e-05
7.78286e-05
8.51521e-05
8.88763e-05
8.19702e-05
8.03396e-05
7.8863e-05
7.74228e-05
7.59529e-05
7.44283e-05
7.28502e-05
7.12328e-05
6.95941e-05
6.79527e-05
6.63262e-05
6.47313e-05
6.31835e-05
6.16976e-05
6.02878e-05
5.89681e-05
5.77518e-05
5.66518e-05
5.56802e-05
5.48483e-05
5.41663e-05
5.36426e-05
5.32842e-05
5.30958e-05
5.30799e-05
5.32366e-05
5.35638e-05
5.40569e-05
5.47093e-05
5.55126e-05
5.64568e-05
5.75307e-05
5.87222e-05
6.00184e-05
6.14058e-05
6.28707e-05
6.43985e-05
6.59745e-05
6.75829e-05
6.92073e-05
7.083e-05
7.24325e-05
7.3997e-05
7.55101e-05
7.6971e-05
7.84057e-05
7.98814e-05
8.15124e-05
8.86508e-05
9.24247e-05
8.57569e-05
8.40029e-05
8.24016e-05
8.08765e-05
7.93714e-05
7.78528e-05
7.63084e-05
7.47406e-05
7.31595e-05
7.1579e-05
7.00139e-05
6.84794e-05
6.69902e-05
6.55609e-05
6.42052e-05
6.29367e-05
6.17683e-05
6.07124e-05
5.97806e-05
5.89834e-05
5.83303e-05
5.78293e-05
5.74868e-05
5.73071e-05
5.72926e-05
5.74433e-05
5.77572e-05
5.823e-05
5.88558e-05
5.96265e-05
6.05329e-05
6.15644e-05
6.27095e-05
6.39558e-05
6.52904e-05
6.66997e-05
6.81698e-05
6.96862e-05
7.12342e-05
7.27986e-05
7.43647e-05
7.59187e-05
7.74508e-05
7.89592e-05
8.04566e-05
8.19769e-05
8.35769e-05
8.53302e-05
9.22257e-05
9.6039e-05
8.96153e-05
8.779e-05
8.61053e-05
8.451e-05
8.29621e-05
8.14305e-05
7.98981e-05
7.83602e-05
7.68207e-05
7.52884e-05
7.37752e-05
7.22941e-05
7.08583e-05
6.94814e-05
6.81765e-05
6.69564e-05
6.58336e-05
6.48197e-05
6.39257e-05
6.31615e-05
6.2536e-05
6.20565e-05
6.17291e-05
6.15576e-05
6.15444e-05
6.16894e-05
6.19907e-05
6.24444e-05
6.30449e-05
6.37847e-05
6.46552e-05
6.56465e-05
6.67476e-05
6.7947e-05
6.92321e-05
7.05902e-05
7.20081e-05
7.34724e-05
7.49696e-05
7.64868e-05
7.80125e-05
7.95378e-05
8.10592e-05
8.25817e-05
8.41226e-05
8.57134e-05
8.73965e-05
8.922e-05
9.58669e-05
9.96994e-05
9.35109e-05
9.16424e-05
8.99033e-05
8.82568e-05
8.66716e-05
8.51222e-05
8.35912e-05
8.2071e-05
8.05613e-05
7.90671e-05
7.75973e-05
7.61625e-05
7.47745e-05
7.34453e-05
7.21873e-05
7.10124e-05
6.99323e-05
6.89579e-05
6.80994e-05
6.73662e-05
6.67665e-05
6.63071e-05
6.59937e-05
6.58299e-05
6.58178e-05
6.59576e-05
6.62472e-05
6.66831e-05
6.726e-05
6.79709e-05
6.88078e-05
6.97614e-05
7.08216e-05
7.19773e-05
7.3217e-05
7.45288e-05
7.59003e-05
7.73195e-05
7.87745e-05
8.02549e-05
8.1752e-05
8.32609e-05
8.4782e-05
8.63233e-05
8.79022e-05
8.95445e-05
9.12817e-05
9.31476e-05
9.95552e-05
0.000103389
9.74193e-05
9.55236e-05
9.37491e-05
9.20676e-05
9.04545e-05
8.88894e-05
8.73567e-05
8.5848e-05
8.43608e-05
8.28975e-05
8.14644e-05
8.007e-05
7.87244e-05
7.74385e-05
7.62234e-05
7.50902e-05
7.40497e-05
7.31121e-05
7.22868e-05
7.15824e-05
7.10066e-05
7.05658e-05
7.02653e-05
7.01086e-05
7.00977e-05
7.02326e-05
7.05115e-05
7.0931e-05
7.14861e-05
7.21702e-05
7.29758e-05
7.38944e-05
7.49166e-05
7.60323e-05
7.72307e-05
7.85006e-05
7.98311e-05
8.12112e-05
8.2631e-05
8.40819e-05
8.55578e-05
8.70564e-05
8.85804e-05
9.01383e-05
9.17459e-05
9.34235e-05
9.51961e-05
9.70892e-05
0.000103273
0.000107097
0.000101322
9.94073e-05
9.76095e-05
9.59064e-05
9.42746e-05
9.2699e-05
9.11655e-05
8.96663e-05
8.81978e-05
8.67608e-05
8.53595e-05
8.40008e-05
8.26933e-05
8.14467e-05
8.02708e-05
7.9176e-05
7.81721e-05
7.72687e-05
7.64743e-05
7.57967e-05
7.52429e-05
7.48192e-05
7.45304e-05
7.43802e-05
7.43703e-05
7.45009e-05
7.47701e-05
7.51747e-05
7.57096e-05
7.63689e-05
7.71455e-05
7.80317e-05
7.9019e-05
8.00979e-05
8.12586e-05
8.24909e-05
8.37847e-05
8.51306e-05
8.65199e-05
8.79459e-05
8.94044e-05
9.08949e-05
9.24209e-05
9.39904e-05
9.56174e-05
9.73174e-05
9.91141e-05
0.000101026
0.000107012
0.000110831
0.000105199
0.000103273
0.000101458
9.97461e-05
9.81034e-05
9.65236e-05
9.4992e-05
9.35029e-05
9.2052e-05
9.06388e-05
8.92664e-05
8.79399e-05
8.6667e-05
8.54562e-05
8.43164e-05
8.32569e-05
8.2287e-05
8.14154e-05
8.06498e-05
7.9997e-05
7.94636e-05
7.90553e-05
7.87771e-05
7.86327e-05
7.86238e-05
7.87505e-05
7.90111e-05
7.94021e-05
7.99186e-05
8.05549e-05
8.13045e-05
8.21606e-05
8.31156e-05
8.41608e-05
8.52871e-05
8.6485e-05
8.77458e-05
8.90609e-05
9.04228e-05
9.18264e-05
9.32688e-05
9.47505e-05
9.6276e-05
9.78508e-05
9.94898e-05
0.0001012
0.000103016
0.000104938
0.000110775
0.000114632
0.000109025
0.000107105
0.00010527
0.000103567
0.000101918
0.000100341
9.88146e-05
9.73376e-05
9.59048e-05
9.45147e-05
9.31696e-05
9.18729e-05
9.06319e-05
8.94544e-05
8.83478e-05
8.73209e-05
8.63826e-05
8.55409e-05
8.48025e-05
8.41729e-05
8.3658e-05
8.32636e-05
8.29948e-05
8.28553e-05
8.28473e-05
8.29708e-05
8.32239e-05
8.36029e-05
8.41027e-05
8.47175e-05
8.54416e-05
8.62694e-05
8.71944e-05
8.82087e-05
8.93032e-05
9.04695e-05
9.16999e-05
9.29868e-05
9.43227e-05
9.57047e-05
9.71304e-05
9.86015e-05
0.000100124
0.000101696
0.000103343
0.000105046
0.000106886
0.000108798
0.000114599
0.000120828
0.000113043
0.000110945
0.000109017
0.00010736
0.000105696
0.000104136
0.000102615
0.000101153
9.97406e-05
9.83734e-05
9.70558e-05
9.57871e-05
9.45757e-05
9.34296e-05
9.23543e-05
9.13572e-05
9.04482e-05
8.96351e-05
8.89229e-05
8.83153e-05
8.78173e-05
8.74349e-05
8.71739e-05
8.70387e-05
8.70315e-05
8.71525e-05
8.73994e-05
8.7768e-05
8.82526e-05
8.88472e-05
8.95467e-05
9.03475e-05
9.12447e-05
9.22306e-05
9.32955e-05
9.44318e-05
9.56341e-05
9.68946e-05
9.82045e-05
9.95648e-05
0.000100972
0.000102429
0.000103948
0.000105505
0.000107169
0.000108828
0.000110769
0.000112832
0.000120702
0.000141104
0.000122561
0.000115804
0.000112754
0.000111154
0.000109414
0.000107899
0.000106377
0.000104934
0.000103546
0.000102201
0.000100914
9.9671e-05
9.84868e-05
9.73718e-05
9.63262e-05
9.53559e-05
9.4474e-05
9.36888e-05
9.30028e-05
9.24165e-05
9.19335e-05
9.15609e-05
9.13061e-05
9.11742e-05
9.11678e-05
9.1287e-05
9.15293e-05
9.18896e-05
9.23608e-05
9.29357e-05
9.36106e-05
9.43849e-05
9.52564e-05
9.6217e-05
9.72538e-05
9.83605e-05
9.9537e-05
0.000100773
0.000102054
0.000103393
0.000104778
0.000106218
0.000107741
0.000109251
0.000110992
0.000112584
0.000115578
0.000122211
0.000140645
0.000200722
0.000155092
0.000131996
0.000120961
0.000115593
0.000113078
0.000111645
0.000110083
0.000108666
0.000107313
0.000105983
0.000104736
0.000103515
0.000102354
0.000101272
0.000100256
9.93081e-05
9.84504e-05
9.76935e-05
9.70354e-05
9.64705e-05
9.60001e-05
9.56346e-05
9.53838e-05
9.52541e-05
9.52484e-05
9.53667e-05
9.56064e-05
9.59611e-05
9.64213e-05
9.69765e-05
9.76248e-05
9.83721e-05
9.92206e-05
0.00010016
0.000101169
0.000102244
0.000103399
0.000104615
0.000105857
0.000107181
0.000108535
0.000109948
0.00011152
0.000112931
0.000115408
0.000120686
0.000131482
0.000154273
0.000199665
0.0003358
0.000241765
0.000185605
0.000150984
0.00013081
0.000121208
0.000116267
0.000113782
0.00011234
0.000111043
0.0001097
0.000108521
0.000107312
0.000106164
0.000105123
0.00010414
0.000103205
0.000102367
0.000101641
0.000101015
0.000100473
0.000100012
9.96492e-05
9.93999e-05
9.92713e-05
9.92662e-05
9.93847e-05
9.9624e-05
9.99772e-05
0.00010043
0.000100964
0.000101581
0.000102299
0.000103129
0.000104056
0.000105035
0.00010607
0.000107213
0.000108421
0.000109592
0.00011093
0.000112234
0.000113659
0.000116105
0.000120976
0.000130422
0.000150313
0.000184534
0.000240196
0.000333911
0.000591077
0.00042435
0.00031344
0.000235288
0.000183677
0.000151706
0.00013262
0.000122964
0.000117735
0.000114903
0.000113314
0.000112285
0.000111059
0.000109897
0.000108919
0.00010798
0.000107039
0.000106212
0.000105522
0.00010494
0.000104423
0.000103964
0.000103598
0.000103348
0.000103219
0.000103215
0.000103334
0.000103576
0.000103933
0.000104386
0.000104896
0.000105471
0.000106154
0.000106972
0.000107907
0.000108845
0.000109817
0.000110973
0.000112207
0.000113223
0.000114795
0.000117592
0.00012275
0.000132235
0.000151124
0.000182774
0.000233921
0.000311556
0.000421896
0.000588354
0.00100025
0.000745906
0.000560435
0.000417261
0.000312383
0.000238249
0.000188726
0.000157237
0.000137606
0.000126439
0.000120362
0.000116821
0.000114798
0.000113516
0.000112657
0.000111793
0.000110798
0.00010997
0.000109326
0.000108808
0.000108325
0.000107853
0.000107475
0.000107221
0.000107092
0.000107088
0.000107208
0.000107455
0.000107825
0.000108292
0.000108772
0.000109283
0.00010992
0.000110739
0.000111729
0.000112599
0.000113449
0.000114717
0.000116717
0.000120224
0.00012624
0.00013725
0.000156693
0.000187893
0.000237035
0.000310675
0.00041501
0.000557651
0.00074276
0.000997238
0.0015533
0.00122219
0.000961494
0.000741324
0.000563612
0.000426186
0.000324763
0.00025199
0.000201998
0.000168784
0.000147086
0.000133074
0.000125319
0.000120619
0.000117572
0.000115675
0.000114461
0.000113615
0.000113038
0.000112626
0.000112192
0.000111672
0.000111272
0.000111012
0.000110884
0.00011088
0.000111001
0.000111254
0.000111646
0.000112162
0.000112598
0.000113004
0.000113573
0.000114408
0.000115613
0.000117494
0.000120514
0.000125172
0.00013282
0.000146726
0.000168264
0.000201216
0.000250875
0.000323243
0.000424145
0.000561018
0.000738296
0.000958259
0.00121911
0.00155088
0.00150681
0.0012229
0.000972827
0.000761187
0.000589375
0.000455034
0.000354052
0.000279915
0.00022683
0.000189721
0.000164592
0.000147434
0.000135622
0.000128239
0.000123914
0.000120885
0.000118673
0.000117103
0.000116066
0.000115406
0.000114976
0.000114715
0.000114591
0.000114587
0.000114705
0.000114959
0.000115382
0.000116036
0.000117064
0.000118622
0.00012082
0.00012383
0.000128125
0.000135423
0.000147158
0.000164208
0.000189164
0.000226058
0.000278852
0.000352645
0.000453191
0.000587056
0.000758382
0.000969711
0.00121977
0.00150403
0.00181593
0.00219206
0.00182406
0.00152742
0.0012563
0.00101655
0.000812108
0.000644045
0.000510164
0.000406701
0.000328679
0.000270284
0.000227606
0.000196713
0.000174749
0.00015926
0.000147977
0.000139605
0.000133523
0.000129607
0.000127445
0.000126069
0.000125223
0.000124815
0.00012481
0.000125209
0.000126044
0.000127408
0.000129551
0.000133422
0.000139468
0.000147799
0.000159032
0.000174438
0.000196269
0.000227008
0.000269486
0.00032765
0.000405362
0.000508454
0.000641946
0.000809617
0.00101372
0.00125332
0.00152462
0.00182174
0.00213737
0.00246484
0.00285038
0.00186835
0.0015876
0.00133006
0.00110072
0.000902703
0.000736892
0.00060174
0.000493697
0.000409387
0.000344609
0.000294964
0.000257177
0.000228792
0.000207477
0.000191631
0.000180277
0.000172511
0.000167283
0.00016402
0.000162442
0.00016243
0.000163983
0.000167218
0.000172412
0.000180128
0.000191409
0.000207178
0.000228402
0.000256673
0.000294308
0.00034378
0.000408334
0.000492379
0.000600142
0.000734978
0.000900468
0.00109821
0.0013274
0.00158498
0.00186604
0.00216424
0.00247346
0.00278845
0.00310527
0.00347903
0.00223534
0.00195739
0.00169479
0.00145261
0.00123494
0.00104416
0.000880873
0.000744351
0.000632422
0.00054182
0.000469498
0.000412737
0.000368681
0.000334857
0.000309189
0.0002902
0.000276992
0.000268651
0.000264602
0.000264575
0.000268568
0.000276846
0.00028998
0.000308876
0.000334443
0.00036814
0.000412043
0.000468625
0.000540743
0.000631131
0.000742814
0.000879095
0.00104217
0.00123276
0.0014503
0.00169248
0.00195526
0.00223362
0.0025225
0.0028173
0.00311435
0.00341146
0.00370717
0.00406247
0.00261727
0.00235234
0.00209739
0.0018563
0.00163279
0.00142999
0.00124977
0.00109274
0.000958423
0.000845626
0.00075262
0.000677234
0.000617135
0.00057007
0.000534333
0.000508805
0.000492416
0.000484393
0.000484345
0.000492272
0.000508556
0.000533965
0.000569567
0.000616484
0.000676409
0.000751596
0.000844399
0.000956999
0.00109113
0.00124797
0.00142808
0.00163084
0.00185436
0.00209558
0.00235081
0.00261616
0.00288792
0.00316299
0.00343939
0.00371569
0.00399119
0.00426538
0.00460277
0.00275926
0.00252143
0.00229346
0.00207827
0.00187842
0.00169602
0.00153259
0.00138903
0.00126523
0.00116056
0.00107397
0.00100412
0.000949817
0.000910149
0.000884246
0.000871441
0.000871376
0.000884049
0.000909814
0.000949335
0.00100348
0.00107316
0.00115956
0.00126402
0.00138767
0.00153111
0.00169444
0.00187681
0.0020767
0.00229202
0.00252019
0.00275833
0.00300361
0.00325371
0.00350684
0.00376163
0.00401731
0.00427336
0.00452942
0.0047851
0.00510705
0.00316724
0.00295201
0.002745
0.00254818
0.00236363
0.00219323
0.00203857
0.00190076
0.00178046
0.00167795
0.00159315
0.00152587
0.00147585
0.00144272
0.0014262
0.00142614
0.00144251
0.0014755
0.00152538
0.00159252
0.00167715
0.00177951
0.00189969
0.00203743
0.00219207
0.0023625
0.00254715
0.00274413
0.00295137
0.00316689
0.00338896
0.00361598
0.00384676
0.00408042
0.0043163
0.00455392
0.00479289
0.00503279
0.00527313
0.00558196
0.00302235
0.00286021
0.00271052
0.00257476
0.00245409
0.0023494
0.00226138
0.00219054
0.00213719
0.00210152
0.00208362
0.00208357
0.00210135
0.00213693
0.00219019
0.00226093
0.00234885
0.00245348
0.00257414
0.00270991
0.00285966
0.00302192
0.00319538
0.00337858
0.00357006
0.00376853
0.00397292
0.00418229
0.00439588
0.00461307
0.00483332
0.00505614
0.00528104
0.00550752
0.00573503
0.00603247
0.003111
0.00301253
0.00292918
0.00286163
0.00281039
0.00277598
0.00275868
0.00275866
0.00277591
0.0028103
0.00286151
0.00292905
0.0030124
0.00311091
0.00322369
0.00334978
0.00348808
0.00363743
0.00379677
0.00396504
0.00414122
0.00432441
0.00451377
0.00470859
0.00490821
0.00511205
0.00531952
0.00553009
0.00574322
0.00595835
0.00617491
0.00646225
0.00355431
0.00349228
0.00344519
0.00341355
0.00339766
0.00339768
0.00341362
0.00344531
0.00349245
0.00355455
0.00363109
0.00372144
0.00382483
0.00394044
0.00406738
0.00420477
0.00435173
0.00450745
0.00467111
0.00484196
0.00501927
0.00520236
0.00539061
0.00558342
0.0057802
0.00598039
0.00618344
0.00638879
0.00659585
0.00687407
0.00398614
0.0039862
0.00400081
0.00402987
0.0040731
0.00413014
0.00420049
0.00428364
0.00437897
0.00448582
0.00460347
0.0047312
0.00486829
0.00501401
0.00516766
0.00532856
0.00549604
0.00566945
0.00584818
0.00603163
0.00621924
0.00641045
0.00660473
0.00680153
0.00700028
0.00727019
0.00466282
0.00472824
0.00480567
0.00489462
0.00499453
0.00510482
0.00522484
0.00535399
0.00549161
0.00563706
0.00578968
0.00594888
0.00611406
0.00628461
0.00645996
0.00663958
0.00682294
0.00700951
0.00719878
0.00739021
0.00765255
0.00537949
0.00547382
0.00557811
0.0056918
0.00581437
0.00594519
0.00608368
0.00622923
0.00638129
0.00653932
0.00670272
0.00687097
0.00704356
0.00722001
0.0073998
0.00758241
0.00776741
0.00802284
0.00602805
0.00613639
0.00625332
0.00637829
0.00651075
0.00665015
0.00679596
0.0069477
0.0071048
0.0072668
0.00743321
0.00760355
0.00777734
0.0079541
0.00813343
0.00838261
0.00645804
0.00656173
0.00667374
0.00679359
0.00692077
0.00705476
0.00719508
0.00734126
0.00749282
0.00764932
0.00781027
0.00797522
0.00814373
0.00831537
0.00848975
0.00873323
0.00687068
0.00697028
0.00707795
0.00719329
0.00731582
0.00744504
0.00758051
0.00772179
0.0078685
0.00802016
0.00817629
0.00833651
0.00850041
0.0086676
0.00883768
0.00907602
0.0075793
0.00769771
0.00782272
0.00795393
0.00809094
0.00823339
0.00838079
0.00853271
0.00868881
0.00884872
0.00901206
0.00917846
0.0094122
0.0085889
0.00873259
0.00888087
0.00903343
0.00918992
0.00934997
0.00951321
0.00974288
0.00937152
0.00952512
0.00968237
0.009843
0.010069
3.85919e-05
3.82657e-05
3.80878e-05
3.80756e-05
3.82325e-05
3.85573e-05
3.90454e-05
3.96898e-05
4.04813e-05
4.1409e-05
4.24608e-05
4.36243e-05
4.48864e-05
4.62344e-05
4.76553e-05
4.91366e-05
5.06656e-05
5.22299e-05
5.38167e-05
5.54127e-05
5.70036e-05
5.85734e-05
6.01019e-05
6.15609e-05
6.2902e-05
6.40218e-05
6.47156e-05
6.73865e-05
4.24024e-05
4.20357e-05
4.1838e-05
4.18264e-05
4.20038e-05
4.23689e-05
4.29168e-05
4.36401e-05
4.45289e-05
4.55719e-05
4.67566e-05
4.807e-05
4.94988e-05
5.103e-05
5.26505e-05
5.43477e-05
5.61091e-05
5.79221e-05
5.97738e-05
6.165e-05
6.35343e-05
6.5405e-05
6.72312e-05
6.89627e-05
7.0514e-05
7.17425e-05
7.24653e-05
7.90868e-05
4.63392e-05
4.59853e-05
4.57987e-05
4.57903e-05
4.59633e-05
4.63166e-05
4.68458e-05
4.7544e-05
4.84021e-05
4.94092e-05
5.05534e-05
5.1822e-05
5.32018e-05
5.46796e-05
5.62419e-05
5.7875e-05
5.95652e-05
6.12981e-05
6.30583e-05
6.48282e-05
6.65867e-05
6.83068e-05
6.99522e-05
7.14746e-05
7.28183e-05
7.39499e-05
7.49663e-05
8.25502e-05
5.03873e-05
5.00486e-05
4.98715e-05
4.98654e-05
5.00332e-05
5.03739e-05
5.08834e-05
5.15554e-05
5.23811e-05
5.33505e-05
5.44521e-05
5.56738e-05
5.70025e-05
5.8425e-05
5.99275e-05
6.14959e-05
6.31156e-05
6.4771e-05
6.64455e-05
6.81201e-05
6.97733e-05
7.13799e-05
7.29123e-05
7.43463e-05
7.56777e-05
7.69569e-05
7.83396e-05
8.59657e-05
5.45209e-05
5.41962e-05
5.40276e-05
5.4023e-05
5.41853e-05
5.45133e-05
5.50032e-05
5.56488e-05
5.64422e-05
5.73738e-05
5.84327e-05
5.96072e-05
6.08849e-05
6.22525e-05
6.36963e-05
6.52021e-05
6.6755e-05
6.83394e-05
6.99387e-05
7.15351e-05
7.31101e-05
7.46458e-05
7.61287e-05
7.75583e-05
7.8961e-05
8.04053e-05
8.20046e-05
8.94255e-05
5.87148e-05
5.84032e-05
5.82421e-05
5.82388e-05
5.83955e-05
5.87112e-05
5.9182e-05
5.98022e-05
6.05642e-05
6.1459e-05
6.24764e-05
6.36054e-05
6.48339e-05
6.61491e-05
6.75376e-05
6.89855e-05
7.04783e-05
7.2001e-05
7.35384e-05
7.50756e-05
7.6599e-05
7.80986e-05
7.95729e-05
8.10349e-05
8.25194e-05
8.40842e-05
8.58019e-05
9.29616e-05
6.29488e-05
6.2649e-05
6.24945e-05
6.24921e-05
6.26436e-05
6.29477e-05
6.34006e-05
6.39967e-05
6.47288e-05
6.55887e-05
6.65668e-05
6.76528e-05
6.88352e-05
7.01019e-05
7.14399e-05
7.28358e-05
7.42762e-05
7.57472e-05
7.72357e-05
7.87302e-05
8.02218e-05
8.17071e-05
8.31914e-05
8.46926e-05
8.6243e-05
8.7886e-05
8.96695e-05
9.65638e-05
6.72044e-05
6.69146e-05
6.67659e-05
6.67642e-05
6.6911e-05
6.72046e-05
6.76411e-05
6.82148e-05
6.89189e-05
6.97459e-05
7.06873e-05
7.17334e-05
7.28736e-05
7.40962e-05
7.53889e-05
7.67394e-05
7.81348e-05
7.95632e-05
8.10136e-05
8.24773e-05
8.39494e-05
8.54307e-05
8.69294e-05
8.84636e-05
9.00601e-05
9.17518e-05
9.35727e-05
0.000100212
7.14637e-05
7.11822e-05
7.10382e-05
7.10372e-05
7.11802e-05
7.14648e-05
7.18867e-05
7.24399e-05
7.31179e-05
7.39142e-05
7.48217e-05
7.58313e-05
7.69332e-05
7.81163e-05
7.93691e-05
8.06799e-05
8.20373e-05
8.34305e-05
8.48503e-05
8.62907e-05
8.77497e-05
8.923e-05
9.07405e-05
9.22976e-05
9.39233e-05
9.56442e-05
9.74868e-05
0.000103888
7.57095e-05
7.54343e-05
7.52944e-05
7.52944e-05
7.54346e-05
7.57121e-05
7.61216e-05
7.66565e-05
7.73097e-05
7.80774e-05
7.89537e-05
7.99304e-05
8.0998e-05
8.2146e-05
8.33637e-05
8.46402e-05
8.59652e-05
8.73286e-05
8.87228e-05
9.0144e-05
9.15921e-05
9.30706e-05
9.45873e-05
9.61573e-05
9.77982e-05
9.9536e-05
0.000101392
0.00010758
7.99248e-05
7.96541e-05
7.95178e-05
7.95196e-05
7.96585e-05
7.99309e-05
8.03311e-05
8.08502e-05
8.14787e-05
8.22196e-05
8.30676e-05
8.40148e-05
8.50519e-05
8.61688e-05
8.73556e-05
8.86025e-05
8.98996e-05
9.12373e-05
9.26083e-05
9.40121e-05
9.54496e-05
9.69239e-05
9.84398e-05
0.000100014
0.000101657
0.000103405
0.000105267
0.000111289
8.40919e-05
8.38245e-05
8.36926e-05
8.36972e-05
8.38362e-05
8.41062e-05
8.45008e-05
8.50084e-05
8.56082e-05
8.6325e-05
8.7148e-05
8.80691e-05
8.90791e-05
9.01683e-05
9.13277e-05
9.25489e-05
9.38224e-05
9.51373e-05
9.6485e-05
9.78719e-05
9.92985e-05
0.000100767
0.000102273
0.000103845
0.000105472
0.000107234
0.000109083
0.000115042
8.8142e-05
8.7889e-05
8.77648e-05
8.77739e-05
8.79143e-05
8.81837e-05
8.85778e-05
8.90841e-05
8.96878e-05
9.03782e-05
9.118e-05
9.20783e-05
9.30645e-05
9.41286e-05
9.5263e-05
9.6462e-05
9.77162e-05
9.90107e-05
0.000100331
0.000101703
0.000103118
0.000104581
0.000106062
0.000107639
0.000109216
0.000111064
0.000113102
0.000121235
9.20195e-05
9.17814e-05
9.16731e-05
9.16887e-05
9.1831e-05
9.21e-05
9.24972e-05
9.30117e-05
9.36326e-05
9.43273e-05
9.51102e-05
9.59885e-05
9.69538e-05
9.79941e-05
9.91038e-05
0.000100284
0.000101524
0.000102804
0.000104133
0.000105485
0.000106891
0.000108356
0.000109777
0.000111417
0.000112949
0.000115965
0.000122691
0.000141621
9.742e-05
9.81139e-05
9.8881e-05
9.97422e-05
0.000100691
0.000101707
0.000102789
0.000103953
0.000105187
0.000106453
0.000107806
0.000109158
0.000110553
0.000112067
0.000113439
0.000115914
0.000121272
0.00013229
0.000155318
0.000201327
0.000111337
0.000112666
0.000114109
0.000116614
0.000121604
0.000131291
0.000151468
0.000185999
0.000241988
0.000336371
0.000152067
0.000184105
0.000235653
0.000313645
0.000424367
0.000591492
0.00055999
0.000745436
0.0010004
0.0109092
0.0112323
0.011555
0.00420235
0.00472904
0.00522299
0.00569028
0.00613517
0.00656076
0.00696954
0.00736359
0.00774476
0.00811466
0.00847473
0.00882632
0.0091707
0.00950909
0.0098426
0.0101722
0.010499
0.0108237
0.0111472
0.0114702
0.00218923
0.00285652
0.00348501
0.00406458
0.00460102
0.00510273
0.00557639
0.00602668
0.00645698
0.00686989
0.00726757
0.00765192
0.00802462
0.00838713
0.00874086
0.00908708
0.00942701
0.00976176
0.0100924
0.0104199
0.0107452
0.0110692
0.0113925
0.00203432
0.00270639
0.0033463
0.00393729
0.0044831
0.00499225
0.00547194
0.00592732
0.00636202
0.00677879
0.00717985
0.00756717
0.00794246
0.00830727
0.00866298
0.00901093
0.00935233
0.00968832
0.01002
0.0103483
0.0106742
0.0109985
0.011322
0.00189632
0.0025703
0.00321989
0.0038214
0.00437601
0.00489214
0.00537749
0.00583759
0.00627633
0.00669663
0.0071008
0.00749085
0.00786856
0.00823548
0.00859304
0.00894257
0.0092853
0.0096224
0.009955
0.0102841
0.0106106
0.0109353
0.011259
0.00177589
0.00244938
0.00310687
0.00371779
0.00428049
0.00480303
0.00529353
0.00575792
0.00620035
0.00662386
0.00703084
0.00742335
0.00780319
0.00817198
0.00853117
0.00888214
0.00922614
0.00956431
0.00989778
0.0102275
0.0105545
0.0108796
0.0112036
5.9656e-05
6.37451e-05
6.7917e-05
7.21196e-05
7.63229e-05
8.0514e-05
8.46816e-05
8.88162e-05
9.29095e-05
9.69546e-05
0.000100947
0.000104883
0.000108763
0.000112594
0.000117039
0.000133299
0.000191036
0.000333539
0.000614681
0.00107024
0.0016733
0.00234458
0.00300824
0.00362731
0.00419721
0.00472549
0.00522057
0.00568875
0.00613442
0.00656076
0.00697025
0.00736496
0.0077467
0.00811713
0.00847777
0.00882999
0.00917507
0.00951417
0.00984837
0.0101787
0.0105062
0.0108316
0.0111559
5.88149e-05
6.29564e-05
6.71772e-05
7.14177e-05
7.56518e-05
7.98694e-05
8.40606e-05
8.82167e-05
9.23303e-05
9.63955e-05
0.000100408
0.000104367
0.000108276
0.000112146
0.000116016
0.00012946
0.000179757
0.000307912
0.000567643
0.00100038
0.00158848
0.0022565
0.00292474
0.00355065
0.00412676
0.00466001
0.00515905
0.00563049
0.00607893
0.00650767
0.00691928
0.00731586
0.00769925
0.00807112
0.00843299
0.00878627
0.00913225
0.0094721
0.00980694
0.0101378
0.0104657
0.0107915
0.0111159
5.81306e-05
6.23158e-05
6.65728e-05
7.08416e-05
7.50998e-05
7.93385e-05
8.35484e-05
8.77211e-05
9.18491e-05
9.5926e-05
9.99466e-05
0.000103906
0.000107801
0.000111624
0.00011536
0.000127316
0.000172032
0.000288985
0.000531969
0.000946118
0.00152119
0.00218559
0.00285705
0.00348844
0.00406968
0.00460704
0.00510934
0.00558345
0.00603416
0.00646485
0.00687816
0.00727625
0.00766098
0.00803405
0.00839698
0.00875116
0.00909787
0.00943834
0.00977374
0.0101051
0.0104333
0.0107593
0.0110839
3.77764e-05
4.15582e-05
4.54687e-05
4.94693e-05
5.3516e-05
5.76319e-05
6.18517e-05
6.61265e-05
7.04076e-05
7.46805e-05
7.89334e-05
8.31564e-05
8.73404e-05
9.14775e-05
9.55608e-05
9.95837e-05
0.00010354
0.000107423
0.000111225
0.000114933
0.000125947
0.000166824
0.000275822
0.000506502
0.000906491
0.00147116
0.00213218
0.00280571
0.00344122
0.0040264
0.00456696
0.00507177
0.00554792
0.00600034
0.00643252
0.00684712
0.00724634
0.0076321
0.00800609
0.00836982
0.00872471
0.00907205
0.00941304
0.00974882
0.0100804
0.0104089
0.0107351
0.0110598
3.74155e-05
4.11519e-05
4.50666e-05
4.90818e-05
5.31628e-05
5.7321e-05
6.15579e-05
6.58329e-05
7.01194e-05
7.44e-05
7.86611e-05
8.28917e-05
8.70823e-05
9.12247e-05
9.53113e-05
9.93351e-05
0.00010329
0.000107169
0.000110966
0.000114674
0.000125104
0.000163573
0.000267512
0.000490157
0.000880624
0.00143803
0.00209646
0.00277121
0.00340945
0.00399732
0.00454004
0.00504657
0.00552411
0.00597769
0.00641087
0.00682635
0.00722635
0.00761282
0.00798742
0.00835169
0.00870704
0.00905477
0.0093961
0.00973215
0.010064
0.0103926
0.0107189
0.0110437
3.72116e-05
4.09228e-05
4.48469e-05
4.88777e-05
5.29889e-05
5.71713e-05
6.14131e-05
6.56891e-05
6.99773e-05
7.42603e-05
7.85244e-05
8.27581e-05
8.69515e-05
9.1096e-05
9.5184e-05
9.92083e-05
0.000103163
0.000107041
0.000110839
0.000114551
0.000124697
0.000162
0.000263479
0.000482159
0.000867843
0.00142152
0.00207856
0.00275387
0.00339348
0.00398271
0.00452654
0.00503394
0.00551217
0.00596633
0.00640001
0.00681595
0.00721638
0.0076032
0.0079781
0.0083426
0.00869816
0.00904609
0.0093876
0.0097238
0.0100557
0.0103844
0.0107108
0.0110357
3.71793e-05
4.08892e-05
4.48182e-05
4.88582e-05
5.29835e-05
5.71764e-05
6.14204e-05
6.56949e-05
6.99808e-05
7.42619e-05
7.85245e-05
8.27572e-05
8.69499e-05
9.1094e-05
9.51816e-05
9.92057e-05
0.00010316
0.000107038
0.000110836
0.000114548
0.000124693
0.000161989
0.000263453
0.000482115
0.000867784
0.00142146
0.00207851
0.00275384
0.00339347
0.00398271
0.00452655
0.00503394
0.00551216
0.00596633
0.00640003
0.00681599
0.00721643
0.00760325
0.00797814
0.00834264
0.00869819
0.00904612
0.00938762
0.0097238
0.0100557
0.0103844
0.0107108
0.0110357
3.73231e-05
4.10538e-05
4.49812e-05
4.90217e-05
5.31489e-05
5.73417e-05
6.15817e-05
6.585e-05
7.01292e-05
7.44037e-05
7.86606e-05
8.28883e-05
8.7077e-05
9.12182e-05
9.53039e-05
9.93273e-05
0.000103282
0.000107161
0.000110958
0.000114666
0.000125091
0.000163537
0.000267432
0.000490022
0.000880445
0.00143785
0.00209632
0.00277113
0.00340942
0.00399732
0.00454006
0.00504659
0.00552412
0.00597769
0.00641088
0.00682641
0.00722648
0.00761297
0.00798755
0.00835178
0.0087071
0.00905482
0.00939615
0.0097322
0.010064
0.0103926
0.0107189
0.0110437
3.76419e-05
4.14138e-05
4.53324e-05
4.93645e-05
5.34836e-05
5.76672e-05
6.18963e-05
6.61528e-05
7.04202e-05
7.46836e-05
7.89303e-05
8.31491e-05
8.73304e-05
9.14658e-05
9.5548e-05
9.95703e-05
0.000103526
0.000107409
0.000111211
0.000114919
0.000125924
0.00016676
0.000275679
0.000506263
0.000906183
0.00147085
0.00213195
0.00280558
0.00344116
0.00402639
0.00456697
0.00507179
0.00554794
0.00600037
0.00643257
0.00684721
0.00724649
0.00763229
0.00800629
0.00837002
0.0087249
0.00907224
0.00941323
0.00974897
0.0100805
0.0104089
0.0107351
0.0110598
3.81306e-05
4.19635e-05
4.58658e-05
4.98813e-05
5.39835e-05
5.81498e-05
6.23612e-05
6.66e-05
7.08503e-05
7.50977e-05
7.93298e-05
8.35355e-05
8.77054e-05
9.18317e-05
9.59075e-05
9.99274e-05
0.000103887
0.000107781
0.000111604
0.000115339
0.00012728
0.000171928
0.000288759
0.000531605
0.000945668
0.00152076
0.00218529
0.00285689
0.00348837
0.00406967
0.00460707
0.00510939
0.0055835
0.00603421
0.00646492
0.00687827
0.0072764
0.00766117
0.00803428
0.00839726
0.00875147
0.0090982
0.00943869
0.00977404
0.0101053
0.0104334
0.0107594
0.011084
3.87813e-05
4.26942e-05
4.65733e-05
5.05645e-05
5.46421e-05
5.87839e-05
6.29711e-05
6.71865e-05
7.14146e-05
7.56413e-05
7.98541e-05
8.40422e-05
8.81962e-05
9.23084e-05
9.63727e-05
0.000100385
0.000104343
0.000108252
0.000112121
0.000115988
0.000129403
0.000179597
0.000307578
0.000567127
0.000999777