/*--------------------------------*- C++ -*----------------------------------*\
  =========                 |
  \\      /  F ield         | OpenFOAM: The Open Source CFD Toolbox
   \\    /   O peration     | Website:  https://openfoam.org
    \\  /    A nd           | Version:  7
     \\/     M anipulation  |
\*---------------------------------------------------------------------------*/
FoamFile
{
    version     2.0;
    format      ascii;
    class       surfaceScalarField;
    location    "8000";
    object      phi;
}
// * * * * * * * * * * * * * * * * * * * * * * * * * * * * * * * * * * * * * //

dimensions      [0 3 -1 0 0 0 0];

internalField   nonuniform List<scalar> 
9540
(
-3.74876e-23
-4.59034e-25
1.18427e-23
-6.17494e-24
-3.71164e-23
5.10953e-24
2.58698e-23
-1.02596e-23
2.63111e-23
-2.29928e-24
-3.52599e-23
-2.54258e-23
-1.70027e-24
-2.18762e-23
1.12357e-23
-1.79574e-23
-5.70504e-24
1.81391e-24
2.4322e-23
4.13716e-24
-2.41699e-23
-1.12081e-23
2.50345e-24
-2.46042e-23
6.75221e-24
-1.42673e-23
-1.43705e-23
-1.21128e-23
3.07124e-23
2.43296e-23
4.61474e-23
4.58317e-23
-2.168e-23
1.23277e-23
-1.38894e-25
-2.84161e-23
2.00048e-23
-3.56252e-24
2.16226e-23
-1.00699e-23
5.0549e-23
3.53752e-23
7.4567e-23
3.89285e-23
5.18287e-23
1.43073e-22
-2.75715e-23
-7.1544e-23
-4.05321e-24
-2.28548e-23
1.93439e-23
-6.5344e-24
6.64408e-23
4.26433e-24
3.63241e-23
2.0901e-23
7.01896e-23
6.07356e-23
8.18439e-23
3.50243e-23
1.10603e-22
3.38441e-23
1.33249e-22
6.10798e-23
-1.3222e-23
-1.19193e-23
2.01925e-23
-7.25924e-24
1.18794e-23
-1.77083e-23
8.39087e-23
8.55446e-24
8.68514e-23
2.71577e-23
6.70337e-23
6.43974e-23
1.11355e-22
4.15788e-23
6.82976e-23
7.62868e-24
4.60719e-23
1.73305e-25
7.11285e-23
6.41635e-23
3.40069e-24
3.22595e-23
2.25976e-23
3.86234e-24
6.25104e-23
-1.24792e-23
3.61895e-23
7.40244e-25
7.74426e-23
3.63763e-23
1.02317e-22
5.37174e-23
1.00268e-22
3.03288e-23
8.92771e-23
1.00203e-23
6.54825e-23
4.26424e-24
7.70269e-23
9.55385e-24
5.90424e-23
3.73939e-24
4.73877e-23
1.80593e-23
5.68085e-23
3.24655e-23
2.42329e-23
-8.78872e-24
9.87653e-24
4.4982e-23
9.24628e-24
-4.36611e-24
2.88454e-23
-3.54878e-24
2.58103e-23
-4.26563e-24
2.73876e-23
3.3887e-23
7.97894e-23
4.82123e-23
9.34208e-23
1.9453e-23
1.09966e-22
1.29225e-23
6.87377e-23
-3.9308e-24
3.57502e-23
5.25524e-24
4.78485e-23
1.35969e-23
4.77547e-23
4.5583e-24
2.00805e-23
2.60614e-23
7.33681e-23
-1.28385e-23
9.52102e-23
-1.18827e-23
5.52196e-23
-2.23977e-23
4.62433e-23
-3.45045e-23
6.80698e-23
6.97162e-23
1.04124e-23
3.29481e-23
1.40209e-25
-2.5039e-24
3.8481e-23
-6.81729e-24
2.12842e-23
4.18412e-24
6.43963e-23
3.15022e-23
6.1636e-23
4.93349e-23
7.22528e-23
1.1629e-23
2.53395e-23
1.00455e-23
6.21153e-23
-2.78694e-24
3.83491e-23
-9.0937e-25
4.4736e-23
3.71503e-24
4.44961e-23
9.84658e-24
2.34514e-23
3.29358e-23
6.67273e-23
-2.07132e-23
-1.86518e-24
-4.07198e-24
1.29549e-22
-1.81407e-23
6.26455e-23
-3.68405e-23
7.64659e-23
-2.49422e-23
4.64922e-23
-6.15474e-24
-4.58301e-24
1.47954e-23
7.44786e-24
2.86905e-23
-2.46734e-24
-1.50918e-24
4.00075e-23
-3.69775e-25
2.16883e-23
-3.87825e-25
5.59939e-23
3.1606e-23
8.37082e-23
3.19681e-23
3.17726e-23
1.5273e-23
-2.32216e-23
5.34602e-24
8.50169e-24
-1.41155e-24
3.55247e-23
1.51224e-24
3.53407e-23
1.60988e-25
4.35584e-23
2.26441e-23
1.13343e-23
1.72382e-23
3.27756e-23
3.98974e-24
-5.04333e-24
-1.28399e-23
8.86479e-23
-1.40639e-23
6.22969e-23
-4.80592e-23
8.93503e-23
-3.3935e-23
2.82765e-23
-7.578e-24
-3.28919e-23
-1.48116e-23
2.96329e-23
-8.86653e-24
6.77329e-23
-1.32391e-23
3.09715e-23
-2.63033e-23
-7.09817e-24
-7.30035e-23
7.35867e-24
2.3789e-23
-9.97005e-25
-4.60972e-24
4.36852e-23
-4.20479e-24
2.11996e-23
2.23112e-24
5.52762e-23
2.10082e-23
7.29562e-23
2.61883e-23
7.58107e-23
2.07345e-23
-2.52135e-23
1.06551e-23
9.7547e-24
-5.18696e-24
4.32398e-23
-1.90766e-24
2.45332e-23
-1.18263e-23
-6.02468e-24
2.35046e-23
4.38461e-23
9.49252e-24
5.37445e-23
1.41839e-23
5.28028e-24
-1.69437e-23
1.15303e-22
-1.33572e-23
4.92224e-23
-5.93102e-23
-9.70477e-24
-4.32843e-23
5.52344e-24
4.87901e-25
4.03871e-23
-3.5387e-24
1.54983e-22
-1.96407e-23
7.4075e-23
-2.0823e-23
2.26093e-23
-4.00106e-23
2.31978e-23
1.37187e-23
2.18758e-23
-3.68535e-23
3.32669e-23
-1.28582e-22
8.63053e-23
-1.24543e-22
2.84337e-23
-5.20333e-23
1.91843e-23
1.34266e-23
1.5147e-23
3.85476e-24
5.03921e-25
-5.53094e-24
5.82839e-23
3.38401e-24
5.39625e-23
-2.10263e-24
5.37609e-23
1.53927e-23
9.09561e-23
1.06343e-23
9.15102e-23
2.14626e-23
6.7859e-23
1.21759e-23
1.79721e-23
-4.36623e-24
7.59282e-24
-1.32051e-23
2.55066e-23
-3.31646e-24
2.32814e-23
2.09241e-23
2.76099e-23
-1.58732e-24
2.43872e-23
3.29492e-23
3.99708e-23
-2.81029e-23
4.49156e-23
-2.02651e-23
1.54834e-22
-6.26005e-23
2.3965e-23
-3.63105e-23
1.01908e-22
2.29741e-23
8.51683e-23
-1.63205e-23
7.30699e-23
-3.04387e-23
9.33946e-23
-1.71097e-23
1.3663e-22
-3.86223e-23
5.43992e-23
1.48616e-23
9.87658e-23
-2.92055e-23
7.36974e-23
-1.39258e-22
-3.03118e-23
-1.28244e-22
2.94218e-23
-5.46532e-23
7.64705e-23
-6.76229e-23
5.56151e-23
-6.81012e-23
8.13871e-23
-6.22355e-23
6.80603e-23
4.86825e-23
2.26474e-23
6.92387e-23
5.28911e-25
-4.28706e-24
-6.93236e-24
3.68742e-24
4.29572e-23
7.87982e-24
9.05884e-23
1.27115e-23
9.54626e-23
4.34411e-24
6.94667e-23
1.7455e-23
2.17917e-23
1.22e-23
2.14411e-23
-9.64416e-24
-1.99964e-23
-7.47711e-24
1.75378e-23
-3.5229e-24
9.11436e-24
1.42607e-23
7.84494e-24
4.62228e-24
2.97822e-23
3.3857e-23
6.28579e-23
-1.39715e-23
-1.94347e-23
-4.1081e-23
4.61273e-23
-4.88887e-23
2.15619e-23
-3.56532e-23
1.0392e-22
1.98294e-23
1.51214e-22
-1.45538e-23
9.28783e-23
-2.42709e-23
7.7949e-23
-3.40081e-23
1.34496e-22
-3.02602e-23
6.63284e-23
1.1723e-23
8.0333e-23
-4.84787e-23
-4.55622e-26
-1.27918e-22
4.01184e-23
-1.25452e-22
5.495e-23
-5.54054e-23
1.37039e-22
-6.85081e-23
9.83049e-23
-7.18625e-23
1.08501e-22
-7.56907e-23
9.96637e-23
-5.9476e-23
1.56329e-22
-1.07356e-22
-3.02812e-23
7.37797e-23
1.22137e-23
6.57181e-23
-3.77603e-24
1.26085e-25
4.69265e-23
6.01677e-24
4.2221e-23
7.89986e-24
8.77651e-23
8.67206e-24
5.13431e-23
8.16806e-25
3.84072e-23
1.6834e-23
4.82911e-23
2.53605e-24
-7.61774e-26
-6.56245e-24
-1.00191e-23
-6.98387e-24
7.61782e-24
-6.01089e-24
3.8626e-23
2.01322e-23
7.29875e-23
8.52651e-24
3.66425e-23
1.84772e-23
4.99014e-23
-6.60678e-24
-2.4052e-23
-4.14941e-23
5.07999e-23
-4.23e-23
2.53716e-23
-2.6983e-23
1.1078e-22
-1.41755e-25
1.11947e-22
-1.25649e-23
8.01756e-23
-1.47359e-23
5.62134e-23
-4.54108e-23
2.14218e-23
-2.79899e-23
1.24489e-22
-5.46319e-24
6.97255e-23
-4.05269e-23
2.10683e-23
-1.28206e-22
4.5499e-23
-1.12303e-22
5.47505e-23
-6.11553e-23
2.29033e-22
-6.86165e-23
1.43809e-22
-7.62216e-23
1.40427e-22
-6.84906e-23
1.07341e-22
-8.78352e-23
2.06651e-22
-1.29402e-22
9.49686e-23
1.13846e-22
1.43958e-23
5.51464e-23
-3.39477e-24
-2.16304e-24
-1.54506e-23
9.85193e-24
3.22182e-23
3.66513e-24
7.7846e-23
3.66878e-24
5.5849e-23
-5.77732e-24
4.52336e-23
8.91988e-25
3.3902e-23
-2.40546e-24
2.2783e-24
-7.21249e-24
-3.8594e-23
-4.44254e-24
-1.04788e-24
-1.08255e-25
3.62121e-23
1.53789e-23
9.53669e-24
6.31186e-24
3.74624e-23
6.66003e-24
4.6672e-23
-3.38902e-24
-3.05033e-23
-4.27637e-23
-1.30959e-23
-3.11353e-23
1.65542e-23
-2.72085e-23
2.47984e-23
-4.96477e-24
1.73616e-24
-1.33262e-23
7.96188e-23
-2.4053e-23
4.05465e-23
-2.82299e-23
1.78139e-23
-4.09245e-23
3.39768e-23
-9.45014e-24
4.82978e-23
-3.3587e-23
4.49996e-23
-1.32566e-22
-3.83919e-23
-8.29492e-23
9.47562e-23
-7.58434e-23
1.44597e-22
-6.70894e-23
1.66307e-22
-8.76845e-23
9.02922e-23
-5.80114e-23
1.8968e-22
-1.0515e-22
1.84966e-22
-1.84362e-22
1.58801e-22
1.24724e-22
2.51019e-24
6.01074e-23
-8.48394e-24
-2.80441e-24
-1.98785e-24
1.65466e-23
1.44582e-23
-2.70122e-24
6.30422e-23
-3.12893e-24
1.2794e-23
-3.49594e-24
4.17633e-23
-4.30117e-25
2.79733e-23
-5.20316e-24
1.0422e-23
-3.97251e-24
6.7465e-24
3.17026e-24
-7.59665e-24
-5.32376e-24
2.18454e-24
2.26328e-23
5.07601e-23
4.98909e-24
1.02171e-23
2.61898e-24
3.36149e-23
-4.53398e-24
-4.32133e-23
-3.39141e-23
-4.80479e-24
-3.42707e-23
1.22766e-23
-3.29131e-23
9.68424e-24
5.10958e-24
6.67704e-23
-2.10525e-23
9.53246e-23
-2.64395e-23
4.48394e-23
-2.50051e-23
4.73917e-23
-4.35268e-23
1.31877e-22
-4.59729e-24
1.05059e-22
-4.8317e-23
1.60003e-23
-1.11586e-22
4.53037e-23
-7.88765e-23
1.56441e-22
-6.90441e-23
1.56373e-22
-8.11742e-23
1.19887e-22
-7.53091e-23
9.19443e-23
-6.5455e-23
1.88132e-22
-1.06184e-22
1.51422e-22
-2.01575e-22
2.25013e-22
3.28473e-22
1.38492e-24
3.53617e-23
-1.2447e-23
-8.83598e-25
5.94262e-24
1.79984e-23
4.3472e-23
-4.08559e-24
5.32911e-23
-7.67653e-25
1.29536e-23
-7.08204e-24
4.04825e-23
-1.23899e-24
2.39345e-23
-3.76376e-24
1.89471e-23
-1.24824e-23
2.32102e-23
3.58874e-24
-1.76091e-23
2.06167e-24
4.72382e-23
1.56836e-23
3.36059e-23
4.13126e-24
1.44713e-23
-2.25843e-24
3.26308e-23
-6.33575e-24
-5.40867e-23
-2.65454e-23
-1.86624e-23
-3.47554e-23
-3.39524e-24
-2.49481e-23
7.47997e-23
9.29616e-24
1.12754e-22
-2.50472e-23
1.16196e-22
-2.6915e-23
3.51718e-23
-1.62148e-23
3.96663e-23
-4.76727e-23
7.06677e-23
-1.38543e-23
1.7186e-22
-4.46825e-23
5.83416e-23
-9.72711e-23
1.06806e-22
-8.21822e-23
1.5399e-22
-7.03333e-23
1.52772e-22
-8.64547e-23
1.51429e-22
-6.40461e-23
1.67965e-22
-7.36203e-23
2.04382e-22
-9.45207e-23
2.01792e-22
-2.01254e-22
3.01998e-22
4.24037e-22
-5.14426e-24
1.63496e-23
-1.93392e-23
4.27652e-24
4.39745e-23
1.59608e-23
3.97391e-23
-1.29597e-23
-6.80734e-25
-1.04067e-24
4.03785e-23
-1.25996e-23
1.28837e-23
-2.30976e-24
8.78926e-24
-1.02723e-23
2.54372e-23
-1.47648e-23
2.53511e-23
5.83482e-24
5.79189e-23
2.28836e-24
9.56476e-23
6.92739e-24
-1.8573e-23
3.6188e-24
1.32601e-23
-9.40559e-24
3.02312e-23
-9.26303e-25
1.68561e-23
-3.21424e-23
-1.02458e-24
-2.32655e-23
-3.46284e-23
-1.80961e-23
4.38933e-23
1.13273e-23
8.14278e-23
-3.66048e-23
7.05402e-23
-2.41503e-23
1.05118e-22
-1.37379e-23
3.74066e-23
-3.42223e-23
5.78101e-23
-3.07843e-23
8.46274e-23
-3.44782e-23
6.82917e-23
-9.51868e-23
1.10286e-23
-8.25321e-23
4.89157e-23
-7.29657e-23
1.4156e-22
-8.26768e-23
1.58936e-22
-6.36512e-23
1.62656e-22
-7.18533e-23
2.20236e-22
-8.60731e-23
2.53156e-22
-1.43064e-22
3.15904e-22
4.45711e-22
-3.36089e-25
-1.66101e-23
-1.43111e-23
-1.98056e-24
4.46172e-23
5.93655e-24
3.55197e-23
-7.7001e-24
1.72336e-23
-2.23541e-24
3.44481e-23
-1.43969e-23
2.75849e-23
-2.21681e-24
3.25943e-23
-1.26175e-23
7.05581e-23
-8.65224e-24
6.46952e-23
5.45012e-24
8.59695e-23
-1.50123e-23
1.26645e-22
7.93159e-24
9.55683e-24
4.1999e-24
1.08682e-23
-8.06512e-24
2.54677e-23
-5.86845e-24
5.38784e-24
-3.5389e-23
1.18793e-23
-1.40524e-23
9.87616e-23
-1.36243e-23
1.17984e-22
7.83637e-24
1.36269e-22
-3.20889e-23
9.47417e-23
-3.25925e-23
9.0298e-23
-1.17371e-23
9.18037e-23
-3.1344e-23
7.53511e-23
-2.96897e-23
8.62281e-23
-4.25038e-23
6.06747e-23
-9.4564e-23
5.10197e-23
-6.8182e-23
1.7288e-22
-7.16301e-23
1.42574e-22
-8.42511e-23
1.50215e-22
-5.83895e-23
2.42552e-22
-6.67466e-23
2.5515e-22
-8.7741e-23
3.03779e-22
-9.27532e-23
4.59461e-22
4.50666e-22
5.74493e-24
-1.66913e-23
-5.64094e-24
-1.60104e-24
5.22914e-23
5.22985e-24
6.12963e-23
-5.84705e-24
2.56986e-23
-6.85303e-24
3.32448e-23
-1.14283e-23
-5.99925e-24
2.35792e-24
1.94979e-23
-8.34818e-24
3.51596e-23
-6.86017e-24
6.93344e-23
1.81516e-23
1.03261e-22
-2.79326e-23
9.24365e-23
8.63617e-24
6.2444e-23
4.23077e-24
5.14103e-23
-9.80895e-24
2.54767e-23
-4.23767e-24
-2.03106e-24
-2.18986e-23
2.80373e-23
-1.4007e-23
8.86204e-23
-1.16679e-23
1.09877e-22
1.99232e-24
1.27024e-22
-3.11348e-23
6.74291e-23
-3.00465e-23
7.98087e-23
-1.71793e-23
7.0718e-23
-3.14992e-23
7.68749e-23
-3.10506e-23
8.88489e-23
-4.38383e-23
8.71542e-23
-8.08739e-23
7.84187e-23
-7.30826e-23
1.61985e-22
-6.92857e-23
1.42619e-22
-7.4178e-23
1.72655e-22
-5.61168e-23
2.58082e-22
-6.22053e-23
2.61665e-22
-7.7322e-23
3.34705e-22
-7.90218e-23
4.90654e-22
3.69733e-22
5.72188e-24
-1.44248e-23
-7.62602e-24
-2.70652e-24
1.93181e-23
7.62824e-24
9.43239e-24
-6.50349e-25
6.92429e-23
-1.12954e-23
8.32604e-23
-9.31488e-24
3.27225e-23
2.00333e-24
1.52622e-23
-7.4156e-24
4.52864e-23
8.22989e-25
6.25286e-23
9.32176e-24
1.01248e-22
-2.83455e-23
5.6089e-24
1.86668e-24
8.41434e-23
4.085e-24
8.84336e-23
-1.59322e-23
-8.57442e-24
2.71889e-24
2.30052e-23
-1.32188e-23
-4.45235e-23
-1.3655e-23
8.60248e-23
-7.13341e-24
9.15338e-23
-8.75785e-24
4.95921e-23
-2.92019e-23
8.37105e-23
-3.22086e-23
8.55828e-23
-1.77725e-23
4.66095e-23
-3.00618e-23
6.46688e-23
-2.8602e-23
9.73246e-23
-4.62651e-23
1.29033e-22
-7.07523e-23
1.00097e-22
-7.77795e-23
1.74594e-22
-6.1988e-23
2.36867e-22
-7.03643e-23
2.10153e-22
-5.23776e-23
2.67029e-22
-5.50946e-23
2.70333e-22
-6.59527e-23
3.64631e-22
-7.98083e-23
4.10423e-22
3.62328e-22
1.07029e-23
-2.53098e-24
-6.63882e-24
-2.12496e-24
3.25346e-23
6.30488e-24
4.10728e-23
-6.11987e-25
6.8711e-23
-9.6223e-24
4.45364e-23
-1.34313e-23
3.92973e-23
5.42664e-24
9.41651e-23
-4.09582e-24
2.38614e-23
5.24238e-25
1.12236e-22
-6.07393e-26
6.29463e-23
-2.10275e-23
3.33464e-23
3.91888e-24
1.10392e-22
-7.76281e-24
9.08143e-23
-1.38521e-23
-1.40959e-23
-1.01927e-24
4.65007e-23
-3.83608e-24
4.89063e-23
-1.00728e-23
9.06377e-23
-1.36771e-23
9.57005e-23
-4.90843e-24
3.30959e-23
-2.69874e-23
7.29683e-23
-3.8225e-23
4.66514e-24
-1.38901e-23
7.86791e-23
-2.87578e-23
6.89477e-23
-2.23593e-23
8.24485e-23
-5.02422e-23
-1.37808e-23
-6.20387e-23
1.08587e-22
-7.24433e-23
1.97686e-22
-6.15955e-23
2.37185e-22
-7.10095e-23
1.59749e-22
-4.78001e-23
3.50764e-22
-4.87729e-23
2.69972e-22
-6.77924e-23
3.88697e-22
-7.71233e-23
4.26398e-22
-8.23124e-23
3.5193e-22
6.86086e-22
1.39237e-23
-4.90667e-24
-8.53211e-24
-3.47197e-24
-9.41038e-25
1.16894e-23
1.96063e-23
1.55588e-25
3.39964e-23
-1.28225e-23
4.31542e-23
-1.36804e-23
3.84923e-23
-6.39572e-24
9.04858e-23
6.19019e-24
6.32257e-23
-1.17396e-23
4.89516e-23
-2.64671e-24
5.74367e-23
-1.42796e-23
5.26898e-23
3.19682e-24
1.0064e-22
-2.0519e-23
6.8472e-23
-7.74357e-24
4.96145e-23
-1.17941e-24
7.92809e-23
-1.35711e-24
1.30558e-23
-1.03643e-23
6.29683e-24
-2.37501e-23
1.17292e-23
3.56291e-24
9.118e-23
-3.45084e-23
9.52377e-23
-3.3249e-23
8.94854e-23
-1.36756e-23
1.25884e-22
-2.77196e-23
6.0314e-23
-3.14301e-23
9.41178e-23
-3.78453e-23
-9.36555e-24
-5.33345e-23
4.53276e-23
-6.82066e-23
8.13074e-23
-6.81139e-23
1.62826e-22
-5.46723e-23
1.56192e-22
-5.49906e-23
2.68121e-22
-3.68821e-23
2.65904e-22
-6.74591e-23
3.20619e-22
-7.44289e-23
4.21628e-22
-6.61672e-23
4.70057e-22
6.86129e-22
1.49624e-23
1.5902e-23
-2.61174e-24
-2.69937e-24
1.00129e-23
9.48323e-24
-3.41715e-25
-2.61182e-24
3.51268e-23
-1.37848e-23
4.37542e-23
-5.49505e-24
2.92521e-23
-1.03207e-23
4.86834e-23
7.53203e-24
5.2455e-23
-8.80675e-24
7.19596e-23
-7.87392e-25
9.25688e-23
-1.26077e-23
5.99584e-23
-2.47233e-24
9.21079e-23
-2.12884e-23
4.11428e-23
-8.49092e-24
1.23064e-22
-4.01769e-24
1.10923e-22
-3.14484e-24
1.37048e-23
-7.45923e-24
1.04724e-23
-1.80973e-23
2.30453e-23
3.04532e-24
1.03334e-22
-3.31765e-23
2.65332e-23
-3.07387e-23
8.51685e-23
-1.8755e-23
2.06556e-22
-2.72979e-23
6.2817e-23
-4.10574e-23
3.23441e-23
-3.26592e-23
-9.95819e-24
-4.81004e-23
6.73941e-23
-6.20709e-23
9.91743e-23
-6.288e-23
1.63414e-22
-4.78529e-23
1.4946e-22
-5.11798e-23
2.82678e-22
-3.56851e-23
2.56256e-22
-6.32304e-23
2.52152e-22
-6.25206e-23
4.1458e-22
-6.16426e-23
3.52499e-22
1.67094e-23
2.38375e-27
-9.84651e-24
-2.66033e-24
2.21083e-23
1.33044e-23
-2.1702e-23
-3.62764e-24
4.33561e-23
-1.15608e-23
4.83908e-23
-6.68012e-24
2.99539e-23
-8.51662e-24
5.61077e-23
5.83042e-24
1.23043e-22
-3.23986e-24
8.41606e-23
-2.40357e-24
9.53236e-23
-1.27221e-23
2.63908e-23
-6.73813e-24
9.07602e-23
-1.07811e-23
7.98697e-23
-1.42747e-23
8.33974e-23
-1.1207e-23
1.02449e-22
-8.73548e-24
5.86457e-23
-5.28399e-24
5.19647e-23
-1.14212e-23
3.43103e-23
-4.21666e-24
1.02004e-22
-2.77347e-23
5.17121e-23
-2.045e-23
8.79902e-23
-3.15018e-23
1.19812e-22
-3.24924e-23
5.93181e-23
-4.24988e-23
3.83776e-23
-2.75081e-23
7.32041e-23
-4.51252e-23
8.24745e-23
-5.70371e-23
1.24113e-22
-6.13297e-23
1.67449e-22
-4.21219e-23
1.32572e-22
-4.83339e-23
1.96876e-22
-3.63123e-23
2.53199e-22
-4.75722e-23
2.58949e-22
-5.97478e-23
4.12391e-22
3.10865e-22
2.00963e-23
-8.58446e-24
-1.57717e-23
-9.83397e-24
1.02682e-23
2.1597e-23
2.60109e-23
-4.38111e-24
2.15265e-23
-1.29155e-23
5.17451e-23
-3.06757e-24
2.27253e-23
2.43786e-24
5.64256e-23
-9.09411e-25
9.59519e-23
-8.50078e-24
5.34304e-23
-6.8623e-24
9.42188e-23
-1.06386e-23
6.65089e-23
-5.08145e-24
8.66189e-23
-1.15103e-23
8.06421e-23
-1.26268e-23
8.16271e-23
-1.41574e-23
1.02571e-22
-9.81898e-24
5.72705e-23
-3.68907e-24
9.13643e-23
-8.90382e-24
4.42427e-23
-7.62765e-24
9.89672e-23
-2.59124e-23
2.83836e-23
-1.90942e-23
8.23221e-23
-3.63125e-23
5.44611e-23
-3.69749e-23
6.38527e-23
-3.71322e-23
4.09204e-23
-2.58986e-23
6.46537e-23
-4.27228e-23
1.00483e-22
-5.21639e-23
1.39303e-22
-6.33715e-23
1.75557e-22
-3.86548e-23
2.06053e-22
-4.18268e-23
2.23962e-22
-3.76966e-23
2.51138e-22
-3.71766e-23
2.83678e-22
-6.34064e-23
3.36618e-22
3.08346e-22
2.43482e-23
6.75423e-24
-1.41573e-23
-8.13389e-24
-4.68022e-23
1.53878e-23
-1.69038e-23
-3.95494e-24
2.83371e-23
-1.66506e-23
6.13703e-23
4.97633e-25
9.23892e-23
-2.06014e-24
6.21239e-23
-3.22084e-24
1.49953e-22
-5.02461e-24
5.57258e-23
-7.46885e-24
9.74531e-23
-1.13824e-23
5.98981e-23
-4.84253e-24
8.37451e-23
-1.28617e-23
8.74183e-23
-1.50159e-23
4.15567e-23
-1.61865e-23
6.7486e-23
-8.6591e-24
5.79338e-23
-7.05379e-24
9.25402e-23
-2.3483e-24
3.95639e-23
-1.31171e-23
3.86471e-23
-2.20052e-23
3.11933e-23
-2.27428e-23
5.41142e-23
-3.28722e-23
7.31018e-23
-3.97952e-23
7.66844e-23
-3.47595e-23
1.14056e-22
-2.085e-23
1.42118e-22
-4.35559e-23
3.77164e-23
-4.67962e-23
1.42293e-22
-6.17782e-23
9.54622e-23
-3.74539e-23
1.87313e-22
-4.08984e-23
2.3087e-22
-3.2902e-23
2.46897e-22
-4.06502e-23
2.89014e-22
-6.03448e-23
3.4327e-22
3.11853e-22
1.7773e-23
-1.0865e-25
-1.03182e-23
-7.83988e-24
-2.68681e-23
1.87794e-23
8.27493e-23
1.72374e-24
3.11489e-23
-1.69472e-23
5.5009e-23
-3.14383e-24
1.19132e-22
3.15254e-24
5.49109e-23
-9.06459e-24
1.79304e-22
-4.06734e-24
1.49772e-22
-9.82751e-24
1.06063e-22
-1.00851e-23
5.6704e-23
-3.22394e-24
9.26733e-23
-1.4476e-23
8.30653e-23
-1.66815e-23
8.6772e-23
-1.51154e-23
7.3386e-23
-6.62781e-24
5.61847e-23
-9.09011e-24
2.3644e-23
-6.62235e-24
3.73617e-23
-1.15251e-23
6.66569e-25
-2.19347e-23
4.11695e-23
-2.10636e-23
1.4626e-22
-3.1805e-23
8.87825e-23
-3.69838e-23
8.24175e-23
-3.33141e-23
1.11809e-22
-2.72595e-23
1.39444e-22
-3.63953e-23
5.64096e-23
-4.93956e-23
1.61558e-22
-5.49102e-23
1.06362e-22
-3.4682e-23
1.72712e-22
-3.91067e-23
1.45452e-22
-3.08314e-23
2.36904e-22
-3.70955e-23
2.95928e-22
-5.81102e-23
3.07646e-22
1.1926e-23
-7.19972e-24
-3.99641e-24
2.03655e-24
-1.64706e-23
1.50387e-23
1.76111e-23
-6.85255e-25
-2.55105e-25
-8.2923e-24
2.21065e-23
-5.80662e-24
7.89172e-23
1.22279e-23
1.1537e-22
-1.21092e-23
7.20571e-23
-7.70344e-24
1.0473e-22
-9.01094e-24
1.07571e-22
-1.2983e-23
5.92832e-23
-4.32651e-24
8.13648e-23
-1.74658e-23
9.5352e-23
-1.72344e-23
8.99176e-23
-1.54935e-23
1.19593e-22
-1.0372e-23
9.10692e-23
-8.54721e-24
6.73377e-23
-1.13489e-23
3.5885e-23
-6.66891e-24
3.5695e-23
-1.48803e-23
4.90748e-23
-2.52475e-23
1.11308e-22
-3.1533e-23
1.01116e-22
-3.43603e-23
9.41448e-23
-3.30762e-23
1.07332e-22
-3.22519e-23
1.42445e-22
-2.98958e-23
6.74055e-23
-5.3358e-23
9.68312e-23
-5.04397e-23
1.12609e-22
-3.47288e-23
1.54621e-22
-3.33878e-23
1.41974e-22
-2.45192e-23
1.90034e-22
-3.98309e-23
2.6814e-22
3.08159e-22
1.16571e-23
3.66974e-24
-3.69087e-24
4.98397e-24
-1.06518e-23
1.5729e-23
4.32754e-23
2.48644e-25
9.51858e-24
-9.37757e-24
2.88915e-23
1.45685e-24
1.11572e-22
2.53421e-24
7.19629e-23
-6.9961e-24
5.08111e-23
-1.06669e-23
7.77397e-23
-1.09423e-23
1.0641e-22
-1.30391e-23
6.29077e-23
-6.01229e-24
7.17711e-23
-2.02827e-23
7.11086e-23
-1.51681e-23
9.18487e-23
-1.81135e-23
8.00305e-23
-1.33133e-23
8.22964e-23
-9.39064e-24
7.02408e-23
-1.15976e-23
7.61929e-23
-2.95527e-24
6.64616e-23
-1.38443e-23
6.33967e-23
-2.38693e-23
7.78266e-23
-3.33253e-23
1.13424e-22
-3.24175e-23
9.9443e-23
-3.26731e-23
1.01502e-22
-3.51164e-23
1.45333e-22
-3.03631e-23
7.54363e-23
-5.02988e-23
3.30556e-23
-4.99336e-23
1.22135e-22
-3.46496e-23
1.77065e-22
-2.9862e-23
1.88592e-22
-1.75559e-23
1.85254e-22
-3.73639e-23
2.06355e-22
9.93803e-24
-3.03493e-23
-4.38211e-24
8.40952e-24
2.74088e-23
8.39318e-24
3.82716e-23
2.91417e-24
-2.8931e-23
-1.25037e-24
3.11076e-23
-2.48509e-24
2.57831e-23
1.13015e-24
6.98741e-23
-3.16352e-24
9.19439e-23
-1.02691e-23
4.99508e-23
-1.64323e-23
7.06209e-23
-1.39257e-23
6.59254e-23
-6.39292e-24
6.20667e-23
-1.56561e-23
7.31608e-23
-1.68738e-23
9.59263e-23
-1.5743e-23
1.17643e-22
-1.49702e-23
7.93742e-23
-1.08689e-23
1.07457e-22
-1.10935e-23
7.13634e-23
-2.32481e-24
5.69306e-23
-1.37542e-23
3.27631e-23
-1.96085e-23
8.13039e-23
-3.52783e-23
9.01971e-23
-3.1595e-23
9.685e-23
-3.14419e-23
9.80427e-23
-3.73637e-23
1.55611e-22
-3.58782e-23
1.1549e-22
-4.21586e-23
9.60604e-23
-4.86489e-23
1.47892e-22
-3.2489e-23
1.69317e-22
-3.21798e-23
1.51902e-22
-1.73422e-23
1.78065e-22
1.81729e-22
1.03888e-23
-3.65393e-23
-2.643e-24
8.66783e-24
3.30542e-23
8.57224e-24
3.35651e-23
8.62244e-24
6.5108e-23
-4.06355e-24
3.3312e-23
-1.92207e-24
7.04001e-23
1.72726e-24
4.76351e-23
-3.78766e-24
6.53366e-23
-8.39353e-24
1.11682e-23
-1.72684e-23
4.76738e-23
-1.29154e-23
1.03508e-22
-6.6804e-24
5.58361e-23
-1.17621e-23
7.60656e-23
-1.44821e-23
9.13105e-23
-1.94107e-23
1.13557e-22
-1.31803e-23
1.1548e-22
-1.33439e-23
1.23758e-22
-1.27203e-23
1.09585e-22
-4.48225e-24
4.58432e-23
-1.12996e-23
4.68329e-23
-1.79196e-23
4.64547e-23
-3.47475e-23
6.68191e-23
-3.0523e-23
8.92845e-23
-2.96194e-23
9.62584e-23
-3.83118e-23
1.33169e-22
-3.85368e-23
1.19505e-22
-3.80829e-23
1.02391e-22
-4.75443e-23
7.92127e-23
-3.40022e-23
1.59876e-22
-3.15526e-23
1.31335e-22
-1.60763e-23
1.30193e-22
1.89534e-22
1.23108e-23
-4.01279e-23
3.02523e-24
8.81146e-24
3.55281e-23
9.13312e-24
2.79643e-23
8.13071e-24
8.28549e-23
-1.76438e-24
4.20776e-23
-3.52619e-24
1.06387e-22
2.10088e-24
1.15589e-22
-1.12319e-23
7.01727e-23
-1.11061e-23
1.07144e-23
-1.18322e-23
4.75961e-23
-1.70589e-23
1.10207e-22
-2.3939e-24
1.24633e-22
-1.24006e-23
8.7181e-23
-1.62564e-23
9.0826e-23
-1.38024e-23
1.11656e-22
-1.40359e-23
8.61201e-23
-1.31084e-23
1.28357e-22
-1.68876e-23
1.15351e-22
-3.20075e-24
7.33066e-23
-1.23793e-23
6.03979e-23
-1.61837e-23
5.03388e-23
-3.40629e-23
6.98543e-23
-2.97029e-23
8.58591e-23
-2.86868e-23
9.41734e-23
-3.72817e-23
1.44912e-22
-3.99586e-23
8.64593e-23
-4.13101e-23
1.1086e-22
-4.19706e-23
1.36493e-22
-3.48963e-23
1.54722e-22
-3.3184e-23
1.01912e-22
-1.14652e-23
1.56525e-22
1.43672e-22
1.07882e-23
-1.28274e-23
9.26712e-24
1.48687e-23
1.05572e-22
1.18865e-23
2.53975e-23
3.79741e-24
9.2107e-23
-1.35849e-25
1.02396e-23
3.05411e-24
1.0239e-22
-5.01391e-25
1.12166e-22
-1.04865e-23
7.1564e-23
-1.06655e-23
3.9735e-23
-6.84459e-24
4.89169e-23
-1.84187e-23
4.27312e-23
-7.14729e-24
1.54143e-22
-1.25303e-23
9.95447e-23
-1.52885e-23
8.68294e-23
-1.6933e-23
1.051e-22
-9.90917e-24
8.26419e-23
-1.36973e-23
1.00158e-22
-1.82588e-23
1.17838e-22
-6.04972e-24
6.48073e-23
-1.44938e-23
7.64903e-23
-1.46146e-23
9.71166e-23
-3.33886e-23
2.47793e-23
-2.7928e-23
4.48735e-23
-2.61458e-23
9.69386e-23
-3.93647e-23
1.13648e-22
-3.91998e-23
9.65088e-23
-4.06371e-23
1.22941e-22
-4.14322e-23
1.42241e-22
-3.78166e-23
1.55523e-22
-2.98975e-23
1.80133e-22
-1.09704e-23
1.75257e-22
1.42296e-22
1.74432e-23
1.37891e-23
8.54318e-24
1.45908e-23
1.93138e-22
1.5283e-23
5.77558e-23
-1.20831e-24
1.46232e-23
1.76898e-24
3.6278e-23
3.11329e-24
9.36522e-23
-4.21743e-24
1.01769e-22
-1.64331e-23
3.3943e-23
-6.47709e-24
6.04592e-23
-7.25459e-24
1.73464e-23
-1.16113e-23
5.44887e-23
-1.11971e-23
1.50303e-22
-1.309e-23
9.91995e-23
-1.47542e-23
8.03573e-23
-1.49688e-23
1.41055e-22
-1.28794e-23
7.6881e-23
-1.252e-23
1.08531e-22
-2.34362e-23
5.0076e-23
-6.11321e-24
6.39345e-23
-1.19139e-23
8.94935e-23
-1.98345e-23
5.54156e-23
-3.26977e-23
4.85339e-23
-2.35409e-23
8.27091e-23
-2.70768e-23
6.45074e-23
-3.88435e-23
8.90738e-23
-3.85433e-23
6.07632e-23
-3.86098e-23
1.27075e-22
-4.17881e-23
1.50093e-22
-3.62601e-23
1.56302e-22
-3.24622e-23
1.41985e-22
-9.59225e-24
1.54778e-22
1.45117e-22
2.48492e-23
6.86868e-23
8.64779e-24
9.19088e-24
1.02409e-22
1.01953e-23
5.26919e-23
-6.68739e-25
5.82283e-23
7.26207e-24
8.58568e-23
3.69616e-24
4.3638e-23
-8.67042e-24
9.11453e-23
-1.32932e-23
1.14417e-22
-9.62486e-24
5.43888e-23
-6.62455e-24
-1.94478e-23
-6.13229e-24
6.908e-23
-1.23015e-23
1.52567e-22
-1.56618e-23
9.78758e-23
-1.31181e-23
6.46919e-23
-1.64639e-23
1.33487e-22
-1.3552e-23
3.38319e-23
-1.33405e-23
1.05904e-22
-2.49379e-23
2.18275e-23
-3.69766e-24
1.46962e-22
-1.41566e-23
7.18243e-23
-2.09473e-23
5.92674e-23
-3.07645e-23
5.96169e-23
-2.31435e-23
1.14652e-22
-2.64664e-23
6.83996e-23
-3.93466e-23
9.70804e-23
-3.60477e-23
9.94852e-23
-3.70928e-23
1.34989e-22
-4.2986e-23
1.15315e-22
-3.52575e-23
1.87457e-22
-3.26876e-23
1.52658e-22
-8.58539e-24
1.76581e-22
1.02021e-22
2.10595e-23
1.26071e-22
5.6645e-24
8.86798e-24
6.39228e-23
8.38629e-24
5.1302e-23
2.86188e-24
5.921e-23
7.67401e-25
3.14977e-23
4.09791e-24
4.05141e-23
-7.71641e-24
4.7228e-23
-1.56584e-23
1.76456e-23
-1.52098e-23
4.71435e-23
-2.08745e-24
2.65024e-23
-3.50446e-24
4.27836e-23
-1.93024e-23
7.002e-23
-1.1903e-23
1.32642e-22
-1.33417e-23
5.77841e-23
-2.03543e-23
7.19494e-23
-1.21275e-23
2.78697e-23
-1.59596e-23
1.0653e-22
-1.94073e-23
3.63787e-23
-5.60973e-24
1.66512e-22
-1.41407e-23
8.62703e-23
-2.17339e-23
2.95247e-23
-2.76942e-23
6.73064e-23
-2.51079e-23
1.12937e-22
-2.58974e-23
7.23931e-23
-3.81552e-23
6.91711e-23
-3.47208e-23
9.96212e-23
-3.72719e-23
1.3923e-22
-3.96129e-23
1.18498e-22
-3.66338e-23
2.21811e-22
-3.37656e-23
2.00344e-22
-1.13684e-23
1.93083e-22
1.35864e-22
2.05946e-23
6.4984e-23
4.84999e-24
6.9001e-24
3.57514e-23
9.53795e-24
2.75023e-23
4.16722e-25
1.00276e-23
1.41809e-24
6.37287e-23
1.77445e-25
1.21059e-22
-8.15176e-24
2.95435e-23
-1.48157e-23
5.62807e-24
-1.67392e-23
4.88838e-23
-1.15198e-24
2.24802e-23
-4.08894e-24
1.61974e-23
-1.53731e-23
8.3734e-23
-1.35473e-23
8.75618e-23
-1.51831e-23
2.27385e-23
-1.99367e-23
2.2987e-23
-9.48847e-24
5.71858e-23
-1.92078e-23
1.12042e-22
-1.29276e-23
8.43428e-23
-7.26283e-24
8.68006e-23
-1.78107e-23
5.98036e-23
-2.03728e-23
3.40058e-23
-2.58957e-23
7.6829e-23
-2.6936e-23
1.16298e-22
-2.66424e-23
7.39126e-23
-3.52318e-23
7.9694e-23
-3.36228e-23
1.40465e-22
-3.76128e-23
1.42284e-22
-3.5531e-23
1.5217e-22
-3.6118e-23
2.22326e-22
-3.63208e-23
2.04129e-22
-1.30856e-23
2.44527e-22
2.14554e-22
1.97379e-23
1.52328e-22
7.85354e-24
4.83435e-24
1.33528e-23
1.02027e-23
6.13666e-23
1.37574e-24
7.70764e-24
3.62484e-24
5.38619e-23
-5.52121e-24
6.71464e-23
-7.6412e-24
1.53802e-22
-1.53767e-23
-2.34275e-24
-1.45337e-23
9.12985e-24
-4.02162e-24
4.47392e-23
-1.53739e-25
6.46226e-23
-1.65756e-23
1.32371e-23
-1.65379e-23
8.8418e-23
-1.85665e-23
1.57494e-23
-1.69383e-23
9.28863e-23
-7.97834e-24
4.42562e-23
-1.77794e-23
8.03287e-23
-1.57735e-23
8.05402e-23
-6.05486e-24
1.39394e-22
-2.04309e-23
8.50696e-23
-1.88233e-23
3.26339e-23
-2.46853e-23
8.73421e-23
-2.73706e-23
1.14145e-22
-2.72114e-23
1.0889e-22
-3.17925e-23
1.21321e-22
-3.4776e-23
1.5119e-22
-3.52721e-23
1.50627e-22
-3.3494e-23
1.45579e-22
-3.57688e-23
2.20925e-22
-3.50216e-23
2.0618e-22
-1.36314e-23
2.2535e-22
2.01211e-22
1.18243e-23
9.82543e-23
4.78009e-24
7.28566e-24
5.34203e-23
5.31198e-24
2.99533e-23
5.59563e-24
2.65717e-23
2.42158e-24
1.00776e-22
-3.12585e-24
2.31401e-23
-1.34095e-23
1.06093e-22
-1.7711e-23
3.02992e-23
-1.28412e-23
4.2566e-23
-1.49451e-24
4.4837e-23
4.12336e-25
7.44756e-23
-1.57687e-23
1.45321e-23
-1.7927e-23
4.58117e-23
-1.53371e-23
4.49479e-24
-1.61524e-23
7.52318e-23
-6.80166e-24
6.7063e-23
-1.66716e-23
4.63558e-23
-1.63033e-23
8.52339e-23
-6.76453e-24
1.46881e-22
-2.24733e-23
2.31651e-23
-1.50789e-23
2.72598e-23
-2.40142e-23
6.43836e-23
-2.69149e-23
1.19869e-22
-2.6202e-23
1.14748e-22
-2.98135e-23
1.27051e-22
-3.56257e-23
1.5622e-22
-3.39723e-23
1.57806e-22
-3.23322e-23
1.08335e-22
-3.60453e-23
1.77531e-22
-3.55224e-23
2.04889e-22
-1.46841e-23
2.06354e-22
1.45673e-22
1.36396e-23
1.32621e-22
7.06406e-24
3.19909e-24
2.31604e-23
6.49369e-24
2.31353e-23
7.10837e-24
-1.88547e-23
3.42467e-25
1.88901e-23
6.04462e-25
6.98654e-23
-1.87976e-23
7.72094e-23
-1.70757e-23
1.67373e-23
-1.24518e-23
3.56303e-23
2.13375e-25
4.82373e-23
-3.94523e-24
9.33715e-23
-1.51579e-23
2.48528e-23
-1.85845e-23
6.05334e-24
-1.09388e-23
8.21539e-23
-1.66688e-23
8.50693e-23
-7.81297e-24
8.89806e-23
-1.43156e-23
5.13886e-23
-1.33555e-23
8.13633e-23
-9.62216e-24
1.19465e-22
-2.30999e-23
-1.14177e-24
-1.3972e-23
1.13425e-22
-2.15766e-23
7.26484e-23
-2.74741e-23
8.36422e-23
-2.54249e-23
1.12691e-22
-2.91806e-23
8.32462e-23
-3.54814e-23
1.70419e-22
-3.52656e-23
1.60462e-22
-3.00625e-23
9.92539e-23
-3.36502e-23
1.3772e-22
-3.56131e-23
2.00619e-22
-1.83119e-23
2.17019e-22
2.12811e-22
9.75364e-24
1.47355e-22
7.45827e-24
1.65905e-24
-1.56965e-23
7.1256e-24
4.71487e-23
5.23208e-24
-1.70827e-23
1.26496e-24
7.60788e-23
-9.45636e-25
-4.34852e-24
-1.91784e-23
5.23636e-23
-1.72549e-23
9.797e-23
-1.02421e-23
1.23567e-22
-1.57785e-25
1.49629e-22
-1.92383e-24
1.37198e-22
-1.807e-23
7.87372e-23
-1.19449e-23
1.29921e-22
-1.16758e-23
7.08309e-23
-1.95473e-23
8.23453e-23
-8.8241e-24
7.58091e-23
-1.20023e-23
9.0392e-24
-1.39863e-23
7.77405e-23
-1.20285e-23
1.46354e-22
-2.1094e-23
2.19231e-23
-1.52569e-23
8.48207e-23
-2.01619e-23
7.57637e-23
-2.61534e-23
5.7934e-23
-2.6599e-23
1.06455e-22
-2.49791e-23
8.42001e-23
-3.64866e-23
1.07116e-22
-3.74404e-23
1.5728e-22
-2.981e-23
8.8691e-23
-2.95622e-23
1.40269e-22
-3.46415e-23
1.94508e-22
-1.96596e-23
2.37494e-22
3.14851e-22
5.92293e-24
1.31622e-22
7.03023e-24
-2.50657e-24
2.11526e-23
8.32652e-24
1.0928e-22
4.1144e-24
-1.19957e-23
1.62964e-24
1.23236e-22
-8.88098e-25
4.43339e-23
-1.51863e-23
6.65553e-23
-1.65219e-23
8.63527e-23
-7.98925e-24
1.52138e-22
1.17568e-24
1.92679e-22
-4.92335e-24
1.68555e-22
-1.83367e-23
9.41198e-23
-1.38551e-23
1.13621e-22
-1.18226e-23
6.19811e-23
-1.87651e-23
2.85899e-23