/*--------------------------------*- C++ -*----------------------------------*\
  =========                 |
  \\      /  F ield         | OpenFOAM: The Open Source CFD Toolbox
   \\    /   O peration     | Website:  https://openfoam.org
    \\  /    A nd           | Version:  7
     \\/     M anipulation  |
\*---------------------------------------------------------------------------*/
FoamFile
{
    version     2.0;
    format      ascii;
    class       volScalarField;
    location    "124000";
    object      p;
}
// * * * * * * * * * * * * * * * * * * * * * * * * * * * * * * * * * * * * * //

dimensions      [0 2 -2 0 0 0 0];

internalField   nonuniform List<scalar> 
4782
(
-2.71834e-18
-2.71899e-18
-2.71944e-18
-2.72027e-18
-2.72199e-18
-2.71869e-18
-2.71634e-18
-2.71817e-18
-2.71982e-18
-2.71717e-18
-2.70869e-18
-2.7093e-18
-2.72242e-18
-2.7225e-18
-2.71792e-18
-2.73363e-18
-2.72467e-18
-2.70795e-18
-2.70952e-18
-2.7065e-18
-2.7062e-18
-2.70975e-18
-2.70994e-18
-2.70989e-18
-2.70862e-18
-2.70968e-18
-2.70909e-18
-2.70635e-18
-2.70617e-18
-2.70075e-18
-2.70614e-18
-2.71763e-18
-2.72537e-18
-2.71214e-18
-2.7081e-18
-2.70238e-18
-2.70326e-18
-2.71182e-18
-2.71589e-18
-2.71321e-18
-2.7082e-18
-2.70823e-18
-2.71806e-18
-2.71664e-18
-2.71492e-18
-2.70971e-18
-2.71343e-18
-2.71746e-18
-2.71094e-18
-2.71088e-18
-2.71673e-18
-2.71103e-18
-2.70954e-18
-2.71644e-18
-2.71543e-18
-2.708e-18
-2.70502e-18
-2.70287e-18
-2.71065e-18
-2.71146e-18
-2.71037e-18
-2.7085e-18
-2.70386e-18
-2.70247e-18
-2.70994e-18
-2.72917e-18
-2.73029e-18
-2.7239e-18
-2.72469e-18
-2.72567e-18
-2.72702e-18
-2.73072e-18
-2.72827e-18
-2.72321e-18
-2.73118e-18
-2.71954e-18
-2.71867e-18
-2.72005e-18
-2.71724e-18
-2.71137e-18
-2.72087e-18
-2.72519e-18
-2.725e-18
-2.71579e-18
-2.717e-18
-2.7144e-18
-2.71869e-18
-2.71551e-18
-2.71062e-18
-2.71091e-18
-2.71458e-18
-2.71126e-18
-2.70154e-18
-2.71232e-18
-2.71824e-18
-2.71413e-18
-2.71323e-18
-2.71846e-18
-2.71668e-18
-2.71139e-18
-2.7098e-18
-2.71812e-18
-2.72122e-18
-2.71559e-18
-2.71314e-18
-2.70983e-18
-2.71424e-18
-2.70864e-18
-2.71084e-18
-2.70733e-18
-2.71007e-18
-2.71222e-18
-2.70988e-18
-2.70794e-18
-2.70848e-18
-2.70904e-18
-2.7122e-18
-2.70931e-18
-2.70642e-18
-2.70627e-18
-2.72599e-18
-2.70919e-18
-2.71758e-18
-2.71612e-18
-2.70971e-18
-2.71185e-18
-2.71028e-18
-2.71485e-18
-2.72865e-18
-2.71992e-18
-2.71517e-18
-2.71134e-18
-2.70071e-18
-2.69727e-18
-2.70761e-18
-2.71257e-18
-2.7157e-18
-2.7138e-18
-2.71304e-18
-2.70573e-18
-2.7091e-18
-2.70905e-18
-2.71224e-18
-2.71532e-18
-2.71455e-18
-2.71627e-18
-2.71008e-18
-2.70723e-18
-2.70321e-18
-2.70456e-18
-2.70992e-18
-2.70327e-18
-2.70669e-18
-2.70407e-18
-2.70273e-18
-2.7002e-18
-2.70946e-18
-2.70752e-18
-2.70515e-18
-2.70437e-18
-2.70383e-18
-2.7026e-18
-2.70225e-18
-2.69943e-18
-2.70048e-18
-2.70584e-18
-2.70246e-18
-2.70187e-18
-2.70396e-18
-2.69983e-18
-2.69756e-18
-2.7004e-18
-2.7011e-18
-2.70138e-18
-2.699e-18
-2.72905e-18
-2.73791e-18
-2.73815e-18
-2.72983e-18
-2.72546e-18
-2.71813e-18
-2.72197e-18
-2.73353e-18
-2.73344e-18
-2.73367e-18
-2.72517e-18
-2.72232e-18
-2.72328e-18
-2.73259e-18
-2.7341e-18
-2.73093e-18
-2.72928e-18
-2.73179e-18
-2.72358e-18
-2.72768e-18
-2.73036e-18
-2.72849e-18
-2.71653e-18
-2.72032e-18
-2.72375e-18
-2.72399e-18
-2.71128e-18
-2.71854e-18
-2.72148e-18
-2.72426e-18
-2.72421e-18
-2.71379e-18
-2.71337e-18
-2.72694e-18
-2.71832e-18
-2.71041e-18
-2.71519e-18
-2.71826e-18
-2.71607e-18
-2.71633e-18
-2.71125e-18
-2.70697e-18
-2.7056e-18
-2.70518e-18
-2.70953e-18
-2.70978e-18
-2.71406e-18
-2.71139e-18
-2.70423e-18
-2.70818e-18
-2.70767e-18
-2.70647e-18
-2.70547e-18
-2.70586e-18
-2.70733e-18
-2.72747e-18
-2.71975e-18
-2.72109e-18
-2.72218e-18
-2.72318e-18
-2.72529e-18
-2.72311e-18
-2.72425e-18
-2.71462e-18
-2.70188e-18
-2.71277e-18
-2.72165e-18
-2.7192e-18
-2.70608e-18
-2.70044e-18
-2.70541e-18
-2.71185e-18
-2.70626e-18
-2.71062e-18
-2.70647e-18
-2.71373e-18
-2.70823e-18
-2.71611e-18
-2.71223e-18
-2.70916e-18
-2.71016e-18
-2.7213e-18
-2.70892e-18
-2.70223e-18
-2.70404e-18
-2.70644e-18
-2.70678e-18
-2.70852e-18
-2.69664e-18
-2.70481e-18
-2.712e-18
-2.70691e-18
-2.70528e-18
-2.70563e-18
-2.70557e-18
-2.70546e-18
-2.70626e-18
-2.70766e-18
-2.71027e-18
-2.70424e-18
-2.70384e-18
-2.69832e-18
-2.69951e-18
-2.70472e-18
-2.70128e-18
-2.70076e-18
-2.70098e-18
-2.70217e-18
-2.70284e-18
-2.70053e-18
-2.71776e-18
-2.72541e-18
-2.71793e-18
-2.71755e-18
-2.71942e-18
-2.72126e-18
-2.72534e-18
-2.72083e-18
-2.70554e-18
-2.7104e-18
-2.71964e-18
-2.72174e-18
-2.73057e-18
-2.73513e-18
-2.72639e-18
-2.71624e-18
-2.70841e-18
-2.71393e-18
-2.71719e-18
-2.72562e-18
-2.72071e-18
-2.71782e-18
-2.71782e-18
-2.71791e-18
-2.71554e-18
-2.71124e-18
-2.71658e-18
-2.71287e-18
-2.71596e-18
-2.70818e-18
-2.70605e-18
-2.71123e-18
-2.7134e-18
-2.71456e-18
-2.71334e-18
-2.71471e-18
-2.70772e-18
-2.70639e-18
-2.70784e-18
-2.70798e-18
-2.70752e-18
-2.70649e-18
-2.70551e-18
-2.71036e-18
-2.7062e-18
-2.70039e-18
-2.70615e-18
-2.70428e-18
-2.70084e-18
-2.70337e-18
-2.70562e-18
-2.70041e-18
-2.70211e-18
-2.70049e-18
-2.70225e-18
-2.7019e-18
-2.6989e-18
-2.69744e-18
-2.69958e-18
-2.72142e-18
-2.7183e-18
-2.71377e-18
-2.71608e-18
-2.71714e-18
-2.71571e-18
-2.71304e-18
-2.7199e-18
-2.7157e-18
-2.70206e-18
-2.71257e-18
-2.7135e-18
-2.7111e-18
-2.71027e-18
-2.71791e-18
-2.7101e-18
-2.70848e-18
-2.70774e-18
-2.70963e-18
-2.70856e-18
-2.71173e-18
-2.70755e-18
-2.70998e-18
-2.71281e-18
-2.70826e-18
-2.70538e-18
-2.71441e-18
-2.72201e-18
-2.70924e-18
-2.70023e-18
-2.70098e-18
-2.70545e-18
-2.70116e-18
-2.70391e-18
-2.71239e-18
-2.71332e-18
-2.70135e-18
-2.69751e-18
-2.70352e-18
-2.7008e-18
-2.70266e-18
-2.69972e-18
-2.70305e-18
-2.7002e-18
-2.70279e-18
-2.70241e-18
-2.69858e-18
-2.69987e-18
-2.70138e-18
-2.69883e-18
-2.70028e-18
-2.69731e-18
-2.69539e-18
-2.69631e-18
-2.69742e-18
-2.69627e-18
-2.69832e-18
-2.69909e-18
-2.69962e-18
-2.69606e-18
-2.72609e-18
-2.7273e-18
-2.72073e-18
-2.71923e-18
-2.7284e-18
-2.72129e-18
-2.72589e-18
-2.72667e-18
-2.72027e-18
-2.71429e-18
-2.71506e-18
-2.72336e-18
-2.73304e-18
-2.72504e-18
-2.72307e-18
-2.71946e-18
-2.7186e-18
-2.72043e-18
-2.71981e-18
-2.72453e-18
-2.71944e-18
-2.70697e-18
-2.70221e-18
-2.71402e-18
-2.71117e-18
-2.71862e-18
-2.72081e-18
-2.70887e-18
-2.70185e-18
-2.70477e-18
-2.70966e-18
-2.70928e-18
-2.69807e-18
-2.69888e-18
-2.69926e-18
-2.70172e-18
-2.69494e-18
-2.69063e-18
-2.69988e-18
-2.70033e-18
-2.6943e-18
-2.70053e-18
-2.70103e-18
-2.69416e-18
-2.69496e-18
-2.70283e-18
-2.70277e-18
-2.70249e-18
-2.69755e-18
-2.69897e-18
-2.69827e-18
-2.69786e-18
-2.70051e-18
-2.69943e-18
-2.69734e-18
-2.69684e-18
-2.69728e-18
-2.70217e-18
-2.6995e-18
-2.69923e-18
-2.69625e-18
-2.69588e-18
-2.69728e-18
-2.70026e-18
-2.69931e-18
-2.69606e-18
-2.69817e-18
-2.69747e-18
-2.69815e-18
-2.69808e-18
-2.69869e-18
-2.69971e-18
-2.69858e-18
-2.69893e-18
-2.69818e-18
-2.69856e-18
-2.69908e-18
-2.69962e-18
-2.69893e-18
-2.699e-18
-2.6991e-18
-2.69874e-18
-2.69872e-18
-2.69888e-18
-2.69863e-18
-2.69907e-18
-2.69885e-18
-2.69861e-18
-2.69889e-18
-2.69905e-18
-2.69904e-18
-2.69889e-18
-2.69886e-18
-2.6988e-18
-2.69878e-18
-2.69916e-18
-2.70748e-18
-2.71022e-18
-2.70776e-18
-2.69343e-18
-2.69875e-18
-2.6989e-18
-2.7061e-18
-2.70177e-18
-2.70342e-18
-2.70259e-18
-2.69953e-18
-2.70341e-18
-2.70767e-18
-2.70449e-18
-2.70498e-18
-2.70534e-18
-2.69789e-18
-2.70713e-18
-2.71337e-18
-2.71036e-18
-2.70781e-18
-2.70401e-18
-2.70294e-18
-2.70269e-18
-2.70196e-18
-2.70239e-18
-2.70764e-18
-2.70561e-18
-2.69974e-18
-2.69626e-18
-2.70003e-18
-2.70028e-18
-2.70279e-18
-2.69803e-18
-2.69871e-18
-2.70069e-18
-2.69814e-18
-2.69362e-18
-2.69045e-18
-2.6915e-18
-2.69375e-18
-2.69211e-18
-2.69166e-18
-2.69086e-18
-2.69329e-18
-2.69269e-18
-2.69321e-18
-2.69257e-18
-2.69082e-18
-2.69383e-18
-2.69545e-18
-2.69296e-18
-2.69221e-18
-2.69446e-18
-2.69343e-18
-2.69437e-18
-2.69235e-18
-2.69295e-18
-2.6918e-18
-2.69116e-18
-2.69282e-18
-2.69141e-18
-2.69358e-18
-2.69693e-18
-2.69437e-18
-2.69282e-18
-2.69359e-18
-2.69274e-18
-2.69394e-18
-2.69428e-18
-2.69431e-18
-2.69298e-18
-2.69239e-18
-2.69267e-18
-2.69291e-18
-2.69271e-18
-2.69319e-18
-2.69272e-18
-2.69283e-18
-2.6934e-18
-2.69275e-18
-2.69309e-18
-2.69315e-18
-2.69316e-18
-2.69278e-18
-2.69265e-18
-2.69287e-18
-2.69276e-18
-2.69294e-18
-2.69297e-18
-2.69272e-18
-2.69293e-18
-2.69296e-18
-2.69293e-18
-2.7181e-18
-2.72455e-18
-2.727e-18
-2.71984e-18
-2.71789e-18
-2.71454e-18
-2.71415e-18
-2.7209e-18
-2.71718e-18
-2.71818e-18
-2.70367e-18
-2.70002e-18
-2.71715e-18
-2.72126e-18
-2.71278e-18
-2.70233e-18
-2.70573e-18
-2.71209e-18
-2.70363e-18
-2.70327e-18
-2.70429e-18
-2.70399e-18
-2.7025e-18
-2.69985e-18
-2.70214e-18
-2.70067e-18
-2.69512e-18
-2.69712e-18
-2.69586e-18
-2.70259e-18
-2.70102e-18
-2.69807e-18
-2.69828e-18
-2.69558e-18
-2.70024e-18
-2.71322e-18
-2.70428e-18
-2.70154e-18
-2.70064e-18
-2.70183e-18
-2.6995e-18
-2.69891e-18
-2.70093e-18
-2.70049e-18
-2.69922e-18
-2.69806e-18
-2.69111e-18
-2.69229e-18
-2.69539e-18
-2.7012e-18
-2.69545e-18
-2.69561e-18
-2.69809e-18
-2.70055e-18
-2.69864e-18
-2.69646e-18
-2.69876e-18
-2.69879e-18
-2.69657e-18
-2.69764e-18
-2.69395e-18
-2.695e-18
-2.69574e-18
-2.69471e-18
-2.69645e-18
-2.69666e-18
-2.69713e-18
-2.69893e-18
-2.69839e-18
-2.69761e-18
-2.69636e-18
-2.69595e-18
-2.69659e-18
-2.69715e-18
-2.69771e-18
-2.69663e-18
-2.69671e-18
-2.69706e-18
-2.69736e-18
-2.69778e-18
-2.69749e-18
-2.697e-18
-2.69691e-18
-2.69748e-18
-2.6973e-18
-2.69671e-18
-2.69677e-18
-2.69697e-18
-2.69699e-18
-2.6972e-18
-2.69723e-18
-2.69708e-18
-2.69696e-18
-2.69711e-18
-2.69711e-18
-2.69563e-18
-2.70079e-18
-2.69351e-18
-2.70325e-18
-2.69413e-18
-2.69168e-18
-2.70006e-18
-2.70154e-18
-2.70837e-18
-2.70649e-18
-2.69277e-18
-2.69374e-18
-2.69873e-18
-2.69727e-18
-2.69049e-18
-2.69532e-18
-2.69516e-18
-2.69056e-18
-2.69757e-18
-2.69422e-18
-2.69316e-18
-2.68749e-18
-2.6866e-18
-2.68281e-18
-2.68885e-18
-2.69078e-18
-2.68336e-18
-2.68588e-18
-2.68864e-18
-2.69688e-18
-2.68839e-18
-2.68609e-18
-2.68524e-18
-2.69365e-18
-2.68752e-18
-2.68353e-18
-2.68788e-18
-2.69131e-18
-2.69804e-18
-2.69016e-18
-2.69255e-18
-2.69424e-18
-2.69558e-18
-2.69314e-18
-2.69224e-18
-2.69521e-18
-2.69636e-18
-2.69465e-18
-2.68905e-18
-2.69097e-18
-2.6909e-18
-2.69131e-18
-2.69066e-18
-2.69249e-18
-2.69154e-18
-2.68867e-18
-2.69198e-18
-2.68986e-18
-2.69072e-18
-2.6927e-18
-2.69243e-18
-2.68903e-18
-2.68932e-18
-2.69099e-18
-2.68994e-18
-2.69137e-18
-2.69137e-18
-2.6906e-18
-2.68991e-18
-2.69122e-18
-2.69083e-18
-2.69044e-18
-2.69134e-18
-2.69049e-18
-2.69078e-18
-2.69122e-18
-2.69075e-18
-2.69089e-18
-2.69011e-18
-2.69044e-18
-2.69047e-18
-2.69107e-18
-2.69119e-18
-2.69097e-18
-2.69099e-18
-2.69079e-18
-2.69081e-18
-2.69068e-18
-2.69072e-18
-2.69082e-18
-2.69091e-18
-2.69088e-18
-2.69079e-18
-2.69079e-18
-2.69084e-18
-2.71764e-18
-2.70456e-18
-2.69688e-18
-2.69903e-18
-2.68757e-18
-2.69482e-18
-2.69559e-18
-2.68877e-18
-2.69745e-18
-2.70513e-18
-2.69495e-18
-2.696e-18
-2.70061e-18
-2.69851e-18
-2.6979e-18
-2.69084e-18
-2.69446e-18
-2.69836e-18
-2.6879e-18
-2.6923e-18
-2.69042e-18
-2.69332e-18
-2.69876e-18
-2.68818e-18
-2.69497e-18
-2.68958e-18
-2.68363e-18
-2.69073e-18
-2.69258e-18
-2.69699e-18
-2.69523e-18
-2.69059e-18
-2.69151e-18
-2.69371e-18
-2.69678e-18
-2.69561e-18
-2.69567e-18
-2.692e-18
-2.69575e-18
-2.69987e-18
-2.68782e-18
-2.68805e-18
-2.69275e-18
-2.69428e-18
-2.6931e-18
-2.6914e-18
-2.69447e-18
-2.69377e-18
-2.69029e-18
-2.6949e-18
-2.69704e-18
-2.69473e-18
-2.69253e-18
-2.69518e-18
-2.69634e-18
-2.69441e-18
-2.69246e-18
-2.69455e-18
-2.69595e-18
-2.69371e-18
-2.69156e-18
-2.69263e-18
-2.69401e-18
-2.69337e-18
-2.69314e-18
-2.69241e-18
-2.69241e-18
-2.69309e-18
-2.69345e-18
-2.6929e-18
-2.69246e-18
-2.69348e-18
-2.69372e-18
-2.69234e-18
-2.69335e-18
-2.69302e-18
-2.69356e-18
-2.69375e-18
-2.69397e-18
-2.6936e-18
-2.69413e-18
-2.69376e-18
-2.69346e-18
-2.69377e-18
-2.69413e-18
-2.69376e-18
-2.69336e-18
-2.69375e-18
-2.69372e-18
-2.69375e-18
-2.6939e-18
-2.69394e-18
-2.6939e-18
-2.69388e-18
-2.69388e-18
-2.68056e-18
-2.68536e-18
-2.68454e-18
-2.67842e-18
-2.66701e-18
-2.67447e-18
-2.67983e-18
-2.67456e-18
-2.67323e-18
-2.67874e-18
-2.65792e-18
-2.66489e-18
-2.66573e-18
-2.66475e-18
-2.66613e-18
-2.66376e-18
-2.66469e-18
-2.66881e-18
-2.66223e-18
-2.66692e-18
-2.66828e-18
-2.66594e-18
-2.66889e-18
-2.66819e-18
-2.66319e-18
-2.66724e-18
-2.67205e-18
-2.67443e-18
-2.67529e-18
-2.66904e-18
-2.67365e-18
-2.67676e-18
-2.67546e-18
-2.66948e-18
-2.68007e-18
-2.68633e-18
-2.68165e-18
-2.67345e-18
-2.67598e-18
-2.67966e-18
-2.68213e-18
-2.68086e-18
-2.68051e-18
-2.67726e-18
-2.68351e-18
-2.6817e-18
-2.68282e-18
-2.68674e-18
-2.68827e-18
-2.68587e-18
-2.68023e-18
-2.68494e-18
-2.68742e-18
-2.68704e-18
-2.68539e-18
-2.68639e-18
-2.68931e-18
-2.68691e-18
-2.68599e-18
-2.68592e-18
-2.68403e-18
-2.68369e-18
-2.68715e-18
-2.68761e-18
-2.68571e-18
-2.68592e-18
-2.6867e-18
-2.68593e-18
-2.68637e-18
-2.68637e-18
-2.68598e-18
-2.68658e-18
-2.68651e-18
-2.68708e-18
-2.68685e-18
-2.68655e-18
-2.68635e-18
-2.68695e-18
-2.68696e-18
-2.68731e-18
-2.68653e-18
-2.68689e-18
-2.68737e-18
-2.68741e-18
-2.68708e-18
-2.68684e-18
-2.68713e-18
-2.68749e-18
-2.68769e-18
-2.68741e-18
-2.6873e-18
-2.68731e-18
-2.68741e-18
-2.68741e-18
-2.6874e-18
-2.70555e-18
-2.70338e-18
-2.70366e-18
-2.69668e-18
-2.68936e-18
-2.70453e-18
-2.69564e-18
-2.693e-18
-2.69884e-18
-2.69127e-18
-2.68742e-18
-2.69281e-18
-2.68835e-18
-2.68245e-18
-2.69127e-18
-2.69043e-18
-2.69014e-18
-2.69274e-18
-2.68806e-18
-2.68486e-18
-2.69231e-18
-2.69608e-18
-2.69043e-18
-2.68793e-18
-2.68277e-18
-2.69303e-18
-2.69253e-18
-2.68789e-18
-2.68642e-18
-2.68599e-18
-2.68421e-18
-2.68066e-18
-2.68383e-18
-2.67729e-18
-2.68435e-18
-2.68736e-18
-2.67995e-18
-2.67763e-18
-2.68093e-18
-2.68663e-18
-2.69134e-18
-2.68625e-18
-2.68102e-18
-2.68381e-18
-2.68876e-18
-2.68367e-18
-2.68823e-18
-2.68842e-18
-2.68639e-18
-2.68748e-18
-2.68804e-18
-2.68813e-18
-2.68747e-18
-2.68763e-18
-2.68708e-18
-2.688e-18
-2.68538e-18
-2.68627e-18
-2.68859e-18
-2.68958e-18
-2.68868e-18
-2.6911e-18
-2.68973e-18
-2.68773e-18
-2.6859e-18
-2.68811e-18
-2.6892e-18
-2.68877e-18
-2.68958e-18
-2.69092e-18
-2.69005e-18
-2.69039e-18
-2.6897e-18
-2.6903e-18
-2.69027e-18
-2.69001e-18
-2.69069e-18
-2.69108e-18
-2.69147e-18
-2.69132e-18
-2.69124e-18
-2.69129e-18
-2.69133e-18
-2.69113e-18
-2.69067e-18
-2.69111e-18
-2.69129e-18
-2.69131e-18
-2.69159e-18
-2.69137e-18
-2.69137e-18
-2.69144e-18
-2.69137e-18
-2.69134e-18
-2.69135e-18
-2.66189e-18
-2.66072e-18
-2.66898e-18
-2.67495e-18
-2.68034e-18
-2.67399e-18
-2.67947e-18
-2.66754e-18
-2.67283e-18
-2.67751e-18
-2.66677e-18
-2.67581e-18
-2.67087e-18
-2.6667e-18
-2.68037e-18
-2.67359e-18
-2.67839e-18
-2.68105e-18
-2.67159e-18
-2.66944e-18
-2.66317e-18
-2.67292e-18
-2.67036e-18
-2.67007e-18
-2.67378e-18
-2.67077e-18
-2.66278e-18
-2.67493e-18
-2.67051e-18
-2.67475e-18
-2.67268e-18
-2.66883e-18
-2.66632e-18
-2.67264e-18
-2.67305e-18
-2.67945e-18
-2.67441e-18
-2.67707e-18
-2.67296e-18
-2.6739e-18
-2.67529e-18
-2.67548e-18
-2.67582e-18
-2.68143e-18
-2.67846e-18
-2.67512e-18
-2.67534e-18
-2.67775e-18
-2.67941e-18
-2.67899e-18
-2.67932e-18
-2.67902e-18
-2.67761e-18
-2.68071e-18
-2.68369e-18
-2.68315e-18
-2.68259e-18
-2.68154e-18
-2.68226e-18
-2.6818e-18
-2.68311e-18
-2.68504e-18
-2.685e-18
-2.6852e-18
-2.68349e-18
-2.68344e-18
-2.68474e-18
-2.68588e-18
-2.68621e-18
-2.68509e-18
-2.68458e-18
-2.68695e-18
-2.68601e-18
-2.68496e-18
-2.68563e-18
-2.68601e-18
-2.68594e-18
-2.68585e-18
-2.68661e-18
-2.68666e-18
-2.68566e-18
-2.68574e-18
-2.68616e-18
-2.68627e-18
-2.6862e-18
-2.68628e-18
-2.68632e-18
-2.6863e-18
-2.68624e-18
-2.68639e-18
-2.68635e-18
-2.68646e-18
-2.68636e-18
-2.68638e-18
-2.68636e-18
-2.68182e-18
-2.68581e-18
-2.6846e-18
-2.67934e-18
-2.67928e-18
-2.68531e-18
-2.69421e-18
-2.68011e-18
-2.67976e-18
-2.68286e-18
-2.68084e-18
-2.676e-18
-2.67647e-18
-2.68839e-18
-2.68644e-18
-2.68481e-18
-2.67753e-18
-2.6752e-18
-2.68969e-18
-2.69103e-18
-2.68905e-18
-2.68846e-18
-2.69444e-18
-2.69083e-18
-2.68367e-18
-2.68542e-18
-2.68939e-18
-2.69729e-18
-2.69424e-18
-2.6932e-18
-2.69237e-18
-2.69215e-18
-2.69256e-18
-2.69476e-18
-2.69718e-18
-2.69172e-18
-2.69843e-18
-2.6914e-18
-2.68952e-18
-2.69363e-18
-2.69282e-18
-2.69283e-18
-2.69169e-18
-2.69356e-18
-2.69207e-18
-2.68307e-18
-2.69192e-18
-2.69339e-18
-2.69036e-18
-2.6883e-18
-2.69017e-18
-2.68937e-18
-2.69076e-18
-2.68835e-18
-2.68977e-18
-2.68948e-18
-2.69183e-18
-2.69175e-18
-2.69184e-18
-2.69111e-18
-2.69087e-18
-2.69037e-18
-2.69321e-18
-2.69398e-18
-2.69233e-18
-2.69396e-18
-2.69409e-18
-2.6935e-18
-2.69387e-18
-2.69371e-18
-2.69353e-18
-2.69229e-18
-2.6924e-18
-2.69226e-18
-2.69305e-18
-2.69365e-18
-2.6935e-18
-2.69356e-18
-2.694e-18
-2.69366e-18
-2.69381e-18
-2.69305e-18
-2.69307e-18
-2.6933e-18
-2.69315e-18
-2.69293e-18
-2.69265e-18
-2.69286e-18
-2.69298e-18
-2.69299e-18
-2.69289e-18
-2.69292e-18
-2.69298e-18
-2.69296e-18
-2.69292e-18
-2.65961e-18
-2.66887e-18
-2.66648e-18
-2.66123e-18
-2.66011e-18
-2.6583e-18
-2.66826e-18
-2.67522e-18
-2.67622e-18
-2.66829e-18
-2.67191e-18
-2.67515e-18
-2.67495e-18
-2.66927e-18
-2.67034e-18
-2.67405e-18
-2.67948e-18
-2.67205e-18
-2.67896e-18
-2.67272e-18
-2.67501e-18
-2.68244e-18
-2.6855e-18
-2.67579e-18
-2.67823e-18
-2.6878e-18
-2.69074e-18
-2.68095e-18
-2.67802e-18
-2.68584e-18
-2.68619e-18
-2.68446e-18
-2.68064e-18
-2.67934e-18
-2.68414e-18
-2.68314e-18
-2.68345e-18
-2.68531e-18
-2.68249e-18
-2.68027e-18
-2.68398e-18
-2.68217e-18
-2.68481e-18
-2.68504e-18
-2.68766e-18
-2.68524e-18
-2.68312e-18
-2.68153e-18
-2.68705e-18
-2.68845e-18
-2.68538e-18
-2.6826e-18
-2.68558e-18
-2.68765e-18
-2.6894e-18
-2.68742e-18
-2.68642e-18
-2.68365e-18
-2.68406e-18
-2.68648e-18
-2.68388e-18
-2.68636e-18
-2.68581e-18
-2.68436e-18
-2.68583e-18
-2.68601e-18
-2.68569e-18
-2.68526e-18
-2.68546e-18
-2.686e-18
-2.68526e-18
-2.68444e-18
-2.68529e-18
-2.68507e-18
-2.68482e-18
-2.68545e-18
-2.68607e-18
-2.68611e-18
-2.68506e-18
-2.68506e-18
-2.68539e-18
-2.68496e-18
-2.68494e-18
-2.68529e-18
-2.68532e-18
-2.68504e-18
-2.68495e-18
-2.68505e-18
-2.68535e-18
-2.68544e-18
-2.68535e-18
-2.6851e-18
-2.68526e-18
-2.68536e-18
-2.68533e-18
-2.68616e-18
-2.68683e-18
-2.67379e-18
-2.67536e-18
-2.67847e-18
-2.6761e-18
-2.6775e-18
-2.68808e-18
-2.68238e-18
-2.68129e-18
-2.6838e-18
-2.69098e-18
-2.6944e-18
-2.6849e-18
-2.681e-18
-2.67941e-18
-2.68592e-18
-2.68767e-18
-2.68689e-18
-2.69488e-18
-2.69284e-18
-2.69206e-18
-2.69421e-18
-2.69517e-18
-2.69512e-18
-2.69714e-18
-2.69639e-18
-2.70434e-18
-2.69598e-18
-2.69371e-18
-2.69163e-18
-2.69842e-18
-2.69873e-18
-2.70351e-18
-2.69728e-18
-2.69727e-18
-2.70217e-18
-2.69434e-18
-2.69485e-18
-2.69964e-18
-2.69844e-18
-2.69709e-18
-2.69723e-18
-2.69879e-18
-2.69733e-18
-2.69723e-18
-2.69425e-18
-2.6944e-18
-2.69608e-18
-2.69557e-18
-2.69186e-18
-2.69586e-18
-2.69644e-18
-2.69144e-18
-2.69214e-18
-2.6936e-18
-2.6958e-18
-2.69218e-18
-2.69234e-18
-2.69741e-18
-2.69791e-18
-2.6931e-18
-2.69282e-18
-2.69426e-18
-2.69544e-18
-2.69462e-18
-2.69327e-18
-2.69423e-18
-2.69479e-18
-2.69435e-18
-2.69413e-18
-2.69293e-18
-2.6945e-18
-2.6951e-18
-2.69386e-18
-2.69393e-18
-2.69463e-18
-2.69395e-18
-2.69323e-18
-2.69362e-18
-2.69393e-18
-2.69355e-18
-2.6935e-18
-2.69348e-18
-2.69328e-18
-2.69345e-18
-2.69343e-18
-2.69325e-18
-2.69317e-18
-2.69315e-18
-2.69311e-18
-2.69304e-18
-2.69306e-18
-2.69308e-18
-2.69309e-18
-2.6792e-18
-2.66822e-18
-2.67239e-18
-2.66917e-18
-2.67731e-18
-2.67683e-18
-2.67607e-18
-2.66944e-18
-2.67902e-18
-2.67295e-18
-2.66675e-18
-2.66975e-18
-2.67117e-18
-2.67409e-18
-2.67364e-18
-2.67494e-18
-2.67302e-18
-2.67078e-18
-2.67882e-18
-2.68084e-18
-2.68261e-18
-2.68416e-18
-2.68332e-18
-2.68192e-18
-2.67811e-18
-2.67757e-18
-2.6733e-18
-2.681e-18
-2.68539e-18
-2.68096e-18
-2.68163e-18
-2.6805e-18
-2.6803e-18
-2.67834e-18
-2.68294e-18
-2.6843e-18
-2.6862e-18
-2.68433e-18
-2.6827e-18
-2.68679e-18
-2.68556e-18
-2.68225e-18
-2.68408e-18
-2.68574e-18
-2.686e-18
-2.68187e-18
-2.68402e-18
-2.68397e-18
-2.6841e-18
-2.67931e-18
-2.68197e-18
-2.68473e-18
-2.68232e-18
-2.68243e-18
-2.68272e-18
-2.68734e-18
-2.68653e-18
-2.68381e-18
-2.68327e-18
-2.68213e-18
-2.6819e-18
-2.68202e-18
-2.68206e-18
-2.68243e-18
-2.68386e-18
-2.68474e-18
-2.68367e-18
-2.68354e-18
-2.68354e-18
-2.68396e-18
-2.68456e-18
-2.68405e-18
-2.68353e-18
-2.68359e-18
-2.68463e-18
-2.68418e-18
-2.68407e-18
-2.68475e-18
-2.68411e-18
-2.68386e-18
-2.68345e-18
-2.68413e-18
-2.68453e-18
-2.68406e-18
-2.68422e-18
-2.68447e-18
-2.68444e-18
-2.68451e-18
-2.68447e-18
-2.68431e-18
-2.68444e-18
-2.68446e-18
-2.68437e-18
-2.68435e-18
-2.68435e-18
-2.69484e-18
-2.68231e-18
-2.67999e-18
-2.68507e-18
-2.69643e-18
-2.69324e-18
-2.68823e-18
-2.68482e-18
-2.68408e-18
-2.67804e-18
-2.68183e-18
-2.68157e-18
-2.68568e-18
-2.68171e-18
-2.68619e-18
-2.68685e-18
-2.68765e-18
-2.68571e-18
-2.68594e-18
-2.6853e-18
-2.68993e-18
-2.68443e-18
-2.68406e-18
-2.68862e-18
-2.69054e-18
-2.6891e-18
-2.68828e-18
-2.68982e-18
-2.69105e-18
-2.69358e-18
-2.6962e-18
-2.69543e-18
-2.6906e-18
-2.68979e-18
-2.69517e-18
-2.69466e-18
-2.69318e-18
-2.69793e-18
-2.69926e-18
-2.69695e-18
-2.69109e-18
-2.69307e-18
-2.69441e-18
-2.69294e-18
-2.68969e-18
-2.69241e-18
-2.69305e-18
-2.69435e-18
-2.69515e-18
-2.69263e-18
-2.69553e-18
-2.69495e-18
-2.69392e-18
-2.69352e-18
-2.69321e-18
-2.69349e-18
-2.69263e-18
-2.69161e-18
-2.69033e-18
-2.692e-18
-2.69131e-18
-2.69383e-18
-2.69177e-18
-2.69051e-18
-2.69029e-18
-2.69159e-18
-2.68976e-18
-2.69061e-18
-2.69063e-18
-2.69235e-18
-2.69321e-18
-2.69215e-18
-2.69159e-18
-2.69191e-18
-2.69211e-18
-2.6922e-18
-2.69256e-18
-2.69281e-18
-2.69238e-18
-2.69262e-18
-2.69226e-18
-2.69217e-18
-2.69255e-18
-2.69233e-18
-2.69178e-18
-2.69215e-18
-2.69238e-18
-2.69185e-18
-2.69198e-18
-2.69203e-18
-2.69202e-18
-2.69209e-18
-2.69199e-18
-2.69204e-18
-2.69202e-18
-2.68026e-18
-2.67879e-18
-2.67717e-18
-2.67771e-18
-2.67786e-18
-2.68685e-18
-2.67737e-18
-2.67678e-18
-2.67817e-18
-2.68369e-18
-2.67825e-18
-2.68341e-18
-2.68002e-18
-2.67538e-18
-2.67763e-18
-2.68664e-18
-2.68555e-18
-2.68352e-18
-2.68535e-18
-2.68237e-18
-2.68452e-18
-2.68191e-18
-2.68844e-18
-2.68641e-18
-2.68575e-18
-2.68201e-18
-2.67993e-18
-2.68286e-18
-2.6865e-18
-2.69048e-18
-2.68147e-18
-2.68316e-18
-2.68625e-18
-2.68619e-18
-2.68533e-18
-2.68659e-18
-2.68593e-18
-2.68268e-18
-2.68326e-18
-2.68336e-18
-2.68947e-18
-2.69246e-18
-2.68589e-18
-2.68452e-18
-2.68723e-18
-2.68431e-18
-2.6835e-18
-2.68412e-18
-2.68408e-18
-2.68565e-18
-2.6852e-18
-2.68768e-18
-2.68421e-18
-2.68309e-18
-2.68116e-18
-2.68191e-18
-2.68449e-18
-2.68648e-18
-2.68586e-18
-2.68534e-18
-2.68599e-18
-2.68481e-18
-2.68473e-18
-2.68432e-18
-2.68428e-18
-2.68476e-18
-2.68581e-18
-2.68603e-18
-2.68538e-18
-2.68489e-18
-2.6857e-18
-2.68584e-18
-2.68618e-18
-2.68634e-18
-2.68602e-18
-2.68631e-18
-2.68628e-18
-2.68579e-18
-2.68575e-18
-2.68607e-18
-2.68579e-18
-2.68584e-18
-2.6857e-18
-2.68539e-18
-2.6856e-18
-2.68558e-18
-2.68537e-18
-2.68539e-18
-2.68519e-18
-2.6852e-18
-2.68527e-18
-2.68514e-18
-2.68518e-18
-2.68524e-18
-2.68529e-18
-2.67424e-18
-2.68237e-18
-2.68706e-18
-2.68982e-18
-2.68397e-18
-2.67989e-18
-2.68277e-18
-2.68356e-18
-2.68798e-18
-2.6905e-18
-2.68671e-18
-2.68649e-18
-2.69179e-18
-2.69537e-18
-2.69127e-18
-2.68466e-18
-2.68123e-18
-2.68575e-18
-2.68454e-18
-2.68729e-18
-2.68734e-18
-2.68386e-18
-2.68287e-18
-2.68281e-18
-2.68411e-18
-2.68676e-18
-2.68476e-18
-2.68457e-18
-2.68319e-18
-2.68388e-18
-2.69105e-18
-2.68792e-18
-2.68535e-18
-2.68792e-18
-2.69204e-18
-2.68953e-18
-2.68864e-18
-2.68605e-18
-2.68641e-18
-2.68925e-18
-2.68735e-18
-2.68881e-18
-2.69056e-18
-2.6849e-18
-2.68821e-18
-2.68806e-18
-2.68643e-18
-2.68962e-18
-2.69191e-18
-2.68908e-18
-2.68967e-18
-2.69136e-18
-2.69118e-18
-2.69001e-18
-2.69197e-18
-2.69047e-18
-2.6922e-18
-2.69252e-18
-2.69014e-18
-2.68762e-18
-2.68952e-18
-2.6915e-18
-2.68988e-18
-2.68944e-18
-2.68951e-18
-2.69082e-18
-2.69113e-18
-2.69069e-18
-2.69004e-18
-2.69105e-18
-2.69128e-18
-2.69005e-18
-2.68926e-18
-2.68913e-18
-2.68922e-18
-2.68908e-18
-2.68839e-18
-2.68908e-18
-2.68967e-18
-2.68958e-18
-2.68914e-18
-2.68925e-18
-2.68925e-18
-2.68927e-18
-2.68909e-18
-2.68905e-18
-2.6892e-18
-2.68933e-18
-2.68923e-18
-2.68922e-18
-2.68922e-18
-2.6892e-18
-2.6891e-18
-2.68907e-18
-2.68914e-18
-2.66168e-18
-2.67155e-18
-2.67148e-18
-2.65811e-18
-2.66303e-18
-2.67196e-18
-2.67607e-18
-2.67338e-18
-2.6763e-18
-2.68244e-18
-2.67544e-18
-2.67475e-18
-2.67378e-18
-2.67247e-18
-2.67076e-18
-2.67574e-18
-2.67646e-18
-2.6741e-18
-2.67535e-18
-2.67635e-18
-2.67336e-18
-2.67292e-18
-2.67543e-18
-2.67728e-18
-2.6763e-18
-2.6782e-18
-2.68035e-18
-2.67986e-18
-2.67974e-18
-2.67709e-18
-2.67923e-18
-2.67599e-18
-2.6758e-18
-2.67859e-18
-2.67743e-18
-2.67687e-18
-2.67803e-18
-2.67979e-18
-2.68144e-18
-2.68089e-18
-2.68744e-18
-2.6882e-18
-2.688e-18
-2.68523e-18
-2.68504e-18
-2.6842e-18
-2.68577e-18
-2.6864e-18
-2.68843e-18
-2.6887e-18
-2.68757e-18
-2.68781e-18
-2.68802e-18
-2.68457e-18
-2.68702e-18
-2.68665e-18
-2.68554e-18
-2.68535e-18
-2.68708e-18
-2.68563e-18
-2.68539e-18
-2.68557e-18
-2.68601e-18
-2.68574e-18
-2.68469e-18
-2.68412e-18
-2.6848e-18
-2.68466e-18
-2.68408e-18
-2.68431e-18
-2.68358e-18
-2.68352e-18
-2.6833e-18
-2.68286e-18
-2.68327e-18
-2.68302e-18
-2.68312e-18
-2.68282e-18
-2.68259e-18
-2.68287e-18
-2.68259e-18
-2.68228e-18
-2.68222e-18
-2.68227e-18
-2.68217e-18
-2.68219e-18
-2.68219e-18
-2.68223e-18
-2.68222e-18
-2.68216e-18
-2.68203e-18
-2.682e-18
-2.682e-18
-2.68202e-18
-2.68203e-18
-2.66471e-18
-2.66563e-18
-2.66276e-18
-2.6657e-18
-2.67223e-18
-2.66969e-18
-2.66611e-18
-2.66472e-18
-2.66765e-18
-2.6738e-18
-2.67879e-18
-2.68179e-18
-2.6798e-18
-2.67919e-18
-2.68296e-18
-2.67989e-18
-2.68102e-18
-2.68721e-18
-2.68492e-18
-2.68301e-18
-2.68423e-18
-2.68618e-18
-2.6847e-18
-2.68433e-18
-2.68811e-18
-2.68682e-18
-2.68012e-18
-2.68167e-18
-2.68327e-18
-2.68453e-18
-2.68553e-18
-2.68224e-18
-2.68071e-18
-2.68356e-18
-2.68381e-18
-2.68339e-18
-2.68159e-18
-2.68637e-18
-2.68936e-18
-2.6847e-18
-2.68225e-18
-2.68085e-18
-2.68342e-18
-2.68658e-18
-2.6888e-18
-2.68826e-18
-2.68872e-18
-2.68984e-18
-2.68752e-18
-2.68757e-18
-2.68935e-18
-2.68896e-18
-2.68809e-18
-2.68704e-18
-2.68937e-18
-2.69071e-18
-2.6899e-18
-2.68894e-18
-2.68784e-18
-2.68837e-18
-2.68784e-18
-2.68705e-18
-2.68621e-18
-2.68732e-18
-2.68708e-18
-2.68652e-18
-2.68573e-18
-2.68561e-18
-2.6866e-18
-2.6859e-18
-2.68673e-18
-2.68697e-18
-2.68658e-18
-2.68556e-18
-2.68474e-18
-2.68467e-18
-2.68468e-18
-2.68534e-18
-2.68563e-18
-2.68506e-18
-2.68469e-18
-2.68462e-18
-2.68442e-18
-2.68459e-18
-2.68476e-18
-2.68451e-18
-2.68431e-18
-2.68423e-18
-2.68447e-18
-2.68441e-18
-2.6843e-18
-2.68428e-18
-2.68428e-18
-2.68429e-18
-2.68429e-18
-2.66795e-18
-2.66664e-18
-2.66445e-18
-2.66849e-18
-2.66441e-18
-2.66251e-18
-2.66387e-18
-2.6664e-18
-2.66232e-18
-2.66482e-18
-2.66718e-18
-2.66614e-18
-2.66496e-18
-2.66877e-18
-2.6713e-18
-2.67363e-18
-2.67485e-18
-2.67009e-18
-2.66614e-18
-2.66771e-18
-2.67091e-18
-2.67344e-18
-2.67767e-18
-2.67828e-18
-2.67488e-18
-2.67405e-18
-2.67486e-18
-2.67607e-18
-2.67475e-18
-2.67337e-18
-2.67516e-18
-2.67325e-18
-2.67249e-18
-2.67476e-18
-2.67771e-18
-2.67874e-18
-2.67903e-18
-2.68293e-18
-2.68324e-18
-2.67868e-18
-2.67558e-18
-2.67789e-18
-2.67918e-18
-2.67557e-18
-2.67738e-18
-2.67661e-18
-2.67702e-18
-2.67676e-18
-2.67705e-18
-2.67756e-18
-2.67804e-18
-2.6771e-18
-2.67667e-18
-2.67751e-18
-2.67778e-18
-2.6775e-18
-2.67671e-18
-2.6766e-18
-2.67761e-18
-2.67867e-18
-2.67859e-18
-2.67669e-18
-2.6776e-18
-2.67747e-18
-2.67741e-18
-2.67835e-18
-2.67664e-18
-2.67705e-18
-2.67617e-18
-2.67586e-18
-2.67695e-18
-2.67685e-18
-2.67652e-18
-2.67633e-18
-2.67613e-18
-2.67574e-18
-2.67564e-18
-2.67588e-18
-2.67611e-18
-2.67601e-18
-2.67572e-18
-2.67552e-18
-2.67563e-18
-2.67569e-18
-2.67545e-18
-2.67545e-18
-2.6754e-18
-2.67556e-18
-2.67556e-18
-2.67541e-18
-2.67541e-18
-2.67547e-18
-2.6755e-18
-2.6755e-18
-2.6755e-18
-2.65658e-18
-2.65258e-18
-2.6567e-18
-2.66051e-18
-2.66769e-18
-2.66683e-18
-2.65927e-18
-2.65961e-18
-2.66309e-18
-2.6633e-18
-2.66358e-18
-2.66173e-18
-2.66729e-18
-2.67189e-18
-2.67145e-18
-2.6732e-18
-2.67109e-18
-2.67105e-18
-2.67308e-18
-2.67252e-18
-2.6712e-18
-2.66997e-18
-2.66467e-18
-2.67031e-18
-2.6732e-18
-2.67216e-18
-2.67164e-18
-2.66944e-18
-2.67526e-18
-2.67404e-18
-2.67294e-18
-2.67314e-18
-2.67344e-18
-2.67268e-18
-2.66969e-18
-2.67348e-18
-2.67726e-18
-2.67274e-18
-2.67433e-18
-2.67134e-18
-2.67321e-18
-2.67442e-18
-2.67501e-18
-2.67466e-18
-2.67535e-18
-2.67669e-18
-2.67563e-18
-2.67434e-18
-2.67574e-18
-2.67399e-18
-2.6751e-18
-2.67539e-18
-2.67625e-18
-2.67686e-18
-2.6757e-18
-2.67511e-18
-2.67552e-18
-2.67523e-18
-2.67521e-18
-2.67498e-18
-2.67499e-18
-2.67459e-18
-2.67504e-18
-2.67539e-18
-2.67576e-18
-2.6752e-18
-2.67485e-18
-2.67479e-18
-2.67518e-18
-2.67451e-18
-2.67381e-18
-2.67449e-18
-2.67408e-18
-2.67357e-18
-2.67413e-18
-2.67405e-18
-2.67394e-18
-2.67417e-18
-2.67417e-18
-2.67375e-18
-2.67379e-18
-2.67382e-18
-2.67346e-18
-2.67348e-18
-2.67369e-18
-2.67366e-18
-2.67373e-18
-2.67361e-18
-2.6736e-18
-2.67355e-18
-2.67357e-18
-2.67367e-18
-2.67369e-18
-2.67365e-18
-2.67365e-18
-2.65356e-18
-2.65967e-18
-2.66106e-18
-2.65905e-18
-2.65949e-18
-2.66086e-18
-2.66312e-18
-2.66535e-18
-2.65873e-18
-2.65758e-18
-2.65848e-18
-2.66035e-18
-2.65905e-18
-2.66181e-18
-2.66126e-18
-2.6595e-18
-2.6626e-18
-2.66256e-18
-2.65459e-18
-2.66083e-18
-2.66586e-18
-2.66144e-18
-2.65468e-18
-2.66009e-18
-2.66354e-18
-2.66423e-18
-2.66485e-18
-2.66412e-18
-2.66587e-18
-2.66173e-18
-2.66162e-18
-2.6598e-18
-2.66142e-18
-2.6633e-18
-2.66469e-18
-2.66003e-18
-2.66122e-18
-2.66481e-18
-2.66759e-18
-2.66402e-18
-2.66115e-18
-2.6606e-18
-2.66225e-18
-2.66152e-18
-2.66358e-18
-2.66462e-18
-2.66497e-18
-2.66585e-18
-2.66728e-18
-2.66693e-18
-2.66515e-18
-2.66639e-18
-2.66649e-18
-2.66734e-18
-2.66584e-18
-2.66684e-18
-2.66778e-18
-2.6675e-18
-2.66789e-18
-2.66622e-18
-2.66719e-18
-2.66843e-18
-2.66654e-18