/*--------------------------------*- C++ -*----------------------------------*\
  =========                 |
  \\      /  F ield         | OpenFOAM: The Open Source CFD Toolbox
   \\    /   O peration     | Website:  https://openfoam.org
    \\  /    A nd           | Version:  7
     \\/     M anipulation  |
\*---------------------------------------------------------------------------*/
FoamFile
{
    version     2.0;
    format      ascii;
    class       volScalarField;
    location    "28000";
    object      nut;
}
// * * * * * * * * * * * * * * * * * * * * * * * * * * * * * * * * * * * * * //

dimensions      [0 2 -1 0 0 0 0];

internalField   nonuniform List<scalar> 
4782
(
4.51615e-06
4.33474e-06
4.15582e-06
3.97944e-06
3.80567e-06
3.63455e-06
3.46616e-06
3.30056e-06
3.13782e-06
2.97802e-06
1.45291e-05
1.42736e-05
1.40193e-05
1.37663e-05
1.35146e-05
1.32642e-05
1.3015e-05
1.27673e-05
1.2521e-05
1.2276e-05
1.20325e-05
1.17905e-05
1.15499e-05
1.13108e-05
1.10732e-05
1.08372e-05
1.06027e-05
1.03698e-05
1.01384e-05
9.90869e-06
9.68061e-06
9.45421e-06
9.22947e-06
9.00494e-06
8.77807e-06
8.55142e-06
8.32624e-06
8.10308e-06
7.88218e-06
7.6636e-06
7.44733e-06
7.23334e-06
7.02159e-06
6.81207e-06
6.60474e-06
6.39959e-06
6.19662e-06
5.99583e-06
5.79723e-06
5.60084e-06
5.40667e-06
5.21477e-06
5.02514e-06
4.83784e-06
4.6529e-06
4.47036e-06
4.29026e-06
4.11266e-06
3.93761e-06
3.76515e-06
3.59536e-06
3.42829e-06
3.26401e-06
3.1026e-06
2.94411e-06
1.44284e-05
1.41739e-05
1.39207e-05
1.36688e-05
1.34181e-05
1.31688e-05
1.29207e-05
1.26741e-05
1.24288e-05
1.2185e-05
1.19426e-05
1.17017e-05
1.14623e-05
1.12244e-05
1.0988e-05
1.07531e-05
1.05198e-05
1.02881e-05
1.0058e-05
9.82943e-06
9.60258e-06
9.37736e-06
9.15383e-06
8.92857e-06
8.70214e-06
8.47653e-06
8.25265e-06
8.03092e-06
7.81149e-06
7.59438e-06
7.37957e-06
7.16702e-06
6.95671e-06
6.74859e-06
6.54266e-06
6.33889e-06
6.13729e-06
5.93787e-06
5.74063e-06
5.54559e-06
5.35279e-06
5.16223e-06
4.97397e-06
4.78802e-06
4.60443e-06
4.42325e-06
4.24451e-06
4.06827e-06
3.89457e-06
3.72348e-06
3.55505e-06
3.38935e-06
3.22643e-06
3.06637e-06
2.90925e-06
1.43251e-05
1.40717e-05
1.38196e-05
1.35687e-05
1.33191e-05
1.30708e-05
1.28239e-05
1.25783e-05
1.23342e-05
1.20915e-05
1.18503e-05
1.16105e-05
1.13723e-05
1.11355e-05
1.09003e-05
1.06667e-05
1.04346e-05
1.02041e-05
9.97517e-06
9.74792e-06
9.5223e-06
9.29836e-06
9.07557e-06
8.84971e-06
8.62381e-06
8.3993e-06
8.17683e-06
7.95664e-06
7.73878e-06
7.52323e-06
7.30996e-06
7.09893e-06
6.89009e-06
6.68343e-06
6.47893e-06
6.27659e-06
6.0764e-06
5.87838e-06
5.68254e-06
5.48891e-06
5.29749e-06
5.10833e-06
4.92146e-06
4.73691e-06
4.55472e-06
4.37493e-06
4.19759e-06
4.02275e-06
3.85045e-06
3.68076e-06
3.51374e-06
3.34943e-06
3.18792e-06
3.02927e-06
2.87355e-06
1.42188e-05
1.39665e-05
1.37154e-05
1.34657e-05
1.32173e-05
1.29702e-05
1.27245e-05
1.24802e-05
1.22373e-05
1.19958e-05
1.17557e-05
1.15172e-05
1.12801e-05
1.10446e-05
1.08106e-05
1.05782e-05
1.03473e-05
1.01181e-05
9.89047e-06
9.66447e-06
9.44015e-06
9.21443e-06
8.98792e-06
8.76219e-06
8.53799e-06
8.31571e-06
8.09551e-06
7.87748e-06
7.66164e-06
7.44798e-06
7.23649e-06
7.02716e-06
6.81997e-06
6.61491e-06
6.41199e-06
6.2112e-06
6.01255e-06
5.81605e-06
5.62173e-06
5.4296e-06
5.23969e-06
5.05203e-06
4.86665e-06
4.68359e-06
4.50289e-06
4.32459e-06
4.14874e-06
3.97539e-06
3.80459e-06
3.63638e-06
3.47084e-06
3.30802e-06
3.14799e-06
2.99082e-06
2.83657e-06
1.42188e-05
1.39665e-05
1.37154e-05
1.34656e-05
1.32172e-05
1.29701e-05
1.27244e-05
1.248e-05
1.22371e-05
1.19957e-05
1.17557e-05
1.15171e-05
1.12801e-05
1.10446e-05
1.08106e-05
1.05782e-05
1.03474e-05
1.01181e-05
9.89052e-06
9.66453e-06
9.44021e-06
9.21441e-06
8.98786e-06
8.76211e-06
8.53791e-06
8.31563e-06
8.09544e-06
7.87741e-06
7.66157e-06
7.44792e-06
7.23643e-06
7.0271e-06
6.81991e-06
6.61486e-06
6.41193e-06
6.21114e-06
6.01249e-06
5.81599e-06
5.62167e-06
5.42954e-06
5.23963e-06
5.05197e-06
4.86659e-06
4.68354e-06
4.50284e-06
4.32455e-06
4.1487e-06
3.97535e-06
3.80455e-06
3.63635e-06
3.47081e-06
3.30799e-06
3.14796e-06
2.99079e-06
2.83655e-06
1.43254e-05
1.40719e-05
1.38197e-05
1.35688e-05
1.33192e-05
1.30709e-05
1.28241e-05
1.25786e-05
1.23345e-05
1.20918e-05
1.18506e-05
1.16108e-05
1.13726e-05
1.11358e-05
1.09006e-05
1.06669e-05
1.04347e-05
1.02042e-05
9.97526e-06
9.74799e-06
9.52234e-06
9.29838e-06
9.07536e-06
8.84942e-06
8.6235e-06
8.39901e-06
8.17656e-06
7.95639e-06
7.73854e-06
7.52301e-06
7.30975e-06
7.09872e-06
6.88989e-06
6.68323e-06
6.47873e-06
6.27639e-06
6.07621e-06
5.87819e-06
5.68235e-06
5.48872e-06
5.29731e-06
5.10815e-06
4.92129e-06
4.73674e-06
4.55456e-06
4.37478e-06
4.19745e-06
4.02262e-06
3.85033e-06
3.68065e-06
3.51364e-06
3.34934e-06
3.18784e-06
3.0292e-06
2.87349e-06
2.72079e-06
2.57118e-06
2.42474e-06
2.28154e-06
1.44287e-05
1.41742e-05
1.39209e-05
1.36689e-05
1.34183e-05
1.31689e-05
1.29209e-05
1.26743e-05
1.2429e-05
1.21852e-05
1.19428e-05
1.17019e-05
1.14625e-05
1.12245e-05
1.0988e-05
1.07531e-05
1.05198e-05
1.0288e-05
1.00579e-05
9.82936e-06
9.60246e-06
9.37723e-06
9.15367e-06
8.9282e-06
8.70171e-06
8.47608e-06
8.25222e-06
8.03051e-06
7.81109e-06
7.59399e-06
7.37919e-06
7.16665e-06
6.95634e-06
6.74823e-06
6.5423e-06
6.33853e-06
6.13694e-06
5.93753e-06
5.7403e-06
5.54527e-06
5.35247e-06
5.16193e-06
4.97367e-06
4.78774e-06
4.60417e-06
4.423e-06
4.24427e-06
4.06805e-06
3.89437e-06
3.72329e-06
3.55488e-06
3.38918e-06
3.22628e-06
3.06624e-06
2.90913e-06
2.75504e-06
2.60403e-06
2.4562e-06
2.31161e-06
2.17028e-06
1.45294e-05
1.42738e-05
1.40194e-05
1.37663e-05
1.35145e-05
1.3264e-05
1.30149e-05
1.27672e-05
1.25208e-05
1.22759e-05
1.20323e-05
1.17902e-05
1.15495e-05
1.13104e-05
1.10728e-05
1.08367e-05
1.06022e-05
1.03693e-05
1.01379e-05
9.9082e-06
9.68011e-06
9.45366e-06
9.22892e-06
9.00445e-06
8.7776e-06
8.55096e-06
8.32577e-06
8.1026e-06
7.88169e-06
7.6631e-06
7.44683e-06
7.23283e-06
7.02109e-06
6.81156e-06
6.60423e-06
6.39909e-06
6.19612e-06
5.99533e-06
5.79674e-06
5.60035e-06
5.40619e-06
5.21429e-06
5.02468e-06
4.83739e-06
4.65245e-06
4.46992e-06
4.28984e-06
4.11225e-06
3.93721e-06
3.76477e-06
3.59499e-06
3.42794e-06
3.26367e-06
3.10227e-06
2.9438e-06
2.78834e-06
2.63598e-06
2.48679e-06
2.34086e-06
2.19821e-06
2.05898e-06
1.92332e-06
1.79133e-06
1.66313e-06
1.5388e-06
1.41848e-06
1.30228e-06
1.19031e-06
1.0827e-06
9.79556e-07
8.80876e-07
7.8605e-07
6.90313e-07
5.97174e-07
5.09415e-07
4.27583e-07
3.52248e-07
2.83978e-07
2.23293e-07
1.70602e-07
1.26124e-07
8.98077e-08
6.12827e-08
3.98475e-08
2.45251e-08
1.41707e-08
7.60353e-09
3.73155e-09
1.63797e-09
6.21254e-10
1.92416e-10
4.40582e-11
6.14442e-12
3.389e-13
2.4861e-15
1.4627e-05
1.43704e-05
1.4115e-05
1.38609e-05
1.36081e-05
1.33565e-05
1.31063e-05
1.28575e-05
1.261e-05
1.2364e-05
1.21193e-05
1.1876e-05
1.16343e-05
1.13941e-05
1.11553e-05
1.09181e-05
1.06824e-05
1.04483e-05
1.02157e-05
9.9848e-06
9.75553e-06
9.52788e-06
9.30194e-06
9.0777e-06
8.85087e-06
8.62344e-06
8.39706e-06
8.17254e-06
7.9502e-06
7.73017e-06
7.51247e-06
7.29706e-06
7.08393e-06
6.87303e-06
6.66434e-06
6.45785e-06
6.25355e-06
6.05143e-06
5.85152e-06
5.65381e-06
5.45834e-06
5.26513e-06
5.07421e-06
4.88561e-06
4.69937e-06
4.51553e-06
4.33413e-06
4.15524e-06
3.97888e-06
3.80513e-06
3.63404e-06
3.46568e-06
3.3001e-06
3.13739e-06
2.97761e-06
2.82084e-06
2.66717e-06
2.51667e-06
2.36944e-06
2.22551e-06
2.08498e-06
1.94803e-06
1.81475e-06
1.68527e-06
1.55968e-06
1.4381e-06
1.32065e-06
1.20745e-06
1.09863e-06
9.94297e-07
8.94469e-07
7.98644e-07
7.02803e-07
6.08523e-07
5.19605e-07
4.36605e-07
3.601e-07
2.90673e-07
2.28861e-07
1.75096e-07
1.29623e-07
9.24226e-08
6.31447e-08
4.11025e-08
2.53199e-08
1.46394e-08
7.85829e-09
3.85719e-09
1.69295e-09
6.4186e-10
1.98651e-10
4.54282e-11
6.32107e-12
3.4705e-13
2.52105e-15
1.47211e-05
1.44635e-05
1.42071e-05
1.39521e-05
1.36982e-05
1.34457e-05
1.31945e-05
1.29446e-05
1.26961e-05
1.2449e-05
1.22033e-05
1.1959e-05
1.17161e-05
1.14748e-05
1.12349e-05
1.09966e-05
1.07598e-05
1.05246e-05
1.0291e-05
1.00589e-05
9.82851e-06
9.59976e-06
9.3727e-06
9.14731e-06
8.92134e-06
8.69349e-06
8.4661e-06
8.2403e-06
8.01658e-06
7.79515e-06
7.57604e-06
7.35926e-06
7.14478e-06
6.93254e-06
6.72254e-06
6.51475e-06
6.30916e-06
6.10577e-06
5.90458e-06
5.70561e-06
5.50887e-06
5.3144e-06
5.12222e-06
4.93235e-06
4.74485e-06
4.55975e-06
4.3771e-06
4.19694e-06
4.01933e-06
3.84431e-06
3.67196e-06
3.50233e-06
3.33549e-06
3.17151e-06
3.01047e-06
2.85244e-06
2.6975e-06
2.54575e-06
2.39726e-06
2.2521e-06
2.11032e-06
1.97211e-06
1.83759e-06
1.70686e-06
1.58005e-06
1.45725e-06
1.33859e-06
1.2242e-06
1.1142e-06
1.00871e-06
9.07765e-07
8.1097e-07
7.15031e-07
6.1964e-07
5.29597e-07
4.45459e-07
3.67816e-07
2.97259e-07
2.34346e-07
1.7953e-07
1.33084e-07
9.50127e-08
6.49925e-08
4.235e-08
2.61111e-08
1.51067e-08
8.11243e-09
3.98258e-09
1.74783e-09
6.62424e-10
2.04871e-10
4.67931e-11
6.49672e-12
3.5512e-13
2.55537e-15
1.48119e-05
1.45533e-05
1.4296e-05
1.404e-05
1.37852e-05
1.35317e-05
1.32795e-05
1.30286e-05
1.27791e-05
1.2531e-05
1.22843e-05
1.2039e-05
1.17951e-05
1.15527e-05
1.13118e-05
1.10724e-05
1.08345e-05
1.05982e-05
1.03635e-05
1.01304e-05
9.89898e-06
9.66914e-06
9.44098e-06
9.21449e-06
8.98919e-06
8.76093e-06
8.53259e-06
8.3056e-06
8.08059e-06
7.85783e-06
7.6374e-06
7.41931e-06
7.20353e-06
6.99002e-06
6.77875e-06
6.56971e-06
6.36288e-06
6.15826e-06
5.95585e-06
5.75566e-06
5.55771e-06
5.36203e-06
5.16863e-06
4.97756e-06
4.78885e-06
4.60254e-06
4.41867e-06
4.2373e-06
4.05847e-06
3.88225e-06
3.70868e-06
3.53784e-06
3.36978e-06
3.20458e-06
3.04232e-06
2.88307e-06
2.72692e-06
2.57395e-06
2.42426e-06
2.2779e-06
2.13491e-06
1.99548e-06
1.85976e-06
1.72783e-06
1.59983e-06
1.47585e-06
1.35602e-06
1.24047e-06
1.12933e-06
1.02272e-06
9.20694e-07
8.2296e-07
7.26914e-07
6.30452e-07
5.39321e-07
4.54086e-07
3.75343e-07
3.03695e-07
2.39715e-07
1.83878e-07
1.36483e-07
9.75624e-08
6.68148e-08
4.35825e-08
2.68939e-08
1.55695e-08
8.36439e-09
4.10697e-09
1.80228e-09
6.82823e-10
2.11037e-10
4.81448e-11
6.6703e-12
3.6306e-13
2.58883e-15
1.48992e-05
1.46398e-05
1.43817e-05
1.41247e-05
1.3869e-05
1.36145e-05
1.33613e-05
1.31095e-05
1.2859e-05
1.26099e-05
1.23621e-05
1.21158e-05
1.1871e-05
1.16276e-05
1.13857e-05
1.11453e-05
1.09064e-05
1.06691e-05
1.04333e-05
1.01992e-05
9.96669e-06
9.73581e-06
9.5066e-06
9.27909e-06
9.05326e-06
8.82533e-06
8.59642e-06
8.36842e-06
8.14221e-06
7.91818e-06
7.69647e-06
7.47711e-06
7.26008e-06
7.04533e-06
6.83285e-06
6.62261e-06
6.41459e-06
6.20879e-06
6.00521e-06
5.80385e-06
5.60474e-06
5.40789e-06
5.21333e-06
5.0211e-06
4.83123e-06
4.64376e-06
4.45873e-06
4.27619e-06
4.09621e-06
3.91881e-06
3.74408e-06
3.57207e-06
3.40285e-06
3.23648e-06
3.07305e-06
2.91263e-06
2.75531e-06
2.60117e-06
2.45031e-06
2.30279e-06
2.15865e-06
2.01806e-06
1.88118e-06
1.7481e-06
1.61895e-06
1.49384e-06
1.37288e-06
1.25622e-06
1.14398e-06
1.03629e-06
9.33224e-07
8.34589e-07
7.38443e-07
6.40949e-07
5.4877e-07
4.62476e-07
3.8267e-07
3.09967e-07
2.44955e-07
1.88128e-07
1.39812e-07
1.00063e-07
6.86052e-08
4.47954e-08
2.76653e-08
1.60262e-08
8.61319e-09
4.22985e-09
1.85608e-09
7.02976e-10
2.17125e-10
4.94781e-11
6.84118e-12
3.70846e-13
2.62137e-15
1.49827e-05
1.47225e-05
1.44634e-05
1.42056e-05
1.3949e-05
1.36937e-05
1.34396e-05
1.31869e-05
1.29354e-05
1.26853e-05
1.24367e-05
1.21894e-05
1.19436e-05
1.16992e-05
1.14563e-05
1.12149e-05
1.09751e-05
1.07368e-05
1.05001e-05
1.0265e-05
1.00315e-05
9.79958e-06
9.56937e-06
9.34086e-06
9.11401e-06
8.88678e-06
8.6575e-06
8.42859e-06
8.20126e-06
7.97602e-06
7.75307e-06
7.53249e-06
7.31425e-06
7.09833e-06
6.88468e-06
6.67329e-06
6.46414e-06
6.25721e-06
6.0525e-06
5.85003e-06
5.6498e-06
5.45185e-06
5.25618e-06
5.06284e-06
4.87186e-06
4.68328e-06
4.49715e-06
4.3135e-06
4.1324e-06
3.9539e-06
3.77806e-06
3.60493e-06
3.43459e-06
3.26711e-06
3.10256e-06
2.94103e-06
2.78259e-06
2.62733e-06
2.47535e-06
2.32672e-06
2.18148e-06
2.03979e-06
1.90179e-06
1.76761e-06
1.63736e-06
1.51116e-06
1.38913e-06
1.2714e-06
1.15811e-06
1.04938e-06
9.45308e-07
8.45809e-07
7.49566e-07
6.51082e-07
5.57898e-07
4.70589e-07
3.89763e-07
3.16047e-07
2.5004e-07
1.9226e-07
1.43053e-07
1.02502e-07
7.03547e-08
4.59824e-08
2.84214e-08
1.64742e-08
8.85749e-09
4.35057e-09
1.90894e-09
7.22775e-10
2.23103e-10
5.0786e-11
7.0085e-12
3.78441e-13
2.65285e-15
1.50622e-05
1.48012e-05
1.45413e-05
1.42826e-05
1.40251e-05
1.37689e-05
1.35139e-05
1.32603e-05
1.3008e-05
1.27571e-05
1.25076e-05
1.22594e-05
1.20127e-05
1.17675e-05
1.15237e-05
1.12815e-05
1.10407e-05
1.08015e-05
1.05639e-05
1.03278e-05
1.00934e-05
9.86055e-06
9.62939e-06
9.39989e-06
9.17206e-06
8.94533e-06
8.71564e-06
8.48589e-06
8.25751e-06
8.03114e-06
7.80705e-06
7.58531e-06
7.36594e-06
7.1489e-06
6.93415e-06
6.72167e-06
6.51144e-06
6.30344e-06
6.09767e-06
5.89414e-06
5.69286e-06
5.49385e-06
5.29714e-06
5.10275e-06
4.91072e-06
4.72108e-06
4.5339e-06
4.3492e-06
4.16704e-06
3.98748e-06
3.81058e-06
3.63639e-06
3.46499e-06
3.29644e-06
3.13083e-06
2.96822e-06
2.80871e-06
2.65239e-06
2.49934e-06
2.34965e-06
2.20336e-06
2.0606e-06
1.92155e-06
1.78631e-06
1.65501e-06
1.52777e-06
1.4047e-06
1.28595e-06
1.17165e-06
1.06193e-06
9.56897e-07
8.56544e-07
7.60023e-07
6.60802e-07
5.66661e-07
4.78384e-07
3.96586e-07
3.21901e-07
2.54945e-07
1.96251e-07
1.46189e-07
1.04867e-07
7.20531e-08
4.71366e-08
2.91576e-08
1.6911e-08
9.09581e-09
4.4684e-09
1.96054e-09
7.42098e-10
2.28935e-10
5.20605e-11
7.17125e-12
3.85799e-13
2.68309e-15
1.51373e-05
1.48755e-05
1.46149e-05
1.43554e-05
1.40972e-05
1.38402e-05
1.35845e-05
1.33301e-05
1.3077e-05
1.28253e-05
1.2575e-05
1.23261e-05
1.20786e-05
1.18325e-05
1.15879e-05
1.13448e-05
1.11032e-05
1.08631e-05
1.06246e-05
1.03877e-05
1.01524e-05
9.91866e-06
9.68659e-06
9.45617e-06
9.22744e-06
9.00041e-06
8.77054e-06
8.54013e-06
8.31084e-06
8.08345e-06
7.8583e-06
7.63549e-06
7.41505e-06
7.19695e-06
6.98116e-06
6.76765e-06
6.55639e-06
6.34738e-06
6.1406e-06
5.93607e-06
5.73379e-06
5.53378e-06
5.33607e-06
5.14068e-06
4.94765e-06
4.75703e-06
4.56884e-06
4.38314e-06
4.19999e-06
4.01942e-06
3.84151e-06
3.66632e-06
3.4939e-06
3.32435e-06
3.15772e-06
2.9941e-06
2.83357e-06
2.67623e-06
2.52217e-06
2.37147e-06
2.22418e-06
2.08041e-06
1.94035e-06
1.80411e-06
1.67181e-06
1.54357e-06
1.41953e-06
1.29981e-06
1.18454e-06
1.07387e-06
9.67914e-07
8.66662e-07
7.69352e-07
6.70019e-07
5.74982e-07
4.85796e-07
4.03082e-07
3.27484e-07
2.5963e-07
2.00069e-07
1.49194e-07
1.07137e-07
7.36867e-08
4.82485e-08
2.98677e-08
1.73327e-08
9.32616e-09
4.58233e-09
2.01045e-09
7.60785e-10
2.34571e-10
5.32911e-11
7.32806e-12
3.92859e-13
2.71178e-15
1.52086e-05
1.4946e-05
1.46846e-05
1.44244e-05
1.41655e-05
1.39078e-05
1.36514e-05
1.33962e-05
1.31423e-05
1.28899e-05
1.26388e-05
1.23891e-05
1.21408e-05
1.18939e-05
1.16485e-05
1.14045e-05
1.11621e-05
1.09212e-05
1.06818e-05
1.0444e-05
1.02078e-05
9.97324e-06
9.74032e-06
9.50905e-06
9.27948e-06
9.0516e-06
8.82216e-06
8.59136e-06
8.36128e-06
8.13295e-06
7.90678e-06
7.68295e-06
7.46149e-06
7.24238e-06
7.0256e-06
6.81111e-06
6.59889e-06
6.38892e-06
6.18119e-06
5.97571e-06
5.77249e-06
5.57154e-06
5.37288e-06
5.17655e-06
4.98258e-06
4.79101e-06
4.60188e-06
4.41524e-06
4.23113e-06
4.04962e-06
3.87076e-06
3.69461e-06
3.52124e-06
3.35073e-06
3.18314e-06
3.01857e-06
2.85708e-06
2.69878e-06
2.54376e-06
2.39211e-06
2.24388e-06
2.09916e-06
1.95814e-06
1.82095e-06
1.68771e-06
1.55854e-06
1.43357e-06
1.31293e-06
1.19676e-06
1.0852e-06
9.78364e-07
8.76265e-07
7.78212e-07
6.78781e-07
5.82897e-07
4.92851e-07
4.09271e-07
3.32808e-07
2.64102e-07
2.03719e-07
1.52071e-07
1.09313e-07
7.52549e-08
4.93174e-08
3.05512e-08
1.77391e-08
9.54823e-09
4.69222e-09
2.05859e-09
7.78808e-10
2.40005e-10
5.44765e-11
7.47888e-12
3.99627e-13
2.7391e-15
1.52755e-05
1.50123e-05
1.47502e-05
1.44893e-05
1.42296e-05
1.39712e-05
1.3714e-05
1.34582e-05
1.32036e-05
1.29504e-05
1.26985e-05
1.2448e-05
1.21989e-05
1.19513e-05
1.17051e-05
1.14604e-05
1.12172e-05
1.09756e-05
1.07354e-05
1.04969e-05
1.02599e-05
1.00245e-05
9.79077e-06
9.55868e-06
9.32827e-06
9.09959e-06
8.87053e-06
8.63937e-06
8.40858e-06
8.17937e-06
7.95227e-06
7.72748e-06
7.50507e-06
7.28502e-06
7.06731e-06
6.85191e-06
6.63878e-06
6.42791e-06
6.21928e-06
6.01291e-06
5.8088e-06
5.60697e-06
5.40743e-06
5.21021e-06
5.01536e-06
4.8229e-06
4.63289e-06
4.44535e-06
4.26036e-06
4.07796e-06
3.8982e-06
3.72116e-06
3.5469e-06
3.3755e-06
3.20702e-06
3.04154e-06
2.87916e-06
2.71997e-06
2.56405e-06
2.41151e-06
2.26241e-06
2.11679e-06
1.97488e-06
1.8368e-06
1.70268e-06
1.57264e-06
1.4468e-06
1.32529e-06
1.20827e-06
1.09587e-06
9.8821e-07
8.85314e-07
7.86563e-07
6.87034e-07
5.90357e-07
4.99507e-07
4.15116e-07
3.37841e-07
2.68334e-07
2.07178e-07
1.54801e-07
1.11381e-07
7.67475e-08
5.03361e-08
3.12034e-08
1.81272e-08
9.76051e-09
4.79732e-09
2.10464e-09
7.96045e-10
2.452e-10
5.56087e-11
7.62271e-12
4.0606e-13
2.76487e-15
1.53374e-05
1.50736e-05
1.48109e-05
1.45494e-05
1.42891e-05
1.403e-05
1.37721e-05
1.35156e-05
1.32604e-05
1.30064e-05
1.27539e-05
1.25028e-05
1.22531e-05
1.20048e-05
1.17579e-05
1.15125e-05
1.12685e-05
1.10261e-05
1.07852e-05
1.05459e-05
1.03082e-05
1.00721e-05
9.83768e-06
9.60488e-06
9.37374e-06
9.1443e-06
8.91559e-06
8.6841e-06
8.45265e-06
8.22262e-06
7.99465e-06
7.76897e-06
7.54567e-06
7.32475e-06
7.10618e-06
6.88992e-06
6.67594e-06
6.46423e-06
6.25478e-06
6.04758e-06
5.84265e-06
5.63999e-06
5.43963e-06
5.2416e-06
5.04593e-06
4.85265e-06
4.66182e-06
4.47346e-06
4.28765e-06
4.10442e-06
3.92384e-06
3.74598e-06
3.57089e-06
3.39865e-06
3.22934e-06
3.06303e-06
2.89982e-06
2.73979e-06
2.58304e-06
2.42966e-06
2.27974e-06
2.13329e-06
1.99054e-06
1.85164e-06
1.7167e-06
1.58583e-06
1.45918e-06
1.33687e-06
1.21906e-06
1.10587e-06
9.9744e-07
8.938e-07
7.94397e-07
6.94777e-07
5.97359e-07
5.05757e-07
4.20607e-07
3.42574e-07
2.72319e-07
2.10438e-07
1.57378e-07
1.13335e-07
7.81596e-08
5.13011e-08
3.18218e-08
1.84955e-08
9.9621e-09
4.89716e-09
2.14839e-09
8.12422e-10
2.50134e-10
5.66834e-11
7.75904e-12
4.1214e-13
2.7891e-15
1.53946e-05
1.51302e-05
1.48669e-05
1.46049e-05
1.4344e-05
1.40843e-05
1.38259e-05
1.35688e-05
1.33129e-05
1.30584e-05
1.28052e-05
1.25534e-05
1.2303e-05
1.2054e-05
1.18064e-05
1.15604e-05
1.13158e-05
1.10728e-05
1.08313e-05
1.05913e-05
1.03529e-05
1.01162e-05
9.881e-06
9.64749e-06
9.41567e-06
9.18557e-06
8.95718e-06
8.72539e-06
8.49335e-06
8.2626e-06
8.03383e-06
7.80734e-06
7.58323e-06
7.3615e-06
7.14213e-06
6.92508e-06
6.71033e-06
6.49785e-06
6.28763e-06
6.07967e-06
5.87397e-06
5.67055e-06
5.46944e-06
5.27065e-06
5.07422e-06
4.88018e-06
4.68859e-06
4.49948e-06
4.3129e-06
4.12891e-06
3.94757e-06
3.76894e-06
3.59309e-06
3.42009e-06
3.25001e-06
3.08293e-06
2.91895e-06
2.75815e-06
2.60063e-06
2.44648e-06
2.29579e-06
2.14859e-06
2.00508e-06
1.86541e-06
1.7297e-06
1.59808e-06
1.47068e-06
1.34763e-06
1.22908e-06
1.11516e-06
1.00602e-06
9.0169e-07
8.01686e-07
7.01984e-07
6.03879e-07
5.1158e-07
4.25725e-07
3.46988e-07
2.76038e-07
2.13483e-07
1.59787e-07
1.15164e-07
7.94833e-08
5.22066e-08
3.24028e-08
1.88419e-08
1.01518e-08
4.99112e-09
2.18958e-09
8.27837e-10
2.54777e-10
5.76939e-11
7.88707e-12
4.17837e-13
2.81168e-15
1.54469e-05
1.5182e-05
1.49182e-05
1.46556e-05
1.43942e-05
1.4134e-05
1.3875e-05
1.36173e-05
1.33608e-05
1.31058e-05
1.28521e-05
1.25997e-05
1.23487e-05
1.20991e-05
1.1851e-05
1.16043e-05
1.13591e-05
1.11154e-05
1.08733e-05
1.06327e-05
1.03938e-05
1.01564e-05
9.92063e-06
9.68651e-06
9.45405e-06
9.2233e-06
8.99427e-06
8.7629e-06
8.53061e-06
8.29928e-06
8.06981e-06
7.84257e-06
7.6177e-06
7.39521e-06
7.1751e-06
6.95732e-06
6.74184e-06
6.52865e-06
6.31772e-06
6.10906e-06
5.90267e-06
5.69856e-06
5.49675e-06
5.29727e-06
5.10015e-06
4.90543e-06
4.71314e-06
4.52333e-06
4.33606e-06
4.15138e-06
3.96934e-06
3.79001e-06
3.61346e-06
3.43975e-06
3.26897e-06
3.10119e-06
2.9365e-06
2.77499e-06
2.61676e-06
2.46191e-06
2.31052e-06
2.16262e-06
2.01841e-06
1.87804e-06
1.74163e-06
1.60932e-06
1.48123e-06
1.3575e-06
1.23827e-06
1.12369e-06
1.0139e-06
9.08935e-07
8.08379e-07
7.08595e-07
6.09864e-07
5.16928e-07
4.30431e-07
3.51051e-07
2.79464e-07
2.16292e-07
1.62012e-07
1.16856e-07
8.07087e-08
5.30459e-08
3.29418e-08
1.91634e-08
1.0328e-08
5.07846e-09
2.22787e-09
8.42166e-10
2.59091e-10
5.86322e-11
8.0058e-12
4.23104e-13
2.83242e-15
1.54941e-05
1.52287e-05
1.49645e-05
1.47014e-05
1.44395e-05
1.41787e-05
1.39193e-05
1.36611e-05
1.34042e-05
1.31486e-05
1.28943e-05
1.26414e-05
1.23899e-05
1.21398e-05
1.18911e-05
1.16439e-05
1.13982e-05
1.1154e-05
1.09113e-05
1.06702e-05
1.04307e-05
1.01927e-05
9.9564e-06
9.72173e-06
9.48873e-06
9.25744e-06
9.02784e-06
8.79687e-06
8.56437e-06
8.33254e-06
8.10243e-06
7.87451e-06
7.64894e-06
7.42577e-06
7.20498e-06
6.98654e-06
6.77042e-06
6.55658e-06
6.34502e-06
6.13573e-06
5.92871e-06
5.72397e-06
5.52154e-06
5.32144e-06
5.12369e-06
4.92834e-06
4.73543e-06
4.545e-06
4.3571e-06
4.17179e-06
3.98912e-06
3.80916e-06
3.63197e-06
3.45763e-06
3.28621e-06
3.11779e-06
2.95246e-06
2.79031e-06
2.63144e-06
2.47595e-06
2.32392e-06
2.17539e-06
2.03054e-06
1.88953e-06
1.75249e-06
1.61955e-06
1.49083e-06
1.36648e-06
1.24664e-06
1.13146e-06
1.02107e-06
9.15535e-07
8.1448e-07
7.14625e-07
6.15323e-07
5.21808e-07
4.34726e-07
3.54761e-07
2.82596e-07
2.18861e-07
1.64049e-07
1.18406e-07
8.18328e-08
5.38165e-08
3.34371e-08
1.94591e-08
1.04901e-08
5.15884e-09
2.26311e-09
8.55353e-10
2.6306e-10
5.94951e-11
8.11488e-12
4.27933e-13
2.85137e-15
1.55363e-05
1.52705e-05
1.50058e-05
1.47424e-05
1.448e-05
1.42189e-05
1.39589e-05
1.37002e-05
1.34429e-05
1.31868e-05
1.2932e-05
1.26787e-05
1.24266e-05
1.21761e-05
1.19269e-05
1.16793e-05
1.14331e-05
1.11884e-05
1.09453e-05
1.07037e-05
1.04637e-05
1.02253e-05
9.98854e-06
9.75338e-06
9.51989e-06
9.28807e-06
9.05797e-06
8.82724e-06
8.59451e-06
8.36223e-06
8.13158e-06
7.90306e-06
7.67689e-06
7.45312e-06
7.23173e-06
7.0127e-06
6.796e-06
6.58159e-06
6.36946e-06
6.15961e-06
5.95203e-06
5.74673e-06
5.54374e-06
5.34308e-06
5.14478e-06
4.94887e-06
4.75539e-06
4.5644e-06
4.37594e-06
4.19006e-06
4.00683e-06
3.8263e-06
3.64854e-06
3.47363e-06
3.30164e-06
3.13266e-06
2.96676e-06
2.80404e-06
2.6446e-06
2.48853e-06
2.33593e-06
2.18684e-06
2.04142e-06
1.89984e-06
1.76224e-06
1.62873e-06
1.49946e-06
1.37455e-06
1.25416e-06
1.13844e-06
1.02751e-06
9.21464e-07
8.1996e-07
7.20038e-07
6.20225e-07
5.26192e-07
4.38588e-07
3.58098e-07
2.85415e-07
2.21176e-07
1.65886e-07
1.19805e-07
8.28482e-08
5.45132e-08
3.38853e-08
1.97269e-08
1.06369e-08
5.23168e-09
2.29505e-09
8.67305e-10
2.66656e-10
6.02765e-11
8.21356e-12
4.32294e-13
2.8684e-15
1.55735e-05
1.53074e-05
1.50424e-05
1.47785e-05
1.45158e-05
1.42542e-05
1.39939e-05
1.37348e-05
1.34771e-05
1.32206e-05
1.29655e-05
1.27118e-05
1.24594e-05
1.22084e-05
1.19589e-05
1.17107e-05
1.14641e-05
1.1219e-05
1.09754e-05
1.07333e-05
1.04928e-05
1.0254e-05
1.00167e-05
9.78112e-06
9.54719e-06
9.31497e-06
9.08446e-06
8.85396e-06
8.62104e-06
8.38838e-06
8.15724e-06
7.9282e-06
7.70151e-06
7.47721e-06
7.2553e-06
7.03576e-06
6.81854e-06
6.60363e-06
6.391e-06
6.18065e-06
5.97257e-06
5.76679e-06
5.5633e-06
5.36215e-06
5.16336e-06
4.96695e-06
4.77299e-06
4.5815e-06
4.39255e-06
4.20617e-06
4.02244e-06
3.84141e-06
3.66316e-06
3.48775e-06
3.31526e-06
3.14577e-06
2.97936e-06
2.81614e-06
2.6562e-06
2.49963e-06
2.34652e-06
2.19694e-06
2.05102e-06
1.90894e-06
1.77083e-06
1.63683e-06
1.50706e-06
1.38167e-06
1.2608e-06
1.1446e-06
1.0332e-06
9.267e-07
8.24802e-07
7.24822e-07
6.2456e-07
5.3007e-07
4.42005e-07
3.61053e-07
2.87911e-07
2.23227e-07
1.67514e-07
1.21047e-07
8.375e-08
5.51325e-08
3.42839e-08
1.99651e-08
1.07677e-08
5.29654e-09
2.32349e-09
8.77948e-10
2.69859e-10
6.0972e-11
8.30132e-12
4.36165e-13
2.88347e-15
1.56053e-05
1.53388e-05
1.50735e-05
1.48093e-05
1.45462e-05
1.42844e-05
1.40238e-05
1.37645e-05
1.35064e-05
1.32496e-05
1.29941e-05
1.274e-05
1.24872e-05
1.22359e-05
1.1986e-05
1.17375e-05
1.14906e-05
1.12451e-05
1.10011e-05
1.07587e-05
1.05179e-05
1.02787e-05
1.00411e-05
9.8051e-06
9.57079e-06
9.33817e-06
9.10728e-06
8.87699e-06
8.64392e-06
8.41091e-06
8.17936e-06
7.94988e-06
7.72272e-06
7.49797e-06
7.27561e-06
7.05563e-06
6.83797e-06
6.62263e-06
6.40957e-06
6.19879e-06
5.99029e-06
5.78408e-06
5.58017e-06
5.37859e-06
5.17937e-06
4.98254e-06
4.78815e-06
4.59624e-06
4.40686e-06
4.22006e-06
4.0359e-06
3.85444e-06
3.67576e-06
3.49991e-06
3.32699e-06
3.15707e-06
2.99023e-06
2.82658e-06
2.6662e-06
2.5092e-06
2.35566e-06
2.20565e-06
2.05929e-06
1.91678e-06
1.77825e-06
1.64382e-06
1.51362e-06
1.38781e-06
1.26652e-06
1.14991e-06
1.03811e-06
9.31216e-07
8.28977e-07
7.28944e-07
6.28297e-07
5.33415e-07
4.44953e-07
3.63603e-07
2.90068e-07
2.25e-07
1.68923e-07
1.22122e-07
8.45315e-08
5.56696e-08
3.46299e-08
2.0172e-08
1.08813e-08
5.3529e-09
2.34821e-09
8.87198e-10
2.72641e-10
6.1576e-11
8.37747e-12
4.39519e-13
2.89647e-15
1.56316e-05
1.53648e-05
1.50992e-05
1.48347e-05
1.45715e-05
1.43094e-05
1.40486e-05
1.3789e-05
1.35307e-05
1.32736e-05
1.30179e-05
1.27635e-05
1.25106e-05
1.22589e-05
1.20088e-05
1.176e-05
1.15128e-05
1.12671e-05
1.10228e-05
1.07801e-05
1.0539e-05
1.02994e-05
1.00615e-05
9.82525e-06
9.59064e-06
9.35772e-06
9.12651e-06
8.89628e-06
8.66303e-06
8.42974e-06
8.19784e-06
7.968e-06
7.74047e-06
7.51534e-06
7.29261e-06
7.07225e-06
6.85424e-06
6.63853e-06
6.42511e-06
6.21398e-06
6.00512e-06
5.79856e-06
5.5943e-06
5.39237e-06
5.19279e-06
4.99561e-06
4.80087e-06
4.6086e-06
4.41886e-06
4.23171e-06
4.04719e-06
3.86538e-06
3.68633e-06
3.51013e-06
3.33684e-06
3.16656e-06
2.99936e-06
2.83534e-06
2.6746e-06
2.51723e-06
2.36333e-06
2.21296e-06
2.06624e-06
1.92337e-06
1.78447e-06
1.64968e-06
1.51914e-06
1.39297e-06
1.27133e-06
1.15437e-06
1.04224e-06
9.35016e-07
8.32492e-07
7.3242e-07
6.31447e-07
5.36234e-07
4.47437e-07
3.65753e-07
2.91886e-07
2.26495e-07
1.70112e-07
1.23029e-07
8.51912e-08
5.61232e-08
3.49221e-08
2.03469e-08
1.09773e-08
5.40056e-09
2.36912e-09
8.9502e-10
2.74993e-10
6.20866e-11
8.44182e-12
4.4235e-13
2.90744e-15
1.56529e-05
1.53859e-05
1.51201e-05
1.48554e-05
1.45919e-05
1.43296e-05
1.40686e-05
1.38087e-05
1.35501e-05
1.32928e-05
1.30368e-05
1.27823e-05
1.2529e-05
1.22772e-05
1.20268e-05
1.17778e-05
1.15303e-05
1.12844e-05
1.10399e-05
1.0797e-05
1.05557e-05
1.03159e-05
1.00778e-05
9.84129e-06
9.60643e-06
9.37328e-06
9.14182e-06
8.9118e-06
8.67846e-06
8.44494e-06
8.21274e-06
7.98258e-06
7.75474e-06
7.5293e-06
7.30626e-06
7.0856e-06
6.86729e-06
6.65129e-06
6.43759e-06
6.22617e-06
6.01703e-06
5.81017e-06
5.60563e-06
5.40341e-06
5.20356e-06
5.00609e-06
4.81106e-06
4.61851e-06
4.42848e-06
4.24104e-06
4.05624e-06
3.87414e-06
3.6948e-06
3.51831e-06
3.34474e-06
3.17416e-06
3.00668e-06
2.84237e-06
2.68133e-06
2.52367e-06
2.36948e-06
2.21883e-06
2.07182e-06
1.92865e-06
1.78947e-06
1.65439e-06
1.52356e-06
1.39711e-06
1.27519e-06
1.15795e-06
1.04554e-06
9.38062e-07
8.3531e-07
7.352e-07
6.33968e-07
5.38491e-07
4.49428e-07
3.67477e-07
2.93345e-07
2.27696e-07
1.71067e-07
1.23758e-07
8.57223e-08
5.64884e-08
3.51577e-08
2.04879e-08
1.10547e-08
5.439e-09
2.38598e-09
9.01329e-10
2.76891e-10
6.24982e-11
8.49366e-12
4.44628e-13
2.91623e-15
1.56687e-05
1.54016e-05
1.51356e-05
1.48708e-05
1.46071e-05
1.43445e-05
1.40833e-05
1.38232e-05
1.35645e-05
1.33071e-05
1.3051e-05
1.27962e-05
1.25429e-05
1.22909e-05
1.20403e-05
1.17912e-05
1.15436e-05
1.12975e-05
1.10529e-05
1.08098e-05
1.05683e-05
1.03284e-05
1.00901e-05
9.85344e-06
9.61842e-06
9.38508e-06
9.15344e-06
8.92347e-06
8.69003e-06
8.45634e-06
8.22394e-06
7.99356e-06
7.76548e-06
7.53981e-06
7.31655e-06
7.09567e-06
6.87713e-06
6.66091e-06
6.44699e-06
6.23535e-06
6.026e-06
5.81893e-06
5.61417e-06
5.41174e-06
5.21167e-06
5.01399e-06
4.81875e-06
4.62598e-06
4.43574e-06
4.24808e-06
4.06306e-06
3.88074e-06
3.70119e-06
3.52448e-06
3.35069e-06
3.17989e-06
3.01219e-06
2.84766e-06
2.68641e-06
2.52853e-06
2.37413e-06
2.22326e-06
2.07603e-06
1.93265e-06
1.79325e-06
1.65795e-06
1.52691e-06
1.40024e-06
1.27811e-06
1.16067e-06
1.04805e-06
9.40372e-07
8.37447e-07
7.37314e-07
6.35883e-07
5.40206e-07
4.50941e-07
3.68786e-07
2.94452e-07
2.28607e-07
1.71792e-07
1.24312e-07
8.61251e-08
5.67656e-08
3.53364e-08
2.05948e-08
1.11135e-08
5.46818e-09
2.39878e-09
9.06119e-10
2.78331e-10
6.28107e-11
8.53301e-12
4.46357e-13
2.92291e-15
1.56796e-05
1.54124e-05
1.51462e-05
1.48813e-05
1.46174e-05
1.43548e-05
1.40934e-05
1.38333e-05
1.35744e-05
1.33169e-05
1.30606e-05
1.28057e-05
1.25522e-05
1.23001e-05
1.20495e-05
1.18002e-05
1.15525e-05
1.13062e-05
1.10615e-05
1.08183e-05
1.05766e-05
1.03366e-05
1.00982e-05
9.86137e-06
9.62624e-06
9.39277e-06
9.16102e-06
8.931e-06
8.69774e-06
8.46401e-06
8.23149e-06
8.00094e-06
7.7727e-06
7.54686e-06
7.32344e-06
7.1024e-06
6.88372e-06
6.66735e-06
6.45329e-06
6.2415e-06
6.032e-06
5.8248e-06
5.6199e-06
5.41733e-06
5.21711e-06
5.01929e-06
4.82391e-06
4.631e-06
4.44062e-06
4.25281e-06
4.06765e-06
3.88519e-06
3.70549e-06
3.52864e-06
3.3547e-06
3.18376e-06
3.01591e-06
2.85123e-06
2.68983e-06
2.5318e-06
2.37725e-06
2.22624e-06
2.07886e-06
1.93533e-06
1.79578e-06
1.66034e-06
1.52915e-06
1.40234e-06
1.28007e-06
1.16248e-06
1.04973e-06
9.41915e-07
8.38874e-07
7.3872e-07
6.37159e-07
5.41348e-07
4.51948e-07
3.69659e-07
2.95191e-07
2.29216e-07
1.72276e-07
1.24682e-07
8.63946e-08
5.69511e-08
3.5456e-08
2.06665e-08
1.11529e-08
5.48773e-09
2.40736e-09
9.09328e-10
2.79296e-10
6.302e-11
8.55936e-12
4.47514e-13
2.92738e-15
1.56852e-05
1.54179e-05
1.51517e-05
1.48867e-05
1.46229e-05
1.43603e-05
1.4099e-05
1.38388e-05
1.35799e-05
1.33222e-05
1.30659e-05
1.28109e-05
1.25573e-05
1.23051e-05
1.20543e-05
1.1805e-05
1.15572e-05
1.13108e-05
1.1066e-05
1.08228e-05
1.0581e-05
1.03409e-05
1.01024e-05
9.86555e-06
9.63034e-06
9.39683e-06
9.165e-06
8.93488e-06
8.70158e-06
8.4678e-06
8.23521e-06
8.0046e-06
7.77629e-06
7.55039e-06
7.32689e-06
7.10579e-06
6.88703e-06
6.67059e-06
6.45645e-06
6.2446e-06
6.03503e-06
5.82775e-06
5.62278e-06
5.42014e-06
5.21986e-06
5.02197e-06
4.82651e-06
4.63353e-06
4.44308e-06
4.2552e-06
4.06997e-06
3.88743e-06
3.70767e-06
3.53074e-06
3.35673e-06
3.18572e-06
3.01779e-06
2.85304e-06
2.69156e-06
2.53346e-06
2.37883e-06
2.22775e-06
2.08029e-06
1.93669e-06
1.79706e-06
1.66155e-06