/*--------------------------------*- C++ -*----------------------------------*\
  =========                 |
  \\      /  F ield         | OpenFOAM: The Open Source CFD Toolbox
   \\    /   O peration     | Website:  https://openfoam.org
    \\  /    A nd           | Version:  7
     \\/     M anipulation  |
\*---------------------------------------------------------------------------*/
FoamFile
{
    version     2.0;
    format      ascii;
    class       surfaceScalarField;
    location    "76000";
    object      phi;
}
// * * * * * * * * * * * * * * * * * * * * * * * * * * * * * * * * * * * * * //

dimensions      [0 3 -1 0 0 0 0];

internalField   nonuniform List<scalar> 
9444
(
-3.69286e-24
-2.08592e-24
2.68187e-23
7.17623e-24
-1.1515e-23
2.04588e-24
4.7549e-26
-7.13943e-24
-1.12535e-24
-1.02808e-24
-2.57769e-23
-1.07261e-23
9.73492e-25
-8.65589e-24
-8.53069e-24
-5.45904e-24
-2.26402e-23
-1.35532e-23
-1.3223e-23
-1.49882e-23
-3.8663e-24
-9.56451e-24
-1.90729e-23
2.74488e-24
-5.17449e-24
1.06117e-23
1.58068e-24
-8.48569e-25
-1.21291e-23
-1.76317e-23
-2.22083e-24
-2.25746e-23
-7.51783e-24
8.30483e-24
-2.8946e-23
3.74731e-25
2.14607e-24
-2.14064e-23
6.87631e-24
-4.91014e-24
-2.85413e-23
9.8519e-24
-3.72735e-24
-1.82568e-23
1.76375e-23
1.02862e-24
6.504e-24
1.75725e-23
-9.64709e-24
-1.49959e-23
1.22187e-23
-2.61917e-23
-2.37797e-23
1.29521e-24
-3.23302e-23
2.43271e-24
7.79032e-24
-3.12163e-23
-3.03685e-24
1.03038e-23
-3.65541e-23
-1.46996e-23
2.18546e-23
-3.77404e-23
3.58652e-23
-3.11826e-23
-1.05006e-23
-2.02139e-23
3.51717e-23
-2.46971e-23
-2.67964e-23
-2.55582e-23
-1.75098e-23
-2.19388e-23
-7.30566e-24
-2.2214e-23
-1.38024e-23
-2.1348e-23
-6.13206e-24
-2.2578e-23
-1.08987e-23
-2.33228e-23
-4.40843e-24
-3.08769e-23
1.42302e-24
9.95065e-25
9.58597e-24
-7.47254e-24
-4.88999e-24
-1.45807e-23
-6.63244e-24
-1.31487e-23
7.61091e-24
-1.6342e-23
3.95904e-24
-1.19258e-23
6.40699e-24
-3.2434e-24
3.51684e-24
-3.24421e-23
6.73518e-24
-1.30139e-23
1.94518e-23
9.87967e-24
2.48029e-23
1.84806e-23
3.42664e-23
1.02212e-23
3.21118e-23
2.57903e-23
-2.33713e-23
3.33073e-24
5.22586e-23
-9.96073e-24
8.85572e-24
-1.43418e-23
-7.22427e-24
-2.76167e-23
-5.07008e-24
-1.91615e-23
6.38303e-24
-1.70464e-23
-1.08323e-23
-2.06429e-23
-9.90202e-24
-1.2789e-23
-1.59943e-23
-2.39224e-23
-2.3743e-23
-2.36012e-23
-2.46963e-23
-1.33652e-23
-1.38224e-23
1.15188e-23
2.53839e-24
-1.67957e-23
-1.02344e-23
-2.63786e-23
3.32932e-24
-2.34259e-23
7.61489e-24
-1.37083e-24
1.85285e-23
-7.10657e-24
1.95573e-23
-9.07925e-24
2.51803e-23
2.04891e-23
3.01488e-23
1.24576e-23
3.95159e-23
3.29685e-24
3.65219e-23
2.97368e-23
-2.70796e-23
-1.12846e-25
3.13326e-23
-1.96048e-23
3.16475e-24
-1.26189e-23
2.52097e-23
-6.15892e-24
1.5119e-23
-3.64389e-23
3.64253e-24
-1.36904e-23
1.29135e-23
-2.08388e-23
2.57531e-24
-2.70251e-23
-8.43307e-24
-2.67785e-23
-2.23187e-23
-1.37379e-23
-3.94674e-24
6.95651e-24
8.95367e-25
-1.38235e-23
-1.19996e-23
-1.02665e-23
-1.83842e-23
-1.78926e-23
-2.20043e-23
-8.33886e-24
7.79661e-25
3.9104e-25
9.99209e-24
-1.03704e-24
2.39333e-23
7.99911e-25
2.7098e-23
3.04242e-23
3.30034e-23
9.76756e-24
2.96556e-23
-6.31363e-24
4.81951e-23
2.94302e-23
-2.67103e-23
1.69347e-25
1.69965e-23
1.99612e-24
8.35156e-24
-1.73036e-23
4.09715e-24
-3.90907e-24
1.65719e-23
-2.06209e-23
3.66671e-23
-1.66511e-23
1.99359e-23
-2.32863e-23
1.53553e-23
-4.37268e-23
1.28588e-23
-1.17664e-24
2.05107e-23
-4.26297e-24
-4.19305e-25
-3.28612e-24
1.33406e-24
-1.12604e-23
1.68297e-24
-1.54547e-23
-6.90222e-24
8.44935e-24
-9.32409e-24
1.17702e-24
2.59279e-24
2.10428e-23
1.75408e-23
-8.98904e-25
1.19644e-23
1.0304e-23
1.63456e-23
1.68398e-23
2.12142e-23
3.3405e-23
7.90956e-24
-3.12635e-23
-1.77727e-23
-1.06889e-23
-2.41695e-23
-2.92428e-24
2.02387e-23
-1.33482e-23
2.53128e-24
-1.37789e-23
1.43699e-23
6.16966e-24
4.87491e-24
-3.76295e-23
1.30745e-24
-2.90265e-23
1.99015e-23
-2.24028e-23
1.31792e-23
-2.73635e-23
2.06285e-23
-3.31527e-23
3.05165e-23
7.45121e-24
3.5682e-23
-3.62102e-24
2.3193e-23
-3.65022e-24
1.08869e-23
-1.34876e-23
8.11227e-24
3.41106e-23
1.8698e-23
2.16891e-23
2.78049e-23
1.878e-23
2.78257e-23
5.56127e-24
2.61863e-23
1.36819e-23
1.28994e-23
3.65129e-24
1.79638e-24
9.07137e-24
3.30722e-24
-1.81348e-23
5.25637e-24
3.74872e-24
-8.93142e-24
1.15262e-23
2.50677e-23
-1.29017e-23
1.59143e-23
-1.70988e-23
1.99728e-23
-2.59059e-24
3.38235e-23
-1.19722e-23
2.14082e-23
-3.44955e-23
8.43475e-24
-1.61828e-23
2.99082e-23
-9.75008e-24
1.94471e-23
-2.21994e-23
1.42516e-23
-2.87941e-24
2.49261e-23
-4.45317e-24
3.00688e-23
-9.7511e-24
2.41646e-23
2.16168e-24
2.33118e-23
4.52079e-23
4.87909e-23
2.7286e-23
5.30264e-23
1.31571e-23
5.31919e-23
4.39677e-24
3.76523e-23
-5.41812e-25
2.12802e-23
1.47169e-24
8.00561e-24
6.24925e-24
-1.74176e-24
-1.52535e-23
-1.47202e-23
-1.00029e-23
-8.84609e-24
1.2755e-23
4.46083e-24
-9.38669e-24
2.63001e-23
-5.32419e-24
2.10327e-23
-1.46322e-23
8.71872e-24
-1.51153e-23
2.1452e-23
-8.71973e-24
4.25467e-23
-2.65974e-23
5.40163e-23
-1.8831e-23
5.85539e-23
-1.60537e-23
5.08965e-23
-9.09402e-24
4.63122e-23
-6.11283e-25
2.72736e-23
-7.77358e-24
4.34711e-23
2.10887e-23
6.1919e-23
3.27247e-23
4.5518e-23
3.93697e-23
1.98705e-23
-2.69808e-24
1.26736e-23
-6.50644e-24
2.51708e-23
-1.47963e-23
3.11044e-23
-5.70962e-24
3.42764e-23
-2.57296e-24
2.82576e-23
-8.51502e-24
2.09834e-23
2.88503e-23
1.03051e-23
-1.74372e-24
-3.47908e-23
-1.26779e-23
-1.57844e-23
-5.8859e-24
-1.30718e-23
-1.68677e-23
1.91356e-23
3.17239e-24
3.05536e-23
-9.49267e-25
1.4057e-23
-1.93933e-23
4.62146e-25
-2.07461e-23
3.03742e-23
-3.03558e-24
3.68644e-23
-2.39388e-23
2.16098e-23
3.66476e-24
3.00244e-23
7.8094e-24
3.82215e-23
3.70547e-24
3.56847e-23
1.69096e-23
4.56062e-23
3.34474e-23
4.56735e-23
9.97515e-24
3.37764e-23
-2.38308e-24
3.17692e-23
-5.01771e-24
3.378e-23
-7.58389e-24
3.86422e-23
-6.70825e-24
5.96205e-23
1.67954e-24
4.59843e-23
3.77607e-23
1.26657e-23
1.65864e-23
-2.77544e-23
-2.14324e-23
-9.76657e-24
-5.51777e-24
1.33587e-23
-1.4458e-23
2.05851e-23
-3.33019e-24
1.74654e-23
-2.75024e-23
3.6922e-24
-1.36749e-24
1.11776e-23
-2.49963e-23
3.03203e-23
-1.80223e-23
4.85945e-23
-2.21629e-23
6.23189e-23
1.56403e-23
7.80366e-23
1.95976e-23
6.59402e-23
1.41387e-23
4.94268e-23
1.74511e-23
4.64884e-23
3.16209e-23
3.63214e-23
1.79804e-23
4.58579e-23
-1.76003e-24
5.14681e-23
-4.41441e-24
3.5214e-23
1.08458e-23
2.91891e-23
-2.03695e-23
1.17835e-23
4.85977e-24
2.62093e-23
4.63212e-23
6.97254e-25
3.16514e-23
-1.80072e-23
-8.01285e-24
1.63928e-24
-4.4475e-24
7.32133e-24
-1.96168e-24
1.44688e-23
-1.49488e-23
2.74111e-23
-3.39414e-23
5.35371e-23
-6.08542e-24
7.07367e-23
-2.03877e-23
3.78405e-23
-1.89961e-23
4.12292e-23
-1.37738e-23
6.48418e-23
1.4989e-23
8.35475e-23
1.69999e-23
7.09284e-23
1.54669e-23
5.48857e-23
1.03013e-23
5.84861e-23
3.40114e-23
4.89374e-23
2.79524e-23
2.23478e-23
-1.65023e-23
1.25978e-23
-3.12335e-24
1.56386e-23
1.55956e-24
2.71267e-23
-1.18589e-23
2.98807e-23
1.62264e-23
3.31879e-23
2.91411e-23
-6.34758e-24
2.70229e-23
-3.66858e-23
4.29622e-24
4.04086e-23
8.03349e-25
1.57966e-23
9.00938e-24
-5.21088e-24
-1.91873e-25
-1.31411e-23
-2.39579e-23
-1.5663e-23
-8.9168e-24
1.45962e-23
-1.02608e-23
3.91788e-23
-1.69795e-23
4.36977e-23
1.03343e-24
5.92789e-23
1.4326e-23
8.12631e-23
1.5398e-23
7.8699e-23
2.53305e-23
6.76446e-23
1.17912e-23
3.99197e-23
1.77276e-23
4.45219e-23
2.65237e-23
4.16326e-23
-1.71425e-23
1.83953e-23
-3.04013e-24
3.30013e-23
1.56114e-24
5.42099e-23
-3.77506e-24
3.95207e-23
1.19342e-23
4.83666e-23
3.98856e-23
1.16799e-23
2.46349e-23
-2.0746e-23
5.53589e-24
2.19772e-23
-1.39279e-23
3.20907e-23
1.58521e-23
5.24214e-23
-6.52086e-24
4.84605e-24
-1.3098e-23
-7.13465e-24
-2.18217e-23
2.06717e-23
-5.26316e-25
4.91491e-23
-4.45379e-25
3.64368e-23
3.08323e-24
5.54685e-23
2.44137e-23
7.05264e-23
1.80185e-23
5.37915e-23
1.82361e-23
3.74978e-23
1.42107e-23
4.31172e-23
1.68826e-23
4.28146e-23
1.55914e-23
3.3623e-23
-1.00998e-23
3.76867e-23
9.9635e-24
4.13075e-23
-6.54914e-24
3.06486e-23
7.49109e-24
4.97826e-23
6.86811e-24
5.53235e-23
6.32232e-23
1.768e-23
4.18342e-23
-2.33935e-23
8.33175e-24
2.8416e-23
-7.64838e-24
4.8714e-24
-1.18025e-23
1.97046e-23
-7.62157e-24
2.36984e-23
-3.0858e-24
1.84585e-23
-3.03584e-24
1.22208e-23
6.34602e-25
7.45279e-23
1.04619e-23
1.03849e-22
1.3721e-23
8.28357e-23
2.74354e-23
5.9516e-23
1.57104e-23
6.03698e-23
2.71375e-23
4.79853e-23
1.39266e-23
4.75715e-23
2.51455e-23
6.53404e-23
2.15056e-23
3.66559e-23
-6.8569e-24
-1.03266e-23
6.54937e-24
2.51554e-23
2.50133e-24
3.56893e-23
1.01166e-23
4.62027e-23
2.08574e-23
1.00992e-23
2.16888e-23
-3.05892e-23
8.57647e-24
2.64582e-23
-3.00527e-24
5.56267e-23
-1.47155e-23
3.74041e-23
-1.04566e-23
2.27471e-23
-1.94101e-23
1.34807e-23
2.44015e-23
4.46794e-23
2.51239e-23
6.1128e-23
1.7276e-23
7.21452e-23
8.65285e-24
8.60819e-23
3.60904e-23
1.0983e-22
1.73429e-23
7.14064e-23
3.16334e-23
6.30999e-23
3.09842e-23
8.10933e-23
3.19025e-23
6.90449e-23
1.87307e-23
5.61093e-23
2.04775e-24
4.51325e-23
1.55403e-23
4.57166e-23
7.432e-24
4.84144e-23
8.83658e-24
2.78352e-23
-1.21273e-23
1.41806e-23
2.28661e-23
-9.66374e-24
-8.75034e-24
-1.78565e-23
4.10108e-23
-1.71438e-23
5.587e-23
-4.19532e-24
8.80414e-23
3.10401e-23
1.0826e-22
2.77759e-23
6.07061e-23
2.25034e-23
6.47017e-23
2.39057e-23
7.46245e-23
2.70764e-23
5.91217e-23
7.37033e-24
7.82021e-23
5.62258e-23
9.72642e-23
4.05417e-23
7.92489e-23
4.39138e-23
7.8769e-23
2.4539e-23
4.07651e-23
-2.93339e-24
3.83238e-23
3.85165e-23
4.78985e-24
2.77788e-23
-1.56013e-24
2.80078e-24
2.03025e-23
2.17495e-23
1.09355e-23
-2.03939e-23
2.94284e-23
5.55216e-24
6.41259e-23
1.04729e-23
8.40071e-23
1.35954e-23
1.06463e-22
3.77061e-23
7.36054e-23
4.42694e-23
9.0792e-23
3.17849e-23
7.85913e-23
3.90324e-23
8.04464e-23
7.13805e-24
8.5566e-23
4.9481e-23
8.94375e-23
5.73066e-23
7.06143e-23
4.11336e-23
3.76005e-23
4.66612e-24
2.09332e-23
-6.33473e-24
-1.14944e-23
2.875e-23
2.64787e-23
4.58878e-23
-3.29005e-24
9.10661e-24
-5.94532e-25
5.03848e-23
1.51256e-23
6.45589e-23
-1.57398e-23
5.76639e-23
5.1342e-23
9.20926e-23
4.06968e-23
6.27043e-23
3.71987e-23
7.947e-23
4.06703e-23
9.10955e-23
1.49835e-23
7.56814e-23
5.37606e-23
3.49335e-24
3.24549e-23
-8.24581e-25
9.99801e-24
1.01578e-23
2.4515e-24
3.7862e-23
1.70184e-23
6.32724e-23
4.63579e-24
5.43441e-23
3.15199e-24
6.70691e-23
9.79909e-24
5.82973e-23
2.48229e-23
7.97255e-23
5.76474e-23
6.99392e-23
4.76603e-23
8.19738e-23
2.89176e-23
-5.30599e-24
2.94305e-23
3.85729e-24
1.23522e-23
2.19065e-23
1.2683e-23
2.7145e-23
1.46517e-23
4.41168e-23
-3.36856e-25
5.91614e-23
-4.41745e-24
7.9628e-23
1.50839e-23
7.15138e-23
1.94084e-23
7.13466e-23
6.99551e-23
1.02714e-22
-1.36547e-23
3.42832e-23
1.80445e-24
1.54496e-23
6.70315e-23
1.62954e-23
4.08552e-23
1.13803e-23
3.49233e-23
7.96758e-24
4.93538e-23
-9.08491e-24
8.83662e-23
2.17142e-23
1.32129e-22
2.92802e-23
1.50723e-22
-7.29971e-24
6.34645e-24
-1.7307e-23
4.02621e-24
4.22913e-23
7.27247e-24
3.10271e-23
2.25969e-23
4.95383e-23
1.39427e-23
5.4011e-23
8.24469e-24
5.69921e-23
2.21347e-23
1.10591e-22
8.54144e-25
5.81988e-24
-5.88869e-24
1.89521e-24
2.70937e-23
7.7031e-24
2.15033e-23
1.67232e-23
3.88216e-23
1.64268e-23
3.26248e-23
2.04715e-23
4.4165e-23
4.2738e-24
3.15638e-24
-1.29876e-24
1.57263e-24
2.66136e-23
9.84155e-24
4.01119e-23
1.07537e-23
3.74062e-23
2.75651e-23
4.78865e-23
4.65664e-23
1.71486e-24
-1.99826e-23
-5.31236e-24
7.51275e-24
2.4533e-23
-2.86311e-24
3.09931e-23
1.94084e-23
3.50744e-23
2.05448e-23
4.82922e-23
3.84526e-24
1.15521e-23
1.12555e-23
1.18616e-23
2.13526e-23
-5.26824e-24
4.80798e-23
1.85622e-23
5.52121e-23
1.36136e-23
2.93023e-23
1.57993e-23
1.16962e-23
6.02778e-23
-5.62874e-25
2.49539e-23
4.12171e-23
1.97586e-23
3.59745e-23
6.74845e-24
1.88447e-24
3.59865e-24
5.03422e-24
2.56863e-23
1.6094e-23
2.42638e-23
-2.1796e-24
8.72294e-24
2.42005e-23
2.66703e-23
1.26204e-23
2.07529e-23
-5.57595e-24
1.32162e-23
3.62814e-23
2.46172e-23
1.24838e-23
1.86486e-23
-6.60236e-24
1.12057e-23
4.3117e-23
2.43334e-23
2.04051e-23
1.89475e-24
-2.23771e-24
1.0702e-23
5.76061e-23
5.74717e-23
2.85684e-23
6.01442e-23
1.75086e-24
1.2873e-23
8.13658e-24
4.26567e-23
2.03759e-23
5.21628e-23
-1.17774e-23
1.53037e-23
-2.33843e-24
3.30747e-23
1.5761e-23
5.75396e-23
-2.0732e-23
2.01643e-23
1.19463e-23
2.71488e-23
8.03637e-24
8.19348e-23
-2.3138e-23
1.42493e-23
1.0083e-23
1.10833e-23
6.21206e-24
3.43902e-23
-2.99835e-23
1.3263e-23
1.6268e-23
4.1152e-23
3.50956e-24
3.58963e-23
-3.48168e-23
1.56066e-23
5.26094e-23
2.95954e-23
7.30587e-24
2.51503e-23
-2.98689e-23
6.59652e-24
6.02224e-23
3.06114e-23
1.04243e-23
3.51572e-23
-1.84162e-23
3.61715e-24
7.5538e-23
6.22899e-23
8.13938e-24
4.8321e-23
-1.63428e-23
-1.08148e-24
9.89811e-24
2.56761e-24
2.54952e-24
-2.10641e-23
-9.5432e-25
1.44418e-23
7.88817e-24
-1.39655e-23
2.74109e-23
2.06826e-23
1.24698e-23
2.52946e-23
1.82246e-23
2.20169e-23
1.92201e-23
1.74011e-23
2.19025e-23
1.55326e-23
6.95047e-24
-1.00676e-24
4.15584e-24
-1.76768e-24
2.24282e-23
-1.87325e-23
2.51364e-23
-3.20734e-23
1.57099e-23
-1.57906e-23
1.90176e-23
-2.84604e-24
-3.60126e-24
-2.78856e-23
1.71078e-23
-1.40038e-23
3.79872e-23
-7.99367e-24
2.45744e-23
-7.69329e-24
1.79075e-23
-1.1517e-24
1.21189e-23
2.20134e-24
3.0902e-23
1.00182e-23
1.29493e-23
1.10484e-23
-9.16008e-24
1.25064e-23
3.32705e-23
1.72282e-23
1.65099e-23
6.55778e-24
-8.21508e-25
5.85624e-24
6.05651e-23
1.4079e-23
1.71654e-23
7.98576e-24
-8.98843e-24
-1.65196e-24
1.503e-23
-4.05263e-24
1.93525e-23
-7.95357e-24
1.92073e-23
-7.80886e-24
1.88792e-23
-8.4103e-24
3.24558e-23
-1.71996e-23
-2.43148e-23
-2.54063e-23
-2.51474e-23
-1.65131e-23
-1.01482e-23
-1.89527e-23
-1.44419e-23
-1.82393e-23
1.06584e-23
-1.50081e-23
2.43337e-23
-4.4103e-24
4.91103e-23
-7.70046e-24
4.75776e-23
-1.08363e-23
3.82316e-23
-7.02101e-24
-4.8832e-24
1.44145e-23
6.61597e-24
-1.3178e-23
2.32519e-23
3.06176e-23
-2.71093e-24
8.86237e-24
9.15117e-24
1.29074e-23
4.70066e-24
-1.04769e-23
1.50953e-23
4.62733e-24
3.67299e-24
6.92194e-24
-5.4327e-24
-3.85415e-24
2.4609e-23
1.74379e-24
6.31758e-23
3.90635e-23
5.65339e-23
5.44961e-24
-4.72817e-24
-2.07279e-23
2.84811e-23
-1.28452e-23
2.61369e-23
-1.05271e-23
3.52798e-23
-7.37621e-24
4.01285e-23
-8.77814e-24
4.02454e-23
2.90797e-24
3.01169e-23
1.62492e-23
4.29595e-23
4.66348e-26
1.73302e-23
-1.18187e-24
-1.9485e-24
-2.9866e-24
1.27114e-23
3.91239e-24
6.60317e-24
4.16946e-24
-2.426e-24
7.30678e-24
1.66851e-24
5.18076e-24
1.10527e-23
-7.6715e-25
-2.60919e-23
-7.09091e-24
1.47044e-23
2.03657e-24
3.96665e-24
-8.57663e-26
1.50813e-24
-1.56199e-24
-7.98827e-24
3.14993e-25
-1.9845e-23
-8.7292e-26
4.0246e-23
-1.521e-24
2.74061e-24
-8.40647e-24
-3.88749e-24
-8.71624e-24
5.36577e-23
-1.26029e-24
4.21125e-23
-1.45809e-24
1.28119e-23
-1.05617e-23
1.24168e-23
-7.87335e-24
1.36207e-23
-4.6428e-24
5.08753e-23
-5.13397e-24
-8.66819e-24
2.31936e-23
-3.73363e-24
-1.21642e-23
8.01686e-24
6.33767e-24
1.15016e-23
1.2317e-23
-1.30594e-23
6.73115e-24
1.00233e-23
8.8263e-24
7.11463e-24
2.0722e-24
3.00274e-24
8.16239e-24
7.61064e-24
-3.00923e-24
5.94763e-23
7.0383e-24
2.00778e-23
3.18168e-25
3.60643e-23
-5.75659e-24
2.35751e-23
-8.6822e-24
1.89482e-23
-9.54398e-25
5.08668e-23
1.59624e-24
1.22946e-23
3.80475e-24
7.54402e-23
1.60448e-23
5.24507e-23
-1.5008e-23
3.30919e-23
-9.94317e-24
1.79159e-23
1.13876e-23
2.04647e-23
-3.18155e-25
1.64749e-23
-5.27967e-24
1.08881e-23
-4.14333e-24
1.93107e-23
-8.82851e-24
1.6701e-24
-1.52097e-23
-2.14028e-23
-9.69998e-24
-2.80973e-23
-2.08013e-24
4.4668e-24
-4.08837e-24
1.41521e-23
-9.70756e-24
1.6444e-23
-6.6083e-24
1.42717e-23
-7.38713e-24
1.21422e-23
-5.48596e-24
-2.19681e-23
-1.0367e-23
-1.87708e-23
-9.91948e-24
-7.98116e-24
-1.6522e-23
1.33446e-23
-2.01277e-23
4.60221e-23
-2.6751e-23
-4.30819e-24
-3.05467e-23
1.23966e-23
-2.81786e-23
2.49493e-23
-1.58616e-23
-8.16155e-24
-1.26031e-23
3.0933e-23
-1.24305e-23
-1.01088e-23
2.69369e-23
1.92844e-23
-1.69093e-23
9.05749e-24
2.65747e-23
8.49006e-24
2.01031e-23
-1.24721e-23
-4.62798e-24
-3.54884e-24
-7.07311e-24
8.23451e-24
-5.57125e-24
-5.92513e-24
-5.70642e-24
4.02699e-23
-4.1875e-24
2.85602e-23
1.4454e-23
1.65043e-23
7.91597e-24
1.86163e-23
-5.11863e-24
3.31905e-23
-1.81101e-23
8.76367e-24
-5.97463e-24
4.04366e-23
6.07913e-24
3.35699e-23
1.74171e-23
2.40293e-23
2.62061e-23
5.42398e-23
3.23713e-23
6.51287e-23
9.27331e-24
-9.00249e-24
-1.53706e-23
3.62966e-24
-1.28933e-23
3.78148e-24
-1.00817e-23
-2.02589e-23
-2.24695e-23
-1.67893e-23
-1.19583e-23
-2.25445e-23
-1.15705e-23
-1.34272e-23
-2.56137e-23
-2.9497e-23
-3.14228e-23
-1.80985e-23
-1.94098e-23
1.27264e-23
-1.39084e-23
-1.07877e-23
-2.22035e-23
-8.5084e-24
-2.21152e-23
-4.75227e-24
-2.0538e-23
-3.47819e-23
-1.65061e-23
-6.77438e-23
-2.46454e-23
-6.10793e-23
-2.56694e-23
-4.21493e-23
-1.74422e-23
-2.15656e-23
-9.57973e-24
2.99223e-24
-9.666e-24
6.3038e-23
2.49936e-24
5.32153e-23
-2.47635e-24
4.72995e-23
-4.46378e-24
-1.15563e-23
-8.46806e-24
-4.56653e-24
2.82131e-23
-1.1106e-24
-9.60695e-24
6.51985e-24
-2.26212e-23
-1.14992e-23
1.13031e-24
-4.12452e-24
2.08094e-23
-1.80475e-23
7.6168e-24
4.90536e-24
2.19543e-23
2.81933e-24
7.80238e-24
3.7972e-23
2.62534e-23
1.14411e-23
-3.17156e-24
2.28591e-23
6.28252e-25
6.06822e-24
-6.78873e-24
5.20485e-23
-1.22085e-23
1.51528e-23
4.24392e-24
3.72239e-23
2.05021e-23
4.75861e-23
1.70304e-23
1.57502e-23
1.58746e-23
1.00156e-23
-7.87535e-24
1.49039e-23
-3.8074e-24
1.57282e-24
-8.56318e-24
-1.31116e-23
-4.92817e-24
-9.72438e-24
-1.52447e-23
-1.23437e-23
-2.32323e-23
-3.01304e-23
-2.94241e-23
-5.00085e-23
-3.69524e-23
-5.57188e-23
-2.1834e-23
3.80336e-24
-2.02321e-23
-3.34823e-23
-3.27364e-23
-2.33319e-23
-3.438e-23
-2.25947e-23
-3.12236e-23
-9.17112e-24
-3.08885e-23
-1.35761e-23
-2.95182e-23
-5.63693e-23
-2.8861e-23
-7.04018e-23
-2.83614e-23
-4.272e-24
-1.76786e-23
-7.89885e-24
-1.32271e-23
3.05879e-23
-8.92061e-24
3.42251e-23
-1.09037e-23
2.3638e-23
-1.66331e-23
3.74002e-23
-2.03998e-23
4.7157e-23
-1.56071e-23
2.95097e-24
-1.65297e-23
-1.39503e-23
1.12968e-23
2.19264e-23
-3.32159e-26
1.08529e-23
1.6615e-23
4.70957e-24
4.40938e-24
-1.5056e-23
1.87939e-24
-1.04081e-23
1.09185e-23
-1.0699e-23
3.01239e-23
2.70187e-23
4.70294e-23
-1.67782e-24
1.43651e-23
2.63611e-23
1.6337e-23
3.10881e-23
3.80741e-23
1.21687e-23
3.29421e-23
7.05206e-23
2.7846e-23
5.48898e-23
2.60312e-23
3.22198e-23
1.43766e-23
4.45074e-23
1.79844e-23
-1.8427e-23
-5.26143e-24
-1.50134e-23
-1.39508e-23
3.6165e-24
-1.77304e-23
-8.18664e-24
-4.90905e-24
-3.12798e-23
7.82203e-24
-5.21109e-23
6.87313e-24
-2.25715e-23
-1.2911e-23
-2.56416e-23
-2.99576e-23
-2.14885e-23
-3.03833e-23
-3.76205e-23
-4.1871e-23
-4.45317e-23
-4.45134e-23
-4.25755e-23
-4.03172e-23
-3.87871e-23
-3.70422e-23
-2.91794e-23
-4.02794e-23
1.60354e-24
-3.10055e-23
-4.12944e-23
-2.65563e-23
-6.18449e-23
-1.5664e-23
-9.67501e-24
-7.73218e-24
8.34037e-24
-7.9941e-24
-8.01659e-24
-3.50583e-24
-1.54532e-23
-7.32104e-24
-2.45987e-23
-5.2027e-24
-7.76008e-24
2.12264e-24
3.50435e-23
7.32803e-24
5.60273e-23
3.47452e-25
5.83991e-23
-3.21331e-24
-4.13944e-24
5.6512e-25
2.43483e-23
-4.87285e-24
7.1847e-24
9.87382e-24
2.67527e-24
1.53945e-23
-2.82039e-24
1.35128e-23
-3.44008e-24
1.86217e-23
1.59522e-24
2.18917e-23
-3.45204e-24
1.41289e-23
-1.34385e-23
3.49023e-23
2.67257e-23
1.99076e-23
1.30919e-23
1.23143e-23
-6.17697e-24
2.33223e-23
4.51207e-23
2.67673e-23
3.17908e-23
5.51277e-23
2.08924e-23
3.84744e-23
-7.16273e-25
1.23658e-24
-3.27029e-23
-8.76547e-24
-2.67946e-23
-1.71331e-24
1.97514e-23
1.47718e-23
1.52792e-23
-9.71219e-24
-3.60003e-23
-1.78817e-23
-9.8391e-23
-1.19594e-23
-8.86315e-23
-1.72106e-23
-4.64422e-23
-2.79383e-23
-7.79287e-23
-2.70661e-23
-5.60061e-23
-2.65549e-23
-3.13979e-23
-3.112e-23
-4.2094e-23
-2.16744e-23
-5.96523e-23
-1.29977e-23
3.85319e-24
-8.35928e-24
3.61501e-23
-1.31564e-23
3.47351e-23
-2.08687e-23
-3.20992e-23
-2.38663e-23
1.71112e-23
-2.41509e-23
-1.57469e-23
-2.88714e-23
-7.86072e-24
-1.91441e-23
-2.53446e-24
-1.96733e-23
8.86399e-24
-1.97289e-23
2.25109e-23
-1.7644e-23
-5.52675e-25
-1.86433e-23
1.45117e-23
-2.4418e-23
3.13862e-23
-2.72153e-23
-3.51969e-23
-1.57553e-23
-2.03558e-23
-1.83986e-23
3.94851e-24
-4.59393e-24
7.54071e-24
-8.97854e-24
6.82513e-24
1.7765e-23
-8.41639e-24
3.55155e-23
-3.33668e-24
1.2264e-23
1.37115e-23
-2.08652e-24
-3.60071e-23
5.81865e-24
1.22333e-24
2.1283e-23
-1.52858e-24
1.89995e-23
7.49533e-24
2.33902e-23
2.16531e-23
2.25073e-23
-2.43696e-24
7.61489e-24
-4.01182e-23
-2.18486e-24
-1.25703e-23
-8.12029e-24
1.58981e-24
8.44008e-25
-1.68397e-23
-1.38499e-23
-1.17394e-23
-2.55811e-23
-1.24509e-23
-2.0747e-24
-4.2482e-25
-5.10003e-24
-1.18589e-22
-2.39603e-23
-1.11446e-22
-2.71672e-23
-7.31493e-23
-2.38819e-23
-6.96495e-23
-2.60932e-23
-6.5566e-23
-2.94038e-23
-1.16573e-23
-1.12473e-23
-1.83484e-23
-1.15268e-23
-2.89702e-23
-1.08636e-23
-3.07505e-23
-1.17196e-23
-4.36849e-24
-8.57263e-24
-1.1153e-23
-1.69959e-23
-1.72839e-23
-1.99912e-23
-1.98004e-23
-2.41766e-23
7.25722e-24
-1.83389e-23
6.70281e-24
-1.58103e-23
1.90657e-24
-1.44628e-23
2.57826e-24
-1.60158e-23
-1.35054e-24
-1.05779e-23
-5.10357e-23
-8.60001e-24
-2.48406e-23
-1.59024e-23
-3.96131e-23
-1.90419e-23
-2.12188e-23
-6.80532e-24
-3.69696e-23
-1.10063e-23
-2.74268e-25
-5.41188e-24
2.19893e-23
8.33803e-24
1.94832e-23
1.93648e-23
-2.18379e-23
-9.34383e-24
-1.69691e-23
4.97878e-24
1.21498e-23
1.40431e-23
-2.43922e-23
1.51892e-23
-1.02689e-23
5.95987e-24
-1.12251e-23
1.78829e-23
-1.95959e-24
1.80644e-23
-1.19642e-23
1.62227e-23
-4.46601e-24
4.78922e-24
-4.33196e-23
4.1976e-24
-8.67433e-26
-8.43723e-25
-1.43056e-23
-1.14897e-23
-3.32424e-23
-2.86238e-23
1.24059e-23
-2.64247e-23
-2.09662e-23
-4.46928e-23
-5.44963e-23
-5.82664e-23
-1.10217e-22
-5.24144e-23
-1.0623e-22
-3.31273e-23
-9.85614e-23
-2.1914e-23
-7.9788e-23
-1.09315e-23
-1.59438e-23
-2.48406e-24
-2.59996e-23
-3.90661e-24
-3.14648e-23
-9.97636e-24
-8.2022e-24
-3.76215e-24
-2.35319e-23
-6.70823e-24
-2.91649e-23
-6.5251e-24
-4.84383e-23
-3.42522e-24
-1.74717e-23
-3.14577e-24
8.30208e-24
2.05549e-24
7.00749e-24
-2.13783e-24
4.05536e-23
-4.33075e-24
4.67104e-24
-9.2139e-24
-2.15763e-24
-2.77893e-24
-1.15675e-24
-1.52584e-24
-6.88862e-23
-1.35596e-23
-6.71426e-23
-1.28963e-23
-4.89344e-23
-1.38482e-23
-1.34669e-23
8.33341e-24
-6.91258e-24
-8.17349e-24
2.56269e-24
2.46842e-24
2.59316e-23
2.13246e-23
-1.33238e-24
1.00001e-23
-2.07221e-23
4.52728e-24
-9.76915e-24
1.01709e-23
1.26606e-24
4.49806e-24
-2.1564e-23
4.27483e-24
7.64749e-25
1.18466e-23
-2.96603e-23
1.10585e-23
-2.9016e-23
1.25243e-23
-2.24567e-23
6.02724e-25
-1.67517e-23
-4.65355e-24
-1.87527e-23
-2.66301e-23
-1.92899e-23
-2.36957e-23
-1.54384e-23
-1.23913e-23
-2.33503e-23
-7.62263e-24
-9.95853e-24
-2.44544e-23
-4.10138e-23
-3.69518e-23
-3.14167e-23
-2.47148e-23
-5.00103e-23
-2.95012e-23
-5.7702e-23
-3.18091e-23
-7.28439e-23
-1.67026e-23
-3.99597e-23
-7.9224e-24
-3.62141e-23
-1.24753e-23
-2.63739e-23
-1.71567e-23
-1.91973e-23
-1.76446e-23
-9.38676e-24
-1.47836e-23
-1.57366e-23
-1.02845e-23
-1.91268e-23
-1.30551e-23
-1.72939e-23
-1.16711e-23
-2.32319e-23
1.3414e-24
-1.71294e-23
-1.64938e-24
-2.01892e-23
-2.50591e-25
-5.28793e-24
-6.54002e-24
5.93023e-24
-1.62109e-23
3.09521e-23
-1.48439e-23
-7.70027e-23
-1.80711e-23
-6.04911e-23
-1.09472e-23
-7.62846e-23
-2.25253e-23
-7.59975e-23
-1.75657e-23
-9.74125e-24
1.22896e-23
4.23419e-24
-1.94508e-23
9.14786e-24
5.16123e-24
1.31635e-23
1.79025e-23
-7.18503e-24
-9.3144e-24
-1.24442e-23
7.67768e-24
-1.47855e-23
1.02138e-23
-1.46249e-23
8.42567e-24
-1.38031e-23
-5.36257e-24
-9.63114e-24
1.22686e-24
-3.21721e-23
-2.40511e-24
-4.46e-23
-1.11996e-23
-4.24055e-23
-1.10753e-23
-4.0843e-23
-1.47573e-23
7.26766e-24
4.10394e-24
-6.54122e-24
1.19282e-23
2.59537e-23
9.09922e-24
-5.42777e-23
-4.34825e-24
-2.94798e-23
-6.3003e-24
-2.20417e-23
-4.35262e-24
-2.92531e-23
-2.02674e-23
-3.57351e-23
-2.12143e-23
-1.52964e-23
-1.99613e-23
-5.71663e-23
-2.68108e-23
-5.34545e-23
-2.53603e-23
-7.78178e-23
-2.20236e-23
-4.29687e-23
-1.24315e-23
-1.34742e-23
-5.68974e-24
-1.28561e-23
-1.34834e-23
-1.4352e-23
-1.34738e-23
-1.7271e-23
-1.61839e-23
1.10049e-23
-8.04122e-24
-1.87267e-23
-1.29376e-23
-8.98711e-24
-1.22248e-23
-6.93889e-23
-1.06398e-23
-5.47345e-23
-1.29911e-23
-7.44168e-24
-5.38141e-24
-1.438e-23
-6.44029e-24
-6.66987e-23
-8.53191e-24
-7.89535e-23
2.50101e-24
-8.36964e-23
9.68235e-24
1.67874e-23
1.43e-23
9.53474e-24
1.31071e-23
1.13972e-23
-1.49784e-23
1.30382e-23
4.12822e-24
-4.19176e-24
-1.04962e-24
9.13084e-24
9.82912e-24
-1.27739e-23
3.75852e-24
-1.00578e-23
8.63352e-24
-2.39087e-23
1.66635e-23
-1.50501e-23
1.3665e-23
-1.2613e-23
-5.11607e-24
-3.66092e-23
-1.54846e-23
-4.01509e-23
-1.69001e-23
-4.24945e-23
-2.17291e-23
-2.00027e-23
-6.24426e-24
-6.69298e-24
-7.21781e-24
3.03241e-24
4.59686e-24
-3.35177e-24
2.24465e-23
-5.85757e-23
9.81509e-24
-3.95672e-23
9.84027e-24
-5.1887e-23
2.68602e-24
-2.60044e-23
-5.66999e-24
-3.65054e-23
-1.45979e-23
-4.66687e-23
-1.7203e-23
-4.2567e-23
-2.27573e-23
-4.75677e-23
-2.10003e-23
-4.60263e-23
-2.37359e-23
-2.9532e-23
-2.69103e-23
-1.63269e-23
-2.15989e-23
-2.23363e-23
-2.10036e-23
-1.89605e-23
-2.45394e-23
3.64551e-24
-4.00993e-23
-1.10981e-23
-3.84807e-23
-1.96677e-25
-3.54359e-23
1.83268e-24
-3.1851e-23
-7.40012e-23
-3.18573e-23
-2.66268e-23
-2.27999e-23
-1.36849e-23
-2.52081e-23
1.94663e-23
-2.32545e-23
1.37452e-23
-1.90611e-23
-7.35873e-24
-1.78801e-23
-2.68484e-23
-1.83686e-23
-4.72073e-23
-1.39774e-23
-6.19866e-23
-1.65899e-23
-1.91699e-23
1.06067e-23
1.19292e-23
-1.05196e-23
1.13391e-23
2.90004e-25
-2.92605e-24
-7.17476e-24
8.7184e-24
-3.21352e-24
2.9083e-24
1.08364e-23
-6.35277e-24
1.78494e-23
-2.40291e-23
-7.33673e-24
-3.93658e-23
-1.31796e-23
-1.80322e-23
5.67126e-24
-2.92947e-23
-9.82121e-24
-3.87038e-23
-1.39518e-23
-1.49656e-23
-1.57208e-23
-2.39985e-23
-1.38297e-23
9.53213e-24
-2.0392e-24
1.20087e-23
7.90438e-24
-4.43014e-23
-1.96146e-23
-6.04412e-23
-2.61959e-23
-6.17992e-23
-2.9687e-23
-9.58498e-23
-3.58379e-23
-6.17917e-23
-3.67992e-23
-5.11397e-23
-2.93119e-23
-6.09513e-23
-3.43035e-23
-5.53353e-23
-1.85675e-23
-5.72388e-23
-1.3605e-23
-5.99416e-23
-1.34235e-23
-2.30625e-23
-1.48203e-23
-2.36827e-23
-2.20873e-23
-6.65645e-23
-2.63476e-23
-6.88348e-23
-3.00583e-23
-5.52103e-24
-2.82602e-23
-3.24574e-23
-2.48286e-23
1.96632e-23
-1.77176e-23
-3.81381e-24
-2.42689e-23
-2.10204e-23
-2.71302e-23
-3.43336e-23
-2.40268e-23
-1.05174e-23
-2.24253e-23
-1.36884e-23
-2.08145e-23
-9.68983e-24
-2.04411e-23
-4.95641e-24
-2.13239e-23
-3.0406e-23
-2.19681e-23
-6.37221e-23
-2.27843e-23
-5.62398e-23
-1.44077e-23
-3.84891e-23
-7.44625e-24
-4.61921e-24
5.58192e-24
1.71105e-23
-1.25963e-23
5.0228e-24
1.27892e-24
-6.43077e-24
3.947e-24
1.69144e-23
3.78572e-24
8.36645e-24
-1.08388e-23
-2.80622e-23
-3.47971e-23
-4.13495e-23
-3.54393e-23
-2.81866e-23
-3.1089e-23
-3.42863e-23
-1.30322e-23
-3.03126e-23
-1.66616e-23
-3.63335e-23
-1.76345e-23
-1.00067e-23
-9.41707e-24
-1.58105e-23
-8.8271e-24
-1.26578e-23
-2.65505e-24
-4.15366e-23
-1.03936e-23
-4.34604e-23
-7.77069e-24
-4.45073e-23
-2.78782e-23
-8.0487e-23
-3.7731e-23
-9.72002e-23
-2.8029e-23
-3.8297e-23
-6.8754e-24
-7.40901e-23
5.65512e-25
-1.77981e-23
3.91746e-24
-3.14903e-23
-5.96808e-24
-7.09721e-23
-1.07869e-23
-4.42067e-23
-9.11389e-25
-5.86437e-23
3.49088e-25
-2.88154e-23
-5.96989e-25
-8.05432e-23
-6.27936e-24
-5.37842e-23
-2.27904e-24
4.7146e-24
-1.3864e-23
-4.34381e-24
-1.66973e-23
2.14839e-24
-2.88923e-23
-1.66988e-23
-3.6802e-23
-2.24184e-23
-2.81836e-23
-2.22813e-23
-2.24668e-23
-1.94002e-23
-2.17568e-23
-2.07748e-23
-1.94417e-23
-2.05367e-23
-1.73555e-23
-1.84665e-23
-1.78332e-23
-2.44301e-23
-1.76243e-23
-3.4107e-26
-1.27434e-23
-2.32288e-24
-1.45629e-23
-3.22183e-23
-2.08401e-23
-2.42808e-23
-3.8937e-24
1.18833e-23
-2.17512e-23
1.253e-25
-3.72061e-24
-7.5288e-24
6.56053e-24
7.82032e-25
-2.72488e-24
-6.82788e-24
-2.46367e-24
-2.88036e-23
-2.11437e-23
-4.81319e-23
-2.41244e-23
-1.0415e-23
-3.26151e-23
-3.74533e-23
-2.35211e-23
-3.78612e-23
-1.84932e-23
-1.85499e-23
-1.69212e-23
-1.95514e-23
-1.28954e-23
-2.02509e-23
-1.74069e-23
-3.96671e-23
-2.11058e-23
-4.21914e-23
-2.0568e-23
-4.96712e-23
-1.39953e-23
-3.39815e-23
-4.66003e-24
-3.52091e-23
-3.98693e-24
-2.50338e-23
-4.73938e-24
-3.24049e-23
-8.83225e-24
-4.24213e-23
-3.09223e-24
-4.44538e-23
2.50271e-24
-5.73059e-23
5.25878e-24
-4.69882e-23
8.49596e-24
-5.70883e-23
-1.45324e-24
-5.98677e-23
9.62373e-24
-6.32377e-23
1.10212e-23
-7.43613e-23
1.0971e-23
-1.24628e-22
6.66675e-24
-4.11319e-23
1.60976e-23
-7.32626e-23
1.32192e-23
-2.97833e-23
1.84223e-23
1.61268e-23
8.18062e-24
1.20873e-23
-7.26565e-24
2.21755e-23
-1.66816e-23
1.93296e-23
-1.6968e-23
1.92539e-23
-1.42291e-23
-1.39221e-23
-1.87216e-23
-2.08251e-23
-1.83415e-23
-1.3828e-23
-2.21122e-23
-3.40907e-23
-2.85215e-23
-6.03407e-23
-2.31887e-23
-9.00153e-23
-2.49563e-23
-7.52237e-23
-2.1191e-23
-1.62026e-23
-6.83271e-24
-9.13764e-24
-7.26257e-24
9.25714e-25
-7.9025e-24
-1.60307e-23
-4.25953e-24
-8.73296e-24
-5.69217e-24
-1.56359e-23
-3.55127e-23
-2.48079e-23
-2.37646e-23
-4.70455e-23
-1.04361e-23
-5.48079e-24
1.40369e-23
-2.12982e-23
-9.04542e-24
-4.47735e-23
-1.92323e-23
-1.08924e-23
-1.95989e-23
-2.88846e-23
-3.9138e-23
-1.82636e-23
-2.69791e-23
-2.26627e-23
-1.9273e-23
-3.58898e-23
-1.26001e-23
-1.21421e-23
-1.10921e-23
-2.20544e-23
-4.1108e-24
-3.24346e-23
-6.76926e-24
-3.61823e-23
-1.07014e-23
-4.4908e-23
-6.84547e-24
-3.83047e-23
-1.25038e-23
-5.205e-23
-1.65758e-23
-7.0262e-23
-1.46878e-23
-6.3617e-23
6.59612e-25
-4.23996e-23
1.78818e-23
-5.82136e-23
1.69852e-23
-6.49013e-23
1.21048e-23
-6.60733e-23
9.67643e-24
-6.56188e-23
8.32221e-24
-5.6336e-23
3.08082e-24
-4.52562e-23
-4.51737e-24
-1.17315e-22
-5.6303e-24
-9.18247e-23
1.56709e-24
-9.68637e-23
3.0335e-24
-1.11377e-23
8.94802e-24
-1.62871e-23
2.5894e-24
-1.53109e-23
-3.25236e-24
-2.80861e-23
1.7256e-24
-4.62945e-23
2.77052e-24
-4.76472e-23
-8.64105e-24
2.97261e-23
-1.68131e-23
-9.23401e-23
-2.78451e-23
-3.69252e-23
-2.84424e-23
-1.41853e-23
-2.5805e-23
-2.15853e-23
-1.84257e-24
1.93376e-23
1.15212e-23
-1.97076e-25
3.20136e-23
-1.5988e-23
9.83663e-24
-2.96149e-23
1.91412e-24
-7.18461e-25
9.05304e-24
-1.92195e-23
-8.62283e-24