/*--------------------------------*- C++ -*----------------------------------*\
  =========                 |
  \\      /  F ield         | OpenFOAM: The Open Source CFD Toolbox
   \\    /   O peration     | Website:  https://openfoam.org
    \\  /    A nd           | Version:  7
     \\/     M anipulation  |
\*---------------------------------------------------------------------------*/
FoamFile
{
    version     2.0;
    format      ascii;
    class       volScalarField;
    location    "144000";
    object      k;
}
// * * * * * * * * * * * * * * * * * * * * * * * * * * * * * * * * * * * * * //

dimensions      [0 2 -2 0 0 0 0];

internalField   nonuniform List<scalar> 
4850
(
6.47652e-07
6.4268e-07
6.57236e-07
6.52219e-07
6.47373e-07
6.66914e-07
6.61857e-07
6.56969e-07
6.52241e-07
6.47684e-07
6.76671e-07
6.71582e-07
6.66658e-07
6.61893e-07
6.57294e-07
6.52871e-07
6.86498e-07
6.81383e-07
6.76429e-07
6.71631e-07
6.66999e-07
6.62539e-07
6.5826e-07
6.96381e-07
6.91246e-07
6.86269e-07
6.81445e-07
6.76784e-07
6.72294e-07
6.67983e-07
6.63859e-07
6.59928e-07
7.06312e-07
7.01162e-07
6.96166e-07
6.91322e-07
6.86639e-07
6.82124e-07
6.77787e-07
6.73635e-07
6.69675e-07
6.65915e-07
7.16279e-07
7.11119e-07
7.06111e-07
7.01252e-07
6.96551e-07
6.92017e-07
6.87659e-07
6.83484e-07
6.79501e-07
6.75716e-07
6.72137e-07
6.6877e-07
6.6562e-07
6.62693e-07
7.26273e-07
7.21109e-07
7.16094e-07
7.11224e-07
7.06511e-07
7.01962e-07
6.97587e-07
6.93395e-07
6.89393e-07
6.85588e-07
6.81989e-07
6.786e-07
6.7543e-07
6.72482e-07
6.69763e-07
6.67277e-07
6.65028e-07
6.63019e-07
7.36286e-07
7.31122e-07
7.26104e-07
7.21229e-07
7.16507e-07
7.11949e-07
7.07562e-07
7.03357e-07
6.9934e-07
6.9552e-07
6.91904e-07
6.88499e-07
6.85311e-07
6.82347e-07
6.79611e-07
6.77109e-07
6.74845e-07
6.72823e-07
6.71046e-07
6.69517e-07
7.46308e-07
7.41149e-07
7.36132e-07
7.31256e-07
7.26532e-07
7.21968e-07
7.17574e-07
7.13359e-07
7.09332e-07
7.055e-07
7.01872e-07
6.98454e-07
6.95253e-07
6.92275e-07
6.89526e-07
6.87011e-07
6.84734e-07
6.827e-07
6.80913e-07
6.79375e-07
6.78089e-07
6.77058e-07
6.76283e-07
6.75765e-07
7.56332e-07
7.51182e-07
7.46171e-07
7.41298e-07
7.36574e-07
7.32009e-07
7.27612e-07
7.23392e-07
7.19358e-07
7.15519e-07
7.11882e-07
7.08455e-07
7.05244e-07
7.02256e-07
6.99496e-07
6.96971e-07
6.94684e-07
6.92641e-07
6.90845e-07
6.89299e-07
6.88007e-07
6.8697e-07
6.86191e-07
6.85671e-07
6.85411e-07
6.85411e-07
6.85671e-07
6.86191e-07
6.86971e-07
7.66351e-07
7.61214e-07
7.56212e-07
7.51347e-07
7.46627e-07
7.42065e-07
7.37668e-07
7.33447e-07
7.2941e-07
7.25567e-07
7.21925e-07
7.18491e-07
7.15273e-07
7.12278e-07
7.09511e-07
7.06978e-07
7.04684e-07
7.02634e-07
7.00831e-07
6.9928e-07
6.97982e-07
6.96941e-07
6.96159e-07
6.95636e-07
6.95375e-07
6.95375e-07
6.95636e-07
6.96159e-07
6.96941e-07
6.97982e-07
6.9928e-07
7.00831e-07
7.76357e-07
7.71236e-07
7.66248e-07
7.61393e-07
7.56682e-07
7.52126e-07
7.47733e-07
7.43515e-07
7.39479e-07
7.35635e-07
7.3199e-07
7.28554e-07
7.25332e-07
7.22332e-07
7.1956e-07
7.17022e-07
7.14723e-07
7.12668e-07
7.1086e-07
7.09305e-07
7.08003e-07
7.06959e-07
7.06174e-07
7.0565e-07
7.05388e-07
7.05388e-07
7.0565e-07
7.06174e-07
7.06959e-07
7.08004e-07
7.09305e-07
7.10861e-07
7.12668e-07
7.14724e-07
7.86343e-07
7.81242e-07
7.76271e-07
7.7143e-07
7.66731e-07
7.62185e-07
7.578e-07
7.53587e-07
7.49555e-07
7.45713e-07
7.4207e-07
7.38633e-07
7.35411e-07
7.32409e-07
7.29635e-07
7.27094e-07
7.24792e-07
7.22734e-07
7.20923e-07
7.19364e-07
7.18061e-07
7.17014e-07
7.16228e-07
7.15702e-07
7.1544e-07
7.1544e-07
7.15703e-07
7.16228e-07
7.17015e-07
7.18061e-07
7.19365e-07
7.20924e-07
7.22734e-07
7.24792e-07
7.96304e-07
7.91226e-07
7.86275e-07
7.81452e-07
7.76768e-07
7.72234e-07
7.6786e-07
7.63656e-07
7.59631e-07
7.55795e-07
7.52156e-07
7.48722e-07
7.45501e-07
7.425e-07
7.39726e-07
7.37184e-07
7.34881e-07
7.32822e-07
7.3101e-07
7.2945e-07
7.28144e-07
7.27097e-07
7.26309e-07
7.25783e-07
7.2552e-07
7.2552e-07
7.25784e-07
7.2631e-07
7.27097e-07
7.28145e-07
7.2945e-07
7.3101e-07
7.32822e-07
7.34882e-07
8.06234e-07
8.01181e-07
7.96253e-07
7.91451e-07
7.86785e-07
7.82268e-07
7.77907e-07
7.73715e-07
7.697e-07
7.65872e-07
7.6224e-07
7.58811e-07
7.55594e-07
7.52596e-07
7.49824e-07
7.47285e-07
7.44982e-07
7.42923e-07
7.41111e-07
7.39551e-07
7.38246e-07
7.37198e-07
7.3641e-07
7.35884e-07
7.35621e-07
7.35621e-07
7.35884e-07
7.3641e-07
7.37198e-07
7.38246e-07
7.39552e-07
7.41112e-07
7.42924e-07
7.44983e-07
8.16126e-07
8.11103e-07
8.062e-07
8.01421e-07
7.96777e-07
7.92278e-07
7.87934e-07
7.83757e-07
7.79755e-07
7.75937e-07
7.72314e-07
7.68893e-07
7.65683e-07
7.62691e-07
7.59923e-07
7.57386e-07
7.55087e-07
7.5303e-07
7.5122e-07
7.49661e-07
7.48356e-07
7.47309e-07
7.46521e-07
7.45995e-07
7.45732e-07
7.45732e-07
7.45995e-07
7.46521e-07
7.47309e-07
7.48356e-07
7.49661e-07
7.5122e-07
7.5303e-07
7.55087e-07
8.25976e-07
8.20984e-07
8.1611e-07
8.11358e-07
8.06737e-07
8.02259e-07
7.97935e-07
7.93774e-07
7.89788e-07
7.85984e-07
7.82372e-07
7.78962e-07
7.7576e-07
7.72775e-07
7.70014e-07
7.67483e-07
7.65188e-07
7.63134e-07
7.61327e-07
7.5977e-07
7.58467e-07
7.57421e-07
7.56635e-07
7.56109e-07
7.55846e-07
7.55847e-07
7.5611e-07
7.56635e-07
7.57421e-07
7.58467e-07
7.5977e-07
7.61327e-07
7.63134e-07
7.65188e-07
8.35779e-07
8.30821e-07
8.25978e-07
8.21254e-07
8.1666e-07
8.12206e-07
8.07904e-07
8.03763e-07
7.99793e-07
7.96005e-07
7.92408e-07
7.89009e-07
7.85819e-07
7.82843e-07
7.8009e-07
7.77566e-07
7.75277e-07
7.73228e-07
7.71425e-07
7.69871e-07
7.68571e-07
7.67528e-07
7.66743e-07
7.66218e-07
7.65956e-07
7.65956e-07
7.66219e-07
7.66743e-07
7.67528e-07
7.68572e-07
7.69872e-07
7.71425e-07
7.73228e-07
7.75277e-07
8.4553e-07
8.40608e-07
8.35799e-07
8.31106e-07
8.2654e-07
8.22113e-07
8.17834e-07
8.13715e-07
8.09766e-07
8.05995e-07
8.02414e-07
7.9903e-07
7.95852e-07
7.92888e-07
7.90144e-07
7.87629e-07
7.85347e-07
7.83305e-07
7.81507e-07
7.79958e-07
7.78662e-07
7.77621e-07
7.76838e-07
7.76315e-07
7.76053e-07
7.76054e-07
7.76315e-07
7.76838e-07
7.77621e-07
7.78662e-07
7.79959e-07
7.81508e-07
7.83305e-07
7.85348e-07
8.55225e-07
8.50341e-07
8.45568e-07
8.40908e-07
8.36373e-07
8.31974e-07
8.27722e-07
8.23627e-07
8.19699e-07
8.15949e-07
8.12385e-07
8.09018e-07
8.05854e-07
8.02903e-07
8.00171e-07
7.97666e-07
7.95393e-07
7.93359e-07
7.91567e-07
7.90024e-07
7.88732e-07
7.87694e-07
7.86914e-07
7.86393e-07
7.86132e-07
7.86132e-07
7.86393e-07
7.86914e-07
7.87695e-07
7.88732e-07
7.90024e-07
7.91568e-07
7.93359e-07
7.95393e-07
8.6486e-07
8.60017e-07
8.55281e-07
8.50656e-07
8.46154e-07
8.41786e-07
8.37561e-07
8.33492e-07
8.29589e-07
8.2586e-07
8.22317e-07
8.18967e-07
8.1582e-07
8.12883e-07
8.10164e-07
8.07671e-07
8.05408e-07
8.03382e-07
8.01599e-07
8.00062e-07
7.98775e-07
7.97742e-07
7.96964e-07
7.96445e-07
7.96185e-07
7.96185e-07
7.96445e-07
7.96965e-07
7.97742e-07
7.98775e-07
8.00062e-07
8.01599e-07
8.03383e-07
8.05408e-07
8.07671e-07
8.74431e-07
8.6963e-07
8.64933e-07
8.60346e-07
8.55879e-07
8.51542e-07
8.47348e-07
8.43307e-07
8.39429e-07
8.35724e-07
8.32202e-07
8.28873e-07
8.25743e-07
8.22823e-07
8.20118e-07
8.17638e-07
8.15386e-07
8.13371e-07
8.11596e-07
8.10066e-07
8.08785e-07
8.07756e-07
8.06983e-07
8.06466e-07
8.06207e-07
8.06207e-07
8.06466e-07
8.06983e-07
8.07757e-07
8.08785e-07
8.10066e-07
8.11596e-07
8.13371e-07
8.15387e-07
8.17638e-07
8.83934e-07
8.79177e-07
8.74522e-07
8.69973e-07
8.65543e-07
8.61241e-07
8.57078e-07
8.53067e-07
8.49216e-07
8.45537e-07
8.42038e-07
8.38729e-07
8.35619e-07
8.32717e-07
8.30028e-07
8.27561e-07
8.25323e-07
8.23318e-07
8.21552e-07
8.20031e-07
8.18756e-07
8.17733e-07
8.16963e-07
8.16449e-07
8.16192e-07
8.16192e-07
8.16449e-07
8.16964e-07
8.17734e-07
8.18757e-07
8.20031e-07
8.21553e-07
8.23318e-07
8.25323e-07
8.27562e-07
8.93367e-07
8.88655e-07
8.84043e-07
8.79535e-07
8.75142e-07
8.70876e-07
8.66747e-07
8.62767e-07
8.58946e-07
8.55293e-07
8.51819e-07
8.48533e-07
8.45444e-07
8.4256e-07
8.39888e-07
8.37437e-07
8.35212e-07
8.33219e-07
8.31464e-07
8.29951e-07
8.28684e-07
8.27667e-07
8.26901e-07
8.2639e-07
8.26134e-07
8.26134e-07
8.2639e-07
8.26902e-07
8.27667e-07
8.28685e-07
8.29952e-07
8.31465e-07
8.3322e-07
8.35212e-07
9.02726e-07
8.98061e-07
8.93493e-07
8.89027e-07
8.84674e-07
8.80445e-07
8.76352e-07
8.72404e-07
8.68613e-07
8.64989e-07
8.61541e-07
8.58279e-07
8.55212e-07
8.52348e-07
8.49695e-07
8.4726e-07
8.4505e-07
8.4307e-07
8.41326e-07
8.39822e-07
8.38563e-07
8.37552e-07
8.36791e-07
8.36283e-07
8.36029e-07
8.36029e-07
8.36283e-07
8.36792e-07
8.37552e-07
8.38564e-07
8.39823e-07
8.41326e-07
8.4307e-07
8.4505e-07
9.12007e-07
9.07391e-07
9.02869e-07
8.98446e-07
8.94135e-07
8.89945e-07
8.85887e-07
8.81974e-07
8.78215e-07
8.7462e-07
8.712e-07
8.67963e-07
8.64919e-07
8.62077e-07
8.59443e-07
8.57026e-07
8.54831e-07
8.52865e-07
8.51133e-07
8.49639e-07
8.48389e-07
8.47385e-07
8.46629e-07
8.46124e-07
8.45871e-07
8.45871e-07
8.46124e-07
8.46629e-07
8.47385e-07
8.48389e-07
8.4964e-07
8.51133e-07
8.52865e-07
8.54831e-07
9.21209e-07
9.16642e-07
9.12167e-07
9.0779e-07
9.03521e-07
8.99371e-07
8.95351e-07
8.91473e-07
8.87747e-07
8.84183e-07
8.80792e-07
8.77582e-07
8.74563e-07
8.71742e-07
8.69129e-07
8.6673e-07
8.64552e-07
8.626e-07
8.60881e-07
8.59398e-07
8.58157e-07
8.5716e-07
8.56409e-07
8.55908e-07
8.55657e-07
8.55657e-07
8.55908e-07
8.5641e-07
8.5716e-07
8.58157e-07
8.59399e-07
8.60881e-07
8.62601e-07
8.64552e-07
9.30329e-07
9.25813e-07
9.21386e-07
9.17055e-07
9.12829e-07
9.08721e-07
9.0474e-07
9.00899e-07
8.97207e-07
8.93675e-07
8.90314e-07
8.87131e-07
8.84138e-07
8.81341e-07
8.78749e-07
8.76369e-07
8.74208e-07
8.72272e-07
8.70566e-07
8.69095e-07
8.67863e-07
8.66873e-07
8.66129e-07
8.65631e-07
8.65382e-07
8.65382e-07
8.65631e-07
8.66129e-07
8.66874e-07
8.67863e-07
8.69095e-07
8.70567e-07
8.72272e-07
9.39364e-07
9.349e-07
9.30523e-07
9.26239e-07
9.22058e-07
9.17992e-07
9.14052e-07
9.10248e-07
9.06592e-07
9.03093e-07
8.99762e-07
8.96608e-07
8.93641e-07
8.90869e-07
8.88299e-07
8.85939e-07
8.83797e-07
8.81876e-07
8.80184e-07
8.78725e-07
8.77503e-07
8.76522e-07
8.75783e-07
8.75289e-07
8.75042e-07
8.75042e-07
8.75289e-07
8.75783e-07
8.76522e-07
8.77504e-07
8.78726e-07
8.80185e-07
8.81877e-07
9.48312e-07
9.43901e-07
9.39574e-07
9.35338e-07
9.31204e-07
9.27181e-07
9.23282e-07
9.19517e-07
9.15897e-07
9.12433e-07
9.09134e-07
9.0601e-07
9.0307e-07
9.00323e-07
8.97776e-07
8.95438e-07
8.93313e-07
8.9141e-07
8.89733e-07
8.88286e-07
8.87074e-07
8.86101e-07
8.85369e-07
8.84879e-07
8.84634e-07
8.84634e-07
8.84879e-07
8.85369e-07
8.86101e-07
8.87075e-07
8.88287e-07
8.89733e-07
9.57171e-07
9.52814e-07
9.48539e-07
9.44352e-07
9.40264e-07
9.36286e-07
9.32429e-07
9.28704e-07
9.25122e-07
9.21692e-07
9.18426e-07
9.15333e-07
9.12421e-07
9.097e-07
9.07177e-07
9.0486e-07
9.02756e-07
9.00869e-07
8.99207e-07
8.97774e-07
8.96573e-07
8.95608e-07
8.94882e-07
8.94397e-07
8.94154e-07
8.94154e-07
8.94397e-07
8.94882e-07
8.95608e-07
8.96573e-07
8.97774e-07
8.99208e-07
9.65939e-07
9.61636e-07
9.57414e-07
9.53277e-07
9.49237e-07
9.45304e-07
9.4149e-07
9.37806e-07
9.34262e-07
9.30869e-07
9.27636e-07
9.24574e-07
9.21692e-07
9.18997e-07
9.16499e-07
9.14205e-07
9.1212e-07
9.10252e-07
9.08605e-07
9.07185e-07
9.05995e-07
9.05039e-07
9.0432e-07
9.03839e-07
9.03599e-07
9.03599e-07
9.03839e-07
9.0432e-07
9.0504e-07
9.05996e-07
9.07185e-07
9.08606e-07
9.74615e-07
9.70367e-07
9.66197e-07
9.62112e-07
9.5812e-07
9.54234e-07
9.50464e-07
9.46821e-07
9.43316e-07
9.39959e-07
9.36761e-07
9.33732e-07
9.30879e-07
9.28212e-07
9.25739e-07
9.23467e-07
9.21404e-07
9.19554e-07
9.17923e-07
9.16517e-07
9.15339e-07
9.14392e-07
9.1368e-07
9.13204e-07
9.12965e-07
9.12965e-07
9.13204e-07
9.1368e-07
9.14392e-07
9.15339e-07
9.16518e-07
9.17924e-07
9.83195e-07
9.79003e-07
9.74888e-07
9.70854e-07
9.66912e-07
9.63072e-07
9.59347e-07
9.55746e-07
9.52281e-07
9.48962e-07
9.45799e-07
9.42802e-07
9.3998e-07
9.37342e-07
9.34895e-07
9.32647e-07
9.30604e-07
9.28773e-07
9.27159e-07
9.25767e-07
9.24601e-07
9.23664e-07
9.22958e-07
9.22487e-07
9.22251e-07
9.22251e-07
9.22487e-07
9.22959e-07
9.23664e-07
9.24601e-07
9.25768e-07
9.2716e-07
9.91679e-07
9.87544e-07
9.83483e-07
9.79502e-07
9.7561e-07
9.71818e-07
9.68138e-07
9.6458e-07
9.61156e-07
9.57875e-07
9.54748e-07
9.51785e-07
9.48994e-07
9.46384e-07
9.43963e-07
9.41739e-07
9.39719e-07
9.37907e-07
9.3631e-07
9.34933e-07
9.33778e-07
9.32851e-07
9.32153e-07
9.31687e-07
9.31453e-07
9.31453e-07
9.31687e-07
9.32153e-07
9.32851e-07
9.33779e-07
9.34933e-07
9.36311e-07
1.00007e-06
9.95988e-07
9.91982e-07
9.88053e-07
9.84212e-07
9.80469e-07
9.76835e-07
9.73321e-07
9.69938e-07
9.66696e-07
9.63605e-07
9.60676e-07
9.57917e-07
9.55336e-07
9.52943e-07
9.50744e-07
9.48745e-07
9.46953e-07
9.45374e-07
9.44011e-07
9.42869e-07
9.41952e-07
9.41261e-07
9.408e-07
9.40569e-07
9.40569e-07
9.408e-07
9.41262e-07
9.41952e-07
9.4287e-07
9.44012e-07
9.45374e-07
1.00835e-06
1.00433e-06
1.00038e-06
9.96508e-07
9.92718e-07
9.89024e-07
9.85436e-07
9.81966e-07
9.78625e-07
9.75422e-07
9.72369e-07
9.69474e-07
9.66747e-07
9.64197e-07
9.61831e-07
9.59657e-07
9.57681e-07
9.55909e-07
9.54347e-07
9.53e-07
9.51871e-07
9.50964e-07
9.50281e-07
9.49825e-07
9.49596e-07
9.49597e-07
9.49825e-07
9.50281e-07
9.50964e-07
9.51872e-07
9.53001e-07
9.54348e-07
1.01654e-06
1.01258e-06
1.00868e-06
1.00486e-06
1.00112e-06
9.9748e-07
9.9394e-07
9.90515e-07
9.87216e-07
9.84053e-07
9.81037e-07
9.78178e-07
9.75484e-07
9.72964e-07
9.70626e-07
9.68477e-07
9.66524e-07
9.64773e-07
9.6323e-07
9.61898e-07
9.60782e-07
9.59885e-07
9.5921e-07
9.58759e-07
9.58533e-07
9.58533e-07
9.58759e-07
9.5921e-07
9.59885e-07
9.60782e-07
9.61898e-07
9.6323e-07
1.02462e-06
1.02072e-06
1.01688e-06
1.01312e-06
1.00943e-06
1.00584e-06
1.00234e-06
9.98964e-07
9.95708e-07
9.92586e-07
9.89608e-07
9.86785e-07
9.84124e-07
9.81635e-07
9.79325e-07
9.77203e-07
9.75273e-07
9.73543e-07
9.72018e-07
9.70702e-07
9.69599e-07
9.68713e-07
9.68046e-07
9.676e-07
9.67377e-07
9.67377e-07
9.676e-07
9.68046e-07
9.68713e-07
9.696e-07
9.70703e-07
9.72019e-07
1.0326e-06
1.02876e-06
1.02498e-06
1.02127e-06
1.01764e-06
1.01409e-06
1.01065e-06
1.00731e-06
1.0041e-06
1.00102e-06
9.98081e-07
9.95293e-07
9.92666e-07
9.90208e-07
9.87928e-07
9.85831e-07
9.83926e-07
9.82217e-07
9.8071e-07
9.7941e-07
9.78321e-07
9.77446e-07
9.76787e-07
9.76346e-07
9.76126e-07
9.76126e-07
9.76347e-07
9.76787e-07
9.77446e-07
9.78322e-07
9.79411e-07
9.80711e-07
1.04048e-06
1.0367e-06
1.03297e-06
1.02932e-06
1.02574e-06
1.02225e-06
1.01885e-06
1.01556e-06
1.01239e-06
1.00935e-06
1.00645e-06
1.0037e-06
1.00111e-06
9.98683e-07
9.96432e-07
9.94362e-07
9.92481e-07
9.90793e-07
9.89306e-07
9.88022e-07
9.86946e-07
9.86082e-07
9.85431e-07
9.84996e-07
9.84778e-07
9.84779e-07
9.84996e-07
9.85432e-07
9.86082e-07
9.86947e-07
9.88023e-07
9.89306e-07
1.04825e-06
1.04453e-06
1.04086e-06
1.03726e-06
1.03374e-06
1.03029e-06
1.02695e-06
1.02371e-06
1.02058e-06
1.01758e-06
1.01472e-06
1.01201e-06
1.00945e-06
1.00706e-06
1.00483e-06
1.00279e-06
1.00094e-06
9.9927e-07
9.97802e-07
9.96534e-07
9.95473e-07
9.94619e-07
9.93977e-07
9.93548e-07
9.93333e-07
9.93333e-07
9.93548e-07
9.93977e-07
9.9462e-07
9.95473e-07
9.96535e-07
9.97802e-07
1.05591e-06
1.05225e-06
1.04864e-06
1.0451e-06
1.04163e-06
1.03824e-06
1.03494e-06
1.03175e-06
1.02867e-06
1.02571e-06
1.02289e-06
1.02021e-06
1.01769e-06
1.01533e-06
1.01314e-06
1.01112e-06
1.00929e-06
1.00765e-06
1.0062e-06
1.00495e-06
1.0039e-06
1.00306e-06
1.00242e-06
1.002e-06
1.00179e-06
1.00179e-06
1.002e-06
1.00242e-06
1.00306e-06
1.0039e-06
1.00495e-06
1.0062e-06
1.06347e-06
1.05987e-06
1.05632e-06
1.05283e-06
1.04942e-06
1.04608e-06
1.04283e-06
1.03968e-06
1.03665e-06
1.03373e-06
1.03095e-06
1.02831e-06
1.02583e-06
1.0235e-06
1.02133e-06
1.01935e-06
1.01754e-06
1.01592e-06
1.01449e-06
1.01326e-06
1.01222e-06
1.01139e-06
1.01077e-06
1.01035e-06
1.01014e-06
1.01014e-06
1.01035e-06
1.01077e-06
1.01139e-06
1.01222e-06
1.01326e-06
1.01449e-06
1.07092e-06
1.06737e-06
1.06389e-06
1.06046e-06
1.05709e-06
1.05381e-06
1.05061e-06
1.04751e-06
1.04452e-06
1.04165e-06
1.03891e-06
1.03631e-06
1.03386e-06
1.03156e-06
1.02943e-06
1.02747e-06
1.02569e-06
1.02409e-06
1.02268e-06
1.02146e-06
1.02044e-06
1.01962e-06
1.01901e-06
1.0186e-06
1.01839e-06
1.01839e-06
1.0186e-06
1.01901e-06
1.01962e-06
1.02044e-06
1.02146e-06
1.07825e-06
1.07477e-06
1.07135e-06
1.06797e-06
1.06466e-06
1.06143e-06
1.05828e-06
1.05523e-06
1.05229e-06
1.04946e-06
1.04676e-06
1.0442e-06
1.04178e-06
1.03952e-06
1.03742e-06
1.03548e-06
1.03373e-06
1.03215e-06
1.03076e-06
1.02956e-06
1.02856e-06
1.02775e-06
1.02714e-06
1.02674e-06
1.02653e-06
1.02653e-06
1.02674e-06
1.02714e-06
1.02775e-06
1.02856e-06
1.02957e-06
1.08548e-06
1.08206e-06
1.07869e-06
1.07538e-06
1.07212e-06
1.06894e-06
1.06585e-06
1.06284e-06
1.05994e-06
1.05716e-06
1.0545e-06
1.05198e-06
1.04959e-06
1.04737e-06
1.0453e-06
1.04339e-06
1.04166e-06
1.04011e-06
1.03874e-06
1.03756e-06
1.03657e-06
1.03577e-06
1.03517e-06
1.03477e-06
1.03457e-06
1.03457e-06
1.03477e-06
1.03517e-06
1.03577e-06
1.03657e-06
1.09259e-06
1.08924e-06
1.08593e-06
1.08267e-06
1.07947e-06
1.07635e-06
1.0733e-06
1.07034e-06
1.06749e-06
1.06475e-06
1.06213e-06
1.05965e-06
1.0573e-06
1.05511e-06
1.05307e-06
1.05119e-06
1.04949e-06
1.04796e-06
1.04661e-06
1.04545e-06
1.04447e-06
1.04369e-06
1.0431e-06
1.0427e-06
1.04251e-06
1.04251e-06
1.0427e-06
1.0431e-06
1.04369e-06
1.04447e-06
1.0996e-06
1.0963e-06
1.09305e-06
1.08985e-06
1.08671e-06
1.08364e-06
1.08064e-06
1.07773e-06
1.07493e-06
1.07223e-06
1.06965e-06
1.06721e-06
1.0649e-06
1.06274e-06
1.06073e-06
1.05889e-06
1.05721e-06
1.0557e-06
1.05437e-06
1.05323e-06
1.05227e-06
1.05149e-06
1.05091e-06
1.05052e-06
1.05033e-06
1.05033e-06
1.05052e-06
1.05091e-06
1.05149e-06
1.05227e-06
1.10649e-06
1.10325e-06
1.10007e-06
1.09692e-06
1.09384e-06
1.09081e-06
1.08787e-06
1.08501e-06
1.08225e-06
1.0796e-06
1.07706e-06
1.07466e-06
1.07238e-06
1.07026e-06
1.06828e-06
1.06647e-06
1.06481e-06
1.06333e-06
1.06202e-06
1.0609e-06
1.05995e-06
1.05919e-06
1.05862e-06
1.05823e-06
1.05804e-06
1.05804e-06
1.05824e-06
1.05862e-06
1.05919e-06
1.05995e-06
1.11326e-06
1.11009e-06
1.10696e-06
1.10388e-06
1.10085e-06
1.09788e-06
1.09499e-06
1.09218e-06
1.08946e-06
1.08685e-06
1.08436e-06
1.08199e-06
1.07976e-06
1.07767e-06
1.07572e-06
1.07394e-06
1.07231e-06
1.07085e-06
1.06956e-06
1.06845e-06
1.06752e-06
1.06678e-06
1.06621e-06
1.06584e-06
1.06565e-06
1.06565e-06
1.06584e-06
1.06621e-06
1.06678e-06
1.06752e-06
1.11992e-06
1.11681e-06
1.11375e-06
1.11072e-06
1.10774e-06
1.10483e-06
1.10199e-06
1.09923e-06
1.09656e-06
1.09399e-06
1.09154e-06
1.08922e-06
1.08702e-06
1.08496e-06
1.08305e-06
1.08129e-06
1.07969e-06
1.07826e-06
1.07699e-06
1.0759e-06
1.07498e-06
1.07425e-06
1.07369e-06
1.07332e-06
1.07314e-06
1.07314e-06
1.07332e-06
1.0737e-06
1.07425e-06
1.07499e-06
1.12647e-06
1.12342e-06
1.12041e-06
1.11745e-06
1.11453e-06
1.11167e-06
1.10887e-06
1.10616e-06
1.10354e-06
1.10102e-06
1.09861e-06
1.09632e-06
1.09417e-06
1.09214e-06
1.09026e-06
1.08854e-06
1.08696e-06
1.08555e-06
1.08431e-06
1.08323e-06
1.08233e-06
1.08161e-06
1.08106e-06
1.0807e-06
1.08052e-06
1.08052e-06
1.0807e-06
1.08107e-06
1.08161e-06
1.08233e-06
1.13289e-06
1.12991e-06
1.12696e-06
1.12405e-06
1.12119e-06
1.11838e-06
1.11564e-06
1.11298e-06
1.11041e-06
1.10793e-06
1.10557e-06
1.10332e-06
1.1012e-06
1.09921e-06
1.09736e-06
1.09566e-06
1.09412e-06
1.09273e-06
1.09151e-06
1.09045e-06
1.08957e-06
1.08886e-06
1.08832e-06
1.08796e-06
1.08778e-06
1.08778e-06
1.08796e-06
1.08832e-06
1.08886e-06
1.08957e-06
1.1392e-06
1.13628e-06
1.1334e-06
1.13055e-06
1.12774e-06
1.12499e-06
1.1223e-06
1.11968e-06
1.11716e-06
1.11473e-06
1.1124e-06
1.1102e-06
1.10811e-06
1.10616e-06
1.10435e-06
1.10268e-06
1.10116e-06
1.0998e-06
1.09859e-06
1.09756e-06
1.09669e-06
1.09599e-06
1.09546e-06
1.09511e-06
1.09493e-06
1.09493e-06
1.09511e-06
1.09546e-06
1.09599e-06
1.09669e-06
1.14539e-06
1.14254e-06
1.13971e-06
1.13692e-06
1.13417e-06
1.13147e-06
1.12883e-06
1.12627e-06
1.12379e-06
1.1214e-06
1.11912e-06
1.11696e-06
1.11491e-06
1.11299e-06
1.11121e-06
1.10957e-06
1.10808e-06
1.10674e-06
1.10556e-06
1.10454e-06
1.10369e-06
1.103e-06
1.10249e-06
1.10214e-06
1.10197e-06
1.10197e-06
1.10214e-06
1.10249e-06
1.103e-06
1.10369e-06
1.15146e-06
1.14867e-06
1.14591e-06
1.14317e-06
1.14048e-06
1.13783e-06
1.13525e-06
1.13273e-06
1.1303e-06
1.12796e-06
1.12573e-06
1.1236e-06
1.12159e-06
1.11971e-06
1.11796e-06
1.11635e-06
1.11489e-06
1.11357e-06
1.11241e-06
1.11141e-06
1.11057e-06
1.1099e-06
1.10939e-06
1.10905e-06
1.10888e-06
1.10888e-06
1.10905e-06
1.10939e-06
1.1099e-06
1.11058e-06
1.15741e-06
1.15468e-06
1.15198e-06
1.14931e-06
1.14667e-06
1.14408e-06
1.14155e-06
1.13908e-06
1.1367e-06
1.1344e-06
1.13221e-06
1.13012e-06
1.12815e-06
1.1263e-06
1.12459e-06
1.12301e-06
1.12157e-06
1.12028e-06
1.11915e-06
1.11816e-06
1.11734e-06
1.11668e-06
1.11618e-06
1.11585e-06
1.11568e-06
1.11568e-06
1.11585e-06
1.11618e-06
1.11668e-06
1.11734e-06
1.16324e-06
1.16058e-06
1.15793e-06
1.15532e-06
1.15274e-06
1.1502e-06
1.14772e-06
1.14531e-06
1.14297e-06
1.14072e-06
1.13857e-06
1.13652e-06
1.13459e-06
1.13278e-06
1.1311e-06
1.12955e-06
1.12814e-06
1.12688e-06
1.12576e-06
1.1248e-06
1.12399e-06
1.12334e-06
1.12285e-06
1.12253e-06
1.12236e-06
1.12236e-06
1.12253e-06
1.12285e-06
1.12334e-06
1.12399e-06
1.16895e-06
1.16635e-06
1.16377e-06
1.16121e-06
1.15868e-06
1.1562e-06
1.15377e-06
1.15141e-06
1.14912e-06
1.14692e-06
1.14481e-06
1.1428e-06
1.14091e-06
1.13913e-06
1.13749e-06
1.13597e-06
1.13459e-06
1.13335e-06
1.13225e-06
1.13131e-06
1.13052e-06
1.12988e-06
1.1294e-06
1.12908e-06
1.12892e-06
1.12892e-06
1.12908e-06
1.1294e-06
1.12988e-06
1.13052e-06
1.17453e-06
1.17199e-06
1.16947e-06
1.16698e-06
1.16451e-06
1.16208e-06
1.1597e-06
1.15739e-06
1.15515e-06
1.15299e-06
1.15093e-06
1.14896e-06
1.14711e-06
1.14537e-06
1.14375e-06
1.14226e-06
1.14091e-06
1.1397e-06
1.13862e-06
1.1377e-06
1.13692e-06
1.1363e-06
1.13583e-06
1.13552e-06
1.13536e-06
1.13536e-06
1.13552e-06
1.13583e-06
1.1363e-06
1.13692e-06
1.17999e-06
1.17751e-06
1.17506e-06
1.17262e-06
1.17021e-06
1.16783e-06
1.16551e-06
1.16325e-06
1.16105e-06
1.15894e-06
1.15692e-06
1.155e-06
1.15318e-06
1.15148e-06
1.14989e-06
1.14844e-06
1.14711e-06
1.14592e-06
1.14487e-06
1.14397e-06
1.14321e-06
1.14259e-06
1.14213e-06
1.14183e-06
1.14167e-06
1.14167e-06
1.14183e-06
1.14214e-06
1.1426e-06
1.14321e-06
1.18532e-06
1.18291e-06
1.18051e-06
1.17813e-06
1.17578e-06
1.17346e-06
1.17119e-06
1.16898e-06
1.16683e-06
1.16477e-06
1.16279e-06
1.16091e-06
1.15913e-06
1.15746e-06
1.15591e-06
1.15449e-06
1.15319e-06
1.15202e-06
1.151e-06
1.15011e-06
1.14936e-06
1.14877e-06
1.14832e-06
1.14802e-06
1.14786e-06
1.14787e-06
1.14802e-06
1.14832e-06
1.14877e-06
1.14937e-06
1.19052e-06
1.18818e-06
1.18584e-06
1.18352e-06
1.18123e-06
1.17896e-06
1.17674e-06
1.17458e-06
1.17248e-06
1.17047e-06
1.16853e-06
1.16669e-06
1.16495e-06
1.16332e-06
1.16181e-06
1.16041e-06
1.15914e-06
1.158e-06
1.157e-06
1.15613e-06
1.1554e-06
1.15481e-06
1.15437e-06
1.15408e-06
1.15393e-06
1.15393e-06
1.15408e-06
1.15437e-06
1.15481e-06
1.1554e-06
1.1956e-06
1.19332e-06
1.19105e-06
1.18879e-06
1.18655e-06
1.18434e-06
1.18217e-06
1.18006e-06
1.17801e-06
1.17604e-06
1.17415e-06
1.17235e-06
1.17065e-06
1.16905e-06
1.16757e-06
1.16621e-06
1.16497e-06
1.16385e-06
1.16287e-06
1.16202e-06
1.16131e-06
1.16074e-06
1.1603e-06
1.16002e-06
1.15987e-06
1.15987e-06
1.16002e-06
1.1603e-06
1.16074e-06
1.16131e-06
1.20055e-06
1.19833e-06
1.19612e-06
1.19392e-06
1.19173e-06
1.18958e-06
1.18747e-06
1.18541e-06
1.18341e-06
1.18148e-06
1.17963e-06
1.17788e-06
1.17622e-06
1.17466e-06
1.17321e-06
1.17188e-06
1.17066e-06
1.16958e-06
1.16861e-06
1.16778e-06
1.16709e-06
1.16653e-06
1.16611e-06
1.16583e-06
1.16569e-06
1.16569e-06
1.16583e-06
1.16611e-06
1.16653e-06
1.16709e-06
1.20536e-06
1.20321e-06
1.20106e-06
1.19892e-06
1.19679e-06
1.19469e-06
1.19263e-06
1.19062e-06
1.18867e-06
1.18679e-06
1.18499e-06
1.18327e-06
1.18165e-06
1.18013e-06
1.17872e-06
1.17742e-06
1.17623e-06
1.17517e-06
1.17423e-06
1.17342e-06
1.17274e-06
1.17219e-06
1.17178e-06
1.17151e-06
1.17137e-06
1.17137e-06
1.17151e-06
1.17178e-06
1.17219e-06
1.17274e-06
1.21004e-06
1.20796e-06
1.20587e-06
1.20379e-06
1.20172e-06
1.19968e-06
1.19767e-06
1.19571e-06
1.19381e-06
1.19197e-06
1.19022e-06
1.18854e-06
1.18696e-06
1.18548e-06
1.1841e-06
1.18283e-06
1.18167e-06
1.18063e-06
1.17972e-06
1.17893e-06
1.17826e-06
1.17773e-06
1.17733e-06
1.17706e-06
1.17692e-06
1.17692e-06
1.17706e-06
1.17733e-06
1.17773e-06
1.17826e-06
1.21055e-06
1.20852e-06
1.20651e-06
1.20452e-06
1.20257e-06
1.20066e-06
1.19881e-06
1.19702e-06
1.19531e-06
1.19368e-06
1.19214e-06
1.19069e-06
1.18365e-06
1.18313e-06
1.18274e-06
1.18248e-06
1.18235e-06
1.18235e-06
1.18248e-06
1.18274e-06
1.18313e-06
1.18365e-06
5.45493e-07
5.44728e-07
5.44156e-07
5.43774e-07
5.43583e-07
5.43583e-07
5.43774e-07
5.44156e-07
5.44728e-07
5.45492e-07
5.53801e-07
5.52805e-07
5.5201e-07
5.51413e-07
5.51016e-07
5.50817e-07
5.50817e-07
5.51016e-07
5.51413e-07
5.5201e-07
5.52805e-07
5.53801e-07
5.54996e-07
5.56392e-07
5.57989e-07
5.59788e-07
5.61788e-07
5.63991e-07
5.66395e-07
5.69e-07
5.71806e-07
5.64134e-07
5.62689e-07
5.61451e-07
5.6042e-07
5.59595e-07
5.58977e-07
5.58565e-07
5.58359e-07
5.58359e-07
5.58565e-07
5.58977e-07
5.59595e-07
5.6042e-07
5.61451e-07
5.62689e-07
5.64134e-07
5.65786e-07
5.67645e-07
5.69711e-07
5.71983e-07
5.74462e-07
5.77145e-07
5.80032e-07
5.83122e-07
5.86412e-07
5.899e-07
5.93584e-07
5.7789e-07
5.75764e-07
5.7385e-07
5.72147e-07
5.70657e-07
5.6938e-07
5.68315e-07
5.67463e-07
5.66825e-07
5.66399e-07
5.66186e-07
5.66186e-07
5.66399e-07
5.66825e-07
5.67463e-07
5.68315e-07
5.69379e-07
5.70657e-07
5.72147e-07
5.73849e-07
5.75764e-07
5.7789e-07
5.80227e-07
5.82773e-07
5.85528e-07
5.8849e-07
5.91656e-07
5.95024e-07
5.98591e-07
6.02355e-07
6.0631e-07
6.10454e-07
6.1478e-07
5.91311e-07
5.88702e-07
5.86306e-07
5.84125e-07
5.82159e-07
5.8041e-07
5.78878e-07
5.77565e-07
5.7647e-07
5.75593e-07
5.74936e-07
5.74497e-07
5.74278e-07
5.74278e-07
5.74497e-07
5.74936e-07
5.75593e-07
5.76469e-07
5.77564e-07
5.78878e-07
5.8041e-07
5.82159e-07
5.84124e-07
5.86306e-07
5.88702e-07
5.91311e-07
5.94131e-07
5.9716e-07
6.00395e-07
6.03834e-07
6.07474e-07
6.11309e-07
6.15336e-07
6.1955e-07
6.23945e-07
6.28516e-07
6.33255e-07
6.38173e-07
6.06025e-07
6.02934e-07
6.00055e-07
5.97389e-07
5.94939e-07
5.92707e-07
5.90694e-07
5.88903e-07
5.87333e-07
5.85987e-07
5.84863e-07
5.83964e-07
5.8329e-07
5.8284e-07
5.82615e-07
5.82615e-07
5.8284e-07
5.83289e-07
5.83964e-07
5.84863e-07
5.85986e-07
5.87333e-07
5.88903e-07
5.90694e-07
5.92706e-07
5.94938e-07
5.97388e-07
6.00054e-07
6.02934e-07
6.06024e-07
6.09323e-07
6.12826e-07
6.16529e-07
6.20429e-07
6.2452e-07
6.28797e-07
6.33254e-07
6.37884e-07
6.4268e-07
6.47652e-07
6.18421e-07
6.15066e-07
6.1192e-07
6.08986e-07
6.06269e-07
6.0377e-07
6.01492e-07
5.99437e-07
5.97607e-07
5.96003e-07
5.94626e-07
5.93477e-07
5.92557e-07
5.91867e-07
5.91406e-07
5.91176e-07
5.91176e-07
5.91406e-07
5.91867e-07
5.92557e-07
5.93477e-07
5.94626e-07
5.96003e-07
5.97607e-07
5.99437e-07
6.01492e-07
6.0377e-07
6.06268e-07
6.08986e-07
6.11919e-07
6.15065e-07
6.1842e-07
6.21981e-07
6.25742e-07
6.29699e-07
6.33847e-07
6.3818e-07
6.42691e-07
6.47373e-07
6.52219e-07
6.57236e-07
6.31284e-07
6.27672e-07
6.24266e-07
6.21071e-07
6.18089e-07
6.15325e-07
6.12782e-07
6.10463e-07
6.0837e-07
6.06504e-07
6.04869e-07
6.03464e-07
6.02292e-07
6.01353e-07
6.00649e-07
6.00179e-07
5.99943e-07
5.99943e-07
6.00179e-07
6.00649e-07
6.01353e-07
6.02292e-07
6.03464e-07
6.04868e-07
6.06504e-07
6.08369e-07
6.10463e-07
6.12782e-07
6.15325e-07
6.18089e-07
6.2107e-07
6.24266e-07
6.27672e-07
6.31283e-07
6.35096e-07
6.39104e-07
6.43302e-07
6.47684e-07
6.52241e-07
6.56969e-07
6.61857e-07
6.66914e-07
6.44577e-07
6.40719e-07
6.37062e-07
6.33611e-07
6.30371e-07
6.27347e-07
6.24541e-07
6.21959e-07
6.19602e-07
6.17474e-07
6.15577e-07
6.13913e-07
6.12484e-07
6.11291e-07
6.10335e-07
6.09617e-07
6.09139e-07
6.08899e-07
6.08899e-07
6.09139e-07
6.09617e-07
6.10335e-07
6.11291e-07
6.12484e-07
6.13913e-07
6.15577e-07
6.17474e-07
6.19602e-07
6.21958e-07
6.24541e-07
6.27346e-07
6.30371e-07
6.33611e-07
6.37061e-07
6.40718e-07
6.44576e-07
6.48629e-07
6.52871e-07
6.57294e-07
6.61893e-07
6.66658e-07
6.71582e-07
6.76671e-07
6.5826e-07
6.54169e-07
6.50272e-07
6.46575e-07
6.43085e-07
6.39806e-07
6.36743e-07
6.33901e-07
6.31283e-07
6.28893e-07
6.26734e-07
6.24809e-07
6.2312e-07
6.21668e-07
6.20456e-07
6.19485e-07
6.18756e-07
6.18269e-07
6.18026e-07
6.18026e-07
6.18269e-07
6.18756e-07
6.19485e-07
6.20456e-07
6.21668e-07
6.23119e-07
6.24809e-07
6.26734e-07
6.28893e-07
6.31283e-07
6.339e-07
6.36742e-07
6.39805e-07
6.43084e-07
6.46574e-07
6.50271e-07
6.54168e-07
6.5826e-07
6.62539e-07
6.66999e-07
6.71631e-07
6.76429e-07
6.81383e-07
6.86498e-07
6.67984e-07
6.63859e-07
6.59928e-07
6.56197e-07
6.52673e-07
6.4936e-07
6.46263e-07
6.43389e-07
6.4074e-07
6.38321e-07
6.36135e-07
6.34184e-07
6.32472e-07
6.31001e-07
6.29772e-07
6.28787e-07
6.28047e-07
6.27554e-07
6.27307e-07
6.27307e-07
6.27554e-07
6.28047e-07
6.28787e-07
6.29772e-07
6.31e-07
6.32472e-07
6.34184e-07
6.36134e-07
6.3832e-07
6.40739e-07
6.43388e-07
6.46263e-07
6.49359e-07
6.52672e-07
6.56197e-07
6.59928e-07
6.63859e-07
6.67983e-07
6.72294e-07
6.76784e-07
6.81445e-07
6.86269e-07
6.91246e-07
6.96381e-07
6.82125e-07
6.77787e-07
6.73635e-07
6.69676e-07
6.65915e-07
6.62361e-07
6.59019e-07
6.55894e-07
6.52991e-07
6.50315e-07
6.4787e-07
6.45659e-07
6.43687e-07
6.41955e-07
6.40466e-07
6.39222e-07
6.38225e-07
6.37476e-07
6.36977e-07
6.36727e-07
6.36726e-07
6.36977e-07
6.37476e-07
6.38225e-07
6.39222e-07
6.40466e-07
6.41955e-07
6.43687e-07
6.45659e-07
6.47869e-07
6.50314e-07
6.5299e-07
6.55893e-07
6.59018e-07
6.62361e-07
6.65915e-07
6.69675e-07
6.73635e-07
6.77787e-07
6.82124e-07
6.86639e-07
6.91322e-07
6.96166e-07
7.01162e-07
7.06312e-07
6.96552e-07
6.92018e-07
6.87659e-07
6.83484e-07
6.79501e-07
6.75716e-07
6.72137e-07
6.6877e-07
6.6562e-07
6.62693e-07
6.59994e-07
6.57526e-07
6.55295e-07
6.53303e-07
6.51554e-07
6.5005e-07
6.48793e-07
6.47785e-07
6.47028e-07
6.46523e-07