/*--------------------------------*- C++ -*----------------------------------*\
  =========                 |
  \\      /  F ield         | OpenFOAM: The Open Source CFD Toolbox
   \\    /   O peration     | Website:  https://openfoam.org
    \\  /    A nd           | Version:  7
     \\/     M anipulation  |
\*---------------------------------------------------------------------------*/
FoamFile
{
    version     2.0;
    format      ascii;
    class       volVectorField;
    location    "180000";
    object      U;
}
// * * * * * * * * * * * * * * * * * * * * * * * * * * * * * * * * * * * * * //

dimensions      [0 1 -1 0 0 0 0];

internalField   nonuniform List<vector> 
4825
(
(-1.67684e-18 1.29654e-19 -0.0125151)
(-8.04637e-19 -1.30461e-18 -0.0125368)
(-1.74587e-18 1.12911e-19 -0.0124617)
(-8.96258e-19 -1.2408e-18 -0.0124835)
(-2.0194e-18 -3.09087e-19 -0.0125048)
(-8.86163e-19 -2.05956e-19 -0.0125256)
(-1.3276e-18 -4.69044e-19 -0.0125457)
(-1.88755e-18 1.97186e-19 -0.0124078)
(-1.12948e-18 -1.01341e-18 -0.0124297)
(-1.95504e-18 -3.75683e-19 -0.0124511)
(-1.02362e-18 -1.11185e-19 -0.0124719)
(-1.19017e-18 -6.14461e-19 -0.0124921)
(-2.06511e-18 4.11307e-19 -0.0123536)
(-1.30979e-18 -8.90702e-19 -0.0123755)
(-2.06419e-18 -2.41097e-19 -0.0123969)
(-1.26129e-18 1.19103e-19 -0.0124177)
(-1.23298e-18 -5.02173e-19 -0.012438)
(-1.952e-18 2.51445e-19 -0.0122988)
(-1.21504e-18 -1.08803e-18 -0.0123208)
(-2.11035e-18 -1.45415e-19 -0.0123422)
(-1.4376e-18 2.49349e-19 -0.0123631)
(-1.3149e-18 -3.97861e-19 -0.0123834)
(-1.70195e-18 -1.07773e-19 -0.0122436)
(-1.09338e-18 -1.28313e-18 -0.0122656)
(-2.06799e-18 -1.27977e-19 -0.0122871)
(-1.36882e-18 5.6606e-20 -0.0123081)
(-1.24707e-18 -4.74616e-19 -0.0123284)
(-1.5323e-18 -3.88042e-19 -0.0121879)
(-1.06977e-18 -1.32554e-18 -0.01221)
(-2.01843e-18 -1.52053e-19 -0.0122315)
(-1.222e-18 -2.8027e-19 -0.0122525)
(-1.06867e-18 -6.40805e-19 -0.0122729)
(-1.61614e-18 -3.66419e-19 -0.0121316)
(-1.13482e-18 -1.2531e-18 -0.0121538)
(-2.0177e-18 -1.42742e-19 -0.0121755)
(-1.24257e-18 -3.97637e-19 -0.0121965)
(-9.42641e-19 -7.2456e-19 -0.012217)
(-1.80268e-18 -1.89517e-19 -0.0120749)
(-1.45734e-18 -8.96398e-19 -0.0120971)
(-2.00935e-18 -1.48191e-19 -0.0121188)
(-1.47233e-18 -2.59421e-19 -0.01214)
(-9.02553e-19 -7.56406e-19 -0.0121605)
(-1.76163e-18 -1.76656e-19 -0.0120175)
(-1.99304e-18 -3.11769e-19 -0.0120399)
(-1.97704e-18 -2.21655e-19 -0.0120617)
(-1.74129e-18 -5.5414e-20 -0.0120829)
(-9.08842e-19 -7.30706e-19 -0.0121035)
(-1.47342e-18 -3.76408e-19 -0.0119597)
(-2.40411e-18 1.36677e-19 -0.0119821)
(-2.05037e-18 -2.08806e-19 -0.012004)
(-1.96027e-18 8.09916e-20 -0.0120252)
(-9.2602e-19 -6.84007e-19 -0.0120459)
(-1.16946e-18 -6.011e-19 -0.0119012)
(-2.48973e-18 2.50491e-19 -0.0119237)
(-2.09071e-18 -2.57054e-19 -0.0119456)
(-2.10085e-18 1.02789e-19 -0.011967)
(-9.14552e-19 -6.79525e-19 -0.0119877)
(-1.04725e-18 -6.37673e-19 -0.0118421)
(-2.24571e-18 -1.97965e-20 -0.0118647)
(-1.94987e-18 -5.25009e-19 -0.0118867)
(-2.15851e-18 1.53182e-20 -0.0119082)
(-8.87591e-19 -6.89726e-19 -0.0119289)
(-1.00464e-18 -6.4453e-19 -0.0117824)
(-1.97829e-18 -3.55078e-19 -0.0118051)
(-1.77475e-18 -7.92703e-19 -0.0118272)
(-2.18741e-18 -7.24331e-20 -0.0118487)
(-9.00428e-19 -7.48332e-19 -0.0117221)
(-1.92588e-18 -4.43667e-19 -0.0117449)
(-1.69142e-18 -9.27104e-19 -0.011767)
(-2.30262e-18 -3.03753e-20 -0.0117886)
(-8.04027e-19 -8.40233e-19 -0.0116611)
(-2.00799e-18 -3.6477e-19 -0.011684)
(-1.67854e-18 -9.59619e-19 -0.0117062)
(-2.52234e-18 1.99872e-19 -0.0117279)
(-7.67404e-19 -8.59375e-19 -0.0115995)
(-2.13909e-18 -2.18429e-19 -0.0116224)
(-1.66763e-18 -9.72194e-19 -0.0116447)
(-7.044e-19 -9.26071e-19 -0.0115372)
(-2.22083e-18 -1.33952e-19 -0.0115601)
(-1.52891e-18 -1.14909e-18 -0.0115825)
(-7.35282e-19 -9.05852e-19 -0.0114741)
(-2.22769e-18 -1.54368e-19 -0.0114972)
(-8.50047e-19 -7.76216e-19 -0.0114103)
(-2.25948e-18 -1.91878e-19 -0.0114335)
(-8.84007e-19 -7.15804e-19 -0.0113458)
(-2.24479e-18 -2.92427e-19 -0.011369)
(-9.9903e-19 -5.82178e-19 -0.0112804)
(-2.22225e-18 -4.01813e-19 -0.0113037)
(-1.26339e-18 -2.84548e-19 -0.0112143)
(-2.26072e-18 -4.69187e-19 -0.0112377)
(-1.42891e-18 -7.95701e-20 -0.0111473)
(-3.11558e-19 1.9693e-19 -0.0132704)
(-5.37072e-19 4.61523e-19 -0.0132916)
(2.10069e-19 6.23311e-19 -0.0133122)
(-6.48981e-19 5.67117e-19 -0.0133322)
(-8.77588e-19 4.34487e-19 -0.0133516)
(-1.07087e-19 6.5006e-19 -0.0133704)
(-8.70131e-19 7.97477e-19 -0.0133885)
(-2.11458e-20 8.59071e-19 -0.0134058)
(-1.05583e-18 4.10768e-19 -0.0134223)
(7.35169e-20 9.71449e-19 -0.0134381)
(-1.35881e-19 7.5007e-19 -0.013453)
(-3.2288e-19 6.3409e-19 -0.013467)
(-2.91813e-19 -4.74783e-20 -0.0134801)
(-2.9091e-19 2.54362e-19 -0.0134923)
(-1.24059e-18 3.91254e-19 -0.0135036)
(-1.32485e-18 1.11796e-18 -0.0135139)
(-1.13022e-18 6.29664e-19 -0.0135232)
(-6.065e-19 8.00197e-19 -0.0135316)
(-6.0224e-19 7.62387e-19 -0.0135389)
(-5.16115e-20 9.0802e-19 -0.0135452)
(-3.68645e-19 2.4147e-19 -0.0132225)
(-8.96804e-19 1.11286e-19 -0.0132437)
(1.07058e-19 5.11587e-19 -0.0132643)
(-6.9193e-19 6.21828e-19 -0.0132844)
(-2.90058e-19 7.93266e-19 -0.0133039)
(-1.73429e-19 6.30949e-19 -0.0133227)
(-8.60188e-19 7.82968e-19 -0.0133408)
(-5.89174e-20 8.86423e-19 -0.0133582)
(-1.1233e-18 3.84615e-19 -0.0133747)
(3.23196e-20 8.57654e-19 -0.0133905)
(5.53641e-20 8.7237e-19 -0.0134055)
(-5.56759e-20 7.93806e-19 -0.0134195)
(1.74853e-19 1.45474e-19 -0.0134327)
(-4.43709e-19 2.84698e-19 -0.0134449)
(-1.23289e-18 4.96366e-19 -0.0134562)
(-1.58961e-18 1.05515e-18 -0.0134666)
(-9.34392e-19 6.34893e-19 -0.0134759)
(-9.03643e-19 7.46543e-19 -0.0134842)
(-6.07121e-19 7.42355e-19 -0.0134916)
(-3.94428e-19 7.6297e-19 -0.0134979)
(-5.68691e-19 1.826e-19 -0.0131742)
(-9.57581e-19 5.36275e-21 -0.0131954)
(1.01455e-19 4.3588e-19 -0.0132162)
(-5.24968e-19 7.1616e-19 -0.0132363)
(-3.73112e-20 9.06728e-19 -0.0132558)
(-1.01527e-20 8.02284e-19 -0.0132747)
(-6.69644e-19 8.96283e-19 -0.0132928)
(-6.29315e-20 9.44917e-19 -0.0133102)
(-1.28344e-18 3.12886e-19 -0.0133268)
(9.39339e-20 7.77553e-19 -0.0133427)
(1.27712e-19 9.21655e-19 -0.0133576)
(1.92617e-20 8.33484e-19 -0.0133717)
(4.14444e-19 3.01042e-19 -0.0133849)
(-6.46667e-19 3.5168e-19 -0.0133972)
(-1.16225e-18 5.90831e-19 -0.0134085)
(-1.39375e-18 1.09423e-18 -0.0134189)
(-7.72762e-19 6.74337e-19 -0.0134282)
(-1.00719e-18 7.1586e-19 -0.0134366)
(-2.87213e-19 7.77057e-19 -0.013444)
(-5.99034e-19 6.71527e-19 -0.0134503)
(-5.55286e-19 2.97858e-19 -0.0131256)
(-7.58012e-19 6.35709e-20 -0.0131469)
(4.30585e-19 5.82824e-19 -0.0131677)
(-4.05999e-19 8.1534e-19 -0.0131878)
(-1.62003e-19 7.81991e-19 -0.0132074)
(1.52666e-19 9.30467e-19 -0.0132263)
(-4.97205e-19 1.01343e-18 -0.0132445)
(-2.74687e-20 1.09184e-18 -0.0132619)
(-1.43185e-18 2.48674e-19 -0.0132786)
(1.39617e-19 6.54579e-19 -0.0132945)
(-2.83032e-19 7.68965e-19 -0.0133095)
(-9.20582e-22 8.41469e-19 -0.0133236)
(2.31053e-19 3.00475e-19 -0.0133368)
(-6.07835e-19 4.81611e-19 -0.0133491)
(-9.59014e-19 6.8733e-19 -0.0133605)
(-1.07087e-18 1.17579e-18 -0.0133709)
(-6.1841e-19 7.20667e-19 -0.0133803)
(-7.97441e-19 7.4228e-19 -0.0133887)
(-1.93145e-19 7.97153e-19 -0.013396)
(-6.91173e-19 5.67731e-19 -0.0134024)
(-3.79329e-19 5.0211e-19 -0.0130767)
(-6.76781e-19 9.87126e-21 -0.013098)
(6.55935e-19 6.82225e-19 -0.0131188)
(-3.96727e-19 8.97825e-19 -0.0131391)
(-2.34785e-19 6.63791e-19 -0.0131587)
(3.23677e-19 1.02851e-18 -0.0131776)
(-5.64185e-19 9.95942e-19 -0.0131958)
(-1.58097e-19 1.15734e-18 -0.0132133)
(-1.28586e-18 3.54513e-19 -0.01323)
(5.51984e-20 5.54185e-19 -0.0132459)
(-6.65874e-19 6.20135e-19 -0.013261)
(5.56025e-20 8.27442e-19 -0.0132751)
(1.23639e-19 3.08679e-19 -0.0132884)
(-5.95192e-19 5.48623e-19 -0.0133007)
(-7.00954e-19 7.9066e-19 -0.0133121)
(-8.36106e-19 1.23147e-18 -0.0133225)
(-4.101e-19 7.876e-19 -0.0133319)
(-6.65575e-19 7.72592e-19 -0.0133404)
(-1.16183e-19 8.43987e-19 -0.0133477)
(-7.83449e-19 4.72536e-19 -0.0133541)
(-3.38714e-19 6.02595e-19 -0.0130274)
(-7.96252e-19 -1.82077e-19 -0.0130488)
(7.13498e-19 6.17982e-19 -0.0130697)
(-4.99106e-19 9.08665e-19 -0.0130899)
(-2.69637e-19 5.68119e-19 -0.0131096)
(4.10062e-19 1.09429e-18 -0.0131286)
(-9.76453e-19 8.25181e-19 -0.0131468)
(-3.54158e-19 1.13717e-18 -0.0131644)
(-1.07553e-18 4.81393e-19 -0.0131811)
(1.04777e-19 5.40084e-19 -0.0131971)
(-6.32209e-19 6.32613e-19 -0.0132121)
(6.24488e-20 7.91055e-19 -0.0132263)
(3.01843e-20 3.40798e-19 -0.0132396)
(-6.58516e-19 5.74642e-19 -0.013252)
(-5.81109e-19 8.22672e-19 -0.0132634)
(-7.13045e-19 1.26312e-18 -0.0132738)
(-2.40806e-19 8.51378e-19 -0.0132833)
(-7.86919e-19 7.50726e-19 -0.0132917)
(-3.86257e-19 8.38447e-19 -0.0132991)
(-7.40888e-19 4.2132e-19 -0.0133055)
(-3.19063e-19 6.51187e-19 -0.0129779)
(-9.03414e-19 -3.66287e-19 -0.0129993)
(6.03281e-19 4.33728e-19 -0.0130202)
(-6.12708e-19 9.17102e-19 -0.0130405)
(-2.93525e-19 4.47466e-19 -0.0130602)
(3.46274e-19 1.11041e-18 -0.0130792)
(-1.58652e-18 5.46387e-19 -0.0130975)
(-3.57286e-19 1.15047e-18 -0.0131151)
(-9.57557e-19 5.3402e-19 -0.0131319)
(5.13955e-19 7.09924e-19 -0.0131478)
(-8.30872e-19 5.73724e-19 -0.013163)
(-6.70126e-20 7.21239e-19 -0.0131772)
(-1.18793e-19 3.39539e-19 -0.0131905)
(-6.22319e-19 6.14342e-19 -0.0132029)
(-6.53828e-19 7.90533e-19 -0.0132144)
(-6.62182e-19 1.25428e-18 -0.0132248)
(5.5637e-20 9.79022e-19 -0.0132343)
(-8.60253e-19 8.11846e-19 -0.0132427)
(-6.1395e-19 8.02696e-19 -0.0132502)
(-7.36082e-19 3.37488e-19 -0.0132565)
(-4.20904e-19 6.1721e-19 -0.0129279)
(-8.41928e-19 -3.64683e-19 -0.0129494)
(3.55359e-19 1.14183e-19 -0.0129703)
(-4.6957e-19 1.07943e-18 -0.0129907)
(-5.53243e-19 1.94159e-19 -0.0130104)
(1.5856e-20 1.02093e-18 -0.0130295)
(-2.0234e-18 3.54431e-19 -0.0130478)
(-3.00419e-19 1.12809e-18 -0.0130655)
(-1.02943e-18 4.38571e-19 -0.0130823)
(9.23307e-19 9.2567e-19 -0.0130983)
(-1.04985e-18 5.803e-19 -0.0131134)
(-1.19767e-19 6.49482e-19 -0.0131277)
(-3.23011e-19 2.95657e-19 -0.0131411)
(-4.98844e-19 6.92198e-19 -0.0131535)
(-4.50047e-19 8.46405e-19 -0.013165)
(-6.44379e-19 1.18658e-18 -0.0131754)
(2.57672e-19 1.06607e-18 -0.0131849)
(-7.34371e-19 9.3603e-19 -0.0131934)
(-3.67744e-19 8.8507e-19 -0.0132008)
(-8.96505e-19 2.58294e-19 -0.0132072)
(-5.79052e-20 1.18678e-18 -0.0132126)
(-1.06081e-20 9.13505e-19 -0.0132169)
(-9.22218e-20 5.75416e-19 -0.0132201)
(4.0798e-20 1.2279e-18 -0.0132223)
(7.34666e-19 4.37821e-19 -0.0132233)
(8.32584e-20 -8.55784e-19 -0.0132233)
(-1.51593e-19 -1.16079e-19 -0.0132223)
(4.15554e-19 -6.34396e-19 -0.0132201)
(-4.48338e-20 -1.93412e-19 -0.0132169)
(4.54684e-19 -3.96488e-19 -0.0132126)
(1.75387e-19 -2.58481e-19 -0.0132072)
(4.25816e-19 6.06923e-20 -0.0132008)
(9.95196e-20 -9.09977e-19 -0.0131934)
(-3.19926e-19 -3.84122e-19 -0.0131849)
(-1.78024e-19 3.68015e-20 -0.0131754)
(-6.09788e-19 5.10778e-19 -0.0128776)
(-5.59598e-19 -1.7851e-19 -0.0128991)
(-8.24364e-20 -3.52064e-19 -0.0129201)
(-3.56761e-19 1.2434e-18 -0.0129405)
(-9.54462e-19 -7.91917e-20 -0.0129603)
(-2.29102e-19 9.46376e-19 -0.0129794)
(-1.95412e-18 4.10442e-19 -0.0129978)
(-2.65081e-19 1.0977e-18 -0.0130155)
(-1.09172e-18 3.24937e-19 -0.0130323)
(9.79708e-19 9.44751e-19 -0.0130484)
(-1.16665e-18 6.52833e-19 -0.0130636)
(2.53417e-20 6.92162e-19 -0.0130779)
(-5.86778e-19 2.13637e-19 -0.0130913)
(-2.8432e-19 7.2116e-19 -0.0131037)
(-2.98626e-20 9.88415e-19 -0.0131152)
(-5.23682e-19 1.19326e-18 -0.0131257)
(9.73927e-20 1.05263e-18 -0.0131352)
(-7.29505e-19 1.00798e-18 -0.0131437)
(-1.79257e-19 9.80958e-19 -0.0131512)
(-9.67357e-19 2.50899e-19 -0.0131576)
(-2.05135e-19 1.10289e-18 -0.0131629)
(-4.23968e-20 9.2665e-19 -0.0131672)
(-1.84067e-19 5.5675e-19 -0.0131705)
(2.77001e-20 1.16645e-18 -0.0131726)
(9.40828e-19 4.57461e-19 -0.0131737)
(2.61087e-19 -7.75084e-19 -0.0131737)
(-3.41724e-19 -1.4046e-19 -0.0131726)
(5.48775e-19 -6.66998e-19 -0.0131705)
(-1.88954e-19 -1.81127e-19 -0.0131672)
(2.45827e-19 -4.06906e-19 -0.0131629)
(1.64232e-19 -2.6867e-19 -0.0131576)
(7.71537e-19 -1.0186e-20 -0.0131512)
(2.53631e-19 -8.90698e-19 -0.0131437)
(-1.61517e-19 -3.80986e-19 -0.0131352)
(-1.45616e-19 5.40502e-20 -0.0131257)
(-4.83518e-19 -1.58758e-20 -0.0131152)
(-1.74379e-21 -4.54595e-19 -0.0131037)
(-6.76172e-19 4.79337e-19 -0.012827)
(-3.11451e-19 5.32826e-20 -0.0128485)
(-4.59675e-19 -7.45342e-19 -0.0128695)
(-3.15305e-19 1.30951e-18 -0.01289)
(-1.08244e-18 -1.62658e-19 -0.0129098)
(-3.07476e-19 9.13572e-19 -0.012929)
(-1.40795e-18 7.50203e-19 -0.0129474)
(-2.02472e-19 1.11295e-18 -0.0129651)
(-7.11495e-19 4.5497e-19 -0.012982)
(8.00367e-19 8.74154e-19 -0.0129981)
(-1.34325e-18 6.63404e-19 -0.0130133)
(1.67183e-19 7.34221e-19 -0.0130277)
(-9.24322e-19 1.09916e-19 -0.0130411)
(-1.25339e-19 6.88984e-19 -0.0130536)
(3.8326e-20 1.01607e-18 -0.0130651)
(-4.86251e-19 1.22877e-18 -0.0130756)
(-1.51237e-19 1.04181e-18 -0.0130851)
(-5.9527e-19 1.07442e-18 -0.0130936)
(-1.55749e-19 1.03719e-18 -0.0131011)
(-8.96418e-19 2.67234e-19 -0.0131076)
(-1.65544e-19 1.04535e-18 -0.0131129)
(5.37971e-20 9.61098e-19 -0.0131172)
(-1.69068e-19 5.83598e-19 -0.0131205)
(-1.42118e-19 1.08708e-18 -0.0131226)
(9.66835e-19 4.22219e-19 -0.0131237)
(4.12281e-19 -6.81607e-19 -0.0131237)
(-3.25911e-19 -1.59302e-19 -0.0131226)
(6.43104e-19 -6.99306e-19 -0.0131205)
(-2.14425e-19 -1.46962e-19 -0.0131172)
(1.08367e-19 -4.2438e-19 -0.0131129)
(1.35818e-19 -3.23819e-19 -0.0131076)
(9.11339e-19 -5.40859e-20 -0.0131011)
(3.97455e-19 -8.61529e-19 -0.0130936)
(-2.92285e-19 -2.90967e-19 -0.0130851)
(2.52341e-20 7.62957e-20 -0.0130756)
(-5.16166e-19 -3.0903e-20 -0.0130651)
(-1.30805e-20 -4.85903e-19 -0.0130536)
(-3.03603e-19 -3.59139e-19 -0.0130411)
(-6.52051e-19 5.04208e-19 -0.0127759)
(-7.35673e-20 2.91067e-19 -0.0127975)
(-5.38407e-19 -8.92748e-19 -0.0128186)
(-4.19354e-19 1.25127e-18 -0.0128391)
(-8.74644e-19 3.76124e-21 -0.012859)
(-1.65379e-19 9.41612e-19 -0.0128782)
(-8.84745e-19 1.04793e-18 -0.0128967)
(-3.2967e-19 1.03737e-18 -0.0129144)
(-1.29678e-19 7.16775e-19 -0.0129313)
(6.90396e-19 9.05475e-19 -0.0129475)
(-1.08824e-18 8.42427e-19 -0.0129627)
(1.40239e-19 7.3901e-19 -0.0129771)
(-1.06524e-18 7.66724e-20 -0.0129905)
(-1.68671e-19 5.57461e-19 -0.013003)
(-2.47537e-19 9.52178e-19 -0.0130146)
(-7.55129e-19 1.1784e-18 -0.0130251)
(-3.24912e-19 1.00924e-18 -0.0130347)
(-4.83909e-19 1.12273e-18 -0.0130432)
(-1.36117e-19 1.11234e-18 -0.0130507)
(-8.1334e-19 2.85686e-19 -0.0130572)
(-1.30121e-19 9.8248e-19 -0.0130626)
(8.54841e-20 9.84672e-19 -0.0130669)
(-6.65095e-21 6.24668e-19 -0.0130701)
(-2.05322e-20 1.03003e-18 -0.0130723)
(9.05433e-19 3.89514e-19 -0.0130734)
(5.49722e-19 -5.98404e-19 -0.0130734)
(-2.41746e-19 -1.8964e-19 -0.0130723)
(7.81098e-19 -7.28811e-19 -0.0130701)
(-1.91215e-19 -1.13825e-19 -0.0130669)
(2.90694e-19 -4.85769e-19 -0.0130625)
(2.016e-19 -3.92622e-19 -0.0130572)
(7.78076e-19 -5.97322e-20 -0.0130507)
(5.88151e-19 -8.03826e-19 -0.0130432)
(-4.37667e-19 -2.15285e-19 -0.0130347)
(3.03592e-19 5.36115e-21 -0.0130251)
(-2.0504e-19 -1.1552e-19 -0.0130146)
(-1.11861e-19 -4.69331e-19 -0.013003)
(-2.7666e-19 -3.50171e-19 -0.0129905)
(-2.00207e-19 -2.37848e-19 -0.0129771)
(-2.97252e-19 6.60009e-19 -0.0129627)
(-6.00275e-19 5.30676e-19 -0.0127246)
(1.02684e-19 4.9666e-19 -0.0127462)
(-6.0796e-19 -9.71726e-19 -0.0127673)
(-5.32435e-19 1.13532e-18 -0.0127878)
(-3.97578e-19 2.86136e-19 -0.0128077)
(3.36417e-20 1.02249e-18 -0.012827)
(-7.94855e-19 1.16489e-18 -0.0128455)
(-7.79707e-19 7.66223e-19 -0.0128633)
(8.34685e-20 7.52172e-19 -0.0128803)
(5.80269e-19 9.22358e-19 -0.0128964)
(-7.39855e-19 1.07328e-18 -0.0129117)
(4.21293e-20 7.55068e-19 -0.0129261)
(-1.08347e-18 1.03298e-19 -0.0129396)
(-5.88507e-19 3.46737e-19 -0.0129521)
(-4.37524e-19 9.29371e-19 -0.0129637)
(-8.24779e-19 1.16744e-18 -0.0129743)
(-4.61553e-19 9.64987e-19 -0.0129839)
(-4.36083e-19 1.13497e-18 -0.0129924)
(-2.3566e-19 1.14966e-18 -0.0129999)
(-7.84222e-19 2.97509e-19 -0.0130064)
(-2.00733e-19 9.16854e-19 -0.0130118)
(1.96203e-20 9.80131e-19 -0.0130161)
(7.84887e-20 6.38825e-19 -0.0130194)
(8.9356e-20 9.95694e-19 -0.0130216)
(8.23634e-19 3.51337e-19 -0.0130226)
(7.2359e-19 -5.29262e-19 -0.0130226)
(-9.3014e-20 -2.19402e-19 -0.0130216)
(9.24423e-19 -7.58757e-19 -0.0130194)
(-7.42217e-20 -1.00963e-19 -0.0130161)
(5.29518e-19 -5.60807e-19 -0.0130118)
(3.69147e-19 -4.33416e-19 -0.0130064)
(5.31737e-19 -4.8943e-20 -0.0129999)
(5.19697e-19 -7.24057e-19 -0.0129924)
(-3.19916e-19 -2.0686e-19 -0.0129839)
(2.03302e-19 2.33494e-20 -0.0129743)
(3.28468e-20 -1.5544e-19 -0.0129637)
(-1.86345e-19 -4.32306e-19 -0.0129521)
(-5.39994e-20 -4.18385e-19 -0.0129396)
(-5.11214e-20 -2.62345e-19 -0.0129261)
(-1.98725e-20 6.36232e-19 -0.0129117)
(-9.24374e-19 -5.93964e-19 -0.0128964)
(-7.71953e-19 -7.28455e-19 -0.0128803)
(-5.92513e-19 5.24781e-19 -0.0126728)
(1.07581e-19 5.73006e-19 -0.0126944)
(-5.47213e-19 -9.36415e-19 -0.0127156)
(-5.29153e-19 1.04066e-18 -0.0127362)
(-2.83448e-19 3.24569e-19 -0.0127561)
(-2.36906e-19 8.56545e-19 -0.0127754)
(-7.4486e-19 1.30797e-18 -0.012794)
(-1.15801e-18 5.44451e-19 -0.0128118)
(-2.07321e-20 5.89946e-19 -0.0128288)
(4.49384e-19 9.08008e-19 -0.012845)
(-4.14636e-19 1.28047e-18 -0.0128604)
(-1.54645e-19 7.57069e-19 -0.0128748)
(-9.90782e-19 2.1929e-19 -0.0128883)
(-8.72195e-19 1.61037e-19 -0.0129009)
(-4.86075e-19 8.79519e-19 -0.0129125)
(-6.5103e-19 1.23565e-18 -0.0129231)
(-5.52472e-19 9.35176e-19 -0.0129327)
(-2.24671e-19 1.1942e-18 -0.0129412)
(-5.06123e-19 1.17037e-18 -0.0129488)
(-8.11762e-19 2.9699e-19 -0.0129552)
(-3.26189e-19 8.4745e-19 -0.0129607)
(2.69572e-19 9.99663e-19 -0.012965)
(-7.40445e-20 6.26682e-19 -0.0129683)
(1.74374e-19 9.62134e-19 -0.0129704)
(7.92844e-19 3.10671e-19 -0.0129715)
(5.86806e-19 -4.79077e-19 -0.0129715)
(1.01006e-19 -2.55588e-19 -0.0129704)
(9.87638e-19 -7.8148e-19 -0.0129683)
(3.30372e-20 -9.08334e-20 -0.012965)
(6.28284e-19 -6.19894e-19 -0.0129607)
(4.90183e-19 -4.38712e-19 -0.0129552)
(4.04467e-19 -1.97218e-20 -0.0129488)
(3.83325e-19 -6.50547e-19 -0.0129412)
(-1.41279e-19 -2.10434e-19 -0.0129327)
(-1.10348e-19 9.58635e-20 -0.0129231)
(3.43569e-20 -1.49537e-19 -0.0129125)
(-2.39776e-19 -4.32457e-19 -0.0129009)
(-8.69214e-20 -4.2388e-19 -0.0128883)
(2.58211e-21 -2.30068e-19 -0.0128748)
(1.90739e-19 6.11596e-19 -0.0128604)
(-3.13893e-19 -8.87455e-19 -0.012845)
(-5.54139e-19 -8.60917e-19 -0.0128288)
(-3.1845e-19 -1.13045e-18 -0.0128118)
(-1.30732e-19 -1.0891e-18 -0.012794)
(-1.0078e-18 -1.31501e-18 -0.0127754)
(-5.42752e-19 5.68495e-19 -0.0126206)
(8.97357e-20 6.08453e-19 -0.0126423)
(-4.10724e-19 -8.39273e-19 -0.0126635)
(-7.22419e-19 8.57159e-19 -0.0126841)
(-4.94127e-19 1.84579e-19 -0.0127041)
(-5.41076e-19 6.16925e-19 -0.0127235)
(-5.76422e-19 1.49617e-18 -0.0127421)
(-1.21914e-18 5.39698e-19 -0.0127599)
(-2.67282e-19 3.3613e-19 -0.012777)
(2.26597e-19 7.81699e-19 -0.0127932)
(-1.85694e-19 1.46427e-18 -0.0128086)
(-2.26186e-19 8.23316e-19 -0.0128231)
(-7.56852e-19 3.67325e-19 -0.0128366)
(-6.06836e-19 2.16588e-19 -0.0128492)
(-6.25912e-19 7.9259e-19 -0.0128608)
(-5.31778e-19 1.28339e-18 -0.0128715)
(-6.00543e-19 9.07922e-19 -0.0128811)
(-3.81566e-19 1.18346e-18 -0.0128897)
(-7.7138e-19 1.21142e-18 -0.0128972)
(-5.47439e-19 3.27954e-19 -0.0129037)
(-5.01156e-19 7.27812e-19 -0.0129091)
(5.36487e-19 1.03105e-18 -0.0129135)
(-3.17662e-19 6.38384e-19 -0.0129167)
(3.60621e-19 9.1324e-19 -0.0129189)
(8.83861e-19 3.08663e-19 -0.01292)
(4.67682e-19 -4.41666e-19 -0.01292)
(3.33706e-19 -3.23856e-19 -0.0129189)
(1.08735e-18 -7.98155e-19 -0.0129167)
(1.51925e-19 -8.30141e-20 -0.0129135)
(5.70269e-19 -6.58633e-19 -0.0129091)
(4.56086e-19 -4.13983e-19 -0.0129037)
(5.61014e-19 -4.56944e-20 -0.0128972)
(3.91805e-19 -6.34111e-19 -0.0128897)
(1.06603e-19 -2.09123e-19 -0.0128811)
(-4.40095e-19 2.02071e-19 -0.0128715)
(-1.39481e-19 -1.05908e-19 -0.0128608)
(-2.38582e-19 -4.18684e-19 -0.0128492)
(-5.31981e-19 -2.55263e-19 -0.0128366)
(-2.23417e-19 -1.35466e-19 -0.0128231)
(1.43605e-19 6.36238e-19 -0.0128086)
(1.72474e-19 -1.12258e-18 -0.0127932)
(-2.52344e-19 -1.02202e-18 -0.012777)
(-1.29905e-20 -1.34654e-18 -0.0127599)
(-3.72669e-20 -1.13488e-18 -0.0127421)
(-5.58277e-19 -1.52566e-18 -0.0127235)
(-1.36964e-18 -1.29033e-18 -0.0127041)
(-8.0044e-19 -1.81708e-18 -0.0126841)
(-5.03697e-19 5.97902e-19 -0.012568)
(2.66955e-19 8.06398e-19 -0.0125898)
(-3.6432e-19 -7.69798e-19 -0.012611)
(-8.72431e-19 7.22621e-19 -0.0126317)
(-4.50515e-19 1.95852e-19 -0.0126517)
(-5.99603e-19 5.03577e-19 -0.0126711)
(-5.62556e-19 1.56778e-18 -0.0126898)
(-1.01731e-18 7.36808e-19 -0.0127077)
(-4.74395e-19 1.50309e-19 -0.0127248)
(-2.60588e-19 4.95359e-19 -0.012741)
(-1.92621e-19 1.48871e-18 -0.0127564)
(-2.0553e-19 9.17111e-19 -0.0127709)
(-6.4022e-19 4.48122e-19 -0.0127845)
(-2.99109e-19 3.00933e-19 -0.0127971)
(-6.42398e-19 7.71998e-19 -0.0128088)
(-4.31321e-19 1.31589e-18 -0.0128194)
(-5.68198e-19 9.50283e-19 -0.0128291)
(-9.26892e-19 1.10274e-18 -0.0128377)
(-5.24291e-19 1.26794e-18 -0.0128452)
(-1.59453e-19 3.85069e-19 -0.0128518)
(-6.09027e-19 6.60614e-19 -0.0128572)
(5.00697e-19 1.02979e-18 -0.0128615)
(-5.0539e-19 6.33768e-19 -0.0128648)
(5.89151e-19 8.37729e-19 -0.012867)
(9.79598e-19 3.15613e-19 -0.0128681)
(5.6089e-19 -4.18069e-19 -0.0128681)
(4.93946e-19 -3.95025e-19 -0.012867)
(1.1927e-18 -8.08856e-19 -0.0128648)
(2.27418e-19 -4.62881e-20 -0.0128615)
(3.79034e-19 -6.57605e-19 -0.0128572)
(3.50529e-19 -4.1536e-19 -0.0128518)
(7.88389e-19 -9.09381e-20 -0.0128452)
(4.59607e-19 -6.18361e-19 -0.0128377)
(7.83977e-20 -1.08161e-19 -0.0128291)
(-5.65484e-19 2.82649e-19 -0.0128194)
(-2.73328e-19 -1.12409e-19 -0.0128088)
(-3.18359e-19 -3.65532e-19 -0.0127971)
(-8.20715e-19 -1.27416e-19 -0.0127845)
(-3.75033e-19 -8.60673e-20 -0.0127709)
(1.9858e-19 5.58417e-19 -0.0127564)
(5.15915e-19 -1.34574e-18 -0.012741)
(-2.1081e-19 -1.0368e-18 -0.0127248)
(2.03248e-19 -1.47579e-18 -0.0127077)
(2.10002e-21 -1.14891e-18 -0.0126898)
(-8.85225e-20 -1.79884e-18 -0.0126711)
(-7.08434e-19 -1.77718e-18 -0.0126517)
(-5.86935e-19 -1.97801e-18 -0.0126317)
(-1.30418e-18 -1.24406e-18 -0.012611)
(-1.53582e-18 -2.50792e-19 -0.0125898)
(-1.83587e-18 -1.12417e-18 -0.012568)
(-5.54132e-19 5.15121e-19 -0.0125151)
(4.8639e-19 1.02949e-18 -0.0125368)
(-3.35379e-19 -6.80678e-19 -0.0125581)
(-7.90196e-19 7.43394e-19 -0.0125788)
(-1.88103e-19 3.63578e-19 -0.0125989)
(-6.20509e-19 4.4085e-19 -0.0126184)
(-6.10812e-19 1.56914e-18 -0.0126371)
(-7.60593e-19 9.64028e-19 -0.012655)
(-6.19329e-19 7.86448e-20 -0.0126721)
(-5.24819e-19 3.05122e-19 -0.0126884)
(-4.18368e-19 1.3744e-18 -0.0127039)
(-3.41517e-19 9.36588e-19 -0.0127184)
(-6.64452e-19 4.6023e-19 -0.012732)
(-2.20486e-19 3.13914e-19 -0.0127447)
(-7.61686e-19 7.2074e-19 -0.0127563)
(-5.36615e-19 1.29118e-18 -0.012767)
(-6.17694e-19 1.01794e-18 -0.0127767)
(-1.14308e-18 1.04698e-18 -0.0127853)
(-1.70227e-19 1.29046e-18 -0.0127929)
(-1.82366e-19 4.22964e-19 -0.0127994)
(-6.8044e-19 6.18129e-19 -0.0128048)
(1.85178e-19 1.01308e-18 -0.0128092)
(-5.60698e-19 6.18659e-19 -0.0128125)
(7.88167e-19 7.48743e-19 -0.0128147)
(9.91409e-19 3.32523e-19 -0.0128158)
(4.56261e-19 -3.923e-19 -0.0128158)
(5.2157e-19 -4.58735e-19 -0.0128147)
(1.17172e-18 -8.05297e-19 -0.0128125)
(1.44804e-19 2.52372e-20 -0.0128092)
(1.7862e-19 -6.53016e-19 -0.0128048)
(1.074e-19 -4.19066e-19 -0.0127994)
(7.73583e-19 -1.08407e-19 -0.0127929)
(5.80734e-19 -5.86802e-19 -0.0127853)
(-8.41418e-20 2.63048e-20 -0.0127767)
(-1.9812e-19 2.02933e-19 -0.012767)
(-1.65015e-19 -1.67501e-19 -0.0127563)
(-3.69945e-19 -3.06796e-19 -0.0127447)
(-8.8948e-19 -9.09795e-20 -0.012732)
(-3.37912e-19 -1.60635e-19 -0.0127184)
(5.85046e-19 3.00783e-19 -0.0127039)
(5.86284e-19 -1.37388e-18 -0.0126884)
(-3.66579e-19 -9.36137e-19 -0.0126721)
(7.60729e-20 -1.44684e-18 -0.012655)
(-9.4133e-20 -1.12314e-18 -0.0126371)
(4.07152e-19 -2.16244e-18 -0.0126184)
(-3.42768e-19 -2.00956e-18 -0.0125989)
(-5.97103e-19 -1.90089e-18 -0.0125788)
(-1.21363e-18 -1.18826e-18 -0.0125581)
(-1.09815e-18 -5.8608e-19 -0.0125368)
(-1.73303e-18 -1.24441e-18 -0.0125151)
(-5.08752e-19 5.19905e-19 -0.0124617)
(5.08604e-19 1.07048e-18 -0.0124835)
(-1.67413e-19 -4.81751e-19 -0.0125048)
(-7.53739e-19 7.03962e-19 -0.0125256)
(1.93273e-19 6.27033e-19 -0.0125457)
(-6.1222e-19 4.22551e-19 -0.0125652)
(-5.0666e-19 1.6364e-18 -0.0125839)
(-6.39912e-19 1.1378e-18 -0.0126019)
(-7.36338e-19 3.98101e-20 -0.0126191)
(-5.01092e-19 2.78847e-19 -0.0126354)
(-1.00885e-18 1.10744e-18 -0.0126509)
(-4.83029e-19 9.28247e-19 -0.0126655)
(-3.58022e-19 5.85303e-19 -0.0126791)
(-1.1655e-19 3.42112e-19 -0.0126918)
(-8.17404e-19 7.12155e-19 -0.0127035)
(-8.64882e-19 1.18937e-18 -0.0127142)
(-7.51623e-19 1.03427e-18 -0.0127239)
(-9.43026e-19 1.07421e-18 -0.0127325)
(-2.1861e-19 1.26225e-18 -0.0127401)
(-4.08978e-19 4.42707e-19 -0.0127466)
(-7.43118e-19 6.0036e-19 -0.0127521)
(-2.23142e-19 9.72055e-19 -0.0127565)
(-5.33319e-19 5.55517e-19 -0.0127598)
(7.75725e-19 6.53155e-19 -0.012762)
(9.52344e-19 3.81251e-19 -0.0127631)
(2.8101e-19 -3.68792e-19 -0.0127631)
(5.27958e-19 -5.37077e-19 -0.012762)
(1.13638e-18 -7.90021e-19 -0.0127598)
(1.07072e-19 9.96702e-20 -0.0127565)
(5.13127e-20 -6.40746e-19 -0.0127521)
(-2.79203e-19 -4.02285e-19 -0.0127466)
(6.78669e-19 -1.41874e-19 -0.0127401)
(6.58037e-19 -5.49734e-19 -0.0127325)
(-1.51666e-20 6.51827e-20 -0.0127239)
(2.05136e-19 9.00317e-20 -0.0127142)
(2.43418e-20 -2.12411e-19 -0.0127035)
(-2.19792e-19 -3.05956e-19 -0.0126918)
(-8.0344e-19 -1.24049e-19 -0.0126791)
(-1.36259e-20 -3.87662e-19 -0.0126655)
(8.13038e-19 1.40559e-19 -0.0126509)
(6.44542e-19 -1.36244e-18 -0.0126354)
(-2.64682e-19 -9.5135e-19 -0.0126191)
(-3.13575e-19 -1.2512e-18 -0.0126019)
(-3.23891e-19 -1.08935e-18 -0.0125839)
(4.70098e-19 -2.2578e-18 -0.0125652)
(-4.24531e-19 -1.8807e-18 -0.0125457)
(-9.45261e-19 -1.59037e-18 -0.0125256)
(-1.14408e-18 -1.1928e-18 -0.0125048)
(-7.77117e-19 -8.46664e-19 -0.0124835)
(-1.55531e-18 -1.34128e-18 -0.0124617)
(-5.24591e-19 4.86658e-19 -0.0124078)
(2.27924e-19 8.43337e-19 -0.0124297)
(9.8314e-20 -2.0535e-19 -0.0124511)
(-7.83291e-19 6.07408e-19 -0.0124719)
(4.09005e-19 7.64249e-19 -0.0124921)
(-6.83097e-19 3.77829e-19 -0.0125116)
(-4.39184e-19 1.67685e-18 -0.0125304)
(-5.93028e-19 1.28775e-18 -0.0125484)
(-6.88186e-19 9.52307e-20 -0.0125656)
(-6.04635e-19 2.46621e-19 -0.012582)
(-1.28479e-18 9.94393e-19 -0.0125975)
(-5.92569e-19 8.15077e-19 -0.0126121)
(3.33176e-20 7.20583e-19 -0.0126258)
(-1.65263e-19 3.65517e-19 -0.0126385)
(-8.18104e-19 7.61271e-19 -0.0126502)
(-1.07218e-18 1.14548e-18 -0.0126609)
(-7.69055e-19 1.03011e-18 -0.0126706)
(-6.90857e-19 1.11068e-18 -0.0126793)
(-2.57289e-19 1.27087e-18 -0.0126869)
(-3.50981e-19 4.96076e-19 -0.0126934)
(-7.42914e-19 5.94524e-19 -0.0126989)
(-2.77158e-19 9.70721e-19 -0.0127033)
(-5.39622e-19 4.88052e-19 -0.0127066)
(5.9331e-19 5.56207e-19 -0.0127088)
(8.75435e-19 4.20686e-19 -0.0127099)
(3.68378e-19 -3.53294e-19 -0.0127099)
(6.03274e-19 -6.24504e-19 -0.0127088)
(1.11803e-18 -7.79743e-19 -0.0127066)
(6.30981e-20 1.80766e-19 -0.0127033)
(-7.4784e-20 -6.004e-19 -0.0126989)
(-2.5984e-19 -4.54435e-19 -0.0126934)
(6.56392e-19 -2.20961e-19 -0.0126869)
(5.49681e-19 -4.89728e-19 -0.0126793)
(-2.35831e-20 1.10473e-19 -0.0126706)
(3.95457e-19 4.19307e-20 -0.0126609)
(1.56886e-19 -2.35673e-19 -0.0126502)
(-1.35155e-19 -2.80233e-19 -0.0126385)
(-6.79416e-19 -1.95525e-19 -0.0126258)
(3.32943e-19 -6.1645e-19 -0.0126121)
(8.34857e-19 9.45118e-20 -0.0125975)
(8.31881e-19 -1.42172e-18 -0.012582)
(-4.14788e-20 -9.74603e-19 -0.0125656)
(-6.56226e-19 -1.05295e-18 -0.0125484)
(-6.65683e-19 -9.99437e-19 -0.0125304)
(7.6329e-20 -2.06451e-18 -0.0125116)
(-5.54693e-19 -1.68238e-18 -0.0124921)
(-1.37591e-18 -1.24229e-18 -0.0124719)
(-1.2578e-18 -1.12376e-18 -0.0124511)
(-6.90792e-19 -9.1502e-19 -0.0124297)
(-1.35974e-18 -1.46436e-18 -0.0124078)
(-7.76858e-19 3.1744e-19 -0.0123536)
(1.53091e-20 6.19812e-19 -0.0123755)
(-5.82102e-20 -3.05466e-19 -0.0123969)
(-9.94473e-19 4.02861e-19 -0.0124177)
(3.23593e-19 7.06761e-19 -0.012438)
(-7.90855e-19 3.10959e-19 -0.0124575)
(-6.25435e-19 1.54032e-18 -0.0124764)
(-4.42687e-19 1.48266e-18 -0.0124944)
(-7.1863e-19 1.34595e-19 -0.0125117)
(-8.77423e-19 1.32325e-19 -0.0125281)
(-1.28117e-18 1.00357e-18 -0.0125436)
(-7.02861e-19 7.1542e-19 -0.0125583)
(-2.85018e-19 5.89397e-19 -0.012572)
(-3.8598e-19 3.3789e-19 -0.0125847)
(-9.98292e-19 7.38222e-19 -0.0125965)
(-1.11914e-18 1.12739e-18 -0.0126072)
(-5.21073e-19 1.07409e-18 -0.0126169)
(-4.61281e-19 1.14572e-18 -0.0126256)
(-3.29627e-19 1.26598e-18 -0.0126332)
(1.0454e-19 6.21656e-19 -0.0126398)
(-6.07481e-19 6.19334e-19 -0.0126453)
(5.02352e-20 1.00763e-18 -0.0126497)
(-4.55163e-19 4.47749e-19 -0.012653)
(4.56413e-19 4.64378e-19 -0.0126552)
(7.75993e-19 4.32165e-19 -0.0126563)
(7.08658e-19 -3.59156e-19 -0.0126563)
(7.33795e-19 -6.95731e-19 -0.0126552)
(1.08086e-18 -7.47459e-19 -0.012653)
(3.44498e-20 2.70215e-19 -0.0126497)
(-4.32781e-20 -6.20331e-19 -0.0126453)
(-2.13178e-19 -5.25112e-19 -0.0126398)
(6.548e-19 -2.5359e-19 -0.0126332)
(2.31158e-19 -3.64953e-19 -0.0126256)
(-7.44644e-20 1.35546e-19 -0.0126169)
(4.1716e-19 1.72645e-20 -0.0126072)
(2.81048e-19 -2.43317e-19 -0.0125965)
(-2.89301e-19 -1.73943e-19 -0.0125847)
(-4.3721e-19 -3.35324e-19 -0.012572)
(3.50083e-19 -6.99533e-19 -0.0125583)
(6.16972e-19 1.65457e-19 -0.0125436)
(8.6612e-19 -1.42446e-18 -0.0125281)
(1.99088e-19 -9.71578e-19 -0.0125117)
(-6.36864e-19 -1.00287e-18 -0.0124944)
(-6.90376e-19 -1.08219e-18 -0.0124764)
(-3.68801e-19 -1.85379e-18 -0.0124575)
(-6.84753e-19 -1.49928e-18 -0.012438)
(-1.34515e-18 -1.22478e-18 -0.0124177)
(-1.41311e-18 -1.06706e-18 -0.0123969)
(-6.81885e-19 -9.79846e-19 -0.0123754)
(-1.2897e-18 -1.42417e-18 -0.0123536)
(-8.96142e-19 2.76155e-19 -0.0122988)
(2.12382e-19 7.64206e-19 -0.0123208)
(-2.92393e-19 -4.23436e-19 -0.0123422)
(-1.08842e-18 2.43266e-19 -0.0123631)
(1.96212e-19 5.82575e-19 -0.0123834)
(-8.82105e-19 2.73111e-19 -0.012403)
(-1.0046e-18 1.25966e-18 -0.0124219)
(-3.30411e-19 1.63925e-18 -0.01244)
(-9.94811e-19 9.79424e-20 -0.0124573)
(-9.85883e-19 9.6267e-20 -0.0124738)