/*--------------------------------*- C++ -*----------------------------------*\
  =========                 |
  \\      /  F ield         | OpenFOAM: The Open Source CFD Toolbox
   \\    /   O peration     | Website:  https://openfoam.org
    \\  /    A nd           | Version:  7
     \\/     M anipulation  |
\*---------------------------------------------------------------------------*/
FoamFile
{
    version     2.0;
    format      ascii;
    class       volScalarField;
    location    "36000";
    object      omega;
}
// * * * * * * * * * * * * * * * * * * * * * * * * * * * * * * * * * * * * * //

dimensions      [0 0 -1 0 0 0 0];

internalField   nonuniform List<scalar> 
4850
(
0.0300227
0.030011
0.0300451
0.0300333
0.0300219
0.0300677
0.0300559
0.0300443
0.0300331
0.0300221
0.0300904
0.0300786
0.030067
0.0300557
0.0300446
0.030034
0.0301134
0.0301014
0.0300898
0.0300784
0.0300673
0.0300566
0.0300463
0.0301364
0.0301245
0.0301127
0.0301013
0.0300902
0.0300794
0.0300691
0.0300591
0.0300495
0.0301596
0.0301476
0.0301358
0.0301244
0.0301132
0.0301024
0.030092
0.0300819
0.0300723
0.0300632
0.0301829
0.0301709
0.030159
0.0301475
0.0301363
0.0301255
0.030115
0.0301049
0.0300953
0.0300861
0.0300774
0.0300691
0.0300612
0.030054
0.0302063
0.0301942
0.0301824
0.0301708
0.0301596
0.0301487
0.0301382
0.0301281
0.0301184
0.0301092
0.0301004
0.0300921
0.0300843
0.030077
0.0300704
0.0300643
0.0300587
0.0300539
0.0302298
0.0302177
0.0302058
0.0301942
0.030183
0.0301721
0.0301615
0.0301514
0.0301417
0.0301324
0.0301236
0.0301153
0.0301075
0.0301002
0.0300936
0.0300875
0.0300819
0.030077
0.0300729
0.0300692
0.0302533
0.0302412
0.0302293
0.0302177
0.0302064
0.0301955
0.0301849
0.0301748
0.030165
0.0301558
0.030147
0.0301386
0.0301308
0.0301236
0.0301169
0.0301108
0.0301052
0.0301004
0.0300961
0.0300925
0.0300896
0.0300872
0.0300855
0.0300845
0.0302769
0.0302648
0.0302529
0.0302413
0.03023
0.030219
0.0302085
0.0301983
0.0301885
0.0301792
0.0301704
0.0301621
0.0301543
0.030147
0.0301403
0.0301342
0.0301287
0.0301238
0.0301196
0.030116
0.030113
0.0301107
0.030109
0.030108
0.0301077
0.030108
0.0301089
0.0301105
0.0301128
0.0303005
0.0302884
0.0302765
0.0302649
0.0302536
0.0302426
0.030232
0.0302219
0.0302121
0.0302028
0.030194
0.0301857
0.0301778
0.0301706
0.0301639
0.0301578
0.0301523
0.0301474
0.0301432
0.0301395
0.0301366
0.0301343
0.0301326
0.0301316
0.0301313
0.0301316
0.0301325
0.0301342
0.0301365
0.0301395
0.0301431
0.0301474
0.0303241
0.0303121
0.0303002
0.0302886
0.0302773
0.0302663
0.0302557
0.0302455
0.0302358
0.0302265
0.0302176
0.0302093
0.0302015
0.0301942
0.0301876
0.0301815
0.030176
0.0301711
0.0301668
0.0301632
0.0301603
0.0301579
0.0301563
0.0301553
0.030155
0.0301553
0.0301563
0.0301579
0.0301602
0.0301633
0.0301669
0.0301712
0.0301762
0.0301817
0.0303478
0.0303357
0.0303239
0.0303123
0.030301
0.03029
0.0302794
0.0302692
0.0302595
0.0302502
0.0302413
0.030233
0.0302252
0.030218
0.0302113
0.0302052
0.0301997
0.0301949
0.0301906
0.030187
0.0301841
0.0301818
0.0301801
0.0301791
0.0301788
0.0301791
0.0301801
0.0301818
0.0301841
0.0301871
0.0301908
0.0301951
0.0302001
0.0302057
0.0303714
0.0303594
0.0303476
0.030336
0.0303247
0.0303138
0.0303032
0.030293
0.0302832
0.0302739
0.0302651
0.0302568
0.030249
0.0302418
0.0302351
0.0302291
0.0302236
0.0302187
0.0302145
0.0302109
0.0302079
0.0302056
0.030204
0.030203
0.0302027
0.030203
0.030204
0.0302057
0.0302081
0.0302111
0.0302148
0.0302191
0.0302241
0.0302298
0.0303952
0.0303832
0.0303714
0.0303598
0.0303485
0.0303375
0.030327
0.0303168
0.030307
0.0302978
0.030289
0.0302807
0.0302729
0.0302657
0.030259
0.030253
0.0302475
0.0302427
0.0302384
0.0302348
0.0302319
0.0302296
0.030228
0.030227
0.0302267
0.030227
0.0302281
0.0302297
0.0302321
0.0302351
0.0302388
0.0302432
0.0302482
0.0302539
0.0304191
0.030407
0.0303951
0.0303835
0.0303722
0.0303613
0.0303507
0.0303406
0.0303309
0.0303216
0.0303128
0.0303045
0.0302968
0.0302896
0.030283
0.0302769
0.0302715
0.0302666
0.0302624
0.0302589
0.0302559
0.0302537
0.030252
0.0302511
0.0302508
0.0302511
0.0302521
0.0302538
0.0302562
0.0302592
0.0302629
0.0302673
0.0302723
0.030278
0.0304433
0.030431
0.030419
0.0304074
0.0303961
0.0303851
0.0303746
0.0303644
0.0303547
0.0303455
0.0303367
0.0303284
0.0303207
0.0303135
0.0303069
0.0303009
0.0302955
0.0302907
0.0302865
0.0302829
0.03028
0.0302777
0.0302761
0.0302752
0.0302749
0.0302752
0.0302763
0.030278
0.0302803
0.0302834
0.030287
0.0302914
0.0302964
0.0303022
0.0304679
0.0304554
0.0304433
0.0304315
0.0304201
0.0304091
0.0303985
0.0303883
0.0303786
0.0303693
0.0303606
0.0303524
0.0303447
0.0303375
0.0303309
0.0303249
0.0303195
0.0303147
0.0303106
0.030307
0.0303041
0.0303019
0.0303003
0.0302993
0.030299
0.0302994
0.0303004
0.0303021
0.0303045
0.0303075
0.0303112
0.0303156
0.0303206
0.0303263
0.0304928
0.0304801
0.0304679
0.030456
0.0304444
0.0304333
0.0304226
0.0304124
0.0304026
0.0303933
0.0303846
0.0303763
0.0303686
0.0303615
0.0303549
0.030349
0.0303436
0.0303388
0.0303347
0.0303312
0.0303283
0.030326
0.0303245
0.0303235
0.0303232
0.0303236
0.0303247
0.0303263
0.0303287
0.0303317
0.0303354
0.0303397
0.0303448
0.0303505
0.0305181
0.0305053
0.0304929
0.0304808
0.0304692
0.0304579
0.0304471
0.0304368
0.0304269
0.0304175
0.0304087
0.0304004
0.0303927
0.0303856
0.030379
0.030373
0.0303677
0.0303629
0.0303588
0.0303553
0.0303524
0.0303502
0.0303486
0.0303477
0.0303474
0.0303478
0.0303489
0.0303506
0.0303529
0.0303559
0.0303596
0.0303639
0.030369
0.0303748
0.0305439
0.0305309
0.0305183
0.0305061
0.0304943
0.0304829
0.030472
0.0304615
0.0304516
0.0304421
0.0304332
0.0304249
0.0304171
0.0304099
0.0304033
0.0303973
0.0303919
0.0303871
0.030383
0.0303795
0.0303766
0.0303744
0.0303729
0.0303719
0.0303717
0.0303721
0.0303731
0.0303748
0.0303772
0.0303802
0.0303839
0.0303882
0.0303933
0.0303992
0.030406
0.0305701
0.0305569
0.0305441
0.0305317
0.0305198
0.0305083
0.0304972
0.0304867
0.0304766
0.0304671
0.0304581
0.0304496
0.0304418
0.0304345
0.0304278
0.0304218
0.0304163
0.0304115
0.0304074
0.0304039
0.030401
0.0303988
0.0303972
0.0303963
0.030396
0.0303964
0.0303975
0.0303992
0.0304016
0.0304046
0.0304084
0.0304128
0.030418
0.030424
0.0304309
0.0305967
0.0305833
0.0305704
0.0305578
0.0305457
0.0305341
0.0305229
0.0305122
0.0305021
0.0304924
0.0304833
0.0304748
0.0304668
0.0304595
0.0304527
0.0304466
0.0304411
0.0304363
0.0304321
0.0304286
0.0304257
0.0304234
0.0304218
0.0304209
0.0304206
0.030421
0.0304221
0.0304239
0.0304263
0.0304294
0.0304332
0.0304377
0.030443
0.0304492
0.0304562
0.0306238
0.0306102
0.0305971
0.0305844
0.0305721
0.0305603
0.030549
0.0305382
0.0305279
0.0305182
0.030509
0.0305003
0.0304923
0.0304849
0.0304781
0.0304719
0.0304663
0.0304614
0.0304572
0.0304536
0.0304507
0.0304484
0.0304468
0.0304459
0.0304456
0.030446
0.0304471
0.0304489
0.0304513
0.0304545
0.0304584
0.030463
0.0304685
0.0304748
0.0306514
0.0306376
0.0306243
0.0306114
0.0305989
0.030587
0.0305756
0.0305646
0.0305542
0.0305443
0.030535
0.0305263
0.0305182
0.0305107
0.0305038
0.0304975
0.0304919
0.0304869
0.0304826
0.030479
0.030476
0.0304738
0.0304721
0.0304712
0.0304709
0.0304714
0.0304725
0.0304743
0.0304768
0.03048
0.030484
0.0304887
0.0304944
0.0305008
0.0306794
0.0306654
0.0306519
0.0306388
0.0306262
0.0306141
0.0306025
0.0305915
0.0305809
0.0305709
0.0305615
0.0305527
0.0305445
0.0305369
0.0305299
0.0305236
0.0305179
0.0305129
0.0305085
0.0305048
0.0305018
0.0304995
0.0304979
0.0304969
0.0304967
0.0304971
0.0304983
0.0305001
0.0305027
0.030506
0.03051
0.030515
0.0305208
0.0305274
0.0307079
0.0306937
0.03068
0.0306668
0.030654
0.0306417
0.03063
0.0306188
0.0306081
0.030598
0.0305885
0.0305795
0.0305712
0.0305635
0.0305565
0.03055
0.0305443
0.0305392
0.0305348
0.0305311
0.0305281
0.0305257
0.0305241
0.0305231
0.0305228
0.0305233
0.0305245
0.0305263
0.030529
0.0305323
0.0305366
0.0305417
0.0305478
0.0305545
0.030737
0.0307225
0.0307086
0.0306952
0.0306822
0.0306698
0.0306579
0.0306466
0.0306357
0.0306255
0.0306159
0.0306068
0.0305984
0.0305906
0.0305835
0.030577
0.0305711
0.030566
0.0305615
0.0305578
0.0305547
0.0305523
0.0305507
0.0305497
0.0305494
0.0305499
0.0305511
0.030553
0.0305557
0.0305592
0.0305635
0.0305689
0.0305753
0.0307665
0.0307518
0.0307377
0.0307241
0.030711
0.0306984
0.0306863
0.0306748
0.0306639
0.0306535
0.0306437
0.0306346
0.030626
0.0306181
0.0306109
0.0306043
0.0305984
0.0305932
0.0305887
0.0305849
0.0305818
0.0305794
0.0305777
0.0305767
0.0305765
0.0305769
0.0305782
0.0305801
0.0305829
0.0305865
0.030591
0.0305965
0.0306031
0.0307965
0.0307816
0.0307673
0.0307535
0.0307402
0.0307274
0.0307152
0.0307035
0.0306924
0.0306819
0.030672
0.0306628
0.0306541
0.0306461
0.0306388
0.0306322
0.0306262
0.0306209
0.0306163
0.0306125
0.0306093
0.0306069
0.0306052
0.0306042
0.0306039
0.0306044
0.0306057
0.0306077
0.0306105
0.0306142
0.0306188
0.0306245
0.030827
0.030812
0.0307974
0.0307834
0.0307699
0.030757
0.0307446
0.0307327
0.0307215
0.0307109
0.0307009
0.0306915
0.0306827
0.0306746
0.0306672
0.0306605
0.0306544
0.0306491
0.0306444
0.0306405
0.0306373
0.0306348
0.0306331
0.0306321
0.0306319
0.0306324
0.0306337
0.0306357
0.0306386
0.0306424
0.0306471
0.0306528
0.0308581
0.0308428
0.0308281
0.0308138
0.0308001
0.030787
0.0307745
0.0307625
0.0307511
0.0307403
0.0307302
0.0307206
0.0307118
0.0307036
0.0306961
0.0306892
0.0306831
0.0306777
0.030673
0.030669
0.0306658
0.0306633
0.0306615
0.0306605
0.0306603
0.0306608
0.0306621
0.0306642
0.0306672
0.0306711
0.0306758
0.0306814
0.0308897
0.0308742
0.0308592
0.0308448
0.0308309
0.0308176
0.0308049
0.0307927
0.0307812
0.0307703
0.03076
0.0307503
0.0307413
0.030733
0.0307254
0.0307185
0.0307123
0.0307068
0.030702
0.030698
0.0306947
0.0306922
0.0306904
0.0306894
0.0306892
0.0306897
0.0306911
0.0306932
0.0306963
0.0307001
0.0307049
0.0307104
0.0309218
0.0309061
0.0308909
0.0308763
0.0308622
0.0308487
0.0308358
0.0308235
0.0308118
0.0308007
0.0307903
0.0307805
0.0307714
0.030763
0.0307552
0.0307482
0.0307419
0.0307364
0.0307315
0.0307275
0.0307241
0.0307216
0.0307198
0.0307188
0.0307185
0.0307191
0.0307205
0.0307227
0.0307258
0.0307297
0.0307344
0.0307399
0.0309546
0.0309386
0.0309232
0.0309083
0.0308941
0.0308804
0.0308673
0.0308548
0.0308429
0.0308317
0.0308211
0.0308112
0.030802
0.0307934
0.0307856
0.0307785
0.0307721
0.0307665
0.0307616
0.0307574
0.0307541
0.0307515
0.0307497
0.0307486
0.0307484
0.030749
0.0307504
0.0307527
0.0307558
0.0307597
0.0307644
0.0307698
0.0309878
0.0309717
0.030956
0.030941
0.0309265
0.0309126
0.0308993
0.0308866
0.0308746
0.0308632
0.0308525
0.0308424
0.0308331
0.0308244
0.0308165
0.0308093
0.0308028
0.0307971
0.0307921
0.0307879
0.0307845
0.0307819
0.03078
0.030779
0.0307788
0.0307794
0.0307808
0.0307831
0.0307862
0.0307902
0.0307949
0.0308003
0.0310217
0.0310053
0.0309894
0.0309741
0.0309594
0.0309453
0.0309318
0.030919
0.0309068
0.0308953
0.0308844
0.0308742
0.0308647
0.0308559
0.0308479
0.0308406
0.030834
0.0308282
0.0308232
0.0308189
0.0308155
0.0308128
0.0308109
0.0308099
0.0308097
0.0308103
0.0308118
0.0308141
0.0308172
0.0308212
0.0308258
0.0308312
0.0310562
0.0310395
0.0310234
0.0310079
0.030993
0.0309787
0.030965
0.0309519
0.0309396
0.0309279
0.0309168
0.0309065
0.0308969
0.030888
0.0308798
0.0308724
0.0308657
0.0308599
0.0308548
0.0308505
0.0308469
0.0308442
0.0308424
0.0308413
0.0308411
0.0308417
0.0308432
0.0308455
0.0308487
0.0308526
0.0308573
0.0308626
0.0310913
0.0310744
0.031058
0.0310423
0.0310271
0.0310126
0.0309987
0.0309855
0.0309729
0.030961
0.0309499
0.0309394
0.0309296
0.0309206
0.0309123
0.0309048
0.030898
0.0308921
0.0308869
0.0308825
0.030879
0.0308762
0.0308743
0.0308733
0.030873
0.0308737
0.0308752
0.0308775
0.0308807
0.0308846
0.0308893
0.0308946
0.031127
0.0311099
0.0310933
0.0310772
0.0310619
0.0310471
0.031033
0.0310196
0.0310068
0.0309948
0.0309834
0.0309728
0.0309629
0.0309537
0.0309453
0.0309377
0.0309309
0.0309248
0.0309196
0.0309151
0.0309115
0.0309087
0.0309068
0.0309057
0.0309055
0.0309062
0.0309077
0.03091
0.0309132
0.0309172
0.0309218
0.0309273
0.0311634
0.031146
0.0311291
0.0311129
0.0310972
0.0310823
0.0310679
0.0310543
0.0310414
0.0310291
0.0310176
0.0310068
0.0309968
0.0309875
0.030979
0.0309712
0.0309643
0.0309581
0.0309528
0.0309483
0.0309446
0.0309418
0.0309399
0.0309388
0.0309385
0.0309392
0.0309407
0.0309431
0.0309463
0.0309503
0.0309551
0.0309607
0.0312003
0.0311827
0.0311656
0.0311491
0.0311332
0.031118
0.0311035
0.0310897
0.0310765
0.0310641
0.0310524
0.0310414
0.0310312
0.0310218
0.0310132
0.0310053
0.0309982
0.030992
0.0309866
0.030982
0.0309783
0.0309755
0.0309735
0.0309724
0.0309721
0.0309728
0.0309743
0.0309767
0.03098
0.0309841
0.030989
0.030995
0.0312379
0.03122
0.0312027
0.031186
0.0311699
0.0311544
0.0311397
0.0311256
0.0311123
0.0310997
0.0310878
0.0310767
0.0310663
0.0310567
0.031048
0.03104
0.0310328
0.0310265
0.031021
0.0310164
0.0310126
0.0310097
0.0310077
0.0310065
0.0310063
0.031007
0.0310085
0.031011
0.0310143
0.0310186
0.0310239
0.0310301
0.0312761
0.031258
0.0312404
0.0312235
0.0312071
0.0311915
0.0311765
0.0311622
0.0311487
0.0311359
0.0311238
0.0311125
0.031102
0.0310923
0.0310834
0.0310753
0.031068
0.0310616
0.031056
0.0310513
0.0310475
0.0310445
0.0310425
0.0310413
0.0310411
0.0310418
0.0310433
0.0310458
0.0310493
0.0310538
0.0310595
0.0310659
0.0313148
0.0312965
0.0312787
0.0312615
0.031245
0.0312291
0.0312139
0.0311995
0.0311857
0.0311727
0.0311605
0.031149
0.0311383
0.0311285
0.0311194
0.0311112
0.0311038
0.0310973
0.0310916
0.0310868
0.0310829
0.0310799
0.0310779
0.0310767
0.0310765
0.0310771
0.0310788
0.0310813
0.0310849
0.0310897
0.031096
0.0313542
0.0313356
0.0313176
0.0313002
0.0312834
0.0312673
0.031252
0.0312373
0.0312234
0.0312102
0.0311978
0.0311861
0.0311753
0.0311653
0.0311561
0.0311477
0.0311402
0.0311336
0.0311278
0.031123
0.031119
0.031116
0.0311139
0.0311127
0.0311125
0.0311132
0.0311148
0.0311175
0.0311212
0.0311263
0.031133
0.0313943
0.0313754
0.0313571
0.0313394
0.0313224
0.0313061
0.0312906
0.0312757
0.0312616
0.0312482
0.0312356
0.0312238
0.0312128
0.0312027
0.0311934
0.0311849
0.0311773
0.0311705
0.0311647
0.0311598
0.0311558
0.0311527
0.0311505
0.0311493
0.0311491
0.0311498
0.0311515
0.0311543
0.0311582
0.0311634
0.0314353
0.031416
0.0313974
0.0313794
0.0313621
0.0313456
0.0313297
0.0313147
0.0313004
0.0312868
0.0312741
0.0312621
0.031251
0.0312407
0.0312312
0.0312226
0.0312149
0.0312081
0.0312022
0.0311972
0.0311931
0.03119
0.0311878
0.0311866
0.0311863
0.0311871
0.0311888
0.0311917
0.0311957
0.031201
0.0314775
0.0314577
0.0314386
0.0314202
0.0314026
0.0313857
0.0313696
0.0313543
0.0313398
0.031326
0.0313131
0.031301
0.0312897
0.0312793
0.0312697
0.031261
0.0312531
0.0312462
0.0312402
0.0312352
0.031231
0.0312279
0.0312257
0.0312244
0.0312242
0.031225
0.0312268
0.0312297
0.0312338
0.0312391
0.0315211
0.0315007
0.031481
0.0314622
0.0314441
0.0314268
0.0314103
0.0313947
0.0313799
0.0313659
0.0313528
0.0313405
0.031329
0.0313184
0.0313087
0.0312999
0.0312919
0.0312849
0.0312788
0.0312737
0.0312695
0.0312663
0.0312641
0.0312628
0.0312626
0.0312634
0.0312652
0.0312682
0.0312723
0.0312776
0.0315659
0.031545
0.0315248
0.0315054
0.0314868
0.031469
0.0314521
0.0314361
0.0314209
0.0314066
0.0313932
0.0313807
0.031369
0.0313582
0.0313483
0.0313394
0.0313313
0.0313242
0.031318
0.0313128
0.0313086
0.0313053
0.0313031
0.0313018
0.0313016
0.0313024
0.0313043
0.0313073
0.0313114
0.0313166
0.0316116
0.0315905
0.0315699
0.03155
0.0315308
0.0315125
0.0314951
0.0314786
0.031463
0.0314484
0.0314346
0.0314218
0.0314098
0.0313988
0.0313888
0.0313796
0.0313714
0.0313642
0.0313579
0.0313526
0.0313483
0.031345
0.0313427
0.0313414
0.0313412
0.031342
0.0313439
0.031347
0.0313511
0.0313562
0.0316575
0.0316365
0.0316159
0.0315957
0.0315761
0.0315574
0.0315395
0.0315226
0.0315065
0.0314914
0.0314772
0.031464
0.0314518
0.0314405
0.0314301
0.0314208
0.0314124
0.031405
0.0313985
0.0313931
0.0313887
0.0313853
0.031383
0.0313817
0.0313815
0.0313823
0.0313843
0.0313873
0.0313915
0.0313965
0.0317021
0.0316819
0.0316617
0.0316417
0.0316222
0.0316033
0.0315851
0.0315678
0.0315513
0.0315358
0.0315212
0.0315076
0.031495
0.0314834
0.0314727
0.0314631
0.0314545
0.0314468
0.0314403
0.0314347
0.0314302
0.0314267
0.0314243
0.031423
0.0314227
0.0314236
0.0314256
0.0314286
0.0314328
0.0314378
0.0317445
0.0317254
0.0317062
0.0316869
0.0316679
0.0316492
0.0316312
0.0316138
0.0315971
0.0315814
0.0315665
0.0315526
0.0315396
0.0315276
0.0315167
0.0315068
0.0314979
0.03149
0.0314832
0.0314775
0.0314728
0.0314692
0.0314668
0.0314654
0.0314651
0.031466
0.031468
0.0314711
0.0314753
0.0314803
0.0317842
0.0317663
0.0317482
0.0317301
0.031712
0.0316941
0.0316766
0.0316596
0.0316431
0.0316274
0.0316125
0.0315984
0.0315853
0.0315731
0.0315619
0.0315518
0.0315426
0.0315346
0.0315276
0.0315217
0.0315169
0.0315132
0.0315106
0.0315092
0.0315089
0.0315098
0.0315118
0.031515
0.0315191
0.0315241
0.0318225
0.0318049
0.0317876
0.0317705
0.0317535
0.0317367
0.0317201
0.0317039
0.0316881
0.0316728
0.0316582
0.0316444
0.0316313
0.0316192
0.0316079
0.0315977
0.0315884
0.0315802
0.0315731
0.0315671
0.0315622
0.0315584
0.0315558
0.0315543
0.031554
0.0315549
0.0315569
0.0315601
0.0315642
0.0315693
0.0318626
0.0318435
0.0318258
0.0318089
0.0317925
0.0317765
0.0317609
0.0317457
0.0317308
0.0317163
0.0317024
0.0316891
0.0316765
0.0316647
0.0316537
0.0316436
0.0316344
0.0316263
0.0316192
0.0316132
0.0316082
0.0316044
0.0316018
0.0316003
0.0316
0.0316009
0.0316029
0.0316061
0.0316102
0.0316152
0.0319107
0.0318868
0.0318662
0.0318477
0.0318307
0.0318147
0.0317995
0.0317849
0.0317708
0.0317571
0.0317441
0.0317315
0.0317196
0.0317084
0.0316979
0.0316882
0.0316794
0.0316715
0.0316646
0.0316588
0.031654
0.0316502
0.0316476
0.0316462
0.0316459
0.0316468
0.0316488
0.0316519
0.0316559
0.0316608
0.0319796
0.0319441
0.031916
0.0318925
0.0318723
0.0318544
0.0318381
0.031823
0.031809
0.0317957
0.0317831
0.0317712
0.03176
0.0317494
0.0317395
0.0317304
0.0317221
0.0317147
0.0317082
0.0317026
0.031698
0.0316945
0.031692
0.0316907
0.0316905
0.0316914
0.0316933
0.0316962
0.0317001
0.0317047
0.0320954
0.0320346
0.0319891
0.0319536
0.0319252
0.0319016
0.0318816
0.031864
0.0318484
0.0318342
0.0318213
0.0318093
0.0317983
0.031788
0.0317785
0.0317699
0.0317621
0.031755
0.0317489
0.0317437
0.0317394
0.0317362
0.0317339
0.0317327
0.0317325
0.0317334
0.0317352
0.031738
0.0317416
0.031746
0.0323093
0.0321976
0.032115
0.032053
0.0320058
0.031969
0.0319395
0.0319154
0.0318951
0.0318777
0.0318625
0.0318491
0.0318371
0.0318263
0.0318166
0.0318079
0.0318001
0.0317933
0.0317873
0.0317823
0.0317783
0.0317751
0.031773
0.0317719
0.0317718
0.0317726
0.0317744
0.0317771
0.0317806
0.0317848
0.0327029
0.0325027
0.0323502
0.0322351
0.0321483
0.0320825
0.032032
0.0319926
0.0319612
0.0319358
0.0319148
0.0318971
0.0318821
0.0318691
0.0318578
0.031848
0.0318394
0.031832
0.0318257
0.0318205
0.0318163
0.0318131
0.0318109
0.0318098
0.0318097
0.0318105
0.0318123
0.031815
0.0318185
0.0318227
0.0333697
0.0330432
0.0327815
0.0325759
0.0324165
0.0322939
0.0322001
0.032128
0.0320722
0.0320287
0.0319942
0.0319666
0.031944
0.0319254
0.0319099
0.0318969
0.0318859
0.0318767
0.0318691
0.0318628
0.0318578
0.031854
0.0318515
0.0318501
0.0318499
0.0318507
0.0318526
0.0318555
0.0318593
0.0318641
0.0343777
0.0339029
0.0335025
0.0331715
0.0329025
0.032687
0.0325169
0.0323834
0.0322793
0.0321983
0.032135
0.0320853
0.032046
0.0320146
0.0319893
0.0319687
0.031952
0.0319383
0.0319272
0.0319182
0.0319111
0.0319058
0.0319022
0.0319002
0.0318997
0.0319005
0.0319027
0.0319063
0.0319111
0.0319173
0.0357509
0.0351251
0.0345756
0.034101
0.0336974
0.0333588
0.0330792
0.0328508
0.0326664
0.032519
0.0324017
0.0323087
0.0322351
0.0321768
0.0321304
0.0320932
0.0320635
0.0320397
0.0320207
0.0320056
0.0319937
0.0319849
0.0319788
0.0319752
0.0319739
0.0319747
0.0319777
0.0319828
0.03199
0.0319997
0.0374787
0.0367111
0.036018
0.0353995
0.0348551
0.0343806
0.0339723
0.0336248
0.0333324
0.0330893
0.032889
0.0327251
0.0325924
0.032485
0.0323987
0.0323289
0.0322729
0.0322282
0.0321927
0.0321645
0.0321422
0.0321258
0.0321143
0.0321072
0.0321042
0.032105
0.0321096
0.0321182
0.0321307
0.0321479
0.0395351
0.0386392
0.0378148
0.0370626
0.0363845
0.0357769
0.0352379
0.034764
0.0343513
0.0339953
0.0336915
0.0334342
0.0332185
0.0330387
0.0328901
0.0327673
0.0326669
0.0325855
0.0325199
0.0324674
0.0324258
0.0323947
0.0323726
0.0323587
0.0323523
0.0323531
0.0323611
0.0323764
0.0323994
0.032431
0.0399384
0.0390657
0.0382661
0.0375362
0.0368752
0.0362804
0.0357494
0.0352787
0.0348658
0.0345058
0.0341948
0.0339277
0.0329434
0.0328891
0.03285
0.032825
0.0328132
0.0328139
0.0328273
0.0328537
0.0328935
0.0329481
0.0297665
0.0297639
0.0297618
0.0297602
0.0297592
0.0297588
0.029759
0.0297598
0.0297613
0.0297634
0.0297898
0.0297864
0.0297836
0.0297815
0.0297799
0.0297789
0.0297785
0.0297787
0.0297796
0.0297811
0.0297831
0.0297859
0.0297891
0.0297929
0.0297973
0.0298023
0.0298078
0.0298138
0.0298204
0.0298276
0.0298352
0.0298186
0.0298141
0.0298101
0.0298066
0.0298038
0.0298016
0.0298
0.029799
0.0297986
0.0297989
0.0297997
0.0298012
0.0298033
0.029806
0.0298093
0.0298132
0.0298176
0.0298226
0.0298282
0.0298343
0.029841
0.0298482
0.0298559
0.0298642
0.0298728
0.0298819
0.0298915
0.0298565
0.0298502
0.0298445
0.0298393
0.0298347
0.0298307
0.0298272
0.0298244
0.0298221
0.0298205
0.0298195
0.0298191
0.0298194
0.0298202
0.0298217
0.0298238
0.0298266
0.0298299
0.0298338
0.0298383
0.0298434
0.029849
0.0298552
0.0298619
0.0298692
0.029877
0.0298853
0.029894
0.0299032
0.0299128
0.0299229
0.0299333
0.029944
0.0298921
0.0298847
0.0298778
0.0298714
0.0298656
0.0298604
0.0298557
0.0298516
0.0298482
0.0298453
0.029843
0.0298414
0.0298404
0.02984
0.0298402
0.0298411
0.0298426
0.0298447
0.0298475
0.0298508
0.0298548
0.0298593
0.0298644
0.0298701
0.0298764
0.0298832
0.0298905
0.0298983
0.0299067
0.0299155
0.0299248
0.0299345
0.0299446
0.0299551
0.0299659
0.0299771
0.0299886
0.0300004
0.0299304
0.0299219
0.0299139
0.0299064
0.0298994
0.0298929
0.0298871
0.0298818
0.0298771
0.029873
0.0298694
0.0298665
0.0298643
0.0298626
0.0298616
0.0298612
0.0298614
0.0298623
0.0298638
0.0298659
0.0298687
0.0298721
0.029876
0.0298806
0.0298858
0.0298915
0.0298978
0.0299047
0.0299121
0.02992
0.0299284
0.0299373
0.0299466
0.0299564
0.0299665
0.0299771
0.029988
0.0299993
0.0300108
0.0300226
0.0299617
0.0299526
0.029944
0.0299359
0.0299283
0.0299212
0.0299148
0.0299088
0.0299035
0.0298987
0.0298946
0.029891
0.0298881
0.0298858
0.0298841
0.0298831
0.0298827
0.0298829
0.0298838
0.0298853
0.0298875
0.0298902
0.0298936
0.0298976
0.0299023
0.0299074
0.0299132
0.0299196
0.0299265
0.0299339
0.0299419
0.0299503
0.0299593
0.0299686
0.0299785
0.0299887
0.0299993
0.0300103
0.0300216
0.0300332
0.0300451
0.0299939
0.0299842
0.029975
0.0299663
0.0299582
0.0299505
0.0299434
0.0299369
0.0299309
0.0299255
0.0299207
0.0299165
0.0299129
0.02991
0.0299077
0.029906
0.0299049
0.0299045
0.0299047
0.0299056
0.0299071
0.0299093
0.0299121
0.0299155
0.0299195
0.0299242
0.0299294
0.0299352
0.0299416
0.0299485
0.029956
0.029964
0.0299725
0.0299815
0.0299909
0.0300008
0.0300111
0.0300218
0.0300328
0.0300441
0.0300558
0.0300677
0.0300268
0.0300166
0.0300069
0.0299976
0.0299889
0.0299807
0.029973
0.0299658
0.0299592
0.0299532
0.0299478
0.0299429
0.0299387
0.0299351
0.0299321
0.0299298
0.0299281
0.029927
0.0299266
0.0299268
0.0299277
0.0299292
0.0299314
0.0299342
0.0299376
0.0299417
0.0299463
0.0299516
0.0299574
0.0299639
0.0299708
0.0299784
0.0299864
0.0299949
0.030004
0.0300134
0.0300234
0.0300337
0.0300444
0.0300555
0.0300668
0.0300785
0.0300905
0.0300604
0.0300498
0.0300396
0.0300298
0.0300205
0.0300117
0.0300034
0.0299957
0.0299885
0.0299818
0.0299758
0.0299703
0.0299654
0.0299612
0.0299575
0.0299545
0.0299522
0.0299505
0.0299494
0.029949
0.0299492
0.0299501
0.0299516
0.0299538
0.0299566
0.02996
0.0299641
0.0299688
0.029974
0.0299799
0.0299864
0.0299934
0.0300009
0.030009
0.0300176
0.0300266
0.0300361
0.0300461
0.0300565
0.0300672
0.0300783
0.0300897
0.0301014
0.0301134
0.0300836
0.030073
0.0300627
0.0300529
0.0300436
0.0300347
0.0300264
0.0300186
0.0300113
0.0300046
0.0299986
0.029993
0.0299882
0.0299839
0.0299802
0.0299772
0.0299748
0.0299731
0.029972
0.0299716
0.0299718
0.0299727
0.0299742
0.0299764
0.0299792
0.0299827
0.0299867
0.0299914
0.0299967
0.0300026
0.0300091
0.0300161
0.0300237
0.0300318
0.0300404
0.0300495
0.030059
0.030069
0.0300794
0.0300902
0.0301013
0.0301127
0.0301245
0.0301365
0.0301182
0.030107
0.0300963
0.030086
0.0300762
0.0300668
0.0300579
0.0300495
0.0300417
0.0300344
0.0300277
0.0300216
0.030016
0.0300111
0.0300068
0.0300031
0.0300001
0.0299977
0.0299959
0.0299949
0.0299944
0.0299946
0.0299955
0.029997
0.0299992
0.030002
0.0300055
0.0300096
0.0300143
0.0300196
0.0300255
0.030032
0.030039
0.0300466
0.0300547
0.0300634
0.0300725
0.0300821
0.0300921
0.0301025
0.0301133
0.0301244
0.0301359
0.0301477
0.0301597
0.0301532
0.0301417
0.0301306
0.0301198
0.0301095
0.0300996
0.0300902
0.0300813
0.0300728
0.030065
0.0300577
0.0300509
0.0300448
0.0300392
0.0300342
0.0300299
0.0300262
0.0300232
0.0300208
0.030019
0.0300179
0.0300175
0.0300177
0.0300186
0.0300201
0.0300223
0.0300251
0.0300285
0.0300326
0.0300373
0.0300427
0.0300486
0.0300551
0.0300621
0.0300697
0.0300779
0.0300865
0.0300956
0.0301052
0.0301153
0.0301257
0.0301365
0.0301477
0.0301592
0.0301709
0.030183
0.0301769
0.0301654
0.0301542
0.0301435
0.0301331
0.0301232
0.0301137
0.0301048
0.0300963
0.0300884
0.0300811
0.0300743
0.0300681
0.0300625
0.0300576
0.0300532
0.0300495
0.0300465
0.030044
0.0300423
0.0300412
0.0300407
0.0300409
0.0300418
0.0300433
0.0300455
0.0300483
0.0300518
0.0300559
0.0300606
0.0300659
0.0300718
0.0300783
0.0300854
0.030093
0.0301012
0.0301098
0.030119
0.0301286
0.0301386
0.0301491
0.0301599
0.0301711
0.0301826
0.0301943
0.0302064
0.0302125
0.0302007
0.0301892
0.030178
0.0301672
0.0301568
0.0301469
0.0301374
0.0301284
0.03012
0.030112
0.0301047
0.0300979
0.0300917
0.0300861
0.0300811
0.0300767
0.030073
0.0300699
0.0300675
0.0300657
0.0300646
0.0300641
0.0300643
0.0300652
0.0300667
0.0300689
0.0300717
0.0300752
0.0300793
0.030084
0.0300893
0.0300952
0.0301017
0.0301088
0.0301164
0.0301246
0.0301332
0.0301424
0.030152
0.0301621
0.0301725
0.0301834
0.0301945
0.030206
0.0302178
0.0302299
0.0302363
0.0302246
0.0302131
0.0302019
0.0301911
0.0301807
0.0301707
0.0301612
0.0301522
0.0301437
0.0301358
0.0301284
0.0301216
0.0301153
0.0301097
0.0301047
0.0301004
0.0300966
0.0300935
0.0300911
0.0300893
0.0300882
0.0300877
0.0300879
0.0300888
0.0300903
0.0300925
0.0300953
0.0300987
0.0301028
0.0301075
0.0301129
0.0301188
0.0301253
0.0301324
0.03014
0.0301481
0.0301568
0.0301659
0.0301755
0.0301856
0.0301961
0.0302069
0.0302181
0.0302296
0.0302414
0.0302534
0.0302603
0.0302486
0.030237
0.0302259
0.030215
0.0302046
0.0301946
0.0301851
0.0301761
0.0301676
0.0301596
0.0301522
0.0301454
0.0301392
0.0301335
0.0301285
0.0301241
0.0301204
0.0301173
0.0301148
0.0301131
0.0301119
0.0301115
0.0301116
0.0301125
0.030114
0.0301162
0.030119
0.0301224
0.0301265
0.0301312
0.0301365
0.0301424
0.0301489
0.030156
0.0301636
0.0301718
0.0301804
0.0301896
0.0301992
0.0302092
0.0302197
0.0302305
0.0302417
0.0302532
0.030265
0.030277
0.0302844
0.0302726
0.0302611
0.0302499
0.0302391
0.0302286
0.0302186
0.0302091
0.0302001
0.0301916
0.0301836
0.0301762
0.0301693
0.0301631
0.0301575
0.0301524
0.030148
0.0301443
0.0301412
0.0301387
0.0301369
0.0301358
0.0301353
0.0301355
0.0301363
0.0301378
0.03014
0.0301428
0.0301462
0.0301503
0.030155
0.0301603
0.0301662
0.0301727
0.0301798
0.0301874
0.0301955
0.0302042
0.0302133
0.0302229
0.0302329
0.0302434
0.0302542
0.0302654
0.0302769
0.0302886
0.0303006
0.0303085
0.0302967
0.0302852
0.030274
0.0302632
0.0302527
0.0302427
0.0302332
0.0302242
0.0302156
0.0302077
0.0302002
0.0301934
0.0301871
0.0301815
0.0301765
0.0301721
0.0301683
0.0301652
0.0301627
0.0301609
0.0301598
0.0301593
0.0301595
0.0301603
0.0301618
0.0301639
0.0301667
0.0301702
0.0301742
0.0301789
0.0301842
0.0301901
0.0301966
0.0302036
0.0302112
0.0302193
0.030228
0.0302371
0.0302467
0.0302567
0.0302671
0.030278
0.0302891
0.0303006
0.0303123
0.0303243
0.0303327
0.0303209
0.0303094
0.0302982
0.0302873
0.0302769
0.0302669
0.0302573
0.0302483
0.0302398
0.0302318
0.0302244
0.0302175
0.0302113
0.0302056
0.0302006
0.0301962
0.0301924
0.0301893
0.0301868
0.030185
0.0301839
0.0301834
0.0301835
0.0301844
0.0301859
0.030188
0.0301908
0.0301942
0.0301982
0.0302029
0.0302082
0.0302141
0.0302205
0.0302275
0.0302351
0.0302432
0.0302518
0.0302609
0.0302705
0.0302805
0.0302909
0.0303017
0.0303129
0.0303243
0.030336
0.0303479
0.0303569
0.0303451
0.0303336
0.0303224
0.0303115
0.0303011
0.0302911
0.0302815
0.0302725
0.030264
0.030256
0.0302486
0.0302417
0.0302355
0.0302298
0.0302248
0.0302204
0.0302166
0.0302135
0.030211
0.0302092
0.030208
0.0302076
0.0302077
0.0302085
0.03021
0.0302121
0.0302149
0.0302183
0.0302223
0.030227
0.0302322
0.0302381
0.0302445
0.0302515
0.0302591
0.0302672
0.0302758
0.0302848
0.0302944
0.0303044
0.0303148
0.0303255
0.0303367
0.0303481
0.0303597
0.0303716
0.0303811
0.0303693
0.0303578
0.0303466
0.0303357
0.0303253
0.0303153
0.0303058
0.0302967
0.0302882
0.0302802
0.0302728
0.030266
0.0302597
0.0302541
0.030249
0.0302446
0.0302409
0.0302378
0.0302353
0.0302335
0.0302323
0.0302318
0.030232
0.0302328
0.0302342
0.0302363
0.0302391
0.0302425
0.0302465
0.0302511
0.0302564
0.0302622
0.0302686
0.0302756
0.0302831
0.0302911
0.0302997
0.0303088
0.0303183
0.0303282
0.0303386
0.0303494
0.0303605
0.0303718
0.0303835
0.0303953
0.0304053
0.0303935
0.030382
0.0303708
0.03036
0.0303495
0.0303396
0.03033
0.030321
0.0303125
0.0303045
0.0302971
0.0302903
0.030284
0.0302784
0.0302734
0.030269
0.0302652
0.0302621
0.0302596
0.0302578
0.0302566
0.0302561
0.0302563
0.0302571
0.0302585
0.0302606
0.0302633
0.0302667
0.0302707
0.0302753
0.0302805
0.0302863
0.0302927
0.0302997
0.0303071
0.0303152
0.0303237
0.0303327
0.0303422
0.0303521
0.0303625
0.0303732
0.0303843
0.0303957
0.0304073
0.0304192
0.0304296
0.0304178
0.0304063
0.030395
0.0303842
0.0303738