/*--------------------------------*- C++ -*----------------------------------*\
  =========                 |
  \\      /  F ield         | OpenFOAM: The Open Source CFD Toolbox
   \\    /   O peration     | Website:  https://openfoam.org
    \\  /    A nd           | Version:  7
     \\/     M anipulation  |
\*---------------------------------------------------------------------------*/
FoamFile
{
    version     2.0;
    format      ascii;
    class       volVectorField;
    location    "224000";
    object      U;
}
// * * * * * * * * * * * * * * * * * * * * * * * * * * * * * * * * * * * * * //

dimensions      [0 1 -1 0 0 0 0];

internalField   nonuniform List<vector> 
4764
(
(-1.16376e-18 5.28788e-19 -0.0127601)
(-8.43771e-19 7.08367e-19 -0.0127708)
(-1.24612e-18 5.73321e-19 -0.0127805)
(-1.13961e-18 5.31162e-19 -0.0127892)
(-7.70069e-19 -1.97503e-19 -0.0127968)
(-1.43597e-18 5.48728e-19 -0.0128034)
(-1.38885e-18 6.19049e-19 -0.0125679)
(-6.03678e-20 -1.4539e-19 -0.0125868)
(-3.6829e-19 -1.71884e-20 -0.0126049)
(-1.46338e-18 -1.14965e-19 -0.0126221)
(-1.48367e-18 -8.58944e-20 -0.0126385)
(-6.51715e-19 6.20932e-19 -0.0126541)
(-5.19673e-19 9.10173e-20 -0.0126687)
(-9.94159e-19 1.70247e-19 -0.0126824)
(-1.47153e-18 -1.08514e-19 -0.0126952)
(-1.1742e-18 6.37717e-19 -0.0127069)
(-8.84117e-19 8.22135e-19 -0.0127177)
(-1.23062e-18 4.78426e-19 -0.0127274)
(-1.14738e-18 2.98877e-19 -0.0127361)
(-6.95225e-19 -4.21752e-19 -0.0127437)
(-1.36244e-18 7.18242e-19 -0.0127503)
(-1.01403e-18 7.94499e-19 -0.0127558)
(-7.91506e-19 6.35584e-19 -0.0127602)
(-1.31288e-18 7.34706e-19 -0.0127635)
(-8.84937e-19 4.28725e-20 -0.0127657)
(-1.01339e-18 8.73548e-20 -0.0127668)
(-1.60022e-18 1.00038e-18 -0.0127668)
(-1.47844e-18 7.63569e-19 -0.0127657)
(-1.79964e-18 3.04829e-19 -0.0127635)
(-7.47977e-19 1.19188e-18 -0.0127602)
(-1.00446e-18 1.17877e-18 -0.0127558)
(-7.1094e-19 1.31331e-18 -0.0127503)
(-4.21371e-19 5.31753e-19 -0.0127437)
(-8.41831e-19 5.48619e-19 -0.0127361)
(-2.07145e-19 4.13334e-19 -0.0127274)
(-1.31313e-18 4.69732e-19 -0.012514)
(-5.56623e-20 -2.58534e-19 -0.0125329)
(-1.95504e-19 -1.42135e-19 -0.012551)
(-1.43303e-18 -6.08916e-20 -0.0125683)
(-1.47995e-18 -1.99406e-20 -0.0125848)
(-7.85681e-19 9.42267e-19 -0.0126003)
(-7.74171e-19 6.45992e-19 -0.012615)
(-9.88281e-19 1.02681e-19 -0.0126287)
(-1.43618e-18 -1.66422e-19 -0.0126415)
(-1.15942e-18 7.43166e-19 -0.0126533)
(-9.01258e-19 9.11354e-19 -0.0126641)
(-1.27348e-18 5.08013e-19 -0.0126738)
(-1.15439e-18 2.87325e-20 -0.0126825)
(-6.6615e-19 -2.56147e-19 -0.0126902)
(-1.29339e-18 7.29065e-19 -0.0126967)
(-1.01123e-18 5.99722e-19 -0.0127022)
(-7.67555e-19 5.88773e-19 -0.0127067)
(-1.35986e-18 8.33914e-19 -0.01271)
(-9.26074e-19 2.44638e-20 -0.0127122)
(-9.40512e-19 1.52611e-19 -0.0127133)
(-1.58515e-18 8.42265e-19 -0.0127133)
(-1.56779e-18 5.41555e-19 -0.0127122)
(-1.78458e-18 2.65341e-19 -0.01271)
(-6.92019e-19 1.15589e-18 -0.0127067)
(-1.0258e-18 1.16218e-18 -0.0127022)
(-7.95428e-19 1.10151e-18 -0.0126967)
(-5.04685e-19 3.36552e-19 -0.0126902)
(-8.62624e-19 4.73931e-19 -0.0126825)
(-1.82659e-19 5.62847e-19 -0.0126738)
(1.13871e-19 -1.87279e-19 -0.0126641)
(2.24221e-19 3.95024e-19 -0.0126533)
(-2.70702e-20 1.86685e-19 -0.0126415)
(2.95349e-19 8.39238e-19 -0.0126287)
(-1.18421e-18 2.46931e-19 -0.0124596)
(-2.156e-19 -5.01434e-20 -0.0124785)
(3.23326e-20 -3.56456e-19 -0.0124967)
(-1.43329e-18 5.12929e-20 -0.012514)
(-1.49222e-18 1.17407e-19 -0.0125305)
(-7.41173e-19 9.97561e-19 -0.0125461)
(-9.83915e-19 1.02698e-18 -0.0125608)
(-1.05403e-18 9.5758e-20 -0.0125746)
(-1.43667e-18 -7.93056e-20 -0.0125874)
(-1.12892e-18 7.95912e-19 -0.0125992)
(-9.46939e-19 1.01987e-18 -0.01261)
(-1.27732e-18 2.90441e-19 -0.0126198)
(-1.14813e-18 -1.86508e-19 -0.0126285)
(-6.30243e-19 -8.54422e-20 -0.0126362)
(-1.18151e-18 3.56531e-19 -0.0126428)
(-1.04023e-18 7.56014e-19 -0.0126483)
(-7.27527e-19 4.92007e-19 -0.0126527)
(-1.41184e-18 9.36642e-19 -0.012656)
(-9.7571e-19 8.44429e-20 -0.0126582)
(-8.96578e-19 2.22442e-19 -0.0126593)
(-1.59317e-18 3.97208e-19 -0.0126593)
(-1.63283e-18 3.37031e-19 -0.0126582)
(-1.76462e-18 2.42832e-19 -0.012656)
(-6.40691e-19 1.08124e-18 -0.0126527)
(-1.05506e-18 1.07066e-18 -0.0126483)
(-8.38879e-19 1.19612e-18 -0.0126428)
(-5.64549e-19 2.32496e-19 -0.0126362)
(-8.70402e-19 2.84971e-19 -0.0126285)
(-1.25617e-19 8.26782e-19 -0.0126198)
(1.52824e-19 -8.35084e-20 -0.01261)
(2.37732e-19 3.52882e-19 -0.0125992)
(9.33497e-21 1.99171e-19 -0.0125874)
(1.94749e-19 6.72143e-19 -0.0125746)
(-1.72257e-19 -4.33376e-19 -0.0125608)
(7.84416e-19 -3.99438e-19 -0.0125461)
(-4.89803e-19 -7.41205e-19 -0.0125305)
(-3.37611e-20 -1.84891e-19 -0.012514)
(-2.41779e-19 2.65002e-19 -0.0124967)
(-3.54255e-19 6.76561e-19 -0.0124785)
(-1.07317e-18 6.18044e-19 -0.0124596)
(-1.99738e-19 7.6248e-19 -0.0124399)
(1.90587e-19 1.25116e-18 -0.0124195)
(-3.75319e-19 7.68467e-19 -0.0123985)
(-6.79993e-19 4.5256e-19 -0.0123769)
(-1.68758e-18 6.04587e-19 -0.0123548)
(-1.20955e-18 2.97108e-19 -0.0124047)
(-4.02129e-19 1.44502e-19 -0.0124237)
(1.82992e-19 -4.75538e-19 -0.0124419)
(-1.42593e-18 2.72526e-19 -0.0124593)
(-1.66398e-18 5.24165e-19 -0.0124758)
(-5.61697e-19 7.29742e-19 -0.0124915)
(-8.98013e-19 7.57976e-19 -0.0125062)
(-1.16818e-18 2.0926e-19 -0.01252)
(-1.42018e-18 -6.61099e-20 -0.0125328)
(-1.10117e-18 8.9127e-19 -0.0125447)
(-1.04901e-18 1.28449e-18 -0.0125555)
(-1.30762e-18 8.93544e-20 -0.0125653)
(-1.16032e-18 -1.82407e-19 -0.012574)
(-6.16436e-19 5.83081e-20 -0.0125817)
(-1.0531e-18 3.91755e-22 -0.0125883)
(-1.03644e-18 8.51507e-19 -0.0125939)
(-7.15631e-19 5.0166e-19 -0.0125983)
(-1.42692e-18 9.02856e-19 -0.0126016)
(-1.03591e-18 3.53335e-19 -0.0126038)
(-8.94122e-19 2.99929e-19 -0.012605)
(-1.6179e-18 8.4237e-20 -0.012605)
(-1.66401e-18 1.54294e-19 -0.0126038)
(-1.7032e-18 5.88972e-19 -0.0126016)
(-5.90562e-19 1.05085e-18 -0.0125983)
(-1.06692e-18 9.75576e-19 -0.0125939)
(-8.54872e-19 1.45084e-18 -0.0125883)
(-6.34725e-19 2.99205e-19 -0.0125817)
(-7.95503e-19 4.03171e-19 -0.012574)
(-3.91957e-20 1.06093e-18 -0.0125653)
(1.83112e-19 5.89993e-20 -0.0125555)
(2.11774e-19 1.95109e-19 -0.0125447)
(3.13159e-20 2.04488e-19 -0.0125328)
(7.66563e-20 4.52133e-19 -0.01252)
(-1.12271e-19 -2.64697e-19 -0.0125062)
(9.47022e-19 -3.00387e-20 -0.0124915)
(-4.87725e-19 -6.54712e-19 -0.0124758)
(-1.27212e-19 -5.03014e-19 -0.0124593)
(-3.31542e-19 2.20318e-20 -0.0124419)
(-6.27738e-19 1.95473e-19 -0.0124237)
(-9.12886e-19 8.22694e-19 -0.0124047)
(1.88762e-20 1.0216e-18 -0.0123849)
(-1.54644e-19 8.44712e-19 -0.0123645)
(-4.50795e-19 7.69674e-19 -0.0123434)
(-6.37004e-19 5.99715e-19 -0.0123217)
(-1.49687e-18 7.81666e-19 -0.0122995)
(-1.31232e-18 4.7626e-19 -0.0123493)
(-5.97644e-19 3.51611e-19 -0.0123683)
(1.00299e-19 -1.52436e-19 -0.0123866)
(-1.36843e-18 4.4763e-19 -0.0124041)
(-1.82163e-18 8.1228e-19 -0.0124207)
(-5.96389e-19 7.50454e-19 -0.0124364)
(-8.14506e-19 5.99031e-19 -0.0124511)
(-1.23606e-18 3.17605e-19 -0.012465)
(-1.34316e-18 -2.09444e-19 -0.0124778)
(-1.12256e-18 1.23558e-18 -0.0124897)
(-1.11699e-18 1.33947e-18 -0.0125005)
(-1.34861e-18 -1.31337e-19 -0.0125104)
(-1.19241e-18 -6.9603e-21 -0.0125191)
(-6.94675e-19 5.72618e-19 -0.0125268)
(-9.98297e-19 -5.88604e-20 -0.0125334)
(-9.76694e-19 7.25237e-19 -0.012539)
(-7.25313e-19 7.3421e-19 -0.0125434)
(-1.41821e-18 6.69183e-19 -0.0125468)
(-1.08099e-18 6.06979e-19 -0.012549)
(-9.29833e-19 3.24153e-19 -0.0125501)
(-1.65641e-18 4.25076e-20 -0.0125501)
(-1.63975e-18 2.45834e-20 -0.012549)
(-1.64148e-18 8.64785e-19 -0.0125468)
(-6.36435e-19 5.70859e-19 -0.0125434)
(-1.06236e-18 8.82359e-19 -0.012539)
(-9.05203e-19 1.4206e-18 -0.0125334)
(-6.90236e-19 3.07547e-19 -0.0125268)
(-6.76401e-19 6.66536e-19 -0.0125191)
(-6.42651e-20 9.9563e-19 -0.0125104)
(1.78312e-19 2.03973e-19 -0.0125005)
(1.55531e-19 -1.02955e-20 -0.0124897)
(2.16924e-20 1.17042e-19 -0.0124778)
(2.72645e-20 3.57308e-19 -0.012465)
(-9.68046e-20 -2.78206e-19 -0.0124511)
(9.04515e-19 -8.91714e-20 -0.0124364)
(-5.09601e-19 -5.49792e-19 -0.0124207)
(-1.01997e-19 -5.66968e-19 -0.0124041)
(-4.12052e-19 -1.61493e-19 -0.0123866)
(-7.53058e-19 -4.98746e-20 -0.0123683)
(-9.46873e-19 6.47218e-19 -0.0123493)
(9.12417e-20 1.11115e-18 -0.0123295)
(-2.88451e-19 7.35429e-19 -0.012309)
(-4.4607e-19 8.1504e-19 -0.0122878)
(-4.58593e-19 8.96137e-19 -0.0122661)
(-1.31738e-18 9.44936e-19 -0.0122437)
(-1.25809e-18 4.76364e-19 -0.0122933)
(-7.64859e-19 5.40784e-19 -0.0123125)
(1.3474e-20 1.16375e-19 -0.0123308)
(-1.1697e-18 3.09736e-19 -0.0123483)
(-1.70311e-18 5.96414e-19 -0.012365)
(-7.27895e-19 1.02487e-18 -0.0123807)
(-8.79728e-19 7.32625e-19 -0.0123955)
(-1.27985e-18 2.55725e-19 -0.0124094)
(-1.21928e-18 -4.12559e-19 -0.0124223)
(-1.00722e-18 1.16224e-18 -0.0124342)
(-1.13657e-18 1.05882e-18 -0.0124451)
(-1.35701e-18 -3.66661e-19 -0.0124549)
(-1.13056e-18 1.10021e-19 -0.0124637)
(-7.98785e-19 1.16657e-18 -0.0124714)
(-1.03441e-18 5.97354e-20 -0.0124781)
(-9.0581e-19 6.11996e-19 -0.0124836)
(-7.29768e-19 7.90629e-19 -0.0124881)
(-1.41331e-18 4.18242e-19 -0.0124914)
(-1.09958e-18 6.75562e-19 -0.0124937)
(-9.65783e-19 2.32235e-19 -0.0124948)
(-1.69749e-18 9.10495e-20 -0.0124948)
(-1.61069e-18 2.64722e-19 -0.0124937)
(-1.63837e-18 1.05588e-18 -0.0124914)
(-6.72286e-19 1.55537e-19 -0.0124881)
(-1.02061e-18 7.6443e-19 -0.0124836)
(-1.00407e-18 1.11899e-18 -0.0124781)
(-7.66052e-19 1.28062e-19 -0.0124714)
(-6.26586e-19 7.12474e-19 -0.0124637)
(-1.13852e-19 7.75421e-19 -0.0124549)
(1.87925e-19 3.47547e-19 -0.0124451)
(1.87529e-19 1.09912e-19 -0.0124342)
(7.25279e-20 1.60298e-19 -0.0124223)
(1.35221e-20 3.73737e-19 -0.0124094)
(-8.49474e-20 -2.43831e-19 -0.0123955)
(8.07999e-19 -3.19482e-19 -0.0123807)
(-4.75299e-19 -4.01587e-19 -0.012365)
(1.61484e-19 -1.42937e-19 -0.0123483)
(-4.29959e-19 -2.24678e-19 -0.0123308)
(-6.62316e-19 6.22811e-20 -0.0123125)
(-9.07432e-19 5.76518e-19 -0.0122933)
(1.32262e-19 1.11237e-18 -0.0122735)
(-3.56069e-19 7.22214e-19 -0.0122529)
(-3.90886e-19 8.83711e-19 -0.0122317)
(-2.60347e-19 1.19372e-18 -0.0122099)
(-1.3706e-18 8.91137e-19 -0.0121875)
(-1.09639e-18 3.52442e-19 -0.0122369)
(-7.61303e-19 4.89963e-19 -0.0122561)
(2.77236e-21 2.01171e-19 -0.0122745)
(-1.02616e-18 1.85458e-19 -0.012292)
(-1.49819e-18 2.84789e-19 -0.0123087)
(-7.03283e-19 1.04329e-18 -0.0123245)
(-8.46787e-19 5.90898e-19 -0.0123394)
(-1.37735e-18 3.02942e-19 -0.0123533)
(-1.27273e-18 -2.03433e-19 -0.0123663)
(-8.44675e-19 9.19184e-19 -0.0123782)
(-1.14219e-18 8.33712e-19 -0.0123891)
(-1.44524e-18 -2.17964e-19 -0.012399)
(-1.02052e-18 1.48115e-19 -0.0124078)
(-7.90878e-19 1.25094e-18 -0.0124155)
(-1.11315e-18 2.27062e-19 -0.0124222)
(-8.58739e-19 5.19201e-19 -0.0124278)
(-7.15574e-19 6.39973e-19 -0.0124322)
(-1.40771e-18 2.57336e-19 -0.0124356)
(-1.11193e-18 6.4226e-19 -0.0124378)
(-1.00288e-18 7.534e-20 -0.0124389)
(-1.69778e-18 -1.08733e-19 -0.0124389)
(-1.54724e-18 6.37871e-19 -0.0124378)
(-1.66649e-18 1.28573e-18 -0.0124356)
(-6.85627e-19 3.39754e-19 -0.0124322)
(-1.00217e-18 6.64435e-19 -0.0124278)
(-1.10066e-18 8.88111e-19 -0.0124222)
(-8.00728e-19 3.8848e-21 -0.0124155)
(-5.53483e-19 7.91985e-19 -0.0124078)
(-1.61523e-19 5.77091e-19 -0.012399)
(2.14946e-19 4.4686e-19 -0.0123891)
(2.52317e-19 3.2505e-19 -0.0123782)
(4.83201e-20 7.06099e-20 -0.0123663)
(-4.94882e-20 2.48918e-19 -0.0123533)
(-3.55719e-20 -1.04317e-19 -0.0123394)
(7.69855e-19 -4.09174e-19 -0.0123245)
(-4.78155e-19 -4.6523e-19 -0.0123087)
(4.63717e-19 3.61214e-19 -0.012292)
(-4.14206e-19 -1.64257e-19 -0.0122745)
(-4.95068e-19 2.82931e-19 -0.0122561)
(-6.74079e-19 8.32224e-19 -0.0122369)
(1.56366e-19 1.12604e-18 -0.012217)
(-5.15767e-19 5.54158e-19 -0.0121963)
(-3.18855e-19 9.26338e-19 -0.012175)
(-2.78018e-19 1.28044e-18 -0.0121531)
(-1.68422e-18 5.62672e-19 -0.0121307)
(-9.63855e-19 2.84057e-19 -0.0121799)
(-7.64049e-19 4.69666e-19 -0.0121991)
(1.08662e-20 2.72059e-19 -0.0122176)
(-9.51553e-19 1.68183e-19 -0.0122352)
(-1.45823e-18 2.75267e-19 -0.012252)
(-5.74203e-19 8.2182e-19 -0.0122678)
(-8.1023e-19 5.09556e-19 -0.0122828)
(-1.52401e-18 6.22058e-19 -0.0122967)
(-1.48836e-18 4.24198e-19 -0.0123097)
(-7.92322e-19 8.71169e-19 -0.0123217)
(-1.1349e-18 6.56652e-19 -0.0123326)
(-1.5083e-18 -1.29433e-19 -0.0123425)
(-9.17842e-19 5.03437e-20 -0.0123514)
(-7.10485e-19 1.00101e-18 -0.0123591)
(-1.16397e-18 2.80646e-19 -0.0123658)
(-8.49545e-19 5.53417e-19 -0.0123714)
(-7.05584e-19 4.80662e-19 -0.0123759)
(-1.40813e-18 2.91724e-19 -0.0123792)
(-1.12724e-18 6.38958e-19 -0.0123815)
(-1.06005e-18 -4.48109e-20 -0.0123826)
(-1.67598e-18 -2.72341e-19 -0.0123826)
(-1.47325e-18 6.92453e-19 -0.0123815)
(-1.70461e-18 1.27605e-18 -0.0123792)
(-6.68698e-19 8.18887e-19 -0.0123759)
(-1.01233e-18 5.57557e-19 -0.0123714)
(-1.18136e-18 7.42127e-19 -0.0123658)
(-7.94663e-19 2.84637e-20 -0.0123591)
(-5.13861e-19 8.32117e-19 -0.0123514)
(-2.20953e-19 3.1381e-19 -0.0123425)
(2.47234e-19 4.8078e-19 -0.0123326)
(2.29158e-19 3.55472e-19 -0.0123217)
(-2.69975e-20 -1.11314e-19 -0.0123097)
(-1.10597e-19 6.08805e-20 -0.0122967)
(-2.35558e-20 -9.20386e-20 -0.0122828)
(8.56039e-19 -1.87065e-19 -0.0122678)
(-4.39527e-19 -4.93751e-19 -0.012252)
(5.53771e-19 4.19714e-19 -0.0122352)
(-4.66355e-19 -2.18163e-19 -0.0122176)
(-3.87183e-19 3.52748e-19 -0.0121991)
(-5.76255e-19 9.03896e-19 -0.0121799)
(1.02751e-19 1.10229e-18 -0.0121599)
(-4.61819e-19 6.86203e-19 -0.0121392)
(-3.14446e-19 8.67876e-19 -0.0121178)
(-5.65564e-19 1.09111e-18 -0.0120959)
(-1.91759e-18 2.845e-19 -0.0120733)
(-1.04198e-18 5.67245e-19 -0.0121223)
(-8.0974e-19 5.42361e-19 -0.0121417)
(-2.40118e-20 3.94647e-19 -0.0121602)
(-9.27896e-19 2.52931e-19 -0.0121779)
(-1.42129e-18 2.4746e-19 -0.0121947)
(-4.84412e-19 6.85603e-19 -0.0122106)
(-8.12683e-19 6.44542e-19 -0.0122255)
(-1.56001e-18 7.57291e-19 -0.0122395)
(-1.64803e-18 7.84515e-19 -0.0122526)
(-8.15574e-19 8.76304e-19 -0.0122646)
(-1.12646e-18 4.50945e-19 -0.0122756)
(-1.48321e-18 -4.01768e-19 -0.0122855)
(-9.18803e-19 3.9098e-19 -0.0122944)
(-6.55664e-19 9.57707e-19 -0.0123022)
(-1.18553e-18 3.05506e-19 -0.0123089)
(-8.49651e-19 5.9732e-19 -0.0123145)
(-6.91489e-19 3.32456e-19 -0.0123189)
(-1.40359e-18 4.19319e-19 -0.0123223)
(-1.16597e-18 7.61551e-19 -0.0123246)
(-1.11922e-18 -7.32257e-20 -0.0123257)
(-1.65002e-18 -1.38124e-19 -0.0123257)
(-1.41138e-18 6.05624e-19 -0.0123246)
(-1.69897e-18 1.27554e-18 -0.0123223)
(-6.7466e-19 1.17718e-18 -0.0123189)
(-1.07618e-18 4.32398e-19 -0.0123145)
(-1.20881e-18 8.49985e-19 -0.0123089)
(-7.86027e-19 -6.73876e-21 -0.0123022)
(-5.00584e-19 8.1091e-19 -0.0122944)
(-2.37476e-19 2.3806e-19 -0.0122855)
(2.61555e-19 4.06887e-19 -0.0122756)
(1.69724e-19 2.80364e-19 -0.0122646)
(-9.38395e-20 -2.42883e-19 -0.0122526)
(-8.4008e-20 9.82168e-20 -0.0122395)
(2.19461e-20 -1.02997e-19 -0.0122255)
(9.11598e-19 -7.38646e-20 -0.0122106)
(-3.7371e-19 -3.78284e-19 -0.0121947)
(4.33067e-19 1.36065e-19 -0.0121779)
(-5.02693e-19 -2.57894e-19 -0.0121602)
(-3.8887e-19 2.48838e-19 -0.0121417)
(-7.72516e-19 5.33397e-19 -0.0121223)
(6.27083e-20 1.01599e-18 -0.0121023)
(-4.13682e-19 7.92507e-19 -0.0120815)
(-3.00004e-19 9.17913e-19 -0.0120601)
(-1.09479e-18 6.25314e-19 -0.012038)
(-1.84666e-18 2.8958e-19 -0.0120154)
(-1.2468e-18 1.03318e-18 -0.0120642)
(-8.34366e-19 5.24401e-19 -0.0120836)
(-1.26364e-19 6.55992e-19 -0.0121022)
(-9.06707e-19 2.99552e-19 -0.0121199)
(-1.36066e-18 1.34568e-19 -0.0121368)
(-4.6208e-19 7.481e-19 -0.0121527)
(-7.99449e-19 7.16522e-19 -0.0121677)
(-1.47278e-18 5.58843e-19 -0.0121818)
(-1.61335e-18 6.51076e-19 -0.0121949)
(-8.69977e-19 9.27983e-19 -0.0122069)
(-1.16169e-18 2.9466e-19 -0.0122179)
(-1.39509e-18 -6.53215e-19 -0.0122279)
(-9.26707e-19 9.13452e-19 -0.0122368)
(-6.59778e-19 9.49239e-19 -0.0122446)
(-1.23321e-18 3.95908e-19 -0.0122513)
(-8.60304e-19 6.05095e-19 -0.0122569)
(-6.86165e-19 3.23195e-19 -0.0122614)
(-1.36761e-18 4.21512e-19 -0.0122648)
(-1.20727e-18 9.12973e-19 -0.0122671)
(-1.17757e-18 -2.3776e-20 -0.0122682)
(-1.62971e-18 8.16559e-20 -0.0122682)
(-1.35874e-18 5.39652e-19 -0.0122671)
(-1.67908e-18 1.32818e-18 -0.0122648)
(-7.30823e-19 1.10366e-18 -0.0122614)
(-1.12163e-18 3.04338e-19 -0.0122569)
(-1.22912e-18 1.00961e-18 -0.0122513)
(-7.91e-19 2.95005e-20 -0.0122446)
(-4.81415e-19 7.86818e-19 -0.0122368)
(-2.55994e-19 1.61097e-19 -0.0122279)
(1.98359e-19 1.09636e-19 -0.0122179)
(8.60154e-20 1.53907e-19 -0.0122069)
(-1.36331e-19 -3.78698e-19 -0.0121949)
(-7.88591e-20 3.23266e-20 -0.0121818)
(-1.04663e-20 -2.28985e-19 -0.0121677)
(7.92144e-19 -3.48058e-19 -0.0121527)
(-3.8581e-19 -3.96089e-19 -0.0121368)
(3.3227e-19 -1.18929e-19 -0.0121199)
(-4.35691e-19 -1.55763e-19 -0.0121022)
(-5.62049e-19 -6.49786e-20 -0.0120836)
(-9.70265e-19 1.50594e-19 -0.0120642)
(1.68824e-19 1.11358e-18 -0.0120441)
(-5.49804e-19 6.37576e-19 -0.0120233)
(-4.14197e-19 8.54885e-19 -0.0120018)
(-1.50128e-18 2.96376e-19 -0.0119796)
(-1.5818e-18 4.58638e-19 -0.011957)
(-1.22529e-18 1.12059e-18 -0.0120055)
(-8.18355e-19 4.46461e-19 -0.012025)
(-1.38533e-19 7.48962e-19 -0.0120436)
(-8.12811e-19 1.57084e-19 -0.0120614)
(-1.35962e-18 1.83116e-19 -0.0120783)
(-4.97011e-19 9.40081e-19 -0.0120943)
(-7.22028e-19 5.8807e-19 -0.0121094)
(-1.45096e-18 4.79845e-19 -0.0121235)
(-1.46349e-18 2.29736e-19 -0.0121366)
(-9.05658e-19 9.69837e-19 -0.0121487)
(-1.24298e-18 2.53127e-19 -0.0121597)
(-1.37129e-18 -6.10399e-19 -0.0121697)
(-8.18782e-19 9.19353e-19 -0.0121786)
(-6.46592e-19 8.5044e-19 -0.0121865)
(-1.23634e-18 3.01566e-19 -0.0121932)
(-8.96506e-19 8.15287e-19 -0.0121989)
(-7.07352e-19 5.1588e-19 -0.0122034)
(-1.3317e-18 3.94475e-19 -0.0122068)
(-1.23141e-18 8.39954e-19 -0.012209)
(-1.22963e-18 5.31379e-20 -0.0122102)
(-1.61529e-18 3.49704e-19 -0.0122102)
(-1.31002e-18 5.93388e-19 -0.012209)
(-1.67195e-18 1.37646e-18 -0.0122068)
(-8.23537e-19 8.43327e-19 -0.0122034)
(-1.15435e-18 2.06052e-19 -0.0121989)
(-1.26764e-18 9.38946e-19 -0.0121932)
(-7.58695e-19 2.21242e-19 -0.0121865)
(-4.38906e-19 9.51596e-19 -0.0121786)
(-2.98597e-19 1.26707e-19 -0.0121697)
(1.27304e-19 -2.31553e-19 -0.0121597)
(4.0128e-20 5.80999e-20 -0.0121487)
(-9.4768e-20 -2.37051e-19 -0.0121366)
(-9.0234e-20 -3.24375e-20 -0.0121235)
(-1.99557e-20 -3.05022e-19 -0.0121094)
(6.37851e-19 -7.34186e-19 -0.0120943)
(-4.23691e-19 -5.02078e-19 -0.0120783)
(3.39252e-19 -1.9639e-19 -0.0120614)
(-3.88079e-19 -2.83793e-20 -0.0120436)
(-7.1185e-19 -2.93825e-19 -0.012025)
(-9.66828e-19 -1.81648e-20 -0.0120055)
(3.12277e-19 1.24646e-18 -0.0119853)
(-6.84713e-19 5.44435e-19 -0.0119644)
(-5.48476e-19 7.70414e-19 -0.0119428)
(-1.54831e-18 3.37112e-19 -0.0119207)
(-1.30408e-18 6.51788e-19 -0.0118979)
(-1.13709e-18 1.10962e-18 -0.0119462)
(-8.58155e-19 4.57207e-19 -0.0119657)
(-5.00971e-20 6.57881e-19 -0.0119844)
(-7.26492e-19 7.53413e-20 -0.0120023)
(-1.34763e-18 2.61973e-19 -0.0120192)
(-5.69571e-19 1.15912e-18 -0.0120353)
(-5.65726e-19 2.4538e-19 -0.0120504)
(-1.48299e-18 4.93052e-19 -0.0120645)
(-1.34685e-18 -9.65739e-20 -0.0120777)
(-8.66481e-19 8.93496e-19 -0.0120898)
(-1.33382e-18 2.76764e-19 -0.0121009)
(-1.40435e-18 -3.9287e-19 -0.0121109)
(-6.9499e-19 7.92751e-19 -0.0121199)
(-6.65929e-19 8.62208e-19 -0.0121277)
(-1.19982e-18 9.1543e-20 -0.0121345)
(-9.13909e-19 1.1275e-18 -0.0121402)
(-7.47042e-19 6.77503e-19 -0.0121447)
(-1.32985e-18 4.34898e-19 -0.0121481)
(-1.24462e-18 6.4262e-19 -0.0121504)
(-1.24779e-18 1.17623e-19 -0.0121515)
(-1.59709e-18 5.98471e-19 -0.0121515)
(-1.27837e-18 6.16118e-19 -0.0121504)
(-1.71479e-18 1.10331e-18 -0.0121481)
(-9.09646e-19 6.60023e-19 -0.0121447)
(-1.15992e-18 2.07317e-19 -0.0121402)
(-1.27835e-18 9.51955e-19 -0.0121345)
(-6.96528e-19 4.49818e-19 -0.0121277)
(-4.15887e-19 1.06568e-18 -0.0121199)
(-2.99268e-19 3.75343e-19 -0.0121109)
(1.13075e-19 -3.30715e-19 -0.0121009)
(6.38812e-20 7.58558e-20 -0.0120898)
(-1.3881e-20 -3.94653e-20 -0.0120777)
(-6.12709e-20 3.48454e-20 -0.0120645)
(1.72987e-19 2.02736e-19 -0.0120504)
(5.29947e-19 -9.82931e-19 -0.0120353)
(-4.16529e-19 -5.77638e-19 -0.0120192)
(3.47117e-19 -3.07271e-19 -0.0120023)
(-3.75442e-19 3.06737e-20 -0.0119844)
(-6.98697e-19 -2.44457e-19 -0.0119657)
(-8.30177e-19 1.3054e-20 -0.0119462)
(3.20077e-19 1.20397e-18 -0.011926)
(-7.96351e-19 4.87873e-19 -0.011905)
(-3.9886e-19 1.0146e-18 -0.0118833)
(-1.43152e-18 5.53587e-19 -0.0118611)
(-1.08184e-18 8.16888e-19 -0.0118383)
(-4.61946e-19 -4.77962e-19 -0.011866)
(-1.16187e-18 1.27835e-18 -0.0118863)
(-8.84234e-19 4.31472e-19 -0.0119059)
(-8.96259e-20 7.69069e-19 -0.0119246)
(-6.81059e-19 7.4074e-20 -0.0119425)
(-1.32935e-18 3.63975e-19 -0.0119596)
(-6.91359e-19 1.42346e-18 -0.0119757)
(-4.41959e-19 -5.08856e-20 -0.0119908)
(-1.53212e-18 6.00847e-19 -0.012005)
(-1.33413e-18 -1.7545e-19 -0.0120182)
(-7.32269e-19 5.59631e-19 -0.0120304)
(-1.38164e-18 2.4154e-19 -0.0120415)
(-1.47948e-18 -6.32396e-20 -0.0120515)
(-5.93204e-19 7.25083e-19 -0.0120605)
(-6.68748e-19 7.92744e-19 -0.0120684)
(-1.15788e-18 -7.74235e-20 -0.0120752)
(-8.73777e-19 1.10997e-18 -0.0120809)
(-7.87342e-19 7.61997e-19 -0.0120854)
(-1.32498e-18 2.47959e-19 -0.0120888)
(-1.26635e-18 5.93925e-19 -0.0120911)
(-1.24601e-18 1.32585e-19 -0.0120922)
(-1.58834e-18 8.09269e-19 -0.0120922)
(-1.29835e-18 4.68568e-19 -0.0120911)
(-1.77316e-18 6.15319e-19 -0.0120888)
(-9.50778e-19 5.99005e-19 -0.0120854)
(-1.14563e-18 2.82725e-19 -0.0120809)
(-1.25862e-18 1.07495e-18 -0.0120752)
(-6.63371e-19 5.79989e-19 -0.0120684)
(-4.14087e-19 1.04331e-18 -0.0120605)
(-2.44506e-19 8.35295e-19 -0.0120515)
(1.46075e-19 -2.17616e-19 -0.0120415)
(1.19695e-19 1.72775e-19 -0.0120304)
(1.62782e-20 4.99371e-20 -0.0120182)
(-3.14704e-20 -2.04474e-20 -0.012005)
(3.69854e-19 7.1768e-19 -0.0119908)
(4.57816e-19 -1.03434e-18 -0.0119757)
(-3.68046e-19 -5.61083e-19 -0.0119596)
(4.22719e-19 -2.89388e-19 -0.0119425)
(-4.84461e-19 -1.43528e-19 -0.0119246)
(-6.49769e-19 -1.5623e-19 -0.0119059)
(-8.07381e-19 -1.11693e-19 -0.0118863)
(3.16953e-19 1.16726e-18 -0.011866)
(-8.6005e-19 4.3689e-19 -0.0118449)
(-1.90304e-19 1.3049e-18 -0.0118232)
(-1.31521e-18 7.92197e-19 -0.0118009)
(-8.87501e-19 9.90802e-19 -0.011778)
(-5.2699e-19 -3.11007e-19 -0.0118054)
(-1.12231e-18 1.34557e-18 -0.0118258)
(-9.37368e-19 4.53895e-19 -0.0118454)
(-8.0792e-20 8.15983e-19 -0.0118642)
(-6.25175e-19 4.56756e-20 -0.0118822)
(-1.24936e-18 3.88553e-19 -0.0118992)
(-8.20653e-19 1.65962e-18 -0.0119154)
(-3.9781e-19 -1.77822e-19 -0.0119306)
(-1.52558e-18 5.86674e-19 -0.0119448)
(-1.37384e-18 -2.28519e-19 -0.0119581)
(-6.49836e-19 3.79841e-19 -0.0119703)
(-1.36075e-18 1.60305e-19 -0.0119814)
(-1.58733e-18 4.04196e-19 -0.0119915)
(-5.37789e-19 6.97349e-19 -0.0120005)
(-6.66664e-19 6.31981e-19 -0.0120084)
(-1.14378e-18 -1.27252e-19 -0.0120152)
(-7.65168e-19 7.2023e-19 -0.0120209)
(-8.17075e-19 6.58826e-19 -0.0120255)
(-1.31785e-18 -7.12984e-21 -0.0120289)
(-1.25869e-18 4.55623e-19 -0.0120312)
(-1.2353e-18 3.44294e-19 -0.0120323)
(-1.59393e-18 7.51265e-19 -0.0120323)
(-1.35199e-18 3.5536e-19 -0.0120312)
(-1.79928e-18 4.47094e-19 -0.0120289)
(-9.56023e-19 5.77255e-19 -0.0120255)
(-1.10836e-18 4.4051e-19 -0.0120209)
(-1.22716e-18 1.30857e-18 -0.0120152)
(-6.62972e-19 5.75468e-19 -0.0120084)
(-3.82973e-19 1.02471e-18 -0.0120005)
(-2.6948e-19 9.44855e-19 -0.0119915)
(2.2989e-19 1.66029e-19 -0.0119814)
(1.36264e-19 1.65408e-19 -0.0119703)
(4.89835e-20 1.61116e-19 -0.0119581)
(1.18348e-20 -5.21233e-20 -0.0119448)
(3.57481e-19 7.55137e-19 -0.0119306)
(3.80764e-19 -1.08321e-18 -0.0119154)
(-2.17847e-19 -3.86813e-19 -0.0118992)
(5.07978e-19 -2.05311e-19 -0.0118822)
(-6.48985e-19 -4.0264e-19 -0.0118642)
(-6.37469e-19 -1.29388e-19 -0.0118454)
(-8.09946e-19 -2.70231e-19 -0.0118258)
(3.28759e-19 1.12805e-18 -0.0118054)
(-9.12808e-19 3.91697e-19 -0.0117843)
(-9.86225e-20 1.42252e-18 -0.0117625)
(-1.26661e-18 9.46813e-19 -0.0117401)
(-7.59682e-19 1.12349e-18 -0.0117172)
(-7.31744e-19 3.3485e-20 -0.0117441)
(-1.02109e-18 1.30631e-18 -0.0117646)
(-1.09915e-18 6.47963e-19 -0.0117843)
(5.76242e-21 6.88346e-19 -0.0118031)
(-5.68721e-19 1.60441e-20 -0.0118212)
(-1.07966e-18 2.68983e-19 -0.0118383)
(-8.04095e-19 1.5888e-18 -0.0118545)
(-4.41551e-19 -1.6105e-19 -0.0118698)
(-1.41765e-18 3.21733e-19 -0.011884)
(-1.41005e-18 -2.37057e-19 -0.0118973)
(-6.83939e-19 5.61538e-19 -0.0119095)
(-1.34138e-18 1.62939e-19 -0.0119207)
(-1.63071e-18 6.2364e-19 -0.0119308)
(-5.43499e-19 7.84275e-19 -0.0119399)
(-6.82312e-19 6.10598e-19 -0.0119478)
(-1.17076e-18 -4.8167e-20 -0.0119546)
(-6.68224e-19 2.53555e-19 -0.0119603)
(-8.24036e-19 5.86461e-19 -0.0119649)
(-1.32907e-18 -5.18108e-20 -0.0119684)
(-1.22259e-18 2.88752e-19 -0.0119706)
(-1.22566e-18 5.29329e-19 -0.0119718)
(-1.62824e-18 6.02326e-19 -0.0119718)
(-1.37472e-18 4.11923e-19 -0.0119706)
(-1.8048e-18 5.27797e-19 -0.0119684)
(-9.5716e-19 5.49415e-19 -0.0119649)
(-1.0516e-18 6.20418e-19 -0.0119603)
(-1.21834e-18 1.48458e-18 -0.0119546)
(-7.02019e-19 4.74736e-19 -0.0119478)
(-3.86756e-19 9.20726e-19 -0.0119399)
(-3.4156e-19 7.4702e-19 -0.0119308)
(3.28636e-19 5.50543e-19 -0.0119207)
(1.12794e-19 1.04641e-19 -0.0119095)
(1.51739e-19 4.56857e-19 -0.0118973)
(7.87654e-20 1.6518e-20 -0.011884)
(2.60413e-19 6.01081e-19 -0.0118698)
(3.93924e-19 -1.00095e-18 -0.0118545)
(1.58237e-20 -5.12739e-20 -0.0118383)
(5.01972e-19 -2.24479e-19 -0.0118212)
(-7.46144e-19 -5.37876e-19 -0.0118031)
(-6.77382e-19 -2.1691e-19 -0.0117843)
(-7.00372e-19 -2.55951e-19 -0.0117646)
(1.44978e-19 8.17105e-19 -0.0117441)
(-1.07105e-18 1.84503e-19 -0.0117229)
(-5.19539e-20 1.47465e-18 -0.0117011)
(-1.38126e-18 9.10698e-19 -0.0116786)
(-7.48651e-19 1.13554e-18 -0.0116556)
(-2.12719e-18 5.3252e-19 -0.0116609)
(-9.50885e-19 3.50532e-19 -0.0116822)
(-9.54752e-19 1.31192e-18 -0.0117027)
(-1.20539e-18 7.40885e-19 -0.0117225)
(2.97497e-20 6.43617e-19 -0.0117414)
(-5.45265e-19 4.5064e-20 -0.0117595)
(-1.01087e-18 3.1674e-19 -0.0117767)
(-6.8881e-19 1.34701e-18 -0.0117929)
(-4.81606e-19 -1.52348e-19 -0.0118082)
(-1.3175e-18 5.92707e-20 -0.0118225)
(-1.43566e-18 -1.83913e-19 -0.0118359)
(-7.36998e-19 8.0773e-19 -0.0118481)
(-1.34649e-18 1.85924e-19 -0.0118594)
(-1.58073e-18 5.10628e-19 -0.0118695)
(-5.50283e-19 9.11044e-19 -0.0118786)
(-7.00221e-19 5.45806e-19 -0.0118865)
(-1.22678e-18 1.79319e-20 -0.0118934)
(-5.95579e-19 1.48354e-20 -0.0118991)
(-8.23113e-19 6.46208e-19 -0.0119037)
(-1.35734e-18 1.41966e-20 -0.0119071)
(-1.19579e-18 3.09007e-19 -0.0119094)
(-1.20663e-18 3.70047e-19 -0.0119106)
(-1.65018e-18 4.96987e-19 -0.0119106)
(-1.39596e-18 4.27592e-19 -0.0119094)
(-1.81851e-18 6.47801e-19 -0.0119071)
(-9.49741e-19 5.48288e-19 -0.0119037)
(-1.02526e-18 5.36083e-19 -0.0118991)
(-1.26364e-18 1.45865e-18 -0.0118934)
(-7.18365e-19 5.39485e-19 -0.0118865)
(-3.78363e-19 8.49056e-19 -0.0118786)
(-3.03962e-19 8.86019e-19 -0.0118695)
(3.55363e-19 6.84032e-19 -0.0118594)
(1.09645e-19 6.02423e-20 -0.0118481)
(2.78017e-19 7.78527e-19 -0.0118359)
(1.43494e-19 1.89305e-19 -0.0118225)
(2.40971e-19 6.29991e-19 -0.0118082)
(4.6258e-19 -8.83474e-19 -0.0117929)
(1.7091e-19 1.49709e-19 -0.0117767)
(4.51692e-19 -2.69104e-19 -0.0117595)
(-7.51081e-19 -5.01995e-19 -0.0117414)
(-7.19181e-19 -3.23762e-19 -0.0117225)
(-6.16242e-19 -2.36833e-19 -0.0117027)
(-1.00064e-19 4.68261e-19 -0.0116822)
(-1.29595e-18 -1.64107e-19 -0.0116609)
(-1.08631e-19 1.37983e-18 -0.011639)
(-1.59925e-18 7.62954e-19 -0.0116165)
(-6.58489e-19 1.21465e-18 -0.0115934)
(-2.031e-18 4.13544e-19 -0.0115983)
(-1.09951e-18 5.53572e-19 -0.0116196)
(-9.33596e-19 1.35507e-18 -0.0116402)
(-1.21264e-18 6.7672e-19 -0.01166)
(3.13548e-21 6.86348e-19 -0.011679)
(-5.04529e-19 6.10227e-20 -0.0116971)
(-1.08797e-18 6.31865e-19 -0.0117144)
(-6.24536e-19 1.1761e-18 -0.0117307)
(-4.78176e-19 -2.54712e-19 -0.011746)
(-1.27932e-18 -1.70127e-20 -0.0117604)
(-1.43229e-18 -1.37806e-19 -0.0117737)
(-7.71244e-19 9.84972e-19 -0.0117861)
(-1.31825e-18 1.2268e-20 -0.0117973)
(-1.52675e-18 3.89346e-19 -0.0118075)
(-5.34182e-19 9.33048e-19 -0.0118166)
(-6.70565e-19 2.6003e-19 -0.0118246)
(-1.28414e-18 1.56146e-19 -0.0118314)
(-5.66821e-19 5.42792e-20 -0.0118372)
(-7.99934e-19 6.10806e-19 -0.0118418)
(-1.38437e-18 1.12084e-19 -0.0118452)
(-1.19914e-18 4.87063e-19 -0.0118475)
(-1.20448e-18 1.70707e-19 -0.0118487)
(-1.66549e-18 4.20581e-19 -0.0118487)
(-1.40535e-18 2.10911e-19 -0.0118475)
(-1.8166e-18 8.48784e-19 -0.0118452)
(-9.70617e-19 5.44448e-19 -0.0118418)
(-1.02582e-18 3.20065e-19 -0.0118372)
(-1.30898e-18 1.22784e-18 -0.0118314)
(-6.84994e-19 8.25225e-19 -0.0118246)
(-3.51639e-19 8.31846e-19 -0.0118166)
(-2.44482e-19 1.1105e-18 -0.0118075)
(3.15741e-19 6.67766e-19 -0.0117973)
(6.50064e-20 -1.45148e-19 -0.0117861)
(3.27765e-19 8.49104e-19 -0.0117737)
(1.62364e-19 2.35362e-19 -0.0117604)
(2.61175e-19 7.74081e-19 -0.011746)
(5.10452e-19 -7.86648e-19 -0.0117307)
(1.09253e-19 -6.84005e-20 -0.0117144)
(4.48544e-19 -2.35446e-19 -0.0116971)
(-6.94435e-19 -3.57311e-19 -0.011679)
(-7.00285e-19 -3.22206e-19 -0.01166)
(-5.74148e-19 -2.70544e-19 -0.0116402)
(-5.71204e-20 5.62685e-19 -0.0116196)
(-1.23653e-18 -1.36923e-19 -0.0115983)
(-1.34717e-19 1.31361e-18 -0.0115763)
(-1.83961e-18 5.47812e-19 -0.0115537)
(-5.04199e-19 1.3724e-18 -0.0115305)
(-1.02955e-18 -1.12426e-18 -0.0115128)
(-1.70386e-18 1.90964e-20 -0.0115349)
(-1.12027e-18 6.18615e-19 -0.0115562)
(-9.10961e-19 1.37808e-18 -0.0115769)
(-1.15851e-18 5.11238e-19 -0.0115968)
(-7.10867e-20 8.1868e-19 -0.0116159)
(-4.39036e-19 7.15625e-20 -0.0116341)
(-1.17949e-18 9.64369e-19 -0.0116514)
(-6.07468e-19 1.04559e-18 -0.0116677)
(-5.21269e-19 -2.16621e-19 -0.0116831)
(-1.30874e-18 9.05186e-20 -0.0116975)
(-1.41924e-18 -1.09245e-19 -0.0117109)
(-8.06303e-19 1.11135e-18 -0.0117233)
(-1.27877e-18 -2.38959e-19 -0.0117346)
(-1.49236e-18 4.08608e-19 -0.0117448)
(-4.83112e-19 7.30858e-19 -0.0117539)
(-6.63275e-19 1.33026e-19 -0.0117619)
(-1.32316e-18 3.30651e-19 -0.0117688)
(-5.80569e-19 3.1871e-19 -0.0117746)
(-7.66521e-19 4.28292e-19 -0.0117792)
(-1.37702e-18 2.57913e-21 -0.0117826)
(-1.20506e-18 5.31672e-19 -0.011785)
(-1.21395e-18 5.36085e-20 -0.0117861)
(-1.68811e-18 4.79683e-19 -0.0117861)
(-1.4036e-18 2.92442e-20 -0.011785)