/*--------------------------------*- C++ -*----------------------------------*\
  =========                 |
  \\      /  F ield         | OpenFOAM: The Open Source CFD Toolbox
   \\    /   O peration     | Website:  https://openfoam.org
    \\  /    A nd           | Version:  7
     \\/     M anipulation  |
\*---------------------------------------------------------------------------*/
FoamFile
{
    version     2.0;
    format      ascii;
    class       volScalarField;
    location    "236000";
    object      nu;
}
// * * * * * * * * * * * * * * * * * * * * * * * * * * * * * * * * * * * * * //

dimensions      [0 2 -1 0 0 0 0];

internalField   nonuniform List<scalar> 
4844
(
1.46246e-05
1.45367e-05
1.44419e-05
1.42768e-05
1.41929e-05
1.41025e-05
1.40058e-05
1.39034e-05
1.37958e-05
1.36834e-05
1.35667e-05
1.39443e-05
1.38642e-05
1.37778e-05
1.36854e-05
1.35876e-05
1.34846e-05
1.33771e-05
1.32653e-05
1.31499e-05
1.30311e-05
1.29096e-05
1.3626e-05
1.35495e-05
1.34668e-05
1.33784e-05
1.32847e-05
1.31861e-05
1.3083e-05
1.29759e-05
1.28652e-05
1.27513e-05
1.26346e-05
1.25155e-05
1.23945e-05
1.22718e-05
1.2148e-05
1.19586e-05
1.33209e-05
1.32476e-05
1.31684e-05
1.30837e-05
1.29939e-05
1.28994e-05
1.28005e-05
1.26977e-05
1.25914e-05
1.24819e-05
1.23698e-05
1.22553e-05
1.21388e-05
1.20208e-05
1.19016e-05
1.17212e-05
1.3028e-05
1.29578e-05
1.28818e-05
1.28006e-05
1.27144e-05
1.26236e-05
1.25287e-05
1.24299e-05
1.23277e-05
1.22224e-05
1.21145e-05
1.20043e-05
1.18921e-05
1.17784e-05
1.16635e-05
1.14915e-05
1.26791e-05
1.26062e-05
1.25282e-05
1.24454e-05
1.23581e-05
1.22668e-05
1.21718e-05
1.20735e-05
1.19721e-05
1.18682e-05
1.1762e-05
1.16539e-05
1.15442e-05
1.14334e-05
1.12692e-05
1.24109e-05
1.23408e-05
1.22658e-05
1.21862e-05
1.21022e-05
1.20143e-05
1.19228e-05
1.18281e-05
1.17304e-05
1.16302e-05
1.15278e-05
1.14235e-05
1.13177e-05
1.12106e-05
1.10538e-05
1.21524e-05
1.2085e-05
1.20128e-05
1.19361e-05
1.18553e-05
1.17706e-05
1.16824e-05
1.15911e-05
1.14969e-05
1.14002e-05
1.13013e-05
1.12006e-05
1.10984e-05
1.09949e-05
1.08449e-05
1.1963e-05
1.1903e-05
1.18381e-05
1.17685e-05
1.16946e-05
1.16167e-05
1.15351e-05
1.145e-05
1.13618e-05
1.12709e-05
1.11775e-05
1.1082e-05
1.09847e-05
1.08858e-05
1.07858e-05
1.06421e-05
1.172e-05
1.16621e-05
1.15996e-05
1.15325e-05
1.14612e-05
1.13861e-05
1.13072e-05
1.12251e-05
1.114e-05
1.10521e-05
1.09619e-05
1.08695e-05
1.07754e-05
1.06797e-05
1.05829e-05
1.04452e-05
1.14851e-05
1.14293e-05
1.1369e-05
1.13042e-05
1.12354e-05
1.11628e-05
1.10867e-05
1.10073e-05
1.0925e-05
1.08401e-05
1.07528e-05
1.06634e-05
1.05723e-05
1.04797e-05
1.03859e-05
1.02538e-05
1.12579e-05
1.1204e-05
1.11458e-05
1.10832e-05
1.10168e-05
1.09466e-05
1.0873e-05
1.07963e-05
1.07166e-05
1.06344e-05
1.05499e-05
1.04634e-05
1.03752e-05
1.02854e-05
1.01945e-05
1.00677e-05
1.10854e-05
1.10379e-05
1.09859e-05
1.09295e-05
1.08691e-05
1.08048e-05
1.0737e-05
1.06658e-05
1.05915e-05
1.05144e-05
1.04348e-05
1.0353e-05
1.02691e-05
1.01836e-05
1.00966e-05
1.00084e-05
9.88652e-06
1.08706e-05
1.08247e-05
1.07744e-05
1.07199e-05
1.06615e-05
1.05993e-05
1.05336e-05
1.04646e-05
1.03927e-05
1.0318e-05
1.02409e-05
1.01616e-05
1.00803e-05
9.99731e-06
9.91291e-06
9.82735e-06
9.7101e-06
1.07023e-05
1.06623e-05
1.06179e-05
1.05693e-05
1.05165e-05
1.04599e-05
1.03997e-05
1.03361e-05
1.02693e-05
1.01996e-05
1.01272e-05
1.00524e-05
9.97546e-06
9.89659e-06
9.81607e-06
9.73414e-06
9.65106e-06
9.53819e-06
1.04989e-05
1.04602e-05
1.04172e-05
1.03701e-05
1.0319e-05
1.02642e-05
1.02059e-05
1.01442e-05
1.00794e-05
1.00118e-05
9.94163e-06
9.86905e-06
9.79436e-06
9.7178e-06
9.63961e-06
9.56004e-06
9.47931e-06
9.37058e-06
1.03013e-05
1.02639e-05
1.02222e-05
1.01766e-05
1.01271e-05
1.0074e-05
1.00174e-05
9.95758e-06
9.89477e-06
9.82917e-06
9.76103e-06
9.69057e-06
9.61804e-06
9.54367e-06
9.4677e-06
9.39037e-06
9.3119e-06
9.20707e-06
1.01094e-05
1.00731e-05
1.00327e-05
9.98846e-06
9.94047e-06
9.88893e-06
9.83404e-06
9.776e-06
9.71503e-06
9.65134e-06
9.58516e-06
9.51672e-06
9.44625e-06
9.37397e-06
9.30013e-06
9.22493e-06
9.14862e-06
9.04748e-06
9.9227e-06
9.8875e-06
9.84835e-06
9.80541e-06
9.75885e-06
9.70883e-06
9.65555e-06
9.59919e-06
9.53998e-06
9.47811e-06
9.41381e-06
9.34729e-06
9.27878e-06
9.20851e-06
9.13668e-06
9.06353e-06
8.98928e-06
8.89164e-06
9.74103e-06
9.70688e-06
9.66889e-06
9.62721e-06
9.582e-06
9.53343e-06
9.48168e-06
9.42693e-06
9.36939e-06
9.30926e-06
9.24675e-06
9.18207e-06
9.11544e-06
9.04707e-06
8.97718e-06
8.90599e-06
8.8337e-06
8.73937e-06
9.56413e-06
9.53097e-06
9.49408e-06
9.45361e-06
9.40969e-06
9.3625e-06
9.31221e-06
9.259e-06
9.20306e-06
9.14459e-06
9.08379e-06
9.02086e-06
8.95602e-06
8.88948e-06
8.82144e-06
8.75213e-06
8.68173e-06
8.59054e-06
9.39176e-06
9.35955e-06
9.32372e-06
9.28438e-06
9.24171e-06
9.19584e-06
9.14694e-06
9.0952e-06
9.04079e-06
8.9839e-06
8.92473e-06
8.86349e-06
8.80037e-06
8.73557e-06
8.66931e-06
8.60179e-06
8.5332e-06
8.445e-06
9.22371e-06
9.19241e-06
9.15758e-06
9.11934e-06
9.07784e-06
9.03323e-06
8.98567e-06
8.93533e-06
8.88238e-06
8.82701e-06
8.76942e-06
8.70978e-06
8.6483e-06
8.58518e-06
8.52062e-06
8.45482e-06
8.38797e-06
8.3026e-06
9.05978e-06
9.02934e-06
8.99547e-06
8.95828e-06
8.91791e-06
8.87451e-06
8.82822e-06
8.77922e-06
8.72768e-06
8.67377e-06
8.61767e-06
8.55957e-06
8.49967e-06
8.43817e-06
8.37524e-06
8.31109e-06
8.24591e-06
8.16324e-06
8.89977e-06
8.87016e-06
8.83721e-06
8.80102e-06
8.76174e-06
8.71949e-06
8.67443e-06
8.62672e-06
8.57652e-06
8.524e-06
8.46934e-06
8.41273e-06
8.35434e-06
8.29438e-06
8.23302e-06
8.17046e-06
8.10689e-06
8.02679e-06
8.74352e-06
8.71471e-06
8.68263e-06
8.64741e-06
8.60916e-06
8.56802e-06
8.52413e-06
8.47765e-06
8.42874e-06
8.37756e-06
8.32429e-06
8.2691e-06
8.21217e-06
8.15369e-06
8.09384e-06
8.03281e-06
7.97078e-06
7.89313e-06
8.59086e-06
8.5628e-06
8.53157e-06
8.49727e-06
8.46001e-06
8.41994e-06
8.37718e-06
8.33189e-06
8.28422e-06
8.23432e-06
8.18238e-06
8.12855e-06
8.07303e-06
8.01598e-06
7.95758e-06
7.89803e-06
7.83748e-06
7.76217e-06
8.44163e-06
8.41431e-06
8.38389e-06
8.35047e-06
8.31417e-06
8.27511e-06
8.23344e-06
8.18929e-06
8.14281e-06
8.09415e-06
8.04348e-06
7.99098e-06
7.9368e-06
7.88112e-06
7.82413e-06
7.76599e-06
7.70688e-06
7.6338e-06
8.29569e-06
8.26907e-06
8.23943e-06
8.20686e-06
8.17148e-06
8.13341e-06
8.09278e-06
8.04972e-06
8.00439e-06
7.95692e-06
7.90749e-06
7.85625e-06
7.80336e-06
7.74902e-06
7.69337e-06
7.6366e-06
7.57888e-06
7.50793e-06
8.17581e-06
8.15291e-06
8.12697e-06
8.09807e-06
8.06632e-06
8.03183e-06
7.9947e-06
7.95507e-06
7.91307e-06
7.86884e-06
7.82252e-06
7.77427e-06
7.72425e-06
7.67263e-06
7.61956e-06
7.56521e-06
7.50976e-06
7.45338e-06
7.38447e-06
8.03548e-06
8.01316e-06
7.98786e-06
7.95969e-06
7.92873e-06
7.89508e-06
7.85887e-06
7.8202e-06
7.77922e-06
7.73605e-06
7.69084e-06
7.64374e-06
7.5949e-06
7.54448e-06
7.49264e-06
7.43956e-06
7.38539e-06
7.33029e-06
7.26334e-06
7.91688e-06
7.89808e-06
7.87631e-06
7.85165e-06
7.82417e-06
7.79396e-06
7.76114e-06
7.7258e-06
7.68807e-06
7.64807e-06
7.60593e-06
7.56179e-06
7.51579e-06
7.46809e-06
7.41883e-06
7.36819e-06
7.31632e-06
7.26338e-06
7.20953e-06
7.14446e-06
7.78184e-06
7.7635e-06
7.74227e-06
7.7182e-06
7.69139e-06
7.66192e-06
7.62989e-06
7.5954e-06
7.55856e-06
7.51951e-06
7.47836e-06
7.43525e-06
7.39032e-06
7.34372e-06
7.29559e-06
7.2461e-06
7.19541e-06
7.14366e-06
7.09103e-06
7.02775e-06
7.64952e-06
7.63163e-06
7.61091e-06
7.58743e-06
7.56126e-06
7.5325e-06
7.50123e-06
7.46756e-06
7.43159e-06
7.39345e-06
7.35326e-06
7.31115e-06
7.26725e-06
7.22171e-06
7.17468e-06
7.12631e-06
7.07675e-06
7.02616e-06
6.97469e-06
6.91315e-06
7.51983e-06
7.50237e-06
7.48215e-06
7.45923e-06
7.43369e-06
7.4056e-06
7.37507e-06
7.34219e-06
7.30706e-06
7.26981e-06
7.23055e-06
7.1894e-06
7.1465e-06
7.10199e-06
7.05601e-06
7.00872e-06
6.96026e-06
6.91079e-06
6.86046e-06
6.80058e-06
7.39267e-06
7.37563e-06
7.35588e-06
7.33351e-06
7.30856e-06
7.28114e-06
7.25132e-06
7.21921e-06
7.18489e-06
7.14849e-06
7.11013e-06
7.06991e-06
7.02798e-06
6.98447e-06
6.93952e-06
6.89327e-06
6.84588e-06
6.7975e-06
6.74827e-06
6.68998e-06
7.26795e-06
7.2513e-06
7.23203e-06
7.21017e-06
7.18581e-06
7.15903e-06
7.1299e-06
7.09852e-06
7.06499e-06
7.02943e-06
6.99193e-06
6.95262e-06
6.91162e-06
6.86908e-06
6.82512e-06
6.77988e-06
6.73353e-06
6.6862e-06
6.63805e-06
6.58129e-06
7.14557e-06
7.12932e-06
7.11049e-06
7.08915e-06
7.06535e-06
7.03918e-06
7.01072e-06
6.98006e-06
6.9473e-06
6.91253e-06
6.87587e-06
6.83744e-06
6.79736e-06
6.75575e-06
6.71275e-06
6.6685e-06
6.62315e-06
6.57685e-06
6.52973e-06
6.47446e-06
7.02547e-06
7.0096e-06
6.9912e-06
6.97035e-06
6.9471e-06
6.92153e-06
6.89372e-06
6.86375e-06
6.83172e-06
6.79773e-06
6.76189e-06
6.72431e-06
6.68511e-06
6.64441e-06
6.60235e-06
6.55906e-06
6.51468e-06
6.46937e-06
6.42327e-06
6.36942e-06
6.90757e-06
6.89206e-06
6.87408e-06
6.85371e-06
6.83099e-06
6.80599e-06
6.77881e-06
6.74952e-06
6.7182e-06
6.68497e-06
6.64992e-06
6.61317e-06
6.57482e-06
6.53501e-06
6.49385e-06
6.45149e-06
6.40806e-06
6.36372e-06
6.3186e-06
6.26613e-06
6.79178e-06
6.77663e-06
6.75906e-06
6.73915e-06
6.71694e-06
6.69251e-06
6.66593e-06
6.63729e-06
6.60668e-06
6.57418e-06
6.5399e-06
6.50395e-06
6.46644e-06
6.42748e-06
6.38721e-06
6.34575e-06
6.30324e-06
6.25983e-06
6.21567e-06
6.16454e-06
6.67805e-06
6.66324e-06
6.64607e-06
6.6266e-06
6.6049e-06
6.58101e-06
6.55503e-06
6.52702e-06
6.49708e-06
6.4653e-06
6.43176e-06
6.39659e-06
6.35989e-06
6.32177e-06
6.28235e-06
6.24177e-06
6.20016e-06
6.15767e-06
6.11444e-06
6.0646e-06
6.56631e-06
6.55183e-06
6.53505e-06
6.51602e-06
6.49479e-06
6.47144e-06
6.44603e-06
6.41864e-06
6.38935e-06
6.35826e-06
6.32546e-06
6.29104e-06
6.25513e-06
6.21782e-06
6.17924e-06
6.13952e-06
6.09878e-06
6.05718e-06
6.01485e-06
5.96627e-06
6.4565e-06
6.44234e-06
6.42593e-06
6.40732e-06
6.38657e-06
6.36373e-06
6.33888e-06
6.31209e-06
6.28344e-06
6.25302e-06
6.22093e-06
6.18725e-06
6.1521e-06
6.11559e-06
6.07782e-06
6.03893e-06
5.99904e-06
5.9583e-06
5.91687e-06
5.86949e-06
6.34856e-06
6.33471e-06
6.31866e-06
6.30046e-06
6.28017e-06
6.25783e-06
6.23352e-06
6.20731e-06
6.17929e-06
6.14953e-06
6.11812e-06
6.08516e-06
6.05076e-06
6.01502e-06
5.97804e-06
5.93996e-06
5.9009e-06
5.86101e-06
5.82044e-06
5.77424e-06
6.24242e-06
6.22888e-06
6.21319e-06
6.19539e-06
6.17554e-06
6.15369e-06
6.12991e-06
6.10427e-06
6.07685e-06
6.04772e-06
6.01699e-06
5.98473e-06
5.95106e-06
5.91607e-06
5.87987e-06
5.84258e-06
5.80433e-06
5.76526e-06
5.72553e-06
5.68047e-06
6.13805e-06
6.12481e-06
6.10946e-06
6.09205e-06
6.07263e-06
6.05125e-06
6.02799e-06
6.0029e-06
5.97607e-06
5.94757e-06
5.91749e-06
5.88592e-06
5.85295e-06
5.81869e-06
5.78325e-06
5.74673e-06
5.70927e-06
5.671e-06
5.63209e-06
5.58815e-06
6.03539e-06
6.02244e-06
6.00742e-06
5.99039e-06
5.97139e-06
5.95047e-06
5.92771e-06
5.90316e-06
5.87691e-06
5.84901e-06
5.81957e-06
5.78867e-06
5.75639e-06
5.72285e-06
5.68814e-06
5.65238e-06
5.61568e-06
5.5782e-06
5.5401e-06
5.49725e-06
5.93439e-06
5.92172e-06
5.90703e-06
5.89036e-06
5.87177e-06
5.85131e-06
5.82904e-06
5.80502e-06
5.77932e-06
5.75202e-06
5.7232e-06
5.69294e-06
5.66135e-06
5.6285e-06
5.59451e-06
5.55949e-06
5.52354e-06
5.48682e-06
5.4495e-06
5.40771e-06
5.835e-06
5.82261e-06
5.80823e-06
5.79193e-06
5.77374e-06
5.75372e-06
5.73192e-06
5.70841e-06
5.68326e-06
5.65654e-06
5.62833e-06
5.59871e-06
5.56777e-06
5.53561e-06
5.50233e-06
5.46802e-06
5.43281e-06
5.39683e-06
5.36028e-06
5.31953e-06
5.73719e-06
5.72506e-06
5.711e-06
5.69505e-06
5.67725e-06
5.65766e-06
5.63632e-06
5.61331e-06
5.5887e-06
5.56254e-06
5.53492e-06
5.50592e-06
5.47563e-06
5.44414e-06
5.41154e-06
5.37794e-06
5.34344e-06
5.30819e-06
5.27238e-06
5.23266e-06
5.64091e-06
5.62904e-06
5.61528e-06
5.59967e-06
5.58226e-06
5.56308e-06
5.5422e-06
5.51968e-06
5.49558e-06
5.46998e-06
5.44294e-06
5.41455e-06
5.38489e-06
5.35405e-06
5.32213e-06
5.28921e-06
5.25542e-06
5.22088e-06
5.1858e-06
5.14708e-06
5.54612e-06
5.53451e-06
5.52105e-06
5.50577e-06
5.48872e-06
5.46996e-06
5.44953e-06
5.42748e-06
5.40389e-06
5.37883e-06
5.35236e-06
5.32456e-06
5.29552e-06
5.26532e-06
5.23405e-06
5.20181e-06
5.1687e-06
5.13486e-06
5.10048e-06
5.06275e-06
5.45279e-06
5.44143e-06
5.42825e-06
5.4133e-06
5.39662e-06
5.37825e-06
5.35825e-06
5.33668e-06
5.31359e-06
5.28905e-06
5.26313e-06
5.23592e-06
5.20748e-06
5.1779e-06
5.14728e-06
5.1157e-06
5.08327e-06
5.0501e-06
5.0164e-06
4.97966e-06
5.3059e-06
5.28793e-06
5.26836e-06
5.24723e-06
5.22463e-06
5.20061e-06
5.17524e-06
5.14859e-06
5.12075e-06
5.09178e-06
5.06179e-06
5.03086e-06
4.99908e-06
4.96658e-06
4.93354e-06
4.89777e-06
5.13699e-06
5.11348e-06
5.08864e-06
5.06255e-06
5.03528e-06
5.00692e-06
4.97755e-06
4.94725e-06
4.91612e-06
4.88427e-06
4.85187e-06
4.81701e-06
1.10538e-05
1.12106e-05
1.08449e-05
1.09949e-05
1.06421e-05
1.07858e-05
1.04452e-05
1.05829e-05
1.06798e-05
1.02538e-05
1.03859e-05
1.04797e-05
1.00677e-05
1.01945e-05
1.02854e-05
1.03752e-05
9.88652e-06
1.00084e-05
1.00966e-05
1.01836e-05
9.7101e-06
9.82735e-06
9.91292e-06
9.99731e-06
9.53819e-06
9.65106e-06
9.73415e-06
9.81607e-06
9.8966e-06
9.37058e-06
9.47932e-06
9.56004e-06
9.63962e-06
9.71781e-06
9.20708e-06
9.31191e-06
9.39037e-06
9.46771e-06
9.54367e-06
9.04749e-06
9.14862e-06
9.22494e-06
9.30013e-06
9.37398e-06
8.89164e-06
8.98928e-06
9.06354e-06
9.13669e-06
9.20851e-06
8.73938e-06
8.83371e-06
8.90599e-06
8.97718e-06
9.04707e-06
8.59054e-06
8.68173e-06
8.75213e-06
8.82145e-06
8.88949e-06
8.95603e-06
8.445e-06
8.5332e-06
8.60179e-06
8.66932e-06
8.73558e-06
8.80037e-06
8.30261e-06
8.38798e-06
8.45483e-06
8.52063e-06
8.58519e-06
8.64831e-06
8.70978e-06
8.16324e-06
8.24592e-06
8.3111e-06
8.37524e-06
8.43817e-06
8.49968e-06
8.55958e-06
8.61767e-06
8.02679e-06
8.10689e-06
8.17047e-06
8.23303e-06
8.29438e-06
8.35435e-06
8.41273e-06
8.46935e-06
8.524e-06
7.89313e-06
7.97079e-06
8.03282e-06
8.09385e-06
8.15369e-06
8.21217e-06
8.2691e-06
8.32429e-06
8.37757e-06
8.42875e-06
7.76217e-06
7.83749e-06
7.89803e-06
7.95759e-06
8.01598e-06
8.07303e-06
8.12856e-06
8.18238e-06
8.23433e-06
8.28422e-06
7.6338e-06
7.70688e-06
7.76599e-06
7.82413e-06
7.88113e-06
7.9368e-06
7.99098e-06
8.04349e-06
8.09416e-06
8.14281e-06
7.50793e-06
7.57888e-06
7.6366e-06
7.69337e-06
7.74902e-06
7.80337e-06
7.85625e-06
7.90749e-06
7.95693e-06
8.00439e-06
7.38447e-06
7.45338e-06
7.50977e-06
7.56522e-06
7.61956e-06
7.67263e-06
7.72426e-06
7.77428e-06
7.82253e-06
7.86884e-06
7.26334e-06
7.33029e-06
7.38539e-06
7.43956e-06
7.49265e-06
7.54448e-06
7.5949e-06
7.64375e-06
7.69085e-06
7.73606e-06
7.14446e-06
7.20954e-06
7.26338e-06
7.31632e-06
7.36819e-06
7.41884e-06
7.46809e-06
7.51579e-06
7.56179e-06
7.60593e-06
7.02775e-06
7.09103e-06
7.14367e-06
7.19541e-06
7.24611e-06
7.2956e-06
7.34372e-06
7.39033e-06
7.43526e-06
7.47836e-06
6.91315e-06
6.9747e-06
7.02616e-06
7.07675e-06
7.12631e-06
7.17469e-06
7.22172e-06
7.26726e-06
7.31115e-06
7.35327e-06
6.80058e-06
6.86047e-06
6.9108e-06
6.96027e-06
7.00872e-06
7.05602e-06
7.10199e-06
7.1465e-06
7.1894e-06
7.23055e-06
6.68998e-06
6.74827e-06
6.7975e-06
6.84588e-06
6.89327e-06
6.93952e-06
6.98447e-06
7.02799e-06
7.06992e-06
7.11013e-06
6.58129e-06
6.63805e-06
6.6862e-06
6.73353e-06
6.77989e-06
6.82512e-06
6.86908e-06
6.91163e-06
6.95262e-06
6.99193e-06
6.47446e-06
6.52973e-06
6.57685e-06
6.62315e-06
6.66851e-06
6.71275e-06
6.75575e-06
6.79736e-06
6.83744e-06
6.87588e-06
1.10538e-05
1.08449e-05
1.06421e-05
1.04452e-05
1.02538e-05
1.00677e-05
9.88652e-06
9.7101e-06
9.53819e-06
9.37058e-06
9.20708e-06
9.04749e-06
8.89164e-06
8.73938e-06
8.59054e-06
8.445e-06
8.30261e-06
8.16324e-06
8.02679e-06
7.89313e-06
7.76217e-06
7.6338e-06
7.50793e-06
7.38447e-06
7.26334e-06
7.14446e-06
7.02775e-06
6.91315e-06
6.80058e-06
6.68998e-06
6.58129e-06
6.47446e-06
1.12106e-05
1.09949e-05
1.07858e-05
1.05829e-05
1.03859e-05
1.01945e-05
1.00084e-05
9.82735e-06
9.65106e-06
9.47932e-06
9.31191e-06
9.14862e-06
8.98928e-06
8.83371e-06
8.68173e-06
8.5332e-06
8.38798e-06
8.24592e-06
8.10689e-06
7.97079e-06
7.83748e-06
7.70688e-06
7.57888e-06
7.45338e-06
7.33029e-06
7.20954e-06
7.09103e-06
6.9747e-06
6.86047e-06
6.74827e-06
6.63805e-06
6.52973e-06
6.42327e-06
1.13177e-05
1.10984e-05
1.08859e-05
1.06798e-05
1.04797e-05
1.02854e-05
1.00966e-05
9.91292e-06
9.73415e-06
9.56004e-06
9.39037e-06
9.22494e-06
9.06354e-06
8.90599e-06
8.75213e-06
8.60179e-06
8.45483e-06
8.3111e-06
8.17047e-06
8.03282e-06
7.89803e-06
7.76599e-06
7.6366e-06
7.50977e-06
7.38539e-06
7.26338e-06
7.14367e-06
7.02616e-06
6.9108e-06
6.7975e-06
6.6862e-06
6.57685e-06
6.46937e-06
6.36372e-06
6.25984e-06
6.15767e-06
6.05718e-06
5.95831e-06
1.14235e-05
1.12006e-05
1.09847e-05
1.07754e-05
1.05723e-05
1.03752e-05
1.01836e-05
9.99731e-06
9.81607e-06
9.63961e-06
9.46771e-06
9.30013e-06
9.13668e-06
8.97718e-06
8.82145e-06
8.66931e-06
8.52063e-06
8.37524e-06
8.23303e-06
8.09385e-06
7.95759e-06
7.82413e-06
7.69337e-06
7.56522e-06
7.43956e-06
7.31632e-06
7.19541e-06
7.07675e-06
6.96026e-06
6.84588e-06
6.73353e-06
6.62315e-06
6.51468e-06
6.40807e-06
6.30324e-06
6.20017e-06
6.09878e-06
5.99904e-06
1.15278e-05
1.13013e-05
1.1082e-05
1.08695e-05
1.06634e-05
1.04634e-05
1.02691e-05
1.00803e-05
9.89659e-06
9.7178e-06
9.54367e-06
9.37398e-06
9.20851e-06
9.04707e-06
8.88948e-06
8.73557e-06
8.58519e-06
8.43817e-06
8.29438e-06
8.15369e-06
8.01598e-06
7.88112e-06
7.74902e-06
7.61956e-06
7.49265e-06
7.36819e-06
7.24611e-06
7.12631e-06
7.00872e-06
6.89327e-06
6.77989e-06
6.6685e-06
6.55906e-06
6.45149e-06
6.34575e-06
6.24177e-06
6.13952e-06
6.03893e-06
1.16302e-05
1.14002e-05
1.11775e-05
1.09619e-05
1.07528e-05
1.05499e-05
1.0353e-05
1.01616e-05
9.97546e-06
9.79437e-06
9.61804e-06
9.44625e-06
9.27879e-06
9.11544e-06
8.95603e-06
8.80037e-06
8.6483e-06
8.49968e-06
8.35435e-06
8.21217e-06
8.07303e-06
7.9368e-06
7.80337e-06
7.67263e-06
7.54448e-06
7.41884e-06
7.2956e-06
7.17468e-06
7.05602e-06
6.93952e-06
6.82512e-06
6.71275e-06
6.60235e-06
6.49386e-06
6.38721e-06
6.28236e-06
6.17924e-06
6.07782e-06
5.97805e-06
1.17304e-05
1.14969e-05
1.12709e-05
1.10521e-05
1.08401e-05
1.06344e-05
1.04348e-05
1.02409e-05
1.00524e-05
9.86906e-06
9.69057e-06
9.51673e-06
9.3473e-06
9.18207e-06
9.02087e-06
8.86349e-06
8.70978e-06
8.55958e-06
8.41273e-06
8.2691e-06
8.12856e-06
7.99098e-06
7.85625e-06
7.72426e-06
7.5949e-06
7.46809e-06
7.34372e-06
7.22172e-06
7.10199e-06
6.98447e-06
6.86908e-06
6.75575e-06
6.64441e-06
6.53501e-06
6.42748e-06
6.32177e-06
6.21782e-06
6.11559e-06
6.01502e-06
1.18281e-05
1.15911e-05
1.13618e-05
1.114e-05
1.0925e-05
1.07166e-05
1.05144e-05
1.03181e-05
1.01272e-05
9.94163e-06
9.76103e-06
9.58517e-06
9.41381e-06
9.24675e-06
9.08379e-06
8.92474e-06
8.76942e-06
8.61767e-06
8.46934e-06
8.32429e-06
8.18238e-06
8.04349e-06
7.90749e-06
7.77428e-06
7.64374e-06
7.51579e-06
7.39032e-06
7.26726e-06
7.1465e-06
7.02798e-06
6.91163e-06
6.79736e-06
6.68511e-06
6.57483e-06
6.46644e-06
6.35989e-06
6.25513e-06
6.1521e-06
6.05076e-06
1.19228e-05
1.16824e-05
1.145e-05
1.12251e-05
1.10073e-05
1.07963e-05
1.05915e-05
1.03927e-05
1.01996e-05
1.00118e-05
9.82917e-06
9.65134e-06
9.47812e-06
9.30927e-06
9.14459e-06
8.9839e-06
8.82702e-06
8.67377e-06
8.524e-06
8.37757e-06
8.23433e-06
8.09415e-06
7.95692e-06
7.82252e-06
7.69085e-06
7.56179e-06
7.43525e-06
7.31115e-06
7.1894e-06
7.06991e-06
6.95262e-06
6.83744e-06
6.72431e-06
6.61317e-06
6.50395e-06
6.39659e-06
6.29105e-06
6.18725e-06
6.08517e-06
1.20143e-05
1.17706e-05
1.15351e-05
1.13072e-05
1.10867e-05
1.0873e-05
1.06658e-05
1.04647e-05
1.02693e-05
1.00794e-05
9.89477e-06
9.71503e-06
9.53998e-06
9.3694e-06
9.20306e-06
9.04079e-06
8.88239e-06
8.72768e-06
8.57652e-06
8.42875e-06
8.28422e-06
8.14281e-06
8.00439e-06
7.86884e-06
7.73606e-06
7.60593e-06
7.47836e-06
7.35327e-06
7.23055e-06
7.11013e-06
6.99193e-06
6.87587e-06
6.7619e-06
6.64993e-06
6.5399e-06
6.43177e-06
6.32546e-06
6.22093e-06
6.11812e-06
1.21022e-05
1.18553e-05
1.16167e-05
1.13861e-05
1.11628e-05
1.09466e-05
1.0737e-05
1.05336e-05
1.03361e-05
1.01442e-05
9.95759e-06
9.776e-06
9.5992e-06
9.42694e-06
9.259e-06
9.0952e-06
8.93533e-06
8.77923e-06
8.62672e-06
8.47766e-06
8.33189e-06
8.18929e-06
8.04972e-06
7.91307e-06
7.77922e-06
7.64807e-06
7.51951e-06
7.39346e-06
7.26981e-06
7.1485e-06
7.02943e-06
6.91253e-06
6.79774e-06
6.68498e-06
6.57418e-06
6.4653e-06
6.35826e-06
6.25302e-06
6.14953e-06
1.19361e-05
1.16946e-05
1.14612e-05
1.12354e-05
1.10168e-05
1.08049e-05
1.05993e-05
1.03997e-05
1.02059e-05
1.00174e-05
9.83404e-06
9.65555e-06
9.48168e-06
9.31221e-06
9.14694e-06
8.98567e-06
8.82823e-06
8.67443e-06
8.52414e-06
8.37718e-06
8.23344e-06
8.09278e-06
7.95507e-06
7.82021e-06
7.68807e-06
7.55857e-06
7.4316e-06
7.30707e-06
7.18489e-06
7.065e-06
6.9473e-06
6.83172e-06
6.71821e-06
6.60668e-06
6.49708e-06
6.38936e-06
6.28344e-06
6.17929e-06
1.17685e-05
1.15325e-05
1.13042e-05
1.10833e-05
1.08691e-05
1.06615e-05
1.046e-05
1.02642e-05
1.0074e-05
9.88893e-06
9.70883e-06
9.53343e-06
9.3625e-06
9.19584e-06
9.03323e-06
8.87451e-06
8.71949e-06
8.56802e-06
8.41994e-06
8.27512e-06
8.13341e-06
7.9947e-06
7.85887e-06
7.7258e-06
7.5954e-06
7.46756e-06
7.34219e-06
7.21921e-06
7.09852e-06
6.98006e-06
6.86375e-06
6.74952e-06
6.6373e-06
6.52702e-06
6.41864e-06
6.31209e-06
6.20732e-06
1.18381e-05
1.15996e-05
1.1369e-05
1.11458e-05
1.09295e-05
1.07199e-05
1.05165e-05
1.0319e-05
1.01271e-05
9.94047e-06
9.75885e-06
9.582e-06
9.40969e-06
9.24171e-06
9.07784e-06
8.91791e-06
8.76174e-06
8.60916e-06
8.46002e-06
8.31417e-06
8.17148e-06
8.03183e-06
7.89508e-06
7.76114e-06
7.62989e-06
7.50123e-06
7.37507e-06
7.25133e-06
7.1299e-06
7.01073e-06
6.89372e-06
6.77881e-06
6.66594e-06
6.55503e-06
6.44603e-06
6.33888e-06
6.23352e-06
1.16621e-05
1.14293e-05
1.12041e-05
1.09859e-05
1.07744e-05
1.05693e-05
1.03701e-05
1.01766e-05
9.98846e-06
9.80542e-06
9.62721e-06
9.45361e-06
9.28439e-06
9.11934e-06
8.95828e-06
8.80103e-06
8.64741e-06
8.49727e-06
8.35047e-06
8.20686e-06
8.06632e-06
7.92873e-06
7.79397e-06
7.66192e-06
7.5325e-06
7.40561e-06
7.28114e-06
7.15903e-06
7.03919e-06
6.92153e-06
6.806e-06
6.69251e-06
6.58101e-06
6.47144e-06
6.36373e-06
6.25783e-06
1.172e-05
1.14851e-05
1.12579e-05
1.10379e-05
1.08247e-05
1.06179e-05
1.04172e-05
1.02223e-05
1.00327e-05
9.84836e-06
9.66889e-06
9.49409e-06
9.32372e-06
9.15758e-06
8.99547e-06
8.83721e-06
8.68263e-06
8.53157e-06
8.38389e-06
8.23943e-06
8.09807e-06
7.95969e-06
7.82417e-06
7.69139e-06
7.56127e-06
7.43369e-06
7.30857e-06
7.18582e-06
7.06535e-06
6.9471e-06
6.83099e-06
6.71694e-06
6.6049e-06
6.49479e-06
6.38657e-06
6.28017e-06
1.1536e-05
1.1307e-05
1.10854e-05
1.08706e-05
1.06623e-05
1.04602e-05
1.02639e-05
1.00731e-05
9.8875e-06
9.70688e-06
9.53097e-06
9.35956e-06
9.19241e-06
9.02934e-06
8.87017e-06
8.71471e-06
8.56281e-06
8.41431e-06
8.26907e-06
8.12697e-06
7.98787e-06
7.85165e-06
7.71821e-06
7.58743e-06
7.45923e-06
7.33351e-06
7.21018e-06
7.08915e-06
6.97035e-06
6.85371e-06
6.73915e-06
6.62661e-06
6.51602e-06
6.40732e-06
6.30047e-06
1.13513e-05
1.11281e-05
1.09119e-05
1.07023e-05
1.04989e-05
1.03013e-05
1.01094e-05
9.9227e-06
9.74103e-06
9.56413e-06
9.39176e-06
9.22371e-06
9.05978e-06
8.89977e-06
8.74352e-06
8.59086e-06
8.44163e-06
8.29569e-06
8.15291e-06
8.01316e-06
7.87632e-06
7.74227e-06
7.61092e-06
7.48215e-06
7.35589e-06
7.23203e-06
7.1105e-06
6.99121e-06
6.87409e-06
6.75907e-06
6.64608e-06
6.53505e-06
6.42594e-06
6.31867e-06
1.13905e-05
1.11659e-05
1.09484e-05
1.07376e-05
1.05331e-05
1.03345e-05
1.01415e-05
9.95381e-06
9.77122e-06
9.59344e-06
9.42022e-06
9.25137e-06
9.08666e-06
8.92592e-06
8.76897e-06
8.61563e-06
8.46575e-06
8.31919e-06
8.17581e-06
8.03548e-06
7.89809e-06
7.76351e-06
7.63164e-06
7.50238e-06
7.37563e-06
7.25131e-06
7.12932e-06
7.0096e-06
6.89206e-06
6.77663e-06
6.66324e-06
6.55184e-06
6.44234e-06
6.33471e-06
1.14244e-05
1.11987e-05
1.09801e-05
1.07682e-05
1.05626e-05
1.03631e-05
1.01692e-05
9.98072e-06
9.79732e-06
9.61877e-06
9.44483e-06
9.27527e-06
9.1099e-06
8.94852e-06
8.79095e-06
8.63703e-06
8.48659e-06
8.33949e-06
8.19559e-06
8.05476e-06
7.91689e-06
7.78184e-06
7.64953e-06
7.51984e-06
7.39267e-06
7.26795e-06
7.14558e-06
7.02548e-06
6.90757e-06
6.79179e-06
6.67806e-06
6.56632e-06
6.4565e-06
6.34856e-06
1.14529e-05
1.12262e-05
1.10066e-05
1.07939e-05
1.05875e-05
1.03872e-05
1.01925e-05
1.00033e-05
9.81923e-06
9.64003e-06
9.46547e-06
9.29533e-06
9.1294e-06
8.96748e-06
8.8094e-06
8.65498e-06
8.50407e-06
8.35651e-06
8.21218e-06
8.07093e-06
7.93265e-06
7.79722e-06
7.66453e-06
7.53447e-06
7.40696e-06
7.2819e-06
7.1592e-06
7.03878e-06
6.92057e-06
6.80449e-06
6.69047e-06
6.57845e-06
6.46837e-06
6.36016e-06
1.12483e-05
1.1028e-05
1.08146e-05
1.06075e-05
1.04065e-05
1.02113e-05
1.00215e-05
9.83687e-06
9.65715e-06
9.48209e-06
9.31147e-06
9.14509e-06
8.98273e-06
8.82423e-06
8.66942e-06
8.51813e-06
8.37021e-06
8.22552e-06
8.08393e-06
7.94533e-06
7.80958e-06
7.67659e-06
7.54624e-06
7.41845e-06
7.29311e-06
7.17015e-06
7.04948e-06
6.93102e-06
6.8147e-06
6.70045e-06
6.58821e-06
6.4779e-06
6.36948e-06
1.1265e-05
1.10442e-05
1.08301e-05
1.06226e-05
1.04211e-05
1.02254e-05
1.00352e-05
9.85016e-06
9.67004e-06
9.49461e-06
9.32363e-06
9.1569e-06
8.99422e-06
8.83541e-06
8.6803e-06
8.52871e-06
8.38052e-06
8.23557e-06
8.09373e-06
7.95487e-06
7.81889e-06
7.68567e-06
7.5551e-06
7.4271e-06
7.30156e-06
7.1784e-06
7.05753e-06
6.93889e-06
6.82239e-06
6.70796e-06
6.59555e-06
6.48508e-06
6.3765e-06
1.1055e-05
1.08406e-05
1.06327e-05
1.04309e-05
1.02349e-05
1.00444e-05
9.85905e-06
9.67867e-06
9.50298e-06
9.33177e-06
9.16481e-06
9.00191e-06
8.84289e-06
8.68757e-06
8.5358e-06
8.38741e-06
8.24228e-06
8.10027e-06
7.96126e-06
7.82511e-06
7.69174e-06
7.56103e-06
7.43288e-06
7.3072e-06
7.18391e-06
7.06291e-06
6.94414e-06
6.82752e-06
6.71298e-06
6.60046e-06
6.48988e-06
6.38119e-06
1.10604e-05
1.08458e-05
1.06377e-05
1.04358e-05
1.02396e-05
1.0049e-05
9.8635e-06
9.68299e-06
9.50718e-06
9.33584e-06
9.16877e-06
9.00576e-06
8.84663e-06
8.69121e-06
8.53934e-06
8.39087e-06
8.24565e-06
8.10355e-06
7.96445e-06
7.82823e-06
7.69478e-06
7.56399e-06
7.43577e-06
7.31003e-06
7.18667e-06
7.06561e-06
6.94678e-06
6.8301e-06
6.7155e-06
6.60291e-06
6.49228e-06
6.38354e-06
1.08458e-05
1.06377e-05
1.04358e-05
1.02396e-05
1.0049e-05
9.8635e-06
9.68299e-06
9.50718e-06
9.33584e-06
9.16877e-06
9.00576e-06
8.84663e-06
8.69121e-06
8.53934e-06
8.39087e-06
8.24565e-06
8.10355e-06
7.96445e-06
7.82823e-06
7.69478e-06
7.56399e-06
7.43577e-06
7.31003e-06
7.18667e-06
7.06561e-06
6.94678e-06
6.8301e-06
6.7155e-06
6.60291e-06
6.49228e-06
6.38354e-06
1.08406e-05
1.06327e-05
1.04309e-05
1.02349e-05
1.00444e-05
9.85905e-06
9.67867e-06
9.50298e-06
9.33177e-06
9.16481e-06
9.00191e-06
8.84289e-06
8.68757e-06
8.5358e-06
8.38741e-06
8.24228e-06
8.10027e-06
7.96126e-06
7.82511e-06
7.69174e-06
7.56103e-06
7.43288e-06
7.3072e-06
7.18391e-06
7.06291e-06
6.94414e-06
6.82752e-06
6.71298e-06
6.60046e-06
6.48988e-06
6.38119e-06
1.08301e-05
1.06226e-05
1.04211e-05
1.02254e-05
1.00352e-05
9.85016e-06
9.67004e-06
9.49461e-06
9.32363e-06
9.1569e-06
8.99422e-06
8.83541e-06
8.6803e-06
8.52872e-06
8.38052e-06
8.23557e-06
8.09373e-06
7.95487e-06
7.81889e-06
7.68567e-06
7.5551e-06
7.4271e-06
7.30156e-06
7.1784e-06
7.05753e-06
6.93889e-06
6.82239e-06
6.70796e-06
6.59555e-06
6.48508e-06
6.3765e-06
1.08146e-05
1.06075e-05
1.04065e-05
1.02113e-05
1.00215e-05
9.83687e-06
9.65715e-06
9.48209e-06
9.31147e-06
9.14509e-06
8.98273e-06
8.82424e-06
8.66942e-06
8.51813e-06
8.37021e-06
8.22552e-06
8.08394e-06
7.94533e-06
7.80958e-06
7.67659e-06
7.54624e-06
7.41845e-06
7.29311e-06
7.17015e-06
7.04948e-06
6.93102e-06
6.8147e-06
6.70045e-06
6.58821e-06
6.4779e-06
6.36948e-06
1.07939e-05
1.05875e-05
1.03872e-05
1.01925e-05
1.00033e-05
9.81923e-06
9.64003e-06
9.46548e-06
9.29533e-06
9.1294e-06
8.96748e-06
8.8094e-06
8.65498e-06
8.50407e-06
8.35651e-06
8.21218e-06
8.07093e-06
7.93265e-06
7.79722e-06
7.66453e-06
7.53447e-06
7.40696e-06
7.2819e-06
7.1592e-06
7.03878e-06
6.92057e-06
6.80449e-06
6.69047e-06
6.57845e-06
6.46837e-06
6.36016e-06
1.07682e-05
1.05626e-05
1.03631e-05
1.01692e-05
9.98072e-06
9.79732e-06
9.61877e-06
9.44483e-06
9.27527e-06
9.1099e-06
8.94852e-06
8.79095e-06
8.63703e-06
8.48659e-06
8.33949e-06
8.19559e-06
8.05476e-06
7.91689e-06
7.78184e-06
7.64953e-06
7.51984e-06
7.39267e-06
7.26795e-06
7.14558e-06
7.02548e-06
6.90757e-06
6.79179e-06
6.67806e-06
6.56632e-06
6.4565e-06
6.34856e-06
1.07376e-05
1.05331e-05
1.03345e-05
1.01415e-05
9.95382e-06
9.77122e-06
9.59344e-06
9.42023e-06
9.25137e-06
9.08667e-06
8.92592e-06
8.76897e-06
8.61563e-06
8.46575e-06
8.31919e-06
8.17581e-06
8.03548e-06
7.89809e-06
7.76351e-06
7.63164e-06
7.50238e-06
7.37563e-06
7.25131e-06
7.12932e-06
7.0096e-06
6.89206e-06
6.77663e-06
6.66324e-06
6.55183e-06
6.44234e-06
6.33471e-06
1.07023e-05
1.04989e-05
1.03013e-05
1.01094e-05
9.9227e-06
9.74104e-06
9.56414e-06
9.39177e-06
9.22372e-06
9.05978e-06
8.89978e-06
8.74352e-06
8.59086e-06
8.44163e-06
8.29569e-06
8.15291e-06
8.01316e-06
7.87632e-06
7.74227e-06
7.61092e-06
7.48215e-06
7.35589e-06
7.23203e-06
7.11049e-06
6.99121e-06
6.87409e-06
6.75906e-06
6.64607e-06
6.53505e-06
6.42593e-06
6.31867e-06
1.06623e-05
1.04602e-05
1.02639e-05
1.00731e-05
9.8875e-06
9.70688e-06
9.53098e-06
9.35956e-06
9.19241e-06
9.02935e-06
8.87017e-06
8.71471e-06
8.56281e-06
8.41431e-06
8.26908e-06
8.12697e-06
7.98787e-06
7.85165e-06
7.71821e-06
7.58743e-06
7.45923e-06
7.33351e-06
7.21018e-06
7.08915e-06
6.97035e-06
6.85371e-06
6.73915e-06
6.62661e-06
6.51602e-06
6.40732e-06
6.30047e-06
1.06179e-05
1.04172e-05
1.02223e-05
1.00327e-05
9.84836e-06
9.66889e-06
9.49409e-06
9.32372e-06
9.15758e-06
8.99547e-06
8.83721e-06
8.68263e-06
8.53158e-06
8.38389e-06
8.23943e-06
8.09807e-06
7.95969e-06
7.82417e-06
7.69139e-06
7.56127e-06
7.43369e-06
7.30857e-06
7.18582e-06
7.06535e-06
6.9471e-06
6.83099e-06
6.71694e-06
6.6049e-06
6.49479e-06
6.38657e-06
6.28017e-06
1.05693e-05
1.03701e-05
1.01766e-05
9.98846e-06
9.80542e-06
9.62722e-06
9.45361e-06
9.28439e-06
9.11934e-06
8.95828e-06
8.80103e-06
8.64741e-06
8.49727e-06
8.35047e-06
8.20686e-06
8.06632e-06
7.92873e-06
7.79397e-06
7.66192e-06
7.5325e-06
7.40561e-06
7.28114e-06
7.15903e-06
7.03919e-06
6.92153e-06
6.806e-06