/*--------------------------------*- C++ -*----------------------------------*\
  =========                 |
  \\      /  F ield         | OpenFOAM: The Open Source CFD Toolbox
   \\    /   O peration     | Website:  https://openfoam.org
    \\  /    A nd           | Version:  7
     \\/     M anipulation  |
\*---------------------------------------------------------------------------*/
FoamFile
{
    version     2.0;
    format      ascii;
    class       surfaceScalarField;
    location    "52000";
    object      phi;
}
// * * * * * * * * * * * * * * * * * * * * * * * * * * * * * * * * * * * * * //

dimensions      [0 3 -1 0 0 0 0];

internalField   nonuniform List<scalar> 
9492
(
3.90984e-22
1.95059e-21
1.95621e-22
3.53032e-22
1.75487e-22
1.58283e-22
1.60407e-21
1.64346e-22
2.88692e-22
9.3759e-23
2.57366e-22
8.10264e-23
1.92892e-22
4.40505e-23
1.26249e-22
5.84138e-23
1.10457e-22
5.34872e-23
1.21928e-22
7.93546e-23
8.31148e-23
1.385e-21
1.10182e-22
1.60014e-22
7.32786e-23
3.00957e-22
7.06683e-23
2.11103e-22
4.33663e-23
1.66147e-22
6.13567e-23
1.16718e-22
4.87577e-23
1.12388e-22
3.68067e-23
9.32052e-23
2.35254e-23
1.18655e-22
3.96607e-23
1.36277e-22
2.78618e-23
7.45274e-23
1.14554e-21
8.83605e-23
2.25319e-22
5.5434e-23
2.61606e-22
6.54473e-23
2.17363e-22
4.11297e-23
1.18751e-22
6.1578e-23
1.07879e-22
5.04055e-23
1.22173e-22
3.78232e-23
3.84882e-23
2.75715e-23
9.46004e-23
3.18175e-23
1.02298e-22
2.6547e-23
8.03266e-23
3.48198e-23
6.75977e-23
3.43227e-23
2.66379e-23
4.76927e-23
2.41822e-23
1.32307e-23
1.48468e-23
1.90522e-23
1.4055e-23
6.85292e-23
9.61859e-22
6.59161e-23
2.32788e-22
5.53611e-23
2.79626e-22
4.89086e-23
2.15838e-22
3.75045e-23
1.43321e-22
6.17368e-23
1.33676e-22
3.99703e-23
7.41925e-23
4.61563e-23
4.34461e-23
3.11555e-23
1.1235e-22
2.87404e-23
6.67644e-23
2.84134e-23
5.66693e-23
3.09779e-23
7.99623e-23
3.28959e-23
2.23268e-24
4.73681e-23
3.31815e-23
2.20264e-23
-2.98695e-23
-4.15817e-23
9.52039e-24
5.8438e-23
5.20738e-23
3.27772e-22
4.93566e-23
3.24179e-22
3.68547e-23
2.10486e-22
3.99458e-23
1.82232e-22
5.66948e-23
1.58447e-22
3.4312e-23
1.01876e-22
5.52969e-23
9.72433e-23
2.58973e-23
6.88575e-23
2.98062e-23
3.23088e-23
3.34972e-23
5.03187e-23
2.6574e-23
1.38673e-23
3.8235e-23
2.42281e-23
4.19922e-23
3.69716e-23
2.44596e-23
-8.66604e-23
5.44415e-24
2.39323e-23
4.01782e-23
3.52656e-22
3.9093e-23
3.39749e-22
3.52606e-23
2.12763e-22
3.56219e-23
2.23864e-22
4.95444e-23
1.81695e-22
3.54579e-23
1.20551e-22
5.50423e-23
9.50945e-23
1.84988e-23
3.01673e-23
3.26903e-23
6.48399e-23
3.06884e-23
5.60785e-23
3.06528e-23
2.14633e-23
4.36039e-23
5.20151e-23
3.34837e-23
-4.13379e-24
3.40229e-23
-6.97189e-23
-4.62965e-23
2.43691e-23
2.91471e-23
2.91876e-22
2.87863e-23
2.80325e-22
3.684e-23
2.14416e-22
3.1316e-23
2.21311e-22
4.8359e-23
1.81816e-22
3.45567e-23
1.43088e-22
5.00494e-23
1.55703e-22
2.5396e-23
6.08842e-23
3.26081e-23
7.07139e-23
2.68876e-23
3.36699e-23
4.178e-23
3.2395e-23
3.63211e-23
-9.4706e-24
2.88993e-23
-6.60478e-23
3.85314e-23
-5.98261e-23
-2.25608e-23
2.90162e-23
2.12347e-23
2.92834e-22
2.55191e-23
2.82449e-22
3.75354e-23
2.40248e-22
2.90234e-23
2.4217e-22
4.71255e-23
1.78906e-22
3.34131e-23
1.68559e-22
3.97645e-23
1.57692e-22
2.76441e-23
9.64509e-23
2.99839e-23
7.48973e-23
2.90865e-23
3.43445e-23
3.97784e-23
1.93477e-23
3.48726e-23
-1.12593e-23
3.06633e-23
-7.39322e-23
4.99228e-23
-7.24028e-23
-6.57542e-23
2.99557e-23
1.04332e-23
5.30942e-22
1.58648e-23
2.86911e-22
2.37121e-23
3.06864e-22
3.85563e-23
2.62404e-22
2.43821e-23
2.44214e-22
4.83514e-23
1.99737e-22
3.27698e-23
1.79604e-22
3.52533e-23
1.65191e-22
2.62262e-23
7.43086e-23
2.73293e-23
7.4507e-23
3.2424e-23
5.38089e-23
3.22433e-23
1.86866e-23
3.37182e-23
-2.22849e-23
3.17875e-23
-7.1875e-23
4.86911e-23
-3.3683e-23
-1.15473e-22
4.0813e-23
6.49646e-25
4.58266e-22
1.24817e-23
2.97661e-22
2.14574e-23
2.92511e-22
3.841e-23
2.78413e-22
2.28445e-23
1.8293e-22
4.82931e-23
1.87463e-22
3.64115e-23
1.74862e-22
3.05479e-23
1.08294e-22
2.69646e-23
5.35175e-23
2.58666e-23
7.96749e-23
3.0426e-23
4.74054e-23
2.78353e-23
4.17097e-24
2.92665e-23
2.15561e-23
3.43626e-23
-2.45214e-23
4.48125e-23
-1.91805e-23
-6.57198e-23
5.41605e-23
2.00178e-25
4.08601e-22
9.82461e-24
2.81015e-22
2.25641e-23
3.10224e-22
3.07658e-23
2.46818e-22
2.60788e-23
1.86842e-22
4.95093e-23
1.71598e-22
2.91914e-23
1.76667e-22
2.88173e-23
1.1289e-22
2.96939e-23
5.64957e-23
2.95886e-23
8.06257e-23
2.72601e-23
4.90853e-23
3.27728e-23
6.594e-24
2.9957e-23
-3.76781e-23
3.32007e-23
-3.31254e-23
4.21924e-23
-3.57863e-23
-2.91578e-23
5.72851e-23
-3.11625e-24
3.66665e-22
7.97497e-24
2.60776e-22
1.94119e-23
2.88297e-22
2.82397e-23
2.4359e-22
2.58949e-23
1.8526e-22
5.31879e-23
2.23522e-22
2.84021e-23
8.12904e-23
2.83131e-23
1.16641e-22
3.10619e-23
9.35862e-23
3.13889e-23
7.96293e-23
2.43839e-23
5.94198e-23
2.6734e-23
2.62844e-23
3.41271e-23
5.7577e-24
3.1602e-23
1.6576e-23
4.8557e-23
-1.31144e-23
1.03402e-23
5.15301e-23
-2.79851e-23
2.41269e-22
-4.18472e-24
3.37266e-22
8.54275e-24
2.47905e-22
1.81542e-23
3.38463e-22
2.54867e-23
2.61672e-22
3.0863e-23
1.77533e-22
4.65315e-23
2.00777e-22
3.17464e-23
9.98718e-23
2.86098e-23
9.66865e-23
3.38975e-23
6.23371e-23
2.94208e-23
8.0152e-24
2.62684e-23
8.7956e-23
2.3127e-23
3.266e-23
3.61243e-23
1.87698e-23
3.22016e-23
3.77866e-23
5.30021e-23
-3.31295e-24
-5.56035e-23
4.6412e-23
-2.52345e-23
2.16425e-22
-4.76505e-24
3.063e-22
1.51558e-23
2.67767e-22
1.50636e-23
3.3587e-22
2.32534e-23
2.17366e-22
3.34102e-23
1.64547e-22
4.01804e-23
2.22175e-22
3.33985e-23
8.06846e-23
2.82805e-23
1.05843e-22
3.48669e-23
8.44184e-23
3.51204e-23
-1.54521e-23
2.73958e-23
2.21577e-23
2.24435e-23
-3.6621e-23
3.91647e-23
2.21381e-23
3.22379e-23
-2.21364e-23
4.97527e-23
1.75702e-25
-4.78112e-23
4.98847e-23
-4.81903e-23
2.17935e-22
-2.17536e-23
2.60693e-22
-5.58848e-24
2.82989e-22
2.05281e-23
2.38989e-22
6.07981e-24
2.84023e-22
2.03357e-23
2.01887e-22
3.99155e-23
1.71693e-22
3.38411e-23
1.5384e-22
3.70856e-23
5.13593e-23
2.66869e-23
9.29356e-23
3.12358e-23
8.4975e-23
3.81694e-23
-1.12664e-23
2.77427e-23
-3.75734e-23
2.82447e-23
-4.50094e-23
3.94009e-23
4.52244e-23
3.77034e-23
-9.41261e-24
4.55425e-23
-4.36726e-24
-4.20517e-23
5.2211e-23
-4.32944e-23
3.01414e-22
-2.30015e-23
2.45636e-22
-5.14874e-24
2.62663e-22
2.304e-23
2.7917e-22
3.35208e-24
2.57301e-22
1.81721e-23
2.30679e-22
3.85182e-23
1.938e-22
2.94386e-23
1.70984e-22
4.02897e-23
1.14968e-22
2.61279e-23
1.14229e-22
2.84302e-23
9.05179e-23
3.48285e-23
-2.69895e-23
3.21755e-23
-2.9758e-23
3.53293e-23
-6.80806e-23
3.79024e-23
1.19017e-23
4.00548e-23
-8.14861e-24
4.50054e-23
-9.39493e-24
-2.19192e-23
5.66643e-23
-4.49862e-23
1.86542e-22
-2.3775e-23
2.28773e-22
-4.17695e-24
3.13895e-22
2.14698e-23
3.24585e-22
3.16968e-24
2.0489e-22
1.8979e-23
2.19114e-22
3.67134e-23
1.80532e-22
2.99807e-23
1.56327e-22
4.09841e-23
1.04665e-22
2.94119e-23
5.65134e-23
2.56133e-23
1.82558e-23
3.78554e-23
-9.33862e-25
3.02527e-23
-1.77327e-23
4.1209e-23
3.83774e-23
3.95638e-23
2.37708e-23
4.38129e-23
-1.77743e-23
4.51454e-23
5.24741e-24
-3.98878e-24
5.62525e-23
-4.21939e-23
1.87769e-22
-1.90551e-23
2.74552e-22
-1.37707e-24
2.88943e-22
1.24599e-23
2.98826e-22
5.64045e-24
2.38204e-22
2.01327e-23
2.12764e-22
3.64052e-23
1.72097e-22
3.13472e-23
1.65838e-22
3.82722e-23
6.63676e-23
2.77056e-23
-4.5856e-24
2.52047e-23
2.78269e-23
4.06665e-23
2.1488e-23
3.26507e-23
-9.24611e-24
3.93597e-23
2.60252e-23
3.94096e-23
3.72506e-23
4.98374e-23
4.39949e-23
4.60385e-23
-1.659e-23
-4.9397e-23
5.20795e-23
-3.3881e-23
1.83101e-22
-1.95239e-23
2.88192e-22
4.2209e-25
2.56463e-22
9.00011e-24
2.09034e-22
5.25673e-24
1.92897e-22
1.71384e-23
1.79059e-22
3.73209e-23
1.64073e-22
2.96057e-23
9.8574e-23
3.58147e-23
6.52361e-23
3.12652e-23
8.31272e-24
3.04867e-23
3.58412e-23
4.27193e-23
4.2502e-23
3.75663e-23
8.89509e-25
3.89297e-23
2.84818e-23
4.0785e-23
4.70928e-23
4.73047e-23
4.1552e-23
4.6785e-23
-4.87953e-23
-5.52396e-23
5.0058e-23
-2.58014e-23
1.73387e-22
-2.20632e-23
2.15273e-22
-2.60352e-24
2.35738e-22
8.55943e-24
2.19516e-22
5.05552e-24
2.27051e-22
1.74225e-23
1.634e-22
3.29342e-23
1.60898e-22
3.0298e-23
1.07106e-22
3.6395e-23
7.61747e-23
3.45558e-23
1.34419e-23
3.30697e-23
1.64529e-23
4.2609e-23
4.63708e-23
3.94431e-23
-2.36349e-23
3.88794e-23
4.30084e-23
4.37567e-23
4.92669e-23
4.4848e-23
2.14595e-23
5.01525e-23
-3.08972e-23
-4.93479e-23
4.95508e-23
-2.382e-23
1.92837e-22
-2.13071e-23
2.21388e-22
-5.33825e-24
2.45006e-22
7.76074e-24
2.85857e-22
3.18419e-24
2.13317e-22
2.03625e-23
2.16634e-22
3.15162e-23
2.23269e-22
3.25471e-23
1.08946e-22
3.41245e-23
5.33441e-23
3.65647e-23
4.59775e-23
3.57632e-23
1.86549e-23
4.52326e-23
5.39306e-23
4.09062e-23
-2.64835e-25
4.05247e-23
4.55466e-23
4.25326e-23
2.38228e-23
4.46093e-23
5.19462e-23
5.33713e-23
-7.57167e-24
-3.46082e-23
5.01094e-23
-2.45772e-23
1.66936e-22
-1.956e-23
2.25059e-22
-3.88727e-24
2.30306e-22
1.414e-24
2.53559e-22
3.41639e-24
2.20894e-22
2.0535e-23
1.98314e-22
2.85091e-23
2.22298e-22
3.3441e-23
1.00913e-22
3.55326e-23
9.22451e-23
3.82337e-23
5.18451e-23
3.7281e-23
2.82727e-26
4.57029e-23
6.3645e-23
4.18128e-23
-3.50793e-23
4.07489e-23
4.06951e-23
4.32598e-23
-8.85625e-24
4.10905e-23
5.6868e-23
5.74069e-23
4.96524e-23
-3.10239e-23
4.76312e-23
-2.26876e-23
1.58347e-22
-1.96038e-23
2.23888e-22
-1.49671e-24
2.22298e-22
-2.05376e-24
1.77602e-22
4.84953e-24
1.88628e-22
2.24301e-23
1.91761e-22
2.17438e-23
1.52974e-22
3.77817e-23
1.60447e-22
3.66859e-23
1.07495e-22
3.60465e-23
6.8409e-23
3.74457e-23
2.9157e-23
4.60921e-23
6.27525e-23
4.23333e-23
-3.88387e-23
4.17887e-23
4.71115e-23
4.39331e-23
-1.09302e-24
3.7487e-23
3.40367e-23
5.3593e-23
4.59458e-23
-1.26358e-23
4.612e-23
-2.09742e-23
1.16681e-22
-1.97271e-23
1.79029e-22
-4.83375e-24
2.10556e-22
-1.96416e-24
1.76622e-22
4.56445e-24
1.92081e-22
2.00775e-23
1.53194e-22
2.33061e-23
1.5105e-22
3.65345e-23
1.5479e-22
3.63033e-23
1.19107e-22
3.52253e-23
5.21698e-23
3.12714e-23
2.67079e-23
4.26285e-23
8.64237e-23
4.32276e-23
1.35684e-23
4.41609e-23
8.62439e-23
4.40723e-23
4.72533e-23
4.20399e-23
4.51567e-23
4.34575e-23
1.18716e-24
-3.1515e-24
4.60263e-23
-1.89428e-23
1.86746e-22
-1.88604e-23
1.80122e-22
-7.14088e-24
1.90627e-22
-9.86728e-25
1.78011e-22
4.50965e-24
1.68493e-22
2.0466e-23
1.35807e-22
2.45583e-23
1.83921e-22
3.60833e-23
1.61913e-22
3.3357e-23
1.27649e-22
3.16857e-23
9.16513e-23
1.50765e-23
2.04977e-23
3.67835e-23
1.609e-22
4.38645e-23
9.87463e-23
4.42807e-23
1.11291e-22
4.23052e-23
6.41588e-23
4.26008e-23
4.13051e-23
3.7387e-23
-4.72315e-23
-7.64951e-24
4.18928e-23
-2.03301e-23
2.16488e-22
-1.90325e-23
1.83101e-22
-5.35187e-24
1.74869e-22
3.30138e-24
1.57534e-22
1.87422e-24
1.09122e-22
2.24867e-23
7.8543e-23
2.34736e-23
1.71413e-22
3.43765e-23
9.17194e-23
2.90826e-23
5.95254e-23
2.01738e-23
2.85938e-23
1.23251e-23
5.34246e-23
3.81649e-23
1.55517e-22
4.83038e-23
8.93285e-23
4.16979e-23
4.37597e-23
3.89067e-23
5.40094e-23
3.76662e-23
-1.59193e-23
3.53133e-23
5.70337e-24
-3.98897e-24
3.78645e-23
-2.10127e-23
1.39865e-22
-2.03989e-23
1.15279e-22
-7.43448e-25
1.97228e-22
5.71757e-24
1.46232e-22
2.08036e-24
1.16763e-22
3.14717e-23
1.23516e-22
1.86876e-23
1.62965e-22
2.98618e-23
9.95906e-23
2.57878e-23
6.82211e-24
1.66518e-23
6.00946e-23
1.15003e-23
7.6246e-23
3.84453e-23
1.43067e-22
4.97114e-23
6.36828e-23
4.16004e-23
-2.30654e-23
3.47723e-23
-8.49902e-24
3.79468e-23
-3.52048e-23
3.02988e-23
2.61119e-23
1.24467e-24
3.39176e-23
-2.11397e-23
1.43796e-22
-1.85326e-23
1.70367e-22
1.22079e-24
1.6717e-22
6.47713e-24
1.48978e-22
5.13605e-24
9.54903e-23
2.55386e-23
6.92322e-23
1.41172e-23
1.37215e-22
2.42844e-23
9.96602e-23
2.67989e-23
9.86502e-23
1.04378e-23
-4.91071e-23
7.83891e-24
8.74347e-23
3.80717e-23
1.25021e-22
4.71513e-23
1.2731e-22
4.01657e-23
-3.38369e-24
3.1874e-23
-7.6399e-24
3.88866e-23
8.74824e-24
2.40422e-23
4.5859e-23
1.20716e-23
3.00753e-23
-2.68971e-23
1.0229e-22
-2.32473e-23
1.75028e-22
-6.31609e-24
1.73224e-22
-9.24177e-25
1.57031e-22
4.16754e-24
1.65219e-22
2.20141e-23
3.0305e-23
1.04686e-23
8.77047e-23
1.58638e-23
2.0435e-23
2.11033e-23
1.08391e-22
1.13167e-23
-3.12083e-23
2.56527e-24
1.09859e-22
3.75963e-23
2.22965e-22
4.39015e-23
1.38707e-22
3.91025e-23
1.39338e-23
3.01765e-23
3.23564e-23
4.04174e-23
-3.24865e-23
2.06034e-23
-5.23153e-23
2.58171e-23
2.74864e-23
-3.59861e-23
1.71506e-22
-3.01087e-23
1.25819e-22
-2.67973e-23
1.08638e-22
-1.31611e-23
1.42733e-22
-5.05865e-24
9.9062e-23
-1.92937e-24
1.5211e-22
1.87395e-23
7.73806e-23
7.55411e-24
6.43804e-23
1.24188e-23
1.72854e-23
1.50797e-23
1.1272e-22
1.17584e-23
1.96585e-23
2.10821e-24
1.21219e-22
3.55565e-23
1.93615e-22
3.81788e-23
1.3492e-22
3.75206e-23
-2.53012e-24
2.85278e-23
3.69918e-23
3.72204e-23
-2.86798e-24
2.13904e-23
-5.35795e-23
2.15747e-23
2.41435e-23
-3.92475e-23
1.5062e-22
-3.43306e-23
1.06793e-22
-2.71695e-23
1.22923e-22
-1.85867e-23
7.82977e-23
-6.00605e-24
9.86146e-23
-4.79831e-24
1.05893e-22
1.22484e-23
4.82481e-23
6.30399e-24
8.21536e-23
1.08248e-23
2.01572e-23
1.36217e-23
1.08973e-22
1.00032e-23
2.64929e-23
4.35281e-25
1.20765e-22
3.12072e-23
1.6695e-22
3.54518e-23
1.24967e-22
3.6324e-23
-1.40311e-23
2.70608e-23
2.4945e-23
3.31843e-23
-1.55718e-23
2.41093e-23
-2.86445e-23
2.89329e-23
2.44332e-23
-5.40847e-23
1.61879e-22
-3.99929e-23
1.40472e-22
-3.50427e-23
1.11212e-22
-2.8623e-23
1.02563e-22
-1.88952e-23
8.18322e-23
-6.41274e-24
9.48785e-23
-4.64741e-24
9.7468e-23
1.00587e-23
3.24723e-23
4.71694e-24
8.76453e-23
9.63185e-24
2.07966e-23
1.28479e-23
1.30237e-22
1.04257e-23
2.44572e-23
-9.13966e-26
5.42365e-23
3.22148e-23
1.73233e-22
3.22635e-23
1.19626e-22
3.64135e-23
6.10718e-23
2.66606e-23
3.59959e-23
3.10619e-23
-2.27159e-23
2.40432e-23
-8.79619e-24
4.88745e-23
2.40005e-23
-5.3034e-23
1.57378e-22
-3.73428e-23
1.5498e-22
-3.56505e-23
9.78341e-23
-2.89801e-23
8.47199e-23
-1.93053e-23
7.02059e-23
-7.10805e-24
5.72841e-23
-4.4971e-24
9.14357e-23
9.59484e-24
2.83288e-23
4.03537e-24
9.64063e-23
8.35359e-24
1.64554e-23
1.0049e-23
1.19645e-22
8.22829e-24
2.89618e-23
1.58e-24
5.87472e-23
3.22576e-23
1.52222e-22
3.0856e-23
1.19553e-22
3.35146e-23
4.97926e-23
2.40719e-23
4.5133e-23
3.05844e-23
2.56768e-23
2.2357e-23
-4.47239e-23
-8.69309e-24
2.20628e-23
-5.13972e-23
5.72441e-23
-3.56502e-23
1.74355e-22
-3.43993e-23
2.16321e-23
-2.83903e-23
5.5269e-23
-1.97263e-23
5.71259e-23
-6.06253e-24
9.98307e-23
-5.6593e-24
9.66912e-23
9.8946e-24
3.54385e-23
2.55606e-24
8.35792e-23
9.83791e-24
4.67545e-23
9.12921e-24
1.00362e-22
5.41936e-24
6.81516e-23
2.58579e-24
1.01693e-22
3.0539e-23
2.03751e-22
2.85203e-23
1.14755e-22
3.3221e-23
-2.14779e-23
2.56197e-23
-2.6854e-24
2.65545e-23
1.60178e-23
2.06771e-23
-6.41088e-23
-1.34472e-23
2.06457e-23
-4.50084e-23
1.0599e-22
-3.70879e-23
1.73384e-22
-3.26813e-23
7.72186e-23
-2.75591e-23
1.12744e-22
-1.68826e-23
3.46129e-23
-6.74133e-24
8.98844e-23
-5.66731e-24
9.47182e-23
1.07083e-23
7.9262e-23
9.09571e-25
9.6124e-23
1.02957e-23
1.11504e-22
7.35823e-24
9.43629e-23
5.65703e-24
8.52407e-23
3.93513e-24
1.15337e-22
2.98369e-23
1.86984e-22
2.57229e-23
8.35725e-23
3.50181e-23
4.71924e-23
2.60981e-23
-2.71773e-23
2.26687e-23
-2.70799e-23
2.38457e-23
-4.45953e-23
-1.37159e-23
1.97446e-23
-4.06887e-23
1.15909e-22
-3.69553e-23
1.73072e-22
-2.9023e-23
9.21119e-23
-2.8299e-23
6.20611e-23
-1.43827e-23
7.67128e-23
-5.0159e-24
1.415e-22
-6.23898e-24
1.08671e-22
1.09338e-23
1.63287e-22
7.74457e-25
-8.58257e-24
8.53491e-24
8.28518e-23
7.32649e-24
6.14988e-23
5.31007e-24
1.29196e-22
3.47385e-24
1.29721e-22
2.67066e-23
1.68728e-22
2.48769e-23
6.41425e-23
3.09952e-23
4.5045e-23
2.6834e-23
-5.21938e-23
2.15264e-23
-8.27752e-23
2.09463e-23
-3.26041e-23
-2.29345e-23
1.97845e-23
-3.74524e-23
1.07587e-22
-3.69051e-23
1.34948e-22
-2.90135e-23
1.0533e-22
-2.67595e-23
4.50967e-23
-1.11381e-23
1.28886e-22
-5.46103e-24
1.45737e-22
-4.20787e-24
7.17458e-23
6.05607e-24
1.7529e-22
1.64138e-24
3.71028e-24
7.68394e-24
8.83514e-23
8.80137e-24
1.02006e-22
5.16804e-24
1.57348e-22
2.1126e-25
1.40312e-22
2.59947e-23
2.39147e-22
2.60057e-23
1.22131e-22
2.49267e-23
-1.34981e-23
2.4528e-23
5.58506e-23
2.41209e-23
-1.56995e-23
2.20964e-23
-4.28276e-23
-6.39803e-23
1.77822e-23
-3.56751e-23
6.29655e-23
-3.47391e-23
1.25323e-22
-2.76187e-23
1.04506e-22
-2.36201e-23
1.24634e-23
-1.03149e-23
1.21429e-22
-5.11506e-24
1.22642e-22
-1.74229e-24
4.85591e-23
2.20873e-24
1.15537e-22
2.97281e-24
2.08578e-23
8.39074e-24
9.66853e-23
9.44013e-24
1.06912e-22
3.88348e-24
1.07293e-22
1.94328e-24
1.26912e-22
2.2151e-23
2.36078e-22
2.22755e-23
5.95321e-23
2.61077e-23
1.68786e-23
2.05755e-23
1.04543e-23
2.1839e-23
-9.22942e-25
1.90982e-23
-6.71395e-23
8.96936e-24
2.17907e-23
-3.35897e-23
6.01592e-23
-3.32889e-23
7.02723e-23
-2.81163e-23
3.19075e-23
-2.14778e-23
4.24435e-24
-7.62971e-24
1.3729e-22
-5.7233e-24
1.08041e-22
-2.15816e-24
6.34861e-23
3.22357e-24
1.06346e-22
2.28384e-24
3.42531e-23
9.89577e-24
1.66154e-22
8.24333e-24
7.44192e-23
3.48225e-24
9.22126e-23
3.35369e-24
1.45239e-22
1.68987e-23
1.88411e-22
2.07825e-23
8.9789e-23
2.50897e-23
4.30617e-23
2.0217e-23
9.81872e-24
1.88453e-23
5.91965e-25
1.96931e-23
9.33985e-24
2.06997e-23
1.88879e-23
-3.27738e-23
2.67695e-23
-3.22594e-23
8.94604e-23
-2.55665e-23
6.31002e-23
-1.90469e-23
-5.14609e-24
-7.49226e-24
1.27715e-22
-5.21357e-24
9.79527e-23
-2.6786e-24
8.26697e-23
3.4162e-24
1.37865e-22
3.5146e-24
3.20514e-23
8.82384e-24
1.58857e-22
7.58075e-24
8.30754e-23
3.73943e-24
9.10594e-23
2.27026e-24
1.58953e-22
1.73751e-23
1.75583e-22
1.81257e-23
9.49022e-23
2.34395e-23
3.6929e-23
1.93232e-23
5.95916e-24
1.98972e-23
3.84875e-24
1.84732e-23
-6.79876e-23
4.1239e-23
1.71297e-23
-3.06337e-23
3.05402e-23
-3.22949e-23
3.17374e-23
-2.49068e-23
5.18925e-23
-1.69609e-23
-1.6714e-23
-5.69231e-24
1.10891e-22
-4.90652e-24
1.05458e-22
-3.20395e-24
9.50488e-23
3.71293e-24
1.39981e-22
4.13559e-24
3.97719e-23
7.55067e-24
1.59685e-22
7.50264e-24
8.7282e-23
5.28152e-24
8.84522e-23
6.82833e-25
1.3084e-22
1.53896e-23
1.96522e-22
1.63075e-23
1.0089e-22
2.21562e-23
2.76388e-23
1.67661e-23
9.73268e-24
2.01013e-23
3.76568e-23
1.84311e-23
-3.92824e-23
-2.27958e-23
1.39882e-23
-3.01818e-23
1.34023e-23
-3.11151e-23
4.13896e-23
-2.38525e-23
1.19769e-22
-1.52629e-23
-2.12979e-23
-3.55352e-24
1.56964e-22
-4.61381e-24
3.59504e-23
-2.97234e-24
2.76286e-23
3.28539e-24
1.69314e-22
4.14255e-24
1.09218e-23
7.10315e-24
1.28479e-22
6.18748e-24
9.10445e-23
4.92684e-24
1.20217e-22
9.69963e-25
1.38125e-22
1.21053e-23
1.83873e-22
1.43137e-23
1.06747e-22
2.0534e-23
5.36139e-23
1.56074e-23
1.91743e-23
1.76509e-23
-5.0925e-25
1.6867e-23
-2.13751e-23
-2.26056e-23
1.5488e-23
-2.74981e-23
1.77559e-23
-2.8341e-23
2.62311e-23
-2.43707e-23
1.00525e-22
-1.2711e-23
3.52423e-23
-3.80394e-24
1.33921e-22
-3.84587e-24
3.01891e-23
-2.48839e-24
3.23064e-23
2.19745e-24
1.31753e-22
4.47082e-24
1.21132e-23
7.86473e-24
1.27917e-22
5.78898e-24
9.82241e-23
6.36048e-24
8.59651e-23
1.1077e-24
1.01071e-22
1.06015e-23
1.77069e-22
1.2581e-23
1.33377e-22
1.79337e-23
4.52815e-23
1.39291e-23
2.82542e-23
1.68865e-23
3.27844e-23
1.5075e-23
-2.31736e-23
-2.70963e-23
1.56004e-23
-2.54535e-23
1.25106e-23
-2.61191e-23
1.20672e-23
-2.38419e-23
8.96629e-23
-1.0949e-23
2.08323e-23
-4.30658e-24
1.3078e-22
-3.03759e-24
2.94616e-23
-1.50292e-24
2.42403e-24
1.12445e-24
9.46928e-23
5.29429e-24
1.23164e-23
6.75622e-24
1.00054e-22
4.80755e-24
1.43047e-22
5.99682e-24
8.69861e-23
1.40429e-24
1.05481e-22
9.24367e-24
2.02981e-22
1.04261e-23
9.23235e-23
1.70449e-23
3.62485e-23
1.38706e-23
3.29278e-23
1.49649e-23
4.86171e-23
1.44473e-23
7.90739e-24
-2.95447e-23
1.32279e-23
-2.36972e-23
3.52324e-24
-2.35684e-23
-2.14343e-24
-2.37895e-23
5.15899e-23
-8.05876e-24
9.76434e-23
-5.28603e-24
1.1516e-22
-2.76767e-24
9.01735e-23
-8.79546e-26
5.97539e-23
1.47791e-24
1.26946e-22
5.71238e-24
1.01341e-23
7.60019e-24
9.85888e-23
3.64345e-24
1.54299e-22
6.04486e-24
8.85851e-23
1.93051e-24
7.43229e-23
8.29983e-24
1.55348e-22
9.7152e-24
4.73279e-23
1.59397e-23
2.68164e-23
1.20973e-23
3.74803e-23
1.49548e-23
4.76232e-23
1.16627e-23
1.82142e-23
-7.96489e-24
1.27892e-23
-2.1227e-23
4.22575e-23
-2.25373e-23
-1.93208e-23
-2.13618e-23
5.07281e-23
-9.03455e-24
8.17866e-23
-4.11704e-24
7.11069e-23
-3.51822e-24
9.60529e-23
7.01276e-25
5.74395e-23
4.78695e-25
9.79466e-23
6.62508e-24
3.40835e-23
8.64545e-24
9.14235e-23
2.73429e-24
1.67666e-22
5.24245e-24
8.61057e-23
2.12033e-24
1.13395e-22
5.69813e-24
1.21963e-22
7.61671e-24
1.28761e-22
1.60497e-23
1.10544e-22
1.18839e-23
4.41589e-23
1.35758e-23
-1.13715e-23
1.04639e-23
7.7622e-23
-1.59006e-23
1.06063e-23
-2.02408e-23
4.04108e-23
-2.04811e-23
-3.56331e-23
-1.98136e-23
1.61476e-23
-7.78854e-24
6.47804e-23
-3.06959e-24
6.33795e-23
-3.39271e-24
6.91453e-23
1.5313e-24
5.1758e-23
2.16334e-25
4.1186e-23
7.57914e-24
1.18974e-23
8.7003e-24
8.61309e-23
4.95791e-25
9.23298e-23
6.03822e-24
-3.75594e-24
8.96695e-25
1.16423e-22
5.94035e-24
1.03718e-22
6.16121e-24
8.68103e-23
1.44258e-23
9.94456e-23
9.96644e-24
4.93981e-23
1.44443e-23
-1.31998e-23
8.30436e-24
7.6802e-23
-5.743e-23
7.34401e-24
-1.9642e-23
3.52547e-23
-1.8737e-23
-3.98469e-23
-1.86849e-23
-9.5438e-24
-5.58037e-24
8.41594e-23
-3.47909e-24
2.90625e-23
-3.88566e-24
4.40915e-23
9.08642e-25
5.0149e-23
1.07903e-24
4.46061e-23
8.36365e-24
-6.71947e-24
9.4972e-24
6.99563e-23
-1.70745e-24
5.26495e-23
7.77335e-24
5.61447e-23
-2.33211e-25
6.49166e-23
5.00743e-24
1.24204e-22
6.121e-24
1.16005e-22
1.25424e-23
8.85119e-23
8.58012e-24
5.17509e-23
1.52209e-23
1.60925e-23
6.5758e-24
7.40745e-23
-2.57082e-23
6.46197e-24
-1.95211e-23
6.4126e-23
-1.73193e-23
1.51639e-23
-1.6673e-23
-6.36049e-24
-5.96376e-24
7.32245e-23
-3.06802e-24
2.86369e-23
-2.65601e-24
4.96564e-23
4.49511e-25
5.17241e-23
1.18946e-24
1.19665e-23
9.10762e-24
-3.5984e-24
8.22372e-24
7.07981e-23
-7.14102e-25
6.65346e-23
7.10102e-24
5.50778e-23
4.73655e-25
7.4146e-23
4.09598e-24
1.33131e-22
4.25041e-24
1.01729e-22
1.21835e-23
1.38971e-22
7.13542e-24
2.25734e-23
1.44309e-23
-1.57258e-23
6.06831e-24
1.08819e-22
-3.08832e-23
4.22281e-24
-1.86916e-23
2.24229e-23
-1.73355e-23
1.3622e-23
-1.44008e-23
7.92572e-24
-6.48972e-24
3.50543e-23
-1.67551e-24
2.87551e-23
-1.93513e-24
1.89367e-23
-9.54496e-25
5.17971e-23
1.70429e-24
4.46957e-23
9.98593e-24
5.637e-24
7.16421e-24
4.39833e-23
-9.05682e-25
1.55778e-23
7.39012e-24
5.58369e-23
7.56015e-25
2.66411e-23
4.61504e-24
8.16483e-23
2.40196e-24
1.01169e-22
9.6938e-24
1.71711e-22
6.98169e-24
2.39449e-23
1.4242e-23
-1.76043e-23
4.9285e-24
1.07304e-22
-3.22581e-23
1.33649e-24
-1.73021e-23
5.24261e-23
-1.63985e-23
1.36363e-23
-1.35052e-23
1.28867e-23
-6.33522e-24
3.62181e-23
-1.36539e-24
9.51318e-23
-1.56605e-24
1.79587e-23
-1.79072e-25
5.17671e-23
1.07395e-24
5.65992e-24
9.90507e-24
2.38161e-23
7.64818e-24
1.34948e-23
-8.50816e-25
-3.74345e-24
5.76735e-24
5.62054e-23
1.84791e-24
3.13299e-23
5.54335e-24
6.80712e-23
2.7484e-24
3.90838e-23
6.44129e-24
1.08174e-22
5.51405e-24
-1.83424e-24
1.47027e-23
3.8546e-23
2.68428e-24
1.00758e-22
-2.78486e-23
4.11289e-27
-1.6861e-23
5.3509e-23
-1.53857e-23
-2.06103e-23
-1.23634e-23
1.60606e-23
-4.76692e-24
-6.37365e-25
-2.28889e-24
6.02372e-23
-7.33663e-25
1.60635e-23
-1.42606e-24
4.72704e-23
2.34281e-24
6.4305e-23
9.24737e-24
6.1147e-23
7.7756e-24
1.90593e-23
-1.27248e-24
-1.83806e-23
5.69121e-24
6.30914e-23
1.52374e-24
2.9534e-24
6.03286e-24
5.9894e-23
2.05e-24
7.65135e-24
5.28954e-24
6.61565e-23
5.93405e-24
-1.79646e-24
1.29315e-23
3.23441e-23
2.29268e-24
1.02458e-22
9.47063e-24
-2.78754e-24
-1.76083e-23
5.9252e-23
-1.37274e-23
3.79576e-23
-1.16529e-23
1.48509e-23
-3.55615e-24
4.70429e-24
-1.97068e-24
6.28885e-23
-2.59508e-25
3.90674e-23
-1.74402e-24
4.14789e-23
2.42812e-24
5.57177e-23
8.8705e-24
4.92701e-23
6.23215e-24
2.2341e-23
-2.63075e-25
-6.90683e-23
4.67582e-24
2.74568e-23
1.68598e-24
-3.51725e-23
5.23213e-24
1.87951e-23
1.28444e-24
-2.04512e-23
4.81297e-24
3.00629e-23
5.80733e-24
2.33649e-24
1.19632e-23
2.95532e-23
2.36251e-24
7.01932e-23
-3.66191e-23
-1.70094e-23
-1.39856e-23
-1.10056e-23
-2.67036e-24
-1.27097e-24
-1.28609e-25
-4.91495e-25
2.40778e-23
-1.13859e-24
3.73512e-23
3.21015e-24
4.99403e-23
8.2917e-24
3.67316e-23
5.16038e-24
-1.5541e-23
1.42608e-25
-9.51112e-23
4.33496e-24
5.40488e-23
2.72143e-24
-2.52955e-24
4.61726e-24
5.16213e-23
7.54115e-25
-9.82501e-23
5.50076e-24
-3.19722e-23
5.28084e-24
1.12652e-23
1.11562e-23
2.51266e-23
1.4004e-24
2.49435e-23
-3.40893e-23
-1.09074e-24
3.31864e-25
-1.61599e-24
3.85541e-24
7.009e-24
-3.16836e-23
4.52997e-24
-1.68751e-23
4.22966e-25
-1.05467e-22
3.69667e-24
1.53705e-23
1.92817e-24
-3.65879e-24
3.3742e-24
7.84462e-23
9.40843e-25
-9.00849e-23
6.08257e-24
-3.47369e-23
5.77638e-24
6.27574e-23
9.94008e-24
6.04558e-23
1.36659e-24
9.86388e-24
-9.88502e-23
6.35897e-24
4.53819e-24
1.03101e-24
4.27206e-24
2.60676e-24
7.47158e-25
1.40413e-24
6.52384e-24
4.26954e-24
9.06983e-24
5.40259e-25
-6.65441e-24
4.95856e-23
-7.58596e-24
3.71307e-23
-6.95323e-24
3.40272e-23
-2.92242e-24
3.99844e-23
-5.03243e-24
4.4294e-23
-4.92964e-24
3.92522e-23
-3.70214e-24
5.41238e-23
-7.55581e-24
-9.8837e-24
1.17537e-23
2.0704e-23
-5.5402e-24
-7.09208e-24
-9.06555e-24
-9.53182e-24
-1.25498e-23
2.13015e-23
-5.90449e-24
4.29573e-24
-5.34225e-24
-8.33331e-24
-9.29748e-24
-7.09981e-24
8.76911e-23
3.5222e-23
-7.97542e-24
1.33193e-23
-1.77033e-24
-4.68512e-25
-1.1405e-23
-8.9384e-24
1.69233e-23
1.92307e-23
-8.00651e-24
-1.54108e-23
5.48906e-25
1.27547e-24
-1.80858e-23
-6.06162e-24
6.18462e-24
2.9375e-23
-8.28089e-24
-4.72128e-23
1.92802e-24
1.3341e-24
-7.68815e-25
-6.66541e-24
1.68025e-23
-1.75466e-25
4.40602e-23
9.32394e-23
-7.36862e-24
-4.79137e-23
7.77012e-24
5.94578e-25
-1.88173e-23
-7.22159e-25
2.05286e-23
3.10607e-24
6.8046e-23
3.20585e-23
-7.36073e-24
-5.75552e-23
1.2906e-23
6.05625e-25
-4.20538e-23
2.09767e-24
1.54807e-23
-4.77827e-25
3.76632e-24
4.76402e-23
-1.05103e-23
1.23527e-23
1.73648e-23
5.81868e-24
6.52137e-23
1.35484e-24
2.08928e-23
-2.0246e-25
1.39527e-23
-1.18175e-23
-5.91073e-24
7.60986e-23
1.88272e-23
5.06059e-24
1.33694e-22
1.72811e-24
-1.42349e-24
-2.60059e-24
-5.09011e-23
-1.94822e-23
2.79015e-24
1.70163e-22
2.18641e-23
9.81828e-26
1.65116e-23
-3.95892e-25
5.57255e-24
-2.75748e-24
-1.50183e-23
-1.98842e-23
2.99762e-24
2.09104e-22
1.79696e-23
1.9809e-24
-1.39411e-23
-2.00268e-25
3.70945e-24
-3.60283e-24
-6.9203e-24
-3.74103e-24
-1.489e-23
-1.08012e-23
8.28204e-24
1.53955e-22
1.16168e-23
6.91366e-24
-5.95655e-23
4.72392e-24
-1.79985e-23
-6.88422e-24
-6.66621e-23
-2.18844e-24
4.46874e-23
6.54804e-23
1.41073e-23
1.73128e-22
9.53141e-24
1.67745e-23
-7.00283e-23
1.10345e-23
4.23707e-25
-3.63105e-24
-5.2713e-23
2.87192e-24
3.92759e-23
-7.72844e-24
5.94899e-24
1.4915e-22
1.13671e-23
1.59709e-22
5.85439e-24
1.5277e-23
-9.91101e-23
1.14122e-23
-4.49221e-23
5.66222e-24
-4.22688e-23
9.49342e-24
7.14861e-23
-6.89947e-24
-3.67793e-23
3.71555e-24
1.0479e-22
-5.72955e-23
1.16799e-23
1.58923e-22
6.33979e-24
7.2593e-24
-1.37852e-22
7.25659e-24
-6.212e-23
4.76017e-24
-9.02361e-23
9.82618e-24
1.94367e-23
-5.60088e-24
-1.25036e-23
-1.38365e-24
1.15176e-22
-9.47358e-24
-4.81175e-23
-1.62255e-23
8.70954e-24
1.68414e-22
5.61518e-24
1.51858e-24
-1.30816e-22
4.91715e-24
1.03383e-23
-4.63415e-25
-8.27291e-23
3.92379e-24
1.14992e-23
-5.04214e-24
-1.77609e-23
-8.38565e-24
4.63798e-23
-1.59324e-23
6.89026e-24
-1.25029e-23
9.05691e-23
8.19503e-23
7.37028e-24
1.47795e-22
6.16388e-24
-3.31938e-24
-5.33227e-23
2.87342e-24
4.83317e-23
-6.57505e-24
-7.64025e-23
3.60753e-24
3.17771e-23
-8.31413e-24
-5.86443e-24
-1.19367e-23
4.8892e-23
-1.32976e-23
3.35515e-23
-7.2914e-24
1.12108e-22
9.46906e-23
1.0261e-23
2.02118e-22
1.00437e-23
-5.56524e-24
-1.14598e-22
-2.60699e-25
-1.08473e-23
-7.87474e-24
-1.72593e-22
3.08574e-24
-2.38665e-23
-1.08217e-23
-6.11373e-23
-1.48953e-23
6.87429e-23
-1.12543e-23
4.64445e-23
-3.09421e-24
9.75609e-23
6.09441e-23
8.58191e-24
1.73024e-22
6.99273e-24
-9.42657e-24
-1.13608e-22
-2.754e-24
3.14322e-23
-9.57383e-24
-1.56983e-22
3.90265e-25
-1.33342e-23
-7.74985e-24
-1.20288e-22
-1.95674e-23
2.552e-24
-1.15218e-23
7.76803e-23
-9.88009e-25
7.15731e-23
-3.01246e-24
8.04467e-24
1.06413e-22
6.41279e-24
-9.4625e-24
-1.6955e-22
-6.25388e-24
2.59755e-23
-7.59882e-24
-1.57282e-22
-3.08713e-24
1.50515e-24
-4.27729e-24
-1.10042e-22
-2.212e-23
-5.66579e-23
-1.41304e-23
7.38272e-25
1.35682e-25
7.87601e-23
-1.06223e-23
5.26706e-24
4.51613e-23
5.05372e-24
-1.03522e-23
-1.45175e-22
-5.85905e-24
6.09646e-23
-8.06089e-24
-1.5305e-22
-4.77589e-24
-6.31967e-23
-3.86592e-24
-8.28004e-23
-1.89743e-23
-3.48253e-23
-1.49452e-23
-3.99569e-24
3.69566e-25
6.42663e-23
-1.29357e-23
3.8174e-24
4.45746e-23
6.91532e-24
-7.36614e-24
-1.28467e-22
-1.06585e-23
6.34544e-23
-9.6212e-24
-1.51393e-22
-4.13153e-24
-2.27461e-23
-4.38434e-24
-8.58725e-23
-2.07815e-23
-7.93398e-23
-1.38097e-23
1.52095e-24
-1.07207e-24
5.56418e-23
-1.65845e-23
-4.50625e-25
1.9906e-23
6.17103e-24
-1.84251e-24
-9.32434e-23
-1.51139e-23
-5.43598e-23
-8.13471e-24
-1.58964e-22
-2.21886e-24
-2.06707e-23
-5.55492e-24
-1.07676e-22
-1.92356e-23
-1.13331e-22
-1.39833e-23
-1.44612e-24
5.68148e-25
5.12381e-23
-1.47136e-23
3.1553e-25
2.72261e-24
8.36881e-24
-3.35258e-24
-6.10434e-23
-1.44783e-23
-3.61761e-23
-8.84869e-24
-9.96277e-23
-1.08601e-24
3.24538e-23
-4.82527e-24
-9.84559e-23
-1.68207e-23
-1.10691e-22
-1.28269e-23
-1.52311e-23
-5.52958e-25
4.202e-23
-3.24421e-24
-5.15531e-25
7.40809e-24
1.12779e-23
-7.60736e-24
-6.29223e-23
-1.10202e-23
-2.43986e-23
-8.63064e-24
-9.90589e-23
-3.15856e-24
7.50723e-23
-6.66222e-24
-9.66021e-23
-1.38269e-23
-7.88362e-23
-1.28656e-23
-2.7801e-23
9.58926e-25
3.28499e-23
2.53684e-23
9.75148e-25
3.89297e-23
1.17646e-23
-6.08635e-24
-6.38654e-23
-1.16961e-23
-5.18995e-24
-7.44071e-24
-9.70023e-23
-3.10663e-24
5.66186e-23
-5.46867e-24
-9.56798e-23
-1.22305e-23
-3.06439e-23
-1.15365e-23
-1.23376e-23
2.95359e-24
4.65482e-23
-1.04953e-23
3.16569e-25
4.76593e-23
1.18997e-23
-8.19914e-24
-6.00396e-23
-1.00669e-23
1.87614e-24
-5.94682e-24
-8.25035e-23
-4.7661e-24
9.3094e-23
-5.24494e-24
-1.05327e-22
-1.09611e-23
-3.92195e-23
-9.51281e-24
-1.10518e-23
2.28154e-24
3.69074e-23
-6.22798e-23
-1.48984e-24
7.6067e-24