/*--------------------------------*- C++ -*----------------------------------*\
  =========                 |
  \\      /  F ield         | OpenFOAM: The Open Source CFD Toolbox
   \\    /   O peration     | Website:  https://openfoam.org
    \\  /    A nd           | Version:  7
     \\/     M anipulation  |
\*---------------------------------------------------------------------------*/
FoamFile
{
    version     2.0;
    format      ascii;
    class       volScalarField;
    location    "236000";
    object      strainRate;
}
// * * * * * * * * * * * * * * * * * * * * * * * * * * * * * * * * * * * * * //

dimensions      [0 0 -1 0 0 0 0];

internalField   nonuniform List<scalar> 
4838
(
0.00197536
0.00186921
0.00179374
0.00169688
0.00159019
0.0014791
0.0013662
0.00125294
0.00114033
0.00102939
0.000921319
0.000817684
0.000720292
0.000630979
0.000551257
0.000482042
0.00042351
0.000375141
0.000336186
0.000305553
0.000281992
0.000264312
0.000251801
0.000243858
0.000240009
0.000240009
0.000243858
0.000251801
0.000264313
0.000281992
0.000305553
0.000336186
0.000375142
0.00042351
0.000482042
0.000551257
0.00063098
0.000720293
0.000817685
0.00092132
0.00102939
0.00114033
0.00125294
0.0013662
0.0014791
0.00159019
0.00169688
0.00179374
0.00186922
0.00197536
0.00257517
0.00224989
0.00215473
0.00204981
0.00193583
0.00181667
0.00169556
0.00157472
0.00145558
0.00133914
0.00122622
0.00111762
0.00101429
0.000917257
0.000827641
0.000746435
0.000674374
0.000611829
0.000558801
0.000514981
0.000479798
0.000452562
0.000432704
0.000419767
0.000413396
0.000413396
0.000419767
0.000432704
0.000452562
0.000479798
0.000514981
0.000558801
0.00061183
0.000674375
0.000746435
0.000827642
0.000917258
0.00101429
0.00111762
0.00122622
0.00133914
0.00145558
0.00157472
0.00169557
0.00181667
0.00193583
0.00204981
0.00215473
0.00224989
0.00257517
0.00295934
0.00255883
0.00243168
0.00231629
0.0022028
0.00208818
0.00197251
0.00185686
0.00174244
0.00163023
0.00152105
0.00141558
0.00131448
0.00121841
0.00112812
0.00104438
0.000967968
0.00089953
0.00083955
0.000788313
0.00074591
0.000712273
0.000687248
0.000670678
0.000662431
0.000662431
0.000670678
0.000687248
0.000712273
0.000745911
0.000788314
0.00083955
0.000899531
0.000967968
0.00104439
0.00112812
0.00121841
0.00131448
0.00141558
0.00152105
0.00163023
0.00174244
0.00185687
0.00197251
0.00208818
0.0022028
0.00231629
0.00243168
0.00255883
0.00295934
0.00325932
0.00286366
0.00272017
0.00259089
0.00247053
0.00235473
0.00224125
0.00212947
0.00201958
0.00191211
0.00180768
0.00170684
0.00161014
0.00151808
0.00143119
0.00135003
0.00127518
0.00120723
0.00114674
0.00109419
0.00104996
0.00101434
0.000987503
0.000969566
0.000960584
0.000960584
0.000969566
0.000987503
0.00101434
0.00104996
0.00109419
0.00114674
0.00120724
0.00127518
0.00135003
0.00143119
0.00151808
0.00161014
0.00170685
0.00180768
0.00191212
0.00201958
0.00212947
0.00224125
0.00235473
0.00247053
0.00259089
0.00272017
0.00286367
0.00325933
0.00353594
0.00315502
0.0030099
0.00287389
0.00274693
0.00262706
0.00251229
0.00240134
0.00229368
0.00218927
0.00208837
0.00199135
0.00189861
0.00181058
0.00172766
0.00165029
0.00157892
0.001514
0.001456
0.00140536
0.0013625
0.00132779
0.0013015
0.00128386
0.001275
0.001275
0.00128386
0.0013015
0.00132779
0.0013625
0.00140536
0.001456
0.001514
0.00157892
0.00165029
0.00172766
0.00181058
0.00189861
0.00199135
0.00208837
0.00218927
0.00229368
0.00240134
0.00251229
0.00262707
0.00274693
0.00287389
0.00300991
0.00315502
0.00353595
0.0038031
0.00343527
0.00329304
0.00315627
0.0030264
0.00290341
0.0027865
0.00267476
0.00256752
0.00246448
0.00236562
0.0022711
0.00218118
0.00209618
0.00201643
0.00194229
0.00187412
0.00181228
0.00175714
0.00170907
0.0016684
0.00163545
0.0016105
0.00159374
0.00158532
0.00158532
0.00159374
0.0016105
0.00163545
0.0016684
0.00170907
0.00175714
0.00181228
0.00187412
0.00194229
0.00201643
0.00209618
0.00218118
0.0022711
0.00236563
0.00246448
0.00256752
0.00267476
0.0027865
0.00290341
0.0030264
0.00315627
0.00329304
0.00343528
0.0038031
0.00406415
0.00370789
0.00356882
0.00343373
0.00330382
0.00317974
0.00306152
0.00294887
0.00284137
0.00273875
0.00264089
0.00254781
0.00245967
0.0023767
0.00229916
0.00222733
0.00216152
0.00210202
0.00204914
0.00200317
0.00196437
0.00193299
0.00190926
0.00189334
0.00188535
0.00188535
0.00189334
0.00190926
0.00193299
0.00196437
0.00200317
0.00204914
0.00210203
0.00216152
0.00222733
0.00229916
0.0023767
0.00245968
0.00254781
0.00264089
0.00273875
0.00284137
0.00294887
0.00306153
0.00317974
0.00330382
0.00343374
0.00356882
0.0037079
0.00406415
0.00432055
0.00397499
0.00383855
0.00370563
0.003577
0.0034533
0.00333492
0.00322194
0.00311428
0.00301181
0.00291445
0.00282222
0.0027352
0.00265356
0.00257749
0.00250725
0.00244307
0.00238521
0.00233391
0.00228942
0.00225197
0.00222173
0.0021989
0.0021836
0.00217593
0.00217593
0.0021836
0.0021989
0.00222173
0.00225197
0.00228943
0.00233391
0.00238521
0.00244307
0.00250725
0.0025775
0.00265356
0.0027352
0.00282222
0.00291446
0.00301181
0.00311428
0.00322195
0.00333493
0.00345331
0.003577
0.00370564
0.00383855
0.003975
0.00432055
0.00457325
0.00423778
0.00410349
0.0039726
0.00384562
0.00372303
0.00360528
0.00349262
0.00338516
0.00328296
0.00318602
0.00309438
0.00300814
0.00292742
0.0028524
0.00278326
0.00272023
0.00266352
0.00261334
0.0025699
0.00253337
0.00250394
0.00248174
0.00246687
0.00245942
0.00245942
0.00246687
0.00248174
0.00250394
0.00253338
0.0025699
0.00261334
0.00266352
0.00272024
0.00278327
0.0028524
0.00292742
0.00300814
0.00309438
0.00318602
0.00328296
0.00338517
0.00349262
0.00360528
0.00372304
0.00384562
0.00397261
0.00410349
0.00423778
0.00457325
0.00482292
0.00449701
0.00436454
0.00423544
0.00411008
0.00398884
0.00387211
0.00376019
0.0036533
0.00355158
0.00345514
0.00336407
0.00327848
0.0031985
0.00312427
0.00305599
0.00299383
0.00293798
0.00288862
0.00284595
0.00281011
0.00278125
0.0027595
0.00274494
0.00273765
0.00273765
0.00274494
0.0027595
0.00278125
0.00281011
0.00284595
0.00288863
0.00293798
0.00299383
0.00305599
0.00312428
0.0031985
0.00327848
0.00336407
0.00345514
0.00355158
0.0036533
0.00376019
0.00387211
0.00398885
0.00411008
0.00423544
0.00436454
0.00449702
0.00482292
0.00507007
0.00475323
0.00462233
0.00449479
0.00437093
0.00425104
0.00413547
0.0040245
0.0039184
0.00381736
0.00372154
0.00363108
0.00354612
0.0034668
0.00339327
0.0033257
0.00326424
0.00320909
0.00316039
0.00311832
0.00308302
0.00305462
0.00303321
0.0030189
0.00301173
0.00301173
0.0030189
0.00303321
0.00305462
0.00308302
0.00311832
0.0031604
0.00320909
0.00326425
0.0033257
0.00339327
0.0034668
0.00354612
0.00363108
0.00372154
0.00381736
0.0039184
0.00402451
0.00413547
0.00425105
0.00437093
0.0044948
0.00462234
0.00475324
0.00507007
0.00531511
0.00500686
0.00487735
0.00475119
0.00462866
0.00451005
0.00439563
0.00428569
0.00418048
0.00408022
0.00398512
0.00389533
0.00381102
0.00373234
0.00365945
0.00359251
0.00353168
0.00347713
0.003429
0.00338744
0.00335258
0.00332455
0.00330344
0.00328932
0.00328225
0.00328225
0.00328932
0.00330344
0.00332455
0.00335258
0.00338744
0.003429
0.00347713
0.00353169
0.00359251
0.00365945
0.00373234
0.00381102
0.00389533
0.00398512
0.00408023
0.00418048
0.00428569
0.00439563
0.00451005
0.00462867
0.00475119
0.00487735
0.00500687
0.00531511
0.00555836
0.00525824
0.00512995
0.00500502
0.0048837
0.00476625
0.00465293
0.00454399
0.0044397
0.00434028
0.00424593
0.00415684
0.0040732
0.00399516
0.00392289
0.00385655
0.00379629
0.00374228
0.00369465
0.00365354
0.00361908
0.00359137
0.00357051
0.00355657
0.00354958
0.00354958
0.00355657
0.00357051
0.00359137
0.00361908
0.00365354
0.00369465
0.00374228
0.00379629
0.00385655
0.00392289
0.00399516
0.0040732
0.00415684
0.00424593
0.00434028
0.0044397
0.004544
0.00465293
0.00476625
0.0048837
0.00500502
0.00512996
0.00525825
0.00555837
0.00580013
0.00550768
0.00538048
0.00525663
0.00513639
0.00501999
0.00490768
0.00479971
0.00469631
0.00459771
0.00450412
0.00441575
0.00433277
0.00425536
0.00418369
0.00411792
0.00405821
0.00400469
0.00395752
0.00391683
0.00388272
0.00385531
0.00383468
0.00382088
0.00381397
0.00381397
0.00382088
0.00383468
0.00385531
0.00388272
0.00391683
0.00395753
0.0040047
0.00405821
0.00411793
0.0041837
0.00425537
0.00433277
0.00441575
0.00450413
0.00459771
0.00469631
0.00479971
0.00490769
0.00502
0.00513639
0.00525664
0.00538048
0.00550768
0.00580014
0.00604066
0.00575543
0.0056292
0.00550632
0.00538704
0.00527159
0.00516021
0.00505312
0.00495056
0.00485275
0.00475991
0.00467223
0.0045899
0.00451311
0.00444202
0.0043768
0.00431759
0.00426455
0.0042178
0.00417749
0.00414371
0.00411656
0.00409613
0.00408248
0.00407564
0.00407564
0.00408248
0.00409613
0.00411657
0.00414371
0.00417749
0.00421781
0.00426455
0.00431759
0.0043768
0.00444203
0.00451312
0.00458991
0.00467223
0.00475991
0.00485276
0.00495056
0.00505312
0.00516021
0.0052716
0.00538705
0.00550633
0.00562921
0.00575544
0.00604067
0.00628018
0.00600177
0.00587638
0.00575435
0.00563593
0.00552133
0.00541077
0.00530449
0.00520271
0.00510565
0.0050135
0.00492649
0.00484479
0.00476859
0.00469805
0.00463334
0.00457461
0.00452201
0.00447567
0.00443571
0.00440223
0.00437533
0.00435509
0.00434156
0.00433479
0.00433479
0.00434156
0.00435509
0.00437533
0.00440223
0.00443571
0.00447567
0.00452202
0.00457462
0.00463334
0.00469805
0.00476859
0.00484479
0.00492649
0.00501351
0.00510565
0.00520272
0.0053045
0.00541078
0.00552133
0.00563593
0.00575436
0.00587639
0.00600177
0.00628019
0.00651891
0.0062469
0.00612225
0.00600097
0.0058833
0.00576945
0.00565964
0.00555409
0.00545302
0.00535663
0.00526514
0.00517875
0.00509764
0.00502199
0.00495197
0.00488775
0.00482947
0.00477728
0.00473131
0.00469167
0.00465847
0.0046318
0.00461174
0.00459833
0.00459161
0.00459161
0.00459833
0.00461174
0.00463181
0.00465848
0.00469167
0.00473131
0.00477729
0.00482948
0.00488775
0.00495197
0.00502199
0.00509764
0.00517875
0.00526515
0.00535664
0.00545302
0.0055541
0.00565965
0.00576946
0.00588331
0.00600098
0.00612226
0.00624691
0.00651892
0.00675705
0.00649106
0.00636704
0.00624641
0.0061294
0.0060162
0.00590705
0.00580215
0.00570171
0.00560594
0.00551505
0.00542923
0.00534866
0.00527352
0.00520399
0.00514022
0.00508236
0.00503055
0.00498492
0.00494559
0.00491265
0.00488619
0.00486628
0.00485298
0.00484631
0.00484632
0.00485298
0.00486628
0.00488619
0.00491265
0.00494559
0.00498493
0.00503056
0.00508236
0.00514022
0.00520399
0.00527352
0.00534866
0.00542923
0.00551506
0.00560595
0.00570172
0.00580215
0.00590706
0.00601621
0.0061294
0.00624642
0.00636705
0.00649106
0.00675706
0.00699477
0.00673443
0.00661096
0.00649088
0.00637443
0.00626181
0.00615323
0.0060489
0.00594902
0.00585381
0.00576345
0.00567814
0.00559806
0.0055234
0.00545431
0.00539095
0.00533348
0.00528203
0.00523671
0.00519765
0.00516495
0.00513868
0.00511892
0.00510571
0.0050991
0.0050991
0.00510571
0.00511892
0.00513868
0.00516495
0.00519765
0.00523671
0.00528203
0.00533348
0.00539096
0.00545431
0.0055234
0.00559807
0.00567814
0.00576345
0.00585381
0.00594903
0.0060489
0.00615323
0.00626181
0.00637444
0.00649089
0.00661097
0.00673444
0.00699478
0.0068542
0.00673459
0.00661861
0.00650648
0.00639839
0.00629455
0.00619517
0.00610044
0.00601055
0.0059257
0.00584607
0.00577183
0.00570314
0.00564016
0.00558304
0.0055319
0.00548687
0.00544807
0.00541557
0.00538948
0.00536985
0.00535674
0.00535017
0.00535017
0.00535674
0.00536985
0.00538948
0.00541558
0.00544807
0.00548688
0.0055319
0.00558304
0.00564017
0.00570314
0.00577183
0.00584608
0.00592571
0.00601056
0.00610044
0.00619517
0.00629456
0.00639839
0.00650648
0.00661862
0.0067346
0.00685421
0.00697724
0.00723227
0.00697773
0.00686214
0.00675041
0.00664273
0.00653931
0.00644035
0.00634604
0.00625657
0.00617212
0.00609288
0.00601901
0.00595068
0.00588804
0.00583123
0.00578038
0.00573561
0.00569703
0.00566473
0.00563879
0.00561928
0.00560625
0.00559972
0.00559973
0.00560625
0.00561929
0.0056388
0.00566473
0.00569703
0.00573561
0.00578038
0.00583123
0.00588805
0.00595069
0.00601902
0.00609289
0.00617213
0.00625657
0.00634604
0.00644036
0.00653932
0.00664274
0.00675042
0.00686215
0.00697773
0.00709697
0.00721964
0.0074697
0.0069938
0.00688646
0.00678339
0.00668478
0.00659082
0.0065017
0.0064176
0.0063387
0.00626516
0.00619714
0.00613479
0.00607826
0.00602766
0.00598312
0.00594474
0.00591261
0.00588682
0.00586741
0.00585445
0.00584796
0.00584796
0.00585445
0.00586741
0.00588682
0.00591262
0.00594474
0.00598312
0.00602766
0.00607826
0.0061348
0.00619714
0.00626516
0.0063387
0.00641761
0.0065017
0.00659082
0.00668478
0.00678339
0.00688647
0.00699381
0.00710521
0.00722049
0.00733943
0.00746183
0.00770723
0.00712976
0.00702696
0.00692863
0.00683496
0.00674614
0.00666233
0.00658371
0.00651045
0.0064427
0.00638061
0.00632431
0.00627394
0.0062296
0.00619139
0.00615942
0.00613374
0.00611443
0.00610153
0.00609508
0.00609508
0.00610154
0.00611443
0.00613375
0.00615942
0.0061914
0.0062296
0.00627394
0.00632432
0.00638062
0.00644271
0.00651046
0.00658372
0.00666233
0.00674614
0.00683497
0.00692864
0.00702697
0.00712976
0.00723684
0.00734799
0.00746304
0.00758177
0.00770397
0.00794502
0.00727021
0.0071721
0.00707866
0.00699007
0.0069065
0.00682812
0.00675509
0.00668756
0.00662568
0.00656959
0.0065194
0.00647523
0.00643718
0.00640533
0.00637976
0.00636054
0.00634769
0.00634126
0.00634126
0.00634769
0.00636054
0.00637977
0.00640534
0.00643718
0.00647524
0.00651941
0.00656959
0.00662569
0.00668757
0.00675509
0.00682812
0.0069065
0.00699008
0.00707867
0.00717211
0.00727022
0.00737281
0.00747969
0.00759067
0.00770556
0.00782415
0.00794624
0.00818322
0.0073221
0.00723368
0.00715029
0.00707209
0.00699924
0.0069319
0.0068702
0.00681427
0.00676424
0.00672021
0.00668229
0.00665055
0.00662507
0.00660591
0.00659311
0.0065867
0.0065867
0.00659311
0.00660591
0.00662507
0.00665055
0.00668229
0.00672022
0.00676424
0.00681428
0.0068702
0.00693191
0.00699925
0.0070721
0.00715029
0.00723369
0.0073221
0.00741538
0.00751333
0.00761578
0.00772253
0.00783341
0.00794821
0.00806674
0.0081888
0.00842197
0.00747714
0.00739388
0.00731582
0.00724311
0.0071759
0.00711434
0.00705854
0.00700863
0.00696472
0.00692689
0.00689524
0.00686984
0.00685073
0.00683797
0.00683159
0.00683159
0.00683797
0.00685074
0.00686984
0.00689525
0.0069269
0.00696472
0.00700864
0.00705855
0.00711434
0.00717591
0.00724311
0.00731582
0.00739389
0.00747715
0.00756545
0.00765861
0.00775647
0.00785884
0.00796554
0.00807638
0.00819116
0.00830971
0.0084318
0.00866143
0.00741974
0.00735827
0.00730257
0.00725275
0.00720893
0.00717118
0.0071396
0.00711425
0.00709519
0.00708246
0.00707609
0.00707609
0.00708246
0.00709519
0.00711425
0.0071396
0.00717119
0.00720893
0.00725276
0.00730258
0.00735828
0.00741975
0.00748686
0.00755947
0.00763745
0.00772063
0.00780887
0.00790198
0.00799981
0.00810216
0.00820887
0.00831973
0.00843458
0.0085532
0.0086754
0.00890173
0.00745302
0.00741533
0.00738379
0.00735849
0.00733946
0.00732675
0.00732039
0.00732039
0.00732675
0.00733946
0.00735849
0.0073838
0.00741533
0.00745302
0.00749679
0.00754654
0.00760218
0.00766359
0.00773064
0.00780321
0.00788115
0.00796431
0.00805253
0.00814565
0.0082435
0.0083459
0.00845268
0.00856364
0.0086786
0.00879737
0.00891975
0.00914301
0.00762799
0.00760271
0.0075837
0.00757101
0.00756465
0.00756465
0.00757101
0.0075837
0.00760271
0.00762799
0.0076595
0.00769716
0.00774089
0.00779061
0.00784622
0.00790761
0.00797465
0.00804721
0.00812515
0.00820834
0.0082966
0.00838978
0.00848771
0.00859021
0.00869712
0.00880824
0.00892339
0.00904238
0.00916499
0.00938541
0.00780905
0.00780905
0.0078154
0.00782809
0.00784709
0.00787236
0.00790386
0.0079415
0.00798523
0.00803495
0.00809057
0.00815196
0.00821903
0.00829163
0.00836962
0.00845287
0.00854123
0.00863452
0.00873259
0.00883526
0.00894235
0.00905369
0.00916909
0.00928836
0.00941128
0.00962906
0.00811707
0.00814857
0.00818623
0.00822997
0.00827972
0.00833537
0.00839682
0.00846394
0.00853662
0.00861471
0.00869808
0.00878657
0.00888003
0.00897829
0.00908118
0.00918852
0.00930014
0.00941585
0.00953546
0.00965876
0.00987411
0.00847528
0.00852508
0.00858079
0.00864232
0.00870954
0.00878234
0.00886057
0.0089441
0.00903279
0.00912646
0.00922496
0.00932813
0.00943578
0.00954773
0.00966382
0.00978383
0.00990757
0.0101207
0.00882699
0.00888863
0.00895599
0.00902894
0.00910736
0.0091911
0.00928002
0.00937395
0.00947275
0.00957625
0.00968426
0.00979661
0.00991313
0.0100336
0.0101578
0.0103689
0.00907411
0.0091359
0.00920343
0.00927658
0.00935522
0.00943921
0.00952841
0.00962266
0.00972181
0.00982569
0.00993412
0.0100469
0.0101639
0.0102849
0.0104097
0.0106189
0.0093223
0.00938427
0.00945201
0.00952539
0.0096043
0.00968859
0.00977811
0.00987273
0.00997228
0.0100766
0.0101855
0.0102988
0.0104164
0.0105379
0.0106634
0.0108708
0.00977554
0.00985475
0.00993937
0.0100293
0.0101243
0.0102243
0.0103291
0.0104385
0.0105524
0.0106705
0.0107928
0.0109189
0.0111248
0.010478
0.0105833
0.0106933
0.0108078
0.0109267
0.0110496
0.0111764
0.011381
0.0110653
0.0111848
0.0113085
0.0114361
0.0116395
0.000251802
0.000243859
0.000240009
0.000240009
0.000243859
0.000251802
0.000264313
0.000281993
0.000305553
0.000336186
0.000375142
0.00042351
0.000482042
0.000551257
0.000630979
0.000720292
0.000817684
0.000921319
0.00102938
0.00114033
0.00125294
0.0013662
0.0014791
0.00159019
0.00169688
0.00179374
0.00186921
0.00197536
0.000432705
0.000419768
0.000413396
0.000413396
0.000419767
0.000432705
0.000452562
0.000479799
0.000514981
0.000558801
0.00061183
0.000674375
0.000746435
0.000827641
0.000917257
0.00101428
0.00111762
0.00122622
0.00133914
0.00145558
0.00157472
0.00169556
0.00181667
0.00193583
0.00204981
0.00215473
0.00224988
0.00257517
0.00068725
0.000670679
0.000662432
0.000662432
0.000670679
0.000687249
0.000712273
0.000745911
0.000788314
0.00083955
0.00089953
0.000967968
0.00104438
0.00112812
0.00121841
0.00131448
0.00141558
0.00152105
0.00163023
0.00174244
0.00185686
0.00197251
0.00208818
0.0022028
0.00231629
0.00243168
0.00255883
0.00295934
0.000987505
0.000969567
0.000960585
0.000960585
0.000969567
0.000987504
0.00101434
0.00104996
0.00109419
0.00114674
0.00120723
0.00127518
0.00135003
0.00143119
0.00151808
0.00161014
0.00170684
0.00180768
0.00191211
0.00201958
0.00212946
0.00224125
0.00235473
0.00247053
0.00259089
0.00272017
0.00286366
0.00325932
0.0013015
0.00128386
0.001275
0.001275
0.00128386
0.0013015
0.00132779
0.0013625
0.00140536
0.001456
0.001514
0.00157892
0.00165029
0.00172766
0.00181057
0.00189861
0.00199135
0.00208837
0.00218927
0.00229367
0.00240134
0.00251229
0.00262706
0.00274693
0.00287389
0.0030099
0.00315502
0.00353594
0.0016105
0.00159374
0.00158532
0.00158532
0.00159374
0.0016105
0.00163545
0.0016684
0.00170907
0.00175714
0.00181228
0.00187412
0.00194229
0.00201643
0.00209617
0.00218118
0.0022711
0.00236562
0.00246448
0.00256752
0.00267475
0.0027865
0.00290341
0.00302639
0.00315627
0.00329304
0.00343527
0.0038031
0.00190926
0.00189334
0.00188535
0.00188535
0.00189334
0.00190926
0.00193299
0.00196437
0.00200316
0.00204914
0.00210202
0.00216152
0.00222733
0.00229916
0.0023767
0.00245967
0.00254781
0.00264088
0.00273875
0.00284137
0.00294887
0.00306152
0.00317973
0.00330382
0.00343373
0.00356882
0.00370789
0.00406415
0.0021989
0.0021836
0.00217593
0.00217593
0.0021836
0.0021989
0.00222173
0.00225196
0.00228942
0.00233391
0.0023852
0.00244307
0.00250725
0.00257749
0.00265356
0.0027352
0.00282222
0.00291445
0.00301181
0.00311428
0.00322194
0.00333492
0.0034533
0.003577
0.00370563
0.00383855
0.00397499
0.00432055
0.00248174
0.00246687
0.00245942
0.00245941
0.00246687
0.00248173
0.00250394
0.00253337
0.0025699
0.00261334
0.00266352
0.00272023
0.00278326
0.00285239
0.00292742
0.00300814
0.00309438
0.00318601
0.00328295
0.00338516
0.00349261
0.00360528
0.00372303
0.00384561
0.0039726
0.00410348
0.00423778
0.00457324
0.0027595
0.00274494
0.00273765
0.00273765
0.00274494
0.0027595
0.00278125
0.00281011
0.00284594
0.00288862
0.00293797
0.00299383
0.00305599
0.00312427
0.00319849
0.00327848
0.00336407
0.00345514
0.00355158
0.0036533
0.00376019
0.00387211
0.00398884
0.00411007
0.00423544
0.00436454
0.00449701
0.00482291
0.00303321
0.0030189
0.00301172
0.00301172
0.0030189
0.00303321
0.00305461
0.00308302
0.00311832
0.00316039
0.00320908
0.00326424
0.00332569
0.00339327
0.0034668
0.00354612
0.00363108
0.00372154
0.00381736
0.0039184
0.0040245
0.00413547
0.00425104
0.00437092
0.00449479
0.00462233
0.00475323
0.00507007
0.00330344
0.00328932
0.00328225
0.00328225
0.00328932
0.00330344
0.00332455
0.00335258
0.00338743
0.00342899
0.00347712
0.00353168
0.00359251
0.00365945
0.00373234
0.00381101
0.00389532
0.00398511
0.00408022
0.00418048
0.00428569
0.00439563
0.00451004
0.00462866
0.00475118
0.00487735
0.00500686
0.0053151
0.00357051
0.00355656
0.00354958
0.00354958
0.00355656
0.00357051
0.00359137
0.00361907
0.00365354
0.00369464
0.00374227
0.00379629
0.00385654
0.00392288
0.00399515
0.00407319
0.00415684
0.00424592
0.00434027
0.0044397
0.00454399
0.00465292
0.00476624
0.0048837
0.00500502
0.00512995
0.00525824
0.00555836
0.00383467
0.00382088
0.00381397
0.00381397
0.00382088
0.00383467
0.00385531
0.00388272
0.00391682
0.00395752
0.00400469
0.0040582
0.00411792
0.00418369
0.00425536
0.00433277
0.00441574
0.00450412
0.0045977
0.0046963
0.00479971
0.00490768
0.00501999
0.00513639
0.00525663
0.00538048
0.00550767
0.00580013
0.00417748
0.0042178
0.00426454
0.00431758
0.00437679
0.00444202
0.00451311
0.0045899
0.00467222
0.0047599
0.00485275
0.00495055
0.00505311
0.0051602
0.00527159
0.00538704
0.00550632
0.0056292
0.00575543
0.00604066
0.00510564
0.00520271
0.00530449
0.00541077
0.00552132
0.00563593
0.00575435
0.00587638
0.00600177
0.00628018
0.00576945
0.0058833
0.00600097
0.00612225
0.0062469
0.00651891
0.00636704
0.00649106
0.00675705
0.0123034
0.0125771
0.0128538
0.00790761
0.00815197
0.00839682
0.00864233
0.00888864
0.00913591
0.00938428
0.00963391
0.00988495
0.0101375
0.0103918
0.0106479
0.010906
0.0111662
0.0114287
0.0116936
0.0119611
0.0122312
0.0125043
0.0127803
0.00711435
0.00735828
0.00760219
0.00784623
0.00809057
0.00833538
0.0085808
0.008827
0.00907412
0.00932231
0.00957173
0.00982252
0.0100748
0.0103288
0.0105846
0.0108423
0.0111021
0.0113642
0.0116286
0.0118956
0.0121653
0.0124378
0.0127133
0.00705855
0.00730258
0.00754655
0.00779062
0.00803496
0.00827973
0.00852508
0.00877118
0.00901818
0.00926621
0.00951545
0.00976602
0.0100181
0.0102718
0.0105273
0.0107847
0.0110441
0.0113058
0.0115699
0.0118364
0.0121056
0.0123777
0.0126526
0.00700864
0.00725277
0.0074968
0.0077409
0.00798524
0.00822998
0.00847529
0.0087213
0.00896819
0.00921609
0.00946516
0.00971555
0.00996741
0.0102209
0.0104761
0.0107332
0.0109924
0.0112537
0.0115174
0.0117836
0.0120524
0.012324
0.0125985
0.00696473
0.00720894
0.00745303
0.00769716
0.00794151
0.00818624
0.0084315
0.00867745
0.00892424
0.00917203
0.00942097
0.0096712
0.00992288
0.0101761
0.0104311
0.010688
0.0109469
0.011208
0.0114714
0.0117372
0.0120057
0.0122769
0.0125511
0.00170907
0.00200317
0.00228943
0.0025699
0.00284595
0.00311833
0.00338744
0.00365354
0.00391683
0.00417749
0.00443571
0.00469168
0.00494559
0.00519766
0.00544807
0.00569704
0.00594475
0.0061914
0.00643719
0.00668229
0.0069269
0.00717119
0.00741534
0.00765951
0.00790387
0.00814858
0.00839381
0.0086397
0.00888642
0.00913412
0.00938294
0.00963304
0.00988456
0.0101377
0.0103925
0.0106491
0.0109078
0.0111686
0.0114318
0.0116973
0.0119655
0.0122364
0.0125102
0.0016684
0.00196437
0.00225197
0.00253338
0.00281011
0.00308303
0.00335259
0.00361908
0.00388273
0.00414371
0.00440223
0.00465848
0.00491265
0.00516495
0.00541558
0.00566474
0.00591262
0.00615942
0.00640534
0.00665056
0.00689525
0.00713961
0.00738381
0.007628
0.00787237
0.00811708
0.00836228
0.00860814
0.0088548
0.00910242
0.00935115
0.00960114
0.00985254
0.0101055
0.0103601
0.0106166
0.0108751
0.0111358
0.0113987
0.011664
0.0119319
0.0122026
0.0124761
0.00163546
0.001933
0.00222174
0.00250394
0.00278126
0.00305462
0.00332456
0.00359138
0.00385532
0.00411657
0.00437533
0.00463181
0.00488619
0.00513868
0.00538949
0.0056388
0.00588682
0.00613375
0.00637977
0.00662508
0.00686985
0.00711426
0.0073585
0.00760272
0.0078471
0.00809181
0.00833699
0.00858281
0.00882943
0.00907699
0.00932565
0.00957555
0.00982685
0.0100797
0.0103342
0.0105906
0.0108489
0.0111094
0.0113721
0.0116373
0.011905
0.0121755
0.0124488
0.000251802
0.000432706
0.00068725
0.000987506
0.0013015
0.0016105
0.00190927
0.00219891
0.00248174
0.0027595
0.00303322
0.00330344
0.00357052
0.00383468
0.00409614
0.00435509
0.00461174
0.00486628
0.00511892
0.00536986
0.00561929
0.00586742
0.00611444
0.00636054
0.00660592
0.00685074
0.0070952
0.00733947
0.00758371
0.0078281
0.0080728
0.00831798
0.00856377
0.00881035
0.00905787
0.00930648
0.00955632
0.00980755
0.0100603
0.0103147
0.010571
0.0108292
0.0110896
0.0113522
0.0116172
0.0118848
0.0121551
0.0124283
0.000243859
0.000419768
0.00067068
0.000969568
0.00128386
0.00159374
0.00189335
0.00218361
0.00246687
0.00274495
0.0030189
0.00328933
0.00355657
0.00382088
0.00408248
0.00434156
0.00459833
0.00485298
0.00510572
0.00535674
0.00560626
0.00585446
0.00610154
0.0063477
0.00659312
0.00683798
0.00708247
0.00732676
0.00757102
0.00781542
0.00806012
0.00830528
0.00855106
0.00879762
0.00904511
0.00929368
0.00954348
0.00979466
0.0100474
0.0103017
0.0105579
0.0108161
0.0110764
0.0113389
0.0116038
0.0118713
0.0121415
0.0124146
0.00024001
0.000413397
0.000662433
0.000960586
0.001275
0.00158533
0.00188536
0.00217593
0.00245942
0.00273765
0.00301173
0.00328225
0.00354958
0.00381398
0.00407564
0.00433479
0.00459162
0.00484632
0.00509911
0.00535018
0.00559973
0.00584797
0.00609508
0.00634127
0.00658671
0.0068316
0.0070761
0.0073204
0.00756466
0.00780907
0.00805376
0.00829892
0.0085447
0.00879125
0.00903872
0.00928728
0.00953705
0.00978821
0.0100409
0.0102952
0.0105514
0.0108095
0.0110697
0.0113322
0.0115971
0.0118646
0.0121347
0.0124077
0.00024001
0.000413397
0.000662433
0.000960586
0.001275
0.00158533
0.00188536
0.00217593
0.00245942
0.00273765
0.00301173
0.00328225
0.00354958
0.00381398
0.00407564
0.00433479
0.00459161
0.00484632
0.00509911
0.00535018
0.00559973
0.00584797
0.00609508
0.00634127
0.00658671
0.0068316
0.0070761
0.0073204
0.00756467
0.00780907
0.00805376
0.00829892
0.0085447
0.00879125
0.00903872
0.00928728
0.00953705
0.00978821
0.0100409
0.0102952
0.0105514
0.0108095
0.0110697
0.0113322
0.0115971
0.0118646
0.0121347
0.0124077
0.000243859
0.000419768
0.00067068
0.000969568
0.00128386
0.00159374
0.00189335
0.00218361
0.00246687
0.00274495
0.0030189
0.00328932
0.00355657
0.00382088
0.00408248
0.00434156
0.00459833
0.00485298
0.00510572
0.00535674
0.00560626
0.00585446
0.00610154
0.0063477
0.00659312
0.00683798
0.00708247
0.00732676
0.00757102
0.00781542
0.00806012
0.00830528
0.00855106
0.00879762
0.00904511
0.00929368
0.00954348
0.00979466
0.0100474
0.0103017
0.0105579
0.0108161
0.0110764
0.0113389
0.0116038
0.0118713
0.0121415
0.0124146
0.000251802
0.000432705
0.00068725
0.000987505
0.0013015
0.0016105
0.00190926
0.0021989
0.00248174
0.0027595
0.00303322
0.00330344
0.00357052
0.00383468
0.00409614
0.00435509
0.00461174
0.00486628
0.00511892
0.00536986
0.00561929
0.00586742
0.00611444
0.00636055
0.00660592
0.00685074
0.0070952
0.00733947
0.00758371
0.00782811
0.00807281
0.00831798
0.00856377
0.00881036
0.00905787
0.00930648
0.00955632
0.00980755
0.0100603
0.0103147
0.010571
0.0108292
0.0110896
0.0113522
0.0116172
0.0118848
0.0121551
0.0124283
0.000264313
0.000452563
0.000712274
0.00101434
0.00132779
0.00163546
0.001933
0.00222174
0.00250394
0.00278125
0.00305462
0.00332455
0.00359138
0.00385531
0.00411657
0.00437533
0.00463181
0.00488619
0.00513868
0.00538949
0.0056388
0.00588682
0.00613375
0.00637977
0.00662508
0.00686985
0.00711426
0.0073585
0.00760272
0.0078471
0.00809181
0.00833699
0.00858281
0.00882943
0.00907699
0.00932565
0.00957555
0.00982685
0.0100797
0.0103342
0.0105906
0.0108489
0.0111094
0.0113721
0.0116373
0.011905
0.0121755
0.0124488
0.000281993
0.000479799
0.000745912
0.00104996
0.00136251
0.0016684
0.00196437
0.00225197
0.00253338
0.00281011
0.00308302
0.00335259
0.00361908
0.00388273
0.00414371
0.00440223
0.00465848
0.00491265
0.00516495
0.00541558
0.00566474
0.00591262
0.00615943
0.00640534
0.00665056
0.00689526
0.00713961
0.00738381
0.00762801
0.00787238
0.00811708
0.00836228
0.00860814
0.0088548
0.00910242
0.00935115
0.00960114
0.00985254
0.0101055
0.0103601
0.0106166
0.0108751
0.0111358
0.0113987
0.011664
0.0119319
0.0122026
0.0124761
0.000305554
0.000514982
0.000788315
0.00109419
0.00140536
0.00170907
0.00200317
0.00228943
0.0025699
0.00284595
0.00311833
0.00338744
0.00365354
0.00391683
0.00417749
0.00443571
0.00469168
0.00494559
0.00519766
0.00544807
0.00569704
0.00594475
0.0061914
0.00643719
0.0066823
0.00692691
0.0071712
0.00741534
0.00765951
0.00790387
0.00814858
0.00839381
0.0086397
0.00888642
0.00913412
0.00938294
0.00963304
0.00988456
0.0101377
0.0103925
0.0106491
0.0109078
0.0111686
0.0114318
0.0116973
0.0119655
0.0122364
0.0125102
0.000336187
0.000558802
0.000839552
0.00114674
0.001456
0.00175714
0.00204915
0.00233391
0.00261334
0.00288863
0.0031604
0.003429
0.00369465
0.00395753
0.00421781
0.00447567
0.00473132
0.00498493
0.00523672
0.00548688
0.00573562
0.00598313
0.00622961
0.00647524
0.00672022
0.00696473
0.00720894
0.00745303
0.00769717
0.00794152
0.00818624
0.0084315
0.00867745
0.00892424
0.00917203
0.00942097
0.0096712
0.00992288
0.0101761
0.0104311
0.010688
0.0109469
0.011208
0.0114714
0.0117372
0.0120057
0.0122769
0.0125511
0.000375142
0.000611831
0.000899532
0.00120724
0.001514
0.00181228
0.00210203
0.00238521
0.00266352
0.00293798
0.00320909
0.00347713
0.00374228
0.0040047
0.00426455
0.00452202
0.00477729
0.00503056
0.00528203
0.00553191
0.00578039
0.00602767
0.00627395
0.00651941
0.00676425
0.00700864
0.00725277
0.0074968
0.0077409
0.00798524
0.00822999
0.00847529
0.0087213
0.00896819
0.00921609
0.00946517
0.00971556
0.00996741
0.0102209
0.0104761
0.0107332
0.0109924
0.0112537
0.0115174
0.0117836
0.0120524
0.012324
0.0125985
0.000423511