/*--------------------------------*- C++ -*----------------------------------*\
  =========                 |
  \\      /  F ield         | OpenFOAM: The Open Source CFD Toolbox
   \\    /   O peration     | Website:  https://openfoam.org
    \\  /    A nd           | Version:  7
     \\/     M anipulation  |
\*---------------------------------------------------------------------------*/
FoamFile
{
    version     2.0;
    format      ascii;
    class       volVectorField;
    location    "236000";
    object      U;
}
// * * * * * * * * * * * * * * * * * * * * * * * * * * * * * * * * * * * * * //

dimensions      [0 1 -1 0 0 0 0];

internalField   nonuniform List<vector> 
4838
(
(2.17444e-18 -5.99559e-19 -0.0158262)
(2.28439e-18 -7.11992e-19 -0.0158324)
(2.38585e-18 -6.50412e-19 -0.0158382)
(2.51118e-18 -5.29921e-19 -0.0158434)
(2.54781e-18 -8.04261e-19 -0.0158481)
(2.17462e-18 -1.13752e-18 -0.0158524)
(1.65345e-18 -1.37514e-18 -0.0158562)
(1.44786e-18 -1.277e-18 -0.0158595)
(1.47897e-18 -9.56107e-19 -0.0158624)
(1.25863e-18 -6.66127e-19 -0.0158649)
(1.2618e-18 -4.32679e-19 -0.015867)
(1.58773e-18 -6.34594e-19 -0.0158688)
(1.52755e-18 -9.24917e-19 -0.0158703)
(1.50179e-18 -1.00955e-18 -0.0158715)
(2.31415e-18 -1.00637e-18 -0.0158724)
(3.31501e-18 -1.76104e-18 -0.0158732)
(3.17485e-18 -2.80524e-18 -0.0158738)
(2.40142e-18 -3.7825e-18 -0.0158743)
(1.85406e-18 -4.33789e-18 -0.0158747)
(1.51863e-18 -4.58923e-18 -0.015875)
(8.49229e-19 -4.68794e-18 -0.0158752)
(4.31082e-19 -4.69549e-18 -0.0158753)
(3.5862e-19 -4.70884e-18 -0.0158755)
(-7.32366e-20 -4.78103e-18 -0.0158755)
(-5.65712e-19 -4.84836e-18 -0.0158756)
(-1.22671e-18 -4.73856e-18 -0.0158756)
(-1.82972e-18 -4.54793e-18 -0.0158755)
(-2.2184e-18 -4.15565e-18 -0.0158755)
(-2.51747e-18 -3.77533e-18 -0.0158753)
(-2.65342e-18 -3.36351e-18 -0.0158752)
(-3.34675e-18 -2.77835e-18 -0.015875)
(-4.20316e-18 -1.88748e-18 -0.0158747)
(-4.16673e-18 -9.22283e-19 -0.0158743)
(-3.76093e-18 -4.95541e-20 -0.0158738)
(-3.64801e-18 5.33358e-19 -0.0158732)
(-3.25611e-18 1.13593e-18 -0.0158724)
(-2.4351e-18 1.21914e-18 -0.0158715)
(-1.97865e-18 1.27128e-18 -0.0158703)
(-2.01298e-18 9.81086e-19 -0.0158688)
(-2.25355e-18 7.37503e-19 -0.015867)
(-2.3761e-18 7.34263e-19 -0.0158649)
(-2.30786e-18 9.65722e-19 -0.0158624)
(-1.926e-18 1.14034e-18 -0.0158595)
(-1.55031e-18 8.88048e-19 -0.0158562)
(-1.89788e-18 8.66552e-19 -0.0158524)
(-2.25454e-18 1.06712e-18 -0.0158481)
(-1.83714e-18 9.89936e-19 -0.0158434)
(-1.33662e-18 5.65965e-19 -0.0158382)
(-1.12394e-18 1.9369e-19 -0.0158324)
(-9.67551e-19 5.26336e-20 -0.0158262)
(1.59964e-18 -5.82405e-19 -0.0158153)
(1.90205e-18 -8.0596e-19 -0.0158217)
(2.15974e-18 -8.89673e-19 -0.0158278)
(2.42586e-18 -9.51037e-19 -0.0158335)
(2.59895e-18 -1.12803e-18 -0.0158388)
(2.4053e-18 -1.42094e-18 -0.0158436)
(1.96099e-18 -1.48e-18 -0.015848)
(1.69865e-18 -1.22157e-18 -0.0158519)
(1.55883e-18 -9.86435e-19 -0.0158554)
(1.37718e-18 -1.0245e-18 -0.0158585)
(1.39289e-18 -8.14187e-19 -0.0158612)
(1.63653e-18 -6.98869e-19 -0.0158636)
(1.59235e-18 -7.28015e-19 -0.0158656)
(1.51551e-18 -7.44523e-19 -0.0158673)
(1.94158e-18 -7.74579e-19 -0.0158687)
(2.59503e-18 -1.51739e-18 -0.0158699)
(2.31953e-18 -2.74274e-18 -0.0158709)
(1.69052e-18 -3.58715e-18 -0.0158717)
(1.73512e-18 -3.91061e-18 -0.0158723)
(1.84733e-18 -3.99829e-18 -0.0158728)
(1.38744e-18 -4.1846e-18 -0.0158732)
(7.89082e-19 -3.97134e-18 -0.0158735)
(2.31212e-19 -4.12084e-18 -0.0158737)
(-5.1119e-19 -4.45561e-18 -0.0158738)
(-8.61529e-19 -4.62467e-18 -0.0158739)
(-1.19712e-18 -4.61199e-18 -0.0158739)
(-1.45915e-18 -4.17664e-18 -0.0158738)
(-1.77185e-18 -3.73587e-18 -0.0158737)
(-2.43301e-18 -3.29282e-18 -0.0158735)
(-2.76508e-18 -2.97684e-18 -0.0158732)
(-3.27322e-18 -2.76907e-18 -0.0158728)
(-4.10525e-18 -1.83904e-18 -0.0158723)
(-4.46783e-18 -8.10152e-19 -0.0158717)
(-4.17602e-18 -2.96923e-19 -0.0158709)
(-3.52309e-18 4.96831e-20 -0.0158699)
(-2.93048e-18 5.77091e-19 -0.0158687)
(-2.5674e-18 6.40583e-19 -0.0158673)
(-2.26834e-18 3.0564e-19 -0.0158656)
(-2.14725e-18 1.19162e-19 -0.0158636)
(-2.1518e-18 1.07405e-19 -0.0158612)
(-2.17612e-18 2.59289e-19 -0.0158585)
(-2.21905e-18 4.82582e-19 -0.0158554)
(-2.05007e-18 7.82982e-19 -0.0158519)
(-1.88944e-18 6.67242e-19 -0.015848)
(-2.12684e-18 6.03397e-19 -0.0158436)
(-2.11982e-18 8.05304e-19 -0.0158388)
(-1.63209e-18 7.73738e-19 -0.0158335)
(-1.22091e-18 5.04144e-19 -0.0158278)
(-8.93977e-19 2.61353e-19 -0.0158217)
(-7.55645e-19 9.60865e-21 -0.0158153)
(9.54976e-19 -3.61484e-19 -0.0158025)
(1.43747e-18 -3.273e-19 -0.0158096)
(1.79978e-18 -3.4252e-19 -0.0158162)
(1.99348e-18 -5.80844e-19 -0.0158224)
(2.18014e-18 -7.90983e-19 -0.0158282)
(2.31551e-18 -1.28939e-18 -0.0158335)
(2.28417e-18 -1.42398e-18 -0.0158384)
(2.14092e-18 -1.43082e-18 -0.0158429)
(1.78893e-18 -1.52925e-18 -0.015847)
(1.41417e-18 -1.60528e-18 -0.0158506)
(1.45206e-18 -1.26949e-18 -0.0158539)
(1.80939e-18 -8.74716e-19 -0.0158568)
(1.76063e-18 -8.75227e-19 -0.0158593)
(1.45386e-18 -8.83203e-19 -0.0158615)
(1.54679e-18 -9.30244e-19 -0.0158634)
(2.05765e-18 -1.28566e-18 -0.0158651)
(2.0542e-18 -1.9555e-18 -0.0158664)
(1.60882e-18 -2.21655e-18 -0.0158676)
(1.74616e-18 -2.343e-18 -0.0158685)
(1.92461e-18 -2.60999e-18 -0.0158693)
(1.52597e-18 -3.11256e-18 -0.0158699)
(8.56819e-19 -3.39315e-18 -0.0158703)
(-1.01536e-19 -3.65731e-18 -0.0158706)
(-9.06855e-19 -3.6643e-18 -0.0158709)
(-9.70302e-19 -3.47414e-18 -0.015871)
(-8.18115e-19 -3.65468e-18 -0.015871)
(-9.61906e-19 -3.52954e-18 -0.0158709)
(-1.6416e-18 -3.57401e-18 -0.0158706)
(-2.34666e-18 -3.26646e-18 -0.0158703)
(-2.81355e-18 -2.85795e-18 -0.0158699)
(-3.42859e-18 -2.56333e-18 -0.0158693)
(-3.93049e-18 -1.93897e-18 -0.0158685)
(-4.12386e-18 -8.71548e-19 -0.0158676)
(-3.96237e-18 -9.75402e-20 -0.0158664)
(-3.50151e-18 3.88563e-19 -0.0158651)
(-3.19401e-18 5.13089e-19 -0.0158634)
(-3.00519e-18 4.83194e-19 -0.0158615)
(-2.53197e-18 1.21468e-19 -0.0158593)
(-2.17791e-18 -8.0412e-20 -0.0158568)
(-2.19273e-18 -1.056e-19 -0.0158539)
(-2.1884e-18 -2.99333e-20 -0.0158506)
(-1.85357e-18 1.43162e-20 -0.015847)
(-1.57642e-18 2.07324e-19 -0.0158429)
(-1.77576e-18 2.85439e-19 -0.0158384)
(-1.93994e-18 4.80491e-19 -0.0158335)
(-1.72149e-18 7.32911e-19 -0.0158282)
(-1.2916e-18 6.6445e-19 -0.0158224)
(-9.32761e-19 4.22913e-19 -0.0158162)
(-8.02889e-19 4.24004e-19 -0.0158096)
(-1.01846e-18 2.56585e-19 -0.0158025)
(9.43617e-19 1.47169e-19 -0.0157883)
(1.08596e-18 2.62066e-19 -0.0157961)
(1.3647e-18 3.83742e-19 -0.0158033)
(1.65529e-18 2.72187e-19 -0.01581)
(1.63255e-18 -4.50121e-20 -0.0158163)
(1.63829e-18 -6.17799e-19 -0.0158222)
(1.82248e-18 -1.0054e-18 -0.0158276)
(1.7787e-18 -1.47438e-18 -0.0158326)
(1.67218e-18 -1.81301e-18 -0.0158372)
(1.71042e-18 -1.67154e-18 -0.0158414)
(1.95773e-18 -1.16641e-18 -0.0158451)
(2.05352e-18 -1.02271e-18 -0.0158485)
(1.91174e-18 -1.33299e-18 -0.0158516)
(1.68965e-18 -1.40538e-18 -0.0158542)
(1.59079e-18 -1.14491e-18 -0.0158566)
(1.92866e-18 -1.03219e-18 -0.0158586)
(1.96666e-18 -1.24765e-18 -0.0158604)
(1.59573e-18 -1.41251e-18 -0.0158619)
(1.79888e-18 -1.46588e-18 -0.0158631)
(1.99838e-18 -1.89175e-18 -0.0158642)
(1.4584e-18 -2.49008e-18 -0.015865)
(7.73894e-19 -3.00584e-18 -0.0158656)
(1.62373e-19 -3.36505e-18 -0.0158661)
(-5.67771e-19 -3.01717e-18 -0.0158664)
(-1.32354e-18 -2.67862e-18 -0.0158666)
(-1.62552e-18 -2.91269e-18 -0.0158666)
(-1.4626e-18 -3.36342e-18 -0.0158664)
(-1.55034e-18 -3.63317e-18 -0.0158661)
(-1.96847e-18 -3.32113e-18 -0.0158656)
(-2.52239e-18 -3.06569e-18 -0.015865)
(-3.15162e-18 -2.71986e-18 -0.0158642)
(-3.47021e-18 -2.06671e-18 -0.0158631)
(-3.71387e-18 -1.14337e-18 -0.0158619)
(-3.80618e-18 -3.47017e-19 -0.0158604)
(-3.49386e-18 2.31848e-19 -0.0158586)
(-3.31519e-18 4.96241e-19 -0.0158566)
(-3.18808e-18 7.39144e-19 -0.0158542)
(-2.67871e-18 7.9918e-19 -0.0158516)
(-2.15949e-18 6.72578e-19 -0.0158485)
(-1.96461e-18 6.55186e-19 -0.0158451)
(-1.7267e-18 8.05355e-19 -0.0158414)
(-1.51009e-18 9.50061e-19 -0.0158372)
(-1.64979e-18 6.97298e-19 -0.0158326)
(-1.77092e-18 4.61116e-19 -0.0158276)
(-1.57716e-18 4.51623e-19 -0.0158222)
(-1.39846e-18 5.05952e-19 -0.0158163)
(-1.16232e-18 3.09082e-19 -0.01581)
(-7.86462e-19 -4.38572e-20 -0.0158033)
(-7.55494e-19 -9.66112e-20 -0.0157961)
(-8.7787e-19 -4.84224e-20 -0.0157883)
(1.03741e-18 3.19926e-19 -0.0157729)
(1.20481e-18 5.38419e-19 -0.0157813)
(1.29699e-18 6.2981e-19 -0.0157891)
(1.32199e-18 4.62692e-19 -0.0157964)
(1.25791e-18 2.0028e-19 -0.0158032)
(1.11887e-18 -9.68427e-20 -0.0158096)
(1.18956e-18 -5.22763e-19 -0.0158155)
(1.22959e-18 -7.76289e-19 -0.015821)
(1.38848e-18 -8.51069e-19 -0.0158261)
(1.70684e-18 -7.74586e-19 -0.0158308)
(1.85507e-18 -7.08098e-19 -0.015835)
(1.6903e-18 -1.07902e-18 -0.0158389)
(1.56675e-18 -1.51981e-18 -0.0158424)
(1.87864e-18 -1.65252e-18 -0.0158455)
(2.09364e-18 -1.1823e-18 -0.0158482)
(2.2859e-18 -9.498e-19 -0.0158506)
(2.24134e-18 -1.16613e-18 -0.0158528)
(1.82681e-18 -1.31494e-18 -0.0158546)
(1.79025e-18 -1.34616e-18 -0.0158561)
(1.81267e-18 -1.97724e-18 -0.0158574)
(1.24779e-18 -2.62244e-18 -0.0158585)
(3.46733e-19 -3.18119e-18 -0.0158593)
(-8.171e-20 -3.69102e-18 -0.0158599)
(-4.20432e-19 -3.72287e-18 -0.0158603)
(-1.28427e-18 -3.36216e-18 -0.0158605)
(-1.85813e-18 -2.94103e-18 -0.0158605)
(-1.70007e-18 -2.7868e-18 -0.0158603)
(-1.46175e-18 -2.75998e-18 -0.0158599)
(-1.82115e-18 -2.57633e-18 -0.0158593)
(-2.60238e-18 -2.44089e-18 -0.0158585)
(-3.03086e-18 -2.153e-18 -0.0158574)
(-2.98946e-18 -1.69289e-18 -0.0158561)
(-3.12969e-18 -1.26291e-18 -0.0158546)
(-3.19537e-18 -5.43851e-19 -0.0158528)
(-3.06463e-18 1.87539e-19 -0.0158506)
(-3.08721e-18 8.36102e-19 -0.0158482)
(-2.85303e-18 1.42328e-18 -0.0158455)
(-2.31788e-18 1.68736e-18 -0.0158424)
(-1.95352e-18 1.52534e-18 -0.0158389)
(-1.71213e-18 1.33464e-18 -0.015835)
(-1.47352e-18 1.34386e-18 -0.0158308)
(-1.74568e-18 1.28496e-18 -0.0158261)
(-2.06638e-18 1.11147e-18 -0.015821)
(-1.81225e-18 1.02135e-18 -0.0158155)
(-1.48437e-18 9.77773e-19 -0.0158096)
(-1.38284e-18 8.35384e-19 -0.0158032)
(-1.07039e-18 7.06862e-19 -0.0157964)
(-5.99902e-19 4.41977e-19 -0.0157891)
(-4.81922e-19 2.26063e-20 -0.0157813)
(-5.35451e-19 -1.3537e-19 -0.0157729)
(9.33631e-19 2.85834e-19 -0.0157563)
(1.10729e-18 4.67282e-19 -0.0157653)
(1.23922e-18 2.97879e-19 -0.0157737)
(1.33565e-18 1.78633e-19 -0.0157815)
(1.21674e-18 9.00512e-21 -0.0157889)
(8.57003e-19 -2.08703e-19 -0.0157958)
(9.30988e-19 -4.1951e-19 -0.0158023)
(1.09125e-18 -3.07576e-19 -0.0158082)
(1.09674e-18 -1.2146e-19 -0.0158138)
(1.37838e-18 -1.43457e-19 -0.0158189)
(1.55493e-18 -2.35719e-19 -0.0158236)
(1.27879e-18 -6.1993e-19 -0.0158279)
(1.13863e-18 -9.58371e-19 -0.0158318)
(1.85379e-18 -8.1246e-19 -0.0158353)
(2.38151e-18 -5.17845e-19 -0.0158384)
(2.26293e-18 -6.08256e-19 -0.0158412)
(2.16579e-18 -1.2714e-18 -0.0158437)
(1.97377e-18 -1.64982e-18 -0.0158458)
(1.67631e-18 -1.9529e-18 -0.0158476)
(1.42691e-18 -2.4617e-18 -0.0158492)
(8.33286e-19 -2.92806e-18 -0.0158504)
(-1.96652e-19 -3.24086e-18 -0.0158514)
(-5.12783e-19 -3.3951e-18 -0.0158521)
(-3.37759e-19 -3.4459e-18 -0.0158526)
(-7.95434e-19 -3.21301e-18 -0.0158529)
(-1.36426e-18 -2.64379e-18 -0.0158529)
(-1.28754e-18 -2.12379e-18 -0.0158526)
(-1.13605e-18 -1.95556e-18 -0.0158521)
(-1.65468e-18 -1.95985e-18 -0.0158514)
(-2.38678e-18 -1.53626e-18 -0.0158504)
(-2.73644e-18 -8.97562e-19 -0.0158492)
(-2.93261e-18 -4.44736e-19 -0.0158476)
(-3.01108e-18 -3.1193e-19 -0.0158458)
(-2.70396e-18 5.18135e-20 -0.0158437)
(-2.38976e-18 4.06491e-19 -0.0158412)
(-2.31418e-18 1.0499e-18 -0.0158384)
(-2.3773e-18 1.70131e-18 -0.0158353)
(-2.46097e-18 2.03407e-18 -0.0158318)
(-2.3704e-18 1.67688e-18 -0.0158279)
(-1.9292e-18 1.22799e-18 -0.0158236)
(-1.76315e-18 8.09377e-19 -0.0158189)
(-2.0463e-18 6.23853e-19 -0.0158138)
(-1.89692e-18 6.91379e-19 -0.0158082)
(-1.43568e-18 7.44772e-19 -0.0158023)
(-1.30648e-18 8.14712e-19 -0.0157958)
(-1.14088e-18 8.96072e-19 -0.0157889)
(-6.16339e-19 9.60677e-19 -0.0157815)
(-4.54009e-19 9.82035e-19 -0.0157737)
(-7.01913e-19 6.8273e-19 -0.0157653)
(-7.91725e-19 1.70243e-19 -0.0157563)
(8.54033e-19 6.85097e-19 -0.0157386)
(9.16658e-19 7.29494e-19 -0.0157482)
(8.98563e-19 4.289e-19 -0.0157571)
(1.06744e-18 2.71619e-19 -0.0157655)
(1.17655e-18 -1.19647e-19 -0.0157734)
(7.81488e-19 -4.01072e-19 -0.0157808)
(7.52339e-19 -3.57684e-19 -0.0157878)
(1.19026e-18 -2.88119e-19 -0.0157942)
(1.19636e-18 -2.72855e-19 -0.0158002)
(1.24772e-18 -1.54312e-19 -0.0158058)
(1.34554e-18 -3.32913e-20 -0.0158109)
(9.66013e-19 -1.3398e-19 -0.0158156)
(9.18326e-19 -1.17167e-19 -0.0158199)
(1.82082e-18 3.13224e-19 -0.0158238)
(2.36299e-18 2.76935e-19 -0.0158273)
(1.85904e-18 -1.93995e-19 -0.0158304)
(1.55761e-18 -1.09533e-18 -0.0158332)
(1.55174e-18 -1.70638e-18 -0.0158356)
(1.45325e-18 -2.27341e-18 -0.0158377)
(1.37591e-18 -2.66487e-18 -0.0158394)
(8.83575e-19 -2.99393e-18 -0.0158408)
(-1.40399e-19 -2.86336e-18 -0.015842)
(-5.08467e-19 -2.30958e-18 -0.0158428)
(-3.45775e-19 -1.97576e-18 -0.0158434)
(-6.57921e-19 -2.11009e-18 -0.0158437)
(-1.00063e-18 -1.95326e-18 -0.0158437)
(-1.03646e-18 -1.48906e-18 -0.0158434)
(-1.18891e-18 -1.38916e-18 -0.0158428)
(-1.41363e-18 -1.41332e-18 -0.015842)
(-1.70657e-18 -8.33462e-19 -0.0158408)
(-2.20247e-18 -1.61232e-19 -0.0158394)
(-2.72162e-18 2.52192e-19 -0.0158377)
(-2.86999e-18 4.44965e-19 -0.0158356)
(-2.54619e-18 6.40329e-19 -0.0158332)
(-2.14945e-18 6.43668e-19 -0.0158304)
(-2.03473e-18 8.96188e-19 -0.0158273)
(-2.27326e-18 9.45568e-19 -0.0158238)
(-2.66674e-18 1.32661e-18 -0.0158199)
(-2.75115e-18 1.31061e-18 -0.0158156)
(-2.33518e-18 1.26072e-18 -0.0158109)
(-2.11719e-18 6.80539e-19 -0.0158058)
(-1.94444e-18 4.5279e-19 -0.0158002)
(-1.61755e-18 5.26248e-19 -0.0157942)
(-1.30984e-18 4.24372e-19 -0.0157878)
(-1.09343e-18 2.37859e-19 -0.0157808)
(-6.67932e-19 4.09848e-19 -0.0157734)
(-3.10245e-19 6.16265e-19 -0.0157655)
(-5.69856e-19 7.65811e-19 -0.0157571)
(-1.01363e-18 7.06363e-19 -0.0157482)
(-8.98699e-19 1.83949e-19 -0.0157386)
(7.39417e-19 1.051e-18 -0.0157199)
(6.83123e-19 9.85078e-19 -0.01573)
(6.43842e-19 5.89351e-19 -0.0157395)
(5.98832e-19 2.53678e-19 -0.0157484)
(7.22946e-19 -1.62614e-19 -0.0157568)
(6.82281e-19 -1.06166e-19 -0.0157647)
(5.08339e-19 4.60824e-20 -0.0157721)
(6.90303e-19 -3.71932e-20 -0.015779)
(1.03938e-18 -2.27154e-19 -0.0157855)
(1.43169e-18 -9.37194e-20 -0.0157915)
(1.63381e-18 -1.43605e-19 -0.015797)
(1.19096e-18 -9.03556e-21 -0.0158021)
(1.00068e-18 4.79329e-19 -0.0158068)
(1.72747e-18 7.31293e-19 -0.015811)
(2.13026e-18 1.63418e-19 -0.0158149)
(1.34835e-18 -3.51371e-19 -0.0158183)
(8.51761e-19 -7.70234e-19 -0.0158213)
(9.24562e-19 -1.15074e-18 -0.015824)
(8.66491e-19 -1.5648e-18 -0.0158263)
(9.21547e-19 -1.95563e-18 -0.0158283)
(8.79911e-19 -2.36218e-18 -0.0158299)
(4.92813e-19 -2.18828e-18 -0.0158312)
(2.35315e-19 -1.64172e-18 -0.0158321)
(-2.3161e-19 -1.27453e-18 -0.0158328)
(-9.26073e-19 -1.36907e-18 -0.0158331)
(-8.84621e-19 -1.36965e-18 -0.0158331)
(-7.06674e-19 -9.92605e-19 -0.0158328)
(-9.50783e-19 -7.85786e-19 -0.0158321)
(-1.01923e-18 -6.03227e-19 -0.0158312)
(-1.22007e-18 -2.12388e-19 -0.0158299)
(-1.97743e-18 1.4341e-19 -0.0158283)
(-2.78114e-18 2.1758e-19 -0.0158263)
(-2.90619e-18 4.69297e-19 -0.015824)
(-2.50682e-18 7.6057e-19 -0.0158213)
(-2.07706e-18 7.88976e-19 -0.0158183)
(-2.18971e-18 7.55527e-19 -0.0158149)
(-2.44724e-18 5.89082e-19 -0.015811)
(-2.61229e-18 7.6717e-19 -0.0158068)
(-2.51551e-18 1.1029e-18 -0.0158021)
(-2.24665e-18 1.37941e-18 -0.015797)
(-2.23054e-18 1.15206e-18 -0.0157915)
(-1.78053e-18 1.11672e-18 -0.0157855)
(-1.38562e-18 1.13602e-18 -0.015779)
(-1.17895e-18 8.81495e-19 -0.0157721)
(-7.74218e-19 4.1878e-19 -0.0157647)
(-2.11905e-19 9.92447e-20 -0.0157568)
(-1.48728e-19 2.24746e-20 -0.0157484)
(-7.51797e-19 3.20245e-19 -0.0157395)
(-1.28344e-18 4.67011e-19 -0.01573)
(-9.92069e-19 3.352e-19 -0.0157199)
(9.44448e-19 6.26647e-19 -0.0157003)
(5.64728e-19 3.79845e-19 -0.0157108)
(3.82323e-19 -1.66079e-19 -0.0157208)
(3.95695e-19 -2.72231e-19 -0.0157302)
(6.76294e-19 -6.3459e-20 -0.0157391)
(8.02133e-19 -2.30785e-20 -0.0157475)
(5.7107e-19 -3.00128e-19 -0.0157554)
(4.5731e-19 -1.18418e-19 -0.0157627)
(5.86964e-19 -1.17852e-19 -0.0157696)
(9.45177e-19 -3.51188e-19 -0.015776)
(1.52074e-18 -5.89957e-19 -0.015782)
(1.71916e-18 -2.88054e-19 -0.0157874)
(1.29564e-18 2.70052e-19 -0.0157925)
(1.23883e-18 2.75505e-19 -0.015797)
(1.71928e-18 -2.36906e-19 -0.0158012)
(1.45875e-18 -4.15514e-19 -0.0158049)
(8.33841e-19 -2.65658e-19 -0.0158082)
(6.97877e-19 -5.09113e-19 -0.0158112)
(5.86588e-19 -5.88694e-19 -0.0158137)
(5.31044e-19 -6.30974e-19 -0.0158158)
(6.54637e-19 -9.7551e-19 -0.0158176)
(5.0887e-19 -9.5909e-19 -0.015819)
(3.44829e-19 -9.70133e-19 -0.0158201)
(-9.09976e-20 -9.02275e-19 -0.0158208)
(-8.67647e-19 -7.66029e-19 -0.0158211)
(-6.88823e-19 -6.75597e-19 -0.0158211)
(-3.82256e-19 -4.19905e-19 -0.0158208)
(-6.8478e-19 -1.68262e-19 -0.0158201)
(-7.09382e-19 -1.26523e-20 -0.015819)
(-1.02124e-18 -1.48491e-19 -0.0158176)
(-2.17082e-18 -8.38414e-20 -0.0158158)
(-2.88239e-18 1.6646e-19 -0.0158137)
(-2.54229e-18 6.92362e-19 -0.0158112)
(-2.1538e-18 1.04606e-18 -0.0158082)
(-2.07992e-18 1.1179e-18 -0.0158049)
(-2.37088e-18 9.20429e-19 -0.0158012)
(-2.48322e-18 8.52206e-19 -0.015797)
(-2.37346e-18 9.00985e-19 -0.0157925)
(-2.15327e-18 1.26722e-18 -0.0157874)
(-2.1978e-18 1.40054e-18 -0.015782)
(-2.02654e-18 1.39666e-18 -0.015776)
(-1.31448e-18 1.44929e-18 -0.0157696)
(-1.22413e-18 1.47943e-18 -0.0157627)
(-1.24301e-18 1.36938e-18 -0.0157554)
(-8.10613e-19 9.98351e-19 -0.0157475)
(-3.31766e-19 2.91782e-19 -0.0157391)
(-3.62498e-19 -3.54013e-19 -0.0157302)
(-9.98264e-19 -3.31384e-19 -0.0157208)
(-1.26478e-18 -8.95987e-20 -0.0157108)
(-7.68779e-19 1.11492e-19 -0.0157003)
(1.13055e-18 -2.69599e-20 -0.0156796)
(6.72652e-19 -5.64776e-19 -0.0156907)
(3.62309e-19 -6.63533e-19 -0.0157011)
(4.40844e-19 -3.45592e-19 -0.015711)
(4.93548e-19 -1.27492e-19 -0.0157204)
(4.53506e-19 -6.07346e-19 -0.0157292)
(5.68413e-19 -9.07263e-19 -0.0157375)
(7.00737e-19 -5.58296e-19 -0.0157453)
(4.25942e-19 -4.16913e-19 -0.0157526)
(4.78145e-19 -3.71233e-19 -0.0157594)
(1.26472e-18 -1.46746e-19 -0.0157658)
(1.92991e-18 1.51447e-19 -0.0157716)
(1.62631e-18 2.11837e-19 -0.015777)
(1.19486e-18 1.60572e-19 -0.0157819)
(1.54025e-18 -4.4404e-20 -0.0157863)
(1.55113e-18 -4.04018e-20 -0.0157904)
(7.88691e-19 1.35205e-19 -0.0157939)
(5.34619e-19 -3.24613e-19 -0.0157971)
(6.64661e-19 -3.85837e-19 -0.0157998)
(4.52166e-19 -3.67271e-19 -0.0158022)
(5.08977e-19 -5.49245e-19 -0.0158041)
(4.6176e-19 -1.58632e-19 -0.0158056)
(2.99034e-19 3.97894e-21 -0.0158068)
(-4.55607e-20 -7.60106e-20 -0.0158075)
(-8.45323e-19 3.58797e-20 -0.0158079)
(-5.80144e-19 1.87138e-19 -0.0158079)
(-9.08464e-20 2.25041e-19 -0.0158075)
(-4.07796e-19 3.96218e-19 -0.0158068)
(-8.49028e-19 4.19719e-19 -0.0158056)
(-1.38371e-18 -8.58225e-20 -0.0158041)
(-2.06023e-18 -1.57051e-19 -0.0158022)
(-2.29172e-18 6.34248e-19 -0.0157998)
(-2.06285e-18 1.18898e-18 -0.0157971)
(-2.06019e-18 1.35995e-18 -0.0157939)
(-2.25126e-18 1.33056e-18 -0.0157904)
(-2.55792e-18 1.29715e-18 -0.0157863)
(-2.44636e-18 1.35597e-18 -0.0157819)
(-2.10748e-18 1.4032e-18 -0.015777)
(-1.98697e-18 1.63603e-18 -0.0157716)
(-2.12511e-18 1.35859e-18 -0.0157658)
(-1.76722e-18 1.37121e-18 -0.0157594)
(-1.23041e-18 1.30231e-18 -0.0157526)
(-1.31548e-18 1.09789e-18 -0.0157453)
(-1.23825e-18 8.14983e-19 -0.0157375)
(-8.86812e-19 6.21082e-19 -0.0157292)
(-7.00113e-19 1.63347e-19 -0.0157204)
(-7.73831e-19 -1.97232e-19 -0.015711)
(-1.0708e-18 -3.42526e-19 -0.0157011)
(-8.59961e-19 -2.04427e-19 -0.0156907)
(-3.81986e-19 -2.13449e-19 -0.0156796)
(8.71902e-19 -1.64574e-20 -0.0156581)
(7.47686e-19 -7.22561e-19 -0.0156696)
(5.52218e-19 -5.13873e-19 -0.0156805)
(4.95454e-19 -2.69346e-19 -0.0156908)
(2.62305e-19 -6.63679e-20 -0.0157007)
(-9.72594e-22 -3.04723e-19 -0.0157099)
(2.20146e-19 -2.57317e-19 -0.0157187)
(7.05648e-19 -3.58904e-19 -0.0157269)
(6.009e-19 -2.06561e-19 -0.0157346)
(4.91537e-19 2.53603e-19 -0.0157418)
(1.05441e-18 7.5282e-19 -0.0157485)
(1.67505e-18 9.18654e-19 -0.0157547)
(1.45027e-18 6.07761e-19 -0.0157604)
(9.63905e-19 3.02122e-19 -0.0157656)
(1.40196e-18 7.68833e-20 -0.0157703)
(1.78629e-18 -1.09747e-19 -0.0157746)
(6.95041e-19 -1.5235e-19 -0.0157785)
(1.18399e-19 -5.86487e-19 -0.0157818)
(4.59216e-19 -5.14684e-19 -0.0157848)
(3.56898e-19 -5.60194e-19 -0.0157873)
(8.17804e-19 -3.96118e-19 -0.0157894)
(1.01966e-18 -5.97026e-20 -0.015791)
(4.33837e-19 3.46127e-19 -0.0157923)
(-8.19174e-20 4.45886e-20 -0.0157931)
(-7.5671e-19 3.49953e-20 -0.0157935)
(-5.31117e-19 4.30369e-19 -0.0157935)
(-4.93762e-20 5.43846e-19 -0.0157931)
(-3.93875e-19 6.07169e-19 -0.0157923)
(-1.11692e-18 1.98539e-19 -0.015791)
(-1.64901e-18 -2.31331e-19 -0.0157894)
(-1.72624e-18 -2.5635e-19 -0.0157873)
(-1.80501e-18 2.19636e-19 -0.0157848)
(-1.97695e-18 6.64938e-19 -0.0157818)
(-2.17362e-18 9.68535e-19 -0.0157785)
(-2.35036e-18 1.10983e-18 -0.0157746)
(-2.47202e-18 1.22504e-18 -0.0157703)
(-2.2152e-18 1.77716e-18 -0.0157656)
(-1.90276e-18 1.76715e-18 -0.0157604)
(-2.15701e-18 1.75337e-18 -0.0157547)
(-2.3669e-18 1.42368e-18 -0.0157485)
(-1.68019e-18 1.3158e-18 -0.0157418)
(-1.2791e-18 1.14305e-18 -0.0157346)
(-1.55822e-18 1.17468e-18 -0.0157269)
(-1.38061e-18 8.69485e-19 -0.0157187)
(-9.66482e-19 3.90725e-19 -0.0157099)
(-7.16206e-19 -1.12219e-19 -0.0157007)
(-6.5388e-19 -2.29137e-19 -0.0156908)
(-7.79671e-19 -5.73478e-20 -0.0156805)
(-5.28291e-19 2.62264e-20 -0.0156696)
(-1.07781e-19 -2.45703e-19 -0.0156581)
(3.85493e-19 5.98691e-20 -0.0156358)
(3.73925e-19 -3.62268e-19 -0.0156477)
(5.11886e-19 -1.83475e-19 -0.015659)
(7.22098e-19 -2.84012e-19 -0.0156698)
(5.48345e-19 -1.83979e-19 -0.01568)
(6.63188e-20 -4.38728e-19 -0.0156897)
(-1.83319e-19 -3.29525e-19 -0.0156988)
(3.41405e-19 -4.93126e-19 -0.0157074)
(7.36817e-19 -1.51651e-19 -0.0157155)
(7.5565e-19 2.67273e-19 -0.0157231)
(1.10755e-18 7.89619e-19 -0.0157301)
(1.55264e-18 9.05587e-19 -0.0157367)
(1.25923e-18 5.37068e-19 -0.0157427)
(6.75822e-19 4.03703e-20 -0.0157482)
(9.08032e-19 -5.92355e-21 -0.0157533)
(1.54805e-18 -3.21401e-19 -0.0157578)
(6.9991e-19 -6.86448e-19 -0.0157619)
(9.7444e-20 -5.86374e-19 -0.0157655)
(4.83271e-19 -7.45165e-20 -0.0157686)
(4.0391e-19 -1.012e-19 -0.0157713)
(8.20283e-19 1.20374e-19 -0.0157735)
(1.18911e-18 -1.6885e-19 -0.0157753)
(4.7387e-19 9.08422e-21 -0.0157766)
(-3.45834e-19 -2.89149e-19 -0.0157775)
(-6.25563e-19 -4.31969e-19 -0.0157779)
(-1.45014e-19 -3.07368e-21 -0.0157779)
(1.6955e-19 3.94279e-19 -0.0157775)
(-6.8644e-19 2.66729e-19 -0.0157766)
(-1.67217e-18 -4.33096e-20 -0.0157753)
(-1.86875e-18 -2.10176e-19 -0.0157735)
(-1.7469e-18 -4.81838e-19 -0.0157713)
(-1.69913e-18 -6.58177e-19 -0.0157686)
(-1.69558e-18 -3.55926e-19 -0.0157655)
(-1.95097e-18 1.74096e-19 -0.0157619)
(-2.27543e-18 6.48526e-19 -0.0157578)
(-2.14779e-18 5.81141e-19 -0.0157533)
(-1.90322e-18 1.24638e-18 -0.0157482)
(-2.1641e-18 1.35759e-18 -0.0157427)
(-2.58034e-18 1.0645e-18 -0.0157367)
(-2.39588e-18 1.06942e-18 -0.0157301)
(-1.59048e-18 9.40329e-19 -0.0157231)
(-1.30383e-18 6.96266e-19 -0.0157155)
(-1.40334e-18 1.38859e-18 -0.0157074)
(-1.28542e-18 1.45488e-18 -0.0156988)
(-1.05347e-18 8.13575e-19 -0.0156897)
(-7.22139e-19 2.57807e-19 -0.01568)
(-4.85189e-19 -4.2411e-20 -0.0156698)
(-4.69025e-19 1.63104e-19 -0.015659)
(-2.38612e-19 2.24796e-19 -0.0156477)
(2.15955e-20 1.03154e-20 -0.0156358)
(1.34723e-19 1.07361e-19 -0.0156126)
(1.48689e-19 1.58728e-19 -0.0156249)
(8.77743e-20 1.09138e-19 -0.0156366)
(3.0458e-19 -1.58098e-19 -0.0156478)
(4.27961e-19 -4.79916e-19 -0.0156584)
(2.18208e-19 -1.06314e-18 -0.0156685)
(-4.23234e-20 -8.92519e-19 -0.0156781)
(2.63309e-19 -5.25545e-19 -0.015687)
(8.06867e-19 -1.23064e-19 -0.0156955)
(9.63646e-19 5.1875e-20 -0.0157034)
(1.272e-18 3.34303e-19 -0.0157108)
(1.53135e-18 2.64932e-19 -0.0157177)
(1.10439e-18 -2.1598e-19 -0.015724)
(6.03604e-19 -4.93763e-19 -0.0157298)
(8.07826e-19 -1.41066e-19 -0.0157351)
(1.22046e-18 -7.05805e-20 -0.0157399)
(6.76076e-19 -5.45746e-19 -0.0157442)
(4.30095e-19 -1.89215e-19 -0.015748)
(6.17833e-19 2.13041e-19 -0.0157513)
(3.44076e-19 1.53623e-19 -0.0157542)
(6.14225e-19 3.89355e-19 -0.0157565)
(9.85185e-19 8.37156e-20 -0.0157584)
(4.36355e-19 -2.23708e-19 -0.0157598)
(-5.12976e-19 -2.05454e-19 -0.0157607)
(-6.33058e-19 -9.89629e-20 -0.0157612)
(1.83987e-19 -5.1624e-21 -0.0157612)
(2.40542e-19 1.88807e-19 -0.0157607)
(-8.54679e-19 -1.64566e-20 -0.0157598)
(-1.65956e-18 6.21621e-20 -0.0157584)
(-2.06301e-18 4.03183e-19 -0.0157565)
(-2.09566e-18 7.17163e-20 -0.0157542)
(-1.73675e-18 -2.59085e-19 -0.0157513)
(-1.42069e-18 -3.35677e-19 -0.015748)
(-1.59613e-18 -1.28523e-19 -0.0157442)
(-2.19823e-18 3.67229e-19 -0.0157399)
(-2.04172e-18 3.83585e-19 -0.0157351)
(-1.75866e-18 7.39577e-19 -0.0157298)
(-2.42942e-18 9.11931e-19 -0.015724)
(-2.72105e-18 6.23451e-19 -0.0157177)
(-2.24697e-18 8.44596e-19 -0.0157108)
(-1.57448e-18 8.34914e-19 -0.0157034)
(-9.33283e-19 2.73806e-19 -0.0156955)
(-9.10637e-19 1.08444e-18 -0.015687)
(-1.41905e-18 1.42445e-18 -0.0156781)
(-1.25906e-18 9.8276e-19 -0.0156685)
(-5.99059e-19 7.13183e-19 -0.0156584)
(-1.81591e-19 4.03182e-19 -0.0156478)
(-1.17487e-19 4.01339e-19 -0.0156366)
(-2.15958e-20 3.60865e-19 -0.0156249)
(-8.68422e-20 1.37241e-19 -0.0156126)
(3.26452e-20 2.67099e-19 -0.0155887)
(8.85943e-20 2.80619e-19 -0.0156013)
(-8.27049e-21 1.5541e-19 -0.0156135)
(-9.75131e-20 9.81202e-20 -0.015625)
(-9.8784e-20 -5.33873e-19 -0.015636)
(-9.79492e-20 -9.23284e-19 -0.0156465)
(4.17423e-20 -7.79022e-19 -0.0156564)
(2.10006e-19 6.40168e-21 -0.0156657)
(6.15746e-19 3.34134e-19 -0.0156745)
(7.86573e-19 3.22613e-19 -0.0156828)
(1.10931e-18 2.12165e-19 -0.0156905)
(1.34344e-18 -1.87906e-19 -0.0156977)
(1.09672e-18 -8.68189e-19 -0.0157043)
(7.55801e-19 -5.73426e-19 -0.0157104)
(9.45156e-19 1.36391e-19 -0.015716)
(1.11114e-18 2.56201e-19 -0.015721)
(5.82274e-19 -2.92628e-19 -0.0157255)
(5.01393e-19 -1.0872e-19 -0.0157295)
(6.4709e-19 7.70493e-20 -0.015733)
(4.56156e-19 1.9496e-20 -0.015736)
(6.6463e-19 2.29232e-19 -0.0157385)
(7.22877e-19 1.55341e-20 -0.0157405)
(3.1428e-19 -3.95542e-19 -0.0157419)
(-3.17169e-19 -3.1072e-19 -0.0157429)
(-5.73718e-19 1.84298e-19 -0.0157434)
(1.26624e-19 2.93506e-19 -0.0157434)
(1.87566e-19 -3.51606e-21 -0.0157429)
(-9.16863e-19 -2.00873e-19 -0.0157419)
(-1.51285e-18 -1.9157e-19 -0.0157405)
(-1.98323e-18 3.62846e-19 -0.0157385)
(-2.2397e-18 4.87687e-19 -0.015736)
(-1.84249e-18 4.38756e-19 -0.015733)
(-1.47157e-18 3.02801e-19 -0.0157295)
(-1.55022e-18 -2.08069e-20 -0.0157255)
(-2.03913e-18 2.47574e-19 -0.015721)
(-1.77163e-18 3.43191e-19 -0.015716)
(-1.67653e-18 5.90713e-19 -0.0157104)
(-2.67014e-18 8.00444e-19 -0.0157043)
(-2.66647e-18 8.76585e-19 -0.0156977)
(-1.8647e-18 9.73905e-19 -0.0156905)
(-1.37417e-18 1.22033e-18 -0.0156828)
(-7.4409e-19 5.62326e-19 -0.0156745)
(-8.34415e-19 6.56091e-19 -0.0156657)
(-1.4659e-18 1.30652e-18 -0.0156564)
(-9.49864e-19 1.1857e-18 -0.0156465)
(-1.93043e-19 1.00484e-18 -0.015636)
(3.18177e-20 8.30618e-19 -0.015625)
(-4.30432e-20 6.48375e-19 -0.0156135)
(-1.36091e-19 3.24571e-19 -0.0156013)
(-1.74353e-19 1.99863e-20 -0.0155887)
(3.09552e-21 2.10761e-19 -0.0155639)
(2.26188e-20 1.23014e-19 -0.015577)
(-2.10525e-20 3.81198e-20 -0.0155895)
(-2.59025e-19 -8.1884e-20 -0.0156014)
(-3.69977e-19 -6.65019e-19 -0.0156128)
(-3.60346e-19 -6.15675e-19 -0.0156236)
(7.59729e-20 -2.81247e-19 -0.0156339)
(3.95902e-19 3.96063e-19 -0.0156436)
(5.31378e-19 5.17307e-19 -0.0156527)
(4.54156e-19 6.77569e-19 -0.0156613)
(5.82432e-19 5.61607e-19 -0.0156693)
(7.28267e-19 -9.15411e-20 -0.0156768)
(9.52751e-19 -6.59346e-19 -0.0156837)
(1.19047e-18 -1.47945e-20 -0.01569)
(1.12565e-18 7.38678e-19 -0.0156959)
(8.12332e-19 5.35779e-19 -0.0157011)
(3.15702e-19 2.73287e-20 -0.0157058)
(5.3594e-19 1.46387e-19 -0.01571)
(6.26159e-19 2.58475e-19 -0.0157137)
(3.9746e-19 -2.40545e-20 -0.0157168)
(5.72865e-19 4.98996e-20 -0.0157194)
(5.4049e-19 -1.69648e-19 -0.0157215)
(2.05643e-19 -3.06391e-19 -0.0157231)
(-1.17901e-19 -5.93191e-19 -0.0157241)
(-2.33882e-19 -2.37588e-19 -0.0157246)
(8.06868e-20 3.03987e-19 -0.0157246)
(-1.3301e-19 -4.6891e-20 -0.0157241)
(-1.14556e-18 -5.13475e-19 -0.0157231)
(-1.41196e-18 -3.53901e-19 -0.0157215)
(-1.75641e-18 -3.13906e-20 -0.0157194)
(-2.12317e-18 2.10383e-19 -0.0157168)
(-1.75673e-18 3.5986e-19 -0.0157137)
(-1.63734e-18 3.49494e-19 -0.01571)
(-1.72221e-18 -9.35772e-20 -0.0157058)
(-1.99453e-18 1.65218e-19 -0.0157011)
(-1.68142e-18 2.46803e-19 -0.0156959)
(-1.74105e-18 -4.92436e-21 -0.01569)
(-2.66506e-18 2.57166e-19 -0.0156837)
(-2.34263e-18 8.91499e-19 -0.0156768)
(-1.46371e-18 1.26871e-18 -0.0156693)
(-1.23797e-18 1.4877e-18 -0.0156613)
(-8.24137e-19 9.40991e-19 -0.0156527)
(-7.21982e-19 4.12206e-19 -0.0156436)
(-1.08488e-18 1.17726e-18 -0.0156339)
(-6.2405e-19 1.51434e-18 -0.0156236)
(-8.02416e-20 1.08903e-18 -0.0156128)
(-3.24989e-21 8.14646e-19 -0.0156014)
(-2.59305e-19 5.83697e-19 -0.0155895)
(-3.31201e-19 1.67001e-19 -0.015577)
(-1.11585e-19 -3.31679e-20 -0.0155639)
(-6.64553e-20 1.4083e-19 -0.0155385)
(-6.04987e-21 2.22585e-20 -0.0155519)
(-5.70363e-21 -1.33758e-19 -0.0155647)
(-3.93288e-19 -2.82316e-19 -0.015577)
(-5.96932e-19 -4.96843e-19 -0.0155887)
(-5.04073e-19 -7.8032e-20 -0.0155999)
(-1.21659e-19 4.24846e-19 -0.0156105)
(3.39315e-19 3.67073e-19 -0.0156205)
(6.3569e-19 5.31125e-19 -0.01563)
(5.89047e-19 8.07019e-19 -0.0156389)
(2.64369e-19 7.31228e-19 -0.0156472)
(1.5849e-19 2.75236e-19 -0.015655)
(6.89049e-19 3.41476e-19 -0.0156621)
(1.40381e-18 8.78421e-19 -0.0156688)
(1.23814e-18 1.10312e-18 -0.0156748)
(6.48442e-19 4.90527e-19 -0.0156803)
(1.60662e-19 1.84001e-19 -0.0156852)
(4.4236e-19 5.24073e-19 -0.0156896)
(4.21913e-19 4.60059e-19 -0.0156934)
(2.16185e-19 2.07541e-19 -0.0156967)
(4.97271e-19 2.92817e-19 -0.0156994)
(4.52761e-19 2.7883e-19 -0.0157016)
(-3.79345e-20 1.68364e-19 -0.0157032)
(-3.29279e-19 -2.81422e-19 -0.0157043)
(7.09118e-20 -2.98513e-19 -0.0157048)
(3.07295e-19 1.25167e-19 -0.0157048)