/*--------------------------------*- C++ -*----------------------------------*\
  =========                 |
  \\      /  F ield         | OpenFOAM: The Open Source CFD Toolbox
   \\    /   O peration     | Website:  https://openfoam.org
    \\  /    A nd           | Version:  7
     \\/     M anipulation  |
\*---------------------------------------------------------------------------*/
FoamFile
{
    version     2.0;
    format      ascii;
    class       volScalarField;
    location    "20000";
    object      strainRate;
}
// * * * * * * * * * * * * * * * * * * * * * * * * * * * * * * * * * * * * * //

dimensions      [0 0 -1 0 0 0 0];

internalField   nonuniform List<scalar> 
4825
(
0.000212351
0.000215496
0.00020236
0.000205765
0.000209981
0.000212404
0.000214077
0.000196335
0.000197586
0.000200092
0.000202407
0.00020452
0.000201231
0.000197114
0.00019536
0.000195257
0.000195952
0.000227085
0.000212836
0.000203354
0.000197606
0.000194183
0.000291469
0.000258759
0.000235294
0.000218868
0.000207277
0.00042709
0.000360605
0.000311382
0.000275192
0.000248408
0.000690285
0.000564958
0.000469273
0.000396718
0.000341709
0.00115862
0.000943312
0.000771797
0.00063683
0.000531574
0.00190303
0.00157493
0.00129975
0.00107268
0.000888324
0.00294492
0.00250542
0.00211756
0.00178074
0.00149383
0.00423884
0.00371403
0.00323113
0.00279229
0.00240027
0.00570037
0.00512524
0.00458099
0.00406935
0.00359368
0.00725115
0.00665338
0.00607916
0.00552786
0.00884257
0.00823734
0.00765248
0.00708464
0.0104523
0.00984585
0.00925901
0.0086862
0.0120726
0.0114669
0.0108807
0.0137013
0.0130969
0.0125118
0.0153374
0.0147347
0.0169798
0.0163795
0.0186272
0.0180298
0.0202779
0.019684
0.0219302
0.0213406
0.0235825
0.000158993
0.000157234
0.000155457
0.000153603
0.000151762
0.000149984
0.000148307
0.000146761
0.000145366
0.000144116
0.000143083
0.000142165
0.000141192
0.000140177
0.000139145
0.000138117
0.000137092
0.000136033
0.000134874
0.000133577
0.000160795
0.000159038
0.000157289
0.000155445
0.000153599
0.000151807
0.000150109
0.000148531
0.000147087
0.000145769
0.000144675
0.000143741
0.000142753
0.000141725
0.000140679
0.000139637
0.000138604
0.000137572
0.000136563
0.000135752
0.00016309
0.000161271
0.000159535
0.000157707
0.000155864
0.000154066
0.000152351
0.000150747
0.000149264
0.000147901
0.000146754
0.000145777
0.000144767
0.000143722
0.000142662
0.00014161
0.000140581
0.000139609
0.000138805
0.000138535
0.000165977
0.000164053
0.000162307
0.000160489
0.000158653
0.000156853
0.000155128
0.000153505
0.000151994
0.000150603
0.000149409
0.000148379
0.000147343
0.000146281
0.000145208
0.000144151
0.000143141
0.000142248
0.000141669
0.000141921
0.000169246
0.000167182
0.000165389
0.000163564
0.000161729
0.000159928
0.000158197
0.000156562
0.000155034
0.000153626
0.000152395
0.000151314
0.000150253
0.000149176
0.000148097
0.000147043
0.000146063
0.00014526
0.000144888
0.000145549
0.000172862
0.000170617
0.000168725
0.000166855
0.000164997
0.000163182
0.000161439
0.000159791
0.00015825
0.000156829
0.00015557
0.000154448
0.000153364
0.000152278
0.000151198
0.000150157
0.000149215
0.0001485
0.000148287
0.000149155
0.000176918
0.000174437
0.000172373
0.000170393
0.000168465
0.000166601
0.000164822
0.000163146
0.000161583
0.000160145
0.000158858
0.0001577
0.000156596
0.000155503
0.000154429
0.000153406
0.000152506
0.000151866
0.000151746
0.000152583
0.000181578
0.000178803
0.000176482
0.000174309
0.000172237
0.000170263
0.000168401
0.000166659
0.000165046
0.000163568
0.00016224
0.000161042
0.00015991
0.000158808
0.000157738
0.000156734
0.000155873
0.000155287
0.00015519
0.000155801
0.000157028
0.000158033
0.000158326
0.000158249
0.000158102
0.000158027
0.000158068
0.000158232
0.000158511
0.000158897
0.000159379
0.000159945
0.000160582
0.000161307
0.000162305
0.000186992
0.000183891
0.000181243
0.000178791
0.000176489
0.000174327
0.00017231
0.000170443
0.000168729
0.00016717
0.000165769
0.000164506
0.000163328
0.0001622
0.000161121
0.000160127
0.00015929
0.000158731
0.000158596
0.000158892
0.000158848
0.000159565
0.00015989
0.000159885
0.000159784
0.000159728
0.000159775
0.000159938
0.000160216
0.0001606
0.00016108
0.000161647
0.000162298
0.000163079
0.000164206
0.0001664
0.000167927
0.000193165
0.000189785
0.0001868
0.00018402
0.00018142
0.000178994
0.000176746
0.000174681
0.000172798
0.000171096
0.000169572
0.000168201
0.000166939
0.000165753
0.00016464
0.000163631
0.000162793
0.000162224
0.000162003
0.000161982
0.00016118
0.000161568
0.00016186
0.0001619
0.000161838
0.000161802
0.000161858
0.000162025
0.000162306
0.000162693
0.00016318
0.00016376
0.000164442
0.000165288
0.00016648
0.000168201
0.000169933
0.000172784
0.000199793
0.000196326
0.000193113
0.000190049
0.000187149
0.000184428
0.000181899
0.000179575
0.000177458
0.000175549
0.000173839
0.000172306
0.00017091
0.000169619
0.000168429
0.000167367
0.00016649
0.000165869
0.000165523
0.000165215
0.000164156
0.000164242
0.000164454
0.00016451
0.000164477
0.000164462
0.00016453
0.000164707
0.000164999
0.000165401
0.00016591
0.000166523
0.000167258
0.000168183
0.000169418
0.000170724
0.000172565
0.000175081
0.000178319
0.000180607
0.000206126
0.000202951
0.000199799
0.000196648
0.000193573
0.000190624
0.000187841
0.000185252
0.000182876
0.000180719
0.000178777
0.000177032
0.00017545
0.000174003
0.000172688
0.000171525
0.000170562
0.000169844
0.000169341
0.000168787
0.000167665
0.000167496
0.0001676
0.000167644
0.000167628
0.000167631
0.000167716
0.000167912
0.000168227
0.000168661
0.000169213
0.000169884
0.000170701
0.000171725
0.000173011
0.000174256
0.000176175
0.000178328
0.000181142
0.000183776
0.000187388
0.0001902
0.000210939
0.000208608
0.000205995
0.000203149
0.000200203
0.000197252
0.000194372
0.000191623
0.000189047
0.000186669
0.000184499
0.000182529
0.000180737
0.000179102
0.000177624
0.000176321
0.000175229
0.000174373
0.000173689
0.000172924
0.000171788
0.000171411
0.00017139
0.0001714
0.000171388
0.000171408
0.000171515
0.000171738
0.000172091
0.000172576
0.000173193
0.000173951
0.000174877
0.000176021
0.00017739
0.000178746
0.000180738
0.00018282
0.00018523
0.000188068
0.000191362
0.000194533
0.000198756
0.000201874
0.000204969
0.00021279
0.000211872
0.000210386
0.000208392
0.000206055
0.000203507
0.000200861
0.000198212
0.000195634
0.00019318
0.000190883
0.000188755
0.000186792
0.000184988
0.000183349
0.000181897
0.00018066
0.000179645
0.000178774
0.000177829
0.000176677
0.00017613
0.000175981
0.000175939
0.00017592
0.000175954
0.000176085
0.000176345
0.000176747
0.000177296
0.000177996
0.000178858
0.000179907
0.00018118
0.000182653
0.000184174
0.000186228
0.000188333
0.000190624
0.000193514
0.000196369
0.000199602
0.000203211
0.00020627
0.000209301
0.000213391
0.000216301
0.000210639
0.000211426
0.000211522
0.000210912
0.000209733
0.000208113
0.00020618
0.000204049
0.000201825
0.000199588
0.000197402
0.000195304
0.000193315
0.00019145
0.000189729
0.000188179
0.000186831
0.000185684
0.000184656
0.000183572
0.0001824
0.000181724
0.000181456
0.000181357
0.000181325
0.00018137
0.000181526
0.000181822
0.000182273
0.000182887
0.000183666
0.000184623
0.000185778
0.000187149
0.000188698
0.000190338
0.000192384
0.000194459
0.000196646
0.000199359
0.000201851
0.000204762
0.000207386
0.000209904
0.000212287
0.000214835
0.000216697
0.000219005
0.000219315
0.000218793
0.00020473
0.000206872
0.000208526
0.000209509
0.000209849
0.000209607
0.000208871
0.000207744
0.000206333
0.000204733
0.000203027
0.000201278
0.000199533
0.00019783
0.000196207
0.000194707
0.000193364
0.000192177
0.000191075
0.00018993
0.000188768
0.000188018
0.000187665
0.000187518
0.000187475
0.000187527
0.0001877
0.00018802
0.000188502
0.00018915
0.000189968
0.000190964
0.000192151
0.000193527
0.000195043
0.00019665
0.000198523
0.000200375
0.000202258
0.000204477
0.000206379
0.000208507
0.000210031
0.000211497
0.00021267
0.000213234
0.000213549
0.00021356
0.000212316
0.000210465
0.000197339
0.000199598
0.000201993
0.000204113
0.000205808
0.000207005
0.000207691
0.0002079
0.000207693
0.000207144
0.000206331
0.000205323
0.000204182
0.000202962
0.00020172
0.00020051
0.000199376
0.000198324
0.000197302
0.000196225
0.000195154
0.000194416
0.000194038
0.000193876
0.000193833
0.00019389
0.000194064
0.000194376
0.000194838
0.000195452
0.00019622
0.00019714
0.000198214
0.000199423
0.000200707
0.00020203
0.000203463
0.000204791
0.000206039
0.000207392
0.000208353
0.000209284
0.000209496
0.000209573
0.000209266
0.000208152
0.000207011
0.000205236
0.000203216
0.000201235
0.000193045
0.00019326
0.000194673
0.000196609
0.000198706
0.000200716
0.000202476
0.000203896
0.000204943
0.000205619
0.000205954
0.00020599
0.000205775
0.000205362
0.00020481
0.000204176
0.000203511
0.000202828
0.000202093
0.000201261
0.00020041
0.000199803
0.000199487
0.000199363
0.000199344
0.000199403
0.000199551
0.000199803
0.000200166
0.000200641
0.000201222
0.000201899
0.00020266
0.000203472
0.00020427
0.000205014
0.000205713
0.000206206
0.000206509
0.00020672
0.000206509
0.000206097
0.000205031
0.000203851
0.000202402
0.000200413
0.00019875
0.000196905
0.000195822
0.000195863
0.000198796
0.000193829
0.000191639
0.000191196
0.000191888
0.000193262
0.00019498
0.000196795
0.000198539
0.000200104
0.000201427
0.000202482
0.000203268
0.000203804
0.000204124
0.000204271
0.000204285
0.000204178
0.000203929
0.000203518
0.00020303
0.00020268
0.000202525
0.0002025
0.000202532
0.000202591
0.000202682
0.000202813
0.000202991
0.000203209
0.000203457
0.000203721
0.000203979
0.000204189
0.000204292
0.000204248
0.000204042
0.000203567
0.000202856
0.000201978
0.000200763
0.00019938
0.00019763
0.00019602
0.000194557
0.000193213
0.000192854
0.00019332
0.000195802
0.000201008
0.000225004
0.000210076
0.000200436
0.000194424
0.000191028
0.000189501
0.000189275
0.00018991
0.000191076
0.000192523
0.000194066
0.000195579
0.000196979
0.000198215
0.000199267
0.000200138
0.000200836
0.000201352
0.000201663
0.000201757
0.000201709
0.000201691
0.000201762
0.000201878
0.00020198
0.000202038
0.00020205
0.000202022
0.000201956
0.000201847
0.000201686
0.000201459
0.000201144
0.00020071
0.000200113
0.000199336
0.000198373
0.000197187
0.000195853
0.000194472
0.000193025
0.000191708
0.000190561
0.000190108
0.000190551
0.00019214
0.000195801
0.000201843
0.00021176
0.000226926
0.000289428
0.000256154
0.000232635
0.00021601
0.00020448
0.000196731
0.000191783
0.000188892
0.000187489
0.000187134
0.000187486
0.000188288
0.000189347
0.000190518
0.000191703
0.000192836
0.00019387
0.00019476
0.000195455
0.000195933
0.000196242
0.00019651
0.000196782
0.000197026
0.000197191
0.000197246
0.000197186
0.000197014
0.000196737
0.000196354
0.000195865
0.000195268
0.000194561
0.000193736
0.000192787
0.000191737
0.000190625
0.000189498
0.000188498
0.0001878
0.000187536
0.000187994
0.000189441
0.000192503
0.00019765
0.000205497
0.000217261
0.000233953
0.000257757
0.000291292
0.000424873
0.000357863
0.000308592
0.000272229
0.00024553
0.000226066
0.000212031
0.000202075
0.000195177
0.000190565
0.000187645
0.000185963
0.000185168
0.000184991
0.000185224
0.000185713
0.000186336
0.000186989
0.000187579
0.000188051
0.000188414
0.000188744
0.000189062
0.000189336
0.000189514
0.000189565
0.000189481
0.000189269
0.000188941
0.00018851
0.000187994
0.000187418
0.000186811
0.000186207
0.000185656
0.000185238
0.000185067
0.000185286
0.000186136
0.000187906
0.000190911
0.000195617
0.000202582
0.000212712
0.000226948
0.00024655
0.000273481
0.000309959
0.000359543
0.000426846
0.000687785
0.000561875
0.000466034
0.000393253
0.000338304
0.000296953
0.000265937
0.000242754
0.00022549
0.000212714
0.00020334
0.00019654
0.000191683
0.000188289
0.000185985
0.000184482
0.000183553
0.000183007
0.000182691
0.000182497
0.000182384
0.000182369
0.000182441
0.000182553
0.000182651
0.000182698
0.000182686
0.000182626
0.000182543
0.000182471
0.000182454
0.000182555
0.00018285
0.000183431
0.000184421
0.000185986
0.000188346
0.000191782
0.000196693
0.000203576
0.000213038
0.000225911
0.000243268
0.000266642
0.000297882
0.000339416
0.000394613
0.000467554
0.000563728
0.000689944
0.00115591
0.000939851
0.000767907
0.000632511
0.000527144
0.000445718
0.000383133
0.000335187
0.000298477
0.000270388
0.000248911
0.000232486
0.000219932
0.000210358
0.000203079
0.000197565
0.000193402
0.000190257
0.000187871
0.000186054
0.000184692
0.000183736
0.000183129
0.000182799
0.000182678
0.000182722
0.000182923
0.0001833
0.000183896
0.000184774
0.000186021
0.000187752
0.000190111
0.000193281
0.000197497
0.000203067
0.000210399
0.000220018
0.000232631
0.000249143
0.000270717
0.000298918
0.000335753
0.000383921
0.000446765
0.000528416
0.00063404
0.000769612
0.000941859
0.00115818
0.00190038
0.0015713
0.00129526
0.00106736
0.000882437
0.000734218
0.000616689
0.000524237
0.000451783
0.000395147
0.000350947
0.000316402
0.000289357
0.000268159
0.000251536
0.000238485
0.000228229
0.000220165
0.000213828
0.000208872
0.000205062
0.000202248
0.0002003
0.0001991
0.00019855
0.000198594
0.000199221
0.000200465
0.000202399
0.000205139
0.00020884
0.000213709
0.000220013
0.000228094
0.000238396
0.000251503
0.000268182
0.000289431
0.000316544
0.000351187
0.000395501
0.000452272
0.000524889
0.000617598
0.000735414
0.000883876
0.00106902
0.00129705
0.0015733
0.00190253
0.00294266
0.00250203
0.00211281
0.00177464
0.0014865
0.00124467
0.00104472
0.00088151
0.000749387
0.000643191
0.000558352
0.000490675
0.000436724
0.000393736
0.000359503
0.000332218
0.000310453
0.000293101
0.000279305
0.000268419
0.000259977
0.000253653
0.000249181
0.000246348
0.000244997
0.000245042
0.000246472
0.000249349
0.000253804
0.000260049
0.000268375
0.000279165
0.000292918
0.000310279
0.000332089
0.000359432
0.000393727
0.000436777
0.000490809
0.000558601
0.000643575
0.000749929
0.000882247
0.00104573
0.00124596
0.001488
0.00177628
0.00211449
0.00250376
0.00294441
0.00423718
0.00371122
0.00322663
0.00278603
0.00239257
0.00204639
0.00174665
0.00149103
0.00127543
0.00109557
0.000947096
0.000825179
0.000725534
0.000644423
0.00057867
0.000525452
0.000482443
0.000447783
0.000419995
0.000397931
0.000380729
0.000367755
0.0003585
0.000352573
0.000349706
0.000349756
0.000352709
0.00035868
0.000367911
0.00038079
0.000397858
0.000419806
0.000447535
0.000482196
0.000525249
0.000578533
0.000644357
0.000725543
0.000825286
0.000947333
0.00109596
0.00127599
0.00149179
0.00174767
0.00204765
0.00239397
0.00278745
0.00322798
0.00371249
0.00423839
0.00569933
0.00512317
0.00457713
0.00406362
0.00358731
0.00315115
0.00275742
0.00240709
0.00209896
0.00183121
0.0016016
0.00140621
0.00124126
0.00110304
0.000988127
0.000893054
0.00081476
0.000750669
0.000698631
0.000656897
0.000624093
0.000599171
0.000581266
0.000569718
0.000564087
0.000564144
0.00056987
0.000581461
0.000599329
0.000624132
0.000656773
0.000698364
0.000750323
0.000814405
0.000892742
0.000987887
0.00110288
0.00124119
0.00140625
0.00160178
0.00183154
0.00209945
0.00240777
0.0027583
0.0031522
0.00358843
0.00406469
0.00457806
0.00512395
0.00570001
0.00725062
0.00665202
0.00607609
0.00552322
0.00499726
0.00450199
0.00404061
0.00361569
0.00322846
0.00287955
0.00256925
0.00229566
0.00205668
0.0018499
0.00167288
0.00152244
0.00139556
0.00128951
0.00120186
0.00113052
0.00107375
0.00103018
0.000998604
0.000978091
0.000968025
0.000968086
0.000978252
0.000998801
0.00103032
0.00107375
0.00113032
0.00120149
0.00128904
0.00139507
0.00152199
0.00167251
0.00184962
0.00205649
0.00229559
0.00256931
0.00287974
0.00322881
0.00361619
0.00404127
0.00450276
0.00499806
0.00552392
0.00607663
0.00665239
0.00725088
0.0088424
0.00823656
0.00765019
0.00708162
0.00653353
0.0060091
0.00551093
0.00504144
0.00460292
0.00419706
0.00382534
0.00348787
0.00318434
0.00291403
0.00267607
0.00246845
0.00228903
0.00213573
0.00200653
0.00189958
0.00181323
0.00174616
0.00169707
0.00166494
0.00164908
0.00164914
0.00166509
0.00169724
0.00174626
0.00181316
0.0018993
0.00200607
0.00213515
0.00228843
0.00246789
0.00267558
0.00291362
0.00318404
0.00348767
0.00382526
0.0041971
0.00460308
0.00504173
0.00551135
0.0060096
0.00653404
0.00708204
0.00765044
0.00823665
0.00884238
0.0104524
0.00984555
0.00925749
0.00868515
0.00813042
0.00759572
0.0070829
0.00659374
0.0061304
0.00569458
0.00528755
0.00491065
0.00456457
0.00424969
0.00396619
0.00371345
0.00349056
0.00329647
0.00313004
0.00299012
0.00287563
0.00278566
0.00271919
0.00267536
0.00265362
0.00265367
0.00267548
0.0027193
0.00278568
0.00287548
0.00298977
0.00312952
0.00329583
0.00348989
0.0037128
0.00396561
0.00424919
0.00456416
0.00491033
0.00528733
0.00569446
0.00613039
0.00659384
0.00708311
0.00759601
0.00813072
0.00868537
0.00925755
0.00984545
0.0104522
0.0120729
0.011467
0.0108802
0.0103085
0.00975356
0.00921727
0.00870103
0.00820616
0.00773444
0.00728721
0.0068654
0.00647055
0.00610362
0.00576541
0.00545635
0.00517682
0.00492685
0.00470626
0.0045147
0.0043518
0.0042171
0.00411022
0.00403062
0.00397785
0.00395156
0.00395159
0.0039779
0.00403066
0.00411016
0.00421688
0.0043514
0.00451415
0.0047056
0.00492616
0.00517614
0.00545572
0.00576484
0.00610313
0.00647013
0.00686507
0.00728697
0.00773429
0.00820612
0.00870108
0.00921741
0.00975374
0.0103086
0.0108801
0.0114668
0.0120725
0.0137017
0.0130973
0.0125126
0.0119428
0.0113896
0.0108546
0.0103392
0.00984434
0.00937161
0.0089221
0.00849651
0.00809622
0.00772221
0.00737527
0.00705586
0.00676475
0.0065024
0.0062691
0.00606501
0.00589022
0.00574476
0.00562856
0.00554155
0.00548364
0.00545472
0.00545473
0.00548364
0.00554151
0.00562842
0.00574449
0.0058898
0.00606446
0.00626846
0.00650172
0.00676406
0.00705521
0.00737466
0.00772166
0.00809575
0.0084961
0.00892177
0.00937136
0.00984419
0.0103391
0.0108547
0.0113897
0.0119428
0.0125124
0.013097
0.0137012
0.015338
0.0147355
0.0141531
0.0135856
0.0130346
0.0125017
0.0119882
0.0114951
0.0110238
0.0105753
0.0101502
0.0097498
0.00937495
0.0090264
0.00870461
0.00841037
0.00814431
0.00790688
0.00769846
0.00751937
0.00736984
0.00724998
0.00715999
0.00709997
0.00706995
0.00706995
0.00709993
0.0071599
0.0072498
0.00736954
0.00751895
0.00769794
0.00790627
0.00814364
0.00840969
0.00870394
0.00902577
0.00937437
0.00974928
0.0101498
0.0105749
0.0110235
0.0114949
0.0119881
0.0125017
0.0130347
0.0135856
0.0141529
0.0147351
0.0153374
0.0169806
0.0163806
0.0158009
0.015236
0.0146875
0.014157
0.0136457
0.0131548
0.0126855
0.0122388
0.0118154
0.0114165
0.0110429
0.0106953
0.0103741
0.0100801
0.00981404
0.00957631
0.00936737
0.00918761
0.00903734
0.00891673
0.00882608
0.00876556
0.00873527
0.00873526
0.0087655
0.00882595
0.00891653
0.00903703
0.00918719
0.00936686
0.00957571
0.00981339
0.0100795
0.0103734
0.0106946
0.0110423
0.011416
0.0118149
0.0122383
0.0126851
0.0131545
0.0136455
0.0141569
0.0146876
0.015236
0.0158006
0.0163801
0.0169799
0.0186282
0.0180313
0.0174549
0.0168931
0.0163475
0.0158196
0.0153108
0.0148223
0.0143552
0.0139106
0.0134892
0.0130922
0.0127202
0.0123741
0.0120544
0.0117617
0.0114967
0.0112599
0.0110517
0.0108725
0.0107227
0.0106024
0.010512
0.0104516
0.0104214
0.0104213
0.0104515
0.0105118
0.0106022
0.0107224
0.0108721
0.0110512
0.0112593
0.0114961
0.011761
0.0120537
0.0123735
0.0127196
0.0130916
0.0134887
0.0139101
0.0143548
0.0148219
0.0153106
0.0158195
0.0163475
0.016893
0.0174546
0.0180307
0.0186273
0.0202792
0.019686
0.0191135
0.0185554
0.0180132
0.0174885
0.0169827
0.0164968
0.0160322
0.0155899
0.0151708
0.0147757
0.0144057
0.0140613
0.0137431
0.0134519
0.0131882
0.0129526
0.0127454
0.0125671
0.012418
0.0122983
0.0122083
0.0121482
0.0121181
0.0121181
0.0121481
0.0122082
0.0122981
0.0124177
0.0125667
0.0127449
0.012952
0.0131876
0.0134512
0.0137424
0.0140606
0.014405
0.0147751
0.0151702
0.0155894
0.0160318
0.0164964
0.0169824
0.0174884
0.0180132
0.0185552
0.0191131
0.0196854
0.0202782
0.0219319
0.0213432
0.0207753
0.0202214
0.0196832
0.0191622
0.0186598
0.0181772
0.0177155
0.0172759
0.0168592
0.0164664
0.0160984
0.0157559
0.0154395
0.0151499
0.0148876
0.0146532
0.0144471
0.0142698
0.0141215
0.0140024
0.0139129
0.0138531
0.0138232
0.0138232
0.0138531
0.0139128
0.0140022
0.0141212
0.0142694
0.0144466
0.0146526
0.014887
0.0151492
0.0154388
0.0157553
0.0160978
0.0164658
0.0168586
0.0172753
0.017715
0.0181768
0.0186595
0.0191621
0.0196832
0.0202212
0.0207748
0.0213424
0.0219307
0.0235849
0.0230013
0.0224384
0.0218894
0.0213558
0.0208391
0.0203407
0.0198618
0.0194036
0.0189671
0.0185533
0.0181631
0.0177975
0.0174572
0.0171428
0.0168549
0.0165942
0.0163612
0.0161563
0.01598
0.0158325
0.0157142
0.0156252
0.0155657
0.015536
0.0155359
0.0155656
0.015625
0.0157139
0.0158322
0.0159796
0.0161558
0.0163606
0.0165935
0.0168542
0.0171421
0.0174565
0.0177969
0.0181625
0.0185526
0.0189665
0.019403
0.0198613
0.0203404
0.0208389
0.0213557
0.0218891
0.0224378
0.0230003
0.0235834
0.0252366
0.0246586
0.0241015
0.0235579
0.0230294
0.0225176
0.0220237
0.021549
0.0210947
0.0206618
0.0202514
0.0198643
0.0195015
0.0191637
0.0188515
0.0185657
0.0183068
0.0180754
0.0178719
0.0176967
0.0175502
0.0174326
0.0173442
0.0172852
0.0172556
0.0172556
0.0172851
0.0173441
0.0174324
0.0175499
0.0176963
0.0178714
0.0180748
0.0183061
0.018565
0.0188508
0.0191629
0.0195008
0.0198636
0.0202507
0.0206612
0.0210941
0.0215485
0.0220233
0.0225174
0.0230293
0.0235575
0.0241007
0.0246574
0.0252346
0.0268858
0.026314
0.025763
0.0252253
0.0247025
0.024196
0.0237071
0.0232372
0.0227873
0.0223585
0.0219518
0.0215682
0.0212086
0.0208737
0.0205641
0.0202807
0.0200239
0.0197943
0.0195924
0.0194185
0.0192732
0.0191565
0.0190687
0.0190101
0.0189808
0.0189807
0.01901
0.0190686
0.0191562
0.0192728
0.0194181
0.0195919
0.0197937
0.0200232
0.0202799
0.0205634
0.0208729
0.0212079
0.0215675
0.0219511
0.0223578
0.0227866
0.0232366
0.0237067
0.0241957
0.0247023
0.0252248
0.025762
0.0263123
0.0268832
0.0285312
0.027966
0.0274217
0.0268904
0.0263736
0.0258729
0.0253896
0.0249248
0.0244797
0.0240555
0.023653
0.0232733
0.0229172
0.0225855
0.022279
0.0219982
0.0217437
0.0215162
0.0213161
0.0211438
0.0209997
0.0208841
0.0207971
0.020739
0.0207099
0.0207098
0.0207389
0.0207969
0.0208838
0.0209994
0.0211434
0.0213156
0.0215156
0.0217431
0.0219974
0.0222782
0.0225848
0.0229165
0.0232726
0.0236523
0.0240548
0.0244791
0.0249242
0.0253891
0.0258727
0.0263734
0.0268897
0.0274203
0.0279638
0.0301717
0.0296137
0.0290763
0.0285518
0.0280416
0.0275471
0.0270696
0.0266104
0.0261706
0.0257513
0.0253534
0.0249779
0.0246258
0.0242977
0.0239944
0.0237165
0.0234647
0.0232395
0.0230415
0.0228709
0.0227282
0.0226137
0.0225276
0.02247
0.0224412
0.0224412
0.0224699
0.0225274
0.0226134
0.0227279
0.0228705
0.023041
0.023239
0.0234641
0.0237158
0.0239936
0.0242969
0.024625
0.0249772
0.0253527
0.0257505
0.0261699
0.0266098
0.0270691
0.0275468
0.0280412
0.0285507
0.0290744
0.0318065
0.0312559
0.0307259
0.0302085
0.0297052
0.0292173
0.0287461
0.0282928
0.0278586
0.0274445
0.0270516
0.0266807
0.0263328
0.0260086
0.0257088
0.0254342
0.0251853
0.0249626
0.0247668
0.0245981
0.024457
0.0243437
0.0242585
0.0242016
0.0241731
0.0241731
0.0242015
0.0242584
0.0243435
0.0244567
0.0245977
0.0247663
0.0249621
0.0251846
0.0254334
0.0257081
0.0260078
0.026332
0.0266799
0.0270508
0.0274438
0.0278578
0.0282921
0.0287455
0.0292169
0.0297045
0.030207
0.0334347
0.0328918
0.0323695
0.0318596
0.0313634
0.0308824
0.0304177
0.0299707
0.0295425
0.029134
0.0287463
0.0283803
0.0280369
0.0277168
0.0274209
0.0271497
0.0269039
0.026684
0.0264906
0.026324
0.0261846
0.0260727
0.0259885
0.0259323
0.0259041
0.0259041
0.0259322
0.0259883
0.0260724
0.0261842
0.0263235
0.0264901
0.0266834
0.0269032
0.027149
0.0274201
0.0277161
0.0280361
0.0283795
0.0287455
0.0291332
0.0295417
0.0299701
0.0304172
0.030882
0.0313623
0.0350554
0.0345205
0.0340062
0.033504
0.0330153
0.0325415
0.0320837
0.0316432
0.0312212
0.0308185
0.0304363
0.0300755
0.0297369
0.0294212
0.0291294
0.0288618
0.0286193
0.0284024
0.0282115
0.0280471
0.0279095
0.027799
0.027716
0.0276605
0.0276327
0.0276326
0.0276604
0.0277158
0.0277988
0.0279092
0.0280467
0.028211
0.0284018
0.0286187
0.0288611
0.0291286
0.0294205
0.0297361
0.0300747
0.0304355
0.0308178
0.0312204
0.0316425
0.0320831
0.0325411
0.036668
0.0361414
0.0356353
0.0351411
0.0346601
0.0341937
0.0337431
0.0333094
0.0328938
0.0324972
0.0321208
0.0317653
0.0314317
0.0311207
0.030833
0.0305694
0.0303304
0.0301165
0.0299283
0.0297662
0.0296306
0.0295216
0.0294397
0.029385
0.0293576
0.0293576
0.0293849
0.0294395
0.0295214
0.0296302
0.0297658
0.0299278
0.0301159
0.0303297
0.0305686
0.0308323
0.0311199
0.0314309
0.0317645
0.03212
0.0324964
0.0328929
0.0333086
0.0337425
0.0341933
0.0382719
0.0377538
0.0372561
0.0367701
0.036297
0.0358383
0.035395
0.0349683
0.0345594
0.0341691
0.0337986
0.0334488
0.0331203
0.0328141
0.0325309
0.0322713
0.0320359
0.0318253
0.0316399
0.0314802
0.0313466
0.0312393
0.0311586
0.0311047
0.0310777
0.0310777
0.0311046
0.0311584
0.0312391
0.0313463
0.0314798
0.0316394
0.0318247
0.0320352
0.0322706
0.0325301
0.0328134
0.0331195
0.0334479
0.0337978
0.0341683
0.0345585
0.0349675
0.0353943
0.0358378
0.0398664
0.0393571
0.038868
0.0383903
0.0379254
0.0374745
0.0370387
0.0366193
0.0362172
0.0358335
0.0354691
0.035125
0.0348019
0.0345007
0.0342221
0.0339666
0.033735
0.0335277
0.0333453
0.0331882
0.0330566
0.032951
0.0328716
0.0328185
0.032792
0.0327919
0.0328184
0.0328714
0.0329508
0.0330563
0.0331877
0.0333448
0.0335272
0.0337344
0.0339659
0.0342213
0.0344999
0.0348011
0.0351242
0.0354683
0.0358326
0.0362163
0.0366185
0.0370381
0.037474
0.0414511
0.0409507
0.0404704
0.0400012
0.0395446
0.0391017
0.0386737
0.0382616
0.0378665
0.0374895
0.0371314
0.0367932
0.0364757
0.0361796
0.0359057
0.0356545
0.0354268
0.035223
0.0350436
0.0348891
0.0347597
0.0346559
0.0345778
0.0345256
0.0344994
0.0344994
0.0345255
0.0345776
0.0346556
0.0347594
0.0348887
0.0350431
0.0352224
0.0354262
0.0356538
0.0359049
0.0361788
0.0364749
0.0367924
0.0371306
0.0374886
0.0378657
0.0382608
0.038673
0.0391013
0.0430256
0.0425342
0.0420628
0.0416023
0.0411542
0.0407194
0.0402992
0.0398947
0.0395068
0.0391366
0.038785
0.0384528
0.0381409
0.0378501
0.037581
0.0373343
0.0371105
0.0369103
0.036734
0.0365822
0.0364551
0.036353
0.0362763
0.036225
0.0361993
0.0361992
0.0362249
0.0362761
0.0363528
0.0364548
0.0365818
0.0367336
0.0369097
0.0371099
0.0373336
0.0375803
0.0378493
0.0381401
0.038452
0.0387841
0.0391357
0.0395059
0.0398938
0.0402985
0.0407188
0.0445894
0.0441072
0.0436448
0.0431932
0.0427535
0.0423271
0.0419148
0.041518
0.0411374
0.0407741
0.0404291
0.0401031
0.039797
0.0395115
0.0392474
0.0390052
0.0387855
0.0385889
0.0384159
0.0382668
0.038142
0.0380418
0.0379664
0.037916
0.0378908
0.0378907
0.0379159
0.0379662
0.0380415
0.0381416
0.0382664
0.0384154
0.0385884
0.0387849
0.0390045
0.0392467
0.0395108
0.0397962
0.0401023
0.0404282
0.0407733
0.0411365
0.0415171
0.0419142
0.0423263
0.0461421
0.0456692
0.0452159
0.0447732
0.0443423
0.0439242
0.0435201
0.043131
0.0427578
0.0424016
0.0420633
0.0417436
0.0414433
0.0411633
0.0409042
0.0406665
0.0404511
0.0402582
0.0400884
0.0399422
0.0398197
0.0397214
0.0396474
0.039598
0.0395732
0.0395731
0.0395978
0.0396472
0.0397211
0.0398193
0.0399417
0.040088
0.0402577
0.0404505
0.0406659
0.0409035
0.0411626
0.0414426
0.0417427
0.0420624
0.0424008
0.0427569
0.0431302
0.0435194
0.0476834
0.04722
0.0467759
0.0463422
0.04592
0.0455104
0.0451145
0.0447332
0.0443676
0.0440186
0.043687
0.0433736
0.0430794
0.0428049
0.0425507
0.0423178
0.0421065
0.0419175
0.0417512
0.0416077
0.0414877
0.0413912
0.0413187
0.0412702
0.0412459
0.0412459
0.0412701
0.0413185
0.041391
0.0414873
0.0416073
0.0417507
0.0419171
0.0421061
0.0423174
0.0425503
0.0428042
0.0430787
0.0433729
0.0436861
0.0440177
0.0443668
0.0447325
0.0451139
0.049213
0.048759
0.0483242
0.0478996
0.0474863
0.0470853
0.0466976
0.0463243
0.0459663
0.0456244
0.0452997
0.0449928
0.0447046
0.0444357
0.0441867
0.0439585
0.0437515
0.0435663
0.0434034
0.0432629
0.0431453
0.0430508
0.0429797
0.0429322
0.0429084
0.0429084
0.0429321
0.0429795
0.0430505
0.0431449
0.0432625
0.043403
0.043566
0.0437512
0.0439583
0.0441864
0.0444352
0.044704
0.0449922
0.045299
0.0456237
0.0459656
0.0463237
0.0466972
0.0507305
0.0502861
0.0498607
0.0494452
0.0490408
0.0486484
0.0482691
0.0479038
0.0475534
0.0472189
0.0469011
0.0466007
0.0463186
0.0460554
0.0450448
0.0449072
0.044792
0.0446995
0.0446299
0.0445834
0.0445601
0.0445601
0.0445833
0.0446297
0.0446992
0.0447917
0.0449068
0.0450443
0.045204
0.0453853
0.0455881
0.0458115
0.046055
0.0463181
0.0466002
0.0469005
0.0472183
0.047553
0.0479034
0.0482689
0.0472066
0.0474251
0.0476633
0.0479207
0.0481966
0.0484903
0.0488012
0.0491286
0.0494713
0.0498288
0.0506921
0.051027
0.0513764
0.000158809
0.000160907
0.000163433
0.000166504
0.000169887
0.000173547
0.000177584
0.00018218
0.000187503
0.000193577
0.000200108
0.000206354
0.000211093
0.000212885
0.000210692
0.000204754
0.000197346
0.000193042
0.000198785
0.000224986
0.000289403
0.000424843
0.000687756
0.00115589
0.00190038
0.00294268
0.00423723
0.0056994
0.00725069
0.00884248
0.0104525
0.012073
0.0137018
0.0153381
0.0169807
0.0186283
0.0202793
0.021932
0.023585
0.0252367
0.0268858
0.0285312
0.0301718
0.0318066
0.0334348
0.0350555
0.0366681
0.0382719
0.0398665
0.0414512
0.0430257
0.0445894
0.0461422
0.0476835
0.0492131
0.0507306
0.00016029
0.000163076
0.000166214
0.000169638
0.000173115
0.00017672
0.00018073
0.000185432
0.000190965
0.000197197
0.00020357
0.000209028
0.000212141
0.000211588
0.000206965
0.000199654
0.000193301
0.000193868
0.000210118
0.0002562
0.000357918
0.000561946
0.000939947
0.00157143
0.00250219
0.00371141
0.00512338
0.00665224
0.00823679
0.00984577
0.0114672
0.0130976
0.0147357
0.0163808
0.0180315
0.0196863
0.0213435
0.0230015
0.0246589
0.0263142
0.0279663
0.0296139
0.0312561
0.032892
0.0345208
0.0361417
0.0377541
0.0393573
0.040951
0.0425345
0.0441074
0.0456695
0.0472202
0.0487593
0.0502864
0.000177083
0.000179407
0.000182924
0.000187823
0.000193769
0.000200228
0.000206268
0.000210545
0.000211599
0.000208553
0.000202
0.000194683
0.000191665
0.000200482
0.0002327
0.000308679
0.000466153
0.000768074
0.00129549
0.0021131
0.00322697
0.00457749