/*--------------------------------*- C++ -*----------------------------------*\
  =========                 |
  \\      /  F ield         | OpenFOAM: The Open Source CFD Toolbox
   \\    /   O peration     | Website:  https://openfoam.org
    \\  /    A nd           | Version:  7
     \\/     M anipulation  |
\*---------------------------------------------------------------------------*/
FoamFile
{
    version     2.0;
    format      ascii;
    class       volScalarField;
    location    "108000";
    object      nu;
}
// * * * * * * * * * * * * * * * * * * * * * * * * * * * * * * * * * * * * * //

dimensions      [0 2 -1 0 0 0 0];

internalField   nonuniform List<scalar> 
4782
(
2.43059e-06
2.3825e-06
2.33519e-06
2.28868e-06
2.24296e-06
2.19806e-06
2.15398e-06
2.11073e-06
2.06832e-06
2.02677e-06
5.46032e-06
5.36624e-06
5.27408e-06
5.18385e-06
5.09546e-06
5.00883e-06
4.92383e-06
4.84038e-06
4.75838e-06
4.67774e-06
4.5984e-06
4.52028e-06
4.44333e-06
4.36753e-06
4.29281e-06
4.21916e-06
4.14654e-06
4.07492e-06
4.00428e-06
3.9346e-06
3.86585e-06
3.79802e-06
3.7311e-06
3.66507e-06
3.59992e-06
3.53562e-06
3.47218e-06
3.40957e-06
3.34779e-06
3.28683e-06
3.22667e-06
3.16731e-06
3.10875e-06
3.05098e-06
2.99399e-06
2.93779e-06
2.88236e-06
2.8277e-06
2.77381e-06
2.72069e-06
2.66834e-06
2.61676e-06
2.56595e-06
2.51591e-06
2.46664e-06
2.41815e-06
2.37045e-06
2.32352e-06
2.27739e-06
2.23206e-06
2.18754e-06
2.14384e-06
2.10097e-06
2.05893e-06
2.01775e-06
5.4216e-06
5.32858e-06
5.2375e-06
5.14831e-06
5.0609e-06
4.97518e-06
4.89104e-06
4.80839e-06
4.72715e-06
4.64722e-06
4.56855e-06
4.49109e-06
4.41478e-06
4.33959e-06
4.26547e-06
4.1924e-06
4.12034e-06
4.04928e-06
3.97918e-06
3.91003e-06
3.84181e-06
3.77451e-06
3.7081e-06
3.64258e-06
3.57792e-06
3.51412e-06
3.45115e-06
3.38902e-06
3.32771e-06
3.26721e-06
3.20751e-06
3.14861e-06
3.0905e-06
3.03318e-06
2.97663e-06
2.92086e-06
2.86586e-06
2.81163e-06
2.75817e-06
2.70547e-06
2.65354e-06
2.60237e-06
2.55197e-06
2.50234e-06
2.45347e-06
2.40538e-06
2.35807e-06
2.31155e-06
2.26582e-06
2.22088e-06
2.17675e-06
2.13343e-06
2.09095e-06
2.04929e-06
2.00849e-06
5.38217e-06
5.29034e-06
5.20041e-06
5.11229e-06
5.02588e-06
4.94107e-06
4.85777e-06
4.7759e-06
4.69538e-06
4.61616e-06
4.53817e-06
4.46137e-06
4.38571e-06
4.31114e-06
4.23762e-06
4.16512e-06
4.09364e-06
4.02313e-06
3.95359e-06
3.88499e-06
3.81731e-06
3.75053e-06
3.68463e-06
3.61961e-06
3.55546e-06
3.49214e-06
3.42967e-06
3.36802e-06
3.30718e-06
3.24715e-06
3.18792e-06
3.12948e-06
3.07182e-06
3.01495e-06
2.95885e-06
2.90352e-06
2.84896e-06
2.79517e-06
2.74214e-06
2.68987e-06
2.63837e-06
2.58763e-06
2.53765e-06
2.48844e-06
2.44e-06
2.39232e-06
2.34543e-06
2.29931e-06
2.25398e-06
2.20945e-06
2.16571e-06
2.1228e-06
2.0807e-06
2.03944e-06
1.99903e-06
5.33851e-06
5.2482e-06
5.15962e-06
5.07272e-06
4.98741e-06
4.90362e-06
4.82129e-06
4.74033e-06
4.6607e-06
4.58233e-06
4.50516e-06
4.42915e-06
4.35423e-06
4.28038e-06
4.20757e-06
4.13577e-06
4.06495e-06
3.99511e-06
3.9262e-06
3.85822e-06
3.79115e-06
3.72497e-06
3.65967e-06
3.59522e-06
3.53163e-06
3.46887e-06
3.40693e-06
3.34581e-06
3.2855e-06
3.22599e-06
3.16727e-06
3.10934e-06
3.05219e-06
2.99581e-06
2.9402e-06
2.88536e-06
2.83127e-06
2.77795e-06
2.72539e-06
2.67359e-06
2.62254e-06
2.57225e-06
2.52272e-06
2.47395e-06
2.42595e-06
2.37871e-06
2.33224e-06
2.28656e-06
2.24166e-06
2.19755e-06
2.15424e-06
2.11174e-06
2.07007e-06
2.02922e-06
1.98922e-06
5.33851e-06
5.24819e-06
5.1596e-06
5.07268e-06
4.98736e-06
4.90358e-06
4.82126e-06
4.74032e-06
4.6607e-06
4.58232e-06
4.50514e-06
4.42911e-06
4.3542e-06
4.28036e-06
4.20756e-06
4.13576e-06
4.06495e-06
3.99511e-06
3.9262e-06
3.85822e-06
3.79115e-06
3.72497e-06
3.65966e-06
3.59522e-06
3.53162e-06
3.46886e-06
3.40693e-06
3.34582e-06
3.28551e-06
3.22599e-06
3.16727e-06
3.10933e-06
3.05217e-06
2.99579e-06
2.94018e-06
2.88533e-06
2.83125e-06
2.77793e-06
2.72537e-06
2.67357e-06
2.62252e-06
2.57224e-06
2.52271e-06
2.47394e-06
2.42594e-06
2.3787e-06
2.33224e-06
2.28655e-06
2.24165e-06
2.19755e-06
2.15424e-06
2.11174e-06
2.07006e-06
2.02922e-06
1.98922e-06
5.38216e-06
5.29032e-06
5.20037e-06
5.11224e-06
5.02581e-06
4.941e-06
4.85771e-06
4.77585e-06
4.69535e-06
4.61614e-06
4.53814e-06
4.46133e-06
4.38565e-06
4.31108e-06
4.23757e-06
4.16509e-06
4.09362e-06
4.02313e-06
3.95359e-06
3.88498e-06
3.8173e-06
3.75052e-06
3.68462e-06
3.6196e-06
3.55544e-06
3.49213e-06
3.42965e-06
3.36799e-06
3.30715e-06
3.24711e-06
3.18787e-06
3.12943e-06
3.07177e-06
3.01489e-06
2.95879e-06
2.90347e-06
2.84892e-06
2.79513e-06
2.7421e-06
2.68984e-06
2.63834e-06
2.5876e-06
2.53763e-06
2.48842e-06
2.43998e-06
2.39231e-06
2.34541e-06
2.2993e-06
2.25397e-06
2.20944e-06
2.16572e-06
2.1228e-06
2.08071e-06
2.03945e-06
1.99904e-06
1.95948e-06
1.92081e-06
1.88302e-06
1.84614e-06
5.42155e-06
5.32854e-06
5.23747e-06
5.14828e-06
5.06087e-06
4.97515e-06
4.89101e-06
4.80835e-06
4.72709e-06
4.64716e-06
4.56848e-06
4.49102e-06
4.41471e-06
4.33953e-06
4.26542e-06
4.19236e-06
4.12031e-06
4.04925e-06
3.97916e-06
3.91001e-06
3.84179e-06
3.77449e-06
3.70807e-06
3.64254e-06
3.57788e-06
3.51407e-06
3.4511e-06
3.38896e-06
3.32764e-06
3.26714e-06
3.20744e-06
3.14854e-06
3.09043e-06
3.0331e-06
2.97656e-06
2.9208e-06
2.8658e-06
2.81158e-06
2.75813e-06
2.70543e-06
2.65351e-06
2.60234e-06
2.55195e-06
2.50232e-06
2.45347e-06
2.40539e-06
2.35808e-06
2.31156e-06
2.26583e-06
2.2209e-06
2.17677e-06
2.13346e-06
2.09097e-06
2.04931e-06
2.00851e-06
1.96857e-06
1.9295e-06
1.89133e-06
1.85407e-06
1.81774e-06
5.46019e-06
5.36614e-06
5.27401e-06
5.1838e-06
5.09543e-06
5.0088e-06
4.9238e-06
4.84034e-06
4.75832e-06
4.67767e-06
4.59832e-06
4.5202e-06
4.44326e-06
4.36746e-06
4.29275e-06
4.2191e-06
4.14648e-06
4.07486e-06
4.00422e-06
3.93455e-06
3.86581e-06
3.79799e-06
3.73107e-06
3.66504e-06
3.59987e-06
3.53557e-06
3.47212e-06
3.40951e-06
3.34772e-06
3.28675e-06
3.2266e-06
3.16724e-06
3.10869e-06
3.05093e-06
2.99395e-06
2.93774e-06
2.88232e-06
2.82766e-06
2.77378e-06
2.72067e-06
2.66832e-06
2.61675e-06
2.56594e-06
2.5159e-06
2.46664e-06
2.41816e-06
2.37045e-06
2.32354e-06
2.27741e-06
2.23208e-06
2.18756e-06
2.14386e-06
2.10098e-06
2.05895e-06
2.01776e-06
1.97744e-06
1.93799e-06
1.89945e-06
1.86182e-06
1.82512e-06
1.78937e-06
1.7546e-06
1.72082e-06
1.68806e-06
1.65635e-06
1.6257e-06
1.59614e-06
1.56771e-06
1.54041e-06
1.51424e-06
1.4891e-06
1.46446e-06
1.44009e-06
1.4166e-06
1.39455e-06
1.37408e-06
1.35533e-06
1.33844e-06
1.3235e-06
1.31058e-06
1.2997e-06
1.29079e-06
1.28374e-06
1.27834e-06
1.27436e-06
1.27152e-06
1.26954e-06
1.26819e-06
1.26725e-06
1.26657e-06
1.26605e-06
1.2656e-06
1.26519e-06
1.2648e-06
1.26441e-06
5.49787e-06
5.40288e-06
5.30978e-06
5.21861e-06
5.12931e-06
5.04179e-06
4.95595e-06
4.87169e-06
4.78892e-06
4.70756e-06
4.62752e-06
4.54874e-06
4.47117e-06
4.39475e-06
4.31945e-06
4.24523e-06
4.17206e-06
4.09989e-06
4.02872e-06
3.95852e-06
3.88926e-06
3.82094e-06
3.75352e-06
3.687e-06
3.62135e-06
3.55657e-06
3.49264e-06
3.42956e-06
3.36731e-06
3.30589e-06
3.24529e-06
3.18549e-06
3.12649e-06
3.06828e-06
3.01087e-06
2.95424e-06
2.89839e-06
2.84332e-06
2.78902e-06
2.7355e-06
2.68275e-06
2.63077e-06
2.57956e-06
2.52913e-06
2.47947e-06
2.43059e-06
2.38249e-06
2.33519e-06
2.28868e-06
2.24297e-06
2.19807e-06
2.15399e-06
2.11074e-06
2.06833e-06
2.02677e-06
1.98609e-06
1.94628e-06
1.90737e-06
1.86938e-06
1.83233e-06
1.79623e-06
1.7611e-06
1.72698e-06
1.69387e-06
1.66182e-06
1.63083e-06
1.60095e-06
1.57218e-06
1.54457e-06
1.5181e-06
1.49271e-06
1.46789e-06
1.44331e-06
1.41955e-06
1.39719e-06
1.37641e-06
1.35736e-06
1.34017e-06
1.32494e-06
1.31175e-06
1.30062e-06
1.2915e-06
1.28427e-06
1.27873e-06
1.27463e-06
1.27171e-06
1.26968e-06
1.26829e-06
1.26733e-06
1.26664e-06
1.26611e-06
1.26566e-06
1.26525e-06
1.26485e-06
1.26446e-06
5.53463e-06
5.43877e-06
5.34471e-06
5.25258e-06
5.16236e-06
5.07396e-06
4.98729e-06
4.90225e-06
4.81873e-06
4.73666e-06
4.65596e-06
4.57654e-06
4.49834e-06
4.42133e-06
4.34545e-06
4.27067e-06
4.19694e-06
4.12425e-06
4.05256e-06
3.98185e-06
3.91209e-06
3.84327e-06
3.77536e-06
3.70835e-06
3.64223e-06
3.57699e-06
3.51261e-06
3.44907e-06
3.38638e-06
3.32451e-06
3.26346e-06
3.20323e-06
3.1438e-06
3.08518e-06
3.02734e-06
2.97029e-06
2.91402e-06
2.85853e-06
2.80383e-06
2.74991e-06
2.69676e-06
2.64438e-06
2.59278e-06
2.54196e-06
2.49192e-06
2.44266e-06
2.39419e-06
2.34651e-06
2.29962e-06
2.25354e-06
2.20827e-06
2.16383e-06
2.12021e-06
2.07744e-06
2.03553e-06
1.99449e-06
1.95433e-06
1.91508e-06
1.87674e-06
1.83935e-06
1.8029e-06
1.76744e-06
1.73298e-06
1.69954e-06
1.66715e-06
1.63584e-06
1.60564e-06
1.57656e-06
1.54863e-06
1.52187e-06
1.49619e-06
1.47116e-06
1.44643e-06
1.42244e-06
1.39978e-06
1.3787e-06
1.35935e-06
1.34187e-06
1.32636e-06
1.31291e-06
1.30154e-06
1.2922e-06
1.28479e-06
1.27911e-06
1.2749e-06
1.2719e-06
1.26982e-06
1.26839e-06
1.26742e-06
1.26672e-06
1.26618e-06
1.26572e-06
1.2653e-06
1.2649e-06
1.26451e-06
5.57023e-06
5.47359e-06
5.37867e-06
5.28562e-06
5.1945e-06
5.10524e-06
5.01775e-06
4.93193e-06
4.84768e-06
4.76491e-06
4.68354e-06
4.60349e-06
4.52469e-06
4.44711e-06
4.37067e-06
4.29534e-06
4.22108e-06
4.14785e-06
4.07564e-06
4.00442e-06
3.93416e-06
3.86486e-06
3.79648e-06
3.72901e-06
3.66244e-06
3.59675e-06
3.53192e-06
3.46795e-06
3.40481e-06
3.34252e-06
3.28105e-06
3.22039e-06
3.16055e-06
3.10151e-06
3.04327e-06
2.98582e-06
2.92916e-06
2.87328e-06
2.81819e-06
2.76387e-06
2.71033e-06
2.65757e-06
2.60559e-06
2.55439e-06
2.50398e-06
2.45435e-06
2.40551e-06
2.35746e-06
2.31021e-06
2.26378e-06
2.21815e-06
2.17336e-06
2.1294e-06
2.08628e-06
2.04402e-06
2.00264e-06
1.96214e-06
1.92255e-06
1.88388e-06
1.84615e-06
1.80938e-06
1.77359e-06
1.7388e-06
1.70504e-06
1.67233e-06
1.64071e-06
1.61019e-06
1.5808e-06
1.55258e-06
1.52552e-06
1.49957e-06
1.47434e-06
1.44945e-06
1.42524e-06
1.40229e-06
1.38093e-06
1.36129e-06
1.34353e-06
1.32775e-06
1.31404e-06
1.30243e-06
1.2929e-06
1.28531e-06
1.27948e-06
1.27517e-06
1.27209e-06
1.26995e-06
1.2685e-06
1.2675e-06
1.26679e-06
1.26624e-06
1.26578e-06
1.26536e-06
1.26496e-06
1.26457e-06
5.60453e-06
5.50725e-06
5.41152e-06
5.31762e-06
5.22563e-06
5.13553e-06
5.04724e-06
4.96066e-06
4.8757e-06
4.79226e-06
4.71024e-06
4.62957e-06
4.55017e-06
4.472e-06
4.395e-06
4.31913e-06
4.24434e-06
4.17061e-06
4.09791e-06
4.0262e-06
3.95547e-06
3.88569e-06
3.81685e-06
3.74893e-06
3.6819e-06
3.61577e-06
3.5505e-06
3.4861e-06
3.42255e-06
3.35984e-06
3.29797e-06
3.23692e-06
3.17668e-06
3.11725e-06
3.05862e-06
3.00078e-06
2.94374e-06
2.88748e-06
2.83201e-06
2.77733e-06
2.72342e-06
2.6703e-06
2.61795e-06
2.56639e-06
2.51561e-06
2.46563e-06
2.41643e-06
2.36803e-06
2.32044e-06
2.27366e-06
2.22769e-06
2.18256e-06
2.13826e-06
2.09481e-06
2.05222e-06
2.0105e-06
1.96968e-06
1.92976e-06
1.89077e-06
1.85272e-06
1.81563e-06
1.77952e-06
1.74442e-06
1.71035e-06
1.67734e-06
1.64541e-06
1.61459e-06
1.58491e-06
1.5564e-06
1.52906e-06
1.50285e-06
1.47743e-06
1.45239e-06
1.42796e-06
1.40474e-06
1.3831e-06
1.36318e-06
1.34514e-06
1.3291e-06
1.31514e-06
1.30331e-06
1.29357e-06
1.28581e-06
1.27985e-06
1.27543e-06
1.27227e-06
1.27008e-06
1.2686e-06
1.26758e-06
1.26685e-06
1.2663e-06
1.26584e-06
1.26541e-06
1.26501e-06
1.26461e-06
5.63745e-06
5.53962e-06
5.44315e-06
5.34842e-06
5.2556e-06
5.16468e-06
5.07562e-06
4.98831e-06
4.90266e-06
4.81856e-06
4.73591e-06
4.65464e-06
4.57467e-06
4.49594e-06
4.41841e-06
4.34201e-06
4.26671e-06
4.19248e-06
4.11929e-06
4.04711e-06
3.97592e-06
3.90569e-06
3.8364e-06
3.76804e-06
3.70059e-06
3.63403e-06
3.56836e-06
3.50355e-06
3.4396e-06
3.37649e-06
3.31423e-06
3.25278e-06
3.19216e-06
3.13234e-06
3.07333e-06
3.01512e-06
2.95771e-06
2.90109e-06
2.84526e-06
2.79022e-06
2.73596e-06
2.68248e-06
2.62979e-06
2.57789e-06
2.52678e-06
2.47645e-06
2.42692e-06
2.37819e-06
2.33026e-06
2.28315e-06
2.23686e-06
2.1914e-06
2.14678e-06
2.10301e-06
2.0601e-06
2.01807e-06
1.97693e-06
1.9367e-06
1.8974e-06
1.85904e-06
1.82164e-06
1.78523e-06
1.74983e-06
1.71547e-06
1.68216e-06
1.64994e-06
1.61884e-06
1.58887e-06
1.56008e-06
1.53247e-06
1.50601e-06
1.4804e-06
1.45522e-06
1.43058e-06
1.4071e-06
1.38519e-06
1.36501e-06
1.34671e-06
1.33041e-06
1.31622e-06
1.30416e-06
1.29423e-06
1.2863e-06
1.2802e-06
1.27568e-06
1.27245e-06
1.27021e-06
1.26869e-06
1.26765e-06
1.26692e-06
1.26636e-06
1.26589e-06
1.26546e-06
1.26505e-06
1.26466e-06
5.66877e-06
5.57057e-06
5.47347e-06
5.378e-06
5.28439e-06
5.1927e-06
5.10288e-06
5.01486e-06
4.92852e-06
4.84376e-06
4.76049e-06
4.67863e-06
4.5981e-06
4.51883e-06
4.44076e-06
4.36385e-06
4.28807e-06
4.21337e-06
4.13972e-06
4.06708e-06
3.99544e-06
3.92477e-06
3.85506e-06
3.78628e-06
3.71841e-06
3.65145e-06
3.58538e-06
3.52018e-06
3.45584e-06
3.39235e-06
3.32971e-06
3.26789e-06
3.20691e-06
3.14673e-06
3.08737e-06
3.02881e-06
2.97106e-06
2.91409e-06
2.85792e-06
2.80254e-06
2.74794e-06
2.69413e-06
2.64111e-06
2.58888e-06
2.53744e-06
2.4868e-06
2.43695e-06
2.38791e-06
2.33967e-06
2.29225e-06
2.24565e-06
2.19988e-06
2.15495e-06
2.11088e-06
2.06767e-06
2.02534e-06
1.9839e-06
1.94336e-06
1.90376e-06
1.8651e-06
1.82741e-06
1.79071e-06
1.75503e-06
1.72037e-06
1.68679e-06
1.65429e-06
1.62291e-06
1.59267e-06
1.56361e-06
1.53575e-06
1.50904e-06
1.48326e-06
1.45795e-06
1.43311e-06
1.40938e-06
1.38721e-06
1.36677e-06
1.34822e-06
1.33168e-06
1.31725e-06
1.30499e-06
1.29486e-06
1.28678e-06
1.28055e-06
1.27593e-06
1.27262e-06
1.27033e-06
1.26878e-06
1.26772e-06
1.26698e-06
1.26641e-06
1.26594e-06
1.26551e-06
1.2651e-06
1.2647e-06
5.69839e-06
5.60006e-06
5.50243e-06
5.40626e-06
5.31189e-06
5.21944e-06
5.12888e-06
5.04015e-06
4.95314e-06
4.86774e-06
4.78388e-06
4.70145e-06
4.62038e-06
4.5406e-06
4.46204e-06
4.38465e-06
4.3084e-06
4.23324e-06
4.15915e-06
4.08608e-06
4.01401e-06
3.94293e-06
3.87281e-06
3.80363e-06
3.73537e-06
3.66803e-06
3.60158e-06
3.53601e-06
3.4713e-06
3.40745e-06
3.34445e-06
3.28229e-06
3.22095e-06
3.16043e-06
3.10072e-06
3.04182e-06
2.98373e-06
2.92644e-06
2.86994e-06
2.81424e-06
2.75933e-06
2.70521e-06
2.65188e-06
2.59934e-06
2.5476e-06
2.49665e-06
2.4465e-06
2.39716e-06
2.34862e-06
2.3009e-06
2.25401e-06
2.20794e-06
2.16272e-06
2.11835e-06
2.07485e-06
2.03223e-06
1.99051e-06
1.94969e-06
1.90981e-06
1.87087e-06
1.83291e-06
1.79593e-06
1.75997e-06
1.72505e-06
1.69119e-06
1.65843e-06
1.62679e-06
1.5963e-06
1.56698e-06
1.53887e-06
1.51194e-06
1.48599e-06
1.46055e-06
1.43552e-06
1.41155e-06
1.38914e-06
1.36846e-06
1.34967e-06
1.3329e-06
1.31825e-06
1.30578e-06
1.29547e-06
1.28723e-06
1.28088e-06
1.27616e-06
1.27279e-06
1.27045e-06
1.26887e-06
1.26779e-06
1.26703e-06
1.26646e-06
1.26598e-06
1.26555e-06
1.26514e-06
1.26474e-06
5.72631e-06
5.62785e-06
5.5298e-06
5.43303e-06
5.33797e-06
5.24479e-06
5.15353e-06
5.06413e-06
4.97648e-06
4.89048e-06
4.80604e-06
4.72306e-06
4.64147e-06
4.56119e-06
4.48216e-06
4.40432e-06
4.32763e-06
4.25203e-06
4.17751e-06
4.10402e-06
4.03156e-06
3.9601e-06
3.8896e-06
3.82006e-06
3.75144e-06
3.68373e-06
3.61691e-06
3.55098e-06
3.48593e-06
3.42173e-06
3.35838e-06
3.29587e-06
3.23421e-06
3.17336e-06
3.11334e-06
3.05414e-06
2.99574e-06
2.93813e-06
2.88133e-06
2.82532e-06
2.77011e-06
2.71569e-06
2.66206e-06
2.60923e-06
2.5572e-06
2.50596e-06
2.45552e-06
2.40589e-06
2.35708e-06
2.30908e-06
2.2619e-06
2.21556e-06
2.17007e-06
2.12543e-06
2.08165e-06
2.03876e-06
1.99677e-06
1.95569e-06
1.91554e-06
1.87634e-06
1.83811e-06
1.80087e-06
1.76465e-06
1.72948e-06
1.69537e-06
1.66235e-06
1.63047e-06
1.59973e-06
1.57018e-06
1.54183e-06
1.51468e-06
1.48858e-06
1.46301e-06
1.43781e-06
1.41361e-06
1.39097e-06
1.37007e-06
1.35105e-06
1.33406e-06
1.3192e-06
1.30654e-06
1.29606e-06
1.28767e-06
1.2812e-06
1.27639e-06
1.27294e-06
1.27056e-06
1.26895e-06
1.26786e-06
1.26709e-06
1.26651e-06
1.26603e-06
1.26559e-06
1.26518e-06
1.26477e-06
5.75228e-06
5.65379e-06
5.55551e-06
5.45825e-06
5.36257e-06
5.26873e-06
5.1768e-06
5.08673e-06
4.99846e-06
4.91188e-06
4.82689e-06
4.74339e-06
4.66131e-06
4.58056e-06
4.50108e-06
4.42281e-06
4.34569e-06
4.2697e-06
4.19478e-06
4.12092e-06
4.04808e-06
3.97623e-06
3.90537e-06
3.83546e-06
3.76649e-06
3.69844e-06
3.63129e-06
3.56503e-06
3.49965e-06
3.43513e-06
3.37148e-06
3.30867e-06
3.2467e-06
3.18556e-06
3.12524e-06
3.06574e-06
3.00704e-06
2.94914e-06
2.89205e-06
2.83575e-06
2.78026e-06
2.72556e-06
2.67165e-06
2.61854e-06
2.56623e-06
2.51472e-06
2.46401e-06
2.41411e-06
2.36502e-06
2.31675e-06
2.26932e-06
2.22271e-06
2.17696e-06
2.13206e-06
2.08804e-06
2.04489e-06
2.00265e-06
1.96132e-06
1.92092e-06
1.88148e-06
1.843e-06
1.80553e-06
1.76907e-06
1.73365e-06
1.6993e-06
1.66605e-06
1.63393e-06
1.60297e-06
1.57319e-06
1.54463e-06
1.51727e-06
1.49102e-06
1.46534e-06
1.43997e-06
1.41556e-06
1.39271e-06
1.37159e-06
1.35235e-06
1.33516e-06
1.3201e-06
1.30726e-06
1.29662e-06
1.28809e-06
1.2815e-06
1.2766e-06
1.27309e-06
1.27067e-06
1.26903e-06
1.26792e-06
1.26714e-06
1.26656e-06
1.26607e-06
1.26563e-06
1.26522e-06
1.26481e-06
5.77638e-06
5.67789e-06
5.57947e-06
5.48179e-06
5.38556e-06
5.29111e-06
5.19856e-06
5.1079e-06
5.01905e-06
4.93193e-06
4.84642e-06
4.76243e-06
4.67987e-06
4.59867e-06
4.51876e-06
4.44008e-06
4.36257e-06
4.28619e-06
4.21091e-06
4.13668e-06
4.06348e-06
3.99129e-06
3.92009e-06
3.84984e-06
3.78055e-06
3.71218e-06
3.64472e-06
3.57816e-06
3.51248e-06
3.44767e-06
3.38372e-06
3.32062e-06
3.25836e-06
3.19693e-06
3.13633e-06
3.07654e-06
3.01756e-06
2.95939e-06
2.90203e-06
2.84546e-06
2.7897e-06
2.73473e-06
2.68057e-06
2.6272e-06
2.57464e-06
2.52288e-06
2.47192e-06
2.42178e-06
2.37245e-06
2.32394e-06
2.27627e-06
2.22943e-06
2.18344e-06
2.1383e-06
2.09404e-06
2.05065e-06
2.00817e-06
1.96661e-06
1.92597e-06
1.88629e-06
1.84759e-06
1.80988e-06
1.77319e-06
1.73755e-06
1.70298e-06
1.66951e-06
1.63718e-06
1.606e-06
1.57601e-06
1.54724e-06
1.51969e-06
1.49329e-06
1.46749e-06
1.44198e-06
1.41739e-06
1.39433e-06
1.37301e-06
1.35358e-06
1.33619e-06
1.32095e-06
1.30794e-06
1.29714e-06
1.28848e-06
1.28179e-06
1.2768e-06
1.27324e-06
1.27077e-06
1.2691e-06
1.26798e-06
1.26719e-06
1.2666e-06
1.26611e-06
1.26567e-06
1.26525e-06
1.26485e-06
5.7987e-06
5.7002e-06
5.60167e-06
5.50361e-06
5.40688e-06
5.31187e-06
5.21874e-06
5.12752e-06
5.03813e-06
4.95049e-06
4.8645e-06
4.78006e-06
4.69708e-06
4.61547e-06
4.53517e-06
4.45611e-06
4.37823e-06
4.30149e-06
4.22585e-06
4.15128e-06
4.07776e-06
4.00525e-06
3.93373e-06
3.86319e-06
3.79359e-06
3.72493e-06
3.65718e-06
3.59033e-06
3.52437e-06
3.45928e-06
3.39506e-06
3.33169e-06
3.26916e-06
3.20746e-06
3.14659e-06
3.08654e-06
3.0273e-06
2.96888e-06
2.91127e-06
2.85447e-06
2.79846e-06
2.74326e-06
2.68885e-06
2.63525e-06
2.58244e-06
2.53045e-06
2.47926e-06
2.42888e-06
2.37933e-06
2.33059e-06
2.28269e-06
2.23563e-06
2.18941e-06
2.14406e-06
2.09958e-06
2.05598e-06
2.01328e-06
1.9715e-06
1.93065e-06
1.89076e-06
1.85184e-06
1.81393e-06
1.77703e-06
1.74118e-06
1.7064e-06
1.67273e-06
1.6402e-06
1.60882e-06
1.57864e-06
1.54968e-06
1.52194e-06
1.49536e-06
1.46944e-06
1.44382e-06
1.41908e-06
1.39585e-06
1.37434e-06
1.35473e-06
1.33715e-06
1.32175e-06
1.30857e-06
1.29763e-06
1.28885e-06
1.28206e-06
1.277e-06
1.27337e-06
1.27086e-06
1.26917e-06
1.26803e-06
1.26724e-06
1.26664e-06
1.26615e-06
1.26571e-06
1.26529e-06
1.26488e-06
5.81915e-06
5.72059e-06
5.62198e-06
5.52365e-06
5.42648e-06
5.33097e-06
5.23732e-06
5.14558e-06
5.05569e-06
4.96757e-06
4.88112e-06
4.79625e-06
4.71285e-06
4.63086e-06
4.55018e-06
4.47077e-06
4.39255e-06
4.3155e-06
4.23956e-06
4.1647e-06
4.09088e-06
4.01809e-06
3.94629e-06
3.87546e-06
3.80559e-06
3.73666e-06
3.66864e-06
3.60152e-06
3.53529e-06
3.46994e-06
3.40546e-06
3.34184e-06
3.27906e-06
3.21712e-06
3.15601e-06
3.09573e-06
3.03626e-06
2.97761e-06
2.91977e-06
2.86274e-06
2.80651e-06
2.75109e-06
2.69646e-06
2.64264e-06
2.58962e-06
2.53741e-06
2.48601e-06
2.43542e-06
2.38565e-06
2.33671e-06
2.2886e-06
2.24132e-06
2.1949e-06
2.14934e-06
2.10466e-06
2.06086e-06
2.01796e-06
1.97598e-06
1.93494e-06
1.89485e-06
1.85574e-06
1.81763e-06
1.78054e-06
1.74451e-06
1.70954e-06
1.67569e-06
1.64296e-06
1.61141e-06
1.58105e-06
1.55191e-06
1.524e-06
1.49726e-06
1.47122e-06
1.44551e-06
1.42064e-06
1.39724e-06
1.37556e-06
1.35578e-06
1.33804e-06
1.32248e-06
1.30916e-06
1.29809e-06
1.2892e-06
1.28231e-06
1.27718e-06
1.2735e-06
1.27096e-06
1.26924e-06
1.26809e-06
1.26729e-06
1.26669e-06
1.26619e-06
1.26575e-06
1.26533e-06
1.26491e-06
5.83762e-06
5.73886e-06
5.64026e-06
5.54184e-06
5.44435e-06
5.3484e-06
5.25427e-06
5.16203e-06
5.07167e-06
4.9831e-06
4.89623e-06
4.81096e-06
4.7272e-06
4.64485e-06
4.56384e-06
4.48411e-06
4.40558e-06
4.32823e-06
4.25201e-06
4.17687e-06
4.10278e-06
4.02972e-06
3.95767e-06
3.88659e-06
3.81647e-06
3.74728e-06
3.67902e-06
3.61166e-06
3.5452e-06
3.47961e-06
3.41489e-06
3.35103e-06
3.28802e-06
3.22586e-06
3.16454e-06
3.10404e-06
3.04437e-06
2.98552e-06
2.92747e-06
2.87024e-06
2.81381e-06
2.75819e-06
2.70337e-06
2.64935e-06
2.59614e-06
2.54374e-06
2.49214e-06
2.44137e-06
2.39141e-06
2.34227e-06
2.29398e-06
2.24652e-06
2.19991e-06
2.15417e-06
2.1093e-06
2.06531e-06
2.02223e-06
1.98007e-06
1.93884e-06
1.89858e-06
1.85929e-06
1.821e-06
1.78374e-06
1.74753e-06
1.7124e-06
1.67837e-06
1.64548e-06
1.61376e-06
1.58323e-06
1.55394e-06
1.52588e-06
1.49899e-06
1.47284e-06
1.44705e-06
1.42206e-06
1.3985e-06
1.37667e-06
1.35674e-06
1.33886e-06
1.32315e-06
1.3097e-06
1.29851e-06
1.28951e-06
1.28254e-06
1.27734e-06
1.27361e-06
1.27104e-06
1.2693e-06
1.26814e-06
1.26733e-06
1.26672e-06
1.26623e-06
1.26578e-06
1.26536e-06
1.26494e-06
5.85419e-06
5.75523e-06
5.65663e-06
5.55811e-06
5.46033e-06
5.36399e-06
5.26944e-06
5.17678e-06
5.086e-06
4.99703e-06
4.90978e-06
4.82414e-06
4.74004e-06
4.65737e-06
4.57606e-06
4.49603e-06
4.41724e-06
4.33963e-06
4.26315e-06
4.18776e-06
4.11344e-06
4.04014e-06
3.96785e-06
3.89654e-06
3.8262e-06
3.75679e-06
3.68831e-06
3.62074e-06
3.55406e-06
3.48827e-06
3.42335e-06
3.35929e-06
3.29608e-06
3.23372e-06
3.17221e-06
3.11152e-06
3.05166e-06
2.99262e-06
2.93439e-06
2.87697e-06
2.82036e-06
2.76455e-06
2.70956e-06
2.65536e-06
2.60198e-06
2.5494e-06
2.49763e-06
2.44668e-06
2.39655e-06
2.34725e-06
2.29877e-06
2.25115e-06
2.20437e-06
2.15846e-06
2.11343e-06
2.06929e-06
2.02604e-06
1.98372e-06
1.94234e-06
1.90192e-06
1.86247e-06
1.82403e-06
1.78661e-06
1.75025e-06
1.71496e-06
1.68078e-06
1.64774e-06
1.61587e-06
1.5852e-06
1.55576e-06
1.52757e-06
1.50055e-06
1.4743e-06
1.44843e-06
1.42333e-06
1.39964e-06
1.37768e-06
1.35761e-06
1.33959e-06
1.32375e-06
1.31018e-06
1.29888e-06
1.28979e-06
1.28274e-06
1.27749e-06
1.27372e-06
1.27111e-06
1.26936e-06
1.26818e-06
1.26736e-06
1.26675e-06
1.26626e-06
1.26581e-06
1.26538e-06
1.26497e-06
5.86878e-06
5.76965e-06
5.67105e-06
5.57245e-06
5.47442e-06
5.37774e-06
5.28282e-06
5.18979e-06
5.09864e-06
5.00931e-06
4.92172e-06
4.83578e-06
4.75138e-06
4.66843e-06
4.58685e-06
4.50658e-06
4.42754e-06
4.3497e-06
4.27298e-06
4.19737e-06
4.12282e-06
4.04931e-06
3.9768e-06
3.90528e-06
3.83473e-06
3.76512e-06
3.69644e-06
3.62869e-06
3.56183e-06
3.49587e-06
3.43078e-06
3.36656e-06
3.30319e-06
3.24067e-06
3.17898e-06
3.11813e-06
3.0581e-06
2.99888e-06
2.94048e-06
2.8829e-06
2.82612e-06
2.77016e-06
2.715e-06
2.66065e-06
2.60711e-06
2.55438e-06
2.50247e-06
2.45137e-06
2.40109e-06
2.35164e-06
2.30302e-06
2.25525e-06
2.20833e-06
2.16227e-06
2.11709e-06
2.0728e-06
2.02942e-06
1.98695e-06
1.94543e-06
1.90486e-06
1.86527e-06
1.82669e-06
1.78914e-06
1.75264e-06
1.71722e-06
1.68291e-06
1.64974e-06
1.61773e-06
1.58694e-06
1.55737e-06
1.52905e-06
1.50192e-06
1.47559e-06
1.44965e-06
1.42446e-06
1.40065e-06
1.37856e-06
1.35837e-06
1.34023e-06
1.32429e-06
1.31061e-06
1.29922e-06
1.29004e-06
1.28293e-06
1.27762e-06
1.27381e-06
1.27118e-06
1.2694e-06
1.26822e-06
1.26739e-06
1.26678e-06
1.26628e-06
1.26583e-06
1.26541e-06
1.26499e-06
5.88135e-06
5.78208e-06
5.68348e-06
5.58483e-06
5.48659e-06
5.38963e-06
5.29438e-06
5.20101e-06
5.10954e-06
5.01992e-06
4.93205e-06
4.84585e-06
4.7612e-06
4.67801e-06
4.5962e-06
4.5157e-06
4.43644e-06
4.35837e-06
4.28144e-06
4.20563e-06
4.13088e-06
4.05717e-06
3.98448e-06
3.91278e-06
3.84206e-06
3.7723e-06
3.70347e-06
3.63556e-06
3.56855e-06
3.50243e-06
3.43719e-06
3.37281e-06
3.3093e-06
3.24662e-06
3.18479e-06
3.12379e-06
3.06361e-06
3.00426e-06
2.94573e-06
2.88801e-06
2.8311e-06
2.775e-06
2.71971e-06
2.66522e-06
2.61154e-06
2.55868e-06
2.50663e-06
2.4554e-06
2.40499e-06
2.35541e-06
2.30667e-06
2.25877e-06
2.21173e-06
2.16554e-06
2.12024e-06
2.07582e-06
2.03232e-06
1.98973e-06
1.94809e-06
1.9074e-06
1.8677e-06
1.829e-06
1.79133e-06
1.75471e-06
1.71917e-06
1.68474e-06
1.65146e-06
1.61934e-06
1.58844e-06
1.55876e-06
1.53033e-06
1.50311e-06
1.4767e-06
1.45071e-06
1.42543e-06
1.40152e-06
1.37933e-06
1.35903e-06
1.34079e-06
1.32475e-06
1.31098e-06
1.29951e-06
1.29026e-06
1.28308e-06
1.27773e-06
1.27389e-06
1.27123e-06
1.26945e-06
1.26825e-06
1.26742e-06
1.26681e-06
1.26631e-06
1.26585e-06
1.26543e-06
1.26501e-06
5.89189e-06
5.79248e-06
5.69387e-06
5.59518e-06
5.49678e-06
5.39958e-06
5.30408e-06
5.21044e-06
5.11871e-06
5.02884e-06
4.94074e-06
4.8543e-06
4.76943e-06
4.68603e-06
4.60401e-06
4.52331e-06
4.44387e-06
4.36562e-06
4.28853e-06
4.21255e-06
4.13763e-06
4.06377e-06
3.99093e-06
3.91909e-06
3.84823e-06
3.77832e-06
3.70936e-06
3.64131e-06
3.57417e-06
3.50792e-06
3.44255e-06
3.37805e-06
3.3144e-06
3.2516e-06
3.18963e-06
3.12851e-06
3.06821e-06
3.00874e-06
2.95009e-06
2.89225e-06
2.83523e-06
2.77902e-06
2.72362e-06
2.66902e-06
2.61524e-06
2.56227e-06
2.51012e-06
2.45878e-06
2.40827e-06
2.35858e-06
2.30974e-06
2.26173e-06
2.21458e-06
2.1683e-06
2.12289e-06
2.07837e-06
2.03476e-06
1.99207e-06
1.95032e-06
1.90953e-06
1.86973e-06
1.83093e-06
1.79315e-06
1.75644e-06
1.7208e-06
1.68628e-06
1.6529e-06
1.62069e-06
1.58969e-06
1.55993e-06
1.53141e-06
1.5041e-06
1.47763e-06
1.45159e-06
1.42625e-06
1.40225e-06
1.37997e-06
1.35959e-06
1.34127e-06
1.32514e-06
1.31129e-06
1.29975e-06
1.29044e-06
1.28322e-06
1.27782e-06
1.27395e-06
1.27128e-06
1.26948e-06
1.26827e-06
1.26744e-06
1.26683e-06
1.26632e-06
1.26587e-06
1.26544e-06
1.26502e-06
5.90036e-06
5.80077e-06
5.70207e-06
5.60337e-06
5.50493e-06
5.40759e-06
5.31189e-06
5.21805e-06
5.12611e-06
5.03603e-06
4.94773e-06
4.8611e-06
4.77604e-06
4.69247e-06
4.6103e-06
4.52944e-06
4.44985e-06
4.37145e-06
4.29421e-06
4.2181e-06
4.14307e-06
4.06909e-06
3.99614e-06
3.92418e-06
3.8532e-06
3.78317e-06
3.71409e-06
3.64593e-06
3.57867e-06
3.51231e-06
3.44683e-06
3.38222e-06
3.31847e-06
3.25558e-06
3.19353e-06
3.13231e-06
3.07192e-06
3.01236e-06
2.95361e-06
2.89568e-06
2.83856e-06
2.78226e-06
2.72676e-06
2.67208e-06
2.61821e-06
2.56515e-06
2.51291e-06
2.46149e-06
2.41089e-06
2.36112e-06
2.31218e-06
2.26409e-06
2.21686e-06
2.17049e-06
2.125e-06
2.08041e-06
2.03671e-06
1.99395e-06
1.95212e-06
1.91125e-06
1.87137e-06
1.83248e-06
1.79463e-06
1.75783e-06
1.72212e-06
1.68752e-06
1.65406e-06
1.62178e-06
1.5907e-06
1.56086e-06
1.53228e-06
1.5049e-06
1.47838e-06
1.4523e-06
1.42691e-06
1.40284e-06
1.38049e-06
1.36003e-06
1.34164e-06
1.32545e-06
1.31154e-06
1.29994e-06
1.29059e-06
1.28333e-06
1.2779e-06
1.27401e-06
1.27132e-06
1.26951e-06
1.2683e-06
1.26746e-06
1.26685e-06
1.26634e-06
1.26589e-06
1.26546e-06
1.26504e-06
5.90673e-06
5.807e-06
5.70822e-06
5.60951e-06
5.51103e-06
5.4136e-06
5.31777e-06
5.22378e-06
5.13168e-06
5.04144e-06
4.95297e-06
4.86619e-06
4.781e-06
4.6973e-06
4.615e-06
4.53404e-06
4.45433e-06
4.37584e-06
4.29851e-06
4.2223e-06
4.14718e-06
4.0731e-06
4.00005e-06
3.92799e-06
3.85691e-06
3.7868e-06
3.71763e-06
3.64938e-06
3.58205e-06
3.51561e-06
3.45006e-06
3.38538e-06
3.32155e-06
3.25858e-06
3.19646e-06
3.13517e-06
3.07471e-06
3.01508e-06
2.95626e-06
2.89827e-06
2.84108e-06
2.78471e-06
2.72915e-06
2.67439e-06
2.62045e-06
2.56733e-06
2.51502e-06
2.46353e-06
2.41286e-06
2.36302e-06
2.31402e-06
2.26587e-06
2.21858e-06
2.17215e-06
2.12659e-06
2.08193e-06
2.03818e-06
1.99535e-06
1.95346e-06
1.91253e-06
1.87259e-06
1.83365e-06
1.79574e-06
1.75888e-06
1.72311e-06
1.68845e-06
1.65494e-06
1.6226e-06
1.59147e-06
1.56157e-06
1.53293e-06
1.5055e-06
1.47895e-06
1.45284e-06
1.4274e-06
1.40328e-06
1.38088e-06
1.36037e-06
1.34193e-06
1.32569e-06
1.31173e-06
1.30009e-06
1.2907e-06
1.28341e-06
1.27796e-06
1.27405e-06
1.27135e-06
1.26953e-06
1.26831e-06
1.26748e-06
1.26686e-06
1.26635e-06
1.2659e-06
1.26547e-06
1.26505e-06
5.91099e-06
5.81117e-06
5.71235e-06
5.61364e-06
5.51513e-06
5.41762e-06
5.32168e-06
5.22756e-06
5.13534e-06
5.04499e-06
4.95644e-06
4.86957e-06
4.78429e-06
4.70051e-06
4.61814e-06
4.5371e-06
4.45732e-06
4.37876e-06
4.30137e-06
4.22509e-06
4.1499e-06
4.07577e-06
4.00266e-06
3.93056e-06
3.85943e-06
3.78926e-06
3.72003e-06
3.65172e-06
3.58433e-06
3.51783e-06
3.45222e-06
3.38748e-06
3.32361e-06
3.26059e-06
3.19841e-06
3.13707e-06
3.07657e-06
3.01688e-06
2.95802e-06
2.89997e-06
2.84274e-06
2.78632e-06
2.73072e-06
2.67593e-06
2.62195e-06
2.56878e-06
2.51643e-06
2.46489e-06
2.41418e-06
2.3643e-06
2.31526e-06
2.26706e-06
2.21973e-06
2.17326e-06
2.12766e-06
2.08296e-06
2.03916e-06
1.99629e-06
1.95436e-06
1.91339e-06
1.87341e-06
1.83442e-06
1.79647e-06
1.75958e-06
1.72377e-06
1.68907e-06
1.65552e-06
1.62314e-06
1.59197e-06
1.56204e-06
1.53337e-06
1.50591e-06
1.47933e-06
1.4532e-06
1.42773e-06
1.40358e-06
1.38114e-06
1.3606e-06
1.34212e-06
1.32584e-06
1.31186e-06
1.30019e-06
1.29078e-06
1.28346e-06
1.278e-06
1.27408e-06
1.27137e-06
1.26954e-06
1.26832e-06
1.26749e-06
1.26687e-06
1.26636e-06
1.26591e-06
1.26547e-06
1.26505e-06
5.91313e-06
5.81327e-06
5.71442e-06
5.6157e-06
5.51717e-06
5.4196e-06
5.3236e-06
5.22942e-06
5.13715e-06
5.04676e-06
4.95816e-06
4.87125e-06
4.78593e-06
4.70211e-06
4.61969e-06
4.53861e-06
4.45881e-06
4.38021e-06
4.30279e-06
4.22648e-06
4.15127e-06
4.07712e-06
4.00398e-06
3.93184e-06
3.86068e-06
3.79048e-06
3.72122e-06
3.65289e-06
3.58547e-06
3.51894e-06
3.4533e-06
3.38853e-06
3.32463e-06
3.26158e-06
3.19938e-06
3.13801e-06
3.07748e-06
3.01777e-06
2.95889e-06
2.90082e-06
2.84357e-06
2.78713e-06
2.7315e-06
2.67669e-06
2.62268e-06
2.56949e-06
2.51712e-06
2.46557e-06
2.41484e-06
2.36494e-06
2.31588e-06
2.26767e-06
2.22031e-06
2.17381e-06
2.1282e-06
2.08347e-06
2.03966e-06
1.99677e-06
1.95481e-06
1.91383e-06
1.87382e-06
1.83482e-06
1.79685e-06
1.75994e-06