/*--------------------------------*- C++ -*----------------------------------*\
  =========                 |
  \\      /  F ield         | OpenFOAM: The Open Source CFD Toolbox
   \\    /   O peration     | Website:  https://openfoam.org
    \\  /    A nd           | Version:  7
     \\/     M anipulation  |
\*---------------------------------------------------------------------------*/
FoamFile
{
    version     2.0;
    format      ascii;
    class       volScalarField;
    location    "108000";
    object      p;
}
// * * * * * * * * * * * * * * * * * * * * * * * * * * * * * * * * * * * * * //

dimensions      [0 2 -2 0 0 0 0];

internalField   nonuniform List<scalar> 
4782
(
-1.26456e-18
-1.26473e-18
-1.26498e-18
-1.26558e-18
-1.26701e-18
-1.26413e-18
-1.26238e-18
-1.26412e-18
-1.26566e-18
-1.26356e-18
-1.25657e-18
-1.25675e-18
-1.26899e-18
-1.26972e-18
-1.26484e-18
-1.28065e-18
-1.27481e-18
-1.26154e-18
-1.26601e-18
-1.26411e-18
-1.26398e-18
-1.26773e-18
-1.2689e-18
-1.26806e-18
-1.26478e-18
-1.26627e-18
-1.26582e-18
-1.26247e-18
-1.26124e-18
-1.25637e-18
-1.2611e-18
-1.27091e-18
-1.27717e-18
-1.2641e-18
-1.25989e-18
-1.25408e-18
-1.25425e-18
-1.26142e-18
-1.26466e-18
-1.26216e-18
-1.25778e-18
-1.25786e-18
-1.26772e-18
-1.26676e-18
-1.26517e-18
-1.26057e-18
-1.26388e-18
-1.2675e-18
-1.26165e-18
-1.26201e-18
-1.26774e-18
-1.26329e-18
-1.26198e-18
-1.26872e-18
-1.26902e-18
-1.26203e-18
-1.25904e-18
-1.25794e-18
-1.26503e-18
-1.26598e-18
-1.26563e-18
-1.26405e-18
-1.25971e-18
-1.25849e-18
-1.26542e-18
-1.28092e-18
-1.28174e-18
-1.27555e-18
-1.27546e-18
-1.27578e-18
-1.27661e-18
-1.28091e-18
-1.2804e-18
-1.2774e-18
-1.28599e-18
-1.27572e-18
-1.2749e-18
-1.27583e-18
-1.27323e-18
-1.26865e-18
-1.278e-18
-1.28239e-18
-1.28249e-18
-1.27441e-18
-1.27513e-18
-1.27224e-18
-1.27648e-18
-1.27403e-18
-1.26915e-18
-1.26851e-18
-1.27161e-18
-1.26844e-18
-1.25955e-18
-1.26851e-18
-1.27322e-18
-1.26904e-18
-1.26795e-18
-1.27238e-18
-1.27005e-18
-1.26502e-18
-1.2635e-18
-1.27111e-18
-1.274e-18
-1.26911e-18
-1.26722e-18
-1.26476e-18
-1.26905e-18
-1.26429e-18
-1.26727e-18
-1.26385e-18
-1.26696e-18
-1.26919e-18
-1.26737e-18
-1.2659e-18
-1.26702e-18
-1.26712e-18
-1.2697e-18
-1.26709e-18
-1.26457e-18
-1.26464e-18
-1.26813e-18
-1.25195e-18
-1.25879e-18
-1.25813e-18
-1.25467e-18
-1.25604e-18
-1.25687e-18
-1.26239e-18
-1.27564e-18
-1.26803e-18
-1.26407e-18
-1.26135e-18
-1.25242e-18
-1.24984e-18
-1.26093e-18
-1.26579e-18
-1.26833e-18
-1.26685e-18
-1.26636e-18
-1.25944e-18
-1.26314e-18
-1.26388e-18
-1.26765e-18
-1.27124e-18
-1.2694e-18
-1.27071e-18
-1.26551e-18
-1.2646e-18
-1.26246e-18
-1.26466e-18
-1.26956e-18
-1.26436e-18
-1.26846e-18
-1.26637e-18
-1.26553e-18
-1.26356e-18
-1.27224e-18
-1.27051e-18
-1.26871e-18
-1.26844e-18
-1.26839e-18
-1.26769e-18
-1.26725e-18
-1.26445e-18
-1.26564e-18
-1.27068e-18
-1.26761e-18
-1.26748e-18
-1.26937e-18
-1.26556e-18
-1.26353e-18
-1.26612e-18
-1.26692e-18
-1.26754e-18
-1.26574e-18
-1.27244e-18
-1.2809e-18
-1.28098e-18
-1.27384e-18
-1.27157e-18
-1.26747e-18
-1.27206e-18
-1.28203e-18
-1.28389e-18
-1.28452e-18
-1.27722e-18
-1.27436e-18
-1.27661e-18
-1.28638e-18
-1.28904e-18
-1.2862e-18
-1.28524e-18
-1.28824e-18
-1.28133e-18
-1.28491e-18
-1.28796e-18
-1.28657e-18
-1.27584e-18
-1.27981e-18
-1.28377e-18
-1.28582e-18
-1.27574e-18
-1.28331e-18
-1.28745e-18
-1.28991e-18
-1.28963e-18
-1.28118e-18
-1.28123e-18
-1.29329e-18
-1.28573e-18
-1.27882e-18
-1.28374e-18
-1.28731e-18
-1.2858e-18
-1.2857e-18
-1.28076e-18
-1.2775e-18
-1.27729e-18
-1.2774e-18
-1.28181e-18
-1.28228e-18
-1.28663e-18
-1.28459e-18
-1.27774e-18
-1.28077e-18
-1.28007e-18
-1.27871e-18
-1.27733e-18
-1.27728e-18
-1.27839e-18
-1.27416e-18
-1.26818e-18
-1.26968e-18
-1.27079e-18
-1.27166e-18
-1.27342e-18
-1.27292e-18
-1.27434e-18
-1.26725e-18
-1.25696e-18
-1.26782e-18
-1.27713e-18
-1.27637e-18
-1.26573e-18
-1.26175e-18
-1.26705e-18
-1.27466e-18
-1.26975e-18
-1.27442e-18
-1.27222e-18
-1.27973e-18
-1.27542e-18
-1.28361e-18
-1.28134e-18
-1.27992e-18
-1.28247e-18
-1.29326e-18
-1.28226e-18
-1.27679e-18
-1.27916e-18
-1.28176e-18
-1.28244e-18
-1.28485e-18
-1.2742e-18
-1.28181e-18
-1.28885e-18
-1.28413e-18
-1.28275e-18
-1.28294e-18
-1.28309e-18
-1.28287e-18
-1.28323e-18
-1.28447e-18
-1.28687e-18
-1.28153e-18
-1.28129e-18
-1.27613e-18
-1.27738e-18
-1.28192e-18
-1.27869e-18
-1.27824e-18
-1.27848e-18
-1.27939e-18
-1.27981e-18
-1.2776e-18
-1.27741e-18
-1.28524e-18
-1.27978e-18
-1.27913e-18
-1.28086e-18
-1.28387e-18
-1.28822e-18
-1.28454e-18
-1.27075e-18
-1.27561e-18
-1.28439e-18
-1.28794e-18
-1.29668e-18
-1.30049e-18
-1.29206e-18
-1.2833e-18
-1.27731e-18
-1.28244e-18
-1.28503e-18
-1.29265e-18
-1.28831e-18
-1.28635e-18
-1.28672e-18
-1.28675e-18
-1.28519e-18
-1.28213e-18
-1.28787e-18
-1.28563e-18
-1.28989e-18
-1.28362e-18
-1.28273e-18
-1.28845e-18
-1.29125e-18
-1.29339e-18
-1.29322e-18
-1.29518e-18
-1.28943e-18
-1.28878e-18
-1.29047e-18
-1.29091e-18
-1.29079e-18
-1.28981e-18
-1.28981e-18
-1.29452e-18
-1.29119e-18
-1.28601e-18
-1.29167e-18
-1.29032e-18
-1.28724e-18
-1.28965e-18
-1.29133e-18
-1.28643e-18
-1.28803e-18
-1.28662e-18
-1.28835e-18
-1.2881e-18
-1.28533e-18
-1.28372e-18
-1.28534e-18
-1.28099e-18
-1.27858e-18
-1.27588e-18
-1.27748e-18
-1.27782e-18
-1.27571e-18
-1.27231e-18
-1.27691e-18
-1.27487e-18
-1.26355e-18
-1.27442e-18
-1.27599e-18
-1.27434e-18
-1.27466e-18
-1.28219e-18
-1.27529e-18
-1.27386e-18
-1.27413e-18
-1.27688e-18
-1.27718e-18
-1.28109e-18
-1.27834e-18
-1.28148e-18
-1.2854e-18
-1.28262e-18
-1.28102e-18
-1.29007e-18
-1.29813e-18
-1.2877e-18
-1.28086e-18
-1.283e-18
-1.28758e-18
-1.28374e-18
-1.28665e-18
-1.29539e-18
-1.29683e-18
-1.28686e-18
-1.284e-18
-1.2896e-18
-1.28713e-18
-1.28842e-18
-1.286e-18
-1.28929e-18
-1.28779e-18
-1.28977e-18
-1.28861e-18
-1.28443e-18
-1.2854e-18
-1.2863e-18
-1.28381e-18
-1.28512e-18
-1.28266e-18
-1.28119e-18
-1.28203e-18
-1.28304e-18
-1.28209e-18
-1.28394e-18
-1.28466e-18
-1.28514e-18
-1.2819e-18
-1.28848e-18
-1.29013e-18
-1.28418e-18
-1.28305e-18
-1.29106e-18
-1.28436e-18
-1.28892e-18
-1.28866e-18
-1.28147e-18
-1.27564e-18
-1.2752e-18
-1.28288e-18
-1.29073e-18
-1.28524e-18
-1.28537e-18
-1.28331e-18
-1.2838e-18
-1.28726e-18
-1.28828e-18
-1.2935e-18
-1.2901e-18
-1.28083e-18
-1.27769e-18
-1.28967e-18
-1.28837e-18
-1.29657e-18
-1.30052e-18
-1.29127e-18
-1.28641e-18
-1.29001e-18
-1.29556e-18
-1.29607e-18
-1.28692e-18
-1.28795e-18
-1.28899e-18
-1.29174e-18
-1.286e-18
-1.28268e-18
-1.29145e-18
-1.29214e-18
-1.28665e-18
-1.29206e-18
-1.29233e-18
-1.28587e-18
-1.28622e-18
-1.29338e-18
-1.2938e-18
-1.29404e-18
-1.28957e-18
-1.29019e-18
-1.28959e-18
-1.28954e-18
-1.29207e-18
-1.29119e-18
-1.28948e-18
-1.28919e-18
-1.2895e-18
-1.29407e-18
-1.29188e-18
-1.29169e-18
-1.28913e-18
-1.28895e-18
-1.29036e-18
-1.2931e-18
-1.29235e-18
-1.28959e-18
-1.2915e-18
-1.29082e-18
-1.29146e-18
-1.29137e-18
-1.29187e-18
-1.29262e-18
-1.29141e-18
-1.29177e-18
-1.29113e-18
-1.29144e-18
-1.2918e-18
-1.29218e-18
-1.29156e-18
-1.29159e-18
-1.29165e-18
-1.29129e-18
-1.29123e-18
-1.29135e-18
-1.29108e-18
-1.29148e-18
-1.29128e-18
-1.29105e-18
-1.29129e-18
-1.29144e-18
-1.29143e-18
-1.29127e-18
-1.29123e-18
-1.29119e-18
-1.29118e-18
-1.26902e-18
-1.27739e-18
-1.27916e-18
-1.27698e-18
-1.26329e-18
-1.26855e-18
-1.2688e-18
-1.27477e-18
-1.27064e-18
-1.27229e-18
-1.27151e-18
-1.26858e-18
-1.27282e-18
-1.27649e-18
-1.27347e-18
-1.27398e-18
-1.27524e-18
-1.2698e-18
-1.27947e-18
-1.2862e-18
-1.28439e-18
-1.28252e-18
-1.2798e-18
-1.27921e-18
-1.27973e-18
-1.27971e-18
-1.28071e-18
-1.28628e-18
-1.2859e-18
-1.28133e-18
-1.27898e-18
-1.28354e-18
-1.28391e-18
-1.28641e-18
-1.2829e-18
-1.28422e-18
-1.2864e-18
-1.28485e-18
-1.28104e-18
-1.27818e-18
-1.27932e-18
-1.2813e-18
-1.28042e-18
-1.28065e-18
-1.28021e-18
-1.28255e-18
-1.28198e-18
-1.28246e-18
-1.28207e-18
-1.28085e-18
-1.28364e-18
-1.28533e-18
-1.28354e-18
-1.28327e-18
-1.28537e-18
-1.28456e-18
-1.28581e-18
-1.2841e-18
-1.28487e-18
-1.28406e-18
-1.28362e-18
-1.28524e-18
-1.28411e-18
-1.28619e-18
-1.28938e-18
-1.28711e-18
-1.28578e-18
-1.28657e-18
-1.28587e-18
-1.28697e-18
-1.2873e-18
-1.28747e-18
-1.28633e-18
-1.28601e-18
-1.28643e-18
-1.28666e-18
-1.28655e-18
-1.28704e-18
-1.28672e-18
-1.28694e-18
-1.28753e-18
-1.28698e-18
-1.28742e-18
-1.28754e-18
-1.28761e-18
-1.2873e-18
-1.2872e-18
-1.28745e-18
-1.28737e-18
-1.28756e-18
-1.28761e-18
-1.2874e-18
-1.2876e-18
-1.28763e-18
-1.28762e-18
-1.29614e-18
-1.30215e-18
-1.30318e-18
-1.29494e-18
-1.29282e-18
-1.28929e-18
-1.28961e-18
-1.29466e-18
-1.29168e-18
-1.29324e-18
-1.28084e-18
-1.2769e-18
-1.29201e-18
-1.2955e-18
-1.2882e-18
-1.27988e-18
-1.28436e-18
-1.28982e-18
-1.28275e-18
-1.28342e-18
-1.28493e-18
-1.28556e-18
-1.28498e-18
-1.28325e-18
-1.2858e-18
-1.2847e-18
-1.28003e-18
-1.2826e-18
-1.2816e-18
-1.28786e-18
-1.2865e-18
-1.28338e-18
-1.28399e-18
-1.28174e-18
-1.28617e-18
-1.29786e-18
-1.2898e-18
-1.28764e-18
-1.28687e-18
-1.28774e-18
-1.28615e-18
-1.2865e-18
-1.28961e-18
-1.29063e-18
-1.28936e-18
-1.28847e-18
-1.28259e-18
-1.28393e-18
-1.28763e-18
-1.29364e-18
-1.28909e-18
-1.28943e-18
-1.29196e-18
-1.29436e-18
-1.29315e-18
-1.29156e-18
-1.29391e-18
-1.29408e-18
-1.29211e-18
-1.29316e-18
-1.28998e-18
-1.29111e-18
-1.29176e-18
-1.2909e-18
-1.29259e-18
-1.29291e-18
-1.29347e-18
-1.29521e-18
-1.29473e-18
-1.29416e-18
-1.29321e-18
-1.29286e-18
-1.29362e-18
-1.29437e-18
-1.29499e-18
-1.2941e-18
-1.2942e-18
-1.29456e-18
-1.29485e-18
-1.29526e-18
-1.29501e-18
-1.2946e-18
-1.29454e-18
-1.29511e-18
-1.29495e-18
-1.29439e-18
-1.29444e-18
-1.29464e-18
-1.29468e-18
-1.29488e-18
-1.29491e-18
-1.29478e-18
-1.29468e-18
-1.29482e-18
-1.29483e-18
-1.27942e-18
-1.28362e-18
-1.27689e-18
-1.28659e-18
-1.2792e-18
-1.27612e-18
-1.28246e-18
-1.28315e-18
-1.28892e-18
-1.28721e-18
-1.27599e-18
-1.27781e-18
-1.2834e-18
-1.2837e-18
-1.27835e-18
-1.28323e-18
-1.28375e-18
-1.27993e-18
-1.28635e-18
-1.28364e-18
-1.28305e-18
-1.27839e-18
-1.27826e-18
-1.27612e-18
-1.28214e-18
-1.28375e-18
-1.27713e-18
-1.27926e-18
-1.28198e-18
-1.28955e-18
-1.28214e-18
-1.27993e-18
-1.27911e-18
-1.28647e-18
-1.28058e-18
-1.27675e-18
-1.28062e-18
-1.2836e-18
-1.2891e-18
-1.28121e-18
-1.28319e-18
-1.28508e-18
-1.28662e-18
-1.28479e-18
-1.28439e-18
-1.28766e-18
-1.28945e-18
-1.28901e-18
-1.28454e-18
-1.28697e-18
-1.28775e-18
-1.28897e-18
-1.28865e-18
-1.29023e-18
-1.28952e-18
-1.28708e-18
-1.29019e-18
-1.28845e-18
-1.28934e-18
-1.29129e-18
-1.29119e-18
-1.2883e-18
-1.28864e-18
-1.29029e-18
-1.28952e-18
-1.29094e-18
-1.29092e-18
-1.29025e-18
-1.28973e-18
-1.2911e-18
-1.29093e-18
-1.29068e-18
-1.29165e-18
-1.29103e-18
-1.29136e-18
-1.29177e-18
-1.29143e-18
-1.29157e-18
-1.29087e-18
-1.29122e-18
-1.29132e-18
-1.2919e-18
-1.29204e-18
-1.29187e-18
-1.29192e-18
-1.29179e-18
-1.29184e-18
-1.29172e-18
-1.29175e-18
-1.29186e-18
-1.29197e-18
-1.29196e-18
-1.29187e-18
-1.29188e-18
-1.29194e-18
-1.30497e-18
-1.29418e-18
-1.28619e-18
-1.28759e-18
-1.27675e-18
-1.286e-18
-1.28777e-18
-1.28321e-18
-1.29151e-18
-1.29889e-18
-1.29007e-18
-1.29204e-18
-1.29644e-18
-1.29533e-18
-1.29513e-18
-1.29009e-18
-1.29483e-18
-1.29937e-18
-1.29049e-18
-1.29505e-18
-1.29446e-18
-1.29761e-18
-1.3028e-18
-1.29301e-18
-1.2987e-18
-1.29391e-18
-1.28816e-18
-1.29381e-18
-1.29522e-18
-1.29872e-18
-1.29627e-18
-1.29105e-18
-1.29045e-18
-1.29178e-18
-1.29357e-18
-1.29265e-18
-1.29286e-18
-1.28946e-18
-1.2928e-18
-1.29648e-18
-1.28587e-18
-1.28641e-18
-1.29091e-18
-1.29235e-18
-1.29147e-18
-1.28979e-18
-1.29239e-18
-1.29193e-18
-1.28932e-18
-1.29392e-18
-1.29612e-18
-1.2943e-18
-1.29231e-18
-1.29496e-18
-1.29627e-18
-1.29451e-18
-1.29273e-18
-1.29479e-18
-1.2964e-18
-1.29442e-18
-1.29252e-18
-1.29358e-18
-1.29483e-18
-1.29435e-18
-1.29408e-18
-1.29367e-18
-1.29386e-18
-1.29454e-18
-1.29498e-18
-1.29462e-18
-1.2943e-18
-1.29529e-18
-1.29561e-18
-1.29445e-18
-1.2953e-18
-1.29501e-18
-1.29552e-18
-1.29571e-18
-1.29594e-18
-1.29562e-18
-1.29613e-18
-1.2958e-18
-1.29551e-18
-1.2958e-18
-1.29614e-18
-1.29578e-18
-1.2954e-18
-1.29578e-18
-1.29576e-18
-1.29578e-18
-1.29592e-18
-1.29595e-18
-1.29591e-18
-1.2959e-18
-1.2959e-18
-1.28042e-18
-1.28593e-18
-1.28731e-18
-1.28261e-18
-1.27199e-18
-1.27886e-18
-1.28401e-18
-1.27914e-18
-1.27827e-18
-1.28422e-18
-1.26804e-18
-1.27384e-18
-1.27398e-18
-1.27456e-18
-1.27762e-18
-1.27536e-18
-1.27695e-18
-1.28181e-18
-1.27605e-18
-1.28087e-18
-1.28263e-18
-1.28095e-18
-1.28364e-18
-1.28293e-18
-1.27821e-18
-1.28109e-18
-1.28443e-18
-1.28632e-18
-1.28645e-18
-1.2802e-18
-1.28409e-18
-1.28624e-18
-1.2842e-18
-1.27845e-18
-1.28762e-18
-1.29304e-18
-1.28937e-18
-1.282e-18
-1.28399e-18
-1.28715e-18
-1.28919e-18
-1.288e-18
-1.28742e-18
-1.2841e-18
-1.28933e-18
-1.28716e-18
-1.28812e-18
-1.29149e-18
-1.29259e-18
-1.29048e-18
-1.28552e-18
-1.28971e-18
-1.29178e-18
-1.29112e-18
-1.28951e-18
-1.2903e-18
-1.29283e-18
-1.2906e-18
-1.2898e-18
-1.2898e-18
-1.28806e-18
-1.28761e-18
-1.2906e-18
-1.29101e-18
-1.28928e-18
-1.28938e-18
-1.29003e-18
-1.28937e-18
-1.28978e-18
-1.28986e-18
-1.28963e-18
-1.29028e-18
-1.29029e-18
-1.29078e-18
-1.29053e-18
-1.29038e-18
-1.29029e-18
-1.29082e-18
-1.29082e-18
-1.29109e-18
-1.29035e-18
-1.29066e-18
-1.2911e-18
-1.29111e-18
-1.2908e-18
-1.29056e-18
-1.29081e-18
-1.29114e-18
-1.29132e-18
-1.29104e-18
-1.2909e-18
-1.2909e-18
-1.29099e-18
-1.291e-18
-1.29098e-18
-1.30617e-18
-1.30507e-18
-1.30606e-18
-1.29751e-18
-1.28839e-18
-1.30184e-18
-1.29495e-18
-1.29383e-18
-1.2996e-18
-1.29323e-18
-1.28914e-18
-1.29466e-18
-1.29133e-18
-1.28633e-18
-1.29524e-18
-1.29551e-18
-1.29605e-18
-1.29915e-18
-1.29594e-18
-1.29396e-18
-1.30115e-18
-1.30508e-18
-1.30021e-18
-1.29781e-18
-1.29271e-18
-1.30194e-18
-1.30112e-18
-1.29701e-18
-1.29586e-18
-1.29566e-18
-1.29408e-18
-1.29076e-18
-1.29388e-18
-1.288e-18
-1.29374e-18
-1.29665e-18
-1.28987e-18
-1.28764e-18
-1.29048e-18
-1.29498e-18
-1.29886e-18
-1.29429e-18
-1.28959e-18
-1.29228e-18
-1.29677e-18
-1.29223e-18
-1.29554e-18
-1.29553e-18
-1.29396e-18
-1.29513e-18
-1.29581e-18
-1.29555e-18
-1.29461e-18
-1.29471e-18
-1.29416e-18
-1.29469e-18
-1.292e-18
-1.29255e-18
-1.2944e-18
-1.29511e-18
-1.29403e-18
-1.29586e-18
-1.29437e-18
-1.29231e-18
-1.29043e-18
-1.29222e-18
-1.29299e-18
-1.29239e-18
-1.29291e-18
-1.29388e-18
-1.29292e-18
-1.29311e-18
-1.29233e-18
-1.29267e-18
-1.29253e-18
-1.29224e-18
-1.29277e-18
-1.29305e-18
-1.29336e-18
-1.29317e-18
-1.2931e-18
-1.29316e-18
-1.29322e-18
-1.29304e-18
-1.29261e-18
-1.29303e-18
-1.29317e-18
-1.29317e-18
-1.29343e-18
-1.29322e-18
-1.29322e-18
-1.29328e-18
-1.29321e-18
-1.29318e-18
-1.29319e-18
-1.27963e-18
-1.27841e-18
-1.28417e-18
-1.28778e-18
-1.29194e-18
-1.28698e-18
-1.29019e-18
-1.27875e-18
-1.28604e-18
-1.29274e-18
-1.28567e-18
-1.29476e-18
-1.28957e-18
-1.28629e-18
-1.29943e-18
-1.29308e-18
-1.29669e-18
-1.29935e-18
-1.29143e-18
-1.28981e-18
-1.28353e-18
-1.29199e-18
-1.28964e-18
-1.28963e-18
-1.29194e-18
-1.28835e-18
-1.28093e-18
-1.29183e-18
-1.28729e-18
-1.29042e-18
-1.28761e-18
-1.28393e-18
-1.28164e-18
-1.28684e-18
-1.28718e-18
-1.29267e-18
-1.28692e-18
-1.28832e-18
-1.28364e-18
-1.28354e-18
-1.28428e-18
-1.28423e-18
-1.28406e-18
-1.28838e-18
-1.28539e-18
-1.28206e-18
-1.28188e-18
-1.28382e-18
-1.28533e-18
-1.28513e-18
-1.28487e-18
-1.28404e-18
-1.28264e-18
-1.28534e-18
-1.28791e-18
-1.28713e-18
-1.28633e-18
-1.2853e-18
-1.28573e-18
-1.28506e-18
-1.28596e-18
-1.28748e-18
-1.28722e-18
-1.2872e-18
-1.28546e-18
-1.28512e-18
-1.28617e-18
-1.28698e-18
-1.28705e-18
-1.28589e-18
-1.28524e-18
-1.28733e-18
-1.28642e-18
-1.2854e-18
-1.28596e-18
-1.28624e-18
-1.28617e-18
-1.28604e-18
-1.28671e-18
-1.28676e-18
-1.28591e-18
-1.28604e-18
-1.28639e-18
-1.28647e-18
-1.28641e-18
-1.28649e-18
-1.28654e-18
-1.28651e-18
-1.28646e-18
-1.2866e-18
-1.28657e-18
-1.28667e-18
-1.28659e-18
-1.28661e-18
-1.28659e-18
-1.30305e-18
-1.30864e-18
-1.30917e-18
-1.30475e-18
-1.30436e-18
-1.31006e-18
-1.31653e-18
-1.30312e-18
-1.30213e-18
-1.30465e-18
-1.30233e-18
-1.29734e-18
-1.2975e-18
-1.30772e-18
-1.30259e-18
-1.30063e-18
-1.2941e-18
-1.29089e-18
-1.30294e-18
-1.30407e-18
-1.30191e-18
-1.30055e-18
-1.30546e-18
-1.30234e-18
-1.29571e-18
-1.29637e-18
-1.29995e-18
-1.30728e-18
-1.30324e-18
-1.3015e-18
-1.29995e-18
-1.29896e-18
-1.29854e-18
-1.29944e-18
-1.30089e-18
-1.29471e-18
-1.30053e-18
-1.29344e-18
-1.29125e-18
-1.29513e-18
-1.29455e-18
-1.29474e-18
-1.29351e-18
-1.29545e-18
-1.29417e-18
-1.28627e-18
-1.29406e-18
-1.29478e-18
-1.29149e-18
-1.28942e-18
-1.29111e-18
-1.29077e-18
-1.29228e-18
-1.2904e-18
-1.29148e-18
-1.29118e-18
-1.29296e-18
-1.29255e-18
-1.29232e-18
-1.29143e-18
-1.29101e-18
-1.29036e-18
-1.29261e-18
-1.29299e-18
-1.29135e-18
-1.29265e-18
-1.29262e-18
-1.29191e-18
-1.29211e-18
-1.29182e-18
-1.2915e-18
-1.2902e-18
-1.29016e-18
-1.29015e-18
-1.29088e-18
-1.29144e-18
-1.29135e-18
-1.29146e-18
-1.29196e-18
-1.29174e-18
-1.29194e-18
-1.29123e-18
-1.29125e-18
-1.29148e-18
-1.29138e-18
-1.29121e-18
-1.29098e-18
-1.2912e-18
-1.29132e-18
-1.29133e-18
-1.29124e-18
-1.29129e-18
-1.29134e-18
-1.29133e-18
-1.2913e-18
-1.29042e-18
-1.29847e-18
-1.29541e-18
-1.29205e-18
-1.28947e-18
-1.28641e-18
-1.29378e-18
-1.29947e-18
-1.29846e-18
-1.29103e-18
-1.29482e-18
-1.29836e-18
-1.2987e-18
-1.29193e-18
-1.29185e-18
-1.29354e-18
-1.29798e-18
-1.29013e-18
-1.29528e-18
-1.28924e-18
-1.29062e-18
-1.29661e-18
-1.29892e-18
-1.28943e-18
-1.29044e-18
-1.29839e-18
-1.30001e-18
-1.28983e-18
-1.28589e-18
-1.29276e-18
-1.29246e-18
-1.2902e-18
-1.28596e-18
-1.28419e-18
-1.28798e-18
-1.28658e-18
-1.28613e-18
-1.28722e-18
-1.28416e-18
-1.28138e-18
-1.28366e-18
-1.28161e-18
-1.28383e-18
-1.28343e-18
-1.28561e-18
-1.28295e-18
-1.28057e-18
-1.27895e-18
-1.28358e-18
-1.28454e-18
-1.28172e-18
-1.27916e-18
-1.28134e-18
-1.28314e-18
-1.28509e-18
-1.28369e-18
-1.28285e-18
-1.28064e-18
-1.28133e-18
-1.28373e-18
-1.28154e-18
-1.28389e-18
-1.28364e-18
-1.28225e-18
-1.28346e-18
-1.28354e-18
-1.28317e-18
-1.28277e-18
-1.28297e-18
-1.28357e-18
-1.28281e-18
-1.28206e-18
-1.28282e-18
-1.2827e-18
-1.28244e-18
-1.28301e-18
-1.28367e-18
-1.2838e-18
-1.28293e-18
-1.283e-18
-1.28334e-18
-1.28299e-18
-1.28297e-18
-1.2833e-18
-1.28332e-18
-1.28305e-18
-1.28296e-18
-1.28305e-18
-1.28331e-18
-1.2834e-18
-1.28332e-18
-1.28308e-18
-1.28323e-18
-1.28332e-18
-1.2833e-18
-1.31204e-18
-1.31373e-18
-1.29996e-18
-1.30049e-18
-1.30256e-18
-1.29943e-18
-1.29891e-18
-1.30736e-18
-1.30117e-18
-1.29951e-18
-1.30134e-18
-1.30663e-18
-1.30824e-18
-1.29928e-18
-1.29465e-18
-1.29408e-18
-1.29933e-18
-1.29996e-18
-1.29902e-18
-1.30558e-18
-1.30289e-18
-1.30181e-18
-1.30353e-18
-1.30366e-18
-1.30279e-18
-1.30347e-18
-1.30147e-18
-1.30743e-18
-1.29923e-18
-1.29646e-18
-1.29384e-18
-1.29935e-18
-1.29896e-18
-1.30284e-18
-1.29681e-18
-1.29638e-18
-1.301e-18
-1.29406e-18
-1.29412e-18
-1.29862e-18
-1.29737e-18
-1.29567e-18
-1.29543e-18
-1.29657e-18
-1.29483e-18
-1.29442e-18
-1.29156e-18
-1.29141e-18
-1.29221e-18
-1.29147e-18
-1.28793e-18
-1.29153e-18
-1.29186e-18
-1.28686e-18
-1.28708e-18
-1.28827e-18
-1.29017e-18
-1.28697e-18
-1.28715e-18
-1.29168e-18
-1.29208e-18
-1.2878e-18
-1.28753e-18
-1.28872e-18
-1.28975e-18
-1.28905e-18
-1.288e-18
-1.2889e-18
-1.2895e-18
-1.28914e-18
-1.28892e-18
-1.28784e-18
-1.28924e-18
-1.28979e-18
-1.28884e-18
-1.28901e-18
-1.28976e-18
-1.28926e-18
-1.28872e-18
-1.28912e-18
-1.28948e-18
-1.28923e-18
-1.28926e-18
-1.28932e-18
-1.28917e-18
-1.28935e-18
-1.28936e-18
-1.28921e-18
-1.28916e-18
-1.28916e-18
-1.28914e-18
-1.28909e-18
-1.28912e-18
-1.28914e-18
-1.28916e-18
-1.29639e-18
-1.28645e-18
-1.28998e-18
-1.28749e-18
-1.29372e-18
-1.29278e-18
-1.29156e-18
-1.28466e-18
-1.29234e-18
-1.28699e-18
-1.28253e-18
-1.28492e-18
-1.28582e-18
-1.28927e-18
-1.28953e-18
-1.29061e-18
-1.28773e-18
-1.28466e-18
-1.29161e-18
-1.29284e-18
-1.29346e-18
-1.29395e-18
-1.29262e-18
-1.29079e-18
-1.28671e-18
-1.28541e-18
-1.281e-18
-1.2878e-18
-1.29149e-18
-1.28678e-18
-1.28667e-18
-1.28492e-18
-1.28377e-18
-1.28138e-18
-1.28429e-18
-1.28452e-18
-1.28567e-18
-1.28358e-18
-1.28175e-18
-1.28512e-18
-1.2834e-18
-1.2797e-18
-1.28063e-18
-1.28173e-18
-1.2821e-18
-1.27854e-18
-1.28015e-18
-1.28023e-18
-1.28022e-18
-1.27551e-18
-1.27794e-18
-1.28075e-18
-1.27861e-18
-1.27815e-18
-1.27764e-18
-1.28154e-18
-1.28071e-18
-1.27829e-18
-1.27773e-18
-1.27659e-18
-1.27633e-18
-1.2764e-18
-1.2764e-18
-1.27671e-18
-1.27785e-18
-1.27855e-18
-1.27758e-18
-1.2774e-18
-1.27727e-18
-1.27769e-18
-1.2782e-18
-1.27766e-18
-1.27717e-18
-1.27717e-18
-1.27816e-18
-1.27773e-18
-1.27756e-18
-1.27819e-18
-1.27768e-18
-1.27738e-18
-1.27695e-18
-1.27759e-18
-1.27797e-18
-1.27754e-18
-1.27771e-18
-1.27795e-18
-1.27792e-18
-1.27799e-18
-1.27794e-18
-1.27779e-18
-1.2779e-18
-1.27792e-18
-1.27784e-18
-1.27782e-18
-1.27782e-18
-1.30618e-18
-1.29243e-18
-1.29085e-18
-1.29527e-18
-1.30459e-18
-1.30205e-18
-1.29885e-18
-1.29617e-18
-1.2962e-18
-1.28914e-18
-1.29276e-18
-1.29258e-18
-1.29568e-18
-1.29205e-18
-1.29565e-18
-1.29559e-18
-1.29571e-18
-1.2932e-18
-1.29324e-18
-1.29243e-18
-1.29624e-18
-1.29118e-18
-1.28978e-18
-1.29359e-18
-1.29445e-18
-1.2921e-18
-1.28994e-18
-1.29084e-18
-1.29141e-18
-1.29319e-18
-1.29501e-18
-1.2935e-18
-1.28763e-18
-1.28669e-18
-1.29163e-18
-1.29083e-18
-1.2887e-18
-1.29252e-18
-1.29366e-18
-1.29193e-18
-1.28706e-18
-1.28807e-18
-1.28878e-18
-1.28708e-18
-1.28365e-18
-1.28593e-18
-1.28618e-18
-1.28733e-18
-1.28796e-18
-1.28593e-18
-1.28932e-18
-1.28855e-18
-1.2876e-18
-1.28699e-18
-1.28646e-18
-1.28671e-18
-1.28609e-18
-1.2852e-18
-1.28415e-18
-1.2858e-18
-1.2852e-18
-1.28744e-18
-1.28572e-18
-1.28467e-18
-1.28441e-18
-1.28543e-18
-1.28382e-18
-1.28459e-18
-1.28458e-18
-1.28596e-18
-1.2866e-18
-1.28565e-18
-1.28511e-18
-1.28533e-18
-1.28545e-18
-1.28547e-18
-1.28575e-18
-1.28594e-18
-1.2855e-18
-1.28572e-18
-1.28539e-18
-1.28529e-18
-1.28566e-18
-1.28545e-18
-1.28494e-18
-1.28529e-18
-1.28552e-18
-1.28503e-18
-1.28516e-18
-1.2852e-18
-1.28519e-18
-1.28526e-18
-1.28517e-18
-1.28522e-18
-1.2852e-18
-1.2896e-18
-1.28609e-18
-1.28225e-18
-1.28258e-18
-1.28232e-18
-1.28935e-18
-1.27943e-18
-1.27789e-18
-1.27909e-18
-1.28509e-18
-1.27924e-18
-1.28551e-18
-1.28231e-18
-1.27777e-18
-1.27974e-18
-1.2881e-18
-1.28756e-18
-1.28694e-18
-1.28997e-18
-1.28604e-18
-1.2875e-18
-1.28434e-18
-1.2891e-18
-1.28688e-18
-1.28595e-18
-1.28242e-18
-1.2813e-18
-1.28457e-18
-1.28853e-18
-1.29282e-18
-1.28463e-18
-1.28601e-18
-1.2888e-18
-1.28898e-18
-1.28772e-18
-1.28858e-18
-1.28765e-18
-1.28395e-18
-1.28399e-18
-1.28362e-18
-1.28874e-18
-1.29058e-18
-1.2839e-18
-1.28255e-18
-1.28513e-18
-1.28321e-18
-1.28216e-18
-1.28253e-18
-1.28201e-18
-1.28308e-18
-1.28249e-18
-1.28447e-18
-1.28077e-18
-1.27984e-18
-1.27791e-18
-1.27856e-18
-1.28075e-18
-1.28217e-18
-1.28135e-18
-1.28054e-18
-1.28076e-18
-1.27946e-18
-1.27922e-18
-1.27878e-18
-1.27859e-18
-1.27882e-18
-1.27962e-18
-1.27962e-18
-1.27889e-18
-1.27825e-18
-1.27891e-18
-1.27888e-18
-1.2791e-18
-1.27922e-18
-1.27895e-18
-1.2792e-18
-1.27909e-18
-1.27856e-18
-1.27849e-18
-1.27876e-18
-1.27846e-18
-1.27849e-18
-1.27838e-18
-1.27813e-18
-1.27833e-18
-1.27827e-18
-1.27805e-18
-1.27807e-18
-1.27789e-18
-1.2779e-18
-1.27797e-18
-1.27785e-18
-1.27789e-18
-1.27795e-18
-1.27799e-18
-1.29216e-18
-1.29736e-18
-1.29926e-18
-1.29928e-18
-1.29201e-18
-1.28743e-18
-1.2895e-18
-1.2895e-18
-1.29299e-18
-1.29461e-18
-1.29117e-18
-1.29123e-18
-1.29566e-18
-1.29952e-18
-1.29505e-18
-1.28921e-18
-1.28653e-18
-1.28968e-18
-1.28735e-18
-1.28975e-18
-1.28954e-18
-1.28548e-18
-1.28381e-18
-1.28392e-18
-1.28534e-18
-1.28808e-18
-1.28633e-18
-1.28634e-18
-1.2852e-18
-1.28607e-18
-1.2928e-18
-1.28922e-18
-1.28621e-18
-1.28814e-18
-1.29155e-18
-1.28929e-18
-1.28821e-18
-1.28586e-18
-1.28633e-18
-1.28887e-18
-1.28687e-18
-1.28813e-18
-1.28969e-18
-1.28448e-18
-1.287e-18
-1.28655e-18
-1.28471e-18
-1.28696e-18
-1.28951e-18
-1.28717e-18
-1.28761e-18
-1.28837e-18
-1.2874e-18
-1.28527e-18
-1.28642e-18
-1.28477e-18
-1.28575e-18
-1.28576e-18
-1.2833e-18
-1.28083e-18
-1.28227e-18
-1.28379e-18
-1.2822e-18
-1.2819e-18
-1.28182e-18
-1.28292e-18
-1.28325e-18
-1.28285e-18
-1.28233e-18
-1.28324e-18
-1.28355e-18
-1.28255e-18
-1.28195e-18
-1.28198e-18
-1.28215e-18
-1.28216e-18
-1.28175e-18
-1.28232e-18
-1.28284e-18
-1.28274e-18
-1.28229e-18
-1.28235e-18
-1.28232e-18
-1.28229e-18
-1.2821e-18
-1.28206e-18
-1.28219e-18
-1.28231e-18
-1.28222e-18
-1.28221e-18
-1.28222e-18
-1.2822e-18
-1.28209e-18
-1.28207e-18
-1.28213e-18
-1.2858e-18
-1.29474e-18
-1.29414e-18
-1.28081e-18
-1.2843e-18
-1.28967e-18
-1.29166e-18
-1.2872e-18
-1.28821e-18
-1.29132e-18
-1.28177e-18
-1.2783e-18
-1.27554e-18
-1.27437e-18
-1.27273e-18
-1.27748e-18
-1.27905e-18
-1.27758e-18
-1.27863e-18
-1.27993e-18
-1.27647e-18
-1.2755e-18
-1.27739e-18
-1.27909e-18
-1.27849e-18
-1.28024e-18
-1.2818e-18
-1.28123e-18
-1.281e-18
-1.2783e-18
-1.27979e-18
-1.27648e-18
-1.27645e-18
-1.27927e-18
-1.27864e-18
-1.27715e-18
-1.27696e-18
-1.27772e-18
-1.27904e-18
-1.27823e-18
-1.28392e-18
-1.28435e-18
-1.28352e-18
-1.27991e-18
-1.27878e-18
-1.27702e-18
-1.27785e-18
-1.27776e-18
-1.27901e-18
-1.27853e-18
-1.27724e-18
-1.27748e-18
-1.27766e-18
-1.27481e-18
-1.27683e-18
-1.27638e-18
-1.27566e-18
-1.27569e-18
-1.27742e-18
-1.2763e-18
-1.27623e-18
-1.27653e-18
-1.27708e-18
-1.27693e-18
-1.27621e-18
-1.27584e-18
-1.27649e-18
-1.27634e-18
-1.27585e-18
-1.2762e-18
-1.27556e-18
-1.27555e-18
-1.27537e-18
-1.27499e-18
-1.27534e-18
-1.27524e-18
-1.27546e-18
-1.2753e-18
-1.27519e-18
-1.2755e-18
-1.27531e-18
-1.27509e-18
-1.2751e-18
-1.27518e-18
-1.27515e-18
-1.27521e-18
-1.27526e-18
-1.27533e-18
-1.27534e-18
-1.27531e-18
-1.27523e-18
-1.27522e-18
-1.27523e-18
-1.27525e-18
-1.27527e-18
-1.29443e-18
-1.29313e-18
-1.28829e-18
-1.28915e-18
-1.29353e-18
-1.29021e-18
-1.28591e-18
-1.28484e-18
-1.28477e-18
-1.28791e-18
-1.28998e-18
-1.29018e-18
-1.28662e-18
-1.28443e-18
-1.28648e-18
-1.28192e-18
-1.28427e-18
-1.29048e-18
-1.28752e-18
-1.28535e-18
-1.2866e-18
-1.2885e-18
-1.28706e-18
-1.28709e-18
-1.29068e-18
-1.28937e-18
-1.28368e-18
-1.28512e-18
-1.28663e-18
-1.28744e-18
-1.28803e-18
-1.28491e-18
-1.28349e-18
-1.28595e-18
-1.28556e-18
-1.2842e-18
-1.28153e-18
-1.28485e-18
-1.2868e-18
-1.28208e-18
-1.27945e-18
-1.27719e-18
-1.2784e-18
-1.28048e-18
-1.28193e-18
-1.28101e-18
-1.28073e-18
-1.28107e-18
-1.27836e-18
-1.27764e-18
-1.27935e-18
-1.27921e-18
-1.2786e-18
-1.27776e-18
-1.27989e-18
-1.28129e-18
-1.2806e-18
-1.27976e-18
-1.27897e-18
-1.27993e-18
-1.27965e-18
-1.2791e-18
-1.27849e-18
-1.27962e-18
-1.27964e-18
-1.27916e-18
-1.27845e-18
-1.27837e-18
-1.27926e-18
-1.2786e-18
-1.2794e-18
-1.27976e-18
-1.27944e-18
-1.27865e-18
-1.27803e-18
-1.27811e-18
-1.27819e-18
-1.2789e-18
-1.27931e-18
-1.27891e-18
-1.27867e-18
-1.27873e-18
-1.27865e-18
-1.27889e-18
-1.27912e-18
-1.27896e-18
-1.27881e-18
-1.27878e-18
-1.27903e-18
-1.279e-18
-1.27893e-18
-1.27892e-18
-1.27894e-18
-1.27896e-18
-1.27897e-18
-1.29747e-18
-1.2932e-18
-1.29035e-18
-1.2935e-18
-1.28882e-18
-1.28636e-18
-1.28717e-18
-1.28811e-18
-1.28164e-18
-1.28266e-18
-1.28357e-18
-1.28019e-18
-1.27664e-18
-1.27886e-18
-1.27976e-18
-1.28135e-18
-1.28273e-18
-1.27822e-18
-1.27346e-18
-1.27439e-18
-1.27816e-18
-1.28028e-18
-1.28352e-18
-1.28318e-18
-1.27975e-18
-1.27872e-18
-1.27918e-18
-1.27952e-18
-1.27774e-18
-1.27621e-18
-1.27764e-18
-1.2758e-18
-1.27421e-18
-1.27622e-18
-1.27915e-18
-1.28016e-18
-1.28038e-18
-1.28367e-18
-1.28347e-18
-1.27956e-18
-1.27669e-18
-1.27901e-18
-1.28064e-18
-1.27695e-18
-1.27787e-18
-1.27634e-18
-1.27595e-18
-1.27525e-18
-1.27536e-18
-1.27571e-18
-1.27605e-18
-1.27504e-18
-1.27504e-18
-1.27552e-18
-1.27547e-18
-1.27492e-18
-1.27388e-18
-1.27373e-18
-1.27465e-18
-1.27562e-18
-1.2755e-18
-1.27375e-18
-1.27456e-18
-1.27447e-18
-1.27445e-18
-1.27529e-18
-1.27376e-18
-1.27417e-18
-1.2735e-18
-1.27336e-18
-1.27445e-18
-1.27449e-18
-1.27437e-18
-1.27429e-18
-1.2742e-18
-1.27398e-18
-1.27398e-18
-1.27425e-18
-1.27446e-18
-1.27443e-18
-1.2742e-18
-1.27404e-18
-1.27414e-18
-1.27421e-18
-1.27401e-18
-1.27404e-18
-1.274e-18
-1.27417e-18
-1.27418e-18
-1.27404e-18
-1.27405e-18
-1.27412e-18
-1.27414e-18
-1.27414e-18
-1.27414e-18
-1.28997e-18
-1.2849e-18
-1.28552e-18
-1.28599e-18
-1.28977e-18
-1.28802e-18
-1.28087e-18
-1.28025e-18
-1.28378e-18
-1.28314e-18
-1.28475e-18
-1.28442e-18
-1.28937e-18
-1.29359e-18
-1.29315e-18
-1.29504e-18
-1.29148e-18
-1.29107e-18
-1.29283e-18
-1.2922e-18
-1.29052e-18
-1.28859e-18
-1.28283e-18
-1.28683e-18
-1.28872e-18
-1.28731e-18
-1.28647e-18
-1.28408e-18
-1.28866e-18
-1.28733e-18
-1.28619e-18
-1.28596e-18
-1.2859e-18
-1.28487e-18
-1.28175e-18
-1.2845e-18
-1.28765e-18
-1.28285e-18
-1.28365e-18
-1.28008e-18
-1.28123e-18
-1.28179e-18
-1.28146e-18
-1.28055e-18
-1.28065e-18
-1.28138e-18
-1.27952e-18
-1.27746e-18
-1.27826e-18
-1.27633e-18
-1.2774e-18
-1.27769e-18
-1.27851e-18
-1.27885e-18
-1.27798e-18
-1.27765e-18
-1.27804e-18
-1.27765e-18
-1.27774e-18
-1.27762e-18
-1.27773e-18
-1.27745e-18
-1.27788e-18
-1.27821e-18
-1.27856e-18
-1.27829e-18
-1.27821e-18
-1.27833e-18
-1.27885e-18
-1.27823e-18
-1.27757e-18
-1.27816e-18
-1.27805e-18
-1.27783e-18
-1.27831e-18
-1.27825e-18
-1.27815e-18
-1.27842e-18
-1.27848e-18
-1.27819e-18
-1.27826e-18
-1.27833e-18
-1.27803e-18
-1.27807e-18
-1.27827e-18
-1.27824e-18
-1.27829e-18
-1.27819e-18
-1.27817e-18
-1.27812e-18
-1.27816e-18
-1.27825e-18
-1.27827e-18
-1.27823e-18
-1.27823e-18
-1.28469e-18
-1.28853e-18
-1.2877e-18
-1.2835e-18
-1.28162e-18
-1.28171e-18
-1.28261e-18
-1.2834e-18
-1.27655e-18
-1.27482e-18
-1.27489e-18
-1.27883e-18
-1.27848e-18
-1.28095e-18
-1.28014e-18
-1.27906e-18
-1.28159e-18
-1.28199e-18
-1.27656e-18
-1.28292e-18
-1.28766e-18
-1.28329e-18
-1.27666e-18
-1.28092e-18
-1.2833e-18
-1.28346e-18
-1.28354e-18
-1.28273e-18
-1.28347e-18
-1.27893e-18
-1.27825e-18
-1.27629e-18
-1.27762e-18
-1.27918e-18
-1.27953e-18
-1.27512e-18
-1.27561e-18
-1.2777e-18
-1.27902e-18
-1.27554e-18
-1.2727e-18
-1.27206e-18
-1.27352e-18
-1.27267e-18
-1.27448e-18
-1.27499e-18
-1.27483e-18
-1.2749e-18
-1.27549e-18
-1.27464e-18
-1.2727e-18
-1.27364e-18
-1.27348e-18
-1.27403e-18
-1.27305e-18
-1.27443e-18
-1.27551e-18
-1.2754e-18
-1.27603e-18
-1.2746e-18
-1.27556e-18
-1.27677e-18
-1.27528e-18
-1.27533e-18