/*--------------------------------*- C++ -*----------------------------------*\
  =========                 |
  \\      /  F ield         | OpenFOAM: The Open Source CFD Toolbox
   \\    /   O peration     | Website:  https://openfoam.org
    \\  /    A nd           | Version:  7
     \\/     M anipulation  |
\*---------------------------------------------------------------------------*/
FoamFile
{
    version     2.0;
    format      ascii;
    class       volScalarField;
    location    "8000";
    object      p;
}
// * * * * * * * * * * * * * * * * * * * * * * * * * * * * * * * * * * * * * //

dimensions      [0 2 -2 0 0 0 0];

internalField   nonuniform List<scalar> 
4764
(
-1.07957e-18
-1.07318e-18
-1.08683e-18
-1.0771e-18
-1.08559e-18
-1.07304e-18
-1.06534e-18
-1.07868e-18
-1.07197e-18
-1.0811e-18
-1.07399e-18
-1.08119e-18
-1.07377e-18
-1.0897e-18
-1.08095e-18
-1.07978e-18
-1.07562e-18
-1.08328e-18
-1.081e-18
-1.08012e-18
-1.07551e-18
-1.07654e-18
-1.06798e-18
-1.0737e-18
-1.06383e-18
-1.07677e-18
-1.07323e-18
-1.07934e-18
-1.07532e-18
-1.07934e-18
-1.08307e-18
-1.08071e-18
-1.09493e-18
-1.09222e-18
-1.09566e-18
-1.06301e-18
-1.07428e-18
-1.07144e-18
-1.077e-18
-1.07056e-18
-1.07942e-18
-1.06991e-18
-1.08342e-18
-1.08229e-18
-1.08031e-18
-1.07947e-18
-1.09005e-18
-1.07948e-18
-1.07845e-18
-1.07982e-18
-1.07446e-18
-1.0732e-18
-1.07275e-18
-1.06522e-18
-1.077e-18
-1.07885e-18
-1.08099e-18
-1.07761e-18
-1.08004e-18
-1.08477e-18
-1.0853e-18
-1.09121e-18
-1.09292e-18
-1.09154e-18
-1.09936e-18
-1.0994e-18
-1.10028e-18
-1.10123e-18
-1.06309e-18
-1.07337e-18
-1.07588e-18
-1.07992e-18
-1.07042e-18
-1.08694e-18
-1.07853e-18
-1.07777e-18
-1.07648e-18
-1.08576e-18
-1.08114e-18
-1.09074e-18
-1.07892e-18
-1.08092e-18
-1.08085e-18
-1.07261e-18
-1.07332e-18
-1.07165e-18
-1.06763e-18
-1.0774e-18
-1.08131e-18
-1.07882e-18
-1.07697e-18
-1.08013e-18
-1.08734e-18
-1.08001e-18
-1.08873e-18
-1.08813e-18
-1.08897e-18
-1.09854e-18
-1.0984e-18
-1.09558e-18
-1.10423e-18
-1.10035e-18
-1.09355e-18
-1.10234e-18
-1.09781e-18
-1.10093e-18
-1.09437e-18
-1.09645e-18
-1.08198e-18
-1.10216e-18
-1.08752e-18
-1.09631e-18
-1.0813e-18
-1.06501e-18
-1.06839e-18
-1.07042e-18
-1.08061e-18
-1.06747e-18
-1.08298e-18
-1.07884e-18
-1.07759e-18
-1.07923e-18
-1.08026e-18
-1.0809e-18
-1.08935e-18
-1.07567e-18
-1.07875e-18
-1.07927e-18
-1.07775e-18
-1.06964e-18
-1.0772e-18
-1.06647e-18
-1.07789e-18
-1.07616e-18
-1.07831e-18
-1.07323e-18
-1.08206e-18
-1.08438e-18
-1.07753e-18
-1.08864e-18
-1.09076e-18
-1.09908e-18
-1.09274e-18
-1.10288e-18
-1.09535e-18
-1.1039e-18
-1.09715e-18
-1.09937e-18
-1.10181e-18
-1.09471e-18
-1.10331e-18
-1.0967e-18
-1.09921e-18
-1.08396e-18
-1.10029e-18
-1.08563e-18
-1.08753e-18
-1.08077e-18
-1.0639e-18
-1.06974e-18
-1.06569e-18
-1.07641e-18
-1.07356e-18
-1.07886e-18
-1.07697e-18
-1.08401e-18
-1.07981e-18
-1.08418e-18
-1.08616e-18
-1.08405e-18
-1.07407e-18
-1.07531e-18
-1.07559e-18
-1.07698e-18
-1.07223e-18
-1.07918e-18
-1.06927e-18
-1.07941e-18
-1.07454e-18
-1.0774e-18
-1.07661e-18
-1.08678e-18
-1.08297e-18
-1.07962e-18
-1.09248e-18
-1.08894e-18
-1.09802e-18
-1.0929e-18
-1.09824e-18
-1.09859e-18
-1.09772e-18
-1.10022e-18
-1.10509e-18
-1.09986e-18
-1.09614e-18
-1.10693e-18
-1.09159e-18
-1.10376e-18
-1.08645e-18
-1.10068e-18
-1.07766e-18
-1.09248e-18
-1.08079e-18
-1.07205e-18
-1.07788e-18
-1.07135e-18
-1.0895e-18
-1.07763e-18
-1.08531e-18
-1.07916e-18
-1.08265e-18
-1.07867e-18
-1.08861e-18
-1.08403e-18
-1.08741e-18
-1.07735e-18
-1.0828e-18
-1.07301e-18
-1.07607e-18
-1.07219e-18
-1.07874e-18
-1.07169e-18
-1.08302e-18
-1.076e-18
-1.07468e-18
-1.07469e-18
-1.07968e-18
-1.08396e-18
-1.0862e-18
-1.09121e-18
-1.08933e-18
-1.09562e-18
-1.09369e-18
-1.09402e-18
-1.09524e-18
-1.09916e-18
-1.09851e-18
-1.10049e-18
-1.09661e-18
-1.08494e-18
-1.0965e-18
-1.08794e-18
-1.09646e-18
-1.08617e-18
-1.10007e-18
-1.08461e-18
-1.09525e-18
-1.08595e-18
-1.07389e-18
-1.07675e-18
-1.07074e-18
-1.08581e-18
-1.06987e-18
-1.08086e-18
-1.084e-18
-1.08118e-18
-1.07397e-18
-1.08749e-18
-1.08518e-18
-1.0852e-18
-1.07772e-18
-1.08442e-18
-1.07157e-18
-1.07815e-18
-1.07435e-18
-1.07669e-18
-1.07405e-18
-1.08318e-18
-1.07841e-18
-1.07645e-18
-1.07482e-18
-1.07689e-18
-1.08523e-18
-1.08662e-18
-1.08773e-18
-1.08775e-18
-1.0999e-18
-1.08975e-18
-1.09503e-18
-1.09269e-18
-1.10065e-18
-1.09422e-18
-1.09963e-18
-1.10194e-18
-1.08983e-18
-1.09842e-18
-1.08965e-18
-1.09355e-18
-1.08406e-18
-1.09717e-18
-1.08567e-18
-1.09726e-18
-1.08782e-18
-1.06398e-18
-1.07303e-18
-1.06834e-18
-1.08537e-18
-1.07416e-18
-1.08617e-18
-1.08505e-18
-1.08157e-18
-1.07184e-18
-1.08714e-18
-1.08294e-18
-1.08749e-18
-1.07401e-18
-1.08682e-18
-1.07424e-18
-1.08037e-18
-1.07094e-18
-1.07785e-18
-1.07178e-18
-1.08019e-18
-1.07529e-18
-1.08129e-18
-1.078e-18
-1.07405e-18
-1.08401e-18
-1.08316e-18
-1.08534e-18
-1.09014e-18
-1.09855e-18
-1.09563e-18
-1.09538e-18
-1.0974e-18
-1.10081e-18
-1.0959e-18
-1.10061e-18
-1.09962e-18
-1.09636e-18
-1.1028e-18
-1.09165e-18
-1.101e-18
-1.08732e-18
-1.09659e-18
-1.08546e-18
-1.1034e-18
-1.08579e-18
-1.06184e-18
-1.07418e-18
-1.06912e-18
-1.08532e-18
-1.07954e-18
-1.08537e-18
-1.07914e-18
-1.08679e-18
-1.07992e-18
-1.0853e-18
-1.08692e-18
-1.09128e-18
-1.07149e-18
-1.0855e-18
-1.07558e-18
-1.07845e-18
-1.06785e-18
-1.07586e-18
-1.07061e-18
-1.07923e-18
-1.07231e-18
-1.08033e-18
-1.07808e-18
-1.07791e-18
-1.08499e-18
-1.08099e-18
-1.08802e-18
-1.09116e-18
-1.09258e-18
-1.09836e-18
-1.09694e-18
-1.09877e-18
-1.09758e-18
-1.10266e-18
-1.09444e-18
-1.10158e-18
-1.09353e-18
-1.10293e-18
-1.09457e-18
-1.10451e-18
-1.08853e-18
-1.0987e-18
-1.08729e-18
-1.10486e-18
-1.08036e-18
-1.06575e-18
-1.07771e-18
-1.06913e-18
-1.08337e-18
-1.0742e-18
-1.07838e-18
-1.08098e-18
-1.08794e-18
-1.08475e-18
-1.08553e-18
-1.08384e-18
-1.09037e-18
-1.07452e-18
-1.08704e-18
-1.0732e-18
-1.07726e-18
-1.0683e-18
-1.07636e-18
-1.06975e-18
-1.07875e-18
-1.07343e-18
-1.07979e-18
-1.07561e-18
-1.08036e-18
-1.08412e-18
-1.08244e-18
-1.08622e-18
-1.08995e-18
-1.09361e-18
-1.1004e-18
-1.09646e-18
-1.09743e-18
-1.09432e-18
-1.0982e-18
-1.10456e-18
-1.10323e-18
-1.09489e-18
-1.09918e-18
-1.09385e-18
-1.10421e-18
-1.08318e-18
-1.10082e-18
-1.09014e-18
-1.09762e-18
-1.07905e-18
-1.07012e-18
-1.07385e-18
-1.07289e-18
-1.08534e-18
-1.07405e-18
-1.08405e-18
-1.08177e-18
-1.08678e-18
-1.08506e-18
-1.08604e-18
-1.0829e-18
-1.08413e-18
-1.07957e-18
-1.08399e-18
-1.07728e-18
-1.07502e-18
-1.06702e-18
-1.07804e-18
-1.07439e-18
-1.07724e-18
-1.07164e-18
-1.07939e-18
-1.07875e-18
-1.08081e-18
-1.08482e-18
-1.08281e-18
-1.08371e-18
-1.08704e-18
-1.09458e-18
-1.09399e-18
-1.09592e-18
-1.08862e-18
-1.09417e-18
-1.09184e-18
-1.09823e-18
-1.1011e-18
-1.09678e-18
-1.09609e-18
-1.08962e-18
-1.09771e-18
-1.0859e-18
-1.09834e-18
-1.08387e-18
-1.09451e-18
-1.08019e-18
-1.07133e-18
-1.07408e-18
-1.0708e-18
-1.08428e-18
-1.07364e-18
-1.08172e-18
-1.08651e-18
-1.08357e-18
-1.08102e-18
-1.08971e-18
-1.08312e-18
-1.08459e-18
-1.08201e-18
-1.0838e-18
-1.07637e-18
-1.07436e-18
-1.06989e-18
-1.07525e-18
-1.07325e-18
-1.07928e-18
-1.07238e-18
-1.08131e-18
-1.08302e-18
-1.0805e-18
-1.0812e-18
-1.08289e-18
-1.08411e-18
-1.08848e-18
-1.09154e-18
-1.09391e-18
-1.09358e-18
-1.09154e-18
-1.09795e-18
-1.08785e-18
-1.09893e-18
-1.10098e-18
-1.09342e-18
-1.09898e-18
-1.09135e-18
-1.09898e-18
-1.08645e-18
-1.09781e-18
-1.08061e-18
-1.09266e-18
-1.08146e-18
-1.06978e-18
-1.06698e-18
-1.07715e-18
-1.06832e-18
-1.08167e-18
-1.07184e-18
-1.07993e-18
-1.08517e-18
-1.08936e-18
-1.08044e-18
-1.09187e-18
-1.08537e-18
-1.08653e-18
-1.07886e-18
-1.08636e-18
-1.07157e-18
-1.07758e-18
-1.07043e-18
-1.07428e-18
-1.07178e-18
-1.07929e-18
-1.07627e-18
-1.08378e-18
-1.08224e-18
-1.08062e-18
-1.08338e-18
-1.08609e-18
-1.08758e-18
-1.09469e-18
-1.09117e-18
-1.09078e-18
-1.09344e-18
-1.09265e-18
-1.09387e-18
-1.09e-18
-1.09857e-18
-1.10146e-18
-1.09459e-18
-1.10313e-18
-1.08896e-18
-1.10208e-18
-1.08511e-18
-1.09943e-18
-1.0809e-18
-1.09358e-18
-1.08001e-18
-1.06714e-18
-1.07156e-18
-1.07267e-18
-1.07426e-18
-1.08554e-18
-1.07467e-18
-1.08511e-18
-1.07807e-18
-1.0864e-18
-1.08078e-18
-1.08674e-18
-1.08539e-18
-1.08502e-18
-1.08074e-18
-1.0861e-18
-1.07366e-18
-1.08162e-18
-1.06892e-18
-1.08004e-18
-1.0702e-18
-1.07825e-18
-1.07451e-18
-1.07874e-18
-1.07744e-18
-1.08069e-18
-1.08175e-18
-1.08241e-18
-1.08998e-18
-1.092e-18
-1.0957e-18
-1.08673e-18
-1.09544e-18
-1.09093e-18
-1.09549e-18
-1.09683e-18
-1.09482e-18
-1.09584e-18
-1.09329e-18
-1.10067e-18
-1.09196e-18
-1.09644e-18
-1.08884e-18
-1.09982e-18
-1.08684e-18
-1.09431e-18
-1.08443e-18
-1.06466e-18
-1.07122e-18
-1.07451e-18
-1.07126e-18
-1.0833e-18
-1.07654e-18
-1.0861e-18
-1.07797e-18
-1.09051e-18
-1.07663e-18
-1.08568e-18
-1.08563e-18
-1.08844e-18
-1.0797e-18
-1.08653e-18
-1.07547e-18
-1.0812e-18
-1.07041e-18
-1.07641e-18
-1.07216e-18
-1.08227e-18
-1.07875e-18
-1.08154e-18
-1.07895e-18
-1.08126e-18
-1.08108e-18
-1.08335e-18
-1.08916e-18
-1.09257e-18
-1.09222e-18
-1.08852e-18
-1.09366e-18
-1.0905e-18
-1.09209e-18
-1.09562e-18
-1.09541e-18
-1.09375e-18
-1.0955e-18
-1.10021e-18
-1.09165e-18
-1.09658e-18
-1.09474e-18
-1.1031e-18
-1.08571e-18
-1.09934e-18
-1.08141e-18
-1.06201e-18
-1.06621e-18
-1.07026e-18
-1.07529e-18
-1.07123e-18
-1.08284e-18
-1.07197e-18
-1.09152e-18
-1.07943e-18
-1.08899e-18
-1.07905e-18
-1.08565e-18
-1.08424e-18
-1.08853e-18
-1.08009e-18
-1.0883e-18
-1.07477e-18
-1.07914e-18
-1.07213e-18
-1.0734e-18
-1.073e-18
-1.08225e-18
-1.07986e-18
-1.08184e-18
-1.07901e-18
-1.08092e-18
-1.08475e-18
-1.0863e-18
-1.08427e-18
-1.09249e-18
-1.08974e-18
-1.09223e-18
-1.09562e-18
-1.09003e-18
-1.09187e-18
-1.09223e-18
-1.09175e-18
-1.10055e-18
-1.0941e-18
-1.0977e-18
-1.09186e-18
-1.09745e-18
-1.0935e-18
-1.09988e-18
-1.08708e-18
-1.09733e-18
-1.0794e-18
-1.06933e-18
-1.06733e-18
-1.06996e-18
-1.07874e-18
-1.06952e-18
-1.0846e-18
-1.06911e-18
-1.08641e-18
-1.08019e-18
-1.08528e-18
-1.08014e-18
-1.08482e-18
-1.08727e-18
-1.0892e-18
-1.08298e-18
-1.08826e-18
-1.07342e-18
-1.07792e-18
-1.07374e-18
-1.0768e-18
-1.07349e-18
-1.08327e-18
-1.0766e-18
-1.08309e-18
-1.07788e-18
-1.08056e-18
-1.08364e-18
-1.08992e-18
-1.08204e-18
-1.09096e-18
-1.08971e-18
-1.09229e-18
-1.09721e-18
-1.09304e-18
-1.09477e-18
-1.09332e-18
-1.094e-18
-1.10325e-18
-1.09217e-18
-1.09576e-18
-1.0887e-18
-1.09754e-18
-1.08509e-18
-1.0918e-18
-1.08503e-18
-1.09731e-18
-1.08027e-18
-1.07089e-18
-1.07309e-18
-1.06986e-18
-1.07086e-18
-1.0787e-18
-1.06653e-18
-1.08277e-18
-1.07286e-18
-1.08834e-18
-1.07691e-18
-1.08479e-18
-1.07893e-18
-1.086e-18
-1.08807e-18
-1.08509e-18
-1.08459e-18
-1.08556e-18
-1.07499e-18
-1.07548e-18
-1.07769e-18
-1.08155e-18
-1.07472e-18
-1.08156e-18
-1.07413e-18
-1.08155e-18
-1.08002e-18
-1.07843e-18
-1.08363e-18
-1.08721e-18
-1.08631e-18
-1.09156e-18
-1.09229e-18
-1.0899e-18
-1.09602e-18
-1.09573e-18
-1.09592e-18
-1.09654e-18
-1.08941e-18
-1.1018e-18
-1.08991e-18
-1.09695e-18
-1.08799e-18
-1.09657e-18
-1.08694e-18
-1.08713e-18
-1.0866e-18
-1.09468e-18
-1.08763e-18
-1.06549e-18
-1.06633e-18
-1.07086e-18
-1.07273e-18
-1.08033e-18
-1.07319e-18
-1.08292e-18
-1.07418e-18
-1.08902e-18
-1.07926e-18
-1.09068e-18
-1.07889e-18
-1.08786e-18
-1.08652e-18
-1.08668e-18
-1.08398e-18
-1.08521e-18
-1.07532e-18
-1.07613e-18
-1.07498e-18
-1.07888e-18
-1.07687e-18
-1.08178e-18
-1.07638e-18
-1.08013e-18
-1.08256e-18
-1.08042e-18
-1.08538e-18
-1.08458e-18
-1.08739e-18
-1.09024e-18
-1.09247e-18
-1.09072e-18
-1.09491e-18
-1.09578e-18
-1.09232e-18
-1.09295e-18
-1.09003e-18
-1.09701e-18
-1.0913e-18
-1.0947e-18
-1.08503e-18
-1.09391e-18
-1.08888e-18
-1.09656e-18
-1.08949e-18
-1.09182e-18
-1.08577e-18
-1.06652e-18
-1.06409e-18
-1.07104e-18
-1.07103e-18
-1.07897e-18
-1.06923e-18
-1.08553e-18
-1.07651e-18
-1.08657e-18
-1.08411e-18
-1.08909e-18
-1.07949e-18
-1.09129e-18
-1.08498e-18
-1.08741e-18
-1.08292e-18
-1.08605e-18
-1.07295e-18
-1.07937e-18
-1.07355e-18
-1.07718e-18
-1.07568e-18
-1.08275e-18
-1.0774e-18
-1.07831e-18
-1.08122e-18
-1.08166e-18
-1.08351e-18
-1.08346e-18
-1.08566e-18
-1.09023e-18
-1.09311e-18
-1.0921e-18
-1.09322e-18
-1.09439e-18
-1.09424e-18
-1.09134e-18
-1.09222e-18
-1.09451e-18
-1.09197e-18
-1.10214e-18
-1.0875e-18
-1.09389e-18
-1.08905e-18
-1.09664e-18
-1.08962e-18
-1.09187e-18
-1.08258e-18
-1.06785e-18
-1.05962e-18
-1.07108e-18
-1.07171e-18
-1.07698e-18
-1.07243e-18
-1.08588e-18
-1.07347e-18
-1.08842e-18
-1.0832e-18
-1.08308e-18
-1.07862e-18
-1.09191e-18
-1.08632e-18
-1.0901e-18
-1.08306e-18
-1.08492e-18
-1.0736e-18
-1.07971e-18
-1.0746e-18
-1.07768e-18
-1.07463e-18
-1.08021e-18
-1.07771e-18
-1.08033e-18
-1.08121e-18
-1.08116e-18
-1.08274e-18
-1.08636e-18
-1.08478e-18
-1.09151e-18
-1.09273e-18
-1.09072e-18
-1.09051e-18
-1.0924e-18
-1.09823e-18
-1.09117e-18
-1.08919e-18
-1.10135e-18
-1.09168e-18
-1.10032e-18
-1.09015e-18
-1.09478e-18
-1.08892e-18
-1.10144e-18
-1.08727e-18
-1.09045e-18
-1.08181e-18
-1.06171e-18
-1.05878e-18
-1.06962e-18
-1.07472e-18
-1.0813e-18
-1.07642e-18
-1.08485e-18
-1.07307e-18
-1.09285e-18
-1.08002e-18
-1.08152e-18
-1.07966e-18
-1.09476e-18
-1.08775e-18
-1.09139e-18
-1.08415e-18
-1.08394e-18
-1.07824e-18
-1.07974e-18
-1.07576e-18
-1.07823e-18
-1.07371e-18
-1.08304e-18
-1.07797e-18
-1.0815e-18
-1.08288e-18
-1.08066e-18
-1.08364e-18
-1.08385e-18
-1.08778e-18
-1.09115e-18
-1.09156e-18
-1.08995e-18
-1.08699e-18
-1.09062e-18
-1.10024e-18
-1.09259e-18
-1.08751e-18
-1.10079e-18
-1.09084e-18
-1.10069e-18
-1.08604e-18
-1.09257e-18
-1.09041e-18
-1.10168e-18
-1.08931e-18
-1.09517e-18
-1.08895e-18
-1.06552e-18
-1.05692e-18
-1.06575e-18
-1.06571e-18
-1.07337e-18
-1.07956e-18
-1.07195e-18
-1.08163e-18
-1.07499e-18
-1.0859e-18
-1.07435e-18
-1.08848e-18
-1.07547e-18
-1.09005e-18
-1.08682e-18
-1.0891e-18
-1.08433e-18
-1.08426e-18
-1.07761e-18
-1.08043e-18
-1.07767e-18
-1.07781e-18
-1.07248e-18
-1.08223e-18
-1.07813e-18
-1.08143e-18
-1.08229e-18
-1.07929e-18
-1.08558e-18
-1.08524e-18
-1.08829e-18
-1.09226e-18
-1.09124e-18
-1.09308e-18
-1.09281e-18
-1.0969e-18
-1.09188e-18
-1.09739e-18
-1.0949e-18
-1.09865e-18
-1.09142e-18
-1.09694e-18
-1.08849e-18
-1.09476e-18
-1.09428e-18
-1.09611e-18
-1.09502e-18
-1.09571e-18
-1.08443e-18
-1.06831e-18
-1.06329e-18
-1.06433e-18
-1.07002e-18
-1.06735e-18
-1.07416e-18
-1.07738e-18
-1.07148e-18
-1.08054e-18
-1.07594e-18
-1.08949e-18
-1.07666e-18
-1.0912e-18
-1.08145e-18
-1.08737e-18
-1.08566e-18
-1.08629e-18
-1.08528e-18
-1.08442e-18
-1.07691e-18
-1.08178e-18
-1.07424e-18
-1.07745e-18
-1.07457e-18
-1.08238e-18
-1.07823e-18
-1.08158e-18
-1.08296e-18
-1.08394e-18
-1.0833e-18
-1.08738e-18
-1.08797e-18
-1.09118e-18
-1.0923e-18
-1.09478e-18
-1.0921e-18
-1.0966e-18
-1.08773e-18
-1.09901e-18
-1.09169e-18
-1.099e-18
-1.0915e-18
-1.09394e-18
-1.0906e-18
-1.09679e-18
-1.09196e-18
-1.09371e-18
-1.08873e-18
-1.09707e-18
-1.08295e-18
-1.06822e-18
-1.06805e-18
-1.06918e-18
-1.06813e-18
-1.07115e-18
-1.06969e-18
-1.0717e-18
-1.06956e-18
-1.08477e-18
-1.07634e-18
-1.08375e-18
-1.0785e-18
-1.08687e-18
-1.08329e-18
-1.0905e-18
-1.08391e-18
-1.08375e-18
-1.08463e-18
-1.08604e-18
-1.0765e-18
-1.08321e-18
-1.07517e-18
-1.08093e-18
-1.07534e-18
-1.08384e-18
-1.07825e-18
-1.08155e-18
-1.08162e-18
-1.08494e-18
-1.08261e-18
-1.08614e-18
-1.08605e-18
-1.0937e-18
-1.09294e-18
-1.0963e-18
-1.0886e-18
-1.09779e-18
-1.0909e-18
-1.09804e-18
-1.08898e-18
-1.09695e-18
-1.08727e-18
-1.09142e-18
-1.09107e-18
-1.10246e-18
-1.08661e-18
-1.09718e-18
-1.0856e-18
-1.09546e-18
-1.08055e-18
-1.06644e-18
-1.0689e-18
-1.06886e-18
-1.06182e-18
-1.07288e-18
-1.07065e-18
-1.07661e-18
-1.06829e-18
-1.08364e-18
-1.07774e-18
-1.0824e-18
-1.07887e-18
-1.08731e-18
-1.08443e-18
-1.09021e-18
-1.08232e-18
-1.09018e-18
-1.0797e-18
-1.08518e-18
-1.07635e-18
-1.08239e-18
-1.07596e-18
-1.08093e-18
-1.07558e-18
-1.08224e-18
-1.0782e-18
-1.08155e-18
-1.08107e-18
-1.08263e-18
-1.08207e-18
-1.08535e-18
-1.08799e-18
-1.09528e-18
-1.08673e-18
-1.09691e-18
-1.08733e-18
-1.09427e-18
-1.09332e-18
-1.09607e-18
-1.08847e-18
-1.0947e-18
-1.08924e-18
-1.09574e-18
-1.08771e-18
-1.09839e-18
-1.08633e-18
-1.09782e-18
-1.08911e-18
-1.09132e-18
-1.08051e-18
-1.06601e-18
-1.06495e-18
-1.06608e-18
-1.06272e-18
-1.06959e-18
-1.07281e-18
-1.08099e-18
-1.07203e-18
-1.08288e-18
-1.08035e-18
-1.08694e-18
-1.07894e-18
-1.08613e-18
-1.08056e-18
-1.09137e-18
-1.08292e-18
-1.0892e-18
-1.08238e-18
-1.08734e-18
-1.07858e-18
-1.08419e-18
-1.07684e-18
-1.08178e-18
-1.0761e-18
-1.08153e-18
-1.07827e-18
-1.08158e-18
-1.08031e-18
-1.08096e-18
-1.07977e-18
-1.08303e-18
-1.08871e-18
-1.09524e-18
-1.09041e-18
-1.09463e-18
-1.0888e-18
-1.09466e-18
-1.09397e-18
-1.09666e-18
-1.08974e-18
-1.09202e-18
-1.09126e-18
-1.0953e-18
-1.08666e-18
-1.09566e-18
-1.08988e-18
-1.09824e-18
-1.08908e-18
-1.09555e-18
-1.087e-18
-1.06442e-18
-1.06297e-18
-1.06795e-18
-1.06956e-18
-1.06924e-18
-1.0722e-18
-1.08127e-18
-1.07374e-18
-1.08205e-18
-1.07808e-18
-1.08839e-18
-1.0789e-18
-1.08972e-18
-1.08053e-18
-1.09248e-18
-1.08677e-18
-1.08702e-18
-1.08436e-18
-1.0873e-18
-1.0799e-18
-1.08531e-18
-1.07703e-18
-1.08061e-18
-1.07652e-18
-1.08243e-18
-1.07849e-18
-1.08164e-18
-1.0786e-18
-1.07952e-18
-1.07862e-18
-1.08167e-18
-1.0898e-18
-1.09077e-18
-1.09397e-18
-1.09227e-18
-1.09203e-18
-1.09361e-18
-1.09013e-18
-1.09529e-18
-1.09496e-18
-1.09399e-18
-1.09085e-18
-1.09387e-18
-1.08549e-18
-1.09451e-18
-1.08934e-18
-1.09239e-18
-1.08594e-18
-1.09317e-18
-1.08678e-18
-1.07162e-18
-1.06151e-18
-1.06548e-18
-1.0688e-18
-1.06765e-18
-1.07368e-18
-1.0758e-18
-1.07335e-18
-1.08616e-18
-1.08133e-18
-1.08398e-18
-1.07834e-18
-1.09193e-18
-1.07797e-18
-1.09297e-18
-1.08683e-18
-1.08675e-18
-1.08237e-18
-1.08716e-18
-1.07868e-18
-1.0841e-18
-1.07787e-18
-1.07933e-18
-1.07648e-18
-1.08432e-18
-1.07939e-18
-1.08175e-18
-1.08025e-18
-1.08111e-18
-1.07932e-18
-1.08346e-18
-1.08738e-18
-1.09042e-18
-1.09028e-18
-1.0916e-18
-1.08893e-18
-1.0961e-18
-1.09104e-18
-1.09579e-18
-1.09739e-18
-1.09073e-18
-1.08573e-18
-1.09379e-18
-1.09381e-18
-1.09667e-18
-1.09296e-18
-1.09315e-18
-1.08797e-18
-1.09504e-18
-1.07804e-18
-1.06661e-18
-1.06134e-18
-1.06067e-18
-1.06791e-18
-1.07001e-18
-1.0703e-18
-1.07883e-18
-1.07181e-18
-1.07993e-18
-1.07667e-18
-1.08362e-18
-1.07802e-18
-1.08946e-18
-1.08154e-18
-1.08981e-18
-1.08284e-18
-1.08779e-18
-1.07943e-18
-1.08804e-18
-1.07902e-18
-1.08226e-18
-1.0801e-18
-1.07866e-18
-1.07636e-18
-1.08352e-18
-1.08095e-18
-1.08208e-18
-1.08038e-18
-1.08123e-18
-1.08088e-18
-1.08432e-18
-1.0852e-18
-1.09139e-18
-1.08846e-18
-1.0937e-18
-1.08762e-18
-1.09215e-18
-1.09599e-18
-1.09648e-18
-1.09218e-18
-1.096e-18
-1.09154e-18
-1.09413e-18
-1.09045e-18
-1.09761e-18
-1.09063e-18
-1.0941e-18
-1.09108e-18
-1.0955e-18
-1.08335e-18
-1.06212e-18
-1.05965e-18
-1.06041e-18
-1.06622e-18
-1.06827e-18
-1.06182e-18
-1.08037e-18
-1.07261e-18
-1.07596e-18
-1.07777e-18
-1.08091e-18
-1.07899e-18
-1.08964e-18
-1.08157e-18
-1.08859e-18
-1.08312e-18
-1.08748e-18
-1.08126e-18
-1.08831e-18
-1.07999e-18
-1.08175e-18
-1.07778e-18
-1.08217e-18
-1.07689e-18
-1.08407e-18
-1.07939e-18
-1.08205e-18
-1.07887e-18
-1.08225e-18
-1.08473e-18
-1.08517e-18
-1.08697e-18
-1.09115e-18
-1.09091e-18
-1.09423e-18
-1.08928e-18
-1.09181e-18
-1.09065e-18
-1.09193e-18
-1.09313e-18
-1.09637e-18
-1.0953e-18
-1.0945e-18
-1.08537e-18
-1.10443e-18
-1.08964e-18
-1.0966e-18
-1.09191e-18
-1.0969e-18
-1.08823e-18
-1.06534e-18
-1.06644e-18
-1.06769e-18
-1.07021e-18
-1.06661e-18
-1.06671e-18
-1.08037e-18
-1.07281e-18
-1.07887e-18
-1.08295e-18
-1.0824e-18
-1.07554e-18
-1.0896e-18
-1.07837e-18
-1.08712e-18
-1.08438e-18
-1.08672e-18
-1.08209e-18
-1.08833e-18
-1.08175e-18
-1.08182e-18
-1.07527e-18
-1.08177e-18
-1.07804e-18
-1.08274e-18
-1.07868e-18
-1.08207e-18
-1.08071e-18
-1.08503e-18
-1.0841e-18
-1.08229e-18
-1.08728e-18
-1.09094e-18
-1.09171e-18
-1.09149e-18
-1.09051e-18
-1.09551e-18
-1.08851e-18
-1.09506e-18
-1.09112e-18
-1.09009e-18
-1.09235e-18
-1.09474e-18
-1.08541e-18
-1.0998e-18
-1.09035e-18
-1.09483e-18
-1.08643e-18
-1.09297e-18
-1.08477e-18
-1.06614e-18
-1.06639e-18
-1.06998e-18
-1.07254e-18
-1.06856e-18
-1.06897e-18
-1.07785e-18
-1.07558e-18
-1.08459e-18
-1.08152e-18
-1.07918e-18
-1.08117e-18
-1.08905e-18
-1.08364e-18
-1.08919e-18
-1.0811e-18
-1.08965e-18
-1.08352e-18
-1.08809e-18
-1.07892e-18
-1.07984e-18
-1.07828e-18
-1.08023e-18
-1.07945e-18
-1.08219e-18
-1.07934e-18
-1.0823e-18
-1.08317e-18
-1.08414e-18
-1.0847e-18
-1.08376e-18
-1.08516e-18
-1.08851e-18
-1.0906e-18
-1.09276e-18
-1.08808e-18
-1.09204e-18
-1.08955e-18
-1.09582e-18
-1.09336e-18
-1.08844e-18
-1.08695e-18
-1.09207e-18
-1.08845e-18
-1.09901e-18
-1.09227e-18
-1.09268e-18
-1.08402e-18
-1.0932e-18
-1.08283e-18
-1.06557e-18
-1.06458e-18
-1.06591e-18
-1.0669e-18
-1.07173e-18
-1.07001e-18
-1.0735e-18
-1.07334e-18
-1.08388e-18
-1.07961e-18
-1.08362e-18
-1.0805e-18
-1.09093e-18
-1.0837e-18
-1.0898e-18
-1.07997e-18
-1.08957e-18
-1.08315e-18
-1.08709e-18
-1.07743e-18
-1.07998e-18
-1.07762e-18
-1.07891e-18
-1.07807e-18
-1.08237e-18
-1.08114e-18
-1.08253e-18
-1.08251e-18
-1.0819e-18
-1.08274e-18
-1.08416e-18
-1.08392e-18
-1.08714e-18
-1.08951e-18
-1.0905e-18
-1.08749e-18
-1.09254e-18
-1.08984e-18
-1.09313e-18
-1.0896e-18
-1.09158e-18
-1.08899e-18
-1.09439e-18
-1.09444e-18
-1.0972e-18
-1.09171e-18
-1.09619e-18
-1.08757e-18
-1.09386e-18
-1.08375e-18
-1.0653e-18
-1.06419e-18
-1.06766e-18
-1.0665e-18
-1.07377e-18
-1.0691e-18
-1.07817e-18
-1.07092e-18
-1.08069e-18
-1.07687e-18
-1.08444e-18
-1.07813e-18
-1.0924e-18
-1.08072e-18
-1.08685e-18
-1.08124e-18
-1.08943e-18
-1.08138e-18
-1.08737e-18
-1.08075e-18
-1.08283e-18
-1.07981e-18
-1.0815e-18
-1.07752e-18
-1.08242e-18
-1.08071e-18
-1.08243e-18
-1.0832e-18
-1.08121e-18
-1.08131e-18
-1.08289e-18
-1.08401e-18
-1.08949e-18
-1.08828e-18
-1.09112e-18
-1.08934e-18
-1.09357e-18
-1.08878e-18
-1.09543e-18
-1.08832e-18
-1.09615e-18
-1.09095e-18
-1.09719e-18
-1.09233e-18
-1.0977e-18
-1.08938e-18
-1.09597e-18
-1.08879e-18
-1.09382e-18
-1.08321e-18
-1.06509e-18
-1.064e-18
-1.06667e-18
-1.0702e-18
-1.07291e-18
-1.07062e-18
-1.07628e-18
-1.07804e-18
-1.07859e-18
-1.07412e-18
-1.08405e-18
-1.07856e-18
-1.08851e-18
-1.07881e-18
-1.08809e-18
-1.08321e-18
-1.08514e-18
-1.08218e-18
-1.08313e-18
-1.08216e-18
-1.085e-18
-1.07896e-18
-1.08374e-18
-1.07742e-18
-1.08251e-18
-1.08092e-18
-1.08284e-18
-1.08291e-18
-1.08167e-18
-1.08403e-18
-1.08361e-18
-1.08754e-18
-1.08822e-18
-1.09032e-18
-1.09209e-18
-1.08933e-18
-1.09124e-18
-1.08912e-18
-1.09633e-18
-1.08936e-18
-1.09785e-18
-1.09185e-18
-1.0904e-18
-1.09192e-18
-1.09547e-18
-1.09133e-18
-1.09229e-18
-1.09031e-18
-1.09379e-18
-1.08606e-18
-1.06447e-18
-1.06387e-18
-1.06815e-18
-1.06654e-18
-1.07141e-18
-1.07054e-18
-1.07567e-18
-1.07731e-18
-1.07857e-18
-1.07743e-18
-1.08391e-18
-1.07827e-18
-1.09004e-18
-1.08016e-18
-1.08972e-18
-1.08269e-18
-1.08304e-18
-1.08101e-18
-1.08301e-18
-1.08302e-18
-1.08345e-18
-1.07838e-18
-1.08439e-18
-1.07628e-18
-1.08263e-18
-1.07785e-18
-1.08357e-18
-1.07939e-18
-1.08193e-18
-1.08412e-18
-1.08301e-18
-1.08827e-18
-1.09099e-18
-1.09232e-18
-1.09275e-18
-1.08802e-18
-1.09104e-18
-1.08861e-18
-1.09557e-18
-1.08889e-18
-1.09367e-18
-1.09024e-18
-1.08882e-18
-1.09166e-18
-1.09469e-18
-1.09132e-18
-1.09548e-18
-1.08751e-18
-1.09412e-18
-1.08822e-18
-1.06331e-18
-1.06416e-18
-1.06619e-18
-1.06609e-18
-1.07204e-18
-1.06893e-18
-1.07495e-18
-1.07629e-18
-1.07796e-18
-1.08078e-18
-1.08384e-18
-1.07881e-18
-1.0887e-18
-1.0806e-18
-1.08812e-18
-1.08231e-18
-1.08682e-18
-1.08079e-18
-1.08369e-18
-1.08308e-18
-1.08245e-18
-1.07838e-18
-1.0832e-18
-1.07762e-18
-1.0833e-18
-1.07797e-18
-1.08196e-18
-1.08099e-18
-1.0822e-18
-1.0847e-18
-1.08444e-18
-1.08694e-18
-1.08929e-18
-1.08988e-18
-1.09013e-18
-1.08888e-18
-1.09041e-18
-1.08976e-18
-1.09489e-18
-1.09037e-18
-1.08915e-18
-1.09092e-18
-1.0927e-18
-1.09179e-18
-1.098e-18
-1.08883e-18
-1.09593e-18
-1.09041e-18
-1.09436e-18
-1.08842e-18
-1.06133e-18
-1.06158e-18
-1.06765e-18
-1.07061e-18
-1.07235e-18
-1.0687e-18
-1.07625e-18
-1.075e-18
-1.08116e-18
-1.07896e-18
-1.08109e-18
-1.0776e-18
-1.08811e-18
-1.07988e-18
-1.08693e-18
-1.08295e-18
-1.0872e-18
-1.08377e-18
-1.08563e-18
-1.08142e-18
-1.08491e-18
-1.0788e-18
-1.08302e-18
-1.07888e-18
-1.08449e-18
-1.08085e-18
-1.08385e-18
-1.08349e-18
-1.08214e-18
-1.08357e-18
-1.08552e-18
-1.08595e-18
-1.08454e-18
-1.08981e-18
-1.08973e-18
-1.08971e-18
-1.09149e-18
-1.09117e-18
-1.09625e-18
-1.09422e-18
-1.08937e-18
-1.08943e-18
-1.09488e-18
-1.09039e-18
-1.09876e-18
-1.08885e-18
-1.09131e-18
-1.08839e-18
-1.09607e-18
-1.08829e-18
-1.06452e-18
-1.06384e-18
-1.06614e-18
-1.07058e-18
-1.07317e-18
-1.06972e-18
-1.07671e-18
-1.0753e-18
-1.07922e-18
-1.07628e-18
-1.08295e-18
-1.07856e-18
-1.08628e-18
-1.08029e-18
-1.08899e-18
-1.08459e-18
-1.08654e-18
-1.08333e-18
-1.08603e-18
-1.07914e-18
-1.08417e-18
-1.07869e-18
-1.08244e-18
-1.0799e-18
-1.08387e-18
-1.08072e-18
-1.08373e-18
-1.08195e-18
-1.08252e-18
-1.08354e-18
-1.08491e-18
-1.08591e-18
-1.08637e-18
-1.09174e-18
-1.08842e-18
-1.09021e-18
-1.09195e-18
-1.09297e-18
-1.09346e-18
-1.09179e-18
-1.09316e-18
-1.09255e-18
-1.09357e-18
-1.08998e-18
-1.09751e-18
-1.08859e-18
-1.09119e-18
-1.09074e-18
-1.09495e-18
-1.08528e-18
-1.06447e-18
-1.06695e-18
-1.06617e-18
-1.06611e-18
-1.07212e-18
-1.07073e-18
-1.07464e-18
-1.07642e-18
-1.07928e-18
-1.07937e-18
-1.08512e-18
-1.0836e-18
-1.08748e-18
-1.08009e-18
-1.08924e-18
-1.08291e-18
-1.08816e-18
-1.08241e-18
-1.08678e-18
-1.07998e-18
-1.08395e-18
-1.07808e-18
-1.08221e-18
-1.07951e-18
-1.0833e-18
-1.0804e-18
-1.08333e-18
-1.08133e-18
-1.0829e-18
-1.08275e-18
-1.08356e-18
-1.08497e-18
-1.08964e-18
-1.08966e-18
-1.09008e-18
-1.08856e-18
-1.09168e-18
-1.09086e-18
-1.09023e-18
-1.08976e-18
-1.09133e-18
-1.0913e-18
-1.09261e-18
-1.09214e-18
-1.09601e-18
-1.09025e-18
-1.09576e-18
-1.08914e-18
-1.09118e-18
-1.08466e-18
-1.06757e-18
-1.06342e-18
-1.0683e-18
-1.06572e-18
-1.07236e-18
-1.07508e-18
-1.0736e-18
-1.07465e-18
-1.08028e-18
-1.07664e-18
-1.08536e-18
-1.0788e-18
-1.08843e-18
-1.08134e-18
-1.08854e-18
-1.08229e-18
-1.08798e-18
-1.08292e-18
-1.0861e-18
-1.07972e-18
-1.08408e-18
-1.07876e-18
-1.08216e-18
-1.07939e-18
-1.08203e-18
-1.08036e-18
-1.08415e-18
-1.0813e-18
-1.0818e-18
-1.08271e-18
-1.08473e-18
-1.0852e-18
-1.08863e-18
-1.08908e-18
-1.09077e-18
-1.08967e-18
-1.09201e-18
-1.0885e-18
-1.0947e-18
-1.09074e-18
-1.09372e-18
-1.09217e-18
-1.09488e-18
-1.09334e-18
-1.09183e-18
-1.08997e-18
-1.09762e-18
-1.08741e-18
-1.09302e-18
-1.08175e-18
-1.06676e-18
-1.06394e-18
-1.0677e-18
-1.06589e-18
-1.07221e-18
-1.07389e-18
-1.07467e-18
-1.07494e-18
-1.07764e-18
-1.07661e-18
-1.08441e-18
-1.07814e-18
-1.08909e-18
-1.08107e-18
-1.08665e-18
-1.08141e-18
-1.08715e-18
-1.08138e-18
-1.08592e-18
-1.0792e-18
-1.08397e-18
-1.07974e-18
-1.082e-18
-1.07974e-18
-1.08291e-18
-1.08007e-18
-1.08324e-18
-1.08147e-18
-1.08209e-18
-1.08273e-18
-1.08517e-18
-1.08571e-18
-1.08908e-18
-1.08893e-18
-1.0911e-18
-1.08882e-18
-1.09441e-18
-1.086e-18
-1.09465e-18
-1.09167e-18
-1.09192e-18
-1.09452e-18
-1.09562e-18
-1.09254e-18
-1.0924e-18
-1.08958e-18
-1.09847e-18
-1.08822e-18
-1.09319e-18
-1.08307e-18
-1.06354e-18
-1.06558e-18
-1.06694e-18
-1.06897e-18
-1.07267e-18
-1.07193e-18
-1.07793e-18
-1.07663e-18
-1.0767e-18
-1.07947e-18
-1.08376e-18
-1.07995e-18
-1.0857e-18
-1.08068e-18
-1.087e-18
-1.08064e-18
-1.08673e-18
-1.08086e-18
-1.08488e-18
-1.08103e-18
-1.08433e-18
-1.07925e-18
-1.08158e-18
-1.07936e-18
-1.08373e-18
-1.07919e-18
-1.08288e-18
-1.08162e-18
-1.08267e-18
-1.0831e-18
-1.08462e-18
-1.08668e-18
-1.0894e-18
-1.0887e-18
-1.09173e-18
-1.08851e-18
-1.09351e-18
-1.0905e-18
-1.09254e-18
-1.09154e-18
-1.0913e-18
-1.09495e-18
-1.09342e-18
-1.09021e-18
-1.09396e-18
-1.08896e-18
-1.09363e-18
-1.08889e-18
-1.09213e-18
-1.08705e-18
-1.06532e-18
-1.0636e-18
-1.06796e-18
-1.06839e-18
-1.07385e-18
-1.06856e-18
-1.07658e-18
-1.07394e-18
-1.07827e-18
-1.0782e-18
-1.08402e-18
-1.08101e-18
-1.08445e-18
-1.08153e-18
-1.09026e-18
-1.08146e-18
-1.08536e-18
-1.08203e-18
-1.08487e-18
-1.08099e-18
-1.08445e-18
-1.08026e-18
-1.08216e-18
-1.07895e-18
-1.08388e-18
-1.07968e-18
-1.08248e-18
-1.08162e-18
-1.08233e-18
-1.08332e-18
-1.08442e-18
-1.08631e-18
-1.08898e-18
-1.08956e-18
-1.09039e-18
-1.08695e-18
-1.09103e-18
-1.09124e-18
-1.0933e-18
-1.09174e-18
-1.09254e-18
-1.09314e-18
-1.09495e-18
-1.09136e-18
-1.09792e-18
-1.0878e-18
-1.09296e-18
-1.08843e-18
-1.0946e-18
-1.0846e-18
-1.06532e-18
-1.06201e-18
-1.06719e-18
-1.06869e-18
-1.0724e-18
-1.07173e-18
-1.07626e-18
-1.07289e-18
-1.08164e-18
-1.07745e-18
-1.08419e-18
-1.08018e-18
-1.08563e-18
-1.08198e-18
-1.0886e-18
-1.0808e-18
-1.08626e-18
-1.0812e-18
-1.0855e-18
-1.0799e-18
-1.0844e-18
-1.07966e-18
-1.0835e-18
-1.07946e-18
-1.08333e-18
-1.08046e-18
-1.08278e-18
-1.0812e-18
-1.08288e-18
-1.08435e-18
-1.08348e-18
-1.08616e-18
-1.08951e-18
-1.08899e-18
-1.09097e-18
-1.08851e-18
-1.08936e-18
-1.08984e-18
-1.09347e-18
-1.09128e-18
-1.09324e-18
-1.08988e-18
-1.09595e-18
-1.09129e-18
-1.09515e-18
-1.0893e-18
-1.09347e-18
-1.08826e-18
-1.09547e-18
-1.08454e-18
-1.06482e-18
-1.06462e-18
-1.06886e-18
-1.06884e-18
-1.07125e-18
-1.07172e-18
-1.07586e-18
-1.07457e-18
-1.07924e-18
-1.07763e-18
-1.08471e-18
-1.08062e-18
-1.08837e-18
-1.07991e-18
-1.08678e-18
-1.08115e-18
-1.08463e-18
-1.08008e-18
-1.0853e-18
-1.08005e-18
-1.08518e-18
-1.07957e-18
-1.08292e-18
-1.07999e-18
-1.08288e-18
-1.08094e-18
-1.08257e-18
-1.08058e-18
-1.08302e-18
-1.08357e-18
-1.084e-18
-1.08679e-18
-1.08946e-18
-1.08973e-18
-1.09038e-18
-1.08983e-18
-1.09187e-18
-1.0904e-18
-1.09302e-18
-1.09017e-18
-1.09171e-18
-1.09114e-18
-1.09502e-18
-1.09106e-18
-1.09422e-18
-1.09055e-18
-1.09425e-18
-1.08646e-18
-1.09332e-18
-1.0849e-18
-1.06401e-18
-1.06488e-18
-1.06969e-18
-1.0672e-18
-1.07266e-18
-1.07036e-18
-1.07628e-18
-1.07589e-18
-1.07815e-18
-1.07795e-18
-1.0859e-18
-1.07961e-18
-1.08595e-18
-1.07998e-18
-1.08799e-18
-1.0803e-18
-1.08628e-18
-1.08106e-18
-1.08502e-18
-1.08047e-18
-1.08535e-18
-1.07911e-18
-1.08297e-18
-1.08062e-18
-1.08318e-18
-1.08178e-18
-1.08256e-18
-1.08158e-18
-1.08277e-18
-1.08321e-18
-1.08385e-18
-1.0869e-18
-1.08955e-18
-1.08821e-18
-1.08975e-18
-1.08761e-18