/*--------------------------------*- C++ -*----------------------------------*\
  =========                 |
  \\      /  F ield         | OpenFOAM: The Open Source CFD Toolbox
   \\    /   O peration     | Website:  https://openfoam.org
    \\  /    A nd           | Version:  7
     \\/     M anipulation  |
\*---------------------------------------------------------------------------*/
FoamFile
{
    version     2.0;
    format      ascii;
    class       volScalarField;
    location    "96000";
    object      p;
}
// * * * * * * * * * * * * * * * * * * * * * * * * * * * * * * * * * * * * * //

dimensions      [0 2 -2 0 0 0 0];

internalField   nonuniform List<scalar> 
4850
(
-1.40667e-18
-1.38551e-18
-1.40281e-18
-1.3805e-18
-1.3976e-18
-1.41638e-18
-1.40253e-18
-1.39697e-18
-1.39112e-18
-1.3955e-18
-1.40615e-18
-1.39969e-18
-1.40096e-18
-1.40198e-18
-1.38901e-18
-1.39649e-18
-1.40682e-18
-1.40336e-18
-1.38668e-18
-1.40417e-18
-1.38511e-18
-1.39645e-18
-1.39243e-18
-1.41495e-18
-1.40653e-18
-1.39143e-18
-1.40773e-18
-1.39808e-18
-1.38636e-18
-1.40292e-18
-1.40172e-18
-1.42106e-18
-1.39569e-18
-1.39782e-18
-1.39931e-18
-1.3926e-18
-1.39432e-18
-1.39012e-18
-1.40691e-18
-1.41488e-18
-1.39653e-18
-1.38689e-18
-1.38989e-18
-1.3985e-18
-1.40649e-18
-1.39713e-18
-1.39094e-18
-1.39645e-18
-1.39996e-18
-1.39814e-18
-1.39291e-18
-1.38654e-18
-1.40415e-18
-1.38436e-18
-1.38152e-18
-1.39549e-18
-1.39076e-18
-1.40191e-18
-1.40012e-18
-1.40379e-18
-1.39308e-18
-1.40054e-18
-1.40144e-18
-1.3959e-18
-1.39979e-18
-1.38842e-18
-1.39213e-18
-1.39283e-18
-1.37222e-18
-1.37315e-18
-1.3702e-18
-1.36911e-18
-1.36739e-18
-1.35996e-18
-1.39899e-18
-1.40085e-18
-1.39586e-18
-1.39284e-18
-1.39329e-18
-1.39707e-18
-1.41318e-18
-1.3946e-18
-1.39648e-18
-1.38726e-18
-1.38888e-18
-1.38496e-18
-1.38144e-18
-1.3851e-18
-1.36809e-18
-1.36982e-18
-1.37352e-18
-1.36943e-18
-1.37083e-18
-1.38403e-18
-1.40024e-18
-1.40205e-18
-1.3973e-18
-1.39543e-18
-1.38945e-18
-1.40168e-18
-1.4047e-18
-1.40011e-18
-1.3933e-18
-1.38625e-18
-1.39e-18
-1.38171e-18
-1.39376e-18
-1.38917e-18
-1.38548e-18
-1.37017e-18
-1.37902e-18
-1.36786e-18
-1.36539e-18
-1.37021e-18
-1.37301e-18
-1.38824e-18
-1.39862e-18
-1.37077e-18
-1.40022e-18
-1.39906e-18
-1.39512e-18
-1.39332e-18
-1.39032e-18
-1.39244e-18
-1.38674e-18
-1.39411e-18
-1.39561e-18
-1.39083e-18
-1.39685e-18
-1.37936e-18
-1.38848e-18
-1.37947e-18
-1.38695e-18
-1.37032e-18
-1.38923e-18
-1.36737e-18
-1.34804e-18
-1.35871e-18
-1.37254e-18
-1.3731e-18
-1.38115e-18
-1.35492e-18
-1.38346e-18
-1.40599e-18
-1.38374e-18
-1.36341e-18
-1.39525e-18
-1.39069e-18
-1.40223e-18
-1.38705e-18
-1.39383e-18
-1.38762e-18
-1.39417e-18
-1.37728e-18
-1.39092e-18
-1.40152e-18
-1.39079e-18
-1.38715e-18
-1.38474e-18
-1.39295e-18
-1.37394e-18
-1.39873e-18
-1.36303e-18
-1.37688e-18
-1.35609e-18
-1.34449e-18
-1.38247e-18
-1.37013e-18
-1.35618e-18
-1.37603e-18
-1.35746e-18
-1.38825e-18
-1.42517e-18
-1.38948e-18
-1.36578e-18
-1.39507e-18
-1.39225e-18
-1.3742e-18
-1.38143e-18
-1.38373e-18
-1.41238e-18
-1.39461e-18
-1.38866e-18
-1.39004e-18
-1.40305e-18
-1.39185e-18
-1.39639e-18
-1.40101e-18
-1.38968e-18
-1.39048e-18
-1.38512e-18
-1.38996e-18
-1.37517e-18
-1.39874e-18
-1.38798e-18
-1.37711e-18
-1.36878e-18
-1.35122e-18
-1.37783e-18
-1.37075e-18
-1.37347e-18
-1.37365e-18
-1.37535e-18
-1.3995e-18
-1.40556e-18
-1.38759e-18
-1.36996e-18
-1.39378e-18
-1.39298e-18
-1.38479e-18
-1.37827e-18
-1.38663e-18
-1.43189e-18
-1.3927e-18
-1.39588e-18
-1.39409e-18
-1.39802e-18
-1.39824e-18
-1.40071e-18
-1.382e-18
-1.39938e-18
-1.39591e-18
-1.38872e-18
-1.38724e-18
-1.37586e-18
-1.38785e-18
-1.37961e-18
-1.38436e-18
-1.38394e-18
-1.37681e-18
-1.38023e-18
-1.37535e-18
-1.3749e-18
-1.37171e-18
-1.38865e-18
-1.36845e-18
-1.37846e-18
-1.38867e-18
-1.41634e-18
-1.38312e-18
-1.38132e-18
-1.39213e-18
-1.39526e-18
-1.38738e-18
-1.39744e-18
-1.3689e-18
-1.44771e-18
-1.39694e-18
-1.39675e-18
-1.3941e-18
-1.3999e-18
-1.39353e-18
-1.39719e-18
-1.3892e-18
-1.39563e-18
-1.3967e-18
-1.38917e-18
-1.39096e-18
-1.38841e-18
-1.38932e-18
-1.38451e-18
-1.38152e-18
-1.39118e-18
-1.3769e-18
-1.39019e-18
-1.38333e-18
-1.37532e-18
-1.37134e-18
-1.3826e-18
-1.38563e-18
-1.37646e-18
-1.38987e-18
-1.42571e-18
-1.36773e-18
-1.40048e-18
-1.39693e-18
-1.40459e-18
-1.37658e-18
-1.41592e-18
-1.37975e-18
-1.45486e-18
-1.39691e-18
-1.39562e-18
-1.39254e-18
-1.40387e-18
-1.39538e-18
-1.39284e-18
-1.38874e-18
-1.39319e-18
-1.38846e-18
-1.39015e-18
-1.39517e-18
-1.3876e-18
-1.39188e-18
-1.38409e-18
-1.38166e-18
-1.38222e-18
-1.3747e-18
-1.3759e-18
-1.35856e-18
-1.37489e-18
-1.37081e-18
-1.38559e-18
-1.37214e-18
-1.36289e-18
-1.39707e-18
-1.39888e-18
-1.36654e-18
-1.3933e-18
-1.40466e-18
-1.39234e-18
-1.38686e-18
-1.41479e-18
-1.38298e-18
-1.43405e-18
-1.40133e-18
-1.39522e-18
-1.38601e-18
-1.40828e-18
-1.389e-18
-1.39615e-18
-1.39203e-18
-1.39237e-18
-1.39432e-18
-1.38557e-18
-1.38629e-18
-1.3873e-18
-1.38885e-18
-1.3853e-18
-1.38149e-18
-1.37722e-18
-1.37616e-18
-1.36517e-18
-1.35307e-18
-1.37768e-18
-1.36962e-18
-1.37839e-18
-1.3854e-18
-1.36693e-18
-1.38733e-18
-1.39053e-18
-1.38516e-18
-1.38872e-18
-1.39384e-18
-1.37669e-18
-1.39144e-18
-1.40357e-18
-1.38215e-18
-1.45217e-18
-1.40671e-18
-1.38831e-18
-1.38932e-18
-1.41167e-18
-1.38368e-18
-1.40085e-18
-1.38744e-18
-1.39358e-18
-1.39463e-18
-1.37495e-18
-1.38694e-18
-1.39173e-18
-1.38922e-18
-1.38418e-18
-1.37156e-18
-1.38147e-18
-1.37182e-18
-1.37429e-18
-1.36374e-18
-1.38576e-18
-1.361e-18
-1.37152e-18
-1.36821e-18
-1.38913e-18
-1.38538e-18
-1.39348e-18
-1.39964e-18
-1.3887e-18
-1.39162e-18
-1.38314e-18
-1.39138e-18
-1.40014e-18
-1.38155e-18
-1.45111e-18
-1.40371e-18
-1.39566e-18
-1.38987e-18
-1.40058e-18
-1.38871e-18
-1.39789e-18
-1.38742e-18
-1.39067e-18
-1.38837e-18
-1.37892e-18
-1.39348e-18
-1.37795e-18
-1.38981e-18
-1.38666e-18
-1.38008e-18
-1.3815e-18
-1.36095e-18
-1.36335e-18
-1.35723e-18
-1.37679e-18
-1.36887e-18
-1.36207e-18
-1.37395e-18
-1.38345e-18
-1.38646e-18
-1.38944e-18
-1.3876e-18
-1.38894e-18
-1.39356e-18
-1.37729e-18
-1.39116e-18
-1.40075e-18
-1.37695e-18
-1.44118e-18
-1.39258e-18
-1.3975e-18
-1.389e-18
-1.39506e-18
-1.38815e-18
-1.39769e-18
-1.38996e-18
-1.40044e-18
-1.395e-18
-1.3838e-18
-1.4117e-18
-1.3705e-18
-1.38265e-18
-1.38931e-18
-1.38263e-18
-1.38005e-18
-1.37303e-18
-1.37275e-18
-1.36852e-18
-1.37428e-18
-1.37166e-18
-1.37139e-18
-1.3776e-18
-1.37881e-18
-1.38277e-18
-1.38614e-18
-1.38711e-18
-1.38636e-18
-1.39143e-18
-1.38847e-18
-1.39388e-18
-1.40138e-18
-1.39266e-18
-1.43942e-18
-1.39314e-18
-1.40077e-18
-1.39138e-18
-1.39138e-18
-1.39005e-18
-1.39269e-18
-1.39202e-18
-1.40274e-18
-1.3953e-18
-1.39024e-18
-1.40872e-18
-1.37962e-18
-1.38328e-18
-1.39134e-18
-1.37523e-18
-1.38834e-18
-1.37693e-18
-1.37781e-18
-1.38073e-18
-1.37308e-18
-1.37403e-18
-1.37034e-18
-1.37725e-18
-1.37852e-18
-1.38853e-18
-1.38554e-18
-1.38685e-18
-1.37833e-18
-1.39519e-18
-1.39132e-18
-1.39381e-18
-1.402e-18
-1.40719e-18
-1.42395e-18
-1.39707e-18
-1.395e-18
-1.38572e-18
-1.39687e-18
-1.39374e-18
-1.39748e-18
-1.38806e-18
-1.4026e-18
-1.39736e-18
-1.39617e-18
-1.39592e-18
-1.37947e-18
-1.39034e-18
-1.38519e-18
-1.37328e-18
-1.37664e-18
-1.37907e-18
-1.38028e-18
-1.369e-18
-1.37302e-18
-1.3793e-18
-1.35878e-18
-1.37532e-18
-1.37933e-18
-1.40737e-18
-1.38896e-18
-1.38789e-18
-1.38999e-18
-1.4039e-18
-1.38634e-18
-1.393e-18
-1.40526e-18
-1.4013e-18
-1.41462e-18
-1.37097e-18
-1.3922e-18
-1.39918e-18
-1.38874e-18
-1.40164e-18
-1.39221e-18
-1.397e-18
-1.39505e-18
-1.39346e-18
-1.4077e-18
-1.38887e-18
-1.39191e-18
-1.38678e-18
-1.39722e-18
-1.37788e-18
-1.3761e-18
-1.38539e-18
-1.39021e-18
-1.38902e-18
-1.35561e-18
-1.3771e-18
-1.36092e-18
-1.35395e-18
-1.37495e-18
-1.37933e-18
-1.38899e-18
-1.39686e-18
-1.39077e-18
-1.39996e-18
-1.39387e-18
-1.40314e-18
-1.39375e-18
-1.41715e-18
-1.39978e-18
-1.40586e-18
-1.38395e-18
-1.38203e-18
-1.39825e-18
-1.38926e-18
-1.39579e-18
-1.39351e-18
-1.39691e-18
-1.40643e-18
-1.39393e-18
-1.40189e-18
-1.3837e-18
-1.39301e-18
-1.38984e-18
-1.39447e-18
-1.37307e-18
-1.37521e-18
-1.38128e-18
-1.37979e-18
-1.38161e-18
-1.36236e-18
-1.38567e-18
-1.3661e-18
-1.36128e-18
-1.37439e-18
-1.38093e-18
-1.37776e-18
-1.38863e-18
-1.38734e-18
-1.39165e-18
-1.38884e-18
-1.40206e-18
-1.39494e-18
-1.41818e-18
-1.39982e-18
-1.42508e-18
-1.4045e-18
-1.38755e-18
-1.39564e-18
-1.38596e-18
-1.39954e-18
-1.38992e-18
-1.39605e-18
-1.40068e-18
-1.38814e-18
-1.39682e-18
-1.38836e-18
-1.39546e-18
-1.38783e-18
-1.38378e-18
-1.385e-18
-1.38273e-18
-1.37396e-18
-1.36917e-18
-1.37654e-18
-1.36838e-18
-1.38163e-18
-1.37157e-18
-1.38601e-18
-1.37465e-18
-1.37929e-18
-1.36945e-18
-1.38626e-18
-1.38547e-18
-1.38863e-18
-1.38426e-18
-1.4077e-18
-1.39473e-18
-1.40873e-18
-1.40587e-18
-1.4254e-18
-1.39029e-18
-1.40571e-18
-1.38042e-18
-1.40122e-18
-1.39134e-18
-1.3934e-18
-1.3966e-18
-1.40128e-18
-1.40212e-18
-1.39136e-18
-1.38892e-18
-1.38762e-18
-1.38743e-18
-1.3863e-18
-1.3846e-18
-1.37499e-18
-1.37232e-18
-1.37743e-18
-1.37194e-18
-1.38662e-18
-1.37205e-18
-1.3897e-18
-1.37322e-18
-1.37714e-18
-1.37541e-18
-1.39014e-18
-1.38533e-18
-1.39287e-18
-1.37457e-18
-1.40234e-18
-1.39365e-18
-1.40773e-18
-1.41361e-18
-1.41489e-18
-1.39103e-18
-1.40925e-18
-1.38332e-18
-1.39545e-18
-1.3897e-18
-1.38452e-18
-1.39833e-18
-1.39585e-18
-1.39609e-18
-1.39146e-18
-1.39073e-18
-1.38932e-18
-1.38486e-18
-1.38552e-18
-1.38721e-18
-1.37939e-18
-1.38511e-18
-1.37737e-18
-1.37544e-18
-1.37786e-18
-1.36915e-18
-1.37802e-18
-1.37176e-18
-1.37351e-18
-1.37113e-18
-1.3981e-18
-1.38599e-18
-1.40184e-18
-1.38323e-18
-1.40089e-18
-1.39439e-18
-1.4055e-18
-1.40693e-18
-1.41019e-18
-1.39056e-18
-1.40063e-18
-1.37462e-18
-1.39342e-18
-1.38806e-18
-1.38625e-18
-1.39335e-18
-1.39661e-18
-1.38244e-18
-1.39094e-18
-1.39047e-18
-1.3934e-18
-1.38194e-18
-1.37847e-18
-1.38038e-18
-1.37403e-18
-1.38667e-18
-1.3768e-18
-1.37645e-18
-1.37246e-18
-1.36042e-18
-1.37217e-18
-1.37155e-18
-1.37654e-18
-1.3784e-18
-1.38924e-18
-1.38794e-18
-1.39354e-18
-1.38812e-18
-1.40599e-18
-1.39744e-18
-1.40421e-18
-1.40636e-18
-1.41304e-18
-1.39144e-18
-1.39516e-18
-1.38766e-18
-1.40156e-18
-1.39207e-18
-1.39541e-18
-1.3848e-18
-1.40876e-18
-1.39723e-18
-1.39124e-18
-1.3939e-18
-1.39069e-18
-1.38847e-18
-1.37921e-18
-1.3765e-18
-1.36899e-18
-1.37413e-18
-1.37532e-18
-1.36568e-18
-1.37193e-18
-1.37183e-18
-1.37166e-18
-1.37281e-18
-1.37779e-18
-1.38062e-18
-1.38575e-18
-1.39932e-18
-1.39048e-18
-1.38666e-18
-1.39735e-18
-1.40101e-18
-1.40941e-18
-1.40533e-18
-1.39591e-18
-1.39258e-18
-1.3828e-18
-1.39989e-18
-1.39106e-18
-1.38986e-18
-1.39895e-18
-1.40393e-18
-1.40152e-18
-1.39296e-18
-1.39192e-18
-1.38984e-18
-1.39348e-18
-1.37942e-18
-1.38302e-18
-1.37488e-18
-1.37411e-18
-1.36891e-18
-1.36354e-18
-1.37389e-18
-1.3751e-18
-1.37306e-18
-1.37172e-18
-1.37722e-18
-1.3806e-18
-1.38552e-18
-1.39864e-18
-1.39097e-18
-1.38386e-18
-1.39349e-18
-1.39618e-18
-1.40972e-18
-1.41299e-18
-1.397e-18
-1.3888e-18
-1.38547e-18
-1.39459e-18
-1.38927e-18
-1.40068e-18
-1.39802e-18
-1.39605e-18
-1.40411e-18
-1.398e-18
-1.39012e-18
-1.39041e-18
-1.39019e-18
-1.38006e-18
-1.37677e-18
-1.37419e-18
-1.37259e-18
-1.37041e-18
-1.36979e-18
-1.37664e-18
-1.37078e-18
-1.37634e-18
-1.372e-18
-1.37685e-18
-1.38239e-18
-1.38456e-18
-1.38415e-18
-1.39143e-18
-1.38747e-18
-1.40007e-18
-1.39632e-18
-1.40704e-18
-1.39338e-18
-1.39593e-18
-1.38743e-18
-1.38499e-18
-1.38596e-18
-1.39342e-18
-1.39715e-18
-1.40079e-18
-1.40389e-18
-1.40124e-18
-1.38779e-18
-1.38724e-18
-1.38391e-18
-1.3801e-18
-1.37825e-18
-1.37147e-18
-1.3769e-18
-1.36792e-18
-1.36955e-18
-1.37276e-18
-1.37133e-18
-1.37269e-18
-1.37152e-18
-1.37642e-18
-1.38637e-18
-1.38574e-18
-1.38463e-18
-1.39285e-18
-1.38963e-18
-1.3983e-18
-1.39905e-18
-1.40402e-18
-1.38653e-18
-1.39253e-18
-1.38709e-18
-1.3957e-18
-1.39166e-18
-1.3904e-18
-1.38868e-18
-1.40176e-18
-1.39672e-18
-1.39581e-18
-1.3921e-18
-1.37873e-18
-1.38893e-18
-1.38183e-18
-1.3782e-18
-1.37912e-18
-1.37666e-18
-1.37221e-18
-1.36543e-18
-1.37121e-18
-1.366e-18
-1.36552e-18
-1.37242e-18
-1.37559e-18
-1.38356e-18
-1.38883e-18
-1.38624e-18
-1.38572e-18
-1.38891e-18
-1.3934e-18
-1.39007e-18
-1.40751e-18
-1.38343e-18
-1.38076e-18
-1.38898e-18
-1.40154e-18
-1.39546e-18
-1.39129e-18
-1.39393e-18
-1.39866e-18
-1.39127e-18
-1.3942e-18
-1.39521e-18
-1.38152e-18
-1.38959e-18
-1.38146e-18
-1.3778e-18
-1.37394e-18
-1.37842e-18
-1.3729e-18
-1.36972e-18
-1.37055e-18
-1.36225e-18
-1.3709e-18
-1.3736e-18
-1.37626e-18
-1.38658e-18
-1.3869e-18
-1.3858e-18
-1.38772e-18
-1.38808e-18
-1.38731e-18
-1.38894e-18
-1.40132e-18
-1.38e-18
-1.38631e-18
-1.3832e-18
-1.40495e-18
-1.38837e-18
-1.39521e-18
-1.39359e-18
-1.40381e-18
-1.3888e-18
-1.3999e-18
-1.39564e-18
-1.39001e-18
-1.38605e-18
-1.37715e-18
-1.37378e-18
-1.37551e-18
-1.3754e-18
-1.37522e-18
-1.36818e-18
-1.37241e-18
-1.36827e-18
-1.36751e-18
-1.3638e-18
-1.37816e-18
-1.38664e-18
-1.38693e-18
-1.38513e-18
-1.38981e-18
-1.38736e-18
-1.39759e-18
-1.3925e-18
-1.40147e-18
-1.37674e-18
-1.40814e-18
-1.38519e-18
-1.39326e-18
-1.38668e-18
-1.40481e-18
-1.39435e-18
-1.39991e-18
-1.39344e-18
-1.40302e-18
-1.39436e-18
-1.39292e-18
-1.38659e-18
-1.37785e-18
-1.37838e-18
-1.37721e-18
-1.37422e-18
-1.37622e-18
-1.36049e-18
-1.37301e-18
-1.36678e-18
-1.36621e-18
-1.36185e-18
-1.37326e-18
-1.38188e-18
-1.37811e-18
-1.38403e-18
-1.39236e-18
-1.38036e-18
-1.39624e-18
-1.39139e-18
-1.40363e-18
-1.37911e-18
-1.40187e-18
-1.38732e-18
-1.39476e-18
-1.39543e-18
-1.40222e-18
-1.39587e-18
-1.40898e-18
-1.39882e-18
-1.3951e-18
-1.39778e-18
-1.39967e-18
-1.38204e-18
-1.38137e-18
-1.38306e-18
-1.37202e-18
-1.37274e-18
-1.36959e-18
-1.36335e-18
-1.36958e-18
-1.3667e-18
-1.36519e-18
-1.36593e-18
-1.37039e-18
-1.38159e-18
-1.37761e-18
-1.38278e-18
-1.38564e-18
-1.37511e-18
-1.39104e-18
-1.39092e-18
-1.39719e-18
-1.38633e-18
-1.40311e-18
-1.38972e-18
-1.40009e-18
-1.38845e-18
-1.39882e-18
-1.38931e-18
-1.39869e-18
-1.40035e-18
-1.39383e-18
-1.39426e-18
-1.39374e-18
-1.39031e-18
-1.38123e-18
-1.37987e-18
-1.3679e-18
-1.37504e-18
-1.35977e-18
-1.37053e-18
-1.37204e-18
-1.36306e-18
-1.36404e-18
-1.36622e-18
-1.36539e-18
-1.37534e-18
-1.37478e-18
-1.38169e-18
-1.37992e-18
-1.38387e-18
-1.39394e-18
-1.39351e-18
-1.39209e-18
-1.37906e-18
-1.40108e-18
-1.38572e-18
-1.39828e-18
-1.38707e-18
-1.40004e-18
-1.38356e-18
-1.39568e-18
-1.39884e-18
-1.39728e-18
-1.3892e-18
-1.3931e-18
-1.39028e-18
-1.38071e-18
-1.37569e-18
-1.36942e-18
-1.38041e-18
-1.36046e-18
-1.36449e-18
-1.3683e-18
-1.36228e-18
-1.36453e-18
-1.365e-18
-1.35808e-18
-1.36984e-18
-1.37494e-18
-1.38116e-18
-1.38421e-18
-1.38869e-18
-1.39403e-18
-1.39611e-18
-1.39953e-18
-1.38984e-18
-1.39131e-18
-1.39171e-18
-1.39779e-18
-1.3926e-18
-1.3996e-18
-1.39622e-18
-1.39333e-18
-1.39259e-18
-1.39604e-18
-1.39027e-18
-1.38615e-18
-1.394e-18
-1.37661e-18
-1.37667e-18
-1.3665e-18
-1.38082e-18
-1.36477e-18
-1.36699e-18
-1.37026e-18
-1.35933e-18
-1.36681e-18
-1.36594e-18
-1.36659e-18
-1.37326e-18
-1.37166e-18
-1.38085e-18
-1.38836e-18
-1.39338e-18
-1.39263e-18
-1.39693e-18
-1.39929e-18
-1.3861e-18
-1.39793e-18
-1.38926e-18
-1.3978e-18
-1.40233e-18
-1.3916e-18
-1.40378e-18
-1.38949e-18
-1.38785e-18
-1.392e-18
-1.38799e-18
-1.38193e-18
-1.39084e-18
-1.37323e-18
-1.3815e-18
-1.36722e-18
-1.37468e-18
-1.36463e-18
-1.36939e-18
-1.36808e-18
-1.35371e-18
-1.3629e-18
-1.37008e-18
-1.36634e-18
-1.37712e-18
-1.37443e-18
-1.38063e-18
-1.3843e-18
-1.39336e-18
-1.3893e-18
-1.39289e-18
-1.39817e-18
-1.38483e-18
-1.39758e-18
-1.38456e-18
-1.39163e-18
-1.38715e-18
-1.3937e-18
-1.39983e-18
-1.38195e-18
-1.37806e-18
-1.38201e-18
-1.37614e-18
-1.38022e-18
-1.37943e-18
-1.37812e-18
-1.38749e-18
-1.37004e-18
-1.3745e-18
-1.36367e-18
-1.36234e-18
-1.36339e-18
-1.36153e-18
-1.36079e-18
-1.36986e-18
-1.36527e-18
-1.3735e-18
-1.37666e-18
-1.38219e-18
-1.38164e-18
-1.38919e-18
-1.38724e-18
-1.3921e-18
-1.40131e-18
-1.38612e-18
-1.39229e-18
-1.38366e-18
-1.39566e-18
-1.38108e-18
-1.39261e-18
-1.39082e-18
-1.38951e-18
-1.38706e-18
-1.3854e-18
-1.38301e-18
-1.38197e-18
-1.38411e-18
-1.38075e-18
-1.38682e-18
-1.3685e-18
-1.36714e-18
-1.36703e-18
-1.3633e-18
-1.36533e-18
-1.36116e-18
-1.35981e-18
-1.36236e-18
-1.36513e-18
-1.37182e-18
-1.37391e-18
-1.38566e-18
-1.38018e-18
-1.39042e-18
-1.38966e-18
-1.3911e-18
-1.40554e-18
-1.38418e-18
-1.39689e-18
-1.39407e-18
-1.40088e-18
-1.39708e-18
-1.40002e-18
-1.39432e-18
-1.39223e-18
-1.39122e-18
-1.38879e-18
-1.39133e-18
-1.38203e-18
-1.3843e-18
-1.37976e-18
-1.38584e-18
-1.3677e-18
-1.37086e-18
-1.36264e-18
-1.3608e-18
-1.35968e-18
-1.35905e-18
-1.36182e-18
-1.35813e-18
-1.36637e-18
-1.37198e-18
-1.37228e-18
-1.37257e-18
-1.37636e-18
-1.39222e-18
-1.38879e-18
-1.39422e-18
-1.41106e-18
-1.38647e-18
-1.38848e-18
-1.38725e-18
-1.39278e-18
-1.39272e-18
-1.39709e-18
-1.39611e-18
-1.39026e-18
-1.3923e-18
-1.39191e-18
-1.3878e-18
-1.38618e-18
-1.38637e-18
-1.37675e-18
-1.38137e-18
-1.37359e-18
-1.37976e-18
-1.35646e-18
-1.36763e-18
-1.35877e-18
-1.35681e-18
-1.35788e-18
-1.35959e-18
-1.35992e-18
-1.37085e-18
-1.37223e-18
-1.3782e-18
-1.37823e-18
-1.3825e-18
-1.38752e-18
-1.39365e-18
-1.40861e-18
-1.38865e-18
-1.39083e-18
-1.38772e-18
-1.38951e-18
-1.39427e-18
-1.3839e-18
-1.39647e-18
-1.39399e-18
-1.39349e-18
-1.38614e-18
-1.38419e-18
-1.38709e-18
-1.39041e-18
-1.37925e-18
-1.38213e-18
-1.365e-18
-1.37161e-18
-1.35333e-18
-1.36765e-18
-1.35602e-18
-1.36213e-18
-1.35551e-18
-1.3565e-18
-1.36074e-18
-1.37018e-18
-1.37503e-18
-1.3779e-18
-1.37527e-18
-1.38823e-18
-1.39082e-18
-1.39266e-18
-1.39201e-18
-1.39346e-18
-1.3807e-18
-1.39199e-18
-1.39504e-18
-1.38327e-18
-1.39295e-18
-1.39165e-18
-1.38758e-18
-1.38617e-18
-1.38938e-18
-1.382e-18
-1.38753e-18
-1.37513e-18
-1.37181e-18
-1.36149e-18
-1.36619e-18
-1.36077e-18
-1.36435e-18
-1.35099e-18
-1.3604e-18
-1.35435e-18
-1.35934e-18
-1.3613e-18
-1.36974e-18
-1.38241e-18
-1.37785e-18
-1.37315e-18
-1.38531e-18
-1.38959e-18
-1.38943e-18
-1.38982e-18
-1.39226e-18
-1.39309e-18
-1.39051e-18
-1.38913e-18
-1.38753e-18
-1.40163e-18
-1.38806e-18
-1.38748e-18
-1.38451e-18
-1.392e-18
-1.38974e-18
-1.37814e-18
-1.3692e-18
-1.37229e-18
-1.35739e-18
-1.36126e-18
-1.35585e-18
-1.36038e-18
-1.35097e-18
-1.3579e-18
-1.3527e-18
-1.36673e-18
-1.36009e-18
-1.36912e-18
-1.37855e-18
-1.3793e-18
-1.37628e-18
-1.39023e-18
-1.39155e-18
-1.39532e-18
-1.37965e-18
-1.40537e-18
-1.38638e-18
-1.38753e-18
-1.39106e-18
-1.39554e-18
-1.38834e-18
-1.38602e-18
-1.38681e-18
-1.3863e-18
-1.38183e-18
-1.37896e-18
-1.37156e-18
-1.37351e-18
-1.35548e-18
-1.35972e-18
-1.34911e-18
-1.36143e-18
-1.35026e-18
-1.35742e-18
-1.35319e-18
-1.36611e-18
-1.35821e-18
-1.37142e-18
-1.37366e-18
-1.38237e-18
-1.38156e-18
-1.38537e-18
-1.38746e-18
-1.38674e-18
-1.37829e-18
-1.39249e-18
-1.38162e-18
-1.38018e-18
-1.38886e-18
-1.39139e-18
-1.38982e-18
-1.38166e-18
-1.38204e-18
-1.38514e-18
-1.37681e-18
-1.37563e-18
-1.36494e-18
-1.36978e-18
-1.357e-18
-1.36168e-18
-1.35017e-18
-1.36198e-18
-1.34594e-18
-1.35886e-18
-1.35151e-18
-1.3678e-18
-1.35983e-18
-1.37125e-18
-1.3729e-18
-1.38001e-18
-1.3736e-18
-1.38065e-18
-1.38179e-18
-1.38011e-18
-1.38858e-18
-1.38352e-18
-1.38616e-18
-1.38644e-18
-1.38833e-18
-1.38467e-18
-1.38316e-18
-1.37984e-18
-1.38285e-18
-1.37882e-18
-1.3786e-18
-1.38118e-18
-1.36207e-18
-1.36818e-18
-1.36063e-18
-1.36283e-18
-1.35172e-18
-1.36646e-18
-1.34764e-18
-1.35681e-18
-1.3532e-18
-1.37042e-18
-1.36066e-18
-1.3729e-18
-1.37336e-18
-1.37965e-18
-1.37802e-18
-1.38477e-18
-1.38019e-18
-1.38001e-18
-1.3843e-18
-1.38393e-18
-1.38653e-18
-1.39396e-18
-1.38811e-18
-1.38209e-18
-1.3835e-18
-1.37504e-18
-1.38669e-18
-1.36833e-18
-1.37467e-18
-1.38607e-18
-1.36252e-18
-1.36431e-18
-1.35548e-18
-1.36027e-18
-1.34949e-18
-1.36097e-18
-1.34825e-18
-1.35808e-18
-1.34986e-18
-1.36983e-18
-1.36063e-18
-1.37777e-18
-1.37359e-18
-1.38241e-18
-1.38207e-18
-1.38927e-18
-1.38226e-18
-1.3745e-18
-1.38415e-18
-1.3909e-18
-1.38943e-18
-1.39111e-18
-1.38388e-18
-1.38063e-18
-1.38148e-18
-1.37638e-18
-1.38743e-18
-1.37895e-18
-1.36928e-18
-1.3716e-18
-1.36615e-18
-1.35954e-18
-1.35539e-18
-1.36654e-18
-1.34923e-18
-1.36056e-18
-1.34941e-18
-1.35861e-18
-1.35381e-18
-1.36756e-18
-1.35962e-18
-1.37922e-18
-1.37335e-18
-1.38548e-18
-1.38164e-18
-1.38595e-18
-1.39047e-18
-1.38788e-18
-1.38278e-18
-1.39277e-18
-1.38434e-18
-1.39389e-18
-1.38091e-18
-1.37902e-18
-1.38367e-18
-1.37454e-18
-1.37943e-18
-1.38006e-18
-1.3757e-18
-1.37511e-18
-1.36167e-18
-1.36284e-18
-1.35475e-18
-1.36289e-18
-1.34663e-18
-1.35959e-18
-1.34711e-18
-1.36098e-18
-1.35705e-18
-1.37017e-18
-1.35902e-18
-1.37611e-18
-1.37247e-18
-1.37819e-18
-1.3823e-18
-1.38269e-18
-1.39421e-18
-1.37855e-18
-1.38494e-18
-1.38358e-18
-1.38131e-18
-1.39858e-18
-1.38678e-18
-1.38246e-18
-1.38234e-18
-1.37495e-18
-1.37694e-18
-1.37994e-18
-1.38056e-18
-1.38564e-18
-1.36211e-18
-1.36242e-18
-1.35225e-18
-1.3641e-18
-1.34309e-18
-1.35416e-18
-1.34261e-18
-1.36258e-18
-1.35563e-18
-1.37357e-18
-1.36282e-18
-1.3751e-18
-1.36995e-18
-1.37643e-18
-1.38309e-18
-1.37911e-18
-1.39246e-18
-1.3769e-18
-1.37836e-18
-1.38853e-18
-1.39306e-18
-1.39896e-18
-1.38463e-18
-1.38446e-18
-1.37871e-18
-1.36989e-18
-1.37447e-18
-1.37729e-18
-1.37607e-18
-1.38257e-18
-1.36049e-18
-1.36625e-18
-1.35826e-18
-1.36504e-18
-1.34775e-18
-1.36007e-18
-1.34109e-18
-1.36372e-18
-1.35475e-18
-1.36598e-18
-1.3592e-18
-1.376e-18
-1.37104e-18
-1.3813e-18
-1.38422e-18
-1.38162e-18
-1.39993e-18
-1.38262e-18
-1.38788e-18
-1.39476e-18
-1.39457e-18
-1.40246e-18
-1.38968e-18
-1.38662e-18
-1.37651e-18
-1.37344e-18
-1.3721e-18
-1.37482e-18
-1.36756e-18
-1.37268e-18
-1.36317e-18
-1.36787e-18
-1.36243e-18
-1.36542e-18
-1.34753e-18
-1.36039e-18
-1.34477e-18
-1.36064e-18
-1.35453e-18
-1.36037e-18
-1.36399e-18
-1.37889e-18
-1.37034e-18
-1.38374e-18
-1.38551e-18
-1.38214e-18
-1.39567e-18
-1.38905e-18
-1.38987e-18
-1.39247e-18
-1.39712e-18
-1.39404e-18
-1.38815e-18
-1.3827e-18
-1.37912e-18
-1.37817e-18
-1.36844e-18
-1.37015e-18
-1.37021e-18
-1.37222e-18
-1.36155e-18
-1.37229e-18
-1.36119e-18
-1.36642e-18
-1.34766e-18
-1.35645e-18
-1.34489e-18
-1.35572e-18
-1.35651e-18
-1.36389e-18
-1.36196e-18
-1.37732e-18
-1.37411e-18
-1.38651e-18
-1.38824e-18
-1.37958e-18
-1.39779e-18
-1.38834e-18
-1.38455e-18
-1.39015e-18
-1.39494e-18
-1.39441e-18
-1.3854e-18
-1.37879e-18
-1.37048e-18
-1.37812e-18
-1.36578e-18
-1.37181e-18
-1.37026e-18
-1.37588e-18
-1.36185e-18
-1.36976e-18
-1.362e-18
-1.36433e-18
-1.34572e-18
-1.35442e-18
-1.34308e-18
-1.35495e-18
-1.35826e-18
-1.36383e-18
-1.36576e-18
-1.37759e-18
-1.36979e-18
-1.3845e-18
-1.38745e-18
-1.38385e-18
-1.39741e-18
-1.38333e-18
-1.38509e-18
-1.38069e-18
-1.38807e-18
-1.39376e-18
-1.38388e-18
-1.36893e-18
-1.37002e-18
-1.37735e-18
-1.37123e-18
-1.36998e-18
-1.3689e-18
-1.3714e-18
-1.35785e-18
-1.36522e-18
-1.35881e-18
-1.3641e-18
-1.3418e-18
-1.3542e-18
-1.34684e-18
-1.35442e-18
-1.36117e-18
-1.36139e-18
-1.36299e-18
-1.3834e-18
-1.37361e-18
-1.38163e-18
-1.38563e-18
-1.38758e-18
-1.39319e-18
-1.38317e-18
-1.37989e-18
-1.38407e-18
-1.39675e-18
-1.39235e-18
-1.37418e-18
-1.37194e-18
-1.3694e-18
-1.37212e-18
-1.36804e-18
-1.37061e-18
-1.36746e-18
-1.37226e-18
-1.36306e-18
-1.37451e-18
-1.35777e-18
-1.36826e-18
-1.34676e-18
-1.35208e-18
-1.34401e-18
-1.35269e-18
-1.35808e-18
-1.36262e-18
-1.36466e-18
-1.38874e-18
-1.37811e-18
-1.37768e-18
-1.38513e-18
-1.38135e-18
-1.38866e-18
-1.37518e-18
-1.39317e-18
-1.3814e-18
-1.39283e-18
-1.3972e-18
-1.3748e-18
-1.37608e-18
-1.36871e-18
-1.36951e-18
-1.36351e-18
-1.37492e-18
-1.37421e-18
-1.36867e-18
-1.36645e-18
-1.37239e-18
-1.35846e-18
-1.35875e-18
-1.34733e-18
-1.35877e-18
-1.3444e-18
-1.35349e-18
-1.35384e-18
-1.36147e-18
-1.36572e-18
-1.38525e-18
-1.37503e-18
-1.37843e-18
-1.38978e-18
-1.3846e-18
-1.38987e-18
-1.36471e-18
-1.38626e-18
-1.37714e-18
-1.39025e-18
-1.39217e-18
-1.3725e-18
-1.39199e-18
-1.36904e-18
-1.37063e-18
-1.35746e-18
-1.37239e-18
-1.3798e-18
-1.36978e-18
-1.36251e-18
-1.36962e-18
-1.35996e-18
-1.35204e-18
-1.34609e-18
-1.36126e-18
-1.34656e-18
-1.35449e-18
-1.35781e-18
-1.364e-18
-1.3616e-18
-1.38138e-18
-1.37283e-18
-1.38136e-18
-1.38884e-18
-1.38516e-18
-1.38826e-18
-1.37489e-18
-1.38687e-18
-1.37925e-18
-1.38794e-18
-1.39446e-18
-1.38872e-18
-1.39492e-18
-1.36654e-18
-1.38128e-18
-1.35663e-18
-1.37238e-18
-1.36719e-18
-1.36848e-18
-1.36294e-18
-1.36611e-18
-1.35789e-18
-1.36056e-18
-1.34436e-18
-1.35389e-18
-1.34813e-18
-1.35793e-18
-1.35695e-18
-1.36553e-18
-1.36287e-18
-1.37827e-18
-1.37848e-18
-1.38194e-18
-1.38703e-18
-1.38321e-18
-1.39321e-18
-1.37574e-18
-1.3879e-18
-1.38212e-18
-1.38456e-18
-1.40817e-18
-1.37975e-18
-1.38958e-18
-1.35859e-18
-1.37563e-18
-1.35604e-18
-1.38312e-18
-1.36604e-18
-1.37306e-18
-1.36202e-18
-1.36061e-18
-1.35213e-18
-1.36249e-18
-1.34549e-18
-1.35159e-18
-1.35045e-18
-1.35462e-18
-1.35472e-18
-1.3673e-18
-1.36369e-18
-1.37674e-18
-1.37703e-18
-1.38131e-18
-1.38893e-18
-1.3856e-18
-1.39776e-18
-1.37419e-18
-1.38593e-18
-1.38589e-18
-1.3852e-18
-1.40397e-18
-1.3757e-18
-1.38407e-18
-1.35196e-18
-1.37529e-18
-1.35891e-18
-1.37781e-18
-1.36549e-18
-1.37798e-18
-1.35864e-18
-1.36101e-18
-1.35508e-18
-1.35931e-18
-1.34949e-18
-1.35517e-18
-1.34919e-18
-1.35145e-18
-1.35564e-18
-1.3637e-18
-1.36297e-18
-1.37667e-18
-1.37551e-18
-1.38177e-18
-1.38537e-18
-1.38533e-18
-1.39513e-18
-1.37994e-18
-1.3788e-18
-1.38526e-18
-1.38222e-18
-1.39643e-18
-1.37096e-18
-1.38601e-18
-1.36299e-18
-1.37138e-18
-1.35548e-18
-1.38098e-18
-1.3622e-18
-1.37017e-18
-1.35929e-18
-1.36715e-18
-1.36113e-18
-1.35984e-18
-1.34636e-18
-1.35108e-18
-1.35001e-18
-1.35163e-18
-1.35759e-18
-1.35921e-18
-1.36307e-18
-1.37807e-18
-1.37384e-18
-1.38342e-18
-1.38307e-18
-1.38936e-18
-1.39442e-18
-1.37943e-18
-1.38227e-18
-1.38801e-18
-1.38434e-18
-1.39406e-18
-1.36979e-18
-1.38971e-18
-1.37001e-18
-1.36697e-18
-1.34582e-18
-1.37408e-18
-1.3606e-18
-1.37271e-18
-1.37271e-18
-1.36249e-18
-1.36037e-18
-1.36172e-18
-1.34176e-18
-1.3527e-18
-1.35408e-18
-1.35393e-18
-1.35517e-18
-1.35806e-18
-1.36405e-18
-1.38098e-18
-1.37747e-18
-1.38194e-18
-1.37957e-18
-1.38782e-18
-1.39437e-18
-1.37904e-18
-1.38248e-18
-1.38666e-18
-1.38724e-18
-1.39554e-18
-1.37526e-18
-1.38026e-18
-1.3702e-18
-1.3694e-18
-1.35358e-18
-1.36702e-18
-1.36389e-18
-1.37545e-18
-1.36991e-18
-1.36532e-18
-1.3552e-18
-1.36182e-18
-1.33985e-18
-1.36319e-18
-1.35157e-18
-1.35177e-18
-1.35274e-18
-1.36123e-18
-1.36479e-18
-1.381e-18
-1.3754e-18
-1.38172e-18
-1.38137e-18
-1.38527e-18
-1.39173e-18
-1.38643e-18
-1.38055e-18
-1.40583e-18
-1.37604e-18
-1.38591e-18
-1.37652e-18
-1.37733e-18
-1.36282e-18
-1.36356e-18
-1.36259e-18
-1.37847e-18
-1.36819e-18
-1.35716e-18
-1.34804e-18
-1.36229e-18
-1.35879e-18
-1.37714e-18
-1.37205e-18
-1.37842e-18
-1.38091e-18
-1.38378e-18
-1.39518e-18
-1.49474e-18
-1.48892e-18
-1.45598e-18
-1.46917e-18
-1.64863e-18
-1.42051e-18
-1.49153e-18
-1.64751e-18
-1.28883e-18
-1.60912e-18
-1.32492e-18
-1.45654e-18
-1.36816e-18
-1.54031e-18
-1.27546e-18
-1.27995e-18
-1.47965e-18
-1.65922e-18
-1.43708e-18
-1.41573e-18
-1.56995e-18
-1.38822e-18
-1.30405e-18
-1.40383e-18
-1.14984e-18
-1.37873e-18
-1.22552e-18
-1.50612e-18
-1.4046e-18
-1.41096e-18
-1.66904e-18
-1.52864e-18
-1.55919e-18
-1.46359e-18
-1.53291e-18
-1.6676e-18
-1.8923e-18
-1.41052e-18
-1.34403e-18
-1.58272e-18
-1.83506e-18
-1.25698e-18
-1.55477e-18
-1.80201e-18
-1.31079e-18
-1.52343e-18
-1.3817e-18
-1.16608e-18
-1.44025e-18
-1.57344e-18
-1.38395e-18
-1.16991e-18
-1.16748e-18
-1.46256e-18
-1.48477e-18
-1.26767e-18
-1.03918e-18
-1.12653e-18
-1.81634e-18
-1.50884e-18
-1.28486e-18
-1.56843e-18
-1.74581e-18
-1.48271e-18
-1.60575e-18
-1.59578e-18
-1.56713e-18
-1.30285e-18
-1.25412e-18
-1.2605e-18
-1.49559e-18
-1.38109e-18
-1.39234e-18
-1.33657e-18
-1.37685e-18
-1.42583e-18
-1.30418e-18
-1.40845e-18
-1.60032e-18
-1.41718e-18
-1.18864e-18
-1.21203e-18
-1.21647e-18
-1.35541e-18
-1.38951e-18
-1.26702e-18
-1.67658e-18
-1.26907e-18
-1.39817e-18
-1.34208e-18
-1.40874e-18
-1.26553e-18
-1.45555e-18
-1.71685e-18
-1.50666e-18
-1.39497e-18
-1.70654e-18
-1.79691e-18
-1.33116e-18
-1.36318e-18
-1.6004e-18
-1.45152e-18
-1.5582e-18
-1.54456e-18
-1.48911e-18
-1.4239e-18
-1.51471e-18
-2.0039e-18
-1.48738e-18
-1.40875e-18
-1.33509e-18
-1.05006e-18
-1.61759e-18
-1.48322e-18
-1.24912e-18
-1.32918e-18
-1.41318e-18
-1.55506e-18
-1.24718e-18
-1.43272e-18
-1.55424e-18
-1.50728e-18
-1.38585e-18
-1.39297e-18
-1.41029e-18
-1.51219e-18
-1.3958e-18
-1.37582e-18
-1.42709e-18
-1.56948e-18
-1.59809e-18
-1.4769e-18
-1.80577e-18
-1.5462e-18
-1.45164e-18
-1.31806e-18
-1.54202e-18
-1.7256e-18
-1.39585e-18
-1.40264e-18
-1.38096e-18
-1.31256e-18
-1.55539e-18
-1.51484e-18
-1.92782e-18
-1.49508e-18
-1.59521e-18
-1.71089e-18
-1.59069e-18
-1.45812e-18
-1.2155e-18
-1.32965e-18
-1.5974e-18
-1.43358e-18
-1.35794e-18
-1.26537e-18
-1.40183e-18
-1.32947e-18
-1.39992e-18
-1.51946e-18
-1.63617e-18
-1.57793e-18
-1.43073e-18
-1.42581e-18
-1.44129e-18
-1.43964e-18
-1.40639e-18
-1.41757e-18
-1.41104e-18
-1.51104e-18
-1.50586e-18
-1.50578e-18
-1.45664e-18
-1.59695e-18
-1.4817e-18
-1.33587e-18
-1.41032e-18
-1.46793e-18
-1.63024e-18
-1.31874e-18
-1.42925e-18
-1.1907e-18
-1.42306e-18
-1.8122e-18
-1.56331e-18
-1.88289e-18
-1.49115e-18
-1.60536e-18
-1.72691e-18
-1.49932e-18
-1.57524e-18
-1.25079e-18
-1.40917e-18
-1.35742e-18
-1.39975e-18
-1.4284e-18
-1.28564e-18
-1.43739e-18
-1.3917e-18
-1.48377e-18
-1.45437e-18
-1.48422e-18
-1.46957e-18
-1.45123e-18
-1.44105e-18
-1.41941e-18
-1.40256e-18
-1.40461e-18
-1.4209e-18
-1.43377e-18
-1.46096e-18
-1.48561e-18
-1.50544e-18
-1.47552e-18
-1.41571e-18
-1.59348e-18
-1.47491e-18
-1.35549e-18
-1.46465e-18
-1.36674e-18
-1.57336e-18
-1.43487e-18
-1.49207e-18
-1.74391e-18
-1.4909e-18
-1.6085e-18
-1.70777e-18
-1.51685e-18
-1.38917e-18
-1.65678e-18
-1.15255e-18
-1.42617e-18
-1.50893e-18
-1.38522e-18
-1.44479e-18
-1.39533e-18
-1.33829e-18
-1.47177e-18
-1.42105e-18
-1.47564e-18
-1.36844e-18
-1.43704e-18
-1.42728e-18
-1.39358e-18
-1.42027e-18
-1.42216e-18
-1.43769e-18
-1.40775e-18
-1.39566e-18
-1.40676e-18
-1.41966e-18
-1.40193e-18
-1.50512e-18
-1.46629e-18
-1.48189e-18
-1.46021e-18
-1.46889e-18
-1.45154e-18
-1.48023e-18