/*--------------------------------*- C++ -*----------------------------------*\
  =========                 |
  \\      /  F ield         | OpenFOAM: The Open Source CFD Toolbox
   \\    /   O peration     | Website:  https://openfoam.org
    \\  /    A nd           | Version:  7
     \\/     M anipulation  |
\*---------------------------------------------------------------------------*/
FoamFile
{
    version     2.0;
    format      ascii;
    class       volScalarField;
    location    "36000";
    object      strainRate;
}
// * * * * * * * * * * * * * * * * * * * * * * * * * * * * * * * * * * * * * //

dimensions      [0 0 -1 0 0 0 0];

internalField   nonuniform List<scalar> 
4783
(
4.21678e-05
4.07673e-05
4.01698e-05
3.92075e-05
3.80364e-05
3.67469e-05
3.53796e-05
3.3958e-05
3.2498e-05
3.10119e-05
2.95103e-05
2.8003e-05
2.64996e-05
2.50104e-05
2.35464e-05
2.21203e-05
2.07469e-05
1.94434e-05
1.82299e-05
1.71296e-05
1.61889e-05
1.54213e-05
4.91289e-05
4.52916e-05
4.47802e-05
4.38586e-05
4.26489e-05
4.12633e-05
3.97697e-05
3.82088e-05
3.6606e-05
3.49788e-05
3.33405e-05
3.17027e-05
3.00762e-05
2.8472e-05
2.69024e-05
2.53808e-05
2.39229e-05
2.25467e-05
2.12726e-05
2.01233e-05
1.91381e-05
1.83508e-05
5.13825e-05
4.68546e-05
4.6187e-05
4.54026e-05
4.4408e-05
4.32292e-05
4.19113e-05
4.04939e-05
3.90075e-05
3.74753e-05
3.59154e-05
3.43436e-05
3.27739e-05
3.12205e-05
2.96977e-05
2.82212e-05
2.68082e-05
2.54774e-05
2.42496e-05
2.31464e-05
2.22026e-05
2.14473e-05
5.39292e-05
4.92422e-05
4.8302e-05
4.74315e-05
4.64801e-05
4.54023e-05
4.42e-05
4.28936e-05
4.15073e-05
4.00631e-05
3.85809e-05
3.70782e-05
3.55714e-05
3.40765e-05
3.26097e-05
3.11879e-05
2.98292e-05
2.85526e-05
2.73784e-05
2.63271e-05
2.54294e-05
2.47119e-05
5.67099e-05
5.20204e-05
5.08829e-05
4.98781e-05
4.888e-05
4.78211e-05
4.66748e-05
4.54406e-05
4.41306e-05
4.27615e-05
4.13507e-05
3.99156e-05
3.84733e-05
3.70405e-05
3.56343e-05
3.42721e-05
3.29722e-05
3.17537e-05
3.0636e-05
2.96382e-05
2.87873e-05
2.81079e-05
5.96654e-05
5.50271e-05
5.37576e-05
5.26344e-05
5.15628e-05
5.04792e-05
4.93464e-05
4.81506e-05
4.68927e-05
4.55823e-05
4.4233e-05
4.28601e-05
4.14796e-05
4.01082e-05
3.87629e-05
3.74612e-05
3.6221e-05
3.50608e-05
3.3999e-05
3.30535e-05
3.22479e-05
3.16049e-05
6.2741e-05
5.8178e-05
5.68201e-05
5.56059e-05
5.44638e-05
5.33404e-05
5.21984e-05
5.10178e-05
4.97925e-05
4.85258e-05
4.72271e-05
4.59086e-05
4.45849e-05
4.32715e-05
4.19846e-05
4.07413e-05
3.95588e-05
3.84547e-05
3.74463e-05
3.655e-05
3.57868e-05
3.51775e-05
6.5891e-05
6.14179e-05
6.00014e-05
5.87213e-05
5.75216e-05
5.63586e-05
5.51988e-05
5.40209e-05
5.28151e-05
5.15805e-05
5.03225e-05
4.90508e-05
4.77776e-05
4.65171e-05
4.52844e-05
4.40956e-05
4.29671e-05
4.19155e-05
4.09567e-05
4.01057e-05
3.93812e-05
3.88023e-05
6.90791e-05
6.47063e-05
6.3253e-05
6.19277e-05
6.0685e-05
5.94893e-05
5.83116e-05
5.71315e-05
5.59379e-05
5.47273e-05
5.35026e-05
5.22707e-05
5.1042e-05
4.98289e-05
4.86452e-05
4.7506e-05
4.64268e-05
4.5423e-05
4.45093e-05
4.36993e-05
4.30093e-05
4.24569e-05
7.2277e-05
6.80124e-05
6.6539e-05
6.51851e-05
6.39133e-05
6.26939e-05
6.15021e-05
6.03196e-05
5.91351e-05
5.7944e-05
5.67471e-05
5.55495e-05
5.43598e-05
5.31886e-05
5.20486e-05
5.09537e-05
4.99184e-05
4.89573e-05
4.8084e-05
4.73107e-05
4.66506e-05
4.61197e-05
7.54621e-05
7.13119e-05
6.98314e-05
6.84626e-05
6.71736e-05
6.59397e-05
6.47396e-05
6.3557e-05
6.23814e-05
6.12075e-05
6.00349e-05
5.88674e-05
5.77119e-05
5.65777e-05
5.5476e-05
5.44197e-05
5.34228e-05
5.24991e-05
5.16612e-05
5.09204e-05
5.0286e-05
4.97692e-05
7.86168e-05
7.45854e-05
7.31086e-05
7.17358e-05
7.044e-05
6.92001e-05
6.79977e-05
6.68187e-05
6.56531e-05
6.44956e-05
6.33452e-05
6.22045e-05
6.10793e-05
5.99776e-05
5.89091e-05
5.78855e-05
5.6921e-05
5.6029e-05
5.52208e-05
5.45098e-05
5.38991e-05
5.33825e-05
8.17269e-05
7.78176e-05
7.63529e-05
7.49853e-05
7.36913e-05
7.24529e-05
7.12541e-05
7.00825e-05
6.89289e-05
6.7788e-05
6.66582e-05
6.55416e-05
6.44435e-05
6.33701e-05
6.23304e-05
6.13331e-05
6.03947e-05
5.9529e-05
5.87419e-05
5.80612e-05
5.74164e-05
5.68784e-05
8.47809e-05
8.09959e-05
7.95503e-05
7.81952e-05
7.69104e-05
7.56799e-05
7.44899e-05
7.33293e-05
7.21898e-05
7.1066e-05
6.99557e-05
6.88607e-05
6.77866e-05
6.67377e-05
6.57237e-05
6.47448e-05
6.38254e-05
6.29835e-05
6.22025e-05
6.14561e-05
6.07602e-05
6.01754e-05
8.77695e-05
8.411e-05
8.26892e-05
8.13528e-05
8.00831e-05
7.88659e-05
7.76891e-05
7.65426e-05
7.5419e-05
7.43129e-05
7.32209e-05
7.2144e-05
7.10916e-05
7.00619e-05
6.9075e-05
6.81033e-05
6.7195e-05
6.632e-05
6.54924e-05
6.46824e-05
9.06849e-05
8.71515e-05
8.57601e-05
8.44474e-05
8.31977e-05
8.19981e-05
8.08379e-05
7.97079e-05
7.86014e-05
7.75132e-05
7.64384e-05
7.53736e-05
7.43432e-05
7.3324e-05
7.2309e-05
7.13342e-05
7.03944e-05
6.94826e-05
6.86093e-05
9.35206e-05
9.01133e-05
8.87551e-05
8.74702e-05
8.62442e-05
8.50658e-05
8.39246e-05
8.28122e-05
8.17229e-05
8.06525e-05
7.95958e-05
7.85327e-05
7.74624e-05
7.64119e-05
7.53642e-05
7.43667e-05
7.34127e-05
9.62714e-05
9.29896e-05
9.16676e-05
9.04137e-05
8.92145e-05
8.80595e-05
8.6939e-05
8.58439e-05
8.47698e-05
8.37195e-05
8.26136e-05
8.15103e-05
8.03958e-05
7.9306e-05
9.89327e-05
9.57753e-05
9.4492e-05
9.32716e-05
9.21012e-05
9.0971e-05
8.98721e-05
8.87923e-05
8.77332e-05
8.66015e-05
8.54438e-05
8.4293e-05
0.0001015
9.84661e-05
9.72235e-05
9.60386e-05
9.4898e-05
9.37926e-05
9.2716e-05
9.16529e-05
9.05047e-05
8.93041e-05
0.000103971
0.000101058
9.98579e-05
9.87103e-05
9.75997e-05
9.65163e-05
9.54686e-05
9.43181e-05
9.30991e-05
0.000106343
0.000103548
0.000102391
0.000101283
0.000100202
9.91376e-05
9.80221e-05
9.68049e-05
0.000108612
0.000105933
0.00010482
0.000103753
0.000102704
0.00010163
0.000100406
0.000110777
0.000108211
0.000107141
0.000106116
0.000105112
0.000103946
0.000112837
0.000110378
0.000109349
0.00010837
0.000107317
0.000106129
0.000114791
0.000112435
0.000111441
0.000110492
0.00010935
0.00011664
0.000114381
0.000113418
0.000112432
0.000118383
0.000116219
0.000115258
0.000114249
0.000120024
0.000117952
0.000116992
0.000121562
0.000119587
0.000118657
0.000122996
0.00012113
0.000120247
0.000124325
0.000122574
0.000121754
0.000125545
0.000123913
0.00012316
0.000126651
0.000125145
0.00012446
0.000127638
0.000126268
0.000125651
0.0001285
0.000127279
0.000126732
0.000129228
0.00012818
0.000127703
0.000129858
0.000128971
0.000128561
0.000130719
0.000129666
0.000129307
0.000132076
0.000130547
0.00013
0.000133373
0.000131729
0.000130762
0.000134149
0.000132844
0.000131832
4.16595e-05
4.87721e-05
5.10286e-05
5.36002e-05
5.64039e-05
5.93804e-05
6.24753e-05
6.5643e-05
6.88475e-05
7.20605e-05
7.52598e-05
7.8428e-05
8.1551e-05
8.46174e-05
8.76181e-05
9.05456e-05
9.33935e-05
9.61568e-05
9.8831e-05
0.000101412
0.000103898
0.000106286
0.000108573
0.000110758
0.00011284
0.000114818
0.000116692
0.000118461
0.000120125
0.000121682
0.000123131
0.000124469
0.000125694
0.0001268
0.000127782
0.000128632
0.000129341
0.000129977
0.000130875
0.000132213
0.000133414
0.00013406
4.09029e-05
4.53836e-05
4.69413e-05
4.93182e-05
5.20868e-05
5.50852e-05
5.82289e-05
6.14627e-05
6.47461e-05
6.80482e-05
7.13447e-05
7.46164e-05
7.78476e-05
8.10261e-05
8.41414e-05
8.71853e-05
9.01509e-05
9.30326e-05
9.58254e-05
9.85256e-05
0.00010113
0.000103635
0.00010604
0.000108341
0.000110539
0.000112631
0.000114618
0.000116497
0.000118269
0.000119933
0.000121487
0.00012293
0.00012426
0.000125476
0.000126576
0.000127558
0.00012842
0.000129168
0.00012986
0.000130738
0.000131746
0.000132507
4.03121e-05
4.4904e-05
4.63099e-05
4.84149e-05
5.09834e-05
5.38461e-05
5.68979e-05
6.00699e-05
6.33138e-05
6.65936e-05
6.98814e-05
7.31553e-05
7.63979e-05
7.95951e-05
8.27356e-05
8.58099e-05
8.88104e-05
9.17307e-05
9.45656e-05
9.73108e-05
9.99625e-05
0.000102518
0.000104974
0.00010733
0.000109583
0.000111732
0.000113776
0.000115714
0.000117545
0.000119268
0.000120883
0.000122387
0.00012378
0.00012506
0.000126225
0.000127274
0.000128203
0.000129009
0.00012969
0.000130378
0.000131093
0.000131678
3.93622e-05
4.40045e-05
4.55517e-05
4.75722e-05
5.00057e-05
5.27478e-05
5.57061e-05
5.88097e-05
6.2006e-05
6.52551e-05
6.85261e-05
7.17947e-05
7.50415e-05
7.82508e-05
8.14099e-05
8.45085e-05
8.75381e-05
9.04916e-05
9.33633e-05
9.61482e-05
9.88425e-05
0.000101443
0.000103946
0.00010635
0.000108654
0.000110854
0.000112951
0.000114943
0.000116828
0.000118606
0.000120276
0.000121836
0.000123286
0.000124623
0.000125846
0.000126952
0.000127938
0.000128801
0.000129535
0.000130163
0.000130649
0.000131015
3.82091e-05
4.28156e-05
4.45787e-05
4.66432e-05
4.90295e-05
5.16968e-05
5.45825e-05
5.76263e-05
6.07775e-05
6.39955e-05
6.72476e-05
7.05079e-05
7.37554e-05
7.6973e-05
8.0147e-05
8.3266e-05
8.63207e-05
8.93035e-05
9.22079e-05
9.50286e-05
9.77613e-05
0.000100402
0.000102948
0.000105397
0.000107746
0.000109994
0.000112139
0.00011418
0.000116115
0.000117943
0.000119664
0.000121275
0.000122776
0.000124165
0.00012544
0.000126598
0.000127636
0.000128551
0.000129339
0.000129995
0.000130397
0.000130574
3.69371e-05
4.14484e-05
4.34174e-05
4.55825e-05
4.79872e-05
5.06287e-05
5.34732e-05
5.64757e-05
5.95925e-05
6.2785e-05
6.6021e-05
6.92738e-05
7.25215e-05
7.57463e-05
7.89333e-05
8.20706e-05
8.5148e-05
8.81572e-05
9.10915e-05
9.3945e-05
9.6713e-05
9.93914e-05
0.000101977
0.000104467
0.000106858
0.00010915
0.000111339
0.000113425
0.000115406
0.000117281
0.000119048
0.000120706
0.000122254
0.000123689
0.00012501
0.000126214
0.000127298
0.000128257
0.000129087
0.000129782
0.000130211
0.000130375
3.55858e-05
3.9971e-05
4.21136e-05
4.43932e-05
4.6853e-05
4.95072e-05
5.23412e-05
5.53246e-05
5.84219e-05
6.1599e-05
6.48252e-05
6.80744e-05
7.13247e-05
7.45575e-05
7.77577e-05
8.09125e-05
8.40114e-05
8.70457e-05
9.00079e-05
9.2892e-05
9.56929e-05
9.84062e-05
0.000101028
0.000103556
0.000105987
0.000108319
0.00011055
0.000112678
0.000114701
0.000116619
0.00011843
0.000120132
0.000121723
0.000123202
0.000124566
0.000125812
0.000126937
0.000127937
0.000128805
0.000129537
0.000130001
0.000130198
3.4178e-05
3.84237e-05
4.07072e-05
4.30962e-05
4.56271e-05
4.83186e-05
5.11669e-05
5.4152e-05
5.7246e-05
6.04195e-05
6.36446e-05
6.68963e-05
7.01531e-05
7.33966e-05
7.66114e-05
7.97844e-05
8.29047e-05
8.59633e-05
8.89525e-05
9.18658e-05
9.46978e-05
9.7444e-05
0.000100101
0.000102664
0.000105132
0.000107502
0.000109772
0.000111939
0.000114003
0.000115961
0.000117813
0.000119556
0.000121189
0.000122709
0.000124114
0.000125402
0.000126567
0.000127607
0.000128515
0.000129285
0.000129788
0.000130023
3.27293e-05
3.68317e-05
3.92287e-05
4.17158e-05
4.43218e-05
4.70644e-05
4.99445e-05
5.29483e-05
5.60537e-05
5.92356e-05
6.24689e-05
6.57301e-05
6.89987e-05
7.22565e-05
7.54883e-05
7.8681e-05
8.18235e-05
8.49065e-05
8.79222e-05
9.08638e-05
9.37259e-05
9.65036e-05
9.91929e-05
0.00010179
0.000104293
0.000106699
0.000109005
0.00011121
0.000113311
0.000115308
0.000117199
0.000118981
0.000120654
0.000122214
0.00012366
0.000124988
0.000126195
0.000127276
0.000128224
0.000129035
0.000129577
0.00012985
3.12515e-05
3.52122e-05
3.7701e-05
4.0274e-05
4.29536e-05
4.57542e-05
4.86774e-05
5.17127e-05
5.48419e-05
5.8043e-05
6.12933e-05
6.45712e-05
6.78571e-05
7.11334e-05
7.43853e-05
7.75997e-05
8.07656e-05
8.38736e-05
8.69157e-05
8.98853e-05
9.27765e-05
9.55846e-05
9.83053e-05
0.000100935
0.000103471
0.000105911
0.000108251
0.000110491
0.000112629
0.000114662
0.000116589
0.000118409
0.00012012
0.00012172
0.000123206
0.000124575
0.000125824
0.000126948
0.000127941
0.000128797
0.000129384
0.000129699
2.97545e-05
3.35778e-05
3.61419e-05
3.87903e-05
4.15401e-05
4.44014e-05
4.73748e-05
5.04509e-05
5.36134e-05
5.68427e-05
6.0118e-05
6.34191e-05
6.67276e-05
7.00266e-05
7.33016e-05
7.65399e-05
7.97307e-05
8.28645e-05
8.59335e-05
8.89308e-05
9.18507e-05
9.46882e-05
9.74392e-05
0.0001001
0.000102668
0.000105139
0.000107512
0.000109786
0.000111957
0.000114024
0.000115986
0.000117841
0.000119588
0.000121224
0.000122748
0.000124157
0.000125448
0.000126617
0.000127661
0.000128574
0.000129225
0.000129596
2.82475e-05
3.19395e-05
3.45663e-05
3.72819e-05
4.00982e-05
4.30211e-05
4.6049e-05
4.91721e-05
5.23752e-05
5.56399e-05
5.89467e-05
6.22768e-05
6.56125e-05
6.8938e-05
7.22391e-05
7.55035e-05
7.87205e-05
8.18811e-05
8.49772e-05
8.80022e-05
9.09503e-05
9.38165e-05
9.65966e-05
9.92871e-05
0.000101885
0.000104387
0.000106791
0.000109095
0.000111298
0.000113397
0.000115391
0.000117279
0.000119059
0.000120728
0.000122286
0.000123729
0.000125054
0.000126258
0.000127336
0.000128282
0.000129095
0.000129617
0.000129873
2.67392e-05
3.03071e-05
3.29878e-05
3.57645e-05
3.86443e-05
4.16289e-05
4.47139e-05
4.78885e-05
5.11374e-05
5.44428e-05
5.77863e-05
6.11499e-05
6.45169e-05
6.7872e-05
7.12016e-05
7.44939e-05
7.77385e-05
8.09265e-05
8.405e-05
8.71026e-05
9.00784e-05
9.29725e-05
9.57808e-05
9.84997e-05
0.000101126
0.000103657
0.00010609
0.000108424
0.000110656
0.000112785
0.000114809
0.000116727
0.000118537
0.000120238
0.000121827
0.000123303
0.000124661
0.0001259
0.000127013
0.000127997
0.000128845
0.000129554
0.000129967
0.00013013
2.52385e-05
2.86907e-05
3.14193e-05
3.42531e-05
3.71945e-05
4.02408e-05
4.33847e-05
4.66137e-05
4.99119e-05
5.3262e-05
5.66459e-05
6.00465e-05
6.34476e-05
6.68348e-05
7.01948e-05
7.35164e-05
7.67895e-05
8.00052e-05
8.31563e-05
8.6236e-05
8.92389e-05
9.21602e-05
9.49956e-05
9.77415e-05
0.000100395
0.000102953
0.000105414
0.000107775
0.000110035
0.000112192
0.000114244
0.000116191
0.00011803
0.00011976
0.00012138
0.000122887
0.00012428
0.000125556
0.000126711
0.000127742
0.000128646
0.000129419
0.000129928
0.000130161
2.3755e-05
2.71008e-05
2.98741e-05
3.27628e-05
3.57649e-05
3.8873e-05
4.20768e-05
4.5362e-05
4.8712e-05
5.21092e-05
5.55361e-05
5.89759e-05
6.24132e-05
6.5834e-05
6.92257e-05
7.25773e-05
7.58791e-05
7.91228e-05
8.23011e-05
8.54075e-05
8.84368e-05
9.1384e-05
9.42453e-05
9.7017e-05
9.96961e-05
0.00010228
0.000104766
0.000107153
0.000109439
0.000111622
0.0001137
0.000115673
0.000117539
0.000119296
0.000120944
0.000122481
0.000123904
0.000125212
0.000126401
0.000127468
0.000128407
0.000129212
0.00012988
0.000130252
0.000130369
2.22994e-05
2.55492e-05
2.8366e-05
3.13094e-05
3.43718e-05
3.75419e-05
4.08063e-05
4.41487e-05
4.75517e-05
5.09974e-05
5.44685e-05
5.79487e-05
6.14231e-05
6.48782e-05
6.83019e-05
7.16837e-05
7.50143e-05
7.82855e-05
8.14903e-05
8.46226e-05
8.7677e-05
9.06491e-05
9.35348e-05
9.63307e-05
9.90339e-05
0.000101642
0.000104152
0.000106562
0.000108872
0.000111078
0.00011318
0.000115177
0.000117067
0.00011885
0.000120523
0.000122086
0.000123537
0.000124874
0.000126096
0.000127199
0.000128182
0.000129041
0.000129774
0.000130247
0.00013045
2.0884e-05
2.40494e-05
2.69107e-05
2.99093e-05
3.30325e-05
3.62648e-05
3.95897e-05
4.29893e-05
4.64454e-05
4.99398e-05
5.34553e-05
5.6976e-05
6.04875e-05
6.39767e-05
6.74321e-05
7.08436e-05
7.42021e-05
7.74999e-05
8.07302e-05
8.38871e-05
8.69654e-05
8.99608e-05
9.28694e-05
9.56877e-05
9.8413e-05
0.000101043
0.000103575
0.000106007
0.000108338
0.000110566
0.000112689
0.000114708
0.000116619
0.000118423
0.000120118
0.000121703
0.000123176
0.000124536
0.00012578
0.000126906
0.00012791
0.000128789
0.000129538
0.000130172
0.0001306
0.000130858
1.95235e-05
2.26171e-05
2.55252e-05
2.85804e-05
3.17649e-05
3.50589e-05
3.84437e-05
4.18998e-05
4.54079e-05
4.895e-05
5.25089e-05
5.60691e-05
5.96167e-05
6.3139e-05
6.6625e-05
7.00649e-05
7.345e-05
7.6773e-05
8.00273e-05
8.32071e-05
8.63077e-05
8.93246e-05
9.22541e-05
9.5093e-05
9.78385e-05
0.000100488
0.00010304
0.000105491
0.000107842
0.000110089
0.000112232
0.000114269
0.0001162
0.000118023
0.000119737
0.00012134
0.000122832
0.000124211
0.000125473
0.000126617
0.000127638
0.000128532
0.000129294
0.000129925
0.000130573
0.000131161
0.000131502
1.82354e-05
2.12708e-05
2.42289e-05
2.73421e-05
3.05877e-05
3.39425e-05
3.73854e-05
4.08957e-05
4.44538e-05
4.80414e-05
5.16417e-05
5.52394e-05
5.88211e-05
6.23746e-05
6.58892e-05
6.93556e-05
7.27655e-05
7.61118e-05
7.9388e-05
8.25889e-05
8.57095e-05
8.87458e-05
9.16942e-05
9.45515e-05
9.7315e-05
9.99822e-05
0.000102551
0.00010502
0.000107387
0.000109651
0.000111811
0.000113865
0.000115813
0.000117653
0.000119384
0.000121006
0.000122516
0.000123913
0.000125195
0.000126361
0.000127406
0.000128328
0.000129121
0.000129783
0.000130464
0.000131166
0.000131654
1.70411e-05
2.00322e-05
2.30432e-05
2.62151e-05
2.95205e-05
3.29336e-05
3.64315e-05
3.99927e-05
4.35974e-05
4.72271e-05
5.08655e-05
5.44977e-05
5.81106e-05
6.16925e-05
6.52332e-05
6.87236e-05
7.21558e-05
7.55228e-05
7.88187e-05
8.20382e-05
8.51766e-05
8.82299e-05
9.11948e-05
9.4068e-05
9.68471e-05
9.95296e-05
0.000102114
0.000104597
0.000106979
0.000109258
0.000111432
0.000113501
0.000115463
0.000117318
0.000119064
0.000120702
0.000122228
0.000123643
0.000124945
0.000126131
0.0001272
0.000128149
0.000128973
0.000129668
0.000130373
0.000131107
0.000131683
1.59656e-05
1.89263e-05
2.19917e-05
2.52209e-05
2.85831e-05
3.20502e-05
3.55984e-05
3.92057e-05
4.2852e-05
4.65193e-05
5.01915e-05
5.38542e-05
5.74946e-05
6.11014e-05
6.46648e-05
6.8176e-05
7.16275e-05
7.50125e-05
7.83252e-05
8.15605e-05
8.4714e-05
8.77817e-05
9.07604e-05
9.36471e-05
9.64391e-05
9.91343e-05
0.000101731
0.000104227
0.00010662
0.000108911
0.000111097
0.000113178
0.000115152
0.000117019
0.000118778
0.000120427
0.000121967
0.000123396
0.000124713
0.000125915
0.000127003
0.000127971
0.000128819
0.000129543
0.000130272
0.000131058
0.000131765
1.5038e-05
1.7981e-05
2.10993e-05
2.43818e-05
2.7795e-05
3.13098e-05
3.49016e-05
3.85483e-05
4.22301e-05
4.59292e-05
4.96299e-05
5.3318e-05
5.69813e-05
6.06089e-05
6.41911e-05
6.77195e-05
7.11867e-05
7.45863e-05
7.79127e-05
8.11608e-05
8.43264e-05
8.74057e-05
9.03955e-05
9.32927e-05
9.6095e-05
9.88001e-05
0.000101406
0.000103912
0.000106315
0.000108614
0.000110809
0.000112899
0.000114882
0.000116757
0.000118525
0.000120184
0.000121732
0.00012317
0.000124495
0.000125706
0.0001268
0.000127775
0.000128626
0.000129348
0.000130048
0.000130989
0.000131992
0.000132719
1.42903e-05
1.72253e-05
2.03908e-05
2.37187e-05
2.71743e-05
3.07278e-05
3.43546e-05
3.80327e-05
4.17424e-05
4.54664e-05
4.91892e-05
5.28971e-05
5.65781e-05
6.02215e-05
6.38181e-05
6.73595e-05
7.08387e-05
7.42493e-05
7.75859e-05
8.08435e-05
8.4018e-05
8.71058e-05
9.01035e-05
9.30085e-05
9.58181e-05
9.85303e-05
0.000101143
0.000103655
0.000106065
0.000108371
0.000110572
0.000112667
0.000114656
0.000116537
0.00011831
0.000119974
0.000121528
0.000122971
0.000124302
0.000125519
0.00012662
0.000127604
0.000128466
0.000129204
0.000129886
0.000130824
0.000132025
0.000133052
1.37538e-05
1.66871e-05
1.98887e-05
2.32503e-05
2.67366e-05
3.03176e-05
3.39689e-05
3.76688e-05
4.13978e-05
4.51388e-05
4.88766e-05
5.25978e-05
5.62907e-05
5.99447e-05
6.35507e-05
6.71007e-05
7.05876e-05
7.40053e-05
7.73483e-05
8.0612e-05
8.37921e-05
8.68851e-05
8.98878e-05
9.27973e-05
9.56114e-05
9.83278e-05
0.000100945
0.00010346
0.000105874
0.000108183
0.000110387
0.000112486
0.000114477
0.000116361
0.000118137
0.000119803
0.000121359
0.000122804
0.000124137
0.000125356
0.00012646
0.000127447
0.000128314
0.000129057
0.000129672
0.000130513
0.000131969
0.000133441
0.000134381
1.34555e-05
1.63892e-05
1.9611e-05
2.29908e-05
2.64934e-05
3.00888e-05
3.37528e-05
3.74638e-05
4.12024e-05
4.49519e-05
4.86971e-05
5.24247e-05
5.61232e-05
5.97821e-05
6.33924e-05
6.69462e-05
7.04365e-05
7.38572e-05
7.72029e-05
8.04689e-05
8.36512e-05
8.67461e-05
8.97505e-05
9.26616e-05
9.54771e-05
9.81947e-05
0.000100813
0.000103329
0.000105743
0.000108053
0.000110258
0.000112357
0.000114349
0.000116233
0.000118008
0.000119674
0.00012123
0.000122674
0.000124007
0.000125225
0.000126329
0.000127316
0.000128183
0.000128928
0.000129547
0.000130371
0.000131858
0.00013357
0.000134832
1.34121e-05
1.63455e-05
1.95683e-05
2.29487e-05
2.64516e-05
3.00472e-05
3.37111e-05
3.74218e-05
4.11601e-05
4.4909e-05
4.86535e-05
5.23805e-05
5.60781e-05
5.9736e-05
6.33454e-05
6.68981e-05
7.03873e-05
7.38068e-05
7.71512e-05
8.04159e-05
8.35968e-05
8.66903e-05
8.96932e-05
9.26028e-05
9.54167e-05
9.81327e-05
0.000100749
0.000103264
0.000105676
0.000107984
0.000110187
0.000112284
0.000114274
0.000116155
0.000117928
0.000119591
0.000121144
0.000122586
0.000123916
0.000125131
0.000126232
0.000127216
0.00012808
0.000128822
0.000129437
0.000130191
0.000131601
0.000133604
0.000135316
0.000136322
1.36259e-05
1.6558e-05
1.9762e-05
2.31251e-05
2.66123e-05
3.01935e-05
3.38445e-05
3.75435e-05
4.12713e-05
4.50107e-05
4.87466e-05
5.24656e-05
5.61559e-05
5.98071e-05
6.34101e-05
6.69569e-05
7.04404e-05
7.38546e-05
7.71938e-05
8.04536e-05
8.36296e-05
8.67184e-05
8.97166e-05
9.26216e-05
9.5431e-05
9.81425e-05
0.000100754
0.000103265
0.000105673
0.000107976
0.000110175
0.000112267
0.000114252
0.00011613
0.000117898
0.000119557
0.000121106
0.000122543
0.000123869
0.000125081
0.000126178
0.000127159
0.000128021
0.000128763
0.00012938
0.000130116
0.000131512
0.000133605
0.000135534
0.000136734
1.40847e-05
1.70164e-05
2.01847e-05
2.35142e-05
2.69706e-05
3.0524e-05
3.41499e-05
3.78263e-05
4.15338e-05
4.5255e-05
4.89745e-05
5.26786e-05
5.63553e-05
5.99941e-05
6.35857e-05
6.71218e-05
7.05953e-05
7.4e-05
7.73303e-05
8.05814e-05
8.37492e-05
8.68299e-05
8.98204e-05
9.27179e-05
9.55198e-05
9.8224e-05
0.000100829
0.000103332
0.000105733
0.00010803
0.000110221
0.000112307
0.000114286
0.000116156
0.000117918
0.000119571
0.000121114
0.000122545
0.000123865
0.000125073
0.000126166
0.000127143
0.000128003
0.000128742
0.000129359
0.000130092
0.000131499
0.00013365
0.000135684
0.000136994
1.47642e-05
1.77004e-05
2.08204e-05
2.41036e-05
2.75167e-05
3.10304e-05
3.46203e-05
3.82643e-05
4.19426e-05
4.56375e-05
4.93333e-05
5.3016e-05
5.66733e-05
6.02944e-05
6.38695e-05
6.73905e-05
7.08498e-05
7.42412e-05
7.75588e-05
8.07979e-05
8.39542e-05
8.70238e-05
9.00035e-05
9.28905e-05
9.56821e-05
9.83764e-05
0.000100971
0.000103465
0.000105856
0.000108144
0.000110326
0.000112403
0.000114372
0.000116234
0.000117988
0.000119632
0.000121167
0.000122591
0.000123903
0.000125103
0.00012619
0.000127161
0.000128015
0.00012875
0.000129361
0.0001301
0.000131534
0.000133736
0.000135836
0.000137217
1.56338e-05
1.85834e-05
2.16479e-05
2.48758e-05
2.82361e-05
3.17006e-05
3.52454e-05
3.88484e-05
4.24898e-05
4.61513e-05
4.9817e-05
5.34725e-05
5.71051e-05
6.07034e-05
6.42578e-05
6.77594e-05
7.12008e-05
7.45752e-05
7.78768e-05
8.11007e-05
8.42423e-05
8.72978e-05
9.02639e-05
9.31376e-05
9.59163e-05
9.85979e-05
0.00010118
0.000103662
0.000106041
0.000108317
0.000110488
0.000112553
0.000114511
0.000116362
0.000118105
0.000119738
0.000121262
0.000122676
0.000123978
0.000125168
0.000126245
0.000127207
0.000128052
0.000128778
0.000129381
0.000130129
0.000131608
0.000133866
0.000136019
0.000137452
1.66613e-05
1.9636e-05
2.26426e-05
2.58103e-05
2.91114e-05
3.25197e-05
3.60123e-05
3.95675e-05
4.31654e-05
4.67876e-05
5.04177e-05
5.40409e-05
5.76441e-05
6.12156e-05
6.47452e-05
6.82239e-05
7.16438e-05
7.49981e-05
7.82806e-05
8.14863e-05
8.46104e-05
8.76491e-05
9.05988e-05
9.34566e-05
9.62198e-05
9.88861e-05
0.000101454
0.000103921
0.000106285
0.000108547
0.000110703
0.000112755
0.000114699
0.000116536
0.000118266
0.000119886
0.000121397
0.000122797
0.000124087
0.000125264
0.000126328
0.000127278
0.00012811
0.000128824
0.000129414
0.000130177
0.000131717
0.000134042
0.000136245
0.000137722
1.78164e-05
2.08299e-05
2.37795e-05
2.68852e-05
3.01234e-05
3.34709e-05
3.69061e-05
4.04083e-05
4.39577e-05
4.75358e-05
5.11259e-05
5.47128e-05
5.82828e-05
6.18239e-05
6.53255e-05
6.87782e-05
7.21737e-05
7.5505e-05
7.87657e-05
8.19505e-05
8.50546e-05
8.80738e-05
9.10048e-05
9.38442e-05
9.65894e-05
9.92381e-05
0.000101788
0.000104238
0.000106586
0.000108831
0.000110971
0.000113005
0.000114934
0.000116755
0.000118468
0.000120072
0.000121567
0.000122952
0.000124226
0.000125388
0.000126436
0.00012737
0.000128187
0.000128884
0.000129459
0.000130241
0.000131859
0.000134266
0.000136522
0.000138041
1.90725e-05
2.21389e-05
2.50344e-05
2.80783e-05
3.12522e-05
3.45361e-05
3.79107e-05
4.13563e-05
4.48535e-05
4.83841e-05
5.19309e-05
5.54783e-05
5.90123e-05
6.25203e-05
6.59913e-05
6.94154e-05
7.27842e-05
7.60902e-05
7.93268e-05
8.24885e-05
8.55703e-05
8.85679e-05
9.14778e-05
9.42966e-05
9.70216e-05
9.96504e-05
0.000102181
0.000104611
0.00010694
0.000109165
0.000111286
0.000113302
0.000115212
0.000117014
0.000118709
0.000120294
0.000121771
0.000123137
0.000124392
0.000125536
0.000126566
0.000127481
0.000128279
0.000128958
0.000129514
0.000130321
0.000132036
0.000134541
0.000136856
0.000138416
2.0407e-05
2.35401e-05
2.63847e-05
2.93683e-05
3.24777e-05
3.56968e-05
3.90089e-05
4.23958e-05
4.58388e-05
4.93196e-05
5.2821e-05
5.6327e-05
5.9823e-05
6.32961e-05
6.67347e-05
7.01285e-05
7.34687e-05
7.67476e-05
7.99583e-05
8.30949e-05
8.61525e-05
8.91266e-05
9.20134e-05
9.48096e-05
9.75123e-05
0.000100119
0.000102628
0.000105036
0.000107343
0.000109547
0.000111647
0.000113642
0.00011553
0.000117311
0.000118984
0.000120549
0.000122004
0.000123349
0.000124583
0.000125706
0.000126715
0.000127609
0.000128386
0.000129043
0.000129578
0.000130418
0.00013225
0.000134872
0.000137253
0.000138854
2.18011e-05
2.50137e-05
2.78103e-05
3.07352e-05
3.37807e-05
3.69348e-05
4.01838e-05
4.3511e-05
4.68988e-05
5.03289e-05
5.37841e-05
5.72477e-05
6.07049e-05
6.4142e-05
6.75471e-05
7.09096e-05
7.42201e-05
7.74705e-05
8.06539e-05
8.37642e-05
8.67961e-05
8.9745e-05
9.2607e-05
9.53787e-05
9.80573e-05
0.00010064
0.000103125
0.00010551
0.000107793
0.000109974
0.00011205
0.000114021
0.000115885
0.000117643
0.000119292
0.000120833
0.000122264
0.000123585
0.000124795
0.000125894
0.000126879
0.000127749
0.000128503
0.000129139
0.000129654
0.000130541
0.000132518
0.000135271
0.000137714
0.000139351
2.32391e-05
2.65432e-05
2.9293e-05
3.21603e-05
3.51425e-05
3.8232e-05
4.1418e-05
4.46859e-05
4.80187e-05
5.13984e-05
5.48075e-05
5.82291e-05
6.16475e-05
6.50487e-05
6.84202e-05
7.17509e-05
7.50311e-05
7.82524e-05
8.14076e-05
8.44904e-05
8.74954e-05
9.04178e-05
9.32536e-05
9.59994e-05
9.86521e-05
0.000101209
0.000103668
0.000106028
0.000108285
0.00011044
0.00011249
0.000114435
0.000116274
0.000118005
0.000119628
0.000121143
0.000122547
0.000123842
0.000125024
0.000126095
0.000127052
0.000127893
0.000128617
0.000129221
0.000129759
0.000130766
0.000132876
0.000135715
0.000138216
0.000139894
2.47077e-05
2.8114e-05
3.08166e-05
3.36263e-05
3.65454e-05
3.95708e-05
4.26947e-05
4.59044e-05
4.91836e-05
5.25145e-05
5.58791e-05
5.92599e-05
6.26407e-05
6.60069e-05
6.93453e-05
7.26446e-05
7.58946e-05
7.90867e-05
8.22133e-05
8.5268e-05
8.82452e-05
9.11401e-05
9.39485e-05
9.6667e-05
9.92924e-05
0.000101822
0.000104254
0.000106586
0.000108816
0.000110943
0.000112966
0.000114883
0.000116693
0.000118396
0.000119991
0.000121476
0.000122852
0.000124117
0.00012527
0.00012631
0.000127236
0.000128047
0.000128739
0.000129311
0.000129884
0.000131037
0.000133294
0.000136219
0.000138775
0.000140495
2.61958e-05
2.97137e-05
3.23664e-05
3.51169e-05
3.79724e-05
4.09341e-05
4.39974e-05
4.7151e-05
5.03793e-05
5.36642e-05
5.69869e-05
6.03295e-05
6.36749e-05
6.70078e-05
7.03147e-05
7.35835e-05
7.6804e-05
7.99671e-05
8.30651e-05
8.60914e-05
8.90403e-05
9.19069e-05
9.46871e-05
9.73771e-05
9.9974e-05
0.000102475
0.000104878
0.000107181
0.000109382
0.000111479
0.000113472
0.00011536
0.00011714
0.000118813
0.000120377
0.000121831
0.000123176
0.000124409
0.000125531
0.000126539
0.000127433
0.00012821
0.00012887
0.000129408
0.000130025
0.000131343
0.000133765
0.000136784
0.000139399
0.000141162
2.7693e-05
3.1331e-05
3.39284e-05
3.66163e-05
3.94066e-05
4.23051e-05
4.53099e-05
4.84108e-05
5.1592e-05
5.4835e-05
5.81201e-05
6.14281e-05
6.47413e-05
6.80437e-05
7.13211e-05
7.45612e-05
7.77533e-05
8.08881e-05
8.39579e-05
8.69558e-05
8.98761e-05
9.27139e-05
9.5465e-05
9.81257e-05
0.000100693
0.000103164
0.000105537
0.000107809
0.000109979
0.000112046
0.000114007
0.000115863
0.000117611
0.000119252
0.000120783
0.000122205
0.000123517
0.000124717
0.000125805
0.00012678
0.00012764
0.000128383
0.000129008
0.000129512
0.000130178
0.000131682
0.000134288
0.000137412
0.000140091
0.000141899
2.91901e-05
3.29556e-05
3.54892e-05
3.81088e-05
4.08315e-05
4.36674e-05
4.66167e-05
4.96696e-05
5.28095e-05
5.60164e-05
5.92692e-05
6.25475e-05
6.58328e-05
6.91081e-05
7.23588e-05
7.55723e-05
7.87375e-05
8.18451e-05
8.48872e-05
8.7857e-05
9.07486e-05
9.35572e-05
9.62785e-05
9.8909e-05
0.000101446
0.000103885
0.000106227
0.000108467
0.000110605
0.000112638
0.000114567
0.000116389
0.000118104
0.00011971
0.000121208
0.000122595
0.000123872
0.000125037
0.000126091
0.00012703
0.000127855
0.000128564
0.000129154
0.000129622
0.000130347
0.000132059
0.000134871
0.00013811
0.000140856
0.000142709
3.06778e-05
3.45768e-05
3.70346e-05
3.95782e-05
4.22302e-05
4.50049e-05
4.79035e-05
5.09152e-05
5.40213e-05
5.71995e-05
6.04269e-05
6.36816e-05
6.69439e-05
7.01963e-05
7.34236e-05
7.66129e-05
7.9753e-05
8.28346e-05
8.58498e-05
8.87917e-05
9.16546e-05
9.44336e-05
9.71245e-05
9.97239e-05
0.000102229
0.000104636
0.000106945
0.000109151
0.000111255
0.000113255
0.000115148
0.000116935
0.000118615
0.000120185
0.000121647
0.000122998
0.000124238
0.000125367
0.000126383
0.000127285
0.000128074
0.000128746
0.000129301
0.00012974
0.000130547
0.0001325
0.000135531
0.000138882
0.000141691
0.00014359
3.21468e-05
3.61835e-05
3.85494e-05
4.10069e-05
4.35853e-05
4.6302e-05
4.91574e-05
5.21375e-05
5.52198e-05
5.83787e-05
6.1589e-05
6.4827e-05
6.8072e-05
7.13059e-05
7.45132e-05
7.76809e-05
8.07978e-05
8.38546e-05
8.68435e-05
8.97577e-05
9.25917e-05
9.53407e-05
9.80007e-05
0.000100568
0.00010304
0.000105414
0.000107688
0.00010986
0.000111928
0.000113892
0.000115749
0.000117499
0.000119141
0.000120674
0.000122097
0.00012341
0.000124611
0.0001257
0.000126676
0.000127538
0.000128283
0.000128912
0.00012942
0.000129895
0.000130887
0.000133055
0.000136238
0.000139696
0.000142582
0.000144541
3.35867e-05
3.77625e-05
4.00153e-05
4.23752e-05
4.48789e-05
4.75449e-05
5.0369e-05
5.33307e-05
5.64019e-05
5.95527e-05
6.2755e-05
6.59838e-05
6.92173e-05
7.24372e-05