/*--------------------------------*- C++ -*----------------------------------*\
  =========                 |
  \\      /  F ield         | OpenFOAM: The Open Source CFD Toolbox
   \\    /   O peration     | Website:  https://openfoam.org
    \\  /    A nd           | Version:  7
     \\/     M anipulation  |
\*---------------------------------------------------------------------------*/
FoamFile
{
    version     2.0;
    format      ascii;
    class       volVectorField;
    location    "36000";
    object      vorticity;
}
// * * * * * * * * * * * * * * * * * * * * * * * * * * * * * * * * * * * * * //

dimensions      [0 0 -1 0 0 0 0];

internalField   nonuniform List<vector> 
4783
(
(-1.77465e-05 3.82516e-05 -3.5935e-18)
(-3.38786e-05 2.26763e-05 -3.28911e-18)
(-3.30866e-05 2.27792e-05 -2.19539e-18)
(-3.21856e-05 2.23901e-05 1.34919e-18)
(-3.11345e-05 2.18497e-05 2.45053e-18)
(-2.99871e-05 2.12392e-05 1.94189e-19)
(-2.87584e-05 2.06076e-05 -1.95386e-18)
(-2.74585e-05 1.99794e-05 -2.96591e-18)
(-2.60962e-05 1.93677e-05 -6.47903e-19)
(-2.46788e-05 1.87801e-05 3.60811e-18)
(-2.32132e-05 1.8221e-05 3.67862e-18)
(-2.17051e-05 1.76933e-05 -1.31278e-19)
(-2.01601e-05 1.71988e-05 -2.83729e-18)
(-1.85832e-05 1.67387e-05 -2.83177e-18)
(-1.69792e-05 1.63137e-05 1.47367e-19)
(-1.53533e-05 1.59243e-05 4.10191e-18)
(-1.37108e-05 1.55707e-05 4.79486e-18)
(-1.20578e-05 1.5253e-05 3.06351e-18)
(-1.04009e-05 1.49717e-05 2.27537e-18)
(-8.74778e-06 1.47275e-05 6.78428e-19)
(-7.16893e-06 1.4515e-05 -1.77004e-18)
(-5.71493e-06 1.43233e-05 -1.98767e-18)
(-1.86051e-05 4.54698e-05 -1.41479e-18)
(-3.39849e-05 2.99393e-05 -2.46574e-18)
(-3.41764e-05 2.89351e-05 -1.37118e-18)
(-3.377e-05 2.79851e-05 -6.88123e-21)
(-3.29676e-05 2.70567e-05 1.44032e-18)
(-3.19339e-05 2.6132e-05 1.12941e-18)
(-3.07449e-05 2.52265e-05 9.00871e-19)
(-2.94409e-05 2.43547e-05 8.05131e-19)
(-2.80452e-05 2.35259e-05 1.60338e-19)
(-2.65736e-05 2.27456e-05 1.56263e-19)
(-2.50375e-05 2.20162e-05 -4.7406e-20)
(-2.34461e-05 2.13388e-05 -9.35559e-19)
(-2.18068e-05 2.07132e-05 -9.76029e-19)
(-2.01264e-05 2.01391e-05 -6.1544e-19)
(-1.84111e-05 1.96156e-05 2.21371e-19)
(-1.66669e-05 1.91416e-05 1.19289e-18)
(-1.49002e-05 1.8716e-05 1.97798e-18)
(-1.31177e-05 1.83379e-05 1.96203e-18)
(-1.13271e-05 1.80062e-05 4.50517e-19)
(-9.53685e-06 1.77199e-05 -6.76673e-19)
(-7.81071e-06 1.74717e-05 -1.58824e-18)
(-6.21662e-06 1.72657e-05 -2.15446e-18)
(-2.02472e-05 4.72251e-05 -2.08108e-18)
(-3.49291e-05 3.123e-05 -2.90066e-18)
(-3.51714e-05 2.99368e-05 -2.09177e-18)
(-3.50147e-05 2.89026e-05 -1.28064e-18)
(-3.44309e-05 2.80461e-05 -7.07785e-19)
(-3.35408e-05 2.72723e-05 -3.71176e-19)
(-3.24302e-05 2.65488e-05 -4.93058e-19)
(-3.11562e-05 2.58659e-05 -4.41377e-19)
(-2.9756e-05 2.52224e-05 -1.78483e-19)
(-2.82543e-05 2.46189e-05 1.74688e-19)
(-2.66688e-05 2.4056e-05 -1.23107e-19)
(-2.50126e-05 2.3534e-05 -3.93313e-19)
(-2.32961e-05 2.30526e-05 -3.23779e-19)
(-2.15281e-05 2.2611e-05 -4.66592e-19)
(-1.97163e-05 2.22085e-05 2.40456e-20)
(-1.78682e-05 2.18441e-05 5.87587e-19)
(-1.59911e-05 2.15166e-05 9.25509e-19)
(-1.40928e-05 2.12248e-05 1.11895e-18)
(-1.21818e-05 2.09678e-05 2.8804e-19)
(-1.02678e-05 2.07444e-05 -4.15535e-19)
(-8.41057e-06 2.0548e-05 -3.38313e-19)
(-6.68067e-06 2.03803e-05 -4.49961e-19)
(-2.21774e-05 4.91581e-05 2.97565e-19)
(-3.63778e-05 3.31881e-05 -2.2598e-18)
(-3.64454e-05 3.16989e-05 -2.8341e-18)
(-3.62882e-05 3.05436e-05 -1.76007e-18)
(-3.57851e-05 2.96619e-05 -9.70478e-19)
(-3.4982e-05 2.89417e-05 -4.3784e-19)
(-3.39346e-05 2.8321e-05 -1.59929e-19)
(-3.26935e-05 2.77669e-05 -2.90869e-19)
(-3.12983e-05 2.7263e-05 -2.99131e-19)
(-2.97783e-05 2.68012e-05 -2.75768e-19)
(-2.81555e-05 2.63771e-05 -8.3432e-19)
(-2.64465e-05 2.5988e-05 -1.16544e-18)
(-2.46642e-05 2.5632e-05 -7.29267e-19)
(-2.28197e-05 2.53075e-05 -5.19241e-19)
(-2.09224e-05 2.50129e-05 6.56971e-20)
(-1.8981e-05 2.47469e-05 4.64953e-19)
(-1.70039e-05 2.45081e-05 6.01145e-19)
(-1.5e-05 2.4295e-05 1.23963e-18)
(-1.29788e-05 2.41066e-05 5.87907e-19)
(-1.09509e-05 2.39415e-05 -1.42429e-19)
(-8.97241e-06 2.37939e-05 -4.23425e-19)
(-7.11672e-06 2.3665e-05 -6.81323e-19)
(-2.42514e-05 5.12629e-05 1.00849e-18)
(-3.81055e-05 3.54131e-05 -1.46053e-18)
(-3.79709e-05 3.38715e-05 -1.99447e-18)
(-3.77053e-05 3.26518e-05 -1.689e-18)
(-3.71752e-05 3.17373e-05 -6.72355e-19)
(-3.63852e-05 3.10318e-05 -1.66823e-19)
(-3.53592e-05 3.04673e-05 -1.11166e-19)
(-3.41312e-05 2.99985e-05 -3.23878e-19)
(-3.27339e-05 2.95974e-05 -4.61182e-19)
(-3.11956e-05 2.92469e-05 -5.63016e-19)
(-2.95391e-05 2.89365e-05 -7.54321e-19)
(-2.77827e-05 2.86598e-05 -6.41215e-19)
(-2.59413e-05 2.84121e-05 -4.78698e-19)
(-2.40274e-05 2.81901e-05 -9.06031e-19)
(-2.20519e-05 2.79913e-05 -9.85729e-19)
(-2.00246e-05 2.78135e-05 -6.53468e-19)
(-1.79552e-05 2.76547e-05 6.0462e-20)
(-1.58533e-05 2.75131e-05 7.72267e-19)
(-1.37295e-05 2.73873e-05 6.75286e-19)
(-1.15949e-05 2.7276e-05 1.85532e-19)
(-9.5029e-06 2.71736e-05 -1.17826e-20)
(-7.52903e-06 2.70808e-05 2.02059e-19)
(-2.64169e-05 5.34987e-05 -2.42042e-19)
(-3.99988e-05 3.77899e-05 -1.20308e-18)
(-3.96744e-05 3.62742e-05 -1.33006e-18)
(-3.92663e-05 3.50504e-05 -1.40302e-18)
(-3.86514e-05 3.4129e-05 -8.96274e-19)
(-3.78184e-05 3.34353e-05 -1.61352e-19)
(-3.67714e-05 3.29079e-05 1.66469e-20)
(-3.55286e-05 3.24992e-05 -1.93138e-19)
(-3.4113e-05 3.21749e-05 -1.69752e-19)
(-3.25481e-05 3.19119e-05 -2.45316e-19)
(-3.08548e-05 3.16945e-05 -7.79762e-19)
(-2.90512e-05 3.15121e-05 -9.24582e-19)
(-2.71529e-05 3.13573e-05 -8.09817e-19)
(-2.51731e-05 3.12248e-05 -9.70936e-19)
(-2.31236e-05 3.11105e-05 -8.7405e-19)
(-2.10154e-05 3.10112e-05 -3.27497e-19)
(-1.88588e-05 3.09243e-05 1.16857e-19)
(-1.66644e-05 3.08474e-05 3.14977e-19)
(-1.44434e-05 3.07786e-05 1.8298e-19)
(-1.22079e-05 3.07164e-05 -1.11074e-19)
(-1.00083e-05 3.06555e-05 -1.4521e-19)
(-7.92224e-06 3.05958e-05 3.81328e-19)
(-2.86456e-05 5.58199e-05 2.04337e-19)
(-4.19961e-05 4.02618e-05 -6.35321e-20)
(-4.14983e-05 3.88125e-05 -3.80725e-19)
(-4.09417e-05 3.7627e-05 -6.1299e-19)
(-4.02161e-05 3.67283e-05 -1.85368e-19)
(-3.93061e-05 3.60587e-05 1.74401e-19)
(-3.8206e-05 3.55665e-05 2.25813e-19)
(-3.69227e-05 3.5207e-05 -3.89384e-19)
(-3.54706e-05 3.49447e-05 -4.82549e-19)
(-3.38671e-05 3.47531e-05 -4.27469e-19)
(-3.213e-05 3.4613e-05 -9.38928e-19)
(-3.02759e-05 3.45105e-05 -3.63816e-19)
(-2.83196e-05 3.44357e-05 -1.71472e-19)
(-2.62746e-05 3.43812e-05 -3.91385e-19)
(-2.41531e-05 3.43415e-05 -7.43972e-19)
(-2.19665e-05 3.43121e-05 -6.60636e-19)
(-1.9726e-05 3.42897e-05 -6.86984e-20)
(-1.74428e-05 3.42712e-05 6.50618e-20)
(-1.51287e-05 3.42542e-05 6.34059e-20)
(-1.27964e-05 3.42368e-05 -3.62661e-19)
(-1.04939e-05 3.42136e-05 -3.62008e-19)
(-8.30049e-06 3.41842e-05 -5.48015e-20)
(-3.09175e-05 5.8187e-05 4.00269e-18)
(-4.40588e-05 4.279e-05 1.88253e-18)
(-4.34019e-05 4.14299e-05 1.06678e-18)
(-4.27002e-05 4.03099e-05 2.01508e-19)
(-4.18546e-05 3.94579e-05 3.65028e-19)
(-4.08495e-05 3.88279e-05 6.1692e-19)
(-3.96752e-05 3.83769e-05 6.36475e-20)
(-3.83317e-05 3.80649e-05 -2.17299e-19)
(-3.6827e-05 3.78578e-05 -1.51177e-19)
(-3.5173e-05 3.7728e-05 -1.2469e-19)
(-3.33839e-05 3.76546e-05 -6.33985e-19)
(-3.1474e-05 3.76214e-05 -4.58922e-19)
(-2.94569e-05 3.76164e-05 -2.38823e-19)
(-2.73456e-05 3.76306e-05 -4.85047e-19)
(-2.51522e-05 3.76569e-05 -3.65948e-19)
(-2.28885e-05 3.769e-05 -2.41157e-20)
(-2.05659e-05 3.77256e-05 6.19232e-19)
(-1.81962e-05 3.77598e-05 5.08909e-19)
(-1.57918e-05 3.77898e-05 2.26837e-19)
(-1.33659e-05 3.7813e-05 -4.93162e-19)
(-1.09641e-05 3.78241e-05 -7.79044e-19)
(-8.66728e-06 3.78219e-05 -3.67534e-19)
(-3.3216e-05 6.05692e-05 5.77582e-18)
(-4.61597e-05 4.53453e-05 3.36934e-18)
(-4.53561e-05 4.40882e-05 1.6547e-18)
(-4.45157e-05 4.30511e-05 5.79172e-19)
(-4.35484e-05 4.22636e-05 2.53442e-19)
(-4.24399e-05 4.16873e-05 7.25258e-19)
(-4.11789e-05 4.1286e-05 6.84417e-19)
(-3.97619e-05 4.10244e-05 9.61165e-19)
(-3.8192e-05 4.08707e-05 1.18046e-18)
(-3.64773e-05 4.07981e-05 5.40782e-19)
(-3.46284e-05 4.07848e-05 1.86961e-19)
(-3.26572e-05 4.08134e-05 -2.47216e-19)
(-3.05757e-05 4.08707e-05 1.09775e-19)
(-2.83961e-05 4.0946e-05 3.02402e-20)
(-2.61301e-05 4.10314e-05 -3.30879e-19)
(-2.37892e-05 4.11205e-05 -4.9339e-19)
(-2.13853e-05 4.12082e-05 -2.7188e-19)
(-1.89305e-05 4.12902e-05 1.76846e-19)
(-1.64377e-05 4.13628e-05 3.99728e-19)
(-1.39205e-05 4.14228e-05 -3.45363e-21)
(-1.14225e-05 4.14647e-05 -1.21283e-19)
(-9.02567e-06 4.14865e-05 -1.34129e-19)
(-3.55271e-05 6.29427e-05 3.13456e-18)
(-4.82783e-05 4.79051e-05 3.70252e-18)
(-4.73387e-05 4.67598e-05 2.48009e-18)
(-4.63668e-05 4.58172e-05 1.63676e-18)
(-4.528e-05 4.51068e-05 1.33819e-18)
(-4.40653e-05 4.45957e-05 1.17322e-18)
(-4.27111e-05 4.42523e-05 7.58621e-19)
(-4.1212e-05 4.40456e-05 6.80265e-19)
(-3.95685e-05 4.39465e-05 1.23724e-18)
(-3.77852e-05 4.39294e-05 1.19962e-18)
(-3.58699e-05 4.39725e-05 7.65042e-19)
(-3.38324e-05 4.40582e-05 -3.04624e-20)
(-3.16831e-05 4.4172e-05 -1.89986e-19)
(-2.94329e-05 4.43027e-05 -6.73621e-20)
(-2.70929e-05 4.44413e-05 -3.46246e-19)
(-2.46744e-05 4.45808e-05 -6.86031e-19)
(-2.21893e-05 4.47156e-05 -2.80595e-19)
(-1.96501e-05 4.48408e-05 9.12087e-20)
(-1.70702e-05 4.4952e-05 2.46332e-19)
(-1.44638e-05 4.50455e-05 2.31131e-19)
(-1.18723e-05 4.51146e-05 6.8245e-19)
(-9.37845e-06 4.51561e-05 7.50452e-19)
(-3.78387e-05 6.52898e-05 2.29775e-18)
(-5.03984e-05 5.04518e-05 3.01741e-18)
(-4.93326e-05 4.9424e-05 2.41053e-18)
(-4.82365e-05 4.85836e-05 1.81508e-18)
(-4.7034e-05 4.79594e-05 1.42382e-18)
(-4.57133e-05 4.7522e-05 1.18911e-18)
(-4.42632e-05 4.72439e-05 6.77921e-19)
(-4.26775e-05 4.7097e-05 5.09568e-19)
(-4.09547e-05 4.70548e-05 8.66043e-19)
(-3.90973e-05 4.70931e-05 9.94841e-19)
(-3.71108e-05 4.71909e-05 7.42731e-19)
(-3.50031e-05 4.73303e-05 3.66711e-19)
(-3.2783e-05 4.74967e-05 -9.91584e-21)
(-3.04603e-05 4.76782e-05 3.00576e-19)
(-2.80451e-05 4.7865e-05 2.28006e-19)
(-2.55483e-05 4.80498e-05 -4.65162e-19)
(-2.29816e-05 4.82269e-05 2.57798e-20)
(-2.03582e-05 4.83911e-05 6.54103e-19)
(-1.7692e-05 4.85373e-05 4.94489e-19)
(-1.49982e-05 4.86615e-05 -7.75734e-20)
(-1.23167e-05 4.87543e-05 1.23833e-19)
(-9.72856e-06 4.88091e-05 5.75599e-19)
(-4.01405e-05 6.75969e-05 1.55866e-18)
(-5.25072e-05 5.29715e-05 1.14136e-18)
(-5.13238e-05 5.20646e-05 1.47699e-18)
(-5.01107e-05 5.13317e-05 1.26856e-18)
(-4.87972e-05 5.07999e-05 6.65606e-19)
(-4.73725e-05 5.04429e-05 1.10539e-18)
(-4.58263e-05 5.02358e-05 1.12988e-18)
(-4.4152e-05 5.01532e-05 9.25799e-19)
(-4.23469e-05 5.01705e-05 1.13034e-18)
(-4.0412e-05 5.02649e-05 1.06405e-18)
(-3.83511e-05 5.04163e-05 7.80692e-19)
(-3.61702e-05 5.06074e-05 3.97446e-19)
(-3.38772e-05 5.08234e-05 2.91433e-19)
(-3.14806e-05 5.10518e-05 9.11215e-19)
(-2.89894e-05 5.12826e-05 6.74285e-19)
(-2.64135e-05 5.15078e-05 -6.94962e-20)
(-2.37648e-05 5.17226e-05 2.96678e-19)
(-2.1057e-05 5.19216e-05 1.05754e-18)
(-1.83045e-05 5.20988e-05 8.73044e-19)
(-1.55252e-05 5.22521e-05 -2.26697e-20)
(-1.27596e-05 5.2367e-05 1.74703e-19)
(-1.00798e-05 5.24222e-05 4.64072e-19)
(-4.24235e-05 6.98537e-05 1.33899e-18)
(-5.45942e-05 5.54532e-05 3.25442e-20)
(-5.33013e-05 5.46694e-05 1.905e-18)
(-5.19779e-05 5.40471e-05 1.87144e-18)
(-5.05584e-05 5.36121e-05 1.10484e-18)
(-4.90329e-05 5.33403e-05 1.21922e-18)
(-4.73919e-05 5.32086e-05 8.41715e-19)
(-4.56287e-05 5.31938e-05 8.18394e-19)
(-4.37402e-05 5.32728e-05 1.09428e-18)
(-4.17261e-05 5.34242e-05 9.43384e-19)
(-3.95889e-05 5.36287e-05 8.26521e-19)
(-3.73332e-05 5.38696e-05 4.31731e-19)
(-3.4966e-05 5.41326e-05 3.12943e-19)
(-3.24946e-05 5.44047e-05 6.71737e-19)
(-2.99275e-05 5.46757e-05 6.83884e-19)
(-2.72724e-05 5.4936e-05 3.99162e-19)
(-2.45409e-05 5.51839e-05 7.48392e-19)
(-2.17488e-05 5.54139e-05 1.38036e-18)
(-1.89084e-05 5.56155e-05 1.08025e-18)
(-1.60435e-05 5.58006e-05 4.54276e-19)
(-1.32028e-05 5.58778e-05 6.3212e-19)
(-1.04357e-05 5.59128e-05 7.27042e-19)
(-4.46801e-05 7.2052e-05 4.01868e-18)
(-5.66507e-05 5.78881e-05 2.27511e-20)
(-5.52557e-05 5.72281e-05 1.30975e-18)
(-5.38286e-05 5.67184e-05 1.56596e-18)
(-5.23082e-05 5.63832e-05 1.57583e-18)
(-5.06856e-05 5.61998e-05 1.64009e-18)
(-4.8952e-05 5.61467e-05 1.14204e-18)
(-4.71011e-05 5.62021e-05 1.02198e-18)
(-4.51294e-05 5.63445e-05 1.16508e-18)
(-4.3036e-05 5.65533e-05 5.99986e-19)
(-4.08218e-05 5.681e-05 6.35752e-19)
(-3.84904e-05 5.70989e-05 3.81393e-19)
(-3.60483e-05 5.74068e-05 6.80147e-19)
(-3.35021e-05 5.77195e-05 1.02714e-18)
(-3.08604e-05 5.80279e-05 9.99201e-19)
(-2.81263e-05 5.83164e-05 6.08814e-19)
(-2.53109e-05 5.85921e-05 9.258e-19)
(-2.24365e-05 5.88517e-05 1.42272e-18)
(-1.9503e-05 5.90659e-05 9.65406e-19)
(-1.65871e-05 5.91754e-05 6.52727e-19)
(-1.36947e-05 5.91967e-05 1.36481e-19)
(-1.0805e-05 5.91974e-05 1.81305e-19)
(-4.69036e-05 7.41858e-05 3.45631e-18)
(-5.86697e-05 6.0269e-05 3.32256e-20)
(-5.71794e-05 5.97329e-05 9.76109e-19)
(-5.56547e-05 5.93367e-05 1.30912e-18)
(-5.40386e-05 5.91027e-05 1.41462e-18)
(-5.2323e-05 5.90096e-05 1.20591e-18)
(-5.04997e-05 5.9037e-05 8.36436e-19)
(-4.8563e-05 5.91643e-05 1.01513e-18)
(-4.65095e-05 5.93709e-05 1.20973e-18)
(-4.43376e-05 5.9637e-05 7.07452e-19)
(-4.20472e-05 5.99444e-05 5.87782e-19)
(-3.96396e-05 6.02782e-05 6.3092e-19)
(-3.71228e-05 6.06294e-05 6.90594e-19)
(-3.45012e-05 6.09782e-05 7.15028e-19)
(-3.17887e-05 6.13256e-05 9.91491e-19)
(-2.89775e-05 6.16309e-05 1.09083e-18)
(-2.60737e-05 6.193e-05 1.53808e-18)
(-2.31169e-05 6.21606e-05 1.44651e-18)
(-2.01605e-05 6.23122e-05 8.49563e-19)
(-1.71963e-05 6.23546e-05 7.49476e-19)
(-4.90881e-05 7.62503e-05 5.95593e-19)
(-6.06453e-05 6.25902e-05 -6.16606e-19)
(-5.9066e-05 6.21772e-05 5.8297e-19)
(-5.74496e-05 6.18944e-05 5.86381e-19)
(-5.57429e-05 6.17623e-05 9.65245e-19)
(-5.39385e-05 6.17603e-05 1.07793e-18)
(-5.2029e-05 6.18688e-05 8.90178e-19)
(-5.0009e-05 6.20681e-05 1.08666e-18)
(-4.78755e-05 6.23388e-05 8.56134e-19)
(-4.56272e-05 6.26615e-05 2.97423e-19)
(-4.32626e-05 6.30173e-05 4.77006e-19)
(-4.0778e-05 6.33903e-05 1.24726e-18)
(-3.81881e-05 6.37855e-05 1.18361e-18)
(-3.54879e-05 6.4164e-05 9.86501e-19)
(-3.27017e-05 6.44918e-05 1.37871e-18)
(-2.98197e-05 6.48024e-05 1.71586e-18)
(-2.68565e-05 6.50699e-05 1.8149e-18)
(-2.3861e-05 6.52571e-05 1.05781e-18)
(-2.08312e-05 6.53704e-05 9.24082e-19)
(-5.12287e-05 7.82415e-05 -3.12522e-19)
(-6.25726e-05 6.48467e-05 -7.21126e-19)
(-6.09102e-05 6.45555e-05 5.38172e-19)
(-5.92078e-05 6.43853e-05 5.03717e-19)
(-5.74155e-05 6.43547e-05 8.64024e-19)
(-5.55267e-05 6.44435e-05 9.37402e-19)
(-5.35347e-05 6.46327e-05 7.89675e-19)
(-5.14342e-05 6.49029e-05 1.302e-18)
(-4.92228e-05 6.52361e-05 1.21238e-18)
(-4.69006e-05 6.56137e-05 7.05082e-19)
(-4.4467e-05 6.60164e-05 4.1684e-19)
(-4.19025e-05 6.64196e-05 9.97456e-19)
(-3.92285e-05 6.67948e-05 1.00635e-18)
(-3.64816e-05 6.71406e-05 1.20251e-18)
(-3.3628e-05 6.74457e-05 1.77208e-18)
(-3.06719e-05 6.77469e-05 2.08363e-18)
(-2.7648e-05 6.80074e-05 1.68316e-18)
(-5.3321e-05 8.01565e-05 -5.30615e-19)
(-6.44473e-05 6.70344e-05 2.15281e-20)
(-6.27075e-05 6.68634e-05 8.46375e-19)
(-6.09246e-05 6.68044e-05 4.96056e-19)
(-5.90517e-05 6.68739e-05 2.5916e-19)
(-5.7083e-05 6.70522e-05 5.63654e-19)
(-5.50126e-05 6.73202e-05 8.4246e-19)
(-5.28347e-05 6.76584e-05 9.72864e-19)
(-5.05475e-05 6.80505e-05 8.41165e-19)
(-4.81536e-05 6.84849e-05 3.60683e-19)
(-4.5642e-05 6.88609e-05 4.14392e-19)
(-4.30294e-05 6.92272e-05 1.3964e-18)
(-4.02992e-05 6.95662e-05 1.12002e-18)
(-3.74657e-05 6.98983e-05 1.01266e-18)
(-5.53612e-05 8.19928e-05 -1.57797e-18)
(-6.6266e-05 6.915e-05 5.79432e-19)
(-6.44541e-05 6.90971e-05 8.76267e-19)
(-6.2596e-05 6.91472e-05 5.54649e-19)
(-6.06475e-05 6.93145e-05 2.79876e-19)
(-5.86035e-05 6.95798e-05 1.88671e-19)
(-5.64594e-05 6.99238e-05 6.40838e-19)
(-5.42081e-05 7.03247e-05 6.41642e-19)
(-5.18453e-05 7.07756e-05 1.09602e-18)
(-4.93935e-05 7.11345e-05 2.60248e-19)
(-4.68405e-05 7.14605e-05 2.10161e-19)
(-4.41418e-05 7.1811e-05 1.1893e-18)
(-5.7346e-05 8.37483e-05 -1.0401e-18)
(-6.80258e-05 7.11903e-05 9.7061e-19)
(-6.61469e-05 7.1253e-05 1.10451e-18)
(-6.4219e-05 7.14097e-05 1.10799e-18)
(-6.21997e-05 7.16716e-05 1.01734e-18)
(-6.00847e-05 7.202e-05 6.2894e-19)
(-5.78725e-05 7.24365e-05 9.46495e-19)
(-5.55515e-05 7.28991e-05 9.25412e-19)
(-5.31445e-05 7.32582e-05 7.6568e-19)
(-5.06447e-05 7.3555e-05 4.38681e-19)
(-5.92727e-05 8.54214e-05 1.72338e-18)
(-6.9724e-05 7.31528e-05 1.71904e-18)
(-6.77829e-05 7.33285e-05 1.57653e-18)
(-6.57908e-05 7.35887e-05 1.5648e-18)
(-6.37061e-05 7.39407e-05 1.48016e-18)
(-6.15232e-05 7.4366e-05 1.08132e-18)
(-5.92488e-05 7.48588e-05 1.10803e-18)
(-5.68898e-05 7.52294e-05 1.27657e-18)
(-5.4437e-05 7.55252e-05 8.4741e-19)
(-6.11387e-05 8.70105e-05 3.13411e-18)
(-7.13585e-05 7.50348e-05 2.13532e-18)
(-6.93597e-05 7.53207e-05 1.96983e-18)
(-6.73092e-05 7.56813e-05 1.80833e-18)
(-6.51658e-05 7.61179e-05 1.50788e-18)
(-6.29146e-05 7.66161e-05 6.76345e-19)
(-6.06055e-05 7.70409e-05 9.82139e-19)
(-5.82097e-05 7.73487e-05 1.4846e-18)
(-6.29422e-05 8.85145e-05 3.13559e-18)
(-7.29274e-05 7.68341e-05 1.86455e-18)
(-7.08747e-05 7.72271e-05 1.86878e-18)
(-6.87721e-05 7.76853e-05 2.09549e-18)
(-6.65777e-05 7.82022e-05 1.69185e-18)
(-6.43028e-05 7.87006e-05 6.46446e-19)
(-6.19322e-05 7.903e-05 1.01968e-18)
(-6.46818e-05 8.99323e-05 3.33129e-18)
(-7.44294e-05 7.85483e-05 2.04871e-18)
(-7.23255e-05 7.90451e-05 1.78992e-18)
(-7.0176e-05 7.95981e-05 2.10916e-18)
(-6.79588e-05 8.01877e-05 1.22427e-18)
(-6.56452e-05 8.05949e-05 6.40063e-19)
(-6.63565e-05 9.12633e-05 3.25803e-18)
(-7.58639e-05 8.01753e-05 1.97685e-18)
(-7.37101e-05 8.07712e-05 1.32408e-18)
(-7.1516e-05 8.14225e-05 2.46975e-18)
(-6.928e-05 8.19581e-05 9.78309e-19)
(-6.69689e-05 8.23317e-05 9.40954e-19)
(-6.79658e-05 9.25075e-05 2.50432e-18)
(-7.7231e-05 8.17133e-05 1.82517e-18)
(-7.50256e-05 8.24033e-05 1.63826e-18)
(-7.28247e-05 8.30972e-05 2.46426e-18)
(-7.05454e-05 8.35506e-05 5.84764e-19)
(-6.95099e-05 9.36652e-05 6.27541e-19)
(-7.85322e-05 8.3161e-05 7.41711e-19)
(-7.62828e-05 8.39319e-05 1.62825e-18)
(-7.4058e-05 8.4596e-05 2.0822e-18)
(-7.09887e-05 9.47378e-05 -6.36824e-19)
(-7.97695e-05 8.45198e-05 1.93822e-19)
(-7.74878e-05 8.53232e-05 1.72336e-18)
(-7.52496e-05 8.59667e-05 1.94121e-18)
(-7.24018e-05 9.57272e-05 -1.78976e-20)
(-8.09544e-05 8.57844e-05 -2.17359e-19)
(-7.86421e-05 8.66171e-05 1.44088e-18)
(-7.37481e-05 9.66357e-05 5.40352e-19)
(-8.20799e-05 8.69716e-05 -3.10092e-19)
(-7.97641e-05 8.78475e-05 1.22824e-18)
(-7.50232e-05 9.7466e-05 3.10928e-19)
(-8.31443e-05 8.80881e-05 -2.52956e-19)
(-8.08345e-05 8.90229e-05 1.23601e-18)
(-7.62227e-05 9.82184e-05 -1.59371e-18)
(-8.41374e-05 8.91357e-05 -2.77361e-19)
(-8.18359e-05 9.01499e-05 1.28255e-18)
(-7.73426e-05 9.88918e-05 -2.75367e-18)
(-8.50549e-05 9.01115e-05 5.11899e-20)
(-8.27627e-05 9.12071e-05 1.13538e-18)
(-7.83786e-05 9.94845e-05 -2.44234e-18)
(-8.58942e-05 9.10138e-05 3.28736e-19)
(-8.36152e-05 9.21887e-05 1.14013e-18)
(-7.93258e-05 9.9994e-05 -5.65596e-20)
(-8.66525e-05 9.18418e-05 1.17202e-18)
(-8.43936e-05 9.3091e-05 1.26028e-18)
(-8.0178e-05 0.000100417 3.07718e-18)
(-8.73273e-05 9.25958e-05 2.29362e-18)
(-8.50981e-05 9.39118e-05 1.8972e-18)
(-8.0927e-05 0.000100751 5.40179e-18)
(-8.7916e-05 9.32779e-05 3.22929e-18)
(-8.57292e-05 9.46492e-05 1.83026e-18)
(-8.15867e-05 0.000101028 6.01297e-18)
(-8.84167e-05 9.38933e-05 3.55111e-18)
(-8.62878e-05 9.53015e-05 1.8069e-18)
(-8.23567e-05 0.000101512 5.27299e-18)
(-8.88438e-05 9.44466e-05 3.70949e-18)
(-8.67759e-05 9.58657e-05 1.95118e-18)
(-8.34723e-05 0.000102354 4.29205e-18)
(-8.94342e-05 9.51008e-05 3.83211e-18)
(-8.72305e-05 9.63885e-05 2.30869e-18)
(-8.46084e-05 0.0001031 3.12142e-18)
(-9.03097e-05 9.58996e-05 4.33147e-18)
(-8.7794e-05 9.69072e-05 2.59839e-18)
(-8.53988e-05 0.000103455 2.48957e-18)
(-9.11728e-05 9.66179e-05 4.10659e-18)
(-8.86266e-05 9.75963e-05 2.46842e-18)
(-3.73279e-05 1.84969e-05 -3.79409e-18)
(-4.47792e-05 1.93273e-05 4.08612e-19)
(-4.65273e-05 2.09555e-05 -5.96659e-18)
(-4.84752e-05 2.28721e-05 -3.49015e-18)
(-5.05942e-05 2.49325e-05 7.44596e-19)
(-5.28438e-05 2.70844e-05 2.65875e-19)
(-5.51786e-05 2.92999e-05 -6.66452e-19)
(-5.7559e-05 3.15589e-05 7.49194e-19)
(-5.99542e-05 3.38447e-05 2.70231e-18)
(-6.23408e-05 3.61432e-05 2.12013e-18)
(-6.47011e-05 3.84423e-05 7.59213e-20)
(-6.70216e-05 4.07316e-05 -8.66106e-19)
(-6.92921e-05 4.30019e-05 -1.52475e-18)
(-7.15049e-05 4.52455e-05 -2.31411e-18)
(-7.36541e-05 4.74553e-05 -2.14385e-18)
(-7.57351e-05 4.96256e-05 -1.25998e-18)
(-7.77444e-05 5.17509e-05 -7.55937e-19)
(-7.96794e-05 5.38268e-05 -8.54667e-19)
(-8.1538e-05 5.58491e-05 5.40735e-19)
(-8.33188e-05 5.78141e-05 3.53013e-18)
(-8.50206e-05 5.97188e-05 5.02586e-18)
(-8.6643e-05 6.15601e-05 5.49942e-18)
(-8.81855e-05 6.33355e-05 5.27294e-18)
(-8.96481e-05 6.50428e-05 2.81713e-18)
(-9.10311e-05 6.668e-05 7.26208e-19)
(-9.23351e-05 6.82457e-05 7.64967e-19)
(-9.35603e-05 6.97388e-05 1.81033e-18)
(-9.47071e-05 7.11587e-05 9.85119e-19)
(-9.57754e-05 7.2505e-05 3.23217e-19)
(-9.67643e-05 7.37775e-05 2.12235e-19)
(-9.76721e-05 7.49758e-05 -2.12823e-19)
(-9.84967e-05 7.60988e-05 -1.9216e-18)
(-9.92354e-05 7.71445e-05 -2.84327e-18)
(-9.98851e-05 7.81101e-05 -6.4331e-19)
(-0.000100442 7.89915e-05 2.27892e-18)
(-0.0001009 7.9783e-05 3.54796e-18)
(-0.000101255 8.04768e-05 4.69097e-18)
(-0.000101565 8.11075e-05 5.75349e-18)
(-0.000102107 8.18683e-05 6.0456e-18)
(-0.000102966 8.29347e-05 5.93187e-18)
(-0.000103653 8.39964e-05 5.36282e-18)
(-0.000103874 8.47482e-05 4.36216e-18)
(-2.17961e-05 3.46119e-05 -5.65993e-18)
(-2.92176e-05 3.47276e-05 1.59894e-19)
(-3.05265e-05 3.56598e-05 -1.71e-18)
(-3.24993e-05 3.70956e-05 -9.2356e-19)
(-3.4739e-05 3.88104e-05 6.39644e-19)
(-3.71301e-05 4.06907e-05 5.71756e-19)
(-3.9616e-05 4.26753e-05 6.12909e-19)
(-4.2158e-05 4.47254e-05 9.08817e-19)
(-4.47269e-05 4.68141e-05 2.00294e-18)
(-4.73004e-05 4.89207e-05 1.80097e-18)
(-4.98608e-05 5.10292e-05 9.99158e-19)
(-5.23945e-05 5.31264e-05 1.11654e-18)
(-5.48908e-05 5.52019e-05 7.82596e-19)
(-5.73411e-05 5.7247e-05 1.37217e-19)
(-5.97385e-05 5.92545e-05 1.56059e-19)
(-6.20774e-05 6.12183e-05 -1.36302e-20)
(-6.43535e-05 6.31334e-05 -6.12249e-20)
(-6.65631e-05 6.49955e-05 3.92839e-19)
(-6.87033e-05 6.68009e-05 1.37941e-18)
(-7.07717e-05 6.85467e-05 1.54102e-18)
(-7.27666e-05 7.023e-05 1.74117e-18)
(-7.46862e-05 7.18485e-05 2.32741e-18)
(-7.65296e-05 7.34004e-05 2.48569e-18)
(-7.82959e-05 7.4884e-05 2.77663e-18)
(-7.99845e-05 7.62979e-05 2.33682e-18)
(-8.15948e-05 7.76411e-05 1.60689e-18)
(-8.31264e-05 7.89128e-05 1.32833e-18)
(-8.4579e-05 8.01124e-05 1.0523e-18)
(-8.5952e-05 8.12394e-05 1.07647e-18)
(-8.72446e-05 8.22934e-05 1.1676e-18)
(-8.84561e-05 8.32738e-05 1.08564e-18)
(-8.95852e-05 8.41795e-05 1.00053e-18)
(-9.06311e-05 8.50095e-05 1.09811e-18)
(-9.15928e-05 8.57617e-05 1.75717e-18)
(-9.24697e-05 8.6434e-05 2.22039e-18)
(-9.32621e-05 8.70238e-05 3.11482e-18)
(-9.39716e-05 8.7528e-05 4.16674e-18)
(-9.46047e-05 8.79452e-05 4.73143e-18)
(-9.51962e-05 8.83249e-05 5.45595e-18)
(-9.58758e-05 8.88841e-05 5.72434e-18)
(-9.65703e-05 8.96171e-05 5.75733e-18)
(-9.70256e-05 9.02443e-05 4.59174e-18)
(-2.18891e-05 3.38516e-05 -3.39695e-18)
(-2.82227e-05 3.49263e-05 -4.64667e-20)
(-2.92424e-05 3.59095e-05 -7.05064e-19)
(-3.10215e-05 3.71707e-05 1.41251e-19)
(-3.321e-05 3.86833e-05 1.08242e-18)
(-3.56279e-05 4.03739e-05 9.11002e-19)
(-3.81809e-05 4.21851e-05 7.1488e-19)
(-4.08125e-05 4.40765e-05 1.40718e-18)
(-4.34846e-05 4.60188e-05 2.38391e-18)
(-4.61699e-05 4.79901e-05 2.23005e-18)
(-4.88478e-05 4.9973e-05 1.67423e-18)
(-5.15024e-05 5.19538e-05 1.00127e-18)
(-5.41216e-05 5.39211e-05 7.72306e-19)
(-5.66957e-05 5.58658e-05 6.66287e-19)
(-5.92169e-05 5.778e-05 3.99959e-19)
(-6.16793e-05 5.96574e-05 4.44355e-19)
(-6.40778e-05 6.14924e-05 1.07644e-19)
(-6.64085e-05 6.32806e-05 5.77615e-19)
(-6.86682e-05 6.50179e-05 1.24847e-18)
(-7.08544e-05 6.67011e-05 1.04016e-18)
(-7.29649e-05 6.83274e-05 1.49704e-18)
(-7.49982e-05 6.98942e-05 2.13722e-18)
(-7.69528e-05 7.13995e-05 2.1129e-18)
(-7.88279e-05 7.28416e-05 2.20466e-18)
(-8.06225e-05 7.4219e-05 2.34768e-18)
(-8.2336e-05 7.55305e-05 2.45619e-18)
(-8.39679e-05 7.6775e-05 2.67828e-18)
(-8.55177e-05 7.79519e-05 2.53478e-18)
(-8.69848e-05 7.90603e-05 2.33628e-18)
(-8.83686e-05 8.00996e-05 1.8971e-18)
(-8.96685e-05 8.10691e-05 1.74514e-18)
(-9.08837e-05 8.19679e-05 1.74495e-18)
(-9.20133e-05 8.27952e-05 1.75544e-18)
(-9.30562e-05 8.35498e-05 1.70723e-18)
(-9.40112e-05 8.42304e-05 1.98216e-18)
(-9.48766e-05 8.48356e-05 3.00257e-18)
(-9.56503e-05 8.5364e-05 3.26181e-18)
(-9.63292e-05 8.58142e-05 3.31959e-18)
(-9.6909e-05 8.61866e-05 3.44285e-18)
(-9.74899e-05 8.65687e-05 3.50543e-18)
(-9.80368e-05 8.70303e-05 3.21721e-18)
(-9.84042e-05 8.74971e-05 2.37243e-18)
(-2.15228e-05 3.29567e-05 1.72442e-19)
(-2.72821e-05 3.45266e-05 5.51995e-19)
(-2.82183e-05 3.57587e-05 2.06116e-19)
(-2.98769e-05 3.70201e-05 7.90787e-19)
(-3.20012e-05 3.84251e-05 1.15577e-18)
(-3.44151e-05 3.99742e-05 7.96459e-19)
(-3.70062e-05 4.16378e-05 9.11865e-19)
(-3.9703e-05 4.33849e-05 1.71081e-18)
(-4.24578e-05 4.51894e-05 2.1014e-18)
(-4.52372e-05 4.703e-05 2.0952e-18)
(-4.80169e-05 4.88898e-05 1.83787e-18)
(-5.07785e-05 5.07546e-05 1.05581e-18)
(-5.35079e-05 5.2613e-05 7.54552e-19)
(-5.61942e-05 5.44554e-05 9.22056e-19)
(-5.88287e-05 5.62739e-05 7.3859e-19)
(-6.14046e-05 5.80617e-05 8.7601e-19)
(-6.39165e-05 5.98131e-05 4.99097e-19)
(-6.63598e-05 6.15233e-05 1.08081e-18)
(-6.8731e-05 6.31882e-05 1.1909e-18)
(-7.10274e-05 6.48043e-05 1.22621e-18)
(-7.32465e-05 6.63686e-05 1.66806e-18)
(-7.53865e-05 6.78785e-05 2.04678e-18)
(-7.74459e-05 6.9332e-05 2.17813e-18)
(-7.94235e-05 7.0727e-05 2.335e-18)
(-8.13184e-05 7.20621e-05 2.67543e-18)
(-8.31296e-05 7.33359e-05 2.26958e-18)
(-8.48566e-05 7.45472e-05 1.8625e-18)
(-8.64987e-05 7.56952e-05 1.72657e-18)
(-8.80553e-05 7.67789e-05 1.73474e-18)
(-8.95259e-05 7.77977e-05 1.42888e-18)
(-9.09097e-05 7.87507e-05 1.57263e-18)
(-9.22059e-05 7.96372e-05 1.3683e-18)
(-9.34137e-05 8.04563e-05 1.28978e-18)
(-9.45318e-05 8.12071e-05 8.87296e-19)
(-9.55586e-05 8.18884e-05 1.00856e-18)
(-9.64921e-05 8.24989e-05 1.34717e-18)
(-9.73297e-05 8.30368e-05 1.26403e-18)
(-9.80681e-05 8.35003e-05 1.52685e-18)
(-9.87028e-05 8.38867e-05 1.61321e-18)
(-9.92546e-05 8.42081e-05 1.85951e-18)
(-9.96582e-05 8.44824e-05 1.5548e-18)
(-9.99047e-05 8.47582e-05 1.30354e-18)
(-2.09931e-05 3.19254e-05 2.29479e-18)
(-2.63553e-05 3.37428e-05 6.0478e-19)
(-2.7364e-05 3.5192e-05 -3.72391e-19)
(-2.89983e-05 3.65333e-05 4.06327e-19)
(-3.10909e-05 3.79111e-05 8.04966e-19)
(-3.34986e-05 3.93751e-05 5.17917e-19)
(-3.61129e-05 4.0928e-05 8.43836e-19)
(-3.88568e-05 4.2555e-05 1.75438e-18)
(-4.16763e-05 4.42379e-05 1.39748e-18)
(-4.45329e-05 4.59592e-05 1.26199e-18)
(-4.73986e-05 4.77035e-05 1.32364e-18)
(-5.02525e-05 4.94576e-05 4.47781e-19)
(-5.30785e-05 5.12106e-05 5.40886e-19)
(-5.58644e-05 5.29529e-05 8.49569e-19)
(-5.86003e-05 5.46767e-05 1.1068e-18)
(-6.12787e-05 5.6375e-05 1.56804e-18)
(-6.38934e-05 5.80422e-05 1.09843e-18)
(-6.64394e-05 5.96734e-05 8.18853e-19)
(-6.89129e-05 6.12642e-05 7.98986e-19)
(-7.13105e-05 6.28112e-05 1.49923e-18)
(-7.36298e-05 6.43112e-05 1.40337e-18)
(-7.58685e-05 6.57616e-05 1.22816e-18)
(-7.8025e-05 6.71601e-05 1.0789e-18)
(-8.00979e-05 6.85047e-05 1.06384e-18)
(-8.2086e-05 6.97938e-05 1.01422e-18)
(-8.39884e-05 7.1026e-05 5.55869e-19)
(-8.58042e-05 7.22e-05 4.24585e-19)
(-8.75327e-05 7.33147e-05 4.92763e-19)
(-8.91732e-05 7.43693e-05 1.32636e-19)
(-9.07251e-05 7.53629e-05 9.63536e-20)
(-9.21876e-05 7.62947e-05 8.9316e-20)
(-9.35597e-05 7.71639e-05 1.12083e-20)
(-9.48405e-05 7.79697e-05 -7.35299e-20)
(-9.60287e-05 7.87111e-05 3.31747e-20)
(-9.71225e-05 7.93872e-05 4.81383e-19)
(-9.812e-05 7.99965e-05 6.89033e-19)
(-9.90185e-05 8.05378e-05 1.04825e-18)
(-9.98148e-05 8.1009e-05 9.14568e-19)
(-0.000100505 8.14081e-05 1.11286e-18)
(-0.000101086 8.17328e-05 1.82077e-18)
(-0.000101442 8.19317e-05 2.08062e-18)
(-0.00010158 8.20434e-05 1.86052e-18)
(-2.03933e-05 3.07971e-05 4.32274e-19)
(-2.5433e-05 3.27281e-05 -5.62276e-19)
(-2.65929e-05 3.43204e-05 -9.74913e-19)
(-2.82814e-05 3.57481e-05 3.13885e-19)
(-3.03894e-05 3.71383e-05 7.68453e-19)
(-3.28095e-05 3.8559e-05 3.33306e-19)
(-3.54486e-05 4.00347e-05 6.79234e-19)
(-3.82325e-05 4.15666e-05 1.57724e-18)
(-4.11059e-05 4.31458e-05 1.39562e-18)
(-4.40277e-05 4.47607e-05 1.48697e-18)
(-4.69672e-05 4.63988e-05 1.78108e-18)
(-4.99013e-05 4.80491e-05 1.53e-18)
(-5.28124e-05 4.97013e-05 1.30527e-18)
(-5.56867e-05 5.13467e-05 1.38775e-18)
(-5.85135e-05 5.29777e-05 9.75661e-19)
(-6.12843e-05 5.45877e-05 5.68915e-19)
(-6.39922e-05 5.61709e-05 5.0979e-19)
(-6.66318e-05 5.77226e-05 1.76312e-19)
(-6.91987e-05 5.92385e-05 -6.72253e-20)
(-7.16894e-05 6.07149e-05 2.73922e-19)
(-7.41008e-05 6.21488e-05 7.05095e-19)
(-7.64307e-05 6.35374e-05 5.62888e-19)
(-7.8677e-05 6.48785e-05 7.71926e-19)
(-8.08383e-05 6.61699e-05 1.13641e-18)
(-8.29131e-05 6.74099e-05 7.5837e-19)
(-8.49004e-05 6.85971e-05 3.85595e-19)
(-8.67991e-05 6.97301e-05 2.50071e-19)
(-8.86084e-05 7.08078e-05 2.15041e-19)
(-9.03276e-05 7.18293e-05 -7.17221e-20)
(-9.19558e-05 7.27934e-05 -1.87109e-19)
(-9.34921e-05 7.36995e-05 -2.53254e-19)
(-9.49356e-05 7.45466e-05 2.62543e-20)
(-9.62851e-05 7.53339e-05 -6.83257e-20)
(-9.75392e-05 7.60604e-05 4.3633e-19)
(-9.86958e-05 7.67251e-05 6.55631e-19)
(-9.97529e-05 7.73266e-05 6.78842e-19)
(-0.000100707 7.78637e-05 7.13098e-19)
(-0.000101556 7.83344e-05 4.53516e-19)
(-0.000102293 7.87367e-05 6.50331e-19)
(-0.000102915 7.90682e-05 7.47545e-19)
(-0.000103302 7.92687e-05 4.93061e-19)
(-0.000103454 7.9341e-05 -1.37633e-20)
(-1.97718e-05 2.95875e-05 -2.97085e-18)
(-2.45302e-05 3.15586e-05 -1.07334e-18)
(-2.58724e-05 3.32291e-05 -1.0354e-18)
(-2.76642e-05 3.47195e-05 8.45962e-20)
(-2.9829e-05 3.61308e-05 5.63535e-19)
(-3.2287e-05 3.75302e-05 7.32578e-19)
(-3.49618e-05 3.89523e-05 9.20623e-19)
(-3.77874e-05 4.04095e-05 2.13072e-18)
(-4.07108e-05 4.19017e-05 2.30474e-18)
(-4.36907e-05 4.34229e-05 2.1666e-18)