/*--------------------------------*- C++ -*----------------------------------*\
  =========                 |
  \\      /  F ield         | OpenFOAM: The Open Source CFD Toolbox
   \\    /   O peration     | Website:  https://openfoam.org
    \\  /    A nd           | Version:  7
     \\/     M anipulation  |
\*---------------------------------------------------------------------------*/
FoamFile
{
    version     2.0;
    format      ascii;
    class       volScalarField;
    location    "264000";
    object      strainRate;
}
// * * * * * * * * * * * * * * * * * * * * * * * * * * * * * * * * * * * * * //

dimensions      [0 0 -1 0 0 0 0];

internalField   nonuniform List<scalar> 
4782
(
0.0916405
0.0948345
0.0982016
0.101754
0.105506
0.109472
0.113668
0.118111
0.12282
0.127816
0.0294196
0.0300249
0.030646
0.0312834
0.031938
0.0326103
0.0333012
0.0340113
0.0347415
0.0354927
0.0362673
0.0370701
0.0379055
0.0387723
0.0396683
0.0405926
0.0415454
0.0425277
0.0435408
0.0445864
0.0456663
0.0467824
0.0479368
0.0491317
0.0503694
0.0516523
0.0529831
0.0543645
0.0557994
0.0572908
0.0588421
0.0604568
0.0621387
0.0638918
0.0657204
0.0676292
0.0696231
0.0717077
0.0738886
0.0761721
0.078565
0.0810745
0.0837085
0.0864754
0.0893846
0.0924459
0.0956701
0.0990689
0.102655
0.106442
0.110445
0.114679
0.119163
0.123915
0.128955
0.0296603
0.0302705
0.0308967
0.0315395
0.0321995
0.0328776
0.0335743
0.0342905
0.035027
0.0357849
0.0365681
0.0373823
0.0382287
0.0391048
0.0400091
0.0409412
0.0419019
0.0428922
0.0439136
0.044968
0.046057
0.0471828
0.0483474
0.0495531
0.050802
0.0520968
0.05344
0.0548344
0.0562828
0.0577885
0.0593546
0.0609849
0.062683
0.0644531
0.0662996
0.068227
0.0702406
0.0723456
0.074548
0.076854
0.0792705
0.0818047
0.0844647
0.0872589
0.0901967
0.0932881
0.0965439
0.0999758
0.103597
0.10742
0.111461
0.115736
0.120262
0.125058
0.130145
0.029909
0.0305243
0.0311557
0.0318039
0.0324697
0.0331537
0.0338567
0.0345795
0.035323
0.0360895
0.0368839
0.0377103
0.0385672
0.0394521
0.0403642
0.0413038
0.0422721
0.0432703
0.0443003
0.0453636
0.0464622
0.0475981
0.0487734
0.0499903
0.0512511
0.0525583
0.0539146
0.0553225
0.0567852
0.0583058
0.0598876
0.0615341
0.0632493
0.0650373
0.0669025
0.0688495
0.0708835
0.0730101
0.0752349
0.0775646
0.0800058
0.082566
0.0852532
0.088076
0.0910438
0.0941667
0.0974555
0.100922
0.104579
0.108441
0.112522
0.116839
0.121409
0.126252
0.131387
0.0301911
0.0308108
0.0314466
0.0320993
0.0327695
0.033458
0.0341659
0.0348967
0.0356543
0.0364389
0.0372494
0.0380859
0.0389486
0.0398382
0.0407552
0.0417007
0.0426758
0.0436818
0.0447203
0.0457929
0.0469014
0.0480478
0.0492342
0.0504628
0.0517358
0.0530559
0.0544255
0.0558475
0.057325
0.0588609
0.0604588
0.0621223
0.0638552
0.0656617
0.0675463
0.0695137
0.0715691
0.073718
0.0759663
0.0783206
0.0807877
0.083375
0.0860907
0.0889434
0.0919426
0.0950984
0.0984219
0.101925
0.10562
0.109522
0.113645
0.118007
0.122623
0.127514
0.132699
0.0301911
0.0308108
0.0314466
0.0320993
0.0327695
0.033458
0.0341659
0.0348967
0.0356543
0.0364389
0.0372494
0.0380859
0.0389486
0.0398382
0.0407552
0.0417007
0.0426758
0.0436818
0.0447203
0.0457929
0.0469014
0.0480478
0.0492342
0.0504628
0.0517358
0.0530559
0.0544255
0.0558475
0.057325
0.0588609
0.0604588
0.0621223
0.0638552
0.0656617
0.0675463
0.0695137
0.0715691
0.073718
0.0759663
0.0783206
0.0807877
0.083375
0.0860907
0.0889434
0.0919426
0.0950984
0.0984219
0.101925
0.10562
0.109522
0.113645
0.118007
0.122623
0.127514
0.132699
0.029909
0.0305243
0.0311557
0.0318039
0.0324697
0.0331537
0.0338567
0.0345795
0.035323
0.0360895
0.0368839
0.0377103
0.0385672
0.0394521
0.0403642
0.0413038
0.0422721
0.0432703
0.0443003
0.0453636
0.0464622
0.0475981
0.0487734
0.0499903
0.0512511
0.0525583
0.0539146
0.0553225
0.0567852
0.0583058
0.0598876
0.0615341
0.0632494
0.0650373
0.0669025
0.0688495
0.0708835
0.0730101
0.075235
0.0775646
0.0800058
0.082566
0.0852532
0.088076
0.0910438
0.0941667
0.0974555
0.100922
0.104579
0.108441
0.112522
0.116839
0.121409
0.126252
0.131387
0.136836
0.142623
0.148774
0.155316
0.0296603
0.0302705
0.0308967
0.0315395
0.0321995
0.0328776
0.0335743
0.0342905
0.035027
0.0357849
0.0365681
0.0373823
0.0382287
0.0391048
0.0400091
0.0409412
0.0419019
0.0428922
0.0439136
0.044968
0.046057
0.0471828
0.0483474
0.0495531
0.050802
0.0520968
0.05344
0.0548344
0.0562828
0.0577885
0.0593546
0.0609849
0.062683
0.0644532
0.0662996
0.0682271
0.0702406
0.0723456
0.074548
0.076854
0.0792705
0.0818047
0.0844647
0.087259
0.0901967
0.0932881
0.0965439
0.0999758
0.103597
0.10742
0.111461
0.115736
0.120262
0.125058
0.130145
0.135544
0.141279
0.147375
0.15386
0.160761
0.0294196
0.0300249
0.030646
0.0312834
0.031938
0.0326103
0.0333012
0.0340113
0.0347415
0.0354927
0.0362673
0.0370701
0.0379055
0.0387723
0.0396683
0.0405926
0.0415454
0.0425277
0.0435408
0.0445864
0.0456663
0.0467824
0.0479368
0.0491317
0.0503694
0.0516523
0.0529831
0.0543645
0.0557994
0.0572908
0.0588421
0.0604568
0.0621387
0.0638918
0.0657204
0.0676292
0.0696231
0.0717077
0.0738886
0.0761721
0.078565
0.0810745
0.0837085
0.0864755
0.0893846
0.0924459
0.0956701
0.0990689
0.102655
0.106442
0.110445
0.114679
0.119163
0.123915
0.128955
0.134305
0.13999
0.146033
0.152463
0.159308
0.166598
0.174366
0.182646
0.191471
0.200877
0.210898
0.221568
0.232918
0.244978
0.257776
0.271364
0.285958
0.301928
0.319364
0.337946
0.357357
0.377326
0.397484
0.41735
0.436362
0.453929
0.469516
0.482736
0.493416
0.501625
0.507635
0.51185
0.514716
0.516649
0.51799
0.518988
0.519807
0.520544
0.521245
0.521931
0.0291878
0.0297883
0.0304045
0.031037
0.0316863
0.0323533
0.0330386
0.033743
0.0344672
0.0352123
0.0359792
0.036772
0.0375967
0.0384542
0.0393418
0.0402582
0.0412033
0.0421778
0.0431828
0.04422
0.0452911
0.0463979
0.0475426
0.0487273
0.0499542
0.051226
0.052545
0.053914
0.055336
0.0568139
0.058351
0.0599509
0.0616173
0.0633542
0.0651658
0.0670569
0.0690322
0.0710973
0.0732577
0.0755198
0.0778902
0.080376
0.0829852
0.0857262
0.088608
0.0916405
0.0948345
0.0982016
0.101754
0.105506
0.109472
0.113668
0.118111
0.12282
0.127816
0.13312
0.138755
0.144748
0.151125
0.157914
0.165148
0.172858
0.181078
0.189842
0.199187
0.209148
0.219759
0.231052
0.243058
0.255806
0.269342
0.283843
0.299685
0.317036
0.335598
0.355024
0.375052
0.395317
0.415343
0.434564
0.45238
0.468237
0.481725
0.49265
0.501065
0.507233
0.51156
0.514499
0.516477
0.517843
0.518855
0.519684
0.520426
0.521133
0.521824
0.0289653
0.0295614
0.030173
0.0308006
0.031445
0.0321069
0.0327869
0.0334858
0.0342044
0.0349436
0.0357043
0.0364891
0.0373032
0.0381503
0.0390293
0.039938
0.0408756
0.0418427
0.0428401
0.0438693
0.044932
0.0460301
0.0471655
0.0483405
0.0495573
0.0508184
0.0521262
0.0534835
0.0548932
0.0563583
0.057882
0.0594679
0.0611195
0.062841
0.0646365
0.0665106
0.0684683
0.0705147
0.0726557
0.0748974
0.0772463
0.0797096
0.0822952
0.0850113
0.087867
0.0908721
0.0940372
0.097374
0.100895
0.104613
0.108544
0.112703
0.117107
0.121775
0.126728
0.131987
0.137575
0.143519
0.149845
0.156582
0.163761
0.171415
0.179577
0.188283
0.197569
0.20747
0.218023
0.229261
0.241214
0.253912
0.267396
0.281807
0.297524
0.314794
0.333332
0.352769
0.372849
0.393213
0.413389
0.432809
0.450863
0.466981
0.48073
0.491896
0.500512
0.506837
0.511275
0.514287
0.516308
0.5177
0.518727
0.519564
0.520312
0.521024
0.52172
0.0287528
0.0293446
0.0299517
0.0305748
0.0312146
0.0318716
0.0325466
0.0332403
0.0339536
0.0346873
0.0354422
0.0362196
0.0370239
0.0378612
0.0387318
0.0396328
0.0405633
0.0415231
0.0425132
0.0435348
0.0445896
0.0456793
0.046806
0.0479718
0.049179
0.0504299
0.0517272
0.0530734
0.0544715
0.0559244
0.0574354
0.0590079
0.0606456
0.0623524
0.0641326
0.0659906
0.0679315
0.0699603
0.0720827
0.074305
0.0766335
0.0790754
0.0816384
0.0843309
0.0871617
0.0901407
0.0932783
0.0965861
0.100076
0.103763
0.10766
0.111783
0.11615
0.12078
0.125692
0.130908
0.136451
0.142348
0.148625
0.155311
0.162438
0.170037
0.178144
0.186793
0.196022
0.205867
0.216364
0.227548
0.239449
0.252098
0.265531
0.279855
0.295452
0.312641
0.331154
0.350598
0.370722
0.391177
0.411494
0.431103
0.449385
0.465753
0.479756
0.491156
0.49997
0.506448
0.510996
0.51408
0.516145
0.517562
0.518602
0.519447
0.520202
0.520919
0.521619
0.0285503
0.0291381
0.0297411
0.0303599
0.0309951
0.0316475
0.0323178
0.0330066
0.0337148
0.0344432
0.0351927
0.0359643
0.0367611
0.0375884
0.0384494
0.0393425
0.0402659
0.0412189
0.0422021
0.0432166
0.0442639
0.0453458
0.0464643
0.0476215
0.0488195
0.0500609
0.0513482
0.0526839
0.054071
0.0555124
0.0570113
0.0585712
0.0601956
0.0618886
0.0636542
0.065497
0.0674219
0.0694339
0.0715388
0.0737426
0.0760517
0.0784733
0.081015
0.0836849
0.0864921
0.0894462
0.0925578
0.0958381
0.0992995
0.102955
0.10682
0.11091
0.115242
0.119834
0.124707
0.129882
0.135383
0.141235
0.147465
0.154103
0.16118
0.168727
0.176781
0.185376
0.19455
0.204341
0.214784
0.225915
0.237766
0.250368
0.263752
0.277997
0.293483
0.310589
0.32907
0.348517
0.36868
0.389218
0.409665
0.429451
0.44795
0.464559
0.478806
0.490432
0.499439
0.506067
0.510722
0.513876
0.515985
0.517426
0.51848
0.519333
0.520094
0.520815
0.52152
0.0283583
0.0289422
0.0295412
0.030156
0.030787
0.0314351
0.0321009
0.0327851
0.0334885
0.034212
0.0349564
0.0357226
0.0365124
0.0373306
0.0381826
0.0390681
0.0399845
0.0409308
0.0419074
0.0429151
0.0439554
0.0450299
0.0461407
0.0472897
0.0484792
0.0497116
0.0509894
0.0523152
0.0536919
0.0551224
0.0566099
0.0581578
0.0597698
0.0614496
0.0632015
0.0650299
0.0669396
0.0689358
0.071024
0.0732103
0.0755011
0.0779034
0.0804248
0.0830734
0.0858582
0.0887888
0.0918755
0.0951297
0.0985636
0.102191
0.106025
0.110083
0.114381
0.118938
0.123774
0.12891
0.13437
0.14018
0.146366
0.152957
0.159986
0.167484
0.175486
0.18403
0.193152
0.202889
0.21328
0.22436
0.236164
0.24872
0.262063
0.276267
0.291675
0.308672
0.327088
0.346531
0.366728
0.38734
0.407907
0.427858
0.44656
0.463398
0.477878
0.489722
0.498916
0.50569
0.510449
0.513672
0.515822
0.517287
0.518355
0.519216
0.519982
0.520708
0.521418
0.0281768
0.0287571
0.0293525
0.0299634
0.0305905
0.0312345
0.031896
0.0325759
0.0332748
0.0339936
0.0347332
0.0354944
0.0362784
0.037089
0.0379322
0.0388096
0.039719
0.0406589
0.0416292
0.0426305
0.0436642
0.0447318
0.0458353
0.0469767
0.0481581
0.0493821
0.050651
0.0519675
0.0533344
0.0547547
0.0562315
0.0577681
0.0593683
0.0610357
0.0627747
0.0645895
0.0664849
0.0684662
0.0705387
0.0727085
0.074982
0.0773661
0.0798684
0.0824969
0.0852606
0.0881689
0.0912322
0.0944618
0.0978699
0.10147
0.105275
0.109303
0.11357
0.118093
0.122894
0.127993
0.133415
0.139184
0.145328
0.151876
0.158859
0.16631
0.174265
0.182759
0.191831
0.201518
0.211859
0.222891
0.234648
0.247162
0.260465
0.274628
0.289963
0.306854
0.325207
0.344644
0.364869
0.385548
0.406226
0.426331
0.445226
0.46228
0.476983
0.489036
0.49841
0.505325
0.510185
0.513475
0.515666
0.517154
0.518235
0.519104
0.519875
0.520606
0.521319
0.0280061
0.0285831
0.0291749
0.0297823
0.0304057
0.0310458
0.0317034
0.0323792
0.0330739
0.0337883
0.0345234
0.0352799
0.036059
0.0368632
0.0376979
0.0385671
0.0394697
0.0404034
0.0413678
0.0423631
0.0433906
0.0444517
0.0455484
0.0466827
0.0478566
0.0490727
0.0503333
0.0516411
0.0529988
0.0544095
0.0558762
0.0574023
0.0589914
0.0606473
0.062374
0.0641761
0.0660582
0.0680254
0.0700832
0.0722376
0.0744948
0.0768619
0.0793462
0.0819559
0.0846997
0.0875872
0.0906285
0.093835
0.0972187
0.100793
0.104572
0.108571
0.112808
0.1173
0.122068
0.127132
0.132518
0.138249
0.144353
0.15086
0.1578
0.165207
0.173116
0.181564
0.190588
0.200228
0.210522
0.221508
0.233221
0.245693
0.258958
0.273081
0.288346
0.305138
0.32343
0.342859
0.363107
0.383847
0.404626
0.424876
0.44395
0.461209
0.476124
0.488378
0.497924
0.504975
0.509933
0.513287
0.515518
0.517028
0.518122
0.518998
0.519774
0.520509
0.521226
0.0278463
0.0284201
0.0290088
0.0296128
0.0302327
0.0308693
0.0315232
0.0321952
0.032886
0.0335963
0.0343272
0.0350793
0.0358538
0.0366522
0.0374793
0.0383409
0.0392371
0.0401649
0.0411235
0.0421132
0.0431348
0.0441899
0.0452803
0.0464078
0.0475748
0.0487835
0.0500364
0.051336
0.0526852
0.0540869
0.0555443
0.0570605
0.0586393
0.0602844
0.0619998
0.06379
0.0656596
0.0676137
0.0696578
0.0717977
0.0740398
0.0763909
0.0788585
0.0814505
0.0841758
0.0870438
0.0900646
0.0932495
0.0966105
0.100161
0.103914
0.107887
0.112096
0.116559
0.121295
0.126328
0.131679
0.137375
0.143442
0.14991
0.15681
0.164176
0.172042
0.180445
0.189425
0.19902
0.209269
0.220211
0.231882
0.244315
0.257543
0.271629
0.286826
0.303525
0.321758
0.341178
0.361446
0.38224
0.403113
0.423496
0.442739
0.460191
0.475306
0.48775
0.49746
0.504641
0.509693
0.51311
0.515378
0.51691
0.518016
0.518899
0.51968
0.520419
0.52114
0.0276975
0.0282685
0.0288541
0.029455
0.0300717
0.030705
0.0313555
0.0320239
0.0327111
0.0334177
0.0341446
0.0348927
0.0356629
0.0364565
0.0372775
0.0381318
0.0390211
0.0399431
0.0408963
0.0418806
0.0428969
0.0439464
0.0450309
0.0461523
0.0473128
0.0485147
0.0497604
0.0510525
0.0523938
0.0537872
0.0552358
0.056743
0.0583122
0.0599472
0.0616521
0.0634312
0.0652893
0.0672312
0.0692625
0.071389
0.073617
0.0759533
0.0784053
0.080981
0.0836891
0.0865389
0.0895407
0.0927055
0.0960453
0.0995732
0.103304
0.107252
0.111434
0.11587
0.120578
0.12558
0.1309
0.136563
0.142595
0.149027
0.155889
0.163216
0.171041
0.179404
0.188342
0.197895
0.208102
0.219003
0.230634
0.243029
0.256222
0.270272
0.285407
0.302018
0.320196
0.339604
0.359889
0.380732
0.401691
0.422197
0.441596
0.459228
0.474532
0.487155
0.497022
0.504326
0.509467
0.512943
0.515247
0.5168
0.517917
0.518806
0.519592
0.520335
0.52106
0.0275599
0.0281282
0.028711
0.0293091
0.0299229
0.0305531
0.0312004
0.0318656
0.0325493
0.0332524
0.0339757
0.0347201
0.0354865
0.036276
0.0370917
0.0379392
0.0388218
0.0397382
0.0406863
0.0416657
0.042677
0.0437213
0.0448005
0.0459162
0.0470707
0.0482663
0.0495054
0.0507906
0.0521246
0.0535104
0.054951
0.0564497
0.0580101
0.0596358
0.061331
0.0630999
0.0649473
0.066878
0.0688975
0.0710116
0.0732266
0.0755493
0.0779869
0.0805475
0.0832396
0.0860727
0.0890568
0.092203
0.0955233
0.0990307
0.102739
0.106664
0.110823
0.115233
0.119915
0.124889
0.13018
0.135812
0.141812
0.14821
0.155038
0.162328
0.170116
0.178441
0.18734
0.196853
0.207021
0.217883
0.229477
0.241837
0.254997
0.269013
0.284089
0.300619
0.318744
0.338142
0.358441
0.379327
0.400363
0.420981
0.440526
0.458325
0.473804
0.486596
0.496609
0.50403
0.509256
0.512788
0.515126
0.516698
0.517826
0.518722
0.519511
0.520258
0.520986
0.0274335
0.0279994
0.0285797
0.0291751
0.0297862
0.0304136
0.0310581
0.0317202
0.0324009
0.0331008
0.0338208
0.0345618
0.0353246
0.0361104
0.0369213
0.0377626
0.0386392
0.0395504
0.0404938
0.0414686
0.0424753
0.0435149
0.0445891
0.0456997
0.0468487
0.0480386
0.0492716
0.0505504
0.0518778
0.0532565
0.0546898
0.0561808
0.057733
0.0593503
0.0610366
0.0627962
0.0646337
0.0665542
0.0685629
0.0706656
0.0728687
0.0751788
0.0776032
0.0801499
0.0828275
0.0856452
0.0886132
0.0917423
0.0950447
0.0985331
0.102222
0.106126
0.110263
0.11465
0.119307
0.124255
0.129519
0.135122
0.141093
0.147461
0.154256
0.161513
0.169267
0.177556
0.186419
0.195896
0.206028
0.216854
0.228413
0.240741
0.25387
0.267854
0.282875
0.29933
0.317407
0.336792
0.357103
0.378027
0.399133
0.419854
0.439531
0.457484
0.473126
0.486074
0.496224
0.503754
0.509059
0.512644
0.515014
0.516605
0.517742
0.518644
0.519438
0.520187
0.520918
0.0273185
0.0278821
0.0284601
0.0290531
0.0296617
0.0302866
0.0309285
0.0315879
0.0322658
0.0329628
0.0336798
0.0344177
0.0351773
0.0359597
0.0367663
0.0376022
0.0384733
0.0393799
0.0403189
0.0412895
0.0422919
0.0433272
0.0443969
0.0455027
0.0466468
0.0478314
0.049059
0.050332
0.0516533
0.0530257
0.0544522
0.0559362
0.0574811
0.0590907
0.0607689
0.06252
0.0643486
0.0662597
0.0682586
0.070351
0.0725432
0.0748419
0.0772544
0.0797885
0.0824528
0.0852565
0.0882097
0.0913234
0.0946094
0.0980807
0.101751
0.105636
0.109753
0.114119
0.118753
0.123679
0.128918
0.134496
0.140439
0.146778
0.153544
0.160771
0.168494
0.17675
0.18558
0.195024
0.205123
0.215916
0.227444
0.23974
0.252842
0.266796
0.281767
0.298153
0.316185
0.335559
0.355878
0.376836
0.398004
0.418818
0.438616
0.45671
0.472501
0.485593
0.495869
0.5035
0.508878
0.512512
0.514912
0.51652
0.517666
0.518573
0.519371
0.520123
0.520857
0.0272148
0.0277764
0.0283523
0.0289432
0.0295496
0.0301722
0.0308117
0.0314687
0.0321441
0.0328385
0.0335528
0.0342878
0.0350446
0.0358239
0.0366272
0.0374587
0.0383247
0.0392264
0.0401613
0.0411281
0.0421267
0.0431581
0.0442237
0.0453253
0.0464649
0.0476449
0.0488675
0.0501354
0.0514512
0.0528179
0.0542384
0.0557161
0.0572544
0.058857
0.0605279
0.0622714
0.064092
0.0659946
0.0679847
0.0700678
0.0722503
0.0745387
0.0769404
0.0794631
0.0821154
0.0849066
0.0878466
0.0909463
0.0942176
0.0976733
0.101328
0.105196
0.109294
0.113641
0.118255
0.12316
0.128376
0.133931
0.13985
0.146164
0.152904
0.160103
0.167797
0.176024
0.184825
0.194238
0.204306
0.21507
0.226568
0.238838
0.251913
0.26584
0.280766
0.29709
0.31508
0.334443
0.354769
0.375757
0.39698
0.417877
0.437783
0.456004
0.471931
0.485154
0.495545
0.503268
0.508714
0.512392
0.51482
0.516443
0.517598
0.51851
0.51931
0.520066
0.520802
0.0271225
0.0276823
0.0282564
0.0288454
0.0294499
0.0300704
0.0307078
0.0313627
0.0320358
0.0327278
0.0334397
0.0341723
0.0349265
0.0357032
0.0365036
0.0373316
0.038193
0.0390902
0.0400212
0.0409845
0.0419797
0.0430076
0.0440696
0.0451675
0.0463032
0.047479
0.0486973
0.0499605
0.0512715
0.0526331
0.0540483
0.0555204
0.0570528
0.0586493
0.0603137
0.0620504
0.0638639
0.065759
0.0677412
0.0698161
0.0719899
0.0742692
0.0766613
0.0791739
0.0818156
0.0845956
0.0875238
0.0906111
0.0938693
0.0973112
0.100951
0.104804
0.108886
0.113216
0.117812
0.122698
0.127895
0.133429
0.139327
0.145618
0.152333
0.159508
0.167177
0.175378
0.184152
0.193538
0.20358
0.214317
0.225789
0.238034
0.251085
0.264988
0.279874
0.296141
0.314095
0.333447
0.353779
0.374792
0.396064
0.417034
0.437035
0.45537
0.471418
0.484758
0.495253
0.503059
0.508566
0.512285
0.514737
0.516374
0.517537
0.518453
0.519257
0.520015
0.520754
0.0270417
0.0275999
0.0281724
0.0287597
0.0293625
0.0299813
0.0306168
0.0312698
0.0319409
0.032631
0.0333408
0.0340712
0.0348231
0.0355975
0.0363955
0.0372203
0.0380777
0.038971
0.0398987
0.0408589
0.041851
0.0428759
0.0439348
0.0450294
0.0461617
0.0473338
0.0485483
0.0498075
0.0511143
0.0524714
0.053882
0.0553492
0.0568764
0.0584675
0.0601263
0.061857
0.0636642
0.0655529
0.0675282
0.0695959
0.071762
0.0740334
0.076417
0.0789208
0.0815532
0.0843234
0.0872413
0.0903177
0.0935645
0.0969944
0.100621
0.104461
0.108529
0.112844
0.117425
0.122294
0.127474
0.132989
0.138868
0.145139
0.151834
0.158987
0.166634
0.174812
0.183563
0.192925
0.202943
0.213656
0.225106
0.237328
0.250359
0.264241
0.27909
0.295309
0.31323
0.332572
0.352908
0.373943
0.395257
0.41629
0.436376
0.45481
0.470964
0.484408
0.494995
0.502875
0.508436
0.51219
0.514665
0.516314
0.517484
0.518404
0.51921
0.51997
0.520711
0.0269724
0.0275293
0.0281004
0.0286863
0.0292876
0.0299049
0.0305388
0.0311902
0.0318596
0.0325479
0.0332559
0.0339845
0.0347344
0.0355068
0.0363027
0.0371249
0.0379789
0.0388689
0.0397937
0.0407512
0.0417408
0.0427631
0.0438193
0.044911
0.0460403
0.0472094
0.0484205
0.0496764
0.0509795
0.0523328
0.0537394
0.0552024
0.0567252
0.0583117
0.0599656
0.0616913
0.0634931
0.0653762
0.0673456
0.0694071
0.0715667
0.0738312
0.0762077
0.0787039
0.0813283
0.0840901
0.0869992
0.0900663
0.0933032
0.0967228
0.100339
0.104167
0.108223
0.112525
0.117093
0.121947
0.127112
0.132612
0.138475
0.144729
0.151406
0.158541
0.166168
0.174327
0.183057
0.192399
0.202396
0.213089
0.224519
0.236723
0.249735
0.263598
0.278417
0.294594
0.312486
0.331819
0.352159
0.373212
0.394561
0.415649
0.435806
0.454326
0.470572
0.484106
0.494772
0.502716
0.508323
0.512109
0.514602
0.516263
0.517438
0.518362
0.51917
0.519932
0.520675
0.0269145
0.0274703
0.0280403
0.028625
0.0292251
0.0298411
0.0304738
0.0311238
0.0317918
0.0324787
0.0331852
0.0339122
0.0346606
0.0354313
0.0362254
0.0370454
0.0378966
0.0387838
0.0397062
0.0406615
0.0416489
0.042669
0.0437229
0.0448124
0.0459392
0.0471057
0.0483141
0.049567
0.0508672
0.0522173
0.0536205
0.05508
0.0565992
0.0581818
0.0598317
0.0615531
0.0633506
0.0652289
0.0671934
0.0692497
0.071404
0.0736628
0.0760332
0.0785232
0.0811409
0.0838957
0.0867974
0.0898568
0.0930855
0.0964965
0.100103
0.103922
0.107968
0.112259
0.116816
0.121659
0.126811
0.132298
0.138147
0.144387
0.151049
0.158168
0.16578
0.173922
0.182635
0.191961
0.20194
0.212616
0.224029
0.236217
0.249215
0.263062
0.277855
0.293997
0.311866
0.331191
0.351533
0.3726
0.393979
0.415112
0.435329
0.453919
0.470243
0.483851
0.494584
0.502582
0.508228
0.512041
0.51455
0.51622
0.5174
0.518327
0.519137
0.519901
0.520645
0.0268683
0.0274232
0.0279922
0.028576
0.0291751
0.0297901
0.0304217
0.0310706
0.0317376
0.0324233
0.0331286
0.0338543
0.0346014
0.0353708
0.0361636
0.0369818
0.0378307
0.0387157
0.0396362
0.0405897
0.0415754
0.0425938
0.0436459
0.0447334
0.0458583
0.0470227
0.0482289
0.0494796
0.0507773
0.0521249
0.0535254
0.0549821
0.0564984
0.0580779
0.0597246
0.0614426
0.0632365
0.0651111
0.0670716
0.0691238
0.0712737
0.073528
0.0758936
0.0783785
0.080991
0.0837402
0.086636
0.0896891
0.0929113
0.0963154
0.0999151
0.103726
0.107763
0.112046
0.116594
0.121428
0.12657
0.132047
0.137885
0.144113
0.150764
0.157871
0.165469
0.173598
0.182298
0.19161
0.201576
0.212238
0.223638
0.235813
0.248798
0.262633
0.277405
0.293519
0.311368
0.330687
0.351031
0.37211
0.393511
0.41468
0.434945
0.453593
0.469977
0.483647
0.494433
0.502474
0.508152
0.511986
0.514508
0.516185
0.51737
0.518298
0.51911
0.519875
0.52062
0.0268335
0.0273878
0.0279562
0.0285392
0.0291376
0.0297518
0.0303827
0.0310308
0.0316968
0.0323817
0.0330861
0.0338109
0.0345571
0.0353255
0.0361172
0.036934
0.0377813
0.0386646
0.0395837
0.0405358
0.0415203
0.0425373
0.0435881
0.0446742
0.0457976
0.0469604
0.048165
0.0494139
0.0507098
0.0520555
0.0534541
0.0549087
0.0564227
0.0579999
0.0596442
0.0613596
0.0631508
0.0650226
0.0669803
0.0690294
0.071176
0.0734268
0.0757889
0.07827
0.0808785
0.0836234
0.0865148
0.0895633
0.0927806
0.0961795
0.0997737
0.103579
0.10761
0.111887
0.116428
0.121254
0.126389
0.131858
0.137688
0.143908
0.15055
0.157647
0.165236
0.173355
0.182045
0.191346
0.201302
0.211954
0.223344
0.235509
0.248486
0.262311
0.277072
0.293167
0.310999
0.330309
0.350654
0.371741
0.39316
0.414355
0.434656
0.453346
0.469777
0.483491
0.494318
0.502392
0.508094
0.511943
0.514476
0.516158
0.517346
0.518276
0.519089
0.519855
0.520601
0.0268104
0.0273642
0.0279321
0.0285147
0.0291126
0.0297263
0.0303566
0.0310042
0.0316697
0.032354
0.0330578
0.033782
0.0345275
0.0352952
0.0360862
0.0369022
0.0377483
0.0386305
0.0395487
0.0404999
0.0414835
0.0424997
0.0435495
0.0446347
0.0457571
0.0469189
0.0481224
0.0493702
0.0506648
0.0520093
0.0534065
0.0548597
0.0563723
0.0579479
0.0595905
0.0613043
0.0630937
0.0649637
0.0669193
0.0689663
0.0711108
0.0733593
0.075719
0.0781976
0.0808034
0.0835455
0.086434
0.0894793
0.0926934
0.0960888
0.0996794
0.10348
0.107508
0.11178
0.116317
0.121139
0.126269
0.131732
0.137557
0.143771
0.150407
0.157498
0.16508
0.173193
0.181876
0.19117
0.201119
0.211764
0.223147
0.235306
0.248277
0.262097
0.276852
0.292938
0.310755
0.330058
0.350402
0.371495
0.392925
0.414138
0.434462
0.453181
0.469642
0.483387
0.49424
0.502336
0.508054
0.511914
0.514453
0.516139
0.517329
0.518261
0.519074
0.519841
0.520587
0.0267988
0.0273524
0.0279201
0.0285024
0.0291001
0.0297136
0.0303436
0.0309909
0.0316561
0.0323401
0.0330436
0.0337675
0.0345127
0.0352801
0.0360707
0.0368863
0.0377319
0.0386135
0.0395311
0.040482
0.0414651
0.0424808
0.0435303
0.044615
0.0457369
0.0468981
0.0481011
0.0493483
0.0506423
0.0519861
0.0533827
0.0548352
0.056347
0.0579219
0.0595637
0.0612766
0.0630652
0.0649341
0.0668888
0.0689348
0.0710782
0.0733256
0.075684
0.0781613
0.0807658
0.0835066
0.0863935
0.0894373
0.0926497
0.0960434
0.0996322
0.103431
0.107457
0.111727
0.116261
0.121081
0.126208
0.13167
0.137491
0.143702
0.150335
0.157423
0.165003
0.173112
0.181791
0.191082
0.201027
0.211669
0.223049
0.235205
0.248173
0.26199
0.276742
0.292823
0.310634
0.329932
0.350277
0.371372
0.392807
0.414029
0.434365
0.453098
0.469575
0.483335
0.494202
0.502308
0.508034
0.511899
0.514442
0.51613
0.51732
0.518253
0.519067
0.519833
0.52058
0.0267988
0.0273524
0.0279201
0.0285024
0.0291001
0.0297135
0.0303436
0.0309909
0.0316561
0.0323401
0.0330436
0.0337675
0.0345127
0.0352801
0.0360707
0.0368863
0.0377319
0.0386135
0.0395311
0.040482
0.0414651
0.0424808
0.0435303
0.044615
0.0457369
0.0468981
0.0481011
0.0493483
0.0506423
0.0519861
0.0533827
0.0548352
0.056347
0.0579219
0.0595637
0.0612766
0.0630652
0.0649341
0.0668888
0.0689348
0.0710782
0.0733256
0.075684
0.0781613
0.0807658
0.0835066
0.0863935
0.0894373
0.0926497
0.0960434
0.0996322
0.103431
0.107457
0.111727
0.116261
0.121081
0.126208
0.13167
0.137491
0.143702
0.150335
0.157423
0.165003
0.173112
0.181791
0.191082
0.201027
0.211669
0.223049
0.235205
0.248173
0.26199
0.276742
0.292823
0.310634
0.329932
0.350277
0.371372
0.392807
0.414029
0.434365
0.453098
0.469575
0.483335
0.494202
0.502308
0.508034
0.511899
0.514442
0.51613
0.51732
0.518253
0.519067
0.519833
0.52058
0.0268104
0.0273642
0.0279321
0.0285147
0.0291126
0.0297263
0.0303566
0.0310042
0.0316697
0.032354
0.0330578
0.033782
0.0345275
0.0352952
0.0360862
0.0369022
0.0377483
0.0386305
0.0395487
0.0404999
0.0414835
0.0424997
0.0435495
0.0446347
0.0457571
0.0469189
0.0481224
0.0493702
0.0506648
0.0520093
0.0534065
0.0548597
0.0563723
0.0579479
0.0595905
0.0613043
0.0630937
0.0649637
0.0669193
0.0689663
0.0711108
0.0733593
0.075719
0.0781976
0.0808034
0.0835455
0.0864339
0.0894793
0.0926934
0.0960888
0.0996794
0.10348
0.107508
0.11178
0.116317
0.121139
0.126269
0.131732
0.137557
0.143771
0.150407
0.157498
0.16508
0.173193
0.181876
0.19117
0.201119
0.211764
0.223147
0.235306
0.248277
0.262097
0.276852
0.292938
0.310755
0.330058
0.350402
0.371495
0.392925
0.414138
0.434462
0.453181
0.469642
0.483387
0.49424
0.502336
0.508054
0.511914
0.514453
0.516139
0.517329
0.518261
0.519074
0.519841
0.520587
0.0268335
0.0273878
0.0279562
0.0285392
0.0291376
0.0297518
0.0303827
0.0310308
0.0316968
0.0323817
0.0330861
0.0338109
0.0345571
0.0353255
0.0361172
0.036934
0.0377813
0.0386646
0.0395837
0.0405359
0.0415203
0.0425373
0.0435881
0.0446742
0.0457976
0.0469604
0.048165
0.0494139
0.0507098
0.0520555
0.0534541
0.0549087
0.0564227
0.0579999
0.0596442
0.0613596
0.0631508
0.0650226
0.0669803
0.0690294
0.071176
0.0734268
0.0757889
0.07827
0.0808785
0.0836234
0.0865148
0.0895633
0.0927806
0.0961795
0.0997737
0.103579
0.10761
0.111887
0.116428
0.121254
0.126389
0.131858
0.137688
0.143908
0.15055
0.157647
0.165236
0.173355
0.182045
0.191346
0.201302
0.211954
0.223344
0.235509
0.248486
0.262311
0.277072
0.293167
0.310999
0.330309
0.350654
0.371741
0.39316
0.414355
0.434656
0.453346
0.469777
0.483491
0.494318
0.502392
0.508094
0.511943
0.514476
0.516158
0.517346
0.518276
0.519089
0.519855
0.520601
0.0268683
0.0274232
0.0279922
0.028576
0.0291751
0.0297901
0.0304217
0.0310706
0.0317376
0.0324233
0.0331286
0.0338543
0.0346014
0.0353708
0.0361636
0.0369818
0.0378307
0.0387157
0.0396362
0.0405897
0.0415754
0.0425938
0.0436459
0.0447334
0.0458583
0.0470227
0.0482289
0.0494796
0.0507773
0.0521249
0.0535254
0.0549821
0.0564984
0.0580779
0.0597246
0.0614426
0.0632365
0.0651111
0.0670716
0.0691238
0.0712737
0.073528
0.0758936
0.0783785
0.080991
0.0837402
0.086636
0.0896891
0.0929113
0.0963154
0.0999151
0.103726
0.107763
0.112046
0.116594
0.121428
0.12657
0.132047
0.137885
0.144113
0.150764
0.157871
0.165469
0.173598
0.182298
0.19161
0.201576
0.212238
0.223638
0.235813
0.248798
0.262633
0.277405
0.293519
0.311368
0.330687
0.351031
0.37211
0.393511
0.41468
0.434945
0.453593
0.469977
0.483647
0.494433
0.502474
0.508152
0.511986
0.514508
0.516185
0.51737
0.518298
0.51911
0.519875
0.52062
0.0269145
0.0274703
0.0280403
0.028625
0.0292251
0.0298411
0.0304738
0.0311238
0.0317918
0.0324787
0.0331852
0.0339122
0.0346606
0.0354313
0.0362254
0.0370454
0.0378966
0.0387838
0.0397062
0.0406615
0.0416489
0.042669
0.043723
0.0448124
0.0459392
0.0471057
0.0483141
0.049567
0.0508672
0.0522173
0.0536205
0.05508
0.0565992
0.0581818
0.0598317
0.0615531
0.0633506
0.0652289
0.0671934
0.0692497
0.071404
0.0736628
0.0760332
0.0785232
0.0811409
0.0838957
0.0867974
0.0898568
0.0930855
0.0964965
0.100103
0.103922
0.107968
0.112259
0.116816
0.121659
0.126811
0.132298
0.138147
0.144387
0.151049
0.158168
0.16578
0.173922
0.182635
0.191961
0.20194
0.212616
0.224029
0.236217
0.249215
0.263062
0.277855
0.293997
0.311866
0.331191
0.351533
0.3726
0.393979
0.415112
0.435329
0.453919
0.470243
0.483851
0.494584
0.502582
0.508228
0.512041
0.51455
0.51622
0.5174
0.518327
0.519137
0.519901
0.520645
0.0269724
0.0275293
0.0281004
0.0286863
0.0292876
0.0299049
0.0305388
0.0311902
0.0318596
0.0325479
0.0332559
0.0339845
0.0347345
0.0355068
0.0363027
0.0371249
0.0379789
0.0388689
0.0397937
0.0407512
0.0417408
0.0427631
0.0438193
0.044911
0.0460403
0.0472094
0.0484205
0.0496764
0.0509795
0.0523328
0.0537394
0.0552024
0.0567252
0.0583117
0.0599656
0.0616913
0.0634931
0.0653762
0.0673456
0.0694071
0.0715667
0.0738312
0.0762077
0.0787039
0.0813283
0.0840901
0.0869992
0.0900663
0.0933032
0.0967228
0.100339
0.104167
0.108223
0.112525
0.117093
0.121947
0.127112
0.132612
0.138475
0.144729
0.151406
0.158541
0.166168
0.174327
0.183057
0.192399
0.202396
0.213089
0.224519
0.236723
0.249735
0.263598
0.278417
0.294594
0.312486
0.331819
0.352159
0.373212
0.394561
0.415649
0.435806
0.454326
0.470572
0.484106
0.494772
0.502716
0.508323
0.512109
0.514602
0.516263
0.517438
0.518362
0.51917
0.519932
0.520675
0.0270417
0.0275999
0.0281724
0.0287598
0.0293625
0.0299813
0.0306169
0.0312698
0.0319409
0.032631
0.0333408
0.0340712
0.0348231
0.0355975
0.0363955
0.0372203
0.0380777
0.038971
0.0398987
0.0408589
0.041851
0.0428759
0.0439348
0.0450294
0.0461617
0.0473338
0.0485483
0.0498075
0.0511143
0.0524714
0.053882
0.0553492