/*--------------------------------*- C++ -*----------------------------------*\
  =========                 |
  \\      /  F ield         | OpenFOAM: The Open Source CFD Toolbox
   \\    /   O peration     | Website:  https://openfoam.org
    \\  /    A nd           | Version:  7
     \\/     M anipulation  |
\*---------------------------------------------------------------------------*/
FoamFile
{
    version     2.0;
    format      ascii;
    class       volScalarField;
    location    "44000";
    object      strainRate;
}
// * * * * * * * * * * * * * * * * * * * * * * * * * * * * * * * * * * * * * //

dimensions      [0 0 -1 0 0 0 0];

internalField   nonuniform List<scalar> 
4782
(
0.0903398
0.0923866
0.0944054
0.0963968
0.098361
0.100298
0.10221
0.104095
0.105954
0.107788
0.000322747
0.000310084
0.000293768
0.000277821
0.00026774
0.000270909
0.000297976
0.000367267
0.000514437
0.000809424
0.00137734
0.00240231
0.00407578
0.00648294
0.00951842
0.0129296
0.0164509
0.0199064
0.0232253
0.0264036
0.0294638
0.0324311
0.0353256
0.0381603
0.0409438
0.0436811
0.0463755
0.0490292
0.0516437
0.0542203
0.0567599
0.0592634
0.0617316
0.0641651
0.0665646
0.0689307
0.071264
0.073565
0.0758342
0.0780721
0.0802792
0.082456
0.084603
0.0867205
0.0888091
0.0908692
0.0929011
0.0949052
0.0968821
0.098832
0.100755
0.102653
0.104524
0.10637
0.108191
0.000321736
0.000306588
0.00028915
0.000274232
0.000267954
0.000278588
0.000318889
0.000412186
0.000604579
0.000984263
0.00169953
0.002946
0.00488843
0.00754475
0.0107435
0.0142124
0.0177134
0.0211126
0.0243692
0.0274929
0.0305085
0.0334398
0.036304
0.0391122
0.0418714
0.0445858
0.0472584
0.049891
0.052485
0.0550415
0.0575615
0.0600458
0.0624951
0.06491
0.0672913
0.0696394
0.071955
0.0742385
0.0764905
0.0787116
0.080902
0.0830625
0.0851933
0.0872949
0.0893677
0.0914123
0.093429
0.0954181
0.0973801
0.0993155
0.101224
0.103107
0.104965
0.106797
0.108604
0.000318792
0.000301838
0.000284293
0.000271671
0.000270776
0.00029115
0.000348636
0.000473515
0.000725491
0.00121425
0.00210997
0.00360806
0.00582783
0.00871202
0.0120362
0.0155292
0.0189909
0.0223278
0.025523
0.0285949
0.0315687
0.0344657
0.0373006
0.0400826
0.0428176
0.0455092
0.0481598
0.050771
0.0533442
0.0558804
0.0583804
0.0608451
0.0632751
0.0656712
0.0680338
0.0703636
0.0726612
0.074927
0.0771616
0.0793654
0.0815389
0.0836826
0.0857969
0.0878823
0.0899392
0.091968
0.0939691
0.0959429
0.0978899
0.0998103
0.101705
0.103573
0.105416
0.107234
0.109028
0.000314208
0.000296123
0.0002796
0.000270784
0.000277297
0.00031056
0.000390893
0.000558082
0.000888993
0.00151686
0.00262831
0.00440166
0.0068939
0.00997423
0.0133851
0.0168748
0.020286
0.02356
0.0266978
0.0297223
0.0326578
0.0355229
0.0383299
0.0410867
0.0437981
0.046467
0.0490957
0.0516857
0.054238
0.0567537
0.0592337
0.0616786
0.0640892
0.0664661
0.0688098
0.0711211
0.0734003
0.075648
0.0778647
0.0800509
0.082207
0.0843336
0.086431
0.0884997
0.0905402
0.0925527
0.0945378
0.0964958
0.0984271
0.100332
0.102211
0.104065
0.105893
0.107697
0.109476
0.000314382
0.00029632
0.000279799
0.000270974
0.000277477
0.000310737
0.000391077
0.000558287
0.000889229
0.00151713
0.00262859
0.00440191
0.00689408
0.00997431
0.0133851
0.0168747
0.0202858
0.0235599
0.0266977
0.0297222
0.0326577
0.0355228
0.0383298
0.0410866
0.043798
0.046467
0.0490957
0.0516856
0.0542379
0.0567537
0.0592336
0.0616785
0.0640891
0.066466
0.0688098
0.071121
0.0734002
0.0756479
0.0778646
0.0800508
0.082207
0.0843336
0.086431
0.0884997
0.0905401
0.0925527
0.0945377
0.0964958
0.0984271
0.100332
0.102211
0.104065
0.105893
0.107697
0.109476
0.000319385
0.000302488
0.000284929
0.000272257
0.000271304
0.000291638
0.000349113
0.000474015
0.000726048
0.00121488
0.00211066
0.00360871
0.00582833
0.00871228
0.0120363
0.0155291
0.0189907
0.0223274
0.0255227
0.0285945
0.0315684
0.0344654
0.0373003
0.0400824
0.0428174
0.045509
0.0481596
0.0507708
0.053344
0.0558801
0.0583802
0.0608449
0.0632749
0.065671
0.0680336
0.0703634
0.072661
0.0749268
0.0771614
0.0793652
0.0815387
0.0836824
0.0857968
0.0878822
0.089939
0.0919678
0.0939689
0.0959428
0.0978897
0.0998102
0.101704
0.103573
0.105416
0.107234
0.109028
0.110797
0.112542
0.114264
0.115962
0.000323074
0.000307927
0.000290362
0.000275264
0.000268814
0.000279317
0.000319544
0.000412824
0.000605253
0.000985007
0.00170033
0.00294679
0.00488908
0.00754513
0.0107436
0.0142122
0.017713
0.0211121
0.0243687
0.0274924
0.0305081
0.0334394
0.0363035
0.0391117
0.0418709
0.0445854
0.047258
0.0498906
0.0524846
0.0550412
0.0575611
0.0600454
0.0624947
0.0649096
0.0672909
0.069639
0.0719546
0.0742382
0.0764902
0.0787112
0.0809017
0.0830621
0.0851929
0.0872946
0.0893674
0.091412
0.0934287
0.0954178
0.0973799
0.0993152
0.101224
0.103107
0.104965
0.106797
0.108604
0.110387
0.112146
0.113881
0.115592
0.11728
0.000325481
0.000312432
0.00029561
0.000279188
0.000268731
0.000271643
0.000298555
0.000367774
0.000514934
0.000809953
0.00137791
0.00240289
0.00407628
0.00648325
0.00951846
0.0129294
0.0164505
0.0199059
0.0232248
0.0264031
0.0294632
0.0324306
0.035325
0.0381598
0.0409433
0.0436806
0.046375
0.0490286
0.0516432
0.0542197
0.0567594
0.0592629
0.0617311
0.0641646
0.0665641
0.0689302
0.0712635
0.0735645
0.0758337
0.0780716
0.0802787
0.0824555
0.0846025
0.0867201
0.0888086
0.0908687
0.0929006
0.0949048
0.0968816
0.0988316
0.100755
0.102652
0.104524
0.10637
0.108191
0.109987
0.111759
0.113507
0.115231
0.116932
0.11861
0.120265
0.121898
0.123509
0.125098
0.126665
0.128212
0.129738
0.131243
0.132727
0.134192
0.135637
0.137063
0.138469
0.139857
0.141226
0.142577
0.143909
0.145224
0.146521
0.147801
0.149063
0.150309
0.151538
0.152751
0.153947
0.155128
0.156293
0.157442
0.158576
0.159695
0.1608
0.161889
0.162964
0.164026
0.000326798
0.000316017
0.000300473
0.000283594
0.00027033
0.000267385
0.000283911
0.000334635
0.000447354
0.000677206
0.00112751
0.00196396
0.00338709
0.00553555
0.00837584
0.0116943
0.0152123
0.0187144
0.0220942
0.0253292
0.0284363
0.0314415
0.0343672
0.037229
0.0400368
0.0427968
0.0455128
0.0481872
0.0508219
0.0534181
0.055977
0.0584994
0.0609861
0.0634378
0.0658552
0.0682389
0.0705895
0.0729075
0.0751935
0.077448
0.0796714
0.0818642
0.084027
0.0861601
0.0882641
0.0903392
0.0923861
0.0944049
0.0963963
0.0983605
0.100298
0.102209
0.104094
0.105954
0.107788
0.109598
0.111382
0.113143
0.11488
0.116593
0.118283
0.119951
0.121595
0.123218
0.124818
0.126397
0.127955
0.129492
0.131008
0.132503
0.133979
0.135434
0.13687
0.138287
0.139685
0.141063
0.142424
0.143766
0.14509
0.146396
0.147685
0.148957
0.150212
0.15145
0.152671
0.153876
0.155065
0.156238
0.157396
0.158538
0.159665
0.160777
0.161875
0.162958
0.164027
0.000327174
0.000318705
0.000304805
0.000288157
0.000273077
0.000265664
0.000274025
0.00031035
0.000396625
0.000576331
0.000933642
0.00161307
0.00281148
0.00470472
0.00732801
0.0105211
0.0140097
0.0175446
0.0209816
0.0242742
0.0274301
0.0304748
0.0334328
0.036322
0.0391542
0.0419367
0.0446739
0.0473687
0.0500231
0.0526386
0.0552163
0.0577571
0.0602618
0.0627313
0.0651661
0.067567
0.0699345
0.0722691
0.0745714
0.076842
0.0790813
0.0812898
0.0834679
0.0856162
0.0877351
0.089825
0.0918863
0.0939195
0.095925
0.0979031
0.0998543
0.101779
0.103677
0.10555
0.107397
0.109219
0.111017
0.11279
0.114539
0.116264
0.117966
0.119645
0.121302
0.122936
0.124547
0.126138
0.127706
0.129254
0.13078
0.132286
0.133772
0.135238
0.136684
0.13811
0.139517
0.140906
0.142276
0.143627
0.144961
0.146276
0.147574
0.148854
0.150118
0.151364
0.152594
0.153808
0.155005
0.156186
0.157352
0.158502
0.159637
0.160756
0.161861
0.162951
0.164028
0.00032675
0.000320535
0.000308504
0.000292618
0.000276537
0.000265799
0.000267733
0.000292736
0.000358533
0.000499605
0.000784055
0.00133518
0.00233759
0.00398829
0.00638224
0.00942147
0.0128528
0.0164038
0.0198915
0.0232411
0.0264474
0.0295331
0.0325243
0.0354413
0.0382979
0.0411026
0.0438606
0.0465754
0.0492491
0.0518833
0.0544792
0.0570379
0.0595603
0.062047
0.0644988
0.0669163
0.0693001
0.0716509
0.0739691
0.0762552
0.0785099
0.0807335
0.0829266
0.0850896
0.087223
0.0893272
0.0914026
0.0934497
0.0954688
0.0974604
0.0994249
0.101363
0.103274
0.105159
0.107019
0.108854
0.110663
0.112448
0.114209
0.115946
0.11766
0.11935
0.121018
0.122663
0.124285
0.125886
0.127465
0.129023
0.13056
0.132076
0.133572
0.135047
0.136503
0.137939
0.139356
0.140754
0.142133
0.143493
0.144836
0.14616
0.147466
0.148755
0.150027
0.151282
0.15252
0.153741
0.154947
0.156136
0.157309
0.158467
0.159609
0.160736
0.161848
0.162946
0.164029
0.000325662
0.000321571
0.000311513
0.000296778
0.000280359
0.000267242
0.00026414
0.000280177
0.000329984
0.000441205
0.000668908
0.00111687
0.00195257
0.00338004
0.00554156
0.00840428
0.0117512
0.0152989
0.0188286
0.0222333
0.0254908
0.0286189
0.0316442
0.0345894
0.0374703
0.0402969
0.0430754
0.0458096
0.048502
0.0511544
0.053768
0.0563441
0.0588834
0.0613867
0.0638549
0.0662885
0.0686882
0.0710545
0.073388
0.0756893
0.0779588
0.0801971
0.0824046
0.0845818
0.0867292
0.0888472
0.0909362
0.0929966
0.0950289
0.0970336
0.0990109
0.100961
0.102885
0.104783
0.106655
0.108501
0.110323
0.112119
0.113892
0.11564
0.117364
0.119066
0.120744
0.1224
0.124033
0.125644
0.127233
0.128801
0.130348
0.131874
0.133379
0.134864
0.136329
0.137775
0.139201
0.140607
0.141995
0.143364
0.144715
0.146048
0.147363
0.14866
0.14994
0.151203
0.152449
0.153678
0.154891
0.156088
0.157268
0.158433
0.159583
0.160717
0.161836
0.162941
0.164031
0.000324046
0.0003219
0.000313827
0.000300507
0.000284278
0.000269567
0.000262557
0.000271448
0.000308626
0.000396572
0.000579964
0.000945457
0.00164161
0.00286936
0.00480471
0.0074764
0.0107145
0.0142384
0.0177988
0.0212548
0.0245635
0.0277348
0.0307949
0.0337686
0.0366738
0.039522
0.0423204
0.0450734
0.0477839
0.0504539
0.0530846
0.0556773
0.058233
0.0607524
0.0632363
0.0656854
0.0681003
0.0704816
0.0728299
0.0751457
0.0774295
0.0796819
0.0819033
0.0840941
0.0862549
0.0883862
0.0904882
0.0925616
0.0946066
0.0966237
0.0986133
0.100576
0.102512
0.104421
0.106305
0.108163
0.109995
0.111803
0.113586
0.115346
0.117081
0.118793
0.120481
0.122147
0.12379
0.125411
0.127011
0.128588
0.130145
0.13168
0.133194
0.134689
0.136163
0.137617
0.139052
0.140467
0.141863
0.143241
0.1446
0.145941
0.147264
0.148569
0.149857
0.151127
0.15238
0.153617
0.154837
0.156041
0.157229
0.158401
0.159558
0.160699
0.161825
0.162936
0.164033
0.000322032
0.000321626
0.000315474
0.000303724
0.000288089
0.000272427
0.000262437
0.000265622
0.000292737
0.000362389
0.000511089
0.000811013
0.00139196
0.00244502
0.00416708
0.00664096
0.00975018
0.0132298
0.0168079
0.0203098
0.0236685
0.0268834
0.0299789
0.0329813
0.0359105
0.0387799
0.0415977
0.044369
0.0470969
0.0497837
0.0524309
0.0550396
0.057611
0.0601458
0.0626448
0.0651087
0.0675382
0.0699339
0.0722962
0.0746259
0.0769234
0.0791893
0.0814239
0.0836278
0.0858015
0.0879454
0.09006
0.0921456
0.0942028
0.0962319
0.0982333
0.100207
0.102155
0.104075
0.10597
0.107839
0.109683
0.111501
0.113295
0.115064
0.11681
0.118532
0.12023
0.121906
0.123559
0.125189
0.126798
0.128385
0.12995
0.131494
0.133018
0.134521
0.136003
0.137466
0.138909
0.140333
0.141737
0.143123
0.14449
0.145838
0.147169
0.148482
0.149777
0.151055
0.152315
0.153559
0.154787
0.155997
0.157192
0.158371
0.159534
0.160682
0.161814
0.162932
0.164035
0.000319743
0.00032086
0.000316513
0.000306397
0.000291644
0.000275549
0.000263342
0.000261979
0.000281026
0.000336205
0.000457694
0.000705764
0.00119289
0.00209635
0.00362236
0.00589805
0.00886289
0.0122789
0.0158608
0.0194019
0.0228086
0.0260671
0.0291983
0.0322295
0.0351827
0.0380728
0.0409094
0.0436983
0.0464429
0.0491458
0.0518087
0.0544327
0.057019
0.0595685
0.0620819
0.0645599
0.0670033
0.0694126
0.0717885
0.0741314
0.0764419
0.0787206
0.0809678
0.0831842
0.0853702
0.0875262
0.0896526
0.09175
0.0938187
0.0958592
0.0978718
0.099857
0.101815
0.103747
0.105652
0.107531
0.109385
0.111214
0.113018
0.114797
0.116552
0.118284
0.119992
0.121676
0.123339
0.124978
0.126596
0.128191
0.129765
0.131318
0.13285
0.134361
0.135852
0.137323
0.138774
0.140205
0.141617
0.143011
0.144385
0.145741
0.147079
0.148399
0.149701
0.150986
0.152254
0.153504
0.154738
0.155956
0.157157
0.158342
0.159512
0.160666
0.161804
0.162928
0.164037
0.000317287
0.000319713
0.000317021
0.000308535
0.000294857
0.000278734
0.000264938
0.000259964
0.000272501
0.000316111
0.000416078
0.000623
0.00103399
0.00181085
0.00316082
0.00524488
0.00805621
0.0113922
0.0149638
0.018536
0.0219875
0.0252889
0.0284558
0.0315156
0.0344924
0.0374028
0.0402575
0.0430631
0.0458237
0.048542
0.0512197
0.0538582
0.0564587
0.0590221
0.0615491
0.0640406
0.0664971
0.0689194
0.071308
0.0736634
0.0759863
0.0782771
0.0805363
0.0827645
0.0849621
0.0871295
0.0892672
0.0913757
0.0934553
0.0955066
0.0975298
0.0995255
0.101494
0.103436
0.105351
0.10724
0.109104
0.110942
0.112755
0.114544
0.116308
0.118049
0.119766
0.12146
0.12313
0.124778
0.126404
0.128008
0.129591
0.131151
0.132691
0.13421
0.135709
0.137187
0.138646
0.140085
0.141504
0.142905
0.144286
0.145649
0.146994
0.148321
0.14963
0.150921
0.152195
0.153452
0.154693
0.155916
0.157124
0.158315
0.15949
0.16065
0.161795
0.162924
0.164039
0.000314758
0.000318291
0.000317085
0.00031017
0.000297679
0.000281837
0.000266962
0.000259144
0.000266404
0.00030069
0.000383505
0.000557668
0.00090707
0.00157789
0.00277267
0.00467638
0.00733085
0.0105739
0.0141219
0.0177167
0.0212089
0.0245516
0.0277537
0.0308419
0.0338417
0.0367716
0.0396437
0.0424654
0.0452411
0.0479739
0.0506656
0.0533179
0.0559317
0.0585082
0.0610481
0.0635522
0.0660211
0.0684555
0.0708561
0.0732234
0.0755578
0.0778601
0.0801306
0.0823698
0.0845783
0.0867565
0.0889048
0.0910237
0.0931137
0.095175
0.0972083
0.0992138
0.101192
0.103143
0.105068
0.106966
0.108839
0.110686
0.112509
0.114306
0.116079
0.117828
0.119554
0.121256
0.122934
0.124591
0.126225
0.127836
0.129426
0.130995
0.132542
0.134068
0.135574
0.13706
0.138525
0.139971
0.141398
0.142805
0.144193
0.145563
0.146914
0.148247
0.149562
0.15086
0.15214
0.153403
0.15465
0.155879
0.157093
0.15829
0.159471
0.160636
0.161786
0.16292
0.16404
0.000312236
0.000316689
0.000316797
0.000311356
0.000300095
0.000284753
0.000269207
0.000259174
0.000262156
0.000288886
0.000357954
0.000505973
0.000805674
0.00138847
0.00244858
0.00418636
0.00668568
0.00982685
0.0133395
0.0169478
0.0204761
0.023858
0.0270943
0.0302102
0.0332324
0.0361812
0.0390699
0.0419067
0.0446967
0.0474431
0.050148
0.0528131
0.0554394
0.0580282
0.0605801
0.0630959
0.0655765
0.0680223
0.0704341
0.0728123
0.0751577
0.0774706
0.0797516
0.0820012
0.0842199
0.0864081
0.0885664
0.090695
0.0927946
0.0948654
0.096908
0.0989227
0.10091
0.10287
0.104804
0.106711
0.108592
0.110448
0.112278
0.114084
0.115865
0.117622
0.119355
0.121065
0.122752
0.124415
0.126057
0.127676
0.129273
0.130848
0.132403
0.133936
0.135449
0.136941
0.138413
0.139866
0.141298
0.142712
0.144106
0.145482
0.146839
0.148179
0.1495
0.150803
0.152089
0.153358
0.15461
0.155845
0.157063
0.158266
0.159452
0.160623
0.161777
0.162917
0.164042
0.000309785
0.000314993
0.000316242
0.000312152
0.00030211
0.000287413
0.000271514
0.00025978
0.000259299
0.00027989
0.000337904
0.000465047
0.000724821
0.0012353
0.00218036
0.00376838
0.00611798
0.00915199
0.0126193
0.0162328
0.0197918
0.0232104
0.0264797
0.0296225
0.0326665
0.0356333
0.0385376
0.0413887
0.044192
0.046951
0.0496682
0.0523452
0.0549832
0.0575833
0.0601464
0.0626732
0.0651645
0.0676209
0.070043
0.0724315
0.0747869
0.0771097
0.0794005
0.0816597
0.0838878
0.0860854
0.0882528
0.0903905
0.092499
0.0945786
0.0966299
0.0986531
0.100649
0.102617
0.104559
0.106474
0.108363
0.110227
0.112065
0.113878
0.115667
0.117431
0.119172
0.120889
0.122582
0.124253
0.125901
0.127527
0.129131
0.130713
0.132274
0.133813
0.135332
0.136831
0.138309
0.139768
0.141206
0.142626
0.144026
0.145408
0.14677
0.148115
0.149442
0.15075
0.152042
0.153316
0.154573
0.155813
0.157036
0.158244
0.159435
0.16061
0.16177
0.162914
0.164044
0.000307457
0.000313277
0.000315503
0.000312628
0.000303755
0.000289783
0.00027377
0.000260754
0.000257479
0.000273064
0.000322141
0.000432531
0.000660162
0.00111138
0.00195906
0.00341441
0.00562365
0.00854959
0.0119645
0.0155753
0.0191598
0.0226119
0.0259124
0.0290809
0.0321455
0.0351294
0.0380485
0.0409128
0.0437284
0.0464992
0.0492277
0.0519156
0.0545643
0.0571749
0.0597482
0.0622851
0.0647862
0.0672523
0.069684
0.0720819
0.0744465
0.0767785
0.0790782
0.0813462
0.083583
0.0857891
0.087965
0.090111
0.0922276
0.0943153
0.0963745
0.0984056
0.100409
0.102385
0.104334
0.106257
0.108153
0.110024
0.111869
0.113689
0.115485
0.117256
0.119003
0.120727
0.122427
0.124104
0.125758
0.12739
0.129
0.130589
0.132155
0.133701
0.135226
0.13673
0.138214
0.139678
0.141122
0.142547
0.143952
0.145339
0.146707
0.148057
0.149388
0.150702
0.151998
0.153277
0.154539
0.155784
0.157012
0.158224
0.159419
0.160599
0.161763
0.162911
0.164045
0.000305291
0.000311599
0.000314652
0.000312852
0.000305068
0.000291854
0.0002759
0.000261937
0.000256415
0.000267915
0.000309739
0.000406642
0.000608376
0.0010112
0.00177721
0.0031169
0.00519768
0.00801839
0.0113766
0.0149785
0.018583
0.0220653
0.0253947
0.0285874
0.0316715
0.0346712
0.0376039
0.0404804
0.0433073
0.0460889
0.0488276
0.0515256
0.054184
0.056804
0.0593867
0.0619327
0.0644428
0.0669177
0.0693581
0.0717645
0.0741375
0.0764777
0.0787856
0.0810616
0.0833063
0.0855202
0.0877037
0.0898572
0.0919813
0.0940763
0.0961427
0.0981809
0.100191
0.102174
0.10413
0.10606
0.107963
0.10984
0.111692
0.113518
0.11532
0.117097
0.11885
0.12058
0.122286
0.123969
0.125629
0.127266
0.128882
0.130476
0.132048
0.133599
0.135129
0.136638
0.138127
0.139596
0.141045
0.142475
0.143885
0.145277
0.14665
0.148004
0.14934
0.150658
0.151959
0.153242
0.154508
0.155757
0.156989
0.158205
0.159405
0.160589
0.161757
0.162909
0.164047
0.000303317
0.000310011
0.000313754
0.000312888
0.000306093
0.000293627
0.00027785
0.000263204
0.000255886
0.00026406
0.000299999
0.000386041
0.000566946
0.000930465
0.00162864
0.00286908
0.00483485
0.00755624
0.0108565
0.0144446
0.0180643
0.0215729
0.0249287
0.0281438
0.0312458
0.0342602
0.0372053
0.0400929
0.04293
0.0457211
0.0484692
0.051176
0.0538432
0.0564718
0.0590628
0.061617
0.0641351
0.066618
0.0690661
0.0714802
0.0738607
0.0762083
0.0785234
0.0808066
0.0830584
0.0852793
0.0874696
0.0896299
0.0917607
0.0938622
0.0959351
0.0979796
0.0999963
0.101985
0.103947
0.105883
0.107792
0.109675
0.111532
0.113365
0.115172
0.116955
0.118713
0.120448
0.122159
0.123847
0.125513
0.127155
0.128776
0.130375
0.131952
0.133507
0.135042
0.136556
0.13805
0.139523
0.140977
0.142411
0.143825
0.145221
0.146598
0.147956
0.149297
0.150619
0.151923
0.15321
0.15448
0.155733
0.156969
0.158189
0.159392
0.160579
0.161751
0.162907
0.164048
0.000301558
0.000308552
0.000312863
0.000312793
0.000306875
0.000295116
0.000279583
0.000264459
0.000255722
0.000261204
0.000292388
0.000369715
0.000533949
0.000865776
0.00150828
0.00266494
0.00453007
0.00716054
0.0104042
0.0139754
0.0176059
0.0211371
0.0245165
0.0277517
0.03087
0.0338976
0.0368539
0.0397512
0.0425974
0.0453971
0.0481533
0.0508681
0.0535429
0.056179
0.0587774
0.0613388
0.063864
0.0663539
0.0688088
0.0712296
0.0736168
0.0759709
0.0782925
0.080582
0.08284
0.085067
0.0872634
0.0894297
0.0915663
0.0936736
0.0957522
0.0978023
0.0998245
0.101819
0.103787
0.105727
0.107641
0.10953
0.111392
0.113229
0.115042
0.116829
0.118593
0.120332
0.122048
0.123741
0.125411
0.127058
0.128683
0.130286
0.131867
0.133427
0.134966
0.136484
0.137981
0.139459
0.140916
0.142354
0.143773
0.145172
0.146553
0.147915
0.149259
0.150584
0.151892
0.153183
0.154456
0.155712
0.156952
0.158174
0.159381
0.160571
0.161746
0.162905
0.164049
0.000300031
0.000307254
0.000312023
0.000312618
0.000307456
0.000296337
0.000281077
0.000265632
0.000255787
0.000259117
0.000286496
0.000356896
0.000507917
0.000814497
0.001412
0.00249935
0.00427862
0.00682848
0.0100191
0.013572
0.0172097
0.0207597
0.0241596
0.0274126
0.0305453
0.0335846
0.0365506
0.0394565
0.0423105
0.0451176
0.0478809
0.0506025
0.053284
0.0559266
0.0585313
0.0610989
0.0636303
0.0661261
0.068587
0.0710136
0.0734065
0.0757662
0.0780933
0.0803883
0.0826517
0.084884
0.0870856
0.089257
0.0913986
0.093511
0.0955944
0.0976494
0.0996764
0.101676
0.103648
0.105593
0.107512
0.109404
0.111271
0.113113
0.114929
0.116721
0.118489
0.120232
0.121952
0.123649
0.125322
0.126973
0.128602
0.130209
0.131794
0.133357
0.1349
0.136421
0.137922
0.139403
0.140864
0.142305
0.143727
0.14513
0.146513
0.147879
0.149226
0.150554
0.151865
0.153159
0.154435
0.155694
0.156936
0.158162
0.159371
0.160564
0.161741
0.162903
0.16405
0.000298746
0.000306142
0.000311272
0.000312406
0.000307874
0.000297309
0.00028232
0.000266666
0.000255975
0.000257618
0.000282012
0.000347003
0.00048774
0.000774605
0.00133656
0.0023681
0.00407631
0.00655723
0.00970047
0.0132351
0.0168773
0.0204425
0.0238596
0.0271278
0.0302728
0.033322
0.0362963
0.0392095
0.0420702
0.0448834
0.0476526
0.05038
0.0530671
0.0557151
0.0583251
0.060898
0.0634345
0.0659354
0.0684012
0.0708327
0.0732304
0.0755948
0.0779266
0.0802261
0.082494
0.0847307
0.0869367
0.0891124
0.0912582
0.0933748
0.0954623
0.0975214
0.0995523
0.101556
0.103532
0.105481
0.107403
0.109299
0.11117
0.113015
0.114835
0.11663
0.118401
0.120148
0.121872
0.123572
0.125249
0.126903
0.128535
0.130144
0.131732
0.133299
0.134844
0.136369
0.137873
0.139357
0.14082
0.142264
0.143689
0.145094
0.146481
0.147849
0.149198
0.150529
0.151843
0.153139
0.154417
0.155679
0.156923
0.158151
0.159363
0.160558
0.161738
0.162902
0.164051
0.000297712
0.000305233
0.000310638
0.000312193
0.000308163
0.000298054
0.000283307
0.000267526
0.000256207
0.00025657
0.000278693
0.000339589
0.000472566
0.000744524
0.00127937
0.00226764
0.00391945
0.00634407
0.00944725
0.0129653
0.0166097
0.0201867
0.0236177
0.0268984
0.0300535
0.0331108
0.0360919
0.039011
0.041877
0.0446953
0.0474693
0.0502012
0.0528928
0.0555452
0.0581595
0.0607366
0.0632772
0.0657821
0.0682519
0.0706873
0.0730888
0.0754571
0.0777926
0.0800958
0.0823673
0.0846075
0.086817
0.0889962
0.0911455
0.0932653
0.0953562
0.0974185
0.0994527
0.101459
0.103438
0.10539
0.107316
0.109215
0.111089
0.112937
0.114759
0.116558
0.118331
0.120081
0.121807
0.12351
0.125189
0.126846
0.12848
0.130093
0.131683
0.133252
0.1348
0.136327
0.137833
0.139319
0.140785
0.142231
0.143658
0.145066
0.146454
0.147824
0.149176
0.150509
0.151825
0.153123
0.154403
0.155667
0.156913
0.158143
0.159356
0.160554
0.161735
0.162901
0.164051
0.000296932
0.00030454
0.000310144
0.000312008
0.000308353
0.000298592
0.000284043
0.000268188
0.000256426
0.000255869
0.000276354
0.000334305
0.000461712
0.000722956
0.00123818
0.00219478
0.00380464
0.00618652
0.00925848
0.0127628
0.0164082
0.0199938
0.0234353
0.0267254
0.0298882
0.0329517
0.0359379
0.0388615
0.0417316
0.0445536
0.0473312
0.0500667
0.0527616
0.0554173
0.0580349
0.0606151
0.0631588
0.0656668
0.0681396
0.0705779
0.0729824
0.0753534
0.0776917
0.0799977
0.0822719
0.0845149
0.086727
0.0889087
0.0910606
0.093183
0.0952764
0.0973411
0.0993777
0.101386
0.103368
0.105322
0.10725
0.109152
0.111027
0.112878
0.114703
0.116503
0.118279
0.12003
0.121759
0.123463
0.125145
0.126803
0.12844
0.130054
0.131646
0.133217
0.134767
0.136295
0.137803
0.139291
0.140759
0.142207
0.143635
0.145044
0.146435
0.147806
0.149159
0.150494
0.151811
0.153111
0.154393
0.155658
0.156905
0.158137
0.159352
0.16055
0.161733
0.1629
0.164052
0.000296411
0.000304073
0.000309805
0.000311872
0.000308466
0.00029894
0.000284529
0.000268636
0.000256594
0.000255441
0.000274863
0.000330907
0.000454715
0.000709028
0.00121151
0.00214736
0.00372942
0.0060826
0.00913321
0.0126279
0.0162735
0.0198648
0.0233132
0.0266096
0.0297776
0.0328453
0.035835
0.0387616
0.0416344
0.044459
0.047239
0.0499767
0.0526739
0.0553319
0.0579516
0.0605339
0.0630797
0.0655897
0.0680645
0.0705048
0.0729112
0.0752842
0.0776243
0.0799322
0.0822082
0.0844529
0.0866668
0.0888503
0.0910039
0.093128
0.095223
0.0972894
0.0993276
0.101338
0.103321
0.105277
0.107206
0.109109
0.110986
0.112838
0.114665
0.116466
0.118244
0.119997
0.121726
0.123432
0.125115
0.126775
0.128412
0.130028
0.131621
0.133194
0.134744
0.136274
0.137783
0.139272
0.140741
0.14219
0.14362
0.14503
0.146421
0.147794
0.149148
0.150484
0.151802
0.153103
0.154386
0.155651
0.1569
0.158132
0.159348
0.160548
0.161731
0.162899
0.164052
0.00029615
0.000303837
0.000309632
0.000311799
0.000308517
0.000299109
0.000284771
0.000268862
0.000256684
0.000255239
0.000274139
0.000329245
0.000451286
0.000702194
0.0011984
0.00212398
0.0036922
0.00603097
0.00907073
0.0125604
0.0162061
0.0198001
0.023252
0.0265516
0.0297222
0.032792
0.0357835
0.0387115
0.0415857
0.0444115
0.0471928
0.0499317
0.05263
0.0552891
0.0579098
0.0604932
0.0630401
0.0655511
0.0680269
0.0704682
0.0728755
0.0752495
0.0775906
0.0798994
0.0821763
0.0844219
0.0866367
0.088821
0.0909755
0.0931004
0.0951963
0.0972635
0.0993025
0.101314
0.103297
0.105254
0.107184
0.109088
0.110966
0.112818
0.114645
0.116448
0.118226
0.11998
0.12171
0.123416
0.1251
0.126761
0.128399
0.130015
0.131609
0.133182
0.134733
0.136264
0.137773
0.139263
0.140732
0.142182
0.143612
0.145023
0.146415
0.147788
0.149143
0.150479
0.151798
0.153099
0.154382
0.155648
0.156898
0.15813
0.159347
0.160547
0.16173
0.162899
0.164052
0.000296148
0.000303834
0.000309628
0.000311795
0.000308513
0.000299106
0.000284768
0.000268861
0.000256683
0.000255239
0.000274139
0.000329246
0.000451285
0.000702191
0.00119839
0.00212397
0.00369218
0.00603093
0.00907069
0.0125603
0.016206
0.0198
0.0232519
0.0265515
0.0297222
0.032792
0.0357834
0.0387115
0.0415856
0.0444115
0.0471927
0.0499317
0.05263
0.055289
0.0579098
0.0604932
0.06304
0.065551
0.0680269
0.0704682
0.0728755
0.0752494
0.0775905
0.0798993
0.0821763
0.0844219
0.0866366
0.088821
0.0909754
0.0931004
0.0951962
0.0972634
0.0993024
0.101314
0.103297
0.105254
0.107184
0.109088
0.110966
0.112818
0.114645
0.116448
0.118226
0.11998
0.12171
0.123416
0.1251
0.126761
0.128399
0.130015
0.131609
0.133182
0.134733
0.136264
0.137773
0.139263
0.140732
0.142182
0.143612
0.145023
0.146415
0.147788
0.149142
0.150479
0.151798
0.153098
0.154382
0.155648
0.156898
0.15813
0.159346
0.160546
0.16173
0.162899
0.164052
0.000296405
0.000304065
0.000309795
0.000311861
0.000308455
0.00029893
0.000284522
0.000268632
0.000256592
0.000255442
0.000274865
0.000330908
0.000454713
0.000709019
0.00121148
0.00214732
0.00372935
0.00608249
0.00913307
0.0126277
0.0162734
0.0198646
0.023313
0.0266095
0.0297775
0.0328452
0.0358349
0.0387615
0.0416342
0.0444588
0.0472389
0.0499766
0.0526738
0.0553318
0.0579514
0.0605338
0.0630796
0.0655896
0.0680644
0.0705047
0.0729111
0.0752841
0.0776242
0.0799321
0.0822081
0.0844528
0.0866667
0.0888502
0.0910038
0.0931279
0.0952229
0.0972893
0.0993275
0.101338
0.103321
0.105277
0.107206
0.109109
0.110986
0.112838
0.114664
0.116466
0.118243
0.119997
0.121726
0.123432
0.125115
0.126775
0.128412
0.130028
0.131621
0.133193
0.134744
0.136274
0.137783
0.139272
0.140741
0.14219
0.14362
0.14503
0.146421
0.147794
0.149148
0.150484
0.151802
0.153102
0.154385
0.155651
0.1569
0.158132
0.159348
0.160548
0.161731
0.162899
0.164052
0.000296921
0.000304525
0.000310127
0.000311989
0.000308334
0.000298575
0.00028403
0.00026818
0.000256424
0.00025587
0.000276356
0.000334305
0.000461707
0.000722939
0.00123814
0.00219471
0.00380451
0.00618633
0.00925825
0.0127626
0.016408
0.0199936
0.0234351
0.0267252
0.029888
0.0329515
0.0359377
0.0388613
0.0417314
0.0445534
0.047331
0.0500665
0.0527614
0.0554171
0.0580347
0.0606149
0.0631586
0.0656666
0.0681394
0.0705777
0.0729822
0.0753533
0.0776915
0.0799975
0.0822718
0.0845147
0.0867268
0.0889086
0.0910604
0.0931828
0.0952762
0.0973409
0.0993775
0.101386
0.103368
0.105322
0.10725
0.109151
0.111027
0.112877
0.114702
0.116503
0.118279
0.12003
0.121758
0.123463
0.125144
0.126803
0.12844
0.130054
0.131646
0.133217
0.134766
0.136295
0.137803
0.139291
0.140759
0.142207
0.143635
0.145044
0.146434
0.147806
0.149159
0.150494
0.151811
0.153111
0.154393
0.155657
0.156905
0.158137
0.159351
0.16055
0.161733
0.1629
0.164052
0.000297694
0.00030521
0.000310612
0.000312165
0.000308135
0.00029803
0.000283289
0.000267515
0.000256202
0.00025657
0.000278694
0.000339588
0.000472556
0.000744496
0.00127931
0.00226752
0.00391926
0.0063438
0.00944692
0.0129649
0.0166094
0.0201864
0.0236174
0.0268981
0.0300532
0.0331105
0.0360916
0.0390107
0.0418767
0.044695
0.047469
0.0502009
0.0528925
0.0555449
0.0581592
0.0607363
0.0632769
0.0657818
0.0682517
0.0706871
0.0730886
0.0754568
0.0777923
0.0800955
0.082367
0.0846073
0.0868168
0.0889959
0.0911452
0.0932651
0.095356
0.0974183
0.0994524
0.101459
0.103438
0.10539
0.107315
0.109215
0.111088
0.112936
0.114759
0.116557
0.118331
0.120081
0.121807
0.123509
0.125189
0.126846
0.12848
0.130092
0.131683
0.133252
0.1348
0.136327
0.137833
0.139319
0.140785
0.142231
0.143658
0.145066
0.146454
0.147824
0.149176
0.150509
0.151825
0.153123
0.154403
0.155666
0.156913
0.158143
0.159356
0.160553
0.161735
0.1629
0.164051
0.00029872
0.00030611
0.000311236
0.000312368
0.000307836
0.000297277
0.000282295
0.000266651
0.000255968
0.000257617
0.000282012
0.000346999
0.000487723
0.000774563
0.00133647
0.00236793
0.00407606
0.00655688
0.00970006
0.0132347
0.0168768
0.020442
0.0238592
0.0271274
0.0302724
0.0333216
0.036296
0.0392092
0.0420698
0.0448831
0.0476523
0.0503797
0.0530667
0.0557148
0.0583248
0.0608977
0.0634342
0.065935
0.0684009
0.0708324
0.07323
0.0755945
0.0779262
0.0802258
0.0824937
0.0847304
0.0869363
0.089112
0.0912579
0.0933744
0.095462
0.0975211
0.099552
0.101555
0.103531
0.10548
0.107403
0.109299
0.11117
0.113015
0.114835
0.11663
0.118401
0.120148
0.121871
0.123571
0.125248
0.126902
0.128534
0.130144
0.131732
0.133299
0.134844
0.136369
0.137873
0.139356
0.14082
0.142264
0.143689
0.145094
0.14648
0.147848
0.149198
0.150529
0.151843
0.153139
0.154417
0.155679
0.156923
0.158151
0.159363
0.160558
0.161738
0.162901
0.16405
0.000299995
0.000307213
0.000311976
0.000312569
0.000307408
0.000296296
0.000281045
0.000265611
0.000255776
0.000259112
0.000286492
0.000356886
0.000507889
0.000814436