/*--------------------------------*- C++ -*----------------------------------*\
  =========                 |
  \\      /  F ield         | OpenFOAM: The Open Source CFD Toolbox
   \\    /   O peration     | Website:  https://openfoam.org
    \\  /    A nd           | Version:  7
     \\/     M anipulation  |
\*---------------------------------------------------------------------------*/
FoamFile
{
    version     2.0;
    format      ascii;
    class       volScalarField;
    location    "244000";
    object      p;
}
// * * * * * * * * * * * * * * * * * * * * * * * * * * * * * * * * * * * * * //

dimensions      [0 2 -2 0 0 0 0];

internalField   nonuniform List<scalar> 
4825
(
-1.91042e-18
-1.90019e-18
-1.90775e-18
-1.89674e-18
-1.89703e-18
-1.88298e-18
-1.89649e-18
-1.90863e-18
-1.89093e-18
-1.89694e-18
-1.87896e-18
-1.89315e-18
-1.90658e-18
-1.89361e-18
-1.89065e-18
-1.87891e-18
-1.88608e-18
-1.91347e-18
-1.908e-18
-1.89436e-18
-1.88509e-18
-1.8894e-18
-1.92378e-18
-1.89891e-18
-1.90757e-18
-1.891e-18
-1.89312e-18
-1.9118e-18
-1.88843e-18
-1.89564e-18
-1.8913e-18
-1.8919e-18
-1.90264e-18
-1.88594e-18
-1.89442e-18
-1.88421e-18
-1.8931e-18
-1.90152e-18
-1.87651e-18
-1.89653e-18
-1.87801e-18
-1.8875e-18
-1.91084e-18
-1.87119e-18
-1.89657e-18
-1.88268e-18
-1.88242e-18
-1.91534e-18
-1.87905e-18
-1.88865e-18
-1.88113e-18
-1.88467e-18
-1.90839e-18
-1.88821e-18
-1.89725e-18
-1.88438e-18
-1.8847e-18
-1.90157e-18
-1.89493e-18
-1.9007e-18
-1.88406e-18
-1.88155e-18
-1.90645e-18
-1.8891e-18
-1.89913e-18
-1.88073e-18
-1.90057e-18
-1.88541e-18
-1.89508e-18
-1.88036e-18
-1.90289e-18
-1.87645e-18
-1.89457e-18
-1.87456e-18
-1.89439e-18
-1.88078e-18
-1.88945e-18
-1.8992e-18
-1.88303e-18
-1.89466e-18
-1.88988e-18
-1.88235e-18
-1.89242e-18
-1.88189e-18
-1.89508e-18
-1.88378e-18
-1.89165e-18
-1.8871e-18
-1.87859e-18
-1.8807e-18
-1.88833e-18
-1.86584e-18
-1.86802e-18
-1.87022e-18
-1.85545e-18
-1.89289e-18
-1.87284e-18
-1.88157e-18
-1.87809e-18
-1.88333e-18
-1.87889e-18
-1.88746e-18
-1.88289e-18
-1.88706e-18
-1.86637e-18
-1.87345e-18
-1.85861e-18
-1.88729e-18
-1.86946e-18
-1.88159e-18
-1.86001e-18
-1.85877e-18
-1.86017e-18
-1.87022e-18
-1.87021e-18
-1.88355e-18
-1.87113e-18
-1.88541e-18
-1.87991e-18
-1.87873e-18
-1.88064e-18
-1.88497e-18
-1.88337e-18
-1.88416e-18
-1.86496e-18
-1.88072e-18
-1.871e-18
-1.88884e-18
-1.87626e-18
-1.89185e-18
-1.8597e-18
-1.86501e-18
-1.86994e-18
-1.87591e-18
-1.87208e-18
-1.88476e-18
-1.87828e-18
-1.88978e-18
-1.88158e-18
-1.8866e-18
-1.88092e-18
-1.88271e-18
-1.87401e-18
-1.87349e-18
-1.86945e-18
-1.88165e-18
-1.87817e-18
-1.88851e-18
-1.87645e-18
-1.89364e-18
-1.86786e-18
-1.87479e-18
-1.87284e-18
-1.87372e-18
-1.87626e-18
-1.87563e-18
-1.87664e-18
-1.88508e-18
-1.8869e-18
-1.89742e-18
-1.87966e-18
-1.87803e-18
-1.87831e-18
-1.87545e-18
-1.87199e-18
-1.88855e-18
-1.87653e-18
-1.89024e-18
-1.87713e-18
-1.88975e-18
-1.87063e-18
-1.87547e-18
-1.86505e-18
-1.87016e-18
-1.8738e-18
-1.87731e-18
-1.87752e-18
-1.88063e-18
-1.87971e-18
-1.89942e-18
-1.87936e-18
-1.88013e-18
-1.87853e-18
-1.88284e-18
-1.87392e-18
-1.88664e-18
-1.87827e-18
-1.89273e-18
-1.87431e-18
-1.88821e-18
-1.87117e-18
-1.8715e-18
-1.86752e-18
-1.8575e-18
-1.86473e-18
-1.87769e-18
-1.87969e-18
-1.8684e-18
-1.88133e-18
-1.90241e-18
-1.89053e-18
-1.8796e-18
-1.87725e-18
-1.87841e-18
-1.87255e-18
-1.87995e-18
-1.87664e-18
-1.89206e-18
-1.87062e-18
-1.88891e-18
-1.87911e-18
-1.87418e-18
-1.86365e-18
-1.86275e-18
-1.87775e-18
-1.87578e-18
-1.86913e-18
-1.87401e-18
-1.8827e-18
-1.89699e-18
-1.88834e-18
-1.88282e-18
-1.87723e-18
-1.88083e-18
-1.88011e-18
-1.89221e-18
-1.87719e-18
-1.89637e-18
-1.87787e-18
-1.88769e-18
-1.87586e-18
-1.86564e-18
-1.87998e-18
-1.86119e-18
-1.87432e-18
-1.88179e-18
-1.87e-18
-1.87943e-18
-1.88267e-18
-1.89481e-18
-1.88476e-18
-1.88988e-18
-1.88741e-18
-1.8768e-18
-1.8833e-18
-1.89062e-18
-1.87948e-18
-1.88192e-18
-1.87902e-18
-1.89626e-18
-1.87744e-18
-1.87525e-18
-1.86643e-18
-1.86099e-18
-1.86009e-18
-1.86529e-18
-1.84519e-18
-1.84078e-18
-1.85481e-18
-1.84267e-18
-1.8509e-18
-1.83557e-18
-1.85309e-18
-1.84694e-18
-1.84325e-18
-1.85805e-18
-1.85414e-18
-1.8741e-18
-1.85522e-18
-1.87232e-18
-1.87675e-18
-1.86778e-18
-1.9002e-18
-1.88376e-18
-1.89959e-18
-1.87958e-18
-1.88928e-18
-1.89767e-18
-1.88015e-18
-1.88126e-18
-1.88821e-18
-1.88398e-18
-1.87557e-18
-1.87833e-18
-1.90043e-18
-1.88117e-18
-1.88056e-18
-1.87414e-18
-1.86682e-18
-1.85379e-18
-1.85913e-18
-1.8426e-18
-1.84655e-18
-1.85386e-18
-1.84519e-18
-1.84735e-18
-1.84015e-18
-1.85136e-18
-1.84798e-18
-1.84536e-18
-1.855e-18
-1.85819e-18
-1.86842e-18
-1.86884e-18
-1.87535e-18
-1.85851e-18
-1.87061e-18
-1.88076e-18
-1.88841e-18
-1.90801e-18
-1.88286e-18
-1.91525e-18
-1.87886e-18
-1.88998e-18
-1.8843e-18
-1.8792e-18
-1.88294e-18
-1.88481e-18
-1.88342e-18
-1.88563e-18
-1.87718e-18
-1.89021e-18
-1.88439e-18
-1.88723e-18
-1.87406e-18
-1.87016e-18
-1.85611e-18
-1.85745e-18
-1.84725e-18
-1.8483e-18
-1.84948e-18
-1.84484e-18
-1.85178e-18
-1.84038e-18
-1.84489e-18
-1.84643e-18
-1.83822e-18
-1.86109e-18
-1.86054e-18
-1.8638e-18
-1.87892e-18
-1.86952e-18
-1.87589e-18
-1.86364e-18
-1.86645e-18
-1.89952e-18
-1.8789e-18
-1.90187e-18
-1.87448e-18
-1.90855e-18
-1.87958e-18
-1.90481e-18
-1.88112e-18
-1.88682e-18
-1.88087e-18
-1.88028e-18
-1.87647e-18
-1.88571e-18
-1.87932e-18
-1.88687e-18
-1.88862e-18
-1.88155e-18
-1.87251e-18
-1.87369e-18
-1.85803e-18
-1.85733e-18
-1.84523e-18
-1.84877e-18
-1.85036e-18
-1.84549e-18
-1.85659e-18
-1.83896e-18
-1.83732e-18
-1.84388e-18
-1.84682e-18
-1.85758e-18
-1.86276e-18
-1.86525e-18
-1.88061e-18
-1.88818e-18
-1.89788e-18
-1.86634e-18
-1.87192e-18
-1.8696e-18
-1.86779e-18
-1.89483e-18
-1.87599e-18
-1.89688e-18
-1.86491e-18
-1.90817e-18
-1.88524e-18
-1.89957e-18
-1.8798e-18
-1.8946e-18
-1.87625e-18
-1.88333e-18
-1.8805e-18
-1.88614e-18
-1.8861e-18
-1.89119e-18
-1.88676e-18
-1.87599e-18
-1.87573e-18
-1.87008e-18
-1.85833e-18
-1.85748e-18
-1.84287e-18
-1.85052e-18
-1.84638e-18
-1.84327e-18
-1.85203e-18
-1.84593e-18
-1.84212e-18
-1.83773e-18
-1.85016e-18
-1.84926e-18
-1.86129e-18
-1.86639e-18
-1.87627e-18
-1.8863e-18
-1.90194e-18
-1.92436e-18
-1.90679e-18
-1.87355e-18
-1.86339e-18
-1.87067e-18
-1.86501e-18
-1.88512e-18
-1.87109e-18
-1.90145e-18
-1.8793e-18
-1.9031e-18
-1.88155e-18
-1.90485e-18
-1.87533e-18
-1.88712e-18
-1.87602e-18
-1.89387e-18
-1.89042e-18
-1.88914e-18
-1.88162e-18
-1.88582e-18
-1.88753e-18
-1.87766e-18
-1.88026e-18
-1.86541e-18
-1.85962e-18
-1.85917e-18
-1.84129e-18
-1.85375e-18
-1.84367e-18
-1.8482e-18
-1.8491e-18
-1.838e-18
-1.84442e-18
-1.84234e-18
-1.84883e-18
-1.84445e-18
-1.85511e-18
-1.86743e-18
-1.8793e-18
-1.88312e-18
-1.89975e-18
-1.92661e-18
-1.90854e-18
-1.93143e-18
-1.91304e-18
-1.9209e-18
-1.87149e-18
-1.86877e-18
-1.87314e-18
-1.86771e-18
-1.88331e-18
-1.87009e-18
-1.90693e-18
-1.88906e-18
-1.89787e-18
-1.86981e-18
-1.89793e-18
-1.87608e-18
-1.89102e-18
-1.89206e-18
-1.88902e-18
-1.89169e-18
-1.89224e-18
-1.87573e-18
-1.88905e-18
-1.89096e-18
-1.88025e-18
-1.87903e-18
-1.86548e-18
-1.86199e-18
-1.86365e-18
-1.84758e-18
-1.85134e-18
-1.84068e-18
-1.84586e-18
-1.84646e-18
-1.83831e-18
-1.84566e-18
-1.84064e-18
-1.85017e-18
-1.85631e-18
-1.85379e-18
-1.86848e-18
-1.87403e-18
-1.88332e-18
-1.895e-18
-1.92496e-18
-1.90347e-18
-1.92319e-18
-1.89901e-18
-1.92316e-18
-1.90445e-18
-1.92161e-18
-1.86946e-18
-1.8693e-18
-1.87111e-18
-1.87232e-18
-1.88555e-18
-1.87755e-18
-1.89577e-18
-1.89112e-18
-1.90169e-18
-1.87959e-18
-1.89089e-18
-1.88082e-18
-1.89515e-18
-1.88894e-18
-1.89366e-18
-1.88701e-18
-1.89206e-18
-1.87409e-18
-1.90086e-18
-1.88981e-18
-1.87662e-18
-1.87807e-18
-1.87134e-18
-1.86422e-18
-1.86363e-18
-1.84378e-18
-1.85167e-18
-1.84221e-18
-1.84245e-18
-1.84165e-18
-1.83829e-18
-1.83757e-18
-1.84226e-18
-1.84201e-18
-1.85745e-18
-1.85333e-18
-1.86614e-18
-1.87707e-18
-1.88822e-18
-1.89587e-18
-1.91725e-18
-1.90712e-18
-1.92413e-18
-1.90775e-18
-1.92153e-18
-1.90555e-18
-1.91113e-18
-1.89414e-18
-1.9258e-18
-1.90101e-18
-1.86737e-18
-1.8675e-18
-1.87142e-18
-1.86513e-18
-1.89964e-18
-1.87871e-18
-1.9037e-18
-1.89865e-18
-1.91419e-18
-1.8898e-18
-1.8867e-18
-1.88151e-18
-1.9008e-18
-1.888e-18
-1.8867e-18
-1.87511e-18
-1.89115e-18
-1.8822e-18
-1.89791e-18
-1.88399e-18
-1.8822e-18
-1.87373e-18
-1.87358e-18
-1.858e-18
-1.85927e-18
-1.83947e-18
-1.8476e-18
-1.84115e-18
-1.84029e-18
-1.84525e-18
-1.83232e-18
-1.84248e-18
-1.84042e-18
-1.84308e-18
-1.86603e-18
-1.86195e-18
-1.86973e-18
-1.88125e-18
-1.89311e-18
-1.90463e-18
-1.91257e-18
-1.90441e-18
-1.91175e-18
-1.89733e-18
-1.92277e-18
-1.90047e-18
-1.90924e-18
-1.89406e-18
-1.92301e-18
-1.90227e-18
-1.86407e-18
-1.86563e-18
-1.87414e-18
-1.87092e-18
-1.8929e-18
-1.87904e-18
-1.90635e-18
-1.88627e-18
-1.90889e-18
-1.88456e-18
-1.89527e-18
-1.87711e-18
-1.90696e-18
-1.8915e-18
-1.88699e-18
-1.87793e-18
-1.88607e-18
-1.8874e-18
-1.89207e-18
-1.88617e-18
-1.88551e-18
-1.87631e-18
-1.87492e-18
-1.85504e-18
-1.85772e-18
-1.84403e-18
-1.8544e-18
-1.83767e-18
-1.84272e-18
-1.84681e-18
-1.83415e-18
-1.84406e-18
-1.83967e-18
-1.84724e-18
-1.8634e-18
-1.86095e-18
-1.87437e-18
-1.8819e-18
-1.90026e-18
-1.89952e-18
-1.91859e-18
-1.91178e-18
-1.91478e-18
-1.89319e-18
-1.91004e-18
-1.89151e-18
-1.89763e-18
-1.89325e-18
-1.9166e-18
-1.90755e-18
-1.86611e-18
-1.86144e-18
-1.87588e-18
-1.86509e-18
-1.89021e-18
-1.87529e-18
-1.89853e-18
-1.88913e-18
-1.90447e-18
-1.88443e-18
-1.89402e-18
-1.86965e-18
-1.89902e-18
-1.89246e-18
-1.88964e-18
-1.88269e-18
-1.8938e-18
-1.88443e-18
-1.8911e-18
-1.89053e-18
-1.88547e-18
-1.88331e-18
-1.87429e-18
-1.85631e-18
-1.85765e-18
-1.85153e-18
-1.857e-18
-1.83959e-18
-1.84398e-18
-1.84752e-18
-1.84014e-18
-1.84129e-18
-1.83987e-18
-1.83856e-18
-1.85657e-18
-1.85853e-18
-1.86878e-18
-1.88349e-18
-1.89626e-18
-1.89527e-18
-1.91253e-18
-1.91436e-18
-1.91594e-18
-1.90755e-18
-1.89915e-18
-1.88455e-18
-1.90647e-18
-1.88865e-18
-1.91414e-18
-1.90267e-18
-1.86473e-18
-1.86578e-18
-1.87032e-18
-1.86428e-18
-1.88378e-18
-1.87651e-18
-1.89689e-18
-1.8971e-18
-1.90964e-18
-1.88714e-18
-1.90793e-18
-1.88495e-18
-1.89407e-18
-1.88657e-18
-1.8991e-18
-1.8848e-18
-1.89387e-18
-1.88347e-18
-1.89254e-18
-1.8915e-18
-1.88425e-18
-1.88352e-18
-1.8727e-18
-1.85949e-18
-1.85772e-18
-1.85417e-18
-1.85316e-18
-1.83767e-18
-1.84184e-18
-1.85183e-18
-1.83341e-18
-1.8386e-18
-1.83099e-18
-1.83192e-18
-1.85577e-18
-1.85712e-18
-1.86657e-18
-1.88847e-18
-1.88469e-18
-1.88741e-18
-1.91019e-18
-1.91246e-18
-1.91505e-18
-1.90618e-18
-1.91065e-18
-1.8926e-18
-1.92023e-18
-1.88776e-18
-1.90788e-18
-1.89326e-18
-1.87272e-18
-1.88191e-18
-1.8737e-18
-1.87069e-18
-1.88765e-18
-1.87837e-18
-1.89012e-18
-1.88938e-18
-1.91092e-18
-1.88359e-18
-1.90246e-18
-1.88733e-18
-1.89613e-18
-1.89486e-18
-1.89218e-18
-1.88425e-18
-1.89204e-18
-1.87883e-18
-1.88854e-18
-1.8892e-18
-1.8919e-18
-1.8783e-18
-1.88014e-18
-1.85794e-18
-1.85782e-18
-1.84663e-18
-1.85187e-18
-1.83095e-18
-1.84411e-18
-1.84762e-18
-1.83085e-18
-1.8373e-18
-1.83215e-18
-1.84396e-18
-1.84979e-18
-1.8634e-18
-1.86863e-18
-1.88826e-18
-1.88314e-18
-1.89592e-18
-1.91042e-18
-1.9084e-18
-1.91985e-18
-1.90791e-18
-1.91144e-18
-1.88894e-18
-1.91408e-18
-1.89036e-18
-1.89248e-18
-1.89226e-18
-1.88355e-18
-1.87679e-18
-1.88655e-18
-1.87674e-18
-1.89189e-18
-1.87452e-18
-1.89338e-18
-1.8825e-18
-1.90425e-18
-1.89351e-18
-1.89653e-18
-1.88163e-18
-1.90598e-18
-1.89869e-18
-1.89972e-18
-1.89225e-18
-1.88507e-18
-1.87607e-18
-1.88143e-18
-1.88469e-18
-1.88976e-18
-1.88064e-18
-1.88236e-18
-1.86157e-18
-1.85921e-18
-1.84445e-18
-1.84994e-18
-1.83703e-18
-1.85206e-18
-1.84491e-18
-1.83345e-18
-1.84063e-18
-1.8297e-18
-1.84272e-18
-1.85036e-18
-1.85655e-18
-1.87372e-18
-1.87971e-18
-1.89007e-18
-1.90538e-18
-1.90763e-18
-1.91179e-18
-1.92603e-18
-1.89967e-18
-1.91801e-18
-1.88996e-18
-1.91409e-18
-1.87972e-18
-1.89968e-18
-1.88996e-18
-1.87372e-18
-1.86731e-18
-1.87631e-18
-1.87601e-18
-1.89019e-18
-1.88716e-18
-1.90661e-18
-1.89338e-18
-1.92491e-18
-1.89987e-18
-1.90709e-18
-1.88725e-18
-1.90431e-18
-1.89908e-18
-1.90729e-18
-1.89146e-18
-1.88801e-18
-1.87964e-18
-1.89079e-18
-1.88239e-18
-1.8868e-18
-1.88058e-18
-1.88056e-18
-1.86484e-18
-1.86298e-18
-1.84633e-18
-1.84615e-18
-1.83492e-18
-1.84061e-18
-1.84559e-18
-1.84227e-18
-1.83876e-18
-1.83125e-18
-1.83941e-18
-1.85204e-18
-1.85178e-18
-1.87135e-18
-1.88308e-18
-1.89037e-18
-1.89877e-18
-1.90162e-18
-1.89358e-18
-1.90818e-18
-1.89301e-18
-1.90609e-18
-1.88917e-18
-1.91283e-18
-1.89058e-18
-1.90301e-18
-1.89646e-18
-1.86627e-18
-1.86601e-18
-1.87567e-18
-1.86883e-18
-1.89081e-18
-1.88987e-18
-1.90545e-18
-1.89294e-18
-1.91763e-18
-1.88769e-18
-1.902e-18
-1.89542e-18
-1.90301e-18
-1.89499e-18
-1.90658e-18
-1.89583e-18
-1.88563e-18
-1.87964e-18
-1.89387e-18
-1.88206e-18
-1.89157e-18
-1.88366e-18
-1.87795e-18
-1.86785e-18
-1.8637e-18
-1.85009e-18
-1.84906e-18
-1.8358e-18
-1.83579e-18
-1.8464e-18
-1.84129e-18
-1.83376e-18
-1.83039e-18
-1.84466e-18
-1.84747e-18
-1.85425e-18
-1.86914e-18
-1.88648e-18
-1.88427e-18
-1.89659e-18
-1.90855e-18
-1.90166e-18
-1.90997e-18
-1.89549e-18
-1.90104e-18
-1.88679e-18
-1.90705e-18
-1.8915e-18
-1.90552e-18
-1.89891e-18
-1.86739e-18
-1.85744e-18
-1.87833e-18
-1.8624e-18
-1.88658e-18
-1.8758e-18
-1.90055e-18
-1.88887e-18
-1.91644e-18
-1.89486e-18
-1.90877e-18
-1.89908e-18
-1.90511e-18
-1.89067e-18
-1.90726e-18
-1.8938e-18
-1.89061e-18
-1.87403e-18
-1.89625e-18
-1.88459e-18
-1.89549e-18
-1.87923e-18
-1.87969e-18
-1.86436e-18
-1.86136e-18
-1.84722e-18
-1.85637e-18
-1.84072e-18
-1.83087e-18
-1.84425e-18
-1.83612e-18
-1.82983e-18
-1.83351e-18
-1.84155e-18
-1.85557e-18
-1.85552e-18
-1.87745e-18
-1.88801e-18
-1.88643e-18
-1.89863e-18
-1.90524e-18
-1.91046e-18
-1.91619e-18
-1.89869e-18
-1.91181e-18
-1.89014e-18
-1.90492e-18
-1.89001e-18
-1.91489e-18
-1.89506e-18
-1.87898e-18
-1.85314e-18
-1.87939e-18
-1.86769e-18
-1.88288e-18
-1.87366e-18
-1.90027e-18
-1.89149e-18
-1.9149e-18
-1.90349e-18
-1.90858e-18
-1.89214e-18
-1.91368e-18
-1.90152e-18
-1.90629e-18
-1.89998e-18
-1.8978e-18
-1.86794e-18
-1.89178e-18
-1.88571e-18
-1.89243e-18
-1.87565e-18
-1.87641e-18
-1.86387e-18
-1.86133e-18
-1.84404e-18
-1.85452e-18
-1.8413e-18
-1.8372e-18
-1.8456e-18
-1.83309e-18
-1.83208e-18
-1.83443e-18
-1.83318e-18
-1.8596e-18
-1.85853e-18
-1.88062e-18
-1.88453e-18
-1.89663e-18
-1.88939e-18
-1.90817e-18
-1.90683e-18
-1.91344e-18
-1.90247e-18
-1.91679e-18
-1.89092e-18
-1.90522e-18
-1.89158e-18
-1.91713e-18
-1.88493e-18
-1.88537e-18
-1.86266e-18
-1.87197e-18
-1.86708e-18
-1.88654e-18
-1.87811e-18
-1.9065e-18
-1.89264e-18
-1.91182e-18
-1.89556e-18
-1.89851e-18
-1.89495e-18
-1.91545e-18
-1.91097e-18
-1.90856e-18
-1.89678e-18
-1.89911e-18
-1.87248e-18
-1.89398e-18
-1.8825e-18
-1.89078e-18
-1.87601e-18
-1.87647e-18
-1.86324e-18
-1.8615e-18
-1.84671e-18
-1.85407e-18
-1.8376e-18
-1.84224e-18
-1.84414e-18
-1.83406e-18
-1.8291e-18
-1.83231e-18
-1.83277e-18
-1.86192e-18
-1.8581e-18
-1.87786e-18
-1.88201e-18
-1.89168e-18
-1.90736e-18
-1.91234e-18
-1.90819e-18
-1.90692e-18
-1.89984e-18
-1.91618e-18
-1.88119e-18
-1.90789e-18
-1.89659e-18
-1.90415e-18
-1.88169e-18
-1.87952e-18
-1.87362e-18
-1.881e-18
-1.87157e-18
-1.88556e-18
-1.885e-18
-1.90127e-18
-1.89833e-18
-1.91424e-18
-1.89649e-18
-1.90771e-18
-1.89741e-18
-1.91449e-18
-1.91319e-18
-1.90991e-18
-1.89748e-18
-1.89067e-18
-1.87934e-18
-1.89051e-18
-1.88821e-18
-1.88744e-18
-1.87412e-18
-1.87774e-18
-1.86756e-18
-1.85982e-18
-1.84598e-18
-1.85293e-18
-1.84283e-18
-1.84113e-18
-1.84388e-18
-1.83496e-18
-1.82605e-18
-1.82822e-18
-1.83704e-18
-1.85149e-18
-1.85837e-18
-1.86426e-18
-1.88146e-18
-1.88472e-18
-1.90018e-18
-1.90958e-18
-1.90948e-18
-1.90355e-18
-1.89299e-18
-1.90536e-18
-1.88661e-18
-1.90411e-18
-1.8861e-18
-1.89757e-18
-1.88225e-18
-1.87348e-18
-1.88229e-18
-1.88482e-18
-1.87284e-18
-1.88428e-18
-1.88672e-18
-1.89978e-18
-1.89488e-18
-1.91311e-18
-1.89705e-18
-1.90421e-18
-1.90542e-18
-1.91181e-18
-1.90746e-18
-1.91535e-18
-1.89809e-18
-1.8904e-18
-1.88281e-18
-1.89027e-18
-1.88681e-18
-1.88632e-18
-1.87705e-18
-1.87516e-18
-1.86576e-18
-1.86227e-18
-1.84699e-18
-1.85607e-18
-1.84888e-18
-1.83998e-18
-1.83877e-18
-1.83585e-18
-1.8259e-18
-1.83211e-18
-1.83418e-18
-1.85129e-18
-1.85567e-18
-1.8686e-18
-1.88706e-18
-1.87869e-18
-1.90009e-18
-1.90894e-18
-1.90298e-18
-1.90909e-18
-1.89573e-18
-1.90774e-18
-1.88911e-18
-1.9032e-18
-1.88072e-18
-1.89335e-18
-1.8833e-18
-1.88014e-18
-1.87764e-18
-1.88257e-18
-1.87144e-18
-1.89126e-18
-1.8787e-18
-1.90382e-18
-1.89122e-18
-1.90757e-18
-1.89537e-18
-1.9018e-18
-1.90545e-18
-1.92005e-18
-1.90655e-18
-1.91809e-18
-1.90153e-18
-1.89309e-18
-1.87913e-18
-1.89313e-18
-1.87945e-18
-1.88929e-18
-1.87687e-18
-1.8747e-18
-1.86391e-18
-1.86285e-18
-1.85162e-18
-1.86037e-18
-1.84793e-18
-1.83973e-18
-1.83969e-18
-1.83978e-18
-1.83048e-18
-1.84192e-18
-1.83215e-18
-1.84732e-18
-1.85682e-18
-1.87379e-18
-1.88118e-18
-1.88116e-18
-1.89822e-18
-1.90898e-18
-1.90466e-18
-1.91576e-18
-1.89234e-18
-1.91236e-18
-1.8845e-18
-1.9051e-18
-1.88072e-18
-1.89465e-18
-1.87979e-18
-1.87567e-18
-1.87532e-18
-1.87911e-18
-1.87347e-18
-1.88247e-18
-1.88503e-18
-1.89684e-18
-1.90155e-18
-1.91675e-18
-1.9002e-18
-1.91145e-18
-1.89573e-18
-1.91599e-18
-1.90825e-18
-1.91145e-18
-1.9019e-18
-1.89483e-18
-1.88293e-18
-1.8924e-18
-1.88164e-18
-1.8964e-18
-1.87461e-18
-1.88314e-18
-1.86196e-18
-1.86258e-18
-1.85106e-18
-1.85314e-18
-1.84205e-18
-1.83939e-18
-1.83572e-18
-1.835e-18
-1.83377e-18
-1.83727e-18
-1.8415e-18
-1.84251e-18
-1.86076e-18
-1.87034e-18
-1.88511e-18
-1.89252e-18
-1.89165e-18
-1.90011e-18
-1.89995e-18
-1.91084e-18
-1.89657e-18
-1.90326e-18
-1.88932e-18
-1.9042e-18
-1.8878e-18
-1.89484e-18
-1.88611e-18
-1.87954e-18
-1.86747e-18
-1.87903e-18
-1.86699e-18
-1.87711e-18
-1.88696e-18
-1.90032e-18
-1.8966e-18
-1.91394e-18
-1.90369e-18
-1.91277e-18
-1.8971e-18
-1.92418e-18
-1.9017e-18
-1.91173e-18
-1.9032e-18
-1.9014e-18
-1.88258e-18
-1.89192e-18
-1.88349e-18
-1.89616e-18
-1.87587e-18
-1.87642e-18
-1.86266e-18
-1.86921e-18
-1.85804e-18
-1.85582e-18
-1.84386e-18
-1.84003e-18
-1.83466e-18
-1.83606e-18
-1.83312e-18
-1.83843e-18
-1.83832e-18
-1.84616e-18
-1.85712e-18
-1.86973e-18
-1.87863e-18
-1.89055e-18
-1.89358e-18
-1.89666e-18
-1.90364e-18
-1.91002e-18
-1.8949e-18
-1.90245e-18
-1.89843e-18
-1.90919e-18
-1.88392e-18
-1.90162e-18
-1.88018e-18
-1.87271e-18
-1.87309e-18
-1.87463e-18
-1.87087e-18
-1.87916e-18
-1.88653e-18
-1.90164e-18
-1.89751e-18
-1.91286e-18
-1.89624e-18
-1.92179e-18
-1.90078e-18
-1.92298e-18
-1.90519e-18
-1.91223e-18
-1.90299e-18
-1.90287e-18
-1.88474e-18
-1.8945e-18
-1.88223e-18
-1.89253e-18
-1.8778e-18
-1.87187e-18
-1.86026e-18
-1.8693e-18
-1.85911e-18
-1.85667e-18
-1.84365e-18
-1.83878e-18
-1.83922e-18
-1.8419e-18
-1.82671e-18
-1.83869e-18
-1.83603e-18
-1.85113e-18
-1.85916e-18
-1.86918e-18
-1.87642e-18
-1.88497e-18
-1.88849e-18
-1.90715e-18
-1.90126e-18
-1.90482e-18
-1.89439e-18
-1.90317e-18
-1.89581e-18
-1.90398e-18
-1.88421e-18
-1.89781e-18
-1.87524e-18
-1.87833e-18
-1.87638e-18
-1.87841e-18
-1.88311e-18
-1.88119e-18
-1.88602e-18
-1.90631e-18
-1.89593e-18
-1.91533e-18
-1.89211e-18
-1.9142e-18
-1.90302e-18
-1.91716e-18
-1.90698e-18
-1.91105e-18
-1.90872e-18
-1.90593e-18
-1.88981e-18
-1.89449e-18
-1.88025e-18
-1.8897e-18
-1.87962e-18
-1.87587e-18
-1.8614e-18
-1.87149e-18
-1.85447e-18
-1.85857e-18
-1.84242e-18
-1.83842e-18
-1.83669e-18
-1.84599e-18
-1.82568e-18
-1.83678e-18
-1.83637e-18
-1.85101e-18
-1.86114e-18
-1.87283e-18
-1.88069e-18
-1.88598e-18
-1.89387e-18
-1.91088e-18
-1.89835e-18
-1.90075e-18
-1.88825e-18
-1.90312e-18
-1.88179e-18
-1.89105e-18
-1.88015e-18
-1.89708e-18
-1.87577e-18
-1.86991e-18
-1.8765e-18
-1.87504e-18
-1.88947e-18
-1.88581e-18
-1.8867e-18
-1.90362e-18
-1.89093e-18
-1.9128e-18
-1.89794e-18
-1.91837e-18
-1.8986e-18
-1.91623e-18
-1.90585e-18
-1.91177e-18
-1.9098e-18
-1.90084e-18
-1.89229e-18
-1.89193e-18
-1.88265e-18
-1.88529e-18
-1.88548e-18
-1.88085e-18
-1.86456e-18
-1.86934e-18
-1.8515e-18
-1.85605e-18
-1.84567e-18
-1.83574e-18
-1.83683e-18
-1.8407e-18
-1.83166e-18
-1.83869e-18
-1.84157e-18
-1.84774e-18
-1.85851e-18
-1.87556e-18
-1.88266e-18
-1.89147e-18
-1.88507e-18
-1.90855e-18
-1.89533e-18
-1.90273e-18
-1.8864e-18
-1.90165e-18
-1.88409e-18
-1.88339e-18
-1.88297e-18
-1.89278e-18
-1.88856e-18
-1.87349e-18
-1.87669e-18
-1.87071e-18
-1.87801e-18
-1.88813e-18
-1.88854e-18
-1.90654e-18
-1.90157e-18
-1.91288e-18
-1.89934e-18
-1.92021e-18
-1.90325e-18
-1.9259e-18
-1.90547e-18
-1.91527e-18
-1.90733e-18
-1.90395e-18
-1.89284e-18
-1.89268e-18
-1.88351e-18
-1.88505e-18
-1.88042e-18
-1.87727e-18
-1.8679e-18
-1.87019e-18
-1.85424e-18
-1.85419e-18
-1.84932e-18
-1.83752e-18
-1.84011e-18
-1.83653e-18
-1.83332e-18
-1.83611e-18
-1.8426e-18
-1.85032e-18
-1.8581e-18
-1.87476e-18
-1.87607e-18
-1.88721e-18
-1.88545e-18
-1.90129e-18
-1.89747e-18
-1.89872e-18
-1.88075e-18
-1.89789e-18
-1.88622e-18
-1.89807e-18
-1.88737e-18
-1.88825e-18
-1.88387e-18
-1.87691e-18
-1.8791e-18
-1.8736e-18
-1.87486e-18
-1.88747e-18
-1.88587e-18
-1.90443e-18
-1.89493e-18
-1.91626e-18
-1.90345e-18
-1.91713e-18
-1.91184e-18
-1.92394e-18
-1.90657e-18
-1.92067e-18
-1.90573e-18
-1.9062e-18
-1.89282e-18
-1.89573e-18
-1.88024e-18
-1.88935e-18
-1.8781e-18
-1.87514e-18
-1.86659e-18
-1.873e-18
-1.85588e-18
-1.85195e-18
-1.84762e-18
-1.83734e-18
-1.83717e-18
-1.83509e-18
-1.83088e-18
-1.83619e-18
-1.84361e-18
-1.85242e-18
-1.85584e-18
-1.87192e-18
-1.87743e-18
-1.88491e-18
-1.88784e-18
-1.89695e-18
-1.89866e-18
-1.90931e-18
-1.88352e-18
-1.89705e-18
-1.88595e-18
-1.89644e-18
-1.88687e-18
-1.88723e-18
-1.87831e-18
-1.8748e-18
-1.88321e-18
-1.87768e-18
-1.86829e-18
-1.88694e-18
-1.88689e-18
-1.89876e-18
-1.9001e-18
-1.91776e-18
-1.89863e-18
-1.92033e-18
-1.91147e-18
-1.91492e-18
-1.9056e-18
-1.92234e-18
-1.90795e-18
-1.91074e-18
-1.89263e-18
-1.89365e-18
-1.88117e-18
-1.88939e-18
-1.87969e-18
-1.87575e-18
-1.86603e-18
-1.87117e-18
-1.85648e-18
-1.85504e-18
-1.84777e-18
-1.83705e-18
-1.8356e-18
-1.83897e-18
-1.83057e-18
-1.83888e-18
-1.84239e-18
-1.85061e-18
-1.85218e-18
-1.86836e-18
-1.8831e-18
-1.88441e-18
-1.8828e-18
-1.90783e-18
-1.89846e-18
-1.90551e-18
-1.88717e-18
-1.89729e-18
-1.88508e-18
-1.90219e-18
-1.88208e-18
-1.88419e-18
-1.87555e-18
-1.86316e-18
-1.87828e-18
-1.86888e-18
-1.86698e-18
-1.8849e-18
-1.89197e-18
-1.90588e-18
-1.90589e-18
-1.9166e-18
-1.89818e-18
-1.92801e-18
-1.90843e-18
-1.91299e-18
-1.90697e-18
-1.92772e-18
-1.90996e-18
-1.91326e-18
-1.89486e-18
-1.89173e-18
-1.8875e-18
-1.88917e-18
-1.88077e-18
-1.8764e-18
-1.86533e-18
-1.8739e-18
-1.85693e-18
-1.85684e-18
-1.85055e-18
-1.83712e-18
-1.83661e-18
-1.83512e-18
-1.8353e-18
-1.83812e-18
-1.84159e-18
-1.84975e-18
-1.84714e-18
-1.86487e-18
-1.88581e-18
-1.88652e-18
-1.87971e-18
-1.90782e-18
-1.89769e-18
-1.90537e-18
-1.88001e-18
-1.89227e-18
-1.88649e-18
-1.90151e-18
-1.88464e-18
-1.8908e-18
-1.88578e-18
-1.87401e-18
-1.88216e-18
-1.86097e-18
-1.87821e-18
-1.87929e-18
-1.88908e-18
-1.90308e-18
-1.89905e-18
-1.91156e-18
-1.90191e-18
-1.91716e-18
-1.90102e-18
-1.92382e-18
-1.89964e-18
-1.92068e-18
-1.90922e-18
-1.91042e-18
-1.89563e-18
-1.89283e-18
-1.88687e-18
-1.88991e-18
-1.88308e-18
-1.87583e-18
-1.86446e-18
-1.87255e-18
-1.85765e-18
-1.85652e-18
-1.84952e-18
-1.83535e-18
-1.83932e-18
-1.83685e-18
-1.8361e-18
-1.84035e-18
-1.84203e-18
-1.85366e-18
-1.85595e-18
-1.87449e-18
-1.87224e-18
-1.89285e-18
-1.89145e-18
-1.9044e-18
-1.89761e-18
-1.89887e-18
-1.88298e-18
-1.89533e-18
-1.8918e-18
-1.89251e-18
-1.89433e-18
-1.8917e-18
-1.87966e-18
-1.87976e-18
-1.87863e-18
-1.87333e-18
-1.88497e-18
-1.88179e-18
-1.89066e-18
-1.90006e-18
-1.89831e-18
-1.91005e-18
-1.90372e-18
-1.92365e-18
-1.90497e-18
-1.92785e-18
-1.90864e-18
-1.91696e-18
-1.90837e-18
-1.90694e-18
-1.89796e-18
-1.89352e-18
-1.88616e-18
-1.89156e-18
-1.87779e-18
-1.87572e-18
-1.86848e-18
-1.87312e-18
-1.85822e-18
-1.85711e-18
-1.85066e-18
-1.84016e-18
-1.83575e-18
-1.8398e-18
-1.83559e-18
-1.83838e-18
-1.84404e-18
-1.85509e-18
-1.85531e-18
-1.87376e-18
-1.86532e-18
-1.89431e-18
-1.88639e-18
-1.90489e-18
-1.89706e-18
-1.89344e-18
-1.88527e-18
-1.89684e-18
-1.88769e-18
-1.88808e-18
-1.88384e-18
-1.89345e-18
-1.87747e-18
-1.87879e-18
-1.88539e-18
-1.88142e-18
-1.88342e-18
-1.88735e-18
-1.88384e-18
-1.89117e-18
-1.89505e-18
-1.91679e-18
-1.90448e-18
-1.91616e-18
-1.90769e-18
-1.92116e-18
-1.91195e-18
-1.92204e-18
-1.90624e-18
-1.90358e-18
-1.89774e-18
-1.89671e-18
-1.88577e-18
-1.89336e-18
-1.87868e-18
-1.88105e-18
-1.86942e-18
-1.87552e-18
-1.85867e-18
-1.85732e-18
-1.84892e-18
-1.84113e-18
-1.83505e-18
-1.83781e-18
-1.83214e-18
-1.84217e-18
-1.84515e-18
-1.85741e-18
-1.85125e-18
-1.87492e-18
-1.87003e-18
-1.89281e-18
-1.88282e-18
-1.90155e-18
-1.88962e-18
-1.88853e-18
-1.88537e-18
-1.90368e-18
-1.87919e-18
-1.89168e-18
-1.87658e-18
-1.89025e-18
-1.87307e-18
-1.87663e-18
-1.88553e-18
-1.8808e-18
-1.87369e-18
-1.88974e-18
-1.88529e-18
-1.89821e-18
-1.89249e-18
-1.91337e-18
-1.90663e-18
-1.91494e-18
-1.90819e-18
-1.92279e-18
-1.91504e-18
-1.92202e-18
-1.90444e-18
-1.91367e-18
-1.8914e-18
-1.89505e-18
-1.88562e-18
-1.89167e-18
-1.87942e-18
-1.88112e-18
-1.86938e-18
-1.87359e-18
-1.85897e-18
-1.85718e-18
-1.84843e-18
-1.83799e-18
-1.83388e-18
-1.83674e-18
-1.83551e-18
-1.84394e-18
-1.83564e-18
-1.85823e-18
-1.84902e-18
-1.86703e-18
-1.87243e-18
-1.88999e-18
-1.88146e-18
-1.8981e-18
-1.89332e-18
-1.89519e-18
-1.87939e-18
-1.89621e-18
-1.87759e-18
-1.89153e-18
-1.88047e-18
-1.88385e-18
-1.87594e-18
-1.87969e-18
-1.87715e-18
-1.87507e-18
-1.88531e-18
-1.88852e-18
-1.90451e-18
-1.89795e-18
-1.91216e-18
-1.91098e-18
-1.92289e-18
-1.90812e-18
-1.92102e-18
-1.90927e-18
-1.92418e-18
-1.90603e-18
-1.91269e-18
-1.89533e-18
-1.89793e-18
-1.88975e-18
-1.89416e-18
-1.88043e-18
-1.88251e-18
-1.87082e-18
-1.87265e-18
-1.85955e-18
-1.8575e-18
-1.84795e-18
-1.83604e-18
-1.83027e-18
-1.83292e-18
-1.83675e-18
-1.84303e-18
-1.84117e-18
-1.85453e-18
-1.85136e-18
-1.86928e-18
-1.87232e-18
-1.89058e-18
-1.88347e-18
-1.8941e-18
-1.89535e-18
-1.89526e-18
-1.87753e-18
-1.89182e-18
-1.88118e-18
-1.89157e-18
-1.88229e-18
-1.87371e-18
-1.87734e-18
-1.88143e-18
-1.88652e-18
-1.88479e-18
-1.88818e-18
-1.904e-18
-1.89973e-18
-1.91033e-18
-1.90823e-18
-1.9255e-18
-1.90822e-18
-1.92646e-18
-1.90999e-18
-1.92579e-18
-1.91131e-18
-1.90996e-18
-1.89864e-18
-1.89809e-18
-1.89214e-18
-1.89518e-18
-1.88011e-18
-1.88043e-18
-1.87211e-18
-1.87382e-18
-1.86003e-18
-1.85748e-18
-1.84592e-18
-1.83448e-18
-1.82822e-18
-1.83072e-18
-1.83834e-18
-1.83748e-18
-1.84649e-18
-1.85062e-18
-1.85584e-18
-1.8681e-18
-1.86744e-18
-1.88825e-18
-1.8915e-18
-1.89716e-18
-1.89352e-18
-1.8943e-18
-1.87508e-18
-1.88921e-18
-1.87849e-18
-1.88119e-18
-1.88571e-18
-1.87577e-18
-1.87972e-18
-1.88596e-18
-1.88238e-18
-1.89038e-18
-1.89539e-18
-1.89873e-18
-1.91654e-18
-1.91409e-18
-1.91883e-18
-1.90768e-18
-1.92863e-18
-1.90625e-18
-1.92722e-18
-1.91217e-18
-1.91044e-18
-1.8964e-18
-1.89868e-18
-1.89016e-18
-1.89284e-18
-1.88084e-18
-1.87846e-18
-1.87137e-18
-1.87665e-18
-1.86158e-18
-1.85752e-18
-1.84897e-18
-1.83755e-18
-1.82807e-18
-1.832e-18
-1.83457e-18
-1.83773e-18
-1.84058e-18
-1.84908e-18
-1.85097e-18
-1.87203e-18
-1.86936e-18
-1.88875e-18
-1.89558e-18
-1.89154e-18
-1.88526e-18
-1.89163e-18
-1.88668e-18
-1.89129e-18
-1.88134e-18
-1.87786e-18
-1.87559e-18
-1.87112e-18
-1.88402e-18
-1.88542e-18
-1.88558e-18
-1.90094e-18
-1.89617e-18
-1.90684e-18
-1.9064e-18
-1.91947e-18
-1.90655e-18
-1.92507e-18
-1.91318e-18
-1.92286e-18
-1.90725e-18
-1.91253e-18
-1.89257e-18
-1.90086e-18
-1.89079e-18
-1.88989e-18
-1.88377e-18
-1.87771e-18
-1.87093e-18
-1.875e-18
-1.86417e-18
-1.85837e-18
-1.84969e-18
-1.83788e-18
-1.82897e-18
-1.83327e-18
-1.83123e-18
-1.8395e-18
-1.83776e-18
-1.85177e-18
-1.84944e-18
-1.86477e-18
-1.87748e-18
-1.89046e-18
-1.88734e-18
-1.89942e-18
-1.89376e-18
-1.89019e-18
-1.88034e-18
-1.89161e-18
-1.87123e-18
-1.87258e-18
-1.87076e-18
-1.87967e-18
-1.88339e-18
-1.87246e-18
-1.90399e-18
-1.89537e-18
-1.90065e-18
-1.90826e-18
-1.91515e-18
-1.90742e-18
-1.92658e-18
-1.91392e-18
-1.92208e-18
-1.90821e-18
-1.91252e-18
-1.89531e-18
-1.9024e-18
-1.89172e-18
-1.8889e-18
-1.88028e-18
-1.88222e-18
-1.87154e-18
-1.87575e-18
-1.86216e-18
-1.85808e-18
-1.84818e-18
-1.83969e-18
-1.83425e-18
-1.83531e-18
-1.83385e-18
-1.83907e-18
-1.84122e-18
-1.85155e-18
-1.85225e-18
-1.86357e-18
-1.86847e-18
-1.88268e-18
-1.88979e-18
-1.90034e-18
-1.89918e-18
-1.89026e-18
-1.87142e-18
-1.90155e-18
-1.87641e-18
-1.88359e-18
-1.88261e-18
-1.88563e-18
-1.88078e-18
-1.88093e-18
-1.90404e-18
-1.89592e-18
-1.90495e-18
-1.91621e-18
-1.91821e-18
-1.90376e-18
-1.92647e-18
-1.90904e-18
-1.91892e-18
-1.9105e-18
-1.91157e-18
-1.89673e-18
-1.90256e-18
-1.89515e-18
-1.88872e-18
-1.87604e-18
-1.88122e-18
-1.87313e-18
-1.87366e-18
-1.86123e-18
-1.85785e-18
-1.8511e-18
-1.84438e-18
-1.83276e-18
-1.83071e-18
-1.83528e-18
-1.83903e-18
-1.84162e-18
-1.84702e-18
-1.85458e-18
-1.86827e-18
-1.86501e-18
-1.88665e-18
-1.8864e-18
-1.89161e-18
-1.89309e-18
-1.89041e-18
-1.87161e-18
-1.89254e-18
-1.87835e-18
-1.88348e-18
-1.88665e-18
-1.8912e-18
-1.88339e-18
-1.88389e-18
-1.90079e-18
-1.89986e-18
-1.91375e-18
-1.91313e-18
-1.91353e-18
-1.91378e-18
-1.92485e-18
-1.91693e-18
-1.92203e-18
-1.9055e-18
-1.91615e-18
-1.89979e-18
-1.90172e-18
-1.89164e-18
-1.88532e-18
-1.88044e-18
-1.87889e-18
-1.87537e-18
-1.87278e-18
-1.86205e-18
-1.858e-18
-1.85541e-18
-1.84324e-18
-1.83303e-18
-1.83301e-18
-1.83164e-18
-1.83539e-18
-1.83949e-18
-1.84865e-18
-1.85108e-18
-1.86263e-18
-1.86714e-18
-1.88608e-18
-1.88943e-18
-1.888e-18
-1.88361e-18
-1.88573e-18
-1.87504e-18
-1.89096e-18
-1.87853e-18
-1.88136e-18
-1.88048e-18
-1.88215e-18
-1.88795e-18
-1.88498e-18
-1.89427e-18
-1.89572e-18
-1.91244e-18
-1.91044e-18
-1.92077e-18
-1.91204e-18
-1.92898e-18
-1.91758e-18
-1.92312e-18
-1.90394e-18
-1.91624e-18
-1.89984e-18
-1.90063e-18
-1.88959e-18
-1.88518e-18
-1.88011e-18
-1.87625e-18
-1.87292e-18
-1.87268e-18
-1.86496e-18
-1.85813e-18
-1.85402e-18
-1.84032e-18
-1.82861e-18
-1.83385e-18
-1.83016e-18
-1.83358e-18
-1.83735e-18
-1.84501e-18
-1.8504e-18
-1.86312e-18