/*--------------------------------*- C++ -*----------------------------------*\
  =========                 |
  \\      /  F ield         | OpenFOAM: The Open Source CFD Toolbox
   \\    /   O peration     | Website:  https://openfoam.org
    \\  /    A nd           | Version:  7
     \\/     M anipulation  |
\*---------------------------------------------------------------------------*/
FoamFile
{
    version     2.0;
    format      ascii;
    class       surfaceScalarField;
    location    "244000";
    object      phi;
}
// * * * * * * * * * * * * * * * * * * * * * * * * * * * * * * * * * * * * * //

dimensions      [0 3 -1 0 0 0 0];

internalField   nonuniform List<scalar> 
9490
(
-2.05931e-23
1.47111e-22
1.63695e-23
-2.37727e-23
-2.15634e-23
1.40015e-22
1.65556e-23
-2.4468e-23
-1.86632e-23
-1.63663e-23
1.33503e-22
-9.04209e-24
1.60131e-22
4.51668e-23
-2.20687e-23
1.47166e-22
1.59869e-23
-2.37305e-23
1.44714e-23
-1.59072e-23
1.04045e-22
-9.6668e-24
1.47357e-22
4.68514e-23
-2.24547e-23
1.43251e-22
1.48575e-23
-2.4431e-23
2.0257e-23
-1.52504e-23
1.77212e-22
-1.12705e-23
1.7605e-22
4.31343e-23
-2.09352e-23
1.05374e-22
1.51095e-23
-2.39237e-23
-1.0429e-22
-1.47358e-23
1.75101e-22
-1.25415e-23
2.08734e-22
3.59734e-23
-2.30619e-23
2.22452e-23
1.38837e-23
-2.13731e-23
-8.21979e-23
-1.60008e-23
1.33383e-22
-1.32471e-23
1.60092e-22
1.03399e-24
-2.2688e-23
2.89073e-23
1.51191e-23
-2.0975e-23
-4.78351e-23
-1.46633e-23
1.32992e-22
-1.45076e-23
5.77505e-23
-5.69303e-24
-2.12042e-23
6.28589e-23
1.64668e-23
-2.04791e-23
-3.55797e-23
-1.44634e-23
1.2787e-22
-1.46384e-23
4.86792e-23
-5.38643e-23
-2.1643e-23
7.09201e-23
1.64292e-23
-1.95257e-23
2.98284e-23
-1.52327e-23
1.27665e-22
-1.4966e-23
7.53742e-23
-5.96159e-23
-2.19262e-23
7.7771e-23
1.49457e-23
-1.88969e-23
1.30843e-22
-1.59493e-23
1.30153e-22
-1.55501e-23
1.05507e-22
-6.91541e-23
-2.10161e-23
1.79936e-24
1.40645e-23
-1.93058e-23
1.30373e-22
-1.53748e-23
1.25468e-22
-1.67825e-23
1.25919e-22
-1.0321e-23
-2.01774e-23
7.57878e-24
1.40684e-23
-1.92243e-23
1.31342e-22
-1.7099e-23
1.19106e-22
-1.69122e-23
1.14962e-22
-2.07533e-23
-1.8219e-23
-3.21712e-23
1.43847e-23
-1.92403e-23
1.15009e-22
-1.80424e-23
9.63517e-23
-1.71017e-23
1.05796e-22
-1.7969e-23
-2.90907e-23
1.36559e-23
-1.87301e-23
1.09244e-22
-1.84713e-23
4.55374e-23
9.80229e-23
-1.77751e-23
-2.93211e-23
1.43134e-23
-1.85827e-23
1.02548e-22
-1.9347e-23
3.71631e-23
1.59706e-22
-1.78102e-23
-1.03324e-22
1.39961e-23
-1.75963e-23
1.60649e-22
-1.91962e-23
2.99469e-23
-1.72775e-23
-2.16514e-23
1.41688e-23
-1.79336e-23
1.54548e-22
-1.50167e-23
-1.64764e-23
-6.16045e-23
1.38635e-23
-1.76301e-23
1.45444e-22
-1.61251e-23
-6.3399e-23
1.48134e-23
1.37737e-22
-1.64802e-23
-2.48311e-23
1.44687e-23
1.30983e-22
-1.60406e-23
-8.80831e-23
1.39224e-23
1.09181e-22
-1.5907e-23
-6.78039e-23
1.40895e-23
6.3059e-23
-1.48461e-23
8.35942e-24
1.52547e-23
1.49564e-23
8.45832e-24
6.3736e-23
1.34443e-24
7.63677e-24
5.07405e-23
1.08105e-23
2.6358e-23
2.0995e-23
1.00758e-22
1.29391e-23
1.58364e-23
1.53362e-23
-1.70316e-23
1.60153e-23
2.26512e-23
1.26406e-23
-1.84935e-23
7.48857e-24
6.60264e-23
1.14601e-23
-8.6249e-24
9.94726e-24
2.41184e-23
-4.75855e-24
5.68018e-23
-6.7747e-24
6.52694e-23
5.48391e-24
1.42401e-22
1.31326e-23
1.94371e-22
2.89198e-23
1.7733e-22
2.07782e-23
8.18427e-23
2.0623e-23
5.63706e-23
2.75504e-25
3.56331e-23
2.99657e-23
8.0953e-24
1.09322e-22
1.82617e-24
6.79699e-24
8.75494e-23
1.33657e-23
-2.61556e-23
1.68977e-23
8.62048e-23
1.23291e-23
-2.18736e-23
1.32426e-23
-2.35721e-23
1.58082e-23
9.86795e-24
1.2365e-23
-2.61801e-23
9.39929e-24
2.00258e-22
9.83946e-24
-1.70446e-23
1.08857e-23
1.51708e-23
-3.07015e-24
2.19992e-23
-6.46481e-24
3.78624e-23
6.36104e-24
1.7196e-22
1.4092e-23
1.8836e-22
2.69043e-23
1.60155e-22
1.86776e-23
8.63464e-23
1.94867e-23
2.1366e-23
-1.19207e-24
2.54759e-23
7.94188e-23
8.4751e-24
3.0805e-23
-7.86694e-25
5.26564e-24
6.28919e-23
1.34053e-23
-3.80157e-23
1.53583e-23
7.71761e-23
1.15502e-23
-6.96275e-24
1.2347e-23
-2.73369e-23
1.62576e-23
2.72017e-24
1.37559e-23
-3.08205e-23
7.13009e-24
1.9241e-22
9.79673e-24
-1.89717e-23
1.00811e-23
1.05609e-23
-1.98808e-24
2.02981e-23
-3.22506e-24
7.81236e-23
6.09306e-24
1.60525e-22
1.44071e-23
1.78056e-22
2.43707e-23
1.1544e-22
1.91039e-23
5.51331e-23
1.94197e-23
1.82211e-23
-7.30879e-25
-3.19007e-23
8.65924e-23
6.36433e-24
3.41622e-23
-3.32364e-24
4.80194e-24
2.5309e-23
1.44718e-23
-1.22182e-23
1.36449e-23
3.22984e-23
1.11317e-23
2.45963e-23
1.0793e-23
-2.74276e-23
1.87165e-23
-3.36506e-23
1.62434e-23
-6.50599e-23
5.95774e-24
1.44915e-22
8.65282e-24
-2.0549e-23
1.23373e-23
4.49624e-23
-8.82922e-25
2.45991e-23
-1.38467e-24
8.10505e-23
6.6132e-24
1.79541e-22
1.33194e-23
1.25436e-22
2.37075e-23
1.06267e-22
1.77891e-23
5.79788e-23
1.76442e-23
8.72873e-24
2.19521e-24
-1.63975e-23
9.49867e-23
4.70025e-24
3.7941e-23
-3.93979e-24
2.79441e-24
8.08241e-23
1.5233e-23
-7.86412e-23
1.43422e-23
2.50859e-23
1.00339e-23
2.08844e-23
9.66124e-24
-1.88912e-23
1.89348e-23
7.99143e-24
1.6947e-23
-3.28886e-23
5.40766e-24
1.08348e-22
7.78885e-24
2.30904e-23
1.23943e-23
8.23661e-23
6.41577e-25
3.65348e-23
8.01916e-25
2.87759e-23
5.97725e-24
1.39356e-22
1.21298e-23
7.73509e-23
2.34778e-23
1.13002e-22
1.56069e-23
1.09449e-23
1.72736e-23
5.18707e-24
3.19521e-24
-7.68732e-24
1.41052e-22
4.78448e-24
1.46307e-24
-2.25618e-24
-2.61149e-25
9.63416e-23
1.49359e-23
-1.13156e-22
1.48666e-23
5.26892e-23
9.72852e-24
2.84697e-23
7.72246e-24
-1.01324e-23
2.11436e-23
5.33366e-23
1.8475e-23
-3.25968e-23
6.64628e-24
1.20489e-22
8.0115e-24
-5.92433e-23
1.32496e-23
1.1896e-22
1.51352e-24
4.84834e-23
2.77643e-24
9.4731e-23
4.47106e-24
1.67708e-22
1.26664e-23
1.03651e-22
2.08465e-23
1.07779e-22
1.46944e-23
1.37361e-23
1.7148e-23
3.26074e-23
5.35192e-24
-3.83771e-23
6.19541e-23
3.43021e-24
-4.01077e-23
-2.62531e-24
-1.86905e-24
8.67996e-23
1.69663e-23
-5.31816e-23
1.41343e-23
1.58474e-23
8.7426e-24
3.8481e-23
8.22364e-24
-1.26277e-23
2.02791e-23
1.46678e-22
1.88526e-23
-2.51133e-23
6.55903e-24
1.28805e-22
8.0862e-24
-4.70696e-23
1.32147e-23
1.50942e-22
1.70779e-24
9.20687e-23
2.40532e-24
8.25826e-23
4.78655e-24
1.14838e-22
1.08012e-23
1.07848e-22
1.89218e-23
1.02947e-22
1.51352e-23
-6.83353e-23
1.65785e-23
3.02087e-23
6.06635e-24
4.82603e-23
1.07164e-22
4.00678e-24
2.19909e-25
-7.12504e-25
-3.6462e-24
5.70455e-23
1.63303e-23
-9.21694e-24
1.49667e-23
-2.74041e-23
8.94703e-24
8.77022e-24
1.06636e-23
7.96647e-25
2.02585e-23
2.46065e-22
1.79608e-23
-9.87347e-23
5.91132e-24
1.0201e-22
8.75167e-24
-4.06444e-23
1.40036e-23
1.5069e-22
8.80218e-25
2.26382e-23
4.31269e-24
1.12083e-22
4.1746e-24
7.80356e-23
1.05278e-23
6.22057e-23
1.6996e-23
9.79841e-23
1.67192e-23
-2.6638e-23
1.85246e-23
2.83327e-23
4.69205e-24
1.72293e-23
7.0272e-24
1.09291e-22
7.39841e-24
2.02063e-23
6.80531e-24
6.20644e-23
1.17607e-23
7.1234e-23
1.0645e-23
-1.5335e-23
-4.36982e-24
-7.7173e-23
-3.37578e-24
-2.69073e-23
3.76755e-24
6.43011e-23
-8.27212e-25
-3.28326e-23
3.00538e-24
2.55882e-23
-6.1088e-24
-1.8626e-23
5.67194e-24
4.68832e-24
-3.07011e-24
-6.81222e-23
-4.49797e-24
1.43833e-23
1.044e-23
9.564e-23
6.50523e-23
4.93739e-24
8.39716e-23
9.65039e-25
-4.4094e-24
1.75452e-23
1.65113e-23
4.43894e-23
1.52696e-23
-4.0513e-23
9.97942e-24
9.07557e-23
1.29769e-23
4.17818e-23
1.64444e-23
1.96897e-22
1.88316e-23
-4.56934e-23
4.59193e-24
9.79876e-23
1.04148e-23
-5.58693e-23
1.52546e-23
1.41592e-22
8.99939e-25
-5.81668e-23
3.46916e-24
1.01069e-22
2.89739e-24
6.85236e-23
1.07715e-23
5.47841e-23
1.40178e-23
9.10964e-23
1.72001e-23
5.77209e-23
1.94756e-23
2.40862e-23
4.60848e-24
-6.74722e-23
7.38688e-24
1.06556e-22
6.90942e-24
9.7288e-24
6.96493e-24
3.21691e-23
1.02271e-23
6.14795e-23
9.45877e-24
-1.08155e-23
-3.61532e-24
-6.30233e-23
-2.01522e-24
-2.83685e-24
2.38032e-24
6.57371e-23
-6.38613e-25
-7.09804e-23
2.10332e-24
2.72471e-23
-5.32734e-24
-1.466e-23
4.6465e-24
9.3345e-25
-1.38963e-24
-8.97415e-23
-2.77025e-24
-7.07834e-24
1.0467e-23
8.05844e-23
1.43446e-24
6.61309e-23
5.84084e-24
7.35464e-23
7.57382e-24
2.19074e-24
6.85043e-24
-1.48822e-24
-3.36325e-24
-2.60491e-23
1.4073e-23
1.45615e-22
1.5867e-23
-5.58359e-23
1.14258e-23
1.01321e-22
1.26761e-23
-7.98067e-23
1.3171e-23
1.33632e-22
2.05984e-23
-4.30306e-23
3.61604e-24
3.39808e-23
1.05568e-23
-5.4308e-23
1.43184e-23
1.37973e-22
2.6679e-24
-5.8063e-23
3.43995e-24
1.2982e-22
2.09315e-24
5.38769e-23
1.15717e-23
3.86707e-23
1.42252e-23
4.44255e-23
1.55228e-23
6.54565e-23
1.91583e-23
5.01125e-23
5.99615e-24
-6.35583e-23
7.55328e-24
1.05762e-22
6.6409e-24
-6.60097e-23
7.52209e-24
3.92757e-23
8.48094e-24
5.89504e-23
8.71481e-24
2.51533e-24
-2.24538e-24
-4.63126e-23
-1.75106e-24
-3.0722e-23
1.18899e-24
7.17983e-23
-4.76803e-25
-6.97754e-23
1.72329e-24
3.18436e-23
-5.34438e-24
3.33206e-24
3.52822e-24
-1.5669e-24
1.31949e-25
-8.00148e-23
-1.92971e-24
-3.17121e-23
1.20572e-23
9.79729e-23
1.08874e-24
3.15406e-23
3.17621e-24
3.88931e-23
6.48771e-24
1.58601e-23
7.80088e-23
2.20226e-24
1.21911e-23
-2.34481e-24
-2.33987e-24
-6.65304e-23
1.15974e-23
1.52935e-22
1.81986e-23
-2.62792e-23
7.475e-24
3.50664e-23
1.55418e-23
-3.22626e-23
1.13538e-23
7.3466e-23
2.03889e-23
-1.30124e-23
3.0367e-24
6.67519e-24
1.23724e-23
-5.64275e-23
1.26886e-23
1.03581e-22
4.73594e-24
-6.80197e-23
2.77482e-24
1.2297e-22
-7.59803e-26
3.79732e-23
1.25839e-23
4.45869e-23
1.46794e-23
6.58725e-23
1.52114e-23
7.00639e-23
1.87951e-23
4.75022e-23
7.03925e-24
-8.81648e-24
5.86388e-24
7.25477e-23
7.93236e-24
-4.37467e-23
8.0599e-24
4.3487e-23
7.40149e-24
2.16254e-23
8.29268e-24
1.19006e-23
-1.89584e-24
-3.05185e-23
-1.29602e-24
-1.58012e-23
3.25615e-25
8.07799e-23
-5.39511e-25
-1.06256e-22
2.0756e-24
2.53847e-23
-5.71122e-24
-1.87303e-23
2.42094e-24
3.36991e-23
1.12686e-24
-2.14997e-23
-1.37134e-25
-2.4161e-23
1.04401e-23
8.11664e-23
1.46159e-24
3.3412e-23
3.46644e-24
3.47801e-23
7.00605e-24
1.60691e-23
5.12351e-24
9.32185e-24
1.55569e-23
-2.23948e-23
5.054e-23
1.8943e-24
1.38442e-23
-1.60608e-24
-4.29357e-25
-6.75313e-23
8.8374e-24
1.77516e-22
1.75685e-23
-3.69465e-23
7.38563e-24
4.42095e-23
1.5685e-23
-3.03102e-23
1.14695e-23
9.35533e-24
2.05221e-23
8.806e-23
3.34809e-24
1.91982e-23
1.23278e-23
1.90342e-23
1.22714e-23
9.00054e-23
6.05397e-24
-7.87777e-23
2.76516e-24
9.06438e-23
-4.12723e-26
4.65002e-23
1.27829e-23
1.08031e-22
1.38018e-23
9.97115e-23
1.46086e-23
1.00836e-22
1.91129e-23
3.24104e-24
6.70449e-24
-2.8366e-23
5.63377e-24
7.42913e-23
9.88947e-24
1.86809e-23
7.32616e-24
4.86546e-23
7.14044e-24
2.22428e-23
8.00152e-24
2.08231e-23
-1.68881e-24
-1.35431e-23
-9.19108e-25
6.48333e-24
-1.1781e-24
9.35645e-23
-1.17499e-25
-1.08035e-22
1.14933e-24
6.24534e-23
-5.03719e-24
-1.13632e-23
2.01591e-24
-4.18287e-23
4.29667e-25
-4.1501e-24
1.91362e-24
-3.24829e-23
9.05299e-24
2.03633e-23
3.01067e-24
2.93605e-23
3.51427e-24
-5.98378e-24
5.56808e-24
1.79753e-23
5.55576e-24
5.86682e-23
1.64572e-23
-2.9781e-24
9.30276e-24
1.43469e-23
-1.15919e-23
-1.53421e-23
-2.6621e-23
2.19796e-25
1.47507e-23
-2.56801e-24
1.97045e-24
-1.10881e-22
7.51264e-24
1.00023e-22
1.72854e-23
-5.0847e-23
7.27905e-24
1.94725e-23
1.59456e-23
5.71313e-23
1.30338e-23
2.1747e-23
1.84457e-23
1.04762e-22
2.85981e-24
2.91327e-23
1.26516e-23
-1.44673e-24
1.19521e-23
-1.24962e-23
8.33746e-24
-6.36135e-24
1.60016e-24
1.74494e-22
1.37296e-24
1.68112e-22
1.20821e-23
4.76205e-23
1.30387e-23
5.44251e-23
1.41336e-23
9.84741e-23
1.93219e-23
6.30637e-24
6.55025e-24
4.04917e-23
5.1326e-24
7.05718e-23
1.04452e-23
2.01101e-23
6.3234e-24
2.57806e-23
7.1744e-24
5.35317e-23
7.95197e-24
2.23301e-23
-1.49795e-24
5.6231e-24
-8.63701e-25
5.78948e-23
-2.92574e-24
2.17769e-23
6.81764e-25
-1.08221e-22
6.77361e-25
1.56445e-23
-4.76804e-24
-3.71689e-24
3.31848e-24
-7.33686e-24
3.38264e-25
1.35433e-23
2.43957e-24
-3.14353e-23
8.69355e-24
1.13022e-23
2.93763e-24
1.16408e-22
3.19171e-24
-9.18411e-24
7.07667e-24
1.97673e-23
4.33012e-24
3.03728e-23
1.59289e-23
1.81821e-23
1.05927e-23
-9.66061e-24
-1.12618e-23
-7.24155e-23
-6.00867e-24
-3.23541e-23
-1.86081e-23
-4.06108e-23
-2.20547e-23
-2.5545e-23
-3.93526e-23
1.98323e-25
1.80435e-23
-1.69561e-24
3.01541e-24
-9.99363e-23
6.85837e-24
8.23304e-23
1.61096e-23
5.80448e-23
7.10424e-24
1.54922e-23
1.77068e-23
7.99129e-23
1.41115e-23
3.14747e-23
1.62966e-23
1.2482e-22
2.04373e-24
6.96004e-23
1.29403e-23
5.61651e-23
1.30284e-23
-3.25862e-23
9.19072e-24
1.31796e-23
3.56121e-24
1.3803e-22
-1.60691e-24
8.06099e-23
1.3118e-23
7.85298e-23
1.18045e-23
1.29837e-23
1.35082e-23
5.91542e-23
2.06136e-23
5.3176e-23
5.98355e-24
1.01147e-22
4.39253e-24
4.61132e-23
1.13112e-23
3.1699e-23
5.98456e-24
3.75242e-23
6.92419e-24
9.30331e-23
7.88657e-24
2.54544e-23
-5.97922e-25
-1.94572e-23
-2.93121e-24
-1.84318e-23
-3.09432e-24
3.63205e-23
8.48836e-25
-8.30941e-23
4.53525e-25
1.2196e-23
-4.49618e-24
1.28855e-24
3.7396e-24
-3.00338e-24
-1.47481e-25
-5.99757e-23
3.09628e-24
-3.02039e-23
1.07521e-23
-3.50364e-23
1.2123e-24
9.03103e-23
3.72843e-24
-1.20988e-23
6.1514e-24
2.60618e-23
5.2498e-24
5.87283e-23
1.50266e-23
4.5098e-23
1.01117e-23
2.32287e-24
-1.09611e-23
-8.33343e-23
-6.10521e-24
6.90907e-24
-1.79896e-23
-6.72108e-23
-2.08337e-23
-2.74634e-23
-2.57126e-23
-2.25524e-23
-1.86344e-23
1.40583e-22
-3.78353e-23
5.33817e-25
2.29178e-23
-8.29111e-25
2.65553e-24
-3.19562e-23
7.43015e-24
9.89887e-23
1.4904e-23
5.09418e-23
8.33693e-24
9.62413e-24
1.68409e-23
6.6091e-23
1.61499e-23
1.52044e-23
1.64275e-23
1.3585e-22
1.31378e-24
1.15412e-22
1.09708e-23
1.14423e-22
1.44818e-23
8.32685e-24
1.16877e-23
4.22654e-24
3.42466e-24
1.44031e-22
-3.28636e-24
8.19103e-23
1.25205e-23
6.54436e-23
1.18989e-23
1.00711e-23
1.30026e-23
4.45913e-23
2.29755e-23
8.6898e-23
4.19633e-24
1.35406e-23
4.03309e-24
-3.04988e-23
1.24326e-23
1.24069e-22
6.08828e-24
4.87623e-23
6.05273e-24
9.15028e-23
7.55797e-24
-1.08589e-23
-1.10151e-24
-4.92382e-23
-3.10811e-24
1.1996e-24
-3.22844e-24
6.1832e-23
3.56333e-25
-8.12292e-23
5.93644e-25
6.25673e-24
-3.88358e-24
3.70141e-23
2.08746e-24
1.74721e-24
7.82256e-25
-7.95802e-24
3.34631e-24
-3.22205e-23
1.24149e-23
-1.53009e-23
6.58425e-25
9.93792e-23
4.02214e-24
2.2416e-23
5.3037e-24
3.16943e-23
5.23942e-24
6.10605e-23
1.50607e-23
4.05751e-23
7.63909e-24
-1.46129e-23
-8.56117e-24
-1.98041e-22
-8.21714e-24
-6.7541e-23
-1.7044e-23
-9.50517e-23
-2.03003e-23
-6.92273e-23
-2.48014e-23
-6.16703e-24
-1.92332e-23
1.05198e-22
-1.86814e-23
-3.74666e-23
-8.2451e-24
8.62748e-23
-1.81636e-23
8.22147e-23
7.87494e-23
1.17701e-24
3.09481e-23
-6.97201e-26
3.05423e-24
-3.96375e-23
6.59147e-24
1.02965e-22
1.54462e-23
7.75475e-23
6.14488e-24
-2.10429e-23
1.76424e-23
6.84601e-23
1.53171e-23
-1.6876e-23
1.64518e-23
5.49049e-23
1.05959e-24
9.3187e-23
9.58537e-24
6.1582e-23
1.47678e-23
1.1633e-22
1.27214e-23
5.03822e-24
2.2165e-24
1.20686e-22
-3.4378e-24
8.88454e-23
1.13536e-23
9.21906e-23
1.22554e-23
3.8715e-23
1.42506e-23
5.50769e-24
2.26219e-23
8.38795e-23
3.35567e-24
-4.30418e-23
5.74482e-24
8.97928e-24
1.23326e-23
1.36803e-22
6.15236e-24
4.58401e-23
4.56673e-24
9.859e-23
7.35563e-24
-3.6777e-23
-8.98592e-25
-4.19274e-23
-2.60255e-24
5.04191e-23
-4.22689e-24
9.95359e-23
4.8258e-26
-7.78098e-23
1.68093e-24
4.22987e-23
-4.77004e-24
4.32867e-23
1.79576e-24
4.50235e-23
-3.75409e-25
-6.95928e-25
4.13831e-24
-3.997e-23
1.33746e-23
-3.29274e-23
8.57074e-25
-1.95704e-23
3.41244e-24
-9.1102e-24
5.9433e-24
3.75731e-23
6.0475e-24
6.06964e-23
1.39126e-23
3.89027e-23
5.58058e-24
-8.584e-23
-6.88671e-24
-2.14119e-22
-8.04777e-24
-1.55939e-23
-1.51977e-23
-5.93198e-23
-1.89445e-23
-3.45167e-23
-2.48293e-23
-8.6012e-23
-1.81447e-23
1.59929e-23
-1.85361e-23
-9.98037e-24
-8.21025e-24
5.45063e-23
-1.72167e-23
2.57604e-23
6.68263e-23
1.83926e-24
7.81463e-23
7.36945e-25
2.73374e-24
-3.99417e-23
6.04862e-24
4.49644e-23
1.34655e-23
7.56934e-23
5.62065e-24
-2.11482e-23
1.70133e-23
5.21831e-23
1.54163e-23
-1.64462e-23
1.91916e-23
4.81371e-23
-4.68339e-25
1.03641e-22
1.17399e-23
1.74891e-22
1.23576e-23
6.92689e-23
1.47396e-23
1.88601e-23
2.16484e-24
4.74096e-23
-3.97712e-24
1.95642e-23
1.15419e-23
1.30426e-22
1.12528e-23
8.83697e-23
1.61724e-23
7.78773e-23
2.0756e-23
5.89996e-25
3.5033e-24
-2.21718e-23
6.88459e-24
2.21432e-24
1.26724e-23
1.47176e-22
5.79888e-24
9.74962e-23
2.43569e-24
9.80029e-23
7.91829e-24
3.39586e-23
-2.47046e-25
-2.71997e-23
-1.95897e-24
6.03048e-23
-5.99433e-24
6.06123e-23
7.42813e-25
-3.99336e-23
1.80154e-24
3.47544e-23
-4.72308e-24
4.42147e-23
8.82547e-25
7.39977e-23
-6.60719e-25
-3.71586e-23
4.80176e-24
-3.89198e-23
1.27246e-23
-3.72376e-23
9.98718e-25
-6.09946e-23
4.50553e-24
-4.16518e-23
5.31275e-24
-3.18531e-23
6.61703e-24
5.95825e-23
1.12849e-23
-8.92022e-23
4.84816e-24
-7.22928e-23
-5.63306e-24
-2.26849e-22
-8.48039e-24
-4.51816e-23
-1.58593e-23
-6.51274e-23
-1.79107e-23
5.09596e-24
-2.45671e-23
-7.87723e-23
-1.65473e-23
-8.75862e-25
-1.8193e-23
8.60903e-23
-8.01932e-24
9.30399e-23
-1.58706e-23
-3.80472e-23
-1.08818e-23
1.82662e-24
7.90533e-23
5.33235e-25
2.04211e-24
2.91521e-24
5.87539e-24
9.25622e-24
1.38406e-23
6.90092e-23
4.08892e-24
-2.11082e-23
1.65942e-23
8.14751e-23
1.63606e-23
-1.51942e-23
1.95718e-23
4.66068e-23
-7.22514e-26
1.00764e-22
1.10882e-23
1.41605e-22
1.07329e-23
1.96275e-22
1.61401e-23
1.28662e-22
2.27624e-24
7.04223e-23
-3.30588e-24
3.96115e-24
1.08608e-23
1.68789e-22
1.18066e-23
1.45803e-22
1.36347e-23
3.25979e-23
2.08484e-23
1.27876e-24
4.52005e-24
-1.21514e-23
7.74094e-24
1.47903e-23
1.37318e-23
1.44341e-22
4.77792e-24
2.96108e-23
2.09732e-24
9.44126e-23
7.36305e-24
5.93122e-23
3.35815e-25
-1.9334e-23
-2.27179e-24
2.32933e-23
-6.93912e-24
2.09497e-23
6.96858e-25
-3.0765e-23
2.22563e-24
5.54784e-23
-4.02316e-24
5.681e-23
-1.65563e-24
1.35686e-24
-7.33027e-25
-4.37406e-23
4.82707e-24
-8.11756e-23
1.24131e-23
-3.75693e-23
2.29134e-24
-5.01348e-23
4.25161e-24
-3.7128e-23
6.4898e-24
-2.92818e-23
4.38759e-24
6.24222e-23
1.08582e-23
-8.81686e-23
4.65547e-24
-8.03655e-23
-3.63617e-24
-2.02574e-22
-7.81115e-24
-6.95587e-23
-1.44564e-23
-6.89714e-23
-1.90035e-23
-2.9582e-23
-2.36596e-23
-4.56217e-23
-1.45664e-23
1.92232e-23
-2.13365e-23
1.47789e-22
-7.57993e-24
1.16871e-22
-1.50844e-23
-6.09446e-23
-4.84868e-23
2.25058e-24
1.18928e-22
5.19349e-25
-1.25758e-26
4.82752e-24
5.94511e-24
1.25116e-22
1.29266e-23
9.93453e-23
5.07899e-24
-2.36382e-23
1.68566e-23
9.74271e-23
1.69801e-23
-6.31109e-24
2.11154e-23
6.61204e-23
2.09618e-25
1.11014e-22
1.25458e-23
1.13555e-22
9.73086e-24
1.50488e-22
1.44115e-23
1.11894e-22
1.97303e-24
1.10616e-22
-1.7372e-24
1.3393e-22
9.87052e-24
1.72372e-22
1.06758e-23
1.66278e-22
1.20824e-23
2.44745e-23
2.07911e-23
-2.15009e-24
5.86752e-24
1.7295e-23
8.11602e-24
-2.31894e-23
1.36626e-23
1.73039e-22
4.56286e-24
-3.20027e-23
1.96876e-24
1.36211e-22
6.52854e-24
5.63804e-23
2.48258e-25
-9.7816e-24
-2.45894e-24
-5.24093e-24
-7.39133e-24
2.4713e-23
1.43672e-24
-2.53454e-23
2.50187e-24
5.80918e-23
-5.39903e-24
1.62989e-23
-1.84204e-24
4.84001e-23
-1.5793e-24
-5.16223e-23
5.68547e-24
-4.54462e-23
1.2686e-23
4.39938e-23
2.55748e-24
-8.3851e-23
4.77071e-24
-3.26919e-23
7.66029e-24
-3.33777e-23
2.84545e-24
3.41221e-23
1.10452e-23
-9.32536e-23
3.94348e-24
-7.85793e-23
-2.51789e-24
-1.88416e-22
-7.70857e-24
-1.3604e-22
-1.40329e-23
-1.02682e-22
-1.88851e-23
-2.50467e-23
-2.50849e-23
-4.25735e-23
-1.27369e-23
3.6887e-24
-2.30825e-23
3.58125e-23
-7.99925e-24
1.18851e-22
-1.38024e-23
-4.79599e-23
-1.05182e-23
3.63637e-24
7.23744e-23
7.07925e-25
-2.68855e-25
-7.40361e-23
5.26535e-24
1.11174e-22
1.22186e-23
1.25857e-22
4.4095e-24
-2.33999e-23
1.62377e-23
1.6237e-22
1.72715e-23
3.40443e-23
2.22741e-23
6.24074e-23
2.1671e-25
1.24438e-22
1.31987e-23
1.78092e-22
9.64469e-24
1.50004e-22
1.44871e-23
1.25863e-22
2.94533e-24
1.05009e-22
-1.67864e-24
9.83893e-23
9.53076e-24
2.41917e-22
8.69055e-24
2.26967e-22
1.0993e-23
-8.8729e-24
2.11312e-23
-1.3216e-23
6.45637e-24
1.58138e-23
9.52129e-24
-7.8404e-24
1.17512e-23
1.22946e-22
6.53815e-24
1.94526e-23
7.5778e-25
6.91506e-23
6.17918e-24
9.6273e-23
-4.96644e-25
-2.04014e-24
-2.0191e-24
-4.76282e-24
-8.16256e-24
2.52902e-23
2.87336e-24
6.1641e-23
1.49475e-24
6.86549e-23
-5.46891e-24
1.18686e-23
-2.67438e-24
8.62752e-23
-1.90702e-24
-5.95042e-23
7.17108e-24
1.00633e-23
1.10045e-23
-1.62484e-23
3.89007e-24
-4.57085e-23
4.47791e-24
-9.82803e-23
7.97332e-24
-1.42136e-24
1.62908e-24
-3.72717e-23
1.04175e-23
-5.46843e-23
3.10859e-24
-5.34897e-23
-2.40848e-24
-1.78463e-22
-6.03738e-24
-1.16724e-22
-1.3657e-23
-1.02695e-22
-1.74422e-23
-5.39458e-23
-2.47067e-23
-4.26128e-23
-1.23531e-23
-2.06041e-23
-2.25003e-23
-2.89585e-23
-1.10768e-23
1.20578e-22
-1.31671e-23
4.54869e-23
-2.41119e-23
2.14188e-24
3.92762e-23
3.45659e-26
8.48461e-25
-1.13133e-22
3.0993e-24
6.71599e-23
1.21262e-23
6.98305e-23
3.38089e-24
-4.69172e-23
1.68927e-23
1.51081e-22
1.66354e-23
6.37117e-23
2.30245e-23
5.5289e-23
8.41491e-25
1.74568e-22
1.19567e-23
1.65458e-22
8.37225e-24
1.47791e-22
1.48444e-23
1.87337e-22
3.06761e-24
1.18103e-22
-1.33105e-24
1.03046e-22
8.92969e-24
2.3555e-22
6.89418e-24
2.01934e-22
1.11407e-23
2.78191e-23
2.01336e-23
1.56293e-23
8.23536e-24
1.09818e-22
9.58057e-24
-6.22803e-24
1.12694e-23
1.15302e-22
6.80756e-24
-3.02285e-24
1.29105e-24
4.58394e-23
5.20664e-24
9.34273e-23
-1.16131e-24
8.35714e-24
-1.98745e-24
-6.29915e-24
-7.72318e-24
3.34024e-23
3.10497e-24
6.41961e-23
5.23158e-25
-5.51215e-23
-4.98646e-24
1.33041e-23
-3.51703e-24
7.77254e-23
-1.48676e-24
-9.72433e-23
6.75187e-24
4.33304e-23
9.86115e-24
-2.03416e-23
3.17083e-24
-4.19379e-23
6.24009e-24
-8.27053e-23
6.91684e-24
1.46935e-23
2.71626e-24
-3.00149e-23
1.07347e-23
-5.99426e-23
2.38768e-24
-1.18322e-22
-1.22361e-24
-1.67916e-22
-5.07414e-24
-9.95481e-23
-1.40737e-23
-1.41087e-22
-1.55952e-23
-5.23556e-23
-2.40825e-23
-4.49168e-23
-1.16978e-23
4.2735e-23
-2.16471e-23
-5.00991e-23
-1.08794e-23
1.59724e-22
-1.47302e-23
5.67128e-23
-3.30771e-23
1.67094e-24
3.85093e-23
1.38255e-24
7.19726e-25
-7.76669e-23
3.24537e-24
5.44503e-23
1.17431e-23
3.31336e-23
4.35079e-24
-3.61996e-23
1.57112e-23
1.4049e-22
1.66348e-23
6.4332e-23
2.44556e-23
5.06414e-23
1.16786e-24
6.60728e-23
1.33679e-23
1.14099e-22
8.86281e-24
3.16358e-23
1.33816e-23
1.63253e-22
4.45413e-24
1.19078e-22
5.13474e-26
1.09808e-22
7.63896e-24
1.95928e-22
5.72536e-24
2.07743e-22
1.0151e-23
4.52984e-23
2.09865e-23
-5.23872e-24
8.42877e-24
9.98538e-23
9.28308e-24
-1.13964e-23
1.12863e-23
1.28667e-22
6.63219e-24
1.10447e-23
2.00623e-24
3.03805e-23
4.42577e-24
8.80031e-23
-1.63691e-24
3.49701e-23
-1.85106e-24
-8.44232e-24
-7.38128e-24
8.11409e-23
1.47446e-24
1.04861e-22
1.31793e-24
-8.90862e-24
-4.83888e-24
1.96968e-23
-4.58713e-24
4.18693e-23
-1.05594e-24
-1.08233e-22
6.46961e-24
3.4766e-23
1.0022e-23
-2.99663e-23
2.59606e-24
-4.21291e-23
6.78689e-24
-3.9991e-23
5.96339e-24
1.72535e-23
2.46027e-24
-2.17295e-23
9.5479e-24
-9.23369e-23
2.63143e-24
-1.03646e-22
-2.99109e-24
-6.99496e-23
-4.9535e-24
-4.98699e-23
-1.31214e-23
-9.42052e-23
-1.48181e-23
-4.67208e-23
-2.25868e-23
-4.95575e-23
-1.21269e-23
2.51111e-23
-2.04798e-23
-2.27973e-23
-1.20247e-23
1.62976e-22
-1.52202e-23
7.02194e-23
-5.24032e-23
2.24005e-24
9.3409e-23
3.15265e-24
7.56799e-25
-7.48152e-23
3.33277e-24
4.55854e-23
1.18426e-23
3.13407e-23
4.64326e-24
-1.06191e-22
1.67199e-23
1.67735e-23
1.69869e-23
7.08568e-23
2.42123e-23
4.5618e-23
1.39156e-24
1.03347e-23
1.27036e-23
1.46022e-22
1.01577e-23
9.34216e-23
1.17615e-23
1.61489e-22
5.86697e-24
1.17756e-22
-2.60158e-25
1.01006e-22
7.47009e-24
1.94072e-22
4.45163e-24
1.6116e-22
9.24685e-24
1.19583e-22
2.15275e-23
-2.7951e-23
8.81019e-24
1.11366e-22
9.30857e-24
7.35461e-24
1.07469e-23
1.19366e-22
6.05574e-24
-6.32583e-24
2.96913e-24
4.31639e-23
4.21766e-24
4.40014e-23
-2.41006e-24
6.85626e-24
-1.00638e-24
-4.39527e-24
-7.72861e-24
1.18803e-22
-1.22764e-25
1.42032e-22
1.82675e-24
-1.85447e-24
-5.41739e-24
-8.27758e-24
-5.19776e-24
5.84061e-23
-3.64307e-25
-1.25001e-22
6.80805e-24
9.89128e-23
9.06283e-24
-7.34298e-23
3.20778e-24
1.72533e-23
7.63046e-24
-3.04517e-23
5.20032e-24
6.83497e-23
1.4321e-24
-1.21935e-23
9.36836e-24
-2.48e-23
4.66148e-24
-7.97029e-23
-3.3561e-24
-1.33213e-22
-4.93609e-24
-8.8494e-24
-1.25971e-23
-7.25631e-23
-1.59185e-23
-3.70933e-23
-2.1734e-23
2.58582e-23
-1.21078e-23
8.85685e-23
-1.95514e-23
5.11178e-24
-1.2738e-23
1.62159e-22
-1.65878e-23
7.59433e-23
-7.59839e-23
4.9907e-25
9.54713e-23
2.68503e-24
1.38081e-24
1.06044e-23
2.37858e-24
4.57137e-23
1.12344e-23
5.82074e-23
3.99826e-24
-9.07544e-23
1.75958e-23
1.34857e-22
1.68288e-23
5.68613e-23
2.29796e-23
4.37526e-23
2.78776e-24
-4.84581e-23
1.31466e-23
1.37827e-22
1.17937e-23
6.20178e-23
1.08206e-23
7.60753e-23
6.20471e-24
1.97173e-22
1.33206e-25
1.50144e-22
6.63049e-24
1.95846e-22
4.54789e-24
2.37453e-22
6.95601e-24
1.16141e-22
2.2934e-23
2.59502e-23
9.19024e-24
9.12064e-23
9.09432e-24
4.4828e-24
9.6821e-24
6.83333e-23
6.32095e-24
7.3078e-24
2.85861e-24
1.40111e-23
4.41074e-24
4.18595e-23
-2.86157e-24
1.18756e-23
1.18523e-25
-1.86506e-23
-7.76603e-24
7.61754e-23
-1.62903e-24
1.40624e-22
1.99976e-24
8.52393e-23
-5.51959e-24
4.52914e-24
-6.33163e-24
6.21826e-23
8.26126e-25
-6.46231e-23
5.05099e-24
8.08961e-23
1.02987e-23
-7.11204e-23
2.76396e-24
-2.69963e-23
9.03904e-24
-2.85909e-23
3.56221e-24
7.10942e-24
1.86011e-24
1.36285e-23
8.07362e-24
1.68044e-24
4.29468e-24
-6.17899e-23
-2.55349e-24
-7.19489e-23
-3.75869e-24
-3.51158e-23
-1.27815e-23
-4.93733e-23
-1.4099e-23
-3.25222e-23
-2.12612e-23
-9.37764e-24
-1.25843e-23
7.3663e-23
-1.86875e-23
5.64059e-23
-1.28236e-23
1.57386e-22
-1.70141e-23
-2.53819e-24
-8.12481e-23
-7.6703e-25
9.3953e-23
6.72055e-25
1.41283e-24
1.37952e-22
1.50059e-24
4.4374e-23
1.07359e-23
9.00878e-23
5.48849e-24
-7.32844e-23
1.75177e-23
1.80983e-22
1.73153e-23
6.72763e-23
2.20778e-23
4.19549e-23
4.88722e-24
-5.71239e-24
1.25391e-23
9.2872e-23
1.28395e-23
6.69122e-23
1.18635e-23
5.28418e-23
5.78285e-24
1.94829e-22
-5.81357e-25
1.46766e-22
6.75948e-24
1.94425e-22
3.99115e-24
1.90312e-22
5.24345e-24
1.31484e-22
2.29885e-23
1.35539e-22
9.75455e-24
8.06176e-23
8.68895e-24
-2.78431e-23
9.72985e-24
6.36209e-23
6.07489e-24
2.76302e-24
3.12947e-24
2.49108e-23
4.3678e-24
3.79397e-23
-3.4646e-24
2.19155e-23
1.06787e-24
5.29048e-23
-7.33054e-24
7.76533e-23
-2.28402e-24
1.34269e-22
9.44223e-25
9.082e-23
-6.02521e-24
-2.22902e-23
-6.49068e-24
9.38614e-23
1.15074e-24
-7.95234e-23
4.24193e-24
6.66113e-23
1.06956e-23
-4.86938e-23
3.14802e-24
-7.84813e-23
9.48826e-24
-2.82075e-23
3.2809e-24
-6.15442e-23
2.60619e-24
-6.08506e-23
6.30532e-24
-3.4058e-23
5.47449e-24
-2.70868e-23
-3.19461e-24
-1.41838e-22
-3.67754e-24
-4.82413e-23
-1.24822e-23
-4.82452e-23
-1.33459e-23
-3.22632e-23
-2.12689e-23
-4.96041e-23
-1.32652e-23
5.64233e-23
-1.73759e-23
2.52115e-23
-1.36503e-23
9.74954e-23
-1.78862e-23
-1.23867e-22
-8.89662e-23
-5.2234e-25
8.76702e-24
-6.55056e-25
1.48835e-25
1.40018e-22
2.02046e-24
3.93433e-23
9.67497e-24
1.59769e-22
5.26665e-24
-5.30624e-23
1.75888e-23
1.63722e-22
1.71662e-23
7.40965e-23
2.1513e-23
1.17448e-22
4.65352e-24
1.91505e-23
1.22005e-23
8.37068e-23
1.3962e-23
1.05016e-22
1.14669e-23
2.19026e-23
6.04384e-24
1.54531e-22
-5.68096e-25
9.07784e-23
6.51918e-24
1.90555e-22
3.96786e-24
1.78885e-22
4.62355e-24
8.17884e-23
2.19371e-23
1.89997e-22
9.4112e-24
6.70061e-23
8.53654e-24
1.8337e-23
9.09819e-24
6.77599e-23
6.19826e-24
9.31088e-24
3.53726e-24
3.12409e-23
4.48382e-24
5.64454e-23
-3.2302e-24
2.91666e-23
1.03176e-24
3.14861e-23
-7.28101e-24
7.22506e-23
-2.21422e-24
1.70006e-22
-3.55317e-25
6.91618e-23
-5.93041e-24
-2.34645e-23
-7.48205e-24
1.02905e-22
1.83309e-24
-9.38418e-23
3.94598e-24
5.70386e-23
1.06683e-23
2.22171e-23
3.08201e-24
-1.14482e-22
9.47529e-24
-2.84808e-23
3.27955e-24
-1.22449e-22
2.54952e-24
-7.67888e-23
7.72885e-24
-2.85523e-23
4.43987e-24
-1.09381e-22
-2.28034e-24
-1.24021e-22
-2.90524e-24
-4.90362e-23
-1.25073e-23
-1.05635e-22
-1.24771e-23
-1.13777e-22
-2.03146e-23
-6.4657e-23
-1.18833e-23
1.10569e-22
-1.77775e-23
-1.04306e-23
-1.54442e-23
9.02718e-23
-1.721e-23
-5.9501e-23
-5.63439e-23
-2.25977e-25
6.66481e-24
-4.69679e-25
-5.82168e-25
1.44386e-22
8.25643e-25
3.40104e-23
8.55442e-24
1.4815e-22
6.38698e-24
-4.60072e-23
1.73867e-23
2.12764e-22
1.70282e-23
6.6208e-23
2.0951e-23
1.03615e-22
4.93646e-24
2.87816e-24
1.29149e-23
6.97969e-23
1.42517e-23
1.07869e-22
1.14532e-23
2.40317e-23
5.63207e-24
1.33681e-22
-1.1042e-25
3.34014e-23
6.20048e-24
1.86273e-22
3.64358e-24
1.66367e-22
5.66209e-24
6.56286e-23
2.02667e-23
1.72674e-22
9.83914e-24
7.92801e-23
8.07698e-24
-1.00526e-23
8.78159e-24
8.00051e-23
6.51086e-24
4.25441e-23
3.93729e-24
6.83503e-24
4.29929e-24
1.95899e-23
-3.29986e-24
2.48935e-23
1.07752e-24
8.15657e-23
-6.35166e-24
7.22801e-23
-3.59019e-24
1.61371e-22
-9.58155e-25
7.31466e-23
-5.80792e-24
-5.29577e-23
-8.50806e-24
1.09138e-22
1.69696e-24
-3.06721e-23
4.83623e-24
1.31072e-22
8.53531e-24
2.00709e-23
3.75877e-24
-8.79178e-23
8.55082e-24
-2.67699e-23
3.99951e-24
-1.31624e-23
2.56956e-24
-2.70645e-23
7.5986e-24
7.60423e-25
4.72303e-24
-1.33307e-22
-1.95389e-24
-1.126e-22
-2.97829e-24
-9.87106e-23
-1.1969e-23
-1.08446e-22
-1.25691e-23
-7.04818e-23
-1.84539e-23
-1.0223e-22
-1.24862e-23
9.9869e-23
-1.75324e-23
-4.63064e-24
-1.59011e-23
7.90506e-23
-1.63206e-23
-6.20029e-23
-6.52336e-23
1.25717e-24
-3.43626e-23
2.42972e-25
-1.39262e-24
1.01844e-22
3.56632e-25
-1.48038e-23
7.62436e-24
1.31695e-22
7.22682e-24
-4.63044e-23
1.5889e-23
1.85976e-22
1.75975e-23
1.56158e-22
2.00864e-23
1.07377e-22
5.92939e-24
2.033e-23
1.2887e-23
6.00135e-23
1.526e-23
9.97346e-23
1.11549e-23
-3.36499e-24
4.474e-24
1.78058e-22
1.8628e-24
5.15505e-23
5.5093e-24
1.87506e-22
3.00252e-24
1.59361e-22
6.29949e-24
1.19811e-22
1.87678e-23
1.75805e-22
9.49335e-24
9.04581e-23
8.11319e-24
-4.42769e-23
8.47754e-24
1.22884e-22
5.93143e-24
4.02682e-23
4.17494e-24
-2.79704e-24
4.28943e-24
1.04481e-23
-2.58943e-24
4.2391e-23
7.6801e-25
1.0876e-22
-5.66534e-24
7.01727e-23
-4.81557e-24
1.15587e-22
-1.68978e-24
6.80278e-23
-4.80876e-24
-7.45315e-23
-8.83114e-24
1.01543e-22
2.51029e-24
2.81177e-23
3.72993e-24
1.48758e-22
7.86293e-24
1.2322e-23
3.50593e-24
-8.38512e-23
9.27867e-24
-2.63621e-23
3.87402e-24