/*--------------------------------*- C++ -*----------------------------------*\
  =========                 |
  \\      /  F ield         | OpenFOAM: The Open Source CFD Toolbox
   \\    /   O peration     | Website:  https://openfoam.org
    \\  /    A nd           | Version:  7
     \\/     M anipulation  |
\*---------------------------------------------------------------------------*/
FoamFile
{
    version     2.0;
    format      ascii;
    class       volVectorField;
    location    "120000";
    object      U;
}
// * * * * * * * * * * * * * * * * * * * * * * * * * * * * * * * * * * * * * //

dimensions      [0 1 -1 0 0 0 0];

internalField   nonuniform List<vector> 
4814
(
(-1.43561e-19 1.01413e-18 -0.0101009)
(-8.45582e-20 2.93904e-19 -0.0101132)
(-8.7385e-19 6.769e-19 -0.0101244)
(-3.0545e-19 1.01255e-18 -0.0101343)
(2.3721e-19 -4.30514e-19 -0.00972898)
(-1.20809e-20 -3.32213e-19 -0.00975481)
(1.64783e-19 -7.02803e-19 -0.00977999)
(-3.3743e-20 1.1467e-20 -0.00980447)
(-4.67531e-19 -1.25277e-18 -0.00982816)
(-1.50456e-18 -2.28521e-19 -0.00985101)
(-4.70478e-19 4.70727e-19 -0.00987298)
(-1.28194e-18 3.33841e-19 -0.00989401)
(8.32982e-20 8.61855e-19 -0.00991406)
(-8.04628e-19 1.18737e-18 -0.0099331)
(-4.72777e-20 -1.51116e-19 -0.0099511)
(-9.29632e-19 5.74516e-19 -0.00996803)
(9.89759e-19 1.41603e-18 -0.00998386)
(-2.20756e-19 3.89755e-19 -0.00999857)
(-5.7966e-20 1.04442e-18 -0.0100121)
(9.88687e-20 3.46472e-19 -0.0100245)
(-7.01293e-19 7.22718e-19 -0.0100357)
(-1.31214e-19 1.03516e-18 -0.0100457)
(1.23913e-19 1.12339e-18 -0.0100545)
(5.54768e-19 3.20974e-19 -0.0100621)
(1.55228e-19 9.89442e-20 -0.0100684)
(-1.32607e-19 2.07139e-20 -0.0100734)
(7.46643e-19 2.91577e-20 -0.0100772)
(-8.79016e-20 -4.51072e-19 -0.0100798)
(8.24748e-19 7.55301e-20 -0.010081)
(5.55137e-20 -6.65289e-19 -0.010081)
(3.15547e-19 -3.8125e-19 -0.0100798)
(1.19017e-19 -5.8692e-19 -0.0100772)
(4.2124e-19 -4.71023e-19 -0.0100734)
(-1.14404e-21 -5.02147e-19 -0.0100684)
(-5.46288e-19 -5.70425e-19 -0.0100621)
(-7.5185e-19 -6.4995e-20 -0.0100545)
(-6.72679e-19 1.13436e-19 -0.0100457)
(-2.27241e-19 -5.17054e-20 -0.0100357)
(3.93296e-19 -2.75437e-19 -0.00963677)
(-1.04501e-19 -4.01161e-19 -0.00966276)
(3.20397e-19 -6.07075e-19 -0.0096881)
(-1.00951e-19 -2.12297e-20 -0.00971272)
(-4.19836e-19 -1.2154e-18 -0.00973655)
(-1.32478e-18 -1.47413e-19 -0.00975954)
(-5.4375e-19 4.01728e-19 -0.00978163)
(-1.142e-18 4.03958e-19 -0.00980278)
(-1.22529e-20 8.13221e-19 -0.00982295)
(-1.11283e-18 1.08874e-18 -0.0098421)
(1.44447e-19 -8.59251e-20 -0.0098602)
(-1.03696e-18 4.78098e-19 -0.00987722)
(7.57188e-19 1.31058e-18 -0.00989314)
(-2.43911e-19 4.13949e-19 -0.00990793)
(1.0428e-19 1.09794e-18 -0.00992157)
(2.84877e-19 4.08192e-19 -0.00993403)
(-5.70409e-19 7.6235e-19 -0.0099453)
(-5.16224e-20 1.0429e-18 -0.00995536)
(1.37718e-19 1.13508e-18 -0.00996418)
(4.20658e-19 3.00392e-19 -0.00997177)
(1.13091e-19 1.11081e-19 -0.00997811)
(-2.08476e-19 -1.2586e-20 -0.00998319)
(7.97903e-19 3.46197e-20 -0.00998701)
(-8.40287e-20 -4.61077e-19 -0.00998956)
(6.83393e-19 7.29199e-20 -0.00999083)
(1.13609e-19 -6.66077e-19 -0.00999083)
(4.22714e-19 -3.94496e-19 -0.00998956)
(9.89131e-20 -6.06301e-19 -0.00998701)
(5.10148e-19 -4.81261e-19 -0.00998319)
(3.19984e-20 -4.78317e-19 -0.00997811)
(-5.29825e-19 -5.61359e-19 -0.00997177)
(-8.70904e-19 -3.46181e-20 -0.00996418)
(-6.2796e-19 8.93338e-20 -0.00995536)
(-1.68944e-19 -5.38935e-20 -0.0099453)
(-9.10793e-19 -3.43001e-19 -0.00993403)
(-7.17783e-19 2.33984e-19 -0.00992157)
(-4.12341e-19 5.0601e-19 -0.00990793)
(-6.91743e-20 2.87505e-19 -0.00989314)
(9.953e-20 2.26974e-19 -0.00987722)
(-7.16042e-19 -2.58074e-19 -0.0098602)
(-4.67614e-19 2.91492e-19 -0.0098421)
(5.95187e-19 -8.49359e-20 -0.0095426)
(-1.7481e-19 -4.47047e-19 -0.00956875)
(4.01007e-19 -5.73402e-19 -0.00959425)
(-3.87569e-19 -2.11344e-19 -0.00961902)
(-4.34764e-19 -1.25454e-18 -0.009643)
(-9.91423e-19 3.82174e-20 -0.00966613)
(-7.24526e-19 2.70451e-19 -0.00968835)
(-1.00731e-18 4.61084e-19 -0.00970962)
(-1.04849e-19 7.81898e-19 -0.00972991)
(-1.2674e-18 1.05729e-18 -0.00974917)
(3.14602e-19 -3.58546e-20 -0.00976737)
(-1.30163e-18 3.33035e-19 -0.00978449)
(7.87787e-19 1.31044e-18 -0.0098005)
(-3.51719e-19 4.02069e-19 -0.00981538)
(7.14135e-21 1.0505e-18 -0.0098291)
(3.46294e-19 4.25576e-19 -0.00984163)
(-4.13383e-19 8.12218e-19 -0.00985296)
(1.40332e-20 1.04699e-18 -0.00986307)
(1.5497e-19 1.15554e-18 -0.00987195)
(4.0517e-19 3.02735e-19 -0.00987958)
(2.6316e-20 1.17412e-19 -0.00988595)
(-2.27157e-19 -4.07283e-20 -0.00989106)
(8.36946e-19 3.55828e-20 -0.0098949)
(-9.57032e-23 -4.61316e-19 -0.00989747)
(5.75604e-19 6.96203e-20 -0.00989875)
(1.26082e-19 -6.7516e-19 -0.00989875)
(4.96571e-19 -4.02001e-19 -0.00989747)
(6.87139e-20 -6.1703e-19 -0.0098949)
(4.14056e-19 -4.68554e-19 -0.00989106)
(-5.92276e-20 -4.38472e-19 -0.00988595)
(-4.25824e-19 -5.6447e-19 -0.00987958)
(-9.17923e-19 -2.22848e-20 -0.00987195)
(-5.81992e-19 6.50708e-20 -0.00986307)
(-2.64026e-19 -9.03333e-21 -0.00985296)
(-8.50116e-19 -3.63963e-19 -0.00984163)
(-8.85616e-19 2.82844e-19 -0.0098291)
(-1.9353e-19 4.32819e-19 -0.00981538)
(-3.18139e-19 3.87542e-19 -0.0098005)
(8.04761e-20 2.53613e-19 -0.00978449)
(-6.27522e-19 -3.10236e-19 -0.00976737)
(-5.8246e-19 3.85125e-19 -0.00974917)
(2.32941e-21 1.44889e-18 -0.00972991)
(-2.4433e-19 -5.75718e-19 -0.00970962)
(-2.94072e-19 -3.90186e-19 -0.00968835)
(6.34771e-19 -6.10468e-20 -0.00944636)
(-1.1736e-19 -3.67342e-19 -0.00947268)
(3.12582e-19 -6.60806e-19 -0.00949835)
(-5.40671e-19 -3.00228e-19 -0.00952328)
(-3.29413e-19 -1.23921e-18 -0.0095474)
(-7.77563e-19 1.53044e-19 -0.00957067)
(-7.85007e-19 2.25245e-19 -0.00959303)
(-7.84783e-19 5.67878e-19 -0.00961443)
(-2.99123e-19 7.01376e-19 -0.00963484)
(-1.21039e-18 1.12883e-18 -0.00965421)
(3.03567e-19 -6.01217e-20 -0.00967252)
(-1.41026e-18 2.43013e-19 -0.00968975)
(9.00219e-19 1.32811e-18 -0.00970585)
(-5.00818e-19 3.9085e-19 -0.00972082)
(-1.71453e-19 9.73341e-19 -0.00973461)
(3.39028e-19 4.04663e-19 -0.00974722)
(-3.28685e-19 8.36662e-19 -0.00975861)
(-5.89623e-20 1.02614e-18 -0.00976878)
(1.06848e-19 1.16081e-18 -0.00977771)
(4.61009e-19 3.21953e-19 -0.00978539)
(-5.29467e-20 1.26323e-19 -0.0097918)
(-1.51264e-19 -6.8503e-20 -0.00979694)
(8.52183e-19 2.98229e-20 -0.0098008)
(6.7524e-20 -4.58667e-19 -0.00980338)
(6.5348e-19 7.61015e-20 -0.00980466)
(2.63156e-20 -6.87183e-19 -0.00980466)
(4.86186e-19 -4.07057e-19 -0.00980338)
(6.31862e-20 -6.24474e-19 -0.0098008)
(3.42872e-19 -4.53387e-19 -0.00979694)
(-2.18987e-19 -3.98405e-19 -0.0097918)
(-3.53044e-19 -5.6617e-19 -0.00978539)
(-8.9051e-19 -1.54004e-20 -0.00977771)
(-6.60908e-19 7.32066e-20 -0.00976878)
(-2.72109e-19 4.7945e-21 -0.00975861)
(-7.1896e-19 -4.04871e-19 -0.00974722)
(-9.12984e-19 2.71539e-19 -0.00973461)
(1.32259e-19 3.22445e-19 -0.00972082)
(-4.10321e-19 4.39795e-19 -0.00970585)
(1.29172e-19 2.32168e-19 -0.00968975)
(-4.96788e-19 -3.72664e-19 -0.00967252)
(-6.97073e-19 4.81635e-19 -0.00965421)
(2.60874e-19 1.35982e-18 -0.00963484)
(-1.53757e-19 -6.54604e-19 -0.00961443)
(-6.23146e-20 -5.33165e-19 -0.00959303)
(6.20876e-19 -8.64194e-20 -0.00934795)
(-5.40894e-20 -2.75039e-19 -0.00937445)
(2.06171e-19 -7.57657e-19 -0.00940029)
(-4.99112e-19 -2.51101e-19 -0.00942537)
(-1.42171e-19 -1.16753e-18 -0.00944966)
(-7.84789e-19 1.21184e-19 -0.00947307)
(-7.33583e-19 2.43099e-19 -0.00949557)
(-7.04742e-19 5.99348e-19 -0.0095171)
(-4.46789e-19 6.49854e-19 -0.00953763)
(-1.05569e-18 1.24393e-18 -0.00955713)
(2.83918e-19 -8.65785e-20 -0.00957555)
(-1.1846e-18 2.972e-19 -0.00959288)
(7.66552e-19 1.25535e-18 -0.00960908)
(-5.567e-19 4.19913e-19 -0.00962413)
(-2.3702e-20 9.93974e-19 -0.00963801)
(3.22384e-19 3.73938e-19 -0.00965069)
(-4.19256e-19 8.23185e-19 -0.00966216)
(-1.57726e-19 9.98774e-19 -0.00967239)
(7.40726e-20 1.16242e-18 -0.00968137)
(5.32097e-19 3.40352e-19 -0.00968909)
(-4.42506e-20 1.44285e-19 -0.00969554)
(-1.58863e-19 -1.05699e-19 -0.00970071)
(7.72474e-19 2.10894e-20 -0.00970459)
(5.75931e-21 -4.70217e-19 -0.00970719)
(7.63793e-19 8.7345e-20 -0.00970848)
(-1.80459e-19 -6.89384e-19 -0.00970848)
(4.14641e-19 -4.16576e-19 -0.00970719)
(6.74752e-20 -6.33954e-19 -0.00970459)
(3.20513e-19 -4.3462e-19 -0.00970071)
(-2.56097e-19 -3.74221e-19 -0.00969554)
(-4.04901e-19 -5.54414e-19 -0.00968909)
(-8.31374e-19 -1.08216e-20 -0.00968137)
(-6.8571e-19 6.69477e-20 -0.00967239)
(-2.23127e-19 -5.34166e-21 -0.00966216)
(-5.82936e-19 -4.48763e-19 -0.00965069)
(-8.97259e-19 2.41523e-19 -0.00963801)
(2.20145e-19 3.04601e-19 -0.00962413)
(-3.5518e-19 4.40352e-19 -0.00960908)
(2.18977e-19 1.89468e-19 -0.00959288)
(-5.05837e-19 -3.65666e-19 -0.00957555)
(-6.84527e-19 4.99797e-19 -0.00955713)
(5.26671e-19 1.26089e-18 -0.00953763)
(-6.36661e-20 -7.2634e-19 -0.0095171)
(-9.76753e-21 -5.55198e-19 -0.00949557)
(6.85385e-19 -3.52247e-20 -0.00924725)
(-2.11605e-19 -3.68779e-19 -0.00927394)
(1.60604e-19 -8.04781e-19 -0.00929995)
(-5.19732e-19 -2.61617e-19 -0.0093252)
(-4.18229e-21 -1.12648e-18 -0.00934964)
(-8.12101e-19 8.23556e-20 -0.00937321)
(-6.48929e-19 2.8255e-19 -0.00939585)
(-8.58129e-19 4.96167e-19 -0.00941752)
(-4.23841e-19 6.81932e-19 -0.00943818)
(-1.01111e-18 1.30151e-18 -0.0094578)
(3.90579e-19 -5.9384e-20 -0.00947634)
(-1.03816e-18 3.21931e-19 -0.00949377)
(6.50189e-19 1.19501e-18 -0.00951008)
(-4.55215e-19 4.80163e-19 -0.00952522)
(1.90716e-19 1.04354e-18 -0.00953919)
(1.34975e-19 3.12171e-19 -0.00955195)
(-5.65346e-19 7.89659e-19 -0.00956348)
(-1.79413e-19 9.84471e-19 -0.00957377)
(2.64958e-20 1.1561e-18 -0.00958281)
(6.372e-19 3.6352e-19 -0.00959058)
(-1.01153e-19 1.61515e-19 -0.00959707)
(-1.87391e-19 -1.40935e-19 -0.00960227)
(7.46742e-19 1.55122e-20 -0.00960618)
(-7.90253e-20 -4.88714e-19 -0.00960878)
(7.11597e-19 1.0197e-19 -0.00961009)
(-3.01816e-19 -6.90691e-19 -0.00961009)
(3.39929e-19 -4.35797e-19 -0.00960878)
(4.78479e-20 -6.43738e-19 -0.00960618)
(3.0914e-19 -4.20425e-19 -0.00960227)
(-8.00568e-20 -3.77699e-19 -0.00959707)
(-4.73023e-19 -5.37699e-19 -0.00959058)
(-7.65487e-19 -1.09697e-20 -0.00958281)
(-6.58157e-19 4.96229e-20 -0.00957377)
(-1.09529e-19 -3.66197e-20 -0.00956348)
(-4.92588e-19 -4.76556e-19 -0.00955195)
(-8.49154e-19 2.07674e-19 -0.00953919)
(1.00537e-19 3.58591e-19 -0.00952522)
(-2.10522e-19 3.97881e-19 -0.00951008)
(2.41493e-19 1.82376e-19 -0.00949377)
(-5.3516e-19 -3.4974e-19 -0.00947634)
(-5.85347e-19 4.6107e-19 -0.0094578)
(6.21183e-19 1.25636e-18 -0.00943818)
(1.02621e-19 -8.35396e-19 -0.00941752)
(5.18066e-20 -5.85407e-19 -0.00939585)
(7.43179e-19 2.28567e-20 -0.00914416)
(-3.27118e-19 -4.15295e-19 -0.00917103)
(2.0425e-19 -7.89597e-19 -0.00919722)
(-5.04698e-19 -2.47271e-19 -0.00922264)
(3.7194e-21 -1.18916e-18 -0.00924725)
(-6.83469e-19 1.45846e-19 -0.00927097)
(-5.14717e-19 3.64733e-19 -0.00929376)
(-9.3991e-19 4.34331e-19 -0.00931557)
(-3.84328e-19 7.1721e-19 -0.00933637)
(-1.11692e-18 1.27942e-18 -0.00935611)
(5.77538e-19 6.00912e-21 -0.00937477)
(-1.02566e-18 2.94231e-19 -0.00939231)
(7.64549e-19 1.22084e-18 -0.00940872)
(-4.49166e-19 5.07214e-19 -0.00942396)
(9.87915e-20 1.00419e-18 -0.00943802)
(-4.80602e-20 2.55905e-19 -0.00945086)
(-6.28304e-19 7.70081e-19 -0.00946246)
(-2.72037e-19 9.49721e-19 -0.00947282)
(-2.96044e-20 1.14429e-18 -0.00948192)
(5.92488e-19 3.61432e-19 -0.00948973)
(-5.26812e-20 1.94046e-19 -0.00949626)
(-1.6521e-19 -1.7852e-19 -0.0095015)
(7.654e-19 1.88831e-20 -0.00950543)
(-1.17237e-19 -4.98703e-19 -0.00950805)
(6.27015e-19 1.13351e-19 -0.00950936)
(-2.51578e-19 -6.96906e-19 -0.00950936)
(2.07725e-19 -4.52118e-19 -0.00950805)
(-7.67514e-20 -6.47373e-19 -0.00950543)
(2.5957e-19 -4.10123e-19 -0.0095015)
(1.07106e-19 -3.80083e-19 -0.00949626)
(-5.02621e-19 -5.21024e-19 -0.00948973)
(-6.81669e-19 -1.58213e-20 -0.00948192)
(-5.96802e-19 1.77394e-20 -0.00947282)
(2.51511e-20 -7.4902e-20 -0.00946246)
(-3.74781e-19 -5.11011e-19 -0.00945086)
(-6.50987e-19 1.31132e-19 -0.00943802)
(5.36384e-20 3.84608e-19 -0.00942396)
(-9.84811e-20 3.66431e-19 -0.00940872)
(2.61632e-19 1.82071e-19 -0.00939231)
(-5.80037e-19 -3.35428e-19 -0.00937477)
(-5.56555e-19 4.60518e-19 -0.00935611)
(5.33061e-19 1.3495e-18 -0.00933637)
(3.72096e-19 -1.0119e-18 -0.00931557)
(5.15182e-20 -5.58035e-19 -0.00929376)
(-7.22975e-19 -1.41938e-18 -0.00927097)
(7.14756e-19 -4.84483e-21 -0.00903852)
(-2.24264e-19 -2.7075e-19 -0.00906559)
(3.74368e-19 -6.69603e-19 -0.00909197)
(-4.8458e-19 -2.19569e-19 -0.00911757)
(-5.14607e-20 -1.30413e-18 -0.00914234)
(-6.03484e-19 1.65519e-19 -0.00916622)
(-4.90777e-19 3.85659e-19 -0.00918917)
(-8.75452e-19 4.67e-19 -0.00921112)
(-4.67092e-19 6.89986e-19 -0.00923206)
(-1.26227e-18 1.23277e-18 -0.00925193)
(7.7533e-19 6.8164e-20 -0.00927071)
(-1.05018e-18 2.46091e-19 -0.00928837)
(8.47969e-19 1.23783e-18 -0.00930488)
(-6.31072e-19 4.79148e-19 -0.00932023)
(1.26334e-20 9.67549e-19 -0.00933437)
(-1.13425e-19 2.2742e-19 -0.0093473)
(-5.8578e-19 7.79766e-19 -0.00935898)
(-3.83861e-19 9.11384e-19 -0.0093694)
(-7.00248e-20 1.13527e-18 -0.00937856)
(6.30835e-19 3.64626e-19 -0.00938642)
(6.25477e-20 2.30849e-19 -0.00939299)
(-2.08178e-19 -2.14734e-19 -0.00939826)
(7.20989e-19 1.72579e-20 -0.00940222)
(-1.2584e-19 -5.07735e-19 -0.00940486)
(5.51354e-19 1.22669e-19 -0.00940618)
(-1.0417e-19 -7.00296e-19 -0.00940618)
(7.19069e-20 -4.58844e-19 -0.00940486)
(-1.82339e-19 -6.55844e-19 -0.00940222)
(2.06292e-19 -4.11202e-19 -0.00939826)
(1.88835e-19 -3.70433e-19 -0.00939299)
(-5.44977e-19 -5.0027e-19 -0.00938642)
(-5.56106e-19 -3.34707e-20 -0.00937856)
(-4.99653e-19 -2.17579e-20 -0.0093694)
(1.32795e-20 -7.73275e-20 -0.00935898)
(-2.47077e-19 -5.54994e-19 -0.0093473)
(-5.3519e-19 8.52909e-20 -0.00933437)
(1.58573e-19 3.63065e-19 -0.00932023)
(-6.47032e-20 3.65355e-19 -0.00930488)
(3.83205e-19 1.41329e-19 -0.00928837)
(-7.29961e-19 -2.65648e-19 -0.00927071)
(-6.24322e-19 5.13275e-19 -0.00925193)
(4.6746e-19 1.41494e-18 -0.00923206)
(5.12794e-19 -1.11401e-18 -0.00921112)
(-1.99249e-20 -4.65517e-19 -0.00918916)
(-8.03533e-19 -1.38965e-18 -0.00916622)
(5.88809e-19 -1.28448e-19 -0.00893022)
(-1.28343e-19 -1.46783e-19 -0.00895749)
(5.5394e-19 -5.31845e-19 -0.00898406)
(-5.59595e-19 -2.48695e-19 -0.00900984)
(-4.58921e-20 -1.37598e-18 -0.00903478)
(-7.8553e-19 4.8595e-21 -0.00905883)
(-6.2577e-19 2.96862e-19 -0.00908193)
(-8.57676e-19 4.71657e-19 -0.00910404)
(-5.67422e-19 6.62854e-19 -0.00912511)
(-1.28986e-18 1.23241e-18 -0.00914512)
(9.16362e-19 1.00785e-19 -0.00916402)
(-1.12379e-18 1.86665e-19 -0.0091818)
(7.40045e-19 1.18191e-18 -0.00919843)
(-6.3928e-19 5.15413e-19 -0.00921387)
(7.47153e-20 9.72128e-19 -0.00922811)
(-9.42487e-20 2.22436e-19 -0.00924112)
(-4.67088e-19 8.11737e-19 -0.00925288)
(-3.99322e-19 8.97946e-19 -0.00926338)
(-5.75002e-20 1.12514e-18 -0.00927259)
(7.66282e-19 3.80972e-19 -0.00928051)
(4.83892e-20 2.60722e-19 -0.00928713)
(-2.03709e-19 -2.44764e-19 -0.00929243)
(6.41825e-19 1.2061e-20 -0.00929641)
(-1.48814e-19 -5.16019e-19 -0.00929907)
(4.79233e-19 1.25274e-19 -0.0093004)
(-4.34461e-20 -7.03221e-19 -0.0093004)
(1.92388e-20 -4.63201e-19 -0.00929907)
(-1.54696e-19 -6.76734e-19 -0.00929641)
(2.18341e-19 -4.19381e-19 -0.00929243)
(1.74731e-19 -3.43503e-19 -0.00928713)
(-6.07661e-19 -4.79927e-19 -0.00928051)
(-5.01825e-19 -4.1298e-20 -0.00927259)
(-4.7765e-19 -3.63133e-20 -0.00926338)
(-5.75154e-20 -6.41908e-20 -0.00925289)
(-2.61071e-19 -5.60059e-19 -0.00924112)
(-6.8526e-19 1.25528e-19 -0.00922811)
(9.32957e-20 4.02913e-19 -0.00921387)
(-8.73028e-20 3.88732e-19 -0.00919843)
(4.99869e-19 1.12244e-19 -0.0091818)
(-8.48939e-19 -2.04248e-19 -0.00916402)
(-6.82115e-19 5.52696e-19 -0.00914512)
(5.60771e-19 1.38977e-18 -0.00912511)
(5.42427e-19 -1.14748e-18 -0.00910404)
(3.95944e-20 -4.52149e-19 -0.00908193)
(-8.09856e-19 -1.41405e-18 -0.00905883)
(3.8629e-19 -3.1828e-19 -0.0088191)
(-1.22579e-19 -1.18136e-19 -0.00884658)
(6.54822e-19 -4.52644e-19 -0.00887333)
(-5.57418e-19 -2.10856e-19 -0.0088993)
(1.31877e-20 -1.39891e-18 -0.00892442)
(-1.00451e-18 -1.71847e-19 -0.00894864)
(-7.72517e-19 1.89926e-19 -0.0089719)
(-9.76686e-19 3.89746e-19 -0.00899416)
(-6.4988e-19 6.38821e-19 -0.00901538)
(-1.23553e-18 1.27109e-18 -0.00903553)
(9.01593e-19 6.17214e-20 -0.00905457)
(-1.14628e-18 1.56548e-19 -0.00907247)
(4.52584e-19 1.04185e-18 -0.00908921)
(-3.36361e-19 6.56727e-19 -0.00910476)
(1.62917e-19 9.93385e-19 -0.0091191)
(-5.12448e-20 2.23102e-19 -0.0091322)
(-3.05929e-19 8.55741e-19 -0.00914404)
(-3.66897e-19 8.99246e-19 -0.0091546)
(1.10897e-19 1.14623e-18 -0.00916388)
(7.30367e-19 3.71232e-19 -0.00917185)
(-1.0277e-20 2.83297e-19 -0.00917851)
(-1.83336e-19 -2.71276e-19 -0.00918385)
(5.80478e-19 1.15416e-20 -0.00918786)
(-1.39289e-19 -5.25387e-19 -0.00919053)
(4.20425e-19 1.30999e-19 -0.00919187)
(-5.97856e-20 -7.05304e-19 -0.00919187)
(-9.58041e-20 -4.69141e-19 -0.00919053)
(-1.39391e-19 -6.99135e-19 -0.00918786)
(1.62828e-19 -4.16835e-19 -0.00918385)
(1.52623e-19 -3.11707e-19 -0.00917851)
(-5.90884e-19 -4.73206e-19 -0.00917185)
(-4.92826e-19 -4.05018e-20 -0.00916388)
(-5.2552e-19 -3.43687e-20 -0.0091546)
(-1.13014e-19 -5.35021e-20 -0.00914404)
(-3.97421e-19 -5.20223e-19 -0.0091322)
(-9.115e-19 1.9612e-19 -0.0091191)
(-1.68242e-19 5.07996e-19 -0.00910476)
(-1.59409e-19 4.18817e-19 -0.00908921)
(4.34022e-19 1.61794e-19 -0.00907247)
(-7.62186e-19 -2.35571e-19 -0.00905457)
(-6.76894e-19 5.51133e-19 -0.00903553)
(6.78952e-19 1.34527e-18 -0.00901538)
(7.71461e-19 -1.30029e-18 -0.00899416)
(1.49514e-19 -4.68241e-19 -0.0089719)
(-7.0532e-19 -1.51065e-18 -0.00894864)
(2.08533e-19 -4.72903e-19 -0.008705)
(-1.74338e-19 -1.57204e-19 -0.00873269)
(7.45559e-19 -3.89732e-19 -0.00875965)
(-4.35453e-19 -7.48433e-20 -0.0087858)
(3.80808e-20 -1.43859e-18 -0.00881111)
(-1.06478e-18 -2.34037e-19 -0.0088355)
(-8.4451e-19 1.32321e-19 -0.00885893)
(-1.11814e-18 2.91546e-19 -0.00888135)
(-7.19816e-19 6.12545e-19 -0.00890272)
(-1.17029e-18 1.31421e-18 -0.008923)
(8.04925e-19 -1.69817e-20 -0.00894218)
(-1.06925e-18 1.82145e-19 -0.0089602)
(1.62189e-19 8.87579e-19 -0.00897706)
(-1.06245e-19 7.55597e-19 -0.00899272)
(9.59192e-20 9.76103e-19 -0.00900716)
(-7.60794e-20 2.00076e-19 -0.00902035)
(-1.28846e-19 9.03854e-19 -0.00903227)
(-4.74482e-19 8.62375e-19 -0.00904291)
(3.2882e-19 1.1803e-18 -0.00905225)
(5.32075e-19 3.44198e-19 -0.00906028)
(-2.98952e-20 3.10591e-19 -0.00906699)
(-1.85806e-19 -3.03323e-19 -0.00907236)
(6.3679e-19 1.75375e-20 -0.0090764)
(-1.58909e-19 -5.34257e-19 -0.0090791)
(3.7229e-19 1.37474e-19 -0.00908044)
(-2.41784e-20 -7.03928e-19 -0.00908044)
(-1.72987e-19 -4.74422e-19 -0.0090791)
(-1.63935e-19 -7.20069e-19 -0.0090764)
(1.52545e-20 -4.04708e-19 -0.00907236)
(1.09957e-19 -2.82369e-19 -0.00906699)
(-4.17406e-19 -4.94424e-19 -0.00906028)
(-4.67998e-19 -3.79196e-20 -0.00905225)
(-5.99116e-19 -2.34254e-20 -0.00904291)
(-1.65567e-19 -3.89889e-20 -0.00903227)
(-4.55012e-19 -5.0013e-19 -0.00902035)
(-9.21339e-19 1.9603e-19 -0.00900716)
(-3.66186e-19 5.85299e-19 -0.00899272)
(-1.20081e-19 4.03954e-19 -0.00897706)
(2.16885e-19 2.70055e-19 -0.0089602)
(-6.09613e-19 -3.10527e-19 -0.00894218)
(-6.57389e-19 5.46764e-19 -0.008923)
(7.51882e-19 1.31177e-18 -0.00890272)
(9.54543e-19 -1.42649e-18 -0.00888135)
(1.7591e-19 -4.19481e-19 -0.00885893)
(1.7686e-19 -4.78409e-19 -0.00858776)
(-1.34887e-19 -1.26814e-19 -0.00861567)
(8.34665e-19 -3.40727e-19 -0.00864283)
(-3.36235e-19 5.15624e-20 -0.00866918)
(5.49313e-20 -1.47652e-18 -0.00869467)
(-1.12255e-18 -2.95353e-19 -0.00871923)
(-8.15618e-19 1.45302e-19 -0.00874283)
(-1.16764e-18 2.48321e-19 -0.00876541)
(-8.57231e-19 5.38881e-19 -0.00878694)
(-1.04941e-18 1.38872e-18 -0.00880737)
(6.95926e-19 -1.06158e-19 -0.00882668)
(-1.02812e-18 1.93259e-19 -0.00884484)
(-3.68309e-20 7.7221e-19 -0.00886182)
(-1.11798e-19 7.66031e-19 -0.00887759)
(-7.60524e-20 9.30963e-19 -0.00889213)
(-1.45919e-19 1.50108e-19 -0.00890542)
(3.88119e-20 9.54741e-19 -0.00891743)
(-6.40175e-19 8.13391e-19 -0.00892814)
(4.22755e-19 1.18964e-18 -0.00893755)
(3.76353e-19 3.28344e-19 -0.00894563)
(2.40924e-20 3.38175e-19 -0.00895239)
(-1.71951e-19 -3.37103e-19 -0.0089578)
(5.66894e-19 1.69509e-20 -0.00896187)
(-1.99204e-19 -5.3955e-19 -0.00896458)
(4.65339e-19 1.44105e-19 -0.00896594)
(1.72389e-20 -7.0432e-19 -0.00896594)
(-1.14516e-19 -4.84125e-19 -0.00896458)
(-1.5273e-19 -7.37431e-19 -0.00896187)
(-6.8676e-20 -3.97532e-19 -0.0089578)
(2.05173e-19 -2.84871e-19 -0.00895239)
(-2.89589e-19 -5.0982e-19 -0.00894563)
(-4.58859e-19 -2.06972e-20 -0.00893755)
(-5.28235e-19 -4.46477e-20 -0.00892814)
(-1.6595e-19 -4.34329e-20 -0.00891743)
(-3.65339e-19 -5.31851e-19 -0.00890542)
(-6.42875e-19 1.05401e-19 -0.00889213)
(-3.56082e-19 5.8489e-19 -0.00887759)
(-4.31181e-20 3.75455e-19 -0.00886182)
(2.09982e-19 2.86357e-19 -0.00884484)
(-5.6029e-19 -3.42978e-19 -0.00882668)
(-7.47428e-19 6.00223e-19 -0.00880737)
(8.4594e-19 1.26347e-18 -0.00878694)
(9.16289e-19 -1.41532e-18 -0.00876541)
(1.53119e-19 -3.37539e-19 -0.00874283)
(3.40052e-19 -3.13491e-19 -0.0084672)
(5.84516e-20 3.82159e-20 -0.00849533)
(8.30122e-19 -3.66399e-19 -0.00852269)
(-4.21319e-19 3.88111e-20 -0.00854924)
(1.5299e-19 -1.44829e-18 -0.00857492)
(-1.22226e-18 -3.88676e-19 -0.00859967)
(-7.07551e-19 2.03253e-19 -0.00862344)
(-1.18214e-18 2.38239e-19 -0.00864619)
(-1.03654e-18 4.34542e-19 -0.00866787)
(-8.77437e-19 1.48348e-18 -0.00868845)
(6.62277e-19 -1.52645e-19 -0.0087079)
(-1.06504e-18 1.74256e-19 -0.00872619)
(-6.70977e-20 7.25915e-19 -0.0087433)
(-6.76091e-20 7.94103e-19 -0.00875919)
(-1.95662e-19 9.04529e-19 -0.00877383)
(-1.22101e-19 1.17229e-19 -0.00878722)
(2.43398e-20 9.57187e-19 -0.00879931)
(-7.48772e-19 7.80615e-19 -0.0088101)
(4.84549e-19 1.18856e-18 -0.00881958)
(3.39912e-19 3.30754e-19 -0.00882772)
(1.23215e-19 3.72728e-19 -0.00883453)
(-1.49655e-19 -3.60588e-19 -0.00883998)
(4.22705e-19 1.01858e-20 -0.00884408)
(-1.54446e-19 -5.5594e-19 -0.00884681)
(5.79376e-19 1.50049e-19 -0.00884818)
(2.92603e-20 -6.99689e-19 -0.00884818)
(-4.96219e-20 -4.93387e-19 -0.00884681)
(-2.42615e-19 -7.4395e-19 -0.00884408)
(-1.54575e-19 -3.97093e-19 -0.00883998)
(3.34447e-19 -2.90922e-19 -0.00883453)
(-2.48354e-19 -5.00762e-19 -0.00882772)
(-4.61956e-19 -7.29527e-21 -0.00881958)
(-3.5799e-19 -9.10188e-20 -0.0088101)
(-9.27243e-20 -6.44501e-20 -0.00879931)
(-2.55254e-19 -5.82011e-19 -0.00878722)
(-3.83553e-19 2.06526e-20 -0.00877383)
(-2.68034e-19 5.68959e-19 -0.00875919)
(-6.85046e-20 3.88223e-19 -0.0087433)
(4.05681e-19 2.1435e-19 -0.00872619)
(-6.09435e-19 -3.16032e-19 -0.0087079)
(-9.27577e-19 6.93435e-19 -0.00868846)
(9.39538e-19 1.21107e-18 -0.00866787)
(8.51511e-19 -1.38211e-18 -0.00864619)
(1.6787e-19 -2.87176e-19 -0.00862344)
(5.42467e-19 -1.36597e-19 -0.00834312)
(1.70871e-19 1.48339e-19 -0.00837147)
(7.61737e-19 -4.25197e-19 -0.00839905)
(-6.33855e-19 -8.29435e-20 -0.00842579)
(3.02926e-19 -1.38646e-18 -0.00845167)
(-1.27975e-18 -4.53084e-19 -0.0084766)
(-5.99465e-19 2.5999e-19 -0.00850055)
(-1.31709e-18 1.67128e-19 -0.00852347)
(-1.10919e-18 3.77478e-19 -0.00854532)
(-8.15895e-19 1.51365e-18 -0.00856605)
(6.95922e-19 -1.60516e-19 -0.00858565)
(-1.09302e-18 1.54353e-19 -0.00860407)
(5.58974e-20 7.33926e-19 -0.0086213)
(4.42124e-20 8.55374e-19 -0.00863731)
(-1.80247e-19 9.28604e-19 -0.00865206)
(7.32705e-21 1.17145e-19 -0.00866555)
(-1.15251e-19 9.3394e-19 -0.00867773)
(-7.85024e-19 7.57184e-19 -0.0086886)
(5.32775e-19 1.18073e-18 -0.00869815)
(2.74674e-19 3.26989e-19 -0.00870635)
(1.98455e-19 4.00535e-19 -0.00871321)
(-1.10922e-19 -3.78011e-19 -0.0087187)
(3.86156e-19 1.02825e-20 -0.00872283)
(-1.10684e-19 -5.74029e-19 -0.00872558)
(5.53725e-19 1.58571e-19 -0.00872696)
(5.76536e-20 -6.96046e-19 -0.00872696)
(-4.65637e-20 -4.93039e-19 -0.00872558)
(-3.66751e-19 -7.40827e-19 -0.00872283)
(-2.64015e-19 -4.00872e-19 -0.0087187)
(2.67457e-19 -2.76686e-19 -0.00871321)
(-2.11935e-19 -4.8959e-19 -0.00870635)
(-4.76205e-19 7.99967e-21 -0.00869815)
(-3.90115e-19 -9.42569e-20 -0.0086886)
(-6.27327e-20 -7.50497e-20 -0.00867773)
(-1.82172e-19 -6.22268e-19 -0.00866555)
(-3.2828e-19 7.45834e-21 -0.00865206)
(-2.93018e-19 6.00183e-19 -0.00863731)
(-1.25251e-19 4.06323e-19 -0.0086213)
(5.82072e-19 1.52181e-19 -0.00860407)
(-7.44573e-19 -2.32542e-19 -0.00858565)
(-1.00662e-18 7.26412e-19 -0.00856605)
(9.95566e-19 1.17162e-18 -0.00854532)
(8.36678e-19 -1.37898e-18 -0.00852347)
(2.00245e-19 -2.51313e-19 -0.00850055)
(6.58848e-19 -4.78384e-20 -0.00821533)
(9.55519e-20 9.85794e-20 -0.0082439)
(7.3885e-19 -4.37568e-19 -0.00827169)
(-7.50396e-19 -1.34215e-19 -0.00829864)
(4.77711e-19 -1.31509e-18 -0.00832471)
(-1.25872e-18 -4.62873e-19 -0.00834983)
(-6.40214e-19 2.26074e-19 -0.00837396)
(-1.3864e-18 1.39752e-19 -0.00839705)
(-1.09243e-18 3.61929e-19 -0.00841906)
(-8.98506e-19 1.46445e-18 -0.00843995)
(7.01364e-19 -1.84795e-19 -0.0084597)
(-1.07411e-18 1.54761e-19 -0.00847826)
(9.6478e-20 7.04168e-19 -0.00849562)
(-1.70528e-20 8.52163e-19 -0.00851175)
(-5.24858e-20 9.89391e-19 -0.00852661)
(9.57029e-20 1.11142e-19 -0.0085402)
(-1.86074e-19 9.3226e-19 -0.00855247)
(-5.96305e-19 7.81896e-19 -0.00856343)
(5.20285e-19 1.16275e-18 -0.00857305)
(2.13252e-19 3.22519e-19 -0.00858131)
(1.08714e-19 4.02622e-19 -0.00858822)
(-1.0894e-19 -3.98206e-19 -0.00859375)
(3.91131e-19 1.42483e-20 -0.00859791)
(-1.19406e-19 -5.94545e-19 -0.00860068)
(4.58749e-19 1.63784e-19 -0.00860207)
(1.27952e-19 -6.93125e-19 -0.00860207)
(-8.60066e-20 -4.86387e-19 -0.00860068)
(-3.95436e-19 -7.44028e-19 -0.00859791)
(-3.05244e-19 -4.09198e-19 -0.00859375)
(1.63823e-19 -2.57197e-19 -0.00858822)
(-2.57002e-19 -4.66352e-19 -0.00858131)
(-5.08381e-19 3.29179e-20 -0.00857305)
(-5.65684e-19 -6.40137e-20 -0.00856343)
(-9.77436e-20 -7.58638e-20 -0.00855247)
(-1.61011e-19 -6.48917e-19 -0.0085402)
(-3.57776e-19 2.75565e-20 -0.00852661)
(-2.51054e-19 6.09025e-19 -0.00851175)
(-1.37551e-19 3.98519e-19 -0.00849562)
(5.84135e-19 1.72151e-19 -0.00847826)
(-9.74289e-19 -9.94556e-20 -0.0084597)
(-9.36085e-19 6.71374e-19 -0.00843995)
(1.02486e-18 1.14395e-18 -0.00841906)
(7.88693e-19 -1.35414e-18 -0.00839705)
(2.53119e-19 -2.26354e-19 -0.00837396)
(7.40543e-19 1.0161e-20 -0.00808359)
(4.08604e-20 7.17966e-20 -0.00811239)
(7.04384e-19 -4.66011e-19 -0.0081404)
(-6.74354e-19 -4.05354e-20 -0.00816755)
(6.91362e-19 -1.21759e-18 -0.00819382)
(-1.12197e-18 -3.7817e-19 -0.00821913)
(-7.93694e-19 1.18454e-19 -0.00824345)
(-1.27147e-18 2.15252e-19 -0.00826671)
(-9.65747e-19 4.1079e-19 -0.00828889)
(-1.01318e-18 1.39967e-18 -0.00830994)
(6.92444e-19 -2.23119e-19 -0.00832983)
(-9.74846e-19 1.8972e-19 -0.00834853)
(8.89731e-20 6.6172e-19 -0.00836602)
(-2.28333e-19 7.8827e-19 -0.00838227)
(6.22404e-20 1.04073e-18 -0.00839726)
(7.03775e-20 7.57565e-20 -0.00841094)
(-2.09245e-19 9.34416e-19 -0.00842331)
(-3.71493e-19 8.14371e-19 -0.00843435)
(5.1165e-19 1.15491e-18 -0.00844404)
(1.36297e-19 3.20198e-19 -0.00845237)
(-2.81502e-20 3.9678e-19 -0.00845933)
(-8.70389e-20 -4.2463e-19 -0.0084649)
(3.9134e-19 1.72604e-20 -0.00846909)
(-1.10486e-19 -6.09464e-19 -0.00847189)
(3.134e-19 1.66777e-19 -0.00847329)
(1.46266e-19 -6.91865e-19 -0.00847329)
(-1.25759e-19 -4.75726e-19 -0.00847189)
(-3.86169e-19 -7.49747e-19 -0.00846909)
(-3.33523e-19 -4.17428e-19 -0.0084649)
(1.14319e-19 -2.42942e-19 -0.00845933)
(-2.80998e-19 -4.46583e-19 -0.00845237)
(-5.46137e-19 6.21629e-20 -0.00844404)
(-6.11286e-19 -6.59163e-20 -0.00843435)
(-8.72759e-20 -9.5498e-20 -0.00842331)
(-1.52058e-19 -6.71157e-19 -0.00841094)
(-4.87071e-19 7.68029e-20 -0.00839726)
(-7.69249e-20 5.6619e-19 -0.00838227)
(-1.75201e-19 4.08951e-19 -0.00836602)
(4.3782e-19 2.70166e-19 -0.00834853)
(-1.17151e-18 1.0488e-20 -0.00832983)
(-7.94288e-19 5.64684e-19 -0.00830994)
(9.61852e-19 1.17532e-18 -0.00828889)
(6.61471e-19 -1.28455e-18 -0.00826671)
(3.76104e-19 -2.47525e-19 -0.00824345)
(7.77858e-19 2.17391e-20 -0.00794769)
(1.61095e-19 2.05982e-19 -0.00797672)
(6.08138e-19 -5.51185e-19 -0.00800494)
(-4.5788e-19 1.52341e-19 -0.0080323)
(8.91432e-19 -1.13283e-18 -0.00805876)
(-9.10411e-19 -2.27297e-19 -0.00808427)
(-7.88236e-19 1.13884e-19 -0.00810876)
(-1.11173e-18 3.02528e-19 -0.0081322)
(-7.42081e-19 5.22183e-19 -0.00815455)
(-1.15029e-18 1.32797e-18 -0.00817576)
(7.20689e-19 -2.54461e-19 -0.0081958)
(-8.53649e-19 2.36086e-19 -0.00821465)
(6.10769e-20 6.22335e-19 -0.00823227)
(-3.03401e-19 7.72396e-19 -0.00824865)
(1.39771e-19 1.07573e-18 -0.00826374)
(-5.01785e-20 1.42659e-20 -0.00827754)
(-2.11009e-19 9.35308e-19 -0.00829)
(-3.14264e-19 8.03448e-19 -0.00830112)
(4.97715e-19 1.15228e-18 -0.00831089)
(9.72069e-20 3.26053e-19 -0.00831928)
(-4.32019e-20 4.02845e-19 -0.00832629)
(-5.28719e-20 -4.51402e-19 -0.00833191)
(3.16545e-19 1.51038e-20 -0.00833613)
(-8.06397e-20 -6.20324e-19 -0.00833895)
(2.27673e-19 1.72439e-19 -0.00834036)
(1.34637e-19 -6.93498e-19 -0.00834036)
(-1.63114e-19 -4.65958e-19 -0.00833895)
(-3.17392e-19 -7.59761e-19 -0.00833613)
(-3.65681e-19 -4.23174e-19 -0.00833191)
(1.24185e-19 -2.37165e-19 -0.00832629)
(-1.91616e-19 -4.44751e-19 -0.00831928)
(-5.35901e-19 8.12205e-20 -0.00831089)
(-5.23953e-19 -1.02738e-19 -0.00830112)
(-5.13949e-20 -1.21902e-19 -0.00829)
(-1.08172e-19 -6.96906e-19 -0.00827754)
(-7.28956e-19 1.59398e-19 -0.00826374)
(-7.05128e-20 5.83308e-19 -0.00824865)
(-2.33896e-19 4.39717e-19 -0.00823227)
(2.99279e-19 3.66546e-19 -0.00821465)
(-1.1296e-18 -8.87447e-21 -0.0081958)
(-5.97853e-19 4.27915e-19 -0.00817576)
(7.63613e-19 1.29194e-18 -0.00815455)
(5.44317e-19 -1.23136e-18 -0.0081322)
(3.9174e-19 -1.98041e-19 -0.00810876)
(8.09789e-19 1.50521e-20 -0.00780737)
(2.8793e-19 3.52622e-19 -0.00783663)
(5.12768e-19 -6.37874e-19 -0.00786506)
(-2.66153e-19 3.14096e-19 -0.00789262)
(1.08905e-18 -1.04789e-18 -0.00791929)
(-7.25072e-19 -9.38667e-20 -0.00794498)
(-6.36131e-19 2.07163e-19 -0.00796966)
(-1.03656e-18 3.341e-19 -0.00799328)
(-6.4816e-19 5.67296e-19 -0.00801579)
(-1.27553e-18 1.2674e-18 -0.00803716)
(6.95456e-19 -3.22634e-19 -0.00805736)
(-8.03981e-19 2.52575e-19 -0.00807635)
(3.3441e-20 5.83428e-19 -0.00809411)
(-1.42795e-19 8.39703e-19 -0.00811061)
(2.55612e-19 1.13296e-18 -0.00812582)