/*--------------------------------*- C++ -*----------------------------------*\
  =========                 |
  \\      /  F ield         | OpenFOAM: The Open Source CFD Toolbox
   \\    /   O peration     | Website:  https://openfoam.org
    \\  /    A nd           | Version:  7
     \\/     M anipulation  |
\*---------------------------------------------------------------------------*/
FoamFile
{
    version     2.0;
    format      ascii;
    class       volScalarField;
    location    "144000";
    object      p;
}
// * * * * * * * * * * * * * * * * * * * * * * * * * * * * * * * * * * * * * //

dimensions      [0 2 -2 0 0 0 0];

internalField   nonuniform List<scalar> 
4764
(
-8.57473e-19
-8.43932e-19
-8.70265e-19
-8.6364e-19
-8.81063e-19
-8.63165e-19
-8.47011e-19
-8.68047e-19
-8.55845e-19
-8.68931e-19
-8.52432e-19
-8.63552e-19
-8.43231e-19
-8.70656e-19
-8.58296e-19
-8.58173e-19
-8.49259e-19
-8.65352e-19
-8.68305e-19
-8.76579e-19
-8.69069e-19
-8.74002e-19
-8.66732e-19
-8.7152e-19
-8.55655e-19
-8.72924e-19
-8.66498e-19
-8.81423e-19
-8.71837e-19
-8.81738e-19
-8.91914e-19
-8.92594e-19
-9.03553e-19
-8.91204e-19
-8.85536e-19
-8.42609e-19
-8.592e-19
-8.5453e-19
-8.63282e-19
-8.4531e-19
-8.59117e-19
-8.3577e-19
-8.60117e-19
-8.58496e-19
-8.60168e-19
-8.56349e-19
-8.73369e-19
-8.67069e-19
-8.77052e-19
-8.75815e-19
-8.71779e-19
-8.75226e-19
-8.71324e-19
-8.58214e-19
-8.7429e-19
-8.75695e-19
-8.84101e-19
-8.7606e-19
-8.85401e-19
-8.94556e-19
-9.02184e-19
-8.99753e-19
-8.93042e-19
-8.80633e-19
-8.92109e-19
-8.81597e-19
-8.8472e-19
-8.80072e-19
-8.41084e-19
-8.57475e-19
-8.60801e-19
-8.67104e-19
-8.44454e-19
-8.6994e-19
-8.51185e-19
-8.52433e-19
-8.50741e-19
-8.66746e-19
-8.58456e-19
-8.74908e-19
-8.67829e-19
-8.79992e-19
-8.77983e-19
-8.69457e-19
-8.76923e-19
-8.71306e-19
-8.62484e-19
-8.75901e-19
-8.81225e-19
-8.81347e-19
-8.75354e-19
-8.856e-19
-9.00595e-19
-8.95931e-19
-8.98346e-19
-8.85882e-19
-8.75363e-19
-8.92487e-19
-8.79827e-19
-8.78399e-19
-8.85116e-19
-8.81895e-19
-8.77341e-19
-8.84645e-19
-8.80268e-19
-8.85872e-19
-8.7075e-19
-8.70868e-19
-8.52281e-19
-8.88052e-19
-8.69182e-19
-8.7854e-19
-8.5285e-19
-8.41258e-19
-8.50516e-19
-8.51567e-19
-8.68052e-19
-8.39517e-19
-8.6255e-19
-8.52781e-19
-8.52683e-19
-8.56134e-19
-8.56952e-19
-8.57885e-19
-8.74602e-19
-8.64894e-19
-8.77547e-19
-8.75758e-19
-8.76982e-19
-8.73223e-19
-8.80331e-19
-8.61817e-19
-8.7651e-19
-8.74419e-19
-8.80978e-19
-8.69879e-19
-8.89074e-19
-8.97925e-19
-8.92999e-19
-8.98334e-19
-8.88841e-19
-8.8978e-19
-8.86674e-19
-8.86788e-19
-8.78689e-19
-8.85819e-19
-8.79103e-19
-8.86808e-19
-8.8471e-19
-8.75031e-19
-8.91158e-19
-8.75448e-19
-8.77555e-19
-8.55821e-19
-8.85014e-19
-8.6701e-19
-8.66953e-19
-8.53774e-19
-8.36739e-19
-8.5244e-19
-8.43312e-19
-8.60998e-19
-8.49069e-19
-8.54706e-19
-8.46549e-19
-8.60534e-19
-8.57119e-19
-8.62671e-19
-8.65864e-19
-8.69238e-19
-8.63833e-19
-8.73173e-19
-8.71305e-19
-8.75648e-19
-8.76035e-19
-8.83034e-19
-8.66134e-19
-8.78505e-19
-8.73097e-19
-8.79805e-19
-8.77247e-19
-8.98208e-19
-8.96628e-19
-8.95458e-19
-9.02985e-19
-8.90478e-19
-8.89746e-19
-8.86379e-19
-8.80607e-19
-8.83106e-19
-8.7798e-19
-8.84866e-19
-8.96297e-19
-8.82698e-19
-8.7815e-19
-8.9903e-19
-8.67932e-19
-8.87754e-19
-8.61741e-19
-8.86959e-19
-8.56058e-19
-8.75975e-19
-8.53891e-19
-8.48774e-19
-8.64304e-19
-8.52923e-19
-8.81236e-19
-8.55015e-19
-8.64401e-19
-8.49759e-19
-8.56679e-19
-8.54708e-19
-8.6727e-19
-8.63972e-19
-8.73871e-19
-8.67991e-19
-8.84293e-19
-8.67905e-19
-8.73313e-19
-8.7543e-19
-8.82822e-19
-8.69914e-19
-8.82953e-19
-8.75964e-19
-8.76613e-19
-8.76481e-19
-8.89026e-19
-8.98614e-19
-9.04282e-19
-9.0354e-19
-8.92987e-19
-8.87578e-19
-8.87207e-19
-8.75459e-19
-8.80011e-19
-8.81936e-19
-8.85096e-19
-8.90983e-19
-8.77342e-19
-8.60506e-19
-8.85157e-19
-8.61893e-19
-8.77273e-19
-8.62606e-19
-8.8862e-19
-8.67714e-19
-8.81285e-19
-8.62436e-19
-8.51798e-19
-8.6171e-19
-8.51304e-19
-8.72465e-19
-8.4344e-19
-8.57358e-19
-8.56858e-19
-8.53022e-19
-8.47844e-19
-8.65643e-19
-8.66187e-19
-8.71189e-19
-8.69602e-19
-8.87185e-19
-8.6636e-19
-8.786e-19
-8.79062e-19
-8.80788e-19
-8.73232e-19
-8.83351e-19
-8.7975e-19
-8.79943e-19
-8.7768e-19
-8.854e-19
-9.00633e-19
-9.03409e-19
-9.01016e-19
-8.93233e-19
-8.95004e-19
-8.81777e-19
-8.77607e-19
-8.77e-19
-8.84756e-19
-8.79964e-19
-8.89218e-19
-8.85856e-19
-8.7203e-19
-8.89014e-19
-8.65871e-19
-8.73647e-19
-8.61863e-19
-8.85734e-19
-8.69419e-19
-8.84891e-19
-8.65845e-19
-8.36895e-19
-8.55296e-19
-8.46158e-19
-8.69733e-19
-8.4914e-19
-8.62118e-19
-8.58675e-19
-8.52594e-19
-8.4179e-19
-8.65352e-19
-8.64087e-19
-8.76046e-19
-8.65612e-19
-8.89567e-19
-8.70699e-19
-8.82939e-19
-8.75195e-19
-8.83181e-19
-8.7092e-19
-8.80767e-19
-8.75986e-19
-8.86455e-19
-8.81896e-19
-8.81706e-19
-9.00692e-19
-9.00505e-19
-8.99668e-19
-8.96505e-19
-8.94098e-19
-8.92115e-19
-8.78617e-19
-8.83373e-19
-8.85621e-19
-8.82033e-19
-8.92891e-19
-8.85025e-19
-8.82959e-19
-8.96485e-19
-8.70395e-19
-8.86844e-19
-8.66805e-19
-8.85479e-19
-8.68668e-19
-8.96033e-19
-8.63273e-19
-8.32939e-19
-8.55452e-19
-8.47805e-19
-8.68665e-19
-8.55326e-19
-8.59838e-19
-8.50177e-19
-8.59488e-19
-8.48817e-19
-8.63349e-19
-8.69112e-19
-8.82209e-19
-8.61177e-19
-8.85236e-19
-8.73475e-19
-8.81239e-19
-8.72199e-19
-8.80608e-19
-8.7146e-19
-8.80538e-19
-8.72047e-19
-8.84714e-19
-8.81798e-19
-8.89302e-19
-9.03128e-19
-8.98695e-19
-9.03595e-19
-8.98675e-19
-8.86944e-19
-8.97273e-19
-8.81427e-19
-8.84506e-19
-8.82419e-19
-8.92135e-19
-8.84402e-19
-8.88243e-19
-8.79165e-19
-8.96207e-19
-8.75316e-19
-8.94234e-19
-8.69117e-19
-8.86695e-19
-8.70917e-19
-9.00216e-19
-8.54234e-19
-8.36556e-19
-8.61029e-19
-8.4705e-19
-8.6605e-19
-8.45989e-19
-8.47625e-19
-8.51722e-19
-8.59417e-19
-8.55402e-19
-8.64575e-19
-8.64733e-19
-8.8055e-19
-8.65431e-19
-8.87662e-19
-8.7078e-19
-8.80841e-19
-8.71065e-19
-8.8143e-19
-8.71733e-19
-8.80569e-19
-8.74065e-19
-8.84257e-19
-8.7845e-19
-8.95667e-19
-9.01664e-19
-9.00903e-19
-9.01425e-19
-8.98852e-19
-8.88828e-19
-9.00674e-19
-8.8086e-19
-8.81604e-19
-8.80123e-19
-8.87062e-19
-9.023e-19
-8.93612e-19
-8.82147e-19
-8.90384e-19
-8.73626e-19
-8.95056e-19
-8.60855e-19
-8.9083e-19
-8.77527e-19
-8.89872e-19
-8.51606e-19
-8.42603e-19
-8.56114e-19
-8.50864e-19
-8.68969e-19
-8.45503e-19
-8.55587e-19
-8.52198e-19
-8.56486e-19
-8.55671e-19
-8.64898e-19
-8.64252e-19
-8.72247e-19
-8.71146e-19
-8.83485e-19
-8.74872e-19
-8.78692e-19
-8.67634e-19
-8.83544e-19
-8.76845e-19
-8.78778e-19
-8.71744e-19
-8.8403e-19
-8.84001e-19
-8.9497e-19
-9.02348e-19
-9.02044e-19
-8.99326e-19
-8.96084e-19
-8.92414e-19
-8.90292e-19
-8.81032e-19
-8.68689e-19
-8.81773e-19
-8.78945e-19
-8.94218e-19
-8.91942e-19
-8.84827e-19
-8.86941e-19
-8.68505e-19
-8.86185e-19
-8.67703e-19
-8.89047e-19
-8.6853e-19
-8.84667e-19
-8.53338e-19
-8.42423e-19
-8.54436e-19
-8.46987e-19
-8.67454e-19
-8.44607e-19
-8.50771e-19
-8.58513e-19
-8.51684e-19
-8.50839e-19
-8.69333e-19
-8.63669e-19
-8.72179e-19
-8.72605e-19
-8.83656e-19
-8.72727e-19
-8.77783e-19
-8.70924e-19
-8.80915e-19
-8.74736e-19
-8.82163e-19
-8.73219e-19
-8.86989e-19
-8.90332e-19
-8.94331e-19
-8.98108e-19
-9.03201e-19
-8.99268e-19
-8.98362e-19
-8.88935e-19
-8.91122e-19
-8.78254e-19
-8.73521e-19
-8.87574e-19
-8.73679e-19
-8.94378e-19
-8.93315e-19
-8.81461e-19
-8.93109e-19
-8.73269e-19
-8.90063e-19
-8.71559e-19
-8.89689e-19
-8.65016e-19
-8.82034e-19
-8.55999e-19
-8.48322e-19
-8.36228e-19
-8.57828e-19
-8.42361e-19
-8.61642e-19
-8.40948e-19
-8.47951e-19
-8.56139e-19
-8.59591e-19
-8.50735e-19
-8.71069e-19
-8.65867e-19
-8.74189e-19
-8.67005e-19
-8.87074e-19
-8.66453e-19
-8.81994e-19
-8.7197e-19
-8.8052e-19
-8.73474e-19
-8.82746e-19
-8.78343e-19
-8.91035e-19
-8.90621e-19
-8.94695e-19
-9.01826e-19
-9.08412e-19
-9.04108e-19
-9.06637e-19
-8.87328e-19
-8.87216e-19
-8.7934e-19
-8.77069e-19
-8.81907e-19
-8.76845e-19
-8.93832e-19
-8.95769e-19
-8.85612e-19
-9.01013e-19
-8.71272e-19
-8.96216e-19
-8.68715e-19
-8.92714e-19
-8.66785e-19
-8.85132e-19
-8.54423e-19
-8.43948e-19
-8.43461e-19
-8.49732e-19
-8.51679e-19
-8.68315e-19
-8.45153e-19
-8.56197e-19
-8.44242e-19
-8.54043e-19
-8.52212e-19
-8.6342e-19
-8.64964e-19
-8.73454e-19
-8.68929e-19
-8.87063e-19
-8.7054e-19
-8.90374e-19
-8.7082e-19
-8.90099e-19
-8.72028e-19
-8.81542e-19
-8.75362e-19
-8.83467e-19
-8.85967e-19
-8.95014e-19
-9.0062e-19
-9.04914e-19
-9.06846e-19
-9.01453e-19
-8.95216e-19
-8.81522e-19
-8.83244e-19
-8.73721e-19
-8.85118e-19
-8.88358e-19
-8.87713e-19
-8.89242e-19
-8.83205e-19
-8.97428e-19
-8.76744e-19
-8.8868e-19
-8.75249e-19
-8.92967e-19
-8.75544e-19
-8.87305e-19
-8.62617e-19
-8.39391e-19
-8.44454e-19
-8.52092e-19
-8.45694e-19
-8.63586e-19
-8.47968e-19
-8.56084e-19
-8.44117e-19
-8.61061e-19
-8.45425e-19
-8.62674e-19
-8.64951e-19
-8.76716e-19
-8.66721e-19
-8.88434e-19
-8.73169e-19
-8.90466e-19
-8.72101e-19
-8.846e-19
-8.7412e-19
-8.87295e-19
-8.80921e-19
-8.87634e-19
-8.89002e-19
-8.97296e-19
-9.01371e-19
-9.05336e-19
-9.04836e-19
-9.02105e-19
-8.90641e-19
-8.84325e-19
-8.79595e-19
-8.73032e-19
-8.78406e-19
-8.86483e-19
-8.89693e-19
-8.87611e-19
-8.88601e-19
-8.97568e-19
-8.77099e-19
-8.88998e-19
-8.86014e-19
-8.99139e-19
-8.73722e-19
-8.96255e-19
-8.57921e-19
-8.37696e-19
-8.41472e-19
-8.43565e-19
-8.52271e-19
-8.45549e-19
-8.61149e-19
-8.39794e-19
-8.63651e-19
-8.46006e-19
-8.59454e-19
-8.48214e-19
-8.63053e-19
-8.63891e-19
-8.75473e-19
-8.67013e-19
-8.90223e-19
-8.72539e-19
-8.87191e-19
-8.749e-19
-8.81355e-19
-8.74008e-19
-8.88454e-19
-8.82448e-19
-8.88959e-19
-8.89066e-19
-8.97698e-19
-9.0685e-19
-9.09594e-19
-8.97207e-19
-9.01904e-19
-8.87014e-19
-8.89424e-19
-8.81661e-19
-8.72218e-19
-8.76443e-19
-8.80957e-19
-8.84253e-19
-8.98983e-19
-8.87341e-19
-8.93402e-19
-8.78489e-19
-8.90855e-19
-8.85012e-19
-8.95573e-19
-8.75535e-19
-8.93439e-19
-8.5505e-19
-8.50198e-19
-8.43104e-19
-8.43075e-19
-8.5624e-19
-8.42903e-19
-8.62339e-19
-8.34924e-19
-8.55031e-19
-8.46613e-19
-8.53071e-19
-8.49291e-19
-8.60807e-19
-8.68297e-19
-8.76335e-19
-8.71134e-19
-8.88725e-19
-8.71086e-19
-8.84744e-19
-8.77448e-19
-8.86735e-19
-8.74586e-19
-8.9077e-19
-8.78198e-19
-8.91274e-19
-8.88096e-19
-8.98088e-19
-9.03917e-19
-9.13497e-19
-8.95089e-19
-8.99134e-19
-8.86034e-19
-8.88994e-19
-8.8279e-19
-8.75888e-19
-8.81426e-19
-8.82428e-19
-8.89329e-19
-9.03144e-19
-8.8545e-19
-8.90427e-19
-8.74137e-19
-8.91507e-19
-8.72574e-19
-8.83841e-19
-8.73378e-19
-8.93887e-19
-8.57061e-19
-8.60735e-19
-8.57412e-19
-8.46881e-19
-8.43802e-19
-8.53716e-19
-8.37729e-19
-8.59045e-19
-8.40012e-19
-8.5769e-19
-8.4071e-19
-8.51436e-19
-8.47003e-19
-8.60467e-19
-8.68979e-19
-8.69548e-19
-8.72656e-19
-8.84883e-19
-8.73449e-19
-8.81189e-19
-8.83925e-19
-8.91358e-19
-8.7853e-19
-8.88766e-19
-8.76032e-19
-8.88668e-19
-8.91603e-19
-8.95756e-19
-9.03745e-19
-9.08917e-19
-9.0056e-19
-9.00262e-19
-8.90389e-19
-8.85014e-19
-8.80259e-19
-8.78461e-19
-8.8366e-19
-8.8835e-19
-8.81147e-19
-9.01705e-19
-8.83355e-19
-8.93539e-19
-8.73983e-19
-8.90724e-19
-8.76446e-19
-8.77374e-19
-8.77149e-19
-8.90052e-19
-8.6993e-19
-8.51628e-19
-8.44961e-19
-8.48338e-19
-8.45714e-19
-8.56326e-19
-8.47731e-19
-8.58417e-19
-8.41105e-19
-8.5799e-19
-8.43994e-19
-8.60279e-19
-8.4636e-19
-8.63332e-19
-8.65683e-19
-8.71861e-19
-8.72707e-19
-8.84972e-19
-8.74217e-19
-8.81824e-19
-8.78917e-19
-8.87057e-19
-8.82626e-19
-8.8886e-19
-8.78622e-19
-8.86659e-19
-8.95953e-19
-8.98409e-19
-9.06328e-19
-9.05454e-19
-9.01792e-19
-8.97409e-19
-8.90574e-19
-8.86492e-19
-8.80881e-19
-8.78682e-19
-8.76915e-19
-8.83589e-19
-8.81716e-19
-8.95348e-19
-8.86327e-19
-8.91153e-19
-8.69957e-19
-8.87625e-19
-8.80128e-19
-8.93684e-19
-8.83329e-19
-8.86141e-19
-8.65061e-19
-8.53213e-19
-8.40757e-19
-8.46803e-19
-8.43154e-19
-8.54309e-19
-8.40003e-19
-8.6156e-19
-8.44917e-19
-8.54202e-19
-8.5089e-19
-8.57385e-19
-8.46746e-19
-8.68075e-19
-8.63731e-19
-8.72865e-19
-8.72199e-19
-8.87529e-19
-8.71216e-19
-8.86136e-19
-8.76554e-19
-8.84744e-19
-8.8029e-19
-8.9047e-19
-8.79643e-19
-8.84222e-19
-8.94497e-19
-8.99178e-19
-9.04499e-19
-9.03856e-19
-8.99002e-19
-8.97294e-19
-8.90727e-19
-8.87965e-19
-8.79689e-19
-8.76688e-19
-8.78125e-19
-8.81624e-19
-8.84319e-19
-8.91494e-19
-8.87815e-19
-9.02968e-19
-8.74296e-19
-8.87836e-19
-8.81424e-19
-8.93659e-19
-8.85426e-19
-8.85885e-19
-8.59548e-19
-8.55507e-19
-8.33081e-19
-8.45795e-19
-8.44333e-19
-8.49141e-19
-8.44485e-19
-8.62435e-19
-8.39814e-19
-8.56641e-19
-8.48926e-19
-8.47319e-19
-8.45515e-19
-8.69074e-19
-8.65611e-19
-8.75705e-19
-8.71102e-19
-8.8422e-19
-8.72785e-19
-8.86233e-19
-8.78013e-19
-8.85241e-19
-8.78727e-19
-8.86983e-19
-8.80053e-19
-8.87934e-19
-8.94441e-19
-8.9993e-19
-9.04077e-19
-9.07599e-19
-8.97979e-19
-8.9986e-19
-8.89966e-19
-8.85539e-19
-8.76284e-19
-8.74244e-19
-8.8451e-19
-8.80998e-19
-8.79065e-19
-9.02451e-19
-8.87819e-19
-9.00017e-19
-8.79464e-19
-8.89498e-19
-8.8254e-19
-9.00995e-19
-8.81513e-19
-8.83757e-19
-8.57523e-19
-8.45724e-19
-8.29798e-19
-8.43245e-19
-8.49209e-19
-8.56328e-19
-8.49967e-19
-8.60705e-19
-8.38676e-19
-8.63949e-19
-8.43523e-19
-8.44253e-19
-8.4664e-19
-8.73754e-19
-8.67336e-19
-8.76489e-19
-8.72011e-19
-8.81203e-19
-8.78421e-19
-8.86111e-19
-8.79303e-19
-8.85435e-19
-8.77479e-19
-8.90213e-19
-8.80314e-19
-8.89869e-19
-8.97434e-19
-9.01117e-19
-9.05835e-19
-9.04487e-19
-9.0248e-19
-8.98616e-19
-8.89598e-19
-8.84489e-19
-8.71575e-19
-8.72148e-19
-8.87934e-19
-8.83356e-19
-8.75788e-19
-9.02132e-19
-8.8758e-19
-9.01198e-19
-8.73777e-19
-8.8584e-19
-8.85933e-19
-9.01466e-19
-8.84937e-19
-8.91405e-19
-8.69117e-19
-8.44144e-19
-8.3681e-19
-8.39827e-19
-8.37103e-19
-8.46573e-19
-8.54005e-19
-8.43183e-19
-8.55958e-19
-8.41735e-19
-8.52284e-19
-8.34657e-19
-8.54272e-19
-8.39083e-19
-8.66409e-19
-8.65928e-19
-8.73146e-19
-8.71506e-19
-8.81328e-19
-8.77055e-19
-8.86983e-19
-8.82162e-19
-8.84481e-19
-8.7563e-19
-8.88481e-19
-8.80816e-19
-8.89657e-19
-8.96574e-19
-9.00995e-19
-9.09329e-19
-9.06971e-19
-9.03099e-19
-9.00417e-19
-8.90049e-19
-8.88611e-19
-8.79923e-19
-8.82187e-19
-8.7465e-19
-8.89903e-19
-8.8734e-19
-8.98837e-19
-8.88766e-19
-8.95656e-19
-8.78187e-19
-8.89768e-19
-8.92839e-19
-8.93601e-19
-8.95068e-19
-8.91842e-19
-8.61983e-19
-8.48507e-19
-8.40492e-19
-8.47608e-19
-8.44913e-19
-8.39056e-19
-8.47243e-19
-8.51058e-19
-8.42032e-19
-8.54795e-19
-8.42483e-19
-8.57948e-19
-8.38011e-19
-8.57397e-19
-8.47051e-19
-8.62341e-19
-8.64059e-19
-8.69103e-19
-8.72584e-19
-8.81162e-19
-8.75584e-19
-8.88821e-19
-8.77348e-19
-8.83649e-19
-8.78664e-19
-8.88652e-19
-8.8116e-19
-8.90309e-19
-8.97855e-19
-9.06726e-19
-9.06145e-19
-9.10689e-19
-9.02443e-19
-8.98074e-19
-8.92083e-19
-8.90231e-19
-8.79302e-19
-8.81777e-19
-8.68834e-19
-8.91953e-19
-8.82514e-19
-8.99068e-19
-8.88971e-19
-8.91224e-19
-8.81886e-19
-8.93298e-19
-8.90347e-19
-8.89881e-19
-8.85423e-19
-8.93665e-19
-8.58971e-19
-8.47166e-19
-8.4739e-19
-8.54361e-19
-8.43211e-19
-8.44455e-19
-8.3996e-19
-8.4185e-19
-8.38713e-19
-8.61923e-19
-8.42587e-19
-8.49213e-19
-8.4017e-19
-8.50122e-19
-8.48952e-19
-8.65828e-19
-8.60961e-19
-8.6514e-19
-8.71133e-19
-8.83601e-19
-8.74798e-19
-8.90851e-19
-8.78662e-19
-8.88317e-19
-8.79034e-19
-8.91051e-19
-8.81767e-19
-8.90552e-19
-8.9579e-19
-9.08313e-19
-9.05862e-19
-9.09505e-19
-8.98875e-19
-9.0155e-19
-8.93227e-19
-8.91907e-19
-8.75299e-19
-8.82731e-19
-8.74226e-19
-8.90991e-19
-8.79578e-19
-8.95875e-19
-8.82215e-19
-8.87359e-19
-8.83363e-19
-9.02072e-19
-8.83098e-19
-8.95762e-19
-8.79388e-19
-8.90675e-19
-8.54816e-19
-8.44132e-19
-8.48317e-19
-8.52995e-19
-8.33256e-19
-8.46677e-19
-8.40999e-19
-8.48206e-19
-8.3643e-19
-8.59356e-19
-8.44473e-19
-8.46734e-19
-8.40139e-19
-8.50682e-19
-8.5108e-19
-8.65408e-19
-8.58243e-19
-8.7418e-19
-8.63163e-19
-8.81314e-19
-8.7422e-19
-8.89434e-19
-8.7977e-19
-8.88188e-19
-8.78401e-19
-8.88297e-19
-8.82209e-19
-8.90415e-19
-8.94919e-19
-9.05523e-19
-9.05123e-19
-9.09276e-19
-9.02559e-19
-9.03851e-19
-8.84176e-19
-8.9328e-19
-8.73582e-19
-8.75349e-19
-8.76917e-19
-8.88276e-19
-8.78063e-19
-8.92575e-19
-8.8653e-19
-8.94308e-19
-8.78334e-19
-8.9528e-19
-8.83559e-19
-8.9709e-19
-8.8411e-19
-8.8459e-19
-8.53792e-19
-8.4353e-19
-8.42e-19
-8.48009e-19
-8.33191e-19
-8.42069e-19
-8.44241e-19
-8.54991e-19
-8.41707e-19
-8.58293e-19
-8.48548e-19
-8.53793e-19
-8.3958e-19
-8.4776e-19
-8.43958e-19
-8.67551e-19
-8.58962e-19
-8.72544e-19
-8.66653e-19
-8.84071e-19
-8.7747e-19
-8.92254e-19
-8.81114e-19
-8.89419e-19
-8.79622e-19
-8.86928e-19
-8.82928e-19
-8.90715e-19
-8.94013e-19
-9.03673e-19
-9.01955e-19
-9.06339e-19
-9.0372e-19
-9.03896e-19
-8.90172e-19
-8.90094e-19
-8.74894e-19
-8.78381e-19
-8.76723e-19
-8.89322e-19
-8.80309e-19
-8.88706e-19
-8.89499e-19
-8.93931e-19
-8.77015e-19
-8.92294e-19
-8.88836e-19
-8.98205e-19
-8.84074e-19
-8.90619e-19
-8.6263e-19
-8.41162e-19
-8.391e-19
-8.51497e-19
-8.4352e-19
-8.40995e-19
-8.43567e-19
-8.54977e-19
-8.43237e-19
-8.56678e-19
-8.45129e-19
-8.55862e-19
-8.38859e-19
-8.52358e-19
-8.43361e-19
-8.68747e-19
-8.63798e-19
-8.69132e-19
-8.69118e-19
-8.83832e-19
-8.78923e-19
-8.94057e-19
-8.81099e-19
-8.87624e-19
-8.80688e-19
-8.87649e-19
-8.83541e-19
-8.91048e-19
-8.91492e-19
-9.01945e-19
-9.0076e-19
-9.04687e-19
-9.05234e-19
-8.98163e-19
-8.95963e-19
-8.87473e-19
-8.79549e-19
-8.77902e-19
-8.7215e-19
-8.87414e-19
-8.88182e-19
-8.91507e-19
-8.88938e-19
-8.92952e-19
-8.75103e-19
-8.91015e-19
-8.87879e-19
-8.89283e-19
-8.78646e-19
-8.85948e-19
-8.6241e-19
-8.53156e-19
-8.36895e-19
-8.48407e-19
-8.42151e-19
-8.3842e-19
-8.45833e-19
-8.46129e-19
-8.42307e-19
-8.63201e-19
-8.50317e-19
-8.48983e-19
-8.37546e-19
-8.53993e-19
-8.38302e-19
-8.68623e-19
-8.63861e-19
-8.68902e-19
-8.66027e-19
-8.83366e-19
-8.76713e-19
-8.92179e-19
-8.82096e-19
-8.85579e-19
-8.80077e-19
-8.90002e-19
-8.84831e-19
-8.91043e-19
-8.9398e-19
-9.04217e-19
-9.01871e-19
-9.06186e-19
-9.01758e-19
-8.98278e-19
-8.90531e-19
-8.86815e-19
-8.75249e-19
-8.82442e-19
-8.74375e-19
-8.88691e-19
-8.92107e-19
-8.85596e-19
-8.81165e-19
-8.9177e-19
-8.88359e-19
-8.94748e-19
-8.93604e-19
-8.91708e-19
-8.80574e-19
-8.87063e-19
-8.48741e-19
-8.4511e-19
-8.36727e-19
-8.40043e-19
-8.40418e-19
-8.41668e-19
-8.41501e-19
-8.51467e-19
-8.40114e-19
-8.53891e-19
-8.42676e-19
-8.49391e-19
-8.35682e-19
-8.49824e-19
-8.43911e-19
-8.63474e-19
-8.5818e-19
-8.69873e-19
-8.61699e-19
-8.84611e-19
-8.77039e-19
-8.89004e-19
-8.85648e-19
-8.84402e-19
-8.79743e-19
-8.88614e-19
-8.8716e-19
-8.91829e-19
-8.94082e-19
-9.03876e-19
-9.03674e-19
-9.08109e-19
-8.98714e-19
-9.00323e-19
-8.88571e-19
-8.90009e-19
-8.73905e-19
-8.76092e-19
-8.82786e-19
-8.90404e-19
-8.84085e-19
-8.93549e-19
-8.90494e-19
-8.91815e-19
-8.82897e-19
-8.97e-19
-8.90092e-19
-8.91607e-19
-8.85259e-19
-8.8699e-19
-8.56855e-19
-8.38083e-19
-8.34e-19
-8.38615e-19
-8.362e-19
-8.3948e-19
-8.28877e-19
-8.5432e-19
-8.40337e-19
-8.48194e-19
-8.44562e-19
-8.45528e-19
-8.35866e-19
-8.50671e-19
-8.43322e-19
-8.61928e-19
-8.58426e-19
-8.68739e-19
-8.63938e-19
-8.85314e-19
-8.77966e-19
-8.87872e-19
-8.82752e-19
-8.89654e-19
-8.80443e-19
-8.89582e-19
-8.84525e-19
-8.91494e-19
-8.91875e-19
-9.05114e-19
-9.09161e-19
-9.10103e-19
-9.00877e-19
-9.00192e-19
-8.93256e-19
-8.90674e-19
-8.76167e-19
-8.75742e-19
-8.74802e-19
-8.82612e-19
-8.86369e-19
-8.94495e-19
-8.97081e-19
-8.91929e-19
-8.74842e-19
-9.07653e-19
-8.88383e-19
-8.95142e-19
-8.8589e-19
-8.88897e-19
-8.63778e-19
-8.43016e-19
-8.44856e-19
-8.50215e-19
-8.41874e-19
-8.37067e-19
-8.37517e-19
-8.5453e-19
-8.41132e-19
-8.52711e-19
-8.52501e-19
-8.48297e-19
-8.31542e-19
-8.4984e-19
-8.38199e-19
-8.58378e-19
-8.60037e-19
-8.66634e-19
-8.64857e-19
-8.85474e-19
-8.80596e-19
-8.87603e-19
-8.79454e-19
-8.89032e-19
-8.8211e-19
-8.87315e-19
-8.82587e-19
-8.91213e-19
-8.94778e-19
-9.09346e-19
-9.07947e-19
-9.05514e-19
-9.0184e-19
-9.00107e-19
-8.94903e-19
-8.86295e-19
-8.7829e-19
-8.80864e-19
-8.71978e-19
-8.87647e-19
-8.83173e-19
-8.8611e-19
-8.91417e-19
-8.92119e-19
-8.75862e-19
-8.99661e-19
-8.8866e-19
-8.91679e-19
-8.76628e-19
-8.81879e-19
-8.57807e-19
-8.44846e-19
-8.44877e-19
-8.53436e-19
-8.46742e-19
-8.39868e-19
-8.41028e-19
-8.50733e-19
-8.45268e-19
-8.611e-19
-8.50431e-19
-8.43301e-19
-8.40575e-19
-8.47439e-19
-8.45824e-19
-8.61104e-19
-8.54766e-19
-8.70025e-19
-8.6741e-19
-8.84363e-19
-8.76953e-19
-8.8419e-19
-8.83701e-19
-8.86726e-19
-8.84391e-19
-8.86246e-19
-8.82406e-19
-8.91336e-19
-8.98642e-19
-9.0782e-19
-9.08573e-19
-9.07883e-19
-8.9808e-19
-8.96804e-19
-8.93307e-19
-8.88095e-19
-8.74931e-19
-8.75964e-19
-8.74746e-19
-8.88103e-19
-8.8637e-19
-8.83161e-19
-8.82711e-19
-8.882e-19
-8.8046e-19
-8.98991e-19
-8.91623e-19
-8.87689e-19
-8.72569e-19
-8.81663e-19
-8.53728e-19
-8.44737e-19
-8.42163e-19
-8.46895e-19
-8.37617e-19
-8.44614e-19
-8.43061e-19
-8.43665e-19
-8.41967e-19
-8.59819e-19
-8.48029e-19
-8.50207e-19
-8.38212e-19
-8.51089e-19
-8.4548e-19
-8.61457e-19
-8.52976e-19
-8.6959e-19
-8.66955e-19
-8.83078e-19
-8.75054e-19
-8.83736e-19
-8.82512e-19
-8.84498e-19
-8.81974e-19
-8.86306e-19
-8.85351e-19
-8.91468e-19
-8.96729e-19
-9.04244e-19
-9.04573e-19
-9.08497e-19
-8.96106e-19
-8.95345e-19
-8.91751e-19
-8.84271e-19
-8.74355e-19
-8.77132e-19
-8.74919e-19
-8.84809e-19
-8.80468e-19
-8.87188e-19
-8.85539e-19
-8.91669e-19
-8.88938e-19
-8.96094e-19
-8.9111e-19
-8.93672e-19
-8.77224e-19
-8.81991e-19
-8.54115e-19
-8.45066e-19
-8.41438e-19
-8.49834e-19
-8.36554e-19
-8.47648e-19
-8.40681e-19
-8.50896e-19
-8.38612e-19
-8.55005e-19
-8.43546e-19
-8.51265e-19
-8.34711e-19
-8.54101e-19
-8.40868e-19
-8.56775e-19
-8.54526e-19
-8.69286e-19
-8.63955e-19
-8.84066e-19
-8.80061e-19
-8.872e-19
-8.85522e-19
-8.87939e-19
-8.81307e-19
-8.86402e-19
-8.84698e-19
-8.90904e-19
-8.96235e-19
-9.02877e-19
-9.02367e-19
-9.07112e-19
-8.96531e-19
-8.99149e-19
-8.89903e-19
-8.84689e-19
-8.77166e-19
-8.79003e-19
-8.72952e-19
-8.88179e-19
-8.78704e-19
-8.94258e-19
-8.8793e-19
-8.96143e-19
-8.85746e-19
-8.96676e-19
-8.86887e-19
-8.92999e-19
-8.7836e-19
-8.81497e-19
-8.52892e-19
-8.45184e-19
-8.41308e-19
-8.47629e-19
-8.41912e-19
-8.46135e-19
-8.41875e-19
-8.47538e-19
-8.48106e-19
-8.51772e-19
-8.39705e-19
-8.50436e-19
-8.35772e-19
-8.47124e-19
-8.37856e-19
-8.58064e-19
-8.56965e-19
-8.62977e-19
-8.65292e-19
-8.77323e-19
-8.82514e-19
-8.89628e-19
-8.83303e-19
-8.91034e-19
-8.81267e-19
-8.86541e-19
-8.85383e-19
-8.91732e-19
-8.97117e-19
-9.03296e-19
-9.05312e-19
-9.08245e-19
-9.01997e-19
-8.96814e-19
-8.93519e-19
-8.87495e-19
-8.77156e-19
-8.75472e-19
-8.7393e-19
-8.89278e-19
-8.80181e-19
-8.96643e-19
-8.88864e-19
-8.85034e-19
-8.85469e-19
-8.9407e-19
-8.89217e-19
-8.86573e-19
-8.80683e-19
-8.8118e-19
-8.57529e-19
-8.44445e-19
-8.41445e-19
-8.49995e-19
-8.35582e-19
-8.44374e-19
-8.417e-19
-8.46545e-19
-8.47307e-19
-8.51633e-19
-8.45325e-19
-8.51086e-19
-8.35671e-19
-8.50006e-19
-8.39714e-19
-8.60125e-19
-8.55974e-19
-8.59484e-19
-8.62861e-19
-8.76792e-19
-8.83568e-19
-8.86372e-19
-8.82053e-19
-8.91484e-19
-8.79113e-19
-8.86382e-19
-8.81961e-19
-8.9289e-19
-8.92247e-19
-9.03396e-19
-9.05842e-19
-9.06388e-19
-9.03327e-19
-9.01215e-19
-8.9675e-19
-8.88943e-19
-8.75099e-19
-8.75329e-19
-8.72801e-19
-8.88517e-19
-8.7885e-19
-8.90261e-19
-8.85508e-19
-8.82257e-19
-8.85153e-19
-8.92881e-19
-8.90205e-19
-8.91822e-19
-8.75273e-19
-8.81315e-19
-8.6151e-19
-8.43471e-19
-8.42453e-19
-8.46178e-19
-8.34597e-19
-8.46179e-19
-8.39271e-19
-8.45595e-19
-8.46506e-19
-8.49954e-19
-8.50773e-19
-8.51194e-19
-8.36701e-19
-8.47772e-19
-8.39732e-19
-8.57386e-19
-8.55288e-19
-8.65251e-19
-8.62717e-19
-8.77304e-19
-8.83307e-19
-8.84211e-19
-8.81738e-19
-8.8941e-19
-8.80525e-19
-8.8729e-19
-8.81161e-19
-8.90785e-19
-8.94016e-19
-9.03546e-19
-9.07034e-19
-9.08546e-19
-9.01332e-19
-8.993e-19
-8.93049e-19
-8.8483e-19
-8.76596e-19
-8.739e-19
-8.74517e-19
-8.87265e-19
-8.80662e-19
-8.83125e-19
-8.86375e-19
-8.87809e-19
-8.85136e-19
-8.98109e-19
-8.86102e-19
-8.92035e-19
-8.79861e-19
-8.80956e-19
-8.62101e-19
-8.39828e-19
-8.37617e-19
-8.48333e-19
-8.42451e-19
-8.46805e-19
-8.38999e-19
-8.48127e-19
-8.44456e-19
-8.54616e-19
-8.47592e-19
-8.46311e-19
-8.34396e-19
-8.4728e-19
-8.3769e-19
-8.55454e-19
-8.5648e-19
-8.65184e-19
-8.67963e-19
-8.80116e-19
-8.80168e-19
-8.87622e-19
-8.82021e-19
-8.89422e-19
-8.82147e-19
-8.89233e-19
-8.84835e-19
-8.93304e-19
-8.97663e-19
-9.0308e-19
-9.04974e-19
-9.10715e-19
-8.99997e-19
-8.9164e-19
-8.93615e-19
-8.8433e-19
-8.78033e-19
-8.75997e-19
-8.7677e-19
-8.89321e-19
-8.86829e-19
-8.82755e-19
-8.83457e-19
-8.91395e-19
-8.82542e-19
-8.99324e-19
-8.86011e-19
-8.83402e-19
-8.75405e-19
-8.8314e-19
-8.62175e-19
-8.44915e-19
-8.41191e-19
-8.45414e-19
-8.42249e-19
-8.47783e-19
-8.40477e-19
-8.49144e-19
-8.44836e-19
-8.51566e-19
-8.43206e-19
-8.49657e-19
-8.35743e-19
-8.44104e-19
-8.38677e-19
-8.58682e-19
-8.59499e-19
-8.63259e-19
-8.66415e-19
-8.80087e-19
-8.74829e-19
-8.8596e-19
-8.81273e-19
-8.88244e-19
-8.83659e-19
-8.87381e-19
-8.84225e-19
-8.93251e-19
-8.94549e-19
-9.03598e-19
-9.05156e-19
-9.10078e-19
-9.00263e-19
-8.9451e-19
-8.98336e-19
-8.81935e-19
-8.78788e-19
-8.76784e-19
-8.80482e-19
-8.83939e-19
-8.82321e-19
-8.88558e-19
-8.88578e-19
-8.88853e-19
-8.81402e-19
-8.97312e-19
-8.85262e-19
-8.82816e-19
-8.78478e-19
-8.80927e-19
-8.57284e-19
-8.44727e-19
-8.46709e-19
-8.45241e-19
-8.34913e-19
-8.46128e-19
-8.41552e-19
-8.4571e-19
-8.46661e-19
-8.51977e-19
-8.48845e-19
-8.53652e-19
-8.44581e-19
-8.4596e-19
-8.37978e-19
-8.59175e-19
-8.56266e-19
-8.65708e-19
-8.64533e-19
-8.80782e-19
-8.7573e-19
-8.85352e-19
-8.79542e-19
-8.87779e-19
-8.82288e-19
-8.86229e-19
-8.83562e-19
-8.91994e-19
-8.93327e-19
-9.04459e-19
-9.0376e-19
-9.07355e-19
-8.98946e-19
-9.00065e-19
-8.95029e-19
-8.85386e-19
-8.76135e-19
-8.76296e-19
-8.77079e-19
-8.78083e-19
-8.78468e-19
-8.84872e-19
-8.85742e-19
-8.87003e-19
-8.84968e-19
-8.9488e-19
-8.87159e-19
-8.90533e-19
-8.75567e-19
-8.74773e-19
-8.56655e-19
-8.50303e-19
-8.4037e-19
-8.48572e-19
-8.34004e-19
-8.46617e-19
-8.48117e-19
-8.4383e-19
-8.43714e-19
-8.53309e-19
-8.43934e-19
-8.54056e-19
-8.35836e-19
-8.47526e-19
-8.40155e-19
-8.58573e-19
-8.55155e-19
-8.65132e-19
-8.64725e-19
-8.78837e-19
-8.74708e-19
-8.85449e-19
-8.80524e-19
-8.88009e-19
-8.81813e-19
-8.83913e-19
-8.83773e-19
-8.93247e-19
-8.93302e-19
-9.01698e-19
-9.03286e-19
-9.09323e-19
-8.99737e-19
-8.98249e-19
-8.94238e-19
-8.8695e-19
-8.7832e-19
-8.7672e-19
-8.72543e-19
-8.86408e-19
-8.8033e-19
-8.89013e-19
-8.86808e-19
-8.91396e-19
-8.87232e-19
-8.87612e-19
-8.86348e-19
-8.93249e-19
-8.72937e-19
-8.77425e-19
-8.51862e-19
-8.48652e-19
-8.41385e-19
-8.47134e-19
-8.34412e-19
-8.46291e-19
-8.46561e-19
-8.45707e-19
-8.44248e-19
-8.48619e-19
-8.43398e-19
-8.52542e-19
-8.33868e-19
-8.4945e-19
-8.39506e-19
-8.55431e-19
-8.5341e-19
-8.63434e-19
-8.61271e-19
-8.7792e-19
-8.73334e-19
-8.85029e-19
-8.81723e-19
-8.87707e-19
-8.82506e-19
-8.85554e-19
-8.83331e-19
-8.91828e-19
-8.93536e-19
-9.02022e-19
-9.02798e-19
-9.09838e-19
-9.01069e-19
-8.99758e-19
-8.94074e-19
-8.87896e-19
-8.77173e-19
-8.81279e-19
-8.68895e-19
-8.85865e-19
-8.81794e-19
-8.85846e-19
-8.90428e-19
-8.92565e-19
-8.85981e-19
-8.8823e-19
-8.85234e-19
-8.94895e-19
-8.74203e-19
-8.77341e-19
-8.53375e-19
-8.42789e-19
-8.44244e-19
-8.45528e-19
-8.39421e-19
-8.47137e-19
-8.43366e-19
-8.50924e-19
-8.47568e-19
-8.46909e-19
-8.48218e-19
-8.51475e-19
-8.36655e-19
-8.43974e-19
-8.38171e-19
-8.55914e-19
-8.51935e-19
-8.63284e-19
-8.59546e-19
-8.75379e-19
-8.76296e-19
-8.84985e-19
-8.80215e-19
-8.86882e-19
-8.81679e-19
-8.86895e-19
-8.81673e-19
-8.91352e-19
-8.9373e-19
-9.02965e-19
-9.02875e-19
-9.08373e-19
-9.03213e-19
-9.00677e-19
-8.93916e-19
-8.89136e-19
-8.77427e-19
-8.80047e-19
-8.77844e-19
-8.81419e-19
-8.81474e-19
-8.84737e-19
-8.90862e-19
-8.87537e-19
-8.81905e-19
-8.90258e-19
-8.83533e-19
-8.86374e-19
-8.75067e-19
-8.74078e-19
-8.59834e-19
-8.4563e-19
-8.41133e-19
-8.47766e-19
-8.38297e-19
-8.49104e-19
-8.37455e-19
-8.48375e-19
-8.4307e-19
-8.49392e-19
-8.46519e-19
-8.5219e-19
-8.38437e-19
-8.4177e-19
-8.39585e-19
-8.61302e-19
-8.5354e-19
-8.61218e-19
-8.61188e-19
-8.74964e-19
-8.75727e-19
-8.84434e-19
-8.82126e-19
-8.87281e-19
-8.8082e-19
-8.86535e-19
-8.82564e-19
-8.90923e-19
-8.93601e-19
-9.02211e-19
-9.02638e-19
-9.07849e-19
-9.02728e-19
-9.00172e-19
-8.95744e-19
-8.87262e-19
-8.7478e-19
-8.7632e-19
-8.79819e-19
-8.82981e-19
-8.81706e-19
-8.86982e-19
-8.86892e-19
-8.8926e-19
-8.83632e-19
-8.97509e-19
-8.81012e-19
-8.84608e-19
-8.73982e-19
-8.77384e-19
-8.55846e-19
-8.45613e-19
-8.38049e-19
-8.46058e-19
-8.39237e-19
-8.46324e-19
-8.42827e-19
-8.4864e-19
-8.41058e-19
-8.54844e-19
-8.45637e-19
-8.52702e-19
-8.36537e-19
-8.44044e-19
-8.40863e-19
-8.58398e-19
-8.51432e-19
-8.63407e-19
-8.59385e-19
-8.75737e-19
-8.73175e-19
-8.83669e-19
-8.80877e-19
-8.8913e-19
-8.81891e-19
-8.8595e-19
-8.84221e-19
-8.91373e-19
-8.92325e-19
-9.02635e-19
-9.04066e-19
-9.05987e-19
-9.02522e-19
-9.01081e-19
-8.95048e-19
-8.88779e-19
-8.77668e-19
-8.74047e-19
-8.77621e-19
-8.83157e-19
-8.80536e-19
-8.87843e-19
-8.81101e-19
-8.90705e-19
-8.83089e-19
-8.93213e-19
-8.83527e-19
-8.84796e-19
-8.7313e-19
-8.7835e-19
-8.55678e-19
-8.44658e-19
-8.42409e-19
-8.48569e-19
-8.39585e-19
-8.44431e-19
-8.42548e-19
-8.48167e-19
-8.43757e-19
-8.50196e-19
-8.45506e-19
-8.53569e-19
-8.37263e-19
-8.49272e-19
-8.37699e-19
-8.54856e-19
-8.5119e-19
-8.61266e-19
-8.57532e-19
-8.74666e-19
-8.72811e-19
-8.84352e-19
-8.8043e-19
-8.88266e-19
-8.82887e-19
-8.85405e-19
-8.85253e-19
-8.90745e-19
-8.91035e-19
-9.02266e-19
-9.02173e-19
-9.06653e-19
-9.03677e-19
-9.00901e-19
-8.96546e-19
-8.87841e-19
-8.80189e-19
-8.78544e-19
-8.78693e-19
-8.8256e-19
-8.78283e-19
-8.85283e-19
-8.83591e-19
-8.89548e-19
-8.82488e-19
-8.90664e-19
-8.84901e-19
-8.86324e-19
-8.69398e-19
-8.74273e-19
-8.56095e-19
-8.43029e-19
-8.42379e-19
-8.50073e-19
-8.3709e-19
-8.46675e-19
-8.39948e-19
-8.48516e-19
-8.45835e-19
-8.4829e-19
-8.46109e-19
-8.55558e-19
-8.35758e-19
-8.45541e-19
-8.37651e-19
-8.56773e-19
-8.49835e-19
-8.64551e-19
-8.59627e-19
-8.73704e-19
-8.732e-19
-8.84018e-19
-8.79407e-19
-8.88019e-19
-8.84095e-19
-8.86227e-19
-8.87042e-19
-8.90691e-19
-8.93214e-19
-9.01421e-19
-9.01107e-19
-9.06266e-19
-9.03738e-19
-9.01267e-19
-8.93778e-19