/*--------------------------------*- C++ -*----------------------------------*\
  =========                 |
  \\      /  F ield         | OpenFOAM: The Open Source CFD Toolbox
   \\    /   O peration     | Website:  https://openfoam.org
    \\  /    A nd           | Version:  7
     \\/     M anipulation  |
\*---------------------------------------------------------------------------*/
FoamFile
{
    version     2.0;
    format      ascii;
    class       volScalarField;
    location    "264000";
    object      nu;
}
// * * * * * * * * * * * * * * * * * * * * * * * * * * * * * * * * * * * * * //

dimensions      [0 2 -1 0 0 0 0];

internalField   nonuniform List<scalar> 
4783
(
6.70095e-05
7.07569e-05
7.36911e-05
7.78388e-05
8.29927e-05
8.91487e-05
9.64301e-05
0.000105053
0.000115323
0.000127639
0.000142486
0.000160409
0.000181952
0.000207554
0.000237413
0.000271348
0.000308702
0.000348367
0.000388615
0.000427475
0.000463108
0.000494019
5.16355e-05
5.89555e-05
6.15141e-05
6.46108e-05
6.8355e-05
7.27717e-05
7.78964e-05
8.37956e-05
9.05701e-05
9.83551e-05
0.000107317
0.000117642
0.000129521
0.000143109
0.00015849
0.000175616
0.000194267
0.000214016
0.000234224
0.000254063
0.000272614
0.000288956
4.50629e-05
5.19592e-05
5.46233e-05
5.72941e-05
6.01936e-05
6.3442e-05
6.71028e-05
7.12183e-05
7.58283e-05
8.09771e-05
8.67157e-05
9.30992e-05
0.00010018
0.000107997
0.000116557
0.000125817
0.000135667
0.000145908
0.000156256
0.000166342
0.000175738
0.000183986
4.10081e-05
4.65355e-05
4.89371e-05
5.13286e-05
5.378e-05
5.63752e-05
5.91783e-05
6.22316e-05
6.55624e-05
6.91899e-05
7.31282e-05
7.7388e-05
8.19742e-05
8.68827e-05
9.20947e-05
9.7569e-05
0.000103235
0.000108986
0.00011468
0.000120138
0.000125154
0.000129513
3.78787e-05
4.23309e-05
4.43234e-05
4.63735e-05
4.84701e-05
5.06357e-05
5.29029e-05
5.53005e-05
5.78488e-05
6.05592e-05
6.34361e-05
6.64773e-05
6.96746e-05
7.30128e-05
7.64678e-05
8.00045e-05
8.35746e-05
8.7114e-05
9.05432e-05
9.37682e-05
9.66849e-05
9.91855e-05
3.52884e-05
3.89596e-05
4.0599e-05
4.23146e-05
4.40873e-05
4.59121e-05
4.77961e-05
4.97508e-05
5.17866e-05
5.39095e-05
5.61201e-05
5.84137e-05
6.07801e-05
6.32037e-05
6.5663e-05
6.81306e-05
7.05717e-05
7.29449e-05
7.52017e-05
7.72883e-05
7.91472e-05
8.07209e-05
3.30862e-05
3.61689e-05
3.75393e-05
3.89766e-05
4.04697e-05
4.20097e-05
4.3593e-05
4.52199e-05
4.68926e-05
4.86119e-05
5.03759e-05
5.21794e-05
5.40129e-05
5.58632e-05
5.77132e-05
5.95416e-05
6.13236e-05
6.30306e-05
6.46309e-05
6.6091e-05
6.73763e-05
6.84533e-05
3.11823e-05
3.3806e-05
3.4972e-05
3.61904e-05
3.74557e-05
3.87614e-05
4.01016e-05
4.14726e-05
4.28715e-05
4.42959e-05
4.5742e-05
4.72039e-05
4.86736e-05
5.01402e-05
5.15901e-05
5.30072e-05
5.43732e-05
5.56676e-05
5.68689e-05
5.79542e-05
5.89014e-05
5.96891e-05
2.95147e-05
3.17719e-05
3.27789e-05
3.38257e-05
3.49096e-05
3.60259e-05
3.71698e-05
3.83364e-05
3.95214e-05
4.07205e-05
4.19289e-05
4.31408e-05
4.43488e-05
4.55438e-05
4.67152e-05
4.78505e-05
4.89359e-05
4.99564e-05
5.08963e-05
5.17396e-05
5.2471e-05
5.30759e-05
2.80387e-05
2.99982e-05
3.08783e-05
3.17889e-05
3.27279e-05
3.36921e-05
3.46776e-05
3.56799e-05
3.66944e-05
3.77166e-05
3.87413e-05
3.97629e-05
4.07748e-05
4.17692e-05
4.27376e-05
4.36701e-05
4.45559e-05
4.53838e-05
4.6142e-05
4.68188e-05
4.74031e-05
4.78845e-05
2.67208e-05
2.84352e-05
2.9212e-05
3.00125e-05
3.08346e-05
3.16759e-05
3.25331e-05
3.34025e-05
3.42798e-05
3.51606e-05
3.604e-05
3.69128e-05
3.77731e-05
3.86144e-05
3.94294e-05
4.02101e-05
4.09482e-05
4.16347e-05
4.22607e-05
4.28173e-05
4.32961e-05
4.36893e-05
2.55351e-05
2.70455e-05
2.77371e-05
2.8447e-05
2.91735e-05
2.99144e-05
3.0667e-05
3.14279e-05
3.21936e-05
3.296e-05
3.37227e-05
3.44769e-05
3.52174e-05
3.59386e-05
3.66345e-05
3.72984e-05
3.79235e-05
3.85027e-05
3.90291e-05
3.94956e-05
3.98957e-05
4.02237e-05
2.44614e-05
2.58005e-05
2.64206e-05
2.70551e-05
2.77023e-05
2.83603e-05
2.90266e-05
2.96984e-05
3.03725e-05
3.10453e-05
3.17129e-05
3.2371e-05
3.30152e-05
3.36405e-05
3.42417e-05
3.48135e-05
3.53501e-05
3.58459e-05
3.62951e-05
3.66921e-05
3.7032e-05
3.73099e-05
2.34835e-05
2.46773e-05
2.52371e-05
2.58081e-05
2.63888e-05
2.69774e-05
2.75718e-05
2.81696e-05
2.87677e-05
2.93632e-05
2.99524e-05
3.05318e-05
3.10973e-05
3.16448e-05
3.21697e-05
3.26675e-05
3.31334e-05
3.35628e-05
3.39509e-05
3.42932e-05
3.45856e-05
3.48244e-05
2.25883e-05
2.36582e-05
2.41662e-05
2.46832e-05
2.52075e-05
2.57377e-05
2.62716e-05
2.68071e-05
2.73417e-05
2.78726e-05
2.83967e-05
2.89108e-05
2.94114e-05
2.98948e-05
3.03572e-05
3.07946e-05
3.12032e-05
3.15788e-05
3.19177e-05
3.2216e-05
2.1765e-05
2.27282e-05
2.31918e-05
2.36624e-05
2.41386e-05
2.46188e-05
2.51014e-05
2.55842e-05
2.60652e-05
2.65416e-05
2.7011e-05
2.74704e-05
2.79168e-05
2.83469e-05
2.87574e-05
2.91451e-05
2.95064e-05
2.98379e-05
3.01365e-05
2.10046e-05
2.18756e-05
2.23007e-05
2.27311e-05
2.31657e-05
2.36031e-05
2.40416e-05
2.44795e-05
2.49147e-05
2.5345e-05
2.5768e-05
2.61811e-05
2.65818e-05
2.69671e-05
2.73342e-05
2.76802e-05
2.80022e-05
2.02996e-05
2.10905e-05
2.14818e-05
2.18773e-05
2.22758e-05
2.26761e-05
2.30766e-05
2.34758e-05
2.38717e-05
2.42623e-05
2.46457e-05
2.50195e-05
2.53813e-05
2.57286e-05
1.96437e-05
2.03644e-05
2.07261e-05
2.1091e-05
2.1458e-05
2.1826e-05
2.21934e-05
2.2559e-05
2.29209e-05
2.32774e-05
2.36267e-05
2.39666e-05
1.90315e-05
1.96906e-05
2.00261e-05
2.0364e-05
2.07033e-05
2.10429e-05
2.13814e-05
2.17176e-05
2.205e-05
2.23768e-05
1.84584e-05
1.90631e-05
1.93753e-05
1.96893e-05
2.00041e-05
2.03186e-05
2.06318e-05
2.09422e-05
2.12486e-05
1.79204e-05
1.84769e-05
1.87683e-05
1.9061e-05
1.9354e-05
1.96464e-05
1.9937e-05
2.02247e-05
1.7414e-05
1.79276e-05
1.82004e-05
1.8474e-05
1.87476e-05
1.90202e-05
1.92908e-05
1.69362e-05
1.74115e-05
1.76676e-05
1.79241e-05
1.81802e-05
1.84351e-05
1.64845e-05
1.69254e-05
1.71663e-05
1.74074e-05
1.76479e-05
1.78869e-05
1.60564e-05
1.64664e-05
1.66937e-05
1.69208e-05
1.7147e-05
1.565e-05
1.60322e-05
1.62469e-05
1.64613e-05
1.52634e-05
1.56204e-05
1.58237e-05
1.60266e-05
1.4895e-05
1.52291e-05
1.54221e-05
1.45434e-05
1.48568e-05
1.50402e-05
1.42073e-05
1.45018e-05
1.46763e-05
1.38855e-05
1.41627e-05
1.43292e-05
1.35771e-05
1.38384e-05
1.39973e-05
1.3281e-05
1.35277e-05
1.36797e-05
1.29964e-05
1.32298e-05
1.33753e-05
1.27225e-05
1.29436e-05
1.30831e-05
1.24586e-05
1.26683e-05
1.28023e-05
1.22042e-05
1.24034e-05
1.25321e-05
1.19585e-05
1.21479e-05
1.22718e-05
1.17211e-05
1.19015e-05
1.20207e-05
1.14915e-05
1.16635e-05
1.17784e-05
1.12692e-05
1.14333e-05
1.15442e-05
6.70094e-05
5.16354e-05
4.50629e-05
4.10081e-05
3.78787e-05
3.52884e-05
3.30862e-05
3.11823e-05
2.95147e-05
2.80387e-05
2.67208e-05
2.55351e-05
2.44614e-05
2.34835e-05
2.25883e-05
2.1765e-05
2.10046e-05
2.02996e-05
1.96437e-05
1.90315e-05
1.84584e-05
1.79204e-05
1.7414e-05
1.69362e-05
1.64845e-05
1.60564e-05
1.565e-05
1.52634e-05
1.4895e-05
1.45434e-05
1.42073e-05
1.38855e-05
1.35771e-05
1.3281e-05
1.29964e-05
1.27225e-05
1.24586e-05
1.22042e-05
1.19585e-05
1.17211e-05
1.14915e-05
1.12692e-05
7.07569e-05
5.89555e-05
5.19592e-05
4.65355e-05
4.23309e-05
3.89596e-05
3.61689e-05
3.3806e-05
3.17719e-05
2.99982e-05
2.84352e-05
2.70455e-05
2.58004e-05
2.46773e-05
2.36582e-05
2.27282e-05
2.18756e-05
2.10905e-05
2.03644e-05
1.96906e-05
1.90631e-05
1.84769e-05
1.79276e-05
1.74115e-05
1.69254e-05
1.64664e-05
1.60322e-05
1.56204e-05
1.52291e-05
1.48568e-05
1.45018e-05
1.41627e-05
1.38384e-05
1.35277e-05
1.32298e-05
1.29436e-05
1.26683e-05
1.24034e-05
1.2148e-05
1.19015e-05
1.16635e-05
1.14333e-05
7.36911e-05
6.15141e-05
5.46233e-05
4.89371e-05
4.43234e-05
4.05989e-05
3.75393e-05
3.4972e-05
3.27788e-05
3.08783e-05
2.9212e-05
2.77371e-05
2.64206e-05
2.52371e-05
2.41662e-05
2.31918e-05
2.23007e-05
2.14818e-05
2.07261e-05
2.00261e-05
1.93753e-05
1.87683e-05
1.82004e-05
1.76676e-05
1.71663e-05
1.66937e-05
1.62469e-05
1.58237e-05
1.54221e-05
1.50402e-05
1.46763e-05
1.43292e-05
1.39974e-05
1.36798e-05
1.33753e-05
1.30831e-05
1.28023e-05
1.25321e-05
1.22718e-05
1.20207e-05
1.17784e-05
1.15442e-05
7.78388e-05
6.46108e-05
5.72941e-05
5.13286e-05
4.63734e-05
4.23146e-05
3.89766e-05
3.61904e-05
3.38257e-05
3.17889e-05
3.00125e-05
2.8447e-05
2.70551e-05
2.5808e-05
2.46832e-05
2.36624e-05
2.27311e-05
2.18773e-05
2.1091e-05
2.0364e-05
1.96893e-05
1.9061e-05
1.8474e-05
1.79241e-05
1.74074e-05
1.69208e-05
1.64613e-05
1.60266e-05
1.56144e-05
1.52228e-05
1.48501e-05
1.44947e-05
1.41553e-05
1.38307e-05
1.35198e-05
1.32215e-05
1.29351e-05
1.26596e-05
1.23944e-05
1.21388e-05
1.18921e-05
1.16538e-05
8.29926e-05
6.8355e-05
6.01936e-05
5.378e-05
4.84701e-05
4.40873e-05
4.04697e-05
3.74557e-05
3.49096e-05
3.27279e-05
3.08346e-05
2.91735e-05
2.77023e-05
2.63888e-05
2.52075e-05
2.41386e-05
2.31657e-05
2.22758e-05
2.1458e-05
2.07033e-05
2.00041e-05
1.9354e-05
1.87476e-05
1.81802e-05
1.76479e-05
1.7147e-05
1.66747e-05
1.62283e-05
1.58054e-05
1.54041e-05
1.50224e-05
1.46588e-05
1.43118e-05
1.39801e-05
1.36627e-05
1.33584e-05
1.30663e-05
1.27856e-05
1.25154e-05
1.22552e-05
1.20042e-05
1.17619e-05
8.91486e-05
7.27717e-05
6.3442e-05
5.63752e-05
5.06357e-05
4.59121e-05
4.20097e-05
3.87614e-05
3.60259e-05
3.36921e-05
3.16759e-05
2.99144e-05
2.83603e-05
2.69774e-05
2.57377e-05
2.46188e-05
2.36031e-05
2.26761e-05
2.1826e-05
2.10429e-05
2.03186e-05
1.96463e-05
1.90202e-05
1.84351e-05
1.78869e-05
1.73717e-05
1.68864e-05
1.64282e-05
1.59946e-05
1.55834e-05
1.51927e-05
1.48208e-05
1.44662e-05
1.41275e-05
1.38035e-05
1.34932e-05
1.31955e-05
1.29095e-05
1.26345e-05
1.23697e-05
1.21144e-05
1.18681e-05
9.64301e-05
7.78964e-05
6.71027e-05
5.91783e-05
5.29029e-05
4.77961e-05
4.35929e-05
4.01016e-05
3.71698e-05
3.46776e-05
3.25331e-05
3.06669e-05
2.90266e-05
2.75718e-05
2.62716e-05
2.51014e-05
2.40416e-05
2.30766e-05
2.21934e-05
2.13814e-05
2.06318e-05
1.9937e-05
1.92908e-05
1.86879e-05
1.81236e-05
1.7594e-05
1.70957e-05
1.66256e-05
1.61812e-05
1.57602e-05
1.53605e-05
1.49803e-05
1.46181e-05
1.42724e-05
1.39419e-05
1.36255e-05
1.33222e-05
1.30311e-05
1.27512e-05
1.24819e-05
1.22224e-05
1.19721e-05
0.000105053
8.37955e-05
7.12183e-05
6.22315e-05
5.53005e-05
4.97508e-05
4.52199e-05
4.14725e-05
3.83364e-05
3.56798e-05
3.34024e-05
3.14279e-05
2.96984e-05
2.81695e-05
2.68071e-05
2.55842e-05
2.44795e-05
2.34757e-05
2.2559e-05
2.17176e-05
2.09422e-05
2.02247e-05
1.95584e-05
1.89374e-05
1.83571e-05
1.7813e-05
1.73016e-05
1.68197e-05
1.63645e-05
1.59337e-05
1.5525e-05
1.51366e-05
1.47669e-05
1.44142e-05
1.40773e-05
1.37549e-05
1.34461e-05
1.31498e-05
1.28651e-05
1.25913e-05
1.23276e-05
1.20734e-05
0.000115323
9.057e-05
7.58283e-05
6.55624e-05
5.78487e-05
5.17866e-05
4.68926e-05
4.28715e-05
3.95214e-05
3.66944e-05
3.42797e-05
3.21936e-05
3.03725e-05
2.87677e-05
2.73417e-05
2.60651e-05
2.49147e-05
2.38716e-05
2.29209e-05
2.205e-05
2.12486e-05
2.05083e-05
1.98217e-05
1.91828e-05
1.85863e-05
1.80278e-05
1.75034e-05
1.70097e-05
1.65439e-05
1.61033e-05
1.56858e-05
1.52892e-05
1.4912e-05
1.45524e-05
1.42091e-05
1.38809e-05
1.35666e-05
1.32652e-05
1.29759e-05
1.26976e-05
1.24298e-05
1.21718e-05
0.000127639
9.83551e-05
8.0977e-05
6.91898e-05
6.05592e-05
5.39095e-05
4.86119e-05
4.42959e-05
4.07205e-05
3.77166e-05
3.51605e-05
3.296e-05
3.10453e-05
2.93631e-05
2.78726e-05
2.65416e-05
2.53449e-05
2.42623e-05
2.32774e-05
2.23768e-05
2.15495e-05
2.07864e-05
2.00796e-05
1.94228e-05
1.88103e-05
1.82375e-05
1.77002e-05
1.71949e-05
1.67185e-05
1.62683e-05
1.58419e-05
1.54374e-05
1.50528e-05
1.46864e-05
1.43369e-05
1.4003e-05
1.36833e-05
1.3377e-05
1.3083e-05
1.28004e-05
1.25286e-05
1.22668e-05
0.000142486
0.000107317
8.67156e-05
7.31282e-05
6.34361e-05
5.61201e-05
5.03759e-05
4.57419e-05
4.19289e-05
3.87413e-05
3.604e-05
3.37227e-05
3.17128e-05
2.99524e-05
2.83967e-05
2.7011e-05
2.57679e-05
2.46457e-05
2.36266e-05
2.26965e-05
2.18434e-05
2.10576e-05
2.03309e-05
1.96563e-05
1.9028e-05
1.8441e-05
1.7891e-05
1.73742e-05
1.68875e-05
1.64279e-05
1.59929e-05
1.55805e-05
1.51887e-05
1.48158e-05
1.44602e-05
1.41206e-05
1.37957e-05
1.34845e-05
1.3186e-05
1.28993e-05
1.26236e-05
1.23581e-05
0.000160409
0.000117642
9.30992e-05
7.73879e-05
6.64773e-05
5.84136e-05
5.21793e-05
4.72039e-05
4.31407e-05
3.97629e-05
3.69128e-05
3.44769e-05
3.2371e-05
3.05318e-05
2.89108e-05
2.74704e-05
2.61811e-05
2.50195e-05
2.39666e-05
2.30071e-05
2.21286e-05
2.13204e-05
2.0574e-05
1.9882e-05
1.92383e-05
1.86374e-05
1.8075e-05
1.7547e-05
1.70501e-05
1.65813e-05
1.6138e-05
1.5718e-05
1.53192e-05
1.49398e-05
1.45783e-05
1.42332e-05
1.39033e-05
1.35875e-05
1.32846e-05
1.29939e-05
1.27144e-05
1.24453e-05
1.21861e-05
0.000181952
0.000129521
0.00010018
8.19741e-05
6.96746e-05
6.078e-05
5.40128e-05
4.86736e-05
4.43487e-05
4.07747e-05
3.77731e-05
3.52174e-05
3.30151e-05
3.10973e-05
2.94114e-05
2.79167e-05
2.65818e-05
2.53812e-05
2.42951e-05
2.33069e-05
2.24033e-05
2.15733e-05
2.08077e-05
2.00988e-05
1.94399e-05
1.88256e-05
1.82511e-05
1.77123e-05
1.72056e-05
1.67279e-05
1.62765e-05
1.58491e-05
1.54435e-05
1.5058e-05
1.46908e-05
1.43405e-05
1.40057e-05
1.36853e-05
1.33783e-05
1.30837e-05
1.28005e-05
1.25281e-05
1.22657e-05
1.20127e-05
0.000207553
0.000143109
0.000107997
8.68827e-05
7.30127e-05
6.32036e-05
5.58632e-05
5.01402e-05
4.55438e-05
4.17692e-05
3.86144e-05
3.59386e-05
3.36404e-05
3.16447e-05
2.98947e-05
2.83468e-05
2.69671e-05
2.57286e-05
2.461e-05
2.35938e-05
2.2666e-05
2.18148e-05
2.10306e-05
2.03052e-05
1.96318e-05
1.90046e-05
1.84184e-05
1.78691e-05
1.7353e-05
1.68668e-05
1.64077e-05
1.59732e-05
1.55612e-05
1.51697e-05
1.47971e-05
1.44417e-05
1.41023e-05
1.37777e-05
1.34667e-05
1.31684e-05
1.28818e-05
1.26061e-05
1.23408e-05
1.20849e-05
0.000237413
0.000158489
0.000116557
9.20946e-05
7.64677e-05
6.5663e-05
5.77131e-05
5.159e-05
4.67152e-05
4.27376e-05
3.94293e-05
3.66344e-05
3.42417e-05
3.21696e-05
3.03571e-05
2.87574e-05
2.73342e-05
2.6059e-05
2.4909e-05
2.38659e-05
2.29148e-05
2.20433e-05
2.12412e-05
2.05002e-05
1.98128e-05
1.91732e-05
1.8576e-05
1.80167e-05
1.74916e-05
1.69973e-05
1.65308e-05
1.60897e-05
1.56715e-05
1.52745e-05
1.48967e-05
1.45366e-05
1.41928e-05
1.38641e-05
1.35494e-05
1.32475e-05
1.29577e-05
1.2679e-05
1.24108e-05
1.21523e-05
1.19029e-05
0.000271347
0.000175615
0.000125817
9.75689e-05
8.00045e-05
6.81305e-05
5.95416e-05
5.30071e-05
4.78505e-05
4.367e-05
4.02101e-05
3.72983e-05
3.48135e-05
3.26674e-05
3.07946e-05
2.9145e-05
2.76802e-05
2.63698e-05
2.519e-05
2.41212e-05
2.31479e-05
2.22571e-05
2.14382e-05
2.06823e-05
1.99818e-05
1.93304e-05
1.87228e-05
1.81542e-05
1.76207e-05
1.71187e-05
1.66453e-05
1.61979e-05
1.5774e-05
1.53717e-05
1.4989e-05
1.46245e-05
1.42767e-05
1.39442e-05
1.36259e-05
1.33208e-05
1.3028e-05
1.27465e-05
1.24756e-05
1.22146e-05
1.19629e-05
0.000308701
0.000194266
0.000135666
0.000103235
8.35745e-05
7.05716e-05
6.13235e-05
5.43731e-05
4.89359e-05
4.45559e-05
4.09481e-05
3.79234e-05
3.53501e-05
3.31334e-05
3.12031e-05
2.95063e-05
2.80021e-05
2.66586e-05
2.54506e-05
2.43578e-05
2.33637e-05
2.24548e-05
2.16201e-05
2.08503e-05
2.01376e-05
1.94753e-05
1.88579e-05
1.82807e-05
1.77393e-05
1.72303e-05
1.67505e-05
1.62972e-05
1.5868e-05
1.54608e-05
1.50737e-05
1.47051e-05
1.43535e-05
1.40175e-05
1.3696e-05
1.33879e-05
1.30922e-05
1.28081e-05
1.25348e-05
1.22716e-05
1.20177e-05
1.17727e-05
0.000348366
0.000214016
0.000145907
0.000108986
8.71139e-05
7.29448e-05
6.30305e-05
5.56676e-05
4.99563e-05
4.53838e-05
4.16347e-05
3.85027e-05
3.58458e-05
3.35627e-05
3.15788e-05
2.98379e-05
2.82971e-05
2.69229e-05
2.56888e-05
2.45737e-05
2.35604e-05
2.26349e-05
2.17857e-05
2.10031e-05
2.02791e-05
1.96069e-05
1.89806e-05
1.83953e-05
1.78468e-05
1.73313e-05
1.68457e-05
1.63871e-05
1.5953e-05
1.55414e-05
1.51503e-05
1.47779e-05
1.44228e-05
1.40837e-05
1.37592e-05
1.34484e-05
1.31502e-05
1.28637e-05
1.25882e-05
1.23229e-05
1.20671e-05
1.18203e-05
1.15818e-05
0.000388614
0.000234223
0.000156255
0.00011468
9.05431e-05
7.52017e-05
6.46309e-05
5.68688e-05
5.08962e-05
4.61419e-05
4.22606e-05
3.9029e-05
3.6295e-05
3.39508e-05
3.19176e-05
3.01364e-05
2.85623e-05
2.71601e-05
2.59024e-05
2.47671e-05
2.37365e-05
2.2796e-05
2.19336e-05
2.11396e-05
2.04054e-05
1.97242e-05
1.90899e-05
1.84975e-05
1.79425e-05
1.74212e-05
1.69304e-05
1.6467e-05
1.60286e-05
1.5613e-05
1.52182e-05
1.48425e-05
1.44844e-05
1.41424e-05
1.38153e-05
1.3502e-05
1.32016e-05
1.2913e-05
1.26355e-05
1.23684e-05
1.21109e-05
1.18624e-05
1.16224e-05
0.000427473
0.000254062
0.000166342
0.000120138
9.3768e-05
7.72882e-05
6.60909e-05
5.79542e-05
5.17395e-05
4.68188e-05
4.28172e-05
3.94955e-05
3.66921e-05
3.42931e-05
3.2216e-05
3.03989e-05
2.87951e-05
2.73682e-05
2.60895e-05
2.49364e-05
2.38904e-05
2.29367e-05
2.20628e-05
2.12586e-05
2.05156e-05
1.98264e-05
1.91851e-05
1.85864e-05
1.80258e-05
1.74995e-05
1.7004e-05
1.65364e-05
1.60943e-05
1.56752e-05
1.52772e-05
1.48986e-05
1.45378e-05
1.41933e-05
1.3864e-05
1.35486e-05
1.32461e-05
1.29557e-05
1.26765e-05
1.24077e-05
1.21487e-05
1.18989e-05
1.16576e-05
0.000463107
0.000272613
0.000175737
0.000125154
9.66847e-05
7.91471e-05
6.73762e-05
5.89013e-05
5.24709e-05
4.7403e-05
4.3296e-05
3.98957e-05
3.70319e-05
3.45855e-05
3.24704e-05
3.06225e-05
2.89932e-05
2.7545e-05
2.62484e-05
2.508e-05
2.40209e-05
2.30558e-05
2.21721e-05
2.13593e-05
2.06087e-05
1.99128e-05
1.92656e-05
1.86615e-05
1.80961e-05
1.75655e-05
1.70661e-05
1.6595e-05
1.61496e-05
1.57276e-05
1.5327e-05
1.49459e-05
1.45828e-05
1.42362e-05
1.39049e-05
1.35877e-05
1.32836e-05
1.29916e-05
1.2711e-05
1.24409e-05
1.21806e-05
1.19295e-05
1.16871e-05
0.000494017
0.000288955
0.000183986
0.000129512
9.91854e-05
8.07208e-05
6.84532e-05
5.9689e-05
5.30758e-05
4.78844e-05
4.36893e-05
4.02236e-05
3.73098e-05
3.48243e-05
3.26779e-05
3.08046e-05
2.91544e-05
2.76887e-05
2.63774e-05
2.51966e-05
2.41268e-05
2.31525e-05
2.22607e-05
2.14409e-05
2.06841e-05
1.99828e-05
1.93306e-05
1.87223e-05
1.8153e-05
1.76188e-05
1.71163e-05
1.66423e-05
1.61943e-05
1.57699e-05
1.53671e-05
1.4984e-05
1.46191e-05
1.42708e-05
1.39379e-05
1.36193e-05
1.33138e-05
1.30206e-05
1.27388e-05
1.24676e-05
1.22063e-05
1.19542e-05
1.17109e-05
1.14758e-05
0.000518519
0.000302167
0.000190646
0.000133003
0.000101168
8.19557e-05
6.92914e-05
6.02982e-05
5.35417e-05
4.82539e-05
4.39904e-05
4.04742e-05
3.75219e-05
3.50063e-05
3.28359e-05
3.09431e-05
2.92769e-05
2.77979e-05
2.64754e-05
2.5285e-05
2.42071e-05
2.32257e-05
2.23279e-05
2.15027e-05
2.07412e-05
2.00357e-05
1.93799e-05
1.87682e-05
1.8196e-05
1.76591e-05
1.71542e-05
1.66781e-05
1.62281e-05
1.58019e-05
1.53974e-05
1.50128e-05
1.46465e-05
1.42969e-05
1.39629e-05
1.36431e-05
1.33366e-05
1.30424e-05
1.27597e-05
1.24877e-05
1.22256e-05
1.19729e-05
1.17289e-05
1.14931e-05
0.000535381
0.000311448
0.00019533
0.000135444
0.000102544
8.28066e-05
6.98654e-05
6.07136e-05
5.38583e-05
4.85044e-05
4.41943e-05
4.06436e-05
3.76651e-05
3.51291e-05
3.29424e-05
3.10364e-05
2.93593e-05
2.78714e-05
2.65413e-05
2.53445e-05
2.42611e-05
2.3275e-05
2.2373e-05
2.15442e-05
2.07795e-05
2.00712e-05
1.94129e-05
1.8799e-05
1.82248e-05
1.76862e-05
1.71796e-05
1.6702e-05
1.62507e-05
1.58233e-05
1.54177e-05
1.50321e-05
1.46648e-05
1.43144e-05
1.39796e-05
1.36591e-05
1.33519e-05
1.30571e-05
1.27738e-05
1.25012e-05
1.22386e-05
1.19854e-05
1.17409e-05
1.15047e-05
1.12761e-05
0.000543955
0.000316232
0.000197748
0.0001367
0.000103249
8.32407e-05
7.01571e-05
6.09241e-05
5.40184e-05
4.8631e-05
4.42971e-05
4.0729e-05
3.77373e-05
3.51909e-05
3.29959e-05
3.10833e-05
2.94008e-05
2.79083e-05
2.65744e-05
2.53743e-05
2.42882e-05
2.32997e-05
2.23956e-05
2.1565e-05
2.07987e-05
2.00891e-05
1.94295e-05
1.88145e-05
1.82393e-05
1.76998e-05
1.71924e-05
1.67141e-05
1.62621e-05
1.58341e-05
1.54279e-05
1.50418e-05
1.4674e-05
1.43232e-05
1.39879e-05
1.36671e-05
1.33595e-05
1.30644e-05
1.27808e-05
1.25079e-05
1.22451e-05
1.19916e-05
1.17469e-05
1.15105e-05
1.12817e-05
0.000543955
0.000316232
0.000197748
0.0001367
0.000103249
8.32407e-05
7.01571e-05
6.09241e-05
5.40184e-05
4.8631e-05
4.42971e-05
4.0729e-05
3.77373e-05
3.51909e-05
3.29959e-05
3.10833e-05
2.94008e-05
2.79083e-05
2.65744e-05
2.53743e-05
2.42882e-05
2.32997e-05
2.23956e-05
2.1565e-05
2.07987e-05
2.00891e-05
1.94295e-05
1.88145e-05
1.82393e-05
1.76998e-05
1.71924e-05
1.67141e-05
1.62621e-05
1.58341e-05
1.54279e-05
1.50418e-05
1.4674e-05
1.43232e-05
1.39879e-05
1.36671e-05
1.33595e-05
1.30644e-05
1.27808e-05
1.25079e-05
1.22451e-05
1.19916e-05
1.17469e-05
1.15105e-05
1.12817e-05
1.10603e-05
0.000535381
0.000311448
0.00019533
0.000135444
0.000102544
8.28066e-05
6.98654e-05
6.07136e-05
5.38583e-05
4.85044e-05
4.41943e-05
4.06436e-05
3.76651e-05
3.51291e-05
3.29424e-05
3.10364e-05
2.93593e-05
2.78714e-05
2.65413e-05
2.53445e-05
2.42611e-05
2.3275e-05
2.2373e-05
2.15442e-05
2.07795e-05
2.00712e-05
1.94129e-05
1.8799e-05
1.82248e-05
1.76862e-05
1.71796e-05
1.6702e-05
1.62507e-05
1.58233e-05
1.54177e-05
1.50321e-05
1.46648e-05
1.43144e-05
1.39796e-05
1.36591e-05
1.33519e-05
1.30571e-05
1.27738e-05
1.25012e-05
1.22386e-05
1.19854e-05
1.17409e-05
1.15047e-05
1.12761e-05
1.10549e-05
0.000518519
0.000302167
0.000190646
0.000133003
0.000101168
8.19557e-05
6.92914e-05
6.02982e-05
5.35417e-05
4.82539e-05
4.39904e-05
4.04742e-05
3.75219e-05
3.50063e-05
3.28359e-05
3.09431e-05
2.92769e-05
2.77979e-05
2.64754e-05
2.5285e-05
2.42071e-05
2.32257e-05
2.23279e-05
2.15027e-05
2.07412e-05
2.00357e-05
1.93799e-05
1.87682e-05
1.8196e-05
1.76591e-05
1.71542e-05
1.66781e-05
1.62281e-05
1.58019e-05
1.53974e-05
1.50128e-05
1.46465e-05
1.42969e-05
1.39629e-05
1.36431e-05
1.33366e-05
1.30424e-05
1.27597e-05
1.24877e-05
1.22256e-05
1.19729e-05
1.17289e-05
1.14931e-05
1.1265e-05
1.10441e-05
0.000494017
0.000288955
0.000183986
0.000129512
9.91854e-05
8.07208e-05
6.84532e-05
5.9689e-05
5.30758e-05
4.78844e-05
4.36893e-05
4.02236e-05
3.73098e-05
3.48243e-05
3.26779e-05
3.08046e-05
2.91544e-05
2.76887e-05
2.63774e-05
2.51966e-05
2.41268e-05
2.31525e-05
2.22607e-05
2.14409e-05
2.06841e-05
1.99828e-05
1.93306e-05
1.87223e-05
1.8153e-05
1.76188e-05
1.71163e-05
1.66423e-05
1.61943e-05
1.57699e-05
1.53671e-05
1.4984e-05
1.46191e-05
1.42708e-05
1.39379e-05
1.36193e-05
1.33138e-05
1.30206e-05
1.27388e-05
1.24676e-05
1.22063e-05
1.19542e-05
1.17109e-05
1.14758e-05
1.12483e-05
1.1028e-05
0.000463107
0.000272614
0.000175737
0.000125154
9.66848e-05
7.91471e-05
6.73763e-05
5.89013e-05
5.24709e-05
4.7403e-05
4.3296e-05
3.98957e-05
3.70319e-05
3.45855e-05
3.24704e-05
3.06225e-05
2.89932e-05
2.7545e-05
2.62484e-05
2.508e-05
2.40209e-05
2.30558e-05
2.21721e-05
2.13593e-05
2.06087e-05
1.99128e-05
1.92656e-05
1.86615e-05
1.80961e-05
1.75655e-05
1.70661e-05
1.6595e-05
1.61496e-05
1.57276e-05
1.5327e-05
1.49459e-05
1.45828e-05
1.42362e-05
1.39049e-05
1.35877e-05
1.32836e-05
1.29916e-05
1.2711e-05
1.24409e-05
1.21806e-05
1.19295e-05
1.16871e-05
1.14528e-05
1.12261e-05
1.10066e-05
0.000427474
0.000254062
0.000166342
0.000120138
9.37681e-05
7.72882e-05
6.6091e-05
5.79542e-05
5.17396e-05
4.68188e-05
4.28172e-05
3.94955e-05
3.66921e-05
3.42931e-05
3.2216e-05
3.03989e-05
2.87951e-05
2.73682e-05
2.60895e-05
2.49364e-05
2.38904e-05
2.29367e-05
2.20628e-05
2.12586e-05
2.05155e-05
1.98264e-05
1.91851e-05
1.85864e-05
1.80258e-05
1.74995e-05
1.7004e-05
1.65364e-05
1.60943e-05
1.56752e-05
1.52772e-05
1.48986e-05
1.45378e-05
1.41933e-05
1.3864e-05
1.35486e-05
1.32461e-05
1.29557e-05
1.26765e-05
1.24077e-05
1.21487e-05
1.18989e-05
1.16576e-05
1.14243e-05
1.11986e-05
1.098e-05
0.000388614
0.000234223
0.000156256
0.00011468
9.05431e-05
7.52017e-05
6.46309e-05
5.68688e-05
5.08962e-05
4.6142e-05
4.22607e-05
3.9029e-05
3.6295e-05
3.39508e-05
3.19176e-05
3.01364e-05
2.85623e-05
2.71601e-05
2.59024e-05
2.47671e-05
2.37365e-05
2.27959e-05
2.19336e-05
2.11396e-05
2.04054e-05
1.97242e-05
1.90899e-05
1.84975e-05
1.79425e-05
1.74212e-05
1.69303e-05
1.6467e-05
1.60286e-05
1.5613e-05
1.52182e-05
1.48425e-05
1.44844e-05
1.41424e-05
1.38153e-05
1.3502e-05
1.32016e-05
1.2913e-05
1.26355e-05
1.23684e-05
1.21109e-05
1.18624e-05
1.16224e-05
1.13904e-05
1.11659e-05
1.09484e-05
0.000348367
0.000214016
0.000145908
0.000108986
8.7114e-05
7.29449e-05
6.30305e-05
5.56676e-05
4.99564e-05
4.53838e-05
4.16347e-05
3.85027e-05
3.58458e-05
3.35627e-05
3.15788e-05
2.98379e-05
2.82971e-05
2.69229e-05
2.56888e-05
2.45737e-05
2.35604e-05
2.26349e-05
2.17857e-05
2.10031e-05
2.02791e-05
1.96069e-05
1.89806e-05
1.83953e-05
1.78468e-05
1.73313e-05
1.68457e-05
1.63871e-05
1.5953e-05
1.55414e-05
1.51503e-05
1.47779e-05
1.44228e-05
1.40837e-05
1.37592e-05
1.34484e-05
1.31502e-05
1.28637e-05
1.25882e-05
1.23229e-05
1.20671e-05
1.18203e-05
1.15818e-05
1.13512e-05
1.11281e-05
1.09119e-05
0.000308702
0.000194266
0.000135667
0.000103235
8.35746e-05
7.05717e-05
6.13236e-05
5.43731e-05
4.89359e-05
4.45559e-05
4.09482e-05
3.79234e-05
3.53501e-05
3.31334e-05
3.12031e-05
2.95063e-05
2.80021e-05
2.66586e-05
2.54506e-05
2.43578e-05
2.33637e-05
2.24548e-05
2.16201e-05
2.08503e-05
2.01376e-05
1.94753e-05
1.88579e-05
1.82806e-05
1.77393e-05
1.72303e-05
1.67505e-05
1.62972e-05
1.5868e-05
1.54608e-05
1.50737e-05
1.47051e-05
1.43535e-05
1.40175e-05
1.3696e-05
1.33879e-05
1.30922e-05
1.28081e-05
1.25348e-05
1.22716e-05
1.20177e-05
1.17727e-05
1.1536e-05
1.1307e-05
1.10853e-05
1.08706e-05
0.000271348
0.000175616
0.000125817
9.75689e-05
8.00045e-05
6.81306e-05
5.95416e-05
5.30072e-05
4.78505e-05
4.36701e-05
4.02101e-05
3.72983e-05
3.48135e-05
3.26674e-05
3.07946e-05
2.9145e-05
2.76802e-05
2.63698e-05
2.519e-05
2.41212e-05
2.31479e-05
2.22571e-05
2.14382e-05
2.06823e-05
1.99818e-05
1.93304e-05
1.87228e-05
1.81542e-05
1.76206e-05
1.71187e-05
1.66453e-05
1.61979e-05
1.5774e-05
1.53716e-05
1.4989e-05
1.46245e-05
1.42767e-05
1.39442e-05
1.36259e-05
1.33208e-05
1.30279e-05
1.27465e-05
1.24756e-05
1.22146e-05
1.19629e-05
1.17199e-05
1.1485e-05
1.12578e-05
1.10379e-05
1.08247e-05
0.000237413
0.00015849
0.000116557
9.20947e-05
7.64678e-05
6.5663e-05
5.77132e-05
5.15901e-05
4.67152e-05
4.27376e-05
3.94293e-05
3.66344e-05
3.42417e-05
3.21697e-05
3.03571e-05
2.87574e-05
2.73342e-05
2.6059e-05
2.4909e-05
2.38659e-05
2.29147e-05
2.20433e-05
2.12412e-05
2.05002e-05
1.98128e-05
1.91732e-05
1.8576e-05
1.80167e-05
1.74916e-05
1.69973e-05
1.65308e-05
1.60897e-05
1.56715e-05
1.52744e-05
1.48966e-05
1.45366e-05
1.41928e-05
1.38641e-05
1.35494e-05
1.32475e-05
1.29577e-05
1.2679e-05
1.24108e-05
1.21523e-05
1.19029e-05
1.16621e-05
1.14293e-05
1.1204e-05
1.09858e-05
1.07744e-05
0.000207554
0.000143109
0.000107997
8.68828e-05
7.30128e-05
6.32037e-05
5.58632e-05
5.01402e-05
4.55438e-05
4.17692e-05
3.86144e-05
3.59386e-05
3.36404e-05
3.16447e-05
2.98947e-05
2.83469e-05
2.69671e-05
2.57286e-05
2.461e-05
2.35938e-05
2.2666e-05
2.18148e-05
2.10306e-05
2.03052e-05
1.96318e-05
1.90045e-05
1.84184e-05
1.78691e-05
1.7353e-05
1.68668e-05
1.64077e-05
1.59732e-05
1.55612e-05
1.51697e-05
1.47971e-05
1.44417e-05
1.41023e-05
1.37777e-05
1.34667e-05
1.31683e-05
1.28818e-05
1.26061e-05
1.23407e-05
1.20849e-05
1.1838e-05
1.15995e-05
1.13689e-05
1.11457e-05
1.09295e-05
1.07199e-05
0.000181952
0.000129521
0.00010018
8.19742e-05
6.96747e-05
6.07801e-05
5.40129e-05
4.86736e-05
4.43488e-05
4.07747e-05
3.77731e-05
3.52174e-05
3.30151e-05
3.10973e-05
2.94114e-05
2.79167e-05
2.65818e-05
2.53812e-05
2.42951e-05
2.33069e-05
2.24033e-05
2.15733e-05
2.08077e-05
2.00988e-05
1.94399e-05
1.88256e-05
1.82511e-05
1.77123e-05
1.72056e-05
1.67279e-05
1.62765e-05
1.58491e-05
1.54435e-05
1.5058e-05
1.46908e-05
1.43404e-05
1.40057e-05
1.36853e-05
1.33783e-05
1.30837e-05
1.28005e-05
1.25281e-05
1.22657e-05
1.20127e-05
1.17685e-05
1.15325e-05
1.13042e-05
1.10832e-05
1.08691e-05
1.06614e-05
0.000160409
0.000117643
9.30993e-05
7.7388e-05
6.64774e-05
5.84137e-05
5.21794e-05
4.72039e-05
4.31408e-05
3.97629e-05
3.69128e-05
3.44769e-05
3.2371e-05
3.05318e-05
2.89108e-05
2.74704e-05
2.61811e-05
2.50195e-05
2.39666e-05
2.30071e-05
2.21285e-05
2.13204e-05
2.0574e-05
1.9882e-05
1.92383e-05
1.86374e-05
1.8075e-05
1.7547e-05
1.70501e-05
1.65813e-05
1.6138e-05
1.5718e-05
1.53192e-05
1.49398e-05
1.45783e-05
1.42332e-05
1.39033e-05
1.35875e-05
1.32846e-05
1.29939e-05
1.27143e-05
1.24453e-05
1.21861e-05
1.1936e-05
1.16946e-05
1.14612e-05
1.12354e-05
1.10167e-05
1.08048e-05
1.05993e-05
0.000142486
0.000107317
8.67157e-05
7.31283e-05
6.34361e-05
5.61201e-05
5.0376e-05
4.5742e-05
4.19289e-05
3.87413e-05
3.604e-05
3.37227e-05
3.17129e-05
2.99524e-05
2.83967e-05
2.7011e-05
2.57679e-05
2.46457e-05
2.36266e-05
2.26965e-05
2.18434e-05
2.10576e-05
2.03308e-05
1.96563e-05
1.9028e-05
1.8441e-05
1.7891e-05
1.73742e-05
1.68875e-05
1.64278e-05
1.59929e-05
1.55805e-05
1.51887e-05
1.48158e-05
1.44602e-05
1.41206e-05
1.37957e-05
1.34845e-05
1.3186e-05
1.28993e-05
1.26236e-05
1.23581e-05
1.21022e-05
1.18552e-05
1.16167e-05
1.1386e-05
1.11628e-05
1.09466e-05
1.0737e-05
1.05336e-05
0.000127639
9.83552e-05
8.09771e-05
6.91899e-05
6.05593e-05
5.39095e-05
4.86119e-05
4.42959e-05
4.07205e-05
3.77166e-05
3.51606e-05
3.296e-05
3.10453e-05
2.93631e-05
2.78726e-05
2.65416e-05
2.53449e-05
2.42623e-05
2.32774e-05
2.23768e-05
2.15495e-05
2.07864e-05
2.00796e-05
1.94228e-05
1.88103e-05
1.82375e-05
1.77002e-05
1.71948e-05
1.67184e-05
1.62683e-05
1.58419e-05
1.54374e-05
1.50528e-05
1.46864e-05
1.43369e-05
1.4003e-05
1.36833e-05
1.3377e-05
1.3083e-05
1.28004e-05
1.25286e-05
1.22668e-05
1.20143e-05
1.17705e-05
1.1535e-05
1.13072e-05
1.10867e-05
1.0873e-05
1.06657e-05
1.04646e-05
0.000115324
9.05701e-05
7.58283e-05
6.55624e-05
5.78488e-05
5.17866e-05
4.68926e-05
4.28715e-05
3.95214e-05
3.66944e-05
3.42798e-05
3.21936e-05
3.03725e-05
2.87677e-05
2.73417e-05
2.60651e-05
2.49147e-05
2.38716e-05
2.29209e-05
2.205e-05
2.12486e-05
2.05083e-05
1.98217e-05
1.91828e-05
1.85863e-05
1.80278e-05
1.75034e-05
1.70097e-05
1.65439e-05
1.61033e-05
1.56857e-05
1.52892e-05
1.4912e-05
1.45524e-05
1.42091e-05
1.38809e-05
1.35666e-05
1.32652e-05
1.29759e-05
1.26976e-05
1.24298e-05
1.21718e-05
1.19228e-05
1.16824e-05
1.14499e-05
1.12251e-05
1.10073e-05
1.07962e-05
1.05915e-05
1.03927e-05
0.000105053
8.37956e-05
7.12184e-05
6.22316e-05
5.53005e-05
4.97509e-05
4.52199e-05
4.14726e-05
3.83364e-05
3.56799e-05
3.34024e-05
3.14279e-05