/*--------------------------------*- C++ -*----------------------------------*\
  =========                 |
  \\      /  F ield         | OpenFOAM: The Open Source CFD Toolbox
   \\    /   O peration     | Website:  https://openfoam.org
    \\  /    A nd           | Version:  7
     \\/     M anipulation  |
\*---------------------------------------------------------------------------*/
FoamFile
{
    version     2.0;
    format      ascii;
    class       volScalarField;
    location    "52000";
    object      k;
}
// * * * * * * * * * * * * * * * * * * * * * * * * * * * * * * * * * * * * * //

dimensions      [0 2 -2 0 0 0 0];

internalField   nonuniform List<scalar> 
1748
(
5.92773e-07
5.85867e-07
5.79596e-07
5.73917e-07
5.68826e-07
5.64307e-07
5.60337e-07
5.56894e-07
5.53952e-07
5.51489e-07
5.49479e-07
5.47902e-07
5.46737e-07
5.45969e-07
5.45588e-07
5.45588e-07
5.45969e-07
5.46737e-07
5.47902e-07
6.0475e-07
5.97813e-07
5.91314e-07
5.85299e-07
5.79822e-07
5.74903e-07
5.70539e-07
5.6672e-07
5.63432e-07
5.60657e-07
5.58379e-07
5.56579e-07
5.55244e-07
5.54361e-07
5.53921e-07
5.53921e-07
5.54361e-07
5.55244e-07
5.56579e-07
6.18132e-07
6.1078e-07
6.03975e-07
5.97649e-07
5.91839e-07
5.86571e-07
5.81857e-07
5.77701e-07
5.74097e-07
5.71037e-07
5.6851e-07
5.66505e-07
5.65012e-07
5.64022e-07
5.63528e-07
5.63528e-07
5.64022e-07
5.65012e-07
5.66505e-07
6.32441e-07
6.2468e-07
6.1752e-07
6.10872e-07
6.0475e-07
5.99171e-07
5.94151e-07
5.89699e-07
5.85817e-07
5.82505e-07
5.79759e-07
5.77571e-07
5.75937e-07
5.74852e-07
5.7431e-07
5.7431e-07
5.74852e-07
5.75937e-07
5.77571e-07
6.4749e-07
6.3938e-07
6.31881e-07
6.24918e-07
6.18498e-07
6.12633e-07
6.07338e-07
6.02623e-07
5.98497e-07
5.94963e-07
5.92023e-07
5.89674e-07
5.87916e-07
5.86746e-07
5.86161e-07
5.86161e-07
5.86746e-07
5.87916e-07
5.89674e-07
6.63148e-07
6.54747e-07
6.46951e-07
6.39701e-07
6.33007e-07
6.2688e-07
6.21336e-07
6.16387e-07
6.12044e-07
6.08314e-07
6.05202e-07
6.02712e-07
6.00845e-07
5.996e-07
5.98977e-07
5.98977e-07
5.996e-07
6.00845e-07
6.02712e-07
6.79309e-07
6.7067e-07
6.62622e-07
6.55122e-07
6.48183e-07
6.41823e-07
6.36056e-07
6.30899e-07
6.26363e-07
6.2246e-07
6.19199e-07
6.16584e-07
6.1462e-07
6.1331e-07
6.12654e-07
6.12654e-07
6.1331e-07
6.1462e-07
6.16584e-07
6.95881e-07
6.8705e-07
6.78795e-07
6.71082e-07
6.63933e-07
6.57369e-07
6.51407e-07
6.46067e-07
6.41363e-07
6.37308e-07
6.33915e-07
6.31191e-07
6.29143e-07
6.27776e-07
6.27091e-07
6.27091e-07
6.27776e-07
6.29143e-07
6.31191e-07
7.12785e-07
7.03802e-07
6.9538e-07
6.87492e-07
6.80167e-07
6.73429e-07
6.673e-07
6.61801e-07
6.56951e-07
6.52765e-07
6.49258e-07
6.4644e-07
6.44319e-07
6.42902e-07
6.42192e-07
6.42192e-07
6.42902e-07
6.44319e-07
6.4644e-07
7.29948e-07
7.20851e-07
7.12297e-07
7.0427e-07
6.96801e-07
6.89918e-07
6.83649e-07
6.78016e-07
6.73042e-07
6.68744e-07
6.65139e-07
6.6224e-07
6.60057e-07
6.58597e-07
6.57866e-07
6.57866e-07
6.58597e-07
6.60057e-07
6.6224e-07
7.47307e-07
7.38128e-07
7.29477e-07
7.21341e-07
7.13758e-07
7.0676e-07
7.00375e-07
6.94632e-07
6.89554e-07
6.85163e-07
6.81476e-07
6.78508e-07
6.76272e-07
6.74777e-07
6.74027e-07
6.74027e-07
6.74777e-07
6.76272e-07
6.78508e-07
7.64804e-07
7.55573e-07
7.46853e-07
7.38639e-07
7.3097e-07
7.23881e-07
7.17406e-07
7.11574e-07
7.06412e-07
7.01944e-07
6.98189e-07
6.95165e-07
6.92885e-07
6.9136e-07
6.90596e-07
6.90596e-07
6.9136e-07
6.92885e-07
6.95165e-07
7.82386e-07
7.73131e-07
7.6437e-07
7.56103e-07
7.48373e-07
7.41218e-07
7.34674e-07
7.28774e-07
7.23546e-07
7.19017e-07
7.15208e-07
7.12139e-07
7.09823e-07
7.08274e-07
7.07497e-07
7.07497e-07
7.08274e-07
7.09823e-07
7.12139e-07
8.00008e-07
7.90751e-07
7.81973e-07
7.73678e-07
7.6591e-07
7.58711e-07
7.52119e-07
7.46169e-07
7.40892e-07
7.36316e-07
7.32466e-07
7.29362e-07
7.27019e-07
7.2545e-07
7.24664e-07
7.24664e-07
7.2545e-07
7.27019e-07
7.29362e-07
8.17625e-07
8.0839e-07
7.99616e-07
7.91314e-07
7.83529e-07
7.76306e-07
7.69684e-07
7.63702e-07
7.58392e-07
7.53784e-07
7.49904e-07
7.46773e-07
5.92773e-07
5.85867e-07
5.79596e-07
5.73917e-07
5.68826e-07
5.64307e-07
5.60337e-07
5.56894e-07
5.53952e-07
5.51489e-07
5.49479e-07
5.47901e-07
5.46737e-07
5.45969e-07
5.45588e-07
5.45588e-07
5.45969e-07
5.46737e-07
5.47902e-07
5.49479e-07
5.51489e-07
5.53952e-07
5.56894e-07
5.60337e-07
5.64307e-07
5.68826e-07
5.73917e-07
5.79596e-07
5.85867e-07
5.92773e-07
6.0475e-07
5.97813e-07
5.91314e-07
5.85298e-07
5.79822e-07
5.74903e-07
5.70539e-07
5.6672e-07
5.63432e-07
5.60657e-07
5.58379e-07
5.56579e-07
5.55244e-07
5.54361e-07
5.53921e-07
5.53921e-07
5.54361e-07
5.55244e-07
5.56579e-07
5.58379e-07
5.60657e-07
5.63432e-07
5.6672e-07
5.70539e-07
5.74903e-07
5.79822e-07
5.85299e-07
5.91314e-07
5.97813e-07
6.0475e-07
6.18131e-07
6.1078e-07
6.03975e-07
5.97649e-07
5.91839e-07
5.86571e-07
5.81857e-07
5.77701e-07
5.74097e-07
5.71037e-07
5.6851e-07
5.66505e-07
5.65012e-07
5.64022e-07
5.63528e-07
5.63528e-07
5.64022e-07
5.65012e-07
5.66505e-07
5.6851e-07
5.71037e-07
5.74097e-07
5.77701e-07
5.81857e-07
5.86571e-07
5.91839e-07
5.97649e-07
6.03975e-07
6.1078e-07
6.18132e-07
6.32441e-07
6.2468e-07
6.1752e-07
6.10872e-07
6.0475e-07
5.99171e-07
5.94151e-07
5.89698e-07
5.85817e-07
5.82505e-07
5.79758e-07
5.77571e-07
5.75937e-07
5.74852e-07
5.7431e-07
5.7431e-07
5.74852e-07
5.75937e-07
5.77571e-07
5.79759e-07
5.82505e-07
5.85817e-07
5.89698e-07
5.94151e-07
5.99171e-07
6.0475e-07
6.10872e-07
6.1752e-07
6.2468e-07
6.32441e-07
6.4749e-07
6.39379e-07
6.3188e-07
6.24918e-07
6.18498e-07
6.12633e-07
6.07338e-07
6.02623e-07
5.98497e-07
5.94963e-07
5.92023e-07
5.89674e-07
5.87916e-07
5.86746e-07
5.86161e-07
5.86161e-07
5.86746e-07
5.87916e-07
5.89674e-07
5.92023e-07
5.94963e-07
5.98497e-07
6.02623e-07
6.07338e-07
6.12633e-07
6.18498e-07
6.24918e-07
6.31881e-07
6.3938e-07
6.4749e-07
6.63148e-07
6.54747e-07
6.46951e-07
6.39701e-07
6.33006e-07
6.2688e-07
6.21336e-07
6.16387e-07
6.12043e-07
6.08314e-07
6.05202e-07
6.02712e-07
6.00845e-07
5.996e-07
5.98977e-07
5.98977e-07
5.996e-07
6.00845e-07
6.02712e-07
6.05202e-07
6.08314e-07
6.12044e-07
6.16387e-07
6.21336e-07
6.2688e-07
6.33007e-07
6.39701e-07
6.46951e-07
6.54747e-07
6.63148e-07
6.79309e-07
6.70669e-07
6.62622e-07
6.55121e-07
6.48183e-07
6.41823e-07
6.36056e-07
6.30899e-07
6.26363e-07
6.2246e-07
6.19199e-07
6.16584e-07
6.1462e-07
6.1331e-07
6.12654e-07
6.12654e-07
6.1331e-07
6.1462e-07
6.16584e-07
6.19199e-07
6.2246e-07
6.26363e-07
6.30899e-07
6.36056e-07
6.41823e-07
6.48183e-07
6.55122e-07
6.62622e-07
6.7067e-07
6.79309e-07
6.95881e-07
6.87049e-07
6.78795e-07
6.71082e-07
6.63933e-07
6.57369e-07
6.51407e-07
6.46067e-07
6.41362e-07
6.37308e-07
6.33915e-07
6.31191e-07
6.29143e-07
6.27776e-07
6.27091e-07
6.27091e-07
6.27776e-07
6.29143e-07
6.31191e-07
6.33915e-07
6.37308e-07
6.41363e-07
6.46067e-07
6.51407e-07
6.57369e-07
6.63933e-07
6.71082e-07
6.78795e-07
6.8705e-07
6.95881e-07
7.12784e-07
7.03802e-07
6.9538e-07
6.87492e-07
6.80167e-07
6.73429e-07
6.673e-07
6.61801e-07
6.56951e-07
6.52765e-07
6.49258e-07
6.4644e-07
6.44319e-07
6.42902e-07
6.42192e-07
6.42192e-07
6.42902e-07
6.44319e-07
6.4644e-07
6.49258e-07
6.52765e-07
6.56951e-07
6.61801e-07
6.673e-07
6.73429e-07
6.80167e-07
6.87492e-07
6.9538e-07
7.03802e-07
7.12785e-07
7.29948e-07
7.2085e-07
7.12297e-07
7.0427e-07
6.96801e-07
6.89918e-07
6.83649e-07
6.78016e-07
6.73042e-07
6.68744e-07
6.65139e-07
6.6224e-07
6.60057e-07
6.58597e-07
6.57866e-07
6.57866e-07
6.58597e-07
6.60057e-07
6.6224e-07
6.65139e-07
6.68744e-07
6.73042e-07
6.78016e-07
6.83649e-07
6.89918e-07
6.96801e-07
7.0427e-07
7.12297e-07
7.20851e-07
7.29948e-07
7.47307e-07
7.38128e-07
7.29477e-07
7.21341e-07
7.13758e-07
7.06759e-07
7.00375e-07
6.94632e-07
6.89554e-07
6.85163e-07
6.81476e-07
6.78508e-07
6.76272e-07
6.74776e-07
6.74027e-07
6.74027e-07
6.74776e-07
6.76272e-07
6.78508e-07
6.81476e-07
6.85163e-07
6.89554e-07
6.94632e-07
7.00375e-07
7.0676e-07
7.13758e-07
7.21341e-07
7.29477e-07
7.38128e-07
7.47307e-07
7.64804e-07
7.55573e-07
7.46853e-07
7.38639e-07
7.3097e-07
7.23881e-07
7.17406e-07
7.11574e-07
7.06412e-07
7.01944e-07
6.98189e-07
6.95165e-07
6.92885e-07
6.9136e-07
6.90595e-07
6.90595e-07
6.9136e-07
6.92885e-07
6.95165e-07
6.98189e-07
7.01944e-07
7.06412e-07
7.11574e-07
7.17406e-07
7.23881e-07
7.3097e-07
7.38639e-07
7.46853e-07
7.55573e-07
7.64804e-07
7.82386e-07
7.73131e-07
7.6437e-07
7.56103e-07
7.48373e-07
7.41218e-07
7.34674e-07
7.28773e-07
7.23546e-07
7.19016e-07
7.15208e-07
7.12139e-07
7.09823e-07
7.08274e-07
7.07497e-07
7.07497e-07
7.08274e-07
7.09823e-07
7.12139e-07
7.15208e-07
7.19017e-07
7.23546e-07
7.28774e-07
7.34674e-07
7.41218e-07
7.48373e-07
7.56103e-07
7.6437e-07
7.73131e-07
7.82386e-07
8.00007e-07
7.90751e-07
7.81973e-07
7.73678e-07
7.6591e-07
7.58711e-07
7.52119e-07
7.46168e-07
7.40892e-07
7.36316e-07
7.32466e-07
7.29362e-07
7.27019e-07
7.2545e-07
7.24664e-07
7.24664e-07
7.2545e-07
7.27019e-07
7.29362e-07
7.32466e-07
7.36316e-07
7.40892e-07
7.46169e-07
7.52119e-07
7.58711e-07
7.6591e-07
7.73678e-07
7.81973e-07
7.90751e-07
8.00008e-07
8.17625e-07
8.08389e-07
7.99616e-07
7.91314e-07
7.83529e-07
7.76306e-07
7.69684e-07
7.63702e-07
7.58392e-07
7.53784e-07
7.49904e-07
7.46773e-07
7.4441e-07
7.42827e-07
7.42034e-07
7.42034e-07
7.42827e-07
7.4441e-07
7.46773e-07
7.49904e-07
7.53784e-07
7.58392e-07
7.63702e-07
7.69684e-07
7.76306e-07
7.83529e-07
7.91314e-07
7.99616e-07
8.0839e-07
8.17625e-07
8.35201e-07
8.26005e-07
8.17256e-07
8.08967e-07
8.01185e-07
7.93955e-07
7.87321e-07
7.81322e-07
7.75992e-07
7.71364e-07
7.67465e-07
7.64317e-07
7.6194e-07
7.60348e-07
7.59549e-07
7.59549e-07
7.60348e-07
7.6194e-07
7.64317e-07
7.67465e-07
7.71364e-07
7.75992e-07
7.81322e-07
8.527e-07
8.43563e-07
8.34856e-07
8.26596e-07
8.18833e-07
8.11614e-07
8.04983e-07
7.98981e-07
7.93645e-07
7.89008e-07
7.85099e-07
7.81943e-07
7.79558e-07
7.7796e-07
7.77158e-07
7.77158e-07
8.70092e-07
8.61028e-07
8.52379e-07
8.44165e-07
8.36437e-07
8.29243e-07
8.22629e-07
8.16637e-07
8.11306e-07
8.06671e-07
8.02761e-07
7.99603e-07
8.87349e-07
8.78372e-07
8.69796e-07
8.61642e-07
8.53962e-07
8.46806e-07
9.04445e-07
8.95568e-07
8.87077e-07
8.78995e-07
8.71377e-07
8.64271e-07
9.21359e-07
9.12592e-07
9.04197e-07
8.962e-07
8.88653e-07
8.81608e-07
5.92773e-07
6.0475e-07
6.18131e-07
6.32441e-07
6.4749e-07
6.63148e-07
6.79309e-07
6.95881e-07
7.12784e-07
7.29948e-07
7.47307e-07
7.64804e-07
7.82386e-07
8.00007e-07
8.17625e-07
8.35201e-07
8.527e-07
8.70092e-07
8.87349e-07
9.04445e-07
9.21359e-07
5.85867e-07
5.97813e-07
6.1078e-07
6.2468e-07
6.3938e-07
6.54747e-07
6.70669e-07
6.87049e-07
7.03802e-07
7.2085e-07
7.38128e-07
7.55573e-07
7.73131e-07
7.90751e-07
8.08389e-07
8.26005e-07
8.43562e-07
8.61028e-07
8.78372e-07
8.95568e-07
9.12592e-07
5.79596e-07
5.91314e-07
6.03975e-07
6.1752e-07
6.3188e-07
6.46951e-07
6.62622e-07
6.78795e-07
6.9538e-07
7.12297e-07
7.29477e-07
7.46853e-07
7.6437e-07
7.81973e-07
7.99616e-07
8.17256e-07
8.34856e-07
8.52379e-07
8.69795e-07
8.87077e-07
9.04197e-07
5.73917e-07
5.85298e-07
5.97649e-07
6.10872e-07
6.24918e-07
6.39701e-07
6.55121e-07
6.71082e-07
6.87492e-07
7.0427e-07
7.21341e-07
7.38639e-07
7.56103e-07
7.73678e-07
7.91314e-07
8.08967e-07
8.26596e-07
8.44165e-07
8.61642e-07
8.78995e-07
8.962e-07
9.13231e-07
5.68826e-07
5.79822e-07
5.91839e-07
6.0475e-07
6.18498e-07
6.33006e-07
6.48183e-07
6.63933e-07
6.80167e-07
6.96801e-07
7.13758e-07
7.3097e-07
7.48373e-07
7.6591e-07
7.83529e-07
8.01185e-07
8.18833e-07
8.36437e-07
8.53962e-07
8.71377e-07
8.88653e-07
9.05766e-07
9.22694e-07
9.39415e-07
5.64307e-07
5.74903e-07
5.86571e-07
5.99171e-07
6.12633e-07
6.2688e-07
6.41823e-07
6.57369e-07
6.73429e-07
6.89918e-07
7.06759e-07
7.23881e-07
7.41218e-07
7.58711e-07
7.76306e-07
7.93955e-07
8.11614e-07
8.29243e-07
8.46806e-07
8.64271e-07
8.81608e-07
8.98792e-07
9.15799e-07
9.32607e-07
5.60337e-07
5.70539e-07
5.81857e-07
5.94151e-07
6.07338e-07
6.21336e-07
6.36056e-07
6.51407e-07
6.673e-07
6.83649e-07
7.00375e-07
7.17406e-07
7.34674e-07
7.52119e-07
7.69684e-07
7.87321e-07
8.04983e-07
8.22629e-07
8.40221e-07
8.57727e-07
8.75115e-07
8.92359e-07
9.09434e-07
9.26317e-07
5.56894e-07
5.6672e-07
5.77701e-07
5.89698e-07
6.02623e-07
6.16387e-07
6.30899e-07
6.46067e-07
6.61801e-07
6.78016e-07
6.94632e-07
7.11574e-07
7.28774e-07
7.46168e-07
7.63702e-07
7.81322e-07
7.98981e-07
8.16637e-07
8.34252e-07
8.5179e-07
8.6922e-07
8.86514e-07
9.03647e-07
9.20595e-07
5.53952e-07
5.63432e-07
5.74097e-07
5.85817e-07
5.98497e-07
6.12044e-07
6.26363e-07
6.41362e-07
6.56951e-07
6.73042e-07
6.89554e-07
7.06412e-07
7.23546e-07
7.40892e-07
7.58392e-07
7.75992e-07
7.93645e-07
8.11306e-07
8.28937e-07
8.465e-07
8.63965e-07
8.81301e-07
8.98483e-07
9.15486e-07
5.51489e-07
5.60657e-07
5.71037e-07
5.82505e-07
5.94963e-07
6.08314e-07
6.2246e-07
6.37308e-07
6.52765e-07
6.68744e-07
6.85163e-07
7.01944e-07
7.19017e-07
7.36316e-07
7.53784e-07
7.71364e-07
7.89008e-07
8.06671e-07
8.24313e-07
8.41896e-07
8.59387e-07
8.76758e-07
8.9398e-07
9.1103e-07
5.49479e-07
5.58379e-07
5.6851e-07
5.79758e-07
5.92023e-07
6.05202e-07
6.19199e-07
6.33915e-07
6.49258e-07
6.65139e-07
6.81476e-07
6.98189e-07
7.15208e-07
7.32466e-07
7.49904e-07
7.67465e-07
7.85099e-07
8.02762e-07
8.2041e-07
8.38008e-07
8.55521e-07
8.72919e-07
8.90174e-07
9.07261e-07
5.47901e-07
5.56579e-07
5.66505e-07
5.77571e-07
5.89674e-07
6.02712e-07
6.16584e-07
6.31191e-07
6.4644e-07
6.6224e-07
6.78508e-07
6.95165e-07
7.12139e-07
7.29362e-07
7.46773e-07
7.64317e-07
7.81943e-07
7.99603e-07
8.17257e-07
8.34865e-07
8.52394e-07
8.69813e-07
8.87093e-07
9.04209e-07
5.46737e-07
5.55244e-07
5.65012e-07
5.75937e-07
5.87916e-07
6.00845e-07
6.1462e-07
6.29143e-07
6.44319e-07
6.60057e-07
6.76272e-07
6.92885e-07
7.09823e-07
7.27019e-07
7.4441e-07
7.6194e-07
7.79558e-07
7.97216e-07
8.14872e-07
8.32488e-07
8.50029e-07
8.67462e-07
8.84761e-07
9.019e-07
5.45969e-07
5.54361e-07
5.64022e-07
5.74852e-07
5.86746e-07
5.996e-07
6.1331e-07
6.27776e-07
6.42902e-07
6.58597e-07
6.74777e-07
6.9136e-07
7.08274e-07
7.2545e-07
7.42827e-07
7.60348e-07
7.7796e-07
7.95616e-07
8.13274e-07
8.30894e-07
8.48442e-07
8.65886e-07
8.83197e-07
9.0035e-07
5.45588e-07
5.53921e-07
5.63528e-07
5.7431e-07
5.86161e-07
5.98977e-07
6.12654e-07
6.27091e-07
6.42192e-07
6.57866e-07
6.74027e-07
6.90596e-07
7.07497e-07
7.24664e-07
7.42034e-07
7.59549e-07
7.77158e-07
7.94813e-07
8.12472e-07
8.30094e-07
8.47646e-07
8.65095e-07
8.82412e-07
8.99572e-07
5.45588e-07
5.53921e-07
5.63528e-07
5.7431e-07
5.86161e-07
5.98977e-07
6.12654e-07
6.27091e-07
6.42192e-07
6.57866e-07
6.74027e-07
6.90595e-07
7.07497e-07
7.24664e-07
7.42034e-07
7.59549e-07
7.77158e-07
7.94813e-07
5.45969e-07
5.54361e-07
5.64022e-07
5.74852e-07
5.86746e-07
5.996e-07
6.1331e-07
6.27776e-07
5.46737e-07
5.55244e-07
5.65012e-07
5.47901e-07
5.56579e-07
5.66505e-07
5.83414e-07
5.76503e-07
5.70504e-07
5.65165e-07
5.6043e-07
5.56265e-07
5.52643e-07
5.49532e-07
5.46902e-07
5.44722e-07
5.42962e-07
5.41593e-07
5.4059e-07
5.39933e-07
5.39609e-07
5.39609e-07
5.39933e-07
5.4059e-07
5.41593e-07
5.76503e-07
5.69982e-07
5.64247e-07
5.59143e-07
5.54639e-07
5.50704e-07
5.47308e-07
5.44417e-07
5.41995e-07
5.40007e-07
5.38417e-07
5.37191e-07
5.36299e-07
5.35719e-07
5.35433e-07
5.35433e-07
5.35719e-07
5.36299e-07
5.37191e-07
5.70504e-07
5.64247e-07
5.58755e-07
5.53887e-07
5.49616e-07
5.45914e-07
5.42748e-07
5.4008e-07
5.37872e-07
5.36081e-07
5.34666e-07
5.33587e-07
5.32811e-07
5.32311e-07
5.32066e-07
5.32066e-07
5.32311e-07
5.32811e-07
5.33587e-07
5.65165e-07
5.59143e-07
5.53887e-07
5.49259e-07
5.45232e-07
5.41777e-07
5.38857e-07
5.36431e-07
5.34455e-07
5.32881e-07
5.31661e-07
5.3075e-07
5.30108e-07
5.29701e-07
5.29504e-07
5.29504e-07
5.29701e-07
5.30108e-07
5.3075e-07
5.6043e-07
5.54639e-07
5.49616e-07
5.45232e-07
5.41457e-07
5.3826e-07
5.35602e-07
5.33436e-07
5.31713e-07
5.30378e-07
5.29377e-07
5.28656e-07
5.28167e-07
5.27867e-07
5.27725e-07
5.27725e-07
5.27867e-07
5.28167e-07
5.28656e-07
5.56265e-07
5.50704e-07
5.45914e-07
5.41777e-07
5.3826e-07
5.35331e-07
5.32947e-07
5.31057e-07
5.29607e-07
5.28532e-07
5.2777e-07
5.27255e-07
5.26928e-07
5.26738e-07
5.26652e-07
5.26652e-07
5.26738e-07
5.26928e-07
5.27255e-07
5.52643e-07
5.47308e-07
5.42748e-07
5.38857e-07
5.35602e-07
5.32947e-07
5.30847e-07
5.29248e-07
5.28083e-07
5.2728e-07
5.26758e-07
5.26437e-07
5.2625e-07
5.26149e-07
5.26103e-07
5.26103e-07
5.26149e-07
5.2625e-07
5.26437e-07
5.49532e-07
5.44417e-07
5.4008e-07
5.36431e-07
5.33436e-07
5.31057e-07
5.29248e-07
5.27944e-07
5.27066e-07
5.26519e-07
5.262e-07
5.26021e-07
5.25922e-07
5.25867e-07
5.25841e-07
5.25841e-07
5.25867e-07
5.25922e-07
5.26021e-07
5.46902e-07
5.41995e-07
5.37872e-07
5.34455e-07
5.31713e-07
5.29607e-07
5.28083e-07
5.27066e-07
5.26448e-07
5.26104e-07
5.2592e-07
5.25815e-07
5.25748e-07
5.25704e-07
5.25683e-07
5.25683e-07
5.25704e-07
5.25747e-07
5.25815e-07
5.44722e-07
5.40007e-07
5.36081e-07
5.32881e-07
5.30378e-07
5.28532e-07
5.2728e-07
5.26519e-07
5.26104e-07
5.2589e-07
5.2577e-07
5.25686e-07
5.25623e-07
5.25581e-07
5.2556e-07
5.2556e-07
5.25581e-07
5.25623e-07
5.25686e-07
5.42962e-07
5.38417e-07
5.34666e-07
5.31661e-07
5.29377e-07
5.2777e-07
5.26758e-07
5.262e-07
5.2592e-07
5.2577e-07
5.25665e-07
5.25582e-07
5.25519e-07
5.25478e-07
5.25457e-07
5.25457e-07
5.25478e-07
5.25519e-07
5.25582e-07
5.41593e-07
5.37191e-07
5.33587e-07
5.3075e-07
5.28656e-07
5.27255e-07
5.26437e-07
5.26021e-07
5.25815e-07
5.25686e-07
5.25582e-07
5.25499e-07
5.25437e-07
5.25395e-07
5.25374e-07
5.25374e-07
5.25395e-07
5.25437e-07
5.25499e-07
5.4059e-07
5.36299e-07
5.32812e-07
5.30108e-07
5.28167e-07
5.26928e-07
5.2625e-07
5.25922e-07
5.25748e-07
5.25623e-07
5.25519e-07
5.25437e-07
5.25374e-07
5.25333e-07
5.25312e-07
5.25312e-07
5.25333e-07
5.25374e-07
5.25437e-07
5.39933e-07
5.35719e-07
5.32311e-07
5.29701e-07
5.27867e-07
5.26738e-07
5.26149e-07
5.25867e-07
5.25704e-07
5.25581e-07
5.25478e-07
5.25395e-07
5.25333e-07
5.25291e-07
5.25271e-07
5.25271e-07
5.25291e-07
5.25333e-07
5.25395e-07
5.39609e-07
5.35433e-07
5.32066e-07
5.29504e-07
5.27725e-07
5.26652e-07
5.26103e-07
5.25841e-07
5.25683e-07
5.2556e-07
5.25457e-07
5.25374e-07
5.25312e-07
5.25271e-07
5.2525e-07
5.2525e-07
5.25271e-07
5.25312e-07
5.25374e-07
5.39609e-07
5.35433e-07
5.32066e-07
5.29504e-07
5.27725e-07
5.26652e-07
5.26103e-07
5.25841e-07
5.25683e-07
5.2556e-07
5.25457e-07
5.25374e-07
5.25312e-07
5.25271e-07
5.2525e-07
5.2525e-07
5.25271e-07
5.25312e-07
5.25374e-07
5.39933e-07
5.35719e-07
5.32311e-07
5.29701e-07
5.27867e-07
5.26738e-07
5.26149e-07
5.25867e-07
5.25704e-07
5.25581e-07
5.25478e-07
5.25395e-07
5.25333e-07
5.25291e-07
5.25271e-07
5.25271e-07
5.25291e-07
5.25333e-07
5.25395e-07
5.4059e-07
5.36299e-07
5.32812e-07
5.30108e-07
5.28167e-07
5.26928e-07
5.2625e-07
5.25922e-07
5.25748e-07
5.25623e-07
5.25519e-07
5.25437e-07
5.25374e-07
5.25333e-07
5.25312e-07
5.25312e-07
5.25333e-07
5.25374e-07
5.25437e-07
5.41593e-07
5.37191e-07
5.33587e-07
5.3075e-07
5.28656e-07
5.27255e-07
5.26437e-07
5.26021e-07
5.25815e-07
5.25686e-07
5.25582e-07
5.25499e-07
5.25437e-07
5.25395e-07
5.25374e-07
5.25374e-07
5.25395e-07
5.25437e-07
5.25499e-07
5.42962e-07
5.38417e-07
5.34666e-07
5.31661e-07
5.29377e-07
5.2777e-07
5.26758e-07
5.262e-07
5.2592e-07
5.2577e-07
5.25665e-07
5.25582e-07
5.25519e-07
5.25478e-07
5.25457e-07
5.25457e-07
5.25478e-07
5.25519e-07
5.25582e-07
5.44722e-07
5.40007e-07
5.36081e-07
5.32881e-07
5.30378e-07
5.28532e-07
5.2728e-07
5.26519e-07
5.26104e-07
5.2589e-07
5.2577e-07
5.25686e-07
5.25623e-07
5.25581e-07
5.2556e-07
5.2556e-07
5.25581e-07
5.25623e-07
5.25686e-07
5.46902e-07
5.41995e-07
5.37872e-07
5.34455e-07
5.31713e-07
5.29607e-07
5.28084e-07
5.27066e-07
5.26448e-07
5.26104e-07
5.2592e-07
5.25815e-07
5.25748e-07
5.25704e-07
5.25683e-07
5.25683e-07
5.25704e-07
5.25748e-07
5.25815e-07
5.49532e-07
5.44417e-07
5.40081e-07
5.36431e-07
5.33436e-07
5.31058e-07
5.29248e-07
5.27944e-07
5.27066e-07
5.26519e-07
5.262e-07
5.26021e-07
5.25922e-07
5.25867e-07
5.25841e-07
5.25841e-07
5.25867e-07
5.25922e-07
5.26021e-07
5.52643e-07
5.47308e-07
5.42748e-07
5.38857e-07
5.35602e-07
5.32947e-07
5.30847e-07
5.29248e-07
5.28084e-07
5.2728e-07
5.26758e-07
5.26437e-07
5.2625e-07
5.26149e-07
5.26103e-07
5.26103e-07
5.26149e-07
5.2625e-07
5.26437e-07
5.56265e-07
5.50704e-07
5.45914e-07
5.41777e-07
5.3826e-07
5.35331e-07
5.32947e-07
5.31058e-07
5.29607e-07
5.28532e-07
5.2777e-07
5.27255e-07
5.26928e-07
5.26738e-07
5.26652e-07
5.26652e-07
5.26738e-07
5.26928e-07
5.27255e-07
5.6043e-07
5.54639e-07
5.49616e-07
5.45232e-07
5.41458e-07
5.3826e-07
5.35602e-07
5.33436e-07
5.31713e-07
5.30378e-07
5.29377e-07
5.28656e-07
5.28167e-07
5.27867e-07
5.27725e-07
5.27725e-07
5.27867e-07
5.28167e-07
5.28656e-07
5.65165e-07
5.59143e-07
5.53887e-07
5.49259e-07
5.45232e-07
5.41777e-07
5.38857e-07
5.36431e-07
5.34455e-07
5.32881e-07
5.31661e-07
5.3075e-07
5.30108e-07
5.29701e-07
5.29504e-07
5.29504e-07
5.29701e-07
5.30108e-07
5.3075e-07
5.70504e-07
5.64247e-07
5.58755e-07
5.53887e-07
5.49616e-07
5.45914e-07
5.42748e-07
5.40081e-07
5.37872e-07
5.36081e-07
5.34666e-07
5.33587e-07
5.32812e-07
5.32311e-07
5.32066e-07
5.32066e-07
5.32311e-07
5.32812e-07
5.33587e-07
5.76503e-07
5.69982e-07
5.64247e-07
5.59143e-07
5.54639e-07
5.50704e-07
5.47308e-07
5.44417e-07
5.41995e-07
5.40007e-07
5.38417e-07
5.37191e-07
5.36299e-07
5.35719e-07
5.35433e-07
5.35433e-07
5.35719e-07
5.36299e-07
5.37191e-07
5.83415e-07
5.76503e-07
5.70504e-07
5.65165e-07
5.6043e-07
5.56265e-07
5.52643e-07
5.49532e-07
5.46902e-07
5.44722e-07
5.42962e-07
5.41593e-07
5.4059e-07
5.39933e-07
5.39609e-07
5.39609e-07
5.39933e-07
5.4059e-07
5.41593e-07
)
;

boundaryField
{
    inlet
    {
        type            cyclic;
    }
    outlet
    {
        type            cyclic;
    }
    wall
    {
        type            fixedValue;
        value           nonuniform 0();
    }
    procBoundary6to4
    {
        type            processor;
        value           nonuniform List<scalar> 
43
(
7.7796e-07
7.79558e-07
7.81943e-07
7.85099e-07
7.97216e-07
7.95616e-07
7.94813e-07
7.7796e-07
7.94813e-07
8.40221e-07
8.34252e-07
8.28937e-07
8.24313e-07
8.2041e-07
7.97216e-07
8.17256e-07
8.40221e-07
8.57727e-07
9.3807e-07
9.29424e-07
9.21135e-07
9.13231e-07
9.05766e-07
8.75115e-07
8.98792e-07
9.3807e-07
9.29424e-07
9.21135e-07
9.21135e-07
9.30068e-07
9.30068e-07
9.46691e-07
9.55912e-07
9.49197e-07
9.4299e-07
9.37339e-07
9.32291e-07
9.27885e-07
9.24158e-07
9.2114e-07
9.18855e-07
9.17321e-07
9.16551e-07
)
;
    }
    procBoundary6to5
    {
        type            processor;
        value           nonuniform List<scalar> 
31
(
7.4441e-07
7.42827e-07
7.42034e-07
7.42034e-07
7.42827e-07
7.4441e-07
7.46773e-07
8.35201e-07
8.26006e-07
8.17257e-07
8.08967e-07
8.01185e-07
7.93955e-07
7.87321e-07
7.81322e-07
7.75992e-07
7.71364e-07
7.67465e-07
7.4441e-07
7.64317e-07
7.87321e-07
7.93955e-07
8.01185e-07
8.08967e-07
8.17257e-07
8.26006e-07
8.35201e-07
7.89008e-07
7.93645e-07
7.87321e-07
7.98981e-07
)
;
    }
    procBoundary6to7
    {
        type            processor;
        value           nonuniform List<scalar> 
72
(
5.49479e-07
5.58379e-07
5.6851e-07
5.79759e-07
5.92023e-07
6.05202e-07
6.19199e-07
6.33915e-07
6.49258e-07
6.65139e-07
6.81476e-07
6.98189e-07
7.15208e-07
7.32466e-07
8.12472e-07
8.30094e-07
8.47646e-07
8.65095e-07
8.82412e-07
8.99572e-07
6.42902e-07
6.58597e-07
6.74777e-07
6.9136e-07
7.08274e-07
7.2545e-07
7.42827e-07
7.60348e-07
7.7796e-07
8.12472e-07
7.95616e-07
5.75937e-07
5.87916e-07
6.00845e-07
6.1462e-07
6.42902e-07
6.29143e-07
5.75937e-07
5.49479e-07
5.58379e-07
5.77571e-07
5.6851e-07
5.42962e-07
5.38417e-07
5.34666e-07
5.31661e-07
5.29377e-07
5.2777e-07
5.26758e-07
5.262e-07
5.2592e-07
5.2577e-07
5.25665e-07
5.25582e-07
5.25519e-07
5.25478e-07
5.25457e-07
5.25457e-07
5.25478e-07
5.25519e-07
5.25582e-07
5.25665e-07
5.2577e-07
5.2592e-07
5.262e-07
5.26758e-07
5.2777e-07
5.29377e-07
5.31661e-07
5.34666e-07
5.38417e-07
5.42962e-07
)
;
    }
}


// ************************************************************************* //
