/*--------------------------------*- C++ -*----------------------------------*\
  =========                 |
  \\      /  F ield         | OpenFOAM: The Open Source CFD Toolbox
   \\    /   O peration     | Website:  https://openfoam.org
    \\  /    A nd           | Version:  7
     \\/     M anipulation  |
\*---------------------------------------------------------------------------*/
FoamFile
{
    version     2.0;
    format      ascii;
    class       surfaceScalarField;
    location    "24000";
    object      phi;
}
// * * * * * * * * * * * * * * * * * * * * * * * * * * * * * * * * * * * * * //

dimensions      [0 3 -1 0 0 0 0];

internalField   nonuniform List<scalar> 
9414
(
-8.31968e-24
6.83135e-25
-3.89388e-24
8.44672e-25
-5.48505e-24
1.02465e-24
-6.34918e-24
1.2765e-24
-3.07457e-23
1.41528e-24
-2.01523e-23
1.58414e-24
-2.23659e-23
1.69269e-24
-2.21006e-23
1.69824e-24
-1.2746e-23
1.71915e-24
1.81369e-24
7.18566e-24
9.2731e-25
1.31783e-23
1.00441e-24
1.23099e-23
2.54403e-25
1.05807e-23
1.1434e-25
1.45799e-23
1.76149e-25
-1.55935e-23
-2.46435e-25
-3.73253e-23
4.12551e-25
-1.61208e-23
8.49975e-25
-8.36177e-24
8.63534e-25
2.09592e-23
9.88656e-25
1.72966e-23
7.50839e-25
1.45847e-23
6.05709e-25
3.91352e-24
4.78915e-25
1.34902e-23
1.97652e-25
2.04952e-23
3.50323e-25
1.86913e-23
3.56236e-25
1.63459e-23
5.44535e-25
1.37376e-23
7.4878e-25
2.32106e-23
4.3597e-25
4.6735e-23
5.82623e-25
4.15276e-23
3.32155e-25
4.09105e-23
8.1793e-26
4.64906e-24
-9.01784e-26
2.81639e-24
6.83222e-26
2.30551e-24
3.04561e-25
2.40805e-23
5.2687e-25
4.65068e-23
3.70287e-25
4.94221e-23
4.70783e-26
4.24995e-23
-3.09793e-25
4.82147e-23
-4.91216e-25
5.82324e-23
-6.25922e-25
5.65302e-23
-6.81959e-25
4.29146e-23
-6.33627e-25
3.03701e-23
-6.47537e-25
2.99968e-23
-5.78513e-25
3.0222e-23
-2.9135e-25
3.17614e-23
-1.66198e-25
3.33846e-23
1.2458e-26
3.50755e-23
1.87632e-25
3.65407e-23
2.64355e-25
2.71279e-23
1.27479e-25
1.7686e-23
4.21659e-25
1.93584e-23
5.15398e-25
1.02829e-23
5.78123e-25
-1.22658e-23
7.46104e-25
-1.16091e-23
1.0915e-24
-6.70195e-24
1.46723e-24
1.47327e-23
1.60538e-24
1.48215e-23
1.71892e-24
-1.38205e-24
1.86069e-24
-9.25368e-24
2.00568e-24
-8.96262e-24
2.30761e-24
-9.97572e-24
2.47953e-24
3.37981e-24
2.58814e-24
2.71248e-24
-8.0794e-25
5.97316e-25
-3.13255e-23
-3.0047e-25
-1.22309e-23
6.17715e-27
-1.0699e-23
-2.92391e-25
-9.47328e-24
-4.71801e-25
-1.79095e-23
-3.50827e-25
-2.68235e-23
-6.86067e-25
-2.53992e-23
-7.07173e-25
-2.7624e-23
7.32815e-26
-3.43178e-23
-1.96979e-25
-3.48615e-23
-6.60109e-26
-3.36436e-23
-4.93444e-26
-3.16781e-23
-1.77629e-25
-2.05474e-23
-9.07391e-26
-2.00177e-23
3.2168e-25
-1.60562e-23
4.59555e-25
-3.45525e-23
5.90776e-25
-4.23454e-23
8.08044e-25
-3.16693e-23
1.0683e-24
-3.02212e-23
9.78207e-25
-2.77218e-23
1.10412e-24
-2.09921e-23
9.93085e-25
-2.22171e-23
1.02301e-24
-2.27267e-23
1.04807e-24
-1.26218e-23
1.24291e-24
-1.00801e-23
1.20097e-24
-9.31632e-24
1.22154e-24
1.16764e-23
1.31935e-24
1.14444e-23
1.20488e-24
1.14749e-23
1.15865e-24
1.83954e-23
1.54494e-24
1.66523e-23
1.56993e-24
4.82671e-24
1.69041e-24
2.01721e-23
1.72146e-24
1.91413e-23
1.83452e-24
2.67937e-23
2.02408e-24
2.58695e-23
2.1222e-24
4.73155e-24
2.32028e-24
2.4101e-24
2.49184e-24
4.2071e-24
2.57872e-24
1.64061e-24
2.78229e-24
-3.51101e-26
2.93749e-24
1.12998e-24
2.94589e-24
1.48681e-23
3.14208e-24
4.07505e-23
3.32369e-24
3.4357e-23
3.47903e-24
2.40252e-23
3.53245e-24
2.32653e-23
3.51411e-24
2.59451e-23
3.60753e-24
2.12101e-23
3.43913e-24
2.27421e-23
3.40588e-24
1.75351e-23
3.35847e-24
1.63382e-23
3.33753e-24
1.47471e-23
3.34493e-24
3.25152e-24
-6.64472e-23
2.12569e-25
-5.74463e-23
8.20139e-25
-5.75083e-23
6.99178e-25
-3.51195e-23
2.94693e-25
-1.08632e-23
2.80867e-26
-1.31639e-23
-2.76504e-25
-4.2554e-24
-1.74558e-25
-4.15374e-24
-3.63557e-25
-3.66794e-23
-4.08175e-25
-3.39364e-23
7.47151e-26
-2.86285e-23
1.85888e-25
-2.51532e-23
5.76252e-25
-2.07789e-24
7.49778e-25
3.01227e-23
1.1155e-24
2.18412e-23
1.03333e-24
2.3783e-23
7.95868e-25
2.56499e-23
9.82077e-25
2.56961e-23
1.31376e-24
2.53676e-23
1.21349e-24
3.19521e-23
1.6249e-24
3.15501e-23
1.5348e-24
2.82632e-23
1.84355e-24
2.97868e-23
1.70681e-24
3.16356e-23
1.85061e-24
1.92605e-23
2.25406e-24
8.36012e-24
2.34402e-24
2.44493e-23
2.5316e-24
2.47842e-23
2.62349e-24
3.84976e-23
2.75968e-24
4.68295e-23
2.71124e-24
2.0724e-23
2.7839e-24
4.08711e-23
2.90825e-24
2.38892e-23
3.19943e-24
4.65508e-23
3.65325e-24
4.50886e-23
3.84359e-24
4.69691e-23
4.00451e-24
4.14377e-23
4.26379e-24
3.92989e-23
4.55719e-24
3.69678e-23
4.71301e-24
3.4624e-23
4.99968e-24
3.22098e-23
5.36135e-24
3.43463e-23
5.44611e-24
3.09585e-23
5.63936e-24
3.77577e-23
5.89235e-24
5.26837e-23
6.1291e-24
5.15262e-23
6.22735e-24
4.6534e-23
6.50204e-24
3.87086e-23
6.56046e-24
3.01896e-23
6.64991e-24
2.59018e-23
6.87866e-24
3.52857e-23
7.02393e-24
3.42705e-23
7.06808e-24
3.63912e-23
7.08405e-24
3.683e-23
7.08819e-24
7.13754e-24
-3.59592e-23
5.18285e-25
-3.14812e-23
3.85826e-25
-5.00675e-23
7.12287e-25
-3.978e-23
1.36831e-24
-2.30183e-23
1.86757e-24
-4.04331e-24
2.09717e-24
1.43069e-24
1.94756e-24
-8.11244e-24
1.83787e-24
-2.00018e-23
1.76897e-24
-1.95319e-23
1.5488e-24
-9.03558e-24
1.79341e-24
1.59284e-24
2.03321e-24
8.72166e-24
1.78405e-24
1.15204e-23
1.08069e-24
2.58703e-24
8.30051e-25
8.05891e-24
8.17664e-25
-1.25214e-23
1.05679e-24
-9.83518e-24
1.04229e-24
-9.23002e-24
1.40192e-24
-1.77722e-23
1.46739e-24
-2.87575e-23
1.581e-24
-3.87568e-23
1.48823e-24
-3.9081e-23
1.74918e-24
-3.90633e-23
1.65765e-24
-5.79553e-23
1.47399e-24
-5.62945e-23
1.46101e-24
-4.47734e-23
1.7364e-24
-4.51595e-23
1.61349e-24
-2.95577e-23
1.38834e-24
-5.44705e-23
1.45149e-24
-7.0388e-23
1.60671e-24
-5.27062e-23
1.79519e-24
-4.06877e-23
1.9928e-24
-6.35728e-23
1.83008e-24
-6.14057e-23
2.17903e-24
-4.77783e-23
2.59104e-24
-4.17511e-23
2.7049e-24
-6.51435e-23
2.79591e-24
-6.98185e-23
3.05384e-24
-7.3975e-23
3.27875e-24
-7.50627e-23
3.52907e-24
-5.2039e-23
3.81676e-24
-3.59845e-23
4.04708e-24
-1.90142e-23
4.17574e-24
-1.90074e-23
4.11264e-24
-2.03874e-23
4.1485e-24
-3.26488e-23
4.03614e-24
-3.47748e-23
4.08816e-24
-3.05637e-23
4.27243e-24
-3.39959e-23
4.21606e-24
-3.42016e-23
4.17715e-24
-3.36575e-23
4.18313e-24
-2.85812e-23
4.14798e-24
-2.51306e-23
4.09076e-24
3.96684e-24
-4.99245e-23
-3.89721e-25
-4.93847e-23
1.81406e-25
-4.54395e-23
2.79807e-25
-4.04482e-23
3.91296e-25
-3.67847e-23
5.79586e-25
-4.34846e-23
6.59565e-25
-4.01901e-23
7.91219e-25
-5.68387e-23
8.52429e-25
-4.4422e-23
6.65454e-25
-3.48186e-23
1.17978e-24
-3.43973e-23
1.54797e-24
-4.55612e-23
1.78601e-24
-4.74038e-23
2.59049e-24
-3.19789e-23
3.27562e-24
-1.43674e-23
3.15903e-24
1.14569e-24
3.09154e-24
1.8918e-23
2.54081e-24
1.4062e-23
2.35106e-24
1.43741e-23
2.21495e-24
2.18487e-23
2.15904e-24
-3.34534e-24
2.18405e-24
1.52612e-23
2.11243e-24
1.5458e-23
2.04807e-24
7.60732e-24
2.19791e-24
1.70711e-23
2.0692e-24
8.74829e-24
2.19524e-24
-1.06002e-23
2.02262e-24
-1.23321e-23
2.28679e-24
-9.82869e-24
2.59397e-24
2.28313e-24
2.65043e-24
1.62326e-24
2.56224e-24
1.55057e-23
2.67926e-24
1.05299e-23
2.72619e-24
3.21767e-23
3.09912e-24
3.03666e-23
3.06944e-24
1.92269e-23
3.04878e-24
1.48077e-23
3.13604e-24
3.05915e-23
3.21909e-24
4.02572e-23
3.36324e-24
2.3571e-23
3.48922e-24
2.44185e-23
3.44002e-24
2.76414e-23
3.64716e-24
2.31316e-23
3.67131e-24
1.29281e-24
3.70591e-24
4.04588e-24
3.74675e-24
-4.66931e-24
3.69531e-24
7.40096e-24
3.80972e-24
1.38082e-23
3.85122e-24
1.44342e-23
3.68178e-24
1.28434e-23
3.69776e-24
1.0805e-23
3.66482e-24
8.11998e-24
3.55933e-24
-1.48993e-25
3.5218e-24
3.47236e-25
3.47242e-24
3.47908e-24
-1.64189e-23
1.6295e-24
-5.48647e-24
1.31812e-24
4.78185e-24
1.1922e-24
-4.6112e-24
1.29208e-24
-4.17478e-24
1.0824e-24
-4.89801e-24
1.08592e-24
-1.49635e-23
1.15733e-24
-1.71121e-23
1.6318e-24
-5.66317e-24
1.73895e-24
1.15416e-23
1.5112e-24
1.58584e-23
1.50995e-24
1.57456e-23
1.26705e-24
-3.57173e-24
8.55604e-25
-4.69293e-23
6.20227e-25
-4.44441e-23
8.93457e-25
-4.2556e-23
9.95536e-25
-4.52649e-23
1.11998e-24
-4.44618e-23
1.18688e-24
-4.44251e-23
1.32734e-24
-5.25619e-23
1.23415e-24
-5.31757e-23
1.37846e-24
-5.60692e-23
1.32619e-24
-5.8349e-23
1.54389e-24
-5.86345e-23
1.66814e-24
-4.66922e-23
1.71224e-24
-3.81002e-23
1.91156e-24
-5.07404e-23
2.10431e-24
-2.88966e-23
2.49085e-24
-4.51772e-23
2.37842e-24
-2.04819e-23
2.39717e-24
-3.762e-24
2.43192e-24
-3.3867e-24
2.57097e-24
-3.78653e-24
2.54464e-24
-2.20967e-23
2.5234e-24
-2.33816e-23
2.76546e-24
-3.46132e-23
2.6709e-24
-2.359e-23
2.6005e-24
-1.81443e-23
2.52518e-24
-1.72104e-23
2.66184e-24
-1.5817e-23
2.78522e-24
-1.41008e-23
2.88992e-24
-2.1205e-23
2.8542e-24
-1.56834e-23
3.17513e-24
-2.54793e-23
3.18684e-24
-2.93112e-23
3.3616e-24
-2.46824e-23
3.53679e-24
-4.41084e-23
3.49733e-24
-3.09902e-23
3.62603e-24
-3.38709e-23
3.70011e-24
-2.44932e-23
3.73783e-24
-3.41221e-23
3.67852e-24
-1.82106e-23
3.70103e-24
-1.75513e-23
3.65105e-24
-8.04829e-24
3.6261e-24
-1.19667e-23
3.64238e-24
-2.53905e-24
3.62104e-24
-3.99398e-24
3.6511e-24
-5.51972e-24
3.6567e-24
3.64425e-24
-8.23977e-23
-8.48381e-25
-7.20278e-23
-7.12041e-25
-6.05338e-23
-5.25079e-25
-5.76027e-23
-5.73436e-25
-5.63846e-23
-3.90876e-25
-4.57649e-23
-2.94469e-25
-3.29262e-23
-2.58049e-25
-5.28852e-23
-3.34455e-25
-5.12797e-23
-3.45817e-25
-4.22207e-23
9.39051e-26
-4.02056e-23
-1.16918e-25
-3.82209e-23
-8.62089e-26
-3.85373e-23
2.20036e-25
-4.08581e-23
4.08541e-25
-3.96449e-23
2.4404e-25
-3.92744e-23
7.29829e-25
-3.10716e-23
9.81798e-25
-2.15609e-23
1.05102e-24
-2.30585e-23
1.28319e-24
-2.50607e-23
1.36482e-24
-1.61923e-23
1.40202e-24
-1.1365e-23
1.67259e-24
-1.07543e-23
1.67451e-24
-9.66603e-24
1.83151e-24
-1.04871e-23
1.87948e-24
-2.24032e-24
2.07162e-24
3.39415e-24
2.24349e-24
-4.05741e-23
1.80463e-24
-3.99004e-23
1.98418e-24
-3.76037e-23
2.21531e-24
-3.23357e-23
2.29128e-24
-3.24712e-23
2.19146e-24
-1.78664e-23
1.95033e-24
-3.58723e-23
1.91698e-24
-4.47894e-23
1.72292e-24
-6.66629e-23
1.59957e-24
-6.63506e-23
1.75232e-24
-3.73348e-23
1.81475e-24
-5.83989e-23
1.84116e-24
-5.05457e-23
1.90722e-24
-3.32748e-23
1.92828e-24
-3.72478e-23
1.93578e-24
-3.01275e-23
1.91721e-24
-4.41123e-23
1.89068e-24
-5.25492e-23
1.92179e-24
-5.0446e-23
2.07338e-24
-4.5587e-23
2.15926e-24
-4.36188e-23
2.27035e-24
-5.69907e-23
2.18914e-24
-5.21805e-23
2.25523e-24
-4.65892e-23
2.33082e-24
-4.59442e-23
2.32212e-24
-3.19452e-23
2.45388e-24
-7.98128e-24
2.47983e-24
-8.47598e-24
2.38644e-24
1.87392e-24
2.36781e-24
-6.57428e-24
2.28099e-24
-5.49103e-24
2.35284e-24
-9.56054e-24
2.31342e-24
2.30419e-24
-2.8049e-23
-2.97538e-24
-2.16909e-23
-2.81834e-24
-3.93441e-23
-2.42965e-24
-3.85047e-23
-2.23063e-24
-4.42446e-23
-2.53367e-24
-4.58905e-23
-1.99145e-24
-4.50342e-23
-2.06257e-24
-5.35478e-23
-1.58059e-24
-6.29722e-23
-1.13511e-24
-5.3408e-23
-7.36412e-25
-3.1403e-23
-5.16793e-25
-3.15715e-23
-5.83286e-25
-4.75189e-23
-5.97982e-25
-5.53385e-23
-4.43076e-25
-6.32787e-23
-2.77846e-26
-6.20002e-23
8.43953e-26
-6.05577e-23
1.66227e-25
-5.64783e-23
-1.04136e-25
-6.45382e-23
3.39986e-25
-7.28771e-23
3.05352e-25
-7.24811e-23
4.34996e-25
-7.25527e-23
3.42894e-25
-6.44209e-23
2.48691e-25
-6.01408e-23
9.46056e-27
-5.59252e-23
-1.59425e-25
-8.53354e-23
-5.04625e-25
-1.13805e-22
-8.32493e-25
-1.10618e-22
-6.64939e-25
-9.67208e-23
-7.35806e-25
-9.42581e-23
-1.2049e-24
-1.1399e-22
-1.38103e-24
-1.09593e-22
-1.35189e-24
-9.96112e-23
-1.17665e-24
-8.99067e-23
-8.91775e-25
-8.46367e-23
-8.67485e-25
-7.99304e-23
-6.14962e-25
-6.50135e-23
-2.69905e-26
-5.80253e-23
1.20923e-25
-5.45e-23
1.96496e-25
-5.14065e-23
2.32072e-25
-4.48837e-23
7.00994e-25
-4.37639e-23
6.78494e-25
-4.2292e-23
8.35937e-25
-4.14047e-23
1.14791e-24
-1.89544e-23
1.27729e-24
-3.06954e-23
1.31382e-24
-3.58527e-23
1.45726e-24
-4.48578e-23
1.56573e-24
-4.63052e-23
1.76598e-24
-5.13424e-23
1.93778e-24
-4.12831e-23
2.16077e-24
-4.29913e-23
2.31005e-24
-4.41282e-23
2.37149e-24
-3.51468e-23
2.46964e-24
-3.6795e-23
2.63037e-24
-3.61248e-23
2.65562e-24
-1.36492e-23
2.65745e-24
-2.25057e-23
2.59188e-24
-2.25304e-23
2.55937e-24
-2.32994e-23
2.51536e-24
-1.72397e-23
2.52078e-24
-7.42544e-24
2.50801e-24
6.64552e-24
2.45442e-24
7.31247e-24
2.39974e-24
6.4924e-25
2.41494e-24
6.82122e-24
2.34873e-24
6.47421e-24
2.25616e-24
1.45121e-23
2.19317e-24
1.35093e-23
2.11962e-24
2.08387e-23
2.06401e-24
1.6234e-23
1.98023e-24
1.3403e-23
1.91437e-24
1.87945e-23
1.78427e-24
1.26602e-23
1.69497e-24
1.82999e-23
1.60069e-24
1.73014e-23
1.51186e-24
1.20808e-23
1.40713e-24
9.2334e-24
1.30538e-24
1.07907e-23
1.20318e-24
8.68488e-24
1.09908e-24
8.05733e-24
9.91771e-25
9.04699e-24
8.90404e-25
6.77876e-24
7.88078e-25
6.62215e-24
6.81982e-25
6.43146e-24
5.8644e-25
6.46841e-24
4.78697e-25
4.14362e-24
3.86807e-25
6.14895e-24
3.11412e-25
4.66317e-24
2.4473e-25
2.73621e-24
1.93146e-25
3.37729e-25
1.5683e-25
1.17655e-25
1.34349e-25
-4.13037e-25
1.29396e-25
-1.29364e-25
1.315e-25
-4.03931e-26
-4.62466e-23
1.12626e-24
-4.17387e-23
1.4799e-24
-4.53041e-23
1.70324e-24
-4.60819e-23
1.3618e-24
-2.70994e-23
1.95153e-24
-2.81137e-23
1.81391e-24
-1.28403e-23
2.07737e-24
-1.23764e-23
1.45758e-24
-1.43218e-23
9.57114e-25
-1.81526e-23
6.15853e-25
-1.83006e-23
6.09939e-26
-8.96858e-24
-3.1745e-25
-7.15057e-24
-4.2639e-25
-2.22179e-24
-8.48751e-25
-1.89769e-23
-9.7068e-25
-1.50162e-23
-1.1024e-24
-1.32009e-23
-1.15992e-24
-2.62538e-24
-9.33698e-25
-1.00754e-23
-1.29123e-24
-3.06032e-23
-1.35374e-24
-2.7923e-23
-1.51731e-24
-4.69029e-23
-1.37726e-24
-4.48311e-23
-1.38983e-24
-4.27974e-23
-1.39959e-24
-3.95446e-23
-1.40125e-24
-3.65307e-23
-1.61474e-24
-1.78956e-23
-1.77163e-24
-3.76885e-23
-2.29149e-24
-5.44304e-23
-2.56043e-24
-5.04989e-23
-2.51321e-24
-3.49861e-23
-2.37785e-24
-4.34738e-23
-2.52005e-24
-4.11855e-23
-2.42182e-24
-7.02304e-23
-2.20283e-24
-5.33823e-23
-1.94408e-24
-6.45459e-23
-1.54405e-24
-9.25768e-23
-1.5531e-24
-1.02662e-22
-1.18969e-24
-1.01105e-22
-9.2063e-25
-9.93248e-23
-4.51993e-25
-9.1648e-23
-1.38679e-25
-8.33673e-23
-4.18275e-26
-7.59215e-23
4.25959e-25
-6.47459e-23
4.88413e-25
-6.28778e-23
7.72574e-25
-5.9908e-23
9.52907e-25
-6.11324e-23
9.62487e-25
-5.93961e-23
1.1441e-24
-5.67575e-23
1.37584e-24
-3.16744e-23
1.59351e-24
-3.97088e-23
1.6775e-24
-3.79909e-23
1.83428e-24
-3.3131e-23
2.03601e-24
-3.99115e-23
2.17086e-24
-3.76644e-23
2.19206e-24
-3.35502e-23
2.22954e-24
-4.19928e-23
2.30595e-24
-3.04793e-23
2.37878e-24
-2.91103e-23
2.31187e-24
-2.02879e-23
2.37773e-24
-1.19478e-23
2.37578e-24
-7.60399e-24
2.31862e-24
-2.25596e-24
2.28592e-24
2.82093e-24
2.29546e-24
-1.44156e-23
2.23425e-24
-1.47664e-23
2.20964e-24
-1.50725e-23
2.24279e-24
-1.54729e-23
2.19388e-24
-4.6622e-24
2.20868e-24
-1.02242e-23
2.1108e-24
-9.618e-24
2.05496e-24
-2.10541e-23
1.9597e-24
-1.33999e-23
1.90832e-24
-8.05345e-24
1.84858e-24
-6.40105e-24
1.77621e-24
-6.12385e-24
1.67063e-24
-6.18299e-24
1.58635e-24
-8.15179e-25
1.48998e-24
-5.13332e-24
1.40739e-24
-1.52949e-24
1.32602e-24
-4.64486e-24
1.21857e-24
-1.01695e-24
1.13139e-24
-1.43954e-24
1.03322e-24
-1.92172e-24
9.45694e-25
-4.66401e-24
8.50757e-25
-2.90397e-24
7.74434e-25
-1.30956e-24
6.90619e-25
-9.2215e-25
6.17807e-25
2.80941e-26
5.60461e-25
-3.644e-25
5.05027e-25
2.88235e-25
4.64093e-25
1.37226e-24
4.32993e-25
4.41086e-25
4.08519e-25
1.9608e-25
3.82442e-25
5.02527e-26
-7.79519e-24
-3.02215e-24
-3.55801e-23
-2.88944e-24
-4.77634e-23
-3.18363e-24
-4.36551e-23
-2.6533e-24
-4.81613e-23
-2.74811e-24
-4.35146e-23
-2.41483e-24
-5.79178e-23
-2.1834e-24
-7.36568e-23
-2.13232e-24
-7.90965e-23
-1.43477e-24
-7.55369e-23
-1.16489e-24
-7.41046e-23
-9.6837e-25
-5.02723e-23
-1.1565e-24
-5.86906e-23
-1.08805e-24
-7.92452e-23
-1.41963e-24
-7.60221e-23
-1.79791e-24
-7.08134e-23
-1.50045e-24
-6.27115e-23
-1.75286e-24
-8.50883e-23
-2.12475e-24
-7.62842e-23
-1.84051e-24
-7.7528e-23
-1.89288e-24
-7.78585e-23
-1.94211e-24
-7.8231e-23
-2.02645e-24
-7.84091e-23
-2.03874e-24
-6.75024e-23
-2.07429e-24
-6.78278e-23
-1.97452e-24
-5.99133e-23
-1.90465e-24
-6.32178e-23
-2.01375e-24
-4.3872e-23
-1.79682e-24
-2.72354e-23
-1.61985e-24
-3.07273e-23
-1.54636e-24
-3.34145e-23
-1.63656e-24
-2.31467e-23
-1.73468e-24
-3.68583e-23
-1.92279e-24
-1.64643e-23
-1.95325e-24
-1.90011e-23
-2.34341e-24
-5.3667e-23
-2.57181e-24
-7.57335e-23
-2.4148e-24
-7.36652e-23
-2.13916e-24
-7.25214e-23
-2.0723e-24
-8.98616e-23
-2.11014e-24
-7.61722e-23
-1.95294e-24
-8.4292e-23
-1.85435e-24
-8.19546e-23
-1.71685e-24
-8.64222e-23
-1.60821e-24
-8.34241e-23
-1.56029e-24
-7.95478e-23
-1.37378e-24
-5.54676e-23
-1.19336e-24
-4.06161e-23
-1.09044e-24
-3.12467e-23
-1.16599e-24
-3.43048e-23
-1.17663e-24
-2.51569e-23
-1.04671e-24
-1.99969e-23
-9.36508e-25
-2.64199e-23
-9.28088e-25
-4.56257e-23
-8.96099e-25
-5.10627e-23
-7.89901e-25
-4.3175e-23
-7.19218e-25
-5.13159e-23
-6.20219e-25
-5.86438e-23
-6.09208e-25
-5.52459e-23
-4.83795e-25
-5.22101e-23
-4.17921e-25
-4.10923e-23
-3.29994e-25
-2.36108e-23
-3.77911e-25
-2.03311e-23
-3.96663e-25
-1.71932e-23
-4.03614e-25
-1.07977e-23
-4.32041e-25
-8.24579e-24
-4.0867e-25
-1.1618e-23
-3.90073e-25
-1.5075e-23
-4.5481e-25
-1.23987e-23
-4.3084e-25
-1.80302e-23
-4.06346e-25
-1.42275e-23
-3.87657e-25
-1.22697e-23
-3.78994e-25
-9.892e-24
-3.81147e-25
-1.26579e-23
-3.74372e-25
-1.05349e-23
-3.74026e-25
-1.13404e-23
-3.51435e-25
-5.29925e-24
-3.63876e-25
-5.71477e-24
-3.57235e-25
-6.36871e-24
-3.66847e-25
-1.18646e-23
-3.62313e-25
-1.1825e-23
-3.45405e-25
-1.0384e-23
-3.36909e-25
-8.99044e-24
-3.16948e-25
-1.01217e-23
-3.1838e-25
-8.6631e-24
-3.01019e-25
-5.92519e-24
-2.69514e-25
-3.47416e-24
-2.47373e-25
-2.2748e-24
-2.09086e-25
-1.16593e-24
-1.5995e-25
-1.85418e-24
-1.03622e-25
-1.4887e-24
-3.43091e-26
-1.27561e-24
4.29565e-26
-7.64508e-27
1.23925e-25
-9.90281e-26
1.91958e-25
-5.91266e-26
-1.16764e-23
-1.86274e-24
-1.49236e-23
-2.50816e-24
-1.78911e-23
-2.82665e-24
-2.61191e-23
-3.5105e-24
-1.70642e-23
-3.6073e-24
-1.73065e-23
-3.65931e-24
-1.28843e-23
-3.97444e-24
-9.49951e-24
-4.25878e-24
-2.59286e-23
-4.40977e-24
-4.42972e-23
-4.3945e-24
-4.20039e-23
-4.05278e-24
-3.7296e-23
-4.11235e-24
-5.39136e-23
-4.07281e-24
-4.96609e-23
-3.89746e-24
-4.77138e-23
-3.63594e-24
-4.0995e-23
-3.39726e-24
-6.26442e-23
-3.46416e-24
-2.8562e-23
-3.28679e-24
-4.93496e-23
-3.60113e-24
-4.89996e-23
-3.55697e-24
-4.82891e-23
-3.57862e-24
-4.95598e-23
-3.32929e-24
-5.18229e-23
-3.15188e-24
-3.40373e-23
-3.21795e-24
-4.53352e-23
-3.15872e-24
-4.53481e-23
-3.33463e-24
-1.14557e-23
-3.23716e-24
-1.29888e-23
-2.95569e-24
-1.54442e-23
-2.88778e-24
-3.90093e-23
-2.58495e-24
-3.0644e-23
-2.18287e-24
-3.22772e-23
-2.16765e-24
-2.17502e-23
-1.92518e-24
-2.06326e-23
-1.94467e-24
-7.1823e-24
-1.89042e-24
-5.18879e-24
-1.84622e-24
6.00664e-24
-1.87728e-24
1.09697e-23
-2.06586e-24
-1.11561e-23
-2.06382e-24
-2.00334e-25
-1.92693e-24
-1.26963e-24
-1.94697e-24
-1.44246e-23
-1.90112e-24
-1.84415e-23
-1.65655e-24
-2.05177e-23
-1.59825e-24
-2.74548e-23
-1.56529e-24
-2.87535e-23
-1.46329e-24
-3.22723e-23
-1.3165e-24
-3.56956e-23
-1.15348e-24
-3.54083e-23
-1.08561e-24
-3.37895e-23
-9.63125e-25
-2.84962e-23
-9.54538e-25
-2.15679e-23
-1.02012e-24
-1.86151e-23
-1.10431e-24
-1.80283e-23
-1.11463e-24
-1.71163e-23
-1.15038e-24
-1.36349e-23
-1.11907e-24
-2.27608e-23
-1.17406e-24
-1.10433e-23
-1.13646e-24
-1.81506e-23
-1.14058e-24
-2.83966e-23
-1.21634e-24
-2.43418e-23
-1.2081e-24
-2.05645e-23
-1.17207e-24
-2.04872e-23
-1.1128e-24
-1.96302e-23
-1.12462e-24
-7.75656e-24
-1.10553e-24
-1.30537e-23
-1.12151e-24
-1.32448e-23
-1.13703e-24
-1.24173e-23
-1.04804e-24
-1.23631e-23
-1.03944e-24
-1.16577e-23
-1.01822e-24
-1.11217e-23
-9.81542e-25
-1.03761e-23
-9.3727e-25
-7.51265e-24
-8.86366e-25
-6.76074e-24
-8.44127e-25
-6.60254e-24
-7.99602e-25
-1.05842e-23
-7.60545e-25
-4.53402e-24
-6.95345e-25
-4.07326e-24
-6.60376e-25
-1.63935e-24
-6.04387e-25
2.25363e-24
-5.8204e-25
3.58464e-24
-5.41029e-25
2.72706e-24
-5.10751e-25
2.98745e-24
-4.76806e-25
2.95537e-24
-4.29813e-25
7.05336e-25
-3.68888e-25
1.98261e-24
-3.08395e-25
9.82181e-25
-2.50889e-25
8.94605e-25
-1.69411e-25
6.45327e-25
-8.06411e-26
1.76799e-24
1.41287e-26
1.65815e-24
1.18011e-25
7.50349e-25
2.28264e-25
-2.41909e-26
3.33746e-25
5.81043e-26
4.20941e-25
1.46448e-26
-4.8083e-23
-1.36617e-25
-4.44305e-23
2.51977e-25
-4.96313e-23
3.09093e-25
-5.33932e-23
-1.75299e-25
-3.61551e-23
-2.22186e-25
-3.64392e-23
-9.79141e-25
-3.67396e-23
-1.11446e-24
-3.05035e-23
-1.60721e-24
-3.06714e-23
-2.50585e-24
-2.86113e-23
-2.84501e-24
-3.0674e-23
-3.52835e-24
-3.2421e-23
-3.65247e-24
-3.19788e-23
-3.61438e-24
-3.19031e-23
-3.84167e-24
-5.24094e-23
-3.90116e-24
-5.52588e-23
-3.92524e-24
-5.57623e-23
-3.792e-24
-5.53821e-23
-3.91561e-24
-5.83329e-23
-3.8109e-24
-5.91738e-23
-3.79973e-24
-3.99194e-23
-3.63345e-24
-4.89835e-23
-3.66934e-24
-7.22514e-23
-3.84619e-24
-6.42198e-23
-3.88393e-24
-6.48113e-23
-3.947e-24
-7.33206e-23
-4.00911e-24
-5.27775e-23
-3.60288e-24
-6.214e-23
-3.65721e-24
-5.99e-23
-3.62742e-24
-7.83359e-23
-3.54632e-24
-8.67875e-23
-3.41573e-24
-9.24965e-23
-3.13016e-24
-7.03605e-23
-3.31537e-24
-7.0885e-23
-3.45367e-24
-8.93446e-23
-3.44728e-24
-8.50379e-23
-3.40372e-24
-9.42529e-23
-3.45045e-24
-8.14105e-23
-3.74004e-24
-7.96397e-23
-3.81465e-24
-1.06064e-22
-3.77318e-24
-8.72899e-23
-3.62743e-24
-8.04772e-23
-3.56241e-24
-6.74444e-23
-3.61807e-24
-6.56696e-23
-3.54196e-24
-6.47315e-23
-3.41238e-24
-4.12064e-23
-3.27716e-24
-4.45283e-23
-3.1629e-24
-4.6746e-23
-2.98919e-24
-4.08499e-23
-2.83482e-24
-4.02182e-23
-2.78058e-24
-4.46021e-23
-2.74368e-24
-4.89613e-23
-2.57156e-24
-5.23821e-23
-2.36151e-24
-5.26534e-23
-2.35843e-24
-4.98693e-23
-2.29999e-24
-4.67984e-23
-2.23899e-24
-4.79051e-23
-2.10984e-24
-5.18881e-23
-2.12788e-24
-6.29057e-23
-2.15011e-24
-6.29235e-23
-2.07997e-24
-4.73813e-23
-1.98554e-24
-4.22876e-23
-1.96544e-24
-4.55992e-23
-1.93183e-24
-4.09733e-23
-1.89708e-24
-3.96954e-23
-1.83884e-24
-3.18056e-23
-1.77936e-24
-2.4645e-23
-1.71356e-24
-2.11183e-23
-1.66164e-24
-2.01899e-23
-1.62288e-24
-1.71919e-23
-1.51747e-24
-8.97183e-24
-1.47393e-24
-8.50637e-24
-1.40461e-24
-1.27492e-23
-1.33511e-24
-1.19586e-24
-1.25605e-24
-1.22383e-24
-1.20648e-24
5.3753e-24
-1.14879e-24
3.54256e-24
-1.09956e-24
3.7036e-24
-1.02879e-24
1.77131e-24
-9.806e-25
2.07492e-24
-9.12818e-25
-4.08069e-24
-8.67113e-25
-3.69938e-24
-8.02413e-25
-5.8773e-25
-7.26967e-25
-3.07476e-25
-6.68342e-25
-2.82318e-24
-5.99864e-25
-2.54523e-24
-5.16212e-25
-3.23698e-25
-4.16058e-25
-3.94715e-27
-3.10901e-25
1.78194e-24
-1.93928e-25
2.11987e-24
-7.58645e-26
2.23087e-24
4.81615e-26
4.33395e-25
1.74677e-25
-1.68016e-25
2.93182e-25
-1.72876e-25
3.82149e-25
-4.65351e-26
-3.98549e-23
-1.43637e-24
-3.81571e-23
-1.40809e-24
-4.68885e-23
-1.26256e-24
-5.61445e-23
-1.05456e-24
-4.85397e-23
-8.93553e-25
-4.93271e-23
-3.37359e-25
-5.68709e-23
-4.64399e-25
-5.61044e-23
-3.59631e-25
-5.74595e-23
-2.26699e-25
-5.65282e-23
-2.68434e-25
-3.88487e-23
-3.32943e-25
-2.97486e-23
-3.89548e-25
-2.1242e-23
-8.54215e-25
-1.32106e-23
-1.12701e-24
-1.44764e-23
-1.26035e-24
-9.33586e-24
-1.3947e-24
-1.33108e-23
-1.76175e-24
-7.05305e-24
-1.96734e-24
-1.26563e-23
-2.02296e-24
4.16088e-24
-2.18607e-24
4.79307e-25
-2.23968e-24
6.70078e-24
-2.3188e-24
3.90735e-24
-2.48781e-24
1.15903e-24
-2.63318e-24
2.0251e-23
-2.62994e-24
2.44773e-23
-2.53928e-24
3.21642e-23
-2.52525e-24
3.25656e-23
-2.79073e-24
3.43403e-23
-2.81096e-24
3.45964e-23
-2.65733e-24
3.14186e-23
-2.8526e-24
3.30359e-23
-2.83131e-24
2.41219e-23
-2.90129e-24
4.88847e-23
-3.15864e-24
5.22693e-23
-3.38386e-24
2.77265e-23
-3.57055e-24
1.41691e-23
-3.92326e-24
2.69988e-23
-3.85801e-24
3.20733e-23
-3.87753e-24
3.19601e-23
-3.96719e-24
3.04462e-23
-3.99261e-24
1.76925e-23
-3.96363e-24
1.54886e-23
-3.97666e-24
3.04612e-23
-3.95963e-24
2.51299e-23
-4.05026e-24
1.98478e-23
-4.16968e-24
1.98146e-23
-4.19904e-24
5.40724e-24
-4.25995e-24
1.9174e-24
-4.33357e-24
-1.16766e-23
-4.32428e-24
1.36502e-23
-4.24137e-24
-2.21803e-25
-4.35883e-24
-1.31196e-23
-4.34302e-24
-2.67055e-23
-4.23613e-24
-2.47956e-23
-4.12509e-24
-2.22839e-23
-4.08538e-24
-4.26485e-23
-3.987e-24
-4.09608e-23
-3.81701e-24
-3.92488e-23
-3.6352e-24
-3.26374e-23
-3.44394e-24
-3.00037e-23
-3.32467e-24
-2.35794e-23
-3.16586e-24
-2.89883e-23
-3.0861e-24
-2.67066e-23
-3.02894e-24
-1.76174e-23
-2.88996e-24
-1.23027e-23
-2.76028e-24
-8.1691e-24
-2.67142e-24
-6.99001e-24
-2.53539e-24
-6.17479e-24
-2.42657e-24
-5.48761e-24
-2.30331e-24
-5.35095e-24
-2.2117e-24
-1.26234e-25
-2.1379e-24
-2.13343e-24
-2.0512e-24
-6.46216e-24
-1.95697e-24
-1.50562e-24
-1.86742e-24
-5.80694e-24
-1.77179e-24
3.1225e-24
-1.67512e-24
3.88248e-24
-1.58948e-24
-8.39323e-25
-1.49588e-24
-1.50214e-26
-1.4104e-24
5.26417e-25
-1.30259e-24
1.07951e-24
-1.21885e-24
1.61712e-24
-1.12497e-24
2.23121e-24
-1.01414e-24
2.96777e-25
-9.03943e-25
1.73886e-24
-7.74582e-25
2.10816e-24
-6.41771e-25
8.55148e-25
-4.96833e-25
5.54024e-25
-3.47095e-25
-3.90313e-25
-1.84718e-25
8.59078e-25
-2.20967e-26
4.23958e-25
1.38769e-25
2.82049e-26
2.80069e-25
5.53901e-26
3.84205e-25
2.47734e-26
-4.07944e-23
-5.39576e-24
-3.8313e-23
-5.12341e-24
-4.37232e-23
-4.71106e-24
-6.29127e-23
-4.24435e-24
-5.23645e-23
-3.72579e-24
-7.1365e-23
-3.91928e-24
-6.93911e-23
-3.65721e-24
-6.65486e-23
-3.6339e-24
-8.23816e-23
-3.50783e-24
-7.94267e-23
-2.91136e-24
-6.64066e-23
-3.1795e-24
-7.29314e-23
-2.67147e-24
-7.00844e-23
-2.75922e-24
-6.00173e-23
-2.72031e-24
-5.70279e-23
-2.57895e-24
-5.58865e-23
-2.74492e-24
-5.42721e-23
-2.70288e-24
-4.8471e-23
-2.60663e-24
-4.78582e-23
-3.08748e-24
-4.91813e-23
-3.12857e-24
-4.58251e-23
-3.76e-24
-6.47719e-23
-3.86341e-24
-6.41896e-23
-3.92301e-24
-6.30934e-23
-3.863e-24
-6.56963e-23
-3.90687e-24
-7.23562e-23
-4.11125e-24
-6.89102e-23
-4.37648e-24
-7.63586e-23
-4.32764e-24
-7.61975e-23
-4.30774e-24
-7.54776e-23
-4.28411e-24
-7.40348e-23
-4.14439e-24
-6.28661e-23
-4.26746e-24
-5.99528e-23
-4.03541e-24
-4.52401e-23
-3.75779e-24
-3.21851e-23
-3.39682e-24
-4.24413e-23
-3.22599e-24
-1.62649e-23
-3.01759e-24
1.36978e-24
-2.81177e-24
-7.58554e-25
-2.81801e-24
7.02909e-24
-2.83542e-24
-1.94091e-23
-2.76059e-24
-1.97696e-23
-2.54912e-24
-8.52064e-24
-2.3207e-24
1.68966e-24
-2.10613e-24
-1.00692e-23
-2.11854e-24
-4.46768e-24
-2.00366e-24
7.04646e-24
-1.98545e-24
-1.88358e-24
-1.92821e-24
-2.38259e-24
-1.77644e-24
-3.42425e-24
-1.72797e-24
4.8624e-24
-1.74973e-24
-6.04903e-24
-1.63545e-24
-3.01631e-24
-1.54268e-24
-4.64145e-24
-1.417e-24
2.41969e-24
-1.30217e-24
-3.74744e-24
-1.18463e-24
9.92445e-24
-1.07363e-24
8.11088e-24
-1.02785e-24
6.16052e-24
-9.57809e-25
4.75342e-24
-9.64057e-25
2.86018e-24
-8.55519e-25
-9.95318e-24
-8.00705e-25
-1.15395e-23
-7.46434e-25
-4.79523e-24
-6.29286e-25
8.45583e-25
-5.93862e-25
8.87388e-24
-5.4172e-25
6.71429e-24
-5.1562e-25
4.52845e-24
-4.26891e-25
4.93081e-24
-3.84638e-25
5.91123e-24
-3.54341e-25
9.24292e-24
-3.2643e-25
4.79782e-24
-2.78594e-25
7.2989e-24
-2.40725e-25
5.19604e-24
-2.31903e-25
2.73298e-24
-1.97613e-25
7.85193e-24
-1.63397e-25
6.17592e-24
-1.49533e-25
6.9277e-24
-1.27663e-25
5.74827e-24
-1.09323e-25
1.17547e-24
-7.4516e-26
1.93083e-25
-6.69151e-26
-6.29917e-25
-4.61443e-26
-1.41219e-24
-1.53813e-26
-2.13633e-24
4.28925e-27
1.76337e-24
3.34171e-26
2.73511e-24
6.40716e-26
3.38443e-24
9.16096e-26
2.76448e-24
1.38504e-25
8.23637e-25
1.80963e-25
-7.32134e-25
2.316e-25
2.29705e-25
2.71078e-25
-7.76345e-25
2.9355e-25
-3.55214e-25
2.83536e-25
1.87272e-26
2.17247e-25
3.6347e-26
-2.41886e-23
-3.93917e-24
-1.51438e-24
-4.05331e-24
-3.90298e-25
-4.16632e-24
1.5475e-24
-4.22739e-24
-1.98671e-23
-4.33236e-24
-1.13341e-23
-3.82315e-24
-3.21234e-23
-3.57221e-24
-2.39812e-23
-3.64452e-24
-2.58916e-23
-3.74781e-24
-3.69424e-23
-3.77946e-24
-6.06431e-24
-3.84457e-24
-2.82667e-23
-3.99165e-24
-1.57506e-23
-4.01951e-24
-1.57941e-23
-3.91963e-24
-2.49847e-23
-4.18589e-24
-2.63297e-23
-4.14157e-24
-2.48153e-23
-4.46737e-24
-4.41423e-23
-4.51634e-24
-3.94834e-23
-4.00505e-24
-4.11467e-23
-3.99771e-24
-2.8976e-23
-3.82276e-24
-2.50784e-23
-4.01221e-24
-1.42566e-23
-3.82467e-24
-1.54284e-23
-3.82973e-24
-1.32967e-23
-3.93628e-24
-2.92117e-24
-3.67659e-24
1.89649e-23
-3.49237e-24
2.24684e-23
-3.31379e-24
3.38043e-23
-3.22546e-24
3.53173e-23
-3.28476e-24
3.03125e-23
-2.98448e-24
3.93966e-23
-2.69317e-24
5.07104e-23
-2.33254e-24
6.17934e-23
-1.98547e-24
5.00173e-23
-1.63411e-24
4.47487e-23
-1.64965e-24
4.40413e-23
-1.16947e-24
1.3775e-23
-1.09137e-24
1.13608e-23
-8.90599e-25
2.45722e-23
-5.58194e-25
3.85724e-23
-3.91574e-25
2.48317e-23
-2.57717e-25
2.49791e-23
-1.12314e-25
9.94865e-24
-6.24163e-26
1.03239e-23
3.14002e-26
1.99622e-23
1.07919e-25
2.35471e-23
3.61419e-25
2.78508e-23
4.57551e-25
2.89945e-23
4.9028e-25
2.80507e-23
5.15371e-25
3.31778e-23
6.14128e-25
3.63475e-23
6.57986e-25
3.82081e-23
7.46086e-25
4.67785e-23
6.99783e-25
4.71815e-23
7.60797e-25
4.68566e-23
7.88522e-25
3.04446e-23
7.87627e-25
3.35219e-23
8.52495e-25
3.38551e-23
8.32585e-25
3.71964e-23
8.26151e-25
2.96041e-23
8.36005e-25
2.90626e-23
8.11727e-25
2.80704e-23
9.13553e-25
2.67037e-23
9.96596e-25
2.51236e-23
9.94879e-25
3.05353e-23
1.04667e-24
2.24949e-23
1.02725e-24
2.42543e-23
1.00641e-24
1.70453e-23
1.00184e-24
1.48885e-23
1.00471e-24
1.54054e-23
1.00709e-24
5.14687e-24
9.68161e-25
2.99184e-24
9.8714e-25
8.59684e-24
9.90633e-25
6.8282e-24
1.00846e-24
5.80021e-24
1.01203e-24
4.97058e-24
1.01227e-24
4.17664e-24
1.00654e-24
3.45951e-24
9.95296e-25
1.07594e-24
9.76723e-25
3.84409e-24
9.67812e-25
5.51782e-24
9.42142e-25
4.54432e-24
9.04952e-25
3.795e-24
8.84853e-25
4.23141e-24
8.52875e-25
3.54061e-24
8.26008e-25
2.93337e-24
7.95997e-25
2.30443e-24
7.7139e-25
3.04857e-24
7.44358e-25
1.28612e-24
7.07552e-25
8.87391e-25
6.53358e-25
5.91966e-25
5.67562e-25
4.33246e-25
4.3091e-25
1.72436e-25
2.14941e-25
2.19933e-25
-4.03794e-24
-3.41139e-24
-1.14266e-23
-3.88294e-24
-1.78456e-23
-4.13519e-24
-1.71393e-23
-4.71063e-24
-1.7379e-23
-4.85309e-24
-2.53128e-23
-5.12218e-24
-5.64338e-23
-5.06489e-24
-5.55006e-23
-4.26395e-24
-5.42406e-23
-3.70843e-24
-5.24294e-23
-3.58614e-24
-5.21481e-23
-3.29842e-24
-4.42782e-23
-2.92049e-24
-2.54197e-23
-2.87933e-24
-3.22922e-23
-3.31081e-24
-2.27298e-23
-3.02475e-24
-2.24283e-23
-2.83747e-24
-6.41673e-24