/*--------------------------------*- C++ -*----------------------------------*\
  =========                 |
  \\      /  F ield         | OpenFOAM: The Open Source CFD Toolbox
   \\    /   O peration     | Website:  https://openfoam.org
    \\  /    A nd           | Version:  7
     \\/     M anipulation  |
\*---------------------------------------------------------------------------*/
FoamFile
{
    version     2.0;
    format      ascii;
    class       volScalarField;
    location    "12000";
    object      k;
}
// * * * * * * * * * * * * * * * * * * * * * * * * * * * * * * * * * * * * * //

dimensions      [0 2 -2 0 0 0 0];

internalField   nonuniform List<scalar> 
4783
(
5.63195e-07
5.60096e-07
5.57159e-07
5.54356e-07
5.51684e-07
5.49141e-07
5.46724e-07
5.44432e-07
5.42265e-07
5.40224e-07
5.38308e-07
5.36517e-07
5.34853e-07
5.33315e-07
5.31904e-07
5.3062e-07
5.29463e-07
5.28434e-07
5.27533e-07
5.26759e-07
5.26115e-07
5.25598e-07
5.68517e-07
5.65509e-07
5.62579e-07
5.59747e-07
5.57031e-07
5.54436e-07
5.51965e-07
5.49618e-07
5.47398e-07
5.45303e-07
5.43335e-07
5.41494e-07
5.39782e-07
5.38199e-07
5.36745e-07
5.35421e-07
5.34228e-07
5.33167e-07
5.32237e-07
5.31438e-07
5.30772e-07
5.30238e-07
5.74047e-07
5.7101e-07
5.6807e-07
5.65219e-07
5.62471e-07
5.59836e-07
5.5732e-07
5.54927e-07
5.52658e-07
5.50516e-07
5.48501e-07
5.46615e-07
5.44859e-07
5.43233e-07
5.4174e-07
5.4038e-07
5.39154e-07
5.38062e-07
5.37105e-07
5.36282e-07
5.35597e-07
5.35047e-07
5.7974e-07
5.7665e-07
5.73675e-07
5.70794e-07
5.68014e-07
5.65344e-07
5.62788e-07
5.60354e-07
5.58042e-07
5.55857e-07
5.53799e-07
5.51871e-07
5.50075e-07
5.48411e-07
5.46882e-07
5.45488e-07
5.4423e-07
5.4311e-07
5.42128e-07
5.41284e-07
5.4058e-07
5.40015e-07
5.85561e-07
5.82419e-07
5.79399e-07
5.7648e-07
5.73665e-07
5.70959e-07
5.68368e-07
5.65895e-07
5.63544e-07
5.61319e-07
5.59223e-07
5.57257e-07
5.55424e-07
5.53725e-07
5.52162e-07
5.50737e-07
5.4945e-07
5.48303e-07
5.47298e-07
5.46433e-07
5.45712e-07
5.45133e-07
5.91491e-07
5.88301e-07
5.85236e-07
5.82277e-07
5.79424e-07
5.76682e-07
5.74055e-07
5.71545e-07
5.69159e-07
5.66898e-07
5.64765e-07
5.62764e-07
5.60897e-07
5.59166e-07
5.57572e-07
5.56117e-07
5.54804e-07
5.53633e-07
5.52605e-07
5.51722e-07
5.50985e-07
5.50394e-07
5.97514e-07
5.94282e-07
5.91175e-07
5.88176e-07
5.85286e-07
5.82508e-07
5.79845e-07
5.77302e-07
5.7488e-07
5.72586e-07
5.7042e-07
5.68386e-07
5.66487e-07
5.64726e-07
5.63104e-07
5.61622e-07
5.60284e-07
5.5909e-07
5.58042e-07
5.57142e-07
5.5639e-07
5.55787e-07
6.0362e-07
6.0035e-07
5.97205e-07
5.94168e-07
5.91242e-07
5.8843e-07
5.85733e-07
5.83157e-07
5.80703e-07
5.78376e-07
5.76179e-07
5.74115e-07
5.72187e-07
5.70398e-07
5.68749e-07
5.67243e-07
5.65882e-07
5.64668e-07
5.63602e-07
5.62685e-07
5.61919e-07
5.61304e-07
6.09797e-07
6.06495e-07
6.03315e-07
6.00244e-07
5.97285e-07
5.9444e-07
5.91712e-07
5.89104e-07
5.8662e-07
5.84263e-07
5.82037e-07
5.79945e-07
5.7799e-07
5.76175e-07
5.74502e-07
5.72973e-07
5.71591e-07
5.70357e-07
5.69274e-07
5.68343e-07
5.67564e-07
5.66939e-07
6.16038e-07
6.12708e-07
6.09498e-07
6.06397e-07
6.03406e-07
6.00531e-07
5.97774e-07
5.95137e-07
5.92624e-07
5.9024e-07
5.87987e-07
5.85869e-07
5.83888e-07
5.82049e-07
5.80353e-07
5.78804e-07
5.77402e-07
5.76151e-07
5.75052e-07
5.74107e-07
5.73316e-07
5.72682e-07
6.22336e-07
6.18981e-07
6.15745e-07
6.12616e-07
6.09598e-07
6.06696e-07
6.03911e-07
6.01247e-07
5.98709e-07
5.96299e-07
5.94021e-07
5.91879e-07
5.89876e-07
5.88014e-07
5.86298e-07
5.84728e-07
5.83309e-07
5.82042e-07
5.80928e-07
5.7997e-07
5.79169e-07
5.78526e-07
6.28683e-07
6.25307e-07
6.22048e-07
6.18896e-07
6.15853e-07
6.12925e-07
6.10116e-07
6.07428e-07
6.04866e-07
6.02433e-07
6.00132e-07
5.97968e-07
5.95944e-07
5.94062e-07
5.92326e-07
5.90739e-07
5.89303e-07
5.88021e-07
5.86894e-07
5.85924e-07
5.85114e-07
5.84463e-07
6.35072e-07
6.31678e-07
6.284e-07
6.25227e-07
6.22164e-07
6.19214e-07
6.16383e-07
6.13674e-07
6.1109e-07
6.08635e-07
6.06314e-07
6.04129e-07
6.02086e-07
6.00185e-07
5.98432e-07
5.96829e-07
5.95378e-07
5.94082e-07
5.92943e-07
5.91964e-07
5.91143e-07
5.90485e-07
6.41498e-07
6.3809e-07
6.34796e-07
6.31605e-07
6.28523e-07
6.25555e-07
6.22705e-07
6.19976e-07
6.17373e-07
6.14899e-07
6.12559e-07
6.10357e-07
6.08296e-07
6.06379e-07
6.0461e-07
6.02992e-07
6.01527e-07
6.00219e-07
5.99069e-07
5.9808e-07
5.97251e-07
5.96586e-07
6.47955e-07
6.44535e-07
6.41228e-07
6.38023e-07
6.34925e-07
6.31941e-07
6.29075e-07
6.26329e-07
6.23709e-07
6.21218e-07
6.18862e-07
6.16643e-07
6.14567e-07
6.12635e-07
6.10851e-07
6.0922e-07
6.07744e-07
6.06424e-07
6.05264e-07
6.04266e-07
6.54437e-07
6.5101e-07
6.47691e-07
6.44474e-07
6.41365e-07
6.38367e-07
6.35486e-07
6.32726e-07
6.30092e-07
6.27586e-07
6.25215e-07
6.22983e-07
6.20893e-07
6.18947e-07
6.17151e-07
6.15508e-07
6.1402e-07
6.12691e-07
6.11522e-07
6.6094e-07
6.57507e-07
6.54181e-07
6.50955e-07
6.47835e-07
6.44826e-07
6.41934e-07
6.39162e-07
6.36515e-07
6.33997e-07
6.31614e-07
6.29369e-07
6.27267e-07
6.2531e-07
6.23502e-07
6.21849e-07
6.20351e-07
6.67458e-07
6.64023e-07
6.60691e-07
6.57459e-07
6.54332e-07
6.51314e-07
6.48412e-07
6.45631e-07
6.42973e-07
6.40445e-07
6.38051e-07
6.35796e-07
6.33683e-07
6.31716e-07
6.73988e-07
6.70551e-07
6.67217e-07
6.63982e-07
6.60849e-07
6.57825e-07
6.54916e-07
6.52127e-07
6.49461e-07
6.46925e-07
6.44522e-07
6.42257e-07
6.80524e-07
6.77089e-07
6.73755e-07
6.70518e-07
6.67382e-07
6.64354e-07
6.61441e-07
6.58645e-07
6.55974e-07
6.5343e-07
6.87062e-07
6.83632e-07
6.803e-07
6.77063e-07
6.73927e-07
6.70897e-07
6.6798e-07
6.65181e-07
6.62505e-07
6.936e-07
6.90175e-07
6.86848e-07
6.83614e-07
6.80478e-07
6.77449e-07
6.74531e-07
6.7173e-07
7.00132e-07
6.96716e-07
6.93395e-07
6.90165e-07
6.87032e-07
6.84005e-07
6.81088e-07
7.06656e-07
7.03249e-07
6.99937e-07
6.96713e-07
6.93586e-07
6.90563e-07
7.13168e-07
7.09773e-07
7.0647e-07
7.03254e-07
7.00134e-07
6.97117e-07
7.19664e-07
7.16282e-07
7.1299e-07
7.09786e-07
7.06674e-07
7.26142e-07
7.22776e-07
7.19497e-07
7.16303e-07
7.32598e-07
7.29248e-07
7.25985e-07
7.22804e-07
7.3903e-07
7.35699e-07
7.32451e-07
7.45436e-07
7.42124e-07
7.38893e-07
7.51812e-07
7.48521e-07
7.4531e-07
7.58157e-07
7.54889e-07
7.51697e-07
7.64469e-07
7.61223e-07
7.58053e-07
7.70744e-07
7.67523e-07
7.64375e-07
7.76981e-07
7.73785e-07
7.70661e-07
7.83178e-07
7.80008e-07
7.76908e-07
7.89334e-07
7.86191e-07
7.83116e-07
7.95445e-07
7.92331e-07
7.89283e-07
8.01512e-07
7.98426e-07
7.95406e-07
8.07531e-07
8.04475e-07
8.01483e-07
8.13501e-07
8.10476e-07
8.07513e-07
8.19422e-07
8.16428e-07
8.13494e-07
5.63196e-07
5.68517e-07
5.74048e-07
5.7974e-07
5.85562e-07
5.91491e-07
5.97515e-07
6.0362e-07
6.09798e-07
6.16039e-07
6.22337e-07
6.28683e-07
6.35073e-07
6.41499e-07
6.47956e-07
6.54438e-07
6.6094e-07
6.67459e-07
6.73989e-07
6.80525e-07
6.87063e-07
6.93601e-07
7.00134e-07
7.06657e-07
7.13169e-07
7.19664e-07
7.26142e-07
7.32598e-07
7.39031e-07
7.45436e-07
7.51813e-07
7.58158e-07
7.64469e-07
7.70744e-07
7.76981e-07
7.83179e-07
7.89334e-07
7.95446e-07
8.01512e-07
8.07531e-07
8.13502e-07
8.19423e-07
5.60098e-07
5.65511e-07
5.71012e-07
5.76652e-07
5.82421e-07
5.88303e-07
5.94284e-07
6.00352e-07
6.06498e-07
6.1271e-07
6.18983e-07
6.25309e-07
6.31681e-07
6.38092e-07
6.44538e-07
6.51012e-07
6.57509e-07
6.64024e-07
6.70553e-07
6.77092e-07
6.83635e-07
6.90179e-07
6.96719e-07
7.03253e-07
7.09776e-07
7.16285e-07
7.22778e-07
7.29251e-07
7.35701e-07
7.42127e-07
7.48524e-07
7.54891e-07
7.61225e-07
7.67524e-07
7.73786e-07
7.8001e-07
7.86192e-07
7.92331e-07
7.98426e-07
8.04476e-07
8.10477e-07
8.16428e-07
5.57162e-07
5.62581e-07
5.68073e-07
5.73678e-07
5.79402e-07
5.85239e-07
5.91178e-07
5.97208e-07
6.03319e-07
6.09502e-07
6.15748e-07
6.22051e-07
6.28404e-07
6.34799e-07
6.41232e-07
6.47696e-07
6.54185e-07
6.60695e-07
6.67221e-07
6.73759e-07
6.80304e-07
6.86852e-07
6.93399e-07
6.9994e-07
7.06474e-07
7.12995e-07
7.19501e-07
7.25989e-07
7.32455e-07
7.38898e-07
7.45314e-07
7.51701e-07
7.58057e-07
7.64378e-07
7.70665e-07
7.76912e-07
7.8312e-07
7.89285e-07
7.95407e-07
8.01484e-07
8.07514e-07
8.13495e-07
5.5436e-07
5.59751e-07
5.65223e-07
5.70798e-07
5.76485e-07
5.82281e-07
5.8818e-07
5.94173e-07
6.0025e-07
6.06402e-07
6.12621e-07
6.189e-07
6.25232e-07
6.3161e-07
6.38028e-07
6.44481e-07
6.50962e-07
6.57466e-07
6.63988e-07
6.70524e-07
6.7707e-07
6.8362e-07
6.90171e-07
6.9672e-07
7.03261e-07
7.09793e-07
7.1631e-07
7.22811e-07
7.29293e-07
7.35752e-07
7.42186e-07
7.48591e-07
7.54966e-07
7.61309e-07
7.67617e-07
7.73888e-07
7.80119e-07
7.8631e-07
7.92456e-07
7.98559e-07
8.04616e-07
8.10625e-07
5.5169e-07
5.57036e-07
5.62476e-07
5.6802e-07
5.73672e-07
5.79431e-07
5.85292e-07
5.91248e-07
5.97292e-07
6.03413e-07
6.09605e-07
6.1586e-07
6.2217e-07
6.2853e-07
6.34933e-07
6.41372e-07
6.47843e-07
6.5434e-07
6.60857e-07
6.67391e-07
6.73936e-07
6.80488e-07
6.87043e-07
6.93597e-07
7.00146e-07
7.06686e-07
7.13214e-07
7.19726e-07
7.26221e-07
7.32695e-07
7.39145e-07
7.45568e-07
7.51962e-07
7.58324e-07
7.64651e-07
7.70943e-07
7.77196e-07
7.8341e-07
7.89581e-07
7.95708e-07
8.01791e-07
8.07826e-07
5.49147e-07
5.54442e-07
5.59843e-07
5.6535e-07
5.70967e-07
5.7669e-07
5.82516e-07
5.88437e-07
5.94448e-07
6.00539e-07
6.06704e-07
6.12934e-07
6.19223e-07
6.25564e-07
6.31951e-07
6.38376e-07
6.44836e-07
6.51325e-07
6.57836e-07
6.64366e-07
6.70909e-07
6.77462e-07
6.84019e-07
6.90577e-07
6.97131e-07
7.03679e-07
7.10215e-07
7.16739e-07
7.23246e-07
7.29733e-07
7.36197e-07
7.42636e-07
7.49047e-07
7.55427e-07
7.61773e-07
7.68085e-07
7.7436e-07
7.80596e-07
7.8679e-07
7.92941e-07
7.99047e-07
8.05107e-07
5.4673e-07
5.51972e-07
5.57327e-07
5.62797e-07
5.68376e-07
5.74064e-07
5.79854e-07
5.85742e-07
5.91721e-07
5.97783e-07
6.0392e-07
6.10126e-07
6.16393e-07
6.22715e-07
6.29085e-07
6.35497e-07
6.41945e-07
6.48425e-07
6.54929e-07
6.61454e-07
6.67995e-07
6.74546e-07
6.81105e-07
6.87666e-07
6.94225e-07
7.00779e-07
7.07324e-07
7.13856e-07
7.20374e-07
7.26873e-07
7.33351e-07
7.39804e-07
7.46231e-07
7.52627e-07
7.58992e-07
7.65322e-07
7.71616e-07
7.77872e-07
7.84087e-07
7.9026e-07
7.96389e-07
8.02473e-07
5.44439e-07
5.49626e-07
5.54935e-07
5.60362e-07
5.65904e-07
5.71555e-07
5.77312e-07
5.83167e-07
5.89115e-07
5.95148e-07
6.01258e-07
6.0744e-07
6.13685e-07
6.19988e-07
6.26341e-07
6.3274e-07
6.39176e-07
6.45645e-07
6.52142e-07
6.58662e-07
6.65199e-07
6.71749e-07
6.78307e-07
6.8487e-07
6.91433e-07
6.97992e-07
7.04544e-07
7.11085e-07
7.17612e-07
7.24123e-07
7.30612e-07
7.37079e-07
7.43519e-07
7.49932e-07
7.56313e-07
7.62661e-07
7.68973e-07
7.75248e-07
7.81483e-07
7.87677e-07
7.93827e-07
7.99933e-07
5.42273e-07
5.47405e-07
5.52667e-07
5.58052e-07
5.63554e-07
5.69169e-07
5.74892e-07
5.80715e-07
5.86632e-07
5.92637e-07
5.98722e-07
6.0488e-07
6.11104e-07
6.17387e-07
6.23724e-07
6.30108e-07
6.36531e-07
6.42991e-07
6.4948e-07
6.55993e-07
6.62526e-07
6.69074e-07
6.75632e-07
6.82196e-07
6.88762e-07
6.95325e-07
7.01883e-07
7.08431e-07
7.14967e-07
7.21487e-07
7.27988e-07
7.34467e-07
7.40921e-07
7.47347e-07
7.53743e-07
7.60106e-07
7.66435e-07
7.72728e-07
7.78982e-07
7.85195e-07
7.91365e-07
7.97491e-07
5.40232e-07
5.45312e-07
5.50526e-07
5.55867e-07
5.6133e-07
5.66909e-07
5.72598e-07
5.7839e-07
5.84278e-07
5.90255e-07
5.96315e-07
6.02449e-07
6.08653e-07
6.14917e-07
6.21237e-07
6.27605e-07
6.34017e-07
6.40466e-07
6.46946e-07
6.53454e-07
6.59982e-07
6.66526e-07
6.73083e-07
6.79648e-07
6.86216e-07
6.92783e-07
6.99345e-07
7.059e-07
7.12443e-07
7.18972e-07
7.25483e-07
7.31973e-07
7.38439e-07
7.44879e-07
7.51289e-07
7.57668e-07
7.64012e-07
7.70321e-07
7.76592e-07
7.82823e-07
7.89012e-07
7.95157e-07
5.38316e-07
5.43344e-07
5.48511e-07
5.53811e-07
5.59235e-07
5.64779e-07
5.70434e-07
5.76195e-07
5.82054e-07
5.88004e-07
5.94039e-07
6.00151e-07
6.06334e-07
6.12581e-07
6.18884e-07
6.25238e-07
6.31637e-07
6.38075e-07
6.44547e-07
6.51048e-07
6.57571e-07
6.64113e-07
6.70668e-07
6.77232e-07
6.83801e-07
6.90371e-07
6.96938e-07
7.03499e-07
7.10049e-07
7.16586e-07
7.23105e-07
7.29604e-07
7.36081e-07
7.42533e-07
7.48956e-07
7.55349e-07
7.61709e-07
7.68033e-07
7.7432e-07
7.80567e-07
7.86773e-07
7.92935e-07
5.36527e-07
5.41505e-07
5.46627e-07
5.51885e-07
5.57271e-07
5.62779e-07
5.68402e-07
5.74133e-07
5.79964e-07
5.85889e-07
5.91899e-07
5.97989e-07
6.04152e-07
6.10381e-07
6.16669e-07
6.23009e-07
6.29396e-07
6.35825e-07
6.42288e-07
6.48781e-07
6.55299e-07
6.61836e-07
6.6839e-07
6.74953e-07
6.81523e-07
6.88096e-07
6.94666e-07
7.01232e-07
7.07787e-07
7.14331e-07
7.20859e-07
7.27367e-07
7.33853e-07
7.40315e-07
7.4675e-07
7.53155e-07
7.59527e-07
7.65865e-07
7.72167e-07
7.78429e-07
7.84651e-07
7.9083e-07
7.96965e-07
5.34863e-07
5.39794e-07
5.44872e-07
5.5009e-07
5.55439e-07
5.60913e-07
5.66504e-07
5.72206e-07
5.78011e-07
5.83911e-07
5.89898e-07
5.95968e-07
6.02112e-07
6.08323e-07
6.14595e-07
6.20922e-07
6.27297e-07
6.33715e-07
6.4017e-07
6.46656e-07
6.5317e-07
6.59703e-07
6.66254e-07
6.72817e-07
6.79388e-07
6.85962e-07
6.92535e-07
6.99103e-07
7.05664e-07
7.12214e-07
7.18749e-07
7.25265e-07
7.3176e-07
7.38232e-07
7.44678e-07
7.51094e-07
7.57479e-07
7.6383e-07
7.70144e-07
7.7642e-07
7.82656e-07
7.88851e-07
7.95002e-07
8.01107e-07
5.33326e-07
5.38211e-07
5.43248e-07
5.48427e-07
5.53741e-07
5.59183e-07
5.64744e-07
5.70418e-07
5.76197e-07
5.82073e-07
5.88039e-07
5.94089e-07
6.00215e-07
6.06409e-07
6.12667e-07
6.18981e-07
6.25345e-07
6.31753e-07
6.382e-07
6.44679e-07
6.51187e-07
6.57717e-07
6.64265e-07
6.70827e-07
6.77397e-07
6.83973e-07
6.90548e-07
6.9712e-07
7.03685e-07
7.1024e-07
7.1678e-07
7.23304e-07
7.29807e-07
7.36287e-07
7.42742e-07
7.49169e-07
7.55564e-07
7.61927e-07
7.68254e-07
7.74543e-07
7.80793e-07
7.87002e-07
7.93167e-07
7.99288e-07
5.31916e-07
5.36759e-07
5.41756e-07
5.46899e-07
5.5218e-07
5.5759e-07
5.63123e-07
5.68771e-07
5.74526e-07
5.80379e-07
5.86325e-07
5.92356e-07
5.98464e-07
6.04644e-07
6.10888e-07
6.17189e-07
6.23542e-07
6.29941e-07
6.36379e-07
6.42852e-07
6.49354e-07
6.55881e-07
6.62426e-07
6.68987e-07
6.75557e-07
6.82133e-07
6.8871e-07
6.95285e-07
7.01854e-07
7.08413e-07
7.14959e-07
7.21489e-07
7.28e-07
7.34488e-07
7.40951e-07
7.47387e-07
7.53792e-07
7.60164e-07
7.66502e-07
7.72804e-07
7.79066e-07
7.85287e-07
7.91466e-07
7.976e-07
8.03688e-07
5.30633e-07
5.35436e-07
5.40396e-07
5.45506e-07
5.50755e-07
5.56137e-07
5.61644e-07
5.67267e-07
5.72999e-07
5.78831e-07
5.84758e-07
5.90772e-07
5.96864e-07
6.03029e-07
6.0926e-07
6.1555e-07
6.21892e-07
6.28282e-07
6.34713e-07
6.41179e-07
6.47676e-07
6.54199e-07
6.60742e-07
6.67301e-07
6.7387e-07
6.80446e-07
6.87024e-07
6.93601e-07
7.00173e-07
7.06737e-07
7.13287e-07
7.19823e-07
7.2634e-07
7.32836e-07
7.39307e-07
7.45751e-07
7.52165e-07
7.58547e-07
7.64895e-07
7.71207e-07
7.77481e-07
7.83714e-07
7.89905e-07
7.96051e-07
8.02152e-07
5.29477e-07
5.34244e-07
5.39171e-07
5.44249e-07
5.4947e-07
5.54825e-07
5.60307e-07
5.65908e-07
5.71619e-07
5.77432e-07
5.83341e-07
5.89338e-07
5.95415e-07
6.01567e-07
6.07786e-07
6.14065e-07
6.20399e-07
6.2678e-07
6.33204e-07
6.39665e-07
6.46157e-07
6.52675e-07
6.59216e-07
6.65772e-07
6.7234e-07
6.78916e-07
6.85495e-07
6.92075e-07
6.98649e-07
7.05216e-07
7.11771e-07
7.18312e-07
7.24834e-07
7.31336e-07
7.37814e-07
7.44265e-07
7.50688e-07
7.57079e-07
7.63436e-07
7.69758e-07
7.76042e-07
7.82285e-07
7.88487e-07
7.94644e-07
8.00756e-07
8.06821e-07
5.28449e-07
5.33183e-07
5.38079e-07
5.43129e-07
5.48324e-07
5.53656e-07
5.59115e-07
5.64695e-07
5.70387e-07
5.76183e-07
5.82075e-07
5.88057e-07
5.94121e-07
6.00261e-07
6.06469e-07
6.12738e-07
6.19063e-07
6.25437e-07
6.31855e-07
6.3831e-07
6.44797e-07
6.51312e-07
6.57849e-07
6.64404e-07
6.70971e-07
6.77547e-07
6.84128e-07
6.90709e-07
6.97285e-07
7.03855e-07
7.10414e-07
7.16959e-07
7.23486e-07
7.29994e-07
7.36478e-07
7.42936e-07
7.49365e-07
7.55764e-07
7.62129e-07
7.68459e-07
7.74751e-07
7.81004e-07
7.87215e-07
7.93382e-07
7.99504e-07
8.05579e-07
8.11606e-07
5.27549e-07
5.32254e-07
5.37123e-07
5.42148e-07
5.4732e-07
5.5263e-07
5.58069e-07
5.63631e-07
5.69305e-07
5.75086e-07
5.80964e-07
5.86933e-07
5.92985e-07
5.99113e-07
6.05311e-07
6.11572e-07
6.17889e-07
6.24257e-07
6.30669e-07
6.37119e-07
6.43603e-07
6.50114e-07
6.56649e-07
6.63201e-07
6.69768e-07
6.76344e-07
6.82924e-07
6.89506e-07
6.96085e-07
7.02657e-07
7.09219e-07
7.15768e-07
7.22299e-07
7.28812e-07
7.35301e-07
7.41764e-07
7.482e-07
7.54606e-07
7.60978e-07
7.67316e-07
7.73615e-07
7.79875e-07
7.86093e-07
7.92269e-07
7.984e-07
8.04484e-07
8.10521e-07
5.26777e-07
5.31457e-07
5.36303e-07
5.41306e-07
5.46457e-07
5.51748e-07
5.57171e-07
5.62716e-07
5.68376e-07
5.74142e-07
5.80008e-07
5.85965e-07
5.92007e-07
5.98125e-07
6.04314e-07
6.10567e-07
6.16878e-07
6.2324e-07
6.29647e-07
6.36092e-07
6.42573e-07
6.49082e-07
6.55615e-07
6.62166e-07
6.68731e-07
6.75307e-07
6.81888e-07
6.8847e-07
6.95051e-07
7.01625e-07
7.08189e-07
7.1474e-07
7.21275e-07
7.27791e-07
7.34284e-07
7.40753e-07
7.47194e-07
7.53606e-07
7.59984e-07
7.66327e-07
7.72634e-07
7.78901e-07
7.85127e-07
7.9131e-07
7.97449e-07
8.03542e-07
8.09587e-07
5.26134e-07
5.30792e-07
5.35618e-07
5.40603e-07
5.45738e-07
5.51013e-07
5.5642e-07
5.61951e-07
5.67599e-07
5.73354e-07
5.79209e-07
5.85156e-07
5.91189e-07
5.973e-07
6.03481e-07
6.09728e-07
6.16032e-07
6.22389e-07
6.28792e-07
6.35234e-07
6.41711e-07
6.48218e-07
6.54748e-07
6.61298e-07
6.67863e-07
6.74439e-07
6.81019e-07
6.87602e-07
6.94184e-07
7.00759e-07
7.07326e-07
7.1388e-07
7.20417e-07
7.26936e-07
7.33433e-07
7.39905e-07
7.46351e-07
7.52766e-07
7.5915e-07
7.655e-07
7.71812e-07
7.78085e-07
7.84318e-07
7.90507e-07
7.96652e-07
8.02751e-07
8.08801e-07
5.25618e-07
5.3026e-07
5.3507e-07
5.4004e-07
5.45161e-07
5.50423e-07
5.55819e-07
5.61339e-07
5.66976e-07
5.72722e-07
5.78568e-07
5.84508e-07
5.90533e-07
5.96638e-07
6.02813e-07
6.09054e-07
6.15354e-07
6.21706e-07
6.28106e-07
6.34545e-07
6.41019e-07
6.47524e-07
6.54053e-07
6.60601e-07
6.67165e-07
6.7374e-07
6.80321e-07
6.86905e-07
6.93488e-07
7.00065e-07
7.06633e-07
7.13188e-07
7.19729e-07
7.2625e-07
7.3275e-07
7.39226e-07
7.45674e-07
7.52092e-07
7.58479e-07
7.64832e-07
7.71148e-07
7.77426e-07
7.83664e-07
7.89859e-07
7.96009e-07
8.02114e-07
8.08171e-07
8.14178e-07
5.25231e-07
5.2986e-07
5.34659e-07
5.39618e-07
5.44727e-07
5.4998e-07
5.55367e-07
5.60879e-07
5.66508e-07
5.72247e-07
5.78087e-07
5.84021e-07
5.90041e-07
5.96139e-07
6.02311e-07
6.08548e-07
6.14844e-07
6.21194e-07
6.27589e-07
6.34027e-07
6.40499e-07
6.47002e-07
6.5353e-07
6.60077e-07
6.66641e-07
6.73215e-07
6.79797e-07
6.86381e-07
6.92965e-07
6.99543e-07
7.06112e-07
7.12669e-07
7.19211e-07
7.25734e-07
7.32236e-07
7.38713e-07
7.45164e-07
7.51585e-07
7.57975e-07
7.64331e-07
7.7065e-07
7.7693e-07
7.83171e-07
7.89369e-07
7.95523e-07
8.01632e-07
8.07692e-07
8.13704e-07
5.24974e-07
5.29594e-07
5.34384e-07
5.39336e-07
5.44438e-07
5.49684e-07
5.55065e-07
5.60571e-07
5.66196e-07
5.7193e-07
5.77765e-07
5.83695e-07
5.89711e-07
5.95807e-07
6.01975e-07
6.08209e-07
6.14503e-07
6.2085e-07
6.27245e-07
6.33681e-07
6.40152e-07
6.46653e-07
6.5318e-07
6.59727e-07
6.6629e-07
6.72864e-07
6.79445e-07
6.8603e-07
6.92614e-07
6.99192e-07
7.05762e-07
7.12319e-07
7.18862e-07
7.25387e-07
7.3189e-07
7.3837e-07
7.44823e-07
7.51246e-07
7.57637e-07
7.63994e-07
7.70316e-07
7.76599e-07
7.82841e-07
7.89042e-07
7.95199e-07
8.01311e-07
8.07374e-07
8.13389e-07
8.19354e-07
5.24844e-07
5.2946e-07
5.34247e-07
5.39194e-07
5.44293e-07
5.49536e-07
5.54914e-07
5.60418e-07
5.6604e-07
5.71771e-07
5.77605e-07
5.83532e-07
5.89546e-07
5.9564e-07
6.01807e-07
6.0804e-07
6.14332e-07
6.20678e-07
6.27071e-07
6.33506e-07
6.39977e-07
6.46479e-07
6.53005e-07
6.59551e-07
6.66113e-07
6.72687e-07
6.79269e-07
6.85854e-07
6.92437e-07
6.99016e-07
7.05586e-07
7.12144e-07
7.18688e-07
7.25213e-07
7.31717e-07
7.38198e-07
7.44651e-07
7.51075e-07
7.57467e-07
7.63826e-07
7.70149e-07
7.76433e-07
7.82676e-07
7.88878e-07
7.95036e-07
8.01148e-07
8.07213e-07
8.1323e-07
8.19196e-07
5.24844e-07
5.2946e-07
5.34246e-07
5.39193e-07
5.44293e-07
5.49535e-07
5.54913e-07
5.60417e-07
5.66039e-07
5.7177e-07
5.77604e-07
5.83531e-07
5.89545e-07
5.95639e-07
6.01806e-07
6.08039e-07
6.14331e-07
6.20677e-07
6.27071e-07
6.33506e-07
6.39977e-07
6.46478e-07
6.53004e-07
6.5955e-07
6.66113e-07
6.72686e-07
6.79267e-07
6.85851e-07
6.92434e-07
6.99013e-07
7.05583e-07
7.12142e-07
7.18686e-07
7.25211e-07
7.31716e-07
7.38196e-07
7.44649e-07
7.51074e-07
7.57466e-07
7.63825e-07
7.70148e-07
7.76432e-07
7.82676e-07
7.88878e-07
7.95036e-07
8.01149e-07
8.07214e-07
8.13229e-07
8.19195e-07
8.25109e-07
5.24973e-07
5.29593e-07
5.34384e-07
5.39334e-07
5.44437e-07
5.49683e-07
5.55064e-07
5.6057e-07
5.66194e-07
5.71928e-07
5.77764e-07
5.83693e-07
5.89709e-07
5.95805e-07
6.01973e-07
6.08207e-07
6.14501e-07
6.20848e-07
6.27242e-07
6.33677e-07
6.40149e-07
6.4665e-07
6.53176e-07
6.59723e-07
6.66286e-07
6.7286e-07
6.79441e-07
6.86025e-07
6.92608e-07
6.99186e-07
7.05756e-07
7.12315e-07
7.18858e-07
7.25383e-07
7.31886e-07
7.38366e-07
7.44819e-07
7.51242e-07
7.57634e-07
7.63992e-07
7.70314e-07
7.76597e-07
7.8284e-07
7.8904e-07
7.95197e-07
8.01308e-07
8.07371e-07
8.13386e-07
8.19351e-07
8.25263e-07
5.25231e-07
5.2986e-07
5.34658e-07
5.39616e-07
5.44726e-07
5.49978e-07
5.55365e-07
5.60877e-07
5.66506e-07
5.72245e-07
5.78084e-07
5.84018e-07
5.90037e-07
5.96136e-07
6.02307e-07
6.08544e-07
6.1484e-07
6.2119e-07
6.27585e-07
6.34022e-07
6.40494e-07
6.46996e-07
6.53524e-07
6.60072e-07
6.66635e-07
6.73209e-07
6.79789e-07
6.86373e-07
6.92955e-07
6.99533e-07
7.06102e-07
7.1266e-07
7.19202e-07
7.25726e-07
7.32229e-07
7.38707e-07
7.45158e-07
7.5158e-07
7.57969e-07
7.64325e-07
7.70644e-07
7.76926e-07
7.83166e-07
7.89365e-07
7.9552e-07
8.01629e-07
8.0769e-07
8.13702e-07
8.19663e-07
8.25572e-07
5.25617e-07
5.30259e-07
5.35069e-07
5.40038e-07
5.45159e-07
5.50421e-07
5.55816e-07
5.61336e-07
5.66973e-07
5.72718e-07
5.78564e-07
5.84503e-07
5.90528e-07
5.96632e-07
6.02808e-07
6.09049e-07
6.15349e-07
6.21701e-07
6.28099e-07
6.34538e-07
6.41012e-07
6.47515e-07
6.54044e-07
6.60592e-07
6.67156e-07
6.7373e-07
6.80311e-07
6.86895e-07
6.93477e-07
7.00054e-07
7.06622e-07
7.13178e-07
7.19719e-07
7.26241e-07
7.32741e-07
7.39217e-07
7.45665e-07
7.52084e-07
7.58472e-07
7.64824e-07
7.7114e-07
7.77419e-07
7.83656e-07
7.8985e-07
7.96001e-07
8.02106e-07
8.08163e-07
8.14171e-07
8.20128e-07
8.26033e-07
5.26132e-07
5.30791e-07
5.35617e-07
5.40601e-07
5.45735e-07
5.5101e-07
5.56417e-07
5.61948e-07
5.67595e-07
5.73349e-07
5.79204e-07
5.8515e-07
5.91182e-07
5.97293e-07
6.03474e-07
6.0972e-07
6.16025e-07
6.22381e-07
6.28783e-07
6.35224e-07
6.417e-07
6.48206e-07
6.54736e-07
6.61285e-07
6.6785e-07
6.74425e-07
6.81006e-07
6.87589e-07
6.9417e-07
7.00746e-07
7.07312e-07
7.13866e-07
7.20404e-07
7.26924e-07
7.33422e-07
7.39894e-07
7.46339e-07
7.52754e-07
7.59138e-07
7.65487e-07
7.71799e-07
7.78073e-07
7.84306e-07
7.90497e-07
7.96642e-07
8.02741e-07
8.08793e-07
8.14795e-07
8.20747e-07
8.26647e-07
5.26776e-07
5.31455e-07
5.36301e-07
5.41303e-07
5.46454e-07
5.51745e-07
5.57167e-07
5.62711e-07
5.6837e-07
5.74136e-07
5.80001e-07
5.85958e-07
5.91999e-07
5.98117e-07
6.04306e-07
6.10558e-07
6.16868e-07
6.23229e-07
6.29635e-07
6.3608e-07
6.4256e-07
6.49068e-07
6.556e-07
6.62151e-07
6.68716e-07
6.75291e-07
6.81872e-07
6.88454e-07
6.95034e-07
7.01608e-07
7.08173e-07
7.14724e-07
7.21259e-07
7.27775e-07
7.34269e-07
7.40739e-07
7.47179e-07
7.5359e-07
7.59969e-07
7.66313e-07
7.7262e-07
7.78889e-07
7.85115e-07
7.91299e-07
7.97439e-07
8.03532e-07
8.09578e-07
8.15574e-07
8.21519e-07
8.27412e-07
5.27548e-07
5.32252e-07
5.37121e-07
5.42145e-07
5.47316e-07
5.52626e-07
5.58065e-07
5.63625e-07
5.69299e-07
5.75078e-07
5.80956e-07
5.86924e-07
5.92975e-07
5.99103e-07
6.053e-07
6.11561e-07
6.17877e-07
6.24243e-07
6.30654e-07
6.37104e-07
6.43587e-07
6.50099e-07
6.56633e-07
6.63186e-07
6.69752e-07
6.76327e-07
6.82908e-07
6.89489e-07
6.96067e-07
7.02639e-07
7.09201e-07
7.15749e-07
7.22281e-07
7.28793e-07
7.35283e-07
7.41748e-07
7.48183e-07
7.54589e-07
7.60962e-07
7.67299e-07
7.736e-07
7.79862e-07
7.86083e-07
7.92259e-07
7.9839e-07
8.04475e-07
8.10513e-07
8.165e-07
8.22437e-07
8.28321e-07
5.28447e-07
5.33181e-07
5.38076e-07
5.43126e-07
5.48319e-07
5.5365e-07
5.59109e-07
5.64688e-07
5.70379e-07
5.76174e-07
5.82066e-07
5.88048e-07
5.94111e-07
6.00249e-07
6.06456e-07
6.12725e-07
6.19048e-07
6.25422e-07
6.31839e-07
6.38294e-07
6.44781e-07
6.51296e-07
6.57833e-07
6.64388e-07
6.70955e-07
6.7753e-07
6.8411e-07
6.9069e-07
6.97266e-07
7.03836e-07
7.10394e-07
7.16939e-07
7.23466e-07
7.29974e-07
7.36458e-07
7.42917e-07
7.49348e-07
7.55748e-07
7.62114e-07
7.68444e-07
7.74736e-07
7.80989e-07
7.87201e-07
7.9337e-07
7.99493e-07
8.05569e-07
8.11597e-07
8.17575e-07
8.23501e-07
8.29375e-07
5.29475e-07
5.34241e-07
5.39167e-07
5.44244e-07
5.49464e-07
5.54819e-07
5.603e-07
5.659e-07
5.71609e-07
5.77422e-07
5.8333e-07
5.89326e-07
5.95403e-07
6.01554e-07
6.07771e-07
6.14049e-07
6.20382e-07
6.26763e-07
6.33187e-07
6.39647e-07
6.46139e-07
6.52657e-07
6.59197e-07
6.65753e-07
6.72322e-07
6.78897e-07
6.85476e-07
6.92054e-07
6.98629e-07
7.05195e-07
7.11751e-07
7.18291e-07
7.24814e-07
7.31316e-07
7.37794e-07
7.44246e-07
7.5067e-07
7.57062e-07
7.6342e-07
7.69742e-07
7.76026e-07
7.8227e-07
7.88472e-07
7.9463e-07
8.00743e-07
8.06809e-07
8.12825e-07
8.18792e-07
8.24708e-07
8.3057e-07
5.3063e-07
5.35432e-07
5.40391e-07
5.45499e-07
5.50748e-07
5.5613e-07
5.61635e-07
5.67258e-07
5.72989e-07
5.7882e-07
5.84746e-07
5.90758e-07
5.9685e-07
6.03014e-07
6.09243e-07
6.15533e-07
6.21875e-07
6.28265e-07
6.34695e-07
6.41162e-07
6.47658e-07
6.5418e-07
6.60723e-07
6.67281e-07
6.7385e-07
6.80426e-07
6.87004e-07
6.9358e-07
7.00152e-07
7.06714e-07
7.13265e-07
7.19801e-07
7.26318e-07
7.32814e-07
7.39285e-07
7.4573e-07
7.52146e-07
7.5853e-07
7.6488e-07
7.71192e-07
7.77466e-07
7.837e-07
7.89891e-07
7.96037e-07
8.02138e-07
8.08191e-07
8.14196e-07
8.2015e-07
8.26052e-07
8.319e-07
5.31913e-07
5.36754e-07
5.4175e-07
5.46891e-07
5.52172e-07
5.57582e-07
5.63114e-07
5.68761e-07
5.74514e-07
5.80367e-07
5.86311e-07
5.92342e-07
5.98449e-07
6.04627e-07
6.1087e-07
6.17171e-07
6.23524e-07
6.29922e-07
6.36361e-07
6.42834e-07
6.49336e-07
6.55862e-07
6.62406e-07
6.68966e-07
6.75535e-07
6.8211e-07
6.88687e-07
6.95261e-07
7.0183e-07
7.08389e-07
7.14935e-07
7.21465e-07
7.27976e-07
7.34465e-07
7.4093e-07
7.47367e-07
7.53773e-07
7.60147e-07
7.66486e-07
7.72788e-07
7.79051e-07
7.85274e-07
7.91453e-07
7.97588e-07
8.03676e-07
8.09716e-07
8.15707e-07
8.21646e-07
8.27534e-07
8.33368e-07
5.33322e-07
5.38206e-07
5.43241e-07
5.48419e-07
5.53732e-07
5.59174e-07
5.64734e-07
5.70407e-07
5.76184e-07
5.82059e-07
5.88025e-07
5.94074e-07
6.00198e-07
6.06393e-07
6.1265e-07
6.18963e-07
6.25326e-07
6.31734e-07
6.3818e-07
6.4466e-07
6.51167e-07
6.57697e-07
6.64245e-07
6.70805e-07
6.77375e-07
6.8395e-07
6.90525e-07
6.97096e-07
7.03662e-07
7.10216e-07
7.16756e-07
7.2328e-07
7.29784e-07
7.36266e-07
7.42722e-07
7.49149e-07
7.55546e-07
7.61909e-07
7.68237e-07
7.74527e-07
7.80778e-07
7.86987e-07
7.93153e-07
7.99275e-07
8.0535e-07
8.11376e-07
8.17351e-07
8.23276e-07
8.29148e-07
8.34967e-07
5.34859e-07
5.39788e-07
5.44864e-07
5.5008e-07
5.55429e-07
5.60903e-07
5.66493e-07
5.72194e-07
5.77997e-07
5.83895e-07
5.89882e-07
5.95952e-07
6.02094e-07
6.08305e-07
6.14577e-07
6.20904e-07
6.27279e-07
6.33696e-07
6.40151e-07
6.46637e-07
6.53149e-07
6.59684e-07
6.66234e-07
6.72796e-07
6.79366e-07
6.85939e-07
6.92511e-07
6.9908e-07
7.05641e-07
7.1219e-07
7.18724e-07
7.2524e-07
7.31736e-07
7.38209e-07
7.44655e-07
7.51073e-07
7.57458e-07
7.63811e-07
7.70127e-07
7.76405e-07
7.82642e-07
7.88837e-07
7.94989e-07
8.01095e-07
8.07153e-07
8.13163e-07
8.19124e-07
8.25032e-07
8.30888e-07
8.36689e-07
5.36521e-07
5.41498e-07
5.46618e-07
5.51875e-07
5.5726e-07
5.62767e-07
5.68389e-07
5.74118e-07
5.79949e-07
5.85872e-07
5.91882e-07
5.97972e-07
6.04134e-07
6.10362e-07
6.16649e-07
6.22989e-07
6.29377e-07
6.35805e-07
6.42268e-07
6.48761e-07
6.55279e-07
6.61817e-07
6.68369e-07
6.74932e-07
6.81502e-07
6.88074e-07
6.94643e-07
7.01207e-07
7.07762e-07
7.14305e-07
7.20833e-07
7.27342e-07
7.33829e-07
7.40292e-07
7.46728e-07
7.53134e-07
7.59508e-07
7.65847e-07
7.7215e-07
7.78414e-07
7.84636e-07
7.90816e-07
7.96951e-07
8.03041e-07
8.09084e-07
8.15077e-07
8.2102e-07
8.2691e-07
8.32747e-07
8.38529e-07
5.3831e-07
5.43337e-07
5.48503e-07
5.538e-07
5.59224e-07
5.64766e-07
5.7042e-07
5.7618e-07
5.82038e-07
5.87988e-07
5.94021e-07
6.00133e-07
6.06314e-07
6.1256e-07
6.18864e-07
6.25218e-07
6.31617e-07
6.38055e-07
6.44526e-07
6.51027e-07
6.5755e-07
6.64091e-07
6.70647e-07
6.7721e-07
6.83779e-07
6.90349e-07
6.96915e-07
7.03474e-07
7.10024e-07
7.1656e-07
7.2308e-07
7.2958e-07
7.36057e-07
7.42508e-07
7.48932e-07
7.55326e-07
7.61686e-07
7.68012e-07
7.743e-07
7.80548e-07
7.86755e-07
7.92918e-07
7.99037e-07
8.0511e-07
8.11135e-07
8.17109e-07
8.23033e-07
8.28904e-07
8.34721e-07
8.40483e-07
5.40225e-07
5.45303e-07
5.50515e-07
5.55856e-07
5.61318e-07
5.66896e-07
5.72583e-07
5.78374e-07
5.84261e-07
5.90237e-07
5.96296e-07
6.0243e-07
6.08632e-07
6.14896e-07
6.21216e-07
6.27585e-07
6.33996e-07
6.40444e-07
6.46925e-07
6.53432e-07
6.5996e-07
6.66505e-07
6.73062e-07
6.79625e-07
6.86193e-07
6.92759e-07
6.99321e-07
7.05875e-07
7.12419e-07
7.18947e-07
7.25458e-07
7.31948e-07
7.38414e-07
7.44854e-07
7.51265e-07
7.57645e-07
7.63991e-07
7.70302e-07
7.76574e-07
7.82806e-07
7.88996e-07
7.95141e-07
8.01242e-07
8.07296e-07
8.133e-07
8.19255e-07
8.25158e-07
8.31009e-07
8.36804e-07
8.42544e-07
5.42265e-07
5.47397e-07
5.52656e-07
5.58039e-07
5.63541e-07
5.69155e-07
5.74876e-07
5.80698e-07
5.86615e-07
5.92619e-07
5.98703e-07
6.0486e-07
6.11083e-07
6.17366e-07
6.23703e-07
6.30086e-07
6.3651e-07
6.42969e-07
6.49458e-07
6.55971e-07
6.62503e-07
6.69051e-07
6.75608e-07
6.82171e-07
6.88737e-07
6.953e-07
7.01858e-07
7.08406e-07
7.14941e-07
7.2146e-07
7.27961e-07
7.3444e-07
7.40894e-07
7.47321e-07
7.53719e-07
7.60084e-07
7.66415e-07
7.72709e-07
7.78963e-07
7.85177e-07
7.91348e-07
7.97475e-07
8.03556e-07
8.09589e-07
8.15572e-07
8.21505e-07
8.27387e-07
8.33215e-07
8.38989e-07
8.44706e-07
5.4443e-07
5.49616e-07
5.54923e-07
5.60349e-07
5.6589e-07
5.7154e-07
5.77295e-07
5.8315e-07
5.89097e-07
5.95129e-07
6.01239e-07
6.0742e-07
6.13665e-07