/*--------------------------------*- C++ -*----------------------------------*\
  =========                 |
  \\      /  F ield         | OpenFOAM: The Open Source CFD Toolbox
   \\    /   O peration     | Website:  https://openfoam.org
    \\  /    A nd           | Version:  7
     \\/     M anipulation  |
\*---------------------------------------------------------------------------*/
FoamFile
{
    version     2.0;
    format      ascii;
    class       volScalarField;
    location    "36000";
    object      k;
}
// * * * * * * * * * * * * * * * * * * * * * * * * * * * * * * * * * * * * * //

dimensions      [0 2 -2 0 0 0 0];

internalField   nonuniform List<scalar> 
4764
(
4.87808e-16
4.75258e-16
4.64688e-16
4.55884e-16
4.48699e-16
4.42794e-16
8.43859e-16
8.01265e-16
7.61573e-16
7.25082e-16
6.9135e-16
6.61357e-16
6.33882e-16
6.09112e-16
5.86516e-16
5.66793e-16
5.49353e-16
5.34325e-16
5.2156e-16
5.10976e-16
5.02128e-16
4.94908e-16
4.89287e-16
4.85149e-16
4.82509e-16
4.81388e-16
4.81364e-16
4.82737e-16
4.85415e-16
4.89239e-16
4.94715e-16
5.01701e-16
5.10441e-16
5.20902e-16
5.33675e-16
9.90719e-16
9.43868e-16
8.99557e-16
8.58357e-16
8.19672e-16
7.84941e-16
7.52544e-16
7.22844e-16
6.95118e-16
6.70542e-16
6.48408e-16
6.29084e-16
6.12367e-16
5.98386e-16
5.86526e-16
5.76827e-16
5.69104e-16
5.63388e-16
5.59729e-16
5.5821e-16
5.58169e-16
5.60117e-16
5.63848e-16
5.69108e-16
5.76651e-16
5.86145e-16
5.97839e-16
6.11631e-16
6.2836e-16
6.47355e-16
6.68864e-16
6.92667e-16
7.19945e-16
1.15331e-15
1.10295e-15
1.05503e-15
1.00996e-15
9.67174e-16
9.28753e-16
8.92251e-16
8.5841e-16
8.26176e-16
7.97347e-16
7.70929e-16
7.47736e-16
7.27406e-16
7.1034e-16
6.95689e-16
6.83708e-16
6.73962e-16
6.66751e-16
6.62137e-16
6.60283e-16
6.6019e-16
6.62712e-16
6.67491e-16
6.74036e-16
6.83549e-16
6.95371e-16
7.0982e-16
7.2658e-16
7.4694e-16
7.69833e-16
7.95239e-16
8.2293e-16
8.54453e-16
8.89125e-16
9.26941e-16
9.67954e-16
1.01255e-15
1.06257e-15
1.11521e-15
1.17219e-15
1.23231e-15
1.29669e-15
1.36493e-15
1.43811e-15
1.51876e-15
1.32993e-15
1.27684e-15
1.22588e-15
1.17778e-15
1.13179e-15
1.0904e-15
1.0507e-15
1.01336e-15
9.77344e-16
9.44784e-16
9.14649e-16
8.88122e-16
8.64555e-16
8.44843e-16
8.27639e-16
8.13731e-16
8.02069e-16
7.9357e-16
7.88074e-16
7.85995e-16
7.85783e-16
7.88897e-16
7.9461e-16
8.02271e-16
8.1353e-16
8.27475e-16
8.44363e-16
8.63652e-16
8.87253e-16
9.13547e-16
9.42248e-16
9.73171e-16
1.00817e-15
1.04667e-15
1.08817e-15
1.13294e-15
1.1811e-15
1.23529e-15
1.29159e-15
1.35254e-15
1.41617e-15
1.4845e-15
1.5564e-15
1.63316e-15
1.7183e-15
1.51873e-15
1.46389e-15
1.41054e-15
1.35995e-15
1.31162e-15
1.26804e-15
1.2258e-15
1.18545e-15
1.14619e-15
1.1105e-15
1.07724e-15
1.04773e-15
1.02132e-15
9.99507e-16
9.79929e-16
9.64407e-16
9.51116e-16
9.41478e-16
9.35202e-16
9.3299e-16
9.32651e-16
9.36299e-16
9.42803e-16
9.51461e-16
9.64159e-16
9.80063e-16
9.98955e-16
1.02045e-15
1.04679e-15
1.07616e-15
1.10747e-15
1.14114e-15
1.17901e-15
1.22078e-15
1.26527e-15
1.31299e-15
1.3642e-15
1.42208e-15
1.48133e-15
1.54565e-15
1.61211e-15
1.68348e-15
1.75865e-15
1.83831e-15
1.92703e-15
1.71821e-15
1.66261e-15
1.60718e-15
1.55509e-15
1.50489e-15
1.45992e-15
1.41573e-15
1.37272e-15
1.3309e-15
1.29238e-15
1.25656e-15
1.22451e-15
1.19556e-15
1.17205e-15
1.15029e-15
1.13335e-15
1.11858e-15
1.10811e-15
1.10109e-15
1.09878e-15
1.09836e-15
1.10258e-15
1.10965e-15
1.11908e-15
1.1332e-15
1.15082e-15
1.17125e-15
1.19453e-15
1.2233e-15
1.25537e-15
1.289e-15
1.32463e-15
1.36508e-15
1.40937e-15
1.45628e-15
1.50663e-15
1.56023e-15
1.62103e-15
1.68286e-15
1.74967e-15
1.81826e-15
1.89252e-15
1.97025e-15
2.05201e-15
2.14354e-15
1.92725e-15
1.87116e-15
1.81461e-15
1.76128e-15
1.70976e-15
1.66409e-15
1.61852e-15
1.57339e-15
1.52972e-15
1.48855e-15
1.45068e-15
1.41631e-15
1.38526e-15
1.36028e-15
1.33667e-15
1.31845e-15
1.30252e-15
1.29135e-15
1.28358e-15
1.28117e-15
1.28059e-15
1.2856e-15
1.29296e-15
1.30299e-15
1.31858e-15
1.3375e-15
1.3592e-15
1.38407e-15
1.41483e-15
1.44926e-15
1.48503e-15
1.52203e-15
1.56458e-15
1.61074e-15
1.65974e-15
1.71226e-15
1.76762e-15
1.83058e-15
1.89431e-15
1.96311e-15
2.03343e-15
2.11014e-15
2.18984e-15
2.27288e-15
2.36635e-15
2.14395e-15
2.08809e-15
2.03134e-15
1.97699e-15
1.92506e-15
1.87896e-15
1.83258e-15
1.78613e-15
1.74101e-15
1.69723e-15
1.65768e-15
1.62135e-15
1.58842e-15
1.56237e-15
1.53703e-15
1.5181e-15
1.50079e-15
1.48928e-15
1.48088e-15
1.47822e-15
1.47767e-15
1.48352e-15
1.49082e-15
1.50124e-15
1.51821e-15
1.53826e-15
1.56127e-15
1.58738e-15
1.61988e-15
1.65641e-15
1.69358e-15
1.73177e-15
1.77592e-15
1.8236e-15
1.87381e-15
1.92798e-15
1.9849e-15
2.0492e-15
2.11418e-15
2.18446e-15
2.2558e-15
2.3348e-15
2.41588e-15
2.49952e-15
2.59463e-15
2.36742e-15
2.31191e-15
2.25543e-15
2.20067e-15
2.14926e-15
2.10341e-15
2.05628e-15
2.00936e-15
1.96281e-15
1.91718e-15
1.87627e-15
1.83792e-15
1.8037e-15
1.77661e-15
1.75e-15
1.73023e-15
1.71189e-15
1.69993e-15
1.69115e-15
1.68837e-15
1.68777e-15
1.6943e-15
1.70166e-15
1.7124e-15
1.73034e-15
1.75133e-15
1.77539e-15
1.8024e-15
1.8364e-15
1.8748e-15
1.91342e-15
1.95225e-15
1.99768e-15
2.04643e-15
2.09691e-15
2.15225e-15
2.21008e-15
2.27535e-15
2.3415e-15
2.41223e-15
2.48447e-15
2.56531e-15
2.64719e-15
2.73072e-15
2.82694e-15
2.59624e-15
2.5411e-15
2.48583e-15
2.43132e-15
2.38092e-15
2.33595e-15
2.28803e-15
2.24105e-15
2.19352e-15
2.14627e-15
2.10442e-15
2.06481e-15
2.02946e-15
2.00129e-15
1.97347e-15
1.95319e-15
1.93426e-15
1.9219e-15
1.91275e-15
1.90994e-15
1.90934e-15
1.91667e-15
1.92383e-15
1.9348e-15
1.95329e-15
1.97544e-15
1.99991e-15
2.02781e-15
2.06321e-15
2.1028e-15
2.14249e-15
2.18194e-15
2.22784e-15
2.27719e-15
2.32744e-15
2.38351e-15
2.44226e-15
2.5075e-15
2.57419e-15
2.64492e-15
2.71799e-15
2.7996e-15
2.88171e-15
2.96508e-15
3.06195e-15
2.82905e-15
2.77485e-15
2.72127e-15
2.66745e-15
2.6179e-15
2.57448e-15
2.52622e-15
2.47966e-15
2.43154e-15
2.3835e-15
2.3405e-15
2.29987e-15
2.26415e-15
2.23477e-15
2.20636e-15
2.18582e-15
2.16578e-15
2.15371e-15
2.14422e-15
2.14133e-15
2.14061e-15
2.14855e-15
2.15534e-15
2.16671e-15
2.18536e-15
2.20884e-15
2.23316e-15
2.26216e-15
2.29858e-15
2.33878e-15
2.37922e-15
2.41871e-15
2.46486e-15
2.51437e-15
2.56447e-15
2.62085e-15
2.67929e-15
2.7448e-15
2.81078e-15
2.881e-15
2.95497e-15
3.03625e-15
3.11804e-15
3.20122e-15
3.29747e-15
3.06373e-15
3.01166e-15
2.96033e-15
2.90762e-15
2.8592e-15
2.8175e-15
2.76995e-15
2.72358e-15
2.67528e-15
2.62729e-15
2.58336e-15
2.54217e-15
2.50606e-15
2.47582e-15
2.44644e-15
2.42592e-15
2.40541e-15
2.39379e-15
2.38397e-15
2.38112e-15
2.38018e-15
2.38831e-15
2.39455e-15
2.40656e-15
2.42489e-15
2.45019e-15
2.47407e-15
2.50388e-15
2.54113e-15
2.58174e-15
2.62199e-15
2.66164e-15
2.70785e-15
2.75637e-15
2.80573e-15
2.86276e-15
2.92042e-15
2.985e-15
3.05056e-15
3.11975e-15
3.1932e-15
3.27381e-15
3.35472e-15
3.43757e-15
3.53213e-15
3.34475e-15
3.29887e-15
3.25014e-15
3.20076e-15
3.15037e-15
3.10332e-15
3.06345e-15
3.0169e-15
2.972e-15
2.92309e-15
2.87614e-15
2.83086e-15
2.79018e-15
2.75312e-15
2.72235e-15
2.69209e-15
2.67259e-15
2.65152e-15
2.63991e-15
2.62974e-15
2.62702e-15
2.62645e-15
2.63431e-15
2.64044e-15
2.65228e-15
2.67086e-15
2.69723e-15
2.72105e-15
2.75144e-15
2.78931e-15
2.83008e-15
2.8699e-15
2.90894e-15
2.95444e-15
3.0024e-15
3.05051e-15
3.10699e-15
3.16331e-15
3.22663e-15
3.29116e-15
3.35968e-15
3.43195e-15
3.5117e-15
3.59124e-15
3.6721e-15
3.76544e-15
3.5767e-15
3.53392e-15
3.48797e-15
3.4411e-15
3.39337e-15
3.34899e-15
3.31162e-15
3.26553e-15
3.2225e-15
3.17333e-15
3.12771e-15
3.08196e-15
3.04157e-15
3.00451e-15
2.97273e-15
2.94239e-15
2.92347e-15
2.90234e-15
2.89122e-15
2.88047e-15
2.8782e-15
2.87709e-15
2.88485e-15
2.89139e-15
2.90281e-15
2.92087e-15
2.94842e-15
2.97175e-15
3.00246e-15
3.04159e-15
3.08206e-15
3.12053e-15
3.15934e-15
3.20305e-15
3.25006e-15
3.29637e-15
3.35208e-15
3.40739e-15
3.46907e-15
3.53208e-15
3.59843e-15
3.67e-15
3.74752e-15
3.82515e-15
3.90417e-15
3.996e-15
3.80569e-15
3.76641e-15
3.72472e-15
3.68082e-15
3.63615e-15
3.5947e-15
3.55952e-15
3.51421e-15
3.47359e-15
3.42529e-15
3.38046e-15
3.33505e-15
3.29472e-15
3.25865e-15
3.22619e-15
3.19549e-15
3.17697e-15
3.15653e-15
3.14523e-15
3.13471e-15
3.13305e-15
3.13135e-15
3.13914e-15
3.14586e-15
3.15586e-15
3.17391e-15
3.20213e-15
3.22455e-15
3.25624e-15
3.29555e-15
3.33641e-15
3.3732e-15
3.41038e-15
3.45301e-15
3.49783e-15
3.5418e-15
3.59646e-15
3.65015e-15
3.70981e-15
3.77083e-15
3.83559e-15
3.90569e-15
3.97987e-15
4.05513e-15
4.13271e-15
4.2214e-15
4.07029e-15
4.03138e-15
3.99573e-15
3.95867e-15
3.91842e-15
3.87613e-15
3.83905e-15
3.80672e-15
3.76208e-15
3.72367e-15
3.67632e-15
3.63379e-15
3.58884e-15
3.54867e-15
3.51302e-15
3.48009e-15
3.45007e-15
3.43143e-15
3.41153e-15
3.40103e-15
3.39053e-15
3.38903e-15
3.38759e-15
3.39454e-15
3.40132e-15
3.41048e-15
3.42861e-15
3.45677e-15
3.47876e-15
3.5109e-15
3.54961e-15
3.59056e-15
3.62603e-15
3.66155e-15
3.70274e-15
3.74412e-15
3.78625e-15
3.83964e-15
3.8912e-15
3.94848e-15
4.00709e-15
4.06972e-15
4.13691e-15
4.20844e-15
4.2809e-15
4.35524e-15
4.44152e-15
4.28662e-15
4.25124e-15
4.22077e-15
4.18765e-15
4.1514e-15
4.11299e-15
4.07946e-15
4.05059e-15
4.00675e-15
3.97113e-15
3.92596e-15
3.88501e-15
3.84178e-15
3.801e-15
3.76605e-15
3.73392e-15
3.70455e-15
3.68514e-15
3.6665e-15
3.65725e-15
3.64643e-15
3.64531e-15
3.64322e-15
3.6505e-15
3.65697e-15
3.66503e-15
3.68233e-15
3.71076e-15
3.73165e-15
3.76522e-15
3.8032e-15
3.8438e-15
3.87783e-15
3.91124e-15
3.94964e-15
3.98846e-15
4.02816e-15
4.079e-15
4.12874e-15
4.18359e-15
4.23822e-15
4.2983e-15
4.3623e-15
4.43182e-15
4.4999e-15
4.5714e-15
4.65381e-15
4.53171e-15
4.49666e-15
4.46514e-15
4.44019e-15
4.4115e-15
4.37956e-15
4.34522e-15
4.31575e-15
4.28972e-15
4.24786e-15
4.21527e-15
4.17231e-15
4.13262e-15
4.09123e-15
4.05125e-15
4.01723e-15
3.98488e-15
3.95627e-15
3.93722e-15
3.91984e-15
3.91232e-15
3.90069e-15
3.89942e-15
3.89664e-15
3.90425e-15
3.91038e-15
3.91791e-15
3.9343e-15
3.96237e-15
3.98276e-15
4.01651e-15
4.05351e-15
4.09373e-15
4.12586e-15
4.15794e-15
4.19309e-15
4.22808e-15
4.2649e-15
4.31309e-15
4.36057e-15
4.41259e-15
4.4641e-15
4.52091e-15
4.58167e-15
4.64751e-15
4.71086e-15
4.77898e-15
4.85831e-15
4.72823e-15
4.69911e-15
4.67172e-15
4.65151e-15
4.6276e-15
4.60148e-15
4.57148e-15
4.5452e-15
4.52265e-15
4.48385e-15
4.45365e-15
4.41427e-15
4.375e-15
4.33571e-15
4.29657e-15
4.26372e-15
4.23262e-15
4.20458e-15
4.18638e-15
4.16904e-15
4.16352e-15
4.15184e-15
4.15063e-15
4.14735e-15
4.15544e-15
4.15992e-15
4.1679e-15
4.18323e-15
4.20991e-15
4.23013e-15
4.26328e-15
4.30023e-15
4.33889e-15
4.3699e-15
4.4002e-15
4.43187e-15
4.46278e-15
4.4963e-15
4.54171e-15
4.58532e-15
4.63543e-15
4.68203e-15
4.73527e-15
4.7933e-15
4.85561e-15
4.91343e-15
4.97773e-15
5.05372e-15
4.91445e-15
4.89157e-15
4.86949e-15
4.85482e-15
4.8347e-15
4.81459e-15
4.78917e-15
4.7665e-15
4.74791e-15
4.71334e-15
4.68483e-15
4.64909e-15
4.61187e-15
4.57364e-15
4.53641e-15
4.50399e-15
4.47519e-15
4.44694e-15
4.42974e-15
4.41347e-15
4.40935e-15
4.39867e-15
4.39736e-15
4.39367e-15
4.40118e-15
4.40521e-15
4.41218e-15
4.42627e-15
4.45265e-15
4.47228e-15
4.50391e-15
4.54144e-15
4.57779e-15
4.60704e-15
4.63659e-15
4.66453e-15
4.69105e-15
4.72085e-15
4.76209e-15
4.80158e-15
4.84944e-15
4.89207e-15
4.94142e-15
4.99502e-15
5.05356e-15
5.10668e-15
5.16677e-15
5.2386e-15
5.09063e-15
5.07425e-15
5.05759e-15
5.04756e-15
5.03283e-15
5.01902e-15
4.99708e-15
4.97828e-15
4.96409e-15
4.93365e-15
4.90732e-15
4.87542e-15
4.84166e-15
4.80445e-15
4.76963e-15
4.73769e-15
4.71149e-15
4.68315e-15
4.66679e-15
4.65188e-15
4.64918e-15
4.63828e-15
4.63712e-15
4.63375e-15
4.63996e-15
4.64463e-15
4.64926e-15
4.66325e-15
4.6894e-15
4.70674e-15
4.73817e-15
4.77473e-15
4.80877e-15
4.8369e-15
4.86436e-15
4.88832e-15
4.91014e-15
4.93721e-15
4.97297e-15
5.00795e-15
5.05344e-15
5.09153e-15
5.13671e-15
5.18664e-15
5.2403e-15
5.28946e-15
5.345e-15
5.41227e-15
5.25438e-15
5.24602e-15
5.23454e-15
5.22865e-15
5.21936e-15
5.21214e-15
5.1939e-15
5.17917e-15
5.16982e-15
5.14354e-15
5.11967e-15
5.0918e-15
5.06263e-15
5.02699e-15
4.99333e-15
4.96292e-15
4.9401e-15
4.91161e-15
4.89599e-15
4.88241e-15
4.88047e-15
4.87063e-15
4.86841e-15
4.86648e-15
4.87158e-15
4.87675e-15
4.87858e-15
4.89223e-15
4.91729e-15
4.93342e-15
4.9645e-15
5.00009e-15
5.03167e-15
5.05694e-15
5.08363e-15
5.10338e-15
5.12015e-15
5.14408e-15
5.17439e-15
5.20447e-15
5.2462e-15
5.28068e-15
5.32145e-15
5.36599e-15
5.41473e-15
5.45938e-15
5.51005e-15
5.57373e-15
5.41882e-15
5.40609e-15
5.40459e-15
5.39935e-15
5.39833e-15
5.39322e-15
5.3929e-15
5.37978e-15
5.36928e-15
5.3638e-15
5.34172e-15
5.3219e-15
5.29828e-15
5.2724e-15
5.23985e-15
5.20768e-15
5.17874e-15
5.1582e-15
5.13091e-15
5.11624e-15
5.10262e-15
5.10176e-15
5.09419e-15
5.0897e-15
5.09006e-15
5.09409e-15
5.09873e-15
5.09898e-15
5.11185e-15
5.13499e-15
5.15083e-15
5.18006e-15
5.21457e-15
5.24499e-15
5.26725e-15
5.29153e-15
5.30685e-15
5.31966e-15
5.34029e-15
5.36361e-15
5.3898e-15
5.42649e-15
5.45686e-15
5.49302e-15
5.53307e-15
5.57577e-15
5.61695e-15
5.66245e-15
5.72213e-15
5.55952e-15
5.55287e-15
5.54477e-15
5.55049e-15
5.55145e-15
5.55412e-15
5.55472e-15
5.56161e-15
5.55346e-15
5.54732e-15
5.54626e-15
5.52689e-15
5.51267e-15
5.49348e-15
5.47083e-15
5.44172e-15
5.40972e-15
5.3838e-15
5.36456e-15
5.33965e-15
5.32576e-15
5.31114e-15
5.31268e-15
5.30611e-15
5.30094e-15
5.30204e-15
5.305e-15
5.30927e-15
5.30903e-15
5.31965e-15
5.3411e-15
5.35613e-15
5.38509e-15
5.41838e-15
5.4474e-15
5.46642e-15
5.48688e-15
5.49755e-15
5.50749e-15
5.52324e-15
5.53952e-15
5.56246e-15
5.59423e-15
5.62018e-15
5.65195e-15
5.68581e-15
5.72242e-15
5.75977e-15
5.79985e-15
5.8553e-15
5.67435e-15
5.67207e-15
5.6683e-15
5.68143e-15
5.68858e-15
5.69657e-15
5.70272e-15
5.71571e-15
5.71393e-15
5.71183e-15
5.71454e-15
5.69933e-15
5.68929e-15
5.67473e-15
5.65703e-15
5.63143e-15
5.59979e-15
5.57537e-15
5.55782e-15
5.53619e-15
5.52331e-15
5.50809e-15
5.51071e-15
5.50514e-15
5.50066e-15
5.50229e-15
5.50454e-15
5.50698e-15
5.50744e-15
5.51589e-15
5.53428e-15
5.54967e-15
5.57668e-15
5.60976e-15
5.63771e-15
5.65323e-15
5.66953e-15
5.67575e-15
5.68105e-15
5.69197e-15
5.70244e-15
5.72187e-15
5.74726e-15
5.76855e-15
5.79579e-15
5.82478e-15
5.85509e-15
5.88854e-15
5.92156e-15
5.97265e-15
5.77348e-15
5.77571e-15
5.77734e-15
5.79813e-15
5.81104e-15
5.82334e-15
5.83638e-15
5.85585e-15
5.85878e-15
5.86191e-15
5.86779e-15
5.8578e-15
5.85233e-15
5.84104e-15
5.82825e-15
5.80631e-15
5.77658e-15
5.75237e-15
5.73827e-15
5.7198e-15
5.70652e-15
5.69204e-15
5.69622e-15
5.69149e-15
5.68758e-15
5.68833e-15
5.69091e-15
5.69164e-15
5.69141e-15
5.69765e-15
5.71323e-15
5.72857e-15
5.75372e-15
5.78642e-15
5.81324e-15
5.82656e-15
5.83871e-15
5.84024e-15
5.83936e-15
5.84693e-15
5.85119e-15
5.86559e-15
5.88616e-15
5.90255e-15
5.92378e-15
5.94907e-15
5.97281e-15
6.00102e-15
6.02818e-15
6.07488e-15
5.85741e-15
5.86318e-15
5.87115e-15
5.89851e-15
5.91846e-15
5.93379e-15
5.95351e-15
5.97967e-15
5.98873e-15
5.99563e-15
6.00511e-15
6.00094e-15
5.99914e-15
5.99134e-15
5.9835e-15
5.96539e-15
5.93742e-15
5.9152e-15
5.90309e-15
5.88777e-15
5.87546e-15
5.86143e-15
5.86634e-15
5.86343e-15
5.86053e-15
5.86063e-15
5.86303e-15
5.86198e-15
5.86106e-15
5.86504e-15
5.87672e-15
5.89341e-15
5.91661e-15
5.94889e-15
5.97307e-15
5.98382e-15
5.99176e-15
5.98846e-15
5.98251e-15
5.98563e-15
5.98488e-15
5.99432e-15
6.00852e-15
6.02132e-15
6.03655e-15
6.05661e-15
6.07453e-15
6.09807e-15
6.11897e-15
6.16136e-15
5.92479e-15
5.93519e-15
5.94918e-15
5.98213e-15
6.00887e-15
6.02858e-15
6.05496e-15
6.08659e-15
6.10292e-15
6.11228e-15
6.12706e-15
6.12796e-15
6.12894e-15
6.12465e-15
6.12312e-15
6.10931e-15
6.08263e-15
6.06112e-15
6.05132e-15
6.03924e-15
6.02787e-15
6.01526e-15
6.02005e-15
6.01878e-15
6.01804e-15
6.01634e-15
6.01866e-15
6.01688e-15
6.01526e-15
6.01738e-15
6.02519e-15
6.04148e-15
6.06258e-15
6.09607e-15
6.11623e-15
6.1242e-15
6.12944e-15
6.12117e-15
6.10999e-15
6.10745e-15
6.10268e-15
6.10682e-15
6.11515e-15
6.12276e-15
6.13293e-15
6.14695e-15
6.16012e-15
6.17906e-15
6.19341e-15
6.23029e-15
5.97537e-15
5.99122e-15
6.01102e-15
6.04979e-15
6.08288e-15
6.10701e-15
6.13866e-15
6.17598e-15
6.19928e-15
6.21117e-15
6.23118e-15
6.23701e-15
6.24244e-15
6.24159e-15
6.24484e-15
6.23547e-15
6.21009e-15
6.19087e-15
6.18361e-15
6.17325e-15
6.16285e-15
6.15143e-15
6.15751e-15
6.15819e-15
6.15807e-15
6.15616e-15
6.15687e-15
6.15579e-15
6.15348e-15
6.15205e-15
6.15752e-15
6.17196e-15
6.19239e-15
6.22551e-15
6.2418e-15
6.24679e-15
6.24924e-15
6.23745e-15
6.21946e-15
6.2117e-15
6.20393e-15
6.20139e-15
6.20529e-15
6.20639e-15
6.21143e-15
6.21958e-15
6.22773e-15
6.24224e-15
6.25114e-15
6.28283e-15
6.0089e-15
6.03098e-15
6.05636e-15
6.09974e-15
6.13913e-15
6.16862e-15
6.20426e-15
6.24728e-15
6.27747e-15
6.29326e-15
6.31695e-15
6.32905e-15
6.3373e-15
6.34128e-15
6.34806e-15
6.34328e-15
6.31907e-15
6.3031e-15
6.29737e-15
6.28895e-15
6.2795e-15
6.26914e-15
6.27822e-15
6.28026e-15
6.27981e-15
6.27911e-15
6.27792e-15
6.27613e-15
6.27326e-15
6.26992e-15
6.27286e-15
6.28514e-15
6.30508e-15
6.33659e-15
6.34899e-15
6.35233e-15
6.35213e-15
6.33512e-15
6.31039e-15
6.29908e-15
6.28661e-15
6.27899e-15
6.27705e-15
6.27314e-15
6.27306e-15
6.27407e-15
6.2785e-15
6.28741e-15
6.29058e-15
6.31732e-15
6.02607e-15
6.054e-15
6.08499e-15
6.13309e-15
6.17743e-15
6.21311e-15
6.2527e-15
6.30146e-15
6.33706e-15
6.35647e-15
6.38528e-15
6.40193e-15
6.41305e-15
6.42309e-15
6.43329e-15
6.43213e-15
6.41046e-15
6.39758e-15
6.39362e-15
6.3872e-15
6.37819e-15
6.36921e-15
6.37977e-15
6.38314e-15
6.38408e-15
6.3828e-15
6.38097e-15
6.37831e-15
6.374e-15
6.37012e-15
6.3689e-15
6.38062e-15
6.3996e-15
6.42859e-15
6.43831e-15
6.43842e-15
6.43585e-15
6.41374e-15
6.38367e-15
6.36884e-15
6.35181e-15
6.33906e-15
6.33013e-15
6.3225e-15
6.31603e-15
6.31141e-15
6.31076e-15
6.31563e-15
6.3126e-15
6.33375e-15
6.02597e-15
6.05946e-15
6.09565e-15
6.14835e-15
6.19761e-15
6.23897e-15
6.28356e-15
6.33674e-15
6.37775e-15
6.40194e-15
6.43565e-15
6.45537e-15
6.47064e-15
6.48507e-15
6.50034e-15
6.50148e-15
6.48195e-15
6.47372e-15
6.47004e-15
6.46567e-15
6.4582e-15
6.45084e-15
6.46168e-15
6.46783e-15
6.46848e-15
6.46789e-15
6.46424e-15
6.46178e-15
6.45665e-15
6.45046e-15
6.44672e-15
6.45777e-15
6.47422e-15
6.5024e-15
6.50791e-15
6.50559e-15
6.50011e-15
6.47437e-15
6.43871e-15
6.42055e-15
6.39906e-15
6.37988e-15
6.36559e-15
6.3529e-15
6.34158e-15
6.33124e-15
6.32575e-15
6.3267e-15
6.31742e-15
6.33335e-15
6.0098e-15
6.04872e-15
6.0896e-15
6.14677e-15
6.19962e-15
6.2475e-15
6.29671e-15
6.35308e-15
6.39931e-15
6.42918e-15
6.46637e-15
6.49046e-15
6.50951e-15
6.5284e-15
6.54727e-15
6.55087e-15
6.53475e-15
6.52953e-15
6.52785e-15
6.52403e-15
6.51902e-15
6.51353e-15
6.52498e-15
6.53329e-15
6.53377e-15
6.53424e-15
6.52727e-15
6.52587e-15
6.519e-15
6.51171e-15
6.50566e-15
6.51617e-15
6.53003e-15
6.55741e-15
6.55894e-15
6.55393e-15
6.54453e-15
6.51506e-15
6.4752e-15
6.45254e-15
6.42676e-15
6.40274e-15
6.38312e-15
6.36438e-15
6.34817e-15
6.33313e-15
6.32333e-15
6.31941e-15
6.30382e-15
6.31482e-15
5.97657e-15
6.02074e-15
6.06685e-15
6.12833e-15
6.18346e-15
6.23736e-15
6.29212e-15
6.35166e-15
6.40293e-15
6.43668e-15
6.47741e-15
6.50688e-15
6.52906e-15
6.55273e-15
6.57546e-15
6.5815e-15
6.56838e-15
6.56596e-15
6.56505e-15
6.56302e-15
6.56071e-15
6.5554e-15
6.56757e-15
6.57812e-15
6.57836e-15
6.57991e-15
6.57117e-15
6.56926e-15
6.56083e-15
6.55228e-15
6.54537e-15
6.55402e-15
6.56614e-15
6.59194e-15
6.58942e-15
6.58325e-15
6.56885e-15
6.53685e-15
6.49157e-15
6.46619e-15
6.43495e-15
6.40609e-15
6.38136e-15
6.35689e-15
6.3372e-15
6.31749e-15
6.30235e-15
6.29399e-15
6.27322e-15
6.27964e-15
5.92768e-15
5.9766e-15
6.02652e-15
6.09213e-15
6.15007e-15
6.20993e-15
6.26869e-15
6.33241e-15
6.38849e-15
6.42586e-15
6.47001e-15
6.50457e-15
6.52962e-15
6.55795e-15
6.58321e-15
6.59305e-15
6.58266e-15
6.58318e-15
6.58302e-15
6.58123e-15
6.5815e-15
6.57781e-15
6.59085e-15
6.60217e-15
6.60358e-15
6.60483e-15
6.59553e-15
6.5918e-15
6.58333e-15
6.57327e-15
6.56533e-15
6.57129e-15
6.58278e-15
6.60603e-15
6.60067e-15
6.59201e-15
6.57394e-15
6.53856e-15
6.48791e-15
6.46003e-15
6.42365e-15
6.39101e-15
6.36175e-15
6.33173e-15
6.30864e-15
6.28443e-15
6.26428e-15
6.25181e-15
6.22542e-15
6.22687e-15
5.86241e-15
5.91579e-15
5.97009e-15
6.0386e-15
6.09991e-15
6.16427e-15
6.22794e-15
6.29428e-15
6.35612e-15
6.3967e-15
6.44366e-15
6.48234e-15
6.51121e-15
6.54278e-15
6.57066e-15
6.5841e-15
6.57753e-15
6.57965e-15
6.58158e-15
6.58008e-15
6.5825e-15
6.58049e-15
6.59309e-15
6.6064e-15
6.60766e-15
6.60888e-15
6.59877e-15
6.5946e-15
6.58585e-15
6.57325e-15
6.56457e-15
6.56789e-15
6.57985e-15
6.59968e-15
6.592e-15
6.58181e-15
6.56012e-15
6.52029e-15
6.46557e-15
6.43434e-15
6.3942e-15
6.35758e-15
6.32438e-15
6.28894e-15
6.26275e-15
6.23419e-15
6.20929e-15
6.19305e-15
6.16082e-15
6.15701e-15
5.78134e-15
5.83882e-15
5.89786e-15
5.96815e-15
6.03327e-15
6.10195e-15
6.16894e-15
6.23882e-15
6.30494e-15
6.34824e-15
6.39785e-15
6.44054e-15
6.47275e-15
6.50753e-15
6.53928e-15
6.55491e-15
6.55176e-15
6.55562e-15
6.55941e-15
6.55944e-15
6.56408e-15
6.56308e-15
6.57582e-15
6.58974e-15
6.5918e-15
6.59351e-15
6.58244e-15
6.5778e-15
6.56888e-15
6.55383e-15
6.54337e-15
6.54524e-15
6.55611e-15
6.57298e-15
6.56406e-15
6.55128e-15
6.52615e-15
6.48351e-15
6.4246e-15
6.39057e-15
6.34671e-15
6.3064e-15
6.26838e-15
6.22879e-15
6.19878e-15
6.16716e-15
6.13775e-15
6.11815e-15
6.08015e-15
6.07153e-15
5.68589e-15
5.74619e-15
5.80943e-15
5.88224e-15
5.95061e-15
6.02228e-15
6.09332e-15
6.16628e-15
6.23549e-15
6.28213e-15
6.33422e-15
6.37952e-15
6.4159e-15
6.45371e-15
6.48789e-15
6.50573e-15
6.50572e-15
6.51134e-15
6.51687e-15
6.51945e-15
6.52502e-15
6.52578e-15
6.53903e-15
6.55246e-15
6.55607e-15
6.55736e-15
6.54657e-15
6.54022e-15
6.53117e-15
6.51371e-15
6.50178e-15
6.50335e-15
6.51323e-15
6.52747e-15
6.51708e-15
6.50086e-15
6.47373e-15
6.42711e-15
6.36527e-15
6.32777e-15
6.28152e-15
6.23781e-15
6.19432e-15
6.15163e-15
6.1173e-15
6.08381e-15
6.04915e-15
6.02667e-15
5.98389e-15
5.97087e-15
5.57658e-15
5.63937e-15
5.70552e-15
5.7804e-15
5.85249e-15
5.92691e-15
6.00149e-15
6.07716e-15
6.14828e-15
6.19875e-15
6.25311e-15
6.30087e-15
6.34095e-15
6.38129e-15
6.41825e-15
6.43812e-15
6.44106e-15
6.44713e-15
6.45431e-15
6.46041e-15
6.46576e-15
6.4689e-15
6.48263e-15
6.49482e-15
6.49982e-15
6.50083e-15
6.49012e-15
6.48232e-15
6.47444e-15
6.45459e-15
6.44098e-15
6.44123e-15
6.45143e-15
6.46209e-15
6.45019e-15
6.43094e-15
6.40192e-15
6.35249e-15
6.2877e-15
6.2465e-15
6.19801e-15
6.15124e-15
6.10271e-15
6.05806e-15
6.01988e-15
5.98377e-15
5.94516e-15
5.91938e-15
5.87242e-15
5.8557e-15
5.45333e-15
5.51893e-15
5.58767e-15
5.66429e-15
5.73867e-15
5.81543e-15
5.8931e-15
5.97207e-15
6.0449e-15
6.09765e-15
6.15402e-15
6.20497e-15
6.24844e-15
6.29e-15
6.32958e-15
6.35209e-15
6.35692e-15
6.36465e-15
6.37334e-15
6.38277e-15
6.38799e-15
6.39286e-15
6.40748e-15
6.41812e-15
6.42481e-15
6.42561e-15
6.41495e-15
6.40574e-15
6.39869e-15
6.37643e-15
6.3616e-15
6.36067e-15
6.37001e-15
6.37744e-15
6.36493e-15
6.34202e-15
6.3114e-15
6.26045e-15
6.19282e-15
6.14842e-15
6.09691e-15
6.04744e-15
5.99516e-15
5.94871e-15
5.90703e-15
5.86787e-15
5.82635e-15
5.79703e-15
5.74675e-15
5.72592e-15
5.31776e-15
5.38562e-15
5.45655e-15
5.53372e-15
5.61087e-15
5.6893e-15
5.7699e-15
5.85078e-15
5.92593e-15
5.97966e-15
6.03774e-15
6.0925e-15
6.13796e-15
6.18168e-15
6.22263e-15
6.24858e-15
6.25519e-15
6.26434e-15
6.27408e-15
6.28596e-15
6.29096e-15
6.29825e-15
6.3129e-15
6.32312e-15
6.33147e-15
6.33175e-15
6.32118e-15
6.31087e-15
6.30367e-15
6.28011e-15
6.26412e-15
6.26211e-15
6.26972e-15
6.27527e-15
6.26104e-15
6.23585e-15
6.20395e-15
6.15052e-15
6.08017e-15
6.03378e-15
5.97994e-15
5.9281e-15
5.87225e-15
5.82433e-15
5.77947e-15
5.73688e-15
5.69264e-15
5.66044e-15
5.60766e-15
5.58246e-15
5.16995e-15
5.24028e-15
5.31226e-15
5.39039e-15
5.46902e-15
5.54953e-15
5.63259e-15
5.71509e-15
5.79125e-15
5.84652e-15
5.90602e-15
5.96324e-15
6.0114e-15
6.05591e-15
6.09921e-15
6.12798e-15
6.13537e-15
6.14577e-15
6.15752e-15
6.17079e-15
6.17545e-15
6.18494e-15
6.19971e-15
6.21008e-15
6.21936e-15
6.21914e-15
6.20865e-15
6.19799e-15
6.19128e-15
6.16594e-15
6.14812e-15
6.14623e-15
6.15236e-15
6.15505e-15
6.13935e-15
6.11194e-15
6.07915e-15
6.02361e-15
5.95165e-15
5.90274e-15
5.84684e-15
5.79392e-15
5.73474e-15
5.68489e-15
5.63801e-15
5.59245e-15
5.54579e-15
5.5105e-15
5.45526e-15
5.42697e-15
5.01153e-15
5.08319e-15
5.15648e-15
5.23509e-15
5.31486e-15
5.39693e-15
5.48206e-15
5.5658e-15
5.64266e-15
5.69897e-15
5.75958e-15
5.8182e-15
5.8695e-15
5.91465e-15
5.95905e-15
5.99049e-15
5.99842e-15
6.01091e-15
6.02412e-15
6.03885e-15
6.0433e-15
6.05458e-15
6.06976e-15
6.08011e-15
6.08941e-15
6.08976e-15
6.07927e-15
6.06824e-15
6.06116e-15
6.03478e-15
6.01554e-15
6.01281e-15
6.01761e-15
6.01877e-15
6.00144e-15
5.97226e-15
5.93801e-15
5.88063e-15
5.80799e-15
5.75624e-15
5.69859e-15
5.6449e-15
5.5835e-15
5.5314e-15
5.48358e-15
5.43519e-15
5.38663e-15
5.34818e-15
5.2913e-15
5.25963e-15
4.8428e-15
4.91584e-15
4.99009e-15
5.06876e-15
5.14906e-15
5.23245e-15
5.31852e-15
5.4031e-15
5.48097e-15
5.53796e-15
5.59937e-15
5.65836e-15
5.71322e-15
5.75783e-15
5.80323e-15
5.83714e-15
5.84623e-15
5.86055e-15
5.87511e-15
5.89027e-15
5.89526e-15
5.90832e-15
5.92385e-15
5.93405e-15
5.94255e-15
5.94337e-15
5.93352e-15
5.92217e-15
5.91436e-15
5.88682e-15
5.86715e-15
5.8629e-15
5.86721e-15
5.86627e-15
5.84749e-15
5.81763e-15
5.78151e-15
5.72253e-15
5.65014e-15
5.59611e-15
5.53698e-15
5.48295e-15
5.41949e-15
5.36563e-15
5.31643e-15
5.2663e-15
5.21615e-15
5.17445e-15
5.11671e-15
5.08216e-15
4.66485e-15
4.73879e-15
4.81352e-15
4.8924e-15
4.97284e-15
5.05712e-15
5.14379e-15
5.22884e-15
5.30655e-15
5.36452e-15
5.42617e-15
5.48555e-15
5.54278e-15
5.5866e-15
5.63278e-15
5.66903e-15
5.6797e-15
5.69567e-15
5.71051e-15
5.72702e-15
5.73203e-15
5.74617e-15
5.76201e-15
5.77266e-15
5.78073e-15
5.78112e-15
5.77244e-15
5.76015e-15
5.75193e-15
5.72406e-15
5.70395e-15
5.69842e-15
5.70149e-15
5.69871e-15
5.67951e-15
5.64821e-15
5.61073e-15
5.55119e-15
5.47911e-15
5.4225e-15
5.36294e-15
5.30827e-15
5.24374e-15
5.18849e-15
5.13771e-15
5.08679e-15
5.03475e-15
4.99082e-15
4.93251e-15
4.89553e-15
4.47922e-15
4.55368e-15
4.62845e-15
4.70707e-15
4.78723e-15
4.872e-15
4.95823e-15
5.04339e-15
5.12065e-15
5.17905e-15
5.24135e-15
5.30076e-15
5.35946e-15
5.40286e-15
5.44963e-15
5.48728e-15
5.49908e-15
5.51736e-15
5.53232e-15
5.5501e-15
5.55473e-15
5.57023e-15
5.58548e-15
5.59648e-15
5.60403e-15
5.60413e-15
5.59652e-15
5.58422e-15
5.57497e-15
5.54746e-15
5.527e-15
5.5201e-15
5.52162e-15
5.51804e-15
5.49767e-15
5.46523e-15
5.42678e-15
5.36685e-15
5.29603e-15
5.23731e-15
5.17755e-15
5.12209e-15
5.05733e-15
5.00106e-15
4.94919e-15
4.89715e-15
4.84423e-15
4.7985e-15
4.73981e-15
4.70026e-15
4.2869e-15
4.36102e-15
4.43541e-15
4.51384e-15
4.59332e-15
4.67765e-15
4.76363e-15
4.84801e-15
4.92508e-15
4.98347e-15
5.04535e-15
5.10513e-15
5.16445e-15
5.20768e-15
5.25484e-15
5.2931e-15
5.30643e-15
5.32605e-15
5.34152e-15
5.3599e-15
5.36475e-15
5.38076e-15
5.39624e-15
5.40732e-15
5.41457e-15
5.41359e-15
5.40782e-15
5.39546e-15
5.38467e-15
5.35818e-15
5.33747e-15
5.32937e-15
5.32954e-15
5.32456e-15
5.30404e-15
5.27045e-15
5.23161e-15
5.17077e-15
5.10139e-15
5.04161e-15
4.98194e-15
4.92557e-15
4.8614e-15
4.80449e-15
4.75134e-15
4.69861e-15
4.64511e-15
4.59803e-15
4.53971e-15
4.49805e-15
4.08883e-15
4.162e-15
4.23605e-15
4.31386e-15
4.39225e-15
4.47585e-15
4.56094e-15
4.6439e-15
4.72039e-15
4.77832e-15
4.84011e-15
4.89987e-15
4.95899e-15
5.00226e-15
5.04896e-15
5.08825e-15
5.1022e-15
5.1231e-15
5.13944e-15
5.15778e-15
5.16328e-15
5.17988e-15
5.1947e-15
5.20585e-15
5.21272e-15
5.21148e-15
5.20677e-15
5.19435e-15
5.18302e-15
5.15725e-15
5.13658e-15
5.12741e-15
5.12615e-15
5.12033e-15
5.09907e-15
5.06458e-15
5.02567e-15
4.96485e-15
4.89653e-15
4.83659e-15
4.77732e-15
4.72033e-15
4.65718e-15
4.59994e-15
4.54543e-15
4.49286e-15
4.43863e-15
4.39113e-15
4.33292e-15
4.28983e-15
3.88587e-15
3.95799e-15
4.031e-15
4.10782e-15
4.18518e-15
4.26722e-15
4.35107e-15
4.43281e-15
4.50791e-15
4.56493e-15
4.6268e-15
4.68567e-15
4.74476e-15
4.78787e-15
4.834e-15
4.87352e-15
4.88841e-15
4.9105e-15
4.92675e-15
4.94574e-15
4.95159e-15
4.96812e-15
4.98293e-15
4.99343e-15
5.00039e-15
4.99899e-15
4.99477e-15
4.98298e-15
4.97053e-15
4.94552e-15
4.92498e-15
4.91551e-15
4.91289e-15
4.90592e-15
4.88419e-15
4.84899e-15
4.81037e-15
4.75027e-15
4.68335e-15
4.62349e-15
4.56492e-15
4.50772e-15
4.44539e-15
4.38814e-15
4.33314e-15
4.28088e-15
4.22643e-15
4.17845e-15
4.12066e-15
4.07688e-15
3.6795e-15
3.75021e-15
3.82185e-15
3.89734e-15
3.97286e-15
4.05349e-15
4.13574e-15
4.21545e-15
4.28891e-15
4.34508e-15
4.40669e-15
4.46443e-15
4.5227e-15
4.56582e-15
4.61062e-15
4.6503e-15
4.66632e-15
4.68891e-15
4.70552e-15
4.72505e-15
4.73103e-15
4.74693e-15
4.76159e-15
4.77205e-15
4.77845e-15
4.77744e-15
4.77366e-15
4.76265e-15
4.74926e-15
4.72503e-15
4.7047e-15
4.69501e-15
4.69114e-15
4.68276e-15
4.66076e-15
4.62503e-15
4.58704e-15
4.52833e-15
4.46254e-15
4.40308e-15
4.34586e-15
4.28895e-15
4.22733e-15
4.1704e-15
4.11561e-15
4.06402e-15
4.00965e-15
3.96123e-15
3.90413e-15
3.85995e-15
3.47044e-15
3.5397e-15
3.60966e-15
3.68351e-15
3.7569e-15
3.8354e-15
3.91572e-15
3.99315e-15
4.06467e-15
4.11999e-15
4.18093e-15
4.23693e-15
4.2947e-15
4.33745e-15
4.38078e-15
4.42052e-15
4.43727e-15
4.4598e-15
4.47705e-15
4.49653e-15
4.50279e-15
4.51827e-15
4.53271e-15
4.54302e-15
4.54892e-15
4.54805e-15
4.54437e-15
4.53416e-15
4.51994e-15
4.49707e-15
4.47706e-15
4.46673e-15
4.46178e-15
4.45276e-15
4.4307e-15
4.39459e-15
4.35706e-15
4.29987e-15
4.23551e-15
4.17718e-15
4.12115e-15
4.06484e-15
4.00471e-15
3.94839e-15
3.89404e-15
3.8431e-15
3.78907e-15
3.74101e-15
3.68482e-15
3.64057e-15
3.25982e-15
3.32729e-15
3.39554e-15
3.46717e-15
3.53842e-15
3.61422e-15
3.69231e-15
3.76717e-15
3.83674e-15
3.89091e-15
3.95058e-15
4.00499e-15
4.06159e-15
4.1041e-15
4.14577e-15
4.18499e-15
4.20264e-15
4.22508e-15
4.24224e-15
4.26168e-15
4.2683e-15
4.28333e-15
4.29746e-15
4.30756e-15
4.31312e-15
4.31242e-15