/*--------------------------------*- C++ -*----------------------------------*\
  =========                 |
  \\      /  F ield         | OpenFOAM: The Open Source CFD Toolbox
   \\    /   O peration     | Website:  https://openfoam.org
    \\  /    A nd           | Version:  7
     \\/     M anipulation  |
\*---------------------------------------------------------------------------*/
FoamFile
{
    version     2.0;
    format      ascii;
    class       volVectorField;
    location    "36000";
    object      U;
}
// * * * * * * * * * * * * * * * * * * * * * * * * * * * * * * * * * * * * * //

dimensions      [0 1 -1 0 0 0 0];

internalField   nonuniform List<vector> 
4764
(
(-8.36942e-19 2.70307e-19 -0.00686501)
(-4.73101e-19 3.64811e-19 -0.00686644)
(-3.86863e-19 -1.29173e-19 -0.00686764)
(-4.27642e-19 4.81766e-19 -0.00686863)
(-2.64753e-19 -2.63697e-19 -0.00686944)
(-7.59404e-19 3.85942e-21 -0.0068701)
(-9.57542e-19 2.27996e-19 -0.00681817)
(-2.75645e-19 -6.71339e-19 -0.00682455)
(-4.8738e-19 -4.2302e-19 -0.00683032)
(-7.05996e-19 -4.1115e-19 -0.00683551)
(-9.88544e-19 1.99609e-19 -0.00684015)
(-6.27586e-19 2.69146e-20 -0.00684427)
(-6.60737e-19 1.78087e-19 -0.0068479)
(-6.7001e-19 -1.59867e-19 -0.00685109)
(-8.84224e-19 -4.61594e-20 -0.00685386)
(-8.66042e-19 4.37714e-19 -0.00685626)
(-5.07644e-19 7.53996e-19 -0.00685832)
(-3.57227e-19 -1.78653e-20 -0.00686007)
(-3.94409e-19 4.42341e-19 -0.00686155)
(-1.69827e-19 -3.69029e-19 -0.00686278)
(-7.71686e-19 1.53429e-19 -0.00686379)
(-6.24273e-19 4.80604e-19 -0.00686461)
(-5.07191e-19 2.66515e-19 -0.00686524)
(-8.47913e-19 3.43085e-19 -0.0068657)
(-5.60237e-19 4.18386e-19 -0.00686599)
(-7.70595e-19 -3.11587e-19 -0.00686614)
(-1.28932e-18 5.84738e-19 -0.00686614)
(-8.70814e-19 4.11429e-19 -0.00686598)
(-1.03155e-18 5.10527e-19 -0.00686568)
(-7.79367e-19 1.10404e-18 -0.00686522)
(-7.64254e-19 9.94812e-19 -0.00686459)
(-3.084e-19 1.54975e-18 -0.00686378)
(-1.80576e-19 6.96834e-19 -0.00686277)
(-3.83341e-19 9.73787e-19 -0.00686154)
(1.95089e-19 8.38659e-19 -0.00686007)
(-1.04038e-18 2.65238e-19 -0.00679806)
(-3.3121e-19 -7.23874e-19 -0.00680549)
(-4.6459e-19 -5.25157e-19 -0.00681227)
(-8.20255e-19 -3.50075e-19 -0.00681845)
(-1.07667e-18 1.6626e-19 -0.00682403)
(-7.11858e-19 1.42972e-19 -0.00682906)
(-6.88569e-19 3.64079e-19 -0.00683356)
(-6.02571e-19 -2.12146e-19 -0.00683757)
(-9.01591e-19 -3.74419e-20 -0.00684111)
(-8.87124e-19 6.31658e-19 -0.00684421)
(-4.89883e-19 9.10567e-19 -0.00684693)
(-3.13738e-19 -5.55158e-21 -0.00684927)
(-3.55034e-19 3.69712e-19 -0.00685127)
(-1.17295e-19 -1.69825e-19 -0.00685296)
(-7.32638e-19 1.04632e-19 -0.00685437)
(-6.36823e-19 4.74627e-19 -0.00685551)
(-4.68335e-19 3.43248e-19 -0.0068564)
(-8.58262e-19 3.68187e-19 -0.00685705)
(-5.76309e-19 4.81403e-19 -0.00685748)
(-7.04285e-19 -2.69397e-19 -0.00685769)
(-1.29709e-18 4.5868e-19 -0.00685769)
(-9.88784e-19 3.15336e-19 -0.00685747)
(-1.08248e-18 5.08403e-19 -0.00685703)
(-7.28869e-19 1.04596e-18 -0.00685638)
(-7.71568e-19 1.07148e-18 -0.00685549)
(-2.62676e-19 1.55771e-18 -0.00685435)
(-1.24726e-19 5.56587e-19 -0.00685295)
(-3.10699e-19 9.22458e-19 -0.00685126)
(2.6601e-19 7.27201e-19 -0.00684926)
(4.53326e-19 1.6078e-19 -0.00684693)
(3.1398e-19 2.83071e-19 -0.00684422)
(2.84166e-19 5.38391e-19 -0.00684111)
(6.8491e-19 5.83739e-19 -0.00683758)
(-1.05806e-18 2.11785e-19 -0.0067749)
(-4.33597e-19 -6.79034e-19 -0.00678333)
(-4.26628e-19 -5.82962e-19 -0.00679109)
(-9.58524e-19 -2.08544e-19 -0.00679821)
(-1.22647e-18 2.61385e-19 -0.00680471)
(-7.28005e-19 1.23251e-19 -0.00681062)
(-7.42224e-19 5.2944e-19 -0.00681595)
(-5.76597e-19 -2.18895e-19 -0.00682075)
(-9.24218e-19 1.80724e-20 -0.00682503)
(-8.71656e-19 6.60953e-19 -0.00682883)
(-4.73911e-19 9.63084e-19 -0.00683218)
(-2.59131e-19 -1.20888e-19 -0.00683511)
(-3.06387e-19 3.22281e-19 -0.00683763)
(-7.53364e-20 1.59806e-20 -0.00683979)
(-6.79032e-19 -7.85331e-20 -0.00684159)
(-6.24608e-19 5.14632e-19 -0.00684306)
(-3.96609e-19 2.7047e-19 -0.00684422)
(-8.47332e-19 3.58601e-19 -0.00684508)
(-5.85757e-19 6.02504e-19 -0.00684564)
(-6.26976e-19 -2.23514e-19 -0.00684592)
(-1.29581e-18 1.90937e-19 -0.00684591)
(-1.07708e-18 1.85809e-19 -0.00684563)
(-1.09213e-18 6.46988e-19 -0.00684506)
(-6.61377e-19 9.8867e-19 -0.0068442)
(-8.01603e-19 9.81435e-19 -0.00684305)
(-2.26473e-19 1.54077e-18 -0.00684158)
(-1.83305e-20 5.79454e-19 -0.00683978)
(-1.93851e-19 9.87802e-19 -0.00683763)
(3.8912e-19 8.84647e-19 -0.00683511)
(4.58311e-19 4.61756e-20 -0.00683219)
(3.17258e-19 1.79194e-19 -0.00682884)
(2.89535e-19 5.01416e-19 -0.00682504)
(6.52322e-19 4.32449e-19 -0.00682076)
(6.47688e-19 8.54178e-20 -0.00681597)
(9.25611e-19 -1.35051e-19 -0.00681064)
(-1.14514e-19 -7.8134e-19 -0.00680474)
(8.39512e-19 8.48095e-20 -0.00679824)
(7.31416e-19 -2.9691e-19 -0.00679113)
(1.03233e-18 1.50042e-19 -0.00678337)
(4.65041e-19 -5.62647e-19 -0.00677494)
(9.5039e-19 -4.38081e-20 -0.00676584)
(7.6947e-19 -3.13732e-19 -0.00675604)
(9.12142e-19 2.99497e-21 -0.00674554)
(4.13582e-19 -7.37318e-19 -0.00673434)
(3.44479e-20 -6.03844e-19 -0.00672244)
(-1.07531e-18 1.77698e-19 -0.00674876)
(-6.16839e-19 -4.93702e-19 -0.00675816)
(-3.90155e-19 -6.07924e-19 -0.00676686)
(-1.05141e-18 -7.81665e-20 -0.00677489)
(-1.3917e-18 3.57111e-19 -0.00678227)
(-6.85956e-19 -1.29926e-20 -0.00678901)
(-7.6362e-19 6.03011e-19 -0.00679515)
(-6.22134e-19 -1.20108e-19 -0.00680071)
(-9.43388e-19 6.32454e-20 -0.0068057)
(-8.52863e-19 6.62968e-19 -0.00681017)
(-4.68247e-19 9.23465e-19 -0.00681414)
(-2.42489e-19 -2.22154e-19 -0.00681763)
(-2.83836e-19 3.6374e-19 -0.00682066)
(-2.41071e-20 3.03879e-20 -0.00682326)
(-6.15824e-19 -2.54142e-19 -0.00682545)
(-6.03436e-19 5.19345e-19 -0.00682724)
(-3.30136e-19 1.5709e-19 -0.00682866)
(-8.02769e-19 2.68794e-19 -0.00682972)
(-5.8782e-19 7.12778e-19 -0.00683041)
(-5.5927e-19 -1.71653e-19 -0.00683075)
(-1.27518e-18 3.61444e-20 -0.00683075)
(-1.11859e-18 2.02708e-19 -0.0068304)
(-1.07951e-18 7.99279e-19 -0.0068297)
(-5.99998e-19 9.48848e-19 -0.00682865)
(-8.22322e-19 8.8065e-19 -0.00682723)
(-1.53269e-19 1.71722e-18 -0.00682543)
(8.04268e-20 6.71462e-19 -0.00682325)
(-8.11119e-20 9.70757e-19 -0.00682065)
(4.66941e-19 9.37637e-19 -0.00681762)
(4.50916e-19 1.09058e-20 -0.00681414)
(3.31444e-19 5.5094e-20 -0.00681018)
(3.14485e-19 5.05918e-19 -0.00680571)
(6.42728e-19 3.63174e-19 -0.00680072)
(7.01824e-19 1.16177e-19 -0.00679517)
(1.01365e-18 -1.45102e-20 -0.00678903)
(-1.14643e-19 -7.21752e-19 -0.00678229)
(8.36302e-19 -8.34286e-20 -0.00677492)
(7.4407e-19 -4.17158e-19 -0.00676689)
(9.7976e-19 -1.13722e-20 -0.00675819)
(5.29245e-19 -4.50923e-19 -0.0067488)
(1.09633e-18 7.69757e-20 -0.00673871)
(7.48188e-19 -3.83998e-19 -0.00672791)
(8.71791e-19 -8.23563e-20 -0.00671639)
(4.09358e-19 -6.99871e-19 -0.00670416)
(1.43873e-19 -4.94247e-19 -0.00669123)
(-1.1508e-18 2.74409e-19 -0.00671971)
(-7.56364e-19 -3.64929e-19 -0.00673003)
(-4.42269e-19 -4.61913e-19 -0.00673964)
(-1.11597e-18 3.40666e-20 -0.00674855)
(-1.50204e-18 3.24071e-19 -0.00675677)
(-7.26999e-19 2.62218e-20 -0.00676432)
(-7.73184e-19 6.59519e-19 -0.00677123)
(-6.86676e-19 -1.22993e-20 -0.00677752)
(-9.37984e-19 1.66653e-20 -0.0067832)
(-8.62236e-19 6.95899e-19 -0.00678831)
(-4.42268e-19 7.18647e-19 -0.00679287)
(-2.62641e-19 -1.99599e-19 -0.00679689)
(-2.86318e-19 4.76576e-19 -0.00680041)
(-4.86031e-20 2.64087e-19 -0.00680344)
(-5.7512e-19 -3.39908e-19 -0.006806)
(-5.62293e-19 4.5639e-19 -0.00680811)
(-2.9377e-19 1.96771e-19 -0.00680978)
(-7.58836e-19 2.12053e-19 -0.00681102)
(-5.87551e-19 7.79586e-19 -0.00681185)
(-5.09532e-19 -1.28157e-19 -0.00681225)
(-1.24761e-18 3.22348e-20 -0.00681225)
(-1.12764e-18 2.34821e-19 -0.00681184)
(-1.05928e-18 9.38104e-19 -0.00681101)
(-5.54215e-19 7.91744e-19 -0.00680977)
(-7.98248e-19 9.18867e-19 -0.0068081)
(-1.08489e-19 1.79247e-18 -0.00680599)
(1.05043e-19 6.25551e-19 -0.00680343)
(-8.44504e-21 9.04404e-19 -0.00680041)
(4.58796e-19 6.97032e-19 -0.00679689)
(4.57482e-19 6.01231e-20 -0.00679287)
(3.41916e-19 -7.87755e-20 -0.00678832)
(3.39249e-19 4.401e-19 -0.00678321)
(6.69829e-19 3.70346e-19 -0.00677753)
(7.34532e-19 1.26773e-19 -0.00677125)
(9.68167e-19 -1.57066e-19 -0.00676434)
(-1.33506e-19 -7.01529e-19 -0.00675679)
(8.86324e-19 -1.61343e-19 -0.00674857)
(7.62318e-19 -5.11121e-19 -0.00673967)
(9.2734e-19 -1.60073e-19 -0.00673007)
(4.99453e-19 -5.20303e-19 -0.00671975)
(1.19532e-18 1.42101e-19 -0.00670871)
(6.92993e-19 -4.7175e-19 -0.00669694)
(8.81879e-19 -9.6195e-20 -0.00668445)
(4.94219e-19 -5.52655e-19 -0.00667123)
(2.37545e-19 -3.80961e-19 -0.0066573)
(-1.12909e-18 2.48983e-19 -0.00668782)
(-7.98e-19 -3.86024e-19 -0.00669903)
(-4.70784e-19 -3.31668e-19 -0.0067095)
(-1.07534e-18 -6.42632e-20 -0.00671925)
(-1.52632e-18 1.53294e-19 -0.00672828)
(-7.85681e-19 1.55932e-19 -0.00673662)
(-8.08617e-19 7.28874e-19 -0.00674427)
(-7.54174e-19 1.11657e-20 -0.00675126)
(-9.11928e-19 -7.68853e-20 -0.0067576)
(-8.52701e-19 6.48917e-19 -0.00676333)
(-4.50051e-19 5.74172e-19 -0.00676845)
(-3.14239e-19 -4.72349e-20 -0.00677299)
(-2.60093e-19 5.35839e-19 -0.00677698)
(-1.01377e-19 5.35591e-19 -0.00678042)
(-5.95476e-19 -2.86332e-19 -0.00678334)
(-5.22044e-19 4.1242e-19 -0.00678575)
(-2.65668e-19 1.94351e-19 -0.00678766)
(-7.2237e-19 1.22237e-19 -0.00678908)
(-5.93972e-19 7.44517e-19 -0.00679003)
(-4.75296e-19 -1.58007e-19 -0.0067905)
(-1.22036e-18 5.5154e-20 -0.00679049)
(-1.11933e-18 2.93234e-19 -0.00679002)
(-1.05333e-18 1.06014e-18 -0.00678907)
(-5.14195e-19 6.2774e-19 -0.00678765)
(-7.59581e-19 9.52159e-19 -0.00678573)
(-1.30758e-19 1.67567e-18 -0.00678333)
(8.8495e-20 4.82514e-19 -0.00678041)
(6.13676e-20 9.04564e-19 -0.00677697)
(4.62345e-19 5.33222e-19 -0.00677299)
(4.7105e-19 1.28545e-19 -0.00676845)
(3.5192e-19 -1.84292e-19 -0.00676333)
(3.79496e-19 3.95598e-19 -0.00675761)
(6.76455e-19 3.39715e-19 -0.00675127)
(7.29503e-19 9.63065e-20 -0.00674428)
(9.00127e-19 -3.48135e-19 -0.00673664)
(-6.41008e-20 -5.49579e-19 -0.00672831)
(1.01447e-18 -8.35046e-20 -0.00671928)
(8.0421e-19 -5.37659e-19 -0.00670954)
(9.46571e-19 -1.74216e-19 -0.00669907)
(5.06263e-19 -5.46382e-19 -0.00668786)
(1.25633e-18 1.59633e-19 -0.00667591)
(6.14296e-19 -5.70063e-19 -0.00666321)
(9.20345e-19 -9.32327e-20 -0.00664977)
(5.55986e-19 -4.29673e-19 -0.00663561)
(2.13591e-19 -3.72041e-19 -0.00662072)
(-9.54369e-19 -1.38258e-21 -0.00665315)
(-7.91453e-19 -4.46191e-19 -0.00666521)
(-4.50483e-19 -3.02262e-19 -0.00667652)
(-9.38181e-19 -3.48256e-19 -0.00668708)
(-1.5894e-18 1.37e-19 -0.00669689)
(-7.92694e-19 2.16476e-19 -0.00670597)
(-8.31522e-19 7.49944e-19 -0.00671433)
(-8.72185e-19 1.28859e-19 -0.00672199)
(-9.48061e-19 -1.66914e-20 -0.00672897)
(-8.20041e-19 5.40636e-19 -0.00673529)
(-5.06788e-19 6.46931e-19 -0.00674096)
(-3.90779e-19 1.54899e-19 -0.006746)
(-2.36779e-19 5.4578e-19 -0.00675043)
(-1.0131e-19 5.26105e-19 -0.00675427)
(-6.41734e-19 -1.61891e-19 -0.00675753)
(-5.00909e-19 3.51422e-19 -0.00676023)
(-2.54275e-19 8.54977e-20 -0.00676237)
(-6.9332e-19 -1.79879e-20 -0.00676397)
(-6.06323e-19 6.24776e-19 -0.00676503)
(-4.56978e-19 -2.82284e-19 -0.00676556)
(-1.19102e-18 7.91096e-21 -0.00676556)
(-1.09336e-18 3.5966e-19 -0.00676503)
(-1.05998e-18 1.17113e-18 -0.00676396)
(-4.66384e-19 6.85069e-19 -0.00676236)
(-7.32426e-19 8.79431e-19 -0.00676022)
(-1.81699e-19 1.51546e-18 -0.00675752)
(8.7265e-20 4.7067e-19 -0.00675426)
(1.33352e-19 9.57661e-19 -0.00675043)
(4.60948e-19 4.22764e-19 -0.006746)
(4.72116e-19 2.14522e-19 -0.00674096)
(3.81528e-19 -2.05952e-19 -0.00673529)
(4.30549e-19 3.67114e-19 -0.00672898)
(6.54204e-19 2.46323e-19 -0.00672201)
(7.3065e-19 1.06632e-19 -0.00671435)
(8.78209e-19 -4.68428e-19 -0.00670599)
(2.67561e-20 -4.10019e-19 -0.00669691)
(1.22229e-18 1.75351e-19 -0.0066871)
(8.88371e-19 -4.5835e-19 -0.00667655)
(1.01741e-18 -8.92554e-20 -0.00666525)
(6.19939e-19 -3.97397e-19 -0.00665319)
(1.24154e-18 1.00334e-19 -0.00664036)
(5.58723e-19 -6.29837e-19 -0.00662678)
(9.51895e-19 -1.01845e-19 -0.00661244)
(4.85429e-19 -4.34885e-19 -0.00659737)
(7.5386e-20 -4.76067e-19 -0.00658158)
(-8.48002e-19 -1.20626e-19 -0.00661577)
(-7.62833e-19 -4.9747e-19 -0.00662865)
(-4.57037e-19 -2.46521e-19 -0.00664076)
(-8.39277e-19 -5.06549e-19 -0.00665209)
(-1.63915e-18 1.65023e-19 -0.00666264)
(-7.71847e-19 2.07474e-19 -0.00667244)
(-7.61989e-19 5.87056e-19 -0.00668149)
(-9.62678e-19 1.85594e-19 -0.0066898)
(-1.06563e-18 2.22835e-19 -0.00669739)
(-7.8814e-19 4.52105e-19 -0.00670427)
(-5.56398e-19 7.28112e-19 -0.00671047)
(-4.43801e-19 1.7865e-19 -0.00671599)
(-2.46783e-19 6.14298e-19 -0.00672085)
(-6.99871e-20 3.64982e-19 -0.00672507)
(-6.82488e-19 -9.9438e-20 -0.00672866)
(-4.97561e-19 2.4023e-19 -0.00673163)
(-2.59462e-19 -1.27692e-20 -0.006734)
(-6.75077e-19 -1.09345e-19 -0.00673576)
(-6.35669e-19 5.285e-19 -0.00673694)
(-4.56611e-19 -3.56438e-19 -0.00673752)
(-1.15586e-18 -3.91816e-20 -0.00673752)
(-1.05232e-18 4.36249e-19 -0.00673693)
(-1.06733e-18 1.22301e-18 -0.00673575)
(-4.29256e-19 8.71399e-19 -0.00673399)
(-7.2536e-19 8.19117e-19 -0.00673162)
(-2.27349e-19 1.39024e-18 -0.00672865)
(1.01363e-19 5.37691e-19 -0.00672506)
(1.75474e-19 9.99428e-19 -0.00672084)
(4.40634e-19 2.73468e-19 -0.00671599)
(4.86753e-19 3.11271e-19 -0.00671047)
(4.31712e-19 -1.23039e-19 -0.00670428)
(4.77369e-19 3.78313e-19 -0.0066974)
(6.02569e-19 8.55478e-20 -0.00668981)
(7.20825e-19 9.10402e-20 -0.0066815)
(8.78663e-19 -5.25262e-19 -0.00667246)
(8.25012e-20 -4.13394e-19 -0.00666267)
(1.35574e-18 2.87542e-19 -0.00665211)
(9.02556e-19 -4.4926e-19 -0.00664079)
(1.0614e-18 -5.29996e-20 -0.00662869)
(6.83523e-19 -2.89516e-19 -0.00661581)
(1.1701e-18 4.61798e-21 -0.00660215)
(5.54473e-19 -6.19933e-19 -0.00658772)
(9.51495e-19 -1.34345e-19 -0.00657252)
(3.47607e-19 -4.93849e-19 -0.00655659)
(-5.85083e-20 -6.01272e-19 -0.00653993)
(-9.50079e-19 7.85944e-20 -0.00657576)
(-7.72215e-19 -4.7073e-19 -0.00658942)
(-4.92439e-19 -1.2668e-19 -0.00660229)
(-8.65508e-19 -4.37395e-19 -0.00661436)
(-1.58603e-18 2.87383e-21 -0.00662563)
(-7.67476e-19 2.07541e-19 -0.00663611)
(-6.88072e-19 4.15074e-19 -0.00664581)
(-9.68187e-19 1.46632e-19 -0.00665474)
(-1.16243e-18 4.09262e-19 -0.00666292)
(-7.96488e-19 4.29224e-19 -0.00667034)
(-5.69298e-19 6.70949e-19 -0.00667704)
(-4.48337e-19 3.41736e-20 -0.00668302)
(-2.88952e-19 7.9904e-19 -0.00668829)
(-5.01025e-20 2.07035e-19 -0.00669288)
(-7.1108e-19 -9.55142e-20 -0.00669679)
(-5.09627e-19 1.59856e-19 -0.00670002)
(-2.81804e-19 -3.33015e-20 -0.0067026)
(-6.6766e-19 -1.33854e-19 -0.00670453)
(-6.74437e-19 5.19793e-19 -0.00670581)
(-4.73456e-19 -3.04617e-19 -0.00670645)
(-1.12186e-18 2.77084e-20 -0.00670645)
(-1.00993e-18 4.50426e-19 -0.0067058)
(-1.07946e-18 1.21012e-18 -0.00670452)
(-4.05061e-19 1.0185e-18 -0.00670259)
(-7.23936e-19 8.15766e-19 -0.00670001)
(-2.5861e-19 1.38969e-18 -0.00669678)
(1.00861e-19 5.53463e-19 -0.00669287)
(1.85332e-19 9.84728e-19 -0.00668829)
(4.37853e-19 2.28942e-19 -0.00668302)
(4.59075e-19 2.37173e-19 -0.00667704)
(4.49406e-19 -1.24647e-19 -0.00667035)
(4.62902e-19 2.76424e-19 -0.00666292)
(5.37981e-19 -7.93592e-20 -0.00665475)
(6.72575e-19 -3.77289e-20 -0.00664583)
(9.02772e-19 -5.29475e-19 -0.00663613)
(1.36051e-19 -4.09896e-19 -0.00662565)
(1.36436e-18 1.86924e-19 -0.00661438)
(8.52465e-19 -5.50548e-19 -0.00660232)
(1.05711e-18 -9.38593e-20 -0.00658946)
(6.09891e-19 -3.82007e-19 -0.0065758)
(1.11533e-18 -6.36951e-20 -0.00656134)
(5.59271e-19 -5.96804e-19 -0.0065461)
(9.34088e-19 -1.62278e-19 -0.00653009)
(1.14331e-19 -6.43837e-19 -0.00651334)
(-7.83305e-20 -6.21338e-19 -0.00649585)
(-1.08476e-18 3.292e-19 -0.00653319)
(-8.1156e-19 -4.19834e-19 -0.00654759)
(-5.01323e-19 -3.67369e-20 -0.00656118)
(-8.91682e-19 -3.91662e-19 -0.00657396)
(-1.53935e-18 -1.41433e-19 -0.00658591)
(-7.81764e-19 2.95363e-19 -0.00659705)
(-6.99492e-19 4.53831e-19 -0.00660737)
(-9.68126e-19 1.07966e-19 -0.00661689)
(-1.17337e-18 3.68869e-19 -0.00662563)
(-8.2536e-19 4.53526e-19 -0.00663357)
(-5.99511e-19 6.18197e-19 -0.00664075)
(-4.25658e-19 -1.40937e-19 -0.00664717)
(-3.23028e-19 9.77446e-19 -0.00665284)
(-5.32755e-20 8.3211e-20 -0.00665777)
(-7.40273e-19 -7.07992e-20 -0.00666198)
(-5.30316e-19 1.19986e-19 -0.00666548)
(-3.12849e-19 9.15789e-21 -0.00666826)
(-6.6457e-19 -1.08689e-19 -0.00667034)
(-7.18931e-19 5.78064e-19 -0.00667173)
(-4.97082e-19 -2.08681e-19 -0.00667242)
(-1.10293e-18 9.89709e-20 -0.00667241)
(-9.79531e-19 4.15664e-19 -0.00667172)
(-1.08016e-18 1.22872e-18 -0.00667033)
(-3.99356e-19 1.06457e-18 -0.00666825)
(-7.25303e-19 8.26008e-19 -0.00666547)
(-2.93166e-19 1.40819e-18 -0.00666197)
(8.82743e-20 5.74091e-19 -0.00665777)
(1.83346e-19 9.28394e-19 -0.00665284)
(4.35954e-19 2.5599e-19 -0.00664717)
(3.93266e-19 6.16599e-20 -0.00664075)
(4.471e-19 -1.72557e-19 -0.00663358)
(4.13832e-19 9.99031e-20 -0.00662563)
(5.47248e-19 -5.4565e-20 -0.00661691)
(6.2136e-19 -1.97411e-19 -0.00660739)
(9.32711e-19 -5.46206e-19 -0.00659706)
(1.75965e-19 -4.22708e-19 -0.00658593)
(1.38602e-18 1.39408e-19 -0.00657398)
(8.45558e-19 -5.63607e-19 -0.00656121)
(9.9121e-19 -2.18566e-19 -0.00654763)
(4.6679e-19 -5.73453e-19 -0.00653322)
(1.15747e-18 -3.69303e-21 -0.00651801)
(5.47203e-19 -5.91313e-19 -0.006502)
(8.56656e-19 -2.23352e-19 -0.00648522)
(-1.05919e-19 -7.83413e-19 -0.00646768)
(3.22853e-20 -5.24503e-19 -0.00644942)
(-1.06474e-18 3.47858e-19 -0.00648813)
(-8.53465e-19 -3.75309e-19 -0.00650324)
(-4.60479e-19 -3.67072e-20 -0.00651752)
(-8.36909e-19 -4.96578e-19 -0.00653096)
(-1.52611e-18 -1.74067e-19 -0.00654356)
(-7.94392e-19 4.11378e-19 -0.00655532)
(-6.85049e-19 4.12664e-19 -0.00656624)
(-9.78415e-19 7.4825e-20 -0.00657633)
(-1.12446e-18 1.84326e-19 -0.00658559)
(-8.47942e-19 4.95152e-19 -0.00659404)
(-6.53685e-19 6.12809e-19 -0.00660167)
(-4.51815e-19 -8.5766e-20 -0.00660851)
(-3.15713e-19 9.99944e-19 -0.00661456)
(-6.60827e-20 -2.33386e-20 -0.00661983)
(-7.47325e-19 -1.37774e-19 -0.00662433)
(-5.67001e-19 2.02128e-19 -0.00662806)
(-3.4676e-19 8.06513e-20 -0.00663104)
(-6.59688e-19 -1.13007e-19 -0.00663327)
(-7.56268e-19 4.92133e-19 -0.00663475)
(-5.35053e-19 -9.82951e-20 -0.00663549)
(-1.09398e-18 2.32485e-19 -0.00663549)
(-9.39711e-19 4.43616e-19 -0.00663475)
(-1.0837e-18 1.24953e-18 -0.00663326)
(-4.11866e-19 1.01575e-18 -0.00663103)
(-7.36641e-19 7.52444e-19 -0.00662805)
(-3.33407e-19 1.39475e-18 -0.00662432)
(8.17959e-20 6.50043e-19 -0.00661982)
(2.14657e-19 1.0487e-18 -0.00661455)
(4.11566e-19 2.44021e-19 -0.00660851)
(3.55365e-19 -3.80541e-21 -0.00660168)
(4.52872e-19 -1.95182e-19 -0.00659404)
(4.13676e-19 2.85372e-20 -0.0065856)
(5.75754e-19 2.72135e-20 -0.00657634)
(6.1811e-19 -2.03802e-19 -0.00656626)
(9.24176e-19 -6.55455e-19 -0.00655534)
(2.06696e-19 -4.57163e-19 -0.00654358)
(1.4031e-18 7.67631e-20 -0.00653099)
(8.82342e-19 -4.64832e-19 -0.00651755)
(9.03779e-19 -3.31108e-19 -0.00650327)
(4.17379e-19 -6.6746e-19 -0.00648816)
(1.22867e-18 7.71559e-20 -0.00647223)
(5.12186e-19 -5.76789e-19 -0.0064555)
(8.05601e-19 -2.32426e-19 -0.00643798)
(-1.54991e-19 -7.4072e-19 -0.00641971)
(1.65505e-19 -4.04324e-19 -0.00640071)
(-9.7892e-19 2.78305e-19 -0.00644066)
(-8.63642e-19 -3.73857e-19 -0.00645644)
(-4.2532e-19 -5.20086e-20 -0.00647137)
(-8.0287e-19 -5.36938e-19 -0.00648544)
(-1.51727e-18 -1.46261e-19 -0.00649866)
(-7.94399e-19 4.87186e-19 -0.00651101)
(-6.00428e-19 2.07404e-19 -0.0065225)
(-1.01208e-18 9.46037e-20 -0.00653312)
(-1.08056e-18 3.20027e-20 -0.00654289)
(-8.31899e-19 4.82746e-19 -0.00655181)
(-7.04413e-19 6.40224e-19 -0.00655988)
(-5.09465e-19 8.21172e-20 -0.00656712)
(-2.95181e-19 8.89417e-19 -0.00657352)
(-9.37075e-20 -9.47269e-20 -0.00657911)
(-7.27558e-19 -2.55823e-19 -0.00658388)
(-5.81773e-19 2.51185e-19 -0.00658785)
(-3.91983e-19 1.23589e-19 -0.00659102)
(-6.751e-19 -7.36883e-20 -0.00659339)
(-7.82696e-19 3.56404e-19 -0.00659497)
(-5.46662e-19 -8.49073e-21 -0.00659575)
(-1.09018e-18 3.67459e-19 -0.00659575)
(-9.17763e-19 4.49621e-19 -0.00659496)
(-1.10071e-18 1.18222e-18 -0.00659338)
(-4.38551e-19 9.66326e-19 -0.00659101)
(-7.57461e-19 5.75692e-19 -0.00658784)
(-3.50623e-19 1.42854e-18 -0.00658388)
(8.94796e-20 7.10971e-19 -0.00657911)
(2.49829e-19 1.23093e-18 -0.00657352)
(3.80378e-19 2.91852e-19 -0.00656712)
(3.43281e-19 1.2722e-20 -0.00655988)
(4.77284e-19 -1.53969e-19 -0.00655181)
(4.45714e-19 5.31326e-20 -0.0065429)
(5.41607e-19 -7.07583e-20 -0.00653313)
(7.00735e-19 1.74021e-20 -0.00652251)
(8.93152e-19 -7.91257e-19 -0.00651103)
(2.62279e-19 -4.54265e-19 -0.00649868)
(1.42065e-18 5.81654e-21 -0.00648547)
(8.80682e-19 -4.27996e-19 -0.0064714)
(8.32241e-19 -4.05259e-19 -0.00645647)
(4.5639e-19 -6.2818e-19 -0.00644069)
(1.21e-18 4.14712e-20 -0.00642408)
(4.78017e-19 -5.60846e-19 -0.00640666)
(7.99374e-19 -1.88591e-19 -0.00638845)
(-1.06806e-19 -5.86747e-19 -0.00636948)
(2.8491e-19 -2.804e-19 -0.00634979)
(-7.85306e-19 -7.93175e-19 -0.0063736)
(-9.62489e-19 3.06224e-19 -0.00639085)
(-8.37749e-19 -4.24799e-19 -0.00640726)
(-4.13832e-19 -7.2465e-21 -0.00642281)
(-7.99752e-19 -5.05094e-19 -0.00643749)
(-1.50953e-18 -1.03621e-19 -0.00645128)
(-8.25638e-19 5.93119e-19 -0.00646419)
(-5.10383e-19 -3.29317e-21 -0.00647621)
(-1.01402e-18 7.83689e-20 -0.00648735)
(-1.07513e-18 -2.81609e-20 -0.0064976)
(-7.94914e-19 4.44736e-19 -0.00650696)
(-7.28048e-19 6.18983e-19 -0.00651545)
(-5.47431e-19 1.45943e-19 -0.00652306)
(-2.81765e-19 7.99925e-19 -0.00652981)
(-1.18837e-19 -1.62071e-19 -0.0065357)
(-7.29339e-19 -2.39199e-19 -0.00654074)
(-5.79707e-19 2.36543e-19 -0.00654493)
(-4.21276e-19 1.4199e-19 -0.00654827)
(-6.91085e-19 -3.47441e-20 -0.00655077)
(-8.17229e-19 3.55115e-19 -0.00655244)
(-5.59184e-19 5.67004e-20 -0.00655327)
(-1.09453e-18 4.48152e-19 -0.00655327)
(-9.00886e-19 4.22581e-19 -0.00655244)
(-1.11963e-18 1.06649e-18 -0.00655077)
(-4.68488e-19 9.43203e-19 -0.00654826)
(-7.52413e-19 5.26701e-19 -0.00654492)
(-3.58189e-19 1.43626e-18 -0.00654073)
(8.19647e-20 6.94919e-19 -0.0065357)
(2.3059e-19 1.15282e-18 -0.00652981)
(3.56598e-19 3.93123e-19 -0.00652306)
(3.52988e-19 1.06979e-19 -0.00651545)
(5.18725e-19 -7.47331e-20 -0.00650697)
(4.7075e-19 1.04682e-19 -0.0064976)
(5.38223e-19 -1.28113e-19 -0.00648736)
(7.8984e-19 2.4854e-19 -0.00647623)
(9.03448e-19 -7.90835e-19 -0.00646421)
(2.86162e-19 -5.26152e-19 -0.0064513)
(1.45593e-18 -1.38592e-20 -0.00643751)
(7.96336e-19 -5.16218e-19 -0.00642284)
(7.95532e-19 -4.26778e-19 -0.00640729)
(4.80533e-19 -6.21541e-19 -0.00639089)
(1.20407e-18 3.23392e-20 -0.00637364)
(4.53271e-19 -5.35616e-19 -0.00635557)
(8.34614e-19 -1.02045e-19 -0.0063367)
(-3.61019e-20 -4.17324e-19 -0.00631708)
(3.83024e-19 -1.61467e-19 -0.00629674)
(-8.93355e-19 -6.21407e-19 -0.00632093)
(-1.0016e-18 3.93099e-19 -0.00633879)
(-8.81216e-19 -3.68461e-19 -0.00635579)
(-3.91803e-19 2.23049e-20 -0.00637192)
(-7.52962e-19 -5.4461e-19 -0.00638716)
(-1.46512e-18 -9.5274e-20 -0.0064015)
(-8.60679e-19 6.83957e-19 -0.00641494)
(-4.8768e-19 -8.29619e-20 -0.00642747)
(-9.92569e-19 2.66454e-20 -0.00643908)
(-1.0652e-18 -7.87343e-20 -0.00644979)
(-7.88683e-19 5.09946e-19 -0.00645957)
(-7.25869e-19 5.27779e-19 -0.00646845)
(-5.81258e-19 2.19586e-19 -0.00647643)
(-2.77799e-19 7.31273e-19 -0.0064835)
(-1.27055e-19 -2.83335e-19 -0.00648968)
(-7.29864e-19 -1.60427e-19 -0.00649496)
(-5.66553e-19 1.4838e-19 -0.00649936)
(-4.58365e-19 1.92133e-19 -0.00650287)
(-6.91803e-19 -1.58207e-19 -0.0065055)
(-8.42592e-19 3.53795e-19 -0.00650725)
(-5.63477e-19 1.75678e-19 -0.00650813)
(-1.10261e-18 5.0249e-19 -0.00650813)
(-9.01965e-19 3.49689e-19 -0.00650725)
(-1.13744e-18 9.43707e-19 -0.0065055)
(-4.8546e-19 9.46365e-19 -0.00650286)
(-7.37809e-19 5.52595e-19 -0.00649935)
(-3.92607e-19 1.32331e-18 -0.00649496)
(6.4879e-20 6.75058e-19 -0.00648967)
(1.98203e-19 9.85571e-19 -0.0064835)
(3.25553e-19 3.83683e-19 -0.00647643)
(3.86154e-19 2.74853e-19 -0.00646846)
(5.28563e-19 -7.30107e-20 -0.00645958)
(4.78255e-19 1.06616e-19 -0.00644979)
(5.70179e-19 -1.11581e-19 -0.0064391)
(7.99801e-19 2.91385e-19 -0.00642748)
(9.09921e-19 -7.5196e-19 -0.00641496)
(3.45625e-19 -5.19797e-19 -0.00640152)
(1.48953e-18 -3.25169e-20 -0.00638718)
(6.91218e-19 -6.4175e-19 -0.00637194)
(8.11081e-19 -3.77998e-19 -0.00635582)
(5.07386e-19 -6.088e-19 -0.00633882)
(1.19596e-18 2.11288e-20 -0.00632097)
(3.76187e-19 -5.88692e-19 -0.00630229)
(8.91847e-19 9.51859e-22 -0.00628282)
(-2.11707e-20 -3.08102e-19 -0.00626258)
(3.98412e-19 -1.15386e-19 -0.00624163)
(-9.93096e-19 -4.65597e-19 -0.00626612)
(-1.01202e-18 4.48588e-19 -0.00628454)
(-9.94918e-19 -2.13045e-19 -0.00630209)
(-3.59746e-19 5.63129e-21 -0.00631877)
(-6.9347e-19 -6.05275e-19 -0.00633454)
(-1.38546e-18 -1.33149e-19 -0.0063494)
(-8.22777e-19 6.25003e-19 -0.00636334)
(-5.14523e-19 -5.32574e-20 -0.00637634)
(-9.54266e-19 -6.70569e-20 -0.00638841)
(-1.06014e-18 -8.56005e-20 -0.00639954)
(-7.65918e-19 5.30062e-19 -0.00640973)
(-7.68487e-19 5.99866e-19 -0.00641898)
(-5.97806e-19 2.38924e-19 -0.00642729)
(-2.90917e-19 6.90627e-19 -0.00643467)
(-1.30253e-19 -3.86449e-19 -0.00644112)
(-7.22661e-19 -1.39303e-19 -0.00644664)
(-5.36989e-19 -2.13003e-20 -0.00645123)
(-4.94023e-19 2.76136e-19 -0.0064549)
(-6.97773e-19 -2.597e-19 -0.00645765)
(-8.42528e-19 3.21147e-19 -0.00645948)
(-5.67743e-19 2.252e-19 -0.0064604)
(-1.12962e-18 4.0278e-19 -0.0064604)
(-9.0451e-19 2.66848e-19 -0.00645948)
(-1.13677e-18 9.17624e-19 -0.00645765)
(-4.97678e-19 9.39033e-19 -0.00645489)
(-7.33075e-19 5.65454e-19 -0.00645122)
(-4.15043e-19 1.25218e-18 -0.00644663)
(3.48005e-20 5.65243e-19 -0.00644111)
(1.76308e-19 8.89282e-19 -0.00643467)
(3.04475e-19 3.51572e-19 -0.00642729)
(4.4175e-19 5.09325e-19 -0.00641898)
(5.20789e-19 -9.57197e-20 -0.00640973)
(5.22178e-19 2.02383e-19 -0.00639955)
(6.01705e-19 -9.14735e-20 -0.00638842)
(7.63911e-19 2.35268e-19 -0.00637636)
(9.24118e-19 -7.25349e-19 -0.00636336)
(4.94577e-19 -3.37017e-19 -0.00634942)
(1.48769e-18 -7.26252e-20 -0.00633457)
(6.19575e-19 -7.12033e-19 -0.0063188)
(7.95772e-19 -3.96518e-19 -0.00630212)
(5.33193e-19 -5.90826e-19 -0.00628457)
(1.07801e-18 -1.23693e-19 -0.00626616)
(2.27354e-19 -7.49979e-19 -0.00624691)
(9.12018e-19 4.29278e-20 -0.00622686)
(-1.2035e-19 -3.24952e-19 -0.00620606)
(3.83394e-19 -1.02924e-19 -0.00618454)
(-1.7859e-18 -2.89266e-19 -0.00618946)
(-1.11065e-18 -3.01083e-19 -0.00620924)
(-9.98827e-19 4.67466e-19 -0.00622818)
(-1.06794e-18 -1.30867e-19 -0.00624626)
(-3.51126e-19 -1.6935e-21 -0.00626344)
(-6.65775e-19 -6.04175e-19 -0.00627971)
(-1.34687e-18 -8.97207e-20 -0.00629506)
(-7.7305e-19 5.59701e-19 -0.00630946)
(-5.25759e-19 -5.70707e-20 -0.00632291)
(-9.0323e-19 -1.9394e-19 -0.0063354)
(-1.06477e-18 -4.62911e-20 -0.00634693)
(-7.20827e-19 5.29813e-19 -0.0063575)
(-8.02836e-19 6.56338e-19 -0.0063671)
(-6.08177e-19 1.97972e-19 -0.00637573)
(-3.19342e-19 7.27883e-19 -0.00638339)
(-1.53867e-19 -4.01614e-19 -0.0063901)
(-7.12813e-19 -1.39557e-19 -0.00639584)
(-5.07035e-19 -1.12527e-19 -0.00640062)
(-5.18045e-19 3.27529e-19 -0.00640444)
(-7.17288e-19 -2.34242e-19 -0.0064073)
(-8.47568e-19 3.97848e-19 -0.00640921)
(-5.7259e-19 1.15971e-19 -0.00641017)
(-1.15255e-18 2.44371e-19 -0.00641016)
(-8.93184e-19 2.0586e-19 -0.00640921)
(-1.12765e-18 9.78506e-19 -0.0064073)
(-5.12128e-19 9.23563e-19 -0.00640443)
(-7.06635e-19 6.96128e-19 -0.00640061)
(-4.38818e-19 1.26623e-18 -0.00639583)
(1.47988e-20 5.34802e-19 -0.00639009)
(1.72842e-19 8.02807e-19 -0.00638339)
(3.36649e-19 4.37056e-19 -0.00637573)
(4.62274e-19 6.18439e-19 -0.0063671)
(5.08306e-19 -1.22518e-19 -0.0063575)
(5.77661e-19 3.207e-19 -0.00634694)
(6.3653e-19 -1.89024e-20 -0.00633541)
(7.56892e-19 2.47178e-19 -0.00632292)
(9.56649e-19 -6.92909e-19 -0.00630948)
(5.92695e-19 -2.42106e-19 -0.00629508)
(1.44319e-18 -1.58409e-19 -0.00627974)
(5.86577e-19 -7.08149e-19 -0.00626347)
(7.678e-19 -4.40208e-19 -0.00624629)
(5.2845e-19 -6.00948e-19 -0.00622821)
(8.85364e-19 -3.51784e-19 -0.00620927)
(1.19347e-19 -8.83375e-19 -0.0061895)
(9.02968e-19 4.23322e-20 -0.00616892)
(-2.48979e-19 -3.7682e-19 -0.00614758)
(4.55616e-19 -3.33616e-21 -0.00612553)
(-1.73704e-18 -3.44707e-19 -0.00613009)
(-1.18744e-18 -1.9808e-19 -0.00615036)
(-9.98164e-19 4.94243e-19 -0.00616979)
(-1.08763e-18 -1.3772e-19 -0.00618835)
(-3.62281e-19 2.6979e-20 -0.00620601)
(-6.56152e-19 -5.54437e-19 -0.00622275)
(-1.38059e-18 1.01198e-19 -0.00623854)
(-7.56753e-19 5.41936e-19 -0.00625338)
(-5.26774e-19 -1.03512e-19 -0.00626725)
(-8.87962e-19 -2.07267e-19 -0.00628014)
(-1.05273e-18 -2.02066e-20 -0.00629205)
(-7.26362e-19 6.63025e-19 -0.00630296)
(-7.88516e-19 5.36203e-19 -0.00631289)
(-6.09773e-19 1.76817e-19 -0.00632182)
(-3.30357e-19 7.10096e-19 -0.00632976)
(-1.94484e-19 -3.43243e-19 -0.0063367)
(-7.17105e-19 -7.84697e-20 -0.00634265)
(-4.82541e-19 -1.39431e-19 -0.0063476)
(-5.26333e-19 3.30556e-19 -0.00635156)
(-7.24861e-19 -2.12302e-19 -0.00635453)
(-8.61429e-19 5.04593e-19 -0.00635651)
(-5.9628e-19 3.85906e-21 -0.0063575)
(-1.1704e-18 1.53411e-19 -0.0063575)
(-8.67396e-19 1.17479e-19 -0.00635651)
(-1.1196e-18 9.16042e-19 -0.00635453)
(-5.18857e-19 8.93333e-19 -0.00635156)
(-6.9319e-19 7.17081e-19 -0.0063476)
(-4.77105e-19 1.18677e-18 -0.00634264)
(4.79342e-20 7.90747e-19 -0.00633669)
(1.875e-19 7.94368e-19 -0.00632975)
(3.76171e-19 5.48353e-19 -0.00632182)
(4.15096e-19 5.35769e-19 -0.00631289)
(4.82261e-19 -2.13816e-19 -0.00630297)
(6.03294e-19 3.28488e-19 -0.00629205)
(6.50309e-19 -8.98923e-21 -0.00628015)
(7.7044e-19 3.26872e-19 -0.00626726)
(9.7249e-19 -6.83447e-19 -0.0062534)
(5.6351e-19 -3.89002e-19 -0.00623856)
(1.42756e-18 -1.86023e-19 -0.00622277)
(5.82431e-19 -6.6509e-19 -0.00620604)
(7.66748e-19 -4.34797e-19 -0.00618838)
(5.01218e-19 -6.23648e-19 -0.00616983)
(8.26094e-19 -3.83736e-19 -0.0061504)
(1.84805e-19 -8.08563e-19 -0.00613013)
(9.00803e-19 4.96045e-20 -0.00610905)
(-3.5485e-19 -4.21971e-19 -0.00608722)
(5.26397e-19 9.86916e-20 -0.00606468)
(-1.0217e-18 -1.31975e-18 -0.0060473)
(-1.55823e-18 -5.58869e-19 -0.00606884)
(-1.19936e-18 -1.62411e-19 -0.00608956)
(-9.90252e-19 5.02015e-19 -0.00610945)
(-1.0895e-18 -1.75424e-19 -0.00612846)
(-4.24646e-19 1.43891e-19 -0.00614656)