/*--------------------------------*- C++ -*----------------------------------*\
  =========                 |
  \\      /  F ield         | OpenFOAM: The Open Source CFD Toolbox
   \\    /   O peration     | Website:  https://openfoam.org
    \\  /    A nd           | Version:  7
     \\/     M anipulation  |
\*---------------------------------------------------------------------------*/
FoamFile
{
    version     2.0;
    format      ascii;
    class       volScalarField;
    location    "64000";
    object      nut;
}
// * * * * * * * * * * * * * * * * * * * * * * * * * * * * * * * * * * * * * //

dimensions      [0 2 -1 0 0 0 0];

internalField   nonuniform List<scalar> 
4782
(
2.29774e-06
2.20034e-06
2.10405e-06
2.00892e-06
1.91503e-06
1.82249e-06
1.73136e-06
1.64171e-06
1.55363e-06
1.46718e-06
6.73075e-06
6.65134e-06
6.56989e-06
6.48651e-06
6.40143e-06
6.31464e-06
6.22634e-06
6.13659e-06
6.04547e-06
5.95295e-06
5.85908e-06
5.76391e-06
5.66762e-06
5.57021e-06
5.47184e-06
5.37252e-06
5.27237e-06
5.17137e-06
5.06959e-06
4.96708e-06
4.86392e-06
4.7602e-06
4.65604e-06
4.55152e-06
4.44664e-06
4.34148e-06
4.23607e-06
4.13046e-06
4.02478e-06
3.9191e-06
3.81345e-06
3.70786e-06
3.60238e-06
3.49712e-06
3.39216e-06
3.28753e-06
3.18329e-06
3.0795e-06
2.97625e-06
2.87356e-06
2.77149e-06
2.67014e-06
2.56957e-06
2.46985e-06
2.37106e-06
2.27326e-06
2.17651e-06
2.08086e-06
1.98639e-06
1.8932e-06
1.80135e-06
1.71092e-06
1.622e-06
1.53464e-06
1.44892e-06
6.70003e-06
6.61997e-06
6.53791e-06
6.45406e-06
6.36855e-06
6.28139e-06
6.19276e-06
6.10272e-06
6.01121e-06
5.91832e-06
5.8242e-06
5.72884e-06
5.6324e-06
5.53488e-06
5.4364e-06
5.33698e-06
5.23676e-06
5.13573e-06
5.03403e-06
4.93164e-06
4.82864e-06
4.72509e-06
4.62113e-06
4.51683e-06
4.41218e-06
4.30724e-06
4.20211e-06
4.09682e-06
3.99143e-06
3.88605e-06
3.78074e-06
3.67556e-06
3.57052e-06
3.46573e-06
3.36121e-06
3.25701e-06
3.1532e-06
3.04986e-06
2.94706e-06
2.84486e-06
2.7433e-06
2.64246e-06
2.54243e-06
2.44329e-06
2.34509e-06
2.24791e-06
2.15181e-06
2.05685e-06
1.96311e-06
1.87063e-06
1.77949e-06
1.68978e-06
1.60156e-06
1.51493e-06
1.42997e-06
6.66748e-06
6.58683e-06
6.50422e-06
6.41989e-06
6.33398e-06
6.24654e-06
6.15755e-06
6.06706e-06
5.97514e-06
5.88197e-06
5.78764e-06
5.69219e-06
5.59568e-06
5.49806e-06
5.39941e-06
5.29984e-06
5.1995e-06
5.09846e-06
4.99678e-06
4.89451e-06
4.79165e-06
4.68831e-06
4.58457e-06
4.48048e-06
4.37612e-06
4.27151e-06
4.16673e-06
4.06181e-06
3.9568e-06
3.85176e-06
3.74677e-06
3.64193e-06
3.53727e-06
3.43287e-06
3.32878e-06
3.22507e-06
3.12178e-06
3.01901e-06
2.91678e-06
2.8152e-06
2.71431e-06
2.61416e-06
2.51482e-06
2.41636e-06
2.31884e-06
2.22233e-06
2.1269e-06
2.03262e-06
1.93955e-06
1.84776e-06
1.75733e-06
1.66832e-06
1.58085e-06
1.49497e-06
1.41077e-06
6.62808e-06
6.54721e-06
6.46457e-06
6.38011e-06
6.29392e-06
6.2061e-06
6.11686e-06
6.02628e-06
5.93435e-06
5.84122e-06
5.74693e-06
5.6515e-06
5.55493e-06
5.4573e-06
5.35868e-06
5.25925e-06
5.15907e-06
5.05816e-06
4.9566e-06
4.85444e-06
4.75179e-06
4.64871e-06
4.54527e-06
4.44146e-06
4.33738e-06
4.23306e-06
4.12859e-06
4.024e-06
3.9194e-06
3.81483e-06
3.71038e-06
3.60609e-06
3.50199e-06
3.39813e-06
3.29462e-06
3.19148e-06
3.08877e-06
2.98656e-06
2.88495e-06
2.78401e-06
2.68377e-06
2.58429e-06
2.48562e-06
2.38783e-06
2.291e-06
2.19522e-06
2.10053e-06
2.00701e-06
1.91472e-06
1.82371e-06
1.73409e-06
1.64591e-06
1.55925e-06
1.47419e-06
1.39081e-06
6.62743e-06
6.54673e-06
6.46407e-06
6.37958e-06
6.29347e-06
6.20584e-06
6.11674e-06
6.02623e-06
5.93438e-06
5.84117e-06
5.7467e-06
5.65115e-06
5.55459e-06
5.45709e-06
5.35862e-06
5.25924e-06
5.15903e-06
5.05814e-06
4.95658e-06
4.85446e-06
4.7518e-06
4.64872e-06
4.54522e-06
4.4414e-06
4.3373e-06
4.233e-06
4.12853e-06
4.02398e-06
3.91938e-06
3.81476e-06
3.71021e-06
3.60583e-06
3.50164e-06
3.39774e-06
3.29416e-06
3.19099e-06
3.0883e-06
2.98615e-06
2.88459e-06
2.78366e-06
2.68344e-06
2.58399e-06
2.48536e-06
2.3876e-06
2.29081e-06
2.19503e-06
2.10035e-06
2.00683e-06
1.91455e-06
1.82357e-06
1.73397e-06
1.6458e-06
1.55916e-06
1.47412e-06
1.39075e-06
6.66564e-06
6.5853e-06
6.5031e-06
6.41902e-06
6.33328e-06
6.24593e-06
6.15698e-06
6.06658e-06
5.97479e-06
5.8816e-06
5.78716e-06
5.69149e-06
5.59477e-06
5.49709e-06
5.39852e-06
5.29912e-06
5.19893e-06
5.09794e-06
4.99626e-06
4.89393e-06
4.79107e-06
4.68774e-06
4.58396e-06
4.47984e-06
4.37546e-06
4.27082e-06
4.16597e-06
4.06102e-06
3.95598e-06
3.85095e-06
3.74596e-06
3.64106e-06
3.53637e-06
3.43195e-06
3.32787e-06
3.22419e-06
3.12095e-06
3.0182e-06
2.91601e-06
2.81446e-06
2.71361e-06
2.61352e-06
2.51425e-06
2.41584e-06
2.31836e-06
2.22187e-06
2.12645e-06
2.03218e-06
1.93914e-06
1.8474e-06
1.75701e-06
1.66807e-06
1.58064e-06
1.49481e-06
1.41063e-06
1.32819e-06
1.24758e-06
1.16886e-06
1.09211e-06
6.69801e-06
6.61823e-06
6.5365e-06
6.45287e-06
6.36742e-06
6.28037e-06
6.19181e-06
6.10172e-06
6.01023e-06
5.91733e-06
5.82307e-06
5.72757e-06
5.63101e-06
5.53347e-06
5.43501e-06
5.33569e-06
5.23549e-06
5.13452e-06
5.03281e-06
4.93047e-06
4.82751e-06
4.72406e-06
4.62012e-06
4.51583e-06
4.41124e-06
4.30635e-06
4.20123e-06
4.09599e-06
3.9907e-06
3.88536e-06
3.78003e-06
3.67479e-06
3.56973e-06
3.46489e-06
3.36036e-06
3.25622e-06
3.15251e-06
3.04927e-06
2.94654e-06
2.84443e-06
2.74297e-06
2.64223e-06
2.5423e-06
2.44325e-06
2.34511e-06
2.24796e-06
2.15187e-06
2.05691e-06
1.96315e-06
1.87067e-06
1.77954e-06
1.68984e-06
1.60164e-06
1.51502e-06
1.43005e-06
1.34681e-06
1.26538e-06
1.18586e-06
1.10832e-06
1.03283e-06
6.72816e-06
6.64907e-06
6.56808e-06
6.48515e-06
6.40031e-06
6.31364e-06
6.22526e-06
6.13527e-06
6.0439e-06
5.95122e-06
5.85731e-06
5.76223e-06
5.66605e-06
5.5688e-06
5.47047e-06
5.37112e-06
5.27085e-06
5.1698e-06
5.06807e-06
4.96565e-06
4.86266e-06
4.75916e-06
4.65513e-06
4.55063e-06
4.44579e-06
4.34063e-06
4.23528e-06
4.12978e-06
4.02414e-06
3.91845e-06
3.8128e-06
3.70727e-06
3.6019e-06
3.49673e-06
3.39179e-06
3.28717e-06
3.18295e-06
3.07917e-06
2.9759e-06
2.87323e-06
2.77123e-06
2.66995e-06
2.56944e-06
2.46977e-06
2.37101e-06
2.27324e-06
2.17653e-06
2.08092e-06
1.98649e-06
1.89331e-06
1.80146e-06
1.71102e-06
1.62206e-06
1.53468e-06
1.44894e-06
1.36493e-06
1.28273e-06
1.20242e-06
1.12409e-06
1.04781e-06
9.73682e-07
9.01774e-07
8.32159e-07
7.64864e-07
6.99755e-07
6.35361e-07
5.68709e-07
5.04907e-07
4.44205e-07
3.86873e-07
3.33174e-07
2.83362e-07
2.3767e-07
1.96293e-07
1.59375e-07
1.26984e-07
9.9101e-08
7.56012e-08
5.62548e-08
4.07328e-08
2.86238e-08
1.94611e-08
1.27539e-08
8.01922e-09
4.80853e-09
2.72774e-09
1.44791e-09
7.08158e-10
3.12041e-10
1.19722e-10
3.78644e-11
8.97889e-12
1.33135e-12
8.28835e-14
7.85743e-16
6.75686e-06
6.67834e-06
6.59786e-06
6.5154e-06
6.43111e-06
6.34496e-06
6.25702e-06
6.16743e-06
6.07639e-06
5.98403e-06
5.89041e-06
5.79556e-06
5.69947e-06
5.60228e-06
5.50408e-06
5.40486e-06
5.30476e-06
5.20384e-06
5.1021e-06
4.99969e-06
4.89666e-06
4.79307e-06
4.68891e-06
4.58425e-06
4.4792e-06
4.3738e-06
4.26815e-06
4.16233e-06
4.05639e-06
3.95041e-06
3.84444e-06
3.7385e-06
3.6327e-06
3.5271e-06
3.42175e-06
3.3167e-06
3.21204e-06
3.10783e-06
3.00415e-06
2.90104e-06
2.79855e-06
2.69672e-06
2.59564e-06
2.49537e-06
2.396e-06
2.2976e-06
2.20024e-06
2.10398e-06
2.00891e-06
1.91508e-06
1.82256e-06
1.73144e-06
1.64179e-06
1.5537e-06
1.46725e-06
1.38252e-06
1.29959e-06
1.21856e-06
1.13949e-06
1.06247e-06
9.87596e-07
9.14932e-07
8.44562e-07
7.76543e-07
7.10819e-07
6.46726e-07
5.793e-07
5.14708e-07
4.53207e-07
3.95064e-07
3.40549e-07
2.8992e-07
2.43421e-07
2.01257e-07
1.63583e-07
1.30478e-07
1.01936e-07
7.78436e-08
5.79789e-08
4.20178e-08
2.95495e-08
2.01035e-08
1.31818e-08
8.2914e-09
4.97297e-09
2.82134e-09
1.49756e-09
7.32319e-10
3.22582e-10
1.23701e-10
3.90905e-11
9.2574e-12
1.3695e-12
8.48719e-14
7.96853e-16
6.78418e-06
6.70623e-06
6.62628e-06
6.5443e-06
6.46046e-06
6.37474e-06
6.28733e-06
6.19824e-06
6.10767e-06
6.01573e-06
5.92247e-06
5.82785e-06
5.73193e-06
5.6349e-06
5.53678e-06
5.4377e-06
5.3377e-06
5.23686e-06
5.13524e-06
5.03284e-06
4.92977e-06
4.82604e-06
4.72172e-06
4.61693e-06
4.51171e-06
4.40617e-06
4.30038e-06
4.19435e-06
4.08819e-06
3.98191e-06
3.87562e-06
3.76935e-06
3.66314e-06
3.55711e-06
3.45129e-06
3.34573e-06
3.24055e-06
3.13582e-06
3.03159e-06
2.92793e-06
2.82489e-06
2.72252e-06
2.6209e-06
2.52007e-06
2.42014e-06
2.32117e-06
2.2232e-06
2.12631e-06
2.03057e-06
1.93606e-06
1.84287e-06
1.75107e-06
1.66074e-06
1.57196e-06
1.48483e-06
1.39943e-06
1.31583e-06
1.2341e-06
1.15434e-06
1.07662e-06
1.00103e-06
9.2766e-07
8.5658e-07
7.8786e-07
7.21467e-07
6.56963e-07
5.89578e-07
5.24239e-07
4.61971e-07
4.0305e-07
3.4775e-07
2.96336e-07
2.49057e-07
2.06131e-07
1.67722e-07
1.33922e-07
1.04736e-07
8.00616e-08
5.96871e-08
4.32927e-08
3.0469e-08
2.07423e-08
1.36076e-08
8.56248e-09
5.13683e-09
2.91464e-09
1.54706e-09
7.56406e-10
3.33088e-10
1.27665e-10
4.0311e-11
9.5343e-12
1.40734e-12
8.68357e-14
8.07719e-16
6.81023e-06
6.73303e-06
6.65364e-06
6.57214e-06
6.48873e-06
6.40351e-06
6.31649e-06
6.22784e-06
6.13757e-06
6.04586e-06
5.9528e-06
5.85848e-06
5.76296e-06
5.66631e-06
5.56857e-06
5.46971e-06
5.36979e-06
5.26888e-06
5.16709e-06
5.06457e-06
4.9614e-06
4.85764e-06
4.75328e-06
4.64845e-06
4.54314e-06
4.43743e-06
4.33144e-06
4.22519e-06
4.11872e-06
4.01213e-06
3.90551e-06
3.7989e-06
3.69239e-06
3.58601e-06
3.47986e-06
3.37395e-06
3.26837e-06
3.1632e-06
3.05848e-06
2.95431e-06
2.85073e-06
2.74782e-06
2.64564e-06
2.54423e-06
2.44371e-06
2.34411e-06
2.2455e-06
2.14796e-06
2.05159e-06
1.95644e-06
1.86261e-06
1.77016e-06
1.67919e-06
1.58977e-06
1.50197e-06
1.41588e-06
1.33158e-06
1.24917e-06
1.16873e-06
1.09033e-06
1.01407e-06
9.4001e-07
8.68246e-07
7.9884e-07
7.31779e-07
6.66689e-07
5.99547e-07
5.3348e-07
4.70474e-07
4.10802e-07
3.54741e-07
3.02567e-07
2.54536e-07
2.10874e-07
1.71753e-07
1.3728e-07
1.0747e-07
8.22315e-08
6.13607e-08
4.45439e-08
3.13728e-08
2.13709e-08
1.4027e-08
8.82974e-09
5.29848e-09
3.00672e-09
1.59592e-09
7.8018e-10
3.43455e-10
1.31574e-10
4.15138e-11
9.80679e-12
1.44449e-12
8.87526e-14
8.18173e-16
6.83464e-06
6.7579e-06
6.67909e-06
6.59822e-06
6.51545e-06
6.43076e-06
6.34422e-06
6.25603e-06
6.16627e-06
6.07504e-06
5.9824e-06
5.88833e-06
5.79288e-06
5.69625e-06
5.59852e-06
5.49974e-06
5.39989e-06
5.29913e-06
5.19752e-06
5.09505e-06
4.9918e-06
4.88786e-06
4.78334e-06
4.6783e-06
4.57278e-06
4.46687e-06
4.36064e-06
4.25411e-06
4.14741e-06
4.04062e-06
3.93379e-06
3.82698e-06
3.72022e-06
3.61356e-06
3.50706e-06
3.40083e-06
3.2949e-06
3.18933e-06
3.08418e-06
2.97954e-06
2.87549e-06
2.77208e-06
2.66936e-06
2.56742e-06
2.46631e-06
2.36614e-06
2.26696e-06
2.16884e-06
2.07188e-06
1.97613e-06
1.88169e-06
1.78863e-06
1.69704e-06
1.60698e-06
1.51854e-06
1.43181e-06
1.34687e-06
1.26381e-06
1.18269e-06
1.10362e-06
1.02669e-06
9.51966e-07
8.79538e-07
8.09473e-07
7.41774e-07
6.76137e-07
6.09239e-07
5.42479e-07
4.78762e-07
4.18367e-07
3.61575e-07
3.08666e-07
2.59905e-07
2.15527e-07
1.75715e-07
1.40585e-07
1.10164e-07
8.43719e-08
6.30139e-08
4.57812e-08
3.22673e-08
2.19937e-08
1.44429e-08
9.09488e-09
5.45892e-09
3.09813e-09
1.64443e-09
8.03787e-10
3.53748e-10
1.35454e-10
4.27069e-11
1.00768e-11
1.48124e-12
9.06439e-14
8.28447e-16
6.85708e-06
6.78077e-06
6.70242e-06
6.6221e-06
6.53987e-06
6.4558e-06
6.36997e-06
6.28244e-06
6.19329e-06
6.10247e-06
6.01017e-06
5.9164e-06
5.82133e-06
5.72505e-06
5.62753e-06
5.52882e-06
5.42902e-06
5.32821e-06
5.22655e-06
5.12405e-06
5.02083e-06
4.91689e-06
4.81229e-06
4.70711e-06
4.60148e-06
4.49541e-06
4.38896e-06
4.28223e-06
4.17526e-06
4.06817e-06
3.96097e-06
3.85378e-06
3.74667e-06
3.63964e-06
3.53277e-06
3.42615e-06
3.31985e-06
3.21393e-06
3.10841e-06
3.00335e-06
2.89883e-06
2.79496e-06
2.6918e-06
2.58939e-06
2.4878e-06
2.38709e-06
2.28738e-06
2.18873e-06
2.09123e-06
1.99494e-06
1.89995e-06
1.80632e-06
1.71413e-06
1.62348e-06
1.53443e-06
1.44709e-06
1.36153e-06
1.27784e-06
1.1961e-06
1.11639e-06
1.03881e-06
9.63452e-07
8.9039e-07
8.19703e-07
7.51401e-07
6.85238e-07
6.18574e-07
5.51146e-07
4.86746e-07
4.25657e-07
3.68166e-07
3.14557e-07
2.65099e-07
2.20034e-07
1.79557e-07
1.43795e-07
1.12785e-07
8.64579e-08
6.46268e-08
4.69899e-08
3.31423e-08
2.26035e-08
1.48505e-08
9.35494e-09
5.61637e-09
3.18788e-09
1.69207e-09
8.26968e-10
3.63854e-10
1.39262e-10
4.38771e-11
1.03414e-11
1.51718e-12
9.24856e-14
8.3836e-16
6.87871e-06
6.80303e-06
6.72529e-06
6.64555e-06
6.56389e-06
6.48038e-06
6.39507e-06
6.30801e-06
6.21915e-06
6.12858e-06
6.03648e-06
5.94295e-06
5.84802e-06
5.75171e-06
5.65412e-06
5.55542e-06
5.45572e-06
5.35508e-06
5.25354e-06
5.15107e-06
5.04776e-06
4.94374e-06
4.83904e-06
4.73379e-06
4.62805e-06
4.52186e-06
4.41531e-06
4.30849e-06
4.2014e-06
4.09416e-06
3.98683e-06
3.87943e-06
3.77202e-06
3.66471e-06
3.55754e-06
3.45061e-06
3.34399e-06
3.23769e-06
3.13178e-06
3.02633e-06
2.9214e-06
2.8171e-06
2.71348e-06
2.6106e-06
2.50856e-06
2.40744e-06
2.30728e-06
2.20817e-06
2.11017e-06
2.01336e-06
1.91783e-06
1.82365e-06
1.73092e-06
1.6397e-06
1.55008e-06
1.46214e-06
1.37595e-06
1.29162e-06
1.20923e-06
1.12888e-06
1.05067e-06
9.74667e-07
9.00974e-07
8.29665e-07
7.60762e-07
6.94082e-07
6.27632e-07
5.59564e-07
4.9451e-07
4.32752e-07
3.74581e-07
3.20288e-07
2.70151e-07
2.24421e-07
1.833e-07
1.46924e-07
1.15341e-07
8.84937e-08
6.62031e-08
4.81724e-08
3.39993e-08
2.32013e-08
1.52503e-08
9.6102e-09
5.77098e-09
3.27603e-09
1.73886e-09
8.4974e-10
3.73779e-10
1.43001e-10
4.50255e-11
1.06008e-11
1.55237e-12
9.42843e-14
8.48011e-16
6.89984e-06
6.82475e-06
6.74743e-06
6.6681e-06
6.58686e-06
6.50379e-06
6.41892e-06
6.33215e-06
6.24354e-06
6.15316e-06
6.06116e-06
5.96773e-06
5.87296e-06
5.77682e-06
5.6794e-06
5.58087e-06
5.48133e-06
5.38082e-06
5.27932e-06
5.17687e-06
5.07356e-06
4.96947e-06
4.86474e-06
4.75943e-06
4.65356e-06
4.54726e-06
4.4406e-06
4.3336e-06
4.22637e-06
4.11892e-06
4.01135e-06
3.9037e-06
3.79602e-06
3.68838e-06
3.58089e-06
3.47363e-06
3.36665e-06
3.25999e-06
3.15374e-06
3.04793e-06
2.94265e-06
2.83798e-06
2.73397e-06
2.63069e-06
2.52824e-06
2.42668e-06
2.32607e-06
2.22647e-06
2.12797e-06
2.03066e-06
1.93461e-06
1.8399e-06
1.74661e-06
1.65481e-06
1.5646e-06
1.47607e-06
1.38931e-06
1.30442e-06
1.22147e-06
1.14056e-06
1.06177e-06
9.85187e-07
9.10911e-07
8.39024e-07
7.6956e-07
7.02399e-07
6.36172e-07
5.67504e-07
5.01837e-07
4.39453e-07
3.80649e-07
3.25721e-07
2.74952e-07
2.28595e-07
1.86865e-07
1.49909e-07
1.17785e-07
9.04437e-08
6.77148e-08
4.9308e-08
3.48232e-08
2.37766e-08
1.56355e-08
9.85628e-09
5.92012e-09
3.3611e-09
1.78403e-09
8.71719e-10
3.83357e-10
1.46608e-10
4.61325e-11
1.08506e-11
1.58617e-12
9.60038e-14
8.57116e-16
6.91864e-06
6.84443e-06
6.76789e-06
6.68906e-06
6.60808e-06
6.52519e-06
6.44049e-06
6.35403e-06
6.26573e-06
6.17563e-06
6.08387e-06
5.99063e-06
5.89594e-06
5.79997e-06
5.70282e-06
5.60452e-06
5.50505e-06
5.40446e-06
5.30285e-06
5.20039e-06
5.09716e-06
4.99322e-06
4.88859e-06
4.78335e-06
4.67753e-06
4.57118e-06
4.46436e-06
4.35717e-06
4.24972e-06
4.14204e-06
4.0342e-06
3.92631e-06
3.81843e-06
3.71058e-06
3.60287e-06
3.49536e-06
3.38808e-06
3.28113e-06
3.17454e-06
3.06837e-06
2.96272e-06
2.85767e-06
2.7533e-06
2.64964e-06
2.54677e-06
2.44475e-06
2.34367e-06
2.24363e-06
2.1447e-06
2.04693e-06
1.9504e-06
1.8552e-06
1.7614e-06
1.66912e-06
1.57841e-06
1.48938e-06
1.4021e-06
1.31666e-06
1.23315e-06
1.15166e-06
1.07231e-06
9.95174e-07
9.20339e-07
8.47899e-07
7.77909e-07
7.10297e-07
6.44278e-07
5.75037e-07
5.08788e-07
4.45816e-07
3.86418e-07
3.30893e-07
2.79524e-07
2.32577e-07
1.90272e-07
1.52766e-07
1.20125e-07
9.23126e-08
6.91655e-08
5.0399e-08
3.56154e-08
2.43303e-08
1.60065e-08
1.00934e-08
6.06389e-09
3.44312e-09
1.82759e-09
8.92915e-10
3.92593e-10
1.50085e-10
4.71989e-11
1.1091e-11
1.61865e-12
9.76506e-14
8.65774e-16
6.93562e-06
6.86182e-06
6.78584e-06
6.70772e-06
6.62736e-06
6.54485e-06
6.4604e-06
6.37401e-06
6.28588e-06
6.19608e-06
6.10461e-06
6.01166e-06
5.9173e-06
5.82154e-06
5.72444e-06
5.62616e-06
5.52671e-06
5.42622e-06
5.32471e-06
5.22231e-06
5.11903e-06
5.01502e-06
4.91036e-06
4.8051e-06
4.69922e-06
4.59281e-06
4.486e-06
4.37885e-06
4.27137e-06
4.16365e-06
4.05577e-06
3.94778e-06
3.83973e-06
3.73168e-06
3.62371e-06
3.51589e-06
3.40829e-06
3.30097e-06
3.19405e-06
3.08756e-06
2.98157e-06
2.87615e-06
2.77136e-06
2.66727e-06
2.56397e-06
2.46153e-06
2.36002e-06
2.25951e-06
2.16007e-06
2.06181e-06
1.9648e-06
1.86914e-06
1.77489e-06
1.68214e-06
1.59097e-06
1.50146e-06
1.4137e-06
1.32778e-06
1.24381e-06
1.16185e-06
1.08201e-06
1.00439e-06
9.29078e-07
8.56149e-07
7.8567e-07
7.17614e-07
6.51506e-07
5.82072e-07
5.15293e-07
4.51774e-07
3.91822e-07
3.35734e-07
2.83807e-07
2.3631e-07
1.93469e-07
1.5545e-07
1.22329e-07
9.40754e-08
7.05356e-08
5.14303e-08
3.63652e-08
2.48548e-08
1.63582e-08
1.03184e-08
6.20037e-09
3.52101e-09
1.86896e-09
9.13045e-10
4.01362e-10
1.53384e-10
4.82104e-11
1.13187e-11
1.64936e-12
9.91998e-14
8.73806e-16
6.95178e-06
6.8783e-06
6.80264e-06
6.72484e-06
6.64486e-06
6.56288e-06
6.47887e-06
6.39288e-06
6.30501e-06
6.21546e-06
6.1242e-06
6.03129e-06
5.93683e-06
5.84104e-06
5.74399e-06
5.64578e-06
5.54646e-06
5.44611e-06
5.34477e-06
5.24244e-06
5.13925e-06
5.03522e-06
4.93049e-06
4.82508e-06
4.71912e-06
4.61268e-06
4.50582e-06
4.39854e-06
4.29095e-06
4.18307e-06
4.07502e-06
3.96682e-06
3.85858e-06
3.75033e-06
3.64218e-06
3.53414e-06
3.42629e-06
3.31874e-06
3.21152e-06
3.10471e-06
2.99841e-06
2.89268e-06
2.78758e-06
2.68319e-06
2.57959e-06
2.47684e-06
2.37501e-06
2.27418e-06
2.17443e-06
2.07586e-06
1.97852e-06
1.8825e-06
1.78785e-06
1.69467e-06
1.60305e-06
1.51308e-06
1.42484e-06
1.33845e-06
1.25398e-06
1.17152e-06
1.09119e-06
1.01308e-06
9.37268e-07
8.63857e-07
7.92902e-07
7.24391e-07
6.57887e-07
5.88619e-07
5.21343e-07
4.57322e-07
3.96858e-07
3.40256e-07
2.87811e-07
2.39802e-07
1.96462e-07
1.57964e-07
1.24395e-07
9.57296e-08
7.1823e-08
5.24009e-08
3.70716e-08
2.53495e-08
1.66902e-08
1.05309e-08
6.32933e-09
3.59464e-09
1.90806e-09
9.32077e-10
4.09652e-10
1.56503e-10
4.91657e-11
1.15336e-11
1.67828e-12
1.00654e-13
8.81266e-16
6.96615e-06
6.89309e-06
6.81781e-06
6.74022e-06
6.66053e-06
6.57881e-06
6.495e-06
6.40925e-06
6.32168e-06
6.23239e-06
6.14148e-06
6.04894e-06
5.95493e-06
5.85945e-06
5.76266e-06
5.66456e-06
5.56521e-06
5.46479e-06
5.36337e-06
5.26103e-06
5.15782e-06
5.05381e-06
4.9491e-06
4.84376e-06
4.73783e-06
4.63132e-06
4.52434e-06
4.41692e-06
4.30919e-06
4.20121e-06
4.093e-06
3.98468e-06
3.87625e-06
3.76779e-06
3.65937e-06
3.55109e-06
3.44302e-06
3.33524e-06
3.22782e-06
3.1208e-06
3.01426e-06
2.90824e-06
2.80283e-06
2.6981e-06
2.59416e-06
2.49107e-06
2.38888e-06
2.28771e-06
2.18762e-06
2.08868e-06
1.99097e-06
1.89455e-06
1.79952e-06
1.70596e-06
1.61397e-06
1.52362e-06
1.435e-06
1.3482e-06
1.26331e-06
1.18046e-06
1.0997e-06
1.02115e-06
9.44903e-07
8.71048e-07
7.99664e-07
7.30737e-07
6.63872e-07
5.94754e-07
5.27025e-07
4.62537e-07
4.01597e-07
3.44513e-07
2.91588e-07
2.431e-07
1.99293e-07
1.60345e-07
1.26351e-07
9.72966e-08
7.30429e-08
5.33209e-08
3.77415e-08
2.58188e-08
1.70052e-08
1.07326e-08
6.45175e-09
3.66453e-09
1.9452e-09
9.50146e-10
4.17522e-10
1.59463e-10
5.00723e-11
1.17374e-11
1.7057e-12
1.02031e-13
8.88355e-16
6.97919e-06
6.90656e-06
6.83168e-06
6.75444e-06
6.67491e-06
6.59332e-06
6.5098e-06
6.42441e-06
6.3372e-06
6.2481e-06
6.15723e-06
6.06478e-06
5.97089e-06
5.87561e-06
5.77896e-06
5.68108e-06
5.58203e-06
5.48189e-06
5.38065e-06
5.27843e-06
5.17527e-06
5.07129e-06
4.96656e-06
4.86116e-06
4.75517e-06
4.64865e-06
4.54159e-06
4.43406e-06
4.32612e-06
4.21787e-06
4.10944e-06
4.0009e-06
3.89232e-06
3.7837e-06
3.6751e-06
3.56665e-06
3.45836e-06
3.35031e-06
3.24261e-06
3.13534e-06
3.02855e-06
2.92229e-06
2.81664e-06
2.71165e-06
2.60742e-06
2.50401e-06
2.40151e-06
2.3e-06
2.19955e-06
2.10026e-06
2.00218e-06
1.90542e-06
1.81004e-06
1.71613e-06
1.62377e-06
1.53305e-06
1.44405e-06
1.35689e-06
1.27165e-06
1.18841e-06
1.10728e-06
1.02837e-06
9.5175e-07
8.7752e-07
8.05758e-07
7.36455e-07
6.69264e-07
6.00297e-07
5.32157e-07
4.67248e-07
4.05875e-07
3.48355e-07
2.94993e-07
2.46075e-07
2.01847e-07
1.62495e-07
1.28121e-07
9.87169e-08
7.41501e-08
5.41571e-08
3.83513e-08
2.62465e-08
1.72926e-08
1.09168e-08
6.56364e-09
3.72845e-09
1.97916e-09
9.66673e-10
4.24719e-10
1.62168e-10
5.09003e-11
1.19234e-11
1.73064e-12
1.03276e-13
8.94621e-16
6.99072e-06
6.91842e-06
6.84387e-06
6.7671e-06
6.68806e-06
6.60691e-06
6.52365e-06
6.43844e-06
6.35128e-06
6.26236e-06
6.17173e-06
6.07952e-06
5.98583e-06
5.89073e-06
5.79422e-06
5.69644e-06
5.59744e-06
5.49733e-06
5.39618e-06
5.29406e-06
5.19097e-06
5.08704e-06
4.98228e-06
4.87684e-06
4.77078e-06
4.66412e-06
4.55696e-06
4.44932e-06
4.34131e-06
4.23297e-06
4.12441e-06
4.01566e-06
3.90683e-06
3.79802e-06
3.68928e-06
3.58068e-06
3.47229e-06
3.36416e-06
3.25633e-06
3.14889e-06
3.04189e-06
2.93542e-06
2.82956e-06
2.72436e-06
2.61991e-06
2.51627e-06
2.41354e-06
2.31179e-06
2.21108e-06
2.11148e-06
2.0131e-06
1.916e-06
1.82029e-06
1.72603e-06
1.63331e-06
1.54221e-06
1.45283e-06
1.36527e-06
1.27963e-06
1.19602e-06
1.11451e-06
1.0352e-06
9.58203e-07
8.83597e-07
8.11464e-07
7.41803e-07
6.743e-07
6.05453e-07
5.36926e-07
4.71625e-07
4.09857e-07
3.51938e-07
2.98173e-07
2.48855e-07
2.04234e-07
1.64505e-07
1.29776e-07
1.00045e-07
7.51855e-08
5.49393e-08
3.89218e-08
2.66467e-08
1.75616e-08
1.10892e-08
6.66838e-09
3.78829e-09
2.01096e-09
9.82148e-10
4.31457e-10
1.64702e-10
5.16757e-11
1.20975e-11
1.75401e-12
1.04444e-13
9.00574e-16
7.00158e-06
6.92949e-06
6.85505e-06
6.77826e-06
6.69932e-06
6.61835e-06
6.53541e-06
6.45055e-06
6.3637e-06
6.27504e-06
6.1846e-06
6.09257e-06
5.99903e-06
5.90405e-06
5.80771e-06
5.71008e-06
5.61127e-06
5.51133e-06
5.41026e-06
5.30813e-06
5.2051e-06
5.10124e-06
4.99655e-06
4.89116e-06
4.78507e-06
4.67836e-06
4.57116e-06
4.4635e-06
4.35543e-06
4.24702e-06
4.13835e-06
4.02952e-06
3.92058e-06
3.81158e-06
3.70264e-06
3.59385e-06
3.48526e-06
3.37694e-06
3.2689e-06
3.16122e-06
3.054e-06
2.94732e-06
2.84122e-06
2.7358e-06
2.6311e-06
2.52722e-06
2.42425e-06
2.32222e-06
2.22121e-06
2.1213e-06
2.02259e-06
1.92517e-06
1.82914e-06
1.73457e-06
1.64155e-06
1.55018e-06
1.46051e-06
1.37267e-06
1.28673e-06
1.2028e-06
1.12098e-06
1.04135e-06
9.64032e-07
8.89099e-07
8.16633e-07
7.46656e-07
6.7888e-07
6.10137e-07
5.41268e-07
4.75614e-07
4.13484e-07
3.55199e-07
3.01068e-07
2.51385e-07
2.06408e-07
1.66337e-07
1.31284e-07
1.01256e-07
7.61307e-08
5.56535e-08
3.94428e-08
2.70124e-08
1.78075e-08
1.12468e-08
6.76415e-09
3.843e-09
2.04004e-09
9.96299e-10
4.3762e-10
1.67018e-10
5.23846e-11
1.22566e-11
1.77536e-12
1.05512e-13
9.06034e-16
7.01088e-06
6.93906e-06
6.86475e-06
6.7882e-06
6.70952e-06
6.6288e-06
6.5461e-06
6.46148e-06
6.37486e-06
6.28631e-06
6.19594e-06
6.10397e-06
6.01052e-06
5.91565e-06
5.81943e-06
5.72194e-06
5.62324e-06
5.52339e-06
5.42246e-06
5.32044e-06
5.21748e-06
5.1136e-06
5.00887e-06
4.90336e-06
4.79722e-06
4.69044e-06
4.58312e-06
4.47538e-06
4.3673e-06
4.25894e-06
4.15032e-06
4.04154e-06
3.93262e-06
3.82362e-06
3.71461e-06
3.60569e-06
3.4969e-06
3.38832e-06
3.28004e-06
3.17215e-06
3.06469e-06
2.95778e-06
2.85148e-06
2.74585e-06
2.64094e-06
2.53685e-06
2.43362e-06
2.33137e-06
2.23013e-06
2.13002e-06
2.03109e-06
1.93345e-06
1.83716e-06
1.74233e-06
1.64903e-06
1.55734e-06
1.46739e-06
1.37924e-06
1.29299e-06
1.20875e-06
1.12662e-06
1.0467e-06
9.69086e-07
8.93867e-07
8.21125e-07
7.50871e-07
6.82848e-07
6.14199e-07
5.45028e-07
4.79064e-07
4.16623e-07
3.58023e-07
3.03576e-07
2.53581e-07
2.08297e-07
1.6793e-07
1.32598e-07
1.02312e-07
7.69556e-08
5.62779e-08
3.98989e-08
2.73328e-08
1.80231e-08
1.13851e-08
6.84824e-09
3.89107e-09
2.06558e-09
1.00873e-09
4.43034e-10
1.69053e-10
5.30068e-11
1.23962e-11
1.79405e-12
1.06442e-13
9.10714e-16
7.01884e-06
6.94739e-06
6.8736e-06
6.7975e-06
6.71899e-06
6.63819e-06
6.55534e-06
6.47058e-06
6.38399e-06
6.29565e-06
6.20563e-06
6.11401e-06
6.02085e-06
5.92612e-06
5.82999e-06
5.73247e-06
5.63372e-06
5.5338e-06
5.43276e-06
5.3307e-06
5.22762e-06
5.1236e-06
5.01879e-06
4.9133e-06
4.8072e-06
4.70055e-06
4.59335e-06
4.48565e-06
4.37752e-06
4.26908e-06
4.16036e-06
4.05147e-06
3.94242e-06
3.83329e-06
3.72415e-06
3.61513e-06
3.50625e-06
3.39759e-06
3.28926e-06
3.18131e-06
3.07379e-06
2.96675e-06
2.86027e-06
2.75441e-06
2.64927e-06
2.54494e-06
2.44152e-06
2.33906e-06
2.23764e-06
2.13732e-06
2.03817e-06
1.94031e-06
1.84381e-06
1.74875e-06
1.65521e-06
1.5633e-06
1.47311e-06
1.38475e-06
1.2983e-06
1.21384e-06
1.13148e-06
1.05133e-06
9.7347e-07
8.97995e-07
8.24998e-07
7.54503e-07
6.86278e-07
6.17714e-07
5.48284e-07
4.82055e-07
4.19343e-07
3.60469e-07
3.0575e-07
2.55485e-07
2.09939e-07
1.69317e-07
1.33742e-07
1.03232e-07
7.76745e-08
5.68219e-08
4.02962e-08
2.7612e-08
1.8211e-08
1.15057e-08
6.92153e-09
3.93296e-09
2.08785e-09
1.01957e-09
4.47752e-10
1.70826e-10
5.3549e-11
1.25178e-11
1.81032e-12
1.0725e-13
9.14779e-16
7.02641e-06
6.95539e-06
6.88181e-06
6.80575e-06
6.72729e-06
6.64658e-06
6.56385e-06
6.47922e-06
6.39264e-06
6.30432e-06
6.21434e-06
6.12275e-06
6.02951e-06
5.9348e-06
5.83869e-06
5.74116e-06
5.64238e-06
5.54236e-06
5.44124e-06
5.33908e-06
5.23595e-06
5.13196e-06
5.02719e-06
4.92168e-06
4.81553e-06
4.7088e-06
4.60156e-06
4.4938e-06
4.38566e-06
4.27719e-06
4.16843e-06
4.05947e-06
3.95033e-06
3.84108e-06
3.73181e-06
3.62263e-06
3.51363e-06
3.40488e-06
3.29645e-06
3.18839e-06
3.08077e-06
2.97364e-06
2.86709e-06
2.76119e-06
2.65599e-06
2.5516e-06
2.44808e-06
2.34549e-06
2.24391e-06
2.14344e-06
2.04417e-06
1.94615e-06
1.84947e-06
1.75423e-06
1.6605e-06
1.5684e-06
1.47803e-06
1.38945e-06
1.30277e-06
1.2181e-06
1.13553e-06
1.05517e-06
9.77096e-07
9.0142e-07
8.28224e-07
7.57532e-07
6.89137e-07
6.20649e-07
5.5101e-07
4.84567e-07
4.21633e-07
3.62533e-07
3.07585e-07
2.57092e-07
2.11323e-07
1.70485e-07
1.34707e-07
1.04009e-07
7.82817e-08
5.72816e-08
4.06322e-08
2.78481e-08
1.837e-08
1.16077e-08
6.98358e-09
3.96843e-09
2.10671e-09
1.02875e-09
4.51748e-10
1.72327e-10
5.40079e-11
1.26206e-11
1.82408e-12
1.07934e-13
9.18219e-16
7.03154e-06
6.96058e-06
6.88724e-06
6.81155e-06
6.73346e-06
6.65304e-06
6.57052e-06
6.48606e-06
6.39974e-06
6.31153e-06
6.2216e-06
6.12995e-06
6.03677e-06
5.94213e-06
5.84602e-06
5.74856e-06
5.64975e-06
5.54967e-06
5.44848e-06
5.34624e-06
5.24307e-06
5.13905e-06
5.03426e-06
4.92875e-06
4.82258e-06
4.71577e-06
4.60843e-06
4.50064e-06
4.39241e-06
4.28385e-06
4.175e-06
4.06596e-06
3.9568e-06
3.84754e-06
3.73825e-06
3.62903e-06
3.51997e-06
3.41115e-06
3.3026e-06
3.19441e-06
3.08662e-06
2.97933e-06
2.87263e-06
2.76659e-06
2.66128e-06
2.55676e-06
2.45313e-06
2.35043e-06
2.24874e-06
2.14815e-06
2.04873e-06
1.95058e-06
1.85376e-06
1.75839e-06
1.66455e-06
1.57232e-06
1.48181e-06
1.39311e-06
1.30631e-06
1.2215e-06
1.13878e-06
1.05825e-06
9.80003e-07
9.04155e-07
8.3079e-07
7.59942e-07
6.91413e-07
6.22985e-07
5.53171e-07
4.86554e-07
4.23446e-07
3.64167e-07
3.0904e-07
2.58367e-07
2.12419e-07
1.7141e-07
1.35471e-07
1.04623e-07
7.87624e-08
5.76459e-08
4.08987e-08
2.80356e-08
1.84963e-08
1.16888e-08
7.03291e-09
3.99664e-09
2.12171e-09
1.03605e-09
4.54925e-10
1.7352e-10
5.43726e-11
1.27023e-11
1.83498e-12
1.08473e-13
9.20884e-16
7.03567e-06
6.96493e-06
6.89164e-06
6.81589e-06
6.73793e-06
6.65786e-06
6.57563e-06
6.49142e-06
6.40521e-06
6.31705e-06
6.22704e-06
6.13531e-06
6.04208e-06
5.94743e-06
5.85141e-06
5.75397e-06
5.65519e-06
5.55522e-06
5.45411e-06
5.352e-06
5.24895e-06
5.14495e-06
5.04006e-06
4.93436e-06
4.82801e-06
4.72109e-06
4.61368e-06
4.50582e-06
4.39754e-06
4.28894e-06
4.18003e-06
4.07093e-06
3.96166e-06
3.85235e-06
3.74307e-06
3.63389e-06
3.52483e-06
3.41599e-06
3.30741e-06
3.1992e-06
3.09138e-06
2.98405e-06
2.87726e-06
2.77112e-06
2.66569e-06
2.56106e-06
2.4573e-06
2.35447e-06
2.25264e-06
2.15192e-06
2.05238e-06
1.95411e-06
1.85718e-06
1.7617e-06
1.66775e-06
1.57541e-06
1.48478e-06
1.39594e-06
1.30901e-06
1.22408e-06
1.14123e-06
1.06059e-06
9.82247e-07
9.06289e-07
8.32805e-07
7.61839e-07
6.93201e-07
6.24807e-07
5.5486e-07
4.88107e-07
4.24857e-07
3.65434e-07
3.10164e-07
2.59352e-07
2.13266e-07
1.72126e-07
1.36062e-07
1.05099e-07
7.9135e-08
5.79281e-08
4.11051e-08
2.81807e-08
1.8594e-08
1.17515e-08
7.07106e-09
4.01845e-09
2.1333e-09
1.04169e-09
4.57382e-10
1.74443e-10
5.46547e-11
1.27655e-11
1.84344e-12
1.08893e-13
9.23e-16
7.03799e-06
6.96728e-06
6.8942e-06
6.81866e-06
6.74088e-06
6.66079e-06
6.57849e-06
6.49409e-06
6.4078e-06
6.31964e-06
6.22979e-06
6.13832e-06
6.04521e-06
5.95064e-06
5.85468e-06
5.75727e-06
5.65852e-06
5.5586e-06
5.4576e-06
5.3555e-06
5.25244e-06
5.14844e-06
5.04364e-06
4.93811e-06
4.83185e-06
4.72498e-06
4.61752e-06
4.50954e-06
4.40119e-06
4.29251e-06
4.18354e-06
4.07438e-06
3.96506e-06
3.8557e-06
3.74636e-06
3.63708e-06
3.52796e-06
3.41905e-06
3.3104e-06
3.20207e-06
3.09417e-06
2.98679e-06
2.87999e-06
2.77384e-06
2.66841e-06
2.56374e-06
2.45994e-06
2.35705e-06
2.25516e-06
2.15438e-06
2.05478e-06
1.95644e-06
1.85946e-06
1.76392e-06
1.66989e-06
1.57745e-06
1.48674e-06
1.39782e-06
1.3108e-06
1.22578e-06
1.14286e-06
1.06212e-06
9.83685e-07
9.07644e-07
8.34085e-07
7.6304e-07
6.94339e-07
6.25979e-07
5.55949e-07
4.89106e-07
4.25767e-07
3.66255e-07
3.10894e-07
2.59991e-07
2.13819e-07
1.72592e-07
1.36447e-07
1.05409e-07
7.9378e-08
5.81125e-08
4.124e-08
2.82756e-08
1.8658e-08
1.17926e-08
7.09608e-09
4.03276e-09
2.14091e-09
1.0454e-09
4.58994e-10
1.75049e-10
5.48398e-11
1.2807e-11
1.84897e-12
1.09166e-13
9.24347e-16
7.03911e-06
6.96835e-06
6.89521e-06
6.81958e-06
6.74152e-06
6.66115e-06
6.57874e-06
6.4944e-06
6.40823e-06
6.3203e-06
6.23065e-06
6.13935e-06
6.04634e-06
5.95182e-06
5.85587e-06
5.75856e-06
5.65993e-06
5.56002e-06
5.45899e-06
5.35697e-06
5.25401e-06
5.15017e-06
5.04544e-06
4.93989e-06
4.83365e-06
4.72675e-06
4.61927e-06
4.51134e-06
4.40301e-06
4.2943e-06
4.18529e-06
4.0761e-06
3.96674e-06
3.85734e-06
3.74792e-06
3.63859e-06
3.52942e-06
3.42048e-06
3.31184e-06
3.20352e-06
3.09562e-06
2.98824e-06
2.88142e-06
2.77522e-06
2.66974e-06
2.56506e-06
2.46125e-06
2.35837e-06
2.2565e-06
2.15571e-06
2.05611e-06
1.95776e-06
1.86073e-06
1.76513e-06
1.67107e-06
1.57862e-06
1.48787e-06
1.39891e-06
1.31184e-06
1.22678e-06
1.14381e-06
1.06305e-06
9.84574e-07
9.08484e-07
8.34869e-07
7.63778e-07