/*--------------------------------*- C++ -*----------------------------------*\
  =========                 |
  \\      /  F ield         | OpenFOAM: The Open Source CFD Toolbox
   \\    /   O peration     | Website:  https://openfoam.org
    \\  /    A nd           | Version:  7
     \\/     M anipulation  |
\*---------------------------------------------------------------------------*/
FoamFile
{
    version     2.0;
    format      ascii;
    class       volScalarField;
    location    "256000";
    object      nu;
}
// * * * * * * * * * * * * * * * * * * * * * * * * * * * * * * * * * * * * * //

dimensions      [0 2 -1 0 0 0 0];

internalField   nonuniform List<scalar> 
4838
(
6.70121e-05
7.07599e-05
7.36946e-05
7.78428e-05
8.29974e-05
8.91543e-05
9.6437e-05
0.000105062
0.000115334
0.000127652
0.000142503
0.00016043
0.000181979
0.000207588
0.000237455
0.000271399
0.000308763
0.000348438
0.000388694
0.000427562
0.000463202
0.000494119
0.000518625
0.000535488
0.000544063
0.000544063
0.000535488
0.000518625
0.000494119
0.000463202
0.000427562
0.000388694
0.000348437
0.000308762
0.000271398
0.000237455
0.000207587
0.000181979
0.00016043
0.000142502
0.000127652
0.000115334
0.000105062
9.64369e-05
8.91543e-05
8.29973e-05
7.78428e-05
7.36945e-05
7.07598e-05
6.7012e-05
5.16372e-05
5.89577e-05
6.15166e-05
6.46137e-05
6.83583e-05
7.27756e-05
7.7901e-05
8.3801e-05
9.05766e-05
9.8363e-05
0.000107326
0.000117654
0.000129535
0.000143127
0.000158511
0.000175641
0.000194297
0.000214052
0.000234264
0.000254109
0.000272665
0.000289011
0.000302226
0.000311509
0.000316294
0.000316294
0.000311509
0.000302226
0.000289011
0.000272664
0.000254108
0.000234264
0.000214051
0.000194297
0.000175641
0.000158511
0.000143127
0.000129535
0.000117654
0.000107326
9.83629e-05
9.05765e-05
8.38009e-05
7.79009e-05
7.27755e-05
6.83583e-05
6.46136e-05
6.15165e-05
5.89576e-05
5.16372e-05
4.50643e-05
5.19609e-05
5.46252e-05
5.72962e-05
6.0196e-05
6.34448e-05
6.7106e-05
7.12221e-05
7.58326e-05
8.09821e-05
8.67216e-05
9.31063e-05
0.000100189
0.000108007
0.000116568
0.000125831
0.000135683
0.000145926
0.000156277
0.000166366
0.000175763
0.000184014
0.000190676
0.000195361
0.00019778
0.00019778
0.000195361
0.000190676
0.000184014
0.000175763
0.000166366
0.000156277
0.000145926
0.000135683
0.000125831
0.000116568
0.000108007
0.000100188
9.31062e-05
8.67216e-05
8.0982e-05
7.58326e-05
7.1222e-05
6.71059e-05
6.34447e-05
6.0196e-05
5.72962e-05
5.46251e-05
5.19608e-05
4.50642e-05
4.10091e-05
4.65367e-05
4.89385e-05
5.13302e-05
5.37819e-05
5.63773e-05
5.91807e-05
6.22342e-05
6.55654e-05
6.91933e-05
7.31322e-05
7.73926e-05
8.19794e-05
8.68888e-05
9.21016e-05
9.75769e-05
0.000103244
0.000108997
0.000114692
0.000120151
0.000125168
0.000129527
0.000133018
0.00013546
0.000136717
0.000136717
0.00013546
0.000133018
0.000129527
0.000125168
0.000120151
0.000114692
0.000108997
0.000103244
9.75769e-05
9.21016e-05
8.68887e-05
8.19794e-05
7.73925e-05
7.31322e-05
6.91933e-05
6.55654e-05
6.22342e-05
5.91806e-05
5.63772e-05
5.37818e-05
5.13302e-05
4.89385e-05
4.65367e-05
4.10091e-05
3.78795e-05
4.23319e-05
4.43245e-05
4.63747e-05
4.84716e-05
5.06373e-05
5.29046e-05
5.53025e-05
5.7851e-05
6.05617e-05
6.34389e-05
6.64805e-05
6.96782e-05
7.30168e-05
7.64722e-05
8.00095e-05
8.35801e-05
8.71201e-05
9.05499e-05
9.37755e-05
9.66927e-05
9.91939e-05
0.000101176
0.000102553
0.000103258
0.000103258
0.000102553
0.000101176
9.91938e-05
9.66927e-05
9.37754e-05
9.05499e-05
8.71201e-05
8.35801e-05
8.00095e-05
7.64722e-05
7.30167e-05
6.96781e-05
6.64804e-05
6.34389e-05
6.05617e-05
5.78509e-05
5.53024e-05
5.29046e-05
5.06372e-05
4.84715e-05
4.63747e-05
4.43244e-05
4.23319e-05
3.78795e-05
3.52891e-05
3.89604e-05
4.05998e-05
4.23156e-05
4.40884e-05
4.59134e-05
4.77975e-05
4.97523e-05
5.17883e-05
5.39113e-05
5.61221e-05
5.84159e-05
6.07826e-05
6.32064e-05
6.56661e-05
6.81339e-05
7.05754e-05
7.29488e-05
7.5206e-05
7.72929e-05
7.9152e-05
8.0726e-05
8.19611e-05
8.28121e-05
8.32463e-05
8.32463e-05
8.28121e-05
8.19611e-05
8.07259e-05
7.9152e-05
7.72928e-05
7.5206e-05
7.29488e-05
7.05753e-05
6.81339e-05
6.56661e-05
6.32064e-05
6.07825e-05
5.84159e-05
5.61221e-05
5.39113e-05
5.17883e-05
4.97523e-05
4.77974e-05
4.59133e-05
4.40884e-05
4.23156e-05
4.05998e-05
3.89603e-05
3.52891e-05
3.30868e-05
3.61696e-05
3.754e-05
3.89774e-05
4.04706e-05
4.20107e-05
4.3594e-05
4.52211e-05
4.68939e-05
4.86133e-05
5.03775e-05
5.21811e-05
5.40147e-05
5.58652e-05
5.77154e-05
5.9544e-05
6.13262e-05
6.30333e-05
6.46338e-05
6.60941e-05
6.73795e-05
6.84566e-05
6.92949e-05
6.9869e-05
7.01608e-05
7.01608e-05
6.9869e-05
6.92949e-05
6.84566e-05
6.73795e-05
6.60941e-05
6.46338e-05
6.30333e-05
6.13261e-05
5.9544e-05
5.77153e-05
5.58652e-05
5.40147e-05
5.2181e-05
5.03775e-05
4.86133e-05
4.68938e-05
4.52211e-05
4.3594e-05
4.20107e-05
4.04706e-05
3.89774e-05
3.754e-05
3.61696e-05
3.30868e-05
3.11828e-05
3.38066e-05
3.49726e-05
3.6191e-05
3.74565e-05
3.87622e-05
4.01025e-05
4.14735e-05
4.28725e-05
4.4297e-05
4.57432e-05
4.72053e-05
4.86751e-05
5.01417e-05
5.15917e-05
5.30089e-05
5.4375e-05
5.56696e-05
5.68709e-05
5.79564e-05
5.89037e-05
5.96914e-05
6.03007e-05
6.07161e-05
6.09267e-05
6.09267e-05
6.07161e-05
6.03007e-05
5.96914e-05
5.89037e-05
5.79564e-05
5.68709e-05
5.56696e-05
5.4375e-05
5.30089e-05
5.15917e-05
5.01417e-05
4.8675e-05
4.72052e-05
4.57431e-05
4.4297e-05
4.28725e-05
4.14735e-05
4.01025e-05
3.87622e-05
3.74564e-05
3.6191e-05
3.49726e-05
3.38065e-05
3.11827e-05
2.95151e-05
3.17724e-05
3.27794e-05
3.38263e-05
3.49102e-05
3.60266e-05
3.71705e-05
3.83372e-05
3.95222e-05
4.07214e-05
4.19299e-05
4.31418e-05
4.43499e-05
4.5545e-05
4.67165e-05
4.78519e-05
4.89373e-05
4.99579e-05
5.08978e-05
5.17412e-05
5.24726e-05
5.30776e-05
5.35435e-05
5.38601e-05
5.40203e-05
5.40203e-05
5.38601e-05
5.35435e-05
5.30776e-05
5.24726e-05
5.17412e-05
5.08978e-05
4.99578e-05
4.89373e-05
4.78519e-05
4.67165e-05
4.5545e-05
4.43498e-05
4.31418e-05
4.19298e-05
4.07214e-05
3.95222e-05
3.83371e-05
3.71705e-05
3.60265e-05
3.49101e-05
3.38263e-05
3.27793e-05
3.17723e-05
2.95151e-05
2.80391e-05
2.99986e-05
3.08787e-05
3.17894e-05
3.27284e-05
3.36927e-05
3.46782e-05
3.56805e-05
3.66951e-05
3.77173e-05
3.87421e-05
3.97637e-05
4.07756e-05
4.17702e-05
4.27386e-05
4.36711e-05
4.4557e-05
4.5385e-05
4.61432e-05
4.68201e-05
4.74044e-05
4.78858e-05
4.82553e-05
4.85058e-05
4.86324e-05
4.86324e-05
4.85058e-05
4.82553e-05
4.78857e-05
4.74044e-05
4.68201e-05
4.61432e-05
4.53849e-05
4.4557e-05
4.36711e-05
4.27386e-05
4.17702e-05
4.07756e-05
3.97637e-05
3.87421e-05
3.77173e-05
3.66951e-05
3.56805e-05
3.46781e-05
3.36926e-05
3.27284e-05
3.17893e-05
3.08787e-05
2.99985e-05
2.8039e-05
2.67211e-05
2.84355e-05
2.92124e-05
3.00129e-05
3.0835e-05
3.16763e-05
3.25336e-05
3.3403e-05
3.42803e-05
3.51612e-05
3.60406e-05
3.69135e-05
3.77738e-05
3.86152e-05
3.94302e-05
4.0211e-05
4.09491e-05
4.16356e-05
4.22616e-05
4.28183e-05
4.3297e-05
4.36903e-05
4.39915e-05
4.41954e-05
4.42982e-05
4.42982e-05
4.41953e-05
4.39915e-05
4.36903e-05
4.3297e-05
4.28182e-05
4.22616e-05
4.16356e-05
4.0949e-05
4.02109e-05
3.94301e-05
3.86151e-05
3.77738e-05
3.69135e-05
3.60406e-05
3.51611e-05
3.42803e-05
3.34029e-05
3.25336e-05
3.16763e-05
3.0835e-05
3.00128e-05
2.92124e-05
2.84355e-05
2.6721e-05
2.55353e-05
2.70458e-05
2.77374e-05
2.84473e-05
2.91738e-05
2.99148e-05
3.06674e-05
3.14284e-05
3.21941e-05
3.29605e-05
3.37232e-05
3.44774e-05
3.5218e-05
3.59393e-05
3.66351e-05
3.7299e-05
3.79242e-05
3.85034e-05
3.90298e-05
3.94963e-05
3.98965e-05
4.02244e-05
4.04751e-05
4.06445e-05
4.07299e-05
4.07299e-05
4.06445e-05
4.04751e-05
4.02244e-05
3.98965e-05
3.94963e-05
3.90298e-05
3.85034e-05
3.79241e-05
3.7299e-05
3.66351e-05
3.59392e-05
3.5218e-05
3.44774e-05
3.37232e-05
3.29605e-05
3.21941e-05
3.14283e-05
3.06673e-05
2.99147e-05
2.91738e-05
2.84473e-05
2.77374e-05
2.70458e-05
2.55353e-05
2.44616e-05
2.58007e-05
2.64209e-05
2.70554e-05
2.77026e-05
2.83606e-05
2.90269e-05
2.96988e-05
3.03729e-05
3.10457e-05
3.17133e-05
3.23715e-05
3.30157e-05
3.3641e-05
3.42423e-05
3.48141e-05
3.53507e-05
3.58465e-05
3.62957e-05
3.66927e-05
3.70326e-05
3.73105e-05
3.75227e-05
3.76659e-05
3.7738e-05
3.7738e-05
3.76659e-05
3.75226e-05
3.73105e-05
3.70326e-05
3.66927e-05
3.62956e-05
3.58465e-05
3.53507e-05
3.4814e-05
3.42422e-05
3.3641e-05
3.30156e-05
3.23715e-05
3.17133e-05
3.10457e-05
3.03729e-05
2.96987e-05
2.90269e-05
2.83606e-05
2.77026e-05
2.70554e-05
2.64209e-05
2.58007e-05
2.44616e-05
2.34837e-05
2.46776e-05
2.52373e-05
2.58083e-05
2.6389e-05
2.69777e-05
2.75721e-05
2.81699e-05
2.8768e-05
2.93635e-05
2.99528e-05
3.05322e-05
3.10977e-05
3.16452e-05
3.21701e-05
3.26679e-05
3.31339e-05
3.35632e-05
3.39513e-05
3.42937e-05
3.45861e-05
3.48249e-05
3.50069e-05
3.51297e-05
3.51915e-05
3.51915e-05
3.51297e-05
3.50069e-05
3.48249e-05
3.45861e-05
3.42937e-05
3.39513e-05
3.35632e-05
3.31339e-05
3.26679e-05
3.21701e-05
3.16452e-05
3.10977e-05
3.05322e-05
2.99528e-05
2.93635e-05
2.8768e-05
2.81698e-05
2.75721e-05
2.69777e-05
2.6389e-05
2.58083e-05
2.52373e-05
2.46775e-05
2.34837e-05
2.25885e-05
2.36584e-05
2.41664e-05
2.46834e-05
2.52078e-05
2.57379e-05
2.62719e-05
2.68074e-05
2.7342e-05
2.78729e-05
2.8397e-05
2.89111e-05
2.94117e-05
2.98951e-05
3.03575e-05
3.0795e-05
3.12036e-05
3.15792e-05
3.19181e-05
3.22164e-05
3.24709e-05
3.26784e-05
3.28364e-05
3.29429e-05
3.29964e-05
3.29964e-05
3.29429e-05
3.28364e-05
3.26784e-05
3.24709e-05
3.22164e-05
3.1918e-05
3.15792e-05
3.12035e-05
3.0795e-05
3.03575e-05
2.98951e-05
2.94117e-05
2.89111e-05
2.8397e-05
2.78729e-05
2.7342e-05
2.68074e-05
2.62718e-05
2.57379e-05
2.52078e-05
2.46834e-05
2.41664e-05
2.36583e-05
2.25885e-05
2.17652e-05
2.27284e-05
2.3192e-05
2.36626e-05
2.41388e-05
2.4619e-05
2.51016e-05
2.55845e-05
2.60654e-05
2.65419e-05
2.70113e-05
2.74707e-05
2.79171e-05
2.83472e-05
2.87578e-05
2.91454e-05
2.95067e-05
2.98383e-05
3.01368e-05
3.03993e-05
3.06229e-05
3.0805e-05
3.09435e-05
3.10368e-05
3.10837e-05
3.10837e-05
3.10368e-05
3.09435e-05
3.0805e-05
3.06229e-05
3.03993e-05
3.01368e-05
2.98382e-05
2.95067e-05
2.91454e-05
2.87577e-05
2.83472e-05
2.7917e-05
2.74707e-05
2.70113e-05
2.65419e-05
2.60654e-05
2.55844e-05
2.51016e-05
2.4619e-05
2.41388e-05
2.36626e-05
2.3192e-05
2.27284e-05
2.17651e-05
2.10047e-05
2.18758e-05
2.23008e-05
2.27313e-05
2.31659e-05
2.36033e-05
2.40418e-05
2.44797e-05
2.49149e-05
2.53452e-05
2.57682e-05
2.61814e-05
2.6582e-05
2.69674e-05
2.73345e-05
2.76805e-05
2.80024e-05
2.82974e-05
2.85626e-05
2.87955e-05
2.89935e-05
2.91547e-05
2.92772e-05
2.93597e-05
2.94012e-05
2.94012e-05
2.93597e-05
2.92772e-05
2.91547e-05
2.89935e-05
2.87955e-05
2.85626e-05
2.82974e-05
2.80024e-05
2.76805e-05
2.73345e-05
2.69674e-05
2.6582e-05
2.61814e-05
2.57682e-05
2.53452e-05
2.49149e-05
2.44797e-05
2.40418e-05
2.36033e-05
2.31659e-05
2.27313e-05
2.23008e-05
2.18758e-05
2.10047e-05
2.02998e-05
2.10906e-05
2.14819e-05
2.18774e-05
2.2276e-05
2.26763e-05
2.30768e-05
2.34759e-05
2.38718e-05
2.42625e-05
2.46459e-05
2.50197e-05
2.53815e-05
2.57289e-05
2.60593e-05
2.63701e-05
2.66589e-05
2.69232e-05
2.71604e-05
2.73685e-05
2.75453e-05
2.7689e-05
2.77982e-05
2.78717e-05
2.79086e-05
2.79086e-05
2.78717e-05
2.77982e-05
2.7689e-05
2.75453e-05
2.73685e-05
2.71604e-05
2.69231e-05
2.66589e-05
2.63701e-05
2.60592e-05
2.57288e-05
2.53815e-05
2.50197e-05
2.46459e-05
2.42625e-05
2.38718e-05
2.34759e-05
2.30768e-05
2.26763e-05
2.2276e-05
2.18774e-05
2.14819e-05
2.10906e-05
2.02997e-05
1.96439e-05
2.03646e-05
2.07262e-05
2.10911e-05
2.14582e-05
2.18261e-05
2.21936e-05
2.25591e-05
2.29211e-05
2.32776e-05
2.36268e-05
2.39668e-05
2.42953e-05
2.46102e-05
2.49092e-05
2.51902e-05
2.54509e-05
2.5689e-05
2.59027e-05
2.60898e-05
2.62487e-05
2.63777e-05
2.64757e-05
2.65416e-05
2.65747e-05
2.65747e-05
2.65416e-05
2.64757e-05
2.63777e-05
2.62486e-05
2.60898e-05
2.59027e-05
2.5689e-05
2.54508e-05
2.51902e-05
2.49092e-05
2.46102e-05
2.42953e-05
2.39668e-05
2.36268e-05
2.32776e-05
2.2921e-05
2.25591e-05
2.21936e-05
2.18261e-05
2.14582e-05
2.10911e-05
2.07262e-05
2.03645e-05
1.96438e-05
2.00262e-05
2.03641e-05
2.07034e-05
2.1043e-05
2.13816e-05
2.17178e-05
2.20501e-05
2.2377e-05
2.26967e-05
2.30073e-05
2.33071e-05
2.3594e-05
2.38661e-05
2.41214e-05
2.4358e-05
2.45739e-05
2.47673e-05
2.49366e-05
2.50802e-05
2.51968e-05
2.52853e-05
2.53447e-05
2.53746e-05
2.53746e-05
2.53447e-05
2.52853e-05
2.51968e-05
2.50802e-05
2.49366e-05
2.47673e-05
2.45739e-05
2.4358e-05
2.41214e-05
2.38661e-05
2.3594e-05
2.33071e-05
2.30073e-05
2.26966e-05
2.2377e-05
2.20501e-05
2.17178e-05
2.13816e-05
2.1043e-05
2.07034e-05
2.03641e-05
2.00262e-05
1.96907e-05
1.90316e-05
1.96894e-05
2.00042e-05
2.03188e-05
2.06319e-05
2.09424e-05
2.12488e-05
2.15497e-05
2.18436e-05
2.21287e-05
2.24035e-05
2.26662e-05
2.29149e-05
2.31481e-05
2.33638e-05
2.35606e-05
2.37367e-05
2.38906e-05
2.40211e-05
2.4127e-05
2.42073e-05
2.42613e-05
2.42884e-05
2.42884e-05
2.42613e-05
2.42073e-05
2.4127e-05
2.40211e-05
2.38906e-05
2.37367e-05
2.35606e-05
2.33638e-05
2.31481e-05
2.29149e-05
2.26661e-05
2.24035e-05
2.21287e-05
2.18435e-05
2.15497e-05
2.12488e-05
2.09423e-05
2.06319e-05
2.03187e-05
2.00042e-05
1.96894e-05
1.93754e-05
1.90632e-05
1.84585e-05
1.96465e-05
1.99371e-05
2.02248e-05
2.05084e-05
2.07865e-05
2.10577e-05
2.13206e-05
2.15735e-05
2.1815e-05
2.20434e-05
2.22573e-05
2.2455e-05
2.26351e-05
2.27961e-05
2.29368e-05
2.3056e-05
2.31527e-05
2.32259e-05
2.32751e-05
2.32999e-05
2.32999e-05
2.32751e-05
2.32259e-05
2.31527e-05
2.3056e-05
2.29368e-05
2.27961e-05
2.26351e-05
2.2455e-05
2.22573e-05
2.20434e-05
2.1815e-05
2.15735e-05
2.13205e-05
2.10577e-05
2.07865e-05
2.05084e-05
2.02248e-05
1.99371e-05
1.96464e-05
1.93541e-05
1.90611e-05
1.87684e-05
1.84769e-05
1.79205e-05
1.92909e-05
1.95585e-05
1.98218e-05
2.00798e-05
2.0331e-05
2.05741e-05
2.08079e-05
2.10308e-05
2.12414e-05
2.14384e-05
2.16203e-05
2.17858e-05
2.19338e-05
2.2063e-05
2.21723e-05
2.22609e-05
2.23281e-05
2.23731e-05
2.23958e-05
2.23958e-05
2.23731e-05
2.23281e-05
2.22609e-05
2.21723e-05
2.20629e-05
2.19338e-05
2.17858e-05
2.16203e-05
2.14383e-05
2.12414e-05
2.10307e-05
2.08079e-05
2.05741e-05
2.0331e-05
2.00797e-05
1.98218e-05
1.95585e-05
1.92909e-05
1.90203e-05
1.87477e-05
1.84741e-05
1.82005e-05
1.79276e-05
1.74141e-05
1.89375e-05
1.91829e-05
1.94229e-05
1.96564e-05
1.98822e-05
2.00989e-05
2.03054e-05
2.05003e-05
2.06824e-05
2.08505e-05
2.10033e-05
2.11397e-05
2.12588e-05
2.13595e-05
2.14411e-05
2.15029e-05
2.15443e-05
2.15652e-05
2.15652e-05
2.15443e-05
2.15029e-05
2.14411e-05
2.13595e-05
2.12587e-05
2.11397e-05
2.10032e-05
2.08504e-05
2.06824e-05
2.05003e-05
2.03054e-05
2.00989e-05
1.98821e-05
1.96564e-05
1.94229e-05
1.91829e-05
1.89375e-05
1.86879e-05
1.84352e-05
1.81803e-05
1.79241e-05
1.76676e-05
1.74115e-05
1.69363e-05
1.88104e-05
1.90281e-05
1.92384e-05
1.944e-05
1.9632e-05
1.9813e-05
1.99819e-05
2.01377e-05
2.02793e-05
2.04056e-05
2.05157e-05
2.06088e-05
2.06842e-05
2.07413e-05
2.07796e-05
2.07989e-05
2.07989e-05
2.07796e-05
2.07413e-05
2.06842e-05
2.06088e-05
2.05157e-05
2.04055e-05
2.02792e-05
2.01377e-05
1.99819e-05
1.98129e-05
1.96319e-05
1.944e-05
1.92384e-05
1.90281e-05
1.88104e-05
1.85864e-05
1.83571e-05
1.81236e-05
1.78869e-05
1.76479e-05
1.74075e-05
1.71664e-05
1.69254e-05
1.64845e-05
1.84411e-05
1.86375e-05
1.88257e-05
1.90047e-05
1.91733e-05
1.93305e-05
1.94754e-05
1.9607e-05
1.97243e-05
1.98266e-05
1.9913e-05
1.99829e-05
2.00358e-05
2.00714e-05
2.00892e-05
2.00892e-05
2.00714e-05
2.00358e-05
1.99829e-05
1.9913e-05
1.98265e-05
1.97243e-05
1.9607e-05
1.94754e-05
1.93305e-05
1.91733e-05
1.90046e-05
1.88257e-05
1.86375e-05
1.84411e-05
1.82376e-05
1.80279e-05
1.78131e-05
1.75941e-05
1.73718e-05
1.71471e-05
1.69208e-05
1.66937e-05
1.64665e-05
1.60564e-05
1.85761e-05
1.87229e-05
1.88581e-05
1.89807e-05
1.909e-05
1.91852e-05
1.92657e-05
1.93308e-05
1.938e-05
1.9413e-05
1.94296e-05
1.94296e-05
1.9413e-05
1.938e-05
1.93308e-05
1.92657e-05
1.91852e-05
1.909e-05
1.89807e-05
1.8858e-05
1.87229e-05
1.8576e-05
1.84185e-05
1.82512e-05
1.80751e-05
1.78911e-05
1.77002e-05
1.75035e-05
1.73017e-05
1.70957e-05
1.68865e-05
1.66748e-05
1.64614e-05
1.6247e-05
1.60322e-05
1.565e-05
1.84976e-05
1.85865e-05
1.86616e-05
1.87224e-05
1.87683e-05
1.87991e-05
1.88146e-05
1.88146e-05
1.87991e-05
1.87683e-05
1.87224e-05
1.86616e-05
1.85865e-05
1.84976e-05
1.83954e-05
1.82807e-05
1.81543e-05
1.80168e-05
1.78692e-05
1.77123e-05
1.75471e-05
1.73743e-05
1.71949e-05
1.70098e-05
1.68198e-05
1.66257e-05
1.64283e-05
1.62284e-05
1.60266e-05
1.58238e-05
1.56204e-05
1.52634e-05
1.80962e-05
1.81531e-05
1.81961e-05
1.82249e-05
1.82394e-05
1.82394e-05
1.82249e-05
1.81961e-05
1.81531e-05
1.80962e-05
1.80259e-05
1.79426e-05
1.78469e-05
1.77394e-05
1.76207e-05
1.74917e-05
1.73531e-05
1.72056e-05
1.70502e-05
1.68875e-05
1.67185e-05
1.65439e-05
1.63646e-05
1.61813e-05
1.59947e-05
1.58055e-05
1.56144e-05
1.54221e-05
1.52292e-05
1.4895e-05
1.76998e-05
1.76998e-05
1.76863e-05
1.76592e-05
1.76189e-05
1.75655e-05
1.74995e-05
1.74213e-05
1.73314e-05
1.72303e-05
1.71188e-05
1.69974e-05
1.68669e-05
1.67279e-05
1.65814e-05
1.64279e-05
1.62683e-05
1.61034e-05
1.59338e-05
1.57602e-05
1.55834e-05
1.54041e-05
1.52228e-05
1.50402e-05
1.48568e-05
1.45434e-05
1.70662e-05
1.70041e-05
1.69304e-05
1.68458e-05
1.67506e-05
1.66454e-05
1.65309e-05
1.64077e-05
1.62766e-05
1.61381e-05
1.5993e-05
1.5842e-05
1.56858e-05
1.55251e-05
1.53605e-05
1.51928e-05
1.50224e-05
1.48501e-05
1.46764e-05
1.45018e-05
1.42073e-05
1.63871e-05
1.62973e-05
1.61979e-05
1.60897e-05
1.59733e-05
1.58492e-05
1.5718e-05
1.55806e-05
1.54374e-05
1.52893e-05
1.51367e-05
1.49803e-05
1.48209e-05
1.46588e-05
1.44947e-05
1.43292e-05
1.41627e-05
1.38856e-05
1.5774e-05
1.56716e-05
1.55612e-05
1.54436e-05
1.53192e-05
1.51888e-05
1.50528e-05
1.4912e-05
1.47669e-05
1.46181e-05
1.44662e-05
1.43118e-05
1.41553e-05
1.39974e-05
1.38384e-05
1.35771e-05
1.53717e-05
1.52745e-05
1.51698e-05
1.5058e-05
1.49399e-05
1.48158e-05
1.46865e-05
1.45524e-05
1.44142e-05
1.42724e-05
1.41275e-05
1.39802e-05
1.38307e-05
1.36798e-05
1.35278e-05
1.3281e-05
1.49891e-05
1.48967e-05
1.47971e-05
1.46908e-05
1.45783e-05
1.44602e-05
1.4337e-05
1.42092e-05
1.40773e-05
1.39419e-05
1.38036e-05
1.36627e-05
1.35198e-05
1.33753e-05
1.32298e-05
1.29964e-05
1.43405e-05
1.42333e-05
1.41206e-05
1.4003e-05
1.3881e-05
1.3755e-05
1.36256e-05
1.34932e-05
1.33584e-05
1.32216e-05
1.30831e-05
1.29436e-05
1.27225e-05
1.34461e-05
1.33223e-05
1.31955e-05
1.30663e-05
1.29351e-05
1.28023e-05
1.26684e-05
1.24587e-05
1.27856e-05
1.26596e-05
1.25321e-05
1.24034e-05
1.22042e-05
0.000518623
0.000535487
0.000544062
0.000544062
0.000535487
0.000518624
0.000494118
0.000463202
0.000427561
0.000388694
0.000348437
0.000308762
0.000271399
0.000237455
0.000207588
0.000181979
0.00016043
0.000142503
0.000127652
0.000115334
0.000105062
9.6437e-05
8.91543e-05
8.29974e-05
7.78428e-05
7.36946e-05
7.07599e-05
6.70121e-05
0.000302225
0.000311508
0.000316293
0.000316293
0.000311508
0.000302226
0.00028901
0.000272664
0.000254108
0.000234264
0.000214051
0.000194297
0.000175641
0.000158511
0.000143127
0.000129535
0.000117654
0.000107326
9.8363e-05
9.05766e-05
8.3801e-05
7.7901e-05
7.27756e-05
6.83583e-05
6.46137e-05
6.15166e-05
5.89577e-05
5.16372e-05
0.000190676
0.000195361
0.00019778
0.00019778
0.000195361
0.000190676
0.000184014
0.000175763
0.000166366
0.000156277
0.000145926
0.000135683
0.000125831
0.000116568
0.000108007
0.000100189
9.31063e-05
8.67216e-05
8.09821e-05
7.58326e-05
7.12221e-05
6.7106e-05
6.34448e-05
6.0196e-05
5.72962e-05
5.46252e-05
5.19609e-05
4.50643e-05
0.000133018
0.00013546
0.000136717
0.000136717
0.00013546
0.000133018
0.000129527
0.000125168
0.000120151
0.000114692
0.000108997
0.000103244
9.75769e-05
9.21017e-05
8.68888e-05
8.19794e-05
7.73926e-05
7.31322e-05
6.91934e-05
6.55655e-05
6.22342e-05
5.91807e-05
5.63773e-05
5.37819e-05
5.13303e-05
4.89386e-05
4.65367e-05
4.10091e-05
0.000101176
0.000102553
0.000103258
0.000103258
0.000102553
0.000101176
9.91938e-05
9.66927e-05
9.37755e-05
9.05499e-05
8.71202e-05
8.35801e-05
8.00095e-05
7.64722e-05
7.30168e-05
6.96782e-05
6.64805e-05
6.34389e-05
6.05617e-05
5.7851e-05
5.53025e-05
5.29047e-05
5.06373e-05
4.84716e-05
4.63747e-05
4.43245e-05
4.23319e-05
3.78795e-05
8.1961e-05
8.28121e-05
8.32463e-05
8.32463e-05
8.28121e-05
8.19611e-05
8.0726e-05
7.9152e-05
7.72929e-05
7.5206e-05
7.29489e-05
7.05754e-05
6.81339e-05
6.56661e-05
6.32064e-05
6.07826e-05
5.8416e-05
5.61222e-05
5.39114e-05
5.17883e-05
4.97524e-05
4.77975e-05
4.59134e-05
4.40884e-05
4.23156e-05
4.05999e-05
3.89604e-05
3.52891e-05
6.92949e-05
6.9869e-05
7.01608e-05
7.01608e-05
6.9869e-05
6.92949e-05
6.84567e-05
6.73796e-05
6.60941e-05
6.46339e-05
6.30333e-05
6.13262e-05
5.9544e-05
5.77154e-05
5.58653e-05
5.40148e-05
5.21811e-05
5.03775e-05
4.86133e-05
4.68939e-05
4.52211e-05
4.3594e-05
4.20107e-05
4.04706e-05
3.89774e-05
3.754e-05
3.61696e-05
3.30868e-05
6.03007e-05
6.07161e-05
6.09267e-05
6.09267e-05
6.07161e-05
6.03007e-05
5.96914e-05
5.89037e-05
5.79565e-05
5.6871e-05
5.56696e-05
5.4375e-05
5.3009e-05
5.15917e-05
5.01417e-05
4.86751e-05
4.72053e-05
4.57432e-05
4.4297e-05
4.28726e-05
4.14735e-05
4.01025e-05
3.87622e-05
3.74565e-05
3.6191e-05
3.49726e-05
3.38066e-05
3.11828e-05
5.35435e-05
5.38601e-05
5.40203e-05
5.40203e-05
5.38601e-05
5.35435e-05
5.30776e-05
5.24727e-05
5.17413e-05
5.08978e-05
4.99579e-05
4.89374e-05
4.78519e-05
4.67165e-05
4.5545e-05
4.43499e-05
4.31418e-05
4.19299e-05
4.07214e-05
3.95222e-05
3.83372e-05
3.71705e-05
3.60266e-05
3.49102e-05
3.38263e-05
3.27794e-05
3.17724e-05
2.95151e-05
4.82553e-05
4.85059e-05
4.86324e-05
4.86324e-05
4.85059e-05
4.82553e-05
4.78858e-05
4.74044e-05
4.68201e-05
4.61432e-05
4.5385e-05
4.45571e-05
4.36712e-05
4.27386e-05
4.17702e-05
4.07757e-05
3.97638e-05
3.87421e-05
3.77174e-05
3.66951e-05
3.56805e-05
3.46782e-05
3.36927e-05
3.27284e-05
3.17894e-05
3.08787e-05
2.99986e-05
2.80391e-05
4.39915e-05
4.41954e-05
4.42982e-05
4.42982e-05
4.41954e-05
4.39916e-05
4.36904e-05
4.32971e-05
4.28183e-05
4.22617e-05
4.16357e-05
4.09491e-05
4.0211e-05
3.94302e-05
3.86152e-05
3.77739e-05
3.69135e-05
3.60407e-05
3.51612e-05
3.42803e-05
3.3403e-05
3.25336e-05
3.16764e-05
3.0835e-05
3.00129e-05
2.92124e-05
2.84355e-05
2.67211e-05
4.04751e-05
4.06446e-05
4.073e-05
4.073e-05
4.06446e-05
4.04752e-05
4.02245e-05
3.98966e-05
3.94964e-05
3.90299e-05
3.85035e-05
3.79242e-05
3.72991e-05
3.66351e-05
3.59393e-05
3.5218e-05
3.44775e-05
3.37232e-05
3.29605e-05
3.21941e-05
3.14284e-05
3.06674e-05
2.99148e-05
2.91739e-05
2.84473e-05
2.77374e-05
2.70458e-05
2.55354e-05
3.75227e-05
3.76659e-05
3.7738e-05
3.77381e-05
3.76659e-05
3.75227e-05
3.73106e-05
3.70326e-05
3.66928e-05
3.62957e-05
3.58465e-05
3.53507e-05
3.48141e-05
3.42423e-05
3.3641e-05
3.30157e-05
3.23715e-05
3.17133e-05
3.10457e-05
3.03729e-05
2.96988e-05
2.90269e-05
2.83606e-05
2.77026e-05
2.70554e-05
2.64209e-05
2.58007e-05
2.44616e-05
3.50069e-05
3.51297e-05
3.51915e-05
3.51915e-05
3.51297e-05
3.50069e-05
3.48249e-05
3.45861e-05
3.42937e-05
3.39514e-05
3.35633e-05
3.31339e-05
3.2668e-05
3.21702e-05
3.16452e-05
3.10978e-05
3.05322e-05
2.99528e-05
2.93635e-05
2.87681e-05
2.81699e-05
2.75722e-05
2.69777e-05
2.6389e-05
2.58083e-05
2.52373e-05
2.46776e-05
2.34837e-05
3.22165e-05
3.19181e-05
3.15792e-05
3.12036e-05
3.0795e-05
3.03576e-05
2.98952e-05
2.94118e-05
2.89112e-05
2.83971e-05
2.78729e-05
2.7342e-05
2.68074e-05
2.62719e-05
2.57379e-05
2.52078e-05
2.46834e-05
2.41664e-05
2.36584e-05
2.25885e-05
2.65419e-05
2.60654e-05
2.55845e-05
2.51016e-05
2.46191e-05
2.41388e-05
2.36626e-05
2.3192e-05
2.27284e-05
2.17652e-05
2.36033e-05
2.31659e-05
2.27313e-05
2.23008e-05
2.18758e-05
2.10047e-05
2.14819e-05
2.10906e-05
2.02998e-05
1.15995e-05
1.13689e-05
1.11457e-05
1.74917e-05
1.69974e-05
1.65309e-05
1.60897e-05
1.56716e-05
1.52745e-05
1.48967e-05
1.45366e-05
1.41928e-05
1.38641e-05
1.35494e-05
1.32475e-05
1.29577e-05
1.26791e-05
1.24108e-05
1.21523e-05
1.19029e-05
1.16621e-05
1.14293e-05
1.1204e-05
1.93305e-05
1.87229e-05
1.81543e-05
1.76207e-05
1.71188e-05
1.66454e-05
1.61979e-05
1.5774e-05
1.53717e-05
1.49891e-05
1.46245e-05
1.42767e-05
1.39442e-05
1.36259e-05
1.33208e-05
1.3028e-05
1.27465e-05
1.24756e-05
1.22146e-05
1.19629e-05
1.17199e-05
1.14851e-05
1.12579e-05
1.94754e-05
1.8858e-05
1.82807e-05
1.77394e-05
1.72303e-05
1.67505e-05
1.62972e-05
1.5868e-05
1.54608e-05
1.50738e-05
1.47051e-05
1.43535e-05
1.40175e-05
1.3696e-05
1.33879e-05
1.30922e-05
1.28081e-05
1.25348e-05
1.22716e-05
1.20178e-05
1.17727e-05
1.1536e-05
1.1307e-05
1.9607e-05
1.89807e-05
1.83954e-05
1.78469e-05
1.73314e-05
1.68457e-05
1.63871e-05
1.59531e-05
1.55414e-05
1.51503e-05
1.47779e-05
1.44229e-05
1.40837e-05
1.37592e-05
1.34484e-05
1.31502e-05
1.28637e-05
1.25882e-05
1.23229e-05
1.20671e-05
1.18203e-05
1.15818e-05
1.13513e-05
1.97243e-05
1.909e-05
1.84976e-05
1.79426e-05
1.74213e-05
1.69304e-05
1.6467e-05
1.60286e-05
1.5613e-05
1.52183e-05
1.48426e-05
1.44844e-05
1.41424e-05
1.38153e-05
1.35021e-05
1.32016e-05
1.2913e-05
1.26355e-05
1.23684e-05
1.21109e-05
1.18624e-05
1.16224e-05
1.13904e-05
7.72927e-05
6.6094e-05
5.79563e-05
5.17411e-05
4.682e-05
4.28182e-05
3.94963e-05
3.66927e-05
3.42936e-05
3.22164e-05
3.03993e-05
2.87954e-05
2.73684e-05
2.60898e-05
2.49366e-05
2.38906e-05
2.29368e-05
2.20629e-05
2.12587e-05
2.05157e-05
1.98265e-05
1.91852e-05
1.85865e-05
1.80259e-05
1.74995e-05
1.7004e-05
1.65365e-05
1.60943e-05
1.56752e-05
1.52773e-05
1.48987e-05
1.45378e-05
1.41934e-05
1.3864e-05
1.35486e-05
1.32461e-05
1.29557e-05
1.26765e-05
1.24078e-05
1.21488e-05
1.18989e-05
1.16576e-05
1.14243e-05
7.91518e-05
6.73794e-05
5.89036e-05
5.24725e-05
4.74043e-05
4.3297e-05
3.98965e-05
3.70325e-05
3.45861e-05
3.24708e-05
3.06229e-05
2.89935e-05
2.75453e-05
2.62486e-05
2.50802e-05
2.40211e-05
2.3056e-05
2.21723e-05
2.13595e-05
2.06088e-05
1.99129e-05
1.92657e-05
1.86616e-05
1.80962e-05
1.75655e-05
1.70661e-05
1.6595e-05
1.61497e-05
1.57276e-05
1.5327e-05
1.49459e-05
1.45828e-05
1.42362e-05
1.39049e-05
1.35877e-05
1.32836e-05
1.29916e-05
1.2711e-05
1.24409e-05
1.21806e-05
1.19296e-05
1.16871e-05
1.14528e-05
8.07258e-05
6.84565e-05
5.96913e-05
5.30775e-05
4.78857e-05
4.36903e-05
4.02244e-05
3.73105e-05
3.48248e-05
3.26783e-05
3.0805e-05
2.91547e-05
2.7689e-05
2.63777e-05
2.51968e-05
2.4127e-05
2.31527e-05
2.22609e-05
2.1441e-05
2.06842e-05
1.99829e-05
1.93307e-05
1.87223e-05
1.81531e-05
1.76189e-05
1.71163e-05
1.66424e-05
1.61944e-05
1.577e-05
1.53671e-05
1.49841e-05
1.46191e-05
1.42708e-05
1.3938e-05
1.36193e-05
1.33138e-05
1.30206e-05
1.27388e-05
1.24676e-05
1.22063e-05
1.19543e-05
1.17109e-05
1.14758e-05
0.000518623
0.000302225
0.000190676
0.000133018
0.000101176
8.19609e-05
6.92948e-05
6.03006e-05
5.35434e-05
4.82552e-05
4.39915e-05
4.04751e-05
3.75226e-05
3.50069e-05
3.28363e-05
3.09435e-05
2.92772e-05
2.77982e-05
2.64757e-05
2.52852e-05
2.42073e-05
2.32259e-05
2.2328e-05
2.15028e-05
2.07413e-05
2.00358e-05
1.938e-05
1.87683e-05
1.8196e-05
1.76592e-05
1.71542e-05
1.66781e-05
1.62281e-05
1.58019e-05
1.53975e-05
1.50129e-05
1.46465e-05
1.4297e-05
1.39629e-05
1.36431e-05
1.33366e-05
1.30425e-05
1.27597e-05
1.24877e-05
1.22256e-05
1.19729e-05
1.17289e-05
1.14931e-05
0.000535486
0.000311507
0.000195361
0.00013546
0.000102552
8.2812e-05
6.98689e-05
6.0716e-05
5.386e-05
4.85058e-05
4.41953e-05
4.06445e-05
3.76658e-05
3.51296e-05
3.29428e-05
3.10368e-05
2.93597e-05
2.78716e-05
2.65415e-05
2.53447e-05
2.42612e-05
2.32751e-05
2.23731e-05
2.15443e-05
2.07796e-05
2.00713e-05
1.9413e-05
1.87991e-05
1.82249e-05
1.76863e-05
1.71797e-05
1.67021e-05
1.62508e-05
1.58234e-05
1.54178e-05
1.50322e-05
1.46649e-05
1.43145e-05
1.39796e-05
1.36591e-05
1.33519e-05
1.30571e-05
1.27738e-05
1.25012e-05
1.22386e-05
1.19854e-05
1.17409e-05
1.15047e-05
0.000544062
0.000316293
0.00019778
0.000136716
0.000103258
8.32462e-05
7.01607e-05
6.09266e-05
5.40202e-05
4.86323e-05
4.42982e-05
4.07299e-05
3.7738e-05
3.51914e-05
3.29964e-05
3.10837e-05
2.94011e-05
2.79086e-05
2.65747e-05
2.53746e-05
2.42884e-05
2.32998e-05
2.23958e-05
2.15652e-05
2.07989e-05
2.00892e-05
1.94296e-05
1.88146e-05
1.82393e-05
1.76998e-05
1.71924e-05
1.67141e-05
1.62621e-05
1.58341e-05
1.5428e-05
1.50418e-05
1.46741e-05
1.43232e-05
1.3988e-05
1.36671e-05
1.33596e-05
1.30644e-05
1.27808e-05
1.25079e-05
1.22451e-05
1.19916e-05
1.17469e-05
1.15105e-05
0.000544062
0.000316293
0.00019778
0.000136716
0.000103258
8.32462e-05
7.01607e-05
6.09266e-05
5.40202e-05
4.86323e-05
4.42982e-05
4.07299e-05
3.7738e-05
3.51914e-05
3.29964e-05
3.10837e-05
2.94011e-05
2.79086e-05
2.65747e-05
2.53746e-05
2.42883e-05
2.32998e-05
2.23958e-05
2.15652e-05
2.07989e-05
2.00892e-05
1.94296e-05
1.88146e-05
1.82393e-05
1.76998e-05
1.71924e-05
1.67141e-05
1.62621e-05
1.58341e-05
1.5428e-05
1.50418e-05
1.46741e-05
1.43232e-05
1.3988e-05
1.36671e-05
1.33596e-05
1.30644e-05
1.27808e-05
1.25079e-05
1.22451e-05
1.19916e-05
1.17469e-05
1.15105e-05
0.000535487
0.000311508
0.000195361
0.00013546
0.000102552
8.2812e-05
6.98689e-05
6.07161e-05
5.38601e-05
4.85058e-05
4.41953e-05
4.06445e-05
3.76658e-05
3.51296e-05
3.29428e-05
3.10368e-05
2.93597e-05
2.78716e-05
2.65415e-05
2.53447e-05
2.42612e-05
2.32751e-05
2.23731e-05
2.15443e-05
2.07796e-05
2.00713e-05
1.9413e-05
1.87991e-05
1.82249e-05
1.76862e-05
1.71797e-05
1.67021e-05
1.62508e-05
1.58234e-05
1.54178e-05
1.50322e-05
1.46649e-05
1.43145e-05
1.39796e-05
1.36591e-05
1.33519e-05
1.30571e-05
1.27738e-05
1.25012e-05
1.22386e-05
1.19854e-05
1.17409e-05
1.15047e-05
0.000518623
0.000302225
0.000190676
0.000133018
0.000101176
8.1961e-05
6.92948e-05
6.03006e-05
5.35435e-05
4.82553e-05
4.39915e-05
4.04751e-05
3.75226e-05
3.50069e-05
3.28364e-05
3.09435e-05
2.92772e-05
2.77982e-05
2.64757e-05
2.52852e-05
2.42073e-05
2.32259e-05
2.2328e-05
2.15028e-05
2.07413e-05
2.00358e-05
1.938e-05
1.87683e-05
1.8196e-05
1.76592e-05
1.71542e-05
1.66781e-05
1.62281e-05
1.58019e-05
1.53975e-05
1.50129e-05
1.46465e-05
1.4297e-05
1.39629e-05
1.36431e-05
1.33366e-05
1.30425e-05
1.27597e-05
1.24877e-05
1.22256e-05
1.19729e-05
1.17289e-05
1.14931e-05
0.000494118
0.00028901
0.000184014
0.000129527
9.91937e-05