/*--------------------------------*- C++ -*----------------------------------*\
  =========                 |
  \\      /  F ield         | OpenFOAM: The Open Source CFD Toolbox
   \\    /   O peration     | Website:  https://openfoam.org
    \\  /    A nd           | Version:  7
     \\/     M anipulation  |
\*---------------------------------------------------------------------------*/
FoamFile
{
    version     2.0;
    format      ascii;
    class       volScalarField;
    location    "192000";
    object      strainRate;
}
// * * * * * * * * * * * * * * * * * * * * * * * * * * * * * * * * * * * * * //

dimensions      [0 0 -1 0 0 0 0];

internalField   nonuniform List<scalar> 
4782
(
0.0916403
0.0948343
0.0982013
0.101754
0.105506
0.109472
0.113668
0.118111
0.12282
0.127815
0.0294195
0.0300248
0.0306458
0.0312833
0.0319379
0.0326102
0.033301
0.0340112
0.0347414
0.0354926
0.0362671
0.03707
0.0379054
0.0387723
0.0396683
0.0405925
0.0415453
0.0425276
0.0435408
0.0445864
0.0456662
0.0467823
0.0479367
0.0491316
0.0503693
0.0516522
0.052983
0.0543644
0.0557992
0.0572907
0.058842
0.0604567
0.0621385
0.0638916
0.0657202
0.067629
0.069623
0.0717075
0.0738884
0.0761719
0.0785648
0.0810743
0.0837083
0.0864752
0.0893844
0.0924457
0.0956699
0.0990686
0.102655
0.106442
0.110444
0.114679
0.119163
0.123914
0.128955
0.0296602
0.0302704
0.0308966
0.0315394
0.0321994
0.0328774
0.0335741
0.0342904
0.0350269
0.0357848
0.0365679
0.0373822
0.0382287
0.0391048
0.0400091
0.0409412
0.0419018
0.0428921
0.0439136
0.0449679
0.046057
0.0471827
0.0483473
0.049553
0.0508019
0.0520967
0.0534399
0.0548343
0.0562827
0.0577883
0.0593545
0.0609848
0.0626829
0.064453
0.0662994
0.0682269
0.0702404
0.0723454
0.0745478
0.0768538
0.0792703
0.0818045
0.0844645
0.0872587
0.0901965
0.0932879
0.0965436
0.0999756
0.103596
0.10742
0.111461
0.115736
0.120262
0.125058
0.130145
0.0299088
0.0305241
0.0311556
0.0318038
0.0324696
0.0331535
0.0338565
0.0345793
0.0353229
0.0360894
0.0368838
0.0377102
0.0385672
0.0394521
0.0403641
0.0413038
0.042272
0.0432703
0.0443002
0.0453635
0.0464621
0.047598
0.0487733
0.0499902
0.051251
0.0525582
0.0539144
0.0553224
0.0567851
0.0583056
0.0598874
0.061534
0.0632492
0.0650372
0.0669023
0.0688493
0.0708834
0.0730099
0.0752348
0.0775644
0.0800056
0.0825658
0.085253
0.0880758
0.0910436
0.0941664
0.0974553
0.100922
0.104579
0.108441
0.112522
0.116839
0.121409
0.126251
0.131386
0.030191
0.0308106
0.0314465
0.0320991
0.0327694
0.0334578
0.0341658
0.0348966
0.0356542
0.0364388
0.0372494
0.0380859
0.0389486
0.0398381
0.0407552
0.0417006
0.0426757
0.0436817
0.0447202
0.0457928
0.0469013
0.0480477
0.0492341
0.0504627
0.0517357
0.0530557
0.0544254
0.0558474
0.0573248
0.0588608
0.0604587
0.0621222
0.0638551
0.0656616
0.0675462
0.0695135
0.0715689
0.0737178
0.0759662
0.0783204
0.0807875
0.0833748
0.0860905
0.0889432
0.0919424
0.0950982
0.0984216
0.101925
0.10562
0.109522
0.113645
0.118006
0.122623
0.127513
0.132699
0.030191
0.0308106
0.0314465
0.0320991
0.0327694
0.0334578
0.0341658
0.0348966
0.0356542
0.0364388
0.0372494
0.0380859
0.0389486
0.0398381
0.0407552
0.0417006
0.0426757
0.0436817
0.0447202
0.0457928
0.0469013
0.0480477
0.0492341
0.0504627
0.0517357
0.0530557
0.0544254
0.0558474
0.0573248
0.0588608
0.0604587
0.0621222
0.0638551
0.0656616
0.0675462
0.0695135
0.0715689
0.0737178
0.0759662
0.0783204
0.0807875
0.0833748
0.0860905
0.0889432
0.0919424
0.0950982
0.0984216
0.101925
0.10562
0.109522
0.113645
0.118006
0.122623
0.127513
0.132699
0.0299088
0.0305241
0.0311556
0.0318038
0.0324696
0.0331535
0.0338565
0.0345793
0.0353229
0.0360894
0.0368838
0.0377102
0.0385672
0.0394521
0.0403641
0.0413038
0.042272
0.0432703
0.0443002
0.0453635
0.0464621
0.047598
0.0487733
0.0499902
0.051251
0.0525582
0.0539144
0.0553224
0.0567851
0.0583057
0.0598874
0.061534
0.0632492
0.0650372
0.0669023
0.0688493
0.0708834
0.0730099
0.0752348
0.0775644
0.0800056
0.0825658
0.085253
0.0880758
0.0910436
0.0941664
0.0974553
0.100922
0.104579
0.108441
0.112522
0.116839
0.121409
0.126251
0.131386
0.136836
0.142623
0.148774
0.155315
0.0296602
0.0302704
0.0308966
0.0315394
0.0321994
0.0328774
0.0335741
0.0342904
0.0350269
0.0357848
0.0365679
0.0373822
0.0382287
0.0391048
0.0400091
0.0409412
0.0419018
0.0428921
0.0439136
0.0449679
0.046057
0.0471827
0.0483473
0.049553
0.0508019
0.0520967
0.0534399
0.0548343
0.0562827
0.0577883
0.0593545
0.0609848
0.0626829
0.064453
0.0662994
0.0682269
0.0702404
0.0723454
0.0745478
0.0768538
0.0792703
0.0818045
0.0844645
0.0872587
0.0901965
0.0932879
0.0965436
0.0999756
0.103596
0.10742
0.111461
0.115736
0.120262
0.125058
0.130145
0.135544
0.141278
0.147375
0.153859
0.160761
0.0294195
0.0300248
0.0306458
0.0312833
0.0319379
0.0326102
0.033301
0.0340112
0.0347414
0.0354926
0.0362671
0.03707
0.0379054
0.0387723
0.0396683
0.0405925
0.0415453
0.0425276
0.0435408
0.0445864
0.0456662
0.0467823
0.0479367
0.0491316
0.0503693
0.0516522
0.052983
0.0543644
0.0557993
0.0572907
0.058842
0.0604567
0.0621385
0.0638916
0.0657202
0.067629
0.069623
0.0717075
0.0738884
0.076172
0.0785648
0.0810743
0.0837083
0.0864753
0.0893844
0.0924457
0.0956699
0.0990687
0.102655
0.106442
0.110444
0.114679
0.119163
0.123914
0.128955
0.134305
0.139989
0.146033
0.152462
0.159307
0.166598
0.174366
0.182645
0.19147
0.200876
0.210897
0.221567
0.232917
0.244977
0.257774
0.271362
0.285956
0.301926
0.319361
0.337944
0.357354
0.377322
0.397479
0.417345
0.436356
0.453921
0.469508
0.482726
0.493406
0.501615
0.507624
0.511839
0.514705
0.516637
0.517978
0.518976
0.519796
0.520532
0.521234
0.521919
0.0291876
0.0297882
0.0304044
0.0310368
0.0316862
0.0323532
0.0330384
0.0337428
0.0344671
0.0352121
0.035979
0.0367719
0.0375967
0.0384541
0.0393417
0.0402581
0.0412032
0.0421777
0.0431828
0.04422
0.045291
0.0463978
0.0475425
0.0487272
0.0499541
0.0512259
0.0525449
0.0539139
0.0553358
0.0568138
0.0583509
0.0599508
0.0616172
0.063354
0.0651657
0.0670567
0.0690321
0.0710971
0.0732575
0.0755196
0.07789
0.0803758
0.082985
0.085726
0.0886078
0.0916403
0.0948343
0.0982013
0.101754
0.105506
0.109472
0.113668
0.118111
0.12282
0.127816
0.133119
0.138755
0.144747
0.151124
0.157914
0.165148
0.172857
0.181077
0.189842
0.199187
0.209147
0.219758
0.231051
0.243057
0.255804
0.26934
0.283841
0.299683
0.317034
0.335596
0.355021
0.375048
0.395312
0.415338
0.434558
0.452372
0.468228
0.481716
0.49264
0.501054
0.507222
0.511549
0.514488
0.516465
0.517831
0.518844
0.519672
0.520415
0.521122
0.521812
0.0289652
0.0295613
0.0301728
0.0308005
0.0314449
0.0321067
0.0327867
0.0334857
0.0342043
0.0349435
0.0357042
0.036489
0.0373031
0.0381502
0.0390292
0.0399379
0.0408756
0.0418427
0.0428401
0.0438693
0.044932
0.04603
0.0471654
0.0483404
0.0495572
0.0508183
0.0521261
0.0534834
0.0548931
0.0563582
0.0578819
0.0594677
0.0611194
0.0628408
0.0646363
0.0665105
0.0684681
0.0705146
0.0726555
0.0748972
0.0772461
0.0797095
0.082295
0.0850111
0.0878668
0.0908719
0.094037
0.0973737
0.100894
0.104613
0.108543
0.112702
0.117106
0.121775
0.126728
0.131986
0.137575
0.143519
0.149844
0.156581
0.16376
0.171414
0.179576
0.188282
0.197568
0.207469
0.218022
0.22926
0.241213
0.25391
0.267394
0.281805
0.297522
0.314791
0.33333
0.352766
0.372845
0.393208
0.413383
0.432803
0.450856
0.466973
0.480721
0.491886
0.500502
0.506826
0.511263
0.514275
0.516297
0.517688
0.518715
0.519552
0.520301
0.521013
0.521708
0.0287526
0.0293445
0.0299516
0.0305747
0.0312144
0.0318714
0.0325464
0.0332402
0.0339535
0.0346871
0.0354421
0.0362194
0.0370238
0.0378611
0.0387317
0.0396328
0.0405632
0.0415231
0.0425132
0.0435348
0.0445895
0.0456792
0.0468059
0.0479717
0.0491789
0.0504298
0.0517271
0.0530733
0.0544714
0.0559243
0.0574353
0.0590078
0.0606454
0.0623523
0.0641324
0.0659905
0.0679313
0.0699601
0.0720826
0.0743048
0.0766333
0.0790752
0.0816383
0.0843307
0.0871615
0.0901405
0.0932781
0.0965859
0.100076
0.103763
0.10766
0.111783
0.11615
0.120779
0.125691
0.130907
0.136451
0.142348
0.148625
0.155311
0.162437
0.170037
0.178143
0.186793
0.196021
0.205866
0.216363
0.227547
0.239448
0.252096
0.265529
0.279853
0.29545
0.312639
0.331151
0.350595
0.370719
0.391173
0.411489
0.431097
0.449377
0.465745
0.479747
0.491146
0.49996
0.506437
0.510985
0.514068
0.516133
0.51755
0.518591
0.519436
0.520191
0.520907
0.521608
0.0285502
0.029138
0.0297409
0.0303597
0.030995
0.0316474
0.0323176
0.0330065
0.0337147
0.0344431
0.0351926
0.0359642
0.0367609
0.0375883
0.0384493
0.0393425
0.0402658
0.0412188
0.042202
0.0432165
0.0442638
0.0453458
0.0464642
0.0476214
0.0488195
0.0500609
0.0513481
0.0526838
0.0540709
0.0555122
0.0570112
0.058571
0.0601955
0.0618884
0.0636541
0.0654969
0.0674217
0.0694338
0.0715387
0.0737424
0.0760515
0.0784731
0.0810148
0.0836847
0.0864919
0.089446
0.0925575
0.0958378
0.0992992
0.102955
0.10682
0.11091
0.115242
0.119834
0.124707
0.129882
0.135383
0.141235
0.147465
0.154103
0.161179
0.168727
0.17678
0.185375
0.19455
0.20434
0.214783
0.225914
0.237765
0.250366
0.26375
0.277995
0.293481
0.310586
0.329068
0.348513
0.368677
0.389214
0.40966
0.429445
0.447943
0.464551
0.478797
0.490422
0.499429
0.506057
0.510711
0.513865
0.515973
0.517414
0.518469
0.519322
0.520082
0.520804
0.521509
0.0283581
0.0289421
0.0295411
0.0301559
0.0307869
0.031435
0.0321008
0.032785
0.0334884
0.0342119
0.0349562
0.0357225
0.0365123
0.0373305
0.0381825
0.0390681
0.0399845
0.0409308
0.0419074
0.0429151
0.0439553
0.0450299
0.0461406
0.0472896
0.0484791
0.0497115
0.0509893
0.0523151
0.0536918
0.0551223
0.0566098
0.0581577
0.0597696
0.0614494
0.0632013
0.0650297
0.0669394
0.0689356
0.0710239
0.0732101
0.0755009
0.0779032
0.0804246
0.0830732
0.085858
0.0887886
0.0918753
0.0951294
0.0985634
0.10219
0.106025
0.110083
0.114381
0.118938
0.123773
0.12891
0.13437
0.140179
0.146365
0.152957
0.159985
0.167483
0.175486
0.184029
0.193151
0.202888
0.213279
0.224359
0.236162
0.248719
0.262061
0.276265
0.291673
0.308669
0.327086
0.346528
0.366724
0.387335
0.407902
0.427852
0.446553
0.46339
0.477869
0.489712
0.498905
0.505679
0.510438
0.513661
0.515811
0.517276
0.518343
0.519205
0.519971
0.520697
0.521406
0.0281767
0.028757
0.0293524
0.0299633
0.0305904
0.0312344
0.0318959
0.0325758
0.0332747
0.0339935
0.0347331
0.0354943
0.0362783
0.0370889
0.0379321
0.0388095
0.0397189
0.0406589
0.0416291
0.0426305
0.0436641
0.0447318
0.0458352
0.0469766
0.0481581
0.049382
0.0506509
0.0519674
0.0533343
0.0547546
0.0562313
0.057768
0.0593681
0.0610356
0.0627745
0.0645893
0.0664848
0.068466
0.0705386
0.0727084
0.0749818
0.0773659
0.0798682
0.0824967
0.0852604
0.0881687
0.091232
0.0944616
0.0978696
0.101469
0.105275
0.109303
0.113569
0.118093
0.122893
0.127993
0.133415
0.139184
0.145328
0.151875
0.158858
0.16631
0.174264
0.182758
0.19183
0.201517
0.211858
0.22289
0.234647
0.24716
0.260463
0.274626
0.289961
0.306852
0.325205
0.344641
0.364865
0.385544
0.40622
0.426326
0.445219
0.462272
0.476974
0.489027
0.498399
0.505314
0.510174
0.513464
0.515654
0.517143
0.518223
0.519092
0.519863
0.520594
0.521308
0.028006
0.0285829
0.0291748
0.0297821
0.0304055
0.0310457
0.0317033
0.0323791
0.0330738
0.0337882
0.0345232
0.0352797
0.0360588
0.036863
0.0376978
0.0385671
0.0394697
0.0404034
0.0413677
0.0423631
0.0433905
0.0444517
0.0455484
0.0466826
0.0478565
0.0490726
0.0503332
0.051641
0.0529987
0.0544094
0.0558761
0.0574022
0.0589913
0.0606471
0.0623739
0.064176
0.0660581
0.0680253
0.0700831
0.0722374
0.0744946
0.0768617
0.079346
0.0819557
0.0846995
0.0875869
0.0906283
0.0938348
0.0972185
0.100793
0.104572
0.108571
0.112807
0.117299
0.122067
0.127132
0.132518
0.138249
0.144353
0.15086
0.1578
0.165207
0.173116
0.181563
0.190587
0.200227
0.210521
0.221507
0.233219
0.245691
0.258956
0.273079
0.288343
0.305136
0.323427
0.342856
0.363103
0.383842
0.404621
0.42487
0.443944
0.461202
0.476115
0.488368
0.497913
0.504964
0.509922
0.513276
0.515506
0.517017
0.51811
0.518986
0.519762
0.520497
0.521215
0.0278462
0.02842
0.0290086
0.0296126
0.0302326
0.0308692
0.0315231
0.0321951
0.0328858
0.0335962
0.034327
0.0350792
0.0358537
0.036652
0.0374792
0.0383409
0.039237
0.0401649
0.0411235
0.0421131
0.0431348
0.0441899
0.0452802
0.0464078
0.0475747
0.0487834
0.0500363
0.0513359
0.0526851
0.0540868
0.0555442
0.0570604
0.0586392
0.0602842
0.0619997
0.0637898
0.0656595
0.0676136
0.0696576
0.0717975
0.0740396
0.0763907
0.0788583
0.0814504
0.0841756
0.0870436
0.0900644
0.0932493
0.0966102
0.10016
0.103914
0.107887
0.112096
0.116558
0.121295
0.126328
0.131679
0.137375
0.143442
0.14991
0.15681
0.164175
0.172041
0.180445
0.189424
0.199019
0.209268
0.22021
0.231881
0.244313
0.257541
0.271627
0.286824
0.303522
0.321756
0.341175
0.361443
0.382236
0.403108
0.42349
0.442732
0.460183
0.475297
0.487741
0.49745
0.504631
0.509682
0.513099
0.515367
0.516899
0.518004
0.518887
0.519668
0.520407
0.521128
0.0276974
0.0282684
0.028854
0.0294549
0.0300716
0.0307049
0.0313554
0.0320238
0.0327109
0.0334175
0.0341444
0.0348925
0.0356628
0.0364564
0.0372773
0.0381317
0.039021
0.039943
0.0408962
0.0418806
0.0428968
0.0439463
0.0450308
0.0461522
0.0473127
0.0485146
0.0497603
0.0510524
0.0523937
0.0537871
0.0552357
0.0567429
0.058312
0.0599471
0.061652
0.0634311
0.0652891
0.0672311
0.0692624
0.0713889
0.0736168
0.0759531
0.0784051
0.0809809
0.0836889
0.0865387
0.0895405
0.0927052
0.0960451
0.099573
0.103303
0.107251
0.111434
0.115869
0.120578
0.12558
0.1309
0.136562
0.142595
0.149026
0.155889
0.163215
0.171041
0.179403
0.188341
0.197894
0.208101
0.219002
0.230633
0.243027
0.256221
0.27027
0.285405
0.302015
0.320193
0.339601
0.359886
0.380728
0.401686
0.422191
0.44159
0.45922
0.474523
0.487146
0.497011
0.504315
0.509456
0.512932
0.515236
0.516789
0.517905
0.518795
0.51958
0.520323
0.521048
0.0275598
0.0281281
0.0287109
0.0293089
0.0299227
0.030553
0.0312003
0.0318655
0.0325492
0.0332523
0.0339756
0.03472
0.0354863
0.0362758
0.0370915
0.0379391
0.0388218
0.0397381
0.0406863
0.0416657
0.0426769
0.0437213
0.0448004
0.0459161
0.0470707
0.0482663
0.0495053
0.0507905
0.0521245
0.0535103
0.0549509
0.0564496
0.0580099
0.0596357
0.0613309
0.0630998
0.0649471
0.0668779
0.0688974
0.0710115
0.0732265
0.0755491
0.0779867
0.0805473
0.0832394
0.0860725
0.0890566
0.0922028
0.0955231
0.0990304
0.102739
0.106664
0.110823
0.115233
0.119915
0.124889
0.130179
0.135811
0.141812
0.14821
0.155037
0.162327
0.170116
0.17844
0.187339
0.196852
0.20702
0.217882
0.229476
0.241836
0.254996
0.269012
0.284087
0.300616
0.318742
0.338139
0.358437
0.379323
0.400358
0.420976
0.440519
0.458317
0.473796
0.486586
0.496599
0.504019
0.509245
0.512776
0.515115
0.516687
0.517814
0.51871
0.5195
0.520246
0.520974
0.0274334
0.0279992
0.0285796
0.0291749
0.029786
0.0304135
0.0310579
0.0317201
0.0324007
0.0331007
0.0338207
0.0345616
0.0353244
0.0361102
0.0369211
0.0377625
0.0386392
0.0395504
0.0404938
0.0414686
0.0424753
0.0435149
0.044589
0.0456996
0.0468487
0.0480385
0.0492715
0.0505504
0.0518777
0.0532564
0.0546897
0.0561807
0.0577329
0.0593502
0.0610365
0.062796
0.0646336
0.066554
0.0685627
0.0706655
0.0728685
0.0751786
0.077603
0.0801498
0.0828273
0.085645
0.088613
0.0917421
0.0950444
0.0985329
0.102222
0.106126
0.110262
0.114649
0.119306
0.124255
0.129519
0.135122
0.141093
0.14746
0.154255
0.161512
0.169266
0.177555
0.186418
0.195895
0.206027
0.216853
0.228412
0.240739
0.253869
0.267852
0.282874
0.299328
0.317404
0.33679
0.357099
0.378023
0.399128
0.419848
0.439524
0.457477
0.473118
0.486065
0.496214
0.503743
0.509048
0.512632
0.515003
0.516593
0.517731
0.518632
0.519426
0.520176
0.520907
0.0273184
0.027882
0.02846
0.029053
0.0296616
0.0302865
0.0309283
0.0315878
0.0322657
0.0329627
0.0336797
0.0344175
0.0351772
0.0359596
0.0367662
0.0376021
0.0384733
0.0393798
0.0403189
0.0412895
0.0422919
0.0433272
0.0443968
0.0455026
0.0466467
0.0478313
0.0490589
0.0503319
0.0516532
0.0530256
0.0544521
0.0559361
0.057481
0.0590906
0.0607687
0.0625198
0.0643485
0.0662595
0.0682584
0.0703508
0.0725431
0.0748417
0.0772542
0.0797883
0.0824526
0.0852563
0.0882095
0.0913232
0.0946092
0.0980804
0.101751
0.105636
0.109753
0.114118
0.118753
0.123678
0.128917
0.134495
0.140439
0.146778
0.153544
0.16077
0.168493
0.17675
0.18558
0.195023
0.205122
0.215915
0.227442
0.239739
0.25284
0.266794
0.281766
0.298151
0.316182
0.335556
0.355875
0.376832
0.398
0.418813
0.438609
0.456702
0.472492
0.485584
0.495859
0.503489
0.508867
0.5125
0.5149
0.516508
0.517655
0.518562
0.519359
0.520112
0.520846
0.0272147
0.0277762
0.0283522
0.0289431
0.0295495
0.0301721
0.0308116
0.0314686
0.0321439
0.0328383
0.0335526
0.0342877
0.0350444
0.0358238
0.0366271
0.0374586
0.0383247
0.0392264
0.0401613
0.041128
0.0421266
0.043158
0.0442236
0.0453252
0.0464649
0.0476448
0.0488674
0.0501353
0.0514511
0.0528178
0.0542383
0.055716
0.0572543
0.0588569
0.0605278
0.0622712
0.0640918
0.0659945
0.0679845
0.0700677
0.0722501
0.0745385
0.0769402
0.0794629
0.0821153
0.0849064
0.0878464
0.0909461
0.0942174
0.0976731
0.101327
0.105195
0.109294
0.11364
0.118255
0.123159
0.128376
0.133931
0.13985
0.146164
0.152903
0.160102
0.167796
0.176024
0.184824
0.194237
0.204306
0.215069
0.226567
0.238837
0.251911
0.265839
0.280765
0.297088
0.315078
0.33444
0.354766
0.375753
0.396976
0.417872
0.437776
0.455996
0.471922
0.485144
0.495535
0.503257
0.508703
0.512381
0.514808
0.516431
0.517586
0.518498
0.519299
0.520054
0.520791
0.0271224
0.0276822
0.0282563
0.0288453
0.0294497
0.0300703
0.0307077
0.0313625
0.0320356
0.0327277
0.0334396
0.0341722
0.0349263
0.035703
0.0365035
0.0373314
0.0381929
0.0390901
0.0400212
0.0409844
0.0419796
0.0430076
0.0440696
0.0451674
0.0463031
0.0474789
0.0486972
0.0499604
0.0512714
0.052633
0.0540482
0.0555203
0.0570527
0.0586491
0.0603136
0.0620502
0.0638637
0.0657589
0.0677411
0.069816
0.0719897
0.074269
0.0766611
0.0791737
0.0818154
0.0845954
0.0875235
0.0906108
0.093869
0.097311
0.100951
0.104803
0.108886
0.113215
0.117812
0.122698
0.127895
0.133428
0.139326
0.145617
0.152333
0.159507
0.167176
0.175378
0.184151
0.193538
0.203579
0.214316
0.225788
0.238032
0.251084
0.264987
0.279872
0.296139
0.314093
0.333444
0.353776
0.374788
0.396059
0.417028
0.437029
0.455362
0.471409
0.484749
0.495243
0.503049
0.508555
0.512273
0.514726
0.516363
0.517525
0.518442
0.519245
0.520003
0.520742
0.0270416
0.0275998
0.0281723
0.0287596
0.0293624
0.0299812
0.0306167
0.0312697
0.0319408
0.0326308
0.0333406
0.034071
0.0348229
0.0355973
0.0363953
0.0372202
0.0380776
0.038971
0.0398987
0.0408588
0.041851
0.0428759
0.0439348
0.0450293
0.0461616
0.0473338
0.0485482
0.0498074
0.0511142
0.0524713
0.0538819
0.055349
0.0568763
0.0584674
0.0601261
0.0618569
0.0636641
0.0655527
0.067528
0.0695957
0.0717619
0.0740332
0.0764168
0.0789206
0.081553
0.0843232
0.0872411
0.0903175
0.0935643
0.0969942
0.100621
0.10446
0.108528
0.112843
0.117425
0.122293
0.127473
0.132989
0.138868
0.145139
0.151834
0.158987
0.166633
0.174812
0.183562
0.192925
0.202942
0.213655
0.225104
0.237327
0.250358
0.264239
0.279089
0.295307
0.313228
0.332569
0.352905
0.373939
0.395252
0.416285
0.436369
0.454802
0.470956
0.484399
0.494985
0.502864
0.508425
0.512179
0.514653
0.516303
0.517472
0.518393
0.519199
0.519959
0.5207
0.0269722
0.0275291
0.0281003
0.0286862
0.0292874
0.0299047
0.0305387
0.03119
0.0318595
0.0325478
0.0332558
0.0339843
0.0347343
0.0355067
0.0363026
0.0371248
0.0379789
0.0388688
0.0397937
0.0407512
0.0417408
0.042763
0.0438192
0.044911
0.0460403
0.0472093
0.0484205
0.0496763
0.0509794
0.0523327
0.0537393
0.0552022
0.0567251
0.0583115
0.0599655
0.0616911
0.063493
0.065376
0.0673454
0.0694069
0.0715666
0.073831
0.0762075
0.0787037
0.0813282
0.0840899
0.086999
0.0900661
0.093303
0.0967226
0.100339
0.104166
0.108222
0.112524
0.117092
0.121947
0.127112
0.132612
0.138474
0.144728
0.151406
0.15854
0.166168
0.174326
0.183056
0.192399
0.202395
0.213088
0.224518
0.236721
0.249734
0.263597
0.278415
0.294592
0.312484
0.331817
0.352156
0.373208
0.394556
0.415643
0.4358
0.454318
0.470564
0.484096
0.494762
0.502705
0.508312
0.512097
0.514591
0.516251
0.517427
0.51835
0.519159
0.519921
0.520663
0.0269144
0.0274702
0.0280402
0.0286249
0.029225
0.029841
0.0304736
0.0311236
0.0317917
0.0324785
0.033185
0.033912
0.0346604
0.0354311
0.0362253
0.0370453
0.0378965
0.0387837
0.0397062
0.0406614
0.0416489
0.042669
0.0437229
0.0448123
0.0459391
0.0471056
0.048314
0.0495669
0.0508671
0.0522172
0.0536204
0.0550799
0.0565991
0.0581817
0.0598316
0.061553
0.0633504
0.0652288
0.0671933
0.0692496
0.0714038
0.0736626
0.0760331
0.078523
0.0811408
0.0838955
0.0867972
0.0898565
0.0930853
0.0964962
0.100103
0.103921
0.107967
0.112259
0.116815
0.121658
0.126811
0.132298
0.138147
0.144387
0.151049
0.158168
0.165779
0.173922
0.182635
0.19196
0.20194
0.212615
0.224028
0.236216
0.249214
0.263061
0.277854
0.293995
0.311863
0.331188
0.35153
0.372596
0.393974
0.415106
0.435323
0.453912
0.470234
0.483842
0.494574
0.502571
0.508217
0.512029
0.514539
0.516208
0.517389
0.518315
0.519126
0.519889
0.520633
0.0268681
0.0274231
0.0279921
0.0285759
0.029175
0.02979
0.0304216
0.0310705
0.0317374
0.0324231
0.0331284
0.0338542
0.0346013
0.0353707
0.0361634
0.0369816
0.0378306
0.0387156
0.0396362
0.0405897
0.0415754
0.0425937
0.0436458
0.0447334
0.0458582
0.0470226
0.0482288
0.0494795
0.0507772
0.0521248
0.0535253
0.054982
0.0564983
0.0580778
0.0597244
0.0614424
0.0632363
0.0651109
0.0670715
0.0691237
0.0712736
0.0735278
0.0758935
0.0783783
0.0809908
0.08374
0.0866358
0.0896889
0.0929111
0.0963151
0.0999149
0.103725
0.107763
0.112046
0.116594
0.121427
0.12657
0.132047
0.137885
0.144113
0.150764
0.15787
0.165469
0.173598
0.182297
0.191609
0.201575
0.212237
0.223637
0.235812
0.248797
0.262631
0.277404
0.293517
0.311366
0.330684
0.351027
0.372106
0.393507
0.414674
0.434939
0.453585
0.469969
0.483637
0.494423
0.502463
0.508141
0.511974
0.514497
0.516174
0.517358
0.518287
0.519099
0.519863
0.520609
0.0268334
0.0273877
0.027956
0.0285391
0.0291374
0.0297517
0.0303825
0.0310306
0.0316967
0.0323816
0.033086
0.0338108
0.0345569
0.0353253
0.036117
0.0369339
0.0377812
0.0386645
0.0395836
0.0405358
0.0415202
0.0425373
0.043588
0.0446741
0.0457975
0.0469603
0.0481649
0.0494138
0.0507097
0.0520554
0.053454
0.0549086
0.0564226
0.0579998
0.059644
0.0613595
0.0631507
0.0650225
0.0669801
0.0690292
0.0711758
0.0734266
0.0757887
0.0782698
0.0808783
0.0836232
0.0865146
0.0895631
0.0927804
0.0961792
0.0997735
0.103578
0.10761
0.111887
0.116427
0.121254
0.126389
0.131858
0.137688
0.143908
0.150549
0.157646
0.165236
0.173355
0.182044
0.191345
0.201301
0.211953
0.223342
0.235508
0.248484
0.26231
0.27707
0.293165
0.310997
0.330307
0.35065
0.371737
0.393155
0.414349
0.434649
0.453339
0.469768
0.483482
0.494308
0.502381
0.508083
0.511932
0.514464
0.516147
0.517334
0.518265
0.519078
0.519843
0.520589
0.0268103
0.0273641
0.027932
0.0285146
0.0291124
0.0297262
0.0303565
0.031004
0.0316696
0.0323538
0.0330576
0.0337818
0.0345273
0.0352951
0.0360861
0.0369021
0.0377483
0.0386305
0.0395486
0.0404999
0.0414835
0.0424996
0.0435495
0.0446347
0.045757
0.0469188
0.0481223
0.0493701
0.0506647
0.0520092
0.0534064
0.0548596
0.0563722
0.0579478
0.0595904
0.0613042
0.0630936
0.0649635
0.0669192
0.0689662
0.0711107
0.0733592
0.0757188
0.0781974
0.0808032
0.0835454
0.0864338
0.0894791
0.0926931
0.0960885
0.0996792
0.10348
0.107508
0.11178
0.116317
0.121138
0.126268
0.131732
0.137556
0.143771
0.150406
0.157497
0.16508
0.173192
0.181875
0.191169
0.201118
0.211763
0.223146
0.235305
0.248275
0.262095
0.27685
0.292936
0.310753
0.330055
0.350399
0.371491
0.39292
0.414132
0.434456
0.453173
0.469634
0.483378
0.49423
0.502325
0.508043
0.511903
0.514442
0.516128
0.517317
0.518249
0.519063
0.519829
0.520576
0.0267987
0.0273523
0.02792
0.0285023
0.0290999
0.0297134
0.0303435
0.0309907
0.031656
0.03234
0.0330435
0.0337674
0.0345125
0.0352799
0.0360706
0.0368862
0.0377318
0.0386134
0.0395311
0.040482
0.0414651
0.0424808
0.0435302
0.0446149
0.0457368
0.046898
0.048101
0.0493482
0.0506422
0.051986
0.0533826
0.0548351
0.0563469
0.0579218
0.0595636
0.0612765
0.063065
0.064934
0.0668887
0.0689347
0.071078
0.0733254
0.0756839
0.0781612
0.0807656
0.0835064
0.0863933
0.0894371
0.0926495
0.0960432
0.099632
0.103431
0.107457
0.111727
0.116261
0.12108
0.126208
0.131669
0.137491
0.143702
0.150335
0.157423
0.165002
0.173111
0.181791
0.191081
0.201027
0.211668
0.223048
0.235204
0.248171
0.261988
0.276741
0.292821
0.310631
0.329929
0.350273
0.371368
0.392803
0.414024
0.434359
0.453091
0.469566
0.483325
0.494192
0.502297
0.508023
0.511888
0.51443
0.516118
0.517309
0.518241
0.519055
0.519822
0.520569
0.0267987
0.0273523
0.02792
0.0285023
0.0290999
0.0297134
0.0303435
0.0309907
0.031656
0.03234
0.0330435
0.0337674
0.0345125
0.0352799
0.0360706
0.0368862
0.0377318
0.0386135
0.0395311
0.040482
0.0414651
0.0424808
0.0435302
0.0446149
0.0457368
0.046898
0.048101
0.0493482
0.0506422
0.051986
0.0533826
0.0548351
0.0563469
0.0579218
0.0595636
0.0612765
0.063065
0.064934
0.0668887
0.0689347
0.071078
0.0733254
0.0756839
0.0781612
0.0807656
0.0835064
0.0863933
0.0894371
0.0926495
0.0960432
0.099632
0.103431
0.107457
0.111727
0.116261
0.12108
0.126208
0.131669
0.137491
0.143702
0.150335
0.157423
0.165002
0.173111
0.181791
0.191081
0.201027
0.211668
0.223048
0.235204
0.248171
0.261988
0.276741
0.292821
0.310631
0.329929
0.350273
0.371368
0.392803
0.414024
0.434359
0.453091
0.469566
0.483325
0.494192
0.502297
0.508023
0.511888
0.51443
0.516118
0.517309
0.518241
0.519055
0.519822
0.520569
0.0268103
0.0273641
0.027932
0.0285146
0.0291124
0.0297262
0.0303565
0.031004
0.0316696
0.0323538
0.0330576
0.0337818
0.0345273
0.0352951
0.0360861
0.0369021
0.0377483
0.0386305
0.0395486
0.0404999
0.0414835
0.0424996
0.0435495
0.0446347
0.045757
0.0469188
0.0481223
0.0493701
0.0506647
0.0520092
0.0534064
0.0548596
0.0563722
0.0579478
0.0595904
0.0613042
0.0630936
0.0649635
0.0669192
0.0689662
0.0711107
0.0733592
0.0757188
0.0781974
0.0808032
0.0835454
0.0864337
0.0894791
0.0926931
0.0960885
0.0996792
0.10348
0.107508
0.11178
0.116317
0.121138
0.126268
0.131732
0.137556
0.143771
0.150406
0.157497
0.16508
0.173192
0.181875
0.191169
0.201118
0.211763
0.223146
0.235305
0.248275
0.262095
0.27685
0.292936
0.310753
0.330055
0.350399
0.371491
0.39292
0.414132
0.434456
0.453173
0.469634
0.483378
0.49423
0.502325
0.508043
0.511903
0.514442
0.516128
0.517317
0.518249
0.519063
0.519829
0.520576
0.0268334
0.0273877
0.027956
0.0285391
0.0291374
0.0297517
0.0303825
0.0310306
0.0316967
0.0323816
0.033086
0.0338108
0.0345569
0.0353253
0.036117
0.0369339
0.0377812
0.0386646
0.0395837
0.0405358
0.0415202
0.0425373
0.043588
0.0446741
0.0457975
0.0469603
0.0481649
0.0494138
0.0507097
0.0520554
0.053454
0.0549086
0.0564226
0.0579998
0.059644
0.0613595
0.0631507
0.0650225
0.0669801
0.0690292
0.0711758
0.0734266
0.0757887
0.0782698
0.0808783
0.0836232
0.0865146
0.0895631
0.0927804
0.0961792
0.0997735
0.103578
0.10761
0.111887
0.116427
0.121254
0.126389
0.131858
0.137688
0.143908
0.150549
0.157646
0.165236
0.173355
0.182044
0.191345
0.201301
0.211953
0.223342
0.235508
0.248484
0.26231
0.27707
0.293165
0.310997
0.330307
0.35065
0.371737
0.393155
0.414349
0.434649
0.453339
0.469768
0.483482
0.494308
0.502381
0.508083
0.511932
0.514464
0.516147
0.517334
0.518265
0.519078
0.519843
0.520589
0.0268681
0.0274231
0.0279921
0.0285759
0.029175
0.02979
0.0304216
0.0310705
0.0317374
0.0324231
0.0331284
0.0338542
0.0346013
0.0353707
0.0361634
0.0369816
0.0378306
0.0387156
0.0396362
0.0405897
0.0415754
0.0425937
0.0436458
0.0447334
0.0458582
0.0470226
0.0482288
0.0494795
0.0507772
0.0521248
0.0535253
0.054982
0.0564983
0.0580778
0.0597244
0.0614424
0.0632363
0.0651109
0.0670715
0.0691237
0.0712736
0.0735278
0.0758935
0.0783783
0.0809908
0.08374
0.0866358
0.0896889
0.0929111
0.0963151
0.0999149
0.103725
0.107763
0.112046
0.116594
0.121427
0.12657
0.132047
0.137885
0.144113
0.150763
0.15787
0.165469
0.173598
0.182297
0.191609
0.201575
0.212237
0.223637
0.235812
0.248797
0.262631
0.277404
0.293517
0.311366
0.330684
0.351027
0.372106
0.393507
0.414674
0.434939
0.453585
0.469969
0.483637
0.494423
0.502463
0.508141
0.511974
0.514497
0.516174
0.517358
0.518287
0.519099
0.519863
0.520609
0.0269144
0.0274702
0.0280402
0.0286249
0.029225
0.029841
0.0304736
0.0311236
0.0317917
0.0324785
0.033185
0.033912
0.0346604
0.0354311
0.0362253
0.0370453
0.0378965
0.0387837
0.0397062
0.0406615
0.0416489
0.042669
0.0437229
0.0448123
0.0459391
0.0471056
0.048314
0.0495669
0.0508671
0.0522172
0.0536204
0.0550799
0.0565991
0.0581817
0.0598316
0.061553
0.0633504
0.0652288
0.0671933
0.0692496
0.0714038
0.0736626
0.0760331
0.078523
0.0811408
0.0838955
0.0867972
0.0898565
0.0930853
0.0964962
0.100103
0.103921
0.107967
0.112259
0.116815
0.121658
0.126811
0.132298
0.138147
0.144387
0.151049
0.158168
0.165779
0.173922
0.182635
0.19196
0.20194
0.212615
0.224028
0.236216
0.249214
0.263061
0.277854
0.293995
0.311863
0.331188
0.35153
0.372596
0.393974
0.415106
0.435323
0.453912
0.470234
0.483842
0.494574
0.502571
0.508217
0.512029
0.514539
0.516208
0.517389
0.518315
0.519126
0.519889
0.520633
0.0269722
0.0275291
0.0281003
0.0286862
0.0292874
0.0299047
0.0305387
0.03119
0.0318595
0.0325478
0.0332558
0.0339843
0.0347343
0.0355067
0.0363026
0.0371248
0.0379789
0.0388689
0.0397937
0.0407512
0.0417408
0.042763
0.0438192
0.044911
0.0460403
0.0472093
0.0484205
0.0496763
0.0509794
0.0523327
0.0537393
0.0552023
0.0567251
0.0583116
0.0599655
0.0616911
0.063493
0.065376
0.0673454
0.0694069
0.0715666
0.073831
0.0762075
0.0787037
0.0813282
0.0840899
0.086999
0.0900661
0.093303
0.0967226
0.100339
0.104166
0.108222
0.112524
0.117092
0.121947
0.127112
0.132612
0.138474
0.144728
0.151406
0.15854
0.166168
0.174326
0.183056
0.192399
0.202395
0.213088
0.224518
0.236721
0.249734
0.263597
0.278415
0.294592
0.312484
0.331817
0.352156
0.373208
0.394556
0.415643
0.4358
0.454318
0.470564
0.484096
0.494762
0.502705
0.508312
0.512097
0.514591
0.516251
0.517427
0.51835
0.519159
0.519921
0.520663
0.0270416
0.0275998
0.0281723
0.0287596
0.0293624
0.0299812
0.0306167
0.0312697
0.0319408
0.0326308
0.0333406
0.034071
0.0348229
0.0355973
0.0363953
0.0372202
0.0380776
0.038971
0.0398987
0.0408588
0.041851
0.0428759
0.0439348
0.0450293
0.0461616
0.0473338
0.0485482
0.0498074
0.0511142
0.0524713
0.0538819