/*--------------------------------*- C++ -*----------------------------------*\
  =========                 |
  \\      /  F ield         | OpenFOAM: The Open Source CFD Toolbox
   \\    /   O peration     | Website:  https://openfoam.org
    \\  /    A nd           | Version:  7
     \\/     M anipulation  |
\*---------------------------------------------------------------------------*/
FoamFile
{
    version     2.0;
    format      ascii;
    class       volScalarField;
    location    "52000";
    object      omega;
}
// * * * * * * * * * * * * * * * * * * * * * * * * * * * * * * * * * * * * * //

dimensions      [0 0 -1 0 0 0 0];

internalField   nonuniform List<scalar> 
4850
(
0.0342235
0.034203
0.0342631
0.0342426
0.0342227
0.034303
0.0342824
0.0342624
0.0342431
0.0342244
0.0343431
0.0343225
0.0343024
0.034283
0.0342642
0.0342461
0.0343835
0.0343627
0.0343426
0.0343231
0.0343042
0.0342861
0.0342686
0.034424
0.0344032
0.034383
0.0343634
0.0343445
0.0343263
0.0343088
0.034292
0.034276
0.0344646
0.0344438
0.0344236
0.034404
0.034385
0.0343667
0.0343492
0.0343323
0.0343163
0.034301
0.0345055
0.0344846
0.0344643
0.0344447
0.0344257
0.0344074
0.0343898
0.0343729
0.0343568
0.0343415
0.034327
0.0343133
0.0343005
0.0342886
0.0345464
0.0345255
0.0345053
0.0344856
0.0344666
0.0344482
0.0344306
0.0344137
0.0343975
0.0343822
0.0343676
0.034354
0.0343411
0.0343292
0.0343183
0.0343082
0.0342991
0.034291
0.0345875
0.0345666
0.0345463
0.0345266
0.0345076
0.0344892
0.0344715
0.0344546
0.0344384
0.0344231
0.0344085
0.0343948
0.034382
0.03437
0.034359
0.034349
0.0343399
0.0343317
0.0343246
0.0343185
0.0346286
0.0346077
0.0345875
0.0345678
0.0345487
0.0345303
0.0345126
0.0344957
0.0344795
0.0344641
0.0344496
0.0344358
0.034423
0.0344111
0.0344
0.03439
0.0343808
0.0343727
0.0343656
0.0343595
0.0343544
0.0343503
0.0343473
0.0343453
0.0346699
0.034649
0.0346287
0.034609
0.03459
0.0345716
0.0345539
0.0345369
0.0345208
0.0345054
0.0344908
0.0344771
0.0344642
0.0344522
0.0344412
0.0344311
0.034422
0.0344139
0.0344067
0.0344006
0.0343955
0.0343915
0.0343884
0.0343864
0.0343855
0.0343856
0.0343868
0.034389
0.0343923
0.0347112
0.0346903
0.03467
0.0346504
0.0346313
0.034613
0.0345953
0.0345783
0.0345621
0.0345467
0.0345321
0.0345184
0.0345056
0.0344936
0.0344826
0.0344725
0.0344634
0.0344552
0.0344481
0.034442
0.0344369
0.0344328
0.0344298
0.0344278
0.0344268
0.034427
0.0344281
0.0344304
0.0344336
0.034438
0.0344433
0.0344497
0.0347525
0.0347317
0.0347115
0.0346918
0.0346728
0.0346544
0.0346367
0.0346198
0.0346036
0.0345882
0.0345736
0.0345599
0.0345471
0.0345351
0.0345241
0.034514
0.0345049
0.0344967
0.0344896
0.0344835
0.0344784
0.0344743
0.0344713
0.0344693
0.0344684
0.0344685
0.0344697
0.0344719
0.0344752
0.0344795
0.0344849
0.0344913
0.0344987
0.0345071
0.0347939
0.0347731
0.0347529
0.0347333
0.0347143
0.0346959
0.0346783
0.0346614
0.0346452
0.0346298
0.0346153
0.0346015
0.0345887
0.0345768
0.0345657
0.0345557
0.0345465
0.0345384
0.0345313
0.0345252
0.03452
0.034516
0.0345129
0.034511
0.03451
0.0345102
0.0345113
0.0345136
0.0345169
0.0345212
0.0345266
0.034533
0.0345404
0.0345488
0.0348353
0.0348146
0.0347944
0.0347748
0.0347559
0.0347375
0.0347199
0.034703
0.0346869
0.0346715
0.034657
0.0346433
0.0346304
0.0346185
0.0346075
0.0345974
0.0345883
0.0345802
0.0345731
0.034567
0.0345619
0.0345578
0.0345548
0.0345528
0.0345519
0.034552
0.0345532
0.0345554
0.0345587
0.034563
0.0345684
0.0345748
0.0345822
0.0345907
0.0348768
0.0348561
0.0348359
0.0348164
0.0347975
0.0347792
0.0347616
0.0347447
0.0347286
0.0347133
0.0346988
0.0346851
0.0346723
0.0346604
0.0346494
0.0346393
0.0346302
0.0346221
0.034615
0.0346089
0.0346038
0.0345997
0.0345967
0.0345947
0.0345938
0.0345939
0.0345951
0.0345973
0.0346006
0.034605
0.0346103
0.0346168
0.0346242
0.0346326
0.0349182
0.0348975
0.0348775
0.034858
0.0348391
0.0348209
0.0348033
0.0347865
0.0347704
0.0347551
0.0347406
0.034727
0.0347142
0.0347023
0.0346913
0.0346813
0.0346722
0.0346641
0.034657
0.0346509
0.0346458
0.0346418
0.0346388
0.0346368
0.0346359
0.034636
0.0346372
0.0346394
0.0346427
0.034647
0.0346524
0.0346588
0.0346662
0.0346747
0.0349596
0.034939
0.034919
0.0348996
0.0348808
0.0348626
0.0348451
0.0348283
0.0348122
0.034797
0.0347825
0.0347689
0.0347562
0.0347443
0.0347333
0.0347233
0.0347143
0.0347062
0.0346991
0.034693
0.034688
0.0346839
0.0346809
0.0346789
0.034678
0.0346781
0.0346793
0.0346815
0.0346848
0.0346891
0.0346945
0.0347009
0.0347084
0.0347168
0.0350009
0.0349805
0.0349606
0.0349412
0.0349224
0.0349043
0.0348868
0.0348701
0.0348541
0.0348389
0.0348245
0.0348109
0.0347982
0.0347863
0.0347754
0.0347654
0.0347564
0.0347484
0.0347413
0.0347352
0.0347302
0.0347261
0.0347231
0.0347212
0.0347202
0.0347204
0.0347215
0.0347238
0.034727
0.0347313
0.0347367
0.0347431
0.0347505
0.034759
0.0350422
0.0350219
0.0350021
0.0349828
0.0349641
0.034946
0.0349286
0.0349119
0.034896
0.0348808
0.0348664
0.0348529
0.0348402
0.0348284
0.0348176
0.0348076
0.0347986
0.0347906
0.0347835
0.0347775
0.0347724
0.0347684
0.0347654
0.0347634
0.0347625
0.0347626
0.0347638
0.034766
0.0347693
0.0347736
0.034779
0.0347854
0.0347928
0.0348012
0.0350835
0.0350633
0.0350435
0.0350243
0.0350057
0.0349877
0.0349704
0.0349537
0.0349378
0.0349227
0.0349084
0.0348949
0.0348823
0.0348706
0.0348597
0.0348498
0.0348408
0.0348328
0.0348258
0.0348198
0.0348147
0.0348107
0.0348077
0.0348058
0.0348049
0.034805
0.0348061
0.0348084
0.0348116
0.0348159
0.0348213
0.0348276
0.034835
0.0348434
0.0351247
0.0351046
0.035085
0.0350658
0.0350473
0.0350294
0.0350121
0.0349955
0.0349797
0.0349647
0.0349504
0.034937
0.0349244
0.0349127
0.0349019
0.034892
0.0348831
0.0348751
0.0348681
0.0348621
0.0348571
0.0348531
0.0348501
0.0348481
0.0348472
0.0348474
0.0348485
0.0348507
0.034854
0.0348582
0.0348636
0.0348699
0.0348773
0.0348857
0.0348951
0.035166
0.0351459
0.0351263
0.0351073
0.0350888
0.035071
0.0350538
0.0350373
0.0350215
0.0350066
0.0349924
0.034979
0.0349665
0.0349548
0.034944
0.0349342
0.0349253
0.0349174
0.0349104
0.0349044
0.0348994
0.0348954
0.0348925
0.0348905
0.0348896
0.0348897
0.0348909
0.0348931
0.0348963
0.0349006
0.0349059
0.0349122
0.0349196
0.034928
0.0349373
0.0352076
0.0351873
0.0351677
0.0351487
0.0351303
0.0351125
0.0350954
0.035079
0.0350634
0.0350484
0.0350343
0.035021
0.0350085
0.0349969
0.0349862
0.0349764
0.0349676
0.0349596
0.0349527
0.0349467
0.0349418
0.0349378
0.0349349
0.0349329
0.034932
0.0349321
0.0349333
0.0349355
0.0349387
0.0349429
0.0349482
0.0349546
0.0349619
0.0349703
0.0349796
0.0352496
0.0352291
0.0352093
0.0351902
0.0351718
0.0351541
0.035137
0.0351207
0.0351051
0.0350903
0.0350762
0.035063
0.0350505
0.035039
0.0350283
0.0350186
0.0350098
0.0350019
0.034995
0.0349891
0.0349841
0.0349802
0.0349773
0.0349753
0.0349744
0.0349745
0.0349757
0.0349778
0.034981
0.0349853
0.0349905
0.0349968
0.0350042
0.0350125
0.0352921
0.0352714
0.0352514
0.0352321
0.0352136
0.0351958
0.0351787
0.0351624
0.0351468
0.035132
0.0351181
0.0351049
0.0350925
0.0350811
0.0350705
0.0350608
0.035052
0.0350442
0.0350373
0.0350314
0.0350265
0.0350226
0.0350196
0.0350177
0.0350168
0.0350169
0.0350181
0.0350202
0.0350234
0.0350276
0.0350328
0.0350391
0.0350464
0.0350548
0.0353353
0.0353142
0.035294
0.0352745
0.0352558
0.0352378
0.0352207
0.0352043
0.0351886
0.0351739
0.0351599
0.0351468
0.0351345
0.0351231
0.0351125
0.0351029
0.0350942
0.0350864
0.0350795
0.0350737
0.0350688
0.0350649
0.035062
0.0350601
0.0350592
0.0350593
0.0350604
0.0350625
0.0350657
0.0350699
0.0350751
0.0350813
0.0350886
0.035097
0.0353791
0.0353578
0.0353372
0.0353175
0.0352986
0.0352804
0.0352631
0.0352465
0.0352308
0.035216
0.0352019
0.0351888
0.0351765
0.0351651
0.0351546
0.0351449
0.0351363
0.0351285
0.0351217
0.0351159
0.035111
0.0351072
0.0351043
0.0351024
0.0351015
0.0351016
0.0351027
0.0351048
0.035108
0.0351121
0.0351173
0.0351235
0.0351309
0.0351392
0.0354236
0.035402
0.0353812
0.0353612
0.035342
0.0353236
0.0353061
0.0352894
0.0352735
0.0352585
0.0352444
0.0352311
0.0352187
0.0352073
0.0351967
0.0351871
0.0351784
0.0351707
0.0351639
0.0351581
0.0351533
0.0351494
0.0351465
0.0351446
0.0351437
0.0351438
0.0351449
0.0351471
0.0351502
0.0351544
0.0351596
0.0351659
0.0351734
0.0354688
0.0354469
0.0354258
0.0354055
0.0353861
0.0353675
0.0353498
0.0353328
0.0353168
0.0353016
0.0352873
0.035274
0.0352615
0.0352499
0.0352393
0.0352296
0.0352209
0.0352131
0.0352063
0.0352005
0.0351956
0.0351917
0.0351889
0.035187
0.0351861
0.0351862
0.0351873
0.0351894
0.0351926
0.0351968
0.0352021
0.0352086
0.0352162
0.0355147
0.0354925
0.0354712
0.0354506
0.0354309
0.0354121
0.0353941
0.035377
0.0353607
0.0353454
0.0353309
0.0353174
0.0353048
0.0352931
0.0352824
0.0352726
0.0352638
0.035256
0.0352491
0.0352432
0.0352383
0.0352344
0.0352315
0.0352297
0.0352288
0.0352289
0.03523
0.0352322
0.0352354
0.0352397
0.0352451
0.0352516
0.0355614
0.0355389
0.0355173
0.0354964
0.0354765
0.0354574
0.0354391
0.0354218
0.0354054
0.0353898
0.0353752
0.0353615
0.0353487
0.0353369
0.0353261
0.0353162
0.0353073
0.0352994
0.0352924
0.0352865
0.0352816
0.0352776
0.0352747
0.0352728
0.0352719
0.0352721
0.0352732
0.0352754
0.0352787
0.0352831
0.0352885
0.0352951
0.0356089
0.0355861
0.0355642
0.035543
0.0355228
0.0355034
0.0354849
0.0354674
0.0354507
0.035435
0.0354202
0.0354063
0.0353934
0.0353814
0.0353704
0.0353604
0.0353514
0.0353434
0.0353364
0.0353304
0.0353254
0.0353214
0.0353185
0.0353166
0.0353157
0.0353159
0.035317
0.0353193
0.0353226
0.035327
0.0353326
0.0353391
0.0356572
0.0356341
0.0356118
0.0355904
0.0355699
0.0355502
0.0355315
0.0355137
0.0354968
0.0354809
0.0354659
0.0354518
0.0354387
0.0354266
0.0354155
0.0354054
0.0353962
0.0353881
0.035381
0.035375
0.0353699
0.0353659
0.0353629
0.035361
0.0353601
0.0353603
0.0353615
0.0353638
0.0353672
0.0353716
0.0353771
0.0353837
0.0357063
0.0356828
0.0356602
0.0356385
0.0356177
0.0355978
0.0355788
0.0355608
0.0355437
0.0355275
0.0355123
0.0354981
0.0354848
0.0354725
0.0354613
0.035451
0.0354418
0.0354335
0.0354264
0.0354202
0.0354151
0.0354111
0.035408
0.0354061
0.0354052
0.0354054
0.0354066
0.035409
0.0354124
0.0354168
0.0354224
0.0354289
0.0357561
0.0357324
0.0357095
0.0356875
0.0356664
0.0356462
0.0356269
0.0356086
0.0355913
0.0355749
0.0355595
0.0355451
0.0355316
0.0355192
0.0355078
0.0354974
0.035488
0.0354797
0.0354724
0.0354662
0.035461
0.0354569
0.0354539
0.0354519
0.035451
0.0354512
0.0354525
0.0354548
0.0354582
0.0354627
0.0354682
0.0354748
0.0358069
0.0357828
0.0357596
0.0357373
0.0357158
0.0356954
0.0356758
0.0356573
0.0356397
0.0356231
0.0356075
0.0355928
0.0355792
0.0355666
0.035555
0.0355445
0.035535
0.0355266
0.0355192
0.0355129
0.0355077
0.0355035
0.0355004
0.0354985
0.0354976
0.0354977
0.035499
0.0355014
0.0355048
0.0355093
0.0355148
0.0355214
0.0358584
0.035834
0.0358105
0.0357879
0.0357661
0.0357454
0.0357256
0.0357068
0.0356889
0.0356721
0.0356562
0.0356414
0.0356276
0.0356148
0.0356031
0.0355924
0.0355828
0.0355742
0.0355668
0.0355604
0.0355551
0.0355509
0.0355478
0.0355457
0.0355448
0.035545
0.0355463
0.0355487
0.0355521
0.0355566
0.0355621
0.0355687
0.0359109
0.0358861
0.0358623
0.0358393
0.0358173
0.0357962
0.0357761
0.035757
0.035739
0.0357219
0.0357058
0.0356908
0.0356768
0.0356638
0.0356519
0.0356411
0.0356313
0.0356227
0.0356151
0.0356086
0.0356033
0.035599
0.0355958
0.0355938
0.0355929
0.0355931
0.0355943
0.0355967
0.0356002
0.0356047
0.0356102
0.0356169
0.0359642
0.0359391
0.0359149
0.0358916
0.0358693
0.0358479
0.0358276
0.0358082
0.0357898
0.0357725
0.0357562
0.035741
0.0357268
0.0357136
0.0357016
0.0356906
0.0356807
0.0356719
0.0356642
0.0356577
0.0356522
0.0356479
0.0356447
0.0356426
0.0356417
0.0356419
0.0356432
0.0356456
0.035649
0.0356535
0.0356591
0.0356659
0.0360185
0.035993
0.0359685
0.0359449
0.0359222
0.0359005
0.0358798
0.0358602
0.0358416
0.035824
0.0358075
0.035792
0.0357776
0.0357643
0.035752
0.0357409
0.0357308
0.0357219
0.0357142
0.0357075
0.035702
0.0356976
0.0356944
0.0356923
0.0356913
0.0356915
0.0356928
0.0356952
0.0356987
0.0357033
0.0357089
0.0357159
0.0360737
0.0360479
0.036023
0.035999
0.035976
0.035954
0.035933
0.0359131
0.0358942
0.0358763
0.0358596
0.0358439
0.0358293
0.0358157
0.0358033
0.035792
0.0357818
0.0357728
0.0357649
0.0357582
0.0357526
0.0357481
0.0357448
0.0357427
0.0357417
0.0357419
0.0357432
0.0357457
0.0357493
0.0357539
0.0357597
0.0357669
0.0361298
0.0361037
0.0360784
0.0360541
0.0360307
0.0360084
0.0359871
0.0359669
0.0359477
0.0359296
0.0359126
0.0358966
0.0358818
0.0358681
0.0358555
0.035844
0.0358337
0.0358245
0.0358165
0.0358097
0.035804
0.0357995
0.0357962
0.035794
0.035793
0.0357932
0.0357945
0.035797
0.0358007
0.0358055
0.0358116
0.0358189
0.036187
0.0361604
0.0361348
0.0361101
0.0360864
0.0360637
0.0360421
0.0360216
0.0360021
0.0359837
0.0359664
0.0359503
0.0359352
0.0359213
0.0359085
0.0358968
0.0358864
0.0358771
0.0358689
0.035862
0.0358563
0.0358517
0.0358483
0.0358461
0.0358451
0.0358453
0.0358467
0.0358493
0.0358531
0.0358581
0.0358645
0.0358721
0.036245
0.0362181
0.0361921
0.0361671
0.0361431
0.0361201
0.0360981
0.0360772
0.0360575
0.0360388
0.0360213
0.0360048
0.0359895
0.0359754
0.0359624
0.0359506
0.03594
0.0359305
0.0359223
0.0359152
0.0359094
0.0359048
0.0359013
0.0358991
0.0358981
0.0358983
0.0358998
0.0359025
0.0359065
0.0359117
0.0359184
0.0359261
0.0363041
0.0362768
0.0362505
0.0362251
0.0362007
0.0361773
0.0361551
0.0361339
0.0361138
0.0360948
0.036077
0.0360604
0.0360448
0.0360305
0.0360173
0.0360053
0.0359945
0.0359849
0.0359765
0.0359694
0.0359634
0.0359587
0.0359553
0.035953
0.035952
0.0359523
0.0359538
0.0359566
0.0359607
0.0359663
0.0359733
0.036364
0.0363364
0.0363097
0.036284
0.0362593
0.0362356
0.036213
0.0361915
0.0361711
0.0361519
0.0361338
0.0361168
0.036101
0.0360865
0.0360731
0.0360609
0.0360499
0.0360402
0.0360317
0.0360244
0.0360184
0.0360136
0.0360101
0.0360079
0.0360069
0.0360071
0.0360087
0.0360116
0.036016
0.0360217
0.036029
0.0364248
0.0363969
0.0363699
0.0363438
0.0363188
0.0362948
0.0362718
0.03625
0.0362294
0.0362098
0.0361915
0.0361743
0.0361582
0.0361434
0.0361298
0.0361174
0.0361063
0.0360964
0.0360878
0.0360804
0.0360743
0.0360695
0.0360659
0.0360636
0.0360626
0.0360629
0.0360646
0.0360676
0.0360721
0.036078
0.0364865
0.0364583
0.036431
0.0364046
0.0363792
0.0363549
0.0363316
0.0363095
0.0362886
0.0362688
0.0362501
0.0362327
0.0362164
0.0362013
0.0361875
0.0361749
0.0361636
0.0361536
0.0361448
0.0361373
0.0361312
0.0361263
0.0361227
0.0361203
0.0361194
0.0361197
0.0361214
0.0361245
0.0361291
0.0361351
0.0365492
0.0365206
0.036493
0.0364662
0.0364405
0.0364159
0.0363924
0.03637
0.0363487
0.0363286
0.0363097
0.036292
0.0362755
0.0362602
0.0362462
0.0362334
0.0362219
0.0362118
0.0362029
0.0361953
0.036189
0.036184
0.0361804
0.036178
0.0361771
0.0361774
0.0361792
0.0361824
0.036187
0.036193
0.0366129
0.0365839
0.0365559
0.0365288
0.0365028
0.0364778
0.036454
0.0364313
0.0364097
0.0363894
0.0363702
0.0363523
0.0363356
0.0363201
0.0363058
0.0362929
0.0362812
0.0362709
0.0362619
0.0362542
0.0362478
0.0362427
0.036239
0.0362367
0.0362357
0.0362361
0.0362379
0.0362412
0.0362458
0.0362517
0.0366777
0.0366483
0.0366198
0.0365923
0.0365659
0.0365406
0.0365165
0.0364935
0.0364717
0.036451
0.0364316
0.0364135
0.0363965
0.0363808
0.0363664
0.0363532
0.0363414
0.0363309
0.0363218
0.036314
0.0363075
0.0363024
0.0362987
0.0362963
0.0362953
0.0362957
0.0362976
0.0363008
0.0363055
0.0363113
0.0367439
0.0367139
0.036685
0.036657
0.0366302
0.0366045
0.03658
0.0365566
0.0365345
0.0365136
0.036494
0.0364755
0.0364583
0.0364424
0.0364278
0.0364145
0.0364025
0.0363919
0.0363826
0.0363747
0.0363682
0.036363
0.0363592
0.0363568
0.0363558
0.0363563
0.0363581
0.0363614
0.036366
0.0363717
0.0368118
0.0367812
0.0367516
0.036723
0.0366957
0.0366695
0.0366446
0.0366209
0.0365984
0.0365772
0.0365572
0.0365385
0.0365211
0.0365049
0.0364901
0.0364766
0.0364645
0.0364537
0.0364443
0.0364363
0.0364297
0.0364245
0.0364206
0.0364182
0.0364172
0.0364177
0.0364195
0.0364228
0.0364273
0.0364331
0.0368817
0.0368503
0.0368199
0.0367907
0.0367627
0.0367359
0.0367105
0.0366863
0.0366634
0.0366418
0.0366215
0.0366025
0.0365848
0.0365684
0.0365533
0.0365397
0.0365273
0.0365164
0.0365069
0.0364988
0.0364921
0.0364868
0.0364829
0.0364805
0.0364795
0.0364799
0.0364818
0.036485
0.0364895
0.0364953
0.0369537
0.0369214
0.0368902
0.0368602
0.0368315
0.036804
0.0367779
0.0367532
0.0367298
0.0367077
0.036687
0.0366676
0.0366496
0.0366329
0.0366176
0.0366037
0.0365912
0.0365801
0.0365704
0.0365622
0.0365554
0.0365501
0.0365461
0.0365437
0.0365426
0.036543
0.0365449
0.0365481
0.0365526
0.0365584
0.0370278
0.0369948
0.0369628
0.0369319
0.0369023
0.0368741
0.0368473
0.0368219
0.0367978
0.0367752
0.036754
0.0367342
0.0367157
0.0366987
0.036683
0.0366688
0.0366561
0.0366448
0.036635
0.0366266
0.0366197
0.0366143
0.0366103
0.0366078
0.0366067
0.0366071
0.036609
0.0366122
0.0366167
0.0366225
0.0371036
0.0370701
0.0370374
0.0370057
0.0369754
0.0369463
0.0369187
0.0368925
0.0368678
0.0368446
0.0368228
0.0368024
0.0367835
0.0367659
0.0367499
0.0367353
0.0367223
0.0367107
0.0367007
0.0366922
0.0366852
0.0366797
0.0366756
0.036673
0.036672
0.0366723
0.0366742
0.0366774
0.036682
0.0366878
0.0371803
0.0371467
0.0371136
0.0370815
0.0370504
0.0370207
0.0369923
0.0369654
0.0369399
0.036916
0.0368935
0.0368725
0.036853
0.036835
0.0368185
0.0368035
0.0367901
0.0367783
0.036768
0.0367593
0.0367521
0.0367465
0.0367423
0.0367397
0.0367386
0.0367389
0.0367407
0.036744
0.0367486
0.0367546
0.0372567
0.0372235
0.0371906
0.0371583
0.037127
0.0370968
0.0370679
0.0370403
0.0370142
0.0369896
0.0369664
0.0369448
0.0369248
0.0369062
0.0368891
0.0368737
0.0368598
0.0368477
0.0368371
0.0368281
0.0368208
0.036815
0.0368107
0.036808
0.0368068
0.0368072
0.036809
0.0368123
0.036817
0.0368231
0.0373312
0.037299
0.0372669
0.0372351
0.037204
0.0371738
0.0371446
0.0371167
0.0370902
0.0370651
0.0370414
0.0370193
0.0369987
0.0369795
0.036962
0.0369461
0.0369318
0.0369193
0.0369084
0.0368991
0.0368915
0.0368855
0.0368811
0.0368783
0.0368771
0.0368774
0.0368793
0.0368826
0.0368874
0.0368937
0.0374026
0.0373718
0.037341
0.0373103
0.03728
0.0372504
0.0372216
0.0371938
0.0371672
0.0371419
0.037118
0.0370955
0.0370745
0.037055
0.037037
0.0370208
0.0370061
0.0369932
0.036982
0.0369724
0.0369646
0.0369584
0.0369538
0.0369509
0.0369496
0.0369499
0.0369518
0.0369552
0.0369601
0.0369666
0.0374701
0.0374409
0.0374117
0.0373825
0.0373536
0.0373251
0.0372972
0.03727
0.0372439
0.0372189
0.0371951
0.0371727
0.0371516
0.0371321
0.0371139
0.0370975
0.0370826
0.0370694
0.0370579
0.037048
0.0370399
0.0370335
0.0370288
0.0370258
0.0370244
0.0370247
0.0370265
0.03703
0.037035
0.0370416
0.0375342
0.0375061
0.0374784
0.0374508
0.0374235
0.0373965
0.03737
0.0373441
0.0373189
0.0372947
0.0372716
0.0372496
0.0372289
0.0372097
0.0371918
0.0371754
0.0371605
0.0371473
0.0371356
0.0371255
0.0371172
0.0371106
0.0371057
0.0371026
0.0371012
0.0371014
0.0371033
0.0371068
0.0371118
0.0371185
0.0375969
0.0375688
0.0375417
0.0375153
0.0374894
0.037464
0.0374391
0.0374147
0.0373909
0.0373679
0.0373458
0.0373248
0.037305
0.0372864
0.0372692
0.0372533
0.0372387
0.0372256
0.037214
0.0372039
0.0371954
0.0371886
0.0371837
0.0371805
0.0371791
0.0371793
0.0371812
0.0371846
0.0371896
0.0371963
0.0376621
0.037632
0.0376041
0.0375778
0.0375525
0.0375282
0.0375045
0.0374815
0.0374591
0.0374375
0.0374168
0.037397
0.0373783
0.0373608
0.0373447
0.0373296
0.0373156
0.037303
0.0372917
0.0372817
0.0372731
0.0372664
0.0372615
0.0372583
0.0372569
0.0372571
0.0372589
0.0372622
0.0372671
0.0372736
0.0377368
0.0377013
0.0376699
0.0376416
0.0376154
0.037591
0.0375677
0.0375454
0.0375241
0.0375036
0.0374841
0.0374656
0.0374481
0.0374318
0.0374169
0.0374028
0.0373896
0.0373776
0.0373668
0.0373572
0.0373487
0.0373422
0.0373374
0.0373344
0.0373329
0.0373331
0.0373348
0.037338
0.0373426
0.0373488
0.037833
0.0377861
0.0377466
0.0377128
0.0376832
0.0376565
0.037632
0.0376092
0.0375878
0.0375677
0.0375488
0.037531
0.0375144
0.037499
0.0374852
0.0374719
0.0374595
0.0374482
0.037438
0.037429
0.0374208
0.0374146
0.03741
0.0374071
0.0374057
0.0374058
0.0374074
0.0374104
0.0374148
0.0374206
0.0379731
0.0379036
0.0378477
0.0378023
0.0377643
0.0377317
0.0377031
0.0376774
0.0376541
0.0376328
0.0376133
0.0375954
0.0375788
0.0375637
0.0375501
0.0375373
0.0375254
0.0375146
0.0375049
0.0374964
0.0374888
0.0374829
0.0374785
0.0374757
0.0374744
0.0374745
0.037476
0.0374788
0.0374829
0.0374884
0.0379988
0.0379298
0.0378745
0.0378292
0.0377911
0.0377584
0.03773
0.037705
0.0376828
0.0376629
0.037645
0.0376289
0.0375535
0.0375478
0.0375436
0.0375408
0.0375395
0.0375396
0.037541
0.0375437
0.0375477
0.0375531
0.033773
0.0337691
0.0337662
0.0337642
0.0337632
0.0337631
0.033764
0.0337659
0.0337687
0.0337725
0.0338134
0.0338086
0.0338046
0.0338017
0.0337997
0.0337986
0.0337986
0.0337995
0.0338014
0.0338042
0.0338081
0.0338129
0.0338186
0.0338252
0.0338328
0.0338413
0.0338508
0.0338611
0.0338723
0.0338843
0.0338972
0.0338624
0.0338555
0.0338496
0.0338447
0.0338407
0.0338377
0.0338357
0.0338347
0.0338346
0.0338355
0.0338374
0.0338403
0.0338442
0.033849
0.0338548
0.0338615
0.0338692
0.0338778
0.0338873
0.0338978
0.0339091
0.0339212
0.0339343
0.0339481
0.0339628
0.0339782
0.0339944
0.0339255
0.0339158
0.033907
0.0338992
0.0338923
0.0338863
0.0338814
0.0338774
0.0338743
0.0338723
0.0338712
0.0338712
0.0338721
0.033874
0.033877
0.0338809
0.0338857
0.0338916
0.0338984
0.0339061
0.0339148
0.0339244
0.0339349
0.0339463
0.0339586
0.0339717
0.0339857
0.0340005
0.034016
0.0340324
0.0340494
0.0340672
0.0340856
0.0339853
0.0339737
0.033963
0.0339533
0.0339444
0.0339365
0.0339295
0.0339235
0.0339185
0.0339145
0.0339114
0.0339094
0.0339083
0.0339083
0.0339092
0.0339111
0.0339141
0.033918
0.0339229
0.0339288
0.0339357
0.0339435
0.0339523
0.0339619
0.0339725
0.033984
0.0339964
0.0340097
0.0340237
0.0340386
0.0340543
0.0340707
0.0340879
0.0341058
0.0341244
0.0341436
0.0341635
0.034184
0.0340494
0.034036
0.0340235
0.0340118
0.034001
0.0339912
0.0339822
0.0339743
0.0339673
0.0339612
0.0339561
0.0339521
0.033949
0.0339469
0.0339459
0.0339458
0.0339467
0.0339487
0.0339517
0.0339556
0.0339606
0.0339665
0.0339734
0.0339813
0.0339901
0.0339999
0.0340106
0.0340222
0.0340346
0.034048
0.0340622
0.0340771
0.0340929
0.0341095
0.0341268
0.0341448
0.0341635
0.0341828
0.0342028
0.0342234
0.0341025
0.0340882
0.0340747
0.034062
0.0340503
0.0340394
0.0340295
0.0340205
0.0340125
0.0340054
0.0339993
0.0339942
0.0339901
0.033987
0.0339849
0.0339838
0.0339838
0.0339847
0.0339867
0.0339897
0.0339937
0.0339987
0.0340047
0.0340116
0.0340196
0.0340284
0.0340383
0.034049
0.0340607
0.0340733
0.0340867
0.0341009
0.034116
0.0341319
0.0341485
0.0341659
0.034184
0.0342028
0.0342223
0.0342423
0.034263
0.0341569
0.0341417
0.0341272
0.0341136
0.0341009
0.0340891
0.0340782
0.0340682
0.0340592
0.0340511
0.034044
0.0340378
0.0340327
0.0340286
0.0340254
0.0340233
0.0340223
0.0340222
0.0340232
0.0340251
0.0340281
0.0340322
0.0340372
0.0340432
0.0340502
0.0340582
0.0340671
0.034077
0.0340879
0.0340996
0.0341122
0.0341257
0.0341401
0.0341552
0.0341712
0.0341879
0.0342054
0.0342236
0.0342425
0.034262
0.0342822
0.0343029
0.0342126
0.0341965
0.0341812
0.0341666
0.034153
0.0341402
0.0341283
0.0341173
0.0341073
0.0340982
0.03409
0.0340829
0.0340767
0.0340716
0.0340674
0.0340643
0.0340622
0.0340611
0.034061
0.034062
0.034064
0.034067
0.034071
0.0340761
0.0340821
0.0340892
0.0340972
0.0341062
0.0341161
0.034127
0.0341388
0.0341515
0.0341651
0.0341795
0.0341947
0.0342108
0.0342276
0.0342452
0.0342634
0.0342824
0.034302
0.0343222
0.0343431
0.0342695
0.0342525
0.0342363
0.0342209
0.0342063
0.0341926
0.0341798
0.0341678
0.0341568
0.0341467
0.0341376
0.0341294
0.0341222
0.034116
0.0341108
0.0341066
0.0341035
0.0341013
0.0341002
0.0341002
0.0341012
0.0341032
0.0341062
0.0341103
0.0341153
0.0341214
0.0341285
0.0341366
0.0341456
0.0341556
0.0341665
0.0341784
0.0341911
0.0342048
0.0342192
0.0342345
0.0342507
0.0342675
0.0342852
0.0343035
0.0343225
0.0343422
0.0343625
0.0343834
0.0343097
0.0342927
0.0342764
0.034261
0.0342463
0.0342325
0.0342196
0.0342076
0.0341966
0.0341864
0.0341773
0.034169
0.0341618
0.0341556
0.0341504
0.0341462
0.034143
0.0341409
0.0341398
0.0341397
0.0341407
0.0341427
0.0341457
0.0341498
0.0341549
0.034161
0.0341681
0.0341762
0.0341853
0.0341954
0.0342063
0.0342182
0.034231
0.0342447
0.0342593
0.0342746
0.0342908
0.0343077
0.0343254
0.0343438
0.0343629
0.0343826
0.0344029
0.0344239
0.034368
0.0343502
0.0343331
0.0343168
0.0343013
0.0342866
0.0342727
0.0342598
0.0342478
0.0342366
0.0342265
0.0342172
0.034209
0.0342018
0.0341955
0.0341903
0.0341861
0.0341829
0.0341807
0.0341796
0.0341796
0.0341805
0.0341826
0.0341856
0.0341897
0.0341948
0.034201
0.0342081
0.0342162
0.0342253
0.0342354
0.0342464
0.0342584
0.0342712
0.0342849
0.0342995
0.0343149
0.0343311
0.0343481
0.0343659
0.0343843
0.0344034
0.0344232
0.0344436
0.0344646
0.0344273
0.0344087
0.0343908
0.0343737
0.0343573
0.0343418
0.0343271
0.0343132
0.0343002
0.0342881
0.034277
0.0342668
0.0342575
0.0342493
0.034242
0.0342357
0.0342305
0.0342262
0.034223
0.0342209
0.0342198
0.0342197
0.0342207
0.0342227
0.0342258
0.0342299
0.034235
0.0342412
0.0342483
0.0342565
0.0342656
0.0342757
0.0342868
0.0342987
0.0343116
0.0343254
0.03434
0.0343555
0.0343717
0.0343887
0.0344065
0.034425
0.0344442
0.034464
0.0344844
0.0345054
0.0344682
0.0344496
0.0344317
0.0344145
0.0343981
0.0343825
0.0343678
0.0343539
0.0343409
0.0343287
0.0343176
0.0343073
0.0342981
0.0342898
0.0342825
0.0342762
0.0342709
0.0342667
0.0342635
0.0342613
0.0342602
0.0342601
0.0342611
0.0342632
0.0342662
0.0342703
0.0342755
0.0342817
0.0342888
0.034297
0.0343062
0.0343163
0.0343274
0.0343394
0.0343523
0.0343661
0.0343807
0.0343962
0.0344125
0.0344295
0.0344473
0.0344659
0.034485
0.0345049
0.0345253
0.0345463
0.0345286
0.0345093
0.0344906
0.0344727
0.0344555
0.034439
0.0344234
0.0344087
0.0343947
0.0343817
0.0343696
0.0343584
0.0343481
0.0343388
0.0343305
0.0343232
0.0343169
0.0343116
0.0343074
0.0343042
0.034302
0.0343009
0.0343008
0.0343018
0.0343038
0.0343069
0.034311
0.0343162
0.0343224
0.0343296
0.0343378
0.0343469
0.0343571
0.0343682
0.0343802
0.0343931
0.034407
0.0344216
0.0344371
0.0344534
0.0344705
0.0344883
0.0345069
0.0345261
0.0345459
0.0345663
0.0345874
0.0345698
0.0345504
0.0345318
0.0345138
0.0344966
0.0344802
0.0344645
0.0344497
0.0344358
0.0344228
0.0344106
0.0343994
0.0343891
0.0343798
0.0343715
0.0343642
0.0343579
0.0343526
0.0343483
0.0343451
0.0343429
0.0343418
0.0343418
0.0343427
0.0343448
0.0343479
0.034352
0.0343571
0.0343633
0.0343705
0.0343787
0.0343879
0.0343981
0.0344092
0.0344212
0.0344342
0.034448
0.0344627
0.0344782
0.0344945
0.0345116
0.0345295
0.034548
0.0345672
0.0345871
0.0346075
0.0346286
0.0346111
0.0345917
0.0345731
0.0345551
0.0345379
0.0345214
0.0345058
0.034491
0.034477
0.034464
0.0344518
0.0344406
0.0344303
0.034421
0.0344127
0.0344054
0.034399
0.0343938
0.0343895
0.0343863
0.0343841
0.034383
0.0343829
0.0343839
0.0343859
0.034389
0.0343931
0.0343983
0.0344045
0.0344117
0.0344199
0.0344291
0.0344393
0.0344504
0.0344624
0.0344754
0.0344892
0.0345039
0.0345195
0.0345358
0.0345529
0.0345707
0.0345893
0.0346085
0.0346283
0.0346488
0.0346698
0.0346525
0.0346331
0.0346144
0.0345965
0.0345793
0.0345628
0.0345472
0.0345324
0.0345184
0.0345054
0.0344932
0.034482
0.0344717
0.0344624
0.0344541
0.0344467
0.0344404
0.0344351
0.0344308
0.0344276
0.0344254
0.0344243
0.0344242
0.0344252
0.0344273
0.0344303
0.0344345
0.0344396
0.0344458
0.0344531
0.0344613
0.0344705
0.0344806
0.0344918
0.0345038
0.0345168
0.0345306
0.0345453
0.0345608
0.0345772
0.0345943
0.0346121
0.0346306
0.0346498
0.0346697
0.0346901
0.0347111
0.0346939
0.0346746
0.0346559
0.034638
0.0346208
0.0346043
0.0345887
0.0345739
0.03456
0.0345469
0.0345347
0.0345235
0.0345132
0.0345039
0.0344956
0.0344883
0.0344819
0.0344766
0.0344724
0.0344691
0.034467
0.0344658
0.0344658
0.0344667
0.0344688
0.0344719
0.034476
0.0344812
0.0344874
0.0344946
0.0345028
0.034512
0.0345221
0.0345333
0.0345453
0.0345583
0.0345721
0.0345868
0.0346023
0.0346186
0.0346357
0.0346536
0.0346721
0.0346913
0.0347111
0.0347315
0.0347525
0.0347355
0.0347161
0.0346975
0.0346795
0.0346623
0.0346459
0.0346303
0.0346155
0.0346016
0.0345885
0.0345764
0.0345652
0.0345549
0.0345456
0.0345373
0.0345299
0.0345236
0.0345183
0.0345141
0.0345108
0.0345086
0.0345075
0.0345074
0.0345084
0.0345105
0.0345135
0.0345177
0.0345228
0.034529
0.0345362
0.0345444
0.0345536
0.0345638
0.0345749
0.0345869
0.0345999
0.0346137
0.0346284
0.0346439
0.0346602
0.0346773
0.0346951
0.0347136
0.0347327
0.0347525
0.0347729
0.0347938
0.034777
0.0347577
0.0347391
0.0347212
0.034704
0.0346876
0.034672
0.0346572
0.0346433
0.0346303
0.0346182
0.034607
0.0345967
0.0345874
0.0345791
0.0345718
0.0345654
0.0345601
0.0345559
0.0345527
0.0345505
0.0345493
0.0345493
0.0345503
0.0345523
0.0345554
0.0345595
0.0345646
0.0345708
0.034578
0.0345862
0.0345954
0.0346056
0.0346167
0.0346287
0.0346416
0.0346554
0.0346701
0.0346856
0.0347019
0.0347189
0.0347367
0.0347552
0.0347743
0.034794
0.0348144
0.0348353
0.0348187
0.0347994
0.0347808
0.0347629
0.0347457
0.0347293
0.0347138
0.034699
0.0346852
0.0346721
0.03466
0.0346488
0.0346386
0.0346293
0.034621
0.0346137
0.0346074
0.0346021
0.0345978
0.0345946
0.0345924
0.0345913
0.0345912
0.0345922
0.0345942
0.0345973
0.0346014
0.0346066
0.0346127
0.0346199
0.0346281
0.0346373
0.0346474
0.0346585
0.0346705
0.0346834
0.0346972
0.0347119
0.0347273
0.0347436
0.0347606
0.0347783
0.0347968
0.0348159
0.0348356
0.0348558
0.0348767
0.0348603
0.034841
0.0348225
0.0348046
0.0347875
0.0347711
0.0347556
0.0347409
0.0347271
0.0347141
0.034702
0.0346908
0.0346806
0.0346713
0.034663
0.0346557
0.0346494
0.0346441
0.0346399
0.0346367
0.0346345
0.0346334
0.0346333
0.0346343
0.0346363
0.0346393
0.0346435
0.0346486
0.0346548
0.0346619
0.0346701
0.0346793
0.0346894
0.0347004
0.0347124
0.0347253
0.0347391
0.0347537
0.0347691
0.0347853
0.0348023
0.03482
0.0348384
0.0348574
0.0348771
0.0348973
0.0349181
0.0349019
0.0348827
0.0348642
0.0348463
0.0348293