/*--------------------------------*- C++ -*----------------------------------*\
  =========                 |
  \\      /  F ield         | OpenFOAM: The Open Source CFD Toolbox
   \\    /   O peration     | Website:  https://openfoam.org
    \\  /    A nd           | Version:  7
     \\/     M anipulation  |
\*---------------------------------------------------------------------------*/
FoamFile
{
    version     2.0;
    format      ascii;
    class       volVectorField;
    location    "188000";
    object      U;
}
// * * * * * * * * * * * * * * * * * * * * * * * * * * * * * * * * * * * * * //

dimensions      [0 1 -1 0 0 0 0];

internalField   nonuniform List<vector> 
4844
(
(-7.42632e-19 2.86837e-18 -0.0151126)
(1.77312e-17 -2.18349e-18 -0.0151042)
(4.41948e-18 4.6397e-19 -0.015095)
(5.24239e-18 2.8054e-17 -0.0150783)
(1.33326e-17 2.50925e-18 -0.0150699)
(4.09355e-18 2.25755e-18 -0.0150606)
(3.65706e-18 1.2129e-18 -0.0150506)
(2.62627e-18 9.63053e-19 -0.0150397)
(2.71383e-18 4.89657e-19 -0.0150281)
(2.83032e-18 3.91993e-19 -0.0150158)
(1.85383e-18 5.10035e-19 -0.0150027)
(3.99346e-18 2.20999e-17 -0.0150436)
(9.13808e-18 3.43627e-18 -0.0150351)
(3.62286e-18 3.12205e-18 -0.0150258)
(3.48933e-18 1.78055e-18 -0.0150156)
(2.54764e-18 1.14463e-18 -0.0150047)
(2.80576e-18 7.11355e-19 -0.0149929)
(2.966e-18 6.44072e-19 -0.0149805)
(1.96488e-18 6.11902e-19 -0.0149673)
(1.7648e-18 1.03205e-18 -0.0149533)
(1.97017e-18 1.08983e-18 -0.0149387)
(1.23133e-18 6.79827e-20 -0.0149234)
(2.34994e-18 1.55928e-17 -0.0150085)
(6.52925e-18 3.72836e-18 -0.0149999)
(3.26767e-18 3.3183e-18 -0.0149905)
(3.26874e-18 2.06454e-18 -0.0149802)
(2.4983e-18 1.38271e-18 -0.0149692)
(2.95744e-18 8.23738e-19 -0.0149574)
(3.03674e-18 8.43013e-19 -0.0149448)
(1.96171e-18 5.71679e-19 -0.0149315)
(1.95214e-18 1.0433e-18 -0.0149174)
(1.76129e-18 1.06783e-18 -0.0149027)
(1.10411e-18 2.87229e-19 -0.0148872)
(8.28799e-19 3.32433e-19 -0.0148712)
(6.6029e-19 -4.11848e-19 -0.0148544)
(1.03325e-18 -5.72544e-19 -0.0148371)
(6.04943e-19 -4.80424e-19 -0.0148192)
(1.02528e-19 3.87805e-20 -0.0148008)
(1.41003e-18 1.17315e-17 -0.014973)
(5.01003e-18 4.31964e-18 -0.0149643)
(2.92663e-18 3.56829e-18 -0.0149548)
(3.05992e-18 2.28854e-18 -0.0149444)
(2.39521e-18 1.51274e-18 -0.0149333)
(2.9964e-18 9.01256e-19 -0.0149214)
(2.87013e-18 5.40542e-19 -0.0149087)
(1.95582e-18 5.008e-19 -0.0148952)
(1.96984e-18 8.29425e-19 -0.0148811)
(1.36495e-18 4.68749e-19 -0.0148662)
(1.01897e-18 3.03403e-19 -0.0148507)
(7.33837e-19 4.62948e-19 -0.0148345)
(7.26454e-19 -2.88484e-19 -0.0148176)
(1.31927e-18 -1.95387e-19 -0.0148002)
(3.69665e-19 -7.78167e-19 -0.0147822)
(4.63105e-20 -2.06005e-19 -0.0147636)
(1.02168e-18 9.60194e-18 -0.0149371)
(4.04921e-18 4.67985e-18 -0.0149283)
(2.59812e-18 3.78998e-18 -0.0149187)
(2.77011e-18 2.41972e-18 -0.0149083)
(2.31816e-18 1.74779e-18 -0.014897)
(3.02592e-18 1.17026e-18 -0.014885)
(2.71152e-18 3.36138e-19 -0.0148722)
(1.95739e-18 3.35467e-19 -0.0148587)
(1.87828e-18 8.00342e-19 -0.0148444)
(1.03913e-18 6.83354e-20 -0.0148294)
(1.02499e-18 1.68654e-19 -0.0148137)
(7.22225e-19 3.78209e-19 -0.0147974)
(9.97644e-19 4.85394e-20 -0.0147804)
(1.23955e-18 -6.84107e-20 -0.0147629)
(6.93973e-20 -9.6293e-19 -0.0147447)
(1.10387e-19 -4.48458e-19 -0.014726)
(3.31427e-18 4.85588e-18 -0.0148919)
(2.22092e-18 3.93718e-18 -0.0148822)
(2.52003e-18 2.4154e-18 -0.0148717)
(2.39072e-18 2.14456e-18 -0.0148604)
(2.98458e-18 1.49949e-18 -0.0148483)
(2.58342e-18 5.45967e-19 -0.0148354)
(2.01077e-18 2.56179e-19 -0.0148217)
(1.77443e-18 6.60528e-19 -0.0148073)
(9.6858e-19 1.85932e-19 -0.0147922)
(1.16229e-18 2.91753e-19 -0.0147764)
(6.54816e-19 1.63159e-19 -0.01476)
(1.10384e-18 1.62291e-19 -0.0147429)
(7.02569e-19 -5.21612e-19 -0.0147252)
(-1.85714e-19 -1.16782e-18 -0.014707)
(3.28741e-19 -5.10882e-19 -0.0146881)
(2.62475e-18 4.84769e-18 -0.0148551)
(1.7665e-18 3.75697e-18 -0.0148454)
(2.36515e-18 2.52121e-18 -0.0148348)
(2.44166e-18 2.34485e-18 -0.0148233)
(2.86865e-18 1.64075e-18 -0.0148111)
(2.46321e-18 7.59367e-19 -0.0147981)
(2.10865e-18 6.01671e-19 -0.0147844)
(1.61234e-18 3.93984e-19 -0.0147699)
(1.03884e-18 3.26715e-19 -0.0147547)
(1.18454e-18 4.06817e-19 -0.0147388)
(5.5866e-19 -3.41828e-20 -0.0147222)
(8.62544e-19 -4.27907e-20 -0.014705)
(1.03267e-19 -9.28556e-19 -0.0146872)
(-1.14166e-19 -1.27122e-18 -0.0146689)
(6.13655e-19 -5.33239e-19 -0.0146499)
(1.89041e-18 4.68094e-18 -0.014818)
(1.38676e-18 3.54784e-18 -0.0148081)
(2.35252e-18 2.66747e-18 -0.0147974)
(2.4461e-18 2.5016e-18 -0.0147859)
(2.71341e-18 1.71755e-18 -0.0147736)
(2.36837e-18 7.90694e-19 -0.0147605)
(2.19443e-18 9.96735e-19 -0.0147467)
(1.41514e-18 2.17826e-19 -0.0147321)
(1.10686e-18 3.98617e-19 -0.0147168)
(1.07033e-18 3.23573e-19 -0.0147008)
(4.3588e-19 -4.0195e-20 -0.0146841)
(4.21181e-19 -5.32836e-19 -0.0146668)
(-2.3024e-19 -1.21646e-18 -0.0146489)
(2.12202e-19 -1.11872e-18 -0.0146304)
(6.00391e-19 -8.88016e-19 -0.0146114)
(4.85689e-19 6.56508e-18 -0.0147895)
(1.3053e-18 4.461e-18 -0.0147804)
(1.20414e-18 3.6559e-18 -0.0147705)
(2.37164e-18 2.79502e-18 -0.0147598)
(2.4237e-18 2.62464e-18 -0.0147482)
(2.54652e-18 1.86089e-18 -0.0147358)
(2.42267e-18 1.07296e-18 -0.0147226)
(2.08557e-18 1.0572e-18 -0.0147087)
(1.21986e-18 1.18944e-19 -0.014694)
(1.16406e-18 4.23922e-19 -0.0146786)
(9.15852e-19 2.22523e-19 -0.0146625)
(2.76246e-19 1.62818e-20 -0.0146457)
(2.29978e-19 -4.24747e-19 -0.0146283)
(-2.21354e-19 -1.25025e-18 -0.0146103)
(4.66111e-19 -1.0357e-18 -0.0145917)
(5.0106e-19 -1.37433e-18 -0.0145725)
(3.14724e-19 5.56046e-18 -0.0147517)
(8.85902e-19 4.14643e-18 -0.0147425)
(1.09714e-18 3.7499e-18 -0.0147326)
(2.40844e-18 3.02947e-18 -0.0147217)
(2.34166e-18 2.60006e-18 -0.0147101)
(2.44761e-18 1.91614e-18 -0.0146976)
(2.41908e-18 1.36372e-18 -0.0146843)
(1.75161e-18 8.54394e-19 -0.0146703)
(1.12583e-18 1.24617e-19 -0.0146555)
(1.15666e-18 3.31792e-19 -0.01464)
(7.91413e-19 1.86304e-19 -0.0146238)
(2.65515e-19 1.28039e-19 -0.0146069)
(3.88314e-19 8.22894e-20 -0.0145894)
(5.4628e-20 -7.25273e-19 -0.0145713)
(5.99655e-19 -9.35719e-19 -0.0145526)
(6.64077e-19 -1.46634e-18 -0.0145333)
(1.95375e-19 4.88896e-18 -0.0147135)
(6.30144e-19 3.76117e-18 -0.0147043)
(1.09237e-18 3.68994e-18 -0.0146942)
(2.41521e-18 3.23677e-18 -0.0146833)
(2.17142e-18 2.51586e-18 -0.0146716)
(2.31464e-18 1.85163e-18 -0.014659)
(2.30803e-18 1.52047e-18 -0.0146457)
(1.47398e-18 7.58913e-19 -0.0146316)
(1.18559e-18 3.73083e-19 -0.0146167)
(1.191e-18 3.47698e-19 -0.0146011)
(7.70558e-19 2.22289e-19 -0.0145848)
(3.30462e-19 2.04676e-19 -0.0145678)
(2.80874e-19 2.74111e-20 -0.0145502)
(2.84538e-19 -2.10844e-19 -0.014532)
(7.58551e-19 -6.85498e-19 -0.0145132)
(8.91332e-19 -1.30764e-18 -0.0144938)
(1.06904e-19 4.54623e-18 -0.0146749)
(4.47048e-19 3.51451e-18 -0.0146657)
(1.20477e-18 3.79212e-18 -0.0146556)
(2.33691e-18 3.20799e-18 -0.0146446)
(1.97207e-18 2.45688e-18 -0.0146328)
(2.22815e-18 1.72796e-18 -0.0146202)
(2.0912e-18 1.36604e-18 -0.0146067)
(1.28942e-18 7.6399e-19 -0.0145925)
(1.25466e-18 5.381e-19 -0.0145775)
(1.12978e-18 3.03436e-19 -0.0145619)
(7.52525e-19 3.32871e-19 -0.0145455)
(2.26105e-19 2.29107e-19 -0.0145284)
(2.1764e-19 -9.2971e-20 -0.0145107)
(3.98015e-19 -1.66754e-19 -0.0144924)
(9.99325e-19 -2.7029e-19 -0.0144735)
(1.05923e-18 -1.0672e-18 -0.014454)
(-9.44033e-19 3.55524e-18 -0.0146445)
(1.36454e-20 4.21269e-18 -0.0146361)
(4.31873e-19 3.42435e-18 -0.0146268)
(1.39241e-18 4.11356e-18 -0.0146166)
(2.12638e-18 3.01102e-18 -0.0146055)
(1.77765e-18 2.39213e-18 -0.0145936)
(2.1145e-18 1.79254e-18 -0.0145809)
(1.75449e-18 9.10892e-19 -0.0145674)
(1.21637e-18 8.09837e-19 -0.0145531)
(1.14859e-18 4.17424e-19 -0.0145381)
(9.09081e-19 -1.1745e-19 -0.0145223)
(7.4094e-19 3.69165e-19 -0.0145058)
(5.04227e-20 2.14798e-20 -0.0144887)
(3.83556e-19 2.19752e-19 -0.0144709)
(4.65085e-19 -2.37271e-19 -0.0144525)
(1.23782e-18 9.87558e-21 -0.0144335)
(1.06737e-18 -9.13386e-19 -0.0144139)
(-9.3878e-19 3.27742e-18 -0.0146053)
(5.51677e-21 3.97673e-18 -0.0145968)
(5.39904e-19 3.41693e-18 -0.0145875)
(1.46898e-18 4.27199e-18 -0.0145772)
(1.79458e-18 2.69172e-18 -0.0145661)
(1.61022e-18 2.18191e-18 -0.0145542)
(1.94894e-18 1.81796e-18 -0.0145414)
(1.47464e-18 5.99028e-19 -0.0145278)
(1.19846e-18 8.85273e-19 -0.0145134)
(9.67658e-19 3.78603e-19 -0.0144983)
(6.9116e-19 -5.8895e-19 -0.0144824)
(6.63566e-19 2.44272e-19 -0.0144659)
(-7.29154e-20 -1.83915e-19 -0.0144486)
(6.43223e-19 4.85626e-19 -0.0144307)
(6.79292e-19 -3.8511e-20 -0.0144123)
(1.23328e-18 7.3368e-21 -0.0143932)
(9.70167e-19 -8.95732e-19 -0.0143736)
(-1.05361e-18 3.07149e-18 -0.0145734)
(-8.65014e-19 3.18733e-18 -0.0145658)
(4.11963e-20 3.79826e-18 -0.0145573)
(6.71233e-19 3.40499e-18 -0.0145479)
(1.35112e-18 4.03494e-18 -0.0145376)
(1.44298e-18 2.46919e-18 -0.0145264)
(1.47092e-18 1.94277e-18 -0.0145144)
(1.70042e-18 1.64708e-18 -0.0145015)
(1.3057e-18 4.58642e-19 -0.0144879)
(1.1605e-18 8.072e-19 -0.0144734)
(7.8751e-19 4.85217e-19 -0.0144582)
(5.48665e-19 -8.46594e-19 -0.0144423)
(4.70938e-19 -2.1396e-19 -0.0144256)
(-1.09198e-20 -2.75919e-19 -0.0144083)
(8.15848e-19 5.17831e-19 -0.0143903)
(7.42145e-19 8.54382e-20 -0.0143717)
(1.02312e-18 -1.81403e-19 -0.0143526)
(9.16303e-19 -8.3925e-19 -0.0143329)
(-9.14279e-19 2.82434e-18 -0.0145336)
(-7.85987e-19 3.06703e-18 -0.0145259)
(8.49802e-20 3.64675e-18 -0.0145174)
(7.69627e-19 3.47696e-18 -0.0145079)
(1.08753e-18 3.43567e-18 -0.0144976)
(1.23649e-18 2.52889e-18 -0.0144863)
(1.35861e-18 1.81618e-18 -0.0144742)
(1.50155e-18 1.52183e-18 -0.0144613)
(1.351e-18 7.84112e-19 -0.0144476)
(1.0919e-18 6.22671e-19 -0.0144331)
(5.96413e-19 5.55939e-19 -0.0144178)
(5.29507e-19 -6.36607e-19 -0.0144018)
(4.01253e-19 -4.7547e-19 -0.014385)
(2.75673e-19 -1.22743e-19 -0.0143676)
(7.76513e-19 2.14769e-19 -0.0143496)
(5.87213e-19 -6.2735e-20 -0.0143309)
(8.98904e-19 -2.84173e-19 -0.0143117)
(1.00307e-18 -6.55335e-19 -0.0142919)
(-7.95194e-19 2.61268e-18 -0.0144935)
(-7.25184e-19 2.79455e-18 -0.0144858)
(2.04061e-19 3.57941e-18 -0.0144772)
(7.3687e-19 3.43831e-18 -0.0144676)
(8.47782e-19 2.91082e-18 -0.0144572)
(1.14371e-18 2.6279e-18 -0.0144459)
(1.24589e-18 1.79241e-18 -0.0144338)
(1.49299e-18 1.59333e-18 -0.0144208)
(1.4163e-18 1.19157e-18 -0.014407)
(9.16593e-19 4.66854e-19 -0.0143924)
(4.18958e-19 4.35148e-19 -0.0143771)
(5.79848e-19 -3.88731e-19 -0.014361)
(6.19546e-19 -2.56837e-19 -0.0143442)
(4.86017e-19 4.35737e-20 -0.0143267)
(5.71433e-19 -9.54959e-20 -0.0143085)
(4.20727e-19 -3.31942e-19 -0.0142898)
(1.11741e-18 -4.64955e-20 -0.0142705)
(1.11168e-18 -4.34256e-19 -0.0142506)
(-6.92435e-19 2.40161e-18 -0.014453)
(-5.37891e-19 2.94095e-18 -0.0144453)
(3.05532e-19 3.43302e-18 -0.0144366)
(5.91563e-19 3.21834e-18 -0.0144271)
(7.49241e-19 2.75014e-18 -0.0144166)
(1.04971e-18 2.56377e-18 -0.0144052)
(1.12368e-18 1.63242e-18 -0.014393)
(1.45296e-18 1.51556e-18 -0.01438)
(1.19645e-18 1.08547e-18 -0.0143661)
(7.32233e-19 4.14694e-19 -0.0143515)
(2.42506e-19 2.49162e-19 -0.014336)
(6.85088e-19 -2.35381e-19 -0.0143199)
(7.87789e-19 -9.53027e-20 -0.014303)
(5.04854e-19 1.06615e-19 -0.0142854)
(5.10345e-19 -1.4176e-19 -0.0142672)
(5.77354e-19 -3.41567e-19 -0.0142484)
(1.32515e-18 7.78028e-20 -0.014229)
(9.47649e-19 -4.41581e-19 -0.014209)
(-5.08978e-19 2.25823e-18 -0.0144122)
(-3.30724e-19 3.21076e-18 -0.0144045)
(2.75551e-19 3.26992e-18 -0.0143958)
(4.47899e-19 2.87404e-18 -0.0143861)
(6.74181e-19 2.62223e-18 -0.0143756)
(8.33644e-19 2.29629e-18 -0.0143642)
(9.73577e-19 1.48922e-18 -0.014352)
(1.32576e-18 1.27996e-18 -0.0143389)
(8.85523e-19 6.42093e-19 -0.0143249)
(5.79864e-19 3.46495e-19 -0.0143102)
(2.33048e-19 2.7705e-19 -0.0142947)
(8.6599e-19 -1.40632e-20 -0.0142785)
(7.9741e-19 -1.80726e-19 -0.0142615)
(5.72938e-19 1.97321e-19 -0.0142439)
(5.90745e-19 -1.01966e-20 -0.0142256)
(7.91197e-19 -1.84373e-19 -0.0142067)
(1.1658e-18 -1.17281e-19 -0.0141872)
(7.08725e-19 -6.08652e-19 -0.0141672)
(-2.60604e-19 2.19489e-18 -0.0143711)
(-2.25077e-19 3.06762e-18 -0.0143633)
(1.89861e-19 3.13405e-18 -0.0143546)
(3.07056e-19 2.6507e-18 -0.0143449)
(5.29202e-19 2.28422e-18 -0.0143344)
(6.63792e-19 2.05004e-18 -0.0143229)
(9.68093e-19 1.59708e-18 -0.0143106)
(1.1707e-18 1.15224e-18 -0.0142974)
(6.91542e-19 4.95655e-19 -0.0142834)
(5.78828e-19 3.45912e-19 -0.0142686)
(3.73587e-19 4.8851e-19 -0.0142531)
(9.18934e-19 8.80891e-20 -0.0142368)
(7.79449e-19 -2.59299e-19 -0.0142197)
(5.44861e-19 7.45367e-20 -0.014202)
(6.49422e-19 6.833e-20 -0.0141837)
(9.0168e-19 -7.05596e-20 -0.0141647)
(9.59091e-19 -3.32086e-19 -0.0141452)
(6.42374e-19 -6.32886e-19 -0.0141251)
(-8.54166e-21 2.02584e-18 -0.0143297)
(-1.93826e-19 2.72835e-18 -0.0143219)
(1.06928e-19 2.91766e-18 -0.0143131)
(2.30259e-19 2.75477e-18 -0.0143034)
(4.35276e-19 2.13187e-18 -0.0142928)
(6.65666e-19 2.04717e-18 -0.0142813)
(9.5031e-19 1.72255e-18 -0.0142689)
(1.01666e-18 1.06419e-18 -0.0142557)
(7.38253e-19 7.59228e-19 -0.0142416)
(7.19749e-19 6.18756e-19 -0.0142268)
(5.23578e-19 7.70411e-19 -0.0142111)
(9.06285e-19 1.26521e-19 -0.0141948)
(6.92643e-19 -3.92419e-19 -0.0141777)
(5.61084e-19 -4.85221e-21 -0.0141599)
(7.31789e-19 8.11812e-20 -0.0141415)
(9.97082e-19 9.28074e-20 -0.0141224)
(9.2273e-19 -2.6311e-19 -0.0141028)
(7.16186e-19 -4.95842e-19 -0.0140827)
(1.04685e-19 1.64433e-18 -0.014288)
(-1.59578e-19 2.4095e-18 -0.0142801)
(8.71773e-20 2.62904e-18 -0.0142713)
(1.78499e-19 2.79868e-18 -0.0142616)
(4.36099e-19 2.32928e-18 -0.0142509)
(6.74773e-19 2.10107e-18 -0.0142393)
(8.90499e-19 1.78637e-18 -0.0142269)
(9.36487e-19 1.01672e-18 -0.0142136)
(8.29148e-19 9.80563e-19 -0.0141995)
(9.17975e-19 1.00822e-18 -0.0141846)
(5.10328e-19 8.33537e-19 -0.0141689)
(7.1241e-19 2.20037e-20 -0.0141525)
(5.80425e-19 -5.91339e-19 -0.0141353)
(6.73872e-19 2.01067e-21 -0.0141175)
(8.9359e-19 2.12914e-19 -0.014099)
(1.08736e-18 1.97425e-19 -0.0140799)
(1.15214e-18 1.44831e-19 -0.0140602)
(7.00154e-19 -3.6904e-19 -0.01404)
(1.31e-19 1.27452e-18 -0.0142459)
(-7.80914e-20 2.21589e-18 -0.014238)
(5.56486e-20 2.27898e-18 -0.0142292)
(1.10819e-19 2.50467e-18 -0.0142194)
(4.12006e-19 2.38081e-18 -0.0142087)
(6.11176e-19 2.02889e-18 -0.0141971)
(7.36809e-19 1.63865e-18 -0.0141846)
(9.07298e-19 1.10127e-18 -0.0141713)
(9.54075e-19 1.10766e-18 -0.0141571)
(9.74112e-19 1.20769e-18 -0.0141422)
(3.5317e-19 8.46952e-19 -0.0141264)
(4.6303e-19 -2.30338e-19 -0.0141099)
(5.92551e-19 -6.76533e-19 -0.0140927)
(8.29617e-19 -4.51904e-20 -0.0140748)
(1.11865e-18 4.22458e-19 -0.0140562)
(9.78826e-19 -3.94245e-20 -0.014037)
(1.34873e-18 5.59878e-19 -0.0140173)
(5.3831e-19 -3.30029e-19 -0.013997)
(1.91889e-19 1.16836e-18 -0.0142036)
(-1.46116e-21 2.06823e-18 -0.0141957)
(-8.23198e-21 1.95506e-18 -0.0141868)
(3.06406e-20 2.10118e-18 -0.0141769)
(3.32756e-19 2.15465e-18 -0.0141662)
(4.65538e-19 1.81828e-18 -0.0141546)
(6.60119e-19 1.5487e-18 -0.014142)
(1.00065e-18 1.25293e-18 -0.0141286)
(1.05008e-18 1.25731e-18 -0.0141144)
(8.36119e-19 1.01388e-18 -0.0140994)
(3.96404e-19 1.31355e-18 -0.0140836)
(4.13675e-19 -6.68165e-20 -0.014067)
(8.27241e-19 -4.61908e-19 -0.0140497)
(1.11702e-18 8.67345e-20 -0.0140318)
(1.0882e-18 3.92916e-19 -0.0140131)
(8.85653e-19 -2.56925e-19 -0.0139939)
(1.17831e-18 3.57156e-19 -0.0139741)
(4.30651e-19 -2.09518e-19 -0.0139537)
(2.90667e-19 1.46748e-18 -0.0141609)
(3.52127e-20 1.93927e-18 -0.014153)
(-7.40013e-20 1.75127e-18 -0.014144)
(2.23074e-21 1.8587e-18 -0.0141342)
(2.2483e-19 1.81386e-18 -0.0141234)
(3.56453e-19 1.53552e-18 -0.0141117)
(7.52935e-19 1.7591e-18 -0.0140991)
(1.0295e-18 1.29789e-18 -0.0140857)
(1.02044e-18 1.28126e-18 -0.0140714)
(8.11376e-19 9.03471e-19 -0.0140563)
(4.19705e-19 1.50156e-18 -0.0140405)
(5.1835e-19 3.97467e-19 -0.0140239)
(1.19861e-18 -9.39374e-22 -0.0140065)
(1.34014e-18 3.09309e-19 -0.0139885)
(9.76765e-19 3.0428e-19 -0.0139698)
(9.28337e-19 -1.83424e-19 -0.0139505)
(7.88702e-19 -1.23597e-19 -0.0139306)
(3.58976e-19 -1.78123e-19 -0.0139102)
(3.68325e-19 1.79003e-18 -0.014118)
(3.76796e-21 1.88121e-18 -0.01411)
(-9.80328e-20 1.69785e-18 -0.014101)
(7.34688e-20 2.08812e-18 -0.0140911)
(1.38845e-19 1.6136e-18 -0.0140803)
(3.46028e-19 1.30162e-18 -0.0140686)
(8.45073e-19 1.87637e-18 -0.0140559)
(9.17185e-19 1.0918e-18 -0.0140425)
(8.74564e-19 9.83739e-19 -0.0140281)
(8.03982e-19 8.94743e-19 -0.014013)
(2.58863e-19 1.28044e-18 -0.0139971)
(5.76307e-19 5.64132e-19 -0.0139804)
(1.40396e-18 2.23895e-19 -0.013963)
(1.17977e-18 3.83162e-20 -0.0139449)
(8.11409e-19 1.66492e-19 -0.0139261)
(7.77274e-19 -2.83542e-19 -0.0139068)
(4.59911e-19 -4.98574e-19 -0.0138868)
(3.31033e-19 -1.91078e-19 -0.0138664)
(2.81877e-19 1.87221e-18 -0.0140747)
(-5.82077e-20 1.73419e-18 -0.0140667)
(-4.60504e-20 1.6711e-18 -0.0140577)
(1.07264e-19 2.18757e-18 -0.0140478)
(2.03453e-20 1.58205e-18 -0.0140369)
(3.20541e-19 1.00752e-18 -0.0140251)
(8.73328e-19 1.92173e-18 -0.0140125)
(7.12444e-19 8.60173e-19 -0.0139989)
(7.63989e-19 7.00461e-19 -0.0139845)
(7.18757e-19 6.32883e-19 -0.0139694)
(1.8081e-19 1.1822e-18 -0.0139534)
(4.99763e-19 4.27325e-19 -0.0139366)
(1.42063e-18 2.8622e-19 -0.0139192)
(8.61079e-19 -3.9469e-19 -0.013901)
(7.68349e-19 1.23553e-19 -0.0138822)
(5.84767e-19 -4.28918e-19 -0.0138628)
(4.69028e-19 -4.88961e-19 -0.0138428)
(3.81235e-19 -1.65744e-19 -0.0138222)
(1.28897e-19 1.74161e-18 -0.0140311)
(-1.29602e-19 1.58032e-18 -0.0140231)
(-4.92164e-20 1.46671e-18 -0.0140141)
(3.26305e-20 1.96423e-18 -0.0140041)
(-7.97289e-20 1.61991e-18 -0.0139932)
(2.65878e-19 5.61752e-19 -0.0139814)
(9.0565e-19 1.89405e-18 -0.0139687)
(6.01374e-19 8.76745e-19 -0.0139551)
(7.73513e-19 7.36219e-19 -0.0139407)
(5.385e-19 1.71087e-19 -0.0139254)
(2.23169e-19 1.30362e-18 -0.0139094)
(4.81225e-19 3.71362e-19 -0.0138926)
(1.52227e-18 4.99592e-19 -0.0138751)
(7.46539e-19 -5.42345e-19 -0.0138569)
(9.08853e-19 3.25578e-19 -0.013838)
(5.51943e-19 -3.922e-19 -0.0138185)
(6.04485e-19 -3.41494e-19 -0.0137985)
(3.90015e-19 -7.39153e-20 -0.0137779)
(-2.37831e-20 1.34776e-18 -0.0139873)
(-1.57431e-19 1.61612e-18 -0.0139792)
(-3.73439e-20 1.35769e-18 -0.0139701)
(2.19172e-20 1.76204e-18 -0.0139601)
(-1.48982e-19 1.87692e-18 -0.0139492)
(2.62402e-19 3.2721e-19 -0.0139373)
(9.42589e-19 1.71951e-18 -0.0139246)
(4.28268e-19 7.06159e-19 -0.013911)
(7.59632e-19 9.15853e-19 -0.0138965)
(4.92853e-19 -5.33043e-20 -0.0138812)
(3.80699e-19 1.46052e-18 -0.0138651)
(5.6368e-19 4.7669e-19 -0.0138483)
(1.60473e-18 7.30963e-19 -0.0138307)
(8.31533e-19 -3.35564e-19 -0.0138124)
(1.05946e-18 5.017e-19 -0.0137935)
(5.04741e-19 -3.19657e-19 -0.013774)
(4.83651e-19 -5.27994e-19 -0.0137539)
(3.19326e-19 -1.8462e-19 -0.0137332)
(-1.53048e-19 1.70896e-18 -0.0139502)
(-3.18533e-20 1.31911e-18 -0.0139431)
(-1.65122e-19 1.43339e-18 -0.013935)
(-5.68749e-20 1.2867e-18 -0.0139259)
(-3.97971e-21 1.46138e-18 -0.0139159)
(-1.8213e-19 2.14002e-18 -0.0139049)
(3.31005e-19 4.5532e-19 -0.013893)
(8.84725e-19 1.46011e-18 -0.0138802)
(2.38894e-19 3.77523e-19 -0.0138665)
(7.6504e-19 9.48497e-19 -0.013852)
(6.18513e-19 8.84864e-20 -0.0138367)
(4.34682e-19 1.4396e-18 -0.0138205)
(6.40589e-19 5.86541e-19 -0.0138036)
(1.58766e-18 7.13857e-19 -0.013786)
(9.80677e-19 -5.61641e-20 -0.0137677)
(1.07884e-18 5.9508e-19 -0.0137487)
(3.91033e-19 -2.38455e-19 -0.0137291)
(3.41674e-19 -7.02678e-19 -0.0137089)
(1.11949e-19 -5.57902e-19 -0.0136882)
(-2.22793e-19 1.65629e-18 -0.0139058)
(-3.1713e-20 1.55929e-18 -0.0138986)
(-2.187e-19 1.38517e-18 -0.0138905)
(-1.32627e-19 9.45086e-19 -0.0138814)
(5.73771e-21 1.10356e-18 -0.0138713)
(-2.51338e-19 2.09516e-18 -0.0138603)
(3.73413e-19 6.63709e-19 -0.0138483)
(7.91121e-19 1.25626e-18 -0.0138355)
(2.33828e-19 4.5009e-19 -0.0138218)
(8.13612e-19 9.80637e-19 -0.0138072)
(6.93715e-19 1.28853e-19 -0.0137918)
(3.86064e-19 1.22382e-18 -0.0137757)
(6.26476e-19 5.36267e-19 -0.0137587)
(1.5526e-18 6.757e-19 -0.013741)
(1.02232e-18 4.26953e-20 -0.0137227)
(1.05464e-18 6.34055e-19 -0.0137036)
(1.84762e-19 -2.78502e-19 -0.013684)
(4.85151e-19 -4.10658e-19 -0.0136638)
(7.26708e-20 -8.0575e-19 -0.013643)
(-7.40622e-19 2.2963e-18 -0.0138672)
(-3.02044e-19 1.58162e-18 -0.013861)
(-3.65017e-20 1.53256e-18 -0.0138538)
(-2.94578e-19 1.44042e-18 -0.0138456)
(-2.40703e-19 7.56913e-19 -0.0138365)
(3.9665e-20 7.97351e-19 -0.0138264)
(-3.52211e-19 1.78022e-18 -0.0138154)
(3.42141e-19 6.12499e-19 -0.0138034)
(7.67024e-19 1.17357e-18 -0.0137905)
(3.44584e-19 6.94856e-19 -0.0137768)
(8.84704e-19 1.15712e-18 -0.0137622)
(7.22815e-19 1.96788e-19 -0.0137467)
(3.18235e-19 1.02269e-18 -0.0137305)
(5.80236e-19 3.60959e-19 -0.0137135)
(1.57843e-18 6.7378e-19 -0.0136958)
(1.06914e-18 1.38266e-19 -0.0136773)
(1.04293e-18 7.78599e-19 -0.0136583)
(3.77987e-20 -3.44984e-19 -0.0136386)
(8.5636e-19 1.05673e-19 -0.0136183)
(2.98139e-19 -5.86857e-19 -0.0135975)
(-7.1417e-19 2.25733e-18 -0.0138221)
(-3.48006e-19 1.69252e-18 -0.0138159)
(-8.01053e-20 1.42322e-18 -0.0138087)
(-4.39202e-19 1.16246e-18 -0.0138005)
(-2.66014e-19 8.484e-19 -0.0137914)
(1.08938e-19 7.26693e-19 -0.0137812)
(-4.06415e-19 1.62899e-18 -0.0137701)
(2.92744e-19 4.13169e-19 -0.0137581)
(7.96893e-19 1.10881e-18 -0.0137452)
(3.93878e-19 7.57371e-19 -0.0137314)
(9.65931e-19 1.36204e-18 -0.0137168)
(7.9192e-19 4.09148e-19 -0.0137013)
(2.98226e-19 9.70219e-19 -0.013685)
(6.69127e-19 4.03231e-19 -0.013668)
(1.61103e-18 6.42297e-19 -0.0136502)
(1.01061e-18 5.26199e-20 -0.0136317)
(9.56849e-19 8.17129e-19 -0.0136126)
(2.86627e-19 6.53461e-20 -0.0135928)
(8.23641e-19 1.95295e-20 -0.0135725)
(5.18661e-19 -2.55094e-19 -0.0135516)
(-7.13665e-19 1.88473e-18 -0.0137767)
(-3.8158e-19 1.94124e-18 -0.0137705)
(-2.28472e-19 1.11074e-18 -0.0137633)
(-5.06002e-19 1.0708e-18 -0.0137551)
(-2.53914e-19 8.93953e-19 -0.0137459)
(1.59725e-19 6.48392e-19 -0.0137357)
(-4.38494e-19 1.62114e-18 -0.0137246)
(2.82032e-19 3.47109e-19 -0.0137126)
(8.03848e-19 9.57598e-19 -0.0136996)
(4.25814e-19 6.84608e-19 -0.0136858)
(1.03469e-18 1.46754e-18 -0.0136711)
(8.23965e-19 6.08018e-19 -0.0136556)
(3.59639e-19 1.07505e-18 -0.0136392)
(8.2531e-19 5.68554e-19 -0.0136222)
(1.58832e-18 6.28426e-19 -0.0136043)
(7.38909e-19 -3.35762e-19 -0.0135858)
(7.97063e-19 5.50305e-19 -0.0135666)
(4.33286e-19 4.20326e-19 -0.0135468)
(5.08293e-19 -3.37964e-19 -0.0135264)
(5.7531e-19 -1.98672e-19 -0.0135055)
(-7.07095e-19 1.52935e-18 -0.0137311)
(-4.01281e-19 2.14462e-18 -0.0137248)
(-3.36157e-19 1.03228e-18 -0.0137176)
(-4.57594e-19 1.26442e-18 -0.0137094)
(-2.6953e-19 9.74108e-19 -0.0137001)
(2.36271e-19 6.42092e-19 -0.0136899)
(-4.14149e-19 1.70977e-18 -0.0136788)
(4.22409e-19 7.38407e-19 -0.0136667)
(8.0085e-19 8.08148e-19 -0.0136537)
(5.5068e-19 7.96652e-19 -0.0136399)
(1.02708e-18 1.36687e-18 -0.0136251)
(8.54705e-19 7.46463e-19 -0.0136096)
(4.65953e-19 1.25074e-18 -0.0135932)
(8.61391e-19 5.75857e-19 -0.013576)
(1.44726e-18 5.65583e-19 -0.0135582)
(6.276e-19 -3.9867e-19 -0.0135396)
(4.95449e-19 -3.91566e-21 -0.0135204)
(1.30838e-19 1.20858e-19 -0.0135005)
(3.82159e-19 -4.57712e-19 -0.0134801)
(6.02727e-19 -2.00556e-19 -0.0134591)
(-6.57928e-19 1.62473e-18 -0.0136851)
(-4.30518e-19 2.12825e-18 -0.0136788)
(-3.4585e-19 1.37516e-18 -0.0136716)
(-4.74913e-19 1.23296e-18 -0.0136633)
(-2.73616e-19 1.09272e-18 -0.0136541)
(3.62163e-19 7.95265e-19 -0.0136438)
(-3.25311e-19 1.81926e-18 -0.0136327)
(6.90883e-19 1.56854e-18 -0.0136205)
(8.29602e-19 8.53235e-19 -0.0136075)
(6.94503e-19 9.69554e-19 -0.0135936)
(1.01865e-18 1.31311e-18 -0.0135788)
(9.01915e-19 8.46054e-19 -0.0135632)
(5.32864e-19 1.413e-18 -0.0135468)
(8.38527e-19 5.55893e-19 -0.0135296)
(1.33452e-18 4.5647e-19 -0.0135117)
(5.23156e-19 -3.52092e-19 -0.0134931)
(2.46609e-19 -2.93988e-19 -0.0134738)
(-1.9261e-19 -3.15195e-19 -0.0134539)
(4.38447e-19 -4.67011e-19 -0.0134334)
(5.43218e-19 -2.87208e-19 -0.0134124)
(-6.70822e-19 1.71161e-18 -0.0136388)
(-4.78204e-19 1.91735e-18 -0.0136325)
(-3.82516e-19 1.64398e-18 -0.0136252)
(-5.44071e-19 1.12147e-18 -0.0136169)
(-2.56906e-19 1.12753e-18 -0.0136077)
(5.04856e-19 9.91363e-19 -0.0135974)
(-2.08245e-19 1.77351e-18 -0.0135862)
(8.11112e-19 1.9492e-18 -0.0135741)
(7.35037e-19 8.08758e-19 -0.013561)
(7.75865e-19 1.03573e-18 -0.013547)
(1.00275e-18 1.24584e-18 -0.0135322)
(9.39713e-19 9.02574e-19 -0.0135166)
(4.87927e-19 1.36477e-18 -0.0135001)
(9.67045e-19 8.49236e-19 -0.0134829)
(1.16556e-18 3.42362e-19 -0.0134649)
(3.90738e-19 -3.65968e-19 -0.0134462)
(1.74566e-19 -3.36675e-19 -0.0134269)
(-1.42072e-19 -2.61379e-19 -0.013407)
(5.22355e-19 -4.48796e-19 -0.0133865)
(4.72405e-19 -3.94763e-19 -0.0133654)
(-7.41956e-19 1.6228e-18 -0.0135921)
(-5.0343e-19 1.73399e-18 -0.0135859)
(-4.35756e-19 1.6989e-18 -0.0135786)
(-6.13394e-19 1.05105e-18 -0.0135703)
(-1.93536e-19 1.22883e-18 -0.013561)
(6.38168e-19 1.19121e-18 -0.0135507)
(-1.94571e-19 1.55821e-18 -0.0135394)
(7.30282e-19 1.86158e-18 -0.0135273)
(6.04082e-19 6.04954e-19 -0.0135142)
(8.57057e-19 1.05823e-18 -0.0135002)
(9.55508e-19 1.12366e-18 -0.0134853)
(8.56927e-19 7.38781e-19 -0.0134696)
(3.91495e-19 1.12945e-18 -0.0134531)
(1.10239e-18 1.15626e-18 -0.0134358)
(1.01174e-18 3.08271e-19 -0.0134178)
(3.3564e-19 -2.81775e-19 -0.0133991)
(7.04895e-20 -4.61169e-19 -0.0133797)
(1.25731e-19 6.76881e-20 -0.0133597)
(6.33716e-19 -3.32538e-19 -0.0133392)
(6.03695e-19 -2.96228e-19 -0.0133181)
(-7.8688e-19 1.4398e-18 -0.0135452)
(-5.26896e-19 1.50535e-18 -0.0135389)
(-5.83031e-19 1.3538e-18 -0.0135316)
(-7.00341e-19 8.11814e-19 -0.0135232)
(-5.77363e-20 1.47229e-18 -0.0135139)
(7.04173e-19 1.32707e-18 -0.0135036)
(-2.03511e-19 1.34069e-18 -0.0134924)
(6.7208e-19 1.77873e-18 -0.0134801)
(5.51187e-19 5.77649e-19 -0.013467)
(1.07027e-18 1.37238e-18 -0.013453)
(8.81768e-19 1.03548e-18 -0.0134381)
(7.54446e-19 5.6318e-19 -0.0134224)
(4.12896e-19 1.01256e-18 -0.0134058)
(1.07589e-18 1.13328e-18 -0.0133885)
(9.13443e-19 4.13819e-19 -0.0133704)
(2.27406e-19 -2.47559e-19 -0.0133517)
(4.82531e-20 -5.46823e-19 -0.0133322)
(1.96644e-19 6.43543e-20 -0.0133122)
(6.85836e-19 -2.79984e-19 -0.0132916)
(8.27141e-19 -2.66719e-21 -0.0132704)
(-8.6446e-19 1.2328e-18 -0.0134979)
(-5.67986e-19 1.41078e-18 -0.0134916)
(-7.24702e-19 1.01882e-18 -0.0134843)
(-6.66988e-19 6.74348e-19 -0.0134759)
(1.22271e-19 1.71755e-18 -0.0134666)
(7.73577e-19 1.60848e-18 -0.0134562)
(-1.70189e-19 1.33197e-18 -0.0134449)
(7.12075e-19 1.93589e-18 -0.0134327)
(6.44347e-19 7.04229e-19 -0.0134195)
(1.28764e-18 1.73349e-18 -0.0134055)
(7.62987e-19 1.00312e-18 -0.0133905)
(8.40757e-19 7.28203e-19 -0.0133748)
(5.32624e-19 1.11785e-18 -0.0133582)
(1.02536e-18 1.0737e-18 -0.0133408)
(8.46423e-19 5.27659e-19 -0.0133227)
(1.34525e-19 -1.90327e-19 -0.0133039)
(1.33723e-19 -4.24602e-19 -0.0132844)
(5.30104e-20 -1.99918e-19 -0.0132644)
(5.4388e-19 -5.72722e-19 -0.0132437)
(8.0444e-19 2.56382e-20 -0.0132225)
(-9.08979e-19 1.07131e-18 -0.0134503)
(-5.76405e-19 1.40272e-18 -0.013444)
(-7.86936e-19 1.09581e-18 -0.0134366)
(-6.08289e-19 5.42728e-19 -0.0134283)
(2.83062e-19 1.76764e-18 -0.0134189)
(8.0578e-19 1.80286e-18 -0.0134085)
(-1.47715e-19 1.28866e-18 -0.0133972)
(8.04188e-19 2.18695e-18 -0.0133849)
(6.95074e-19 8.07052e-19 -0.0133717)
(1.29481e-18 1.67253e-18 -0.0133576)
(7.13263e-19 1.06269e-18 -0.0133427)
(9.57877e-19 8.98783e-19 -0.0133269)
(5.93268e-19 1.17533e-18 -0.0133102)
(1.05355e-18 1.17754e-18 -0.0132928)
(7.79885e-19 6.66551e-19 -0.0132747)
(1.01545e-19 -7.22544e-20 -0.0132558)
(2.8977e-19 -1.7253e-19 -0.0132363)
(-3.20203e-20 -2.77682e-19 -0.0132162)
(4.71809e-19 -7.57326e-19 -0.0131955)
(5.64741e-19 -3.03556e-19 -0.0131742)
(-9.36159e-19 1.03552e-18 -0.0134024)
(-5.77444e-19 1.29693e-18 -0.013396)
(-8.21789e-19 1.35133e-18 -0.0133887)
(-5.58799e-19 4.47462e-19 -0.0133803)
(4.44915e-19 1.74059e-18 -0.0133709)
(6.67474e-19 1.47535e-18 -0.0133605)
(-1.24374e-19 1.21527e-18 -0.0133492)
(7.86389e-19 2.11452e-18 -0.0133369)
(6.1375e-19 6.46072e-19 -0.0133236)
(1.22015e-18 1.3968e-18 -0.0133095)
(7.00702e-19 1.14843e-18 -0.0132945)
(9.76359e-19 9.07765e-19 -0.0132786)
(6.05769e-19 1.12387e-18 -0.013262)
(1.12581e-18 1.33238e-18 -0.0132445)
(7.73876e-19 8.92665e-19 -0.0132263)
(1.69188e-19 1.62277e-19 -0.0132074)
(4.24292e-19 7.21894e-20 -0.0131879)
(8.94542e-20 -4.79452e-20 -0.0131677)
(6.67876e-19 -5.43064e-19 -0.0131469)
(4.62979e-19 -5.10194e-19 -0.0131256)
(-9.02397e-19 1.02976e-18 -0.0133541)
(-5.42167e-19 1.25242e-18 -0.0133478)
(-8.52169e-19 1.56329e-18 -0.0133404)
(-4.23509e-19 7.87078e-19 -0.013332)
(5.51695e-19 1.76502e-18 -0.0133225)
(5.21467e-19 1.13279e-18 -0.0133121)
(-8.06433e-20 1.08843e-18 -0.0133008)
(6.62431e-19 1.84092e-18 -0.0132884)
(5.12472e-19 4.62076e-19 -0.0132752)
(1.1986e-18 1.16255e-18 -0.013261)
(7.39135e-19 1.27478e-18 -0.013246)
(9.28343e-19 7.91661e-19 -0.0132301)
(5.81789e-19 9.72643e-19 -0.0132133)
(1.14091e-18 1.3395e-18 -0.0131959)
(7.29452e-19 1.05392e-18 -0.0131776)
(1.75457e-19 3.12824e-19 -0.0131587)
(5.15271e-19 2.22175e-19 -0.0131391)
(1.82008e-19 1.12223e-19 -0.0131189)
(8.76371e-19 -2.48462e-19 -0.0130981)
(4.9931e-19 -4.98597e-19 -0.0130767)
(-8.54569e-19 9.82047e-19 -0.0133055)
(-5.06321e-19 1.15382e-18 -0.0132991)
(-8.78723e-19 1.54392e-18 -0.0132917)
(-2.88078e-19 1.14494e-18 -0.0132833)
(5.92974e-19 1.76463e-18 -0.0132739)
(4.86854e-19 1.2322e-18 -0.0132634)
(1.828e-20 1.19786e-18 -0.013252)
(5.96331e-19 1.69296e-18 -0.0132397)
(4.95883e-19 4.25038e-19 -0.0132264)
(1.26129e-18 1.05845e-18 -0.0132122)
(7.53245e-19 1.37615e-18 -0.0131971)
(8.5055e-19 7.07397e-19 -0.0131812)
(5.12715e-19 7.2479e-19 -0.0131644)
(1.04226e-18 1.11931e-18 -0.0131469)
(6.06495e-19 1.06115e-18 -0.0131286)
(9.53456e-20 3.06385e-19 -0.0131096)
(5.68492e-19 3.30844e-19 -0.01309)
(1.56363e-19 9.9828e-20 -0.0130697)
(9.34413e-19 -1.69359e-19 -0.0130488)
(5.24449e-19 -4.4384e-19 -0.0130275)
(-8.04993e-19 9.9734e-19 -0.0132566)
(-4.73703e-19 1.07597e-18 -0.0132502)
(-9.18753e-19 1.34458e-18 -0.0132428)
(-2.0313e-19 1.25505e-18 -0.0132343)
(6.03782e-19 1.62611e-18 -0.0132248)
(5.0515e-19 1.35653e-18 -0.0132144)
(5.23818e-20 1.16794e-18 -0.0132029)
(5.6582e-19 1.75238e-18 -0.0131905)
(5.11848e-19 4.86864e-19 -0.0131772)
(1.3652e-18 1.05109e-18 -0.013163)