/*--------------------------------*- C++ -*----------------------------------*\
  =========                 |
  \\      /  F ield         | OpenFOAM: The Open Source CFD Toolbox
   \\    /   O peration     | Website:  https://openfoam.org
    \\  /    A nd           | Version:  7
     \\/     M anipulation  |
\*---------------------------------------------------------------------------*/
FoamFile
{
    version     2.0;
    format      ascii;
    class       volScalarField;
    location    "176000";
    object      nut;
}
// * * * * * * * * * * * * * * * * * * * * * * * * * * * * * * * * * * * * * //

dimensions      [0 2 -1 0 0 0 0];

internalField   nonuniform List<scalar> 
4850
(
2.80239e-05
2.8099e-05
2.78768e-05
2.7954e-05
2.80278e-05
2.77254e-05
2.78046e-05
2.78805e-05
2.7953e-05
2.80222e-05
2.75698e-05
2.76511e-05
2.77289e-05
2.78034e-05
2.78745e-05
2.79422e-05
2.74103e-05
2.74935e-05
2.75731e-05
2.76495e-05
2.77224e-05
2.7792e-05
2.78581e-05
2.72469e-05
2.73318e-05
2.74133e-05
2.74915e-05
2.75662e-05
2.76375e-05
2.77053e-05
2.77696e-05
2.78302e-05
2.70796e-05
2.71664e-05
2.72496e-05
2.73295e-05
2.74059e-05
2.74789e-05
2.75483e-05
2.76142e-05
2.76764e-05
2.7735e-05
2.69087e-05
2.69972e-05
2.70821e-05
2.71636e-05
2.72417e-05
2.73163e-05
2.73873e-05
2.74547e-05
2.75184e-05
2.75784e-05
2.76347e-05
2.76872e-05
2.7736e-05
2.7781e-05
2.67343e-05
2.68243e-05
2.69109e-05
2.6994e-05
2.70737e-05
2.71498e-05
2.72223e-05
2.72912e-05
2.73563e-05
2.74177e-05
2.74753e-05
2.7529e-05
2.7579e-05
2.76251e-05
2.76674e-05
2.77058e-05
2.77404e-05
2.77711e-05
2.65564e-05
2.6648e-05
2.67361e-05
2.68208e-05
2.69019e-05
2.69796e-05
2.70535e-05
2.71238e-05
2.71903e-05
2.7253e-05
2.73118e-05
2.73668e-05
2.74179e-05
2.74651e-05
2.75084e-05
2.75477e-05
2.75831e-05
2.76145e-05
2.76421e-05
2.76656e-05
2.63751e-05
2.64682e-05
2.65578e-05
2.6644e-05
2.67266e-05
2.68057e-05
2.6881e-05
2.69526e-05
2.70204e-05
2.70844e-05
2.71445e-05
2.72006e-05
2.72528e-05
2.7301e-05
2.73452e-05
2.73854e-05
2.74216e-05
2.74538e-05
2.7482e-05
2.75061e-05
2.75262e-05
2.75423e-05
2.75544e-05
2.75624e-05
2.61907e-05
2.62852e-05
2.63762e-05
2.64638e-05
2.65478e-05
2.66282e-05
2.67049e-05
2.67778e-05
2.68469e-05
2.69121e-05
2.69733e-05
2.70305e-05
2.70838e-05
2.7133e-05
2.71781e-05
2.72192e-05
2.72561e-05
2.7289e-05
2.73178e-05
2.73424e-05
2.7363e-05
2.73794e-05
2.73918e-05
2.74e-05
2.74041e-05
2.74041e-05
2.74e-05
2.73918e-05
2.73794e-05
2.60031e-05
2.6099e-05
2.61914e-05
2.62803e-05
2.63656e-05
2.64473e-05
2.65253e-05
2.65995e-05
2.66698e-05
2.67361e-05
2.67984e-05
2.68568e-05
2.6911e-05
2.69611e-05
2.70071e-05
2.7049e-05
2.70867e-05
2.71203e-05
2.71496e-05
2.71748e-05
2.71958e-05
2.72126e-05
2.72251e-05
2.72335e-05
2.72377e-05
2.72377e-05
2.72335e-05
2.72251e-05
2.72126e-05
2.71958e-05
2.71748e-05
2.71496e-05
2.58126e-05
2.59097e-05
2.60034e-05
2.60936e-05
2.61802e-05
2.62632e-05
2.63424e-05
2.64177e-05
2.64891e-05
2.65566e-05
2.662e-05
2.66793e-05
2.67345e-05
2.67856e-05
2.68324e-05
2.68751e-05
2.69135e-05
2.69477e-05
2.69776e-05
2.70032e-05
2.70246e-05
2.70418e-05
2.70546e-05
2.70632e-05
2.70674e-05
2.70674e-05
2.70632e-05
2.70546e-05
2.70418e-05
2.70246e-05
2.70033e-05
2.69776e-05
2.69477e-05
2.69135e-05
2.56191e-05
2.57175e-05
2.58124e-05
2.59038e-05
2.59916e-05
2.60758e-05
2.61561e-05
2.62326e-05
2.63052e-05
2.63737e-05
2.64381e-05
2.64984e-05
2.65545e-05
2.66064e-05
2.66541e-05
2.66975e-05
2.67366e-05
2.67714e-05
2.68018e-05
2.6828e-05
2.68497e-05
2.68672e-05
2.68802e-05
2.6889e-05
2.68933e-05
2.68933e-05
2.6889e-05
2.68802e-05
2.68672e-05
2.68497e-05
2.6828e-05
2.68018e-05
2.67714e-05
2.67366e-05
2.54228e-05
2.55224e-05
2.56184e-05
2.5711e-05
2.58e-05
2.58853e-05
2.59668e-05
2.60443e-05
2.61179e-05
2.61875e-05
2.62529e-05
2.63141e-05
2.63711e-05
2.64238e-05
2.64722e-05
2.65163e-05
2.65561e-05
2.65915e-05
2.66224e-05
2.6649e-05
2.66712e-05
2.66889e-05
2.67022e-05
2.67111e-05
2.67155e-05
2.67155e-05
2.67111e-05
2.67022e-05
2.66889e-05
2.66712e-05
2.6649e-05
2.66224e-05
2.65915e-05
2.65561e-05
2.52239e-05
2.53245e-05
2.54217e-05
2.55154e-05
2.56055e-05
2.56918e-05
2.57743e-05
2.5853e-05
2.59275e-05
2.5998e-05
2.60644e-05
2.61265e-05
2.61843e-05
2.62378e-05
2.6287e-05
2.63318e-05
2.63721e-05
2.64081e-05
2.64395e-05
2.64665e-05
2.64891e-05
2.65071e-05
2.65206e-05
2.65296e-05
2.65341e-05
2.65341e-05
2.65296e-05
2.65206e-05
2.65071e-05
2.64891e-05
2.64666e-05
2.64396e-05
2.64081e-05
2.63722e-05
2.50223e-05
2.5124e-05
2.52222e-05
2.53169e-05
2.54081e-05
2.54955e-05
2.5579e-05
2.56586e-05
2.57341e-05
2.58055e-05
2.58727e-05
2.59357e-05
2.59943e-05
2.60486e-05
2.60985e-05
2.61439e-05
2.61849e-05
2.62213e-05
2.62533e-05
2.62807e-05
2.63035e-05
2.63218e-05
2.63355e-05
2.63447e-05
2.63493e-05
2.63493e-05
2.63447e-05
2.63356e-05
2.63218e-05
2.63035e-05
2.62807e-05
2.62533e-05
2.62213e-05
2.61849e-05
2.48182e-05
2.49209e-05
2.50201e-05
2.51158e-05
2.5208e-05
2.52963e-05
2.53808e-05
2.54613e-05
2.55378e-05
2.561e-05
2.56781e-05
2.57419e-05
2.58013e-05
2.58562e-05
2.59068e-05
2.59528e-05
2.59943e-05
2.60313e-05
2.60637e-05
2.60915e-05
2.61147e-05
2.61332e-05
2.61471e-05
2.61564e-05
2.61611e-05
2.61611e-05
2.61564e-05
2.61471e-05
2.61332e-05
2.61147e-05
2.60915e-05
2.60637e-05
2.60313e-05
2.59943e-05
2.46117e-05
2.47154e-05
2.48155e-05
2.49122e-05
2.50052e-05
2.50945e-05
2.51799e-05
2.52613e-05
2.53386e-05
2.54117e-05
2.54805e-05
2.5545e-05
2.56052e-05
2.56608e-05
2.5712e-05
2.57586e-05
2.58007e-05
2.58381e-05
2.58709e-05
2.58991e-05
2.59226e-05
2.59414e-05
2.59555e-05
2.59649e-05
2.59696e-05
2.59696e-05
2.59649e-05
2.59555e-05
2.59414e-05
2.59226e-05
2.58991e-05
2.58709e-05
2.58381e-05
2.58007e-05
2.44029e-05
2.45074e-05
2.46085e-05
2.4706e-05
2.47999e-05
2.48901e-05
2.49763e-05
2.50585e-05
2.51366e-05
2.52105e-05
2.52801e-05
2.53454e-05
2.54062e-05
2.54625e-05
2.55143e-05
2.55614e-05
2.5604e-05
2.56419e-05
2.56751e-05
2.57036e-05
2.57274e-05
2.57465e-05
2.57607e-05
2.57703e-05
2.57751e-05
2.57751e-05
2.57703e-05
2.57608e-05
2.57465e-05
2.57274e-05
2.57036e-05
2.56751e-05
2.56419e-05
2.5604e-05
2.41919e-05
2.42972e-05
2.43991e-05
2.44975e-05
2.45922e-05
2.46832e-05
2.47702e-05
2.48532e-05
2.49321e-05
2.50067e-05
2.5077e-05
2.5143e-05
2.52044e-05
2.52613e-05
2.53137e-05
2.53614e-05
2.54044e-05
2.54427e-05
2.54763e-05
2.55052e-05
2.55292e-05
2.55485e-05
2.5563e-05
2.55726e-05
2.55774e-05
2.55774e-05
2.55726e-05
2.5563e-05
2.55485e-05
2.55292e-05
2.55052e-05
2.54763e-05
2.54427e-05
2.54044e-05
2.39788e-05
2.40849e-05
2.41875e-05
2.42866e-05
2.43822e-05
2.44739e-05
2.45617e-05
2.46454e-05
2.4725e-05
2.48003e-05
2.48713e-05
2.49379e-05
2.49999e-05
2.50574e-05
2.51103e-05
2.51585e-05
2.5202e-05
2.52407e-05
2.52747e-05
2.53038e-05
2.53282e-05
2.53477e-05
2.53623e-05
2.5372e-05
2.53769e-05
2.53769e-05
2.5372e-05
2.53623e-05
2.53477e-05
2.53282e-05
2.53039e-05
2.52747e-05
2.52407e-05
2.5202e-05
2.51585e-05
2.37636e-05
2.38704e-05
2.39737e-05
2.40736e-05
2.41699e-05
2.42623e-05
2.43508e-05
2.44352e-05
2.45155e-05
2.45915e-05
2.46631e-05
2.47303e-05
2.47929e-05
2.48509e-05
2.49043e-05
2.49529e-05
2.49969e-05
2.5036e-05
2.50703e-05
2.50998e-05
2.51243e-05
2.5144e-05
2.51588e-05
2.51686e-05
2.51736e-05
2.51736e-05
2.51686e-05
2.51588e-05
2.5144e-05
2.51243e-05
2.50998e-05
2.50703e-05
2.5036e-05
2.49969e-05
2.4953e-05
2.35464e-05
2.36539e-05
2.37579e-05
2.38585e-05
2.39554e-05
2.40485e-05
2.41377e-05
2.42228e-05
2.43036e-05
2.43802e-05
2.44524e-05
2.45202e-05
2.45833e-05
2.46419e-05
2.46957e-05
2.47448e-05
2.47891e-05
2.48286e-05
2.48633e-05
2.4893e-05
2.49178e-05
2.49377e-05
2.49526e-05
2.49625e-05
2.49675e-05
2.49675e-05
2.49625e-05
2.49526e-05
2.49377e-05
2.49178e-05
2.4893e-05
2.48633e-05
2.48286e-05
2.47892e-05
2.47448e-05
2.33274e-05
2.34355e-05
2.35402e-05
2.36414e-05
2.37389e-05
2.38326e-05
2.39224e-05
2.40081e-05
2.40895e-05
2.41667e-05
2.42395e-05
2.43077e-05
2.43714e-05
2.44304e-05
2.44847e-05
2.45342e-05
2.45789e-05
2.46187e-05
2.46537e-05
2.46836e-05
2.47087e-05
2.47287e-05
2.47438e-05
2.47538e-05
2.47589e-05
2.47589e-05
2.47538e-05
2.47438e-05
2.47287e-05
2.47087e-05
2.46837e-05
2.46537e-05
2.46187e-05
2.45789e-05
2.31067e-05
2.32153e-05
2.33205e-05
2.34223e-05
2.35204e-05
2.36147e-05
2.3705e-05
2.37913e-05
2.38733e-05
2.3951e-05
2.40243e-05
2.4093e-05
2.41571e-05
2.42166e-05
2.42713e-05
2.43212e-05
2.43662e-05
2.44064e-05
2.44416e-05
2.44718e-05
2.44971e-05
2.45173e-05
2.45325e-05
2.45426e-05
2.45477e-05
2.45477e-05
2.45426e-05
2.45325e-05
2.45173e-05
2.44971e-05
2.44718e-05
2.44416e-05
2.44064e-05
2.43663e-05
2.28842e-05
2.29934e-05
2.30991e-05
2.32014e-05
2.33e-05
2.33948e-05
2.34857e-05
2.35725e-05
2.3655e-05
2.37332e-05
2.38069e-05
2.38761e-05
2.39407e-05
2.40005e-05
2.40556e-05
2.41059e-05
2.41513e-05
2.41917e-05
2.42272e-05
2.42577e-05
2.42831e-05
2.43035e-05
2.43188e-05
2.4329e-05
2.43341e-05
2.43341e-05
2.4329e-05
2.43188e-05
2.43035e-05
2.42831e-05
2.42577e-05
2.42272e-05
2.41917e-05
2.41513e-05
2.26601e-05
2.27698e-05
2.2876e-05
2.29787e-05
2.30778e-05
2.31731e-05
2.32645e-05
2.33517e-05
2.34347e-05
2.35133e-05
2.35875e-05
2.36571e-05
2.37221e-05
2.37823e-05
2.38378e-05
2.38884e-05
2.39341e-05
2.39748e-05
2.40105e-05
2.40412e-05
2.40668e-05
2.40873e-05
2.41027e-05
2.4113e-05
2.41181e-05
2.41181e-05
2.4113e-05
2.41027e-05
2.40873e-05
2.40668e-05
2.40412e-05
2.40105e-05
2.39748e-05
2.39341e-05
2.24345e-05
2.25446e-05
2.26512e-05
2.27544e-05
2.28539e-05
2.29497e-05
2.30415e-05
2.31291e-05
2.32125e-05
2.32916e-05
2.33662e-05
2.34362e-05
2.35015e-05
2.35621e-05
2.36179e-05
2.36688e-05
2.37147e-05
2.37557e-05
2.37917e-05
2.38225e-05
2.38483e-05
2.3869e-05
2.38845e-05
2.38948e-05
2.39e-05
2.39e-05
2.38948e-05
2.38845e-05
2.3869e-05
2.38483e-05
2.38226e-05
2.37917e-05
2.37557e-05
2.22075e-05
2.23179e-05
2.24249e-05
2.25285e-05
2.26284e-05
2.27245e-05
2.28167e-05
2.29048e-05
2.29886e-05
2.3068e-05
2.31429e-05
2.32133e-05
2.3279e-05
2.33399e-05
2.3396e-05
2.34472e-05
2.34934e-05
2.35346e-05
2.35707e-05
2.36018e-05
2.36277e-05
2.36485e-05
2.36641e-05
2.36745e-05
2.36797e-05
2.36797e-05
2.36745e-05
2.36641e-05
2.36485e-05
2.36277e-05
2.36018e-05
2.35708e-05
2.35346e-05
2.19791e-05
2.20898e-05
2.21971e-05
2.2301e-05
2.24013e-05
2.24978e-05
2.25903e-05
2.26787e-05
2.27629e-05
2.28427e-05
2.29179e-05
2.29886e-05
2.30546e-05
2.31158e-05
2.31722e-05
2.32236e-05
2.32701e-05
2.33115e-05
2.33478e-05
2.3379e-05
2.34051e-05
2.3426e-05
2.34417e-05
2.34522e-05
2.34574e-05
2.34574e-05
2.34522e-05
2.34417e-05
2.3426e-05
2.34051e-05
2.33791e-05
2.33478e-05
2.17494e-05
2.18603e-05
2.1968e-05
2.20722e-05
2.21728e-05
2.22696e-05
2.23624e-05
2.24511e-05
2.25356e-05
2.26156e-05
2.26912e-05
2.27622e-05
2.28284e-05
2.28899e-05
2.29465e-05
2.29982e-05
2.30449e-05
2.30865e-05
2.3123e-05
2.31544e-05
2.31806e-05
2.32016e-05
2.32173e-05
2.32279e-05
2.32331e-05
2.32331e-05
2.32279e-05
2.32173e-05
2.32016e-05
2.31806e-05
2.31544e-05
2.3123e-05
2.15184e-05
2.16296e-05
2.17375e-05
2.1842e-05
2.19429e-05
2.20399e-05
2.2133e-05
2.2222e-05
2.23067e-05
2.23871e-05
2.24629e-05
2.25341e-05
2.26006e-05
2.26623e-05
2.27192e-05
2.2771e-05
2.28179e-05
2.28597e-05
2.28964e-05
2.29279e-05
2.29542e-05
2.29753e-05
2.29911e-05
2.30017e-05
2.3007e-05
2.3007e-05
2.30017e-05
2.29911e-05
2.29753e-05
2.29542e-05
2.29279e-05
2.28964e-05
2.12864e-05
2.13978e-05
2.15059e-05
2.16105e-05
2.17116e-05
2.18089e-05
2.19022e-05
2.19915e-05
2.20764e-05
2.2157e-05
2.2233e-05
2.23045e-05
2.23712e-05
2.24331e-05
2.24902e-05
2.25422e-05
2.25893e-05
2.26312e-05
2.2668e-05
2.26997e-05
2.27261e-05
2.27473e-05
2.27632e-05
2.27738e-05
2.27791e-05
2.27791e-05
2.27738e-05
2.27632e-05
2.27473e-05
2.27261e-05
2.26997e-05
2.2668e-05
2.10532e-05
2.11648e-05
2.1273e-05
2.13779e-05
2.14791e-05
2.15766e-05
2.16701e-05
2.17595e-05
2.18447e-05
2.19255e-05
2.20017e-05
2.20734e-05
2.21403e-05
2.22024e-05
2.22596e-05
2.23118e-05
2.2359e-05
2.24011e-05
2.2438e-05
2.24698e-05
2.24963e-05
2.25175e-05
2.25335e-05
2.25441e-05
2.25495e-05
2.25495e-05
2.25441e-05
2.25335e-05
2.25175e-05
2.24963e-05
2.24698e-05
2.2438e-05
2.08191e-05
2.09308e-05
2.10391e-05
2.11441e-05
2.12455e-05
2.13431e-05
2.14368e-05
2.15264e-05
2.16117e-05
2.16926e-05
2.17691e-05
2.18409e-05
2.19079e-05
2.19702e-05
2.20275e-05
2.20799e-05
2.21272e-05
2.21694e-05
2.22065e-05
2.22383e-05
2.22649e-05
2.22862e-05
2.23022e-05
2.23129e-05
2.23183e-05
2.23183e-05
2.23129e-05
2.23022e-05
2.22862e-05
2.22649e-05
2.22383e-05
2.22065e-05
2.05841e-05
2.06958e-05
2.08042e-05
2.09093e-05
2.10108e-05
2.11085e-05
2.12023e-05
2.1292e-05
2.13775e-05
2.14585e-05
2.15351e-05
2.1607e-05
2.16742e-05
2.17366e-05
2.17941e-05
2.18466e-05
2.1894e-05
2.19363e-05
2.19735e-05
2.20054e-05
2.2032e-05
2.20534e-05
2.20695e-05
2.20802e-05
2.20855e-05
2.20855e-05
2.20802e-05
2.20695e-05
2.20534e-05
2.2032e-05
2.20054e-05
2.19735e-05
2.03482e-05
2.04599e-05
2.05684e-05
2.06735e-05
2.0775e-05
2.08729e-05
2.09667e-05
2.10565e-05
2.11421e-05
2.12232e-05
2.12999e-05
2.13719e-05
2.14393e-05
2.15017e-05
2.15593e-05
2.16119e-05
2.16594e-05
2.17018e-05
2.1739e-05
2.1771e-05
2.17977e-05
2.18192e-05
2.18352e-05
2.1846e-05
2.18513e-05
2.18513e-05
2.1846e-05
2.18352e-05
2.18192e-05
2.17977e-05
2.1771e-05
2.1739e-05
2.01115e-05
2.02232e-05
2.03317e-05
2.04368e-05
2.05384e-05
2.06362e-05
2.07302e-05
2.082e-05
2.09056e-05
2.09868e-05
2.10636e-05
2.11357e-05
2.12031e-05
2.12657e-05
2.13233e-05
2.1376e-05
2.14236e-05
2.1466e-05
2.15033e-05
2.15353e-05
2.15621e-05
2.15836e-05
2.15997e-05
2.16104e-05
2.16158e-05
2.16158e-05
2.16104e-05
2.15997e-05
2.15836e-05
2.15621e-05
2.15354e-05
2.15033e-05
1.98741e-05
1.99857e-05
2.00942e-05
2.01993e-05
2.03008e-05
2.03987e-05
2.04926e-05
2.05825e-05
2.06681e-05
2.07494e-05
2.08262e-05
2.08984e-05
2.09658e-05
2.10284e-05
2.10861e-05
2.11388e-05
2.11865e-05
2.1229e-05
2.12663e-05
2.12984e-05
2.13252e-05
2.13467e-05
2.13628e-05
2.13736e-05
2.1379e-05
2.1379e-05
2.13736e-05
2.13628e-05
2.13467e-05
2.13252e-05
2.12984e-05
2.12663e-05
1.96361e-05
1.97476e-05
1.98559e-05
1.9961e-05
2.00625e-05
2.01603e-05
2.02542e-05
2.03441e-05
2.04297e-05
2.0511e-05
2.05878e-05
2.066e-05
2.07275e-05
2.07901e-05
2.08479e-05
2.09006e-05
2.09483e-05
2.09908e-05
2.10282e-05
2.10603e-05
2.10871e-05
2.11086e-05
2.11248e-05
2.11356e-05
2.1141e-05
2.1141e-05
2.11356e-05
2.11248e-05
2.11086e-05
2.10871e-05
2.10603e-05
2.10282e-05
1.93974e-05
1.95088e-05
1.96171e-05
1.9722e-05
1.98234e-05
1.99212e-05
2.0015e-05
2.01049e-05
2.01905e-05
2.02717e-05
2.03485e-05
2.04207e-05
2.04882e-05
2.05508e-05
2.06086e-05
2.06613e-05
2.0709e-05
2.07516e-05
2.0789e-05
2.08211e-05
2.08479e-05
2.08695e-05
2.08856e-05
2.08964e-05
2.09018e-05
2.09018e-05
2.08964e-05
2.08856e-05
2.08695e-05
2.08479e-05
2.08211e-05
2.0789e-05
1.91583e-05
1.92695e-05
1.93776e-05
1.94824e-05
1.95837e-05
1.96814e-05
1.97751e-05
1.98649e-05
1.99504e-05
2.00316e-05
2.01084e-05
2.01805e-05
2.0248e-05
2.03106e-05
2.03683e-05
2.04211e-05
2.04688e-05
2.05114e-05
2.05487e-05
2.05809e-05
2.06077e-05
2.06292e-05
2.06454e-05
2.06562e-05
2.06616e-05
2.06616e-05
2.06562e-05
2.06454e-05
2.06292e-05
2.06077e-05
2.05809e-05
2.05488e-05
1.89187e-05
1.90297e-05
1.91376e-05
1.92422e-05
1.93434e-05
1.94409e-05
1.95346e-05
1.96242e-05
1.97096e-05
1.97908e-05
1.98674e-05
1.99395e-05
2.00069e-05
2.00695e-05
2.01272e-05
2.018e-05
2.02277e-05
2.02702e-05
2.03076e-05
2.03397e-05
2.03665e-05
2.03881e-05
2.04042e-05
2.0415e-05
2.04204e-05
2.04204e-05
2.0415e-05
2.04042e-05
2.03881e-05
2.03665e-05
2.03397e-05
2.03076e-05
1.86787e-05
1.87895e-05
1.88971e-05
1.90016e-05
1.91026e-05
1.91999e-05
1.92934e-05
1.93829e-05
1.94682e-05
1.95492e-05
1.96258e-05
1.96978e-05
1.97651e-05
1.98277e-05
1.98853e-05
1.9938e-05
1.99857e-05
2.00282e-05
2.00655e-05
2.00976e-05
2.01245e-05
2.0146e-05
2.01621e-05
2.01729e-05
2.01783e-05
2.01783e-05
2.01729e-05
2.01621e-05
2.0146e-05
2.01245e-05
2.00977e-05
2.00655e-05
1.84384e-05
1.85489e-05
1.86563e-05
1.87605e-05
1.88612e-05
1.89584e-05
1.90517e-05
1.9141e-05
1.92262e-05
1.93071e-05
1.93835e-05
1.94554e-05
1.95226e-05
1.95851e-05
1.96427e-05
1.96953e-05
1.97429e-05
1.97854e-05
1.98227e-05
1.98548e-05
1.98816e-05
1.99031e-05
1.99192e-05
1.993e-05
1.99354e-05
1.99354e-05
1.993e-05
1.99192e-05
1.99031e-05
1.98816e-05
1.98548e-05
1.81978e-05
1.8308e-05
1.84151e-05
1.8519e-05
1.86195e-05
1.87164e-05
1.88095e-05
1.88986e-05
1.89836e-05
1.90643e-05
1.91407e-05
1.92124e-05
1.92795e-05
1.93419e-05
1.93994e-05
1.9452e-05
1.94995e-05
1.95419e-05
1.95792e-05
1.96112e-05
1.9638e-05
1.96594e-05
1.96756e-05
1.96863e-05
1.96917e-05
1.96917e-05
1.96863e-05
1.96756e-05
1.96594e-05
1.9638e-05
1.96112e-05
1.7957e-05
1.80668e-05
1.81736e-05
1.82772e-05
1.83775e-05
1.84741e-05
1.85669e-05
1.86558e-05
1.87406e-05
1.88212e-05
1.88973e-05
1.89689e-05
1.90359e-05
1.90981e-05
1.91555e-05
1.9208e-05
1.92554e-05
1.92977e-05
1.93349e-05
1.93669e-05
1.93937e-05
1.94151e-05
1.94312e-05
1.94419e-05
1.94473e-05
1.94473e-05
1.94419e-05
1.94312e-05
1.94151e-05
1.93937e-05
1.77161e-05
1.78255e-05
1.79319e-05
1.80352e-05
1.81351e-05
1.82315e-05
1.8324e-05
1.84127e-05
1.84972e-05
1.85775e-05
1.86535e-05
1.87249e-05
1.87917e-05
1.88538e-05
1.89111e-05
1.89634e-05
1.90108e-05
1.9053e-05
1.90901e-05
1.91221e-05
1.91487e-05
1.91701e-05
1.91862e-05
1.91969e-05
1.92023e-05
1.92023e-05
1.91969e-05
1.91862e-05
1.91701e-05
1.91487e-05
1.7475e-05
1.7584e-05
1.76901e-05
1.7793e-05
1.78926e-05
1.79886e-05
1.80808e-05
1.81692e-05
1.82535e-05
1.83336e-05
1.84093e-05
1.84805e-05
1.85472e-05
1.86091e-05
1.86662e-05
1.87184e-05
1.87656e-05
1.88078e-05
1.88448e-05
1.88767e-05
1.89033e-05
1.89246e-05
1.89407e-05
1.89514e-05
1.89567e-05
1.89567e-05
1.89514e-05
1.89407e-05
1.89246e-05
1.89033e-05
1.72339e-05
1.73425e-05
1.74481e-05
1.75507e-05
1.76498e-05
1.77455e-05
1.78374e-05
1.79255e-05
1.80095e-05
1.80893e-05
1.81648e-05
1.82358e-05
1.83022e-05
1.8364e-05
1.84209e-05
1.8473e-05
1.85201e-05
1.85621e-05
1.8599e-05
1.86308e-05
1.86574e-05
1.86786e-05
1.86946e-05
1.87053e-05
1.87107e-05
1.87107e-05
1.87053e-05
1.86946e-05
1.86786e-05
1.86574e-05
1.69929e-05
1.7101e-05
1.72061e-05
1.73082e-05
1.7407e-05
1.75023e-05
1.75939e-05
1.76816e-05
1.77653e-05
1.78448e-05
1.792e-05
1.79908e-05
1.8057e-05
1.81185e-05
1.81753e-05
1.82272e-05
1.82741e-05
1.8316e-05
1.83529e-05
1.83845e-05
1.8411e-05
1.84322e-05
1.84482e-05
1.84588e-05
1.84642e-05
1.84642e-05
1.84588e-05
1.84482e-05
1.84322e-05
1.8411e-05
1.67519e-05
1.68594e-05
1.69642e-05
1.70658e-05
1.71641e-05
1.7259e-05
1.73502e-05
1.74376e-05
1.75209e-05
1.76001e-05
1.7675e-05
1.77455e-05
1.78115e-05
1.78728e-05
1.79294e-05
1.79811e-05
1.80279e-05
1.80697e-05
1.81064e-05
1.81379e-05
1.81643e-05
1.81855e-05
1.82014e-05
1.8212e-05
1.82173e-05
1.82173e-05
1.8212e-05
1.82014e-05
1.81855e-05
1.81643e-05
1.6511e-05
1.6618e-05
1.67222e-05
1.68234e-05
1.69213e-05
1.70157e-05
1.71065e-05
1.71935e-05
1.72764e-05
1.73553e-05
1.74299e-05
1.75001e-05
1.75658e-05
1.76269e-05
1.76833e-05
1.77348e-05
1.77814e-05
1.7823e-05
1.78596e-05
1.7891e-05
1.79173e-05
1.79384e-05
1.79543e-05
1.79648e-05
1.79701e-05
1.79701e-05
1.79648e-05
1.79543e-05
1.79384e-05
1.79173e-05
1.62703e-05
1.63768e-05
1.64804e-05
1.65811e-05
1.66785e-05
1.67724e-05
1.68628e-05
1.69493e-05
1.70319e-05
1.71105e-05
1.71847e-05
1.72546e-05
1.732e-05
1.73809e-05
1.7437e-05
1.74883e-05
1.75347e-05
1.75762e-05
1.76126e-05
1.76439e-05
1.76701e-05
1.76911e-05
1.77069e-05
1.77174e-05
1.77227e-05
1.77227e-05
1.77174e-05
1.77069e-05
1.76911e-05
1.76701e-05
1.60298e-05
1.61357e-05
1.62388e-05
1.63389e-05
1.64358e-05
1.65293e-05
1.66191e-05
1.67053e-05
1.67875e-05
1.68656e-05
1.69395e-05
1.70091e-05
1.70742e-05
1.71347e-05
1.71906e-05
1.72417e-05
1.72879e-05
1.73292e-05
1.73655e-05
1.73967e-05
1.74228e-05
1.74437e-05
1.74594e-05
1.74699e-05
1.74751e-05
1.74751e-05
1.74699e-05
1.74594e-05
1.74437e-05
1.74228e-05
1.57896e-05
1.58949e-05
1.59974e-05
1.60969e-05
1.61933e-05
1.62862e-05
1.63756e-05
1.64613e-05
1.65431e-05
1.66208e-05
1.66943e-05
1.67635e-05
1.68283e-05
1.68886e-05
1.69442e-05
1.6995e-05
1.7041e-05
1.70821e-05
1.71182e-05
1.71493e-05
1.71753e-05
1.71961e-05
1.72117e-05
1.72222e-05
1.72274e-05
1.72274e-05
1.72222e-05
1.72117e-05
1.71961e-05
1.71753e-05
1.55497e-05
1.56543e-05
1.57562e-05
1.58552e-05
1.5951e-05
1.60434e-05
1.61323e-05
1.62175e-05
1.62988e-05
1.63761e-05
1.64492e-05
1.65181e-05
1.65825e-05
1.66425e-05
1.66978e-05
1.67484e-05
1.67942e-05
1.68351e-05
1.6871e-05
1.69019e-05
1.69277e-05
1.69485e-05
1.6964e-05
1.69744e-05
1.69796e-05
1.69796e-05
1.69744e-05
1.6964e-05
1.69485e-05
1.69277e-05
1.53102e-05
1.54141e-05
1.55154e-05
1.56137e-05
1.57089e-05
1.58008e-05
1.58892e-05
1.59738e-05
1.60547e-05
1.61315e-05
1.62043e-05
1.62727e-05
1.63368e-05
1.63964e-05
1.64515e-05
1.65018e-05
1.65473e-05
1.6588e-05
1.66238e-05
1.66545e-05
1.66802e-05
1.67008e-05
1.67163e-05
1.67267e-05
1.67319e-05
1.67319e-05
1.67267e-05
1.67163e-05
1.67008e-05
1.66802e-05
1.50711e-05
1.51744e-05
1.52749e-05
1.53726e-05
1.54672e-05
1.55585e-05
1.56463e-05
1.57304e-05
1.58108e-05
1.58872e-05
1.59595e-05
1.60276e-05
1.60913e-05
1.61506e-05
1.62053e-05
1.62553e-05
1.63006e-05
1.6341e-05
1.63766e-05
1.64072e-05
1.64328e-05
1.64533e-05
1.64687e-05
1.6479e-05
1.64841e-05
1.64841e-05
1.6479e-05
1.64687e-05
1.64533e-05
1.64328e-05
1.48324e-05
1.4935e-05
1.50349e-05
1.51319e-05
1.52259e-05
1.53166e-05
1.54038e-05
1.54874e-05
1.55672e-05
1.56431e-05
1.5715e-05
1.57826e-05
1.5846e-05
1.59049e-05
1.59592e-05
1.6009e-05
1.6054e-05
1.60942e-05
1.61296e-05
1.616e-05
1.61854e-05
1.62058e-05
1.62211e-05
1.62314e-05
1.62365e-05
1.62365e-05
1.62314e-05
1.62211e-05
1.62058e-05
1.61854e-05
1.45943e-05
1.46961e-05
1.47953e-05
1.48917e-05
1.4985e-05
1.5075e-05
1.51616e-05
1.52447e-05
1.53239e-05
1.53994e-05
1.54707e-05
1.55379e-05
1.56009e-05
1.56594e-05
1.57135e-05
1.57629e-05
1.58076e-05
1.58476e-05
1.58828e-05
1.5913e-05
1.59383e-05
1.59585e-05
1.59738e-05
1.59839e-05
1.5989e-05
1.5989e-05
1.59839e-05
1.59738e-05
1.59585e-05
1.59383e-05
1.43568e-05
1.44578e-05
1.45563e-05
1.46519e-05
1.47445e-05
1.48339e-05
1.49199e-05
1.50023e-05
1.50811e-05
1.5156e-05
1.52268e-05
1.52936e-05
1.53561e-05
1.54143e-05
1.5468e-05
1.55171e-05
1.55615e-05
1.56013e-05
1.56362e-05
1.56662e-05
1.56913e-05
1.57115e-05
1.57266e-05
1.57367e-05
1.57418e-05
1.57418e-05
1.57367e-05
1.57266e-05
1.57115e-05
1.56913e-05
1.41198e-05
1.42201e-05
1.43178e-05
1.44127e-05
1.45046e-05
1.45933e-05
1.46786e-05
1.47605e-05
1.48386e-05
1.4913e-05
1.49834e-05
1.50496e-05
1.51117e-05
1.51695e-05
1.52228e-05
1.52716e-05
1.53157e-05
1.53552e-05
1.53899e-05
1.54197e-05
1.54447e-05
1.54647e-05
1.54797e-05
1.54898e-05
1.54948e-05
1.54948e-05
1.54898e-05
1.54797e-05
1.54647e-05
1.54447e-05
1.38835e-05
1.39829e-05
1.40799e-05
1.4174e-05
1.42652e-05
1.43532e-05
1.44379e-05
1.45191e-05
1.45967e-05
1.46704e-05
1.47403e-05
1.48061e-05
1.48677e-05
1.49251e-05
1.4978e-05
1.50264e-05
1.50703e-05
1.51095e-05
1.51439e-05
1.51735e-05
1.51983e-05
1.52182e-05
1.52331e-05
1.52431e-05
1.52481e-05
1.52481e-05
1.52431e-05
1.52331e-05
1.52182e-05
1.51983e-05
1.36479e-05
1.37465e-05
1.38426e-05
1.3936e-05
1.40264e-05
1.41137e-05
1.41977e-05
1.42783e-05
1.43552e-05
1.44284e-05
1.44978e-05
1.45631e-05
1.46242e-05
1.46811e-05
1.47337e-05
1.47817e-05
1.48253e-05
1.48642e-05
1.48984e-05
1.49278e-05
1.49524e-05
1.49721e-05
1.49869e-05
1.49969e-05
1.50018e-05
1.50018e-05
1.49969e-05
1.49869e-05
1.49721e-05
1.49524e-05
1.3413e-05
1.35107e-05
1.3606e-05
1.36986e-05
1.37883e-05
1.38748e-05
1.39581e-05
1.4038e-05
1.41144e-05
1.4187e-05
1.42557e-05
1.43205e-05
1.43812e-05
1.44377e-05
1.44898e-05
1.45375e-05
1.45807e-05
1.46193e-05
1.46532e-05
1.46824e-05
1.47069e-05
1.47264e-05
1.47412e-05
1.4751e-05
1.47559e-05
1.47559e-05
1.4751e-05
1.47412e-05
1.47264e-05
1.47069e-05
1.31758e-05
1.32757e-05
1.33702e-05
1.34619e-05
1.35508e-05
1.36366e-05
1.37192e-05
1.37984e-05
1.38741e-05
1.39461e-05
1.40143e-05
1.40786e-05
1.41387e-05
1.41947e-05
1.42465e-05
1.42938e-05
1.43366e-05
1.43749e-05
1.44086e-05
1.44376e-05
1.44618e-05
1.44813e-05
1.44959e-05
1.45056e-05
1.45105e-05
1.45105e-05
1.45056e-05
1.44959e-05
1.44813e-05
1.44618e-05
1.29363e-05
1.30415e-05
1.31351e-05
1.3226e-05
1.33141e-05
1.33991e-05
1.3481e-05
1.35595e-05
1.36345e-05
1.37059e-05
1.37735e-05
1.38372e-05
1.38969e-05
1.39524e-05
1.40037e-05
1.40506e-05
1.40931e-05
1.41311e-05
1.41645e-05
1.41933e-05
1.42173e-05
1.42366e-05
1.42511e-05
1.42608e-05
1.42656e-05
1.42656e-05
1.42608e-05
1.42511e-05
1.42366e-05
1.42173e-05
1.29008e-05
1.29909e-05
1.30782e-05
1.31624e-05
1.32435e-05
1.33213e-05
1.33956e-05
1.34664e-05
1.35334e-05
1.35965e-05
1.36557e-05
1.37107e-05
1.39734e-05
1.39925e-05
1.40069e-05
1.40164e-05
1.40213e-05
1.40213e-05
1.40164e-05
1.40069e-05
1.39925e-05
1.39734e-05
2.94093e-05
2.94182e-05
2.94249e-05
2.94294e-05
2.94316e-05
2.94316e-05
2.94294e-05
2.94249e-05
2.94182e-05
2.94093e-05
2.93089e-05
2.93209e-05
2.93304e-05
2.93375e-05
2.93423e-05
2.93446e-05
2.93446e-05
2.93422e-05
2.93375e-05
2.93304e-05
2.93209e-05
2.93089e-05
2.92945e-05
2.92776e-05
2.92582e-05
2.92362e-05
2.92115e-05
2.91843e-05
2.91543e-05
2.91216e-05
2.9086e-05
2.91809e-05
2.91988e-05
2.9214e-05
2.92267e-05
2.92368e-05
2.92443e-05
2.92493e-05
2.92518e-05
2.92518e-05
2.92493e-05
2.92443e-05
2.92368e-05
2.92267e-05
2.9214e-05
2.91988e-05
2.91809e-05
2.91604e-05
2.91372e-05
2.91112e-05
2.90825e-05
2.90509e-05
2.90165e-05
2.89792e-05
2.89389e-05
2.88957e-05
2.88494e-05
2.88001e-05
2.90054e-05
2.90326e-05
2.9057e-05
2.90786e-05
2.90974e-05
2.91135e-05
2.91268e-05
2.91374e-05
2.91454e-05
2.91507e-05
2.91533e-05
2.91533e-05
2.91507e-05
2.91454e-05
2.91374e-05
2.91268e-05
2.91135e-05
2.90974e-05
2.90786e-05
2.9057e-05
2.90326e-05
2.90053e-05
2.89752e-05
2.89421e-05
2.8906e-05
2.8867e-05
2.88249e-05
2.87797e-05
2.87314e-05
2.868e-05
2.86254e-05
2.85677e-05
2.85068e-05
2.88279e-05
2.88625e-05
2.8894e-05
2.89226e-05
2.89482e-05
2.89708e-05
2.89905e-05
2.90074e-05
2.90214e-05
2.90325e-05
2.90409e-05
2.90464e-05
2.90492e-05
2.90492e-05
2.90464e-05
2.90409e-05
2.90325e-05
2.90213e-05
2.90073e-05
2.89905e-05
2.89708e-05
2.89481e-05
2.89226e-05
2.8894e-05
2.88625e-05
2.88279e-05
2.87903e-05
2.87495e-05
2.87056e-05
2.86586e-05
2.86084e-05
2.85549e-05
2.84983e-05
2.84384e-05
2.83753e-05
2.8309e-05
2.82395e-05
2.81666e-05
2.86269e-05
2.86693e-05
2.87085e-05
2.87445e-05
2.87774e-05
2.88072e-05
2.88339e-05
2.88575e-05
2.88782e-05
2.88958e-05
2.89104e-05
2.89221e-05
2.89309e-05
2.89367e-05
2.89396e-05
2.89396e-05
2.89367e-05
2.89309e-05
2.89221e-05
2.89104e-05
2.88958e-05
2.88782e-05
2.88575e-05
2.88339e-05
2.88072e-05
2.87774e-05
2.87445e-05
2.87085e-05
2.86693e-05
2.86269e-05
2.85813e-05
2.85324e-05
2.84803e-05
2.84249e-05
2.83662e-05
2.83043e-05
2.82391e-05
2.81707e-05
2.8099e-05
2.80239e-05
2.8452e-05
2.84993e-05
2.85432e-05
2.8584e-05
2.86214e-05
2.86556e-05
2.86866e-05
2.87144e-05
2.8739e-05
2.87605e-05
2.87789e-05
2.87941e-05
2.88063e-05
2.88155e-05
2.88215e-05
2.88246e-05
2.88246e-05
2.88215e-05
2.88155e-05
2.88063e-05
2.87941e-05
2.87789e-05
2.87605e-05
2.8739e-05
2.87144e-05
2.86866e-05
2.86556e-05
2.86214e-05
2.85839e-05
2.85432e-05
2.84992e-05
2.84519e-05
2.84013e-05
2.83474e-05
2.82901e-05
2.82295e-05
2.81655e-05
2.80983e-05
2.80278e-05
2.7954e-05
2.78768e-05
2.82655e-05
2.83178e-05
2.83667e-05
2.84122e-05
2.84544e-05
2.84932e-05
2.85287e-05
2.85608e-05
2.85897e-05
2.86153e-05
2.86376e-05
2.86567e-05
2.86726e-05
2.86853e-05
2.86948e-05
2.87011e-05
2.87043e-05
2.87043e-05
2.87011e-05
2.86948e-05
2.86853e-05
2.86726e-05
2.86567e-05
2.86376e-05
2.86153e-05
2.85897e-05
2.85608e-05
2.85287e-05
2.84932e-05
2.84544e-05
2.84122e-05
2.83667e-05
2.83178e-05
2.82654e-05
2.82097e-05
2.81506e-05
2.80881e-05
2.80222e-05
2.7953e-05
2.78805e-05
2.78046e-05
2.77254e-05
2.80675e-05
2.81249e-05
2.81789e-05
2.82294e-05
2.82764e-05
2.832e-05
2.83601e-05
2.83968e-05
2.84301e-05
2.846e-05
2.84865e-05
2.85097e-05
2.85295e-05
2.85459e-05
2.85591e-05
2.8569e-05
2.85755e-05
2.85788e-05
2.85788e-05
2.85755e-05
2.8569e-05
2.85591e-05
2.85459e-05
2.85295e-05
2.85096e-05
2.84865e-05
2.846e-05
2.84301e-05
2.83968e-05
2.83601e-05
2.832e-05
2.82764e-05
2.82293e-05
2.81788e-05
2.81249e-05
2.80674e-05
2.80066e-05
2.79422e-05
2.78745e-05
2.78033e-05
2.77289e-05
2.76511e-05
2.75698e-05
2.78581e-05
2.79207e-05
2.79798e-05
2.80353e-05
2.80874e-05
2.81358e-05
2.81808e-05
2.82222e-05
2.82601e-05
2.82945e-05
2.83254e-05
2.83528e-05
2.83767e-05
2.83972e-05
2.84143e-05
2.84279e-05
2.84381e-05
2.84449e-05
2.84483e-05
2.84483e-05
2.84449e-05
2.84381e-05
2.84279e-05
2.84143e-05
2.83972e-05
2.83767e-05
2.83528e-05
2.83254e-05
2.82945e-05
2.82601e-05
2.82222e-05
2.81808e-05
2.81358e-05
2.80873e-05
2.80353e-05
2.79798e-05
2.79207e-05
2.78581e-05
2.7792e-05
2.77224e-05
2.76495e-05
2.75731e-05
2.74934e-05
2.74103e-05
2.77053e-05
2.77696e-05
2.78302e-05
2.78873e-05
2.79408e-05
2.79907e-05
2.8037e-05
2.80796e-05
2.81187e-05
2.81541e-05
2.8186e-05
2.82143e-05
2.8239e-05
2.82601e-05
2.82777e-05
2.82918e-05
2.83024e-05
2.83094e-05
2.83129e-05
2.83129e-05
2.83094e-05
2.83024e-05
2.82918e-05
2.82777e-05
2.82601e-05
2.8239e-05
2.82143e-05
2.8186e-05
2.81541e-05
2.81187e-05
2.80796e-05
2.8037e-05
2.79907e-05
2.79408e-05
2.78873e-05
2.78302e-05
2.77695e-05
2.77053e-05
2.76375e-05
2.75662e-05
2.74915e-05
2.74133e-05
2.73318e-05
2.72469e-05
2.74789e-05
2.75484e-05
2.76142e-05
2.76764e-05
2.7735e-05
2.77899e-05
2.78411e-05
2.78887e-05
2.79325e-05
2.79727e-05
2.80091e-05
2.80419e-05
2.80711e-05
2.80965e-05
2.81183e-05
2.81364e-05
2.81509e-05
2.81618e-05
2.81691e-05
2.81727e-05
2.81727e-05
2.81691e-05
2.81618e-05
2.81509e-05
2.81364e-05
2.81183e-05
2.80965e-05
2.8071e-05
2.80419e-05
2.80091e-05
2.79727e-05
2.79325e-05
2.78886e-05
2.78411e-05
2.77899e-05
2.7735e-05
2.76764e-05
2.76142e-05
2.75483e-05
2.74789e-05
2.74059e-05
2.73295e-05
2.72496e-05
2.71664e-05
2.70796e-05
2.72418e-05
2.73163e-05
2.73873e-05
2.74547e-05
2.75184e-05
2.75784e-05
2.76347e-05
2.76872e-05
2.7736e-05
2.7781e-05
2.78222e-05
2.78597e-05
2.78933e-05
2.79233e-05
2.79494e-05
2.79719e-05
2.79905e-05
2.80054e-05
2.80166e-05
2.80241e-05