/*--------------------------------*- C++ -*----------------------------------*\
  =========                 |
  \\      /  F ield         | OpenFOAM: The Open Source CFD Toolbox
   \\    /   O peration     | Website:  https://openfoam.org
    \\  /    A nd           | Version:  7
     \\/     M anipulation  |
\*---------------------------------------------------------------------------*/
FoamFile
{
    version     2.0;
    format      ascii;
    class       volScalarField;
    location    "220000";
    object      p;
}
// * * * * * * * * * * * * * * * * * * * * * * * * * * * * * * * * * * * * * //

dimensions      [0 2 -2 0 0 0 0];

internalField   nonuniform List<scalar> 
4782
(
-2.31914e-18
-2.31993e-18
-2.32056e-18
-2.3216e-18
-2.32327e-18
-2.31996e-18
-2.31786e-18
-2.31998e-18
-2.32192e-18
-2.31946e-18
-2.29191e-18
-2.29226e-18
-2.30637e-18
-2.30748e-18
-2.304e-18
-2.32202e-18
-2.31432e-18
-2.30115e-18
-2.30416e-18
-2.29946e-18
-2.30182e-18
-2.30807e-18
-2.31106e-18
-2.3109e-18
-2.30915e-18
-2.31085e-18
-2.31098e-18
-2.30904e-18
-2.30925e-18
-2.30382e-18
-2.30881e-18
-2.3204e-18
-2.32829e-18
-2.31436e-18
-2.30967e-18
-2.30376e-18
-2.30406e-18
-2.31166e-18
-2.31479e-18
-2.31237e-18
-2.30761e-18
-2.30713e-18
-2.31683e-18
-2.31565e-18
-2.31489e-18
-2.31064e-18
-2.31495e-18
-2.31957e-18
-2.31364e-18
-2.31417e-18
-2.32061e-18
-2.3155e-18
-2.31461e-18
-2.32241e-18
-2.3223e-18
-2.31488e-18
-2.31162e-18
-2.31001e-18
-2.3186e-18
-2.31991e-18
-2.31904e-18
-2.31739e-18
-2.3127e-18
-2.31125e-18
-2.31891e-18
-2.3264e-18
-2.32827e-18
-2.32303e-18
-2.32312e-18
-2.32379e-18
-2.32515e-18
-2.33136e-18
-2.33054e-18
-2.32729e-18
-2.33728e-18
-2.32684e-18
-2.32635e-18
-2.32828e-18
-2.32617e-18
-2.32112e-18
-2.33158e-18
-2.33698e-18
-2.33705e-18
-2.32776e-18
-2.32951e-18
-2.32712e-18
-2.33132e-18
-2.3282e-18
-2.32262e-18
-2.32191e-18
-2.32552e-18
-2.3222e-18
-2.31255e-18
-2.32264e-18
-2.32794e-18
-2.32323e-18
-2.32252e-18
-2.32757e-18
-2.32525e-18
-2.3198e-18
-2.3184e-18
-2.32725e-18
-2.33087e-18
-2.32506e-18
-2.3231e-18
-2.32089e-18
-2.32606e-18
-2.32089e-18
-2.32382e-18
-2.32101e-18
-2.32414e-18
-2.32667e-18
-2.32443e-18
-2.32286e-18
-2.32403e-18
-2.32467e-18
-2.32767e-18
-2.32462e-18
-2.32182e-18
-2.32176e-18
-2.3148e-18
-2.29801e-18
-2.30497e-18
-2.30408e-18
-2.29905e-18
-2.30228e-18
-2.30482e-18
-2.31108e-18
-2.3264e-18
-2.31903e-18
-2.31547e-18
-2.3127e-18
-2.30302e-18
-2.30095e-18
-2.31307e-18
-2.31876e-18
-2.32207e-18
-2.31979e-18
-2.31857e-18
-2.31069e-18
-2.31426e-18
-2.3147e-18
-2.31911e-18
-2.32328e-18
-2.32346e-18
-2.32605e-18
-2.32188e-18
-2.31977e-18
-2.31683e-18
-2.31962e-18
-2.32523e-18
-2.31885e-18
-2.32255e-18
-2.31985e-18
-2.31845e-18
-2.31588e-18
-2.32476e-18
-2.32348e-18
-2.32176e-18
-2.32162e-18
-2.3214e-18
-2.32082e-18
-2.32081e-18
-2.31834e-18
-2.32005e-18
-2.32607e-18
-2.32335e-18
-2.3226e-18
-2.32484e-18
-2.3206e-18
-2.318e-18
-2.32077e-18
-2.32144e-18
-2.32171e-18
-2.31922e-18
-2.32239e-18
-2.33165e-18
-2.33214e-18
-2.32511e-18
-2.32193e-18
-2.31794e-18
-2.32063e-18
-2.33312e-18
-2.33382e-18
-2.33466e-18
-2.3266e-18
-2.323e-18
-2.32455e-18
-2.33525e-18
-2.33795e-18
-2.33578e-18
-2.33543e-18
-2.33907e-18
-2.33235e-18
-2.33784e-18
-2.34185e-18
-2.34082e-18
-2.32967e-18
-2.3347e-18
-2.33806e-18
-2.33905e-18
-2.32746e-18
-2.33581e-18
-2.33979e-18
-2.34202e-18
-2.34177e-18
-2.33189e-18
-2.33232e-18
-2.34561e-18
-2.33705e-18
-2.32916e-18
-2.33499e-18
-2.33874e-18
-2.33686e-18
-2.33645e-18
-2.33101e-18
-2.32669e-18
-2.32587e-18
-2.32536e-18
-2.32992e-18
-2.33035e-18
-2.33421e-18
-2.33111e-18
-2.32351e-18
-2.32701e-18
-2.32655e-18
-2.32537e-18
-2.32437e-18
-2.32473e-18
-2.32616e-18
-2.33255e-18
-2.32535e-18
-2.32739e-18
-2.3293e-18
-2.33121e-18
-2.33431e-18
-2.33316e-18
-2.3354e-18
-2.32797e-18
-2.31535e-18
-2.32642e-18
-2.33555e-18
-2.33342e-18
-2.3212e-18
-2.31651e-18
-2.3225e-18
-2.32953e-18
-2.32363e-18
-2.32867e-18
-2.32567e-18
-2.33275e-18
-2.32667e-18
-2.3353e-18
-2.33259e-18
-2.32986e-18
-2.33249e-18
-2.34403e-18
-2.3321e-18
-2.3263e-18
-2.32784e-18
-2.33079e-18
-2.33133e-18
-2.33404e-18
-2.32204e-18
-2.33012e-18
-2.33686e-18
-2.33205e-18
-2.33104e-18
-2.33099e-18
-2.33055e-18
-2.33038e-18
-2.3308e-18
-2.33246e-18
-2.33532e-18
-2.32893e-18
-2.32819e-18
-2.32232e-18
-2.32346e-18
-2.3286e-18
-2.3251e-18
-2.32453e-18
-2.32495e-18
-2.32597e-18
-2.3266e-18
-2.32438e-18
-2.32416e-18
-2.33363e-18
-2.3292e-18
-2.3308e-18
-2.33362e-18
-2.33654e-18
-2.34182e-18
-2.33973e-18
-2.327e-18
-2.33246e-18
-2.34036e-18
-2.34231e-18
-2.35163e-18
-2.35632e-18
-2.34832e-18
-2.33904e-18
-2.33219e-18
-2.33742e-18
-2.34052e-18
-2.3489e-18
-2.34402e-18
-2.34122e-18
-2.34093e-18
-2.34079e-18
-2.33865e-18
-2.3346e-18
-2.33979e-18
-2.33594e-18
-2.34007e-18
-2.33252e-18
-2.33098e-18
-2.33748e-18
-2.34059e-18
-2.34303e-18
-2.34239e-18
-2.34397e-18
-2.33687e-18
-2.33578e-18
-2.33746e-18
-2.33751e-18
-2.33666e-18
-2.33524e-18
-2.33483e-18
-2.33933e-18
-2.33512e-18
-2.32899e-18
-2.33444e-18
-2.33257e-18
-2.32915e-18
-2.33172e-18
-2.3335e-18
-2.32786e-18
-2.32965e-18
-2.32803e-18
-2.33004e-18
-2.32985e-18
-2.32679e-18
-2.3252e-18
-2.32712e-18
-2.32661e-18
-2.32484e-18
-2.32289e-18
-2.32665e-18
-2.32921e-18
-2.32937e-18
-2.32727e-18
-2.33476e-18
-2.33231e-18
-2.32043e-18
-2.33063e-18
-2.33131e-18
-2.32874e-18
-2.32779e-18
-2.33536e-18
-2.327e-18
-2.32434e-18
-2.32488e-18
-2.32801e-18
-2.32815e-18
-2.33297e-18
-2.3291e-18
-2.33141e-18
-2.33458e-18
-2.33037e-18
-2.32784e-18
-2.33803e-18
-2.3468e-18
-2.3348e-18
-2.32658e-18
-2.32853e-18
-2.33308e-18
-2.32891e-18
-2.33253e-18
-2.34189e-18
-2.34407e-18
-2.333e-18
-2.32975e-18
-2.33605e-18
-2.33334e-18
-2.3346e-18
-2.33208e-18
-2.33495e-18
-2.332e-18
-2.33395e-18
-2.33269e-18
-2.32834e-18
-2.32858e-18
-2.32909e-18
-2.32611e-18
-2.3269e-18
-2.32355e-18
-2.32152e-18
-2.32222e-18
-2.32299e-18
-2.32164e-18
-2.32337e-18
-2.32395e-18
-2.3244e-18
-2.32076e-18
-2.32636e-18
-2.32937e-18
-2.3245e-18
-2.32341e-18
-2.3317e-18
-2.32689e-18
-2.33358e-18
-2.33519e-18
-2.3295e-18
-2.32518e-18
-2.32537e-18
-2.33401e-18
-2.34287e-18
-2.33595e-18
-2.33492e-18
-2.33214e-18
-2.33204e-18
-2.33457e-18
-2.33411e-18
-2.33987e-18
-2.33573e-18
-2.32414e-18
-2.32021e-18
-2.33324e-18
-2.3316e-18
-2.33982e-18
-2.3428e-18
-2.33164e-18
-2.32501e-18
-2.32832e-18
-2.33361e-18
-2.33362e-18
-2.32315e-18
-2.32394e-18
-2.32503e-18
-2.32817e-18
-2.32203e-18
-2.31763e-18
-2.32645e-18
-2.32644e-18
-2.31993e-18
-2.32535e-18
-2.32502e-18
-2.31761e-18
-2.31815e-18
-2.32632e-18
-2.32652e-18
-2.32591e-18
-2.32091e-18
-2.322e-18
-2.32122e-18
-2.321e-18
-2.32356e-18
-2.32241e-18
-2.32037e-18
-2.3199e-18
-2.32015e-18
-2.32507e-18
-2.32254e-18
-2.3223e-18
-2.31934e-18
-2.31909e-18
-2.32053e-18
-2.32365e-18
-2.32303e-18
-2.31992e-18
-2.32202e-18
-2.32131e-18
-2.32199e-18
-2.32185e-18
-2.32247e-18
-2.32336e-18
-2.32212e-18
-2.32242e-18
-2.32175e-18
-2.32218e-18
-2.32275e-18
-2.32331e-18
-2.32267e-18
-2.32278e-18
-2.32293e-18
-2.3226e-18
-2.3226e-18
-2.32279e-18
-2.32254e-18
-2.323e-18
-2.3228e-18
-2.32258e-18
-2.32286e-18
-2.32303e-18
-2.32302e-18
-2.32288e-18
-2.32285e-18
-2.3228e-18
-2.32279e-18
-2.29827e-18
-2.30908e-18
-2.31407e-18
-2.31363e-18
-2.30117e-18
-2.30713e-18
-2.3078e-18
-2.31538e-18
-2.31125e-18
-2.31401e-18
-2.3141e-18
-2.31179e-18
-2.31627e-18
-2.32101e-18
-2.31867e-18
-2.31892e-18
-2.31987e-18
-2.31336e-18
-2.32344e-18
-2.32998e-18
-2.3272e-18
-2.32481e-18
-2.32106e-18
-2.31996e-18
-2.32e-18
-2.31945e-18
-2.32035e-18
-2.32596e-18
-2.32498e-18
-2.31965e-18
-2.31699e-18
-2.32187e-18
-2.32277e-18
-2.32585e-18
-2.3227e-18
-2.32457e-18
-2.32628e-18
-2.3238e-18
-2.31864e-18
-2.31483e-18
-2.31554e-18
-2.31713e-18
-2.31577e-18
-2.31495e-18
-2.31407e-18
-2.31581e-18
-2.31482e-18
-2.31492e-18
-2.31384e-18
-2.31163e-18
-2.31443e-18
-2.31632e-18
-2.31405e-18
-2.31325e-18
-2.31554e-18
-2.31476e-18
-2.31614e-18
-2.31453e-18
-2.31551e-18
-2.31483e-18
-2.31442e-18
-2.31629e-18
-2.31507e-18
-2.31752e-18
-2.32113e-18
-2.31873e-18
-2.31733e-18
-2.31832e-18
-2.31768e-18
-2.31893e-18
-2.31938e-18
-2.31952e-18
-2.31823e-18
-2.31782e-18
-2.31826e-18
-2.31848e-18
-2.31832e-18
-2.31884e-18
-2.31838e-18
-2.31846e-18
-2.31903e-18
-2.31839e-18
-2.31877e-18
-2.31884e-18
-2.31885e-18
-2.31845e-18
-2.3183e-18
-2.31853e-18
-2.3184e-18
-2.31858e-18
-2.31861e-18
-2.31837e-18
-2.31858e-18
-2.31861e-18
-2.31859e-18
-2.32633e-18
-2.33585e-18
-2.34034e-18
-2.33418e-18
-2.33331e-18
-2.33109e-18
-2.33299e-18
-2.34099e-18
-2.33753e-18
-2.33998e-18
-2.32703e-18
-2.32402e-18
-2.34089e-18
-2.34585e-18
-2.33731e-18
-2.32787e-18
-2.33139e-18
-2.33651e-18
-2.32688e-18
-2.32722e-18
-2.32895e-18
-2.32938e-18
-2.32819e-18
-2.32589e-18
-2.32856e-18
-2.32752e-18
-2.32202e-18
-2.32453e-18
-2.32382e-18
-2.33113e-18
-2.32981e-18
-2.32636e-18
-2.32688e-18
-2.32451e-18
-2.32877e-18
-2.34174e-18
-2.33242e-18
-2.32896e-18
-2.32735e-18
-2.32816e-18
-2.3261e-18
-2.32577e-18
-2.32771e-18
-2.32688e-18
-2.32583e-18
-2.32458e-18
-2.31754e-18
-2.31891e-18
-2.32248e-18
-2.32875e-18
-2.32347e-18
-2.32332e-18
-2.32549e-18
-2.32792e-18
-2.32598e-18
-2.3239e-18
-2.32632e-18
-2.32635e-18
-2.32404e-18
-2.32502e-18
-2.32127e-18
-2.32236e-18
-2.32306e-18
-2.32198e-18
-2.3237e-18
-2.32397e-18
-2.32452e-18
-2.32624e-18
-2.32563e-18
-2.32486e-18
-2.32363e-18
-2.32304e-18
-2.32358e-18
-2.32412e-18
-2.32466e-18
-2.32356e-18
-2.32357e-18
-2.32389e-18
-2.32414e-18
-2.32449e-18
-2.32416e-18
-2.32361e-18
-2.32347e-18
-2.32404e-18
-2.32384e-18
-2.32323e-18
-2.32328e-18
-2.32345e-18
-2.32347e-18
-2.32366e-18
-2.32367e-18
-2.32352e-18
-2.3234e-18
-2.32355e-18
-2.32354e-18
-2.30339e-18
-2.31111e-18
-2.30715e-18
-2.31984e-18
-2.31339e-18
-2.31226e-18
-2.32178e-18
-2.32417e-18
-2.33171e-18
-2.32926e-18
-2.31689e-18
-2.31901e-18
-2.32497e-18
-2.32436e-18
-2.31829e-18
-2.32374e-18
-2.3241e-18
-2.31993e-18
-2.32728e-18
-2.32379e-18
-2.32252e-18
-2.31706e-18
-2.31631e-18
-2.31262e-18
-2.31915e-18
-2.32109e-18
-2.31322e-18
-2.31608e-18
-2.31912e-18
-2.3272e-18
-2.31888e-18
-2.31711e-18
-2.31675e-18
-2.32486e-18
-2.3188e-18
-2.31486e-18
-2.31926e-18
-2.32236e-18
-2.32877e-18
-2.32158e-18
-2.32432e-18
-2.32637e-18
-2.32744e-18
-2.32474e-18
-2.32359e-18
-2.32662e-18
-2.32783e-18
-2.32648e-18
-2.32122e-18
-2.32348e-18
-2.32321e-18
-2.32369e-18
-2.32286e-18
-2.32426e-18
-2.32291e-18
-2.31964e-18
-2.32256e-18
-2.32006e-18
-2.32045e-18
-2.32207e-18
-2.32155e-18
-2.31781e-18
-2.31768e-18
-2.31903e-18
-2.31765e-18
-2.31878e-18
-2.31855e-18
-2.31765e-18
-2.31683e-18
-2.31816e-18
-2.31771e-18
-2.31719e-18
-2.31796e-18
-2.31705e-18
-2.31728e-18
-2.31765e-18
-2.31717e-18
-2.31723e-18
-2.31633e-18
-2.31668e-18
-2.31671e-18
-2.3173e-18
-2.31737e-18
-2.31714e-18
-2.31715e-18
-2.31696e-18
-2.31697e-18
-2.31682e-18
-2.31685e-18
-2.31695e-18
-2.31703e-18
-2.31699e-18
-2.3169e-18
-2.3169e-18
-2.31695e-18
-2.34327e-18
-2.33467e-18
-2.32697e-18
-2.33047e-18
-2.32047e-18
-2.32925e-18
-2.33169e-18
-2.32668e-18
-2.33513e-18
-2.34274e-18
-2.33257e-18
-2.33369e-18
-2.3384e-18
-2.33639e-18
-2.33582e-18
-2.32976e-18
-2.33386e-18
-2.33776e-18
-2.32729e-18
-2.3317e-18
-2.32985e-18
-2.33235e-18
-2.33742e-18
-2.3265e-18
-2.33341e-18
-2.32818e-18
-2.32242e-18
-2.32976e-18
-2.33151e-18
-2.33546e-18
-2.33328e-18
-2.32866e-18
-2.32925e-18
-2.33038e-18
-2.33276e-18
-2.33199e-18
-2.33245e-18
-2.32882e-18
-2.33192e-18
-2.3354e-18
-2.32337e-18
-2.32393e-18
-2.32863e-18
-2.33044e-18
-2.32954e-18
-2.32751e-18
-2.33086e-18
-2.33101e-18
-2.3281e-18
-2.33246e-18
-2.33411e-18
-2.33134e-18
-2.32923e-18
-2.33148e-18
-2.33203e-18
-2.32928e-18
-2.32679e-18
-2.32849e-18
-2.32942e-18
-2.32663e-18
-2.32386e-18
-2.32445e-18
-2.32546e-18
-2.32449e-18
-2.32376e-18
-2.32283e-18
-2.32257e-18
-2.32292e-18
-2.32314e-18
-2.32246e-18
-2.32183e-18
-2.32267e-18
-2.32276e-18
-2.32125e-18
-2.32206e-18
-2.32156e-18
-2.32192e-18
-2.32204e-18
-2.32219e-18
-2.3217e-18
-2.32215e-18
-2.32171e-18
-2.32133e-18
-2.32159e-18
-2.32191e-18
-2.32148e-18
-2.32102e-18
-2.32139e-18
-2.32132e-18
-2.32133e-18
-2.32144e-18
-2.32145e-18
-2.32139e-18
-2.32137e-18
-2.32136e-18
-2.3117e-18
-2.31817e-18
-2.32047e-18
-2.31775e-18
-2.30781e-18
-2.31488e-18
-2.32023e-18
-2.31633e-18
-2.3166e-18
-2.32398e-18
-2.30639e-18
-2.3138e-18
-2.31545e-18
-2.31669e-18
-2.31765e-18
-2.31427e-18
-2.31453e-18
-2.31829e-18
-2.31067e-18
-2.31456e-18
-2.31534e-18
-2.31261e-18
-2.31443e-18
-2.31277e-18
-2.30694e-18
-2.30984e-18
-2.31404e-18
-2.31629e-18
-2.31707e-18
-2.31081e-18
-2.31544e-18
-2.31903e-18
-2.31825e-18
-2.31283e-18
-2.32295e-18
-2.32918e-18
-2.3249e-18
-2.31644e-18
-2.31843e-18
-2.32266e-18
-2.32573e-18
-2.32481e-18
-2.32391e-18
-2.32019e-18
-2.32545e-18
-2.32333e-18
-2.32363e-18
-2.32709e-18
-2.32737e-18
-2.32406e-18
-2.31837e-18
-2.32281e-18
-2.32452e-18
-2.32317e-18
-2.32059e-18
-2.32068e-18
-2.32298e-18
-2.32009e-18
-2.31882e-18
-2.31842e-18
-2.316e-18
-2.31505e-18
-2.31814e-18
-2.31824e-18
-2.316e-18
-2.31589e-18
-2.31637e-18
-2.31539e-18
-2.31564e-18
-2.31547e-18
-2.31491e-18
-2.31536e-18
-2.31516e-18
-2.3156e-18
-2.31526e-18
-2.31481e-18
-2.31441e-18
-2.31478e-18
-2.31457e-18
-2.31472e-18
-2.31376e-18
-2.31397e-18
-2.31434e-18
-2.31425e-18
-2.31383e-18
-2.31352e-18
-2.31374e-18
-2.31404e-18
-2.31418e-18
-2.31386e-18
-2.31371e-18
-2.31371e-18
-2.31379e-18
-2.31378e-18
-2.31376e-18
-2.32644e-18
-2.3263e-18
-2.32844e-18
-2.32083e-18
-2.31264e-18
-2.33011e-18
-2.3244e-18
-2.32367e-18
-2.33016e-18
-2.32308e-18
-2.31949e-18
-2.32592e-18
-2.32221e-18
-2.31683e-18
-2.32593e-18
-2.32617e-18
-2.32679e-18
-2.32967e-18
-2.32562e-18
-2.32297e-18
-2.33087e-18
-2.33504e-18
-2.32929e-18
-2.32668e-18
-2.32139e-18
-2.33153e-18
-2.33135e-18
-2.32702e-18
-2.32585e-18
-2.32572e-18
-2.32423e-18
-2.32096e-18
-2.32401e-18
-2.31733e-18
-2.32421e-18
-2.32812e-18
-2.32156e-18
-2.31866e-18
-2.32173e-18
-2.32653e-18
-2.33067e-18
-2.32501e-18
-2.3192e-18
-2.3211e-18
-2.32454e-18
-2.31855e-18
-2.32252e-18
-2.32211e-18
-2.32004e-18
-2.32109e-18
-2.32162e-18
-2.32168e-18
-2.32101e-18
-2.32066e-18
-2.31963e-18
-2.31986e-18
-2.3167e-18
-2.31731e-18
-2.31937e-18
-2.32011e-18
-2.31888e-18
-2.32091e-18
-2.31915e-18
-2.31671e-18
-2.31464e-18
-2.31654e-18
-2.31726e-18
-2.31648e-18
-2.31705e-18
-2.31801e-18
-2.31687e-18
-2.31702e-18
-2.31602e-18
-2.31633e-18
-2.31615e-18
-2.31571e-18
-2.31621e-18
-2.31647e-18
-2.31671e-18
-2.31643e-18
-2.31625e-18
-2.31619e-18
-2.31613e-18
-2.31585e-18
-2.31531e-18
-2.31571e-18
-2.31585e-18
-2.31584e-18
-2.31609e-18
-2.31584e-18
-2.31582e-18
-2.31587e-18
-2.31579e-18
-2.31575e-18
-2.31576e-18
-2.28213e-18
-2.28077e-18
-2.2899e-18
-2.29657e-18
-2.30251e-18
-2.29776e-18
-2.30358e-18
-2.2952e-18
-2.30288e-18
-2.30998e-18
-2.30174e-18
-2.31236e-18
-2.30608e-18
-2.30077e-18
-2.31446e-18
-2.30785e-18
-2.31295e-18
-2.316e-18
-2.30703e-18
-2.30591e-18
-2.29889e-18
-2.30842e-18
-2.30569e-18
-2.30481e-18
-2.30842e-18
-2.30576e-18
-2.29899e-18
-2.31239e-18
-2.30924e-18
-2.31399e-18
-2.31251e-18
-2.3097e-18
-2.3087e-18
-2.31548e-18
-2.31609e-18
-2.32281e-18
-2.31711e-18
-2.31887e-18
-2.31361e-18
-2.3135e-18
-2.31426e-18
-2.31355e-18
-2.31306e-18
-2.31756e-18
-2.31353e-18
-2.30917e-18
-2.3081e-18
-2.30895e-18
-2.31023e-18
-2.30942e-18
-2.30854e-18
-2.30703e-18
-2.30494e-18
-2.30786e-18
-2.31088e-18
-2.31013e-18
-2.3091e-18
-2.30781e-18
-2.3084e-18
-2.3077e-18
-2.30855e-18
-2.31004e-18
-2.30965e-18
-2.30952e-18
-2.30749e-18
-2.30702e-18
-2.30801e-18
-2.30884e-18
-2.30887e-18
-2.30762e-18
-2.3069e-18
-2.30908e-18
-2.30795e-18
-2.30665e-18
-2.30715e-18
-2.30735e-18
-2.30713e-18
-2.30688e-18
-2.30752e-18
-2.30747e-18
-2.30636e-18
-2.30633e-18
-2.30666e-18
-2.3067e-18
-2.30659e-18
-2.3066e-18
-2.30659e-18
-2.30653e-18
-2.30646e-18
-2.30658e-18
-2.30653e-18
-2.30663e-18
-2.30653e-18
-2.30654e-18
-2.30652e-18
-2.30405e-18
-2.31008e-18
-2.30993e-18
-2.306e-18
-2.30635e-18
-2.31309e-18
-2.3218e-18
-2.30662e-18
-2.30534e-18
-2.30867e-18
-2.30686e-18
-2.30111e-18
-2.30059e-18
-2.31246e-18
-2.30935e-18
-2.30846e-18
-2.30184e-18
-2.30106e-18
-2.31655e-18
-2.31839e-18
-2.31688e-18
-2.31675e-18
-2.32319e-18
-2.32004e-18
-2.31335e-18
-2.31515e-18
-2.3196e-18
-2.32799e-18
-2.32499e-18
-2.324e-18
-2.32282e-18
-2.32223e-18
-2.32264e-18
-2.3248e-18
-2.32754e-18
-2.32198e-18
-2.32857e-18
-2.32141e-18
-2.31937e-18
-2.32367e-18
-2.32337e-18
-2.32425e-18
-2.32334e-18
-2.32579e-18
-2.32429e-18
-2.31533e-18
-2.32429e-18
-2.32562e-18
-2.32195e-18
-2.31961e-18
-2.32097e-18
-2.31947e-18
-2.32022e-18
-2.31749e-18
-2.31814e-18
-2.31713e-18
-2.31857e-18
-2.31763e-18
-2.31702e-18
-2.31562e-18
-2.31485e-18
-2.31374e-18
-2.31601e-18
-2.31622e-18
-2.31403e-18
-2.31506e-18
-2.31478e-18
-2.31379e-18
-2.31377e-18
-2.31332e-18
-2.31277e-18
-2.31118e-18
-2.31108e-18
-2.31088e-18
-2.31173e-18
-2.31244e-18
-2.31229e-18
-2.31239e-18
-2.31292e-18
-2.31264e-18
-2.31283e-18
-2.31214e-18
-2.31223e-18
-2.31251e-18
-2.3124e-18
-2.31221e-18
-2.31198e-18
-2.31221e-18
-2.31235e-18
-2.31238e-18
-2.31228e-18
-2.31233e-18
-2.3124e-18
-2.31239e-18
-2.31235e-18
-2.27382e-18
-2.28482e-18
-2.28277e-18
-2.27775e-18
-2.27669e-18
-2.27592e-18
-2.28557e-18
-2.29315e-18
-2.2946e-18
-2.28805e-18
-2.2929e-18
-2.2962e-18
-2.29599e-18
-2.29025e-18
-2.29118e-18
-2.29371e-18
-2.29986e-18
-2.29307e-18
-2.29955e-18
-2.29325e-18
-2.29581e-18
-2.30385e-18
-2.30741e-18
-2.29853e-18
-2.30168e-18
-2.31231e-18
-2.31579e-18
-2.30565e-18
-2.3023e-18
-2.31004e-18
-2.31023e-18
-2.30828e-18
-2.30418e-18
-2.30215e-18
-2.30694e-18
-2.30585e-18
-2.30601e-18
-2.30766e-18
-2.30387e-18
-2.30099e-18
-2.3043e-18
-2.30268e-18
-2.30509e-18
-2.30503e-18
-2.3082e-18
-2.30594e-18
-2.30361e-18
-2.30231e-18
-2.30805e-18
-2.30934e-18
-2.30637e-18
-2.30392e-18
-2.30691e-18
-2.30871e-18
-2.31042e-18
-2.30862e-18
-2.30729e-18
-2.30429e-18
-2.30456e-18
-2.30684e-18
-2.30409e-18
-2.3064e-18
-2.30568e-18
-2.30415e-18
-2.30543e-18
-2.30543e-18
-2.30501e-18
-2.3044e-18
-2.3044e-18
-2.30484e-18
-2.30384e-18
-2.30283e-18
-2.30357e-18
-2.30337e-18
-2.30313e-18
-2.30384e-18
-2.30453e-18
-2.30462e-18
-2.30362e-18
-2.30366e-18
-2.30408e-18
-2.3037e-18
-2.3037e-18
-2.30409e-18
-2.30416e-18
-2.3039e-18
-2.30383e-18
-2.30394e-18
-2.30425e-18
-2.30434e-18
-2.30427e-18
-2.30404e-18
-2.30421e-18
-2.3043e-18
-2.30427e-18
-2.30128e-18
-2.30153e-18
-2.28677e-18
-2.29005e-18
-2.29471e-18
-2.29379e-18
-2.2954e-18
-2.30723e-18
-2.3038e-18
-2.30279e-18
-2.30535e-18
-2.31254e-18
-2.31697e-18
-2.30741e-18
-2.30343e-18
-2.30272e-18
-2.30911e-18
-2.31169e-18
-2.31171e-18
-2.32002e-18
-2.31787e-18
-2.31747e-18
-2.32049e-18
-2.32147e-18
-2.32149e-18
-2.32361e-18
-2.323e-18
-2.33113e-18
-2.32381e-18
-2.32139e-18
-2.31843e-18
-2.32478e-18
-2.32469e-18
-2.32911e-18
-2.32254e-18
-2.32224e-18
-2.32687e-18
-2.31917e-18
-2.31981e-18
-2.32476e-18
-2.32375e-18
-2.32228e-18
-2.32235e-18
-2.32386e-18
-2.32239e-18
-2.32231e-18
-2.31938e-18
-2.3187e-18
-2.3196e-18
-2.31888e-18
-2.31469e-18
-2.31822e-18
-2.31832e-18
-2.31311e-18
-2.31383e-18
-2.31531e-18
-2.3175e-18
-2.314e-18
-2.31414e-18
-2.31907e-18
-2.31944e-18
-2.31459e-18
-2.31437e-18
-2.31568e-18
-2.31662e-18
-2.31567e-18
-2.31436e-18
-2.31535e-18
-2.31587e-18
-2.3153e-18
-2.31496e-18
-2.31365e-18
-2.3151e-18
-2.31566e-18
-2.31451e-18
-2.31467e-18
-2.31539e-18
-2.31476e-18
-2.31409e-18
-2.31451e-18
-2.31481e-18
-2.31448e-18
-2.31445e-18
-2.31443e-18
-2.31423e-18
-2.31439e-18
-2.31437e-18
-2.31421e-18
-2.31416e-18
-2.31415e-18
-2.31414e-18
-2.31408e-18
-2.31411e-18
-2.31413e-18
-2.31414e-18
-2.2962e-18
-2.2855e-18
-2.2901e-18
-2.28866e-18
-2.29759e-18
-2.2981e-18
-2.29966e-18
-2.29329e-18
-2.30219e-18
-2.29663e-18
-2.29212e-18
-2.29482e-18
-2.29609e-18
-2.30004e-18
-2.30078e-18
-2.30244e-18
-2.30105e-18
-2.29953e-18
-2.30653e-18
-2.30767e-18
-2.30918e-18
-2.30967e-18
-2.30876e-18
-2.30737e-18
-2.30322e-18
-2.30241e-18
-2.29794e-18
-2.30594e-18
-2.31027e-18
-2.30583e-18
-2.30654e-18
-2.3055e-18
-2.30543e-18
-2.30328e-18
-2.30698e-18
-2.30825e-18
-2.31046e-18
-2.30894e-18
-2.30768e-18
-2.31219e-18
-2.31074e-18
-2.30691e-18
-2.30859e-18
-2.31013e-18
-2.3106e-18
-2.307e-18
-2.3097e-18
-2.3102e-18
-2.31033e-18
-2.30556e-18
-2.30827e-18
-2.3111e-18
-2.30878e-18
-2.30851e-18
-2.30843e-18
-2.31321e-18
-2.31257e-18
-2.30957e-18
-2.30877e-18
-2.3075e-18
-2.30705e-18
-2.30707e-18
-2.30692e-18
-2.30711e-18
-2.30838e-18
-2.30902e-18
-2.30772e-18
-2.30738e-18
-2.30718e-18
-2.30765e-18
-2.30822e-18
-2.30755e-18
-2.30687e-18
-2.30693e-18
-2.30797e-18
-2.3074e-18
-2.30717e-18
-2.3077e-18
-2.30691e-18
-2.30655e-18
-2.30606e-18
-2.30669e-18
-2.30705e-18
-2.30652e-18
-2.30661e-18
-2.3068e-18
-2.3067e-18
-2.30675e-18
-2.30668e-18
-2.30651e-18
-2.30661e-18
-2.30662e-18
-2.30652e-18
-2.30649e-18
-2.30649e-18
-2.30563e-18
-2.29514e-18
-2.2936e-18
-2.29826e-18
-2.30917e-18
-2.30663e-18
-2.30445e-18
-2.30267e-18
-2.30356e-18
-2.297e-18
-2.30032e-18
-2.29959e-18
-2.30318e-18
-2.29863e-18
-2.30348e-18
-2.30441e-18
-2.30539e-18
-2.30352e-18
-2.30371e-18
-2.30293e-18
-2.30731e-18
-2.3024e-18
-2.30162e-18
-2.30569e-18
-2.30659e-18
-2.30491e-18
-2.30418e-18
-2.30568e-18
-2.30718e-18
-2.31025e-18
-2.3133e-18
-2.31283e-18
-2.30818e-18
-2.30707e-18
-2.31278e-18
-2.31249e-18
-2.31077e-18
-2.31589e-18
-2.31783e-18
-2.31568e-18
-2.30988e-18
-2.31249e-18
-2.31438e-18
-2.31336e-18
-2.3105e-18
-2.31384e-18
-2.31533e-18
-2.31683e-18
-2.31805e-18
-2.31648e-18
-2.31999e-18
-2.31971e-18
-2.31895e-18
-2.3188e-18
-2.31847e-18
-2.31897e-18
-2.31832e-18
-2.31749e-18
-2.31639e-18
-2.31825e-18
-2.31752e-18
-2.31991e-18
-2.31762e-18
-2.31615e-18
-2.31582e-18
-2.31702e-18
-2.31501e-18
-2.31577e-18
-2.31571e-18
-2.31721e-18
-2.31785e-18
-2.31667e-18
-2.31592e-18
-2.31619e-18
-2.31629e-18
-2.31629e-18
-2.31656e-18
-2.31673e-18
-2.3162e-18
-2.31642e-18
-2.31603e-18
-2.31591e-18
-2.31629e-18
-2.3161e-18
-2.31555e-18
-2.31589e-18
-2.31609e-18
-2.31553e-18
-2.31564e-18
-2.31568e-18
-2.31566e-18
-2.31572e-18
-2.31562e-18
-2.31566e-18
-2.31564e-18
-2.29078e-18
-2.28847e-18
-2.28576e-18
-2.28607e-18
-2.28684e-18
-2.29731e-18
-2.28788e-18
-2.28707e-18
-2.28907e-18
-2.29491e-18
-2.29062e-18
-2.29779e-18
-2.29414e-18
-2.28911e-18
-2.29185e-18
-2.30123e-18
-2.3004e-18
-2.29948e-18
-2.3023e-18
-2.29927e-18
-2.30131e-18
-2.29944e-18
-2.30574e-18
-2.30431e-18
-2.30375e-18
-2.30048e-18
-2.29926e-18
-2.30342e-18
-2.30824e-18
-2.31297e-18
-2.30429e-18
-2.30668e-18
-2.31086e-18
-2.31189e-18
-2.31137e-18
-2.31301e-18
-2.31275e-18
-2.30959e-18
-2.31065e-18
-2.31128e-18
-2.31796e-18
-2.3209e-18
-2.31433e-18
-2.31302e-18
-2.31584e-18
-2.31368e-18
-2.31307e-18
-2.31365e-18
-2.31303e-18
-2.31436e-18
-2.31371e-18
-2.31603e-18
-2.31191e-18
-2.31068e-18
-2.30868e-18
-2.30938e-18
-2.3117e-18
-2.31322e-18
-2.31238e-18
-2.31156e-18
-2.31192e-18
-2.31047e-18
-2.31025e-18
-2.30971e-18
-2.30944e-18
-2.30972e-18
-2.31058e-18
-2.31061e-18
-2.30987e-18
-2.30929e-18
-2.30994e-18
-2.30994e-18
-2.3102e-18
-2.31036e-18
-2.30997e-18
-2.3102e-18
-2.31005e-18
-2.30944e-18
-2.30935e-18
-2.30961e-18
-2.30927e-18
-2.30926e-18
-2.3091e-18
-2.30876e-18
-2.30893e-18
-2.30886e-18
-2.30861e-18
-2.30864e-18
-2.30843e-18
-2.30844e-18
-2.3085e-18
-2.30835e-18
-2.30839e-18
-2.30845e-18
-2.30849e-18
-2.29319e-18
-2.30169e-18
-2.30674e-18
-2.30989e-18
-2.30445e-18
-2.30078e-18
-2.30295e-18
-2.30308e-18
-2.30687e-18
-2.3088e-18
-2.30553e-18
-2.30587e-18
-2.31175e-18
-2.31594e-18
-2.31043e-18
-2.30447e-18
-2.3027e-18
-2.30793e-18
-2.30654e-18
-2.30915e-18
-2.30914e-18
-2.3061e-18
-2.30602e-18
-2.30691e-18
-2.30918e-18
-2.31287e-18
-2.31152e-18
-2.31205e-18
-2.31146e-18
-2.31342e-18
-2.32071e-18
-2.31737e-18
-2.31468e-18
-2.31757e-18
-2.32169e-18
-2.31884e-18
-2.31766e-18
-2.31484e-18
-2.31502e-18
-2.31771e-18
-2.3157e-18
-2.3171e-18
-2.31848e-18
-2.31281e-18
-2.31551e-18
-2.31511e-18
-2.31326e-18
-2.31595e-18
-2.31777e-18
-2.31449e-18
-2.31495e-18
-2.31653e-18
-2.31626e-18
-2.31424e-18
-2.31538e-18
-2.31384e-18
-2.31554e-18
-2.3156e-18
-2.31298e-18
-2.31035e-18
-2.31225e-18
-2.31413e-18
-2.31243e-18
-2.31191e-18
-2.31211e-18
-2.31364e-18
-2.31408e-18
-2.31369e-18
-2.31326e-18
-2.31442e-18
-2.31489e-18
-2.31382e-18
-2.31319e-18
-2.3133e-18
-2.31338e-18
-2.3133e-18
-2.31273e-18
-2.31333e-18
-2.3138e-18
-2.31368e-18
-2.31315e-18
-2.31317e-18
-2.31311e-18
-2.31306e-18
-2.31282e-18
-2.31272e-18
-2.31283e-18
-2.31293e-18
-2.31281e-18
-2.31279e-18
-2.31279e-18
-2.31276e-18
-2.31264e-18
-2.31261e-18
-2.31268e-18
-2.29076e-18
-2.30012e-18
-2.30088e-18
-2.28844e-18
-2.29442e-18
-2.30107e-18
-2.30416e-18
-2.30049e-18
-2.30128e-18
-2.30631e-18
-2.29808e-18
-2.29709e-18
-2.29675e-18
-2.29594e-18
-2.29464e-18
-2.29899e-18
-2.29907e-18
-2.29598e-18
-2.29739e-18
-2.29845e-18
-2.29636e-18
-2.29721e-18
-2.30095e-18
-2.30262e-18
-2.30187e-18
-2.30396e-18
-2.30625e-18
-2.30586e-18
-2.30579e-18
-2.30315e-18
-2.30527e-18
-2.30197e-18
-2.3021e-18
-2.30519e-18
-2.30432e-18
-2.30294e-18
-2.30253e-18
-2.30347e-18
-2.30499e-18
-2.30428e-18
-2.31067e-18
-2.31091e-18
-2.31016e-18
-2.30651e-18
-2.30574e-18
-2.3043e-18
-2.30554e-18
-2.30581e-18
-2.30747e-18
-2.30733e-18
-2.30548e-18
-2.30554e-18
-2.30554e-18
-2.30184e-18
-2.30402e-18
-2.30335e-18
-2.30239e-18
-2.30232e-18
-2.30437e-18
-2.3031e-18
-2.3029e-18
-2.30309e-18
-2.30353e-18
-2.30333e-18
-2.30243e-18
-2.30198e-18
-2.30267e-18
-2.30251e-18
-2.3019e-18
-2.30216e-18
-2.30159e-18
-2.30167e-18
-2.30156e-18
-2.30115e-18
-2.30162e-18
-2.30154e-18
-2.30184e-18
-2.30171e-18
-2.30157e-18
-2.30196e-18
-2.30177e-18
-2.30151e-18
-2.3015e-18
-2.3016e-18
-2.30155e-18
-2.30159e-18
-2.30163e-18
-2.3017e-18
-2.30171e-18
-2.30166e-18
-2.30156e-18
-2.30153e-18
-2.30155e-18
-2.30156e-18
-2.30158e-18
-2.29617e-18
-2.29807e-18
-2.29623e-18
-2.29907e-18
-2.30557e-18
-2.30299e-18
-2.30058e-18
-2.30155e-18
-2.30585e-18
-2.31139e-18
-2.31492e-18
-2.31667e-18
-2.3136e-18
-2.31099e-18
-2.31282e-18
-2.30885e-18
-2.31106e-18
-2.31732e-18
-2.31508e-18
-2.31321e-18
-2.31446e-18
-2.3169e-18
-2.31501e-18
-2.31469e-18
-2.31809e-18
-2.31687e-18
-2.30983e-18
-2.31064e-18
-2.31151e-18
-2.31165e-18
-2.31154e-18
-2.30755e-18
-2.30531e-18
-2.30782e-18
-2.3077e-18
-2.30727e-18
-2.30432e-18
-2.30868e-18
-2.31159e-18
-2.30684e-18
-2.30426e-18
-2.30239e-18
-2.30446e-18
-2.3071e-18
-2.30941e-18
-2.30863e-18
-2.30883e-18
-2.30969e-18
-2.30679e-18
-2.30627e-18
-2.30775e-18
-2.3076e-18
-2.30697e-18
-2.30587e-18
-2.30817e-18
-2.30946e-18
-2.30862e-18
-2.30762e-18
-2.30649e-18
-2.3071e-18
-2.30676e-18
-2.30616e-18
-2.3055e-18
-2.30669e-18
-2.30662e-18
-2.30632e-18
-2.3057e-18
-2.30566e-18
-2.30674e-18
-2.30612e-18
-2.30711e-18
-2.30758e-18
-2.30742e-18
-2.30655e-18
-2.30588e-18
-2.30596e-18
-2.30606e-18
-2.30674e-18
-2.30704e-18
-2.3065e-18
-2.30616e-18
-2.30613e-18
-2.30595e-18
-2.30615e-18
-2.30629e-18
-2.30604e-18
-2.30583e-18
-2.30575e-18
-2.30599e-18
-2.30594e-18
-2.30583e-18
-2.3058e-18
-2.3058e-18
-2.30582e-18
-2.30582e-18
-2.30015e-18
-2.29949e-18
-2.29799e-18
-2.3027e-18
-2.29931e-18
-2.29811e-18
-2.30021e-18
-2.30349e-18
-2.299e-18
-2.3021e-18
-2.30496e-18
-2.30334e-18
-2.30261e-18
-2.30585e-18
-2.30787e-18
-2.31077e-18
-2.31363e-18
-2.3096e-18
-2.30552e-18
-2.30611e-18
-2.30846e-18
-2.30977e-18
-2.31241e-18
-2.31194e-18
-2.30794e-18
-2.30653e-18
-2.30676e-18
-2.30696e-18
-2.30463e-18
-2.30223e-18
-2.30339e-18
-2.30043e-18
-2.2986e-18
-2.30055e-18
-2.30314e-18
-2.30377e-18
-2.30363e-18
-2.3067e-18
-2.30687e-18
-2.30353e-18
-2.30092e-18
-2.30338e-18
-2.30447e-18
-2.30067e-18
-2.3023e-18
-2.30103e-18
-2.30095e-18
-2.30051e-18
-2.30003e-18
-2.2998e-18
-2.29982e-18
-2.29815e-18
-2.2978e-18
-2.29845e-18
-2.29853e-18
-2.29781e-18
-2.29656e-18
-2.29647e-18
-2.29748e-18
-2.29864e-18
-2.29876e-18
-2.29704e-18
-2.29801e-18
-2.29792e-18
-2.2979e-18
-2.29887e-18
-2.29726e-18
-2.29785e-18
-2.29705e-18
-2.29689e-18
-2.29827e-18
-2.29837e-18
-2.29822e-18
-2.2982e-18
-2.29815e-18
-2.2979e-18
-2.29788e-18
-2.29818e-18
-2.29841e-18
-2.29838e-18
-2.29808e-18
-2.29786e-18
-2.29798e-18
-2.29803e-18
-2.29778e-18
-2.2978e-18
-2.29774e-18
-2.29792e-18
-2.29792e-18
-2.29775e-18
-2.29777e-18
-2.29783e-18
-2.29785e-18
-2.29786e-18
-2.29785e-18
-2.28796e-18
-2.28422e-18
-2.28978e-18
-2.2951e-18
-2.30271e-18
-2.30242e-18
-2.29559e-18
-2.29913e-18
-2.30494e-18
-2.30447e-18
-2.30438e-18
-2.30242e-18
-2.30703e-18
-2.31083e-18
-2.31077e-18
-2.31302e-18
-2.31053e-18
-2.31021e-18
-2.31204e-18
-2.31035e-18
-2.30796e-18
-2.30614e-18
-2.30027e-18
-2.30579e-18
-2.3086e-18
-2.30751e-18
-2.30695e-18
-2.30476e-18
-2.30978e-18
-2.30824e-18
-2.30689e-18
-2.30688e-18
-2.30702e-18
-2.30616e-18
-2.30274e-18
-2.30579e-18
-2.30888e-18
-2.30374e-18
-2.30547e-18
-2.30197e-18
-2.30338e-18
-2.30453e-18
-2.30476e-18
-2.30409e-18
-2.30449e-18
-2.30589e-18
-2.30398e-18
-2.30219e-18
-2.30313e-18
-2.30094e-18
-2.30164e-18
-2.30129e-18
-2.30179e-18
-2.30207e-18
-2.30086e-18
-2.30023e-18
-2.30062e-18
-2.30032e-18
-2.3003e-18
-2.29997e-18
-2.2999e-18
-2.29942e-18
-2.29981e-18
-2.3001e-18
-2.30042e-18
-2.29991e-18
-2.29961e-18
-2.29961e-18
-2.30005e-18
-2.29945e-18
-2.29881e-18
-2.29963e-18
-2.29935e-18
-2.29903e-18
-2.29953e-18
-2.29958e-18
-2.29952e-18
-2.29983e-18
-2.29989e-18
-2.29958e-18
-2.29971e-18
-2.2998e-18
-2.29948e-18
-2.29951e-18
-2.29975e-18
-2.29971e-18
-2.29976e-18
-2.29967e-18
-2.29967e-18
-2.29963e-18
-2.29966e-18
-2.29975e-18
-2.29978e-18
-2.29973e-18
-2.29974e-18
-2.2846e-18
-2.29093e-18
-2.2902e-18
-2.2873e-18
-2.28682e-18
-2.28724e-18
-2.28848e-18
-2.2907e-18
-2.28497e-18
-2.28443e-18
-2.28572e-18
-2.29102e-18
-2.2909e-18
-2.29376e-18
-2.2933e-18
-2.29263e-18
-2.29578e-18
-2.29582e-18
-2.28889e-18
-2.29616e-18
-2.30131e-18
-2.29704e-18
-2.29048e-18
-2.29569e-18
-2.29898e-18
-2.29954e-18
-2.30007e-18
-2.29885e-18
-2.2997e-18
-2.29549e-18
-2.29573e-18
-2.29425e-18
-2.29584e-18
-2.29769e-18
-2.29831e-18
-2.29327e-18
-2.29372e-18
-2.29622e-18
-2.29792e-18
-2.2936e-18
-2.28996e-18
-2.2893e-18
-2.29113e-18
-2.29054e-18
-2.29271e-18
-2.29351e-18
-2.29329e-18
-2.29359e-18
-2.29471e-18
-2.29403e-18
-2.29218e-18
-2.29332e-18
-2.29304e-18
-2.29349e-18
-2.29209e-18
-2.29367e-18
-2.29516e-18
-2.29469e-18
-2.2949e-18
-2.29317e-18
-2.29428e-18
-2.29556e-18
-2.29369e-18
-2.29365e-18
-2.29358e-18