/*--------------------------------*- C++ -*----------------------------------*\
  =========                 |
  \\      /  F ield         | OpenFOAM: The Open Source CFD Toolbox
   \\    /   O peration     | Website:  https://openfoam.org
    \\  /    A nd           | Version:  7
     \\/     M anipulation  |
\*---------------------------------------------------------------------------*/
FoamFile
{
    version     2.0;
    format      ascii;
    class       volScalarField;
    location    "68000";
    object      omega;
}
// * * * * * * * * * * * * * * * * * * * * * * * * * * * * * * * * * * * * * //

dimensions      [0 0 -1 0 0 0 0];

internalField   nonuniform List<scalar> 
4844
(
0.0276653
0.02782
0.0279927
0.0283056
0.0284699
0.0286519
0.0288507
0.0290673
0.0293012
0.0295519
0.0298191
0.0289818
0.0291531
0.0293422
0.0295483
0.0297716
0.0300117
0.0302684
0.0305416
0.0308302
0.031134
0.0314517
0.0296851
0.0298615
0.0300557
0.0302668
0.0304951
0.0307399
0.0310009
0.0312783
0.0315708
0.031878
0.0321987
0.0325337
0.0328819
0.0332426
0.0336149
0.034
0.0304083
0.0305888
0.0307866
0.0310013
0.0312328
0.0314809
0.0317451
0.0320254
0.0323208
0.0326304
0.0329535
0.0332908
0.0336411
0.0340038
0.0343784
0.0347656
0.0311467
0.0313297
0.0315303
0.0317474
0.0319816
0.032232
0.0324984
0.0327808
0.0330783
0.0333897
0.033715
0.0340541
0.0344063
0.034771
0.0351479
0.0355379
0.0320813
0.0322838
0.0325027
0.0327385
0.0329907
0.033259
0.0335429
0.0338421
0.0341552
0.0344825
0.0348233
0.0351776
0.0355445
0.0359242
0.0363174
0.032841
0.0330449
0.0332654
0.0335026
0.0337563
0.0340259
0.0343114
0.0346121
0.0349271
0.0352562
0.0355992
0.0359558
0.0363257
0.0367086
0.0371055
0.0336078
0.0338126
0.0340343
0.034273
0.034528
0.0347992
0.0350863
0.0353885
0.0357057
0.036037
0.0363825
0.0367422
0.0371156
0.0375025
0.0379038
0.0341932
0.0343809
0.0345864
0.0348097
0.0350496
0.0353061
0.0355792
0.0358682
0.0361724
0.036492
0.0368261
0.0371749
0.0375384
0.037916
0.0383075
0.0387141
0.0349718
0.0351603
0.035367
0.0355916
0.0358331
0.0360916
0.0363668
0.036658
0.036965
0.0372877
0.0376253
0.0379781
0.0383461
0.0387288
0.039126
0.0395387
0.0357572
0.0359471
0.0361551
0.0363812
0.0366248
0.0368856
0.0371633
0.0374575
0.0377679
0.0380943
0.0384362
0.038794
0.0391674
0.039556
0.0399597
0.0403795
0.0365506
0.0367421
0.0369518
0.0371801
0.0374262
0.0376898
0.0379706
0.0382685
0.038583
0.038914
0.039261
0.0396245
0.0400043
0.0403998
0.0408108
0.0412386
0.0371796
0.0373536
0.0375471
0.0377591
0.03799
0.0382392
0.0385062
0.0387907
0.0390929
0.0394124
0.0397487
0.0401017
0.0404719
0.040859
0.0412621
0.0416814
0.0421179
0.0379916
0.0381679
0.0383639
0.0385788
0.0388129
0.0390659
0.0393367
0.0396259
0.0399331
0.0402583
0.0406007
0.0409606
0.0413383
0.0417333
0.0421451
0.0425734
0.0430195
0.0386579
0.0388167
0.0389958
0.0391947
0.039413
0.039651
0.0399082
0.0401838
0.0404781
0.0407911
0.0411226
0.041472
0.0418397
0.0422256
0.0426293
0.0430504
0.0434887
0.0439448
0.0394952
0.0396571
0.0398393
0.0400417
0.0402639
0.0405064
0.0407685
0.0410494
0.0413496
0.0416689
0.0420076
0.0423648
0.0427408
0.0431357
0.0435489
0.0439801
0.0444287
0.0448954
0.0403498
0.0405149
0.0407007
0.040907
0.0411339
0.0413813
0.0416489
0.0419357
0.0422425
0.0425688
0.0429152
0.0432808
0.0436659
0.0440703
0.0444936
0.0449353
0.0453949
0.0458726
0.0412239
0.0413925
0.0415822
0.041793
0.0420249
0.0422776
0.0425513
0.0428447
0.0431585
0.0434925
0.0438472
0.0442217
0.0446164
0.0450307
0.0454646
0.0459173
0.0463882
0.0468772
0.0421196
0.0422918
0.0424859
0.0427016
0.0429389
0.0431974
0.0434774
0.043778
0.0440995
0.0444416
0.0448051
0.045189
0.0455935
0.0460183
0.0464631
0.046927
0.0474093
0.0479096
0.0430387
0.043215
0.0434136
0.0436346
0.0438778
0.0441424
0.0444292
0.0447373
0.0450668
0.0454175
0.04579
0.0461836
0.0465982
0.0470336
0.0474895
0.0479647
0.0484582
0.0489697
0.043983
0.0441636
0.0443673
0.0445937
0.044843
0.045114
0.0454079
0.0457239
0.0460615
0.0464212
0.046803
0.0472063
0.0476311
0.0480772
0.0485438
0.04903
0.0495345
0.0500568
0.044954
0.0451392
0.0453481
0.0455804
0.0458357
0.0461135
0.0464147
0.0467386
0.0470848
0.0474533
0.0478445
0.0482573
0.0486921
0.0491486
0.0496256
0.0501223
0.0506372
0.0511695
0.045953
0.046143
0.0463572
0.0465953
0.0468569
0.0471414
0.0474502
0.0477819
0.0481366
0.048514
0.0489143
0.0493363
0.0497807
0.0502471
0.0507336
0.0512402
0.0517652
0.0523073
0.0469807
0.0471755
0.047395
0.0476389
0.0479069
0.0481983
0.0485143
0.0488538
0.0492166
0.0496024
0.0500113
0.0504423
0.0508958
0.0513713
0.0518666
0.0523824
0.0529171
0.0534702
0.0480375
0.048237
0.0484616
0.0487113
0.0489855
0.0492835
0.0496065
0.0499535
0.0503241
0.0507177
0.0511346
0.0515738
0.0520356
0.0525196
0.0530238
0.0535489
0.0540939
0.0546586
0.0491233
0.0493272
0.0495568
0.0498118
0.0500921
0.0503963
0.0507258
0.0510796
0.0514574
0.0518583
0.0522826
0.0527298
0.0531999
0.0536926
0.054206
0.0547412
0.0552967
0.0558729
0.0502367
0.0504448
0.0506791
0.0509393
0.0512251
0.0515351
0.0518707
0.0522307
0.0526151
0.0530234
0.0534553
0.0539106
0.0543895
0.0548914
0.0554145
0.0559597
0.0565255
0.0571125
0.0513766
0.0515887
0.0518273
0.0520923
0.0523833
0.0526985
0.0530402
0.0534066
0.053798
0.0542138
0.0546539
0.0551178
0.0556055
0.0561165
0.0566492
0.057204
0.0577799
0.0583769
0.0525416
0.0527575
0.0530004
0.0532701
0.0535663
0.0538872
0.0542351
0.0546084
0.0550072
0.0554309
0.055879
0.0563515
0.056848
0.0573679
0.0579096
0.0584736
0.0590593
0.0596659
0.0535383
0.0537317
0.0539515
0.054199
0.0544738
0.0547757
0.0551026
0.0554569
0.0558371
0.0562432
0.0566746
0.0571306
0.0576114
0.0581162
0.0586449
0.0591954
0.0597684
0.0603632
0.060979
0.0547518
0.0549488
0.0551727
0.0554247
0.0557046
0.0560119
0.0563451
0.0567056
0.0570927
0.0575056
0.0579444
0.0584083
0.058897
0.0594099
0.0599471
0.060506
0.0610878
0.0616917
0.0623166
0.0558203
0.0559925
0.0561931
0.056421
0.0566775
0.0569624
0.0572751
0.0576142
0.0579811
0.0583745
0.0587941
0.0592402
0.0597116
0.0602081
0.0607289
0.061274
0.0618415
0.0624319
0.0630445
0.0636784
0.0570854
0.0572606
0.0574645
0.0576962
0.0579571
0.058247
0.0585648
0.0589097
0.0592826
0.0596823
0.0601084
0.0605615
0.0610404
0.0615441
0.0620729
0.062626
0.0632016
0.0638005
0.0644219
0.065065
0.0583775
0.0585556
0.0587627
0.0589982
0.0592635
0.0595578
0.0598808
0.0602311
0.0606099
0.0610156
0.0614482
0.0619081
0.0623942
0.0629051
0.0634418
0.0640028
0.0645867
0.0651941
0.0658241
0.0664765
0.0596961
0.0598769
0.0600873
0.0603265
0.0605959
0.0608945
0.0612226
0.0615782
0.0619628
0.0623743
0.0628136
0.0632801
0.0637732
0.0642914
0.064836
0.0654047
0.0659971
0.0666131
0.067252
0.0679137
0.0610412
0.0612247
0.061438
0.0616809
0.0619542
0.0622572
0.0625902
0.0629511
0.0633412
0.0637588
0.0642045
0.0646777
0.0651778
0.0657034
0.0662557
0.0668325
0.0674333
0.0680582
0.0687059
0.0693772
0.0624126
0.0625987
0.062815
0.0630616
0.0633387
0.063646
0.0639837
0.0643498
0.0647455
0.0651692
0.0656213
0.0661012
0.0666082
0.0671415
0.0677016
0.0682865
0.0688958
0.0695298
0.0701868
0.0708679
0.0638101
0.0639989
0.0642181
0.0644683
0.0647496
0.0650612
0.0654034
0.065775
0.0661761
0.0666057
0.0670643
0.0675511
0.0680654
0.0686064
0.0691744
0.0697676
0.0703858
0.0710289
0.0716955
0.0723865
0.0652342
0.0654257
0.0656481
0.0659018
0.066187
0.0665031
0.0668501
0.067227
0.0676335
0.0680694
0.0685345
0.0690281
0.0695498
0.0700988
0.0706749
0.0712767
0.071904
0.0725566
0.073233
0.0739343
0.0666854
0.0668798
0.0671052
0.0673626
0.0676519
0.0679724
0.068324
0.0687064
0.0691185
0.0695609
0.0700326
0.0705332
0.0710625
0.0716195
0.072204
0.0728148
0.0734514
0.0741137
0.0748004
0.0755123
0.0681643
0.0683615
0.0685901
0.0688512
0.0691446
0.0694697
0.0698262
0.070214
0.0706321
0.0710809
0.0715593
0.0720674
0.0726045
0.0731697
0.073763
0.0743829
0.075029
0.0757013
0.0763986
0.0771216
0.0696718
0.0698717
0.0701037
0.0703686
0.0706662
0.070996
0.0713575
0.0717511
0.0721751
0.0726304
0.0731159
0.0736315
0.0741767
0.0747504
0.0753527
0.075982
0.0766381
0.0773207
0.0780291
0.0787635
0.0712087
0.0714115
0.0716468
0.0719155
0.0722175
0.0725522
0.072919
0.0733184
0.0737487
0.0742106
0.0747034
0.0752268
0.0757802
0.0763628
0.0769744
0.0776136
0.07828
0.0789733
0.0796931
0.0804391
0.0727761
0.0729817
0.0732206
0.0734934
0.0737999
0.0741395
0.0745118
0.0749171
0.075354
0.0758228
0.0763231
0.0768545
0.0774164
0.0780083
0.0786294
0.0792789
0.0799558
0.0806604
0.0813919
0.08215
0.0743752
0.0745839
0.0748263
0.0751031
0.0754144
0.0757591
0.076137
0.0765484
0.0769922
0.0774683
0.0779763
0.0785159
0.0790866
0.079688
0.0803191
0.0809792
0.0816671
0.0823834
0.0831269
0.0838977
0.0760073
0.0762189
0.0764651
0.0767461
0.0770624
0.0774122
0.0777959
0.0782138
0.0786645
0.0791481
0.0796641
0.0802124
0.0807921
0.0814035
0.0820449
0.082716
0.0834153
0.0841437
0.0848997
0.0856836
0.0776736
0.0778883
0.0781383
0.0784238
0.0787451
0.0791004
0.0794901
0.0799146
0.0803724
0.0808639
0.0813883
0.0819454
0.0825346
0.0831563
0.0838085
0.0844909
0.0852021
0.0859427
0.086712
0.0875095
0.0793754
0.0795935
0.0798476
0.0801376
0.0804639
0.080825
0.0812209
0.0816522
0.0821176
0.0826171
0.0831501
0.0837164
0.0843155
0.0849478
0.0856113
0.0863053
0.0870289
0.0877824
0.0885652
0.0893768
0.0811143
0.0813359
0.0815941
0.081889
0.0822204
0.0825875
0.0829899
0.0834283
0.0839014
0.0844095
0.0849514
0.0855272
0.0861367
0.0867799
0.0874549
0.0881611
0.0888976
0.0896644
0.0904612
0.0912874
0.0828921
0.0831172
0.0833797
0.0836794
0.0840163
0.0843895
0.0847988
0.0852444
0.0857258
0.0862424
0.0867937
0.0873794
0.0879997
0.0886542
0.0893411
0.09006
0.0908098
0.0915904
0.0924017
0.0932431
0.0847101
0.084939
0.085206
0.0855106
0.0858533
0.0862328
0.0866493
0.0871025
0.0875922
0.0881178
0.0886788
0.0892748
0.0899062
0.0905725
0.0912718
0.0920039
0.0927673
0.0935624
0.0943888
0.0952459
0.0865704
0.0868031
0.0870747
0.0873845
0.087733
0.0881193
0.0885431
0.0890042
0.0895027
0.0900377
0.0906087
0.0912153
0.0918582
0.0925366
0.0932489
0.0939946
0.0947722
0.0955822
0.0964242
0.0972976
0.0884745
0.0887113
0.0889877
0.0893028
0.0896576
0.0900507
0.0904822
0.0909516
0.0914591
0.0920037
0.0925851
0.0932029
0.0938577
0.0945486
0.0952744
0.0960342
0.0968265
0.097652
0.0985102
0.0994005
0.0904246
0.0906657
0.0909469
0.0912677
0.0916289
0.0920291
0.0924685
0.0929466
0.0934634
0.0940181
0.0946102
0.0952397
0.0959068
0.0966107
0.0973503
0.0981246
0.0989323
0.0997739
0.100649
0.101557
0.0936489
0.0940567
0.0945041
0.0949912
0.0955178
0.0960827
0.0966861
0.0973277
0.0980076
0.098725
0.0994789
0.100268
0.101092
0.10195
0.102842
0.103769
0.0976243
0.0982001
0.098815
0.099469
0.100162
0.100894
0.101662
0.102468
0.103308
0.104183
0.105093
0.106038
0.037116
0.0367208
0.0379138
0.0375144
0.0387238
0.0383195
0.039548
0.0391376
0.0387443
0.0403883
0.0399711
0.0395709
0.0412471
0.040822
0.0404142
0.0400231
0.0421261
0.0416923
0.0412761
0.0408768
0.0430272
0.042584
0.0421585
0.0417506
0.0439523
0.0434989
0.0430636
0.0426462
0.0422471
0.0449027
0.0444386
0.0439927
0.0435652
0.0431559
0.0458795
0.0454045
0.0449475
0.0445093
0.0440896
0.0468838
0.0463975
0.0459292
0.0454798
0.0450495
0.0479159
0.0474181
0.0469385
0.0464777
0.0460365
0.0489755
0.0484668
0.0479754
0.0475034
0.0470514
0.0500622
0.0495426
0.0490402
0.0485571
0.0480941
0.0476537
0.0511746
0.0506448
0.0501319
0.0496383
0.0491646
0.048713
0.0523117
0.0517722
0.0512493
0.0507459
0.0502622
0.0498
0.0493573
0.0534741
0.0529235
0.0523911
0.0518785
0.0513853
0.0509134
0.0504618
0.0500291
0.0546619
0.0540996
0.053557
0.053035
0.0525328
0.0520518
0.0515918
0.051151
0.0507312
0.0558755
0.0553015
0.0547486
0.0542162
0.0537045
0.0532144
0.052746
0.0522975
0.0518703
0.0514653
0.0571145
0.0565294
0.0559661
0.0554236
0.0549019
0.0544023
0.0539249
0.0534687
0.053034
0.052622
0.0583784
0.057783
0.0572094
0.056657
0.0561258
0.0556167
0.05513
0.0546655
0.054223
0.0538038
0.059667
0.0590617
0.0584783
0.0579163
0.0573757
0.0568573
0.0563618
0.0558891
0.0554387
0.055012
0.06098
0.0603649
0.0597721
0.0592009
0.0586513
0.0581239
0.0576201
0.0571391
0.0566809
0.0562469
0.0623171
0.0616928
0.0610908
0.0605106
0.0599523
0.0594163
0.0589042
0.0584152
0.0579497
0.0575084
0.0636788
0.0630452
0.0624343
0.0618451
0.0612782
0.0607341
0.0602138
0.0597171
0.0592444
0.0587963
0.065065
0.0644223
0.0638025
0.0632046
0.0626294
0.0620771
0.0615487
0.0610445
0.0605647
0.0601099
0.0664763
0.0658244
0.0651957
0.0645892
0.0640055
0.0634451
0.0629089
0.0623971
0.0619104
0.0614492
0.0679131
0.067252
0.0666143
0.0659992
0.0654069
0.0648384
0.0642945
0.0637753
0.0632814
0.0628139
0.0693764
0.0687058
0.0680587
0.0674351
0.0668341
0.0662575
0.0657057
0.0651792
0.0646781
0.0642042
0.0708668
0.0701866
0.06953
0.0688974
0.0682877
0.0677029
0.0671432
0.0666094
0.0661009
0.0656203
0.0723853
0.0716951
0.0710289
0.0703872
0.0697686
0.0691754
0.0686075
0.0680661
0.0675503
0.0670629
0.0371146
0.0379123
0.0387222
0.0395464
0.0403868
0.0412455
0.0421244
0.0430256
0.0439506
0.0449011
0.045878
0.0468822
0.0479144
0.0489743
0.0500611
0.0511735
0.052311
0.0534734
0.0546617
0.0558756
0.0571147
0.0583787
0.0596673
0.0609801
0.0623174
0.0636789
0.0650653
0.0664767
0.0679139
0.0693773
0.0708677
0.0723862
0.0367171
0.0375105
0.0383151
0.0391331
0.0399664
0.0408173
0.0416876
0.0425792
0.043494
0.0444338
0.0453997
0.0463926
0.0474133
0.0484618
0.049538
0.0506405
0.051768
0.0529197
0.0540963
0.0552989
0.0565277
0.0577819
0.059061
0.0603649
0.0616932
0.0630459
0.0644232
0.0658254
0.0672533
0.0687071
0.0701879
0.0716963
0.0732335
0.0363337
0.0371231
0.0379231
0.0387355
0.0395622
0.0404055
0.0412675
0.0421501
0.0430553
0.0439846
0.0449395
0.0459211
0.0469305
0.047968
0.0490333
0.0501254
0.0512431
0.052385
0.0535514
0.0547433
0.0559615
0.0572057
0.0584755
0.0597703
0.0610897
0.0624335
0.0638022
0.0651958
0.0666148
0.0680598
0.0695314
0.0710304
0.0725579
0.0741148
0.0757025
0.0773219
0.0789744
0.0806614
0.0359629
0.0367489
0.0375447
0.0383519
0.0391728
0.0400093
0.0408636
0.0417377
0.0426334
0.0435527
0.044497
0.0454679
0.0464661
0.0474923
0.0485465
0.0496281
0.050736
0.0518689
0.053026
0.0542082
0.0554164
0.0566509
0.0579113
0.059197
0.0605078
0.0618433
0.0632035
0.0645885
0.0659988
0.0674348
0.0688974
0.0703871
0.0719051
0.0734523
0.0750298
0.0766387
0.0782804
0.0799561
0.0356053
0.0363885
0.0371807
0.0379836
0.038799
0.0396294
0.0404767
0.0413429
0.0422299
0.0431397
0.044074
0.0450343
0.0460216
0.0470367
0.0480802
0.0491515
0.0502497
0.0513737
0.0525217
0.0536945
0.0548933
0.0561183
0.0573695
0.0586464
0.0599485
0.0612756
0.0626274
0.0640042
0.0654062
0.0668341
0.0682881
0.0697691
0.071278
0.0728159
0.0743837
0.0759826
0.0776139
0.0792788
0.0352617
0.0360423
0.0368313
0.0376302
0.0384408
0.0392655
0.0401061
0.0409649
0.0418438
0.0427448
0.0436697
0.0446201
0.0455972
0.0466017
0.0476346
0.0486955
0.049784
0.0508989
0.0520388
0.053203
0.0543925
0.0556082
0.0568505
0.0581188
0.0594125
0.0607313
0.062075
0.0634439
0.064838
0.0662576
0.0677034
0.0691759
0.0706761
0.0722051
0.0737637
0.0753531
0.0769747
0.0786295
0.080319
0.0349318
0.0357102
0.0364963
0.0372916
0.0380981
0.0389176
0.0397523
0.0406043
0.0414756
0.0423684
0.0432845
0.0442254
0.0451927
0.0461872
0.0472097
0.0482607
0.0493396
0.0504453
0.0515767
0.0527325
0.0539133
0.0551204
0.056354
0.0576136
0.0588991
0.0602101
0.0615462
0.0629073
0.0642937
0.0657056
0.0671435
0.0686081
0.0701002
0.0716208
0.0731708
0.0747513
0.0763635
0.0780087
0.0796883
0.0346162
0.0353924
0.0361758
0.0369682
0.0377707
0.0385858
0.0394151
0.040261
0.0411254
0.0420106
0.0429184
0.0438504
0.0448081
0.0457932
0.0468061
0.0478475
0.048917
0.050014
0.0511373
0.0522853
0.0534578
0.0546562
0.055881
0.0571325
0.0584101
0.0597134
0.0610419
0.0623958
0.0637748
0.0651792
0.0666095
0.0680665
0.0695509
0.0710635
0.0726052
0.0741772
0.0757806
0.0774167
0.0790868
0.0343149
0.0350894
0.0358709
0.0366605
0.0374599
0.0382708
0.0390952
0.0399355
0.0407936
0.0416717
0.0425717
0.0434954
0.0444445
0.0454203
0.046424
0.0474559
0.0485163
0.0496046
0.0507198
0.0518605
0.0530256
0.0542159
0.0554326
0.0566762
0.057946
0.0592417
0.060563
0.0619096
0.0632817
0.0646793
0.0661027
0.0675526
0.0690296
0.0705346
0.0720685
0.0736323
0.0752273
0.0768548
0.0785159
0.0340289
0.0348017
0.0355814
0.0363688
0.0371655
0.0379729
0.0387932
0.0396285
0.0404808
0.0413523
0.0422452
0.0431612
0.0441021
0.0450692
0.0460639
0.0470869
0.0481386
0.0492187
0.0503261
0.0514594
0.0526171
0.0537998
0.0550088
0.0562447
0.0575071
0.0587957
0.0601098
0.0614494
0.0628145
0.0642052
0.0656219
0.0670651
0.0685354
0.0700334
0.0715602
0.0731166
0.0747039
0.0763233
0.0779763
0.0337585
0.0345302
0.0353083
0.0360937
0.0368877
0.037692
0.0385084
0.0393391
0.0401861
0.0410518
0.041938
0.0428469
0.0437801
0.0447392
0.0457256
0.0467402
0.0477835
0.0488554
0.049955
0.0510812
0.0522323
0.0534081
0.0546098
0.0558382
0.0570934
0.0583749
0.0596825
0.0610157
0.0623746
0.0637591
0.0651694
0.0666059
0.0680696
0.069561
0.071081
0.0726306
0.0742109
0.075823
0.0774683
0.0342745
0.0350511
0.0358346
0.0366263
0.0374278
0.0382408
0.0390674
0.0399097
0.0407699
0.04165
0.0425522
0.0434784
0.0444302
0.0454091
0.0464159
0.0474512
0.0485153
0.0496075
0.0507267
0.0518714
0.0530406
0.0542352
0.0554568
0.0567051
0.0579801
0.0592814
0.0606086
0.0619615
0.0633402
0.0647446
0.0661752
0.0676328
0.0691181
0.0706319
0.072175
0.0737485
0.0753536
0.0769915
0.0348105
0.0355925
0.0363821
0.0371812
0.0379911
0.0388142
0.0396522
0.0405076
0.0413825
0.0422788
0.0431986
0.0441435
0.0451151
0.0461144
0.0471425
0.0481992
0.0492842
0.0503969
0.0515354
0.0526985
0.0538869
0.0551018
0.056344
0.0576131
0.0589086
0.0602302
0.0615774
0.0629504
0.0643492
0.0657741
0.067226
0.0687054
0.070213
0.07175
0.0733171
0.0749157
0.0765471
0.0345869
0.0353674
0.0361554
0.0369523
0.0377595
0.0385794
0.0394137
0.0402649
0.041135
0.0420261
0.04294
0.0438786
0.0448435
0.045836
0.0468571
0.047907
0.0489856
0.0500919
0.0512246
0.0523823
0.0535649
0.0547739
0.0560101
0.0572733
0.0585632
0.0598793
0.0612213
0.062589
0.0639828
0.0654027
0.0668494
0.0683234
0.0698255
0.0713567
0.072918
0.0745106
0.0761357
0.0351602
0.0359466
0.0367416
0.0375465
0.0383636
0.0391948
0.040042
0.0409077
0.0417938
0.0427025
0.0436354
0.0445943
0.0455806
0.0465952
0.0476387
0.0487111
0.0498116
0.0509389
0.0520917
0.0532696
0.0544732
0.0557041
0.0569619
0.0582464
0.0595575
0.0608944
0.0622572
0.0636459
0.0650609
0.0665027
0.0679717
0.0694688
0.0709949
0.0725511
0.0741383
0.0757577
0.034971
0.0357562
0.0365494
0.0373523
0.0381669
0.0389951
0.039839
0.0407007
0.0415826
0.0424865
0.0434144
0.044368
0.0453487
0.0463575
0.0473952
0.0484618
0.0495569
0.0506793
0.0518274
0.0530003
0.0541988
0.0554244
0.0566774
0.0579574
0.0592637
0.060596
0.0619543
0.0633386
0.064749
0.0661862
0.0676507
0.0691432
0.0706647
0.072216
0.0737982
0.0754126
0.0355841
0.036376
0.0371772
0.0379894
0.0388149
0.0396558
0.0405141
0.041392
0.0422917
0.043215
0.0441636
0.0451392
0.0461428
0.0471752
0.0482367
0.0493267
0.0504444
0.0515883
0.0527569
0.053951
0.0551722
0.0564206
0.0576961
0.058998
0.0603263
0.0616806
0.0630611
0.0644679
0.0659013
0.0673619
0.0688504
0.0703677
0.0719146
0.0734923
0.075102
0.0362215
0.0370212
0.0378315
0.0386548
0.0394929
0.0403482
0.0412227
0.0421187
0.0430379
0.0439823
0.0449534
0.0459525
0.0469803
0.0480371
0.0491228
0.0502361
0.0513761
0.0525412
0.0537316
0.0549485
0.0561928
0.0574643
0.0587624
0.060087
0.0614377
0.0628146
0.0642178
0.0656478
0.0671048
0.0685895
0.0701031
0.0716463
0.0732201
0.0748257
0.0360858
0.0368842
0.0376932
0.0385145
0.0393504
0.0402032
0.0410748
0.0419677
0.0428836
0.0438243
0.0447915
0.0457865
0.0468102
0.047863
0.0489446
0.0500544
0.0511908
0.0523524
0.0535393
0.0547528
0.0559935
0.0572614
0.058556
0.0598772
0.0612247
0.0625983
0.0639983
0.065425
0.0668789
0.0683605
0.0698708
0.0714107
0.0729811
0.0745831
0.0359694
0.0367666
0.0375742
0.0383939
0.039228
0.0400786
0.040948
0.041838
0.0427509
0.0436886
0.0446524
0.0456439
0.0466641
0.0477134
0.0487916
0.0498981
0.0510317
0.0521907
0.0533747
0.0545848
0.0558224
0.0570874
0.0583793
0.0596978
0.0610425
0.0624135
0.0638109
0.065235
0.0666862
0.0681651
0.0696725
0.0712093
0.0727767
0.0743758
0.0358718
0.0366684
0.0374752
0.0382937
0.0391263
0.0399752
0.0408425
0.0417303
0.0426408
0.0435757
0.0445367
0.0455254
0.0465425
0.0475888
0.0486641
0.0497679
0.0508989
0.0520555
0.0532371
0.0544449
0.0556797
0.0569421
0.0582316
0.0595479
0.0608904
0.0622592
0.0636543
0.0650761
0.066525
0.0680017
0.0695069
0.0710414
0.0726064
0.0742027
0.0365909
0.0373964
0.0382138
0.0390451
0.0398925
0.040758
0.0416441
0.0425527
0.0434856
0.0444444
0.0454308
0.0464454
0.0474893
0.0485622
0.0496637
0.0507927
0.0519475
0.0531272
0.054333
0.0555658
0.056826
0.0581133
0.0594276
0.0607682
0.0621353
0.0635287
0.0649488
0.066396
0.0678707
0.069374
0.0709066
0.0724696
0.074064
0.0365322
0.0373374
0.038154
0.0389845
0.0398308
0.0406952
0.04158
0.0424871
0.0434185
0.0443757
0.0453602
0.0463731
0.047415
0.0484861
0.049586
0.0507131
0.0518662
0.0530444
0.0542486
0.0554801
0.0567389
0.0580249
0.0593378
0.0606773
0.0620429
0.0634349
0.0648536
0.0662993
0.0677727
0.0692744
0.0708055
0.0723669
0.0739597
0.0372995
0.0381154
0.0389451
0.0397905
0.040654
0.0415377
0.0424437
0.043374
0.0443299
0.0453132
0.0463249
0.0473657
0.0484358
0.0495344
0.0506604
0.0518126
0.0529898
0.054193
0.0554233
0.0566811
0.0579661
0.0592778
0.0606161
0.0619808
0.063372
0.0647896
0.0662344
0.0677068
0.0692075
0.0707376
0.072298
0.0738898
0.0372804
0.0380962
0.0389255
0.0397706
0.0406336
0.0415168
0.0424222
0.0433518
0.0443073
0.0452901
0.0463012
0.0473414
0.0484107
0.0495088
0.0506344
0.051786
0.0529626
0.0541651
0.0553947
0.0566518
0.0579363
0.0592475
0.0605854
0.0619496
0.0633403
0.0647575
0.0662018
0.0676735
0.0691738
0.0707034
0.0722632
0.0738545
0.0380975
0.0389264
0.0397713
0.0406342
0.0415173
0.0424226
0.0433521
0.0443075
0.0452902
0.0463012
0.0473414
0.0484107
0.0495086
0.0506343
0.0517861
0.0529627
0.0541651
0.0553946
0.0566517
0.0579362
0.0592475
0.0605855
0.0619496
0.0633403
0.0647575
0.0662018
0.0676736
0.069174
0.0707035
0.0722634
0.0738546
0.0381186
0.0389479
0.0397932
0.0406564
0.0415399
0.0424456
0.0433754
0.0443312
0.0453143
0.0463259
0.0473667
0.0484365
0.0495349
0.050661
0.051813
0.0529902
0.0541931
0.0554233
0.0566809
0.0579658
0.0592777
0.0606162
0.0619809
0.0633718
0.0647894
0.0662342
0.0677066
0.0692074
0.0707374
0.0722977
0.0738895
0.0381601
0.0389898
0.0398357
0.0406997
0.041584
0.0424905
0.0434214
0.0443782
0.0453625
0.0463754
0.0474172
0.0484881
0.0495877
0.0507146
0.0518676
0.0530457
0.0542495
0.0554807
0.0567394
0.0580254
0.0593381
0.0606772
0.0620426
0.0634344
0.0648528
0.0662984
0.0677717
0.0692734
0.0708046
0.0723659
0.0739586
0.0382213
0.0390521
0.0398989
0.040764
0.0416494
0.0425575
0.0434901
0.0444488
0.0454348
0.0464493
0.0474928
0.0485656
0.0496667
0.0507953
0.0519498
0.0531293
0.0543348
0.0555674
0.0568274
0.0581144
0.0594284
0.0607689
0.0621358
0.0635291
0.0649489
0.0663958
0.0678703
0.0693733
0.0709056
0.0724683
0.0740625
0.0383028
0.0391345
0.0399827
0.0408493
0.0417367
0.0426468
0.0435815
0.0445423
0.0455307
0.0465475
0.0475932
0.0486682
0.0497714
0.0509019
0.052058
0.0532392
0.0544466
0.0556813
0.0569434
0.0582328
0.0595486
0.0608907
0.0622591
0.0636539
0.0650755
0.0665242
0.0680006
0.0695056
0.07104
0.0726048
0.0742012
0.0384047
0.0392379
0.0400878
0.0409565
0.0418461
0.0427586
0.0436958
0.0446595
0.0456506
0.0466703
0.0477189
0.0487966
0.0499027
0.0510358
0.0521943
0.0533777
0.0545875
0.0558247
0.0570893
0.0583808
0.0596991
0.0610436
0.0624143
0.0638115
0.0652354
0.0666863
0.0681651
0.0696724
0.0712092
0.0727764
0.0743752
0.0385265
0.0393616
0.0402136
0.0410848
0.0419771
0.0428924
0.0438328
0.0447996
0.0457943
0.0468175
0.0478697
0.0489508
0.0500601
0.051196
0.0523574
0.0535438
0.0547568
0.055997
0.0572643
0.0585587
0.0598797
0.0612269
0.0626003
0.0640001
0.0654265
0.06688
0.0683613
0.0698713
0.0714109
0.0729811
0.074583
0.0386687
0.0395059
0.0403605
0.0412345
0.0421298
0.0430486
0.0439924
0.044963
0.0459614
0.0469886
0.048045
0.0491302
0.0502431
0.0513826
0.0525472
0.0537372
0.0549536
0.0561973
0.0574683
0.058766
0.0600903
0.0614408
0.0628173
0.0642202
0.0656497
0.0671062
0.0685908
0.070104
0.0716469
0.0732205
0.0748258
0.038831
0.0396709
0.0405285
0.0414056
0.0423046
0.0432273
0.0441754
0.0451504
0.0461534
0.0471853
0.0482464
0.0493361
0.0504534
0.0515967
0.0527647
0.0539582
0.0551787
0.0564265
0.0577016
0.0590031
0.060331
0.0616849
0.0630648
0.0644711
0.065904
0.0673641
0.0688523
0.0703691
0.0719158
0.0734933
0.0751028
0.0390125
0.0398553
0.0407161
0.0415972
0.0425004
0.0434276
0.0443804
0.0453605
0.0463687
0.0474059
0.0484721
0.0495666
0.0506886
0.0518362
0.0530085
0.0542066
0.0554314
0.0566837
0.0579629
0.0592686
0.0606004
0.0619583
0.0633422
0.0647523
0.0661892
0.0676533
0.0691454
0.0706664
0.0722174
0.0737992
0.0754131
0.0392132
0.0400593
0.040924
0.0418094
0.0427173
0.0436496
0.044608
0.0455936
0.0466077
0.0476507
0.0487226
0.0498226
0.0509494
0.0521015
0.0532786
0.0544815
0.0557114
0.0569684
0.0582521
0.0595624
0.0608989
0.0622612
0.0636495
0.065064
0.0665052
0.0679736
0.0694702
0.0709958
0.0725515
0.0741382
0.0757572
0.0394336
0.0402835
0.0411525
0.0420427
0.0429559
0.0438939
0.0448583
0.0458503
0.0468705
0.0479196
0.0489976
0.0501032
0.0512353
0.0523923
0.0535743
0.0547825
0.0560179
0.0572803
0.0585693
0.0598845
0.0612256
0.0625926
0.0639857
0.0654051
0.0668511
0.0683247
0.0698264
0.0713573
0.0729182
0.0745104
0.0761351
0.0396733
0.0405276
0.0414016
0.0422971
0.0432162
0.0441606
0.0451315
0.0461302
0.0471574
0.0482134
0.0492979
0.0504097
0.0515475
0.05271
0.0538976
0.0551117
0.0563528
0.0576209
0.0589152
0.0602358
0.0615821
0.0629542
0.0643523
0.0657767
0.0672278
0.0687065
0.0702137
0.0717499
0.0733166
0.0749148
0.0765457
0.0399319
0.0407909
0.0416703
0.0425719
0.0434973
0.0444484
0.0454265
0.0464326
0.0474672
0.0485306
0.049622
0.0507403
0.051884
0.0530524
0.0542463
0.0554669
0.0567143
0.0579882
0.0592884
0.0606145
0.0619663
0.063344
0.0647477
0.0661777
0.0676346
0.0691193
0.0706323
0.0721747
0.0737476
0.0753521
0.0769897
0.0402098
0.0410742
0.0419595
0.0428676
0.0438001
0.0447588
0.0457445
0.0467584
0.047801
0.0488719
0.0499705
0.0510955
0.0522456
0.0534202
0.0546209
0.0558481
0.057102
0.0583825
0.0596889
0.0610211
0.0623791
0.0637626
0.0651722
0.0666082
0.0680712
0.0695618
0.0710812
0.0726302
0.07421
0.0758217
0.0774664
0.0405068
0.041377
0.0422687
0.0431837
0.0441238
0.0450903
0.0460843
0.0471064
0.0481572
0.0492362
0.0503424
0.0514745
0.0526312
0.0538125
0.0550204
0.0562549
0.0575162
0.0588036
0.0601167
0.0614553
0.0628193
0.064209
0.0656249
0.0670673
0.0685367
0.0700341
0.0715604
0.0731165
0.0747035
0.0763227
0.0779752
0.0408223
0.041699
0.0425979
0.0435205
0.0444687
0.0454435
0.0464462
0.0474773
0.0485367
0.0496241
0.0507382
0.0518774
0.0530411
0.05423
0.0554453
0.0566873
0.0579558
0.0592502
0.0605702
0.0619156
0.0632864
0.0646829
0.0661054
0.0675545
0.069031
0.0705355
0.0720689
0.0736325
0.0752273
0.0768545
0.0785154
0.0411561
0.0420397
0.0429463
0.0438773
0.0448343
0.0458183
0.0468301
0.0478703
0.0489387
0.0500348
0.0511568
0.0523037
0.0534749
0.0546717
0.055895
0.0571448
0.0584207
0.0597223
0.0610493
0.0624016
0.0637795
0.0651831
0.0666129
0.0680692
0.069553
0.071065
0.0726062
0.0741778
0.075781
0.0774168
0.0790867
0.0415084
0.0423995
0.0433143
0.044254
0.0452202
0.0462139
0.0472356
0.0482854
0.0493632
0.050468
0.0515981
0.0527523
0.0539314
0.0551365
0.0563682
0.057626
0.0589098
0.060219
0.0615537
0.0629137
0.0642991
0.06571
0.0671471
0.068611
0.0701024
0.0716225
0.073172
0.0747521
0.0763639
0.0780087
0.0796878
0.0418785
0.0427779
0.0437015
0.0446506
0.0456265
0.04663
0.0476617
0.0487216
0.0498089
0.0509223
0.0520607
0.053223
0.0544107
0.0556245
0.0568646
0.0581309
0.0594228
0.06074
0.0620823
0.0634499
0.0648428
0.0662614
0.0677064
0.0691783
0.0706781
0.0722066
0.0737649
0.0753541
0.0769753
0.0786298
0.080319
0.0422659
0.0431741
0.0441071
0.0450661
0.0460522
0.0470663
0.0481083
0.0491783
0.0502751
0.0513975
0.0525441
0.053715
0.0549117
0.0561348
0.057384
0.0586588
0.0599591
0.0612846
0.062635
0.0640107
0.0654118
0.0668386
0.0682919
0.0697724
0.0712809
0.0728182
0.0743857
0.0759843
0.0776153
0.0792799
0.0809794
0.0426704
0.043588
0.044531
0.0455006
0.0464975
0.0475224
0.0485752
0.0496556
0.0507623
0.051894
0.0530495
0.0542297
0.0554358
0.0566682
0.0579265
0.0592103
0.0605193
0.0618532
0.063212
0.0645959
0.0660051
0.0674404
0.0689024
0.0703916
0.0719091
0.0734558
0.0750329
0.0766415
0.0782828
0.0799582
0.081669
0.0834167
0.0852028
0.087029
0.088897
0.0430923
0.0440198
0.0449735
0.045954
0.0469622
0.0479983
0.0490622
0.0501527
0.0512689
0.0524094
0.0535742
0.0547641
0.05598
0.0572221
0.05849
0.059783
0.0611008
0.0624432
0.0638107
0.0652032
0.0666211
0.068065
0.0695358
0.0710343
0.0725612
0.0741177
0.0757049
0.077324
0.0789761
0.0806626
0.0823849
0.0841446
0.0859433
0.0877825
0.0896639
0.0435314
0.0444694
0.0454339
0.0464256
0.0474451
0.0484924
0.0495671
0.0506681
0.0517938
0.0529435
0.054118
0.0553185
0.0565449
0.0577969
0.0590741
0.0603764
0.0617031
0.0630546
0.0644309
0.0658325
0.0672595
0.0687128
0.070193
0.071701
0.0732378
0.0748044
0.0764021
0.0780319
0.0796953
0.0813934
0.083128
0.0849003
0.0867119
0.0885646
0.0904601
0.0439872
0.0449357
0.0459111
0.0469141
0.047945
0.0490035
0.0500888
0.0511998
0.0523353
0.0534957
0.0546818
0.0558935
0.0571305
0.0583928
0.0596797
0.0609914
0.0623273
0.063688
0.0650733
0.0664839
0.0679203
0.0693829
0.0708728
0.072391
0.0739381
0.0755153
0.0771239
0.0787652
0.0804405
0.0821511
0.0838984
0.0856839
0.0875092
0.0893762
0.0912864
0.0439869
0.0449355
0.0459109
0.0469138
0.0479446
0.0490031
0.0500885
0.0511994
0.0523351
0.0534954
0.0546816
0.0558933
0.0571305
0.0583928
0.0596798
0.0609913
0.0623274
0.0636879
0.0650733
0.0664839
0.0679203
0.0693831
0.070873
0.0723909
0.073938
0.0755153
0.0771239
0.0787652
0.0804404
0.0821508
0.0838981
0.0856837
0.0875092
0.0893761
0.0912864
0.0435305
0.0444686
0.045433
0.0464245
0.047444
0.0484911
0.0495659
0.050667
0.0517927
0.0529425