/*--------------------------------*- C++ -*----------------------------------*\
  =========                 |
  \\      /  F ield         | OpenFOAM: The Open Source CFD Toolbox
   \\    /   O peration     | Website:  https://openfoam.org
    \\  /    A nd           | Version:  7
     \\/     M anipulation  |
\*---------------------------------------------------------------------------*/
FoamFile
{
    version     2.0;
    format      ascii;
    class       volScalarField;
    location    "180000";
    object      k;
}
// * * * * * * * * * * * * * * * * * * * * * * * * * * * * * * * * * * * * * //

dimensions      [0 2 -2 0 0 0 0];

internalField   nonuniform List<scalar> 
4814
(
1.32213e-06
1.32285e-06
1.32349e-06
1.32407e-06
1.29391e-06
1.29615e-06
1.29824e-06
1.30019e-06
1.30202e-06
1.30374e-06
1.30536e-06
1.30687e-06
1.3083e-06
1.30963e-06
1.31087e-06
1.31201e-06
1.31306e-06
1.31402e-06
1.31489e-06
1.31568e-06
1.31638e-06
1.317e-06
1.31754e-06
1.31801e-06
1.31839e-06
1.3187e-06
1.31893e-06
1.31908e-06
1.31916e-06
1.31916e-06
1.31908e-06
1.31893e-06
1.3187e-06
1.31839e-06
1.31801e-06
1.31754e-06
1.317e-06
1.31638e-06
1.28459e-06
1.28697e-06
1.2892e-06
1.29128e-06
1.29323e-06
1.29507e-06
1.29681e-06
1.29843e-06
1.29997e-06
1.3014e-06
1.30273e-06
1.30396e-06
1.3051e-06
1.30613e-06
1.30707e-06
1.30792e-06
1.30869e-06
1.30936e-06
1.30995e-06
1.31045e-06
1.31086e-06
1.3112e-06
1.31145e-06
1.31161e-06
1.3117e-06
1.3117e-06
1.31161e-06
1.31145e-06
1.3112e-06
1.31086e-06
1.31045e-06
1.30995e-06
1.30936e-06
1.30869e-06
1.30792e-06
1.30707e-06
1.30613e-06
1.3051e-06
1.30396e-06
1.30273e-06
1.3014e-06
1.27462e-06
1.27714e-06
1.2795e-06
1.28172e-06
1.2838e-06
1.28576e-06
1.28761e-06
1.28936e-06
1.291e-06
1.29253e-06
1.29396e-06
1.29529e-06
1.29651e-06
1.29762e-06
1.29864e-06
1.29955e-06
1.30038e-06
1.3011e-06
1.30174e-06
1.30228e-06
1.30273e-06
1.30309e-06
1.30336e-06
1.30354e-06
1.30363e-06
1.30363e-06
1.30354e-06
1.30336e-06
1.30309e-06
1.30273e-06
1.30228e-06
1.30174e-06
1.3011e-06
1.30038e-06
1.29955e-06
1.29864e-06
1.29762e-06
1.29651e-06
1.29529e-06
1.29396e-06
1.29253e-06
1.291e-06
1.28936e-06
1.28761e-06
1.26394e-06
1.26661e-06
1.26911e-06
1.27147e-06
1.27368e-06
1.27577e-06
1.27775e-06
1.27961e-06
1.28136e-06
1.283e-06
1.28453e-06
1.28595e-06
1.28726e-06
1.28846e-06
1.28955e-06
1.29053e-06
1.29141e-06
1.2922e-06
1.29288e-06
1.29346e-06
1.29395e-06
1.29434e-06
1.29463e-06
1.29482e-06
1.29492e-06
1.29492e-06
1.29482e-06
1.29463e-06
1.29434e-06
1.29395e-06
1.29346e-06
1.29288e-06
1.2922e-06
1.29141e-06
1.29053e-06
1.28955e-06
1.28846e-06
1.28726e-06
1.28595e-06
1.28453e-06
1.283e-06
1.28136e-06
1.27961e-06
1.27775e-06
1.25252e-06
1.25534e-06
1.25799e-06
1.26049e-06
1.26284e-06
1.26506e-06
1.26716e-06
1.26915e-06
1.27101e-06
1.27277e-06
1.2744e-06
1.27592e-06
1.27732e-06
1.2786e-06
1.27976e-06
1.28082e-06
1.28176e-06
1.2826e-06
1.28334e-06
1.28396e-06
1.28449e-06
1.2849e-06
1.28521e-06
1.28542e-06
1.28553e-06
1.28553e-06
1.28542e-06
1.28521e-06
1.2849e-06
1.28449e-06
1.28396e-06
1.28334e-06
1.2826e-06
1.28176e-06
1.28082e-06
1.27976e-06
1.2786e-06
1.27732e-06
1.27592e-06
1.2744e-06
1.27277e-06
1.27101e-06
1.26915e-06
1.26716e-06
1.24032e-06
1.24329e-06
1.24609e-06
1.24873e-06
1.25123e-06
1.25359e-06
1.25582e-06
1.25793e-06
1.25991e-06
1.26178e-06
1.26352e-06
1.26514e-06
1.26663e-06
1.268e-06
1.26924e-06
1.27037e-06
1.27138e-06
1.27228e-06
1.27307e-06
1.27374e-06
1.2743e-06
1.27474e-06
1.27508e-06
1.2753e-06
1.27541e-06
1.27541e-06
1.2753e-06
1.27508e-06
1.27474e-06
1.2743e-06
1.27374e-06
1.27307e-06
1.27228e-06
1.27138e-06
1.27037e-06
1.26924e-06
1.268e-06
1.26663e-06
1.26514e-06
1.26352e-06
1.26178e-06
1.25991e-06
1.25793e-06
1.25582e-06
1.22728e-06
1.23041e-06
1.23337e-06
1.23616e-06
1.2388e-06
1.2413e-06
1.24367e-06
1.24591e-06
1.24802e-06
1.25e-06
1.25185e-06
1.25357e-06
1.25516e-06
1.25661e-06
1.25794e-06
1.25914e-06
1.26023e-06
1.26118e-06
1.26202e-06
1.26274e-06
1.26333e-06
1.26381e-06
1.26417e-06
1.26441e-06
1.26453e-06
1.26453e-06
1.26441e-06
1.26417e-06
1.26381e-06
1.26333e-06
1.26274e-06
1.26202e-06
1.26118e-06
1.26023e-06
1.25914e-06
1.25794e-06
1.25661e-06
1.25516e-06
1.25357e-06
1.25185e-06
1.25e-06
1.24801e-06
1.24591e-06
1.24367e-06
1.2413e-06
1.21336e-06
1.21666e-06
1.21977e-06
1.22272e-06
1.22551e-06
1.22816e-06
1.23066e-06
1.23303e-06
1.23527e-06
1.23737e-06
1.23933e-06
1.24116e-06
1.24285e-06
1.2444e-06
1.24581e-06
1.24709e-06
1.24824e-06
1.24926e-06
1.25015e-06
1.25092e-06
1.25155e-06
1.25206e-06
1.25244e-06
1.2527e-06
1.25282e-06
1.25282e-06
1.2527e-06
1.25244e-06
1.25206e-06
1.25155e-06
1.25092e-06
1.25015e-06
1.24926e-06
1.24824e-06
1.24709e-06
1.24581e-06
1.2444e-06
1.24285e-06
1.24116e-06
1.23933e-06
1.23737e-06
1.23527e-06
1.23303e-06
1.23066e-06
1.22816e-06
1.1985e-06
1.20197e-06
1.20525e-06
1.20836e-06
1.2113e-06
1.21409e-06
1.21674e-06
1.21925e-06
1.22162e-06
1.22384e-06
1.22592e-06
1.22786e-06
1.22965e-06
1.23129e-06
1.23279e-06
1.23415e-06
1.23538e-06
1.23646e-06
1.23741e-06
1.23822e-06
1.2389e-06
1.23944e-06
1.23985e-06
1.24012e-06
1.24025e-06
1.24025e-06
1.24012e-06
1.23985e-06
1.23944e-06
1.2389e-06
1.23822e-06
1.23741e-06
1.23646e-06
1.23538e-06
1.23415e-06
1.23279e-06
1.23129e-06
1.22965e-06
1.22786e-06
1.22592e-06
1.22384e-06
1.22162e-06
1.21925e-06
1.21674e-06
1.21409e-06
1.18265e-06
1.18629e-06
1.18974e-06
1.19301e-06
1.19611e-06
1.19906e-06
1.20185e-06
1.2045e-06
1.207e-06
1.20936e-06
1.21156e-06
1.21361e-06
1.21551e-06
1.21725e-06
1.21884e-06
1.22028e-06
1.22158e-06
1.22273e-06
1.22374e-06
1.2246e-06
1.22532e-06
1.22589e-06
1.22632e-06
1.22661e-06
1.22675e-06
1.22675e-06
1.22661e-06
1.22632e-06
1.22589e-06
1.22532e-06
1.2246e-06
1.22374e-06
1.22273e-06
1.22158e-06
1.22028e-06
1.21884e-06
1.21725e-06
1.21551e-06
1.21361e-06
1.21156e-06
1.20936e-06
1.207e-06
1.2045e-06
1.20185e-06
1.19906e-06
1.16573e-06
1.16955e-06
1.17317e-06
1.17662e-06
1.17988e-06
1.18299e-06
1.18593e-06
1.18873e-06
1.19137e-06
1.19385e-06
1.19618e-06
1.19835e-06
1.20035e-06
1.20219e-06
1.20388e-06
1.2054e-06
1.20678e-06
1.208e-06
1.20907e-06
1.20998e-06
1.21074e-06
1.21135e-06
1.21181e-06
1.21211e-06
1.21226e-06
1.21226e-06
1.21211e-06
1.21181e-06
1.21135e-06
1.21074e-06
1.20998e-06
1.20907e-06
1.208e-06
1.20678e-06
1.2054e-06
1.20388e-06
1.20219e-06
1.20035e-06
1.19835e-06
1.19618e-06
1.19385e-06
1.19137e-06
1.18873e-06
1.18593e-06
1.14769e-06
1.15169e-06
1.15549e-06
1.15911e-06
1.16254e-06
1.16581e-06
1.16891e-06
1.17186e-06
1.17464e-06
1.17726e-06
1.17971e-06
1.182e-06
1.18412e-06
1.18606e-06
1.18784e-06
1.18946e-06
1.19091e-06
1.1922e-06
1.19333e-06
1.1943e-06
1.19511e-06
1.19575e-06
1.19623e-06
1.19656e-06
1.19672e-06
1.19672e-06
1.19656e-06
1.19623e-06
1.19575e-06
1.19511e-06
1.1943e-06
1.19333e-06
1.1922e-06
1.19091e-06
1.18946e-06
1.18784e-06
1.18606e-06
1.18412e-06
1.182e-06
1.17971e-06
1.17726e-06
1.17464e-06
1.17186e-06
1.16891e-06
1.12845e-06
1.13264e-06
1.13662e-06
1.14042e-06
1.14403e-06
1.14746e-06
1.15072e-06
1.15382e-06
1.15675e-06
1.15951e-06
1.16209e-06
1.16451e-06
1.16674e-06
1.16879e-06
1.17067e-06
1.17237e-06
1.17391e-06
1.17527e-06
1.17647e-06
1.17749e-06
1.17834e-06
1.17902e-06
1.17953e-06
1.17987e-06
1.18004e-06
1.18004e-06
1.17987e-06
1.17953e-06
1.17902e-06
1.17834e-06
1.17749e-06
1.17647e-06
1.17527e-06
1.17391e-06
1.17237e-06
1.17067e-06
1.16879e-06
1.16674e-06
1.16451e-06
1.16209e-06
1.15951e-06
1.15675e-06
1.15382e-06
1.15072e-06
1.10794e-06
1.11232e-06
1.11649e-06
1.12047e-06
1.12425e-06
1.12786e-06
1.13128e-06
1.13454e-06
1.13762e-06
1.14052e-06
1.14324e-06
1.14578e-06
1.14813e-06
1.15029e-06
1.15227e-06
1.15407e-06
1.15569e-06
1.15713e-06
1.15839e-06
1.15947e-06
1.16037e-06
1.16108e-06
1.16162e-06
1.16198e-06
1.16216e-06
1.16216e-06
1.16198e-06
1.16162e-06
1.16108e-06
1.16037e-06
1.15947e-06
1.15839e-06
1.15713e-06
1.15569e-06
1.15407e-06
1.15227e-06
1.15029e-06
1.14813e-06
1.14578e-06
1.14324e-06
1.14052e-06
1.13762e-06
1.13454e-06
1.13128e-06
1.08607e-06
1.09065e-06
1.09501e-06
1.09918e-06
1.10314e-06
1.10692e-06
1.11052e-06
1.11393e-06
1.11716e-06
1.12021e-06
1.12307e-06
1.12574e-06
1.12821e-06
1.13049e-06
1.13257e-06
1.13447e-06
1.13617e-06
1.13769e-06
1.13901e-06
1.14015e-06
1.1411e-06
1.14186e-06
1.14242e-06
1.1428e-06
1.14299e-06
1.14299e-06
1.1428e-06
1.14242e-06
1.14186e-06
1.1411e-06
1.14015e-06
1.13901e-06
1.13769e-06
1.13617e-06
1.13447e-06
1.13257e-06
1.13049e-06
1.12821e-06
1.12574e-06
1.12307e-06
1.12021e-06
1.11716e-06
1.11393e-06
1.11052e-06
1.06277e-06
1.06755e-06
1.07211e-06
1.07646e-06
1.08061e-06
1.08456e-06
1.08833e-06
1.09191e-06
1.0953e-06
1.0985e-06
1.1015e-06
1.1043e-06
1.1069e-06
1.10929e-06
1.11148e-06
1.11347e-06
1.11526e-06
1.11686e-06
1.11825e-06
1.11945e-06
1.12045e-06
1.12125e-06
1.12184e-06
1.12224e-06
1.12244e-06
1.12244e-06
1.12224e-06
1.12184e-06
1.12125e-06
1.12045e-06
1.11945e-06
1.11825e-06
1.11686e-06
1.11526e-06
1.11347e-06
1.11148e-06
1.10929e-06
1.1069e-06
1.1043e-06
1.1015e-06
1.0985e-06
1.0953e-06
1.09191e-06
1.08833e-06
1.03794e-06
1.04292e-06
1.04768e-06
1.05223e-06
1.05656e-06
1.0607e-06
1.06464e-06
1.06838e-06
1.07193e-06
1.07528e-06
1.07843e-06
1.08137e-06
1.08409e-06
1.0866e-06
1.0889e-06
1.09099e-06
1.09287e-06
1.09455e-06
1.09602e-06
1.09727e-06
1.09832e-06
1.09916e-06
1.09979e-06
1.10021e-06
1.10042e-06
1.10042e-06
1.10021e-06
1.09979e-06
1.09916e-06
1.09832e-06
1.09727e-06
1.09601e-06
1.09455e-06
1.09287e-06
1.09099e-06
1.0889e-06
1.0866e-06
1.08409e-06
1.08137e-06
1.07843e-06
1.07528e-06
1.07193e-06
1.06838e-06
1.06464e-06
1.01151e-06
1.01669e-06
1.02165e-06
1.02639e-06
1.03091e-06
1.03522e-06
1.03934e-06
1.04326e-06
1.04697e-06
1.05047e-06
1.05376e-06
1.05684e-06
1.05969e-06
1.06232e-06
1.06473e-06
1.06692e-06
1.0689e-06
1.07066e-06
1.07219e-06
1.07351e-06
1.07461e-06
1.07549e-06
1.07616e-06
1.0766e-06
1.07682e-06
1.07682e-06
1.0766e-06
1.07616e-06
1.07549e-06
1.07461e-06
1.07351e-06
1.07219e-06
1.07066e-06
1.0689e-06
1.06692e-06
1.06473e-06
1.06232e-06
1.05969e-06
1.05684e-06
1.05376e-06
1.05047e-06
1.04697e-06
1.04326e-06
1.03934e-06
9.83371e-07
9.88757e-07
9.93909e-07
9.98845e-07
1.00355e-06
1.00805e-06
1.01234e-06
1.01643e-06
1.0203e-06
1.02396e-06
1.0274e-06
1.03062e-06
1.0336e-06
1.03635e-06
1.03887e-06
1.04117e-06
1.04324e-06
1.04508e-06
1.04669e-06
1.04807e-06
1.04922e-06
1.05015e-06
1.05084e-06
1.0513e-06
1.05153e-06
1.05153e-06
1.0513e-06
1.05084e-06
1.05015e-06
1.04922e-06
1.04807e-06
1.04669e-06
1.04508e-06
1.04324e-06
1.04117e-06
1.03887e-06
1.03635e-06
1.0336e-06
1.03062e-06
1.0274e-06
1.02396e-06
1.0203e-06
1.01643e-06
1.01234e-06
9.53441e-07
9.59027e-07
9.64375e-07
9.69502e-07
9.74396e-07
9.79076e-07
9.83545e-07
9.878e-07
9.91837e-07
9.95651e-07
9.9924e-07
1.0026e-06
1.00571e-06
1.00858e-06
1.01121e-06
1.01361e-06
1.01577e-06
1.0177e-06
1.01938e-06
1.02083e-06
1.02203e-06
1.023e-06
1.02372e-06
1.02421e-06
1.02445e-06
1.02445e-06
1.02421e-06
1.02372e-06
1.023e-06
1.02203e-06
1.02083e-06
1.01938e-06
1.0177e-06
1.01577e-06
1.01361e-06
1.01121e-06
1.00858e-06
1.00571e-06
1.0026e-06
9.9924e-07
9.95651e-07
9.91837e-07
9.878e-07
9.83545e-07
9.21631e-07
9.27412e-07
9.32951e-07
9.38267e-07
9.43343e-07
9.48202e-07
9.52845e-07
9.57267e-07
9.61465e-07
9.65433e-07
9.69168e-07
9.72663e-07
9.75906e-07
9.78897e-07
9.81644e-07
9.84145e-07
9.864e-07
9.88408e-07
9.90167e-07
9.91676e-07
9.92935e-07
9.93943e-07
9.94699e-07
9.95204e-07
9.95456e-07
9.95456e-07
9.95204e-07
9.94699e-07
9.93943e-07
9.92935e-07
9.91676e-07
9.90167e-07
9.88408e-07
9.864e-07
9.84145e-07
9.81644e-07
9.78897e-07
9.75906e-07
9.72663e-07
9.69168e-07
9.65433e-07
9.61465e-07
9.57267e-07
9.52845e-07
9.48202e-07
8.87859e-07
8.93827e-07
8.99549e-07
9.05046e-07
9.103e-07
9.15333e-07
9.20144e-07
9.2473e-07
9.29084e-07
9.33204e-07
9.37082e-07
9.40713e-07
9.44084e-07
9.47195e-07
9.50052e-07
9.52655e-07
9.55003e-07
9.57093e-07
9.58925e-07
9.60497e-07
9.61809e-07
9.62859e-07
9.63647e-07
9.64172e-07
9.64435e-07
9.64435e-07
9.64172e-07
9.63647e-07
9.62859e-07
9.61808e-07
9.60497e-07
9.58925e-07
9.57093e-07
9.55003e-07
9.52655e-07
9.50052e-07
9.47195e-07
9.44084e-07
9.40713e-07
9.37082e-07
9.33204e-07
9.29084e-07
9.24729e-07
9.20144e-07
9.15333e-07
8.52048e-07
8.58192e-07
8.64088e-07
8.69757e-07
8.7518e-07
8.80378e-07
8.8535e-07
8.90092e-07
8.94598e-07
8.98863e-07
9.0288e-07
9.06643e-07
9.10137e-07
9.13364e-07
9.16329e-07
9.19031e-07
9.21469e-07
9.2364e-07
9.25543e-07
9.27177e-07
9.2854e-07
9.29631e-07
9.3045e-07
9.30997e-07
9.3127e-07
9.3127e-07
9.30997e-07
9.3045e-07
9.29631e-07
9.2854e-07
9.27177e-07
9.25543e-07
9.2364e-07
9.21469e-07
9.19031e-07
9.16329e-07
9.13364e-07
9.10137e-07
9.06642e-07
9.0288e-07
8.98863e-07
8.94598e-07
8.90092e-07
8.8535e-07
8.80378e-07
8.14139e-07
8.20443e-07
8.26499e-07
8.32326e-07
8.37905e-07
8.43257e-07
8.4838e-07
8.53269e-07
8.57917e-07
8.62318e-07
8.66466e-07
8.70354e-07
8.73967e-07
8.77304e-07
8.80372e-07
8.83169e-07
8.85693e-07
8.87941e-07
8.89913e-07
8.91605e-07
8.93018e-07
8.94149e-07
8.94999e-07
8.95565e-07
8.95849e-07
8.95849e-07
8.95565e-07
8.94999e-07
8.94149e-07
8.93018e-07
8.91605e-07
8.89913e-07
8.87941e-07
8.85693e-07
8.83169e-07
8.80372e-07
8.77304e-07
8.73966e-07
8.70354e-07
8.66466e-07
8.62318e-07
8.57917e-07
8.53269e-07
8.4838e-07
8.43257e-07
7.74077e-07
7.80524e-07
7.86723e-07
7.92693e-07
7.98412e-07
8.03903e-07
8.09163e-07
8.14185e-07
8.18964e-07
8.23491e-07
8.2776e-07
8.31763e-07
8.35484e-07
8.38925e-07
8.42088e-07
8.44973e-07
8.47578e-07
8.49899e-07
8.51935e-07
8.53683e-07
8.55142e-07
8.56311e-07
8.57188e-07
8.57774e-07
8.58067e-07
8.58067e-07
8.57774e-07
8.57188e-07
8.56311e-07
8.55142e-07
8.53683e-07
8.51934e-07
8.49899e-07
8.47578e-07
8.44973e-07
8.42088e-07
8.38924e-07
8.35484e-07
8.31763e-07
8.2776e-07
8.23491e-07
8.18963e-07
8.14185e-07
8.09163e-07
7.31793e-07
7.38372e-07
7.44703e-07
7.50807e-07
7.56647e-07
7.62259e-07
7.67638e-07
7.72779e-07
7.77673e-07
7.82313e-07
7.86691e-07
7.90798e-07
7.94618e-07
7.9815e-07
8.014e-07
8.04365e-07
8.07042e-07
8.09429e-07
8.11523e-07
8.13322e-07
8.14824e-07
8.16027e-07
8.1693e-07
8.17533e-07
8.17835e-07
8.17835e-07
8.17533e-07
8.1693e-07
8.16027e-07
8.14824e-07
8.13322e-07
8.11523e-07
8.09429e-07
8.07042e-07
8.04365e-07
8.014e-07
7.9815e-07
7.94618e-07
7.90798e-07
7.8669e-07
7.82313e-07
7.77673e-07
7.72779e-07
7.67638e-07
6.87224e-07
6.93908e-07
7.00348e-07
7.06563e-07
7.12511e-07
7.18232e-07
7.2372e-07
7.28969e-07
7.33969e-07
7.38713e-07
7.43191e-07
7.47396e-07
7.51303e-07
7.54914e-07
7.58239e-07
7.61274e-07
7.64015e-07
7.6646e-07
7.68606e-07
7.70449e-07
7.71988e-07
7.73222e-07
7.74148e-07
7.74766e-07
7.75076e-07
7.75076e-07
7.74766e-07
7.74148e-07
7.73222e-07
7.71988e-07
7.70449e-07
7.68606e-07
7.6646e-07
7.64015e-07
7.61274e-07
7.58239e-07
7.54914e-07
7.51303e-07
7.47395e-07
7.43191e-07
7.38713e-07
7.33969e-07
7.28969e-07
7.2372e-07
6.40401e-07
6.47149e-07
6.53659e-07
6.59948e-07
6.65976e-07
6.71779e-07
6.77352e-07
6.82685e-07
6.8777e-07
6.92597e-07
6.97158e-07
7.01442e-07
7.05424e-07
7.09107e-07
7.12498e-07
7.15596e-07
7.18395e-07
7.20892e-07
7.23084e-07
7.24968e-07
7.26542e-07
7.27803e-07
7.2875e-07
7.29382e-07
7.29699e-07
7.29699e-07
7.29382e-07
7.2875e-07
7.27803e-07
7.26542e-07
7.24968e-07
7.23084e-07
7.20892e-07
7.18395e-07
7.15595e-07
7.12498e-07
7.09107e-07
7.05424e-07
7.01442e-07
6.97157e-07
6.92597e-07
6.8777e-07
6.82685e-07
6.77351e-07
5.91457e-07
5.98216e-07
6.04745e-07
6.11061e-07
6.17124e-07
6.22967e-07
6.28584e-07
6.33965e-07
6.39099e-07
6.43978e-07
6.48591e-07
6.52928e-07
6.56963e-07
6.60696e-07
6.64137e-07
6.67281e-07
6.70124e-07
6.72661e-07
6.74889e-07
6.76804e-07
6.78404e-07
6.79687e-07
6.80651e-07
6.81294e-07
6.81616e-07
6.81616e-07
6.81294e-07
6.80651e-07
6.79687e-07
6.78404e-07
6.76804e-07
6.74889e-07
6.72661e-07
6.70124e-07
6.67281e-07
6.64137e-07
6.60696e-07
6.56963e-07
6.52928e-07
6.48591e-07
6.43978e-07
6.39099e-07
6.33965e-07
6.28584e-07
5.40638e-07
5.47341e-07
5.53825e-07
5.60107e-07
5.66147e-07
5.71976e-07
5.77586e-07
5.82965e-07
5.88105e-07
5.92992e-07
5.97618e-07
6.0197e-07
6.06024e-07
6.09778e-07
6.13241e-07
6.16406e-07
6.1927e-07
6.21827e-07
6.24074e-07
6.26006e-07
6.27621e-07
6.28915e-07
6.29888e-07
6.30538e-07
6.30863e-07
6.30863e-07
6.30538e-07
6.29888e-07
6.28915e-07
6.27621e-07
6.26006e-07
6.24074e-07
6.21827e-07
6.1927e-07
6.16406e-07
6.13241e-07
6.09778e-07
6.06024e-07
6.0197e-07
5.97618e-07
5.92992e-07
5.88105e-07
5.82965e-07
5.77586e-07
4.88326e-07
4.94891e-07
5.01252e-07
5.07426e-07
5.13373e-07
5.1912e-07
5.24658e-07
5.29976e-07
5.35063e-07
5.39905e-07
5.44493e-07
5.48815e-07
5.52844e-07
5.56579e-07
5.60027e-07
5.63182e-07
5.66037e-07
5.68588e-07
5.70831e-07
5.7276e-07
5.74373e-07
5.75667e-07
5.7664e-07
5.77289e-07
5.77614e-07
5.77614e-07
5.77289e-07
5.7664e-07
5.75667e-07
5.74373e-07
5.7276e-07
5.70831e-07
5.68588e-07
5.66037e-07
5.63182e-07
5.60027e-07
5.56579e-07
5.52844e-07
5.48814e-07
5.44493e-07
5.39905e-07
5.35063e-07
5.29976e-07
5.24658e-07
4.35062e-07
4.41396e-07
4.47545e-07
4.53523e-07
4.59293e-07
4.64878e-07
4.70268e-07
4.75451e-07
4.80415e-07
4.85147e-07
4.89636e-07
4.93869e-07
4.9782e-07
5.01489e-07
5.04877e-07
5.07979e-07
5.1079e-07
5.13303e-07
5.15513e-07
5.17415e-07
5.19006e-07
5.20283e-07
5.21243e-07
5.21884e-07
5.22205e-07
5.22204e-07
5.21884e-07
5.21243e-07
5.20283e-07
5.19006e-07
5.17415e-07
5.15513e-07
5.13303e-07
5.1079e-07
5.07979e-07
5.04877e-07
5.01489e-07
4.9782e-07
4.93869e-07
4.89636e-07
4.85147e-07
4.80415e-07
4.75451e-07
4.70268e-07
3.81566e-07
3.87565e-07
3.93401e-07
3.99086e-07
4.04585e-07
4.09917e-07
4.15071e-07
4.20036e-07
4.24798e-07
4.29344e-07
4.33662e-07
4.37739e-07
4.4155e-07
4.45093e-07
4.48368e-07
4.5137e-07
4.54092e-07
4.56528e-07
4.58671e-07
4.60517e-07
4.62062e-07
4.63302e-07
4.64234e-07
4.64857e-07
4.65168e-07
4.65168e-07
4.64857e-07
4.64234e-07
4.63302e-07
4.62062e-07
4.60517e-07
4.58671e-07
4.56528e-07
4.54092e-07
4.5137e-07
4.48368e-07
4.45093e-07
4.4155e-07
4.37739e-07
4.33662e-07
4.29344e-07
4.24798e-07
4.20036e-07
4.15071e-07
4.09917e-07
3.28723e-07
3.34283e-07
3.39702e-07
3.44991e-07
3.5012e-07
3.55103e-07
3.59928e-07
3.64584e-07
3.69057e-07
3.73334e-07
3.77403e-07
3.8125e-07
3.84851e-07
3.88203e-07
3.91306e-07
3.94153e-07
3.96737e-07
3.99051e-07
4.01088e-07
4.02844e-07
4.04315e-07
4.05495e-07
4.06383e-07
4.06977e-07
4.07274e-07
4.07274e-07
4.06977e-07
4.06383e-07
4.05495e-07
4.04314e-07
4.02844e-07
4.01088e-07
3.99051e-07
3.96737e-07
3.94153e-07
3.91306e-07
3.88203e-07
3.84851e-07
3.8125e-07
3.77403e-07
3.73334e-07
3.69057e-07
3.64584e-07
3.59928e-07
3.55103e-07
2.77556e-07
2.82577e-07
2.87481e-07
2.92279e-07
2.96942e-07
3.0148e-07
3.05885e-07
3.10142e-07
3.14239e-07
3.18164e-07
3.21903e-07
3.25443e-07
3.28763e-07
3.31858e-07
3.34726e-07
3.37361e-07
3.39754e-07
3.41899e-07
3.43789e-07
3.4542e-07
3.46786e-07
3.47883e-07
3.48709e-07
3.49261e-07
3.49538e-07
3.49538e-07
3.49261e-07
3.48709e-07
3.47883e-07
3.46786e-07
3.4542e-07
3.43789e-07
3.41899e-07
3.39754e-07
3.37361e-07
3.34726e-07
3.31858e-07
3.28763e-07
3.25443e-07
3.21903e-07
3.18164e-07
3.14239e-07
3.10142e-07
3.05885e-07
3.0148e-07
2.29148e-07
2.3355e-07
2.37858e-07
2.42083e-07
2.46198e-07
2.50211e-07
2.54114e-07
2.57893e-07
2.61537e-07
2.65033e-07
2.68369e-07
2.71534e-07
2.74506e-07
2.7728e-07
2.79855e-07
2.82223e-07
2.84376e-07
2.86307e-07
2.88011e-07
2.89482e-07
2.90715e-07
2.91706e-07
2.92452e-07
2.92951e-07
2.932e-07
2.932e-07
2.92951e-07
2.92452e-07
2.91706e-07
2.90715e-07
2.89482e-07
2.88011e-07
2.86307e-07
2.84376e-07
2.82223e-07
2.79855e-07
2.7728e-07
2.74506e-07
2.71534e-07
2.68369e-07
2.65033e-07
2.61537e-07
2.57893e-07
2.54114e-07
2.50211e-07
2.46198e-07
1.84538e-07
1.88271e-07
1.91932e-07
1.95528e-07
1.9904e-07
2.02471e-07
2.05814e-07
2.09057e-07
2.1219e-07
2.15201e-07
2.18079e-07
2.20812e-07
2.23384e-07
2.25788e-07
2.28022e-07
2.30079e-07
2.31951e-07
2.33632e-07
2.35117e-07
2.36399e-07
2.37474e-07
2.38339e-07
2.38991e-07
2.39426e-07
2.39645e-07
2.39645e-07
2.39426e-07
2.38991e-07
2.38339e-07
2.37474e-07
2.36399e-07
2.35117e-07
2.33632e-07
2.31951e-07
2.30079e-07
2.28022e-07
2.25788e-07
2.23384e-07
2.20812e-07
2.18078e-07
2.15201e-07
2.1219e-07
2.09057e-07
2.05814e-07
2.02471e-07
1.99039e-07
1.44602e-07
1.47654e-07
1.50651e-07
1.53602e-07
1.56488e-07
1.59314e-07
1.62072e-07
1.64752e-07
1.67345e-07
1.6984e-07
1.7223e-07
1.74503e-07
1.76644e-07
1.78649e-07
1.80514e-07
1.82233e-07
1.83799e-07
1.85207e-07
1.86451e-07
1.87526e-07
1.88429e-07
1.89155e-07
1.89702e-07
1.90068e-07
1.90252e-07
1.90252e-07
1.90068e-07
1.89702e-07
1.89155e-07
1.88429e-07
1.87526e-07
1.86451e-07
1.85207e-07
1.83799e-07
1.82233e-07
1.80514e-07
1.78649e-07
1.76644e-07
1.74503e-07
1.7223e-07
1.6984e-07
1.67344e-07
1.64752e-07
1.62072e-07
1.59314e-07
1.56488e-07
1.53602e-07
1.09947e-07
1.12344e-07
1.14702e-07
1.17027e-07
1.19305e-07
1.21538e-07
1.23721e-07
1.25846e-07
1.27905e-07
1.29889e-07
1.31791e-07
1.33603e-07
1.35312e-07
1.36914e-07
1.38406e-07
1.39782e-07
1.41038e-07
1.42167e-07
1.43166e-07
1.44029e-07
1.44755e-07
1.45339e-07
1.45779e-07
1.46073e-07
1.4622e-07
1.4622e-07
1.46073e-07
1.45779e-07
1.45338e-07
1.44755e-07
1.44029e-07
1.43166e-07
1.42167e-07
1.41038e-07
1.39782e-07
1.38406e-07
1.36914e-07
1.35312e-07
1.33603e-07
1.31791e-07
1.29889e-07
1.27905e-07
1.25846e-07
1.23721e-07
1.21538e-07
1.19305e-07
1.17027e-07
8.08462e-08
8.26504e-08
8.44267e-08
8.61802e-08
8.79008e-08
8.95899e-08
9.12428e-08
9.28535e-08
9.44158e-08
9.59234e-08
9.73702e-08
9.87496e-08
1.00052e-07
1.01274e-07
1.02414e-07
1.03465e-07
1.04425e-07
1.0529e-07
1.06054e-07
1.06716e-07
1.07272e-07
1.07719e-07
1.08057e-07
1.08283e-07
1.08396e-07
1.08396e-07
1.08283e-07
1.08057e-07
1.07719e-07
1.07272e-07
1.06716e-07
1.06054e-07
1.0529e-07
1.04425e-07
1.03465e-07
1.02414e-07
1.01274e-07
1.00052e-07
9.87496e-08
9.73702e-08
9.59234e-08
9.44158e-08
9.28535e-08
9.12428e-08
8.959e-08
8.79008e-08
8.61802e-08
5.72395e-08
5.85357e-08
5.98124e-08
6.10739e-08
6.23129e-08
6.35303e-08
6.47227e-08
6.58857e-08
6.70146e-08
6.81049e-08
6.91521e-08
7.01513e-08
7.10957e-08
7.19822e-08
7.28091e-08
7.35731e-08
7.42708e-08
7.48992e-08
7.54555e-08
7.5937e-08
7.63418e-08
7.66678e-08
7.69136e-08
7.70781e-08
7.71606e-08
7.71606e-08
7.70781e-08
7.69136e-08
7.66678e-08
7.63417e-08
7.5937e-08
7.54554e-08
7.48992e-08
7.42708e-08
7.35731e-08
7.28091e-08
7.19822e-08
7.10957e-08
7.01513e-08
6.91521e-08
6.81049e-08
6.70146e-08
6.58856e-08
6.47227e-08
6.35304e-08
6.23129e-08
6.10739e-08
3.87801e-08
3.96641e-08
4.05351e-08
4.13961e-08
4.22423e-08
4.30742e-08
4.38895e-08
4.4685e-08
4.54578e-08
4.62045e-08
4.69221e-08
4.76071e-08
4.82549e-08
4.88633e-08
4.9431e-08
4.99557e-08
5.04351e-08
5.0867e-08
5.12495e-08
5.15806e-08
5.18591e-08
5.20834e-08
5.22525e-08
5.23658e-08
5.24225e-08
5.24225e-08
5.23658e-08
5.22525e-08
5.20834e-08
5.1859e-08
5.15806e-08
5.12494e-08
5.0867e-08
5.04351e-08
4.99557e-08
4.9431e-08
4.88633e-08
4.82549e-08
4.76071e-08
4.69221e-08
4.62045e-08
4.54578e-08
4.4685e-08
4.38894e-08
4.30742e-08
4.22422e-08
4.13961e-08
2.49156e-08
2.54833e-08
2.60425e-08
2.65955e-08
2.7139e-08
2.76736e-08
2.81977e-08
2.87092e-08
2.92062e-08
2.96867e-08
3.01484e-08
3.05894e-08
3.10065e-08
3.13983e-08
3.1764e-08
3.21021e-08
3.24111e-08
3.26895e-08
3.29361e-08
3.31496e-08
3.33292e-08
3.34739e-08
3.3583e-08
3.3656e-08
3.36926e-08
3.36926e-08
3.3656e-08
3.3583e-08
3.34739e-08
3.33292e-08
3.31496e-08
3.29361e-08
3.26895e-08
3.24111e-08
3.21021e-08
3.1764e-08
3.13983e-08
3.10065e-08
3.05894e-08
3.01484e-08
2.96867e-08
2.92062e-08
2.87092e-08
2.81977e-08
2.76737e-08
2.7139e-08
2.65955e-08
2.60425e-08
1.49746e-08
1.53133e-08
1.56467e-08
1.59765e-08
1.63006e-08
1.66194e-08
1.69319e-08
1.7237e-08
1.75334e-08
1.782e-08
1.80955e-08
1.83585e-08
1.86074e-08
1.88411e-08
1.90594e-08
1.92611e-08
1.94455e-08
1.96116e-08
1.97588e-08
1.98863e-08
1.99934e-08
2.00798e-08
2.01449e-08
2.01885e-08
2.02104e-08
2.02104e-08
2.01885e-08
2.01449e-08
2.00798e-08
1.99934e-08
1.98863e-08
1.97588e-08
1.96116e-08
1.94455e-08
1.92611e-08
1.90594e-08
1.88411e-08
1.86074e-08
1.83585e-08
1.80955e-08
1.782e-08
1.75334e-08
1.7237e-08
1.69319e-08
1.66194e-08
1.63006e-08
1.59765e-08
1.56467e-08
8.24142e-09
8.42502e-09
8.60565e-09
8.78424e-09
8.95973e-09
9.1323e-09
9.30145e-09
9.46655e-09
9.62694e-09
9.78198e-09
9.93099e-09
1.00733e-08
1.02078e-08
1.03343e-08
1.04522e-08
1.05613e-08
1.0661e-08
1.07508e-08
1.08304e-08
1.08993e-08
1.09572e-08
1.10039e-08
1.10391e-08
1.10627e-08
1.10745e-08
1.10745e-08
1.10627e-08
1.10391e-08
1.10039e-08
1.09572e-08
1.08993e-08
1.08304e-08
1.07508e-08
1.0661e-08
1.05613e-08
1.04522e-08
1.03343e-08
1.02078e-08
1.00733e-08
9.93099e-09
9.78198e-09
9.62694e-09
9.46654e-09
9.30145e-09
9.13231e-09
8.95973e-09
8.78424e-09
8.60565e-09
4.01064e-09
4.09773e-09
4.18331e-09
4.26787e-09
4.35093e-09
4.43256e-09
4.51255e-09
4.59059e-09
4.66638e-09
4.73962e-09
4.80999e-09
4.87716e-09
4.94067e-09
5.00031e-09
5.05596e-09
5.1074e-09
5.15439e-09
5.19673e-09
5.23423e-09
5.2667e-09
5.29399e-09
5.31599e-09
5.33257e-09
5.34368e-09
5.34924e-09
5.34924e-09
5.34368e-09
5.33257e-09
5.31599e-09
5.29399e-09
5.2667e-09
5.23423e-09
5.19673e-09
5.15439e-09
5.1074e-09
5.05596e-09
5.00031e-09
4.94067e-09
4.87716e-09
4.80999e-09
4.73962e-09
4.66638e-09
4.59059e-09
4.51255e-09
4.43257e-09
4.35093e-09
4.26787e-09
4.18331e-09
1.62228e-09
1.656e-09
1.68908e-09
1.72173e-09
1.75377e-09
1.78523e-09
1.81604e-09
1.84608e-09
1.87523e-09
1.90338e-09
1.93042e-09
1.95621e-09
1.98058e-09
2.00346e-09
2.02479e-09
2.0445e-09
2.0625e-09
2.07871e-09
2.09307e-09
2.10549e-09
2.11594e-09
2.12435e-09
2.1307e-09
2.13494e-09
2.13707e-09
2.13707e-09
2.13494e-09
2.1307e-09
2.12435e-09
2.11594e-09
2.10549e-09
2.09307e-09
2.07871e-09
2.0625e-09
2.0445e-09
2.02479e-09
2.00346e-09
1.98058e-09
1.95621e-09
1.93042e-09
1.90338e-09
1.87523e-09
1.84608e-09
1.81604e-09
1.78523e-09
1.75377e-09
1.72173e-09
1.68908e-09
4.82905e-10
4.92142e-10
5.01176e-10
5.10078e-10
5.18795e-10
5.27345e-10
5.35704e-10
5.43844e-10
5.51735e-10
5.59347e-10
5.66649e-10
5.73608e-10
5.80174e-10
5.86331e-10
5.92068e-10
5.97365e-10
6.02199e-10
6.06551e-10
6.10401e-10
6.13733e-10
6.16532e-10
6.18786e-10
6.20486e-10
6.21623e-10
6.22193e-10
6.22193e-10
6.21623e-10
6.20486e-10
6.18786e-10
6.16532e-10
6.13733e-10
6.10401e-10
6.06551e-10
6.02199e-10
5.97365e-10
5.92068e-10
5.86331e-10
5.80174e-10
5.73608e-10
5.66649e-10
5.59347e-10
5.51735e-10
5.43844e-10
5.35704e-10
5.27345e-10
5.18795e-10
5.10078e-10
5.01176e-10
8.01274e-11
8.13882e-11
8.26127e-11
8.38146e-11
8.49865e-11
8.61322e-11
8.72491e-11
8.8334e-11
8.9383e-11
9.03925e-11
9.13586e-11
9.22772e-11
9.31416e-11
9.39501e-11
9.47021e-11
9.53953e-11
9.6027e-11
9.6595e-11
9.70969e-11
9.75308e-11
9.78951e-11
9.81882e-11
9.84091e-11
9.85568e-11
9.86309e-11
9.86309e-11
9.85568e-11
9.84091e-11
9.81882e-11
9.78951e-11
9.75308e-11
9.70969e-11
9.6595e-11
9.6027e-11
9.53953e-11
9.47021e-11
9.39501e-11
9.31416e-11
9.22772e-11
9.13586e-11
9.03925e-11
8.9383e-11
8.8334e-11
8.72491e-11
8.61322e-11
8.49865e-11
8.38146e-11
8.26127e-11
3.53694e-12
3.5669e-12
3.59532e-12
3.62292e-12
3.64948e-12
3.67524e-12
3.70021e-12
3.72432e-12
3.74751e-12
3.76972e-12
3.79087e-12
3.81088e-12
3.82956e-12
3.8469e-12
3.86298e-12
3.87774e-12
3.89116e-12
3.90319e-12
3.9138e-12
3.92295e-12
3.93062e-12
3.93679e-12
3.94143e-12
3.94453e-12
3.94608e-12
3.94608e-12
3.94453e-12
3.94143e-12
3.93679e-12
3.93062e-12
3.92295e-12
3.9138e-12
3.90319e-12
3.89116e-12
3.87774e-12
3.86298e-12
3.8469e-12
3.82956e-12
3.81088e-12
3.79087e-12
3.76972e-12
3.74751e-12
3.72432e-12
3.70021e-12
3.67524e-12
3.64948e-12
3.62292e-12
3.59532e-12
1.29391e-06
1.28459e-06
1.27462e-06
1.26394e-06
1.25252e-06
1.24032e-06
1.22728e-06
1.21336e-06
1.1985e-06
1.18265e-06
1.16573e-06
1.14769e-06
1.12845e-06
1.10794e-06
1.08607e-06
1.06277e-06
1.03794e-06
1.01151e-06
9.83371e-07
9.53441e-07
9.21631e-07
8.87859e-07
8.52048e-07
8.14139e-07
7.74077e-07
7.31793e-07
6.87224e-07
6.40401e-07
5.91457e-07
5.40638e-07
4.88326e-07
4.35062e-07
3.81566e-07
3.28723e-07
2.77556e-07
2.29148e-07
1.84538e-07
1.44602e-07
1.09947e-07
8.08462e-08
5.72395e-08
3.87801e-08
2.49156e-08
1.49746e-08
8.24142e-09
4.01064e-09
1.62228e-09
4.82905e-10
8.01274e-11
3.53694e-12
1.29615e-06
1.28697e-06
1.27714e-06
1.26661e-06
1.25534e-06
1.24329e-06
1.23041e-06
1.21666e-06
1.20197e-06
1.18629e-06
1.16955e-06
1.15169e-06
1.13264e-06
1.11232e-06
1.09065e-06
1.06755e-06
1.04292e-06
1.01669e-06
9.88757e-07
9.59027e-07
9.27412e-07
8.93827e-07
8.58192e-07
8.20443e-07
7.80524e-07
7.38372e-07
6.93908e-07
6.47149e-07
5.98216e-07
5.47341e-07
4.94891e-07
4.41396e-07
3.87565e-07
3.34283e-07
2.82577e-07
2.3355e-07
1.88271e-07
1.47654e-07
1.12344e-07
8.26504e-08
5.85357e-08
3.96641e-08
2.54833e-08
1.53133e-08
8.42502e-09
4.09773e-09
1.656e-09
4.92142e-10
8.13882e-11
3.5669e-12
1.29824e-06
1.2892e-06
1.2795e-06
1.26911e-06
1.25799e-06
1.24609e-06
1.23337e-06
1.21977e-06
1.20525e-06
1.18974e-06
1.17317e-06
1.15549e-06
1.13662e-06
1.11649e-06
1.09501e-06
1.07211e-06
1.04768e-06
1.02165e-06
9.93909e-07
9.64375e-07
9.32951e-07
8.99549e-07
8.64088e-07
8.26499e-07
7.86723e-07
7.44703e-07
7.00348e-07
6.53659e-07
6.04745e-07
5.53825e-07
5.01252e-07
4.47545e-07
3.93401e-07
3.39702e-07
2.87481e-07
2.37858e-07
1.91932e-07
1.50651e-07
1.14702e-07
8.44267e-08
5.98124e-08
4.05351e-08
2.60425e-08
1.56467e-08
8.60565e-09
4.18331e-09
1.68908e-09
5.01176e-10
8.26127e-11
3.59532e-12
1.30019e-06
1.29128e-06
1.28172e-06
1.27147e-06
1.26049e-06
1.24873e-06
1.23616e-06
1.22272e-06
1.20836e-06
1.19301e-06
1.17662e-06
1.15911e-06
1.14042e-06
1.12047e-06
1.09918e-06
1.07646e-06
1.05223e-06
1.02639e-06
9.98845e-07
9.69502e-07
9.38267e-07
9.05046e-07
8.69757e-07
8.32326e-07
7.92693e-07
7.50807e-07
7.06563e-07
6.59948e-07
6.11061e-07
5.60107e-07
5.07426e-07
4.53523e-07
3.99086e-07
3.44991e-07
2.92279e-07
2.42083e-07
1.95528e-07
1.53602e-07
1.17027e-07
8.61802e-08
6.10739e-08
4.13961e-08
2.65955e-08
1.59765e-08
8.78424e-09
4.26787e-09
1.72173e-09
5.10078e-10
8.38146e-11
3.62292e-12
1.30202e-06
1.29323e-06
1.2838e-06
1.27368e-06
1.26284e-06
1.25123e-06
1.2388e-06
1.22551e-06
1.2113e-06
1.19611e-06
1.17988e-06
1.16254e-06