/*--------------------------------*- C++ -*----------------------------------*\
  =========                 |
  \\      /  F ield         | OpenFOAM: The Open Source CFD Toolbox
   \\    /   O peration     | Website:  https://openfoam.org
    \\  /    A nd           | Version:  7
     \\/     M anipulation  |
\*---------------------------------------------------------------------------*/
FoamFile
{
    version     2.0;
    format      ascii;
    class       volScalarField;
    location    "12000";
    object      p;
}
// * * * * * * * * * * * * * * * * * * * * * * * * * * * * * * * * * * * * * //

dimensions      [0 2 -2 0 0 0 0];

internalField   nonuniform List<scalar> 
4825
(
-1.49416e-18
-1.48207e-18
-1.49201e-18
-1.47884e-18
-1.48265e-18
-1.46481e-18
-1.48239e-18
-1.49329e-18
-1.47427e-18
-1.48254e-18
-1.46018e-18
-1.48072e-18
-1.4915e-18
-1.47919e-18
-1.47635e-18
-1.46043e-18
-1.4753e-18
-1.49953e-18
-1.49467e-18
-1.48128e-18
-1.4667e-18
-1.47918e-18
-1.51183e-18
-1.48887e-18
-1.49466e-18
-1.47249e-18
-1.48352e-18
-1.50175e-18
-1.47963e-18
-1.48514e-18
-1.47456e-18
-1.483e-18
-1.49428e-18
-1.47835e-18
-1.48526e-18
-1.46907e-18
-1.48496e-18
-1.49515e-18
-1.4707e-18
-1.48874e-18
-1.46324e-18
-1.48124e-18
-1.5057e-18
-1.46763e-18
-1.4907e-18
-1.46899e-18
-1.4781e-18
-1.5118e-18
-1.47667e-18
-1.48432e-18
-1.46932e-18
-1.48132e-18
-1.50688e-18
-1.48699e-18
-1.49337e-18
-1.47418e-18
-1.48194e-18
-1.50148e-18
-1.49492e-18
-1.49782e-18
-1.47579e-18
-1.47996e-18
-1.50707e-18
-1.49089e-18
-1.49731e-18
-1.47472e-18
-1.50282e-18
-1.489e-18
-1.4948e-18
-1.476e-18
-1.50608e-18
-1.48194e-18
-1.49531e-18
-1.47047e-18
-1.49941e-18
-1.48669e-18
-1.49216e-18
-1.50532e-18
-1.48986e-18
-1.49833e-18
-1.49803e-18
-1.49058e-18
-1.50148e-18
-1.49108e-18
-1.50453e-18
-1.49348e-18
-1.50235e-18
-1.49728e-18
-1.49184e-18
-1.49354e-18
-1.50285e-18
-1.51401e-18
-1.51902e-18
-1.52417e-18
-1.50029e-18
-1.53165e-18
-1.51428e-18
-1.51306e-18
-1.50341e-18
-1.49986e-18
-1.50008e-18
-1.51002e-18
-1.51472e-18
-1.52543e-18
-1.50667e-18
-1.5083e-18
-1.4923e-18
-1.52135e-18
-1.5016e-18
-1.51233e-18
-1.4989e-18
-1.50715e-18
-1.51191e-18
-1.52157e-18
-1.5137e-18
-1.5238e-18
-1.51044e-18
-1.51596e-18
-1.50307e-18
-1.49545e-18
-1.50084e-18
-1.50764e-18
-1.51318e-18
-1.52207e-18
-1.50521e-18
-1.51253e-18
-1.50615e-18
-1.52427e-18
-1.50983e-18
-1.52224e-18
-1.49842e-18
-1.51245e-18
-1.52275e-18
-1.52499e-18
-1.5153e-18
-1.52658e-18
-1.51588e-18
-1.51936e-18
-1.50259e-18
-1.502e-18
-1.50014e-18
-1.50394e-18
-1.50305e-18
-1.50956e-18
-1.51013e-18
-1.51425e-18
-1.51475e-18
-1.52676e-18
-1.50992e-18
-1.52454e-18
-1.50523e-18
-1.52265e-18
-1.52551e-18
-1.52187e-18
-1.51909e-18
-1.51752e-18
-1.51253e-18
-1.51497e-18
-1.50577e-18
-1.51129e-18
-1.49795e-18
-1.49763e-18
-1.50685e-18
-1.51001e-18
-1.50783e-18
-1.51886e-18
-1.51302e-18
-1.53008e-18
-1.51049e-18
-1.52076e-18
-1.50803e-18
-1.5249e-18
-1.52038e-18
-1.51875e-18
-1.51739e-18
-1.5182e-18
-1.51176e-18
-1.5096e-18
-1.49751e-18
-1.5141e-18
-1.49683e-18
-1.49939e-18
-1.5066e-18
-1.51477e-18
-1.50796e-18
-1.51557e-18
-1.51482e-18
-1.52886e-18
-1.50879e-18
-1.52049e-18
-1.50999e-18
-1.52106e-18
-1.52192e-18
-1.50771e-18
-1.50894e-18
-1.51901e-18
-1.51229e-18
-1.49652e-18
-1.49799e-18
-1.51638e-18
-1.50468e-18
-1.4983e-18
-1.50498e-18
-1.50897e-18
-1.50361e-18
-1.51119e-18
-1.51207e-18
-1.52862e-18
-1.50623e-18
-1.52223e-18
-1.51674e-18
-1.52263e-18
-1.51725e-18
-1.51344e-18
-1.52269e-18
-1.51763e-18
-1.50117e-18
-1.5017e-18
-1.49802e-18
-1.50873e-18
-1.50159e-18
-1.49956e-18
-1.50479e-18
-1.51021e-18
-1.50838e-18
-1.52322e-18
-1.51163e-18
-1.53348e-18
-1.51349e-18
-1.52182e-18
-1.5148e-18
-1.51677e-18
-1.53314e-18
-1.50976e-18
-1.51846e-18
-1.52309e-18
-1.5015e-18
-1.50687e-18
-1.49644e-18
-1.50427e-18
-1.49707e-18
-1.50455e-18
-1.51387e-18
-1.50501e-18
-1.51e-18
-1.52116e-18
-1.51301e-18
-1.52071e-18
-1.51456e-18
-1.52983e-18
-1.51647e-18
-1.51599e-18
-1.51443e-18
-1.51036e-18
-1.51112e-18
-1.52744e-18
-1.51261e-18
-1.50196e-18
-1.5156e-18
-1.50235e-18
-1.50472e-18
-1.49379e-18
-1.50811e-18
-1.50029e-18
-1.49362e-18
-1.50294e-18
-1.50676e-18
-1.52808e-18
-1.50548e-18
-1.51563e-18
-1.51755e-18
-1.49858e-18
-1.52519e-18
-1.49838e-18
-1.50671e-18
-1.49095e-18
-1.50289e-18
-1.52196e-18
-1.50869e-18
-1.50752e-18
-1.51831e-18
-1.5166e-18
-1.51505e-18
-1.51375e-18
-1.53452e-18
-1.5191e-18
-1.51951e-18
-1.52047e-18
-1.5162e-18
-1.50597e-18
-1.52168e-18
-1.51136e-18
-1.50913e-18
-1.51579e-18
-1.50593e-18
-1.50258e-18
-1.4998e-18
-1.50747e-18
-1.50346e-18
-1.49535e-18
-1.49945e-18
-1.49932e-18
-1.49509e-18
-1.52078e-18
-1.52902e-18
-1.50806e-18
-1.51427e-18
-1.5213e-18
-1.51863e-18
-1.53055e-18
-1.49695e-18
-1.52114e-18
-1.48941e-18
-1.50237e-18
-1.50761e-18
-1.50945e-18
-1.50867e-18
-1.5145e-18
-1.51496e-18
-1.52498e-18
-1.51242e-18
-1.52576e-18
-1.52131e-18
-1.52688e-18
-1.52005e-18
-1.5195e-18
-1.50935e-18
-1.52054e-18
-1.51772e-18
-1.51207e-18
-1.51379e-18
-1.50669e-18
-1.50825e-18
-1.50156e-18
-1.50323e-18
-1.5028e-18
-1.489e-18
-1.50517e-18
-1.50355e-18
-1.49076e-18
-1.48826e-18
-1.52089e-18
-1.53057e-18
-1.51252e-18
-1.51162e-18
-1.53758e-18
-1.50949e-18
-1.52313e-18
-1.48926e-18
-1.51273e-18
-1.48939e-18
-1.51466e-18
-1.50367e-18
-1.51531e-18
-1.50585e-18
-1.5096e-18
-1.50802e-18
-1.5251e-18
-1.51434e-18
-1.52265e-18
-1.52452e-18
-1.52291e-18
-1.51821e-18
-1.52299e-18
-1.51217e-18
-1.52104e-18
-1.51636e-18
-1.5135e-18
-1.51586e-18
-1.50851e-18
-1.51402e-18
-1.50181e-18
-1.4991e-18
-1.50119e-18
-1.4986e-18
-1.5023e-18
-1.50542e-18
-1.49132e-18
-1.48939e-18
-1.4854e-18
-1.49347e-18
-1.51844e-18
-1.52775e-18
-1.519e-18
-1.51334e-18
-1.53397e-18
-1.50704e-18
-1.51681e-18
-1.48168e-18
-1.51282e-18
-1.49451e-18
-1.50645e-18
-1.50176e-18
-1.52156e-18
-1.50029e-18
-1.51116e-18
-1.51204e-18
-1.52584e-18
-1.52083e-18
-1.5273e-18
-1.52273e-18
-1.5178e-18
-1.51996e-18
-1.52047e-18
-1.51323e-18
-1.52184e-18
-1.51497e-18
-1.51606e-18
-1.51307e-18
-1.50875e-18
-1.51128e-18
-1.50688e-18
-1.50498e-18
-1.49592e-18
-1.50289e-18
-1.49571e-18
-1.50389e-18
-1.49284e-18
-1.48679e-18
-1.4849e-18
-1.49784e-18
-1.5002e-18
-1.4766e-18
-1.52533e-18
-1.52053e-18
-1.52289e-18
-1.51095e-18
-1.52654e-18
-1.50145e-18
-1.51874e-18
-1.49474e-18
-1.50784e-18
-1.48914e-18
-1.5085e-18
-1.49691e-18
-1.5126e-18
-1.50028e-18
-1.52154e-18
-1.52069e-18
-1.52823e-18
-1.51829e-18
-1.5222e-18
-1.52346e-18
-1.51884e-18
-1.52296e-18
-1.51691e-18
-1.51517e-18
-1.52422e-18
-1.51342e-18
-1.51991e-18
-1.51159e-18
-1.5138e-18
-1.50997e-18
-1.50311e-18
-1.50845e-18
-1.50154e-18
-1.5037e-18
-1.49258e-18
-1.49787e-18
-1.49424e-18
-1.49028e-18
-1.48533e-18
-1.49748e-18
-1.50426e-18
-1.48e-18
-1.50237e-18
-1.48817e-18
-1.51139e-18
-1.52417e-18
-1.52621e-18
-1.52816e-18
-1.51404e-18
-1.52477e-18
-1.49746e-18
-1.52259e-18
-1.50332e-18
-1.50242e-18
-1.47584e-18
-1.5027e-18
-1.49642e-18
-1.51524e-18
-1.51535e-18
-1.51764e-18
-1.52171e-18
-1.53095e-18
-1.51428e-18
-1.52457e-18
-1.52798e-18
-1.5209e-18
-1.52e-18
-1.517e-18
-1.51807e-18
-1.52945e-18
-1.52012e-18
-1.52034e-18
-1.50989e-18
-1.51277e-18
-1.50873e-18
-1.50526e-18
-1.5109e-18
-1.50199e-18
-1.50722e-18
-1.50256e-18
-1.49698e-18
-1.49562e-18
-1.48525e-18
-1.48661e-18
-1.49482e-18
-1.50528e-18
-1.4764e-18
-1.49589e-18
-1.47879e-18
-1.5152e-18
-1.49706e-18
-1.50928e-18
-1.52313e-18
-1.52484e-18
-1.52665e-18
-1.51895e-18
-1.52724e-18
-1.5043e-18
-1.50955e-18
-1.50433e-18
-1.50706e-18
-1.48425e-18
-1.49761e-18
-1.50018e-18
-1.51702e-18
-1.5122e-18
-1.51976e-18
-1.51661e-18
-1.53177e-18
-1.51338e-18
-1.5367e-18
-1.52783e-18
-1.51796e-18
-1.51713e-18
-1.52183e-18
-1.52071e-18
-1.5302e-18
-1.51804e-18
-1.52219e-18
-1.51278e-18
-1.51068e-18
-1.50508e-18
-1.50597e-18
-1.50517e-18
-1.50576e-18
-1.50247e-18
-1.50278e-18
-1.496e-18
-1.49356e-18
-1.48843e-18
-1.4913e-18
-1.49809e-18
-1.50112e-18
-1.48021e-18
-1.4973e-18
-1.48973e-18
-1.5153e-18
-1.49908e-18
-1.50163e-18
-1.49191e-18
-1.52739e-18
-1.49591e-18
-1.52219e-18
-1.52348e-18
-1.52762e-18
-1.51312e-18
-1.54058e-18
-1.50479e-18
-1.51545e-18
-1.51097e-18
-1.51792e-18
-1.49422e-18
-1.49164e-18
-1.50126e-18
-1.52037e-18
-1.51123e-18
-1.51261e-18
-1.5053e-18
-1.53204e-18
-1.52118e-18
-1.53265e-18
-1.52413e-18
-1.52323e-18
-1.5118e-18
-1.52433e-18
-1.51355e-18
-1.52659e-18
-1.51446e-18
-1.51832e-18
-1.5131e-18
-1.50988e-18
-1.50968e-18
-1.50194e-18
-1.51019e-18
-1.50597e-18
-1.50482e-18
-1.51026e-18
-1.50441e-18
-1.49749e-18
-1.49259e-18
-1.49586e-18
-1.50606e-18
-1.49862e-18
-1.47742e-18
-1.48517e-18
-1.48252e-18
-1.5173e-18
-1.49611e-18
-1.50122e-18
-1.49317e-18
-1.52703e-18
-1.49672e-18
-1.5202e-18
-1.52208e-18
-1.53113e-18
-1.51796e-18
-1.53324e-18
-1.50445e-18
-1.51812e-18
-1.49897e-18
-1.51193e-18
-1.48984e-18
-1.49825e-18
-1.49751e-18
-1.52304e-18
-1.51357e-18
-1.51272e-18
-1.50868e-18
-1.526e-18
-1.52726e-18
-1.5267e-18
-1.52503e-18
-1.52628e-18
-1.51431e-18
-1.52607e-18
-1.51192e-18
-1.52588e-18
-1.52003e-18
-1.52409e-18
-1.51101e-18
-1.51256e-18
-1.51202e-18
-1.5047e-18
-1.51186e-18
-1.5073e-18
-1.51052e-18
-1.50849e-18
-1.50456e-18
-1.50247e-18
-1.49422e-18
-1.50369e-18
-1.50267e-18
-1.50679e-18
-1.48448e-18
-1.48945e-18
-1.48048e-18
-1.50543e-18
-1.48818e-18
-1.49087e-18
-1.4937e-18
-1.52214e-18
-1.50267e-18
-1.52264e-18
-1.51835e-18
-1.53159e-18
-1.51225e-18
-1.53009e-18
-1.50115e-18
-1.51117e-18
-1.50129e-18
-1.50662e-18
-1.48724e-18
-1.49581e-18
-1.48879e-18
-1.51485e-18
-1.51343e-18
-1.51403e-18
-1.51277e-18
-1.53417e-18
-1.52521e-18
-1.52547e-18
-1.52932e-18
-1.52606e-18
-1.52098e-18
-1.52711e-18
-1.51325e-18
-1.5267e-18
-1.52765e-18
-1.52661e-18
-1.51446e-18
-1.51408e-18
-1.51444e-18
-1.51177e-18
-1.5114e-18
-1.5096e-18
-1.50356e-18
-1.50563e-18
-1.50352e-18
-1.49719e-18
-1.49665e-18
-1.50131e-18
-1.50152e-18
-1.50282e-18
-1.48871e-18
-1.49277e-18
-1.49474e-18
-1.4944e-18
-1.48232e-18
-1.49855e-18
-1.49047e-18
-1.52143e-18
-1.49737e-18
-1.52191e-18
-1.52207e-18
-1.5249e-18
-1.51043e-18
-1.52333e-18
-1.50169e-18
-1.51017e-18
-1.50887e-18
-1.51075e-18
-1.48867e-18
-1.50601e-18
-1.50212e-18
-1.50838e-18
-1.50534e-18
-1.52215e-18
-1.51526e-18
-1.53369e-18
-1.52531e-18
-1.52762e-18
-1.53027e-18
-1.52474e-18
-1.52163e-18
-1.52851e-18
-1.51635e-18
-1.52774e-18
-1.53177e-18
-1.52473e-18
-1.51423e-18
-1.51441e-18
-1.51802e-18
-1.50615e-18
-1.51097e-18
-1.50399e-18
-1.49882e-18
-1.50629e-18
-1.5037e-18
-1.49526e-18
-1.50121e-18
-1.49229e-18
-1.49587e-18
-1.50142e-18
-1.48811e-18
-1.49387e-18
-1.4955e-18
-1.50584e-18
-1.49157e-18
-1.51088e-18
-1.48989e-18
-1.5161e-18
-1.48862e-18
-1.52653e-18
-1.53647e-18
-1.52723e-18
-1.51471e-18
-1.5259e-18
-1.50283e-18
-1.50279e-18
-1.50092e-18
-1.51191e-18
-1.48502e-18
-1.50202e-18
-1.50291e-18
-1.50996e-18
-1.51038e-18
-1.51381e-18
-1.51505e-18
-1.53255e-18
-1.52185e-18
-1.52411e-18
-1.52797e-18
-1.53014e-18
-1.51759e-18
-1.53584e-18
-1.51561e-18
-1.5289e-18
-1.52588e-18
-1.52518e-18
-1.5093e-18
-1.51693e-18
-1.51506e-18
-1.50369e-18
-1.51187e-18
-1.50626e-18
-1.51295e-18
-1.50152e-18
-1.51178e-18
-1.49757e-18
-1.5015e-18
-1.49316e-18
-1.50356e-18
-1.50254e-18
-1.48392e-18
-1.49942e-18
-1.49941e-18
-1.50659e-18
-1.48928e-18
-1.50633e-18
-1.49287e-18
-1.50193e-18
-1.48927e-18
-1.53635e-18
-1.5308e-18
-1.53806e-18
-1.51858e-18
-1.53005e-18
-1.49934e-18
-1.50417e-18
-1.49397e-18
-1.50712e-18
-1.49377e-18
-1.49836e-18
-1.49702e-18
-1.51818e-18
-1.51202e-18
-1.51883e-18
-1.52119e-18
-1.52749e-18
-1.52155e-18
-1.51842e-18
-1.52241e-18
-1.52795e-18
-1.52196e-18
-1.53706e-18
-1.51874e-18
-1.53142e-18
-1.52448e-18
-1.52478e-18
-1.51513e-18
-1.524e-18
-1.51452e-18
-1.50757e-18
-1.51742e-18
-1.50609e-18
-1.51173e-18
-1.50196e-18
-1.50476e-18
-1.50174e-18
-1.49432e-18
-1.50029e-18
-1.5113e-18
-1.50175e-18
-1.48686e-18
-1.5062e-18
-1.49238e-18
-1.51308e-18
-1.49186e-18
-1.50763e-18
-1.48378e-18
-1.50949e-18
-1.48962e-18
-1.52687e-18
-1.52086e-18
-1.52812e-18
-1.51775e-18
-1.52841e-18
-1.51123e-18
-1.51638e-18
-1.5038e-18
-1.52736e-18
-1.49998e-18
-1.50881e-18
-1.50056e-18
-1.51484e-18
-1.51018e-18
-1.52276e-18
-1.5174e-18
-1.5314e-18
-1.52446e-18
-1.52796e-18
-1.518e-18
-1.52488e-18
-1.52265e-18
-1.53554e-18
-1.52133e-18
-1.53642e-18
-1.52625e-18
-1.52235e-18
-1.51292e-18
-1.51488e-18
-1.51722e-18
-1.51658e-18
-1.51777e-18
-1.50782e-18
-1.5086e-18
-1.50327e-18
-1.49902e-18
-1.49835e-18
-1.49783e-18
-1.50185e-18
-1.50636e-18
-1.49782e-18
-1.47e-18
-1.49209e-18
-1.48706e-18
-1.50211e-18
-1.4907e-18
-1.50949e-18
-1.49509e-18
-1.51342e-18
-1.49767e-18
-1.51893e-18
-1.51908e-18
-1.52783e-18
-1.51144e-18
-1.52924e-18
-1.51427e-18
-1.51507e-18
-1.50247e-18
-1.51964e-18
-1.48974e-18
-1.50242e-18
-1.50689e-18
-1.51184e-18
-1.50384e-18
-1.5205e-18
-1.51872e-18
-1.52808e-18
-1.52396e-18
-1.53005e-18
-1.51554e-18
-1.52954e-18
-1.52631e-18
-1.53338e-18
-1.5234e-18
-1.53743e-18
-1.53006e-18
-1.52543e-18
-1.51379e-18
-1.51126e-18
-1.51993e-18
-1.5179e-18
-1.51506e-18
-1.50613e-18
-1.5131e-18
-1.49813e-18
-1.50077e-18
-1.495e-18
-1.50015e-18
-1.49701e-18
-1.50487e-18
-1.50478e-18
-1.47791e-18
-1.49643e-18
-1.4899e-18
-1.49794e-18
-1.48813e-18
-1.50664e-18
-1.49652e-18
-1.51671e-18
-1.50118e-18
-1.51922e-18
-1.51112e-18
-1.53092e-18
-1.50477e-18
-1.52436e-18
-1.50268e-18
-1.50984e-18
-1.49868e-18
-1.5179e-18
-1.49568e-18
-1.50771e-18
-1.50894e-18
-1.51222e-18
-1.49828e-18
-1.5196e-18
-1.51563e-18
-1.53029e-18
-1.51802e-18
-1.53242e-18
-1.51797e-18
-1.53334e-18
-1.52233e-18
-1.53471e-18
-1.52083e-18
-1.5345e-18
-1.52739e-18
-1.53177e-18
-1.51769e-18
-1.50752e-18
-1.52063e-18
-1.5139e-18
-1.51248e-18
-1.51057e-18
-1.51259e-18
-1.50755e-18
-1.50157e-18
-1.501e-18
-1.50046e-18
-1.4994e-18
-1.50872e-18
-1.50267e-18
-1.48609e-18
-1.50414e-18
-1.49351e-18
-1.5105e-18
-1.49235e-18
-1.50625e-18
-1.49553e-18
-1.5265e-18
-1.49944e-18
-1.52907e-18
-1.50692e-18
-1.53153e-18
-1.50967e-18
-1.5201e-18
-1.50099e-18
-1.51101e-18
-1.50064e-18
-1.51877e-18
-1.50309e-18
-1.50692e-18
-1.50269e-18
-1.51902e-18
-1.50781e-18
-1.517e-18
-1.52063e-18
-1.5339e-18
-1.51385e-18
-1.53101e-18
-1.51888e-18
-1.53015e-18
-1.5191e-18
-1.53118e-18
-1.51997e-18
-1.53402e-18
-1.52458e-18
-1.5299e-18
-1.51729e-18
-1.51499e-18
-1.52371e-18
-1.51093e-18
-1.51621e-18
-1.51279e-18
-1.50803e-18
-1.51268e-18
-1.50435e-18
-1.50172e-18
-1.49665e-18
-1.50984e-18
-1.50144e-18
-1.50382e-18
-1.48347e-18
-1.50399e-18
-1.49773e-18
-1.51625e-18
-1.49406e-18
-1.50719e-18
-1.49706e-18
-1.52987e-18
-1.49147e-18
-1.53438e-18
-1.51502e-18
-1.52482e-18
-1.50816e-18
-1.52324e-18
-1.5069e-18
-1.51742e-18
-1.50119e-18
-1.51808e-18
-1.49602e-18
-1.49714e-18
-1.50537e-18
-1.51899e-18
-1.51488e-18
-1.51759e-18
-1.51621e-18
-1.53178e-18
-1.51846e-18
-1.53415e-18
-1.51636e-18
-1.52836e-18
-1.51971e-18
-1.53112e-18
-1.51876e-18
-1.53389e-18
-1.52573e-18
-1.52935e-18
-1.51364e-18
-1.52116e-18
-1.52293e-18
-1.51288e-18
-1.51383e-18
-1.51295e-18
-1.51057e-18
-1.5169e-18
-1.50394e-18
-1.49941e-18
-1.49366e-18
-1.50521e-18
-1.51738e-18
-1.50828e-18
-1.48738e-18
-1.49918e-18
-1.49658e-18
-1.51646e-18
-1.48635e-18
-1.51041e-18
-1.50294e-18
-1.5193e-18
-1.48939e-18
-1.52911e-18
-1.52457e-18
-1.5336e-18
-1.51163e-18
-1.52278e-18
-1.51534e-18
-1.51423e-18
-1.50626e-18
-1.52186e-18
-1.4967e-18
-1.50535e-18
-1.50694e-18
-1.51619e-18
-1.51473e-18
-1.51721e-18
-1.51565e-18
-1.522e-18
-1.52362e-18
-1.53061e-18
-1.52158e-18
-1.52485e-18
-1.51801e-18
-1.53241e-18
-1.52328e-18
-1.53204e-18
-1.52364e-18
-1.52908e-18
-1.51785e-18
-1.52123e-18
-1.52435e-18
-1.51364e-18
-1.51151e-18
-1.5111e-18
-1.51396e-18
-1.50821e-18
-1.50443e-18
-1.48812e-18
-1.49449e-18
-1.49865e-18
-1.51045e-18
-1.50586e-18
-1.49081e-18
-1.49658e-18
-1.49122e-18
-1.50649e-18
-1.49082e-18
-1.50861e-18
-1.49434e-18
-1.51379e-18
-1.49062e-18
-1.52281e-18
-1.53187e-18
-1.53737e-18
-1.51228e-18
-1.52254e-18
-1.51681e-18
-1.51409e-18
-1.50415e-18
-1.52121e-18
-1.49793e-18
-1.50175e-18
-1.51332e-18
-1.51159e-18
-1.50958e-18
-1.52086e-18
-1.515e-18
-1.5204e-18
-1.52563e-18
-1.53034e-18
-1.51955e-18
-1.52252e-18
-1.52004e-18
-1.529e-18
-1.52149e-18
-1.53447e-18
-1.52541e-18
-1.53203e-18
-1.52281e-18
-1.52029e-18
-1.52093e-18
-1.51526e-18
-1.51219e-18
-1.51421e-18
-1.51145e-18
-1.50856e-18
-1.5021e-18
-1.49252e-18
-1.50026e-18
-1.49307e-18
-1.50972e-18
-1.50558e-18
-1.48808e-18
-1.50292e-18
-1.49441e-18
-1.50961e-18
-1.49242e-18
-1.50863e-18
-1.49073e-18
-1.51031e-18
-1.4928e-18
-1.52734e-18
-1.52738e-18
-1.53625e-18
-1.51062e-18
-1.5296e-18
-1.5087e-18
-1.51833e-18
-1.50079e-18
-1.51625e-18
-1.49688e-18
-1.50004e-18
-1.51201e-18
-1.5197e-18
-1.50824e-18
-1.52174e-18
-1.51715e-18
-1.52273e-18
-1.52076e-18
-1.53321e-18
-1.51344e-18
-1.52425e-18
-1.51992e-18
-1.52782e-18
-1.52044e-18
-1.53517e-18
-1.5299e-18
-1.53614e-18
-1.52168e-18
-1.52031e-18
-1.52553e-18
-1.52175e-18
-1.51771e-18
-1.52322e-18
-1.51093e-18
-1.50504e-18
-1.50375e-18
-1.49566e-18
-1.49545e-18
-1.49503e-18
-1.50732e-18
-1.50642e-18
-1.49269e-18
-1.5104e-18
-1.4925e-18
-1.51497e-18
-1.48982e-18
-1.51093e-18
-1.49334e-18
-1.51198e-18
-1.49094e-18
-1.52239e-18
-1.5247e-18
-1.53367e-18
-1.51222e-18
-1.52159e-18
-1.51396e-18
-1.51247e-18
-1.51078e-18
-1.52408e-18
-1.50128e-18
-1.50873e-18
-1.50217e-18
-1.51547e-18
-1.51046e-18
-1.51513e-18
-1.51625e-18
-1.52127e-18
-1.52157e-18
-1.53354e-18
-1.51577e-18
-1.52904e-18
-1.5177e-18
-1.5356e-18
-1.51912e-18
-1.53514e-18
-1.52737e-18
-1.52878e-18
-1.51553e-18
-1.52024e-18
-1.52434e-18
-1.51844e-18
-1.52205e-18
-1.51879e-18
-1.51806e-18
-1.50054e-18
-1.50833e-18
-1.49194e-18
-1.49932e-18
-1.5054e-18
-1.50131e-18
-1.49886e-18
-1.49071e-18
-1.50733e-18
-1.49769e-18
-1.50766e-18
-1.49514e-18
-1.51084e-18
-1.50108e-18
-1.51312e-18
-1.49835e-18
-1.5253e-18
-1.51654e-18
-1.53417e-18
-1.50615e-18
-1.51709e-18
-1.51538e-18
-1.51643e-18
-1.50651e-18
-1.52101e-18
-1.50433e-18
-1.50994e-18
-1.5026e-18
-1.52283e-18
-1.50496e-18
-1.5153e-18
-1.51627e-18
-1.52558e-18
-1.51938e-18
-1.53422e-18
-1.51768e-18
-1.52738e-18
-1.51899e-18
-1.52932e-18
-1.5203e-18
-1.54018e-18
-1.53147e-18
-1.53224e-18
-1.51788e-18
-1.52114e-18
-1.5252e-18
-1.51889e-18
-1.52165e-18
-1.51914e-18
-1.51482e-18
-1.5053e-18
-1.50556e-18
-1.49178e-18
-1.49372e-18
-1.50351e-18
-1.50286e-18
-1.49569e-18
-1.49548e-18
-1.50832e-18
-1.49795e-18
-1.50718e-18
-1.50423e-18
-1.51651e-18
-1.49844e-18
-1.52088e-18
-1.49411e-18
-1.51775e-18
-1.52075e-18
-1.53019e-18
-1.51104e-18
-1.51866e-18
-1.51537e-18
-1.51816e-18
-1.50753e-18
-1.52062e-18
-1.49742e-18
-1.51821e-18
-1.50549e-18
-1.52169e-18
-1.50761e-18
-1.51557e-18
-1.51526e-18
-1.52533e-18
-1.51978e-18
-1.53526e-18
-1.51643e-18
-1.52407e-18
-1.52097e-18
-1.52526e-18
-1.51828e-18
-1.53984e-18
-1.53162e-18
-1.533e-18
-1.51809e-18
-1.52012e-18
-1.53182e-18
-1.52392e-18
-1.51661e-18
-1.51952e-18
-1.51263e-18
-1.50987e-18
-1.50765e-18
-1.49237e-18
-1.4923e-18
-1.49806e-18
-1.49708e-18
-1.50537e-18
-1.49406e-18
-1.50542e-18
-1.49891e-18
-1.50775e-18
-1.50215e-18
-1.51202e-18
-1.49993e-18
-1.51783e-18
-1.49045e-18
-1.52302e-18
-1.52307e-18
-1.53405e-18
-1.52445e-18
-1.52167e-18
-1.51575e-18
-1.5236e-18
-1.50604e-18
-1.52333e-18
-1.49423e-18
-1.51171e-18
-1.50711e-18
-1.51633e-18
-1.50859e-18
-1.51363e-18
-1.51967e-18
-1.52618e-18
-1.52271e-18
-1.5339e-18
-1.5149e-18
-1.52185e-18
-1.52285e-18
-1.53066e-18
-1.51875e-18
-1.54076e-18
-1.52794e-18
-1.53485e-18
-1.51717e-18
-1.51994e-18
-1.52836e-18
-1.52887e-18
-1.51523e-18
-1.51814e-18
-1.51134e-18
-1.50976e-18
-1.5094e-18
-1.49782e-18
-1.49723e-18
-1.49915e-18
-1.50083e-18
-1.50832e-18
-1.49197e-18
-1.50365e-18
-1.49387e-18
-1.50755e-18
-1.48925e-18
-1.49985e-18
-1.49757e-18
-1.51746e-18
-1.49307e-18
-1.51495e-18
-1.52308e-18
-1.53151e-18
-1.53278e-18
-1.52643e-18
-1.51731e-18
-1.52258e-18
-1.50112e-18
-1.52158e-18
-1.50043e-18
-1.51583e-18
-1.50228e-18
-1.51574e-18
-1.50717e-18
-1.51352e-18
-1.52174e-18
-1.51941e-18
-1.52317e-18
-1.52924e-18
-1.51583e-18
-1.51792e-18
-1.52827e-18
-1.53529e-18
-1.52341e-18
-1.53932e-18
-1.52592e-18
-1.53238e-18
-1.5206e-18
-1.51695e-18
-1.52777e-18
-1.52568e-18
-1.52006e-18
-1.52008e-18
-1.51591e-18
-1.50692e-18
-1.50716e-18
-1.50216e-18
-1.4998e-18
-1.50471e-18
-1.49328e-18
-1.50656e-18
-1.48963e-18
-1.50789e-18
-1.49308e-18
-1.50592e-18
-1.49204e-18
-1.49324e-18
-1.50072e-18
-1.5132e-18
-1.50523e-18
-1.51796e-18
-1.52308e-18
-1.52779e-18
-1.52213e-18
-1.52898e-18
-1.52e-18
-1.52663e-18
-1.51157e-18
-1.52202e-18
-1.50265e-18
-1.51798e-18
-1.50653e-18
-1.52556e-18
-1.50739e-18
-1.51695e-18
-1.51942e-18
-1.52072e-18
-1.52269e-18
-1.52801e-18
-1.51614e-18
-1.51844e-18
-1.52285e-18
-1.5315e-18
-1.52815e-18
-1.54002e-18
-1.52868e-18
-1.53015e-18
-1.5248e-18
-1.51925e-18
-1.53003e-18
-1.52304e-18
-1.52117e-18
-1.518e-18
-1.51689e-18
-1.50848e-18
-1.50769e-18
-1.5033e-18
-1.49429e-18
-1.50019e-18
-1.49396e-18
-1.5003e-18
-1.4931e-18
-1.50628e-18
-1.489e-18
-1.50197e-18
-1.49465e-18
-1.50817e-18
-1.50588e-18
-1.5092e-18
-1.50106e-18
-1.52004e-18
-1.52477e-18
-1.53098e-18
-1.51914e-18
-1.52865e-18
-1.51867e-18
-1.52653e-18
-1.50702e-18
-1.52575e-18
-1.50752e-18
-1.51602e-18
-1.51432e-18
-1.52383e-18
-1.50865e-18
-1.52259e-18
-1.51803e-18
-1.52112e-18
-1.5213e-18
-1.52917e-18
-1.5132e-18
-1.52248e-18
-1.52012e-18
-1.52967e-18
-1.52645e-18
-1.54183e-18
-1.52992e-18
-1.52713e-18
-1.52316e-18
-1.52001e-18
-1.52757e-18
-1.52214e-18
-1.51874e-18
-1.51857e-18
-1.51836e-18
-1.51082e-18
-1.50605e-18
-1.50228e-18
-1.497e-18
-1.49803e-18
-1.49668e-18
-1.49687e-18
-1.49503e-18
-1.51743e-18
-1.49325e-18
-1.50168e-18
-1.49492e-18
-1.50779e-18
-1.50669e-18
-1.50911e-18
-1.49648e-18
-1.51716e-18
-1.52806e-18
-1.53387e-18
-1.51311e-18
-1.5289e-18
-1.52056e-18
-1.52331e-18
-1.51317e-18
-1.52722e-18
-1.50399e-18
-1.51973e-18
-1.51332e-18
-1.51507e-18
-1.50788e-18
-1.52444e-18
-1.52047e-18
-1.52501e-18
-1.51986e-18
-1.5262e-18
-1.51397e-18
-1.52265e-18
-1.52124e-18
-1.53061e-18
-1.52546e-18
-1.53909e-18
-1.53062e-18
-1.53028e-18
-1.52329e-18
-1.52021e-18
-1.52658e-18
-1.52645e-18
-1.51806e-18
-1.52129e-18
-1.51858e-18
-1.50964e-18
-1.5027e-18
-1.50043e-18
-1.50347e-18
-1.49722e-18
-1.49209e-18
-1.50711e-18
-1.49586e-18
-1.51489e-18
-1.49798e-18
-1.50279e-18
-1.49459e-18
-1.51419e-18
-1.50247e-18
-1.50627e-18
-1.49428e-18
-1.50619e-18
-1.52239e-18
-1.52513e-18
-1.51259e-18
-1.52729e-18
-1.52562e-18
-1.53103e-18
-1.51942e-18
-1.52692e-18
-1.5035e-18
-1.52779e-18
-1.50974e-18
-1.51328e-18
-1.50944e-18
-1.52942e-18
-1.5228e-18
-1.5268e-18
-1.52046e-18
-1.52347e-18
-1.51966e-18
-1.52248e-18
-1.52224e-18
-1.53168e-18
-1.52473e-18
-1.54177e-18
-1.53122e-18
-1.53215e-18
-1.52595e-18
-1.52074e-18
-1.52781e-18
-1.5235e-18
-1.52282e-18
-1.52062e-18
-1.518e-18
-1.50973e-18
-1.49808e-18
-1.49856e-18
-1.50654e-18
-1.49893e-18
-1.48906e-18
-1.50739e-18
-1.49641e-18
-1.51645e-18
-1.4925e-18
-1.49905e-18
-1.49651e-18
-1.51379e-18
-1.50472e-18
-1.51294e-18
-1.50405e-18
-1.51617e-18
-1.52572e-18
-1.51704e-18
-1.52352e-18
-1.52222e-18
-1.52323e-18
-1.52939e-18
-1.51397e-18
-1.5232e-18
-1.50714e-18
-1.51834e-18
-1.50312e-18
-1.52406e-18
-1.50285e-18
-1.52289e-18
-1.52164e-18
-1.52363e-18
-1.52013e-18
-1.52378e-18
-1.51845e-18
-1.52319e-18
-1.52481e-18
-1.53162e-18
-1.52379e-18
-1.54002e-18
-1.53171e-18
-1.53194e-18
-1.5256e-18
-1.51988e-18
-1.53082e-18
-1.52561e-18
-1.52374e-18
-1.5229e-18
-1.51832e-18
-1.51487e-18
-1.50637e-18
-1.50831e-18
-1.49392e-18
-1.5056e-18
-1.49987e-18
-1.50503e-18
-1.49831e-18
-1.51183e-18
-1.49622e-18
-1.50275e-18
-1.50186e-18
-1.50598e-18
-1.51321e-18
-1.51365e-18
-1.49857e-18
-1.52201e-18
-1.52208e-18
-1.52748e-18
-1.52998e-18
-1.52516e-18
-1.52522e-18
-1.52717e-18
-1.51442e-18
-1.52258e-18
-1.50926e-18
-1.5251e-18
-1.5073e-18
-1.52849e-18
-1.51115e-18
-1.51952e-18
-1.52088e-18
-1.51973e-18
-1.52097e-18
-1.52376e-18
-1.51717e-18
-1.52474e-18
-1.52024e-18
-1.5317e-18
-1.52679e-18
-1.54018e-18
-1.5321e-18
-1.53263e-18
-1.5269e-18
-1.52594e-18
-1.5277e-18
-1.52849e-18
-1.52339e-18
-1.52146e-18
-1.52027e-18
-1.5175e-18
-1.50663e-18
-1.50821e-18
-1.48822e-18
-1.50742e-18
-1.49579e-18
-1.50687e-18
-1.49921e-18
-1.50872e-18
-1.4997e-18
-1.50525e-18
-1.49872e-18
-1.50182e-18
-1.50389e-18
-1.51564e-18
-1.49695e-18
-1.52208e-18
-1.52848e-18
-1.53428e-18
-1.529e-18
-1.53076e-18
-1.51893e-18
-1.51918e-18
-1.51272e-18
-1.52968e-18
-1.51072e-18
-1.51806e-18
-1.50988e-18
-1.52273e-18
-1.51426e-18
-1.52474e-18
-1.51893e-18
-1.51588e-18
-1.51935e-18
-1.52585e-18
-1.51619e-18
-1.52637e-18
-1.52132e-18
-1.53641e-18
-1.52754e-18
-1.54217e-18
-1.53242e-18
-1.53296e-18
-1.52569e-18
-1.52738e-18
-1.52708e-18
-1.52729e-18
-1.51976e-18
-1.52531e-18
-1.5214e-18
-1.51975e-18
-1.50354e-18
-1.50951e-18
-1.49313e-18
-1.50587e-18
-1.49319e-18
-1.50484e-18
-1.4936e-18
-1.50622e-18
-1.50105e-18
-1.5133e-18
-1.49126e-18
-1.50592e-18
-1.49853e-18
-1.51281e-18
-1.49316e-18
-1.51954e-18
-1.52946e-18
-1.53344e-18
-1.52034e-18
-1.53328e-18
-1.52038e-18
-1.52649e-18
-1.51242e-18
-1.52759e-18
-1.5135e-18
-1.51715e-18
-1.51067e-18
-1.52435e-18
-1.51717e-18
-1.52524e-18
-1.5174e-18
-1.524e-18
-1.51213e-18
-1.52364e-18
-1.51546e-18
-1.5249e-18
-1.52221e-18
-1.53643e-18
-1.52727e-18
-1.53951e-18
-1.53263e-18
-1.53294e-18
-1.52562e-18
-1.52519e-18
-1.52647e-18
-1.52738e-18
-1.52368e-18
-1.52758e-18
-1.5133e-18
-1.52089e-18
-1.50191e-18
-1.50344e-18
-1.49574e-18
-1.50336e-18
-1.49161e-18
-1.50225e-18
-1.49804e-18
-1.514e-18
-1.49642e-18
-1.50681e-18
-1.49172e-18
-1.50705e-18
-1.50338e-18
-1.50724e-18
-1.51889e-18
-1.52412e-18
-1.52899e-18
-1.52141e-18
-1.52916e-18
-1.52393e-18
-1.53344e-18
-1.51878e-18
-1.52767e-18
-1.51803e-18
-1.52406e-18
-1.51129e-18
-1.52262e-18
-1.51173e-18
-1.52782e-18
-1.51929e-18
-1.52233e-18
-1.51545e-18
-1.52596e-18
-1.51854e-18
-1.5271e-18
-1.52333e-18
-1.53784e-18
-1.5288e-18
-1.53824e-18
-1.53318e-18
-1.53338e-18
-1.5255e-18
-1.52421e-18
-1.5239e-18
-1.52474e-18
-1.5255e-18
-1.52761e-18
-1.51889e-18
-1.51831e-18
-1.50483e-18
-1.5065e-18
-1.49547e-18
-1.50415e-18
-1.49297e-18
-1.49905e-18
-1.50148e-18
-1.51465e-18
-1.49508e-18
-1.50328e-18
-1.49723e-18
-1.50793e-18
-1.50509e-18
-1.5168e-18
-1.52181e-18
-1.53242e-18
-1.53196e-18
-1.52928e-18
-1.52358e-18
-1.53409e-18
-1.52148e-18
-1.52714e-18
-1.51593e-18
-1.5272e-18
-1.51171e-18
-1.52758e-18
-1.51229e-18
-1.52978e-18
-1.52453e-18
-1.51922e-18
-1.5178e-18
-1.52529e-18
-1.51988e-18
-1.5282e-18
-1.52312e-18
-1.5363e-18
-1.53015e-18
-1.53905e-18
-1.53368e-18
-1.53349e-18
-1.52376e-18
-1.52324e-18
-1.52291e-18
-1.5237e-18
-1.52728e-18
-1.5227e-18
-1.52432e-18
-1.51626e-18
-1.50987e-18
-1.50654e-18
-1.49199e-18
-1.50203e-18
-1.50101e-18
-1.50198e-18
-1.50139e-18
-1.51402e-18
-1.49319e-18
-1.5014e-18
-1.4966e-18
-1.49928e-18
-1.52689e-18
-1.52022e-18
-1.53043e-18
-1.53109e-18
-1.52723e-18
-1.52569e-18
-1.52644e-18
-1.52142e-18
-1.53377e-18
-1.52151e-18
-1.52115e-18
-1.51152e-18
-1.52968e-18
-1.50846e-18
-1.53075e-18
-1.52588e-18
-1.51879e-18
-1.51473e-18
-1.52473e-18
-1.51804e-18
-1.52633e-18
-1.52392e-18
-1.53456e-18
-1.52946e-18
-1.54149e-18
-1.53527e-18
-1.53368e-18
-1.52657e-18
-1.52571e-18
-1.52422e-18
-1.5257e-18
-1.52491e-18
-1.52313e-18
-1.51988e-18
-1.51612e-18
-1.50613e-18
-1.51156e-18
-1.49477e-18
-1.50264e-18
-1.50479e-18
-1.4967e-18
-1.49491e-18
-1.51327e-18
-1.50437e-18
-1.50403e-18
-1.49993e-18
-1.51905e-18
-1.51998e-18
-1.52286e-18
-1.52991e-18
-1.53022e-18
-1.52199e-18
-1.53159e-18
-1.5198e-18
-1.52554e-18
-1.51449e-18
-1.52187e-18
-1.51114e-18
-1.52725e-18
-1.51473e-18
-1.52708e-18
-1.52092e-18
-1.5202e-18
-1.51048e-18
-1.52542e-18
-1.51836e-18
-1.52383e-18
-1.52686e-18
-1.53373e-18
-1.52901e-18
-1.54028e-18
-1.53793e-18
-1.53465e-18
-1.52702e-18
-1.52589e-18
-1.52585e-18
-1.52768e-18
-1.52296e-18
-1.52507e-18
-1.51849e-18
-1.51975e-18
-1.50531e-18
-1.5063e-18
-1.50285e-18
-1.50513e-18
-1.49722e-18
-1.50461e-18
-1.50405e-18
-1.51345e-18
-1.49904e-18
-1.50485e-18
-1.51174e-18
-1.51729e-18
-1.52168e-18
-1.52668e-18
-1.52899e-18
-1.51047e-18
-1.53503e-18
-1.52021e-18
-1.52079e-18
-1.5168e-18
-1.51839e-18
-1.51274e-18
-1.52904e-18
-1.51527e-18
-1.52652e-18
-1.52148e-18
-1.51946e-18
-1.51272e-18
-1.52516e-18
-1.51895e-18
-1.52322e-18
-1.52382e-18
-1.53779e-18
-1.52957e-18
-1.5414e-18
-1.53648e-18
-1.53453e-18
-1.5252e-18
-1.52753e-18
-1.53075e-18
-1.53004e-18
-1.52576e-18
-1.52519e-18
-1.52256e-18
-1.52123e-18
-1.5084e-18
-1.5066e-18
-1.49589e-18
-1.49861e-18
-1.49975e-18
-1.50562e-18
-1.51045e-18
-1.51414e-18
-1.49153e-18
-1.51469e-18
-1.51635e-18
-1.52725e-18
-1.53249e-18
-1.53316e-18
-1.52722e-18
-1.519e-18
-1.53587e-18
-1.52122e-18
-1.52528e-18
-1.52537e-18
-1.52173e-18
-1.50991e-18
-1.52922e-18
-1.51133e-18
-1.52357e-18
-1.52308e-18
-1.51769e-18
-1.51371e-18
-1.52467e-18
-1.52162e-18
-1.52338e-18
-1.52038e-18
-1.53723e-18
-1.53106e-18
-1.53936e-18
-1.53577e-18
-1.53447e-18
-1.52803e-18
-1.53203e-18
-1.53017e-18
-1.52624e-18
-1.52705e-18
-1.52533e-18
-1.52403e-18
-1.51882e-18
-1.511e-18
-1.51267e-18
-1.49395e-18
-1.50321e-18
-1.4969e-18
-1.49851e-18
-1.50587e-18
-1.51463e-18
-1.49223e-18
-1.50663e-18
-1.51748e-18
-1.52737e-18
-1.53575e-18
-1.53821e-18
-1.53025e-18
-1.52279e-18
-1.53278e-18
-1.52553e-18
-1.53385e-18
-1.52343e-18
-1.51778e-18
-1.51843e-18
-1.52826e-18
-1.51919e-18
-1.52639e-18
-1.5187e-18
-1.52159e-18
-1.51599e-18
-1.52393e-18
-1.51818e-18
-1.52072e-18
-1.52469e-18
-1.53506e-18
-1.53313e-18
-1.5385e-18
-1.53647e-18
-1.5348e-18
-1.5318e-18
-1.53115e-18
-1.53139e-18
-1.52851e-18
-1.52407e-18
-1.52228e-18
-1.52303e-18
-1.52105e-18
-1.50821e-18
-1.50896e-18
-1.49675e-18
-1.504e-18
-1.49996e-18
-1.49599e-18
-1.4986e-18
-1.51085e-18
-1.49577e-18
-1.50579e-18
-1.51692e-18
-1.52585e-18
-1.52974e-18
-1.53032e-18
-1.53455e-18
-1.52508e-18
-1.52583e-18
-1.52293e-18
-1.53291e-18
-1.52082e-18
-1.52442e-18
-1.51681e-18
-1.53292e-18
-1.52026e-18
-1.52717e-18
-1.51745e-18
-1.52132e-18
-1.51535e-18
-1.52329e-18
-1.51613e-18
-1.52089e-18
-1.52433e-18
-1.53231e-18
-1.53128e-18
-1.53842e-18
-1.53926e-18
-1.53513e-18
-1.53095e-18
-1.52853e-18
-1.52842e-18
-1.529e-18
-1.52288e-18
-1.52065e-18
-1.52207e-18
-1.51812e-18
-1.50815e-18
-1.51021e-18
-1.49731e-18
-1.50142e-18
-1.49511e-18
-1.49992e-18