/*--------------------------------*- C++ -*----------------------------------*\
  =========                 |
  \\      /  F ield         | OpenFOAM: The Open Source CFD Toolbox
   \\    /   O peration     | Website:  https://openfoam.org
    \\  /    A nd           | Version:  7
     \\/     M anipulation  |
\*---------------------------------------------------------------------------*/
FoamFile
{
    version     2.0;
    format      ascii;
    class       volVectorField;
    location    "28000";
    object      U;
}
// * * * * * * * * * * * * * * * * * * * * * * * * * * * * * * * * * * * * * //

dimensions      [0 1 -1 0 0 0 0];

internalField   nonuniform List<vector> 
4782
(
(3.39038e-19 3.31122e-19 -0.00341786)
(3.36408e-19 3.23526e-19 -0.00336184)
(3.61e-19 2.91474e-19 -0.0033045)
(3.73885e-19 2.91441e-19 -0.00324592)
(3.6323e-19 3.20172e-19 -0.00318615)
(3.41411e-19 3.57916e-19 -0.00312528)
(3.40519e-19 3.63746e-19 -0.00306336)
(3.48007e-19 3.55994e-19 -0.00300045)
(3.48291e-19 3.61139e-19 -0.00293661)
(3.49684e-19 3.64242e-19 -0.0028719)
(-6.8474e-20 1.76785e-19 -0.00414746)
(5.42005e-20 8.10618e-20 -0.00414689)
(1.23215e-19 3.77913e-20 -0.00414632)
(1.25036e-19 6.00305e-20 -0.00414575)
(9.93511e-20 9.72641e-20 -0.00414517)
(9.04058e-21 1.98669e-19 -0.00414458)
(-1.01754e-19 3.31139e-19 -0.00414398)
(-8.39236e-20 3.01467e-19 -0.00414337)
(1.22406e-20 1.60489e-19 -0.00414274)
(5.31294e-20 8.50061e-20 -0.00414211)
(7.776e-20 3.51943e-20 -0.00414147)
(8.90302e-20 6.74763e-21 -0.00414084)
(6.87763e-20 3.32015e-20 -0.00414022)
(6.84532e-20 3.53728e-20 -0.00413963)
(1.10359e-19 -6.72773e-21 -0.00413906)
(1.54664e-19 -3.80737e-20 -0.00413853)
(1.83114e-19 -4.21557e-20 -0.00413801)
(2.10054e-19 -4.76306e-20 -0.00413749)
(2.67945e-19 -9.11036e-20 -0.00413693)
(3.67171e-19 -1.90653e-19 -0.00413628)
(4.62708e-19 -3.00185e-19 -0.00413544)
(4.67423e-19 -3.05218e-19 -0.00413425)
(3.42433e-19 -1.42388e-19 -0.00413243)
(1.98139e-19 4.23965e-20 -0.00412955)
(1.74014e-19 6.29877e-20 -0.00412501)
(2.65135e-19 -6.96904e-20 -0.00411812)
(3.82875e-19 -2.40206e-19 -0.00410827)
(4.38388e-19 -3.27232e-19 -0.00409507)
(3.93214e-19 -2.82327e-19 -0.0040784)
(3.37181e-19 -2.20134e-19 -0.00405832)
(3.52567e-19 -2.50637e-19 -0.00403504)
(4.05821e-19 -3.14287e-19 -0.00400874)
(4.03942e-19 -2.93957e-19 -0.00397962)
(3.40295e-19 -1.91883e-19 -0.00394786)
(2.86169e-19 -1.09296e-19 -0.00391361)
(3.20915e-19 -1.33904e-19 -0.00387698)
(3.59735e-19 -1.5171e-19 -0.00383811)
(3.29328e-19 -8.08172e-20 -0.0037971)
(3.12614e-19 -4.42184e-20 -0.00375405)
(3.24257e-19 -5.05234e-20 -0.00370907)
(3.09632e-19 -2.17709e-20 -0.00366223)
(3.04721e-19 -8.96792e-21 -0.00361364)
(3.26034e-19 -3.18112e-20 -0.00356338)
(2.96958e-19 9.19937e-21 -0.00351152)
(2.15799e-19 1.2211e-19 -0.00345816)
(1.81819e-19 1.82547e-19 -0.00340337)
(2.3522e-19 1.34095e-19 -0.00334722)
(3.04895e-19 5.77382e-20 -0.00328978)
(3.21578e-19 4.5864e-20 -0.00323112)
(2.93358e-19 8.85605e-20 -0.00317132)
(2.5308e-19 1.49414e-19 -0.00311043)
(2.2496e-19 1.93279e-19 -0.00304852)
(2.49357e-19 1.64902e-19 -0.00298565)
(2.9778e-19 1.02448e-19 -0.00292187)
(3.01028e-19 9.94798e-20 -0.00285725)
(-6.02721e-20 3.35269e-19 -0.00414719)
(-1.26459e-19 3.61873e-19 -0.00414662)
(-1.74259e-19 3.62897e-19 -0.00414605)
(-1.82325e-19 3.24046e-19 -0.00414547)
(-1.78843e-19 2.83708e-19 -0.00414489)
(-1.84878e-19 2.81076e-19 -0.00414429)
(-2.10573e-19 3.4048e-19 -0.00414369)
(-2.21931e-19 4.12653e-19 -0.00414307)
(-2.38803e-19 4.69534e-19 -0.00414244)
(-2.75173e-19 5.14585e-19 -0.0041418)
(-3.18313e-19 5.50978e-19 -0.00414117)
(-3.43319e-19 5.55259e-19 -0.00414054)
(-3.40055e-19 5.33356e-19 -0.00413993)
(-3.02762e-19 4.97831e-19 -0.00413935)
(-2.33805e-19 4.42723e-19 -0.00413879)
(-2.06455e-19 4.38754e-19 -0.00413827)
(-2.44224e-19 5.09876e-19 -0.00413775)
(-2.94421e-19 5.91965e-19 -0.00413722)
(-3.18763e-19 6.35292e-19 -0.00413664)
(-3.14896e-19 6.34735e-19 -0.00413594)
(-3.12934e-19 6.17686e-19 -0.004135)
(-3.34971e-19 6.1667e-19 -0.00413363)
(-3.53933e-19 6.11024e-19 -0.0041315)
(-3.37429e-19 5.8665e-19 -0.00412814)
(-2.66457e-19 5.11615e-19 -0.00412288)
(-2.13533e-19 4.53725e-19 -0.00411507)
(-1.79575e-19 4.00909e-19 -0.00410416)
(-1.07035e-19 2.80392e-19 -0.00408985)
(-2.50993e-20 1.56209e-19 -0.00407209)
(-2.02781e-21 1.26613e-19 -0.00405102)
(5.06014e-21 1.28072e-19 -0.00402681)
(5.00432e-20 7.683e-20 -0.00399968)
(6.80368e-20 6.32639e-20 -0.00396982)
(6.23448e-20 8.68516e-20 -0.00393737)
(1.12221e-19 5.01179e-20 -0.00390249)
(2.05113e-19 -3.25979e-20 -0.0038653)
(2.33213e-19 -4.06058e-20 -0.0038259)
(1.78525e-19 5.09591e-20 -0.00378442)
(1.21345e-19 1.42738e-19 -0.00374095)
(1.24334e-19 1.55708e-19 -0.00369558)
(1.52879e-19 1.33667e-19 -0.0036484)
(1.71269e-19 1.23981e-19 -0.00359951)
(1.78568e-19 1.21264e-19 -0.00354898)
(1.84479e-19 1.17737e-19 -0.0034969)
(2.2136e-19 8.25724e-20 -0.00344334)
(2.66091e-19 4.88091e-20 -0.00338839)
(2.70601e-19 5.8e-20 -0.00333211)
(2.49957e-19 8.84684e-20 -0.00327458)
(2.28565e-19 1.14862e-19 -0.00321586)
(2.19984e-19 1.24228e-19 -0.00315602)
(2.12384e-19 1.35583e-19 -0.00309512)
(1.87028e-19 1.75573e-19 -0.00303323)
(1.64868e-19 2.1454e-19 -0.0029704)
(1.77038e-19 2.08543e-19 -0.00290669)
(1.98394e-19 1.84877e-19 -0.00284216)
(-7.59792e-19 4.73075e-19 -0.00414693)
(-6.96763e-19 3.98893e-19 -0.00414635)
(-6.09406e-19 2.98097e-19 -0.00414578)
(-5.4007e-19 2.09653e-19 -0.0041452)
(-4.50834e-19 9.18956e-20 -0.00414461)
(-3.46467e-19 -3.14928e-20 -0.00414401)
(-2.4338e-19 -1.37016e-19 -0.0041434)
(-1.86065e-19 -1.72539e-19 -0.00414278)
(-2.57973e-19 -5.18216e-20 -0.00414214)
(-3.68484e-19 1.15048e-19 -0.00414151)
(-4.06744e-19 1.99042e-19 -0.00414087)
(-3.65362e-19 2.03049e-19 -0.00414025)
(-2.28655e-19 9.77087e-20 -0.00413965)
(-2.92619e-20 -8.11838e-20 -0.00413908)
(9.61589e-20 -1.9117e-19 -0.00413854)
(1.08216e-19 -1.88938e-19 -0.00413802)
(7.80945e-20 -1.42138e-19 -0.0041375)
(4.65648e-20 -9.27068e-20 -0.00413696)
(4.56712e-20 -7.65709e-20 -0.00413634)
(8.83969e-20 -1.06161e-19 -0.00413557)
(1.66408e-19 -1.74791e-19 -0.00413451)
(2.39089e-19 -2.42906e-19 -0.00413292)
(2.59024e-19 -2.4814e-19 -0.00413042)
(2.6502e-19 -2.25162e-19 -0.00412647)
(2.22171e-19 -1.33883e-19 -0.00412041)
(1.79377e-19 -4.52296e-20 -0.0041116)
(1.58875e-19 2.68786e-20 -0.00409957)
(2.00886e-19 3.92797e-20 -0.00408412)
(3.08762e-19 -1.75567e-20 -0.00406528)
(3.89842e-19 -4.22819e-20 -0.00404321)
(4.0988e-19 6.10877e-21 -0.0040181)
(4.42237e-19 3.17191e-20 -0.00399014)
(4.99875e-19 2.96387e-20 -0.00395953)
(5.26025e-19 6.91266e-20 -0.0039264)
(5.68708e-19 7.91342e-20 -0.0038909)
(6.40019e-19 4.01879e-20 -0.00385313)
(6.64334e-19 5.02271e-20 -0.00381323)
(6.29328e-19 1.28742e-19 -0.00377127)
(6.03606e-19 1.94563e-19 -0.00372738)
(6.04054e-19 2.24215e-19 -0.00368162)
(6.01462e-19 2.45909e-19 -0.00363411)
(5.94482e-19 2.67412e-19 -0.00358492)
(6.01521e-19 2.73621e-19 -0.00353413)
(6.3014e-19 2.6022e-19 -0.00348182)
(6.73276e-19 2.32134e-19 -0.00342808)
(6.79908e-19 2.42143e-19 -0.00337297)
(6.49489e-19 2.89819e-19 -0.00331658)
(6.43901e-19 3.01305e-19 -0.00325895)
(6.37076e-19 3.10324e-19 -0.00320017)
(6.31151e-19 3.19103e-19 -0.0031403)
(6.58423e-19 2.88019e-19 -0.0030794)
(6.9253e-19 2.48674e-19 -0.00301753)
(7.0839e-19 2.31904e-19 -0.00295476)
(7.0622e-19 2.41755e-19 -0.00289112)
(7.0938e-19 2.42849e-19 -0.00282669)
(-1.6945e-19 3.1348e-19 -0.00414667)
(-1.58015e-19 3.5639e-19 -0.00414609)
(-1.76589e-19 4.21408e-19 -0.00414552)
(-1.85147e-19 4.68855e-19 -0.00414493)
(-1.20662e-19 4.23862e-19 -0.00414434)
(-2.35199e-20 3.20107e-19 -0.00414374)
(2.45729e-20 2.52156e-19 -0.00414312)
(1.27802e-21 2.40178e-19 -0.0041425)
(-6.94435e-20 2.75891e-19 -0.00414186)
(-1.06153e-19 3.04792e-19 -0.00414123)
(-5.66221e-20 2.6984e-19 -0.0041406)
(3.68404e-20 1.92766e-19 -0.00413998)
(1.11997e-19 1.16709e-19 -0.0041394)
(1.1107e-19 9.83568e-20 -0.00413884)
(3.28522e-20 1.56399e-19 -0.0041383)
(-4.05364e-20 2.23295e-19 -0.00413779)
(-9.93265e-20 2.86655e-19 -0.00413727)
(-1.55599e-19 3.55194e-19 -0.0041367)
(-1.85517e-19 4.02232e-19 -0.00413604)
(-2.04835e-19 4.43015e-19 -0.00413518)
(-2.89019e-19 5.5725e-19 -0.00413396)
(-4.24981e-19 7.16718e-19 -0.00413209)
(-4.55835e-19 7.53412e-19 -0.00412914)
(-3.98972e-19 6.81895e-19 -0.00412452)
(-3.70028e-19 6.37439e-19 -0.00411756)
(-3.92753e-19 6.73236e-19 -0.00410767)
(-3.50718e-19 6.51936e-19 -0.00409448)
(-2.53153e-19 5.74515e-19 -0.00407789)
(-2.00059e-19 5.44803e-19 -0.00405798)
(-2.24549e-19 6.0814e-19 -0.00403492)
(-2.81457e-19 7.13902e-19 -0.00400891)
(-2.57139e-19 7.41993e-19 -0.00398014)
(-1.65121e-19 6.91776e-19 -0.00394879)
(-1.49726e-19 7.26671e-19 -0.00391498)
(-1.724e-19 8.11814e-19 -0.00387886)
(-1.1021e-19 8.01586e-19 -0.00384054)
(-2.98362e-20 7.57502e-19 -0.00380011)
(-2.4821e-20 7.91631e-19 -0.0037577)
(-5.50342e-20 8.66736e-19 -0.00371338)
(-7.57228e-20 9.28901e-19 -0.00366725)
(-6.61234e-20 9.57413e-19 -0.0036194)
(2.00384e-21 9.2093e-19 -0.00356991)
(1.19526e-19 8.29583e-19 -0.00351887)
(2.34241e-19 7.32131e-19 -0.00346635)
(3.0439e-19 6.70428e-19 -0.00341242)
(3.28945e-19 6.48342e-19 -0.00335717)
(2.79975e-19 7.08004e-19 -0.00330065)
(2.10229e-19 7.91648e-19 -0.00324294)
(2.00163e-19 8.12413e-19 -0.00318411)
(2.11189e-19 8.09302e-19 -0.00312422)
(2.12547e-19 8.14386e-19 -0.00306332)
(2.13979e-19 8.17395e-19 -0.00300148)
(2.524e-19 7.78176e-19 -0.00293876)
(3.09975e-19 7.16303e-19 -0.00287521)
(3.14484e-19 7.0455e-19 -0.00281089)
(-4.47823e-19 2.57496e-19 -0.00414667)
(-4.22363e-19 2.58925e-19 -0.00414609)
(-3.81246e-19 2.53574e-19 -0.00414552)
(-3.35566e-19 2.56067e-19 -0.00414493)
(-3.17689e-19 2.8623e-19 -0.00414434)
(-3.37707e-19 3.36114e-19 -0.00414373)
(-3.90277e-19 3.99911e-19 -0.00414312)
(-4.59293e-19 4.63724e-19 -0.00414249)
(-4.48649e-19 4.63838e-19 -0.00414186)
(-3.0501e-19 3.66404e-19 -0.00414122)
(-1.68118e-19 2.88378e-19 -0.00414059)
(-1.83778e-19 3.3188e-19 -0.00413998)
(-2.70268e-19 4.18067e-19 -0.00413939)
(-2.7195e-19 4.0435e-19 -0.00413883)
(-1.63184e-19 2.8067e-19 -0.0041383)
(-5.47467e-20 1.54492e-19 -0.00413778)
(-5.7333e-21 8.71261e-20 -0.00413726)
(1.96512e-20 5.44247e-20 -0.0041367)
(5.878e-20 1.87346e-20 -0.00413604)
(1.05472e-19 -2.83707e-20 -0.00413518)
(1.15913e-19 -5.71734e-20 -0.00413395)
(9.9408e-20 -6.46124e-20 -0.00413208)
(6.75533e-20 -6.32742e-20 -0.00412914)
(9.4186e-21 -5.35209e-20 -0.00412452)
(-3.66948e-20 -7.3706e-20 -0.00411756)
(-4.97467e-20 -1.13439e-19 -0.00410767)
(-1.57494e-19 -5.8376e-20 -0.00409448)
(-2.72396e-19 8.12078e-21 -0.00407789)
(-2.62325e-19 -4.33721e-20 -0.00405798)
(-1.99447e-19 -1.30491e-19 -0.00403492)
(-1.60046e-19 -1.71491e-19 -0.00400891)
(-1.33537e-19 -1.739e-19 -0.00398014)
(-1.12651e-19 -1.67785e-19 -0.00394879)
(-2.89251e-20 -2.2207e-19 -0.00391498)
(6.48566e-20 -2.79564e-19 -0.00387886)
(6.48171e-20 -2.52672e-19 -0.00384054)
(1.81894e-20 -1.93211e-19 -0.00380012)
(9.98857e-21 -1.70964e-19 -0.0037577)
(2.0156e-20 -1.59443e-19 -0.00371338)
(3.55066e-20 -1.49776e-19 -0.00366725)
(5.82607e-20 -1.4698e-19 -0.0036194)
(7.20674e-20 -1.38893e-19 -0.00356992)
(4.502e-20 -9.69903e-20 -0.00351887)
(-4.36862e-20 -6.49801e-21 -0.00346635)
(-1.26808e-19 6.59547e-20 -0.00341242)
(-1.3638e-19 6.52874e-20 -0.00335717)
(-1.03969e-19 2.63358e-20 -0.00330065)
(-6.41529e-20 -1.35805e-20 -0.00324295)
(-4.72051e-20 -2.99992e-20 -0.00318411)
(-5.66822e-20 -2.07463e-20 -0.00312422)
(-4.83595e-20 -2.80294e-20 -0.00306332)
(-3.64705e-20 -3.81426e-20 -0.00300149)
(-5.4179e-20 -2.19276e-20 -0.00293876)
(-9.81378e-20 1.83444e-20 -0.00287521)
(-1.39053e-19 4.99291e-20 -0.00281089)
(-1.83656e-19 1.20607e-19 -0.00414693)
(-1.65022e-19 8.57847e-20 -0.00414635)
(-1.41823e-19 5.55076e-20 -0.00414578)
(-1.12505e-19 2.63486e-20 -0.00414519)
(-1.02301e-19 1.69606e-20 -0.0041446)
(-1.20735e-19 3.51652e-20 -0.004144)
(-1.82191e-19 1.01448e-19 -0.00414339)
(-2.07112e-19 1.51093e-19 -0.00414277)
(-1.20432e-19 1.10097e-19 -0.00414214)
(2.61447e-20 1.46351e-20 -0.0041415)
(9.77233e-20 -2.30822e-20 -0.00414086)
(5.11494e-20 3.76529e-20 -0.00414024)
(-7.32693e-20 1.72131e-19 -0.00413964)
(-2.37164e-19 3.46914e-19 -0.00413907)
(-3.75387e-19 4.88242e-19 -0.00413853)
(-4.1086e-19 5.22581e-19 -0.00413801)
(-3.29082e-19 4.51543e-19 -0.00413749)
(-2.17223e-19 3.60602e-19 -0.00413695)
(-1.68879e-19 3.27688e-19 -0.00413633)
(-2.19219e-19 3.76379e-19 -0.00413556)
(-3.12433e-19 4.57755e-19 -0.0041345)
(-3.70675e-19 5.06986e-19 -0.00413291)
(-3.78441e-19 5.09145e-19 -0.00413041)
(-3.75931e-19 4.98831e-19 -0.00412646)
(-3.43101e-19 4.59128e-19 -0.00412041)
(-2.82296e-19 3.9833e-19 -0.00411159)
(-2.1958e-19 3.56499e-19 -0.00409956)
(-2.05654e-19 3.72685e-19 -0.00408412)
(-2.11418e-19 3.9916e-19 -0.00406528)
(-1.2651e-19 3.45231e-19 -0.0040432)
(1.59648e-20 2.55724e-19 -0.00401809)
(1.23679e-19 2.04714e-19 -0.00399014)
(1.40127e-19 2.38237e-19 -0.00395953)
(1.19373e-19 3.06665e-19 -0.0039264)
(8.11053e-20 3.81761e-19 -0.0038909)
(3.84303e-20 4.43893e-19 -0.00385314)
(3.69052e-20 4.61254e-19 -0.00381323)
(7.71742e-20 4.40495e-19 -0.00377128)
(1.11662e-19 4.2442e-19 -0.00372738)
(1.11652e-19 4.36054e-19 -0.00368163)
(9.56763e-20 4.55702e-19 -0.00363412)
(1.08621e-19 4.47573e-19 -0.00358492)
(1.27863e-19 4.30116e-19 -0.00353413)
(8.8639e-20 4.64907e-19 -0.00348183)
(4.95186e-20 5.05707e-19 -0.00342809)
(6.81395e-20 4.94776e-19 -0.00337298)
(8.68927e-20 4.76986e-19 -0.00331658)
(8.10746e-20 4.7745e-19 -0.00325896)
(8.52618e-20 4.64638e-19 -0.00320018)
(9.34385e-20 4.45866e-19 -0.00314031)
(8.50171e-20 4.41438e-19 -0.00307941)
(6.1029e-20 4.51496e-19 -0.00301754)
(6.52202e-20 4.38387e-19 -0.00295477)
(9.2884e-20 4.09837e-19 -0.00289113)
(9.496e-20 4.09511e-19 -0.0028267)
(9.44769e-20 4.15447e-19 -0.00276152)
(1.02849e-19 4.16705e-19 -0.00269565)
(1.35477e-19 3.93747e-19 -0.00262912)
(1.78649e-19 3.52321e-19 -0.002562)
(-6.11508e-19 6.42441e-19 -0.00414719)
(-5.6651e-19 6.19895e-19 -0.00414662)
(-4.73125e-19 5.56556e-19 -0.00414604)
(-4.00267e-19 5.05956e-19 -0.00414546)
(-3.69716e-19 4.8465e-19 -0.00414488)
(-3.35186e-19 4.55619e-19 -0.00414428)
(-2.84817e-19 4.14559e-19 -0.00414367)
(-2.99101e-19 4.28187e-19 -0.00414305)
(-3.30951e-19 4.47686e-19 -0.00414242)
(-2.70567e-19 3.81459e-19 -0.00414179)
(-1.94553e-19 3.00714e-19 -0.00414115)
(-1.8822e-19 2.90023e-19 -0.00414052)
(-1.95003e-19 2.98886e-19 -0.00413991)
(-1.95873e-19 3.18711e-19 -0.00413933)
(-2.17592e-19 3.69327e-19 -0.00413877)
(-2.03088e-19 4.0658e-19 -0.00413825)
(-1.10357e-19 3.74921e-19 -0.00413773)
(1.29437e-20 3.07302e-19 -0.0041372)
(1.00279e-19 2.56092e-19 -0.00413662)
(1.49678e-19 2.31114e-19 -0.00413592)
(1.75041e-19 2.18001e-19 -0.00413498)
(1.81644e-19 2.03892e-19 -0.00413361)
(1.68716e-19 1.99842e-19 -0.00413149)
(1.39451e-19 2.167e-19 -0.00412812)
(1.03248e-19 2.44201e-19 -0.00412287)
(1.23279e-19 2.2597e-19 -0.00411506)
(1.05571e-19 2.38769e-19 -0.00410415)
(-1.01594e-19 3.91476e-19 -0.00408984)
(-2.99665e-19 5.45886e-19 -0.00407209)
(-2.81825e-19 5.37513e-19 -0.00405101)
(-1.82952e-19 4.63897e-19 -0.00402681)
(-1.40123e-19 4.21059e-19 -0.00399968)
(-1.13251e-19 3.84564e-19 -0.00396981)
(-8.81243e-20 3.5522e-19 -0.00393737)
(-1.58667e-19 4.12895e-19 -0.00390249)
(-2.97347e-19 5.30018e-19 -0.0038653)
(-3.47372e-19 5.74489e-19 -0.00382591)
(-2.89073e-19 5.31472e-19 -0.00378443)
(-2.26439e-19 4.83985e-19 -0.00374096)
(-2.07302e-19 4.69714e-19 -0.00369559)
(-1.90339e-19 4.54591e-19 -0.00364841)
(-1.63858e-19 4.32556e-19 -0.00359952)
(-1.56026e-19 4.20572e-19 -0.00354899)
(-1.44373e-19 4.02268e-19 -0.00349691)
(-1.48643e-19 4.05846e-19 -0.00344336)
(-1.79785e-19 4.35002e-19 -0.00338841)
(-1.8957e-19 4.40179e-19 -0.00333213)
(-1.82187e-19 4.25705e-19 -0.0032746)
(-1.98762e-19 4.28038e-19 -0.00321588)
(-2.06018e-19 4.21448e-19 -0.00315604)
(-1.68977e-19 3.80002e-19 -0.00309514)
(-1.19283e-19 3.29179e-19 -0.00303325)
(-6.53945e-20 2.7683e-19 -0.00297042)
(-7.13697e-21 2.18466e-19 -0.00290671)
(3.86578e-20 1.70818e-19 -0.00284218)
(7.84703e-20 1.31422e-19 -0.00277688)
(9.94432e-20 1.1287e-19 -0.00271086)
(8.45537e-20 1.25242e-19 -0.00264417)
(6.48042e-20 1.37837e-19 -0.00257686)
(5.4445e-20 1.34975e-19 -0.00250898)
(-4.8283e-19 -1.0328e-19 -0.00414746)
(-4.83284e-19 -6.50674e-20 -0.00414688)
(-4.80358e-19 -3.66165e-20 -0.00414631)
(-4.80193e-19 -2.13538e-20 -0.00414574)
(-5.10924e-19 1.46967e-20 -0.00414515)
(-5.49902e-19 6.96572e-20 -0.00414456)
(-5.90519e-19 1.3378e-19 -0.00414396)
(-6.42888e-19 2.04907e-19 -0.00414334)
(-6.75188e-19 2.69696e-19 -0.00414272)
(-6.20833e-19 2.71727e-19 -0.00414208)
(-4.96933e-19 2.17221e-19 -0.00414144)
(-4.44609e-19 2.16323e-19 -0.00414081)
(-4.75273e-19 2.85546e-19 -0.00414019)
(-5.16761e-19 3.60933e-19 -0.0041396)
(-5.08736e-19 3.96893e-19 -0.00413904)
(-4.99344e-19 4.24397e-19 -0.0041385)
(-5.2162e-19 4.71852e-19 -0.00413798)
(-5.48173e-19 5.18006e-19 -0.00413746)
(-5.73714e-19 5.67225e-19 -0.00413691)
(-6.12191e-19 6.25155e-19 -0.00413626)
(-6.92297e-19 7.04594e-19 -0.00413542)
(-7.13102e-19 7.27291e-19 -0.00413423)
(-5.85824e-19 6.27381e-19 -0.00413241)
(-4.55439e-19 5.1333e-19 -0.00412953)
(-4.54537e-19 4.90161e-19 -0.00412499)
(-5.67932e-19 5.45429e-19 -0.0041181)
(-7.65589e-19 6.56596e-19 -0.00410825)
(-9.11775e-19 7.32994e-19 -0.00409506)
(-8.8803e-19 6.95848e-19 -0.00407839)
(-8.20681e-19 6.3131e-19 -0.00405832)
(-8.52523e-19 6.45765e-19 -0.00403503)
(-9.28472e-19 7.01312e-19 -0.00400873)
(-9.11935e-19 6.92368e-19 -0.00397962)
(-8.02026e-19 6.09583e-19 -0.00394786)
(-7.12287e-19 5.39816e-19 -0.00391361)
(-6.80626e-19 5.22262e-19 -0.00387699)
(-6.19457e-19 4.89179e-19 -0.00383812)
(-5.21744e-19 4.15376e-19 -0.00379711)
(-4.70518e-19 3.67777e-19 -0.00375406)
(-4.71864e-19 3.57518e-19 -0.00370908)
(-4.57494e-19 3.3774e-19 -0.00366225)
(-4.45183e-19 3.17421e-19 -0.00361366)
(-4.60115e-19 3.15863e-19 -0.00356339)
(-4.19013e-19 2.69079e-19 -0.00351154)
(-3.3254e-19 1.87756e-19 -0.00345818)
(-3.27583e-19 1.7157e-19 -0.00340339)
(-4.08626e-19 2.25353e-19 -0.00334724)
(-4.85625e-19 2.7312e-19 -0.0032898)
(-5.05563e-19 2.77198e-19 -0.00323115)
(-4.80616e-19 2.50086e-19 -0.00317135)
(-4.44697e-19 2.16923e-19 -0.00311046)
(-4.25912e-19 1.94486e-19 -0.00304855)
(-4.23669e-19 1.82269e-19 -0.00298567)
(-4.3104e-19 1.74767e-19 -0.0029219)
(-4.12409e-19 1.46389e-19 -0.00285728)
(-3.49474e-19 8.21066e-20 -0.00279186)
(-3.1097e-19 3.63798e-20 -0.0027257)
(-3.44336e-19 4.52247e-20 -0.00265886)
(-3.98535e-19 7.05898e-20 -0.00259137)
(-4.20328e-19 7.20211e-20 -0.0025233)
(-3.80228e-19 3.00076e-20 -0.00245467)
(-2.96971e-19 -4.12087e-20 -0.00238554)
(-2.205e-19 -1.03276e-19 -0.00231596)
(-2.11912e-19 -1.08734e-19 -0.00224595)
(-2.27531e-19 -9.58873e-20 -0.00217556)
(-2.00437e-19 -1.19787e-19 -0.00210483)
(-1.51402e-19 -1.60668e-19 -0.00203379)
(-1.17356e-19 -1.88077e-19 -0.00196249)
(-9.26114e-20 -2.08377e-19 -0.00189095)
(-5.9126e-20 -2.35637e-19 -0.00181921)
(-5.4486e-20 -2.40616e-19 -0.0017473)
(-7.85718e-20 -2.24021e-19 -0.00167524)
(-9.36814e-20 -2.15879e-19 -0.00160308)
(-9.46061e-20 -2.1916e-19 -0.00153083)
(-9.04411e-20 -2.24608e-19 -0.00145853)
(-8.23628e-20 -2.33603e-19 -0.0013862)
(-8.74147e-20 -2.34007e-19 -0.00131387)
(-1.09221e-19 -2.23309e-19 -0.00124156)
(-1.22508e-19 -2.1935e-19 -0.00116929)
(-1.3206e-19 -2.18555e-19 -0.00109708)
(-1.4358e-19 -2.16028e-19 -0.00102496)
(-1.52563e-19 -2.16452e-19 -0.000952954)
(-1.50562e-19 -2.25844e-19 -0.000881073)
(-1.46636e-19 -2.37179e-19 -0.000809338)
(-1.46452e-19 -2.4609e-19 -0.000737767)
(-1.52856e-19 -2.48785e-19 -0.000666379)
(-1.59932e-19 -2.48114e-19 -0.000595189)
(-1.6019e-19 -2.48445e-19 -0.000524214)
(-1.56701e-19 -2.45335e-19 -0.000453469)
(-1.57161e-19 -2.30345e-19 -0.000382968)
(-1.55439e-19 -2.05601e-19 -0.000312726)
(-1.4138e-19 -1.75399e-19 -0.000242755)
(-1.14011e-19 -1.36794e-19 -0.000173069)
(-7.21991e-20 -8.61125e-20 -0.000103679)
(-3.31269e-20 -4.0697e-20 -3.45966e-05)
(-4.69736e-19 2.80362e-19 -0.00414772)
(-3.75649e-19 2.40497e-19 -0.00414715)
(-3.95847e-19 2.71637e-19 -0.00414658)
(-4.15319e-19 2.91106e-19 -0.00414601)
(-3.41445e-19 2.43969e-19 -0.00414543)
(-2.18447e-19 1.60089e-19 -0.00414484)
(-1.53968e-19 1.23971e-19 -0.00414424)
(-1.56023e-19 1.39333e-19 -0.00414363)
(-1.64793e-19 1.50795e-19 -0.00414301)
(-1.46829e-19 1.36611e-19 -0.00414238)
(-1.09999e-19 9.57179e-20 -0.00414174)
(-6.18402e-20 4.57592e-20 -0.0041411)
(-3.00343e-20 2.09896e-20 -0.00414048)
(-5.86109e-20 3.47991e-20 -0.00413988)
(-1.58231e-19 8.59061e-20 -0.0041393)
(-2.44997e-19 1.20686e-19 -0.00413876)
(-2.4398e-19 1.01276e-19 -0.00413824)
(-1.87762e-19 4.44003e-20 -0.00413772)
(-1.65449e-19 1.0704e-20 -0.00413719)
(-2.58494e-19 5.69846e-20 -0.00413658)
(-4.02355e-19 1.43635e-19 -0.00413581)
(-4.99785e-19 2.03019e-19 -0.00413476)
(-5.35759e-19 2.12012e-19 -0.00413319)
(-5.24503e-19 1.73807e-19 -0.00413072)
(-4.95868e-19 1.13025e-19 -0.0041268)
(-4.79489e-19 5.23996e-20 -0.00412074)
(-4.94786e-19 9.47259e-21 -0.00411189)
(-5.81974e-19 3.14099e-20 -0.00409978)
(-7.10229e-19 1.00523e-19 -0.00408417)
(-7.576e-19 1.23702e-19 -0.00406511)
(-7.06099e-19 8.84132e-20 -0.00404274)
(-6.5105e-19 6.94009e-20 -0.00401728)
(-6.48242e-19 1.06581e-19 -0.00398893)
(-6.79371e-19 1.77744e-19 -0.00395786)
(-6.96324e-19 2.4536e-19 -0.00392423)
(-6.90551e-19 2.98177e-19 -0.00388818)
(-7.54486e-19 3.93151e-19 -0.00384983)
(-8.38918e-19 4.91088e-19 -0.00380929)
(-8.25783e-19 5.11835e-19 -0.00376667)
(-7.52443e-19 4.85637e-19 -0.00372207)
(-6.78773e-19 4.54645e-19 -0.00367558)
(-6.45289e-19 4.48089e-19 -0.0036273)
(-6.29402e-19 4.5386e-19 -0.0035773)
(-5.95594e-19 4.43507e-19 -0.00352568)
(-5.49491e-19 4.16311e-19 -0.00347252)
(-5.14059e-19 3.8853e-19 -0.00341789)
(-5.10195e-19 3.86097e-19 -0.00336187)
(-5.09733e-19 3.95519e-19 -0.00330453)
(-4.66454e-19 3.85116e-19 -0.00324595)
(-4.01818e-19 3.58308e-19 -0.00318619)
(-3.62101e-19 3.45533e-19 -0.00312531)
(-3.57403e-19 3.58028e-19 -0.00306339)
(-3.44038e-19 3.65585e-19 -0.00300048)
(-2.99231e-19 3.50536e-19 -0.00293664)
(-2.56376e-19 3.33323e-19 -0.00287194)
(-2.26485e-19 3.2122e-19 -0.00280641)
(-2.2541e-19 3.27071e-19 -0.00274013)
(-2.46141e-19 3.47301e-19 -0.00267313)
(-2.36043e-19 3.46037e-19 -0.00260548)
(-1.70013e-19 3.04786e-19 -0.00253721)
(-8.53362e-20 2.49187e-19 -0.00246838)
(-2.86253e-20 2.13345e-19 -0.00239903)
(3.13673e-20 1.73141e-19 -0.0023292)
(7.24328e-20 1.46922e-19 -0.00225894)
(3.98982e-20 1.77862e-19 -0.00218828)
(-1.09985e-20 2.23925e-19 -0.00211726)
(-2.07788e-20 2.3759e-19 -0.00204593)
(-9.84085e-21 2.31939e-19 -0.00197431)
(-9.62518e-22 2.24789e-19 -0.00190245)
(-3.02357e-21 2.22866e-19 -0.00183037)
(-2.56642e-20 2.34556e-19 -0.00175811)
(-4.88229e-20 2.47026e-19 -0.00168569)
(-4.17099e-20 2.38396e-19 -0.00161316)
(-9.20196e-21 2.0983e-19 -0.00154054)
(1.89026e-20 1.82131e-19 -0.00146785)
(3.05842e-20 1.64718e-19 -0.00139512)
(3.07892e-20 1.5344e-19 -0.00132238)
(2.68023e-20 1.43622e-19 -0.00124965)
(3.22799e-20 1.24952e-19 -0.00117696)
(3.7036e-20 1.04029e-19 -0.00110433)
(3.07672e-20 8.865e-20 -0.00103178)
(2.40903e-20 7.07078e-20 -0.000959327)
(1.75394e-20 5.03143e-20 -0.000886999)
(-7.55863e-22 3.66092e-20 -0.000814812)
(-2.51311e-20 2.56811e-20 -0.000742785)
(-3.71709e-20 5.00499e-21 -0.000670935)
(-4.0867e-20 -2.04853e-20 -0.00059928)
(-4.44092e-20 -4.30725e-20 -0.000527835)
(-4.88163e-20 -6.11898e-20 -0.000456617)
(-5.52199e-20 -7.18698e-20 -0.000385639)
(-5.85458e-20 -7.59096e-20 -0.000314917)
(-5.2257e-20 -7.44776e-20 -0.000244464)
(-4.04425e-20 -6.09345e-20 -0.000174293)
(-2.06343e-20 -3.2305e-20 -0.000104415)
(-2.02401e-20 -2.77688e-20 -3.48438e-05)
(-1.59729e-19 2.83886e-20 -0.00414798)
(-1.8653e-19 5.9447e-20 -0.00414741)
(-2.8295e-19 1.36716e-19 -0.00414684)
(-3.57315e-19 2.05581e-19 -0.00414627)
(-4.24708e-19 2.66149e-19 -0.0041457)
(-4.52316e-19 2.96234e-19 -0.00414512)
(-4.36821e-19 2.96899e-19 -0.00414452)
(-5.1617e-19 3.61916e-19 -0.00414392)
(-6.49049e-19 4.57626e-19 -0.0041433)
(-7.25279e-19 5.0329e-19 -0.00414267)
(-6.94416e-19 4.65515e-19 -0.00414204)
(-5.73077e-19 3.68237e-19 -0.0041414)
(-5.5844e-19 3.38367e-19 -0.00414077)
(-7.19476e-19 4.18316e-19 -0.00414016)
(-8.59362e-19 4.89381e-19 -0.00413958)
(-8.70869e-19 4.9116e-19 -0.00413902)
(-8.57552e-19 4.7704e-19 -0.0041385)
(-8.78786e-19 4.8158e-19 -0.00413798)
(-8.94649e-19 4.77317e-19 -0.00413746)
(-8.7963e-19 4.48239e-19 -0.00413688)
(-8.61708e-19 4.15265e-19 -0.00413618)
(-8.6124e-19 3.91309e-19 -0.00413524)
(-8.4867e-19 3.53041e-19 -0.00413387)
(-8.02308e-19 2.87311e-19 -0.00413174)
(-7.46767e-19 2.1107e-19 -0.00412834)
(-7.13421e-19 1.37379e-19 -0.00412303)
(-6.65262e-19 3.56738e-20 -0.0041151)
(-5.80044e-19 -1.04888e-19 -0.00410401)
(-4.97396e-19 -2.31403e-19 -0.00408946)
(-4.80781e-19 -3.04487e-19 -0.00407139)
(-5.17462e-19 -3.42678e-19 -0.00404995)
(-5.34673e-19 -3.90447e-19 -0.00402532)
(-5.08264e-19 -4.52117e-19 -0.00399772)
(-4.41634e-19 -5.25784e-19 -0.00396733)
(-4.11896e-19 -5.65167e-19 -0.00393432)
(-5.1925e-19 -5.02198e-19 -0.00389884)
(-6.67517e-19 -3.98921e-19 -0.00386101)
(-7.24019e-19 -3.40112e-19 -0.00382094)
(-7.2698e-19 -3.15841e-19 -0.00377875)
(-7.57996e-19 -2.76528e-19 -0.00373453)
(-7.81621e-19 -2.46236e-19 -0.00368839)
(-7.72971e-19 -2.37344e-19 -0.00364041)
(-7.81195e-19 -2.18103e-19 -0.00359068)
(-7.99225e-19 -1.93582e-19 -0.00353929)
(-8.24913e-19 -1.65449e-19 -0.00348633)
(-8.33479e-19 -1.50256e-19 -0.00343186)
(-7.66171e-19 -1.90227e-19 -0.00337598)
(-6.1947e-19 -2.84985e-19 -0.00331875)
(-5.24658e-19 -3.46199e-19 -0.00326024)
(-5.47737e-19 -3.27273e-19 -0.00320052)
(-5.57102e-19 -3.18368e-19 -0.00313967)
(-5.26231e-19 -3.3632e-19 -0.00307774)
(-5.01161e-19 -3.49147e-19 -0.0030148)
(-5.34261e-19 -3.22384e-19 -0.00295091)
(-5.92727e-19 -2.80782e-19 -0.00288612)
(-6.00719e-19 -2.73111e-19 -0.0028205)
(-6.00643e-19 -2.69529e-19 -0.00275409)
(-6.22837e-19 -2.4701e-19 -0.00268696)
(-6.33368e-19 -2.31293e-19 -0.00261914)
(-6.29471e-19 -2.2463e-19 -0.0025507)
(-5.97555e-19 -2.42098e-19 -0.00248167)
(-5.3543e-19 -2.82894e-19 -0.0024121)
(-4.69436e-19 -3.27295e-19 -0.00234204)
(-4.12672e-19 -3.65649e-19 -0.00227153)
(-3.58209e-19 -4.01756e-19 -0.00220061)
(-3.2166e-19 -4.21926e-19 -0.00212932)
(-3.28565e-19 -4.10419e-19 -0.0020577)
(-3.66088e-19 -3.77629e-19 -0.00198578)
(-4.06662e-19 -3.41679e-19 -0.0019136)
(-4.23581e-19 -3.21112e-19 -0.0018412)
(-4.05371e-19 -3.2408e-19 -0.0017686)
(-3.65061e-19 -3.40491e-19 -0.00169584)
(-3.22087e-19 -3.58054e-19 -0.00162295)
(-3.09628e-19 -3.54796e-19 -0.00154995)
(-3.18243e-19 -3.38539e-19 -0.00147689)
(-3.10689e-19 -3.3389e-19 -0.00140378)
(-2.95911e-19 -3.35801e-19 -0.00133064)
(-2.84467e-19 -3.364e-19 -0.00125751)
(-2.85017e-19 -3.28841e-19 -0.00118442)
(-3.00482e-19 -3.1144e-19 -0.00111137)
(-3.15305e-19 -2.94967e-19 -0.0010384)
(-3.11338e-19 -2.91328e-19 -0.000965518)
(-2.96772e-19 -2.956e-19 -0.000892757)
(-2.93589e-19 -2.92226e-19 -0.000820132)
(-2.95552e-19 -2.8472e-19 -0.000747661)
(-2.81074e-19 -2.86476e-19 -0.000675364)
(-2.54799e-19 -2.93309e-19 -0.000603256)
(-2.32774e-19 -2.92969e-19 -0.000531355)
(-2.14163e-19 -2.83129e-19 -0.000459677)
(-1.99119e-19 -2.61771e-19 -0.000388236)
(-1.81409e-19 -2.30955e-19 -0.000317048)
(-1.52683e-19 -1.92595e-19 -0.000246126)
(-1.09679e-19 -1.45269e-19 -0.000175483)
(-6.06287e-20 -7.91795e-20 -0.000105131)
(-3.31061e-20 -5.03115e-20 -3.50841e-05)
(-4.623e-19 -1.19973e-19 -0.00414823)
(-4.54682e-19 -1.77916e-19 -0.00414767)
(-4.72442e-19 -2.2022e-19 -0.0041471)
(-5.14239e-19 -2.3748e-19 -0.00414654)
(-5.13566e-19 -2.69855e-19 -0.00414596)
(-4.42593e-19 -3.24779e-19 -0.00414539)
(-3.86175e-19 -3.67511e-19 -0.0041448)
(-4.06397e-19 -3.59663e-19 -0.0041442)
(-5.10741e-19 -2.76974e-19 -0.00414358)
(-6.3779e-19 -1.69823e-19 -0.00414296)
(-6.67074e-19 -1.24612e-19 -0.00414233)
(-6.21386e-19 -1.35887e-19 -0.00414169)
(-6.36582e-19 -1.22391e-19 -0.00414106)
(-6.80605e-19 -8.89621e-20 -0.00414044)
(-6.74196e-19 -7.78092e-20 -0.00413985)
(-6.81139e-19 -5.96902e-20 -0.00413929)
(-7.11928e-19 -3.26378e-20 -0.00413875)
(-7.12078e-19 -2.92325e-20 -0.00413824)
(-7.24124e-19 -2.02452e-20 -0.00413772)
(-7.80813e-19 1.5638e-20 -0.00413717)
(-8.18799e-19 4.21692e-20 -0.00413651)
(-8.03569e-19 4.09356e-20 -0.00413567)
(-7.38738e-19 9.53194e-21 -0.00413446)
(-6.17916e-19 -6.00462e-20 -0.0041326)
(-5.13331e-19 -1.1972e-19 -0.00412966)
(-4.83325e-19 -1.31649e-19 -0.00412499)
(-4.67152e-19 -1.34903e-19 -0.00411791)
(-3.81372e-19 -1.79812e-19 -0.0041078)
(-3.07938e-19 -2.17706e-19 -0.00409425)
(-3.69053e-19 -1.77479e-19 -0.00407717)
(-4.4097e-19 -1.35186e-19 -0.00405663)
(-4.03499e-19 -1.6862e-19 -0.00403283)
(-3.21636e-19 -2.30506e-19 -0.00400598)
(-3.07662e-19 -2.48382e-19 -0.00397628)
(-3.02387e-19 -2.66692e-19 -0.00394389)
(-2.24616e-19 -3.32074e-19 -0.00390897)
(-1.33114e-19 -4.00795e-19 -0.00387165)
(-1.37834e-19 -4.03535e-19 -0.00383205)
(-2.13867e-19 -3.62232e-19 -0.00379028)
(-2.66061e-19 -3.40635e-19 -0.00374644)
(-2.64725e-19 -3.55316e-19 -0.00370064)
(-2.66801e-19 -3.65358e-19 -0.00365296)
(-3.04385e-19 -3.48231e-19 -0.0036035)
(-3.26453e-19 -3.38728e-19 -0.00355235)
(-3.31312e-19 -3.40314e-19 -0.00349958)
(-3.57733e-19 -3.23434e-19 -0.00344529)
(-4.17927e-19 -2.83402e-19 -0.00338954)
(-4.75297e-19 -2.50831e-19 -0.00333241)
(-4.88669e-19 -2.54118e-19 -0.00327398)
(-4.6517e-19 -2.77625e-19 -0.00321431)
(-4.52997e-19 -2.90762e-19 -0.00315349)
(-4.60204e-19 -2.94714e-19 -0.00309156)
(-4.7554e-19 -2.96609e-19 -0.00302859)
(-4.98642e-19 -2.92591e-19 -0.00296465)
(-5.06708e-19 -2.9431e-19 -0.00289979)
(-4.80022e-19 -3.19355e-19 -0.00283408)
(-4.4602e-19 -3.49393e-19 -0.00276756)
(-4.41358e-19 -3.56174e-19 -0.00270029)
(-4.35362e-19 -3.61854e-19 -0.00263232)
(-4.4135e-19 -3.6016e-19 -0.00256371)
(-4.67567e-19 -3.45193e-19 -0.00249449)
(-4.59431e-19 -3.50412e-19 -0.00242472)
(-4.26042e-19 -3.74094e-19 -0.00235444)
(-4.01617e-19 -3.9326e-19 -0.0022837)
(-4.00309e-19 -3.98516e-19 -0.00221253)
(-4.10947e-19 -3.96303e-19 -0.00214097)
(-4.1983e-19 -3.92856e-19 -0.00206907)