/*--------------------------------*- C++ -*----------------------------------*\
  =========                 |
  \\      /  F ield         | OpenFOAM: The Open Source CFD Toolbox
   \\    /   O peration     | Website:  https://openfoam.org
    \\  /    A nd           | Version:  7
     \\/     M anipulation  |
\*---------------------------------------------------------------------------*/
FoamFile
{
    version     2.0;
    format      ascii;
    class       volScalarField;
    location    "116000";
    object      p;
}
// * * * * * * * * * * * * * * * * * * * * * * * * * * * * * * * * * * * * * //

dimensions      [0 2 -2 0 0 0 0];

internalField   nonuniform List<scalar> 
4764
(
-2.11523e-18
-2.09439e-18
-2.10632e-18
-2.08085e-18
-2.08447e-18
-2.05871e-18
-2.0735e-18
-2.0987e-18
-2.09317e-18
-2.12714e-18
-2.1213e-18
-2.12869e-18
-2.11645e-18
-2.14588e-18
-2.12794e-18
-2.11663e-18
-2.0977e-18
-2.1005e-18
-2.08647e-18
-2.0777e-18
-2.06211e-18
-2.06776e-18
-2.05555e-18
-2.06071e-18
-2.04224e-18
-2.05504e-18
-2.04815e-18
-2.05461e-18
-2.0372e-18
-2.03788e-18
-2.03279e-18
-2.02368e-18
-2.04088e-18
-2.04307e-18
-2.03561e-18
-2.07047e-18
-2.09044e-18
-2.09318e-18
-2.1212e-18
-2.11556e-18
-2.12736e-18
-2.11005e-18
-2.13532e-18
-2.12742e-18
-2.11704e-18
-2.10284e-18
-2.10865e-18
-2.08514e-18
-2.07682e-18
-2.0662e-18
-2.06367e-18
-2.06248e-18
-2.05851e-18
-2.04428e-18
-2.0544e-18
-2.05502e-18
-2.05516e-18
-2.04054e-18
-2.03966e-18
-2.03386e-18
-2.03091e-18
-2.03626e-18
-2.04338e-18
-2.02955e-18
-2.04127e-18
-2.04108e-18
-2.04382e-18
-2.03644e-18
-2.07097e-18
-2.08804e-18
-2.10044e-18
-2.12363e-18
-2.11511e-18
-2.1398e-18
-2.12515e-18
-2.12661e-18
-2.11918e-18
-2.12196e-18
-2.10533e-18
-2.10941e-18
-2.08467e-18
-2.07935e-18
-2.06672e-18
-2.05961e-18
-2.06263e-18
-2.05653e-18
-2.04696e-18
-2.05393e-18
-2.05843e-18
-2.05148e-18
-2.03909e-18
-2.03702e-18
-2.03934e-18
-2.02333e-18
-2.03389e-18
-2.03624e-18
-2.02422e-18
-2.03886e-18
-2.03986e-18
-2.03762e-18
-2.03995e-18
-2.04145e-18
-2.02547e-18
-2.04873e-18
-2.05047e-18
-2.05887e-18
-2.05697e-18
-2.06625e-18
-2.04732e-18
-2.08137e-18
-2.06044e-18
-2.07111e-18
-2.05549e-18
-2.07064e-18
-2.08038e-18
-2.09229e-18
-2.12329e-18
-2.11087e-18
-2.13203e-18
-2.1278e-18
-2.12693e-18
-2.12293e-18
-2.11398e-18
-2.10635e-18
-2.10735e-18
-2.08058e-18
-2.07647e-18
-2.06493e-18
-2.06537e-18
-2.05851e-18
-2.06349e-18
-2.04489e-18
-2.05351e-18
-2.04981e-18
-2.05015e-18
-2.03304e-18
-2.03874e-18
-2.03621e-18
-2.01979e-18
-2.0339e-18
-2.03715e-18
-2.0372e-18
-2.03232e-18
-2.04638e-18
-2.03798e-18
-2.04014e-18
-2.03773e-18
-2.03447e-18
-2.04847e-18
-2.04404e-18
-2.06286e-18
-2.06062e-18
-2.06973e-18
-2.05052e-18
-2.07554e-18
-2.05705e-18
-2.05659e-18
-2.05776e-18
-2.06753e-18
-2.08132e-18
-2.08504e-18
-2.11616e-18
-2.1201e-18
-2.12372e-18
-2.12066e-18
-2.13486e-18
-2.12348e-18
-2.12125e-18
-2.11371e-18
-2.10146e-18
-2.07942e-18
-2.07157e-18
-2.06078e-18
-2.06355e-18
-2.06079e-18
-2.06421e-18
-2.04783e-18
-2.05438e-18
-2.0467e-18
-2.04803e-18
-2.03868e-18
-2.04602e-18
-2.03445e-18
-2.02231e-18
-2.03843e-18
-2.03591e-18
-2.03597e-18
-2.03313e-18
-2.03912e-18
-2.0414e-18
-2.03175e-18
-2.04269e-18
-2.04306e-18
-2.04634e-18
-2.04483e-18
-2.06818e-18
-2.05235e-18
-2.07679e-18
-2.05616e-18
-2.07672e-18
-2.04502e-18
-2.06534e-18
-2.057e-18
-2.08044e-18
-2.09396e-18
-2.09431e-18
-2.13483e-18
-2.12606e-18
-2.13259e-18
-2.12185e-18
-2.13139e-18
-2.12176e-18
-2.12744e-18
-2.11144e-18
-2.10651e-18
-2.08342e-18
-2.08075e-18
-2.05754e-18
-2.06077e-18
-2.05971e-18
-2.06201e-18
-2.05035e-18
-2.05763e-18
-2.04777e-18
-2.04395e-18
-2.03643e-18
-2.03629e-18
-2.03593e-18
-2.03076e-18
-2.03676e-18
-2.03785e-18
-2.03372e-18
-2.03485e-18
-2.03307e-18
-2.03643e-18
-2.03485e-18
-2.0435e-18
-2.03771e-18
-2.04218e-18
-2.02519e-18
-2.05194e-18
-2.0457e-18
-2.06458e-18
-2.05488e-18
-2.07758e-18
-2.05626e-18
-2.07026e-18
-2.06442e-18
-2.08425e-18
-2.09216e-18
-2.09252e-18
-2.12593e-18
-2.11297e-18
-2.12593e-18
-2.12692e-18
-2.12827e-18
-2.11562e-18
-2.12547e-18
-2.11326e-18
-2.1044e-18
-2.08387e-18
-2.08484e-18
-2.05605e-18
-2.06445e-18
-2.06178e-18
-2.06006e-18
-2.05253e-18
-2.05685e-18
-2.0498e-18
-2.04529e-18
-2.0362e-18
-2.03306e-18
-2.03745e-18
-2.03044e-18
-2.03305e-18
-2.03667e-18
-2.04091e-18
-2.02921e-18
-2.03438e-18
-2.03265e-18
-2.03775e-18
-2.03717e-18
-2.03646e-18
-2.04881e-18
-2.03531e-18
-2.05506e-18
-2.04808e-18
-2.05913e-18
-2.05112e-18
-2.07292e-18
-2.05769e-18
-2.07435e-18
-2.06717e-18
-2.06916e-18
-2.08643e-18
-2.08825e-18
-2.12397e-18
-2.11717e-18
-2.1319e-18
-2.12883e-18
-2.12852e-18
-2.11028e-18
-2.1249e-18
-2.11188e-18
-2.1077e-18
-2.07879e-18
-2.08828e-18
-2.05923e-18
-2.06722e-18
-2.05647e-18
-2.06137e-18
-2.04925e-18
-2.05416e-18
-2.04546e-18
-2.05086e-18
-2.03902e-18
-2.02869e-18
-2.03598e-18
-2.02684e-18
-2.03042e-18
-2.03862e-18
-2.03887e-18
-2.03793e-18
-2.03474e-18
-2.03918e-18
-2.03861e-18
-2.03816e-18
-2.04018e-18
-2.04649e-18
-2.04379e-18
-2.06258e-18
-2.0512e-18
-2.07027e-18
-2.05409e-18
-2.07084e-18
-2.0567e-18
-2.08523e-18
-2.0644e-18
-2.06464e-18
-2.087e-18
-2.09064e-18
-2.12363e-18
-2.12304e-18
-2.12892e-18
-2.12153e-18
-2.13514e-18
-2.11988e-18
-2.1227e-18
-2.11759e-18
-2.11337e-18
-2.07527e-18
-2.08608e-18
-2.06079e-18
-2.06404e-18
-2.05101e-18
-2.05878e-18
-2.04783e-18
-2.05273e-18
-2.04097e-18
-2.04834e-18
-2.03867e-18
-2.03547e-18
-2.03683e-18
-2.02411e-18
-2.03392e-18
-2.03962e-18
-2.0307e-18
-2.04144e-18
-2.03702e-18
-2.04159e-18
-2.03435e-18
-2.04825e-18
-2.0316e-18
-2.04837e-18
-2.03873e-18
-2.06235e-18
-2.05488e-18
-2.07571e-18
-2.05457e-18
-2.07117e-18
-2.05867e-18
-2.08864e-18
-2.05562e-18
-2.06735e-18
-2.09376e-18
-2.09064e-18
-2.11977e-18
-2.11378e-18
-2.11717e-18
-2.12308e-18
-2.13503e-18
-2.1281e-18
-2.12368e-18
-2.11309e-18
-2.11236e-18
-2.08023e-18
-2.08848e-18
-2.05685e-18
-2.06215e-18
-2.05041e-18
-2.05955e-18
-2.04619e-18
-2.05157e-18
-2.04237e-18
-2.04711e-18
-2.03517e-18
-2.04106e-18
-2.03583e-18
-2.02617e-18
-2.03134e-18
-2.03776e-18
-2.03147e-18
-2.0451e-18
-2.03611e-18
-2.03909e-18
-2.03086e-18
-2.04356e-18
-2.0487e-18
-2.05256e-18
-2.04027e-18
-2.05559e-18
-2.05319e-18
-2.07519e-18
-2.04472e-18
-2.07336e-18
-2.06446e-18
-2.07763e-18
-2.0535e-18
-2.07268e-18
-2.08958e-18
-2.09513e-18
-2.12134e-18
-2.11339e-18
-2.12627e-18
-2.12354e-18
-2.13221e-18
-2.12922e-18
-2.12373e-18
-2.11252e-18
-2.10282e-18
-2.08658e-18
-2.08539e-18
-2.06246e-18
-2.05853e-18
-2.04753e-18
-2.06163e-18
-2.05135e-18
-2.04961e-18
-2.04053e-18
-2.04612e-18
-2.03848e-18
-2.0407e-18
-2.0369e-18
-2.02699e-18
-2.02776e-18
-2.0341e-18
-2.03595e-18
-2.03506e-18
-2.03604e-18
-2.02684e-18
-2.03209e-18
-2.03706e-18
-2.0419e-18
-2.05002e-18
-2.04239e-18
-2.05159e-18
-2.04635e-18
-2.06414e-18
-2.04932e-18
-2.07065e-18
-2.05494e-18
-2.07251e-18
-2.05461e-18
-2.07257e-18
-2.0885e-18
-2.0916e-18
-2.11897e-18
-2.11276e-18
-2.12183e-18
-2.12971e-18
-2.12764e-18
-2.12351e-18
-2.12779e-18
-2.11195e-18
-2.10237e-18
-2.08968e-18
-2.08461e-18
-2.06084e-18
-2.05703e-18
-2.05028e-18
-2.05708e-18
-2.04938e-18
-2.05075e-18
-2.04248e-18
-2.04829e-18
-2.0426e-18
-2.03942e-18
-2.0321e-18
-2.02765e-18
-2.0281e-18
-2.03744e-18
-2.0335e-18
-2.03593e-18
-2.03315e-18
-2.03023e-18
-2.03818e-18
-2.03163e-18
-2.04293e-18
-2.04964e-18
-2.03848e-18
-2.0565e-18
-2.04894e-18
-2.06564e-18
-2.05105e-18
-2.0703e-18
-2.05087e-18
-2.0698e-18
-2.05653e-18
-2.07695e-18
-2.0658e-18
-2.09186e-18
-2.08784e-18
-2.11322e-18
-2.11005e-18
-2.11892e-18
-2.1292e-18
-2.13665e-18
-2.12261e-18
-2.12916e-18
-2.11421e-18
-2.10584e-18
-2.08488e-18
-2.08701e-18
-2.0541e-18
-2.06046e-18
-2.05087e-18
-2.05571e-18
-2.04732e-18
-2.05004e-18
-2.04812e-18
-2.05155e-18
-2.04077e-18
-2.03919e-18
-2.03414e-18
-2.03406e-18
-2.03318e-18
-2.04672e-18
-2.03197e-18
-2.03201e-18
-2.03417e-18
-2.03247e-18
-2.0328e-18
-2.03373e-18
-2.04256e-18
-2.05043e-18
-2.0419e-18
-2.06307e-18
-2.04504e-18
-2.07032e-18
-2.04671e-18
-2.07274e-18
-2.05296e-18
-2.07215e-18
-2.05371e-18
-2.07339e-18
-2.0722e-18
-2.08524e-18
-2.09738e-18
-2.12059e-18
-2.11289e-18
-2.12738e-18
-2.11879e-18
-2.13156e-18
-2.12433e-18
-2.1222e-18
-2.1135e-18
-2.1056e-18
-2.08656e-18
-2.08598e-18
-2.05754e-18
-2.06693e-18
-2.04935e-18
-2.06318e-18
-2.04515e-18
-2.04843e-18
-2.04686e-18
-2.04339e-18
-2.03403e-18
-2.03899e-18
-2.03224e-18
-2.02983e-18
-2.03703e-18
-2.04185e-18
-2.03983e-18
-2.02621e-18
-2.03807e-18
-2.02894e-18
-2.03698e-18
-2.04469e-18
-2.03748e-18
-2.04199e-18
-2.03835e-18
-2.05875e-18
-2.0491e-18
-2.06151e-18
-2.05117e-18
-2.07289e-18
-2.06152e-18
-2.07393e-18
-2.0604e-18
-2.06993e-18
-2.07332e-18
-2.0884e-18
-2.0919e-18
-2.11663e-18
-2.11452e-18
-2.12808e-18
-2.11903e-18
-2.13847e-18
-2.118e-18
-2.12247e-18
-2.11374e-18
-2.11022e-18
-2.08423e-18
-2.08625e-18
-2.05952e-18
-2.06607e-18
-2.05125e-18
-2.05671e-18
-2.04748e-18
-2.05354e-18
-2.05229e-18
-2.04584e-18
-2.03668e-18
-2.04083e-18
-2.0322e-18
-2.03027e-18
-2.03613e-18
-2.04279e-18
-2.03641e-18
-2.02912e-18
-2.03465e-18
-2.02853e-18
-2.03221e-18
-2.04353e-18
-2.04024e-18
-2.03979e-18
-2.04291e-18
-2.05852e-18
-2.04826e-18
-2.06089e-18
-2.0598e-18
-2.07793e-18
-2.05927e-18
-2.0823e-18
-2.0561e-18
-2.06314e-18
-2.0724e-18
-2.07295e-18
-2.08892e-18
-2.09173e-18
-2.11531e-18
-2.10636e-18
-2.13591e-18
-2.12125e-18
-2.13699e-18
-2.12027e-18
-2.12335e-18
-2.11207e-18
-2.10946e-18
-2.08486e-18
-2.08872e-18
-2.05828e-18
-2.06361e-18
-2.05382e-18
-2.05239e-18
-2.0468e-18
-2.05399e-18
-2.05301e-18
-2.04642e-18
-2.03726e-18
-2.03998e-18
-2.03861e-18
-2.03526e-18
-2.02918e-18
-2.04247e-18
-2.03443e-18
-2.03461e-18
-2.03696e-18
-2.02847e-18
-2.03111e-18
-2.03933e-18
-2.03559e-18
-2.05039e-18
-2.04179e-18
-2.05494e-18
-2.04855e-18
-2.06132e-18
-2.0573e-18
-2.0734e-18
-2.06111e-18
-2.07899e-18
-2.05303e-18
-2.07381e-18
-2.07448e-18
-2.07288e-18
-2.09316e-18
-2.08957e-18
-2.11751e-18
-2.10197e-18
-2.12693e-18
-2.12266e-18
-2.13135e-18
-2.12092e-18
-2.1212e-18
-2.11673e-18
-2.11033e-18
-2.08928e-18
-2.08833e-18
-2.05619e-18
-2.06182e-18
-2.0558e-18
-2.05784e-18
-2.04735e-18
-2.0559e-18
-2.04826e-18
-2.04839e-18
-2.03631e-18
-2.0401e-18
-2.03666e-18
-2.03975e-18
-2.02714e-18
-2.0401e-18
-2.03468e-18
-2.03497e-18
-2.03844e-18
-2.03284e-18
-2.0354e-18
-2.04076e-18
-2.0412e-18
-2.05386e-18
-2.03955e-18
-2.05251e-18
-2.04328e-18
-2.06103e-18
-2.04486e-18
-2.06128e-18
-2.05779e-18
-2.07923e-18
-2.05508e-18
-2.08011e-18
-2.07987e-18
-2.07789e-18
-2.07392e-18
-2.09186e-18
-2.08492e-18
-2.11437e-18
-2.10611e-18
-2.12909e-18
-2.11768e-18
-2.13047e-18
-2.11877e-18
-2.12048e-18
-2.1173e-18
-2.10415e-18
-2.09072e-18
-2.08513e-18
-2.05825e-18
-2.05837e-18
-2.06175e-18
-2.06289e-18
-2.04996e-18
-2.05433e-18
-2.04531e-18
-2.04684e-18
-2.03973e-18
-2.03758e-18
-2.03692e-18
-2.03573e-18
-2.03299e-18
-2.04157e-18
-2.03935e-18
-2.03213e-18
-2.03639e-18
-2.03615e-18
-2.03781e-18
-2.04622e-18
-2.03458e-18
-2.05135e-18
-2.03662e-18
-2.05519e-18
-2.04222e-18
-2.05932e-18
-2.04756e-18
-2.05433e-18
-2.06124e-18
-2.07603e-18
-2.06684e-18
-2.07182e-18
-2.06827e-18
-2.07955e-18
-2.07646e-18
-2.09559e-18
-2.09477e-18
-2.11383e-18
-2.10638e-18
-2.12981e-18
-2.12132e-18
-2.13956e-18
-2.11872e-18
-2.12381e-18
-2.11398e-18
-2.10606e-18
-2.09072e-18
-2.08532e-18
-2.0591e-18
-2.05941e-18
-2.05736e-18
-2.05908e-18
-2.05368e-18
-2.05561e-18
-2.04809e-18
-2.04539e-18
-2.04348e-18
-2.03998e-18
-2.04031e-18
-2.03268e-18
-2.03462e-18
-2.03913e-18
-2.04001e-18
-2.03409e-18
-2.03663e-18
-2.03674e-18
-2.03306e-18
-2.04214e-18
-2.03653e-18
-2.04482e-18
-2.03908e-18
-2.05206e-18
-2.03741e-18
-2.05533e-18
-2.04963e-18
-2.06893e-18
-2.06712e-18
-2.07266e-18
-2.06234e-18
-2.07292e-18
-2.06474e-18
-2.07876e-18
-2.07409e-18
-2.09477e-18
-2.08803e-18
-2.11658e-18
-2.10895e-18
-2.12652e-18
-2.12855e-18
-2.13719e-18
-2.11972e-18
-2.12943e-18
-2.112e-18
-2.10671e-18
-2.09018e-18
-2.08792e-18
-2.05615e-18
-2.06397e-18
-2.05519e-18
-2.05717e-18
-2.05198e-18
-2.05829e-18
-2.04945e-18
-2.04307e-18
-2.04279e-18
-2.04099e-18
-2.038e-18
-2.03133e-18
-2.03268e-18
-2.03894e-18
-2.04116e-18
-2.03637e-18
-2.03515e-18
-2.03518e-18
-2.03563e-18
-2.03998e-18
-2.04004e-18
-2.04067e-18
-2.04046e-18
-2.06293e-18
-2.04048e-18
-2.05502e-18
-2.04933e-18
-2.06788e-18
-2.06861e-18
-2.07283e-18
-2.05668e-18
-2.07445e-18
-2.05816e-18
-2.07857e-18
-2.07531e-18
-2.09002e-18
-2.09245e-18
-2.11708e-18
-2.10319e-18
-2.12896e-18
-2.1275e-18
-2.12827e-18
-2.11874e-18
-2.13051e-18
-2.11337e-18
-2.11005e-18
-2.08952e-18
-2.08517e-18
-2.05804e-18
-2.06431e-18
-2.05642e-18
-2.05796e-18
-2.05106e-18
-2.05544e-18
-2.04947e-18
-2.04636e-18
-2.04298e-18
-2.04155e-18
-2.03706e-18
-2.03554e-18
-2.03244e-18
-2.04139e-18
-2.04064e-18
-2.03513e-18
-2.03195e-18
-2.03278e-18
-2.04239e-18
-2.03918e-18
-2.03584e-18
-2.05142e-18
-2.04034e-18
-2.05929e-18
-2.04441e-18
-2.05615e-18
-2.04883e-18
-2.07406e-18
-2.06343e-18
-2.07027e-18
-2.05518e-18
-2.06545e-18
-2.05669e-18
-2.07653e-18
-2.08047e-18
-2.09661e-18
-2.09785e-18
-2.11544e-18
-2.10175e-18
-2.1358e-18
-2.1231e-18
-2.12591e-18
-2.12012e-18
-2.13523e-18
-2.11503e-18
-2.11096e-18
-2.09083e-18
-2.08267e-18
-2.06427e-18
-2.06435e-18
-2.05754e-18
-2.0584e-18
-2.05046e-18
-2.05871e-18
-2.04945e-18
-2.04831e-18
-2.04528e-18
-2.04255e-18
-2.03866e-18
-2.03245e-18
-2.0372e-18
-2.04048e-18
-2.03931e-18
-2.03515e-18
-2.02749e-18
-2.03033e-18
-2.04622e-18
-2.04091e-18
-2.03362e-18
-2.05182e-18
-2.04036e-18
-2.05975e-18
-2.03813e-18
-2.05166e-18
-2.05052e-18
-2.0735e-18
-2.06551e-18
-2.07689e-18
-2.06698e-18
-2.06468e-18
-2.05702e-18
-2.06668e-18
-2.07103e-18
-2.07775e-18
-2.09388e-18
-2.09161e-18
-2.11041e-18
-2.10445e-18
-2.12442e-18
-2.11451e-18
-2.13568e-18
-2.11298e-18
-2.12815e-18
-2.11401e-18
-2.10826e-18
-2.09076e-18
-2.08325e-18
-2.06352e-18
-2.0653e-18
-2.06025e-18
-2.05765e-18
-2.0493e-18
-2.05747e-18
-2.04977e-18
-2.04815e-18
-2.04417e-18
-2.04228e-18
-2.04193e-18
-2.036e-18
-2.03811e-18
-2.04256e-18
-2.03929e-18
-2.03979e-18
-2.0359e-18
-2.04025e-18
-2.03402e-18
-2.04799e-18
-2.04603e-18
-2.04918e-18
-2.04135e-18
-2.05402e-18
-2.04142e-18
-2.05466e-18
-2.05562e-18
-2.06556e-18
-2.07464e-18
-2.07678e-18
-2.05992e-18
-2.06966e-18
-2.06145e-18
-2.06752e-18
-2.07181e-18
-2.07356e-18
-2.07899e-18
-2.09054e-18
-2.09051e-18
-2.1085e-18
-2.10527e-18
-2.13011e-18
-2.11758e-18
-2.13916e-18
-2.12115e-18
-2.12431e-18
-2.11294e-18
-2.10488e-18
-2.09266e-18
-2.08352e-18
-2.063e-18
-2.06713e-18
-2.05587e-18
-2.05738e-18
-2.05298e-18
-2.05805e-18
-2.05003e-18
-2.04883e-18
-2.04513e-18
-2.04696e-18
-2.03941e-18
-2.04067e-18
-2.03776e-18
-2.04055e-18
-2.04128e-18
-2.04193e-18
-2.0355e-18
-2.0403e-18
-2.02876e-18
-2.05021e-18
-2.04239e-18
-2.04991e-18
-2.04133e-18
-2.04979e-18
-2.04444e-18
-2.05732e-18
-2.05182e-18
-2.06171e-18
-2.06514e-18
-2.07799e-18
-2.05723e-18
-2.06911e-18
-2.06859e-18
-2.07398e-18
-2.07027e-18
-2.07916e-18
-2.07193e-18
-2.08145e-18
-2.08692e-18
-2.11433e-18
-2.10505e-18
-2.12165e-18
-2.11912e-18
-2.1325e-18
-2.12419e-18
-2.12952e-18
-2.11065e-18
-2.10119e-18
-2.09208e-18
-2.08633e-18
-2.06309e-18
-2.06907e-18
-2.05715e-18
-2.06205e-18
-2.05406e-18
-2.06078e-18
-2.05021e-18
-2.04911e-18
-2.04357e-18
-2.04798e-18
-2.03929e-18
-2.04001e-18
-2.03451e-18
-2.04427e-18
-2.04283e-18
-2.04449e-18
-2.03219e-18
-2.04169e-18
-2.03414e-18
-2.04904e-18
-2.04067e-18
-2.04718e-18
-2.03444e-18
-2.04614e-18
-2.0453e-18
-2.06557e-18
-2.04365e-18
-2.06616e-18
-2.05922e-18
-2.07519e-18
-2.05338e-18
-2.06636e-18
-2.06948e-18
-2.07241e-18
-2.06061e-18
-2.08133e-18
-2.07298e-18
-2.08844e-18
-2.08478e-18
-2.11061e-18
-2.1062e-18
-2.11938e-18
-2.11854e-18
-2.13362e-18
-2.12667e-18
-2.12931e-18
-2.10872e-18
-2.11031e-18
-2.0855e-18
-2.08445e-18
-2.06332e-18
-2.06793e-18
-2.05826e-18
-2.06235e-18
-2.0538e-18
-2.05839e-18
-2.05031e-18
-2.04902e-18
-2.04314e-18
-2.04469e-18
-2.03908e-18
-2.04061e-18
-2.03837e-18
-2.04682e-18
-2.03437e-18
-2.04594e-18
-2.02994e-18
-2.03488e-18
-2.03727e-18
-2.0465e-18
-2.03925e-18
-2.04425e-18
-2.03799e-18
-2.05276e-18
-2.04018e-18
-2.05857e-18
-2.04335e-18
-2.06654e-18
-2.06391e-18
-2.06928e-18
-2.05292e-18
-2.06565e-18
-2.06289e-18
-2.0676e-18
-2.06143e-18
-2.07611e-18
-2.07573e-18
-2.09469e-18
-2.0901e-18
-2.10873e-18
-2.10913e-18
-2.12538e-18
-2.11785e-18
-2.13142e-18
-2.12049e-18
-2.13163e-18
-2.10977e-18
-2.10892e-18
-2.08942e-18
-2.08709e-18
-2.06728e-18
-2.07047e-18
-2.05963e-18
-2.06394e-18
-2.0554e-18
-2.05733e-18
-2.05075e-18
-2.04937e-18
-2.04266e-18
-2.04269e-18
-2.03645e-18
-2.03847e-18
-2.03971e-18
-2.04714e-18
-2.03995e-18
-2.04328e-18
-2.03223e-18
-2.03833e-18
-2.03757e-18
-2.04762e-18
-2.04084e-18
-2.04068e-18
-2.04171e-18
-2.05259e-18
-2.03833e-18
-2.05535e-18
-2.04771e-18
-2.06786e-18
-2.06358e-18
-2.07522e-18
-2.0621e-18
-2.06287e-18
-2.05966e-18
-2.07068e-18
-2.0721e-18
-2.07518e-18
-2.07494e-18
-2.09427e-18
-2.09141e-18
-2.10664e-18
-2.10584e-18
-2.1269e-18
-2.11702e-18
-2.13631e-18
-2.12074e-18
-2.13303e-18
-2.11488e-18
-2.10577e-18
-2.09238e-18
-2.08674e-18
-2.06905e-18
-2.07232e-18
-2.0597e-18
-2.06289e-18
-2.0569e-18
-2.05829e-18
-2.05113e-18
-2.04974e-18
-2.04019e-18
-2.04076e-18
-2.03495e-18
-2.03752e-18
-2.04137e-18
-2.0414e-18
-2.04536e-18
-2.0404e-18
-2.0378e-18
-2.03871e-18
-2.03434e-18
-2.04541e-18
-2.04844e-18
-2.0436e-18
-2.04152e-18
-2.05223e-18
-2.03628e-18
-2.05385e-18
-2.04621e-18
-2.05932e-18
-2.05837e-18
-2.07133e-18
-2.06159e-18
-2.07386e-18
-2.05713e-18
-2.06796e-18
-2.07056e-18
-2.07247e-18
-2.07696e-18
-2.08591e-18
-2.09073e-18
-2.1125e-18
-2.11063e-18
-2.12078e-18
-2.11561e-18
-2.13839e-18
-2.11665e-18
-2.13389e-18
-2.11567e-18
-2.10537e-18
-2.08992e-18
-2.08725e-18
-2.06721e-18
-2.07083e-18
-2.06078e-18
-2.06155e-18
-2.05601e-18
-2.06083e-18
-2.0526e-18
-2.05017e-18
-2.04264e-18
-2.04387e-18
-2.03608e-18
-2.04001e-18
-2.03846e-18
-2.04179e-18
-2.04051e-18
-2.0398e-18
-2.03419e-18
-2.04401e-18
-2.03743e-18
-2.04629e-18
-2.05297e-18
-2.03789e-18
-2.03419e-18
-2.05096e-18
-2.04877e-18
-2.05733e-18
-2.05118e-18
-2.06085e-18
-2.06004e-18
-2.07342e-18
-2.04853e-18
-2.06554e-18
-2.05661e-18
-2.05999e-18
-2.0687e-18
-2.07482e-18
-2.07244e-18
-2.09113e-18
-2.08849e-18
-2.10237e-18
-2.10282e-18
-2.12112e-18
-2.11403e-18
-2.13485e-18
-2.12307e-18
-2.12943e-18
-2.11045e-18
-2.10688e-18
-2.08628e-18
-2.08901e-18
-2.06784e-18
-2.06834e-18
-2.06402e-18
-2.06065e-18
-2.05544e-18
-2.0593e-18
-2.05513e-18
-2.05101e-18
-2.04272e-18
-2.04437e-18
-2.03821e-18
-2.04249e-18
-2.03594e-18
-2.04407e-18
-2.03871e-18
-2.04335e-18
-2.03275e-18
-2.0386e-18
-2.0459e-18
-2.04791e-18
-2.04583e-18
-2.04574e-18
-2.04362e-18
-2.05056e-18
-2.0436e-18
-2.05904e-18
-2.04769e-18
-2.06029e-18
-2.06444e-18
-2.07358e-18
-2.05647e-18
-2.05822e-18
-2.05357e-18
-2.05879e-18
-2.06407e-18
-2.07296e-18
-2.06006e-18
-2.09427e-18
-2.08869e-18
-2.0961e-18
-2.10403e-18
-2.11659e-18
-2.11446e-18
-2.13632e-18
-2.12345e-18
-2.12815e-18
-2.11069e-18
-2.10629e-18
-2.08915e-18
-2.08944e-18
-2.06904e-18
-2.06778e-18
-2.0613e-18
-2.06606e-18
-2.05592e-18
-2.06006e-18
-2.05281e-18
-2.05075e-18
-2.04051e-18
-2.04602e-18
-2.04429e-18
-2.04501e-18
-2.03886e-18
-2.04421e-18
-2.0431e-18
-2.04438e-18
-2.0356e-18
-2.0391e-18
-2.03792e-18
-2.04047e-18
-2.04818e-18
-2.04698e-18
-2.05032e-18
-2.05134e-18
-2.03587e-18
-2.06799e-18
-2.04623e-18
-2.06331e-18
-2.06524e-18
-2.0753e-18
-2.06387e-18
-2.06266e-18
-2.06354e-18
-2.06966e-18
-2.06953e-18
-2.07024e-18
-2.06849e-18
-2.09447e-18
-2.08915e-18
-2.09981e-18
-2.11119e-18
-2.11897e-18
-2.10975e-18
-2.13623e-18
-2.11904e-18
-2.1249e-18
-2.11228e-18
-2.10509e-18
-2.0904e-18
-2.08966e-18
-2.07225e-18
-2.06835e-18
-2.05819e-18
-2.06604e-18
-2.05737e-18
-2.05799e-18
-2.05158e-18
-2.05055e-18
-2.04293e-18
-2.05059e-18
-2.04336e-18
-2.04102e-18
-2.0402e-18
-2.04438e-18
-2.04451e-18
-2.0415e-18
-2.03831e-18
-2.04498e-18
-2.03541e-18
-2.04451e-18
-2.04522e-18
-2.03899e-18
-2.04564e-18
-2.05221e-18
-2.03671e-18
-2.05936e-18
-2.04628e-18
-2.0598e-18
-2.05634e-18
-2.06891e-18
-2.05856e-18
-2.06373e-18
-2.06321e-18
-2.07327e-18
-2.07455e-18
-2.07201e-18
-2.07183e-18
-2.09108e-18
-2.09296e-18
-2.1076e-18
-2.10888e-18
-2.11411e-18
-2.11816e-18
-2.13467e-18
-2.12581e-18
-2.12747e-18
-2.10816e-18
-2.10926e-18
-2.09295e-18
-2.08963e-18
-2.06892e-18
-2.06576e-18
-2.06213e-18
-2.06436e-18
-2.05945e-18
-2.05708e-18
-2.05176e-18
-2.05075e-18
-2.04663e-18
-2.04877e-18
-2.04418e-18
-2.04384e-18
-2.03687e-18
-2.0414e-18
-2.04344e-18
-2.04398e-18
-2.03561e-18
-2.04068e-18
-2.03806e-18
-2.04469e-18
-2.04829e-18
-2.0366e-18
-2.03689e-18
-2.04907e-18
-2.04108e-18
-2.05829e-18
-2.04856e-18
-2.05578e-18
-2.05224e-18
-2.06916e-18
-2.05538e-18
-2.06323e-18
-2.06052e-18
-2.06726e-18
-2.06618e-18
-2.07641e-18
-2.07365e-18
-2.08449e-18
-2.08952e-18
-2.10583e-18
-2.10557e-18
-2.11996e-18
-2.11572e-18
-2.13813e-18
-2.1255e-18
-2.12771e-18
-2.10711e-18
-2.10897e-18
-2.09259e-18
-2.08832e-18
-2.06693e-18
-2.06636e-18
-2.06176e-18
-2.06205e-18
-2.05727e-18
-2.05724e-18
-2.05435e-18
-2.05096e-18
-2.04532e-18
-2.04562e-18
-2.04112e-18
-2.04525e-18
-2.03597e-18
-2.03987e-18
-2.04239e-18
-2.04091e-18
-2.0353e-18
-2.04202e-18
-2.0382e-18
-2.04111e-18
-2.04284e-18
-2.041e-18
-2.03978e-18
-2.05287e-18
-2.04825e-18
-2.05538e-18
-2.04802e-18
-2.06155e-18
-2.05671e-18
-2.06991e-18
-2.05621e-18
-2.06284e-18
-2.05977e-18
-2.06987e-18
-2.06575e-18
-2.07949e-18
-2.07206e-18
-2.09097e-18
-2.08574e-18
-2.10119e-18
-2.10022e-18
-2.12011e-18
-2.11147e-18
-2.1404e-18
-2.12103e-18
-2.123e-18
-2.10934e-18
-2.10915e-18
-2.08977e-18
-2.08886e-18
-2.0717e-18
-2.07042e-18
-2.06583e-18
-2.06567e-18
-2.05682e-18
-2.05708e-18
-2.05346e-18
-2.05016e-18
-2.04536e-18
-2.04463e-18
-2.04011e-18
-2.04433e-18
-2.03704e-18
-2.0435e-18
-2.04071e-18
-2.04167e-18
-2.03831e-18
-2.04408e-18
-2.03627e-18
-2.04501e-18
-2.0412e-18
-2.04833e-18
-2.04253e-18
-2.05771e-18
-2.04529e-18
-2.05558e-18
-2.04409e-18
-2.06079e-18
-2.05807e-18
-2.06982e-18
-2.0551e-18
-2.06256e-18
-2.05961e-18
-2.06803e-18
-2.07133e-18
-2.07813e-18
-2.07392e-18
-2.08773e-18
-2.09432e-18
-2.09804e-18
-2.09552e-18
-2.11911e-18
-2.11171e-18
-2.1333e-18
-2.11818e-18
-2.12448e-18
-2.11179e-18
-2.10341e-18
-2.09125e-18
-2.08311e-18
-2.07461e-18
-2.07341e-18
-2.06475e-18
-2.06893e-18
-2.05699e-18
-2.05695e-18
-2.0536e-18
-2.05106e-18
-2.04571e-18
-2.04535e-18
-2.0431e-18
-2.04584e-18
-2.04271e-18
-2.04142e-18
-2.04372e-18
-2.04445e-18
-2.03854e-18
-2.04119e-18
-2.03692e-18
-2.0466e-18
-2.04249e-18
-2.05132e-18
-2.0438e-18
-2.04794e-18
-2.04551e-18
-2.05298e-18
-2.04652e-18
-2.05438e-18
-2.05998e-18
-2.06987e-18
-2.05939e-18
-2.06143e-18
-2.0597e-18
-2.07033e-18
-2.06546e-18
-2.07591e-18
-2.07438e-18
-2.08651e-18
-2.09315e-18
-2.09788e-18
-2.1001e-18
-2.11896e-18
-2.1108e-18
-2.13566e-18
-2.11984e-18
-2.12638e-18
-2.11088e-18
-2.10043e-18
-2.08939e-18
-2.08309e-18
-2.07643e-18
-2.0711e-18
-2.06427e-18
-2.07025e-18
-2.05543e-18
-2.05683e-18
-2.05007e-18
-2.05196e-18
-2.04172e-18
-2.04574e-18
-2.04402e-18
-2.04472e-18
-2.0443e-18
-2.04561e-18
-2.04636e-18
-2.04656e-18
-2.03675e-18
-2.04166e-18
-2.03617e-18
-2.04596e-18
-2.0411e-18
-2.04565e-18
-2.04113e-18
-2.04575e-18
-2.04535e-18
-2.05115e-18
-2.04756e-18
-2.05942e-18
-2.05462e-18
-2.07035e-18
-2.06302e-18
-2.05947e-18
-2.06095e-18
-2.06715e-18
-2.06487e-18
-2.0769e-18
-2.07228e-18
-2.08503e-18
-2.09202e-18
-2.09616e-18
-2.10483e-18
-2.11896e-18
-2.11101e-18
-2.13342e-18
-2.11974e-18
-2.12355e-18
-2.11029e-18
-2.10622e-18
-2.0898e-18
-2.08436e-18
-2.07658e-18
-2.06982e-18
-2.0647e-18
-2.06841e-18
-2.05737e-18
-2.05775e-18
-2.04949e-18
-2.04966e-18
-2.04421e-18
-2.04615e-18
-2.04588e-18
-2.04718e-18
-2.04262e-18
-2.0439e-18
-2.04249e-18
-2.04289e-18
-2.03844e-18
-2.0409e-18
-2.03823e-18
-2.0451e-18
-2.04285e-18
-2.03919e-18
-2.04223e-18
-2.05147e-18
-2.04547e-18
-2.05562e-18
-2.04417e-18
-2.06045e-18
-2.05878e-18
-2.07063e-18
-2.06331e-18
-2.05578e-18
-2.05616e-18
-2.06978e-18
-2.07238e-18
-2.07704e-18
-2.07196e-18
-2.08759e-18
-2.08971e-18
-2.10064e-18
-2.10138e-18
-2.11411e-18
-2.10824e-18
-2.13237e-18
-2.11797e-18
-2.1212e-18
-2.11156e-18
-2.1066e-18
-2.0952e-18
-2.08752e-18
-2.07451e-18
-2.07428e-18
-2.06603e-18
-2.06861e-18
-2.05953e-18
-2.05965e-18
-2.05334e-18
-2.05222e-18
-2.04789e-18
-2.04593e-18
-2.04419e-18
-2.04931e-18
-2.04125e-18
-2.03655e-18
-2.0428e-18
-2.04247e-18
-2.03974e-18
-2.043e-18
-2.0405e-18
-2.04774e-18
-2.04862e-18
-2.03933e-18
-2.03957e-18
-2.05469e-18
-2.04305e-18
-2.05615e-18
-2.04404e-18
-2.05278e-18
-2.05468e-18
-2.07339e-18
-2.06276e-18
-2.06063e-18
-2.05963e-18
-2.06711e-18
-2.07233e-18
-2.07783e-18
-2.07424e-18
-2.08837e-18
-2.08981e-18
-2.09751e-18
-2.09672e-18
-2.11708e-18
-2.10965e-18
-2.12879e-18
-2.11862e-18
-2.12391e-18
-2.11464e-18
-2.10546e-18
-2.09397e-18
-2.08816e-18
-2.07085e-18
-2.07372e-18
-2.06633e-18
-2.06731e-18
-2.0616e-18
-2.0581e-18
-2.0527e-18
-2.05193e-18
-2.04585e-18
-2.04665e-18
-2.04468e-18
-2.04898e-18
-2.04145e-18
-2.03921e-18
-2.04717e-18
-2.04022e-18
-2.04036e-18
-2.04386e-18
-2.04421e-18
-2.04393e-18
-2.04458e-18
-2.04549e-18
-2.04476e-18
-2.05226e-18
-2.04206e-18
-2.05351e-18
-2.04411e-18
-2.0527e-18
-2.05824e-18
-2.07213e-18
-2.05762e-18
-2.06059e-18
-2.06442e-18
-2.06739e-18
-2.06417e-18
-2.07602e-18
-2.0761e-18
-2.08539e-18
-2.09165e-18
-2.09776e-18
-2.10188e-18
-2.12073e-18
-2.11749e-18
-2.12994e-18
-2.11796e-18
-2.12361e-18
-2.11189e-18
-2.10892e-18
-2.09212e-18
-2.08947e-18
-2.07265e-18
-2.07414e-18
-2.06566e-18
-2.067e-18
-2.06055e-18
-2.05721e-18
-2.05204e-18
-2.05137e-18
-2.04534e-18
-2.04736e-18
-2.04389e-18
-2.04689e-18
-2.04008e-18
-2.0448e-18
-2.04393e-18
-2.04343e-18
-2.03793e-18
-2.04352e-18
-2.04093e-18
-2.0387e-18
-2.0409e-18
-2.04171e-18
-2.04239e-18
-2.05056e-18
-2.04569e-18
-2.05131e-18
-2.0473e-18
-2.06018e-18
-2.05563e-18
-2.06642e-18
-2.05662e-18
-2.06561e-18
-2.05844e-18
-2.07081e-18
-2.06406e-18
-2.07716e-18
-2.08304e-18
-2.0842e-18
-2.08825e-18
-2.09918e-18
-2.09725e-18
-2.12091e-18
-2.10866e-18
-2.13119e-18
-2.1196e-18
-2.12223e-18
-2.11095e-18
-2.10851e-18
-2.09262e-18
-2.08843e-18
-2.07252e-18
-2.0752e-18
-2.06766e-18
-2.06733e-18
-2.06041e-18
-2.05545e-18
-2.05198e-18
-2.05324e-18
-2.0457e-18
-2.04479e-18
-2.04399e-18
-2.04937e-18
-2.04077e-18
-2.04316e-18
-2.04314e-18
-2.04481e-18
-2.03993e-18
-2.0444e-18
-2.03713e-18
-2.04617e-18
-2.04258e-18
-2.04587e-18
-2.04381e-18
-2.05445e-18
-2.04776e-18
-2.04433e-18
-2.04636e-18
-2.06332e-18
-2.053e-18
-2.06908e-18
-2.05179e-18
-2.06381e-18
-2.05965e-18
-2.06926e-18
-2.06498e-18
-2.07664e-18
-2.08172e-18
-2.08529e-18
-2.08802e-18
-2.09495e-18
-2.09602e-18
-2.11897e-18
-2.10731e-18
-2.1323e-18
-2.11854e-18
-2.1195e-18
-2.10911e-18
-2.1073e-18
-2.08984e-18
-2.08835e-18
-2.07172e-18
-2.07571e-18
-2.06958e-18
-2.0671e-18
-2.06143e-18
-2.05724e-18
-2.0513e-18
-2.05189e-18
-2.04601e-18
-2.04549e-18
-2.04405e-18
-2.04982e-18
-2.04198e-18
-2.04447e-18
-2.04293e-18
-2.04562e-18
-2.03895e-18
-2.04879e-18
-2.03333e-18
-2.04636e-18
-2.0439e-18
-2.04341e-18
-2.04769e-18
-2.05522e-18
-2.04638e-18
-2.04477e-18
-2.04565e-18
-2.06484e-18
-2.05446e-18
-2.06908e-18
-2.0531e-18
-2.05842e-18
-2.06212e-18
-2.06754e-18
-2.07016e-18
-2.07725e-18
-2.0788e-18
-2.09022e-18
-2.09109e-18
-2.09334e-18
-2.10002e-18
-2.11751e-18
-2.11033e-18
-2.12681e-18
-2.11686e-18
-2.11972e-18
-2.10727e-18
-2.10677e-18
-2.08876e-18
-2.08693e-18
-2.07399e-18
-2.07655e-18
-2.06885e-18
-2.06631e-18
-2.06041e-18
-2.05843e-18
-2.04945e-18
-2.05146e-18
-2.04629e-18
-2.04676e-18
-2.04464e-18
-2.04861e-18
-2.04397e-18
-2.04578e-18
-2.04271e-18
-2.04702e-18
-2.03932e-18
-2.04754e-18
-2.04075e-18
-2.04268e-18
-2.0435e-18
-2.04294e-18
-2.04869e-18
-2.05052e-18
-2.04308e-18
-2.04739e-18
-2.0446e-18
-2.05669e-18
-2.05552e-18
-2.06652e-18
-2.05947e-18
-2.06099e-18
-2.05928e-18
-2.0693e-18
-2.0691e-18
-2.07894e-18
-2.07322e-18
-2.08808e-18
-2.08624e-18
-2.09556e-18
-2.09761e-18
-2.11784e-18
-2.11208e-18
-2.12487e-18
-2.11738e-18
-2.12473e-18
-2.10876e-18
-2.10439e-18
-2.09126e-18
-2.08726e-18
-2.07417e-18
-2.07685e-18
-2.07121e-18
-2.06697e-18
-2.05939e-18
-2.05878e-18
-2.0504e-18
-2.05107e-18
-2.04626e-18
-2.04661e-18
-2.04519e-18
-2.0483e-18
-2.04364e-18
-2.04485e-18
-2.04441e-18
-2.04483e-18
-2.03711e-18
-2.04363e-18
-2.04191e-18
-2.04403e-18
-2.04393e-18
-2.04517e-18
-2.04561e-18
-2.05218e-18
-2.04491e-18
-2.05426e-18
-2.04298e-18
-2.05514e-18
-2.05439e-18
-2.06987e-18
-2.05557e-18
-2.06076e-18
-2.05672e-18
-2.06771e-18
-2.07011e-18
-2.07623e-18
-2.0787e-18
-2.08817e-18
-2.08384e-18
-2.10068e-18
-2.09598e-18
-2.11775e-18
-2.11048e-18
-2.12657e-18
-2.11837e-18
-2.12213e-18
-2.10717e-18
-2.10591e-18
-2.08957e-18
-2.08846e-18
-2.07291e-18
-2.07692e-18
-2.06994e-18
-2.06927e-18
-2.06029e-18
-2.05861e-18
-2.05212e-18
-2.05182e-18
-2.04537e-18
-2.04784e-18
-2.04707e-18
-2.04639e-18
-2.04356e-18
-2.04586e-18
-2.04334e-18
-2.04599e-18
-2.0395e-18
-2.04118e-18
-2.03951e-18
-2.04456e-18
-2.04274e-18
-2.04603e-18
-2.04019e-18
-2.0536e-18
-2.044e-18
-2.05006e-18
-2.04548e-18
-2.05576e-18
-2.05374e-18
-2.07095e-18
-2.05561e-18
-2.05985e-18
-2.06117e-18
-2.07022e-18
-2.07006e-18
-2.07462e-18
-2.07813e-18
-2.08755e-18
-2.08581e-18
-2.09618e-18
-2.09558e-18
-2.11831e-18
-2.11066e-18
-2.13097e-18
-2.11506e-18
-2.11889e-18
-2.10689e-18
-2.10321e-18
-2.08812e-18
-2.08836e-18
-2.07346e-18
-2.07838e-18
-2.06948e-18
-2.06915e-18
-2.06114e-18
-2.05819e-18
-2.05322e-18
-2.05177e-18
-2.04446e-18
-2.04851e-18
-2.0457e-18
-2.04694e-18
-2.04507e-18
-2.04606e-18
-2.0444e-18
-2.04503e-18
-2.04127e-18
-2.04542e-18
-2.04082e-18
-2.04406e-18
-2.04078e-18
-2.04377e-18
-2.04285e-18
-2.05249e-18
-2.04331e-18
-2.04856e-18
-2.04735e-18
-2.05717e-18
-2.05077e-18
-2.06712e-18
-2.05618e-18
-2.05826e-18
-2.06134e-18
-2.07173e-18
-2.06728e-18
-2.07703e-18
-2.07556e-18
-2.08799e-18
-2.08743e-18
-2.09461e-18
-2.09637e-18
-2.12e-18
-2.10867e-18
-2.12668e-18
-2.11484e-18
-2.12071e-18
-2.10528e-18
-2.10661e-18
-2.09003e-18
-2.08832e-18
-2.07471e-18
-2.07856e-18
-2.06846e-18
-2.06958e-18
-2.0622e-18
-2.05884e-18
-2.05508e-18
-2.052e-18
-2.04641e-18
-2.04815e-18
-2.04512e-18
-2.04645e-18
-2.04522e-18
-2.04627e-18