/*--------------------------------*- C++ -*----------------------------------*\
  =========                 |
  \\      /  F ield         | OpenFOAM: The Open Source CFD Toolbox
   \\    /   O peration     | Website:  https://openfoam.org
    \\  /    A nd           | Version:  7
     \\/     M anipulation  |
\*---------------------------------------------------------------------------*/
FoamFile
{
    version     2.0;
    format      ascii;
    class       volScalarField;
    location    "8000";
    object      nut;
}
// * * * * * * * * * * * * * * * * * * * * * * * * * * * * * * * * * * * * * //

dimensions      [0 2 -1 0 0 0 0];

internalField   nonuniform List<scalar> 
4782
(
1.31456e-15
1.24017e-15
1.16856e-15
1.09998e-15
1.03455e-15
9.72302e-16
9.13203e-16
8.57163e-16
8.04063e-16
7.53766e-16
2.2912e-15
2.28552e-15
2.27982e-15
2.27408e-15
2.26828e-15
2.26242e-15
2.25649e-15
2.25048e-15
2.24441e-15
2.23826e-15
2.23204e-15
2.22575e-15
2.21939e-15
2.21295e-15
2.20644e-15
2.19985e-15
2.19316e-15
2.18637e-15
2.17948e-15
2.17248e-15
2.16538e-15
2.1582e-15
2.15101e-15
2.14384e-15
2.13678e-15
2.12986e-15
2.12306e-15
2.1163e-15
2.10935e-15
2.10184e-15
2.09317e-15
2.08246e-15
2.06843e-15
2.04937e-15
2.02336e-15
1.98867e-15
1.94431e-15
1.89033e-15
1.82777e-15
1.75831e-15
1.6839e-15
1.60644e-15
1.52759e-15
1.44874e-15
1.37098e-15
1.2951e-15
1.22169e-15
1.1511e-15
1.08357e-15
1.01918e-15
9.5795e-16
8.99828e-16
8.44717e-16
7.92494e-16
7.43021e-16
2.28882e-15
2.28308e-15
2.27733e-15
2.27154e-15
2.26571e-15
2.25983e-15
2.25387e-15
2.24785e-15
2.24176e-15
2.2356e-15
2.22937e-15
2.22307e-15
2.21669e-15
2.21024e-15
2.20371e-15
2.19709e-15
2.19038e-15
2.18357e-15
2.17665e-15
2.16962e-15
2.1625e-15
2.15532e-15
2.14813e-15
2.141e-15
2.13399e-15
2.12712e-15
2.12035e-15
2.11355e-15
2.10647e-15
2.09867e-15
2.08948e-15
2.07789e-15
2.06251e-15
2.04154e-15
2.01311e-15
1.97566e-15
1.92853e-15
1.87208e-15
1.80758e-15
1.73679e-15
1.66166e-15
1.584e-15
1.50538e-15
1.42709e-15
1.35012e-15
1.2752e-15
1.20282e-15
1.13332e-15
1.06688e-15
1.00357e-15
9.4339e-16
8.86267e-16
8.32101e-16
7.80769e-16
7.32129e-16
2.28642e-15
2.28063e-15
2.27484e-15
2.26903e-15
2.26317e-15
2.25725e-15
2.25128e-15
2.24524e-15
2.23913e-15
2.23295e-15
2.2267e-15
2.22038e-15
2.21399e-15
2.20752e-15
2.20097e-15
2.19434e-15
2.1876e-15
2.18076e-15
2.17381e-15
2.16676e-15
2.15963e-15
2.15245e-15
2.14528e-15
2.13819e-15
2.13123e-15
2.12441e-15
2.11765e-15
2.1108e-15
2.10355e-15
2.09538e-15
2.08554e-15
2.07292e-15
2.05598e-15
2.03289e-15
2.00183e-15
1.96152e-15
1.9116e-15
1.85276e-15
1.78643e-15
1.71447e-15
1.63874e-15
1.56101e-15
1.48272e-15
1.40507e-15
1.32895e-15
1.25502e-15
1.18373e-15
1.11535e-15
1.05002e-15
9.8781e-16
9.28683e-16
8.72568e-16
8.19356e-16
7.68919e-16
7.21118e-16
2.28394e-15
2.27814e-15
2.27234e-15
2.2665e-15
2.26063e-15
2.2547e-15
2.24871e-15
2.24265e-15
2.23652e-15
2.23033e-15
2.22407e-15
2.21773e-15
2.21132e-15
2.20484e-15
2.19827e-15
2.19161e-15
2.18485e-15
2.17799e-15
2.17101e-15
2.16394e-15
2.1568e-15
2.14963e-15
2.1425e-15
2.13546e-15
2.12856e-15
2.12178e-15
2.11503e-15
2.10809e-15
2.1006e-15
2.09198e-15
2.08137e-15
2.06752e-15
2.0488e-15
2.02336e-15
1.98951e-15
1.94626e-15
1.8936e-15
1.83247e-15
1.76447e-15
1.69147e-15
1.6153e-15
1.53759e-15
1.45973e-15
1.38278e-15
1.30757e-15
1.23467e-15
1.16448e-15
1.09723e-15
1.03304e-15
9.71929e-16
9.13863e-16
8.58759e-16
8.06503e-16
7.56965e-16
7.10006e-16
2.28396e-15
2.27815e-15
2.27234e-15
2.26651e-15
2.26063e-15
2.2547e-15
2.2487e-15
2.24264e-15
2.23651e-15
2.23032e-15
2.22405e-15
2.21771e-15
2.2113e-15
2.20482e-15
2.19825e-15
2.19159e-15
2.18483e-15
2.17796e-15
2.17099e-15
2.16391e-15
2.15677e-15
2.1496e-15
2.14247e-15
2.13544e-15
2.12853e-15
2.12176e-15
2.115e-15
2.10806e-15
2.10057e-15
2.09195e-15
2.08134e-15
2.0675e-15
2.04879e-15
2.02336e-15
1.98952e-15
1.94627e-15
1.89362e-15
1.8325e-15
1.76451e-15
1.69151e-15
1.61533e-15
1.53763e-15
1.45977e-15
1.38282e-15
1.30761e-15
1.23471e-15
1.16451e-15
1.09726e-15
1.03306e-15
9.71949e-16
9.13881e-16
8.58775e-16
8.06517e-16
7.56976e-16
7.10015e-16
2.28646e-15
2.28067e-15
2.27487e-15
2.26904e-15
2.26317e-15
2.25724e-15
2.25126e-15
2.24521e-15
2.23909e-15
2.23291e-15
2.22665e-15
2.22032e-15
2.21393e-15
2.20746e-15
2.2009e-15
2.19426e-15
2.18753e-15
2.18069e-15
2.17374e-15
2.16668e-15
2.15955e-15
2.15237e-15
2.1452e-15
2.13811e-15
2.13115e-15
2.12432e-15
2.11757e-15
2.11072e-15
2.10346e-15
2.0953e-15
2.08547e-15
2.07286e-15
2.05593e-15
2.03287e-15
2.00183e-15
1.96155e-15
1.91166e-15
1.85284e-15
1.78653e-15
1.71458e-15
1.63887e-15
1.56113e-15
1.48285e-15
1.40519e-15
1.32907e-15
1.25514e-15
1.18383e-15
1.11545e-15
1.05012e-15
9.87896e-16
9.28762e-16
8.7264e-16
8.19422e-16
7.68978e-16
7.21169e-16
6.75852e-16
6.32885e-16
5.9213e-16
5.53458e-16
2.28889e-15
2.28312e-15
2.27734e-15
2.27154e-15
2.26568e-15
2.25977e-15
2.25381e-15
2.24777e-15
2.24167e-15
2.2355e-15
2.22926e-15
2.22295e-15
2.21657e-15
2.21011e-15
2.20358e-15
2.19696e-15
2.19025e-15
2.18344e-15
2.17652e-15
2.16949e-15
2.16237e-15
2.15519e-15
2.148e-15
2.14087e-15
2.13385e-15
2.12698e-15
2.12021e-15
2.11342e-15
2.10634e-15
2.09854e-15
2.08936e-15
2.07779e-15
2.06243e-15
2.04151e-15
2.01311e-15
1.97572e-15
1.92864e-15
1.87224e-15
1.80777e-15
1.73701e-15
1.66189e-15
1.58424e-15
1.50562e-15
1.42733e-15
1.35035e-15
1.27541e-15
1.20302e-15
1.13351e-15
1.06706e-15
1.00373e-15
9.43537e-16
8.864e-16
8.32222e-16
7.80876e-16
7.32222e-16
6.86117e-16
6.42414e-16
6.00975e-16
5.61665e-16
5.24359e-16
2.29126e-15
2.28551e-15
2.27976e-15
2.27397e-15
2.26814e-15
2.26226e-15
2.25631e-15
2.25029e-15
2.24421e-15
2.23806e-15
2.23184e-15
2.22555e-15
2.21919e-15
2.21275e-15
2.20624e-15
2.19965e-15
2.19296e-15
2.18618e-15
2.17929e-15
2.17229e-15
2.16519e-15
2.15802e-15
2.15082e-15
2.14366e-15
2.13659e-15
2.12967e-15
2.12288e-15
2.11611e-15
2.10917e-15
2.10166e-15
2.09301e-15
2.08233e-15
2.06833e-15
2.04932e-15
2.02338e-15
1.98877e-15
1.9445e-15
1.8906e-15
1.8281e-15
1.75869e-15
1.68431e-15
1.60686e-15
1.52802e-15
1.44916e-15
1.37138e-15
1.29549e-15
1.22205e-15
1.15144e-15
1.08388e-15
1.01947e-15
9.58214e-16
9.00072e-16
8.44941e-16
7.927e-16
7.43209e-16
6.96321e-16
6.5189e-16
6.09772e-16
5.6983e-16
5.31935e-16
4.95968e-16
4.6182e-16
4.2939e-16
3.98587e-16
3.6933e-16
3.41546e-16
3.15169e-16
2.90139e-16
2.66405e-16
2.43918e-16
2.22636e-16
2.02521e-16
1.83536e-16
1.65649e-16
1.48831e-16
1.33054e-16
1.18292e-16
1.04519e-16
9.1711e-17
7.98459e-17
6.89007e-17
5.88534e-17
4.96824e-17
4.13662e-17
3.38838e-17
2.72142e-17
2.13366e-17
1.6231e-17
1.18782e-17
8.26318e-18
5.38284e-18
3.20342e-18
1.6404e-18
6.45865e-19
1.52626e-19
2.29356e-15
2.28783e-15
2.2821e-15
2.27634e-15
2.27053e-15
2.26467e-15
2.25874e-15
2.25275e-15
2.24669e-15
2.24056e-15
2.23436e-15
2.22809e-15
2.22175e-15
2.21534e-15
2.20885e-15
2.20228e-15
2.19562e-15
2.18887e-15
2.18201e-15
2.17504e-15
2.16797e-15
2.16082e-15
2.15362e-15
2.14644e-15
2.13933e-15
2.13236e-15
2.12554e-15
2.11878e-15
2.11193e-15
2.10466e-15
2.09644e-15
2.0865e-15
2.07367e-15
2.05636e-15
2.03266e-15
2.00069e-15
1.95918e-15
1.90782e-15
1.84741e-15
1.77948e-15
1.70598e-15
1.62885e-15
1.54988e-15
1.47054e-15
1.39203e-15
1.31522e-15
1.24077e-15
1.16909e-15
1.10044e-15
1.03495e-15
9.72661e-16
9.13521e-16
8.57446e-16
8.04315e-16
7.53992e-16
7.06327e-16
6.61172e-16
6.18381e-16
5.77813e-16
5.39336e-16
5.02826e-16
4.68172e-16
4.35269e-16
4.04024e-16
3.74353e-16
3.46181e-16
3.19438e-16
2.94066e-16
2.70008e-16
2.47216e-16
2.25647e-16
2.0526e-16
1.8602e-16
1.67893e-16
1.5085e-16
1.3486e-16
1.19899e-16
1.0594e-16
9.29589e-17
8.09329e-17
6.9839e-17
5.9655e-17
5.03588e-17
4.1929e-17
3.43441e-17
2.7583e-17
2.16249e-17
1.64491e-17
1.20365e-17
8.37128e-18
5.44992e-18
3.24135e-18
1.65843e-18
6.51985e-19
1.53597e-19
2.29578e-15
2.29009e-15
2.28437e-15
2.27863e-15
2.27285e-15
2.26701e-15
2.26111e-15
2.25514e-15
2.2491e-15
2.24299e-15
2.23682e-15
2.23057e-15
2.22425e-15
2.21785e-15
2.21139e-15
2.20485e-15
2.19822e-15
2.19149e-15
2.18467e-15
2.17773e-15
2.17069e-15
2.16355e-15
2.15636e-15
2.14917e-15
2.14204e-15
2.13502e-15
2.12816e-15
2.1214e-15
2.11461e-15
2.10751e-15
2.09965e-15
2.09033e-15
2.0785e-15
2.06267e-15
2.04099e-15
2.0115e-15
1.97266e-15
1.92387e-15
1.86561e-15
1.79929e-15
1.72679e-15
1.6501e-15
1.5711e-15
1.49137e-15
1.4122e-15
1.33454e-15
1.25911e-15
1.1864e-15
1.11669e-15
1.05016e-15
9.86844e-16
9.26724e-16
8.69718e-16
8.15712e-16
7.64567e-16
7.16137e-16
6.7027e-16
6.26816e-16
5.85631e-16
5.46581e-16
5.09539e-16
4.74388e-16
4.41021e-16
4.09343e-16
3.79267e-16
3.50713e-16
3.23614e-16
2.97905e-16
2.73531e-16
2.50441e-16
2.28591e-16
2.07939e-16
1.88449e-16
1.70088e-16
1.52823e-16
1.36626e-16
1.2147e-16
1.07329e-16
9.4179e-17
8.19959e-17
7.07566e-17
6.04388e-17
5.10203e-17
4.24793e-17
3.47942e-17
2.79437e-17
2.19067e-17
1.66623e-17
1.21911e-17
8.47698e-18
5.51551e-18
3.27842e-18
1.67603e-18
6.57951e-19
1.54542e-19
2.29794e-15
2.29226e-15
2.28657e-15
2.28085e-15
2.27509e-15
2.26927e-15
2.26339e-15
2.25744e-15
2.25143e-15
2.24534e-15
2.23919e-15
2.23296e-15
2.22666e-15
2.22029e-15
2.21385e-15
2.20733e-15
2.20072e-15
2.19403e-15
2.18724e-15
2.18033e-15
2.17332e-15
2.16621e-15
2.15903e-15
2.15183e-15
2.14468e-15
2.13763e-15
2.13072e-15
2.12395e-15
2.11719e-15
2.11023e-15
2.10266e-15
2.09385e-15
2.08286e-15
2.06832e-15
2.04845e-15
2.02124e-15
1.98496e-15
1.93871e-15
1.88267e-15
1.81805e-15
1.74666e-15
1.67054e-15
1.59161e-15
1.51158e-15
1.43181e-15
1.35337e-15
1.27702e-15
1.20331e-15
1.13259e-15
1.06503e-15
1.00072e-15
9.39637e-16
8.8172e-16
8.26854e-16
7.74904e-16
7.25722e-16
6.79155e-16
6.35051e-16
5.93263e-16
5.53651e-16
5.16087e-16
4.80449e-16
4.46629e-16
4.14528e-16
3.84055e-16
3.5513e-16
3.27682e-16
3.01645e-16
2.76962e-16
2.53582e-16
2.31458e-16
2.10548e-16
1.90815e-16
1.72225e-16
1.54744e-16
1.38346e-16
1.23e-16
1.08683e-16
9.53674e-17
8.30311e-17
7.16503e-17
6.12022e-17
5.16645e-17
4.30152e-17
3.52326e-17
2.8295e-17
2.21811e-17
1.687e-17
1.23418e-17
8.57991e-18
5.57942e-18
3.31448e-18
1.69314e-18
6.63744e-19
1.55456e-19
2.30001e-15
2.29435e-15
2.28868e-15
2.28298e-15
2.27724e-15
2.27144e-15
2.26558e-15
2.25966e-15
2.25366e-15
2.2476e-15
2.24146e-15
2.23526e-15
2.22898e-15
2.22263e-15
2.21621e-15
2.20971e-15
2.20314e-15
2.19647e-15
2.18971e-15
2.18284e-15
2.17586e-15
2.16877e-15
2.16161e-15
2.15441e-15
2.14724e-15
2.14015e-15
2.13321e-15
2.12641e-15
2.11968e-15
2.11281e-15
2.10546e-15
2.09708e-15
2.0868e-15
2.07338e-15
2.0551e-15
2.02998e-15
1.99613e-15
1.95235e-15
1.89855e-15
1.8357e-15
1.76553e-15
1.69007e-15
1.61133e-15
1.53108e-15
1.4508e-15
1.37163e-15
1.29442e-15
1.21976e-15
1.14805e-15
1.07951e-15
1.01423e-15
9.52214e-16
8.93408e-16
8.37703e-16
7.84967e-16
7.3505e-16
6.878e-16
6.4306e-16
6.00682e-16
5.60523e-16
5.22448e-16
4.86337e-16
4.52075e-16
4.19561e-16
3.88702e-16
3.59416e-16
3.31628e-16
3.05273e-16
2.80291e-16
2.56628e-16
2.34238e-16
2.13078e-16
1.9311e-16
1.74297e-16
1.56608e-16
1.40013e-16
1.24484e-16
1.09995e-16
9.65201e-17
8.40352e-17
7.2517e-17
6.19426e-17
5.22893e-17
4.3535e-17
3.56578e-17
2.86357e-17
2.24473e-17
1.70714e-17
1.24878e-17
8.67974e-18
5.64142e-18
3.34944e-18
1.70971e-18
6.69347e-19
1.56338e-19
2.30199e-15
2.29635e-15
2.2907e-15
2.28502e-15
2.2793e-15
2.27352e-15
2.26768e-15
2.26178e-15
2.2558e-15
2.24976e-15
2.24365e-15
2.23746e-15
2.2312e-15
2.22487e-15
2.21847e-15
2.212e-15
2.20545e-15
2.19881e-15
2.19207e-15
2.18523e-15
2.17828e-15
2.17123e-15
2.16408e-15
2.15689e-15
2.1497e-15
2.14259e-15
2.13561e-15
2.12878e-15
2.12205e-15
2.11525e-15
2.10809e-15
2.10005e-15
2.09037e-15
2.0779e-15
2.06103e-15
2.0378e-15
2.0062e-15
1.96482e-15
1.91324e-15
1.85222e-15
1.78335e-15
1.70865e-15
1.63018e-15
1.54981e-15
1.46909e-15
1.38926e-15
1.31124e-15
1.23569e-15
1.16304e-15
1.09354e-15
1.02732e-15
9.64407e-16
9.04738e-16
8.48218e-16
7.94717e-16
7.44086e-16
6.96171e-16
6.50814e-16
6.07862e-16
5.6717e-16
5.28601e-16
4.92029e-16
4.57339e-16
4.24425e-16
3.93193e-16
3.63557e-16
3.35441e-16
3.08778e-16
2.83505e-16
2.5957e-16
2.36924e-16
2.15522e-16
1.95325e-16
1.76298e-16
1.58408e-16
1.41624e-16
1.25917e-16
1.11262e-16
9.7633e-17
8.50047e-17
7.3354e-17
6.26575e-17
5.28927e-17
4.4037e-17
3.60683e-17
2.89646e-17
2.27042e-17
1.72658e-17
1.26289e-17
8.77614e-18
5.70132e-18
3.38316e-18
1.72569e-18
6.74742e-19
1.57185e-19
2.30388e-15
2.29826e-15
2.29263e-15
2.28697e-15
2.28126e-15
2.2755e-15
2.26968e-15
2.2638e-15
2.25784e-15
2.25182e-15
2.24572e-15
2.23956e-15
2.23332e-15
2.22701e-15
2.22063e-15
2.21418e-15
2.20764e-15
2.20103e-15
2.19432e-15
2.18751e-15
2.18059e-15
2.17357e-15
2.16644e-15
2.15926e-15
2.15206e-15
2.14493e-15
2.13791e-15
2.13105e-15
2.12431e-15
2.11756e-15
2.11054e-15
2.10278e-15
2.0936e-15
2.08195e-15
2.0663e-15
2.04476e-15
2.01525e-15
1.97614e-15
1.92676e-15
1.86759e-15
1.80008e-15
1.72622e-15
1.64811e-15
1.56768e-15
1.4866e-15
1.40618e-15
1.32742e-15
1.25102e-15
1.17747e-15
1.10707e-15
1.03995e-15
9.76166e-16
9.15664e-16
8.58357e-16
8.04116e-16
7.52795e-16
7.04237e-16
6.58283e-16
6.14777e-16
5.7357e-16
5.34523e-16
4.97507e-16
4.62403e-16
4.29104e-16
3.97511e-16
3.67538e-16
3.39106e-16
3.12146e-16
2.86595e-16
2.62398e-16
2.39504e-16
2.1787e-16
1.97454e-16
1.78221e-16
1.60137e-16
1.43171e-16
1.27295e-16
1.1248e-16
9.87024e-17
8.59364e-17
7.41582e-17
6.33446e-17
5.34725e-17
4.45193e-17
3.64628e-17
2.92807e-17
2.29512e-17
1.74526e-17
1.27644e-17
8.86877e-18
5.75891e-18
3.41554e-18
1.74102e-18
6.79912e-19
1.57995e-19
2.30568e-15
2.30007e-15
2.29446e-15
2.28881e-15
2.28313e-15
2.27738e-15
2.27158e-15
2.26571e-15
2.25978e-15
2.25377e-15
2.2477e-15
2.24155e-15
2.23533e-15
2.22904e-15
2.22267e-15
2.21624e-15
2.20973e-15
2.20314e-15
2.19645e-15
2.18967e-15
2.18278e-15
2.17578e-15
2.16868e-15
2.1615e-15
2.15431e-15
2.14715e-15
2.14011e-15
2.13322e-15
2.12646e-15
2.11974e-15
2.11282e-15
2.10529e-15
2.09653e-15
2.08557e-15
2.07099e-15
2.05094e-15
2.02334e-15
1.98638e-15
1.93912e-15
1.8818e-15
1.81569e-15
1.74274e-15
1.66505e-15
1.58466e-15
1.50329e-15
1.42234e-15
1.34289e-15
1.2657e-15
1.19131e-15
1.12004e-15
1.05207e-15
9.87446e-16
9.26145e-16
8.68081e-16
8.1313e-16
7.61145e-16
7.11968e-16
6.65439e-16
6.214e-16
5.79698e-16
5.40192e-16
5.0275e-16
4.67249e-16
4.33579e-16
4.01641e-16
3.71345e-16
3.42611e-16
3.15367e-16
2.89549e-16
2.65101e-16
2.41971e-16
2.20114e-16
1.99489e-16
1.80059e-16
1.6179e-16
1.4465e-16
1.28611e-16
1.13644e-16
9.97247e-17
8.6827e-17
7.49271e-17
6.40013e-17
5.40267e-17
4.49804e-17
3.68399e-17
2.95829e-17
2.31873e-17
1.76312e-17
1.28939e-17
8.95734e-18
5.814e-18
3.44648e-18
1.75565e-18
6.84842e-19
1.58766e-19
2.30737e-15
2.30178e-15
2.29618e-15
2.29055e-15
2.28488e-15
2.27916e-15
2.27337e-15
2.26752e-15
2.2616e-15
2.25561e-15
2.24955e-15
2.24342e-15
2.23722e-15
2.23095e-15
2.2246e-15
2.21818e-15
2.21169e-15
2.20512e-15
2.19846e-15
2.1917e-15
2.18484e-15
2.17786e-15
2.17078e-15
2.16362e-15
2.15643e-15
2.14926e-15
2.14219e-15
2.13526e-15
2.12849e-15
2.12178e-15
2.11494e-15
2.1076e-15
2.09919e-15
2.08881e-15
2.07515e-15
2.05642e-15
2.03055e-15
1.99559e-15
1.95036e-15
1.89485e-15
1.83017e-15
1.75816e-15
1.68097e-15
1.60067e-15
1.51907e-15
1.43767e-15
1.35759e-15
1.27967e-15
1.20449e-15
1.1324e-15
1.06362e-15
9.98201e-16
9.36139e-16
8.77353e-16
8.21723e-16
7.69102e-16
7.19334e-16
6.72256e-16
6.27707e-16
5.85533e-16
5.45589e-16
5.07739e-16
4.71859e-16
4.37837e-16
4.0557e-16
3.74966e-16
3.45943e-16
3.18429e-16
2.92357e-16
2.6767e-16
2.44315e-16
2.22247e-16
2.01423e-16
1.81806e-16
1.63361e-16
1.46056e-16
1.29862e-16
1.14751e-16
1.00696e-16
8.76734e-17
7.56578e-17
6.46255e-17
5.45535e-17
4.54187e-17
3.71984e-17
2.98701e-17
2.34116e-17
1.7801e-17
1.3017e-17
9.04152e-18
5.86639e-18
3.47586e-18
1.76953e-18
6.89515e-19
1.59495e-19
2.30896e-15
2.30339e-15
2.2978e-15
2.29219e-15
2.28653e-15
2.28082e-15
2.27505e-15
2.26921e-15
2.26331e-15
2.25734e-15
2.25129e-15
2.24518e-15
2.23899e-15
2.23273e-15
2.2264e-15
2.22e-15
2.21353e-15
2.20698e-15
2.20034e-15
2.1936e-15
2.18676e-15
2.17981e-15
2.17276e-15
2.16561e-15
2.15842e-15
2.15124e-15
2.14414e-15
2.13719e-15
2.13039e-15
2.12369e-15
2.11691e-15
2.10972e-15
2.10159e-15
2.0917e-15
2.07883e-15
2.06127e-15
2.03694e-15
2.00382e-15
1.96051e-15
1.90677e-15
1.8435e-15
1.77248e-15
1.69583e-15
1.61568e-15
1.53392e-15
1.45212e-15
1.37147e-15
1.29288e-15
1.21696e-15
1.14411e-15
1.07455e-15
1.00839e-15
9.45606e-16
8.86135e-16
8.2986e-16
7.76637e-16
7.26307e-16
6.78707e-16
6.33675e-16
5.91052e-16
5.50692e-16
5.12456e-16
4.76217e-16
4.4186e-16
4.09281e-16
3.78386e-16
3.49091e-16
3.21321e-16
2.95009e-16
2.70096e-16
2.46529e-16
2.24261e-16
2.0325e-16
1.83456e-16
1.64844e-16
1.47383e-16
1.31043e-16
1.15795e-16
1.01614e-16
8.84727e-17
7.63478e-17
6.5215e-17
5.5051e-17
4.58326e-17
3.75369e-17
3.01414e-17
2.36235e-17
1.79613e-17
1.31333e-17
9.12103e-18
5.9159e-18
3.50359e-18
1.78263e-18
6.93918e-19
1.6018e-19
2.31044e-15
2.30488e-15
2.29931e-15
2.29371e-15
2.28806e-15
2.28237e-15
2.27661e-15
2.27079e-15
2.2649e-15
2.25894e-15
2.25292e-15
2.24682e-15
2.24064e-15
2.2344e-15
2.22809e-15
2.2217e-15
2.21524e-15
2.2087e-15
2.20208e-15
2.19537e-15
2.18855e-15
2.18163e-15
2.17459e-15
2.16746e-15
2.16027e-15
2.15309e-15
2.14597e-15
2.13899e-15
2.13217e-15
2.12546e-15
2.11872e-15
2.11165e-15
2.10376e-15
2.09429e-15
2.08209e-15
2.06554e-15
2.04259e-15
2.01114e-15
1.96964e-15
1.91758e-15
1.8557e-15
1.78567e-15
1.70959e-15
1.62964e-15
1.54778e-15
1.46563e-15
1.38448e-15
1.30527e-15
1.22867e-15
1.15511e-15
1.08484e-15
1.01797e-15
9.54506e-16
8.94391e-16
8.3751e-16
7.83718e-16
7.3286e-16
6.84768e-16
6.39279e-16
5.96234e-16
5.55482e-16
5.16883e-16
4.80306e-16
4.45635e-16
4.12763e-16
3.81594e-16
3.52043e-16
3.24033e-16
2.97496e-16
2.72371e-16
2.48605e-16
2.2615e-16
2.04962e-16
1.85002e-16
1.66235e-16
1.48628e-16
1.3215e-16
1.16775e-16
1.02474e-16
8.92221e-17
7.69947e-17
6.57677e-17
5.55174e-17
4.62206e-17
3.78543e-17
3.03957e-17
2.38222e-17
1.81116e-17
1.32423e-17
9.1956e-18
5.96235e-18
3.52957e-18
1.79489e-18
6.98037e-19
1.6082e-19
2.31181e-15
2.30626e-15
2.3007e-15
2.29511e-15
2.28948e-15
2.2838e-15
2.27806e-15
2.27225e-15
2.26637e-15
2.26043e-15
2.25441e-15
2.24833e-15
2.24217e-15
2.23594e-15
2.22964e-15
2.22327e-15
2.21682e-15
2.2103e-15
2.2037e-15
2.197e-15
2.19021e-15
2.1833e-15
2.17628e-15
2.16917e-15
2.16199e-15
2.1548e-15
2.14767e-15
2.14066e-15
2.13381e-15
2.1271e-15
2.12039e-15
2.11341e-15
2.10572e-15
2.0966e-15
2.08497e-15
2.06929e-15
2.04756e-15
2.01762e-15
1.97777e-15
1.92731e-15
1.86678e-15
1.79772e-15
1.72224e-15
1.64253e-15
1.56061e-15
1.47817e-15
1.39657e-15
1.3168e-15
1.23958e-15
1.16536e-15
1.09442e-15
1.0269e-15
9.62806e-16
9.0209e-16
8.44641e-16
7.90319e-16
7.38966e-16
6.90415e-16
6.44501e-16
6.01061e-16
5.59943e-16
5.21004e-16
4.84112e-16
4.49148e-16
4.16003e-16
3.84579e-16
3.54789e-16
3.26555e-16
2.99808e-16
2.74487e-16
2.50536e-16
2.27906e-16
2.06554e-16
1.8644e-16
1.67528e-16
1.49785e-16
1.3318e-16
1.17685e-16
1.03274e-16
8.99189e-17
7.75963e-17
6.62816e-17
5.59511e-17
4.65815e-17
3.81494e-17
3.06322e-17
2.40069e-17
1.82513e-17
1.33437e-17
9.26494e-18
6.00556e-18
3.55371e-18
1.80628e-18
7.0186e-19
1.61412e-19
2.31307e-15
2.30753e-15
2.30198e-15
2.2964e-15
2.29078e-15
2.28511e-15
2.27938e-15
2.27358e-15
2.26772e-15
2.26179e-15
2.25579e-15
2.24971e-15
2.24357e-15
2.23735e-15
2.23106e-15
2.2247e-15
2.21827e-15
2.21176e-15
2.20517e-15
2.1985e-15
2.19172e-15
2.18483e-15
2.17783e-15
2.17073e-15
2.16356e-15
2.15637e-15
2.14923e-15
2.1422e-15
2.13533e-15
2.1286e-15
2.12191e-15
2.115e-15
2.10747e-15
2.09864e-15
2.0875e-15
2.07257e-15
2.0519e-15
2.02332e-15
1.98498e-15
1.936e-15
1.87674e-15
1.80864e-15
1.73375e-15
1.6543e-15
1.57237e-15
1.4897e-15
1.4077e-15
1.32743e-15
1.24963e-15
1.17481e-15
1.10327e-15
1.03514e-15
9.70467e-16
9.09196e-16
8.51224e-16
7.96412e-16
7.44601e-16
6.95625e-16
6.49317e-16
6.05512e-16
5.64056e-16
5.24803e-16
4.8762e-16
4.52385e-16
4.18988e-16
3.87328e-16
3.57318e-16
3.28878e-16
3.01938e-16
2.76435e-16
2.52313e-16
2.29523e-16
2.0802e-16
1.87764e-16
1.68718e-16
1.5085e-16
1.34128e-16
1.18524e-16
1.0401e-16
9.05606e-17
7.81503e-17
6.67549e-17
5.63506e-17
4.69138e-17
3.84213e-17
3.085e-17
2.41771e-17
1.83801e-17
1.34371e-17
9.32882e-18
6.04539e-18
3.57594e-18
1.81675e-18
7.05373e-19
1.61956e-19
2.31421e-15
2.30868e-15
2.30314e-15
2.29758e-15
2.29197e-15
2.2863e-15
2.28058e-15
2.2748e-15
2.26894e-15
2.26302e-15
2.25703e-15
2.25097e-15
2.24483e-15
2.23863e-15
2.23235e-15
2.226e-15
2.21958e-15
2.21309e-15
2.20651e-15
2.19985e-15
2.19309e-15
2.18622e-15
2.17924e-15
2.17215e-15
2.16499e-15
2.1578e-15
2.15064e-15
2.14359e-15
2.1367e-15
2.12996e-15
2.12328e-15
2.11643e-15
2.10903e-15
2.10044e-15
2.08972e-15
2.07543e-15
2.05568e-15
2.02828e-15
1.9913e-15
1.94368e-15
1.88562e-15
1.81842e-15
1.74412e-15
1.66495e-15
1.58302e-15
1.50016e-15
1.41782e-15
1.33711e-15
1.2588e-15
1.18344e-15
1.11134e-15
1.04266e-15
9.77459e-16
9.15681e-16
8.57231e-16
8.0197e-16
7.49741e-16
7.00377e-16
6.53709e-16
6.0957e-16
5.67805e-16
5.28266e-16
4.90817e-16
4.55335e-16
4.21707e-16
3.89833e-16
3.59622e-16
3.30994e-16
3.03878e-16
2.78209e-16
2.53932e-16
2.30996e-16
2.09355e-16
1.8897e-16
1.69803e-16
1.5182e-16
1.34992e-16
1.19288e-16
1.04681e-16
9.1145e-17
7.86548e-17
6.7186e-17
5.67144e-17
4.72165e-17
3.86688e-17
3.10484e-17
2.43321e-17
1.84973e-17
1.35221e-17
9.38701e-18
6.08168e-18
3.59617e-18
1.82628e-18
7.08567e-19
1.6245e-19
2.31523e-15
2.30971e-15
2.30418e-15
2.29863e-15
2.29302e-15
2.28737e-15
2.28166e-15
2.27588e-15
2.27004e-15
2.26413e-15
2.25815e-15
2.25209e-15
2.24597e-15
2.23977e-15
2.2335e-15
2.22716e-15
2.22075e-15
2.21427e-15
2.20771e-15
2.20106e-15
2.19431e-15
2.18746e-15
2.18049e-15
2.17342e-15
2.16626e-15
2.15907e-15
2.15191e-15
2.14484e-15
2.13793e-15
2.13118e-15
2.1245e-15
2.1177e-15
2.1104e-15
2.10202e-15
2.09163e-15
2.07789e-15
2.05892e-15
2.03256e-15
1.99679e-15
1.9504e-15
1.89342e-15
1.82708e-15
1.75334e-15
1.67444e-15
1.59256e-15
1.50954e-15
1.42691e-15
1.3458e-15
1.26704e-15
1.19119e-15
1.1186e-15
1.04943e-15
9.83752e-16
9.21518e-16
8.62636e-16
8.06971e-16
7.54366e-16
7.04652e-16
6.57658e-16
6.13219e-16
5.71175e-16
5.31378e-16
4.9369e-16
4.57986e-16
4.24151e-16
3.92084e-16
3.61692e-16
3.32895e-16
3.05621e-16
2.79803e-16
2.55386e-16
2.32318e-16
2.10554e-16
1.90053e-16
1.70776e-16
1.52692e-16
1.35767e-16
1.19974e-16
1.05283e-16
9.16699e-17
7.9108e-17
6.75731e-17
5.70411e-17
4.74883e-17
3.88912e-17
3.12265e-17
2.44713e-17
1.86026e-17
1.35985e-17
9.43928e-18
6.1143e-18
3.61433e-18
1.83483e-18
7.11432e-19
1.62892e-19
2.31614e-15
2.31063e-15
2.3051e-15
2.29955e-15
2.29396e-15
2.28831e-15
2.28261e-15
2.27684e-15
2.27101e-15
2.2651e-15
2.25913e-15
2.25309e-15
2.24697e-15
2.24078e-15
2.23452e-15
2.22819e-15
2.22179e-15
2.21531e-15
2.20876e-15
2.20212e-15
2.19539e-15
2.18854e-15
2.18159e-15
2.17453e-15
2.16739e-15
2.1602e-15
2.15302e-15
2.14594e-15
2.13902e-15
2.13225e-15
2.12557e-15
2.1188e-15
2.11159e-15
2.10338e-15
2.09327e-15
2.07998e-15
2.06169e-15
2.03622e-15
2.00149e-15
1.95618e-15
1.90019e-15
1.83462e-15
1.7614e-15
1.68278e-15
1.60094e-15
1.51781e-15
1.43493e-15
1.35348e-15
1.27433e-15
1.19805e-15
1.12502e-15
1.05542e-15
9.8932e-16
9.26683e-16
8.67419e-16
8.11396e-16
7.58457e-16
7.08432e-16
6.61151e-16
6.16446e-16
5.74156e-16
5.3413e-16
4.9623e-16
4.60328e-16
4.2631e-16
3.94072e-16
3.63521e-16
3.34575e-16
3.0716e-16
2.81211e-16
2.5667e-16
2.33487e-16
2.11613e-16
1.91009e-16
1.71636e-16
1.53461e-16
1.36452e-16
1.20579e-16
1.05815e-16
9.21334e-17
7.95082e-17
6.79151e-17
5.73297e-17
4.77284e-17
3.90876e-17
3.13839e-17
2.45942e-17
1.86956e-17
1.3666e-17
9.48545e-18
6.14312e-18
3.63037e-18
1.84238e-18
7.13958e-19
1.63282e-19
2.31692e-15
2.31142e-15
2.3059e-15
2.30035e-15
2.29477e-15
2.28913e-15
2.28343e-15
2.27767e-15
2.27184e-15
2.26595e-15
2.25998e-15
2.25394e-15
2.24783e-15
2.24165e-15
2.2354e-15
2.22907e-15
2.22268e-15
2.21621e-15
2.20967e-15
2.20304e-15
2.19631e-15
2.18949e-15
2.18254e-15
2.17549e-15
2.16836e-15
2.16117e-15
2.15399e-15
2.1469e-15
2.13995e-15
2.13318e-15
2.1265e-15
2.11976e-15
2.11261e-15
2.10453e-15
2.09466e-15
2.08174e-15
2.064e-15
2.03928e-15
2.00544e-15
1.96108e-15
1.90594e-15
1.84106e-15
1.76831e-15
1.68994e-15
1.60816e-15
1.52494e-15
1.44185e-15
1.36011e-15
1.28062e-15
1.20399e-15
1.13058e-15
1.06061e-15
9.94138e-16
9.31151e-16
8.71557e-16
8.15224e-16
7.61996e-16
7.11702e-16
6.64172e-16
6.19236e-16
5.76732e-16
5.36508e-16
4.98425e-16
4.62353e-16
4.28176e-16
3.9579e-16
3.65101e-16
3.36026e-16
3.0849e-16
2.82427e-16
2.5778e-16
2.34496e-16
2.12528e-16
1.91835e-16
1.7238e-16
1.54126e-16
1.37044e-16
1.21103e-16
1.06275e-16
9.25339e-17
7.9854e-17
6.82105e-17
5.75791e-17
4.79359e-17
3.92573e-17
3.15199e-17
2.47005e-17
1.8776e-17
1.37243e-17
9.52535e-18
6.16803e-18
3.64422e-18
1.8489e-18
7.16138e-19
1.63618e-19
2.31759e-15
2.31208e-15
2.30657e-15
2.30103e-15
2.29545e-15
2.28982e-15
2.28412e-15
2.27837e-15
2.27255e-15
2.26666e-15
2.2607e-15
2.25466e-15
2.24856e-15
2.24238e-15
2.23614e-15
2.22982e-15
2.22343e-15
2.21697e-15
2.21043e-15
2.20381e-15
2.1971e-15
2.19028e-15
2.18334e-15
2.1763e-15
2.16917e-15
2.16198e-15
2.1548e-15
2.1477e-15
2.14075e-15
2.13396e-15
2.12728e-15
2.12055e-15
2.11346e-15
2.10548e-15
2.0958e-15
2.08318e-15
2.06589e-15
2.04178e-15
2.00869e-15
1.9651e-15
1.9107e-15
1.8464e-15
1.77406e-15
1.69591e-15
1.6142e-15
1.53091e-15
1.44765e-15
1.36568e-15
1.28591e-15
1.20897e-15
1.13525e-15
1.06496e-15
9.98187e-16
9.34907e-16
8.75035e-16
8.18441e-16
7.64969e-16
7.1445e-16
6.6671e-16
6.21579e-16
5.78896e-16
5.38506e-16
5.00268e-16
4.64052e-16
4.29742e-16
3.97232e-16
3.66427e-16
3.37243e-16
3.09606e-16
2.83448e-16
2.58711e-16
2.35342e-16
2.13296e-16
1.92528e-16
1.73003e-16
1.54684e-16
1.3754e-16
1.21542e-16
1.06661e-16
9.28699e-17
8.01441e-17
6.84583e-17
5.77883e-17
4.81099e-17
3.93997e-17
3.1634e-17
2.47896e-17
1.88435e-17
1.37732e-17
9.55883e-18
6.18893e-18
3.65583e-18
1.85436e-18
7.17965e-19
1.63899e-19
2.31812e-15
2.31263e-15
2.30712e-15
2.30158e-15
2.296e-15
2.29037e-15
2.28469e-15
2.27893e-15
2.27312e-15
2.26723e-15
2.26128e-15
2.25525e-15
2.24915e-15
2.24298e-15
2.23674e-15
2.23042e-15
2.22404e-15
2.21758e-15
2.21105e-15
2.20443e-15
2.19773e-15
2.19091e-15
2.18399e-15
2.17696e-15
2.16983e-15
2.16264e-15
2.15546e-15
2.14835e-15
2.14138e-15
2.13458e-15
2.12791e-15
2.12119e-15
2.11414e-15
2.10624e-15
2.0967e-15
2.08432e-15
2.06738e-15
2.04375e-15
2.01125e-15
1.9683e-15
1.91448e-15
1.85067e-15
1.77866e-15
1.7007e-15
1.61905e-15
1.53571e-15
1.45232e-15
1.37016e-15
1.29017e-15
1.21298e-15
1.13901e-15
1.06847e-15
1.00145e-15
9.37931e-16
8.77835e-16
8.21031e-16
7.67363e-16
7.16661e-16
6.68752e-16
6.23466e-16
5.80637e-16
5.40113e-16
5.01751e-16
4.6542e-16
4.31003e-16
3.98393e-16
3.67494e-16
3.38223e-16
3.10503e-16
2.84269e-16
2.5946e-16
2.36024e-16
2.13913e-16
1.93086e-16
1.73504e-16
1.55133e-16
1.3794e-16
1.21895e-16
1.06971e-16
9.31402e-17
8.03775e-17
6.86577e-17
5.79566e-17
4.825e-17
3.95142e-17
3.17258e-17
2.48613e-17
1.88977e-17
1.38126e-17
9.58576e-18
6.20576e-18
3.66517e-18
1.85875e-18
7.19433e-19
1.64125e-19
2.31854e-15
2.31304e-15
2.30754e-15
2.302e-15
2.29643e-15
2.2908e-15
2.28512e-15
2.27937e-15
2.27355e-15
2.26767e-15
2.26172e-15
2.2557e-15
2.2496e-15
2.24343e-15
2.23719e-15
2.23088e-15
2.2245e-15
2.21805e-15
2.21152e-15
2.20491e-15
2.1982e-15
2.1914e-15
2.18448e-15
2.17745e-15
2.17033e-15
2.16314e-15
2.15596e-15
2.14885e-15
2.14187e-15
2.13506e-15
2.12838e-15
2.12168e-15
2.11465e-15
2.10681e-15
2.09738e-15
2.08516e-15
2.06848e-15
2.04521e-15
2.01315e-15
1.97067e-15
1.9173e-15
1.85386e-15
1.78211e-15
1.7043e-15
1.62269e-15
1.53931e-15
1.45583e-15
1.37354e-15
1.29338e-15
1.21601e-15
1.14184e-15
1.07111e-15
1.00391e-15
9.40211e-16
8.79946e-16
8.22984e-16
7.69167e-16
7.18328e-16
6.70292e-16
6.24887e-16
5.81949e-16
5.41324e-16
5.02868e-16
4.6645e-16
4.31952e-16
3.99266e-16
3.68298e-16
3.38961e-16
3.1118e-16
2.84887e-16
2.60024e-16
2.36537e-16
2.14378e-16
1.93506e-16
1.73882e-16
1.55471e-16
1.38241e-16
1.22161e-16
1.07204e-16
9.33438e-17
8.05532e-17
6.88079e-17
5.80833e-17
4.83554e-17
3.96005e-17
3.17949e-17
2.49153e-17
1.89386e-17
1.38422e-17
9.60605e-18
6.21843e-18
3.67221e-18
1.86206e-18
7.20538e-19
1.64295e-19
2.31882e-15
2.31333e-15
2.30783e-15
2.3023e-15
2.29672e-15
2.2911e-15
2.28541e-15
2.27967e-15
2.27386e-15
2.26798e-15
2.26202e-15
2.256e-15
2.24991e-15
2.24374e-15
2.2375e-15
2.2312e-15
2.22482e-15
2.21837e-15
2.21184e-15
2.20523e-15
2.19853e-15
2.19173e-15
2.18481e-15
2.17779e-15
2.17067e-15
2.16348e-15
2.1563e-15
2.14918e-15
2.1422e-15
2.13539e-15
2.12871e-15
2.12201e-15
2.115e-15
2.1072e-15
2.09783e-15
2.08573e-15
2.06922e-15
2.04618e-15
2.01441e-15
1.97225e-15
1.91918e-15
1.85598e-15
1.78441e-15
1.7067e-15
1.62513e-15
1.54173e-15
1.45818e-15
1.37579e-15
1.29552e-15
1.21803e-15
1.14374e-15
1.07288e-15
1.00555e-15
9.41737e-16
8.81359e-16
8.2429e-16
7.70375e-16
7.19443e-16
6.71322e-16
6.25838e-16
5.82827e-16
5.42134e-16
5.03615e-16
4.67139e-16
4.32587e-16
3.99851e-16
3.68835e-16
3.39454e-16
3.11632e-16
2.85301e-16
2.60401e-16
2.3688e-16
2.14689e-16
1.93787e-16
1.74134e-16
1.55697e-16
1.38442e-16
1.22339e-16
1.07361e-16
9.34799e-17
8.06708e-17
6.89083e-17
5.81681e-17
4.84259e-17
3.96582e-17
3.18411e-17
2.49514e-17
1.89659e-17
1.3862e-17
9.61961e-18
6.2269e-18
3.67691e-18
1.86427e-18
7.21277e-19
1.64408e-19
2.31898e-15
2.31349e-15
2.30799e-15
2.30246e-15
2.29688e-15
2.29126e-15
2.28558e-15
2.27983e-15
2.27402e-15
2.26814e-15
2.26219e-15
2.25617e-15
2.25008e-15
2.24391e-15
2.23767e-15
2.23137e-15
2.22499e-15
2.21854e-15
2.21201e-15
2.20541e-15
2.19871e-15
2.19191e-15
2.18499e-15
2.17797e-15
2.17085e-15
2.16367e-15
2.15648e-15
2.14936e-15
2.14238e-15
2.13556e-15
2.12888e-15
2.12218e-15
2.11519e-15
2.1074e-15
2.09807e-15
2.08602e-15
2.06959e-15
2.04667e-15
2.01505e-15
1.97304e-15
1.92013e-15
1.85705e-15
1.78557e-15
1.70791e-15
1.62635e-15
1.54294e-15
1.45936e-15
1.37693e-15
1.2966e-15
1.21905e-15
1.14469e-15
1.07377e-15
1.00638e-15
9.42502e-16
8.82067e-16
8.24945e-16
7.7098e-16
7.20002e-16
6.71838e-16
6.26314e-16
5.83267e-16
5.4254e-16
5.03989e-16
4.67484e-16
4.32905e-16
4.00144e-16
3.69104e-16
3.39701e-16
3.11858e-16