/*--------------------------------*- C++ -*----------------------------------*\
  =========                 |
  \\      /  F ield         | OpenFOAM: The Open Source CFD Toolbox
   \\    /   O peration     | Website:  https://openfoam.org
    \\  /    A nd           | Version:  7
     \\/     M anipulation  |
\*---------------------------------------------------------------------------*/
FoamFile
{
    version     2.0;
    format      ascii;
    class       volScalarField;
    location    "8000";
    object      omega;
}
// * * * * * * * * * * * * * * * * * * * * * * * * * * * * * * * * * * * * * //

dimensions      [0 0 -1 0 0 0 0];

internalField   nonuniform List<scalar> 
4782
(
0.168911
0.179043
0.190015
0.201863
0.21463
0.22837
0.243149
0.259046
0.276153
0.29458
0.0969119
0.0971526
0.0973956
0.0976415
0.0978912
0.0981449
0.0984029
0.0986653
0.0989323
0.099204
0.0994804
0.0997616
0.100048
0.100339
0.100635
0.100936
0.101244
0.101558
0.10188
0.102208
0.102543
0.102884
0.103228
0.103573
0.103915
0.104253
0.104587
0.104921
0.105267
0.105643
0.10608
0.106626
0.107349
0.108348
0.109741
0.111655
0.114202
0.117463
0.121484
0.126283
0.131863
0.138222
0.145356
0.153267
0.161961
0.171449
0.181752
0.192897
0.20492
0.217866
0.231791
0.246763
0.262863
0.280184
0.29884
0.0970126
0.0972567
0.0975023
0.0977506
0.0980021
0.0982574
0.0985169
0.0987807
0.099049
0.099322
0.0995996
0.0998821
0.100169
0.100462
0.100759
0.101063
0.101372
0.101689
0.102012
0.102343
0.10268
0.103022
0.103366
0.10371
0.104051
0.104388
0.104721
0.105057
0.105411
0.105803
0.106268
0.106861
0.107658
0.108763
0.110299
0.11239
0.115137
0.118608
0.122841
0.127847
0.133628
0.14018
0.1475
0.155592
0.164462
0.174126
0.184603
0.195923
0.208125
0.221254
0.235369
0.250539
0.266848
0.284392
0.303286
0.0971146
0.0973609
0.0976088
0.097859
0.0981124
0.0983694
0.0986305
0.0988958
0.0991656
0.09944
0.099719
0.100003
0.100292
0.100585
0.100885
0.10119
0.101501
0.10182
0.102145
0.102478
0.102816
0.103159
0.103504
0.103847
0.104186
0.104521
0.104854
0.105194
0.105557
0.105969
0.106469
0.107117
0.107999
0.109226
0.110921
0.1132
0.116156
0.119845
0.124295
0.129512
0.135497
0.142245
0.149755
0.158031
0.167082
0.176925
0.187581
0.199082
0.211466
0.224785
0.239096
0.254473
0.270999
0.288775
0.307917
0.0972198
0.0974674
0.0977165
0.0979679
0.0982226
0.0984809
0.0987433
0.09901
0.0992811
0.0995569
0.0998373
0.100122
0.100413
0.100708
0.101009
0.101316
0.101629
0.101949
0.102277
0.102611
0.102951
0.103294
0.103638
0.10398
0.104317
0.10465
0.104984
0.10533
0.105705
0.106141
0.106682
0.107397
0.108378
0.10974
0.111607
0.114088
0.117261
0.121172
0.125842
0.131273
0.137464
0.14441
0.152113
0.160578
0.169814
0.179841
0.190681
0.202368
0.214943
0.228458
0.242974
0.258564
0.275318
0.293335
0.312736
0.0972193
0.0974669
0.0977161
0.0979677
0.0982225
0.098481
0.0987435
0.0990103
0.0992816
0.0995574
0.099838
0.100123
0.100413
0.100709
0.10101
0.101317
0.10163
0.101951
0.102278
0.102612
0.102952
0.103296
0.103639
0.103981
0.104318
0.104651
0.104985
0.105331
0.105707
0.106142
0.106683
0.107398
0.108378
0.109741
0.111607
0.114087
0.11726
0.121171
0.12584
0.13127
0.137461
0.144407
0.15211
0.160574
0.16981
0.179836
0.190676
0.202363
0.214938
0.228453
0.242969
0.25856
0.275313
0.293331
0.312732
0.0971129
0.0973595
0.0976077
0.0978584
0.0981123
0.0983698
0.0986314
0.0988971
0.0991673
0.099442
0.0997214
0.100005
0.100294
0.100588
0.100888
0.101193
0.101505
0.101823
0.102149
0.102481
0.10282
0.103163
0.103508
0.103851
0.10419
0.104525
0.104858
0.105198
0.105561
0.105973
0.106472
0.10712
0.108002
0.109227
0.110921
0.113199
0.116153
0.11984
0.124288
0.129504
0.135487
0.142233
0.149742
0.158017
0.167067
0.176909
0.187564
0.199064
0.211448
0.224765
0.239076
0.254451
0.270977
0.288753
0.307895
0.32854
0.350845
0.374993
0.401195
0.0970097
0.0972548
0.0975016
0.0977509
0.0980034
0.0982596
0.0985199
0.0987843
0.0990532
0.0993266
0.0996046
0.0998874
0.100175
0.100468
0.100765
0.101069
0.101379
0.101695
0.102018
0.102349
0.102686
0.103028
0.103373
0.103717
0.104058
0.104394
0.104728
0.105064
0.105417
0.105809
0.106274
0.106866
0.107662
0.108765
0.110299
0.112387
0.11513
0.118599
0.122828
0.127831
0.133609
0.140158
0.147477
0.155566
0.164435
0.174096
0.184572
0.195891
0.208091
0.221219
0.235332
0.250502
0.266809
0.284353
0.303247
0.323625
0.345641
0.369474
0.395333
0.423459
0.0969095
0.0971531
0.0973983
0.0976461
0.0978972
0.0981519
0.0984106
0.0986736
0.098941
0.0992129
0.0994895
0.0997707
0.100057
0.100348
0.100644
0.100946
0.101253
0.101567
0.101889
0.102217
0.102552
0.102893
0.103237
0.103582
0.103925
0.104262
0.104596
0.10493
0.105276
0.105652
0.106088
0.106633
0.107354
0.10835
0.109739
0.111649
0.114191
0.117447
0.121462
0.126256
0.131831
0.138185
0.145315
0.153223
0.161913
0.171398
0.181699
0.192841
0.204861
0.217805
0.231727
0.246697
0.262793
0.280112
0.298765
0.318883
0.340617
0.364144
0.389668
0.417428
0.447699
0.480804
0.517117
0.55708
0.601209
0.650116
0.704526
0.765303
0.833485
0.910324
0.997342
1.09641
1.20982
1.34045
1.49192
1.66883
1.87709
2.12445
2.42113
2.78092
3.22268
3.77284
4.46928
5.36777
6.55312
8.15916
10.4067
13.6803
18.6934
26.8716
41.2504
69.3149
135.36
343.794
1454.83
0.0968124
0.0970545
0.0972983
0.0975446
0.0977941
0.0980473
0.0983045
0.0985659
0.0988317
0.0991021
0.0993771
0.0996567
0.0999412
0.100231
0.100525
0.100825
0.101131
0.101443
0.101761
0.102087
0.10242
0.10276
0.103103
0.103448
0.103791
0.104131
0.104465
0.104798
0.105138
0.105502
0.105915
0.106419
0.107078
0.107979
0.109239
0.110984
0.113336
0.116386
0.120192
0.12478
0.130157
0.13632
0.143266
0.150995
0.159512
0.168827
0.178958
0.18993
0.201778
0.214545
0.228286
0.243065
0.25896
0.276067
0.294492
0.314365
0.335835
0.359074
0.384285
0.4117
0.441593
0.47428
0.510132
0.549583
0.593142
0.641412
0.695109
0.755085
0.822364
0.89818
0.984035
1.08177
1.19366
1.32253
1.47196
1.64648
1.85194
2.09595
2.38863
2.74356
3.17938
3.72215
4.40925
5.29573
6.46528
8.05004
10.268
13.4989
18.4477
26.5246
40.7427
68.5037
133.889
340.567
1445.63
0.0967184
0.0969591
0.0972015
0.0974463
0.0976944
0.0979461
0.0982018
0.0984617
0.0987259
0.0989947
0.0992682
0.0995463
0.0998291
0.100117
0.10041
0.100708
0.101011
0.101321
0.101638
0.101961
0.102292
0.10263
0.102972
0.103317
0.103661
0.104001
0.104337
0.104669
0.105005
0.105359
0.105753
0.106224
0.106829
0.107649
0.108793
0.110388
0.112561
0.115416
0.11902
0.123407
0.128588
0.134564
0.14133
0.148886
0.157234
0.166383
0.17635
0.187159
0.198841
0.211439
0.225005
0.239602
0.255306
0.27221
0.290419
0.310059
0.331277
0.354242
0.379154
0.406243
0.435776
0.468066
0.503478
0.542441
0.585458
0.633123
0.686141
0.745354
0.811773
0.886615
0.971364
1.06783
1.17827
1.30547
1.45296
1.6252
1.82798
2.06882
2.35769
2.708
3.13815
3.67388
4.35209
5.22713
6.38165
7.94613
10.1359
13.3261
18.2136
26.1938
40.2582
67.7292
132.483
337.479
1436.79
0.0966278
0.0968672
0.0971082
0.0973517
0.0975983
0.0978486
0.0981028
0.0983612
0.098624
0.0988913
0.0991631
0.0994397
0.099721
0.100007
0.100298
0.100594
0.100896
0.101204
0.101518
0.10184
0.102168
0.102504
0.102844
0.103189
0.103533
0.103874
0.104211
0.104543
0.104877
0.105223
0.105602
0.106046
0.106606
0.107355
0.108396
0.109856
0.111863
0.114532
0.117941
0.122134
0.127125
0.132918
0.139509
0.146896
0.155079
0.164068
0.173877
0.184528
0.196051
0.208487
0.221886
0.236309
0.251831
0.268541
0.286545
0.305964
0.326942
0.349648
0.374277
0.401055
0.430247
0.46216
0.497157
0.535657
0.578159
0.625249
0.677623
0.736113
0.801715
0.875633
0.959331
1.0546
1.16366
1.28927
1.43491
1.605
1.80524
2.04306
2.32831
2.67423
3.09901
3.62805
4.29782
5.162
6.30225
7.84749
10.0105
13.1621
17.9913
25.8796
39.7971
66.9922
131.144
334.533
1428.34
0.0965408
0.0967788
0.0970186
0.0972608
0.0975061
0.097755
0.0980078
0.0982648
0.0985261
0.0987919
0.0990623
0.0993374
0.0996171
0.0999017
0.100191
0.100486
0.100786
0.101092
0.101404
0.101723
0.102049
0.102383
0.102722
0.103065
0.103409
0.103752
0.104089
0.104422
0.104754
0.105094
0.105461
0.105883
0.106404
0.107093
0.108045
0.109383
0.111238
0.113732
0.116955
0.120959
0.125766
0.131382
0.137802
0.145025
0.15305
0.161884
0.17154
0.182039
0.19341
0.20569
0.21893
0.233188
0.248537
0.265064
0.282871
0.302081
0.322833
0.345294
0.369654
0.396139
0.425008
0.456566
0.491168
0.529231
0.571246
0.617793
0.669558
0.727364
0.792194
0.865238
0.947943
1.04208
1.14984
1.27394
1.41783
1.58588
1.78371
2.01868
2.3005
2.64228
3.06196
3.58468
4.24646
5.10036
6.22711
7.75413
9.89184
13.0068
17.7809
25.5819
39.3597
66.2931
129.872
331.733
1420.28
0.0964575
0.0966944
0.096933
0.0971739
0.0974179
0.0976655
0.097917
0.0981727
0.0984326
0.098697
0.098966
0.0992396
0.0995179
0.099801
0.100089
0.100382
0.10068
0.100984
0.101294
0.101611
0.101936
0.102267
0.102604
0.102947
0.103291
0.103634
0.103972
0.104306
0.104637
0.104973
0.10533
0.105733
0.106223
0.10686
0.107735
0.108963
0.110679
0.11301
0.116057
0.11988
0.124509
0.129953
0.136208
0.143272
0.151145
0.15983
0.169339
0.179693
0.190918
0.203051
0.216139
0.23024
0.245424
0.261778
0.279401
0.298412
0.318951
0.34118
0.365288
0.391496
0.420061
0.451283
0.485514
0.523166
0.564722
0.610756
0.661948
0.719109
0.783211
0.855431
0.937199
1.03027
1.13679
1.25948
1.40173
1.56785
1.76341
1.99568
2.27428
2.61214
3.02703
3.54378
4.19802
5.04223
6.15623
7.66606
9.77987
12.8604
17.5823
25.301
38.9462
65.6323
128.67
329.081
1412.63
0.0963783
0.0966141
0.0968515
0.0970912
0.097334
0.0975804
0.0978307
0.098085
0.0983437
0.0986067
0.0988744
0.0991466
0.0994235
0.0997052
0.0999917
0.100283
0.10058
0.100882
0.101191
0.101506
0.101828
0.102157
0.102493
0.102834
0.103178
0.103521
0.10386
0.104195
0.104525
0.104859
0.105208
0.105596
0.106059
0.106652
0.10746
0.108592
0.110182
0.112363
0.115242
0.118894
0.123352
0.12863
0.134727
0.141639
0.149364
0.157906
0.167276
0.177491
0.188577
0.20057
0.213514
0.227466
0.242496
0.258686
0.276135
0.29496
0.315298
0.337309
0.361179
0.387127
0.415407
0.446314
0.480197
0.517462
0.558587
0.604141
0.654793
0.711348
0.774767
0.846214
0.927101
1.01916
1.12454
1.24589
1.38659
1.5509
1.74434
1.97408
2.24964
2.58382
2.9942
3.50535
4.1525
4.9876
6.08962
7.5833
9.67464
12.7227
17.3956
25.0367
38.5567
65.01
127.537
326.578
1405.39
0.0963033
0.096538
0.0967743
0.0970129
0.0972546
0.0974999
0.097749
0.0980021
0.0982595
0.0985213
0.0987877
0.0990586
0.0993343
0.0996146
0.0998998
0.10019
0.100485
0.100786
0.101092
0.101406
0.101726
0.102053
0.102387
0.102727
0.10307
0.103413
0.103754
0.104089
0.10442
0.104751
0.105094
0.10547
0.10591
0.106467
0.107217
0.108265
0.109742
0.111783
0.114508
0.117996
0.122292
0.127412
0.133356
0.140122
0.147706
0.156112
0.165349
0.175432
0.186387
0.198247
0.211055
0.224868
0.239751
0.255788
0.273074
0.291724
0.311874
0.333681
0.35733
0.383035
0.411047
0.44166
0.475217
0.51212
0.552843
0.597946
0.648095
0.704083
0.766863
0.837586
0.91765
1.00877
1.11307
1.23318
1.37242
1.53504
1.72648
1.95386
2.22658
2.55732
2.96348
3.46937
4.1099
4.93647
6.02728
7.50584
9.57614
12.5938
17.2209
24.7891
38.1914
64.4265
126.474
324.228
1398.57
0.0962327
0.0964664
0.0967016
0.0969392
0.0971799
0.097424
0.097672
0.097924
0.0981803
0.0984409
0.0987061
0.0989759
0.0992503
0.0995294
0.0998133
0.100102
0.100396
0.100695
0.101
0.101311
0.10163
0.101955
0.102288
0.102626
0.102969
0.103312
0.103653
0.103989
0.10432
0.10465
0.104989
0.105354
0.105776
0.106302
0.107002
0.107976
0.109352
0.111268
0.113848
0.117183
0.121325
0.126294
0.132093
0.13872
0.146171
0.154448
0.163558
0.173517
0.184348
0.196082
0.208764
0.222445
0.237192
0.253085
0.270218
0.288706
0.308681
0.330298
0.353739
0.379218
0.406982
0.43732
0.470574
0.50714
0.547488
0.592173
0.641853
0.697313
0.759498
0.829546
0.908844
0.999088
1.10238
1.22133
1.35923
1.52027
1.70985
1.93502
2.20509
2.53263
2.93486
3.43586
4.07022
4.88884
5.9692
7.43367
9.48437
12.4737
17.058
24.5583
37.8503
63.8819
125.482
322.03
1392.18
0.0961665
0.0963992
0.0966336
0.0968702
0.0971099
0.097353
0.0976
0.097851
0.0981061
0.0983657
0.0986297
0.0988984
0.0991717
0.0994496
0.0997324
0.10002
0.100312
0.10061
0.100914
0.101224
0.10154
0.101864
0.102195
0.102532
0.102874
0.103217
0.103559
0.103896
0.104227
0.104556
0.104891
0.105249
0.105656
0.106155
0.106812
0.107722
0.109009
0.110811
0.113258
0.116451
0.120447
0.125274
0.130936
0.137431
0.144756
0.152911
0.161903
0.171744
0.182459
0.194076
0.206639
0.220198
0.234817
0.250577
0.267569
0.285905
0.305717
0.327158
0.350408
0.375677
0.40321
0.433295
0.466268
0.502522
0.542523
0.58682
0.636065
0.691037
0.752671
0.822094
0.900682
0.990115
1.09247
1.21035
1.347
1.50658
1.69444
1.91756
2.18518
2.50975
2.90833
3.40481
4.03344
4.84469
5.91537
7.36677
9.3993
12.3624
16.907
24.3442
37.5335
63.3763
124.56
319.987
1386.22
0.0961048
0.0963368
0.0965702
0.096806
0.0970447
0.097287
0.097533
0.097783
0.0980372
0.0982957
0.0985588
0.0988264
0.0990986
0.0993755
0.0996571
0.0999436
0.100235
0.100532
0.100834
0.101142
0.101457
0.101779
0.102109
0.102445
0.102785
0.103128
0.10347
0.103808
0.10414
0.104469
0.104801
0.105152
0.105546
0.106024
0.106645
0.1075
0.108707
0.110407
0.112734
0.115794
0.119655
0.124348
0.129882
0.136254
0.14346
0.151501
0.160381
0.170114
0.18072
0.192229
0.20468
0.218126
0.232628
0.248263
0.265125
0.283322
0.302984
0.324262
0.347336
0.372412
0.399733
0.429584
0.462298
0.498265
0.537947
0.581887
0.630732
0.685254
0.74638
0.815228
0.893161
0.981847
1.08335
1.20023
1.33573
1.49397
1.68024
1.90148
2.16684
2.48867
2.88389
3.37619
3.99955
4.80402
5.86577
7.30514
9.32091
12.2598
16.7678
24.1468
37.2411
62.9098
123.709
318.098
1380.7
0.0960479
0.096279
0.0965117
0.0967466
0.0969846
0.097226
0.0974711
0.0977202
0.0979735
0.0982312
0.0984932
0.0987599
0.0990312
0.0993071
0.0995877
0.0998732
0.100164
0.100459
0.10076
0.101067
0.101381
0.101701
0.102029
0.102364
0.102704
0.103046
0.103389
0.103727
0.10406
0.104388
0.104719
0.105065
0.105448
0.105907
0.106498
0.107305
0.108444
0.110053
0.11227
0.11521
0.118946
0.123515
0.128928
0.135185
0.142281
0.150215
0.158993
0.168624
0.17913
0.190538
0.202888
0.216229
0.230622
0.246145
0.262886
0.280956
0.30048
0.32161
0.344522
0.369421
0.396549
0.426186
0.458663
0.494368
0.533757
0.577371
0.62585
0.679961
0.740622
0.808945
0.88628
0.974282
1.075
1.19097
1.32542
1.48243
1.66725
1.88676
2.15006
2.46939
2.86154
3.35002
3.96854
4.7668
5.82039
7.24874
9.24918
12.1659
16.6404
23.9661
36.9731
62.4824
122.929
316.366
1375.63
0.0959957
0.0962261
0.0964581
0.0966923
0.0969295
0.0971701
0.0974145
0.0976628
0.0979153
0.098172
0.0984333
0.0986991
0.0989694
0.0992445
0.0995242
0.0998088
0.100098
0.100393
0.100693
0.100998
0.101311
0.10163
0.101957
0.10229
0.102629
0.102971
0.103314
0.103653
0.103986
0.104315
0.104644
0.104986
0.105361
0.105804
0.106369
0.107135
0.108214
0.109743
0.111862
0.114692
0.118314
0.122769
0.128072
0.134222
0.141217
0.149054
0.157736
0.167274
0.177688
0.189004
0.201261
0.214507
0.228802
0.244221
0.260853
0.278806
0.298206
0.319201
0.341967
0.366706
0.393657
0.423101
0.455364
0.490831
0.529955
0.573272
0.621419
0.675157
0.735397
0.803243
0.880035
0.967417
1.06742
1.18257
1.31607
1.47195
1.65546
1.87341
2.13484
2.45189
2.84125
3.32626
3.94041
4.73303
5.77921
7.19756
9.18408
12.0807
16.5248
23.802
36.7296
62.0941
122.221
314.79
1371.01
0.0959483
0.0961781
0.0964094
0.096643
0.0968795
0.0971195
0.0973631
0.0976108
0.0978625
0.0981185
0.098379
0.098644
0.0989136
0.0991878
0.0994668
0.0997505
0.100039
0.100333
0.100632
0.100936
0.101248
0.101566
0.101891
0.102223
0.102562
0.102903
0.103246
0.103585
0.10392
0.104248
0.104576
0.104915
0.105283
0.105713
0.106256
0.106987
0.108015
0.109474
0.111507
0.114239
0.117757
0.122108
0.12731
0.133364
0.140266
0.148014
0.15661
0.166064
0.176394
0.187627
0.1998
0.212959
0.227165
0.242491
0.259026
0.276874
0.296162
0.317036
0.339669
0.364264
0.391058
0.420327
0.452398
0.487651
0.526537
0.569589
0.617438
0.670841
0.730703
0.79812
0.874425
0.96125
1.06061
1.17503
1.30766
1.46255
1.64487
1.86142
2.12116
2.43617
2.82303
3.30493
3.91514
4.7027
5.74221
7.15157
9.12559
12.0042
16.4208
23.6545
36.5104
61.7448
121.583
313.371
1366.85
0.0959059
0.0961351
0.0963659
0.0965989
0.0968348
0.0970742
0.0973172
0.0975642
0.0978153
0.0980706
0.0983304
0.0985947
0.0988636
0.0991372
0.0994154
0.0996984
0.0999862
0.100279
0.100577
0.100881
0.101191
0.101508
0.101832
0.102164
0.102501
0.102843
0.103185
0.103525
0.10386
0.104189
0.104516
0.104852
0.105214
0.105634
0.106159
0.106861
0.107845
0.109244
0.111201
0.113846
0.117271
0.12153
0.126641
0.132608
0.139427
0.147094
0.155612
0.164991
0.175247
0.186405
0.198502
0.211585
0.225712
0.240955
0.257402
0.275158
0.294346
0.315113
0.337629
0.362097
0.38875
0.417865
0.449765
0.484829
0.523504
0.56632
0.613905
0.66701
0.726537
0.793574
0.869447
0.955777
1.05457
1.16833
1.30021
1.4542
1.63548
1.85078
2.10902
2.42222
2.80685
3.28599
3.89271
4.67577
5.70938
7.11076
9.07368
11.9362
16.3286
23.5235
36.3156
61.4345
121.016
312.11
1363.14
0.0958684
0.0960972
0.0963274
0.0965599
0.0967954
0.0970342
0.0972767
0.0975231
0.0977736
0.0980284
0.0982876
0.0985514
0.0988196
0.0990926
0.0993702
0.0996525
0.0999397
0.100232
0.100529
0.100832
0.101142
0.101458
0.101781
0.102111
0.102448
0.102789
0.103131
0.103472
0.103807
0.104136
0.104463
0.104797
0.105155
0.105566
0.106075
0.106753
0.1077
0.109048
0.11094
0.113509
0.116854
0.12103
0.126061
0.131951
0.138696
0.146293
0.154743
0.164055
0.174245
0.185338
0.197369
0.210384
0.224442
0.239612
0.255983
0.273657
0.292758
0.313431
0.335845
0.360201
0.386733
0.415713
0.447463
0.482362
0.520852
0.563462
0.610817
0.663662
0.722896
0.789601
0.865096
0.950995
1.04929
1.16248
1.29369
1.44691
1.62727
1.84148
2.09842
2.41003
2.79273
3.26945
3.87311
4.65225
5.68069
7.07511
9.02832
11.8768
16.2479
23.409
36.1453
61.1631
120.52
311.005
1359.88
0.0958359
0.0960643
0.0962942
0.0965262
0.0967612
0.0969996
0.0972417
0.0974876
0.0977377
0.097992
0.0982507
0.0985139
0.0987816
0.0990541
0.0993311
0.0996129
0.0998995
0.100191
0.100488
0.10079
0.101099
0.101414
0.101737
0.102066
0.102402
0.102743
0.103085
0.103426
0.103761
0.104091
0.104418
0.10475
0.105104
0.105508
0.106005
0.106663
0.10758
0.108884
0.110721
0.113226
0.116501
0.120607
0.125569
0.131392
0.138073
0.145609
0.154
0.163254
0.173388
0.184424
0.196399
0.209356
0.223354
0.238462
0.254768
0.272372
0.291399
0.311991
0.334318
0.358578
0.385005
0.41387
0.445493
0.480249
0.518583
0.561016
0.608173
0.660797
0.71978
0.786201
0.861373
0.946903
1.04478
1.15748
1.28811
1.44067
1.62024
1.83352
2.08934
2.3996
2.78063
3.25529
3.85634
4.63212
5.65614
7.04458
8.98949
11.826
16.1789
23.3109
35.9993
60.9307
120.096
310.059
1357.09
0.0958086
0.0960366
0.0962661
0.0964978
0.0967325
0.0969705
0.0972122
0.0974577
0.0977074
0.0979613
0.0982196
0.0984823
0.0987497
0.0990217
0.0992983
0.0995797
0.0998658
0.100157
0.100453
0.100755
0.101063
0.101377
0.101699
0.102028
0.102364
0.102704
0.103046
0.103387
0.103723
0.104053
0.10438
0.104711
0.105062
0.10546
0.105947
0.106589
0.107481
0.108751
0.110542
0.112994
0.116211
0.120258
0.125162
0.130929
0.137557
0.145041
0.153383
0.162589
0.172675
0.183664
0.195591
0.2085
0.222448
0.237504
0.253755
0.271302
0.290266
0.310791
0.333045
0.357226
0.383566
0.412335
0.443852
0.47849
0.516692
0.558979
0.605972
0.658411
0.717185
0.78337
0.858273
0.943496
1.04102
1.15331
1.28347
1.43547
1.6144
1.8269
2.08179
2.39092
2.77057
3.2435
3.84238
4.61536
5.6357
7.01918
8.95717
11.7836
16.1215
23.2293
35.8777
60.7371
119.742
309.27
1354.77
0.0957863
0.0960141
0.0962433
0.0964748
0.0967092
0.0969469
0.0971882
0.0974335
0.0976829
0.0979364
0.0981944
0.0984568
0.0987238
0.0989955
0.0992717
0.0995527
0.0998385
0.100129
0.100425
0.100726
0.101034
0.101348
0.101669
0.101998
0.102333
0.102673
0.103015
0.103356
0.103692
0.104022
0.104349
0.104679
0.105028
0.105422
0.105902
0.106531
0.107404
0.108646
0.110402
0.112811
0.115982
0.119981
0.124838
0.13056
0.137145
0.144588
0.15289
0.162057
0.172105
0.183057
0.194945
0.207816
0.221724
0.236739
0.252946
0.270446
0.289361
0.309832
0.332028
0.356146
0.382415
0.411108
0.44254
0.477084
0.515181
0.557351
0.604213
0.656504
0.715112
0.781108
0.855796
0.940773
1.03801
1.14998
1.27976
1.43132
1.60972
1.8216
2.07575
2.38398
2.76252
3.23408
3.83122
4.60196
5.61936
6.99887
8.93134
11.7498
16.0755
23.164
35.7804
60.5823
119.459
308.638
1352.9
0.0957692
0.0959968
0.0962259
0.0964571
0.0966913
0.0969288
0.0971699
0.097415
0.0976641
0.0979174
0.0981751
0.0984373
0.0987041
0.0989755
0.0992515
0.0995322
0.0998177
0.100108
0.100404
0.100705
0.101012
0.101326
0.101646
0.101975
0.102309
0.102649
0.102991
0.103332
0.103669
0.103999
0.104326
0.104655
0.105003
0.105394
0.105868
0.106488
0.107347
0.108568
0.110297
0.112675
0.115811
0.119775
0.124597
0.130285
0.136837
0.144249
0.152521
0.161659
0.171678
0.182601
0.194462
0.207303
0.221181
0.236165
0.252339
0.269804
0.288682
0.309113
0.331266
0.355336
0.381553
0.410188
0.441557
0.476031
0.514049
0.556132
0.602894
0.655075
0.713558
0.779412
0.853939
0.938732
1.03576
1.14748
1.27698
1.42821
1.60622
1.81764
2.07122
2.37878
2.7565
3.22702
3.82286
4.59193
5.60712
6.98366
8.91198
11.7245
16.0411
23.1151
35.7075
60.4662
119.247
308.165
1351.5
0.0957574
0.0959849
0.0962138
0.0964449
0.0966789
0.0969163
0.0971573
0.0974022
0.0976512
0.0979043
0.0981619
0.0984239
0.0986905
0.0989617
0.0992376
0.0995182
0.0998035
0.100094
0.100389
0.10069
0.100997
0.10131
0.101631
0.101959
0.102293
0.102633
0.102975
0.103316
0.103653
0.103983
0.10431
0.104639
0.104986
0.105374
0.105845
0.106459
0.107309
0.108517
0.110228
0.112584
0.115698
0.119637
0.124436
0.130102
0.136632
0.144023
0.152275
0.161394
0.171394
0.182298
0.194139
0.206961
0.220819
0.235782
0.251934
0.269377
0.288229
0.308634
0.330757
0.354796
0.380979
0.409575
0.440901
0.475328
0.513295
0.555318
0.602016
0.654123
0.712522
0.778283
0.852702
0.937373
1.03426
1.14582
1.27513
1.42613
1.60389
1.81499
2.06821
2.37532
2.75248
3.22232
3.81729
4.58524
5.59896
6.97352
8.89908
11.7076
16.0182
23.0825
35.6589
60.3889
119.105
307.849
1350.57
0.0957508
0.0959782
0.0962071
0.0964381
0.0966721
0.0969094
0.0971504
0.0973952
0.0976441
0.0978972
0.0981547
0.0984166
0.0986832
0.0989543
0.0992301
0.0995106
0.0997958
0.100086
0.100381
0.100682
0.100989
0.101302
0.101623
0.10195
0.102285
0.102624
0.102966
0.103307
0.103644
0.103975
0.104301
0.10463
0.104976
0.105364
0.105833
0.106444
0.107289
0.108491
0.110193
0.112539
0.115641
0.119568
0.124355
0.13001
0.136529
0.14391
0.152152
0.161261
0.171251
0.182146
0.193978
0.20679
0.220638
0.235591
0.251732
0.269163
0.288003
0.308394
0.330503
0.354526
0.380691
0.409269
0.440574
0.474978
0.512918
0.554912
0.601577
0.653647
0.712005
0.777719
0.852085
0.936694
1.03351
1.14499
1.27421
1.4251
1.60272
1.81367
2.06671
2.37359
2.75047
3.21997
3.81451
4.5819
5.59489
6.96845
8.89264
11.6991
16.0067
23.0662
35.6346
60.3502
119.035
307.691
1350.1
0.0957495
0.0959769
0.0962058
0.0964369
0.0966708
0.0969082
0.0971491
0.097394
0.0976429
0.097896
0.0981535
0.0984155
0.098682
0.0989532
0.099229
0.0995095
0.0997947
0.100085
0.10038
0.100681
0.100988
0.101301
0.101622
0.101949
0.102284
0.102623
0.102965
0.103306
0.103643
0.103974
0.1043
0.104629
0.104976
0.105363
0.105832
0.106444
0.107288
0.10849
0.110193
0.112538
0.11564
0.119568
0.124355
0.130009
0.136529
0.14391
0.152151
0.16126
0.171251
0.182146
0.193977
0.20679
0.220638
0.23559
0.251732
0.269163
0.288003
0.308394
0.330504
0.354526
0.380692
0.409269
0.440574
0.474978
0.512918
0.554913
0.601577
0.653648
0.712006
0.777719
0.852085
0.936694
1.03351
1.14499
1.27421
1.4251
1.60272
1.81368
2.06671
2.37359
2.75047
3.21997
3.81451
4.5819
5.59489
6.96846
8.89264
11.6991
16.0067
23.0662
35.6346
60.3503
119.035
307.692
1350.1
0.0957534
0.0959809
0.0962099
0.0964411
0.0966752
0.0969126
0.0971536
0.0973986
0.0976476
0.0979008
0.0981584
0.0984205
0.0986871
0.0989584
0.0992343
0.0995149
0.0998003
0.100091
0.100386
0.100687
0.100994
0.101307
0.101628
0.101956
0.10229
0.10263
0.102972
0.103313
0.10365
0.10398
0.104307
0.104636
0.104983
0.105372
0.105842
0.106457
0.107306
0.108514
0.110226
0.112582
0.115695
0.119635
0.124434
0.1301
0.13663
0.144021
0.152273
0.161392
0.171392
0.182297
0.194138
0.20696
0.220818
0.235781
0.251934
0.269376
0.288229
0.308634
0.330757
0.354796
0.380979
0.409576
0.440902
0.475329
0.513296
0.55532
0.602017
0.654124
0.712524
0.778285
0.852704
0.937375
1.03426
1.14582
1.27514
1.42614
1.60389
1.815
2.06821
2.37532
2.75248
3.22232
3.8173
4.58525
5.59897
6.97353
8.89909
11.7076
16.0182
23.0825
35.6589
60.389
119.106
307.85
1350.57
0.0957627
0.0959903
0.0962194
0.0964508
0.096685
0.0969226
0.0971638
0.097409
0.0976581
0.0979116
0.0981693
0.0984316
0.0986984
0.0989699
0.099246
0.0995268
0.0998123
0.100103
0.100398
0.100699
0.101007
0.101321
0.101641
0.10197
0.102304
0.102644
0.102986
0.103327
0.103664
0.103995
0.104321
0.104651
0.104998
0.105389
0.105863
0.106484
0.107342
0.108564
0.110293
0.112671
0.115807
0.119771
0.124593
0.130282
0.136834
0.144246
0.152518
0.161656
0.171676
0.182599
0.19446
0.207301
0.221179
0.236163
0.252338
0.269804
0.288681
0.309113
0.331266
0.355336
0.381554
0.410189
0.441557
0.476032
0.51405
0.556133
0.602896
0.655077
0.71356
0.779415
0.853942
0.938735
1.03576
1.14748
1.27699
1.42821
1.60622
1.81764
2.07123
2.37879
2.7565
3.22703
3.82287
4.59194
5.60713
6.98367
8.912
11.7245
16.0411
23.1151
35.7076
60.4664
119.247
308.165
1351.5
0.0957772
0.0960051
0.0962344
0.096466
0.0967005
0.0969383
0.0971798
0.0974251
0.0976746
0.0979283
0.0981863
0.0984488
0.0987159
0.0989877
0.099264
0.0995451
0.099831
0.100122
0.100418
0.100719
0.101027
0.101341
0.101662
0.101991
0.102326
0.102666
0.103008
0.103349
0.103686
0.104016
0.104343
0.104673
0.105022
0.105416
0.105896
0.106525
0.107398
0.10864
0.110396
0.112805
0.115976
0.119976
0.124833
0.130556
0.137141
0.144584
0.152886
0.162054
0.172102
0.183053
0.194943
0.207813
0.221721
0.236737
0.252944
0.270445
0.28936
0.309831
0.332028
0.356146
0.382416
0.411108
0.442541
0.477086
0.515183
0.557353
0.604215
0.656506
0.715114
0.781111
0.855799
0.940776
1.03802
1.14998
1.27977
1.43132
1.60973
1.82161
2.07576
2.38399
2.76253
3.23409
3.83124
4.60198
5.61938
6.9989
8.93137
11.7499
16.0756
23.1641
35.7805
60.5825
119.459
308.639
1352.9
0.095797
0.0960252
0.0962548
0.0964867
0.0967215
0.0969596
0.0972014
0.0974471
0.0976969
0.0979509
0.0982093
0.0984722
0.0987397
0.0990118
0.0992885
0.09957
0.0998562
0.100147
0.100444
0.100746
0.101054
0.101368
0.10169
0.10202
0.102355
0.102696
0.103038
0.103379
0.103715
0.104045
0.104372
0.104703
0.105054
0.105452
0.10594
0.106582
0.107474
0.108743
0.110535
0.112987
0.116204
0.120251
0.125155
0.130923
0.137551
0.145035
0.153377
0.162584
0.17267
0.18366
0.195587
0.208497
0.222445
0.237502
0.253753
0.2713
0.290265
0.31079
0.333045
0.357226
0.383566
0.412335
0.443852
0.478492
0.516694
0.558981
0.605974
0.658413
0.717188
0.783374
0.858277
0.9435
1.04102
1.15331
1.28348
1.43548
1.6144
1.82691
2.0818
2.39093
2.77058
3.24351
3.8424
4.61538
5.63572
7.01921
8.95721
11.7837
16.1215
23.2294
35.8778
60.7373
119.742
309.27
1354.77
0.095822
0.0960506
0.0962806
0.0965128
0.096748
0.0969865
0.0972287
0.0974748
0.097725
0.0979794
0.0982383
0.0985016
0.0987695
0.0990421
0.0993193
0.0996012
0.0998879
0.10018
0.100476
0.100779
0.101088
0.101403
0.101726
0.102056
0.102392
0.102732
0.103075
0.103415
0.103751
0.104081
0.104408
0.10474
0.105095
0.105499
0.105996
0.106654
0.107571
0.108875
0.110712
0.113217
0.116493
0.120599
0.125561
0.131385
0.138066
0.145602
0.153994
0.163248
0.173382
0.184419
0.196394
0.209352
0.22335
0.238459
0.254765
0.27237
0.291397
0.311989
0.334317
0.358578
0.385005
0.41387
0.445494
0.480251
0.518584
0.561018
0.608176
0.6608
0.719783
0.786205
0.861377
0.946908
1.04478
1.15748
1.28812
1.44067
1.62025
1.83353
2.08935
2.39962
2.78065
3.2553
3.85636
4.63214
5.65617
7.04462
8.98954
11.826
16.179
23.311
35.9995
60.931
120.096
310.06
1357.1
0.0958522
0.0960812
0.0963116
0.0965443
0.0967799
0.0970189
0.0972615
0.0975081
0.0977588
0.0980138
0.0982731
0.098537
0.0988055
0.0990786
0.0993563
0.0996388
0.0999261
0.100218
0.100516
0.100819
0.101129
0.101445
0.101768
0.102099
0.102436
0.102777
0.103119
0.10346
0.103795
0.104125
0.104452
0.104786
0.105144
0.105555
0.106064
0.106742
0.10769
0.109037
0.110929
0.113499
0.116844
0.12102
0.126052
0.131942
0.138687
0.146285
0.154735
0.164047
0.174238
0.185331
0.197363
0.210379
0.224437
0.239608
0.25598
0.273654
0.292756
0.313429
0.335844
0.360201
0.386732
0.415713
0.447464
0.482363
0.520854
0.563465
0.61082
0.663666
0.7229
0.789606
0.865102
0.951002
1.0493
1.16249
1.2937
1.44692
1.62728
1.84149
2.09843
2.41005
2.79274
3.26947
3.87314
4.65228
5.68073
7.07515
9.02838
11.8769
16.248
23.4091
36.1455
61.1635
120.521
311.007
1359.89
0.0958875
0.0961169
0.0963479
0.0965811
0.0968172
0.0970567
0.0973
0.0975471
0.0977984
0.0980539
0.0983139
0.0985784
0.0988475
0.0991212
0.0993996
0.0996827
0.0999707
0.100264
0.100562
0.100866
0.101176
0.101494
0.101818
0.102149
0.102487
0.102829
0.103171
0.103511
0.103846
0.104175
0.104503
0.104839
0.105201
0.105621
0.106146
0.106848
0.107833
0.109231
0.111189
0.113834
0.11726
0.121518
0.12663
0.132597
0.139416
0.147084
0.155603
0.164982
0.175239
0.186398
0.198496
0.211579
0.225707
0.240951
0.257398
0.275155
0.294343
0.315111
0.337628
0.362096
0.38875
0.417866
0.449766
0.48483
0.523506
0.566322
0.613908
0.667014
0.726542
0.79358
0.869453
0.955785
1.05458
1.16834
1.30022
1.45421
1.63549
1.85079
2.10904
2.42224
2.80688
3.28602
3.89274
4.67581
5.70942
7.11082
9.07375
11.9363
16.3287
23.5236
36.3159
61.4349
121.017
312.111
1363.14
0.0959279
0.0961579
0.0963894
0.0966232
0.0968599
0.0971
0.0973439
0.0975917
0.0978436
0.0980998
0.0983605
0.0986257
0.0988955
0.0991699
0.099449
0.0997329
0.100022
0.100315
0.100615
0.10092
0.101231
0.101549
0.101875
0.102207
0.102546
0.102888
0.10323
0.10357
0.103904
0.104233
0.104561
0.1049
0.105268
0.105699
0.106242
0.106973
0.108001
0.109461
0.111494
0.114226
0.117744
0.122096
0.127298
0.133352
0.140255
0.148003
0.156599
0.166054
0.176385
0.187619
0.199792
0.212952
0.227159
0.242486
0.259021
0.27687
0.296159