/*--------------------------------*- C++ -*----------------------------------*\
  =========                 |
  \\      /  F ield         | OpenFOAM: The Open Source CFD Toolbox
   \\    /   O peration     | Website:  https://openfoam.org
    \\  /    A nd           | Version:  7
     \\/     M anipulation  |
\*---------------------------------------------------------------------------*/
FoamFile
{
    version     2.0;
    format      ascii;
    class       volScalarField;
    location    "144000";
    object      strainRate;
}
// * * * * * * * * * * * * * * * * * * * * * * * * * * * * * * * * * * * * * //

dimensions      [0 0 -1 0 0 0 0];

internalField   nonuniform List<scalar> 
4825
(
0.033013
0.0326857
0.0337274
0.0333881
0.0330994
0.0328249
0.0325633
0.0344629
0.0341177
0.0338183
0.0335337
0.0332622
0.0352194
0.0348711
0.0345636
0.0342701
0.0339893
0.0359974
0.035646
0.0353319
0.0350312
0.0347429
0.0367973
0.0364421
0.0361221
0.0358147
0.0355199
0.0376198
0.0372599
0.036934
0.0366203
0.0363192
0.0384658
0.0381003
0.0377682
0.0374483
0.0371409
0.0393362
0.0389644
0.0386258
0.0382993
0.0379856
0.0402323
0.0398534
0.039508
0.0391747
0.0388544
0.0411551
0.0407688
0.040416
0.0400755
0.0397484
0.0421061
0.0417118
0.0413512
0.0410033
0.0406689
0.0430867
0.0426839
0.0423151
0.0419593
0.0416173
0.0440984
0.0436867
0.0433093
0.0429451
0.0451427
0.0447217
0.0443352
0.0439624
0.0462213
0.0457906
0.0453946
0.0450126
0.047336
0.0468951
0.0464891
0.0484886
0.0480371
0.0476207
0.049681
0.0492184
0.0509155
0.0504413
0.052194
0.0517077
0.0535191
0.0530202
0.0548931
0.054381
0.0563187
0.0244338
0.0241922
0.023989
0.0237926
0.0236033
0.0234215
0.0232477
0.0230819
0.0229246
0.0227758
0.0226358
0.0225046
0.0223824
0.0222693
0.0221653
0.0220706
0.0219852
0.0219092
0.0218426
0.0217854
0.0249123
0.0246675
0.0244607
0.0242607
0.0240679
0.0238828
0.0237058
0.0235371
0.023377
0.0232256
0.023083
0.0229496
0.0228252
0.0227101
0.0226043
0.022508
0.0224211
0.0223438
0.022276
0.0222178
0.0254018
0.0251538
0.0249432
0.0247395
0.0245432
0.0243547
0.0241744
0.0240027
0.0238396
0.0236855
0.0235404
0.0234045
0.023278
0.0231608
0.0230532
0.0229552
0.0228668
0.0227881
0.0227191
0.0226599
0.0259028
0.0256514
0.025437
0.0252294
0.0250294
0.0248375
0.0246539
0.0244789
0.0243129
0.024156
0.0240083
0.0238699
0.0237411
0.0236219
0.0235123
0.0234125
0.0233225
0.0232424
0.0231723
0.0231121
0.0264156
0.0261608
0.0259424
0.0257309
0.0255271
0.0253315
0.0251445
0.0249663
0.0247972
0.0246374
0.024487
0.0243461
0.0242149
0.0240935
0.023982
0.0238804
0.0237888
0.0237073
0.0236359
0.0235746
0.0269407
0.0266824
0.0264598
0.0262443
0.0260366
0.0258373
0.0256467
0.0254652
0.0252929
0.0251301
0.0249769
0.0248334
0.0246999
0.0245762
0.0244627
0.0243592
0.024266
0.024183
0.0241102
0.0240479
0.0274785
0.0272167
0.0269898
0.0267701
0.0265584
0.0263552
0.026161
0.025976
0.0258005
0.0256346
0.0254785
0.0253324
0.0251963
0.0250704
0.0249547
0.0248494
0.0247544
0.0246699
0.0245958
0.0245323
0.0280294
0.0277641
0.0275328
0.0273087
0.0270929
0.0268858
0.0266878
0.0264993
0.0263204
0.0261513
0.0259923
0.0258434
0.0257047
0.0255765
0.0254586
0.0253513
0.0252546
0.0251685
0.025093
0.0250283
0.0249744
0.0249312
0.0248987
0.0248771
0.0248663
0.0248663
0.0248771
0.0248987
0.0249312
0.0249744
0.0250283
0.025093
0.0251685
0.0252546
0.0253513
0.028594
0.0283252
0.0280893
0.0278607
0.0276405
0.0274294
0.0272275
0.0270353
0.026853
0.0266807
0.0265186
0.0263668
0.0262256
0.0260949
0.0259748
0.0258654
0.0257669
0.0256792
0.0256023
0.0255364
0.0254814
0.0254374
0.0254044
0.0253824
0.0253713
0.0253713
0.0253824
0.0254044
0.0254374
0.0254814
0.0255364
0.0256023
0.0256792
0.0257669
0.0258654
0.0259748
0.0260949
0.0291728
0.0289004
0.0286597
0.0284265
0.0282019
0.0279866
0.0277807
0.0275847
0.0273988
0.0272232
0.0270579
0.0269033
0.0267593
0.026626
0.0265037
0.0263922
0.0262918
0.0262024
0.0261241
0.0260569
0.0260009
0.0259561
0.0259224
0.0259
0.0258888
0.0258888
0.0259
0.0259224
0.0259561
0.0260009
0.0260569
0.0261241
0.0262024
0.0262918
0.0263922
0.0265037
0.026626
0.0267593
0.0297662
0.0294904
0.0292447
0.0290066
0.0287775
0.0285578
0.0283479
0.028148
0.0279584
0.0277793
0.0276108
0.0274531
0.0273063
0.0271705
0.0270458
0.0269322
0.0268298
0.0267387
0.0266589
0.0265904
0.0265333
0.0264876
0.0264533
0.0264305
0.026419
0.026419
0.0264305
0.0264533
0.0264876
0.0265333
0.0265904
0.0266589
0.0267387
0.0268298
0.0269322
0.0270458
0.0271705
0.0273063
0.0274531
0.0276108
0.030375
0.0300957
0.0298447
0.0296017
0.0293678
0.0291437
0.0289295
0.0287256
0.0285322
0.0283496
0.0281778
0.028017
0.0278673
0.0277288
0.0276016
0.0274858
0.0273814
0.0272885
0.0272072
0.0271374
0.0270792
0.0270326
0.0269976
0.0269743
0.0269627
0.0269627
0.0269743
0.0269976
0.0270326
0.0270792
0.0271374
0.0272072
0.0272885
0.0273814
0.0274858
0.0276016
0.0277288
0.0278673
0.0280169
0.0281778
0.0283496
0.0285322
0.0310011
0.0307169
0.0304603
0.0302122
0.0299735
0.0297448
0.0295262
0.0293182
0.0291209
0.0289346
0.0287593
0.0285953
0.0284426
0.0283014
0.0281717
0.0280536
0.0279471
0.0278524
0.0277695
0.0276983
0.027639
0.0275914
0.0275558
0.027532
0.0275202
0.0275202
0.027532
0.0275558
0.0275915
0.027639
0.0276983
0.0277695
0.0278524
0.0279471
0.0280536
0.0281717
0.0283014
0.0284426
0.0285953
0.0287593
0.0289346
0.0291209
0.0293182
0.0295262
0.0297448
0.0316488
0.0313547
0.0310922
0.0308388
0.0305951
0.0303616
0.0301386
0.0299263
0.029725
0.0295348
0.0293561
0.0291887
0.0290329
0.0288889
0.0287566
0.0286361
0.0285275
0.0284309
0.0283463
0.0282738
0.0282132
0.0281648
0.0281284
0.0281042
0.0280921
0.0280921
0.0281042
0.0281284
0.0281648
0.0282132
0.0282738
0.0283463
0.0284309
0.0285275
0.0286361
0.0287566
0.0288889
0.0290329
0.0291887
0.0293561
0.0295348
0.029725
0.0299263
0.0301385
0.0303616
0.0305951
0.0308388
0.0323197
0.0320097
0.031741
0.0314821
0.0312332
0.0309949
0.0307672
0.0305505
0.030345
0.030151
0.0299686
0.0297978
0.0296388
0.0294919
0.0293569
0.0292339
0.0291232
0.0290247
0.0289384
0.0288643
0.0288026
0.0287531
0.0287161
0.0286913
0.028679
0.028679
0.0286913
0.0287161
0.0287531
0.0288026
0.0288643
0.0289384
0.0290246
0.0291232
0.0292339
0.0293569
0.0294919
0.0296388
0.0297978
0.0299686
0.030151
0.030345
0.0305505
0.0307672
0.0309949
0.0312332
0.0314821
0.031741
0.0320097
0.0323197
0.033013
0.0326857
0.0324085
0.0321429
0.0318886
0.0316452
0.0314127
0.0311915
0.0309817
0.0307837
0.0305975
0.0304231
0.0302609
0.030111
0.0299732
0.0298477
0.0297347
0.0296342
0.0295461
0.0294705
0.0294075
0.0293571
0.0293193
0.0292941
0.0292815
0.0292815
0.0292941
0.0293193
0.0293571
0.0294075
0.0294705
0.0295461
0.0296342
0.0297347
0.0298477
0.0299732
0.030111
0.0302609
0.0304231
0.0305975
0.0307837
0.0309817
0.0311915
0.0314127
0.0316452
0.0318886
0.0321429
0.0324084
0.0326857
0.033013
0.0337274
0.0333881
0.0330994
0.0328249
0.0325633
0.0323134
0.0320758
0.03185
0.0316357
0.0314335
0.0312434
0.0310654
0.0308999
0.0307468
0.0306061
0.0304781
0.0303627
0.0302601
0.0301703
0.0300931
0.0300288
0.0299774
0.0299388
0.029913
0.0299001
0.0299001
0.029913
0.0299388
0.0299774
0.0300288
0.0300931
0.0301702
0.0302601
0.0303627
0.0304781
0.0306061
0.0307468
0.0308999
0.0310654
0.0312434
0.0314335
0.0316357
0.03185
0.0320758
0.0323134
0.0325633
0.0328249
0.0330994
0.0333881
0.0337274
0.0344629
0.0341177
0.0338183
0.0335337
0.0332622
0.0330036
0.0327591
0.0325269
0.0323078
0.0321013
0.0319071
0.0317254
0.0315563
0.0314
0.0312564
0.0311257
0.0310079
0.0309032
0.0308114
0.0307327
0.030667
0.0306145
0.0305751
0.0305488
0.0305357
0.0305357
0.0305488
0.0305751
0.0306145
0.030667
0.0307327
0.0308114
0.0309031
0.0310079
0.0311257
0.0312564
0.0314
0.0315563
0.0317254
0.0319071
0.0321013
0.0323078
0.0325269
0.0327591
0.0330036
0.0332622
0.0335337
0.0338183
0.0341177
0.0344629
0.0352194
0.0348711
0.0345636
0.0342701
0.0339893
0.0337215
0.0334677
0.033227
0.0330013
0.0327888
0.0325895
0.0324037
0.032231
0.0320714
0.0319247
0.0317912
0.031671
0.031564
0.0314703
0.0313899
0.0313229
0.0312693
0.031229
0.0312022
0.0311888
0.0311888
0.0312022
0.031229
0.0312693
0.0313229
0.0313899
0.0314703
0.031564
0.031671
0.0317912
0.0319247
0.0320714
0.032231
0.0324037
0.0325895
0.0327888
0.0330012
0.033227
0.0334677
0.0337215
0.0339893
0.0342701
0.0345636
0.0348711
0.0352194
0.0359974
0.035646
0.0353319
0.0350312
0.0347429
0.0344674
0.0342048
0.0339557
0.0337215
0.0335011
0.0332947
0.0331036
0.032926
0.032762
0.0326119
0.0324755
0.0323527
0.0322434
0.0321477
0.0320656
0.0319971
0.0319424
0.0319013
0.0318739
0.0318602
0.0318602
0.0318739
0.0319013
0.0319424
0.0319971
0.0320656
0.0321477
0.0322434
0.0323527
0.0324755
0.0326119
0.0327619
0.032926
0.0331036
0.0332947
0.0335011
0.0337215
0.0339557
0.0342048
0.0344674
0.0347429
0.0350312
0.0353319
0.035646
0.0359974
0.0367973
0.0364421
0.0361221
0.0358148
0.0355199
0.0352378
0.0349683
0.0347125
0.0344705
0.0342424
0.0340289
0.0338306
0.0336463
0.0334763
0.0333218
0.0331815
0.0330552
0.0329428
0.0328445
0.0327606
0.0326906
0.0326347
0.0325927
0.0325647
0.0325507
0.0325507
0.0325647
0.0325927
0.0326347
0.0326906
0.0327606
0.0328445
0.0329428
0.0330552
0.0331815
0.0333218
0.0334763
0.0336463
0.0338306
0.0340289
0.0342424
0.0344704
0.0347125
0.0349683
0.0352377
0.0355199
0.0358148
0.0361221
0.0364421
0.0367973
0.0376198
0.0372599
0.036934
0.0366203
0.0363192
0.0360309
0.0357555
0.0354938
0.0352455
0.0350115
0.0347919
0.0345867
0.0343962
0.0342204
0.0340602
0.0339147
0.0337837
0.0336672
0.0335654
0.033479
0.0334071
0.0333496
0.0333064
0.0332776
0.0332632
0.0332632
0.0332776
0.0333064
0.0333496
0.0334071
0.033479
0.0335654
0.0336672
0.0337837
0.0339147
0.0340602
0.0342204
0.0343962
0.0345867
0.0347919
0.0350115
0.0352455
0.0354938
0.0357555
0.0360309
0.0363192
0.0366203
0.036934
0.0372599
0.0376198
0.0384658
0.0381003
0.0377682
0.0374483
0.0371409
0.0368466
0.0365654
0.0362981
0.0360443
0.035805
0.0355802
0.0353697
0.0351742
0.0349937
0.0348281
0.0346777
0.0345422
0.0344218
0.0343166
0.034227
0.0341524
0.0340928
0.034048
0.0340182
0.0340033
0.0340033
0.0340182
0.034048
0.0340928
0.0341524
0.034227
0.0343166
0.0344218
0.0345422
0.0346777
0.0348281
0.0349937
0.0351742
0.0353697
0.0355802
0.035805
0.0360443
0.0362981
0.0365654
0.0368466
0.0371409
0.0374483
0.0377682
0.0381003
0.0384658
0.0393362
0.0389644
0.0386259
0.0382993
0.0379857
0.0376852
0.0373982
0.0371253
0.0368663
0.0366219
0.0363922
0.0361771
0.0359771
0.0357924
0.0356226
0.0354682
0.0353292
0.0352057
0.0350976
0.035005
0.0349279
0.0348662
0.03482
0.0347891
0.0347737
0.0347737
0.0347891
0.03482
0.0348662
0.0349279
0.035005
0.0350976
0.0352057
0.0353292
0.0354682
0.0356226
0.0357924
0.0359771
0.0361771
0.0363922
0.0366219
0.0368663
0.0371253
0.0373982
0.0376852
0.0379856
0.0382993
0.0386258
0.0389644
0.0393362
0.0402323
0.0398534
0.039508
0.0391747
0.0388544
0.0385476
0.0382547
0.0379761
0.0377118
0.0374623
0.0372278
0.0370082
0.036804
0.0366153
0.0364417
0.0362838
0.0361417
0.0360153
0.0359047
0.0358097
0.0357305
0.0356673
0.0356198
0.0355881
0.0355723
0.0355723
0.0355881
0.0356198
0.0356672
0.0357305
0.0358097
0.0359047
0.0360153
0.0361417
0.0362838
0.0364417
0.0366153
0.036804
0.0370082
0.0372278
0.0374623
0.0377118
0.0379761
0.0382547
0.0385476
0.0388544
0.0391747
0.039508
0.0398534
0.0402323
0.0411551
0.0407688
0.040416
0.0400755
0.0397484
0.039435
0.0391359
0.0388513
0.0385815
0.0383269
0.0380875
0.0378634
0.0376549
0.0374622
0.037285
0.0371238
0.0369786
0.0368494
0.0367364
0.0366393
0.0365584
0.0364936
0.0364451
0.0364127
0.0363965
0.0363965
0.0364127
0.0364451
0.0364936
0.0365584
0.0366393
0.0367364
0.0368494
0.0369786
0.0371238
0.037285
0.0374622
0.0376549
0.0378634
0.0380875
0.0383269
0.0385815
0.0388513
0.0391359
0.039435
0.0397484
0.0400755
0.040416
0.0407688
0.0411551
0.0421061
0.0417118
0.0413512
0.0410033
0.0406689
0.0403486
0.040043
0.0397523
0.0394768
0.0392167
0.0389722
0.0387434
0.0385306
0.0383338
0.038153
0.0379883
0.0378401
0.0377082
0.0375928
0.0374936
0.0374109
0.0373448
0.0372952
0.0372621
0.0372456
0.0372456
0.0372621
0.0372952
0.0373448
0.0374109
0.0374936
0.0375928
0.0377082
0.0378401
0.0379883
0.038153
0.0383338
0.0385306
0.0387434
0.0389722
0.0392167
0.0394768
0.0397523
0.040043
0.0403486
0.0406689
0.0410033
0.0413512
0.0417118
0.0421061
0.0430867
0.0426839
0.0423152
0.0419593
0.0416173
0.0412899
0.0409774
0.0406803
0.0403988
0.040133
0.0398833
0.0396496
0.0394322
0.0392312
0.0390465
0.0388784
0.038727
0.0385923
0.0384744
0.0383732
0.0382887
0.0382212
0.0381705
0.0381368
0.0381199
0.0381199
0.0381368
0.0381705
0.0382212
0.0382887
0.0383732
0.0384744
0.0385923
0.038727
0.0388784
0.0390465
0.0392312
0.0394322
0.0396496
0.0398833
0.040133
0.0403988
0.0406803
0.0409774
0.0412899
0.0416173
0.0419593
0.0423151
0.0426839
0.0430867
0.0440984
0.0436867
0.0433093
0.0429451
0.0425952
0.0422603
0.0419407
0.0416368
0.0413489
0.0410773
0.040822
0.0405832
0.040361
0.0401556
0.0399669
0.0397951
0.0396405
0.0395029
0.0393824
0.039279
0.0391928
0.0391238
0.039072
0.0390375
0.0390203
0.0390203
0.0390375
0.039072
0.0391238
0.0391928
0.039279
0.0393824
0.0395029
0.0396405
0.0397951
0.0399669
0.0401556
0.040361
0.0405832
0.040822
0.0410773
0.0413489
0.0416368
0.0419407
0.0422603
0.0425952
0.0429451
0.0433093
0.0436867
0.0440984
0.0451427
0.0447217
0.0443352
0.0439624
0.0436042
0.0432613
0.0429343
0.0426234
0.0423289
0.042051
0.0417899
0.0415457
0.0413185
0.0411084
0.0409156
0.04074
0.0405819
0.0404412
0.0403181
0.0402124
0.0401243
0.0400538
0.0400009
0.0399657
0.039948
0.039948
0.0399657
0.0400009
0.0400538
0.0401243
0.0402124
0.0403181
0.0404412
0.0405819
0.04074
0.0409156
0.0411084
0.0413185
0.0415457
0.0417899
0.042051
0.0423289
0.0426233
0.0429343
0.0432613
0.0436042
0.0439624
0.0443352
0.0447217
0.0451427
0.0462213
0.0457906
0.0453946
0.0450127
0.0446458
0.0442947
0.0439598
0.0436415
0.0433401
0.0430557
0.0427885
0.0425387
0.0423062
0.0420913
0.041894
0.0417145
0.0415528
0.0414089
0.0412829
0.0411749
0.0410848
0.0410127
0.0409586
0.0409226
0.0409046
0.0409046
0.0409226
0.0409586
0.0410127
0.0410848
0.0411749
0.0412829
0.0414089
0.0415528
0.0417145
0.041894
0.0420913
0.0423062
0.0425387
0.0427885
0.0430557
0.0433401
0.0436415
0.0439598
0.0442947
0.0446458
0.0450126
0.0453946
0.0457906
0.0462213
0.047336
0.0468951
0.0464891
0.0460977
0.0457218
0.0453621
0.0450191
0.0446931
0.0443844
0.0440932
0.0438196
0.0435638
0.0433259
0.0431059
0.042904
0.0427202
0.0425547
0.0424075
0.0422786
0.0421681
0.0420759
0.0420021
0.0419468
0.0419099
0.0418915
0.0418915
0.0419099
0.0419468
0.0420021
0.0420759
0.0421681
0.0422786
0.0424075
0.0425547
0.0427202
0.042904
0.0431059
0.0433259
0.0435638
0.0438196
0.0440932
0.0443844
0.0446931
0.0450191
0.0453621
0.0457218
0.0460977
0.0464891
0.0468951
0.047336
0.0484886
0.0480371
0.0476207
0.0472194
0.046834
0.0464653
0.0461138
0.0457797
0.0454634
0.0451651
0.0448849
0.0446229
0.0443792
0.0441539
0.0439471
0.0437589
0.0435895
0.0434387
0.0433068
0.0431936
0.0430992
0.0430237
0.0429671
0.0429294
0.0429105
0.0429105
0.0429294
0.0429671
0.0430237
0.0430992
0.0431936
0.0433068
0.0434387
0.0435895
0.0437589
0.0439471
0.0441539
0.0443792
0.0446229
0.0448849
0.0451651
0.0454634
0.0457797
0.0461138
0.0464653
0.046834
0.0472194
0.0476207
0.0480371
0.0484886
0.0496811
0.0492184
0.0487912
0.0483796
0.0479843
0.0476063
0.0472458
0.0469034
0.0465791
0.0462734
0.0459862
0.0457177
0.045468
0.0452371
0.0450253
0.0448325
0.0446588
0.0445044
0.0443692
0.0442533
0.0441566
0.0440793
0.0440213
0.0439826
0.0439633
0.0439633
0.0439826
0.0440213
0.0440793
0.0441566
0.0442533
0.0443692
0.0445044
0.0446588
0.0448325
0.0450253
0.0452371
0.045468
0.0457177
0.0459862
0.0462734
0.0465791
0.0469034
0.0472458
0.0476063
0.0479843
0.0483796
0.0487912
0.0492184
0.049681
0.0509155
0.0504413
0.0500028
0.0495803
0.0491748
0.0487869
0.0484172
0.048066
0.0477335
0.0474199
0.0471255
0.0468502
0.0465942
0.0463575
0.0461403
0.0459427
0.0457647
0.0456064
0.0454678
0.045349
0.04525
0.0451707
0.0451113
0.0450717
0.0450519
0.0450519
0.0450717
0.0451113
0.0451707
0.04525
0.045349
0.0454678
0.0456064
0.0457647
0.0459427
0.0461403
0.0463575
0.0465942
0.0468502
0.0471255
0.0474199
0.0477335
0.048066
0.0484172
0.0487869
0.0491748
0.0495803
0.0500028
0.0504413
0.0509155
0.0521941
0.0517077
0.0512575
0.0508238
0.0504075
0.0500094
0.04963
0.0492696
0.0489285
0.0486069
0.0483048
0.0480224
0.0477598
0.0475171
0.0472943
0.0470916
0.0469091
0.0467468
0.0466047
0.0464828
0.0463813
0.0463
0.0462391
0.0461984
0.0461781
0.0461781
0.0461984
0.0462391
0.0463
0.0463813
0.0464828
0.0466047
0.0467468
0.0469091
0.0470916
0.0472943
0.0475171
0.0477598
0.0480224
0.0483048
0.0486069
0.0489285
0.0492696
0.04963
0.0500094
0.0504075
0.0508238
0.0512575
0.0517077
0.052194
0.0535191
0.0530202
0.0525577
0.0521122
0.0516848
0.0512761
0.0508866
0.0505166
0.0501665
0.0498363
0.0495263
0.0492365
0.048967
0.0487179
0.0484894
0.0482814
0.0480941
0.0479275
0.0477818
0.0476568
0.0475526
0.0474692
0.0474067
0.047365
0.0473442
0.0473442
0.047365
0.0474067
0.0474692
0.0475526
0.0476568
0.0477818
0.0479275
0.0480941
0.0482814
0.0484894
0.0487179
0.048967
0.0492365
0.0495263
0.0498363
0.0501665
0.0505166
0.0508866
0.0512761
0.0516848
0.0521122
0.0525577
0.0530202
0.0535191
0.0548931
0.054381
0.0539057
0.053448
0.0530089
0.0525891
0.0521891
0.0518092
0.0514496
0.0511107
0.0507923
0.0504948
0.0502181
0.0499624
0.0497277
0.0495142
0.049322
0.049151
0.0490014
0.0488731
0.0487662
0.0486806
0.0486164
0.0485736
0.0485523
0.0485523
0.0485736
0.0486164
0.0486806
0.0487662
0.0488731
0.0490014
0.049151
0.049322
0.0495142
0.0497277
0.0499624
0.0502181
0.0504948
0.0507923
0.0511107
0.0514496
0.0518092
0.0521891
0.0525891
0.0530089
0.053448
0.0539057
0.054381
0.0548931
0.0563187
0.0557929
0.0553042
0.0548338
0.0543826
0.0539512
0.0535402
0.0531499
0.0527805
0.0524323
0.0521053
0.0517997
0.0515155
0.0512529
0.0510118
0.0507926
0.0505951
0.0504196
0.0502659
0.0501341
0.0500243
0.0499365
0.0498706
0.0498266
0.0498047
0.0498047
0.0498266
0.0498706
0.0499365
0.0500243
0.0501341
0.0502659
0.0504196
0.0505951
0.0507926
0.0510118
0.0512529
0.0515155
0.0517997
0.0521053
0.0524323
0.0527805
0.0531499
0.0535402
0.0539512
0.0543826
0.0548338
0.0553042
0.0557929
0.0563187
0.0577988
0.0572586
0.056756
0.0562723
0.0558084
0.0553649
0.0549425
0.0545413
0.0541617
0.0538039
0.0534679
0.0531538
0.0528618
0.0525919
0.0523442
0.0521189
0.0519161
0.0517357
0.0515778
0.0514424
0.0513296
0.0512393
0.0511716
0.0511265
0.0511039
0.0511039
0.0511265
0.0511716
0.0512393
0.0513296
0.0514424
0.0515778
0.0517357
0.0519161
0.0521189
0.0523442
0.0525919
0.0528618
0.0531538
0.0534679
0.0538039
0.0541617
0.0545413
0.0549425
0.0553649
0.0558084
0.0562723
0.056756
0.0572586
0.0577988
0.0593362
0.058781
0.058264
0.0577664
0.0572893
0.0568332
0.0563988
0.0559864
0.0555961
0.0552281
0.0548827
0.0545598
0.0542596
0.0539822
0.0537276
0.053496
0.0532874
0.053102
0.0529397
0.0528006
0.0526846
0.0525919
0.0525223
0.0524759
0.0524527
0.0524527
0.0524759
0.0525223
0.0525919
0.0526846
0.0528006
0.0529397
0.053102
0.0532874
0.053496
0.0537276
0.0539821
0.0542596
0.0545598
0.0548827
0.0552281
0.0555961
0.0559864
0.0563988
0.0568332
0.0572893
0.0577664
0.058264
0.058781
0.0593362
0.0609342
0.0603635
0.0598312
0.0593192
0.0588283
0.0583591
0.0579123
0.057488
0.0570865
0.0567081
0.0563528
0.0560207
0.0557119
0.0554266
0.0551648
0.0549266
0.0547121
0.0545214
0.0543545
0.0542115
0.0540922
0.0539968
0.0539253
0.0538776
0.0538537
0.0538537
0.0538776
0.0539253
0.0539968
0.0540922
0.0542115
0.0543545
0.0545214
0.0547121
0.0549266
0.0551648
0.0554266
0.0557119
0.0560207
0.0563528
0.0567081
0.0570865
0.057488
0.0579123
0.0583591
0.0588283
0.0593192
0.0598312
0.0603635
0.0625963
0.0620092
0.0614612
0.0609341
0.0604288
0.0599459
0.059486
0.0590494
0.0586363
0.0582469
0.0578813
0.0575396
0.0572219
0.0569283
0.0566589
0.0564138
0.0561932
0.055997
0.0558253
0.0556781
0.0555554
0.0554573
0.0553837
0.0553346
0.0553101
0.0553101
0.0553346
0.0553837
0.0554573
0.0555554
0.0556781
0.0558253
0.055997
0.0561932
0.0564138
0.0566589
0.0569283
0.0572219
0.0575396
0.0578813
0.0582469
0.0586363
0.0590494
0.059486
0.0599459
0.0604288
0.0609341
0.0614612
0.0643261
0.0637219
0.0631574
0.0626146
0.0620942
0.0615971
0.0611236
0.0606741
0.0602488
0.0598479
0.0594716
0.0591198
0.0587928
0.0584905
0.0582132
0.057961
0.0577339
0.0575319
0.0573552
0.0572037
0.0570774
0.0569764
0.0569007
0.0568502
0.0568249
0.0568249
0.0568502
0.0569007
0.0569764
0.0570774
0.0572037
0.0573552
0.0575319
0.0577339
0.057961
0.0582132
0.0584905
0.0587928
0.0591198
0.0594716
0.0598479
0.0602488
0.0606741
0.0611236
0.0615971
0.0620942
0.0626146
0.0661276
0.0655055
0.0649238
0.0643645
0.0638285
0.0633164
0.0628287
0.0623657
0.0619277
0.0615149
0.0611273
0.060765
0.0604282
0.0601169
0.0598314
0.0595716
0.0593377
0.0591297
0.0589478
0.0587918
0.0586617
0.0585577
0.0584797
0.0584277
0.0584017
0.0584017
0.0584277
0.0584797
0.0585577
0.0586617
0.0587918
0.0589478
0.0591297
0.0593377
0.0595716
0.0598313
0.0601169
0.0604282
0.060765
0.0611273
0.0615149
0.0619277
0.0623657
0.0628287
0.0633164
0.0638285
0.0680048
0.0673642
0.0667645
0.066188
0.0656356
0.0651079
0.0646054
0.0641283
0.063677
0.0632516
0.0628522
0.062479
0.062132
0.0618112
0.061517
0.0612494
0.0610084
0.0607942
0.0606067
0.060446
0.060312
0.0602049
0.0601245
0.0600709
0.0600441
0.0600441
0.0600709
0.0601245
0.0602049
0.060312
0.060446
0.0606067
0.0607942
0.0610084
0.0612494
0.061517
0.0618112
0.062132
0.062479
0.0628522
0.0632516
0.063677
0.0641283
0.0646054
0.0651079
0.0699625
0.0693023
0.0686838
0.0680894
0.0675199
0.0669759
0.0664578
0.065966
0.0655008
0.0650623
0.0646506
0.0642659
0.0639082
0.0635776
0.0632743
0.0629984
0.06275
0.0625292
0.062336
0.0621703
0.0620323
0.0619218
0.061839
0.0617838
0.0617562
0.0617562
0.0617838
0.061839
0.0619218
0.0620323
0.0621703
0.062336
0.0625292
0.06275
0.0629984
0.0632743
0.0635776
0.0639082
0.0642659
0.0646506
0.0650623
0.0655008
0.065966
0.0664578
0.0669759
0.0720054
0.0713248
0.0706866
0.0700735
0.069486
0.0689249
0.0683907
0.0678835
0.0674037
0.0669514
0.0665269
0.0661301
0.0657612
0.0654203
0.0651075
0.064823
0.0645669
0.0643392
0.0641399
0.0639691
0.0638268
0.0637129
0.0636275
0.0635705
0.0635421
0.0635421
0.0635705
0.0636275
0.0637129
0.0638268
0.0639691
0.0641399
0.0643392
0.0645669
0.064823
0.0651075
0.0654203
0.0657612
0.0661301
0.0665269
0.0669514
0.0674037
0.0678835
0.0683907
0.0689249
0.0741387
0.0734367
0.072778
0.0721453
0.0715391
0.0709601
0.0704089
0.0698856
0.0693905
0.0689239
0.0684859
0.0680765
0.0676959
0.0673442
0.0670215
0.0667279
0.0664637
0.0662288
0.0660232
0.065847
0.0657001
0.0655826
0.0654945
0.0654357
0.0654064
0.0654064
0.0654357
0.0654945
0.0655826
0.0657001
0.065847
0.0660232
0.0662288
0.0664637
0.0667279
0.0670215
0.0673442
0.0676959
0.0680765
0.0684859
0.0689239
0.0693905
0.0698856
0.0704089
0.0709601
0.0763681
0.0756437
0.0749635
0.0743103
0.0736845
0.0730868
0.0725178
0.0719776
0.0714666
0.0709849
0.0705328
0.0701102
0.0697173
0.0693542
0.0690211
0.0687181
0.0684454
0.0682029
0.0679907
0.0678088
0.0676572
0.067536
0.067445
0.0673844
0.0673541
0.0673541
0.0673844
0.067445
0.067536
0.0676572
0.0678088
0.0679907
0.0682029
0.0684454
0.0687181
0.0690211
0.0693542
0.0697173
0.0701102
0.0705328
0.0709849
0.0714666
0.0719776
0.0725178
0.0730868
0.0786995
0.0779517
0.0772491
0.0765743
0.075928
0.0753108
0.0747231
0.0741653
0.0736375
0.0731401
0.0726732
0.0722368
0.071831
0.071456
0.071112
0.0707991
0.0705174
0.070267
0.0700479
0.0698601
0.0697035
0.0695783
0.0694844
0.0694217
0.0693904
0.0693904
0.0694217
0.0694844
0.0695783
0.0697035
0.06986
0.0700479
0.070267
0.0705174
0.0707991
0.071112
0.071456
0.071831
0.0722368
0.0726731
0.0731401
0.0736375
0.0741653
0.0747231
0.0753108
0.0811396
0.0803672
0.0796411
0.0789438
0.078276
0.0776383
0.0770311
0.0764547
0.0759094
0.0753955
0.074913
0.0744621
0.0740429
0.0736554
0.0733
0.0729767
0.0726857
0.0724269
0.0722005
0.0720064
0.0718447
0.0717153
0.0716183
0.0715536
0.0715212
0.0715212
0.0715536
0.0716183
0.0717153
0.0718447
0.0720064
0.0722005
0.0724269
0.0726856
0.0729767
0.0732999
0.0736554
0.0740429
0.0744621
0.074913
0.0753955
0.0759094
0.0764547
0.0770311
0.0776383
0.0836953
0.0828972
0.0821464
0.0814256
0.0807353
0.0800761
0.0794484
0.0788526
0.0782889
0.0777576
0.0772589
0.0767928
0.0763594
0.0759588
0.0755914
0.0752572
0.0749564
0.0746889
0.0744549
0.0742543
0.0740871
0.0739533
0.073853
0.0737861
0.0737527
0.0737527
0.0737861
0.073853
0.0739533
0.0740871
0.0742543
0.0744549
0.0746889
0.0749564
0.0752572
0.0755914
0.0759588
0.0763593
0.0767928
0.0772589
0.0777576
0.0782889
0.0788526
0.0794484
0.0863743
0.0855492
0.0847725
0.084027
0.0833131
0.0826314
0.0819823
0.0813661
0.0807831
0.0802336
0.0797178
0.0792357
0.0787874
0.0783732
0.0779931
0.0776475
0.0773364
0.0770598
0.0768177
0.0766102
0.0764373
0.076299
0.0761953
0.0761261
0.0760915
0.0760915
0.0761261
0.0761953
0.076299
0.0764373
0.0766102
0.0768177
0.0770598
0.0773364
0.0776475
0.0779931
0.0783732
0.0787874
0.0792357
0.0797178
0.0802336
0.0807831
0.0813661
0.0819823
0.0891846
0.0883312
0.0875275
0.0867562
0.0860175
0.0853121
0.0846405
0.0840029
0.0833997
0.0828311
0.0822973
0.0817985
0.0813346
0.0809059
0.0805127
0.080155
0.0798331
0.0795469
0.0792964
0.0790817
0.0789028
0.0787597
0.0786523
0.0785807
0.078545
0.078545
0.0785807
0.0786523
0.0787597
0.0789028
0.0790817
0.0792964
0.0795469
0.0798331
0.080155
0.0805127
0.0809059
0.0813346
0.0817985
0.0822973
0.0828311
0.0833997
0.0840029
0.0846405
0.0921353
0.0912521
0.09042
0.0896216
0.088857
0.0881268
0.0874315
0.0867715
0.086147
0.0855584
0.0850058
0.0844893
0.0840091
0.0835653
0.0818989
0.0816766
0.0814914
0.0813432
0.0812321
0.081158
0.0811209
0.0811209
0.081158
0.0812321
0.0813432
0.0814914
0.0816766
0.0818989
0.0821582
0.0824545
0.0827879
0.0831581
0.0835653
0.0840091
0.0844893
0.0850058
0.0855584
0.086147
0.0867715
0.0874315
0.0855546
0.0859382
0.0863599
0.0868196
0.0873171
0.087852
0.0884244
0.0890342
0.089681
0.0903646
0.0920709
0.0927412
0.0934496
0.0244338
0.0249123
0.0254018
0.0259028
0.0264156
0.0269407
0.0274785
0.0280294
0.028594
0.0291728
0.0297662
0.030375
0.0310012
0.0316488
0.0323197
0.033013
0.0337274
0.0344629
0.0352194
0.0359974
0.0367973
0.0376198
0.0384658
0.0393362
0.0402323
0.0411551
0.0421061
0.0430867
0.0440984
0.0451427
0.0462213
0.047336
0.0484886
0.0496811
0.0509155
0.0521941
0.0535191
0.0548931
0.0563187
0.0577988
0.0593362
0.0609342
0.0625963
0.0643261
0.0661276
0.0680048
0.0699625
0.0720054
0.0741387
0.0763681
0.0786995
0.0811396
0.0836953
0.0863743
0.0891846
0.0921353
0.0246675
0.0251538
0.0256514
0.0261608
0.0266824
0.0272167
0.0277641
0.0283252
0.0289004
0.0294904
0.0300957
0.0307169
0.0313547
0.0320097
0.0326857
0.0333881
0.0341177
0.0348711
0.035646
0.0364421
0.0372599
0.0381003
0.0389644
0.0398534
0.0407688
0.0417118
0.0426839
0.0436867
0.0447217
0.0457906
0.0468951
0.0480371
0.0492184
0.0504413
0.0517077
0.0530202
0.054381
0.0557929
0.0572586
0.058781
0.0603635
0.0620092
0.0637219
0.0655055
0.0673642
0.0693023
0.0713248
0.0734367
0.0756437
0.0779517
0.0803672
0.0828972
0.0855492
0.0883312
0.0912521
0.0269898
0.0275328
0.0280893
0.0286597
0.0292447
0.0298447
0.0304603
0.0310922
0.031741
0.0324085
0.0330994
0.0338183
0.0345636
0.0353319
0.0361221
0.036934
0.0377682
0.0386258
0.039508
0.040416
0.0413512
0.0423151
0.0433093
0.0443352
0.0453946
0.0464891
0.0476207
0.0487912
0.0500028
0.0512575
0.0525577
0.0539057
0.0553042
0.056756
0.058264
0.0598312
0.0614612
0.0631574
0.0649238
0.0667645
0.0686838
0.0706866
0.072778
0.0749635
0.0772491
0.0796411
0.0821464
0.0847725
0.0875275
0.09042
0.0267701
0.0273087
0.0278607
0.0284265
0.0290066
0.0296017
0.0302122
0.0308388
0.0314821
0.0321429
0.0328249
0.0335337
0.0342701
0.0350312
0.0358147
0.0366203
0.0374483
0.0382993
0.0391747
0.0400755
0.0410033
0.0419593
0.0429451
0.0439624
0.0450126
0.0460977
0.0472194
0.0483796
0.0495803
0.0508238
0.0521122
0.053448
0.0548338
0.0562723
0.0577664
0.0593192
0.0609341
0.0626146
0.0643645
0.066188
0.0680894
0.0700735
0.0721453
0.0743103
0.0765743
0.0789438
0.0814256
0.084027
0.0867562
0.0896216
0.0265584
0.0270929
0.0276405
0.0282019
0.0287775
0.0293678
0.0299735
0.0305951
0.0312332
0.0318886
0.0325633
0.0332622
0.0339893
0.0347429
0.0355199
0.0363192
0.0371409
0.0379856
0.0388544
0.0397484
0.0406689
0.0416173
0.0425952
0.0436042
0.0446458
0.0457218
0.046834
0.0479843
0.0491748
0.0504075
0.0516848
0.0530089
0.0543826
0.0558084
0.0572893
0.0588283
0.0604288
0.0620942
0.0638285
0.0656356
0.0675199
0.069486
0.0715391
0.0736845
0.075928
0.078276
0.0807353
0.0833131
0.0860175
0.088857
0.0268858
0.0274294
0.0279865
0.0285578
0.0291437
0.0297448
0.0303616
0.0309949
0.0316452
0.0323134
0.0330036
0.0337215
0.0344674
0.0352377
0.0360309
0.0368466
0.0376852
0.0385476
0.039435
0.0403486
0.0412899
0.0422603
0.0432613
0.0442947
0.0453621
0.0464653
0.0476063
0.0487869
0.0500094
0.0512761
0.0525891
0.0539512
0.0553649
0.0568332
0.0583591
0.0599459
0.0615971
0.0633164
0.0651079
0.0669759
0.0689249
0.0709601
0.0730868
0.0753108
0.0776383
0.0800761
0.0826314
0.0853121
0.0881268
0.0266878
0.0272275
0.0277807
0.0283479
0.0289295
0.0295262
0.0301385
0.0307672
0.0314127
0.0320758
0.0327591
0.0334677
0.0342048
0.0349683
0.0357555
0.0365654
0.0373982
0.0382547
0.0391359
0.040043
0.0409774
0.0419407
0.0429343
0.0439598
0.045019
0.0461138
0.0472458
0.0484172
0.04963
0.0508865
0.0521891
0.0535402
0.0549425
0.0563988
0.0579123
0.059486
0.0611236
0.0628287
0.0646053
0.0664578
0.0683906
0.0704089
0.0725178
0.0747231
0.0770311
0.0794484
0.0819823
0.0846405
0.0874315
0.0264993
0.0270353
0.0275847
0.028148
0.0287256
0.0293182
0.0299263
0.0305505
0.0311915
0.03185
0.0325269
0.033227
0.0339557
0.0347125
0.0354938
0.036298
0.0371253
0.0379761
0.0388513
0.0397523
0.0406803
0.0416368
0.0426233
0.0436415
0.0446931
0.0457797
0.0469033
0.048066
0.0492696
0.0505166
0.0518092
0.0531499
0.0545413
0.0559864
0.057488
0.0590494
0.0606741
0.0623657
0.0641283
0.065966
0.0678835
0.0698856
0.0719776
0.0741653
0.0764547
0.0788526