/*--------------------------------*- C++ -*----------------------------------*\
  =========                 |
  \\      /  F ield         | OpenFOAM: The Open Source CFD Toolbox
   \\    /   O peration     | Website:  https://openfoam.org
    \\  /    A nd           | Version:  7
     \\/     M anipulation  |
\*---------------------------------------------------------------------------*/
FoamFile
{
    version     2.0;
    format      ascii;
    class       volScalarField;
    location    "116000";
    object      strainRate;
}
// * * * * * * * * * * * * * * * * * * * * * * * * * * * * * * * * * * * * * //

dimensions      [0 0 -1 0 0 0 0];

internalField   nonuniform List<scalar> 
4782
(
0.0914206
0.0946052
0.097962
0.101504
0.105243
0.109196
0.113376
0.117802
0.122492
0.127466
0.029304
0.0299074
0.0305265
0.0311619
0.0318146
0.0324888
0.0331902
0.0339185
0.0346704
0.0354442
0.0362396
0.0370568
0.0378967
0.0387604
0.0396491
0.0405644
0.0415077
0.0424807
0.0434849
0.0445223
0.0455945
0.0467036
0.0478514
0.0490401
0.0502719
0.0515493
0.0528747
0.0542508
0.0556806
0.0571669
0.0587132
0.060323
0.0619999
0.0637479
0.0655714
0.0674749
0.0694634
0.0715424
0.0737175
0.0759949
0.0783815
0.0808843
0.0835112
0.0862706
0.0891716
0.0922241
0.0954388
0.0988273
0.102402
0.106176
0.110165
0.114384
0.11885
0.123582
0.1286
0.0295443
0.0301526
0.0307769
0.0314177
0.0320777
0.0327617
0.0334729
0.0342094
0.0349683
0.0357485
0.03655
0.0373733
0.0382195
0.0390898
0.0399855
0.0409082
0.0418593
0.0428406
0.0438536
0.0449001
0.0459819
0.047101
0.0482593
0.049459
0.0507023
0.0519916
0.0533296
0.0547188
0.0561622
0.0576629
0.0592241
0.0608494
0.0625426
0.0643076
0.0661488
0.0680709
0.070079
0.0721784
0.0743749
0.0766748
0.0790849
0.0816124
0.0842653
0.0870519
0.0899816
0.0930641
0.0963103
0.0997318
0.103341
0.107152
0.111179
0.115438
0.119946
0.124722
0.129785
0.0297924
0.0304063
0.0310364
0.0316836
0.0323522
0.0330479
0.0337698
0.0345142
0.0352794
0.0360652
0.0368722
0.0377013
0.0385536
0.0394306
0.0403336
0.0412641
0.0422235
0.0432135
0.0442357
0.0452918
0.0463837
0.0475133
0.0486827
0.0498939
0.0511493
0.0524512
0.0538023
0.0552052
0.0566629
0.0581785
0.0597554
0.061397
0.0631072
0.0648901
0.0667501
0.0686918
0.0707204
0.0728412
0.0750602
0.0773836
0.0798182
0.0823715
0.0850514
0.0878664
0.0908258
0.0939396
0.0972186
0.100674
0.10432
0.108169
0.112235
0.116536
0.121088
0.12591
0.131021
0.030068
0.0306876
0.0313293
0.0319933
0.0326783
0.0333839
0.0341103
0.0348574
0.0356255
0.0364151
0.0372267
0.0380614
0.0389202
0.0398042
0.0407147
0.0416532
0.0426211
0.0436201
0.0446517
0.0457177
0.04682
0.0479604
0.049141
0.0503641
0.0516318
0.0529467
0.0543113
0.0557285
0.057201
0.0587321
0.060325
0.0619835
0.0637113
0.0655127
0.067392
0.0693541
0.0714039
0.0735471
0.0757894
0.0781373
0.0805977
0.0831779
0.0858861
0.0887309
0.0917215
0.0948681
0.0981815
0.101673
0.105357
0.109245
0.113353
0.117697
0.122295
0.127164
0.132325
0.030068
0.0306876
0.0313293
0.0319934
0.0326784
0.0333841
0.0341104
0.0348574
0.0356255
0.0364151
0.0372269
0.0380616
0.0389203
0.0398043
0.0407148
0.0416532
0.0426212
0.0436201
0.0446517
0.0457177
0.0468199
0.0479604
0.049141
0.0503641
0.0516318
0.0529467
0.0543113
0.0557284
0.0572009
0.058732
0.060325
0.0619836
0.0637116
0.0655131
0.0673925
0.0693545
0.0714043
0.0735475
0.0757898
0.0781377
0.080598
0.0831783
0.0858864
0.0887311
0.0917217
0.0948682
0.0981816
0.101674
0.105357
0.109245
0.113353
0.117697
0.122295
0.127164
0.132325
0.0297924
0.0304063
0.0310364
0.0316837
0.0323524
0.0330482
0.0337701
0.0345144
0.0352795
0.0360653
0.0368724
0.0377015
0.038554
0.039431
0.0403339
0.0412643
0.0422236
0.0432136
0.0442357
0.0452918
0.0463838
0.0475134
0.0486827
0.0498939
0.0511493
0.0524513
0.0538024
0.0552054
0.0566632
0.0581788
0.0597558
0.0613975
0.0631078
0.0648908
0.0667508
0.0686925
0.070721
0.0728418
0.0750608
0.0773842
0.0798189
0.0823722
0.0850519
0.0878669
0.0908262
0.0939399
0.0972188
0.100675
0.10432
0.108169
0.112235
0.116536
0.121088
0.125909
0.13102
0.136443
0.1422
0.148316
0.154816
0.0295443
0.0301526
0.0307769
0.0314178
0.0320777
0.0327618
0.0334731
0.0342096
0.0349686
0.0357489
0.0365504
0.0373737
0.0382199
0.0390901
0.0399858
0.0409085
0.0418596
0.0428408
0.0438538
0.0449003
0.0459821
0.0471012
0.0482595
0.0494592
0.0507026
0.0519921
0.0533301
0.0547194
0.0561628
0.0576635
0.0592248
0.0608501
0.0625433
0.0643083
0.0661496
0.0680718
0.0700798
0.0721791
0.0743756
0.0766755
0.0790855
0.0816129
0.0842655
0.087052
0.0899815
0.0930639
0.0963099
0.0997312
0.10334
0.107151
0.111178
0.115437
0.119945
0.124721
0.129784
0.135157
0.140862
0.146924
0.153369
0.160225
0.0293041
0.0299075
0.0305265
0.031162
0.0318147
0.0324889
0.0331904
0.0339188
0.0346707
0.0354447
0.0362401
0.0370573
0.0378972
0.0387608
0.0396495
0.0405648
0.0415081
0.042481
0.0434853
0.0445226
0.0455948
0.0467038
0.0478516
0.0490403
0.0502722
0.0515497
0.0528752
0.0542514
0.0556812
0.0571676
0.058714
0.0603237
0.0620005
0.0637484
0.0655718
0.0674753
0.0694639
0.0715428
0.0737179
0.0759953
0.0783817
0.0808844
0.0835112
0.0862705
0.0891714
0.0922238
0.0954384
0.0988266
0.102401
0.106175
0.110164
0.114383
0.118849
0.123582
0.128599
0.133925
0.13958
0.14559
0.151981
0.158782
0.16602
0.173728
0.181938
0.190681
0.199991
0.2099
0.22044
0.231638
0.24352
0.256114
0.26948
0.283893
0.299712
0.316875
0.33504
0.353935
0.373288
0.392722
0.411767
0.429881
0.446514
0.461181
0.473552
0.483501
0.491126
0.496706
0.50063
0.503317
0.505153
0.506449
0.507433
0.508254
0.508999
0.509712
0.510409
0.0290728
0.0296714
0.0302856
0.030916
0.0315633
0.0322301
0.0329215
0.0336403
0.0343848
0.0351523
0.0359417
0.036753
0.0375868
0.0384441
0.0393261
0.0402343
0.0411701
0.0421351
0.0431311
0.0441597
0.0452228
0.0463222
0.04746
0.0486382
0.0498592
0.0511252
0.0524388
0.0538025
0.0552194
0.0566922
0.0582244
0.0598193
0.0614807
0.0632125
0.065019
0.0669047
0.0688747
0.0709341
0.0730886
0.0753446
0.0777085
0.0801876
0.0827897
0.085523
0.0883968
0.0914206
0.0946052
0.097962
0.101503
0.105243
0.109195
0.113376
0.117802
0.122492
0.127466
0.132745
0.138352
0.144312
0.150651
0.157397
0.164581
0.172232
0.180384
0.189068
0.19832
0.208171
0.218655
0.229799
0.241631
0.254178
0.267496
0.28182
0.297514
0.3146
0.332751
0.35167
0.371089
0.390638
0.409847
0.428171
0.445048
0.459977
0.472603
0.482783
0.4906
0.496327
0.500354
0.503109
0.504986
0.506305
0.507303
0.508133
0.508884
0.509602
0.510305
0.0288511
0.0294452
0.0300548
0.0306804
0.0313227
0.0319828
0.032665
0.0333748
0.0341119
0.0348728
0.0356561
0.0364615
0.0372894
0.0381405
0.0390162
0.0399176
0.0408463
0.0418039
0.042792
0.0438123
0.0448667
0.045957
0.0470853
0.0482537
0.0494643
0.0507194
0.0520216
0.0533735
0.054778
0.0562379
0.0577566
0.0593374
0.060984
0.0627003
0.0644907
0.0663596
0.0683119
0.0703529
0.0724881
0.0747237
0.0770663
0.0795231
0.0821016
0.0848103
0.0876581
0.0906546
0.0938105
0.0971371
0.100647
0.104353
0.108271
0.112415
0.116802
0.121452
0.126383
0.131618
0.137179
0.143091
0.14938
0.156074
0.163204
0.1708
0.178896
0.187524
0.196718
0.206513
0.216941
0.228032
0.239815
0.252316
0.265585
0.279824
0.295396
0.312405
0.33054
0.349479
0.368957
0.388612
0.407976
0.4265
0.443613
0.458794
0.47167
0.482077
0.490083
0.495954
0.500084
0.502906
0.504823
0.506166
0.507178
0.508016
0.508773
0.509496
0.510204
0.0286391
0.029229
0.0298342
0.0304553
0.0310929
0.0317478
0.032423
0.0331234
0.0338517
0.0346058
0.0353832
0.0361829
0.0370052
0.0378505
0.0387201
0.0396152
0.0405372
0.0414878
0.0424685
0.0434811
0.0445273
0.0456091
0.0467284
0.0478873
0.049088
0.0503329
0.0516244
0.052965
0.0543578
0.0558055
0.0573113
0.0588787
0.0605113
0.062213
0.063988
0.0658408
0.0677762
0.0697995
0.0719163
0.0741326
0.0764549
0.0788904
0.0814466
0.0841317
0.0869548
0.0899254
0.0930541
0.0963521
0.0998317
0.103506
0.10739
0.111499
0.11585
0.120461
0.125352
0.130544
0.136061
0.141926
0.148167
0.154812
0.16189
0.169433
0.177475
0.186048
0.195187
0.204928
0.215302
0.226342
0.238076
0.250532
0.263754
0.277909
0.293365
0.310298
0.328415
0.347368
0.366899
0.386652
0.406161
0.424876
0.442213
0.457638
0.470756
0.481384
0.489575
0.495589
0.49982
0.502707
0.504665
0.506032
0.507056
0.507903
0.508666
0.509394
0.510106
0.0284374
0.0290233
0.0296243
0.0302411
0.0308743
0.0315246
0.0321934
0.0328852
0.033605
0.0343522
0.0351236
0.0359178
0.0367346
0.0375745
0.0384384
0.0393276
0.0402433
0.0411873
0.042161
0.0431662
0.0442047
0.0452784
0.0463893
0.0475394
0.0487309
0.0499661
0.0512474
0.0525776
0.0539592
0.0553953
0.056889
0.0584436
0.0600629
0.0617507
0.0635112
0.0653487
0.0672682
0.0692747
0.0713739
0.0735717
0.0758747
0.0782899
0.0808248
0.0834876
0.0862872
0.0892332
0.092336
0.0956067
0.0990577
0.102702
0.106554
0.11063
0.114946
0.11952
0.124372
0.129524
0.134998
0.14082
0.147015
0.153612
0.160641
0.168133
0.176123
0.184643
0.19373
0.203417
0.213739
0.224729
0.236416
0.248827
0.262003
0.276077
0.291421
0.308281
0.326378
0.345342
0.36492
0.384763
0.404408
0.423303
0.440854
0.456514
0.469866
0.480709
0.48908
0.495234
0.499564
0.502517
0.504514
0.505904
0.506941
0.507795
0.508564
0.509297
0.510014
0.0282459
0.028828
0.0294252
0.0300379
0.0306669
0.0313129
0.0319766
0.0326615
0.0333729
0.0341124
0.0348775
0.0356663
0.0364779
0.0373126
0.0381712
0.0390548
0.0399647
0.0409025
0.0418697
0.042868
0.0438993
0.0449654
0.0460683
0.0472101
0.0483928
0.0496188
0.0508906
0.0522107
0.0535818
0.055007
0.0564892
0.058032
0.0596388
0.0613135
0.0630603
0.0648835
0.0667879
0.0687786
0.0708611
0.0730416
0.0753264
0.0777224
0.0802372
0.0828788
0.0856561
0.0885787
0.0916568
0.0949016
0.0983253
0.101941
0.105763
0.109807
0.114089
0.118629
0.123445
0.128558
0.133992
0.139772
0.145923
0.152475
0.159457
0.166901
0.174841
0.183311
0.192346
0.201983
0.212255
0.223197
0.234838
0.247206
0.260337
0.274334
0.28957
0.306359
0.324434
0.343405
0.363026
0.382951
0.402723
0.421787
0.439542
0.455425
0.469003
0.480054
0.488601
0.49489
0.499317
0.502334
0.50437
0.505781
0.506832
0.507693
0.508468
0.509206
0.509927
0.0280651
0.0286436
0.029237
0.029846
0.030471
0.0311129
0.0317723
0.0324513
0.0331546
0.0338864
0.0346454
0.0354289
0.0362355
0.0370654
0.037919
0.0387974
0.0397018
0.0406337
0.0415948
0.0425867
0.0436112
0.0446703
0.0457657
0.0468996
0.0480742
0.0492916
0.0505544
0.0518651
0.0532265
0.0546414
0.0561129
0.0576443
0.0592393
0.0609016
0.0626354
0.064445
0.0663351
0.0683109
0.0703779
0.072542
0.0748095
0.0771874
0.0796831
0.0823047
0.085061
0.0879614
0.0910162
0.0942364
0.0976343
0.101223
0.105017
0.10903
0.113281
0.117788
0.122569
0.127646
0.133042
0.138782
0.144892
0.151401
0.158339
0.165738
0.173631
0.182053
0.19104
0.200628
0.210853
0.221749
0.233345
0.245672
0.258759
0.272684
0.28782
0.304538
0.322589
0.341565
0.361222
0.381222
0.401111
0.420333
0.438281
0.454377
0.46817
0.47942
0.488136
0.494558
0.499079
0.502157
0.504231
0.505664
0.506726
0.507595
0.508375
0.509117
0.509843
0.0278949
0.0284701
0.0290601
0.0296655
0.0302869
0.0309249
0.0315804
0.0322542
0.0329505
0.033675
0.0344279
0.035206
0.0360079
0.036833
0.0376818
0.0385553
0.0394545
0.0403811
0.0413364
0.0423224
0.0433406
0.0443929
0.0454814
0.0466079
0.0477748
0.0489842
0.0502385
0.0515404
0.0528925
0.0542977
0.0557591
0.05728
0.0588639
0.0605147
0.0622364
0.0640333
0.0659101
0.067872
0.0699243
0.0720729
0.0743242
0.076685
0.0791628
0.0817655
0.0845019
0.0873814
0.0904142
0.0936114
0.0969851
0.100548
0.104315
0.108301
0.112522
0.116997
0.121746
0.126789
0.132149
0.137852
0.143923
0.150391
0.157287
0.164642
0.172491
0.180867
0.189809
0.199351
0.209531
0.220382
0.231937
0.244224
0.257276
0.271164
0.286234
0.302856
0.320851
0.339825
0.359513
0.37958
0.399576
0.418944
0.437071
0.453368
0.467364
0.478804
0.487682
0.49423
0.498841
0.501979
0.504089
0.505544
0.506618
0.507494
0.508279
0.509025
0.509755
0.0277355
0.0283076
0.0288944
0.0294964
0.0301144
0.0307489
0.0314007
0.0320705
0.0327615
0.0334787
0.0342247
0.0349974
0.0357946
0.0366153
0.0374597
0.0383286
0.0392232
0.0401448
0.0410949
0.0420752
0.0430875
0.0441336
0.0452155
0.0463351
0.0474948
0.0486967
0.0499432
0.0512369
0.0525804
0.0539767
0.0554287
0.0569397
0.0585133
0.0601532
0.0618635
0.0636484
0.0655128
0.0674615
0.0695
0.0716343
0.0738705
0.0762154
0.0786764
0.0812616
0.0839796
0.0868397
0.0898521
0.0930278
0.0963788
0.099918
0.10366
0.107619
0.111813
0.116259
0.120977
0.125988
0.131315
0.136982
0.143017
0.149448
0.156304
0.163618
0.171425
0.179759
0.188657
0.198156
0.208293
0.219103
0.230618
0.242868
0.255886
0.26974
0.284745
0.301277
0.319217
0.338187
0.357901
0.378029
0.398123
0.417627
0.435922
0.452406
0.466595
0.478215
0.487247
0.493916
0.498614
0.501809
0.503954
0.505428
0.506514
0.507397
0.508186
0.508937
0.50967
0.0275872
0.0281564
0.0287402
0.0293391
0.0299539
0.0305851
0.0312335
0.0318998
0.0325858
0.0332965
0.0340362
0.0348038
0.0355965
0.036413
0.0372532
0.0381179
0.039008
0.0399249
0.0408701
0.0418452
0.0428521
0.0438925
0.0449684
0.0460817
0.0472348
0.0484297
0.0496689
0.0509549
0.0522904
0.0536783
0.0551215
0.0566233
0.0581872
0.059817
0.0615167
0.0632906
0.0651433
0.0670799
0.0691057
0.0712264
0.0734485
0.0757787
0.0782242
0.0807931
0.083494
0.0863361
0.0893296
0.0924855
0.0958157
0.0993331
0.103052
0.106987
0.111155
0.115574
0.120263
0.125244
0.13054
0.136175
0.142175
0.14857
0.15539
0.162666
0.170433
0.178727
0.187585
0.197043
0.20714
0.21791
0.229388
0.241603
0.254589
0.26841
0.283355
0.299801
0.31769
0.336655
0.356392
0.376573
0.396757
0.416386
0.434836
0.451496
0.465866
0.477656
0.486835
0.493618
0.498398
0.501648
0.503826
0.50532
0.506416
0.507305
0.508099
0.508854
0.509591
0.02745
0.0280165
0.0285976
0.0291937
0.0298055
0.0304337
0.031079
0.0317419
0.0324237
0.0331285
0.0338623
0.034625
0.0354134
0.036226
0.0370623
0.037923
0.038809
0.0397216
0.0406623
0.0416327
0.0426346
0.0436697
0.0447401
0.0458476
0.0469945
0.048183
0.0494154
0.0506943
0.0520224
0.0534025
0.0548376
0.056331
0.0578861
0.0595066
0.0611966
0.0629604
0.0648025
0.0667279
0.068742
0.0708505
0.0730597
0.0753763
0.0778076
0.0803614
0.0830465
0.0858719
0.0888478
0.0919852
0.0952957
0.0987924
0.102489
0.106401
0.110545
0.114939
0.119602
0.124556
0.129823
0.135428
0.141397
0.147759
0.154544
0.161785
0.169516
0.177773
0.186593
0.196014
0.206073
0.216806
0.228249
0.240431
0.253386
0.267176
0.282064
0.298432
0.316272
0.335231
0.354986
0.375216
0.395481
0.415225
0.433819
0.450642
0.465181
0.477131
0.486447
0.493338
0.498197
0.501498
0.503708
0.505219
0.506326
0.507221
0.508019
0.508777
0.509518
0.027324
0.0278881
0.0284666
0.0290601
0.0296692
0.0302946
0.0309369
0.0315969
0.0322755
0.0329761
0.033704
0.0344612
0.0352452
0.036054
0.0368868
0.0377439
0.0386262
0.039535
0.0404716
0.0414377
0.042435
0.0434653
0.0445305
0.0456327
0.046774
0.0479565
0.0491828
0.0504553
0.0517767
0.0531497
0.0545774
0.056063
0.05761
0.0592221
0.0609033
0.0626578
0.0644901
0.0664053
0.0684086
0.0705057
0.072703
0.0750071
0.0774252
0.0799653
0.0826359
0.0854461
0.088406
0.0915264
0.0948192
0.0982971
0.101974
0.105866
0.109988
0.114359
0.118998
0.123926
0.129166
0.134743
0.140683
0.147014
0.153768
0.160976
0.168674
0.176897
0.185682
0.195067
0.205091
0.21579
0.2272
0.239351
0.252278
0.266038
0.280874
0.297168
0.314963
0.333915
0.353687
0.37396
0.394299
0.414147
0.432874
0.449848
0.464544
0.476641
0.486086
0.493078
0.49801
0.50136
0.503599
0.505128
0.506243
0.507144
0.507946
0.508708
0.509451
0.0272092
0.027771
0.0283473
0.0289384
0.0295451
0.030168
0.0308077
0.031465
0.0321407
0.0328374
0.0335602
0.0343125
0.0350925
0.0358978
0.0367273
0.0375812
0.0384601
0.0393653
0.0402981
0.0412602
0.0422533
0.0432792
0.0443398
0.0454371
0.0465733
0.0477505
0.0489712
0.0502378
0.0515531
0.0529197
0.0543408
0.0558194
0.0573591
0.0589634
0.0606365
0.0623825
0.0642059
0.0661118
0.0681053
0.0701922
0.0723786
0.0746713
0.0770774
0.0796049
0.0822623
0.0850586
0.0880039
0.0911089
0.0943855
0.0978465
0.101506
0.105378
0.109481
0.113831
0.118448
0.123353
0.128569
0.13412
0.140033
0.146337
0.153062
0.160241
0.167908
0.176099
0.184852
0.194205
0.204197
0.214865
0.226244
0.238367
0.251267
0.265001
0.279789
0.296017
0.313769
0.332713
0.352499
0.37281
0.393214
0.413157
0.432003
0.449115
0.463954
0.476188
0.485751
0.492837
0.497836
0.501231
0.503498
0.505042
0.506167
0.507073
0.507879
0.508643
0.509389
0.0271058
0.0276657
0.0282398
0.0288288
0.0294333
0.0300539
0.0306913
0.0313462
0.0320193
0.0327126
0.0334309
0.0341787
0.0349551
0.0357572
0.0365837
0.0374345
0.0383104
0.0392124
0.0401419
0.0411004
0.0420897
0.0431117
0.0441681
0.0452611
0.0463926
0.0475651
0.0487808
0.0500422
0.051352
0.0527129
0.0541279
0.0556003
0.0571335
0.058731
0.0603968
0.0621351
0.0639505
0.0658478
0.0678324
0.06991
0.0720867
0.0743691
0.0767645
0.0792806
0.081926
0.0847097
0.0876417
0.0907328
0.0939948
0.0974403
0.101083
0.104939
0.109023
0.113354
0.117951
0.122836
0.12803
0.133559
0.139448
0.145727
0.152426
0.159578
0.167217
0.17538
0.184104
0.193428
0.203391
0.21403
0.225382
0.237479
0.250355
0.264063
0.278808
0.294975
0.312689
0.331626
0.351422
0.371767
0.39223
0.412257
0.431211
0.448447
0.463417
0.475776
0.485446
0.492618
0.49768
0.501116
0.503408
0.504966
0.506099
0.50701
0.507819
0.508586
0.509335
0.0270137
0.0275718
0.0281442
0.0287313
0.0293339
0.0299525
0.0305878
0.0312405
0.0319114
0.0326017
0.033316
0.0340599
0.0348331
0.0356323
0.0364561
0.0373043
0.0381774
0.0390765
0.040003
0.0409584
0.0419444
0.0429628
0.0440155
0.0451046
0.0462321
0.0474004
0.0486116
0.0498683
0.0511732
0.052529
0.0539387
0.0554054
0.0569326
0.0585239
0.0601832
0.0619147
0.063723
0.0656129
0.0675896
0.069659
0.0718271
0.0741004
0.0764863
0.0789924
0.0816271
0.0843997
0.08732
0.0903988
0.0936478
0.0970798
0.100708
0.104549
0.108617
0.112932
0.117511
0.122377
0.127551
0.133059
0.138927
0.145184
0.15186
0.158988
0.166602
0.174739
0.183438
0.192736
0.202672
0.213286
0.224613
0.236687
0.24954
0.263226
0.277932
0.294045
0.311725
0.330654
0.35046
0.370833
0.391348
0.41145
0.430501
0.447848
0.462934
0.475405
0.485173
0.492422
0.49754
0.501013
0.503328
0.5049
0.506039
0.506955
0.507767
0.508536
0.509288
0.0269331
0.0274897
0.0280604
0.0286459
0.0292468
0.0298636
0.0304971
0.0311479
0.0318168
0.0325049
0.0332161
0.0339564
0.0347263
0.0355228
0.0363441
0.0371899
0.0380607
0.0389573
0.0398812
0.0408339
0.0418171
0.0428325
0.0438821
0.0449679
0.046092
0.0472566
0.0484639
0.0497166
0.0510171
0.0523683
0.0537731
0.0552348
0.0567567
0.0583425
0.0599961
0.0617216
0.0635237
0.0654072
0.0673772
0.0694394
0.0716
0.0738654
0.0762429
0.0787402
0.0813657
0.0841285
0.0870385
0.0901065
0.093344
0.0967639
0.10038
0.104207
0.108261
0.112561
0.117125
0.121974
0.127132
0.132622
0.138472
0.144709
0.151364
0.158471
0.166064
0.174179
0.182854
0.192129
0.202043
0.212634
0.223939
0.235993
0.248827
0.262493
0.277164
0.29323
0.310879
0.329801
0.349614
0.370012
0.390571
0.410739
0.429874
0.447318
0.462507
0.475076
0.48493
0.492249
0.497416
0.500922
0.503257
0.504841
0.505987
0.506906
0.50772
0.508492
0.509245
0.0268639
0.0274191
0.0279885
0.0285726
0.029172
0.0297873
0.0304193
0.0310685
0.0317357
0.032422
0.0331308
0.0338679
0.0346347
0.0354287
0.0362478
0.0370917
0.0379604
0.0388551
0.0397769
0.0407273
0.0417081
0.0427211
0.043768
0.044851
0.045972
0.0471333
0.0483372
0.0495863
0.0508831
0.0522305
0.0536313
0.0550887
0.0566062
0.0581873
0.0598361
0.0615566
0.0633534
0.0652312
0.0671952
0.0692512
0.0714052
0.0736637
0.0760341
0.0785239
0.0811416
0.0838961
0.0867974
0.0898561
0.0930839
0.0964935
0.100099
0.103914
0.107957
0.112244
0.116795
0.12163
0.126773
0.132248
0.138081
0.144301
0.150939
0.158028
0.165602
0.173697
0.182353
0.191609
0.201503
0.212074
0.223361
0.235397
0.248214
0.261862
0.276504
0.292529
0.310151
0.329066
0.348886
0.369305
0.389902
0.410125
0.429332
0.44686
0.462138
0.474792
0.484721
0.492098
0.497309
0.500844
0.503197
0.50479
0.505942
0.506864
0.507681
0.508454
0.509209
0.0268062
0.0273603
0.0279286
0.0285115
0.0291096
0.0297237
0.0303543
0.0310022
0.0316681
0.0323529
0.0330597
0.0337941
0.0345584
0.0353503
0.0361677
0.0370099
0.037877
0.0387699
0.0396899
0.0406384
0.0416172
0.042628
0.0436727
0.0447532
0.0458717
0.0470304
0.0482316
0.0494778
0.0507715
0.0521157
0.0535131
0.0549671
0.0564809
0.0580583
0.0597032
0.0614195
0.0632118
0.065085
0.0670442
0.069095
0.0712435
0.0734964
0.0758607
0.0783442
0.0809551
0.0837025
0.0865963
0.0896473
0.0928669
0.0962679
0.0998639
0.10367
0.107702
0.111979
0.116519
0.121342
0.126473
0.131935
0.137755
0.143961
0.150585
0.157658
0.165217
0.173297
0.181936
0.191175
0.201052
0.211608
0.222878
0.234899
0.247702
0.261335
0.275953
0.291943
0.309543
0.328453
0.348277
0.368713
0.389341
0.40961
0.428877
0.446475
0.461827
0.474553
0.484544
0.491972
0.497219
0.500778
0.503146
0.504747
0.505904
0.506829
0.507647
0.508423
0.509179
0.0267601
0.0273133
0.0278806
0.0284626
0.0290598
0.0296728
0.0303024
0.0309492
0.031614
0.0322976
0.0330029
0.0337352
0.0344974
0.0352877
0.0361036
0.0369444
0.0378102
0.0387018
0.0396203
0.0405673
0.0415445
0.0425535
0.0435963
0.0446749
0.0457914
0.046948
0.048147
0.0493909
0.0506823
0.052024
0.0534188
0.0548701
0.056381
0.0579553
0.0595967
0.0613096
0.0630983
0.0649676
0.0669229
0.0689696
0.0711139
0.0733623
0.0757219
0.0782004
0.0808061
0.0835479
0.0864359
0.0894806
0.0926937
0.0960878
0.0996767
0.103475
0.1075
0.111768
0.116298
0.121113
0.126234
0.131685
0.137494
0.143689
0.150301
0.157362
0.164908
0.172975
0.181602
0.190827
0.200691
0.211234
0.222492
0.2345
0.247292
0.260914
0.275511
0.291474
0.309056
0.327961
0.347789
0.368238
0.388891
0.409197
0.428511
0.446166
0.461577
0.47436
0.484401
0.491869
0.497146
0.500724
0.503104
0.504713
0.505873
0.5068
0.50762
0.508397
0.509154
0.0267254
0.027278
0.0278447
0.0284259
0.0290224
0.0296347
0.0302635
0.0309095
0.0315734
0.0322561
0.0329602
0.033691
0.0344517
0.0352408
0.0360557
0.0368954
0.0377602
0.0386506
0.0395681
0.0405139
0.0414898
0.0424975
0.043539
0.0446163
0.0457313
0.0468864
0.0480838
0.049326
0.0506155
0.0519552
0.0533481
0.0547972
0.0563059
0.0578779
0.0595169
0.0612272
0.0630132
0.0648797
0.066832
0.0688756
0.0710166
0.0732616
0.0756176
0.0780923
0.080694
0.0834317
0.0863154
0.0893555
0.0925638
0.0959529
0.0995363
0.103329
0.107348
0.111609
0.116133
0.120941
0.126054
0.131498
0.137299
0.143486
0.150089
0.157141
0.164677
0.172734
0.181351
0.190566
0.20042
0.210952
0.222201
0.2342
0.246984
0.260596
0.275179
0.291121
0.308689
0.327591
0.347421
0.367881
0.388552
0.408886
0.428236
0.445933
0.461389
0.474215
0.484295
0.491793
0.497092
0.500685
0.503074
0.504688
0.505851
0.506779
0.507601
0.508378
0.509137
0.0267023
0.0272545
0.0278207
0.0284015
0.0289974
0.0296093
0.0302376
0.030883
0.0315464
0.0322285
0.0329319
0.0336617
0.0344214
0.0352097
0.0360238
0.0368629
0.0377269
0.0386167
0.0395333
0.0404784
0.0414534
0.0424603
0.0435009
0.0445771
0.0456911
0.0468451
0.0480414
0.0492825
0.0505709
0.0519094
0.0533009
0.0547486
0.0562559
0.0578263
0.0594637
0.0611723
0.0629566
0.0648213
0.0667716
0.0688133
0.0709522
0.0731948
0.0755484
0.0780205
0.0806195
0.0833544
0.086235
0.0892721
0.0924771
0.0958628
0.0994426
0.103232
0.107246
0.111503
0.116023
0.120826
0.125934
0.131373
0.137169
0.143349
0.149947
0.156993
0.164523
0.172574
0.181183
0.190392
0.200239
0.210765
0.222007
0.234
0.246778
0.260385
0.274958
0.290886
0.308445
0.327345
0.347176
0.367642
0.388326
0.408678
0.428052
0.445776
0.461262
0.474117
0.484223
0.491741
0.497055
0.500658
0.503053
0.50467
0.505835
0.506765
0.507587
0.508365
0.509125
0.0266908
0.0272427
0.0278087
0.0283892
0.028985
0.0295966
0.0302246
0.0308698
0.0315329
0.0322147
0.0329177
0.033647
0.0344064
0.0351943
0.0360081
0.0368467
0.0377104
0.0385998
0.039516
0.0404607
0.0414353
0.0424417
0.0434817
0.0445575
0.045671
0.0468245
0.0480203
0.0492608
0.0505486
0.0518865
0.0532774
0.0547244
0.0562309
0.0578006
0.0594373
0.0611451
0.0629285
0.0647923
0.0667416
0.0687822
0.07092
0.0731615
0.0755139
0.0779848
0.0805825
0.083316
0.0861951
0.0892306
0.0924339
0.0958176
0.0993956
0.103183
0.107195
0.11145
0.115968
0.120768
0.125874
0.13131
0.137103
0.143281
0.149875
0.156918
0.164445
0.172492
0.181099
0.190304
0.200148
0.210671
0.22191
0.2339
0.246675
0.260279
0.274846
0.290768
0.308323
0.327221
0.347053
0.367522
0.388212
0.408573
0.42796
0.445698
0.461199
0.474069
0.484187
0.491716
0.497037
0.500646
0.503043
0.504662
0.505828
0.506759
0.507581
0.508359
0.509119
0.0266907
0.0272427
0.0278087
0.0283893
0.028985
0.0295966
0.0302246
0.0308698
0.0315329
0.0322148
0.0329178
0.0336471
0.0344065
0.0351944
0.0360082
0.0368469
0.0377105
0.0385998
0.039516
0.0404606
0.0414352
0.0424416
0.0434818
0.0445576
0.0456712
0.0468248
0.0480206
0.0492611
0.0505489
0.0518868
0.0532777
0.0547248
0.0562313
0.0578009
0.0594375
0.0611452
0.0629284
0.0647921
0.0667414
0.0687819
0.0709196
0.0731612
0.0755136
0.0779846
0.0805824
0.083316
0.0861952
0.0892307
0.0924341
0.095818
0.099396
0.103183
0.107195
0.11145
0.115968
0.120768
0.125874
0.13131
0.137103
0.143281
0.149875
0.156918
0.164445
0.172493
0.1811
0.190305
0.200149
0.210671
0.22191
0.233901
0.246676
0.260279
0.274847
0.290769
0.308323
0.327221
0.347053
0.367523
0.388212
0.408573
0.42796
0.445698
0.461199
0.474068
0.484186
0.491715
0.497036
0.500644
0.503042
0.504661
0.505827
0.506757
0.50758
0.508358
0.509118
0.0267023
0.0272545
0.0278207
0.0284015
0.0289975
0.0296093
0.0302376
0.0308831
0.0315464
0.0322286
0.032932
0.0336619
0.0344217
0.0352101
0.0360243
0.0368633
0.0377273
0.0386169
0.0395335
0.0404785
0.0414535
0.0424604
0.043501
0.0445773
0.0456914
0.0468455
0.0480419
0.049283
0.0505715
0.05191
0.0533016
0.0547493
0.0562566
0.0578269
0.0594642
0.0611727
0.0629568
0.0648214
0.0667717
0.0688131
0.0709519
0.0731946
0.0755481
0.0780203
0.0806194
0.0833544
0.0862351
0.0892722
0.0924773
0.0958628
0.0994426
0.103232
0.107246
0.111503
0.116023
0.120826
0.125934
0.131373
0.137168
0.143349
0.149947
0.156993
0.164523
0.172574
0.181184
0.190392
0.20024
0.210765
0.222007
0.234001
0.246778
0.260385
0.274957
0.290886
0.308445
0.327344
0.347176
0.367642
0.388325
0.408677
0.428051
0.445776
0.461261
0.474116
0.484222
0.49174
0.497054
0.500657
0.503052
0.504669
0.505834
0.506764
0.507586
0.508364
0.509124
0.0267254
0.027278
0.0278446
0.0284259
0.0290224
0.0296348
0.0302636
0.0309096
0.0315735
0.0322562
0.0329605
0.0336914
0.0344523
0.0352415
0.0360564
0.0368961
0.0377608
0.0386512
0.0395686
0.0405145
0.0414903
0.0424981
0.0435395
0.0446166
0.0457316
0.0468867
0.0480841
0.0493264
0.050616
0.0519559
0.0533488
0.054798
0.0563068
0.0578788
0.0595178
0.0612279
0.0630138
0.0648802
0.0668324
0.0688759
0.0710168
0.0732618
0.0756177
0.0780923
0.080694
0.0834318
0.0863154
0.0893555
0.0925638
0.0959527
0.0995361
0.103329
0.107347
0.111609
0.116133
0.12094
0.126054
0.131498
0.137299
0.143485
0.150088
0.15714
0.164676
0.172733
0.18135
0.190565
0.200419
0.210952
0.2222
0.2342
0.246984
0.260596
0.275179
0.291121
0.308689
0.327591
0.347421
0.36788
0.388551
0.408885
0.428235
0.445932
0.461388
0.474214
0.484294
0.491792
0.497091
0.500684
0.503073
0.504687
0.50585
0.506778
0.5076
0.508377
0.509136
0.02676
0.0273133
0.0278806
0.0284626
0.0290598
0.0296729
0.0303025
0.0309493
0.0316141
0.0322977
0.0330031
0.0337356
0.034498
0.0352884
0.0361044
0.0369452
0.0378109
0.0387025
0.039621
0.040568
0.0415452
0.0425542
0.043597
0.0446756
0.0457921
0.0469487
0.0481477
0.0493916
0.0506831
0.0520248
0.0534197
0.054871
0.0563819
0.0579562
0.0595976
0.0613103
0.0630989
0.0649682
0.0669234
0.0689701
0.0711143
0.0733626
0.0757221
0.0782005
0.0808062
0.0835481
0.0864361
0.0894809
0.092694
0.0960881
0.0996768
0.103475
0.107499
0.111767
0.116298
0.121112
0.126233
0.131684
0.137493
0.143688
0.1503
0.157361
0.164907
0.172974
0.181601
0.190826
0.20069
0.211233
0.222491
0.234499
0.247291
0.260913
0.27551
0.291473
0.309055
0.32796
0.347787
0.368237
0.38889
0.409196
0.428511
0.446165
0.461576
0.474359
0.484401
0.491869
0.497146
0.500724
0.503104
0.504713
0.505873
0.5068
0.50762
0.508396
0.509154
0.0268061
0.0273603
0.0279286
0.0285115
0.0291097
0.0297238
0.0303544
0.0310023
0.0316681
0.0323529
0.0330598
0.0337944
0.0345588
0.0353508
0.0361683
0.0370106
0.0378777
0.0387707
0.0396907
0.0406392
0.0416179
0.0426287
0.0436733
0.0447538
0.0458724
0.0470311
0.0482324
0.0494786
0.0507725
0.0521168
0.0535144
0.0549685
0.0564824
0.0580598
0.0597044
0.0614206
0.0632128
0.0650858
0.0670449
0.0690957
0.0712441
0.0734969
0.0758612
0.0783445
0.0809554
0.0837028
0.0865966
0.0896474
0.0928668
0.0962677
0.0998636
0.10367
0.107702
0.111978
0.116518
0.121341
0.126472
0.131934
0.137754
0.14396
0.150584
0.157657
0.165216
0.173296
0.181935
0.191174
0.201051
0.211607
0.222877
0.234898
0.247702
0.261335
0.275952
0.291943
0.309542
0.328452
0.348276
0.368713
0.38934
0.40961
0.428876
0.446474
0.461826
0.474552
0.484543
0.491971
0.497218
0.500777
0.503145
0.504746
0.505903
0.506828
0.507646
0.508422
0.509178
0.0268638
0.027419
0.0279884
0.0285725
0.0291719
0.0297873
0.0304192
0.0310684
0.0317357
0.0324219
0.0331308
0.0338679
0.0346348
0.0354289
0.0362482
0.0370921
0.037961
0.0388557
0.0397776
0.0407281
0.041709
0.0427219
0.0437688
0.0448518
0.0459728
0.0471342
0.0483382
0.0495873
0.0508842
0.0522316
0.0536326
0.0550901
0.0566077
0.058189
0.0598378
0.0615583
0.063355
0.0652328
0.0671969
0.0692528
0.0714067
0.0736651
0.0760352
0.0785247
0.0811421
0.0838963
0.0867973
0.0898558
0.0930834
0.0964928
0.100098
0.103913
0.107956
0.112243
0.116793
0.121629
0.126771
0.132246
0.138079
0.144299
0.150937
0.158026
0.1656
0.173696
0.182352
0.191607
0.201501
0.212073
0.223359
0.235395
0.248213
0.261861
0.276503
0.292528
0.31015
0.329066
0.348885
0.369304
0.389901
0.410125
0.429331
0.44686
0.462137
0.474792
0.484721
0.492098
0.497309
0.500844
0.503197
0.50479
0.505942
0.506864
0.507681
0.508454
0.509209
0.0269329
0.0274895
0.0280602
0.0286457
0.0292466
0.0298635
0.030497
0.0311478
0.0318168
0.0325048
0.033216
0.0339561
0.034726
0.0355225
0.036344
0.03719
0.038061
0.0389578
0.0398819
0.0408348
0.0418181
0.0428336
0.0438833
0.0449691
0.0460932
0.0472577
0.048465
0.0497176
0.0510181
0.0523693
0.0537742
0.055236