/*--------------------------------*- C++ -*----------------------------------*\
  =========                 |
  \\      /  F ield         | OpenFOAM: The Open Source CFD Toolbox
   \\    /   O peration     | Website:  https://openfoam.org
    \\  /    A nd           | Version:  7
     \\/     M anipulation  |
\*---------------------------------------------------------------------------*/
FoamFile
{
    version     2.0;
    format      ascii;
    class       volVectorField;
    location    "12000";
    object      U;
}
// * * * * * * * * * * * * * * * * * * * * * * * * * * * * * * * * * * * * * //

dimensions      [0 1 -1 0 0 0 0];

internalField   nonuniform List<vector> 
4844
(
(-1.04439e-19 2.903e-18 -0.0116855)
(1.83668e-17 -2.19855e-18 -0.0116791)
(3.67897e-18 1.54175e-19 -0.0116721)
(5.7282e-18 2.63648e-17 -0.0116594)
(1.46899e-17 1.80383e-18 -0.0116529)
(3.18918e-18 1.89835e-18 -0.0116459)
(3.88717e-18 6.21018e-19 -0.0116382)
(2.62111e-18 3.14745e-19 -0.01163)
(2.41942e-18 1.08982e-19 -0.0116212)
(2.39766e-18 1.60506e-19 -0.0116119)
(1.35428e-18 2.33531e-19 -0.011602)
(5.03915e-18 2.25502e-17 -0.0116331)
(1.00774e-17 2.05225e-18 -0.0116266)
(2.72956e-18 2.68479e-18 -0.0116195)
(3.65918e-18 1.15569e-18 -0.0116118)
(2.47095e-18 4.35706e-19 -0.0116035)
(2.5139e-18 1.99454e-19 -0.0115946)
(2.45716e-18 3.11746e-19 -0.0115852)
(1.40998e-18 3.08191e-19 -0.0115753)
(1.3652e-18 7.28325e-19 -0.0115648)
(1.47468e-18 6.00934e-19 -0.0115538)
(1.01187e-18 -2.42603e-19 -0.0115423)
(3.32518e-18 1.57123e-17 -0.0116065)
(7.19349e-18 1.79378e-18 -0.0116)
(2.4993e-18 2.80183e-18 -0.0115928)
(3.40103e-18 1.46088e-18 -0.0115851)
(2.29986e-18 5.04889e-19 -0.0115767)
(2.58549e-18 2.70203e-19 -0.0115678)
(2.43064e-18 2.99866e-19 -0.0115583)
(1.39917e-18 2.21886e-19 -0.0115483)
(1.44979e-18 7.19443e-19 -0.0115378)
(1.31238e-18 6.37953e-19 -0.0115267)
(1.03133e-18 1.01607e-19 -0.0115151)
(6.37017e-19 2.54417e-20 -0.0115031)
(3.50342e-19 -4.02159e-19 -0.0114906)
(7.51336e-19 -4.08929e-19 -0.0114777)
(3.25318e-19 -5.09239e-19 -0.0114643)
(-9.59737e-20 4.9727e-20 -0.0114506)
(2.30569e-18 1.20061e-17 -0.0115797)
(5.49251e-18 2.34732e-18 -0.0115731)
(2.43046e-18 3.03209e-18 -0.0115659)
(3.08436e-18 1.68065e-18 -0.0115581)
(2.06547e-18 4.68961e-19 -0.0115497)
(2.6735e-18 3.78435e-19 -0.0115408)
(2.30533e-18 1.614e-19 -0.0115312)
(1.38492e-18 8.36983e-20 -0.0115212)
(1.49944e-18 5.17938e-19 -0.0115105)
(1.10718e-18 3.07831e-19 -0.0114994)
(9.80436e-19 2.94905e-19 -0.0114878)
(5.00564e-19 1.0677e-19 -0.0114757)
(6.09967e-19 -8.68249e-20 -0.0114631)
(9.7325e-19 6.99632e-20 -0.0114501)
(7.46743e-20 -6.00687e-19 -0.0114367)
(-2.34824e-19 -2.21507e-19 -0.0114229)
(1.85975e-18 9.98478e-18 -0.0115527)
(4.40432e-18 2.92172e-18 -0.0115461)
(2.22793e-18 3.12693e-18 -0.0115388)
(2.57314e-18 1.52272e-18 -0.011531)
(1.99582e-18 7.76564e-19 -0.0115225)
(2.70901e-18 4.26869e-19 -0.0115135)
(2.15558e-18 1.10219e-19 -0.0115039)
(1.39873e-18 4.60904e-20 -0.0114938)
(1.42696e-18 3.93389e-19 -0.0114831)
(9.62213e-19 1.3787e-19 -0.0114719)
(9.32497e-19 2.01859e-19 -0.0114602)
(5.76335e-19 1.92894e-19 -0.011448)
(8.21849e-19 1.00533e-19 -0.0114354)
(7.70371e-19 1.00859e-20 -0.0114223)
(3.71189e-21 -4.03889e-19 -0.0114088)
(-1.87241e-19 -2.24515e-19 -0.0113949)
(3.42687e-18 3.10699e-18 -0.0115188)
(1.86307e-18 3.03442e-18 -0.0115115)
(2.2448e-18 1.38244e-18 -0.0115036)
(2.06934e-18 1.19924e-18 -0.0114951)
(2.67001e-18 5.77254e-19 -0.011486)
(2.12402e-18 2.9056e-19 -0.0114764)
(1.49841e-18 2.13686e-19 -0.0114662)
(1.44017e-18 3.05958e-19 -0.0114554)
(1.00546e-18 2.98604e-19 -0.0114442)
(9.70401e-19 2.98106e-19 -0.0114324)
(5.45405e-19 1.76692e-19 -0.0114202)
(7.30032e-19 1.59572e-20 -0.0114075)
(4.74735e-19 -2.54371e-19 -0.0113943)
(-1.3395e-19 -4.71984e-19 -0.0113808)
(-1.04604e-19 -1.78115e-19 -0.0113668)
(2.64133e-18 3.18087e-18 -0.0114912)
(1.57425e-18 2.98568e-18 -0.0114839)
(2.10048e-18 1.61299e-18 -0.011476)
(2.10744e-18 1.40107e-18 -0.0114674)
(2.70083e-18 8.89496e-19 -0.0114583)
(2.11676e-18 5.21187e-19 -0.0114486)
(1.61931e-18 6.12161e-19 -0.0114383)
(1.334e-18 1.41494e-19 -0.0114275)
(9.78403e-19 2.36319e-19 -0.0114162)
(9.23322e-19 3.46384e-19 -0.0114044)
(4.33698e-19 7.94135e-20 -0.0113921)
(6.48689e-19 -4.50686e-20 -0.0113793)
(1.22058e-19 -5.49129e-19 -0.0113661)
(-1.76195e-19 -5.56799e-19 -0.0113525)
(2.67922e-20 -2.44052e-19 -0.0113385)
(1.99442e-18 3.1377e-18 -0.0114635)
(1.34325e-18 2.92595e-18 -0.0114561)
(1.99987e-18 1.77989e-18 -0.0114481)
(2.16593e-18 1.62944e-18 -0.0114396)
(2.68413e-18 1.08695e-18 -0.0114304)
(2.08962e-18 6.02652e-19 -0.0114206)
(1.64847e-18 9.50217e-19 -0.0114103)
(1.13845e-18 -9.70741e-21 -0.0113995)
(1.00605e-18 2.01173e-19 -0.0113881)
(8.32057e-19 2.4272e-19 -0.0113762)
(3.71625e-19 8.09496e-20 -0.0113638)
(3.45903e-19 -2.8982e-19 -0.011351)
(-1.51861e-19 -7.79625e-19 -0.0113377)
(1.15511e-20 -4.41996e-19 -0.0113241)
(1.77897e-19 -2.45799e-19 -0.01131)
(6.56835e-19 5.79894e-18 -0.0114423)
(1.4843e-18 3.11565e-18 -0.0114355)
(1.21982e-18 3.00117e-18 -0.0114281)
(2.00076e-18 2.03613e-18 -0.0114201)
(2.22343e-18 1.831e-18 -0.0114115)
(2.51054e-18 1.00491e-18 -0.0114022)
(2.07075e-18 6.66614e-19 -0.0113924)
(1.49401e-18 9.40036e-19 -0.0113821)
(9.77617e-19 -3.35169e-20 -0.0113711)
(1.04745e-18 2.10059e-19 -0.0113597)
(7.32017e-19 1.90709e-19 -0.0113478)
(1.98463e-19 3.4448e-20 -0.0113353)
(2.30028e-19 -2.11763e-19 -0.0113225)
(-1.42452e-19 -8.54279e-19 -0.0113091)
(1.39303e-19 -5.39394e-19 -0.0112954)
(1.39313e-19 -4.57606e-19 -0.0112812)
(4.77222e-19 4.9042e-18 -0.0114141)
(1.14564e-18 3.00872e-18 -0.0114073)
(1.20168e-18 3.17154e-18 -0.0113999)
(2.00359e-18 2.31133e-18 -0.0113918)
(2.0645e-18 1.80988e-18 -0.0113831)
(2.31708e-18 8.71407e-19 -0.0113739)
(2.06811e-18 7.41988e-19 -0.011364)
(1.19774e-18 6.38242e-19 -0.0113536)
(9.41369e-19 6.58444e-20 -0.0113426)
(1.05971e-18 1.45498e-19 -0.0113311)
(6.8404e-19 2.79539e-19 -0.0113191)
(2.67506e-19 2.09047e-19 -0.0113067)
(4.18343e-19 3.06989e-19 -0.0112937)
(2.06675e-21 -4.42036e-19 -0.0112803)
(1.22146e-19 -6.57775e-19 -0.0112665)
(1.58417e-19 -6.72979e-19 -0.0112523)
(3.45191e-19 4.32221e-18 -0.0113858)
(9.54971e-19 2.82294e-18 -0.0113789)
(1.16566e-18 3.01266e-18 -0.0113714)
(1.92843e-18 2.55776e-18 -0.0113633)
(1.85656e-18 1.69191e-18 -0.0113546)
(2.22826e-18 8.72441e-19 -0.0113453)
(1.92119e-18 6.57644e-19 -0.0113354)
(9.97128e-19 5.10607e-19 -0.0113249)
(1.05037e-18 3.3811e-19 -0.0113139)
(1.10532e-18 1.75544e-19 -0.0113024)
(7.6257e-19 4.06122e-19 -0.0112903)
(3.95289e-19 3.84368e-19 -0.0112778)
(4.36262e-19 4.65518e-19 -0.0112648)
(1.79458e-19 1.08591e-19 -0.0112513)
(3.22887e-19 -3.33331e-19 -0.0112375)
(4.42742e-19 -4.39597e-19 -0.0112232)
(2.46792e-19 3.94725e-18 -0.0113572)
(7.7357e-19 2.74632e-18 -0.0113503)
(1.2275e-18 2.96957e-18 -0.0113428)
(1.86584e-18 2.64446e-18 -0.0113346)
(1.62728e-18 1.67978e-18 -0.0113259)
(2.09877e-18 8.52225e-19 -0.0113165)
(1.76008e-18 4.87562e-19 -0.0113066)
(9.90616e-19 5.29032e-19 -0.011296)
(1.11902e-18 4.6506e-19 -0.011285)
(1.06652e-18 1.10089e-19 -0.0112734)
(8.63138e-19 6.53484e-19 -0.0112613)
(4.92943e-19 6.10773e-19 -0.0112487)
(5.47257e-19 6.57315e-19 -0.0112356)
(2.8946e-19 3.22625e-19 -0.0112221)
(7.6082e-19 3.17155e-19 -0.0112082)
(4.65058e-19 -4.6329e-19 -0.0111939)
(-9.60655e-19 2.74561e-18 -0.0113346)
(2.12874e-19 3.61194e-18 -0.0113284)
(7.42522e-19 2.71558e-18 -0.0113215)
(1.328e-18 3.07697e-18 -0.0113139)
(1.64787e-18 2.51043e-18 -0.0113057)
(1.41288e-18 1.65349e-18 -0.0112969)
(2.03149e-18 1.00583e-18 -0.0112875)
(1.67272e-18 4.70061e-19 -0.0112775)
(1.05597e-18 7.202e-19 -0.011267)
(1.0827e-18 4.8445e-19 -0.0112558)
(9.74254e-19 -2.00067e-19 -0.0112442)
(9.57891e-19 6.19717e-19 -0.011232)
(5.52267e-19 6.92702e-19 -0.0112194)
(6.73925e-19 9.86957e-19 -0.0112062)
(3.56852e-19 3.85154e-19 -0.0111927)
(9.22164e-19 7.03194e-19 -0.0111787)
(3.55526e-19 -4.1462e-19 -0.0111643)
(-9.15398e-19 2.56897e-18 -0.0113056)
(2.20841e-19 3.40175e-18 -0.0112994)
(7.41507e-19 2.7445e-18 -0.0112924)
(1.31869e-18 2.9829e-18 -0.0112848)
(1.34764e-18 2.10176e-18 -0.0112766)
(1.25714e-18 1.55248e-18 -0.0112678)
(1.99577e-18 1.18189e-18 -0.0112583)
(1.5211e-18 2.50322e-19 -0.0112483)
(1.122e-18 8.65481e-19 -0.0112377)
(9.98831e-19 6.35267e-19 -0.0112265)
(9.38296e-19 -2.81192e-19 -0.0112148)
(9.51855e-19 4.26182e-19 -0.0112026)
(4.42793e-19 3.76089e-19 -0.0111899)
(7.8046e-19 1.17028e-18 -0.0111767)
(4.32906e-19 5.12075e-19 -0.0111631)
(7.64081e-19 5.50924e-19 -0.0111491)
(3.27645e-19 -2.81932e-19 -0.0111346)
(-1.1528e-18 2.66094e-18 -0.0112821)
(-8.15479e-19 2.6212e-18 -0.0112764)
(2.80032e-19 3.22827e-18 -0.0112701)
(7.70477e-19 2.80005e-18 -0.0112632)
(1.19367e-18 2.87473e-18 -0.0112555)
(1.06608e-18 1.82755e-18 -0.0112473)
(1.23065e-18 1.4841e-18 -0.0112384)
(1.74347e-18 9.45362e-19 -0.0112289)
(1.34169e-18 -4.83517e-21 -0.0112188)
(1.14112e-18 7.07097e-19 -0.0112082)
(9.36264e-19 7.69798e-19 -0.0111969)
(8.9182e-19 -3.43221e-19 -0.0111852)
(7.22972e-19 -4.18631e-20 -0.0111729)
(4.40904e-19 1.44573e-19 -0.0111602)
(7.28319e-19 9.47912e-19 -0.0111469)
(3.81058e-19 6.08315e-19 -0.0111333)
(5.15371e-19 3.72928e-19 -0.0111192)
(1.88634e-19 -2.51201e-19 -0.0111047)
(-1.05972e-18 2.402e-18 -0.0112527)
(-7.03069e-19 2.66273e-18 -0.011247)
(3.07974e-19 3.11933e-18 -0.0112407)
(7.97372e-19 2.91082e-18 -0.0112337)
(9.04953e-19 2.28144e-18 -0.011226)
(9.30804e-19 1.85323e-18 -0.0112177)
(1.13252e-18 1.49755e-18 -0.0112088)
(1.49052e-18 7.46926e-19 -0.0111993)
(1.35158e-18 2.11166e-20 -0.0111892)
(1.14163e-18 4.39462e-19 -0.0111785)
(8.44545e-19 8.66135e-19 -0.0111672)
(8.07764e-19 -1.58477e-19 -0.0111554)
(5.854e-19 -3.96874e-19 -0.0111431)
(4.49889e-19 -1.25748e-19 -0.0111303)
(4.11125e-19 3.28882e-19 -0.011117)
(2.11091e-19 4.05524e-19 -0.0111033)
(4.52097e-19 4.09469e-19 -0.0110891)
(1.55072e-19 -1.12156e-19 -0.0110746)
(-9.63792e-19 2.24032e-18 -0.0112231)
(-6.40266e-19 2.35533e-18 -0.0112174)
(3.84021e-19 2.97635e-18 -0.011211)
(6.34225e-19 2.85165e-18 -0.011204)
(6.97667e-19 2.02107e-18 -0.0111963)
(9.4663e-19 1.91216e-18 -0.011188)
(1.05162e-18 1.49709e-18 -0.011179)
(1.42102e-18 9.2358e-19 -0.0111695)
(1.40114e-18 2.73057e-19 -0.0111593)
(1.2192e-18 4.14829e-19 -0.0111485)
(7.12347e-19 6.4423e-19 -0.0111372)
(8.51496e-19 1.88113e-19 -0.0111254)
(6.82721e-19 -9.1858e-20 -0.011113)
(4.13729e-19 -2.37244e-19 -0.0111002)
(1.88285e-19 -1.32242e-19 -0.0110868)
(1.21993e-19 1.17626e-19 -0.0110731)
(5.53097e-19 5.62434e-19 -0.0110589)
(1.78124e-19 2.31525e-19 -0.0110443)
(-9.37216e-19 2.09763e-18 -0.0111933)
(-5.17403e-19 2.40454e-18 -0.0111876)
(4.37965e-19 2.77721e-18 -0.0111812)
(5.19848e-19 2.66762e-18 -0.0111741)
(7.01277e-19 2.21176e-18 -0.0111664)
(9.22182e-19 2.012e-18 -0.011158)
(9.38679e-19 1.40513e-18 -0.011149)
(1.35672e-18 9.77803e-19 -0.0111394)
(1.44113e-18 4.60172e-19 -0.0111292)
(1.23116e-18 5.1952e-19 -0.0111184)
(5.33772e-19 3.81193e-19 -0.0111071)
(9.47269e-19 3.69571e-19 -0.0110952)
(7.38739e-19 1.39617e-19 -0.0110828)
(4.69493e-19 8.64202e-21 -0.0110699)
(1.45456e-19 -2.20913e-19 -0.0110565)
(1.36555e-19 -1.24873e-19 -0.0110427)
(6.78307e-19 6.15782e-19 -0.0110284)
(2.50182e-20 2.79672e-19 -0.0110138)
(-8.26971e-19 1.95296e-18 -0.0111632)
(-3.25422e-19 2.71892e-18 -0.0111575)
(4.34623e-19 2.64932e-18 -0.0111511)
(4.34036e-19 2.5291e-18 -0.011144)
(6.29981e-19 2.11683e-18 -0.0111363)
(8.00671e-19 1.92057e-18 -0.0111279)
(7.88477e-19 1.25756e-18 -0.0111188)
(1.29836e-18 9.41046e-19 -0.0111092)
(1.36466e-18 3.68569e-19 -0.0110989)
(1.1109e-18 4.02441e-19 -0.0110881)
(5.46145e-19 3.98735e-19 -0.0110767)
(9.711e-19 3.59406e-19 -0.0110648)
(6.66268e-19 1.09685e-19 -0.0110523)
(5.23845e-19 2.20168e-19 -0.0110394)
(1.5363e-19 -1.05475e-19 -0.0110259)
(1.94101e-19 -2.84253e-19 -0.0110121)
(5.1938e-19 3.56085e-19 -0.0109978)
(-2.67286e-19 4.26971e-20 -0.0109831)
(-6.35651e-19 1.88031e-18 -0.011133)
(-1.61555e-19 2.94829e-18 -0.0111273)
(3.62426e-19 2.51633e-18 -0.0111208)
(3.4468e-19 2.43552e-18 -0.0111137)
(5.30627e-19 1.94964e-18 -0.0111059)
(6.96523e-19 1.84173e-18 -0.0110975)
(7.29051e-19 1.25238e-18 -0.0110884)
(1.22223e-18 9.06936e-19 -0.0110788)
(1.22e-18 1.95303e-19 -0.0110685)
(1.10835e-18 3.95089e-19 -0.0110576)
(6.1816e-19 5.47485e-19 -0.0110461)
(8.79332e-19 2.31781e-19 -0.0110342)
(6.67497e-19 1.22414e-19 -0.0110216)
(4.87697e-19 2.26843e-19 -0.0110086)
(1.46106e-19 3.0967e-21 -0.0109952)
(4.13828e-19 -3.23575e-20 -0.0109813)
(1.41959e-19 -1.58706e-19 -0.0109669)
(-3.64729e-19 -7.07989e-20 -0.0109522)
(-3.84468e-19 1.95224e-18 -0.0111026)
(-8.98181e-20 2.86449e-18 -0.0110968)
(2.51632e-19 2.37252e-18 -0.0110903)
(2.52229e-19 2.32589e-18 -0.0110832)
(5.06864e-19 2.00082e-18 -0.0110754)
(6.47105e-19 1.82054e-18 -0.0110669)
(7.34904e-19 1.48156e-18 -0.0110578)
(1.10803e-18 8.64522e-19 -0.0110481)
(1.21284e-18 2.3665e-19 -0.0110378)
(1.14224e-18 3.79806e-19 -0.0110269)
(7.07956e-19 8.04226e-19 -0.0110154)
(8.46426e-19 1.98118e-19 -0.0110033)
(6.33336e-19 7.65506e-20 -0.0109908)
(4.2857e-19 2.08571e-19 -0.0109777)
(2.99373e-19 1.84123e-19 -0.0109642)
(5.88063e-19 3.04484e-19 -0.0109503)
(-5.09617e-20 -2.51975e-19 -0.0109359)
(-2.97993e-19 -6.27593e-20 -0.0109211)
(-2.14123e-19 1.95927e-18 -0.0110719)
(-1.18631e-19 2.58137e-18 -0.0110661)
(1.48041e-19 2.18225e-18 -0.0110597)
(1.79055e-19 2.10721e-18 -0.0110525)
(5.51243e-19 2.20637e-18 -0.0110446)
(5.94991e-19 1.74954e-18 -0.0110361)
(7.04808e-19 1.58978e-18 -0.011027)
(1.0022e-18 8.75752e-19 -0.0110172)
(1.25903e-18 4.47029e-19 -0.0110069)
(1.22283e-18 4.21245e-19 -0.0109959)
(7.20089e-19 8.61602e-19 -0.0109844)
(6.68356e-19 7.80819e-20 -0.0109723)
(4.77028e-19 -1.90441e-19 -0.0109597)
(4.48655e-19 1.63121e-19 -0.0109466)
(4.05909e-19 2.78822e-19 -0.0109331)
(5.36517e-19 3.46939e-19 -0.0109191)
(5.13187e-20 3.9159e-20 -0.0109046)
(-2.95833e-19 -5.44921e-20 -0.0108898)
(-1.45472e-19 1.69453e-18 -0.0110411)
(-1.34273e-19 2.3959e-18 -0.0110353)
(5.41756e-20 2.03331e-18 -0.0110287)
(1.69428e-19 1.91582e-18 -0.0110216)
(5.46337e-19 2.1953e-18 -0.0110137)
(4.80103e-19 1.62157e-18 -0.0110052)
(6.1482e-19 1.52385e-18 -0.010996)
(9.74027e-19 9.66607e-19 -0.0109862)
(1.35103e-18 6.4617e-19 -0.0109758)
(1.25846e-18 5.06336e-19 -0.0109648)
(5.07285e-19 6.66267e-19 -0.0109532)
(4.49592e-19 -1.14676e-19 -0.0109411)
(3.80846e-19 -4.30903e-19 -0.0109285)
(4.74604e-19 7.04915e-20 -0.0109153)
(4.15697e-19 2.29103e-19 -0.0109017)
(4.63263e-19 2.54774e-19 -0.0108877)
(1.24842e-19 3.10012e-19 -0.0108732)
(-3.83506e-19 -6.00976e-20 -0.0108583)
(-9.63042e-20 1.4993e-18 -0.01101)
(-1.06581e-19 2.26213e-18 -0.0110042)
(-3.01689e-20 1.90628e-18 -0.0109976)
(1.58629e-19 1.77732e-18 -0.0109904)
(4.61891e-19 1.97402e-18 -0.0109825)
(4.19293e-19 1.58538e-18 -0.010974)
(5.93145e-19 1.49348e-18 -0.0109647)
(1.00203e-18 1.10307e-18 -0.0109549)
(1.38319e-18 8.04937e-19 -0.0109445)
(1.18102e-18 4.95007e-19 -0.0109334)
(4.29495e-19 7.51181e-19 -0.0109218)
(3.66612e-19 -7.27707e-20 -0.0109097)
(4.90051e-19 -3.47014e-19 -0.010897)
(7.66428e-19 3.65123e-19 -0.0108838)
(6.04508e-19 4.76629e-19 -0.0108702)
(4.18503e-19 1.80375e-19 -0.0108561)
(3.27141e-20 3.11678e-19 -0.0108416)
(-4.13477e-19 1.76689e-21 -0.0108266)
(-3.83954e-20 1.48318e-18 -0.0109787)
(-1.0798e-19 2.09265e-18 -0.0109729)
(-1.278e-19 1.7472e-18 -0.0109663)
(1.86427e-19 1.78802e-18 -0.0109591)
(4.4831e-19 1.87297e-18 -0.0109511)
(3.60742e-19 1.47761e-18 -0.0109425)
(5.89903e-19 1.5233e-18 -0.0109333)
(9.97478e-19 1.12682e-18 -0.0109234)
(1.31631e-18 7.55523e-19 -0.010913)
(1.17402e-18 5.55432e-19 -0.0109019)
(3.85173e-19 8.70574e-19 -0.0108902)
(4.02065e-19 1.60773e-19 -0.010878)
(8.37084e-19 -1.64608e-20 -0.0108653)
(1.11213e-18 7.11655e-19 -0.0108521)
(6.72238e-19 7.2521e-19 -0.0108384)
(2.73463e-19 1.2943e-19 -0.0108243)
(-3.16349e-19 -4.16394e-20 -0.0108097)
(-4.56861e-19 1.54869e-20 -0.0107948)
(-1.93918e-20 1.52974e-18 -0.0109472)
(-1.55387e-19 1.81605e-18 -0.0109413)
(-1.50969e-19 1.68253e-18 -0.0109348)
(1.93457e-19 1.63985e-18 -0.0109275)
(3.53008e-19 1.72063e-18 -0.0109195)
(2.548e-19 1.22649e-18 -0.0109109)
(6.74569e-19 1.67644e-18 -0.0109017)
(9.62458e-19 1.16488e-18 -0.0108918)
(1.2437e-18 6.64006e-19 -0.0108812)
(1.07982e-18 4.23554e-19 -0.0108701)
(2.61037e-19 7.77119e-19 -0.0108584)
(4.50708e-19 2.67873e-19 -0.0108462)
(1.02259e-18 7.91056e-20 -0.0108334)
(9.22577e-19 3.3064e-19 -0.0108202)
(4.58603e-19 6.13057e-19 -0.0108064)
(-2.59165e-20 -2.00789e-20 -0.0107923)
(-4.3776e-19 -1.31679e-19 -0.0107777)
(-4.13671e-19 3.68729e-21 -0.0107627)
(-7.80747e-20 1.5321e-18 -0.0109155)
(-2.06557e-19 1.55306e-18 -0.0109096)
(-1.90442e-19 1.6133e-18 -0.010903)
(2.00796e-19 1.66612e-18 -0.0108957)
(2.49418e-19 1.44056e-18 -0.0108877)
(3.0978e-19 1.19979e-18 -0.0108791)
(8.11877e-19 1.88424e-18 -0.0108698)
(8.6814e-19 1.14064e-18 -0.0108599)
(1.10446e-18 5.53223e-19 -0.0108493)
(9.17248e-19 1.76619e-19 -0.0108382)
(2.07449e-19 7.34431e-19 -0.0108264)
(3.82743e-19 1.62707e-19 -0.0108142)
(9.94959e-19 9.71497e-21 -0.0108014)
(4.88918e-19 -4.00536e-19 -0.0107881)
(1.57848e-19 2.54337e-19 -0.0107743)
(-3.23042e-19 -3.11274e-19 -0.01076)
(-2.16779e-19 1.56808e-19 -0.0107454)
(-3.84571e-19 8.93678e-20 -0.0107304)
(-2.09489e-19 1.42232e-18 -0.0108836)
(-1.97662e-19 1.58258e-18 -0.0108777)
(-1.64811e-19 1.47667e-18 -0.0108711)
(2.84721e-19 1.96285e-18 -0.0108637)
(2.13763e-19 1.49499e-18 -0.0108557)
(3.52466e-19 9.97262e-19 -0.010847)
(8.14921e-19 1.85946e-18 -0.0108377)
(6.46371e-19 9.64654e-19 -0.0108278)
(1.05673e-18 6.43287e-19 -0.0108172)
(7.11569e-19 -2.35986e-19 -0.010806)
(2.23615e-19 8.27402e-19 -0.0107942)
(3.39179e-19 1.07129e-19 -0.0107819)
(9.97538e-19 1.10318e-19 -0.0107691)
(1.9445e-19 -7.82333e-19 -0.0107557)
(1.13924e-20 7.04775e-20 -0.0107419)
(-4.88622e-19 -5.81918e-19 -0.0107276)
(-1.2438e-19 1.73508e-19 -0.0107129)
(-2.45216e-19 3.90862e-19 -0.0106979)
(-1.99842e-19 1.41404e-18 -0.0108515)
(-1.71284e-19 1.63609e-18 -0.0108455)
(-1.46949e-19 1.38305e-18 -0.0108389)
(3.30572e-19 1.99419e-18 -0.0108315)
(2.14579e-19 1.88543e-18 -0.0108235)
(2.65514e-19 6.04209e-19 -0.0108148)
(8.09743e-19 1.74429e-18 -0.0108054)
(5.34107e-19 8.54816e-19 -0.0107954)
(1.0205e-18 8.66032e-19 -0.0107848)
(6.00248e-19 -3.98649e-19 -0.0107736)
(3.43072e-19 9.34538e-19 -0.0107618)
(3.93751e-19 2.23564e-19 -0.0107494)
(9.50608e-19 1.86894e-19 -0.0107366)
(1.61461e-19 -7.39155e-19 -0.0107232)
(7.53784e-20 1.94117e-19 -0.0107093)
(-3.73473e-19 -4.03889e-19 -0.010695)
(-2.27924e-19 -1.89997e-19 -0.0106803)
(-1.46885e-19 5.47971e-19 -0.0106651)
(-2.16385e-19 1.48772e-18 -0.0108243)
(-2.28683e-19 1.2846e-18 -0.0108191)
(-1.9957e-19 1.57511e-18 -0.0108131)
(-9.79959e-20 1.35494e-18 -0.0108065)
(3.14556e-19 1.60552e-18 -0.0107991)
(1.60074e-19 2.19068e-18 -0.010791)
(3.24417e-19 7.55874e-19 -0.0107823)
(8.29565e-19 1.6095e-18 -0.0107729)
(3.85771e-19 6.90491e-19 -0.0107629)
(8.65304e-19 7.4351e-19 -0.0107522)
(6.29489e-19 -3.15277e-19 -0.010741)
(4.09813e-19 9.6884e-19 -0.0107292)
(4.16666e-19 3.33861e-19 -0.0107168)
(8.54818e-19 1.65492e-19 -0.0107038)
(2.88191e-19 -4.86537e-19 -0.0106904)
(1.09134e-19 2.09703e-19 -0.0106765)
(-4.3112e-19 -3.45997e-19 -0.0106622)
(-5.28726e-19 -6.79251e-19 -0.0106474)
(-2.41147e-19 3.06944e-19 -0.0106322)
(-3.19605e-19 1.34513e-18 -0.0107918)
(-2.17043e-19 1.17221e-18 -0.0107865)
(-2.14921e-19 1.33681e-18 -0.0107806)
(-1.48338e-19 1.25511e-18 -0.0107739)
(2.68485e-19 1.12043e-18 -0.0107665)
(6.2619e-20 1.9114e-18 -0.0107584)
(3.63865e-19 9.62429e-19 -0.0107496)
(7.03843e-19 1.40256e-18 -0.0107402)
(2.52433e-19 5.6325e-19 -0.0107301)
(7.40163e-19 6.09286e-19 -0.0107195)
(6.51791e-19 -3.21565e-19 -0.0107082)
(3.2239e-19 6.70068e-19 -0.0106963)
(3.334e-19 2.56777e-19 -0.0106839)
(8.09181e-19 1.71233e-19 -0.0106709)
(4.10302e-19 -2.37662e-19 -0.0106574)
(8.69899e-20 3.0253e-19 -0.0106435)
(-7.55385e-19 -5.72276e-19 -0.0106291)
(-3.46338e-19 -5.72347e-19 -0.0106143)
(-2.45717e-19 7.59279e-20 -0.0105991)
(-5.84293e-19 1.55071e-18 -0.0107635)
(-3.48546e-19 1.36173e-18 -0.010759)
(-2.17192e-19 1.26356e-18 -0.0107537)
(-2.79196e-19 1.12309e-18 -0.0107477)
(-1.74913e-19 1.13427e-18 -0.010741)
(2.57348e-19 8.88173e-19 -0.0107336)
(-6.98266e-20 1.51358e-18 -0.0107255)
(2.87588e-19 7.04839e-19 -0.0107167)
(6.48131e-19 1.29794e-18 -0.0107073)
(2.22839e-19 6.43034e-19 -0.0106972)
(8.01659e-19 8.64197e-19 -0.0106865)
(6.92505e-19 -1.60503e-19 -0.0106751)
(1.20785e-19 2.42277e-19 -0.0106632)
(3.07861e-19 1.58021e-19 -0.0106508)
(8.21865e-19 1.78899e-19 -0.0106378)
(4.87821e-19 -9.09081e-20 -0.0106243)
(6.92597e-20 4.78084e-19 -0.0106103)
(-8.23973e-19 -5.77466e-19 -0.0105958)
(8.75632e-20 -1.5615e-19 -0.010581)
(-3.72298e-19 -1.17943e-19 -0.0105657)
(-5.96833e-19 1.31364e-18 -0.0107305)
(-3.61495e-19 1.37783e-18 -0.010726)
(-2.40109e-19 1.23865e-18 -0.0107207)
(-2.52826e-19 1.25885e-18 -0.0107147)
(-1.79071e-19 1.19352e-18 -0.010708)
(2.66953e-19 7.98336e-19 -0.0107005)
(-1.20058e-19 1.41272e-18 -0.0106924)
(2.09709e-19 4.05508e-19 -0.0106836)
(6.55215e-19 1.24774e-18 -0.0106741)
(2.10717e-19 6.05131e-19 -0.010664)
(8.85521e-19 1.13297e-18 -0.0106532)
(6.76641e-19 8.22229e-20 -0.0106419)
(6.38715e-20 1.20635e-19 -0.0106299)
(4.42353e-19 2.66587e-19 -0.0106174)
(8.49402e-19 2.00441e-19 -0.0106044)
(4.83334e-19 -8.13807e-20 -0.0105908)
(-2.42959e-20 5.39379e-19 -0.0105768)
(-5.8534e-19 -1.81793e-19 -0.0105623)
(2.7155e-19 1.64267e-20 -0.0105475)
(-5.81542e-19 -3.38874e-19 -0.0105322)
(-5.72625e-19 1.32104e-18 -0.0106973)
(-3.39515e-19 1.45831e-18 -0.0106928)
(-2.52895e-19 1.15993e-18 -0.0106875)
(-2.27332e-19 1.35113e-18 -0.0106814)
(-2.22729e-19 1.17126e-18 -0.0106747)
(2.59712e-19 6.89779e-19 -0.0106672)
(-1.76692e-19 1.39375e-18 -0.0106591)
(1.66281e-19 2.05636e-19 -0.0106502)
(6.15884e-19 1.04064e-18 -0.0106407)
(1.69257e-19 4.88885e-19 -0.0106306)
(8.59945e-19 1.07549e-18 -0.0106198)
(6.55075e-19 2.92774e-19 -0.0106084)
(2.12307e-19 3.80736e-19 -0.0105964)
(4.95078e-19 2.42195e-19 -0.0105839)
(8.17057e-19 1.88273e-19 -0.0105708)
(3.9298e-19 -1.81396e-19 -0.0105572)
(-2.57932e-19 2.42869e-19 -0.0105431)
(-4.31759e-19 3.69369e-20 -0.0105286)
(1.66605e-20 -2.25456e-19 -0.0105137)
(-7.04064e-19 -3.7135e-19 -0.0104984)
(-5.3354e-19 1.57392e-18 -0.0106639)
(-3.4925e-19 1.61087e-18 -0.0106593)
(-3.22628e-19 9.17035e-19 -0.010654)
(-2.57047e-19 1.22006e-18 -0.0106479)
(-2.87278e-19 1.14717e-18 -0.0106412)
(2.69315e-19 5.93716e-19 -0.0106337)
(-1.94477e-19 1.45406e-18 -0.0106255)
(2.58473e-19 4.79452e-19 -0.0106166)
(5.86738e-19 8.61121e-19 -0.0106071)
(3.15266e-19 7.48084e-19 -0.0105969)
(8.09077e-19 9.05796e-19 -0.0105861)
(6.71298e-19 4.3219e-19 -0.0105747)
(3.54332e-19 7.05339e-19 -0.0105627)
(4.33808e-19 1.36124e-19 -0.0105501)
(7.8909e-19 1.67869e-19 -0.010537)
(2.05627e-19 -3.34139e-19 -0.0105234)
(-6.63004e-19 -2.87606e-19 -0.0105093)
(-5.95194e-19 -1.30793e-19 -0.0104947)
(-4.09494e-19 -7.27634e-19 -0.0104797)
(-6.55616e-19 -3.42756e-19 -0.0104644)
(-5.53819e-19 1.54755e-18 -0.0106302)
(-4.40134e-19 1.63761e-18 -0.0106256)
(-3.96499e-19 8.37022e-19 -0.0106203)
(-2.69304e-19 9.87989e-19 -0.0106142)
(-3.16986e-19 1.13295e-18 -0.0106074)
(3.76547e-19 7.92608e-19 -0.0105999)
(-1.54041e-19 1.49736e-18 -0.0105917)
(4.85678e-19 1.1585e-18 -0.0105828)
(5.86737e-19 7.56595e-19 -0.0105733)
(3.97362e-19 9.16701e-19 -0.010563)
(6.98993e-19 7.34545e-19 -0.0105522)
(6.69482e-19 4.49972e-19 -0.0105407)
(4.19598e-19 9.09749e-19 -0.0105287)
(4.43162e-19 1.8693e-19 -0.0105161)
(8.68022e-19 3.76268e-19 -0.0105029)
(-3.72907e-20 -4.54629e-19 -0.0104893)
(-7.81825e-19 -4.13869e-19 -0.0104751)
(-6.94782e-19 -2.62121e-19 -0.0104605)
(-4.9351e-19 -8.34104e-19 -0.0104455)
(-6.60609e-19 -4.25403e-19 -0.0104301)
(-6.74938e-19 1.23638e-18 -0.0105963)
(-5.36258e-19 1.38739e-18 -0.0105917)
(-3.87248e-19 1.19965e-18 -0.0105864)
(-2.82785e-19 8.7447e-19 -0.0105803)
(-3.16681e-19 1.01393e-18 -0.0105735)
(4.99849e-19 1.01382e-18 -0.0105659)
(-1.18618e-19 1.4227e-18 -0.0105577)
(5.71563e-19 1.50144e-18 -0.0105488)
(4.74658e-19 6.39306e-19 -0.0105392)
(3.68448e-19 8.16437e-19 -0.0105289)
(7.16354e-19 7.84732e-19 -0.0105181)
(7.02644e-19 4.48298e-19 -0.0105066)
(4.53842e-19 1.01635e-18 -0.0104945)
(6.17278e-19 4.97463e-19 -0.0104818)
(7.70825e-19 3.42263e-19 -0.0104687)
(-2.07454e-19 -4.55019e-19 -0.010455)
(-5.08295e-19 2.13479e-20 -0.0104408)
(-6.08012e-19 -1.00702e-19 -0.0104262)
(-5.1065e-19 -8.37295e-19 -0.0104111)
(-5.47588e-19 -3.87768e-19 -0.0103957)
(-7.50883e-19 1.13346e-18 -0.0105622)
(-5.59485e-19 1.06671e-18 -0.0105576)
(-3.6644e-19 1.43983e-18 -0.0105522)
(-3.87604e-19 6.44923e-19 -0.0105461)
(-2.88475e-19 9.43586e-19 -0.0105393)
(5.68964e-19 1.04233e-18 -0.0105317)
(-1.35996e-19 1.23817e-18 -0.0105234)
(4.1186e-19 1.17614e-18 -0.0105145)
(3.22841e-19 3.81984e-19 -0.0105049)
(4.60591e-19 9.07858e-19 -0.0104946)
(7.25288e-19 8.13274e-19 -0.0104837)
(7.05266e-19 4.48087e-19 -0.0104722)
(4.50389e-19 9.57727e-19 -0.0104601)
(7.50271e-19 8.39512e-19 -0.0104474)
(6.40816e-19 3.65051e-19 -0.0104342)
(-2.76506e-19 -5.05583e-19 -0.0104204)
(-3.41273e-19 2.2403e-19 -0.0104062)
(-3.8975e-19 3.57094e-19 -0.0103915)
(-4.63526e-19 -7.55608e-19 -0.0103764)
(-3.2834e-19 -2.36638e-19 -0.010361)
(-8.17555e-19 1.04503e-18 -0.0105278)
(-5.34621e-19 1.11011e-18 -0.0105232)
(-4.2444e-19 1.42425e-18 -0.0105178)
(-5.01981e-19 3.49153e-19 -0.0105117)
(-1.61337e-19 1.07617e-18 -0.0105048)
(5.89983e-19 9.96238e-19 -0.0104972)
(-2.23977e-19 1.03616e-18 -0.0104889)
(2.24643e-19 8.37441e-19 -0.01048)
(2.98221e-19 2.44999e-19 -0.0104703)
(5.98506e-19 1.03873e-18 -0.01046)
(7.02344e-19 8.2512e-19 -0.0104491)
(6.80259e-19 3.63119e-19 -0.0104375)
(5.11043e-19 9.73806e-19 -0.0104254)
(7.93392e-19 9.29157e-19 -0.0104127)
(5.86189e-19 5.55687e-19 -0.0103994)
(-3.22243e-19 -4.25248e-19 -0.0103856)
(-3.66793e-19 5.10347e-20 -0.0103714)
(-3.5982e-19 4.91875e-19 -0.0103567)
(-3.0805e-19 -4.74887e-19 -0.0103415)
(-1.74669e-19 -9.65442e-20 -0.010326)
(-8.897e-19 7.61323e-19 -0.0104932)
(-4.61832e-19 1.25012e-18 -0.0104885)
(-5.5992e-19 1.25206e-18 -0.0104831)
(-5.27723e-19 2.87501e-19 -0.010477)
(-1.92219e-20 1.22771e-18 -0.0104701)
(5.82847e-19 1.00826e-18 -0.0104625)
(-2.82074e-19 9.32693e-19 -0.0104542)
(2.78979e-19 1.05444e-18 -0.0104452)
(3.58847e-19 2.4885e-19 -0.0104355)
(7.65777e-19 1.23959e-18 -0.0104252)
(6.81862e-19 8.99142e-19 -0.0104142)
(7.15568e-19 4.08889e-19 -0.0104027)
(6.73714e-19 1.15082e-18 -0.0103905)
(7.63789e-19 9.59368e-19 -0.0103777)
(4.30549e-19 5.63972e-19 -0.0103644)
(-3.32274e-19 -2.98885e-19 -0.0103506)
(-3.5511e-19 5.55161e-21 -0.0103363)
(-5.28052e-19 2.87609e-19 -0.0103216)
(-1.96392e-19 -3.37338e-19 -0.0103064)
(-1.63937e-19 -4.94982e-20 -0.0102908)
(-8.93675e-19 5.36926e-19 -0.0104583)
(-4.44814e-19 1.16643e-18 -0.0104536)
(-6.64175e-19 1.20645e-18 -0.0104482)
(-5.2897e-19 1.53844e-19 -0.0104421)
(7.13859e-20 1.17136e-18 -0.0104352)
(6.25079e-19 1.21535e-18 -0.0104276)
(-2.9608e-19 8.36662e-19 -0.0104192)
(3.41757e-19 1.31952e-18 -0.0104102)
(3.91078e-19 2.41814e-19 -0.0104005)
(8.90233e-19 1.33011e-18 -0.0103901)
(6.33081e-19 9.34554e-19 -0.0103791)
(7.76586e-19 4.25587e-19 -0.0103675)
(6.78618e-19 1.08052e-18 -0.0103553)
(8.15459e-19 1.17119e-18 -0.0103425)
(3.46981e-19 6.81957e-19 -0.0103292)
(-3.55171e-19 -1.99995e-19 -0.0103153)
(-2.51087e-19 1.28416e-19 -0.010301)
(-5.1122e-19 3.41883e-19 -0.0102862)
(-2.11743e-19 -3.63334e-19 -0.010271)
(-3.99265e-19 -3.14672e-19 -0.0102554)
(-8.40357e-19 6.80198e-19 -0.0104232)
(-3.85633e-19 1.09069e-18 -0.0104185)
(-7.53058e-19 1.29174e-18 -0.0104131)
(-5.39616e-19 1.13269e-19 -0.0104069)
(2.35585e-19 1.17549e-18 -0.0104)
(5.94048e-19 1.18673e-18 -0.0103923)
(-3.78822e-19 6.26595e-19 -0.010384)
(3.13064e-19 1.25922e-18 -0.0103749)
(3.43219e-19 4.26425e-20 -0.0103652)
(8.093e-19 9.65773e-19 -0.0103548)
(5.31158e-19 8.68007e-19 -0.0103438)
(8.09356e-19 4.83231e-19 -0.0103321)
(6.5111e-19 8.52425e-19 -0.0103199)
(9.22898e-19 1.40264e-18 -0.0103071)
(3.16552e-19 9.39317e-19 -0.0102937)
(-2.26489e-19 1.04285e-19 -0.0102798)
(-1.2162e-19 2.57985e-19 -0.0102654)
(-4.14668e-19 5.47411e-19 -0.0102506)
(-1.95682e-19 -2.4532e-19 -0.0102354)
(-5.09949e-19 -4.85663e-19 -0.0102197)
(-7.40123e-19 8.51102e-19 -0.0103878)
(-3.72959e-19 1.05984e-18 -0.0103831)
(-8.28371e-19 1.367e-18 -0.0103777)
(-4.38448e-19 4.02524e-19 -0.0103715)
(3.64224e-19 1.24792e-18 -0.0103645)
(4.30648e-19 8.78365e-19 -0.0103569)
(-4.54802e-19 3.63246e-19 -0.0103485)
(2.22663e-19 1.09404e-18 -0.0103394)
(2.282e-19 -1.94273e-19 -0.0103297)
(7.72156e-19 6.5123e-19 -0.0103193)
(5.47642e-19 8.73474e-19 -0.0103082)
(8.3874e-19 4.71404e-19 -0.0102965)
(6.45124e-19 6.99611e-19 -0.0102842)
(8.65589e-19 1.29313e-18 -0.0102714)
(1.84087e-19 9.60761e-19 -0.010258)
(-1.69476e-19 3.29309e-19 -0.010244)
(-4.38428e-20 3.72874e-19 -0.0102296)
(-4.18047e-19 5.99077e-19 -0.0102147)
(-8.90795e-20 -1.00275e-20 -0.0101995)
(-4.17879e-19 -3.84689e-19 -0.0101838)
(-6.96022e-19 7.00481e-19 -0.0103521)
(-3.41923e-19 9.51837e-19 -0.0103474)
(-8.43906e-19 1.52253e-18 -0.010342)
(-3.36664e-19 7.76777e-19 -0.0103358)
(4.03236e-19 1.21333e-18 -0.0103288)
(3.28622e-19 8.3047e-19 -0.0103211)
(-4.17088e-19 4.18872e-19 -0.0103127)
(1.7647e-19 9.8258e-19 -0.0103037)
(2.78575e-19 -9.50064e-20 -0.0102939)
(8.04694e-19 4.37463e-19 -0.0102834)
(5.77781e-19 9.68813e-19 -0.0102723)
(7.57174e-19 3.50692e-19 -0.0102606)
(5.98045e-19 4.81559e-19 -0.0102483)
(6.76402e-19 9.87951e-19 -0.0102354)
(-9.69858e-20 7.11439e-19 -0.010222)
(-2.87329e-19 2.05602e-19 -0.010208)
(-3.475e-24 4.30582e-19 -0.0101935)
(-4.67499e-19 5.81749e-19 -0.0101786)
(6.95429e-20 2.59867e-19 -0.0101633)
(-3.3836e-19 -2.57212e-19 -0.0101476)
(-6.52809e-19 5.8067e-19 -0.0103162)
(-2.62577e-19 1.0051e-18 -0.0103115)
(-8.6807e-19 1.44477e-18 -0.0103061)
(-2.6756e-19 1.0513e-18 -0.0102998)
(3.93104e-19 1.07919e-18 -0.0102929)
(2.83526e-19 8.54178e-19 -0.0102852)
(-3.53303e-19 5.79957e-19 -0.0102767)
(1.94765e-19 1.08734e-18 -0.0102676)