/*--------------------------------*- C++ -*----------------------------------*\
  =========                 |
  \\      /  F ield         | OpenFOAM: The Open Source CFD Toolbox
   \\    /   O peration     | Website:  https://openfoam.org
    \\  /    A nd           | Version:  7
     \\/     M anipulation  |
\*---------------------------------------------------------------------------*/
FoamFile
{
    version     2.0;
    format      ascii;
    class       surfaceScalarField;
    location    "272000";
    object      phi;
}
// * * * * * * * * * * * * * * * * * * * * * * * * * * * * * * * * * * * * * //

dimensions      [0 3 -1 0 0 0 0];

internalField   nonuniform List<scalar> 
9541
(
-1.67304e-24
-5.5303e-23
1.33267e-23
6.69279e-23
-8.04415e-24
-6.38973e-23
6.88942e-23
1.86895e-23
-7.99134e-23
5.6712e-23
5.07127e-26
-8.3966e-23
3.35086e-23
1.78791e-23
-8.01992e-23
5.76343e-23
-3.53023e-23
-9.12467e-23
7.13615e-23
-3.19851e-23
-9.38308e-23
8.66725e-23
-3.80791e-23
-8.34597e-23
8.68764e-23
2.32188e-23
-6.61917e-23
7.86164e-23
-1.69677e-23
-7.58065e-23
4.52601e-23
1.74637e-23
-6.00375e-23
3.1235e-23
2.47369e-23
-5.37578e-23
5.04079e-23
2.88688e-23
-6.16678e-23
6.46837e-23
2.76429e-23
-5.96347e-23
6.68644e-23
7.7598e-23
-5.15439e-23
6.65036e-23
1.16877e-22
-7.35692e-23
1.00074e-22
8.45043e-23
-1.23896e-22
1.28838e-22
4.08947e-23
-1.8399e-22
1.52409e-22
5.04361e-23
-1.99586e-22
1.74686e-22
9.04445e-24
-2.1763e-22
1.81637e-22
-4.89865e-23
-2.10268e-22
1.90666e-22
-2.87366e-24
-1.80949e-22
2.06997e-22
-2.49503e-23
-1.90992e-22
2.0444e-22
-4.59278e-23
-1.96535e-22
2.04535e-22
-5.00544e-23
-2.15379e-22
2.02808e-22
-1.06918e-22
-2.14795e-22
1.9604e-22
-1.09059e-22
-2.12289e-22
1.94155e-22
-1.33506e-22
-1.78443e-22
1.86466e-22
-1.57612e-22
-1.5956e-22
1.74888e-22
-1.10287e-22
-1.37862e-22
1.63523e-22
-2.1658e-22
-1.49111e-22
1.27189e-22
-2.33197e-22
-9.7164e-23
1.06195e-22
-1.72404e-22
-5.95586e-23
6.99286e-23
-2.2768e-22
-7.74381e-23
6.13557e-24
-1.75663e-22
-3.90773e-23
-7.39188e-24
-2.01458e-22
-1.36598e-23
-3.61439e-23
-1.21087e-22
1.51006e-23
-2.73321e-23
-1.37732e-22
-8.63869e-24
-4.8891e-23
-1.05596e-22
-1.16365e-23
-2.31779e-23
-1.48584e-22
-1.64197e-23
-9.20144e-24
-9.17117e-23
1.14318e-23
6.60347e-24
-1.45918e-22
7.00342e-24
-1.77732e-23
-7.38735e-23
1.87533e-23
-2.18179e-23
-5.85843e-23
1.46259e-25
-1.21435e-23
-9.93396e-23
-1.1941e-23
-1.74668e-23
-8.04406e-23
1.91895e-25
-1.5704e-23
-4.30284e-23
-6.45028e-24
-1.92619e-23
-2.66827e-23
-1.18143e-23
1.77159e-24
-7.80184e-24
-2.47321e-23
1.49868e-23
-1.96693e-23
6.68512e-24
2.24406e-23
-1.80978e-23
-7.39195e-23
3.12488e-23
-4.77521e-23
-8.39041e-23
2.84437e-24
-6.39624e-23
-5.9808e-24
-7.53985e-23
7.46077e-24
-9.85577e-23
-4.80016e-23
-1.11313e-22
-3.80915e-23
-1.08281e-22
-2.8125e-23
-9.53547e-23
-2.10261e-23
-8.32064e-23
-2.07344e-23
-7.95085e-23
-4.87457e-24
-8.00512e-23
9.57729e-24
-7.92517e-23
1.23547e-23
-6.40539e-23
2.51544e-23
-6.99546e-23
4.88559e-23
-7.3477e-23
7.63839e-23
-9.90547e-23
4.12816e-24
-1.3089e-22
1.93279e-23
-1.32925e-22
3.39003e-23
-1.45911e-22
3.76797e-23
-1.52804e-22
-6.63163e-24
-1.72932e-22
-1.71415e-23
-1.78431e-22
-3.30748e-23
-1.79722e-22
-9.39038e-23
-2.09819e-22
-4.17566e-23
-1.95982e-22
-1.27255e-22
-2.03279e-22
-5.49398e-23
-1.54844e-22
-1.36535e-22
-1.71657e-22
-1.45684e-22
-1.58805e-22
-1.57354e-22
-1.37179e-22
-1.88928e-22
-1.32567e-22
-2.44881e-22
-1.15853e-22
-2.42918e-22
-6.51421e-23
-1.88399e-22
-9.55497e-24
-1.53618e-22
-2.56495e-24
-1.59238e-22
-6.88315e-24
-1.29832e-22
-1.38558e-23
-1.06011e-22
-2.81657e-23
-9.28986e-23
-3.04299e-23
-8.35232e-23
-3.49328e-23
-9.00708e-23
-4.99536e-23
-1.03827e-22
-4.66526e-23
-6.66738e-23
-1.77748e-23
-6.33384e-23
-4.47486e-24
-7.70018e-23
-6.31142e-24
-7.75185e-23
2.33248e-24
-2.01739e-23
8.32969e-24
-2.30778e-23
-2.20584e-24
1.83851e-23
4.61904e-24
-3.18565e-24
1.44879e-23
-3.49816e-23
-3.88081e-23
6.76897e-23
-1.59091e-23
-3.3844e-23
-1.64388e-23
-6.23352e-23
-2.69446e-23
-6.59276e-23
-8.89676e-24
-5.33007e-23
-2.5258e-23
-9.80704e-23
-3.48606e-23
-1.05457e-22
-2.13913e-23
-1.17392e-22
-4.2195e-23
-1.36136e-22
-5.72663e-23
-1.42225e-22
-3.77315e-23
-1.10672e-22
2.30801e-23
-7.29082e-23
-1.6648e-23
-9.68923e-23
-1.51834e-23
-7.84598e-23
-5.79425e-24
-7.96167e-23
3.80233e-23
-7.48323e-23
1.26274e-23
-9.84044e-23
-1.60543e-24
-1.11458e-22
3.98284e-23
-1.16834e-22
2.66171e-23
-1.29748e-22
1.52016e-24
-1.49835e-22
-1.52808e-23
-1.6805e-22
-9.08678e-23
-1.83157e-22
-8.44149e-23
-1.44465e-22
-7.53188e-23
-1.35123e-22
-5.49238e-23
-1.5531e-22
-8.43914e-23
-2.03038e-22
-1.32281e-22
-1.96982e-22
-1.29203e-22
-1.75438e-22
-1.7567e-22
-1.63677e-22
-1.89394e-22
-1.31304e-22
-2.1223e-22
-1.04552e-22
-2.2153e-22
-6.0785e-23
-1.92611e-22
-3.77909e-23
-1.65218e-22
-2.25345e-23
-1.51303e-22
-1.48613e-23
-1.52382e-22
-7.85705e-24
-9.46801e-23
-1.56101e-23
-8.21717e-23
-3.51622e-23
-7.54097e-23
-3.75188e-23
-8.67968e-23
-3.19694e-23
-4.3778e-23
-1.61982e-23
-3.53354e-23
-2.08658e-23
-7.22026e-23
-3.8577e-23
-5.64431e-23
-1.69327e-23
-4.18765e-23
-5.97818e-24
-1.62851e-23
-8.56943e-24
-4.28879e-24
-1.25751e-23
1.07413e-23
-8.49836e-24
-2.47809e-23
-2.22311e-23
-3.41679e-23
-4.30444e-23
3.10732e-23
-2.67516e-23
-4.20147e-23
-1.46983e-23
-9.84568e-24
8.43524e-24
-2.68792e-23
-5.42729e-23
-6.31276e-23
-2.63331e-23
-6.18551e-23
-4.74049e-23
-8.73585e-23
-6.31928e-23
-1.07394e-22
-6.95778e-23
-1.25537e-22
-4.52341e-23
-9.5122e-23
2.09903e-25
-8.51288e-23
-3.38434e-23
-1.11563e-22
-2.00605e-23
-1.18906e-22
-3.87235e-23
-1.36522e-22
-1.45615e-23
-1.04601e-22
8.64201e-24
-9.78893e-23
-1.16829e-24
-8.59978e-23
-1.05351e-23
-9.61162e-23
3.85095e-23
-9.22352e-23
1.66197e-23
-1.18779e-22
-1.28705e-23
-1.29472e-22
-3.74844e-23
-1.59399e-22
-5.53704e-23
-1.83652e-22
-9.17833e-23
-1.85041e-22
-1.27725e-22
-1.74664e-22
-1.18814e-22
-1.65764e-22
-9.04581e-23
-1.59037e-22
-1.11113e-22
-1.7927e-22
-1.26087e-22
-1.67466e-22
-1.41555e-22
-1.58651e-22
-1.82941e-22
-1.63876e-22
-1.69646e-22
-1.31293e-22
-2.04778e-22
-9.88252e-23
-1.79975e-22
-5.7068e-23
-1.69199e-22
-2.68877e-23
-1.62154e-22
-1.14749e-23
-1.52953e-22
-6.61379e-24
-1.06989e-22
1.33292e-23
-9.46312e-23
2.12224e-23
-8.09067e-23
2.19932e-23
-6.85267e-23
2.45652e-23
-4.67013e-23
3.65104e-23
-7.03774e-23
6.23238e-24
-4.09566e-23
6.17033e-24
-3.69525e-23
-1.12325e-23
-2.73644e-23
-6.60639e-24
-2.74021e-24
-2.03005e-23
3.18311e-23
-4.67806e-23
7.11509e-24
-5.3671e-23
-2.87372e-23
1.18058e-23
-3.29788e-23
-3.68761e-23
2.40299e-23
1.40625e-23
-2.66001e-23
-2.27366e-23
-4.9187e-23
-1.0771e-23
-4.52399e-23
-4.17429e-23
-4.16057e-23
-4.47369e-23
-6.45609e-23
-5.91256e-23
-7.50078e-23
-8.80915e-23
-7.57481e-23
-3.19293e-23
-6.10883e-23
-3.81747e-23
-8.14193e-23
-3.56249e-23
-8.2449e-23
-5.18371e-23
-8.91483e-23
-6.02482e-23
-1.06776e-22
-1.76322e-23
-1.10681e-22
-2.44664e-23
-9.31099e-23
2.90998e-23
-7.96431e-23
-1.95009e-23
-1.14134e-22
-7.33758e-24
-1.1381e-22
1.41236e-24
-1.10687e-22
1.3196e-23
-1.43598e-22
-5.58683e-23
-1.92581e-22
-8.46016e-23
-2.03339e-22
-6.32678e-23
-2.16201e-22
-9.70011e-23
-2.28387e-22
-1.43875e-22
-2.06935e-22
-1.34296e-22
-1.74197e-22
-1.21912e-22
-1.59289e-22
-9.32724e-23
-1.32922e-22
-1.32291e-22
-1.26292e-22
-1.62976e-22
-1.25103e-22
-1.60376e-22
-9.30854e-23
-1.43505e-22
-7.69582e-23
-1.66594e-22
-8.38643e-23
-1.50557e-22
-6.41867e-23
-1.56716e-22
-3.42742e-23
-1.59818e-22
1.32808e-24
-1.43831e-22
4.89958e-23
-1.06444e-22
5.02915e-23
-1.02101e-22
2.53061e-23
-7.95276e-23
7.23085e-24
-6.62216e-23
1.59181e-23
-8.71812e-23
-1.40639e-23
-7.60249e-23
-2.31518e-24
-7.2439e-23
7.04544e-24
-3.79044e-23
2.99601e-23
-5.05775e-23
1.36096e-23
-2.70915e-23
2.60727e-23
1.33841e-23
3.81216e-23
2.71866e-23
4.67931e-24
-2.0745e-23
2.33858e-23
-2.77288e-23
-4.37135e-23
3.36681e-23
-2.02399e-23
-3.62103e-23
-3.28389e-23
-4.19774e-23
-2.09186e-23
-6.8007e-23
-6.3369e-23
-7.40678e-23
-6.83114e-23
-6.49552e-23
-5.93395e-23
-8.53817e-23
-6.74419e-23
-7.29539e-23
-6.98292e-23
-5.35127e-23
-3.58554e-23
-5.3151e-23
-5.18757e-23
-6.13967e-23
-6.22827e-23
-7.43708e-23
-7.60727e-23
-8.75262e-23
6.96493e-24
-6.77138e-23
-1.26037e-23
-6.50646e-23
-6.73355e-24
-7.77281e-23
-2.43305e-23
-1.03151e-22
-1.46979e-23
-1.31159e-22
-4.00476e-23
-1.57076e-22
-3.71498e-23
-1.62901e-22
-7.87405e-23
-1.66559e-22
-1.23792e-22
-1.69408e-22
-9.57858e-23
-1.7217e-22
-8.36981e-23
-1.69392e-22
-1.19272e-22
-1.69147e-22
-1.29394e-22
-1.5385e-22
-9.67648e-23
-1.24271e-22
-9.05849e-23
-1.29582e-22
-1.43539e-22
-1.48279e-22
-1.51049e-22
-1.05761e-22
-1.59841e-22
-7.51026e-23
-1.70443e-22
-5.46622e-23
-1.51914e-22
-3.12304e-23
-1.25216e-22
-1.70342e-23
-1.29043e-22
-1.83138e-23
-1.18562e-22
-3.71621e-24
-1.53592e-22
1.12562e-23
-1.36453e-22
3.50303e-23
-1.24203e-22
2.20263e-23
-5.62307e-23
1.39142e-23
-7.81419e-23
-3.45433e-23
-6.7206e-23
-2.23514e-23
-5.63322e-23
-1.17464e-23
-3.17524e-23
-1.43913e-23
-4.71243e-23
-2.63716e-23
-2.9514e-23
-6.36499e-24
-7.51774e-24
3.60691e-25
-2.24471e-23
-6.46599e-24
2.34699e-24
-8.5358e-24
-3.08201e-23
1.60825e-23
-6.00072e-24
-4.14134e-24
3.01982e-23
-2.92847e-23
-1.59558e-23
-4.67714e-23
-2.68297e-23
-2.82499e-23
-2.06456e-23
-4.55791e-23
-6.1234e-23
-9.29992e-23
-9.45244e-23
-5.46535e-23
-6.22454e-23
-4.54762e-23
-8.34892e-23
-7.50884e-23
-1.03116e-22
-4.73856e-23
-8.45125e-23
-5.85699e-23
-6.0478e-23
-8.6169e-23
-4.47736e-23
-6.06012e-23
-4.32289e-23
9.81748e-24
-1.35529e-23
-2.18602e-23
-2.46776e-23
-4.64091e-23
-4.66658e-23
-4.89718e-23
-1.00068e-22
-5.4926e-23
-1.20552e-22
-5.86403e-23
-1.50479e-22
-4.90542e-23
-1.73648e-22
-8.51328e-23
-2.015e-22
-1.34397e-22
-1.93762e-22
-1.01325e-22
-1.33347e-22
-9.34133e-23
-1.0496e-22
-1.17741e-22
-1.34495e-22
-1.0733e-22
-1.51472e-22
-9.97021e-23
-1.20021e-22
-1.14325e-22
-1.06417e-22
-1.03653e-22
-8.71607e-23
-1.29912e-22
-7.83657e-23
-1.47217e-22
-5.63883e-23
-1.65001e-22
-3.29501e-23
-1.53529e-22
-3.31646e-23
-1.30704e-22
-2.909e-23
-1.05984e-22
-3.09914e-23
-1.05947e-22
-1.17371e-23
-1.27228e-22
-4.18178e-23
-1.49773e-22
-1.7465e-23
-1.20982e-22
-1.44891e-23
-1.03562e-22
7.9057e-24
-6.96056e-23
6.51028e-24
-6.18775e-23
-2.09737e-23
-4.33944e-23
-2.27351e-23
-2.63055e-23
-2.74679e-23
-1.53843e-23
-3.47345e-23
-5.9986e-25
-2.25469e-23
-3.51873e-24
-3.56083e-24
-2.07678e-23
5.7463e-24
-3.17251e-23
5.89122e-24
-2.02939e-23
3.26529e-23
-1.72306e-23
-3.58236e-24
1.12406e-23
-3.10613e-23
-5.12819e-24
-3.85881e-23
-2.5909e-23
-6.36637e-23
-6.44575e-23
-6.25922e-23
-6.52774e-23
-5.50267e-23
-3.50143e-23
-7.71883e-23
-3.98557e-23
-6.96747e-23
-2.86517e-23
-6.61237e-23
-3.9599e-23
-4.17596e-23
-4.31939e-23
-3.78265e-23
-7.47344e-23
-8.87748e-23
-6.99527e-23
-4.81386e-23
-1.61839e-23
-2.33584e-23
-3.46343e-23
-3.31076e-23
-8.82516e-23
-1.08699e-22
-9.70211e-23
-7.18026e-23
-6.75102e-23
-9.41536e-23
-8.26474e-23
-8.23763e-23
-8.67691e-23
-7.41704e-23
-1.06926e-22
-8.06189e-23
-1.22261e-22
-8.4936e-23
-1.15627e-22
-7.91266e-23
-1.2946e-22
-1.27727e-22
-1.29235e-22
-1.44025e-22
-1.11192e-22
-7.89956e-23
-9.36506e-23
-9.51775e-23
-9.34511e-23
-1.01489e-22
-8.79156e-23
-8.99537e-23
-8.92716e-23
-1.14657e-22
-6.04846e-23
-1.38636e-22
-4.53868e-23
-1.74031e-22
-7.135e-23
-1.44407e-22
-5.62997e-23
-1.37463e-22
-2.67819e-23
-8.77998e-23
-1.15181e-23
-1.37414e-22
-3.64324e-23
-9.3914e-23
-1.81221e-23
-1.52106e-22
-3.25681e-23
-1.03956e-22
6.07287e-24
-1.05855e-22
1.61643e-23
-8.79308e-23
-1.09568e-24
-5.8495e-23
2.49478e-23
-5.36461e-23
4.08766e-23
-3.53266e-23
2.47359e-23
7.4033e-24
-6.94199e-24
3.0556e-23
-4.31087e-23
9.16346e-24
-5.52134e-23
-1.4093e-23
-3.94853e-23
-3.75667e-23
-3.9218e-23
-1.64984e-23
3.51549e-23
-2.47598e-23
-4.73015e-23
7.25923e-24
-5.56935e-23
-4.53563e-23
-6.41113e-23
-8.93773e-23
-7.7811e-23
-5.92638e-23
-3.64872e-23
-4.25779e-23
-6.59268e-23
-7.40229e-23
-6.82464e-23
-1.0681e-22
-8.24515e-23
-8.6029e-23
-5.65659e-23
-6.61019e-23
-7.40022e-23
-9.91582e-23
-4.67835e-23
-9.62796e-23
-5.09581e-23
-7.92591e-23
-7.83276e-23
-6.18022e-23
-7.14996e-23
-4.5943e-23
-4.38008e-23
-4.41152e-23
-8.55571e-23
-6.1495e-23
-9.24971e-23
-5.96463e-23
-9.60466e-23
-6.7859e-23
-1.02199e-22
-6.59149e-23
-9.07664e-23
-4.27426e-23
-7.54191e-23
-6.14586e-23
-1.00873e-22
-7.72131e-23
-7.90053e-23
-8.044e-23
-1.20014e-22
-8.29626e-23
-1.40671e-22
-8.12264e-23
-7.95401e-23
-8.18981e-23
-9.04567e-23
-7.16983e-23
-1.04078e-22
-6.24914e-23
-6.9191e-23
-5.19091e-23
-1.08525e-22
-9.65014e-23
-1.73569e-22
-1.08562e-22
-1.61305e-22
-6.97625e-23
-1.26902e-22
-2.11358e-23
-1.30702e-22
-1.61227e-23
-1.17771e-22
-1.84465e-23
-1.30047e-22
-2.59639e-23
-1.0791e-22
-3.50582e-23
-1.15606e-22
-1.86465e-23
-8.8381e-23
-1.49589e-23
-1.29086e-22
-1.37008e-23
-7.81026e-23
1.79441e-23
-5.88872e-23
7.33215e-24
-7.83188e-23
-7.90213e-24
-5.36802e-23
5.81676e-24
-9.77184e-24
2.09245e-23
2.32726e-23
-9.50817e-26
2.2194e-23
-5.12782e-23
-1.3941e-23
-6.77576e-23
5.36294e-24
-5.59493e-23
-2.57397e-23
2.12451e-23
-2.32963e-23
-5.77596e-23
2.83946e-23
-9.76097e-23
-9.42664e-23
-6.33608e-23
-5.94356e-23
-7.20629e-23
-5.17182e-23
-5.95163e-23
-5.52539e-23
-1.10139e-22
-9.41578e-23
-5.6642e-23
-9.00119e-23
-7.60691e-23
-7.37721e-23
-8.58219e-23
-6.53915e-23
-8.11085e-23
-3.85663e-23
-3.23017e-23
-2.39561e-23
-2.68758e-23
-1.88969e-23
-6.38485e-23
-3.68618e-23
-7.06403e-23
-4.34983e-23
-4.96063e-23
-6.1493e-23
-7.54021e-23
-3.91952e-23
-1.04027e-22
-2.84236e-23
-1.03725e-22
-6.1632e-23
-8.6173e-23
-7.00375e-23
-1.12978e-22
-8.73287e-23
-8.4313e-23
-7.90799e-23
-1.11909e-22
-4.23145e-23
-8.30601e-23
-3.2366e-23
-1.19244e-22
-4.39439e-23
-1.48201e-22
-4.17991e-23
-7.68963e-23
-2.85284e-23
-8.93638e-23
-4.88582e-23
-9.42116e-23
-5.41115e-23
-1.04847e-22
-5.3652e-23
-1.19159e-22
-7.16173e-23
-1.52232e-22
-8.26782e-23
-1.2699e-22
-2.16528e-23
-1.30142e-22
-2.06215e-23
-1.31658e-22
-1.65262e-23
-1.33885e-22
-2.56943e-23
-1.49627e-22
-1.43292e-23
-1.08161e-22
-7.47145e-24
-1.21024e-22
2.20296e-24
-9.26389e-23
3.1741e-23
-1.06887e-22
-7.01603e-25
-7.3912e-23
-1.20697e-23
-6.56874e-23
-9.58017e-24
-6.57914e-23
-5.11276e-24
-2.6959e-23
-3.70398e-23
-9.18146e-24
-5.86217e-23
-1.74e-24
-7.72311e-23
1.24816e-23
-5.45029e-23
-4.60122e-24
-4.38473e-23
3.95534e-23
-2.86242e-23
-5.75574e-23
1.22513e-23
-5.00215e-23
-3.36822e-23
1.95949e-23
-6.7563e-23
-7.9868e-23
-6.31319e-23
-6.40291e-23
-5.95109e-23
-5.47399e-23
-7.91021e-23
-3.11864e-23
-9.7208e-23
-6.2014e-24
-6.01382e-23
-7.89625e-24
-7.07291e-23
-5.65486e-23
-6.87927e-23
-5.58064e-23
-6.77046e-23
-3.11061e-23
-2.12753e-23
-3.8595e-24
-3.06486e-23
-8.47684e-24
-6.41962e-23
-1.08758e-23
-8.71783e-23
-2.34373e-23
-4.03003e-23
-3.95621e-23
-6.24672e-23
-8.64662e-23
-1.38174e-22
-7.48258e-23
-1.09928e-22
-8.51927e-23
-9.81187e-23
-7.28057e-23
-1.13268e-22
-6.35436e-23
-5.98307e-23
-6.21282e-23
-1.02559e-22
-7.12173e-23
-9.37223e-23
-4.35074e-23
-1.21434e-22
-8.01864e-23
-1.40049e-22
-8.92526e-23
-9.5416e-23
-6.05686e-23
-9.12506e-23
-5.24642e-23
-9.77035e-23
-5.47841e-23
-1.21877e-22
-1.00777e-22
-1.29848e-22
-1.31777e-22
-1.0025e-22
-1.13752e-22
-1.33018e-22
-1.17272e-22
-1.23488e-22
-1.0395e-22
-1.40187e-22
-7.40466e-23
-1.18062e-22
-6.12635e-23
-1.47839e-22
-5.63721e-23
-1.01199e-22
1.67904e-23
-1.02369e-22
8.41559e-24
-1.21938e-22
-1.47473e-23
-1.06524e-22
-1.97962e-23
-5.65761e-23
1.78974e-24
-7.21996e-23
6.08011e-24
-7.03661e-23
-5.97543e-24
-3.15004e-23
6.28347e-25
-8.93754e-24
-8.81361e-24
1.15091e-23
-2.82184e-23
7.15478e-24
-4.45848e-23
1.02343e-23
-3.38717e-23
1.88783e-23
-2.9287e-23
-1.63589e-23
5.26263e-23
-6.69514e-23
-5.63373e-23
1.88162e-23
-4.99163e-23
-3.49514e-23
-5.79839e-23
-4.79225e-23
-4.71447e-23
-7.58331e-23
-6.77709e-23
-8.02353e-23
-9.66538e-23
-9.67388e-23
-8.48935e-23
-8.59029e-23
-6.47027e-23
-6.91568e-23
-6.19145e-23
-5.22881e-23
-4.4331e-23
-4.47226e-23
-2.71435e-23
-2.40883e-23
-2.8871e-23
-1.47564e-23
-7.16005e-23
-4.18594e-23
-9.69496e-23
-6.85287e-23
-7.83567e-23
-5.12609e-23
-4.90884e-23
-4.70032e-23
-1.51143e-22
-9.35643e-23
-1.06889e-22
-5.62483e-23
-9.39066e-23
-1.08643e-23
-1.07832e-22
-3.95499e-23
-6.78591e-23
-3.1726e-23
-7.61508e-23
-6.91099e-23
-1.20928e-22
-6.4827e-23
-1.29543e-22
-7.52451e-23
-1.21255e-22
-9.45161e-23
-9.0988e-23
-8.35295e-23
-9.16159e-23
-5.47652e-23
-1.27443e-22
-8.6662e-23
-1.44596e-22
-8.98202e-23
-1.21106e-22
-8.14349e-23
-1.01929e-22
-1.28498e-22
-1.16106e-22
-1.71357e-22
-9.77964e-23
-1.34072e-22
-1.25022e-22
-1.18894e-22
-1.17428e-22
-7.9228e-23
-8.76868e-23
-9.70699e-23
-1.09872e-22
-8.77515e-23
-1.06982e-22
-6.30585e-23
-1.21731e-22
-7.06528e-23
-9.50667e-23
-4.6066e-23
-3.77994e-23
-5.50848e-23
-7.66592e-23
-8.12873e-23
-8.09327e-23
5.53468e-24
-3.96562e-23
3.81971e-23
-2.17794e-23
-1.45853e-23
4.73174e-24
-3.9348e-23
1.50837e-23
-4.06912e-23
9.38465e-24
-1.42155e-23
1.83591e-23
-2.41762e-23
-2.6175e-23
4.03253e-23
-5.15849e-23
-1.88767e-23
4.91119e-23
-4.39135e-23
-2.12757e-23
-7.80659e-23
-2.005e-23
-4.19045e-23
6.05385e-24
-8.74277e-23
-3.45529e-23
-8.93177e-23
-8.70615e-23
-1.02079e-22
-6.71585e-23
-5.78654e-23
-4.79171e-23
-5.33363e-23
-4.90294e-23
-4.52032e-23
-4.89764e-23
-2.64916e-23
-3.9446e-23
-4.81864e-23
-6.39641e-23
-8.87641e-23
-7.46183e-23
-9.14724e-23
-7.04215e-23
-7.78525e-23
-5.87588e-23
-7.34449e-23
-4.32994e-23
-1.25304e-22
-3.70118e-23
-7.70907e-23
-3.47969e-23
-1.09177e-22
-5.07018e-23
-9.75084e-23
-4.30277e-23
-9.31922e-23
-3.10591e-23
-6.91186e-23
-2.30276e-23
-1.2587e-22
-7.70033e-23
-1.42719e-22
-5.90371e-23
-1.16447e-22
-4.48929e-23
-6.49412e-23
-6.3348e-23
-1.13049e-22
-7.55883e-23
-1.30745e-22
-7.63058e-23
-1.44227e-22
-8.11713e-23
-1.52045e-22
-6.98233e-23
-1.32903e-22
-7.90807e-23
-9.43397e-23
-8.48643e-23
-9.12835e-23
-1.25513e-22
-9.43549e-23
-1.26252e-22
-1.26e-22
-1.16631e-22
-7.00164e-23
-8.37938e-23
-9.58263e-23
-6.5473e-23
-1.09228e-22
-5.85906e-23
-9.68751e-23
-8.07822e-23
-8.54793e-23
-5.4176e-23
-5.12426e-23
-2.52141e-23
-1.90698e-23
-4.62031e-23
-6.28567e-23
-1.67169e-23
-5.78615e-23
-3.11379e-23
-2.86522e-23
-3.13218e-23
1.74711e-24
6.04244e-24
2.16078e-23
8.7679e-24
7.0745e-24
4.86782e-24
2.88278e-23
5.75347e-25
-1.72916e-23
1.58906e-23
-4.72871e-23
-1.59243e-23
4.91199e-23
-5.00833e-23
-2.25989e-23
-6.98263e-23
-5.14067e-23
-6.73047e-23
-3.95541e-23
-1.08543e-22
-6.15401e-23
-7.69824e-23
-4.80823e-23
-8.18346e-23
-5.56698e-23
-5.34599e-23
-5.95506e-24
-5.92222e-23
2.33222e-23
-4.2224e-23
6.45281e-24
-4.13564e-23
-3.26518e-23
-5.05232e-23
-5.62209e-23
-8.41943e-23
-1.16186e-22
-8.477e-23
-7.3978e-23
-6.16169e-23
-1.4909e-23
-7.70926e-23
-2.83266e-23
-1.1287e-22
-7.38346e-23
-8.60269e-23
-5.70323e-23
-1.00274e-22
-3.7483e-23
-9.60344e-23
-4.52317e-23
-8.22862e-23
-4.60068e-23
-1.03389e-22
-7.4999e-23
-1.07418e-22
-7.98419e-23
-1.36139e-22
-9.64053e-23
-1.2902e-22
-5.72491e-23
-6.83539e-23
-5.07723e-23
-1.09098e-22
-9.60547e-23
-1.35483e-22
-1.13579e-22
-1.36678e-22
-1.41553e-22
-1.60784e-22
-1.08018e-22
-1.35833e-22
-1.01734e-22
-1.1797e-22
-9.98773e-23
-9.04876e-23
-8.41138e-23
-9.25584e-23
-1.27595e-22
-1.04111e-22
-1.0955e-22
-5.90118e-23
-1.23167e-22
-9.26917e-23
-1.00125e-22
-1.26698e-22
-9.65807e-23
-8.09768e-23
-5.762e-23
-6.76656e-23
-5.98678e-23
-5.54832e-23
-2.956e-23
8.28301e-24
-4.00036e-23
-7.52849e-23
-5.53634e-23
-5.54922e-23
2.10619e-23
-3.2102e-25
4.22326e-23
4.21065e-24
1.15047e-23
1.27818e-23
8.25719e-24
1.63805e-23
1.12542e-23
2.18025e-23
-7.76027e-24
-4.06991e-23
8.36507e-24
-5.35322e-23
-3.16544e-23
2.96609e-23
-5.39725e-23
-2.97432e-23
-6.86021e-23
-4.79711e-24
-8.53815e-23
-3.37609e-23
-9.67177e-23
-5.64924e-23
-8.86152e-23
-5.06891e-23
-5.32219e-23
-2.55787e-23
-3.80591e-23
-1.49881e-23
-5.53073e-23
-3.3247e-23
-5.82318e-23
1.30001e-23
-5.41545e-23
3.20468e-23
-7.43067e-23
-3.09302e-23
-6.30915e-23
-6.1301e-23
-4.7e-23
-2.73654e-23
-5.84783e-23
-2.53964e-24
-8.83364e-23
-2.16895e-25
-1.0572e-22
9.25998e-24
-7.72465e-23
-1.6232e-23
-1.0255e-22
-1.08515e-23
-9.50599e-23
-5.31571e-23
-9.43906e-23
-4.24097e-23
-1.03981e-22
-6.36718e-23
-1.15676e-22
-6.46433e-23
-1.11351e-22
-1.02789e-22
-1.2208e-22
-1.14219e-22
-9.27003e-23
-6.88488e-23
-1.09268e-22
-8.12882e-23
-1.52137e-22
-1.33065e-22
-1.17022e-22
-1.05501e-22
-1.55472e-22
-1.27549e-22
-1.34762e-22
-1.22215e-22
-1.07591e-22
-1.35628e-22
-1.14952e-22
-1.45864e-22
-8.24589e-23
-1.66431e-22
-1.11095e-22
-1.47175e-22
-3.85107e-23
-1.24021e-22
-8.47343e-23
-1.73527e-22
-1.04884e-22
-1.50028e-22
-7.34128e-23
-9.08959e-23
-4.81805e-23
-2.0427e-23
-6.38925e-23
-1.04638e-23
-1.38239e-23
-2.40476e-23
-2.67762e-23
-3.82734e-23
-4.50269e-23
-2.71561e-23
-4.09208e-24
1.22594e-23
1.02484e-23
2.30058e-24
2.20143e-23
-5.53025e-25
5.05823e-24
-1.59494e-23
1.00753e-23
-5.33939e-23
-2.18835e-23
3.0436e-23
-5.38687e-23
-2.02231e-23
3.86246e-23
-5.10162e-23
-3.15674e-23
-8.00933e-23
-6.7079e-23
-8.88469e-23
-3.10757e-23
-9.02817e-23
-1.85252e-23
-7.24939e-23
2.37311e-23
-4.9199e-23
4.001e-23
-5.66342e-23
-1.7964e-24
-4.16182e-23
1.23933e-23
-5.01321e-23
1.5215e-23
-7.3028e-23
-1.15815e-23
-8.43107e-23
-1.31275e-23
-4.01829e-23
1.35827e-23
-3.06669e-23
2.09404e-23
-5.42026e-23
1.35609e-23
-7.93448e-23
-4.29615e-23
-1.25229e-22
-6.31869e-23
-6.71373e-23
-5.23554e-24
-1.19029e-22
-2.96321e-23
-8.74998e-23
-1.3574e-23
-1.03248e-22
-2.29076e-23
-9.17656e-23
2.3664e-25
-1.35634e-22
-1.66613e-23
-1.15668e-22
-4.67834e-23
-9.47877e-23
-5.80805e-23
-9.5436e-23
-6.334e-23
-1.39641e-22
-9.4901e-23
-1.34895e-22
-1.37865e-22
-1.29069e-22
-1.07225e-22
-1.50476e-22
-1.04819e-22
-1.37277e-22
-1.36901e-22
-1.08375e-22
-9.98016e-23
-1.16588e-22
-1.3739e-22
-7.46447e-23
-1.36537e-22
-9.59129e-23
-1.2623e-22
-5.68631e-23
-9.16948e-23
-7.34171e-23
-1.48766e-22
-6.85227e-23
-1.50469e-22
-3.83841e-23
-1.22787e-22
-4.03146e-23
-9.21584e-23
-5.96734e-23
-6.05898e-23
-1.5052e-23
-6.10977e-24
-7.84181e-24
-4.04021e-23
-1.29133e-23
-2.98846e-23
-7.42446e-24
3.37987e-24
1.23956e-23
1.7507e-23
2.12323e-23
-1.85346e-23
-3.40355e-24
-3.64677e-23
3.0475e-23
-8.01543e-26
-1.93217e-23
2.35592e-23
-5.77154e-23
-7.79013e-24
4.36143e-23
-6.23748e-23
-3.39088e-23
-5.28445e-23
-3.84064e-23
-8.89686e-23
-3.5017e-23
-5.99339e-23
-5.8821e-24
-5.80942e-23
1.84464e-23
-6.59958e-23
4.1462e-23
-4.51712e-23
9.67921e-24
-3.13839e-23
3.69194e-23
-4.86029e-23
2.86317e-23
-6.58475e-23
4.69393e-23
-7.35569e-23
5.71557e-23
-3.66245e-23
3.80629e-23
-3.13517e-23
1.34494e-23
-7.57405e-23
-2.55323e-24
-8.63633e-23
-3.68846e-23
-8.98185e-23
-5.51717e-23
-7.62471e-23
-1.38515e-23
-1.07373e-22
-2.94932e-24
-9.11564e-23
-2.77095e-23
-8.94874e-23
-2.20512e-23
-9.75635e-23
-5.43306e-23
-1.48908e-22
-8.70496e-23
-1.20376e-22
-6.24633e-23
-9.44048e-23
-7.24977e-23
-1.01211e-22
-1.21204e-22
-1.59739e-22
-1.51858e-22
-1.17573e-22
-1.13687e-22
-1.28393e-22
-1.61922e-22
-1.67493e-22
-1.85266e-22
-1.13586e-22
-1.29825e-22
-1.23468e-22
-1.54968e-22
-1.1862e-22
-1.48783e-22
-7.19213e-23
-1.17229e-22
-7.80304e-23
-1.24518e-22
-8.19052e-23
-1.53033e-22
-7.14995e-23
-1.51177e-22
-4.94602e-23
-1.11311e-22
-1.83259e-23
-9.5821e-23
-3.17102e-23
-8.6984e-23
-3.59676e-23
-6.57139e-23
-2.65314e-23
-2.34966e-23
-1.1756e-23
3.45039e-23
-3.015e-25
-3.02743e-24
1.65156e-24
-6.73488e-24
-2.99609e-24
-1.98774e-23
6.01131e-24
1.13638e-23
8.64053e-24
-4.97859e-24
2.95948e-23
-2.84237e-23
-1.20401e-23
1.82178e-23
-6.2354e-23
4.58381e-24
3.95202e-23
-7.33829e-23
-2.89111e-23
-5.38219e-23
-2.47351e-23
-6.93081e-23
-5.28105e-23
-6.33194e-23
-1.2986e-23
-5.06746e-23
3.16537e-24
-9.44591e-23
-5.56557e-24
-2.93864e-23
3.12381e-23
-3.98606e-23
6.49309e-24
-3.84366e-23
2.65626e-23
-5.96149e-23
2.9432e-23
-7.55952e-23
2.83865e-23
-4.02331e-23
4.10429e-23
-3.56943e-23
3.72795e-23
-8.48773e-23
-1.07221e-23
-9.57212e-23
-2.49948e-23
-7.0458e-23
-1.33342e-23
-6.98176e-23
-7.1205e-24
-1.14522e-22
-2.50889e-23
-8.59982e-23
-5.7937e-23
-9.584e-23
-7.85991e-23
-1.07974e-22
-4.8771e-23
-1.34129e-22
-6.41393e-23
-1.22905e-22
-7.18481e-24
-1.16242e-22
-1.02765e-23
-1.1215e-22
-5.7444e-23
-1.38804e-22
-1.19958e-22
-1.34876e-22
-1.16171e-22
-1.4041e-22
-1.00208e-22
-1.42345e-22
-1.28427e-22
-1.25896e-22
-1.40991e-22
-1.19661e-22
-1.6673e-22
-9.57625e-23
-1.82249e-22
-7.25121e-23
-1.43506e-22
-8.84916e-23
-1.73706e-22
-8.08943e-23
-1.62155e-22
-5.61021e-23
-1.34511e-22
-3.94396e-23
-1.05491e-22
-1.73759e-23
-8.31764e-23
-1.46672e-23
-1.02392e-22
-1.88654e-23
-6.42663e-23
2.02653e-24
-9.35275e-24
-2.36547e-23
-3.32494e-23
6.252e-24
2.25722e-24
2.78179e-24
-9.34704e-24
1.39262e-23
3.22158e-24
-1.10673e-23
2.49637e-23
7.07888e-24
1.11789e-23
3.08914e-23
2.04107e-23
5.62999e-24
1.22572e-23
-7.66182e-23
-5.40715e-23
-7.26707e-23
-1.3972e-23
-4.54932e-23
1.41407e-23
-5.3362e-23
-3.90477e-24
-6.00372e-23
8.26358e-24
-6.48259e-23
-5.31893e-24
-5.73526e-23
1.7325e-23
-2.52035e-23
1.37656e-23
-3.47137e-23
3.72632e-23
-6.38413e-23
1.97178e-23
-6.68085e-23
3.53323e-23
-4.50824e-23
5.74303e-23
-5.03235e-23
6.57725e-23
-8.68134e-23
-2.12849e-23
-9.19531e-23
-2.51905e-23
-6.99601e-23
-2.7737e-23
-7.56088e-23
-3.87354e-23
-1.23074e-22
-4.35474e-23
-9.36776e-23
-2.14278e-23
-8.0063e-23
-3.40316e-23
-1.13205e-22
-7.74505e-23
-1.05185e-22
-7.38398e-23
-1.20748e-22
-5.93612e-23
-1.29763e-22
-5.975e-23
-1.34747e-22
-5.0669e-23
-1.38149e-22
-1.11618e-22
-1.28809e-22
-1.20363e-22
-1.54618e-22
-1.64734e-22
-1.41367e-22
-1.41254e-22
-1.3148e-22
-1.49345e-22
-1.21413e-22
-1.81725e-22
-6.91465e-23
-1.39304e-22
-8.42954e-23
-1.69898e-22
-8.38233e-23
-1.79912e-22
-6.24966e-23
-1.44378e-22
-4.61007e-23
-1.55519e-22
-2.39798e-23
-1.33627e-22
-2.00972e-23
-1.32021e-22
5.22646e-24
-8.97617e-23
9.79349e-24
-6.371e-23
1.64638e-25
-4.12165e-23
-1.93434e-23
-6.54384e-24
-5.34913e-25
-2.27843e-23
6.81816e-24
-9.84749e-24
1.73626e-23
-1.47232e-23
-6.74591e-24
-5.18029e-23
-1.00716e-24
-2.63884e-25
2.60685e-23
2.02146e-23
-3.7198e-23
-9.476e-24
-5.83673e-23
-4.82069e-23
3.58607e-24
-5.46505e-23
5.4925e-24
-6.69402e-23
2.51942e-23
-5.63516e-23
1.98144e-23
-6.02468e-23
1.74262e-23
-1.07379e-23
4.69592e-23
-4.74761e-23
2.7174e-23
-5.09377e-23
2.99361e-23
-6.42811e-23
1.25827e-23
-4.06452e-23
3.15192e-23
-7.43512e-23
-2.22159e-24
-8.44189e-23
-1.49488e-23
-9.32799e-23
-2.55352e-23
-7.10671e-23
-1.05982e-23
-7.05247e-23
-3.60086e-23
-1.10918e-22
-4.44678e-23
-9.46771e-23
-3.11629e-23
-9.35562e-23
-3.28073e-23
-1.001e-22
-7.51902e-23
-9.65793e-23
-5.37683e-23
-1.21803e-22
-4.37367e-23
-1.20075e-22
-6.50524e-23
-1.57809e-22
-9.16336e-23
-1.3598e-22
-1.30594e-22
-1.41313e-22
-1.55554e-22
-1.42509e-22
-1.5087e-22
-1.48407e-22
-1.76022e-22
-1.43727e-22
-1.468e-22
-1.09708e-22
-1.70574e-22
-8.29634e-23
-1.73965e-22
-8.35324e-23
-2.10445e-22
-6.90028e-23
-1.93049e-22
-6.46575e-23
-1.59474e-22
-3.0301e-23
-1.54084e-22
-2.22969e-23
-1.42861e-22
6.83525e-24
-1.21276e-22
1.69613e-23
-1.02588e-22
2.95843e-23
-1.14983e-22
9.29461e-24
-1.06617e-22
-7.61731e-24
-7.93123e-23
1.01216e-23
-3.87887e-23
1.65548e-23
-1.8771e-23
9.54697e-24
-4.02744e-23
8.61396e-24
-4.64e-23
1.70076e-23
-1.76789e-23
8.08678e-24
-2.17798e-23
6.05662e-24
1.37146e-24
-5.49868e-23
-4.21812e-23
-6.74761e-23
4.45332e-23
-4.6994e-23
8.78873e-23
-5.03162e-23
1.06835e-22
-1.65162e-23
1.02055e-22
-4.07906e-23
4.69203e-23
-5.16943e-23
4.41608e-23
-5.94454e-23
3.19194e-23
-4.71882e-23
2.56119e-23
-8.38976e-23
3.59573e-23
-9.42779e-23
-6.26824e-24
-8.179e-23
-1.64716e-23
-8.03503e-23
-1.49961e-23
-6.98312e-23
-5.2944e-23
-1.06023e-22
-3.71919e-23
-8.86906e-23
-1.22174e-23
-1.05481e-22
-1.75504e-23
-8.94926e-23
-1.65771e-23
-9.38165e-23
-5.95287e-23
-1.26243e-22
-8.1604e-23
-1.25669e-22
-5.84008e-23
-1.66415e-22
-1.23108e-22
-1.44973e-22
-1.40358e-22
-1.40997e-22
-1.4913e-22
-1.47742e-22
-2.22219e-22
-1.316e-22
-1.84643e-22
-1.4915e-22
-1.65156e-22
-1.02986e-22
-1.73598e-22
-9.1969e-23
-1.81264e-22
-7.38545e-23
-1.97484e-22
-5.79404e-23
-2.14595e-22
-5.29877e-23
-1.71824e-22
-2.03163e-23
-1.5373e-22
-1.50385e-23
-1.50731e-22
2.12388e-23
-1.57986e-22
1.90357e-23
-1.38963e-22
3.18377e-23
-1.27498e-22
2.63894e-23
-1.33372e-22
1.279e-23
-1.05025e-22
2.00174e-23
-7.92151e-23
1.51638e-23
-5.2018e-23
1.63687e-23
-3.94718e-23
2.30642e-23
-5.16313e-23
2.21109e-23
-2.11301e-23
1.87978e-23
-1.77532e-23
-4.98659e-23
-1.48087e-23
-4.7961e-23
-4.46161e-23
8.40522e-23
-4.53678e-23
1.03354e-22
-3.20638e-23
9.15835e-23
-3.64165e-23
5.15131e-23
-5.48298e-23
2.01079e-23
-6.24437e-23
4.4063e-23
-4.41197e-23
4.98323e-23
-8.57935e-23
-7.11252e-24
-9.65047e-23
6.70728e-24
-7.73888e-23
4.62328e-24
-8.95525e-23
-8.46229e-25
-6.05615e-23
-4.32747e-23
-9.50325e-23
-5.2053e-23
-9.11179e-23
-1.70414e-23
-9.39305e-23
-2.4051e-23
-1.03946e-22
-9.3025e-23
-9.52499e-23
-7.69619e-23
-1.1593e-22
-6.56622e-23
-1.50193e-22
-8.21129e-23
-1.68216e-22
-8.67811e-23
-1.46514e-22
-1.47428e-22
-1.62452e-22
-1.906e-22
-1.27753e-22
-1.71069e-22
-1.29003e-22
-1.75901e-22
-1.45926e-22
-2.21992e-22
-1.08564e-22
-2.03295e-22
-9.46087e-23
-1.95095e-22
-7.76037e-23
-2.07571e-22
-4.29249e-23
-2.05686e-22
-4.23934e-23
-2.18637e-22
-1.81446e-23
-1.86407e-22
-1.10321e-23
-1.9706e-22
3.32897e-23
-1.63577e-22
2.85523e-23
-1.28427e-22
2.95225e-23
-1.27301e-22
3.62937e-23
-1.03708e-22
2.73314e-23
-9.51898e-23
3.64594e-23
-8.0087e-23
1.7602e-23
-6.66669e-23
1.41934e-23
-3.65697e-23
2.83579e-23
-3.53552e-23
2.71392e-23
-2.64519e-23
6.78377e-24
-4.0317e-23
-2.43839e-23
1.4362e-23
-3.31531e-23
-4.83874e-23
7.93176e-23
-3.72675e-23
1.19027e-22
-4.66715e-23
5.63075e-23
-5.01007e-23
6.10406e-23
-5.50131e-23
5.04392e-23
-6.19112e-23
5.53362e-23
-7.50883e-23
1.65562e-23
-9.80818e-23
2.92723e-23
-8.43478e-23
3.1755e-23
-1.00546e-22
-3.12757e-23
-6.11541e-23
-4.38068e-23
-8.36445e-23
-3.08898e-23
-9.52676e-23
-1.50026e-23
-1.07765e-22
-1.95341e-23
-9.93794e-23
-7.58421e-23
-8.85204e-23
-8.3892e-23
-1.1795e-22
-1.02742e-22
-1.43285e-22
-4.41042e-23
-1.83247e-22
-3.38431e-23
-1.59907e-22
-7.24963e-23
-1.54853e-22
-9.63818e-23
-1.32704e-22
-1.03983e-22
-1.42401e-22
-1.87755e-22
-1.32439e-22
-2.18577e-22
-1.03242e-22
-2.26339e-22
-9.6037e-23
-2.22848e-22
-6.3889e-23
-2.43029e-22
-4.59473e-23
-2.22779e-22
-2.5098e-23
-2.34453e-22
-2.06068e-23