/*--------------------------------*- C++ -*----------------------------------*\
  =========                 |
  \\      /  F ield         | OpenFOAM: The Open Source CFD Toolbox
   \\    /   O peration     | Website:  https://openfoam.org
    \\  /    A nd           | Version:  7
     \\/     M anipulation  |
\*---------------------------------------------------------------------------*/
FoamFile
{
    version     2.0;
    format      ascii;
    class       volScalarField;
    location    "272000";
    object      strainRate;
}
// * * * * * * * * * * * * * * * * * * * * * * * * * * * * * * * * * * * * * //

dimensions      [0 0 -1 0 0 0 0];

internalField   nonuniform List<scalar> 
4838
(
0.00197571
0.00186958
0.00179412
0.00169728
0.0015906
0.00147953
0.00136665
0.0012534
0.00114081
0.00102988
0.000921821
0.000818187
0.000720787
0.000631458
0.00055171
0.000482463
0.000423897
0.000375495
0.000336507
0.000305845
0.000282261
0.000264564
0.000252038
0.000244084
0.000240229
0.00024023
0.000244084
0.000252038
0.000264564
0.000282261
0.000305845
0.000336507
0.000375495
0.000423897
0.000482464
0.000551711
0.000631458
0.000720788
0.000818188
0.000921822
0.00102988
0.00114081
0.0012534
0.00136665
0.00147953
0.0015906
0.00169728
0.00179412
0.00186958
0.00197571
0.00257556
0.00225026
0.00215513
0.00205022
0.00193625
0.00181711
0.00169602
0.00157519
0.00145606
0.00133963
0.00122672
0.00111814
0.00101481
0.000917781
0.00082816
0.000746943
0.000674867
0.000612303
0.000559254
0.000515414
0.000480213
0.000452963
0.000433092
0.000420146
0.00041377
0.00041377
0.000420146
0.000433093
0.000452963
0.000480214
0.000515414
0.000559255
0.000612304
0.000674868
0.000746944
0.000828161
0.000917782
0.00101481
0.00111814
0.00122672
0.00133963
0.00145606
0.00157519
0.00169602
0.00181711
0.00193626
0.00205022
0.00215513
0.00225027
0.00257557
0.00295973
0.00255919
0.00243206
0.00231668
0.0022032
0.00208859
0.00197293
0.00185731
0.00174289
0.00163069
0.00152153
0.00141608
0.00131499
0.00121893
0.00112865
0.00104492
0.000968501
0.000900062
0.000840077
0.000788834
0.000746424
0.00071278
0.00068775
0.000671175
0.000662926
0.000662926
0.000671175
0.00068775
0.00071278
0.000746425
0.000788835
0.000840078
0.000900062
0.000968502
0.00104492
0.00112865
0.00121893
0.00131499
0.00141608
0.00152153
0.0016307
0.00174289
0.00185731
0.00197294
0.0020886
0.00220321
0.00231668
0.00243206
0.0025592
0.00295973
0.00325968
0.00286401
0.00272053
0.00259126
0.00247091
0.00235512
0.00224165
0.00212988
0.00202
0.00191255
0.00180813
0.00170731
0.00161062
0.00151857
0.0014317
0.00135054
0.0012757
0.00120776
0.00114728
0.00109473
0.0010505
0.00101488
0.000988046
0.000970109
0.000961128
0.000961128
0.00097011
0.000988047
0.00101488
0.0010505
0.00109473
0.00114728
0.00120776
0.0012757
0.00135054
0.0014317
0.00151857
0.00161062
0.00170731
0.00180813
0.00191255
0.00202001
0.00212988
0.00224165
0.00235512
0.00247092
0.00259126
0.00272053
0.00286401
0.00325969
0.00353628
0.00315535
0.00301024
0.00287424
0.00274729
0.00262743
0.00251267
0.00240173
0.00229408
0.00218968
0.00208879
0.00199178
0.00189905
0.00181103
0.00172813
0.00165077
0.00157941
0.0015145
0.0014565
0.00140587
0.00136302
0.00132831
0.00130203
0.00128439
0.00127553
0.00127553
0.00128439
0.00130203
0.00132831
0.00136302
0.00140587
0.0014565
0.0015145
0.00157941
0.00165077
0.00172813
0.00181103
0.00189906
0.00199178
0.00208879
0.00218968
0.00229408
0.00240173
0.00251267
0.00262744
0.00274729
0.00287424
0.00301025
0.00315535
0.00353629
0.00380342
0.00343558
0.00329336
0.0031566
0.00302673
0.00290376
0.00278686
0.00267512
0.0025679
0.00246487
0.00236602
0.00227151
0.00218159
0.0020966
0.00201686
0.00194273
0.00187457
0.00181274
0.00175761
0.00170954
0.00166888
0.00163594
0.00161099
0.00159423
0.00158582
0.00158582
0.00159423
0.00161099
0.00163594
0.00166888
0.00170954
0.00175761
0.00181274
0.00187457
0.00194273
0.00201686
0.0020966
0.0021816
0.00227151
0.00236602
0.00246487
0.0025679
0.00267512
0.00278686
0.00290376
0.00302674
0.0031566
0.00329336
0.00343559
0.00380342
0.00406445
0.00370819
0.00356912
0.00343404
0.00330414
0.00318006
0.00306186
0.00294921
0.00284173
0.00273911
0.00264126
0.00254819
0.00246006
0.0023771
0.00229956
0.00222774
0.00216194
0.00210245
0.00204958
0.00200361
0.00196481
0.00193344
0.00190971
0.0018938
0.00188581
0.00188581
0.0018938
0.00190972
0.00193344
0.00196481
0.00200361
0.00204958
0.00210245
0.00216194
0.00222775
0.00229956
0.0023771
0.00246006
0.00254819
0.00264126
0.00273912
0.00284173
0.00294922
0.00306187
0.00318007
0.00330414
0.00343405
0.00356913
0.00370819
0.00406445
0.00432083
0.00397527
0.00383883
0.00370593
0.0035773
0.00345361
0.00333524
0.00322227
0.00311462
0.00301215
0.00291481
0.00282258
0.00273557
0.00265393
0.00257787
0.00250763
0.00244346
0.0023856
0.00233432
0.00228983
0.00225238
0.00222215
0.00219932
0.00218402
0.00217635
0.00217635
0.00218402
0.00219932
0.00222215
0.00225238
0.00228983
0.00233432
0.00238561
0.00244346
0.00250764
0.00257788
0.00265393
0.00273557
0.00282258
0.00291481
0.00301216
0.00311462
0.00322227
0.00333525
0.00345362
0.0035773
0.00370593
0.00383884
0.00397527
0.00432084
0.00457351
0.00423804
0.00410376
0.00397288
0.0038459
0.00372333
0.00360558
0.00349293
0.00338548
0.00328328
0.00318635
0.00309472
0.00300848
0.00292777
0.00285275
0.00278363
0.0027206
0.0026639
0.00261372
0.00257028
0.00253376
0.00250433
0.00248213
0.00246726
0.00245981
0.00245981
0.00246726
0.00248213
0.00250433
0.00253376
0.00257028
0.00261372
0.0026639
0.0027206
0.00278363
0.00285276
0.00292777
0.00300848
0.00309472
0.00318635
0.00328328
0.00338548
0.00349293
0.00360558
0.00372333
0.00384591
0.00397289
0.00410376
0.00423805
0.00457352
0.00482317
0.00449726
0.00436479
0.0042357
0.00411035
0.00398912
0.0038724
0.00376048
0.0036536
0.00355189
0.00345545
0.00336439
0.0032788
0.00319883
0.00312461
0.00305633
0.00299418
0.00293833
0.00288898
0.00284631
0.00281047
0.00278162
0.00275987
0.00274531
0.00273802
0.00273802
0.00274531
0.00275987
0.00278162
0.00281047
0.00284631
0.00288898
0.00293833
0.00299418
0.00305633
0.00312461
0.00319883
0.00327881
0.00336439
0.00345546
0.00355189
0.0036536
0.00376049
0.0038724
0.00398912
0.00411035
0.00423571
0.0043648
0.00449727
0.00482317
0.00507031
0.00475347
0.00462258
0.00449505
0.00437118
0.00425131
0.00413574
0.00402478
0.00391868
0.00381765
0.00372183
0.00363138
0.00354643
0.00346711
0.00339359
0.00332602
0.00326457
0.00320942
0.00316073
0.00311866
0.00308336
0.00305496
0.00303356
0.00301924
0.00301207
0.00301207
0.00301924
0.00303356
0.00305496
0.00308336
0.00311866
0.00316073
0.00320942
0.00326457
0.00332602
0.00339359
0.00346712
0.00354643
0.00363139
0.00372184
0.00381765
0.00391869
0.00402479
0.00413574
0.00425131
0.00437119
0.00449505
0.00462258
0.00475348
0.00507031
0.00531533
0.00500709
0.00487758
0.00475142
0.0046289
0.0045103
0.00439589
0.00428595
0.00418075
0.0040805
0.00398539
0.00389561
0.00381131
0.00373263
0.00365975
0.00359282
0.00353199
0.00347744
0.00342931
0.00338776
0.0033529
0.00332488
0.00330376
0.00328965
0.00328258
0.00328258
0.00328965
0.00330377
0.00332488
0.00335291
0.00338776
0.00342931
0.00347744
0.003532
0.00359282
0.00365975
0.00373264
0.00381131
0.00389561
0.0039854
0.0040805
0.00418075
0.00428595
0.00439589
0.0045103
0.00462891
0.00475143
0.00487758
0.00500709
0.00531534
0.00555858
0.00525846
0.00513017
0.00500524
0.00488393
0.00476648
0.00465317
0.00454424
0.00443995
0.00434053
0.00424619
0.00415711
0.00407347
0.00399544
0.00392317
0.00385683
0.00379658
0.00374257
0.00369495
0.00365384
0.00361938
0.00359168
0.00357082
0.00355687
0.00354989
0.00354989
0.00355687
0.00357082
0.00359168
0.00361938
0.00365384
0.00369495
0.00374257
0.00379659
0.00385684
0.00392317
0.00399544
0.00407347
0.00415711
0.00424619
0.00434054
0.00443996
0.00454425
0.00465317
0.00476649
0.00488393
0.00500525
0.00513018
0.00525846
0.00555858
0.00580033
0.00550788
0.00538069
0.00525684
0.00513661
0.00502022
0.00490791
0.00479994
0.00469655
0.00459795
0.00450437
0.004416
0.00433303
0.00425563
0.00418396
0.0041182
0.00405848
0.00400497
0.00395781
0.00391711
0.00388301
0.0038556
0.00383497
0.00382117
0.00381426
0.00381426
0.00382117
0.00383497
0.0038556
0.00388301
0.00391711
0.00395781
0.00400498
0.00405849
0.0041182
0.00418397
0.00425563
0.00433303
0.00441601
0.00450438
0.00459796
0.00469655
0.00479995
0.00490792
0.00502022
0.00513661
0.00525685
0.00538069
0.00550789
0.00580034
0.00604085
0.00575563
0.0056294
0.00550652
0.00538725
0.0052718
0.00516042
0.00505334
0.00495079
0.00485298
0.00476014
0.00467247
0.00459015
0.00451336
0.00444228
0.00437705
0.00431785
0.00426481
0.00421807
0.00417776
0.00414398
0.00411684
0.00409641
0.00408275
0.00407592
0.00407592
0.00408275
0.00409641
0.00411684
0.00414398
0.00417776
0.00421807
0.00426481
0.00431785
0.00437706
0.00444228
0.00451337
0.00459015
0.00467247
0.00476015
0.00485299
0.00495079
0.00505335
0.00516043
0.00527181
0.00538725
0.00550653
0.0056294
0.00575563
0.00604086
0.00628037
0.00600195
0.00587657
0.00575454
0.00563612
0.00552153
0.00541098
0.0053047
0.00520293
0.00510587
0.00501373
0.00492672
0.00484502
0.00476882
0.00469829
0.00463359
0.00457486
0.00452226
0.00447592
0.00443596
0.00440248
0.00437559
0.00435535
0.00434182
0.00433505
0.00433505
0.00434182
0.00435535
0.00437559
0.00440249
0.00443596
0.00447592
0.00452227
0.00457486
0.00463359
0.00469829
0.00476883
0.00484503
0.00492672
0.00501373
0.00510587
0.00520293
0.00530471
0.00541098
0.00552153
0.00563613
0.00575455
0.00587657
0.00600196
0.00628037
0.00651909
0.00624708
0.00612243
0.00600116
0.00588349
0.00576964
0.00565984
0.00555429
0.00545322
0.00535684
0.00526536
0.00517897
0.00509786
0.00502221
0.0049522
0.00488798
0.00482971
0.00477752
0.00473155
0.00469191
0.00465872
0.00463205
0.00461198
0.00459857
0.00459186
0.00459186
0.00459857
0.00461198
0.00463205
0.00465872
0.00469192
0.00473155
0.00477752
0.00482971
0.00488798
0.0049522
0.00502221
0.00509786
0.00517897
0.00526536
0.00535685
0.00545323
0.0055543
0.00565984
0.00576965
0.00588349
0.00600116
0.00612244
0.00624708
0.0065191
0.00675721
0.00649122
0.00636721
0.00624659
0.00612957
0.00601639
0.00590724
0.00580234
0.00570191
0.00560614
0.00551525
0.00542943
0.00534887
0.00527373
0.0052042
0.00514044
0.00508258
0.00503078
0.00498515
0.00494582
0.00491288
0.00488642
0.00486651
0.00485321
0.00484655
0.00484655
0.00485321
0.00486651
0.00488642
0.00491288
0.00494582
0.00498515
0.00503078
0.00508259
0.00514044
0.00520421
0.00527374
0.00534887
0.00542944
0.00551526
0.00560615
0.00570191
0.00580235
0.00590724
0.00601639
0.00612958
0.00624659
0.00636722
0.00649123
0.00675722
0.00699493
0.00673459
0.00661112
0.00649105
0.0063746
0.00626198
0.00615341
0.00604908
0.00594921
0.00585399
0.00576364
0.00567833
0.00559826
0.0055236
0.00545451
0.00539116
0.00533369
0.00528224
0.00523693
0.00519787
0.00516517
0.0051389
0.00511914
0.00510593
0.00509932
0.00509932
0.00510593
0.00511914
0.0051389
0.00516517
0.00519787
0.00523693
0.00528224
0.00533369
0.00539117
0.00545452
0.0055236
0.00559827
0.00567834
0.00576365
0.005854
0.00594921
0.00604908
0.00615341
0.00626199
0.00637461
0.00649106
0.00661113
0.0067346
0.00699494
0.00685436
0.00673475
0.00661877
0.00650664
0.00639856
0.00629472
0.00619534
0.00610061
0.00601073
0.00592589
0.00584626
0.00577202
0.00570333
0.00564036
0.00558324
0.0055321
0.00548708
0.00544827
0.00541578
0.00538969
0.00537006
0.00535695
0.00535038
0.00535038
0.00535695
0.00537006
0.00538969
0.00541578
0.00544827
0.00548708
0.00553211
0.00558324
0.00564036
0.00570334
0.00577202
0.00584626
0.00592589
0.00601074
0.00610062
0.00619535
0.00629473
0.00639856
0.00650665
0.00661878
0.00673475
0.00685437
0.00697739
0.00723242
0.00697788
0.00686229
0.00675056
0.00664289
0.00653948
0.00644052
0.00634621
0.00625674
0.0061723
0.00609306
0.0060192
0.00595087
0.00588823
0.00583142
0.00578057
0.0057358
0.00569722
0.00566493
0.00563899
0.00561948
0.00560645
0.00559992
0.00559992
0.00560645
0.00561948
0.00563899
0.00566493
0.00569723
0.00573581
0.00578057
0.00583142
0.00588823
0.00595087
0.0060192
0.00609307
0.0061723
0.00625675
0.00634622
0.00644052
0.00653948
0.0066429
0.00675057
0.0068623
0.00697788
0.00709712
0.00721978
0.00746985
0.00699395
0.00688661
0.00678354
0.00668494
0.00659098
0.00650186
0.00641777
0.00633887
0.00626533
0.00619731
0.00613497
0.00607844
0.00602784
0.0059833
0.00594493
0.0059128
0.005887
0.0058676
0.00585464
0.00584815
0.00584815
0.00585464
0.0058676
0.00588701
0.0059128
0.00594493
0.00598331
0.00602785
0.00607844
0.00613498
0.00619732
0.00626534
0.00633887
0.00641777
0.00650187
0.00659099
0.00668494
0.00678355
0.00688662
0.00699395
0.00710536
0.00722063
0.00733957
0.00746197
0.00770737
0.0071299
0.00702711
0.00692878
0.00683512
0.00674629
0.00666249
0.00658387
0.00651062
0.00644287
0.00638078
0.00632448
0.00627411
0.00622977
0.00619157
0.00615959
0.00613392
0.00611461
0.00610171
0.00609526
0.00609526
0.00610171
0.00611461
0.00613392
0.0061596
0.00619157
0.00622977
0.00627411
0.00632449
0.00638078
0.00644287
0.00651062
0.00658388
0.00666249
0.0067463
0.00683512
0.00692879
0.00702712
0.00712991
0.00723698
0.00734813
0.00746317
0.0075819
0.0077041
0.00794515
0.00727035
0.00717225
0.00707881
0.00699022
0.00690665
0.00682827
0.00675524
0.00668772
0.00662584
0.00656975
0.00651957
0.0064754
0.00643735
0.0064055
0.00637993
0.00636071
0.00634786
0.00634143
0.00634143
0.00634786
0.00636071
0.00637994
0.0064055
0.00643735
0.0064754
0.00651957
0.00656976
0.00662585
0.00668772
0.00675525
0.00682828
0.00690666
0.00699023
0.00707882
0.00717226
0.00727036
0.00737295
0.00747983
0.0075908
0.00770569
0.00782428
0.00794637
0.00818334
0.00732224
0.00723382
0.00715043
0.00707224
0.00699939
0.00693205
0.00687035
0.00681443
0.0067644
0.00672037
0.00668244
0.00665071
0.00662523
0.00660607
0.00659327
0.00658687
0.00658687
0.00659327
0.00660607
0.00662523
0.00665071
0.00668245
0.00672037
0.0067644
0.00681443
0.00687036
0.00693206
0.0069994
0.00707224
0.00715044
0.00723383
0.00732224
0.00741552
0.00751347
0.00761591
0.00772266
0.00783354
0.00794833
0.00806687
0.00818892
0.00842209
0.00747728
0.00739402
0.00731596
0.00724325
0.00717605
0.00711448
0.00705869
0.00700878
0.00696487
0.00692704
0.0068954
0.00686999
0.00685089
0.00683813
0.00683174
0.00683174
0.00683813
0.00685089
0.00686999
0.0068954
0.00692705
0.00696487
0.00700879
0.00705869
0.00711449
0.00717605
0.00724326
0.00731596
0.00739402
0.00747728
0.00756558
0.00765874
0.0077566
0.00785897
0.00796566
0.0080765
0.00819128
0.00830983
0.00843191
0.00866154
0.00741988
0.00735841
0.00730271
0.0072529
0.00720907
0.00717133
0.00713975
0.0071144
0.00709534
0.00708261
0.00707624
0.00707624
0.00708261
0.00709534
0.0071144
0.00713975
0.00717133
0.00720908
0.0072529
0.00730272
0.00735842
0.00741988
0.00748699
0.0075596
0.00763758
0.00772076
0.00780899
0.00790211
0.00799993
0.00810228
0.00820898
0.00831985
0.00843469
0.00855331
0.00867551
0.00890183
0.00745315
0.00741546
0.00738393
0.00735862
0.0073396
0.00732689
0.00732053
0.00732053
0.00732689
0.0073396
0.00735863
0.00738393
0.00741547
0.00745316
0.00749692
0.00754668
0.00760231
0.00766372
0.00773077
0.00780334
0.00788128
0.00796443
0.00805265
0.00814577
0.00824362
0.00834602
0.00845279
0.00856375
0.00867871
0.00879748
0.00891985
0.00914311
0.00762812
0.00760284
0.00758383
0.00757114
0.00756478
0.00756479
0.00757114
0.00758383
0.00760284
0.00762813
0.00765963
0.00769729
0.00774102
0.00779074
0.00784635
0.00790773
0.00797477
0.00804733
0.00812527
0.00820845
0.00829671
0.00838989
0.00848782
0.00859033
0.00869723
0.00880835
0.00892349
0.00904248
0.00916509
0.00938551
0.00780918
0.00780918
0.00781553
0.00782822
0.00784722
0.00787249
0.00790398
0.00794163
0.00798536
0.00803508
0.00809069
0.00815208
0.00821914
0.00829174
0.00836974
0.00845299
0.00854134
0.00863463
0.00873269
0.00883536
0.00894246
0.00905379
0.00916919
0.00928846
0.00941138
0.00962916
0.00811719
0.00814869
0.00818635
0.00823009
0.00827984
0.00833549
0.00839693
0.00846405
0.00853673
0.00861482
0.00869819
0.00878668
0.00888013
0.00897839
0.00908128
0.00918862
0.00930024
0.00941595
0.00953556
0.00965885
0.0098742
0.00847539
0.00852519
0.0085809
0.00864243
0.00870965
0.00878244
0.00886068
0.00894421
0.00903289
0.00912656
0.00922506
0.00932822
0.00943587
0.00954783
0.00966391
0.00978392
0.00990766
0.0101208
0.00882709
0.00888873
0.00895609
0.00902904
0.00910746
0.0091912
0.00928011
0.00937405
0.00947285
0.00957634
0.00968435
0.0097967
0.00991321
0.0100337
0.0101579
0.010369
0.00907421
0.009136
0.00920353
0.00927668
0.00935531
0.00943931
0.0095285
0.00962276
0.0097219
0.00982578
0.0099342
0.010047
0.010164
0.010285
0.0104098
0.010619
0.0093224
0.00938437
0.0094521
0.00952549
0.00960439
0.00968868
0.0097782
0.00987282
0.00997236
0.0100767
0.0101856
0.0102989
0.0104164
0.010538
0.0106634
0.0108709
0.00977563
0.00985484
0.00993946
0.0100294
0.0101244
0.0102244
0.0103292
0.0104386
0.0105525
0.0106706
0.0107929
0.010919
0.0111249
0.0104781
0.0105834
0.0106934
0.0108079
0.0109267
0.0110497
0.0111765
0.0113811
0.0110654
0.0111849
0.0113086
0.0114362
0.0116395
0.000252038
0.000244085
0.00024023
0.00024023
0.000244085
0.000252038
0.000264565
0.000282261
0.000305845
0.000336507
0.000375495
0.000423897
0.000482464
0.00055171
0.000631458
0.000720788
0.000818187
0.000921821
0.00102988
0.00114081
0.0012534
0.00136664
0.00147953
0.0015906
0.00169728
0.00179412
0.00186958
0.00197571
0.000433094
0.000420147
0.000413771
0.000413771
0.000420147
0.000433093
0.000452963
0.000480214
0.000515415
0.000559255
0.000612304
0.000674868
0.000746943
0.00082816
0.000917781
0.00101481
0.00111814
0.00122672
0.00133963
0.00145606
0.00157518
0.00169602
0.00181711
0.00193625
0.00205022
0.00215513
0.00225026
0.00257556
0.000687751
0.000671177
0.000662927
0.000662927
0.000671176
0.000687751
0.000712781
0.000746425
0.000788835
0.000840077
0.000900062
0.000968501
0.00104492
0.00112865
0.00121893
0.00131499
0.00141608
0.00152153
0.00163069
0.00174289
0.00185731
0.00197293
0.00208859
0.0022032
0.00231668
0.00243206
0.00255919
0.00295973
0.000988048
0.000970111
0.000961129
0.000961129
0.00097011
0.000988047
0.00101488
0.0010505
0.00109473
0.00114728
0.00120776
0.0012757
0.00135054
0.00143169
0.00151857
0.00161062
0.00170731
0.00180813
0.00191255
0.00202
0.00212988
0.00224165
0.00235512
0.00247091
0.00259126
0.00272053
0.00286401
0.00325968
0.00130203
0.00128439
0.00127553
0.00127553
0.00128439
0.00130203
0.00132831
0.00136302
0.00140587
0.0014565
0.0015145
0.00157941
0.00165077
0.00172813
0.00181103
0.00189905
0.00199178
0.00208879
0.00218968
0.00229408
0.00240173
0.00251267
0.00262743
0.00274729
0.00287424
0.00301024
0.00315535
0.00353628
0.00161099
0.00159423
0.00158582
0.00158582
0.00159423
0.00161099
0.00163594
0.00166888
0.00170954
0.00175761
0.00181274
0.00187457
0.00194273
0.00201686
0.0020966
0.00218159
0.00227151
0.00236602
0.00246487
0.00256789
0.00267512
0.00278686
0.00290376
0.00302673
0.0031566
0.00329336
0.00343558
0.00380342
0.00190972
0.0018938
0.00188581
0.00188581
0.0018938
0.00190971
0.00193344
0.00196481
0.0020036
0.00204958
0.00210245
0.00216194
0.00222774
0.00229956
0.0023771
0.00246006
0.00254819
0.00264126
0.00273911
0.00284173
0.00294921
0.00306186
0.00318006
0.00330414
0.00343404
0.00356912
0.00370819
0.00406445
0.00219932
0.00218402
0.00217635
0.00217635
0.00218402
0.00219932
0.00222215
0.00225238
0.00228983
0.00233431
0.0023856
0.00244346
0.00250763
0.00257787
0.00265393
0.00273557
0.00282258
0.0029148
0.00301215
0.00311462
0.00322227
0.00333524
0.00345361
0.0035773
0.00370593
0.00383883
0.00397527
0.00432083
0.00248213
0.00246726
0.00245981
0.00245981
0.00246726
0.00248212
0.00250433
0.00253376
0.00257028
0.00261372
0.00266389
0.0027206
0.00278362
0.00285275
0.00292777
0.00300848
0.00309472
0.00318634
0.00328328
0.00338548
0.00349292
0.00360558
0.00372333
0.0038459
0.00397288
0.00410376
0.00423804
0.00457351
0.00275986
0.00274531
0.00273802
0.00273802
0.00274531
0.00275986
0.00278161
0.00281047
0.0028463
0.00288898
0.00293833
0.00299417
0.00305633
0.00312461
0.00319882
0.0032788
0.00336439
0.00345545
0.00355189
0.0036536
0.00376048
0.00387239
0.00398912
0.00411035
0.0042357
0.00436479
0.00449726
0.00482317
0.00303356
0.00301924
0.00301207
0.00301207
0.00301924
0.00303356
0.00305496
0.00308336
0.00311866
0.00316073
0.00320942
0.00326457
0.00332602
0.00339359
0.00346711
0.00354643
0.00363138
0.00372183
0.00381765
0.00391868
0.00402478
0.00413574
0.0042513
0.00437118
0.00449504
0.00462258
0.00475347
0.00507031
0.00330376
0.00328964
0.00328257
0.00328257
0.00328964
0.00330376
0.00332487
0.0033529
0.00338775
0.00342931
0.00347744
0.00353199
0.00359281
0.00365975
0.00373263
0.0038113
0.00389561
0.00398539
0.00408049
0.00418074
0.00428595
0.00439588
0.00451029
0.0046289
0.00475142
0.00487758
0.00500709
0.00531533
0.00357082
0.00355687
0.00354989
0.00354988
0.00355687
0.00357081
0.00359167
0.00361938
0.00365384
0.00369494
0.00374257
0.00379658
0.00385683
0.00392317
0.00399543
0.00407347
0.00415711
0.00424619
0.00434053
0.00443995
0.00454424
0.00465317
0.00476648
0.00488393
0.00500524
0.00513017
0.00525845
0.00555858
0.00383496
0.00382117
0.00381426
0.00381426
0.00382117
0.00383496
0.00385559
0.003883
0.00391711
0.0039578
0.00400497
0.00405848
0.00411819
0.00418396
0.00425562
0.00433303
0.004416
0.00450437
0.00459795
0.00469654
0.00479994
0.00490791
0.00502021
0.00513661
0.00525684
0.00538068
0.00550788
0.00580033
0.00417775
0.00421807
0.00426481
0.00431785
0.00437705
0.00444227
0.00451336
0.00459015
0.00467247
0.00476014
0.00485298
0.00495078
0.00505334
0.00516042
0.0052718
0.00538725
0.00550652
0.0056294
0.00575563
0.00604085
0.00510586
0.00520292
0.0053047
0.00541098
0.00552152
0.00563612
0.00575454
0.00587657
0.00600195
0.00628037
0.00576964
0.00588349
0.00600115
0.00612243
0.00624707
0.00651909
0.00636721
0.00649122
0.00675721
0.0123035
0.0125771
0.0128538
0.00790774
0.00815209
0.00839694
0.00864244
0.00888874
0.00913601
0.00938438
0.00963401
0.00988503
0.0101376
0.0103919
0.010648
0.0109061
0.0111663
0.0114288
0.0116937
0.0119611
0.0122313
0.0125043
0.0127804
0.00711449
0.00735842
0.00760232
0.00784636
0.00809069
0.00833549
0.00858091
0.0088271
0.00907422
0.00932241
0.00957182
0.00982261
0.0100749
0.0103289
0.0105846
0.0108424
0.0111022
0.0113642
0.0116287
0.0118957
0.0121653
0.0124378
0.0127133
0.0070587
0.00730272
0.00754668
0.00779075
0.00803508
0.00827985
0.0085252
0.00877129
0.00901828
0.00926631
0.00951554
0.00976611
0.0100182
0.0102719
0.0105273
0.0107847
0.0110442
0.0113059
0.0115699
0.0118365
0.0121057
0.0123777
0.0126527
0.00700879
0.00725291
0.00749693
0.00774103
0.00798536
0.0082301
0.0084754
0.00872141
0.00896829
0.00921619
0.00946526
0.00971565
0.0099675
0.010221
0.0104762
0.0107333
0.0109924
0.0112538
0.0115175
0.0117837
0.0120525
0.0123241
0.0125986
0.00696488
0.00720908
0.00745316
0.00769729
0.00794164
0.00818636
0.00843161
0.00867756
0.00892435
0.00917213
0.00942107
0.00967129
0.00992296
0.0101762
0.0104312
0.0106881
0.010947
0.0112081
0.0114714
0.0117373
0.0120057
0.012277
0.0125511
0.00170955
0.00200361
0.00228984
0.00257028
0.00284631
0.00311867
0.00338776
0.00365385
0.00391712
0.00417776
0.00443597
0.00469192
0.00494582
0.00519788
0.00544828
0.00569723
0.00594493
0.00619158
0.00643735
0.00668245
0.00692705
0.00717134
0.00741547
0.00765964
0.00790399
0.0081487
0.00839392
0.00863981
0.00888653
0.00913422
0.00938304
0.00963313
0.00988465
0.0101377
0.0103925
0.0106492
0.0109079
0.0111687
0.0114318
0.0116974
0.0119656
0.0122365
0.0125103
0.00166889
0.00196481
0.00225238
0.00253376
0.00281047
0.00308337
0.00335291
0.00361939
0.00388302
0.00414399
0.00440249
0.00465872
0.00491288
0.00516517
0.00541579
0.00566493
0.00591281
0.0061596
0.00640551
0.00665072
0.00689541
0.00713976
0.00738394
0.00762814
0.0078725
0.0081172
0.0083624
0.00860825
0.0088549
0.00910252
0.00935125
0.00960123
0.00985263
0.0101056
0.0103602
0.0106167
0.0108752
0.0111358
0.0113987
0.0116641
0.011932
0.0122027
0.0124762
0.00163595
0.00193345
0.00222215
0.00250433
0.00278162
0.00305496
0.00332488
0.00359168
0.0038556
0.00411684
0.00437559
0.00463205
0.00488642
0.0051389
0.0053897
0.005639
0.00588701
0.00613393
0.00637994
0.00662524
0.00687
0.00711441
0.00735864
0.00760285
0.00784723
0.00809193
0.0083371
0.00858292
0.00882953
0.00907709
0.00932574
0.00957564
0.00982694
0.0100798
0.0103343
0.0105907
0.010849
0.0111095
0.0113722
0.0116374
0.0119051
0.0121755
0.0124489
0.000252039
0.000433094
0.000687752
0.000988049
0.00130203
0.00161099
0.00190972
0.00219932
0.00248213
0.00275987
0.00303356
0.00330377
0.00357082
0.00383497
0.00409641
0.00435535
0.00461199
0.00486652
0.00511914
0.00537007
0.00561949
0.00586761
0.00611462
0.00636071
0.00660608
0.0068509
0.00709535
0.00733961
0.00758385
0.00782823
0.00807293
0.00831809
0.00856388
0.00881046
0.00905797
0.00930658
0.00955641
0.00980764
0.0100604
0.0103148
0.0105711
0.0108293
0.0110897
0.0113523
0.0116173
0.0118849
0.0121552
0.0124283
0.000244085
0.000420148
0.000671178
0.000970112
0.00128439
0.00159424
0.0018938
0.00218403
0.00246726
0.00274531
0.00301925
0.00328965
0.00355688
0.00382118
0.00408276
0.00434182
0.00459858
0.00485321
0.00510594
0.00535695
0.00560646
0.00585465
0.00610172
0.00634787
0.00659328
0.00683814
0.00708262
0.0073269
0.00757115
0.00781554
0.00806024
0.00830539
0.00855117
0.00879773
0.00904521
0.00929378
0.00954357
0.00979475
0.0100474
0.0103018
0.010558
0.0108162
0.0110764
0.011339
0.0116039
0.0118714
0.0121416
0.0124146
0.00024023
0.000413772
0.000662928
0.00096113
0.00127554
0.00158582
0.00188581
0.00217635
0.00245981
0.00273802
0.00301208
0.00328258
0.00354989
0.00381427
0.00407592
0.00433505
0.00459186
0.00484655
0.00509933
0.00535039
0.00559993
0.00584816
0.00609526
0.00634144
0.00658687
0.00683175
0.00707625
0.00732054
0.0075648
0.00780919
0.00805389
0.00829904
0.00854481
0.00879136
0.00903883
0.00928737
0.00953715
0.0097883
0.010041
0.0102953
0.0105515
0.0108096
0.0110698
0.0113323
0.0115972
0.0118646
0.0121348
0.0124078
0.00024023
0.000413772
0.000662928
0.00096113
0.00127554
0.00158582
0.00188581
0.00217635
0.00245981
0.00273802
0.00301208
0.00328258
0.00354989
0.00381427
0.00407592
0.00433505
0.00459186
0.00484655
0.00509933
0.00535039
0.00559993
0.00584816
0.00609526
0.00634144
0.00658687
0.00683175
0.00707625
0.00732054
0.0075648
0.00780919
0.00805389
0.00829904
0.00854481
0.00879136
0.00903883
0.00928737
0.00953715
0.0097883
0.010041
0.0102953
0.0105515
0.0108096
0.0110698
0.0113323
0.0115972
0.0118646
0.0121348
0.0124078
0.000244085
0.000420148
0.000671177
0.000970112
0.00128439
0.00159424
0.0018938
0.00218403
0.00246726
0.00274531
0.00301925
0.00328965
0.00355688
0.00382118
0.00408276
0.00434182
0.00459858
0.00485321
0.00510594
0.00535695
0.00560646
0.00585465
0.00610172
0.00634787
0.00659328
0.00683814
0.00708262
0.0073269
0.00757115
0.00781554
0.00806024
0.00830539
0.00855117
0.00879773
0.00904521
0.00929378
0.00954357
0.00979475
0.0100474
0.0103018
0.010558
0.0108162
0.0110764
0.011339
0.0116039
0.0118714
0.0121416
0.0124146
0.000252038
0.000433094
0.000687751
0.000988049
0.00130203
0.00161099
0.00190972
0.00219932
0.00248213
0.00275987
0.00303356
0.00330377
0.00357082
0.00383497
0.00409641
0.00435535
0.00461199
0.00486652
0.00511914
0.00537007
0.00561949
0.00586761
0.00611462
0.00636071
0.00660608
0.0068509
0.00709535
0.00733961
0.00758385
0.00782823
0.00807293
0.00831809
0.00856388
0.00881046
0.00905797
0.00930658
0.00955641
0.00980764
0.0100604
0.0103148
0.0105711
0.0108293
0.0110897
0.0113523
0.0116173
0.0118849
0.0121552
0.0124283
0.000264565
0.000452964
0.000712782
0.00101488
0.00132832
0.00163594
0.00193344
0.00222215
0.00250433
0.00278162
0.00305496
0.00332488
0.00359168
0.0038556
0.00411684
0.00437559
0.00463205
0.00488642
0.0051389
0.0053897
0.005639
0.00588701
0.00613393
0.00637994
0.00662524
0.00687
0.00711441
0.00735864
0.00760286
0.00784723
0.00809193
0.00833711
0.00858292
0.00882953
0.00907709
0.00932574
0.00957564
0.00982694
0.0100798
0.0103343
0.0105907
0.010849
0.0111095
0.0113722
0.0116374
0.0119051
0.0121755
0.0124489
0.000282261
0.000480215
0.000746426
0.0010505
0.00136303
0.00166888
0.00196481
0.00225238
0.00253376
0.00281047
0.00308336
0.00335291
0.00361939
0.00388301
0.00414398
0.00440249
0.00465872
0.00491288
0.00516517
0.00541579
0.00566493
0.00591281
0.0061596
0.00640551
0.00665072
0.00689541
0.00713976
0.00738395
0.00762814
0.0078725
0.0081172
0.0083624
0.00860825
0.0088549
0.00910252
0.00935125
0.00960123
0.00985263
0.0101056
0.0103602
0.0106167
0.0108752
0.0111358
0.0113987
0.0116641
0.011932
0.0122027
0.0124762
0.000305846
0.000515415
0.000788836
0.00109473
0.00140588
0.00170955
0.00200361
0.00228983
0.00257028
0.00284631
0.00311866
0.00338776
0.00365384
0.00391712
0.00417776
0.00443596
0.00469192
0.00494582
0.00519788
0.00544828
0.00569723
0.00594493
0.00619158
0.00643736
0.00668246
0.00692706
0.00717134
0.00741548
0.00765964
0.00790399
0.0081487
0.00839392
0.00863981
0.00888653
0.00913422
0.00938304
0.00963313
0.00988465
0.0101377
0.0103925
0.0106492
0.0109079
0.0111687
0.0114318
0.0116974
0.0119656
0.0122365
0.0125103
0.000336508
0.000559256
0.000840079
0.00114728
0.0014565
0.00175761
0.00204958
0.00233432
0.00261372
0.00288898
0.00316073
0.00342932
0.00369495
0.00395781
0.00421808
0.00447593
0.00473155
0.00498516
0.00523693
0.00548708
0.00573581
0.00598331
0.00622978
0.00647541
0.00672038
0.00696488
0.00720908
0.00745317
0.0076973
0.00794164
0.00818636
0.00843161
0.00867756
0.00892435
0.00917213
0.00942107
0.00967129
0.00992296
0.0101762
0.0104312
0.0106881
0.010947
0.0112081
0.0114714
0.0117373
0.0120058
0.012277
0.0125511
0.000375496
0.000612305
0.000900063
0.00120777
0.0015145
0.00181274
0.00210245
0.00238561
0.0026639
0.00293833
0.00320942
0.00347744
0.00374257
0.00400498
0.00426481
0.00452227
0.00477752
0.00503078
0.00528224
0.00553211
0.00578058
0.00602785
0.00627412
0.00651958
0.00676441
0.00700879
0.00725291
0.00749693
0.00774103
0.00798537
0.0082301
0.0084754
0.00872141
0.00896829
0.00921619
0.00946526
0.00971565
0.0099675
0.010221
0.0104762
0.0107333
0.0109924
0.0112538