/*--------------------------------*- C++ -*----------------------------------*\
  =========                 |
  \\      /  F ield         | OpenFOAM: The Open Source CFD Toolbox
   \\    /   O peration     | Website:  https://openfoam.org
    \\  /    A nd           | Version:  7
     \\/     M anipulation  |
\*---------------------------------------------------------------------------*/
FoamFile
{
    version     2.0;
    format      ascii;
    class       volScalarField;
    location    "240000";
    object      p;
}
// * * * * * * * * * * * * * * * * * * * * * * * * * * * * * * * * * * * * * //

dimensions      [0 2 -2 0 0 0 0];

internalField   nonuniform List<scalar> 
4825
(
-1.51484e-18
-1.51323e-18
-1.51191e-18
-1.51102e-18
-1.51836e-18
-1.50081e-18
-1.52015e-18
-1.51454e-18
-1.50648e-18
-1.51879e-18
-1.49506e-18
-1.51721e-18
-1.514e-18
-1.51046e-18
-1.51101e-18
-1.49417e-18
-1.51053e-18
-1.52113e-18
-1.52623e-18
-1.51446e-18
-1.50147e-18
-1.51425e-18
-1.5325e-18
-1.51968e-18
-1.52748e-18
-1.5083e-18
-1.51945e-18
-1.52238e-18
-1.50874e-18
-1.51541e-18
-1.50827e-18
-1.51759e-18
-1.51436e-18
-1.50593e-18
-1.51406e-18
-1.50071e-18
-1.51815e-18
-1.51374e-18
-1.4958e-18
-1.51608e-18
-1.49389e-18
-1.51397e-18
-1.52346e-18
-1.49036e-18
-1.51608e-18
-1.49876e-18
-1.51029e-18
-1.52779e-18
-1.49868e-18
-1.50768e-18
-1.49722e-18
-1.51346e-18
-1.52012e-18
-1.5079e-18
-1.51581e-18
-1.50127e-18
-1.51347e-18
-1.51299e-18
-1.51382e-18
-1.51881e-18
-1.50158e-18
-1.51034e-18
-1.51842e-18
-1.50729e-18
-1.51631e-18
-1.49874e-18
-1.51257e-18
-1.50298e-18
-1.51226e-18
-1.49881e-18
-1.51531e-18
-1.49348e-18
-1.51173e-18
-1.49204e-18
-1.50718e-18
-1.49731e-18
-1.50704e-18
-1.51232e-18
-1.49911e-18
-1.51272e-18
-1.50285e-18
-1.49797e-18
-1.50523e-18
-1.49712e-18
-1.50856e-18
-1.49826e-18
-1.5058e-18
-1.50128e-18
-1.49259e-18
-1.49503e-18
-1.503e-18
-1.47957e-18
-1.47141e-18
-1.47643e-18
-1.46268e-18
-1.4973e-18
-1.47469e-18
-1.48388e-18
-1.47488e-18
-1.47313e-18
-1.47278e-18
-1.48007e-18
-1.47705e-18
-1.48459e-18
-1.46607e-18
-1.46929e-18
-1.45371e-18
-1.48156e-18
-1.46456e-18
-1.4816e-18
-1.47679e-18
-1.4714e-18
-1.46154e-18
-1.47506e-18
-1.47543e-18
-1.48808e-18
-1.47189e-18
-1.48851e-18
-1.47571e-18
-1.46922e-18
-1.47352e-18
-1.47679e-18
-1.4759e-18
-1.48062e-18
-1.46308e-18
-1.47552e-18
-1.4668e-18
-1.48283e-18
-1.47169e-18
-1.49227e-18
-1.47607e-18
-1.47692e-18
-1.47165e-18
-1.47948e-18
-1.47672e-18
-1.49087e-18
-1.47918e-18
-1.49395e-18
-1.47637e-18
-1.47754e-18
-1.47431e-18
-1.47232e-18
-1.46625e-18
-1.46898e-18
-1.46617e-18
-1.47529e-18
-1.47475e-18
-1.48214e-18
-1.4721e-18
-1.49412e-18
-1.48129e-18
-1.48629e-18
-1.47459e-18
-1.47739e-18
-1.48029e-18
-1.48075e-18
-1.47743e-18
-1.49068e-18
-1.48191e-18
-1.48862e-18
-1.47375e-18
-1.46666e-18
-1.47024e-18
-1.47005e-18
-1.46747e-18
-1.48088e-18
-1.47268e-18
-1.48476e-18
-1.47293e-18
-1.49006e-18
-1.48274e-18
-1.48682e-18
-1.46788e-18
-1.47395e-18
-1.47854e-18
-1.4816e-18
-1.47795e-18
-1.4867e-18
-1.47342e-18
-1.49069e-18
-1.47437e-18
-1.4689e-18
-1.4702e-18
-1.47526e-18
-1.4683e-18
-1.47884e-18
-1.47414e-18
-1.48668e-18
-1.47017e-18
-1.48814e-18
-1.48206e-18
-1.48292e-18
-1.4712e-18
-1.46141e-18
-1.46889e-18
-1.48257e-18
-1.47952e-18
-1.47409e-18
-1.47484e-18
-1.49226e-18
-1.48271e-18
-1.46694e-18
-1.46871e-18
-1.47e-18
-1.46596e-18
-1.47188e-18
-1.47106e-18
-1.48669e-18
-1.46648e-18
-1.48827e-18
-1.48883e-18
-1.4859e-18
-1.46798e-18
-1.46677e-18
-1.4813e-18
-1.48137e-18
-1.46808e-18
-1.47847e-18
-1.4758e-18
-1.48661e-18
-1.47924e-18
-1.46852e-18
-1.46859e-18
-1.47155e-18
-1.47266e-18
-1.48377e-18
-1.47023e-18
-1.49165e-18
-1.47369e-18
-1.48631e-18
-1.48574e-18
-1.47788e-18
-1.4861e-18
-1.46404e-18
-1.47721e-18
-1.48829e-18
-1.46781e-18
-1.48178e-18
-1.47518e-18
-1.4841e-18
-1.47457e-18
-1.47499e-18
-1.47885e-18
-1.46661e-18
-1.47508e-18
-1.48176e-18
-1.47115e-18
-1.47789e-18
-1.47473e-18
-1.49656e-18
-1.48616e-18
-1.49505e-18
-1.49399e-18
-1.494e-18
-1.50039e-18
-1.51624e-18
-1.50518e-18
-1.50247e-18
-1.51835e-18
-1.49752e-18
-1.49687e-18
-1.48295e-18
-1.5075e-18
-1.50523e-18
-1.50354e-18
-1.50848e-18
-1.46585e-18
-1.47942e-18
-1.4581e-18
-1.47447e-18
-1.48315e-18
-1.46542e-18
-1.50208e-18
-1.4768e-18
-1.48719e-18
-1.46844e-18
-1.47355e-18
-1.48551e-18
-1.46897e-18
-1.47106e-18
-1.47891e-18
-1.47422e-18
-1.47233e-18
-1.47382e-18
-1.50101e-18
-1.48869e-18
-1.4969e-18
-1.50096e-18
-1.50046e-18
-1.49281e-18
-1.50948e-18
-1.50186e-18
-1.50872e-18
-1.51727e-18
-1.50074e-18
-1.4945e-18
-1.48849e-18
-1.50756e-18
-1.5094e-18
-1.50488e-18
-1.50471e-18
-1.50287e-18
-1.49552e-18
-1.47901e-18
-1.48107e-18
-1.46139e-18
-1.47318e-18
-1.48611e-18
-1.48684e-18
-1.50721e-18
-1.47384e-18
-1.50228e-18
-1.46819e-18
-1.4745e-18
-1.46993e-18
-1.46704e-18
-1.47079e-18
-1.47385e-18
-1.47206e-18
-1.48082e-18
-1.47229e-18
-1.48973e-18
-1.49068e-18
-1.50139e-18
-1.50025e-18
-1.50445e-18
-1.495e-18
-1.50855e-18
-1.50849e-18
-1.51099e-18
-1.51427e-18
-1.50111e-18
-1.49984e-18
-1.48949e-18
-1.50293e-18
-1.50855e-18
-1.49714e-18
-1.50997e-18
-1.50722e-18
-1.49128e-18
-1.48974e-18
-1.47956e-18
-1.48318e-18
-1.46646e-18
-1.47062e-18
-1.50405e-18
-1.47795e-18
-1.49863e-18
-1.46458e-18
-1.49365e-18
-1.46828e-18
-1.48821e-18
-1.46579e-18
-1.4725e-18
-1.46678e-18
-1.46771e-18
-1.46339e-18
-1.47952e-18
-1.47397e-18
-1.4853e-18
-1.49368e-18
-1.49725e-18
-1.49817e-18
-1.50871e-18
-1.49661e-18
-1.50923e-18
-1.50738e-18
-1.51196e-18
-1.5155e-18
-1.50246e-18
-1.50533e-18
-1.48864e-18
-1.49727e-18
-1.50559e-18
-1.50659e-18
-1.50922e-18
-1.5093e-18
-1.49302e-18
-1.49262e-18
-1.48627e-18
-1.48729e-18
-1.47638e-18
-1.47959e-18
-1.47104e-18
-1.47114e-18
-1.49866e-18
-1.47558e-18
-1.49132e-18
-1.45654e-18
-1.49241e-18
-1.47351e-18
-1.48171e-18
-1.46477e-18
-1.47816e-18
-1.46022e-18
-1.4717e-18
-1.46679e-18
-1.47872e-18
-1.48023e-18
-1.48973e-18
-1.49175e-18
-1.49199e-18
-1.50088e-18
-1.50594e-18
-1.49764e-18
-1.51023e-18
-1.50614e-18
-1.51418e-18
-1.51086e-18
-1.50093e-18
-1.50121e-18
-1.49596e-18
-1.50166e-18
-1.49911e-18
-1.5109e-18
-1.50357e-18
-1.50676e-18
-1.49438e-18
-1.49063e-18
-1.48644e-18
-1.4914e-18
-1.50364e-18
-1.48173e-18
-1.48377e-18
-1.47152e-18
-1.47297e-18
-1.46758e-18
-1.48956e-18
-1.47005e-18
-1.49355e-18
-1.47012e-18
-1.48748e-18
-1.46962e-18
-1.48678e-18
-1.46069e-18
-1.46856e-18
-1.458e-18
-1.47964e-18
-1.47591e-18
-1.48061e-18
-1.4764e-18
-1.48442e-18
-1.49236e-18
-1.49276e-18
-1.50488e-18
-1.50228e-18
-1.49941e-18
-1.51284e-18
-1.50464e-18
-1.51787e-18
-1.50766e-18
-1.50535e-18
-1.49973e-18
-1.48939e-18
-1.50371e-18
-1.50468e-18
-1.51189e-18
-1.5002e-18
-1.50215e-18
-1.49554e-18
-1.49478e-18
-1.48641e-18
-1.49043e-18
-1.50697e-18
-1.4841e-18
-1.50664e-18
-1.48774e-18
-1.50108e-18
-1.48204e-18
-1.47741e-18
-1.47618e-18
-1.47068e-18
-1.48732e-18
-1.46728e-18
-1.4978e-18
-1.47918e-18
-1.48099e-18
-1.45788e-18
-1.47946e-18
-1.46078e-18
-1.47149e-18
-1.47201e-18
-1.47232e-18
-1.47506e-18
-1.48268e-18
-1.47115e-18
-1.48647e-18
-1.49798e-18
-1.4957e-18
-1.50307e-18
-1.50355e-18
-1.50203e-18
-1.51709e-18
-1.51e-18
-1.51594e-18
-1.50433e-18
-1.5037e-18
-1.49715e-18
-1.49211e-18
-1.50481e-18
-1.50398e-18
-1.51568e-18
-1.5123e-18
-1.5026e-18
-1.49655e-18
-1.48819e-18
-1.48974e-18
-1.48802e-18
-1.50747e-18
-1.47955e-18
-1.49973e-18
-1.47599e-18
-1.50606e-18
-1.48566e-18
-1.50677e-18
-1.48051e-18
-1.47736e-18
-1.47478e-18
-1.47567e-18
-1.4893e-18
-1.47298e-18
-1.48532e-18
-1.48067e-18
-1.48452e-18
-1.4667e-18
-1.47064e-18
-1.46501e-18
-1.4734e-18
-1.468e-18
-1.47817e-18
-1.46816e-18
-1.48154e-18
-1.46781e-18
-1.49815e-18
-1.49662e-18
-1.49241e-18
-1.50143e-18
-1.50844e-18
-1.50427e-18
-1.51815e-18
-1.50782e-18
-1.51679e-18
-1.50681e-18
-1.50101e-18
-1.49218e-18
-1.49322e-18
-1.4966e-18
-1.50662e-18
-1.50898e-18
-1.51363e-18
-1.50296e-18
-1.49402e-18
-1.49218e-18
-1.49545e-18
-1.49112e-18
-1.50297e-18
-1.48355e-18
-1.49962e-18
-1.48569e-18
-1.50607e-18
-1.48788e-18
-1.49951e-18
-1.49319e-18
-1.53355e-18
-1.50654e-18
-1.47913e-18
-1.47503e-18
-1.47448e-18
-1.46883e-18
-1.50329e-18
-1.47237e-18
-1.49183e-18
-1.48775e-18
-1.49653e-18
-1.47619e-18
-1.46798e-18
-1.46539e-18
-1.47556e-18
-1.46491e-18
-1.4714e-18
-1.455e-18
-1.48093e-18
-1.47427e-18
-1.49259e-18
-1.49061e-18
-1.49836e-18
-1.4963e-18
-1.51112e-18
-1.49783e-18
-1.51377e-18
-1.5041e-18
-1.5121e-18
-1.50682e-18
-1.50077e-18
-1.49772e-18
-1.48836e-18
-1.50136e-18
-1.50584e-18
-1.51058e-18
-1.52231e-18
-1.51151e-18
-1.49725e-18
-1.4972e-18
-1.50123e-18
-1.50086e-18
-1.50026e-18
-1.48101e-18
-1.48731e-18
-1.47614e-18
-1.50676e-18
-1.48375e-18
-1.49957e-18
-1.49449e-18
-1.53072e-18
-1.50868e-18
-1.47676e-18
-1.47266e-18
-1.47766e-18
-1.47498e-18
-1.4955e-18
-1.47316e-18
-1.49297e-18
-1.47392e-18
-1.48825e-18
-1.4704e-18
-1.47562e-18
-1.45977e-18
-1.47923e-18
-1.46619e-18
-1.47096e-18
-1.45865e-18
-1.47514e-18
-1.479e-18
-1.48633e-18
-1.49382e-18
-1.50209e-18
-1.49909e-18
-1.51198e-18
-1.49558e-18
-1.51228e-18
-1.50593e-18
-1.51708e-18
-1.5045e-18
-1.50399e-18
-1.49981e-18
-1.48896e-18
-1.50272e-18
-1.50739e-18
-1.51667e-18
-1.51852e-18
-1.51072e-18
-1.50133e-18
-1.4986e-18
-1.50932e-18
-1.4978e-18
-1.50596e-18
-1.4872e-18
-1.49262e-18
-1.47395e-18
-1.49584e-18
-1.47786e-18
-1.48757e-18
-1.49509e-18
-1.52555e-18
-1.51595e-18
-1.47669e-18
-1.46795e-18
-1.47867e-18
-1.46952e-18
-1.49189e-18
-1.46985e-18
-1.48352e-18
-1.47552e-18
-1.48177e-18
-1.46767e-18
-1.47105e-18
-1.45245e-18
-1.47088e-18
-1.46484e-18
-1.47198e-18
-1.464e-18
-1.48343e-18
-1.47786e-18
-1.48591e-18
-1.50158e-18
-1.50253e-18
-1.50731e-18
-1.51108e-18
-1.49736e-18
-1.51125e-18
-1.51086e-18
-1.51784e-18
-1.5066e-18
-1.50608e-18
-1.50085e-18
-1.496e-18
-1.50078e-18
-1.50883e-18
-1.50905e-18
-1.51496e-18
-1.50883e-18
-1.49609e-18
-1.50088e-18
-1.50744e-18
-1.49555e-18
-1.50074e-18
-1.49175e-18
-1.49602e-18
-1.49133e-18
-1.48568e-18
-1.47386e-18
-1.497e-18
-1.49197e-18
-1.52445e-18
-1.51197e-18
-1.47348e-18
-1.47068e-18
-1.4712e-18
-1.46915e-18
-1.48463e-18
-1.46934e-18
-1.48009e-18
-1.48352e-18
-1.48577e-18
-1.46915e-18
-1.48259e-18
-1.46707e-18
-1.4642e-18
-1.45651e-18
-1.47889e-18
-1.46654e-18
-1.483e-18
-1.47763e-18
-1.48875e-18
-1.50383e-18
-1.50176e-18
-1.50747e-18
-1.51051e-18
-1.50088e-18
-1.5105e-18
-1.51332e-18
-1.51322e-18
-1.50392e-18
-1.50482e-18
-1.50641e-18
-1.48914e-18
-1.49881e-18
-1.50246e-18
-1.50369e-18
-1.51618e-18
-1.50821e-18
-1.49512e-18
-1.50647e-18
-1.49803e-18
-1.48969e-18
-1.49918e-18
-1.49157e-18
-1.4973e-18
-1.49182e-18
-1.49789e-18
-1.48375e-18
-1.51225e-18
-1.49264e-18
-1.51856e-18
-1.50459e-18
-1.47988e-18
-1.48523e-18
-1.47475e-18
-1.47504e-18
-1.48775e-18
-1.46952e-18
-1.47135e-18
-1.47386e-18
-1.48672e-18
-1.4646e-18
-1.47676e-18
-1.468e-18
-1.46548e-18
-1.46223e-18
-1.47072e-18
-1.46633e-18
-1.48185e-18
-1.47376e-18
-1.48478e-18
-1.50298e-18
-1.50872e-18
-1.50208e-18
-1.51803e-18
-1.49953e-18
-1.50988e-18
-1.50458e-18
-1.51107e-18
-1.49662e-18
-1.50693e-18
-1.50214e-18
-1.48751e-18
-1.49809e-18
-1.50628e-18
-1.51719e-18
-1.51104e-18
-1.51547e-18
-1.4982e-18
-1.50675e-18
-1.49982e-18
-1.50019e-18
-1.50013e-18
-1.48898e-18
-1.50314e-18
-1.49542e-18
-1.49933e-18
-1.48194e-18
-1.50848e-18
-1.49687e-18
-1.50361e-18
-1.50564e-18
-1.49252e-18
-1.47748e-18
-1.4877e-18
-1.48067e-18
-1.49132e-18
-1.46619e-18
-1.47246e-18
-1.46525e-18
-1.4806e-18
-1.47372e-18
-1.47027e-18
-1.46224e-18
-1.4744e-18
-1.4633e-18
-1.47714e-18
-1.47349e-18
-1.47559e-18
-1.47293e-18
-1.47963e-18
-1.49904e-18
-1.50694e-18
-1.50523e-18
-1.5205e-18
-1.50325e-18
-1.51064e-18
-1.50129e-18
-1.50821e-18
-1.50117e-18
-1.51481e-18
-1.5003e-18
-1.491e-18
-1.50183e-18
-1.50559e-18
-1.51757e-18
-1.51129e-18
-1.50871e-18
-1.5041e-18
-1.49962e-18
-1.50803e-18
-1.51054e-18
-1.49904e-18
-1.49254e-18
-1.51032e-18
-1.48798e-18
-1.50646e-18
-1.48592e-18
-1.51069e-18
-1.48902e-18
-1.51129e-18
-1.50335e-18
-1.48166e-18
-1.4674e-18
-1.47647e-18
-1.4807e-18
-1.49006e-18
-1.47836e-18
-1.48441e-18
-1.47457e-18
-1.50057e-18
-1.47946e-18
-1.48115e-18
-1.46595e-18
-1.4717e-18
-1.46071e-18
-1.48268e-18
-1.4707e-18
-1.47928e-18
-1.47632e-18
-1.49069e-18
-1.49753e-18
-1.50426e-18
-1.50588e-18
-1.5202e-18
-1.50651e-18
-1.51385e-18
-1.50215e-18
-1.50343e-18
-1.49767e-18
-1.50448e-18
-1.50168e-18
-1.50066e-18
-1.50237e-18
-1.50695e-18
-1.51498e-18
-1.51256e-18
-1.50317e-18
-1.50018e-18
-1.50427e-18
-1.50975e-18
-1.50591e-18
-1.49466e-18
-1.47534e-18
-1.49665e-18
-1.48217e-18
-1.49497e-18
-1.48602e-18
-1.51141e-18
-1.49961e-18
-1.51511e-18
-1.50995e-18
-1.47344e-18
-1.4654e-18
-1.47582e-18
-1.47438e-18
-1.49117e-18
-1.47962e-18
-1.48173e-18
-1.47271e-18
-1.49142e-18
-1.4668e-18
-1.47516e-18
-1.47249e-18
-1.46929e-18
-1.45339e-18
-1.48011e-18
-1.47298e-18
-1.47452e-18
-1.47617e-18
-1.49527e-18
-1.49712e-18
-1.50923e-18
-1.50955e-18
-1.51712e-18
-1.5094e-18
-1.5141e-18
-1.50494e-18
-1.50529e-18
-1.49726e-18
-1.49875e-18
-1.50301e-18
-1.50154e-18
-1.49964e-18
-1.50502e-18
-1.52116e-18
-1.5075e-18
-1.50507e-18
-1.49727e-18
-1.50776e-18
-1.50521e-18
-1.50463e-18
-1.50209e-18
-1.48522e-18
-1.50053e-18
-1.48548e-18
-1.49022e-18
-1.48461e-18
-1.50747e-18
-1.49933e-18
-1.51811e-18
-1.51154e-18
-1.47357e-18
-1.45654e-18
-1.47842e-18
-1.46792e-18
-1.48545e-18
-1.46418e-18
-1.4751e-18
-1.46738e-18
-1.48926e-18
-1.47261e-18
-1.48091e-18
-1.47475e-18
-1.47026e-18
-1.44869e-18
-1.47914e-18
-1.47089e-18
-1.47829e-18
-1.47047e-18
-1.50005e-18
-1.49973e-18
-1.51325e-18
-1.50563e-18
-1.51751e-18
-1.50568e-18
-1.5103e-18
-1.50224e-18
-1.51151e-18
-1.50095e-18
-1.49305e-18
-1.50229e-18
-1.49817e-18
-1.49789e-18
-1.50825e-18
-1.52031e-18
-1.51711e-18
-1.50597e-18
-1.50465e-18
-1.50824e-18
-1.50804e-18
-1.50758e-18
-1.50128e-18
-1.49658e-18
-1.50788e-18
-1.4895e-18
-1.5022e-18
-1.48899e-18
-1.50604e-18
-1.49669e-18
-1.52804e-18
-1.50736e-18
-1.4839e-18
-1.45237e-18
-1.47886e-18
-1.47234e-18
-1.48034e-18
-1.46073e-18
-1.47492e-18
-1.46888e-18
-1.48867e-18
-1.48005e-18
-1.48061e-18
-1.46663e-18
-1.47767e-18
-1.45992e-18
-1.47562e-18
-1.47692e-18
-1.48327e-18
-1.46534e-18
-1.49685e-18
-1.50106e-18
-1.51229e-18
-1.50251e-18
-1.51405e-18
-1.50386e-18
-1.50884e-18
-1.49932e-18
-1.50956e-18
-1.50141e-18
-1.49976e-18
-1.50387e-18
-1.49583e-18
-1.50123e-18
-1.50932e-18
-1.51135e-18
-1.52151e-18
-1.5088e-18
-1.50771e-18
-1.50256e-18
-1.51805e-18
-1.50026e-18
-1.50458e-18
-1.4932e-18
-1.50735e-18
-1.49408e-18
-1.50824e-18
-1.49085e-18
-1.50598e-18
-1.49763e-18
-1.53042e-18
-1.4969e-18
-1.48924e-18
-1.46145e-18
-1.47076e-18
-1.47102e-18
-1.48216e-18
-1.46591e-18
-1.48104e-18
-1.46902e-18
-1.48745e-18
-1.47105e-18
-1.47034e-18
-1.46745e-18
-1.47822e-18
-1.46848e-18
-1.47543e-18
-1.47253e-18
-1.48236e-18
-1.46987e-18
-1.49821e-18
-1.49918e-18
-1.51269e-18
-1.50327e-18
-1.51406e-18
-1.50288e-18
-1.50762e-18
-1.50028e-18
-1.50893e-18
-1.49867e-18
-1.50525e-18
-1.5025e-18
-1.4985e-18
-1.4983e-18
-1.5084e-18
-1.51268e-18
-1.52513e-18
-1.50834e-18
-1.50668e-18
-1.50177e-18
-1.51209e-18
-1.51916e-18
-1.50905e-18
-1.49559e-18
-1.50214e-18
-1.49221e-18
-1.50857e-18
-1.48228e-18
-1.50872e-18
-1.50348e-18
-1.51869e-18
-1.49282e-18
-1.48348e-18
-1.47192e-18
-1.47957e-18
-1.47548e-18
-1.48132e-18
-1.4731e-18
-1.47552e-18
-1.47275e-18
-1.4907e-18
-1.47096e-18
-1.47929e-18
-1.46908e-18
-1.47904e-18
-1.46964e-18
-1.47538e-18
-1.47208e-18
-1.47366e-18
-1.47683e-18
-1.49484e-18
-1.50428e-18
-1.51136e-18
-1.5017e-18
-1.51539e-18
-1.50782e-18
-1.50556e-18
-1.49694e-18
-1.50755e-18
-1.50185e-18
-1.50468e-18
-1.50321e-18
-1.50107e-18
-1.49528e-18
-1.50554e-18
-1.51692e-18
-1.51493e-18
-1.5087e-18
-1.49462e-18
-1.50482e-18
-1.50324e-18
-1.51197e-18
-1.5065e-18
-1.49867e-18
-1.49819e-18
-1.48705e-18
-1.49856e-18
-1.48797e-18
-1.50591e-18
-1.4938e-18
-1.512e-18
-1.49348e-18
-1.47768e-18
-1.48006e-18
-1.48309e-18
-1.47639e-18
-1.48018e-18
-1.47374e-18
-1.47504e-18
-1.46882e-18
-1.48946e-18
-1.47053e-18
-1.47451e-18
-1.47637e-18
-1.47613e-18
-1.46462e-18
-1.47943e-18
-1.47158e-18
-1.47306e-18
-1.48049e-18
-1.49464e-18
-1.50331e-18
-1.51129e-18
-1.50386e-18
-1.51197e-18
-1.50457e-18
-1.50764e-18
-1.49841e-18
-1.51044e-18
-1.50588e-18
-1.50318e-18
-1.4979e-18
-1.50366e-18
-1.49709e-18
-1.50871e-18
-1.51328e-18
-1.51491e-18
-1.50617e-18
-1.49931e-18
-1.51094e-18
-1.49735e-18
-1.51198e-18
-1.50599e-18
-1.49475e-18
-1.50423e-18
-1.49145e-18
-1.50163e-18
-1.49081e-18
-1.50589e-18
-1.48968e-18
-1.50779e-18
-1.49458e-18
-1.4838e-18
-1.47528e-18
-1.48193e-18
-1.47478e-18
-1.48684e-18
-1.46564e-18
-1.47899e-18
-1.46463e-18
-1.48338e-18
-1.46788e-18
-1.47178e-18
-1.4748e-18
-1.48416e-18
-1.46523e-18
-1.48076e-18
-1.47391e-18
-1.47732e-18
-1.47613e-18
-1.49748e-18
-1.49644e-18
-1.51438e-18
-1.50381e-18
-1.51178e-18
-1.50223e-18
-1.50787e-18
-1.50354e-18
-1.51449e-18
-1.50487e-18
-1.50272e-18
-1.50142e-18
-1.50835e-18
-1.50259e-18
-1.51785e-18
-1.51071e-18
-1.51108e-18
-1.50757e-18
-1.50371e-18
-1.50556e-18
-1.50095e-18
-1.51029e-18
-1.507e-18
-1.49838e-18
-1.51189e-18
-1.48925e-18
-1.50778e-18
-1.48662e-18
-1.5086e-18
-1.49046e-18
-1.5092e-18
-1.49155e-18
-1.47897e-18
-1.47275e-18
-1.47905e-18
-1.47627e-18
-1.47821e-18
-1.47146e-18
-1.47134e-18
-1.47439e-18
-1.49115e-18
-1.47222e-18
-1.48061e-18
-1.46356e-18
-1.47893e-18
-1.46637e-18
-1.47364e-18
-1.47318e-18
-1.47866e-18
-1.47835e-18
-1.49666e-18
-1.49821e-18
-1.52072e-18
-1.50157e-18
-1.5206e-18
-1.49972e-18
-1.50724e-18
-1.5006e-18
-1.50604e-18
-1.49792e-18
-1.50226e-18
-1.49894e-18
-1.50338e-18
-1.50581e-18
-1.51255e-18
-1.51877e-18
-1.50542e-18
-1.51186e-18
-1.50121e-18
-1.50901e-18
-1.51299e-18
-1.50445e-18
-1.49944e-18
-1.4955e-18
-1.50796e-18
-1.49468e-18
-1.49962e-18
-1.49191e-18
-1.50844e-18
-1.49786e-18
-1.50958e-18
-1.49832e-18
-1.48264e-18
-1.46507e-18
-1.47999e-18
-1.46983e-18
-1.47258e-18
-1.47199e-18
-1.47405e-18
-1.46885e-18
-1.48698e-18
-1.47525e-18
-1.48158e-18
-1.46443e-18
-1.48645e-18
-1.45966e-18
-1.47339e-18
-1.47334e-18
-1.48292e-18
-1.47649e-18
-1.49607e-18
-1.49969e-18
-1.51978e-18
-1.50275e-18
-1.51438e-18
-1.50076e-18
-1.51258e-18
-1.50525e-18
-1.50848e-18
-1.49958e-18
-1.50286e-18
-1.49832e-18
-1.50331e-18
-1.50412e-18
-1.51308e-18
-1.51547e-18
-1.5082e-18
-1.50866e-18
-1.50186e-18
-1.50343e-18
-1.51125e-18
-1.50669e-18
-1.49765e-18
-1.50047e-18
-1.50813e-18
-1.49467e-18
-1.50011e-18
-1.50199e-18
-1.51411e-18
-1.49476e-18
-1.51663e-18
-1.4928e-18
-1.4753e-18
-1.47077e-18
-1.47663e-18
-1.47339e-18
-1.47348e-18
-1.47064e-18
-1.4745e-18
-1.46914e-18
-1.48506e-18
-1.46734e-18
-1.49024e-18
-1.46766e-18
-1.48505e-18
-1.46289e-18
-1.47425e-18
-1.47293e-18
-1.48212e-18
-1.47623e-18
-1.4985e-18
-1.49812e-18
-1.51551e-18
-1.50452e-18
-1.51045e-18
-1.49864e-18
-1.51238e-18
-1.50591e-18
-1.50818e-18
-1.49822e-18
-1.50165e-18
-1.50328e-18
-1.50803e-18
-1.49764e-18
-1.51368e-18
-1.51185e-18
-1.5132e-18
-1.51123e-18
-1.50193e-18
-1.5016e-18
-1.50594e-18
-1.50149e-18
-1.50968e-18
-1.49928e-18
-1.50389e-18
-1.49585e-18
-1.50202e-18
-1.49991e-18
-1.50998e-18
-1.49584e-18
-1.51269e-18
-1.48826e-18
-1.48101e-18
-1.4745e-18
-1.48056e-18
-1.48541e-18
-1.47485e-18
-1.4697e-18
-1.47913e-18
-1.46694e-18
-1.48671e-18
-1.46278e-18
-1.48183e-18
-1.46948e-18
-1.47903e-18
-1.46433e-18
-1.47292e-18
-1.47797e-18
-1.48383e-18
-1.47986e-18
-1.49836e-18
-1.4959e-18
-1.51209e-18
-1.50608e-18
-1.5152e-18
-1.49905e-18
-1.51335e-18
-1.50085e-18
-1.50896e-18
-1.4958e-18
-1.50141e-18
-1.50066e-18
-1.51239e-18
-1.49608e-18
-1.51168e-18
-1.51057e-18
-1.51306e-18
-1.51384e-18
-1.50653e-18
-1.50667e-18
-1.50678e-18
-1.50679e-18
-1.51441e-18
-1.49703e-18
-1.50121e-18
-1.49142e-18
-1.50262e-18
-1.4869e-18
-1.49763e-18
-1.49213e-18
-1.51233e-18
-1.48916e-18
-1.4728e-18
-1.47541e-18
-1.47782e-18
-1.49163e-18
-1.47884e-18
-1.47041e-18
-1.4772e-18
-1.46131e-18
-1.48384e-18
-1.46822e-18
-1.48517e-18
-1.4647e-18
-1.4779e-18
-1.46276e-18
-1.47302e-18
-1.47881e-18
-1.47783e-18
-1.48089e-18
-1.49478e-18
-1.49673e-18
-1.50759e-18
-1.51205e-18
-1.51878e-18
-1.50282e-18
-1.50999e-18
-1.49748e-18
-1.50582e-18
-1.49827e-18
-1.49848e-18
-1.50025e-18
-1.50779e-18
-1.50199e-18
-1.51356e-18
-1.51477e-18
-1.50974e-18
-1.51193e-18
-1.51052e-18
-1.50939e-18
-1.5126e-18
-1.49926e-18
-1.51346e-18
-1.49459e-18
-1.50499e-18
-1.49132e-18
-1.50168e-18
-1.48981e-18
-1.4905e-18
-1.49487e-18
-1.50846e-18
-1.50099e-18
-1.47629e-18
-1.47631e-18
-1.47371e-18
-1.47882e-18
-1.48053e-18
-1.47273e-18
-1.47993e-18
-1.47173e-18
-1.48316e-18
-1.4697e-18
-1.48617e-18
-1.46903e-18
-1.48738e-18
-1.4632e-18
-1.47586e-18
-1.47656e-18
-1.48046e-18
-1.48089e-18
-1.49501e-18
-1.49609e-18
-1.50685e-18
-1.50656e-18
-1.51439e-18
-1.50628e-18
-1.50963e-18
-1.49938e-18
-1.50289e-18
-1.50107e-18
-1.50103e-18
-1.50295e-18
-1.50431e-18
-1.50356e-18
-1.51101e-18
-1.51491e-18
-1.5109e-18
-1.51144e-18
-1.51131e-18
-1.50351e-18
-1.50823e-18
-1.50093e-18
-1.50708e-18
-1.49811e-18
-1.50276e-18
-1.48702e-18
-1.49835e-18
-1.49256e-18
-1.5061e-18
-1.49963e-18
-1.5044e-18
-1.49618e-18
-1.48015e-18
-1.47936e-18
-1.47647e-18
-1.47482e-18
-1.47925e-18
-1.46968e-18
-1.47755e-18
-1.46485e-18
-1.48579e-18
-1.47349e-18
-1.48309e-18
-1.47735e-18
-1.48523e-18
-1.4646e-18
-1.48099e-18
-1.4752e-18
-1.48175e-18
-1.47985e-18
-1.49759e-18
-1.49179e-18
-1.51026e-18
-1.50376e-18
-1.51201e-18
-1.50375e-18
-1.51075e-18
-1.49977e-18
-1.49962e-18
-1.49934e-18
-1.50172e-18
-1.50071e-18
-1.50269e-18
-1.50102e-18
-1.5112e-18
-1.51557e-18
-1.51289e-18
-1.50919e-18
-1.50951e-18
-1.50598e-18
-1.50667e-18
-1.50463e-18
-1.50357e-18
-1.50056e-18
-1.51468e-18
-1.49119e-18
-1.49825e-18
-1.49295e-18
-1.50535e-18
-1.49993e-18
-1.50391e-18
-1.49047e-18
-1.47901e-18
-1.48363e-18
-1.48002e-18
-1.46746e-18
-1.47811e-18
-1.47036e-18
-1.47199e-18
-1.47018e-18
-1.48697e-18
-1.46841e-18
-1.48626e-18
-1.47674e-18
-1.47601e-18
-1.46387e-18
-1.48234e-18
-1.47767e-18
-1.48617e-18
-1.47908e-18
-1.49466e-18
-1.49215e-18
-1.50947e-18
-1.50481e-18
-1.51204e-18
-1.50199e-18
-1.50763e-18
-1.49961e-18
-1.50212e-18
-1.49893e-18
-1.50112e-18
-1.49978e-18
-1.50641e-18
-1.50014e-18
-1.51408e-18
-1.5141e-18
-1.51092e-18
-1.50519e-18
-1.50734e-18
-1.51271e-18
-1.50734e-18
-1.50048e-18
-1.51478e-18
-1.50153e-18
-1.51177e-18
-1.4963e-18
-1.49953e-18
-1.49318e-18
-1.51194e-18
-1.49592e-18
-1.50105e-18
-1.48793e-18
-1.46803e-18
-1.47882e-18
-1.47201e-18
-1.465e-18
-1.47548e-18
-1.47514e-18
-1.47873e-18
-1.47526e-18
-1.48549e-18
-1.46774e-18
-1.49388e-18
-1.47308e-18
-1.47388e-18
-1.4663e-18
-1.48776e-18
-1.47998e-18
-1.48851e-18
-1.48026e-18
-1.49195e-18
-1.49794e-18
-1.50848e-18
-1.5053e-18
-1.51181e-18
-1.5001e-18
-1.51034e-18
-1.49934e-18
-1.50291e-18
-1.50108e-18
-1.501e-18
-1.5014e-18
-1.5024e-18
-1.50514e-18
-1.51316e-18
-1.51269e-18
-1.5103e-18
-1.49989e-18
-1.50517e-18
-1.51645e-18
-1.50971e-18
-1.49833e-18
-1.51503e-18
-1.50227e-18
-1.51334e-18
-1.49065e-18
-1.49501e-18
-1.4957e-18
-1.51207e-18
-1.49925e-18
-1.50831e-18
-1.49832e-18
-1.47885e-18
-1.48277e-18
-1.4637e-18
-1.47513e-18
-1.46927e-18
-1.47197e-18
-1.47591e-18
-1.46853e-18
-1.48094e-18
-1.47129e-18
-1.48254e-18
-1.46508e-18
-1.48491e-18
-1.45957e-18
-1.48067e-18
-1.47956e-18
-1.48589e-18
-1.48038e-18
-1.49275e-18
-1.49636e-18
-1.50848e-18
-1.50739e-18
-1.51048e-18
-1.49803e-18
-1.50808e-18
-1.49937e-18
-1.50202e-18
-1.49976e-18
-1.49916e-18
-1.50469e-18
-1.50441e-18
-1.50575e-18
-1.51531e-18
-1.51258e-18
-1.51569e-18
-1.50764e-18
-1.51521e-18
-1.50387e-18
-1.5167e-18
-1.51062e-18
-1.51178e-18
-1.50363e-18
-1.50812e-18
-1.49438e-18
-1.49844e-18
-1.50175e-18
-1.50466e-18
-1.5097e-18
-1.5091e-18
-1.49272e-18
-1.4847e-18
-1.47885e-18
-1.47494e-18
-1.4808e-18
-1.47079e-18
-1.47331e-18
-1.47241e-18
-1.46705e-18
-1.47952e-18
-1.47255e-18
-1.48894e-18
-1.46888e-18
-1.48912e-18
-1.46872e-18
-1.47681e-18
-1.47867e-18
-1.48299e-18
-1.48244e-18
-1.49319e-18
-1.49472e-18
-1.50902e-18
-1.50185e-18
-1.50973e-18
-1.50084e-18
-1.50772e-18
-1.49929e-18
-1.50204e-18
-1.50055e-18
-1.50402e-18
-1.50084e-18
-1.50763e-18
-1.50503e-18
-1.51335e-18
-1.5141e-18
-1.51818e-18
-1.5068e-18
-1.51447e-18
-1.49832e-18
-1.51879e-18
-1.50617e-18
-1.51318e-18
-1.50403e-18
-1.50396e-18
-1.4975e-18
-1.50181e-18
-1.4988e-18
-1.50137e-18
-1.50118e-18
-1.51119e-18
-1.49099e-18
-1.48434e-18
-1.48559e-18
-1.48238e-18
-1.47978e-18
-1.47538e-18
-1.46627e-18
-1.463e-18
-1.46343e-18
-1.48595e-18
-1.47279e-18
-1.48134e-18
-1.47105e-18
-1.4826e-18
-1.47218e-18
-1.48166e-18
-1.47654e-18
-1.47977e-18
-1.48148e-18
-1.49619e-18
-1.49383e-18
-1.50975e-18
-1.50289e-18
-1.51369e-18
-1.50098e-18
-1.50956e-18
-1.49911e-18
-1.50168e-18
-1.49838e-18
-1.50473e-18
-1.49986e-18
-1.50633e-18
-1.50132e-18
-1.51726e-18
-1.51515e-18
-1.52076e-18
-1.50253e-18
-1.51558e-18
-1.50396e-18
-1.51868e-18
-1.50365e-18
-1.51104e-18
-1.4975e-18
-1.50071e-18
-1.49888e-18
-1.51038e-18
-1.49147e-18
-1.50688e-18
-1.49509e-18
-1.50876e-18
-1.48706e-18
-1.48138e-18
-1.48644e-18
-1.48115e-18
-1.4706e-18
-1.47719e-18
-1.46756e-18
-1.46908e-18
-1.46128e-18
-1.48223e-18
-1.47484e-18
-1.48e-18
-1.47102e-18
-1.48439e-18
-1.47542e-18
-1.48172e-18
-1.47478e-18
-1.48998e-18
-1.47515e-18
-1.49441e-18
-1.49319e-18
-1.50781e-18
-1.50335e-18
-1.51332e-18
-1.50012e-18
-1.50706e-18
-1.49882e-18
-1.50097e-18
-1.49738e-18
-1.50104e-18
-1.4992e-18
-1.50597e-18
-1.50481e-18
-1.51964e-18
-1.50641e-18
-1.52229e-18
-1.49968e-18
-1.50882e-18
-1.50729e-18
-1.51641e-18
-1.50299e-18
-1.50831e-18
-1.50165e-18
-1.50784e-18
-1.49383e-18
-1.50332e-18
-1.49223e-18
-1.50899e-18
-1.50055e-18
-1.50236e-18
-1.48077e-18
-1.48051e-18
-1.47617e-18
-1.47065e-18
-1.47215e-18
-1.47067e-18
-1.47553e-18
-1.46674e-18
-1.48114e-18
-1.47911e-18
-1.48705e-18
-1.47081e-18
-1.48278e-18
-1.46938e-18
-1.48427e-18
-1.47644e-18
-1.48911e-18
-1.47982e-18
-1.49762e-18
-1.49644e-18
-1.51007e-18
-1.50408e-18
-1.51435e-18
-1.50151e-18
-1.50593e-18
-1.49886e-18
-1.50071e-18
-1.49634e-18
-1.49865e-18
-1.49608e-18
-1.50248e-18
-1.50571e-18
-1.52022e-18
-1.5123e-18
-1.51933e-18
-1.50178e-18
-1.51176e-18
-1.50772e-18
-1.5179e-18
-1.50533e-18
-1.50494e-18
-1.50486e-18
-1.50761e-18
-1.49178e-18
-1.50078e-18
-1.49777e-18
-1.51087e-18
-1.50278e-18
-1.47836e-18
-1.47769e-18
-1.4799e-18
-1.48121e-18
-1.47101e-18
-1.46951e-18
-1.4751e-18
-1.46811e-18
-1.47942e-18
-1.47554e-18
-1.48875e-18
-1.47077e-18
-1.48838e-18
-1.46984e-18
-1.48657e-18
-1.48222e-18
-1.48687e-18
-1.48341e-18
-1.4974e-18
-1.49794e-18
-1.51127e-18
-1.50349e-18
-1.5124e-18
-1.50275e-18
-1.50689e-18
-1.49881e-18
-1.50012e-18
-1.49367e-18
-1.49635e-18
-1.49531e-18
-1.50025e-18
-1.50729e-18
-1.51429e-18
-1.51798e-18
-1.51584e-18
-1.50675e-18
-1.51126e-18
-1.50298e-18
-1.51567e-18
-1.51333e-18
-1.50816e-18
-1.50453e-18
-1.50714e-18
-1.4892e-18
-1.49989e-18
-1.49668e-18
-1.50193e-18
-1.48991e-18
-1.47564e-18
-1.4773e-18
-1.47944e-18
-1.46835e-18
-1.47055e-18
-1.46652e-18
-1.46706e-18
-1.48577e-18
-1.48099e-18
-1.4823e-18
-1.47009e-18
-1.49072e-18
-1.46582e-18
-1.48861e-18
-1.48322e-18
-1.48781e-18
-1.48141e-18
-1.49728e-18
-1.49506e-18
-1.50952e-18
-1.50394e-18
-1.51024e-18
-1.50191e-18
-1.50948e-18
-1.49986e-18
-1.4996e-18
-1.49525e-18
-1.49915e-18
-1.49721e-18
-1.5023e-18
-1.50421e-18
-1.51428e-18
-1.51282e-18
-1.51476e-18
-1.50271e-18
-1.51584e-18
-1.50504e-18
-1.51662e-18
-1.51743e-18
-1.50261e-18
-1.49699e-18
-1.50644e-18
-1.50221e-18
-1.50397e-18
-1.50037e-18
-1.48138e-18
-1.47463e-18
-1.46857e-18
-1.47705e-18
-1.47076e-18
-1.46575e-18
-1.47206e-18
-1.46517e-18
-1.47584e-18
-1.47402e-18
-1.48278e-18
-1.46844e-18
-1.48735e-18
-1.47243e-18
-1.48478e-18
-1.47808e-18
-1.48996e-18
-1.47775e-18
-1.49883e-18
-1.49477e-18
-1.5068e-18
-1.50697e-18
-1.50899e-18
-1.50096e-18
-1.50796e-18
-1.50197e-18
-1.49988e-18
-1.49445e-18
-1.49889e-18
-1.49903e-18
-1.50434e-18
-1.50149e-18
-1.51625e-18
-1.51076e-18
-1.51797e-18
-1.50156e-18
-1.50921e-18
-1.51291e-18
-1.51877e-18
-1.50923e-18
-1.51161e-18
-1.50654e-18
-1.50659e-18
-1.49653e-18
-1.50581e-18
-1.47416e-18
-1.47114e-18
-1.46703e-18
-1.47229e-18
-1.46809e-18
-1.45229e-18
-1.47505e-18
-1.46502e-18
-1.46946e-18
-1.47625e-18
-1.47864e-18
-1.4688e-18
-1.48907e-18
-1.47282e-18
-1.48449e-18
-1.47884e-18
-1.49001e-18
-1.481e-18
-1.50016e-18
-1.49511e-18
-1.50572e-18
-1.50356e-18
-1.51309e-18
-1.50142e-18
-1.50881e-18
-1.4995e-18
-1.49906e-18
-1.49171e-18
-1.4998e-18
-1.50452e-18
-1.50679e-18
-1.50431e-18
-1.5161e-18
-1.51534e-18
-1.51831e-18
-1.50398e-18
-1.50865e-18
-1.50476e-18
-1.51104e-18
-1.51101e-18
-1.51318e-18
-1.51298e-18
-1.50717e-18
-1.48828e-18
-1.51758e-18
-1.47885e-18
-1.4813e-18
-1.47772e-18
-1.47752e-18
-1.46555e-18
-1.46045e-18
-1.475e-18
-1.46548e-18
-1.47392e-18
-1.48459e-18
-1.48114e-18
-1.46497e-18
-1.48919e-18
-1.46864e-18
-1.48177e-18
-1.48058e-18
-1.4891e-18
-1.48253e-18
-1.50017e-18
-1.49754e-18
-1.50585e-18
-1.49976e-18
-1.51285e-18
-1.50285e-18
-1.50608e-18
-1.49776e-18
-1.49829e-18
-1.49407e-18
-1.50366e-18
-1.50368e-18
-1.5026e-18
-1.50513e-18
-1.51604e-18
-1.51689e-18
-1.51439e-18
-1.50623e-18
-1.51434e-18
-1.50211e-18
-1.51507e-18
-1.50732e-18
-1.5043e-18
-1.50787e-18
-1.50782e-18
-1.48913e-18
-1.50999e-18
-1.48004e-18
-1.48002e-18
-1.48097e-18
-1.48205e-18
-1.46786e-18
-1.46278e-18
-1.47091e-18
-1.47039e-18
-1.48287e-18
-1.48191e-18
-1.47589e-18
-1.47445e-18
-1.48783e-18
-1.47682e-18
-1.48529e-18
-1.47539e-18
-1.49407e-18
-1.48568e-18
-1.49923e-18
-1.49334e-18
-1.50246e-18
-1.50422e-18
-1.51096e-18
-1.50488e-18
-1.50457e-18
-1.49779e-18
-1.49794e-18
-1.49774e-18
-1.50172e-18
-1.50503e-18
-1.50497e-18
-1.50119e-18
-1.51244e-18
-1.51519e-18
-1.51596e-18
-1.50295e-18
-1.50934e-18
-1.50506e-18
-1.51489e-18
-1.51041e-18
-1.50155e-18
-1.499e-18
-1.50436e-18
-1.49355e-18
-1.50944e-18
-1.48025e-18
-1.47708e-18
-1.47438e-18
-1.47302e-18
-1.47179e-18
-1.46396e-18
-1.46385e-18
-1.46755e-18
-1.48171e-18
-1.47931e-18
-1.48254e-18
-1.4725e-18
-1.4919e-18
-1.47736e-18
-1.48675e-18
-1.47364e-18
-1.49419e-18
-1.48578e-18
-1.49773e-18
-1.49089e-18
-1.50274e-18
-1.50288e-18
-1.50742e-18
-1.50257e-18
-1.50419e-18
-1.50098e-18
-1.49759e-18
-1.49597e-18
-1.4984e-18
-1.50141e-18
-1.50555e-18
-1.49935e-18
-1.51073e-18
-1.51354e-18
-1.51195e-18
-1.50277e-18
-1.51047e-18