/*--------------------------------*- C++ -*----------------------------------*\
  =========                 |
  \\      /  F ield         | OpenFOAM: The Open Source CFD Toolbox
   \\    /   O peration     | Website:  https://openfoam.org
    \\  /    A nd           | Version:  7
     \\/     M anipulation  |
\*---------------------------------------------------------------------------*/
FoamFile
{
    version     2.0;
    format      ascii;
    class       volScalarField;
    location    "72000";
    object      nu;
}
// * * * * * * * * * * * * * * * * * * * * * * * * * * * * * * * * * * * * * //

dimensions      [0 2 -1 0 0 0 0];

internalField   nonuniform List<scalar> 
4825
(
4.8866e-06
4.92843e-06
4.79575e-06
4.83577e-06
4.87276e-06
4.90916e-06
4.94522e-06
4.70802e-06
4.74648e-06
4.78196e-06
4.81688e-06
4.8513e-06
4.6229e-06
4.66003e-06
4.69418e-06
4.72784e-06
4.76086e-06
4.53999e-06
4.57593e-06
4.60895e-06
4.64151e-06
4.67333e-06
4.45897e-06
4.49381e-06
4.52586e-06
4.55743e-06
4.58821e-06
4.37963e-06
4.41344e-06
4.44463e-06
4.47527e-06
4.50514e-06
4.30184e-06
4.33471e-06
4.36509e-06
4.39482e-06
4.4239e-06
4.22556e-06
4.25755e-06
4.28712e-06
4.316e-06
4.34436e-06
4.15073e-06
4.18186e-06
4.21066e-06
4.23875e-06
4.26642e-06
4.07734e-06
4.1076e-06
4.13565e-06
4.16303e-06
4.19001e-06
4.00537e-06
4.03475e-06
4.06209e-06
4.08878e-06
4.11509e-06
3.93477e-06
3.96328e-06
3.98993e-06
4.01598e-06
4.0416e-06
3.86548e-06
3.89318e-06
3.91915e-06
3.94455e-06
3.79748e-06
3.8244e-06
3.84969e-06
3.87446e-06
3.73073e-06
3.7569e-06
3.78153e-06
3.80566e-06
3.66519e-06
3.69064e-06
3.71462e-06
3.60082e-06
3.62558e-06
3.64892e-06
3.53761e-06
3.5617e-06
3.47551e-06
3.49895e-06
3.4145e-06
3.4373e-06
3.35455e-06
3.37672e-06
3.29562e-06
3.31719e-06
3.23769e-06
7.33129e-06
7.5006e-06
7.66981e-06
7.84675e-06
8.03151e-06
8.22093e-06
8.41579e-06
8.61291e-06
8.80929e-06
8.99968e-06
9.18753e-06
9.37083e-06
9.53793e-06
9.69829e-06
9.8526e-06
9.99892e-06
1.01325e-05
1.02548e-05
1.03655e-05
1.04636e-05
7.01251e-06
7.15548e-06
7.29765e-06
7.44628e-06
7.60143e-06
7.7611e-06
7.92726e-06
8.09633e-06
8.26647e-06
8.43858e-06
8.60912e-06
8.77565e-06
8.93235e-06
9.08292e-06
9.22779e-06
9.36464e-06
9.48485e-06
9.59357e-06
9.69155e-06
9.77814e-06
6.74086e-06
6.86292e-06
6.98331e-06
7.10867e-06
7.23884e-06
7.37295e-06
7.51223e-06
7.65428e-06
7.79803e-06
7.94496e-06
8.09113e-06
8.23433e-06
8.37547e-06
8.51188e-06
8.64323e-06
8.76735e-06
8.87942e-06
8.98151e-06
9.07343e-06
9.15452e-06
6.50616e-06
6.61191e-06
6.71521e-06
6.82217e-06
6.9324e-06
7.0458e-06
7.16269e-06
7.28183e-06
7.4026e-06
7.52556e-06
7.64819e-06
7.76866e-06
7.88914e-06
8.00602e-06
8.11847e-06
8.22503e-06
8.32522e-06
8.41753e-06
8.50077e-06
8.57419e-06
6.30025e-06
6.39325e-06
6.48327e-06
6.5759e-06
6.67061e-06
6.76767e-06
6.86686e-06
6.96764e-06
7.06962e-06
7.17254e-06
7.27514e-06
7.37614e-06
7.47711e-06
7.57521e-06
7.66943e-06
7.75897e-06
7.84418e-06
7.92295e-06
7.99417e-06
8.05702e-06
6.11683e-06
6.19982e-06
6.27941e-06
6.36089e-06
6.44367e-06
6.52797e-06
6.6134e-06
6.69981e-06
6.7869e-06
6.87397e-06
6.9605e-06
7.04582e-06
7.13043e-06
7.21264e-06
7.29143e-06
7.36628e-06
7.43757e-06
7.5034e-06
7.56307e-06
7.61564e-06
5.95109e-06
6.02621e-06
6.09751e-06
6.17024e-06
6.24375e-06
6.31812e-06
6.39286e-06
6.4681e-06
6.54351e-06
6.61831e-06
6.69236e-06
6.76543e-06
6.83702e-06
6.90652e-06
6.97297e-06
7.03582e-06
7.09552e-06
7.15052e-06
7.20041e-06
7.24417e-06
5.7995e-06
5.86833e-06
5.93297e-06
5.99873e-06
6.0649e-06
6.13143e-06
6.19789e-06
6.26438e-06
6.33066e-06
6.39601e-06
6.46048e-06
6.52402e-06
6.58556e-06
6.64512e-06
6.70189e-06
6.7553e-06
6.80579e-06
6.85221e-06
6.89423e-06
6.93094e-06
6.96257e-06
6.98784e-06
7.00713e-06
7.01992e-06
7.02606e-06
7.02588e-06
7.01891e-06
7.00587e-06
6.98639e-06
6.96085e-06
6.92972e-06
6.89317e-06
6.85103e-06
6.80423e-06
6.75384e-06
5.65948e-06
5.72311e-06
5.78237e-06
5.84245e-06
5.90269e-06
5.96293e-06
6.02293e-06
6.08251e-06
6.14161e-06
6.19968e-06
6.25671e-06
6.31278e-06
6.36664e-06
6.41846e-06
6.46767e-06
6.51383e-06
6.55716e-06
6.5969e-06
6.63271e-06
6.664e-06
6.69094e-06
6.71246e-06
6.72881e-06
6.73977e-06
6.74484e-06
6.74467e-06
6.73876e-06
6.72769e-06
6.71106e-06
6.68929e-06
6.6628e-06
6.63156e-06
6.59559e-06
6.55555e-06
6.51229e-06
6.4659e-06
6.41663e-06
5.52909e-06
5.5883e-06
5.64314e-06
5.6985e-06
5.7539e-06
5.80897e-06
5.86381e-06
5.91788e-06
5.97128e-06
6.0237e-06
6.07485e-06
6.12492e-06
6.17288e-06
6.21869e-06
6.262e-06
6.30263e-06
6.34041e-06
6.37497e-06
6.40594e-06
6.43309e-06
6.45628e-06
6.47493e-06
6.48907e-06
6.4986e-06
6.50287e-06
6.50268e-06
6.49763e-06
6.48799e-06
6.47364e-06
6.45479e-06
6.4318e-06
6.40469e-06
6.37351e-06
6.33878e-06
6.30093e-06
6.26022e-06
6.21661e-06
6.17099e-06
5.40685e-06
5.46224e-06
5.51337e-06
5.5648e-06
5.61611e-06
5.66691e-06
5.71747e-06
5.76709e-06
5.8159e-06
5.86381e-06
5.91024e-06
5.95542e-06
5.99876e-06
6.03987e-06
6.07857e-06
6.11489e-06
6.14834e-06
6.1789e-06
6.20615e-06
6.23006e-06
6.25027e-06
6.2667e-06
6.27917e-06
6.28755e-06
6.29125e-06
6.29105e-06
6.28671e-06
6.27811e-06
6.26561e-06
6.249e-06
6.22867e-06
6.20475e-06
6.1773e-06
6.14671e-06
6.11304e-06
6.07677e-06
6.03765e-06
5.9967e-06
5.95346e-06
5.90871e-06
5.29166e-06
5.34369e-06
5.39162e-06
5.43974e-06
5.48755e-06
5.53478e-06
5.5817e-06
5.62767e-06
5.67269e-06
5.71687e-06
5.75945e-06
5.80058e-06
5.84022e-06
5.8776e-06
5.91266e-06
5.94552e-06
5.97559e-06
6.003e-06
6.02741e-06
6.04873e-06
6.06656e-06
6.08123e-06
6.09241e-06
6.09987e-06
6.10321e-06
6.10301e-06
6.0992e-06
6.09145e-06
6.08043e-06
6.06554e-06
6.04728e-06
6.02583e-06
6.0013e-06
5.97392e-06
5.9436e-06
5.91081e-06
5.87535e-06
5.83808e-06
5.79869e-06
5.75788e-06
5.71563e-06
5.67174e-06
5.18266e-06
5.23168e-06
5.27684e-06
5.32205e-06
5.36687e-06
5.41106e-06
5.45483e-06
5.49777e-06
5.53959e-06
5.58056e-06
5.61992e-06
5.65774e-06
5.69428e-06
5.72867e-06
5.76077e-06
5.79077e-06
5.8182e-06
5.84311e-06
5.86528e-06
5.88449e-06
5.90044e-06
5.91367e-06
5.9238e-06
5.93053e-06
5.93364e-06
5.93349e-06
5.93004e-06
5.92302e-06
5.9132e-06
5.89966e-06
5.88305e-06
5.86353e-06
5.84136e-06
5.81645e-06
5.78889e-06
5.75885e-06
5.72645e-06
5.69213e-06
5.65596e-06
5.61835e-06
5.57928e-06
5.53852e-06
5.4968e-06
5.45434e-06
5.41094e-06
5.07914e-06
5.12547e-06
5.1682e-06
5.2108e-06
5.25304e-06
5.2946e-06
5.33561e-06
5.37594e-06
5.41503e-06
5.4532e-06
5.4898e-06
5.52488e-06
5.55875e-06
5.59065e-06
5.62032e-06
5.64793e-06
5.67324e-06
5.69614e-06
5.71649e-06
5.73393e-06
5.74841e-06
5.76043e-06
5.76968e-06
5.77582e-06
5.77878e-06
5.77869e-06
5.7755e-06
5.76913e-06
5.76025e-06
5.74787e-06
5.73259e-06
5.7146e-06
5.69433e-06
5.67139e-06
5.64612e-06
5.61836e-06
5.58854e-06
5.55667e-06
5.52323e-06
5.48826e-06
5.4519e-06
5.41384e-06
5.37484e-06
5.33513e-06
5.29451e-06
5.25324e-06
5.21113e-06
4.98046e-06
5.02442e-06
5.06501e-06
5.10525e-06
5.14522e-06
5.18446e-06
5.22306e-06
5.26102e-06
5.29777e-06
5.33348e-06
5.36768e-06
5.40048e-06
5.43204e-06
5.46178e-06
5.48941e-06
5.51503e-06
5.53852e-06
5.55978e-06
5.57859e-06
5.59457e-06
5.60787e-06
5.61889e-06
5.62735e-06
5.63298e-06
5.63583e-06
5.63578e-06
5.63286e-06
5.62706e-06
5.61887e-06
5.60753e-06
5.59339e-06
5.57668e-06
5.55792e-06
5.53661e-06
5.51327e-06
5.48743e-06
5.45981e-06
5.43007e-06
5.39892e-06
5.36624e-06
5.33218e-06
5.29653e-06
5.25986e-06
5.22251e-06
5.18435e-06
5.14545e-06
5.10564e-06
5.06552e-06
5.02525e-06
4.98115e-06
4.88604e-06
4.92792e-06
4.96659e-06
5.00477e-06
5.04267e-06
5.07985e-06
5.11633e-06
5.15215e-06
5.18686e-06
5.22041e-06
5.25252e-06
5.28337e-06
5.3129e-06
5.34075e-06
5.36659e-06
5.39054e-06
5.41244e-06
5.43231e-06
5.44978e-06
5.46461e-06
5.47691e-06
5.48712e-06
5.49481e-06
5.49999e-06
5.50275e-06
5.50274e-06
5.50007e-06
5.49481e-06
5.48716e-06
5.47673e-06
5.46354e-06
5.44795e-06
5.43041e-06
5.41052e-06
5.38877e-06
5.36464e-06
5.33887e-06
5.31106e-06
5.28189e-06
5.25118e-06
5.2191e-06
5.18563e-06
5.15102e-06
5.11575e-06
5.07972e-06
5.04288e-06
5.00509e-06
4.967e-06
4.92866e-06
4.88668e-06
4.7953e-06
4.83536e-06
4.87233e-06
4.90874e-06
4.94478e-06
4.98012e-06
5.01472e-06
5.04861e-06
5.08151e-06
5.11317e-06
5.14345e-06
5.1726e-06
5.20035e-06
5.2265e-06
5.25078e-06
5.27326e-06
5.29379e-06
5.31243e-06
5.32872e-06
5.34266e-06
5.35408e-06
5.3636e-06
5.37058e-06
5.37538e-06
5.37802e-06
5.37809e-06
5.37564e-06
5.37086e-06
5.36367e-06
5.35401e-06
5.34164e-06
5.32704e-06
5.31052e-06
5.29192e-06
5.27147e-06
5.24888e-06
5.22468e-06
5.19863e-06
5.17122e-06
5.14221e-06
5.11186e-06
5.08036e-06
5.04761e-06
5.01419e-06
4.97996e-06
4.94492e-06
4.90891e-06
4.87256e-06
4.8359e-06
4.79585e-06
4.70769e-06
4.74619e-06
4.78165e-06
4.81656e-06
4.85097e-06
4.88467e-06
4.91761e-06
4.94981e-06
4.98109e-06
5.01105e-06
5.03973e-06
5.06736e-06
5.09359e-06
5.1182e-06
5.14116e-06
5.16227e-06
5.18163e-06
5.19914e-06
5.21438e-06
5.22758e-06
5.2383e-06
5.24717e-06
5.25354e-06
5.25801e-06
5.2605e-06
5.26067e-06
5.2584e-06
5.25407e-06
5.24729e-06
5.23824e-06
5.2266e-06
5.2129e-06
5.1973e-06
5.17984e-06
5.16046e-06
5.13926e-06
5.11643e-06
5.09195e-06
5.06608e-06
5.03862e-06
5.00982e-06
4.98001e-06
4.94897e-06
4.91716e-06
4.88447e-06
4.85099e-06
4.81651e-06
4.78165e-06
4.74646e-06
4.70811e-06
4.62271e-06
4.65988e-06
4.69401e-06
4.72765e-06
4.76066e-06
4.79294e-06
4.8244e-06
4.85514e-06
4.88499e-06
4.91345e-06
4.94074e-06
4.96701e-06
4.99193e-06
5.01518e-06
5.03699e-06
5.05685e-06
5.07516e-06
5.09164e-06
5.10598e-06
5.1185e-06
5.12866e-06
5.13691e-06
5.1428e-06
5.14698e-06
5.14933e-06
5.14954e-06
5.14742e-06
5.14351e-06
5.13711e-06
5.12855e-06
5.11758e-06
5.10471e-06
5.08994e-06
5.07347e-06
5.05503e-06
5.03504e-06
5.01341e-06
4.99029e-06
4.96579e-06
4.93976e-06
4.91236e-06
4.88396e-06
4.85448e-06
4.82404e-06
4.79268e-06
4.76052e-06
4.72736e-06
4.69376e-06
4.65982e-06
4.62296e-06
4.53991e-06
4.5759e-06
4.6089e-06
4.64145e-06
4.67326e-06
4.70435e-06
4.73455e-06
4.76402e-06
4.79259e-06
4.81979e-06
4.8459e-06
4.87096e-06
4.89473e-06
4.91678e-06
4.93757e-06
4.95637e-06
4.97371e-06
4.98926e-06
5.00283e-06
5.0147e-06
5.0244e-06
5.03207e-06
5.03759e-06
5.04152e-06
5.04377e-06
5.04395e-06
5.04198e-06
5.03842e-06
5.03239e-06
5.02423e-06
5.0139e-06
5.00175e-06
4.98774e-06
4.97211e-06
4.95453e-06
4.93555e-06
4.91501e-06
4.89303e-06
4.86976e-06
4.84501e-06
4.81886e-06
4.79166e-06
4.76353e-06
4.73425e-06
4.70404e-06
4.67299e-06
4.64094e-06
4.60843e-06
4.57558e-06
4.54001e-06
4.45899e-06
4.49388e-06
4.52593e-06
4.55748e-06
4.58825e-06
4.61837e-06
4.64753e-06
4.67587e-06
4.70335e-06
4.72951e-06
4.75462e-06
4.77864e-06
4.80135e-06
4.82239e-06
4.84225e-06
4.8602e-06
4.87666e-06
4.89137e-06
4.90433e-06
4.91555e-06
4.92483e-06
4.93203e-06
4.93724e-06
4.94095e-06
4.94313e-06
4.94324e-06
4.94141e-06
4.93811e-06
4.93245e-06
4.92464e-06
4.91491e-06
4.90336e-06
4.89002e-06
4.87511e-06
4.85831e-06
4.84018e-06
4.82061e-06
4.79961e-06
4.77741e-06
4.75378e-06
4.72871e-06
4.70256e-06
4.67555e-06
4.64727e-06
4.61805e-06
4.58792e-06
4.55684e-06
4.5253e-06
4.49339e-06
4.45893e-06
4.37974e-06
4.41359e-06
4.44479e-06
4.47542e-06
4.50527e-06
4.53455e-06
4.56286e-06
4.59019e-06
4.61676e-06
4.64203e-06
4.66631e-06
4.68946e-06
4.71121e-06
4.73143e-06
4.75044e-06
4.7677e-06
4.78337e-06
4.79736e-06
4.80982e-06
4.82046e-06
4.82933e-06
4.83615e-06
4.84113e-06
4.84462e-06
4.84671e-06
4.8468e-06
4.84511e-06
4.84197e-06
4.83662e-06
4.82919e-06
4.81998e-06
4.8089e-06
4.79616e-06
4.78184e-06
4.76575e-06
4.74837e-06
4.72962e-06
4.70948e-06
4.68816e-06
4.66551e-06
4.64137e-06
4.61612e-06
4.59004e-06
4.56262e-06
4.53428e-06
4.50493e-06
4.47472e-06
4.44407e-06
4.413e-06
4.37952e-06
4.30202e-06
4.33493e-06
4.36532e-06
4.39504e-06
4.42411e-06
4.45259e-06
4.48013e-06
4.50661e-06
4.53235e-06
4.55687e-06
4.58043e-06
4.60286e-06
4.62378e-06
4.64334e-06
4.66156e-06
4.67825e-06
4.69325e-06
4.70664e-06
4.71866e-06
4.72883e-06
4.7373e-06
4.74382e-06
4.74862e-06
4.75194e-06
4.7539e-06
4.75399e-06
4.75246e-06
4.74938e-06
4.74429e-06
4.73728e-06
4.72845e-06
4.71783e-06
4.70557e-06
4.69174e-06
4.67627e-06
4.65956e-06
4.6415e-06
4.62211e-06
4.6015e-06
4.57969e-06
4.55636e-06
4.53189e-06
4.50657e-06
4.47993e-06
4.45237e-06
4.42374e-06
4.3944e-06
4.36457e-06
4.33427e-06
4.30169e-06
4.22578e-06
4.25781e-06
4.2874e-06
4.31627e-06
4.34462e-06
4.37231e-06
4.39911e-06
4.42486e-06
4.44982e-06
4.47368e-06
4.4966e-06
4.5184e-06
4.53865e-06
4.55764e-06
4.57513e-06
4.59131e-06
4.60574e-06
4.61863e-06
4.63029e-06
4.64008e-06
4.64821e-06
4.65448e-06
4.65914e-06
4.66231e-06
4.66412e-06
4.66425e-06
4.66287e-06
4.6598e-06
4.65489e-06
4.64828e-06
4.63974e-06
4.62958e-06
4.6177e-06
4.6043e-06
4.58939e-06
4.57325e-06
4.55578e-06
4.53705e-06
4.51703e-06
4.49592e-06
4.47329e-06
4.44953e-06
4.42487e-06
4.39896e-06
4.37214e-06
4.34421e-06
4.31572e-06
4.28669e-06
4.25712e-06
4.2254e-06
4.15099e-06
4.18216e-06
4.21097e-06
4.23906e-06
4.26671e-06
4.29361e-06
4.31967e-06
4.34476e-06
4.36898e-06
4.39227e-06
4.41458e-06
4.43578e-06
4.45547e-06
4.47393e-06
4.49077e-06
4.50646e-06
4.52042e-06
4.5329e-06
4.54423e-06
4.55371e-06
4.56155e-06
4.56761e-06
4.57215e-06
4.57523e-06
4.57691e-06
4.57707e-06
4.57581e-06
4.57275e-06
4.56798e-06
4.56169e-06
4.55339e-06
4.54365e-06
4.53211e-06
4.51907e-06
4.50466e-06
4.48903e-06
4.47209e-06
4.45393e-06
4.43446e-06
4.41393e-06
4.39193e-06
4.36886e-06
4.3448e-06
4.3196e-06
4.29345e-06
4.26625e-06
4.2386e-06
4.21034e-06
4.18147e-06
4.15062e-06
4.07762e-06
4.10792e-06
4.13599e-06
4.16336e-06
4.19033e-06
4.21646e-06
4.24176e-06
4.26624e-06
4.28977e-06
4.3125e-06
4.33424e-06
4.35482e-06
4.37402e-06
4.39196e-06
4.40824e-06
4.42344e-06
4.43701e-06
4.44915e-06
4.46012e-06
4.46935e-06
4.47694e-06
4.48285e-06
4.48728e-06
4.49029e-06
4.49188e-06
4.49205e-06
4.49088e-06
4.48783e-06
4.48319e-06
4.47711e-06
4.46908e-06
4.45968e-06
4.44846e-06
4.43577e-06
4.4218e-06
4.40666e-06
4.39019e-06
4.37253e-06
4.35361e-06
4.33358e-06
4.31218e-06
4.28975e-06
4.26628e-06
4.24175e-06
4.21627e-06
4.18982e-06
4.16296e-06
4.13544e-06
4.10729e-06
4.07729e-06
4.00567e-06
4.03508e-06
4.06244e-06
4.08913e-06
4.11541e-06
4.1408e-06
4.16538e-06
4.18925e-06
4.21214e-06
4.23428e-06
4.25547e-06
4.27545e-06
4.29416e-06
4.31161e-06
4.3274e-06
4.34212e-06
4.35535e-06
4.36717e-06
4.37779e-06
4.38678e-06
4.39417e-06
4.39991e-06
4.40427e-06
4.40723e-06
4.40875e-06
4.40892e-06
4.40778e-06
4.40475e-06
4.40025e-06
4.39433e-06
4.3866e-06
4.37747e-06
4.36656e-06
4.3542e-06
4.34065e-06
4.32594e-06
4.30991e-06
4.29275e-06
4.27433e-06
4.2548e-06
4.23399e-06
4.21216e-06
4.18928e-06
4.1654e-06
4.14057e-06
4.11487e-06
4.08873e-06
4.06195e-06
4.03454e-06
4.00535e-06
3.93508e-06
3.96363e-06
3.9903e-06
4.01633e-06
4.04192e-06
4.06659e-06
4.09049e-06
4.11374e-06
4.13604e-06
4.15759e-06
4.1782e-06
4.19764e-06
4.21586e-06
4.23279e-06
4.24818e-06
4.26241e-06
4.27534e-06
4.28684e-06
4.29713e-06
4.30585e-06
4.31309e-06
4.31867e-06
4.32296e-06
4.32586e-06
4.32734e-06
4.32751e-06
4.32634e-06
4.32334e-06
4.31901e-06
4.31321e-06
4.3058e-06
4.2969e-06
4.28629e-06
4.27429e-06
4.26113e-06
4.2468e-06
4.2312e-06
4.2145e-06
4.19659e-06
4.17754e-06
4.15732e-06
4.13605e-06
4.11375e-06
4.0905e-06
4.06633e-06
4.04134e-06
4.0159e-06
3.98983e-06
3.96314e-06
3.93475e-06
3.86581e-06
3.89353e-06
3.91952e-06
3.9449e-06
3.96979e-06
3.99378e-06
4.01706e-06
4.03968e-06
4.06142e-06
4.08238e-06
4.10242e-06
4.12134e-06
4.13907e-06
4.15549e-06
4.17053e-06
4.18428e-06
4.19689e-06
4.20808e-06
4.21804e-06
4.2265e-06
4.23362e-06
4.23906e-06
4.24326e-06
4.24608e-06
4.24754e-06
4.24771e-06
4.24649e-06
4.24356e-06
4.23936e-06
4.23369e-06
4.22658e-06
4.2179e-06
4.20759e-06
4.19597e-06
4.18318e-06
4.16919e-06
4.154e-06
4.13775e-06
4.12033e-06
4.10176e-06
4.08212e-06
4.0614e-06
4.03967e-06
4.01704e-06
3.99352e-06
3.96921e-06
3.94445e-06
3.91907e-06
3.89308e-06
3.86547e-06
3.79781e-06
3.82476e-06
3.85007e-06
3.8748e-06
3.89899e-06
3.92233e-06
3.94503e-06
3.96702e-06
3.98822e-06
4.00862e-06
4.0281e-06
4.04651e-06
4.06375e-06
4.07967e-06
4.09437e-06
4.10769e-06
4.11995e-06
4.13087e-06
4.1405e-06
4.1487e-06
4.1557e-06
4.16102e-06
4.16511e-06
4.16787e-06
4.1693e-06
4.16945e-06
4.1682e-06
4.16536e-06
4.16126e-06
4.15573e-06
4.14888e-06
4.14041e-06
4.13041e-06
4.11918e-06
4.10673e-06
4.09309e-06
4.07827e-06
4.06245e-06
4.04551e-06
4.02741e-06
4.00833e-06
3.98817e-06
3.96699e-06
3.94498e-06
3.9221e-06
3.89845e-06
3.87433e-06
3.84963e-06
3.82431e-06
3.79746e-06
3.73107e-06
3.75727e-06
3.78191e-06
3.80599e-06
3.8295e-06
3.85223e-06
3.87437e-06
3.89574e-06
3.9164e-06
3.93628e-06
3.95522e-06
3.97309e-06
3.98986e-06
4.0053e-06
4.01967e-06
4.03261e-06
4.0445e-06
4.05515e-06
4.06446e-06
4.07243e-06
4.07926e-06
4.0845e-06
4.08847e-06
4.09118e-06
4.09259e-06
4.0927e-06
4.09143e-06
4.0887e-06
4.08466e-06
4.0793e-06
4.07265e-06
4.0644e-06
4.05472e-06
4.04385e-06
4.03176e-06
4.01844e-06
4.00399e-06
3.98859e-06
3.97211e-06
3.95445e-06
3.93593e-06
3.91633e-06
3.89571e-06
3.87429e-06
3.85202e-06
3.82903e-06
3.80551e-06
3.78147e-06
3.75681e-06
3.73068e-06
3.66553e-06
3.691e-06
3.715e-06
3.73843e-06
3.76128e-06
3.78345e-06
3.80504e-06
3.82582e-06
3.84593e-06
3.86531e-06
3.88372e-06
3.90106e-06
3.91735e-06
3.93237e-06
3.94637e-06
3.95898e-06
3.9705e-06
3.98088e-06
3.98989e-06
3.99766e-06
4.00428e-06
4.00944e-06
4.01333e-06
4.01599e-06
4.01734e-06
4.01743e-06
4.01615e-06
4.01352e-06
4.00956e-06
4.00435e-06
3.99788e-06
3.98985e-06
3.98052e-06
3.96994e-06
3.95821e-06
3.94522e-06
3.93112e-06
3.91614e-06
3.9001e-06
3.88288e-06
3.86489e-06
3.84585e-06
3.82577e-06
3.80493e-06
3.78326e-06
3.76088e-06
3.73797e-06
3.71455e-06
3.69056e-06
3.66512e-06
3.60118e-06
3.62594e-06
3.64929e-06
3.67209e-06
3.6943e-06
3.71596e-06
3.73699e-06
3.7572e-06
3.77678e-06
3.79565e-06
3.81357e-06
3.83038e-06
3.84621e-06
3.86083e-06
3.87445e-06
3.88674e-06
3.89791e-06
3.90802e-06
3.91674e-06
3.92433e-06
3.93072e-06
3.93582e-06
3.93964e-06
3.94222e-06
3.94353e-06
3.94358e-06
3.94232e-06
3.93977e-06
3.93591e-06
3.93083e-06
3.92454e-06
3.91672e-06
3.90773e-06
3.89742e-06
3.88605e-06
3.87339e-06
3.85966e-06
3.84506e-06
3.82945e-06
3.81267e-06
3.79518e-06
3.7767e-06
3.75715e-06
3.73686e-06
3.71576e-06
3.69398e-06
3.67168e-06
3.64884e-06
3.62551e-06
3.60073e-06
3.53796e-06
3.56206e-06
3.58476e-06
3.60695e-06
3.62855e-06
3.64971e-06
3.67019e-06
3.68985e-06
3.70892e-06
3.72727e-06
3.74469e-06
3.76101e-06
3.77639e-06
3.79064e-06
3.80386e-06
3.81584e-06
3.82669e-06
3.83654e-06
3.84498e-06
3.85238e-06
3.85858e-06
3.86361e-06
3.86737e-06
3.86985e-06
3.87111e-06
3.8711e-06
3.8699e-06
3.86741e-06
3.86368e-06
3.85873e-06
3.85258e-06
3.845e-06
3.8363e-06
3.82627e-06
3.81523e-06
3.8029e-06
3.78955e-06
3.77532e-06
3.76013e-06
3.74379e-06
3.72676e-06
3.7088e-06
3.68979e-06
3.67004e-06
3.6495e-06
3.6283e-06
3.60659e-06
3.58431e-06
3.56161e-06
3.5375e-06
3.47586e-06
3.4993e-06
3.52138e-06
3.54298e-06
3.56401e-06
3.58465e-06
3.6046e-06
3.62375e-06
3.6423e-06
3.66012e-06
3.67707e-06
3.69292e-06
3.70787e-06
3.72176e-06
3.73456e-06
3.74622e-06
3.75682e-06
3.76639e-06
3.77459e-06
3.78179e-06
3.78781e-06
3.79274e-06
3.79645e-06
3.79885e-06
3.80006e-06
3.79999e-06
3.79885e-06
3.79641e-06
3.79281e-06
3.78798e-06
3.78199e-06
3.77465e-06
3.76618e-06
3.75645e-06
3.74571e-06
3.73372e-06
3.72076e-06
3.70689e-06
3.6921e-06
3.67618e-06
3.6596e-06
3.64212e-06
3.62365e-06
3.60442e-06
3.58442e-06
3.56379e-06
3.54265e-06
3.52093e-06
3.49886e-06
3.4754e-06
3.41484e-06
3.43764e-06
3.45913e-06
3.48016e-06
3.50063e-06
3.52075e-06
3.54016e-06
3.55883e-06
3.57686e-06
3.59416e-06
3.61066e-06
3.62606e-06
3.64059e-06
3.65412e-06
3.66653e-06
3.67788e-06
3.68824e-06
3.69753e-06
3.70552e-06
3.71251e-06
3.71837e-06
3.72321e-06
3.72683e-06
3.72915e-06
3.73034e-06
3.73023e-06
3.72911e-06
3.72674e-06
3.72325e-06
3.71855e-06
3.71274e-06
3.70561e-06
3.69734e-06
3.68793e-06
3.67745e-06
3.66582e-06
3.65324e-06
3.63972e-06
3.62531e-06
3.60982e-06
3.59365e-06
3.57661e-06
3.55869e-06
3.53996e-06
3.5205e-06
3.50043e-06
3.47984e-06
3.45868e-06
3.43722e-06
3.41439e-06
3.35487e-06
3.37704e-06
3.39796e-06
3.41844e-06
3.43838e-06
3.45797e-06
3.47686e-06
3.49505e-06
3.51256e-06
3.52937e-06
3.54543e-06
3.56041e-06
3.57453e-06
3.5877e-06
3.59976e-06
3.6108e-06
3.62094e-06
3.62994e-06
3.63775e-06
3.64452e-06
3.65023e-06
3.65497e-06
3.65849e-06
3.66074e-06
3.66189e-06
3.66177e-06
3.66065e-06
3.65837e-06
3.65495e-06
3.6504e-06
3.64479e-06
3.63784e-06
3.62978e-06
3.62065e-06
3.61043e-06
3.59914e-06
3.58694e-06
3.57375e-06
3.55972e-06
3.54466e-06
3.52888e-06
3.51226e-06
3.49486e-06
3.47663e-06
3.45771e-06
3.43817e-06
3.41812e-06
3.39753e-06
3.37665e-06
3.35445e-06
3.29593e-06
3.31748e-06
3.33786e-06
3.3578e-06
3.37723e-06
3.39628e-06
3.41466e-06
3.43237e-06
3.44938e-06
3.46573e-06
3.48135e-06
3.49592e-06
3.50965e-06
3.52246e-06
3.53422e-06
3.54496e-06
3.55486e-06
3.56359e-06
3.57122e-06
3.57779e-06
3.58336e-06
3.58798e-06
3.59139e-06
3.59357e-06
3.59466e-06
3.59457e-06
3.59345e-06
3.59126e-06
3.5879e-06
3.58351e-06
3.57808e-06
3.57131e-06
3.56346e-06
3.55458e-06
3.54463e-06
3.53366e-06
3.52182e-06
3.50897e-06
3.49529e-06
3.48065e-06
3.46526e-06
3.44905e-06
3.43215e-06
3.41441e-06
3.39601e-06
3.377e-06
3.35747e-06
3.33743e-06
3.31713e-06
3.29555e-06
3.23798e-06
3.25894e-06
3.27879e-06
3.29821e-06
3.31715e-06
3.33566e-06
3.35354e-06
3.37078e-06
3.38731e-06
3.40321e-06
3.41839e-06
3.43256e-06
3.44592e-06
3.4584e-06
3.46986e-06
3.48033e-06
3.48996e-06
3.49846e-06
3.50591e-06
3.51229e-06
3.5177e-06
3.52218e-06
3.52549e-06
3.52761e-06
3.52862e-06
3.52859e-06
3.52748e-06
3.52535e-06
3.52207e-06
3.51783e-06
3.51255e-06
3.50598e-06
3.49835e-06
3.48969e-06
3.48002e-06
3.46936e-06
3.45784e-06
3.44534e-06
3.43201e-06
3.41776e-06
3.40275e-06
3.38697e-06
3.37052e-06
3.35328e-06
3.33537e-06
3.31688e-06
3.29786e-06
3.27836e-06
3.25862e-06
3.23766e-06
3.18102e-06
3.20138e-06
3.22072e-06
3.23965e-06
3.25808e-06
3.27608e-06
3.29348e-06
3.31026e-06
3.32632e-06
3.3418e-06
3.35654e-06
3.37031e-06
3.38332e-06
3.39548e-06
3.40666e-06
3.41686e-06
3.42621e-06
3.43449e-06
3.44175e-06
3.44797e-06
3.45324e-06
3.45754e-06
3.46077e-06
3.46282e-06
3.46378e-06
3.46379e-06
3.46268e-06
3.46061e-06
3.45742e-06
3.45331e-06
3.44818e-06
3.4418e-06
3.4344e-06
3.42596e-06
3.41659e-06
3.40621e-06
3.39499e-06
3.38282e-06
3.36985e-06
3.35598e-06
3.34132e-06
3.32598e-06
3.30998e-06
3.29321e-06
3.27578e-06
3.2578e-06
3.23928e-06
3.22031e-06
3.20111e-06
3.18074e-06
3.12501e-06
3.1448e-06
3.16364e-06
3.18208e-06
3.20002e-06
3.21751e-06
3.23445e-06
3.25078e-06
3.26639e-06
3.28146e-06
3.29576e-06
3.30914e-06
3.32182e-06
3.33366e-06
3.34457e-06
3.35452e-06
3.36359e-06
3.37164e-06
3.37872e-06
3.3848e-06
3.38992e-06
3.39405e-06
3.39719e-06
3.39917e-06
3.40009e-06
3.40012e-06
3.39905e-06
3.39699e-06
3.39393e-06
3.38992e-06
3.38492e-06
3.37875e-06
3.37156e-06
3.36335e-06
3.35427e-06
3.34417e-06
3.33323e-06
3.32139e-06
3.30876e-06
3.29527e-06
3.28097e-06
3.26605e-06
3.25047e-06
3.23417e-06
3.21721e-06
3.19974e-06
3.1817e-06
3.16325e-06
3.14457e-06
3.12478e-06
3.06996e-06
3.08918e-06
3.10753e-06
3.1255e-06
3.14295e-06
3.15994e-06
3.17642e-06
3.19232e-06
3.20749e-06
3.22217e-06
3.23604e-06
3.24905e-06
3.26139e-06
3.27291e-06
3.28355e-06
3.29326e-06
3.30205e-06
3.30988e-06
3.31679e-06
3.32273e-06
3.3277e-06
3.33168e-06
3.33472e-06
3.33664e-06
3.33754e-06
3.33757e-06
3.33654e-06
3.3345e-06
3.33154e-06
3.32763e-06
3.32275e-06
3.31679e-06
3.3098e-06
3.30185e-06
3.29304e-06
3.28322e-06
3.27255e-06
3.26102e-06
3.24872e-06
3.2356e-06
3.22166e-06
3.20715e-06
3.19199e-06
3.17615e-06
3.15963e-06
3.14265e-06
3.1251e-06
3.10716e-06
3.08898e-06
3.01583e-06
3.03451e-06
3.05237e-06
3.06986e-06
3.08685e-06
3.10333e-06
3.11937e-06
3.13486e-06
3.1496e-06
3.16388e-06
3.17734e-06
3.19001e-06
3.20199e-06
3.2132e-06
3.22357e-06
3.23304e-06
3.24158e-06
3.24918e-06
3.25592e-06
3.26172e-06
3.26654e-06
3.2704e-06
3.27333e-06
3.2752e-06
3.27609e-06
3.27611e-06
3.27512e-06
3.27312e-06
3.27024e-06
3.26643e-06
3.26165e-06
3.2559e-06
3.24911e-06
3.24141e-06
3.23285e-06
3.22331e-06
3.21291e-06
3.20169e-06
3.18972e-06
3.17694e-06
3.16338e-06
3.14926e-06
3.1345e-06
3.11911e-06
3.10305e-06
3.08653e-06
3.06947e-06
3.05201e-06
2.96263e-06
2.98078e-06
2.99815e-06
3.01515e-06
3.0317e-06
3.04769e-06
3.06329e-06
3.07836e-06
3.09271e-06
3.10656e-06
3.11965e-06
3.13199e-06
3.14361e-06
3.15452e-06
3.16462e-06
3.17386e-06
3.18215e-06
3.18952e-06
3.19607e-06
3.20174e-06
3.20642e-06
3.21018e-06
3.213e-06
3.21482e-06
3.21571e-06
3.2157e-06
3.21476e-06
3.21281e-06
3.21001e-06
3.20629e-06
3.20163e-06
3.19605e-06
3.18946e-06
3.18201e-06
3.17369e-06
3.16442e-06
3.15429e-06
3.14337e-06
3.13173e-06
3.11928e-06
3.1061e-06
3.09236e-06
3.078e-06
3.06303e-06
3.04742e-06
3.03137e-06
3.01479e-06
2.91032e-06
2.92796e-06
2.94485e-06
2.96136e-06
2.97747e-06
2.993e-06
3.00814e-06
3.02281e-06
3.03678e-06
3.05021e-06
3.06295e-06
3.07496e-06
3.08624e-06
3.09684e-06
3.10667e-06
3.11568e-06
3.12374e-06
3.13089e-06
3.13725e-06
3.14276e-06
3.14732e-06
3.15098e-06
3.15372e-06
3.15548e-06
3.15636e-06
3.15634e-06
3.15543e-06
3.15354e-06
3.15081e-06
3.14719e-06
3.14265e-06
3.13722e-06
3.13084e-06
3.12363e-06
3.11552e-06
3.10653e-06
3.09668e-06
3.08605e-06
3.07471e-06
3.06261e-06
3.0498e-06
3.03642e-06
3.02246e-06
3.00789e-06
2.99274e-06
2.97714e-06
2.8589e-06
2.87604e-06
2.89245e-06
2.90849e-06
2.92416e-06
2.93925e-06
2.95393e-06
2.96819e-06
2.98179e-06
2.99482e-06
3.00722e-06
3.0189e-06
3.02984e-06
3.04015e-06
3.0497e-06
3.05849e-06
3.06632e-06
3.07327e-06
3.07943e-06
3.08478e-06
3.08921e-06
3.09278e-06
3.09546e-06
3.09717e-06
3.09803e-06
3.098e-06
3.09711e-06
3.0953e-06
3.09261e-06
3.0891e-06
3.08469e-06
3.07941e-06
3.07324e-06
3.06623e-06
3.05833e-06
3.04962e-06
3.04004e-06
3.02971e-06
3.01866e-06
3.0069e-06
2.99446e-06
2.98144e-06
2.96786e-06
2.95371e-06
2.93897e-06
2.80837e-06
2.82501e-06
2.84093e-06
2.85651e-06
2.87175e-06
2.88642e-06
2.90065e-06
2.91451e-06
2.92773e-06
2.94037e-06
2.95244e-06
2.9638e-06
2.97441e-06
2.98444e-06
2.99372e-06
3.00226e-06
3.00988e-06
3.01664e-06
3.02259e-06
3.02779e-06
3.03211e-06
3.03558e-06
3.03819e-06
3.03986e-06
3.0407e-06
3.04066e-06
3.0398e-06
3.03804e-06
3.03541e-06
3.03201e-06
3.02773e-06
3.0226e-06
3.01662e-06
3.0098e-06
3.00213e-06
2.99367e-06
2.98435e-06
2.97432e-06
2.96356e-06
2.95215e-06
2.94007e-06
2.92739e-06
2.91419e-06
2.90045e-06
2.88613e-06
2.75872e-06
2.77486e-06
2.7903e-06
2.80543e-06
2.82022e-06
2.83449e-06
2.84829e-06
2.86173e-06
2.87459e-06
2.88686e-06
2.89859e-06
2.90965e-06
2.91993e-06
2.92969e-06
2.9387e-06
2.947e-06
2.9544e-06
2.96097e-06
2.96674e-06
2.97178e-06
2.97599e-06
2.97936e-06
2.9819e-06
2.98354e-06
2.98435e-06
2.9843e-06
2.98346e-06
2.98177e-06
2.97918e-06
2.97589e-06
2.97174e-06
2.96677e-06
2.96097e-06
2.95435e-06
2.94688e-06
2.93867e-06
2.92961e-06
2.91987e-06
2.90941e-06
2.89834e-06
2.88661e-06
2.87427e-06
2.86145e-06
2.8481e-06
2.83419e-06
2.70992e-06
2.72558e-06
2.74055e-06
2.75523e-06
2.76957e-06
2.78345e-06
2.79684e-06
2.80987e-06
2.82237e-06
2.83429e-06
2.84568e-06
2.85642e-06
2.8664e-06
2.87587e-06
2.88462e-06
2.89268e-06
2.89987e-06
2.90627e-06
2.91186e-06
2.91673e-06
2.92084e-06
2.9241e-06
2.92657e-06
2.92819e-06
2.92896e-06
2.92892e-06
2.92808e-06
2.92646e-06
2.92393e-06
2.92074e-06
2.91672e-06
2.91191e-06
2.90628e-06
2.89985e-06
2.89258e-06
2.88462e-06
2.87581e-06
2.86635e-06
2.85618e-06
2.84545e-06
2.83406e-06
2.82207e-06
2.80962e-06
2.79664e-06
2.78316e-06
2.66199e-06
2.67717e-06
2.69168e-06
2.70592e-06
2.7198e-06
2.73329e-06
2.7463e-06
2.75892e-06
2.77105e-06
2.78263e-06
2.79368e-06
2.80412e-06
2.8138e-06
2.823e-06
2.83149e-06
2.83931e-06
2.84628e-06
2.85251e-06
2.85794e-06
2.86264e-06
2.86664e-06
2.8698e-06
2.87219e-06
2.8738e-06
2.87452e-06
2.87449e-06
2.87366e-06
2.8721e-06
2.86964e-06
2.86655e-06
2.86265e-06
2.85798e-06
2.85252e-06
2.84629e-06
2.83922e-06
2.8315e-06
2.82295e-06
2.81375e-06
2.80388e-06
2.79348e-06
2.78241e-06
2.77078e-06
2.75869e-06
2.74608e-06
2.73303e-06
2.61491e-06
2.62963e-06
2.64368e-06
2.65748e-06
2.67092e-06
2.68402e-06
2.69665e-06
2.70888e-06
2.72066e-06
2.73189e-06
2.7426e-06
2.75273e-06
2.76213e-06
2.77106e-06
2.77929e-06
2.78686e-06
2.79364e-06
2.7997e-06
2.80496e-06
2.8095e-06
2.81339e-06
2.81643e-06
2.81875e-06
2.82035e-06
2.82104e-06
2.82101e-06
2.8202e-06
2.81869e-06
2.81631e-06
2.8133e-06
2.80952e-06
2.80498e-06
2.79969e-06
2.79365e-06
2.78679e-06
2.77931e-06
2.77101e-06
2.76207e-06
2.75249e-06
2.74241e-06
2.73167e-06
2.72039e-06
2.70867e-06
2.69642e-06
2.68379e-06
2.56869e-06
2.58295e-06
2.59655e-06
2.60991e-06
2.62293e-06
2.63563e-06
2.64789e-06
2.65973e-06
2.67116e-06
2.68205e-06
2.69243e-06
2.70225e-06
2.71137e-06
2.72002e-06
2.72801e-06
2.73533e-06
2.74193e-06
2.74781e-06
2.75292e-06
2.75729e-06
2.76108e-06
2.76401e-06
2.76626e-06
2.76783e-06
2.7685e-06
2.76849e-06
2.76768e-06
2.76621e-06
2.76392e-06
2.76098e-06
2.75732e-06
2.75291e-06
2.74778e-06
2.74194e-06
2.73528e-06
2.72804e-06
2.71999e-06
2.71131e-06
2.70201e-06
2.69225e-06
2.68183e-06
2.6709e-06
2.65954e-06
2.64765e-06
2.63543e-06
2.52332e-06
2.53712e-06
2.55029e-06
2.56321e-06
2.57582e-06
2.58812e-06
2.60001e-06
2.61147e-06
2.62256e-06
2.63311e-06
2.64315e-06
2.65267e-06
2.66152e-06
2.6699e-06
2.67765e-06
2.68472e-06
2.69114e-06
2.69683e-06
2.70179e-06
2.70602e-06
2.7097e-06
2.71252e-06
2.71471e-06
2.71624e-06
2.7169e-06
2.71689e-06
2.7161e-06
2.71467e-06
2.71246e-06
2.70959e-06
2.70603e-06
2.70176e-06
2.6968e-06
2.69114e-06
2.6847e-06
2.67768e-06
2.66989e-06
2.66146e-06
2.65244e-06
2.64299e-06
2.6329e-06
2.62231e-06
2.61129e-06
2.59977e-06
2.47881e-06
2.49215e-06
2.50489e-06
2.51739e-06
2.5296e-06
2.54149e-06
2.55302e-06
2.56411e-06
2.57485e-06
2.58507e-06
2.59478e-06
2.60399e-06
2.61257e-06
2.62069e-06
2.6282e-06
2.63503e-06
2.64126e-06
2.64676e-06
2.65157e-06
2.65568e-06
2.65924e-06
2.66197e-06
2.66409e-06
2.66557e-06
2.66623e-06
2.66623e-06
2.66546e-06
2.66406e-06
2.66193e-06
2.65912e-06
2.65566e-06
2.65153e-06
2.64674e-06
2.64126e-06
2.63504e-06
2.62823e-06
2.62069e-06
2.61252e-06
2.60378e-06
2.59462e-06
2.58486e-06
2.57461e-06
2.56393e-06
2.55279e-06
2.43516e-06
2.44804e-06
2.46035e-06
2.47244e-06
2.48425e-06
2.49575e-06