/*--------------------------------*- C++ -*----------------------------------*\
  =========                 |
  \\      /  F ield         | OpenFOAM: The Open Source CFD Toolbox
   \\    /   O peration     | Website:  https://openfoam.org
    \\  /    A nd           | Version:  7
     \\/     M anipulation  |
\*---------------------------------------------------------------------------*/
FoamFile
{
    version     2.0;
    format      ascii;
    class       volScalarField;
    location    "72000";
    object      omega;
}
// * * * * * * * * * * * * * * * * * * * * * * * * * * * * * * * * * * * * * //

dimensions      [0 0 -1 0 0 0 0];

internalField   nonuniform List<scalar> 
4825
(
0.0955588
0.0944496
0.0982691
0.0971392
0.0960506
0.0949985
0.093987
0.101044
0.0998955
0.0987863
0.0977145
0.0966837
0.103876
0.102712
0.101586
0.100497
0.0994486
0.106755
0.10558
0.104441
0.103339
0.102276
0.109676
0.108491
0.107343
0.106231
0.105157
0.112639
0.111443
0.110286
0.109165
0.108084
0.115647
0.11444
0.113272
0.112142
0.111052
0.118705
0.117484
0.116305
0.115164
0.114065
0.121817
0.120582
0.11939
0.118237
0.117127
0.124989
0.123738
0.122531
0.121365
0.120242
0.128226
0.126957
0.125734
0.124554
0.123417
0.131532
0.130245
0.129004
0.127808
0.126655
0.134913
0.133605
0.132346
0.131132
0.138373
0.137044
0.135765
0.134532
0.141918
0.140566
0.139266
0.138012
0.145554
0.144178
0.142854
0.149286
0.147884
0.146536
0.153119
0.151691
0.157061
0.155604
0.161117
0.15963
0.165294
0.163775
0.169598
0.168047
0.174038
0.0594138
0.0583916
0.0574021
0.05645
0.0555279
0.0546425
0.0537996
0.0529984
0.0522364
0.0515203
0.050848
0.0502189
0.049632
0.0490871
0.0485883
0.0481324
0.047721
0.0473538
0.0470339
0.046755
0.0617157
0.0606868
0.0596891
0.0587261
0.0577915
0.0568921
0.0560332
0.0552148
0.054436
0.0537018
0.0530125
0.0523667
0.0517665
0.051209
0.0506989
0.0502318
0.0498103
0.049435
0.0491079
0.0488217
0.064034
0.0630029
0.0620011
0.0610329
0.0600922
0.0591842
0.0583142
0.0574844
0.0566931
0.055944
0.0552399
0.0545797
0.0539663
0.0533949
0.0528718
0.0523926
0.0519613
0.0515773
0.0512422
0.0509491
0.0663602
0.0653307
0.0643287
0.0633595
0.0624162
0.0615051
0.0606293
0.0597928
0.0589942
0.0582351
0.0575209
0.0568504
0.0562254
0.0556432
0.0551088
0.0546192
0.0541777
0.0537842
0.0534408
0.0531408
0.0686909
0.0676639
0.0666643
0.0656964
0.0647545
0.0638428
0.0629661
0.0621272
0.0613255
0.0605611
0.0598406
0.0591642
0.0585324
0.0579427
0.0573998
0.0569032
0.0564536
0.056052
0.055702
0.055396
0.0710244
0.0700005
0.0690035
0.0680384
0.0670998
0.0661903
0.0653151
0.064477
0.0636747
0.0629094
0.0621857
0.0615074
0.0608722
0.0602784
0.0597312
0.0592304
0.0587762
0.0583694
0.0580144
0.0577042
0.0733611
0.0723403
0.0713458
0.0703834
0.0694488
0.0685427
0.0676698
0.0668343
0.0660337
0.0652697
0.0645466
0.0638688
0.0632326
0.0626384
0.0620897
0.0615868
0.0611306
0.0607219
0.0603644
0.0600512
0.0757043
0.0746854
0.0736924
0.0727322
0.0718005
0.0708977
0.0700283
0.0691959
0.0683977
0.0676363
0.0669158
0.0662403
0.0656053
0.0650125
0.0644643
0.0639612
0.0635049
0.0630964
0.0627382
0.0624246
0.0621587
0.0619471
0.0617888
0.0616842
0.0616311
0.0616337
0.0616857
0.0617928
0.0619512
0.0621586
0.0624149
0.0627256
0.0630818
0.0634893
0.0639479
0.0780592
0.0770394
0.0760467
0.0750868
0.0741568
0.0732565
0.0723904
0.0715605
0.0707649
0.070007
0.0692895
0.0686163
0.0679842
0.0673933
0.0668471
0.0663458
0.0658909
0.0654834
0.0651257
0.0648136
0.0645485
0.0643383
0.0641801
0.0640758
0.0640233
0.0640253
0.064078
0.0641846
0.0643426
0.0645492
0.0648057
0.0651146
0.0654708
0.0658777
0.0663352
0.0668357
0.0673816
0.0804319
0.0794083
0.0784135
0.0774519
0.0765222
0.0756222
0.0747579
0.0739298
0.0731366
0.0723816
0.0716664
0.0709956
0.0703664
0.0697781
0.0692342
0.0687359
0.0682831
0.067877
0.0675205
0.0672106
0.0669474
0.0667384
0.0665808
0.0664776
0.0664257
0.0664274
0.0664798
0.0665857
0.0667432
0.0669489
0.0672041
0.0675115
0.0678666
0.0682722
0.0687273
0.0692258
0.069769
0.0703595
0.0828296
0.0817991
0.0807996
0.0798337
0.0789014
0.0780003
0.0771352
0.0763074
0.0755152
0.0747623
0.0740486
0.0733792
0.0727523
0.0721664
0.0716253
0.0711292
0.0706787
0.0702749
0.0699202
0.0696125
0.0693506
0.0691434
0.0689866
0.0688842
0.0688332
0.0688344
0.0688871
0.0689918
0.0691486
0.0693536
0.0696069
0.0699124
0.070266
0.0706704
0.0711227
0.0716191
0.0721597
0.0727477
0.0733788
0.0740544
0.0852608
0.0842201
0.0832123
0.0822395
0.0813016
0.0803969
0.079529
0.0786993
0.0779061
0.077153
0.0764399
0.0757706
0.0751449
0.0745603
0.0740214
0.073527
0.0730786
0.0726766
0.0723241
0.0720181
0.0717578
0.071552
0.0713965
0.0712945
0.0712444
0.0712457
0.071298
0.0714021
0.0715578
0.0717617
0.0720139
0.0723177
0.0726698
0.0730725
0.0735231
0.0740174
0.0745565
0.0751423
0.0757724
0.0764469
0.077162
0.0779166
0.0877346
0.0866802
0.0856606
0.0846775
0.0837312
0.0828195
0.0819458
0.0811121
0.0803157
0.07956
0.0788454
0.0781749
0.0775489
0.0769648
0.0764265
0.0759329
0.0754859
0.0750855
0.0747341
0.0744296
0.074171
0.0739665
0.0738114
0.07371
0.0736609
0.0736618
0.0737135
0.0738177
0.0739725
0.0741757
0.0744269
0.0747291
0.0750805
0.0754818
0.0759313
0.0764245
0.0769635
0.0775483
0.0781789
0.0788536
0.0795696
0.0803262
0.0811287
0.0819704
0.0828496
0.0902595
0.0891882
0.0881535
0.0871567
0.0861986
0.085277
0.0843947
0.0835537
0.0827515
0.0819909
0.0812728
0.0805992
0.0799707
0.0793854
0.0788463
0.0783523
0.0779057
0.0775057
0.0771552
0.0768511
0.0765939
0.07639
0.0762355
0.0761341
0.0760857
0.0760866
0.076138
0.076242
0.076396
0.0765989
0.0768501
0.0771515
0.0775028
0.0779037
0.0783528
0.0788466
0.0793864
0.0799724
0.0806051
0.0812821
0.0820012
0.0827623
0.08357
0.0844182
0.0853059
0.0862372
0.0872015
0.0928432
0.0917524
0.0906995
0.0896863
0.0887133
0.0877785
0.0868845
0.0860331
0.0852226
0.0844542
0.08373
0.0830514
0.0824181
0.0818296
0.0812884
0.0807926
0.0803445
0.0799442
0.079593
0.0792887
0.0790325
0.0788284
0.0786743
0.0785728
0.0785245
0.0785253
0.0785768
0.0786809
0.0788341
0.0790373
0.079289
0.0795909
0.0799427
0.0803443
0.0807949
0.0812904
0.0818329
0.0824221
0.0830586
0.0837404
0.0844652
0.0852336
0.0860494
0.0869071
0.0878061
0.0887496
0.0897289
0.0907543
0.0918125
0.0929072
0.0954912
0.0943794
0.0933061
0.0922743
0.0912836
0.0903326
0.0894244
0.0885599
0.0877379
0.0869592
0.0862263
0.0855404
0.0849003
0.0843063
0.0837609
0.0832618
0.0828108
0.0824083
0.0820555
0.0817504
0.0814939
0.0812892
0.0811347
0.0810328
0.0809848
0.0809851
0.0810367
0.0811412
0.0812944
0.0814986
0.0817515
0.082055
0.0824086
0.0828124
0.0832656
0.0837648
0.0843116
0.0849062
0.0855488
0.0862378
0.086971
0.0877492
0.0885761
0.0894463
0.0903596
0.0913181
0.0923149
0.0933577
0.0944361
0.0955514
0.0982059
0.0970729
0.0959787
0.0949268
0.0939169
0.0929479
0.0920227
0.0911429
0.0903068
0.0895154
0.0887715
0.0880755
0.0874268
0.086825
0.0862734
0.0857691
0.0853135
0.0849075
0.0845518
0.0842447
0.0839871
0.083781
0.0836256
0.0835232
0.0834748
0.083475
0.0835268
0.0836317
0.0837858
0.0839913
0.0842461
0.0845526
0.0849091
0.0853168
0.0857743
0.0862792
0.086832
0.0874343
0.0880852
0.0887836
0.0895279
0.0903184
0.0911588
0.0920441
0.0929739
0.09395
0.0949659
0.0960279
0.0971269
0.0982628
0.100985
0.0998328
0.0987188
0.097647
0.0966177
0.0956295
0.0946864
0.0937897
0.0929376
0.0921317
0.0913742
0.0906661
0.0900067
0.0893955
0.0888355
0.0883242
0.0878626
0.0874513
0.0870916
0.086781
0.0865211
0.0863129
0.0861565
0.0860532
0.0860041
0.086004
0.0860564
0.086162
0.0863175
0.086525
0.086783
0.0870933
0.0874543
0.0878672
0.0883308
0.0888428
0.0894039
0.0900155
0.0906768
0.0913871
0.0921447
0.0929493
0.0938049
0.0947071
0.0956549
0.0966496
0.0976848
0.0987657
0.0998843
0.101039
0.103821
0.102653
0.101523
0.100434
0.0993863
0.09838
0.0974189
0.0965048
0.0956359
0.0948144
0.0940421
0.0933203
0.0926486
0.0920265
0.0914563
0.0909365
0.0904672
0.0900496
0.0896846
0.0893695
0.089106
0.0888953
0.088737
0.0886327
0.0885826
0.0885822
0.0886353
0.0887418
0.0888994
0.0891099
0.0893716
0.0896867
0.0900534
0.0904729
0.0909443
0.0914651
0.0920361
0.0926587
0.093332
0.0940555
0.0948276
0.0956478
0.0965195
0.0974389
0.0984048
0.0994172
0.10047
0.101567
0.102702
0.103871
0.106704
0.105525
0.104382
0.10328
0.102218
0.101196
0.100219
0.0992889
0.0984042
0.0975673
0.0967796
0.0960437
0.0953588
0.0947248
0.0941433
0.0936139
0.0931361
0.092711
0.0923398
0.0920192
0.0917511
0.0915372
0.0913767
0.0912709
0.0912196
0.0912191
0.0912729
0.0913808
0.0915409
0.0917551
0.0920214
0.092342
0.0927154
0.0931426
0.0936229
0.0941537
0.0947357
0.0953702
0.0960563
0.0967935
0.0975805
0.0984162
0.0993031
0.100239
0.10122
0.102248
0.103315
0.104425
0.105571
0.106752
0.109629
0.10844
0.107288
0.106175
0.105103
0.10407
0.103081
0.102138
0.101239
0.100389
0.099587
0.0988378
0.09814
0.0974941
0.0969014
0.0963616
0.0958748
0.0954419
0.0950635
0.0947373
0.0944641
0.0942468
0.0940834
0.0939758
0.0939232
0.0939229
0.0939772
0.0940868
0.0942499
0.0944682
0.0947392
0.0950661
0.0954469
0.0958822
0.0963721
0.0969131
0.0975064
0.0981529
0.0988514
0.0996016
0.100402
0.101251
0.102151
0.1031
0.104093
0.105132
0.106209
0.107328
0.108483
0.109673
0.112595
0.111395
0.110235
0.109114
0.108033
0.106992
0.105994
0.105041
0.104133
0.103272
0.102459
0.101699
0.10099
0.100333
0.0997305
0.0991811
0.0986858
0.0982452
0.0978598
0.0975278
0.0972494
0.0970283
0.0968621
0.0967526
0.0966988
0.0966985
0.0967534
0.0968651
0.0970311
0.0972535
0.0975294
0.0978627
0.0982505
0.0986941
0.0991929
0.0997437
0.100347
0.101004
0.101713
0.102474
0.103285
0.104145
0.105055
0.106012
0.107014
0.10806
0.109146
0.110273
0.111436
0.112636
0.115606
0.114395
0.113224
0.112094
0.111005
0.109956
0.108951
0.107991
0.107075
0.106206
0.105386
0.104617
0.103901
0.103236
0.102625
0.102068
0.101565
0.101118
0.100727
0.100389
0.100107
0.0998823
0.0997132
0.0996018
0.0995472
0.0995467
0.0996021
0.099716
0.0998847
0.100111
0.100391
0.10073
0.101124
0.101575
0.102081
0.10264
0.103251
0.103916
0.104633
0.105402
0.10622
0.107087
0.108004
0.108968
0.109978
0.111031
0.112125
0.113261
0.114434
0.115644
0.118666
0.117442
0.11626
0.11512
0.114021
0.112964
0.111951
0.110983
0.110061
0.109185
0.108359
0.107584
0.106862
0.106191
0.105575
0.105012
0.104505
0.104052
0.103657
0.103315
0.10303
0.102802
0.102631
0.102518
0.102463
0.102462
0.102518
0.102634
0.102805
0.103033
0.103317
0.10366
0.104059
0.104515
0.105026
0.105591
0.106208
0.106879
0.107601
0.108375
0.1092
0.110073
0.110996
0.111967
0.112984
0.114046
0.11515
0.116295
0.117479
0.118703
0.121781
0.120543
0.119348
0.118196
0.117086
0.116019
0.114996
0.11402
0.11309
0.112208
0.111376
0.110595
0.109867
0.109192
0.108571
0.108005
0.107494
0.107038
0.106639
0.106295
0.106007
0.105778
0.105606
0.105492
0.105436
0.105435
0.105492
0.105608
0.10578
0.106011
0.106297
0.106643
0.107045
0.107505
0.10802
0.108589
0.10921
0.109886
0.110613
0.111392
0.112223
0.113103
0.114033
0.115012
0.116038
0.11711
0.118225
0.119381
0.120578
0.121816
0.124955
0.123701
0.122492
0.121326
0.120205
0.119126
0.118093
0.117108
0.116169
0.115279
0.114439
0.113651
0.112918
0.112238
0.111612
0.111042
0.110528
0.110069
0.109668
0.109321
0.109032
0.108802
0.108629
0.108514
0.108458
0.108457
0.108514
0.10863
0.108804
0.109035
0.109324
0.109671
0.110077
0.11054
0.111058
0.111631
0.112257
0.112938
0.113671
0.114456
0.115293
0.116181
0.11712
0.118108
0.119145
0.120228
0.121355
0.122524
0.123735
0.124988
0.128193
0.126922
0.125697
0.124517
0.123382
0.12229
0.121246
0.12025
0.119301
0.118401
0.117553
0.116758
0.116018
0.115331
0.114701
0.114126
0.113608
0.113146
0.112742
0.112394
0.112103
0.111871
0.111697
0.111582
0.111525
0.111524
0.111581
0.111698
0.111872
0.112105
0.112396
0.112746
0.113155
0.113621
0.114144
0.114721
0.115352
0.116039
0.116778
0.117571
0.118416
0.119313
0.120261
0.12126
0.122308
0.123404
0.124544
0.125728
0.126955
0.128225
0.131501
0.130211
0.128969
0.127773
0.126622
0.125517
0.12446
0.123451
0.122491
0.121582
0.120724
0.11992
0.119172
0.118479
0.117843
0.117263
0.11674
0.116274
0.115866
0.115515
0.115222
0.114989
0.114814
0.114698
0.11464
0.114639
0.114696
0.114814
0.11499
0.115224
0.115518
0.11587
0.116283
0.116753
0.117281
0.117864
0.118501
0.119194
0.119941
0.120742
0.121596
0.122503
0.123463
0.124474
0.125535
0.126645
0.1278
0.128999
0.130243
0.131531
0.134883
0.133573
0.132313
0.131099
0.129932
0.128812
0.127741
0.126718
0.125746
0.124825
0.123956
0.123143
0.122386
0.121685
0.121042
0.120456
0.119928
0.119458
0.119046
0.118691
0.118396
0.118161
0.117984
0.117867
0.117809
0.117808
0.117866
0.117984
0.118162
0.118398
0.118694
0.11905
0.119466
0.119942
0.120475
0.121064
0.121708
0.122409
0.123165
0.123975
0.12484
0.125758
0.126729
0.127754
0.128829
0.129954
0.131125
0.132342
0.133604
0.134912
0.138344
0.137013
0.135733
0.134501
0.133316
0.132179
0.131092
0.130056
0.12907
0.128136
0.127256
0.126432
0.125665
0.124956
0.124305
0.123712
0.123178
0.122703
0.122286
0.121928
0.12163
0.121392
0.121214
0.121095
0.121036
0.121035
0.121094
0.121213
0.121393
0.121631
0.12193
0.12229
0.122711
0.123192
0.123731
0.124327
0.12498
0.125689
0.126454
0.127275
0.128151
0.129082
0.130067
0.131105
0.132196
0.133337
0.134526
0.135761
0.137043
0.138373
0.141891
0.140537
0.139236
0.137983
0.136779
0.135625
0.134521
0.133469
0.132469
0.131521
0.130628
0.129792
0.129015
0.128296
0.127637
0.127037
0.126496
0.126015
0.125593
0.125231
0.124929
0.124688
0.124508
0.124388
0.124328
0.124327
0.124387
0.124508
0.124689
0.12493
0.125233
0.125597
0.126023
0.12651
0.127056
0.12766
0.128321
0.12904
0.129815
0.130648
0.131536
0.13248
0.13348
0.134534
0.135641
0.1368
0.138008
0.139263
0.140566
0.141918
0.145527
0.14415
0.142826
0.141552
0.140328
0.139155
0.138033
0.136964
0.135947
0.134985
0.134078
0.13323
0.132441
0.131712
0.131043
0.130435
0.129887
0.129399
0.128971
0.128605
0.128299
0.128055
0.127873
0.127751
0.127691
0.12769
0.12775
0.127872
0.128056
0.1283
0.128606
0.128976
0.129407
0.129901
0.130454
0.131066
0.131737
0.132466
0.133254
0.134099
0.135001
0.135959
0.136974
0.138045
0.13917
0.140348
0.141576
0.142852
0.144177
0.145554
0.149259
0.147857
0.146509
0.145213
0.143967
0.142773
0.141632
0.140545
0.139512
0.138533
0.137612
0.136751
0.135949
0.135209
0.13453
0.133912
0.133356
0.132861
0.132428
0.132056
0.131746
0.131499
0.131314
0.13119
0.131129
0.131128
0.131189
0.131313
0.131499
0.131747
0.132057
0.132432
0.13287
0.13337
0.133931
0.134553
0.135235
0.135975
0.136775
0.137633
0.13855
0.139524
0.140556
0.141645
0.142789
0.143987
0.145236
0.146535
0.147884
0.149286
0.153094
0.151664
0.150291
0.148971
0.147703
0.146487
0.145326
0.144219
0.143168
0.142172
0.141236
0.14036
0.139545
0.138793
0.138102
0.137475
0.13691
0.136408
0.135968
0.135591
0.135276
0.135025
0.134836
0.134711
0.134649
0.134648
0.13471
0.134836
0.135025
0.135277
0.135591
0.135971
0.136416
0.136924
0.137494
0.138126
0.138819
0.139571
0.140384
0.141258
0.14219
0.14318
0.14423
0.145338
0.146503
0.147722
0.148994
0.150317
0.151691
0.15312
0.157036
0.155578
0.154179
0.152833
0.151541
0.150302
0.149119
0.147992
0.146922
0.145908
0.144955
0.144064
0.143235
0.142469
0.141767
0.14113
0.140555
0.140044
0.139597
0.139214
0.138894
0.138639
0.138447
0.13832
0.138257
0.138256
0.13832
0.138448
0.138639
0.138895
0.139215
0.139601
0.140052
0.140569
0.141148
0.141791
0.142495
0.143261
0.144088
0.144977
0.145926
0.146934
0.148003
0.149132
0.150318
0.15156
0.152855
0.154204
0.155604
0.157062
0.161092
0.159605
0.158177
0.156805
0.155488
0.154225
0.153019
0.15187
0.150779
0.149747
0.148776
0.147868
0.147025
0.146245
0.14553
0.144882
0.144297
0.143777
0.143322
0.142933
0.142607
0.142347
0.142152
0.142023
0.141959
0.141959
0.142023
0.142153
0.142348
0.142608
0.142933
0.143326
0.143785
0.14431
0.144899
0.145554
0.146271
0.147051
0.147893
0.148799
0.149765
0.150793
0.151882
0.153032
0.15424
0.155506
0.156827
0.158202
0.159631
0.161118
0.165269
0.163751
0.162294
0.160894
0.15955
0.158261
0.157031
0.155859
0.154747
0.153695
0.152705
0.15178
0.150921
0.150126
0.149398
0.148737
0.148142
0.147612
0.147149
0.146753
0.146422
0.146157
0.145958
0.145827
0.145761
0.145761
0.145827
0.145959
0.146158
0.146422
0.146753
0.147153
0.14762
0.148154
0.148754
0.149421
0.150152
0.150947
0.151805
0.152729
0.153714
0.154761
0.155871
0.157044
0.158277
0.159568
0.160916
0.162319
0.163776
0.165295
0.169574
0.168023
0.166536
0.165106
0.163733
0.162418
0.161162
0.159967
0.158832
0.157759
0.156749
0.155807
0.15493
0.15412
0.153377
0.152704
0.152096
0.151557
0.151085
0.150681
0.150344
0.150074
0.149871
0.149738
0.149671
0.149671
0.149738
0.149873
0.150075
0.150344
0.150681
0.151088
0.151564
0.152108
0.15272
0.1534
0.154145
0.154955
0.155831
0.156773
0.157778
0.158847
0.15998
0.161176
0.162434
0.163752
0.165127
0.16656
0.168048
0.169599
0.174014
0.172429
0.170909
0.169448
0.168046
0.166703
0.165421
0.1642
0.163042
0.161946
0.160915
0.159954
0.159059
0.158232
0.157475
0.156787
0.156168
0.155618
0.155137
0.154725
0.154381
0.154105
0.153899
0.153762
0.153695
0.153695
0.153763
0.153901
0.154107
0.154381
0.154725
0.15514
0.155625
0.15618
0.156803
0.157496
0.158257
0.159084
0.159978
0.160939
0.161966
0.163057
0.164213
0.165435
0.166719
0.168065
0.16947
0.170933
0.172454
0.174039
0.178596
0.176975
0.175422
0.173928
0.172496
0.171123
0.169813
0.168565
0.167382
0.166263
0.165211
0.164229
0.163315
0.162471
0.161698
0.160996
0.160363
0.159802
0.159311
0.158891
0.158539
0.158258
0.158048
0.157909
0.15784
0.15784
0.15791
0.15805
0.158261
0.158541
0.15889
0.159314
0.159808
0.160374
0.161011
0.161719
0.162495
0.16334
0.164253
0.165235
0.166284
0.167398
0.168579
0.169827
0.171139
0.172514
0.17395
0.175446
0.177
0.17862
0.183328
0.181671
0.180082
0.178554
0.177089
0.175686
0.174346
0.173071
0.171862
0.170718
0.169643
0.16864
0.167707
0.166844
0.166053
0.165336
0.16469
0.164117
0.163616
0.163186
0.162828
0.162541
0.162326
0.162184
0.162113
0.162114
0.162185
0.162329
0.162544
0.162829
0.163186
0.163618
0.164123
0.164701
0.165351
0.166073
0.166866
0.16773
0.168663
0.169667
0.17074
0.171879
0.173086
0.174361
0.175702
0.177108
0.178576
0.180106
0.181695
0.183353
0.188219
0.186523
0.184897
0.183334
0.181836
0.1804
0.179029
0.177725
0.176489
0.17532
0.17422
0.173195
0.172241
0.171359
0.17055
0.169817
0.169156
0.168571
0.168058
0.16762
0.167253
0.16696
0.16674
0.166595
0.166524
0.166524
0.166597
0.166744
0.166964
0.167255
0.16762
0.168061
0.168577
0.169167
0.16983
0.170569
0.17138
0.172263
0.173218
0.174244
0.175342
0.176507
0.177741
0.179045
0.180417
0.181854
0.183356
0.184921
0.186547
0.193277
0.191541
0.189877
0.188277
0.186743
0.185274
0.183871
0.182536
0.181271
0.180075
0.178951
0.177902
0.176926
0.176024
0.175196
0.174446
0.173771
0.173172
0.172648
0.172199
0.171824
0.171525
0.1713
0.171152
0.171079
0.171079
0.171154
0.171304
0.171529
0.171827
0.1722
0.17265
0.173177
0.17378
0.174459
0.175214
0.176044
0.176948
0.177924
0.178975
0.180098
0.18129
0.182553
0.183887
0.185291
0.186762
0.188299
0.1899
0.198512
0.196734
0.19503
0.193391
0.19182
0.190316
0.18888
0.187513
0.186218
0.184994
0.183844
0.18277
0.181771
0.180848
0.180001
0.179232
0.178541
0.177929
0.177392
0.176933
0.17655
0.176244
0.176014
0.175862
0.175787
0.175788
0.175865
0.176018
0.176248
0.176553
0.176935
0.177395
0.177934
0.17855
0.179244
0.180017
0.180866
0.181792
0.182792
0.183867
0.185017
0.186238
0.18753
0.188897
0.190333
0.191839
0.193413
0.203934
0.202111
0.200365
0.198687
0.197077
0.195537
0.194066
0.192665
0.191339
0.190086
0.188908
0.187808
0.186786
0.18584
0.184972
0.184185
0.183478
0.182851
0.182302
0.181831
0.181439
0.181126
0.180891
0.180735
0.180659
0.180659
0.180738
0.180895
0.181131
0.181443
0.181834
0.182305
0.182856
0.183486
0.184196
0.184988
0.185857
0.186805
0.18783
0.188931
0.190109
0.191359
0.192683
0.194083
0.195554
0.197096
0.209552
0.207684
0.205894
0.204174
0.202524
0.200946
0.199438
0.198003
0.196644
0.19536
0.194154
0.193027
0.191979
0.19101
0.190121
0.189314
0.18859
0.187947
0.187385
0.186903
0.186502
0.186181
0.18594
0.185781
0.185702
0.185703
0.185783
0.185945
0.186186
0.186506
0.186906
0.187388
0.187952
0.188597
0.189325
0.190135
0.191026
0.191997
0.193048
0.194177
0.195384
0.196665
0.198022
0.199455
0.200963
0.215377
0.213462
0.211627
0.209863
0.208172
0.206554
0.205008
0.203536
0.202144
0.200828
0.199591
0.198436
0.197362
0.196369
0.195457
0.19463
0.193887
0.193229
0.192653
0.192159
0.191748
0.191419
0.191172
0.191009
0.190928
0.190929
0.191012
0.191177
0.191424
0.191752
0.192163
0.192656
0.193233
0.193894
0.19464
0.19547
0.196383
0.197379
0.198456
0.199614
0.200851
0.202165
0.203556
0.205026
0.206571
0.221422
0.219457
0.217575
0.215766
0.214031
0.212372
0.210787
0.209277
0.207849
0.2065
0.205232
0.204047
0.202946
0.201927
0.200992
0.200143
0.199382
0.198707
0.198116
0.19761
0.197188
0.196851
0.196598
0.19643
0.196347
0.196348
0.196433
0.196603
0.196857
0.197193
0.197614
0.198119
0.198711
0.199388
0.200152
0.201003
0.20194
0.202962
0.204067
0.205254
0.206523
0.207871
0.209297
0.210805
0.21239
0.227698
0.225681
0.223751
0.221895
0.220115
0.218412
0.216786
0.215237
0.213771
0.212387
0.211087
0.209871
0.208742
0.207696
0.206736
0.205866
0.205084
0.204392
0.203786
0.203267
0.202834
0.202488
0.202228
0.202056
0.201971
0.201972
0.20206
0.202233
0.202494
0.202839
0.203271
0.203789
0.204395
0.20509
0.205874
0.206747
0.207708
0.208756
0.20989
0.211108
0.212411
0.213794
0.215258
0.216804
0.21843
0.234218
0.232148
0.230167
0.228262
0.226435
0.224687
0.223018
0.221428
0.219924
0.218504
0.217169
0.215921
0.214762
0.213688
0.212703
0.211809
0.211007
0.210297
0.209675
0.209143
0.208698
0.208343
0.208077
0.2079
0.207812
0.207813
0.207903
0.208081
0.20835
0.208704
0.209147
0.209678
0.2103
0.211012
0.211817
0.212712
0.213699
0.214775
0.21594
0.21719
0.218527
0.219947
0.22145
0.223037
0.224706
0.240997
0.238872
0.236838
0.234882
0.233006
0.231211
0.229497
0.227865
0.22632
0.224862
0.223491
0.222209
0.22102
0.219917
0.218906
0.217988
0.217164
0.216434
0.215796
0.21525
0.214793
0.214429
0.214155
0.213973
0.213883
0.213884
0.213977
0.21416
0.214435
0.214799
0.215254
0.215799
0.216437
0.217168
0.217994
0.218913
0.219927
0.221032
0.222228
0.223512
0.224885
0.226343
0.227886
0.229516
0.231229
0.248049
0.245866
0.243777
0.241769
0.239842
0.237998
0.236237
0.23456
0.232974
0.231476
0.230068
0.228751
0.227529
0.226397
0.225357
0.224414
0.223568
0.222818
0.222163
0.221602
0.221133
0.220759
0.220477
0.22029
0.220198
0.220199
0.220294
0.220482
0.220765
0.221139
0.221606
0.222166
0.22282
0.223571
0.22442
0.225364
0.226405
0.227541
0.22877
0.230088
0.231499
0.232997
0.234583
0.236257
0.238016
0.255391
0.253147
0.251001
0.248938
0.246959
0.245063
0.243253
0.241531
0.2399
0.238361
0.236915
0.235562
0.234306
0.233142
0.232073
0.231104
0.230234
0.229463
0.22879
0.228213
0.227732
0.227348
0.227058
0.226865
0.22677
0.226771
0.22687
0.227063
0.227353
0.227738
0.228218
0.228794
0.229466
0.230237
0.231108
0.232078
0.233149
0.234316
0.23558
0.236934
0.238384
0.239924
0.241554
0.243274
0.263039
0.260732
0.258527
0.256407
0.254372
0.252423
0.250563
0.248792
0.247116
0.245534
0.244048
0.242656
0.241365
0.240168
0.23907
0.238073
0.237178
0.236386
0.235693
0.235101
0.234606
0.234211
0.233913
0.233714
0.233617
0.233618
0.233719
0.233918
0.234217
0.234613
0.235106
0.235698
0.236388
0.23718
0.238077
0.239074
0.240174
0.241375
0.242674
0.244067
0.245557
0.24714
0.248816
0.250583
0.271011
0.268639
0.266372
0.264193
0.262101
0.260096
0.258183
0.256362
0.254638
0.253012
0.251484
0.250052
0.248724
0.247493
0.246363
0.245338
0.244418
0.243603
0.242891
0.242282
0.241772
0.241366
0.24106
0.240855
0.240754
0.240755
0.24086
0.241064
0.241371
0.241779
0.242287
0.242896
0.243605
0.244419
0.245341
0.246366
0.247498
0.248733
0.25007
0.251502
0.253035
0.254663
0.256386
0.258204
0.279327
0.276887
0.274557
0.272315
0.270163
0.268101
0.266132
0.26426
0.262486
0.260813
0.259241
0.257769
0.256401
0.255135
0.250399
0.249773
0.249249
0.248831
0.248516
0.248304
0.248201
0.248202
0.248309
0.248519
0.248836
0.249256
0.249779
0.250405
0.251134
0.251972
0.25292
0.253974
0.255138
0.25641
0.257786
0.259259
0.260836
0.262511
0.264284
0.266154
0.260833
0.261918
0.263116
0.264425
0.265841
0.267358
0.268981
0.270705
0.27253
0.274454
0.279267
0.281146
0.283125
0.0594169
0.0617188
0.0640363
0.0663628
0.0686931
0.0710259
0.0733628
0.0757066
0.0780616
0.0804342
0.0828323
0.0852638
0.0877376
0.0902626
0.0928464
0.0954945
0.0982093
0.100988
0.103825
0.106708
0.109633
0.112598
0.115609
0.11867
0.121785
0.124959
0.128197
0.131505
0.134886
0.138348
0.141894
0.14553
0.149262
0.153096
0.157038
0.161094
0.165271
0.169576
0.174015
0.178597
0.183329
0.188219
0.193277
0.198512
0.203933
0.20955
0.215376
0.22142
0.227696
0.234216
0.240994
0.248046
0.255388
0.263035
0.271007
0.279323
0.0606923
0.0630078
0.0653345
0.0676675
0.0700033
0.072342
0.074686
0.0770398
0.0794089
0.0818002
0.0842218
0.0866824
0.089191
0.0917556
0.0943829
0.0970771
0.0998376
0.102659
0.105531
0.108446
0.111403
0.114402
0.11745
0.120551
0.12371
0.126932
0.130221
0.133583
0.137023
0.140546
0.144159
0.147865
0.151672
0.155586
0.159612
0.163757
0.168028
0.172433
0.176978
0.181672
0.186523
0.19154
0.196731
0.202107
0.207679
0.213456
0.21945
0.225673
0.232139
0.238862
0.245855
0.253136
0.26072
0.268626
0.276874
0.0713502
0.0736969
0.0760511
0.0784179
0.0808038
0.0832171
0.0856657
0.0881591
0.0907057
0.0933133
0.095987
0.0987281
0.101533
0.104393
0.107299
0.110247
0.113237
0.116273
0.119361
0.122506
0.125712
0.128984
0.132328
0.135748
0.13925
0.14284
0.146523
0.150304
0.154191
0.158189
0.162304
0.166544
0.170916
0.175428
0.180086
0.1849
0.189878
0.195029
0.200363
0.20589
0.211621
0.217567
0.223741
0.230156
0.236824
0.243762
0.250984
0.258508
0.266351
0.274533
0.0703838
0.0727335
0.0750894
0.0774558
0.0798385
0.0822449
0.0846837
0.0871638
0.0896939
0.0922826
0.0949361
0.0976576
0.100445
0.103293
0.106189
0.109129
0.11211
0.115136
0.118213
0.121344
0.124535
0.127791
0.131117
0.134519
0.138001
0.141569
0.14523
0.148987
0.152848
0.15682
0.160907
0.165118
0.16946
0.173939
0.178564
0.183342
0.188284
0.193396
0.19869
0.204175
0.209863
0.215764
0.22189
0.228255
0.234872
0.241756
0.248922
0.256388
0.264171
0.27229
0.0694483
0.0718011
0.0741589
0.076525
0.0789053
0.0813067
0.0837369
0.0862053
0.0887207
0.0912919
0.0939262
0.096628
0.0993978
0.102231
0.105117
0.108048
0.111021
0.114038
0.117104
0.120223
0.1234
0.126642
0.129952
0.133336
0.136799
0.140347
0.143986
0.147721
0.151558
0.155504
0.159565
0.163748
0.16806
0.172509
0.177101
0.181846
0.186753
0.191829
0.197084
0.20253
0.208176
0.214033
0.220115
0.226433
0.233001
0.239834
0.246947
0.254357
0.262083
0.270142
0.0709003
0.0732607
0.0756282
0.0780074
0.0804047
0.0828283
0.0852866
0.0877888
0.0903442
0.0929603
0.0956432
0.0983948
0.101212
0.104087
0.10701
0.109975
0.112983
0.116039
0.119147
0.122312
0.125539
0.128834
0.132201
0.135647
0.139176
0.142794
0.146508
0.150322
0.154244
0.15828
0.162436
0.16672
0.171139
0.175701
0.180414
0.185286
0.190327
0.195546
0.200954
0.20656
0.212376
0.218415
0.224688
0.23121
0.237995
0.245058
0.252416
0.260086
0.268089
0.0700323
0.0723951
0.074764
0.0771431
0.0795379
0.0819563
0.0844061
0.086897
0.0894378
0.0920374
0.0947021
0.0974358
0.100237
0.1031
0.106014
0.108972
0.111972
0.115019
0.118116
0.121269
0.124483
0.127764
0.131116
0.134545
0.138056
0.141655
0.145349
0.149142
0.153041
0.157053
0.161184
0.165441
0.169833
0.174365
0.179048
0.183889
0.188896
0.194081
0.199451
0.20502
0.210796
0.216794
0.223024
0.229501
0.23624
0.243255
0.250562
0.258181
0.266129
0.0691956
0.0715621
0.0739333
0.076313
0.0787064
0.0811204
0.0835634
0.0860444
0.0885727
0.0911572
0.0938051
0.0965214
0.0993068
0.102156
0.105061
0.108012
0.111006
0.114044
0.117132
0.120274
0.123477
0.126744
0.130081
0.133495
0.136989
0.14057
0.144245
0.148017
0.151895
0.155885
0.159992
0.164225
0.16859
0.173095
0.177749
0.182559
0.187535
0.192687
0.198023
0.203556
0.209295
0.215253
0.221443
0.227878
0.234572
0.241541
0.2488
0.256369
0.264265
0.0683954
0.0707657
0.0731395
0.0755207
0.0779135
0.0803246
0.082762
0.0852345
0.0877516
0.0903224
0.0929545
0.0956542
0.0984236
0.10126
0.104155
0.107099
0.110086
0.113117
0.116196
0.119329
0.12252
0.125775
0.1291
0.132499
0.135978
0.139542
0.143199
0.146952
0.15081
0.154778
0.158863
0.163072
0.167412
0.171891
0.176517
0.181298
0.186245
0.191365
0.196669
0.202167
0.207871
0.213792
0.219943
0.226338
0.23299
0.239915
0.24713
0.254651
0.262498
0.0676342
0.0700073
0.0723839
0.0747662
0.0771591
0.0795685
0.0820017
0.0844674
0.0869747
0.0895331
0.0921509
0.094835
0.0975891
0.100412
0.103297
0.106233
0.109214
0.112239
0.115311
0.118435
0.121616
0.12486
0.128173
0.131558
0.135023
0.138572
0.142212
0.145948
0.149787
0.153735
0.157798
0.161985
0.166302
0.170756
0.175357
0.180111
0.185029
0.190119
0.195392
0.200858
0.206528
0.212414
0.218529
0.224885
0.231498
0.238382
0.245553
0.253029
0.260829
0.0669121
0.0692886
0.0716685
0.0740533
0.0764469
0.0788552
0.0812849
0.0837446
0.0862432
0.0887902
0.0913948
0.0940644
0.0968038
0.0996134
0.102488
0.105417
0.108392
0.111411
0.114476
0.117592
0.120764
0.123998
0.127299
0.130673
0.134124
0.137659
0.141284
0.145004
0.148825
0.152754
0.156798
0.160964
0.165259
0.16969
0.174266
0.178995
0.183886
0.188949
0.194192
0.199628
0.205267
0.21112
0.2172
0.22352
0.230095
0.23694
0.244071
0.251505
0.25926
0.0662269
0.0686063
0.0709894
0.0733772
0.0757726
0.0781809
0.0806084
0.0830633
0.0855548
0.0880923
0.0906853
0.0933417
0.0960672
0.0988637
0.101727
0.104649
0.107618
0.110632
0.113691
0.1168
0.119965
0.12319
0.12648
0.129843
0.133282
0.136804
0.140414
0.144118
0.147923
0.151835
0.155861
0.160007
0.164281
0.168691
0.173245
0.17795
0.182817
0.187854
0.193071
0.198478
0.204087
0.209909
0.215958
0.222245
0.228785
0.235594
0.242686
0.250081
0.257795
0.0655862
0.0679678
0.0703537
0.0727438
0.0751408
0.0775491
0.0799752
0.0824267
0.0849124
0.0874416
0.0900244
0.0926689
0.0953817
0.0981657
0.101018
0.103932
0.106896
0.109905
0.112958
0.116061
0.119218
0.122435
0.125716
0.129068
0.132496
0.136006
0.139603
0.143293
0.147083