/*--------------------------------*- C++ -*----------------------------------*\
  =========                 |
  \\      /  F ield         | OpenFOAM: The Open Source CFD Toolbox
   \\    /   O peration     | Website:  https://openfoam.org
    \\  /    A nd           | Version:  7
     \\/     M anipulation  |
\*---------------------------------------------------------------------------*/
FoamFile
{
    version     2.0;
    format      ascii;
    class       surfaceScalarField;
    location    "72000";
    object      phi;
}
// * * * * * * * * * * * * * * * * * * * * * * * * * * * * * * * * * * * * * //

dimensions      [0 3 -1 0 0 0 0];

internalField   nonuniform List<scalar> 
9490
(
-2.01366e-23
1.30198e-22
2.22346e-23
-1.76533e-23
-2.03986e-23
1.42083e-22
2.28557e-23
-2.19104e-23
-1.86327e-23
-1.87371e-23
1.45582e-22
-1.23488e-23
6.52143e-23
5.24752e-23
-2.06748e-23
1.42141e-22
2.22446e-23
-2.10821e-23
1.40585e-23
-1.95243e-23
7.84862e-23
-1.14334e-23
6.04511e-23
5.42674e-23
-2.07686e-23
1.78198e-22
2.15703e-23
-2.189e-23
1.35302e-23
-1.9432e-23
1.40635e-22
-1.1396e-23
1.09854e-22
5.1353e-23
-2.01021e-23
1.40354e-22
2.10958e-23
-2.17583e-23
-4.26005e-23
-1.91343e-23
1.37366e-22
-1.15949e-23
1.38419e-22
4.60533e-23
-2.15521e-23
7.70663e-23
2.04784e-23
-2.05816e-23
-7.54219e-23
-2.00689e-23
1.04746e-22
-1.16183e-23
1.09996e-22
-1.19341e-23
-2.18265e-23
7.90849e-23
2.16893e-23
-2.03264e-23
-4.63052e-23
-1.90237e-23
1.02288e-22
-1.24422e-23
5.59743e-23
-1.07011e-23
-2.12038e-23
1.14709e-22
2.23474e-23
-1.99239e-23
-4.51036e-23
-1.85506e-23
1.0381e-22
-1.26915e-23
4.09073e-23
-4.59736e-23
-2.21606e-23
1.14778e-22
2.16753e-23
-1.906e-23
2.51934e-23
-1.89927e-23
1.0871e-22
-1.30194e-23
5.14307e-23
-4.58123e-23
-2.26076e-23
1.17427e-22
2.01039e-23
-1.8724e-23
1.37132e-22
-1.95327e-23
1.12045e-22
-1.3384e-23
7.14828e-23
-4.56069e-23
-2.17289e-23
5.84276e-23
1.91274e-23
-1.95848e-23
1.35708e-22
-1.90329e-23
1.15454e-22
-1.41577e-23
9.61495e-23
-1.78878e-23
-2.08815e-23
6.10458e-23
1.87279e-23
-1.9926e-23
1.33852e-22
-2.02728e-23
1.17926e-22
-1.44638e-23
8.93233e-23
-1.94313e-23
-1.92386e-23
3.09033e-23
1.85872e-23
-2.02802e-23
9.657e-23
-2.09944e-23
8.87431e-23
-1.471e-23
7.99624e-23
-1.9103e-23
3.14164e-23
1.80107e-23
-2.01096e-23
9.97716e-23
-2.12274e-23
6.14419e-23
6.50722e-23
-1.89156e-23
3.22001e-23
1.85e-23
-2.01722e-23
1.0365e-22
-2.20181e-23
6.701e-23
1.1234e-22
-1.88525e-23
-2.95248e-23
1.81079e-23
-1.95953e-23
1.42527e-22
-2.21223e-23
7.4191e-23
-1.84019e-23
3.45724e-23
1.82858e-23
-1.98403e-23
1.50188e-22
4.02242e-23
-1.77452e-23
5.71442e-25
1.78137e-23
-1.96146e-23
1.55669e-22
-1.7351e-23
2.89314e-24
1.80231e-23
1.55719e-22
-1.74906e-23
1.93234e-23
1.73216e-23
1.58044e-22
-1.69609e-23
-9.15593e-24
1.6562e-23
1.32759e-22
-1.69984e-23
2.94248e-23
1.62127e-23
1.13953e-22
-1.64134e-23
6.93112e-23
1.6535e-23
1.57474e-23
-1.34817e-23
1.05059e-22
1.47645e-23
-7.38181e-24
2.16462e-24
-1.10449e-23
4.74808e-23
-5.19118e-24
9.89236e-23
-2.95948e-24
1.17147e-22
8.89508e-24
7.6631e-23
-6.36313e-24
6.79364e-23
-2.7397e-24
3.92621e-23
2.01846e-25
2.1365e-22
-2.29954e-24
3.23585e-23
9.00944e-24
5.17587e-23
3.53917e-24
4.58036e-23
-7.32583e-24
7.63684e-23
1.65049e-23
7.14693e-23
1.50095e-23
1.16562e-22
2.49367e-23
1.49661e-22
1.85829e-23
1.36881e-22
2.05404e-23
9.60076e-23
-1.96495e-24
-2.53028e-23
-1.10905e-23
-1.42886e-23
1.1983e-22
1.52651e-23
-7.14912e-24
1.26211e-22
-9.39746e-24
3.81809e-24
-6.84358e-24
9.46498e-23
-3.3351e-24
6.75698e-23
6.28209e-24
6.3961e-23
-6.2684e-24
9.26707e-23
-2.68934e-26
2.80638e-23
-7.95639e-25
2.41598e-22
-4.09262e-24
3.21298e-23
8.68225e-24
4.6342e-23
3.80156e-24
9.15194e-24
-9.95947e-24
1.30244e-23
1.635e-23
1.12822e-22
1.7601e-23
1.76003e-22
2.62339e-23
1.45248e-22
1.50363e-23
1.35751e-22
1.77061e-23
6.33021e-23
-3.94774e-24
-7.03318e-23
4.88766e-23
-1.13775e-23
8.02364e-23
1.42442e-23
-9.81958e-24
6.76476e-23
-9.216e-24
-5.06676e-24
-7.26349e-24
8.18815e-23
-3.33724e-24
3.48337e-23
5.10314e-24
5.64405e-23
-6.44511e-24
1.19348e-22
1.668e-24
1.36926e-23
-2.2063e-24
2.39334e-22
-4.75292e-24
2.81856e-23
7.25963e-24
3.72611e-23
2.58118e-24
8.45742e-24
-7.79276e-24
5.50292e-23
1.64898e-23
1.02279e-22
1.77105e-23
1.5574e-22
2.706e-23
1.05789e-22
1.32877e-23
1.02342e-22
1.51135e-23
6.69516e-23
-2.6252e-24
-5.24213e-23
2.5749e-23
-1.20639e-23
8.61497e-23
1.24827e-23
-1.03775e-23
3.5867e-23
-8.75687e-24
2.86764e-23
-8.78714e-24
4.27727e-23
-1.93689e-24
1.06362e-22
4.1682e-24
-1.6318e-23
-5.81346e-24
6.15248e-23
4.44941e-24
6.92697e-24
-3.04139e-24
2.03851e-22
-6.78696e-24
2.13472e-23
8.34633e-24
9.20121e-23
1.77695e-24
6.55631e-24
-6.75196e-24
5.92337e-23
1.69961e-23
1.46765e-22
1.6745e-23
8.80692e-23
2.90473e-23
9.80077e-23
1.01592e-23
5.17932e-23
1.32277e-23
5.75662e-23
-2.20373e-24
-4.97464e-23
-1.65506e-24
-1.28398e-23
9.79617e-23
1.18115e-23
-1.14547e-23
7.45486e-23
-8.56163e-24
7.07909e-24
-6.81228e-24
4.85902e-23
-4.12483e-24
1.08363e-22
4.46578e-24
-1.8162e-23
-5.36504e-24
6.23349e-23
4.9131e-24
6.56138e-23
-3.52332e-24
1.62174e-22
-7.73859e-24
2.48445e-24
6.89331e-24
1.00832e-22
1.53263e-24
-1.82291e-24
-4.46176e-24
2.56908e-23
1.49486e-23
7.81418e-23
1.63043e-23
6.36877e-23
2.98053e-23
1.08801e-22
7.84578e-24
7.80952e-25
1.20208e-23
5.41596e-23
-3.73164e-24
-3.94951e-23
5.44847e-23
-1.23793e-23
4.76931e-23
1.21641e-23
-1.27207e-23
8.16864e-23
-9.36693e-24
1.20644e-23
-5.36464e-24
6.95748e-23
-5.74449e-24
1.12484e-22
3.14811e-24
-2.03734e-23
-1.29508e-24
6.13972e-23
4.71207e-24
4.57083e-23
-3.67782e-24
1.34022e-22
-7.04959e-24
-7.33489e-23
6.35711e-24
1.52873e-22
1.35443e-24
-1.93039e-23
-3.29652e-24
9.9309e-23
1.35263e-23
1.25563e-22
1.69626e-23
1.2841e-22
2.81121e-23
1.20341e-22
7.14943e-24
-4.28049e-24
1.11261e-23
2.79412e-23
-3.34648e-24
-2.1416e-23
4.94482e-23
-1.25541e-23
1.24708e-23
1.10683e-23
-1.22695e-23
1.24141e-22
-8.59155e-24
2.91699e-23
-5.23691e-24
4.53878e-23
-7.892e-24
1.24272e-22
2.99599e-24
-8.73354e-24
9.62079e-25
1.50625e-22
3.10114e-24
3.4216e-23
-3.94222e-24
1.36846e-22
-5.53051e-24
-6.26063e-23
3.9972e-24
1.71167e-22
1.69054e-24
1.35239e-23
-3.28331e-24
8.74091e-23
1.41522e-23
9.4828e-23
1.48276e-23
9.29164e-23
2.62002e-23
8.30016e-23
6.5779e-24
-7.66752e-23
1.20002e-23
2.91793e-23
-3.50381e-24
-6.78843e-24
9.52882e-23
-1.01768e-23
4.23048e-23
1.1973e-23
-1.40282e-23
6.30341e-23
-9.01147e-24
4.12381e-23
-3.77351e-24
-2.20355e-24
-8.58887e-24
9.66018e-23
4.34911e-24
-9.00902e-24
3.00049e-24
2.14935e-22
8.28891e-25
-2.30412e-23
-4.50279e-24
1.10959e-22
-3.82596e-24
-6.48372e-23
2.67458e-24
1.68368e-22
1.31794e-24
1.45883e-23
-1.31114e-24
1.04628e-22
1.28606e-23
9.39294e-23
1.40086e-23
5.28972e-23
2.49943e-23
8.54829e-23
7.3473e-24
-7.15728e-23
1.33716e-23
3.54003e-23
-3.3044e-24
-3.78891e-23
2.80685e-24
6.86298e-23
2.6859e-24
-6.36338e-23
5.32561e-24
1.24596e-23
4.35717e-24
-3.03014e-23
3.98383e-24
-1.58498e-23
-6.74104e-24
-1.02006e-24
-3.05236e-24
2.07568e-23
6.3944e-24
1.0223e-22
-2.20232e-24
5.13046e-24
3.76122e-24
2.44454e-23
2.20656e-24
-3.37231e-23
9.61436e-24
-7.9051e-24
1.48015e-23
-6.06803e-23
6.65286e-25
-1.87868e-23
3.88414e-24
-4.36878e-23
7.29656e-24
-8.63663e-24
1.27126e-22
1.26907e-23
-1.46292e-23
3.28533e-23
-8.26267e-24
5.31409e-23
-2.46775e-24
3.53093e-24
-8.8732e-24
1.53018e-22
5.61707e-24
4.9663e-23
2.4036e-24
1.61565e-22
-1.5226e-25
4.81204e-24
-5.45347e-24
1.7959e-22
-1.25829e-24
-3.41407e-23
3.05008e-24
1.78906e-22
3.33723e-25
-6.42962e-23
-8.22424e-25
1.04215e-22
1.08077e-23
9.04657e-23
1.3671e-23
5.05915e-23
2.21086e-23
7.88758e-23
8.20622e-24
-2.27209e-23
1.35193e-23
3.24162e-23
-2.61322e-24
-1.19298e-22
7.31623e-25
4.19091e-23
3.40198e-24
3.8748e-24
4.19925e-24
3.05575e-23
4.39443e-24
-1.99138e-23
5.15926e-24
-6.49949e-24
-7.9151e-24
-6.23616e-23
-1.68656e-24
2.93589e-23
3.83634e-24
9.72452e-23
-2.98115e-24
-1.51246e-23
3.08755e-24
1.6972e-23
1.68029e-24
-5.41433e-23
9.3872e-24
-2.80824e-24
1.41671e-23
-1.02532e-22
6.74693e-25
-3.97407e-23
4.83563e-24
-5.9946e-23
-3.40571e-24
1.54001e-23
-5.43814e-24
-1.07465e-23
-6.19092e-23
-1.03855e-23
6.6391e-23
9.67409e-24
-1.47219e-23
3.04928e-24
-8.54693e-24
1.3223e-22
-1.50875e-24
5.26408e-24
-7.92117e-24
1.58571e-22
4.10527e-24
-2.23657e-23
1.90937e-24
1.01197e-22
1.63437e-24
1.72401e-23
-6.67499e-24
1.19028e-22
-7.30516e-25
-3.82295e-23
1.18438e-24
1.89052e-22
1.52253e-24
1.23604e-23
-2.40519e-26
1.73612e-22
9.29993e-24
8.90213e-23
1.37167e-23
4.72272e-23
2.1416e-23
1.42134e-24
7.90543e-24
-5.45125e-24
1.23692e-23
5.32125e-23
-9.7823e-25
-8.99659e-23
1.00277e-24
2.75028e-23
3.33446e-24
-4.8511e-23
2.92633e-24
1.993e-23
3.96839e-24
-1.62372e-23
4.84333e-24
1.01156e-23
-6.99399e-24
-4.94084e-23
-1.0791e-24
4.20616e-23
2.14315e-24
8.6339e-23
-4.05411e-24
-1.13728e-23
2.93819e-24
1.32298e-23
1.20126e-24
-4.83876e-23
8.7331e-24
-5.71499e-24
1.39628e-23
-1.12107e-22
1.29794e-25
-1.02538e-22
7.26074e-24
-4.08427e-23
-4.16628e-24
-4.89752e-23
-6.49148e-24
-3.72729e-23
-4.80877e-24
-6.18771e-23
-8.12679e-25
-9.93952e-24
5.94055e-23
8.9232e-24
-1.50721e-23
-2.27619e-23
-8.39782e-24
1.65964e-22
4.9185e-25
3.27903e-23
-1.08681e-23
7.95396e-23
4.577e-24
4.20853e-24
2.76435e-24
5.29547e-23
1.52861e-24
3.82442e-23
-7.35874e-24
9.07755e-23
1.5028e-24
-4.2687e-23
3.70369e-25
1.08478e-22
2.34076e-24
1.49393e-23
-6.52856e-25
1.779e-22
6.79152e-24
8.88658e-23
1.27375e-23
7.36741e-23
2.22148e-23
5.2492e-23
8.21651e-24
-1.79136e-23
1.19522e-23
4.07045e-23
-5.58561e-25
-3.08019e-23
6.75273e-25
3.33919e-23
3.82467e-24
-5.76484e-23
2.23298e-24
1.17698e-23
3.93617e-24
7.86898e-24
4.69792e-24
1.10643e-23
-6.03478e-24
-3.77917e-23
-1.38086e-24
2.98643e-23
9.81258e-25
8.3663e-23
-5.47745e-24
-8.32527e-23
3.33906e-24
-3.61849e-24
3.69993e-25
-7.14804e-23
7.85221e-24
3.61248e-23
1.26863e-23
-4.90029e-23
1.51217e-24
-9.03374e-23
6.20115e-24
-4.86408e-23
-3.57181e-24
-3.67681e-23
-5.24196e-24
-2.9707e-23
-4.66677e-24
-6.32507e-23
-4.38059e-24
-2.36226e-23
8.0672e-24
-3.4049e-23
8.35656e-24
-9.47757e-24
5.38206e-23
9.25334e-24
-1.43122e-23
-1.57658e-23
-9.09002e-24
1.96262e-22
-4.6055e-25
2.07845e-23
-1.05001e-23
9.30724e-23
3.4505e-24
3.22416e-24
4.63007e-24
1.92513e-23
1.9365e-24
8.3438e-23
-7.22744e-24
9.73633e-23
1.07721e-24
2.57938e-23
1.65836e-24
1.18982e-22
2.99741e-24
2.4498e-23
-9.74543e-25
1.37712e-22
6.59093e-24
1.12527e-22
1.15165e-23
1.2101e-22
2.08669e-23
1.14069e-22
8.32607e-24
2.59904e-23
1.28598e-23
-7.13595e-24
-1.17037e-24
-8.29119e-23
2.84093e-25
2.36112e-23
5.02072e-24
1.52042e-24
1.99371e-24
9.35973e-24
3.33495e-24
1.03421e-23
4.70854e-24
6.67034e-24
-5.58859e-24
-1.48547e-23
-1.491e-24
1.54131e-23
-1.47813e-24
9.35299e-23
-5.73576e-24
-8.26466e-23
2.80514e-24
5.6667e-23
8.9177e-25
-5.9208e-23
7.89115e-24
3.19282e-23
9.91848e-24
-5.41959e-23
2.88733e-24
-5.40434e-23
5.57027e-24
-3.95002e-23
-2.16302e-24
-2.33187e-23
-4.65278e-24
-4.56416e-23
-5.14761e-24
-5.57101e-23
-3.26671e-24
6.14042e-24
8.60686e-24
-2.24197e-23
-2.16868e-24
-2.07739e-23
-1.52971e-23
-2.43849e-23
-2.63256e-23
-9.9356e-24
5.50532e-23
8.25143e-24
-1.32094e-23
-5.08242e-23
-9.16443e-24
1.61684e-22
-7.27107e-25
5.39443e-24
-1.04731e-23
7.11051e-23
3.23014e-24
7.05981e-23
6.35563e-24
2.10243e-23
1.21062e-24
9.14825e-23
-7.62874e-24
9.48581e-23
1.40766e-24
1.67376e-23
2.78067e-24
3.70943e-23
4.10666e-24
4.43312e-23
-1.89892e-24
1.69691e-22
7.22866e-24
1.94735e-22
1.03857e-23
7.98128e-23
1.9343e-23
6.24684e-23
7.93573e-24
2.61664e-23
1.31949e-23
-5.33278e-24
-1.09835e-24
-6.06725e-23
4.38158e-25
9.48228e-24
4.75783e-24
1.78952e-23
1.5437e-24
-2.50933e-23
2.96198e-24
5.55331e-23
4.94897e-24
6.17719e-24
-5.64505e-24
2.58706e-24
-1.30358e-24
3.51669e-23
-3.9532e-24
2.74149e-23
-4.87971e-24
-7.55182e-23
1.95411e-24
3.84426e-24
1.9676e-24
-4.68928e-23
7.78032e-24
2.39341e-24
9.00629e-24
-5.43401e-23
3.45137e-24
-5.20221e-23
4.87118e-24
-4.40998e-23
-2.09258e-24
2.78668e-23
-4.67388e-24
-3.19668e-23
-3.47952e-24
-4.80229e-23
-3.47304e-24
-3.64212e-23
8.38963e-24
-1.15872e-23
-8.78684e-25
-4.92175e-23
-1.5537e-23
-4.32552e-23
-1.16852e-23
-2.44289e-23
-1.72798e-23
-5.17235e-23
-1.78891e-23
1.07435e-23
-2.03027e-23
-9.31417e-24
5.51916e-23
8.56335e-24
-1.24622e-23
-8.26469e-23
-9.37846e-24
1.44551e-22
-1.60319e-24
8.75862e-23
-1.05058e-23
8.2336e-23
4.11433e-24
7.36261e-23
7.65579e-24
2.61039e-23
4.09217e-25
9.78376e-23
-7.90895e-24
1.2443e-22
1.52526e-24
4.14514e-23
4.1469e-24
4.41416e-23
4.53333e-24
1.00377e-22
-1.77262e-25
1.23379e-22
4.93017e-24
1.24524e-22
1.03852e-23
1.20975e-22
1.76426e-23
2.14689e-23
7.31462e-24
-3.03928e-24
1.37954e-23
1.19151e-23
-1.08493e-24
-2.76063e-23
1.17421e-24
-8.50281e-24
4.13465e-24
1.08226e-23
2.2064e-24
-3.06079e-23
2.28063e-24
6.96521e-23
5.10259e-24
2.51514e-24
-5.47654e-24
-4.49307e-23
-2.61836e-24
2.70121e-24
-4.9853e-24
3.70007e-23
-4.7155e-24
-4.00747e-23
1.62703e-24
5.56347e-24
1.86624e-24
-4.38653e-23
8.12839e-24
-8.12773e-24
7.99037e-24
-8.61215e-23
4.07027e-24
-5.42123e-23
5.63703e-24
-8.39896e-23
-2.53982e-24
-3.21598e-24
-4.32022e-24
-2.2837e-23
-4.13161e-24
-3.97704e-23
-1.9256e-24
2.63791e-23
7.72204e-24
3.82627e-24
-2.34536e-25
-4.6636e-23
-1.60946e-23
-5.92654e-23
-1.09414e-23
9.35991e-24
-1.73556e-23
-7.61303e-23
-1.6343e-23
1.57893e-23
-2.07066e-23
-3.82479e-23
-2.03519e-23
1.09656e-22
-3.14965e-23
-9.12434e-24
6.13444e-23
8.83498e-24
-1.19302e-23
-4.11859e-23
-8.75395e-24
1.41194e-22
-2.38145e-24
7.51838e-23
-9.78605e-24
9.27712e-23
3.13356e-24
6.64842e-23
9.87916e-24
3.66082e-23
1.39514e-24
1.09662e-22
-8.42736e-24
1.51138e-22
7.76307e-25
7.20944e-23
5.99446e-24
8.48273e-23
5.23712e-24
9.95251e-23
-7.52484e-27
1.19584e-22
4.00059e-24
1.20227e-22
8.72127e-24
6.83958e-23
1.72573e-23
1.06245e-23
6.53744e-24
9.11227e-24
1.55438e-23
6.17586e-23
-1.93112e-24
-9.85096e-23
1.83381e-24
-2.8868e-23
3.79655e-24
5.41388e-23
3.01424e-24
-3.38882e-23
1.60932e-24
7.57384e-23
4.3896e-24
-3.02524e-23
-5.11233e-24
-6.05034e-23
-2.8654e-24
5.815e-24
-5.72754e-24
5.38515e-24
-5.04833e-24
-4.28321e-23
1.11695e-24
8.98366e-24
2.02632e-24
-7.37568e-24
7.51308e-24
-1.86488e-23
7.68469e-24
-4.25441e-23
4.27513e-24
-5.30643e-23
6.28979e-24
-5.57296e-23
-1.73739e-24
3.0718e-24
-4.32952e-24
1.62452e-23
-3.99202e-24
-2.8627e-23
-2.16835e-24
2.22285e-23
7.67226e-24
-1.54466e-23
-1.26319e-24
-3.20738e-23
-1.47161e-23
-1.12702e-22
-1.17715e-23
-2.49679e-23
-1.67874e-23
-9.62016e-23
-1.60616e-23
-1.24167e-23
-2.05057e-23
-5.58289e-23
-2.08328e-23
7.76219e-23
-2.06119e-23
-2.53337e-23
-1.14387e-23
9.44623e-23
-2.27125e-23
1.10993e-22
7.49837e-23
-9.05914e-24
6.67461e-23
9.01065e-24
-1.06665e-23
-3.77973e-23
-9.05926e-24
1.32588e-22
-1.37857e-24
9.98555e-23
-1.17988e-23
1.09001e-23
3.69639e-24
8.20548e-23
9.69736e-24
2.58335e-23
1.81883e-24
3.03189e-23
-8.75522e-24
8.45986e-23
7.22024e-25
4.85641e-23
7.04106e-24
1.49536e-22
4.73018e-24
9.57704e-23
-7.88371e-25
1.04259e-22
3.73646e-24
1.14468e-22
7.35328e-24
9.18089e-23
1.75556e-23
8.67802e-23
7.16466e-24
-1.37987e-23
1.46028e-23
5.14627e-23
-1.05497e-24
-1.12548e-22
2.76784e-24
2.23884e-23
2.98981e-24
5.50474e-23
3.90103e-24
2.01652e-23
4.16336e-25
7.93429e-23
4.0061e-24
-1.92343e-23
-4.48739e-24
-4.44162e-23
-3.41006e-24
5.68247e-23
-6.15645e-24
2.19282e-23
-4.87885e-24
-4.85926e-23
1.17335e-24
2.53028e-23
8.15778e-25
-7.30544e-24
8.10749e-24
1.22769e-23
6.11963e-24
-3.17873e-23
4.8106e-24
-5.34702e-23
6.36006e-24
-6.22886e-23
-4.43148e-25
-5.92538e-23
-5.07175e-24
-1.37703e-23
-2.96811e-24
-2.28787e-23
-1.86866e-24
1.9e-23
7.57797e-24
-3.489e-23
-1.85918e-24
-9.50735e-23
-1.41329e-23
-1.41783e-22
-1.1531e-23
-5.76697e-24
-1.54683e-23
-7.8324e-23
-1.57184e-23
1.69799e-24
-2.02901e-23
-1.337e-22
-1.99461e-23
7.38424e-24
-1.98526e-23
-1.7311e-23
-1.15466e-23
7.84521e-23
-2.23093e-23
5.90051e-23
8.7295e-23
-8.98927e-24
1.09491e-22
9.25304e-24
-1.00884e-23
-3.51876e-23
-9.03498e-24
9.69599e-23
-3.43129e-24
8.80153e-23
-1.13089e-23
1.97335e-23
3.18784e-24
6.2899e-23
9.68071e-24
2.78607e-23
3.87466e-24
4.16568e-23
-8.78748e-24
9.19897e-23
2.48273e-24
1.27255e-22
6.44362e-24
1.15423e-22
5.17138e-24
1.40829e-22
-9.71534e-25
6.67401e-23
3.42357e-24
7.44776e-23
8.04529e-24
1.13835e-22
1.59627e-23
1.36294e-22
8.25276e-24
5.89728e-23
1.28411e-23
1.16134e-23
4.16945e-25
-6.52242e-23
2.69006e-24
2.51492e-23
3.92925e-24
5.36008e-23
3.43518e-24
5.63021e-23
-6.94013e-25
7.69788e-23
3.81149e-24
1.35984e-23
-3.5246e-24
-3.55285e-23
-4.30472e-24
6.69888e-23
-7.01726e-24
-1.08593e-25
-3.94045e-24
-2.06911e-23
6.3152e-25
1.7781e-23
6.75061e-25
-1.10087e-23
8.19616e-24
3.84522e-23
5.21088e-24
-8.08652e-23
5.19105e-24
-4.9548e-23
5.90731e-24
-6.48169e-23
3.79256e-26
-9.80983e-23
-4.34356e-24
-6.88147e-23
-3.06802e-24
-5.51958e-23
-1.83299e-24
2.15635e-23
6.36255e-24
-8.83325e-23
-1.62266e-24
-9.78069e-23
-1.37835e-23
-1.92119e-22
-1.17698e-23
-6.19275e-23
-1.624e-23
-6.94688e-23
-1.56945e-23
3.3933e-23
-1.95583e-23
-1.23355e-22
-1.90129e-23
2.95667e-25
-1.8471e-23
5.63383e-23
-1.18443e-23
1.07368e-22
-2.11373e-23
4.53752e-23
1.14079e-23
-9.40287e-24
1.18705e-22
8.47885e-24
-9.70939e-24
2.9872e-23
-9.04676e-24
5.71476e-23
-3.36838e-24
7.8755e-23
-1.19215e-23
2.80926e-23
2.96272e-24
1.09132e-22
1.05648e-23
2.90136e-23
3.81871e-24
5.06639e-23
-7.57419e-24
1.39864e-22
2.1975e-24
1.21938e-22
6.97625e-24
1.8073e-22
4.94599e-24
1.8303e-22
-1.09369e-24
6.71399e-23
3.8067e-24
7.78824e-23
8.25406e-24
1.57528e-22
1.54657e-23
1.59727e-22
6.41792e-24
1.18164e-23
1.28459e-23
5.96621e-24
2.10115e-24
-3.16225e-23
2.07974e-24
4.1704e-24
5.35118e-24
5.42616e-23
2.64998e-24
5.97322e-24
-9.4459e-25
7.04625e-23
3.36491e-24
3.63896e-23
-2.44603e-24
-2.67966e-23
-5.75881e-24
4.33506e-23
-7.31807e-24
-2.29176e-23
-3.77118e-24
-2.83915e-23
2.2071e-25
2.5393e-23
1.19736e-24
5.33137e-23
6.47404e-24
-2.25248e-24
5.13544e-24
-7.82816e-23
5.07491e-24
-7.6306e-23
5.5712e-24
-6.29484e-23
9.20406e-25
-1.02796e-22
-3.69886e-24
-5.89796e-23
-2.16714e-24
-5.42981e-23
-2.99951e-24
2.60458e-23
5.51476e-24
-9.98254e-23
-1.44259e-24
-1.00261e-22
-1.25832e-23
-1.79157e-22
-1.0385e-23
-9.27497e-23
-1.53629e-23
-5.84375e-23
-1.72848e-23
5.63066e-24
-1.84929e-23
-5.04503e-23
-1.80645e-23
2.72879e-23
-1.98128e-23
1.32356e-22
-1.14144e-23
1.35993e-22
-2.13691e-23
8.0735e-24
-2.2883e-24
-9.11644e-24
1.3503e-22
7.8369e-24
-1.11173e-23
3.24232e-23
-8.70984e-24
1.11628e-22
-4.0782e-24
9.92351e-23
-1.02741e-23
2.75961e-23
2.87063e-24
1.27422e-22
1.14322e-23
2.16324e-23
5.26884e-24
1.87309e-23
-6.9678e-24
1.5202e-22
2.82164e-24
1.15226e-22
7.49904e-24
1.43393e-22
3.11914e-24
1.94832e-22
-1.25165e-24
1.08208e-22
4.94261e-24
1.57341e-22
7.73884e-24
1.17674e-22
1.37867e-23
1.50409e-22
5.42121e-24
2.02397e-23
1.30564e-23
-1.19703e-24
3.05497e-24
-3.05487e-23
1.97384e-24
-1.53179e-23
5.86511e-24
9.36996e-23
2.49939e-24
-1.66191e-23
-1.09098e-24
1.01794e-22
2.73101e-24
2.96545e-23
-1.99233e-24
-1.60586e-23
-7.02097e-24
-3.88761e-23
-7.31379e-24
-1.67481e-23
-3.05819e-24
-3.40389e-23
9.92979e-25
2.694e-23
-4.74091e-25
2.1553e-23
6.30308e-24
2.06393e-23
4.49818e-24
-7.52233e-23
5.46304e-24
-3.88486e-23
5.51851e-24
2.3465e-24
1.38256e-24
-1.12595e-22
-2.63143e-24
-5.1297e-23
-1.38924e-24
-5.61168e-23
-3.73384e-24
-2.28207e-24
5.27207e-24
-1.07769e-22
-1.70704e-24
-6.03841e-23
-1.20724e-23
-1.70637e-22
-9.42145e-24
-1.27815e-22
-1.52355e-23
-8.17945e-23
-1.71752e-23
6.96715e-24
-1.9528e-23
-4.19147e-23
-1.6858e-23
2.23764e-23
-2.05125e-23
8.7081e-23
-1.2069e-23
1.25244e-22
-2.07149e-23
2.63888e-23
1.72514e-23
-7.88185e-24
1.01797e-22
6.98865e-24
-1.15984e-23
-2.86531e-23
-8.48064e-24
1.07316e-22
-4.47586e-24
1.27794e-22
-9.93462e-24
2.34008e-23
1.6678e-24
1.74703e-22
1.1607e-23
7.27984e-23
7.13098e-24
2.59143e-23
-6.4786e-24
1.64008e-22
2.78828e-24
1.53689e-22
8.82417e-24
1.33359e-22
2.69939e-24
2.07687e-22
-9.92377e-25
1.40831e-22
4.58645e-24
1.32397e-22
8.08424e-24
2.01036e-22
1.1838e-23
1.80576e-22
4.85197e-24
-8.35482e-24
1.30987e-23
-6.24817e-24
3.98622e-24
6.26094e-24
2.70677e-24
-6.21635e-23
5.06953e-24
5.37501e-23
3.71599e-24
2.42041e-23
-2.16303e-24
6.70469e-23
2.66554e-24
5.69636e-23
-3.12341e-24
-6.06549e-24
-6.6637e-24
-3.20104e-23
-7.72326e-24
-1.64669e-23
-1.84791e-24
1.95553e-23
8.30784e-25
2.80993e-23
-1.2213e-24
2.53139e-23
5.92745e-24
7.67401e-23
4.28121e-24
-7.13089e-23
6.30308e-24
-4.06233e-23
4.11152e-24
-6.10115e-23
2.51704e-24
-7.16262e-23
-2.37535e-24
-1.29552e-22
-1.24829e-24
-2.28509e-23
-4.05325e-24
-5.58797e-23
5.13058e-24
-7.82871e-23
-2.78908e-24
-5.26507e-23
-1.19768e-23
-1.64321e-22
-7.76296e-24
-1.19504e-22
-1.49081e-23
-7.04794e-23
-1.63058e-23
-6.83858e-24
-1.91906e-23
-2.86347e-23
-1.61762e-23
1.83842e-23
-2.01481e-23
3.42008e-23
-1.44109e-23
1.21807e-22
-2.07813e-23
7.68917e-23
5.435e-23
-8.90531e-24
4.61745e-23
5.71701e-24
-1.09183e-23
-5.44501e-23
-9.50691e-24
9.03943e-23
-4.65796e-24
1.01653e-22
-9.91325e-24
-1.10378e-23
1.88271e-24
1.57793e-22
1.09863e-23
1.24799e-22
8.3881e-24
2.66175e-23
-5.74506e-24
1.93814e-22
1.48883e-24
1.56698e-22
9.27272e-24
1.59815e-22
3.05496e-24
2.16131e-22
-1.80453e-24
1.42004e-22
4.79457e-24
1.17236e-22
7.63966e-24
1.92581e-22
1.01517e-23
1.62101e-22
5.38741e-24
3.15255e-23
1.257e-23
2.72665e-23
4.44214e-24
6.85653e-23
3.29944e-24
-4.8813e-23
5.38044e-24
5.1481e-23
4.002e-24
-4.63892e-24
-2.31385e-24
3.62504e-23
2.17806e-24
5.18317e-23
-4.06216e-24
6.20766e-24
-6.66556e-24
-2.7524e-23
-7.26431e-24
-1.95366e-23
-1.53601e-24
1.12933e-23
8.14325e-25
-4.13596e-23
-1.15383e-24
3.06951e-23
5.26082e-24
1.02063e-22
3.82718e-24
-1.0184e-22
6.24866e-24
-5.25204e-24
3.49361e-24
-5.84024e-23
1.63543e-24
-6.87389e-23
-1.0904e-25
-1.22635e-22
-2.2187e-24
-7.70648e-23
-2.91396e-24
-5.02356e-23
5.63865e-24
-8.3681e-23
-3.56826e-24
-1.07022e-22
-1.09769e-23
-1.58739e-22
-6.52407e-24
-1.12257e-22
-1.49962e-23
-8.56786e-23
-1.51757e-23
-8.07634e-24
-1.85348e-23
-1.9333e-23
-1.57281e-23
4.4053e-23
-1.96692e-23
1.35889e-23
-1.44824e-23
1.50876e-22
-2.15218e-23
8.76501e-23
5.8891e-23
-8.73668e-24
5.09301e-23
7.15899e-24
-1.09404e-23
-3.64745e-23
-8.68882e-24
8.58077e-23
-5.39338e-24
1.67093e-23
-8.36178e-24
-1.65163e-23
1.25121e-24
1.42022e-22
1.05259e-23
1.11744e-22
9.85885e-24
2.4004e-23
-4.94491e-24
1.39569e-22
2.45733e-24
1.21418e-22
9.84891e-24
1.10234e-22
2.4818e-24
2.29457e-22
-1.68137e-24
1.41223e-22
6.03707e-24
9.95288e-23
6.6526e-24
1.41885e-22
9.22166e-24
1.5759e-22
4.84022e-24
8.42247e-25
1.30926e-23
2.7268e-23
4.12925e-24
5.28733e-23
3.58091e-24
-3.85994e-23
5.67456e-24
4.23904e-23
4.15631e-24
-3.78979e-24
-2.30488e-24
5.65304e-24
2.02582e-24
4.88879e-23
-4.81156e-24
-1.69366e-23
-6.8441e-24
-2.64188e-23
-6.87784e-24
3.50953e-23
-2.03141e-24
3.86534e-23
1.72833e-24
1.80106e-23
-7.51053e-25
3.57188e-23
3.83427e-24
5.95716e-23
3.58098e-24
-1.02471e-22
6.19727e-24
-1.04692e-23
3.73485e-24
-6.1489e-23
8.38815e-25
-6.337e-23
1.45483e-25
-6.29689e-23
-1.91035e-24
-7.08017e-23
-2.89359e-24
-4.60383e-23
5.06113e-24
-9.08958e-23
-3.79227e-24
-9.22159e-23
-1.22742e-23
-7.88712e-23
-5.78587e-24
-4.16434e-23
-1.41491e-23
-6.27021e-23
-1.47584e-23
-1.05641e-23
-1.7577e-23
-9.45601e-24
-1.56625e-23
4.1625e-23
-1.88215e-23
2.0124e-23
-1.55465e-23
1.50819e-22
-2.14544e-23
9.89375e-23
2.18085e-24
-8.00702e-24
8.78418e-23
8.6693e-24
-1.06616e-23
-3.08404e-23
-8.82996e-24
7.94929e-23
-5.24054e-24
2.06239e-25
-7.36954e-24
-5.51627e-23
2.18614e-24
6.16382e-23
1.06218e-23
9.80992e-23
1.03871e-23
2.68309e-23
-4.58685e-24
9.19659e-23
2.53231e-24
1.33935e-22
1.07868e-23
1.63879e-22
1.35673e-24
1.74922e-22
-1.84236e-24
1.43182e-22
6.02412e-24
1.21128e-22
6.65131e-24
1.34037e-22
7.84073e-24
9.41928e-23
5.18984e-24
3.56942e-23
1.31169e-23
2.87532e-23
4.24082e-24
6.80311e-23
3.62017e-24
-2.01019e-23
5.60114e-24
3.21394e-23
3.97944e-24
-3.81001e-23
-1.95924e-24
1.11688e-23
1.63178e-24
6.48221e-24
-5.07747e-24
-6.58469e-23
-6.13338e-24
-4.13241e-23
-7.34664e-24
6.43125e-23
-2.01456e-24
7.04851e-23
1.90853e-24
1.54423e-23
-1.01233e-24
1.03356e-23
3.04144e-24
2.11989e-23
3.48859e-24
-1.04724e-22
6.76434e-24
4.14747e-23
3.02547e-24
-7.51218e-23
1.50953e-24
7.63197e-24
1.45758e-25
-6.29733e-23
-1.61893e-24
-3.42345e-23
-3.25083e-24
-4.20396e-23
5.20521e-24
-4.14305e-23
-2.63221e-24
-7.5635e-23
-1.18756e-23
-1.31418e-22
-5.91937e-24
6.78132e-24
-1.3392e-23
-4.73716e-23
-1.56861e-23
-7.55795e-24
-1.71901e-23
5.69807e-23
-1.56298e-23
7.23416e-23
-1.81183e-23
2.49278e-23
-1.60576e-23
1.50399e-22
-2.26061e-23
1.02974e-22
-3.24293e-23
-8.93181e-24
9.16374e-23
8.47075e-24
-1.00728e-23
1.12243e-23
-9.83071e-24
7.87241e-23
-5.13371e-24
1.79036e-23
-7.06337e-24
-5.48539e-23
2.53325e-24
1.09652e-22
1.05787e-23
1.26292e-22
1.00816e-23
3.1524e-23
-3.63394e-24
7.21719e-23
3.78962e-24
1.35643e-22
1.10442e-23
1.23074e-22
1.61515e-24
9.54394e-23
-2.30271e-24
1.80053e-22
6.01907e-24
1.70868e-22
5.83668e-24
1.31435e-22
7.59043e-24
1.58306e-22
4.92883e-24
3.86332e-23
1.37218e-23
4.26334e-23
4.11589e-24
5.54013e-23
3.51102e-24
-1.15717e-23
4.88752e-24
-1.63177e-23
4.69659e-24
-3.87893e-23
-2.46506e-24
-1.87322e-23
1.30665e-24
-3.87128e-25
-4.9095e-24
-4.98501e-23
-4.88046e-24
-4.00918e-23
-7.59173e-24
2.81964e-23
-2.17844e-24
6.36668e-23
1.84367e-24
5.11807e-23
-1.54805e-24
1.46767e-23
2.72525e-24
1.91218e-23
3.79012e-24
-6.86369e-23
6.12169e-24
3.55987e-23
3.80321e-24
-1.10303e-22
1.17378e-24
-2.13366e-23
5.81154e-25
-6.10674e-23
-1.95803e-24
-5.54366e-23
-2.62179e-24
-7.17032e-23
4.62779e-24
-1.55035e-23
-3.42077e-24
-9.90252e-23
-1.0439e-23
-9.36358e-23
-5.38007e-24
-1.81007e-23
-1.31149e-23
-3.17255e-23
-1.43069e-23
1.15458e-24
-1.73849e-23
2.65584e-23
-1.57729e-23
7.24608e-23
-1.72965e-23
8.31419e-23
-1.61238e-23
1.50354e-22
-2.32499e-23
1.78402e-23
-2.95356e-23
-9.78913e-24
9.40547e-23
7.04502e-24
-9.68719e-24
9.92294e-23
-1.07246e-23
7.82608e-23
-5.12419e-24
3.84642e-23
-5.63391e-24
-5.37575e-23
3.28323e-24
1.85142e-22
1.0572e-23
1.18243e-22
1.04965e-23
3.2338e-23
-2.53992e-24
5.32449e-23
3.99635e-24
1.09747e-22
1.08322e-23
1.21953e-22
3.05261e-24
1.0532e-22
-2.59032e-24
1.88925e-22
4.91883e-24
1.52777e-22
5.81561e-24
1.25577e-22
6.93562e-24
1.27611e-22
4.39312e-24
-2.02654e-23
1.39855e-23
1.08322e-22
4.15344e-24
3.46268e-23
3.10763e-24
-2.79439e-23
4.92263e-24
-2.6827e-23
5.07495e-24
-2.53274e-24
-2.69245e-24
-8.95804e-24
1.06339e-24
-2.40507e-24
-4.83963e-24
-3.32561e-23
-4.00734e-24
1.78321e-23
-7.45088e-24
3.0782e-23
-2.07822e-24
6.09646e-23
1.30102e-24
5.12613e-23
-2.414e-24
-1.33012e-23
2.96292e-24
7.42309e-23
3.73894e-24
-6.64387e-23
5.59456e-24
3.07434e-23
4.42173e-24
-8.04561e-23
1.51219e-24
-6.37479e-23
6.17015e-25
-5.73725e-23
-2.24312e-24
-8.10972e-23
-1.12942e-24
-8.70976e-23
3.07766e-24
-5.33992e-23
-2.47826e-24
-5.52506e-23
-1.0104e-23
-1.05035e-22
-5.44436e-24
1.14847e-23
-1.25147e-23
-5.51103e-23
-1.37783e-23
1.38012e-23
-1.77378e-23
2.62124e-24
-1.59545e-23
7.27684e-23
-1.63957e-23
7.0178e-23
-1.7048e-23
1.11267e-22
-2.3763e-23
-4.69974e-23
-3.09031e-23
-9.6349e-24
9.2862e-24
6.01508e-24
-1.02234e-23
1.00154e-22
-1.05699e-23
7.97663e-23
-5.58007e-24
1.005e-22
-4.80186e-24
9.19772e-24
3.37846e-24
1.67774e-22
1.02573e-23
1.14493e-22
1.04635e-23
7.36276e-23
-2.62109e-24
7.06259e-23
4.32222e-24
1.11708e-22
1.1259e-23
1.30187e-22
3.16972e-24
7.68881e-23
-2.56981e-24
1.63472e-22
4.4101e-24
1.31599e-22
5.51451e-24
1.21101e-22
5.89022e-24
1.26758e-22
5.09136e-24
-4.91583e-23
1.36148e-23
1.34329e-22
3.64308e-24
-7.88267e-24
2.86542e-24
1.23442e-23
5.04918e-24
-3.52451e-23
5.3141e-24
-1.24977e-24
-2.88061e-24
4.20319e-24
1.02031e-24
5.82182e-23
-4.2434e-24
-1.82331e-23
-3.87299e-24
1.58262e-23
-7.59682e-24
3.90846e-23
-1.54637e-24
9.25619e-23
5.76043e-25
4.8453e-23
-2.19491e-24
-1.08368e-23
2.242e-24
6.80713e-23
3.96694e-24
-6.65508e-23
5.53094e-24
2.78383e-23
4.44036e-24
-7.98864e-23
1.57322e-24
-1.03564e-22
6.33639e-25
-5.69389e-23
-2.2043e-24
-1.29644e-22
-8.78738e-25
-5.54001e-23
4.32155e-24
-5.31379e-23
-2.72112e-24
-1.37927e-22
-8.95253e-24
-1.01705e-22
-5.67838e-24
1.02873e-23
-1.17903e-23
-7.61586e-23
-1.32275e-23
-4.82363e-23
-1.72477e-23
-1.83907e-23
-1.4473e-23
1.05688e-22
-1.68116e-23
3.51793e-23
-1.84242e-23
1.10517e-22
-2.34401e-23
-7.26495e-24
-4.57669e-24
-9.18041e-24
1.24987e-23
6.53635e-24
-1.02682e-23
1.03283e-22
-1.16312e-23
8.48395e-23
-5.62316e-24
9.18207e-23
-3.68332e-24
7.76641e-24
3.2264e-24
1.84392e-22
9.82306e-24
1.2123e-22
1.07002e-23
7.89549e-23
-2.19579e-24
2.4145e-23
5.11191e-24
1.11136e-22
1.11469e-23
1.26851e-22
3.48195e-24
8.42054e-23
-2.58237e-24
1.06872e-22
3.91363e-24
9.35658e-23
5.18207e-24
1.17762e-22
4.95106e-24
1.26549e-22
6.47556e-24
-1.61897e-23
1.27314e-23
1.3404e-22
4.12637e-24
6.5758e-24
2.28532e-24
-1.148e-23
5.26669e-24
-4.42145e-23
5.89358e-24
3.24898e-23
-2.56012e-24
-4.31774e-23
3.60361e-25
2.58618e-23
-3.82026e-24
2.00472e-24
-3.63505e-24
4.96982e-23
-7.25955e-24
5.08842e-23
-1.95093e-24
9.50384e-23
2.0386e-25
4.71132e-23
-2.20012e-24
-4.48422e-23
1.74363e-24
5.52609e-23
3.53562e-24
-5.42175e-23
5.64448e-24
5.57757e-23
3.37189e-24
-7.99561e-23
2.43842e-24
-7.327e-23
1.29851e-25
-5.46237e-23
-1.08726e-24
-5.4423e-23
-1.19247e-24
-2.12763e-23
3.85662e-24
-4.126e-23
-1.67698e-24
-1.27612e-22
-8.20672e-24
-9.43162e-23
-6.05291e-24
-2.33775e-23
-1.09981e-23
-6.11411e-23
-1.34868e-23
-1.05178e-23
-1.61765e-23
-4.28129e-23
-1.4468e-23
1.08864e-22
-1.66911e-23
3.09275e-23
-1.89157e-23
1.10143e-22
-2.28417e-23
-9.2561e-24
-9.53406e-24
-7.8618e-24
-1.24086e-23
7.20569e-24
-1.03588e-23
8.06896e-23
-1.22167e-23
2.72423e-23
-5.59026e-24
8.35235e-23
-3.02501e-24
5.90423e-24
2.51748e-24
1.39218e-22
1.00046e-23
1.96826e-22
1.0111e-23
8.42571e-23
-8.48062e-25
4.1237e-23
5.14732e-24
1.08346e-22
1.18348e-23
1.19955e-22
3.01029e-24
5.85732e-23
-2.46214e-24
1.41847e-22
4.30503e-24
8.58792e-23
4.69288e-24
1.10625e-22
4.40938e-24
1.28392e-22
6.93904e-24
2.84424e-23
1.18585e-23
9.3347e-23
3.87559e-24
2.0863e-23
2.0074e-24
-4.60652e-23
5.75709e-24
1.01076e-23
5.44831e-24
2.97361e-23
-2.06443e-24
-2.82301e-23
2.58253e-25
2.29044e-23
-3.32891e-24
5.52038e-24
-3.38103e-24
8.59042e-23
-7.15493e-24
6.4421e-23
-2.42974e-24