/*--------------------------------*- C++ -*----------------------------------*\
  =========                 |
  \\      /  F ield         | OpenFOAM: The Open Source CFD Toolbox
   \\    /   O peration     | Website:  https://openfoam.org
    \\  /    A nd           | Version:  7
     \\/     M anipulation  |
\*---------------------------------------------------------------------------*/
FoamFile
{
    version     2.0;
    format      ascii;
    class       volVectorField;
    location    "112000";
    object      U;
}
// * * * * * * * * * * * * * * * * * * * * * * * * * * * * * * * * * * * * * //

dimensions      [0 1 -1 0 0 0 0];

internalField   nonuniform List<vector> 
4783
(
(-4.22653e-19 -4.53478e-20 -0.0155059)
(-4.31527e-19 1.91534e-19 -0.0155081)
(-3.24019e-19 2.86467e-19 -0.0155099)
(-2.74465e-19 1.22219e-19 -0.0155113)
(-3.7699e-19 -1.51308e-19 -0.0155122)
(-5.09092e-19 -3.64963e-19 -0.015513)
(-4.98255e-19 -4.48778e-19 -0.0155135)
(-5.41195e-19 -3.39267e-19 -0.0155139)
(-5.2282e-19 -2.03812e-19 -0.0155142)
(-4.10736e-19 -2.10568e-19 -0.0155145)
(-2.57421e-19 -3.61133e-19 -0.0155148)
(-2.33898e-19 -5.10847e-19 -0.015515)
(-3.30186e-19 -5.70209e-19 -0.0155152)
(-2.61102e-19 -4.96116e-19 -0.0155154)
(-2.45224e-19 -3.12807e-19 -0.0155156)
(-3.6816e-19 -2.01046e-19 -0.0155157)
(-4.37337e-19 -2.46744e-19 -0.0155159)
(-4.04092e-19 -3.28284e-19 -0.015516)
(-3.84952e-19 -3.14969e-19 -0.0155161)
(-4.52452e-19 -3.02724e-19 -0.0155162)
(-5.4009e-19 -3.16381e-19 -0.0155163)
(-6.43697e-19 -1.89747e-19 -0.0155164)
(-1.70832e-19 -2.10693e-19 -0.0155016)
(-1.07565e-19 -9.31836e-21 -0.0155043)
(-6.83869e-20 2.05103e-19 -0.0155067)
(1.78846e-20 2.55862e-19 -0.0155086)
(-2.13695e-20 2.42402e-19 -0.0155101)
(-8.69343e-20 -3.39602e-20 -0.0155113)
(-2.1927e-19 -3.08372e-19 -0.0155122)
(-4.21814e-19 -3.61773e-19 -0.0155129)
(-4.25303e-19 -3.14201e-19 -0.0155134)
(-3.23848e-19 -3.55812e-19 -0.0155138)
(-2.19875e-19 -4.7965e-19 -0.0155141)
(-3.59281e-19 -4.05015e-19 -0.0155144)
(-4.44255e-19 -4.51269e-19 -0.0155146)
(-4.8025e-19 -5.75059e-19 -0.0155148)
(-4.89435e-19 -4.57884e-19 -0.015515)
(-4.61395e-19 -3.25284e-19 -0.0155152)
(-3.89057e-19 -3.64768e-19 -0.0155153)
(-3.11262e-19 -4.51529e-19 -0.0155154)
(-3.14496e-19 -2.93193e-19 -0.0155156)
(-4.26747e-19 -9.5586e-20 -0.0155157)
(-5.65569e-19 -5.91025e-20 -0.0155157)
(-6.91931e-19 1.4364e-20 -0.0155158)
(-5.06381e-20 -4.12521e-19 -0.0154954)
(-2.18685e-19 -1.50048e-19 -0.015499)
(-2.99311e-19 7.77615e-20 -0.0155021)
(-9.94768e-20 8.9832e-20 -0.0155047)
(9.17507e-20 9.85313e-20 -0.0155069)
(3.13536e-19 8.86353e-20 -0.0155087)
(1.36667e-19 6.24185e-21 -0.0155101)
(1.99579e-20 -1.47986e-19 -0.0155112)
(-5.31574e-20 -3.55563e-19 -0.0155121)
(-4.38288e-20 -4.63383e-19 -0.0155127)
(-2.32039e-19 -3.75347e-19 -0.0155132)
(-4.09395e-19 -3.32245e-19 -0.0155136)
(-3.83018e-19 -4.52797e-19 -0.0155139)
(-4.844e-19 -5.70471e-19 -0.0155141)
(-5.66104e-19 -5.50259e-19 -0.0155143)
(-5.78792e-19 -4.28246e-19 -0.0155145)
(-5.75673e-19 -4.2141e-19 -0.0155147)
(-6.04464e-19 -4.33854e-19 -0.0155148)
(-6.8328e-19 -2.15919e-19 -0.015515)
(-7.18961e-19 2.2287e-20 -0.0155151)
(-8.22533e-19 4.55557e-20 -0.0155152)
(-7.9657e-19 2.07479e-20 -0.0155152)
(-3.16783e-19 -2.88183e-19 -0.0154874)
(-5.89856e-19 -1.81985e-19 -0.015492)
(-6.70569e-19 4.24262e-21 -0.0154959)
(-4.4497e-19 -4.2233e-20 -0.0154993)
(-2.14165e-19 -1.66894e-19 -0.0155022)
(4.67625e-20 -1.99472e-19 -0.0155047)
(2.02894e-19 -2.09491e-19 -0.0155068)
(3.7061e-19 -2.58412e-19 -0.0155085)
(3.32248e-19 -3.60827e-19 -0.0155099)
(1.14573e-19 -3.71586e-19 -0.0155109)
(-1.94895e-19 -2.64564e-19 -0.0155117)
(-2.31948e-19 -2.07167e-19 -0.0155124)
(-2.08392e-19 -3.40766e-19 -0.0155129)
(-2.71625e-19 -5.06611e-19 -0.0155133)
(-4.58529e-19 -5.46356e-19 -0.0155136)
(-6.25107e-19 -4.1369e-19 -0.0155138)
(-7.11983e-19 -3.40568e-19 -0.015514)
(-8.27231e-19 -3.54227e-19 -0.0155142)
(-9.21882e-19 -1.82495e-19 -0.0155143)
(-9.49913e-19 1.18635e-19 -0.0155144)
(-9.16003e-19 8.69807e-20 -0.0155145)
(-7.99267e-19 -7.38981e-20 -0.0155146)
(-3.85229e-19 -1.21499e-19 -0.0154776)
(-6.19754e-19 -3.30901e-20 -0.0154831)
(-6.64756e-19 6.26627e-21 -0.0154879)
(-4.86272e-19 -5.32188e-20 -0.0154922)
(-3.88168e-19 -2.25089e-19 -0.0154959)
(-2.46668e-19 -4.10088e-19 -0.0154992)
(-7.19767e-20 -5.17233e-19 -0.015502)
(3.78996e-20 -5.44701e-19 -0.0155044)
(3.12712e-20 -5.17563e-19 -0.0155064)
(-1.20876e-19 -3.458e-19 -0.015508)
(-2.85388e-19 -2.10796e-19 -0.0155093)
(-1.43256e-19 -3.64879e-19 -0.0155104)
(5.01604e-20 -5.38269e-19 -0.0155112)
(-2.54138e-21 -4.69638e-19 -0.0155119)
(-2.66277e-19 -2.98589e-19 -0.0155124)
(-6.17844e-19 -1.93242e-19 -0.0155128)
(-7.08339e-19 -1.44723e-19 -0.0155131)
(-8.17013e-19 -1.45202e-19 -0.0155133)
(-9.14389e-19 1.62208e-20 -0.0155135)
(-8.45909e-19 2.04695e-19 -0.0155137)
(-5.94569e-19 -1.16822e-21 -0.0155138)
(-5.09402e-19 -2.90264e-19 -0.0155139)
(-3.70148e-19 -9.99159e-20 -0.0154662)
(-4.744e-19 -7.15866e-21 -0.0154725)
(-4.98961e-19 7.00864e-20 -0.0154782)
(-4.37875e-19 4.09944e-20 -0.0154833)
(-4.1244e-19 -9.27238e-20 -0.0154879)
(-3.26173e-19 -3.81332e-19 -0.015492)
(-2.97828e-19 -5.53479e-19 -0.0154955)
(-3.65082e-19 -6.47355e-19 -0.0154987)
(-4.51138e-19 -7.1341e-19 -0.0155014)
(-5.64656e-19 -4.56974e-19 -0.0155037)
(-5.3785e-19 -2.73962e-19 -0.0155056)
(-2.74365e-19 -5.67925e-19 -0.0155072)
(-1.85759e-19 -8.82812e-19 -0.0155085)
(-3.77998e-19 -6.56878e-19 -0.0155095)
(-7.29504e-19 -4.80439e-20 -0.0155104)
(-8.34896e-19 1.6834e-19 -0.0155111)
(-7.01216e-19 5.66641e-20 -0.0155116)
(-6.24502e-19 1.09588e-20 -0.015512)
(-6.06896e-19 6.18958e-20 -0.0155123)
(-3.75714e-19 1.39777e-19 -0.0155126)
(-1.16387e-19 -9.62903e-20 -0.0155128)
(-1.79298e-19 -4.82165e-19 -0.0155129)
(-4.87323e-19 -2.8044e-20 -0.0154533)
(-5.65184e-19 -7.00186e-20 -0.0154604)
(-5.8427e-19 7.2395e-21 -0.0154669)
(-5.41797e-19 6.3741e-20 -0.0154728)
(-4.30944e-19 -2.40549e-20 -0.0154781)
(-3.4801e-19 -3.03115e-19 -0.0154829)
(-4.31308e-19 -4.7598e-19 -0.0154873)
(-4.90168e-19 -4.89084e-19 -0.0154912)
(-6.06844e-19 -6.08402e-19 -0.0154946)
(-6.89505e-19 -4.9115e-19 -0.0154976)
(-7.16342e-19 -3.58628e-19 -0.0155001)
(-5.64663e-19 -6.56947e-19 -0.0155024)
(-7.35187e-19 -8.57609e-19 -0.0155042)
(-1.3123e-18 -3.55663e-19 -0.0155058)
(-1.59944e-18 1.85461e-19 -0.0155071)
(-1.13043e-18 8.36514e-20 -0.0155082)
(-7.21976e-19 -8.14229e-20 -0.015509)
(-4.89078e-19 -4.6691e-20 -0.0155097)
(-3.53211e-19 1.73139e-20 -0.0155103)
(-1.47954e-19 7.62735e-20 -0.0155107)
(2.02909e-20 -8.94533e-20 -0.0155111)
(-1.88386e-19 -4.53496e-19 -0.0155113)
(-6.67282e-19 8.49648e-20 -0.0154389)
(-7.29867e-19 -5.31025e-20 -0.0154467)
(-7.1006e-19 -6.79568e-20 -0.0154539)
(-6.19202e-19 -6.3789e-20 -0.0154606)
(-5.35216e-19 -3.4795e-20 -0.0154667)
(-5.80818e-19 -2.07653e-19 -0.0154723)
(-6.88555e-19 -4.81082e-19 -0.0154773)
(-6.74319e-19 -5.5909e-19 -0.0154819)
(-6.13412e-19 -6.573e-19 -0.015486)
(-6.93401e-19 -4.19708e-19 -0.0154897)
(-6.20141e-19 -1.421e-19 -0.0154929)
(-7.29941e-19 -4.55372e-19 -0.0154957)
(-1.16875e-18 -5.40505e-19 -0.0154982)
(-1.65881e-18 8.53353e-21 -0.0155003)
(-1.42827e-18 3.58682e-19 -0.0155022)
(-9.37428e-19 -4.69412e-21 -0.0155037)
(-7.09949e-19 -3.03492e-19 -0.015505)
(-5.88891e-19 -2.74763e-19 -0.015506)
(-4.79163e-19 -2.04938e-19 -0.0155069)
(-3.40018e-19 -8.70181e-20 -0.0155076)
(-2.14453e-19 -7.27366e-20 -0.0155081)
(-3.6331e-19 -2.42384e-19 -0.0155085)
(-7.83152e-19 1.75937e-19 -0.0154232)
(-7.33362e-19 -5.33976e-20 -0.0154317)
(-5.63541e-19 -1.30273e-19 -0.0154396)
(-5.1973e-19 -1.10029e-19 -0.0154469)
(-6.11261e-19 -1.4805e-21 -0.0154537)
(-6.35939e-19 1.56399e-20 -0.01546)
(-5.85712e-19 -2.56082e-19 -0.0154657)
(-6.98644e-19 -5.26826e-19 -0.015471)
(-8.22521e-19 -7.88978e-19 -0.0154757)
(-7.27719e-19 -7.84275e-19 -0.01548)
(-5.64356e-19 -1.77076e-19 -0.0154839)
(-8.2335e-19 6.49985e-20 -0.0154873)
(-1.23586e-18 -1.34485e-19 -0.0154904)
(-1.36975e-18 3.6006e-20 -0.0154931)
(-9.69287e-19 3.38132e-19 -0.0154954)
(-6.84029e-19 1.07861e-19 -0.0154974)
(-7.60701e-19 -2.44979e-19 -0.0154991)
(-7.75572e-19 -3.15265e-19 -0.0155006)
(-8.32152e-19 -3.08389e-19 -0.0155018)
(-8.54597e-19 -2.28762e-19 -0.0155028)
(-7.66232e-19 -1.45795e-19 -0.0155036)
(-8.27891e-19 -2.2277e-19 -0.0155042)
(-6.45698e-19 1.13732e-19 -0.0154062)
(-4.02605e-19 -4.34137e-20 -0.0154153)
(-2.71082e-19 -2.13982e-19 -0.0154239)
(-4.31897e-19 -1.59053e-19 -0.0154319)
(-5.48387e-19 -6.95089e-20 -0.0154393)
(-4.29891e-19 -8.2572e-20 -0.0154462)
(-1.73873e-19 -5.60318e-20 -0.0154526)
(-5.43357e-19 -1.21975e-19 -0.0154584)
(-6.48931e-19 -6.13797e-19 -0.0154638)
(-7.35738e-19 -9.68643e-19 -0.0154687)
(-1.00912e-18 -3.54816e-19 -0.0154732)
(-1.09428e-18 2.47132e-19 -0.0154772)
(-1.15837e-18 1.81961e-19 -0.0154808)
(-1.13953e-18 1.08229e-19 -0.015484)
(-9.13145e-19 3.39716e-19 -0.0154868)
(-7.5755e-19 3.0447e-19 -0.0154893)
(-8.91897e-19 -1.48714e-19 -0.0154914)
(-7.78256e-19 -3.21871e-19 -0.0154933)
(-8.59351e-19 -2.63553e-19 -0.0154948)
(-9.55659e-19 -2.31779e-19 -0.0154961)
(-1.00227e-18 -9.29425e-20 -0.0154971)
(-1.14413e-18 -1.28213e-19 -0.015498)
(-4.14406e-19 -1.36387e-19 -0.015388)
(-2.00265e-19 -1.13138e-19 -0.0153978)
(-2.41699e-19 -1.39568e-19 -0.0154069)
(-4.25988e-19 -1.13939e-19 -0.0154155)
(-5.85965e-19 -1.45165e-19 -0.0154236)
(-5.7156e-19 -3.5003e-19 -0.0154311)
(-4.99898e-19 -1.87155e-19 -0.015438)
(-5.99898e-19 7.61419e-20 -0.0154445)
(-5.76337e-19 -2.83472e-19 -0.0154504)
(-9.86787e-19 -7.02802e-19 -0.0154559)
(-1.38199e-18 -3.9449e-19 -0.0154609)
(-1.41267e-18 1.6109e-19 -0.0154654)
(-1.25353e-18 2.19242e-19 -0.0154695)
(-1.10007e-18 1.10181e-19 -0.0154732)
(-9.12957e-19 3.36682e-19 -0.0154764)
(-7.5066e-19 4.92294e-19 -0.0154793)
(-6.88261e-19 -7.70004e-20 -0.0154819)
(-5.8008e-19 -4.52288e-19 -0.0154841)
(-6.99872e-19 -2.78585e-19 -0.015486)
(-8.03623e-19 -1.56207e-19 -0.0154875)
(-8.84067e-19 9.32405e-20 -0.0154888)
(-9.85174e-19 6.94527e-20 -0.0154898)
(-3.78564e-19 -2.04915e-19 -0.0153688)
(-2.98959e-19 -2.76098e-19 -0.0153791)
(-3.94941e-19 -2.67861e-19 -0.0153888)
(-3.25598e-19 -2.67411e-20 -0.015398)
(-4.95585e-19 5.97181e-20 -0.0154066)
(-4.82839e-19 -2.39783e-19 -0.0154146)
(-5.88165e-19 -4.12363e-19 -0.0154221)
(-4.52453e-19 -6.98369e-20 -0.0154291)
(-5.45744e-19 -2.53047e-20 -0.0154356)
(-8.71554e-19 -3.31129e-19 -0.0154416)
(-1.24647e-18 -2.65438e-19 -0.0154471)
(-1.31652e-18 1.40354e-19 -0.0154521)
(-1.13371e-18 1.82816e-19 -0.0154566)
(-8.99625e-19 1.23319e-20 -0.0154608)
(-7.85807e-19 1.99043e-19 -0.0154645)
(-5.69873e-19 4.66725e-19 -0.0154678)
(-3.31019e-19 -3.78878e-20 -0.0154707)
(-4.71156e-19 -4.03497e-19 -0.0154732)
(-7.49835e-19 -2.24797e-19 -0.0154754)
(-9.36988e-19 -1.57102e-19 -0.0154772)
(-8.7648e-19 1.38389e-19 -0.0154787)
(-7.91212e-19 2.95045e-19 -0.0154799)
(-3.60698e-19 -2.24205e-19 -0.0153484)
(-4.4732e-19 -2.59871e-19 -0.0153593)
(-4.98968e-19 -4.81461e-19 -0.0153695)
(-3.46129e-19 -3.26456e-19 -0.0153792)
(-2.26217e-19 5.90572e-20 -0.0153884)
(-1.43424e-19 -5.82641e-20 -0.0153969)
(-1.67668e-19 -3.17409e-19 -0.015405)
(-3.15063e-19 -1.45429e-19 -0.0154125)
(-4.56806e-19 1.07641e-19 -0.0154195)
(-6.03207e-19 -1.32314e-20 -0.0154259)
(-7.96675e-19 -3.34229e-20 -0.0154319)
(-8.90719e-19 1.83043e-19 -0.0154374)
(-6.70528e-19 1.8016e-19 -0.0154424)
(-5.58655e-19 9.61551e-21 -0.0154469)
(-6.64499e-19 1.16178e-19 -0.015451)
(-5.6183e-19 3.47003e-19 -0.0154547)
(-2.74897e-19 3.60818e-20 -0.0154579)
(-5.11794e-19 -2.38881e-19 -0.0154607)
(-8.11175e-19 -7.82031e-20 -0.0154632)
(-9.18449e-19 -1.35216e-19 -0.0154653)
(-1.01854e-18 3.16481e-20 -0.015467)
(-8.98324e-19 3.07902e-19 -0.0154683)
(-3.59541e-19 -2.72536e-19 -0.0153271)
(-4.39994e-19 -1.84812e-19 -0.0153385)
(-4.36468e-19 -4.34973e-19 -0.0153492)
(-4.40228e-19 -6.42161e-19 -0.0153594)
(-2.44141e-19 -2.60713e-19 -0.015369)
(-1.82142e-20 -1.06552e-19 -0.0153781)
(1.38866e-19 -1.98496e-19 -0.0153867)
(-5.10694e-19 -1.65723e-19 -0.0153946)
(-6.23528e-19 6.98512e-20 -0.0154021)
(-6.27094e-19 1.88216e-20 -0.015409)
(-4.65044e-19 6.9477e-20 -0.0154154)
(-5.91826e-19 1.76652e-19 -0.0154213)
(-2.29812e-19 1.97347e-19 -0.0154267)
(-4.23592e-19 1.36182e-19 -0.0154317)
(-7.174e-19 1.94885e-19 -0.0154361)
(-6.96264e-19 2.46515e-19 -0.0154401)
(-3.88744e-19 -6.15112e-21 -0.0154437)
(-5.00824e-19 -9.35682e-20 -0.0154468)
(-7.80263e-19 -2.73066e-20 -0.0154495)
(-7.84579e-19 -1.69044e-20 -0.0154518)
(-1.02724e-18 1.66031e-19 -0.0154537)
(-8.82721e-19 2.55045e-19 -0.0154552)
(-2.58219e-19 -2.48774e-19 -0.0153048)
(-3.22963e-19 -1.59497e-19 -0.0153167)
(-3.46125e-19 -3.02727e-19 -0.0153279)
(-3.47285e-19 -6.63543e-19 -0.0153386)
(-1.75492e-19 -5.85334e-19 -0.0153487)
(6.36891e-20 -4.05556e-19 -0.0153582)
(-2.16815e-19 -9.07924e-20 -0.0153672)
(-7.38617e-19 6.38714e-20 -0.0153756)
(-8.15614e-19 3.90053e-21 -0.0153835)
(-8.32818e-19 -1.70338e-19 -0.0153909)
(-7.59783e-19 -1.09149e-19 -0.0153977)
(-5.87272e-19 1.02606e-20 -0.015404)
(-2.04573e-19 1.53836e-19 -0.0154098)
(-6.03639e-19 3.848e-19 -0.0154151)
(-9.47609e-19 2.93014e-19 -0.0154199)
(-7.96163e-19 1.47499e-19 -0.0154242)
(-5.52319e-19 -1.17001e-19 -0.0154281)
(-5.26553e-19 -2.20939e-20 -0.0154315)
(-8.50738e-19 4.58795e-20 -0.0154344)
(-7.73028e-19 3.31333e-20 -0.0154369)
(-1.05714e-19 -2.47911e-19 -0.0152817)
(-2.43952e-19 -1.09143e-19 -0.0152939)
(-1.72511e-19 -1.71655e-19 -0.0153056)
(-1.71193e-19 -6.48578e-19 -0.0153167)
(-2.18114e-19 -7.78151e-19 -0.0153273)
(-4.45308e-19 -5.50274e-19 -0.0153373)
(-9.16697e-19 -2.54248e-19 -0.0153467)
(-5.58762e-19 1.2447e-19 -0.0153556)
(-8.75056e-19 1.44031e-19 -0.0153639)
(-1.04885e-18 -7.52933e-20 -0.0153716)
(-9.94066e-19 -3.07356e-19 -0.0153789)
(-6.91434e-19 -3.78625e-19 -0.0153856)
(-6.40195e-19 9.92073e-21 -0.0153917)
(-9.75283e-19 5.77069e-19 -0.0153973)
(-1.12929e-18 3.6979e-19 -0.0154025)
(-7.65569e-19 4.46306e-20 -0.0154071)
(-6.4104e-19 -2.32904e-19 -0.0154112)
(-8.4281e-19 1.07886e-20 -0.0154148)
(-9.26939e-19 7.68927e-20 -0.015418)
(-1.49685e-19 -3.05592e-19 -0.0152577)
(-1.80099e-19 -1.8161e-19 -0.0152703)
(-5.78534e-20 -6.56465e-20 -0.0152824)
(-1.15795e-19 -3.91383e-19 -0.015294)
(-5.12967e-19 -7.06672e-19 -0.0153049)
(-9.35865e-19 -6.04038e-19 -0.0153153)
(-1.06395e-18 -6.05124e-19 -0.0153252)
(-6.69086e-19 -1.36622e-19 -0.0153345)
(-1.12208e-18 3.12692e-19 -0.0153432)
(-1.18323e-18 -7.64578e-21 -0.0153513)
(-1.18344e-18 -3.99227e-19 -0.0153589)
(-9.87354e-19 -5.05651e-19 -0.015366)
(-1.05341e-18 -9.77168e-20 -0.0153725)
(-1.24827e-18 5.83615e-19 -0.0153784)
(-1.03627e-18 3.05343e-19 -0.0153838)
(-6.16346e-19 -5.45588e-20 -0.0153887)
(-5.36013e-19 -7.33434e-20 -0.0153931)
(-1.72962e-19 -2.24301e-19 -0.0152328)
(-1.85394e-19 -3.30124e-19 -0.0152459)
(-1.5529e-19 -1.79444e-19 -0.0152584)
(-1.38307e-19 -1.74807e-19 -0.0152703)
(-5.3586e-19 -4.10205e-19 -0.0152817)
(-8.31391e-19 -4.66678e-19 -0.0152925)
(-8.12044e-19 -6.33382e-19 -0.0153027)
(-9.67295e-19 -3.30274e-19 -0.0153124)
(-1.20466e-18 3.45967e-19 -0.0153215)
(-1.32518e-18 1.48429e-19 -0.01533)
(-1.37389e-18 -4.19862e-19 -0.0153379)
(-1.10514e-18 -7.27257e-19 -0.0153453)
(-1.23295e-18 -2.32332e-19 -0.0153521)
(-1.32602e-18 4.8256e-19 -0.0153584)
(-1.89327e-19 -2.53276e-19 -0.0152072)
(-2.26139e-19 -3.10764e-19 -0.0152207)
(-4.07043e-19 -3.77377e-19 -0.0152335)
(-3.59459e-19 -2.42609e-19 -0.0152458)
(-5.26941e-19 -2.67303e-19 -0.0152576)
(-6.27375e-19 -3.18375e-19 -0.0152688)
(-4.43889e-19 -4.39665e-19 -0.0152794)
(-9.16252e-19 -3.60049e-19 -0.0152894)
(-1.01044e-18 4.21955e-19 -0.0152988)
(-1.33088e-18 3.36109e-19 -0.0153077)
(-1.10739e-18 -2.9335e-19 -0.0153159)
(-1.04542e-18 -7.30372e-19 -0.0153236)
(-3.2241e-19 -4.14715e-19 -0.0151808)
(-2.87233e-19 -2.87486e-19 -0.0151946)
(-6.55274e-19 -4.20318e-19 -0.0152079)
(-6.10263e-19 -4.02714e-19 -0.0152205)
(-6.82807e-19 -3.41934e-19 -0.0152327)
(-7.89803e-19 -4.97299e-19 -0.0152442)
(-5.68743e-19 -4.38977e-19 -0.0152551)
(-1.02584e-18 -3.62477e-19 -0.0152655)
(-1.23851e-18 3.75071e-19 -0.0152753)
(-1.19964e-18 5.09785e-19 -0.0152844)
(-3.7246e-19 -4.17098e-19 -0.0151537)
(-4.55494e-19 -3.31457e-19 -0.0151679)
(-4.85793e-19 -2.62494e-19 -0.0151815)
(-5.57632e-19 -3.88935e-19 -0.0151945)
(-7.12265e-19 -2.50387e-19 -0.0152069)
(-1.01797e-18 -5.45468e-19 -0.0152188)
(-1.26472e-18 -6.9908e-19 -0.0152301)
(-1.61156e-18 -5.20286e-19 -0.0152408)
(-1.64016e-18 9.09431e-20 -0.0152509)
(-3.60966e-19 -2.0569e-19 -0.015126)
(-3.60555e-19 -4.19971e-19 -0.0151405)
(-2.56642e-19 -2.37321e-19 -0.0151544)
(-5.72998e-19 -3.18465e-19 -0.0151677)
(-6.51943e-19 -6.48281e-20 -0.0151805)
(-1.15083e-18 -2.18754e-19 -0.0151926)
(-1.72725e-18 -5.7486e-19 -0.0152042)
(-1.93687e-18 -7.36767e-19 -0.0152152)
(-2.41848e-19 -3.85875e-20 -0.0150976)
(-2.86348e-19 -3.83424e-19 -0.0151124)
(-3.16686e-19 -1.94975e-19 -0.0151266)
(-6.75672e-19 -3.48028e-19 -0.0151402)
(-8.12619e-19 -6.04045e-20 -0.0151533)
(-1.20913e-18 9.72123e-20 -0.0151658)
(-1.50437e-18 -2.07914e-19 -0.0151777)
(-9.83957e-20 2.03898e-19 -0.0150685)
(-3.15017e-19 -3.92391e-19 -0.0150836)
(-4.73099e-19 -2.31667e-19 -0.0150981)
(-6.91159e-19 -2.16629e-19 -0.015112)
(-1.03555e-18 -1.48737e-19 -0.0151254)
(-1.15326e-18 1.71463e-19 -0.0151382)
(-4.20265e-20 3.38464e-19 -0.0150389)
(-3.1267e-19 -1.43128e-19 -0.0150542)
(-6.69265e-19 -3.19112e-19 -0.015069)
(-5.89415e-19 -1.08086e-19 -0.0150832)
(-9.97642e-19 -8.78315e-20 -0.0150969)
(-1.04467e-18 3.57951e-19 -0.0151099)
(4.98377e-22 2.45435e-19 -0.0150086)
(-3.78839e-19 3.34778e-20 -0.0150243)
(-6.95411e-19 -2.80247e-19 -0.0150393)
(-5.71297e-19 -1.34806e-19 -0.0150538)
(-8.17293e-19 -3.13888e-20 -0.0150677)
(4.82742e-20 2.18466e-19 -0.0149779)
(-5.52795e-19 1.74419e-19 -0.0149937)
(-5.25662e-19 -1.45057e-19 -0.015009)
(-5.15049e-19 -1.51954e-19 -0.0150238)
(-3.5973e-19 3.62468e-20 -0.0149465)
(-6.01076e-19 2.59492e-19 -0.0149627)
(-2.95621e-19 -1.29884e-20 -0.0149782)
(-3.85496e-19 -8.94835e-20 -0.0149932)
(-6.66496e-19 -5.14221e-21 -0.0149147)
(-5.91065e-19 1.25437e-19 -0.014931)
(-2.78842e-19 -1.35671e-20 -0.0149468)
(-5.58698e-19 1.84051e-19 -0.0148823)
(-5.89365e-19 9.50309e-20 -0.0148989)
(-2.60215e-19 -8.11199e-20 -0.0149149)
(-4.23017e-19 2.93323e-19 -0.0148495)
(-6.12258e-19 7.28008e-20 -0.0148663)
(-1.86306e-19 -7.5724e-20 -0.0148825)
(-5.43275e-19 2.24354e-19 -0.0148162)
(-7.05815e-19 4.77523e-20 -0.0148332)
(-3.42162e-19 -1.68686e-19 -0.0148496)
(-6.6587e-19 2.58733e-19 -0.0147824)
(-3.87905e-19 2.49415e-19 -0.0147996)
(-4.86731e-19 -2.14587e-19 -0.0148162)
(-6.34297e-19 2.34417e-19 -0.0147482)
(-8.06943e-20 4.95491e-19 -0.0147656)
(-5.4437e-19 7.25078e-20 -0.0147824)
(-7.44405e-19 1.33696e-19 -0.0147136)
(-3.0831e-19 3.07024e-19 -0.0147311)
(-6.03636e-19 3.41278e-19 -0.0147481)
(-8.97062e-19 2.58686e-19 -0.0146786)
(-5.42629e-19 8.31827e-20 -0.0146963)
(-6.57371e-19 4.6993e-19 -0.0147134)
(-1.02366e-18 3.54977e-19 -0.0146431)
(-4.99177e-19 7.37492e-21 -0.014661)
(-7.8907e-19 4.83714e-19 -0.0146782)
(-9.72115e-19 5.07939e-19 -0.0146073)
(-5.58685e-19 -1.01354e-19 -0.0146253)
(-9.20928e-19 3.88316e-19 -0.0146427)
(-6.2046e-19 8.23177e-19 -0.014571)
(-6.3155e-19 -1.27449e-19 -0.0145892)
(-9.07401e-19 2.21013e-19 -0.0146068)
(-4.54089e-19 9.45001e-19 -0.0145344)
(-5.99876e-19 5.48914e-20 -0.0145527)
(-5.30642e-19 2.77268e-19 -0.0145704)
(-5.90349e-19 8.52803e-19 -0.0144975)
(-4.45102e-19 1.12516e-19 -0.0145159)
(-3.32559e-19 3.38187e-19 -0.0145337)
(-5.29141e-19 8.8038e-19 -0.0144601)
(-4.0315e-19 1.53066e-19 -0.0144787)
(-4.87647e-19 2.92737e-19 -0.0144967)
(-3.64553e-19 -2.61589e-19 -0.0155059)
(-1.81649e-19 -3.9104e-19 -0.0155016)
(-1.27684e-20 -3.63688e-19 -0.0154954)
(-1.17599e-19 -1.67741e-19 -0.0154874)
(-2.38573e-19 -9.78819e-20 -0.0154776)
(-2.37202e-19 -1.42363e-20 -0.0154662)
(-2.47142e-19 1.04459e-19 -0.0154533)
(-4.29895e-19 2.01503e-19 -0.0154389)
(-6.91972e-19 1.3016e-19 -0.0154232)
(-7.23113e-19 -1.90305e-19 -0.0154062)
(-4.59678e-19 -3.60518e-19 -0.015388)
(-3.36609e-19 -2.94481e-19 -0.0153688)
(-3.3301e-19 -3.65023e-19 -0.0153484)
(-3.31767e-19 -2.42514e-19 -0.0153271)
(-2.90278e-19 -2.07747e-19 -0.0153048)
(-2.06148e-19 -2.9125e-19 -0.0152817)
(-4.94928e-20 -1.60832e-19 -0.0152577)
(-8.12642e-20 -1.3329e-19 -0.0152328)
(-1.16048e-19 -4.45114e-19 -0.0152072)
(-1.00496e-19 -4.869e-19 -0.0151808)
(-4.18632e-22 -2.13561e-19 -0.0151537)
(-3.71289e-20 5.36988e-20 -0.015126)
(-5.69031e-20 1.57891e-19 -0.0150976)
(-9.59267e-20 2.11783e-19 -0.0150685)
(-2.19414e-19 -4.95388e-20 -0.0150389)
(-3.2416e-19 -3.08804e-19 -0.0150086)
(-2.4379e-19 -2.10434e-19 -0.0149779)
(-8.6176e-20 8.93955e-20 -0.0149465)
(-1.59495e-19 3.48536e-19 -0.0149147)
(-3.20004e-19 3.15201e-19 -0.0148823)
(-4.95562e-19 1.30945e-19 -0.0148495)
(-5.26408e-19 1.89539e-19 -0.0148162)
(-4.92459e-19 4.87401e-19 -0.0147824)
(-4.07082e-19 5.76987e-19 -0.0147482)
(-3.23814e-19 9.23092e-19 -0.0147136)
(-3.09588e-19 1.18406e-18 -0.0146786)
(-4.18225e-19 1.11192e-18 -0.0146431)
(-5.68879e-19 9.2498e-19 -0.0146073)
(-8.32108e-19 7.47017e-19 -0.014571)
(-8.75371e-19 6.70651e-19 -0.0145344)
(-8.50637e-19 7.17828e-19 -0.0144975)
(-9.31906e-19 6.01446e-19 -0.0144601)
(-6.12682e-19 -3.33015e-19 -0.0155081)
(-3.58889e-19 -3.42394e-19 -0.0155043)
(-1.54416e-19 -2.20279e-19 -0.015499)
(-1.25041e-19 -3.71044e-22 -0.015492)
(-2.41561e-19 6.02636e-20 -0.0154831)
(-3.03963e-19 9.91624e-21 -0.0154725)
(-2.03641e-19 1.22533e-19 -0.0154604)
(-1.89471e-19 3.30183e-19 -0.0154467)
(-2.82898e-19 7.27425e-20 -0.0154317)
(-4.48734e-19 -4.91824e-19 -0.0154153)
(-4.18732e-19 -6.24401e-19 -0.0153978)
(-2.44619e-19 -4.02805e-19 -0.0153791)
(-2.55907e-19 -2.18262e-19 -0.0153593)
(-3.67791e-19 -1.6938e-19 -0.0153385)
(-3.32409e-19 -2.92706e-19 -0.0153167)
(-3.12409e-19 -2.98295e-19 -0.0152939)
(-1.53315e-19 -2.63465e-19 -0.0152703)
(5.45441e-20 -3.39483e-19 -0.0152459)
(5.20686e-20 -5.18231e-19 -0.0152207)
(-4.53941e-20 -5.07884e-19 -0.0151946)
(4.54632e-20 -2.04909e-19 -0.0151679)
(2.02585e-19 2.40952e-20 -0.0151405)
(2.37527e-19 1.05998e-19 -0.0151124)
(3.50611e-19 1.86888e-19 -0.0150836)
(2.45835e-19 1.82572e-19 -0.0150542)
(-2.82725e-20 2.57446e-19 -0.0150243)
(-2.72489e-19 4.86061e-19 -0.0149937)
(-3.21603e-19 5.07445e-19 -0.0149626)
(-2.63245e-19 4.83618e-19 -0.014931)
(-2.63302e-19 4.44952e-19 -0.0148989)
(-2.80202e-19 4.9304e-19 -0.0148663)
(-3.72192e-19 5.39721e-19 -0.0148332)
(-5.98573e-19 3.56112e-19 -0.0147996)
(-6.27252e-19 4.33228e-19 -0.0147656)
(-4.69273e-19 7.15535e-19 -0.0147311)
(-4.27826e-19 5.50335e-19 -0.0146963)
(-4.70125e-19 2.74061e-19 -0.014661)
(-2.00664e-19 5.37627e-19 -0.0146253)
(2.54277e-20 8.72772e-19 -0.0145892)
(-7.22072e-20 7.96522e-19 -0.0145527)
(-1.4684e-19 6.38878e-19 -0.0145159)
(-2.379e-19 5.03394e-19 -0.0144787)
(-9.36294e-19 -3.33973e-19 -0.0155099)
(-5.69139e-19 -4.73049e-19 -0.0155067)
(-2.46736e-19 -2.89026e-19 -0.0155021)
(-1.48619e-19 3.0134e-20 -0.0154959)
(-1.85931e-19 1.08406e-19 -0.0154879)
(-2.68855e-19 2.92221e-20 -0.0154782)
(-2.43672e-19 1.07412e-19 -0.0154669)
(-1.78532e-19 2.03571e-19 -0.0154539)
(-6.91165e-20 -1.58011e-19 -0.0154396)
(-1.25266e-19 -5.61862e-19 -0.0154239)
(-2.68752e-19 -5.62695e-19 -0.0154069)
(-1.75396e-19 -2.92349e-19 -0.0153888)
(-1.43537e-20 -1.37771e-19 -0.0153695)
(-9.93765e-20 -2.0226e-19 -0.0153492)
(-1.79758e-19 -3.11733e-19 -0.0153279)
(-2.26966e-19 -4.06218e-19 -0.0153056)
(-2.64866e-19 -4.88754e-19 -0.0152824)
(-1.42203e-19 -4.50435e-19 -0.0152584)
(5.34371e-21 -2.67898e-19 -0.0152335)
(-2.64763e-20 -6.64059e-20 -0.0152079)
(-1.09623e-19 4.27057e-20 -0.0151815)
(-2.09483e-20 1.21629e-19 -0.0151544)
(-2.57062e-20 1.80072e-19 -0.0151266)
(5.79876e-20 3.52281e-19 -0.0150981)
(2.28084e-19 6.83595e-19 -0.015069)
(2.09281e-19 9.1574e-19 -0.0150393)
(1.88723e-20 6.30589e-19 -0.015009)
(-2.43789e-19 2.46956e-19 -0.0149782)
(-2.44434e-19 2.25798e-19 -0.0149468)
(-1.85703e-19 2.83109e-19 -0.0149149)
(-1.68614e-19 2.833e-19 -0.0148825)
(-8.48085e-20 4.28547e-19 -0.0148496)
(-9.32518e-20 6.38195e-19 -0.0148162)
(-3.24933e-19 7.38424e-19 -0.0147824)
(-4.40059e-19 6.8926e-19 -0.0147481)
(-5.44035e-19 6.93456e-19 -0.0147134)
(-7.0868e-19 7.94865e-19 -0.0146782)
(-8.09556e-19 9.15683e-19 -0.0146427)
(-6.66686e-19 8.78778e-19 -0.0146068)
(-5.95483e-19 6.96336e-19 -0.0145704)
(-5.95981e-19 6.17574e-19 -0.0145337)
(-4.82606e-19 7.40918e-19 -0.0144967)
(-8.16485e-19 -5.5951e-19 -0.0155113)
(-7.01756e-19 -7.98625e-19 -0.0155086)
(-3.5146e-19 -4.86259e-19 -0.0155047)
(-2.78787e-19 2.48291e-20 -0.0154993)
(-1.89432e-19 9.43731e-20 -0.0154922)
(-2.24169e-19 1.69804e-20 -0.0154833)
(-2.14732e-19 9.326e-20 -0.0154728)
(-1.1046e-19 7.9588e-20 -0.0154606)
(-1.08414e-19 -1.75234e-19 -0.0154469)
(-1.19281e-19 -3.41781e-19 -0.0154319)
(-1.87895e-19 -3.38385e-19 -0.0154155)
(-3.05868e-19 -2.87852e-19 -0.015398)
(-4.76779e-20 -2.32662e-19 -0.0153792)
(1.76147e-19 -2.31529e-19 -0.0153594)
(2.0335e-19 -4.32329e-19 -0.0153386)
(2.60839e-19 -5.43494e-19 -0.0153167)
(1.13206e-19 -4.7824e-19 -0.015294)
(-9.90996e-20 -3.56135e-19 -0.0152703)
(-8.37455e-20 -1.40602e-19 -0.0152458)
(-2.01226e-20 1.12932e-19 -0.0152205)
(-8.99324e-20 2.12947e-19 -0.0151945)
(-8.35727e-20 3.76331e-19 -0.0151677)
(-4.21022e-20 5.55821e-19 -0.0151402)
(-7.37398e-20 6.6588e-19 -0.015112)
(-2.84197e-20 8.24912e-19 -0.0150832)
(4.46244e-20 7.36147e-19 -0.0150538)
(3.99292e-20 6.01359e-19 -0.0150238)
(-1.06015e-19 5.37005e-19 -0.0149932)
(-2.70254e-19 4.53792e-19 -0.014962)
(-3.07508e-19 4.24405e-19 -0.0149303)
(-2.93003e-19 4.99947e-19 -0.0148981)
(-2.23226e-19 7.67506e-19 -0.0148654)
(-1.10243e-19 1.08067e-18 -0.0148322)
(-1.88961e-19 1.10027e-18 -0.0147986)
(-2.47991e-19 1.07808e-18 -0.0147645)
(-1.59261e-19 1.27606e-18 -0.0147299)
(-1.85145e-19 1.21378e-18 -0.014695)
(-3.78926e-19 7.53353e-19 -0.0146596)
(-5.33751e-19 3.81542e-19 -0.0146238)
(-4.2553e-19 5.23038e-19 -0.0145876)
(-3.71198e-19 7.04312e-19 -0.014551)
(-3.94182e-19 7.16303e-19 -0.0145141)
(-5.03194e-19 -5.65067e-19 -0.0155122)
(-8.3653e-19 -7.84151e-19 -0.0155101)
(-5.73562e-19 -5.90218e-19 -0.0155069)
(-2.72818e-19 -1.57906e-19 -0.0155022)
(-1.44374e-19 -1.19614e-19 -0.0154959)
(-1.49527e-19 -4.90654e-20 -0.0154879)
(-1.28114e-19 -7.96651e-20 -0.0154781)
(-1.02365e-19 2.16481e-21 -0.0154667)
(-2.11652e-19 1.70445e-20 -0.0154537)
(-2.31363e-19 -1.71571e-19 -0.0154393)
(-1.72386e-19 -9.10522e-20 -0.0154236)
(-3.67516e-19 -5.20152e-20 -0.0154066)
(-2.65402e-19 -3.80267e-19 -0.0153884)
(1.00983e-19 -5.64916e-19 -0.015369)
(3.00927e-19 -7.06204e-19 -0.0153487)
(4.94106e-19 -5.79242e-19 -0.0153273)
(4.76146e-19 -1.12382e-19 -0.0153049)
(2.16739e-19 2.61851e-20 -0.0152817)
(6.07563e-20 4.24538e-20 -0.0152576)
(9.6185e-20 2.62465e-19 -0.0152327)
(-3.95693e-20 4.49353e-19 -0.0152069)
(-2.69107e-19 6.22874e-19 -0.0151805)
(-2.75946e-19 7.15871e-19 -0.0151533)
(-2.05731e-19 8.71387e-19 -0.0151254)
(-1.64764e-19 8.78172e-19 -0.0150969)
(-1.44755e-19 8.70066e-19 -0.0150677)
(-1.53207e-19 9.43847e-19 -0.0150379)
(-2.66637e-19 8.65543e-19 -0.0150076)
(-4.10782e-19 7.50075e-19 -0.0149766)
(-5.09053e-19 6.95023e-19 -0.0149452)
(-4.86839e-19 8.01355e-19 -0.0149132)
(-3.88326e-19 1.00003e-18 -0.0148807)
(-3.12882e-19 1.19786e-18 -0.0148477)
(-2.97433e-19 1.09621e-18 -0.0148142)
(-3.37556e-19 8.14256e-19 -0.0147803)
(-2.94871e-19 5.69964e-19 -0.0147459)
(-2.84105e-19 3.26778e-19 -0.0147111)
(-2.65792e-19 2.45824e-19 -0.0146758)
(-2.03002e-19 3.89956e-19 -0.0146402)
(-1.26863e-19 5.28476e-19 -0.0146042)
(-4.31257e-20 5.52418e-19 -0.0145677)
(1.05419e-20 5.98001e-19 -0.0145309)
(-2.7747e-19 -4.69903e-19 -0.015513)
(-5.65925e-19 -8.30962e-19 -0.0155113)
(-6.36986e-19 -9.83306e-19 -0.0155087)
(-2.19908e-19 -6.05096e-19 -0.0155047)
(-1.5122e-20 -2.47843e-19 -0.0154992)
(3.34319e-20 -1.71879e-19 -0.015492)
(2.87281e-20 -9.93977e-20 -0.015483)
(-2.72471e-20 1.53552e-19 -0.0154723)
(-2.253e-19 1.27332e-19 -0.01546)
(-1.7337e-19 -1.94337e-19 -0.0154462)
(1.13001e-19 -9.61749e-20 -0.0154311)
(-8.42541e-20 -1.92858e-19 -0.0154146)
(-2.72283e-19 -7.11139e-19 -0.0153969)
(-1.2131e-19 -7.3857e-19 -0.0153781)
(7.01921e-20 -6.57632e-19 -0.0153582)
(2.66933e-19 -2.15307e-19 -0.0153373)
(3.82921e-19 3.83788e-19 -0.0153153)
(3.17268e-19 3.55074e-19 -0.0152925)
(1.64584e-19 2.20591e-19 -0.0152688)
(3.64524e-19 4.55106e-19 -0.0152442)
(4.70623e-19 8.92476e-19 -0.0152188)
(8.07918e-20 1.01847e-18 -0.0151926)
(-3.98975e-19 9.673e-19 -0.0151658)
(-5.87765e-19 9.93599e-19 -0.0151382)
(-5.4006e-19 1.09426e-18 -0.0151099)
(-5.69067e-19 1.23939e-18 -0.015081)
(-4.97642e-19 1.27424e-18 -0.0150515)
(-4.91463e-19 1.21132e-18 -0.0150214)
(-5.14337e-19 1.01893e-18 -0.0149906)
(-5.79186e-19 8.68279e-19 -0.0149594)
(-4.74465e-19 7.09825e-19 -0.0149276)
(-2.66036e-19 8.6818e-19 -0.0148953)
(-9.81353e-20 9.8782e-19 -0.0148625)
(-1.14437e-19 6.67057e-19 -0.0148292)
(-1.64932e-19 3.80096e-19 -0.0147954)
(-6.81455e-20 4.79831e-19 -0.0147612)
(-2.32694e-21 6.40447e-19 -0.0147266)
(-1.06345e-19 5.36082e-19 -0.0146915)
(-2.54176e-19 3.25877e-19 -0.014656)
(-2.50841e-19 2.95123e-19 -0.0146201)
(-1.71982e-19 3.77089e-19 -0.0145838)
(-8.73912e-20 3.99959e-19 -0.0145471)
(-2.33759e-19 -4.75159e-19 -0.0155135)
(-2.5285e-19 -7.38207e-19 -0.0155122)
(-4.68176e-19 -9.07394e-19 -0.0155101)
(-2.73359e-19 -7.69952e-19 -0.0155068)
(3.73682e-20 -4.29284e-19 -0.015502)
(3.49999e-20 -1.36461e-19 -0.0154955)
(-2.50389e-20 6.41573e-20 -0.0154873)
(5.40473e-20 2.78288e-19 -0.0154773)
(-7.54513e-20 7.88378e-20 -0.0154657)
(-2.49903e-19 -5.06314e-19 -0.0154526)
(-9.75306e-20 -5.48496e-20 -0.015438)
(1.70175e-19 1.25261e-19 -0.0154221)
(-5.11374e-20 -4.17105e-19 -0.015405)
(-2.05839e-19 -5.639e-19 -0.0153867)
(-3.06659e-19 -3.71198e-19 -0.0153672)
(-1.8904e-19 1.6079e-19 -0.0153467)
(1.70868e-19 5.21599e-19 -0.0153252)
(3.07703e-19 4.29732e-19 -0.0153027)
(1.84707e-19 1.20263e-19 -0.0152794)
(2.08415e-19 2.53992e-19 -0.0152551)
(5.50061e-19 1.11738e-18 -0.0152301)
(5.82558e-19 1.85928e-18 -0.0152042)
(6.75169e-20 1.82548e-18 -0.0151777)
(-3.227e-19 1.36719e-18 -0.0151504)