/*--------------------------------*- C++ -*----------------------------------*\
  =========                 |
  \\      /  F ield         | OpenFOAM: The Open Source CFD Toolbox
   \\    /   O peration     | Website:  https://openfoam.org
    \\  /    A nd           | Version:  7
     \\/     M anipulation  |
\*---------------------------------------------------------------------------*/
FoamFile
{
    version     2.0;
    format      ascii;
    class       volScalarField;
    location    "188000";
    object      omega;
}
// * * * * * * * * * * * * * * * * * * * * * * * * * * * * * * * * * * * * * //

dimensions      [0 0 -1 0 0 0 0];

internalField   nonuniform List<scalar> 
4825
(
0.105745
0.104843
0.107955
0.107034
0.106144
0.105287
0.104465
0.110227
0.109286
0.108377
0.107501
0.10666
0.112564
0.111602
0.110672
0.109777
0.108918
0.114969
0.113985
0.113034
0.112118
0.11124
0.117444
0.116437
0.115464
0.114528
0.113629
0.119994
0.118962
0.117966
0.117008
0.116089
0.122621
0.121563
0.120543
0.119563
0.118622
0.125328
0.124244
0.123199
0.122195
0.121232
0.12812
0.127008
0.125938
0.12491
0.123923
0.130999
0.129859
0.128763
0.127709
0.126699
0.133969
0.132802
0.131678
0.130598
0.129563
0.137035
0.135838
0.134687
0.13358
0.132519
0.1402
0.138974
0.137793
0.136659
0.14347
0.142212
0.141002
0.139839
0.146848
0.145559
0.144318
0.143125
0.15034
0.149018
0.147745
0.153951
0.152595
0.151289
0.157688
0.156296
0.161556
0.160126
0.165561
0.164093
0.169712
0.168204
0.174014
0.172465
0.178477
0.078639
0.0779702
0.0773247
0.0767027
0.0761048
0.0755318
0.0749843
0.0744629
0.0739681
0.0735005
0.0730604
0.0726483
0.0722646
0.0719095
0.0715832
0.071286
0.0710181
0.0707796
0.0705706
0.0703913
0.0801531
0.0794717
0.0788141
0.0781804
0.0775714
0.0769877
0.07643
0.0758989
0.0753949
0.0749187
0.0744705
0.0740509
0.0736602
0.0732985
0.0729663
0.0726638
0.072391
0.0721482
0.0719355
0.071753
0.0817028
0.0810084
0.0803383
0.0796927
0.0790722
0.0784775
0.0779093
0.0773682
0.0768549
0.0763698
0.0759133
0.075486
0.075088
0.0747197
0.0743814
0.0740733
0.0737955
0.0735483
0.0733317
0.0731459
0.0832894
0.0825816
0.0818987
0.0812408
0.0806084
0.0800024
0.0794235
0.0788722
0.0783492
0.0778549
0.0773899
0.0769546
0.0765492
0.0761741
0.0758295
0.0755157
0.0752328
0.074981
0.0747605
0.0745712
0.0849141
0.0841926
0.0834965
0.0828259
0.0821813
0.0815637
0.0809737
0.0804119
0.0798789
0.0793753
0.0789015
0.078458
0.078045
0.0776628
0.0773118
0.0769921
0.076704
0.0764475
0.0762228
0.0760301
0.0865783
0.0858427
0.0851331
0.0844493
0.0837923
0.0831627
0.0825613
0.0819886
0.0814455
0.0809322
0.0804494
0.0799973
0.0795765
0.0791871
0.0788295
0.0785038
0.0782102
0.0779489
0.0777201
0.0775237
0.0882834
0.0875334
0.0868097
0.0861126
0.0854426
0.0848007
0.0841875
0.0836038
0.0830501
0.0825269
0.0820347
0.081574
0.0811451
0.0807483
0.0803838
0.0800519
0.0797528
0.0794866
0.0792534
0.0790533
0.090031
0.0892661
0.088528
0.087817
0.0871338
0.0864792
0.0858539
0.0852587
0.0846941
0.0841608
0.083659
0.0831894
0.0827522
0.0823477
0.0819762
0.0816379
0.081333
0.0810617
0.080824
0.0806202
0.0804501
0.080314
0.0802119
0.0801438
0.0801098
0.0801098
0.0801438
0.0802119
0.080314
0.0804501
0.0806201
0.080824
0.0810617
0.081333
0.0816379
0.0918227
0.0910423
0.0902894
0.0895641
0.0888673
0.0881996
0.0875619
0.0869549
0.0863791
0.0858353
0.0853237
0.0848448
0.084399
0.0839867
0.083608
0.0832631
0.0829523
0.0826758
0.0824335
0.0822257
0.0820524
0.0819137
0.0818096
0.0817402
0.0817055
0.0817055
0.0817402
0.0818096
0.0819137
0.0820524
0.0822257
0.0824335
0.0826757
0.0829523
0.0832631
0.0836079
0.0839867
0.09366
0.0928638
0.0920956
0.0913556
0.0906446
0.0899635
0.089313
0.0886938
0.0881066
0.0875519
0.0870301
0.0865418
0.0860872
0.0856667
0.0852806
0.084929
0.0846121
0.0843301
0.0840832
0.0838713
0.0836946
0.0835532
0.0834471
0.0833763
0.0833409
0.0833409
0.0833763
0.0834471
0.0835532
0.0836946
0.0838713
0.0840831
0.0843301
0.0846121
0.084929
0.0852806
0.0856667
0.0860872
0.0955446
0.0947321
0.0939482
0.093193
0.0924676
0.0917726
0.0911089
0.0904772
0.0898781
0.0893122
0.08878
0.0882819
0.0878183
0.0873894
0.0869956
0.086637
0.0863139
0.0860263
0.0857745
0.0855585
0.0853783
0.0852341
0.0851259
0.0850538
0.0850177
0.0850177
0.0850538
0.0851259
0.0852341
0.0853783
0.0855585
0.0857745
0.0860263
0.0863139
0.086637
0.0869956
0.0873894
0.0878183
0.0882819
0.08878
0.0974784
0.0966492
0.095849
0.0950782
0.0943378
0.0936285
0.0929512
0.0923066
0.0916953
0.0911179
0.0905749
0.0900668
0.0895938
0.0891563
0.0887546
0.0883889
0.0880593
0.087766
0.0875091
0.0872888
0.0871051
0.086958
0.0868477
0.0867741
0.0867373
0.0867373
0.0867741
0.0868477
0.086958
0.0871051
0.0872888
0.0875091
0.087766
0.0880593
0.0883888
0.0887546
0.0891563
0.0895938
0.0900668
0.0905749
0.0911179
0.0916953
0.0994634
0.0986168
0.0977998
0.097013
0.0962571
0.095533
0.0948417
0.0941838
0.09356
0.0929707
0.0924167
0.0918981
0.0914155
0.0909692
0.0905593
0.0901862
0.0898499
0.0895507
0.0892887
0.0890639
0.0888765
0.0887265
0.088614
0.0885389
0.0885014
0.0885014
0.0885389
0.088614
0.0887265
0.0888765
0.0890639
0.0892887
0.0895507
0.0898499
0.0901861
0.0905593
0.0909691
0.0914155
0.0918981
0.0924166
0.0929707
0.0935599
0.0941838
0.0948417
0.095533
0.101501
0.100637
0.0998027
0.0989992
0.0982274
0.0974882
0.0967824
0.0961107
0.0954739
0.0948725
0.094307
0.0937777
0.0932852
0.0928297
0.0924114
0.0920307
0.0916876
0.0913823
0.0911149
0.0908856
0.0906944
0.0905413
0.0904265
0.0903499
0.0903117
0.0903117
0.0903499
0.0904265
0.0905413
0.0906944
0.0908856
0.0911149
0.0913823
0.0916876
0.0920307
0.0924114
0.0928297
0.0932852
0.0937777
0.0943069
0.0948725
0.0954739
0.0961107
0.0967824
0.0974881
0.0982274
0.0989992
0.103594
0.102712
0.10186
0.101039
0.100251
0.0994958
0.0987751
0.0980893
0.0974391
0.0968251
0.0962478
0.0957075
0.0952048
0.0947398
0.0943129
0.0939243
0.0935741
0.0932625
0.0929897
0.0927556
0.0925605
0.0924043
0.0922871
0.092209
0.0921699
0.0921699
0.092209
0.0922871
0.0924043
0.0925605
0.0927556
0.0929896
0.0932625
0.0935741
0.0939242
0.0943129
0.0947398
0.0952047
0.0957075
0.0962477
0.0968251
0.0974391
0.0980893
0.0987751
0.0994958
0.100251
0.101039
0.10186
0.102712
0.103594
0.105745
0.104843
0.103973
0.103134
0.102329
0.101558
0.100822
0.100122
0.0994576
0.0988306
0.098241
0.0976894
0.0971761
0.0967014
0.0962656
0.0958688
0.0955114
0.0951933
0.0949148
0.0946759
0.0944767
0.0943173
0.0941977
0.0941179
0.094078
0.094078
0.0941179
0.0941977
0.0943173
0.0944767
0.0946759
0.0949148
0.0951933
0.0955113
0.0958688
0.0962655
0.0967014
0.0971761
0.0976894
0.098241
0.0988306
0.0994576
0.100122
0.100822
0.101558
0.102329
0.103134
0.103973
0.104843
0.105745
0.107955
0.107034
0.106144
0.105288
0.104465
0.103677
0.102925
0.10221
0.101531
0.100891
0.100289
0.0997256
0.0992014
0.0987166
0.0982716
0.0978665
0.0975015
0.0971767
0.0968924
0.0966484
0.0964451
0.0962823
0.0961602
0.0960788
0.0960381
0.0960381
0.0960788
0.0961602
0.0962823
0.0964451
0.0966484
0.0968923
0.0971767
0.0975014
0.0978664
0.0982715
0.0987166
0.0992014
0.0997256
0.100289
0.100891
0.101531
0.10221
0.102925
0.103677
0.104465
0.105287
0.106144
0.107034
0.107955
0.110227
0.109286
0.108377
0.107501
0.10666
0.105855
0.105087
0.104356
0.103663
0.103009
0.102394
0.101818
0.101283
0.100788
0.100333
0.0999193
0.0995465
0.0992149
0.0989244
0.0986754
0.0984677
0.0983015
0.0981768
0.0980936
0.0980521
0.0980521
0.0980936
0.0981768
0.0983015
0.0984677
0.0986754
0.0989244
0.0992148
0.0995465
0.0999192
0.100333
0.100788
0.101283
0.101818
0.102394
0.103009
0.103663
0.104356
0.105087
0.105855
0.10666
0.107501
0.108377
0.109286
0.110227
0.112564
0.111602
0.110672
0.109777
0.108918
0.108095
0.10731
0.106563
0.105855
0.105186
0.104557
0.103969
0.103422
0.102917
0.102452
0.10203
0.101649
0.10131
0.101013
0.100759
0.100547
0.100377
0.10025
0.100165
0.100122
0.100122
0.100165
0.10025
0.100377
0.100547
0.100759
0.101013
0.10131
0.101649
0.102029
0.102452
0.102917
0.103422
0.103969
0.104557
0.105186
0.105855
0.106563
0.10731
0.108095
0.108918
0.109777
0.110672
0.111602
0.112564
0.114969
0.113985
0.113034
0.112119
0.11124
0.110399
0.109596
0.108832
0.108109
0.107425
0.106783
0.106182
0.105623
0.105106
0.104631
0.1042
0.103811
0.103464
0.103161
0.102901
0.102685
0.102511
0.102381
0.102294
0.102251
0.102251
0.102294
0.102381
0.102511
0.102685
0.102901
0.103161
0.103464
0.10381
0.1042
0.104631
0.105106
0.105623
0.106182
0.106783
0.107425
0.108109
0.108832
0.109596
0.110399
0.11124
0.112119
0.113034
0.113985
0.114969
0.117444
0.116437
0.115464
0.114528
0.113629
0.112769
0.111948
0.111168
0.110428
0.109729
0.109072
0.108458
0.107887
0.107358
0.106873
0.106432
0.106034
0.105681
0.105371
0.105105
0.104884
0.104706
0.104573
0.104485
0.104441
0.10444
0.104485
0.104574
0.104706
0.104884
0.105105
0.105371
0.105681
0.106034
0.106432
0.106873
0.107358
0.107887
0.108458
0.109072
0.109729
0.110428
0.111168
0.111948
0.112769
0.113629
0.114528
0.115464
0.116437
0.117444
0.119994
0.118962
0.117966
0.117008
0.116089
0.115209
0.11437
0.113571
0.112815
0.1121
0.111429
0.110801
0.110217
0.109676
0.109181
0.108729
0.108323
0.107961
0.107645
0.107373
0.107147
0.106965
0.10683
0.106739
0.106694
0.106694
0.106739
0.10683
0.106966
0.107147
0.107373
0.107645
0.107961
0.108323
0.108729
0.109181
0.109676
0.110217
0.110801
0.111429
0.1121
0.112815
0.113571
0.11437
0.115209
0.116089
0.117008
0.117966
0.118962
0.119994
0.122621
0.121563
0.120543
0.119563
0.118622
0.117722
0.116863
0.116047
0.115272
0.114542
0.113855
0.113213
0.112615
0.112063
0.111556
0.111094
0.110679
0.110309
0.109985
0.109708
0.109476
0.109291
0.109152
0.109059
0.109013
0.109013
0.109059
0.109152
0.109291
0.109476
0.109708
0.109985
0.110309
0.110679
0.111094
0.111556
0.112063
0.112615
0.113213
0.113855
0.114542
0.115272
0.116047
0.116863
0.117722
0.118622
0.119563
0.120543
0.121563
0.122621
0.125328
0.124244
0.1232
0.122196
0.121232
0.120311
0.119432
0.118596
0.117804
0.117057
0.116354
0.115697
0.115086
0.114521
0.114002
0.11353
0.113105
0.112727
0.112396
0.112112
0.111875
0.111686
0.111544
0.111449
0.111401
0.111401
0.111449
0.111544
0.111686
0.111875
0.112112
0.112396
0.112727
0.113105
0.11353
0.114002
0.114521
0.115086
0.115697
0.116354
0.117057
0.117804
0.118596
0.119432
0.120311
0.121232
0.122196
0.123199
0.124244
0.125328
0.12812
0.127008
0.125938
0.12491
0.123923
0.12298
0.122079
0.121224
0.120413
0.119648
0.118929
0.118257
0.117631
0.117053
0.116523
0.11604
0.115605
0.115218
0.114879
0.114589
0.114347
0.114153
0.114007
0.113911
0.113862
0.113862
0.113911
0.114008
0.114153
0.114347
0.114589
0.114879
0.115218
0.115605
0.11604
0.116523
0.117053
0.117631
0.118257
0.118929
0.119648
0.120413
0.121224
0.122079
0.12298
0.123923
0.12491
0.125938
0.127008
0.12812
0.130999
0.12986
0.128763
0.127709
0.126699
0.125732
0.12481
0.123934
0.123103
0.12232
0.121584
0.120895
0.120255
0.119664
0.119121
0.118626
0.118181
0.117785
0.117439
0.117142
0.116894
0.116696
0.116547
0.116448
0.116398
0.116398
0.116448
0.116547
0.116696
0.116894
0.117142
0.117439
0.117785
0.118181
0.118626
0.119121
0.119664
0.120255
0.120895
0.121584
0.12232
0.123103
0.123934
0.12481
0.125732
0.126699
0.127709
0.128763
0.129859
0.130999
0.133969
0.132802
0.131678
0.130598
0.129563
0.128572
0.127627
0.126729
0.125879
0.125076
0.124322
0.123617
0.122961
0.122356
0.1218
0.121294
0.120838
0.120433
0.120078
0.119774
0.11952
0.119317
0.119165
0.119064
0.119013
0.119013
0.119064
0.119165
0.119317
0.11952
0.119774
0.120078
0.120433
0.120838
0.121294
0.1218
0.122356
0.122961
0.123617
0.124322
0.125076
0.125879
0.126729
0.127627
0.128572
0.129563
0.130598
0.131678
0.132802
0.133969
0.137035
0.135838
0.134687
0.13358
0.132519
0.131504
0.130535
0.129615
0.128743
0.127921
0.127148
0.126426
0.125754
0.125134
0.124564
0.124046
0.123579
0.123164
0.122801
0.122489
0.12223
0.122022
0.121866
0.121762
0.12171
0.12171
0.121762
0.121866
0.122022
0.12223
0.122489
0.122801
0.123164
0.123579
0.124046
0.124564
0.125134
0.125754
0.126426
0.127148
0.127921
0.128743
0.129615
0.130535
0.131504
0.132519
0.13358
0.134687
0.135838
0.137035
0.1402
0.138974
0.137793
0.136659
0.135571
0.134531
0.133538
0.132595
0.131702
0.130859
0.130067
0.129326
0.128638
0.128002
0.127418
0.126887
0.126409
0.125984
0.125611
0.125292
0.125026
0.124813
0.124654
0.124547
0.124494
0.124494
0.124547
0.124654
0.124813
0.125026
0.125292
0.125611
0.125984
0.126409
0.126887
0.127418
0.128002
0.128638
0.129326
0.130067
0.130859
0.131702
0.132595
0.133538
0.13453
0.135571
0.136659
0.137793
0.138974
0.1402
0.14347
0.142212
0.141002
0.139839
0.138724
0.137657
0.13664
0.135673
0.134757
0.133893
0.133081
0.132322
0.131617
0.130965
0.130366
0.129822
0.129332
0.128896
0.128515
0.128187
0.127915
0.127696
0.127533
0.127424
0.127369
0.127369
0.127424
0.127533
0.127696
0.127915
0.128187
0.128515
0.128896
0.129332
0.129822
0.130366
0.130965
0.131617
0.132322
0.133081
0.133893
0.134757
0.135673
0.13664
0.137657
0.138724
0.139839
0.141002
0.142212
0.14347
0.146848
0.145559
0.144318
0.143125
0.141982
0.140888
0.139845
0.138854
0.137915
0.137029
0.136196
0.135418
0.134695
0.134026
0.133413
0.132855
0.132352
0.131906
0.131514
0.131179
0.130899
0.130676
0.130508
0.130396
0.13034
0.13034
0.130396
0.130508
0.130676
0.130899
0.131179
0.131514
0.131906
0.132352
0.132855
0.133413
0.134026
0.134695
0.135418
0.136196
0.137029
0.137915
0.138854
0.139845
0.140888
0.141982
0.143125
0.144318
0.145559
0.146848
0.15034
0.149018
0.147745
0.146522
0.145349
0.144227
0.143158
0.142141
0.141178
0.14027
0.139417
0.138619
0.137877
0.137191
0.136562
0.13599
0.135475
0.135017
0.134616
0.134272
0.133985
0.133756
0.133584
0.133469
0.133411
0.133411
0.133469
0.133584
0.133756
0.133985
0.134272
0.134615
0.135017
0.135475
0.13599
0.136562
0.137191
0.137877
0.138619
0.139416
0.14027
0.141178
0.142141
0.143158
0.144227
0.145349
0.146522
0.147745
0.149018
0.15034
0.153951
0.152595
0.151289
0.150035
0.148831
0.147681
0.146584
0.145541
0.144554
0.143622
0.142747
0.141928
0.141167
0.140464
0.139819
0.139232
0.138704
0.138234
0.137823
0.13747
0.137176
0.136941
0.136764
0.136646
0.136588
0.136588
0.136646
0.136764
0.136941
0.137176
0.13747
0.137823
0.138234
0.138704
0.139232
0.139819
0.140464
0.141167
0.141928
0.142746
0.143622
0.144554
0.145541
0.146584
0.147681
0.148831
0.150034
0.151289
0.152595
0.153951
0.157688
0.156296
0.154956
0.153669
0.152434
0.151254
0.150128
0.149059
0.148045
0.14709
0.146192
0.145352
0.144572
0.14385
0.143188
0.142586
0.142044
0.141562
0.14114
0.140779
0.140477
0.140236
0.140055
0.139934
0.139874
0.139874
0.139934
0.140055
0.140236
0.140477
0.140779
0.14114
0.141562
0.142044
0.142586
0.143188
0.14385
0.144572
0.145352
0.146192
0.14709
0.148045
0.149059
0.150128
0.151254
0.152434
0.153669
0.154956
0.156296
0.157688
0.161556
0.160126
0.158751
0.15743
0.156163
0.154952
0.153797
0.152699
0.151659
0.150679
0.149757
0.148896
0.148095
0.147355
0.146676
0.146058
0.145502
0.145007
0.144574
0.144203
0.143894
0.143646
0.14346
0.143336
0.143275
0.143275
0.143336
0.14346
0.143646
0.143894
0.144203
0.144574
0.145007
0.145502
0.146058
0.146676
0.147355
0.148095
0.148896
0.149757
0.150679
0.151659
0.152699
0.153797
0.154952
0.156163
0.15743
0.158751
0.160126
0.161556
0.165561
0.164093
0.162682
0.161325
0.160025
0.158781
0.157596
0.156469
0.155402
0.154395
0.153449
0.152565
0.151743
0.150984
0.150287
0.149653
0.149082
0.148574
0.14813
0.147749
0.147431
0.147177
0.146987
0.14686
0.146796
0.146796
0.14686
0.146987
0.147177
0.147431
0.147749
0.14813
0.148574
0.149082
0.149653
0.150287
0.150983
0.151743
0.152565
0.153449
0.154395
0.155402
0.156469
0.157596
0.158781
0.160025
0.161325
0.162682
0.164093
0.165561
0.169712
0.168204
0.166754
0.165361
0.164025
0.162749
0.161531
0.160374
0.159279
0.158245
0.157274
0.156366
0.155522
0.154743
0.154027
0.153376
0.15279
0.152269
0.151813
0.151422
0.151096
0.150835
0.15064
0.150509
0.150444
0.150444
0.150509
0.15064
0.150835
0.151096
0.151422
0.151813
0.152269
0.15279
0.153376
0.154027
0.154743
0.155522
0.156366
0.157274
0.158245
0.159279
0.160374
0.161531
0.162749
0.164025
0.165361
0.166754
0.168204
0.169712
0.174014
0.172465
0.170975
0.169544
0.168173
0.166861
0.165611
0.164422
0.163297
0.162236
0.161238
0.160306
0.15944
0.158639
0.157904
0.157236
0.156634
0.156099
0.15563
0.155229
0.154894
0.154626
0.154425
0.154291
0.154224
0.154224
0.154291
0.154425
0.154626
0.154894
0.155229
0.15563
0.156099
0.156634
0.157236
0.157904
0.158639
0.15944
0.160306
0.161238
0.162236
0.163297
0.164422
0.165611
0.166861
0.168173
0.169544
0.170975
0.172465
0.174014
0.178477
0.176885
0.175354
0.173883
0.172474
0.171126
0.169841
0.168621
0.167465
0.166374
0.16535
0.164392
0.163502
0.162679
0.161924
0.161238
0.16062
0.16007
0.159589
0.159176
0.158832
0.158557
0.158351
0.158213
0.158144
0.158144
0.158213
0.158351
0.158557
0.158832
0.159176
0.159589
0.16007
0.16062
0.161238
0.161924
0.162679
0.163502
0.164392
0.16535
0.166374
0.167465
0.168621
0.169841
0.171126
0.172474
0.173883
0.175354
0.176885
0.178477
0.183109
0.181471
0.179897
0.178386
0.176937
0.175552
0.174231
0.172977
0.171789
0.170668
0.169615
0.168631
0.167716
0.166871
0.166095
0.16539
0.164755
0.16419
0.163696
0.163272
0.162918
0.162636
0.162424
0.162282
0.162211
0.162211
0.162282
0.162424
0.162636
0.162918
0.163272
0.163696
0.16419
0.164755
0.16539
0.166095
0.166871
0.167716
0.168631
0.169615
0.170668
0.171789
0.172977
0.174231
0.175552
0.176937
0.178386
0.179897
0.181471
0.183109
0.187918
0.186234
0.184615
0.183061
0.181571
0.180147
0.178789
0.1775
0.176278
0.175126
0.174044
0.173032
0.172092
0.171223
0.170426
0.1697
0.169047
0.168467
0.167959
0.167523
0.16716
0.166869
0.166651
0.166506
0.166433
0.166433
0.166506
0.166651
0.166869
0.16716
0.167523
0.167959
0.168467
0.169047
0.1697
0.170425
0.171223
0.172092
0.173032
0.174044
0.175126
0.176278
0.1775
0.178789
0.180147
0.181571
0.183061
0.184615
0.186234
0.187918
0.192915
0.191182
0.189517
0.187918
0.186385
0.184921
0.183525
0.182198
0.180942
0.179757
0.178644
0.177604
0.176636
0.175743
0.174923
0.174178
0.173506
0.172909
0.172387
0.171939
0.171565
0.171266
0.171042
0.170893
0.170818
0.170818
0.170893
0.171042
0.171266
0.171565
0.171939
0.172387
0.172909
0.173506
0.174178
0.174923
0.175743
0.176636
0.177604
0.178644
0.179757
0.180942
0.182198
0.183525
0.184921
0.186385
0.187918
0.189517
0.191182
0.198111
0.196326
0.194612
0.192967
0.19139
0.189883
0.188447
0.187082
0.185789
0.18457
0.183425
0.182355
0.18136
0.180441
0.179598
0.178831
0.17814
0.177526
0.176988
0.176528
0.176143
0.175836
0.175605
0.175452
0.175375
0.175375
0.175452
0.175605
0.175836
0.176143
0.176528
0.176988
0.177526
0.17814
0.178831
0.179598
0.180441
0.18136
0.182355
0.183425
0.18457
0.185789
0.187082
0.188447
0.189883
0.19139
0.192967
0.194612
0.203515
0.201678
0.199913
0.198219
0.196596
0.195045
0.193566
0.192162
0.190831
0.189577
0.188398
0.187297
0.186273
0.185327
0.184459
0.18367
0.182959
0.182327
0.181774
0.1813
0.180904
0.180588
0.180351
0.180193
0.180114
0.180114
0.180193
0.180351
0.180588
0.180904
0.1813
0.181774
0.182327
0.182959
0.18367
0.184459
0.185327
0.186273
0.187297
0.188398
0.189577
0.190831
0.192162
0.193566
0.195045
0.196596
0.198219
0.209141
0.207248
0.20543
0.203686
0.202014
0.200417
0.198895
0.197448
0.196079
0.194787
0.193574
0.19244
0.191386
0.190412
0.189518
0.188706
0.187974
0.187323
0.186754
0.186266
0.185859
0.185533
0.185289
0.185126
0.185044
0.185044
0.185126
0.185289
0.185533
0.185859
0.186266
0.186754
0.187323
0.187974
0.188706
0.189518
0.190412
0.191386
0.19244
0.193574
0.194787
0.196079
0.197448
0.198895
0.200417
0.202014
0.215001
0.21305
0.211177
0.20938
0.207658
0.206012
0.204444
0.202954
0.201544
0.200213
0.198963
0.197795
0.19671
0.195707
0.194786
0.193949
0.193196
0.192526
0.191939
0.191436
0.191017
0.190682
0.19043
0.190263
0.190179
0.190179
0.190263
0.19043
0.190682
0.191017
0.191436
0.191939
0.192526
0.193196
0.193949
0.194786
0.195707
0.19671
0.197795
0.198963
0.200213
0.201544
0.202954
0.204444
0.206012
0.221108
0.219097
0.217167
0.215314
0.21354
0.211844
0.210228
0.208693
0.207239
0.205868
0.20458
0.203376
0.202258
0.201224
0.200276
0.199414
0.198637
0.197947
0.197342
0.196824
0.196393
0.196047
0.195788
0.195615
0.195529
0.195529
0.195615
0.195788
0.196047
0.196393
0.196824
0.197342
0.197947
0.198637
0.199414
0.200276
0.201224
0.202258
0.203376
0.20458
0.205868
0.207239
0.208693
0.210228
0.211844
0.227479
0.225404
0.223414
0.221504
0.219674
0.217925
0.21626
0.214677
0.213178
0.211765
0.210437
0.209196
0.208043
0.206978
0.206
0.205111
0.204311
0.203599
0.202976
0.202442
0.201997
0.201641
0.201374
0.201196
0.201107
0.201107
0.201196
0.201374
0.201641
0.201997
0.202442
0.202976
0.203599
0.204311
0.205111
0.206
0.206978
0.208043
0.209196
0.210437
0.211765
0.213178
0.214677
0.216259
0.217925
0.234129
0.231987
0.229934
0.227964
0.226076
0.224273
0.222555
0.220922
0.219377
0.217919
0.21655
0.21527
0.214081
0.212982
0.211974
0.211057
0.210232
0.209498
0.208855
0.208305
0.207846
0.207478
0.207203
0.207019
0.206927
0.206927
0.207019
0.207203
0.207478
0.207846
0.208305
0.208855
0.209498
0.210232
0.211057
0.211974
0.212982
0.214081
0.21527
0.21655
0.217919
0.219377
0.220922
0.222555
0.224273
0.241074
0.238864
0.236744
0.234711
0.232763
0.230902
0.229129
0.227445
0.22585
0.224346
0.222933
0.221613
0.220386
0.219252
0.218212
0.217266
0.216415
0.215657
0.214995
0.214426
0.213953
0.213574
0.21329
0.2131
0.213005
0.213005
0.2131
0.21329
0.213574
0.213953
0.214426
0.214995
0.215657
0.216415
0.217266
0.218212
0.219252
0.220386
0.221613
0.222933
0.224346
0.22585
0.227445
0.229129
0.230902
0.248334
0.246051
0.243863
0.241764
0.239753
0.237832
0.236001
0.234263
0.232616
0.231063
0.229605
0.228242
0.226975
0.225805
0.224732
0.223755
0.222876
0.222094
0.22141
0.220824
0.220335
0.219944
0.21965
0.219455
0.219357
0.219357
0.219455
0.21965
0.219944
0.220335
0.220824
0.22141
0.222094
0.222876
0.223755
0.224732
0.225805
0.226975
0.228242
0.229605
0.231063
0.232616
0.234263
0.236001
0.237832
0.255929
0.25357
0.25131
0.249141
0.247064
0.24508
0.24319
0.241394
0.239694
0.23809
0.236584
0.235176
0.233868
0.232659
0.231551
0.230542
0.229634
0.228827
0.22812
0.227515
0.22701
0.226606
0.226303
0.226101
0.226
0.226
0.226101
0.226303
0.226606
0.22701
0.227515
0.22812
0.228827
0.229634
0.230542
0.231551
0.232659
0.233868
0.235176
0.236584
0.23809
0.239694
0.241394
0.24319
0.24508
0.263881
0.261442
0.259106
0.256865
0.254719
0.252669
0.250715
0.24886
0.247102
0.245445
0.243889
0.242435
0.241083
0.239834
0.238688
0.237646
0.236708
0.235874
0.235144
0.234518
0.233997
0.233579
0.233266
0.233057
0.232953
0.232953
0.233057
0.233266
0.233579
0.233997
0.234518
0.235144
0.235874
0.236708
0.237646
0.238688
0.239834
0.241083
0.242435
0.243889
0.245445
0.247102
0.24886
0.250715
0.272212
0.26969
0.267275
0.264958
0.262739
0.260619
0.2586
0.256681
0.254865
0.253152
0.251543
0.250039
0.248642
0.247351
0.246166
0.245089
0.244119
0.243257
0.242502
0.241855
0.241316
0.240885
0.240561
0.240345
0.240237
0.240237
0.240345
0.240561
0.240885
0.241316
0.241855
0.242502
0.243257
0.244119
0.245089
0.246166
0.247351
0.248642
0.250039
0.251543
0.253152
0.254865
0.256681
0.2586
0.280949
0.278339
0.275841
0.273444
0.271149
0.268957
0.266868
0.264884
0.263005
0.261232
0.259568
0.258013
0.256568
0.255232
0.254007
0.252893
0.25189
0.250998
0.250218
0.249548
0.248991
0.248544
0.24821
0.247986
0.247875
0.247875
0.247986
0.24821
0.248544
0.248991
0.249548
0.250218
0.250998
0.25189
0.252893
0.254007
0.255232
0.256568
0.258013
0.259568
0.261232
0.263005
0.264884
0.266868
0.290119
0.287417
0.284831
0.282351
0.279976
0.277707
0.275546
0.273492
0.271547
0.269714
0.267991
0.266382
0.264886
0.263504
0.258314
0.257622
0.257045
0.256583
0.256236
0.256005
0.25589
0.25589
0.256005
0.256236
0.256583
0.257045
0.257622
0.258314
0.259122
0.260045
0.261084
0.262237
0.263504
0.264886
0.266382
0.267991
0.269714
0.271547
0.273492
0.275546
0.269687
0.270881
0.272193
0.273624
0.275173
0.27684
0.278623
0.280522
0.282535
0.284661
0.289958
0.292044
0.294246
0.078639
0.0801531
0.0817028
0.0832894
0.0849141
0.0865783
0.0882834
0.090031
0.0918227
0.09366
0.0955446
0.0974785
0.0994634
0.101501
0.103594
0.105745
0.107955
0.110227
0.112564
0.114969
0.117444
0.119994
0.122621
0.125328
0.12812
0.130999
0.133969
0.137035
0.1402
0.14347
0.146848
0.15034
0.153951
0.157688
0.161556
0.165561
0.169712
0.174014
0.178477
0.183109
0.187918
0.192915
0.198111
0.203515
0.209141
0.215001
0.221108
0.227479
0.234129
0.241074
0.248334
0.255929
0.263881
0.272212
0.280949
0.290119
0.0794717
0.0810084
0.0825816
0.0841926
0.0858427
0.0875334
0.0892661
0.0910423
0.0928638
0.0947321
0.0966492
0.0986168
0.100637
0.102712
0.104843
0.107034
0.109286
0.111602
0.113985
0.116437
0.118962
0.121563
0.124244
0.127008
0.12986
0.132802
0.135838
0.138974
0.142212
0.145559
0.149018
0.152595
0.156296
0.160126
0.164093
0.168204
0.172465
0.176885
0.181471
0.186234
0.191182
0.196326
0.201678
0.207248
0.21305
0.219097
0.225404
0.231987
0.238864
0.246051
0.25357
0.261442
0.26969
0.278339
0.287417
0.0868097
0.088528
0.0902894
0.0920956
0.0939482
0.095849
0.0977998
0.0998027
0.10186
0.103973
0.106144
0.108377
0.110672
0.113034
0.115464
0.117966
0.120543
0.123199
0.125938
0.128763
0.131678
0.134687
0.137793
0.141002
0.144318
0.147745
0.151289
0.154956
0.158751
0.162682
0.166754
0.170975
0.175354
0.179897
0.184615
0.189517
0.194612
0.199913
0.20543
0.211177
0.217167
0.223414
0.229934
0.236744
0.243863
0.25131
0.259106
0.267275
0.275841
0.284831
0.0861126
0.087817
0.0895641
0.0913556
0.093193
0.0950782
0.097013
0.0989992
0.101039
0.103134
0.105288
0.107501
0.109777
0.112119
0.114528
0.117008
0.119563
0.122196
0.12491
0.127709
0.130598
0.13358
0.136659
0.139839
0.143125
0.146522
0.150035
0.153669
0.15743
0.161325
0.165361
0.169544
0.173883
0.178386
0.183061
0.187918
0.192967
0.198219
0.203686
0.20938
0.215314
0.221504
0.227964
0.234711
0.241764
0.249141
0.256865
0.264958
0.273444
0.282351
0.0854426
0.0871338
0.0888672
0.0906446
0.0924675
0.0943377
0.0962571
0.0982274
0.100251
0.102329
0.104465
0.10666
0.108918
0.11124
0.113629
0.116089
0.118622
0.121232
0.123923
0.126699
0.129563
0.132519
0.135571
0.138724
0.141982
0.145349
0.148831
0.152434
0.156163
0.160025
0.164025
0.168173
0.172474
0.176937
0.181571
0.186385
0.19139
0.196596
0.202014
0.207658
0.213539
0.219674
0.226076
0.232763
0.239753
0.247064
0.254719
0.262739
0.271149
0.279976
0.0864792
0.0881996
0.0899635
0.0917725
0.0936285
0.095533
0.0974881
0.0994958
0.101558
0.103677
0.105855
0.108095
0.110399
0.112769
0.115209
0.117722
0.120311
0.12298
0.125732
0.128572
0.131504
0.13453
0.137657
0.140888
0.144227
0.147681
0.151254
0.154952
0.158781
0.162749
0.166861
0.171126
0.175552
0.180147
0.184921
0.189883
0.195045
0.200417
0.206012
0.211844
0.217925
0.224273
0.230902
0.237832
0.24508
0.252669
0.260619
0.268957
0.277707
0.0858539
0.0875619
0.089313
0.0911089
0.0929512
0.0948417
0.0967824
0.0987751
0.100822
0.102925
0.105087
0.10731
0.109596
0.111948
0.11437
0.116863
0.119432
0.122079
0.12481
0.127627
0.130535
0.133538
0.13664
0.139845
0.143158
0.146584
0.150128
0.153797
0.157596
0.161531
0.165611
0.169841
0.174231
0.178789
0.183525
0.188447
0.193566
0.198895
0.204444
0.210228
0.216259
0.222555
0.229129
0.236001
0.24319
0.250715
0.2586
0.266868
0.275545
0.0852587
0.0869549
0.0886938
0.0904772
0.0923066
0.0941838
0.0961107
0.0980893
0.100122
0.10221
0.104356
0.106563
0.108832
0.111168
0.113571
0.116047
0.118596
0.121224
0.123934
0.126729
0.129615
0.132595
0.135673
0.138854
0.142141
0.145541
0.149059
0.152699
0.156469
0.160374
0.164422
0.168621
0.172977
0.1775
0.182198
0.187082
0.192161
0.197448
0.202954
0.208692
0.214677
0.220922
0.227445
0.234263
0.241394
0.24886
0.256681
0.264884
0.273492
0.0846941
0.0863791
0.0881066
0.0898781
0.0916953
0.0935599
0.0954739
0.0974391
0.0994576
0.101531
0.103663
0.105854
0.108109
0.110428
0.112815
0.115272
0.117804
0.120413
0.123103
0.125879
0.128743
0.131702
0.134757
0.137915
0.141178
0.144554
0.148045
0.151659
0.155402
0.159279
0.163297
0.167465
0.171789
0.176278
0.180942
0.185789
0.190831
0.196079
0.201544
0.207239
0.213178
0.219377
0.22585
0.232616
0.239694
0.247102
0.254865
0.263005
0.271547
0.0841607
0.0858352
0.0875519
0.0893122
0.0911179
0.0929707
0.0948725
0.0968251
0.0988306
0.100891
0.103009
0.105186
0.107425
0.109729
0.1121
0.114542
0.117057
0.119648
0.12232
0.125076
0.127921
0.130859
0.133893
0.137029
0.14027
0.143622
0.14709
0.150679
0.154395
0.158245
0.162236
0.166374
0.170668
0.175126
0.179757
0.18457
0.189577
0.194787
0.200213
0.205868
0.211765
0.217919
0.224346
0.231063
0.23809
0.245445
0.253152
0.261232
0.269714
0.083659
0.0853236
0.0870301
0.08878
0.0905749
0.0924166
0.0943069
0.0962477
0.098241
0.100289
0.102394
0.104557
0.106783
0.109072
0.111429
0.113855
0.116354
0.118929
0.121584
0.124322
0.127148
0.130067
0.133081
0.136196
0.139416
0.142746
0.146192
0.149757
0.153449
0.157274
0.161238
0.16535
0.169615
0.174044
0.178644
0.183425
0.188398
0.193574
0.198963
0.20458
0.210437
0.21655
0.222933
0.229605
0.236584
0.243889
0.251543
0.259568
0.267991
0.0831894
0.0848448
0.0865418
0.0882819
0.0900667
0.0918981
0.0937777
0.0957075
0.0976894
0.0997256
0.101818
0.103969
0.106182
0.108458
0.110801
0.113213
0.115697
0.118257
0.120895
0.123617
0.126426
0.129326
0.132322
0.135418
0.138619
0.141928
0.145352
0.148896
0.152565
0.156366
0.160306
0.164392
0.168631
0.173032
0.177604
0.182355
0.187297
0.19244
0.197795
0.203376
0.209196
0.21527
0.221613
0.228242
0.235176
0.242435
0.250039
0.258013
0.266382
0.0827521
0.084399
0.0860872
0.0878182
0.0895938
0.0914155
0.0932852
0.0952047
0.0971761
0.0992013
0.101283
0.103422
0.105623
0.107887
0.110217
0.112615
0.115086
0.117631
0.120255
0.122961
0.125754
0.128638
0.131617
0.134695
0.137877
0.141167
0.144571
0.148095
0.151743
0.155522
0.15944
0.163502
0.167716
0.172092
0.176636
0.18136
0.186273
0.191386
0.19671
0.202258
0.208043
0.214081
0.220386
0.226975
0.233868
0.241083
0.248642
0.256568
0.264886
0.0823476
0.0839866
0.0856667
0.0873894
0.0891563
0.0909691
0.0928296
0.0947397
0.0967014
0.0987166