/*--------------------------------*- C++ -*----------------------------------*\
  =========                 |
  \\      /  F ield         | OpenFOAM: The Open Source CFD Toolbox
   \\    /   O peration     | Website:  https://openfoam.org
    \\  /    A nd           | Version:  7
     \\/     M anipulation  |
\*---------------------------------------------------------------------------*/
FoamFile
{
    version     2.0;
    format      ascii;
    class       volScalarField;
    location    "44000";
    object      nut;
}
// * * * * * * * * * * * * * * * * * * * * * * * * * * * * * * * * * * * * * //

dimensions      [0 2 -1 0 0 0 0];

internalField   nonuniform List<scalar> 
4782
(
2.67024e-11
2.54577e-11
2.4217e-11
2.2975e-11
2.17355e-11
2.05097e-11
1.93002e-11
1.8104e-11
1.69294e-11
1.57747e-11
3.17414e-11
3.30052e-11
3.43319e-11
3.56578e-11
3.69736e-11
3.82264e-11
3.94339e-11
4.05516e-11
4.16081e-11
4.25956e-11
4.34729e-11
4.42386e-11
4.49309e-11
4.5506e-11
4.60061e-11
4.64294e-11
4.67749e-11
4.69995e-11
4.71486e-11
4.72226e-11
4.7181e-11
4.70288e-11
4.681e-11
4.64881e-11
4.61057e-11
4.56636e-11
4.51651e-11
4.46124e-11
4.40079e-11
4.33226e-11
4.25621e-11
4.17314e-11
4.08351e-11
3.99033e-11
3.8937e-11
3.79374e-11
3.69039e-11
3.58421e-11
3.47562e-11
3.3632e-11
3.24743e-11
3.1288e-11
3.00921e-11
2.88763e-11
2.76452e-11
2.64141e-11
2.51757e-11
2.39341e-11
2.26931e-11
2.14643e-11
2.02435e-11
1.90403e-11
1.78575e-11
1.66926e-11
1.55488e-11
3.22637e-11
3.35612e-11
3.48902e-11
3.6226e-11
3.75396e-11
3.87819e-11
3.99752e-11
4.11105e-11
4.2145e-11
4.30758e-11
4.39005e-11
4.4617e-11
4.52636e-11
4.57955e-11
4.62547e-11
4.66388e-11
4.69468e-11
4.71361e-11
4.72517e-11
4.72936e-11
4.72222e-11
4.70826e-11
4.68767e-11
4.66065e-11
4.62389e-11
4.57803e-11
4.52717e-11
4.46813e-11
4.40142e-11
4.3275e-11
4.24988e-11
4.16579e-11
4.0757e-11
3.98266e-11
3.88438e-11
3.78127e-11
3.67375e-11
3.56221e-11
3.44892e-11
3.3323e-11
3.21277e-11
3.09071e-11
2.96791e-11
2.84458e-11
2.72099e-11
2.5974e-11
2.4741e-11
2.35135e-11
2.22945e-11
2.10795e-11
1.98723e-11
1.86825e-11
1.75075e-11
1.63552e-11
1.52281e-11
3.26717e-11
3.39736e-11
3.53031e-11
3.66198e-11
3.79003e-11
3.91299e-11
4.02998e-11
4.14037e-11
4.23996e-11
4.32861e-11
4.41e-11
4.48381e-11
4.54981e-11
4.60379e-11
4.64593e-11
4.6764e-11
4.69938e-11
4.71484e-11
4.72262e-11
4.71883e-11
4.7079e-11
4.68989e-11
4.66512e-11
4.63374e-11
4.59249e-11
4.54196e-11
4.48618e-11
4.42203e-11
4.35324e-11
4.28003e-11
4.19971e-11
4.11555e-11
4.02512e-11
3.93138e-11
3.83222e-11
3.73022e-11
3.62363e-11
3.51483e-11
3.40228e-11
3.28805e-11
3.17242e-11
3.05426e-11
2.93403e-11
2.81335e-11
2.69142e-11
2.56865e-11
2.44639e-11
2.32404e-11
2.20199e-11
2.08059e-11
1.96021e-11
1.84117e-11
1.72429e-11
1.60981e-11
1.49797e-11
3.32163e-11
3.45503e-11
3.58972e-11
3.71977e-11
3.8434e-11
3.95936e-11
4.07013e-11
4.17486e-11
4.26923e-11
4.35687e-11
4.43741e-11
4.51065e-11
4.57227e-11
4.6224e-11
4.66115e-11
4.69288e-11
4.71753e-11
4.73094e-11
4.73345e-11
4.72954e-11
4.71525e-11
4.69496e-11
4.66498e-11
4.62577e-11
4.58042e-11
4.52667e-11
4.46506e-11
4.39606e-11
4.32321e-11
4.24663e-11
4.16366e-11
4.07741e-11
3.98552e-11
3.88842e-11
3.78871e-11
3.68445e-11
3.57766e-11
3.46708e-11
3.35317e-11
3.23794e-11
3.12162e-11
3.00306e-11
2.88265e-11
2.76078e-11
2.63886e-11
2.5171e-11
2.39564e-11
2.27488e-11
2.15442e-11
2.03465e-11
1.91651e-11
1.79972e-11
1.68508e-11
1.5724e-11
1.46235e-11
3.30383e-11
3.43692e-11
3.56883e-11
3.69642e-11
3.82073e-11
3.94041e-11
4.05133e-11
4.15651e-11
4.25187e-11
4.33723e-11
4.4124e-11
4.4812e-11
4.53917e-11
4.59043e-11
4.6306e-11
4.65982e-11
4.67822e-11
4.69002e-11
4.691e-11
4.68549e-11
4.66956e-11
4.64363e-11
4.61186e-11
4.57439e-11
4.52788e-11
4.47621e-11
4.41628e-11
4.3486e-11
4.27653e-11
4.19746e-11
4.11431e-11
4.02731e-11
3.93442e-11
3.83841e-11
3.73733e-11
3.63363e-11
3.52757e-11
3.41939e-11
3.30933e-11
3.19605e-11
3.08148e-11
2.96587e-11
2.84821e-11
2.72893e-11
2.60951e-11
2.48924e-11
2.36942e-11
2.2495e-11
2.13061e-11
2.013e-11
1.89635e-11
1.78098e-11
1.66769e-11
1.55672e-11
1.44793e-11
3.20904e-11
3.33802e-11
3.46924e-11
3.59624e-11
3.7197e-11
3.83828e-11
3.94766e-11
4.04727e-11
4.14027e-11
4.22611e-11
4.30442e-11
4.37099e-11
4.42977e-11
4.48067e-11
4.52351e-11
4.55821e-11
4.58466e-11
4.6031e-11
4.61356e-11
4.61231e-11
4.60386e-11
4.5883e-11
4.56221e-11
4.52981e-11
4.49148e-11
4.44397e-11
4.38785e-11
4.32692e-11
4.25827e-11
4.18544e-11
4.10573e-11
4.01962e-11
3.92757e-11
3.83244e-11
3.73438e-11
3.6335e-11
3.53009e-11
3.42247e-11
3.31285e-11
3.20141e-11
3.08846e-11
2.97428e-11
2.85913e-11
2.74211e-11
2.62363e-11
2.50413e-11
2.384e-11
2.26448e-11
2.1458e-11
2.02827e-11
1.91155e-11
1.79653e-11
1.68347e-11
1.57262e-11
1.46382e-11
1.35735e-11
1.24387e-11
1.12038e-11
1.00254e-11
3.15022e-11
3.2739e-11
3.40296e-11
3.52981e-11
3.65161e-11
3.76959e-11
3.88245e-11
3.98594e-11
4.08324e-11
4.17012e-11
4.25017e-11
4.31898e-11
4.38045e-11
4.43423e-11
4.48009e-11
4.5179e-11
4.54351e-11
4.56132e-11
4.57127e-11
4.5733e-11
4.56766e-11
4.55454e-11
4.53417e-11
4.50676e-11
4.4728e-11
4.42914e-11
4.37975e-11
4.32174e-11
4.25875e-11
4.19103e-11
4.11605e-11
4.03431e-11
3.9488e-11
3.85738e-11
3.76272e-11
3.66506e-11
3.56466e-11
3.45995e-11
3.35138e-11
3.24107e-11
3.12775e-11
3.01184e-11
2.89512e-11
2.77786e-11
2.65914e-11
2.53937e-11
2.41994e-11
2.30022e-11
2.18059e-11
2.06214e-11
1.94449e-11
1.82856e-11
1.71409e-11
1.60185e-11
1.49167e-11
1.38382e-11
1.27403e-11
1.14849e-11
1.02876e-11
9.15231e-12
3.09692e-11
3.21976e-11
3.35076e-11
3.48127e-11
3.60791e-11
3.72863e-11
3.84207e-11
3.94726e-11
4.04708e-11
4.14072e-11
4.22782e-11
4.308e-11
4.38095e-11
4.44258e-11
4.49303e-11
4.53239e-11
4.56075e-11
4.58226e-11
4.59692e-11
4.60058e-11
4.59757e-11
4.58796e-11
4.56802e-11
4.53827e-11
4.50288e-11
4.45849e-11
4.40561e-11
4.348e-11
4.28267e-11
4.21311e-11
4.13941e-11
4.06183e-11
3.98062e-11
3.8935e-11
3.80096e-11
3.70345e-11
3.6014e-11
3.49521e-11
3.38528e-11
3.27373e-11
3.16076e-11
3.04659e-11
2.9301e-11
2.81298e-11
2.69432e-11
2.57562e-11
2.45616e-11
2.33635e-11
2.21657e-11
2.09719e-11
1.97859e-11
1.86111e-11
1.74507e-11
1.63128e-11
1.51954e-11
1.41013e-11
1.30364e-11
1.17671e-11
1.05477e-11
9.38986e-12
8.30094e-12
7.2849e-12
6.34459e-12
5.48079e-12
4.69506e-12
3.98684e-12
3.35405e-12
2.79458e-12
2.30471e-12
1.88054e-12
1.51729e-12
1.20978e-12
9.52553e-13
7.40038e-13
5.66794e-13
4.2751e-13
3.17163e-13
2.31101e-13
1.65101e-13
1.15404e-13
7.87235e-14
5.22439e-14
3.35974e-14
2.0833e-14
1.23762e-14
6.98487e-15
3.70294e-15
1.81533e-15
8.04706e-16
3.1188e-16
1.00193e-16
2.43602e-17
3.79044e-18
8.41128e-19
1.82137e-19
3.04359e-11
3.15985e-11
3.28761e-11
3.41657e-11
3.54504e-11
3.6704e-11
3.78799e-11
3.89688e-11
3.99993e-11
4.09648e-11
4.18604e-11
4.26808e-11
4.33845e-11
4.40103e-11
4.4557e-11
4.4982e-11
4.53296e-11
4.55993e-11
4.57914e-11
4.59067e-11
4.5906e-11
4.58343e-11
4.56538e-11
4.53703e-11
4.50247e-11
4.45846e-11
4.40849e-11
4.35224e-11
4.28775e-11
4.21855e-11
4.14489e-11
4.06428e-11
3.97986e-11
3.89176e-11
3.80024e-11
3.70323e-11
3.60341e-11
3.50102e-11
3.39633e-11
3.28956e-11
3.17938e-11
3.06623e-11
2.95056e-11
2.83281e-11
2.71461e-11
2.59512e-11
2.47575e-11
2.35585e-11
2.23665e-11
2.11766e-11
1.99929e-11
1.88189e-11
1.76581e-11
1.65139e-11
1.53939e-11
1.42964e-11
1.32241e-11
1.1998e-11
1.0765e-11
9.59465e-12
8.49067e-12
7.45775e-12
6.49941e-12
5.6189e-12
4.817e-12
4.09335e-12
3.446e-12
2.87303e-12
2.37107e-12
1.93598e-12
1.56302e-12
1.2469e-12
9.82254e-13
7.63481e-13
5.84983e-13
4.41384e-13
3.27554e-13
2.38733e-13
1.70588e-13
1.19258e-13
8.13616e-14
5.39979e-14
3.47259e-14
2.1532e-14
1.27904e-14
7.21761e-15
3.82552e-15
1.87487e-15
8.30754e-16
3.21787e-16
1.03286e-16
2.50779e-17
3.89244e-18
8.49192e-19
1.83313e-19
3.0067e-11
3.1186e-11
3.2446e-11
3.37475e-11
3.50618e-11
3.6329e-11
3.75608e-11
3.87119e-11
3.97749e-11
4.07806e-11
4.17232e-11
4.25598e-11
4.33289e-11
4.39866e-11
4.45324e-11
4.49658e-11
4.53287e-11
4.56192e-11
4.57944e-11
4.58985e-11
4.59299e-11
4.58507e-11
4.5665e-11
4.54165e-11
4.50693e-11
4.46652e-11
4.42064e-11
4.36611e-11
4.3067e-11
4.23947e-11
4.16797e-11
4.09239e-11
4.01022e-11
3.92195e-11
3.82803e-11
3.72884e-11
3.627e-11
3.5227e-11
3.41612e-11
3.30744e-11
3.19693e-11
3.0833e-11
2.96842e-11
2.85124e-11
2.73344e-11
2.61527e-11
2.49602e-11
2.37611e-11
2.25596e-11
2.13596e-11
2.01649e-11
1.89857e-11
1.78188e-11
1.66728e-11
1.55456e-11
1.44443e-11
1.3371e-11
1.21878e-11
1.09474e-11
9.76623e-12
8.65043e-12
7.60501e-12
6.63378e-12
5.74027e-12
4.92472e-12
4.18788e-12
3.52845e-12
2.94413e-12
2.43141e-12
1.98655e-12
1.60486e-12
1.28104e-12
1.00966e-12
7.85151e-13
6.01843e-13
4.54269e-13
3.37217e-13
2.45837e-13
1.757e-13
1.2285e-13
8.38212e-14
5.56338e-14
3.57785e-14
2.2184e-14
1.31767e-14
7.43456e-15
3.93972e-15
1.93028e-15
8.5497e-16
3.30979e-16
1.06148e-16
2.57389e-17
3.98558e-18
8.57053e-19
1.84457e-19
2.93837e-11
3.06584e-11
3.18777e-11
3.31898e-11
3.45028e-11
3.58065e-11
3.70483e-11
3.82466e-11
3.93572e-11
4.03746e-11
4.12935e-11
4.21479e-11
4.29325e-11
4.36436e-11
4.42787e-11
4.47946e-11
4.51933e-11
4.54768e-11
4.56881e-11
4.57845e-11
4.58086e-11
4.57617e-11
4.5605e-11
4.53827e-11
4.5097e-11
4.4714e-11
4.42755e-11
4.37837e-11
4.32077e-11
4.25527e-11
4.18231e-11
4.10464e-11
4.02291e-11
3.93753e-11
3.84875e-11
3.75441e-11
3.65498e-11
3.553e-11
3.44671e-11
3.33841e-11
3.2266e-11
3.11332e-11
2.99734e-11
2.8791e-11
2.76028e-11
2.64001e-11
2.51869e-11
2.39673e-11
2.27542e-11
2.15423e-11
2.03428e-11
1.91517e-11
1.79786e-11
1.68261e-11
1.56918e-11
1.45831e-11
1.35022e-11
1.23606e-11
1.11107e-11
9.92115e-12
8.79589e-12
7.74023e-12
6.75824e-12
5.85274e-12
5.02529e-12
4.27619e-12
3.6051e-12
3.0098e-12
2.48721e-12
2.03335e-12
1.64341e-12
1.31242e-12
1.03487e-12
8.0509e-13
6.17349e-13
4.66126e-13
3.46123e-13
2.52392e-13
1.80422e-13
1.26172e-13
8.60971e-14
5.71482e-14
3.67532e-14
2.27878e-14
1.35343e-14
7.63539e-15
4.04537e-15
1.98151e-15
8.77326e-16
3.3945e-16
1.08778e-16
2.63434e-17
4.06997e-18
8.64686e-19
1.85565e-19
2.78031e-11
3.00208e-11
3.1173e-11
3.2449e-11
3.37659e-11
3.50787e-11
3.63326e-11
3.75425e-11
3.86978e-11
3.97898e-11
4.08146e-11
4.1731e-11
4.25381e-11
4.32746e-11
4.39354e-11
4.44778e-11
4.49027e-11
4.52535e-11
4.55296e-11
4.5689e-11
4.57354e-11
4.57129e-11
4.55822e-11
4.5348e-11
4.50534e-11
4.46628e-11
4.42172e-11
4.37178e-11
4.31329e-11
4.24996e-11
4.17889e-11
4.10355e-11
4.02415e-11
3.94092e-11
3.85411e-11
3.76396e-11
3.66845e-11
3.56809e-11
3.46333e-11
3.35462e-11
3.24416e-11
3.13056e-11
3.01427e-11
2.8957e-11
2.77528e-11
2.65461e-11
2.53286e-11
2.41044e-11
2.28866e-11
2.16697e-11
2.04648e-11
1.92747e-11
1.81021e-11
1.69441e-11
1.58089e-11
1.46989e-11
1.36162e-11
1.25176e-11
1.12586e-11
1.00591e-11
8.92506e-12
7.85986e-12
6.86784e-12
5.95205e-12
5.11426e-12
4.35567e-12
3.67481e-12
3.07026e-12
2.53872e-12
2.07664e-12
1.67943e-12
1.34187e-12
1.05858e-12
8.2388e-13
6.31994e-13
4.77344e-13
3.5455e-13
2.58598e-13
1.84892e-13
1.29317e-13
8.82522e-14
5.85822e-14
3.76761e-14
2.33594e-14
1.38727e-14
7.82532e-15
4.14522e-15
2.02989e-15
8.98414e-16
3.47429e-16
1.11249e-16
2.69094e-17
4.14847e-18
8.72068e-19
1.86633e-19
2.63132e-11
2.94784e-11
3.05445e-11
3.17595e-11
3.30422e-11
3.43359e-11
3.56075e-11
3.68382e-11
3.80169e-11
3.91355e-11
4.01529e-11
4.11038e-11
4.19839e-11
4.27913e-11
4.34841e-11
4.40636e-11
4.45309e-11
4.4887e-11
4.51742e-11
4.53492e-11
4.54557e-11
4.54538e-11
4.53471e-11
4.51401e-11
4.48752e-11
4.45539e-11
4.41784e-11
4.37163e-11
4.31729e-11
4.25533e-11
4.1862e-11
4.11034e-11
4.02812e-11
3.9426e-11
3.8513e-11
3.75702e-11
3.65987e-11
3.56003e-11
3.45567e-11
3.34721e-11
3.2351e-11
3.12142e-11
3.0064e-11
2.88885e-11
2.7705e-11
2.65041e-11
2.52989e-11
2.40937e-11
2.28833e-11
2.16803e-11
2.04877e-11
1.93015e-11
1.81315e-11
1.69804e-11
1.58507e-11
1.47449e-11
1.36653e-11
1.26118e-11
1.1354e-11
1.01513e-11
9.01271e-12
7.94343e-12
6.94626e-12
6.02561e-12
5.18231e-12
4.41711e-12
3.72954e-12
3.11797e-12
2.57971e-12
2.11135e-12
1.70839e-12
1.36578e-12
1.07796e-12
8.39323e-13
6.44091e-13
4.8665e-13
3.61572e-13
2.63785e-13
1.88641e-13
1.3196e-13
9.00669e-14
5.97913e-14
3.8455e-14
2.38421e-14
1.41586e-14
7.98574e-15
4.22951e-15
2.07066e-15
9.16148e-16
3.54114e-16
1.13308e-16
2.73761e-17
4.2119e-18
8.79176e-19
1.87659e-19
2.47887e-11
2.86631e-11
2.9838e-11
3.10374e-11
3.23049e-11
3.35993e-11
3.48569e-11
3.60845e-11
3.72374e-11
3.83067e-11
3.93197e-11
4.02713e-11
4.11194e-11
4.18619e-11
4.2497e-11
4.30632e-11
4.35563e-11
4.3974e-11
4.42764e-11
4.4466e-11
4.45451e-11
4.45541e-11
4.44557e-11
4.42897e-11
4.40573e-11
4.37605e-11
4.3402e-11
4.29517e-11
4.2415e-11
4.18268e-11
4.11896e-11
4.05065e-11
3.97801e-11
3.90135e-11
3.81837e-11
3.7296e-11
3.6378e-11
3.54104e-11
3.43976e-11
3.33441e-11
3.22543e-11
3.1149e-11
3.00152e-11
2.88569e-11
2.76918e-11
2.65224e-11
2.53402e-11
2.41494e-11
2.29541e-11
2.17581e-11
2.05731e-11
1.93949e-11
1.82331e-11
1.70905e-11
1.59647e-11
1.48589e-11
1.3776e-11
1.27189e-11
1.14886e-11
1.02769e-11
9.12915e-12
8.04885e-12
7.04212e-12
6.11196e-12
5.25929e-12
4.48501e-12
3.78876e-12
3.16941e-12
2.62389e-12
2.14865e-12
1.73933e-12
1.39097e-12
1.09822e-12
8.55361e-13
6.56606e-13
4.96231e-13
3.68767e-13
2.69083e-13
1.92457e-13
1.34643e-13
9.19047e-14
6.10133e-14
3.92407e-14
2.43282e-14
1.44461e-14
8.14683e-15
4.31404e-15
2.11152e-15
9.33905e-16
3.60804e-16
1.15368e-16
2.78432e-17
4.27551e-18
8.85988e-19
1.8864e-19
2.32987e-11
2.7089e-11
2.90136e-11
3.01185e-11
3.13402e-11
3.25781e-11
3.38141e-11
3.49947e-11
3.61344e-11
3.71905e-11
3.81571e-11
3.90648e-11
3.99077e-11
4.0644e-11
4.12727e-11
4.18318e-11
4.2318e-11
4.27291e-11
4.30232e-11
4.32421e-11
4.33455e-11
4.33755e-11
4.33319e-11
4.32161e-11
4.30303e-11
4.27772e-11
4.246e-11
4.20818e-11
4.16125e-11
4.10901e-11
4.05173e-11
3.98673e-11
3.91452e-11
3.83827e-11
3.75814e-11
3.67193e-11
3.58235e-11
3.48749e-11
3.38976e-11
3.28756e-11
3.18299e-11
3.0764e-11
2.96659e-11
2.85403e-11
2.74047e-11
2.6262e-11
2.51043e-11
2.39357e-11
2.27605e-11
2.15911e-11
2.04227e-11
1.92663e-11
1.81183e-11
1.69824e-11
1.58619e-11
1.47645e-11
1.36925e-11
1.2648e-11
1.14705e-11
1.0271e-11
9.13085e-12
8.05627e-12
7.05357e-12
6.12597e-12
5.27463e-12
4.50065e-12
3.80448e-12
3.18458e-12
2.63802e-12
2.16141e-12
1.75055e-12
1.40069e-12
1.10647e-12
8.62158e-13
6.62047e-13
5.00499e-13
3.72047e-13
2.71544e-13
1.94257e-13
1.35925e-13
9.27909e-14
6.16066e-14
3.96239e-14
2.45658e-14
1.45866e-14
8.22531e-15
4.35497e-15
2.1311e-15
9.42278e-16
3.6388e-16
1.16276e-16
2.80339e-17
4.29737e-18
8.92483e-19
1.89573e-19
2.19083e-11
2.55963e-11
2.82377e-11
2.92416e-11
3.038e-11
3.15794e-11
3.27884e-11
3.39505e-11
3.50489e-11
3.60719e-11
3.70111e-11
3.78941e-11
3.87143e-11
3.94666e-11
4.01482e-11
4.07571e-11
4.1253e-11
4.1676e-11
4.20249e-11
4.22994e-11
4.24984e-11
4.26241e-11
4.264e-11
4.25505e-11
4.23601e-11
4.21084e-11
4.17966e-11
4.14266e-11
4.10009e-11
4.04905e-11
3.99008e-11
3.92648e-11
3.85847e-11
3.78635e-11
3.7078e-11
3.6257e-11
3.53798e-11
3.44726e-11
3.35174e-11
3.25186e-11
3.14807e-11
3.04246e-11
2.93526e-11
2.8253e-11
2.71302e-11
2.59885e-11
2.48433e-11
2.36973e-11
2.25535e-11
2.14062e-11
2.02595e-11
1.91173e-11
1.79833e-11
1.68666e-11
1.57649e-11
1.46858e-11
1.36277e-11
1.25936e-11
1.14586e-11
1.02627e-11
9.12745e-12
8.05828e-12
7.05837e-12
6.13267e-12
5.28333e-12
4.51053e-12
3.81427e-12
3.19381e-12
2.64666e-12
2.16944e-12
1.75793e-12
1.40729e-12
1.11212e-12
8.66887e-13
6.65911e-13
5.03567e-13
3.74414e-13
2.73325e-13
1.95562e-13
1.36855e-13
9.34338e-14
6.20366e-14
3.99012e-14
2.47372e-14
1.46875e-14
8.28136e-15
4.38399e-15
2.14485e-15
9.48078e-16
3.65968e-16
1.16872e-16
2.81505e-17
4.30833e-18
8.98641e-19
1.90455e-19
2.0595e-11
2.41402e-11
2.74221e-11
2.83289e-11
2.94173e-11
3.05789e-11
3.17549e-11
3.28872e-11
3.39842e-11
3.50331e-11
3.60256e-11
3.69567e-11
3.7788e-11
3.85187e-11
3.91839e-11
3.97799e-11
4.03038e-11
4.07155e-11
4.10544e-11
4.13189e-11
4.15082e-11
4.16221e-11
4.16601e-11
4.16247e-11
4.15183e-11
4.13434e-11
4.11028e-11
4.0767e-11
4.03419e-11
3.98604e-11
3.92991e-11
3.86905e-11
3.80375e-11
3.73169e-11
3.65576e-11
3.5762e-11
3.49104e-11
3.40074e-11
3.30774e-11
3.21039e-11
3.10914e-11
3.00609e-11
2.89993e-11
2.79108e-11
2.67997e-11
2.56821e-11
2.45494e-11
2.34056e-11
2.22547e-11
2.11088e-11
1.99706e-11
1.88427e-11
1.77278e-11
1.66286e-11
1.55477e-11
1.44832e-11
1.34423e-11
1.2427e-11
1.13458e-11
1.017e-11
9.05222e-12
7.99818e-12
7.01262e-12
6.09793e-12
5.25681e-12
4.4907e-12
3.80037e-12
3.18415e-12
2.64026e-12
2.16521e-12
1.75525e-12
1.40564e-12
1.11123e-12
8.66506e-13
6.6583e-13
5.03663e-13
3.7459e-13
2.73515e-13
1.95735e-13
1.36997e-13
9.35412e-14
6.21127e-14
3.99517e-14
2.47686e-14
1.47056e-14
8.29096e-15
4.38852e-15
2.14667e-15
9.48632e-16
3.66042e-16
1.16829e-16
2.81156e-17
4.29678e-18
9.04442e-19
1.91285e-19
1.95412e-11
2.29864e-11
2.65288e-11
2.77087e-11
2.87485e-11
2.98869e-11
3.10561e-11
3.21941e-11
3.32804e-11
3.43299e-11
3.53014e-11
3.61887e-11
3.69861e-11
3.7724e-11
3.83978e-11
3.90035e-11
3.95386e-11
4.00014e-11
4.03917e-11
4.06711e-11
4.08804e-11
4.09818e-11
4.10148e-11
4.09441e-11
4.08094e-11
4.06119e-11
4.03536e-11
4.00036e-11
3.95673e-11
3.90807e-11
3.85458e-11
3.79648e-11
3.73397e-11
3.66467e-11
3.59157e-11
3.51249e-11
3.42787e-11
3.34026e-11
3.24787e-11
3.15111e-11
3.05216e-11
2.95125e-11
2.8471e-11
2.74152e-11
2.63482e-11
2.52608e-11
2.41682e-11
2.30631e-11
2.1959e-11
2.08587e-11
1.97575e-11
1.86592e-11
1.75675e-11
1.64858e-11
1.54177e-11
1.43661e-11
1.33341e-11
1.23279e-11
1.12855e-11
1.01189e-11
9.00926e-12
7.96222e-12
6.98256e-12
6.0739e-12
5.23772e-12
4.47632e-12
3.78974e-12
3.17643e-12
2.63476e-12
2.1616e-12
1.75301e-12
1.4044e-12
1.11056e-12
8.66205e-13
6.65771e-13
5.03728e-13
3.74715e-13
2.73658e-13
1.95867e-13
1.37106e-13
9.3624e-14
6.21712e-14
3.99904e-14
2.47924e-14
1.47191e-14
8.29795e-15
4.39168e-15
2.14784e-15
9.48913e-16
3.6602e-16
1.16761e-16
2.80761e-17
4.28501e-18
9.09869e-19
1.92059e-19
1.85818e-11
2.19133e-11
2.53982e-11
2.71128e-11
2.8087e-11
2.91813e-11
3.0297e-11
3.13915e-11
3.24651e-11
3.35013e-11
3.44893e-11
3.54224e-11
3.62962e-11
3.70731e-11
3.77886e-11
3.84033e-11
3.8917e-11
3.93291e-11
3.96772e-11
3.99582e-11
4.01323e-11
4.02389e-11
4.02778e-11
4.02495e-11
4.012e-11
3.98939e-11
3.96082e-11
3.92657e-11
3.88678e-11
3.83875e-11
3.78598e-11
3.72869e-11
3.66436e-11
3.59605e-11
3.52399e-11
3.4483e-11
3.36709e-11
3.28289e-11
3.19398e-11
3.10079e-11
3.00375e-11
2.90328e-11
2.80127e-11
2.69655e-11
2.59075e-11
2.48416e-11
2.37595e-11
2.26748e-11
2.15902e-11
2.05081e-11
1.94241e-11
1.83479e-11
1.72826e-11
1.62259e-11
1.51858e-11
1.41609e-11
1.31542e-11
1.21685e-11
1.11719e-11
1.00269e-11
8.93446e-12
7.90094e-12
6.9317e-12
6.03201e-12
5.20443e-12
4.45027e-12
3.76974e-12
3.16142e-12
2.62377e-12
2.15357e-12
1.7473e-12
1.40033e-12
1.10782e-12
8.64386e-13
6.6458e-13
5.02957e-13
3.74218e-13
2.7334e-13
1.95666e-13
1.3698e-13
9.35451e-14
6.21218e-14
3.99594e-14
2.47729e-14
1.4707e-14
8.29047e-15
4.38722e-15
2.1453e-15
9.47571e-16
3.65381e-16
1.16501e-16
2.79924e-17
4.26705e-18
9.14905e-19
1.92777e-19
1.77398e-11
2.09658e-11
2.43888e-11
2.66042e-11
2.75087e-11
2.85399e-11
2.96299e-11
3.07299e-11
3.18117e-11
3.28316e-11
3.37794e-11
3.46779e-11
3.55197e-11
3.62659e-11
3.69472e-11
3.75593e-11
3.80984e-11
3.85643e-11
3.89557e-11
3.92731e-11
3.94822e-11
3.95861e-11
3.96229e-11
3.9593e-11
3.94975e-11
3.93376e-11
3.90839e-11
3.8742e-11
3.8317e-11
3.78135e-11
3.72648e-11
3.66727e-11
3.60118e-11
3.53119e-11
3.45746e-11
3.38014e-11
3.29942e-11
3.21344e-11
3.12456e-11
3.03298e-11
2.93891e-11
2.84262e-11
2.74437e-11
2.64304e-11
2.54032e-11
2.43533e-11
2.32956e-11
2.22331e-11
2.11686e-11
2.0105e-11
1.9045e-11
1.79916e-11
1.69475e-11
1.59156e-11
1.48986e-11
1.38947e-11
1.29111e-11
1.19499e-11
1.10007e-11
9.87781e-12
8.80696e-12
7.79424e-12
6.84465e-12
5.9609e-12
5.14703e-12
4.40382e-12
3.73249e-12
3.13227e-12
2.60097e-12
2.13592e-12
1.73358e-12
1.38985e-12
1.09987e-12
8.58445e-13
6.60212e-13
4.99798e-13
3.71972e-13
2.71764e-13
1.94579e-13
1.36242e-13
9.30545e-14
6.18025e-14
3.97569e-14
2.46484e-14
1.46331e-14
8.2486e-15
4.36475e-15
2.13405e-15
9.42428e-16
3.63297e-16
1.15787e-16
2.78023e-17
4.23359e-18
9.19534e-19
1.93435e-19
1.70077e-11
2.01215e-11
2.34714e-11
2.61397e-11
2.6992e-11
2.80113e-11
2.90799e-11
3.01667e-11
3.12163e-11
3.22364e-11
3.31864e-11
3.40883e-11
3.49353e-11
3.57219e-11
3.64116e-11
3.70378e-11
3.75631e-11
3.79874e-11
3.83453e-11
3.86354e-11
3.88557e-11
3.90071e-11
3.90547e-11
3.90373e-11
3.89545e-11
3.87749e-11
3.85362e-11
3.82083e-11
3.78276e-11
3.73665e-11
3.68301e-11
3.62505e-11
3.56286e-11
3.4967e-11
3.42676e-11
3.35096e-11
3.27189e-11
3.18971e-11
3.10467e-11
3.01699e-11
2.92528e-11
2.82996e-11
2.73291e-11
2.63302e-11
2.53197e-11
2.42883e-11
2.32509e-11
2.22103e-11
2.11599e-11
2.01037e-11
1.9053e-11
1.80037e-11
1.69655e-11
1.59354e-11
1.49168e-11
1.39129e-11
1.29265e-11
1.19605e-11
1.10204e-11
9.90449e-12
8.83247e-12
7.81685e-12
6.86449e-12
5.97921e-12
5.16374e-12
4.41888e-12
3.74586e-12
3.14394e-12
2.61095e-12
2.14454e-12
1.74108e-12
1.39627e-12
1.10519e-12
8.62786e-13
6.63648e-13
5.02463e-13
3.73995e-13
2.73271e-13
1.95673e-13
1.37016e-13
9.3586e-14
6.21565e-14
3.99843e-14
2.47887e-14
1.47157e-14
8.29449e-15
4.38857e-15
2.14538e-15
9.47241e-16
3.6505e-16
1.16298e-16
2.79074e-17
4.24506e-18
9.23742e-19
1.94033e-19
1.63808e-11
1.93844e-11
2.26594e-11
2.57036e-11
2.64973e-11
2.74796e-11
2.85426e-11
2.96284e-11
3.06808e-11
3.17067e-11
3.26661e-11
3.35802e-11
3.44435e-11
3.52189e-11
3.5904e-11
3.64966e-11
3.7029e-11
3.74988e-11
3.78675e-11
3.81356e-11
3.83402e-11
3.84787e-11
3.85503e-11
3.85567e-11
3.84989e-11
3.83441e-11
3.81311e-11
3.78299e-11
3.74458e-11
3.70141e-11
3.65366e-11
3.59874e-11
3.53978e-11
3.47439e-11
3.40536e-11
3.33292e-11
3.25507e-11
3.1743e-11
3.08887e-11
2.99918e-11
2.90735e-11
2.81359e-11
2.71663e-11
2.61827e-11
2.51745e-11
2.41576e-11
2.31346e-11
2.20979e-11
2.10516e-11
1.99994e-11
1.89449e-11
1.78986e-11
1.6863e-11
1.5835e-11
1.48229e-11
1.38292e-11
1.28522e-11
1.18983e-11
1.09665e-11
9.87761e-12
8.81072e-12
7.80111e-12
6.85379e-12
5.9727e-12
5.15963e-12
4.41732e-12
3.74622e-12
3.1457e-12
2.61369e-12
2.14764e-12
1.74412e-12
1.39912e-12
1.10777e-12
8.64977e-13
6.65459e-13
5.03918e-13
3.75132e-13
2.74134e-13
1.96311e-13
1.37473e-13
9.39041e-14
6.237e-14
4.01223e-14
2.4874e-14
1.47659e-14
8.32232e-15
4.40291e-15
2.15213e-15
9.50057e-16
3.66046e-16
1.16574e-16
2.79578e-17
4.24873e-18
9.27517e-19
1.94568e-19
1.58345e-11
1.87363e-11
2.19329e-11
2.52033e-11
2.60356e-11
2.69755e-11
2.80085e-11
2.90714e-11
3.01058e-11
3.10915e-11
3.20148e-11
3.28944e-11
3.37218e-11
3.44906e-11
3.51966e-11
3.58368e-11
3.64085e-11
3.69114e-11
3.73444e-11
3.76721e-11
3.79325e-11
3.80904e-11
3.81841e-11
3.81795e-11
3.81129e-11
3.79528e-11
3.77034e-11
3.74008e-11
3.70469e-11
3.66442e-11
3.61665e-11
3.56459e-11
3.50846e-11
3.44593e-11
3.37986e-11
3.30812e-11
3.23114e-11
3.14931e-11
3.063e-11
2.97438e-11
2.88193e-11
2.7876e-11
2.69159e-11
2.59413e-11
2.49418e-11
2.39327e-11
2.29062e-11
2.18756e-11
2.08438e-11
1.98134e-11
1.87796e-11
1.77528e-11
1.67297e-11
1.57192e-11
1.4719e-11
1.37323e-11
1.2766e-11
1.18189e-11
1.08937e-11
9.82798e-12
8.76958e-12
7.76736e-12
6.82644e-12
5.95081e-12
5.14329e-12
4.40487e-12
3.73635e-12
3.13785e-12
2.60775e-12
2.14314e-12
1.74089e-12
1.39684e-12
1.10617e-12
8.63918e-13
6.64776e-13
5.03489e-13
3.7487e-13
2.7398e-13
1.96222e-13
1.37423e-13
9.38763e-14
6.23545e-14
4.01134e-14
2.48687e-14
1.47625e-14
8.32008e-15
4.40143e-15
2.15119e-15
9.49506e-16
3.65757e-16
1.16445e-16
2.79134e-17
4.23866e-18
9.30845e-19
1.9504e-19
1.53687e-11
1.81692e-11
2.12952e-11
2.4527e-11
2.56265e-11
2.65077e-11
2.74947e-11
2.85185e-11
2.95404e-11
3.05382e-11
3.14976e-11
3.24099e-11
3.32698e-11
3.40428e-11
3.47585e-11
3.53811e-11
3.59431e-11
3.64421e-11
3.68423e-11
3.7178e-11
3.7415e-11
3.75547e-11
3.76334e-11
3.76497e-11
3.76055e-11
3.74698e-11
3.72474e-11
3.6943e-11
3.65614e-11
3.61348e-11
3.56373e-11
3.50998e-11
3.45234e-11
3.39094e-11
3.32594e-11
3.2553e-11
3.18152e-11
3.10279e-11
3.02136e-11
2.93748e-11
2.8497e-11
2.75841e-11
2.66402e-11
2.5669e-11
2.46739e-11
2.36703e-11
2.26603e-11
2.16461e-11
2.06307e-11
1.96085e-11
1.85835e-11
1.75658e-11
1.65576e-11
1.5556e-11
1.45642e-11
1.35896e-11
1.26346e-11
1.17014e-11
1.07923e-11
9.75416e-12
8.70867e-12
7.71811e-12
6.7861e-12
5.9171e-12
5.11536e-12
4.38188e-12
3.71815e-12
3.12368e-12
2.59655e-12
2.13438e-12
1.73409e-12
1.39158e-12
1.10222e-12
8.60996e-13
6.62681e-13
5.01996e-13
3.73813e-13
2.73237e-13
1.95709e-13
1.37075e-13
9.36433e-14
6.22022e-14
4.00162e-14
2.48085e-14
1.47266e-14
8.29953e-15
4.39031e-15
2.14557e-15
9.46906e-16
3.6469e-16
1.16075e-16
2.78131e-17
4.22066e-18
9.33717e-19
1.95446e-19
1.50272e-11
1.77565e-11
2.08281e-11
2.40161e-11
2.53384e-11
2.61846e-11
2.71473e-11
2.81531e-11
2.91399e-11
3.01077e-11
3.10405e-11
3.19278e-11
3.27338e-11
3.3484e-11
3.41738e-11
3.47675e-11
3.52971e-11
3.57266e-11
3.60898e-11
3.63849e-11
3.6611e-11
3.67674e-11
3.68531e-11
3.68373e-11
3.67532e-11
3.66027e-11
3.6389e-11
3.60856e-11
3.57263e-11
3.53134e-11
3.485e-11
3.43378e-11
3.37799e-11
3.31785e-11
3.25358e-11
3.18531e-11
3.1133e-11
3.03778e-11
2.95908e-11
2.87745e-11
2.7931e-11
2.70483e-11
2.6145e-11
2.52239e-11
2.42755e-11
2.33154e-11
2.23465e-11
2.13618e-11
2.03654e-11
1.93688e-11
1.83748e-11
1.73799e-11
1.63875e-11
1.54013e-11
1.44244e-11
1.34642e-11
1.25229e-11
1.15997e-11
1.06973e-11
9.6804e-12
8.64432e-12
7.66222e-12
6.73774e-12
5.87657e-12
5.08164e-12
4.35408e-12
3.69542e-12
3.10526e-12
2.58211e-12
2.12325e-12
1.7255e-12
1.38505e-12
1.09725e-12
8.57256e-13
6.59901e-13
4.99957e-13
3.7234e-13
2.72189e-13
1.94974e-13
1.36569e-13
9.33029e-14
6.19785e-14
3.98732e-14
2.47201e-14
1.46739e-14
8.26967e-15
4.37431e-15
2.13761e-15
9.43295e-16
3.63246e-16
1.1559e-16
2.76874e-17
4.19937e-18
9.36124e-19
1.95787e-19
1.47574e-11
1.74254e-11
2.04584e-11
2.36321e-11
2.51492e-11
2.59799e-11
2.69342e-11
2.79355e-11
2.89413e-11
2.99041e-11
3.08349e-11
3.16962e-11
3.25102e-11
3.32704e-11
3.39424e-11
3.45558e-11
3.50753e-11
3.55004e-11
3.58635e-11
3.61299e-11
3.6334e-11
3.64732e-11
3.6547e-11
3.65568e-11
3.65032e-11
3.63571e-11
3.61532e-11
3.58944e-11
3.55833e-11
3.51941e-11
3.47316e-11
3.42258e-11
3.36783e-11
3.30916e-11
3.24677e-11
3.17864e-11
3.10519e-11
3.02876e-11
2.94769e-11
2.86409e-11
2.77651e-11
2.68681e-11
2.59521e-11
2.50193e-11
2.4072e-11
2.31129e-11
2.21448e-11
2.11704e-11
2.01835e-11
1.91963e-11
1.82039e-11
1.72168e-11
1.62316e-11
1.52572e-11
1.42961e-11
1.33465e-11
1.24153e-11
1.15046e-11
1.06168e-11
9.62128e-12
8.59479e-12
7.61958e-12
6.70125e-12
5.84545e-12
5.05521e-12
4.33244e-12
3.67788e-12
3.09118e-12
2.57058e-12
2.11409e-12
1.71846e-12
1.37961e-12
1.09317e-12
8.54187e-13
6.57582e-13
4.98239e-13
3.71093e-13
2.71301e-13
1.94353e-13
1.36143e-13
9.30166e-14
6.17906e-14
3.97534e-14
2.46461e-14
1.463e-14
8.24477e-15
4.361e-15
2.13099e-15
9.40303e-16
3.62052e-16
1.1519e-16
2.7584e-17
4.18195e-18
9.38059e-19
1.9606e-19
1.45842e-11
1.72229e-11
2.0237e-11
2.33974e-11
2.50721e-11
2.59148e-11
2.68698e-11
2.78778e-11
2.88743e-11
2.98342e-11
3.07419e-11
3.15864e-11
3.23873e-11
3.31383e-11
3.38331e-11
3.44372e-11
3.49493e-11
3.54016e-11
3.57586e-11
3.60536e-11
3.62844e-11
3.64178e-11
3.64562e-11
3.64339e-11
3.63505e-11
3.62059e-11
3.60023e-11
3.5742e-11
3.54268e-11
3.50602e-11
3.46175e-11
3.41303e-11
3.36012e-11
3.30326e-11
3.24035e-11
3.17448e-11
3.10348e-11
3.02766e-11
2.94736e-11
2.86479e-11
2.77838e-11
2.69007e-11
2.59859e-11
2.50565e-11
2.41024e-11
2.31388e-11
2.2168e-11
2.11829e-11
2.01871e-11
1.91923e-11
1.82012e-11
1.72096e-11
1.6227e-11
1.52505e-11
1.42882e-11
1.33381e-11
1.24067e-11
1.14931e-11
1.06027e-11
9.61409e-12
8.58792e-12
7.61467e-12
6.69955e-12
5.84545e-12
5.05574e-12
4.33338e-12
3.67914e-12
3.09266e-12
2.57219e-12
2.11574e-12
1.7199e-12
1.38083e-12
1.09417e-12
8.5504e-13
6.58296e-13
4.98825e-13
3.71551e-13
2.71646e-13
1.94605e-13
1.36323e-13
9.31407e-14
6.18735e-14
3.98067e-14
2.46789e-14
1.46492e-14
8.25542e-15
4.36648e-15
2.13356e-15
9.41375e-16
3.6243e-16
1.15294e-16
2.76032e-17
4.18336e-18
9.39516e-19
1.96266e-19
1.44621e-11
1.7069e-11
2.00661e-11
2.32179e-11
2.49902e-11
2.58102e-11
2.67493e-11
2.77262e-11
2.87164e-11
2.96699e-11
3.0595e-11
3.14802e-11
3.229e-11
3.30492e-11
3.37527e-11
3.43658e-11
3.48873e-11
3.53497e-11
3.57497e-11
3.60533e-11
3.62946e-11
3.64397e-11
3.65233e-11
3.65459e-11
3.64764e-11
3.6351e-11
3.61397e-11
3.58469e-11
3.55062e-11
3.5119e-11
3.46597e-11
3.41581e-11
3.36167e-11
3.30126e-11
3.23724e-11
3.16984e-11
3.09715e-11
3.02148e-11
2.94119e-11
2.85666e-11
2.76987e-11
2.68106e-11
2.59043e-11
2.49819e-11
2.40456e-11
2.30868e-11
2.21196e-11
2.11371e-11
2.01431e-11
1.9149e-11
1.81578e-11
1.71717e-11
1.61936e-11
1.52261e-11
1.42669e-11
1.33194e-11
1.239e-11
1.14811e-11
1.0592e-11
9.60888e-12
8.58545e-12
7.61271e-12
6.69773e-12
5.84472e-12
5.05674e-12
4.33497e-12
3.6811e-12
3.09478e-12
2.57434e-12
2.11756e-12
1.72155e-12
1.38227e-12
1.09538e-12
8.56035e-13
6.59121e-13
4.99468e-13
3.72048e-13
2.72024e-13
1.94887e-13
1.36526e-13
9.32829e-14
6.19696e-14
3.98693e-14
2.47181e-14
1.46726e-14
8.26855e-15
4.37338e-15
2.13688e-15
9.42806e-16
3.62961e-16
1.15453e-16
2.76373e-17
4.18752e-18
9.40489e-19
1.96403e-19
1.4389e-11
1.69721e-11
1.9947e-11
2.30786e-11
2.48705e-11
2.56613e-11
2.6589e-11
2.75709e-11
2.85617e-11
2.95347e-11
3.0474e-11
3.13689e-11
3.21835e-11
3.2943e-11
3.3643e-11
3.42805e-11
3.48223e-11
3.5269e-11
3.56531e-11
3.59734e-11
3.6228e-11
3.64164e-11
3.65072e-11
3.65036e-11
3.64403e-11
3.62872e-11
3.60796e-11
3.58189e-11
3.54779e-11
3.50612e-11
3.46002e-11
3.40957e-11
3.35498e-11
3.29398e-11
3.22927e-11
3.16093e-11
3.08915e-11
3.01413e-11
2.93614e-11
2.85363e-11
2.76863e-11
2.68136e-11
2.59211e-11
2.4998e-11
2.40605e-11
2.31114e-11
2.21536e-11
2.11798e-11
2.02028e-11
1.92174e-11
1.82349e-11
1.72511e-11
1.62696e-11
1.52938e-11
1.43318e-11
1.33859e-11
1.24548e-11
1.15413e-11
1.06479e-11
9.66252e-12
8.63437e-12
7.65899e-12
6.74014e-12
5.88238e-12
5.08914e-12
4.3634e-12