/*--------------------------------*- C++ -*----------------------------------*\
  =========                 |
  \\      /  F ield         | OpenFOAM: The Open Source CFD Toolbox
   \\    /   O peration     | Website:  https://openfoam.org
    \\  /    A nd           | Version:  7
     \\/     M anipulation  |
\*---------------------------------------------------------------------------*/
FoamFile
{
    version     2.0;
    format      ascii;
    class       volScalarField;
    location    "44000";
    object      omega;
}
// * * * * * * * * * * * * * * * * * * * * * * * * * * * * * * * * * * * * * //

dimensions      [0 0 -1 0 0 0 0];

internalField   nonuniform List<scalar> 
4782
(
0.296451
0.303028
0.309831
0.316904
0.324293
0.33205
0.340238
0.348926
0.358193
0.368129
0.0435679
0.0469033
0.0505265
0.0544108
0.0585329
0.0628692
0.0674009
0.0721078
0.0769754
0.0819873
0.0871317
0.0923986
0.0977813
0.103274
0.108876
0.114586
0.120409
0.126347
0.13241
0.138604
0.144938
0.151412
0.158017
0.164711
0.171403
0.177989
0.184447
0.190787
0.197019
0.203153
0.2092
0.215171
0.221077
0.22693
0.232742
0.238526
0.244292
0.250055
0.25583
0.261633
0.26748
0.273391
0.279387
0.285492
0.291732
0.298136
0.304737
0.311574
0.318688
0.326129
0.333949
0.342211
0.350987
0.360355
0.370408
0.044861
0.0483059
0.0520262
0.0559968
0.0601947
0.0645974
0.0691867
0.0739449
0.0788547
0.0839029
0.0890781
0.0943711
0.0997761
0.105288
0.110906
0.116632
0.122469
0.128419
0.134493
0.140697
0.147037
0.153512
0.160113
0.166797
0.173471
0.180023
0.186445
0.192748
0.198943
0.205041
0.211055
0.216995
0.222871
0.228698
0.234486
0.240247
0.245995
0.251743
0.257506
0.263301
0.269146
0.275059
0.281063
0.28718
0.293438
0.299867
0.306501
0.313377
0.32054
0.328038
0.335928
0.344271
0.353141
0.362618
0.372796
0.0462395
0.0497916
0.0536078
0.0576638
0.061937
0.066407
0.0710552
0.0758649
0.0808201
0.0859083
0.0911199
0.0964469
0.101884
0.107426
0.113074
0.118829
0.124695
0.130681
0.136791
0.143034
0.149413
0.155925
0.162546
0.16922
0.175828
0.182304
0.188655
0.194893
0.201029
0.207075
0.213039
0.218935
0.224771
0.230561
0.236317
0.242051
0.247775
0.253503
0.259252
0.265037
0.270876
0.276789
0.282798
0.288926
0.295202
0.301657
0.308324
0.315243
0.322458
0.33002
0.337984
0.346414
0.355384
0.364977
0.375288
0.047709
0.0513683
0.0552804
0.0594209
0.0637681
0.0683025
0.0730076
0.0778673
0.0828664
0.0879952
0.0932442
0.0986064
0.104076
0.10965
0.115329
0.121119
0.127024
0.133048
0.1392
0.145489
0.151914
0.158467
0.165111
0.17175
0.178278
0.184676
0.190955
0.197125
0.2032
0.20919
0.215104
0.220953
0.226749
0.232503
0.238226
0.243933
0.249633
0.255344
0.26108
0.266856
0.272691
0.278606
0.284622
0.290766
0.297063
0.303545
0.310248
0.317213
0.324483
0.33211
0.340151
0.348672
0.357748
0.367463
0.377913
0.0477111
0.0513715
0.055284
0.0594252
0.063774
0.0683107
0.073017
0.0778779
0.0828789
0.0880086
0.0932576
0.0986208
0.104092
0.10967
0.115355
0.121149
0.127057
0.133088
0.139249
0.145547
0.151983
0.15854
0.165176
0.171804
0.17832
0.18471
0.190983
0.197148
0.203219
0.209203
0.215114
0.22096
0.226755
0.232508
0.238231
0.243937
0.249639
0.25535
0.261084
0.266861
0.272696
0.27861
0.284626
0.290769
0.297065
0.303548
0.310251
0.317216
0.324486
0.332113
0.340153
0.348674
0.35775
0.367464
0.377914
0.0462377
0.0497912
0.0536089
0.0576653
0.0619386
0.0664087
0.0710557
0.0758628
0.080817
0.0859053
0.0911176
0.0964442
0.10188
0.107424
0.113073
0.118831
0.1247
0.130688
0.136801
0.143046
0.149429
0.155946
0.162573
0.169241
0.175847
0.182321
0.18867
0.194907
0.201041
0.207084
0.213048
0.218944
0.224781
0.23057
0.236325
0.242058
0.247783
0.253513
0.259262
0.265047
0.270886
0.276799
0.282807
0.288935
0.295211
0.301666
0.308334
0.315253
0.322468
0.330029
0.337993
0.346423
0.355393
0.364987
0.375299
0.386438
0.398527
0.41171
0.426149
0.0448575
0.0483023
0.0520229
0.0559933
0.0601899
0.0645924
0.0691812
0.0739371
0.0788462
0.0838932
0.0890687
0.0943615
0.0997669
0.105281
0.110901
0.116628
0.122464
0.128415
0.13449
0.140693
0.147033
0.153509
0.16011
0.166791
0.173464
0.180019
0.186444
0.192749
0.198945
0.205046
0.211061
0.217002
0.22288
0.228707
0.234494
0.240255
0.246003
0.25175
0.257514
0.263308
0.269152
0.275065
0.281067
0.287183
0.29344
0.299868
0.306501
0.313379
0.320542
0.328041
0.335932
0.344276
0.353147
0.362626
0.372806
0.383794
0.395713
0.408701
0.422921
0.438556
0.0435624
0.0468984
0.0505228
0.0544083
0.0585304
0.0628669
0.0673972
0.0721028
0.0769687
0.0819795
0.0871239
0.0923921
0.0977755
0.103269
0.108869
0.114576
0.120394
0.126326
0.132382
0.138567
0.144891
0.151358
0.157959
0.164653
0.171355
0.177951
0.184416
0.19076
0.196995
0.203132
0.209181
0.215155
0.221064
0.226919
0.232733
0.238516
0.244284
0.250049
0.255825
0.26163
0.26748
0.273392
0.279391
0.285497
0.291737
0.298141
0.304744
0.311581
0.318697
0.326139
0.333961
0.342225
0.351003
0.360373
0.370429
0.381275
0.393032
0.405836
0.419848
0.435248
0.452249
0.471094
0.492067
0.5155
0.541779
0.571362
0.604787
0.642696
0.685855
0.735186
0.791808
0.857086
0.9327
1.02074
1.12383
1.2453
1.38943
1.56178
1.7697
2.02307
2.33539
2.7255
3.22032
3.8594
4.7026
5.84407
7.43839
9.75336
13.2847
19.03
29.2313
49.7406
99.5054
263.984
1219.11
0.0423536
0.0455778
0.049103
0.0529003
0.0569454
0.0612152
0.0656871
0.0703419
0.0751636
0.080137
0.085249
0.090488
0.0958448
0.101314
0.106894
0.112582
0.11838
0.124294
0.13033
0.136496
0.142799
0.149247
0.155834
0.162529
0.169261
0.175909
0.182425
0.188817
0.195096
0.201274
0.207362
0.213371
0.219312
0.225197
0.231037
0.236845
0.242633
0.248415
0.254205
0.260018
0.265872
0.271784
0.277777
0.283874
0.290099
0.296482
0.303055
0.309856
0.316926
0.324312
0.332069
0.340257
0.348945
0.358213
0.36815
0.378861
0.390464
0.403093
0.416906
0.432082
0.448829
0.467388
0.488039
0.511109
0.536979
0.566101
0.599007
0.636328
0.678823
0.727401
0.783165
0.847464
0.921956
1.0087
1.1103
1.23003
1.37211
1.54203
1.74707
1.99696
2.30503
2.68987
3.17809
3.80872
4.64089
5.76758
7.34151
9.62732
13.1149
18.7909
28.873
49.155
98.4133
261.478
1211.28
0.0412329
0.0443448
0.0477698
0.0514786
0.0554457
0.0596459
0.0640584
0.0686616
0.0734374
0.0783714
0.0834495
0.0886583
0.0939907
0.0994379
0.104996
0.110663
0.116441
0.122335
0.128348
0.13449
0.140768
0.147189
0.153749
0.160433
0.167178
0.173873
0.180444
0.186886
0.193215
0.199438
0.205569
0.211618
0.217596
0.223514
0.229383
0.235216
0.241026
0.246826
0.25263
0.258453
0.264313
0.270228
0.276218
0.282307
0.288519
0.294882
0.30143
0.308198
0.315228
0.322564
0.330261
0.338378
0.346983
0.356154
0.365981
0.376564
0.38802
0.400484
0.414109
0.429072
0.445578
0.463866
0.484211
0.506936
0.532418
0.561102
0.593513
0.630277
0.672139
0.719999
0.774947
0.838314
0.911737
0.997255
1.09742
1.21549
1.35562
1.52324
1.72553
1.9721
2.27611
2.65595
3.13787
3.76044
4.58209
5.6947
7.2492
9.50719
12.9531
18.5629
28.5314
48.596
97.3701
259.079
1203.77
0.0401944
0.0431924
0.0465161
0.0501359
0.0540231
0.0581539
0.0625041
0.0670543
0.0717839
0.0766762
0.0817163
0.0868933
0.0921969
0.0976193
0.103156
0.108801
0.114556
0.120424
0.126411
0.132521
0.138765
0.14515
0.151676
0.158332
0.165083
0.171831
0.178466
0.184971
0.191355
0.197628
0.203804
0.209894
0.215909
0.221861
0.227763
0.233624
0.239458
0.245278
0.251099
0.256935
0.262803
0.268722
0.274713
0.280797
0.286998
0.293346
0.299871
0.30661
0.313601
0.320892
0.328533
0.336584
0.345111
0.354192
0.363914
0.374378
0.385697
0.398005
0.411453
0.426216
0.442495
0.460527
0.480583
0.502981
0.528096
0.556365
0.588308
0.624541
0.665804
0.712984
0.767157
0.829638
0.902047
0.986396
1.08521
1.2017
1.33998
1.50541
1.70508
1.9485
2.24866
2.62374
3.09968
3.7146
4.52625
5.62547
7.1615
9.39306
12.7994
18.3462
28.2065
48.0642
96.3768
256.792
1196.59
0.0392399
0.0421227
0.0453448
0.0488739
0.0526816
0.056742
0.0610304
0.0655257
0.0702089
0.0750615
0.080069
0.0852164
0.090493
0.0958921
0.101407
0.107032
0.112769
0.11862
0.124591
0.130686
0.136914
0.143285
0.149801
0.156453
0.16321
0.169982
0.176654
0.183196
0.189616
0.195926
0.202136
0.208259
0.214306
0.220287
0.226215
0.2321
0.237956
0.243795
0.249631
0.25548
0.261357
0.267282
0.273273
0.279353
0.285546
0.291879
0.298383
0.305095
0.312051
0.319299
0.326889
0.334879
0.343334
0.352331
0.361957
0.372308
0.3835
0.395661
0.408942
0.423516
0.439582
0.457372
0.477155
0.499246
0.524013
0.55189
0.583391
0.619124
0.659819
0.706355
0.759795
0.821439
0.892887
0.97613
1.07366
1.18866
1.32518
1.48854
1.68574
1.92617
2.22269
2.59325
3.06353
3.6712
4.47339
5.55993
7.07846
9.28496
12.6537
18.1408
27.8985
47.5599
95.4341
254.618
1189.74
0.0383676
0.0411364
0.0442569
0.0476951
0.0514219
0.0554105
0.0596355
0.0640755
0.0687099
0.0735202
0.0784888
0.0836032
0.0888516
0.0942248
0.0997141
0.105316
0.111028
0.116852
0.122793
0.128856
0.13505
0.141381
0.147855
0.154468
0.161195
0.167982
0.174727
0.181342
0.187828
0.194197
0.200462
0.206633
0.212722
0.218741
0.224703
0.230619
0.236502
0.242363
0.248218
0.254083
0.259973
0.265905
0.271899
0.277977
0.284162
0.290484
0.29697
0.303657
0.310583
0.317792
0.325334
0.333267
0.341656
0.350575
0.360109
0.370355
0.381427
0.393451
0.406576
0.420973
0.436838
0.454401
0.473928
0.495729
0.52017
0.547678
0.578761
0.614023
0.654184
0.700113
0.752861
0.813716
0.884258
0.966457
1.06278
1.17637
1.31124
1.47264
1.6675
1.90511
2.19819
2.5645
3.02943
3.63026
4.42351
5.49808
7.00009
9.18293
12.5162
17.9469
27.6076
47.0834
94.5426
252.56
1183.23
0.0375757
0.0402312
0.0432517
0.046602
0.0502501
0.0541691
0.0583327
0.0627182
0.0673039
0.0720706
0.077002
0.0820838
0.087302
0.0926465
0.0981098
0.103689
0.109379
0.115183
0.121101
0.127139
0.133305
0.13961
0.146056
0.152646
0.159365
0.166167
0.172958
0.179626
0.186162
0.192577
0.198885
0.205097
0.211225
0.217279
0.223271
0.229214
0.235119
0.241001
0.246875
0.252753
0.258652
0.26459
0.270587
0.276664
0.282843
0.289153
0.295624
0.302289
0.309187
0.31636
0.323858
0.331739
0.340066
0.348912
0.358362
0.368512
0.379473
0.39137
0.404351
0.418583
0.434261
0.451612
0.470899
0.492429
0.516564
0.543726
0.574418
0.609237
0.648896
0.694255
0.746355
0.806467
0.876159
0.957376
1.05256
1.16482
1.29814
1.4577
1.65037
1.88533
2.17517
2.53748
2.99738
3.59178
4.37663
5.43995
6.92641
9.087
12.3869
17.7646
27.334
46.6348
93.7027
250.618
1177.08
0.0368616
0.0394053
0.0423263
0.045588
0.0491575
0.0530055
0.0571069
0.0614366
0.0659741
0.0706978
0.0755903
0.0806375
0.0858259
0.0911428
0.09658
0.102133
0.1078
0.113578
0.11947
0.12548
0.131615
0.137883
0.144292
0.150845
0.157536
0.164332
0.171156
0.177893
0.184493
0.190968
0.197331
0.203591
0.20976
0.215854
0.221882
0.227857
0.23379
0.239698
0.245591
0.251486
0.257399
0.263346
0.269348
0.275425
0.281601
0.287902
0.294357
0.301002
0.307873
0.315013
0.322472
0.330305
0.338575
0.347355
0.356728
0.366788
0.377645
0.389424
0.402269
0.416347
0.43185
0.449004
0.468068
0.489345
0.513194
0.540033
0.57036
0.604765
0.643956
0.688781
0.740274
0.799692
0.868587
0.948887
1.04301
1.15403
1.28589
1.44373
1.63434
1.86682
2.15364
2.5122
2.96739
3.55577
4.33275
5.38552
6.85743
8.99717
12.2658
17.5937
27.0775
46.2143
92.9149
248.794
1171.29
0.0362221
0.0386568
0.0414814
0.044657
0.0481498
0.05193
0.0559714
0.0602483
0.0647381
0.0694202
0.074276
0.0792908
0.0844504
0.0897431
0.09516
0.100695
0.106341
0.112101
0.117975
0.123967
0.130085
0.136337
0.142731
0.149272
0.155955
0.162751
0.169593
0.176366
0.183008
0.189521
0.195918
0.202212
0.208413
0.214536
0.22059
0.226589
0.232546
0.238472
0.244383
0.250292
0.256216
0.262171
0.268176
0.274254
0.280427
0.286721
0.293165
0.299792
0.30664
0.313751
0.321174
0.328963
0.337181
0.3459
0.355201
0.365179
0.37594
0.38761
0.40033
0.414266
0.429608
0.446579
0.465435
0.486478
0.51006
0.536599
0.566586
0.600607
0.63936
0.68369
0.734617
0.793388
0.861541
0.940986
1.03412
1.14398
1.27449
1.43072
1.61941
1.84958
2.13358
2.48865
2.93946
3.52222
4.29186
5.33481
6.79314
8.91344
12.153
17.4344
26.8384
45.822
92.1794
247.089
1165.86
0.0356525
0.0379813
0.0407121
0.043805
0.0472242
0.0509394
0.0549228
0.059148
0.063593
0.0682367
0.0730601
0.0780462
0.0831788
0.0884457
0.0938387
0.0993503
0.104976
0.110711
0.116559
0.122522
0.128607
0.134821
0.14117
0.147664
0.154303
0.161076
0.167938
0.174781
0.18149
0.188066
0.194517
0.20086
0.207106
0.213266
0.219354
0.225384
0.231367
0.237315
0.243245
0.24917
0.255107
0.261072
0.267083
0.273163
0.279335
0.285623
0.292057
0.29867
0.305498
0.312584
0.319974
0.327723
0.335893
0.344556
0.353791
0.363692
0.374365
0.385933
0.398538
0.412342
0.427534
0.444335
0.462998
0.483824
0.507161
0.533422
0.563094
0.596758
0.635107
0.678977
0.72938
0.787553
0.855018
0.93367
1.02588
1.13468
1.26393
1.41867
1.60559
1.83361
2.11499
2.46683
2.91356
3.49112
4.25397
5.28779
6.73355
8.83582
12.0483
17.2867
26.6165
45.4579
91.4964
245.504
1160.81
0.0351531
0.0373819
0.0400241
0.0430391
0.0463898
0.0500447
0.0539753
0.0581548
0.0625594
0.0671688
0.0719618
0.0769211
0.0820314
0.0872815
0.0926607
0.0981613
0.103778
0.109509
0.115354
0.121316
0.1274
0.133614
0.139967
0.146465
0.15311
0.15989
0.16676
0.173611
0.18033
0.186918
0.193385
0.199744
0.206007
0.212184
0.218288
0.224331
0.230327
0.236288
0.242229
0.248163
0.254105
0.260074
0.266088
0.272167
0.278334
0.284615
0.291037
0.297634
0.304442
0.311501
0.318861
0.326572
0.334698
0.343309
0.352484
0.362315
0.372908
0.384384
0.396883
0.410567
0.425623
0.442268
0.460755
0.481381
0.504493
0.530498
0.559881
0.593217
0.631194
0.674641
0.724561
0.782182
0.849015
0.926936
1.0183
1.12611
1.2542
1.40758
1.59285
1.8189
2.09787
2.44672
2.88971
3.46247
4.21905
5.24447
6.67863
8.76427
11.9518
17.1505
26.4119
45.122
90.866
244.04
1156.13
0.0347151
0.0368489
0.0394074
0.0423481
0.0456337
0.0492311
0.0531102
0.0572443
0.0616105
0.0661864
0.0709519
0.0758894
0.0809831
0.0862182
0.0915858
0.0970758
0.102683
0.108405
0.114243
0.1202
0.126278
0.132489
0.13884
0.14534
0.151992
0.158777
0.165647
0.172503
0.17924
0.185843
0.192327
0.198702
0.20498
0.211172
0.217292
0.223351
0.229359
0.235332
0.241281
0.247224
0.253174
0.259148
0.265165
0.271245
0.27741
0.283684
0.290098
0.296682
0.303473
0.310511
0.317843
0.325521
0.333608
0.342171
0.351291
0.361058
0.371577
0.382969
0.395371
0.408945
0.423876
0.440379
0.458706
0.47915
0.502055
0.527827
0.556946
0.589982
0.627619
0.670679
0.720158
0.777275
0.843527
0.920781
1.01137
1.11828
1.24531
1.39743
1.58121
1.80545
2.08221
2.42833
2.86789
3.43626
4.1871
5.20483
6.62837
8.6988
11.8635
17.0258
26.2246
44.8144
90.2882
242.697
1151.82
0.0343344
0.0363794
0.0388591
0.0417304
0.0449542
0.0484968
0.0523283
0.0564217
0.0607518
0.0652953
0.0700318
0.0749443
0.0800164
0.0852329
0.0905842
0.096061
0.101657
0.107367
0.113193
0.119136
0.1252
0.131393
0.137724
0.144201
0.150831
0.157607
0.164492
0.171384
0.178153
0.184786
0.191297
0.197698
0.203999
0.210213
0.216352
0.222429
0.228455
0.234444
0.240408
0.246361
0.25232
0.2583
0.264319
0.2704
0.276562
0.282833
0.28924
0.295812
0.302588
0.309606
0.316913
0.324562
0.332613
0.341135
0.350206
0.359916
0.37037
0.381685
0.394001
0.407476
0.422293
0.438668
0.456849
0.477128
0.499846
0.525407
0.554286
0.587051
0.624379
0.667088
0.716167
0.772825
0.838553
0.9152
1.00509
1.11118
1.23724
1.38823
1.57064
1.79324
2.068
2.41165
2.84809
3.41248
4.15811
5.16886
6.58275
8.63937
11.7833
16.9126
26.0545
44.5349
89.7632
241.475
1147.9
0.0340063
0.0359686
0.0383741
0.0411803
0.0443467
0.0478388
0.051625
0.0556786
0.0599731
0.0644868
0.0691971
0.0740868
0.0791391
0.0843398
0.0896754
0.0951385
0.100721
0.10642
0.112233
0.118165
0.124218
0.130401
0.13672
0.143186
0.149804
0.156567
0.163445
0.170347
0.177149
0.183813
0.190352
0.196778
0.203102
0.209339
0.215498
0.221592
0.227634
0.233635
0.23961
0.245572
0.251539
0.257526
0.26355
0.269632
0.275794
0.282061
0.28846
0.295023
0.301785
0.308786
0.316072
0.323694
0.331714
0.340198
0.349226
0.358886
0.36928
0.380529
0.392767
0.406153
0.42087
0.43713
0.455181
0.475312
0.497863
0.523234
0.551898
0.584419
0.621471
0.663865
0.712585
0.768832
0.834087
0.91019
0.99945
1.1048
1.23
1.37996
1.56116
1.78228
2.05524
2.39666
2.83031
3.39111
4.13206
5.13654
6.54177
8.58596
11.7113
16.8109
25.9015
44.2836
89.2908
240.375
1144.37
0.0337265
0.0356134
0.0379514
0.0406975
0.0438113
0.0472564
0.0510018
0.0550193
0.0592827
0.0637692
0.068456
0.0733248
0.0783593
0.0835431
0.088864
0.0943123
0.0998816
0.105569
0.11137
0.117286
0.123324
0.12949
0.13579
0.142236
0.148835
0.155583
0.162456
0.169379
0.176211
0.182907
0.189477
0.195929
0.20228
0.208538
0.214717
0.220829
0.226885
0.2329
0.238888
0.244862
0.250836
0.256828
0.262857
0.268941
0.275103
0.281367
0.28776
0.294315
0.301067
0.308054
0.315322
0.322923
0.330916
0.339368
0.348358
0.357972
0.368315
0.379503
0.391673
0.40498
0.419608
0.435766
0.453702
0.473702
0.496105
0.521308
0.549782
0.582086
0.618893
0.661007
0.709408
0.765291
0.830127
0.905747
0.994447
1.09914
1.22358
1.37263
1.55274
1.77256
2.04392
2.38336
2.81452
3.37215
4.10894
5.10786
6.50539
8.53856
11.6473
16.7205
25.7657
44.0605
88.8711
239.397
1141.22
0.0334912
0.0353111
0.0375882
0.0402808
0.0433473
0.046751
0.0504597
0.0544449
0.0586793
0.0631401
0.0678045
0.0726543
0.0776721
0.0828429
0.0881541
0.0935957
0.0991594
0.104842
0.110641
0.116557
0.122595
0.12876
0.135063
0.141511
0.148111
0.154861
0.161731
0.168645
0.175488
0.182197
0.188777
0.195242
0.201603
0.207872
0.214062
0.220183
0.226249
0.232273
0.238268
0.244248
0.250228
0.256225
0.262256
0.268341
0.274502
0.280763
0.287153
0.293701
0.300441
0.307415
0.314667
0.322248
0.330216
0.33864
0.347597
0.357173
0.367471
0.378607
0.390717
0.403957
0.418506
0.434576
0.452411
0.472297
0.49457
0.519627
0.547934
0.58005
0.616642
0.658513
0.706636
0.7622
0.82667
0.901868
0.990079
1.0942
1.21797
1.36623
1.54539
1.76407
2.03403
2.37175
2.80074
3.35559
4.08875
5.0828
6.47361
8.49714
11.5914
16.6416
25.647
43.8653
88.5041
238.541
1138.46
0.0332974
0.0350592
0.037284
0.0399305
0.0429559
0.0463228
0.0499991
0.0539556
0.058166
0.0626063
0.0672538
0.0720887
0.0770943
0.0822536
0.0875556
0.0929881
0.0985454
0.104223
0.110015
0.115926
0.121958
0.128115
0.13441
0.14085
0.147445
0.154193
0.161072
0.168008
0.174864
0.181583
0.188173
0.194647
0.201018
0.207298
0.213497
0.219627
0.225702
0.231734
0.237736
0.243722
0.249706
0.255706
0.261739
0.267826
0.273988
0.280248
0.286633
0.293175
0.299908
0.306871
0.314109
0.321673
0.329621
0.33802
0.346948
0.35649
0.36675
0.377841
0.3899
0.403081
0.417564
0.433558
0.451306
0.471095
0.493258
0.518189
0.546354
0.578309
0.614718
0.656379
0.704264
0.759556
0.823713
0.898549
0.986341
1.08998
1.21317
1.36075
1.5391
1.7568
2.02557
2.36181
2.78894
3.34141
4.07146
5.06134
6.4464
8.46168
11.5436
16.574
25.5454
43.6982
88.1896
237.807
1136.09
0.0331414
0.0348547
0.0370352
0.0396424
0.0426333
0.04597
0.0496192
0.0535516
0.0577398
0.0621607
0.0667919
0.0716134
0.0766058
0.0817554
0.0870488
0.0924738
0.0980244
0.103694
0.109481
0.115387
0.121416
0.127573
0.133866
0.140304
0.146894
0.153635
0.160509
0.167444
0.174309
0.18104
0.187643
0.19413
0.200512
0.206802
0.213012
0.219152
0.225235
0.231274
0.237282
0.243274
0.249263
0.255268
0.261304
0.267392
0.273553
0.279811
0.286192
0.292729
0.299455
0.306409
0.313635
0.321185
0.329117
0.337497
0.346402
0.355917
0.366145
0.3772
0.389217
0.40235
0.416778
0.43271
0.450388
0.470095
0.492166
0.516993
0.54504
0.576861
0.613117
0.654605
0.702291
0.757356
0.821253
0.895789
0.983232
1.08646
1.20918
1.35619
1.53387
1.75075
2.01853
2.35353
2.77912
3.32961
4.05707
5.04349
6.42375
8.43216
11.5037
16.5177
25.4608
43.559
87.9276
237.196
1134.12
0.0330193
0.0346929
0.0368373
0.0394124
0.0423751
0.0456869
0.0493139
0.0532272
0.0573996
0.0618054
0.0664237
0.0712325
0.0762154
0.0813556
0.086639
0.0920568
0.0975986
0.103259
0.109037
0.114931
0.120946
0.127087
0.133362
0.139779
0.146347
0.153064
0.159911
0.166837
0.173736
0.180502
0.187134
0.193647
0.200051
0.20636
0.212587
0.218741
0.224836
0.230885
0.236903
0.242901
0.248898
0.254908
0.260948
0.267039
0.273201
0.279459
0.28584
0.292374
0.299095
0.306043
0.313261
0.320801
0.32872
0.337084
0.345969
0.355463
0.365665
0.37669
0.388673
0.401767
0.416151
0.432032
0.449653
0.469296
0.491294
0.516038
0.54399
0.575704
0.611838
0.653187
0.700715
0.755599
0.819287
0.893583
0.980747
1.08365
1.20598
1.35255
1.52968
1.74592
2.0129
2.34692
2.77127
3.32018
4.04557
5.02921
6.40565
8.40856
11.4719
16.4727
25.3931
43.4477
87.7181
236.706
1132.53
0.0329301
0.0345743
0.0366916
0.0392427
0.0421849
0.045479
0.0490906
0.05299
0.0571495
0.0615445
0.0661522
0.0709522
0.0759266
0.0810605
0.0863393
0.0917513
0.0972882
0.102947
0.108721
0.114615
0.120629
0.126768
0.13304
0.139455
0.146019
0.152732
0.159578
0.166506
0.173404
0.180176
0.186815
0.193334
0.199745
0.206061
0.212291
0.218451
0.224552
0.230606
0.236628
0.24263
0.24863
0.254642
0.260684
0.266776
0.272939
0.279197
0.285576
0.292107
0.298826
0.305769
0.312981
0.320513
0.328422
0.336774
0.345646
0.355123
0.365305
0.376309
0.388267
0.401332
0.415683
0.431526
0.449104
0.468699
0.490641
0.515322
0.543204
0.574837
0.61088
0.652125
0.699535
0.754282
0.817815
0.891931
0.978886
1.08155
1.20359
1.34982
1.52655
1.74229
2.00868
2.34197
2.76539
3.31311
4.03696
5.01852
6.39208
8.39088
11.448
16.439
25.3424
43.3643
87.561
236.339
1131.35
0.0328714
0.0344955
0.0365945
0.0391294
0.0420575
0.0453389
0.0489394
0.0528287
0.05698
0.0613679
0.0659701
0.0707663
0.0757372
0.0808677
0.0861442
0.0915547
0.097091
0.10275
0.108526
0.11442
0.120436
0.126578
0.132854
0.139276
0.145848
0.152576
0.159442
0.16638
0.173272
0.180035
0.186667
0.19318
0.199587
0.205899
0.212127
0.218286
0.224385
0.230438
0.236459
0.242463
0.248462
0.254474
0.260516
0.266606
0.272768
0.279024
0.285401
0.291931
0.298646
0.305585
0.312792
0.320318
0.328221
0.336564
0.345426
0.354893
0.365063
0.376052
0.387993
0.401039
0.415368
0.431188
0.448737
0.4683
0.490205
0.514845
0.54268
0.574259
0.610241
0.651418
0.698748
0.753405
0.816834
0.89083
0.977646
1.08014
1.202
1.348
1.52446
1.73988
2.00587
2.33867
2.76147
3.3084
4.03122
5.01139
6.38304
8.3791
11.4321
16.4166
25.3086
43.3087
87.4564
236.095
1130.56
0.0328416
0.0344553
0.0365445
0.0390705
0.0419899
0.0452634
0.0488567
0.0527401
0.0568863
0.0612703
0.0658696
0.0706637
0.0756327
0.0807614
0.0860361
0.0914457
0.096981
0.102636
0.10841
0.114303
0.120317
0.126458
0.132733
0.13915
0.145719
0.152438
0.159292
0.16623
0.173135
0.179903
0.186542
0.193061
0.199473
0.205789
0.212022
0.218184
0.224287
0.230344
0.236366
0.242371
0.248372
0.254385
0.260427
0.266519
0.272681
0.278937
0.285313
0.29184
0.298553
0.30549
0.312695
0.320218
0.328117
0.336458
0.345315
0.354776
0.36494
0.375922
0.387855
0.400892
0.41521
0.431017
0.448552
0.468099
0.489986
0.514605
0.542417
0.57397
0.609922
0.651064
0.698355
0.752967
0.816344
0.890279
0.977027
1.07944
1.20121
1.34709
1.52342
1.73868
2.00447
2.33702
2.75951
3.30605
4.02835
5.00783
6.37852
8.37321
11.4242
16.4053
25.2917
43.2809
87.404
235.972
1130.16
0.0328408
0.0344539
0.0365423
0.0390677
0.0419868
0.04526
0.0488531
0.0527361
0.056882
0.061265
0.0658634
0.0706565
0.0756244
0.0807512
0.0860233
0.0914293
0.0969616
0.102615
0.108388
0.114278
0.120287
0.126422
0.132691
0.139102
0.145664
0.152375
0.159221
0.166152
0.173058
0.179839
0.186488
0.193016
0.199435
0.205757
0.211996
0.218162
0.224267
0.230326
0.236352
0.242358
0.248361
0.254376
0.260421
0.266515
0.272679
0.278936
0.285313
0.291843
0.298557
0.305494
0.312699
0.320223
0.328122
0.336462
0.345318
0.354778
0.364942
0.375924
0.387856
0.400893
0.415211
0.431018
0.448553
0.468099
0.489987
0.514606
0.542418
0.573971
0.609922
0.651064
0.698355
0.752967
0.816344
0.890279
0.977026
1.07944
1.2012
1.34709
1.52342
1.73868
2.00447
2.33702
2.75951
3.30605
4.02835
5.00783
6.37852
8.37321
11.4242
16.4053
25.2917
43.2809
87.404
235.972
1130.16
0.0328695
0.0344927
0.0365902
0.0391234
0.0420495
0.0453286
0.0489268
0.0528145
0.0569638
0.06135
0.0659498
0.0707426
0.07571
0.0808375
0.0861095
0.091517
0.0970512
0.102707
0.10848
0.114371
0.120383
0.12652
0.132792
0.139206
0.145771
0.152489
0.159342
0.166274
0.173179
0.179955
0.186597
0.193119
0.199534
0.205854
0.212088
0.218251
0.224356
0.230414
0.236439
0.242443
0.248445
0.254459
0.260504
0.266596
0.27276
0.279018
0.285396
0.291926
0.298642
0.305582
0.312789
0.320316
0.328219
0.336563
0.345425
0.354891
0.365062
0.376052
0.387993
0.401039
0.415368
0.431187
0.448737
0.468299
0.490205
0.514845
0.54268
0.57426
0.610242
0.651418
0.698748
0.753405
0.816834
0.89083
0.977646
1.08014
1.202
1.348
1.52446
1.73988
2.00587
2.33867
2.76147
3.3084
4.03122
5.01139
6.38304
8.3791
11.4321
16.4166
25.3086
43.3087
87.4564
236.095
1130.56
0.0329272
0.0345697
0.0366848
0.0392334
0.0421723
0.0454627
0.0490702
0.0529651
0.0571208
0.0615124
0.0661175
0.0709156
0.0758885
0.0810196
0.0862952
0.0917057
0.0972429
0.102899
0.108672
0.114562
0.120575
0.126713
0.132987
0.139408
0.14598
0.152707
0.159565
0.166497
0.173393
0.180161
0.186798
0.193316
0.199726
0.206039
0.21227
0.218429
0.224531
0.230585
0.236608
0.242612
0.248613
0.254627
0.260671
0.266763
0.272927
0.279185
0.285566
0.292098
0.298817
0.30576
0.312973
0.320505
0.328415
0.336768
0.34564
0.355118
0.365301
0.376305
0.388263
0.401329
0.41568
0.431524
0.449102
0.468696
0.490639
0.51532
0.543202
0.574836
0.610879
0.652125
0.699534
0.754282
0.817815
0.89193
0.978886
1.08155
1.20359
1.34982
1.52655
1.74229
2.00868
2.34197
2.76539
3.31311
4.03696
5.01852
6.39208
8.39088
11.448
16.439
25.3424
43.3643
87.5611
236.339
1131.35
0.0330157
0.0346874
0.0368292
0.0394014
0.0423612
0.0456695
0.049293
0.0532021
0.0573695
0.06177
0.0663824
0.0711863
0.0761636
0.0812968
0.0865726
0.0919807
0.0975127
0.103164
0.10893
0.114813
0.120814
0.12694
0.133197
0.139594
0.14614
0.15284
0.159683
0.166625
0.173548
0.180337
0.186991
0.193523
0.199943
0.206265
0.212502
0.218667
0.224771
0.230829
0.236855
0.24286
0.248862
0.254877
0.260921
0.267016
0.273182
0.279443
0.285827
0.292363
0.299086
0.306035
0.313254
0.320794
0.328714
0.337078
0.345964
0.355458
0.36566
0.376686
0.388669
0.401764
0.416148
0.43203
0.449651
0.469294
0.491292
0.516036
0.543989
0.575702
0.611837
0.653186
0.700715
0.755598
0.819287
0.893583
0.980747
1.08365
1.20598
1.35255
1.52968
1.74592
2.0129
2.34692
2.77127
3.32018
4.04558
5.02922
6.40565
8.40857
11.4719
16.4727
25.3931
43.4478
87.7182
236.706
1132.53
0.0331376
0.0348486
0.0370262
0.0396301
0.0426172
0.0459498
0.0495949
0.0535229
0.0577071
0.0621231
0.0667475
0.0715601
0.0765445
0.0816846
0.0869674
0.0923821
0.0979208
0.103576
0.109348
0.115235
0.12124
0.127371
0.133634
0.140038
0.146593
0.153296
0.160133
0.167056
0.173964
0.180745
0.187392
0.193916
0.20033
0.206647
0.212878
0.219036
0.225135
0.231188
0.237209
0.24321
0.249209
0.255222
0.261265
0.267358
0.273523
0.279785
0.286171
0.292711
0.299439
0.306395
0.313624
0.321176
0.32911
0.337491
0.346396
0.355912
0.366141
0.377197
0.389214
0.402348
0.416776
0.432708
0.450386
0.470094
0.492165
0.516992
0.545039
0.57686
0.613116
0.654604
0.702291
0.757356
0.821253
0.895789
0.983232
1.08646
1.20918
1.35619
1.53387
1.75075
2.01853
2.35353
2.77912
3.32961
4.05708
5.04349
6.42375
8.43216
11.5037
16.5177
25.4608
43.559
87.9277
237.196
1134.12
0.0332956
0.0350563
0.0372794
0.0399236
0.0429467
0.0463116
0.0499847
0.0539379
0.0581436
0.0625777
0.0672179
0.0720459
0.0770437
0.0821959
0.0874879
0.0929102
0.0984539
0.104116
0.109894
0.115787
0.121801
0.12794
0.134213
0.140629
0.147195
0.15391
0.160756
0.167679
0.174568
0.181329
0.187958
0.194466
0.200865
0.207167
0.213385
0.219533
0.225621
0.231664
0.237675
0.243669
0.24966
0.255666
0.261703
0.267792
0.273956
0.280219
0.286607
0.293151
0.299886
0.306851
0.314092
0.321658
0.329609
0.33801
0.346938
0.356482
0.366742
0.377834
0.389894
0.403075
0.417558
0.433553
0.451303
0.471092
0.493255
0.518187
0.546352
0.578308
0.614716
0.656378
0.704263
0.759555
0.823713
0.898549
0.986341
1.08998
1.21317
1.36075
1.5391
1.7568
2.02557
2.36181
2.78894
3.34141
4.07146
5.06135
6.4464
8.46168
11.5436
16.574
25.5454
43.6982
88.1896
237.807
1136.09
0.0334911
0.0353107
0.0375874
0.0402792
0.0433442
0.0467463
0.0504533
0.054436
0.0586677
0.0631252
0.0677873
0.0726345
0.0776478
0.082814
0.0881201
0.0935561
0.0991128
0.104787
0.110578
0.116486
0.122512
0.128666
0.134954
0.141384
0.147965
0.1547
0.161566
0.168492
0.175355
0.18208
0.188677
0.195154
0.201527
0.207807
0.214006
0.220136
0.226208
0.232237
0.238237
0.24422
0.250203
0.256202
0.262236
0.268322
0.274486
0.280749
0.287141
0.29369
0.300433
0.307407
0.31466
0.322242
0.330212
0.338636
0.347593
0.357169
0.367467
0.378604
0.390714
0.403953
0.418503
0.434574
0.452409
0.472295
0.494569
0.519625
0.547933
0.58005
0.616642
0.658512
0.706635
0.7622
0.82667
0.901868
0.990079
1.0942
1.21797
1.36623
1.54539
1.76407
2.03404
2.37175
2.80074
3.35559
4.08875
5.0828
6.47361
8.49714
11.5914
16.6416
25.6471
43.8654
88.5041
238.541
1138.46
0.0337279
0.035615
0.0379531
0.0406999
0.0438138
0.0472596
0.0510053
0.0550223
0.0592849
0.0637696
0.0684563
0.0733248
0.0783575
0.0835414
0.0888632
0.0943125
0.0998823
0.105568
0.111371
0.117289
0.123329
0.129495
0.135797
0.142244
0.148842
0.155586
0.162449
0.169362
0.176197
0.182895
0.189466
0.19592
0.202272
0.208531
0.214709
0.22082
0.226878
0.232893
0.23888
0.244852
0.250826
0.256818
0.262846
0.268931
0.275094
0.281359
0.287755
0.294311
0.301063
0.308051
0.315319
0.322921
0.330914
0.339366
0.348356
0.35797
0.368313
0.379501
0.39167
0.404978
0.419605
0.435764
0.4537
0.4737
0.496103
0.521307
0.549781
0.582086
0.618892
0.661007
0.709408
0.765291
0.830127
0.905747
0.994447
1.09914
1.22358
1.37263
1.55274
1.77256
2.04393
2.38337
2.81453
3.37215
4.10895
5.10786
6.5054
8.53856
11.6473
16.7206
25.7658
44.0605
88.8712
239.397
1141.22
0.0340087
0.0359718
0.0383781
0.0411853
0.0443528
0.0478455
0.0516324
0.0556868
0.0599822
0.0644969
0.0692098
0.0741014
0.0791545
0.0843565
0.0896937
0.0951579
0.100742
0.106441
0.112255
0.118188
0.124243
0.130427
0.136748
0.143214
0.14983
0.156592
0.163465
0.170365
0.177164
0.183826
0.190364
0.196788
0.20311
0.209344
0.215502
0.221595
0.227634
0.233633
0.239607
0.24557
0.251535
0.25752
0.263543
0.269625
0.275788
0.282055
0.288455
0.295019