/*--------------------------------*- C++ -*----------------------------------*\
  =========                 |
  \\      /  F ield         | OpenFOAM: The Open Source CFD Toolbox
   \\    /   O peration     | Website:  https://openfoam.org
    \\  /    A nd           | Version:  7
     \\/     M anipulation  |
\*---------------------------------------------------------------------------*/
FoamFile
{
    version     2.0;
    format      ascii;
    class       volScalarField;
    location    "196000";
    object      p;
}
// * * * * * * * * * * * * * * * * * * * * * * * * * * * * * * * * * * * * * //

dimensions      [0 2 -2 0 0 0 0];

internalField   nonuniform List<scalar> 
4783
(
-1.54923e-18
-1.55758e-18
-1.55968e-18
-1.58792e-18
-1.57252e-18
-1.58972e-18
-1.56344e-18
-1.54995e-18
-1.53629e-18
-1.58142e-18
-1.56532e-18
-1.55949e-18
-1.55673e-18
-1.54713e-18
-1.52833e-18
-1.53615e-18
-1.59193e-18
-1.59273e-18
-1.5727e-18
-1.59153e-18
-1.58811e-18
-1.54014e-18
-1.55477e-18
-1.57217e-18
-1.53749e-18
-1.55602e-18
-1.55843e-18
-1.58593e-18
-1.56609e-18
-1.56233e-18
-1.56224e-18
-1.56702e-18
-1.55769e-18
-1.56029e-18
-1.56455e-18
-1.55814e-18
-1.55255e-18
-1.55591e-18
-1.58349e-18
-1.53858e-18
-1.52388e-18
-1.53218e-18
-1.55659e-18
-1.55871e-18
-1.53073e-18
-1.52749e-18
-1.54492e-18
-1.54926e-18
-1.53505e-18
-1.55559e-18
-1.55639e-18
-1.57234e-18
-1.59133e-18
-1.58497e-18
-1.55651e-18
-1.55016e-18
-1.58323e-18
-1.56746e-18
-1.55738e-18
-1.53726e-18
-1.5595e-18
-1.5515e-18
-1.52994e-18
-1.55228e-18
-1.5589e-18
-1.5649e-18
-1.55501e-18
-1.54951e-18
-1.53356e-18
-1.53582e-18
-1.57145e-18
-1.54024e-18
-1.55444e-18
-1.56129e-18
-1.55697e-18
-1.53942e-18
-1.54079e-18
-1.58067e-18
-1.57482e-18
-1.58789e-18
-1.56836e-18
-1.55633e-18
-1.56554e-18
-1.56089e-18
-1.53601e-18
-1.56173e-18
-1.57046e-18
-1.56678e-18
-1.55242e-18
-1.54064e-18
-1.57571e-18
-1.56127e-18
-1.56606e-18
-1.56189e-18
-1.56096e-18
-1.55527e-18
-1.52633e-18
-1.54862e-18
-1.56176e-18
-1.57049e-18
-1.5624e-18
-1.54183e-18
-1.56307e-18
-1.54982e-18
-1.58307e-18
-1.57115e-18
-1.56308e-18
-1.56781e-18
-1.60529e-18
-1.58655e-18
-1.55362e-18
-1.55257e-18
-1.56383e-18
-1.56258e-18
-1.58245e-18
-1.5736e-18
-1.56102e-18
-1.56534e-18
-1.56204e-18
-1.54555e-18
-1.56513e-18
-1.56986e-18
-1.55583e-18
-1.51944e-18
-1.559e-18
-1.56511e-18
-1.56885e-18
-1.57185e-18
-1.58616e-18
-1.56662e-18
-1.5744e-18
-1.56715e-18
-1.54423e-18
-1.55411e-18
-1.55548e-18
-1.54249e-18
-1.5652e-18
-1.58013e-18
-1.54519e-18
-1.56245e-18
-1.58475e-18
-1.56649e-18
-1.56966e-18
-1.57056e-18
-1.5414e-18
-1.52266e-18
-1.56917e-18
-1.57915e-18
-1.56552e-18
-1.56369e-18
-1.56363e-18
-1.56492e-18
-1.58583e-18
-1.57982e-18
-1.56553e-18
-1.56585e-18
-1.56753e-18
-1.57647e-18
-1.55827e-18
-1.54984e-18
-1.55882e-18
-1.54541e-18
-1.5446e-18
-1.54885e-18
-1.57415e-18
-1.58637e-18
-1.55418e-18
-1.56367e-18
-1.59471e-18
-1.6052e-18
-1.55437e-18
-1.56141e-18
-1.54695e-18
-1.54159e-18
-1.5446e-18
-1.55415e-18
-1.58445e-18
-1.59625e-18
-1.58254e-18
-1.56428e-18
-1.54671e-18
-1.58294e-18
-1.5894e-18
-1.58368e-18
-1.57028e-18
-1.57781e-18
-1.56437e-18
-1.57021e-18
-1.58783e-18
-1.57261e-18
-1.556e-18
-1.5719e-18
-1.5642e-18
-1.56857e-18
-1.56731e-18
-1.55157e-18
-1.54784e-18
-1.56447e-18
-1.57191e-18
-1.60242e-18
-1.55194e-18
-1.55906e-18
-1.56305e-18
-1.57742e-18
-1.54908e-18
-1.56776e-18
-1.56961e-18
-1.54755e-18
-1.52701e-18
-1.54683e-18
-1.57382e-18
-1.57146e-18
-1.56307e-18
-1.57228e-18
-1.5759e-18
-1.56946e-18
-1.57664e-18
-1.5881e-18
-1.5712e-18
-1.57185e-18
-1.56511e-18
-1.56648e-18
-1.56118e-18
-1.5648e-18
-1.56562e-18
-1.55077e-18
-1.5286e-18
-1.56256e-18
-1.56668e-18
-1.56074e-18
-1.54532e-18
-1.56453e-18
-1.57298e-18
-1.57396e-18
-1.55417e-18
-1.58909e-18
-1.6121e-18
-1.57217e-18
-1.57087e-18
-1.5748e-18
-1.55881e-18
-1.58888e-18
-1.57808e-18
-1.5518e-18
-1.55876e-18
-1.56451e-18
-1.58713e-18
-1.59999e-18
-1.58216e-18
-1.56401e-18
-1.56803e-18
-1.57079e-18
-1.56669e-18
-1.5769e-18
-1.59369e-18
-1.59357e-18
-1.56653e-18
-1.56271e-18
-1.60566e-18
-1.55778e-18
-1.56138e-18
-1.57217e-18
-1.55528e-18
-1.5793e-18
-1.55299e-18
-1.57604e-18
-1.56783e-18
-1.53882e-18
-1.56878e-18
-1.57036e-18
-1.57068e-18
-1.54619e-18
-1.56262e-18
-1.56757e-18
-1.57095e-18
-1.58936e-18
-1.5983e-18
-1.57918e-18
-1.56884e-18
-1.56979e-18
-1.58124e-18
-1.55779e-18
-1.58947e-18
-1.57998e-18
-1.57148e-18
-1.57179e-18
-1.56592e-18
-1.57007e-18
-1.58539e-18
-1.58096e-18
-1.58201e-18
-1.55374e-18
-1.56245e-18
-1.54495e-18
-1.55021e-18
-1.55455e-18
-1.56408e-18
-1.57486e-18
-1.58992e-18
-1.56923e-18
-1.55657e-18
-1.57482e-18
-1.58975e-18
-1.57104e-18
-1.58353e-18
-1.58225e-18
-1.58139e-18
-1.59218e-18
-1.57988e-18
-1.56789e-18
-1.55781e-18
-1.57157e-18
-1.56718e-18
-1.55933e-18
-1.54802e-18
-1.56741e-18
-1.57723e-18
-1.56868e-18
-1.55848e-18
-1.5698e-18
-1.55358e-18
-1.55609e-18
-1.56921e-18
-1.57787e-18
-1.56911e-18
-1.56013e-18
-1.58182e-18
-1.5791e-18
-1.56705e-18
-1.56888e-18
-1.59022e-18
-1.57275e-18
-1.54696e-18
-1.53463e-18
-1.53522e-18
-1.56463e-18
-1.55638e-18
-1.57353e-18
-1.58282e-18
-1.56781e-18
-1.53899e-18
-1.55472e-18
-1.57788e-18
-1.59192e-18
-1.58964e-18
-1.56684e-18
-1.58997e-18
-1.56279e-18
-1.56588e-18
-1.56235e-18
-1.58043e-18
-1.55139e-18
-1.5604e-18
-1.56974e-18
-1.55099e-18
-1.55566e-18
-1.57155e-18
-1.56444e-18
-1.56092e-18
-1.55124e-18
-1.56941e-18
-1.59176e-18
-1.58068e-18
-1.58157e-18
-1.56824e-18
-1.56592e-18
-1.55796e-18
-1.57538e-18
-1.5674e-18
-1.57309e-18
-1.59694e-18
-1.54637e-18
-1.58098e-18
-1.57807e-18
-1.5897e-18
-1.58554e-18
-1.55803e-18
-1.5695e-18
-1.56923e-18
-1.56537e-18
-1.56161e-18
-1.55189e-18
-1.56524e-18
-1.56956e-18
-1.5796e-18
-1.56434e-18
-1.56226e-18
-1.58049e-18
-1.59262e-18
-1.58096e-18
-1.56312e-18
-1.55532e-18
-1.5677e-18
-1.56387e-18
-1.56645e-18
-1.5667e-18
-1.55962e-18
-1.56429e-18
-1.54381e-18
-1.58733e-18
-1.56535e-18
-1.55144e-18
-1.57314e-18
-1.5698e-18
-1.56974e-18
-1.57338e-18
-1.54825e-18
-1.55013e-18
-1.54544e-18
-1.57793e-18
-1.56601e-18
-1.56636e-18
-1.55931e-18
-1.5666e-18
-1.57845e-18
-1.57223e-18
-1.57172e-18
-1.5714e-18
-1.56602e-18
-1.56704e-18
-1.56974e-18
-1.56183e-18
-1.57585e-18
-1.58426e-18
-1.57373e-18
-1.56791e-18
-1.55557e-18
-1.57251e-18
-1.55857e-18
-1.57135e-18
-1.58377e-18
-1.57305e-18
-1.55956e-18
-1.5767e-18
-1.56962e-18
-1.55791e-18
-1.56614e-18
-1.56708e-18
-1.56865e-18
-1.56438e-18
-1.56851e-18
-1.55839e-18
-1.56788e-18
-1.57924e-18
-1.57132e-18
-1.56106e-18
-1.57396e-18
-1.57492e-18
-1.57898e-18
-1.56973e-18
-1.57468e-18
-1.57053e-18
-1.57182e-18
-1.57824e-18
-1.57419e-18
-1.57176e-18
-1.57803e-18
-1.57324e-18
-1.56411e-18
-1.5831e-18
-1.56502e-18
-1.55781e-18
-1.59438e-18
-1.57662e-18
-1.57e-18
-1.57566e-18
-1.57823e-18
-1.57634e-18
-1.57779e-18
-1.5786e-18
-1.57876e-18
-1.57765e-18
-1.57792e-18
-1.58677e-18
-1.57797e-18
-1.57023e-18
-1.59842e-18
-1.56856e-18
-1.57518e-18
-1.59627e-18
-1.57973e-18
-1.57504e-18
-1.58131e-18
-1.58364e-18
-1.57444e-18
-1.58167e-18
-1.58843e-18
-1.57749e-18
-1.58872e-18
-1.58128e-18
-1.56891e-18
-1.56352e-18
-1.55547e-18
-1.58034e-18
-1.56019e-18
-1.5612e-18
-1.56505e-18
-1.57697e-18
-1.55846e-18
-1.53975e-18
-1.555e-18
-1.56274e-18
-1.55091e-18
-1.57593e-18
-1.56239e-18
-1.54979e-18
-1.56258e-18
-1.56619e-18
-1.5594e-18
-1.55596e-18
-1.56547e-18
-1.56543e-18
-1.55442e-18
-1.56201e-18
-1.56089e-18
-1.5516e-18
-1.57603e-18
-1.5851e-18
-1.58449e-18
-1.57551e-18
-1.57396e-18
-1.57494e-18
-1.58379e-18
-1.59152e-18
-1.581e-18
-1.57937e-18
-1.57499e-18
-1.56759e-18
-1.55963e-18
-1.56065e-18
-1.57768e-18
-1.57772e-18
-1.57163e-18
-1.55315e-18
-1.53746e-18
-1.58116e-18
-1.56288e-18
-1.57285e-18
-1.5605e-18
-1.5698e-18
-1.56038e-18
-1.53101e-18
-1.52679e-18
-1.56092e-18
-1.57851e-18
-1.55333e-18
-1.56201e-18
-1.5645e-18
-1.56233e-18
-1.56475e-18
-1.56432e-18
-1.56482e-18
-1.576e-18
-1.58062e-18
-1.56789e-18
-1.56693e-18
-1.56743e-18
-1.56466e-18
-1.57023e-18
-1.57168e-18
-1.56793e-18
-1.56655e-18
-1.56487e-18
-1.56646e-18
-1.56269e-18
-1.55281e-18
-1.57259e-18
-1.57147e-18
-1.56091e-18
-1.56955e-18
-1.58658e-18
-1.57298e-18
-1.56893e-18
-1.56581e-18
-1.57418e-18
-1.55012e-18
-1.57133e-18
-1.56387e-18
-1.57728e-18
-1.53861e-18
-1.55184e-18
-1.56089e-18
-1.55501e-18
-1.54076e-18
-1.57095e-18
-1.56545e-18
-1.57046e-18
-1.56294e-18
-1.54696e-18
-1.57262e-18
-1.54116e-18
-1.56934e-18
-1.57361e-18
-1.57041e-18
-1.56589e-18
-1.56761e-18
-1.56841e-18
-1.56624e-18
-1.57905e-18
-1.57844e-18
-1.56819e-18
-1.55667e-18
-1.5629e-18
-1.5689e-18
-1.5686e-18
-1.57006e-18
-1.57832e-18
-1.57033e-18
-1.56899e-18
-1.56984e-18
-1.57204e-18
-1.57849e-18
-1.57553e-18
-1.57554e-18
-1.57683e-18
-1.57478e-18
-1.58405e-18
-1.52251e-18
-1.55516e-18
-1.563e-18
-1.57878e-18
-1.55445e-18
-1.55759e-18
-1.57618e-18
-1.54219e-18
-1.55606e-18
-1.56434e-18
-1.56145e-18
-1.56431e-18
-1.59311e-18
-1.5507e-18
-1.5598e-18
-1.55918e-18
-1.55311e-18
-1.55673e-18
-1.57974e-18
-1.56719e-18
-1.56367e-18
-1.57383e-18
-1.56517e-18
-1.56473e-18
-1.5655e-18
-1.57352e-18
-1.56476e-18
-1.55624e-18
-1.56897e-18
-1.56452e-18
-1.56733e-18
-1.56937e-18
-1.57218e-18
-1.55983e-18
-1.55793e-18
-1.5561e-18
-1.5539e-18
-1.54348e-18
-1.5592e-18
-1.5681e-18
-1.57207e-18
-1.56139e-18
-1.53878e-18
-1.55378e-18
-1.57964e-18
-1.54406e-18
-1.54877e-18
-1.5352e-18
-1.5551e-18
-1.56215e-18
-1.5747e-18
-1.56051e-18
-1.5611e-18
-1.54052e-18
-1.56207e-18
-1.54906e-18
-1.56358e-18
-1.58329e-18
-1.58153e-18
-1.56362e-18
-1.56639e-18
-1.56585e-18
-1.56355e-18
-1.56723e-18
-1.57301e-18
-1.57391e-18
-1.56254e-18
-1.56092e-18
-1.56985e-18
-1.57044e-18
-1.5644e-18
-1.56822e-18
-1.56956e-18
-1.57196e-18
-1.56595e-18
-1.55595e-18
-1.56191e-18
-1.56081e-18
-1.56506e-18
-1.57641e-18
-1.57313e-18
-1.57705e-18
-1.57455e-18
-1.56831e-18
-1.52092e-18
-1.52606e-18
-1.55774e-18
-1.57762e-18
-1.55509e-18
-1.54637e-18
-1.5434e-18
-1.57201e-18
-1.53888e-18
-1.54574e-18
-1.57343e-18
-1.524e-18
-1.55583e-18
-1.57668e-18
-1.57115e-18
-1.59629e-18
-1.57208e-18
-1.56032e-18
-1.5619e-18
-1.56574e-18
-1.56116e-18
-1.55505e-18
-1.559e-18
-1.5638e-18
-1.57374e-18
-1.57126e-18
-1.56742e-18
-1.56241e-18
-1.56092e-18
-1.55404e-18
-1.56622e-18
-1.56221e-18
-1.55141e-18
-1.55299e-18
-1.55647e-18
-1.56332e-18
-1.56227e-18
-1.553e-18
-1.55618e-18
-1.55984e-18
-1.56729e-18
-1.56136e-18
-1.54468e-18
-1.54518e-18
-1.55765e-18
-1.56329e-18
-1.55979e-18
-1.56166e-18
-1.57569e-18
-1.56295e-18
-1.5315e-18
-1.57448e-18
-1.59549e-18
-1.54241e-18
-1.5551e-18
-1.56573e-18
-1.58115e-18
-1.59384e-18
-1.5629e-18
-1.53579e-18
-1.55362e-18
-1.57808e-18
-1.59616e-18
-1.56625e-18
-1.55413e-18
-1.56772e-18
-1.55804e-18
-1.55201e-18
-1.55838e-18
-1.55502e-18
-1.5423e-18
-1.54602e-18
-1.56493e-18
-1.57318e-18
-1.55996e-18
-1.56885e-18
-1.56439e-18
-1.56547e-18
-1.56519e-18
-1.56827e-18
-1.57158e-18
-1.57044e-18
-1.56824e-18
-1.5751e-18
-1.56211e-18
-1.54872e-18
-1.54096e-18
-1.55588e-18
-1.56498e-18
-1.55347e-18
-1.55856e-18
-1.57758e-18
-1.53818e-18
-1.55871e-18
-1.56204e-18
-1.56065e-18
-1.57815e-18
-1.58316e-18
-1.5622e-18
-1.56366e-18
-1.58021e-18
-1.58418e-18
-1.56911e-18
-1.57259e-18
-1.58774e-18
-1.56619e-18
-1.55039e-18
-1.55809e-18
-1.55717e-18
-1.54665e-18
-1.55776e-18
-1.55904e-18
-1.55946e-18
-1.55168e-18
-1.5569e-18
-1.55876e-18
-1.55633e-18
-1.55132e-18
-1.55634e-18
-1.55973e-18
-1.56099e-18
-1.56184e-18
-1.56702e-18
-1.55622e-18
-1.55515e-18
-1.55586e-18
-1.57382e-18
-1.5477e-18
-1.51984e-18
-1.55972e-18
-1.59169e-18
-1.56019e-18
-1.53647e-18
-1.57666e-18
-1.55188e-18
-1.55507e-18
-1.55599e-18
-1.55723e-18
-1.56218e-18
-1.57412e-18
-1.54938e-18
-1.57158e-18
-1.5732e-18
-1.54799e-18
-1.56997e-18
-1.59009e-18
-1.58849e-18
-1.56844e-18
-1.56619e-18
-1.54747e-18
-1.53909e-18
-1.55591e-18
-1.55821e-18
-1.55126e-18
-1.55666e-18
-1.55731e-18
-1.55577e-18
-1.55146e-18
-1.55045e-18
-1.55526e-18
-1.55533e-18
-1.56621e-18
-1.56101e-18
-1.56036e-18
-1.56976e-18
-1.56202e-18
-1.56674e-18
-1.56232e-18
-1.52847e-18
-1.541e-18
-1.52589e-18
-1.5747e-18
-1.5695e-18
-1.57322e-18
-1.55462e-18
-1.57001e-18
-1.54271e-18
-1.5747e-18
-1.56034e-18
-1.55159e-18
-1.55773e-18
-1.57008e-18
-1.5563e-18
-1.55479e-18
-1.55691e-18
-1.5507e-18
-1.55385e-18
-1.5482e-18
-1.5566e-18
-1.5566e-18
-1.55687e-18
-1.55015e-18
-1.55905e-18
-1.55701e-18
-1.5589e-18
-1.5577e-18
-1.55914e-18
-1.5593e-18
-1.55556e-18
-1.55641e-18
-1.55754e-18
-1.55488e-18
-1.55508e-18
-1.55642e-18
-1.56343e-18
-1.57686e-18
-1.56995e-18
-1.5665e-18
-1.55709e-18
-1.54754e-18
-1.54175e-18
-1.55397e-18
-1.55484e-18
-1.57091e-18
-1.55356e-18
-1.55392e-18
-1.54984e-18
-1.54442e-18
-1.55429e-18
-1.59556e-18
-1.57743e-18
-1.55784e-18
-1.5531e-18
-1.55922e-18
-1.56764e-18
-1.54378e-18
-1.56361e-18
-1.53683e-18
-1.53535e-18
-1.54823e-18
-1.553e-18
-1.5495e-18
-1.5634e-18
-1.56439e-18
-1.57301e-18
-1.5506e-18
-1.54574e-18
-1.55203e-18
-1.55451e-18
-1.55291e-18
-1.54611e-18
-1.55774e-18
-1.55545e-18
-1.55537e-18
-1.55116e-18
-1.54446e-18
-1.55418e-18
-1.55879e-18
-1.55023e-18
-1.52668e-18
-1.52867e-18
-1.54453e-18
-1.54783e-18
-1.55252e-18
-1.56235e-18
-1.53242e-18
-1.54195e-18
-1.54624e-18
-1.54829e-18
-1.53075e-18
-1.54865e-18
-1.57385e-18
-1.55746e-18
-1.54632e-18
-1.53419e-18
-1.54874e-18
-1.55426e-18
-1.5557e-18
-1.56389e-18
-1.54174e-18
-1.54761e-18
-1.53913e-18
-1.55041e-18
-1.55444e-18
-1.55389e-18
-1.55427e-18
-1.55594e-18
-1.554e-18
-1.55222e-18
-1.54849e-18
-1.55331e-18
-1.55514e-18
-1.56031e-18
-1.55663e-18
-1.5555e-18
-1.56389e-18
-1.54865e-18
-1.54677e-18
-1.54616e-18
-1.54203e-18
-1.56278e-18
-1.57172e-18
-1.55963e-18
-1.56023e-18
-1.55372e-18
-1.54947e-18
-1.54325e-18
-1.52932e-18
-1.53654e-18
-1.54964e-18
-1.5581e-18
-1.57491e-18
-1.56332e-18
-1.53137e-18
-1.54605e-18
-1.54818e-18
-1.52918e-18
-1.52485e-18
-1.53351e-18
-1.57047e-18
-1.58609e-18
-1.5758e-18
-1.57188e-18
-1.56959e-18
-1.55196e-18
-1.55523e-18
-1.56307e-18
-1.55537e-18
-1.55252e-18
-1.55055e-18
-1.54183e-18
-1.55203e-18
-1.56204e-18
-1.55399e-18
-1.54201e-18
-1.54708e-18
-1.54413e-18
-1.54893e-18
-1.54986e-18
-1.54754e-18
-1.54177e-18
-1.54511e-18
-1.54547e-18
-1.54647e-18
-1.55116e-18
-1.5523e-18
-1.54233e-18
-1.5325e-18
-1.53437e-18
-1.55543e-18
-1.54727e-18
-1.53914e-18
-1.51987e-18
-1.56893e-18
-1.59239e-18
-1.59207e-18
-1.55295e-18
-1.54797e-18
-1.54726e-18
-1.54537e-18
-1.53067e-18
-1.5438e-18
-1.55354e-18
-1.56703e-18
-1.56976e-18
-1.55753e-18
-1.56247e-18
-1.54935e-18
-1.52504e-18
-1.53893e-18
-1.53262e-18
-1.55029e-18
-1.55962e-18
-1.54702e-18
-1.54531e-18
-1.53772e-18
-1.55862e-18
-1.54832e-18
-1.54732e-18
-1.55563e-18
-1.56296e-18
-1.56366e-18
-1.55412e-18
-1.5499e-18
-1.54629e-18
-1.54553e-18
-1.54655e-18
-1.54306e-18
-1.53858e-18
-1.53656e-18
-1.54232e-18
-1.54885e-18
-1.55503e-18
-1.57738e-18
-1.55236e-18
-1.54801e-18
-1.53828e-18
-1.548e-18
-1.5495e-18
-1.54434e-18
-1.5246e-18
-1.56076e-18
-1.55138e-18
-1.56389e-18
-1.55394e-18
-1.55244e-18
-1.56481e-18
-1.55133e-18
-1.54403e-18
-1.53018e-18
-1.52963e-18
-1.53391e-18
-1.54351e-18
-1.54645e-18
-1.54672e-18
-1.54762e-18
-1.53787e-18
-1.53973e-18
-1.54562e-18
-1.55056e-18
-1.55304e-18
-1.55526e-18
-1.53869e-18
-1.54179e-18
-1.53045e-18
-1.5287e-18
-1.54319e-18
-1.54766e-18
-1.54932e-18
-1.55041e-18
-1.56103e-18
-1.54906e-18
-1.54471e-18
-1.55218e-18
-1.55311e-18
-1.54743e-18
-1.54861e-18
-1.53919e-18
-1.56802e-18
-1.54819e-18
-1.56668e-18
-1.54688e-18
-1.55681e-18
-1.54402e-18
-1.53229e-18
-1.50848e-18
-1.54096e-18
-1.54269e-18
-1.52933e-18
-1.55636e-18
-1.55048e-18
-1.54649e-18
-1.5441e-18
-1.53028e-18
-1.54133e-18
-1.54596e-18
-1.54711e-18
-1.54829e-18
-1.55078e-18
-1.55931e-18
-1.55941e-18
-1.54662e-18
-1.53982e-18
-1.54707e-18
-1.54923e-18
-1.54916e-18
-1.54978e-18
-1.55065e-18
-1.5544e-18
-1.56666e-18
-1.54203e-18
-1.54011e-18
-1.52948e-18
-1.53802e-18
-1.54385e-18
-1.53902e-18
-1.53764e-18
-1.53676e-18
-1.52475e-18
-1.54169e-18
-1.52986e-18
-1.53343e-18
-1.53967e-18
-1.51243e-18
-1.51981e-18
-1.54364e-18
-1.53616e-18
-1.52415e-18
-1.54086e-18
-1.54463e-18
-1.55701e-18
-1.54711e-18
-1.53781e-18
-1.50402e-18
-1.51109e-18
-1.53785e-18
-1.53151e-18
-1.55491e-18
-1.53358e-18
-1.54444e-18
-1.5605e-18
-1.55243e-18
-1.56045e-18
-1.55039e-18
-1.54582e-18
-1.53645e-18
-1.5357e-18
-1.54946e-18
-1.54415e-18
-1.54464e-18
-1.54302e-18
-1.54233e-18
-1.53676e-18
-1.52591e-18
-1.54157e-18
-1.54302e-18
-1.54147e-18
-1.54185e-18
-1.54257e-18
-1.53948e-18
-1.54396e-18
-1.55674e-18
-1.54064e-18
-1.53569e-18
-1.53297e-18
-1.5204e-18
-1.53199e-18
-1.54593e-18
-1.54172e-18
-1.50787e-18
-1.56319e-18
-1.55143e-18
-1.54373e-18
-1.53419e-18
-1.53508e-18
-1.54448e-18
-1.54874e-18
-1.5444e-18
-1.54324e-18
-1.54378e-18
-1.56099e-18
-1.56038e-18
-1.54878e-18
-1.56401e-18
-1.5585e-18
-1.54751e-18
-1.54132e-18
-1.53042e-18
-1.54088e-18
-1.54569e-18
-1.55558e-18
-1.5597e-18
-1.56418e-18
-1.55446e-18
-1.56739e-18
-1.56136e-18
-1.54693e-18
-1.54262e-18
-1.54614e-18
-1.5522e-18
-1.556e-18
-1.54437e-18
-1.5335e-18
-1.52123e-18
-1.53732e-18
-1.55273e-18
-1.54364e-18
-1.55047e-18
-1.53705e-18
-1.53128e-18
-1.52907e-18
-1.52309e-18
-1.52825e-18
-1.53226e-18
-1.52792e-18
-1.52612e-18
-1.52523e-18
-1.5761e-18
-1.57214e-18
-1.56771e-18
-1.54012e-18
-1.51827e-18
-1.54172e-18
-1.56066e-18
-1.54454e-18
-1.53712e-18
-1.54527e-18
-1.5572e-18
-1.53161e-18
-1.53811e-18
-1.54031e-18
-1.52959e-18
-1.53534e-18
-1.52539e-18
-1.52272e-18
-1.52483e-18
-1.52614e-18
-1.52886e-18
-1.5386e-18
-1.54081e-18
-1.54098e-18
-1.54108e-18
-1.53876e-18
-1.53673e-18
-1.53537e-18
-1.54135e-18
-1.56033e-18
-1.56274e-18
-1.55903e-18
-1.53644e-18
-1.52365e-18
-1.54809e-18
-1.55624e-18
-1.54143e-18
-1.54613e-18
-1.53326e-18
-1.51825e-18
-1.53433e-18
-1.54953e-18
-1.53627e-18
-1.53391e-18
-1.53156e-18
-1.52985e-18
-1.50644e-18
-1.56588e-18
-1.549e-18
-1.54287e-18
-1.5322e-18
-1.53532e-18
-1.54153e-18
-1.56703e-18
-1.56144e-18
-1.52612e-18
-1.54152e-18
-1.54604e-18
-1.53952e-18
-1.54138e-18
-1.54648e-18
-1.55705e-18
-1.54575e-18
-1.5443e-18
-1.55757e-18
-1.54894e-18
-1.55267e-18
-1.53401e-18
-1.53894e-18
-1.54399e-18
-1.551e-18
-1.5244e-18
-1.53643e-18
-1.54802e-18
-1.52376e-18
-1.531e-18
-1.53642e-18
-1.51577e-18
-1.52521e-18
-1.53191e-18
-1.53035e-18
-1.52956e-18
-1.52558e-18
-1.51276e-18
-1.52385e-18
-1.52782e-18
-1.5259e-18
-1.52527e-18
-1.52219e-18
-1.51135e-18
-1.51576e-18
-1.50793e-18
-1.51774e-18
-1.51035e-18
-1.54199e-18
-1.5414e-18
-1.5313e-18
-1.49636e-18
-1.52789e-18
-1.5183e-18
-1.56269e-18
-1.56386e-18
-1.54237e-18
-1.55794e-18
-1.56341e-18
-1.54922e-18
-1.54013e-18
-1.54214e-18
-1.5453e-18
-1.53749e-18
-1.53041e-18
-1.55178e-18
-1.54407e-18
-1.54161e-18
-1.53568e-18
-1.53887e-18
-1.54177e-18
-1.51814e-18
-1.511e-18
-1.53277e-18
-1.55161e-18
-1.53657e-18
-1.52947e-18
-1.5256e-18
-1.51872e-18
-1.53095e-18
-1.53986e-18
-1.53389e-18
-1.53178e-18
-1.53382e-18
-1.54481e-18
-1.53254e-18
-1.52831e-18
-1.5245e-18
-1.51775e-18
-1.54014e-18
-1.53349e-18
-1.52702e-18
-1.52655e-18
-1.53287e-18
-1.55948e-18
-1.53958e-18
-1.53473e-18
-1.53326e-18
-1.5111e-18
-1.53454e-18
-1.52068e-18
-1.55591e-18
-1.54882e-18
-1.53962e-18
-1.52326e-18
-1.53938e-18
-1.55194e-18
-1.5292e-18
-1.54305e-18
-1.55449e-18
-1.5284e-18
-1.53373e-18
-1.53089e-18
-1.54404e-18
-1.55939e-18
-1.51352e-18
-1.51766e-18
-1.55664e-18
-1.56422e-18
-1.55731e-18
-1.53993e-18
-1.53922e-18
-1.54321e-18
-1.51554e-18
-1.52741e-18
-1.54013e-18
-1.52539e-18
-1.50914e-18
-1.51611e-18
-1.50928e-18
-1.51692e-18
-1.5275e-18
-1.53946e-18
-1.52679e-18
-1.5272e-18
-1.54094e-18
-1.54591e-18
-1.53608e-18
-1.50571e-18
-1.50106e-18
-1.51607e-18
-1.52234e-18
-1.54312e-18
-1.52671e-18
-1.51677e-18
-1.52932e-18
-1.53305e-18
-1.5624e-18
-1.55986e-18
-1.54235e-18
-1.55866e-18
-1.55866e-18
-1.53282e-18
-1.51976e-18
-1.52193e-18
-1.53224e-18
-1.53989e-18
-1.53864e-18
-1.51504e-18
-1.53676e-18
-1.54486e-18
-1.55607e-18
-1.54342e-18
-1.53519e-18
-1.5378e-18
-1.559e-18
-1.54659e-18
-1.55022e-18
-1.53574e-18
-1.53323e-18
-1.52886e-18
-1.51381e-18
-1.52362e-18
-1.52712e-18
-1.52942e-18
-1.53262e-18
-1.51449e-18
-1.52682e-18
-1.51337e-18
-1.5328e-18
-1.52564e-18
-1.52046e-18
-1.51951e-18
-1.51995e-18
-1.5203e-18
-1.52048e-18
-1.51904e-18
-1.51922e-18
-1.51949e-18
-1.51864e-18
-1.53888e-18
-1.50953e-18
-1.54946e-18
-1.51321e-18
-1.51439e-18
-1.56515e-18
-1.56111e-18
-1.51854e-18
-1.53798e-18
-1.5406e-18
-1.52033e-18
-1.53353e-18
-1.53563e-18
-1.52412e-18
-1.54426e-18
-1.55625e-18
-1.54373e-18
-1.55086e-18
-1.53414e-18
-1.53423e-18
-1.51614e-18
-1.52638e-18
-1.52438e-18
-1.55854e-18
-1.54356e-18
-1.53725e-18
-1.53519e-18
-1.53477e-18
-1.5332e-18
-1.53457e-18
-1.54838e-18
-1.54756e-18
-1.52843e-18
-1.52273e-18
-1.52473e-18
-1.53937e-18
-1.53288e-18
-1.51116e-18
-1.51601e-18
-1.51913e-18
-1.5198e-18
-1.5185e-18
-1.51502e-18
-1.51799e-18
-1.51702e-18
-1.51576e-18
-1.5128e-18
-1.51582e-18
-1.51725e-18
-1.57004e-18
-1.53452e-18
-1.53942e-18
-1.53578e-18
-1.53468e-18
-1.55806e-18
-1.53978e-18
-1.517e-18
-1.5352e-18
-1.5496e-18
-1.52249e-18
-1.54161e-18
-1.55589e-18
-1.54572e-18
-1.56945e-18
-1.56347e-18
-1.54237e-18
-1.53039e-18
-1.53946e-18
-1.53818e-18
-1.53143e-18
-1.51093e-18
-1.5287e-18
-1.53807e-18
-1.53499e-18
-1.53263e-18
-1.52872e-18
-1.51644e-18
-1.52525e-18
-1.52695e-18
-1.53177e-18
-1.54621e-18
-1.51827e-18
-1.53076e-18
-1.52416e-18
-1.51923e-18
-1.51908e-18
-1.51762e-18
-1.51732e-18
-1.51737e-18
-1.51661e-18
-1.5157e-18
-1.51431e-18
-1.50976e-18
-1.49726e-18
-1.50763e-18
-1.51138e-18
-1.50693e-18
-1.49684e-18
-1.57169e-18
-1.54912e-18
-1.53483e-18
-1.56089e-18
-1.54113e-18
-1.54065e-18
-1.53877e-18
-1.55275e-18
-1.53633e-18
-1.52158e-18
-1.53626e-18
-1.55589e-18
-1.5423e-18
-1.53478e-18
-1.53133e-18
-1.5516e-18
-1.54027e-18
-1.54251e-18
-1.55006e-18
-1.5185e-18
-1.52527e-18
-1.51043e-18
-1.53605e-18
-1.55566e-18
-1.54615e-18
-1.55626e-18
-1.5534e-18
-1.53854e-18
-1.54582e-18
-1.5318e-18
-1.52424e-18
-1.52698e-18
-1.53304e-18
-1.52213e-18
-1.51502e-18
-1.50252e-18
-1.51324e-18
-1.51651e-18
-1.51621e-18
-1.52134e-18
-1.53266e-18
-1.51677e-18
-1.50153e-18
-1.51179e-18
-1.51525e-18
-1.51869e-18
-1.52627e-18
-1.51322e-18
-1.51251e-18
-1.51537e-18
-1.54652e-18
-1.57149e-18
-1.513e-18
-1.55879e-18
-1.54734e-18
-1.55491e-18
-1.53902e-18
-1.54047e-18
-1.53596e-18
-1.53264e-18
-1.53673e-18
-1.53509e-18
-1.51994e-18
-1.51756e-18
-1.52816e-18
-1.51852e-18
-1.51178e-18
-1.5348e-18
-1.54274e-18
-1.53656e-18
-1.53642e-18
-1.53851e-18
-1.55938e-18
-1.55576e-18
-1.53734e-18
-1.53327e-18
-1.52835e-18
-1.52424e-18
-1.52787e-18
-1.53567e-18
-1.52363e-18
-1.51912e-18
-1.51948e-18
-1.52376e-18
-1.53705e-18
-1.53703e-18
-1.52016e-18
-1.50504e-18
-1.51211e-18
-1.51533e-18
-1.51696e-18
-1.51466e-18
-1.50978e-18
-1.51201e-18
-1.51252e-18
-1.51069e-18
-1.50852e-18
-1.50364e-18
-1.48941e-18
-1.49037e-18
-1.53307e-18
-1.51472e-18
-1.50339e-18
-1.54233e-18
-1.55847e-18
-1.53786e-18
-1.5394e-18
-1.53988e-18
-1.54058e-18
-1.53479e-18
-1.53093e-18
-1.51968e-18
-1.52819e-18
-1.51597e-18
-1.52182e-18
-1.53624e-18
-1.54793e-18
-1.54067e-18
-1.5316e-18
-1.52195e-18
-1.52265e-18
-1.51511e-18
-1.5501e-18
-1.53772e-18
-1.52632e-18
-1.51338e-18
-1.5247e-18
-1.52906e-18
-1.54306e-18
-1.54745e-18
-1.5431e-18
-1.54337e-18
-1.54288e-18
-1.5353e-18
-1.5112e-18
-1.51516e-18
-1.51787e-18
-1.51611e-18
-1.51646e-18
-1.52032e-18
-1.53067e-18
-1.51434e-18
-1.49799e-18
-1.50713e-18
-1.51036e-18
-1.50588e-18
-1.49654e-18
-1.50365e-18
-1.50799e-18
-1.50733e-18
-1.54011e-18
-1.52856e-18
-1.52303e-18
-1.53644e-18
-1.53946e-18
-1.51813e-18
-1.55251e-18
-1.54476e-18
-1.55224e-18
-1.5338e-18
-1.51542e-18
-1.53165e-18
-1.53244e-18
-1.52231e-18
-1.54632e-18
-1.53439e-18
-1.52231e-18
-1.54137e-18
-1.51276e-18
-1.51976e-18
-1.51178e-18
-1.55422e-18
-1.55248e-18
-1.5172e-18
-1.52171e-18
-1.52404e-18
-1.52238e-18
-1.52022e-18
-1.52094e-18
-1.5189e-18
-1.51515e-18
-1.51603e-18
-1.51671e-18
-1.5179e-18
-1.51114e-18
-1.5005e-18
-1.51176e-18
-1.51363e-18
-1.51353e-18
-1.5131e-18
-1.50852e-18
-1.49773e-18
-1.50779e-18
-1.51262e-18
-1.51703e-18
-1.52703e-18
-1.51538e-18
-1.5094e-18
-1.51221e-18
-1.51835e-18
-1.56129e-18
-1.53832e-18
-1.5117e-18
-1.52773e-18
-1.53981e-18
-1.53351e-18
-1.53972e-18
-1.53341e-18
-1.51567e-18
-1.52769e-18
-1.52146e-18
-1.55192e-18
-1.53794e-18
-1.51707e-18
-1.51768e-18
-1.52436e-18
-1.50968e-18
-1.54132e-18
-1.52962e-18
-1.51677e-18
-1.52484e-18
-1.53302e-18
-1.52877e-18
-1.52513e-18
-1.52462e-18
-1.52557e-18
-1.52159e-18
-1.5246e-18
-1.53478e-18
-1.52353e-18
-1.51985e-18
-1.51711e-18
-1.51658e-18
-1.51402e-18
-1.50375e-18
-1.51427e-18
-1.53084e-18
-1.52384e-18
-1.52973e-18
-1.51741e-18
-1.51611e-18
-1.52324e-18
-1.50138e-18
-1.50062e-18
-1.49252e-18
-1.50196e-18
-1.50081e-18
-1.49067e-18
-1.50278e-18
-1.50969e-18
-1.51525e-18
-1.52704e-18
-1.5251e-18
-1.51789e-18
-1.56118e-18
-1.54176e-18
-1.53668e-18
-1.52663e-18
-1.50059e-18
-1.53377e-18
-1.53211e-18
-1.53928e-18
-1.55457e-18
-1.53487e-18
-1.53159e-18
-1.53962e-18
-1.54517e-18
-1.53775e-18
-1.53232e-18
-1.52763e-18
-1.51653e-18
-1.52447e-18
-1.52556e-18
-1.52458e-18
-1.52237e-18
-1.52128e-18
-1.51913e-18
-1.52585e-18
-1.53524e-18
-1.52179e-18
-1.5212e-18
-1.53565e-18
-1.52625e-18
-1.52268e-18
-1.53259e-18
-1.52167e-18
-1.51686e-18
-1.51671e-18
-1.5162e-18
-1.51434e-18
-1.51501e-18
-1.51592e-18
-1.51446e-18
-1.51269e-18
-1.51257e-18
-1.51339e-18
-1.5115e-18
-1.50697e-18
-1.50204e-18
-1.50796e-18
-1.52824e-18
-1.5096e-18
-1.53076e-18
-1.53285e-18
-1.56266e-18
-1.54148e-18
-1.53156e-18
-1.51532e-18
-1.53528e-18
-1.54762e-18
-1.50254e-18
-1.51751e-18
-1.56318e-18
-1.54082e-18
-1.53327e-18
-1.54301e-18
-1.52208e-18
-1.53002e-18
-1.5356e-18
-1.54577e-18
-1.54446e-18
-1.53335e-18
-1.52844e-18
-1.52865e-18
-1.53943e-18
-1.54338e-18
-1.53117e-18
-1.53977e-18
-1.52727e-18
-1.51701e-18
-1.50812e-18
-1.531e-18
-1.5352e-18
-1.51677e-18
-1.49436e-18
-1.49321e-18
-1.50709e-18
-1.51211e-18
-1.51222e-18
-1.51127e-18
-1.51153e-18
-1.50814e-18
-1.49188e-18
-1.49149e-18
-1.50414e-18
-1.50828e-18
-1.506e-18
-1.50541e-18
-1.49639e-18
-1.49038e-18
-1.55033e-18
-1.53889e-18
-1.53391e-18
-1.51203e-18
-1.54143e-18
-1.55915e-18
-1.53728e-18
-1.53318e-18
-1.55403e-18
-1.53861e-18
-1.51208e-18
-1.52712e-18
-1.54039e-18
-1.54566e-18
-1.51909e-18
-1.53171e-18
-1.53374e-18
-1.53764e-18
-1.55531e-18
-1.53498e-18
-1.53011e-18
-1.52435e-18
-1.51636e-18
-1.52102e-18
-1.51262e-18
-1.53055e-18
-1.51467e-18
-1.53809e-18
-1.53475e-18
-1.50651e-18
-1.51027e-18
-1.50386e-18
-1.51827e-18
-1.53393e-18
-1.52015e-18
-1.51757e-18
-1.51935e-18
-1.52319e-18
-1.53248e-18
-1.51546e-18
-1.49889e-18
-1.51009e-18
-1.51331e-18
-1.51511e-18
-1.50941e-18
-1.50076e-18
-1.50586e-18
-1.50356e-18
-1.50464e-18
-1.49546e-18
-1.49166e-18
-1.56427e-18
-1.53919e-18
-1.52776e-18
-1.54058e-18
-1.56093e-18
-1.53772e-18
-1.53673e-18
-1.53828e-18
-1.53158e-18
-1.51478e-18
-1.51512e-18
-1.52877e-18
-1.53069e-18
-1.53088e-18
-1.54984e-18
-1.54929e-18
-1.52942e-18
-1.51578e-18
-1.51653e-18
-1.53955e-18
-1.53236e-18
-1.53062e-18
-1.5417e-18
-1.51896e-18
-1.52085e-18
-1.51978e-18
-1.51715e-18
-1.52028e-18
-1.51542e-18
-1.50491e-18
-1.52881e-18
-1.52248e-18
-1.5176e-18
-1.5155e-18
-1.51539e-18
-1.51721e-18
-1.51375e-18
-1.50871e-18
-1.50121e-18
-1.5156e-18
-1.51934e-18
-1.52655e-18
-1.50244e-18
-1.50105e-18
-1.51061e-18
-1.51421e-18
-1.5114e-18
-1.51112e-18
-1.50922e-18
-1.51945e-18
-1.56835e-18
-1.53983e-18
-1.53468e-18
-1.53476e-18
-1.5375e-18
-1.53183e-18
-1.54818e-18
-1.53596e-18
-1.53357e-18
-1.52882e-18
-1.52885e-18
-1.51854e-18
-1.52759e-18
-1.51894e-18
-1.53117e-18
-1.52706e-18
-1.51576e-18
-1.52614e-18
-1.52975e-18
-1.53111e-18
-1.53642e-18
-1.52668e-18
-1.51618e-18
-1.51175e-18
-1.52258e-18
-1.53e-18
-1.51945e-18
-1.50235e-18
-1.51299e-18
-1.51755e-18
-1.51684e-18
-1.51785e-18
-1.51615e-18
-1.51613e-18
-1.51739e-18
-1.51471e-18
-1.51346e-18
-1.50278e-18
-1.50987e-18
-1.5221e-18
-1.53741e-18
-1.52779e-18
-1.51267e-18
-1.51623e-18
-1.51329e-18
-1.52113e-18
-1.51476e-18
-1.51282e-18
-1.51455e-18
-1.51425e-18
-1.54142e-18
-1.53288e-18
-1.53359e-18
-1.53849e-18
-1.53114e-18
-1.52839e-18
-1.51982e-18
-1.53078e-18
-1.53315e-18
-1.51834e-18
-1.53158e-18
-1.54975e-18
-1.53784e-18
-1.5472e-18
-1.54663e-18
-1.51985e-18
-1.53048e-18
-1.54409e-18
-1.53558e-18
-1.52908e-18
-1.52213e-18
-1.52534e-18
-1.52694e-18
-1.52245e-18
-1.52392e-18
-1.52334e-18
-1.52397e-18
-1.52453e-18
-1.5379e-18
-1.52523e-18
-1.52502e-18
-1.54329e-18
-1.53547e-18
-1.5393e-18
-1.525e-18
-1.5187e-18
-1.51005e-18
-1.53319e-18
-1.53334e-18
-1.53808e-18
-1.52442e-18
-1.5192e-18
-1.5229e-18
-1.528e-18
-1.51644e-18
-1.51764e-18
-1.51753e-18
-1.52082e-18
-1.52561e-18
-1.55409e-18
-1.54051e-18
-1.54201e-18
-1.5414e-18
-1.55903e-18
-1.516e-18
-1.51046e-18
-1.54344e-18
-1.53762e-18
-1.55519e-18
-1.5457e-18
-1.50516e-18
-1.52678e-18
-1.51085e-18
-1.50058e-18
-1.52556e-18
-1.5342e-18
-1.54744e-18
-1.53852e-18
-1.54652e-18
-1.54567e-18
-1.52818e-18
-1.51975e-18
-1.5261e-18
-1.5235e-18
-1.51936e-18
-1.52572e-18
-1.53204e-18
-1.53299e-18
-1.54272e-18
-1.5285e-18
-1.52516e-18
-1.51161e-18
-1.5071e-18
-1.51251e-18
-1.5186e-18
-1.52184e-18
-1.51581e-18
-1.51326e-18
-1.52258e-18
-1.52654e-18
-1.51983e-18
-1.51615e-18
-1.52193e-18
-1.52821e-18
-1.52475e-18
-1.52748e-18
-1.53004e-18
-1.53392e-18
-1.5193e-18
-1.51143e-18
-1.53478e-18
-1.56239e-18
-1.56912e-18
-1.56243e-18
-1.52736e-18
-1.50593e-18
-1.51622e-18
-1.53167e-18
-1.54123e-18
-1.53185e-18
-1.51161e-18
-1.52402e-18
-1.51135e-18
-1.51018e-18
-1.53345e-18
-1.54929e-18
-1.53698e-18
-1.52955e-18
-1.53316e-18
-1.52799e-18
-1.52117e-18
-1.53419e-18
-1.53126e-18
-1.53058e-18
-1.53546e-18
-1.52634e-18
-1.52254e-18
-1.5172e-18
-1.53543e-18
-1.53751e-18
-1.5313e-18
-1.53506e-18
-1.5303e-18
-1.52914e-18
-1.53142e-18
-1.53556e-18
-1.53121e-18
-1.53043e-18
-1.53111e-18
-1.52395e-18
-1.53195e-18
-1.53171e-18
-1.53524e-18
-1.53612e-18
-1.53849e-18
-1.53753e-18
-1.52609e-18
-1.51873e-18
-1.51791e-18
-1.52504e-18
-1.53375e-18
-1.53943e-18
-1.56572e-18
-1.54166e-18
-1.53256e-18
-1.53202e-18
-1.55057e-18
-1.53605e-18
-1.54646e-18
-1.51442e-18
-1.51173e-18
-1.53446e-18
-1.54932e-18
-1.53556e-18
-1.53612e-18
-1.55207e-18
-1.54743e-18
-1.52211e-18
-1.54224e-18
-1.53698e-18
-1.54494e-18