/*--------------------------------*- C++ -*----------------------------------*\
  =========                 |
  \\      /  F ield         | OpenFOAM: The Open Source CFD Toolbox
   \\    /   O peration     | Website:  https://openfoam.org
    \\  /    A nd           | Version:  7
     \\/     M anipulation  |
\*---------------------------------------------------------------------------*/
FoamFile
{
    version     2.0;
    format      ascii;
    class       volScalarField;
    location    "12000";
    object      p;
}
// * * * * * * * * * * * * * * * * * * * * * * * * * * * * * * * * * * * * * //

dimensions      [0 2 -2 0 0 0 0];

internalField   nonuniform List<scalar> 
4783
(
-1.45895e-18
-1.46761e-18
-1.471e-18
-1.49873e-18
-1.47952e-18
-1.49631e-18
-1.47018e-18
-1.45624e-18
-1.44153e-18
-1.48352e-18
-1.46714e-18
-1.46036e-18
-1.45677e-18
-1.44553e-18
-1.42338e-18
-1.43256e-18
-1.48876e-18
-1.49085e-18
-1.47106e-18
-1.4928e-18
-1.49129e-18
-1.44132e-18
-1.46902e-18
-1.48479e-18
-1.45205e-18
-1.46725e-18
-1.46779e-18
-1.49433e-18
-1.47293e-18
-1.46902e-18
-1.46878e-18
-1.47261e-18
-1.45979e-18
-1.45937e-18
-1.46342e-18
-1.45633e-18
-1.44974e-18
-1.45288e-18
-1.48012e-18
-1.43505e-18
-1.41629e-18
-1.42662e-18
-1.45395e-18
-1.45616e-18
-1.44554e-18
-1.44168e-18
-1.4551e-18
-1.45689e-18
-1.44502e-18
-1.46378e-18
-1.46311e-18
-1.47978e-18
-1.50043e-18
-1.49052e-18
-1.46013e-18
-1.45173e-18
-1.48219e-18
-1.46518e-18
-1.45473e-18
-1.43484e-18
-1.45737e-18
-1.45009e-18
-1.42454e-18
-1.44936e-18
-1.45522e-18
-1.46053e-18
-1.46815e-18
-1.4601e-18
-1.44293e-18
-1.44609e-18
-1.47782e-18
-1.44599e-18
-1.46053e-18
-1.46745e-18
-1.46298e-18
-1.4436e-18
-1.4464e-18
-1.48465e-18
-1.4749e-18
-1.4855e-18
-1.4644e-18
-1.45197e-18
-1.46257e-18
-1.46005e-18
-1.43336e-18
-1.45861e-18
-1.46646e-18
-1.46177e-18
-1.46608e-18
-1.45176e-18
-1.48353e-18
-1.47098e-18
-1.47273e-18
-1.46786e-18
-1.4664e-18
-1.45964e-18
-1.42992e-18
-1.45177e-18
-1.46498e-18
-1.47285e-18
-1.46259e-18
-1.43943e-18
-1.45717e-18
-1.4416e-18
-1.47761e-18
-1.46749e-18
-1.45961e-18
-1.46386e-18
-1.50148e-18
-1.48295e-18
-1.46893e-18
-1.46438e-18
-1.47328e-18
-1.47046e-18
-1.48688e-18
-1.47871e-18
-1.46548e-18
-1.467e-18
-1.46386e-18
-1.446e-18
-1.4658e-18
-1.47033e-18
-1.45484e-18
-1.41635e-18
-1.45443e-18
-1.45929e-18
-1.46342e-18
-1.46749e-18
-1.4835e-18
-1.46314e-18
-1.46862e-18
-1.45965e-18
-1.4588e-18
-1.46576e-18
-1.46548e-18
-1.45144e-18
-1.4721e-18
-1.48467e-18
-1.45085e-18
-1.4649e-18
-1.48507e-18
-1.46685e-18
-1.46732e-18
-1.4686e-18
-1.43666e-18
-1.41915e-18
-1.46394e-18
-1.47359e-18
-1.46028e-18
-1.45857e-18
-1.45879e-18
-1.45942e-18
-1.47931e-18
-1.47183e-18
-1.47735e-18
-1.47572e-18
-1.47737e-18
-1.48576e-18
-1.46708e-18
-1.45786e-18
-1.46364e-18
-1.44683e-18
-1.44643e-18
-1.45145e-18
-1.47268e-18
-1.48396e-18
-1.45042e-18
-1.45873e-18
-1.48573e-18
-1.49764e-18
-1.4495e-18
-1.45618e-18
-1.44167e-18
-1.43443e-18
-1.43769e-18
-1.4443e-18
-1.49597e-18
-1.50376e-18
-1.49231e-18
-1.47387e-18
-1.4573e-18
-1.49176e-18
-1.49444e-18
-1.48438e-18
-1.47193e-18
-1.47997e-18
-1.46475e-18
-1.46869e-18
-1.48432e-18
-1.46809e-18
-1.44916e-18
-1.4639e-18
-1.45677e-18
-1.46204e-18
-1.46101e-18
-1.44375e-18
-1.44165e-18
-1.45386e-18
-1.4824e-18
-1.50995e-18
-1.46468e-18
-1.46921e-18
-1.47255e-18
-1.48414e-18
-1.45392e-18
-1.47071e-18
-1.47081e-18
-1.44955e-18
-1.42717e-18
-1.44743e-18
-1.47039e-18
-1.46712e-18
-1.45726e-18
-1.46399e-18
-1.46715e-18
-1.46121e-18
-1.469e-18
-1.47994e-18
-1.46285e-18
-1.46101e-18
-1.47574e-18
-1.47639e-18
-1.47211e-18
-1.47548e-18
-1.47513e-18
-1.46015e-18
-1.43716e-18
-1.46818e-18
-1.46972e-18
-1.4625e-18
-1.44479e-18
-1.46303e-18
-1.47176e-18
-1.47018e-18
-1.45025e-18
-1.48046e-18
-1.5027e-18
-1.46308e-18
-1.46187e-18
-1.46554e-18
-1.44867e-18
-1.47398e-18
-1.48886e-18
-1.46393e-18
-1.46971e-18
-1.47562e-18
-1.49681e-18
-1.50696e-18
-1.488e-18
-1.47005e-18
-1.47207e-18
-1.47302e-18
-1.46709e-18
-1.47613e-18
-1.49245e-18
-1.48851e-18
-1.46188e-18
-1.45724e-18
-1.49802e-18
-1.44906e-18
-1.45143e-18
-1.46185e-18
-1.44502e-18
-1.46272e-18
-1.46572e-18
-1.48639e-18
-1.47802e-18
-1.45033e-18
-1.47708e-18
-1.47734e-18
-1.47766e-18
-1.45289e-18
-1.46706e-18
-1.46902e-18
-1.47111e-18
-1.48917e-18
-1.49685e-18
-1.47569e-18
-1.46457e-18
-1.46318e-18
-1.4726e-18
-1.44918e-18
-1.47679e-18
-1.4674e-18
-1.45943e-18
-1.45348e-18
-1.47691e-18
-1.47968e-18
-1.49366e-18
-1.48816e-18
-1.48779e-18
-1.45995e-18
-1.46991e-18
-1.45198e-18
-1.45449e-18
-1.45337e-18
-1.46305e-18
-1.47304e-18
-1.48553e-18
-1.46678e-18
-1.45345e-18
-1.46749e-18
-1.47958e-18
-1.45971e-18
-1.47029e-18
-1.46683e-18
-1.46701e-18
-1.47121e-18
-1.49037e-18
-1.47636e-18
-1.47002e-18
-1.48153e-18
-1.47505e-18
-1.46746e-18
-1.4554e-18
-1.47463e-18
-1.48118e-18
-1.46886e-18
-1.45676e-18
-1.46827e-18
-1.44894e-18
-1.45143e-18
-1.46349e-18
-1.46863e-18
-1.45693e-18
-1.44609e-18
-1.46773e-18
-1.46371e-18
-1.47904e-18
-1.47796e-18
-1.49975e-18
-1.48486e-18
-1.45539e-18
-1.4427e-18
-1.44376e-18
-1.47165e-18
-1.46022e-18
-1.47347e-18
-1.47786e-18
-1.46655e-18
-1.43512e-18
-1.4505e-18
-1.47061e-18
-1.48045e-18
-1.47355e-18
-1.45212e-18
-1.47537e-18
-1.47695e-18
-1.47557e-18
-1.46625e-18
-1.49673e-18
-1.46168e-18
-1.46844e-18
-1.47621e-18
-1.45587e-18
-1.45789e-18
-1.47098e-18
-1.46098e-18
-1.45715e-18
-1.44658e-18
-1.46435e-18
-1.48356e-18
-1.46885e-18
-1.46427e-18
-1.48673e-18
-1.47754e-18
-1.46355e-18
-1.49212e-18
-1.48057e-18
-1.48101e-18
-1.49965e-18
-1.451e-18
-1.47996e-18
-1.47613e-18
-1.48603e-18
-1.47754e-18
-1.45292e-18
-1.45955e-18
-1.49538e-18
-1.47873e-18
-1.47226e-18
-1.46059e-18
-1.47606e-18
-1.47701e-18
-1.48231e-18
-1.46852e-18
-1.45975e-18
-1.47759e-18
-1.48761e-18
-1.4708e-18
-1.48224e-18
-1.46514e-18
-1.47891e-18
-1.47558e-18
-1.47676e-18
-1.47425e-18
-1.45894e-18
-1.46606e-18
-1.44203e-18
-1.4846e-18
-1.48372e-18
-1.46282e-18
-1.48043e-18
-1.48041e-18
-1.47994e-18
-1.48348e-18
-1.44978e-18
-1.44971e-18
-1.44688e-18
-1.49899e-18
-1.48026e-18
-1.47806e-18
-1.46917e-18
-1.47559e-18
-1.49269e-18
-1.4774e-18
-1.47479e-18
-1.48999e-18
-1.48044e-18
-1.47937e-18
-1.48118e-18
-1.46751e-18
-1.48587e-18
-1.48979e-18
-1.49266e-18
-1.48228e-18
-1.46361e-18
-1.48224e-18
-1.46622e-18
-1.47964e-18
-1.50526e-18
-1.48856e-18
-1.46723e-18
-1.48107e-18
-1.47939e-18
-1.46704e-18
-1.47689e-18
-1.48269e-18
-1.48326e-18
-1.47046e-18
-1.47722e-18
-1.46725e-18
-1.48091e-18
-1.49836e-18
-1.48531e-18
-1.46898e-18
-1.49096e-18
-1.49229e-18
-1.49677e-18
-1.48241e-18
-1.49052e-18
-1.48628e-18
-1.48682e-18
-1.49403e-18
-1.48965e-18
-1.48817e-18
-1.49371e-18
-1.48882e-18
-1.48128e-18
-1.49877e-18
-1.481e-18
-1.47621e-18
-1.50973e-18
-1.49204e-18
-1.48885e-18
-1.49369e-18
-1.49339e-18
-1.49522e-18
-1.49711e-18
-1.49363e-18
-1.49697e-18
-1.49596e-18
-1.49256e-18
-1.50443e-18
-1.49578e-18
-1.48669e-18
-1.51543e-18
-1.4854e-18
-1.49168e-18
-1.51406e-18
-1.4971e-18
-1.49142e-18
-1.49879e-18
-1.50132e-18
-1.49076e-18
-1.49972e-18
-1.50661e-18
-1.49394e-18
-1.50552e-18
-1.49931e-18
-1.48725e-18
-1.47788e-18
-1.4701e-18
-1.49513e-18
-1.47527e-18
-1.47624e-18
-1.4796e-18
-1.48903e-18
-1.47157e-18
-1.45348e-18
-1.46797e-18
-1.47506e-18
-1.46638e-18
-1.48914e-18
-1.47489e-18
-1.46199e-18
-1.47684e-18
-1.48141e-18
-1.47369e-18
-1.46682e-18
-1.48159e-18
-1.48162e-18
-1.4677e-18
-1.4779e-18
-1.47689e-18
-1.46577e-18
-1.49525e-18
-1.50612e-18
-1.50611e-18
-1.49478e-18
-1.49286e-18
-1.49408e-18
-1.50366e-18
-1.51161e-18
-1.50209e-18
-1.5016e-18
-1.49482e-18
-1.48638e-18
-1.47668e-18
-1.47852e-18
-1.49419e-18
-1.49353e-18
-1.48787e-18
-1.47177e-18
-1.4545e-18
-1.49773e-18
-1.48029e-18
-1.49051e-18
-1.47647e-18
-1.48468e-18
-1.47391e-18
-1.44552e-18
-1.44193e-18
-1.47693e-18
-1.49165e-18
-1.46629e-18
-1.47557e-18
-1.4804e-18
-1.48076e-18
-1.4846e-18
-1.48442e-18
-1.48486e-18
-1.4999e-18
-1.50368e-18
-1.4881e-18
-1.48701e-18
-1.48769e-18
-1.48416e-18
-1.48975e-18
-1.49116e-18
-1.48318e-18
-1.48489e-18
-1.48483e-18
-1.48771e-18
-1.48491e-18
-1.47604e-18
-1.49653e-18
-1.498e-18
-1.4902e-18
-1.49642e-18
-1.51284e-18
-1.49783e-18
-1.49355e-18
-1.48855e-18
-1.49637e-18
-1.46658e-18
-1.48858e-18
-1.48441e-18
-1.49445e-18
-1.45648e-18
-1.46917e-18
-1.47779e-18
-1.47226e-18
-1.45988e-18
-1.48858e-18
-1.48255e-18
-1.48625e-18
-1.4785e-18
-1.46546e-18
-1.49005e-18
-1.46262e-18
-1.49519e-18
-1.50034e-18
-1.49315e-18
-1.48734e-18
-1.48626e-18
-1.48832e-18
-1.4886e-18
-1.50496e-18
-1.50422e-18
-1.48994e-18
-1.47649e-18
-1.48415e-18
-1.49186e-18
-1.49212e-18
-1.49378e-18
-1.50208e-18
-1.49513e-18
-1.49448e-18
-1.49586e-18
-1.49864e-18
-1.50555e-18
-1.50228e-18
-1.502e-18
-1.50322e-18
-1.50106e-18
-1.50841e-18
-1.43775e-18
-1.47209e-18
-1.48348e-18
-1.4961e-18
-1.47192e-18
-1.47655e-18
-1.49454e-18
-1.46113e-18
-1.47532e-18
-1.4839e-18
-1.48034e-18
-1.4815e-18
-1.50659e-18
-1.46881e-18
-1.4784e-18
-1.47754e-18
-1.46783e-18
-1.47551e-18
-1.5083e-18
-1.49276e-18
-1.48841e-18
-1.50052e-18
-1.48976e-18
-1.48993e-18
-1.4931e-18
-1.50322e-18
-1.49172e-18
-1.48079e-18
-1.49928e-18
-1.49382e-18
-1.49629e-18
-1.49826e-18
-1.50155e-18
-1.4891e-18
-1.48537e-18
-1.48155e-18
-1.4793e-18
-1.47016e-18
-1.48591e-18
-1.49427e-18
-1.49968e-18
-1.48932e-18
-1.45723e-18
-1.4706e-18
-1.49989e-18
-1.46493e-18
-1.47061e-18
-1.45714e-18
-1.47503e-18
-1.48355e-18
-1.49428e-18
-1.48092e-18
-1.48255e-18
-1.46394e-18
-1.48137e-18
-1.47078e-18
-1.48489e-18
-1.50666e-18
-1.50316e-18
-1.48461e-18
-1.48988e-18
-1.49032e-18
-1.48884e-18
-1.49526e-18
-1.50613e-18
-1.50751e-18
-1.49448e-18
-1.49596e-18
-1.5034e-18
-1.50071e-18
-1.49593e-18
-1.5028e-18
-1.50274e-18
-1.50452e-18
-1.49754e-18
-1.48664e-18
-1.49293e-18
-1.49191e-18
-1.49712e-18
-1.50794e-18
-1.50338e-18
-1.50636e-18
-1.5049e-18
-1.49941e-18
-1.43983e-18
-1.44522e-18
-1.47626e-18
-1.49501e-18
-1.47587e-18
-1.46609e-18
-1.462e-18
-1.49186e-18
-1.46227e-18
-1.46825e-18
-1.49301e-18
-1.44938e-18
-1.47852e-18
-1.49787e-18
-1.49173e-18
-1.51787e-18
-1.49214e-18
-1.4805e-18
-1.48437e-18
-1.48907e-18
-1.48322e-18
-1.47642e-18
-1.48613e-18
-1.49542e-18
-1.50975e-18
-1.50718e-18
-1.4985e-18
-1.49115e-18
-1.48962e-18
-1.48164e-18
-1.49849e-18
-1.49661e-18
-1.48355e-18
-1.48358e-18
-1.48795e-18
-1.49558e-18
-1.49464e-18
-1.48476e-18
-1.48805e-18
-1.49193e-18
-1.50004e-18
-1.49416e-18
-1.46316e-18
-1.46495e-18
-1.47717e-18
-1.48143e-18
-1.47851e-18
-1.47978e-18
-1.49495e-18
-1.48367e-18
-1.45532e-18
-1.4951e-18
-1.51556e-18
-1.46849e-18
-1.47873e-18
-1.48775e-18
-1.50289e-18
-1.51745e-18
-1.48793e-18
-1.46091e-18
-1.47893e-18
-1.50663e-18
-1.51761e-18
-1.4891e-18
-1.47882e-18
-1.49922e-18
-1.48383e-18
-1.47707e-18
-1.48813e-18
-1.48764e-18
-1.47124e-18
-1.47581e-18
-1.50042e-18
-1.51467e-18
-1.49585e-18
-1.50427e-18
-1.49893e-18
-1.49972e-18
-1.49918e-18
-1.50228e-18
-1.50575e-18
-1.5047e-18
-1.50259e-18
-1.51004e-18
-1.48108e-18
-1.46885e-18
-1.46067e-18
-1.4744e-18
-1.48374e-18
-1.47297e-18
-1.47902e-18
-1.49725e-18
-1.463e-18
-1.48244e-18
-1.48464e-18
-1.48456e-18
-1.50168e-18
-1.5057e-18
-1.48631e-18
-1.48963e-18
-1.50687e-18
-1.50929e-18
-1.49358e-18
-1.49771e-18
-1.51492e-18
-1.49264e-18
-1.47614e-18
-1.48715e-18
-1.48442e-18
-1.47041e-18
-1.48818e-18
-1.49197e-18
-1.49168e-18
-1.48252e-18
-1.48997e-18
-1.49355e-18
-1.49162e-18
-1.4863e-18
-1.49148e-18
-1.49477e-18
-1.49563e-18
-1.49582e-18
-1.50027e-18
-1.4901e-18
-1.48997e-18
-1.49177e-18
-1.49348e-18
-1.46834e-18
-1.44073e-18
-1.47923e-18
-1.51027e-18
-1.48104e-18
-1.46105e-18
-1.49786e-18
-1.47579e-18
-1.4796e-18
-1.48078e-18
-1.48277e-18
-1.48838e-18
-1.50218e-18
-1.47863e-18
-1.49978e-18
-1.50207e-18
-1.47933e-18
-1.50331e-18
-1.52203e-18
-1.52026e-18
-1.50008e-18
-1.50105e-18
-1.47669e-18
-1.46842e-18
-1.48802e-18
-1.4901e-18
-1.48232e-18
-1.49012e-18
-1.49254e-18
-1.48995e-18
-1.4841e-18
-1.48662e-18
-1.49202e-18
-1.49208e-18
-1.50353e-18
-1.49777e-18
-1.49699e-18
-1.50457e-18
-1.49865e-18
-1.5032e-18
-1.49993e-18
-1.45063e-18
-1.46229e-18
-1.44812e-18
-1.49577e-18
-1.49011e-18
-1.49455e-18
-1.47846e-18
-1.49414e-18
-1.46923e-18
-1.5016e-18
-1.48715e-18
-1.47868e-18
-1.48593e-18
-1.49982e-18
-1.48603e-18
-1.48531e-18
-1.4874e-18
-1.48155e-18
-1.48294e-18
-1.47463e-18
-1.48582e-18
-1.48673e-18
-1.48736e-18
-1.47719e-18
-1.48948e-18
-1.49061e-18
-1.49307e-18
-1.49247e-18
-1.49485e-18
-1.49592e-18
-1.49266e-18
-1.49458e-18
-1.4968e-18
-1.49446e-18
-1.49435e-18
-1.49507e-18
-1.50155e-18
-1.51455e-18
-1.51043e-18
-1.50721e-18
-1.49953e-18
-1.49161e-18
-1.46775e-18
-1.4761e-18
-1.47818e-18
-1.49383e-18
-1.47616e-18
-1.47749e-18
-1.4752e-18
-1.47039e-18
-1.48081e-18
-1.52126e-18
-1.5063e-18
-1.48728e-18
-1.48324e-18
-1.48959e-18
-1.49753e-18
-1.47796e-18
-1.49578e-18
-1.47226e-18
-1.47024e-18
-1.48291e-18
-1.48571e-18
-1.48015e-18
-1.50026e-18
-1.4968e-18
-1.50199e-18
-1.48199e-18
-1.47941e-18
-1.48889e-18
-1.49208e-18
-1.49095e-18
-1.48344e-18
-1.50053e-18
-1.49993e-18
-1.50236e-18
-1.49527e-18
-1.48631e-18
-1.4952e-18
-1.50101e-18
-1.49534e-18
-1.47435e-18
-1.47683e-18
-1.49227e-18
-1.4722e-18
-1.47633e-18
-1.48635e-18
-1.45767e-18
-1.46703e-18
-1.47222e-18
-1.4761e-18
-1.46101e-18
-1.47929e-18
-1.50484e-18
-1.48796e-18
-1.47764e-18
-1.46696e-18
-1.48179e-18
-1.48622e-18
-1.48779e-18
-1.49634e-18
-1.47611e-18
-1.48238e-18
-1.4735e-18
-1.4856e-18
-1.48975e-18
-1.48934e-18
-1.48914e-18
-1.49057e-18
-1.4897e-18
-1.48712e-18
-1.48239e-18
-1.49191e-18
-1.49818e-18
-1.50674e-18
-1.50213e-18
-1.50143e-18
-1.51429e-18
-1.49395e-18
-1.49095e-18
-1.49224e-18
-1.49032e-18
-1.51034e-18
-1.51999e-18
-1.51121e-18
-1.51048e-18
-1.50425e-18
-1.47171e-18
-1.46712e-18
-1.45387e-18
-1.46397e-18
-1.4776e-18
-1.48714e-18
-1.50559e-18
-1.49314e-18
-1.4647e-18
-1.47869e-18
-1.48076e-18
-1.46108e-18
-1.45807e-18
-1.46984e-18
-1.50603e-18
-1.51918e-18
-1.50998e-18
-1.50662e-18
-1.50324e-18
-1.48781e-18
-1.49277e-18
-1.50254e-18
-1.49296e-18
-1.48908e-18
-1.48664e-18
-1.47536e-18
-1.4881e-18
-1.50144e-18
-1.49372e-18
-1.4799e-18
-1.48787e-18
-1.48603e-18
-1.49402e-18
-1.49633e-18
-1.49372e-18
-1.48711e-18
-1.49279e-18
-1.49516e-18
-1.498e-18
-1.50511e-18
-1.50664e-18
-1.49651e-18
-1.48677e-18
-1.48967e-18
-1.47698e-18
-1.47125e-18
-1.46551e-18
-1.45017e-18
-1.49984e-18
-1.52606e-18
-1.5257e-18
-1.48535e-18
-1.48146e-18
-1.4817e-18
-1.47948e-18
-1.46402e-18
-1.47887e-18
-1.48995e-18
-1.50429e-18
-1.50658e-18
-1.49328e-18
-1.49804e-18
-1.48642e-18
-1.46409e-18
-1.47755e-18
-1.4688e-18
-1.4881e-18
-1.49728e-18
-1.47815e-18
-1.47832e-18
-1.47047e-18
-1.49508e-18
-1.48423e-18
-1.48112e-18
-1.49679e-18
-1.51027e-18
-1.51719e-18
-1.50597e-18
-1.4987e-18
-1.49537e-18
-1.49572e-18
-1.49824e-18
-1.496e-18
-1.49268e-18
-1.49184e-18
-1.49919e-18
-1.50738e-18
-1.51285e-18
-1.49954e-18
-1.47618e-18
-1.47432e-18
-1.46828e-18
-1.48126e-18
-1.483e-18
-1.47986e-18
-1.45953e-18
-1.49499e-18
-1.48873e-18
-1.50067e-18
-1.49051e-18
-1.48898e-18
-1.50154e-18
-1.4886e-18
-1.48194e-18
-1.46821e-18
-1.46643e-18
-1.4713e-18
-1.48334e-18
-1.48903e-18
-1.48897e-18
-1.48892e-18
-1.47688e-18
-1.47736e-18
-1.48361e-18
-1.4894e-18
-1.49337e-18
-1.49751e-18
-1.48563e-18
-1.4862e-18
-1.47576e-18
-1.47655e-18
-1.49329e-18
-1.49703e-18
-1.49838e-18
-1.50175e-18
-1.51511e-18
-1.50412e-18
-1.50118e-18
-1.51069e-18
-1.51293e-18
-1.50814e-18
-1.50799e-18
-1.49871e-18
-1.48922e-18
-1.47154e-18
-1.49253e-18
-1.47649e-18
-1.49036e-18
-1.47794e-18
-1.46737e-18
-1.44528e-18
-1.47815e-18
-1.48133e-18
-1.46866e-18
-1.49547e-18
-1.48903e-18
-1.48467e-18
-1.4824e-18
-1.46993e-18
-1.48108e-18
-1.48581e-18
-1.48518e-18
-1.48528e-18
-1.49227e-18
-1.50874e-18
-1.50704e-18
-1.48987e-18
-1.47979e-18
-1.48831e-18
-1.48993e-18
-1.49141e-18
-1.49269e-18
-1.4937e-18
-1.49883e-18
-1.51173e-18
-1.48021e-18
-1.48456e-18
-1.47472e-18
-1.48711e-18
-1.49632e-18
-1.49432e-18
-1.49404e-18
-1.49548e-18
-1.48596e-18
-1.50326e-18
-1.49297e-18
-1.4972e-18
-1.50514e-18
-1.43246e-18
-1.44266e-18
-1.46951e-18
-1.46515e-18
-1.45655e-18
-1.4748e-18
-1.47982e-18
-1.49357e-18
-1.48473e-18
-1.47687e-18
-1.4447e-18
-1.45308e-18
-1.4778e-18
-1.47135e-18
-1.49211e-18
-1.47412e-18
-1.4847e-18
-1.49745e-18
-1.4896e-18
-1.49213e-18
-1.49199e-18
-1.49148e-18
-1.48029e-18
-1.4794e-18
-1.49304e-18
-1.49282e-18
-1.49176e-18
-1.49082e-18
-1.48834e-18
-1.48368e-18
-1.47377e-18
-1.49029e-18
-1.49036e-18
-1.49014e-18
-1.49176e-18
-1.49405e-18
-1.49192e-18
-1.49743e-18
-1.5083e-18
-1.49523e-18
-1.49298e-18
-1.4922e-18
-1.48092e-18
-1.49324e-18
-1.5081e-18
-1.50573e-18
-1.43092e-18
-1.48893e-18
-1.47794e-18
-1.47283e-18
-1.46582e-18
-1.46829e-18
-1.47951e-18
-1.48498e-18
-1.48091e-18
-1.48074e-18
-1.48203e-18
-1.49918e-18
-1.49786e-18
-1.48574e-18
-1.49965e-18
-1.49635e-18
-1.48626e-18
-1.47891e-18
-1.47024e-18
-1.48394e-18
-1.49331e-18
-1.50375e-18
-1.51171e-18
-1.51564e-18
-1.50218e-18
-1.52424e-18
-1.52087e-18
-1.4983e-18
-1.49341e-18
-1.49703e-18
-1.50261e-18
-1.51625e-18
-1.50216e-18
-1.48746e-18
-1.4718e-18
-1.49253e-18
-1.50949e-18
-1.50063e-18
-1.5033e-18
-1.49422e-18
-1.49003e-18
-1.48634e-18
-1.47826e-18
-1.48633e-18
-1.49284e-18
-1.49271e-18
-1.49325e-18
-1.45064e-18
-1.50766e-18
-1.50394e-18
-1.49815e-18
-1.4719e-18
-1.45006e-18
-1.47622e-18
-1.49842e-18
-1.47995e-18
-1.47295e-18
-1.48122e-18
-1.4928e-18
-1.46748e-18
-1.4744e-18
-1.47854e-18
-1.47013e-18
-1.47602e-18
-1.46532e-18
-1.45823e-18
-1.46467e-18
-1.46939e-18
-1.47685e-18
-1.48523e-18
-1.49009e-18
-1.4917e-18
-1.49324e-18
-1.4927e-18
-1.49115e-18
-1.48998e-18
-1.49853e-18
-1.52156e-18
-1.52685e-18
-1.52053e-18
-1.49435e-18
-1.47622e-18
-1.50909e-18
-1.51396e-18
-1.50218e-18
-1.506e-18
-1.49698e-18
-1.4838e-18
-1.49438e-18
-1.50627e-18
-1.49406e-18
-1.49472e-18
-1.49461e-18
-1.49665e-18
-1.43077e-18
-1.50028e-18
-1.48064e-18
-1.47407e-18
-1.46449e-18
-1.46862e-18
-1.47493e-18
-1.50261e-18
-1.49469e-18
-1.4617e-18
-1.4759e-18
-1.48002e-18
-1.47336e-18
-1.47502e-18
-1.47912e-18
-1.48621e-18
-1.47995e-18
-1.4806e-18
-1.4936e-18
-1.49071e-18
-1.50193e-18
-1.49198e-18
-1.49172e-18
-1.49634e-18
-1.50728e-18
-1.47136e-18
-1.49043e-18
-1.50844e-18
-1.47451e-18
-1.49127e-18
-1.50562e-18
-1.47442e-18
-1.48433e-18
-1.49068e-18
-1.48881e-18
-1.48859e-18
-1.48448e-18
-1.47359e-18
-1.48551e-18
-1.4924e-18
-1.49304e-18
-1.49026e-18
-1.4879e-18
-1.47648e-18
-1.48229e-18
-1.47571e-18
-1.48597e-18
-1.43311e-18
-1.47192e-18
-1.47215e-18
-1.46254e-18
-1.42814e-18
-1.46201e-18
-1.45432e-18
-1.49745e-18
-1.49853e-18
-1.47592e-18
-1.49034e-18
-1.49642e-18
-1.48226e-18
-1.47256e-18
-1.47381e-18
-1.47463e-18
-1.47003e-18
-1.46771e-18
-1.48629e-18
-1.48338e-18
-1.48486e-18
-1.482e-18
-1.48466e-18
-1.48405e-18
-1.46206e-18
-1.45737e-18
-1.48785e-18
-1.51507e-18
-1.49955e-18
-1.49471e-18
-1.49599e-18
-1.49522e-18
-1.49466e-18
-1.49681e-18
-1.49317e-18
-1.49289e-18
-1.49687e-18
-1.5102e-18
-1.49875e-18
-1.49409e-18
-1.48968e-18
-1.48386e-18
-1.50401e-18
-1.49991e-18
-1.49558e-18
-1.49693e-18
-1.50484e-18
-1.48871e-18
-1.46913e-18
-1.4644e-18
-1.46404e-18
-1.44222e-18
-1.46828e-18
-1.45645e-18
-1.4912e-18
-1.48256e-18
-1.4732e-18
-1.45966e-18
-1.47356e-18
-1.48515e-18
-1.46151e-18
-1.46895e-18
-1.47347e-18
-1.45577e-18
-1.46656e-18
-1.46843e-18
-1.48491e-18
-1.50107e-18
-1.45834e-18
-1.46291e-18
-1.51355e-18
-1.52818e-18
-1.51964e-18
-1.4971e-18
-1.50035e-18
-1.5094e-18
-1.47368e-18
-1.49361e-18
-1.51434e-18
-1.49331e-18
-1.47099e-18
-1.47884e-18
-1.47159e-18
-1.48379e-18
-1.49324e-18
-1.50411e-18
-1.49519e-18
-1.49718e-18
-1.51057e-18
-1.51388e-18
-1.50581e-18
-1.48017e-18
-1.47745e-18
-1.49369e-18
-1.50094e-18
-1.47133e-18
-1.45602e-18
-1.44433e-18
-1.45899e-18
-1.46444e-18
-1.49555e-18
-1.49229e-18
-1.47526e-18
-1.4919e-18
-1.48963e-18
-1.46578e-18
-1.45348e-18
-1.45531e-18
-1.46422e-18
-1.46903e-18
-1.46237e-18
-1.43918e-18
-1.46456e-18
-1.47518e-18
-1.48602e-18
-1.48101e-18
-1.4801e-18
-1.48449e-18
-1.5112e-18
-1.50104e-18
-1.50878e-18
-1.49204e-18
-1.48973e-18
-1.48512e-18
-1.46658e-18
-1.48495e-18
-1.49416e-18
-1.50042e-18
-1.50816e-18
-1.48364e-18
-1.50385e-18
-1.48708e-18
-1.5012e-18
-1.49752e-18
-1.494e-18
-1.49533e-18
-1.49632e-18
-1.49553e-18
-1.49738e-18
-1.49778e-18
-1.49969e-18
-1.50144e-18
-1.50191e-18
-1.46669e-18
-1.44002e-18
-1.47979e-18
-1.44108e-18
-1.4448e-18
-1.49634e-18
-1.49079e-18
-1.45095e-18
-1.46966e-18
-1.47148e-18
-1.45077e-18
-1.46568e-18
-1.46826e-18
-1.45682e-18
-1.47216e-18
-1.48225e-18
-1.47048e-18
-1.47438e-18
-1.46201e-18
-1.4657e-18
-1.45003e-18
-1.46449e-18
-1.46338e-18
-1.50664e-18
-1.48822e-18
-1.48314e-18
-1.4857e-18
-1.48856e-18
-1.49071e-18
-1.49641e-18
-1.51722e-18
-1.51757e-18
-1.49887e-18
-1.49538e-18
-1.49952e-18
-1.51802e-18
-1.50844e-18
-1.48237e-18
-1.49013e-18
-1.49585e-18
-1.49625e-18
-1.49638e-18
-1.49618e-18
-1.50064e-18
-1.50114e-18
-1.50121e-18
-1.49942e-18
-1.50395e-18
-1.50902e-18
-1.5013e-18
-1.46564e-18
-1.47027e-18
-1.46649e-18
-1.4653e-18
-1.49086e-18
-1.46974e-18
-1.44695e-18
-1.46542e-18
-1.47999e-18
-1.45282e-18
-1.47207e-18
-1.48709e-18
-1.47843e-18
-1.50033e-18
-1.49043e-18
-1.47149e-18
-1.46318e-18
-1.47128e-18
-1.47215e-18
-1.46738e-18
-1.44757e-18
-1.46933e-18
-1.48224e-18
-1.4807e-18
-1.48066e-18
-1.47797e-18
-1.46348e-18
-1.48095e-18
-1.48796e-18
-1.49674e-18
-1.51408e-18
-1.48358e-18
-1.50508e-18
-1.49937e-18
-1.49509e-18
-1.4955e-18
-1.49462e-18
-1.49566e-18
-1.4976e-18
-1.49921e-18
-1.49913e-18
-1.49912e-18
-1.49581e-18
-1.4868e-18
-1.49822e-18
-1.50315e-18
-1.49966e-18
-1.49027e-18
-1.50614e-18
-1.48107e-18
-1.46607e-18
-1.49464e-18
-1.47055e-18
-1.47065e-18
-1.46754e-18
-1.48019e-18
-1.46524e-18
-1.45102e-18
-1.46552e-18
-1.48385e-18
-1.4722e-18
-1.46691e-18
-1.46672e-18
-1.48133e-18
-1.47015e-18
-1.47342e-18
-1.47713e-18
-1.45197e-18
-1.46127e-18
-1.44725e-18
-1.47751e-18
-1.50192e-18
-1.49211e-18
-1.5121e-18
-1.51402e-18
-1.49967e-18
-1.51287e-18
-1.49952e-18
-1.49418e-18
-1.50135e-18
-1.514e-18
-1.50013e-18
-1.49199e-18
-1.47852e-18
-1.49032e-18
-1.4944e-18
-1.49494e-18
-1.50156e-18
-1.5148e-18
-1.50131e-18
-1.48878e-18
-1.49889e-18
-1.50392e-18
-1.51065e-18
-1.5215e-18
-1.51056e-18
-1.50846e-18
-1.5121e-18
-1.47509e-18
-1.50337e-18
-1.44295e-18
-1.49241e-18
-1.47775e-18
-1.48577e-18
-1.46792e-18
-1.46842e-18
-1.46449e-18
-1.46166e-18
-1.46585e-18
-1.46352e-18
-1.44808e-18
-1.4474e-18
-1.45725e-18
-1.45045e-18
-1.4407e-18
-1.4641e-18
-1.47099e-18
-1.47026e-18
-1.4733e-18
-1.47741e-18
-1.50078e-18
-1.48703e-18
-1.47797e-18
-1.48139e-18
-1.48226e-18
-1.48247e-18
-1.4898e-18
-1.50552e-18
-1.49256e-18
-1.49138e-18
-1.49368e-18
-1.4978e-18
-1.51572e-18
-1.51511e-18
-1.49715e-18
-1.48129e-18
-1.48904e-18
-1.49468e-18
-1.49836e-18
-1.49799e-18
-1.4968e-18
-1.50267e-18
-1.50482e-18
-1.5048e-18
-1.50457e-18
-1.5015e-18
-1.48865e-18
-1.49039e-18
-1.46054e-18
-1.44208e-18
-1.4316e-18
-1.47309e-18
-1.48831e-18
-1.46804e-18
-1.46869e-18
-1.46725e-18
-1.46933e-18
-1.46383e-18
-1.45978e-18
-1.44683e-18
-1.45609e-18
-1.44279e-18
-1.4433e-18
-1.46046e-18
-1.47171e-18
-1.46984e-18
-1.46252e-18
-1.45943e-18
-1.46139e-18
-1.45467e-18
-1.49656e-18
-1.48113e-18
-1.47087e-18
-1.45918e-18
-1.47906e-18
-1.49074e-18
-1.51371e-18
-1.52289e-18
-1.52506e-18
-1.52419e-18
-1.52537e-18
-1.51569e-18
-1.47867e-18
-1.48703e-18
-1.49295e-18
-1.49365e-18
-1.49665e-18
-1.50118e-18
-1.51214e-18
-1.5011e-18
-1.48723e-18
-1.49605e-18
-1.50342e-18
-1.50063e-18
-1.49318e-18
-1.50134e-18
-1.50445e-18
-1.50419e-18
-1.4671e-18
-1.45693e-18
-1.45558e-18
-1.46662e-18
-1.46935e-18
-1.44978e-18
-1.48403e-18
-1.47473e-18
-1.4824e-18
-1.46347e-18
-1.44422e-18
-1.459e-18
-1.45967e-18
-1.44842e-18
-1.46723e-18
-1.46339e-18
-1.45625e-18
-1.46772e-18
-1.44432e-18
-1.45668e-18
-1.45165e-18
-1.49373e-18
-1.49946e-18
-1.46002e-18
-1.46969e-18
-1.47645e-18
-1.47903e-18
-1.48039e-18
-1.4832e-18
-1.48563e-18
-1.48472e-18
-1.48751e-18
-1.48923e-18
-1.49052e-18
-1.48282e-18
-1.47287e-18
-1.48703e-18
-1.49117e-18
-1.49335e-18
-1.49829e-18
-1.49707e-18
-1.48835e-18
-1.49613e-18
-1.5008e-18
-1.50727e-18
-1.51906e-18
-1.50959e-18
-1.50572e-18
-1.50858e-18
-1.51492e-18
-1.48717e-18
-1.46594e-18
-1.43825e-18
-1.45547e-18
-1.46824e-18
-1.46315e-18
-1.47012e-18
-1.46431e-18
-1.4479e-18
-1.45779e-18
-1.44962e-18
-1.47647e-18
-1.4648e-18
-1.4453e-18
-1.44634e-18
-1.45425e-18
-1.44022e-18
-1.46575e-18
-1.46215e-18
-1.45532e-18
-1.46741e-18
-1.47812e-18
-1.47651e-18
-1.47529e-18
-1.47826e-18
-1.48297e-18
-1.48264e-18
-1.49057e-18
-1.50765e-18
-1.48988e-18
-1.48533e-18
-1.48565e-18
-1.48609e-18
-1.48255e-18
-1.46874e-18
-1.48568e-18
-1.50762e-18
-1.50096e-18
-1.50734e-18
-1.50091e-18
-1.50042e-18
-1.50563e-18
-1.48843e-18
-1.48863e-18
-1.48338e-18
-1.49456e-18
-1.49459e-18
-1.48719e-18
-1.49875e-18
-1.5065e-18
-1.43771e-18
-1.45471e-18
-1.45531e-18
-1.44332e-18
-1.48823e-18
-1.47018e-18
-1.46631e-18
-1.45709e-18
-1.43026e-18
-1.46307e-18
-1.45946e-18
-1.4666e-18
-1.48247e-18
-1.46427e-18
-1.46313e-18
-1.46949e-18
-1.47171e-18
-1.46872e-18
-1.4685e-18
-1.4683e-18
-1.46395e-18
-1.47285e-18
-1.4765e-18
-1.47891e-18
-1.4804e-18
-1.48166e-18
-1.48163e-18
-1.49177e-18
-1.51071e-18
-1.4937e-18
-1.49378e-18
-1.51334e-18
-1.5026e-18
-1.49902e-18
-1.51188e-18
-1.49975e-18
-1.49574e-18
-1.49723e-18
-1.49864e-18
-1.49911e-18
-1.49991e-18
-1.50096e-18
-1.50217e-18
-1.50265e-18
-1.50484e-18
-1.50799e-18
-1.50847e-18
-1.50637e-18
-1.50411e-18
-1.50968e-18
-1.45239e-18
-1.43418e-18
-1.45963e-18
-1.45962e-18
-1.48932e-18
-1.46911e-18
-1.46035e-18
-1.44499e-18
-1.46482e-18
-1.47558e-18
-1.43173e-18
-1.44679e-18
-1.4925e-18
-1.47171e-18
-1.46664e-18
-1.47483e-18
-1.45805e-18
-1.46558e-18
-1.47673e-18
-1.49176e-18
-1.4875e-18
-1.48073e-18
-1.48034e-18
-1.48662e-18
-1.50799e-18
-1.50877e-18
-1.49392e-18
-1.50965e-18
-1.4955e-18
-1.48071e-18
-1.4721e-18
-1.50839e-18
-1.51371e-18
-1.48941e-18
-1.46472e-18
-1.46623e-18
-1.48526e-18
-1.49446e-18
-1.49633e-18
-1.49517e-18
-1.49732e-18
-1.4948e-18
-1.48089e-18
-1.48159e-18
-1.49624e-18
-1.50193e-18
-1.50298e-18
-1.50377e-18
-1.49572e-18
-1.49291e-18
-1.47596e-18
-1.46453e-18
-1.46061e-18
-1.4382e-18
-1.4678e-18
-1.48752e-18
-1.46572e-18
-1.46208e-18
-1.4832e-18
-1.46782e-18
-1.44076e-18
-1.45785e-18
-1.47195e-18
-1.47848e-18
-1.45437e-18
-1.46608e-18
-1.4694e-18
-1.47487e-18
-1.49532e-18
-1.47938e-18
-1.47497e-18
-1.46994e-18
-1.46428e-18
-1.46982e-18
-1.45901e-18
-1.49179e-18
-1.47171e-18
-1.51136e-18
-1.50914e-18
-1.46925e-18
-1.47606e-18
-1.47102e-18
-1.49367e-18
-1.51639e-18
-1.50033e-18
-1.49764e-18
-1.49986e-18
-1.50375e-18
-1.51478e-18
-1.50402e-18
-1.49094e-18
-1.50057e-18
-1.50456e-18
-1.50722e-18
-1.50164e-18
-1.49493e-18
-1.50053e-18
-1.50038e-18
-1.50386e-18
-1.49677e-18
-1.41427e-18
-1.49005e-18
-1.46424e-18
-1.45241e-18
-1.46605e-18
-1.48793e-18
-1.46623e-18
-1.46595e-18
-1.46797e-18
-1.46148e-18
-1.44356e-18
-1.44737e-18
-1.46183e-18
-1.46448e-18
-1.46531e-18
-1.48307e-18
-1.48499e-18
-1.46778e-18
-1.45722e-18
-1.46105e-18
-1.48764e-18
-1.48349e-18
-1.48429e-18
-1.50179e-18
-1.48075e-18
-1.48474e-18
-1.4867e-18
-1.4882e-18
-1.48894e-18
-1.48359e-18
-1.47585e-18
-1.50885e-18
-1.5023e-18
-1.49778e-18
-1.49596e-18
-1.49916e-18
-1.50218e-18
-1.50043e-18
-1.49798e-18
-1.49397e-18
-1.50928e-18
-1.51152e-18
-1.5184e-18
-1.49717e-18
-1.4962e-18
-1.50559e-18
-1.50926e-18
-1.50678e-18
-1.50737e-18
-1.50649e-18
-1.44298e-18
-1.4935e-18
-1.46292e-18
-1.45768e-18
-1.45928e-18
-1.46447e-18
-1.46207e-18
-1.47883e-18
-1.46693e-18
-1.46534e-18
-1.46174e-18
-1.46294e-18
-1.45193e-18
-1.463e-18
-1.45613e-18
-1.46731e-18
-1.46468e-18
-1.45505e-18
-1.46609e-18
-1.47057e-18
-1.47577e-18
-1.48486e-18
-1.47635e-18
-1.4658e-18
-1.46876e-18
-1.48593e-18
-1.5019e-18
-1.4893e-18
-1.46908e-18
-1.48463e-18
-1.49266e-18
-1.49474e-18
-1.4982e-18
-1.49656e-18
-1.49771e-18
-1.50147e-18
-1.49888e-18
-1.50053e-18
-1.49222e-18
-1.49843e-18
-1.51019e-18
-1.52509e-18
-1.51799e-18
-1.50291e-18
-1.50547e-18
-1.50346e-18
-1.51054e-18
-1.50467e-18
-1.50335e-18
-1.5058e-18
-1.43969e-18
-1.46439e-18
-1.45275e-18
-1.45387e-18
-1.46278e-18
-1.4583e-18
-1.45895e-18
-1.45259e-18
-1.46289e-18
-1.46608e-18
-1.45356e-18
-1.46716e-18
-1.48553e-18
-1.47377e-18
-1.48209e-18
-1.48192e-18
-1.45875e-18
-1.46879e-18
-1.48121e-18
-1.47557e-18
-1.47259e-18
-1.46939e-18
-1.47434e-18
-1.48274e-18
-1.48376e-18
-1.49014e-18
-1.49316e-18
-1.49483e-18
-1.49696e-18
-1.51886e-18
-1.50369e-18
-1.50327e-18
-1.52168e-18
-1.51263e-18
-1.51704e-18
-1.50618e-18
-1.50336e-18
-1.49619e-18
-1.51841e-18
-1.51831e-18
-1.52282e-18
-1.51002e-18
-1.50383e-18
-1.50648e-18
-1.51229e-18
-1.5024e-18
-1.50369e-18
-1.50373e-18
-1.50743e-18
-1.51271e-18
-1.47857e-18
-1.46179e-18
-1.46243e-18
-1.46249e-18
-1.48493e-18
-1.44251e-18
-1.44039e-18
-1.47427e-18
-1.46925e-18
-1.4873e-18
-1.47819e-18
-1.44084e-18
-1.46402e-18
-1.44918e-18
-1.43919e-18
-1.46352e-18
-1.47254e-18
-1.48662e-18
-1.47674e-18
-1.48505e-18
-1.48891e-18
-1.47258e-18
-1.46374e-18
-1.47771e-18
-1.4796e-18
-1.4786e-18
-1.49051e-18
-1.50196e-18
-1.49882e-18
-1.51374e-18
-1.50463e-18
-1.50849e-18
-1.49593e-18
-1.48851e-18
-1.4921e-18
-1.4988e-18
-1.5009e-18
-1.49581e-18
-1.49453e-18
-1.50414e-18
-1.50877e-18
-1.50281e-18
-1.50073e-18
-1.50498e-18
-1.51075e-18
-1.50691e-18
-1.50993e-18
-1.51282e-18
-1.51709e-18
-1.50194e-18
-1.43655e-18
-1.45825e-18
-1.48809e-18
-1.49473e-18
-1.48838e-18
-1.45484e-18
-1.43512e-18
-1.45058e-18
-1.46419e-18
-1.4735e-18
-1.46527e-18
-1.4457e-18
-1.46026e-18
-1.44858e-18
-1.44781e-18
-1.47101e-18
-1.48659e-18
-1.4752e-18
-1.46948e-18
-1.47544e-18
-1.47273e-18
-1.46843e-18
-1.48911e-18
-1.48515e-18
-1.48557e-18
-1.49626e-18
-1.48705e-18
-1.48454e-18
-1.47996e-18
-1.50161e-18
-1.50626e-18
-1.50166e-18
-1.50667e-18
-1.50166e-18
-1.49973e-18
-1.50379e-18
-1.50995e-18
-1.50502e-18
-1.50428e-18
-1.50541e-18
-1.49847e-18
-1.50828e-18
-1.50734e-18
-1.51046e-18
-1.51061e-18
-1.51419e-18
-1.51615e-18
-1.50506e-18
-1.4966e-18
-1.49537e-18
-1.44994e-18
-1.4579e-18
-1.46404e-18
-1.49259e-18
-1.4682e-18
-1.46066e-18
-1.46187e-18
-1.48235e-18
-1.4679e-18
-1.47717e-18
-1.44744e-18
-1.44454e-18
-1.46857e-18
-1.48259e-18
-1.47038e-18
-1.47249e-18
-1.48937e-18
-1.48675e-18
-1.46541e-18
-1.48789e-18
-1.4849e-18
-1.49894e-18