/*--------------------------------*- C++ -*----------------------------------*\
  =========                 |
  \\      /  F ield         | OpenFOAM: The Open Source CFD Toolbox
   \\    /   O peration     | Website:  https://openfoam.org
    \\  /    A nd           | Version:  7
     \\/     M anipulation  |
\*---------------------------------------------------------------------------*/
FoamFile
{
    version     2.0;
    format      ascii;
    class       volScalarField;
    location    "12000";
    object      strainRate;
}
// * * * * * * * * * * * * * * * * * * * * * * * * * * * * * * * * * * * * * //

dimensions      [0 0 -1 0 0 0 0];

internalField   nonuniform List<scalar> 
4783
(
0.00310756
0.00297598
0.00291571
0.00284135
0.00275837
0.00267281
0.00258708
0.00250238
0.00241943
0.00233874
0.00226073
0.00218578
0.00211427
0.00204654
0.00198294
0.00192381
0.00186946
0.00182022
0.00177638
0.00173822
0.001706
0.00167994
0.00383745
0.00344914
0.00337096
0.00328125
0.00318199
0.00307831
0.00297384
0.00287085
0.0027707
0.00267423
0.002582
0.00249444
0.00241186
0.00233455
0.00226276
0.00219671
0.00213662
0.00208267
0.00203504
0.0019939
0.00195939
0.00193163
0.00416893
0.00371295
0.00360815
0.00351135
0.00341402
0.00331473
0.00321453
0.00311491
0.00301722
0.00292245
0.00283138
0.00274457
0.00266246
0.00258543
0.00251377
0.00244777
0.00238767
0.00233368
0.00228601
0.00224481
0.00221025
0.00218245
0.00442831
0.00398218
0.00385982
0.00375019
0.00364702
0.00354666
0.00344775
0.00335031
0.00325492
0.00316228
0.00307306
0.00298784
0.00290707
0.00283117
0.00276049
0.00269531
0.00263591
0.00258252
0.00253534
0.00249456
0.00246033
0.00243279
0.00467143
0.00424418
0.00411692
0.00399936
0.00388972
0.0037856
0.00368526
0.00358791
0.00349341
0.00340202
0.00331414
0.00323022
0.00315066
0.00307585
0.00300615
0.00294184
0.0028832
0.00283047
0.00278386
0.00274357
0.00270974
0.00268251
0.00490812
0.00449914
0.00437163
0.00425098
0.00413728
0.00402969
0.0039271
0.00382867
0.00373399
0.00364298
0.00355581
0.00347273
0.00339407
0.00332015
0.00325128
0.00318775
0.00312982
0.00307772
0.00303166
0.00299184
0.0029584
0.0029315
0.00514142
0.00474913
0.00462254
0.00450121
0.00438567
0.00427589
0.0041714
0.00407167
0.00397632
0.00388516
0.0037982
0.00371558
0.00363751
0.00356423
0.00349603
0.00343314
0.00337581
0.00332427
0.00327871
0.00323932
0.00320626
0.00317964
0.00537276
0.00499566
0.00487012
0.00474905
0.00463297
0.00452211
0.00441642
0.00431566
0.0042196
0.00412809
0.00404108
0.00395864
0.00388091
0.00380808
0.00374037
0.00367799
0.00362116
0.0035701
0.00352497
0.00348597
0.00345323
0.00342689
0.0056029
0.00523969
0.0051151
0.00499459
0.00487857
0.00476735
0.00466105
0.00455965
0.00446306
0.00437121
0.00428406
0.00420167
0.00412413
0.0040516
0.00398424
0.00392226
0.00386584
0.00381516
0.00377041
0.00373174
0.00369929
0.00367318
0.00583232
0.00548186
0.00535808
0.00523816
0.00512246
0.00501126
0.00490476
0.00480305
0.00470614
0.00461405
0.00452678
0.00444439
0.00436697
0.00429464
0.00422756
0.00416588
0.00410978
0.00405943
0.00401499
0.0039766
0.0039444
0.0039185
0.00606131
0.00572258
0.0055995
0.00548015
0.00536484
0.00525384
0.00514737
0.00504558
0.00494854
0.00485633
0.004769
0.00468662
0.00460928
0.00453711
0.00447023
0.0044088
0.00435296
0.00430288
0.0042587
0.00422055
0.00418857
0.00416284
0.0062901
0.0059622
0.0058397
0.00572085
0.00560594
0.00549522
0.0053889
0.00528716
0.00519012
0.00509789
0.00501056
0.00492822
0.00485096
0.00477892
0.00471221
0.00465098
0.00459537
0.00454551
0.00450155
0.00446361
0.0044318
0.00440623
0.00651887
0.00620097
0.00607896
0.00596055
0.00584601
0.00573557
0.00562946
0.00552785
0.00543088
0.0053387
0.00525141
0.00516914
0.00509198
0.00502005
0.0049535
0.00489243
0.004837
0.00478734
0.00474356
0.0047058
0.00467414
0.00464871
0.00674778
0.00643911
0.00631751
0.00619946
0.00608525
0.00597509
0.00586919
0.00576773
0.00567088
0.00557879
0.00549158
0.00540938
0.00533232
0.00526051
0.00519409
0.00513318
0.00507791
0.0050284
0.00498478
0.00494716
0.00491564
0.00489031
0.00697693
0.00667683
0.00655555
0.0064378
0.00632386
0.00621394
0.00610823
0.00600694
0.00591022
0.00581823
0.00573112
0.00564901
0.00557205
0.00550035
0.00543405
0.00537326
0.00531813
0.00526876
0.00522528
0.00518778
0.00720647
0.00691429
0.00679326
0.00667574
0.00656202
0.0064523
0.00634677
0.00624562
0.00614902
0.00605713
0.00597011
0.0058881
0.00581123
0.00573963
0.00567343
0.00561276
0.00555774
0.00550849
0.00546512
0.0074365
0.00715167
0.00703081
0.00691346
0.0067999
0.00669033
0.00658493
0.0064839
0.00638741
0.00629561
0.00620868
0.00612674
0.00604995
0.00597844
0.00591233
0.00585176
0.00579684
0.00766712
0.00738912
0.00726836
0.00715112
0.00703766
0.00692819
0.00682289
0.00672194
0.00662552
0.0065338
0.00644693
0.00636505
0.00628833
0.00621688
0.00789846
0.00762678
0.00750607
0.00738887
0.00727546
0.00716604
0.00706078
0.00695988
0.00686351
0.00677182
0.00668499
0.00660316
0.00813061
0.00786481
0.00774407
0.00762685
0.00751343
0.00740401
0.00729876
0.00719786
0.00710149
0.00700981
0.00836368
0.00810334
0.00798251
0.00786521
0.00775173
0.00764224
0.00753695
0.00743601
0.0073396
0.00859777
0.0083425
0.00822152
0.00810408
0.00799048
0.00788089
0.0077755
0.00767447
0.00883299
0.00858243
0.00846123
0.0083436
0.00822982
0.00812007
0.00801453
0.00906946
0.00882325
0.00870179
0.00858391
0.00846989
0.00835993
0.00930727
0.00906511
0.00894331
0.00882512
0.00871082
0.00860059
0.00954654
0.00930812
0.00918594
0.00906738
0.00895274
0.00978738
0.00955242
0.00942979
0.00931081
0.0100299
0.00979813
0.00967499
0.00955554
0.0102742
0.0100454
0.00992168
0.0105204
0.0102943
0.01017
0.0107686
0.010545
0.01042
0.011019
0.0107976
0.0106719
0.0112716
0.0110523
0.0109258
0.0115266
0.0113092
0.0111819
0.0117841
0.0115684
0.0114401
0.0120442
0.01183
0.0117008
0.0123071
0.0120942
0.011964
0.0125728
0.0123611
0.0122299
0.0128416
0.0126308
0.0124985
0.0131135
0.0129036
0.0127701
0.0133886
0.0131794
0.0130447
0.0136672
0.0134586
0.0133226
0.00310753
0.00383743
0.00416891
0.0044283
0.00467142
0.00490811
0.00514142
0.00537276
0.00560291
0.00583232
0.00606131
0.00629011
0.00651888
0.00674779
0.00697695
0.00720648
0.00743651
0.00766714
0.00789848
0.00813063
0.0083637
0.00859779
0.00883302
0.00906948
0.00930729
0.00954656
0.0097874
0.0100299
0.0102742
0.0105204
0.0107687
0.011019
0.0112716
0.0115266
0.0117841
0.0120442
0.0123071
0.0125728
0.0128416
0.0131135
0.0133886
0.0136672
0.00297599
0.00344914
0.00371295
0.00398219
0.00424419
0.00449915
0.00474913
0.00499567
0.0052397
0.00548187
0.0057226
0.00596221
0.00620098
0.00643912
0.00667684
0.0069143
0.00715168
0.00738913
0.0076268
0.00786483
0.00810336
0.00834252
0.00858245
0.00882327
0.00906513
0.00930814
0.00955244
0.00979814
0.0100454
0.0102943
0.010545
0.0107976
0.0110523
0.0113092
0.0115683
0.01183
0.0120941
0.0123611
0.0126308
0.0129035
0.0131794
0.0134586
0.00291572
0.00337097
0.00360816
0.00385983
0.00411693
0.00437165
0.00462255
0.00487014
0.00511512
0.0053581
0.00559952
0.00583973
0.00607899
0.00631753
0.00655557
0.00679328
0.00703084
0.00726839
0.0075061
0.0077441
0.00798254
0.00822155
0.00846127
0.00870182
0.00894335
0.00918597
0.00942982
0.00967503
0.00992172
0.01017
0.0104201
0.0106719
0.0109258
0.0111819
0.0114401
0.0117008
0.011964
0.0122298
0.0124985
0.01277
0.0130447
0.0133225
0.00284136
0.00328126
0.00351136
0.0037502
0.00399938
0.00425099
0.00450123
0.00474907
0.00499461
0.00523819
0.00548018
0.00572088
0.00596058
0.00619949
0.00643783
0.00667578
0.0069135
0.00715116
0.00738891
0.00762689
0.00786525
0.00810413
0.00834365
0.00858395
0.00882517
0.00906744
0.00931087
0.0095556
0.00980176
0.0100495
0.0102989
0.0105501
0.0108032
0.0110585
0.0113159
0.0115756
0.0118379
0.0121027
0.0123703
0.0126407
0.0129142
0.0131908
0.00275838
0.00318201
0.00341403
0.00364704
0.00388974
0.0041373
0.00438569
0.00463299
0.0048786
0.00512249
0.00536487
0.00560598
0.00584605
0.00608529
0.0063239
0.00656206
0.00679995
0.00703771
0.00727551
0.00751349
0.00775178
0.00799054
0.00822988
0.00846996
0.00871089
0.00895282
0.00919586
0.00944015
0.00968581
0.00993298
0.0101818
0.0104323
0.0106848
0.0109392
0.0111959
0.0114548
0.0117161
0.0119799
0.0122465
0.0125158
0.0127882
0.0130636
0.00267282
0.00307833
0.00331475
0.00354668
0.00378562
0.00402971
0.00427592
0.00452214
0.00476738
0.0050113
0.00525388
0.00549527
0.00573562
0.00597514
0.00621399
0.00645235
0.00669039
0.00692825
0.0071661
0.00740407
0.00764231
0.00788096
0.00812015
0.00836002
0.00860069
0.0088423
0.00908499
0.00932886
0.00957406
0.00982071
0.0100689
0.0103189
0.0105707
0.0108244
0.0110803
0.0113383
0.0115988
0.0118617
0.0121273
0.0123957
0.0126669
0.0129412
0.00258709
0.00297386
0.00321455
0.00344777
0.00368529
0.00392713
0.00417143
0.00441646
0.00466109
0.00490481
0.00514742
0.00538896
0.00562952
0.00586924
0.00610829
0.00634683
0.006585
0.00682297
0.00706086
0.00729884
0.00753704
0.00777559
0.00801464
0.00825431
0.00849475
0.00873608
0.00897842
0.00922191
0.00946668
0.00971285
0.00996055
0.0102099
0.0104611
0.0107141
0.0109693
0.0112266
0.0114862
0.0117483
0.012013
0.0122803
0.0125506
0.0128238
0.00250239
0.00287087
0.00311494
0.00335034
0.00358794
0.00382871
0.00407171
0.0043157
0.0045597
0.0048031
0.00504563
0.00528722
0.00552791
0.00576779
0.00600701
0.00624569
0.00648398
0.00672203
0.00695998
0.00719796
0.00743612
0.00767459
0.00791352
0.00815302
0.00839324
0.0086343
0.00887634
0.00911947
0.00936384
0.00960957
0.00985678
0.0101056
0.0103562
0.0106086
0.0108631
0.0111197
0.0113785
0.0116398
0.0119036
0.0121701
0.0124394
0.0127116
0.00241944
0.00277072
0.00301724
0.00325495
0.00349345
0.00373403
0.00397636
0.00421965
0.00446311
0.0047062
0.0049486
0.00519019
0.00543095
0.00567095
0.0059103
0.0061491
0.0063875
0.00662563
0.00686362
0.00710161
0.00733974
0.00757815
0.00781696
0.00805631
0.00829633
0.00853715
0.0087789
0.00902171
0.00926571
0.00951102
0.00975778
0.0100061
0.0102561
0.010508
0.0107618
0.0110177
0.0112759
0.0115364
0.0117994
0.012065
0.0123334
0.0126047
0.00233875
0.00267425
0.00292248
0.00316231
0.00340206
0.00364303
0.00388521
0.00412814
0.00437126
0.00461411
0.0048564
0.00509796
0.00533878
0.00557887
0.00581832
0.00605723
0.00629572
0.00653392
0.00677195
0.00700996
0.00724807
0.00748642
0.00772513
0.00796434
0.00820418
0.00844479
0.00868628
0.00892879
0.00917245
0.00941738
0.00966372
0.00991158
0.0101611
0.0104124
0.0106656
0.0109209
0.0111784
0.0114382
0.0117004
0.0119652
0.0122328
0.0125032
0.00226074
0.00258203
0.00283141
0.0030731
0.00331419
0.00355585
0.00379825
0.00404113
0.00428412
0.00452685
0.00476907
0.00501064
0.0052515
0.00549167
0.00573121
0.00597022
0.0062088
0.00644706
0.00668514
0.00692316
0.00716126
0.00739956
0.00763819
0.00787728
0.00811696
0.00835737
0.00859863
0.00884087
0.00908421
0.00932879
0.00957474
0.00982218
0.0100712
0.010322
0.0105747
0.0108294
0.0110863
0.0113454
0.0116069
0.011871
0.0121378
0.0124074
0.0021858
0.00249447
0.00274461
0.00298787
0.00323026
0.00347278
0.00371563
0.0039587
0.00420173
0.00444446
0.0046867
0.0049283
0.00516923
0.00540948
0.00564912
0.00588822
0.00612688
0.00636521
0.00660333
0.00684138
0.00707946
0.00731772
0.00755628
0.00779527
0.00803481
0.00827504
0.00851609
0.00875808
0.00900114
0.0092454
0.00949099
0.00973804
0.00998667
0.010237
0.0104892
0.0107434
0.0109996
0.0112582
0.0115191
0.0117825
0.0120485
0.0123174
0.0125891
0.00211429
0.00241189
0.0026625
0.00290711
0.0031507
0.00339412
0.00363756
0.00388097
0.0041242
0.00436705
0.00460937
0.00485106
0.00509207
0.00533243
0.00557216
0.00581136
0.0060501
0.0062885
0.00652668
0.00676474
0.00700283
0.00724106
0.00747956
0.00771845
0.00795787
0.00819795
0.00843881
0.00868058
0.00892338
0.00916735
0.00941262
0.00965932
0.00990756
0.0101575
0.0104092
0.0106629
0.0109186
0.0111766
0.0114369
0.0116997
0.0119651
0.0122332
0.0125042
0.0127783
0.00204656
0.00233459
0.00258547
0.00283122
0.0030759
0.00332021
0.0035643
0.00380815
0.00405167
0.00429472
0.0045372
0.00477902
0.00502016
0.00526063
0.00550048
0.00573977
0.0059786
0.00621708
0.00645531
0.0066934
0.0069315
0.0071697
0.00740815
0.00764697
0.00788628
0.00812622
0.00836692
0.00860849
0.00885107
0.00909478
0.00933976
0.00958613
0.00983402
0.0100836
0.0103349
0.0105881
0.0108434
0.0111008
0.0113606
0.0116228
0.0118875
0.0121551
0.0124254
0.0126988
0.00198297
0.0022628
0.00251381
0.00276053
0.0030062
0.00325134
0.00349609
0.00374044
0.00398432
0.00422764
0.00447032
0.00471232
0.00495361
0.00519421
0.00543418
0.00567359
0.00591251
0.00615106
0.00638935
0.00662749
0.00686559
0.00710379
0.0073422
0.00758095
0.00782017
0.00806
0.00830055
0.00854195
0.00878432
0.0090278
0.00927252
0.00951859
0.00976617
0.0100154
0.0102663
0.0105191
0.010774
0.0110309
0.0112902
0.0115519
0.0118161
0.012083
0.0123528
0.0126255
0.0129014
0.00192383
0.00219675
0.00244782
0.00269536
0.00294189
0.00318781
0.00343321
0.00367807
0.00392234
0.00416597
0.00440889
0.00465109
0.00489255
0.00513331
0.00537341
0.00561293
0.00585196
0.00609059
0.00632894
0.00656711
0.00680524
0.00704343
0.00728181
0.00752052
0.00775967
0.00799939
0.00823981
0.00848106
0.00872326
0.00896653
0.00921102
0.00945684
0.00970412
0.009953
0.0102036
0.0104561
0.0107105
0.0109671
0.0112259
0.0114871
0.0117508
0.0120172
0.0122864
0.0125586
0.0128338
0.00186949
0.00213666
0.00238772
0.00263596
0.00288326
0.00312988
0.00337588
0.00362124
0.00386592
0.00410987
0.00435306
0.00459548
0.00483713
0.00507805
0.00531829
0.00555793
0.00579706
0.00603577
0.00627419
0.00651241
0.00675056
0.00698875
0.00722712
0.00746578
0.00770487
0.00794451
0.00818482
0.00842593
0.00866798
0.00891108
0.00915536
0.00940095
0.00964798
0.00989658
0.0101469
0.010399
0.0106531
0.0109093
0.0111677
0.0114285
0.0116918
0.0119577
0.0122265
0.0124981
0.0127728
0.0130507
0.00182025
0.00208271
0.00233373
0.00258257
0.00283053
0.00307779
0.00332434
0.00357018
0.00381525
0.00405953
0.00430299
0.00454563
0.00478747
0.00502855
0.00526893
0.0055087
0.00574793
0.00598673
0.00622521
0.00646348
0.00670165
0.00693986
0.00717822
0.00741685
0.00765589
0.00789546
0.00813568
0.00837668
0.00861859
0.00886153
0.00910563
0.00935103
0.00959784
0.0098462
0.0100962
0.0103481
0.0106019
0.0108578
0.0111158
0.0113762
0.0116391
0.0119047
0.0121729
0.0124441
0.0127184
0.0129958
0.0132766
0.00177641
0.00203509
0.00228606
0.0025354
0.00278393
0.00303174
0.00327879
0.00352506
0.0037705
0.00401509
0.00425881
0.00450167
0.0047437
0.00498494
0.00522546
0.00546535
0.00570468
0.00594356
0.00618211
0.00642042
0.00665863
0.00689685
0.00713521
0.00737382
0.00761282
0.00785233
0.00809247
0.00833337
0.00857517
0.00881798
0.00906193
0.00930716
0.00955378
0.00980194
0.0100517
0.0103034
0.0105569
0.0108125
0.0110702
0.0113303
0.0115929
0.0118581
0.012126
0.0123968
0.0126706
0.0129476
0.0132279
0.00173826
0.00199395
0.00224487
0.00249462
0.00274364
0.00299192
0.00323941
0.00348606
0.00373183
0.0039767
0.00422067
0.00446373
0.00470594
0.00494733
0.00518799
0.00542798
0.00566741
0.00590637
0.00614497
0.00638334
0.00662158
0.00685981
0.00709817
0.00733677
0.00757574
0.0078152
0.00805528
0.0082961
0.0085378
0.0087805
0.00902433
0.00926941
0.00951588
0.00976386
0.0100135
0.0102649
0.0105182
0.0107735
0.011031
0.0112909
0.0115531
0.011818
0.0120856
0.012356
0.0126295
0.0129061
0.013186
0.00170604
0.00195944
0.00221031
0.0024604
0.00270981
0.00295848
0.00320634
0.00345332
0.00369939
0.00394451
0.00418868
0.00443193
0.00467429
0.00491583
0.0051566
0.00539669
0.0056362
0.00587524
0.0061139
0.00635231
0.00659057
0.00682883
0.00706719
0.00730578
0.00754472
0.00778415
0.00802418
0.00826494
0.00850656
0.00874917
0.00899289
0.00923785
0.00948419
0.00973203
0.00998149
0.0102327
0.0104858
0.010741
0.0109983
0.0112579
0.0115199
0.0117845
0.0120518
0.012322
0.0125952
0.0128715
0.0131511
0.00167998
0.00193168
0.00218251
0.00243286
0.00268259
0.00293158
0.00317973
0.00342698
0.00367328
0.00391861
0.00416296
0.00440637
0.00464886
0.00489051
0.00513138
0.00537156
0.00561114
0.00585024
0.00608895
0.00632739
0.00656569
0.00680395
0.00704232
0.0072809
0.00751983
0.00775923
0.00799922
0.00823993
0.0084815
0.00872403
0.00896767
0.00921254
0.00945877
0.00970649
0.00995583
0.0102069
0.0104599
0.0107149
0.010972
0.0112314
0.0114933
0.0117577
0.0120248
0.0122947
0.0125677
0.0128437
0.0131231
0.0134059
0.00166026
0.00191077
0.00216157
0.00241211
0.00266207
0.0029113
0.00315968
0.00340713
0.00365361
0.0038991
0.00414359
0.00438712
0.00462972
0.00487146
0.0051124
0.00535265
0.00559229
0.00583143
0.00607018
0.00630866
0.00654697
0.00678525
0.00702362
0.0072622
0.00750112
0.0077405
0.00798046
0.00822114
0.00846266
0.00870514
0.00894872
0.00919352
0.00943968
0.00968731
0.00993656
0.0101875
0.0104404
0.0106953
0.0109523
0.0112116
0.0114733
0.0117375
0.0120045
0.0122743
0.012547
0.0128229
0.0131021
0.0133847
0.00164703
0.00189678
0.00214757
0.00239823
0.00264835
0.00289774
0.00314627
0.00339386
0.00364046
0.00388605
0.00413064
0.00437425
0.00461692
0.00485872
0.00509972
0.00534002
0.0055797
0.00581887
0.00605765
0.00629614
0.00653447
0.00677276
0.00701114
0.00724972
0.00748863
0.00772799
0.00796794
0.00820859
0.00845008
0.00869253
0.00893607
0.00918083
0.00942693
0.00967451
0.0099237
0.0101746
0.0104274
0.0106822
0.0109391
0.0111983
0.0114599
0.0117241
0.0119909
0.0122606
0.0125332
0.012809
0.013088
0.0133705
0.0136565
0.00164039
0.00188978
0.00214055
0.00239128
0.00264148
0.00289094
0.00313954
0.0033872
0.00363387
0.00387952
0.00412416
0.00436781
0.00461051
0.00485234
0.00509337
0.00533369
0.00557339
0.00581258
0.00605137
0.00628987
0.00652821
0.00676651
0.00700489
0.00724347
0.00748237
0.00772173
0.00796167
0.00820231
0.00844379
0.00868622
0.00892974
0.00917448
0.00942056
0.00966811
0.00991726
0.0101681
0.0104209
0.0106757
0.0109325
0.0111917
0.0114532
0.0117174
0.0119841
0.0122538
0.0125263
0.012802
0.013081
0.0133634
0.0136494
0.00164039
0.00188977
0.00214055
0.00239127
0.00264147
0.00289094
0.00313954
0.0033872
0.00363387
0.00387952
0.00412415
0.0043678
0.00461051
0.00485234
0.00509337
0.00533368
0.00557339
0.00581258
0.00605137
0.00628987
0.00652821
0.00676651
0.00700489
0.00724347
0.00748238
0.00772174
0.00796168
0.00820232
0.00844379
0.00868623
0.00892975
0.00917448
0.00942056
0.00966812
0.00991727
0.0101682
0.0104209
0.0106757
0.0109325
0.0111917
0.0114533
0.0117174
0.0119841
0.0122538
0.0125263
0.0128021
0.013081
0.0133634
0.0136494
0.0139391
0.00164702
0.00189678
0.00214756
0.00239822
0.00264834
0.00289773
0.00314626
0.00339385
0.00364045
0.00388605
0.00413064
0.00437424
0.00461691
0.00485871
0.00509971
0.00534001
0.00557969
0.00581886
0.00605764
0.00629614
0.00653447
0.00677276
0.00701114
0.00724972
0.00748863
0.007728
0.00796795
0.00820861
0.0084501
0.00869255
0.00893609
0.00918085
0.00942695
0.00967453
0.00992372
0.0101746
0.0104274
0.0106822
0.0109391
0.0111983
0.0114599
0.0117241
0.0119909
0.0122606
0.0125332
0.012809
0.0130881
0.0133705
0.0136566
0.0139464
0.00166025
0.00191076
0.00216156
0.00241209
0.00266206
0.00291129
0.00315966
0.00340712
0.0036536
0.00389909
0.00414358
0.00438711
0.00462971
0.00487144
0.00511239
0.00535264
0.00559228
0.00583142
0.00607017
0.00630865
0.00654697
0.00678526
0.00702363
0.00726221
0.00750113
0.00774052
0.00798049
0.00822117
0.00846269
0.00870517
0.00894876
0.00919356
0.00943971
0.00968735
0.00993659
0.0101876
0.0104404
0.0106953
0.0109523
0.0112116
0.0114733
0.0117376
0.0120045
0.0122743
0.012547
0.0128229
0.0131021
0.0133847
0.0136709
0.0139608
0.00167996
0.00193166
0.00218249
0.00243284
0.00268257
0.00293156
0.00317971
0.00342696
0.00367326
0.00391859
0.00416294
0.00440635
0.00464885
0.00489049
0.00513136
0.00537154
0.00561113
0.00585022
0.00608894
0.00632739
0.00656569
0.00680396
0.00704233
0.00728092
0.00751985
0.00775926
0.00799925
0.00823997
0.00848153
0.00872407
0.00896772
0.00921259
0.00945882
0.00970654
0.00995588
0.010207
0.0104599
0.0107149
0.0109721
0.0112315
0.0114933
0.0117577
0.0120248
0.0122948
0.0125677
0.0128438
0.0131232
0.013406
0.0136924
0.0139825
0.00170602
0.00195942
0.00221029
0.00246037
0.00270979
0.00295846
0.00320632
0.0034533
0.00369936
0.00394448
0.00418866
0.00443191
0.00467427
0.00491581
0.00515658
0.00539667
0.00563618
0.00587522
0.00611389
0.0063523
0.00659058
0.00682884
0.0070672
0.0073058
0.00754475
0.00778418
0.00802421
0.00826498
0.00850661
0.00874922
0.00899295
0.00923791
0.00948425
0.00973208
0.00998155
0.0102328
0.0104859
0.010741
0.0109984
0.011258
0.01152
0.0117846
0.0120519
0.0123221
0.0125952
0.0128716
0.0131512
0.0134343
0.0137209
0.0140114
0.00173823
0.00199392
0.00224484
0.00249459
0.00274361
0.00299189
0.00323938
0.00348603
0.0037318
0.00397668
0.00422064
0.00446371
0.00470591
0.00494731
0.00518796
0.00542796
0.00566739
0.00590635
0.00614496
0.00638334
0.00662158
0.00685983
0.00709819
0.0073368
0.00757577
0.00781524
0.00805532
0.00829616
0.00853786
0.00878056
0.00902439
0.00926948
0.00951595
0.00976393
0.0100136
0.010265
0.0105183
0.0107736
0.0110311
0.0112909
0.0115532
0.0118181
0.0120856
0.0123561
0.0126296
0.0129062
0.0131861
0.0134695
0.0137566
0.0140474
0.00177638
0.00203506
0.00228603
0.00253536
0.0027839
0.0030317
0.00327876
0.00352503
0.00377047
0.00401506
0.00425878
0.00450164
0.00474367
0.00498492
0.00522544
0.00546532
0.00570466
0.00594355
0.0061821
0.00642042
0.00665864
0.00689687
0.00713523
0.00737385
0.00761286
0.00785237
0.00809252
0.00833343
0.00857524
0.00881805
0.00906201
0.00930724
0.00955387
0.00980203
0.0100518
0.0103035
0.010557
0.0108126
0.0110703
0.0113304
0.011593
0.0118581
0.012126
0.0123968
0.0126707
0.0129477
0.013228
0.0135118
0.0137993
0.0140905
0.00182022
0.00208267
0.0023337
0.00258253
0.00283049
0.00307775
0.00332431
0.00357014
0.00381521
0.00405949
0.00430295
0.0045456
0.00478744
0.00502852
0.00526891
0.00550868
0.00574791
0.00598672
0.0062252
0.00646348
0.00670166
0.00693988
0.00717824
0.00741689
0.00765593
0.00789551
0.00813574
0.00837675
0.00861866
0.00886161
0.00910572
0.00935112
0.00959794
0.00984631
0.0100964
0.0103482
0.010602
0.0108579
0.0111159
0.0113764
0.0116392
0.0119048
0.012173
0.0124442
0.0127185
0.0129959
0.0132767
0.013561
0.013849
0.0141407
0.00186945
0.00213661
0.00238767
0.00263592
0.00288321
0.00312984
0.00337584
0.0036212
0.00386588
0.00410984
0.00435303
0.00459545
0.0048371
0.00507802
0.00531827
0.00555791
0.00579705
0.00603577
0.00627418
0.00651241
0.00675057
0.00698877
0.00722715
0.00746582
0.00770492
0.00794457
0.00818489
0.00842601
0.00866806
0.00891117
0.00915546
0.00940106
0.0096481
0.00989671
0.010147
0.0103991
0.0106532
0.0109094
0.0111679
0.0114286
0.0116919
0.0119579
0.0122266
0.0124982
0.0127729
0.0130509
0.0133322
0.0136171
0.0139056
0.014198
0.00192379
0.0021967
0.00244777
0.00269531
0.00294185
0.00318777
0.00343316
0.00367802
0.0039223
0.00416593
0.00440886
0.00465106
0.00489253
0.00513329
0.00537339
0.00561292
0.00585195
0.00609059
0.00632894
0.00656712
0.00680525
0.00704345
0.00728185
0.00752056
0.00775972
0.00799946
0.00823989
0.00848114
0.00872335
0.00896664
0.00921113
0.00945696
0.00970425
0.00995313
0.0102037
0.0104562
0.0107106
0.0109672
0.011226
0.0114872
0.0117509
0.0120173
0.0122866
0.0125587
0.012834
0.0131125
0.0133944
0.0136799
0.0139691
0.0142621
0.00198292
0.00226275
0.00251376
0.00276048
0.00300615
0.0032513
0.00349605
0.0037404
0.00398428
0.0042276
0.00447029
0.00471229
0.00495358
0.00519419
0.00543417
0.00567358
0.00591251
0.00615107
0.00638936
0.00662749
0.0068656
0.00710381
0.00734223
0.007581
0.00782024
0.00806007
0.00830063
0.00854204
0.00878443
0.00902792
0.00927264
0.00951873
0.0097663
0.0100155
0.0102664
0.0105193
0.0107741
0.0110311
0.0112903
0.011552
0.0118162
0.0120832
0.0123529
0.0126257
0.0129015
0.0131807
0.0134633
0.0137494
0.0140393
0.0143331
0.00204651
0.00233453
0.00258541
0.00283117
0.00307585
0.00332016
0.00356425
0.00380811
0.00405163
0.00429469
0.00453716
0.00477899
0.00502014
0.00526061
0.00550047
0.00573977
0.00597861
0.00621709
0.00645532
0.00669342
0.00693151
0.00716973
0.00740819
0.00764702
0.00788635
0.0081263
0.00836701
0.0086086
0.00885118
0.00909491
0.00933989
0.00958627
0.00983416
0.0100837
0.010335
0.0105882
0.0108435
0.0111009
0.0113607
0.0116229
0.0118877
0.0121552
0.0124256
0.012699
0.0129755
0.0132554
0.0135387
0.0138256
0.0141163
0.0144109
0.00211424
0.00241184
0.00266244
0.00290706
0.00315065
0.00339407
0.00363752
0.00388093
0.00412416
0.00436701
0.00460934
0.00485103
0.00509206
0.00533242
0.00557216
0.00581136
0.00605011
0.00628852
0.0065267
0.00676477
0.00700286
0.00724109
0.0074796
0.00771851
0.00795794
0.00819803
0.00843891
0.00868069
0.00892351
0.00916749
0.00941277
0.00965946
0.00990771
0.0101576
0.0104094
0.010663
0.0109188
0.0111767
0.011437
0.0116998
0.0119652
0.0122334
0.0125044
0.0127785
0.0130558
0.0133364
0.0136205
0.0139083
0.0141999
0.0144954
0.00218574
0.00249441
0.00274455
0.00298782
0.00323021
0.00347273
0.00371559
0.00395866
0.00420169
0.00444443
0.00468667
0.00492828
0.00516922
0.00540948
0.00564912
0.00588823
0.00612689
0.00636523
0.00660336
0.00684141
0.0070795
0.00731776
0.00755633
0.00779533
0.00803489
0.00827513
0.00851619
0.0087582
0.00900127
0.00924554
0.00949114
0.00973819
0.00998683
0.0102372
0.0104894
0.0107435
0.0109998
0.0112583
0.0115192
0.0117826
0.0120487
0.0123175
0.0125893
0.0128642
0.0131423
0.0134237
0.0137087
0.0139974
0.01429
0.0145865
0.00226069
0.00258197
0.00283136
0.00307304
0.00331413
0.0035558
0.00379821
0.0040411
0.00428409
0.00452682
0.00476905
0.00501062
0.00525149
0.00549167
0.00573122
0.00597024
0.00620882
0.00644709
0.00668517
0.0069232
0.0071613
0.0073996
0.00763824
0.00787734
0.00811704
0.00835746
0.00859874
0.00884099
0.00908435
0.00932893
0.00957488
0.00982232
0.0100714
0.0103222
0.0105749
0.0108296
0.0110864
0.0113456
0.0116071
0.0118712
0.012138
0.0124076
0.0126802
0.0129559
0.0132348
0.0135172
0.0138032
0.0140929
0.0143864
0.014684
0.00233869
0.00267419
0.00292242
0.00316226
0.00340201
0.00364298
0.00388517
0.0041281
0.00437123
0.00461409
0.00485638
0.00509796
0.00533878
0.00557888
0.00581834
0.00605725
0.00629575
0.00653395
0.00677199
0.00701
0.00724812
0.00748647
0.00772519
0.00796442
0.00820427
0.00844489
0.00868639
0.00892892
0.00917258
0.00941752
0.00966386
0.00991173
0.0101613
0.0104126
0.0106658
0.0109211
0.0111786
0.0114384
0.0117006
0.0119654
0.012233
0.0125034
0.0127769
0.0130535
0.0133334
0.0136168
0.0139037
0.0141945
0.0144892
0.0147879
0.00241938
0.00277066
0.00301718
0.00325489
0.0034934
0.00373398
0.00397633
0.00421962
0.00446309
0.00470618
0.00494859
0.00519019
0.00543096
0.00567097
0.00591032
0.00614913
0.00638754
0.00662566
0.00686366
0.00710166
0.00733979
0.00757821
0.00781703
0.00805639
0.00829642
0.00853725
0.00877902
0.00902184
0.00926584
0.00951116
0.00975792
0.0100063
0.0102563
0.0105082
0.010762
0.0110179
0.011276
0.0115365
0.0117995
0.0120652
0.0123336
0.0126049
0.0128792
0.0131568
0.0134377
0.0137222
0.0140103
0.0143022
0.014598
0.014898
0.00250233
0.00287081
0.00311488
0.00335028
0.00358789
0.00382867
0.00407168
0.00431568
0.00455968
0.00480309
0.00504563
0.00528723
0.00552792
0.00576782
0.00600704
0.00624573
0.00648402
0.00672207
0.00696002
0.00719801
0.00743618
0.00767466
0.00791359
0.00815311
0.00839333
0.00863441
0.00887645
0.0091196
0.00936397
0.0096097
0.00985692
0.0101058
0.0103563
0.0106088
0.0108633
0.0111198
0.0113787
0.01164
0.0119038
0.0121702
0.0124395
0.0127118
0.0129871
0.0132658
0.0135478
0.0138333
0.0141226
0.0144157
0.0147129
0.0150142
0.00258703
0.0029738
0.00321449
0.00344772
0.00368524
0.00392709
0.0041714
0.00441643
0.00466108
0.0049048
0.00514743
0.00538897
0.00562954
0.00586928
0.00610833
0.00634688
0.00658505
0.00682302
0.00706091
0.0072989
0.0075371
0.00777566
0.00801472
0.00825441
0.00849485
0.00873618
0.00897853
0.00922204
0.00946681
0.00971299
0.0099607
0.0102101
0.0104612
0.0107143
0.0109695
0.0112268
0.0114864
0.0117485
0.0120131
0.0122805
0.0125508
0.012824
0.0131005
0.0133802
0.0136633
0.0139501
0.0142406
0.014535
0.0148335
0.0151362
0.00267276
0.00307826
0.0033147
0.00354663
0.00378558
0.00402968
0.00427589
0.00452213
0.00476738
0.0050113
0.00525389
0.00549529
0.00573565
0.00597518
0.00621403
0.0064524
0.00669044
0.00692831
0.00716616
0.00740414
0.00764239
0.00788104
0.00812024
0.00836011
0.00860079
0.00884241
0.0090851
0.00932898
0.00957419
0.00982085
0.0100691
0.010319
0.0105708
0.0108246
0.0110804
0.0113385
0.011599
0.0118619
0.0121275
0.0123958
0.0126671
0.0129414
0.013219
0.0134998
0.0137842
0.0140722
0.0143641
0.0146599
0.0149598
0.015264
0.00275832
0.00318195
0.00341398
0.00364699
0.0038897
0.00413727
0.00438568
0.00463299
0.0048786
0.0051225
0.00536489
0.00560601
0.00584608
0.00608533
0.00632395
0.00656212
0.00680001
0.00703778
0.00727558
0.00751356
0.00775186
0.00799062
0.00822998
0.00847006
0.008711
0.00895293
0.00919597
0.00944026
0.00968594
0.00993311
0.0101819
0.0104325
0.0106849
0.0109394
0.011196
0.0114549
0.0117162
0.0119801
0.0122466
0.012516
0.0127884
0.0130638
0.0133425
0.0136246
0.0139103
0.0141996
0.0144929
0.0147901
0.0150915
0.0153973
0.0028413
0.00328121
0.00351131
0.00375016
0.00399935
0.00425097
0.00450122
0.00474907
0.00499462
0.00523821
0.0054802
0.00572092
0.00596062
0.00619954
0.00643789
0.00667584
0.00691357
0.00715123
0.00738898
0.00762697
0.00786534
0.00810422
0.00834375
0.00858406
0.00882528
0.00906754
0.00931098
0.00955571
0.00980188
0.0100496
0.010299
0.0105502
0.0108034
0.0110586
0.011316
0.0115758
0.011838
0.0121028
0.0123704
0.0126409
0.0129143
0.013191
0.0134709
0.0137543
0.0140413
0.0143321
0.0146267
0.0149255
0.0152285
0.0155359
0.00291567
0.00337091
0.00360812
0.0038598
0.00411691
0.00437163
0.00462255
0.00487014
0.00511514
0.00535813
0.00559956
0.00583977
0.00607904
0.00631759
0.00655563
0.00679335
0.00703091
0.00726847
0.00750618
0.00774419
0.00798263
0.00822165
0.00846137
0.00870193
0.00894346
0.00918608
0.00942994
0.00967515
0.00992184
0.0101701
0.0104202
0.0106721
0.010926
0.011182
0.0114403
0.0117009
0.0119641
0.01223
0.0124986
0.0127702
0.0130448
0.0133227
0.0136039
0.0138887
0.0141771
0.0144693
0.0147655
0.0150659
0.0153706
0.0156797
0.00297594
0.00344909
0.00371291
0.00398216
0.00424417
0.00449914