/*--------------------------------*- C++ -*----------------------------------*\
  =========                 |
  \\      /  F ield         | OpenFOAM: The Open Source CFD Toolbox
   \\    /   O peration     | Website:  https://openfoam.org
    \\  /    A nd           | Version:  7
     \\/     M anipulation  |
\*---------------------------------------------------------------------------*/
FoamFile
{
    version     2.0;
    format      ascii;
    class       volScalarField;
    location    "80000";
    object      nu;
}
// * * * * * * * * * * * * * * * * * * * * * * * * * * * * * * * * * * * * * //

dimensions      [0 2 -1 0 0 0 0];

internalField   nonuniform List<scalar> 
4838
(
0.000289164
0.000441436
0.000647658
0.000906018
0.001
0.001
0.001
0.001
0.001
0.001
0.001
0.001
0.001
0.001
0.001
0.001
0.001
0.001
0.001
0.001
0.001
0.001
0.001
0.001
0.001
0.001
0.001
0.001
0.001
0.001
0.001
0.001
0.001
0.001
0.001
0.001
0.001
0.001
0.001
0.001
0.001
0.001
0.001
0.001
0.001
0.001
0.000905003
0.000646846
0.00044088
0.000289
0.000146415
0.000225567
0.000322135
0.000468699
0.000668176
0.000892033
0.001
0.001
0.001
0.001
0.001
0.001
0.001
0.001
0.001
0.001
0.001
0.001
0.001
0.001
0.001
0.001
0.001
0.001
0.001
0.001
0.001
0.001
0.001
0.001
0.001
0.001
0.001
0.001
0.001
0.001
0.001
0.001
0.001
0.001
0.001
0.001
0.001
0.001
0.000891017
0.000667359
0.000468103
0.00032174
0.000225311
0.000146284
8.52149e-05
0.000123432
0.00016765
0.000235473
0.000339767
0.000491906
0.00068969
0.000903556
0.001
0.001
0.001
0.001
0.001
0.001
0.001
0.001
0.001
0.001
0.001
0.001
0.001
0.001
0.001
0.001
0.001
0.001
0.001
0.001
0.001
0.001
0.001
0.001
0.001
0.001
0.001
0.001
0.001
0.001
0.001
0.001
0.001
0.001
0.000902508
0.00068882
0.000491255
0.000339324
0.000235184
0.000167459
0.000123301
8.51388e-05
5.66969e-05
7.56171e-05
9.59388e-05
0.000125749
0.000170706
0.000239196
0.000342125
0.000488489
0.000674106
0.000873095
0.001
0.001
0.001
0.001
0.001
0.001
0.001
0.001
0.001
0.001
0.001
0.001
0.001
0.001
0.001
0.001
0.001
0.001
0.001
0.001
0.001
0.001
0.001
0.001
0.001
0.001
0.001
0.001
0.001
0.001
0.000872091
0.000673241
0.000487819
0.000341657
0.000238885
0.000170498
0.000125608
9.58397e-05
7.55456e-05
5.66515e-05
4.20157e-05
5.23277e-05
6.23239e-05
7.61494e-05
9.58251e-05
0.000124551
0.00016724
0.000230852
0.000324026
0.000453285
0.00061579
0.000793477
0.000958933
0.001
0.001
0.001
0.001
0.001
0.001
0.001
0.001
0.001
0.001
0.001
0.001
0.001
0.001
0.001
0.001
0.001
0.001
0.001
0.001
0.001
0.001
0.001
0.001
0.000957911
0.000792551
0.000614998
0.000452656
0.000323575
0.000230545
0.00016703
0.000124407
9.57234e-05
7.60759e-05
6.22694e-05
5.22864e-05
4.19875e-05
3.37148e-05
3.99669e-05
4.53882e-05
5.24461e-05
6.18601e-05
7.47427e-05
9.27966e-05
0.000118573
0.000155795
0.000209401
0.000285185
0.000387747
0.000516394
0.000661073
0.000806479
0.000938014
0.001
0.001
0.001
0.001
0.001
0.001
0.001
0.001
0.001
0.001
0.001
0.001
0.001
0.001
0.001
0.001
0.001
0.001
0.000937174
0.000805652
0.000660306
0.000515724
0.000387221
0.000284796
0.000209125
0.000155602
0.000118436
9.26986e-05
7.46708e-05
6.18061e-05
5.24047e-05
4.53558e-05
3.99412e-05
3.36962e-05
2.85621e-05
3.27281e-05
3.59877e-05
4.0003e-05
4.5042e-05
5.15002e-05
5.99588e-05
7.12702e-05
8.66662e-05
0.00010786
0.000137179
0.000177474
0.00023176
0.000302736
0.000390327
0.000491327
0.000598274
0.000702254
0.000797889
0.000882007
0.000951638
0.001
0.001
0.001
0.001
0.001
0.001
0.001
0.001
0.000951195
0.00088149
0.000797338
0.000701691
0.000597706
0.000490781
0.000389856
0.000302355
0.00023147
0.000177257
0.000137018
0.000107742
8.65785e-05
7.12043e-05
5.99082e-05
5.14606e-05
4.50105e-05
3.99775e-05
3.59668e-05
3.27107e-05
2.85489e-05
2.50805e-05
2.80693e-05
3.02187e-05
3.27508e-05
3.577e-05
3.94222e-05
4.39135e-05
4.95352e-05
5.66888e-05
6.5923e-05
7.7968e-05
9.37513e-05
0.000114373
0.00014107
0.000174876
0.000216391
0.000265652
0.000321307
0.000380534
0.000439975
0.000495797
0.000543905
0.000580569
0.000605056
0.000617303
0.00061727
0.000604956
0.000580404
0.000543672
0.000495505
0.000439657
0.000380215
0.000321005
0.000265381
0.000216161
0.000174688
0.000140919
0.000114255
9.36593e-05
7.78963e-05
6.58668e-05
5.66443e-05
4.94994e-05
4.38843e-05
3.9398e-05
3.57497e-05
3.27336e-05
3.02041e-05
2.80568e-05
2.50708e-05
2.25612e-05
2.48249e-05
2.63498e-05
2.80873e-05
3.00809e-05
3.23872e-05
3.50818e-05
3.82662e-05
4.20754e-05
4.66894e-05
5.23329e-05
5.92849e-05
6.78716e-05
7.84487e-05
9.13524e-05
0.00010682
0.000124963
0.000145581
0.000168042
0.000191344
0.000214178
0.000235066
0.000252564
0.000265056
0.00027154
0.000271523
0.000265005
0.000252482
0.00023496
0.000214058
0.000191218
0.000167918
0.000145463
0.000124858
0.000106729
9.12751e-05
7.83841e-05
6.78182e-05
5.92408e-05
5.22964e-05
4.66589e-05
4.20497e-05
3.82443e-05
3.50629e-05
3.23708e-05
3.00667e-05
2.80749e-05
2.6339e-05
2.48155e-05
2.25537e-05
2.06418e-05
2.24249e-05
2.35676e-05
2.48383e-05
2.62563e-05
2.7845e-05
2.96336e-05
3.16586e-05
3.3966e-05
3.66137e-05
3.96711e-05
4.3221e-05
4.73566e-05
5.2169e-05
5.77404e-05
6.41195e-05
7.1301e-05
7.91948e-05
8.75945e-05
9.61677e-05
0.000104488
0.00011207
0.000118402
0.000122956
0.000125334
0.000125328
0.000122936
0.00011837
0.000112029
0.000104441
9.61181e-05
8.75445e-05
7.91464e-05
7.1256e-05
6.40787e-05
5.7704e-05
5.2137e-05
4.73286e-05
4.31965e-05
3.96496e-05
3.65948e-05
3.39493e-05
3.16437e-05
2.96203e-05
2.78331e-05
2.62456e-05
2.48288e-05
2.35592e-05
2.24176e-05
2.06358e-05
1.91225e-05
2.05683e-05
2.14602e-05
2.2434e-05
2.34989e-05
2.46652e-05
2.59445e-05
2.73503e-05
2.88982e-05
3.06064e-05
3.24948e-05
3.45854e-05
3.69003e-05
3.94582e-05
4.22715e-05
4.53414e-05
4.86429e-05
5.21243e-05
5.56996e-05
5.92448e-05
6.26052e-05
6.56064e-05
6.8068e-05
6.98204e-05
7.0731e-05
7.07282e-05
6.98121e-05
6.80548e-05
6.55891e-05
6.25849e-05
5.92226e-05
5.56763e-05
5.2101e-05
4.86203e-05
4.53199e-05
4.22514e-05
3.94396e-05
3.68833e-05
3.45699e-05
3.24806e-05
3.05934e-05
2.88864e-05
2.73393e-05
2.59344e-05
2.4656e-05
2.34906e-05
2.24265e-05
2.14535e-05
2.05625e-05
1.91177e-05
1.78846e-05
1.9083e-05
1.9801e-05
2.0574e-05
2.14065e-05
2.23029e-05
2.3268e-05
2.43067e-05
2.54239e-05
2.66243e-05
2.79124e-05
2.92918e-05
3.07641e-05
3.23287e-05
3.39803e-05
3.57083e-05
3.74921e-05
3.93012e-05
4.10941e-05
4.28184e-05
4.44105e-05
4.58004e-05
4.69186e-05
4.77035e-05
4.81081e-05
4.81068e-05
4.76995e-05
4.6912e-05
4.57916e-05
4.44e-05
4.28065e-05
4.10814e-05
3.9288e-05
3.74787e-05
3.56951e-05
3.39676e-05
3.23165e-05
3.07526e-05
2.92809e-05
2.79022e-05
2.66147e-05
2.54149e-05
2.42982e-05
2.32601e-05
2.22956e-05
2.13998e-05
2.0568e-05
1.97956e-05
1.90784e-05
1.78808e-05
1.68529e-05
1.78637e-05
1.84558e-05
1.90863e-05
1.97571e-05
2.04702e-05
2.12273e-05
2.20297e-05
2.28784e-05
2.37737e-05
2.47151e-05
2.57009e-05
2.67278e-05
2.77904e-05
2.8881e-05
2.99885e-05
3.10978e-05
3.219e-05
3.32419e-05
3.42267e-05
3.51144e-05
3.58737e-05
3.64744e-05
3.68907e-05
3.71036e-05
3.71028e-05
3.68884e-05
3.64706e-05
3.58685e-05
3.51081e-05
3.42193e-05
3.32338e-05
3.21813e-05
3.10888e-05
2.99793e-05
2.8872e-05
2.77817e-05
2.67193e-05
2.56927e-05
2.47073e-05
2.37662e-05
2.28712e-05
2.20228e-05
2.12208e-05
2.04642e-05
1.97517e-05
1.90814e-05
1.84516e-05
1.786e-05
1.68499e-05
1.59772e-05
1.68418e-05
1.73398e-05
1.78652e-05
1.84189e-05
1.90014e-05
1.96131e-05
2.02539e-05
2.09232e-05
2.16198e-05
2.23417e-05
2.30859e-05
2.38484e-05
2.46237e-05
2.54046e-05
2.61821e-05
2.69457e-05
2.76825e-05
2.83785e-05
2.90179e-05
2.95844e-05
3.00617e-05
3.04347e-05
3.06909e-05
3.08211e-05
3.08205e-05
3.06893e-05
3.04321e-05
3.00581e-05
2.95799e-05
2.90127e-05
2.83727e-05
2.76763e-05
2.69391e-05
2.61754e-05
2.53978e-05
2.4617e-05
2.38419e-05
2.30795e-05
2.23354e-05
2.16136e-05
2.09172e-05
2.02482e-05
1.96078e-05
1.89965e-05
1.84145e-05
1.78613e-05
1.73365e-05
1.6839e-05
1.59748e-05
1.52223e-05
1.59707e-05
1.63964e-05
1.6842e-05
1.73079e-05
1.7794e-05
1.83e-05
1.8825e-05
1.93681e-05
1.99274e-05
2.05008e-05
2.10851e-05
2.16767e-05
2.22707e-05
2.28613e-05
2.34417e-05
2.40041e-05
2.45398e-05
2.50393e-05
2.54926e-05
2.58897e-05
2.6221e-05
2.64779e-05
2.66533e-05
2.6742e-05
2.67416e-05
2.6652e-05
2.64758e-05
2.62183e-05
2.58863e-05
2.54886e-05
2.50348e-05
2.4535e-05
2.3999e-05
2.34364e-05
2.28559e-05
2.22653e-05
2.16713e-05
2.10798e-05
2.04955e-05
1.99222e-05
1.93631e-05
1.88203e-05
1.82956e-05
1.77901e-05
1.73045e-05
1.6839e-05
1.63938e-05
1.59685e-05
1.52204e-05
1.4563e-05
1.52175e-05
1.55864e-05
1.597e-05
1.63684e-05
1.67812e-05
1.72076e-05
1.76469e-05
1.80975e-05
1.85578e-05
1.90257e-05
1.94983e-05
1.99723e-05
2.04438e-05
2.09082e-05
2.13603e-05
2.17943e-05
2.22039e-05
2.25824e-05
2.29232e-05
2.32195e-05
2.34651e-05
2.36545e-05
2.37832e-05
2.38482e-05
2.38478e-05
2.37821e-05
2.36527e-05
2.34627e-05
2.32167e-05
2.292e-05
2.25788e-05
2.22e-05
2.17902e-05
2.13561e-05
2.09038e-05
2.04393e-05
1.99677e-05
1.94937e-05
1.90212e-05
1.85534e-05
1.80933e-05
1.7643e-05
1.72041e-05
1.6778e-05
1.63657e-05
1.59677e-05
1.55844e-05
1.52158e-05
1.45614e-05
1.39806e-05
1.4558e-05
1.48815e-05
1.52161e-05
1.55615e-05
1.59171e-05
1.62823e-05
1.6656e-05
1.7037e-05
1.74234e-05
1.78134e-05
1.82046e-05
1.8594e-05
1.89786e-05
1.93546e-05
1.97181e-05
2.00645e-05
2.03893e-05
2.06874e-05
2.09542e-05
2.1185e-05
2.13753e-05
2.15216e-05
2.16207e-05
2.16707e-05
2.16704e-05
2.16198e-05
2.152e-05
2.13733e-05
2.11825e-05
2.09514e-05
2.06844e-05
2.0386e-05
2.00612e-05
1.97146e-05
1.9351e-05
1.89749e-05
1.85902e-05
1.82007e-05
1.78096e-05
1.74197e-05
1.70335e-05
1.66529e-05
1.62795e-05
1.59146e-05
1.55593e-05
1.52143e-05
1.488e-05
1.45567e-05
1.39794e-05
1.34609e-05
1.39743e-05
1.4261e-05
1.45561e-05
1.48591e-05
1.51694e-05
1.54864e-05
1.5809e-05
1.6136e-05
1.64658e-05
1.67967e-05
1.71266e-05
1.74532e-05
1.77737e-05
1.80853e-05
1.83846e-05
1.86684e-05
1.89331e-05
1.91748e-05
1.93901e-05
1.95756e-05
1.9728e-05
1.98448e-05
1.99239e-05
1.99637e-05
1.99634e-05
1.99231e-05
1.98436e-05
1.97263e-05
1.95735e-05
1.93878e-05
1.91723e-05
1.89304e-05
1.86657e-05
1.83818e-05
1.80822e-05
1.77706e-05
1.74499e-05
1.71233e-05
1.67935e-05
1.64627e-05
1.61331e-05
1.58064e-05
1.54842e-05
1.51675e-05
1.48574e-05
1.45547e-05
1.42598e-05
1.39734e-05
1.34601e-05
1.29933e-05
1.34529e-05
1.37092e-05
1.3972e-05
1.42405e-05
1.45144e-05
1.47927e-05
1.50747e-05
1.5359e-05
1.56445e-05
1.59295e-05
1.62122e-05
1.64906e-05
1.67625e-05
1.70255e-05
1.72771e-05
1.75144e-05
1.77348e-05
1.79353e-05
1.81132e-05
1.8266e-05
1.83912e-05
1.8487e-05
1.85517e-05
1.85842e-05
1.8584e-05
1.85511e-05
1.84861e-05
1.83899e-05
1.82643e-05
1.81113e-05
1.79332e-05
1.77325e-05
1.75121e-05
1.72746e-05
1.7023e-05
1.67599e-05
1.64879e-05
1.62095e-05
1.59268e-05
1.5642e-05
1.53568e-05
1.50727e-05
1.4791e-05
1.45129e-05
1.42393e-05
1.39709e-05
1.37084e-05
1.34522e-05
1.29927e-05
1.32142e-05
1.34501e-05
1.36904e-05
1.39343e-05
1.41813e-05
1.44304e-05
1.46806e-05
1.49306e-05
1.51791e-05
1.54247e-05
1.56654e-05
1.58996e-05
1.61251e-05
1.634e-05
1.65419e-05
1.67287e-05
1.68981e-05
1.70481e-05
1.71764e-05
1.72814e-05
1.73616e-05
1.74156e-05
1.74428e-05
1.74427e-05
1.74153e-05
1.73609e-05
1.72804e-05
1.71751e-05
1.70464e-05
1.68964e-05
1.67268e-05
1.65398e-05
1.63378e-05
1.61229e-05
1.58973e-05
1.56631e-05
1.54224e-05
1.5177e-05
1.49286e-05
1.46788e-05
1.44289e-05
1.418e-05
1.39333e-05
1.36895e-05
1.34494e-05
1.32137e-05
1.29826e-05
1.25687e-05
1.298e-05
1.31966e-05
1.34158e-05
1.36369e-05
1.38591e-05
1.40814e-05
1.43028e-05
1.4522e-05
1.47376e-05
1.49484e-05
1.51526e-05
1.53486e-05
1.55347e-05
1.5709e-05
1.58698e-05
1.60152e-05
1.61436e-05
1.62532e-05
1.63428e-05
1.6411e-05
1.64571e-05
1.64802e-05
1.64801e-05
1.64567e-05
1.64104e-05
1.63419e-05
1.62521e-05
1.61422e-05
1.60136e-05
1.58681e-05
1.57072e-05
1.55328e-05
1.53467e-05
1.51507e-05
1.49465e-05
1.47358e-05
1.45203e-05
1.43012e-05
1.40801e-05
1.3858e-05
1.36361e-05
1.34152e-05
1.31961e-05
1.29796e-05
1.27661e-05
1.25562e-05
1.21814e-05
1.29485e-05
1.3148e-05
1.33478e-05
1.35471e-05
1.37449e-05
1.39401e-05
1.41315e-05
1.43179e-05
1.4498e-05
1.46704e-05
1.48335e-05
1.49859e-05
1.51261e-05
1.52526e-05
1.5364e-05
1.5459e-05
1.55365e-05
1.55954e-05
1.56352e-05
1.56551e-05
1.5655e-05
1.56348e-05
1.55949e-05
1.55357e-05
1.5458e-05
1.53627e-05
1.52512e-05
1.51246e-05
1.49844e-05
1.4832e-05
1.46688e-05
1.44965e-05
1.43165e-05
1.41301e-05
1.39388e-05
1.37438e-05
1.35462e-05
1.33471e-05
1.31475e-05
1.29481e-05
1.27497e-05
1.2553e-05
1.23584e-05
1.21666e-05
1.18254e-05
1.27054e-05
1.28865e-05
1.30665e-05
1.32447e-05
1.34201e-05
1.35915e-05
1.3758e-05
1.39184e-05
1.40714e-05
1.42159e-05
1.43506e-05
1.44742e-05
1.45856e-05
1.46833e-05
1.47667e-05
1.48345e-05
1.48861e-05
1.49209e-05
1.49382e-05
1.49381e-05
1.49204e-05
1.48855e-05
1.48338e-05
1.47657e-05
1.46823e-05
1.45843e-05
1.4473e-05
1.43493e-05
1.42146e-05
1.40701e-05
1.39171e-05
1.37568e-05
1.35904e-05
1.34191e-05
1.32439e-05
1.3066e-05
1.28861e-05
1.27051e-05
1.25238e-05
1.23429e-05
1.21631e-05
1.19847e-05
1.18083e-05
1.14963e-05
1.24672e-05
1.26309e-05
1.27926e-05
1.29513e-05
1.31061e-05
1.3256e-05
1.34001e-05
1.35373e-05
1.36664e-05
1.37866e-05
1.38967e-05
1.39956e-05
1.40824e-05
1.41563e-05
1.42164e-05
1.4262e-05
1.42927e-05
1.4308e-05
1.43078e-05
1.42922e-05
1.42614e-05
1.42156e-05
1.41554e-05
1.40815e-05
1.39946e-05
1.38956e-05
1.37856e-05
1.36654e-05
1.35362e-05
1.33991e-05
1.32551e-05
1.31053e-05
1.29507e-05
1.27921e-05
1.26306e-05
1.24669e-05
1.23018e-05
1.21359e-05
1.197e-05
1.18045e-05
1.16401e-05
1.1477e-05
1.11906e-05
1.23811e-05
1.25257e-05
1.26664e-05
1.28023e-05
1.29328e-05
1.30567e-05
1.31732e-05
1.32813e-05
1.33802e-05
1.34688e-05
1.35466e-05
1.36127e-05
1.36664e-05
1.37071e-05
1.37345e-05
1.37482e-05
1.3748e-05
1.37341e-05
1.37066e-05
1.36657e-05
1.36119e-05
1.35459e-05
1.34681e-05
1.33794e-05
1.32805e-05
1.31723e-05
1.30559e-05
1.29321e-05
1.28018e-05
1.26659e-05
1.25253e-05
1.23808e-05
1.22333e-05
1.20833e-05
1.19317e-05
1.17791e-05
1.1626e-05
1.14731e-05
1.13206e-05
1.11692e-05
1.09052e-05
1.21365e-05
1.22653e-05
1.23894e-05
1.25083e-05
1.2621e-05
1.27268e-05
1.28248e-05
1.29143e-05
1.29944e-05
1.30646e-05
1.31242e-05
1.31726e-05
1.32093e-05
1.32339e-05
1.32463e-05
1.32462e-05
1.32337e-05
1.32089e-05
1.31721e-05
1.31237e-05
1.30642e-05
1.2994e-05
1.29138e-05
1.28243e-05
1.27263e-05
1.26205e-05
1.25079e-05
1.23891e-05
1.2265e-05
1.21364e-05
1.20039e-05
1.18683e-05
1.17301e-05
1.15902e-05
1.1449e-05
1.13072e-05
1.11651e-05
1.10232e-05
1.0882e-05
1.06378e-05
1.22233e-05
1.232e-05
1.24094e-05
1.2491e-05
1.2564e-05
1.26278e-05
1.26819e-05
1.27258e-05
1.27591e-05
1.27815e-05
1.27927e-05
1.27926e-05
1.27813e-05
1.27589e-05
1.27256e-05
1.26816e-05
1.26276e-05
1.25637e-05
1.24907e-05
1.24092e-05
1.23197e-05
1.22231e-05
1.212e-05
1.20111e-05
1.18971e-05
1.17787e-05
1.16565e-05
1.15311e-05
1.14033e-05
1.12735e-05
1.11423e-05
1.10102e-05
1.08777e-05
1.07451e-05
1.06128e-05
1.03863e-05
1.21707e-05
1.22291e-05
1.22786e-05
1.23187e-05
1.2349e-05
1.23695e-05
1.23797e-05
1.23797e-05
1.23695e-05
1.2349e-05
1.23186e-05
1.22785e-05
1.22291e-05
1.21706e-05
1.21038e-05
1.2029e-05
1.19469e-05
1.18581e-05
1.17631e-05
1.16627e-05
1.15574e-05
1.14479e-05
1.13346e-05
1.12182e-05
1.10993e-05
1.09784e-05
1.0856e-05
1.07325e-05
1.06084e-05
1.0484e-05
1.03598e-05
1.01491e-05
1.19085e-05
1.19453e-05
1.19732e-05
1.1992e-05
1.20014e-05
1.20014e-05
1.1992e-05
1.19733e-05
1.19454e-05
1.19085e-05
1.1863e-05
1.18093e-05
1.17477e-05
1.16788e-05
1.1603e-05
1.15209e-05
1.14331e-05
1.134e-05
1.12423e-05
1.11404e-05
1.1035e-05
1.09264e-05
1.08154e-05
1.07024e-05
1.05877e-05
1.04719e-05
1.03553e-05
1.02382e-05
1.01212e-05
9.92463e-06
1.16527e-05
1.16528e-05
1.16441e-05
1.16268e-05
1.16011e-05
1.1567e-05
1.1525e-05
1.14753e-05
1.14183e-05
1.13544e-05
1.12841e-05
1.1208e-05
1.11263e-05
1.10396e-05
1.09485e-05
1.08534e-05
1.07548e-05
1.06533e-05
1.05493e-05
1.04432e-05
1.03355e-05
1.02264e-05
1.01165e-05
1.00061e-05
9.89554e-06
9.71175e-06
1.12502e-05
1.12112e-05
1.1165e-05
1.1112e-05
1.10526e-05
1.09872e-05
1.09162e-05
1.08399e-05
1.07589e-05
1.06736e-05
1.05845e-05
1.04921e-05
1.03967e-05
1.02989e-05
1.0199e-05
1.00975e-05
9.99462e-06
9.89078e-06
9.78633e-06
9.68163e-06
9.50941e-06
1.08261e-05
1.07706e-05
1.07094e-05
1.06429e-05
1.05715e-05
1.04955e-05
1.04154e-05
1.03317e-05
1.02448e-05
1.01549e-05
1.00627e-05
9.96843e-06
9.87244e-06
9.77511e-06
9.67677e-06
9.57777e-06
9.47842e-06
9.31667e-06
1.04486e-05
1.03862e-05
1.0319e-05
1.02476e-05
1.01722e-05
1.00933e-05
1.00112e-05
9.92642e-06
9.83924e-06
9.75e-06
9.65906e-06
9.56678e-06
9.47345e-06
9.37944e-06
9.28495e-06
9.13274e-06
1.0203e-05
1.01442e-05
1.00809e-05
1.00135e-05
9.94233e-06
9.86777e-06
9.79018e-06
9.7099e-06
9.62727e-06
9.54261e-06
9.4563e-06
9.36862e-06
9.27989e-06
9.1904e-06
9.10039e-06
8.9569e-06
9.97101e-06
9.91545e-06
9.85567e-06
9.79194e-06
9.7246e-06
9.65399e-06
9.58043e-06
9.50428e-06
9.42578e-06
9.34532e-06
9.26323e-06
9.17977e-06
9.09523e-06
9.00989e-06
8.92399e-06
8.78846e-06
9.58171e-06
9.51786e-06
9.45084e-06
9.38097e-06
9.30856e-06
9.23386e-06
9.15727e-06
9.07904e-06
8.99943e-06
8.91873e-06
8.8372e-06
8.75507e-06
8.62685e-06
9.05069e-06
8.97764e-06
8.90294e-06
8.82688e-06
8.74971e-06
8.67171e-06
8.59307e-06
8.47155e-06
8.6615e-06
8.5876e-06
8.51285e-06
8.43744e-06
8.32211e-06
0.001
0.001
0.001
0.001
0.001
0.001
0.001
0.001
0.001
0.001
0.001
0.001
0.001
0.001
0.001
0.001
0.001
0.001
0.001
0.001
0.001
0.001
0.001
0.001
0.000905442
0.0006474
0.000441421
0.000288937
0.001
0.001
0.001
0.001
0.001
0.001
0.001
0.001
0.001
0.001
0.001
0.001
0.001
0.001
0.001
0.001
0.001
0.001
0.001
0.001
0.001
0.001
0.000891501
0.000667904
0.000468623
0.000322136
0.000225583
0.000146371
0.001
0.001
0.001
0.001
0.001
0.001
0.001
0.001
0.001
0.001
0.001
0.001
0.001
0.001
0.001
0.001
0.001
0.001
0.001
0.001
0.000903039
0.000689397
0.000491796
0.000339739
0.000235472
0.000167653
0.000123434
8.52053e-05
0.001
0.001
0.001
0.001
0.001
0.001
0.001
0.001
0.001
0.001
0.001
0.001
0.001
0.001
0.001
0.001
0.001
0.001
0.000872575
0.000673775
0.000488336
0.000342066
0.000239175
0.000170698
0.000125744
9.59355e-05
7.56155e-05
5.66921e-05
0.001
0.001
0.001
0.001
0.001
0.001
0.001
0.001
0.001
0.001
0.001
0.001
0.001
0.001
0.001
0.000958245
0.000792896
0.000615411
0.000453076
0.000323922
0.000230802
0.000167214
0.000124536
9.58152e-05
7.6143e-05
6.232e-05
5.23258e-05
4.20127e-05
0.001
0.001
0.001
0.001
0.001
0.001
0.001
0.001
0.001
0.001
0.001
0.001
0.000937156
0.000805683
0.000660437
0.000515961
0.000387487
0.000285034
0.000209317
0.000155748
0.000118544
9.27785e-05
7.47308e-05
6.18522e-05
5.2441e-05
4.53852e-05
3.99655e-05
3.37127e-05
0.001
0.001
0.001
0.001
0.001
0.001
0.001
0.000950391
0.000880776
0.000796761
0.000701272
0.000597473
0.000490719
0.000389901
0.000302452
0.000231583
0.000177367
0.000137112
0.000107819
8.66396e-05
7.12527e-05
5.99469e-05
5.14921e-05
4.50366e-05
3.99994e-05
3.59856e-05
3.2727e-05
2.85605e-05
0.000579075
0.00060363
0.000615961
0.00061604
0.000603859
0.000579454
0.000542889
0.000494882
0.000439196
0.0003799
0.000320815
0.000265289
0.000216139
0.000174706
0.000140957
0.000114299
9.37021e-05
7.79351e-05
6.59006e-05
5.66733e-05
4.95243e-05
4.39058e-05
3.94167e-05
3.57662e-05
3.27483e-05
3.02171e-05
2.80684e-05
2.50793e-05
0.000251915
0.000264405
0.000270911
0.00027094
0.000264489
0.000252047
0.000234613
0.000213802
0.000191039
0.000167802
0.000145396
0.000124827
0.000106721
9.12821e-05
7.83989e-05
6.78364e-05
5.92598e-05
5.23149e-05
4.66764e-05
4.20658e-05
3.82591e-05
3.50765e-05
3.23833e-05
3.00781e-05
2.80854e-05
2.63485e-05
2.48242e-05
2.25601e-05
0.000118184
0.000122735
0.000125119
0.000125127
0.000122757
0.000118218
0.000111907
0.000104349
9.60529e-05
8.75017e-05
7.91213e-05
7.1244e-05
6.40759e-05
5.77073e-05
5.2144e-05
4.73377e-05
4.32067e-05
3.96602e-05
3.66054e-05
3.39597e-05
3.16537e-05
2.96298e-05
2.7842e-05
2.6254e-05
2.48367e-05
2.35665e-05
2.24242e-05
2.06408e-05
6.79874e-05
6.97391e-05
7.06517e-05
7.06537e-05
6.97451e-05
6.79971e-05
6.55419e-05
6.25483e-05
5.9196e-05
5.56585e-05
5.20904e-05
4.86152e-05
4.5319e-05
4.22535e-05
3.94438e-05
3.68889e-05
3.45764e-05
3.24877e-05
3.06007e-05
2.88937e-05
2.73466e-05
2.59415e-05
2.46628e-05
2.3497e-05
2.24326e-05
2.14591e-05
2.05677e-05
1.91216e-05
4.6883e-05
4.76682e-05
4.80737e-05
4.80744e-05
4.76701e-05
4.68864e-05
4.57703e-05
4.43832e-05
4.27942e-05
4.1073e-05
3.92831e-05
3.74766e-05
3.56952e-05
3.39694e-05
3.23196e-05
3.07567e-05
2.92856e-05
2.79074e-05
2.66202e-05
2.54204e-05
2.43038e-05
2.32655e-05
2.23008e-05
2.14048e-05
2.05727e-05
1.98001e-05
1.90825e-05
1.78838e-05
3.64561e-05
3.68728e-05
3.70863e-05
3.70866e-05
3.68736e-05
3.64576e-05
3.58576e-05
3.50994e-05
3.4213e-05
3.32296e-05
3.21791e-05
3.10881e-05
2.998e-05
2.88738e-05
2.77843e-05
2.67226e-05
2.56965e-05
2.47114e-05
2.37705e-05
2.28756e-05
2.20272e-05
2.12251e-05
2.04684e-05
1.97557e-05
1.90852e-05
1.84551e-05
1.78633e-05
1.68523e-05
3.04247e-05
3.06812e-05
3.08118e-05
3.08119e-05
3.06815e-05
3.04254e-05
3.00525e-05
2.95756e-05
2.90096e-05
2.83708e-05
2.76755e-05
2.69393e-05
2.61765e-05
2.53996e-05
2.46194e-05
2.38447e-05
2.30826e-05
2.23387e-05
2.16171e-05
2.09208e-05
2.02517e-05
1.96112e-05
1.89999e-05
1.84177e-05
1.78643e-05
1.73393e-05
1.68416e-05
1.59767e-05
2.54875e-05
2.50344e-05
2.45352e-05
2.39999e-05
2.34379e-05
2.28579e-05
2.22676e-05
2.1674e-05
2.10826e-05
2.04984e-05
1.99252e-05
1.9366e-05
1.88232e-05
1.82984e-05
1.77928e-05
1.7307e-05
1.68414e-05
1.6396e-05
1.59706e-05
1.52218e-05
1.8556e-05
1.80958e-05
1.76454e-05
1.72064e-05
1.67802e-05
1.63678e-05
1.59696e-05
1.55861e-05
1.52174e-05
1.45626e-05
1.59164e-05
1.5561e-05
1.52158e-05
1.48813e-05
1.45579e-05
1.39802e-05
1.42609e-05
1.39743e-05
1.34607e-05
7.96539e-06
7.83081e-06
7.70064e-06
1.15216e-05
1.12087e-05
1.09169e-05
1.06436e-05
1.03868e-05
1.01448e-05
9.91614e-06
9.69943e-06
9.49357e-06
9.29761e-06
9.11073e-06
8.93219e-06
8.76127e-06
8.59736e-06
8.43991e-06
8.28846e-06
8.14257e-06
8.00184e-06
7.86594e-06
7.73453e-06
1.27266e-05
1.23203e-05
1.19476e-05
1.16038e-05
1.1285e-05
1.0988e-05
1.07102e-05
1.04494e-05
1.02038e-05
9.97177e-06
9.75209e-06
9.54353e-06
9.34512e-06
9.156e-06
8.97538e-06
8.80256e-06
8.6369e-06
8.47783e-06
8.32487e-06
8.17758e-06
8.03554e-06
7.89841e-06
7.76586e-06
1.28245e-05
1.24097e-05
1.20297e-05
1.16796e-05
1.13553e-05
1.10535e-05
1.07715e-05
1.05069e-05
1.02579e-05
1.00228e-05
9.80041e-06
9.58937e-06
9.38869e-06
9.19747e-06
9.01493e-06
8.84034e-06
8.67305e-06
8.51249e-06
8.35814e-06
8.20953e-06
8.06629e-06
7.92805e-06
7.79448e-06
1.2914e-05
1.24912e-05
1.21045e-05
1.17485e-05
1.14192e-05
1.11129e-05
1.0827e-05
1.0559e-05
1.03069e-05
1.00691e-05
9.84415e-06
9.63081e-06
9.42805e-06
9.23492e-06
9.05063e-06
8.87442e-06
8.70565e-06
8.54373e-06
8.38811e-06
8.23833e-06
8.09399e-06
7.95474e-06
7.82021e-06
1.29942e-05
1.25642e-05
1.21713e-05
1.18101e-05
1.14762e-05
1.1166e-05
1.08765e-05
1.06054e-05
1.03505e-05
1.01102e-05
9.88295e-06
9.66759e-06
9.46299e-06
9.26819e-06
9.08234e-06
8.90469e-06
8.73457e-06
8.57139e-06
8.41464e-06
8.26383e-06
8.11853e-06
7.97837e-06
7.843e-06
0.001
0.000879689
0.000438737
0.000190909
9.60134e-05
5.918e-05
4.27851e-05
3.42063e-05
2.90037e-05
2.5482e-05
2.29149e-05
2.09476e-05
1.93849e-05
1.81092e-05
1.70449e-05
1.61411e-05
1.53621e-05
1.4682e-05
1.40814e-05
1.3546e-05
1.30645e-05
1.2628e-05
1.22297e-05
1.18638e-05
1.15259e-05
1.12122e-05
1.09196e-05
1.06457e-05
1.03884e-05
1.01459e-05
9.91664e-06
9.69949e-06
9.49328e-06
9.29701e-06
9.1098e-06
8.93091e-06
8.75964e-06
8.5954e-06
8.43767e-06
8.28596e-06
8.13982e-06
7.99886e-06
7.86273e-06
0.001
0.000950366
0.000494716
0.00021372
0.000104318
6.25342e-05
4.43749e-05
3.50932e-05
2.95698e-05
2.5879e-05
2.32111e-05
2.11784e-05
1.95705e-05
1.82621e-05
1.71734e-05
1.6251e-05
1.54573e-05
1.47654e-05
1.41553e-05
1.36121e-05
1.3124e-05
1.26821e-05
1.22791e-05
1.19093e-05
1.15679e-05
1.12512e-05
1.0956e-05
1.06798e-05
1.04204e-05
1.0176e-05
9.94506e-06
9.72637e-06
9.51875e-06
9.32122e-06
9.13289e-06
8.95296e-06
8.78074e-06
8.61562e-06
8.45705e-06
8.30456e-06
8.1577e-06
8.01608e-06
7.87931e-06
0.001
0.001
0.000543035
0.000234599
0.000111888
6.55299e-05
4.57625e-05
3.58515e-05
3.00468e-05
2.62102e-05
2.34568e-05
2.13689e-05
1.97231e-05
1.83875e-05
1.72787e-05
1.63407e-05
1.55349e-05
1.48334e-05
1.42155e-05
1.36658e-05
1.31724e-05
1.2726e-05
1.23192e-05
1.19461e-05
1.16019e-05
1.12827e-05
1.09854e-05
1.07073e-05
1.04462e-05
1.02003e-05
9.96807e-06
9.74813e-06
9.53936e-06
9.34077e-06
9.15148e-06
8.97068e-06
8.79768e-06
8.63185e-06
8.47263e-06
8.31953e-06
8.1721e-06
8.02993e-06
7.89267e-06
0.001
0.001
0.001
0.001
0.001
0.001
0.001
0.000579766
0.000252088
0.00011821
6.79874e-05
4.6879e-05
3.64515e-05
3.04196e-05
2.64671e-05
2.36463e-05
2.15154e-05
1.98402e-05
1.84836e-05
1.73591e-05
1.64092e-05
1.55941e-05
1.48851e-05
1.42612e-05
1.37066e-05
1.32091e-05
1.27593e-05
1.23496e-05
1.1974e-05
1.16277e-05
1.13066e-05
1.10077e-05
1.07281e-05
1.04657e-05
1.02187e-05
9.98544e-06
9.76458e-06
9.55495e-06
9.35558e-06
9.16556e-06
8.98408e-06
8.81046e-06
8.64407e-06
8.48434e-06
8.33077e-06
8.18291e-06
8.04035e-06
7.90272e-06
0.001
0.001
0.001
0.001
0.001
0.001
0.001
0.000604208
0.000264562
0.000122757
6.97372e-05
4.7663e-05
3.68676e-05
3.06758e-05
2.66426e-05
2.37753e-05
2.16148e-05
1.99195e-05
1.85486e-05
1.74134e-05
1.64554e-05
1.56339e-05
1.49199e-05
1.4292e-05
1.3734e-05
1.32338e-05
1.27817e-05
1.237e-05
1.19928e-05
1.1645e-05
1.13227e-05
1.10226e-05
1.0742e-05
1.04788e-05
1.0231e-05
9.99706e-06
9.77559e-06
9.5654e-06
9.36548e-06
9.17497e-06
8.99305e-06
8.81902e-06
8.65225e-06
8.49218e-06
8.3383e-06
8.19016e-06
8.04733e-06
7.90945e-06
0.001
0.001
0.001
0.001
0.001
0.001
0.001
0.000616384
0.000271028
0.000125132
7.06471e-05
4.80675e-05
3.70805e-05
3.08062e-05
2.67317e-05
2.38407e-05
2.16651e-05
1.99596e-05
1.85814e-05
1.74408e-05
1.64787e-05
1.5654e-05
1.49375e-05
1.43075e-05
1.37479e-05
1.32463e-05
1.27929e-05
1.23803e-05
1.20022e-05
1.16536e-05
1.13307e-05
1.103e-05
1.0749e-05
1.04854e-05
1.02372e-05
1.00029e-05
9.78106e-06
9.57058e-06
9.37042e-06
9.17969e-06
8.99756e-06
8.82333e-06
8.65636e-06
8.49611e-06
8.34207e-06
8.19377e-06
8.05081e-06
7.91281e-06
0.001
0.001
0.001
0.001
0.001
0.001
0.001
0.000616299
0.000271004
0.000125127
7.06454e-05
4.80668e-05
3.70802e-05
3.08061e-05
2.67317e-05
2.38407e-05
2.16652e-05
1.99597e-05
1.85814e-05
1.74409e-05
1.64788e-05
1.56541e-05
1.49376e-05
1.43076e-05
1.3748e-05
1.32463e-05
1.2793e-05
1.23802e-05
1.20021e-05
1.16535e-05
1.13306e-05
1.103e-05
1.0749e-05
1.04854e-05
1.02372e-05
1.00028e-05
9.78101e-06
9.57053e-06
9.37039e-06
9.17966e-06
8.99755e-06
8.82332e-06
8.65636e-06
8.49612e-06
8.34208e-06
8.19378e-06
8.05081e-06
7.91281e-06
0.001
0.001
0.001
0.001
0.001
0.001
0.001
0.000603969
0.000264498
0.000122742
6.97324e-05
4.7661e-05
3.68666e-05
3.06754e-05
2.66426e-05
2.37755e-05
2.16151e-05
1.99198e-05
1.85488e-05
1.74136e-05
1.64556e-05
1.56342e-05
1.49202e-05
1.42922e-05
1.37342e-05
1.32339e-05
1.27817e-05
1.23699e-05
1.19926e-05
1.16448e-05
1.13225e-05
1.10225e-05
1.0742e-05
1.04788e-05
1.0231e-05
9.99696e-06
9.77544e-06
9.56526e-06
9.36538e-06
9.1749e-06
8.99301e-06
8.819e-06
8.65223e-06
8.49215e-06
8.33827e-06
8.19013e-06
8.04731e-06
7.90944e-06
0.001
0.001
0.001
0.001
0.001
0.001
0.001
0.000579437
0.000252006
0.00011819
6.79804e-05
4.68758e-05
3.645e-05
3.0419e-05
2.6467e-05
2.36466e-05
2.15159e-05
1.98408e-05
1.8484e-05
1.73594e-05
1.64095e-05
1.55944e-05
1.48854e-05
1.42615e-05
1.37068e-05
1.32092e-05
1.27593e-05
1.23495e-05
1.19739e-05
1.16275e-05
1.13065e-05
1.10075e-05
1.0728e-05
1.04656e-05
1.02186e-05
9.9853e-06
9.7644e-06
9.55479e-06
9.35542e-06
9.1654e-06
8.98395e-06
8.81034e-06
8.64395e-06
8.48424e-06
8.33071e-06
8.18287e-06
8.04033e-06
7.9027e-06
0.001
0.001
0.001
0.001
0.001
0.001
0.001
0.000542768
0.000234534
0.000111868
6.55216e-05
4.57584e-05
3.58494e-05
3.00459e-05
2.62101e-05
2.34572e-05
2.13696e-05
1.97239e-05
1.83882e-05
1.72793e-05
1.63412e-05
1.55353e-05
1.48337e-05
1.42157e-05
1.3666e-05
1.31725e-05
1.2726e-05
1.23192e-05
1.1946e-05
1.16018e-05
1.12826e-05
1.09852e-05
1.07071e-05
1.0446e-05
1.02001e-05
9.96788e-06
9.74793e-06
9.53917e-06
9.34058e-06
9.15127e-06
8.97047e-06
8.79748e-06
8.63165e-06
8.47245e-06
8.31937e-06
8.17197e-06
8.02984e-06
7.8926e-06
0.001
0.001
0.001
0.001
0.001
0.001
0.000950206
0.000494679
0.000213696
0.000104302
6.25253e-05
4.43701e-05
3.50907e-05
2.95689e-05
2.58789e-05
2.32117e-05
2.11792e-05
1.95713e-05
1.82629e-05
1.71742e-05
1.62516e-05
1.54578e-05
1.47658e-05
1.41556e-05
1.36123e-05
1.31242e-05
1.26822e-05
1.22791e-05
1.19092e-05
1.15677e-05
1.1251e-05
1.09557e-05
1.06795e-05
1.04201e-05
1.01757e-05
9.94485e-06
9.72615e-06
9.5185e-06
9.32093e-06
9.13255e-06
8.9526e-06
8.78041e-06
8.61534e-06
8.45682e-06
8.30437e-06
8.15752e-06
8.01592e-06
7.8792e-06
0.001
0.001
0.001
0.001
0.001
0.001
0.000880473
0.000438936
0.000190919
9.60016e-05
5.91713e-05
4.27802e-05
3.42039e-05
2.90028e-05
2.5482e-05
2.29155e-05
2.09485e-05
1.93858e-05
1.811e-05
1.70457e-05
1.61418e-05
1.53627e-05
1.46824e-05
1.40818e-05
1.35463e-05
1.30647e-05
1.26282e-05
1.22297e-05
1.18637e-05
1.15257e-05
1.1212e-05
1.09194e-05
1.06454e-05
1.03881e-05
1.01456e-05
9.91634e-06
9.69915e-06
9.49287e-06
9.29656e-06
9.10936e-06
8.9305e-06
8.75929e-06
8.5951e-06
8.4374e-06
8.28571e-06
8.1396e-06
7.99869e-06
7.8626e-06
0.001
0.001
0.001
0.001
0.001
0.001
0.000796364
0.000379612
0.000167677
8.7449e-05
5.56331e-05
4.10586e-05
3.32202e-05
2.8364e-05
2.50291e-05
2.25749e-05
2.06817e-05
1.91704e-05
1.7932e-05
1.68957e-05
1.60134e-05
1.52513e-05
1.45846e-05
1.39951e-05
1.34687e-05
1.29946e-05
1.25644e-05
1.21714e-05
1.181e-05
1.1476e-05
1.11657e-05
1.08762e-05
1.0605e-05
1.03501e-05
1.01098e-05
9.88253e-06
9.66713e-06
9.46249e-06
9.26768e-06
9.08185e-06
8.90425e-06
8.73419e-06
8.57108e-06
8.41435e-06
8.26356e-06
8.11829e-06
7.97816e-06
7.84281e-06
0.001
0.001
0.001
0.001
0.001
0.001
0.000700804
0.000320525
0.000145276
7.90703e-05
5.20654e-05
3.92687e-05