/*--------------------------------*- C++ -*----------------------------------*\
  =========                 |
  \\      /  F ield         | OpenFOAM: The Open Source CFD Toolbox
   \\    /   O peration     | Website:  https://openfoam.org
    \\  /    A nd           | Version:  7
     \\/     M anipulation  |
\*---------------------------------------------------------------------------*/
FoamFile
{
    version     2.0;
    format      ascii;
    class       volScalarField;
    location    "80000";
    object      nut;
}
// * * * * * * * * * * * * * * * * * * * * * * * * * * * * * * * * * * * * * //

dimensions      [0 2 -1 0 0 0 0];

internalField   nonuniform List<scalar> 
4838
(
1.72464e-05
1.7226e-05
1.72123e-05
1.72029e-05
1.71959e-05
1.71902e-05
1.71849e-05
1.718e-05
1.71754e-05
1.71711e-05
1.7167e-05
1.71632e-05
1.71597e-05
1.71565e-05
1.71535e-05
1.71508e-05
1.71484e-05
1.71463e-05
1.71444e-05
1.71428e-05
1.71414e-05
1.71403e-05
1.71395e-05
1.7139e-05
1.71387e-05
1.71387e-05
1.71389e-05
1.71394e-05
1.71402e-05
1.71412e-05
1.71425e-05
1.71441e-05
1.7146e-05
1.71481e-05
1.71505e-05
1.71531e-05
1.7156e-05
1.71592e-05
1.71627e-05
1.71665e-05
1.71705e-05
1.71748e-05
1.71794e-05
1.71842e-05
1.71894e-05
1.71952e-05
1.72022e-05
1.72115e-05
1.72252e-05
1.72456e-05
1.72928e-05
1.72621e-05
1.7239e-05
1.72227e-05
1.72115e-05
1.72036e-05
1.71974e-05
1.71922e-05
1.71874e-05
1.7183e-05
1.71789e-05
1.71751e-05
1.71715e-05
1.71683e-05
1.71653e-05
1.71625e-05
1.71601e-05
1.71579e-05
1.7156e-05
1.71543e-05
1.7153e-05
1.71519e-05
1.7151e-05
1.71505e-05
1.71502e-05
1.71502e-05
1.71504e-05
1.71509e-05
1.71517e-05
1.71528e-05
1.71541e-05
1.71557e-05
1.71576e-05
1.71597e-05
1.71621e-05
1.71648e-05
1.71678e-05
1.71711e-05
1.71746e-05
1.71784e-05
1.71824e-05
1.71868e-05
1.71915e-05
1.71967e-05
1.72029e-05
1.72108e-05
1.72219e-05
1.72383e-05
1.72614e-05
1.72922e-05
1.73729e-05
1.73245e-05
1.72865e-05
1.72577e-05
1.7237e-05
1.72227e-05
1.72128e-05
1.72056e-05
1.72e-05
1.71954e-05
1.71912e-05
1.71873e-05
1.71837e-05
1.71803e-05
1.71773e-05
1.71745e-05
1.7172e-05
1.71698e-05
1.71678e-05
1.71662e-05
1.71648e-05
1.71637e-05
1.71628e-05
1.71623e-05
1.7162e-05
1.71619e-05
1.71622e-05
1.71627e-05
1.71635e-05
1.71646e-05
1.7166e-05
1.71676e-05
1.71695e-05
1.71717e-05
1.71741e-05
1.71768e-05
1.71799e-05
1.71832e-05
1.71867e-05
1.71906e-05
1.71948e-05
1.71994e-05
1.7205e-05
1.72121e-05
1.7222e-05
1.72364e-05
1.72571e-05
1.72859e-05
1.7324e-05
1.73725e-05
1.74915e-05
1.74231e-05
1.73661e-05
1.73197e-05
1.72836e-05
1.72568e-05
1.72378e-05
1.72246e-05
1.72156e-05
1.7209e-05
1.72039e-05
1.71997e-05
1.7196e-05
1.71926e-05
1.71895e-05
1.71867e-05
1.71842e-05
1.71819e-05
1.718e-05
1.71783e-05
1.71769e-05
1.71757e-05
1.71749e-05
1.71743e-05
1.7174e-05
1.7174e-05
1.71742e-05
1.71748e-05
1.71756e-05
1.71767e-05
1.7178e-05
1.71797e-05
1.71816e-05
1.71838e-05
1.71863e-05
1.71891e-05
1.71922e-05
1.71955e-05
1.71992e-05
1.72034e-05
1.72084e-05
1.72149e-05
1.7224e-05
1.72371e-05
1.72562e-05
1.7283e-05
1.73192e-05
1.73657e-05
1.74228e-05
1.74913e-05
1.76448e-05
1.75595e-05
1.74841e-05
1.74187e-05
1.73636e-05
1.73191e-05
1.72847e-05
1.72593e-05
1.72413e-05
1.72288e-05
1.72201e-05
1.72139e-05
1.72092e-05
1.72053e-05
1.7202e-05
1.71992e-05
1.71966e-05
1.71943e-05
1.71923e-05
1.71905e-05
1.71891e-05
1.7188e-05
1.71871e-05
1.71865e-05
1.71862e-05
1.71862e-05
1.71865e-05
1.7187e-05
1.71878e-05
1.71889e-05
1.71903e-05
1.7192e-05
1.71939e-05
1.71962e-05
1.71987e-05
1.72015e-05
1.72048e-05
1.72086e-05
1.72134e-05
1.72195e-05
1.72282e-05
1.72407e-05
1.72587e-05
1.72842e-05
1.73186e-05
1.73632e-05
1.74183e-05
1.74838e-05
1.75594e-05
1.76448e-05
1.78235e-05
1.77266e-05
1.76373e-05
1.7556e-05
1.74834e-05
1.74202e-05
1.73672e-05
1.73242e-05
1.72909e-05
1.72661e-05
1.72483e-05
1.72357e-05
1.72269e-05
1.72207e-05
1.7216e-05
1.72123e-05
1.72093e-05
1.72068e-05
1.72047e-05
1.7203e-05
1.72016e-05
1.72005e-05
1.71996e-05
1.71989e-05
1.71986e-05
1.71986e-05
1.71989e-05
1.71994e-05
1.72003e-05
1.72014e-05
1.72027e-05
1.72044e-05
1.72065e-05
1.72089e-05
1.72119e-05
1.72156e-05
1.72202e-05
1.72264e-05
1.72352e-05
1.72477e-05
1.72656e-05
1.72904e-05
1.73237e-05
1.73667e-05
1.74199e-05
1.74831e-05
1.75558e-05
1.76372e-05
1.77266e-05
1.78238e-05
1.80174e-05
1.7914e-05
1.78162e-05
1.77242e-05
1.76387e-05
1.75607e-05
1.74908e-05
1.743e-05
1.73786e-05
1.73367e-05
1.73037e-05
1.72786e-05
1.72601e-05
1.72468e-05
1.72373e-05
1.72303e-05
1.72253e-05
1.72216e-05
1.72187e-05
1.72164e-05
1.72146e-05
1.72132e-05
1.72122e-05
1.72115e-05
1.72111e-05
1.72111e-05
1.72114e-05
1.7212e-05
1.7213e-05
1.72144e-05
1.72161e-05
1.72184e-05
1.72213e-05
1.7225e-05
1.72299e-05
1.72369e-05
1.72464e-05
1.72597e-05
1.72782e-05
1.73032e-05
1.73363e-05
1.73782e-05
1.74297e-05
1.74905e-05
1.75604e-05
1.76386e-05
1.77241e-05
1.78163e-05
1.79143e-05
1.80179e-05
1.82178e-05
1.81121e-05
1.80103e-05
1.79125e-05
1.78194e-05
1.77318e-05
1.76502e-05
1.75758e-05
1.7509e-05
1.74505e-05
1.74006e-05
1.73592e-05
1.73259e-05
1.72999e-05
1.728e-05
1.72651e-05
1.72541e-05
1.72461e-05
1.724e-05
1.72355e-05
1.72321e-05
1.72297e-05
1.72282e-05
1.72272e-05
1.72267e-05
1.72267e-05
1.72271e-05
1.72281e-05
1.72296e-05
1.72319e-05
1.72353e-05
1.72398e-05
1.72458e-05
1.72538e-05
1.72648e-05
1.72796e-05
1.72995e-05
1.73255e-05
1.73588e-05
1.74002e-05
1.74501e-05
1.75087e-05
1.75755e-05
1.765e-05
1.77316e-05
1.78195e-05
1.79127e-05
1.80107e-05
1.81126e-05
1.82185e-05
1.84182e-05
1.83136e-05
1.82111e-05
1.81114e-05
1.80149e-05
1.79222e-05
1.78342e-05
1.77513e-05
1.76743e-05
1.76039e-05
1.75405e-05
1.74847e-05
1.74364e-05
1.73956e-05
1.7362e-05
1.73348e-05
1.73133e-05
1.72966e-05
1.72837e-05
1.72739e-05
1.72666e-05
1.72614e-05
1.72578e-05
1.72556e-05
1.72545e-05
1.72545e-05
1.72555e-05
1.72577e-05
1.72612e-05
1.72664e-05
1.72737e-05
1.72835e-05
1.72963e-05
1.7313e-05
1.73345e-05
1.73617e-05
1.73953e-05
1.74361e-05
1.74844e-05
1.75402e-05
1.76036e-05
1.76741e-05
1.7751e-05
1.7834e-05
1.79224e-05
1.80152e-05
1.81117e-05
1.82117e-05
1.83141e-05
1.84192e-05
1.86142e-05
1.85127e-05
1.84124e-05
1.83134e-05
1.82166e-05
1.81226e-05
1.80319e-05
1.7945e-05
1.78625e-05
1.77852e-05
1.77135e-05
1.76479e-05
1.75887e-05
1.75362e-05
1.74904e-05
1.74512e-05
1.74181e-05
1.73908e-05
1.73686e-05
1.73509e-05
1.73372e-05
1.73269e-05
1.73196e-05
1.7315e-05
1.73127e-05
1.73127e-05
1.73149e-05
1.73195e-05
1.73268e-05
1.7337e-05
1.73507e-05
1.73684e-05
1.73906e-05
1.74179e-05
1.74509e-05
1.74902e-05
1.7536e-05
1.75885e-05
1.76476e-05
1.77131e-05
1.77849e-05
1.78622e-05
1.79447e-05
1.80318e-05
1.81228e-05
1.8217e-05
1.83139e-05
1.8413e-05
1.85136e-05
1.86157e-05
1.8803e-05
1.87061e-05
1.86094e-05
1.85135e-05
1.84185e-05
1.83256e-05
1.82349e-05
1.81472e-05
1.80628e-05
1.79823e-05
1.79066e-05
1.78357e-05
1.77703e-05
1.77106e-05
1.76569e-05
1.76091e-05
1.75674e-05
1.75315e-05
1.75012e-05
1.74761e-05
1.7456e-05
1.74403e-05
1.7429e-05
1.74216e-05
1.74179e-05
1.74179e-05
1.74215e-05
1.74289e-05
1.74402e-05
1.74558e-05
1.7476e-05
1.7501e-05
1.75313e-05
1.75672e-05
1.7609e-05
1.76566e-05
1.77104e-05
1.77701e-05
1.78354e-05
1.79062e-05
1.79822e-05
1.80627e-05
1.81471e-05
1.82351e-05
1.8326e-05
1.84192e-05
1.8514e-05
1.86103e-05
1.87074e-05
1.8805e-05
1.89828e-05
1.88911e-05
1.87993e-05
1.87075e-05
1.86161e-05
1.8526e-05
1.84374e-05
1.83509e-05
1.82672e-05
1.81863e-05
1.81094e-05
1.80366e-05
1.79684e-05
1.79051e-05
1.78473e-05
1.77949e-05
1.7748e-05
1.7707e-05
1.76715e-05
1.76415e-05
1.76169e-05
1.75974e-05
1.7583e-05
1.75735e-05
1.75688e-05
1.75687e-05
1.75734e-05
1.75829e-05
1.75973e-05
1.76168e-05
1.76414e-05
1.76713e-05
1.77068e-05
1.77479e-05
1.77947e-05
1.78471e-05
1.7905e-05
1.79682e-05
1.80363e-05
1.81091e-05
1.81862e-05
1.82671e-05
1.83509e-05
1.84377e-05
1.85266e-05
1.86169e-05
1.87083e-05
1.88005e-05
1.88929e-05
1.89853e-05
1.91525e-05
1.90662e-05
1.89796e-05
1.88929e-05
1.88062e-05
1.872e-05
1.86349e-05
1.85514e-05
1.847e-05
1.83907e-05
1.83146e-05
1.8242e-05
1.81734e-05
1.81092e-05
1.80498e-05
1.79954e-05
1.79463e-05
1.79029e-05
1.78647e-05
1.78323e-05
1.78051e-05
1.77835e-05
1.77674e-05
1.77568e-05
1.77514e-05
1.77512e-05
1.77566e-05
1.77673e-05
1.77834e-05
1.78051e-05
1.78322e-05
1.78647e-05
1.79028e-05
1.79464e-05
1.79954e-05
1.80499e-05
1.81092e-05
1.81735e-05
1.82419e-05
1.83145e-05
1.83906e-05
1.84699e-05
1.85516e-05
1.86354e-05
1.87209e-05
1.88074e-05
1.88943e-05
1.89817e-05
1.90689e-05
1.91554e-05
1.93113e-05
1.92308e-05
1.91499e-05
1.90685e-05
1.89869e-05
1.89054e-05
1.88248e-05
1.87452e-05
1.86673e-05
1.8591e-05
1.85172e-05
1.84462e-05
1.83791e-05
1.83155e-05
1.82564e-05
1.82017e-05
1.81522e-05
1.8108e-05
1.80691e-05
1.80358e-05
1.80077e-05
1.79851e-05
1.79684e-05
1.79572e-05
1.79515e-05
1.79514e-05
1.79568e-05
1.7968e-05
1.79851e-05
1.80075e-05
1.80356e-05
1.8069e-05
1.81081e-05
1.81524e-05
1.8202e-05
1.82564e-05
1.83157e-05
1.83791e-05
1.84463e-05
1.8517e-05
1.85906e-05
1.86669e-05
1.87453e-05
1.88254e-05
1.89068e-05
1.89885e-05
1.90705e-05
1.91528e-05
1.92342e-05
1.93148e-05
1.9459e-05
1.93845e-05
1.93092e-05
1.92333e-05
1.9157e-05
1.90807e-05
1.90049e-05
1.89301e-05
1.88563e-05
1.87836e-05
1.87131e-05
1.86452e-05
1.85804e-05
1.85188e-05
1.84609e-05
1.84075e-05
1.83589e-05
1.83153e-05
1.82767e-05
1.82434e-05
1.82155e-05
1.81927e-05
1.81758e-05
1.81645e-05
1.81587e-05
1.81585e-05
1.8164e-05
1.81753e-05
1.81926e-05
1.82153e-05
1.82433e-05
1.82765e-05
1.83154e-05
1.83594e-05
1.84081e-05
1.84612e-05
1.85188e-05
1.85803e-05
1.86449e-05
1.87128e-05
1.87832e-05
1.8856e-05
1.89303e-05
1.90062e-05
1.90825e-05
1.91593e-05
1.92361e-05
1.93128e-05
1.93886e-05
1.94629e-05
1.95952e-05
1.95267e-05
1.94574e-05
1.93872e-05
1.93163e-05
1.92452e-05
1.91747e-05
1.91045e-05
1.90354e-05
1.89669e-05
1.89005e-05
1.8836e-05
1.87742e-05
1.87152e-05
1.86598e-05
1.86084e-05
1.85616e-05
1.85195e-05
1.84819e-05
1.84494e-05
1.84221e-05
1.83998e-05
1.83832e-05
1.83718e-05
1.83663e-05
1.83662e-05
1.83714e-05
1.83825e-05
1.83993e-05
1.84217e-05
1.84489e-05
1.84815e-05
1.85194e-05
1.8562e-05
1.86091e-05
1.86604e-05
1.87153e-05
1.8774e-05
1.88356e-05
1.89001e-05
1.89666e-05
1.90351e-05
1.91052e-05
1.91762e-05
1.92475e-05
1.93193e-05
1.93906e-05
1.94616e-05
1.95312e-05
1.95991e-05
1.97192e-05
1.96571e-05
1.9594e-05
1.95298e-05
1.94644e-05
1.93985e-05
1.9333e-05
1.92682e-05
1.92036e-05
1.91398e-05
1.90775e-05
1.90167e-05
1.89584e-05
1.89028e-05
1.88502e-05
1.88014e-05
1.87569e-05
1.87168e-05
1.86809e-05
1.86494e-05
1.86233e-05
1.86018e-05
1.85857e-05
1.85747e-05
1.85693e-05
1.85694e-05
1.85743e-05
1.8585e-05
1.86012e-05
1.86227e-05
1.86489e-05
1.86803e-05
1.87169e-05
1.87575e-05
1.88022e-05
1.88508e-05
1.8903e-05
1.89584e-05
1.90164e-05
1.9077e-05
1.91395e-05
1.92037e-05
1.92693e-05
1.93353e-05
1.94013e-05
1.94677e-05
1.95335e-05
1.95984e-05
1.96618e-05
1.97235e-05
1.98309e-05
1.97754e-05
1.97182e-05
1.96602e-05
1.96005e-05
1.95402e-05
1.948e-05
1.94202e-05
1.93604e-05
1.93012e-05
1.92433e-05
1.91867e-05
1.91322e-05
1.90798e-05
1.90305e-05
1.89846e-05
1.89427e-05
1.89047e-05
1.88708e-05
1.88407e-05
1.88159e-05
1.87954e-05
1.878e-05
1.87699e-05
1.87648e-05
1.87648e-05
1.87695e-05
1.87798e-05
1.87951e-05
1.88153e-05
1.88404e-05
1.88703e-05
1.89049e-05
1.89432e-05
1.89856e-05
1.90312e-05
1.90805e-05
1.91325e-05
1.91867e-05
1.92432e-05
1.93014e-05
1.93611e-05
1.94217e-05
1.94828e-05
1.95435e-05
1.96043e-05
1.96641e-05
1.9723e-05
1.97803e-05
1.98358e-05
1.99305e-05
1.98811e-05
1.98303e-05
1.97783e-05
1.97247e-05
1.96699e-05
1.9615e-05
1.95603e-05
1.95054e-05
1.94511e-05
1.93975e-05
1.9345e-05
1.92946e-05
1.92459e-05
1.92e-05
1.91569e-05
1.91175e-05
1.90818e-05
1.90501e-05
1.90219e-05
1.89983e-05
1.89793e-05
1.89647e-05
1.89551e-05
1.89502e-05
1.89502e-05
1.8955e-05
1.8965e-05
1.89793e-05
1.89982e-05
1.90217e-05
1.90501e-05
1.90822e-05
1.91184e-05
1.9158e-05
1.92008e-05
1.92467e-05
1.92951e-05
1.93457e-05
1.93981e-05
1.9452e-05
1.9507e-05
1.95624e-05
1.96182e-05
1.96736e-05
1.97287e-05
1.97827e-05
1.98357e-05
1.98867e-05
1.99357e-05
1.993e-05
1.98838e-05
1.98363e-05
1.97873e-05
1.97381e-05
1.96882e-05
1.96386e-05
1.9589e-05
1.95397e-05
1.94915e-05
1.94451e-05
1.94004e-05
1.93576e-05
1.93179e-05
1.92811e-05
1.9248e-05
1.92181e-05
1.91922e-05
1.91698e-05
1.9152e-05
1.91385e-05
1.91296e-05
1.9125e-05
1.91251e-05
1.91296e-05
1.9139e-05
1.91523e-05
1.91702e-05
1.91919e-05
1.92184e-05
1.92484e-05
1.92818e-05
1.93186e-05
1.93584e-05
1.94008e-05
1.94458e-05
1.94925e-05
1.95408e-05
1.95901e-05
1.96405e-05
1.96913e-05
1.97416e-05
1.97916e-05
1.9841e-05
1.98891e-05
1.99359e-05
1.99804e-05
2.0023e-05
1.99772e-05
1.99354e-05
1.98924e-05
1.98486e-05
1.9804e-05
1.97594e-05
1.97144e-05
1.96698e-05
1.9626e-05
1.95834e-05
1.95426e-05
1.95033e-05
1.94668e-05
1.94329e-05
1.94021e-05
1.93746e-05
1.93506e-05
1.93298e-05
1.93134e-05
1.93009e-05
1.9293e-05
1.92885e-05
1.92887e-05
1.92929e-05
1.93013e-05
1.93138e-05
1.93303e-05
1.93505e-05
1.93747e-05
1.94026e-05
1.94335e-05
1.94676e-05
1.95042e-05
1.95433e-05
1.95849e-05
1.96274e-05
1.96716e-05
1.97162e-05
1.97619e-05
1.98078e-05
1.98528e-05
1.98973e-05
1.99407e-05
1.99831e-05
2.00235e-05
2.00617e-05
2.00982e-05
1.99852e-05
1.99466e-05
1.99074e-05
1.98675e-05
1.98276e-05
1.97874e-05
1.97478e-05
1.97094e-05
1.96724e-05
1.96368e-05
1.96037e-05
1.95729e-05
1.95444e-05
1.95193e-05
1.94968e-05
1.94779e-05
1.94631e-05
1.94516e-05
1.94443e-05
1.94401e-05
1.944e-05
1.94439e-05
1.9452e-05
1.94636e-05
1.94787e-05
1.94971e-05
1.95193e-05
1.95449e-05
1.95734e-05
1.96046e-05
1.96381e-05
1.96736e-05
1.97115e-05
1.97499e-05
1.97899e-05
1.98299e-05
1.9871e-05
1.99116e-05
1.99511e-05
1.99902e-05
2.0028e-05
2.00644e-05
2.00985e-05
2.01308e-05
2.01612e-05
2.00321e-05
1.99981e-05
1.99634e-05
1.99281e-05
1.98925e-05
1.98573e-05
1.98231e-05
1.97901e-05
1.97579e-05
1.97279e-05
1.97003e-05
1.96745e-05
1.96515e-05
1.96309e-05
1.96137e-05
1.96003e-05
1.959e-05
1.95834e-05
1.95796e-05
1.95792e-05
1.95827e-05
1.959e-05
1.9601e-05
1.96145e-05
1.96315e-05
1.96517e-05
1.96752e-05
1.9701e-05
1.9729e-05
1.97592e-05
1.97916e-05
1.98255e-05
1.986e-05
1.98956e-05
1.99311e-05
1.99673e-05
2.00028e-05
2.00369e-05
2.00704e-05
2.01026e-05
2.01331e-05
2.01613e-05
2.01877e-05
2.02118e-05
2.00766e-05
2.00466e-05
2.00159e-05
1.99852e-05
1.99543e-05
1.99243e-05
1.98951e-05
1.98665e-05
1.98396e-05
1.9815e-05
1.97917e-05
1.97711e-05
1.97526e-05
1.97371e-05
1.97252e-05
1.9716e-05
1.97098e-05
1.97063e-05
1.9706e-05
1.97092e-05
1.97157e-05
1.97256e-05
1.97379e-05
1.97536e-05
1.97716e-05
1.97926e-05
1.98158e-05
1.98411e-05
1.98678e-05
1.98966e-05
1.99269e-05
1.99575e-05
1.99885e-05
2.00196e-05
2.00508e-05
2.00814e-05
2.01103e-05
2.01384e-05
2.0165e-05
2.01897e-05
2.0212e-05
2.02323e-05
2.02504e-05
2.00914e-05
2.0065e-05
2.00388e-05
2.00126e-05
1.99872e-05
1.99624e-05
1.99386e-05
1.99169e-05
1.98964e-05
1.98777e-05
1.98616e-05
1.98478e-05
1.98373e-05
1.98291e-05
1.98232e-05
1.98205e-05
1.98202e-05
1.98232e-05
1.98289e-05
1.98375e-05
1.98487e-05
1.98627e-05
1.98789e-05
1.98975e-05
1.99179e-05
1.99402e-05
1.99639e-05
1.99891e-05
2.00154e-05
2.00421e-05
2.00691e-05
2.00956e-05
2.01221e-05
2.01475e-05
2.01714e-05
2.0194e-05
2.02149e-05
2.02341e-05
2.02508e-05
2.02651e-05
2.02773e-05
2.01323e-05
2.01103e-05
2.00885e-05
2.00664e-05
2.00451e-05
2.0025e-05
2.00061e-05
1.99881e-05
1.99716e-05
1.99575e-05
1.99456e-05
1.99363e-05
1.99291e-05
1.99241e-05
1.99217e-05
1.99217e-05
1.99241e-05
1.99296e-05
1.99368e-05
1.99468e-05
1.99593e-05
1.99736e-05
1.99898e-05
2.00075e-05
2.00268e-05
2.00473e-05
2.0069e-05
2.00915e-05
2.01143e-05
2.0137e-05
2.01592e-05
2.01807e-05
2.0201e-05
2.02199e-05
2.02373e-05
2.0253e-05
2.02663e-05
2.02775e-05
2.02863e-05
2.02927e-05
2.01153e-05
2.00983e-05
2.00822e-05
2.00667e-05
2.00529e-05
2.00408e-05
2.00304e-05
2.00223e-05
2.0016e-05
2.00118e-05
2.00097e-05
2.00099e-05
2.00123e-05
2.00171e-05
2.00235e-05
2.00324e-05
2.00429e-05
2.00551e-05
2.00691e-05
2.00844e-05
2.01008e-05
2.01182e-05
2.01366e-05
2.01551e-05
2.01741e-05
2.01927e-05
2.02101e-05
2.02268e-05
2.02425e-05
2.02566e-05
2.02687e-05
2.02791e-05
2.02871e-05
2.0293e-05
2.02963e-05
2.02972e-05
2.01216e-05
2.01114e-05
2.01027e-05
2.00958e-05
2.00903e-05
2.00869e-05
2.00851e-05
2.00856e-05
2.00878e-05
2.00917e-05
2.00975e-05
2.01049e-05
2.0114e-05
2.0124e-05
2.01357e-05
2.01485e-05
2.01624e-05
2.01767e-05
2.01917e-05
2.02064e-05
2.02213e-05
2.02358e-05
2.0249e-05
2.02611e-05
2.02723e-05
2.02813e-05
2.02887e-05
2.0294e-05
2.02967e-05
2.02973e-05
2.02956e-05
2.0291e-05
2.01623e-05
2.01564e-05
2.0152e-05
2.01491e-05
2.01478e-05
2.01483e-05
2.01503e-05
2.01538e-05
2.01585e-05
2.01648e-05
2.01722e-05
2.01804e-05
2.01899e-05
2.02001e-05
2.02112e-05
2.02228e-05
2.02344e-05
2.02456e-05
2.02565e-05
2.02668e-05
2.02761e-05
2.02836e-05
2.02905e-05
2.02948e-05
2.02976e-05
2.0298e-05
2.02956e-05
2.02911e-05
2.02844e-05
2.02748e-05
2.01981e-05
2.01987e-05
2.02004e-05
2.02031e-05
2.02071e-05
2.02122e-05
2.02177e-05
2.02245e-05
2.02317e-05
2.02396e-05
2.0248e-05
2.0257e-05
2.02651e-05
2.02729e-05
2.02799e-05
2.02862e-05
2.02914e-05
2.02949e-05
2.02974e-05
2.02975e-05
2.02956e-05
2.02913e-05
2.02843e-05
2.02749e-05
2.02634e-05
2.02492e-05
2.02473e-05
2.02512e-05
2.02561e-05
2.02615e-05
2.02672e-05
2.02729e-05
2.02791e-05
2.02842e-05
2.02887e-05
2.02919e-05
2.02945e-05
2.02959e-05
2.02952e-05
2.02935e-05
2.02894e-05
2.02832e-05
2.02745e-05
2.02631e-05
2.02493e-05
2.02333e-05
2.02145e-05
2.02798e-05
2.02829e-05
2.02864e-05
2.02897e-05
2.02918e-05
2.02932e-05
2.0293e-05
2.02921e-05
2.02898e-05
2.02853e-05
2.02796e-05
2.02715e-05
2.02612e-05
2.02482e-05
2.02326e-05
2.02149e-05
2.01946e-05
2.01715e-05
2.02888e-05
2.02892e-05
2.02884e-05
2.02869e-05
2.02836e-05
2.02792e-05
2.02734e-05
2.02654e-05
2.0256e-05
2.02441e-05
2.02299e-05
2.02131e-05
2.01936e-05
2.01721e-05
2.01477e-05
2.01206e-05
2.02803e-05
2.02781e-05
2.0275e-05
2.02704e-05
2.02644e-05
2.02566e-05
2.02474e-05
2.02362e-05
2.02233e-05
2.02077e-05
2.01898e-05
2.01694e-05
2.01464e-05
2.01212e-05
2.00932e-05
2.00622e-05
2.02616e-05
2.02571e-05
2.02515e-05
2.02445e-05
2.02356e-05
2.02249e-05
2.02124e-05
2.01983e-05
2.01819e-05
2.01631e-05
2.01417e-05
2.01178e-05
2.00914e-05
2.00626e-05
2.00311e-05
1.99967e-05
2.02093e-05
2.0198e-05
2.01846e-05
2.01691e-05
2.01518e-05
2.01324e-05
2.01105e-05
2.00859e-05
2.00587e-05
2.00289e-05
1.9997e-05
1.99621e-05
1.9924e-05
2.0075e-05
2.00503e-05
2.00224e-05
1.99922e-05
1.99594e-05
1.99242e-05
1.98862e-05
1.98449e-05
1.99188e-05
1.9883e-05
1.98448e-05
1.98037e-05
1.97595e-05
1.71377e-05
1.71373e-05
1.71371e-05
1.71373e-05
1.71377e-05
1.71383e-05
1.71392e-05
1.71404e-05
1.71418e-05
1.71435e-05
1.71455e-05
1.71477e-05
1.71502e-05
1.7153e-05
1.7156e-05
1.71593e-05
1.71629e-05
1.71667e-05
1.71708e-05
1.71752e-05
1.71798e-05
1.71848e-05
1.719e-05
1.71958e-05
1.72028e-05
1.72122e-05
1.72259e-05
1.72462e-05
1.71491e-05
1.71487e-05
1.71486e-05
1.71487e-05
1.71491e-05
1.71498e-05
1.71507e-05
1.71519e-05
1.71534e-05
1.71551e-05
1.71571e-05
1.71593e-05
1.71619e-05
1.71647e-05
1.71677e-05
1.71711e-05
1.71747e-05
1.71786e-05
1.71827e-05
1.71872e-05
1.71919e-05
1.71971e-05
1.72034e-05
1.72114e-05
1.72226e-05
1.72389e-05
1.7262e-05
1.72927e-05
1.71609e-05
1.71605e-05
1.71604e-05
1.71605e-05
1.71609e-05
1.71616e-05
1.71625e-05
1.71637e-05
1.71652e-05
1.71669e-05
1.7169e-05
1.71712e-05
1.71738e-05
1.71766e-05
1.71798e-05
1.71832e-05
1.71868e-05
1.71908e-05
1.7195e-05
1.71997e-05
1.72053e-05
1.72125e-05
1.72225e-05
1.72369e-05
1.72576e-05
1.72864e-05
1.73245e-05
1.73729e-05
1.71729e-05
1.71725e-05
1.71724e-05
1.71725e-05
1.71729e-05
1.71736e-05
1.71745e-05
1.71758e-05
1.71773e-05
1.7179e-05
1.71811e-05
1.71834e-05
1.7186e-05
1.71889e-05
1.7192e-05
1.71955e-05
1.71992e-05
1.72035e-05
1.72087e-05
1.72152e-05
1.72243e-05
1.72375e-05
1.72566e-05
1.72834e-05
1.73196e-05
1.7366e-05
1.74231e-05
1.74914e-05
1.71852e-05
1.71847e-05
1.71846e-05
1.71847e-05
1.71851e-05
1.71858e-05
1.71868e-05
1.7188e-05
1.71895e-05
1.71913e-05
1.71934e-05
1.71958e-05
1.71984e-05
1.72013e-05
1.72046e-05
1.72086e-05
1.72134e-05
1.72197e-05
1.72284e-05
1.72409e-05
1.7259e-05
1.72845e-05
1.73189e-05
1.73635e-05
1.74185e-05
1.7484e-05
1.75594e-05
1.76448e-05
1.71976e-05
1.71971e-05
1.7197e-05
1.71971e-05
1.71975e-05
1.71983e-05
1.71992e-05
1.72005e-05
1.72019e-05
1.72037e-05
1.72059e-05
1.72085e-05
1.72115e-05
1.72153e-05
1.722e-05
1.72263e-05
1.72352e-05
1.72478e-05
1.72657e-05
1.72905e-05
1.73239e-05
1.73669e-05
1.742e-05
1.74832e-05
1.75558e-05
1.76371e-05
1.77264e-05
1.78235e-05
1.72102e-05
1.72097e-05
1.72095e-05
1.72096e-05
1.72101e-05
1.72109e-05
1.7212e-05
1.72134e-05
1.72153e-05
1.72177e-05
1.72207e-05
1.72245e-05
1.72296e-05
1.72366e-05
1.72462e-05
1.72596e-05
1.72781e-05
1.73033e-05
1.73363e-05
1.73783e-05
1.74297e-05
1.74905e-05
1.75604e-05
1.76384e-05
1.77239e-05
1.78159e-05
1.79138e-05
1.80173e-05
1.72263e-05
1.72255e-05
1.72251e-05
1.72253e-05
1.72258e-05
1.72269e-05
1.72285e-05
1.7231e-05
1.72345e-05
1.72391e-05
1.72452e-05
1.72534e-05
1.72644e-05
1.72794e-05
1.72993e-05
1.73254e-05
1.73587e-05
1.74001e-05
1.74501e-05
1.75086e-05
1.75754e-05
1.76499e-05
1.77314e-05
1.78191e-05
1.79122e-05
1.80099e-05
1.81118e-05
1.82176e-05
1.7256e-05
1.7254e-05
1.7253e-05
1.72531e-05
1.72543e-05
1.72566e-05
1.72602e-05
1.72656e-05
1.7273e-05
1.72829e-05
1.72958e-05
1.73126e-05
1.73342e-05
1.73614e-05
1.73951e-05
1.74359e-05
1.74842e-05
1.754e-05
1.76034e-05
1.76738e-05
1.77507e-05
1.78337e-05
1.79219e-05
1.80145e-05
1.81109e-05
1.82106e-05
1.8313e-05
1.8418e-05
1.73181e-05
1.73136e-05
1.73114e-05
1.73115e-05
1.73139e-05
1.73186e-05
1.73259e-05
1.73363e-05
1.73501e-05
1.73678e-05
1.73901e-05
1.74175e-05
1.74506e-05
1.74899e-05
1.75358e-05
1.75883e-05
1.76474e-05
1.77128e-05
1.77845e-05
1.78618e-05
1.79442e-05
1.80312e-05
1.8122e-05
1.82161e-05
1.83128e-05
1.84117e-05
1.85121e-05
1.8614e-05
1.74278e-05
1.74205e-05
1.74169e-05
1.74169e-05
1.74206e-05
1.74281e-05
1.74396e-05
1.74553e-05
1.74755e-05
1.75006e-05
1.7531e-05
1.7567e-05
1.76087e-05
1.76564e-05
1.77102e-05
1.77698e-05
1.78351e-05
1.79058e-05
1.79815e-05
1.80619e-05
1.81463e-05
1.82342e-05
1.8325e-05
1.8418e-05
1.85126e-05
1.86087e-05
1.87055e-05
1.88029e-05
1.75823e-05
1.75728e-05
1.75681e-05
1.7568e-05
1.75728e-05
1.75824e-05
1.75969e-05
1.76164e-05
1.76411e-05
1.76711e-05
1.77066e-05
1.77478e-05
1.77945e-05
1.78469e-05
1.79048e-05
1.79679e-05
1.80359e-05
1.81086e-05
1.81854e-05
1.8266e-05
1.83498e-05
1.84364e-05
1.85252e-05
1.86153e-05
1.87065e-05
1.87985e-05
1.88907e-05
1.89829e-05
1.77672e-05
1.77565e-05
1.77511e-05
1.77509e-05
1.77562e-05
1.7767e-05
1.77832e-05
1.7805e-05
1.78321e-05
1.78646e-05
1.79027e-05
1.79463e-05
1.79953e-05
1.80497e-05
1.8109e-05
1.81732e-05
1.82414e-05
1.83139e-05
1.83898e-05
1.84687e-05
1.85502e-05
1.86339e-05
1.87192e-05
1.88055e-05
1.88922e-05
1.89793e-05
1.90663e-05
1.91526e-05
1.79687e-05
1.79573e-05
1.79516e-05
1.79513e-05
1.79568e-05
1.79681e-05
1.79852e-05
1.80076e-05
1.80357e-05
1.80691e-05
1.81081e-05
1.81525e-05
1.8202e-05
1.82564e-05
1.83156e-05
1.83789e-05
1.84458e-05
1.85163e-05
1.85896e-05
1.86657e-05
1.87438e-05
1.88238e-05
1.89048e-05
1.89862e-05
1.9068e-05
1.915e-05
1.92312e-05
1.93117e-05
1.82436e-05
1.82768e-05
1.83155e-05
1.83596e-05
1.84082e-05
1.84613e-05
1.8519e-05
1.85801e-05
1.86444e-05
1.8712e-05
1.87821e-05
1.88547e-05
1.89287e-05
1.90043e-05
1.90803e-05
1.91567e-05
1.92333e-05
1.93097e-05
1.93852e-05
1.94594e-05
1.89653e-05
1.90335e-05
1.91033e-05
1.91742e-05
1.9245e-05
1.93164e-05
1.93874e-05
1.94582e-05
1.95275e-05
1.95953e-05
1.93985e-05
1.94644e-05
1.95299e-05
1.95947e-05
1.96579e-05
1.97193e-05
1.97192e-05
1.97761e-05
1.98312e-05
1.94775e-05
1.93683e-05
1.9254e-05
2.02276e-05
2.02617e-05
2.02837e-05
2.02942e-05
2.02935e-05
2.02823e-05
2.02615e-05
2.02311e-05
2.01918e-05
2.01439e-05
2.00882e-05
2.00249e-05
1.99545e-05
1.9877e-05
1.97928e-05
1.97023e-05
1.96058e-05
1.95033e-05
1.93954e-05
1.92821e-05
2.00311e-05
2.01056e-05
2.0167e-05
2.02161e-05
2.02531e-05
2.02778e-05
2.0291e-05
2.0293e-05
2.02844e-05
2.02658e-05
2.02378e-05
2.02005e-05
2.01547e-05
2.01009e-05
2.00395e-05
1.99708e-05
1.98948e-05
1.98122e-05
1.97231e-05
1.96279e-05
1.95268e-05
1.942e-05
1.93078e-05
2.00114e-05
2.00887e-05
2.01533e-05
2.02051e-05
2.02446e-05
2.02721e-05
2.02879e-05
2.02924e-05
2.02861e-05
2.02695e-05
2.02435e-05
2.02083e-05
2.01643e-05
2.01123e-05
2.00523e-05
1.9985e-05
1.99105e-05
1.98292e-05
1.97415e-05
1.96475e-05
1.95475e-05
1.94421e-05
1.93311e-05
1.99935e-05
2.00734e-05
2.01406e-05
2.01949e-05
2.0237e-05
2.02667e-05
2.02847e-05
2.02915e-05
2.02875e-05
2.02731e-05
2.02488e-05
2.0215e-05
2.01724e-05
2.01217e-05
2.00631e-05
1.99971e-05
1.9924e-05
1.98441e-05
1.97575e-05
1.96645e-05
1.95656e-05
1.94611e-05
1.93511e-05
1.99777e-05
2.00596e-05
2.01288e-05
2.01855e-05
2.02298e-05
2.02617e-05
2.02819e-05
2.02906e-05
2.02883e-05
2.02755e-05
2.02527e-05
2.02206e-05
2.01797e-05
2.01304e-05
2.0073e-05
2.00081e-05
1.99359e-05
1.98569e-05
1.97712e-05
1.96792e-05
1.95813e-05
1.94776e-05
1.93685e-05
1.71993e-05
1.72128e-05
1.7232e-05
1.72706e-05
1.73479e-05
1.74735e-05
1.76394e-05
1.78306e-05
1.80347e-05
1.82429e-05
1.84494e-05
1.86501e-05
1.88424e-05
1.90243e-05
1.91948e-05
1.93538e-05
1.95009e-05
1.96358e-05
1.97579e-05
1.98671e-05
1.99639e-05
2.00477e-05
2.01187e-05
2.01773e-05
2.02233e-05
2.02568e-05
2.02786e-05
2.02887e-05
2.02879e-05
2.02763e-05
2.02549e-05
2.02243e-05
2.01849e-05
2.01368e-05
2.00806e-05
2.00169e-05
1.99457e-05
1.98676e-05
1.9783e-05
1.9692e-05
1.95949e-05
1.9492e-05
1.93835e-05
1.71979e-05
1.7211e-05
1.72287e-05
1.72633e-05
1.73342e-05
1.74533e-05
1.76147e-05
1.78036e-05
1.80066e-05
1.82147e-05
1.84217e-05
1.86234e-05
1.88169e-05
1.90005e-05
1.91726e-05
1.93332e-05
1.94821e-05
1.96182e-05
1.9742e-05
1.98531e-05
1.99513e-05
2.00368e-05
2.01097e-05
2.01698e-05
2.02171e-05
2.02522e-05
2.02754e-05
2.02869e-05
2.02874e-05
2.02771e-05
2.02568e-05
2.02272e-05
2.01887e-05
2.01418e-05
2.00869e-05
2.00242e-05
1.9954e-05
1.98769e-05
1.9793e-05
1.97027e-05
1.96063e-05
1.95039e-05
1.93961e-05
1.71969e-05
1.72097e-05
1.72263e-05
1.72581e-05
1.73239e-05
1.74377e-05
1.75952e-05
1.77818e-05
1.79841e-05
1.8192e-05
1.83997e-05
1.8602e-05
1.87965e-05
1.89811e-05
1.91547e-05
1.93168e-05
1.94667e-05
1.96043e-05
1.97291e-05
1.98414e-05
1.9941e-05
2.00278e-05
2.01019e-05
2.01634e-05
2.0212e-05
2.02483e-05
2.02728e-05
2.02854e-05
2.02869e-05
2.02777e-05
2.02585e-05
2.02297e-05
2.01919e-05
2.01458e-05
2.00913e-05
2.00292e-05
1.99599e-05
1.98836e-05
1.98004e-05
1.97107e-05
1.9615e-05
1.95133e-05
1.94059e-05
1.71362e-05
1.71476e-05
1.71594e-05
1.71714e-05
1.71836e-05
1.71961e-05
1.72088e-05
1.72249e-05
1.72546e-05
1.73167e-05
1.74264e-05
1.75809e-05
1.77658e-05
1.79671e-05
1.8175e-05
1.83829e-05
1.8586e-05
1.87814e-05
1.89668e-05
1.91414e-05
1.93041e-05
1.94552e-05
1.95937e-05
1.97194e-05
1.98326e-05
1.99332e-05
2.00212e-05
2.00962e-05
2.01586e-05
2.02082e-05
2.02456e-05
2.02709e-05
2.02843e-05
2.02865e-05
2.02783e-05
2.02599e-05
2.02318e-05
2.01945e-05
2.01486e-05
2.00948e-05
2.0033e-05
1.99639e-05
1.98879e-05
1.98052e-05
1.9716e-05
1.96207e-05
1.95194e-05
1.94126e-05
1.71358e-05
1.71473e-05
1.7159e-05
1.7171e-05
1.71833e-05
1.71957e-05
1.72083e-05
1.72241e-05
1.72526e-05
1.73122e-05
1.7419e-05
1.75714e-05
1.7755e-05
1.7956e-05
1.81638e-05
1.8372e-05
1.85754e-05
1.87712e-05
1.89573e-05
1.91324e-05
1.92956e-05
1.9447e-05
1.95861e-05
1.97127e-05
1.98266e-05
1.99279e-05
2.00164e-05
2.00921e-05
2.01552e-05
2.02055e-05
2.02432e-05
2.0269e-05
2.02828e-05
2.02856e-05
2.02778e-05
2.02599e-05
2.02325e-05
2.01957e-05
2.01502e-05
2.00966e-05
2.00353e-05
1.99666e-05
1.98909e-05
1.98085e-05
1.97197e-05
1.96247e-05
1.95237e-05
1.94172e-05
1.71357e-05
1.71472e-05
1.71589e-05
1.71709e-05
1.71832e-05
1.71956e-05
1.72081e-05
1.72238e-05
1.72517e-05
1.73101e-05
1.74155e-05
1.75668e-05
1.77498e-05
1.79505e-05
1.81583e-05
1.83666e-05
1.85701e-05
1.87663e-05
1.89524e-05
1.91277e-05
1.92914e-05
1.94432e-05
1.95829e-05
1.97096e-05
1.98238e-05
1.99254e-05
2.00141e-05
2.00902e-05
2.01532e-05
2.02038e-05
2.02417e-05
2.02677e-05
2.02821e-05
2.02853e-05
2.02777e-05
2.026e-05
2.02325e-05
2.0196e-05
2.01508e-05
2.00975e-05
2.00366e-05
1.9968e-05
1.98924e-05
1.98101e-05
1.97214e-05
1.96265e-05
1.95257e-05
1.94193e-05
1.71359e-05
1.71474e-05
1.71591e-05
1.71711e-05
1.71833e-05
1.71957e-05
1.72083e-05
1.72239e-05
1.72518e-05
1.73102e-05
1.74157e-05
1.75669e-05
1.775e-05
1.79506e-05
1.81586e-05
1.83666e-05
1.85703e-05
1.87664e-05
1.89528e-05
1.91282e-05
1.92919e-05
1.94435e-05
1.95831e-05
1.97099e-05
1.98243e-05
1.99258e-05
2.00144e-05
2.00899e-05
2.0153e-05
2.02033e-05
2.02413e-05
2.02674e-05
2.02818e-05
2.0285e-05
2.02774e-05
2.02596e-05
2.02322e-05
2.01958e-05
2.01507e-05
2.00975e-05
2.00366e-05
1.9968e-05
1.98925e-05
1.98102e-05
1.97215e-05
1.96265e-05
1.95257e-05
1.94192e-05
1.71363e-05
1.71478e-05
1.71595e-05
1.71716e-05
1.71838e-05
1.71962e-05
1.72088e-05
1.72245e-05
1.7253e-05
1.73126e-05
1.74195e-05
1.75719e-05
1.77556e-05
1.79566e-05
1.81645e-05
1.83727e-05
1.85763e-05
1.87719e-05
1.89576e-05
1.91325e-05
1.92962e-05
1.94477e-05
1.95868e-05
1.97131e-05
1.98269e-05
1.9928e-05
2.0016e-05
2.00914e-05
2.01541e-05
2.02044e-05
2.02423e-05
2.02683e-05
2.02825e-05
2.02855e-05
2.02776e-05
2.02594e-05
2.02318e-05
2.01953e-05
2.01499e-05
2.00965e-05
2.00353e-05
1.99667e-05
1.98909e-05
1.98084e-05
1.97195e-05
1.96244e-05
1.95235e-05
1.94169e-05
1.7137e-05
1.71485e-05
1.71602e-05
1.71723e-05
1.71845e-05
1.71969e-05
1.72096e-05
1.72256e-05
1.72553e-05
1.73174e-05
1.74271e-05
1.75815e-05
1.77664e-05
1.7968e-05
1.81761e-05
1.8384e-05
1.85873e-05
1.87824e-05
1.89673e-05
1.91415e-05
1.93042e-05
1.9455e-05
1.95937e-05
1.97195e-05
1.98326e-05
1.99327e-05
2.00201e-05
2.00949e-05
2.01572e-05
2.0207e-05
2.02443e-05
2.02697e-05
2.02832e-05
2.02857e-05
2.02773e-05
2.02588e-05
2.02306e-05
2.01935e-05
2.01477e-05
2.00939e-05
2.00324e-05
1.99634e-05
1.98874e-05
1.98047e-05
1.97157e-05
1.96205e-05
1.95193e-05
1.94124e-05
1.71379e-05
1.71494e-05
1.71612e-05
1.71733e-05
1.71855e-05
1.7198e-05
1.72107e-05