/*--------------------------------*- C++ -*----------------------------------*\
  =========                 |
  \\      /  F ield         | OpenFOAM: The Open Source CFD Toolbox
   \\    /   O peration     | Website:  https://openfoam.org
    \\  /    A nd           | Version:  7
     \\/     M anipulation  |
\*---------------------------------------------------------------------------*/
FoamFile
{
    version     2.0;
    format      ascii;
    class       volVectorField;
    location    "80000";
    object      vorticity;
}
// * * * * * * * * * * * * * * * * * * * * * * * * * * * * * * * * * * * * * //

dimensions      [0 0 -1 0 0 0 0];

internalField   nonuniform List<vector> 
4838
(
(0.000220115 8.08966e-05 1.38152e-17)
(9.06838e-05 0.000122976 -1.79422e-17)
(6.71346e-05 7.91405e-05 -1.67521e-17)
(4.97999e-05 5.47573e-05 -9.83747e-18)
(4.02327e-05 4.29967e-05 -5.97536e-18)
(3.57102e-05 3.7786e-05 -4.32673e-18)
(3.38559e-05 3.529e-05 -5.51903e-19)
(3.33732e-05 3.35797e-05 4.47508e-18)
(3.32644e-05 3.1962e-05 8.22961e-18)
(3.31647e-05 3.03081e-05 6.87018e-18)
(3.30586e-05 2.85898e-05 3.47195e-18)
(3.29176e-05 2.68127e-05 -4.52047e-20)
(3.27696e-05 2.49819e-05 -4.88724e-18)
(3.26145e-05 2.31073e-05 -5.82942e-18)
(3.24617e-05 2.11943e-05 -5.53812e-18)
(3.2316e-05 1.92493e-05 -3.07747e-18)
(3.21787e-05 1.72771e-05 1.31684e-18)
(3.20527e-05 1.52812e-05 1.16313e-18)
(3.19409e-05 1.32658e-05 -5.16541e-19)
(3.18445e-05 1.1235e-05 -1.17361e-18)
(3.17632e-05 9.19227e-06 -5.7497e-19)
(3.16966e-05 7.13988e-06 -1.07467e-18)
(3.16448e-05 5.07955e-06 -1.34887e-18)
(3.16086e-05 3.01311e-06 -1.17198e-18)
(3.15892e-05 9.42744e-07 -4.97407e-19)
(3.1587e-05 -1.12897e-06 1.73614e-18)
(3.16022e-05 -3.19933e-06 3.83043e-18)
(3.1634e-05 -5.26577e-06 4.1237e-18)
(3.16814e-05 -7.32609e-06 3.37576e-18)
(3.17436e-05 -9.37848e-06 3.80494e-18)
(3.18204e-05 -1.14212e-05 6.46122e-18)
(3.19123e-05 -1.34519e-05 1.05697e-17)
(3.20193e-05 -1.54673e-05 9.42925e-18)
(3.21405e-05 -1.7463e-05 -3.24301e-18)
(3.22728e-05 -1.9435e-05 -1.09282e-17)
(3.24133e-05 -2.13797e-05 -6.93068e-19)
(3.25607e-05 -2.32923e-05 3.83213e-18)
(3.27101e-05 -2.51662e-05 -4.27392e-18)
(3.28522e-05 -2.6996e-05 -9.60403e-18)
(3.2987e-05 -2.87717e-05 -1.30543e-17)
(3.30862e-05 -3.04879e-05 -1.51895e-17)
(3.31787e-05 -3.2139e-05 -1.88492e-17)
(3.32791e-05 -3.37531e-05 -2.14085e-17)
(3.37561e-05 -3.54591e-05 -2.25284e-17)
(3.56062e-05 -3.79532e-05 -2.39034e-17)
(4.01323e-05 -4.3167e-05 -1.45048e-17)
(4.97167e-05 -5.49455e-05 -7.66783e-18)
(6.70574e-05 -7.93779e-05 -1.62992e-17)
(9.06238e-05 -0.000123262 -3.29493e-17)
(0.00022017 -8.11371e-05 -4.64406e-17)
(0.000444842 0.000150072 4.15016e-17)
(0.000209434 0.000217396 1.31338e-17)
(0.000148333 0.000148909 4.05101e-18)
(0.000104322 9.89994e-05 8.33256e-18)
(7.48205e-05 6.72015e-05 3.57822e-18)
(5.64412e-05 4.96683e-05 -5.19889e-19)
(4.65783e-05 4.05932e-05 -4.74668e-19)
(4.18244e-05 3.60982e-05 7.66819e-18)
(3.96098e-05 3.37356e-05 1.35453e-17)
(3.87318e-05 3.19266e-05 1.14703e-17)
(3.8311e-05 3.01632e-05 6.42324e-18)
(3.78903e-05 2.83505e-05 2.86266e-18)
(3.75391e-05 2.64589e-05 3.96931e-20)
(3.71959e-05 2.45103e-05 -2.4458e-18)
(3.688e-05 2.25055e-05 -3.37236e-18)
(3.65979e-05 2.04592e-05 -3.99031e-18)
(3.63406e-05 1.83785e-05 -3.69445e-18)
(3.61096e-05 1.62653e-05 -3.1182e-18)
(3.59116e-05 1.41255e-05 -3.4338e-18)
(3.57469e-05 1.19671e-05 -3.62171e-18)
(3.56118e-05 9.79563e-06 -2.55529e-18)
(3.55023e-05 7.61354e-06 -1.11386e-18)
(3.54169e-05 5.42148e-06 2.28388e-19)
(3.53574e-05 3.22059e-06 9.20954e-19)
(3.53261e-05 1.01361e-06 2.1803e-18)
(3.53245e-05 -1.19553e-06 3.49842e-18)
(3.53526e-05 -3.40249e-06 3.50928e-18)
(3.54089e-05 -5.60335e-06 3.19477e-18)
(3.5491e-05 -7.79536e-06 2.42574e-18)
(3.55972e-05 -9.97741e-06 1.8052e-18)
(3.5729e-05 -1.21488e-05 2.55288e-18)
(3.58903e-05 -1.43071e-05 3.43777e-18)
(3.60848e-05 -1.64467e-05 2.26557e-18)
(3.63121e-05 -1.85596e-05 1.9808e-19)
(3.65655e-05 -2.06399e-05 2.21416e-19)
(3.68436e-05 -2.26856e-05 7.56519e-19)
(3.71553e-05 -2.46896e-05 -2.0978e-18)
(3.74937e-05 -2.66373e-05 -7.90208e-18)
(3.78405e-05 -2.85275e-05 -1.31619e-17)
(3.82565e-05 -3.0338e-05 -1.83538e-17)
(3.86711e-05 -3.20983e-05 -2.5169e-17)
(3.95454e-05 -3.39031e-05 -3.16136e-17)
(4.17575e-05 -3.62641e-05 -3.53291e-17)
(4.6516e-05 -4.07618e-05 -3.41735e-17)
(5.63975e-05 -4.98485e-05 -2.58753e-17)
(7.4798e-05 -6.74119e-05 -8.95924e-18)
(0.000104337 -9.92517e-05 -1.4766e-17)
(0.000148395 -0.000149216 -2.80875e-17)
(0.000209542 -0.000217775 -3.15128e-17)
(0.000445194 -0.000150376 -3.47462e-17)
(0.000770403 0.000283849 3.50485e-17)
(0.000396072 0.000395243 1.72462e-17)
(0.000294151 0.000283667 -2.8084e-18)
(0.000211526 0.000196838 1.24489e-17)
(0.000148675 0.000132475 1.61916e-17)
(0.000104313 8.87638e-05 2.55242e-18)
(7.54023e-05 6.1668e-05 1.55361e-18)
(5.78574e-05 4.64864e-05 2.19452e-17)
(4.85097e-05 3.84566e-05 3.02626e-17)
(4.39933e-05 3.41677e-05 1.99753e-17)
(4.18715e-05 3.17301e-05 1.01195e-17)
(4.10228e-05 2.97873e-05 7.47601e-18)
(4.07758e-05 2.7809e-05 5.36373e-18)
(4.05191e-05 2.58051e-05 -2.08939e-19)
(4.02911e-05 2.37135e-05 -5.50992e-18)
(4.01231e-05 2.15736e-05 -7.61662e-18)
(3.99601e-05 1.94004e-05 -7.37794e-18)
(3.9799e-05 1.71807e-05 -6.1516e-18)
(3.96704e-05 1.49211e-05 -5.2828e-18)
(3.95761e-05 1.26405e-05 -3.83778e-18)
(3.95047e-05 1.03503e-05 -1.15265e-18)
(3.94433e-05 8.05211e-06 1.19741e-18)
(3.93869e-05 5.74161e-06 2.47016e-18)
(3.93429e-05 3.41662e-06 2.69752e-18)
(3.93184e-05 1.08089e-06 3.06319e-18)
(3.93168e-05 -1.25873e-06 3.08183e-18)
(3.93381e-05 -3.59441e-06 2.23673e-18)
(3.93788e-05 -5.9193e-06 1.609e-18)
(3.94319e-05 -8.22969e-06 1.89384e-18)
(3.94898e-05 -1.05277e-05 1.88065e-18)
(3.95577e-05 -1.28178e-05 1.50882e-18)
(3.96486e-05 -1.50983e-05 1.52855e-18)
(3.97736e-05 -1.73575e-05 9.02396e-19)
(3.99309e-05 -1.95765e-05 6.66498e-19)
(4.00895e-05 -2.17491e-05 1.50734e-18)
(4.02533e-05 -2.38881e-05 1.71722e-18)
(4.04768e-05 -2.59783e-05 3.1006e-19)
(4.07267e-05 -2.7981e-05 -4.50834e-18)
(4.09702e-05 -2.9958e-05 -1.26298e-17)
(4.18161e-05 -3.18965e-05 -2.34383e-17)
(4.39358e-05 -3.43322e-05 -3.68771e-17)
(4.84578e-05 -3.86237e-05 -4.77542e-17)
(5.78251e-05 -4.66647e-05 -4.7643e-17)
(7.53938e-05 -6.1874e-05 -3.83702e-17)
(0.000104347 -8.9007e-05 -2.44108e-17)
(0.000148768 -0.000132766 -1.40613e-17)
(0.000211688 -0.000197194 -1.3281e-17)
(0.00029439 -0.000284108 -2.84774e-17)
(0.000396392 -0.000395793 -4.15344e-17)
(0.000771058 -0.000284278 -4.93931e-17)
(0.00116603 0.000473293 1.13416e-17)
(0.000663365 0.000651736 -4.32635e-18)
(0.000527257 0.000498977 -1.41799e-17)
(0.000405116 0.000370414 -8.44525e-18)
(0.000301611 0.000264504 -3.09918e-20)
(0.000218268 0.000182276 1.14344e-18)
(0.000154905 0.000122908 1.27818e-17)
(0.000110123 8.30605e-05 3.09733e-17)
(8.07916e-05 5.8381e-05 5.3609e-17)
(6.27355e-05 4.43422e-05 3.19458e-17)
(5.27092e-05 3.65673e-05 1.08974e-17)
(4.78067e-05 3.20352e-05 1.40248e-17)
(4.53885e-05 2.92262e-05 1.51665e-17)
(4.42596e-05 2.70823e-05 3.87592e-18)
(4.38825e-05 2.48588e-05 -6.03665e-18)
(4.38486e-05 2.26066e-05 -9.62831e-18)
(4.3788e-05 2.03707e-05 -1.02385e-17)
(4.36474e-05 1.80587e-05 -9.19823e-18)
(4.35677e-05 1.56691e-05 -7.31517e-18)
(4.35487e-05 1.32593e-05 -4.47236e-18)
(4.35555e-05 1.08575e-05 -4.02921e-19)
(4.35492e-05 8.4622e-06 3.27983e-18)
(4.35097e-05 6.05069e-06 4.79575e-18)
(4.34686e-05 3.60992e-06 5.54302e-18)
(4.34439e-05 1.14781e-06 5.95121e-18)
(4.34423e-05 -1.32174e-06 5.63606e-18)
(4.34638e-05 -3.78374e-06 4.38104e-18)
(4.35015e-05 -6.22429e-06 2.75263e-18)
(4.35375e-05 -8.63551e-06 1.87174e-18)
(4.35399e-05 -1.10306e-05 8.61032e-19)
(4.35294e-05 -1.34324e-05 -7.03185e-20)
(4.3545e-05 -1.5842e-05 3.37642e-19)
(4.36212e-05 -1.82308e-05 1.31204e-18)
(4.37577e-05 -2.05415e-05 2.26871e-18)
(4.38121e-05 -2.27763e-05 4.52175e-18)
(4.38423e-05 -2.50275e-05 7.48753e-18)
(4.42166e-05 -2.72476e-05 6.75713e-18)
(4.53418e-05 -2.93917e-05 -2.63759e-19)
(4.77595e-05 -3.22025e-05 -1.27212e-17)
(5.26696e-05 -3.67345e-05 -2.43684e-17)
(6.27181e-05 -4.45208e-05 -3.9042e-17)
(8.08011e-05 -5.85879e-05 -4.52268e-17)
(0.000110179 -8.33039e-05 -2.80471e-17)
(0.000155025 -0.000123199 -2.15326e-17)
(0.000218461 -0.000182633 -1.5807e-17)
(0.000301893 -0.000264942 -4.65294e-18)
(0.000405495 -0.000370943 -1.70262e-17)
(0.000527731 -0.000499609 -4.92495e-17)
(0.000663917 -0.000652485 -7.07018e-17)
(0.00116695 -0.000473857 -7.05864e-17)
(0.00158544 0.000695422 -1.50808e-18)
(0.000983752 0.000953375 -1.177e-17)
(0.000833571 0.000776072 -2.21836e-17)
(0.000686744 0.000616939 -1.34927e-17)
(0.000550199 0.000474929 7.48497e-18)
(0.0004278 0.000352579 9.65222e-18)
(0.0003228 0.000252252 1.6824e-17)
(0.000237404 0.000174827 4.06464e-17)
(0.000171703 0.000119052 6.04277e-17)
(0.000124473 8.14621e-05 2.6033e-17)
(9.27836e-05 5.75732e-05 1.32747e-18)
(7.26218e-05 4.33661e-05 2.51508e-17)
(6.04328e-05 3.51441e-05 4.14448e-17)
(5.40468e-05 3.00525e-05 7.65132e-18)
(5.0712e-05 2.64062e-05 -1.33622e-17)
(4.89411e-05 2.36187e-05 -1.60145e-17)
(4.80163e-05 2.13303e-05 -1.63343e-17)
(4.76081e-05 1.89591e-05 -1.3778e-17)
(4.75235e-05 1.63868e-05 -1.0444e-17)
(4.7605e-05 1.38109e-05 -5.45496e-18)
(4.77385e-05 1.13007e-05 1.78304e-18)
(4.78196e-05 8.84854e-06 7.89032e-18)
(4.77571e-05 6.36906e-06 9.8357e-18)
(4.76911e-05 3.81595e-06 1.03696e-17)
(4.76544e-05 1.21971e-06 1.0407e-17)
(4.76528e-05 -1.38987e-06 9.38414e-18)
(4.76862e-05 -3.98588e-06 7.24015e-18)
(4.77488e-05 -6.53853e-06 4.32822e-18)
(4.78074e-05 -9.01731e-06 1.81299e-18)
(4.77211e-05 -1.14692e-05 -8.01055e-20)
(4.75836e-05 -1.39797e-05 -1.29147e-18)
(4.74989e-05 -1.65555e-05 -4.10053e-19)
(4.75807e-05 -1.91265e-05 1.93761e-18)
(4.79859e-05 -2.1494e-05 3.80875e-18)
(4.8907e-05 -2.37822e-05 8.20394e-18)
(5.06771e-05 -2.6572e-05 1.75155e-17)
(5.40167e-05 -3.02181e-05 2.21605e-17)
(6.042e-05 -3.5315e-05 1.75235e-17)
(7.26279e-05 -4.35494e-05 9.13042e-18)
(9.28197e-05 -5.77835e-05 -1.26707e-18)
(0.00012456 -8.17102e-05 -1.63306e-17)
(0.000171858 -0.000119348 -1.86416e-17)
(0.000237636 -0.000175188 -4.51761e-18)
(0.000323123 -0.000252693 9.48287e-19)
(0.00042822 -0.00035311 1.33e-18)
(0.000550717 -0.000475553 3.53831e-18)
(0.000687354 -0.000617653 -1.78855e-17)
(0.000834255 -0.000776876 -5.78228e-17)
(0.000984482 -0.000954272 -7.23269e-17)
(0.00158651 -0.00069608 -6.72096e-17)
(0.0019901 0.000928097 4.68741e-18)
(0.00131965 0.0012632 -1.00535e-17)
(0.00117492 0.00107707 -1.50497e-17)
(0.001025 0.000903931 -1.22099e-17)
(0.000876067 0.00074175 3.44008e-18)
(0.000731428 0.000592538 2.03366e-17)
(0.000595051 0.000458893 2.54999e-17)
(0.000471213 0.000343604 2.18912e-17)
(0.000363485 0.000248861 2.65123e-17)
(0.000274418 0.000175292 6.02828e-18)
(0.000204427 0.000121545 -1.48152e-17)
(0.000152308 8.45566e-05 3.91646e-17)
(0.000115819 5.99443e-05 6.67471e-17)
(9.14897e-05 4.43165e-05 4.53969e-18)
(7.55915e-05 3.4787e-05 -3.77559e-17)
(6.5548e-05 2.85027e-05 -2.67361e-17)
(5.97771e-05 2.40535e-05 -1.76258e-17)
(5.66365e-05 2.04945e-05 -1.49932e-17)
(5.47486e-05 1.72859e-05 -1.1607e-17)
(5.35673e-05 1.43306e-05 -5.30264e-18)
(5.2827e-05 1.16454e-05 7.56814e-18)
(5.23741e-05 9.21819e-06 1.71162e-17)
(5.20986e-05 6.74831e-06 1.74798e-17)
(5.1956e-05 4.06236e-06 1.61751e-17)
(5.18958e-05 1.30423e-06 1.69051e-17)
(5.18941e-05 -1.47076e-06 1.58724e-17)
(5.19511e-05 -4.22853e-06 1.08683e-17)
(5.20903e-05 -6.91353e-06 5.51342e-18)
(5.23619e-05 -9.3812e-06 9.42326e-19)
(5.28106e-05 -1.18082e-05 -2.33727e-18)
(5.35479e-05 -1.44956e-05 -3.51718e-18)
(5.47272e-05 -1.74517e-05 -6.70444e-19)
(5.66149e-05 -2.06591e-05 4.61023e-18)
(5.97591e-05 -2.42166e-05 3.69461e-18)
(6.55451e-05 -2.86703e-05 9.94529e-18)
(7.56044e-05 -3.49644e-05 2.75681e-17)
(9.15267e-05 -4.45129e-05 4.25722e-17)
(0.000115898 -6.01648e-05 4.46495e-17)
(0.000152442 -8.48076e-05 4.22004e-17)
(0.000204631 -0.000121848 2.59128e-17)
(0.000274701 -0.000175662 -9.16447e-18)
(0.00036386 -0.000249308 -1.03918e-17)
(0.000471682 -0.000344137 5.21391e-18)
(0.000595614 -0.000459513 2.56978e-18)
(0.000732077 -0.000593242 -9.36549e-18)
(0.000876789 -0.00074253 -2.19163e-17)
(0.00102578 -0.000904779 -4.25023e-17)
(0.00117574 -0.00107798 -5.92394e-17)
(0.00132047 -0.00126417 -5.10587e-17)
(0.00199123 -0.000928802 -3.7147e-17)
(0.00236381 0.00115952 6.03853e-18)
(0.00164564 0.00156075 -1.09133e-17)
(0.00151653 0.00137304 -1.2481e-17)
(0.00137847 0.00119602 -9.24486e-18)
(0.00123614 0.00102684 -3.14731e-18)
(0.00109123 0.000866295 1.45299e-17)
(0.000946113 0.000715637 2.70593e-17)
(0.000803767 0.000576861 2.29719e-17)
(0.000667954 0.000452391 1.0367e-17)
(0.00054294 0.000344589 -2.57499e-17)
(0.000432256 0.000255176 -3.39252e-17)
(0.000338492 0.000184537 3.42472e-17)
(0.000262637 0.000131361 5.93747e-17)
(0.000203483 9.32808e-05 -3.74084e-17)
(0.000159482 6.71457e-05 -8.7312e-17)
(0.00012803 4.91265e-05 -2.82395e-17)
(0.000106253 3.6718e-05 -5.73617e-18)
(9.13213e-05 2.84599e-05 -3.64953e-18)
(8.10139e-05 2.26242e-05 -3.58129e-18)
(7.38888e-05 1.79733e-05 -4.9678e-18)
(6.90308e-05 1.40578e-05 1.90772e-17)
(6.59443e-05 1.06726e-05 2.99327e-17)
(6.43813e-05 7.55771e-06 1.7921e-17)
(6.35488e-05 4.48758e-06 1.68163e-17)
(6.3177e-05 1.43817e-06 2.27339e-17)
(6.31758e-05 -1.60111e-06 2.19028e-17)
(6.35452e-05 -4.65017e-06 1.23047e-17)
(6.43758e-05 -7.71913e-06 4.80154e-18)
(6.59387e-05 -1.08326e-05 -1.20223e-18)
(6.90315e-05 -1.42194e-05 -6.24943e-18)
(7.38947e-05 -1.81384e-05 -2.9516e-18)
(8.10276e-05 -2.27923e-05 6.65449e-18)
(9.13481e-05 -2.86334e-05 1.33812e-17)
(0.000106301 -3.69071e-05 6.95515e-18)
(0.000128115 -4.93346e-05 8.77429e-18)
(0.000159614 -6.73752e-05 2.6095e-17)
(0.000203675 -9.3548e-05 3.24938e-17)
(0.000262898 -0.000131677 3.72996e-17)
(0.000338837 -0.000184914 4.40366e-17)
(0.000432692 -0.000255628 2.37332e-17)
(0.000543465 -0.000345121 1.50994e-18)
(0.000668566 -0.000453003 1.50291e-18)
(0.000804454 -0.000577549 -1.69325e-17)
(0.000946863 -0.000716396 -4.70762e-17)
(0.00109203 -0.000867116 -6.31224e-17)
(0.00123698 -0.00102771 -6.74973e-17)
(0.00137934 -0.00119694 -5.9464e-17)
(0.0015174 -0.001374 -3.80983e-17)
(0.00164651 -0.00156175 -2.02744e-17)
(0.00236494 -0.00116024 -1.60257e-17)
(0.00270612 0.00138593 -7.08334e-18)
(0.00195322 0.00184067 -7.87709e-18)
(0.00184169 0.00165302 -7.71476e-18)
(0.00172056 0.00147512 -1.00441e-17)
(0.00159382 0.00130392 -1.13663e-17)
(0.00146215 0.00113987 -3.54225e-18)
(0.00132639 0.000983446 4.2821e-18)
(0.00118772 0.000835381 1.5999e-18)
(0.00104818 0.000696727 6.1879e-18)
(0.000910368 0.000569161 -6.19066e-18)
(0.000777539 0.000454629 -2.43652e-17)
(0.000653422 0.00035474 1.08159e-17)
(0.000541406 0.000270644 2.89966e-17)
(0.000443704 0.000202525 -4.57058e-17)
(0.000361724 0.000149454 -1.06114e-16)
(0.000295305 0.000109376 -3.32035e-17)
(0.000242786 7.99146e-05 1.70924e-17)
(0.000202342 5.88655e-05 1.27739e-17)
(0.000172048 4.38468e-05 5.5246e-18)
(0.000149774 3.27339e-05 4.59973e-18)
(0.000133733 2.40726e-05 2.49739e-17)
(0.000122594 1.69267e-05 3.74219e-17)
(0.000115339 1.11351e-05 1.20678e-17)
(0.000110963 6.39734e-06 1.73084e-18)
(0.000108906 2.04427e-06 2.04745e-17)
(0.000108908 -2.20565e-06 1.86372e-17)
(0.000110973 -6.55906e-06 2.33032e-18)
(0.000115357 -1.12984e-05 -6.15914e-18)
(0.000122625 -1.70971e-05 -5.87307e-18)
(0.000133784 -2.42502e-05 -2.61302e-18)
(0.000149848 -3.29175e-05 5.96297e-18)
(0.000172154 -4.40423e-05 2.40198e-17)
(0.000202489 -5.90809e-05 2.90162e-17)
(0.000242985 -8.0161e-05 1.22101e-17)
(0.000295563 -0.000109661 4.61721e-18)
(0.000362055 -0.000149785 2.47938e-18)
(0.000444117 -0.000202913 5.65565e-18)
(0.000541901 -0.000271098 1.89709e-17)
(0.000654 -0.000355264 4.28809e-17)
(0.000778193 -0.000455224 2.32502e-17)
(0.000911087 -0.000569824 -3.97197e-18)
(0.00104895 -0.000697453 -3.48059e-17)
(0.00118854 -0.000836163 -5.85054e-17)
(0.00132724 -0.000984282 -6.86751e-17)
(0.00146302 -0.00114075 -6.29555e-17)
(0.00159471 -0.00130484 -5.50717e-17)
(0.00172145 -0.00147607 -4.45606e-17)
(0.00184257 -0.00165399 -2.19721e-17)
(0.00195409 -0.00184166 -6.32364e-18)
(0.00270724 -0.00138665 -7.0199e-18)
(0.00302182 0.00160703 -1.82682e-17)
(0.00224277 0.0021041 -4.8607e-18)
(0.00214757 0.00191615 -3.15344e-18)
(0.00204316 0.00173736 -7.35935e-18)
(0.00193329 0.00156472 -1.25578e-17)
(0.00181841 0.00139868 -1.23405e-17)
(0.00169891 0.00123962 -1.26316e-17)
(0.00157527 0.00108789 -1.33234e-17)
(0.00144816 0.000943902 -5.62114e-18)
(0.00131848 0.000808318 -7.46238e-18)
(0.0011879 0.000682044 -2.02355e-17)
(0.00105865 0.000566105 -9.09295e-18)
(0.000933322 0.000461797 -3.5849e-18)
(0.000814793 0.000370171 -5.10572e-17)
(0.00070588 0.000291703 -7.94744e-17)
(0.000608811 0.000226368 -1.22471e-17)
(0.000524569 0.000173407 4.47215e-17)
(0.000453557 0.0001315 3.57145e-17)
(0.000395492 9.88995e-05 1.5147e-17)
(0.000349331 7.36067e-05 -5.10838e-20)
(0.000313656 5.37362e-05 1.87954e-17)
(0.000286975 3.7793e-05 1.24893e-17)
(0.000267916 2.48605e-05 -2.51979e-17)
(0.000255795 1.41047e-05 -8.10711e-18)
(0.00024993 4.5227e-06 1.92964e-17)
(0.000249943 -4.69707e-06 1.37721e-17)
(0.000255836 -1.42821e-05 -1.275e-17)
(0.000267988 -2.5045e-05 -1.8775e-17)
(0.000287083 -3.79902e-05 -6.80882e-18)
(0.000313804 -5.39491e-05 -6.7422e-18)
(0.000349528 -7.38386e-05 6.66649e-18)
(0.000395747 -9.91584e-05 4.01249e-17)
(0.000453878 -0.000131795 4.21888e-17)
(0.000524962 -0.000173747 2.70589e-17)
(0.000609276 -0.00022676 1.59977e-17)
(0.000706421 -0.000292151 1.27781e-17)
(0.000815407 -0.00037068 -3.69745e-18)
(0.000934001 -0.000462366 -1.03371e-17)
(0.00105938 -0.000566733 -1.62814e-17)
(0.00118868 -0.000682728 -2.55689e-17)
(0.00131929 -0.000809054 -3.72486e-17)
(0.001449 -0.000944688 -5.2303e-17)
(0.00157613 -0.00108872 -4.33168e-17)
(0.00169979 -0.0012405 -3.63804e-17)
(0.0018193 -0.0013996 -3.68837e-17)
(0.00193419 -0.00156566 -3.82194e-17)
(0.00204405 -0.00173832 -3.05659e-17)
(0.00214846 -0.00191712 -1.37527e-17)
(0.00224364 -0.00210507 -4.50303e-18)
(0.0030229 -0.00160773 -6.13593e-18)
(0.00331573 0.00182331 -1.4723e-17)
(0.002517 0.00235358 -4.77553e-18)
(0.00243638 0.00216459 -1.73658e-18)
(0.00234706 0.00198424 -6.69153e-18)
(0.00225273 0.00180955 -1.19852e-17)
(0.00215377 0.00164104 -1.36172e-17)
(0.0020506 0.00147911 -1.73166e-17)
(0.00194362 0.00132413 -2.10097e-17)
(0.00183322 0.00117639 -1.90147e-17)
(0.00171986 0.00103625 -1.6337e-17)
(0.00160422 0.000904098 -3.14482e-17)
(0.00148722 0.000780423 -3.94697e-17)
(0.00137009 0.000665834 -2.48365e-17)
(0.00125465 0.000560963 -2.17995e-17)
(0.00114296 0.000466273 -3.4177e-17)
(0.00103717 0.000382312 -1.17123e-17)
(0.000939295 0.000309275 4.36132e-17)
(0.000851108 0.000246716 4.88114e-17)
(0.000773934 0.000193869 2.5838e-17)
(0.000708514 0.000149633 9.2925e-18)
(0.000654908 0.000112658 -2.2875e-18)
(0.000612724 8.15368e-05 -3.23606e-17)
(0.000581464 5.49478e-05 -5.34117e-17)
(0.000560887 3.16235e-05 -2.39799e-17)
(0.000550707 1.02557e-05 1.84234e-17)
(0.000550734 -1.0468e-05 2.71417e-18)
(0.000560968 -3.18421e-05 -3.46966e-17)
(0.000581603 -5.51793e-05 -3.52668e-17)
(0.000612924 -8.17874e-05 -2.26392e-17)
(0.000655171 -0.000112933 -3.63734e-19)
(0.000708845 -0.000149938 2.04763e-17)
(0.000774337 -0.000194212 3.93499e-17)
(0.000851584 -0.000247103 3.8271e-17)
(0.000939841 -0.000309709 1.80055e-17)
(0.00103779 -0.000382796 -5.56656e-19)
(0.00114363 -0.00046681 -1.69782e-17)
(0.00125537 -0.000561551 -3.4578e-17)
(0.00137085 -0.000666469 -4.6473e-17)
(0.00148801 -0.000781107 -5.2475e-17)
(0.00160504 -0.000904831 -3.12181e-17)
(0.0017207 -0.00103703 -2.58555e-17)
(0.00183408 -0.00117722 -2.80329e-17)
(0.00194449 -0.00132499 -1.95709e-17)
(0.00205149 -0.00148002 -1.62028e-17)
(0.00215467 -0.00164197 -2.09775e-17)
(0.00225363 -0.00181051 -2.4225e-17)
(0.00234796 -0.00198521 -1.98091e-17)
(0.00243727 -0.00216555 -9.8595e-18)
(0.00251787 -0.00235452 -7.28314e-18)
(0.00331678 -0.00182396 -7.79608e-18)
(0.00359161 0.00203522 -5.3418e-18)
(0.00277843 0.00259136 -4.30966e-18)
(0.00271089 0.00240066 -1.86364e-18)
(0.00263511 0.00221811 -8.09181e-18)
(0.00255468 0.00204074 -1.18513e-17)
(0.00246999 0.00186908 -1.22358e-17)
(0.00238147 0.00170355 -1.79071e-17)
(0.00228958 0.00154456 -2.64431e-17)
(0.00219475 0.00139243 -2.90211e-17)
(0.00209747 0.00124746 -2.97329e-17)
(0.00199825 0.00110992 -4.28903e-17)
(0.0018977 0.000980114 -5.62595e-17)
(0.00179655 0.000858322 -4.48459e-17)
(0.00169578 0.000744835 -2.57175e-17)
(0.00159656 0.000639888 -1.8085e-17)
(0.00150017 0.000543734 -7.02289e-18)
(0.00140829 0.000456528 3.48793e-17)
(0.00132261 0.000378123 5.04945e-17)
(0.00124469 0.000308115 3.29808e-17)
(0.00117591 0.000245951 2.1572e-17)
(0.00111734 0.000190901 -2.81125e-18)
(0.00106971 0.000141923 -3.2852e-17)
(0.00103356 9.77766e-05 -3.28266e-17)
(0.00100926 5.71639e-05 -6.83137e-18)
(0.00099707 1.87206e-05 1.46402e-17)
(0.000997107 -1.89937e-05 -2.0873e-19)
(0.00100937 -5.74456e-05 -3.28675e-17)
(0.00103374 -9.80742e-05 -3.77223e-17)
(0.00106997 -0.000142242 -1.08469e-17)
(0.00111767 -0.000191249 -6.79885e-18)
(0.00117632 -0.000246333 -1.09084e-17)
(0.00124517 -0.000308534 -8.72959e-19)
(0.00132315 -0.000378584 -6.93557e-18)
(0.0014089 -0.000457032 -1.63416e-17)
(0.00150083 -0.000544282 -2.53591e-17)
(0.00159727 -0.000640481 -3.71419e-17)
(0.00169653 -0.00074547 -3.23206e-17)
(0.00179732 -0.000859 -2.51999e-17)
(0.0018985 -0.000980835 -1.82526e-17)
(0.00199907 -0.00111069 -9.0449e-18)
(0.00209831 -0.00124826 -1.43593e-17)
(0.0021956 -0.00139328 -1.43103e-17)
(0.00229044 -0.00154546 -6.79366e-18)
(0.00238236 -0.00170448 -5.32042e-18)
(0.00247088 -0.00187003 -1.06285e-17)
(0.00255558 -0.0020417 -1.58338e-17)
(0.002636 -0.00221907 -1.36502e-17)
(0.00271177 -0.00240159 -7.49001e-18)
(0.00277929 -0.00259223 -8.99781e-18)
(0.00359262 -0.00203581 -9.33187e-18)
(0.00385226 0.00224312 -2.16184e-18)
(0.00302899 0.00281916 -2.6959e-18)
(0.00297336 0.00262624 -1.8592e-18)
(0.00290987 0.00244097 -6.1573e-18)
(0.002842 0.00226044 -8.66706e-18)
(0.00277012 0.00208513 -8.85651e-18)
(0.00269466 0.00191547 -1.52176e-17)
(0.00261608 0.00175186 -2.57063e-17)
(0.00253487 0.00159464 -3.28461e-17)
(0.00245157 0.0014441 -3.62132e-17)
(0.00236673 0.0013005 -4.42331e-17)
(0.00228095 0.00116407 -5.42368e-17)
(0.0021949 0.00103501 -4.77474e-17)
(0.00210934 0.000913449 -3.60098e-17)
(0.00202511 0.000799506 -3.50863e-17)
(0.00194315 0.000693224 -2.98909e-17)
(0.00186461 0.000594577 6.51033e-18)
(0.00179071 0.000503394 2.77305e-17)
(0.00172266 0.000419344 1.83803e-17)
(0.00166165 0.000341972 1.15065e-17)
(0.00160883 0.000270691 -8.00409e-18)
(0.00156526 0.000204696 -2.05118e-17)
(0.00153182 0.000142985 -1.47365e-17)
(0.00150915 8.44282e-05 9.74332e-19)
(0.00149771 2.78116e-05 2.0499e-17)
(0.00149775 -2.81526e-05 1.84438e-18)
(0.00150926 -8.4779e-05 -2.77506e-17)
(0.00153201 -0.000143352 -2.62134e-17)
(0.00156554 -0.000205086 -1.60403e-17)
(0.00160918 -0.000271107 -2.37515e-17)
(0.00166207 -0.00034242 -3.60095e-17)
(0.00172315 -0.000419828 -3.1732e-17)
(0.00179126 -0.000503915 -2.59493e-17)
(0.00186522 -0.000595136 -2.03549e-17)
(0.00194382 -0.000693821 -1.65815e-17)
(0.00202581 -0.000800141 -1.74948e-17)
(0.00211008 -0.000914122 -1.41125e-17)
(0.00219567 -0.00103572 -6.36237e-18)
(0.00228174 -0.00116483 2.55877e-19)
(0.00236754 -0.0013013 2.07629e-18)
(0.00245239 -0.00144494 -5.99109e-18)
(0.00253571 -0.00159552 -7.1555e-18)
(0.00261693 -0.00175278 -1.5407e-19)
(0.00269553 -0.00191642 7.22498e-19)
(0.00277101 -0.00208609 -5.50297e-18)
(0.00284289 -0.00226139 -1.19658e-17)
(0.00291074 -0.0024419 -1.16664e-17)
(0.00297422 -0.00262712 -7.86916e-18)
(0.00302982 -0.00281996 -1.08763e-17)
(0.00385323 -0.00224364 -1.33086e-17)
(0.00409989 0.00244727 -2.55057e-18)
(0.00327013 0.00303833 -8.03459e-19)
(0.0032255 0.00284278 -1.18873e-18)
(0.00317331 0.00265439 -3.20494e-18)
(0.00311693 0.00247033 -3.96552e-18)
(0.00305671 0.00229102 -5.64501e-18)
(0.00299305 0.00211688 -1.12866e-17)
(0.0029264 0.0019483 -2.02884e-17)
(0.00285726 0.00178559 -3.0339e-17)
(0.00278615 0.00162905 -3.48031e-17)
(0.00271367 0.0014789 -3.87856e-17)
(0.00264042 0.00133536 -4.43837e-17)
(0.00256706 0.00119858 -4.18365e-17)
(0.0024943 0.00106865 -3.69784e-17)
(0.0024229 0.000945622 -3.95981e-17)
(0.0023537 0.000829452 -4.03217e-17)
(0.00228757 0.000720027 -2.10021e-17)
(0.00222546 0.000617131 -9.9025e-18)
(0.00216831 0.000520425 -1.63164e-17)
(0.00211707 0.000429459 -1.93709e-17)
(0.00207266 0.000343668 -3.11798e-17)
(0.00203596 0.000262344 -3.83916e-17)
(0.00200775 0.000184645 -2.90499e-17)
(0.0019886 0.000109615 -1.46048e-17)
(0.00197893 3.62201e-05 -3.35249e-18)
(0.00197897 -3.66264e-05 -1.50494e-17)
(0.00198871 -0.000110031 -2.9705e-17)
(0.00200794 -0.000185078 -2.21005e-17)
(0.00203623 -0.000262798 -1.55376e-17)
(0.002073 -0.000344146 -1.93121e-17)
(0.00211748 -0.000429968 -2.31832e-17)
(0.00216879 -0.000520968 -2.20889e-17)
(0.002226 -0.000617709 -2.00208e-17)
(0.00228817 -0.000720639 -1.50041e-17)
(0.00235435 -0.000830093 -9.59744e-18)
(0.0024236 -0.000946293 -1.26324e-17)
(0.00249503 -0.00106936 -7.28929e-18)
(0.00256781 -0.00119932 4.08932e-18)
(0.0026412 -0.00133614 7.53376e-18)
(0.00271447 -0.00147972 4.55496e-18)
(0.00278697 -0.00162991 -1.4953e-18)
(0.00285809 -0.0017865 -3.88347e-18)
(0.00292725 -0.00194924 -4.47091e-20)
(0.00299392 -0.00211785 2.75879e-18)
(0.00305758 -0.00229197 -3.0575e-18)
(0.00311779 -0.00247125 -9.96832e-18)
(0.00317414 -0.00265528 -1.19186e-17)
(0.00322631 -0.00284358 -1.04063e-17)
(0.00327091 -0.00303903 -1.23375e-17)
(0.00410079 -0.00244772 -1.7896e-17)
(0.00433629 0.0026479 -9.40259e-19)
(0.00350303 0.00324994 -3.77394e-19)
(0.00346864 0.00305142 2.69348e-19)
(0.00342694 0.00285962 1.1099e-18)
(0.00338119 0.00267172 1.13362e-18)
(0.0033317 0.00248815 -2.73286e-18)
(0.00327885 0.0023093 -8.86888e-18)
(0.00322307 0.00213552 -1.50826e-17)
(0.00316483 0.00196712 -2.40927e-17)
(0.00310464 0.00180436 -2.94546e-17)
(0.00304307 0.00164747 -3.15567e-17)
(0.00298071 0.00149662 -3.32402e-17)
(0.00291819 0.00135194 -3.41052e-17)
(0.00285619 0.0012135 -3.55389e-17)
(0.00279542 0.00108131 -3.92453e-17)
(0.00273664 0.000955311 -3.93033e-17)
(0.0026806 0.000835353 -3.03541e-17)
(0.0026281 0.000721203 -2.77574e-17)
(0.00257994 0.000612523 -3.14991e-17)
(0.00253687 0.000508875 -3.17775e-17)
(0.00249966 0.000409722 -3.9236e-17)
(0.00246897 0.000314419 -4.49195e-17)
(0.0024454 0.000222222 -3.95606e-17)
(0.00242943 0.000132309 -2.98477e-17)
(0.00242139 4.37909e-05 -2.41705e-17)
(0.00242143 -4.42597e-05 -3.13813e-17)
(0.00242955 -0.000132786 -3.42089e-17)
(0.00244559 -0.000222716 -2.26355e-17)
(0.00246923 -0.000314933 -1.56163e-17)
(0.00249999 -0.000410259 -1.32326e-17)
(0.00253728 -0.000509441 -1.09909e-17)
(0.0025804 -0.000613123 -1.29723e-17)
(0.00262863 -0.000721836 -1.42688e-17)
(0.00268119 -0.000836012 -1.08179e-17)
(0.00273728 -0.000955991 -5.98225e-18)
(0.00279611 -0.00108201 -8.25852e-18)
(0.0028569 -0.00121423 -4.07602e-18)
(0.00291893 -0.0013527 7.99895e-18)
(0.00298148 -0.00149742 9.05566e-18)
(0.00304386 -0.00164832 5.08528e-18)
(0.00310546 -0.00180526 1.37837e-18)
(0.00316566 -0.00196806 -3.7179e-18)
(0.00322391 -0.00213649 -2.69859e-18)
(0.0032797 -0.00231026 9.63803e-19)
(0.00333253 -0.00248908 -4.45313e-18)
(0.003382 -0.0026726 -1.03777e-17)
(0.00342772 -0.00286042 -1.13828e-17)
(0.00346938 -0.00305213 -1.03075e-17)
(0.00350374 -0.00325054 -1.27711e-17)
(0.0043371 -0.00264828 -1.73289e-17)
(0.00456295 0.00284526 5.15902e-18)
(0.00372866 0.00345489 1.79151e-18)
(0.00370387 0.00325312 1.91408e-18)
(0.00367198 0.00305764 5.17739e-18)
(0.00363613 0.00286569 6.04738e-18)
(0.00359661 0.00267767 2.14509e-20)
(0.00355376 0.00249393 -6.59504e-18)
(0.00350799 0.0023148 -1.19103e-17)
(0.00345974 0.00214059 -1.89846e-17)
(0.0034095 0.00197153 -2.31377e-17)
(0.00335779 0.00180781 -2.35891e-17)
(0.00330517 0.00164962 -2.32721e-17)
(0.00325224 0.00149704 -2.72157e-17)
(0.00319964 0.00135013 -3.31975e-17)
(0.003148 0.00120889 -3.58818e-17)
(0.00309803 0.00107323 -3.40902e-17)
(0.00305039 0.00094302 -3.05168e-17)
(0.0030058 0.000818015 -3.08368e-17)
(0.00296493 0.000697893 -3.16195e-17)
(0.00292844 0.000582237 -3.23938e-17)
(0.00289696 0.000470551 -3.75668e-17)
(0.00287105 0.000362252 -4.08092e-17)
(0.00285118 0.000256672 -3.82364e-17)
(0.00283773 0.000153085 -3.32039e-17)
(0.00283096 5.07137e-05 -3.01965e-17)
(0.00283101 -5.12462e-05 -3.29305e-17)
(0.00283786 -0.000153621 -2.99842e-17)
(0.00285138 -0.000257222 -1.94748e-17)
(0.00287132 -0.000362822 -1.427e-17)
(0.0028973 -0.000471144 -8.60914e-18)
(0.00292884 -0.000582856 -3.66488e-18)
(0.00296539 -0.000698544 -5.82076e-18)
(0.00300632 -0.000818697 -7.90855e-18)
(0.00305097 -0.000943723 -6.86956e-18)
(0.00309865 -0.00107395 -4.26351e-18)
(0.00314867 -0.00120962 -5.81275e-18)
(0.00320034 -0.00135089 -2.02363e-18)
(0.00325298 -0.00149783 6.69912e-18)
(0.00330594 -0.00165045 5.75557e-18)
(0.00335858 -0.0018087 2.44431e-18)
(0.00341031 -0.00197245 1.65934e-18)
(0.00346056 -0.00214154 -3.58333e-18)
(0.00350881 -0.00231576 -5.59985e-18)
(0.00355456 -0.00249485 -2.42616e-18)
(0.00359738 -0.00267853 -6.58268e-18)
(0.00363687 -0.00286649 -1.14077e-17)
(0.00367268 -0.00305834 -1.17749e-17)
(0.00370453 -0.00325373 -1.04809e-17)
(0.00372929 -0.0034554 -1.17941e-17)
(0.00456367 -0.0028456 -1.22232e-17)
(0.00478118 0.00303964 9.31155e-18)
(0.00394788 0.00365399 2.13075e-18)
(0.00393212 0.00344871 2.88263e-18)
(0.00390945 0.00324931 6.43584e-18)
(0.00388287 0.00305312 7.07928e-18)
(0.00385265 0.00286048 8.47735e-19)
(0.00381912 0.00267171 -4.19458e-18)
(0.00378265 0.00248715 -8.58956e-18)
(0.00374364 0.00230704 -1.49691e-17)
(0.00370256 0.00213163 -1.82104e-17)
(0.00365989 0.0019611 -1.64377e-17)
(0.00361615 0.00179559 -1.48523e-17)
(0.00357191 0.00163519 -2.11654e-17)
(0.00352774 0.00147994 -2.93736e-17)
(0.00348423 0.00132983 -2.94975e-17)
(0.003442 0.00118477 -2.61219e-17)
(0.00340168 0.00104462 -2.53345e-17)
(0.00336389 0.000909154 -2.73601e-17)
(0.00332923 0.000778078 -2.72747e-17)
(0.00329828 0.000650992 -2.75716e-17)