/*--------------------------------*- C++ -*----------------------------------*\
  =========                 |
  \\      /  F ield         | OpenFOAM: The Open Source CFD Toolbox
   \\    /   O peration     | Website:  https://openfoam.org
    \\  /    A nd           | Version:  7
     \\/     M anipulation  |
\*---------------------------------------------------------------------------*/
FoamFile
{
    version     2.0;
    format      ascii;
    class       volVectorField;
    location    "48000";
    object      vorticity;
}
// * * * * * * * * * * * * * * * * * * * * * * * * * * * * * * * * * * * * * //

dimensions      [0 0 -1 0 0 0 0];

internalField   nonuniform List<vector> 
4782
(
(-0.0781037 -0.0587939 1.14257e-17)
(-0.0797295 -0.0600131 9.53893e-18)
(-0.0813332 -0.0612155 8.90143e-18)
(-0.0829151 -0.0624016 8.6224e-18)
(-0.0844757 -0.0635714 7.94487e-18)
(-0.086015 -0.0647252 7.11504e-18)
(-0.0875336 -0.0658632 6.13401e-18)
(-0.0890316 -0.0669857 6.01998e-18)
(-0.0905093 -0.0680929 5.813e-18)
(-0.091967 -0.069185 5.64529e-18)
(-0.000212329 -0.000176418 2.67952e-17)
(-0.000199609 -0.000166619 2.63969e-17)
(-0.00019362 -0.000162025 2.58634e-17)
(-0.000200751 -0.000167856 2.5165e-17)
(-0.000230666 -0.000191911 2.31454e-17)
(-0.000301628 -0.000248834 2.10707e-17)
(-0.000450667 -0.000368301 2.0063e-17)
(-0.000750202 -0.00060847 2.34751e-17)
(-0.00132402 -0.00106912 3.02385e-17)
(-0.0023365 -0.00188341 3.34244e-17)
(-0.00392391 -0.0031623 2.30293e-17)
(-0.00609533 -0.00491311 1.36455e-17)
(-0.00870044 -0.00701332 1.31566e-17)
(-0.0115099 -0.00927666 1.67113e-17)
(-0.0143302 -0.0115468 2.01268e-17)
(-0.0170582 -0.013741 2.13902e-17)
(-0.0196666 -0.015838 1.99149e-17)
(-0.0221669 -0.0178475 1.64805e-17)
(-0.024581 -0.0197872 1.16118e-17)
(-0.0269285 -0.0216729 6.52473e-18)
(-0.029223 -0.0235158 2.17923e-18)
(-0.0314734 -0.0253229 -6.70059e-19)
(-0.033685 -0.0270985 -1.95552e-18)
(-0.035861 -0.0288454 -2.15574e-18)
(-0.0380038 -0.0305652 -1.21523e-18)
(-0.0401147 -0.0322591 9.24619e-20)
(-0.0421948 -0.0339281 1.44455e-18)
(-0.044245 -0.0355729 2.98323e-18)
(-0.046266 -0.037194 4.7351e-18)
(-0.0482585 -0.038792 6.4389e-18)
(-0.050223 -0.0403674 7.60075e-18)
(-0.0521602 -0.0419205 8.52681e-18)
(-0.0540704 -0.0434519 9.39318e-18)
(-0.0559541 -0.0449618 1.03119e-17)
(-0.0578118 -0.0464507 1.08935e-17)
(-0.059644 -0.0479189 1.11737e-17)
(-0.0614509 -0.0493667 1.16008e-17)
(-0.0632331 -0.0507945 1.16718e-17)
(-0.0649908 -0.0522025 1.10443e-17)
(-0.0667245 -0.0535911 9.91118e-18)
(-0.0684345 -0.0549606 8.98419e-18)
(-0.0701212 -0.0563113 8.39592e-18)
(-0.0717849 -0.0576434 7.15671e-18)
(-0.0734259 -0.0589572 6.20664e-18)
(-0.0750446 -0.0602529 5.77093e-18)
(-0.0766413 -0.061531 5.36438e-18)
(-0.0782164 -0.0627915 4.27867e-18)
(-0.07977 -0.0640348 2.64864e-18)
(-0.0813026 -0.0652611 9.15262e-19)
(-0.0828144 -0.0664707 -9.7901e-19)
(-0.0843057 -0.0676638 -2.42299e-18)
(-0.0857768 -0.0688406 -3.21233e-18)
(-0.0872281 -0.0700013 -3.75074e-18)
(-0.0886596 -0.0711462 -3.69251e-18)
(-0.0900718 -0.0722755 -3.1822e-18)
(-0.000204891 -0.000179566 1.56369e-17)
(-0.000193841 -0.000170531 1.74272e-17)
(-0.000191604 -0.000168921 1.61077e-17)
(-0.000205408 -0.000180931 9.32277e-18)
(-0.000247032 -0.000216636 -7.75855e-19)
(-0.000339689 -0.000295852 -1.13407e-17)
(-0.000530343 -0.000458684 -1.30454e-17)
(-0.000907137 -0.000780609 -6.56773e-18)
(-0.00160893 -0.00138102 1.31514e-17)
(-0.00279573 -0.00239818 3.54955e-17)
(-0.00456244 -0.0039144 4.93782e-17)
(-0.00685614 -0.00588376 5.89243e-17)
(-0.00948883 -0.00814329 6.42147e-17)
(-0.0122405 -0.010503 6.53849e-17)
(-0.0149547 -0.0128289 6.34832e-17)
(-0.017563 -0.0150628 5.81636e-17)
(-0.020057 -0.017198 5.01428e-17)
(-0.022454 -0.0192497 4.07382e-17)
(-0.024775 -0.021236 3.14271e-17)
(-0.0270368 -0.0231714 2.32637e-17)
(-0.0292508 -0.0250656 1.70913e-17)
(-0.0314241 -0.0269248 1.35217e-17)
(-0.033561 -0.0287526 1.29854e-17)
(-0.0356642 -0.0305515 1.44987e-17)
(-0.0377356 -0.0323229 1.66426e-17)
(-0.0397764 -0.0340679 1.88086e-17)
(-0.0417876 -0.0357874 1.99757e-17)
(-0.0437699 -0.0374821 2.02023e-17)
(-0.0457241 -0.0391526 2.00448e-17)
(-0.0476508 -0.0407993 2.00594e-17)
(-0.0495505 -0.0424228 1.99503e-17)
(-0.0514237 -0.0440235 1.91434e-17)
(-0.0532708 -0.0456019 1.85176e-17)
(-0.0550924 -0.0471582 1.78109e-17)
(-0.0568888 -0.0486928 1.69343e-17)
(-0.0586605 -0.0502062 1.5954e-17)
(-0.0604078 -0.0516987 1.51577e-17)
(-0.0621312 -0.0531705 1.39231e-17)
(-0.0638309 -0.054622 1.29754e-17)
(-0.0655074 -0.0560536 1.21981e-17)
(-0.0671609 -0.0574654 1.05417e-17)
(-0.0687919 -0.0588579 9.08624e-18)
(-0.0704007 -0.0602313 7.85018e-18)
(-0.0719876 -0.0615859 6.68461e-18)
(-0.0735528 -0.0629219 6.0012e-18)
(-0.0750968 -0.0642397 4.99795e-18)
(-0.0766198 -0.0655394 3.37714e-18)
(-0.0781221 -0.0668214 1.67665e-18)
(-0.0796041 -0.068086 -2.2057e-19)
(-0.0810659 -0.0693332 -2.32682e-18)
(-0.0825079 -0.0705635 -4.46844e-18)
(-0.0839304 -0.071777 -5.80823e-18)
(-0.0853336 -0.0729741 -6.93822e-18)
(-0.0867179 -0.0741548 -6.27765e-18)
(-0.0880833 -0.0753194 -3.97071e-18)
(-0.000197122 -0.000182314 -2.20914e-18)
(-0.000188849 -0.000175128 -4.76865e-18)
(-0.000191672 -0.000177976 -7.14241e-18)
(-0.000213999 -0.000198508 -1.01783e-17)
(-0.000270628 -0.00025018 -1.54411e-17)
(-0.000391433 -0.000360126 -2.43745e-17)
(-0.000635661 -0.000582227 -3.26252e-17)
(-0.0011082 -0.00101216 -4.19776e-17)
(-0.00195779 -0.00178623 -3.82632e-17)
(-0.00332591 -0.00303467 -2.17439e-17)
(-0.00525427 -0.0047959 3.03545e-18)
(-0.00763309 -0.0069686 2.58514e-17)
(-0.010255 -0.00936191 4.44972e-17)
(-0.0129237 -0.0117961 5.4863e-17)
(-0.0155217 -0.0141645 5.60678e-17)
(-0.0180094 -0.0164315 5.03912e-17)
(-0.0203916 -0.0186018 4.20329e-17)
(-0.0226876 -0.0206934 3.44211e-17)
(-0.0249169 -0.0227241 2.88212e-17)
(-0.0270934 -0.0247066 2.55038e-17)
(-0.0292266 -0.0266495 2.4372e-17)
(-0.031322 -0.0285578 2.48779e-17)
(-0.0333831 -0.0304349 2.64376e-17)
(-0.0354124 -0.0322828 2.88161e-17)
(-0.0374111 -0.0341028 3.14477e-17)
(-0.0393805 -0.035896 3.41569e-17)
(-0.0413215 -0.0376631 3.62188e-17)
(-0.0432347 -0.0394049 3.76066e-17)
(-0.0451207 -0.0411219 3.82645e-17)
(-0.0469803 -0.0428146 3.8458e-17)
(-0.0488138 -0.0444835 3.79695e-17)
(-0.0506217 -0.046129 3.69694e-17)
(-0.0524045 -0.0477516 3.64029e-17)
(-0.0541626 -0.0493517 3.5655e-17)
(-0.0558965 -0.0509295 3.39107e-17)
(-0.0576064 -0.0524856 3.21422e-17)
(-0.0592929 -0.0540201 3.00406e-17)
(-0.0609562 -0.0555335 2.8165e-17)
(-0.0625966 -0.0570261 2.67668e-17)
(-0.0642147 -0.0584982 2.55854e-17)
(-0.0658106 -0.0599501 2.41874e-17)
(-0.0673847 -0.0613821 2.29507e-17)
(-0.0689373 -0.0627945 2.19557e-17)
(-0.0704688 -0.0641876 2.01421e-17)
(-0.0719794 -0.0655616 1.82086e-17)
(-0.0734695 -0.0669169 1.64179e-17)
(-0.0749393 -0.0682537 1.48519e-17)
(-0.0763892 -0.0695723 1.32507e-17)
(-0.0778194 -0.0708729 1.05464e-17)
(-0.0792301 -0.0721558 7.32976e-18)
(-0.0806217 -0.0734213 4.51043e-18)
(-0.0819945 -0.0746695 1.65332e-18)
(-0.0833487 -0.0759008 -1.21312e-18)
(-0.0846845 -0.0771154 -3.33419e-19)
(-0.0860022 -0.0783134 2.69216e-18)
(-0.000195168 -0.00017932 1.41115e-17)
(-0.000190584 -0.000175428 1.86999e-17)
(-0.000200194 -0.000184415 2.51395e-17)
(-0.000234397 -0.00021581 3.3503e-17)
(-0.000312705 -0.000287479 4.15352e-17)
(-0.000474627 -0.000435618 4.79204e-17)
(-0.000795573 -0.000729516 4.55695e-17)
(-0.00139893 -0.00128316 3.21901e-17)
(-0.00243758 -0.00223903 3.21865e-17)
(-0.00402128 -0.00370144 5.32277e-17)
(-0.00613048 -0.00565526 7.77478e-17)
(-0.00860595 -0.00795454 9.42188e-17)
(-0.011235 -0.0104021 9.70472e-17)
(-0.0138512 -0.0128428 8.65612e-17)
(-0.0163723 -0.0151996 6.90015e-17)
(-0.0187808 -0.0174557 5.11861e-17)
(-0.0210899 -0.0196232 3.64769e-17)
(-0.0233199 -0.0217206 2.59952e-17)
(-0.0254882 -0.0237638 1.9497e-17)
(-0.0276067 -0.0257639 1.61082e-17)
(-0.0296833 -0.0277278 1.51289e-17)
(-0.0317226 -0.0296599 1.57927e-17)
(-0.0337276 -0.0315626 1.75272e-17)
(-0.0357003 -0.0334378 1.92899e-17)
(-0.0376421 -0.0352866 2.13514e-17)
(-0.039554 -0.0371098 2.35826e-17)
(-0.041437 -0.0389081 2.56598e-17)
(-0.0432918 -0.0406821 2.67055e-17)
(-0.045119 -0.0424323 2.733e-17)
(-0.0469192 -0.0441591 2.79226e-17)
(-0.0486931 -0.045863 2.83696e-17)
(-0.050441 -0.0475442 2.89313e-17)
(-0.0521635 -0.0492033 2.87799e-17)
(-0.053861 -0.0508404 2.80859e-17)
(-0.055534 -0.052456 2.80075e-17)
(-0.057183 -0.0540502 2.78743e-17)
(-0.0588083 -0.0556236 2.66216e-17)
(-0.0604102 -0.0571762 2.56698e-17)
(-0.0619893 -0.0587085 2.49607e-17)
(-0.0635459 -0.0602206 2.43409e-17)
(-0.0650803 -0.0617129 2.39291e-17)
(-0.0665929 -0.0631857 2.3328e-17)
(-0.0680841 -0.0646391 2.21002e-17)
(-0.0695541 -0.0660735 2.07549e-17)
(-0.0710034 -0.067489 1.90976e-17)
(-0.0724322 -0.068886 1.6787e-17)
(-0.0738408 -0.0702647 1.4386e-17)
(-0.0752297 -0.0716253 1.24556e-17)
(-0.0765989 -0.0729681 1.03277e-17)
(-0.077949 -0.0742932 7.37996e-18)
(-0.0792801 -0.075601 4.04107e-18)
(-0.0805926 -0.0768916 6.34708e-19)
(-0.0818866 -0.0781653 -2.95242e-18)
(-0.0831626 -0.0794222 -3.05728e-18)
(-0.0844207 -0.0806627 -4.95153e-19)
(-0.00017944 -0.000195279 8.11158e-18)
(-0.000175523 -0.000190746 8.41462e-18)
(-0.00018448 -0.000200402 9.60159e-18)
(-0.000215849 -0.000234658 1.29807e-17)
(-0.0002875 -0.00031303 1.94193e-17)
(-0.000435631 -0.000475038 2.84679e-17)
(-0.000729524 -0.000796093 3.23405e-17)
(-0.00128315 -0.00139957 3.1915e-17)
(-0.00223897 -0.00243832 3.96483e-17)
(-0.00370128 -0.00402207 6.91966e-17)
(-0.00565495 -0.00613124 9.96717e-17)
(-0.00795408 -0.00860663 1.18087e-16)
(-0.0104015 -0.0112356 1.19738e-16)
(-0.0128421 -0.0138517 1.05426e-16)
(-0.0151989 -0.0163727 8.33346e-17)
(-0.0174551 -0.0187812 6.03294e-17)
(-0.0196226 -0.0210903 4.06868e-17)
(-0.02172 -0.0233203 2.6002e-17)
(-0.0237632 -0.0254885 1.58478e-17)
(-0.0257633 -0.0276071 8.94328e-18)
(-0.0277273 -0.0296836 4.67415e-18)
(-0.0296594 -0.0317229 2.68884e-18)
(-0.0315621 -0.0337279 2.03616e-18)
(-0.0334373 -0.0357005 2.0882e-18)
(-0.0352861 -0.0376423 2.69551e-18)
(-0.0371093 -0.0395543 3.63462e-18)
(-0.0389077 -0.0414373 5.10036e-18)
(-0.0406817 -0.043292 5.95843e-18)
(-0.0424319 -0.0451192 6.62493e-18)
(-0.0441588 -0.0469195 7.1207e-18)
(-0.0458626 -0.0486933 7.85491e-18)
(-0.0475439 -0.0504412 9.28377e-18)
(-0.0492029 -0.0521637 1.05282e-17)
(-0.0508401 -0.0538612 1.1281e-17)
(-0.0524557 -0.0555342 1.19963e-17)
(-0.05405 -0.0571832 1.22445e-17)
(-0.0556233 -0.0588084 1.12961e-17)
(-0.0571759 -0.0604104 1.07187e-17)
(-0.0587082 -0.0619895 1.08099e-17)
(-0.0602204 -0.063546 1.02107e-17)
(-0.0617127 -0.0650804 9.73893e-18)
(-0.0631854 -0.0665931 9.55654e-18)
(-0.0646389 -0.0680842 9.33128e-18)
(-0.0660733 -0.0695542 7.8716e-18)
(-0.0674888 -0.0710035 5.55009e-18)
(-0.0688858 -0.0724323 3.65301e-18)
(-0.0702645 -0.0738409 1.95334e-18)
(-0.0716251 -0.0752298 -2.27984e-19)
(-0.0729679 -0.076599 -2.85105e-18)
(-0.0742931 -0.0779491 -5.45778e-18)
(-0.0756009 -0.0792802 -8.24314e-18)
(-0.0768915 -0.0805926 -1.1014e-17)
(-0.0781652 -0.0818867 -1.378e-17)
(-0.0794221 -0.0831627 -1.29822e-17)
(-0.0806625 -0.0844208 -9.35518e-18)
(-0.000182648 -0.000197576 1.61363e-17)
(-0.000175429 -0.000189383 1.74693e-17)
(-0.000178235 -0.000192261 1.81034e-17)
(-0.000198736 -0.000214643 1.85263e-17)
(-0.000250405 -0.000271352 1.86701e-17)
(-0.000360384 -0.000392278 1.95623e-17)
(-0.000582555 -0.000636674 2.28939e-17)
(-0.00101258 -0.00110941 2.80873e-17)
(-0.00178668 -0.00195916 4.07508e-17)
(-0.00303504 -0.00332731 6.1274e-17)
(-0.00479604 -0.00525551 8.32464e-17)
(-0.00696844 -0.00763405 9.7112e-17)
(-0.00936146 -0.0102556 1.02601e-16)
(-0.0117955 -0.0129241 1.00712e-16)
(-0.0141637 -0.015522 9.25363e-17)
(-0.0164307 -0.0180096 7.94005e-17)
(-0.018601 -0.0203917 6.51879e-17)
(-0.0206927 -0.0226878 5.2787e-17)
(-0.0227233 -0.024917 4.34311e-17)
(-0.0247059 -0.0270935 3.67333e-17)
(-0.0266488 -0.0292267 3.23825e-17)
(-0.0285572 -0.0313221 3.01633e-17)
(-0.0304343 -0.0333833 2.95555e-17)
(-0.0322822 -0.0354125 3.0182e-17)
(-0.0341022 -0.0374112 3.14633e-17)
(-0.0358954 -0.0393806 3.33017e-17)
(-0.0376626 -0.0413215 3.49272e-17)
(-0.0394044 -0.0432347 3.64546e-17)
(-0.0411214 -0.0451208 3.72077e-17)
(-0.0428141 -0.0469803 3.71121e-17)
(-0.044483 -0.0488138 3.64137e-17)
(-0.0461286 -0.0506217 3.59163e-17)
(-0.0477512 -0.0524046 3.54141e-17)
(-0.0493513 -0.0541627 3.48017e-17)
(-0.0509291 -0.0558965 3.35214e-17)
(-0.0524852 -0.0576065 3.16979e-17)
(-0.0540197 -0.0592929 2.94911e-17)
(-0.0555332 -0.0609562 2.75021e-17)
(-0.0570258 -0.0625966 2.60361e-17)
(-0.0584979 -0.0642147 2.43989e-17)
(-0.0599498 -0.0658106 2.26636e-17)
(-0.0613818 -0.0673847 2.09681e-17)
(-0.0627942 -0.0689373 1.9879e-17)
(-0.0641873 -0.0704688 1.83364e-17)
(-0.0655613 -0.0719794 1.73098e-17)
(-0.0669166 -0.0734695 1.64552e-17)
(-0.0682534 -0.0749393 1.47284e-17)
(-0.069572 -0.0763892 1.29808e-17)
(-0.0708727 -0.0778193 1.11632e-17)
(-0.0721556 -0.0792301 8.78671e-18)
(-0.0734211 -0.0806217 5.83537e-18)
(-0.0746693 -0.0819945 3.02879e-18)
(-0.0759007 -0.0833487 2.32116e-19)
(-0.0771153 -0.0846845 -3.0122e-18)
(-0.0783134 -0.0860023 -5.91482e-18)
(-0.0794952 -0.0873022 -8.62688e-18)
(-0.080661 -0.0885846 -1.10207e-17)
(-0.081811 -0.0898495 -9.11809e-18)
(-0.0829454 -0.0910974 -4.35965e-18)
(-0.000180195 -0.00020603 1.54545e-17)
(-0.00017104 -0.00019503 1.91391e-17)
(-0.000169307 -0.000192779 2.28909e-17)
(-0.000181228 -0.000206567 2.68788e-17)
(-0.000216897 -0.000248209 3.04163e-17)
(-0.000296141 -0.000340945 3.26785e-17)
(-0.000459064 -0.000531746 3.39491e-17)
(-0.000781125 -0.000908738 3.64257e-17)
(-0.00138166 -0.00161071 4.45413e-17)
(-0.00239881 -0.00279755 5.7873e-17)
(-0.00391485 -0.00456405 7.02626e-17)
(-0.00588385 -0.00685735 7.70267e-17)
(-0.00814299 -0.00948959 7.72856e-17)
(-0.0105024 -0.0122408 7.35158e-17)
(-0.0128281 -0.0149548 6.7469e-17)
(-0.0150619 -0.017563 6.10093e-17)
(-0.0171971 -0.020057 5.49352e-17)
(-0.0192488 -0.0224539 4.8879e-17)
(-0.0212351 -0.0247749 4.30539e-17)
(-0.0231705 -0.0270367 3.83538e-17)
(-0.0250648 -0.0292507 3.54105e-17)
(-0.026924 -0.031424 3.46543e-17)
(-0.0287519 -0.0335609 3.56944e-17)
(-0.0305507 -0.0356641 3.7722e-17)
(-0.0323222 -0.0377355 4.02616e-17)
(-0.0340672 -0.0397763 4.24977e-17)
(-0.0357868 -0.0417875 4.35033e-17)
(-0.0374815 -0.0437698 4.33552e-17)
(-0.039152 -0.045724 4.27452e-17)
(-0.0407987 -0.0476507 4.23949e-17)
(-0.0424223 -0.0495504 4.11652e-17)
(-0.044023 -0.0514236 3.89397e-17)
(-0.0456013 -0.0532707 3.63576e-17)
(-0.0471576 -0.0550923 3.36978e-17)
(-0.0486923 -0.0568887 3.1499e-17)
(-0.0502057 -0.0586604 2.97332e-17)
(-0.0516982 -0.0604077 2.78264e-17)
(-0.05317 -0.062131 2.64393e-17)
(-0.0546216 -0.0638308 2.54619e-17)
(-0.0560531 -0.0655072 2.44459e-17)
(-0.057465 -0.0671608 2.36069e-17)
(-0.0588575 -0.0687918 2.26218e-17)
(-0.0602309 -0.0704005 2.10517e-17)
(-0.0615855 -0.0719874 1.98912e-17)
(-0.0629215 -0.0735527 1.94786e-17)
(-0.0642393 -0.0750966 1.91274e-17)
(-0.0655391 -0.0766196 1.79651e-17)
(-0.0668211 -0.078122 1.63065e-17)
(-0.0680856 -0.0796039 1.48717e-17)
(-0.0693329 -0.0810657 1.35657e-17)
(-0.0705632 -0.0825078 1.17447e-17)
(-0.0717768 -0.0839303 9.78203e-18)
(-0.0729738 -0.0853335 7.64273e-18)
(-0.0741546 -0.0867178 5.19155e-18)
(-0.0753193 -0.0880833 2.04736e-18)
(-0.0764682 -0.0894304 -8.75047e-19)
(-0.0776015 -0.0907593 -3.78812e-18)
(-0.0787194 -0.0920702 -6.84338e-18)
(-0.0798221 -0.0933634 -6.02765e-18)
(-0.0809098 -0.0946391 -2.31809e-18)
(-0.000177405 -0.00021488 -1.50984e-17)
(-0.000167225 -0.000201905 -2.04946e-17)
(-0.000162336 -0.00019559 -2.59342e-17)
(-0.000167976 -0.000202455 -3.14213e-17)
(-0.00019194 -0.000232208 -3.61213e-17)
(-0.00024886 -0.000303114 -3.86315e-17)
(-0.000368405 -0.000452196 -3.63876e-17)
(-0.000608715 -0.000751854 -2.81043e-17)
(-0.00106953 -0.00132582 -1.33964e-17)
(-0.00188391 -0.00233836 1.14785e-17)
(-0.00316272 -0.00392562 4.22383e-17)
(-0.00491326 -0.00609666 6.73032e-17)
(-0.00701311 -0.00870127 8.15101e-17)
(-0.0092761 -0.0115103 8.66935e-17)
(-0.011546 -0.0143303 8.40744e-17)
(-0.0137401 -0.017058 7.67688e-17)
(-0.0158371 -0.0196663 6.82649e-17)
(-0.0178465 -0.0221666 6.01482e-17)
(-0.0197862 -0.0245807 5.26988e-17)
(-0.021672 -0.0269282 4.63833e-17)
(-0.0235149 -0.0292227 4.12693e-17)
(-0.025322 -0.0314731 3.76406e-17)
(-0.0270977 -0.0336847 3.5408e-17)
(-0.0288445 -0.0358608 3.39822e-17)
(-0.0305644 -0.0380035 3.32427e-17)
(-0.0322584 -0.0401144 3.29961e-17)
(-0.0339274 -0.0421945 3.25895e-17)
(-0.0355721 -0.0442447 3.24326e-17)
(-0.0371933 -0.0462657 3.30106e-17)
(-0.0387913 -0.0482582 3.34016e-17)
(-0.0403667 -0.0502228 3.31021e-17)
(-0.0419198 -0.0521599 3.22226e-17)
(-0.0434512 -0.0540701 3.15126e-17)
(-0.0449612 -0.0559538 3.08368e-17)
(-0.0464501 -0.0578116 2.95517e-17)
(-0.0479183 -0.0596437 2.83503e-17)
(-0.0493661 -0.0614506 2.73298e-17)
(-0.0507939 -0.0632328 2.64598e-17)
(-0.052202 -0.0649905 2.51426e-17)
(-0.0535906 -0.0667242 2.36761e-17)
(-0.0549601 -0.0684342 2.25766e-17)
(-0.0563108 -0.0701209 2.15092e-17)
(-0.0576428 -0.0717846 1.99356e-17)
(-0.0589567 -0.0734256 1.86086e-17)
(-0.0602525 -0.0750443 1.74796e-17)
(-0.0615305 -0.076641 1.65761e-17)
(-0.0627911 -0.078216 1.59986e-17)
(-0.0640344 -0.0797697 1.47787e-17)
(-0.0652607 -0.0813023 1.35464e-17)
(-0.0664703 -0.0828141 1.3002e-17)
(-0.0676634 -0.0843054 1.26672e-17)
(-0.0688402 -0.0857765 1.23802e-17)
(-0.0700009 -0.0872277 1.14625e-17)
(-0.0711459 -0.0886593 1.02055e-17)
(-0.0722753 -0.0900716 9.14982e-18)
(-0.0733893 -0.0914647 8.10942e-18)
(-0.0744881 -0.0928391 6.77368e-18)
(-0.0755721 -0.0941949 4.81578e-18)
(-0.0766413 -0.0955323 3.13484e-18)
(-0.077696 -0.0968518 2.3107e-18)
(-0.0787364 -0.0981535 1.51745e-18)
(-0.0797626 -0.0994376 1.47921e-18)
(-0.080775 -0.100704 1.64477e-18)
(-0.0817736 -0.101954 9.88658e-19)
(-0.0827587 -0.103187 -5.57452e-19)
(-0.0837305 -0.104403 -1.09257e-18)
(-0.0846892 -0.105603 -7.03656e-19)
(-0.0856349 -0.106787 -4.32112e-19)
(-0.0865678 -0.107955 -3.07193e-19)
(-0.0874881 -0.109108 -1.80787e-19)
(-0.088396 -0.110244 3.53168e-19)
(-0.0892916 -0.111366 1.22576e-18)
(-0.0901752 -0.112472 2.19657e-18)
(-0.0910468 -0.113564 2.77929e-18)
(-0.0919068 -0.114641 3.66275e-18)
(-0.0927551 -0.115704 4.95107e-18)
(-0.093592 -0.116752 6.05189e-18)
(-0.0944177 -0.117786 6.92116e-18)
(-0.0952323 -0.118807 6.83991e-18)
(-0.0960359 -0.119814 5.86633e-18)
(-0.0968288 -0.120807 4.17687e-18)
(-0.0976111 -0.121787 1.2806e-18)
(-0.0983828 -0.122754 -3.83275e-18)
(-0.0991442 -0.123709 -1.12345e-17)
(-0.0998955 -0.12465 -2.06851e-17)
(-0.100637 -0.125579 -3.33672e-17)
(-0.101368 -0.126496 -4.97461e-17)
(-0.10209 -0.1274 -7.02848e-17)
(-0.102801 -0.128293 -9.61045e-17)
(-0.103504 -0.129173 -1.27372e-16)
(-0.104197 -0.130042 -1.64599e-16)
(-0.104881 -0.130899 -2.08938e-16)
(-0.105556 -0.131745 -2.61635e-16)
(-0.106221 -0.13258 -2.71618e-16)
(-0.106879 -0.133404 -3.32839e-16)
(-0.000174087 -0.000223853 -2.52753e-18)
(-0.00016359 -0.000209627 -1.67676e-19)
(-0.000156615 -0.000200148 3.9975e-18)
(-0.000157675 -0.000201399 9.19067e-18)
(-0.000172989 -0.000221625 1.52509e-17)
(-0.000213541 -0.000275434 2.31554e-17)
(-0.000301273 -0.000392024 3.49088e-17)
(-0.00048031 -0.000630011 5.23485e-17)
(-0.000831254 -0.00109614 7.2177e-17)
(-0.00147432 -0.00194888 9.14963e-17)
(-0.00253398 -0.00335155 1.04912e-16)
(-0.00406188 -0.00537176 1.11403e-16)
(-0.00598241 -0.00791075 1.12083e-16)
(-0.00812689 -0.0107475 1.03079e-16)
(-0.0103253 -0.0136581 8.75052e-17)
(-0.0124709 -0.0165012 6.83288e-17)
(-0.014525 -0.0192247 4.83188e-17)
(-0.0164892 -0.0218302 3.06637e-17)
(-0.0183798 -0.0243389 1.6475e-17)
(-0.0202133 -0.0267724 6.04677e-18)
(-0.022002 -0.0291471 -5.25254e-19)
(-0.0237541 -0.0314737 -3.67463e-18)
(-0.0254746 -0.0337588 -4.809e-18)
(-0.0271665 -0.0360064 -5.33275e-18)
(-0.0288318 -0.0382191 -5.0854e-18)
(-0.0304717 -0.0403986 -4.22538e-18)
(-0.0320873 -0.0425461 -2.03045e-18)
(-0.0336793 -0.0446627 1.21211e-18)
(-0.0352482 -0.046749 4.07627e-18)
(-0.0367947 -0.0488059 7.01684e-18)
(-0.0383192 -0.0508338 9.91296e-18)
(-0.0398221 -0.0528334 1.24289e-17)
(-0.0413039 -0.0548052 1.48362e-17)
(-0.0427649 -0.0567497 1.67437e-17)
(-0.0442054 -0.0586673 1.86394e-17)
(-0.0456259 -0.0605584 2.03873e-17)
(-0.0470266 -0.0624236 2.13043e-17)
(-0.0484079 -0.0642631 2.16897e-17)
(-0.04977 -0.0660775 2.15438e-17)
(-0.0511133 -0.067867 2.13682e-17)
(-0.0524381 -0.0696321 2.09928e-17)
(-0.0537446 -0.0713731 2.01789e-17)
(-0.0550331 -0.0730904 2.02707e-17)
(-0.0563039 -0.0747843 2.03466e-17)
(-0.0575572 -0.0764552 1.96258e-17)
(-0.0587933 -0.0781033 1.85979e-17)
(-0.0600125 -0.0797291 1.78784e-17)
(-0.061215 -0.0813328 1.79022e-17)
(-0.062401 -0.0829148 1.78957e-17)
(-0.0635708 -0.0844753 1.80085e-17)
(-0.0647247 -0.0860147 1.81972e-17)
(-0.0658627 -0.0875332 1.80597e-17)
(-0.0669853 -0.0890312 1.74776e-17)
(-0.0680925 -0.090509 1.74296e-17)
(-0.0691846 -0.0919668 1.73172e-17)
(-0.0702618 -0.0934048 1.64646e-17)
(-0.0713244 -0.0948235 1.5555e-17)
(-0.0723725 -0.096223 1.44892e-17)
(-0.0734064 -0.0976036 1.39491e-17)
(-0.0744262 -0.0989656 1.32423e-17)
(-0.0754322 -0.100309 1.21212e-17)
(-0.0764245 -0.101635 1.07757e-17)
(-0.0774033 -0.102942 9.03079e-18)
(-0.0783689 -0.104232 7.83028e-18)
(-0.0793213 -0.105505 7.45964e-18)
(-0.0802609 -0.106761 7.11672e-18)
(-0.0811877 -0.107999 6.44385e-18)
(-0.082102 -0.109221 5.8188e-18)
(-0.0830039 -0.110427 4.61294e-18)
(-0.0838936 -0.111616 3.52197e-18)
(-0.0847713 -0.11279 2.7951e-18)
(-0.0856372 -0.113948 2.40637e-18)
(-0.0864913 -0.11509 2.49081e-18)
(-0.0873339 -0.116217 2.38397e-18)
(-0.0881652 -0.117328 1.94139e-18)
(-0.0889853 -0.118425 1.25988e-18)
(-0.0897943 -0.119507 5.43954e-19)
(-0.0905924 -0.120575 -5.10966e-19)
(-0.0913798 -0.121628 -2.02192e-18)
(-0.0921566 -0.122668 -4.36765e-18)
(-0.092923 -0.123693 -8.19624e-18)
(-0.0936791 -0.124705 -1.35537e-17)
(-0.0944251 -0.125703 -2.03492e-17)
(-0.095161 -0.126688 -2.9778e-17)
(-0.0958871 -0.12766 -4.24826e-17)
(-0.0966035 -0.128619 -5.90494e-17)
(-0.0973103 -0.129565 -7.97823e-17)
(-0.0980077 -0.130498 -1.05506e-16)
(-0.0986957 -0.13142 -1.37162e-16)
(-0.0993746 -0.132328 -1.74818e-16)
(-0.100044 -0.133225 -2.18958e-16)
(-0.100705 -0.13411 -2.70665e-16)
(-0.101357 -0.134984 -3.30556e-16)
(-0.102001 -0.135845 -3.79389e-16)
(-0.102636 -0.136696 -4.51628e-16)
(-0.000170095 -0.000232692 7.82742e-18)
(-0.000159818 -0.000217849 1.0228e-17)
(-0.000151599 -0.000205993 1.30866e-17)
(-0.000149382 -0.000202703 1.63309e-17)
(-0.000158292 -0.000215218 2.13491e-17)
(-0.00018676 -0.000255505 2.94531e-17)
(-0.000251123 -0.000346766 4.10775e-17)
(-0.000384601 -0.00053614 5.48048e-17)
(-0.000650816 -0.000913671 6.59369e-17)
(-0.00115339 -0.00162543 7.48624e-17)
(-0.00201805 -0.00284781 8.99525e-17)
(-0.0033286 -0.00469787 1.10561e-16)
(-0.00505675 -0.00713628 1.20248e-16)
(-0.0070626 -0.00996768 1.16059e-16)
(-0.00917264 -0.0129487 9.91784e-17)
(-0.0112594 -0.0158995 7.50326e-17)
(-0.0132647 -0.0187374 4.86402e-17)
(-0.0151803 -0.0214496 2.38566e-17)
(-0.0170189 -0.0240539 2.5115e-18)
(-0.0187973 -0.0265738 -1.4323e-17)
(-0.020529 -0.0290282 -2.61165e-17)
(-0.0222232 -0.0314301 -3.31352e-17)
(-0.0238854 -0.0337874 -3.62697e-17)
(-0.0255194 -0.036105 -3.64757e-17)
(-0.0271271 -0.0383861 -3.50635e-17)
(-0.0287101 -0.0406326 -3.30671e-17)
(-0.0302693 -0.0428459 -3.0564e-17)
(-0.0318056 -0.0450272 -2.73906e-17)
(-0.0333196 -0.0471772 -2.41048e-17)
(-0.0348118 -0.0492967 -2.09856e-17)
(-0.0362827 -0.0513864 -1.84708e-17)
(-0.0377327 -0.0534469 -1.64237e-17)
(-0.0391622 -0.0554786 -1.46422e-17)
(-0.0405716 -0.0574822 -1.32714e-17)
(-0.0419612 -0.0594581 -1.21519e-17)
(-0.0433314 -0.0614067 -1.03928e-17)
(-0.0446825 -0.0633285 -8.717e-18)
(-0.0460148 -0.065224 -7.01471e-18)
(-0.0473286 -0.0670934 -4.51051e-18)
(-0.0486243 -0.0689373 -2.61622e-18)
(-0.0499019 -0.070756 -1.16424e-18)
(-0.051162 -0.0725498 2.45708e-19)
(-0.0524046 -0.0743193 1.42629e-18)
(-0.0536302 -0.0760646 2.76306e-18)
(-0.0548388 -0.0777861 3.94321e-18)
(-0.0560309 -0.0794843 4.79519e-18)
(-0.0572066 -0.0811594 6.12362e-18)
(-0.0583661 -0.0828118 7.17764e-18)
(-0.0595098 -0.0844418 7.69546e-18)
(-0.0606378 -0.0860497 8.14967e-18)
(-0.0617503 -0.0876358 8.51245e-18)
(-0.0628476 -0.0892004 9.05042e-18)
(-0.06393 -0.0907439 9.45746e-18)
(-0.0649975 -0.0922664 1.0101e-17)
(-0.0660505 -0.0937684 1.07547e-17)
(-0.0670891 -0.0952501 1.13004e-17)
(-0.0681135 -0.0967118 1.20829e-17)
(-0.069124 -0.0981538 1.18544e-17)
(-0.0701207 -0.0995763 1.12585e-17)
(-0.0711039 -0.10098 1.11344e-17)
(-0.0720737 -0.102364 1.12873e-17)
(-0.0730303 -0.10373 1.10304e-17)
(-0.0739739 -0.105077 1.08667e-17)
(-0.0749047 -0.106406 1.09752e-17)
(-0.0758228 -0.107718 1.09043e-17)
(-0.0767285 -0.109011 1.15101e-17)
(-0.0776219 -0.110287 1.2329e-17)
(-0.0785032 -0.111547 1.30741e-17)
(-0.0793726 -0.112789 1.37684e-17)
(-0.0802302 -0.114014 1.45464e-17)
(-0.0810762 -0.115223 1.55441e-17)
(-0.0819107 -0.116416 1.71639e-17)
(-0.082734 -0.117593 1.93712e-17)
(-0.0835461 -0.118754 2.1269e-17)
(-0.0843473 -0.119899 2.32231e-17)
(-0.0851377 -0.121029 2.48807e-17)
(-0.0859174 -0.122144 2.6412e-17)
(-0.0866866 -0.123244 2.83189e-17)
(-0.0874455 -0.12433 2.97605e-17)
(-0.0881941 -0.1254 2.97714e-17)
(-0.0889327 -0.126457 2.85359e-17)
(-0.0896614 -0.127499 2.66645e-17)
(-0.0903802 -0.128528 2.30716e-17)
(-0.0910895 -0.129542 1.7143e-17)
(-0.0917892 -0.130544 8.13815e-18)
(-0.0924795 -0.131532 -4.43199e-18)
(-0.0931606 -0.132506 -2.06046e-17)
(-0.0938326 -0.133468 -4.10735e-17)
(-0.0944956 -0.134417 -6.68922e-17)
(-0.0951497 -0.135353 -9.90851e-17)
(-0.0957952 -0.136277 -1.37575e-16)
(-0.096432 -0.137189 -1.82153e-16)
(-0.0970603 -0.138089 -2.32783e-16)
(-0.0976804 -0.138977 -2.8631e-16)
(-0.0982923 -0.139853 -3.49098e-16)
(-0.000165342 -0.000241185 -1.14359e-18)
(-0.000155674 -0.000226266 6.68375e-19)
(-0.00014687 -0.00021273 -1.71761e-19)
(-0.000142392 -0.000205808 -4.61387e-18)
(-0.000146578 -0.000212043 -1.1152e-17)
(-0.000166081 -0.000241522 -1.79393e-17)
(-0.000213212 -0.000312935 -2.34735e-17)
(-0.000312947 -0.000464193 -2.89957e-17)
(-0.000514736 -0.000770195 -3.05326e-17)
(-0.000904899 -0.00136122 -2.961e-17)
(-0.00160163 -0.00241483 -1.0618e-17)
(-0.00270814 -0.00408534 3.34954e-17)
(-0.00423864 -0.00639415 6.96487e-17)
(-0.00608941 -0.00918659 8.12642e-17)
(-0.00809429 -0.012214 7.76206e-17)
(-0.0101103 -0.0152611 6.49812e-17)
(-0.01206 -0.0182105 4.70402e-17)
(-0.0139225 -0.0210299 2.7807e-17)
(-0.0157059 -0.0237308 1.12984e-17)
(-0.0174264 -0.0263373 -7.94293e-19)
(-0.0190981 -0.0288709 -8.45747e-18)
(-0.0207313 -0.0313469 -1.23045e-17)
(-0.0223324 -0.0337749 -1.33269e-17)
(-0.0239054 -0.0361609 -1.2538e-17)
(-0.0254526 -0.0385086 -1.06953e-17)
(-0.0269757 -0.0408203 -8.815e-18)
(-0.0284758 -0.0430976 -6.71173e-18)
(-0.0299536 -0.0453417 -4.38175e-18)
(-0.0314098 -0.0475536 -2.57232e-18)
(-0.032845 -0.049734 -1.81529e-18)
(-0.0342595 -0.0518837 -1.93721e-18)
(-0.0356539 -0.0540032 -2.19593e-18)
(-0.0370286 -0.0560932 -2.13688e-18)
(-0.0383838 -0.0581541 -2.39376e-18)
(-0.03972 -0.0601865 -3.28601e-18)
(-0.0410374 -0.0621909 -4.17835e-18)
(-0.0423365 -0.0641677 -4.35021e-18)
(-0.0436174 -0.0661173 -4.80645e-18)
(-0.0448805 -0.0680402 -4.86262e-18)
(-0.0461261 -0.0699367 -4.45379e-18)
(-0.0473544 -0.0718073 -4.3484e-18)
(-0.0485657 -0.0736524 -3.85624e-18)
(-0.0497603 -0.0754724 -3.02663e-18)
(-0.0509383 -0.0772675 -2.17271e-18)
(-0.0521002 -0.0790383 -1.05207e-18)
(-0.053246 -0.0807849 1.0556e-19)
(-0.0543761 -0.0825078 1.42438e-18)
(-0.0554906 -0.0842074 2.57664e-18)
(-0.0565898 -0.0858839 3.34e-18)
(-0.057674 -0.0875376 3.84515e-18)
(-0.0587433 -0.089169 4.56189e-18)
(-0.0597979 -0.0907782 5.3295e-18)
(-0.0608381 -0.0923657 5.84485e-18)
(-0.0618641 -0.0939317 6.13555e-18)
(-0.062876 -0.0954765 6.78953e-18)
(-0.0638741 -0.0970005 7.53096e-18)
(-0.0648586 -0.0985039 7.93779e-18)
(-0.0658297 -0.0999869 8.47455e-18)
(-0.0667875 -0.10145 8.87298e-18)
(-0.0677322 -0.102893 9.2281e-18)
(-0.0686641 -0.104317 1.01352e-17)
(-0.0695833 -0.105722 1.13305e-17)
(-0.07049 -0.107108 1.21921e-17)
(-0.0713844 -0.108475 1.2615e-17)
(-0.0722666 -0.109823 1.30471e-17)
(-0.0731369 -0.111154 1.36936e-17)
(-0.0739953 -0.112466 1.47066e-17)
(-0.074842 -0.113761 1.59914e-17)
(-0.0756773 -0.115039 1.75813e-17)
(-0.0765013 -0.116299 1.95312e-17)
(-0.0773141 -0.117543 2.18522e-17)
(-0.0781159 -0.118769 2.43485e-17)
(-0.0789068 -0.11998 2.68967e-17)
(-0.0796871 -0.121174 2.95002e-17)
(-0.0804568 -0.122352 3.2617e-17)
(-0.0812161 -0.123514 3.58051e-17)
(-0.0819651 -0.124661 3.89471e-17)
(-0.0827041 -0.125792 4.17957e-17)
(-0.0834331 -0.126908 4.41438e-17)
(-0.0841522 -0.128009 4.60155e-17)
(-0.0848617 -0.129096 4.69882e-17)
(-0.0855617 -0.130168 4.63123e-17)
(-0.0862522 -0.131226 4.41425e-17)
(-0.0869335 -0.132269 4.01593e-17)
(-0.0876056 -0.133299 3.36857e-17)
(-0.0882687 -0.134315 2.36479e-17)
(-0.0889229 -0.135317 9.67225e-18)
(-0.0895683 -0.136306 -8.80567e-18)
(-0.0902052 -0.137282 -3.27001e-17)
(-0.0908335 -0.138245 -6.26699e-17)
(-0.0914534 -0.139195 -9.94495e-17)
(-0.092065 -0.140133 -1.43289e-16)
(-0.0926685 -0.141058 -1.9413e-16)
(-0.093264 -0.141971 -2.61373e-16)
(-0.0938517 -0.142872 -3.2557e-16)
(-0.000159803 -0.000249171 4.9485e-18)
(-0.000151004 -0.000234626 6.57588e-18)
(-0.00014212 -0.000220021 7.70159e-18)
(-0.000136178 -0.000210251 8.53532e-18)
(-0.00013692 -0.000211357 8.91902e-18)
(-0.000149743 -0.000232091 8.3201e-18)
(-0.000184075 -0.000287786 5.10853e-18)
(-0.000258753 -0.000409072 -2.54123e-18)
(-0.00041185 -0.000657767 -1.76799e-17)
(-0.000713527 -0.00114744 -4.04272e-17)
(-0.00126959 -0.00204862 -6.23712e-17)
(-0.00219129 -0.0035398 -6.12365e-17)
(-0.00352679 -0.00569818 -5.00847e-17)
(-0.00521121 -0.00842024 -4.94254e-17)
(-0.00709546 -0.0114673 -5.36966e-17)
(-0.0090281 -0.0145957 -6.24723e-17)
(-0.0109139 -0.0176511 -7.38441e-17)
(-0.0127184 -0.0205768 -8.41079e-17)
(-0.014443 -0.0233748 -9.10761e-17)
(-0.0161024 -0.0260679 -9.41466e-17)
(-0.0177112 -0.0286801 -9.33855e-17)
(-0.0192805 -0.0312289 -8.96945e-17)