/*--------------------------------*- C++ -*----------------------------------*\
  =========                 |
  \\      /  F ield         | OpenFOAM: The Open Source CFD Toolbox
   \\    /   O peration     | Website:  https://openfoam.org
    \\  /    A nd           | Version:  7
     \\/     M anipulation  |
\*---------------------------------------------------------------------------*/
FoamFile
{
    version     2.0;
    format      ascii;
    class       volScalarField;
    location    "4000";
    object      strainRate;
}
// * * * * * * * * * * * * * * * * * * * * * * * * * * * * * * * * * * * * * //

dimensions      [0 0 -1 0 0 0 0];

internalField   nonuniform List<scalar> 
4783
(
0.00243258
0.00229799
0.00221546
0.00212074
0.00201865
0.00191461
0.00181088
0.00170864
0.00160863
0.00151142
0.00141748
0.00132727
0.00124122
0.00115978
0.00108334
0.00101231
0.000947074
0.000888006
0.000835474
0.000789833
0.000751398
0.000720412
0.00307699
0.00272663
0.00262826
0.00252108
0.00240632
0.00228834
0.00217037
0.00205446
0.0019419
0.0018335
0.00172983
0.00163132
0.00153832
0.00145114
0.00137008
0.00129538
0.00122731
0.00116608
0.00111191
0.00106501
0.00102557
0.000993792
0.00342314
0.00301056
0.00288967
0.00277669
0.00266408
0.0025505
0.00243682
0.00232439
0.00221446
0.00210801
0.00200577
0.00190833
0.00181616
0.00172964
0.00164911
0.00157488
0.00150721
0.00144634
0.00139252
0.00134595
0.00130681
0.00127529
0.00370596
0.00329827
0.00316304
0.00303949
0.00292234
0.0028084
0.00269649
0.00258663
0.00247936
0.00237539
0.00227535
0.00217984
0.00208934
0.00200429
0.00192507
0.00185199
0.00178535
0.00172541
0.00167242
0.00162658
0.00158807
0.00155706
0.00397356
0.00357897
0.00344037
0.00331062
0.00318836
0.00307165
0.00295902
0.0028498
0.00274389
0.00264159
0.00254329
0.00244945
0.00236052
0.00227691
0.00219899
0.00212709
0.00206151
0.00200253
0.00195037
0.00190526
0.00186737
0.00183686
0.00423453
0.00385293
0.00371486
0.00358312
0.00345793
0.00333871
0.0032246
0.00311493
0.00300936
0.0029079
0.00281072
0.00271813
0.00263046
0.00254808
0.00247131
0.00240048
0.00233588
0.00227777
0.00222639
0.00218195
0.00214463
0.00211458
0.00449139
0.00412195
0.00398527
0.00385359
0.00372741
0.00360683
0.00349156
0.00338122
0.00327553
0.0031744
0.00307787
0.00298613
0.00289941
0.00281802
0.00274222
0.00267233
0.00260859
0.00255128
0.0025006
0.00245678
0.00241997
0.00239035
0.00474534
0.00438729
0.00425204
0.00412114
0.00399506
0.00387409
0.00375828
0.00364752
0.00354167
0.00344067
0.00334453
0.00325337
0.00316737
0.00308675
0.00301177
0.00294266
0.00287969
0.00282307
0.00277303
0.00272977
0.00269344
0.0026642
0.0049971
0.00464977
0.00451579
0.00438587
0.00426037
0.0041396
0.00402377
0.00391292
0.00380707
0.0037062
0.00361035
0.00351964
0.00343419
0.00335421
0.00327989
0.00321146
0.00314914
0.00309315
0.00304368
0.00300092
0.00296502
0.00293614
0.00524716
0.00490989
0.00477706
0.00464811
0.00452335
0.00440309
0.00428756
0.0041769
0.00407121
0.00397056
0.00387502
0.00378469
0.00369972
0.00362026
0.00354652
0.00347867
0.00341692
0.00336148
0.00331252
0.00327021
0.00323471
0.00320614
0.00549584
0.00516806
0.00503624
0.0049082
0.00478422
0.00466458
0.00454952
0.00443923
0.00433385
0.0042335
0.0041383
0.00404836
0.00396382
0.00388484
0.00381159
0.00374426
0.00368302
0.00362806
0.00357955
0.00353765
0.0035025
0.00347422
0.00574342
0.00542455
0.00529364
0.00516643
0.00504321
0.00492422
0.00480971
0.00469988
0.0045949
0.00449493
0.0044001
0.00431055
0.00422643
0.00414789
0.0040751
0.00400822
0.00394744
0.00389291
0.00384481
0.00380328
0.00376844
0.00374043
0.00599012
0.00567963
0.00554953
0.00542307
0.00530055
0.0051822
0.00506826
0.00495893
0.00485439
0.00475483
0.0046604
0.00457125
0.00448753
0.00440941
0.00433704
0.00427059
0.00421022
0.00415608
0.00410835
0.00406714
0.00403259
0.0040048
0.00623614
0.00593353
0.00580412
0.00567835
0.00555647
0.00543872
0.00532532
0.00521649
0.00511241
0.00501328
0.00491925
0.0048305
0.00474718
0.00466945
0.00459747
0.00453141
0.00447141
0.00441764
0.00437023
0.00432932
0.00429502
0.00426744
0.00648166
0.00618643
0.00605765
0.00593247
0.00581116
0.00569396
0.00558108
0.00547273
0.0053691
0.00527038
0.00517675
0.00508838
0.00500544
0.00492809
0.00485648
0.00479077
0.00473112
0.00467767
0.00463056
0.00458991
0.00672685
0.00643855
0.0063103
0.00618563
0.00606484
0.00594812
0.00583571
0.00572779
0.00562458
0.00552626
0.00543302
0.00534502
0.00526243
0.00518543
0.00511416
0.00504878
0.00498944
0.00493629
0.00488946
0.00697185
0.00669006
0.00656225
0.00643803
0.00631767
0.00620138
0.00608938
0.00598186
0.00587904
0.00578108
0.00568819
0.00560053
0.00551827
0.00544159
0.00537063
0.00530556
0.00524652
0.00721683
0.00694113
0.00681369
0.00668983
0.00656984
0.00645392
0.00634227
0.0062351
0.00613261
0.00603499
0.00594241
0.00585506
0.0057731
0.00569671
0.00746193
0.00719193
0.00706478
0.00694121
0.00682152
0.0067059
0.00659455
0.00648768
0.00638547
0.00628813
0.00619583
0.00610875
0.00770728
0.00744262
0.00731569
0.00719234
0.00707287
0.00695749
0.00684638
0.00673975
0.00663778
0.00654067
0.00795302
0.00769336
0.00756656
0.00744337
0.00732406
0.00720885
0.00709793
0.00699147
0.0068897
0.00819927
0.00794429
0.00781757
0.00769445
0.00757525
0.00746015
0.00734934
0.00724302
0.00844616
0.00819555
0.00806884
0.00794575
0.00782658
0.00771153
0.00760078
0.00869384
0.00844731
0.00832053
0.0081974
0.0080782
0.00796314
0.00894242
0.0086997
0.00857279
0.00844956
0.00833027
0.00821513
0.00919204
0.00895287
0.00882577
0.00870236
0.00858291
0.00944283
0.00920695
0.0090796
0.00895595
0.0096949
0.00946209
0.00933441
0.00921046
0.00994839
0.00971842
0.00959036
0.0102034
0.00997607
0.00984757
0.0104601
0.0102352
0.0101062
0.0107186
0.0104959
0.0103664
0.0109791
0.0107584
0.0106282
0.0112416
0.0110227
0.0108919
0.0115063
0.0112891
0.0111575
0.0117733
0.0115577
0.0114253
0.0120429
0.0118285
0.0116952
0.012315
0.0121018
0.0119676
0.0125899
0.0123777
0.0122425
0.0128676
0.0126563
0.0125201
0.0131484
0.0129379
0.0128005
0.0134325
0.0132225
0.013084
0.00243256
0.00307699
0.00342315
0.00370598
0.00397359
0.00423456
0.00449142
0.00474538
0.00499714
0.0052472
0.00549588
0.00574346
0.00599016
0.00623619
0.00648171
0.00672689
0.0069719
0.00721688
0.00746198
0.00770733
0.00795307
0.00819931
0.00844622
0.00869389
0.00894247
0.00919209
0.00944286
0.00969493
0.00994842
0.0102035
0.0104601
0.0107186
0.0109791
0.0112416
0.0115063
0.0117733
0.0120428
0.0123149
0.0125898
0.0128676
0.0131484
0.0134324
0.00229801
0.00272665
0.00301059
0.00329829
0.00357899
0.00385296
0.00412197
0.00438732
0.00464979
0.00490992
0.00516808
0.00542457
0.00567966
0.00593355
0.00618646
0.00643857
0.00669008
0.00694115
0.00719196
0.00744265
0.00769339
0.00794432
0.00819559
0.00844735
0.00869974
0.00895289
0.00920696
0.00946208
0.0097184
0.00997605
0.0102352
0.0104959
0.0107583
0.0110227
0.011289
0.0115576
0.0118284
0.0121017
0.0123776
0.0126562
0.0129378
0.0132224
0.00221549
0.0026283
0.00288971
0.00316308
0.00344041
0.00371491
0.00398531
0.00425208
0.00451584
0.00477711
0.00503628
0.00529368
0.00554956
0.00580417
0.00605769
0.00631033
0.00656229
0.00681373
0.00706483
0.00731574
0.00756662
0.00781762
0.0080689
0.0083206
0.00857286
0.00882582
0.00907963
0.00933443
0.00959036
0.00984756
0.0101062
0.0103663
0.0106281
0.0108918
0.0111574
0.0114251
0.0116951
0.0119675
0.0122424
0.01252
0.0128004
0.0130838
0.00212078
0.00252114
0.00277674
0.00303955
0.00331068
0.00358318
0.00385365
0.0041212
0.00438594
0.00464817
0.00490826
0.00516649
0.00542313
0.0056784
0.00593253
0.00618569
0.00643808
0.00668989
0.00694127
0.00719241
0.00744344
0.00769453
0.00794583
0.00819748
0.00844963
0.00870243
0.00895601
0.00921051
0.00946608
0.00972286
0.00998099
0.0102406
0.0105018
0.0107648
0.0110297
0.0112967
0.0115658
0.0118373
0.0121113
0.0123879
0.0126672
0.0129495
0.0020187
0.00240638
0.00266415
0.00292241
0.00318844
0.00345801
0.00372749
0.00399514
0.00426045
0.00452343
0.0047843
0.00504328
0.00530062
0.00555654
0.00581124
0.00606491
0.00631775
0.00656992
0.0068216
0.00707296
0.00732416
0.00757535
0.00782669
0.00807831
0.00833037
0.00858302
0.00883639
0.00909063
0.00934588
0.00960228
0.00985996
0.0101191
0.0103797
0.0106421
0.0109064
0.0111726
0.011441
0.0117116
0.0119847
0.0122603
0.0125386
0.0128198
0.00191467
0.00228842
0.00255058
0.00280849
0.00307174
0.00333881
0.00360693
0.00387419
0.00413971
0.0044032
0.00466468
0.00492432
0.0051823
0.00543881
0.00569406
0.00594822
0.00620149
0.00645402
0.006706
0.0069576
0.00720897
0.00746028
0.00771167
0.00796328
0.00821528
0.00846779
0.00872098
0.00897499
0.00922994
0.00948599
0.00974326
0.0100019
0.0102621
0.0105239
0.0107875
0.011053
0.0113207
0.0115905
0.0118627
0.0121374
0.0124148
0.012695
0.00181095
0.00217046
0.00243691
0.00269659
0.00295913
0.00322472
0.00349168
0.00375841
0.0040239
0.00428769
0.00454965
0.00480984
0.00506838
0.00532544
0.0055812
0.00583583
0.00608951
0.00634241
0.00659469
0.00684652
0.00709808
0.0073495
0.00760096
0.00785258
0.00810453
0.00835695
0.00860998
0.00886377
0.00911846
0.00937419
0.00963109
0.00988931
0.010149
0.0104103
0.0106733
0.0109382
0.0112051
0.0114742
0.0117456
0.0120195
0.0122959
0.0125752
0.00170872
0.00205457
0.0023245
0.00258675
0.00284992
0.00311506
0.00338136
0.00364767
0.00391307
0.00417705
0.00443938
0.00470003
0.00495907
0.00521663
0.00547287
0.00572795
0.00598202
0.00623527
0.00648785
0.00673993
0.00699167
0.00724323
0.00749476
0.0077464
0.00799832
0.00825066
0.00850356
0.00875717
0.00901162
0.00926706
0.00952362
0.00978145
0.0100407
0.0103015
0.0105639
0.0108282
0.0110945
0.0113629
0.0116336
0.0119066
0.0121823
0.0124606
0.00160872
0.00194201
0.00221459
0.0024795
0.00274404
0.00300951
0.00327569
0.00354184
0.00380724
0.00407139
0.00433403
0.00459508
0.00485457
0.00511259
0.00536927
0.00562477
0.00587923
0.00613282
0.00638569
0.00663802
0.00688995
0.00714165
0.00739325
0.00764494
0.00789685
0.00814913
0.00840192
0.00865536
0.00890961
0.00916479
0.00942103
0.00967849
0.00993732
0.0101976
0.0104596
0.0107233
0.010989
0.0112567
0.0115267
0.011799
0.0120739
0.0123514
0.00151152
0.00183362
0.00210815
0.00237553
0.00264174
0.00290806
0.00317457
0.00344085
0.00370639
0.00397075
0.0042337
0.00449513
0.00475503
0.00501348
0.00527059
0.00552648
0.00578131
0.00603523
0.00628839
0.00654096
0.00679309
0.00704494
0.00729664
0.00754838
0.00780029
0.00805252
0.00830522
0.00855853
0.00881258
0.00906753
0.0093235
0.00958064
0.00983908
0.010099
0.0103605
0.0106237
0.0108888
0.011156
0.0114253
0.0116969
0.011971
0.0122477
0.00141759
0.00172997
0.00200592
0.00227551
0.00254346
0.0028109
0.00307806
0.00334473
0.00361057
0.00387523
0.00413852
0.00440032
0.00466063
0.00491949
0.005177
0.00543327
0.00568846
0.0059427
0.00619615
0.00644896
0.00670129
0.00695328
0.0072051
0.00745689
0.00770881
0.00796101
0.00821363
0.00846682
0.00872072
0.00897546
0.00923118
0.00948802
0.00974614
0.0100057
0.0102667
0.0105295
0.0107941
0.0110607
0.0113294
0.0116004
0.0118738
0.0121497
0.00132739
0.00163147
0.0019085
0.00218001
0.00244964
0.00271832
0.00298634
0.00325359
0.00351987
0.00378493
0.0040486
0.0043108
0.00457151
0.00483077
0.00508866
0.00534531
0.00560084
0.00585539
0.00610912
0.00636217
0.0066147
0.00686685
0.00711879
0.00737065
0.0076226
0.00787478
0.00812734
0.00838042
0.00863418
0.00888873
0.00914424
0.00940082
0.00965863
0.0099178
0.0101785
0.0104408
0.0107049
0.010971
0.0112392
0.0115096
0.0117824
0.0120577
0.0123357
0.00124135
0.00153849
0.00181634
0.00208954
0.00236073
0.00263068
0.00289964
0.00316761
0.00343444
0.00369998
0.00396409
0.0042267
0.00448782
0.00474747
0.00500575
0.00526276
0.00551863
0.00577349
0.00602749
0.00628077
0.0065335
0.00678581
0.00703786
0.0072898
0.00754179
0.00779397
0.00804649
0.00829949
0.00855312
0.00880752
0.00906282
0.00931917
0.00957671
0.00983557
0.0100959
0.0103578
0.0106215
0.0108872
0.0111548
0.0114247
0.0116969
0.0119716
0.0122489
0.0125291
0.00115991
0.00145131
0.00172983
0.00200451
0.00227713
0.00254831
0.00281826
0.00308701
0.00335447
0.00362054
0.00388513
0.00414819
0.00440972
0.00466978
0.00492843
0.00518579
0.00544199
0.00569715
0.00595141
0.00620493
0.00645785
0.00671032
0.00696249
0.00721451
0.00746654
0.00771874
0.00797123
0.00822418
0.0084777
0.00873196
0.00898708
0.00924322
0.00950051
0.0097591
0.0100191
0.0102807
0.0105441
0.0108092
0.0110765
0.0113458
0.0116175
0.0118916
0.0121684
0.0124479
0.00108348
0.00137026
0.00164932
0.0019253
0.00219923
0.00247156
0.00274249
0.00301204
0.00328017
0.00354681
0.0038119
0.00407542
0.00433738
0.00459783
0.00485686
0.00511457
0.00537108
0.00562652
0.00588104
0.00613479
0.0063879
0.00664053
0.00689282
0.00714492
0.00739701
0.00764923
0.00790172
0.00815461
0.00840806
0.00866219
0.00891716
0.00917311
0.00943019
0.00968853
0.00994827
0.0102096
0.0104726
0.0107374
0.0110042
0.0112731
0.0115443
0.0118179
0.0120941
0.012373
0.0126549
0.00101245
0.00129558
0.00157511
0.00185224
0.00212735
0.00240075
0.00267261
0.00294295
0.00321176
0.00347899
0.00374459
0.00400857
0.00427095
0.00453179
0.00479118
0.00504923
0.00530605
0.00556177
0.00581654
0.00607049
0.00632379
0.00657657
0.00682899
0.00708119
0.00733334
0.00758558
0.00783806
0.00809092
0.0083443
0.00859833
0.00885317
0.00910897
0.00936586
0.00962398
0.00988348
0.0101445
0.0104072
0.0106717
0.0109381
0.0112066
0.0114774
0.0117505
0.0120262
0.0123046
0.0125859
0.000947219
0.00122751
0.00150745
0.00178562
0.00206179
0.00233617
0.00260889
0.00288
0.00314946
0.00341726
0.00368337
0.00394781
0.0042106
0.00447183
0.00473156
0.00498993
0.00524704
0.00550303
0.00575803
0.00601219
0.00626567
0.0065186
0.00677113
0.00702343
0.00727564
0.00752792
0.0077804
0.00803323
0.00828656
0.00854051
0.00879524
0.0090509
0.00930763
0.00956556
0.00982484
0.0100856
0.010348
0.0106122
0.0108783
0.0111465
0.0114169
0.0116896
0.0119649
0.0122429
0.0125236
0.0128074
0.000888152
0.00116629
0.0014466
0.0017257
0.00200283
0.00227809
0.0025516
0.0028234
0.00309349
0.00336183
0.00362843
0.0038933
0.0041565
0.00441808
0.00467815
0.00493681
0.0051942
0.00545043
0.00570566
0.00596001
0.00621365
0.00646672
0.00671938
0.00697176
0.00722404
0.00747635
0.00772884
0.00798166
0.00823494
0.00848883
0.00874348
0.00899902
0.0092556
0.00951336
0.00977245
0.010033
0.0102952
0.0105591
0.0108249
0.0110928
0.0113629
0.0116353
0.0119102
0.0121877
0.0124681
0.0127514
0.0130378
0.000835618
0.00111213
0.00139279
0.00167273
0.0019507
0.00222673
0.00250095
0.00277339
0.00304404
0.00331289
0.00357994
0.00384522
0.00410878
0.0043707
0.00463107
0.00489002
0.00514765
0.00540411
0.00565954
0.00591407
0.00616787
0.00642107
0.00667383
0.0069263
0.00717864
0.00743099
0.00768349
0.0079363
0.00818955
0.00844339
0.00869796
0.0089534
0.00920987
0.00946749
0.00972641
0.00998679
0.0102488
0.0105125
0.010778
0.0110456
0.0113154
0.0115875
0.0118621
0.0121393
0.0124193
0.0127022
0.0129882
0.000789971
0.00106523
0.00134624
0.00162691
0.00190561
0.00218231
0.00245715
0.00273014
0.0030013
0.0032706
0.00353806
0.0038037
0.0040676
0.00432982
0.00459047
0.00484966
0.00510752
0.00536418
0.00561979
0.00587449
0.00612842
0.00638174
0.0066346
0.00688715
0.00713954
0.00739192
0.00764444
0.00789724
0.00815047
0.00840426
0.00865877
0.00891414
0.00917051
0.00942802
0.00968682
0.00994705
0.0102088
0.0104723
0.0107377
0.0110051
0.0112746
0.0115465
0.0118208
0.0120977
0.0123773
0.0126599
0.0129456
0.000751524
0.00102579
0.00130712
0.00158842
0.00186775
0.00214502
0.00242037
0.00269384
0.00296542
0.00323512
0.00350293
0.00376889
0.00403307
0.00429555
0.00455644
0.00481585
0.0050739
0.00533075
0.00558651
0.00584135
0.0060954
0.00634882
0.00660176
0.00685438
0.00710682
0.00735923
0.00761177
0.00786457
0.00811778
0.00837154
0.008626
0.00888131
0.0091376
0.00939502
0.00965371
0.00991381
0.0101755
0.0104388
0.010704
0.0109712
0.0112405
0.0115122
0.0117862
0.0120629
0.0123423
0.0126246
0.0129099
0.000720528
0.000994009
0.0012756
0.00155743
0.00183726
0.00211499
0.00239076
0.00266461
0.00293655
0.00320656
0.00347466
0.00374089
0.00400531
0.00426801
0.00452909
0.00478868
0.0050469
0.00530389
0.00555978
0.00581473
0.00606888
0.00632238
0.00657539
0.00682807
0.00708056
0.00733301
0.00758556
0.00783835
0.00809155
0.00834529
0.00859972
0.00885498
0.0091112
0.00936854
0.00962713
0.00988713
0.0101487
0.0104119
0.010677
0.010944
0.0112132
0.0114847
0.0117586
0.012035
0.0123142
0.0125963
0.0128814
0.0131698
0.000697158
0.000970032
0.00125183
0.00153405
0.00181428
0.00209236
0.00236845
0.00264259
0.0029148
0.00318505
0.00345338
0.0037198
0.0039844
0.00424727
0.00450851
0.00476823
0.00502658
0.00528368
0.00553967
0.0057947
0.00604893
0.0063025
0.00655557
0.00680828
0.00706081
0.00731328
0.00756585
0.00781865
0.00807184
0.00832556
0.00857996
0.00883518
0.00909137
0.00934865
0.00960718
0.0098671
0.0101286
0.0103917
0.0106567
0.0109236
0.0111927
0.011464
0.0117378
0.0120141
0.0122931
0.012575
0.01286
0.0131482
0.000681528
0.000953979
0.00123591
0.0015184
0.0017989
0.00207722
0.00235351
0.00262786
0.00290024
0.00317066
0.00343913
0.0037057
0.00397042
0.0042334
0.00449474
0.00475456
0.00501299
0.00527017
0.00552623
0.00578133
0.0060356
0.00628921
0.00654232
0.00679507
0.00704762
0.00730011
0.00755268
0.00780549
0.00805867
0.00831238
0.00856677
0.00882197
0.00907813
0.00933538
0.00959386
0.00985373
0.0101151
0.0103782
0.0106431
0.01091
0.011179
0.0114502
0.0117239
0.0120001
0.0122791
0.0125609
0.0128457
0.0131338
0.0134252
0.000673698
0.000945929
0.00122793
0.00151055
0.00179118
0.00206962
0.00234603
0.00262047
0.00289294
0.00316345
0.00343199
0.00369863
0.00396342
0.00422645
0.00448784
0.00474771
0.00500619
0.0052634
0.0055195
0.00577462
0.00602892
0.00628256
0.00653569
0.00678846
0.00704102
0.00729352
0.0075461
0.0077989
0.00805209
0.0083058
0.00856017
0.00881536
0.0090715
0.00932874
0.00958721
0.00984705
0.0101084
0.0103715
0.0106363
0.0109032
0.0111721
0.0114433
0.011717
0.0119931
0.012272
0.0125538
0.0128386
0.0131266
0.0134179
0.000673693
0.00094592
0.00122792
0.00151054
0.00179117
0.00206961
0.00234601
0.00262045
0.00289293
0.00316343
0.00343198
0.00369861
0.0039634
0.00422644
0.00448783
0.0047477
0.00500617
0.00526339
0.00551949
0.00577461
0.00602892
0.00628256
0.00653569
0.00678846
0.00704103
0.00729353
0.00754611
0.00779891
0.0080521
0.00830581
0.00856019
0.00881538
0.00907152
0.00932876
0.00958722
0.00984706
0.0101084
0.0103715
0.0106363
0.0109032
0.0111721
0.0114433
0.011717
0.0119931
0.012272
0.0125538
0.0128386
0.0131266
0.0134179
0.0137128
0.000681513
0.000953953
0.00123588
0.00151836
0.00179886
0.00207718
0.00235347
0.00262781
0.0029002
0.00317062
0.00343909
0.00370566
0.00397038
0.00423336
0.0044947
0.00475452
0.00501296
0.00527014
0.0055262
0.0057813
0.00603558
0.00628921
0.00654233
0.00679508
0.00704763
0.00730012
0.0075527
0.00780552
0.00805871
0.00831242
0.00856681
0.00882201
0.00907817
0.00933542
0.00959391
0.00985378
0.0101152
0.0103782
0.0106431
0.01091
0.011179
0.0114503
0.0117239
0.0120001
0.0122791
0.0125609
0.0128458
0.0131338
0.0134252
0.0137202
0.000697132
0.000969988
0.00125177
0.00153399
0.00181421
0.00209229
0.00236838
0.00264252
0.00291473
0.00318499
0.00345331
0.00371973
0.00398434
0.0042472
0.00450844
0.00476817
0.00502652
0.00528362
0.00553962
0.00579467
0.00604891
0.00630249
0.00655557
0.0068083
0.00706083
0.00731331
0.00756588
0.00781869
0.00807189
0.00832562
0.00858003
0.00883526
0.00909144
0.00934872
0.00960724
0.00986716
0.0101286
0.0103918
0.0106567
0.0109237
0.0111927
0.0114641
0.0117378
0.0120141
0.0122932
0.0125751
0.0128601
0.0131483
0.0134398
0.0137349
0.000720489
0.000993946
0.00127552
0.00155734
0.00183717
0.0021149
0.00239067
0.00266452
0.00293646
0.00320647
0.00347457
0.00374079
0.00400521
0.00426791
0.004529
0.00478859
0.00504682
0.00530381
0.00555972
0.00581468
0.00606885
0.00632237
0.0065754
0.00682809
0.00708059
0.00733305
0.00758561
0.00783842
0.00809163
0.00834538
0.00859981
0.00885507
0.0091113
0.00936863
0.00962722
0.00988721
0.0101488
0.010412
0.0106771
0.0109441
0.0112133
0.0114848
0.0117586
0.0120351
0.0123143
0.0125964
0.0128815
0.0131699
0.0134616
0.0137569
0.000751471
0.00102571
0.00130702
0.00158831
0.00186763
0.0021449
0.00242025
0.00269372
0.0029653
0.003235
0.0035028
0.00376877
0.00403295
0.00429543
0.00455632
0.00481574
0.0050738
0.00533066
0.00558644
0.00584129
0.00609536
0.0063488
0.00660176
0.0068544
0.00710686
0.00735929
0.00761183
0.00786465
0.00811787
0.00837165
0.00862612
0.00888143
0.00913772
0.00939512
0.0096538
0.00991391
0.0101756
0.0104389
0.0107042
0.0109714
0.0112407
0.0115123
0.0117864
0.012063
0.0123424
0.0126247
0.0129101
0.0131987
0.0134907
0.0137862
0.000789902
0.00106513
0.00134612
0.00162677
0.00190547
0.00218217
0.002457
0.00273
0.00300115
0.00327046
0.00353791
0.00380356
0.00406745
0.00432968
0.00459033
0.00484953
0.0051074
0.00536408
0.00561971
0.00587443
0.00612838
0.00638172
0.0066346
0.00688717
0.00713958
0.00739198
0.00764451
0.00789733
0.00815057
0.00840438
0.0086589
0.00891428
0.00917065
0.00942815
0.00968695
0.00994718
0.010209
0.0104725
0.0107379
0.0110053
0.0112748
0.0115466
0.0118209
0.0120978
0.0123775
0.0126601
0.0129458
0.0132347
0.013527
0.0138229
0.000835532
0.00111201
0.00139265
0.00167257
0.00195054
0.00222657
0.00250078
0.00277322
0.00304387
0.00331272
0.00357977
0.00384505
0.00410862
0.00437054
0.00463092
0.00488987
0.00514752
0.005404
0.00565945
0.00591401
0.00616783
0.00642105
0.00667384
0.00692633
0.00717868
0.00743105
0.00768357
0.0079364
0.00818967
0.00844351
0.0086981
0.00895356
0.00921003
0.00946766
0.00972659
0.00998698
0.010249
0.0105127
0.0107783
0.0110459
0.0113156
0.0115877
0.0118623
0.0121395
0.0124195
0.0127024
0.0129885
0.0132777
0.0135704
0.0138667
0.000888047
0.00116615
0.00144643
0.00172552
0.00200265
0.0022779
0.00255141
0.00282321
0.0030933
0.00336164
0.00362824
0.00389312
0.00415631
0.00441791
0.00467798
0.00493666
0.00519406
0.00545031
0.00570556
0.00595994
0.00621361
0.0064667
0.00671938
0.00697179
0.00722409
0.00747642
0.00772894
0.00798177
0.00823507
0.00848897
0.00874363
0.00899919
0.00925579
0.00951356
0.00977267
0.0100332
0.0102954
0.0105593
0.0108252
0.011093
0.0113631
0.0116355
0.0119104
0.012188
0.0124683
0.0127516
0.0130381
0.0133278
0.013621
0.0139177
0.000947095
0.00122735
0.00150726
0.00178542
0.00206159
0.00233597
0.00260869
0.00287979
0.00314925
0.00341705
0.00368316
0.0039476
0.00421041
0.00447164
0.00473139
0.00498977
0.00524689
0.0055029
0.00575793
0.00601211
0.00626561
0.00651856
0.00677113
0.00702346
0.0072757
0.007528
0.00778051
0.00803336
0.0082867
0.00854068
0.00879542
0.00905109
0.00930783
0.00956578
0.00982507
0.0100859
0.0103483
0.0106125
0.0108786
0.0111467
0.0114171
0.0116899
0.0119652
0.0122431
0.0125239
0.0128077
0.0130947
0.0133849
0.0136785
0.0139759
0.00101231
0.0012954
0.0015749
0.00185202
0.00212713
0.00240053
0.00267238
0.00294272
0.00321153
0.00347876
0.00374437
0.00400835
0.00427074
0.0045316
0.004791
0.00504906
0.0053059
0.00556164
0.00581643
0.00607041
0.00632373
0.00657653
0.00682898
0.00708123
0.00733341
0.00758569
0.00783819
0.00809106
0.00834446
0.00859851
0.00885337
0.00910917
0.00936607
0.00962421
0.00988373
0.0101448
0.0104074
0.0106719
0.0109384
0.0112069
0.0114777
0.0117508
0.0120266
0.012305
0.0125863
0.0128706
0.013158
0.0134488
0.0137431
0.0140411
0.00108332
0.00137006
0.0016491
0.00192506
0.00219899
0.00247132
0.00274224
0.00301179
0.00327993
0.00354657
0.00381167
0.00407519
0.00433716
0.00459763
0.00485667
0.0051144
0.00537093
0.0056264
0.00588094
0.00613469
0.00638782
0.00664048
0.00689281
0.00714497
0.0073971
0.00764935
0.00790186
0.00815477
0.00840823
0.00866238
0.00891736
0.00917333
0.00943042
0.00968878
0.00994854
0.0102098
0.0104728
0.0107377
0.0110045
0.0112734
0.0115446
0.0118182
0.0120944
0.0123734
0.0126552
0.0129401
0.0132281
0.0135196
0.0138145
0.0141132
0.00115973
0.0014511
0.00172959
0.00200426
0.00227688
0.00254805
0.002818
0.00308675
0.00335421
0.00362029
0.00388488
0.00414795
0.0044095
0.00466957
0.00492824
0.00518563
0.00544185
0.00569703
0.0059513
0.00620484
0.00645777
0.00671027
0.00696249
0.00721456
0.00746664
0.00771886
0.00797139
0.00822435
0.0084779
0.00873216
0.0089873
0.00924345
0.00950075
0.00975935
0.0100194
0.010281
0.0105443
0.0108095
0.0110768
0.0113462
0.0116179
0.011892
0.0121687
0.0124483
0.0127307
0.0130162
0.0133049
0.013597
0.0138927
0.0141922
0.00124115
0.00153825
0.00181609
0.00208927
0.00236046
0.0026304
0.00289937
0.00316734
0.00343417
0.00369972
0.00396384
0.00422647
0.00448759
0.00474727
0.00500557
0.0052626
0.00551849
0.00577337
0.00602738
0.00628069
0.00653343
0.00678577
0.00703787
0.00728985
0.00754188
0.0077941
0.00804665
0.00829968
0.00855333
0.00880773
0.00906304
0.00931941
0.00957696
0.00983583
0.0100962
0.0103581
0.0106219
0.0108875
0.0111552
0.011425
0.0116973
0.011972
0.0122493
0.0125295
0.0128126
0.0130988
0.0133882
0.0136811
0.0139777
0.0142779
0.00132718
0.00163122
0.00190823
0.00217974
0.00244936
0.00271804
0.00298605
0.00325331
0.00351959
0.00378466
0.00404835
0.00431056
0.00457128
0.00483056
0.00508848
0.00534516
0.00560071
0.00585528
0.00610902
0.00636209
0.00661464
0.00686682
0.00711879
0.0073707
0.0076227
0.00787491
0.0081275
0.00838061
0.00863438
0.00888895
0.00914446
0.00940106
0.00965888
0.00991807
0.0101788
0.0104411
0.0107053
0.0109714
0.0112395
0.01151
0.0117827
0.0120581
0.0123361
0.0126169
0.0129008
0.0131877
0.013478
0.0137718
0.0140692
0.0143704
0.00141736
0.0017297
0.00200564
0.00227522
0.00254316
0.00281061
0.00307777
0.00334445
0.00361029
0.00387497
0.00413827
0.00440008
0.00466041
0.00491929
0.00517682
0.00543312
0.00568833
0.00594259
0.00619605
0.00644888
0.00670124
0.00695326
0.00720512
0.00745695
0.00770892
0.00796115
0.0082138
0.00846701
0.00872092
0.00897567
0.0092314
0.00948826
0.00974639
0.0100059
0.010267
0.0105298
0.0107944
0.011061
0.0113297
0.0116008
0.0118742
0.0121502
0.0124289
0.0127105
0.0129951
0.0132829
0.0135741
0.0138688
0.0141671
0.0144693
0.00151127
0.00183334
0.00210785
0.00237523
0.00264144
0.00290776
0.00317428
0.00344056
0.00370611
0.00397049
0.00423345
0.00449489
0.00475482
0.00501329
0.00527042
0.00552634
0.00578119
0.00603513
0.00628831
0.0065409
0.00679305
0.00704493
0.00729667
0.00754844
0.00780039
0.00805265
0.00830538
0.00855871
0.00881278
0.00906773
0.00932371
0.00958087
0.00983934
0.0100993
0.0103608
0.010624
0.0108892
0.0111563
0.0114256
0.0116973
0.0119714
0.0122481
0.0125276
0.01281
0.0130955
0.0133843
0.0136764
0.013972
0.0142714
0.0145747
0.00160846
0.00194172
0.00221428
0.00247919
0.00274373
0.00300921
0.00327539
0.00354155
0.00380696
0.00407112
0.00433378
0.00459485
0.00485436
0.0051124
0.00536911
0.00562463
0.00587911
0.00613272
0.00638561
0.00663796
0.00688992
0.00714164
0.00739329
0.00764501
0.00789694
0.00814925
0.00840207
0.00865554
0.0089098
0.00916499
0.00942125
0.00967874
0.00993759
0.0101979
0.0104599
0.0107237
0.0109893
0.0112571
0.0115271
0.0117994
0.0120743
0.0123518
0.0126321
0.0129154
0.0132018
0.0134915
0.0137847
0.0140814
0.0143819
0.0146864
0.00170845
0.00205426
0.00232419
0.00258643
0.00284961
0.00311475
0.00338106
0.00364738
0.0039128
0.00417679
0.00443914
0.00469981
0.00495887
0.00521646
0.00547272
0.00572782
0.00598191
0.00623518
0.00648778
0.00673988
0.00699164
0.00724323
0.00749478
0.00774646
0.00799841
0.00825078
0.00850371
0.00875735
0.00901181
0.00926726
0.00952384
0.00978168
0.0100409
0.0103017
0.0105642
0.0108285
0.0110948
0.0113632
0.0116339
0.011907
0.0121826
0.012461
0.0127422
0.0130265
0.0133139
0.0136046
0.0138989
0.0141967
0.0144984
0.0148042
0.00181067
0.00217015
0.00243659
0.00269627
0.00295881
0.00322441
0.00349138
0.00375812
0.00402363
0.00428743
0.00454942
0.00480963
0.00506819
0.00532528
0.00558106
0.00583571
0.0060894
0.00634232
0.00659462
0.00684647
0.00709805
0.0073495
0.00760098
0.00785263
0.0081046
0.00835705
0.00861012
0.00886394
0.00911864
0.00937438
0.0096313
0.00988954
0.0101492
0.0104105
0.0106736
0.0109385
0.0112054
0.0114745
0.0117459
0.0120198
0.0122963
0.0125756
0.0128578
0.013143
0.0134315
0.0137233
0.0140187
0.0143178
0.0146208
0.0149278
0.00191439
0.0022881
0.00255026
0.00280816
0.00307143
0.00333851
0.00360664
0.00387392
0.00413945
0.00440295
0.00466446
0.00492412
0.00518212
0.00543866
0.00569392
0.0059481
0.00620138
0.00645394
0.00670594
0.00695755
0.00720894
0.00746026
0.00771168
0.00796332
0.00821534
0.0084679
0.00872111
0.00897513
0.0092301
0.00948617
0.00974347
0.0100021
0.0102623
0.0105242
0.0107878
0.0110533
0.011321
0.0115908
0.011863
0.0121377
0.0124152
0.0126954
0.0129785
0.0132649
0.0135545
0.0138475
0.0141442
0.0144445
0.0147489
0.0150573
0.00201841
0.00240606
0.00266382
0.00292209
0.00318813
0.00345771
0.0037272
0.00399487
0.0042602
0.0045232
0.00478409
0.0050431
0.00530046
0.0055564
0.00581111
0.0060648
0.00631765
0.00656983
0.00682154
0.00707292
0.00732413
0.00757534
0.0078267
0.00807835
0.00833044
0.00858311
0.0088365
0.00909075
0.00934602
0.00960244
0.00986016
0.0101193
0.01038
0.0106424
0.0109066
0.0111729
0.0114412
0.0117119
0.0119849
0.0122606
0.0125389
0.0128202
0.0131044
0.0133919
0.0136827
0.0139769
0.0142749
0.0145766
0.0148824
0.0151923
0.00212048
0.00252081
0.00277641
0.00303923
0.00331038
0.00358289
0.00385337
0.00412094
0.00438569
0.00464795
0.00490806
0.00516631
0.00542297
0.00567826
0.0059324
0.00618558
0.00643799
0.00668981
0.00694121
0.00719236
0.00744341
0.00769452
0.00794585
0.00819752
0.00844969
0.0087025
0.00895609
0.00921061
0.00946621
0.00972302
0.00998118
0.0102408
0.0105021
0.0107651
0.01103
0.0112969
0.0115661
0.0118376
0.0121115
0.0123881
0.0126675
0.0129498
0.0132352
0.0135238
0.0138159
0.0141114
0.0144107
0.0147139
0.0150212
0.0153327
0.00221519
0.00262797
0.00288938
0.00316277
0.00344012
0.00371463
0.00398505
0.00425183
0.00451561
0.0047769
0.00503609
0.00529351
0.00554941
0.00580403
0.00605757
0.00631022
0.0065622
0.00681365
0.00706476
0.00731569
0.00756659
0.00781761
0.00806891
0.00832063
0.00857291
0.00882588
0.0090797
0.00933452
0.00959047
0.0098477
0.0101063
0.0103665
0.0106283
0.010892
0.0111576
0.0114253
0.0116953
0.0119677
0.0122426
0.0125202
0.0128006
0.013084
0.0133706
0.0136605
0.0139539
0.0142508
0.0145516