/*--------------------------------*- C++ -*----------------------------------*\
  =========                 |
  \\      /  F ield         | OpenFOAM: The Open Source CFD Toolbox
   \\    /   O peration     | Website:  https://openfoam.org
    \\  /    A nd           | Version:  7
     \\/     M anipulation  |
\*---------------------------------------------------------------------------*/
FoamFile
{
    version     2.0;
    format      ascii;
    class       volScalarField;
    location    "128000";
    object      k;
}
// * * * * * * * * * * * * * * * * * * * * * * * * * * * * * * * * * * * * * //

dimensions      [0 2 -2 0 0 0 0];

internalField   nonuniform List<scalar> 
4844
(
9.24351e-07
9.26899e-07
9.29678e-07
9.34444e-07
9.36979e-07
9.39741e-07
9.42725e-07
9.45922e-07
9.49324e-07
9.52923e-07
9.56709e-07
9.44489e-07
9.47008e-07
9.49753e-07
9.52718e-07
9.55894e-07
9.59273e-07
9.62847e-07
9.66607e-07
9.70542e-07
9.74642e-07
9.78899e-07
9.54481e-07
9.56983e-07
9.5971e-07
9.62654e-07
9.65808e-07
9.69163e-07
9.7271e-07
9.76441e-07
9.80345e-07
9.84413e-07
9.88634e-07
9.92997e-07
9.97491e-07
1.00211e-06
1.00683e-06
1.01166e-06
9.64414e-07
9.66899e-07
9.69607e-07
9.72529e-07
9.75659e-07
9.78989e-07
9.82508e-07
9.86209e-07
9.9008e-07
9.94113e-07
9.98297e-07
1.00262e-06
1.00707e-06
1.01164e-06
1.01632e-06
1.0211e-06
9.74285e-07
9.76752e-07
9.79438e-07
9.82338e-07
9.85444e-07
9.88746e-07
9.92236e-07
9.95905e-07
9.99743e-07
1.00374e-06
1.00788e-06
1.01217e-06
1.01658e-06
1.0211e-06
1.02573e-06
1.03046e-06
9.86537e-07
9.89202e-07
9.92078e-07
9.95157e-07
9.98431e-07
1.00189e-06
1.00553e-06
1.00933e-06
1.01329e-06
1.01739e-06
1.02163e-06
1.026e-06
1.03048e-06
1.03506e-06
1.03974e-06
9.96251e-07
9.98893e-07
1.00174e-06
1.0048e-06
1.00804e-06
1.01147e-06
1.01507e-06
1.01884e-06
1.02276e-06
1.02682e-06
1.03102e-06
1.03534e-06
1.03977e-06
1.0443e-06
1.04892e-06
1.00589e-06
1.00851e-06
1.01133e-06
1.01436e-06
1.01757e-06
1.02097e-06
1.02454e-06
1.02826e-06
1.03214e-06
1.03617e-06
1.04032e-06
1.04459e-06
1.04897e-06
1.05345e-06
1.05802e-06
1.01307e-06
1.01545e-06
1.01805e-06
1.02084e-06
1.02384e-06
1.02702e-06
1.03038e-06
1.03391e-06
1.03761e-06
1.04144e-06
1.04542e-06
1.04953e-06
1.05375e-06
1.05808e-06
1.0625e-06
1.06702e-06
1.02257e-06
1.02493e-06
1.0275e-06
1.03027e-06
1.03324e-06
1.03639e-06
1.03971e-06
1.04321e-06
1.04686e-06
1.05066e-06
1.05459e-06
1.05865e-06
1.06282e-06
1.0671e-06
1.07147e-06
1.07593e-06
1.03199e-06
1.03432e-06
1.03687e-06
1.03961e-06
1.04255e-06
1.04566e-06
1.04895e-06
1.05241e-06
1.05602e-06
1.05978e-06
1.06366e-06
1.06767e-06
1.0718e-06
1.07602e-06
1.08034e-06
1.08474e-06
1.04132e-06
1.04363e-06
1.04615e-06
1.04886e-06
1.05177e-06
1.05485e-06
1.0581e-06
1.06152e-06
1.06509e-06
1.0688e-06
1.07264e-06
1.0766e-06
1.08068e-06
1.08485e-06
1.0891e-06
1.09345e-06
1.04848e-06
1.05056e-06
1.05285e-06
1.05534e-06
1.05802e-06
1.06089e-06
1.06394e-06
1.06716e-06
1.07054e-06
1.07406e-06
1.07773e-06
1.08152e-06
1.08544e-06
1.08946e-06
1.09357e-06
1.09777e-06
1.10206e-06
1.05766e-06
1.05971e-06
1.06197e-06
1.06444e-06
1.06709e-06
1.06993e-06
1.07294e-06
1.07612e-06
1.07946e-06
1.08294e-06
1.08656e-06
1.09031e-06
1.09417e-06
1.09814e-06
1.1022e-06
1.10634e-06
1.11056e-06
1.06491e-06
1.06673e-06
1.06877e-06
1.071e-06
1.07344e-06
1.07606e-06
1.07886e-06
1.08184e-06
1.08498e-06
1.08828e-06
1.09172e-06
1.09529e-06
1.09899e-06
1.1028e-06
1.10671e-06
1.11072e-06
1.1148e-06
1.11896e-06
1.07392e-06
1.07572e-06
1.07773e-06
1.07994e-06
1.08234e-06
1.08493e-06
1.0877e-06
1.09064e-06
1.09374e-06
1.097e-06
1.10039e-06
1.10392e-06
1.10757e-06
1.11133e-06
1.11519e-06
1.11913e-06
1.12316e-06
1.12726e-06
1.08282e-06
1.0846e-06
1.08658e-06
1.08877e-06
1.09114e-06
1.0937e-06
1.09644e-06
1.09934e-06
1.1024e-06
1.10562e-06
1.10897e-06
1.11245e-06
1.11604e-06
1.11975e-06
1.12355e-06
1.12744e-06
1.13141e-06
1.13545e-06
1.09163e-06
1.09338e-06
1.09534e-06
1.0975e-06
1.09984e-06
1.10237e-06
1.10507e-06
1.10794e-06
1.11096e-06
1.11413e-06
1.11743e-06
1.12086e-06
1.12441e-06
1.12806e-06
1.13181e-06
1.13564e-06
1.13955e-06
1.14353e-06
1.10033e-06
1.10206e-06
1.104e-06
1.10613e-06
1.10844e-06
1.11093e-06
1.1136e-06
1.11643e-06
1.11941e-06
1.12253e-06
1.12579e-06
1.12918e-06
1.13267e-06
1.13627e-06
1.13996e-06
1.14374e-06
1.14758e-06
1.1515e-06
1.10893e-06
1.11064e-06
1.11255e-06
1.11465e-06
1.11693e-06
1.11939e-06
1.12202e-06
1.12481e-06
1.12775e-06
1.13083e-06
1.13404e-06
1.13738e-06
1.14082e-06
1.14437e-06
1.148e-06
1.15172e-06
1.1555e-06
1.15935e-06
1.11742e-06
1.11911e-06
1.12099e-06
1.12306e-06
1.12532e-06
1.12774e-06
1.13033e-06
1.13308e-06
1.13598e-06
1.13902e-06
1.14219e-06
1.14547e-06
1.14886e-06
1.15235e-06
1.15593e-06
1.15959e-06
1.16331e-06
1.1671e-06
1.1258e-06
1.12747e-06
1.12933e-06
1.13137e-06
1.13359e-06
1.13598e-06
1.13854e-06
1.14125e-06
1.1441e-06
1.1471e-06
1.15021e-06
1.15345e-06
1.15679e-06
1.16023e-06
1.16375e-06
1.16734e-06
1.171e-06
1.17472e-06
1.13408e-06
1.13572e-06
1.13755e-06
1.13956e-06
1.14175e-06
1.14411e-06
1.14663e-06
1.1493e-06
1.15211e-06
1.15506e-06
1.15813e-06
1.16132e-06
1.1646e-06
1.16798e-06
1.17145e-06
1.17498e-06
1.17858e-06
1.18224e-06
1.14224e-06
1.14386e-06
1.14566e-06
1.14765e-06
1.14981e-06
1.15213e-06
1.15461e-06
1.15724e-06
1.16001e-06
1.16291e-06
1.16593e-06
1.16907e-06
1.1723e-06
1.17563e-06
1.17903e-06
1.18251e-06
1.18604e-06
1.18963e-06
1.15029e-06
1.15189e-06
1.15366e-06
1.15562e-06
1.15774e-06
1.16003e-06
1.16247e-06
1.16506e-06
1.16779e-06
1.17065e-06
1.17362e-06
1.1767e-06
1.17988e-06
1.18315e-06
1.1865e-06
1.18991e-06
1.19339e-06
1.19691e-06
1.15823e-06
1.1598e-06
1.16155e-06
1.16347e-06
1.16557e-06
1.16782e-06
1.17022e-06
1.17277e-06
1.17546e-06
1.17826e-06
1.18119e-06
1.18422e-06
1.18735e-06
1.19056e-06
1.19385e-06
1.1972e-06
1.20061e-06
1.20407e-06
1.16605e-06
1.1676e-06
1.16932e-06
1.17121e-06
1.17327e-06
1.17549e-06
1.17786e-06
1.18036e-06
1.183e-06
1.18577e-06
1.18864e-06
1.19162e-06
1.1947e-06
1.19785e-06
1.20108e-06
1.20437e-06
1.20772e-06
1.21111e-06
1.17375e-06
1.17528e-06
1.17697e-06
1.17884e-06
1.18086e-06
1.18304e-06
1.18537e-06
1.18784e-06
1.19043e-06
1.19315e-06
1.19598e-06
1.1989e-06
1.20192e-06
1.20502e-06
1.20819e-06
1.21142e-06
1.2147e-06
1.21803e-06
1.18134e-06
1.18284e-06
1.18451e-06
1.18634e-06
1.18833e-06
1.19048e-06
1.19276e-06
1.19519e-06
1.19774e-06
1.20041e-06
1.20319e-06
1.20606e-06
1.20903e-06
1.21207e-06
1.21518e-06
1.21835e-06
1.22156e-06
1.22483e-06
1.18751e-06
1.18881e-06
1.19028e-06
1.19192e-06
1.19372e-06
1.19568e-06
1.19779e-06
1.20004e-06
1.20242e-06
1.20493e-06
1.20755e-06
1.21028e-06
1.2131e-06
1.21601e-06
1.219e-06
1.22205e-06
1.22515e-06
1.2283e-06
1.2315e-06
1.19488e-06
1.19615e-06
1.1976e-06
1.19921e-06
1.20099e-06
1.20291e-06
1.20498e-06
1.20719e-06
1.20953e-06
1.21199e-06
1.21457e-06
1.21725e-06
1.22002e-06
1.22287e-06
1.2258e-06
1.22879e-06
1.23183e-06
1.23492e-06
1.23805e-06
1.20104e-06
1.20212e-06
1.20338e-06
1.2048e-06
1.20639e-06
1.20813e-06
1.21002e-06
1.21205e-06
1.21422e-06
1.21652e-06
1.21894e-06
1.22146e-06
1.22409e-06
1.22681e-06
1.22961e-06
1.23248e-06
1.23541e-06
1.23839e-06
1.24141e-06
1.24448e-06
1.20818e-06
1.20925e-06
1.21048e-06
1.21188e-06
1.21343e-06
1.21514e-06
1.217e-06
1.219e-06
1.22113e-06
1.22338e-06
1.22575e-06
1.22823e-06
1.23081e-06
1.23348e-06
1.23622e-06
1.23903e-06
1.2419e-06
1.24482e-06
1.24778e-06
1.25078e-06
1.2152e-06
1.21625e-06
1.21746e-06
1.21883e-06
1.22036e-06
1.22204e-06
1.22386e-06
1.22582e-06
1.22791e-06
1.23012e-06
1.23245e-06
1.23488e-06
1.23741e-06
1.24002e-06
1.24271e-06
1.24546e-06
1.24827e-06
1.25112e-06
1.25402e-06
1.25695e-06
1.2221e-06
1.22312e-06
1.22431e-06
1.22566e-06
1.22716e-06
1.2288e-06
1.23059e-06
1.23251e-06
1.23456e-06
1.23673e-06
1.23901e-06
1.2414e-06
1.24387e-06
1.24643e-06
1.24907e-06
1.25176e-06
1.25451e-06
1.2573e-06
1.26013e-06
1.26299e-06
1.22887e-06
1.22987e-06
1.23104e-06
1.23236e-06
1.23383e-06
1.23544e-06
1.23719e-06
1.23908e-06
1.24109e-06
1.24321e-06
1.24545e-06
1.24779e-06
1.25021e-06
1.25272e-06
1.2553e-06
1.25793e-06
1.26062e-06
1.26335e-06
1.26611e-06
1.26891e-06
1.23551e-06
1.23649e-06
1.23764e-06
1.23893e-06
1.24037e-06
1.24195e-06
1.24367e-06
1.24552e-06
1.24749e-06
1.24957e-06
1.25176e-06
1.25405e-06
1.25642e-06
1.25888e-06
1.2614e-06
1.26398e-06
1.2666e-06
1.26927e-06
1.27197e-06
1.27469e-06
1.24202e-06
1.24299e-06
1.24411e-06
1.24537e-06
1.24679e-06
1.24834e-06
1.25002e-06
1.25183e-06
1.25376e-06
1.2558e-06
1.25794e-06
1.26018e-06
1.2625e-06
1.2649e-06
1.26737e-06
1.26989e-06
1.27246e-06
1.27506e-06
1.27769e-06
1.28035e-06
1.2484e-06
1.24935e-06
1.25045e-06
1.25169e-06
1.25307e-06
1.25459e-06
1.25624e-06
1.25801e-06
1.25989e-06
1.26189e-06
1.26399e-06
1.26618e-06
1.26845e-06
1.2708e-06
1.27321e-06
1.27567e-06
1.27818e-06
1.28071e-06
1.28328e-06
1.28587e-06
1.25465e-06
1.25558e-06
1.25666e-06
1.25787e-06
1.25922e-06
1.26071e-06
1.26232e-06
1.26405e-06
1.2659e-06
1.26785e-06
1.2699e-06
1.27205e-06
1.27427e-06
1.27656e-06
1.27891e-06
1.28132e-06
1.28376e-06
1.28624e-06
1.28874e-06
1.29126e-06
1.26077e-06
1.26168e-06
1.26273e-06
1.26392e-06
1.26525e-06
1.2667e-06
1.26828e-06
1.26997e-06
1.27177e-06
1.27368e-06
1.27569e-06
1.27778e-06
1.27995e-06
1.28219e-06
1.28449e-06
1.28683e-06
1.28922e-06
1.29163e-06
1.29406e-06
1.29651e-06
1.26676e-06
1.26765e-06
1.26868e-06
1.26984e-06
1.27113e-06
1.27255e-06
1.27409e-06
1.27575e-06
1.27751e-06
1.27938e-06
1.28134e-06
1.28338e-06
1.2855e-06
1.28768e-06
1.28993e-06
1.29221e-06
1.29454e-06
1.29688e-06
1.29925e-06
1.30163e-06
1.27261e-06
1.27348e-06
1.27449e-06
1.27562e-06
1.27689e-06
1.27827e-06
1.27978e-06
1.2814e-06
1.28312e-06
1.28494e-06
1.28685e-06
1.28885e-06
1.29091e-06
1.29304e-06
1.29523e-06
1.29746e-06
1.29972e-06
1.302e-06
1.3043e-06
1.30662e-06
1.27833e-06
1.27918e-06
1.28016e-06
1.28127e-06
1.2825e-06
1.28386e-06
1.28533e-06
1.28691e-06
1.28859e-06
1.29036e-06
1.29223e-06
1.29417e-06
1.29619e-06
1.29826e-06
1.30039e-06
1.30256e-06
1.30476e-06
1.30698e-06
1.30922e-06
1.31146e-06
1.28391e-06
1.28474e-06
1.28569e-06
1.28678e-06
1.28798e-06
1.2893e-06
1.29074e-06
1.29228e-06
1.29392e-06
1.29565e-06
1.29747e-06
1.29936e-06
1.30133e-06
1.30335e-06
1.30542e-06
1.30753e-06
1.30967e-06
1.31183e-06
1.31399e-06
1.31617e-06
1.28935e-06
1.29016e-06
1.29109e-06
1.29215e-06
1.29332e-06
1.29461e-06
1.29601e-06
1.29751e-06
1.29911e-06
1.3008e-06
1.30257e-06
1.30441e-06
1.30632e-06
1.30829e-06
1.31031e-06
1.31236e-06
1.31444e-06
1.31653e-06
1.31863e-06
1.32073e-06
1.29466e-06
1.29544e-06
1.29635e-06
1.29738e-06
1.29852e-06
1.29978e-06
1.30114e-06
1.3026e-06
1.30416e-06
1.3058e-06
1.30753e-06
1.30932e-06
1.31118e-06
1.31309e-06
1.31505e-06
1.31704e-06
1.31906e-06
1.32109e-06
1.32312e-06
1.32516e-06
1.29982e-06
1.30058e-06
1.30147e-06
1.30247e-06
1.30358e-06
1.30481e-06
1.30613e-06
1.30756e-06
1.30907e-06
1.31067e-06
1.31234e-06
1.31409e-06
1.31589e-06
1.31775e-06
1.31966e-06
1.32159e-06
1.32354e-06
1.32551e-06
1.32748e-06
1.32944e-06
1.30483e-06
1.30558e-06
1.30644e-06
1.30742e-06
1.3085e-06
1.30969e-06
1.31098e-06
1.31236e-06
1.31383e-06
1.31539e-06
1.31702e-06
1.31871e-06
1.32047e-06
1.32227e-06
1.32411e-06
1.32599e-06
1.32788e-06
1.32978e-06
1.33168e-06
1.33358e-06
1.30971e-06
1.31043e-06
1.31127e-06
1.31222e-06
1.31327e-06
1.31443e-06
1.31568e-06
1.31703e-06
1.31846e-06
1.31996e-06
1.32154e-06
1.32319e-06
1.32489e-06
1.32664e-06
1.32843e-06
1.33024e-06
1.33207e-06
1.33391e-06
1.33574e-06
1.33757e-06
1.31444e-06
1.31514e-06
1.31596e-06
1.31688e-06
1.3179e-06
1.31902e-06
1.32024e-06
1.32154e-06
1.32293e-06
1.32439e-06
1.32592e-06
1.32752e-06
1.32917e-06
1.33086e-06
1.33259e-06
1.33435e-06
1.33612e-06
1.33789e-06
1.33966e-06
1.34141e-06
1.31902e-06
1.3197e-06
1.32049e-06
1.32139e-06
1.32238e-06
1.32347e-06
1.32465e-06
1.32591e-06
1.32726e-06
1.32867e-06
1.33016e-06
1.3317e-06
1.3333e-06
1.33494e-06
1.33661e-06
1.3383e-06
1.34001e-06
1.34172e-06
1.34342e-06
1.34511e-06
1.32345e-06
1.32412e-06
1.32488e-06
1.32575e-06
1.32671e-06
1.32776e-06
1.32891e-06
1.33013e-06
1.33143e-06
1.3328e-06
1.33424e-06
1.33573e-06
1.33728e-06
1.33886e-06
1.34047e-06
1.34211e-06
1.34376e-06
1.3454e-06
1.34704e-06
1.34865e-06
1.32774e-06
1.32838e-06
1.32912e-06
1.32996e-06
1.33089e-06
1.33191e-06
1.33301e-06
1.3342e-06
1.33546e-06
1.33678e-06
1.33817e-06
1.33961e-06
1.3411e-06
1.34263e-06
1.34419e-06
1.34576e-06
1.34735e-06
1.34893e-06
1.3505e-06
1.35204e-06
1.33491e-06
1.3359e-06
1.33697e-06
1.33811e-06
1.33933e-06
1.34061e-06
1.34195e-06
1.34334e-06
1.34477e-06
1.34625e-06
1.34775e-06
1.34926e-06
1.35078e-06
1.3523e-06
1.3538e-06
1.35528e-06
1.34304e-06
1.34428e-06
1.34557e-06
1.34691e-06
1.34829e-06
1.34971e-06
1.35115e-06
1.3526e-06
1.35406e-06
1.35552e-06
1.35695e-06
1.35836e-06
1.04892e-06
1.0443e-06
1.05802e-06
1.05345e-06
1.06702e-06
1.0625e-06
1.07593e-06
1.07147e-06
1.0671e-06
1.08474e-06
1.08034e-06
1.07602e-06
1.09345e-06
1.0891e-06
1.08485e-06
1.08068e-06
1.10206e-06
1.09777e-06
1.09357e-06
1.08946e-06
1.11056e-06
1.10634e-06
1.1022e-06
1.09814e-06
1.11897e-06
1.1148e-06
1.11072e-06
1.10671e-06
1.1028e-06
1.12726e-06
1.12316e-06
1.11913e-06
1.11519e-06
1.11133e-06
1.13545e-06
1.13141e-06
1.12744e-06
1.12355e-06
1.11975e-06
1.14353e-06
1.13955e-06
1.13565e-06
1.13181e-06
1.12807e-06
1.1515e-06
1.14758e-06
1.14374e-06
1.13996e-06
1.13627e-06
1.15935e-06
1.1555e-06
1.15172e-06
1.148e-06
1.14437e-06
1.1671e-06
1.16331e-06
1.15959e-06
1.15593e-06
1.15235e-06
1.14886e-06
1.17472e-06
1.171e-06
1.16734e-06
1.16375e-06
1.16023e-06
1.15679e-06
1.18224e-06
1.17858e-06
1.17498e-06
1.17145e-06
1.16798e-06
1.1646e-06
1.16132e-06
1.18963e-06
1.18604e-06
1.18251e-06
1.17903e-06
1.17563e-06
1.1723e-06
1.16907e-06
1.16593e-06
1.19691e-06
1.19339e-06
1.18991e-06
1.1865e-06
1.18315e-06
1.17989e-06
1.1767e-06
1.17362e-06
1.17065e-06
1.20407e-06
1.20061e-06
1.1972e-06
1.19385e-06
1.19056e-06
1.18735e-06
1.18422e-06
1.18119e-06
1.17827e-06
1.17546e-06
1.21111e-06
1.20772e-06
1.20437e-06
1.20108e-06
1.19785e-06
1.1947e-06
1.19162e-06
1.18864e-06
1.18577e-06
1.183e-06
1.21803e-06
1.2147e-06
1.21142e-06
1.20819e-06
1.20502e-06
1.20192e-06
1.1989e-06
1.19598e-06
1.19315e-06
1.19043e-06
1.22483e-06
1.22156e-06
1.21835e-06
1.21518e-06
1.21207e-06
1.20903e-06
1.20606e-06
1.20319e-06
1.20041e-06
1.19774e-06
1.2315e-06
1.2283e-06
1.22515e-06
1.22205e-06
1.219e-06
1.21601e-06
1.2131e-06
1.21028e-06
1.20755e-06
1.20493e-06
1.23805e-06
1.23492e-06
1.23183e-06
1.22879e-06
1.2258e-06
1.22287e-06
1.22002e-06
1.21725e-06
1.21457e-06
1.21199e-06
1.24448e-06
1.24141e-06
1.23839e-06
1.23541e-06
1.23248e-06
1.22961e-06
1.22681e-06
1.22409e-06
1.22146e-06
1.21894e-06
1.25078e-06
1.24778e-06
1.24482e-06
1.2419e-06
1.23903e-06
1.23622e-06
1.23348e-06
1.23081e-06
1.22823e-06
1.22575e-06
1.25695e-06
1.25402e-06
1.25113e-06
1.24827e-06
1.24546e-06
1.24271e-06
1.24002e-06
1.23741e-06
1.23488e-06
1.23245e-06
1.26299e-06
1.26013e-06
1.2573e-06
1.25451e-06
1.25176e-06
1.24907e-06
1.24643e-06
1.24387e-06
1.2414e-06
1.23901e-06
1.26891e-06
1.26611e-06
1.26335e-06
1.26062e-06
1.25793e-06
1.2553e-06
1.25272e-06
1.25021e-06
1.24779e-06
1.24545e-06
1.27469e-06
1.27197e-06
1.26927e-06
1.2666e-06
1.26398e-06
1.2614e-06
1.25888e-06
1.25642e-06
1.25405e-06
1.25176e-06
1.28035e-06
1.27769e-06
1.27506e-06
1.27246e-06
1.26989e-06
1.26737e-06
1.2649e-06
1.2625e-06
1.26018e-06
1.25794e-06
1.04892e-06
1.05802e-06
1.06702e-06
1.07593e-06
1.08474e-06
1.09345e-06
1.10206e-06
1.11056e-06
1.11897e-06
1.12726e-06
1.13545e-06
1.14353e-06
1.1515e-06
1.15935e-06
1.1671e-06
1.17472e-06
1.18224e-06
1.18963e-06
1.19691e-06
1.20407e-06
1.21111e-06
1.21803e-06
1.22483e-06
1.2315e-06
1.23805e-06
1.24448e-06
1.25078e-06
1.25695e-06
1.26299e-06
1.26891e-06
1.27469e-06
1.28035e-06
1.0443e-06
1.05345e-06
1.0625e-06
1.07147e-06
1.08034e-06
1.0891e-06
1.09777e-06
1.10634e-06
1.1148e-06
1.12316e-06
1.13141e-06
1.13955e-06
1.14758e-06
1.1555e-06
1.16331e-06
1.171e-06
1.17858e-06
1.18604e-06
1.19339e-06
1.20061e-06
1.20772e-06
1.2147e-06
1.22156e-06
1.2283e-06
1.23492e-06
1.24141e-06
1.24778e-06
1.25402e-06
1.26013e-06
1.26611e-06
1.27197e-06
1.27769e-06
1.28328e-06
1.03977e-06
1.04897e-06
1.05808e-06
1.0671e-06
1.07602e-06
1.08485e-06
1.09357e-06
1.1022e-06
1.11072e-06
1.11913e-06
1.12744e-06
1.13565e-06
1.14374e-06
1.15172e-06
1.15959e-06
1.16734e-06
1.17498e-06
1.18251e-06
1.18991e-06
1.1972e-06
1.20437e-06
1.21142e-06
1.21835e-06
1.22515e-06
1.23183e-06
1.23839e-06
1.24482e-06
1.25113e-06
1.2573e-06
1.26335e-06
1.26927e-06
1.27506e-06
1.28071e-06
1.28624e-06
1.29163e-06
1.29688e-06
1.302e-06
1.30698e-06
1.03534e-06
1.04459e-06
1.05375e-06
1.06282e-06
1.0718e-06
1.08068e-06
1.08946e-06
1.09814e-06
1.10671e-06
1.11519e-06
1.12355e-06
1.13181e-06
1.13996e-06
1.148e-06
1.15593e-06
1.16375e-06
1.17145e-06
1.17903e-06
1.1865e-06
1.19385e-06
1.20108e-06
1.20819e-06
1.21518e-06
1.22205e-06
1.22879e-06
1.23541e-06
1.2419e-06
1.24827e-06
1.25451e-06
1.26062e-06
1.2666e-06
1.27246e-06
1.27818e-06
1.28376e-06
1.28922e-06
1.29454e-06
1.29972e-06
1.30476e-06
1.03102e-06
1.04032e-06
1.04953e-06
1.05865e-06
1.06767e-06
1.0766e-06
1.08544e-06
1.09417e-06
1.1028e-06
1.11133e-06
1.11975e-06
1.12807e-06
1.13627e-06
1.14437e-06
1.15235e-06
1.16023e-06
1.16798e-06
1.17563e-06
1.18315e-06
1.19056e-06
1.19785e-06
1.20502e-06
1.21207e-06
1.219e-06
1.2258e-06
1.23248e-06
1.23903e-06
1.24546e-06
1.25176e-06
1.25793e-06
1.26398e-06
1.26989e-06
1.27567e-06
1.28132e-06
1.28683e-06
1.29221e-06
1.29746e-06
1.30256e-06
1.02682e-06
1.03617e-06
1.04542e-06
1.05459e-06
1.06366e-06
1.07264e-06
1.08153e-06
1.09031e-06
1.09899e-06
1.10757e-06
1.11604e-06
1.12441e-06
1.13267e-06
1.14082e-06
1.14886e-06
1.15679e-06
1.1646e-06
1.1723e-06
1.17989e-06
1.18735e-06
1.1947e-06
1.20192e-06
1.20903e-06
1.21601e-06
1.22287e-06
1.22961e-06
1.23622e-06
1.24271e-06
1.24907e-06
1.2553e-06
1.2614e-06
1.26737e-06
1.27321e-06
1.27891e-06
1.28449e-06
1.28993e-06
1.29523e-06
1.30039e-06
1.30542e-06
1.02276e-06
1.03215e-06
1.04145e-06
1.05066e-06
1.05978e-06
1.0688e-06
1.07773e-06
1.08656e-06
1.09529e-06
1.10392e-06
1.11245e-06
1.12086e-06
1.12918e-06
1.13738e-06
1.14547e-06
1.15345e-06
1.16132e-06
1.16907e-06
1.1767e-06
1.18422e-06
1.19162e-06
1.1989e-06
1.20606e-06
1.2131e-06
1.22002e-06
1.22681e-06
1.23348e-06
1.24002e-06
1.24643e-06
1.25272e-06
1.25888e-06
1.2649e-06
1.2708e-06
1.27656e-06
1.28219e-06
1.28769e-06
1.29304e-06
1.29827e-06
1.30335e-06
1.01884e-06
1.02826e-06
1.03761e-06
1.04686e-06
1.05602e-06
1.06509e-06
1.07407e-06
1.08294e-06
1.09172e-06
1.10039e-06
1.10897e-06
1.11743e-06
1.12579e-06
1.13404e-06
1.14219e-06
1.15022e-06
1.15813e-06
1.16593e-06
1.17362e-06
1.18119e-06
1.18864e-06
1.19598e-06
1.20319e-06
1.21028e-06
1.21725e-06
1.22409e-06
1.23081e-06
1.23741e-06
1.24387e-06
1.25021e-06
1.25642e-06
1.2625e-06
1.26845e-06
1.27427e-06
1.27995e-06
1.2855e-06
1.29091e-06
1.29619e-06
1.30133e-06
1.01507e-06
1.02454e-06
1.03392e-06
1.04321e-06
1.05241e-06
1.06152e-06
1.07054e-06
1.07946e-06
1.08828e-06
1.097e-06
1.10562e-06
1.11413e-06
1.12253e-06
1.13083e-06
1.13902e-06
1.1471e-06
1.15506e-06
1.16291e-06
1.17065e-06
1.17827e-06
1.18577e-06
1.19315e-06
1.20041e-06
1.20755e-06
1.21457e-06
1.22146e-06
1.22823e-06
1.23488e-06
1.2414e-06
1.24779e-06
1.25405e-06
1.26018e-06
1.26618e-06
1.27205e-06
1.27778e-06
1.28338e-06
1.28885e-06
1.29417e-06
1.29936e-06
1.01147e-06
1.02097e-06
1.03038e-06
1.03971e-06
1.04896e-06
1.05811e-06
1.06716e-06
1.07612e-06
1.08498e-06
1.09374e-06
1.1024e-06
1.11096e-06
1.11941e-06
1.12775e-06
1.13598e-06
1.1441e-06
1.15211e-06
1.16001e-06
1.16779e-06
1.17546e-06
1.183e-06
1.19043e-06
1.19774e-06
1.20493e-06
1.21199e-06
1.21894e-06
1.22575e-06
1.23245e-06
1.23901e-06
1.24545e-06
1.25176e-06
1.25794e-06
1.26399e-06
1.26991e-06
1.27569e-06
1.28134e-06
1.28685e-06
1.29223e-06
1.29747e-06
1.00804e-06
1.01757e-06
1.02702e-06
1.03639e-06
1.04566e-06
1.05485e-06
1.06394e-06
1.07294e-06
1.08184e-06
1.09064e-06
1.09934e-06
1.10794e-06
1.11643e-06
1.12481e-06
1.13308e-06
1.14125e-06
1.1493e-06
1.15724e-06
1.16506e-06
1.17277e-06
1.18036e-06
1.18784e-06
1.19519e-06
1.20242e-06
1.20953e-06
1.21652e-06
1.22338e-06
1.23012e-06
1.23673e-06
1.24321e-06
1.24957e-06
1.2558e-06
1.26189e-06
1.26785e-06
1.27368e-06
1.27938e-06
1.28494e-06
1.29036e-06
1.29565e-06
1.01436e-06
1.02384e-06
1.03324e-06
1.04255e-06
1.05177e-06
1.06089e-06
1.06993e-06
1.07886e-06
1.0877e-06
1.09644e-06
1.10507e-06
1.1136e-06
1.12202e-06
1.13033e-06
1.13854e-06
1.14663e-06
1.15461e-06
1.16247e-06
1.17022e-06
1.17786e-06
1.18537e-06
1.19276e-06
1.20004e-06
1.20719e-06
1.21422e-06
1.22113e-06
1.22791e-06
1.23456e-06
1.24109e-06
1.24749e-06
1.25376e-06
1.25989e-06
1.2659e-06
1.27178e-06
1.27752e-06
1.28312e-06
1.28859e-06
1.29392e-06
1.02084e-06
1.03027e-06
1.03961e-06
1.04886e-06
1.05802e-06
1.06709e-06
1.07606e-06
1.08493e-06
1.0937e-06
1.10237e-06
1.11093e-06
1.11939e-06
1.12774e-06
1.13598e-06
1.14411e-06
1.15213e-06
1.16003e-06
1.16782e-06
1.17549e-06
1.18304e-06
1.19048e-06
1.19779e-06
1.20498e-06
1.21205e-06
1.219e-06
1.22582e-06
1.23251e-06
1.23908e-06
1.24552e-06
1.25183e-06
1.25801e-06
1.26405e-06
1.26997e-06
1.27575e-06
1.2814e-06
1.28691e-06
1.29228e-06
1.01805e-06
1.0275e-06
1.03687e-06
1.04615e-06
1.05534e-06
1.06444e-06
1.07344e-06
1.08234e-06
1.09114e-06
1.09984e-06
1.10844e-06
1.11693e-06
1.12532e-06
1.13359e-06
1.14175e-06
1.14981e-06
1.15774e-06
1.16557e-06
1.17327e-06
1.18086e-06
1.18833e-06
1.19568e-06
1.20291e-06
1.21002e-06
1.217e-06
1.22386e-06
1.23059e-06
1.23719e-06
1.24367e-06
1.25002e-06
1.25624e-06
1.26232e-06
1.26828e-06
1.2741e-06
1.27978e-06
1.28533e-06
1.29074e-06
1.02493e-06
1.03433e-06
1.04363e-06
1.05285e-06
1.06197e-06
1.071e-06
1.07994e-06
1.08877e-06
1.0975e-06
1.10613e-06
1.11465e-06
1.12306e-06
1.13137e-06
1.13957e-06
1.14765e-06
1.15562e-06
1.16348e-06
1.17121e-06
1.17884e-06
1.18634e-06
1.19372e-06
1.20099e-06
1.20813e-06
1.21514e-06
1.22204e-06
1.2288e-06
1.23544e-06
1.24195e-06
1.24834e-06
1.25459e-06
1.26071e-06
1.2667e-06
1.27255e-06
1.27827e-06
1.28386e-06
1.2893e-06
1.02257e-06
1.03199e-06
1.04132e-06
1.05056e-06
1.05971e-06
1.06877e-06
1.07773e-06
1.08659e-06
1.09534e-06
1.104e-06
1.11255e-06
1.12099e-06
1.12933e-06
1.13755e-06
1.14566e-06
1.15367e-06
1.16155e-06
1.16932e-06
1.17697e-06
1.18451e-06
1.19192e-06
1.19921e-06
1.20639e-06
1.21343e-06
1.22036e-06
1.22716e-06
1.23383e-06
1.24037e-06
1.24679e-06
1.25307e-06
1.25922e-06
1.26525e-06
1.27113e-06
1.27689e-06
1.2825e-06
1.28798e-06
1.02987e-06
1.03922e-06
1.04848e-06
1.05766e-06
1.06673e-06
1.07572e-06
1.0846e-06
1.09338e-06
1.10206e-06
1.11064e-06
1.11911e-06
1.12747e-06
1.13572e-06
1.14386e-06
1.15189e-06
1.1598e-06
1.1676e-06
1.17528e-06
1.18284e-06
1.19028e-06
1.1976e-06
1.2048e-06
1.21188e-06
1.21883e-06
1.22566e-06
1.23236e-06
1.23893e-06
1.24537e-06
1.25169e-06
1.25787e-06
1.26392e-06
1.26984e-06
1.27562e-06
1.28127e-06
1.28678e-06
1.03734e-06
1.04662e-06
1.05581e-06
1.06491e-06
1.07392e-06
1.08282e-06
1.09163e-06
1.10033e-06
1.10893e-06
1.11742e-06
1.1258e-06
1.13408e-06
1.14224e-06
1.15029e-06
1.15823e-06
1.16605e-06
1.17375e-06
1.18134e-06
1.18881e-06
1.19615e-06
1.20338e-06
1.21048e-06
1.21746e-06
1.22431e-06
1.23104e-06
1.23764e-06
1.24411e-06
1.25045e-06
1.25666e-06
1.26273e-06
1.26868e-06
1.27449e-06
1.28016e-06
1.2857e-06
1.03568e-06
1.04498e-06
1.05419e-06
1.06331e-06
1.07233e-06
1.08125e-06
1.09008e-06
1.0988e-06
1.10742e-06
1.11593e-06
1.12433e-06
1.13263e-06
1.14081e-06
1.14888e-06
1.15684e-06
1.16468e-06
1.17241e-06
1.18002e-06
1.18751e-06
1.19488e-06
1.20212e-06
1.20925e-06
1.21625e-06
1.22312e-06
1.22987e-06
1.23649e-06
1.24299e-06
1.24935e-06
1.25558e-06
1.26168e-06
1.26765e-06
1.27348e-06
1.27918e-06
1.28474e-06
1.03424e-06
1.04356e-06
1.05279e-06
1.06192e-06
1.07096e-06
1.0799e-06
1.08874e-06
1.09748e-06
1.10611e-06
1.11464e-06
1.12306e-06
1.13138e-06
1.13958e-06
1.14767e-06
1.15565e-06
1.16351e-06
1.17125e-06
1.17888e-06
1.18639e-06
1.19377e-06
1.20104e-06
1.20818e-06
1.2152e-06
1.2221e-06
1.22887e-06
1.23551e-06
1.24202e-06
1.2484e-06
1.25465e-06
1.26078e-06
1.26676e-06
1.27261e-06
1.27833e-06
1.28391e-06
1.03304e-06
1.04237e-06
1.05161e-06
1.06076e-06
1.06981e-06
1.07876e-06
1.08762e-06
1.09637e-06
1.10502e-06
1.11356e-06
1.122e-06
1.13033e-06
1.13854e-06
1.14665e-06
1.15464e-06
1.16252e-06
1.17028e-06
1.17792e-06
1.18545e-06
1.19285e-06
1.20013e-06
1.20729e-06
1.21433e-06
1.22124e-06
1.22802e-06
1.23468e-06
1.24121e-06
1.24761e-06
1.25388e-06
1.26001e-06
1.26602e-06
1.27189e-06
1.27762e-06
1.28322e-06
1.04142e-06
1.05067e-06
1.05982e-06
1.06889e-06
1.07785e-06
1.08672e-06
1.09548e-06
1.10414e-06
1.1127e-06
1.12114e-06
1.12948e-06
1.13771e-06
1.14583e-06
1.15383e-06
1.16172e-06
1.1695e-06
1.17715e-06
1.18469e-06
1.19211e-06
1.1994e-06
1.20657e-06
1.21362e-06
1.22055e-06
1.22734e-06
1.23401e-06
1.24056e-06
1.24697e-06
1.25325e-06
1.2594e-06
1.26542e-06
1.2713e-06
1.27705e-06
1.28266e-06
1.0407e-06
1.04996e-06
1.05912e-06
1.06819e-06
1.07716e-06
1.08604e-06
1.09481e-06
1.10348e-06
1.11204e-06
1.1205e-06
1.12885e-06
1.13709e-06
1.14521e-06
1.15323e-06
1.16113e-06
1.16891e-06
1.17657e-06
1.18412e-06
1.19154e-06
1.19885e-06
1.20603e-06
1.21309e-06
1.22002e-06
1.22683e-06
1.23351e-06
1.24006e-06
1.24649e-06
1.25278e-06
1.25894e-06
1.26497e-06
1.27086e-06
1.27662e-06
1.28224e-06
1.04948e-06
1.05865e-06
1.06773e-06
1.07671e-06
1.08558e-06
1.09436e-06
1.10304e-06
1.11161e-06
1.12007e-06
1.12843e-06
1.13667e-06
1.1448e-06
1.15282e-06
1.16073e-06
1.16851e-06
1.17619e-06
1.18374e-06
1.19117e-06
1.19848e-06
1.20567e-06
1.21274e-06
1.21968e-06
1.22649e-06
1.23318e-06
1.23974e-06
1.24617e-06
1.25246e-06
1.25863e-06
1.26467e-06
1.27057e-06
1.27633e-06
1.28196e-06
1.04924e-06
1.05842e-06
1.06749e-06
1.07648e-06
1.08536e-06
1.09414e-06
1.10282e-06
1.11139e-06
1.11986e-06
1.12821e-06
1.13646e-06
1.1446e-06
1.15262e-06
1.16053e-06
1.16832e-06
1.17599e-06
1.18355e-06
1.19098e-06
1.1983e-06
1.20549e-06
1.21256e-06
1.2195e-06
1.22632e-06
1.23301e-06
1.23957e-06
1.246e-06
1.25231e-06
1.25848e-06
1.26451e-06
1.27042e-06
1.27619e-06
1.28182e-06
1.05842e-06
1.06749e-06
1.07648e-06
1.08536e-06
1.09414e-06
1.10282e-06
1.11139e-06
1.11986e-06
1.12821e-06
1.13646e-06
1.1446e-06
1.15262e-06
1.16053e-06
1.16832e-06
1.17599e-06
1.18355e-06
1.19098e-06
1.1983e-06
1.20549e-06
1.21256e-06
1.2195e-06
1.22632e-06
1.23301e-06
1.23957e-06
1.246e-06
1.25231e-06
1.25848e-06
1.26451e-06
1.27042e-06
1.27619e-06
1.28182e-06
1.05865e-06
1.06773e-06
1.07671e-06
1.08558e-06
1.09436e-06
1.10304e-06
1.11161e-06
1.12007e-06
1.12843e-06
1.13667e-06
1.1448e-06
1.15282e-06
1.16073e-06
1.16851e-06
1.17619e-06
1.18374e-06
1.19117e-06
1.19848e-06
1.20567e-06
1.21274e-06
1.21968e-06
1.22649e-06
1.23318e-06
1.23974e-06
1.24617e-06
1.25246e-06
1.25863e-06
1.26467e-06
1.27057e-06
1.27633e-06
1.28196e-06
1.05912e-06
1.06819e-06
1.07716e-06
1.08604e-06
1.09481e-06
1.10348e-06
1.11204e-06
1.1205e-06
1.12885e-06
1.13709e-06
1.14521e-06
1.15323e-06
1.16113e-06
1.16891e-06
1.17657e-06
1.18412e-06
1.19154e-06
1.19885e-06
1.20603e-06
1.21309e-06
1.22002e-06
1.22683e-06
1.23351e-06
1.24006e-06
1.24649e-06
1.25278e-06
1.25894e-06
1.26497e-06
1.27086e-06
1.27662e-06
1.28224e-06
1.05982e-06
1.06889e-06
1.07785e-06
1.08672e-06
1.09548e-06
1.10414e-06
1.1127e-06
1.12114e-06
1.12948e-06
1.13771e-06
1.14583e-06
1.15383e-06
1.16172e-06
1.1695e-06
1.17715e-06
1.18469e-06
1.19211e-06
1.1994e-06
1.20657e-06
1.21362e-06
1.22055e-06
1.22734e-06
1.23401e-06
1.24056e-06
1.24697e-06
1.25325e-06
1.2594e-06
1.26542e-06
1.2713e-06
1.27705e-06
1.28266e-06
1.06076e-06
1.06981e-06
1.07876e-06
1.08762e-06
1.09637e-06
1.10502e-06
1.11356e-06
1.122e-06
1.13033e-06
1.13854e-06
1.14665e-06
1.15464e-06
1.16252e-06
1.17028e-06
1.17792e-06
1.18545e-06
1.19285e-06
1.20013e-06
1.20729e-06
1.21433e-06
1.22124e-06
1.22802e-06
1.23468e-06
1.24121e-06
1.24761e-06
1.25388e-06
1.26001e-06
1.26602e-06
1.27189e-06
1.27762e-06
1.28322e-06
1.06192e-06
1.07096e-06
1.0799e-06
1.08874e-06
1.09748e-06
1.10611e-06
1.11464e-06
1.12306e-06
1.13138e-06
1.13958e-06
1.14767e-06
1.15565e-06
1.16351e-06
1.17125e-06
1.17888e-06
1.18639e-06
1.19377e-06
1.20104e-06
1.20818e-06
1.2152e-06
1.2221e-06
1.22887e-06
1.23551e-06
1.24202e-06
1.2484e-06
1.25465e-06
1.26078e-06
1.26676e-06
1.27261e-06
1.27833e-06
1.28391e-06
1.06331e-06
1.07233e-06
1.08125e-06
1.09008e-06
1.0988e-06
1.10742e-06
1.11593e-06
1.12433e-06
1.13263e-06
1.14081e-06
1.14888e-06
1.15684e-06
1.16468e-06
1.17241e-06
1.18002e-06
1.18751e-06
1.19488e-06
1.20212e-06
1.20925e-06
1.21625e-06
1.22312e-06
1.22987e-06
1.23649e-06
1.24299e-06
1.24935e-06
1.25558e-06
1.26168e-06
1.26765e-06
1.27348e-06
1.27918e-06
1.28474e-06
1.06491e-06
1.07392e-06
1.08282e-06
1.09163e-06
1.10033e-06
1.10893e-06
1.11742e-06
1.1258e-06
1.13408e-06
1.14224e-06
1.15029e-06
1.15823e-06
1.16605e-06
1.17375e-06
1.18134e-06
1.18881e-06
1.19615e-06
1.20338e-06
1.21048e-06
1.21746e-06
1.22431e-06
1.23104e-06
1.23764e-06
1.24411e-06
1.25045e-06
1.25666e-06
1.26273e-06
1.26868e-06
1.27449e-06
1.28016e-06
1.2857e-06
1.06673e-06
1.07572e-06
1.0846e-06
1.09338e-06
1.10206e-06
1.11064e-06
1.11911e-06
1.12747e-06
1.13572e-06
1.14386e-06
1.15189e-06
1.1598e-06
1.1676e-06
1.17528e-06
1.18284e-06
1.19028e-06
1.1976e-06
1.2048e-06
1.21188e-06
1.21883e-06
1.22566e-06
1.23236e-06
1.23893e-06
1.24537e-06
1.25169e-06
1.25787e-06
1.26392e-06
1.26984e-06
1.27562e-06
1.28127e-06
1.28678e-06
1.06877e-06
1.07773e-06
1.08659e-06
1.09534e-06
1.104e-06
1.11255e-06
1.12099e-06
1.12933e-06
1.13755e-06
1.14566e-06
1.15367e-06
1.16155e-06
1.16932e-06
1.17697e-06
1.18451e-06
1.19192e-06
1.19921e-06
1.20639e-06
1.21343e-06
1.22036e-06
1.22716e-06
1.23383e-06
1.24037e-06
1.24679e-06
1.25307e-06
1.25922e-06
1.26525e-06
1.27113e-06
1.27689e-06
1.2825e-06
1.28798e-06
1.071e-06
1.07994e-06
1.08877e-06
1.0975e-06
1.10613e-06
1.11465e-06
1.12306e-06
1.13137e-06
1.13957e-06
1.14765e-06
1.15562e-06
1.16348e-06
1.17121e-06
1.17884e-06
1.18634e-06
1.19372e-06
1.20099e-06
1.20813e-06
1.21514e-06
1.22204e-06
1.2288e-06
1.23544e-06
1.24195e-06
1.24834e-06
1.25459e-06
1.26071e-06
1.2667e-06
1.27255e-06