/*--------------------------------*- C++ -*----------------------------------*\
  =========                 |
  \\      /  F ield         | OpenFOAM: The Open Source CFD Toolbox
   \\    /   O peration     | Website:  https://openfoam.org
    \\  /    A nd           | Version:  7
     \\/     M anipulation  |
\*---------------------------------------------------------------------------*/
FoamFile
{
    version     2.0;
    format      ascii;
    class       volScalarField;
    location    "36000";
    object      nut;
}
// * * * * * * * * * * * * * * * * * * * * * * * * * * * * * * * * * * * * * //

dimensions      [0 2 -1 0 0 0 0];

internalField   nonuniform List<scalar> 
1776
(
3.98169e-06
4.04851e-06
4.11201e-06
4.17185e-06
4.22765e-06
4.27905e-06
4.32567e-06
4.36719e-06
4.40333e-06
3.66095e-06
3.72793e-06
3.79175e-06
3.85241e-06
3.90961e-06
3.96297e-06
4.01212e-06
4.05672e-06
4.09645e-06
4.13104e-06
3.41603e-06
3.47981e-06
3.54061e-06
3.59844e-06
3.65299e-06
3.70389e-06
3.7508e-06
3.79338e-06
3.83131e-06
3.86434e-06
3.17689e-06
3.23747e-06
3.29526e-06
3.35026e-06
3.40216e-06
3.45061e-06
3.49527e-06
3.53581e-06
3.57194e-06
3.60341e-06
2.94371e-06
3.0011e-06
3.05588e-06
3.10805e-06
3.1573e-06
3.20329e-06
3.2457e-06
3.28421e-06
3.31853e-06
3.34843e-06
2.71666e-06
2.77087e-06
2.82265e-06
2.87199e-06
2.9186e-06
2.96214e-06
3.00229e-06
3.03876e-06
3.07128e-06
3.09961e-06
2.49593e-06
2.54697e-06
2.59577e-06
2.64229e-06
2.68626e-06
2.72734e-06
2.76524e-06
2.79968e-06
2.83039e-06
2.85715e-06
2.28172e-06
2.32962e-06
2.37545e-06
2.41916e-06
2.46049e-06
2.49912e-06
2.53478e-06
2.56718e-06
2.59609e-06
2.62128e-06
2.07427e-06
2.11903e-06
2.1619e-06
2.20282e-06
2.24152e-06
2.27772e-06
2.31113e-06
2.34151e-06
2.36861e-06
2.39224e-06
1.87379e-06
1.91546e-06
1.95539e-06
1.99353e-06
2.02962e-06
2.06338e-06
2.09456e-06
2.12292e-06
2.14823e-06
2.17029e-06
1.68058e-06
1.71916e-06
1.75618e-06
1.79155e-06
1.82504e-06
1.85639e-06
1.88535e-06
1.91169e-06
1.93521e-06
1.95572e-06
1.49492e-06
1.53045e-06
1.56457e-06
1.59721e-06
1.62811e-06
1.65706e-06
1.68381e-06
1.70816e-06
1.7299e-06
1.74886e-06
1.31715e-06
1.34967e-06
1.38092e-06
1.41083e-06
1.43918e-06
1.46574e-06
1.4903e-06
1.51265e-06
1.53263e-06
1.55006e-06
1.14767e-06
1.1772e-06
1.20561e-06
1.23282e-06
1.25863e-06
1.28283e-06
1.30521e-06
1.32559e-06
1.34381e-06
1.35972e-06
9.86916e-07
1.0135e-06
1.0391e-06
1.06364e-06
1.08694e-06
1.10879e-06
1.12901e-06
1.14744e-06
1.16392e-06
1.17831e-06
8.35443e-07
8.59112e-07
8.81933e-07
9.03832e-07
9.24636e-07
9.44166e-07
9.62256e-07
9.7875e-07
9.93506e-07
1.0064e-06
6.93892e-07
7.14683e-07
7.34757e-07
7.54043e-07
7.72383e-07
7.89616e-07
8.05592e-07
8.20169e-07
8.33219e-07
8.44626e-07
5.63047e-07
5.80999e-07
5.98361e-07
6.15065e-07
6.30969e-07
6.45932e-07
6.59817e-07
6.72498e-07
6.83859e-07
6.93797e-07
4.43858e-07
4.59016e-07
4.73704e-07
4.87862e-07
5.01364e-07
5.14085e-07
5.25905e-07
5.36713e-07
5.46407e-07
5.54893e-07
3.37449e-07
3.49871e-07
3.61938e-07
3.73596e-07
3.84737e-07
3.95254e-07
4.05044e-07
4.14008e-07
4.22058e-07
4.29114e-07
2.45074e-07
2.54851e-07
2.64378e-07
2.73608e-07
2.82454e-07
2.90824e-07
2.98632e-07
3.05797e-07
3.12242e-07
3.179e-07
1.67966e-07
1.75248e-07
1.82371e-07
1.89298e-07
1.95958e-07
2.0228e-07
2.08194e-07
2.13634e-07
2.18539e-07
2.22853e-07
1.07e-07
1.12035e-07
1.16981e-07
1.21812e-07
1.26476e-07
1.3092e-07
1.35091e-07
1.3894e-07
1.42419e-07
1.45487e-07
6.22031e-08
6.53576e-08
6.84713e-08
7.15267e-08
7.44895e-08
7.73241e-08
7.99949e-08
8.2468e-08
8.47107e-08
8.66935e-08
3.22844e-08
3.40258e-08
3.57525e-08
3.74545e-08
3.91121e-08
4.07044e-08
4.22105e-08
4.36099e-08
4.4883e-08
4.60116e-08
1.45617e-08
1.53818e-08
1.6198e-08
1.70055e-08
1.77948e-08
1.85557e-08
1.92777e-08
1.99505e-08
2.05643e-08
2.11098e-08
5.50163e-09
5.81825e-09
6.13398e-09
6.44714e-09
6.75398e-09
7.05043e-09
7.33235e-09
7.59562e-09
7.83622e-09
8.05039e-09
1.64316e-09
1.73751e-09
1.83163e-09
1.92506e-09
2.01668e-09
2.10528e-09
2.1896e-09
2.26841e-09
2.34048e-09
2.40468e-09
3.49433e-10
3.68902e-10
3.88293e-10
4.07524e-10
4.26365e-10
4.44569e-10
4.61884e-10
4.78057e-10
4.92841e-10
5.06003e-10
4.27598e-11
4.49724e-11
4.71667e-11
4.93357e-11
5.14544e-11
5.34959e-11
5.54326e-11
5.72373e-11
5.88837e-11
6.0347e-11
1.83904e-12
1.91847e-12
1.99649e-12
2.07303e-12
2.14727e-12
2.21834e-12
2.28536e-12
2.34748e-12
2.40388e-12
2.45378e-12
8.15205e-15
8.35508e-15
8.54973e-15
8.73744e-15
8.91669e-15
9.08582e-15
9.24321e-15
9.38734e-15
9.51679e-15
9.63028e-15
3.66095e-06
3.41603e-06
3.17689e-06
2.94371e-06
2.71666e-06
2.49593e-06
2.28172e-06
2.07426e-06
1.87379e-06
1.68058e-06
1.49492e-06
1.31715e-06
1.14767e-06
9.86916e-07
8.35443e-07
6.93892e-07
5.63047e-07
4.43858e-07
3.37449e-07
2.45074e-07
1.67966e-07
1.07e-07
6.22031e-08
3.22844e-08
1.45617e-08
5.50163e-09
1.64316e-09
3.49433e-10
4.27598e-11
1.83904e-12
8.15205e-15
3.72793e-06
3.47981e-06
3.23747e-06
3.0011e-06
2.77087e-06
2.54697e-06
2.32962e-06
2.11903e-06
1.91546e-06
1.71916e-06
1.53045e-06
1.34967e-06
1.1772e-06
1.0135e-06
8.59112e-07
7.14683e-07
5.80999e-07
4.59016e-07
3.49871e-07
2.54851e-07
1.75248e-07
1.12035e-07
6.53576e-08
3.40258e-08
1.53818e-08
5.81825e-09
1.73751e-09
3.68902e-10
4.49724e-11
1.91847e-12
8.35508e-15
3.79175e-06
3.54061e-06
3.29526e-06
3.05588e-06
2.82265e-06
2.59577e-06
2.37545e-06
2.1619e-06
1.95539e-06
1.75618e-06
1.56458e-06
1.38092e-06
1.20561e-06
1.0391e-06
8.81933e-07
7.34757e-07
5.98361e-07
4.73704e-07
3.61938e-07
2.64378e-07
1.82371e-07
1.16981e-07
6.84713e-08
3.57525e-08
1.6198e-08
6.13398e-09
1.83163e-09
3.88293e-10
4.71667e-11
1.99649e-12
8.54973e-15
3.85241e-06
3.59844e-06
3.35026e-06
3.10805e-06
2.872e-06
2.6423e-06
2.41916e-06
2.20282e-06
1.99353e-06
1.79155e-06
1.59721e-06
1.41083e-06
1.23282e-06
1.06364e-06
9.03833e-07
7.54043e-07
6.15065e-07
4.87862e-07
3.73596e-07
2.73609e-07
1.89298e-07
1.21812e-07
7.15268e-08
3.74545e-08
1.70055e-08
6.44715e-09
1.92506e-09
4.07524e-10
4.93358e-11
2.07303e-12
8.73745e-15
3.90961e-06
3.65299e-06
3.40216e-06
3.1573e-06
2.9186e-06
2.68626e-06
2.46049e-06
2.24152e-06
2.02962e-06
1.82504e-06
1.62811e-06
1.43918e-06
1.25863e-06
1.08694e-06
9.24636e-07
7.72383e-07
6.30969e-07
5.01364e-07
3.84737e-07
2.82454e-07
1.95958e-07
1.26476e-07
7.44895e-08
3.91121e-08
1.77948e-08
6.75398e-09
2.01668e-09
4.26365e-10
5.14544e-11
2.14727e-12
8.91669e-15
3.96297e-06
3.7039e-06
3.45061e-06
3.20329e-06
2.96214e-06
2.72734e-06
2.49912e-06
2.27772e-06
2.06338e-06
1.85639e-06
1.65706e-06
1.46574e-06
1.28283e-06
1.10879e-06
9.44166e-07
7.89616e-07
6.45932e-07
5.14085e-07
3.95254e-07
2.90824e-07
2.0228e-07
1.3092e-07
7.7324e-08
4.07044e-08
1.85557e-08
7.05042e-09
2.10528e-09
4.44569e-10
5.34959e-11
2.21834e-12
9.08582e-15
4.01212e-06
3.7508e-06
3.49527e-06
3.2457e-06
3.00229e-06
2.76524e-06
2.53478e-06
2.31113e-06
2.09456e-06
1.88535e-06
1.68381e-06
1.4903e-06
1.30521e-06
1.12901e-06
9.62256e-07
8.05592e-07
6.59817e-07
5.25905e-07
4.05044e-07
2.98633e-07
2.08194e-07
1.35091e-07
7.99949e-08
4.22105e-08
1.92777e-08
7.33235e-09
2.1896e-09
4.61885e-10
5.54326e-11
2.28537e-12
9.24321e-15
4.05672e-06
3.79338e-06
3.53581e-06
3.28421e-06
3.03876e-06
2.79968e-06
2.56718e-06
2.34151e-06
2.12292e-06
1.9117e-06
1.70816e-06
1.51265e-06
1.3256e-06
1.14744e-06
9.7875e-07
8.2017e-07
6.72498e-07
5.36714e-07
4.14008e-07
3.05797e-07
2.13634e-07
1.3894e-07
8.2468e-08
4.36099e-08
1.99505e-08
7.59562e-09
2.26841e-09
4.78057e-10
5.72374e-11
2.34748e-12
9.38734e-15
4.09645e-06
3.83131e-06
3.57194e-06
3.31853e-06
3.07128e-06
2.83039e-06
2.59609e-06
2.36861e-06
2.14823e-06
1.93521e-06
1.7299e-06
1.53263e-06
1.34381e-06
1.16392e-06
9.93506e-07
8.33219e-07
6.8386e-07
5.46407e-07
4.22058e-07
3.12242e-07
2.18539e-07
1.42419e-07
8.47108e-08
4.4883e-08
2.05643e-08
7.83622e-09
2.34048e-09
4.92841e-10
5.88838e-11
2.40388e-12
9.51679e-15
4.13104e-06
3.86434e-06
3.60341e-06
3.34843e-06
3.09961e-06
2.85715e-06
2.62128e-06
2.39224e-06
2.17029e-06
1.95573e-06
1.74886e-06
1.55006e-06
1.35972e-06
1.17831e-06
1.0064e-06
8.44626e-07
6.93797e-07
5.54893e-07
4.29114e-07
3.179e-07
2.22853e-07
1.45487e-07
8.66934e-08
4.60116e-08
2.11097e-08
8.05038e-09
2.40468e-09
5.06003e-10
6.03469e-11
2.45378e-12
9.63027e-15
4.16023e-06
3.89222e-06
3.62997e-06
3.37368e-06
3.12353e-06
2.87975e-06
2.64256e-06
2.4122e-06
2.18894e-06
1.97307e-06
1.7649e-06
1.5648e-06
1.37317e-06
1.19049e-06
1.01731e-06
8.54288e-07
7.02221e-07
5.62091e-07
4.35106e-07
3.2271e-07
2.26527e-07
1.48104e-07
8.83891e-08
4.69791e-08
2.15783e-08
8.23462e-09
2.45994e-09
5.17329e-10
6.16041e-11
2.4965e-12
9.72664e-15
4.18384e-06
3.91477e-06
3.65146e-06
3.3941e-06
3.14289e-06
2.89804e-06
2.65978e-06
2.42836e-06
2.20404e-06
1.9871e-06
1.77788e-06
1.57674e-06
1.38407e-06
1.20036e-06
1.02616e-06
8.62123e-07
7.09053e-07
5.67934e-07
4.39972e-07
3.26621e-07
2.29518e-07
1.50239e-07
8.97747e-08
4.77712e-08
2.19626e-08
8.38592e-09
2.50534e-09
5.26632e-10
6.26354e-11
2.53145e-12
9.80494e-15
4.20168e-06
3.93181e-06
3.6677e-06
3.40954e-06
3.15753e-06
2.91187e-06
2.67281e-06
2.44058e-06
2.21546e-06
1.99773e-06
1.78771e-06
1.58578e-06
1.39233e-06
1.20784e-06
1.03286e-06
8.68059e-07
7.14233e-07
5.72365e-07
4.43665e-07
3.29592e-07
2.31792e-07
1.51864e-07
9.08311e-08
4.83761e-08
2.22564e-08
8.50171e-09
2.5401e-09
5.33753e-10
6.34241e-11
2.55811e-12
9.86437e-15
4.21365e-06
3.94325e-06
3.6786e-06
3.4199e-06
3.16734e-06
2.92115e-06
2.68155e-06
2.44879e-06
2.22312e-06
2.00486e-06
1.79431e-06
1.59184e-06
1.39787e-06
1.21285e-06
1.03736e-06
8.72046e-07
7.17712e-07
5.75343e-07
4.46148e-07
3.3159e-07
2.33323e-07
1.52959e-07
9.15437e-08
4.87846e-08
2.24551e-08
8.58003e-09
2.56362e-09
5.38571e-10
6.39572e-11
2.5761e-12
9.90434e-15
4.21965e-06
3.94898e-06
3.68407e-06
3.42509e-06
3.17227e-06
2.92581e-06
2.68594e-06
2.4529e-06
2.22697e-06
2.00843e-06
1.79762e-06
1.59489e-06
1.40065e-06
1.21537e-06
1.03962e-06
8.74049e-07
7.1946e-07
5.76838e-07
4.47396e-07
3.32594e-07
2.34093e-07
1.5351e-07
9.19025e-08
4.89904e-08
2.25552e-08
8.61954e-09
2.57549e-09
5.41001e-10
6.42261e-11
2.58516e-12
9.92442e-15
4.21965e-06
3.94898e-06
3.68407e-06
3.42509e-06
3.17227e-06
2.92581e-06
2.68594e-06
2.4529e-06
2.22697e-06
2.00843e-06
1.79762e-06
1.59489e-06
1.40065e-06
1.21537e-06
1.03962e-06
8.74049e-07
7.1946e-07
5.76838e-07
4.47396e-07
3.32594e-07
2.34093e-07
1.5351e-07
9.19024e-08
4.89904e-08
2.25552e-08
8.61954e-09
2.57549e-09
5.41001e-10
6.4226e-11
2.58516e-12
9.92442e-15
4.21365e-06
3.94325e-06
3.6786e-06
3.4199e-06
3.16734e-06
2.92115e-06
2.68155e-06
2.44879e-06
2.22312e-06
2.00486e-06
1.79431e-06
1.59184e-06
1.39787e-06
1.21285e-06
1.03736e-06
8.72046e-07
7.17712e-07
5.75342e-07
4.46148e-07
3.3159e-07
2.33323e-07
1.52959e-07
9.15437e-08
4.87846e-08
2.24551e-08
8.58003e-09
2.56362e-09
5.38571e-10
6.39572e-11
2.5761e-12
9.90433e-15
4.20168e-06
3.93181e-06
3.6677e-06
3.40954e-06
3.15752e-06
2.91187e-06
2.67281e-06
2.44058e-06
2.21546e-06
1.99773e-06
1.78771e-06
1.58578e-06
1.39233e-06
1.20784e-06
1.03286e-06
8.68059e-07
7.14233e-07
5.72365e-07
4.43665e-07
3.29592e-07
2.31792e-07
1.51864e-07
9.08311e-08
4.83761e-08
2.22564e-08
8.50171e-09
2.5401e-09
5.33753e-10
6.34241e-11
2.55811e-12
9.86437e-15
4.18384e-06
3.91477e-06
3.65146e-06
3.3941e-06
3.14289e-06
2.89804e-06
2.65978e-06
2.42836e-06
2.20404e-06
1.9871e-06
1.77788e-06
1.57674e-06
1.38407e-06
1.20036e-06
1.02616e-06
8.62123e-07
7.09053e-07
5.67934e-07
4.39972e-07
3.26621e-07
2.29518e-07
1.50239e-07
8.97747e-08
4.77712e-08
2.19626e-08
8.38592e-09
2.50534e-09
5.26632e-10
6.26354e-11
2.53145e-12
9.80494e-15
4.16023e-06
3.89222e-06
3.62997e-06
3.37368e-06
3.12353e-06
2.87975e-06
2.64256e-06
2.4122e-06
2.18894e-06
1.97307e-06
1.7649e-06
1.5648e-06
1.37317e-06
1.19049e-06
1.01731e-06
8.54288e-07
7.02221e-07
5.62091e-07
4.35106e-07
3.2271e-07
2.26527e-07
1.48104e-07
8.83891e-08
4.69791e-08
2.15783e-08
8.23462e-09
2.45994e-09
5.17329e-10
6.16041e-11
2.4965e-12
9.72664e-15
4.13104e-06
3.86434e-06
3.60341e-06
3.34843e-06
3.09961e-06
2.85715e-06
2.62128e-06
2.39224e-06
2.17029e-06
1.95572e-06
1.74886e-06
1.55006e-06
1.35972e-06
1.17831e-06
1.0064e-06
8.44625e-07
6.93797e-07
5.54893e-07
4.29114e-07
3.179e-07
2.22853e-07
1.45487e-07
8.66934e-08
4.60116e-08
2.11097e-08
8.05038e-09
2.40468e-09
5.06003e-10
6.03469e-11
2.45378e-12
9.63026e-15
4.09645e-06
3.83131e-06
3.57194e-06
3.31853e-06
3.07128e-06
2.83039e-06
2.59609e-06
2.36861e-06
2.14823e-06
1.93521e-06
1.7299e-06
1.53263e-06
1.34381e-06
1.16392e-06
9.93506e-07
8.33219e-07
6.83859e-07
5.46407e-07
4.22058e-07
3.12242e-07
2.18539e-07
1.42419e-07
8.47107e-08
4.4883e-08
2.05643e-08
7.83622e-09
2.34048e-09
4.92841e-10
5.88837e-11
2.40387e-12
9.51678e-15
4.05672e-06
3.79338e-06
3.53581e-06
3.28421e-06
3.03876e-06
2.79968e-06
2.56718e-06
2.34151e-06
2.12292e-06
1.91169e-06
1.70816e-06
1.51265e-06
1.3256e-06
1.14744e-06
9.7875e-07
8.20169e-07
6.72498e-07
5.36713e-07
4.14008e-07
3.05797e-07
2.13634e-07
1.3894e-07
8.2468e-08
4.36099e-08
1.99505e-08
7.59562e-09
2.26841e-09
4.78057e-10
5.72373e-11
2.34748e-12
9.38734e-15
4.01212e-06
3.7508e-06
3.49527e-06
3.2457e-06
3.00229e-06
2.76524e-06
2.53478e-06
2.31113e-06
2.09456e-06
1.88535e-06
1.68381e-06
1.4903e-06
1.30521e-06
1.12901e-06
9.62256e-07
8.05592e-07
6.59817e-07
5.25905e-07
4.05044e-07
2.98632e-07
2.08194e-07
1.35091e-07
7.99949e-08
4.22105e-08
1.92777e-08
7.33235e-09
2.1896e-09
4.61884e-10
5.54326e-11
2.28536e-12
9.24321e-15
3.96297e-06
3.70389e-06
3.45061e-06
3.20329e-06
2.96214e-06
2.72734e-06
2.49912e-06
2.27772e-06
2.06338e-06
1.85639e-06
1.65706e-06
1.46574e-06
1.28283e-06
1.10879e-06
9.44166e-07
7.89616e-07
6.45932e-07
5.14085e-07
3.95254e-07
2.90824e-07
2.0228e-07
1.3092e-07
7.7324e-08
4.07044e-08
1.85557e-08
7.05042e-09
2.10528e-09
4.44569e-10
5.34958e-11
2.21834e-12
9.08582e-15
3.90961e-06
3.65299e-06
3.40216e-06
3.1573e-06
2.9186e-06
2.68626e-06
2.46049e-06
2.24152e-06
2.02962e-06
1.82504e-06
1.62811e-06
1.43918e-06
1.25863e-06
1.08694e-06
9.24636e-07
7.72383e-07
6.30969e-07
5.01364e-07
3.84737e-07
2.82454e-07
1.95958e-07
1.26476e-07
7.44895e-08
3.91121e-08
1.77948e-08
6.75398e-09
2.01668e-09
4.26365e-10
5.14544e-11
2.14727e-12
8.91669e-15
3.85241e-06
3.59844e-06
3.35026e-06
3.10805e-06
2.872e-06
2.6423e-06
2.41916e-06
2.20282e-06
1.99353e-06
1.79155e-06
1.59721e-06
1.41083e-06
1.23282e-06
1.06364e-06
9.03833e-07
7.54043e-07
6.15065e-07
4.87862e-07
3.73596e-07
2.73608e-07
1.89298e-07
1.21812e-07
7.15267e-08
3.74545e-08
1.70055e-08
6.44714e-09
1.92506e-09
4.07524e-10
4.93358e-11
2.07303e-12
8.73744e-15
3.79175e-06
3.54061e-06
3.29526e-06
3.05588e-06
2.82265e-06
2.59577e-06
2.37545e-06
2.1619e-06
1.95539e-06
1.75618e-06
1.56458e-06
1.38092e-06
1.20561e-06
1.0391e-06
8.81933e-07
7.34757e-07
5.98361e-07
4.73704e-07
3.61938e-07
2.64378e-07
1.82371e-07
1.16981e-07
6.84713e-08
3.57525e-08
1.6198e-08
6.13398e-09
1.83163e-09
3.88293e-10
4.71667e-11
1.99649e-12
8.54973e-15
3.72793e-06
3.47981e-06
3.23747e-06
3.0011e-06
2.77087e-06
2.54697e-06
2.32962e-06
2.11903e-06
1.91546e-06
1.71917e-06
1.53046e-06
1.34967e-06
1.1772e-06
1.0135e-06
8.59112e-07
7.14683e-07
5.80999e-07
4.59016e-07
3.49871e-07
2.54851e-07
1.75248e-07
1.12035e-07
6.53576e-08
3.40259e-08
1.53818e-08
5.81825e-09
1.73751e-09
3.68902e-10
4.49724e-11
1.91847e-12
8.35508e-15
3.66095e-06
3.41603e-06
3.17689e-06
2.94371e-06
2.71666e-06
2.49593e-06
2.28172e-06
2.07427e-06
1.87379e-06
1.68058e-06
1.49492e-06
1.31715e-06
1.14767e-06
9.86917e-07
8.35443e-07
6.93892e-07
5.63047e-07
4.43858e-07
3.37449e-07
2.45074e-07
1.67966e-07
1.07e-07
6.22031e-08
3.22844e-08
1.45617e-08
5.50163e-09
1.64316e-09
3.49433e-10
4.27598e-11
1.83904e-12
8.15205e-15
3.66095e-06
3.41603e-06
3.17689e-06
2.94371e-06
2.71666e-06
2.49593e-06
2.28172e-06
2.07426e-06
1.87379e-06
1.68058e-06
1.49492e-06
1.31715e-06
1.14767e-06
9.86916e-07
8.35443e-07
6.93892e-07
5.63047e-07
4.43858e-07
3.37449e-07
2.45074e-07
1.67966e-07
1.07e-07
6.22031e-08
3.22844e-08
1.45616e-08
5.50163e-09
1.64316e-09
3.49433e-10
4.27598e-11
1.83904e-12
8.15205e-15
3.72793e-06
3.47981e-06
3.23747e-06
3.0011e-06
2.77087e-06
2.54697e-06
2.32962e-06
2.11903e-06
1.91546e-06
1.71916e-06
1.53045e-06
1.34967e-06
1.1772e-06
1.0135e-06
8.59112e-07
7.14683e-07
5.80999e-07
4.59016e-07
3.49871e-07
2.54851e-07
1.75248e-07
1.12035e-07
6.53576e-08
3.40258e-08
1.53818e-08
5.81825e-09
1.73751e-09
3.68902e-10
4.49724e-11
1.91847e-12
8.35508e-15
3.79175e-06
3.54061e-06
3.29526e-06
3.05588e-06
2.82265e-06
2.59577e-06
2.37545e-06
2.1619e-06
1.95539e-06
1.75618e-06
1.56458e-06
1.38092e-06
1.20561e-06
1.0391e-06
8.81933e-07
7.34757e-07
5.98361e-07
4.73704e-07
3.61938e-07
2.64378e-07
1.82371e-07
1.16981e-07
6.84713e-08
3.57525e-08
1.6198e-08
6.13398e-09
1.83163e-09
3.88293e-10
4.71667e-11
1.99649e-12
8.54973e-15
3.85241e-06
3.59844e-06
3.35026e-06
3.10805e-06
2.87199e-06
2.6423e-06
2.41916e-06
2.20282e-06
1.99353e-06
1.79155e-06
1.59721e-06
1.41083e-06
1.23282e-06
1.06364e-06
9.03833e-07
7.54043e-07
6.15065e-07
4.87862e-07
3.73596e-07
2.73608e-07
1.89298e-07
1.21812e-07
7.15268e-08
3.74545e-08
1.70055e-08
6.44715e-09
1.92506e-09
4.07524e-10
4.93358e-11
2.07303e-12
8.73744e-15
3.90961e-06
3.65299e-06
3.40216e-06
3.1573e-06
2.9186e-06
2.68626e-06
2.46049e-06
2.24152e-06
2.02962e-06
1.82504e-06
1.62811e-06
1.43918e-06
1.25863e-06
1.08694e-06
9.24636e-07
7.72383e-07
6.30969e-07
5.01364e-07
3.84737e-07
2.82454e-07
1.95958e-07
1.26476e-07
7.44895e-08
3.91121e-08
1.77948e-08
6.75397e-09
2.01668e-09
4.26365e-10
5.14544e-11
2.14727e-12
8.91669e-15
3.96297e-06
3.7039e-06
3.45061e-06
3.20329e-06
2.96214e-06
2.72734e-06
2.49912e-06
2.27772e-06
2.06338e-06
1.85639e-06
1.65706e-06
1.46574e-06
1.28283e-06
1.10879e-06
9.44166e-07
7.89616e-07
6.45932e-07
5.14085e-07
3.95254e-07
2.90824e-07
2.0228e-07
1.3092e-07
7.7324e-08
4.07044e-08
1.85557e-08
7.05042e-09
2.10528e-09
4.44569e-10
5.34958e-11
2.21834e-12
9.08582e-15
4.01212e-06
3.7508e-06
3.49527e-06
3.2457e-06
3.00229e-06
2.76524e-06
2.53478e-06
2.31113e-06
2.09456e-06
1.88535e-06
1.68381e-06
1.4903e-06
1.30521e-06
1.12901e-06
9.62256e-07
8.05592e-07
6.59817e-07
5.25905e-07
4.05044e-07
2.98633e-07
2.08194e-07
1.35091e-07
7.99949e-08
4.22105e-08
1.92777e-08
7.33235e-09
2.1896e-09
4.61885e-10
5.54326e-11
2.28537e-12
9.24321e-15
4.05672e-06
3.79338e-06
3.53581e-06
3.28421e-06
3.03876e-06
2.79968e-06
2.56718e-06
2.34151e-06
2.12292e-06
1.9117e-06
1.70816e-06
1.51265e-06
1.3256e-06
1.14744e-06
9.7875e-07
8.2017e-07
6.72498e-07
5.36714e-07
4.14008e-07
3.05797e-07
2.13634e-07
1.3894e-07
8.2468e-08
4.36099e-08
1.99505e-08
7.59562e-09
2.26841e-09
4.78057e-10
5.72374e-11
2.34748e-12
9.38734e-15
4.09645e-06
3.83131e-06
3.57194e-06
3.31853e-06
3.07128e-06
2.83039e-06
2.59609e-06
2.36861e-06
2.14823e-06
1.93521e-06
1.7299e-06
1.53263e-06
1.34381e-06
1.16392e-06
9.93506e-07
8.33219e-07
6.8386e-07
5.46407e-07
4.22058e-07
3.12242e-07
2.18539e-07
1.42419e-07
8.47108e-08
4.4883e-08
2.05643e-08
7.83622e-09
2.34048e-09
4.92841e-10
5.88838e-11
2.40388e-12
9.51679e-15
4.13104e-06
3.86434e-06
3.60341e-06
3.34843e-06
3.09961e-06
2.85715e-06
2.62128e-06
2.39224e-06
2.17029e-06
1.95573e-06
1.74886e-06
1.55006e-06
1.35972e-06
1.17831e-06
1.0064e-06
8.44626e-07
6.93797e-07
5.54893e-07
4.29114e-07
3.179e-07
2.22853e-07
1.45487e-07
8.66934e-08
4.60116e-08
2.11097e-08
8.05038e-09
2.40468e-09
5.06003e-10
6.03469e-11
2.45378e-12
9.63027e-15
4.16023e-06
3.89222e-06
3.62997e-06
3.37368e-06
3.12353e-06
2.87975e-06
2.64256e-06
2.4122e-06
2.18894e-06
1.97307e-06
1.7649e-06
1.5648e-06
1.37317e-06
1.19049e-06
1.01731e-06
8.54288e-07
7.02221e-07
5.62091e-07
4.35106e-07
3.2271e-07
2.26527e-07
1.48104e-07
8.83891e-08
4.69791e-08
2.15783e-08
8.23462e-09
2.45994e-09
5.17329e-10
6.16041e-11
2.4965e-12
9.72664e-15
4.18383e-06
3.91477e-06
3.65146e-06
3.3941e-06
3.14289e-06
2.89804e-06
2.65978e-06
2.42836e-06
2.20404e-06
1.9871e-06
1.77788e-06
1.57674e-06
1.38407e-06
1.20036e-06
1.02616e-06
8.62123e-07
7.09053e-07
5.67934e-07
4.39972e-07
3.26621e-07
2.29518e-07
1.50239e-07
8.97747e-08
4.77712e-08
2.19626e-08
8.38592e-09
2.50534e-09
5.26632e-10
6.26354e-11
2.53145e-12
9.80494e-15
4.20168e-06
3.93181e-06
3.6677e-06
3.40954e-06
3.15752e-06
2.91187e-06
2.67281e-06
2.44058e-06
2.21546e-06
1.99773e-06
1.78771e-06
1.58578e-06
1.39233e-06
1.20784e-06
1.03286e-06
8.68059e-07
7.14233e-07
5.72365e-07
4.43665e-07
3.29592e-07
2.31792e-07
1.51864e-07
9.08311e-08
4.83761e-08
2.22564e-08
8.50171e-09
2.5401e-09
5.33753e-10
6.34241e-11
2.55811e-12
9.86437e-15
4.21365e-06
3.94325e-06
3.6786e-06
3.4199e-06
3.16734e-06
2.92115e-06
2.68155e-06
2.44879e-06
2.22312e-06
2.00486e-06
1.79431e-06
1.59184e-06
1.39787e-06
1.21285e-06
1.03736e-06
8.72046e-07
7.17712e-07
5.75343e-07
4.46148e-07
3.3159e-07
2.33323e-07
1.52959e-07
9.15437e-08
4.87846e-08
2.24551e-08
8.58003e-09
2.56362e-09
5.38571e-10
6.39572e-11
2.5761e-12
9.90434e-15
4.21965e-06
3.94898e-06
3.68407e-06
3.42509e-06
3.17227e-06
2.92581e-06
2.68594e-06
2.4529e-06
2.22697e-06
2.00843e-06
1.79762e-06
1.59489e-06
1.40065e-06
1.21537e-06
1.03962e-06
8.74049e-07
7.1946e-07
5.76838e-07
4.47396e-07
3.32594e-07
2.34093e-07
1.5351e-07
9.19025e-08
4.89904e-08
2.25552e-08
8.61954e-09
2.57549e-09
5.41001e-10
6.42261e-11
2.58516e-12
9.92442e-15
4.21965e-06
3.94898e-06
3.68407e-06
3.42509e-06
3.17227e-06
2.92581e-06
2.68594e-06
2.4529e-06
2.22697e-06
2.00843e-06
1.79762e-06
1.59489e-06
1.40065e-06
1.21537e-06
1.03962e-06
8.74049e-07
7.1946e-07
5.76838e-07
4.47396e-07
3.32594e-07
2.34093e-07
1.5351e-07
9.19024e-08
4.89904e-08
2.25552e-08
8.61954e-09
2.57549e-09
5.41001e-10
6.4226e-11
2.58516e-12
9.92442e-15
4.21365e-06
3.94325e-06
3.6786e-06
3.4199e-06
3.16734e-06
2.92115e-06
2.68155e-06
2.44879e-06
2.22312e-06
2.00486e-06
1.79431e-06
1.59184e-06
1.39787e-06
1.21285e-06
1.03736e-06
8.72046e-07
7.17712e-07
5.75342e-07
4.46148e-07
3.3159e-07
2.33323e-07
1.52959e-07
9.15436e-08
4.87845e-08
2.2455e-08
8.58003e-09
2.56362e-09
5.38571e-10
6.39572e-11
2.5761e-12
9.90433e-15
)
;

boundaryField
{
    inlet
    {
        type            cyclic;
    }
    outlet
    {
        type            cyclic;
    }
    wall
    {
        type            fixedValue;
        value           uniform 1e-30;
    }
    procBoundary0to1
    {
        type            processor;
        value           nonuniform List<scalar> 
59
(
4.24091e-06
4.31075e-06
4.37707e-06
4.43954e-06
4.49779e-06
4.55141e-06
4.60004e-06
4.64335e-06
4.68103e-06
3.9115e-06
3.9115e-06
3.9115e-06
3.98169e-06
4.04851e-06
4.11201e-06
4.17185e-06
4.22765e-06
4.27905e-06
4.32567e-06
4.36719e-06
4.40333e-06
4.43383e-06
4.45848e-06
4.47712e-06
4.48962e-06
4.49589e-06
4.49589e-06
4.48962e-06
4.47712e-06
4.45848e-06
4.43383e-06
4.40333e-06
4.36719e-06
4.32567e-06
4.27905e-06
4.22765e-06
4.17185e-06
4.11201e-06
4.04851e-06
3.98169e-06
3.9115e-06
3.9115e-06
3.98169e-06
4.04851e-06
4.11201e-06
4.17185e-06
4.22765e-06
4.27905e-06
4.32567e-06
4.36719e-06
4.40333e-06
4.43383e-06
4.45848e-06
4.47712e-06
4.48962e-06
4.49589e-06
4.49589e-06
4.48962e-06
4.20168e-06
)
;
    }
    procBoundary0to2
    {
        type            processor;
        value           nonuniform List<scalar> 
30
(
3.93181e-06
3.6677e-06
3.40954e-06
3.15752e-06
2.91187e-06
2.67281e-06
2.44058e-06
2.21546e-06
1.99773e-06
1.78771e-06
1.58578e-06
1.39233e-06
1.20784e-06
1.03286e-06
8.68059e-07
7.14233e-07
5.72365e-07
4.43665e-07
3.29592e-07
2.31792e-07
1.51864e-07
9.08311e-08
4.83761e-08
2.22565e-08
8.50172e-09
2.5401e-09
5.33754e-10
6.34241e-11
2.55811e-12
9.86438e-15
)
;
    }
    procBoundary0to3
    {
        type            processor;
        value           nonuniform List<scalar> 
32
(
4.43383e-06
4.16023e-06
3.89222e-06
3.62997e-06
3.37368e-06
3.12353e-06
2.87975e-06
2.64256e-06
2.4122e-06
2.18894e-06
1.97307e-06
1.7649e-06
1.5648e-06
1.37317e-06
1.19049e-06
1.01731e-06
8.54288e-07
7.02221e-07
5.62091e-07
4.35105e-07
3.2271e-07
2.26527e-07
1.48104e-07
8.8389e-08
4.6979e-08
2.15783e-08
8.23461e-09
2.45994e-09
5.17329e-10
6.1604e-11
2.4965e-12
9.72663e-15
)
;
    }
}


// ************************************************************************* //
