/*--------------------------------*- C++ -*----------------------------------*\
  =========                 |
  \\      /  F ield         | OpenFOAM: The Open Source CFD Toolbox
   \\    /   O peration     | Website:  https://openfoam.org
    \\  /    A nd           | Version:  7
     \\/     M anipulation  |
\*---------------------------------------------------------------------------*/
FoamFile
{
    version     2.0;
    format      ascii;
    class       volScalarField;
    location    "36000";
    object      omega;
}
// * * * * * * * * * * * * * * * * * * * * * * * * * * * * * * * * * * * * * //

dimensions      [0 0 -1 0 0 0 0];

internalField   nonuniform List<scalar> 
1776
(
0.313512
0.30899
0.304799
0.300939
0.297417
0.294238
0.291406
0.288923
0.286793
0.336048
0.330866
0.326082
0.321648
0.317564
0.313837
0.310473
0.307475
0.304848
0.302594
0.355194
0.349706
0.344639
0.339941
0.335613
0.331664
0.328099
0.324922
0.322138
0.31975
0.376032
0.370211
0.364836
0.359851
0.35526
0.351068
0.347285
0.343914
0.340959
0.338424
0.39877
0.392588
0.386878
0.381581
0.376701
0.372247
0.368226
0.364643
0.361502
0.358808
0.423651
0.417076
0.411001
0.405364
0.40017
0.395428
0.391148
0.387333
0.38399
0.381121
0.450957
0.443954
0.43748
0.431471
0.425934
0.420879
0.416314
0.412247
0.408682
0.405622
0.481019
0.473548
0.466637
0.460222
0.454309
0.44891
0.444034
0.43969
0.435881
0.432613
0.514225
0.506242
0.498852
0.49199
0.485665
0.479889
0.474672
0.470023
0.465947
0.46245
0.551034
0.542489
0.534573
0.527221
0.520442
0.514251
0.508658
0.503674
0.499305
0.495554
0.591993
0.582829
0.574334
0.566441
0.559162
0.552513
0.546507
0.541153
0.536459
0.532429
0.637755
0.627909
0.618775
0.610285
0.602453
0.595298
0.588833
0.58307
0.578017
0.573679
0.689113
0.678513
0.66867
0.659517
0.651073
0.643356
0.636383
0.630167
0.624715
0.620034
0.747037
0.735598
0.724966
0.715076
0.705949
0.697607
0.690068
0.683346
0.67745
0.672388
0.812733
0.800354
0.788838
0.778121
0.768229
0.759187
0.751015
0.743726
0.737333
0.731843
0.887731
0.87429
0.861772
0.850121
0.839365
0.829532
0.820644
0.812716
0.805762
0.799789
0.97403
0.959367
0.9457
0.932978
0.921233
0.910495
0.900788
0.89213
0.884535
0.878012
1.07434
1.05824
1.04322
1.02924
1.01634
1.00455
0.993886
0.984379
0.976038
0.968876
1.1925
1.17465
1.158
1.1425
1.1282
1.11514
1.10333
1.09281
1.08358
1.07565
1.33429
1.31421
1.29547
1.27806
1.262
1.24734
1.2341
1.22231
1.21197
1.20309
1.50884
1.48576
1.46424
1.44426
1.42586
1.40909
1.39396
1.38049
1.36869
1.35858
1.7314
1.70405
1.67858
1.65499
1.6333
1.61355
1.59577
1.57996
1.56613
1.55429
2.02837
1.99469
1.96338
1.93442
1.90785
1.88371
1.862
1.84273
1.8259
1.8115
2.44687
2.40351
2.36325
2.32608
2.29202
2.26112
2.23337
2.20877
2.18731
2.16896
3.07346
3.01502
2.96078
2.91073
2.86492
2.82337
2.78608
2.75306
2.72426
2.69966
4.07451
3.99201
3.91543
3.84474
3.78003
3.72134
3.66867
3.62201
3.58133
3.54657
5.79506
5.67257
5.55877
5.45365
5.35736
5.26996
5.19149
5.12194
5.06127
5.00942
9.04033
8.84617
8.66561
8.49867
8.34559
8.20654
8.08159
7.97075
7.874
7.79127
16.0384
15.6993
15.3836
15.0913
14.8231
14.5791
14.3597
14.1649
13.9948
13.8492
34.6961
34.0031
33.3568
32.7576
32.2069
31.7054
31.2538
30.8525
30.5015
30.201
106.456
104.601
102.866
101.253
99.767
98.4108
97.1871
96.0974
95.1429
94.3242
661.204
653.344
645.952
639.046
632.652
626.791
621.479
616.732
612.56
608.971
0.336048
0.355194
0.376032
0.39877
0.423651
0.450957
0.481019
0.514225
0.551034
0.591993
0.637755
0.689113
0.747037
0.812733
0.887731
0.97403
1.07434
1.1925
1.33429
1.50884
1.7314
2.02837
2.44687
3.07346
4.07451
5.79506
9.04033
16.0384
34.6961
106.456
661.204
0.330866
0.349706
0.370211
0.392588
0.417076
0.443954
0.473548
0.506242
0.542489
0.582829
0.627909
0.678513
0.735598
0.800354
0.87429
0.959367
1.05824
1.17465
1.31421
1.48576
1.70405
1.99469
2.40351
3.01502
3.99201
5.67257
8.84617
15.6993
34.0031
104.601
653.344
0.326082
0.344639
0.364836
0.386878
0.411001
0.43748
0.466637
0.498852
0.534573
0.574334
0.618775
0.66867
0.724966
0.788837
0.861772
0.9457
1.04322
1.158
1.29547
1.46424
1.67858
1.96338
2.36325
2.96078
3.91543
5.55877
8.66561
15.3836
33.3568
102.866
645.952
0.321648
0.339941
0.359851
0.381581
0.405364
0.431471
0.460222
0.49199
0.527221
0.566441
0.610285
0.659517
0.715076
0.778121
0.850121
0.932978
1.02924
1.1425
1.27806
1.44426
1.65499
1.93442
2.32608
2.91073
3.84474
5.45365
8.49867
15.0913
32.7576
101.253
639.046
0.317564
0.335613
0.35526
0.376701
0.40017
0.425934
0.454309
0.485665
0.520442
0.559162
0.602453
0.651073
0.705949
0.768229
0.839365
0.921233
1.01634
1.1282
1.262
1.42586
1.6333
1.90785
2.29202
2.86492
3.78003
5.35736
8.34559
14.8231
32.2069
99.767
632.652
0.313837
0.331664
0.351068
0.372247
0.395428
0.420879
0.44891
0.479889
0.514251
0.552513
0.595298
0.643356
0.697607
0.759187
0.829532
0.910495
1.00455
1.11514
1.24734
1.40909
1.61355
1.88371
2.26112
2.82337
3.72134
5.26996
8.20654
14.5791
31.7054
98.4108
626.791
0.310473
0.328099
0.347285
0.368226
0.391147
0.416314
0.444034
0.474672
0.508658
0.546507
0.588833
0.636383
0.690068
0.751014
0.820644
0.900788
0.993886
1.10333
1.2341
1.39396
1.59577
1.862
2.23337
2.78608
3.66867
5.19149
8.08159
14.3597
31.2538
97.1871
621.479
0.307475
0.324922
0.343914
0.364643
0.387333
0.412247
0.43969
0.470023
0.503674
0.541153
0.58307
0.630167
0.683346
0.743726
0.812716
0.89213
0.984379
1.09281
1.22231
1.38049
1.57996
1.84273
2.20877
2.75306
3.62201
5.12194
7.97075
14.1649
30.8525
96.0974
616.732
0.304848
0.322138
0.340959
0.361502
0.38399
0.408681
0.435881
0.465947
0.499304
0.536459
0.578017
0.624715
0.67745
0.737333
0.805762
0.884535
0.976038
1.08358
1.21197
1.36869
1.56613
1.8259
2.18731
2.72426
3.58133
5.06127
7.874
13.9948
30.5015
95.1429
612.56
0.302594
0.31975
0.338424
0.358808
0.381121
0.405622
0.432613
0.46245
0.495554
0.532429
0.573679
0.620034
0.672387
0.731843
0.799789
0.878012
0.968876
1.07565
1.20309
1.35858
1.55429
1.8115
2.16896
2.69966
3.54658
5.00942
7.79128
13.8492
30.201
94.3242
608.971
0.300714
0.317757
0.33631
0.35656
0.378728
0.40307
0.429887
0.459532
0.492426
0.529068
0.570061
0.61613
0.668164
0.727262
0.794806
0.872569
0.9629
1.06904
1.19569
1.35015
1.54442
1.79951
2.15371
2.67922
3.51771
4.96633
7.7225
13.7281
29.9508
93.6419
605.973
0.29921
0.316163
0.334618
0.354762
0.376813
0.401028
0.427705
0.457197
0.489922
0.526378
0.567164
0.613003
0.664782
0.723594
0.790815
0.86821
0.958114
1.06374
1.18977
1.3434
1.53654
1.78994
2.14154
2.66292
3.49467
4.93195
7.66759
13.6314
29.7508
93.096
603.568
0.298081
0.314967
0.333348
0.353412
0.375377
0.399496
0.426068
0.455445
0.488043
0.524359
0.56499
0.610657
0.662244
0.720842
0.78782
0.864939
0.954523
1.05977
1.18532
1.33834
1.53062
1.78277
2.13243
2.65071
3.47744
4.90621
7.62648
13.5589
29.601
92.6866
601.763
0.297328
0.314169
0.332502
0.352513
0.374419
0.398474
0.424977
0.454277
0.48679
0.523013
0.56354
0.609093
0.660552
0.719006
0.785823
0.862757
0.952127
1.05712
1.18236
1.33497
1.52668
1.778
2.12636
2.64259
3.46597
4.88908
7.59911
13.5107
29.5011
92.4137
600.557
0.296952
0.313771
0.332079
0.352063
0.37394
0.397964
0.424431
0.453693
0.486164
0.52234
0.562815
0.608311
0.659706
0.718088
0.784824
0.861666
0.950929
1.0558
1.18088
1.33328
1.52471
1.77561
2.12333
2.63854
3.46024
4.88053
7.58544
13.4866
29.4512
92.2773
599.955
0.296952
0.313771
0.332079
0.352063
0.37394
0.397964
0.424431
0.453693
0.486164
0.52234
0.562815
0.608311
0.659706
0.718088
0.784824
0.861666
0.950929
1.0558
1.18088
1.33328
1.52471
1.77561
2.12333
2.63854
3.46024
4.88053
7.58544
13.4866
29.4512
92.2773
599.955
0.297328
0.314169
0.332502
0.352513
0.374419
0.398474
0.424977
0.454277
0.48679
0.523013
0.56354
0.609093
0.660552
0.719006
0.785823
0.862757
0.952127
1.05712
1.18236
1.33497
1.52668
1.778
2.12636
2.64259
3.46597
4.88908
7.59911
13.5107
29.5011
92.4137
600.557
0.298081
0.314967
0.333348
0.353412
0.375377
0.399496
0.426068
0.455445
0.488043
0.524359
0.56499
0.610657
0.662244
0.720842
0.78782
0.864939
0.954523
1.05977
1.18532
1.33834
1.53062
1.78277
2.13243
2.65071
3.47744
4.90621
7.62648
13.5589
29.601
92.6866
601.763
0.29921
0.316163
0.334618
0.354762
0.376813
0.401028
0.427705
0.457197
0.489922
0.526378
0.567164
0.613003
0.664782
0.723594
0.790815
0.86821
0.958114
1.06374
1.18977
1.3434
1.53654
1.78994
2.14154
2.66292
3.49467
4.93195
7.66759
13.6314
29.7508
93.096
603.568
0.300714
0.317757
0.33631
0.35656
0.378728
0.40307
0.429887
0.459532
0.492426
0.529068
0.570061
0.61613
0.668164
0.727262
0.794806
0.872569
0.9629
1.06904
1.19569
1.35015
1.54442
1.79951
2.15371
2.67922
3.51771
4.96633
7.7225
13.7281
29.9508
93.6419
605.973
0.302594
0.31975
0.338424
0.358808
0.381121
0.405622
0.432613
0.46245
0.495554
0.532429
0.573679
0.620034
0.672388
0.731843
0.799789
0.878012
0.968876
1.07565
1.20309
1.35858
1.55429
1.8115
2.16896
2.69966
3.54658
5.00942
7.79128
13.8492
30.201
94.3242
608.971
0.304848
0.322138
0.340959
0.361502
0.38399
0.408682
0.435881
0.465947
0.499304
0.536459
0.578017
0.624715
0.67745
0.737333
0.805762
0.884535
0.976038
1.08358
1.21197
1.36869
1.56613
1.8259
2.18731
2.72426
3.58133
5.06127
7.874
13.9948
30.5015
95.1429
612.56
0.307475
0.324922
0.343914
0.364643
0.387333
0.412247
0.43969
0.470023
0.503674
0.541153
0.58307
0.630167
0.683346
0.743726
0.812716
0.89213
0.984379
1.09281
1.22231
1.38049
1.57996
1.84273
2.20877
2.75306
3.62201
5.12194
7.97075
14.1649
30.8525
96.0974
616.732
0.310473
0.328099
0.347285
0.368226
0.391147
0.416314
0.444034
0.474672
0.508658
0.546507
0.588833
0.636383
0.690068
0.751014
0.820644
0.900788
0.993886
1.10333
1.2341
1.39396
1.59577
1.862
2.23337
2.78608
3.66867
5.19149
8.08159
14.3597
31.2538
97.1871
621.479
0.313837
0.331664
0.351068
0.372247
0.395428
0.420879
0.44891
0.479889
0.514251
0.552513
0.595298
0.643356
0.697607
0.759187
0.829532
0.910495
1.00455
1.11514
1.24734
1.40909
1.61355
1.88371
2.26112
2.82337
3.72134
5.26996
8.20654
14.5791
31.7054
98.4108
626.791
0.317564
0.335613
0.35526
0.376701
0.40017
0.425934
0.454309
0.485665
0.520442
0.559162
0.602453
0.651073
0.705949
0.768229
0.839365
0.921233
1.01634
1.1282
1.262
1.42586
1.6333
1.90785
2.29202
2.86492
3.78003
5.35736
8.34559
14.8231
32.2069
99.767
632.652
0.321648
0.339941
0.359851
0.381581
0.405364
0.431471
0.460222
0.49199
0.527221
0.566441
0.610285
0.659517
0.715076
0.778121
0.850121
0.932978
1.02924
1.1425
1.27806
1.44426
1.65499
1.93442
2.32608
2.91073
3.84474
5.45365
8.49867
15.0913
32.7576
101.253
639.046
0.326082
0.344639
0.364836
0.386878
0.411001
0.43748
0.466637
0.498852
0.534573
0.574334
0.618775
0.66867
0.724966
0.788838
0.861772
0.9457
1.04322
1.158
1.29547
1.46424
1.67858
1.96338
2.36325
2.96078
3.91543
5.55877
8.66561
15.3836
33.3568
102.866
645.952
0.330866
0.349706
0.370211
0.392588
0.417076
0.443954
0.473548
0.506242
0.542489
0.582829
0.627909
0.678513
0.735598
0.800354
0.87429
0.959367
1.05824
1.17465
1.31421
1.48576
1.70405
1.99469
2.40351
3.01502
3.99201
5.67257
8.84617
15.6993
34.0031
104.601
653.344
0.336048
0.355194
0.376032
0.39877
0.423651
0.450957
0.481019
0.514225
0.551034
0.591993
0.637755
0.689113
0.747037
0.812733
0.887731
0.97403
1.07434
1.1925
1.33429
1.50884
1.7314
2.02837
2.44687
3.07346
4.07451
5.79506
9.04033
16.0384
34.6961
106.456
661.204
0.336048
0.355194
0.376032
0.39877
0.423651
0.450957
0.481019
0.514225
0.551034
0.591993
0.637755
0.689113
0.747037
0.812733
0.887731
0.97403
1.07434
1.1925
1.33429
1.50884
1.7314
2.02837
2.44687
3.07346
4.07451
5.79506
9.04033
16.0384
34.6961
106.456
661.204
0.330866
0.349706
0.370211
0.392588
0.417076
0.443954
0.473548
0.506242
0.542489
0.582829
0.627909
0.678513
0.735598
0.800354
0.87429
0.959367
1.05824
1.17465
1.31421
1.48576
1.70405
1.99469
2.40351
3.01502
3.99201
5.67257
8.84617
15.6993
34.0031
104.601
653.344
0.326082
0.344639
0.364836
0.386878
0.411001
0.43748
0.466637
0.498852
0.534573
0.574334
0.618775
0.66867
0.724966
0.788837
0.861772
0.9457
1.04322
1.158
1.29547
1.46424
1.67858
1.96338
2.36325
2.96078
3.91543
5.55877
8.66561
15.3836
33.3568
102.866
645.952
0.321648
0.339941
0.359851
0.381581
0.405364
0.431471
0.460222
0.49199
0.527221
0.566441
0.610285
0.659517
0.715076
0.778121
0.850121
0.932978
1.02924
1.1425
1.27806
1.44426
1.65499
1.93442
2.32608
2.91073
3.84474
5.45365
8.49867
15.0913
32.7576
101.253
639.046
0.317564
0.335613
0.35526
0.376701
0.40017
0.425934
0.454309
0.485665
0.520442
0.559162
0.602453
0.651073
0.705949
0.768229
0.839365
0.921233
1.01634
1.1282
1.262
1.42586
1.6333
1.90785
2.29202
2.86492
3.78003
5.35736
8.34559
14.8231
32.2069
99.767
632.652
0.313837
0.331664
0.351068
0.372247
0.395428
0.420879
0.44891
0.479889
0.514251
0.552513
0.595298
0.643356
0.697607
0.759187
0.829532
0.910495
1.00455
1.11514
1.24734
1.40909
1.61355
1.88371
2.26112
2.82337
3.72134
5.26996
8.20654
14.5791
31.7054
98.4108
626.791
0.310473
0.328099
0.347285
0.368226
0.391147
0.416314
0.444034
0.474672
0.508658
0.546507
0.588833
0.636383
0.690068
0.751014
0.820644
0.900788
0.993886
1.10333
1.2341
1.39396
1.59577
1.862
2.23337
2.78608
3.66867
5.19149
8.08159
14.3597
31.2538
97.1871
621.479
0.307475
0.324922
0.343914
0.364643
0.387333
0.412247
0.43969
0.470023
0.503674
0.541153
0.58307
0.630167
0.683346
0.743726
0.812716
0.89213
0.984379
1.09281
1.22231
1.38049
1.57996
1.84273
2.20877
2.75306
3.62201
5.12194
7.97075
14.1649
30.8525
96.0974
616.732
0.304848
0.322138
0.340959
0.361502
0.38399
0.408682
0.435881
0.465947
0.499304
0.536459
0.578017
0.624715
0.67745
0.737333
0.805762
0.884535
0.976038
1.08358
1.21197
1.36869
1.56613
1.8259
2.18731
2.72426
3.58133
5.06127
7.874
13.9948
30.5015
95.1429
612.56
0.302594
0.31975
0.338424
0.358808
0.381121
0.405622
0.432613
0.46245
0.495554
0.532429
0.573679
0.620034
0.672387
0.731843
0.799789
0.878012
0.968876
1.07565
1.20309
1.35858
1.55429
1.8115
2.16896
2.69966
3.54658
5.00942
7.79128
13.8492
30.201
94.3242
608.971
0.300714
0.317757
0.33631
0.35656
0.378728
0.40307
0.429887
0.459532
0.492426
0.529068
0.570061
0.61613
0.668164
0.727262
0.794806
0.872569
0.9629
1.06904
1.19569
1.35015
1.54442
1.79951
2.15371
2.67922
3.51771
4.96633
7.7225
13.7281
29.9508
93.6419
605.973
0.29921
0.316163
0.334618
0.354762
0.376813
0.401028
0.427705
0.457197
0.489922
0.526378
0.567164
0.613003
0.664782
0.723594
0.790815
0.86821
0.958114
1.06374
1.18977
1.3434
1.53654
1.78994
2.14154
2.66292
3.49467
4.93195
7.66759
13.6314
29.7508
93.096
603.568
0.298081
0.314967
0.333348
0.353412
0.375377
0.399496
0.426068
0.455445
0.488043
0.524359
0.56499
0.610657
0.662244
0.720842
0.78782
0.864939
0.954523
1.05977
1.18532
1.33834
1.53062
1.78277
2.13243
2.65071
3.47744
4.90621
7.62648
13.5589
29.601
92.6866
601.763
0.297328
0.314169
0.332502
0.352513
0.374419
0.398474
0.424977
0.454277
0.48679
0.523013
0.56354
0.609093
0.660552
0.719006
0.785823
0.862757
0.952127
1.05712
1.18236
1.33497
1.52668
1.778
2.12636
2.64259
3.46597
4.88908
7.59911
13.5107
29.5011
92.4137
600.557
0.296952
0.313771
0.332079
0.352063
0.37394
0.397964
0.424431
0.453693
0.486164
0.52234
0.562815
0.608311
0.659706
0.718088
0.784824
0.861666
0.950929
1.0558
1.18088
1.33328
1.52471
1.77561
2.12333
2.63854
3.46024
4.88053
7.58544
13.4866
29.4512
92.2773
599.955
0.296952
0.313771
0.332079
0.352063
0.37394
0.397964
0.424431
0.453693
0.486164
0.52234
0.562815
0.608311
0.659706
0.718088
0.784824
0.861666
0.950929
1.0558
1.18088
1.33328
1.52471
1.77561
2.12333
2.63854
3.46024
4.88053
7.58544
13.4866
29.4512
92.2773
599.955
0.297328
0.314169
0.332502
0.352513
0.374419
0.398474
0.424977
0.454277
0.48679
0.523013
0.56354
0.609093
0.660552
0.719006
0.785823
0.862757
0.952127
1.05712
1.18236
1.33497
1.52668
1.778
2.12636
2.64259
3.46597
4.88908
7.59911
13.5107
29.5011
92.4137
600.557
)
;

boundaryField
{
    inlet
    {
        type            cyclic;
    }
    outlet
    {
        type            cyclic;
    }
    wall
    {
        type            fixedValue;
        value           uniform 10000;
    }
    procBoundary0to1
    {
        type            processor;
        value           nonuniform List<scalar> 
59
(
0.297488
0.293209
0.289242
0.28559
0.282257
0.279249
0.276569
0.27422
0.272204
0.31841
0.31841
0.31841
0.313512
0.30899
0.304799
0.300939
0.297417
0.294238
0.291406
0.288923
0.286793
0.285017
0.283595
0.282529
0.281817
0.281462
0.281462
0.281817
0.282528
0.283595
0.285017
0.286793
0.288923
0.291406
0.294238
0.297417
0.30094
0.304799
0.30899
0.313512
0.31841
0.31841
0.313512
0.30899
0.304799
0.300939
0.297417
0.294238
0.291406
0.288923
0.286793
0.285017
0.283595
0.282529
0.281817
0.281462
0.281462
0.281817
0.298081
)
;
    }
    procBoundary0to2
    {
        type            processor;
        value           nonuniform List<scalar> 
30
(
0.314967
0.333348
0.353412
0.375377
0.399496
0.426068
0.455445
0.488043
0.524359
0.56499
0.610657
0.662244
0.720842
0.78782
0.864939
0.954523
1.05977
1.18532
1.33834
1.53062
1.78277
2.13243
2.65071
3.47744
4.90621
7.62648
13.5589
29.601
92.6866
601.763
)
;
    }
    procBoundary0to3
    {
        type            processor;
        value           nonuniform List<scalar> 
32
(
0.285017
0.300714
0.317758
0.33631
0.35656
0.378728
0.403071
0.429887
0.459532
0.492426
0.529068
0.570061
0.61613
0.668164
0.727262
0.794806
0.872569
0.9629
1.06904
1.19569
1.35015
1.54442
1.79951
2.15371
2.67922
3.51771
4.96633
7.7225
13.7281
29.9508
93.6419
605.973
)
;
    }
}


// ************************************************************************* //
