/*--------------------------------*- C++ -*----------------------------------*\
  =========                 |
  \\      /  F ield         | OpenFOAM: The Open Source CFD Toolbox
   \\    /   O peration     | Website:  https://openfoam.org
    \\  /    A nd           | Version:  7
     \\/     M anipulation  |
\*---------------------------------------------------------------------------*/
FoamFile
{
    version     2.0;
    format      ascii;
    class       volVectorField;
    location    "248000";
    object      vorticity;
}
// * * * * * * * * * * * * * * * * * * * * * * * * * * * * * * * * * * * * * //

dimensions      [0 0 -1 0 0 0 0];

internalField   nonuniform List<vector> 
4844
(
(0.00910393 -0.00295584 3.45073e-18)
(0.00906228 -0.00326924 -1.34018e-16)
(0.00901598 -0.00358318 -5.62872e-17)
(0.00934368 -0.00302951 1.45158e-17)
(0.00929983 -0.00335048 -1.00725e-16)
(0.00925114 -0.00367193 -4.54017e-17)
(0.00919747 -0.00399387 -2.82777e-17)
(0.00913871 -0.00431626 -2.69234e-17)
(0.00907473 -0.00463907 -2.77358e-17)
(0.00900539 -0.00496224 -2.74596e-17)
(0.00893055 -0.0052857 -2.00096e-17)
(0.00958489 -0.00310361 1.17777e-17)
(0.00953886 -0.0034322 -7.28372e-17)
(0.00948778 -0.00376122 -4.06229e-17)
(0.00943152 -0.00409067 -2.89058e-17)
(0.00936995 -0.00442051 -2.73393e-17)
(0.00930296 -0.00475071 -2.93198e-17)
(0.00923041 -0.0050812 -2.89217e-17)
(0.00915216 -0.00541192 -2.19651e-17)
(0.00906809 -0.00574277 -1.77431e-17)
(0.00897806 -0.00607365 -1.75079e-17)
(0.00888193 -0.00640443 -1.79093e-17)
(0.00982769 -0.00317818 9.79053e-18)
(0.0097795 -0.00351444 -4.56195e-17)
(0.00972604 -0.00385109 -3.38074e-17)
(0.00966719 -0.00418812 -2.72009e-17)
(0.00960284 -0.00452548 -2.57646e-17)
(0.00953286 -0.00486314 -2.88433e-17)
(0.00945711 -0.00520103 -2.82733e-17)
(0.00937546 -0.00553908 -2.21318e-17)
(0.00928778 -0.00587719 -2.0346e-17)
(0.00919394 -0.00621526 -1.79828e-17)
(0.0090938 -0.00655316 -1.77926e-17)
(0.00898723 -0.00689075 -1.61734e-17)
(0.00887411 -0.00722788 -1.89089e-17)
(0.00875431 -0.00756437 -2.1855e-17)
(0.00862649 -0.00790135 -1.61375e-17)
(0.0092851 -0.00744358 -9.69244e-18)
(0.0100722 -0.00325326 8.15145e-18)
(0.0100219 -0.00359726 -2.91444e-17)
(0.00996606 -0.00394161 -2.77786e-17)
(0.00990464 -0.00428628 -2.42095e-17)
(0.00983751 -0.00463123 -2.35136e-17)
(0.00976454 -0.00497643 -2.77131e-17)
(0.0096856 -0.0053218 -2.68748e-17)
(0.00960056 -0.00566725 -2.1288e-17)
(0.00950929 -0.00601271 -2.11121e-17)
(0.00941164 -0.00635805 -1.77011e-17)
(0.0093075 -0.00670315 -1.69538e-17)
(0.00919672 -0.00704787 -1.64899e-17)
(0.00907918 -0.00739204 -1.97664e-17)
(0.00895475 -0.00773549 -2.20792e-17)
(0.00882214 -0.00807929 -1.72615e-17)
(0.00947069 -0.0076333 -1.0735e-17)
(0.0103186 -0.0033289 6.82188e-18)
(0.0102661 -0.00368071 -1.97156e-17)
(0.010208 -0.00403282 -2.2188e-17)
(0.010144 -0.00438521 -2.10902e-17)
(0.0100741 -0.00473783 -2.16589e-17)
(0.00999814 -0.00509064 -2.65837e-17)
(0.00991602 -0.00544356 -2.56171e-17)
(0.00982759 -0.00579651 -2.09347e-17)
(0.00973272 -0.0061494 -2.03227e-17)
(0.00963128 -0.0065021 -1.71075e-17)
(0.00952313 -0.0068545 -1.61574e-17)
(0.00940814 -0.00720643 -1.5809e-17)
(0.00928618 -0.00755774 -1.91411e-17)
(0.00915711 -0.00790825 -2.08384e-17)
(0.0090197 -0.00825897 -1.68292e-17)
(0.00965824 -0.00782482 -1.1333e-17)
(0.0105124 -0.00376483 -1.38922e-17)
(0.0104519 -0.00412478 -1.73515e-17)
(0.0103854 -0.00448496 -1.84303e-17)
(0.0103127 -0.00484533 -2.02315e-17)
(0.0102338 -0.00520583 -2.50649e-17)
(0.0101485 -0.00556639 -2.4125e-17)
(0.0100567 -0.00592693 -2.08271e-17)
(0.00995822 -0.00628733 -1.94095e-17)
(0.00985298 -0.00664749 -1.63841e-17)
(0.00974082 -0.00700727 -1.58924e-17)
(0.00962161 -0.00736652 -1.51523e-17)
(0.00949522 -0.00772507 -1.78789e-17)
(0.00936151 -0.00808274 -1.88017e-17)
(0.00921928 -0.00844049 -1.57496e-17)
(0.00984785 -0.00801821 -1.25143e-17)
(0.0107608 -0.00384967 -9.30924e-18)
(0.010698 -0.00421754 -1.32295e-17)
(0.0106289 -0.00458559 -1.64392e-17)
(0.0105535 -0.00495379 -1.92804e-17)
(0.0104716 -0.00532208 -2.37572e-17)
(0.0103831 -0.00569037 -2.264e-17)
(0.0102879 -0.00605857 -1.98479e-17)
(0.0101859 -0.00642659 -1.86391e-17)
(0.0100768 -0.0067943 -1.60052e-17)
(0.00996068 -0.00716157 -1.55242e-17)
(0.00983724 -0.00752823 -1.4629e-17)
(0.00970641 -0.00789412 -1.68329e-17)
(0.00956805 -0.00825905 -1.65426e-17)
(0.00942098 -0.00862394 -1.5018e-17)
(0.0100396 -0.00821359 -1.5433e-17)
(0.0110116 -0.00393528 -5.70166e-18)
(0.0109464 -0.00431115 -1.00652e-17)
(0.0108747 -0.00468717 -1.49194e-17)
(0.0107966 -0.00506328 -1.81478e-17)
(0.0107117 -0.00543944 -2.27055e-17)
(0.0106201 -0.00581555 -2.21815e-17)
(0.0105215 -0.00619152 -1.86151e-17)
(0.0104159 -0.00656725 -1.72378e-17)
(0.010303 -0.00694262 -1.55676e-17)
(0.0101828 -0.00731747 -1.52337e-17)
(0.0100552 -0.00769165 -1.35692e-17)
(0.00991987 -0.00806498 -1.58492e-17)
(0.00977684 -0.00843728 -1.52027e-17)
(0.00962491 -0.00880943 -1.54577e-17)
(0.0102337 -0.00841104 -1.86702e-17)
(0.0113257 -0.0036379 5.3709e-18)
(0.0112647 -0.00402171 -2.79988e-18)
(0.0111972 -0.00440567 -8.0519e-18)
(0.011123 -0.00478974 -1.39588e-17)
(0.0110421 -0.00517386 -1.69264e-17)
(0.0109543 -0.00555798 -2.12491e-17)
(0.0108594 -0.00594201 -2.16948e-17)
(0.0107575 -0.00632585 -1.74745e-17)
(0.0106482 -0.00670939 -1.6072e-17)
(0.0105316 -0.00709251 -1.54895e-17)
(0.0104074 -0.00747505 -1.45778e-17)
(0.0102755 -0.00785686 -1.20404e-17)
(0.0101357 -0.00823775 -1.39587e-17)
(0.00998799 -0.00861753 -1.4245e-17)
(0.00983118 -0.00899704 -1.57286e-17)
(0.0104301 -0.00861067 -1.98413e-17)
(0.0115835 -0.00371699 4.99538e-18)
(0.0115204 -0.00410901 -8.45255e-19)
(0.0114505 -0.00450115 -6.72879e-18)
(0.0113738 -0.00489336 -1.31971e-17)
(0.0112902 -0.00528559 -1.5979e-17)
(0.0111994 -0.00567777 -1.96516e-17)
(0.0111014 -0.00606982 -2.05666e-17)
(0.010996 -0.00646163 -1.63737e-17)
(0.0108832 -0.00685309 -1.51965e-17)
(0.0107627 -0.00724407 -1.55834e-17)
(0.0106345 -0.00763441 -1.39003e-17)
(0.0104983 -0.00802396 -1.12293e-17)
(0.0103541 -0.00841252 -1.21699e-17)
(0.0102016 -0.00879989 -1.24489e-17)
(0.0100399 -0.00918688 -1.54064e-17)
(0.010629 -0.00881258 -1.91067e-17)
(0.0118441 -0.0037969 5.09386e-18)
(0.0117788 -0.00419723 -7.39905e-20)
(0.0117066 -0.00459765 -6.44218e-18)
(0.0116274 -0.0049981 -1.23975e-17)
(0.0115409 -0.00539854 -1.47496e-17)
(0.0114472 -0.00579888 -1.8733e-17)
(0.011346 -0.00619905 -1.923e-17)
(0.0112373 -0.00659894 -1.49846e-17)
(0.0111208 -0.00699842 -1.42851e-17)
(0.0109965 -0.00739737 -1.5416e-17)
(0.0108642 -0.00779563 -1.36709e-17)
(0.0107237 -0.00819303 -1.05326e-17)
(0.010575 -0.00858938 -1.0964e-17)
(0.0104178 -0.00898446 -1.09546e-17)
(0.0102512 -0.00937906 -1.46818e-17)
(0.0108305 -0.00901688 -1.80256e-17)
(0.0121075 -0.00387769 5.47811e-18)
(0.0120401 -0.00428642 4.53191e-19)
(0.0119656 -0.00469522 -6.27806e-18)
(0.0118838 -0.00510401 -1.17143e-17)
(0.0117946 -0.00551276 -1.35153e-17)
(0.0116978 -0.00592138 -1.84075e-17)
(0.0115935 -0.00632977 -1.83405e-17)
(0.0114813 -0.00673785 -1.40466e-17)
(0.0113612 -0.00714547 -1.40379e-17)
(0.0112331 -0.00755251 -1.50538e-17)
(0.0110967 -0.0079588 -1.32034e-17)
(0.010952 -0.00836417 -9.58375e-18)
(0.0107987 -0.00876842 -1.00784e-17)
(0.0106368 -0.00917135 -1.00384e-17)
(0.0104652 -0.00957368 -1.35365e-17)
(0.0110348 -0.00922368 -1.71047e-17)
(0.0124361 -0.00354221 1.23759e-17)
(0.0123739 -0.00395939 5.63591e-18)
(0.0123044 -0.00437663 1.41749e-19)
(0.0122275 -0.00479391 -6.13719e-18)
(0.0121431 -0.00521116 -1.07627e-17)
(0.0120512 -0.00562832 -1.20574e-17)
(0.0119515 -0.00604532 -1.74146e-17)
(0.0118439 -0.00646206 -1.74788e-17)
(0.0117283 -0.00687844 -1.3157e-17)
(0.0116046 -0.00729432 -1.40184e-17)
(0.0114726 -0.00770956 -1.54677e-17)
(0.0113321 -0.00812401 -1.31001e-17)
(0.011183 -0.00853747 -9.42509e-18)
(0.0110252 -0.00894976 -9.76987e-18)
(0.0108585 -0.00936065 -9.81063e-18)
(0.0106819 -0.00977084 -1.22212e-17)
(0.0112418 -0.00943308 -1.50184e-17)
(0.0127076 -0.00361623 1.19356e-17)
(0.0126434 -0.00404205 5.6468e-18)
(0.0125718 -0.00446792 -8.07395e-19)
(0.0124926 -0.00489378 -6.13536e-18)
(0.0124057 -0.00531959 -9.61484e-18)
(0.0123109 -0.00574529 -1.11429e-17)
(0.0122082 -0.00617079 -1.61852e-17)
(0.0120974 -0.00659599 -1.67415e-17)
(0.0119784 -0.00702079 -1.21392e-17)
(0.011851 -0.00744505 -1.27657e-17)
(0.0117151 -0.00786863 -1.6046e-17)
(0.0115706 -0.00829135 -1.34268e-17)
(0.0114172 -0.00871304 -9.20984e-18)
(0.0112548 -0.00913349 -9.70035e-18)
(0.0110832 -0.00955247 -9.92907e-18)
(0.0109016 -0.00997065 -1.14383e-17)
(0.0114518 -0.00964519 -1.25949e-17)
(0.0130408 -0.00325664 1.06928e-17)
(0.0129824 -0.00369116 1.1387e-17)
(0.0129163 -0.00412573 5.20847e-18)
(0.0128425 -0.00456032 -1.65442e-18)
(0.0127609 -0.00499489 -5.87189e-18)
(0.0126715 -0.00542938 -8.3784e-18)
(0.0125739 -0.00586373 -1.08009e-17)
(0.0124682 -0.00629785 -1.48434e-17)
(0.0123542 -0.00673164 -1.61367e-17)
(0.0122318 -0.00716499 -1.19211e-17)
(0.0121007 -0.00759775 -1.08076e-17)
(0.0119609 -0.00802979 -1.57974e-17)
(0.0118122 -0.00846092 -1.44795e-17)
(0.0116544 -0.00889096 -9.36031e-18)
(0.0114874 -0.0093197 -9.45375e-18)
(0.011311 -0.00974692 -9.54728e-18)
(0.0111243 -0.0101732 -1.13833e-17)
(0.0116649 -0.00986014 -1.05996e-17)
(0.0133208 -0.00332362 9.3506e-18)
(0.0132606 -0.00376702 1.08209e-17)
(0.0131926 -0.00421046 4.72618e-18)
(0.0131167 -0.0046539 -2.0805e-18)
(0.0130327 -0.0050973 -5.59052e-18)
(0.0129407 -0.00554059 -7.21849e-18)
(0.0128403 -0.00598372 -1.04355e-17)
(0.0127316 -0.00642658 -1.3773e-17)
(0.0126144 -0.00686908 -1.53553e-17)
(0.0124884 -0.0073111 -1.20489e-17)
(0.0123537 -0.0077525 -8.81057e-18)
(0.01221 -0.00819313 -1.46252e-17)
(0.0120571 -0.00863281 -1.51663e-17)
(0.0118949 -0.00907134 -1.00989e-17)
(0.0117233 -0.00950852 -9.74422e-18)
(0.011542 -0.0099441 -8.99195e-18)
(0.0113501 -0.0103787 -1.09695e-17)
(0.0118811 -0.010078 -9.64596e-18)
(0.0136044 -0.00339147 8.32013e-18)
(0.0135425 -0.00384388 9.82697e-18)
(0.0134725 -0.0042963 3.95389e-18)
(0.0133944 -0.00474871 -1.76383e-18)
(0.0133081 -0.00520106 -5.06851e-18)
(0.0132135 -0.00565328 -6.75418e-18)
(0.0131103 -0.00610531 -1.00747e-17)
(0.0129986 -0.00655705 -1.31229e-17)
(0.0128781 -0.00700839 -1.44596e-17)
(0.0127487 -0.00745922 -1.17586e-17)
(0.0126102 -0.0079094 -7.2296e-18)
(0.0124625 -0.00835875 -1.36209e-17)
(0.0123054 -0.00880711 -1.53034e-17)
(0.0121388 -0.00925428 -1.02369e-17)
(0.0119625 -0.00970003 -9.4663e-18)
(0.0117763 -0.0101441 -8.94478e-18)
(0.0115793 -0.0105871 -1.0231e-17)
(0.0121007 -0.010299 -8.99294e-18)
(0.0138917 -0.00346022 7.25984e-18)
(0.0138281 -0.00392176 8.55404e-18)
(0.0137562 -0.0043833 2.93499e-18)
(0.013676 -0.00484481 -1.05389e-18)
(0.0135873 -0.00530624 -4.2848e-18)
(0.01349 -0.00576752 -6.47037e-18)
(0.013384 -0.00622858 -9.95916e-18)
(0.0132692 -0.00668933 -1.27398e-17)
(0.0131454 -0.00714966 -1.3448e-17)
(0.0130125 -0.00760944 -1.09485e-17)
(0.0128703 -0.00806852 -6.32656e-18)
(0.0127186 -0.00852675 -1.31464e-17)
(0.0125574 -0.00898394 -1.54919e-17)
(0.0123863 -0.00943988 -9.91498e-18)
(0.0122052 -0.00989436 -8.71544e-18)
(0.0120141 -0.0103471 -9.08683e-18)
(0.0118119 -0.0107987 -9.98909e-18)
(0.0123237 -0.0105231 -8.53791e-18)
(0.014183 -0.00352992 5.96843e-18)
(0.0141177 -0.00400072 7.29683e-18)
(0.0140438 -0.00447151 2.24911e-18)
(0.0139614 -0.00494225 -4.0775e-19)
(0.0138703 -0.00541289 -3.59137e-18)
(0.0137704 -0.00588337 -5.96554e-18)
(0.0136616 -0.00635361 -9.46297e-18)
(0.0135438 -0.00682351 -1.24097e-17)
(0.0134167 -0.00729296 -1.29273e-17)
(0.0132802 -0.00776183 -1.02389e-17)
(0.0131342 -0.00822997 -5.87906e-18)
(0.0129785 -0.00869722 -1.28251e-17)
(0.012813 -0.00916338 -1.56177e-17)
(0.0126374 -0.00962826 -9.71895e-18)
(0.0124516 -0.0100916 -8.39116e-18)
(0.0122554 -0.0105532 -9.0113e-18)
(0.012048 -0.0110135 -9.88187e-18)
(0.0125503 -0.0107506 -7.81091e-18)
(0.0144785 -0.00360061 4.39884e-18)
(0.0144113 -0.00408081 5.97672e-18)
(0.0143355 -0.00456098 2.12858e-18)
(0.014251 -0.00504109 6.52637e-19)
(0.0141575 -0.00552109 -2.98262e-18)
(0.0140549 -0.0060009 -5.89712e-18)
(0.0139433 -0.00648046 -9.03199e-18)
(0.0138223 -0.00695965 -1.17768e-17)
(0.0136919 -0.00743837 -1.22353e-17)
(0.0135519 -0.00791648 -9.89963e-18)
(0.0134021 -0.00839384 -5.63484e-18)
(0.0132424 -0.00887026 -1.23584e-17)
(0.0130725 -0.00934555 -1.53845e-17)
(0.0128924 -0.00981951 -9.7158e-18)
(0.0127018 -0.0102919 -8.04597e-18)
(0.0125006 -0.0107624 -8.73066e-18)
(0.0122878 -0.0112316 -9.4437e-18)
(0.0127805 -0.0109815 -6.70491e-18)
(0.0147782 -0.00367233 2.55899e-18)
(0.0147093 -0.00416206 4.74574e-18)
(0.0146315 -0.00465176 2.10617e-18)
(0.0145448 -0.00514139 1.69516e-18)
(0.0144488 -0.00563088 -2.49685e-18)
(0.0143437 -0.00612018 -5.87472e-18)
(0.0142291 -0.00660921 -8.45521e-18)
(0.014105 -0.00709785 -1.09393e-17)
(0.0139712 -0.00758599 -1.13971e-17)
(0.0138276 -0.0080735 -9.66677e-18)
(0.013674 -0.00856022 -5.25901e-18)
(0.0135102 -0.00904597 -1.17966e-17)
(0.0133361 -0.00953056 -1.49949e-17)
(0.0131514 -0.0100138 -9.70486e-18)
(0.0129559 -0.0104953 -7.92519e-18)
(0.0127496 -0.010975 -8.21872e-18)
(0.0125314 -0.0114532 -8.33093e-18)
(0.0130146 -0.011216 -5.573e-18)
(0.0150824 -0.00374512 8.64163e-19)
(0.0150118 -0.00424454 3.55728e-18)
(0.014932 -0.00474391 1.69331e-18)
(0.014843 -0.0052432 2.06103e-18)
(0.0147446 -0.00574235 -1.95331e-18)
(0.0146368 -0.00624129 -5.61791e-18)
(0.0145193 -0.00673993 -7.80048e-18)
(0.0143921 -0.00723818 -1.0056e-17)
(0.0142549 -0.0077359 -1.08507e-17)
(0.0141077 -0.00823297 -9.26781e-18)
(0.0139502 -0.00872921 -4.41717e-18)
(0.0137823 -0.00922446 -1.06631e-17)
(0.0136038 -0.0097185 -1.50041e-17)
(0.0134145 -0.0102111 -1.00343e-17)
(0.0132141 -0.010702 -8.30913e-18)
(0.0130026 -0.011191 -7.66498e-18)
(0.012779 -0.0116785 -6.60742e-18)
(0.0132527 -0.0114542 -4.8037e-18)
(0.0153912 -0.00381903 -3.30944e-19)
(0.0153188 -0.00432828 2.3402e-18)
(0.0152371 -0.00483749 1.5006e-18)
(0.0151458 -0.0053466 1.71386e-18)
(0.015045 -0.00585555 -1.94163e-18)
(0.0149345 -0.00636429 -5.326e-18)
(0.0148141 -0.00687271 -7.3433e-18)
(0.0146837 -0.00738072 -9.44713e-18)
(0.0145431 -0.00788819 -1.06299e-17)
(0.0143922 -0.00839498 -8.93127e-18)
(0.0142309 -0.00890092 -3.08266e-18)
(0.0140588 -0.00940583 -9.33802e-18)
(0.0138759 -0.0099095 -1.555e-17)
(0.0136818 -0.0104117 -1.04482e-17)
(0.0134766 -0.0109122 -8.51152e-18)
(0.0132598 -0.0114106 -8.35434e-18)
(0.0130307 -0.0119075 -4.88513e-18)
(0.0134949 -0.0116962 -3.61042e-18)
(0.0157049 -0.00389411 -1.45364e-18)
(0.0156307 -0.00441335 1.33754e-18)
(0.015547 -0.00493254 1.51642e-18)
(0.0154535 -0.00545163 7.08708e-19)
(0.0153502 -0.00597056 -2.20101e-18)
(0.0152369 -0.00648926 -4.56792e-18)
(0.0151136 -0.00700763 -7.32577e-18)
(0.01498 -0.00752558 -9.37023e-18)
(0.014836 -0.00804296 -1.00769e-17)
(0.0146814 -0.00855964 -8.4877e-18)
(0.0145161 -0.00907545 -1.7438e-18)
(0.0143398 -0.0095902 -7.68632e-18)
(0.0141524 -0.0101037 -1.59105e-17)
(0.0139537 -0.0106156 -1.11904e-17)
(0.0137434 -0.0111258 -8.38051e-18)
(0.0135213 -0.0116339 -8.92582e-18)
(0.0132867 -0.0121404 -4.39984e-18)
(0.0137414 -0.0119423 -1.69436e-18)
(0.0160237 -0.00397039 -2.19057e-18)
(0.0159477 -0.00449979 5.93351e-19)
(0.0158619 -0.00502914 1.80157e-18)
(0.0157661 -0.00555838 3.18241e-21)
(0.0156603 -0.00608745 -2.7372e-18)
(0.0155443 -0.00661628 -4.26417e-18)
(0.015418 -0.00714477 -7.45518e-18)
(0.0152811 -0.00767282 -9.18213e-18)
(0.0151337 -0.0082003 -9.72658e-18)
(0.0149754 -0.00872705 -8.11177e-18)
(0.0148061 -0.00925291 -8.01528e-19)
(0.0146256 -0.00977768 -6.17896e-18)
(0.0144337 -0.0103011 -1.60164e-17)
(0.0142301 -0.010823 -1.15182e-17)
(0.0140148 -0.0113431 -7.7168e-18)
(0.0137874 -0.0118611 -7.78806e-18)
(0.0135471 -0.0123773 -4.12143e-18)
(0.0139923 -0.0121925 -7.35183e-19)
(0.0163477 -0.00404793 -2.16452e-18)
(0.0162698 -0.00458766 3.32379e-19)
(0.0161819 -0.00512734 1.75103e-18)
(0.0160839 -0.0056669 -2.36504e-19)
(0.0159756 -0.00620629 -3.02295e-18)
(0.0158568 -0.00674542 -4.54064e-18)
(0.0157274 -0.00728422 -7.69631e-18)
(0.0155874 -0.00782256 -8.93796e-18)
(0.0154364 -0.00836031 -9.70015e-18)
(0.0152743 -0.00889732 -7.56794e-18)
(0.015101 -0.00943341 -2.5625e-19)
(0.0149162 -0.00996838 -5.57436e-18)
(0.0147198 -0.010502 -1.62192e-17)
(0.0145114 -0.0110341 -1.17707e-17)
(0.0142909 -0.0115642 -7.32161e-18)
(0.0140581 -0.0120922 -6.40907e-18)
(0.0138122 -0.0126184 -3.32915e-18)
(0.0142478 -0.012447 -7.84601e-19)
(0.0166771 -0.00412677 -1.57055e-18)
(0.0165974 -0.00467702 4.44486e-19)
(0.0165074 -0.0052272 1.41006e-18)
(0.0164071 -0.00577726 -2.47683e-19)
(0.0162962 -0.00632715 -2.9781e-18)
(0.0161746 -0.00687678 -5.57432e-18)
(0.0160422 -0.00742606 -7.77769e-18)
(0.0158989 -0.00797487 -7.79758e-18)
(0.0157443 -0.00852308 -9.58572e-18)
(0.0155785 -0.00907054 -7.54369e-18)
(0.0154011 -0.00961706 -1.58462e-20)
(0.015212 -0.0101624 -5.66602e-18)
(0.0150109 -0.0107064 -1.58206e-17)
(0.0147976 -0.0112488 -1.16458e-17)
(0.014572 -0.0117893 -7.15497e-18)
(0.0143337 -0.0123275 -5.76421e-18)
(0.0140819 -0.0128638 -2.79217e-18)
(0.0145081 -0.012706 -1.48571e-18)
(0.0170121 -0.00420697 -8.168e-19)
(0.0169306 -0.00476791 4.4983e-19)
(0.0168386 -0.00532878 8.61008e-19)
(0.0167359 -0.00588954 -2.41487e-19)
(0.0166224 -0.00645011 -2.24601e-18)
(0.016498 -0.00701043 -6.71516e-18)
(0.0163625 -0.00757039 -8.00488e-18)
(0.0162158 -0.00812987 -6.42811e-18)
(0.0160577 -0.00868874 -9.46649e-18)
(0.015888 -0.00924684 -8.11403e-18)
(0.0157065 -0.00980398 3.90705e-19)
(0.015513 -0.01036 -5.83137e-18)
(0.0153072 -0.0109145 -1.48819e-17)
(0.015089 -0.0114674 -1.13839e-17)
(0.0148581 -0.0120184 -6.7606e-18)
(0.0146142 -0.0125671 -5.59504e-18)
(0.0143567 -0.0131138 -2.73532e-18)
(0.0147733 -0.0129696 -1.8158e-18)
(0.017353 -0.00428858 -7.32841e-19)
(0.0172697 -0.00486041 3.64002e-19)
(0.0171755 -0.00543216 3.57828e-19)
(0.0170704 -0.0060038 -4.40487e-19)
(0.0169543 -0.00657526 -1.02608e-18)
(0.0168271 -0.00714646 -7.49926e-18)
(0.0166885 -0.00771729 -8.67502e-18)
(0.0165385 -0.00828764 -5.41079e-18)
(0.0163767 -0.00885737 -8.4612e-18)
(0.0162031 -0.00942632 -8.46716e-18)
(0.0160174 -0.00999429 9.94238e-21)
(0.0158194 -0.0105611 -6.01094e-18)
(0.015609 -0.0111264 -1.39692e-17)
(0.0153857 -0.0116901 -1.05694e-17)
(0.0151495 -0.0122518 -5.869e-18)
(0.0149 -0.0128111 -4.72297e-18)
(0.0146365 -0.0133684 -3.41843e-18)
(0.0150436 -0.0132381 -2.27169e-18)
(0.0177744 -0.00378872 -1.30347e-18)
(0.0177001 -0.00437166 -1.04539e-18)
(0.0176148 -0.00495456 1.74118e-20)
(0.0175185 -0.00553741 8.53582e-20)
(0.017411 -0.00612013 -9.27879e-19)
(0.0172923 -0.00670268 -2.04612e-20)
(0.0171622 -0.00728496 -7.49955e-18)
(0.0170204 -0.00786687 -8.88314e-18)
(0.016867 -0.0084483 -5.19996e-18)
(0.0167015 -0.0090291 -8.18293e-18)
(0.016524 -0.00960911 -8.33683e-18)
(0.0163341 -0.0101881 -5.84703e-19)
(0.0161316 -0.0107659 -5.95992e-18)
(0.0159163 -0.0113423 -1.33066e-17)
(0.015688 -0.0119169 -9.7443e-18)
(0.0154464 -0.0124895 -4.60911e-18)
(0.0151912 -0.0130597 -2.9996e-18)
(0.0149217 -0.0136278 -3.95384e-18)
(0.0153191 -0.0135115 -3.1907e-18)
(0.0181294 -0.00386203 -1.4808e-18)
(0.0180534 -0.00445625 -1.46487e-18)
(0.0179662 -0.00505045 -2.56958e-19)
(0.0178677 -0.00564458 -3.00482e-19)
(0.0177579 -0.0062386 -2.03405e-18)
(0.0176365 -0.00683244 3.66582e-19)
(0.0175034 -0.00742602 -7.06676e-18)
(0.0173585 -0.00801923 -8.60113e-18)
(0.0172016 -0.00861196 -4.84462e-18)
(0.0170324 -0.00920404 -8.43336e-18)
(0.0168509 -0.00979533 -8.38802e-18)
(0.0166567 -0.0103856 -1.13134e-18)
(0.0164496 -0.0109747 -6.12162e-18)
(0.0162295 -0.0115622 -1.28213e-17)
(0.015996 -0.012148 -8.9907e-18)
(0.0157489 -0.0127318 -3.67467e-18)
(0.0154879 -0.0133131 -1.83617e-18)
(0.0152123 -0.0138922 -3.6628e-18)
(0.0156002 -0.01379 -3.4944e-18)
(0.0185575 -0.00333098 3.69891e-18)
(0.018491 -0.0039367 -1.12008e-18)
(0.0184133 -0.00454242 -1.59381e-18)
(0.0183241 -0.00514812 -8.88191e-20)
(0.0182235 -0.00575376 -5.22122e-19)
(0.0181112 -0.00635929 -3.10145e-18)
(0.0179871 -0.00696465 9.15056e-20)
(0.0178511 -0.00756974 -7.03785e-18)
(0.0177029 -0.00817447 -8.35236e-18)
(0.0175425 -0.00877871 -4.54268e-18)
(0.0173696 -0.00938231 -8.36733e-18)
(0.017184 -0.0099851 -8.17931e-18)
(0.0169854 -0.0105869 -1.27357e-18)
(0.0167738 -0.0111874 -6.5981e-18)
(0.0165487 -0.0117864 -1.29158e-17)
(0.01631 -0.0123837 -8.20181e-18)
(0.0160574 -0.0129788 -2.49854e-18)
(0.0157905 -0.0135715 -1.14303e-18)
(0.0155086 -0.0141619 -3.07807e-18)
(0.0158868 -0.0140739 -2.5121e-18)
(0.0189274 -0.00339535 3.44062e-18)
(0.0188594 -0.00401278 -1.74102e-19)
(0.01878 -0.00463022 -1.43283e-18)
(0.0186889 -0.00524765 6.38412e-20)
(0.018586 -0.00586502 -6.77683e-19)
(0.0184712 -0.00648229 -3.80785e-18)
(0.0183444 -0.00709939 1.17217e-20)
(0.0182054 -0.00771623 -7.63723e-18)
(0.0180539 -0.0083327 -8.59075e-18)
(0.01789 -0.00894869 -4.46391e-18)
(0.0177132 -0.00956403 -8.37807e-18)
(0.0175235 -0.0101786 -7.63162e-18)
(0.0173206 -0.0107921 -1.14918e-18)
(0.0171042 -0.0114043 -7.02321e-18)
(0.0168742 -0.012015 -1.32608e-17)
(0.0166301 -0.0126239 -7.50566e-18)
(0.0163719 -0.0132307 -1.22349e-18)
(0.016099 -0.0138349 -5.13735e-19)
(0.0158109 -0.0144368 -3.13049e-18)
(0.0161794 -0.0143634 -1.09191e-18)
(0.0193043 -0.00346096 3.24976e-18)
(0.0192349 -0.00409034 8.60161e-19)
(0.0191537 -0.00471973 -1.00201e-18)
(0.0190606 -0.00534911 2.46458e-20)
(0.0189555 -0.00597844 -6.63945e-19)
(0.0188382 -0.00660768 -4.35577e-18)
(0.0187086 -0.00723675 -4.08275e-20)
(0.0185665 -0.00786557 -8.23726e-18)
(0.0184118 -0.00849403 -8.81994e-18)
(0.0182443 -0.009122 -4.73395e-18)
(0.0180636 -0.00974933 -8.67527e-18)
(0.0178698 -0.0103758 -6.88291e-18)
(0.0176624 -0.0110013 -7.90287e-19)
(0.0174412 -0.0116255 -7.36812e-18)
(0.0172061 -0.0122482 -1.31569e-17)
(0.0169567 -0.012869 -6.89287e-18)
(0.0166927 -0.0134876 -8.30789e-19)
(0.0164138 -0.0141037 2.2266e-19)
(0.0161192 -0.0147174 -3.51593e-18)
(0.016478 -0.0146586 -6.25346e-19)
(0.0196887 -0.00352786 3.19105e-18)
(0.0196178 -0.00416941 1.6844e-18)
(0.0195348 -0.00481099 -1.21974e-19)
(0.0194397 -0.00545256 1.50115e-19)
(0.0193323 -0.0060941 -5.99976e-19)
(0.0192125 -0.00673555 -4.94154e-18)
(0.0190801 -0.00737684 -2.89384e-19)
(0.0189349 -0.00801788 -8.39296e-18)
(0.0187768 -0.00865857 -8.817e-18)
(0.0186056 -0.00929878 -5.08384e-18)
(0.018421 -0.00993834 -9.08243e-18)
(0.0182229 -0.0105771 -6.48384e-18)
(0.018011 -0.0112148 -5.72583e-19)
(0.0177851 -0.0118512 -7.50275e-18)
(0.0175448 -0.0124861 -1.24208e-17)
(0.0172899 -0.0131191 -5.77326e-18)
(0.0170201 -0.0137498 -8.57755e-19)
(0.016735 -0.014378 3.89429e-19)
(0.0164339 -0.0150037 -3.82055e-18)
(0.0167829 -0.0149598 -1.23201e-18)
(0.0200807 -0.00359609 3.11628e-18)
(0.0200083 -0.00425007 2.35246e-18)
(0.0199235 -0.00490408 1.02736e-18)
(0.0198264 -0.0055581 3.81458e-19)
(0.0197166 -0.00621208 -4.50621e-19)
(0.0195942 -0.00686599 -5.75022e-18)
(0.019459 -0.00751975 -1.15416e-18)
(0.0193107 -0.00817327 -8.25209e-18)
(0.0191492 -0.00882645 -8.91018e-18)
(0.0189743 -0.00947914 -5.47719e-18)
(0.0187857 -0.0101312 -9.37601e-18)
(0.0185833 -0.0107824 -6.41059e-18)
(0.0183668 -0.0114326 -1.17447e-19)
(0.0181359 -0.0120815 -7.17215e-18)
(0.0178904 -0.0127289 -1.19281e-17)
(0.0176299 -0.0133743 -4.32325e-18)
(0.0173542 -0.0140175 1.40059e-19)
(0.0170629 -0.014658 2.89836e-19)
(0.0167552 -0.015296 -4.26135e-18)
(0.0170944 -0.0152671 -2.26512e-18)
(0.0204806 -0.00366572 3.14651e-18)
(0.0204066 -0.00433237 2.63956e-18)
(0.0203201 -0.00499907 2.26763e-18)
(0.0202209 -0.00566578 7.00244e-19)
(0.0201088 -0.00633248 -7.12558e-19)
(0.0199838 -0.0069991 -6.47425e-18)
(0.0198456 -0.00766559 -2.31831e-18)
(0.0196942 -0.00833185 -7.90694e-18)
(0.0195292 -0.00899778 -8.56618e-18)
(0.0193505 -0.00966323 -6.2976e-18)
(0.0191579 -0.0103281 -9.57386e-18)
(0.0189511 -0.0109921 -6.55983e-18)
(0.0187299 -0.011655 1.94293e-19)
(0.0184941 -0.0123167 -6.43131e-18)
(0.0182432 -0.0129768 -1.09107e-17)
(0.0179771 -0.0136349 -2.95672e-18)
(0.0176954 -0.0142908 1.01028e-18)
(0.0173977 -0.0149439 9.24846e-19)
(0.0170832 -0.0155945 -4.68051e-18)
(0.0174126 -0.0155809 -3.41627e-18)
(0.0208888 -0.00373678 3.47647e-18)
(0.0208132 -0.00441637 2.57385e-18)
(0.0207249 -0.00509602 2.84341e-18)
(0.0206235 -0.0057757 9.93931e-19)
(0.0205091 -0.00645537 -1.14461e-18)
(0.0203814 -0.00713498 -7.12981e-18)
(0.0202403 -0.00781447 -3.14738e-18)
(0.0200856 -0.00849375 -7.4136e-18)
(0.0199171 -0.0091727 -8.26032e-18)
(0.0197346 -0.00985119 -7.6116e-18)
(0.0195379 -0.0105291 -9.34894e-18)
(0.0193267 -0.0112061 -6.5874e-18)
(0.0191008 -0.0118821 -4.55606e-20)
(0.0188598 -0.0125568 -5.68877e-18)
(0.0186036 -0.0132299 -9.24643e-18)
(0.0183317 -0.0139011 -2.09911e-18)
(0.0180439 -0.0145699 1.10218e-18)
(0.0177397 -0.015236 2.39331e-18)
(0.0174184 -0.0158994 -4.20516e-18)
(0.0177377 -0.0159013 -4.2002e-18)
(0.0213055 -0.00380933 3.50149e-18)
(0.0212284 -0.00450214 2.4414e-18)
(0.0211381 -0.00519502 3.68945e-18)
(0.0210346 -0.00588793 1.00628e-18)
(0.0209178 -0.00658086 -2.058e-18)
(0.0207874 -0.00727374 -7.57829e-18)
(0.0206433 -0.00796651 -3.29428e-18)
(0.0204854 -0.00865908 -6.90244e-18)
(0.0203133 -0.00935134 -8.3364e-18)
(0.0201269 -0.0100431 -8.88523e-18)
(0.019926 -0.0107343 -8.8468e-18)
(0.0197103 -0.0114247 -6.32476e-18)
(0.0194795 -0.0121141 -6.62036e-19)
(0.0192334 -0.0128021 -5.50227e-18)
(0.0189717 -0.0134885 -7.30907e-18)
(0.0186939 -0.014173 -1.08158e-18)
(0.0183999 -0.0148551 5.51393e-19)
(0.0180891 -0.0155344 3.34783e-18)
(0.0177608 -0.0162109 -3.57534e-18)
(0.0180702 -0.0162285 -4.32664e-18)
(0.021731 -0.00388343 3.37123e-18)
(0.0216523 -0.00458974 2.31615e-18)
(0.0215602 -0.00529613 4.63432e-18)
(0.0214545 -0.00600257 3.35101e-19)
(0.0213352 -0.00670904 -3.29208e-18)
(0.0212021 -0.00741548 -7.56223e-18)
(0.021055 -0.00812182 -3.22727e-18)
(0.0208937 -0.00882798 -6.37179e-18)
(0.020718 -0.00953384 -8.55124e-18)
(0.0205277 -0.0102393 -9.9348e-18)
(0.0203225 -0.0109441 -8.19263e-18)
(0.0201022 -0.0116481 -6.11611e-18)
(0.0198665 -0.0123511 -1.05411e-18)
(0.0196152 -0.0130528 -5.07581e-18)
(0.0193478 -0.0137528 -5.39448e-18)
(0.0190641 -0.0144509 3.18395e-20)
(0.0187638 -0.0151465 -1.82639e-19)
(0.0184463 -0.0158394 3.44356e-18)
(0.0181109 -0.0165294 -3.86739e-18)
(0.0184101 -0.016563 -4.35001e-18)
(0.0221658 -0.00395914 2.94349e-18)
(0.0220854 -0.00467924 2.03298e-18)
(0.0219914 -0.00539944 5.59696e-18)
(0.0218835 -0.00611971 -6.97345e-19)
(0.0217618 -0.00684001 -4.88103e-18)
(0.0216258 -0.00756031 -7.26816e-18)
(0.0214756 -0.00828052 -3.32666e-18)
(0.021311 -0.00900057 -6.19096e-18)
(0.0211316 -0.00972034 -8.51044e-18)
(0.0209372 -0.0104397 -1.08926e-17)
(0.0207277 -0.0111584 -7.52071e-18)
(0.0205028 -0.0118764 -6.1821e-18)
(0.0202621 -0.0125933 -1.58988e-18)
(0.0200054 -0.013309 -4.16082e-18)
(0.0197323 -0.014023 -3.4222e-18)
(0.0194426 -0.014735 9.94451e-19)
(0.0191358 -0.0154445 -7.27933e-19)
(0.0188115 -0.0161512 4.07328e-18)
(0.0184688 -0.016855 -4.34953e-18)
(0.0187578 -0.0169048 -5.06691e-18)
(0.0226101 -0.00403652 2.44665e-18)
(0.0225281 -0.00477072 1.57337e-18)
(0.0224321 -0.00550503 6.74385e-18)
(0.022322 -0.00623943 -1.5973e-18)
(0.0221977 -0.00697388 -6.74624e-18)
(0.0220589 -0.00770835 -6.98633e-18)
(0.0219056 -0.00844275 -3.40387e-18)
(0.0217375 -0.00917701 -6.29444e-18)
(0.0215543 -0.009911 -8.3968e-18)
(0.0213559 -0.0106446 -1.17494e-17)
(0.021142 -0.0113776 -6.95722e-18)
(0.0209123 -0.0121098 -6.17155e-18)
(0.0206665 -0.0128411 -2.31775e-18)
(0.0204043 -0.013571 -3.70574e-18)
(0.0201255 -0.0142992 -1.16125e-18)
(0.0198296 -0.0150255 2.1373e-18)
(0.0195162 -0.0157493 -9.04495e-19)
(0.0191849 -0.0164702 5.05384e-18)
(0.0188349 -0.0171881 -3.72841e-18)
(0.0191136 -0.0172543 -5.46197e-18)
(0.0230644 -0.00411563 1.8892e-18)
(0.0229806 -0.00486425 7.73191e-19)
(0.0228826 -0.00561299 7.64415e-18)
(0.0227703 -0.00636184 -2.09226e-18)
(0.0226434 -0.00711077 -8.05301e-18)
(0.0225017 -0.00785972 -6.73257e-18)
(0.0223452 -0.00860864 -3.69713e-18)
(0.0221736 -0.00935743 -6.16261e-18)
(0.0219866 -0.010106 -8.14797e-18)
(0.021784 -0.0108541 -1.26986e-17)
(0.0215656 -0.0116017 -6.87891e-18)
(0.0213311 -0.0123486 -6.45631e-18)
(0.0210801 -0.0130944 -2.96806e-18)
(0.0208124 -0.0138389 -3.49565e-18)
(0.0205276 -0.0145818 1.11271e-18)
(0.0202254 -0.0153227 3.11994e-18)
(0.0199054 -0.016061 -1.14632e-18)
(0.019567 -0.0167965 5.76509e-18)
(0.0192094 -0.0175288 -2.66769e-18)
(0.0194778 -0.0176118 -4.75548e-18)
(0.0235289 -0.00419653 1.05128e-18)
(0.0234434 -0.0049599 -1.1691e-19)
(0.0233434 -0.00572341 8.06035e-18)
(0.0232287 -0.00648705 -2.40158e-18)
(0.0230992 -0.00725077 -9.00535e-18)
(0.0229547 -0.00801455 -6.26983e-18)
(0.0227949 -0.00877832 -3.98453e-18)
(0.0226197 -0.00954198 -6.17276e-18)
(0.0224288 -0.0103054 -7.85875e-18)
(0.022222 -0.0110685 -1.3755e-17)
(0.021999 -0.011831 -6.45775e-18)
(0.0217595 -0.0125928 -6.33362e-18)
(0.0215033 -0.0133536 -3.89901e-18)
(0.0212299 -0.0141131 -3.78736e-18)
(0.0209391 -0.014871 3.09392e-18)
(0.0206305 -0.0156268 3.79685e-18)
(0.0203036 -0.0163801 -1.55537e-18)
(0.019958 -0.0171304 6.24208e-18)
(0.0195928 -0.0178775 -1.96921e-18)
(0.0198506 -0.0179775 -3.53961e-18)
(0.0240041 -0.00427931 3.40917e-19)
(0.0239169 -0.00505777 -9.82434e-19)
(0.0238148 -0.00583638 8.13555e-18)
(0.0236978 -0.00661515 -2.71415e-18)
(0.0235656 -0.00739403 -9.87166e-18)
(0.023418 -0.00817298 -5.75017e-18)
(0.023255 -0.00895194 -4.01536e-18)
(0.0230761 -0.00973083 -6.1771e-18)
(0.0228813 -0.0105095 -7.70637e-18)
(0.0226701 -0.0112879 -1.50728e-17)
(0.0224425 -0.0120657 -5.95165e-18)
(0.022198 -0.0128428 -5.61829e-18)
(0.0219364 -0.0136189 -4.62339e-18)
(0.0216573 -0.0143938 -4.14561e-18)
(0.0213603 -0.0151669 4.64599e-18)
(0.0210451 -0.0159381 4.24301e-18)
(0.0207113 -0.0167067 -2.0488e-18)
(0.0203584 -0.0174723 6.48471e-18)
(0.0199852 -0.0182346 -1.49578e-18)
(0.0202325 -0.0183519 -1.86512e-18)
(0.0244904 -0.00436402 -1.08172e-19)
(0.0244014 -0.00515793 -1.65194e-18)
(0.0242972 -0.00595201 7.85834e-18)
(0.0241778 -0.00674626 -3.00574e-18)
(0.0240429 -0.00754064 -1.08102e-17)
(0.0238923 -0.00833513 -5.35447e-18)