/*--------------------------------*- C++ -*----------------------------------*\
  =========                 |
  \\      /  F ield         | OpenFOAM: The Open Source CFD Toolbox
   \\    /   O peration     | Website:  https://openfoam.org
    \\  /    A nd           | Version:  7
     \\/     M anipulation  |
\*---------------------------------------------------------------------------*/
FoamFile
{
    version     2.0;
    format      ascii;
    class       volScalarField;
    location    "164000";
    object      nu;
}
// * * * * * * * * * * * * * * * * * * * * * * * * * * * * * * * * * * * * * //

dimensions      [0 2 -1 0 0 0 0];

internalField   nonuniform List<scalar> 
4838
(
6.70709e-05
7.08275e-05
7.37716e-05
7.79329e-05
8.31043e-05
8.92832e-05
9.65943e-05
0.000105256
0.000115577
0.000127959
0.000142893
0.000160927
0.000182611
0.000208383
0.000238443
0.000272601
0.000310193
0.000350102
0.000390575
0.000429633
0.000465438
0.000496507
0.000521096
0.000538007
0.000546603
0.000546604
0.000538007
0.000521097
0.000496508
0.000465439
0.000429634
0.000390576
0.000350103
0.000310194
0.000272602
0.000238444
0.000208384
0.000182611
0.000160928
0.000142893
0.000127959
0.000115577
0.000105256
9.65944e-05
8.92833e-05
8.31044e-05
7.79329e-05
7.37717e-05
7.08275e-05
6.7071e-05
5.16761e-05
5.90065e-05
6.1572e-05
6.46773e-05
6.84322e-05
7.28623e-05
7.80038e-05
8.39241e-05
9.07252e-05
9.8544e-05
0.000107548
0.000117927
0.00012987
0.000143538
0.000159012
0.000176245
0.000195015
0.00021489
0.000235227
0.000255192
0.00027386
0.000290308
0.000303601
0.000312936
0.000317747
0.000317747
0.000312936
0.000303602
0.000290308
0.000273861
0.000255192
0.000235227
0.000214891
0.000195015
0.000176246
0.000159012
0.000143538
0.000129871
0.000117927
0.000107548
9.85441e-05
9.07253e-05
8.39242e-05
7.80039e-05
7.28623e-05
6.84322e-05
6.46773e-05
6.15721e-05
5.90065e-05
5.16761e-05
4.50927e-05
5.1997e-05
5.46666e-05
5.73435e-05
6.02501e-05
6.35069e-05
6.71778e-05
7.13057e-05
7.59306e-05
8.10975e-05
8.68583e-05
9.32687e-05
0.000100382
0.000108237
0.000116841
0.000126153
0.000136059
0.00014636
0.000156771
0.00016692
0.000176375
0.000184676
0.00019138
0.000196093
0.000198527
0.000198527
0.000196094
0.00019138
0.000184676
0.000176375
0.000166921
0.000156772
0.000146361
0.000136059
0.000126153
0.000116842
0.000108237
0.000100382
9.32688e-05
8.68584e-05
8.10976e-05
7.59307e-05
7.13058e-05
6.71779e-05
6.35069e-05
6.02501e-05
5.73435e-05
5.46666e-05
5.1997e-05
4.50927e-05
4.10311e-05
4.65641e-05
4.89698e-05
5.13659e-05
5.38223e-05
5.64232e-05
5.92329e-05
6.22939e-05
6.56337e-05
6.92717e-05
7.32225e-05
7.74969e-05
8.21e-05
8.70282e-05
9.22626e-05
9.7762e-05
0.000103455
0.000109236
0.00011496
0.000120448
0.000125493
0.000129876
0.000133387
0.000135842
0.000137106
0.000137106
0.000135842
0.000133387
0.000129876
0.000125493
0.000120448
0.00011496
0.000109236
0.000103456
9.77621e-05
9.22627e-05
8.70283e-05
8.21001e-05
7.74969e-05
7.32226e-05
6.92718e-05
6.56337e-05
6.22939e-05
5.92329e-05
5.64232e-05
5.38223e-05
5.13659e-05
4.89698e-05
4.65641e-05
4.10311e-05
3.7897e-05
4.23533e-05
4.43486e-05
4.6402e-05
4.85024e-05
5.0672e-05
5.29437e-05
5.53465e-05
5.79005e-05
6.06176e-05
6.3502e-05
6.65518e-05
6.97587e-05
7.31077e-05
7.65747e-05
8.01246e-05
8.37088e-05
8.7263e-05
9.07072e-05
9.3947e-05
9.68775e-05
9.93903e-05
0.000101382
0.000102765
0.000103474
0.000103474
0.000102765
0.000101382
9.93904e-05
9.68775e-05
9.3947e-05
9.07073e-05
8.72631e-05
8.37088e-05
8.01247e-05
7.65747e-05
7.31077e-05
6.97587e-05
6.65518e-05
6.3502e-05
6.06176e-05
5.79006e-05
5.53465e-05
5.29437e-05
5.0672e-05
4.85024e-05
4.6402e-05
4.43486e-05
4.23533e-05
3.7897e-05
3.53033e-05
3.89774e-05
4.06189e-05
4.2337e-05
4.41123e-05
4.59401e-05
4.78274e-05
4.97857e-05
5.18254e-05
5.39527e-05
5.61681e-05
5.84671e-05
6.08394e-05
6.32694e-05
6.57357e-05
6.82107e-05
7.06596e-05
7.30407e-05
7.53056e-05
7.73998e-05
7.92658e-05
8.08457e-05
8.20856e-05
8.294e-05
8.33759e-05
8.3376e-05
8.294e-05
8.20856e-05
8.08457e-05
7.92658e-05
7.73998e-05
7.53056e-05
7.30408e-05
7.06596e-05
6.82107e-05
6.57357e-05
6.32694e-05
6.08394e-05
5.84671e-05
5.61682e-05
5.39527e-05
5.18254e-05
4.97857e-05
4.78274e-05
4.59401e-05
4.41123e-05
4.2337e-05
4.06189e-05
3.89774e-05
3.53033e-05
3.30986e-05
3.61834e-05
3.75553e-05
3.89944e-05
4.04895e-05
4.20317e-05
4.36173e-05
4.52469e-05
4.69224e-05
4.86447e-05
5.04121e-05
5.22191e-05
5.40565e-05
5.59109e-05
5.77652e-05
5.95982e-05
6.13848e-05
6.30964e-05
6.47013e-05
6.61657e-05
6.74549e-05
6.85353e-05
6.93762e-05
6.99521e-05
7.02448e-05
7.02448e-05
6.99521e-05
6.93762e-05
6.85353e-05
6.74549e-05
6.61657e-05
6.47013e-05
6.30964e-05
6.13848e-05
5.95982e-05
5.77652e-05
5.59109e-05
5.40565e-05
5.22192e-05
5.04121e-05
4.86448e-05
4.69224e-05
4.52469e-05
4.36173e-05
4.20317e-05
4.04895e-05
3.89944e-05
3.75553e-05
3.61834e-05
3.30985e-05
3.11926e-05
3.38179e-05
3.49851e-05
3.62049e-05
3.74717e-05
3.8779e-05
4.0121e-05
4.14939e-05
4.28949e-05
4.43215e-05
4.57699e-05
4.72344e-05
4.87067e-05
5.01761e-05
5.16288e-05
5.30488e-05
5.44177e-05
5.57151e-05
5.69192e-05
5.80072e-05
5.89567e-05
5.97464e-05
6.03572e-05
6.07737e-05
6.09848e-05
6.09848e-05
6.07737e-05
6.03572e-05
5.97464e-05
5.89567e-05
5.80072e-05
5.69192e-05
5.57151e-05
5.44177e-05
5.30488e-05
5.16288e-05
5.01761e-05
4.87067e-05
4.72344e-05
4.57699e-05
4.43215e-05
4.28949e-05
4.14939e-05
4.0121e-05
3.8779e-05
3.74717e-05
3.62048e-05
3.49851e-05
3.38179e-05
3.11926e-05
2.95234e-05
3.17818e-05
3.27897e-05
3.38377e-05
3.49226e-05
3.60402e-05
3.71855e-05
3.83535e-05
3.95401e-05
4.07408e-05
4.19509e-05
4.31646e-05
4.43745e-05
4.55715e-05
4.67449e-05
4.78822e-05
4.89696e-05
4.9992e-05
5.09337e-05
5.17788e-05
5.25116e-05
5.31179e-05
5.35847e-05
5.3902e-05
5.40625e-05
5.40625e-05
5.3902e-05
5.35847e-05
5.31179e-05
5.25116e-05
5.17788e-05
5.09337e-05
4.9992e-05
4.89696e-05
4.78822e-05
4.67449e-05
4.55715e-05
4.43745e-05
4.31646e-05
4.19509e-05
4.07408e-05
3.954e-05
3.83535e-05
3.71854e-05
3.60402e-05
3.49226e-05
3.38376e-05
3.27897e-05
3.17818e-05
2.95234e-05
2.80461e-05
3.00065e-05
3.08874e-05
3.17988e-05
3.27387e-05
3.37039e-05
3.46904e-05
3.56938e-05
3.67096e-05
3.7733e-05
3.8759e-05
3.97819e-05
4.07952e-05
4.17911e-05
4.27609e-05
4.36948e-05
4.45821e-05
4.54113e-05
4.61708e-05
4.68488e-05
4.74341e-05
4.79163e-05
4.82865e-05
4.85375e-05
4.86642e-05
4.86642e-05
4.85375e-05
4.82865e-05
4.79163e-05
4.74341e-05
4.68488e-05
4.61708e-05
4.54113e-05
4.4582e-05
4.36948e-05
4.27609e-05
4.17911e-05
4.07952e-05
3.97819e-05
3.8759e-05
3.7733e-05
3.67095e-05
3.56938e-05
3.46904e-05
3.37039e-05
3.27387e-05
3.17988e-05
3.08874e-05
3.00065e-05
2.80461e-05
2.67271e-05
2.84423e-05
2.92197e-05
3.00208e-05
3.08437e-05
3.16857e-05
3.25437e-05
3.3414e-05
3.42922e-05
3.51739e-05
3.60544e-05
3.69282e-05
3.77896e-05
3.86319e-05
3.9448e-05
4.02298e-05
4.09689e-05
4.16564e-05
4.22833e-05
4.28407e-05
4.33202e-05
4.37141e-05
4.40157e-05
4.42199e-05
4.43229e-05
4.43229e-05
4.42199e-05
4.40157e-05
4.37141e-05
4.33202e-05
4.28407e-05
4.22833e-05
4.16564e-05
4.09689e-05
4.02298e-05
3.9448e-05
3.86319e-05
3.77896e-05
3.69282e-05
3.60544e-05
3.51739e-05
3.42922e-05
3.34139e-05
3.25437e-05
3.16857e-05
3.08437e-05
3.00208e-05
2.92197e-05
2.84422e-05
2.6727e-05
2.55405e-05
2.70516e-05
2.77437e-05
2.84541e-05
2.91811e-05
2.99227e-05
3.06759e-05
3.14375e-05
3.2204e-05
3.29711e-05
3.37345e-05
3.44895e-05
3.52309e-05
3.59529e-05
3.66495e-05
3.73142e-05
3.79401e-05
3.85201e-05
3.90471e-05
3.95143e-05
3.9915e-05
4.02433e-05
4.04943e-05
4.0664e-05
4.07495e-05
4.07495e-05
4.0664e-05
4.04943e-05
4.02433e-05
3.9915e-05
3.95143e-05
3.90471e-05
3.85201e-05
3.79401e-05
3.73142e-05
3.66495e-05
3.59529e-05
3.52309e-05
3.44895e-05
3.37345e-05
3.29711e-05
3.22039e-05
3.14375e-05
3.06759e-05
2.99226e-05
2.91811e-05
2.84541e-05
2.77436e-05
2.70516e-05
2.55405e-05
2.44661e-05
2.58057e-05
2.64262e-05
2.70612e-05
2.77089e-05
2.83673e-05
2.90341e-05
2.97065e-05
3.03812e-05
3.10545e-05
3.17227e-05
3.23815e-05
3.30263e-05
3.36522e-05
3.42541e-05
3.48265e-05
3.53637e-05
3.58601e-05
3.63097e-05
3.67073e-05
3.70475e-05
3.73258e-05
3.75382e-05
3.76815e-05
3.77538e-05
3.77538e-05
3.76815e-05
3.75382e-05
3.73258e-05
3.70475e-05
3.67073e-05
3.63097e-05
3.586e-05
3.53637e-05
3.48265e-05
3.42541e-05
3.36522e-05
3.30263e-05
3.23815e-05
3.17227e-05
3.10545e-05
3.03811e-05
2.97065e-05
2.90341e-05
2.83673e-05
2.77088e-05
2.70612e-05
2.64262e-05
2.58057e-05
2.44661e-05
2.34876e-05
2.46819e-05
2.52419e-05
2.58133e-05
2.63944e-05
2.69834e-05
2.75783e-05
2.81764e-05
2.8775e-05
2.9371e-05
2.99607e-05
3.05406e-05
3.11066e-05
3.16546e-05
3.218e-05
3.26783e-05
3.31447e-05
3.35744e-05
3.39629e-05
3.43056e-05
3.45983e-05
3.48374e-05
3.50196e-05
3.51425e-05
3.52044e-05
3.52044e-05
3.51425e-05
3.50196e-05
3.48374e-05
3.45983e-05
3.43056e-05
3.39629e-05
3.35744e-05
3.31447e-05
3.26783e-05
3.218e-05
3.16546e-05
3.11066e-05
3.05406e-05
2.99607e-05
2.9371e-05
2.8775e-05
2.81764e-05
2.75783e-05
2.69834e-05
2.63944e-05
2.58133e-05
2.52419e-05
2.46819e-05
2.34876e-05
2.25919e-05
2.36621e-05
2.41705e-05
2.46877e-05
2.52124e-05
2.57428e-05
2.62771e-05
2.6813e-05
2.7348e-05
2.78793e-05
2.84038e-05
2.89183e-05
2.94192e-05
2.9903e-05
3.03658e-05
3.08037e-05
3.12126e-05
3.15885e-05
3.19277e-05
3.22263e-05
3.2481e-05
3.26887e-05
3.28469e-05
3.29535e-05
3.30071e-05
3.30071e-05
3.29535e-05
3.28469e-05
3.26887e-05
3.2481e-05
3.22263e-05
3.19277e-05
3.15885e-05
3.12125e-05
3.08036e-05
3.03658e-05
2.9903e-05
2.94192e-05
2.89182e-05
2.84038e-05
2.78792e-05
2.7348e-05
2.6813e-05
2.62771e-05
2.57428e-05
2.52124e-05
2.46877e-05
2.41704e-05
2.36621e-05
2.25919e-05
2.17681e-05
2.27317e-05
2.31955e-05
2.36664e-05
2.41428e-05
2.46233e-05
2.51061e-05
2.55893e-05
2.60705e-05
2.65473e-05
2.7017e-05
2.74768e-05
2.79234e-05
2.83539e-05
2.87648e-05
2.91527e-05
2.95143e-05
2.98461e-05
3.01449e-05
3.04077e-05
3.06314e-05
3.08137e-05
3.09523e-05
3.10457e-05
3.10927e-05
3.10927e-05
3.10457e-05
3.09523e-05
3.08137e-05
3.06314e-05
3.04077e-05
3.01449e-05
2.98461e-05
2.95143e-05
2.91527e-05
2.87647e-05
2.83539e-05
2.79234e-05
2.74768e-05
2.7017e-05
2.65473e-05
2.60705e-05
2.55893e-05
2.51061e-05
2.46233e-05
2.41428e-05
2.36663e-05
2.31955e-05
2.27317e-05
2.17681e-05
2.10074e-05
2.18787e-05
2.23039e-05
2.27346e-05
2.31694e-05
2.3607e-05
2.40458e-05
2.44839e-05
2.49193e-05
2.53499e-05
2.57731e-05
2.61866e-05
2.65875e-05
2.69731e-05
2.73405e-05
2.76867e-05
2.80089e-05
2.83041e-05
2.85695e-05
2.88025e-05
2.90007e-05
2.9162e-05
2.92846e-05
2.93672e-05
2.94087e-05
2.94087e-05
2.93672e-05
2.92846e-05
2.9162e-05
2.90007e-05
2.88025e-05
2.85695e-05
2.83041e-05
2.80089e-05
2.76867e-05
2.73405e-05
2.69731e-05
2.65875e-05
2.61866e-05
2.57731e-05
2.53499e-05
2.49193e-05
2.44839e-05
2.40458e-05
2.3607e-05
2.31694e-05
2.27345e-05
2.23039e-05
2.18787e-05
2.10074e-05
2.03021e-05
2.10932e-05
2.14846e-05
2.18803e-05
2.22791e-05
2.26795e-05
2.30802e-05
2.34796e-05
2.38757e-05
2.42666e-05
2.46502e-05
2.50242e-05
2.53862e-05
2.57338e-05
2.60644e-05
2.63754e-05
2.66644e-05
2.69288e-05
2.71663e-05
2.73745e-05
2.75514e-05
2.76953e-05
2.78045e-05
2.7878e-05
2.7915e-05
2.7915e-05
2.7878e-05
2.78045e-05
2.76953e-05
2.75514e-05
2.73745e-05
2.71663e-05
2.69288e-05
2.66644e-05
2.63754e-05
2.60644e-05
2.57338e-05
2.53862e-05
2.50242e-05
2.46502e-05
2.42666e-05
2.38757e-05
2.34796e-05
2.30802e-05
2.26795e-05
2.2279e-05
2.18803e-05
2.14846e-05
2.10931e-05
2.03021e-05
1.96459e-05
2.03668e-05
2.07286e-05
2.10937e-05
2.14609e-05
2.1829e-05
2.21966e-05
2.25623e-05
2.29244e-05
2.32811e-05
2.36306e-05
2.39707e-05
2.42994e-05
2.46144e-05
2.49137e-05
2.51948e-05
2.54556e-05
2.56939e-05
2.59077e-05
2.60949e-05
2.62539e-05
2.63831e-05
2.64811e-05
2.6547e-05
2.65802e-05
2.65802e-05
2.6547e-05
2.64811e-05
2.63831e-05
2.62539e-05
2.60949e-05
2.59077e-05
2.56939e-05
2.54556e-05
2.51948e-05
2.49136e-05
2.46144e-05
2.42994e-05
2.39707e-05
2.36306e-05
2.32811e-05
2.29244e-05
2.25623e-05
2.21966e-05
2.18289e-05
2.14609e-05
2.10937e-05
2.07286e-05
2.03668e-05
1.96459e-05
2.00283e-05
2.03664e-05
2.07058e-05
2.10455e-05
2.13842e-05
2.17206e-05
2.20531e-05
2.23801e-05
2.26999e-05
2.30107e-05
2.33106e-05
2.35977e-05
2.387e-05
2.41254e-05
2.43621e-05
2.45781e-05
2.47717e-05
2.49411e-05
2.50848e-05
2.52014e-05
2.52899e-05
2.53494e-05
2.53793e-05
2.53793e-05
2.53494e-05
2.52899e-05
2.52014e-05
2.50848e-05
2.49411e-05
2.47717e-05
2.45781e-05
2.43621e-05
2.41254e-05
2.38699e-05
2.35977e-05
2.33106e-05
2.30107e-05
2.26999e-05
2.23801e-05
2.20531e-05
2.17206e-05
2.13842e-05
2.10455e-05
2.07058e-05
2.03664e-05
2.00283e-05
1.96927e-05
1.90335e-05
1.96914e-05
2.00063e-05
2.0321e-05
2.06342e-05
2.09448e-05
2.12514e-05
2.15524e-05
2.18464e-05
2.21317e-05
2.24066e-05
2.26694e-05
2.29183e-05
2.31516e-05
2.33674e-05
2.35643e-05
2.37404e-05
2.38945e-05
2.40251e-05
2.4131e-05
2.42114e-05
2.42653e-05
2.42925e-05
2.42925e-05
2.42653e-05
2.42114e-05
2.4131e-05
2.40251e-05
2.38945e-05
2.37404e-05
2.35643e-05
2.33674e-05
2.31515e-05
2.29183e-05
2.26694e-05
2.24066e-05
2.21317e-05
2.18464e-05
2.15524e-05
2.12514e-05
2.09448e-05
2.06342e-05
2.0321e-05
2.00063e-05
1.96914e-05
1.93773e-05
1.9065e-05
1.84602e-05
1.96485e-05
1.99392e-05
2.0227e-05
2.05107e-05
2.07889e-05
2.10602e-05
2.13232e-05
2.15762e-05
2.18178e-05
2.20464e-05
2.22603e-05
2.24581e-05
2.26383e-05
2.27994e-05
2.29402e-05
2.30595e-05
2.31562e-05
2.32295e-05
2.32787e-05
2.33034e-05
2.33034e-05
2.32787e-05
2.32295e-05
2.31562e-05
2.30595e-05
2.29402e-05
2.27994e-05
2.26383e-05
2.24581e-05
2.22603e-05
2.20464e-05
2.18178e-05
2.15762e-05
2.13232e-05
2.10602e-05
2.07889e-05
2.05107e-05
2.0227e-05
1.99392e-05
1.96484e-05
1.9356e-05
1.90629e-05
1.87701e-05
1.84785e-05
1.79219e-05
1.92928e-05
1.95604e-05
1.98239e-05
2.00819e-05
2.03332e-05
2.05765e-05
2.08103e-05
2.10333e-05
2.1244e-05
2.1441e-05
2.1623e-05
2.17887e-05
2.19367e-05
2.20659e-05
2.21753e-05
2.2264e-05
2.23311e-05
2.23762e-05
2.23989e-05
2.23989e-05
2.23762e-05
2.23311e-05
2.2264e-05
2.21753e-05
2.20659e-05
2.19367e-05
2.17887e-05
2.1623e-05
2.1441e-05
2.1244e-05
2.10333e-05
2.08103e-05
2.05765e-05
2.03332e-05
2.00819e-05
1.98239e-05
1.95604e-05
1.92927e-05
1.9022e-05
1.87494e-05
1.84757e-05
1.8202e-05
1.79291e-05
1.74154e-05
1.89393e-05
1.91847e-05
1.94248e-05
1.96584e-05
1.98842e-05
2.0101e-05
2.03076e-05
2.05026e-05
2.06848e-05
2.08529e-05
2.10058e-05
2.11423e-05
2.12614e-05
2.13621e-05
2.14437e-05
2.15056e-05
2.15471e-05
2.15679e-05
2.15679e-05
2.15471e-05
2.15056e-05
2.14437e-05
2.13621e-05
2.12613e-05
2.11422e-05
2.10057e-05
2.08529e-05
2.06848e-05
2.05026e-05
2.03076e-05
2.0101e-05
1.98842e-05
1.96584e-05
1.94248e-05
1.91847e-05
1.89393e-05
1.86896e-05
1.84368e-05
1.81818e-05
1.79256e-05
1.7669e-05
1.74128e-05
1.69375e-05
1.88121e-05
1.90299e-05
1.92402e-05
1.94419e-05
1.96339e-05
1.9815e-05
1.9984e-05
2.01399e-05
2.02815e-05
2.04078e-05
2.0518e-05
2.06112e-05
2.06866e-05
2.07437e-05
2.0782e-05
2.08013e-05
2.08013e-05
2.0782e-05
2.07437e-05
2.06866e-05
2.06111e-05
2.0518e-05
2.04078e-05
2.02814e-05
2.01398e-05
1.9984e-05
1.9815e-05
1.96339e-05
1.94419e-05
1.92402e-05
1.90299e-05
1.88121e-05
1.8588e-05
1.83587e-05
1.81251e-05
1.78884e-05
1.76493e-05
1.74088e-05
1.71676e-05
1.69266e-05
1.64856e-05
1.84427e-05
1.86392e-05
1.88274e-05
1.90064e-05
1.91751e-05
1.93324e-05
1.94774e-05
1.9609e-05
1.97263e-05
1.98286e-05
1.9915e-05
1.9985e-05
2.0038e-05
2.00735e-05
2.00913e-05
2.00913e-05
2.00735e-05
2.0038e-05
1.9985e-05
1.9915e-05
1.98286e-05
1.97263e-05
1.9609e-05
1.94773e-05
1.93324e-05
1.91751e-05
1.90064e-05
1.88274e-05
1.86392e-05
1.84427e-05
1.82391e-05
1.80293e-05
1.78145e-05
1.75954e-05
1.73731e-05
1.71483e-05
1.6922e-05
1.66948e-05
1.64675e-05
1.60574e-05
1.85777e-05
1.87246e-05
1.88598e-05
1.89825e-05
1.90918e-05
1.91871e-05
1.92675e-05
1.93326e-05
1.93819e-05
1.94149e-05
1.94315e-05
1.94315e-05
1.94149e-05
1.93819e-05
1.93326e-05
1.92675e-05
1.91871e-05
1.90918e-05
1.89825e-05
1.88598e-05
1.87245e-05
1.85777e-05
1.84201e-05
1.82527e-05
1.80765e-05
1.78925e-05
1.77016e-05
1.75048e-05
1.73029e-05
1.70969e-05
1.68877e-05
1.66759e-05
1.64624e-05
1.6248e-05
1.60332e-05
1.56509e-05
1.84992e-05
1.85882e-05
1.86633e-05
1.8724e-05
1.877e-05
1.88008e-05
1.88163e-05
1.88163e-05
1.88008e-05
1.877e-05
1.8724e-05
1.86633e-05
1.85881e-05
1.84992e-05
1.8397e-05
1.82823e-05
1.81558e-05
1.80183e-05
1.78706e-05
1.77137e-05
1.75484e-05
1.73756e-05
1.71961e-05
1.7011e-05
1.68209e-05
1.66267e-05
1.64293e-05
1.62294e-05
1.60276e-05
1.58247e-05
1.56213e-05
1.52642e-05
1.80977e-05
1.81546e-05
1.81976e-05
1.82264e-05
1.82409e-05
1.82409e-05
1.82264e-05
1.81976e-05
1.81546e-05
1.80977e-05
1.80274e-05
1.7944e-05
1.78483e-05
1.77407e-05
1.76221e-05
1.7493e-05
1.73543e-05
1.72069e-05
1.70514e-05
1.68887e-05
1.67196e-05
1.6545e-05
1.63656e-05
1.61822e-05
1.59956e-05
1.58064e-05
1.56153e-05
1.5423e-05
1.523e-05
1.48958e-05
1.77012e-05
1.77012e-05
1.76876e-05
1.76606e-05
1.76202e-05
1.75669e-05
1.75009e-05
1.74226e-05
1.73327e-05
1.72316e-05
1.712e-05
1.69986e-05
1.6868e-05
1.6729e-05
1.65824e-05
1.6429e-05
1.62693e-05
1.61043e-05
1.59347e-05
1.57611e-05
1.55843e-05
1.54049e-05
1.52236e-05
1.5041e-05
1.48575e-05
1.45441e-05
1.70674e-05
1.70052e-05
1.69316e-05
1.68469e-05
1.67517e-05
1.66465e-05
1.6532e-05
1.64088e-05
1.62776e-05
1.61391e-05
1.59939e-05
1.58429e-05
1.56867e-05
1.55259e-05
1.53613e-05
1.51935e-05
1.50232e-05
1.48508e-05
1.46771e-05
1.45024e-05
1.42079e-05
1.63882e-05
1.62983e-05
1.61989e-05
1.60907e-05
1.59742e-05
1.58501e-05
1.57189e-05
1.55814e-05
1.54383e-05
1.52901e-05
1.51375e-05
1.49811e-05
1.48216e-05
1.46595e-05
1.44954e-05
1.43298e-05
1.41633e-05
1.38861e-05
1.57749e-05
1.56725e-05
1.55621e-05
1.54444e-05
1.532e-05
1.51896e-05
1.50536e-05
1.49127e-05
1.47676e-05
1.46188e-05
1.44669e-05
1.43124e-05
1.41559e-05
1.3998e-05
1.3839e-05
1.35776e-05
1.53725e-05
1.52753e-05
1.51705e-05
1.50588e-05
1.49406e-05
1.48165e-05
1.46872e-05
1.45531e-05
1.44149e-05
1.4273e-05
1.41281e-05
1.39807e-05
1.38313e-05
1.36803e-05
1.35283e-05
1.32815e-05
1.49898e-05
1.48974e-05
1.47978e-05
1.46915e-05
1.4579e-05
1.44609e-05
1.43376e-05
1.42098e-05
1.40779e-05
1.39425e-05
1.38041e-05
1.36632e-05
1.35203e-05
1.33758e-05
1.32303e-05
1.29968e-05
1.43411e-05
1.42339e-05
1.41212e-05
1.40036e-05
1.38815e-05
1.37555e-05
1.36261e-05
1.34937e-05
1.33589e-05
1.3222e-05
1.30836e-05
1.2944e-05
1.27229e-05
1.34466e-05
1.33228e-05
1.3196e-05
1.30668e-05
1.29355e-05
1.28027e-05
1.26688e-05
1.2459e-05
1.2786e-05
1.266e-05
1.25325e-05
1.24038e-05
1.22046e-05
0.000521092
0.000538002
0.000546599
0.000546599
0.000538002
0.000521092
0.000496504
0.000465436
0.00042963
0.000390573
0.000350101
0.000310192
0.0002726
0.000238442
0.000208383
0.00018261
0.000160927
0.000142892
0.000127959
0.000115577
0.000105256
9.65942e-05
8.92831e-05
8.31043e-05
7.79328e-05
7.37716e-05
7.08275e-05
6.70709e-05
0.000303599
0.000312933
0.000317744
0.000317744
0.000312934
0.000303599
0.000290305
0.000273858
0.00025519
0.000235226
0.000214889
0.000195014
0.000176245
0.000159012
0.000143538
0.00012987
0.000117926
0.000107548
9.85439e-05
9.07251e-05
8.3924e-05
7.80038e-05
7.28622e-05
6.84321e-05
6.46773e-05
6.1572e-05
5.90065e-05
5.1676e-05
0.000191378
0.000196092
0.000198526
0.000198526
0.000196092
0.000191378
0.000184675
0.000176374
0.00016692
0.000156771
0.00014636
0.000136058
0.000126153
0.000116841
0.000108237
0.000100382
9.32685e-05
8.68582e-05
8.10975e-05
7.59305e-05
7.13057e-05
6.71778e-05
6.35068e-05
6.02501e-05
5.73434e-05
5.46666e-05
5.1997e-05
4.50926e-05
0.000133386
0.000135842
0.000137106
0.000137106
0.000135842
0.000133386
0.000129875
0.000125492
0.000120448
0.00011496
0.000109236
0.000103455
9.77618e-05
9.22624e-05
8.70281e-05
8.20999e-05
7.74968e-05
7.32225e-05
6.92717e-05
6.56337e-05
6.22938e-05
5.92329e-05
5.64232e-05
5.38223e-05
5.13659e-05
4.89698e-05
4.65641e-05
4.10311e-05
0.000101382
0.000102765
0.000103474
0.000103474
0.000102765
0.000101382
9.939e-05
9.68772e-05
9.39467e-05
9.0707e-05
8.72628e-05
8.37086e-05
8.01245e-05
7.65746e-05
7.31076e-05
6.97586e-05
6.65517e-05
6.3502e-05
6.06176e-05
5.79005e-05
5.53464e-05
5.29437e-05
5.0672e-05
4.85023e-05
4.6402e-05
4.43486e-05
4.23533e-05
3.7897e-05
8.20853e-05
8.29397e-05
8.33757e-05
8.33757e-05
8.29398e-05
8.20854e-05
8.08455e-05
7.92656e-05
7.73996e-05
7.53054e-05
7.30406e-05
7.06595e-05
6.82106e-05
6.57357e-05
6.32693e-05
6.08393e-05
5.84671e-05
5.61681e-05
5.39527e-05
5.18254e-05
4.97857e-05
4.78273e-05
4.59401e-05
4.41123e-05
4.2337e-05
4.06189e-05
3.89774e-05
3.53033e-05
6.9376e-05
6.99519e-05
7.02446e-05
7.02446e-05
6.99519e-05
6.9376e-05
6.85352e-05
6.74548e-05
6.61656e-05
6.47012e-05
6.30963e-05
6.13847e-05
5.95981e-05
5.77652e-05
5.59109e-05
5.40565e-05
5.22191e-05
5.04121e-05
4.86447e-05
4.69224e-05
4.52469e-05
4.36173e-05
4.20317e-05
4.04895e-05
3.89944e-05
3.75553e-05
3.61834e-05
3.30986e-05
6.03571e-05
6.07735e-05
6.09846e-05
6.09846e-05
6.07736e-05
6.03571e-05
5.97463e-05
5.89566e-05
5.80071e-05
5.69191e-05
5.57151e-05
5.44177e-05
5.30488e-05
5.16288e-05
5.0176e-05
4.87067e-05
4.72344e-05
4.57699e-05
4.43215e-05
4.28949e-05
4.14939e-05
4.0121e-05
3.8779e-05
3.74717e-05
3.62049e-05
3.49851e-05
3.38179e-05
3.11926e-05
5.35846e-05
5.39019e-05
5.40624e-05
5.40624e-05
5.39019e-05
5.35847e-05
5.31178e-05
5.25116e-05
5.17787e-05
5.09337e-05
4.9992e-05
4.89696e-05
4.78822e-05
4.67449e-05
4.55715e-05
4.43745e-05
4.31646e-05
4.19509e-05
4.07408e-05
3.95401e-05
3.83535e-05
3.71855e-05
3.60402e-05
3.49226e-05
3.38377e-05
3.27897e-05
3.17818e-05
2.95234e-05
4.82864e-05
4.85374e-05
4.86642e-05
4.86642e-05
4.85374e-05
4.82864e-05
4.79162e-05
4.7434e-05
4.68487e-05
4.61707e-05
4.54113e-05
4.4582e-05
4.36948e-05
4.27609e-05
4.17911e-05
4.07952e-05
3.97819e-05
3.8759e-05
3.7733e-05
3.67096e-05
3.56938e-05
3.46904e-05
3.37039e-05
3.27387e-05
3.17988e-05
3.08874e-05
3.00065e-05
2.80461e-05
4.40157e-05
4.42199e-05
4.43229e-05
4.43229e-05
4.42199e-05
4.40157e-05
4.37141e-05
4.33202e-05
4.28407e-05
4.22833e-05
4.16564e-05
4.09689e-05
4.02298e-05
3.9448e-05
3.86319e-05
3.77896e-05
3.69282e-05
3.60544e-05
3.51739e-05
3.42922e-05
3.3414e-05
3.25438e-05
3.16857e-05
3.08437e-05
3.00208e-05
2.92198e-05
2.84423e-05
2.67271e-05
4.04943e-05
4.06639e-05
4.07495e-05
4.07495e-05
4.0664e-05
4.04943e-05
4.02433e-05
3.9915e-05
3.95143e-05
3.90471e-05
3.85201e-05
3.79401e-05
3.73142e-05
3.66495e-05
3.59529e-05
3.52309e-05
3.44895e-05
3.37346e-05
3.29711e-05
3.2204e-05
3.14375e-05
3.06759e-05
2.99227e-05
2.91812e-05
2.84541e-05
2.77437e-05
2.70516e-05
2.55405e-05
3.75382e-05
3.76815e-05
3.77538e-05
3.77538e-05
3.76815e-05
3.75382e-05
3.73258e-05
3.70475e-05
3.67073e-05
3.63097e-05
3.58601e-05
3.53637e-05
3.48265e-05
3.42541e-05
3.36522e-05
3.30263e-05
3.23815e-05
3.17227e-05
3.10546e-05
3.03812e-05
2.97065e-05
2.90341e-05
2.83673e-05
2.77089e-05
2.70612e-05
2.64262e-05
2.58057e-05
2.44661e-05
3.50196e-05
3.51425e-05
3.52044e-05
3.52044e-05
3.51425e-05
3.50196e-05
3.48374e-05
3.45984e-05
3.43056e-05
3.39629e-05
3.35745e-05
3.31447e-05
3.26783e-05
3.218e-05
3.16546e-05
3.11067e-05
3.05406e-05
2.99607e-05
2.9371e-05
2.87751e-05
2.81764e-05
2.75783e-05
2.69834e-05
2.63944e-05
2.58133e-05
2.52419e-05
2.46819e-05
2.34876e-05
3.22264e-05
3.19277e-05
3.15886e-05
3.12126e-05
3.08037e-05
3.03658e-05
2.99031e-05
2.94193e-05
2.89183e-05
2.84038e-05
2.78793e-05
2.7348e-05
2.6813e-05
2.62771e-05
2.57428e-05
2.52124e-05
2.46877e-05
2.41705e-05
2.36621e-05
2.25919e-05
2.65474e-05
2.60705e-05
2.55893e-05
2.51062e-05
2.46233e-05
2.41428e-05
2.36664e-05
2.31955e-05
2.27317e-05
2.17681e-05
2.3607e-05
2.31694e-05
2.27346e-05
2.23039e-05
2.18787e-05
2.10074e-05
2.14846e-05
2.10932e-05
2.03021e-05
1.15998e-05
1.13692e-05
1.1146e-05
1.7493e-05
1.69986e-05
1.6532e-05
1.60907e-05
1.56725e-05
1.52753e-05
1.48974e-05
1.45373e-05
1.41935e-05
1.38647e-05
1.35499e-05
1.3248e-05
1.29581e-05
1.26795e-05
1.24112e-05
1.21527e-05
1.19033e-05
1.16624e-05
1.14296e-05
1.12043e-05
1.93324e-05
1.87245e-05
1.81558e-05
1.76221e-05
1.712e-05
1.66465e-05
1.61989e-05
1.57749e-05
1.53725e-05
1.49898e-05
1.46252e-05
1.42773e-05
1.39448e-05
1.36265e-05
1.33213e-05
1.30284e-05
1.27469e-05
1.2476e-05
1.2215e-05
1.19633e-05
1.17202e-05
1.14853e-05
1.12581e-05
1.94773e-05
1.88598e-05
1.82823e-05
1.77407e-05
1.72316e-05
1.67517e-05
1.62982e-05
1.5869e-05
1.54617e-05
1.50745e-05
1.47058e-05
1.43541e-05
1.40181e-05
1.36965e-05
1.33884e-05
1.30927e-05
1.28086e-05
1.25352e-05
1.22719e-05
1.20181e-05
1.1773e-05
1.15363e-05
1.13073e-05
1.96089e-05
1.89825e-05
1.8397e-05
1.78483e-05
1.73327e-05
1.68469e-05
1.63882e-05
1.5954e-05
1.55423e-05
1.51511e-05
1.47786e-05
1.44235e-05
1.40843e-05
1.37598e-05
1.34489e-05
1.31507e-05
1.28642e-05
1.25886e-05
1.23233e-05
1.20675e-05
1.18206e-05
1.15821e-05
1.13515e-05
1.97263e-05
1.90918e-05
1.84992e-05
1.7944e-05
1.74226e-05
1.69316e-05
1.64681e-05
1.60296e-05
1.56139e-05
1.52191e-05
1.48433e-05
1.44851e-05
1.4143e-05
1.38159e-05
1.35026e-05
1.32021e-05
1.29134e-05
1.26359e-05
1.23687e-05
1.21112e-05
1.18627e-05
1.16227e-05
1.13907e-05
7.73997e-05
6.61656e-05
5.80071e-05
5.17787e-05
4.68487e-05
4.28407e-05
3.95142e-05
3.67072e-05
3.43056e-05
3.22263e-05
3.04076e-05
2.88025e-05
2.73745e-05
2.60949e-05
2.49411e-05
2.38945e-05
2.29402e-05
2.20659e-05
2.12613e-05
2.0518e-05
1.98286e-05
1.9187e-05
1.85881e-05
1.80274e-05
1.75008e-05
1.70052e-05
1.65375e-05
1.60953e-05
1.56761e-05
1.52781e-05
1.48994e-05
1.45385e-05
1.4194e-05
1.38645e-05
1.35491e-05
1.32466e-05
1.29562e-05
1.26769e-05
1.24081e-05
1.21491e-05
1.18992e-05
1.16579e-05
1.14246e-05
7.92657e-05
6.74549e-05
5.89566e-05
5.25116e-05
4.7434e-05
4.33202e-05
3.99149e-05
3.70475e-05
3.45983e-05
3.2481e-05
3.06314e-05
2.90007e-05
2.75514e-05
2.62539e-05
2.50847e-05
2.40251e-05
2.30594e-05
2.21753e-05
2.13621e-05
2.06111e-05
1.9915e-05
1.92675e-05
1.86633e-05
1.80977e-05
1.75669e-05
1.70673e-05
1.65961e-05
1.61506e-05
1.57285e-05
1.53278e-05
1.49467e-05
1.45835e-05
1.42369e-05
1.39055e-05
1.35882e-05
1.32841e-05
1.29921e-05
1.27114e-05
1.24413e-05
1.2181e-05
1.19299e-05
1.16874e-05
1.14531e-05
8.08456e-05
6.85353e-05
5.97463e-05
5.31178e-05
4.79162e-05
4.37141e-05
4.02433e-05
3.73258e-05
3.48374e-05
3.26887e-05
3.08136e-05
2.9162e-05
2.76952e-05
2.6383e-05
2.52014e-05
2.4131e-05
2.31561e-05
2.22639e-05
2.14437e-05
2.06866e-05
1.9985e-05
1.93326e-05
1.8724e-05
1.81546e-05
1.76202e-05
1.71175e-05
1.66435e-05
1.61953e-05
1.57709e-05
1.5368e-05
1.49848e-05
1.46198e-05
1.42715e-05
1.39385e-05
1.36198e-05
1.33143e-05
1.30211e-05
1.27392e-05
1.24679e-05
1.22066e-05
1.19546e-05
1.17112e-05
1.14761e-05
0.000521091
0.000303599
0.000191379
0.000133386
0.000101382
8.20856e-05
6.93761e-05
6.03572e-05
5.35847e-05
4.82864e-05
4.40157e-05
4.04943e-05
3.75381e-05
3.50196e-05
3.28469e-05
3.09523e-05
2.92846e-05
2.78045e-05
2.64811e-05
2.52899e-05
2.42113e-05
2.32294e-05
2.23311e-05
2.15056e-05
2.07437e-05
2.00379e-05
1.93819e-05
1.877e-05
1.81976e-05
1.76606e-05
1.71555e-05
1.66792e-05
1.62291e-05
1.58028e-05
1.53983e-05
1.50136e-05
1.46472e-05
1.42976e-05
1.39635e-05
1.36437e-05
1.33371e-05
1.30429e-05
1.27602e-05
1.24881e-05
1.2226e-05
1.19732e-05
1.17292e-05
1.14934e-05
0.000538001
0.000312934
0.000196093
0.000135842
0.000102765
8.294e-05
6.9952e-05
6.07736e-05
5.3902e-05
4.85374e-05
4.42199e-05
4.06639e-05
3.76815e-05
3.51425e-05
3.29534e-05
3.10457e-05
2.93672e-05
2.7878e-05
2.6547e-05
2.53494e-05
2.42653e-05
2.32787e-05
2.23762e-05
2.15471e-05
2.0782e-05
2.00735e-05
1.94149e-05
1.88008e-05
1.82264e-05
1.76876e-05
1.71809e-05
1.67032e-05
1.62518e-05
1.58243e-05
1.54186e-05
1.50329e-05
1.46656e-05
1.43151e-05
1.39802e-05
1.36596e-05
1.33524e-05
1.30575e-05
1.27742e-05
1.25016e-05
1.2239e-05
1.19857e-05
1.17412e-05
1.1505e-05
0.000546598
0.000317745
0.000198526
0.000137106
0.000103474
8.33759e-05
7.02448e-05
6.09847e-05
5.40625e-05
4.86642e-05
4.43229e-05
4.07495e-05
3.77538e-05
3.52043e-05
3.30071e-05
3.10926e-05
2.94087e-05
2.7915e-05
2.65801e-05
2.53793e-05
2.42924e-05
2.33034e-05
2.23989e-05
2.15679e-05
2.08013e-05
2.00913e-05
1.94315e-05
1.88163e-05
1.82409e-05
1.77012e-05
1.71937e-05
1.67152e-05
1.62631e-05
1.5835e-05
1.54288e-05
1.50426e-05
1.46748e-05
1.43239e-05
1.39885e-05
1.36676e-05
1.33601e-05
1.30649e-05
1.27812e-05
1.25083e-05
1.22454e-05
1.19919e-05
1.17472e-05
1.15108e-05
0.000546599
0.000317745
0.000198527
0.000137106
0.000103474
8.33759e-05
7.02448e-05
6.09847e-05
5.40625e-05
4.86642e-05
4.43229e-05
4.07495e-05
3.77538e-05
3.52043e-05
3.30071e-05
3.10926e-05
2.94087e-05
2.7915e-05
2.65801e-05
2.53793e-05
2.42924e-05
2.33034e-05
2.23989e-05
2.15679e-05
2.08013e-05
2.00913e-05
1.94315e-05
1.88163e-05
1.82409e-05
1.77012e-05
1.71937e-05
1.67152e-05
1.62631e-05
1.5835e-05
1.54288e-05
1.50426e-05
1.46748e-05
1.43239e-05
1.39885e-05
1.36676e-05
1.33601e-05
1.30649e-05
1.27812e-05
1.25083e-05
1.22454e-05
1.19919e-05
1.17472e-05
1.15108e-05
0.000538002
0.000312935
0.000196093
0.000135842
0.000102765
8.294e-05
6.99521e-05
6.07737e-05
5.3902e-05
4.85375e-05
4.42199e-05
4.0664e-05
3.76815e-05
3.51425e-05
3.29535e-05
3.10457e-05
2.93672e-05
2.7878e-05
2.6547e-05
2.53494e-05
2.42653e-05
2.32787e-05
2.23762e-05
2.15471e-05
2.0782e-05
2.00735e-05
1.94149e-05
1.88008e-05
1.82264e-05
1.76876e-05
1.71809e-05
1.67032e-05
1.62518e-05
1.58243e-05
1.54186e-05
1.50329e-05
1.46656e-05
1.43151e-05
1.39802e-05
1.36596e-05
1.33524e-05
1.30575e-05
1.27742e-05
1.25016e-05
1.2239e-05
1.19857e-05
1.17412e-05
1.1505e-05
0.000521093
0.0003036
0.000191379
0.000133387
0.000101382
8.20856e-05
6.93761e-05
6.03572e-05
5.35847e-05
4.82865e-05
4.40157e-05
4.04943e-05
3.75381e-05
3.50196e-05
3.28469e-05
3.09523e-05
2.92846e-05
2.78045e-05
2.64811e-05
2.52899e-05
2.42113e-05
2.32294e-05
2.23311e-05
2.15055e-05
2.07437e-05
2.00379e-05
1.93819e-05
1.877e-05
1.81976e-05
1.76606e-05
1.71555e-05
1.66792e-05
1.62291e-05
1.58028e-05
1.53983e-05
1.50136e-05
1.46472e-05
1.42976e-05
1.39635e-05
1.36437e-05
1.33371e-05
1.30429e-05
1.27602e-05
1.24881e-05
1.2226e-05
1.19732e-05
1.17292e-05
1.14934e-05
0.000496504
0.000290307
0.000184676
0.000129876
9.93903e-05
8.08457e-05