/*--------------------------------*- C++ -*----------------------------------*\
  =========                 |
  \\      /  F ield         | OpenFOAM: The Open Source CFD Toolbox
   \\    /   O peration     | Website:  https://openfoam.org
    \\  /    A nd           | Version:  7
     \\/     M anipulation  |
\*---------------------------------------------------------------------------*/
FoamFile
{
    version     2.0;
    format      ascii;
    class       volVectorField;
    location    "164000";
    object      U;
}
// * * * * * * * * * * * * * * * * * * * * * * * * * * * * * * * * * * * * * //

dimensions      [0 1 -1 0 0 0 0];

internalField   nonuniform List<vector> 
4838
(
(1.50297e-18 -1.38285e-18 -0.0158257)
(1.60196e-18 -1.49535e-18 -0.015832)
(1.69931e-18 -1.39734e-18 -0.0158377)
(1.84357e-18 -1.20837e-18 -0.015843)
(1.89761e-18 -1.40288e-18 -0.0158477)
(1.54061e-18 -1.71116e-18 -0.0158519)
(1.02044e-18 -1.81018e-18 -0.0158557)
(8.22887e-19 -1.63613e-18 -0.015859)
(8.80621e-19 -1.22951e-18 -0.0158619)
(7.09464e-19 -8.48928e-19 -0.0158644)
(7.70708e-19 -5.27711e-19 -0.0158665)
(1.13221e-18 -6.6456e-19 -0.0158683)
(1.11884e-18 -8.98582e-19 -0.0158698)
(1.15841e-18 -9.55204e-19 -0.015871)
(2.01093e-18 -9.53815e-19 -0.0158719)
(3.04856e-18 -1.69886e-18 -0.0158727)
(2.98364e-18 -2.72216e-18 -0.0158733)
(2.32912e-18 -3.67301e-18 -0.0158738)
(1.92713e-18 -4.20969e-18 -0.0158742)
(1.40075e-18 -4.49263e-18 -0.0158745)
(5.68433e-19 -4.6173e-18 -0.0158747)
(2.80169e-19 -4.60877e-18 -0.0158748)
(2.79084e-19 -4.63177e-18 -0.015875)
(-1.30152e-19 -4.72967e-18 -0.015875)
(-6.20963e-19 -4.83321e-18 -0.0158751)
(-1.29053e-18 -4.75848e-18 -0.0158751)
(-1.91863e-18 -4.59542e-18 -0.015875)
(-2.36586e-18 -4.2221e-18 -0.015875)
(-2.8077e-18 -3.83732e-18 -0.0158748)
(-2.88363e-18 -3.42252e-18 -0.0158747)
(-3.2054e-18 -2.89059e-18 -0.0158745)
(-3.91136e-18 -2.04304e-18 -0.0158742)
(-3.91276e-18 -1.07451e-18 -0.0158738)
(-3.59714e-18 -1.36649e-19 -0.0158733)
(-3.51166e-18 4.49704e-19 -0.0158727)
(-3.21394e-18 1.05973e-18 -0.0158719)
(-2.51284e-18 1.1792e-18 -0.015871)
(-1.89517e-18 1.16741e-18 -0.0158698)
(-1.87615e-18 8.65881e-19 -0.0158683)
(-2.11731e-18 6.50408e-19 -0.0158665)
(-2.24347e-18 7.08502e-19 -0.0158644)
(-2.21654e-18 8.83251e-19 -0.0158619)
(-1.84434e-18 1.04213e-18 -0.015859)
(-1.37915e-18 7.85305e-19 -0.0158557)
(-1.62462e-18 7.28142e-19 -0.0158519)
(-1.85626e-18 8.71775e-19 -0.0158477)
(-1.34568e-18 7.53337e-19 -0.015843)
(-7.75547e-19 2.97546e-19 -0.0158377)
(-5.08288e-19 -4.76357e-20 -0.015832)
(-3.06276e-19 -3.19452e-19 -0.0158257)
(1.02547e-18 -1.37819e-18 -0.0158149)
(1.26239e-18 -1.61686e-18 -0.0158213)
(1.52354e-18 -1.63858e-18 -0.0158274)
(1.78191e-18 -1.63116e-18 -0.0158331)
(1.85862e-18 -1.80448e-18 -0.0158384)
(1.73593e-18 -2.01023e-18 -0.0158432)
(1.37257e-18 -1.96682e-18 -0.0158475)
(1.0343e-18 -1.68242e-18 -0.0158515)
(8.98045e-19 -1.36305e-18 -0.015855)
(7.37382e-19 -1.29704e-18 -0.015858)
(7.82847e-19 -9.972e-19 -0.0158607)
(1.03434e-18 -8.10923e-19 -0.0158631)
(1.00197e-18 -7.76608e-19 -0.0158651)
(9.70853e-19 -7.49122e-19 -0.0158668)
(1.44746e-18 -7.56437e-19 -0.0158682)
(2.15686e-18 -1.46669e-18 -0.0158694)
(1.98079e-18 -2.66259e-18 -0.0158704)
(1.4783e-18 -3.50717e-18 -0.0158712)
(1.62317e-18 -3.89868e-18 -0.0158718)
(1.69561e-18 -4.14633e-18 -0.0158723)
(1.16816e-18 -4.17317e-18 -0.0158727)
(6.12164e-19 -3.8891e-18 -0.015873)
(1.09154e-19 -4.04155e-18 -0.0158732)
(-6.26218e-19 -4.40237e-18 -0.0158733)
(-9.89739e-19 -4.59997e-18 -0.0158734)
(-1.32168e-18 -4.60536e-18 -0.0158734)
(-1.5981e-18 -4.18391e-18 -0.0158733)
(-1.95871e-18 -3.73339e-18 -0.0158732)
(-2.65464e-18 -3.20944e-18 -0.015873)
(-2.9298e-18 -2.67184e-18 -0.0158727)
(-3.30162e-18 -2.46338e-18 -0.0158723)
(-4.02907e-18 -1.76441e-18 -0.0158718)
(-4.31303e-18 -8.52453e-19 -0.0158712)
(-3.96793e-18 -4.78295e-19 -0.0158704)
(-3.33285e-18 -1.32844e-19 -0.0158694)
(-2.82482e-18 2.72518e-19 -0.0158682)
(-2.48572e-18 4.6499e-19 -0.0158668)
(-2.11174e-18 1.0608e-19 -0.0158651)
(-1.92562e-18 -1.00386e-19 -0.0158631)
(-1.85136e-18 -1.4735e-19 -0.0158607)
(-1.97981e-18 9.47838e-20 -0.015858)
(-2.1718e-18 3.92708e-19 -0.015855)
(-1.91574e-18 7.15414e-19 -0.0158515)
(-1.66755e-18 6.05823e-19 -0.0158475)
(-1.83891e-18 5.25982e-19 -0.0158432)
(-1.73281e-18 6.52748e-19 -0.0158384)
(-1.14179e-18 5.23319e-19 -0.0158331)
(-5.81669e-19 1.14361e-19 -0.0158274)
(-3.24775e-19 -1.02157e-19 -0.0158213)
(-2.76013e-19 -3.83455e-19 -0.0158149)
(4.51068e-19 -1.21936e-18 -0.0158021)
(8.48212e-19 -1.16549e-18 -0.0158092)
(1.19924e-18 -1.10605e-18 -0.0158158)
(1.39194e-18 -1.27521e-18 -0.0158219)
(1.50862e-18 -1.46432e-18 -0.0158277)
(1.58407e-18 -1.85823e-18 -0.0158331)
(1.55547e-18 -2.02945e-18 -0.015838)
(1.40229e-18 -1.98747e-18 -0.0158425)
(1.04846e-18 -2.023e-18 -0.0158465)
(6.84014e-19 -2.01991e-18 -0.0158502)
(7.34056e-19 -1.60128e-18 -0.0158534)
(1.08664e-18 -1.13387e-18 -0.0158563)
(1.02056e-18 -1.06029e-18 -0.0158589)
(7.23195e-19 -9.93726e-19 -0.0158611)
(8.589e-19 -9.72009e-19 -0.015863)
(1.42875e-18 -1.25976e-18 -0.0158646)
(1.51186e-18 -1.8726e-18 -0.0158659)
(1.18882e-18 -2.1207e-18 -0.0158671)
(1.44894e-18 -2.27889e-18 -0.015868)
(1.67852e-18 -2.61063e-18 -0.0158688)
(1.28272e-18 -3.07173e-18 -0.0158694)
(6.38981e-19 -3.31856e-18 -0.0158698)
(-2.89496e-19 -3.58719e-18 -0.0158702)
(-1.10108e-18 -3.61247e-18 -0.0158704)
(-1.17233e-18 -3.44559e-18 -0.0158705)
(-1.02641e-18 -3.64641e-18 -0.0158705)
(-1.20195e-18 -3.54278e-18 -0.0158704)
(-1.89466e-18 -3.57436e-18 -0.0158702)
(-2.5846e-18 -3.20421e-18 -0.0158698)
(-2.99995e-18 -2.71051e-18 -0.0158694)
(-3.52394e-18 -2.40033e-18 -0.0158688)
(-3.93093e-18 -1.82995e-18 -0.015868)
(-4.03233e-18 -8.19938e-19 -0.0158671)
(-3.78903e-18 -1.35782e-19 -0.0158659)
(-3.30493e-18 2.75939e-19 -0.0158646)
(-3.03449e-18 3.54927e-19 -0.015863)
(-2.86536e-18 3.18117e-19 -0.0158611)
(-2.3303e-18 -1.56006e-19 -0.0158589)
(-1.8985e-18 -3.01207e-19 -0.0158563)
(-1.87204e-18 -3.33105e-19 -0.0158534)
(-1.89242e-18 -3.16647e-19 -0.0158502)
(-1.64766e-18 -1.57154e-19 -0.0158465)
(-1.37795e-18 8.8173e-20 -0.0158425)
(-1.53452e-18 1.72263e-19 -0.015838)
(-1.65803e-18 3.83759e-19 -0.0158331)
(-1.37062e-18 6.0017e-19 -0.0158277)
(-8.55828e-19 4.35054e-19 -0.0158219)
(-4.2766e-19 4.35862e-20 -0.0158158)
(-3.52404e-19 -7.2281e-20 -0.0158092)
(-5.29701e-19 -3.10845e-19 -0.0158021)
(4.89947e-19 -6.7311e-19 -0.0157879)
(5.44553e-19 -5.81038e-19 -0.0157957)
(7.68621e-19 -4.31118e-19 -0.0158029)
(1.02031e-18 -5.06437e-19 -0.0158096)
(9.51705e-19 -8.01867e-19 -0.0158159)
(9.17879e-19 -1.30619e-18 -0.0158217)
(1.06369e-18 -1.65023e-18 -0.0158272)
(9.80055e-19 -2.08057e-18 -0.0158322)
(8.52677e-19 -2.37814e-18 -0.0158368)
(8.96439e-19 -2.16611e-18 -0.0158409)
(1.15059e-18 -1.60062e-18 -0.0158447)
(1.22403e-18 -1.40658e-18 -0.0158481)
(1.0535e-18 -1.65098e-18 -0.0158511)
(8.29773e-19 -1.62806e-18 -0.0158538)
(7.58526e-19 -1.27031e-18 -0.0158561)
(1.14721e-18 -1.06314e-18 -0.0158582)
(1.25782e-18 -1.19324e-18 -0.0158599)
(9.90419e-19 -1.30274e-18 -0.0158614)
(1.30834e-18 -1.34055e-18 -0.0158627)
(1.60307e-18 -1.79918e-18 -0.0158637)
(1.11314e-18 -2.38081e-18 -0.0158645)
(4.62113e-19 -2.96037e-18 -0.0158652)
(-1.06764e-19 -3.32366e-18 -0.0158656)
(-8.67976e-19 -2.91538e-18 -0.0158659)
(-1.67805e-18 -2.67466e-18 -0.0158661)
(-1.9799e-18 -2.9498e-18 -0.0158661)
(-1.79594e-18 -3.40332e-18 -0.0158659)
(-1.85344e-18 -3.63741e-18 -0.0158656)
(-2.23805e-18 -3.28302e-18 -0.0158652)
(-2.74158e-18 -2.97027e-18 -0.0158645)
(-3.2836e-18 -2.58913e-18 -0.0158637)
(-3.48897e-18 -1.9496e-18 -0.0158627)
(-3.63179e-18 -1.06428e-18 -0.0158614)
(-3.64675e-18 -3.22304e-19 -0.0158599)
(-3.30049e-18 2.02434e-19 -0.0158582)
(-3.14565e-18 4.45434e-19 -0.0158561)
(-3.10458e-18 7.15419e-19 -0.0158538)
(-2.39441e-18 6.96836e-19 -0.0158511)
(-1.69203e-18 4.9437e-19 -0.0158481)
(-1.6197e-18 5.1267e-19 -0.0158447)
(-1.45934e-18 6.23717e-19 -0.0158409)
(-1.30811e-18 7.70454e-19 -0.0158368)
(-1.43683e-18 5.22515e-19 -0.0158322)
(-1.50218e-18 2.58179e-19 -0.0158272)
(-1.27111e-18 2.45556e-19 -0.0158217)
(-1.03862e-18 2.81565e-19 -0.0158159)
(-7.52162e-19 9.00722e-20 -0.0158096)
(-3.23634e-19 -4.48728e-19 -0.0158029)
(-3.20712e-19 -5.94736e-19 -0.0157957)
(-4.66801e-19 -5.84555e-19 -0.0157879)
(5.54858e-19 -4.40371e-19 -0.0157725)
(6.48984e-19 -2.69499e-19 -0.0157809)
(6.98986e-19 -1.74483e-19 -0.0157887)
(6.81016e-19 -3.1755e-19 -0.015796)
(5.58659e-19 -5.6379e-19 -0.0158028)
(3.7005e-19 -8.19187e-19 -0.0158092)
(3.96269e-19 -1.18455e-18 -0.0158151)
(3.92504e-19 -1.3747e-18 -0.0158206)
(5.29199e-19 -1.38501e-18 -0.0158257)
(8.32078e-19 -1.25291e-18 -0.0158304)
(9.56558e-19 -1.17028e-18 -0.0158346)
(7.74015e-19 -1.52306e-18 -0.0158384)
(6.30543e-19 -1.90631e-18 -0.0158419)
(9.33528e-19 -1.95522e-18 -0.015845)
(1.16403e-18 -1.39276e-18 -0.0158478)
(1.39932e-18 -1.06781e-18 -0.0158502)
(1.41376e-18 -1.19614e-18 -0.0158523)
(1.09053e-18 -1.25446e-18 -0.0158541)
(1.13791e-18 -1.17529e-18 -0.0158557)
(1.27386e-18 -1.90335e-18 -0.015857)
(7.10572e-19 -2.62652e-18 -0.015858)
(-1.46755e-19 -3.24311e-18 -0.0158588)
(-3.46049e-19 -3.76221e-18 -0.0158595)
(-8.49305e-19 -3.82612e-18 -0.0158599)
(-1.89325e-18 -3.47699e-18 -0.01586)
(-2.3423e-18 -3.03665e-18 -0.01586)
(-2.11965e-18 -2.8498e-18 -0.0158599)
(-1.82727e-18 -2.78683e-18 -0.0158595)
(-2.12544e-18 -2.5667e-18 -0.0158588)
(-2.82576e-18 -2.39714e-18 -0.015858)
(-3.15686e-18 -2.06734e-18 -0.015857)
(-3.01182e-18 -1.59598e-18 -0.0158557)
(-3.05489e-18 -1.18881e-18 -0.0158541)
(-3.0354e-18 -5.15653e-19 -0.0158523)
(-2.84935e-18 1.82303e-19 -0.0158502)
(-2.85757e-18 8.18004e-19 -0.0158478)
(-2.62032e-18 1.42798e-18 -0.015845)
(-2.00842e-18 1.76388e-18 -0.0158419)
(-1.60841e-18 1.45141e-18 -0.0158384)
(-1.43818e-18 1.23248e-18 -0.0158346)
(-1.26633e-18 1.20744e-18 -0.0158304)
(-1.55703e-18 1.15079e-18 -0.0158257)
(-1.85672e-18 9.68044e-19 -0.0158206)
(-1.54385e-18 8.00866e-19 -0.0158151)
(-1.14421e-18 6.5414e-19 -0.0158092)
(-9.37549e-19 3.8068e-19 -0.0158028)
(-6.59698e-19 2.62644e-19 -0.015796)
(-2.46785e-19 -4.43229e-21 -0.0157887)
(-1.28187e-19 -5.55171e-19 -0.0157809)
(-2.12195e-19 -7.6179e-19 -0.0157725)
(4.22964e-19 -3.7684e-19 -0.0157559)
(5.21756e-19 -2.50396e-19 -0.0157649)
(6.09126e-19 -4.40009e-19 -0.0157733)
(6.76403e-19 -5.74899e-19 -0.0157811)
(5.08596e-19 -7.38718e-19 -0.0157885)
(9.60153e-20 -9.26928e-19 -0.0157954)
(1.1877e-19 -1.08456e-18 -0.0158018)
(2.18879e-19 -9.19284e-19 -0.0158078)
(1.87931e-19 -6.53739e-19 -0.0158134)
(4.40962e-19 -6.23859e-19 -0.0158185)
(5.96133e-19 -6.68846e-19 -0.0158232)
(2.94957e-19 -1.0331e-18 -0.0158275)
(1.49239e-19 -1.34485e-18 -0.0158314)
(8.54303e-19 -1.14534e-18 -0.0158349)
(1.38482e-18 -7.89331e-19 -0.015838)
(1.29884e-18 -8.12984e-19 -0.0158408)
(1.27522e-18 -1.40763e-18 -0.0158432)
(1.24715e-18 -1.70267e-18 -0.0158454)
(8.73763e-19 -2.00729e-18 -0.0158472)
(5.37196e-19 -2.56136e-18 -0.0158487)
(9.12125e-20 -3.09954e-18 -0.01585)
(-8.14517e-19 -3.38954e-18 -0.0158509)
(-1.02522e-18 -3.60763e-18 -0.0158517)
(-8.85207e-19 -3.80485e-18 -0.0158522)
(-1.38731e-18 -3.4378e-18 -0.0158524)
(-1.90473e-18 -2.81215e-18 -0.0158524)
(-1.7597e-18 -2.24807e-18 -0.0158522)
(-1.54016e-18 -2.03432e-18 -0.0158517)
(-1.99194e-18 -1.99413e-18 -0.0158509)
(-2.62676e-18 -1.55047e-18 -0.01585)
(-2.847e-18 -8.98449e-19 -0.0158487)
(-2.93141e-18 -4.35614e-19 -0.0158472)
(-2.93118e-18 -3.00346e-19 -0.0158454)
(-2.5371e-18 4.67591e-20 -0.0158432)
(-2.15348e-18 3.82148e-19 -0.0158408)
(-2.06348e-18 1.00202e-18 -0.015838)
(-2.12612e-18 1.62263e-18 -0.0158349)
(-2.1659e-18 1.86154e-18 -0.0158314)
(-2.05636e-18 1.58051e-18 -0.0158275)
(-1.71544e-18 1.14798e-18 -0.0158232)
(-1.57688e-18 7.11329e-19 -0.0158185)
(-1.83094e-18 5.18963e-19 -0.0158134)
(-1.67069e-18 5.59972e-19 -0.0158078)
(-1.18869e-18 5.44357e-19 -0.0158018)
(-1.02268e-18 5.10373e-19 -0.0157954)
(-7.86614e-19 4.40444e-19 -0.0157885)
(-2.36904e-19 3.29374e-19 -0.0157811)
(-1.00541e-19 3.73108e-19 -0.0157733)
(-3.934e-19 2.91957e-20 -0.0157649)
(-4.78362e-19 -5.29269e-19 -0.0157559)
(2.99228e-19 1.38732e-19 -0.0157382)
(2.83643e-19 1.11391e-19 -0.0157478)
(2.1132e-19 -2.35622e-19 -0.0157567)
(3.62387e-19 -4.29484e-19 -0.0157651)
(4.52352e-19 -8.13458e-19 -0.015773)
(2.16746e-20 -1.04718e-18 -0.0157804)
(-5.85956e-20 -9.66895e-19 -0.0157874)
(3.15858e-19 -8.79095e-19 -0.0157938)
(2.68266e-19 -8.18666e-19 -0.0157998)
(2.65315e-19 -6.69488e-19 -0.0158054)
(3.05812e-19 -5.01127e-19 -0.0158105)
(-1.1573e-19 -5.45889e-19 -0.0158152)
(-1.50705e-19 -4.99055e-19 -0.0158195)
(7.91167e-19 -1.30802e-20 -0.0158234)
(1.33201e-18 -1.22193e-20 -0.0158269)
(8.4517e-19 -4.43465e-19 -0.01583)
(5.86914e-19 -1.30719e-18 -0.0158327)
(6.42056e-19 -1.90749e-18 -0.0158351)
(5.51991e-19 -2.5716e-18 -0.0158372)
(4.59122e-19 -2.84989e-18 -0.015839)
(2.01722e-20 -3.16539e-18 -0.0158404)
(-9.05256e-19 -3.05329e-18 -0.0158415)
(-1.16887e-18 -2.546e-18 -0.0158424)
(-9.85865e-19 -2.25854e-18 -0.015843)
(-1.30207e-18 -2.36156e-18 -0.0158432)
(-1.59002e-18 -2.17488e-18 -0.0158432)
(-1.54324e-18 -1.67631e-18 -0.015843)
(-1.61174e-18 -1.54332e-18 -0.0158424)
(-1.76793e-18 -1.53283e-18 -0.0158415)
(-1.96825e-18 -9.26993e-19 -0.0158404)
(-2.31817e-18 -2.50954e-19 -0.015839)
(-2.69744e-18 1.62732e-19 -0.0158372)
(-2.74949e-18 3.7212e-19 -0.0158351)
(-2.34374e-18 5.83827e-19 -0.0158327)
(-1.90734e-18 6.02118e-19 -0.01583)
(-1.82033e-18 8.55689e-19 -0.0158269)
(-2.1331e-18 9.10684e-19 -0.0158234)
(-2.34319e-18 1.12943e-18 -0.0158195)
(-2.34622e-18 1.10472e-18 -0.0158152)
(-2.1083e-18 1.10898e-18 -0.0158105)
(-1.89317e-18 5.58677e-19 -0.0158054)
(-1.70443e-18 3.34643e-19 -0.0157998)
(-1.40561e-18 3.92455e-19 -0.0157938)
(-1.10646e-18 2.3452e-19 -0.0157874)
(-8.63918e-19 -4.52107e-20 -0.0157804)
(-3.87551e-19 1.57773e-20 -0.015773)
(7.82123e-21 8.05253e-20 -0.0157651)
(-2.5319e-19 1.58627e-19 -0.0157567)
(-7.1875e-19 5.43833e-20 -0.0157478)
(-5.58637e-19 -5.13395e-19 -0.0157382)
(1.33998e-19 6.00272e-19 -0.0157196)
(-3.52298e-21 4.62089e-19 -0.0157296)
(-1.13751e-19 2.73792e-20 -0.0157391)
(-1.68974e-19 -3.31658e-19 -0.015748)
(-1.62324e-20 -7.41725e-19 -0.0157564)
(-7.71647e-20 -6.36495e-19 -0.0157643)
(-3.16465e-19 -4.65505e-19 -0.0157717)
(-1.90467e-19 -5.49683e-19 -0.0157786)
(1.14904e-19 -7.27118e-19 -0.0157851)
(4.47695e-19 -5.91448e-19 -0.0157911)
(5.90191e-19 -6.24459e-19 -0.0157966)
(6.2948e-20 -4.73264e-19 -0.0158017)
(-1.70087e-19 3.85796e-20 -0.0158064)
(5.71931e-19 3.34763e-19 -0.0158106)
(9.89481e-19 -1.85519e-19 -0.0158144)
(2.42821e-19 -6.53476e-19 -0.0158179)
(-1.97453e-19 -1.03266e-18 -0.0158209)
(-5.30553e-20 -1.38581e-18 -0.0158236)
(-7.50368e-20 -1.78716e-18 -0.0158259)
(-3.04227e-20 -2.1335e-18 -0.0158279)
(-6.77238e-20 -2.51572e-18 -0.0158295)
(-3.72585e-19 -2.35133e-18 -0.0158307)
(-5.26416e-19 -1.84484e-18 -0.0158317)
(-9.522e-19 -1.52401e-18 -0.0158323)
(-1.6233e-18 -1.61736e-18 -0.0158326)
(-1.51438e-18 -1.60598e-18 -0.0158326)
(-1.24345e-18 -1.22282e-18 -0.0158323)
(-1.40021e-18 -1.00932e-18 -0.0158317)
(-1.37998e-18 -8.07808e-19 -0.0158307)
(-1.46968e-18 -3.82752e-19 -0.0158295)
(-2.07642e-18 -8.54797e-21 -0.0158279)
(-2.72193e-18 9.16378e-20 -0.0158259)
(-2.73937e-18 3.52763e-19 -0.0158236)
(-2.25265e-18 6.22408e-19 -0.0158209)
(-1.79056e-18 6.3368e-19 -0.0158179)
(-1.93059e-18 6.12273e-19 -0.0158144)
(-2.23488e-18 5.02966e-19 -0.0158106)
(-2.28313e-18 6.87453e-19 -0.0158064)
(-2.14729e-18 8.49436e-19 -0.0158017)
(-1.99167e-18 1.17164e-18 -0.0157966)
(-1.98317e-18 9.95798e-19 -0.0157911)
(-1.56486e-18 9.53588e-19 -0.0157851)
(-1.22441e-18 9.65596e-19 -0.0157786)
(-1.03348e-18 6.76122e-19 -0.0157717)
(-5.99598e-19 1.42402e-19 -0.0157643)
(1.71051e-20 -2.54474e-19 -0.0157564)
(1.30563e-19 -4.10403e-19 -0.015748)
(-4.59086e-19 -1.87596e-19 -0.0157391)
(-9.75117e-19 -8.61162e-20 -0.0157296)
(-6.30904e-19 -2.66514e-19 -0.0157196)
(3.18482e-19 2.48469e-19 -0.0156999)
(-1.45722e-19 -6.10365e-20 -0.0157104)
(-4.10986e-19 -6.36813e-19 -0.0157204)
(-4.45624e-19 -7.51511e-19 -0.0157298)
(-1.11612e-19 -5.31895e-19 -0.0157387)
(4.65093e-20 -4.36053e-19 -0.0157471)
(-2.41834e-19 -7.28887e-19 -0.015755)
(-4.25826e-19 -5.60947e-19 -0.0157623)
(-3.43929e-19 -5.65377e-19 -0.0157692)
(-4.26057e-20 -8.15644e-19 -0.0157756)
(4.71152e-19 -1.06472e-18 -0.0157816)
(5.88048e-19 -7.76521e-19 -0.015787)
(1.15848e-19 -1.84035e-19 -0.0157921)
(5.3569e-20 -1.42798e-19 -0.0157966)
(5.18195e-19 -6.19795e-19 -0.0158008)
(2.56491e-19 -7.71647e-19 -0.0158045)
(-3.4282e-19 -5.9773e-19 -0.0158078)
(-4.16276e-19 -8.02209e-19 -0.0158108)
(-4.67418e-19 -8.38324e-19 -0.0158133)
(-5.05025e-19 -8.28652e-19 -0.0158154)
(-3.83936e-19 -1.10142e-18 -0.0158172)
(-4.83111e-19 -1.0958e-18 -0.0158186)
(-5.49037e-19 -1.14686e-18 -0.0158197)
(-9.09581e-19 -1.12819e-18 -0.0158204)
(-1.63229e-18 -1.00514e-18 -0.0158207)
(-1.38368e-18 -9.00316e-19 -0.0158207)
(-9.89425e-19 -6.7987e-19 -0.0158204)
(-1.18788e-18 -4.61184e-19 -0.0158197)
(-1.08902e-18 -3.02276e-19 -0.0158186)
(-1.26674e-18 -4.13994e-19 -0.0158172)
(-2.24037e-18 -3.18947e-19 -0.0158154)
(-2.78198e-18 -4.80732e-20 -0.0158133)
(-2.35248e-18 4.52257e-19 -0.0158108)
(-1.89095e-18 7.6899e-19 -0.0158078)
(-1.76976e-18 7.88466e-19 -0.0158045)
(-2.0461e-18 5.83334e-19 -0.0158008)
(-2.17561e-18 5.98839e-19 -0.0157966)
(-2.07884e-18 7.3842e-19 -0.0157921)
(-1.87494e-18 1.00537e-18 -0.015787)
(-1.93315e-18 1.14779e-18 -0.0157816)
(-1.79586e-18 1.17165e-18 -0.0157756)
(-1.15296e-18 1.22289e-18 -0.0157692)
(-1.10656e-18 1.25434e-18 -0.0157623)
(-1.136e-18 1.12384e-18 -0.015755)
(-6.633e-19 6.9769e-19 -0.0157471)
(-1.09602e-19 -5.71198e-20 -0.0157387)
(-9.65433e-20 -7.38284e-19 -0.0157298)
(-7.09118e-19 -7.58e-19 -0.0157204)
(-9.29838e-19 -5.47813e-19 -0.0157104)
(-4.01585e-19 -3.97016e-19 -0.0156999)
(4.94483e-19 -3.6094e-19 -0.0156793)
(-5.67938e-20 -9.48671e-19 -0.0156903)
(-4.45005e-19 -1.06755e-18 -0.0157007)
(-4.30071e-19 -7.4066e-19 -0.0157106)
(-3.41148e-19 -4.6645e-19 -0.01572)
(-3.46132e-19 -9.02265e-19 -0.0157288)
(-2.48926e-19 -1.3233e-18 -0.0157371)
(-1.56261e-19 -9.75356e-19 -0.0157449)
(-4.82197e-19 -8.38269e-19 -0.0157522)
(-4.97169e-19 -7.97722e-19 -0.015759)
(2.28801e-19 -5.8198e-19 -0.0157654)
(8.21622e-19 -2.95135e-19 -0.0157712)
(4.65412e-19 -2.16704e-19 -0.0157766)
(1.72622e-20 -2.56486e-19 -0.0157815)
(3.31849e-19 -4.36097e-19 -0.0157859)
(3.16794e-19 -4.26617e-19 -0.01579)
(-4.26873e-19 -2.36448e-19 -0.0157935)
(-6.24093e-19 -6.48532e-19 -0.0157967)
(-4.35732e-19 -6.68795e-19 -0.0157994)
(-6.13961e-19 -5.88573e-19 -0.0158018)
(-6.07735e-19 -6.18924e-19 -0.0158037)
(-6.57352e-19 -3.48151e-19 -0.0158052)
(-7.32444e-19 -2.25572e-19 -0.0158064)
(-9.92697e-19 -3.45928e-19 -0.0158071)
(-1.6954e-18 -2.57505e-19 -0.0158075)
(-1.37023e-18 -1.04531e-19 -0.0158075)
(-8.20695e-19 -1.02118e-19 -0.0158071)
(-1.00112e-18 1.24334e-20 -0.0158064)
(-1.26837e-18 5.55998e-20 -0.0158052)
(-1.61321e-18 -4.24438e-19 -0.0158037)
(-2.08991e-18 -4.57261e-19 -0.0158018)
(-2.18644e-18 3.39931e-19 -0.0157994)
(-1.88759e-18 8.43583e-19 -0.0157967)
(-1.80882e-18 9.68104e-19 -0.0157935)
(-1.9525e-18 8.87752e-19 -0.01579)
(-2.21591e-18 7.34606e-19 -0.0157859)
(-2.08851e-18 9.35092e-19 -0.0157815)
(-1.81545e-18 1.05835e-18 -0.0157766)
(-1.72586e-18 1.32189e-18 -0.0157712)
(-1.88397e-18 1.07224e-18 -0.0157654)
(-1.58036e-18 1.08894e-18 -0.015759)
(-1.10943e-18 1.03401e-18 -0.0157522)
(-1.23522e-18 8.44844e-19 -0.0157449)
(-1.1674e-18 5.44123e-19 -0.0157371)
(-7.56926e-19 2.79217e-19 -0.0157288)
(-4.79809e-19 -2.023e-19 -0.01572)
(-5.10186e-19 -5.94126e-19 -0.0157106)
(-7.6337e-19 -7.51514e-19 -0.0157007)
(-5.0906e-19 -6.35938e-19 -0.0156903)
(-1.57815e-20 -6.94163e-19 -0.0156793)
(2.53395e-19 -3.40072e-19 -0.0156578)
(2.46053e-20 -1.06799e-18 -0.0156693)
(-2.5889e-19 -8.53317e-19 -0.0156801)
(-3.72693e-19 -5.93214e-19 -0.0156905)
(-5.80115e-19 -3.06811e-19 -0.0157003)
(-8.6763e-19 -6.06787e-19 -0.0157095)
(-6.64881e-19 -6.3422e-19 -0.0157183)
(-1.437e-19 -6.93277e-19 -0.0157265)
(-2.78297e-19 -5.7445e-19 -0.0157342)
(-4.45308e-19 -1.17794e-19 -0.0157414)
(4.93657e-20 3.66989e-19 -0.0157481)
(5.97452e-19 5.18493e-19 -0.0157543)
(3.17591e-19 2.04297e-19 -0.01576)
(-1.82412e-19 -1.14927e-19 -0.0157652)
(2.16536e-19 -3.43675e-19 -0.0157699)
(5.52455e-19 -5.51746e-19 -0.0157742)
(-5.16639e-19 -5.76998e-19 -0.0157781)
(-1.02879e-18 -9.63623e-19 -0.0157814)
(-6.24787e-19 -8.5534e-19 -0.0157844)
(-6.19085e-19 -8.67516e-19 -0.0157869)
(-3.1671e-19 -7.00281e-19 -0.015789)
(-2.46597e-19 -3.87857e-19 -0.0157906)
(-6.76375e-19 2.42065e-20 -0.0157919)
(-1.09893e-18 -2.79535e-19 -0.0157927)
(-1.67178e-18 -2.98602e-19 -0.0157931)
(-1.37911e-18 7.84024e-20 -0.0157931)
(-8.55639e-19 1.6554e-19 -0.0157927)
(-1.03853e-18 1.05129e-19 -0.0157919)
(-1.52947e-18 -1.68885e-19 -0.0157906)
(-1.85572e-18 -5.67387e-19 -0.015789)
(-1.73622e-18 -5.83511e-19 -0.0157869)
(-1.70456e-18 -3.03669e-20 -0.0157844)
(-1.8285e-18 2.75795e-19 -0.0157814)
(-1.94131e-18 5.2851e-19 -0.0157781)
(-2.1262e-18 6.55824e-19 -0.0157742)
(-2.10108e-18 7.22352e-19 -0.0157699)
(-1.77066e-18 1.25045e-18 -0.0157652)
(-1.59845e-18 1.30899e-18 -0.01576)
(-1.88962e-18 1.37019e-18 -0.0157543)
(-2.14698e-18 1.0887e-18 -0.0157481)
(-1.53107e-18 9.95548e-19 -0.0157414)
(-1.1923e-18 8.31769e-19 -0.0157342)
(-1.51489e-18 8.75002e-19 -0.0157265)
(-1.3489e-18 5.85889e-19 -0.0157183)
(-8.35517e-19 4.67603e-20 -0.0157095)
(-4.76968e-19 -5.07939e-19 -0.0157003)
(-3.73587e-19 -6.30934e-19 -0.0156905)
(-4.49448e-19 -4.62656e-19 -0.0156801)
(-1.71264e-19 -3.98176e-19 -0.0156693)
(2.51422e-19 -7.15001e-19 -0.0156578)
(-1.93026e-19 -2.61489e-19 -0.0156354)
(-2.78416e-19 -7.86629e-19 -0.0156473)
(-2.70615e-19 -5.0623e-19 -0.0156586)
(-1.29262e-19 -5.76854e-19 -0.0156694)
(-3.23802e-19 -4.40826e-19 -0.0156796)
(-8.18372e-19 -7.57336e-19 -0.0156893)
(-1.06791e-18 -5.50127e-19 -0.0156985)
(-5.39546e-19 -6.83822e-19 -0.0157071)
(-1.64619e-19 -4.03003e-19 -0.0157151)
(-1.65092e-19 -2.60629e-20 -0.0157227)
(1.32277e-19 4.60615e-19 -0.0157298)
(5.07217e-19 5.60463e-19 -0.0157363)
(1.41675e-19 1.80582e-19 -0.0157423)
(-4.65553e-19 -3.43586e-19 -0.0157478)
(-2.69396e-19 -4.26971e-19 -0.0157529)
(3.31007e-19 -7.69863e-19 -0.0157574)
(-4.77936e-19 -1.11627e-18 -0.0157615)
(-1.01727e-18 -1.00365e-18 -0.0157651)
(-5.93844e-19 -4.98768e-19 -0.0157682)
(-6.49643e-19 -5.3252e-19 -0.0157709)
(-3.00855e-19 -4.24854e-19 -0.0157731)
(1.72362e-20 -6.04519e-19 -0.0157749)
(-6.21887e-19 -3.73281e-19 -0.0157762)
(-1.36748e-18 -6.49497e-19 -0.0157771)
(-1.56088e-18 -7.77496e-19 -0.0157775)
(-1.03528e-18 -3.47116e-19 -0.0157775)
(-7.46882e-19 4.84911e-20 -0.0157771)
(-1.32496e-18 -6.86492e-20 -0.0157762)
(-1.99343e-18 -3.58059e-19 -0.0157749)
(-2.07105e-18 -5.54832e-19 -0.0157731)
(-1.69405e-18 -8.89118e-19 -0.0157709)
(-1.63022e-18 -1.08042e-18 -0.0157682)
(-1.64424e-18 -7.93862e-19 -0.0157651)
(-1.72709e-18 -3.1174e-19 -0.0157615)
(-1.97444e-18 1.38077e-19 -0.0157574)
(-1.77661e-18 1.59044e-19 -0.0157529)
(-1.55447e-18 7.06903e-19 -0.0157478)
(-1.84965e-18 8.48461e-19 -0.0157423)
(-2.29309e-18 6.33104e-19 -0.0157363)
(-2.19467e-18 6.97297e-19 -0.0157298)
(-1.48317e-18 5.90232e-19 -0.0157227)
(-1.26238e-18 3.52683e-19 -0.0157151)
(-1.38742e-18 1.02749e-18 -0.0157071)
(-1.25159e-18 1.11304e-18 -0.0156985)
(-9.06738e-19 5.01553e-19 -0.0156893)
(-4.70244e-19 -1.39764e-19 -0.0156796)
(-1.72525e-19 -4.48605e-19 -0.0156694)
(-1.19754e-19 -2.46351e-19 -0.0156586)
(1.11618e-19 -2.11176e-19 -0.0156473)
(3.64221e-19 -4.88907e-19 -0.0156354)
(-4.97465e-19 -2.09814e-19 -0.0156123)
(-5.11637e-19 -1.36063e-19 -0.0156246)
(-6.07351e-19 -1.18524e-19 -0.0156363)
(-5.34266e-19 -4.05574e-19 -0.0156475)
(-4.49381e-19 -7.20477e-19 -0.0156581)
(-6.4439e-19 -1.28729e-18 -0.0156682)
(-8.84812e-19 -1.00829e-18 -0.0156777)
(-6.25911e-19 -6.37738e-19 -0.0156867)
(-1.38586e-19 -2.92784e-19 -0.0156951)
(1.86405e-20 -1.80201e-19 -0.015703)
(3.13328e-19 5.27553e-20 -0.0157104)
(5.26784e-19 -3.17529e-20 -0.0157173)
(1.87142e-20 -5.22781e-19 -0.0157236)
(-5.28458e-19 -8.35897e-19 -0.0157294)
(-3.63311e-19 -5.24149e-19 -0.0157347)
(1.851e-20 -4.84755e-19 -0.0157395)
(-4.95937e-19 -9.61102e-19 -0.0157438)
(-6.94018e-19 -6.22124e-19 -0.0157476)
(-4.54533e-19 -2.34123e-19 -0.0157509)
(-7.10934e-19 -2.92916e-19 -0.0157538)
(-4.90518e-19 -1.0096e-19 -0.0157561)
(-1.25133e-19 -3.5619e-19 -0.015758)
(-6.16823e-19 -6.22027e-19 -0.0157594)
(-1.5134e-18 -5.81185e-19 -0.0157603)
(-1.55439e-18 -4.49117e-19 -0.0157608)
(-6.92381e-19 -3.66758e-19 -0.0157608)
(-5.80908e-19 -1.52025e-19 -0.0157603)
(-1.47769e-18 -2.17559e-19 -0.0157594)
(-2.10013e-18 -2.35765e-19 -0.015758)
(-2.34768e-18 3.08828e-22 -0.0157561)
(-2.16776e-18 -4.22336e-19 -0.0157538)
(-1.69795e-18 -8.92977e-19 -0.0157509)
(-1.30388e-18 -8.79419e-19 -0.0157476)
(-1.37724e-18 -6.982e-19 -0.0157438)
(-1.88397e-18 -2.2939e-19 -0.0157395)
(-1.68798e-18 -1.85431e-19 -0.0157347)
(-1.43157e-18 1.37924e-19 -0.0157294)
(-2.09932e-18 3.29327e-19 -0.0157236)
(-2.4273e-18 1.38668e-19 -0.0157173)
(-2.07418e-18 4.2907e-19 -0.0157104)
(-1.51122e-18 4.4705e-19 -0.015703)
(-9.36242e-19 -9.31578e-20 -0.0156951)
(-9.20914e-19 7.0287e-19 -0.0156867)
(-1.35133e-18 1.01273e-18 -0.0156777)
(-1.05342e-18 7.01029e-19 -0.0156682)
(-3.32695e-19 3.20889e-19 -0.0156581)
(1.52957e-19 -9.23324e-21 -0.0156475)
(2.26293e-19 -1.72824e-20 -0.0156363)
(2.87106e-19 -9.63065e-20 -0.0156246)
(1.9745e-19 -3.99334e-19 -0.0156123)
(-5.47873e-19 8.37082e-20 -0.0155883)
(-6.09183e-19 1.68421e-19 -0.015601)
(-7.48641e-19 -3.25803e-20 -0.0156131)
(-9.3783e-19 -7.25197e-20 -0.0156247)
(-9.96509e-19 -6.94508e-19 -0.0156357)
(-9.65408e-19 -1.04187e-18 -0.0156461)
(-7.73933e-19 -8.49908e-19 -0.015656)
(-6.58582e-19 -1.07212e-19 -0.0156654)
(-3.39969e-19 1.9063e-19 -0.0156742)
(-1.84286e-19 1.32151e-19 -0.0156824)
(1.53464e-19 -3.55776e-20 -0.0156901)
(3.76151e-19 -4.5915e-19 -0.0156973)
(4.33442e-20 -1.18018e-18 -0.0157039)
(-3.58646e-19 -9.30629e-19 -0.01571)
(-2.11185e-19 -2.66979e-19 -0.0157156)
(-7.64972e-20 -1.78164e-19 -0.0157206)
(-5.68683e-19 -7.48683e-19 -0.0157251)
(-6.0387e-19 -5.44576e-19 -0.0157291)
(-4.07665e-19 -3.36833e-19 -0.0157326)
(-5.90477e-19 -3.75779e-19 -0.0157356)
(-4.11675e-19 -2.08648e-19 -0.0157381)
(-3.43123e-19 -3.9758e-19 -0.0157401)
(-7.06373e-19 -7.89771e-19 -0.0157416)
(-1.28381e-18 -6.96645e-19 -0.0157425)
(-1.49282e-18 -1.8692e-19 -0.015743)
(-7.58569e-19 -9.73205e-20 -0.015743)
(-5.946e-19 -3.81271e-19 -0.0157425)
(-1.53034e-18 -5.53022e-19 -0.0157416)
(-2.02672e-18 -6.01274e-19 -0.0157401)
(-2.35102e-18 -1.14461e-19 -0.0157381)
(-2.37119e-18 -8.34823e-20 -0.0157356)
(-1.8093e-18 -2.09649e-19 -0.0157326)
(-1.34938e-18 -3.4497e-19 -0.0157291)
(-1.34567e-18 -6.8701e-19 -0.0157251)
(-1.73197e-18 -4.8553e-19 -0.0157206)
(-1.44036e-18 -3.3945e-19 -0.0157156)
(-1.3811e-18 -1.05744e-19 -0.01571)
(-2.34084e-18 2.27722e-20 -0.0157039)
(-2.3604e-18 2.69459e-19 -0.0156973)
(-1.72227e-18 4.8638e-19 -0.0156901)
(-1.34856e-18 7.72085e-19 -0.0156824)
(-7.71253e-19 1.60168e-19 -0.0156742)
(-8.62291e-19 2.52016e-19 -0.0156654)
(-1.33647e-18 8.0747e-19 -0.015656)
(-7.38449e-19 7.26919e-19 -0.0156461)
(4.83841e-20 5.93481e-19 -0.0156357)
(3.69386e-19 3.78393e-19 -0.0156247)
(2.66589e-19 1.97991e-19 -0.0156131)
(1.0777e-19 -1.62429e-19 -0.015601)
(6.184e-20 -5.40009e-19 -0.0155883)
(-5.57618e-19 1.00678e-19 -0.0155636)
(-6.48666e-19 2.43241e-20 -0.0155767)
(-7.58895e-19 -6.32938e-20 -0.0155891)
(-1.08935e-18 -1.57129e-19 -0.0156011)
(-1.27158e-18 -7.24223e-19 -0.0156124)
(-1.25596e-18 -6.35791e-19 -0.0156232)
(-7.71337e-19 -3.10989e-19 -0.0156335)
(-4.66887e-19 3.04236e-19 -0.0156432)
(-4.12533e-19 4.15391e-19 -0.0156523)
(-5.40649e-19 5.36777e-19 -0.0156609)
(-3.96718e-19 3.74988e-19 -0.0156689)
(-2.37197e-19 -3.33887e-19 -0.0156764)
(-8.76322e-20 -9.75258e-19 -0.0156833)
(7.93338e-20 -3.54144e-19 -0.0156897)
(-1.99806e-20 3.20609e-19 -0.0156955)
(-3.70433e-19 9.90201e-20 -0.0157007)
(-8.10613e-19 -4.29286e-19 -0.0157055)
(-5.17243e-19 -2.74452e-19 -0.0157097)
(-3.78034e-19 -1.28281e-19 -0.0157133)
(-6.34136e-19 -3.07373e-19 -0.0157164)
(-4.9433e-19 -3.5847e-19 -0.015719)
(-4.93287e-19 -5.76914e-19 -0.0157211)
(-7.9099e-19 -6.96599e-19 -0.0157227)
(-1.07189e-18 -9.89208e-19 -0.0157237)
(-1.14326e-18 -6.11683e-19 -0.0157242)
(-7.94229e-19 -8.48991e-20 -0.0157242)
(-9.18634e-19 -4.55142e-19 -0.0157237)
(-1.80614e-18 -9.61535e-19 -0.0157227)
(-1.97582e-18 -8.88254e-19 -0.0157211)
(-2.16785e-18 -5.91927e-19 -0.015719)
(-2.31081e-18 -4.50105e-19 -0.0157164)
(-1.75567e-18 -3.73481e-19 -0.0157133)
(-1.52858e-18 -4.24119e-19 -0.0157097)
(-1.55575e-18 -8.62461e-19 -0.0157055)
(-1.69248e-18 -6.26506e-19 -0.0157007)
(-1.34506e-18 -5.66654e-19 -0.0156955)
(-1.50974e-18 -7.41329e-19 -0.0156897)
(-2.30625e-18 -4.87107e-19 -0.0156833)
(-1.96825e-18 1.56834e-19 -0.0156764)
(-1.33204e-18 6.71833e-19 -0.0156689)
(-1.23046e-18 9.67668e-19 -0.0156609)
(-8.55013e-19 5.23999e-19 -0.0156523)
(-7.75489e-19 -2.4269e-20 -0.0156432)
(-9.96468e-19 6.85481e-19 -0.0156335)
(-4.02276e-19 9.02243e-19 -0.0156232)
(2.32908e-19 5.71905e-19 -0.0156124)
(3.17636e-19 2.7787e-19 -0.0156011)
(-1.31811e-20 3.8545e-20 -0.0155891)
(-1.51275e-19 -3.90831e-19 -0.0155767)
(7.31949e-20 -6.46937e-19 -0.0155636)
(-6.00313e-19 1.28667e-19 -0.0155381)
(-6.77234e-19 3.5718e-20 -0.0155516)
(-7.5909e-19 -9.26301e-20 -0.0155644)
(-1.22291e-18 -2.33679e-19 -0.0155767)
(-1.50453e-18 -4.5186e-19 -0.0155884)
(-1.42683e-18 -2.21208e-20 -0.0155996)
(-1.01384e-18 4.58822e-19 -0.0156102)
(-5.39939e-19 3.44882e-19 -0.0156202)
(-3.00558e-19 4.9604e-19 -0.0156296)
(-4.12858e-19 7.2631e-19 -0.0156385)
(-7.47456e-19 6.07701e-19 -0.0156468)
(-8.37868e-19 7.21671e-20 -0.0156546)
(-3.37174e-19 3.48023e-20 -0.0156618)
(2.87443e-19 5.77735e-19 -0.0156684)
(8.13913e-20 7.07723e-19 -0.0156744)
(-5.25166e-19 1.03747e-19 -0.0156799)
(-9.57901e-19 -1.88513e-19 -0.0156849)
(-5.80469e-19 1.40114e-19 -0.0156892)
(-4.88787e-19 7.61135e-20 -0.015693)