/*--------------------------------*- C++ -*----------------------------------*\
  =========                 |
  \\      /  F ield         | OpenFOAM: The Open Source CFD Toolbox
   \\    /   O peration     | Website:  https://openfoam.org
    \\  /    A nd           | Version:  7
     \\/     M anipulation  |
\*---------------------------------------------------------------------------*/
FoamFile
{
    version     2.0;
    format      ascii;
    class       volVectorField;
    location    "164000";
    object      vorticity;
}
// * * * * * * * * * * * * * * * * * * * * * * * * * * * * * * * * * * * * * //

dimensions      [0 0 -1 0 0 0 0];

internalField   nonuniform List<vector> 
4838
(
(0.00179557 0.000819666 5.12743e-17)
(0.00110988 0.00150205 1.34396e-18)
(0.00114303 0.00138021 -2.01419e-18)
(0.00114188 0.00125283 3.69154e-18)
(0.00111976 0.00112651 2.23445e-17)
(0.00108267 0.00100495 3.94537e-17)
(0.00103464 0.000889164 5.62281e-17)
(0.000978289 0.000779514 6.77769e-17)
(0.000915504 0.000676274 7.29651e-17)
(0.000847913 0.000579795 6.18988e-17)
(0.000777207 0.000490575 2.95234e-17)
(0.000705304 0.000409254 -1.06832e-18)
(0.000634344 0.000336522 7.21249e-18)
(0.000566528 0.000272926 -1.80851e-18)
(0.000503826 0.000218668 -7.93876e-17)
(0.000447729 0.000173467 -1.55649e-16)
(0.000399061 0.000136558 -1.21154e-16)
(0.000357958 0.000106838 -5.7654e-17)
(0.000324284 8.30617e-05 -4.68088e-17)
(0.00029746 6.39172e-05 -4.71375e-17)
(0.000276631 4.81673e-05 -2.23072e-17)
(0.000260853 3.49742e-05 -8.72848e-18)
(0.000249619 2.3733e-05 -2.63769e-18)
(0.000242457 1.378e-05 2.00383e-17)
(0.000238979 4.52112e-06 2.94713e-17)
(0.000238979 -4.52126e-06 3.98978e-17)
(0.000242457 -1.37802e-05 5.05453e-17)
(0.000249619 -2.37331e-05 6.64094e-17)
(0.000260853 -3.49742e-05 9.80445e-17)
(0.000276631 -4.81673e-05 1.08274e-16)
(0.000297459 -6.39171e-05 1.38852e-16)
(0.000324283 -8.30615e-05 2.10578e-16)
(0.000357957 -0.000106838 2.48434e-16)
(0.00039906 -0.000136557 2.0949e-16)
(0.000447727 -0.000173466 1.58212e-16)
(0.000503825 -0.000218667 1.23222e-16)
(0.000566526 -0.000272925 9.08963e-17)
(0.000634343 -0.000336521 3.61989e-17)
(0.000705303 -0.000409253 -3.62984e-18)
(0.000777206 -0.000490573 -6.75282e-18)
(0.000847912 -0.000579794 1.52818e-17)
(0.000915503 -0.000676273 3.95093e-17)
(0.000978288 -0.000779512 3.72793e-17)
(0.00103464 -0.000889163 1.92963e-17)
(0.00108267 -0.00100495 1.07294e-18)
(0.00111976 -0.0011265 -5.41378e-18)
(0.00114188 -0.00125283 -4.05368e-18)
(0.00114303 -0.00138021 -1.37437e-17)
(0.00110988 -0.00150205 -3.15681e-17)
(0.00179557 -0.000819665 -3.42179e-17)
(0.00240504 0.000915586 4.94081e-17)
(0.00159489 0.00158456 1.10129e-17)
(0.00154815 0.0014962 6.20412e-18)
(0.00150176 0.00139249 2.93507e-18)
(0.00145104 0.00127856 3.84332e-18)
(0.00139384 0.00116211 1.47997e-17)
(0.00133086 0.00104737 3.23543e-17)
(0.00126339 0.00093653 4.27221e-17)
(0.00119266 0.000830713 4.95906e-17)
(0.00111969 0.000730561 5.7541e-17)
(0.00104544 0.000636512 4.86675e-17)
(0.000970876 0.000548952 2.01932e-17)
(0.000897088 0.000468283 2.03685e-17)
(0.000825304 0.00039491 2.71705e-17)
(0.000756842 0.000329167 -1.89797e-17)
(0.000692982 0.00027121 -9.26248e-17)
(0.000634829 0.000220925 -8.57819e-17)
(0.000583189 0.00017787 -3.36735e-17)
(0.000538532 0.00014135 -4.00959e-17)
(0.000501002 0.000110499 -5.20181e-17)
(0.000470441 8.43386e-05 -1.82305e-17)
(0.000446502 6.18872e-05 -4.36624e-18)
(0.000428892 4.22451e-05 6.57171e-19)
(0.000417347 2.45749e-05 2.69772e-17)
(0.000411641 8.06461e-06 2.61084e-17)
(0.000411641 -8.06459e-06 2.40094e-17)
(0.000417347 -2.45748e-05 3.53463e-17)
(0.000428891 -4.22451e-05 6.36335e-17)
(0.000446501 -6.18871e-05 9.42838e-17)
(0.000470441 -8.43383e-05 8.8558e-17)
(0.000501001 -0.000110499 1.14484e-16)
(0.000538531 -0.00014135 1.68618e-16)
(0.000583188 -0.00017787 1.64208e-16)
(0.000634827 -0.000220924 1.31856e-16)
(0.000692981 -0.000271209 1.07718e-16)
(0.00075684 -0.000329166 8.47975e-17)
(0.000825303 -0.000394909 4.33864e-17)
(0.000897087 -0.000468282 -1.67554e-18)
(0.000970875 -0.000548951 -1.78127e-17)
(0.00104544 -0.000636511 -7.73409e-18)
(0.00111969 -0.00073056 4.64631e-18)
(0.00119266 -0.000830712 1.25437e-17)
(0.00126339 -0.000936529 4.11597e-18)
(0.00133086 -0.00104737 -4.18011e-18)
(0.00139384 -0.00116211 2.13113e-18)
(0.00145103 -0.00127855 2.19748e-18)
(0.00150176 -0.00139249 -1.78719e-17)
(0.00154815 -0.0014962 -3.79807e-17)
(0.00159489 -0.00158456 -4.5331e-17)
(0.00240504 -0.000915585 -3.85381e-17)
(0.00274938 0.00109028 2.99927e-17)
(0.00185475 0.0017605 1.68173e-17)
(0.00179117 0.00164218 1.6412e-17)
(0.00173247 0.00153486 1.20065e-17)
(0.00167771 0.00142473 1.46531e-17)
(0.00162217 0.00131203 1.96707e-17)
(0.00156385 0.00119905 2.9972e-17)
(0.00150238 0.00108792 4.28196e-17)
(0.00143814 0.000980224 5.14927e-17)
(0.00137179 0.000876981 5.3716e-17)
(0.00130403 0.000778854 4.36627e-17)
(0.00123559 0.000686286 2.99617e-17)
(0.00116722 0.000599603 3.06307e-17)
(0.00109976 0.000519078 3.43368e-17)
(0.00103411 0.000444942 1.22838e-17)
(0.000971286 0.000377355 -3.02904e-17)
(0.000912294 0.000316356 -2.77965e-17)
(0.000858107 0.000261811 -3.73897e-18)
(0.000809546 0.000213385 -4.28902e-17)
(0.000767257 0.000170564 -8.35108e-17)
(0.000731684 0.000132666 -6.21559e-17)
(0.000703088 9.8873e-05 -2.7645e-17)
(0.000681593 6.83006e-05 -6.07122e-19)
(0.000667254 4.00469e-05 4.16121e-17)
(0.000660087 1.31931e-05 5.8876e-17)
(0.000660087 -1.31928e-05 5.03412e-17)
(0.000667254 -4.00466e-05 2.2946e-17)
(0.000681592 -6.83003e-05 1.736e-17)
(0.000703087 -9.88727e-05 4.6913e-17)
(0.000731683 -0.000132666 5.84635e-17)
(0.000767256 -0.000170564 7.9843e-17)
(0.000809545 -0.000213385 1.17044e-16)
(0.000858106 -0.00026181 1.3143e-16)
(0.000912293 -0.000316356 1.15381e-16)
(0.000971285 -0.000377354 7.75132e-17)
(0.00103411 -0.000444941 5.1806e-17)
(0.00109976 -0.000519077 3.28454e-17)
(0.00116722 -0.000599602 3.78257e-18)
(0.00123558 -0.000686285 -1.81692e-17)
(0.00130402 -0.000778853 -2.05237e-17)
(0.00137178 -0.00087698 -1.65699e-17)
(0.00143814 -0.000980223 -9.46367e-18)
(0.00150238 -0.00108792 -6.7495e-18)
(0.00156385 -0.00119904 -6.64943e-18)
(0.00162217 -0.00131203 -5.58179e-18)
(0.0016777 -0.00142472 -1.21738e-17)
(0.00173247 -0.00153486 -3.01724e-17)
(0.00179116 -0.00164218 -4.80424e-17)
(0.00185475 -0.0017605 -5.59044e-17)
(0.00274937 -0.00109028 -4.40172e-17)
(0.00299963 0.00127088 2.65809e-17)
(0.00208857 0.00195698 1.10504e-17)
(0.00202321 0.00181589 1.34748e-17)
(0.00195946 0.0016926 1.69482e-17)
(0.00190129 0.00157493 2.12811e-17)
(0.00184582 0.00145931 2.61498e-17)
(0.00179067 0.0013449 3.07073e-17)
(0.00173448 0.00123225 3.67369e-17)
(0.00167676 0.00112231 4.37206e-17)
(0.00161758 0.00101598 4.55725e-17)
(0.0015573 0.000913958 3.93615e-17)
(0.00149641 0.000816754 3.30999e-17)
(0.00143546 0.000724716 3.71621e-17)
(0.00137508 0.000638082 3.7866e-17)
(0.00131594 0.00055701 2.27046e-17)
(0.00125877 0.00048159 -6.71519e-18)
(0.00120439 0.000411835 -1.61231e-17)
(0.00115363 0.000347653 -1.03517e-17)
(0.00110731 0.00028883 -4.12862e-17)
(0.00106619 0.000235009 -7.48911e-17)
(0.00103095 0.000185689 -5.79133e-17)
(0.00100215 0.000140231 -1.59914e-17)
(0.000980202 9.7879e-05 2.15961e-17)
(0.00096541 5.78016e-05 5.60146e-17)
(0.000957966 1.91118e-05 6.44705e-17)
(0.000957966 -1.91114e-05 4.06378e-17)
(0.00096541 -5.78011e-05 9.29081e-18)
(0.000980202 -9.78786e-05 3.95296e-18)
(0.00100215 -0.00014023 2.20727e-17)
(0.00103095 -0.000185689 4.59382e-17)
(0.00106619 -0.000235008 6.58107e-17)
(0.00110731 -0.000288829 7.39471e-17)
(0.00115363 -0.000347653 8.0101e-17)
(0.00120439 -0.000411834 7.3905e-17)
(0.00125877 -0.00048159 5.42342e-17)
(0.00131593 -0.000557009 4.72109e-17)
(0.00137508 -0.000638081 3.90996e-17)
(0.00143546 -0.000724715 1.58475e-17)
(0.00149641 -0.000816753 -1.82025e-18)
(0.0015573 -0.000913957 -6.52424e-18)
(0.00161758 -0.00101598 -7.59234e-18)
(0.00167676 -0.00112231 -7.28898e-18)
(0.00173448 -0.00123225 -6.48883e-18)
(0.00179067 -0.0013449 -9.77387e-18)
(0.00184582 -0.00145931 -1.72566e-17)
(0.00190129 -0.00157493 -2.70561e-17)
(0.00195946 -0.0016926 -4.1375e-17)
(0.00202321 -0.00181589 -5.54668e-17)
(0.00208857 -0.00195698 -6.14944e-17)
(0.00299963 -0.00127088 -5.0505e-17)
(0.00322399 0.00144856 2.52698e-17)
(0.00230624 0.00215091 1.09603e-17)
(0.00224824 0.00199901 1.21226e-17)
(0.00218685 0.00186231 1.28415e-17)
(0.00212879 0.00173357 2.15239e-17)
(0.00207369 0.00161021 3.48848e-17)
(0.00202033 0.00149047 3.75356e-17)
(0.00196754 0.00137368 3.90789e-17)
(0.00191455 0.00125991 3.94127e-17)
(0.00186106 0.00114955 3.17186e-17)
(0.00180708 0.00104307 2.18824e-17)
(0.00175288 0.0009409 2.77851e-17)
(0.00169883 0.000843359 3.63046e-17)
(0.00164542 0.000750665 2.7483e-17)
(0.00159317 0.000662943 1.26417e-17)
(0.00154266 0.000580238 -3.22862e-18)
(0.00149453 0.000502515 -1.17409e-17)
(0.00144944 0.000429659 -1.30712e-17)
(0.00140809 0.000361462 -2.78544e-17)
(0.00137114 0.00029761 -4.30852e-17)
(0.00133926 0.000237681 -2.38239e-17)
(0.00131301 0.000181138 1.2703e-17)
(0.00129289 0.000127345 2.99621e-17)
(0.00127926 7.55787e-05 3.89278e-17)
(0.00127238 2.50537e-05 5.8724e-17)
(0.00127238 -2.50531e-05 5.87641e-17)
(0.00127926 -7.55782e-05 2.54849e-17)
(0.00129289 -0.000127345 1.76066e-18)
(0.00131301 -0.000181138 9.38332e-18)
(0.00133926 -0.00023768 3.15395e-17)
(0.00137114 -0.00029761 4.65332e-17)
(0.00140809 -0.000361461 4.86402e-17)
(0.00144944 -0.000429659 5.12014e-17)
(0.00149453 -0.000502514 4.60424e-17)
(0.00154266 -0.000580237 3.49871e-17)
(0.00159317 -0.000662942 3.57652e-17)
(0.00164542 -0.000750664 4.09475e-17)
(0.00169883 -0.000843358 3.02559e-17)
(0.00175288 -0.000940899 1.58517e-17)
(0.00180708 -0.00104307 6.7086e-18)
(0.00186106 -0.00114954 -2.71575e-18)
(0.00191455 -0.00125991 -6.53765e-18)
(0.00196754 -0.00137368 -1.05654e-17)
(0.00202033 -0.00149047 -1.81586e-17)
(0.00207369 -0.00161021 -2.58355e-17)
(0.00212879 -0.00173357 -3.02824e-17)
(0.00218685 -0.00186231 -4.05924e-17)
(0.00224824 -0.00199901 -5.00573e-17)
(0.00230624 -0.00215091 -5.09012e-17)
(0.00322399 -0.00144856 -4.78848e-17)
(0.00343704 0.00162473 3.43891e-17)
(0.00251407 0.00233908 1.32731e-17)
(0.00246493 0.00218152 1.49661e-17)
(0.00240992 0.00203599 1.69386e-17)
(0.00235571 0.00189757 2.25545e-17)
(0.00230312 0.00176539 3.48096e-17)
(0.00225213 0.00163823 3.96052e-17)
(0.00220225 0.0015152 3.96535e-17)
(0.00215295 0.00139588 3.80245e-17)
(0.00210388 0.00128023 3.00424e-17)
(0.00205494 0.00116841 2.43768e-17)
(0.00200621 0.00106063 3.155e-17)
(0.00195793 0.000957135 3.27604e-17)
(0.00191046 0.000858069 8.53113e-18)
(0.00186422 0.000763528 -9.04439e-18)
(0.00181969 0.000673525 -9.50078e-18)
(0.00177739 0.000587995 -7.46096e-18)
(0.00173785 0.000506799 -4.54552e-18)
(0.00170165 0.000429717 -1.0862e-17)
(0.00166933 0.000356443 -1.84219e-17)
(0.00164143 0.000286587 -6.71475e-19)
(0.00161845 0.000219672 3.10343e-17)
(0.00160082 0.000155141 3.2955e-17)
(0.00158886 9.23669e-05 2.9193e-17)
(0.00158283 3.06684e-05 4.77276e-17)
(0.00158283 -3.06678e-05 5.19455e-17)
(0.00158886 -9.23663e-05 2.85917e-17)
(0.00160082 -0.000155141 5.69545e-18)
(0.00161845 -0.000219671 6.33996e-18)
(0.00164143 -0.000286586 2.35795e-17)
(0.00166933 -0.000356442 3.58203e-17)
(0.00170165 -0.000429716 3.72972e-17)
(0.00173785 -0.000506799 3.76185e-17)
(0.00177739 -0.000587994 2.99331e-17)
(0.00181969 -0.000673524 2.18951e-17)
(0.00186422 -0.000763527 2.50114e-17)
(0.00191046 -0.000858068 3.04878e-17)
(0.00195793 -0.000957134 2.58905e-17)
(0.00200621 -0.00106063 1.85787e-17)
(0.00205494 -0.00116841 2.66665e-18)
(0.00210388 -0.00128023 -1.15419e-17)
(0.00215295 -0.00139588 -1.48224e-17)
(0.00220225 -0.0015152 -1.60488e-17)
(0.00225213 -0.00163823 -2.11412e-17)
(0.00230312 -0.00176539 -2.64293e-17)
(0.00235571 -0.00189757 -3.1062e-17)
(0.00240992 -0.00203599 -3.64036e-17)
(0.00246493 -0.00218152 -3.79826e-17)
(0.00251407 -0.00233908 -3.35459e-17)
(0.00343704 -0.00162473 -2.95422e-17)
(0.00364219 0.0018003 4.81216e-17)
(0.00271588 0.00252249 1.85068e-17)
(0.0026748 0.00236062 1.8937e-17)
(0.0026272 0.00220886 2.11767e-17)
(0.00257889 0.00206285 2.44285e-17)
(0.00253082 0.00192264 3.20419e-17)
(0.00248352 0.00178775 3.53305e-17)
(0.00243708 0.00165757 3.36331e-17)
(0.00239138 0.00153163 3.16692e-17)
(0.00234623 0.00140969 2.6945e-17)
(0.00230157 0.00129169 2.75977e-17)
(0.00225742 0.00117766 3.61835e-17)
(0.00221396 0.0010677 3.60194e-17)
(0.00217145 0.000961896 9.50526e-18)
(0.00213023 0.000860274 -1.06811e-17)
(0.0020907 0.000762819 -2.50015e-18)
(0.0020533 0.000669443 3.14306e-18)
(0.00201847 0.000579992 1.91282e-19)
(0.00198668 0.000494239 1.10256e-18)
(0.00195838 0.000411885 2.35727e-18)
(0.00193402 0.000332562 1.00584e-17)
(0.00191399 0.000255832 2.81224e-17)
(0.00189864 0.000181192 2.75138e-17)
(0.00188824 0.000108089 2.15273e-17)
(0.00188299 3.59246e-05 3.1598e-17)
(0.00188299 -3.59239e-05 3.17858e-17)
(0.00188824 -0.000108088 1.43084e-17)
(0.00189864 -0.000181192 8.03279e-19)
(0.00191399 -0.000255831 1.96012e-18)
(0.00193402 -0.000332562 1.2968e-17)
(0.00195838 -0.000411885 2.61721e-17)
(0.00198668 -0.000494238 3.65349e-17)
(0.00201847 -0.000579991 3.54046e-17)
(0.0020533 -0.000669442 2.01676e-17)
(0.0020907 -0.000762818 7.24729e-18)
(0.00213023 -0.000860274 6.3497e-18)
(0.00217145 -0.000961895 8.70685e-18)
(0.00221396 -0.0010677 1.00926e-17)
(0.00225742 -0.00117766 8.08892e-18)
(0.00230157 -0.00129169 -3.8867e-18)
(0.00234623 -0.00140969 -8.44496e-18)
(0.00239138 -0.00153163 -1.13277e-17)
(0.00243708 -0.00165757 -1.63103e-17)
(0.00248352 -0.00178775 -2.2666e-17)
(0.00253082 -0.00192264 -2.75719e-17)
(0.00257889 -0.00206285 -3.34651e-17)
(0.0026272 -0.00220886 -3.62554e-17)
(0.0026748 -0.00236061 -2.9009e-17)
(0.00271589 -0.00252249 -1.76127e-17)
(0.00364219 -0.0018003 -1.37191e-17)
(0.00384105 0.00197556 3.50781e-17)
(0.00291351 0.00270229 2.61805e-17)
(0.00287965 0.00253624 2.66643e-17)
(0.00283928 0.00237923 2.57068e-17)
(0.00279751 0.00222698 2.33976e-17)
(0.00275507 0.0020798 2.77005e-17)
(0.00271256 0.00193765 3.05958e-17)
(0.00267036 0.00180025 2.70274e-17)
(0.00262865 0.00166729 2.551e-17)
(0.00258746 0.00153852 2.28264e-17)
(0.00254683 0.00141379 1.87615e-17)
(0.00250683 0.00129302 2.38068e-17)
(0.00246762 0.0011762 2.77724e-17)
(0.00242941 0.00106334 1.59445e-17)
(0.00239249 0.000954407 2.78331e-18)
(0.0023572 0.000849353 1.30675e-17)
(0.00232391 0.000748067 2.33471e-17)
(0.00229301 0.000650384 2.06674e-17)
(0.00226487 0.000556074 1.67705e-17)
(0.0022399 0.00046485 1.31559e-17)
(0.00221845 0.000376361 1.38321e-17)
(0.00220085 0.0002902 2.28367e-17)
(0.00218739 0.00020591 2.10972e-17)
(0.00217828 0.000122989 1.72239e-17)
(0.00217369 4.09028e-05 2.47471e-17)
(0.00217369 -4.09021e-05 1.93391e-17)
(0.00217828 -0.000122988 5.31966e-18)
(0.00218739 -0.000205909 7.63858e-19)
(0.00220085 -0.000290199 -2.27783e-18)
(0.00221845 -0.00037636 1.46716e-18)
(0.0022399 -0.000464849 1.84341e-17)
(0.00226487 -0.000556074 3.01507e-17)
(0.00229301 -0.000650383 2.25024e-17)
(0.00232391 -0.000748067 6.39637e-18)
(0.0023572 -0.000849352 -4.73941e-18)
(0.00239249 -0.000954406 -6.13684e-18)
(0.00242941 -0.00106334 -3.61216e-18)
(0.00246762 -0.0011762 4.56437e-18)
(0.00250683 -0.00129302 7.46055e-18)
(0.00254683 -0.00141379 3.27665e-18)
(0.00258746 -0.00153852 -1.05312e-18)
(0.00262865 -0.00166729 -9.18111e-18)
(0.00267036 -0.00180025 -1.36042e-17)
(0.00271256 -0.00193765 -1.77255e-17)
(0.00275507 -0.0020798 -2.54334e-17)
(0.00279751 -0.00222698 -3.4472e-17)
(0.00283928 -0.00237923 -3.53815e-17)
(0.00287965 -0.00253624 -2.29835e-17)
(0.00291352 -0.00270229 -1.05565e-17)
(0.00384105 -0.00197556 -1.42021e-17)
(0.00403474 0.00215055 5.99946e-18)
(0.0031079 0.00287923 2.89612e-17)
(0.00308072 0.00270889 3.18347e-17)
(0.00304718 0.00254689 2.93743e-17)
(0.00301194 0.00238902 2.61221e-17)
(0.00297549 0.0022356 2.69613e-17)
(0.00293838 0.00208675 2.73652e-17)
(0.00290103 0.00194242 2.4667e-17)
(0.00286377 0.00180246 2.45718e-17)
(0.00282678 0.00166669 2.15971e-17)
(0.00279023 0.00153496 1.32961e-17)
(0.00275426 0.00140716 1.17162e-17)
(0.00271904 0.00128323 1.51511e-17)
(0.00268478 0.00116309 1.03056e-17)
(0.00265174 0.00104669 3.81871e-18)
(0.00262021 0.00093394 1.45554e-17)
(0.00259052 0.000824703 2.94102e-17)
(0.002563 0.000718807 3.12727e-17)
(0.002538 0.000616025 2.69057e-17)
(0.00251584 0.000516077 2.28423e-17)
(0.00249683 0.000418632 1.88689e-17)
(0.00248126 0.00032331 1.82238e-17)
(0.00246936 0.000229689 1.56829e-17)
(0.00246132 0.000137309 1.9502e-17)
(0.00245727 4.56851e-05 2.97172e-17)
(0.00245727 -4.56845e-05 1.83783e-17)
(0.00246132 -0.000137308 1.59597e-18)
(0.00246936 -0.000229688 -1.37148e-18)
(0.00248126 -0.00032331 -3.80207e-18)
(0.00249683 -0.000418631 -2.18203e-18)
(0.00251584 -0.000516076 9.96025e-18)
(0.002538 -0.000616024 1.88404e-17)
(0.002563 -0.000718806 1.36625e-17)
(0.00259052 -0.000824702 3.77611e-18)
(0.00262021 -0.00093394 -2.59613e-18)
(0.00265174 -0.00104669 1.09253e-18)
(0.00268478 -0.00116309 3.98826e-18)
(0.00271904 -0.00128323 5.06002e-18)
(0.00275426 -0.00140716 6.23824e-18)
(0.00279023 -0.00153496 5.82021e-18)
(0.00282678 -0.00166669 1.53126e-18)
(0.00286377 -0.00180246 -7.04057e-18)
(0.00290103 -0.00194242 -9.59018e-18)
(0.00293838 -0.00208675 -1.29479e-17)
(0.00297549 -0.0022356 -2.26016e-17)
(0.00301194 -0.00238902 -3.24719e-17)
(0.00304718 -0.00254689 -3.25273e-17)
(0.00308072 -0.00270889 -2.23614e-17)
(0.00310791 -0.00287924 -1.66013e-17)
(0.00403474 -0.00215055 -3.05974e-17)
(0.00422412 0.00232525 2.9749e-18)
(0.00329963 0.00305382 2.28842e-17)
(0.00327879 0.00287906 3.13734e-17)
(0.00325174 0.00271209 3.00766e-17)
(0.00322281 0.00254883 2.71711e-17)
(0.00319238 0.00238955 2.74929e-17)
(0.00316087 0.0022344 2.74828e-17)
(0.00312869 0.00208345 2.45883e-17)
(0.0030962 0.00193666 2.39124e-17)
(0.00306368 0.00179393 2.05248e-17)
(0.00303135 0.00165515 9.03027e-18)
(0.00299943 0.00152021 3.2119e-19)
(0.00296812 0.00138903 4.78535e-18)
(0.00293764 0.00126151 9.61338e-18)
(0.00290825 0.00113755 3.20089e-18)
(0.00288021 0.00101704 4.13489e-18)
(0.00285381 0.000899844 1.99635e-17)
(0.00282936 0.000785767 2.5336e-17)
(0.00280715 0.000674588 2.11423e-17)
(0.00278749 0.000566036 1.89211e-17)
(0.00277063 0.000459797 1.29322e-17)
(0.00275683 0.000355514 9.80043e-18)
(0.00274629 0.000252794 1.12e-17)
(0.00273917 0.000151214 1.77761e-17)
(0.00273558 5.03274e-05 2.72428e-17)
(0.00273558 -5.03268e-05 1.57289e-17)
(0.00273917 -0.000151214 -3.90809e-19)
(0.00274629 -0.000252794 -1.66961e-18)
(0.00275683 -0.000355513 -1.15006e-18)
(0.00277063 -0.000459796 9.69961e-19)
(0.00278749 -0.000566036 8.78851e-18)
(0.00280716 -0.000674587 1.38253e-17)
(0.00282936 -0.000785767 1.0085e-17)
(0.00285381 -0.000899843 4.9694e-18)
(0.00288021 -0.00101704 2.93198e-18)
(0.00290825 -0.00113755 7.49579e-18)
(0.00293764 -0.00126151 8.58597e-18)
(0.00296812 -0.00138903 5.25468e-18)
(0.00299943 -0.00152021 6.28998e-18)
(0.00303135 -0.00165515 7.95247e-18)
(0.00306368 -0.00179393 -3.25087e-19)
(0.0030962 -0.00193665 -9.2028e-18)
(0.0031287 -0.00208345 -7.98834e-18)
(0.00316087 -0.0022344 -1.03456e-17)
(0.00319238 -0.00238955 -2.05938e-17)
(0.00322281 -0.00254883 -2.99634e-17)
(0.00325174 -0.00271209 -3.07022e-17)
(0.00327879 -0.00287906 -2.42053e-17)
(0.00329964 -0.00305382 -2.45576e-17)
(0.00422412 -0.00232525 -4.04927e-17)
(0.00440986 0.00249964 1.97658e-17)
(0.00348912 0.00322638 1.7292e-17)
(0.00347439 0.0030471 2.58919e-17)
(0.00345356 0.00287513 2.44136e-17)
(0.00343073 0.00270654 2.44888e-17)
(0.00340619 0.00254156 2.73388e-17)
(0.00338028 0.00238036 2.691e-17)
(0.00335338 0.00222302 2.11188e-17)
(0.00332582 0.00206958 1.87428e-17)
(0.00329791 0.00192 1.55823e-17)
(0.00326993 0.00177422 3.67822e-18)
(0.00324212 0.00163214 -6.58187e-18)
(0.00321472 0.00149368 -8.12878e-19)
(0.00318797 0.00135873 8.68937e-18)
(0.00316211 0.00122718 3.99999e-18)
(0.0031374 0.00109891 -2.88362e-19)
(0.00311413 0.000973766 1.45253e-17)
(0.00309255 0.000851553 2.16429e-17)
(0.00307294 0.000732052 1.50501e-17)
(0.00305557 0.000615002 1.27412e-17)
(0.00304068 0.000500103 6.03734e-18)
(0.00302849 0.000387019 2.3818e-19)
(0.00301918 0.000275384 4.51216e-18)
(0.00301289 0.000164803 1.35386e-17)
(0.00300971 5.48628e-05 1.99338e-17)
(0.00300971 -5.48623e-05 8.22003e-18)
(0.00301289 -0.000164802 -4.59064e-18)
(0.00301918 -0.000275383 -1.75783e-18)
(0.00302849 -0.000387019 4.75585e-18)
(0.00304068 -0.000500102 6.8777e-18)
(0.00305557 -0.000615001 6.74886e-18)
(0.00307294 -0.000732052 6.39178e-18)
(0.00309255 -0.000851552 3.91568e-18)
(0.00311413 -0.000973765 3.82007e-18)
(0.00313741 -0.00109891 5.81726e-18)
(0.00316211 -0.00122718 8.16287e-18)
(0.00318797 -0.00135873 7.03687e-18)
(0.00321472 -0.00149368 6.04399e-18)
(0.00324212 -0.00163214 8.65826e-18)
(0.00326993 -0.00177422 8.48224e-18)
(0.00329791 -0.00192 -2.30945e-18)
(0.00332582 -0.00206958 -9.21908e-18)
(0.00335338 -0.00222302 -6.76993e-18)
(0.00338029 -0.00238036 -8.56347e-18)
(0.00340619 -0.00254156 -1.78807e-17)
(0.00343073 -0.00270654 -2.68937e-17)
(0.00345356 -0.00287513 -2.91512e-17)
(0.00347439 -0.0030471 -2.59125e-17)
(0.00348912 -0.00322638 -2.82884e-17)
(0.00440986 -0.00249964 -3.47132e-17)
(0.00459251 0.00267372 2.28998e-17)
(0.00367667 0.00339721 1.60102e-17)
(0.00366789 0.00321331 2.16088e-17)
(0.00365308 0.00303628 2.10749e-17)
(0.00363615 0.00286236 2.30138e-17)
(0.00361735 0.00269176 2.71612e-17)
(0.00359697 0.00252461 2.68031e-17)
(0.00357532 0.00236104 2.01571e-17)
(0.00355273 0.00220109 1.50629e-17)
(0.0035295 0.00204478 1.10042e-17)
(0.00350593 0.00189207 1.06923e-18)
(0.00348228 0.0017429 -6.73125e-18)
(0.0034588 0.00159718 1.60741e-19)
(0.00343574 0.00145481 9.87625e-18)
(0.00341336 0.00131569 5.13254e-18)
(0.0033919 0.00117968 -8.53799e-19)
(0.00337163 0.00104662 1.20337e-17)
(0.00335281 0.00091633 1.78541e-17)
(0.00333568 0.000788585 1.05624e-17)
(0.00332048 0.000663135 8.05397e-18)
(0.00330744 0.000539695 5.3143e-19)
(0.00329676 0.000417949 -5.863e-18)
(0.00328859 0.00029755 8.35294e-19)
(0.00328307 0.000178133 1.18512e-17)
(0.00328029 5.93113e-05 1.49412e-17)
(0.00328029 -5.93108e-05 2.07493e-18)
(0.00328307 -0.000178133 -6.7507e-18)
(0.00328859 -0.00029755 3.19093e-19)
(0.00329676 -0.000417948 9.53363e-18)
(0.00330744 -0.000539695 1.21265e-17)
(0.00332048 -0.000663135 6.90454e-18)
(0.00333568 -0.000788585 1.26537e-18)
(0.00335281 -0.00091633 -1.69696e-18)
(0.00337163 -0.00104662 -2.62549e-19)
(0.0033919 -0.00117968 3.1651e-18)
(0.00341336 -0.00131569 3.78466e-18)
(0.00343574 -0.00145481 2.45837e-18)
(0.0034588 -0.00159717 5.49912e-18)
(0.00348228 -0.0017429 9.42013e-18)
(0.00350593 -0.00189207 7.17041e-18)
(0.00352951 -0.00204478 -4.13299e-18)
(0.00355273 -0.00220109 -1.12804e-17)
(0.00357532 -0.00236104 -7.50007e-18)
(0.00359697 -0.00252461 -5.68019e-18)
(0.00361735 -0.00269176 -1.4355e-17)
(0.00363616 -0.00286237 -2.41721e-17)
(0.00365308 -0.00303628 -2.76846e-17)
(0.00366789 -0.00321331 -2.60415e-17)
(0.00367667 -0.00339721 -2.78284e-17)
(0.00459251 -0.00267372 -2.95837e-17)
(0.00477252 0.00284748 1.641e-17)
(0.00386256 0.00356651 1.57831e-17)
(0.00385958 0.00337791 1.95048e-17)
(0.00385064 0.00319578 2.03391e-17)
(0.00383946 0.00301651 2.29312e-17)
(0.00382624 0.00284028 2.62333e-17)
(0.00381126 0.00266725 2.58427e-17)
(0.00379479 0.00249753 1.92487e-17)
(0.00377714 0.00233118 1.21682e-17)
(0.00375859 0.00216823 8.22464e-18)
(0.00373944 0.00200867 1.32487e-18)
(0.00371995 0.00185246 -3.10921e-18)
(0.00370038 0.00169953 3.28625e-18)
(0.003681 0.00154979 1.01847e-17)
(0.00366205 0.00140313 5.47082e-18)
(0.00364378 0.00125943 -4.02119e-20)
(0.00362645 0.00111851 9.47075e-18)
(0.0036103 0.000980202 1.29141e-17)
(0.00359555 0.000844292 6.52216e-18)
(0.00358245 0.000710537 4.78033e-18)
(0.00357118 0.000578666 -1.96834e-18)
(0.00356194 0.000448379 -7.49362e-18)
(0.00355486 0.000319352 -5.39043e-19)
(0.00355008 0.000191241 1.00568e-17)
(0.00354767 6.36848e-05 1.06831e-17)
(0.00354767 -6.36845e-05 -2.35285e-18)
(0.00355008 -0.00019124 -7.88116e-18)
(0.00355486 -0.000319352 3.16458e-18)
(0.00356194 -0.000448378 1.30905e-17)
(0.00357118 -0.000578666 1.5387e-17)
(0.00358245 -0.000710537 1.03313e-17)
(0.00359556 -0.000844292 2.44355e-18)
(0.0036103 -0.000980202 -3.43162e-18)
(0.00362645 -0.00111851 -2.73749e-18)
(0.00364379 -0.00125943 2.05886e-18)
(0.00366205 -0.00140313 -8.95626e-19)
(0.003681 -0.00154979 -2.53858e-18)
(0.00370038 -0.00169953 6.16755e-18)
(0.00371995 -0.00185246 9.69131e-18)
(0.00373944 -0.00200867 4.0816e-18)
(0.0037586 -0.00216823 -5.79617e-18)
(0.00377714 -0.00233118 -1.34756e-17)
(0.0037948 -0.00249753 -1.05544e-17)
(0.00381126 -0.00266726 -4.83696e-18)
(0.00382624 -0.00284028 -1.23157e-17)
(0.00383946 -0.00301651 -2.30382e-17)
(0.00385065 -0.00319578 -2.68983e-17)
(0.00385959 -0.00337791 -2.62161e-17)
(0.00386256 -0.00356652 -2.73383e-17)
(0.00477252 -0.00284749 -3.08698e-17)
(0.00495027 0.00302095 1.47859e-17)
(0.004047 0.00373451 1.42489e-17)
(0.00404972 0.00354112 1.80726e-17)
(0.00404652 0.00335382 2.02389e-17)
(0.00404093 0.00316916 2.33547e-17)
(0.00403317 0.00298732 2.53413e-17)
(0.00402347 0.00280842 2.25187e-17)
(0.00401209 0.00263259 1.56186e-17)
(0.00399931 0.00245989 9.55741e-18)
(0.00398539 0.00229037 6.69816e-18)
(0.00397062 0.00212404 2.66951e-18)
(0.00395527 0.00196085 1.45836e-18)
(0.00393959 0.00180077 5.58289e-18)
(0.00392385 0.00164371 6.83011e-18)
(0.00390829 0.00148956 2.51718e-18)
(0.00389317 0.00133821 1.44189e-18)
(0.00387872 0.0011895 8.59814e-18)
(0.00386517 0.00104324 8.2113e-18)
(0.00385275 0.000899247 3.88719e-18)
(0.00384167 0.000757279 3.29277e-18)
(0.00383211 0.000617078 -2.28717e-18)
(0.00382426 0.000478363 -6.26031e-18)
(0.00381824 0.000340828 -7.28392e-19)
(0.00381416 0.00020415 7.87462e-18)
(0.0038121 6.79921e-05 6.72839e-18)
(0.0038121 -6.79919e-05 -4.83173e-18)
(0.00381416 -0.00020415 -6.64524e-18)
(0.00381824 -0.000340828 5.57391e-18)
(0.00382426 -0.000478363 1.28596e-17)
(0.00383211 -0.000617078 1.59825e-17)
(0.00384167 -0.000757278 1.43376e-17)
(0.00385275 -0.000899247 5.30857e-18)
(0.00386517 -0.00104324 -2.08026e-18)
(0.00387872 -0.0011895 -3.02072e-18)
(0.00389317 -0.00133821 8.57017e-19)
(0.0039083 -0.00148956 -3.18646e-18)
(0.00392385 -0.00164371 -5.13936e-18)
(0.00393959 -0.00180077 6.29619e-18)
(0.00395527 -0.00196085 8.5535e-18)
(0.00397062 -0.00212404 1.04137e-18)
(0.00398539 -0.00229037 -5.17848e-18)
(0.00399931 -0.00245989 -1.32259e-17)
(0.0040121 -0.00263259 -1.32718e-17)
(0.00402348 -0.00280843 -6.13304e-18)
(0.00403317 -0.00298732 -1.20592e-17)
(0.00404094 -0.00316917 -2.23861e-17)
(0.00404652 -0.00335383 -2.58125e-17)
(0.00404973 -0.00354113 -2.49419e-17)
(0.00404701 -0.00373451 -2.61552e-17)
(0.00495027 -0.00302095 -2.82597e-17)
(0.0051261 0.00319415 1.91438e-17)
(0.00423022 0.00390136 1.46417e-17)
(0.00423853 0.00370312 1.65806e-17)
(0.00424094 0.0035106 2.02077e-17)
(0.00424083 0.00332052 2.38892e-17)
(0.00423841 0.00313303 2.33696e-17)
(0.00423388 0.00294827 1.79433e-17)
(0.00422748 0.00276634 1.18432e-17)
(0.00421947 0.00258734 7.33357e-18)
(0.00421012 0.00241129 5.70408e-18)
(0.00419968 0.00223823 5.18979e-18)
(0.00418841 0.00206812 5.83285e-18)
(0.00417658 0.00190094 5.3702e-18)
(0.00416444 0.00173661 1.03602e-18)
(0.00415223 0.00157503 -1.59075e-18)
(0.0041402 0.00141609 2.31231e-18)
(0.00412857 0.00125964 8.30613e-18)
(0.00411758 0.00110551 5.45171e-18)
(0.00410742 0.000953512 3.1676e-18)
(0.00409831 0.000803416 2.65644e-18)
(0.00409043 0.000654982 -2.83948e-18)
(0.00408391 0.000507943 -4.45719e-18)
(0.00407891 0.000362011 5.39121e-19)
(0.00407552 0.000216882 5.67236e-18)
(0.00407381 7.22395e-05 2.74661e-18)
(0.00407381 -7.22395e-05 -5.34496e-18)
(0.00407552 -0.000216882 -3.00783e-18)
(0.00407891 -0.000362011 7.74656e-18)
(0.00408392 -0.000507943 1.11455e-17)
(0.00409043 -0.000654982 1.47496e-17)
(0.00409832 -0.000803416 1.47338e-17)
(0.00410743 -0.000953512 6.35897e-18)
(0.00411758 -0.00110551 6.1199e-19)
(0.00412857 -0.00125964 -2.00913e-18)
(0.0041402 -0.00141609 -8.43617e-19)
(0.00415224 -0.00157503 -4.01251e-18)
(0.00416444 -0.00173661 -5.20277e-18)
(0.00417659 -0.00190094 4.22169e-18)
(0.00418842 -0.00206812 3.68652e-18)
(0.00419968 -0.00223823 -3.36025e-18)
(0.00421012 -0.00241129 -5.04606e-18)
(0.00421948 -0.00258734 -1.17057e-17)
(0.00422748 -0.00276634 -1.43382e-17)
(0.00423388 -0.00294827 -9.07047e-18)
(0.00423841 -0.00313303 -1.39845e-17)
(0.00424084 -0.00332052 -2.23374e-17)
(0.00424094 -0.0035106 -2.43428e-17)
(0.00423853 -0.00370313 -2.29536e-17)
(0.00423022 -0.00390137 -2.3933e-17)
(0.0051261 -0.00319415 -2.3656e-17)
(0.00530031 0.00336712 2.07091e-17)
(0.00441238 0.00406725 1.38521e-17)
(0.00442619 0.00386408 1.53668e-17)
(0.00443411 0.00366628 1.95187e-17)
(0.00443938 0.00347072 2.25504e-17)
(0.00444218 0.00327756 2.02249e-17)
(0.00444271 0.00308692 1.48588e-17)
(0.0044412 0.00289892 9.59618e-18)
(0.00443788 0.00271362 4.94953e-18)
(0.004433 0.00253108 4.23192e-18)
(0.00442682 0.00235132 6.46721e-18)
(0.00441959 0.00217435 8.51817e-18)
(0.00441155 0.00200011 3.98132e-18)
(0.00440295 0.00182856 -4.49478e-18)
(0.00439404 0.0016596 -4.22879e-18)
(0.00438504 0.00149313 3.77143e-18)
(0.00437619 0.00132901 7.84723e-18)
(0.00436769 0.00116707 3.48994e-18)
(0.00435976 0.00100714 3.13182e-18)
(0.00435257 0.000848999 3.10625e-18)
(0.00434631 0.000692421 -2.60724e-18)
(0.0043411 0.000537154 -3.24157e-18)
(0.00433709 0.000382925 2.26497e-18)
(0.00433436 0.00022945 5.04776e-18)
(0.00433298 7.64324e-05 -3.01521e-19)
(0.00433298 -7.64325e-05 -5.11849e-18)
(0.00433436 -0.00022945 8.95602e-19)
(0.00433709 -0.000382925 9.52834e-18)
(0.00434111 -0.000537154 1.02824e-17)
(0.00434631 -0.000692421 1.41427e-17)
(0.00435257 -0.000848999 1.41669e-17)
(0.00435976 -0.00100714 6.98367e-18)
(0.0043677 -0.00116707 3.22294e-18)
(0.00437619 -0.00132901 -1.04001e-18)
(0.00438505 -0.00149313 -2.01372e-18)
(0.00439404 -0.0016596 -3.04664e-18)
(0.00440296 -0.00182856 -3.91978e-18)
(0.00441155 -0.00200011 7.94674e-19)
(0.00441959 -0.00217435 -2.22374e-18)