/*--------------------------------*- C++ -*----------------------------------*\
  =========                 |
  \\      /  F ield         | OpenFOAM: The Open Source CFD Toolbox
   \\    /   O peration     | Website:  https://openfoam.org
    \\  /    A nd           | Version:  7
     \\/     M anipulation  |
\*---------------------------------------------------------------------------*/
FoamFile
{
    version     2.0;
    format      ascii;
    class       volScalarField;
    location    "80000";
    object      omega;
}
// * * * * * * * * * * * * * * * * * * * * * * * * * * * * * * * * * * * * * //

dimensions      [0 0 -1 0 0 0 0];

internalField   nonuniform List<scalar> 
4825
(
0.0999856
0.0990293
0.102309
0.101338
0.100401
0.0994971
0.0986275
0.104683
0.103697
0.102745
0.101827
0.100944
0.107111
0.106108
0.10514
0.104208
0.103311
0.109594
0.108574
0.10759
0.106642
0.10573
0.112138
0.111099
0.110097
0.109133
0.108206
0.114743
0.113685
0.112666
0.111684
0.110741
0.117415
0.116337
0.115298
0.114298
0.113338
0.120156
0.119057
0.117998
0.116979
0.116001
0.12297
0.121849
0.12077
0.119731
0.118734
0.125861
0.124717
0.123616
0.122557
0.121539
0.128833
0.127664
0.126541
0.12546
0.124422
0.131889
0.130696
0.129549
0.128445
0.127385
0.135035
0.133816
0.132644
0.131516
0.138275
0.137028
0.13583
0.134678
0.141613
0.140338
0.139113
0.137936
0.145054
0.14375
0.142497
0.148605
0.14727
0.145988
0.152269
0.150903
0.156054
0.154655
0.159966
0.158531
0.16401
0.16254
0.168194
0.166686
0.172526
0.0696687
0.0688829
0.0681236
0.0673928
0.0666879
0.066012
0.0653654
0.0647499
0.0641648
0.0636108
0.0630893
0.0626015
0.0621466
0.0617242
0.0613358
0.0609821
0.0606635
0.06038
0.0601338
0.0599229
0.0714419
0.0706414
0.0698681
0.0691238
0.0684063
0.0677187
0.0670616
0.0664361
0.0658419
0.0652796
0.0647505
0.0642556
0.0637945
0.0633667
0.0629731
0.0626151
0.062292
0.0620049
0.0617559
0.0615429
0.0732583
0.0724428
0.0716545
0.0708959
0.0701651
0.0694646
0.0687955
0.0681593
0.0675547
0.066983
0.0664452
0.0659426
0.0654748
0.0650406
0.0646415
0.0642783
0.0639508
0.0636598
0.0634075
0.0631923
0.0751171
0.0742871
0.0734841
0.0727111
0.0719663
0.0712523
0.0705705
0.0699221
0.0693063
0.0687244
0.0681773
0.067666
0.0671901
0.0667489
0.0663435
0.0659747
0.0656421
0.0653469
0.065091
0.0648731
0.0770157
0.0761726
0.0753562
0.0745695
0.073811
0.0730834
0.0723886
0.0717277
0.0711001
0.0705071
0.0699498
0.0694292
0.0689444
0.0684954
0.0680829
0.0677078
0.0673696
0.0670695
0.0668095
0.0665884
0.0789494
0.0780956
0.0772677
0.076469
0.0756982
0.0749581
0.0742506
0.0735775
0.0729378
0.0723335
0.0717655
0.071235
0.0707409
0.0702832
0.0698633
0.0694811
0.0691368
0.0688314
0.0685666
0.068342
0.080913
0.0800506
0.0792137
0.0784054
0.0776243
0.0768736
0.076155
0.0754706
0.0748197
0.0742044
0.0736259
0.0730854
0.0725817
0.0721153
0.0716874
0.0712978
0.0709469
0.0706358
0.070366
0.0701373
0.0829036
0.0820338
0.0811893
0.0803733
0.0795842
0.0788251
0.0780976
0.0774039
0.0767434
0.0761184
0.0755303
0.0749803
0.0744675
0.0739925
0.0735566
0.0731597
0.0728022
0.0724853
0.07221
0.0719772
0.0717979
0.0716452
0.0715285
0.0714507
0.0714118
0.0714137
0.071455
0.0715367
0.0716581
0.071819
0.0720183
0.0722582
0.0725362
0.0728535
0.0732093
0.0849213
0.0840438
0.083192
0.082369
0.0815734
0.0808075
0.0800732
0.079372
0.0787039
0.0780712
0.0774752
0.076917
0.0763964
0.0759136
0.0754703
0.0750667
0.0747029
0.0743802
0.0740999
0.0738627
0.0736768
0.0735212
0.0734023
0.0733228
0.0732834
0.0732851
0.0733274
0.0734104
0.0735342
0.073698
0.0739011
0.0741454
0.0744286
0.0747516
0.075114
0.0755147
0.0759512
0.0869679
0.0860817
0.0852223
0.0843919
0.08359
0.0828176
0.0820774
0.0813702
0.0806963
0.0800576
0.0794551
0.0788906
0.0783637
0.0778747
0.0774252
0.0770159
0.0766468
0.0763189
0.076034
0.0757927
0.0756015
0.0754429
0.0753219
0.0752412
0.0752011
0.0752028
0.0752456
0.0753301
0.075456
0.0756225
0.075829
0.0760775
0.0763652
0.0766932
0.0770611
0.0774677
0.0779108
0.07839
0.0890458
0.0881501
0.0872822
0.0864437
0.0856346
0.0848555
0.0841091
0.0833961
0.0827168
0.0820732
0.0814654
0.0808959
0.0803641
0.0798703
0.0794162
0.0790024
0.078629
0.0782971
0.0780085
0.0777638
0.0775678
0.0774068
0.0772838
0.077202
0.0771613
0.077163
0.0772065
0.0772921
0.0774197
0.0775885
0.0777979
0.0780495
0.078341
0.0786732
0.0790454
0.0794568
0.0799049
0.0803897
0.0809111
0.0814744
0.0911577
0.0902515
0.0893742
0.0885269
0.0877096
0.0869232
0.0861699
0.0854506
0.0847656
0.0841167
0.083504
0.0829296
0.0823936
0.0818958
0.0814381
0.0810208
0.0806442
0.0803091
0.0800178
0.0797702
0.0795702
0.0794072
0.0792829
0.0792002
0.0791591
0.0791609
0.0792047
0.0792911
0.07942
0.0795906
0.0798022
0.0800564
0.0803507
0.080686
0.0810618
0.0814768
0.0819292
0.0824186
0.0829455
0.0835137
0.0841191
0.0847629
0.0933064
0.0923888
0.0915012
0.090644
0.0898179
0.0890232
0.0882621
0.087536
0.0868444
0.0861895
0.0855715
0.084992
0.0844517
0.08395
0.0834887
0.083068
0.0826886
0.082351
0.0820571
0.0818074
0.0816041
0.0814395
0.0813139
0.0812305
0.0811893
0.0811908
0.081235
0.0813222
0.0814521
0.081624
0.0818373
0.0820934
0.0823904
0.0827282
0.0831071
0.0835256
0.0839822
0.0844759
0.0850083
0.0855818
0.086193
0.0868429
0.0875307
0.0882557
0.0890145
0.0954945
0.0945646
0.0936657
0.0927979
0.091962
0.0911582
0.0903887
0.0896547
0.088956
0.0882944
0.0876704
0.0870853
0.08654
0.0860339
0.0855686
0.0851444
0.0847621
0.0844219
0.0841256
0.0838736
0.0836674
0.0835011
0.0833744
0.0832902
0.083249
0.0832505
0.0832948
0.0833826
0.0835134
0.0836866
0.0839017
0.0841597
0.0844591
0.0847997
0.0851818
0.0856041
0.086065
0.0865637
0.087102
0.0876812
0.0882989
0.0889554
0.0896507
0.0903834
0.0911509
0.0919523
0.0927859
0.0977248
0.0967817
0.0958707
0.0949913
0.0941448
0.0933312
0.0925524
0.0918099
0.0911032
0.090434
0.0898033
0.0892123
0.0886613
0.0881502
0.0876806
0.0872524
0.0868666
0.0865235
0.0862246
0.0859699
0.0857611
0.0855929
0.0854652
0.0853802
0.0853386
0.08534
0.0853846
0.0854731
0.0856047
0.0857794
0.0859964
0.0862566
0.0865587
0.0869024
0.0872882
0.0877146
0.0881803
0.0886845
0.089229
0.0898147
0.0904394
0.0911034
0.0918068
0.092548
0.0933249
0.0941364
0.0949808
0.0958583
0.0967683
0.0977101
0.0999998
0.0990427
0.0981188
0.0972271
0.0963691
0.0955447
0.094756
0.094004
0.0932886
0.0926114
0.0919733
0.0913757
0.0908185
0.0903018
0.0898273
0.0893948
0.089005
0.0886585
0.0883565
0.0880991
0.0878875
0.0877174
0.0875883
0.0875024
0.0874606
0.0874618
0.0875067
0.0875961
0.0877285
0.0879049
0.088124
0.0883868
0.0886919
0.0890391
0.089429
0.0898598
0.0903309
0.0908412
0.0913924
0.091985
0.0926174
0.0932897
0.0940019
0.0947524
0.0955395
0.0963618
0.0972177
0.0981075
0.0990304
0.0999863
0.102322
0.10135
0.100413
0.099508
0.0986376
0.0978018
0.0970022
0.0962401
0.0955153
0.0948293
0.0941834
0.0935785
0.0930145
0.0924915
0.0920117
0.0915743
0.09118
0.0908299
0.0905244
0.0902642
0.0900497
0.0898775
0.0897469
0.0896601
0.0896178
0.0896189
0.0896641
0.0897543
0.0898878
0.090066
0.0902873
0.0905531
0.0908615
0.0912127
0.091607
0.092043
0.0925196
0.0930367
0.093595
0.0941952
0.0948358
0.0955171
0.0962388
0.0969994
0.0977973
0.0986313
0.0994996
0.100402
0.101339
0.10231
0.104695
0.103708
0.102755
0.101837
0.100953
0.100105
0.0992941
0.0985211
0.0977862
0.0970908
0.0964363
0.0958235
0.0952521
0.0947226
0.0942367
0.093794
0.093395
0.0930406
0.0927314
0.0924679
0.0922504
0.0920759
0.0919438
0.091856
0.0918132
0.0918141
0.0918597
0.0919507
0.0920856
0.0922657
0.0924896
0.0927585
0.0930705
0.0934262
0.0938252
0.0942668
0.0947496
0.0952738
0.0958398
0.0964481
0.0970977
0.0977885
0.0985205
0.0992919
0.100101
0.100948
0.101829
0.102746
0.103698
0.104684
0.107122
0.106118
0.10515
0.104216
0.103319
0.102458
0.101634
0.10085
0.100104
0.0993987
0.0987351
0.0981136
0.0975345
0.0969978
0.0965055
0.0960569
0.0956527
0.0952936
0.0949804
0.0947134
0.0944927
0.0943158
0.0941821
0.0940933
0.0940498
0.0940505
0.0940966
0.0941884
0.0943248
0.0945069
0.0947337
0.095006
0.0953221
0.0956825
0.0960868
0.0965344
0.0970237
0.0975555
0.0981297
0.0987469
0.0994059
0.100107
0.10085
0.101633
0.102455
0.103314
0.10421
0.105141
0.106108
0.107111
0.109605
0.108583
0.107598
0.10665
0.105738
0.104863
0.104026
0.103229
0.102472
0.101756
0.101083
0.100452
0.0998645
0.0993203
0.0988209
0.0983659
0.0979562
0.0975922
0.0972747
0.0970038
0.0967798
0.0966002
0.0964649
0.0963749
0.0963307
0.0963312
0.0963777
0.0964705
0.0966084
0.0967929
0.0970228
0.0972987
0.0976192
0.0979847
0.0983946
0.0988486
0.0993451
0.0998848
0.100468
0.101094
0.101763
0.102475
0.10323
0.104025
0.10486
0.105733
0.106644
0.107591
0.108575
0.109595
0.112147
0.111107
0.110105
0.10914
0.108213
0.107323
0.106473
0.105663
0.104894
0.104166
0.103482
0.102842
0.102245
0.101693
0.101186
0.100724
0.100309
0.0999392
0.0996171
0.099342
0.0991146
0.0989323
0.0987952
0.098704
0.0986589
0.0986592
0.0987062
0.0988
0.0989397
0.0991266
0.0993599
0.0996397
0.0999649
0.100336
0.100752
0.101213
0.101717
0.102265
0.102857
0.103494
0.104173
0.104897
0.105663
0.106472
0.107321
0.108209
0.109135
0.110099
0.111099
0.112138
0.114752
0.113693
0.112673
0.11169
0.110747
0.109842
0.108977
0.108153
0.107371
0.106632
0.105937
0.105286
0.10468
0.104119
0.103604
0.103135
0.102713
0.102338
0.102011
0.101731
0.1015
0.101315
0.101176
0.101083
0.101038
0.101038
0.101085
0.10118
0.101322
0.101511
0.101748
0.102032
0.102362
0.102739
0.103162
0.10363
0.104142
0.104699
0.105301
0.105948
0.106639
0.107374
0.108154
0.108976
0.10984
0.110744
0.111687
0.112667
0.113686
0.114744
0.117422
0.116343
0.115304
0.114304
0.113343
0.112422
0.111542
0.110704
0.109909
0.109157
0.10845
0.107788
0.107172
0.106602
0.106078
0.105602
0.105173
0.104792
0.104459
0.104175
0.10394
0.103752
0.103611
0.103517
0.10347
0.10347
0.103518
0.103614
0.103758
0.10395
0.104191
0.104479
0.104815
0.105197
0.105627
0.106103
0.106624
0.10719
0.107802
0.10846
0.109163
0.109911
0.110705
0.111541
0.112421
0.113341
0.114301
0.1153
0.116338
0.117415
0.120163
0.119063
0.118004
0.116985
0.116006
0.115068
0.114172
0.113319
0.112509
0.111743
0.111024
0.110351
0.109724
0.109144
0.108611
0.108127
0.107691
0.107304
0.106966
0.106677
0.106437
0.106246
0.106103
0.106007
0.105959
0.105959
0.106008
0.106105
0.106251
0.106447
0.106691
0.106984
0.107325
0.107714
0.108151
0.108635
0.109165
0.109742
0.110364
0.111034
0.11175
0.112511
0.113319
0.114171
0.115066
0.116004
0.116982
0.118
0.119058
0.120156
0.122976
0.121854
0.120774
0.119735
0.118738
0.117782
0.116869
0.116
0.115175
0.114396
0.113664
0.112978
0.11234
0.11175
0.111208
0.110715
0.110271
0.109877
0.109533
0.109239
0.108995
0.108801
0.108655
0.108558
0.108509
0.108509
0.108558
0.108657
0.108805
0.109004
0.109252
0.10955
0.109897
0.110294
0.110738
0.111231
0.11177
0.112357
0.112991
0.113673
0.114402
0.115177
0.116
0.116868
0.117781
0.118736
0.119734
0.120772
0.12185
0.122971
0.125866
0.124721
0.12362
0.12256
0.121543
0.120568
0.119638
0.118752
0.117912
0.117118
0.116372
0.115673
0.115023
0.114422
0.113871
0.113369
0.112917
0.112516
0.112166
0.111866
0.111618
0.11142
0.111271
0.111172
0.111123
0.111122
0.111172
0.111273
0.111423
0.111625
0.111878
0.112181
0.112535
0.112938
0.113391
0.113893
0.114442
0.11504
0.115686
0.11638
0.117123
0.117914
0.118752
0.119637
0.120568
0.121542
0.122559
0.123618
0.124718
0.125862
0.128837
0.127668
0.126544
0.125463
0.124425
0.123431
0.122482
0.121579
0.120722
0.119913
0.119152
0.11844
0.117778
0.117166
0.116603
0.116092
0.115632
0.115224
0.114867
0.114562
0.114309
0.114107
0.113956
0.113855
0.113804
0.113804
0.113854
0.113956
0.11411
0.114315
0.114572
0.114881
0.115241
0.115652
0.116114
0.116625
0.117185
0.117794
0.118452
0.11916
0.119917
0.120724
0.121579
0.122482
0.123431
0.124425
0.125463
0.126543
0.127666
0.128833
0.131893
0.130699
0.129552
0.128448
0.127388
0.126374
0.125406
0.124484
0.123611
0.122785
0.122009
0.121283
0.120608
0.119983
0.11941
0.118889
0.118421
0.118004
0.11764
0.117329
0.117071
0.116865
0.116711
0.116608
0.116557
0.116556
0.116607
0.116711
0.116867
0.117076
0.117339
0.117653
0.11802
0.118439
0.11891
0.119431
0.120002
0.120623
0.121294
0.122016
0.122789
0.123611
0.124484
0.125405
0.126374
0.127389
0.128448
0.129551
0.130698
0.13189
0.135039
0.133819
0.132646
0.131519
0.130437
0.129401
0.128413
0.127472
0.12658
0.125738
0.124946
0.124205
0.123516
0.122879
0.122295
0.121764
0.121286
0.120861
0.12049
0.120172
0.119909
0.119699
0.119542
0.119437
0.119384
0.119384
0.119436
0.119542
0.119701
0.119914
0.120181
0.120501
0.120876
0.121303
0.121783
0.122314
0.122897
0.123531
0.124216
0.124953
0.125741
0.126581
0.127472
0.128412
0.129401
0.130437
0.131519
0.132646
0.133818
0.135036
0.138277
0.13703
0.135832
0.13468
0.133575
0.132517
0.131508
0.130547
0.129636
0.128776
0.127968
0.127212
0.126508
0.125858
0.125262
0.12472
0.124232
0.123799
0.12342
0.123096
0.122827
0.122613
0.122453
0.122345
0.122292
0.122291
0.122344
0.122452
0.122614
0.122831
0.123103
0.12343
0.123812
0.124249
0.124738
0.125281
0.125875
0.126522
0.127222
0.127974
0.128779
0.129637
0.130546
0.131507
0.132517
0.133576
0.134681
0.135833
0.13703
0.138275
0.141615
0.14034
0.139114
0.137937
0.136807
0.135726
0.134695
0.133714
0.132783
0.131904
0.131078
0.130306
0.129588
0.128924
0.128315
0.127762
0.127264
0.126822
0.126435
0.126104
0.12583
0.125611
0.125447
0.125338
0.125283
0.125282
0.125336
0.125446
0.125612
0.125833
0.126111
0.126444
0.126834
0.12728
0.127779
0.128333
0.128941
0.129601
0.130316
0.131085
0.131907
0.132783
0.133713
0.134694
0.135727
0.136809
0.137938
0.139115
0.14034
0.141613
0.145056
0.143751
0.142498
0.141294
0.140139
0.139034
0.137979
0.136976
0.136025
0.135127
0.134283
0.133494
0.13276
0.132082
0.13146
0.130895
0.130387
0.129935
0.12954
0.129202
0.128921
0.128698
0.12853
0.128418
0.128362
0.128361
0.128416
0.128529
0.128698
0.128923
0.129207
0.129547
0.129946
0.130401
0.130911
0.131477
0.132098
0.132773
0.133503
0.134289
0.135129
0.136025
0.136975
0.137979
0.139034
0.14014
0.141296
0.142499
0.143752
0.145055
0.148606
0.14727
0.145988
0.144756
0.143574
0.142444
0.141366
0.14034
0.139368
0.138449
0.137586
0.13678
0.13603
0.135337
0.134701
0.134124
0.133604
0.133142
0.132739
0.132393
0.132106
0.131878
0.131706
0.131592
0.131534
0.131533
0.13159
0.131704
0.131877
0.132108
0.132397
0.132745
0.133152
0.133617
0.134138
0.134717
0.135351
0.136042
0.136788
0.137592
0.138451
0.139367
0.140339
0.141365
0.142445
0.143577
0.144758
0.14599
0.147272
0.148605
0.15227
0.150903
0.14959
0.148329
0.14712
0.145963
0.14486
0.143811
0.142816
0.141876
0.140994
0.140169
0.139402
0.138693
0.138043
0.137453
0.136921
0.136449
0.136037
0.135683
0.13539
0.135156
0.134981
0.134864
0.134805
0.134804
0.134861
0.134978
0.135155
0.135391
0.135686
0.136042
0.136458
0.136933
0.137466
0.138058
0.138707
0.139413
0.140177
0.140999
0.141878
0.142815
0.14381
0.14486
0.145964
0.147122
0.148332
0.149592
0.150904
0.15227
0.156054
0.154654
0.15331
0.152019
0.150781
0.149597
0.148467
0.147393
0.146375
0.145413
0.14451
0.143666
0.142881
0.142156
0.141491
0.140888
0.140344
0.139861
0.139439
0.139078
0.138778
0.138538
0.138358
0.138239
0.138178
0.138177
0.138236
0.138356
0.138537
0.138778
0.13908
0.139443
0.139869
0.140354
0.1409
0.141506
0.14217
0.142892
0.143674
0.144516
0.145415
0.146374
0.147392
0.148467
0.149598
0.150783
0.152022
0.153313
0.154656
0.156055
0.159965
0.15853
0.157153
0.155831
0.154563
0.15335
0.152193
0.151094
0.150051
0.149067
0.148142
0.147278
0.146475
0.145733
0.145052
0.144435
0.143878
0.143384
0.142952
0.142582
0.142275
0.142029
0.141845
0.141723
0.141661
0.14166
0.141721
0.141843
0.142027
0.142274
0.142583
0.142955
0.14339
0.143887
0.144446
0.145066
0.145746
0.146485
0.147286
0.148147
0.149069
0.150051
0.151093
0.152193
0.153351
0.154566
0.155834
0.157157
0.158533
0.159966
0.164009
0.162538
0.161127
0.159772
0.158473
0.15723
0.156045
0.154919
0.153851
0.152842
0.151895
0.151011
0.150188
0.149428
0.148732
0.148099
0.147529
0.147023
0.146581
0.146202
0.145888
0.145636
0.145447
0.145322
0.145258
0.145258
0.14532
0.145445
0.145634
0.145886
0.146202
0.146583
0.147028
0.147537
0.148109
0.148744
0.14944
0.150198
0.151018
0.151901
0.152845
0.153851
0.154918
0.156045
0.157232
0.158476
0.159776
0.161131
0.162541
0.164011
0.168193
0.166685
0.165238
0.163849
0.162517
0.161244
0.160029
0.158875
0.15778
0.156747
0.155777
0.15487
0.154027
0.153249
0.152535
0.151887
0.151303
0.150785
0.150332
0.149945
0.149622
0.149364
0.149171
0.149042
0.148977
0.148977
0.14904
0.149168
0.149361
0.14962
0.149943
0.150333
0.150789
0.151311
0.151896
0.152546
0.15326
0.154037
0.154877
0.155782
0.156749
0.15778
0.158874
0.16003
0.161245
0.16252
0.163853
0.165242
0.166688
0.168195
0.172524
0.170977
0.169493
0.168068
0.166703
0.165397
0.164152
0.162968
0.161846
0.160787
0.159793
0.158864
0.158
0.157202
0.156471
0.155806
0.155208
0.154676
0.154212
0.153815
0.153485
0.15322
0.153022
0.15289
0.152823
0.152823
0.152888
0.153019
0.153217
0.153482
0.153813
0.154213
0.15468
0.155214
0.155814
0.156481
0.157212
0.158009
0.15887
0.159797
0.16079
0.161847
0.162968
0.164153
0.165399
0.166707
0.168073
0.169498
0.17098
0.172526
0.17701
0.175422
0.1739
0.172439
0.171038
0.169699
0.168421
0.167207
0.166057
0.164971
0.163951
0.162998
0.162112
0.161294
0.160544
0.159863
0.159249
0.158704
0.158229
0.157822
0.157483
0.157211
0.157008
0.156872
0.156805
0.156804
0.15687
0.157005
0.157208
0.157479
0.157818
0.158228
0.158707
0.159255
0.15987
0.160553
0.161303
0.16212
0.163004
0.163955
0.164973
0.166057
0.167208
0.168422
0.169701
0.171042
0.172443
0.173905
0.175426
0.177013
0.181659
0.18003
0.178467
0.176968
0.17553
0.174156
0.172845
0.171599
0.170419
0.169305
0.168258
0.167281
0.166373
0.165533
0.164764
0.164065
0.163436
0.162876
0.162388
0.161971
0.161624
0.161345
0.161136
0.160997
0.160928
0.160927
0.160995
0.161133
0.161341
0.161619
0.161967
0.162387
0.162879
0.16344
0.164071
0.164772
0.165542
0.16638
0.167287
0.168263
0.169308
0.17042
0.1716
0.172846
0.174158
0.175534
0.176973
0.178473
0.180034
0.181663
0.186481
0.184808
0.183203
0.181664
0.180188
0.178777
0.177432
0.176153
0.174942
0.173798
0.172724
0.171721
0.170789
0.169927
0.169138
0.168421
0.167774
0.167201
0.1667
0.166272
0.165915
0.165629
0.165415
0.165272
0.165201
0.1652
0.16527
0.165412
0.165625
0.16591
0.166267
0.166698
0.167202
0.167778
0.168426
0.169145
0.169935
0.170795
0.171726
0.172728
0.173801
0.174943
0.176154
0.177433
0.17878
0.180192
0.181669
0.183209
0.184812
0.191484
0.189765
0.188117
0.186536
0.185021
0.183572
0.18219
0.180877
0.179633
0.178459
0.177356
0.176327
0.17537
0.174485
0.173674
0.172938
0.172274
0.171685
0.171171
0.170732
0.170366
0.170072
0.169852
0.169705
0.169632
0.169631
0.169703
0.169849
0.170068
0.17036
0.170727
0.171169
0.171686
0.172277
0.172942
0.17368
0.174491
0.175375
0.176331
0.177361
0.178462
0.179635
0.180879
0.182192
0.183575
0.185025
0.186542
0.188123
0.196678
0.194912
0.193219
0.191594
0.190038
0.188549
0.18713
0.18578
0.184503
0.183297
0.182165
0.181107
0.180124
0.179216
0.178383
0.177626
0.176944
0.17634
0.175812
0.175361
0.174984
0.174683
0.174456
0.174306
0.174231
0.17423
0.174304
0.174453
0.174678
0.174978
0.175355
0.175809
0.17634
0.176947
0.177629
0.178387
0.179221
0.180129
0.181111
0.182169
0.183301
0.184506
0.185783
0.187132
0.188552
0.190042
0.1916
0.202074
0.200258
0.198519
0.196849
0.195249
0.19372
0.192261
0.190874
0.189562
0.188323
0.187159
0.186072
0.185062
0.184128
0.183273
0.182494
0.181794
0.181173
0.180631
0.180167
0.17978
0.179471
0.179238
0.179083
0.179006
0.179005
0.179081
0.179235
0.179466
0.179774
0.180161
0.180628
0.181173
0.181796
0.182497
0.183276
0.184132
0.185066
0.186076
0.187163
0.188326
0.189565
0.190877
0.192264
0.193723
0.195254
0.207683
0.205816
0.204028
0.202311
0.200666
0.199094
0.197595
0.196168
0.194819
0.193546
0.192349
0.191232
0.190194
0.189234
0.188354
0.187554
0.186834
0.186196
0.185638
0.185162
0.184764
0.184446
0.184207
0.184048
0.183969
0.183967
0.184045
0.184203
0.184441
0.184758
0.185155
0.185635
0.186195
0.186836
0.187556
0.188356
0.189237
0.190197
0.191235
0.192353
0.193549
0.194823
0.196172
0.197598
0.199097
0.213517
0.211597
0.209758
0.207992
0.2063
0.204684
0.203142
0.201675
0.200287
0.198978
0.197747
0.196599
0.195531
0.194544
0.193639
0.192815
0.192075
0.191419
0.190846
0.190356
0.189947
0.189619
0.189374
0.18921
0.189128
0.189127
0.189207
0.18937
0.189614
0.18994
0.190349
0.190842
0.191418
0.192076
0.192817
0.193639
0.194545
0.195533
0.196601
0.197751
0.198981
0.200291
0.201679
0.203145
0.204687
0.219589
0.217613
0.215721
0.213905
0.212164
0.210501
0.208915
0.207405
0.205978
0.204631
0.203365
0.202183
0.201085
0.200069
0.199138
0.19829
0.197529
0.196854
0.196264
0.19576
0.19534
0.195003
0.19475
0.194582
0.194497
0.194496
0.194579
0.194746
0.194997
0.195333
0.195753
0.19626
0.196852
0.197529
0.198291
0.199137
0.200069
0.201086
0.202185
0.203368
0.204635
0.205982
0.207411
0.208918
0.210505
0.225913
0.223879
0.221932
0.220063
0.218271
0.216559
0.214927
0.213373
0.211904
0.210518
0.209215
0.207998
0.206868
0.205823
0.204864
0.203992
0.203208
0.202513
0.201907
0.201388
0.200955
0.200608
0.200348
0.200175
0.200088
0.200087
0.200172
0.200344
0.200603
0.200948
0.201381
0.201902
0.202511
0.203208
0.203992
0.204863
0.205822
0.206868
0.208
0.209218
0.210522
0.211909
0.213379
0.214931
0.216564
0.232503
0.230409
0.228404
0.22648
0.224636
0.222873
0.221192
0.219593
0.21808
0.216653
0.215312
0.214059
0.212895
0.211819
0.210831
0.209933
0.209126
0.20841
0.207786
0.207252
0.206806
0.206449
0.206182
0.206003
0.205913
0.205912
0.206
0.206177
0.206444
0.206799
0.207245
0.207782
0.208408
0.209125
0.209932
0.210829
0.211817
0.212894
0.21406
0.215314
0.216657
0.218085
0.219599
0.221197
0.222877
0.239375
0.237218
0.235154
0.233172
0.231273
0.229457
0.227725
0.226078
0.22452
0.22305
0.221669
0.220378
0.21918
0.218071
0.217053
0.216128
0.215296
0.21456
0.213917
0.213367
0.212907
0.21254
0.212264
0.21208
0.211988
0.211986
0.212077
0.21226
0.212535
0.212901
0.21336
0.213912
0.214558
0.215296
0.216126
0.21705
0.218068
0.219178
0.22038
0.221671
0.223054
0.224526
0.226085
0.227731
0.229461
0.246546
0.244323
0.242197
0.240155
0.238198
0.236327
0.234543
0.232846
0.23124
0.229726
0.228303
0.226973
0.225738
0.224595
0.223546
0.222592
0.221735
0.220976
0.220314
0.219748
0.219274
0.218896
0.218612
0.218421
0.218326
0.218325
0.218418
0.218607
0.21889
0.219268
0.219741
0.22031
0.220974
0.221735
0.22259
0.223542
0.224591
0.225735
0.226974
0.228305
0.22973
0.231247
0.232853
0.234549
0.236332
0.254033
0.251742
0.249551
0.247447
0.24543
0.243501
0.241662
0.239914
0.238258
0.236697
0.23523
0.233859
0.232586
0.231408
0.230326
0.229343
0.22846
0.227677
0.226994
0.226411
0.225922
0.225533
0.22524
0.225043
0.224945
0.224944
0.22504
0.225235
0.225527
0.225917
0.226405
0.226991
0.227675
0.228458
0.229341
0.230321
0.231403
0.232583
0.23386
0.235232
0.236701
0.238265
0.239921
0.241669
0.261857
0.259494
0.257235
0.255067
0.252987
0.250998
0.249102
0.247299
0.245592
0.243982
0.24247
0.241055
0.239743
0.238527
0.237412
0.236398
0.235487
0.23468
0.233976
0.233374
0.23287
0.232468
0.232166
0.231963
0.231862
0.23186
0.23196
0.232161
0.232462
0.232865
0.233368
0.233972
0.234678
0.235485
0.236395
0.237406
0.238522
0.239739
0.241056
0.242471
0.243987
0.245599
0.247307
0.249109
0.270037
0.2676
0.265271
0.263035
0.26089
0.258838
0.256881
0.255022
0.253261
0.251601
0.250041
0.248582
0.247227
0.245973
0.244822
0.243776
0.242836
0.242003
0.241277
0.240656
0.240136
0.239722
0.23941
0.239201
0.239096
0.239094
0.239198
0.239405
0.239716
0.240132
0.240651
0.241274
0.242001
0.242834
0.243772
0.244815
0.245966
0.247222
0.248582
0.250042
0.251605
0.253269
0.255031
0.25689
0.278597
0.276082
0.27368
0.271373
0.26916
0.267042
0.265023
0.263104
0.261287
0.259574
0.257964
0.256458
0.25506
0.253766
0.248919
0.248277
0.247741
0.247314
0.246991
0.246775
0.246667
0.246665
0.246772
0.246986
0.247307
0.247737
0.248273
0.248916
0.249666
0.250525
0.251493
0.25257
0.253758
0.255055
0.256458
0.257965
0.259578
0.261295
0.263114
0.265032
0.259581
0.260693
0.261919
0.263258
0.264707
0.266263
0.267929
0.269702
0.271579
0.273559
0.278513
0.280452
0.282497
0.0696697
0.071443
0.0732593
0.0751181
0.0770167
0.0789503
0.080914
0.0829049
0.0849227
0.0869693
0.0890474
0.0911595
0.0933082
0.0954963
0.0977265
0.100001
0.102324
0.104697
0.107123
0.109606
0.112148
0.114753
0.117424
0.120164
0.122978
0.125868
0.128839
0.131895
0.13504
0.138279
0.141617
0.145058
0.148607
0.152272
0.156056
0.159966
0.16401
0.168194
0.172524
0.17701
0.181659
0.186481
0.191483
0.196677
0.202073
0.207682
0.213516
0.219588
0.225912
0.232502
0.239374
0.246544
0.254032
0.261855
0.270035
0.278595
0.070644
0.0724447
0.0742888
0.0761744
0.0780974
0.0800523
0.0820351
0.0840449
0.086083
0.0881516
0.0902534
0.092391
0.0945671
0.0967844
0.0990456
0.101354
0.103711
0.106121
0.108586
0.111111
0.113697
0.116348
0.119067
0.121859
0.124727
0.127674
0.130705
0.133824
0.137036
0.140345
0.143757
0.147276
0.150908
0.154659
0.158535
0.162542
0.166688
0.170979
0.175424
0.180031
0.184808
0.189764
0.19491
0.200256
0.205813
0.211594
0.21761
0.223875
0.230404
0.237212
0.244317
0.251735
0.259487
0.267592
0.276073
0.0792156
0.0811916
0.0831947
0.0852252
0.0872852
0.0893776
0.0915048
0.0936697
0.0958748
0.098123
0.100417
0.10276
0.105155
0.107604
0.110111
0.112679
0.115311
0.118011
0.120782
0.123628
0.126553
0.12956
0.132655
0.135841
0.139123
0.142507
0.145997
0.149599
0.153318
0.157161
0.161134
0.165244
0.169499
0.173905
0.178471
0.183206
0.188119
0.19322
0.198518
0.204026
0.209755
0.215717
0.221926
0.228397
0.235145
0.242186
0.249539
0.257222
0.265256
0.273663
0.0784075
0.0803758
0.0823722
0.0843959
0.0864482
0.0885318
0.0906494
0.0928039
0.0949977
0.0972338
0.099515
0.101844
0.104224
0.106658
0.109149
0.1117
0.114314
0.116995
0.119746
0.122571
0.125474
0.128459
0.13153
0.134691
0.137948
0.141305
0.144767
0.14834
0.152029
0.15584
0.159781
0.163857
0.168076
0.172446
0.176974
0.181669
0.18654
0.191598
0.196851
0.202312
0.207991
0.213903
0.220059
0.226474
0.233164
0.240145
0.247435
0.255052
0.263018
0.271353
0.0776316
0.0795916
0.081581
0.0835976
0.0856424
0.0877178
0.0898263
0.0919707
0.0941537
0.0963783
0.0986472
0.100963
0.103329
0.105748
0.108224
0.110758
0.113355
0.116018
0.11875
0.121556
0.124438
0.127401
0.13045
0.133588
0.13682
0.140151
0.143587
0.147132
0.150792
0.154573
0.158483
0.162526
0.166712
0.171046
0.175537
0.180194
0.185026
0.190042
0.195253
0.200669
0.206302
0.212164
0.21827
0.224632
0.231267
0.238191
0.24542
0.252975
0.260875
0.269143
0.0788362
0.080819
0.0828297
0.0848679
0.0869358
0.089036
0.0911712
0.0933443
0.095558
0.0978152
0.100119
0.102472
0.104877
0.107337
0.109856
0.112437
0.115083
0.117797
0.120583
0.123446
0.126389
0.129416
0.132531
0.13574
0.139047
0.142457
0.145976
0.149608
0.153361
0.157241
0.161253
0.165406
0.169707
0.174163
0.178783
0.183577
0.188553
0.193723
0.199096
0.204684
0.210501
0.216558
0.22287
0.229453
0.236322
0.243494
0.25099
0.258828
0.267031
0.0781156
0.0800909
0.0820951
0.084127
0.0861877
0.0882801
0.0904067
0.0925703
0.0947737
0.09702
0.0993118
0.101652
0.104044
0.106491
0.108995
0.11156
0.114189
0.116886
0.119655
0.122499
0.125422
0.128429
0.131523
0.13471
0.137993
0.141379
0.144873
0.14848
0.152205
0.156056
0.160039
0.164161
0.16843
0.172853
0.177438
0.182196
0.187135
0.192265
0.197597
0.203143
0.208915
0.214925
0.22119
0.227722
0.234538
0.241657
0.249095
0.256874
0.265015
0.0774285
0.0793962
0.081394
0.0834198
0.085474
0.0875589
0.0896774
0.0918321
0.094026
0.0962621
0.0985429
0.100872
0.103251
0.105684
0.108175
0.110725
0.113339
0.11602
0.118772
0.121598
0.124503
0.12749
0.130564
0.13373
0.136991
0.140354
0.143824
0.147406
0.151106
0.15493
0.158885
0.162978
0.167216
0.171608
0.17616
0.180884
0.185787
0.19088
0.196173
0.201679
0.207408
0.213375
0.219593
0.226078
0.232844
0.23991
0.247295
0.255017
0.263098
0.0767759
0.0787356
0.080727
0.0827469
0.0847949
0.0868731
0.0889841
0.0911307
0.0933159
0.0955424
0.097813
0.100131
0.102498
0.104919
0.107396
0.109933
0.112533
0.115199
0.117934
0.120744
0.123631
0.1266
0.129656
0.132801
0.136043
0.139384
0.142831
0.14639
0.150065
0.153864
0.157793
0.161858
0.166067
0.170429
0.17495
0.179641
0.18451
0.189567
0.194824
0.200291
0.205981
0.211906
0.218081
0.22452
0.231239
0.238256
0.245589
0.253258
0.261284
0.0761587
0.0781102
0.0800951
0.0821093
0.0841517
0.0862237
0.088328
0.0904672
0.0926441
0.0948617
0.0971228
0.0994302
0.101787
0.104196
0.106661
0.109185
0.111771
0.114423
0.117144
0.119938
0.122809
0.125761
0.128799
0.131926
0.135148
0.138469
0.141895
0.145432
0.149085
0.15286
0.156763
0.160803
0.164985
0.169318
0.17381
0.17847
0.183307
0.188332
0.193553
0.198984
0.204636
0.210522
0.216655
0.223051
0.229726
0.236696
0.24398
0.251598
0.25957
0.0755768
0.0775201
0.0794988
0.0815077
0.083545
0.0856115
0.0877094
0.0898416
0.0920109
0.0942201
0.0964723
0.0987701
0.101117
0.103515
0.105969
0.108481
0.111054
0.113693
0.1164
0.11918
0.122036
0.124972
0.127993
0.131103
0.134307
0.137609
0.141016
0.144532
0.148163
0.151916
0.155796
0.159811
0.163968
0.168275
0.17274
0.177371
0.182178
0.187171
0.19236
0.197757
0.203373
0.209222
0.215317
0.221673
0.228306
0.235232
0.24247
0.25004
0.257962
0.0750295
0.0769646
0.078937
0.080941
0.0829739
0.0850355
0.0871279
0.0892538
0.0914161
0.0936178
0.0958618
0.0981511
0.100489
0.102877
0.10532
0.107821
0.110383
0.11301
0.115704
0.11847
0.121312
0.124234
0.127239
0.130333
0.13352
0.136806
0.140194
0.143691
0.147302
0.151034
0.154892
0.158885
0.163018
0.1673
0.171739
0.176343
0.181123
0.186086
0.191245
0.19661
0.202194
0.208008
0.214067
0.220386
0.226979
0.233864
0.24106
0.248585
0.256461
0.0745199
0.0764468
0.0784127
0.0804117
0.08244
0.084497
0.0865844
0.0887048
0.0908611
0.093056
0.0952927
0.097574
0.0999031
0.102283
0.104717
0.107207
0.109759
0.112374
0.115056
0.11781
0.120639
0.123547
0.126538
0.129618
0.132789
0.136058
0.139429
0.142908
0.146501
0.150214
0.154052
0.158023
0.162135
0.166394
0.170809
0.175388
0.180142
0.185078
0.190209
0.195544
0.201097
0.206879
0.212904
0.219188
0.225745
0.232592
0.239748